/*--------------------------------*- C++ -*----------------------------------*\
  =========                 |
  \\      /  F ield         | OpenFOAM: The Open Source CFD Toolbox
   \\    /   O peration     | Website:  https://openfoam.org
    \\  /    A nd           | Version:  8
     \\/     M anipulation  |
\*---------------------------------------------------------------------------*/
FoamFile
{
    version     2.0;
    format      ascii;
    class       volVectorField;
    location    "600";
    object      U;
}
// * * * * * * * * * * * * * * * * * * * * * * * * * * * * * * * * * * * * * //

dimensions      [0 1 -1 0 0 0 0];

internalField   nonuniform List<vector> 
12225
(
(9.82138 -0.778105 0)
(9.57026 -0.788522 0)
(9.24488 -0.513033 0)
(8.96578 -0.338733 0)
(8.65936 -0.0681567 0)
(8.44286 0.045838 0)
(8.19682 -0.0788757 0)
(8.0085 -0.0708008 0)
(7.84064 -0.0576773 0)
(7.70791 -0.0299548 0)
(7.59363 -0.0160162 0)
(7.49408 -0.0111527 0)
(7.38912 0.0207483 0)
(7.30855 -0.00361723 0)
(7.24254 -0.0358168 0)
(7.1901 -0.00353639 0)
(7.13107 0.0128668 0)
(7.11194 -0.0126381 0)
(10.0622 0.196148 0)
(10.2059 0.384932 0)
(10.2202 0.340195 0)
(10.1787 0.270647 0)
(10.1587 0.176856 0)
(9.9972 0.124082 0)
(9.93142 0.134106 0)
(9.86018 0.10783 0)
(9.79393 0.0865667 0)
(9.70912 0.0657321 0)
(9.61906 0.0554843 0)
(9.53955 0.0522169 0)
(9.46899 0.042076 0)
(9.3857 0.0503305 0)
(9.32536 0.057603 0)
(9.26568 0.0428301 0)
(9.1984 0.0326264 0)
(9.1482 0.0425172 0)
(9.99673 0.0595179 0)
(10.0367 0.0591776 0)
(10.0766 0.0250816 0)
(10.0965 0.0192403 0)
(10.1193 0.034836 0)
(10.1335 0.0486874 0)
(10.1397 0.0523463 0)
(10.132 0.0619595 0)
(10.1223 0.0668042 0)
(10.1043 0.068853 0)
(10.0825 0.0673028 0)
(10.0571 0.0641983 0)
(10.0342 0.063456 0)
(10.0094 0.0553706 0)
(9.98178 0.047871 0)
(9.95474 0.0492057 0)
(9.92864 0.0453915 0)
(9.90053 0.0399798 0)
(9.99538 0.0110334 0)
(10.0071 0.0320387 0)
(10.0414 0.0452777 0)
(10.0632 0.05768 0)
(10.0814 0.0749091 0)
(10.1017 0.0827481 0)
(10.1165 0.0775019 0)
(10.1235 0.0753074 0)
(10.1284 0.0744593 0)
(10.132 0.0748203 0)
(10.1341 0.0734031 0)
(10.1341 0.0708738 0)
(10.1338 0.0694006 0)
(10.1326 0.064962 0)
(10.128 0.0598598 0)
(10.1227 0.0577819 0)
(10.1176 0.0538117 0)
(10.1107 0.0492996 0)
(9.99976 0.00705854 0)
(10.0048 0.0367056 0)
(10.0311 0.0520662 0)
(10.0498 0.0591739 0)
(10.0637 0.0681095 0)
(10.0803 0.072079 0)
(10.0943 0.068857 0)
(10.1036 0.0674333 0)
(10.1112 0.0671563 0)
(10.1183 0.0676819 0)
(10.1251 0.0675189 0)
(10.1309 0.0666165 0)
(10.1365 0.0657539 0)
(10.1414 0.0629339 0)
(10.1441 0.0594023 0)
(10.1462 0.0571194 0)
(10.1482 0.0541054 0)
(10.1492 0.050807 0)
(10.0014 0.00961003 0)
(10.005 0.0343328 0)
(10.0248 0.0463246 0)
(10.0412 0.0523433 0)
(10.0538 0.0602134 0)
(10.0681 0.0648965 0)
(10.0809 0.0646635 0)
(10.0906 0.0645188 0)
(10.0988 0.0646888 0)
(10.1065 0.0650393 0)
(10.114 0.0646981 0)
(10.1209 0.0636988 0)
(10.1276 0.0624994 0)
(10.1337 0.0600892 0)
(10.1386 0.0572791 0)
(10.1428 0.0549881 0)
(10.1469 0.0523154 0)
(10.1503 0.0493402 0)
(10.0013 0.0099549 0)
(10.0049 0.0285469 0)
(10.0202 0.0395265 0)
(10.0347 0.047032 0)
(10.0467 0.0547848 0)
(10.0594 0.0595884 0)
(10.0711 0.0606961 0)
(10.0808 0.0610584 0)
(10.0891 0.0612691 0)
(10.0969 0.0613879 0)
(10.1044 0.0609618 0)
(10.1115 0.0600005 0)
(10.1183 0.0587037 0)
(10.1246 0.056616 0)
(10.13 0.0542132 0)
(10.1349 0.0519507 0)
(10.1395 0.0494434 0)
(10.1437 0.0466036 0)
(10.001 0.00916078 0)
(10.005 0.0246009 0)
(10.0176 0.0352926 0)
(10.0304 0.0432915 0)
(10.0416 0.0502917 0)
(10.0531 0.0548354 0)
(10.0639 0.0567366 0)
(10.0734 0.0576181 0)
(10.0819 0.0580427 0)
(10.0898 0.0581465 0)
(10.0973 0.0577096 0)
(10.1044 0.056754 0)
(10.1111 0.0553755 0)
(10.1173 0.0534362 0)
(10.1228 0.0512171 0)
(10.1278 0.0489694 0)
(10.1325 0.0465259 0)
(10.1368 0.0438218 0)
(10.0009 0.00843132 0)
(10.0046 0.0216888 0)
(10.0151 0.0317526 0)
(10.0265 0.0397815 0)
(10.0371 0.0463866 0)
(10.0479 0.0507854 0)
(10.0581 0.0529762 0)
(10.0674 0.054076 0)
(10.0759 0.0546131 0)
(10.0837 0.0547576 0)
(10.0911 0.0543954 0)
(10.0982 0.0535357 0)
(10.1047 0.0522384 0)
(10.1108 0.0504595 0)
(10.1163 0.0484123 0)
(10.1214 0.0462497 0)
(10.126 0.0439245 0)
(10.1304 0.0413672 0)
(10.0008 0.00767934 0)
(10.0043 0.0190245 0)
(10.0129 0.0281958 0)
(10.0228 0.0359485 0)
(10.0326 0.042086 0)
(10.0425 0.0462923 0)
(10.0522 0.0486897 0)
(10.0612 0.0499913 0)
(10.0696 0.0506586 0)
(10.0773 0.0508645 0)
(10.0847 0.0505828 0)
(10.0916 0.0498192 0)
(10.0981 0.0486234 0)
(10.1041 0.0470216 0)
(10.1096 0.0451403 0)
(10.1146 0.0431129 0)
(10.1192 0.0409184 0)
(10.1236 0.0385453 0)
(10.0007 0.00682897 0)
(10.0039 0.0164578 0)
(10.0109 0.0246615 0)
(10.0194 0.0319367 0)
(10.0283 0.0375652 0)
(10.0375 0.0415121 0)
(10.0465 0.0439815 0)
(10.055 0.0454205 0)
(10.0631 0.046182 0)
(10.0707 0.0464405 0)
(10.0779 0.0462167 0)
(10.0847 0.0455375 0)
(10.0911 0.0444531 0)
(10.0971 0.043014 0)
(10.1025 0.0413121 0)
(10.1075 0.0394408 0)
(10.1121 0.0374215 0)
(10.1163 0.03522 0)
(10.0006 0.00588447 0)
(10.0035 0.0139713 0)
(10.0091 0.0211375 0)
(10.0164 0.0277428 0)
(10.0245 0.0328201 0)
(10.0328 0.0364367 0)
(10.0411 0.0388466 0)
(10.0491 0.0403266 0)
(10.0569 0.041137 0)
(10.0642 0.0414244 0)
(10.0712 0.0412536 0)
(10.0778 0.0406532 0)
(10.084 0.0396997 0)
(10.0898 0.0384087 0)
(10.0952 0.0369064 0)
(10.1001 0.0352003 0)
(10.1046 0.0333795 0)
(10.1088 0.0313904 0)
(10.0005 0.0048801 0)
(10.0031 0.0115788 0)
(10.0077 0.0176468 0)
(10.0139 0.0233917 0)
(10.0211 0.0278371 0)
(10.0286 0.0310491 0)
(10.0362 0.0332805 0)
(10.0437 0.034707 0)
(10.051 0.0355071 0)
(10.058 0.0358083 0)
(10.0646 0.0356756 0)
(10.071 0.0351738 0)
(10.077 0.0343288 0)
(10.0826 0.0332214 0)
(10.0878 0.031877 0)
(10.0927 0.0303883 0)
(10.0971 0.0287501 0)
(10.1011 0.0270203 0)
(10.0004 0.00386879 0)
(10.0026 0.00924823 0)
(10.0065 0.0141618 0)
(10.0119 0.0188969 0)
(10.0182 0.0226226 0)
(10.025 0.0253501 0)
(10.0319 0.0272888 0)
(10.0388 0.028567 0)
(10.0456 0.0292932 0)
(10.0522 0.0295764 0)
(10.0586 0.029475 0)
(10.0646 0.0290531 0)
(10.0704 0.0283313 0)
(10.0758 0.0273797 0)
(10.0808 0.0262211 0)
(10.0854 0.0249272 0)
(10.0897 0.0235162 0)
(10.0936 0.0220297 0)
(10.0003 0.00287704 0)
(10.0022 0.00694597 0)
(10.0055 0.0106407 0)
(10.0102 0.0142653 0)
(10.0158 0.0171775 0)
(10.0219 0.019327 0)
(10.0282 0.0208783 0)
(10.0346 0.0219103 0)
(10.041 0.0225017 0)
(10.0472 0.0227179 0)
(10.0531 0.0226282 0)
(10.0589 0.0222532 0)
(10.0643 0.0216554 0)
(10.0695 0.020835 0)
(10.0743 0.0198749 0)
(10.0788 0.0187708 0)
(10.0829 0.0176064 0)
(10.0867 0.0163685 0)
(10.0003 0.001912 0)
(10.0019 0.00463995 0)
(10.0047 0.00703996 0)
(10.0089 0.00947073 0)
(10.0139 0.0114626 0)
(10.0195 0.0129437 0)
(10.0253 0.0140091 0)
(10.0312 0.014714 0)
(10.0371 0.0150964 0)
(10.043 0.0152045 0)
(10.0486 0.0150749 0)
(10.054 0.0147379 0)
(10.0592 0.0142184 0)
(10.0641 0.0135458 0)
(10.0687 0.0127512 0)
(10.073 0.0118622 0)
(10.077 0.0109186 0)
(10.0807 0.00994519 0)
(10.0002 0.000955969 0)
(10.0016 0.00226935 0)
(10.0042 0.00329463 0)
(10.008 0.00441564 0)
(10.0127 0.00540201 0)
(10.0178 0.00609607 0)
(10.0232 0.00659564 0)
(10.0288 0.00688074 0)
(10.0344 0.00700129 0)
(10.0399 0.00693964 0)
(10.0453 0.0067453 0)
(10.0504 0.00640411 0)
(10.0554 0.00595777 0)
(10.0601 0.00540113 0)
(10.0645 0.00477292 0)
(10.0687 0.00407526 0)
(10.0725 0.00335095 0)
(10.0762 0.00261125 0)
(10.0002 2.19115e-05 0)
(10.0015 -9.63849e-05 0)
(10.004 -0.000520859 0)
(10.0077 -0.000705781 0)
(10.0122 -0.000799656 0)
(10.0172 -0.000906631 0)
(10.0224 -0.00103695 0)
(10.0278 -0.00117506 0)
(10.0332 -0.0013701 0)
(10.0386 -0.00159615 0)
(10.0438 -0.0018944 0)
(10.0488 -0.00223241 0)
(10.0536 -0.00264192 0)
(10.0581 -0.00308504 0)
(10.0624 -0.00358479 0)
(10.0665 -0.004103 0)
(10.0703 -0.00464906 0)
(10.0738 -0.00518063 0)
(10.0002 -0.000831263 0)
(10.0015 -0.0023401 0)
(10.0041 -0.00416497 0)
(10.0079 -0.00559272 0)
(10.0125 -0.00667544 0)
(10.0176 -0.00753454 0)
(10.0229 -0.00821589 0)
(10.0283 -0.00875584 0)
(10.0338 -0.00920304 0)
(10.0391 -0.00958831 0)
(10.0442 -0.00994842 0)
(10.0492 -0.0102948 0)
(10.0539 -0.0106475 0)
(10.0584 -0.0110058 0)
(10.0626 -0.0113793 0)
(10.0667 -0.0117614 0)
(10.0704 -0.0121478 0)
(10.0739 -0.0125249 0)
(10.0002 -0.00161521 0)
(10.0015 -0.00444155 0)
(10.0043 -0.00762022 0)
(10.0085 -0.0102051 0)
(10.0134 -0.0121495 0)
(10.0188 -0.0136593 0)
(10.0244 -0.0147843 0)
(10.03 -0.01564 0)
(10.0356 -0.0162648 0)
(10.041 -0.016759 0)
(10.0462 -0.017136 0)
(10.0512 -0.0174711 0)
(10.0559 -0.0177502 0)
(10.0604 -0.0180276 0)
(10.0646 -0.0182814 0)
(10.0686 -0.018546 0)
(10.0724 -0.0187948 0)
(10.0759 -0.0190435 0)
(10.0002 -0.00235203 0)
(10.0016 -0.00646382 0)
(10.0048 -0.0110641 0)
(10.0095 -0.014727 0)
(10.015 -0.0174221 0)
(10.0208 -0.0194373 0)
(10.0267 -0.0209353 0)
(10.0326 -0.0219937 0)
(10.0384 -0.0227471 0)
(10.044 -0.0232605 0)
(10.0493 -0.0236414 0)
(10.0544 -0.0239038 0)
(10.0592 -0.0241222 0)
(10.0637 -0.024283 0)
(10.068 -0.024445 0)
(10.072 -0.0245779 0)
(10.0757 -0.0247238 0)
(10.0792 -0.024844 0)
(10.0002 -0.00305617 0)
(10.0017 -0.00844592 0)
(10.0053 -0.0145911 0)
(10.0108 -0.0193051 0)
(10.017 -0.0226058 0)
(10.0234 -0.0250163 0)
(10.0298 -0.026742 0)
(10.036 -0.0279298 0)
(10.0421 -0.0287125 0)
(10.0479 -0.0292132 0)
(10.0534 -0.0295325 0)
(10.0585 -0.029722 0)
(10.0634 -0.0298357 0)
(10.0679 -0.0299022 0)
(10.0722 -0.0299443 0)
(10.0762 -0.0299769 0)
(10.08 -0.0299991 0)
(10.0835 -0.030022 0)
(10.0002 -0.0036822 0)
(10.0017 -0.0103947 0)
(10.006 -0.0181995 0)
(10.0125 -0.0239007 0)
(10.0196 -0.0277775 0)
(10.0265 -0.0305269 0)
(10.0334 -0.0323861 0)
(10.0401 -0.0335456 0)
(10.0464 -0.0342424 0)
(10.0524 -0.0346597 0)
(10.058 -0.034871 0)
(10.0633 -0.034964 0)
(10.0683 -0.0349624 0)
(10.0729 -0.0349344 0)
(10.0772 -0.0348739 0)
(10.0813 -0.0348191 0)
(10.0851 -0.0347527 0)
(10.0887 -0.03469 0)
(10.0001 -0.00416366 0)
(10.0014 -0.0127214 0)
(10.0066 -0.0220445 0)
(10.0144 -0.0282429 0)
(10.0224 -0.0325401 0)
(10.0301 -0.0357421 0)
(10.0375 -0.0378046 0)
(10.0447 -0.0389525 0)
(10.0513 -0.0395257 0)
(10.0576 -0.0397769 0)
(10.0634 -0.0398274 0)
(10.0688 -0.0397412 0)
(10.0739 -0.0395925 0)
(10.0786 -0.0394088 0)
(10.0831 -0.0392321 0)
(10.0872 -0.0390556 0)
(10.0911 -0.0389009 0)
(10.0947 -0.0387367 0)
(9.99979 -0.00377351 0)
(10.0005 -0.0159184 0)
(10.0076 -0.0274173 0)
(10.0166 -0.033294 0)
(10.0253 -0.0371349 0)
(10.0337 -0.0402549 0)
(10.042 -0.0424119 0)
(10.0499 -0.0436436 0)
(10.0572 -0.0442788 0)
(10.0638 -0.0445571 0)
(10.07 -0.0445843 0)
(10.0758 -0.0444442 0)
(10.0811 -0.0442061 0)
(10.086 -0.0439273 0)
(10.0905 -0.0436426 0)
(10.0947 -0.0433724 0)
(10.0987 -0.0431163 0)
(10.1024 -0.0428665 0)
(9.99824 -0.00012715 0)
(9.99673 -0.0170529 0)
(10.0078 -0.0335851 0)
(10.0197 -0.0413892 0)
(10.0295 -0.0450035 0)
(10.039 -0.0467861 0)
(10.0485 -0.0475738 0)
(10.0575 -0.0478108 0)
(10.0656 -0.0477621 0)
(10.0729 -0.0476238 0)
(10.0796 -0.0473746 0)
(10.0858 -0.0470567 0)
(10.0914 -0.0467058 0)
(10.0964 -0.0463505 0)
(10.101 -0.0460304 0)
(10.1052 -0.0457478 0)
(10.109 -0.0454948 0)
(10.1125 -0.0452382 0)
(9.99386 0.00192195 0)
(9.98714 -0.0112126 0)
(10.0063 -0.0283317 0)
(10.0247 -0.0440198 0)
(10.0391 -0.0550974 0)
(10.0519 -0.0605119 0)
(10.0635 -0.0622242 0)
(10.0738 -0.0620913 0)
(10.0827 -0.0611558 0)
(10.0905 -0.0598622 0)
(10.0973 -0.058423 0)
(10.1033 -0.0569408 0)
(10.1084 -0.0555112 0)
(10.1128 -0.0541881 0)
(10.1164 -0.053014 0)
(10.1196 -0.0519842 0)
(10.1222 -0.0510957 0)
(10.1245 -0.0502952 0)
(9.99263 -0.025599 0)
(9.98802 -0.0219009 0)
(10.017 0.00104665 0)
(10.0413 0.00547962 0)
(10.063 -0.00405105 0)
(10.0831 -0.0152575 0)
(10.0993 -0.0242919 0)
(10.1115 -0.0311906 0)
(10.1201 -0.0363874 0)
(10.1259 -0.0401479 0)
(10.1293 -0.0427484 0)
(10.1308 -0.0444687 0)
(10.1306 -0.0455312 0)
(10.1289 -0.0461703 0)
(10.1262 -0.0464979 0)
(10.1225 -0.0466504 0)
(10.1182 -0.0467043 0)
(10.1134 -0.046724 0)
(10.0292 -0.162396 0)
(10.1044 -0.327986 0)
(10.1415 -0.307913 0)
(10.158 -0.254749 0)
(10.1624 -0.207961 0)
(10.1624 -0.170538 0)
(10.1539 -0.141184 0)
(10.137 -0.118747 0)
(10.1136 -0.101781 0)
(10.0857 -0.0886935 0)
(10.0549 -0.0784527 0)
(10.0223 -0.0703105 0)
(9.98874 -0.0637881 0)
(9.95477 -0.0584936 0)
(9.92098 -0.0541647 0)
(9.88774 -0.0506387 0)
(9.85538 -0.0478023 0)
(9.82427 -0.0458934 0)
(9.95307 0.667987 0)
(9.86532 0.66243 0)
(9.70057 0.443123 0)
(9.50493 0.277093 0)
(9.3065 0.168139 0)
(9.12061 0.0995222 0)
(8.95259 0.0569099 0)
(8.80228 0.0305143 0)
(8.66903 0.0143647 0)
(8.55164 0.00439658 0)
(8.44816 -0.0016799 0)
(8.3568 -0.00530512 0)
(8.27569 -0.00739133 0)
(8.20347 -0.00851185 0)
(8.13876 -0.0090289 0)
(8.08058 -0.00921765 0)
(8.02756 -0.0092568 0)
(7.97925 -0.00960575 0)
(-0.00255922 0.00685559 0)
(-0.0118558 0.0114955 0)
(-0.0243105 0.012382 0)
(-0.03683 0.0104461 0)
(-0.0446674 0.00537459 0)
(-0.0414006 -0.00274155 0)
(-0.0259822 -0.0132601 -9.06111e-19)
(-0.00153223 -0.0231202 9.90861e-19)
(0.0284528 -0.0291532 0)
(0.0609577 -0.0304484 6.02374e-19)
(0.0930211 -0.0277376 0)
(0.121475 -0.0221459 0)
(0.143991 -0.0146821 0)
(0.159174 -0.00614885 -3.60977e-19)
(0.166618 0.00285215 0)
(0.165909 0.0114988 0)
(0.157427 0.0188055 3.66347e-19)
(0.142412 0.0238191 0)
(0.12247 0.0257507 0)
(0.0995725 0.0242068 0)
(0.0760807 0.0194167 -5.72782e-19)
(0.0544717 0.0123449 0)
(0.0369083 0.00449925 -8.35403e-19)
(0.024869 -0.00277474 0)
(0.0188237 -0.0089698 0)
(0.0197847 -0.0136844 -1.10946e-18)
(0.027207 -0.017272 0)
(0.0406002 -0.0205148 8.06358e-19)
(0.0588334 -0.0230461 0)
(0.0787903 -0.023154 -5.69467e-19)
(0.0963217 -0.0202854 0)
(0.109303 -0.0162122 0)
(0.117438 -0.0135609 0)
(0.122871 -0.0156236 0)
(0.125848 -0.0221658 0)
(0.121622 -0.0288526 4.44378e-19)
(0.10257 -0.0252204 0)
(0.065336 -0.00748216 -1.09297e-18)
(-0.00483071 0.0126002 0)
(-0.100136 0.0373474 5.58837e-19)
(-0.204765 0.0676845 0)
(-0.32337 0.0944826 0)
(-0.453714 0.111822 -2.21484e-19)
(-0.591894 0.114814 0)
(-0.732672 0.115588 -1.6465e-19)
(-0.868304 0.120159 1.44013e-19)
(-1.00036 0.118498 0)
(-1.12643 0.112384 1.1704e-19)
(-1.24306 0.110767 1.08256e-19)
(-1.35114 0.100262 0)
(-1.45068 0.0849864 0)
(-1.53963 0.0761188 0)
(-1.62009 0.0696291 0)
(-1.6934 0.0644846 0)
(-1.75979 0.0562744 -8.62393e-20)
(-1.81964 0.0472199 0)
(-1.87332 0.0431417 8.1965e-20)
(-1.92242 0.040378 0)
(-1.96804 0.0365349 0)
(-2.01009 0.0335272 -7.76913e-20)
(-2.04922 0.0308589 0)
(-2.08584 0.0285988 7.54158e-20)
(-2.12032 0.026676 0)
(-2.15293 0.0250031 0)
(-2.18392 0.0235567 0)
(-2.21348 0.0222843 -7.16127e-20)
(-2.24178 0.0211598 0)
(-2.26894 0.0201522 0)
(-2.29507 0.0192418 -6.91313e-20)
(-2.32026 0.018407 0)
(-2.34457 0.0176354 -6.75769e-20)
(-2.36805 0.0169114 0)
(-2.39074 0.0162274 0)
(-2.41266 0.0155712 0)
(-2.43385 0.0149396 6.46063e-20)
(-2.4543 0.0143225 0)
(-2.47403 0.013719 0)
(-2.49303 0.0131208 6.24402e-20)
(-2.5113 0.0125283 6.17224e-20)
(-2.52883 0.0119343 0)
(-2.54561 0.01134 6.02855e-20)
(-2.56163 0.0107387 0)
(-2.57686 0.0101315 1.1768e-19)
(-2.59129 0.00951204 0)
(-2.60491 0.00888005 1.14755e-19)
(-2.61767 0.00822868 0)
(-2.62956 0.00755536 -1.11782e-19)
(-2.64055 0.00685353 0)
(-2.65059 0.00611974 0)
(-2.65965 0.00534753 0)
(-2.66768 0.00453856 1.05655e-19)
(-2.67461 0.00369073 0)
(-2.68039 0.00281831 -1.02494e-19)
(-2.68495 0.00195879 0)
(-2.68822 0.0011839 9.92655e-20)
(-2.69015 0.000554976 9.75836e-20)
(-2.69117 1.40891e-05 9.5867e-20)
(-2.69119 -0.000509973 0)
(-2.69026 -0.00102895 0)
(-2.68835 -0.00154756 0)
(-2.68546 -0.00206921 0)
(-2.68157 -0.00259165 0)
(-2.67665 -0.00311785 0)
(-2.6707 -0.00364481 0)
(-2.6637 -0.0041755 0)
(-2.65562 -0.00470704 -7.85342e-20)
(-2.64646 -0.00524215 -7.63657e-20)
(-2.63618 -0.00577828 0)
(-2.62478 -0.0063177 0)
(-2.61223 -0.00685831 0)
(-2.59852 -0.00740177 -6.71146e-20)
(-2.58364 -0.00794647 0)
(-2.56755 -0.0084934 0)
(-2.55026 -0.0090414 0)
(-2.53175 -0.00959081 0)
(-2.512 -0.0101409 5.40573e-20)
(-2.49099 -0.0106913 0)
(-2.46873 -0.0112417 0)
(-2.44519 -0.0117913 -4.52754e-20)
(-2.42038 -0.0123398 4.21676e-20)
(-2.39428 -0.0128861 0)
(-2.36689 -0.0134301 3.56559e-20)
(-2.33822 -0.0139704 0)
(-2.30825 -0.0145071 -2.87176e-20)
(-2.27699 -0.0150387 0)
(-2.24445 -0.015565 0)
(-2.21064 -0.0160851 0)
(-2.17555 -0.0165986 0)
(-2.13922 -0.0171046 0)
(-2.10164 -0.0176009 9.8159e-21)
(-2.06284 -0.0180867 8.73823e-22)
(-2.02284 -0.0185541 0)
(-1.98167 -0.0190258 0)
(-1.93933 -0.0194726 0)
(-1.89587 -0.019914 3.83325e-20)
(-1.8513 -0.0203378 0)
(-1.80569 -0.0207489 0)
(-1.75901 -0.0211551 0)
(-1.71136 -0.0215311 8.39964e-20)
(-1.66273 -0.0219174 -9.66029e-20)
(-1.61317 -0.0222755 0)
(-1.56271 -0.0226247 0)
(-1.51141 -0.0229585 -1.37794e-19)
(-1.45929 -0.0232803 -1.52775e-19)
(-1.40641 -0.0235903 0)
(-1.35279 -0.0238885 0)
(-1.29847 -0.0241748 2.02129e-19)
(-1.24349 -0.0244509 -2.20245e-19)
(-1.18789 -0.0247172 0)
(-1.13172 -0.024976 0)
(-1.07502 -0.0252282 -2.806e-19)
(-1.01783 -0.0254761 0)
(-0.960187 -0.0257201 0)
(-0.902127 -0.0259631 -3.52022e-19)
(-0.843687 -0.0262054 0)
(-0.784902 -0.0264503 -4.07517e-19)
(-0.725803 -0.0266987 0)
(-0.666422 -0.0269544 0)
(-0.606787 -0.0272188 0)
(-0.546923 -0.0274963 5.44512e-19)
(-0.486853 -0.0277883 0)
(-0.426598 -0.0281 0)
(-0.366178 -0.0284335 0)
(-0.305608 -0.0288005 0)
(-0.244897 -0.0292318 0)
(-0.184048 -0.0297415 0)
(-0.123079 -0.0303072 9.3271e-19)
(-0.0620501 -0.0308773 1.01557e-18)
(-0.00102303 -0.0310785 0)
(0.0600614 -0.0305005 0)
(0.121218 -0.029517 0)
(0.182337 -0.0285277 -9.61526e-19)
(0.243263 -0.0275564 0)
(0.3038 -0.0265595 1.7759e-18)
(0.363694 -0.0254654 -1.71507e-18)
(0.422212 -0.024156 -1.66229e-18)
(0.479223 -0.0224014 1.61851e-18)
(0.529249 -0.0196203 -1.5862e-18)
(0.58233 -0.0158643 1.57064e-18)
(0.58251 -0.000101584 0)
(-0.000484564 0.0190654 0)
(-0.00644702 0.0333067 0)
(-0.0121056 0.0329122 2.26986e-18)
(-0.0101828 0.0220392 0)
(0.00729996 -0.000903022 -2.22137e-18)
(0.0377532 -0.0349891 -1.379e-18)
(0.0756218 -0.0687486 -4.63644e-19)
(0.116524 -0.0933224 -3.48248e-19)
(0.156596 -0.105167 0)
(0.192907 -0.10482 -2.47277e-19)
(0.223682 -0.0949888 0)
(0.24817 -0.078806 0)
(0.266178 -0.0589668 4.12463e-19)
(0.27787 -0.0374805 2.04928e-19)
(0.283575 -0.015814 -4.17421e-19)
(0.283953 0.00506263 -4.19669e-19)
(0.279339 0.0242948 -2.10426e-19)
(0.269806 0.0408769 0)
(0.25547 0.0536598 0)
(0.236748 0.061443 0)
(0.214521 0.0632516 -2.60427e-19)
(0.190347 0.0587016 0)
(0.166422 0.0482703 9.76059e-19)
(0.145341 0.0332619 0)
(0.129874 0.0152693 0)
(0.121401 -0.00430062 4.60188e-19)
(0.1213 -0.0238539 0)
(0.127858 -0.0409937 -3.95435e-19)
(0.135325 -0.0515894 -7.28637e-19)
(0.137701 -0.0512314 3.49542e-19)
(0.132433 -0.0422205 0)
(0.116834 -0.0299247 0)
(0.0865435 -0.0136214 0)
(0.0340283 0.0082576 -9.85232e-19)
(-0.0597453 0.0432256 -7.37211e-19)
(-0.180105 0.0929445 -2.12088e-19)
(-0.313102 0.146095 0)
(-0.455437 0.197023 2.03926e-19)
(-0.605717 0.240258 0)
(-0.75754 0.274368 -1.31968e-19)
(-0.906476 0.298794 0)
(-1.05052 0.313099 0)
(-1.18578 0.317149 9.14915e-20)
(-1.31032 0.311564 0)
(-1.42095 0.298444 2.40628e-19)
(-1.51761 0.280779 -7.54622e-20)
(-1.60172 0.259881 0)
(-1.67445 0.237085 -6.95857e-20)
(-1.73697 0.214284 -6.7359e-20)
(-1.79153 0.192877 0)
(-1.839 0.172676 0)
(-1.8812 0.154304 0)
(-1.91881 0.13787 0)
(-1.95258 0.123515 0)
(-1.98374 0.111133 5.98958e-20)
(-2.01291 0.100428 1.18109e-19)
(-2.04047 0.0911822 -5.80747e-20)
(-2.06664 0.0833173 0)
(-2.0913 0.0766153 1.13137e-19)
(-2.1149 0.0708854 -5.58531e-20)
(-2.13756 0.0659611 0)
(-2.15934 0.0617037 -5.45101e-20)
(-2.18035 0.0579957 0)
(-2.20064 0.0547387 0)
(-2.22025 0.051852 -1.05234e-19)
(-2.23923 0.0492678 5.20612e-20)
(-2.2576 0.0469313 -1.02871e-19)
(-2.27539 0.044795 1.01718e-19)
(-2.29261 0.0428224 5.0334e-20)
(-2.30926 0.0409796 0)
(-2.32536 0.0392429 4.92109e-20)
(-2.34091 0.0375878 0)
(-2.35591 0.0359996 0)
(-2.37034 0.03446 0)
(-2.38421 0.0329607 4.69124e-20)
(-2.3975 0.0314876 0)
(-2.41021 0.0300369 9.16964e-20)
(-2.42232 0.0285974 -1.35916e-19)
(-2.43382 0.027168 -4.47691e-20)
(-2.44469 0.0257396 0)
(-2.45492 0.024313 -4.36404e-20)
(-2.46449 0.0228808 0)
(-2.47338 0.0214447 -8.49875e-20)
(-2.48159 0.0199988 0)
(-2.4891 0.0185447 -8.26491e-20)
(-2.49588 0.0170768 1.62874e-19)
(-2.50193 0.0155943 8.02568e-20)
(-2.50725 0.0140926 0)
(-2.51182 0.0125698 0)
(-2.51565 0.0110238 0)
(-2.51875 0.00945367 -7.52912e-20)
(-2.52115 0.00785611 0)
(-2.52286 0.00623392 7.27162e-20)
(-2.52395 0.00460489 0)
(-2.52448 0.00302338 -2.1022e-19)
(-2.5245 0.00155055 -6.86629e-20)
(-2.52364 0.00015123 -6.7249e-20)
(-2.52189 -0.00123011 0)
(-2.5192 -0.00260414 0)
(-2.51556 -0.00397717 0)
(-2.51094 -0.0053526 0)
(-2.50533 -0.00672832 0)
(-2.49872 -0.00810673 -1.16669e-19)
(-2.49108 -0.00948454 -1.13494e-19)
(-2.48239 -0.0108642 0)
(-2.47264 -0.0122423 5.33635e-20)
(-2.46182 -0.0136212 5.16804e-20)
(-2.44989 -0.0149977 0)
(-2.43685 -0.0163737 9.67458e-20)
(-2.42269 -0.0177463 0)
(-2.40737 -0.0191167 -4.49764e-20)
(-2.39089 -0.0204823 0)
(-2.37323 -0.0218435 0)
(-2.35437 -0.0231982 7.84151e-20)
(-2.33431 -0.0245458 0)
(-2.31302 -0.0258845 -3.50778e-20)
(-2.2905 -0.027213 0)
(-2.26673 -0.0285296 0)
(-2.24171 -0.0298324 -2.93978e-20)
(-2.21543 -0.0311196 -2.67549e-20)
(-2.18788 -0.032389 0)
(-2.15906 -0.0336389 2.29142e-20)
(-2.12896 -0.0348665 0)
(-2.0976 -0.0360705 -1.83758e-20)
(-2.06496 -0.0372479 -3.14453e-20)
(-2.03106 -0.0383974 0)
(-1.9959 -0.0395163 0)
(-1.9595 -0.0406031 0)
(-1.92186 -0.0416555 0)
(-1.883 -0.0426711 -5.79645e-21)
(-1.84293 -0.0436476 -3.00852e-21)
(-1.80168 -0.0445834 0)
(-1.75927 -0.0454762 0)
(-1.71572 -0.0463251 0)
(-1.67105 -0.0471293 -2.17569e-20)
(-1.62531 -0.0478878 0)
(-1.57851 -0.0486006 0)
(-1.53069 -0.0492638 7.73874e-20)
(-1.48188 -0.0498788 4.3937e-20)
(-1.43211 -0.050446 5.20551e-20)
(-1.38143 -0.050968 0)
(-1.32987 -0.0514401 0)
(-1.27747 -0.0518638 7.1651e-20)
(-1.22426 -0.0522397 -7.64462e-20)
(-1.17029 -0.0525691 0)
(-1.1156 -0.0528526 0)
(-1.06022 -0.0530906 -9.95662e-20)
(-1.00419 -0.0532841 3.18555e-19)
(-0.947544 -0.0534357 0)
(-0.890335 -0.0535477 0)
(-0.832597 -0.0536228 1.29702e-19)
(-0.77437 -0.053663 0)
(-0.71569 -0.0536705 2.89163e-19)
(-0.656593 -0.0536477 -1.51696e-19)
(-0.597114 -0.0535972 0)
(-0.537287 -0.0535218 1.70915e-19)
(-0.477143 -0.0534242 3.57097e-19)
(-0.41671 -0.0533077 0)
(-0.356017 -0.0531751 0)
(-0.295087 -0.0530304 -2.0719e-19)
(-0.233943 -0.0528762 0)
(-0.172604 -0.0527176 4.50855e-19)
(-0.111089 -0.0525572 0)
(-0.0494151 -0.0523965 0)
(0.0123975 -0.0522279 0)
(0.0743488 -0.0520492 0)
(0.136442 -0.0518703 -2.57521e-19)
(0.198691 -0.0516845 -2.58246e-19)
(0.261111 -0.0513739 0)
(0.323627 -0.0508052 0)
(0.386116 -0.0500636 0)
(0.44853 -0.0492602 2.601e-19)
(0.510805 -0.048383 0)
(0.572783 -0.0473675 -5.21368e-19)
(0.634236 -0.0460911 5.22055e-19)
(0.694628 -0.0443542 5.23063e-19)
(0.7537 -0.0416938 5.21601e-19)
(0.808335 -0.0374642 5.27987e-19)
(0.863756 -0.0299655 5.31518e-19)
(0.892755 -0.00925695 0)
(-0.000106093 0.0229849 0)
(-0.0002708 0.0377918 0)
(0.00799231 0.0250877 -2.28002e-18)
(0.034565 -0.0159553 -1.48563e-18)
(0.0789891 -0.0754799 8.86839e-19)
(0.131026 -0.131715 6.11715e-19)
(0.18111 -0.170176 -5.00017e-22)
(0.223643 -0.186559 0)
(0.256741 -0.183413 0)
(0.280798 -0.166045 0)
(0.297147 -0.13982 0)
(0.307287 -0.108989 0)
(0.312448 -0.0765093 -9.48312e-19)
(0.313564 -0.0442414 0)
(0.3113 -0.0133259 3.32273e-19)
(0.305913 0.0154088 3.33331e-19)
(0.297935 0.0412548 0)
(0.287716 0.0635418 0)
(0.275444 0.0814326 0)
(0.261147 0.0938503 0)
(0.244764 0.0995215 4.05006e-19)
(0.22649 0.0972489 0)
(0.207085 0.086385 -4.90098e-19)
(0.188214 0.0671735 0)
(0.17187 0.0414283 0)
(0.159932 0.011903 0)
(0.150066 -0.0162757 -1.39852e-18)
(0.134158 -0.032869 0)
(0.101496 -0.0312814 6.43548e-19)
(0.0508302 -0.00883802 -1.35957e-18)
(-0.0151412 0.0320875 0)
(-0.110366 0.0854232 0)
(-0.227411 0.14782 0)
(-0.359284 0.215577 2.21125e-19)
(-0.505138 0.283899 1.70797e-19)
(-0.655717 0.347714 0)
(-0.80383 0.401889 0)
(-0.944088 0.444597 -2.01364e-19)
(-1.07253 0.474626 -1.78797e-19)
(-1.18638 0.490844 1.62112e-19)
(-1.28459 0.494062 0)
(-1.36689 0.48524 0)
(-1.43445 0.466067 0)
(-1.48976 0.438833 0)
(-1.53568 0.4066 -1.17577e-19)
(-1.57471 0.372396 -1.13958e-19)
(-1.60869 0.337908 1.09483e-19)
(-1.63925 0.304492 0)
(-1.66761 0.273417 0)
(-1.69461 0.24489 0)
(-1.72089 0.219096 0)
(-1.74677 0.19644 -9.40048e-20)
(-1.77218 0.176845 0)
(-1.797 0.159971 0)
(-1.82123 0.145296 -8.82172e-20)
(-1.84508 0.132547 -8.65515e-20)
(-1.86844 0.121743 0)
(-1.89116 0.112579 1.67693e-19)
(-1.91319 0.104625 -8.2609e-20)
(-1.93457 0.0977252 8.14452e-20)
(-1.95533 0.0917053 0)
(-1.97547 0.0864137 0)
(-1.995 0.0817253 0)
(-2.01395 0.0775324 0)
(-2.03233 0.0737479 7.62624e-20)
(-2.05016 0.0702979 1.50446e-19)
(-2.06745 0.067122 7.43767e-20)
(-2.08421 0.0641688 -7.34578e-20)
(-2.10046 0.0613964 0)
(-2.1162 0.0587687 1.43132e-19)
(-2.13142 0.056257 1.41357e-19)
(-2.14615 0.0538358 1.39595e-19)
(-2.16036 0.0514855 -1.37843e-19)
(-2.17405 0.0491881 0)
(-2.18723 0.0469308 -2.01608e-19)
(-2.19987 0.0447005 0)
(-2.21197 0.0424894 6.537e-20)
(-2.22352 0.0402882 6.46283e-20)
(-2.2345 0.038092 0)
(-2.2449 0.0358945 0)
(-2.2547 0.033693 1.2386e-19)
(-2.2639 0.0314832 0)
(-2.27247 0.0292643 1.20297e-19)
(-2.2804 0.0270337 0)
(-2.28767 0.0247918 -1.1668e-19)
(-2.29428 0.0225372 -2.29743e-19)
(-2.3002 0.0202708 0)
(-2.30544 0.0179932 0)
(-2.30998 0.0157073 0)
(-2.31382 0.013419 -1.07338e-19)
(-2.31696 0.0111369 0)
(-2.31939 0.00887084 -1.03467e-19)
(-2.3211 0.00663316 0)
(-2.32207 0.00443224 0)
(-2.32227 0.00226008 1.94743e-19)
(-2.32163 7.93823e-05 0)
(-2.32013 -0.0021224 9.31658e-20)
(-2.31773 -0.00433154 0)
(-2.31444 -0.00654403 8.88154e-20)
(-2.31021 -0.00876037 0)
(-2.30504 -0.0109787 0)
(-2.2989 -0.0131991 0)
(-2.29178 -0.0154201 2.39106e-19)
(-2.28367 -0.0176413 7.72422e-20)
(-2.27454 -0.0198616 0)
(-2.26437 -0.0220804 0)
(-2.25315 -0.0242967 0)
(-2.24087 -0.0265096 0)
(-2.22749 -0.0287182 -6.4991e-20)
(-2.21302 -0.0309212 1.25388e-19)
(-2.19742 -0.0331173 5.98624e-20)
(-2.18069 -0.035305 -1.15054e-19)
(-2.16281 -0.0374826 -1.09785e-19)
(-2.14377 -0.0396482 -5.19163e-20)
(-2.12354 -0.0417996 0)
(-2.10212 -0.0439345 -9.35658e-20)
(-2.07949 -0.0460504 0)
(-2.05565 -0.0481442 8.23999e-20)
(-2.03059 -0.0502131 3.79726e-20)
(-2.00429 -0.0522539 0)
(-1.97676 -0.0542632 -6.51075e-20)
(-1.94798 -0.0562374 -2.91717e-20)
(-1.91797 -0.0581731 0)
(-1.88671 -0.0600667 -2.40312e-20)
(-1.85421 -0.0619146 6.10549e-20)
(-1.82047 -0.0637133 0)
(-1.78551 -0.0654594 0)
(-1.74933 -0.0671498 0)
(-1.71194 -0.0687809 0)
(-1.67336 -0.0703494 9.23981e-21)
(-1.63361 -0.0718514 1.56177e-21)
(-1.5927 -0.0732834 0)
(-1.55065 -0.0746434 0)
(-1.50749 -0.0759282 0)
(-1.46325 -0.0771372 0)
(-1.41794 -0.0782685 0)
(-1.37161 -0.0793218 0)
(-1.32428 -0.0802939 -4.65059e-20)
(-1.27598 -0.0811827 -1.28639e-21)
(-1.22674 -0.0819911 0)
(-1.17661 -0.0827209 0)
(-1.12562 -0.0833674 -7.39761e-20)
(-1.0738 -0.0839318 0)
(-1.0212 -0.0844152 9.00418e-20)
(-0.967843 -0.0848197 9.60969e-20)
(-0.913779 -0.0851457 0)
(-0.859039 -0.0853949 0)
(-0.803662 -0.0855685 -1.20071e-19)
(-0.747686 -0.0856704 -2.52515e-19)
(-0.691151 -0.0857035 0)
(-0.634095 -0.0856717 0)
(-0.576556 -0.0855775 0)
(-0.518567 -0.0854246 -1.58554e-19)
(-0.460166 -0.0852159 1.66365e-19)
(-0.401385 -0.0849554 0)
(-0.342256 -0.0846467 3.6122e-19)
(-0.28281 -0.0842938 1.87033e-19)
(-0.223074 -0.0839006 -3.9294e-19)
(-0.163076 -0.0834712 0)
(-0.102838 -0.0830098 0)
(-0.0423827 -0.0825205 -4.41031e-19)
(0.0182697 -0.0820083 -2.28477e-19)
(0.0791033 -0.0814764 0)
(0.140108 -0.0809282 0)
(0.201274 -0.0803584 0)
(0.262588 -0.0797672 0)
(0.324037 -0.079164 -4.90376e-19)
(0.38562 -0.0785498 0)
(0.447335 -0.0779051 0)
(0.50914 -0.0772013 0)
(0.570974 -0.0764178 0)
(0.632794 -0.0755391 0)
(0.694529 -0.0745213 0)
(0.756043 -0.0732728 -5.28017e-19)
(0.817149 -0.0716289 0)
(0.877448 -0.0693139 0)
(0.936772 -0.0657872 -1.08848e-18)
(0.993176 -0.0602088 5.4956e-19)
(1.05053 -0.0508165 -5.60813e-19)
(1.0935 -0.0295596 5.77669e-19)
(-0.00147246 0.0245126 0)
(0.0039251 0.0210979 4.80078e-18)
(0.0351787 -0.0390495 0)
(0.0905368 -0.127887 7.46626e-19)
(0.152519 -0.205052 0)
(0.206206 -0.250512 0)
(0.244956 -0.262891 -3.41385e-19)
(0.269048 -0.250088 0)
(0.28179 -0.221716 0)
(0.286826 -0.185462 0)
(0.287005 -0.146269 0)
(0.284152 -0.106854 0)
(0.279268 -0.0685746 1.10949e-18)
(0.272853 -0.032126 5.73694e-19)
(0.265097 0.0020534 -5.94674e-19)
(0.256233 0.0334756 0)
(0.246214 0.0616888 0)
(0.235016 0.0861411 0)
(0.222664 0.106096 0)
(0.209218 0.120588 0)
(0.19462 0.128305 7.60904e-19)
(0.178759 0.127475 8.41586e-19)
(0.161885 0.116935 -9.47591e-19)
(0.144748 0.0964283 1.08595e-18)
(0.126719 0.0675368 0)
(0.101273 0.0362454 0)
(0.0550822 0.0226984 1.26411e-18)
(-0.00937936 0.0434499 0)
(-0.0917297 0.0897011 0)
(-0.197501 0.153126 5.4597e-19)
(-0.322365 0.229618 4.1812e-19)
(-0.459835 0.311894 3.30213e-19)
(-0.602684 0.392629 0)
(-0.745001 0.466519 0)
(-0.879791 0.527833 -1.97708e-19)
(-1.00078 0.573382 0)
(-1.10524 0.603141 0)
(-1.19258 0.617487 1.41691e-19)
(-1.26275 0.617796 -1.33192e-19)
(-1.31733 0.60594 1.24116e-19)
(-1.35886 0.584086 0)
(-1.39015 0.554471 0)
(-1.41438 0.519373 2.04879e-19)
(-1.43446 0.481197 0)
(-1.45263 0.442193 1.85464e-19)
(-1.47035 0.404066 2.65481e-19)
(-1.48841 0.367797 -2.55184e-19)
(-1.50726 0.333997 1.6446e-19)
(-1.52704 0.30306 0)
(-1.54769 0.275063 0)
(-1.5691 0.249937 1.50295e-19)
(-1.59107 0.227652 7.3054e-20)
(-1.61332 0.208061 0)
(-1.63561 0.190875 0)
(-1.65774 0.175779 6.8689e-20)
(-1.67965 0.162524 1.35072e-19)
(-1.70121 0.150942 0)
(-1.72231 0.140819 -1.30572e-19)
(-1.74291 0.131906 1.2859e-19)
(-1.76298 0.124029 -1.26678e-19)
(-1.78251 0.117036 0)
(-1.8015 0.110788 0)
(-1.81996 0.105168 0)
(-1.83789 0.100074 0)
(-1.8553 0.0954178 0)
(-1.8722 0.0911261 -1.16789e-19)
(-1.88861 0.087135 0)
(-1.90452 0.0833905 0)
(-1.91995 0.0798469 0)
(-1.93491 0.0764649 -2.21701e-19)
(-1.94938 0.0732119 -1.09471e-19)