/*--------------------------------*- C++ -*----------------------------------*\
  =========                 |
  \\      /  F ield         | OpenFOAM: The Open Source CFD Toolbox
   \\    /   O peration     | Website:  https://openfoam.org
    \\  /    A nd           | Version:  8
     \\/     M anipulation  |
\*---------------------------------------------------------------------------*/
FoamFile
{
    version     2.0;
    format      ascii;
    class       volVectorField;
    location    "600";
    object      wallShearStress;
}
// * * * * * * * * * * * * * * * * * * * * * * * * * * * * * * * * * * * * * //

dimensions      [0 2 -2 0 0 0 0];

internalField   uniform (0 0 0);

boundaryField
{
    inlet
    {
        type            calculated;
        value           uniform (0 0 0);
    }
    outlet
    {
        type            calculated;
        value           uniform (0 0 0);
    }
    upperWall
    {
        type            calculated;
        value           nonuniform List<vector> 
223
(
(-0.621983 -0.0556437 0)
(-0.575753 -0.0507358 0)
(-0.560352 -0.0329678 0)
(-0.551257 -0.020169 0)
(-0.54181 -0.011798 0)
(-0.531095 -0.00653557 0)
(-0.519343 -0.00329407 0)
(-0.507854 -0.00132675 0)
(-0.49669 -0.000164754 0)
(-0.486413 0.000516264 0)
(-0.477073 0.00090162 0)
(-0.46864 0.00110647 0)
(-0.461058 0.00120208 0)
(-0.454243 0.00123223 0)
(-0.448118 0.00122413 0)
(-0.442602 0.00119954 0)
(-0.437599 0.00117003 0)
(-0.43306 0.00118418 0)
(-0.429412 0.00123493 0)
(-0.426493 0.00127904 5.39364e-22)
(-0.423625 0.00128656 0)
(-0.420816 0.00126898 0)
(-0.418067 0.00123554 0)
(-0.415381 0.00119273 5.50975e-22)
(-0.412763 0.00114406 0)
(-0.410215 0.00109271 0)
(-0.407738 0.00104031 0)
(-0.405331 0.000988277 -1.12332e-21)
(-0.402994 0.000937394 1.12852e-21)
(-0.400727 0.000888317 1.13369e-21)
(-0.398527 0.000841279 0)
(-0.396393 0.000796819 -1.14398e-21)
(-0.394323 0.000754918 0)
(-0.392315 0.000715855 1.15423e-21)
(-0.390365 0.00067958 1.15936e-21)
(-0.388472 0.000646048 -1.1645e-21)
(-0.386632 0.0006152 0)
(-0.384843 0.000586859 0)
(-0.383101 0.00056096 0)
(-0.381404 0.000537376 0)
(-0.379749 0.000515842 -1.19022e-21)
(-0.378135 0.000496286 0)
(-0.376559 0.000478637 0)
(-0.375017 0.000462656 1.20575e-21)
(-0.373509 0.00044817 0)
(-0.372032 0.000435187 1.21614e-21)
(-0.370584 0.000423551 -1.22135e-21)
(-0.369163 0.000413053 1.22657e-21)
(-0.367768 0.000403704 0)
(-0.366397 0.000395434 0)
(-0.365048 0.000388106 0)
(-0.36372 0.000381656 1.24742e-21)
(-0.362411 0.000375958 -1.25262e-21)
(-0.36112 0.000371057 0)
(-0.359844 0.000366798 0)
(-0.358585 0.00036318 0)
(-0.357337 0.000360219 0)
(-0.356104 0.000357713 0)
(-0.35488 0.000355688 0)
(-0.353668 0.000354208 0)
(-0.352462 0.000353169 0)
(-0.351265 0.000352566 1.29836e-21)
(-0.350072 0.000352339 -1.30322e-21)
(-0.348887 0.000352466 0)
(-0.347703 0.000352941 0)
(-0.346524 0.000353745 0)
(-0.345343 0.000354864 -1.32189e-21)
(-0.344167 0.000356225 0)
(-0.342984 0.000357867 0)
(-0.341805 0.000359767 0)
(-0.340616 0.000361841 0)
(-0.339432 0.000364123 0)
(-0.33823 0.000366591 -2.69314e-21)
(-0.337038 0.000369415 0)
(-0.335817 0.000372604 0)
(-0.334612 0.000375836 0)
(-0.33337 0.00037944 0)
(-0.332138 0.000383815 0)
(-0.330881 0.000388005 0)
(-0.329602 0.000393935 0)
(-0.328325 0.000398217 2.74107e-21)
(-0.327033 0.000408579 0)
(-0.32563 0.000498635 0)
(-0.324233 0.000489193 0)
(-0.322821 0.000133778 -2.75222e-21)
(-0.321126 0.00012704 0)
(-0.320292 0.000176749 -2.76808e-21)
(-0.319396 -8.93262e-06 0)
(-0.31595 0.000247394 0)
(-0.318721 0.000501656 0)
(-0.314117 0.000407129 -2.79921e-21)
(-0.340913 0.000263547 0)
(-0.313068 0.000123924 2.78687e-21)
(-0.476162 0.00477878 4.23932e-21)
(-0.423864 0.00430938 0)
(-0.392552 -0.000546936 3.39873e-21)
(-0.351283 -0.000286673 0)
(-0.336697 0.00174491 0)
(-0.323061 0.00312335 0)
(-0.314552 0.00202686 -2.79166e-21)
(-0.318728 0.000556339 0)
(-0.321594 -4.00148e-05 -2.88605e-21)
(-0.302191 -9.64416e-05 2.73746e-21)
(-0.301679 -0.000705956 0)
(-0.390235 0.000512381 0)
(-0.359892 0.00838493 0)
(-0.317746 0.00613159 0)
(-0.332853 -0.00133129 0)
(-0.328427 -0.00123737 0)
(-0.295806 -0.000551065 0)
(-0.29618 -0.00124796 -2.70399e-21)
(-0.292932 -0.00172764 0)
(-0.359457 0.00107242 0)
(-0.325638 0.00183091 0)
(-0.318124 -0.000412721 0)
(-0.287459 -0.0010431 0)
(-0.364044 0.000158519 0)
(-0.3338 0.00424361 0)
(-0.283669 0.00193297 0)
(-0.281957 9.05804e-05 0)
(-0.280878 -0.000803078 0)
(-0.278853 -0.00247314 0)
(-0.370204 -0.00232115 0)
(-0.32073 -0.00111047 -5.37944e-21)
(-0.328769 0.0001011 0)
(-0.34851 -0.000232538 0)
(-0.34187 -0.000937654 0)
(-0.309614 0.000524034 4.85374e-21)
(-0.354709 0.0006595 0)
(-0.34351 -0.000567945 0)
(-0.334416 -1.03311e-05 4.80707e-21)
(-0.326573 0.000836602 0)
(-0.326994 -2.86016e-05 -4.31954e-21)
(-0.314032 -0.000692999 0)
(-0.28757 0.000355598 0)
(-0.306417 0.00116526 0)
(-0.276818 0.000681788 2.89378e-21)
(-0.285172 0.00041057 0)
(-0.263533 0.000968706 -2.33379e-21)
(-0.285353 0.00157705 0)
(-0.280888 0.000321852 0)
(-0.240261 0.00366103 0)
(-0.240913 0.00636341 0)
(-0.240524 0.00218851 0)
(-0.266428 0.0018803 0)
(-0.238501 0.00112784 0)
(-0.261013 -0.00152773 0)
(-0.265719 0.0020137 0)
(-0.23233 0.00311135 0)
(-0.230761 9.22805e-05 0)
(-0.245072 0.000426625 1.27506e-21)
(-0.227038 0.0005201 -1.47727e-21)
(-0.235907 0.000378765 0)
(-0.223037 0.000524667 0)
(-0.225626 0.000287964 0)
(-0.219026 0.000291978 0)
(-0.215911 0.00119233 -3.55301e-21)
(-0.215299 0.00461467 3.72746e-21)
(-0.214278 0.00345049 -3.96101e-21)
(-0.212099 -0.000835546 0)
(-0.208707 -0.00311584 -5.48037e-21)
(-0.204396 -0.00261994 -1.25437e-20)
(-0.199462 0.00165237 0)
(-0.1997 0.00394381 -1.28738e-20)
(-0.198169 0.00242494 1.39596e-20)
(-0.197361 -0.000614317 0)
(-0.193576 -0.0033531 0)
(-0.188937 -0.00233282 0)
(-0.185367 -0.00186507 0)
(-0.182286 -0.00135756 0)
(-0.178456 0.00153861 -2.29539e-20)
(-0.18097 0.00188694 0)
(-0.177115 0.000311522 -2.52016e-20)
(-0.175425 -0.000538478 0)
(-0.171084 -1.47528e-05 0)
(-0.171826 0.00348697 0)
(-0.174573 0.00153064 0)
(-0.169421 -0.00149432 0)
(-0.166383 -0.00160191 3.42719e-20)
(-0.161219 -0.000471113 0)
(-0.162678 0.00213314 0)
(-0.163901 0.00209752 -3.68421e-20)
(-0.161826 0.000966053 0)
(-0.157067 0.00021951 0)
(-0.151214 8.45311e-05 0)
(-0.145271 0.000234825 5.03035e-20)
(-0.138986 0.000529842 0)
(-0.13181 0.000808873 0)
(-0.123602 0.00107702 0)
(-0.114873 0.00124489 0)
(-0.106566 0.00122467 -7.82796e-20)
(-0.0993679 0.00105556 0)
(-0.0934539 0.00086504 0)
(-0.0881187 0.000790053 0)
(-0.0830974 0.000889019 1.06292e-19)
(-0.0754166 0.00114574 0)
(-0.0707526 0.00186145 0)
(-0.0421272 0.00160714 -1.49029e-19)
(-0.0727567 0.00104698 6.01853e-36)
(-0.106788 0.00635048 1.29336e-17)
(-0.129978 0.0106855 2.33223e-17)
(-0.14233 0.0132354 2.19926e-17)
(-0.149784 0.0146576 2.11763e-17)
(-0.155526 0.0155468 2.0503e-17)
(-0.160133 0.0161723 -1.99241e-17)
(-0.163761 0.016639 -1.9388e-17)
(-0.166855 0.0169976 -6.01853e-36)
(-0.169784 0.0173046 -3.67958e-17)
(-0.172831 0.0175943 -1.79006e-17)
(-0.176086 0.0178968 6.1389e-34)
(-0.179727 0.0182228 -1.20371e-35)
(-0.183805 0.0185951 -3.23449e-17)
(-0.188409 0.0190102 -3.09608e-17)
(-0.193578 0.0194848 -2.93964e-17)
(-0.199397 0.020014 0)
(-0.20591 0.0206131 5.14231e-17)
(-0.213326 0.0212911 2.35244e-17)
(-0.2214 0.0220378 2.40741e-35)
(-0.231291 0.022938 -3.65028e-17)
(-0.240449 0.0238133 -1.20239e-20)
(-0.256338 0.0251867 0)
(-0.260871 0.0259897 1.3653e-17)
(-0.291535 0.0278999 -7.68101e-18)
)
;
    }
    lowerWall
    {
        type            calculated;
        value           nonuniform List<vector> 
250
(
(-0.621835 0.0649179 0)
(-0.61165 0.0658284 0)
(-0.605961 0.0433071 0)
(-0.577753 0.0276184 0)
(-0.616924 0.00501936 0)
(-0.592072 -0.00560072 0)
(-0.589499 0.00625598 0)
(-0.511179 0.00502784 0)
(-0.598553 0.00482227 0)
(-0.655855 0.00239798 0)
(-0.590588 0.000836824 0)
(-0.715968 0.00041032 0)
(-0.611176 -0.00311177 0)
(-0.515683 -0.000238537 0)
(-0.614807 0.00346802 0)
(-0.649766 -0.000187276 0)
(-0.569521 -0.00176177 0)
(-0.516882 0.000791785 0)
(0.00292151 -0.0073679 0)
(0.00301994 -0.0113052 0)
(0.00311578 -0.015096 0)
(0.00321506 -0.0187025 6.93091e-20)
(0.00330131 -0.0219889 -6.14997e-20)
(0.00361614 -0.0249886 5.52687e-20)
(0.00465989 -0.0251754 -5.0954e-20)
(0.0100678 -0.0452328 0)
(-0.0728912 -0.157864 0)
(0.000205423 -0.000246079 0)
(7.19064e-05 -0.000732523 0)
(2.13794e-05 -0.000865707 0)
(6.15327e-05 -0.000921877 0)
(-1.93116e-05 -0.000720532 1.55451e-19)
(-0.000351239 0.000220419 -1.35989e-19)
(-0.00100671 0.00248336 0)
(-0.00161345 0.00606506 -1.41965e-19)
(-0.00174003 0.00987226 1.12642e-19)
(-0.00137904 0.0129054 0)
(-0.000772665 0.0146782 0)
(-0.000141542 0.0150722 0)
(0.000388747 0.0142039 0)
(0.000860944 0.0124329 0)
(0.00134328 0.00975874 0)
(0.00185388 0.00625613 0)
(0.00239871 0.00204753 0)
(0.00279744 -0.00277514 0)
(-0.000128382 -0.000252046 0)
(0.000157234 -0.000406727 0)
(0.000439071 -0.000446757 0)
(0.000715576 -0.000371688 0)
(0.000910733 -0.000154798 -0)
(0.000902088 0.000177988 -0)
(0.000644192 0.000553071 1.60286e-20)
(0.000170019 0.000871331 -1.75332e-20)
(-0.000438383 0.00105944 -0)
(-0.00109243 0.00109983 -1.06626e-20)
(-0.00172179 0.00100957 -0)
(-0.00226819 0.00081962 0)
(-0.00269344 0.00056469 -0)
(-0.00297647 0.000275168 6.40589e-21)
(-0.00311 -2.89287e-05 0)
(-0.00308352 -0.000323644 0)
(-0.00290282 -0.000576391 -6.51936e-21)
(-0.00259176 -0.000757948 -0)
(-0.00218367 -0.000845878 0)
(-0.00172206 -0.000827082 -0)
(-0.00125993 -0.000704702 1.02151e-20)
(-0.000851474 -0.000503211 0)
(-0.000537923 -0.000264267 1.49078e-20)
(-0.000337339 -2.92278e-05 0)
(-0.000250489 0.00018711 0)
(-0.000288782 0.000369741 1.98221e-20)
(-0.000433511 0.000519214 0)
(-0.000681794 0.000651289 -1.44182e-20)
(-0.00103266 0.000744084 0)
(-0.00143157 0.00074197 1.01911e-20)
(-0.00177776 0.000637389 0)
(-0.00200956 0.000492423 0)
(-0.00211105 0.000391107 0)
(-0.00214246 0.00041477 0)
(-0.00216411 0.000524312 0)
(-0.00216359 0.000578721 -7.99036e-21)
(-0.0019975 0.000335094 0)
(-0.00144493 -0.000330093 1.96941e-20)
(-0.000229937 -0.00108139 0)
(0.00141743 -0.0018311 -1.01165e-20)
(0.00329275 -0.00266134 0)
(0.00552643 -0.00341694 0)
(0.00804711 -0.00391601 4.06511e-21)
(0.0106611 -0.00402753 0)
(0.013329 -0.00406582 3.06939e-21)
(0.0164322 -0.00428698 -2.79448e-21)
(0.0184584 -0.00406885 -0)
(0.0208539 -0.00385443 -2.2163e-21)
(0.0241737 -0.00390953 -2.15106e-21)
(0.027768 -0.00373964 -0)
(0.0280434 -0.00303443 0)
(0.0293548 -0.00268317 0)
(0.0294988 -0.00233568 0)
(0.0313196 -0.00218005 -0)
(0.0324178 -0.00190751 1.60808e-21)
(0.0343033 -0.00166803 0)
(0.0357263 -0.00153574 -1.58153e-21)
(0.0371192 -0.00144549 -0)
(0.0384996 -0.00133041 -0)
(0.0397399 -0.00123429 1.55053e-21)
(0.0409368 -0.00114978 0)
(0.0421016 -0.00107807 -1.53514e-21)
(0.0432022 -0.00101606 -0)
(0.0442876 -0.000962321 0)
(0.0453261 -0.000915293 -0)
(0.0463496 -0.000873997 1.51012e-21)
(0.0473402 -0.000837156 0)
(0.0483167 -0.000804079 -0)
(0.0492679 -0.000773958 1.49331e-21)
(0.0502066 -0.000746221 0)
(0.0511245 -0.000720267 1.48209e-21)
(0.0520302 -0.000695722 0)
(0.0529178 -0.000672189 0)
(0.0537928 -0.000649414 0)
(0.054651 -0.000627142 -1.45791e-21)
(0.0554958 -0.000605055 -0)
(0.0563238 -0.000583105 0)
(0.0571373 -0.000561001 -1.4373e-21)
(0.057933 -0.00053874 -1.42981e-21)
(0.0587127 -0.00051609 -0)
(0.0594734 -0.000493076 -1.41376e-21)
(0.0602162 -0.000469427 0)
(0.060938 -0.000445168 -2.79224e-21)
(0.0616394 -0.0004202 -0)
(0.0623183 -0.000394338 -2.75334e-21)
(0.0629737 -0.000367372 -0)
(0.0636038 -0.000339298 2.71045e-21)
(0.0642078 -0.000309741 0)
(0.0647833 -0.000278585 0)
(0.0653291 -0.00024562 0)
(0.0658432 -0.000210732 -2.61156e-21)
(0.0663239 -0.000173856 -0)
(0.0667695 -0.000135469 2.55546e-21)
(0.0671792 -9.67515e-05 0)
(0.0675529 -6.02142e-05 -2.4954e-21)
(0.0678938 -2.99921e-05 -2.46317e-21)
(0.0682018 -4.02263e-06 -2.42936e-21)
(0.0684813 2.16185e-05 0)
(0.0687293 4.70719e-05 0)
(0.0689465 7.26925e-05 0)
(0.0691315 9.85474e-05 0)
(0.0692837 0.00012467 0)
(0.0694021 0.000151077 0)
(0.069486 0.000177614 0)
(0.0695348 0.000204494 0)
(0.069547 0.000231528 2.0517e-21)
(0.0695226 0.000258842 2.00062e-21)
(0.06946 0.000286335 0)
(0.069359 0.000314039 0)
(0.0692183 0.000341907 0)
(0.0690377 0.000369913 1.77559e-21)
(0.0688163 0.0003981 0)
(0.0685529 0.000426418 0)
(0.0682475 0.000454741 0)
(0.0678994 0.00048318 0)
(0.0675079 0.000511696 -1.4429e-21)
(0.0670723 0.000540157 0)
(0.0665927 0.000568575 0)
(0.0660682 0.000596909 1.21219e-21)
(0.0654991 0.000625103 -1.12957e-21)
(0.0648846 0.000653139 0)
(0.064225 0.000680899 -9.55189e-22)
(0.0635203 0.00070839 0)
(0.0627705 0.000735605 7.67899e-22)
(0.0619756 0.000762376 0)
(0.0611362 0.000788687 0)
(0.0602527 0.000814563 0)
(0.0593251 0.000839882 0)
(0.0583547 0.0008646 0)
(0.0573429 0.000888684 -2.3818e-22)
(0.0562918 0.000912021 6.26715e-24)
(0.0551987 0.000934258 0)
(0.0540734 0.000956432 0)
(0.0528901 0.000976945 0)
(0.0516988 0.000997351 -1.07689e-21)
(0.0504381 0.00101597 0)
(0.0491802 0.00103447 0)
(0.0478489 0.0010515 0)
(0.0465185 0.00106757 -2.31564e-21)
(0.0451408 0.00108324 2.65518e-21)
(0.0437455 0.00109765 0)
(0.0423223 0.00111119 0)
(0.0408752 0.00112371 3.75925e-21)
(0.039405 0.00113532 4.15802e-21)
(0.037915 0.00114607 0)
(0.0364058 0.00115601 0)
(0.0348795 0.0011651 -5.46197e-21)
(0.0333377 0.00117341 5.93695e-21)
(0.0317822 0.00118094 0)
(0.0302152 0.00118779 0)
(0.0286381 0.00119403 7.50667e-21)
(0.0270528 0.00119976 0)
(0.0254607 0.00120503 0)
(0.0238634 0.00120995 9.34255e-21)
(0.0222624 0.00121454 0)
(0.020659 0.00121896 1.0756e-20)
(0.0190544 0.00122325 0)
(0.0174498 0.00122756 0)
(0.0158463 0.00123197 0)
(0.0142449 0.00123666 -1.42099e-20)
(0.0126463 0.00124168 0)
(0.0110514 0.00124723 0)
(0.0094607 0.00125341 0)
(0.00787494 0.00126066 0)
(0.00629435 0.00127005 0)
(0.00471881 0.00128204 0)
(0.00314848 0.00129572 -2.38593e-20)
(0.00158371 0.00130923 -2.59065e-20)
(2.49464e-05 0.0013102 0)
(-0.00152713 0.00128507 0)
(-0.00307046 0.00124621 0)
(-0.0046033 0.00120678 2.42696e-20)
(-0.00612298 0.00116744 0)
(-0.00762451 0.00112652 -4.45821e-20)
(-0.00910066 0.00108054 4.29289e-20)
(-0.0105318 0.00102579 4.14734e-20)
(-0.011911 0.000945576 -4.02244e-20)
(-0.0130921 0.000839821 3.92184e-20)
(-0.0143443 0.000618456 -3.85721e-20)
(-0.0138853 0.000118322 0)
(-0.0162794 0.000325552 -2.38616e-18)
(-0.0199839 -0.000139493 -2.22238e-18)
(-0.0236745 -0.000622991 0)
(-0.0271635 -0.00104458 -3.9316e-18)
(-0.030718 -0.00145113 -7.43399e-18)
(-0.0344397 -0.00185932 -3.52177e-18)
(-0.038338 -0.00227359 3.34052e-18)
(-0.0424407 -0.00270172 -4.21297e-35)
(-0.0467886 -0.00315044 3.00927e-36)
(-0.0514074 -0.00362477 2.86525e-18)
(-0.056325 -0.00412853 2.72302e-18)
(-0.0615762 -0.00466634 3.00927e-36)
(-0.0671966 -0.00524176 0)
(-0.073226 -0.00585974 0)
(-0.0797334 -0.00652553 -4.50449e-35)
(-0.0867101 -0.00724293 3.29609e-35)
(-0.0943907 -0.00802371 9.0278e-35)
(-0.102491 -0.00886396 -3.57472e-18)
(-0.111838 -0.00979082 -3.28642e-18)
(-0.121213 -0.0107979 6.01853e-36)
(-0.133078 -0.011876 5.25903e-18)
(-0.143826 -0.0131825 8.89392e-18)
(-0.1611 -0.0143794 0)
(-0.169336 -0.0161918 -4.37775e-18)
(-0.205579 -0.0172201 1.20371e-35)
)
;
    }
    frontAndBack
    {
        type            empty;
    }
}


// ************************************************************************* //
