/*--------------------------------*- C++ -*----------------------------------*\
  =========                 |
  \\      /  F ield         | OpenFOAM: The Open Source CFD Toolbox
   \\    /   O peration     | Website:  https://openfoam.org
    \\  /    A nd           | Version:  8
     \\/     M anipulation  |
\*---------------------------------------------------------------------------*/
FoamFile
{
    version     2.0;
    format      ascii;
    class       volScalarField;
    location    "1200";
    object      nut;
}
// * * * * * * * * * * * * * * * * * * * * * * * * * * * * * * * * * * * * * //

dimensions      [0 2 -1 0 0 0 0];

internalField   nonuniform List<scalar> 
12225
(
0.0122671
0.00158819
0.000666129
0.000410105
0.000294025
0.00022806
0.000183261
0.000170806
0.000132697
0.000106844
9.46737e-05
8.80088e-05
7.89861e-05
7.22334e-05
6.77327e-05
6.45084e-05
6.12114e-05
6.46345e-05
0.0323823
0.00744532
0.00330638
0.00204329
0.00146801
0.0011445
0.000936338
0.000799976
0.000679511
0.000577235
0.000506287
0.000452433
0.000410541
0.000378808
0.000350184
0.00032777
0.000311175
0.000292824
0.0490123
0.01515
0.00728196
0.00457854
0.00330639
0.00258054
0.00211233
0.00178913
0.00154181
0.00134762
0.00119772
0.0010787
0.000982059
0.000902484
0.000835983
0.000780915
0.000735554
0.000687182
0.063054
0.0237783
0.0122894
0.00788814
0.00573397
0.00448498
0.00367413
0.00310733
0.00268471
0.00235805
0.00210111
0.00189458
0.00172531
0.00158451
0.00146614
0.00136605
0.00128147
0.00119791
0.074932
0.0328517
0.0181452
0.0119262
0.00874548
0.00686412
0.0056308
0.00476254
0.00411748
0.0036203
0.00322732
0.00290992
0.002649
0.00243144
0.002248
0.00209189
0.00195827
0.00183628
0.0849536
0.0420208
0.0246655
0.0166359
0.0123325
0.00972587
0.00799539
0.00676785
0.00585345
0.0051477
0.00458844
0.00413587
0.00376335
0.0034524
0.00318984
0.00296597
0.00277361
0.00260473
0.0933822
0.0510219
0.0316642
0.0219415
0.016474
0.0130717
0.0107778
0.00913552
0.00790571
0.0069534
0.0061969
0.00558367
0.00507838
0.00465633
0.00429977
0.00399562
0.00373416
0.0035082
0.0993794
0.0583363
0.0378386
0.0268568
0.0204171
0.0163053
0.0134892
0.011453
0.00991891
0.00872629
0.00777635
0.00700498
0.00636867
0.00583686
0.00538741
0.00500399
0.00467453
0.00439128
0.104023
0.0645454
0.0433804
0.0314239
0.0241571
0.0194092
0.0161097
0.0137018
0.0118766
0.0104521
0.00931443
0.00838904
0.00762486
0.00698575
0.00644545
0.00598451
0.0055886
0.00524879
0.108368
0.0708939
0.0493756
0.0365496
0.0284517
0.0230231
0.0191863
0.0163547
0.0141926
0.0124968
0.011138
0.0100304
0.00911435
0.0083476
0.00769911
0.0071458
0.0066707
0.00626299
0.112368
0.0772557
0.0557282
0.0421918
0.0332976
0.0271652
0.0227468
0.0194432
0.0168984
0.0148903
0.0132749
0.0119544
0.0108605
0.0099438
0.00916797
0.00850587
0.00793737
0.00744916
0.115994
0.0834975
0.0623053
0.0482611
0.0386474
0.0318167
0.026789
0.0229739
0.0200046
0.0176452
0.0157378
0.0141736
0.0128749
0.011785
0.0108618
0.0100736
0.00939672
0.00881465
0.119234
0.0894856
0.0689377
0.0546109
0.0443919
0.0369007
0.0312597
0.0269088
0.0234836
0.02074
0.0185096
0.0166735
0.0151449
0.01386
0.0127704
0.0118396
0.0110397
0.0103508
0.122086
0.095084
0.075415
0.0610223
0.0503361
0.0422534
0.0360231
0.0311353
0.0272402
0.024093
0.021519
0.0193909
0.017614
0.0161174
0.0148466
0.01376
0.0128257
0.0120196
0.124546
0.100135
0.0814619
0.0671725
0.056158
0.047577
0.0408126
0.0354174
0.031066
0.0275196
0.0246012
0.0221777
0.0201481
0.0184349
0.0169782
0.0157314
0.0146583
0.0137312
0.126578
0.104396
0.0866605
0.0725515
0.0613228
0.0523526
0.0451453
0.0393148
0.0345631
0.0306611
0.0274325
0.0247409
0.0224806
0.020569
0.0189413
0.0175468
0.0163454
0.0153061
0.128011
0.107322
0.0902141
0.0762353
0.0648743
0.0556509
0.0481493
0.0420254
0.0370012
0.0328553
0.0294126
0.0265352
0.0241143
0.0220643
0.0203172
0.0188191
0.0175275
0.0164083
0.128006
0.107313
0.0902048
0.0762269
0.0648674
0.0556454
0.048145
0.0420222
0.0369988
0.0328537
0.0294117
0.0265349
0.0241147
0.0220652
0.0203185
0.0188206
0.0175287
0.0164083
0.126509
0.104255
0.0864922
0.0723807
0.0611613
0.052205
0.0450128
0.0391967
0.0344584
0.0305686
0.0273506
0.0246684
0.0224163
0.0205118
0.0188903
0.0175006
0.0163024
0.0152631
0.124267
0.0995604
0.0807712
0.0664676
0.0554886
0.0469631
0.0402594
0.0349228
0.0306248
0.0271258
0.0242488
0.0218611
0.0198626
0.0181762
0.0167426
0.0155152
0.0144575
0.0135405
0.12136
0.0936399
0.0737261
0.0593348
0.0487592
0.0408249
0.0347467
0.0300003
0.0262308
0.0231928
0.0207127
0.018665
0.0169572
0.0155198
0.0142999
0.0132567
0.0123583
0.0115798
0.117686
0.0865903
0.0656967
0.0514791
0.0415374
0.0343608
0.0290184
0.0249322
0.0217348
0.0191848
0.0171184
0.0154211
0.0140106
0.0128263
0.0118229
0.0109657
0.010228
0.00958894
0.11305
0.0784122
0.056921
0.0432687
0.0342296
0.0279652
0.0234365
0.0200435
0.0174263
0.0153597
0.0136966
0.0123369
0.0112106
0.010267
0.00946865
0.00878719
0.00820101
0.00769346
0.107169
0.0691009
0.0476372
0.035029
0.0271566
0.021922
0.0182437
0.0155401
0.0134817
0.0118705
0.0105815
0.00953197
0.00866486
0.00793966
0.00732667
0.0068038
0.00635413
0.00596494
0.0996761
0.0587036
0.0381279
0.0270699
0.0205782
0.0164329
0.0135949
0.0115438
0.00999922
0.00879908
0.0078434
0.00706755
0.00642788
0.00589361
0.00544221
0.00505742
0.00472642
0.00444011
0.0901097
0.0473665
0.0287363
0.0196847
0.0146976
0.0116312
0.00957853
0.00811528
0.00702331
0.00617994
0.00551056
0.00496794
0.00452107
0.00414828
0.00383299
0.00356477
0.00333363
0.00313391
0.0779076
0.0353826
0.0198606
0.0131383
0.00966107
0.00759298
0.00623352
0.00527429
0.00456399
0.00401883
0.00358696
0.00323614
0.00294701
0.00270634
0.00250138
0.00232858
0.00217848
0.00204933
0.06238
0.0232554
0.0119461
0.00765493
0.00556337
0.00435256
0.00356724
0.00301639
0.00261307
0.00230794
0.00206655
0.00186724
0.00170186
0.00156514
0.00144523
0.00134715
0.00125992
0.001186
0.0426105
0.0117794
0.0054693
0.00341385
0.00246071
0.00192005
0.00157275
0.00132885
0.00115942
0.00103848
0.000944006
0.000857707
0.000784255
0.000722483
0.000664829
0.000615227
0.00057412
0.000545775
0.0168348
0.00255985
0.00110002
0.000683428
0.000493724
0.000386804
0.000318219
0.000266309
0.000272605
0.000321987
0.000354563
0.000337112
0.000302656
0.00026295
0.000239458
0.000204794
0.000205136
0.000211908
3.98385e-09
5.91379e-07
2.0014e-06
6.29098e-06
1.08081e-05
1.35415e-05
1.32704e-05
1.18095e-05
9.08001e-06
5.95991e-06
3.531e-06
2.0275e-06
1.40701e-06
1.49755e-06
2.05509e-06
2.55181e-06
2.43827e-06
2.05137e-06
2.51265e-06
8.33424e-06
7.96345e-06
5.51479e-06
6.70162e-06
2.62744e-05
5.66741e-05
7.43318e-05
9.09114e-05
0.000104767
0.000117
0.000127168
0.000136078
0.00014373
0.000150425
0.000156256
0.000161341
0.000165829
0.000169806
0.000173358
0.000176541
0.000179401
0.000181967
0.000184261
0.000186302
0.000188106
0.000189687
0.000191058
0.000192231
0.000193211
0.000194
0.000194473
0.000194971
0.00019508
0.000195141
0.000195017
0.000194718
0.000194272
0.000193674
0.000192927
0.000192033
0.000190995
0.000189814
0.000188492
0.000187033
0.000185437
0.000183709
0.000181849
0.00017986
0.000177742
0.0001755
0.000173135
0.00017065
0.000168046
0.000165326
0.000162489
0.000159539
0.000156474
0.000153296
0.000150004
0.000146597
0.000143074
0.000139433
0.000135672
0.000131788
0.000127773
0.000123622
0.000119323
0.000114864
0.000110229
0.000105397
0.000100344
9.50439e-05
8.9469e-05
8.36126e-05
7.75418e-05
7.15312e-05
6.62492e-05
6.24902e-05
6.01486e-05
5.83961e-05
5.67902e-05
5.5214e-05
5.36456e-05
5.20835e-05
5.05292e-05
4.89845e-05
4.74516e-05
4.59331e-05
4.44352e-05
4.2986e-05
4.17491e-05
4.05451e-05
3.93554e-05
3.81828e-05
3.70283e-05
3.58925e-05
3.47762e-05
3.36803e-05
3.26055e-05
3.15524e-05
3.05214e-05
2.95129e-05
2.85274e-05
2.75654e-05
2.66275e-05
2.57136e-05
2.48236e-05
2.39587e-05
2.31466e-05
2.24124e-05
2.16968e-05
2.09962e-05
2.03188e-05
1.96695e-05
1.90346e-05
1.84136e-05
1.78097e-05
1.72238e-05
1.66561e-05
1.61064e-05
1.55745e-05
1.50597e-05
1.45618e-05
1.40802e-05
1.36147e-05
1.31646e-05
1.27297e-05
1.23096e-05
1.19039e-05
1.15121e-05
1.11339e-05
1.0769e-05
1.0417e-05
1.00776e-05
9.75038e-06
9.4351e-06
9.13145e-06
8.83916e-06
8.55799e-06
8.2877e-06
8.02808e-06
7.77895e-06
7.54013e-06
7.31143e-06
7.09269e-06
6.88368e-06
6.68417e-06
6.49383e-06
6.31223e-06
6.13883e-06
5.97286e-06
5.81355e-06
5.65928e-06
5.50963e-06
5.35964e-06
5.21389e-06
5.04784e-06
4.89386e-06
4.64749e-06
4.48928e-06
3.59421e-06
1.67989e-07
6.13744e-06
6.38681e-05
0.000139673
0.000183251
0.000207038
0.000216434
0.000214954
0.000206627
0.00018993
0.000169128
0.000148938
0.000138398
0.000143497
0.000157398
0.000166259
0.000168557
0.000169663
0.000175
0.000184691
0.00020003
0.000217358
0.00023424
0.000250776
0.000262091
0.000272006
0.000280821
0.000293618
0.000312744
0.000326697
0.000339451
0.000350381
0.000360315
0.00036942
0.000377324
0.00038454
0.000391257
0.0003977
0.000404001
0.000410226
0.000416369
0.000422388
0.000428231
0.000433856
0.000439237
0.000444354
0.000449195
0.000453746
0.000458009
0.000461983
0.000465708
0.00046915
0.000472348
0.00047529
0.000477981
0.000480423
0.000482617
0.000484562
0.00048626
0.000487711
0.000488915
0.000489874
0.00049059
0.000491067
0.000491315
0.00049134
0.000491136
0.000490699
0.000490046
0.000489181
0.000488109
0.000486837
0.000485371
0.00048372
0.000481888
0.000479884
0.000477716
0.00047539
0.000472913
0.000470295
0.000467542
0.000464662
0.000461665
0.000458558
0.000455349
0.000452047
0.000448659
0.000445194
0.000441659
0.000438062
0.00043441
0.000430709
0.000426956
0.000423146
0.00041926
0.00041527
0.000411161
0.000406961
0.00040272
0.000398463
0.000394198
0.000389929
0.000385659
0.000381391
0.00037713
0.000372878
0.000368638
0.000364413
0.000360203
0.000356004
0.000351828
0.00034768
0.000343562
0.000339474
0.000335419
0.000331399
0.000327415
0.000323468
0.000319561
0.000315693
0.000311866
0.000308081
0.000304339
0.000300641
0.000296988
0.00029338
0.000289816
0.000286295
0.000282816
0.000279382
0.000275991
0.000272652
0.000269365
0.000266115
0.000262901
0.000259728
0.000256599
0.000253515
0.000250476
0.000247482
0.000244531
0.000241625
0.000238761
0.00023594
0.00023316
0.000230422
0.000227724
0.000225067
0.000222449
0.00021987
0.000217331
0.000214831
0.000212369
0.000209946
0.000207561
0.000205215
0.000202909
0.000200642
0.000198417
0.000196233
0.000194092
0.000191996
0.000189946
0.000187945
0.000185993
0.000184094
0.000182247
0.000180453
0.000178711
0.000177019
0.000175374
0.000173774
0.000172196
0.000170682
0.000169071
0.000167749
0.000165616
0.0001649
0.000162093
0.00016072
7.68482e-07
4.45252e-05
0.000164279
0.000246545
0.00029991
0.00033026
0.000341322
0.000338467
0.000325641
0.000306348
0.00028652
0.000273699
0.000271361
0.000277979
0.000288309
0.000299125
0.000311876
0.000328841
0.000350476
0.000375702
0.000403154
0.0004315
0.000469557
0.000515971
0.000561638
0.000605807
0.000648918
0.000692596
0.000731978
0.000763302
0.000788337
0.000808181
0.000823912
0.000836391
0.000846403
0.000854724
0.000862056
0.000869043
0.000876224
0.000883954
0.000892342
0.000901265
0.000910484
0.000919761
0.000928919
0.000937839
0.000946444
0.000954686
0.000962529
0.000969945
0.000976911
0.000983398
0.000989403
0.000994919
0.000999944
0.00100448
0.00100852
0.00101207
0.00101512
0.00101769
0.00101975
0.00102133
0.00102241
0.00102296
0.00102311
0.00102283
0.00102204
0.0010208
0.00101911
0.00101699
0.00101445
0.00101151
0.00100817
0.00100446
0.00100038
0.000995945
0.000991178
0.000986091
0.000980697
0.000975012
0.000969052
0.000962831
0.000956365
0.000949669
0.000942758
0.000935647
0.00092835
0.000920882
0.000913257
0.000905487
0.000897585
0.000889561
0.000881426
0.000873187
0.000864853
0.000856433
0.000847939
0.000839388
0.000830796
0.000822176
0.000813539
0.000804894
0.000796248
0.00078761
0.000778987
0.000770385
0.000761811
0.000753272
0.000744772
0.000736317
0.000727913
0.000719565
0.000711278
0.000703055
0.000694901
0.000686819
0.000678812
0.000670882
0.000663033
0.000655267
0.000647586
0.000639991
0.000632484
0.000625068
0.000617744
0.000610512
0.000603372
0.000596325
0.000589371
0.000582512
0.000575747
0.000569078
0.000562502
0.000556013
0.000549611
0.000543297
0.000537075
0.000530943
0.000524904
0.000518955
0.000513096
0.000507326
0.000501645
0.00049605
0.000490541
0.000485117
0.000479776
0.000474518
0.000469341
0.000464245
0.000459227
0.000454288
0.000449425
0.000444638
0.000439926
0.000435287
0.000430721
0.000426226
0.000421801
0.000417445
0.000413157
0.000408934
0.000404775
0.000400678
0.00039664
0.000392659
0.000388729
0.000384845
0.000381002
0.000377189
0.000373396
0.000369607
0.000365798
0.000361951
0.000357992
0.000353951
0.000349469
0.000345075
0.000338585
0.000327127
5.0661e-07
8.12825e-05
0.000212986
0.00030924
0.000373049
0.000410487
0.000426081
0.000426475
0.000416449
0.000403005
0.000394779
0.000393893
0.00040307
0.000420258
0.000443006
0.00047076
0.000504117
0.000543441
0.000587917
0.000649951
0.000723782
0.000803537
0.000887856
0.000958577
0.00102105
0.00107721
0.00112765
0.00117259
0.00121188
0.00124579
0.00127505
0.0013004
0.00132253
0.00134208
0.00135962
0.00137565
0.00139058
0.00140474
0.00141841
0.00143176
0.00144492
0.00145798
0.00147094
0.00148379
0.00149649
0.00150895
0.00152108
0.00153279
0.00154398
0.00155458
0.00156453
0.00157381
0.00158238
0.00159024
0.00159738
0.00160379
0.00160946
0.0016144
0.0016186
0.00162206
0.00162479
0.00162677
0.00162792
0.00162836
0.00162823
0.00162732
0.0016257
0.00162338
0.00162038
0.00161672
0.00161242
0.0016075
0.00160198
0.00159588
0.00158923
0.00158203
0.00157433
0.00156613
0.00155746
0.00154836
0.00153883
0.0015289
0.00151859
0.00150794
0.00149695
0.00148566
0.00147409
0.00146225
0.00145017
0.00143788
0.00142538
0.00141269
0.00139984
0.00138685
0.00137371
0.00136046
0.00134711
0.00133368
0.00132019
0.00130666
0.0012931
0.00127952
0.00126595
0.00125239
0.00123885
0.00122535
0.00121189
0.00119849
0.00118515
0.00117188
0.00115869
0.00114559
0.00113259
0.00111968
0.00110688
0.00109419
0.00108162
0.00106917
0.00105685
0.00104465
0.00103259
0.00102066
0.00100886
0.000997209
0.000985696
0.000974326
0.0009631
0.000952018
0.000941082
0.000930291
0.000919648
0.00090915
0.000898795
0.00088858
0.000878503
0.000868565
0.000858768
0.000849112
0.000839597
0.000830222
0.000820986
0.000811887
0.000802925
0.000794097
0.000785401
0.000776837
0.000768402
0.000760095
0.000751913
0.000743855
0.00073592
0.000728104
0.000720407
0.000712827
0.000705362
0.00069801
0.000690769
0.000683638
0.000676613
0.000669694
0.000662877
0.000656159
0.000649539
0.000643013
0.000636576
0.000630223
0.000623948
0.000617745
0.000611603
0.000605509
0.000599448
0.000593398
0.00058733
0.000581207
0.000574963
0.000568544
0.000561767
0.000554575
0.000546332
0.000530142
1.49318e-06
0.000102056
0.000235132
0.000355091
0.000434032
0.000481559
0.000505202
0.000513657
0.000515204
0.000516145
0.000522967
0.000539077
0.000565091
0.000600042
0.000643135
0.000694382
0.000754403
0.000837766
0.000933383
0.00102967
0.00111871
0.00120314
0.00128252
0.00135526
0.00142205
0.0014835
0.00153999
0.00159187
0.00163948
0.00168327
0.00172372
0.0017613
0.00179644
0.00182953
0.00186087
0.00189072
0.00191926
0.00194665
0.00197298
0.00199831
0.00202268
0.00204609
0.00206853
0.00209
0.00211047
0.0021299
0.00214827
0.00216555
0.00218171
0.00219673
0.0022106
0.00222333
0.00223492
0.0022454
0.00225477
0.00226305
0.00227027
0.00227643
0.00228156
0.00228567
0.00228876
0.00229081
0.00229173
0.00229182
0.00229094
0.00228906
0.00228623
0.00228246
0.00227777
0.00227219
0.00226574
0.00225846
0.00225036
0.00224148
0.00223185
0.0022215
0.00221045
0.00219875
0.00218642
0.00217349
0.00215999
0.00214596
0.00213143
0.00211642
0.00210096
0.0020851
0.00206885
0.00205226
0.00203534
0.00201812
0.00200064
0.00198291
0.00196497
0.00194683
0.00192852
0.00191007
0.00189149
0.00187281
0.00185405
0.00183524
0.0018164
0.00179754
0.00177868
0.00175984
0.00174104
0.00172229
0.0017036
0.00168499
0.00166647
0.00164805
0.00162974
0.00161155
0.00159349
0.00157557
0.00155779
0.00154018
0.00152272
0.00150543
0.00148831
0.00147136
0.0014546
0.00143802
0.00142163
0.00140543
0.00138943
0.00137362
0.001358
0.00134259
0.00132737
0.00131235
0.00129753
0.00128291
0.00126849
0.00125426
0.00124022
0.00122638
0.00121272
0.00119926
0.00118599
0.00117292
0.00116003
0.00114732
0.00113481
0.00112247
0.00111032
0.00109834
0.00108654
0.00107492
0.00106346
0.00105218
0.00104106
0.0010301
0.0010193
0.00100866
0.000998181
0.000987852
0.000977672
0.000967641
0.000957754
0.000948009
0.000938402
0.00092893
0.00091959
0.000910376
0.000901283
0.000892306
0.000883437
0.000874666
0.000865981
0.00085737
0.000848811
0.00084028
0.000831743
0.000823157
0.000814454
0.000805563
0.000796319
0.000786575
0.000776606
0.000756786
2.27161e-06
0.000118205
0.000256382
0.000390183
0.000487288
0.000549215
0.000587074
0.000610517
0.000628239
0.000647514
0.000673604
0.000709166
0.000754936
0.000811188
0.000878303
0.000968757
0.00107386
0.00117559
0.00127483
0.00137037
0.0014611
0.00154713
0.0016284
0.00170489
0.00177687
0.00184471
0.00190875
0.00196932
0.00202675
0.00208137
0.00213351
0.00218345
0.00223144
0.00227769
0.00232236
0.00236558
0.00240744
0.00244798
0.00248724
0.00252523
0.00256195
0.00259736
0.00263146
0.0026642
0.00269554
0.00272544
0.00275387
0.00278078
0.00280614
0.00282991
0.00285207
0.00287259
0.00289146
0.00290866
0.0029242
0.00293807
0.00295027
0.00296081
0.0029697
0.00297697
0.00298262
0.0029867
0.00298913
0.00299003
0.00298957
0.0029876
0.00298425
0.00297955
0.00297355
0.0029663
0.00295785
0.00294826
0.00293757
0.00292585
0.00291313
0.00289946
0.0028849
0.00286948
0.00285326
0.00283627
0.00281856
0.00280016
0.00278113
0.0027615
0.00274131
0.0027206
0.00269941
0.00267778
0.00265575
0.00263335
0.00261062
0.00258759
0.00256429
0.00254076
0.00251703
0.00249312
0.00246906
0.00244489
0.00242063
0.00239631
0.00237195
0.00234757
0.00232321
0.00229887
0.00227459
0.00225037
0.00222624
0.00220221
0.00217829
0.00215451
0.00213087
0.00210739
0.00208408
0.00206094
0.002038
0.00201525
0.00199271
0.00197038
0.00194827
0.00192639
0.00190474
0.00188332
0.00186214
0.00184121
0.00182052
0.00180008
0.00177989
0.00175995
0.00174026
0.00172083
0.00170165
0.00168272
0.00166404
0.00164561
0.00162742
0.00160948
0.00159178
0.00157433
0.00155712
0.00154015
0.00152341
0.00150692
0.00149066
0.00147462
0.00145882
0.00144324
0.00142789
0.00141275
0.00139783
0.00138312
0.00136861
0.00135432
0.00134022
0.00132633
0.00131263
0.00129912
0.00128581
0.00127268
0.00125973
0.00124695
0.00123436
0.00122193
0.00120967
0.00119756
0.00118562
0.00117382
0.00116215
0.00115062
0.0011392
0.00112788
0.00111664
0.00110545
0.00109428
0.00108307
0.00107177
0.00106029
0.00104847
0.00103625
0.00102408
0.00100159
2.80596e-06
0.000126828
0.0002693
0.000407767
0.000526551
0.000608086
0.000664278
0.00070626
0.000743278
0.0007826
0.000829288
0.000886296
0.000955232
0.00104751
0.00115447
0.00126108
0.00136719
0.00147058
0.00157067
0.00166705
0.00175947
0.00184793
0.00193252
0.0020134
0.00209081
0.00216503
0.00223632
0.00230497
0.00237122
0.0024353
0.00249744
0.0025578
0.00261655
0.00267378
0.0027296
0.00278405
0.00283717
0.00288897
0.00293946
0.0029886
0.00303637
0.00308273
0.00312765
0.00317106
0.00321292
0.00325317
0.00329176
0.00332865
0.00336377
0.00339709
0.00342856
0.00345814
0.0034858
0.0035115
0.00353522
0.00355695
0.00357665
0.00359434
0.00360999
0.00362362
0.00363521
0.0036448
0.00365237
0.00365799
0.00366164
0.00366326
0.00366318
0.00366119
0.00365742
0.0036519
0.00364469
0.00363585
0.00362543
0.0036135
0.00360012
0.00358535
0.00356926
0.00355192
0.00353339
0.00351374
0.00349304
0.00347135
0.00344874
0.00342528
0.00340103
0.00337606
0.00335041
0.00332416
0.00329735
0.00327005
0.00324229
0.00321414
0.00318563
0.00315682
0.00312774
0.00309843
0.00306893
0.00303928
0.00300951
0.00297966
0.00294976
0.00291984
0.00288992
0.00286004
0.00283022
0.00280048
0.00277083
0.00274131
0.00271194
0.00268272
0.00265367
0.00262481
0.00259616
0.00256773
0.00253952
0.00251155
0.00248383
0.00245637
0.00242918
0.00240225
0.00237561
0.00234925
0.00232318
0.0022974
0.00227192
0.00224674
0.00222186
0.00219729
0.00217301
0.00214905
0.00212538
0.00210202
0.00207896
0.0020562
0.00203374
0.00201157
0.00198969
0.00196811
0.00194682
0.00192582
0.00190511
0.00188468
0.00186453
0.00184465
0.00182506
0.00180573
0.00178666
0.00176786
0.00174932
0.00173104
0.001713
0.00169521
0.00167767
0.00166036
0.00164329
0.00162645
0.00160984
0.00159345
0.00157729
0.00156133
0.00154559
0.00153005
0.00151471
0.00149957
0.00148461
0.00146984
0.00145523
0.00144079
0.00142649
0.00141232
0.00139825
0.00138427
0.00137032
0.00135637
0.00134235
0.00132817
0.0013137
0.00129894
0.00128393
0.00125968
2.94324e-06
0.00012875
0.000270701
0.000407362
0.000538189
0.000641855
0.000719097
0.000780519
0.000836281
0.000894082
0.000961573
0.00105345
0.00116302
0.00128477
0.00140036
0.00151164
0.00161948
0.00172407
0.00182535
0.00192324
0.00201776
0.00210898
0.00219705
0.00228217
0.00236454
0.00244439
0.00252194
0.00259741
0.00267098
0.00274283
0.0028131
0.00288191
0.00294935
0.00301548
0.00308035
0.00314397
0.00320635
0.00326747
0.00332729
0.0033858
0.00344292
0.00349861
0.00355282
0.00360547
0.00365651
0.00370586
0.00375346
0.00379926
0.00384318
0.00388517
0.00392518
0.00396315
0.00399903
0.00403279
0.00406438
0.00409378
0.00412096
0.00414589
0.00416856
0.00418896
0.00420709
0.00422294
0.00423652
0.00424785
0.00425694
0.00426381
0.00426853
0.00427099
0.00427142
0.00426978
0.00426611
0.00426046
0.0042529
0.00424347
0.00423224
0.00421926
0.00420461
0.00418836
0.00417056
0.00415129
0.00413063
0.00410864
0.00408539
0.00406096
0.00403542
0.00400884
0.0039813
0.00395286
0.00392359
0.00389355
0.00386282
0.00383146
0.00379953
0.00376709
0.00373419
0.00370089
0.00366725
0.00363331
0.00359913
0.00356476
0.00353023
0.00349559
0.00346089
0.00342615
0.00339142
0.00335672
0.00332209
0.00328755
0.00325313
0.00321886
0.00318476
0.00315084
0.00311714
0.00308366
0.00305042
0.00301744
0.00298473
0.0029523
0.00292017
0.00288833
0.00285681
0.00282561
0.00279474
0.00276419
0.00273398
0.00270411
0.00267458
0.0026454
0.00261656
0.00258807
0.00255993
0.00253214
0.00250469
0.00247759
0.00245083
0.00242441
0.00239833
0.00237259
0.00234718
0.00232211
0.00229737
0.00227295
0.00224886
0.00222509
0.00220164
0.0021785
0.00215567
0.00213314
0.00211091
0.00208898
0.00206735
0.00204599
0.00202493
0.00200414
0.00198362
0.00196337
0.00194339
0.00192367
0.00190421
0.001885
0.00186604
0.00184731
0.00182882
0.00181057
0.00179253
0.00177471
0.00175709
0.00173967
0.00172242
0.00170533
0.00168837
0.00167152
0.00165474
0.00163798
0.00162117
0.00160424
0.00158704
0.00156964
0.0015517
0.00152556
2.76037e-06
0.000125289
0.000264085
0.00039584
0.000520647
0.000633213
0.000727198
0.000808353
0.000891283
0.000986545
0.00109571
0.00122035
0.00135674
0.00148428
0.00160459
0.00171962
0.00183035
0.00193714
0.0020403
0.0021402
0.00223704
0.00233103
0.00242236
0.00251124
0.00259787
0.00268246
0.0027652
0.00284626
0.00292579
0.00300393
0.00308077
0.00315641
0.00323089
0.00330425
0.0033765
0.00344764
0.00351764
0.00358647
0.00365408
0.00372041
0.0037854
0.00384897
0.00391106
0.00397158
0.00403047
0.00408763
0.00414299
0.00419648
0.00424803
0.00429757
0.00434502
0.00439034
0.00443346
0.00447433
0.00451291
0.00454916
0.00458304
0.00461452
0.00464359
0.00467021
0.00469439
0.00471612
0.0047354
0.00475223
0.00476663
0.00477862
0.00478823
0.00479546
0.00480039
0.00480296
0.00480335
0.00480153
0.00479757
0.0047915
0.0047834
0.00477332
0.00476132
0.00474746
0.00473182
0.00471447
0.00469546
0.00467487
0.00465278
0.00462925
0.00460437
0.00457819
0.00455081
0.00452228
0.00449268
0.00446209
0.00443056
0.00439818
0.004365
0.00433109
0.00429653
0.00426136
0.00422565
0.00418946
0.00415285
0.00411588
0.00407859
0.00404104
0.00400329
0.00396537
0.00392732
0.0038892
0.00385104
0.00381288
0.00377475
0.00373668
0.00369871
0.00366087
0.00362318
0.00358566
0.00354835
0.00351125
0.0034744
0.0034378
0.00340147
0.00336544
0.00332971
0.00329429
0.00325919
0.00322443
0.00319001
0.00315594
0.00312222
0.00308886
0.00305587
0.00302324
0.00299099
0.0029591
0.00292759
0.00289644
0.00286567
0.00283527
0.00280523
0.00277557
0.00274627
0.00271733
0.00268876
0.00266055
0.0026327
0.0026052
0.00257805
0.00255125
0.00252479
0.00249867
0.00247289
0.00244744
0.00242231
0.0023975
0.00237302
0.00234884
0.00232497
0.00230141
0.00227815
0.00225518
0.00223251
0.00221012
0.00218801
0.00216617
0.0021446
0.0021233
0.00210225
0.00208144
0.00206087
0.00204053
0.00202038
0.00200043
0.00198064
0.00196098
0.00194141
0.00192188
0.00190233
0.00188268
0.00186279
0.00184273
0.00182198
0.00179365
2.34534e-06
0.00011801
0.000252883
0.000381025
0.000504009
0.000620546
0.00073142
0.000840475
0.000955334
0.00108117
0.00121924
0.00136898
0.0015113
0.0016433
0.00176757
0.00188602
0.00199975
0.00210941
0.00221539
0.00231789
0.0024173
0.00251402
0.00260834
0.00270051
0.00279076
0.0028793
0.0029663
0.00305192
0.00313631
0.00321956
0.00330175
0.00338296
0.0034632
0.0035425
0.00362085
0.00369822
0.00377457
0.00384986
0.003924
0.00399694
0.00406858
0.00413885
0.00420766
0.00427492
0.00434053
0.00440441
0.00446646
0.00452661
0.00458476
0.00464084
0.00469477
0.00474649
0.00479593
0.00484303
0.00488773
0.00493
0.00496979
0.00500706
0.0050418
0.00507397
0.00510356
0.00513057
0.00515499
0.00517683
0.00519609
0.0052128
0.00522696
0.00523862
0.00524779
0.00525451
0.00525883
0.00526077
0.00526043
0.00525782
0.005253
0.00524604
0.00523698
0.0052259
0.00521286
0.00519793
0.00518117
0.00516265
0.00514244
0.00512062
0.00509726
0.00507243
0.00504621
0.00501866
0.00498987
0.00495989
0.00492881
0.00489668
0.00486359
0.00482959
0.00479476
0.00475915
0.00472284
0.00468589
0.00464836
0.0046103
0.00457178
0.00453285
0.00449357
0.00445398
0.00441414
0.00437409
0.00433389
0.00429356
0.00425315
0.00421271
0.00417226
0.00413184
0.00409149
0.00405123
0.0040111
0.00397111
0.0039313
0.00389169
0.00385229
0.00381313
0.00377423
0.00373561
0.00369727
0.00365923
0.00362151
0.00358411
0.00354705
0.00351033
0.00347396
0.00343794
0.00340229
0.00336701
0.00333209
0.00329755
0.00326338
0.00322959
0.00319617
0.00316313
0.00313047
0.00309818
0.00306627
0.00303474
0.00300358
0.00297279
0.00294236
0.00291231
0.00288262
0.00285328
0.0028243
0.00279568
0.00276741
0.00273948
0.00271189
0.00268463
0.00265772
0.00263113
0.00260486
0.00257892
0.00255329
0.00252798
0.00250297
0.00247826
0.00245385
0.00242972
0.00240588
0.00238231
0.002359
0.00233593
0.0023131
0.00229048
0.00226805
0.00224577
0.0022236
0.00220149
0.00217938
0.00215718
0.00213478
0.0021122
0.0020889
0.00205823
1.92757e-06
0.000110324
0.000242589
0.00036994
0.00049568
0.000620099
0.000744986
0.00087444
0.00101175
0.00115903
0.0013164
0.00147822
0.00162605
0.00176252
0.00189063
0.0020124
0.00212911
0.00224156
0.0023503
0.00245573
0.00255813
0.0026577
0.00275488
0.00285002
0.00294342
0.0030353
0.00312587
0.00321528
0.00330367
0.00339113
0.00347775
0.00356357
0.0036486
0.00373286
0.00381631
0.00389891
0.00398062
0.00406136
0.00414106
0.00421962
0.00429696
0.00437297
0.00444756
0.00452062
0.00459204
0.00466173
0.00472959
0.00479551
0.00485941
0.0049212
0.0049808
0.00503812
0.0050931
0.00514567
0.00519577
0.00524335
0.00528837
0.00533078
0.00537056
0.00540767
0.00544211
0.00547386
0.00550291
0.00552927
0.00555294
0.00557394
0.00559229
0.00560802
0.00562114
0.00563169
0.00563972
0.00564527
0.00564838
0.0056491
0.00564749
0.00564362
0.00563753
0.00562928
0.00561894
0.00560657
0.00559225
0.00557604
0.005558
0.00553822
0.00551676
0.0054937
0.00546911
0.00544306
0.00541563
0.00538688
0.00535688
0.00532571
0.00529343
0.00526011
0.00522582
0.00519063
0.0051546
0.00511779
0.00508027
0.0050421
0.00500334
0.00496405
0.00492428
0.00488408
0.00484352
0.00480263
0.00476146
0.00472007
0.00467849
0.00463678
0.00459496
0.00455307
0.00451116
0.00446925
0.00442739
0.00438559
0.00434389
0.00430231
0.00426089
0.00421964
0.00417858
0.00413774
0.00409714
0.00405678
0.0040167
0.00397689
0.00393738
0.00389818
0.00385929
0.00382073
0.00378251
0.00374463
0.00370709
0.00366991
0.00363309
0.00359663
0.00356053
0.0035248
0.00348944
0.00345445
0.00341983
0.00338558
0.00335171
0.00331821
0.00328508
0.00325231
0.00321992
0.00318789
0.00315622
0.00312492
0.00309397
0.00306338
0.00303314
0.00300325
0.00297371
0.00294451
0.00291564
0.00288712
0.00285892
0.00283105
0.00280351
0.00277628
0.00274937
0.00272276
0.00269646
0.00267044
0.00264471
0.00261924
0.00259402
0.00256903
0.00254425
0.00251964
0.00249516
0.00247076
0.00244637
0.00242192
0.0023973
0.0023725
0.00234699
0.00231417
1.54399e-06
0.00010218
0.000232089
0.000359072
0.000487731
0.000618981
0.000755485
0.000899159
0.00105174
0.00121376
0.00138575
0.00155174
0.00170355
0.00184388
0.0019755
0.00210039
0.0022199
0.00233496
0.00244624
0.00255423
0.00265931
0.0027618
0.00286195
0.00295996
0.00305625
0.00315112
0.00324479
0.00333746
0.00342927
0.00352032
0.00361069
0.00370042
0.00378953
0.00387799
0.00396579
0.00405287
0.00413916
0.00422459
0.00430906
0.00439247
0.00447472
0.00455569
0.00463528
0.00471337
0.00478984
0.00486459
0.0049375
0.00500847
0.00507739
0.00514418
0.00520874
0.00527099
0.00533084
0.00538824
0.0054431
0.00549539
0.00554505
0.00559203
0.00563631
0.00567785
0.00571664
0.00575265
0.00578589
0.00581635
0.00584405
0.00586898
0.00589118
0.00591066
0.00592745
0.00594158
0.0059531
0.00596203
0.00596844
0.00597236
0.00597385
0.00597298
0.00596982
0.00596439
0.00595676
0.00594701
0.0059352
0.0059214
0.00590568
0.0058881
0.00586875
0.00584769
0.005825
0.00580074
0.00577499
0.00574782
0.0057193
0.0056895
0.00565848
0.00562632
0.00559308
0.00555883
0.00552364
0.00548756
0.00545067
0.00541302
0.00537468
0.0053357
0.00529614
0.00525606
0.0052155
0.00517453
0.00513318
0.00509151
0.00504956
0.00500737
0.004965
0.00492247
0.00487983
0.00483711
0.00479435
0.00475158
0.00470884
0.00466614
0.00462353
0.00458102
0.00453864
0.00449642
0.00445437
0.00441252
0.00437088
0.00432947
0.0042883
0.0042474
0.00420677
0.00416642
0.00412638