/*--------------------------------*- C++ -*----------------------------------*\
  =========                 |
  \\      /  F ield         | OpenFOAM: The Open Source CFD Toolbox
   \\    /   O peration     | Website:  https://openfoam.org
    \\  /    A nd           | Version:  8
     \\/     M anipulation  |
\*---------------------------------------------------------------------------*/
FoamFile
{
    version     2.0;
    format      ascii;
    class       volVectorField;
    location    "1200";
    object      wallShearStress;
}
// * * * * * * * * * * * * * * * * * * * * * * * * * * * * * * * * * * * * * //

dimensions      [0 2 -2 0 0 0 0];

internalField   uniform (0 0 0);

boundaryField
{
    inlet
    {
        type            calculated;
        value           uniform (0 0 0);
    }
    outlet
    {
        type            calculated;
        value           uniform (0 0 0);
    }
    upperWall
    {
        type            calculated;
        value           nonuniform List<vector> 
223
(
(-0.582193 -0.392359 0)
(-0.977814 -0.219377 0)
(-0.939335 -0.0567745 0)
(-0.81071 -0.00585779 0)
(-0.734594 0.00331374 0)
(-0.695452 0.00231585 0)
(-0.670933 0.000424303 0)
(-0.653508 -0.00144944 0)
(-0.64053 -0.00256178 0)
(-0.629828 -0.00218829 0)
(-0.620049 -0.00129002 0)
(-0.611053 -0.00108337 0)
(-0.602907 -0.00119504 0)
(-0.596275 -0.00145709 0)
(-0.590918 -0.00121108 0)
(-0.585294 0.000680297 0)
(-0.579798 0.00136637 0)
(-0.574271 0.00296254 0)
(-0.570334 0.00188945 0)
(-0.567531 0.000297425 4.19043e-22)
(-0.564991 0.00114685 0)
(-0.561984 0.00168799 0)
(-0.559163 0.00283507 0)
(-0.55618 0.00366879 4.49698e-22)
(-0.553045 0.00420405 0)
(-0.549853 0.00416563 0)
(-0.546833 0.00358645 0)
(-0.544061 0.00315149 -9.365e-22)
(-0.541317 0.00289182 9.46899e-22)
(-0.538588 0.00265891 9.57485e-22)
(-0.535901 0.00238591 0)
(-0.533252 0.00214425 -9.78835e-22)
(-0.530613 0.00192367 0)
(-0.52798 0.00173127 1.00167e-21)
(-0.525339 0.00156765 1.01359e-21)
(-0.522684 0.00144181 -1.02602e-21)
(-0.52001 0.00133808 0)
(-0.51732 0.00125454 0)
(-0.514612 0.00118929 0)
(-0.511881 0.00113901 0)
(-0.509123 0.00110094 -1.09076e-21)
(-0.506336 0.00107279 0)
(-0.503517 0.00105277 0)
(-0.500663 0.00103949 1.13106e-21)
(-0.497772 0.00103194 0)
(-0.494839 0.00102925 1.15765e-21)
(-0.491862 0.00103048 -1.17069e-21)
(-0.488836 0.00103482 1.18347e-21)
(-0.48576 0.00104203 0)
(-0.48263 0.00105065 0)
(-0.479445 0.00105989 0)
(-0.476207 0.00106872 1.231e-21)
(-0.472922 0.00107595 -1.24166e-21)
(-0.4696 0.0010817 0)
(-0.466258 0.00108713 0)
(-0.462908 0.00109267 0)
(-0.459564 0.0010974 0)
(-0.45623 0.00110028 0)
(-0.452906 0.00110048 0)
(-0.449588 0.00109811 0)
(-0.446269 0.00109382 0)
(-0.442937 0.00108866 1.29215e-21)
(-0.439582 0.00108378 -1.29191e-21)
(-0.436194 0.00108003 0)
(-0.43276 0.00107807 0)
(-0.42927 0.0010782 0)
(-0.425715 0.00108031 -1.27849e-21)
(-0.422088 0.00108434 0)
(-0.41838 0.00109014 0)
(-0.414587 0.00109725 0)
(-0.410703 0.0011052 0)
(-0.406727 0.00111363 0)
(-0.402655 0.00112205 -2.43454e-21)
(-0.398486 0.00112985 0)
(-0.394223 0.00113645 0)
(-0.389868 0.0011415 0)
(-0.385426 0.00114464 0)
(-0.380907 0.00114575 0)
(-0.376322 0.0011448 0)
(-0.371683 0.0011415 0)
(-0.367001 0.00113549 2.09553e-21)
(-0.362288 0.00112663 0)
(-0.357551 0.00111509 0)
(-0.352795 0.00110118 0)
(-0.348022 0.00108532 -1.8399e-21)
(-0.343232 0.00106816 0)
(-0.338423 0.00105031 -1.69048e-21)
(-0.333591 0.0010324 0)
(-0.328732 0.00101535 0)
(-0.323838 0.00099986 0)
(-0.319025 0.000992032 -1.35131e-21)
(-0.316385 0.00100114 0)
(-0.313661 0.00101503 1.18084e-21)
(-0.310856 0.00102966 1.09016e-21)
(-0.307976 0.00104288 0)
(-0.305031 0.00105375 8.96475e-22)
(-0.302034 0.00106256 0)
(-0.298998 0.00106966 0)
(-0.295936 0.00107756 0)
(-0.292865 0.00108312 -4.55063e-22)
(-0.289794 0.00109721 0)
(-0.286744 0.0010974 -2.05649e-22)
(-0.283714 0.00110437 7.37092e-23)
(-0.280733 0.00111889 0)
(-0.277797 0.00111209 0)
(-0.274928 0.00111117 0)
(-0.272117 0.00109104 0)
(-0.269386 0.0010979 0)
(-0.26672 0.00116038 0)
(-0.264148 0.00119445 0)
(-0.261724 0.00101407 1.14438e-21)
(-0.259333 0.00122709 0)
(-0.257293 0.0014836 0)
(-0.255355 0.0012994 0)
(-0.253388 0.00132262 0)
(-0.251338 0.00106539 0)
(-0.249314 0.000426503 0)
(-0.247116 0.00013277 0)
(-0.245 0.000243048 0)
(-0.243044 0.000398133 0)
(-0.241096 0.00047445 0)
(-0.23912 0.000534009 0)
(-0.237385 0.000631352 0)
(-0.235658 0.00057196 7.17162e-21)
(-0.233996 0.000529749 0)
(-0.232092 0.00057977 0)
(-0.230443 0.000539183 0)
(-0.2287 0.000515508 -8.82285e-21)
(-0.227163 0.000598052 0)
(-0.225886 0.000599472 0)
(-0.224334 0.000569857 -1.00591e-20)
(-0.222848 0.000736168 0)
(-0.221463 0.000772186 1.08753e-20)
(-0.219948 0.000850751 0)
(-0.218546 0.00083161 0)
(-0.216972 0.000964545 0)
(-0.216073 0.00115639 -1.25069e-20)
(-0.215426 0.000968601 0)
(-0.214356 0.000914455 1.33696e-20)
(-0.213328 0.000569354 0)
(-0.212218 0.000616003 0)
(-0.211327 0.000837792 0)
(-0.210496 0.000606295 0)
(-0.209905 0.000476926 0)
(-0.20907 0.000395105 0)
(-0.208307 0.000190775 0)
(-0.207052 0.000390379 0)
(-0.206367 0.000382168 0)
(-0.20554 0.000308809 0)
(-0.204475 0.000541433 0)
(-0.203878 0.000362886 1.835e-20)
(-0.203459 0.000148671 -1.87283e-20)
(-0.202305 0.000272936 0)
(-0.20191 0.000399303 0)
(-0.201548 0.000331868 0)
(-0.200661 0.000390919 0)
(-0.200166 0.000310263 -2.07957e-20)
(-0.199794 0.000334747 2.11415e-20)
(-0.19899 -0.00014412 -2.17077e-20)
(-0.197616 -0.000524288 0)
(-0.19681 -0.000230104 -2.2721e-20)
(-0.19644 -5.0303e-05 -4.60054e-20)
(-0.196216 0.000451439 0)
(-0.195864 0.000573517 -4.75204e-20)
(-0.195383 0.000466187 4.8411e-20)
(-0.19535 0.000513952 0)
(-0.195434 0.000384469 0)
(-0.19477 0.000371257 0)
(-0.194109 0.000338287 0)
(-0.193963 0.000281652 0)
(-0.193491 0.000108155 -5.32318e-20)
(-0.192962 0.00019856 0)
(-0.192381 0.000373574 -5.50209e-20)
(-0.192274 -0.000162564 0)
(-0.191214 -0.000475387 0)
(-0.190192 -0.000216869 0)
(-0.19002 1.67618e-05 0)
(-0.189185 0.000156468 0)
(-0.18887 0.000460346 6.05824e-20)
(-0.18855 0.000685782 0)
(-0.187934 0.000567806 0)
(-0.187727 0.000451395 -6.34388e-20)
(-0.187133 0.00049304 0)
(-0.186025 0.000514933 0)
(-0.185382 5.41128e-07 0)
(-0.183697 -0.000232286 6.92209e-20)
(-0.181734 2.86987e-05 0)
(-0.180419 0.000171602 0)
(-0.179206 0.000314448 0)
(-0.177015 0.000387144 0)
(-0.175001 0.000435655 -7.72687e-20)
(-0.172219 0.000517564 0)
(-0.169627 0.000600782 0)
(-0.166207 0.000817101 0)
(-0.16117 0.00110913 8.86485e-20)
(-0.153851 0.00135658 0)
(-0.147495 0.00227442 0)
(-0.122694 0.00233411 -1.0803e-19)
(-0.140711 0.00688228 0)
(-0.16908 0.0134877 1.25e-17)
(-0.186513 0.017248 2.35661e-17)
(-0.193093 0.0189655 2.27185e-17)
(-0.196743 0.0197544 2.19662e-17)
(-0.200754 0.0203526 2.11866e-17)
(-0.205366 0.0210297 -2.02421e-17)
(-0.209647 0.0215106 -1.9517e-17)
(-0.213933 0.0218675 0)
(-0.217552 0.0219911 -3.68338e-17)
(-0.219855 0.0221762 -1.80903e-17)
(-0.224535 0.0227157 6.86113e-34)
(-0.227439 0.0229082 0)
(-0.231065 0.0233695 -3.22712e-17)
(-0.235468 0.0239549 -3.06558e-17)
(-0.242449 0.0248006 -2.84642e-17)
(-0.249632 0.0254583 0)
(-0.256938 0.0260742 4.94016e-17)
(-0.263955 0.0266504 2.26462e-17)
(-0.272779 0.0274478 3.61112e-35)
(-0.282672 0.0283575 -3.48613e-17)
(-0.291231 0.0290024 -1.58567e-20)
(-0.300802 0.0295576 0)
(-0.305382 0.0305119 1.34126e-17)
(-0.332968 0.0321998 -7.62523e-18)
)
;
    }
    lowerWall
    {
        type            calculated;
        value           nonuniform List<vector> 
250
(
(-0.653909 0.466638 0)
(-1.14095 0.204678 0)
(-1.03492 0.0379587 0)
(-0.869573 -0.000935958 0)
(-0.786941 -0.00419158 0)
(-0.746063 -0.00160777 0)
(-0.719879 0.000416299 0)
(-0.700647 -0.000651636 0)
(-0.68509 -0.00405582 0)
(-0.67132 -0.00471211 0)
(-0.658935 -0.00298809 0)
(-0.647723 -0.000864024 0)
(-0.637521 0.00142647 0)
(-0.628197 0.00210447 0)
(-0.61933 0.0013686 0)
(-0.611534 0.0013593 0)
(-0.604604 0.00169733 0)
(-0.605083 0.0019513 0)
(-0.00423705 -0.0229346 0)
(-0.00277561 -0.0177741 0)
(-0.000717829 -0.0145987 0)
(0.00189357 -0.0138746 8.99427e-20)
(0.00521789 -0.0152572 -7.84727e-20)
(0.00891644 -0.0208566 6.27805e-20)
(0.0126932 -0.0200758 -4.845e-20)
(0.0256197 -0.0632939 0)
(-0.083996 -0.144703 0)
(0.000880938 -0.00384531 0)
(-0.00766464 0.00953159 0)
(-0.00852258 0.0328182 0)
(-0.00255779 0.0448691 0)
(0.00294779 0.0442897 1.82185e-20)
(0.00617877 0.0360978 -1.89576e-20)
(0.00818351 0.0242013 0)
(0.00945692 0.010203 -5.41608e-20)
(0.00943165 -0.00400034 6.11403e-20)
(0.00793599 -0.017381 0)
(0.00614422 -0.0291557 0)
(0.00438454 -0.038527 0)
(0.0026898 -0.0451087 0)
(0.000989013 -0.0488528 0)
(-0.00088189 -0.0494952 0)
(-0.00281662 -0.0463962 0)
(-0.00437389 -0.0399062 0)
(-0.00490375 -0.0308456 0)
(0.00132971 -0.00151697 0)
(0.00134189 0.00652764 0)
(-0.00450634 0.00962137 0)
(-0.00959614 0.00976111 0)
(-0.0133846 0.00830492 0)
(-0.0158934 0.00624067 0)
(-0.0172708 0.00410262 1.49512e-21)
(-0.0177913 0.00201051 -1.52657e-21)
(-0.0173419 -3.36803e-06 0)
(-0.0160659 -0.00168429 -1.65215e-21)
(-0.0142009 -0.00283802 0)
(-0.0120616 -0.00329969 0)
(-0.0100588 -0.00304102 -0)
(-0.00855751 -0.00228503 2.5694e-21)
(-0.00761881 -0.00142466 0)
(-0.00694125 -0.000812038 0)
(-0.00612662 -0.000612364 -3.3755e-21)
(-0.00500317 -0.000979623 0)
(-0.0034305 -0.00235062 0)
(-0.000536565 -0.00503659 0)
(0.00432416 -0.00739943 3.04723e-21)
(0.0099107 -0.00889225 0)
(0.0158127 -0.00985113 1.47134e-21)
(0.0218613 -0.0106155 0)
(0.0280662 -0.0112686 -0)
(0.0343782 -0.0115163 8.4511e-22)
(0.0405133 -0.0113575 0)
(0.0491051 -0.0116032 -7.53976e-22)
(0.0588965 -0.0117568 -0)
(0.0685929 -0.0115853 7.70632e-22)
(0.0780047 -0.0111722 0)
(0.086981 -0.0105877 0)
(0.0954286 -0.00989378 0)
(0.10329 -0.00914017 -0)
(0.110539 -0.0083641 0)
(0.117175 -0.00759273 -8.11106e-22)
(0.123211 -0.00684325 -0)
(0.128669 -0.0061252 1.633e-21)
(0.133576 -0.00544268 0)
(0.13796 -0.00479605 -1.63488e-21)
(0.141847 -0.00418374 -0)
(0.145261 -0.00360292 -0)
(0.148223 -0.00305079 1.62099e-21)
(0.15075 -0.00252527 0)
(0.152857 -0.0020251 1.60078e-21)
(0.154555 -0.00155112 -1.58747e-21)
(0.155858 -0.00110699 -0)
(0.156777 -0.000699453 -1.55486e-21)
(0.157324 -0.000338336 -1.53582e-21)
(0.15751 -4.01339e-05 -0)
(0.157405 0.000194555 0)
(0.157073 0.0003913 0)
(0.15652 0.000568031 0)
(0.155759 0.000730957 -0)
(0.154798 0.000884093 1.37577e-21)
(0.153646 0.00102816 0)
(0.15231 0.00116385 -1.307e-21)
(0.150797 0.00129158 -0)
(0.149114 0.00141117 -0)
(0.14727 0.00152274 1.19055e-21)
(0.14527 0.00162633 0)
(0.143125 0.00172184 -1.10485e-21)
(0.140841 0.00180921 -0)
(0.138428 0.00188855 0)
(0.135894 0.00195982 -0)
(0.133248 0.00202297 9.16836e-22)
(0.1305 0.00207831 0)
(0.127658 0.0021259 -0)
(0.124732 0.00216583 7.63795e-22)
(0.121731 0.00219831 0)
(0.118664 0.0022235 6.57265e-22)
(0.115541 0.00224169 0)
(0.112369 0.00225315 0)
(0.109159 0.00225809 0)
(0.105918 0.0022569 -4.3619e-22)
(0.102656 0.00224982 -0)
(0.0993792 0.0022371 0)
(0.0960967 0.00221922 -2.65588e-22)
(0.0928152 0.00219636 -2.08137e-22)
(0.0895426 0.00216892 -0)
(0.0862848 0.00213725 -9.26672e-23)
(0.083049 0.00210169 -0)
(0.0798405 0.00206263 4.65804e-23)
(0.0766654 0.00202047 -0)
(0.0735283 0.00197564 2.78997e-22)
(0.0704346 0.00192867 0)
(0.0673878 0.00188017 -5.11678e-22)
(0.064392 0.00183078 -0)
(0.0614506 0.00178154 0)
(0.0585659 0.00173375 -0)
(0.0557401 0.00168918 9.78446e-22)
(0.0529741 0.0016499 0)
(0.050269 0.00161807 -1.21389e-21)
(0.0476228 0.00159481 0)
(0.0457844 0.00160344 1.47565e-21)
(0.0442419 0.00162101 1.63417e-21)
(0.0427029 0.00162592 1.79909e-21)
(0.0411755 0.00161304 0)
(0.0396651 0.00158971 0)
(0.0381714 0.00156401 0)
(0.0366932 0.00153821 0)
(0.0352302 0.0015125 0)
(0.0337832 0.0014869 0)
(0.0323521 0.00146142 0)
(0.0309382 0.0014362 0)
(0.029541 0.00141139 -3.69192e-21)
(0.0281618 0.0013872 -3.96758e-21)
(0.0268 0.00136379 0)
(0.0254561 0.00134079 0)
(0.0241307 0.00131673 0)
(0.0228249 0.00129186 -5.26758e-21)
(0.0215386 0.00126765 0)
(0.0202721 0.001244 0)
(0.019025 0.00122094 0)
(0.0177976 0.00119852 0)
(0.01659 0.00117679 7.5363e-21)
(0.0154021 0.00115584 0)
(0.0142339 0.00113577 0)
(0.0130854 0.00111666 -9.45521e-21)
(0.0119563 0.00109854 1.02328e-20)
(0.0108467 0.00108154 0)
(0.00975658 0.00106592 1.20692e-20)
(0.00868576 0.00105234 0)
(0.00763389 0.00104196 -1.44077e-20)
(0.00660032 0.00103507 0)
(0.0055847 0.00103067 0)
(0.00458697 0.00102846 0)
(0.00360671 0.00102874 0)
(0.0026435 0.00103177 0)
(0.00169778 0.0010375 5.57131e-20)
(0.000771049 0.00104308 6.42238e-20)
(-0.000138737 0.00103036 0)
(-0.00103601 0.000987522 0)
(-0.00191782 0.00093513 0)
(-0.00278413 0.000885634 -5.28877e-20)
(-0.00363482 0.000840711 0)
(-0.00446971 0.000799959 0)
(-0.00528918 0.000762891 0)
(-0.00609382 0.000729013 -4.04157e-20)
(-0.00688416 0.000697862 3.83657e-20)
(-0.00766072 0.000669063 0)
(-0.00842395 0.000642313 0)
(-0.00917434 0.000617364 3.36184e-20)
(-0.00991229 0.000594016 3.23784e-20)
(-0.0106382 0.000572104 0)
(-0.0113526 0.000551502 0)
(-0.0120558 0.000532085 -2.93532e-20)
(-0.0127483 0.000513759 2.85256e-20)
(-0.0134305 0.000496447 0)
(-0.0141029 0.000480076 0)
(-0.0147658 0.000464587 2.64357e-20)
(-0.0154196 0.000449922 0)
(-0.0160649 0.000436045 0)
(-0.0167022 0.000422907 2.47904e-20)
(-0.0173317 0.000410471 0)
(-0.0179541 0.000398708 2.38745e-20)
(-0.0185697 0.000387582 0)
(-0.019179 0.000377066 0)
(-0.0197826 0.000367127 0)
(-0.0203808 0.000357727 -2.23587e-20)
(-0.020974 0.000348847 0)
(-0.0215629 0.000340434 0)
(-0.0221475 0.00033244 0)
(-0.0227284 0.000324811 0)
(-0.0233058 0.000317433 0)
(-0.0238794 0.000310226 0)
(-0.0244495 0.000303047 -2.03857e-20)
(-0.0250155 0.000295687 -2.01554e-20)
(-0.0255768 0.000287849 0)
(-0.0261314 0.000279168 0)
(-0.0266776 0.000269154 0)
(-0.027212 0.000257022 1.93607e-20)
(-0.0277294 0.000241532 0)
(-0.0282211 0.000221294 -3.81352e-20)
(-0.028678 0.000192245 3.7929e-20)
(-0.029071 0.000152623 3.78199e-20)
(-0.0294023 7.78929e-05 -3.78585e-20)
(-0.0294839 -3.93937e-05 3.80454e-20)
(-0.0295085 -0.000356545 -3.83976e-20)
(-0.0279741 -0.000616871 0)
(-0.0293466 -0.000516228 -2.43317e-18)
(-0.0327701 -0.00134241 -2.26976e-18)
(-0.0364139 -0.00203339 0)
(-0.0395345 -0.0025761 -4.06085e-18)
(-0.0424847 -0.00301865 -7.75771e-18)
(-0.0455567 -0.00342163 -3.71962e-18)
(-0.0487812 -0.00381866 3.56776e-18)
(-0.0521152 -0.00429946 -6.62038e-35)
(-0.0556078 -0.00476013 3.00927e-36)
(-0.0592981 -0.0050775 3.14925e-18)
(-0.0632492 -0.00539163 3.02717e-18)
(-0.0674368 -0.00582174 0)
(-0.0719271 -0.00628059 0)
(-0.0767469 -0.00671397 0)
(-0.0819407 -0.00719758 -1.0744e-34)
(-0.0875579 -0.00773826 -1.06453e-34)
(-0.0936721 -0.00833995 6.01853e-35)
(-0.100339 -0.00900492 -4.158e-18)
(-0.1077 -0.00972704 -3.81227e-18)
(-0.116761 -0.0106215 1.20371e-35)
(-0.127576 -0.0116257 6.13686e-18)
(-0.138429 -0.012733 1.03494e-17)
(-0.153652 -0.0139266 6.01853e-36)
(-0.162851 -0.0152938 -5.09811e-18)
(-0.191965 -0.0169817 3.00927e-36)
)
;
    }
    frontAndBack
    {
        type            empty;
    }
}


// ************************************************************************* //
