/*--------------------------------*- C++ -*----------------------------------*\
  =========                 |
  \\      /  F ield         | OpenFOAM: The Open Source CFD Toolbox
   \\    /   O peration     | Website:  https://openfoam.org
    \\  /    A nd           | Version:  8
     \\/     M anipulation  |
\*---------------------------------------------------------------------------*/
FoamFile
{
    version     2.0;
    format      ascii;
    class       volScalarField;
    location    "1700";
    object      nut;
}
// * * * * * * * * * * * * * * * * * * * * * * * * * * * * * * * * * * * * * //

dimensions      [0 2 -1 0 0 0 0];

internalField   nonuniform List<scalar> 
12225
(
0.0122671
0.00158819
0.000666129
0.000410105
0.000294025
0.00022806
0.000183261
0.000170805
0.000132697
0.000106844
9.46735e-05
8.80085e-05
7.89856e-05
7.2233e-05
6.77318e-05
6.4507e-05
6.12104e-05
6.46338e-05
0.0323823
0.00744532
0.00330638
0.00204329
0.00146801
0.0011445
0.000936338
0.000799975
0.00067951
0.000577234
0.000506286
0.000452432
0.00041054
0.000378806
0.000350182
0.000327767
0.000311172
0.000292818
0.0490123
0.01515
0.00728196
0.00457854
0.00330639
0.00258054
0.00211233
0.00178913
0.00154181
0.00134762
0.00119772
0.0010787
0.000982056
0.000902481
0.000835978
0.000780909
0.000735546
0.00068717
0.063054
0.0237783
0.0122894
0.00788814
0.00573397
0.00448498
0.00367412
0.00310733
0.00268471
0.00235805
0.00210111
0.00189458
0.00172531
0.00158451
0.00146613
0.00136604
0.00128146
0.00119789
0.074932
0.0328517
0.0181452
0.0119262
0.00874548
0.00686412
0.0056308
0.00476254
0.00411748
0.00362029
0.00322731
0.00290992
0.00264899
0.00243143
0.00224799
0.00209188
0.00195826
0.00183626
0.0849536
0.0420208
0.0246655
0.0166359
0.0123325
0.00972587
0.00799539
0.00676785
0.00585345
0.00514769
0.00458844
0.00413587
0.00376334
0.00345239
0.00318983
0.00296596
0.0027736
0.00260471
0.0933822
0.0510219
0.0316642
0.0219415
0.016474
0.0130717
0.0107778
0.00913551
0.0079057
0.0069534
0.0061969
0.00558367
0.00507837
0.00465632
0.00429976
0.00399561
0.00373414
0.00350818
0.0993794
0.0583363
0.0378386
0.0268568
0.0204171
0.0163053
0.0134891
0.011453
0.00991891
0.00872629
0.00777635
0.00700497
0.00636866
0.00583685
0.0053874
0.00500398
0.00467452
0.00439126
0.104023
0.0645454
0.0433804
0.0314239
0.0241571
0.0194092
0.0161097
0.0137018
0.0118766
0.0104521
0.00931443
0.00838904
0.00762485
0.00698574
0.00644544
0.00598449
0.00558858
0.00524877
0.108368
0.0708939
0.0493756
0.0365496
0.0284517
0.0230231
0.0191863
0.0163547
0.0141926
0.0124968
0.011138
0.0100303
0.00911434
0.00834759
0.0076991
0.00714579
0.00667068
0.00626298
0.112368
0.0772557
0.0557282
0.0421918
0.0332976
0.0271652
0.0227467
0.0194432
0.0168984
0.0148903
0.0132749
0.0119544
0.0108605
0.00994379
0.00916796
0.00850586
0.00793736
0.00744915
0.115994
0.0834975
0.0623053
0.0482611
0.0386474
0.0318167
0.026789
0.0229739
0.0200046
0.0176452
0.0157378
0.0141736
0.0128749
0.011785
0.0108618
0.0100736
0.00939671
0.00881464
0.119234
0.0894856
0.0689377
0.0546109
0.0443919
0.0369007
0.0312597
0.0269088
0.0234836
0.02074
0.0185096
0.0166735
0.0151449
0.01386
0.0127704
0.0118396
0.0110397
0.0103508
0.122086
0.095084
0.075415
0.0610223
0.0503361
0.0422534
0.0360231
0.0311353
0.0272402
0.024093
0.021519
0.0193909
0.017614
0.0161174
0.0148466
0.01376
0.0128257
0.0120196
0.124546
0.100135
0.0814619
0.0671725
0.056158
0.047577
0.0408126
0.0354174
0.031066
0.0275196
0.0246012
0.0221777
0.0201481
0.0184349
0.0169782
0.0157314
0.0146583
0.0137311
0.126578
0.104396
0.0866605
0.0725515
0.0613228
0.0523526
0.0451453
0.0393148
0.0345631
0.0306611
0.0274325
0.0247409
0.0224806
0.020569
0.0189413
0.0175468
0.0163454
0.0153061
0.128011
0.107322
0.0902141
0.0762353
0.0648743
0.0556509
0.0481493
0.0420254
0.0370012
0.0328553
0.0294126
0.0265352
0.0241143
0.0220643
0.0203172
0.0188191
0.0175275
0.0164083
0.128006
0.107313
0.0902048
0.0762269
0.0648674
0.0556454
0.048145
0.0420222
0.0369988
0.0328537
0.0294117
0.0265349
0.0241147
0.0220652
0.0203185
0.0188206
0.0175287
0.0164083
0.126509
0.104255
0.0864922
0.0723807
0.0611613
0.052205
0.0450128
0.0391967
0.0344584
0.0305686
0.0273506
0.0246684
0.0224163
0.0205118
0.0188903
0.0175006
0.0163024
0.0152631
0.124267
0.0995604
0.0807712
0.0664676
0.0554886
0.0469631
0.0402594
0.0349228
0.0306248
0.0271258
0.0242488
0.0218611
0.0198626
0.0181762
0.0167426
0.0155152
0.0144575
0.0135405
0.12136
0.0936399
0.0737261
0.0593348
0.0487592
0.0408249
0.0347467
0.0300003
0.0262308
0.0231928
0.0207127
0.018665
0.0169572
0.0155198
0.0142999
0.0132567
0.0123583
0.0115798
0.117686
0.0865903
0.0656967
0.0514791
0.0415374
0.0343608
0.0290184
0.0249322
0.0217348
0.0191848
0.0171184
0.0154211
0.0140106
0.0128263
0.0118229
0.0109657
0.010228
0.00958895
0.11305
0.0784122
0.056921
0.0432687
0.0342296
0.0279652
0.0234365
0.0200435
0.0174263
0.0153597
0.0136966
0.0123369
0.0112106
0.010267
0.00946866
0.00878719
0.00820102
0.00769347
0.107169
0.0691009
0.0476372
0.035029
0.0271566
0.021922
0.0182437
0.0155401
0.0134817
0.0118706
0.0105816
0.00953197
0.00866487
0.00793965
0.0073267
0.00680378
0.00635413
0.00596495
0.0996761
0.0587036
0.0381279
0.0270699
0.0205782
0.0164329
0.0135949
0.0115438
0.00999922
0.00879908
0.00784341
0.00706755
0.0064279
0.00589357
0.00544229
0.00505734
0.00472643
0.00444008
0.0901097
0.0473665
0.0287363
0.0196847
0.0146976
0.0116312
0.00957853
0.00811528
0.00702331
0.00617994
0.00551057
0.00496793
0.00452113
0.00414813
0.0038333
0.00356445
0.00333366
0.00313367
0.0779076
0.0353826
0.0198606
0.0131383
0.00966107
0.00759298
0.00623352
0.00527429
0.00456399
0.00401883
0.00358696
0.00323611
0.00294716
0.00270592
0.00250233
0.00232747
0.00217869
0.00204817
0.06238
0.0232554
0.0119461
0.00765493
0.00556337
0.00435256
0.00356724
0.00301639
0.00261307
0.00230794
0.00206655
0.00186719
0.00170218
0.00156416
0.00144769
0.00134441
0.0012608
0.00118219
0.0426105
0.0117794
0.0054693
0.00341385
0.00246071
0.00192006
0.00157275
0.00132885
0.00115942
0.00103848
0.000943994
0.000857685
0.000784587
0.00072151
0.000667762
0.000612319
0.000581062
0.000536615
0.0168348
0.00255985
0.00110002
0.000683428
0.000493724
0.000386804
0.000318219
0.00026631
0.000272591
0.000322006
0.000354515
0.000337161
0.000302488
0.0002618
0.000237263
0.000183811
0.00023452
0.000235735
3.99347e-09
5.91153e-07
2.00084e-06
6.28924e-06
1.08024e-05
1.35317e-05
1.3257e-05
1.17921e-05
9.06416e-06
5.94817e-06
3.52418e-06
2.02511e-06
1.40999e-06
1.50298e-06
2.06708e-06
2.56605e-06
2.45451e-06
2.06917e-06
2.54265e-06
8.67625e-06
9.02502e-06
5.55389e-06
6.75049e-06
2.65068e-05
5.67502e-05
7.4423e-05
9.09771e-05
0.000104825
0.000117046
0.000127207
0.000136111
0.000143757
0.000150448
0.000156275
0.000161357
0.000165843
0.000169818
0.000173368
0.00017655
0.000179409
0.000181974
0.000184267
0.000186307
0.000188111
0.000189691
0.000191062
0.000192234
0.000193214
0.000194003
0.000194475
0.000194973
0.000195082
0.000195143
0.000195019
0.00019472
0.000194274
0.000193675
0.000192928
0.000192035
0.000190996
0.000189815
0.000188494
0.000187034
0.000185438
0.00018371
0.00018185
0.00017986
0.000177742
0.0001755
0.000173135
0.00017065
0.000168046
0.000165325
0.000162488
0.000159538
0.000156475
0.000153299
0.00015001
0.000146607
0.000143088
0.000139452
0.000135694
0.00013181
0.000127794
0.000123639
0.000119336
0.000114872
0.000110234
0.0001054
0.000100347
9.50459e-05
8.94703e-05
8.36144e-05
7.7544e-05
7.15331e-05
6.62508e-05
6.24912e-05
6.01492e-05
5.83965e-05
5.67906e-05
5.52144e-05
5.3646e-05
5.20839e-05
5.05295e-05
4.89848e-05
4.74519e-05
4.59334e-05
4.44355e-05
4.29862e-05
4.17492e-05
4.05452e-05
3.93554e-05
3.81829e-05
3.70283e-05
3.58924e-05
3.47762e-05
3.36803e-05
3.26055e-05
3.15523e-05
3.05213e-05
2.95128e-05
2.85273e-05
2.75653e-05
2.66273e-05
2.57134e-05
2.48234e-05
2.39585e-05
2.31463e-05
2.24121e-05
2.16965e-05
2.09959e-05
2.03186e-05
1.96693e-05
1.90344e-05
1.84134e-05
1.78096e-05
1.72237e-05
1.6656e-05
1.61063e-05
1.55744e-05
1.50596e-05
1.45617e-05
1.40802e-05
1.36146e-05
1.31646e-05
1.27297e-05
1.23096e-05
1.19039e-05
1.15121e-05
1.1134e-05
1.07691e-05
1.04171e-05
1.00777e-05
9.75047e-06
9.43519e-06
9.13155e-06
8.83927e-06
8.55811e-06
8.28782e-06
8.02821e-06
7.77909e-06
7.54027e-06
7.31158e-06
7.09283e-06
6.88384e-06
6.68433e-06
6.49399e-06
6.31239e-06
6.13899e-06
5.97302e-06
5.8137e-06
5.65943e-06
5.50978e-06
5.35979e-06
5.21404e-06
5.048e-06
4.89401e-06
4.64764e-06
4.48943e-06
3.59435e-06
1.68163e-07
6.1422e-06
6.38816e-05
0.000139685
0.00018324
0.000207005
0.000216379
0.000214886
0.000206542
0.000189839
0.000169047
0.000148912
0.000138497
0.000143711
0.00015768
0.000166603
0.000169022
0.000170205
0.000175608
0.00018531
0.000200064
0.000217503
0.000234337
0.00025084
0.000262141
0.000272044
0.00028086
0.000293705
0.000312801
0.000326748
0.000339491
0.000350415
0.000360345
0.000369443
0.000377344
0.000384557
0.000391272
0.000397713
0.000404013
0.000410237
0.000416379
0.000422397
0.000428239
0.000433864
0.000439243
0.00044436
0.0004492
0.000453751
0.000458013
0.000461987
0.000465712
0.000469154
0.000472351
0.000475293
0.000477984
0.000480426
0.000482619
0.000484564
0.000486262
0.000487713
0.000488917
0.000489876
0.000490591
0.000491068
0.000491317
0.000491341
0.000491137
0.0004907
0.000490047
0.000489182
0.00048811
0.000486837
0.000485372
0.00048372
0.000481889
0.000479885
0.000477717
0.000475391
0.000472916
0.000470299
0.000467547
0.000464669
0.000461672
0.000458565
0.000455356
0.000452052
0.000448663
0.000445197
0.000441661
0.000438064
0.000434412
0.000430709
0.000426957
0.000423147
0.000419261
0.000415271
0.000411162
0.000406962
0.000402721
0.000398464
0.000394199
0.00038993
0.00038566
0.000381392
0.000377131
0.000372879
0.000368639
0.000364414
0.000360203
0.000356005
0.000351829
0.000347681
0.000343562
0.000339474
0.000335419
0.000331399
0.000327415
0.000323468
0.000319561
0.000315693
0.000311866
0.000308081
0.000304339
0.000300641
0.000296988
0.00029338
0.000289816
0.000286295
0.000282816
0.000279382
0.000275991
0.000272651
0.000269365
0.000266115
0.000262901
0.000259728
0.000256599
0.000253514
0.000250475
0.000247481
0.000244531
0.000241624
0.000238761
0.00023594
0.00023316
0.000230422
0.000227724
0.000225067
0.000222449
0.000219871
0.000217332
0.000214831
0.00021237
0.000209946
0.000207562
0.000205216
0.00020291
0.000200644
0.000198418
0.000196234
0.000194093
0.000191997
0.000189948
0.000187946
0.000185995
0.000184095
0.000182248
0.000180454
0.000178712
0.000177021
0.000175376
0.000173776
0.000172198
0.000170684
0.000169073
0.000167751
0.000165619
0.000164902
0.000162095
0.000160722
7.68577e-07
4.45407e-05
0.000164287
0.000246523
0.000299858
0.00033018
0.000341219
0.000338351
0.000325519
0.000306245
0.00028647
0.000273747
0.000271487
0.000278166
0.000288523
0.000299353
0.000312115
0.000329069
0.000350669
0.00037583
0.00040322
0.000431576
0.000469789
0.000516176
0.000561831
0.000605988
0.00064909
0.000692764
0.000732105
0.000763396
0.000788405
0.00080823
0.000823946
0.000836415
0.000846419
0.000854736
0.000862066
0.000869052
0.000876233
0.000883965
0.000892353
0.000901277
0.000910495
0.000919772
0.000928929
0.000937849
0.000946453
0.000954694
0.000962537
0.000969952
0.000976918
0.000983404
0.000989408
0.000994924
0.000999948
0.00100448
0.00100852
0.00101207
0.00101513
0.00101769
0.00101976
0.00102133
0.00102242
0.00102296
0.00102312
0.00102283
0.00102204
0.0010208
0.00101911
0.00101699
0.00101445
0.00101151
0.00100817
0.00100446
0.00100038
0.000995947
0.000991181
0.000986093
0.0009807
0.000975015
0.000969055
0.000962834
0.000956369
0.000949673
0.000942761
0.00093565
0.000928353
0.000920885
0.00091326
0.00090549
0.000897587
0.000889564
0.000881429
0.00087319
0.000864855
0.000856435
0.000847942
0.000839391
0.000830799
0.000822179
0.000813542
0.000804896
0.000796251
0.000787613
0.000778989
0.000770388
0.000761814
0.000753274
0.000744774
0.000736319
0.000727915
0.000719567
0.000711279
0.000703057
0.000694903
0.00068682
0.000678813
0.000670884
0.000663035
0.000655268
0.000647587
0.000639992
0.000632485
0.000625069
0.000617745
0.000610512
0.000603372
0.000596325
0.000589372
0.000582512
0.000575747
0.000569078
0.000562502
0.000556013
0.00054961
0.000543297
0.000537074
0.000530943
0.000524903
0.000518954
0.000513095
0.000507326
0.000501644
0.000496049
0.000490541
0.000485117
0.000479776
0.000474518
0.000469342
0.000464245
0.000459228
0.000454288
0.000449426
0.000444639
0.000439927
0.000435289
0.000430723
0.000426228
0.000421803
0.000417447
0.000413159
0.000408936
0.000404778
0.000400681
0.000396643
0.000392662
0.000388732
0.000384848
0.000381005
0.000377192
0.000373399
0.00036961
0.000365802
0.000361955
0.000357995
0.000353955
0.000349473
0.000345079
0.000338589
0.000327131
5.07059e-07
8.12887e-05
0.00021297
0.000309205
0.00037299
0.000410403
0.000425978
0.000426369
0.000416358
0.000402954
0.000394798
0.00039396
0.000403187
0.000420398
0.000443153
0.000470908
0.000504261
0.000543571
0.000588028
0.000650262
0.000724126
0.000803918
0.000888181
0.000958844
0.00102127
0.0010774
0.00112781
0.00117272
0.00121198
0.00124587
0.00127511
0.00130045
0.00132257
0.00134211
0.00135964
0.00137567
0.00139059
0.00140476
0.00141842
0.00143177
0.00144494
0.00145799
0.00147095
0.0014838
0.0014965
0.00150896
0.00152109
0.0015328
0.00154399
0.00155458
0.00156454
0.00157381
0.00158239
0.00159025
0.00159739
0.00160379
0.00160947
0.00161441
0.00161861
0.00162207
0.00162479
0.00162677
0.00162793
0.00162836
0.00162824
0.00162733
0.0016257
0.00162338
0.00162038
0.00161673
0.00161243
0.00160751
0.00160199
0.00159589
0.00158923
0.00158204
0.00157433
0.00156613
0.00155747
0.00154836
0.00153883
0.0015289
0.0015186
0.00150794
0.00149696
0.00148567
0.00147409
0.00146226
0.00145018
0.00143788
0.00142538
0.0014127
0.00139985
0.00138685
0.00137372
0.00136047
0.00134712
0.00133369
0.0013202
0.00130666
0.0012931
0.00127953
0.00126596
0.00125239
0.00123886
0.00122536
0.0012119
0.0011985
0.00118516
0.00117189
0.0011587
0.0011456
0.00113259
0.00111968
0.00110689
0.0010942
0.00108163
0.00106918
0.00105685
0.00104465
0.00103259
0.00102066
0.00100887
0.000997211
0.000985699
0.000974328
0.000963102
0.00095202
0.000941083
0.000930292
0.000919648
0.00090915
0.000898795
0.00088858
0.000878503
0.000868565
0.000858768
0.000849111
0.000839596
0.000830221
0.000820985
0.000811886
0.000802924
0.000794096
0.000785401
0.000776837
0.000768402
0.000760095
0.000751914
0.000743856
0.000735921
0.000728106
0.000720409
0.00071283
0.000705365
0.000698013
0.000690772
0.000683641
0.000676617
0.000669697
0.00066288
0.000656164
0.000649544
0.000643017
0.00063658
0.000630227
0.000623953
0.00061775
0.000611608
0.000605514
0.000599453
0.000593403
0.000587335
0.000581212
0.000574968
0.000568549
0.000561772
0.00055458
0.000546338
0.000530148
1.4934e-06
0.000102058
0.000235123
0.00035506
0.000433978
0.000481487
0.000505126
0.000513595
0.00051517
0.000516158
0.000523037
0.000539199
0.000565255
0.000600241
0.000643368
0.000694652
0.000754736
0.000838155
0.000933828
0.00103005
0.00111906
0.00120345
0.0012828
0.0013555
0.00142226
0.00148368
0.00154014
0.001592
0.0016396
0.00168336
0.00172379
0.00176136
0.0017965
0.00182958
0.00186091
0.00189075
0.0019193
0.00194668
0.00197301
0.00199834
0.0020227
0.00204611
0.00206855
0.00209002
0.00211048
0.00212992
0.00214829
0.00216556
0.00218172
0.00219674
0.00221061
0.00222334
0.00223493
0.00224541
0.00225478
0.00226306
0.00227028
0.00227644
0.00228157
0.00228567
0.00228877
0.00229082
0.00229173
0.00229182
0.00229095
0.00228907
0.00228624
0.00228246
0.00227778
0.0022722
0.00226575
0.00225846
0.00225037
0.00224149
0.00223185
0.0022215
0.00221046
0.00219876
0.00218642
0.0021735
0.00216
0.00214597
0.00213143
0.00211642
0.00210097
0.00208511
0.00206886
0.00205226
0.00203534
0.00201813
0.00200064
0.00198292
0.00196498
0.00194684
0.00192853
0.00191008
0.0018915
0.00187282
0.00185406
0.00183525
0.0018164
0.00179754
0.00177869
0.00175985
0.00174105
0.0017223
0.00170361
0.001685
0.00166647
0.00164805
0.00162974
0.00161155
0.00159349
0.00157557
0.0015578
0.00154018
0.00152272
0.00150543
0.00148831
0.00147137
0.00145461
0.00143803
0.00142164
0.00140544
0.00138943
0.00137362
0.00135801
0.00134259
0.00132737
0.00131235
0.00129754
0.00128292
0.00126849
0.00125426
0.00124022
0.00122638
0.00121272
0.00119926
0.00118599
0.00117291
0.00116002
0.00114732
0.0011348
0.00112247
0.00111032
0.00109834
0.00108654
0.00107492
0.00106346
0.00105218
0.00104106
0.0010301
0.0010193
0.00100867
0.000998185
0.000987856
0.000977677
0.000967645
0.000957759
0.000948014
0.000938408
0.000928936
0.000919596
0.000910382
0.00090129
0.000892313
0.000883443
0.000874673
0.000865989
0.000857377
0.000848818
0.000840287
0.000831751
0.000823164
0.000814461
0.00080557
0.000796326
0.000786582
0.000776614
0.000756794
2.27165e-06
0.000118202
0.000256369
0.000390153
0.000487243
0.000549162
0.000587027
0.000610492
0.000628251
0.000647576
0.000673719
0.000709331
0.000755148
0.000811443
0.00087862
0.000969123
0.00107426
0.00117598
0.0012752
0.0013707
0.00146141
0.0015474
0.00162865
0.00170511
0.00177707
0.00184489
0.0019089
0.00196945
0.00202687
0.00208148
0.0021336
0.00218353
0.00223151
0.00227775
0.00232242
0.00236564
0.00240748
0.00244802
0.00248728
0.00252527
0.00256198
0.00259739
0.00263149
0.00266422
0.00269556
0.00272547
0.00275389
0.0027808
0.00280616
0.00282993
0.00285208
0.0028726
0.00289147
0.00290868
0.00292421
0.00293808
0.00295028
0.00296082
0.00296971
0.00297697
0.00298263
0.00298671
0.00298914
0.00299004
0.00298957
0.0029876
0.00298426
0.00297956
0.00297356
0.0029663
0.00295786
0.00294826
0.00293758
0.00292585
0.00291313
0.00289947
0.00288491
0.00286949
0.00285327
0.00283628
0.00281856
0.00280017
0.00278114
0.00276151
0.00274132
0.00272061
0.00269942
0.00267779
0.00265576
0.00263336
0.00261063
0.0025876
0.0025643
0.00254077
0.00251704
0.00249313
0.00246907
0.0024449
0.00242064
0.00239632
0.00237196
0.00234758
0.00232322
0.00229888
0.0022746
0.00225038
0.00222625
0.00220222
0.0021783
0.00215452
0.00213088
0.0021074
0.00208408
0.00206095
0.00203801
0.00201526
0.00199272
0.00197039
0.00194828
0.0019264
0.00190474
0.00188333
0.00186215
0.00184121
0.00182053
0.00180009
0.00177989
0.00175996
0.00174027
0.00172083
0.00170165
0.00168272
0.00166404
0.00164561
0.00162743
0.00160948
0.00159178
0.00157433
0.00155712
0.00154015
0.00152341
0.00150692
0.00149066
0.00147462
0.00145882
0.00144324
0.00142789
0.00141275
0.00139783
0.00138312
0.00136862
0.00135432
0.00134023
0.00132633
0.00131264
0.00129913
0.00128581
0.00127268
0.00125973
0.00124696
0.00123436
0.00122194
0.00120967
0.00119757
0.00118563
0.00117382
0.00116216
0.00115063
0.00113921
0.00112789
0.00111665
0.00110546
0.00109429
0.00108308
0.00107178
0.0010603
0.00104848
0.00103626
0.00102409
0.0010016
2.80551e-06
0.00012682
0.00026928
0.000407727
0.000526503
0.00060804
0.000664246
0.000706256
0.000743314
0.000782687
0.000829429
0.000886492
0.0009555
0.00104783
0.00115483
0.00126144
0.00136755
0.00147091
0.00157099
0.00166735
0.00175974
0.00184818
0.00193275
0.0020136
0.00209099
0.00216519
0.00223647
0.0023051
0.00237133
0.00243541
0.00249754
0.00255789
0.00261663
0.00267385
0.00272966
0.00278411
0.00283722
0.00288902
0.0029395
0.00298864
0.00303641
0.00308277
0.00312768
0.00317109
0.00321294
0.00325319
0.00329179
0.00332867
0.00336379
0.00339711
0.00342858
0.00345816
0.00348581
0.00351151
0.00353524
0.00355696
0.00357667
0.00359435
0.00361001
0.00362363
0.00363523
0.00364481
0.00365239
0.003658
0.00366166
0.00366327
0.00366319
0.0036612
0.00365743
0.00365191
0.0036447
0.00363586
0.00362544
0.00361351
0.00360013
0.00358536
0.00356927
0.00355193
0.0035334
0.00351375
0.00349305
0.00347136
0.00344876
0.0034253
0.00340105
0.00337607
0.00335042
0.00332417
0.00329736
0.00327006
0.00324231
0.00321415
0.00318565
0.00315683
0.00312775
0.00309844
0.00306894
0.00303929
0.00300952
0.00297967
0.00294977
0.00291985
0.00288994
0.00286006
0.00283023
0.00280049
0.00277085
0.00274133
0.00271195
0.00268273
0.00265368
0.00262483
0.00259617
0.00256774
0.00253953
0.00251156
0.00248385
0.00245638
0.00242919
0.00240227
0.00237562
0.00234926
0.00232319
0.00229741
0.00227193
0.00224675
0.00222187
0.00219729
0.00217302
0.00214905
0.00212539
0.00210202
0.00207896
0.0020562
0.00203374
0.00201157
0.00198969
0.00196811
0.00194682
0.00192582
0.00190511
0.00188468
0.00186453
0.00184465
0.00182506
0.00180573
0.00178667
0.00176787
0.00174933
0.00173104
0.00171301
0.00169522
0.00167768
0.00166037
0.0016433
0.00162646
0.00160985
0.00159346
0.00157729
0.00156134
0.0015456
0.00153006
0.00151472
0.00149958
0.00148462
0.00146985
0.00145524
0.0014408
0.0014265
0.00141233
0.00139827
0.00138428
0.00137034
0.00135638
0.00134236
0.00132819
0.00131371
0.00129895
0.00128394
0.00125969
2.9424e-06
0.000128735
0.000270668
0.000407307
0.000538109
0.000641779
0.000719044
0.000780497
0.000836302
0.00089416
0.000961766
0.00105373
0.00116337
0.0012851
0.00140068
0.00151196
0.00161979
0.00172437
0.00182562
0.0019235
0.00201799
0.0021092
0.00219725
0.00228235
0.0023647
0.00244454
0.00252208
0.00259753
0.00267109
0.00274294
0.0028132
0.002882
0.00294943
0.00301556
0.00308042
0.00314403
0.00320641
0.00326752
0.00332734
0.00338584
0.00344296
0.00349865
0.00355286
0.00360551
0.00365654
0.00370589
0.00375349
0.00379928
0.00384321
0.0038852
0.0039252
0.00396317
0.00399905
0.00403281
0.0040644
0.0040938
0.00412098
0.00414591
0.00416858
0.00418898
0.00420711
0.00422296
0.00423654
0.00424787
0.00425696
0.00426382
0.00426855
0.004271
0.00427143
0.00426979
0.00426612
0.00426048
0.00425291
0.00424348
0.00423225
0.00421928
0.00420463
0.00418837
0.00417058
0.00415131
0.00413064
0.00410865
0.0040854
0.00406097
0.00403544
0.00400886
0.00398131
0.00395287
0.0039236
0.00389357
0.00386284
0.00383148
0.00379955
0.0037671
0.0037342
0.00370091
0.00366726
0.00363333
0.00359915
0.00356477
0.00353024
0.00349561
0.0034609
0.00342617
0.00339143
0.00335673
0.0033221
0.00328756
0.00325315
0.00321887
0.00318477
0.00315086
0.00311715
0.00308367
0.00305043
0.00301745
0.00298474
0.00295232
0.00292018
0.00288835
0.00285683
0.00282562
0.00279475
0.0027642
0.00273399
0.00270412
0.00267459
0.00264541
0.00261657
0.00258808
0.00255994
0.00253214
0.0025047
0.00247759
0.00245083
0.00242441
0.00239833
0.00237259
0.00234718
0.00232211
0.00229737
0.00227295
0.00224886
0.00222509
0.00220164
0.0021785
0.00215567
0.00213314
0.00211092
0.00208899
0.00206735
0.002046
0.00202493
0.00200414
0.00198363
0.00196338
0.0019434
0.00192368
0.00190422
0.00188501
0.00186605
0.00184732
0.00182884
0.00181058
0.00179254
0.00177472
0.00175711
0.00173968
0.00172243
0.00170534
0.00168839
0.00167154
0.00165476
0.001638
0.00162118
0.00160425
0.00158705
0.00156965
0.00155172
0.00152558
2.75935e-06
0.000125268
0.000264043
0.000395768
0.000520541
0.000633074
0.000727062
0.000808269
0.000891333
0.000986682
0.00109593
0.00122063
0.00135704
0.00148457
0.00160487
0.00171989
0.00183061
0.00193739
0.00204054
0.00214042
0.00223724
0.00233121
0.00242253
0.00251139
0.00259801
0.00268259
0.00276532
0.00284637
0.00292589
0.00300402
0.00308086
0.00315649
0.00323096
0.00330432
0.00337657
0.0034477
0.0035177
0.00358652
0.00365413
0.00372046
0.00378544
0.00384901
0.0039111
0.00397162
0.0040305
0.00408766
0.00414302
0.00419651
0.00424806
0.00429759
0.00434505
0.00439036
0.00443348
0.00447436
0.00451294
0.00454918
0.00458306
0.00461454
0.0046436
0.00467023
0.00469441
0.00471614
0.00473541
0.00475225
0.00476665
0.00477864
0.00478824
0.00479548
0.00480041
0.00480298
0.00480336
0.00480155
0.00479758
0.00479152
0.00478342
0.00477334
0.00476134
0.00474748
0.00473184
0.00471448
0.00469547
0.00467489
0.0046528
0.00462927
0.00460439
0.00457821
0.00455083
0.0045223
0.0044927
0.00446211
0.00443058
0.0043982
0.00436502
0.00433111
0.00429654
0.00426137
0.00422567
0.00418948
0.00415287
0.00411589
0.00407861
0.00404106
0.00400331
0.00396538
0.00392734
0.00388922
0.00385106
0.00381289
0.00377476
0.0037367
0.00369873
0.00366089
0.00362319
0.00358568
0.00354836
0.00351127
0.00347441
0.00343781
0.00340149
0.00336545
0.00332972
0.0032943
0.00325921
0.00322444
0.00319002
0.00315595
0.00312223
0.00308887
0.00305588
0.00302325
0.00299099
0.00295911
0.00292759
0.00289645
0.00286567
0.00283527
0.00280523
0.00277557
0.00274627
0.00271733
0.00268876
0.00266055
0.0026327
0.0026052
0.00257805
0.00255125
0.00252479
0.00249868
0.00247289
0.00244744
0.00242231
0.00239751
0.00237302
0.00234885
0.00232498
0.00230142
0.00227816
0.0022552
0.00223252
0.00221013
0.00218802
0.00216619
0.00214462
0.00212331
0.00210226
0.00208146
0.00206089
0.00204054
0.0020204
0.00200045
0.00198066
0.001961
0.00194143
0.0019219
0.00190235
0.00188269
0.0018628
0.00184274
0.00182199
0.00179367
2.34432e-06
0.000117988
0.000252847
0.000380973
0.000503945
0.000620481
0.000731375
0.00084049
0.000955423
0.00108133
0.00121945
0.00136923
0.00151155
0.00164354
0.00176781
0.00188624
0.00199996
0.00210961
0.00221558
0.00231807
0.00241747
0.00251418
0.00260849
0.00270065
0.00279089
0.00287941
0.00296641
0.00305202
0.0031364
0.00321964
0.00330183
0.00338303
0.00346327
0.00354256
0.00362091
0.00369827
0.00377462
0.0038499
0.00392404
0.00399698
0.00406862
0.00413889
0.0042077
0.00427495
0.00434056
0.00440444
0.00446649
0.00452663
0.00458478
0.00464086
0.0046948
0.00474651
0.00479595
0.00484305
0.00488776
0.00493002
0.00496981
0.00500709
0.00504182
0.00507399
0.00510359
0.00513059
0.00515501
0.00517685
0.00519611
0.00521282
0.00522698
0.00523864
0.00524781
0.00525453
0.00525885
0.00526079
0.00526045
0.00525784
0.00525302
0.00524606
0.005237
0.00522593
0.00521288
0.00519795
0.00518119
0.00516267
0.00514246
0.00512064
0.00509728
0.00507246
0.00504623
0.00501869
0.00498989
0.00495991
0.00492883
0.0048967
0.00486361
0.00482961
0.00479478
0.00475918
0.00472287
0.00468591
0.00464838
0.00461032
0.0045718
0.00453287
0.00449359
0.004454
0.00441416
0.00437411
0.00433391
0.00429358
0.00425317
0.00421273
0.00417228
0.00413186
0.00409151
0.00405125
0.00401111
0.00397113
0.00393132
0.0038917
0.00385231
0.00381315
0.00377425
0.00373562
0.00369728
0.00365925
0.00362152
0.00358412
0.00354706
0.00351034
0.00347397
0.00343795
0.0034023
0.00336701
0.0033321
0.00329755
0.00326339
0.00322959
0.00319617
0.00316313
0.00313047
0.00309818
0.00306627
0.00303474
0.00300358
0.00297279
0.00294237
0.00291231
0.00288262
0.00285329
0.00282431
0.00279569
0.00276741
0.00273948
0.0027119
0.00268465
0.00265773
0.00263114
0.00260488
0.00257893
0.00255331
0.00252799
0.00250298
0.00247827
0.00245386
0.00242974
0.00240589
0.00238232
0.00235901
0.00233595
0.00231312
0.0022905
0.00226807
0.00224579
0.00222362
0.00220151
0.00217939
0.00215719
0.00213479
0.00211222
0.00208891
0.00205825
1.92684e-06
0.000110307
0.000242562
0.000369907
0.000495648
0.00062008
0.000745009
0.000874503
0.00101187
0.00115921
0.00131664
0.00147844
0.00162626
0.00176271
0.00189082
0.00201258
0.00212928
0.00224172
0.00235046
0.00245587
0.00255826
0.00265782
0.002755
0.00285013
0.00294352
0.00303539
0.00312595
0.00321536
0.00330374
0.0033912
0.00347782
0.00356363
0.00364866
0.00373291
0.00381635
0.00389896
0.00398066
0.0040614
0.0041411
0.00421966
0.004297
0.00437301
0.00444759
0.00452065
0.00459207
0.00466176
0.00472961
0.00479554
0.00485944
0.00492123
0.00498082
0.00503815
0.00509312
0.00514569
0.00519579
0.00524337
0.00528839
0.0053308
0.00537058
0.00540769
0.00544213
0.00547388
0.00550293
0.00552929
0.00555297
0.00557397
0.00559232
0.00560804
0.00562116
0.00563172
0.00563975
0.00564529
0.0056484
0.00564912
0.00564752
0.00564364
0.00563755
0.0056293
0.00561896
0.0056066
0.00559227
0.00557606
0.00555803
0.00553825
0.00551679
0.00549373
0.00546914
0.00544309
0.00541565
0.0053869
0.0053569
0.00532573
0.00529345
0.00526014
0.00522585
0.00519066
0.00515462
0.00511782
0.0050803
0.00504213
0.00500337
0.00496407
0.0049243
0.00488411
0.00484354
0.00480265
0.00476149
0.00472009
0.00467852
0.0046368
0.00459498
0.00455309
0.00451118
0.00446927
0.00442741
0.00438561
0.00434391
0.00430233
0.00426091
0.00421966
0.0041786
0.00413776
0.00409715
0.0040568
0.00401671
0.00397691
0.0039374
0.00389819
0.0038593
0.00382074
0.00378252
0.00374463
0.0037071
0.00366992
0.00363309
0.00359663
0.00356053
0.0035248
0.00348944
0.00345445
0.00341983
0.00338559
0.00335171
0.00331821
0.00328508
0.00325232
0.00321992
0.0031879
0.00315623
0.00312493
0.00309398
0.00306339
0.00303315
0.00300326
0.00297372
0.00294452
0.00291566
0.00288713
0.00285894
0.00283107
0.00280353
0.0027763
0.00274939
0.00272278
0.00269648
0.00267046
0.00264472
0.00261926
0.00259404
0.00256905
0.00254427
0.00251966
0.00249518
0.00247078
0.00244639
0.00242194
0.00239732
0.00237252
0.00234701
0.00231419
1.54345e-06
0.000102166
0.000232071
0.000359052
0.000487719
0.000618988
0.000755522
0.000899236
0.00105186
0.00121393
0.00138595
0.00155193
0.00170372
0.00184404
0.00197565
0.00210054
0.00222004
0.00233509
0.00244636
0.00255434
0.00265942
0.0027619
0.00286204
0.00296005
0.00305633
0.00315119
0.00324486
0.00333753
0.00342933
0.00352038
0.00361075
0.00370047
0.00378957
0.00387804
0.00396583
0.00405291
0.0041392
0.00422462
0.00430909
0.0043925
0.00447475
0.00455572
0.00463531
0.0047134
0.00478987
0.00486461
0.00493752
0.00500849
0.00507742
0.00514421
0.00520877
0.00527101
0.00533087
0.00538826
0.00544313
0.00549542
0.00554507
0.00559206
0.00563633
0.00567788
0.00571666
0.00575268
0.00578592
0.00581638
0.00584407
0.00586901
0.0058912
0.00591068
0.00592747
0.00594161
0.00595312
0.00596206
0.00596847
0.00597239
0.00597388
0.00597301
0.00596984
0.00596441
0.00595679
0.00594704
0.00593523
0.00592143
0.00590571
0.00588813
0.00586878
0.00584772
0.00582502
0.00580077
0.00577502
0.00574785
0.00571933
0.00568952
0.00565851
0.00562635
0.00559311
0.00555886
0.00552367
0.00548759
0.0054507
0.00541305
0.00537471
0.00533573
0.00529617
0.00525609
0.00521553
0.00517455
0.0051332
0.00509153
0.00504958
0.0050074
0.00496502
0.00492249
0.00487985
0.00483713
0.00479438
0.00475161
0.00470886
0.00466617
0.00462355
0.00458104
0.00453866
0.00449644
0.00445439
0.00441254
0.00437089
0.00432948
0.00428832
0.00424741
0.00420678
0.00416644
0.00412639