/*--------------------------------*- C++ -*----------------------------------*\
| =========                 |                                                 |
| \\      /  F ield         | OpenFOAM: The Open Source CFD Toolbox           |
|  \\    /   O peration     | Version:  v2012                                 |
|   \\  /    A nd           | Website:  www.openfoam.com                      |
|    \\/     M anipulation  |                                                 |
\*---------------------------------------------------------------------------*/
FoamFile
{
    version     2.0;
    format      ascii;
    class       volScalarField;
    location    "1700";
    object      nuTilda;
}
// * * * * * * * * * * * * * * * * * * * * * * * * * * * * * * * * * * * * * //

dimensions      [0 2 -1 0 0 0 0];


internalField   nonuniform List<scalar> 
12225
(
0.0122671
0.00158833
0.000666932
0.0004122
0.000298016
0.000234158
0.000195366
0.000157553
0.000177051
0.000222669
0.000230377
0.000221268
0.000203464
0.00017814
0.000172632
0.000158592
0.000147182
0.000136903
0.0323823
0.00744532
0.00330641
0.00204337
0.00146819
0.00114457
0.000939066
0.000785443
0.000691119
0.000627791
0.000570644
0.000520038
0.000476788
0.000437436
0.000407129
0.000374787
0.000350019
0.000324469
0.0490123
0.01515
0.00728196
0.00457856
0.00330642
0.00258052
0.00211335
0.00178198
0.00154689
0.00137268
0.0012317
0.00111558
0.0010187
0.00093652
0.000867177
0.000804852
0.000754198
0.000701734
0.063054
0.0237783
0.0122894
0.00788815
0.00573398
0.00448498
0.00367443
0.00310422
0.0026872
0.00237002
0.00211799
0.00191325
0.00174414
0.00160237
0.0014826
0.0013788
0.00129129
0.00120478
0.074932
0.0328517
0.0181452
0.0119262
0.00874549
0.00686413
0.00563087
0.0047613
0.0041187
0.00362573
0.00323519
0.00291879
0.00265805
0.00244011
0.00225604
0.00209841
0.00196344
0.00183991
0.0849536
0.0420208
0.0246655
0.0166359
0.0123325
0.00972587
0.00799541
0.0067674
0.00585404
0.00515005
0.00459192
0.00413985
0.00376745
0.00345638
0.00319356
0.00296911
0.00277617
0.00260662
0.0933822
0.0510219
0.0316642
0.0219415
0.016474
0.0130717
0.0107779
0.00913539
0.00790598
0.00695437
0.00619833
0.00558533
0.00508011
0.00465804
0.00430139
0.00399705
0.00373537
0.00350916
0.0993794
0.0583363
0.0378386
0.0268568
0.0204171
0.0163053
0.0134892
0.011453
0.00991905
0.00872671
0.00777697
0.0070057
0.00636944
0.00583764
0.00538817
0.0050047
0.00467517
0.00439184
0.104023
0.0645454
0.0433804
0.0314239
0.0241571
0.0194092
0.0161097
0.0137018
0.0118767
0.0104523
0.00931473
0.0083894
0.00762525
0.00698616
0.00644587
0.00598492
0.005589
0.00524917
0.108368
0.0708939
0.0493757
0.0365496
0.0284517
0.0230231
0.0191863
0.0163548
0.0141927
0.0124969
0.0111382
0.0100306
0.00911457
0.00834785
0.00769937
0.00714608
0.00667098
0.00626329
0.112368
0.0772557
0.0557282
0.0421918
0.0332976
0.0271652
0.0227468
0.0194433
0.0168984
0.0148904
0.013275
0.0119546
0.0108607
0.00994397
0.00916816
0.00850608
0.0079376
0.0074494
0.115994
0.0834975
0.0623054
0.0482612
0.0386474
0.0318167
0.026789
0.0229739
0.0200047
0.0176453
0.0157379
0.0141737
0.012875
0.0117851
0.010862
0.0100738
0.0093969
0.00881485
0.119234
0.0894856
0.0689377
0.0546109
0.0443919
0.0369007
0.0312597
0.0269089
0.0234837
0.02074
0.0185097
0.0166735
0.015145
0.0138601
0.0127706
0.0118397
0.0110399
0.010351
0.122086
0.095084
0.075415
0.0610223
0.0503361
0.0422535
0.0360231
0.0311353
0.0272402
0.0240931
0.0215191
0.0193909
0.0176141
0.0161175
0.0148467
0.0137601
0.0128258
0.0120198
0.124546
0.100135
0.0814619
0.0671726
0.056158
0.047577
0.0408126
0.0354174
0.031066
0.0275197
0.0246013
0.0221778
0.0201482
0.018435
0.0169783
0.0157315
0.0146584
0.0137312
0.126578
0.104396
0.0866605
0.0725515
0.0613228
0.0523526
0.0451453
0.0393148
0.0345631
0.0306611
0.0274325
0.024741
0.0224806
0.020569
0.0189413
0.0175468
0.0163455
0.0153062
0.128011
0.107322
0.0902141
0.0762353
0.0648743
0.0556509
0.0481493
0.0420254
0.0370012
0.0328553
0.0294126
0.0265352
0.0241143
0.0220643
0.0203171
0.0188191
0.0175275
0.0164083
0.128006
0.107313
0.0902048
0.0762269
0.0648674
0.0556454
0.048145
0.0420221
0.0369988
0.0328537
0.0294117
0.0265349
0.0241147
0.0220651
0.0203184
0.0188205
0.0175286
0.0164082
0.126509
0.104255
0.0864922
0.0723807
0.0611613
0.052205
0.0450128
0.0391967
0.0344584
0.0305685
0.0273506
0.0246684
0.0224163
0.0205118
0.0188902
0.0175006
0.0163023
0.015263
0.124267
0.0995604
0.0807712
0.0664676
0.0554886
0.0469631
0.0402594
0.0349228
0.0306248
0.0271258
0.0242487
0.0218611
0.0198625
0.0181762
0.0167425
0.0155151
0.0144574
0.0135404
0.12136
0.0936399
0.0737261
0.0593348
0.0487592
0.0408248
0.0347467
0.0300003
0.0262308
0.0231928
0.0207127
0.018665
0.0169572
0.0155197
0.0142998
0.0132566
0.0123582
0.0115797
0.117686
0.0865903
0.0656967
0.0514791
0.0415374
0.0343608
0.0290183
0.0249322
0.0217348
0.0191848
0.0171184
0.0154211
0.0140105
0.0128263
0.0118228
0.0109656
0.0102279
0.00958885
0.11305
0.0784122
0.056921
0.0432687
0.0342296
0.0279652
0.0234365
0.0200435
0.0174263
0.0153598
0.0136967
0.012337
0.0112107
0.0102671
0.00946865
0.00878716
0.00820096
0.00769339
0.107169
0.0691009
0.0476371
0.035029
0.0271566
0.021922
0.0182437
0.0155401
0.0134818
0.0118708
0.0105819
0.00953233
0.00866517
0.0079399
0.00732686
0.0068039
0.00635418
0.00596494
0.0996761
0.0587036
0.0381279
0.0270699
0.0205782
0.0164329
0.0135949
0.0115437
0.00999935
0.00879954
0.00784425
0.00706857
0.00642885
0.00589444
0.00544294
0.00505793
0.00472683
0.00444036
0.0901097
0.0473665
0.0287363
0.0196847
0.0146976
0.0116311
0.0095785
0.0081152
0.00702351
0.00618082
0.00551238
0.0049703
0.0045235
0.00415048
0.00383513
0.00356634
0.00333504
0.00313491
0.0779076
0.0353826
0.0198606
0.0131383
0.00966106
0.00759296
0.00623349
0.00527411
0.00456426
0.0040204
0.00359047
0.00324091
0.00295216
0.00271115
0.00250636
0.00233226
0.00218207
0.00205174
0.06238
0.0232554
0.0119461
0.00765493
0.00556338
0.00435255
0.00356722
0.00301618
0.00261335
0.0023104
0.00207212
0.00187487
0.0017103
0.0015731
0.00145379
0.00135353
0.00126605
0.00118898
0.0426105
0.0117794
0.00546931
0.00341388
0.00246076
0.00192014
0.0015728
0.00132961
0.00115855
0.00104153
0.000949971
0.000865478
0.000792726
0.000730751
0.000672617
0.000623669
0.000579008
0.000543393
0.0168348
0.0025599
0.00110031
0.000684193
0.00049518
0.000389159
0.000321435
0.000273104
0.000272212
0.000339035
0.000377279
0.00035636
0.000325303
0.000288859
0.000270248
0.000245127
0.000203669
0.00024352
3.70935e-06
1.3833e-05
2.56086e-05
3.82432e-05
4.60358e-05
4.98328e-05
5.02186e-05
4.77936e-05
4.45852e-05
3.94368e-05
3.40916e-05
2.93633e-05
2.67546e-05
2.73239e-05
2.96433e-05
3.13368e-05
3.11084e-05
2.8078e-05
2.28035e-05
1.91786e-05
1.96914e-05
2.60201e-05
3.89538e-05
6.51325e-05
8.76079e-05
0.000101027
0.00011366
0.000124628
0.000134556
0.000143025
0.000150581
0.000157173
0.00016301
0.000168143
0.000172658
0.00017667
0.000180245
0.000183454
0.000186343
0.000188947
0.00019129
0.000193391
0.000195264
0.000196922
0.000198379
0.000199643
0.000200725
0.000201629
0.000202354
0.000202895
0.000203139
0.000203371
0.000203415
0.000203297
0.000203019
0.000202604
0.000202047
0.000201353
0.000200524
0.000199562
0.000198469
0.000197247
0.000195899
0.000194429
0.000192838
0.00019113
0.000189306
0.00018737
0.000185324
0.000183172
0.000180916
0.000178561
0.000176107
0.00017356
0.00017092
0.000168191
0.000165375
0.000162475
0.000159492
0.000156428
0.000153282
0.000150054
0.00014674
0.000143338
0.000139841
0.000136245
0.000132542
0.000128727
0.000124789
0.000120717
0.000116495
0.000112109
0.000107559
0.0001029
9.83381e-05
9.43691e-05
9.15657e-05
8.9821e-05
8.85101e-05
8.73061e-05
8.6123e-05
8.49443e-05
8.37685e-05
8.25963e-05
8.14284e-05
8.02659e-05
7.91101e-05
7.79653e-05
7.68529e-05
7.59012e-05
7.49671e-05
7.40394e-05
7.31196e-05
7.22081e-05
7.13052e-05
7.04113e-05
6.95267e-05
6.86518e-05
6.77869e-05
6.69321e-05
6.60876e-05
6.52536e-05
6.44305e-05
6.36187e-05
6.28182e-05
6.20288e-05
6.12517e-05
6.05145e-05
5.98373e-05
5.91688e-05
5.85053e-05
5.78557e-05
5.72241e-05
5.65969e-05
5.59748e-05
5.53608e-05
5.47558e-05
5.41605e-05
5.35748e-05
5.29989e-05
5.24324e-05
5.18754e-05
5.13275e-05
5.07888e-05
5.02589e-05
4.9738e-05
4.92256e-05
4.87218e-05
4.82265e-05
4.77396e-05
4.72611e-05
4.6791e-05
4.63292e-05
4.58758e-05
4.54306e-05
4.49938e-05
4.45653e-05
4.41452e-05
4.37338e-05
4.33311e-05
4.29373e-05
4.25527e-05
4.21774e-05
4.18118e-05
4.1456e-05
4.11101e-05
4.07741e-05
4.04478e-05
4.01307e-05
3.9822e-05
3.95203e-05
3.92239e-05
3.8929e-05
3.86356e-05
3.83245e-05
3.80273e-05
3.75982e-05
3.72921e-05
3.63609e-05
3.48414e-05
5.8816e-06
3.9943e-05
9.08988e-05
0.000151921
0.000191201
0.000213569
0.000222526
0.000221115
0.000213153
0.000197499
0.000178402
0.000160503
0.000151701
0.00015644
0.000168621
0.000176145
0.000178042
0.000178818
0.000183777
0.000192704
0.000207731
0.000224916
0.000241156
0.000256463
0.000267363
0.000276827
0.000285406
0.000298224
0.000316677
0.000330301
0.000342747
0.000353454
0.000363207
0.000372137
0.000379909
0.000387011
0.000393633
0.000399992
0.000406216
0.000412369
0.000418444
0.0004244
0.000430183
0.000435753
0.000441082
0.000446153
0.000450951
0.000455463
0.00045969
0.00046364
0.000467319
0.000470749
0.00047392
0.000476841
0.000479514
0.000481939
0.000484117
0.00048605
0.000487736
0.000489177
0.000490373
0.000491326
0.000492037
0.00049251
0.000492756
0.00049278
0.000492576
0.000492141
0.000491492
0.00049063
0.000489564
0.000488299
0.000486842
0.0004852
0.00048338
0.000481389
0.000479235
0.000476926
0.000474469
0.000471871
0.000469141
0.000466286
0.000463314
0.000460231
0.000457046
0.000453766
0.0004504
0.000446958
0.000443446
0.000439874
0.000436249
0.000432576
0.000428855
0.000425077
0.000421225
0.000417272
0.000413201
0.000409043
0.000404846
0.000400635
0.000396418
0.000392197
0.000387978
0.000383763
0.000379555
0.000375359
0.000371176
0.00036701
0.00036286
0.000358723
0.000354612
0.00035053
0.000346478
0.00034246
0.000338477
0.000334529
0.00033062
0.000326749
0.00032292
0.000319133
0.000315388
0.000311686
0.00030803
0.000304419
0.000300856
0.000297338
0.000293867
0.000290441
0.000287058
0.000283723
0.000280432
0.000277195
0.000274013
0.000270868
0.000267761
0.000264698
0.000261681
0.000258711
0.000255788
0.000252912
0.000250082
0.000247297
0.000244558
0.000241863
0.000239212
0.000236604
0.000234038
0.000231514
0.000229031
0.00022659
0.00022419
0.00022183
0.000219511
0.000217233
0.000214994
0.000212797
0.00021064
0.000208524
0.00020645
0.000204419
0.000202432
0.00020049
0.000198594
0.000196747
0.000194949
0.000193202
0.000191507
0.000189863
0.00018827
0.000186727
0.000185229
0.000183775
0.000182346
0.000180972
0.000179531
0.000178315
0.000176479
0.00017594
0.000173174
0.000171879
1.28751e-05
7.44292e-05
0.000173973
0.000251166
0.00030274
0.000332291
0.000342986
0.000340025
0.000327272
0.000308341
0.00028914
0.000277103
0.000275212
0.000281971
0.000292214
0.000302969
0.000315727
0.000332541
0.000353821
0.000378823
0.000405936
0.000433883
0.000472867
0.000518775
0.000564167
0.000608087
0.00065102
0.000694562
0.000733549
0.000764571
0.00078937
0.000809037
0.000824632
0.000837013
0.000846956
0.000855232
0.000862536
0.00086951
0.000876685
0.000884412
0.000892795
0.000901709
0.000910916
0.00092018
0.000929324
0.00093823
0.000946822
0.000955052
0.000962883
0.00097029
0.000977243
0.000983724
0.00098972
0.000995229
0.00100025
0.00100478
0.00100881
0.00101236
0.00101541
0.00101797
0.00102003
0.00102161
0.00102269
0.00102323
0.00102338
0.0010231
0.00102231
0.00102106
0.00101937
0.00101726
0.00101472
0.00101178
0.00100844
0.00100473
0.00100065
0.00099622
0.000991456
0.000986371
0.000980982
0.000975302
0.000969346
0.000963131
0.00095667
0.00094998
0.000943074
0.000935968
0.000928676
0.000921212
0.000913592
0.000905828
0.000897931
0.000889915
0.000881787
0.000873556
0.00086523
0.000856819
0.000848336
0.000839795
0.000831214
0.000822605
0.00081398
0.000805347
0.000796715
0.00078809
0.00077948
0.000770893
0.000762334
0.000753809
0.000745324
0.000736885
0.000728497
0.000720166
0.000711896
0.000703691
0.000695555
0.000687491
0.000679502
0.000671592
0.000663762
0.000656015
0.000648354
0.000640779
0.000633293
0.000625898
0.000618595
0.000611385
0.000604266
0.000597242
0.000590311
0.000583475
0.000576734
0.000570089
0.000563537
0.000557072
0.000550695
0.000544408
0.000538212
0.000532108
0.000526096
0.000520176
0.000514347
0.000508608
0.000502958
0.000497396
0.00049192
0.00048653
0.000481224
0.000476
0.000470859
0.000465798
0.000460817
0.000455915
0.000451091
0.000446343
0.000441671
0.000437073
0.000432549
0.000428096
0.000423714
0.000419402
0.000415158
0.00041098
0.000406866
0.000402815
0.000398823
0.000394888
0.000391005
0.000387169
0.000383373
0.00037961
0.000375867
0.00037213
0.000368374
0.000364588
0.000360675
0.000356729
0.000352267
0.000348085
0.000341625
0.000330134
2.18264e-05
0.000106501
0.000220157
0.000312458
0.0003748
0.000411456
0.0004266
0.000426815
0.000416814
0.000403623
0.000395873
0.00039531
0.000404802
0.000422122
0.000444913
0.000472691
0.000506046
0.000545261
0.00058951
0.000653105
0.000727047
0.000806877
0.000890653
0.000960853
0.00102297
0.00107884
0.00112902
0.00117371
0.00121278
0.00124649
0.0012756
0.00130083
0.00132287
0.00134235
0.00135984
0.00137583
0.00139074
0.00140489
0.00141854
0.00143189
0.00144505
0.00145809
0.00147105
0.0014839
0.00149659
0.00150904
0.00152117
0.00153286
0.00154405
0.00155464
0.00156459
0.00157386
0.00158243
0.00159028
0.00159742
0.00160382
0.00160949
0.00161442
0.00161862
0.00162208
0.0016248
0.00162678
0.00162793
0.00162837
0.00162824
0.00162733
0.0016257
0.00162338
0.00162038
0.00161672
0.00161242
0.0016075
0.00160198
0.00159588
0.00158922
0.00158203
0.00157432
0.00156612
0.00155746
0.00154835
0.00153882
0.00152889
0.00151859
0.00150794
0.00149695
0.00148566
0.00147409
0.00146226
0.00145018
0.00143788
0.00142539
0.00141271
0.00139986
0.00138686
0.00137373
0.00136049
0.00134714
0.00133371
0.00132023
0.0013067
0.00129315
0.00127958
0.00126601
0.00125246
0.00123893
0.00122543
0.00121198
0.00119859
0.00118525
0.00117199
0.00115881
0.00114572
0.00113272
0.00111982
0.00110703
0.00109435
0.00108178
0.00106934
0.00105703
0.00104484
0.00103278
0.00102086
0.00100907
0.000997424
0.000985919
0.000974557
0.000963338
0.000952264
0.000941335
0.000930552
0.000919916
0.000909426
0.00089908
0.000888873
0.000878804
0.000868875
0.000859088
0.000849441
0.000839937
0.000830573
0.000821349
0.000812263
0.000803314
0.0007945
0.000785819
0.00077727
0.000768851
0.000760558
0.000752393
0.000744351
0.000736432
0.000728634
0.000720956
0.000713394
0.000705948
0.000698615
0.000691394
0.000684283
0.000677279
0.00067038
0.000663584
0.000656888
0.000650289
0.000643784
0.000637368
0.000631036
0.000624783
0.0006186
0.000612479
0.000606407
0.000600368
0.000594341
0.000588295
0.000582197
0.000575973
0.000569598
0.000562794
0.000555821
0.000547394
0.000531216
2.69603e-05
0.000121961
0.000240938
0.00035744
0.00043517
0.000482044
0.00050534
0.000513699
0.000515325
0.000516542
0.000523757
0.00054025
0.000566606
0.000601848
0.000645225
0.000696784
0.000757333
0.000841111
0.000937084
0.00103277
0.00112148
0.00120561
0.00128466
0.00135708
0.0014236
0.0014848
0.00154108
0.00159276
0.00164021
0.00168385
0.00172418
0.00176166
0.00179672
0.00182974
0.00186103
0.00189084
0.00191935
0.00194672
0.00197302
0.00199833
0.00202268
0.00204607
0.00206851
0.00208996
0.00211042
0.00212984
0.00214821
0.00216548
0.00218163
0.00219665
0.00221051
0.00222324
0.00223483
0.0022453
0.00225466
0.00226294
0.00227016
0.00227632
0.00228144
0.00228555
0.00228864
0.00229069
0.0022916
0.00229169
0.00229081
0.00228893
0.00228609
0.00228232
0.00227763
0.00227205
0.0022656
0.00225831
0.00225021
0.00224133
0.0022317
0.00222134
0.0022103
0.0021986
0.00218626
0.00217333
0.00215984
0.0021458
0.00213127
0.00211626
0.00210081
0.00208494
0.0020687
0.0020521
0.00203518
0.00201796
0.00200048
0.00198276
0.00196482
0.00194668
0.00192837
0.00190992
0.00189134
0.00187267
0.00185391
0.0018351
0.00181626
0.00179741
0.00177855
0.00175972
0.00174092
0.00172218
0.00170349
0.00168489
0.00166637
0.00164795
0.00162965
0.00161146
0.00159341
0.00157549
0.00155772
0.00154011
0.00152266
0.00150537
0.00148825
0.00147131
0.00145455
0.00143798
0.00142159
0.0014054
0.00138939
0.00137358
0.00135797
0.00134256
0.00132734
0.00131233
0.00129751
0.0012829
0.00126847
0.00125425
0.00124021
0.00122637
0.00121272
0.00119926
0.001186
0.00117293
0.00116004
0.00114735
0.00113484
0.00112251
0.00111037
0.0010984
0.00108662
0.001075
0.00106356
0.00105228
0.00104117
0.00103023
0.00101944
0.00100882
0.000998351
0.000988035
0.00097787
0.000967853
0.00095798
0.00094825
0.000938658
0.0009292
0.000919874
0.000910674
0.000901596
0.000892632
0.000883776
0.000875018
0.000866347
0.000857748
0.000849203
0.000840685
0.000832161
0.000823589
0.000814898
0.000806028
0.000796774
0.000787173
0.000777018
0.000757273
3.08042e-05
0.000135306
0.000261394
0.000392184
0.000488187
0.000549576
0.000587182
0.000610595
0.000628476
0.000648059
0.000674534
0.000710491
0.000756635
0.000813242
0.000880861
0.000971696
0.00107703
0.00117863
0.00127768
0.00137292
0.00146337
0.00154913
0.00163015
0.00170639
0.00177816
0.00184581
0.00190967
0.00197008
0.00202737
0.00208187
0.00213391
0.00218375
0.00223167
0.00227785
0.00232247
0.00236564
0.00240745
0.00244796
0.00248719
0.00252515
0.00256184
0.00259723
0.00263131
0.00266403
0.00269536
0.00272525
0.00275367
0.00278057
0.00280592
0.00282968
0.00285184
0.00287235
0.00289122
0.00290842
0.00292395
0.00293782
0.00295002
0.00296056
0.00296945
0.00297671
0.00298237
0.00298645
0.00298888
0.00298978
0.00298931
0.00298734
0.002984
0.00297929
0.00297329
0.00296604
0.00295759
0.00294799
0.00293731
0.00292558
0.00291286
0.00289919
0.00288463
0.00286921
0.00285298
0.00283599
0.00281828
0.00279988
0.00278085
0.00276122
0.00274102
0.00272032
0.00269913
0.0026775
0.00265547
0.00263307
0.00261033
0.00258731
0.00256401
0.00254048
0.00251675
0.00249284
0.00246879
0.00244462
0.00242036
0.00239604
0.00237168
0.00234731
0.00232295
0.00229862
0.00227433
0.00225012
0.00222599
0.00220197
0.00217806
0.00215428
0.00213064
0.00210717
0.00208386
0.00206073
0.00203778
0.00201504
0.0019925
0.00197017
0.00194807
0.00192619
0.00190454
0.00188312
0.00186194
0.00184101
0.00182032
0.00179988
0.00177969
0.00175975
0.00174006
0.00172063
0.00170145
0.00168252
0.00166384
0.00164541
0.00162722
0.00160928
0.00159159
0.00157413
0.00155692
0.00153996
0.00152323
0.00150674
0.00149048
0.00147446
0.00145867
0.0014431
0.00142775
0.00141262
0.00139771
0.00138301
0.00136852
0.00135423
0.00134015
0.00132627
0.00131259
0.00129909
0.00128579
0.00127267
0.00125973
0.00124697
0.00123439
0.00122197
0.00120972
0.00119763
0.0011857
0.00117391
0.00116226
0.00115073
0.00113933
0.00112802
0.00111679
0.00110561
0.00109444
0.00108324
0.00107195
0.00106048
0.00104867
0.00103652
0.00102424
0.00100181
3.23463e-05
0.000142475
0.000273856
0.000409588
0.000527333
0.000608414
0.000664432
0.000706447
0.000743665
0.000783311
0.000830396
0.000887824
0.000957321
0.00105001
0.00115724
0.00126383
0.00136986
0.00147309
0.00157298
0.00166914
0.00176133
0.00184958
0.00193396
0.00201464
0.00209187
0.00216592
0.00223707
0.00230558
0.00237171
0.00243569
0.00249773
0.00255801
0.00261668
0.00267385
0.0027296
0.002784
0.00283708
0.00288884
0.00293928
0.00298839
0.00303613
0.00308247
0.00312736
0.00317075
0.00321259
0.00325283
0.00329141
0.00332828
0.0033634
0.00339671
0.00342817
0.00345774
0.00348539
0.00351109
0.00353481
0.00355653
0.00357624
0.00359392
0.00360958
0.0036232
0.0036348
0.00364438
0.00365196
0.00365758
0.00366123
0.00366285
0.00366277
0.00366078
0.003657
0.00365149
0.00364428
0.00363544
0.00362502
0.00361309
0.00359971
0.00358494
0.00356885
0.00355151
0.00353298
0.00351333
0.00349263
0.00347094
0.00344833
0.00342488
0.00340063
0.00337565
0.00335
0.00332375
0.00329694
0.00326964
0.00324189
0.00321373
0.00318523
0.00315641
0.00312733
0.00309803
0.00306853
0.00303888
0.00300912
0.00297927
0.00294937
0.00291946
0.00288954
0.00285967
0.00282985
0.00280011
0.00277047
0.00274095
0.00271158
0.00268236
0.00265332
0.00262447
0.00259582
0.00256739
0.00253918
0.00251122
0.0024835
0.00245604
0.00242885
0.00240193
0.00237528
0.00234892
0.00232285
0.00229708
0.00227159
0.00224641
0.00222153
0.00219695
0.00217267
0.0021487
0.00212504
0.00210167
0.00207861
0.00205585
0.00203338
0.00201122
0.00198934
0.00196776
0.00194648
0.00192548
0.00190477
0.00188434
0.0018642
0.00184434
0.00182475
0.00180543
0.00178638
0.00176759
0.00174906
0.00173078
0.00171276
0.00169498
0.00167745
0.00166016
0.0016431
0.00162628
0.00160968
0.00159331
0.00157715
0.00156121
0.00154548
0.00152995
0.00151463
0.0014995
0.00148455
0.00146979
0.00145519
0.00144076
0.00142647
0.00141231
0.00139825
0.00138427
0.00137034
0.00135639
0.00134238
0.00132821
0.00131374
0.00129901
0.00128397
0.00125974
3.27874e-05
0.000144066
0.000275141
0.000409105
0.00053881
0.000642026
0.000719154
0.000780642
0.000836627
0.000894805
0.000963177
0.00105573
0.00116583
0.00128732
0.00140279
0.00151396
0.00162168
0.00172611
0.00182721
0.00192492
0.00201925
0.00211029
0.00219819
0.00228314
0.00236536
0.00244507
0.00252249
0.00259785
0.00267131
0.00274307
0.00281325
0.00288198
0.00294934
0.00301541
0.00308022
0.00314379
0.00320611
0.00326719
0.00332698
0.00338544
0.00344253
0.0034982
0.00355238
0.00360501
0.00365602
0.00370536
0.00375295
0.00379873
0.00384264
0.00388462
0.00392462
0.00396258
0.00399845
0.00403221
0.0040638
0.00409319
0.00412037
0.0041453
0.00416797
0.00418837
0.0042065
0.00422235
0.00423593
0.00424726
0.00425635
0.00426322
0.00426794
0.0042704
0.00427083
0.00426919
0.00426552
0.00425988
0.00425232
0.00424289
0.00423166
0.00421869
0.00420404
0.00418778
0.00416999
0.00415072
0.00413006
0.00410807
0.00408482
0.00406039
0.00403486
0.00400828
0.00398074
0.0039523
0.00392303
0.003893
0.00386227
0.00383091
0.00379898
0.00376654
0.00373365
0.00370035
0.00366671
0.00363278
0.0035986
0.00356423
0.00352971
0.00349508
0.00346038
0.00342564
0.00339091
0.00335622
0.00332159
0.00328706
0.00325265
0.00321838
0.00318428
0.00315037
0.00311667
0.0030832
0.00304996
0.00301698
0.00298428
0.00295185
0.00291972
0.00288788
0.00285636
0.00282516
0.00279428
0.00276373
0.00273352
0.00270365
0.00267412
0.00264493
0.00261609
0.0025876
0.00255946
0.00253166
0.00250421
0.00247711
0.00245035
0.00242393
0.00239785
0.00237211
0.0023467
0.00232163
0.0022969
0.00227249
0.00224841
0.00222465
0.00220121
0.00217808
0.00215526
0.00213274
0.00211053
0.00208861
0.00206699
0.00204565
0.0020246
0.00200382
0.00198332
0.00196309
0.00194312
0.00192342
0.00190397
0.00188477
0.00186582
0.00184711
0.00182864
0.00181039
0.00179237
0.00177456
0.00175695
0.00173953
0.00172229
0.00170521
0.00168826
0.00167142
0.00165465
0.00163789
0.00162109
0.00160417
0.00158697
0.00156958
0.00155164
0.0015255
3.22247e-05
0.000141103
0.000268669
0.000397584
0.000521181
0.000633037
0.000726761
0.00080812
0.000891942
0.000987787
0.00109753
0.0012226
0.00135904
0.00148642
0.0016066
0.00172151
0.00183211
0.00193875
0.00204176
0.0021415
0.00223819
0.00233202
0.0024232
0.00251194
0.00259844
0.00268291
0.00276554
0.00284649
0.00292593
0.00300397
0.00308074
0.0031563
0.00323071
0.00330401
0.00337621
0.00344729
0.00351725
0.00358603
0.0036536
0.00371989
0.00378485
0.00384839
0.00391046
0.00397096
0.00402982
0.00408696
0.00414231
0.00419578
0.00424732
0.00429684
0.00434429
0.0043896
0.00443271
0.00447358
0.00451216
0.0045484
0.00458227
0.00461375
0.00464281
0.00466944
0.00469362
0.00471535
0.00473462
0.00475146
0.00476586
0.00477785
0.00478746
0.00479469
0.00479963
0.00480219
0.00480258
0.00480077
0.00479681
0.00479075
0.00478265
0.00477256
0.00476057
0.00474671
0.00473108
0.00471372
0.00469471
0.00467413
0.00465204
0.00462852
0.00460363
0.00457746
0.00455008
0.00452156
0.00449196
0.00446137
0.00442985
0.00439747
0.00436429
0.00433039
0.00429583
0.00426066
0.00422496
0.00418877
0.00415217
0.0041152
0.00407792
0.00404038
0.00400263
0.00396471
0.00392668
0.00388856
0.00385041
0.00381225
0.00377412
0.00373606
0.0036981
0.00366026
0.00362258
0.00358507
0.00354775
0.00351066
0.00347381
0.00343722
0.00340089
0.00336486
0.00332913
0.00329371
0.00325861
0.00322385
0.00318943
0.00315535
0.00312164
0.00308828
0.00305528
0.00302265
0.00299039
0.0029585
0.00292699
0.00289584
0.00286507
0.00283466
0.00280463
0.00277497
0.00274567
0.00271674
0.00268818
0.00265998
0.00263213
0.00260465
0.00257751
0.00255072
0.00252427
0.00249817
0.0024724
0.00244696
0.00242185
0.00239706
0.00237259
0.00234843
0.00232458
0.00230104
0.00227779
0.00225484
0.00223218
0.0022098
0.00218771
0.00216588
0.00214433
0.00212304
0.002102
0.0020812
0.00206064
0.0020403
0.00202017
0.00200023
0.00198044
0.00196079
0.00194123
0.00192171
0.00190216
0.00188251
0.00186263
0.00184257
0.00182182
0.0017935
3.08505e-05
0.000135009
0.000257903
0.000383069
0.000504921
0.000620952
0.000731684
0.000841003
0.00095629
0.00108257
0.00122099
0.001371
0.00151317
0.00164502
0.00176916
0.00188748
0.00200109
0.00211062
0.00221646
0.00231883
0.00241812
0.0025147
0.00260889
0.00270094
0.00279108
0.00287951
0.00296641
0.00305194
0.00313623
0.0032194
0.00330152
0.00338265
0.00346284
0.00354208
0.00362037
0.00369769
0.003774
0.00384924
0.00392334
0.00399624
0.00406786
0.0041381
0.00420688
0.00427412
0.00433971
0.00440357
0.0044656
0.00452573
0.00458387
0.00463994
0.00469387
0.00474558
0.00479501
0.0048421
0.0048868
0.00492906
0.00496885
0.00500612
0.00504085
0.00507302
0.00510262
0.00512963
0.00515405
0.00517588
0.00519515
0.00521185
0.00522602
0.00523768
0.00524685
0.00525358
0.0052579
0.00525983
0.0052595
0.00525689
0.00525207
0.00524511
0.00523606
0.00522498
0.00521194
0.00519701
0.00518025
0.00516174
0.00514153
0.00511972
0.00509636
0.00507154
0.00504532
0.00501777
0.00498898
0.00495901
0.00492793
0.00489581
0.00486272
0.00482872
0.0047939
0.0047583
0.00472199
0.00468505
0.00464752
0.00460947
0.00457095
0.00453203
0.00449276
0.00445318
0.00441334
0.0043733
0.0043331
0.00429278
0.00425238
0.00421195
0.00417151
0.0041311
0.00409075
0.0040505
0.00401037
0.00397039
0.00393058
0.00389097
0.00385158
0.00381242
0.00377353
0.0037349
0.00369656
0.00365853
0.0036208
0.0035834
0.00354634
0.00350962
0.00347325
0.00343723
0.00340158
0.00336629
0.00333138
0.00329683
0.00326267
0.00322887
0.00319546
0.00316243
0.00312977
0.00309749
0.00306559
0.00303406
0.00300291
0.00297213
0.00294172
0.00291168
0.002882
0.00285268
0.00282372
0.00279512
0.00276686
0.00273895
0.00271137
0.00268414
0.00265724
0.00263067
0.00260442
0.00257849
0.00255288
0.00252758
0.00250259
0.00247789
0.00245349
0.00242938
0.00240555
0.00238199
0.00235868
0.00233563
0.00231281
0.0022902
0.00226777
0.0022455
0.00222333
0.00220123
0.00217912
0.00215692
0.00213453
0.00211195
0.00208865
0.00205799
2.93018e-05
0.00012871
0.000248084
0.00037226
0.000496873
0.000620856
0.000745756
0.000875326
0.00101296
0.00116059
0.00131837
0.00147995
0.00162755
0.00176385
0.00189183
0.00201348
0.00213006
0.0022424
0.00235103
0.00245633
0.00255861
0.00265807
0.00275514
0.00285018
0.00294347
0.00303526
0.00312573
0.00321506
0.00330337
0.00339076
0.00347731
0.00356306
0.00364803
0.00373223
0.00381563
0.00389819
0.00397985
0.00406056
0.00414022
0.00421875
0.00429606
0.00437204
0.0044466
0.00451964
0.00459104
0.00466072
0.00472856
0.00479447
0.00485836
0.00492014
0.00497972
0.00503704
0.00509201
0.00514457
0.00519467
0.00524224
0.00528726
0.00532967
0.00536944
0.00540656
0.00544099
0.00547274
0.00550179
0.00552815
0.00555183
0.00557283
0.00559118
0.00560691
0.00562003
0.00563059
0.00563862
0.00564416
0.00564728
0.005648
0.0056464
0.00564253
0.00563644
0.00562819
0.00561786
0.0056055
0.00559117
0.00557496
0.00555693
0.00553716
0.0055157
0.00549265
0.00546806
0.00544201
0.00541458
0.00538584
0.00535584
0.00532468
0.0052924
0.00525909
0.00522481
0.00518962
0.0051536
0.0051168
0.00507928
0.00504112
0.00500237
0.00496308
0.00492332
0.00488313
0.00484257
0.00480169
0.00476053
0.00471915
0.00467758
0.00463587
0.00459406
0.00455218
0.00451028
0.00446838
0.00442652
0.00438473
0.00434304
0.00430147
0.00426005
0.0042188
0.00417775
0.00413691
0.00409631
0.00405595
0.00401587
0.00397607
0.00393656
0.00389735
0.00385847
0.00381991
0.00378168
0.0037438
0.00370627
0.00366909
0.00363227
0.00359581
0.00355972
0.00352399
0.00348864
0.00345366
0.00341905
0.00338481
0.00335095
0.00331746
0.00328435
0.0032516
0.00321922
0.00318721
0.00315556
0.00312427
0.00309334
0.00306277
0.00303255
0.00300267
0.00297315
0.00294396
0.00291512
0.00288661
0.00285843
0.00283058
0.00280305
0.00277584
0.00274894
0.00272234
0.00269605
0.00267004
0.00264431
0.00261886
0.00259365
0.00256867
0.00254389
0.00251929
0.00249481
0.00247042
0.00244603
0.00242158
0.00239696
0.00237216
0.00234665
0.00231384
2.76139e-05
0.000122121
0.000238096
0.000361637
0.000489118
0.000619938
0.000756348
0.000900131
0.0010529
0.00121515
0.00138737
0.00155312
0.0017047
0.00184486
0.00197634
0.00210111
0.0022205
0.00233545
0.00244662
0.00255451
0.00265949
0.00276187
0.00286192
0.00295984
0.00305604
0.00315082
0.00324441
0.003337
0.00342874
0.00351972
0.00361003
0.0036997
0.00378875
0.00387716
0.00396491
0.00405195
0.0041382
0.00422359
0.00430803
0.00439141
0.00447363
0.00455458
0.00463415
0.00471221
0.00478867
0.0048634
0.00493629
0.00500725
0.00507617
0.00514294
0.00520749
0.00526973
0.00532958
0.00538697
0.00544184
0.00549412
0.00554377
0.00559076
0.00563503
0.00567657
0.00571536
0.00575138
0.00578462
0.00581508
0.00584277
0.00586771
0.00588991
0.00590939
0.00592618
0.00594032
0.00595184
0.00596078
0.00596719
0.00597111
0.0059726
0.00597174
0.00596857
0.00596315
0.00595553
0.00594578
0.00593397
0.00592018
0.00590446
0.00588689
0.00586754
0.00584648
0.00582379
0.00579954
0.0057738
0.00574663
0.00571811
0.00568832
0.00565731
0.00562515
0.00559192
0.00555768
0.00552249
0.00548642
0.00544954
0.0054119
0.00537356
0.00533459
0.00529504
0.00525497
0.00521442
0.00517345
0.00513211
0.00509045
0.00504851
0.00500633
0.00496396
0.00492145
0.00487881
0.0048361
0.00479335