/*--------------------------------*- C++ -*----------------------------------*\
  =========                 |
  \\      /  F ield         | OpenFOAM: The Open Source CFD Toolbox
   \\    /   O peration     | Website:  https://openfoam.org
    \\  /    A nd           | Version:  8
     \\/     M anipulation  |
\*---------------------------------------------------------------------------*/
FoamFile
{
    version     2.0;
    format      ascii;
    class       surfaceScalarField;
    location    "1700";
    object      phi;
}
// * * * * * * * * * * * * * * * * * * * * * * * * * * * * * * * * * * * * * //

dimensions      [0 3 -1 0 0 0 0];

internalField   nonuniform List<scalar> 
24170
(
3.92539e-06
-7.91498e-07
3.76465e-06
1.6075e-07
3.63345e-06
1.31209e-07
3.43331e-06
2.00144e-07
3.28028e-06
1.53027e-07
3.18901e-06
9.11906e-08
3.13091e-06
5.81105e-08
3.08609e-06
4.58913e-08
3.04612e-06
4.23235e-08
3.01059e-06
3.81626e-08
2.97876e-06
3.38023e-08
2.94904e-06
3.07701e-08
2.92187e-06
2.73777e-08
2.89642e-06
2.52e-08
2.87227e-06
2.36053e-08
2.85193e-06
1.94837e-08
2.84097e-06
9.85677e-09
-6.37943e-09
2.84669e-06
3.58445e-06
-9.19499e-07
3.80424e-06
-5.90412e-08
3.74282e-06
1.92629e-07
3.6906e-06
2.52375e-07
3.63729e-06
2.06333e-07
3.59023e-06
1.3828e-07
3.55289e-06
9.55997e-08
3.52309e-06
7.56597e-08
3.49853e-06
6.65697e-08
3.47732e-06
5.92151e-08
3.45871e-06
5.25293e-08
3.44253e-06
4.72646e-08
3.42795e-06
4.23379e-08
3.41466e-06
3.87865e-08
3.40269e-06
3.57305e-08
3.39122e-06
3.10524e-08
3.38036e-06
2.08418e-08
4.77899e-09
3.36944e-06
3.68518e-06
-7.92482e-07
3.83639e-06
-2.10251e-07
3.91494e-06
1.14082e-07
3.94502e-06
2.22293e-07
3.94408e-06
2.07264e-07
3.92749e-06
1.54897e-07
3.90755e-06
1.15615e-07
3.88932e-06
9.36446e-08
3.874e-06
8.11966e-08
3.86056e-06
7.19159e-08
3.84834e-06
6.42561e-08
3.83728e-06
5.81354e-08
3.82691e-06
5.27793e-08
3.8174e-06
4.84754e-08
3.80891e-06
4.4434e-08
3.80097e-06
3.92538e-08
3.79195e-06
3.02074e-08
1.77962e-08
3.77944e-06
4.05359e-06
-6.4151e-07
4.1146e-06
-2.71259e-07
4.20799e-06
2.06916e-08
4.26635e-06
1.63932e-07
4.2907e-06
1.82926e-07
4.29287e-06
1.52749e-07
4.28571e-06
1.22819e-07
4.27631e-06
1.02843e-07
4.26727e-06
8.96864e-08
4.25873e-06
7.98177e-08
4.25056e-06
7.19499e-08
4.24283e-06
6.5635e-08
4.23534e-06
6.02467e-08
4.22824e-06
5.56936e-08
4.22149e-06
5.1353e-08
4.21464e-06
4.6346e-08
4.20599e-06
3.91842e-08
3.06594e-08
4.19351e-06
4.50491e-06
-5.09114e-07
4.51536e-06
-2.81708e-07
4.58529e-06
-4.92342e-08
4.64665e-06
1.02566e-07
4.68258e-06
1.46992e-07
4.69688e-06
1.38473e-07
4.69946e-06
1.20237e-07
4.69723e-06
1.04926e-07
4.69331e-06
9.32553e-08
4.68868e-06
8.40576e-08
4.68366e-06
7.66422e-08
4.67851e-06
7.06084e-08
4.67321e-06
6.54949e-08
4.66783e-06
6.11064e-08
4.66227e-06
5.70057e-08
4.65606e-06
5.27039e-08
4.64786e-06
4.75915e-08
4.26053e-08
4.63612e-06
5.00014e-06
-3.94663e-07
4.98614e-06
-2.67704e-07
5.03069e-06
-9.37789e-08
5.08506e-06
4.8198e-08
5.12454e-06
1.07517e-07
5.14608e-06
1.1694e-07
5.15584e-06
1.10489e-07
5.1594e-06
1.01285e-07
5.15985e-06
9.26081e-08
5.15859e-06
8.5084e-08
5.15629e-06
7.87434e-08
5.15333e-06
7.34432e-08
5.14984e-06
6.89343e-08
5.14589e-06
6.50644e-08
5.14136e-06
6.15876e-08
5.13584e-06
5.83104e-08
5.12839e-06
5.51493e-08
5.30519e-08
5.11808e-06
5.54382e-06
-2.97475e-07
5.51664e-06
-2.40529e-07
5.54055e-06
-1.17686e-07
5.58388e-06
4.8704e-09
5.62166e-06
6.97345e-08
5.64656e-06
9.20462e-08
5.66107e-06
9.59685e-08
5.66906e-06
9.32473e-08
5.67315e-06
8.84246e-08
5.67481e-06
8.33014e-08
5.67491e-06
7.85522e-08
5.6739e-06
7.4376e-08
5.67204e-06
7.07663e-08
5.6694e-06
6.76966e-08
5.66591e-06
6.51005e-08
5.66127e-06
6.2989e-08
5.65494e-06
6.1548e-08
6.15329e-08
5.6465e-06
4.34788e-06
-2.39242e-07
4.32251e-06
-2.15162e-07
4.33078e-06
-1.25951e-07
4.35419e-06
-1.85363e-08
4.3784e-06
4.5526e-08
4.39646e-06
7.3985e-08
4.40841e-06
8.40229e-08
4.41597e-06
8.56738e-08
4.42059e-06
8.37679e-08
4.42325e-06
8.05979e-08
4.42456e-06
7.71969e-08
4.4249e-06
7.40032e-08
4.42447e-06
7.11806e-08
4.42334e-06
6.88109e-08
4.42151e-06
6.69376e-08
4.41885e-06
6.56718e-08
4.41514e-06
6.52697e-08
6.63498e-08
4.41035e-06
5.08621e-06
-1.85599e-07
5.05777e-06
-1.86718e-07
5.0584e-06
-1.26578e-07
5.07686e-06
-3.70023e-08
5.09918e-06
2.32141e-08
5.11773e-06
5.54363e-08
5.13124e-06
7.05071e-08
5.14059e-06
7.63168e-08
5.14686e-06
7.74757e-08
5.15094e-06
7.64973e-08
5.15344e-06
7.46765e-08
5.15477e-06
7.26666e-08
5.15514e-06
7.07972e-08
5.15468e-06
6.92647e-08
5.15341e-06
6.82107e-08
5.15128e-06
6.78139e-08
5.14821e-06
6.83512e-08
7.02727e-08
5.14429e-06
5.94839e-06
-1.38193e-07
5.91832e-06
-1.56649e-07
5.91161e-06
-1.19866e-07
5.924e-06
-4.93968e-08
5.94286e-06
4.35867e-09
5.96058e-06
3.77168e-08
5.97479e-06
5.62912e-08
5.98546e-06
6.56465e-08
5.9932e-06
6.97358e-08
5.99867e-06
7.10173e-08
6.00242e-06
7.09155e-08
6.00484e-06
7.02398e-08
6.00618e-06
6.94581e-08
6.00658e-06
6.88674e-08
6.0061e-06
6.8688e-08
6.00478e-06
6.91358e-08
6.00267e-06
7.04618e-08
7.29757e-08
5.99997e-06
6.95439e-06
-9.8313e-08
6.92402e-06
-1.26278e-07
6.91113e-06
-1.06984e-07
6.9168e-06
-5.50657e-08
6.93087e-06
-9.71045e-09
6.94635e-06
2.22394e-08
6.96015e-06
4.24928e-08
6.9714e-06
5.43962e-08
6.98017e-06
6.09614e-08
6.98684e-06
6.43476e-08
6.9918e-06
6.59551e-08
6.99537e-06
6.66645e-08
6.9978e-06
6.70303e-08
6.99924e-06
6.74239e-08
6.99982e-06
6.8113e-08
6.99963e-06
6.93241e-08
6.99883e-06
7.12671e-08
7.41288e-08
6.99768e-06
8.12719e-06
-6.64877e-08
8.09793e-06
-9.70211e-08
8.08056e-06
-8.9609e-08
8.07955e-06
-5.40588e-08
8.08793e-06
-1.80894e-08
8.09985e-06
1.03227e-08
8.11198e-06
3.03587e-08
8.12286e-06
4.35219e-08
8.13202e-06
5.17952e-08
8.1395e-06
5.68675e-08
8.14548e-06
5.99751e-08
8.15018e-06
6.19695e-08
8.15378e-06
6.34308e-08
8.15644e-06
6.47565e-08
8.15833e-06
6.62328e-08
8.15958e-06
6.80735e-08
8.1604e-06
7.04402e-08
7.34383e-08
8.16109e-06
9.49368e-06
-4.24387e-08
9.4668e-06
-7.01429e-08
9.44683e-06
-6.96404e-08
9.43991e-06
-4.7132e-08
9.44229e-06
-2.04681e-08
9.44965e-06
2.95519e-09
9.45895e-06
2.10641e-08
9.4684e-06
3.40701e-08
9.47716e-06
4.30358e-08
9.48491e-06
4.91201e-08
9.49159e-06
5.32929e-08
9.49727e-06
5.62908e-08
9.50205e-06
5.86454e-08
9.50607e-06
6.07373e-08
9.50947e-06
6.28332e-08
9.51243e-06
6.51191e-08
9.51515e-06
6.77135e-08
7.06695e-08
9.51792e-06
1.10854e-05
-2.51591e-08
1.10618e-05
-4.65027e-08
1.1041e-05
-4.8807e-08
1.10294e-05
-3.5552e-08
1.10261e-05
-1.71701e-08
1.10284e-05
6.04467e-10
1.1034e-05
1.54741e-08
1.10411e-05
2.69701e-08
1.10487e-05
3.54909e-08
1.10561e-05
4.17147e-08
1.1063e-05
4.63122e-08
1.10695e-05
4.98416e-08
1.10754e-05
5.27333e-08
1.10808e-05
5.53014e-08
1.10859e-05
5.77662e-08
1.10908e-05
6.02713e-08
1.10956e-05
6.28973e-08
6.56674e-08
1.11006e-05
1.29396e-05
-1.31187e-08
1.29194e-05
-2.62788e-08
1.28988e-05
-2.82523e-08
1.28839e-05
-2.0688e-08
1.28758e-05
-8.99626e-09
1.28732e-05
3.14431e-09
1.28748e-05
1.39393e-08
1.28789e-05
2.27875e-08
1.28847e-05
2.97434e-08
1.28913e-05
3.51418e-08
1.28982e-05
3.93818e-08
1.29052e-05
4.28265e-08
1.29122e-05
4.57679e-08
1.29191e-05
4.8423e-08
1.29259e-05
5.0941e-08
1.29327e-05
5.34134e-08
1.29398e-05
5.58834e-08
5.8354e-08
1.29471e-05
1.50998e-05
-4.48322e-09
1.50822e-05
-8.67619e-09
1.50621e-05
-8.11386e-09
1.50448e-05
-3.45865e-09
1.50327e-05
3.10916e-09
1.50259e-05
9.93796e-09
1.50237e-05
1.61609e-08
1.5025e-05
2.14631e-08
1.50289e-05
2.58518e-08
1.50346e-05
2.9483e-08
1.50414e-05
3.25525e-08
1.5049e-05
3.52408e-08
1.50571e-05
3.76913e-08
1.50655e-05
4.00052e-08
1.50742e-05
4.22451e-08
1.50832e-05
4.44403e-08
1.50925e-05
4.65935e-08
4.86863e-08
1.51021e-05
1.76171e-05
2.89296e-09
1.75999e-05
8.52299e-09
1.75787e-05
1.30293e-08
1.7559e-05
1.62774e-08
1.75436e-05
1.84718e-08
1.75336e-05
1.99569e-08
1.75287e-05
2.10511e-08
1.75282e-05
2.19923e-08
1.75311e-05
2.29379e-08
1.75366e-05
2.39834e-08
1.7544e-05
2.51749e-08
1.75527e-05
2.65253e-08
1.75624e-05
2.80233e-08
1.75727e-05
2.96436e-08
1.75836e-05
3.13495e-08
1.7595e-05
3.31001e-08
1.76067e-05
3.48494e-08
3.65528e-08
1.76188e-05
1.78181e-05
1.10001e-08
1.77994e-05
2.72123e-08
1.77768e-05
3.56237e-08
1.7756e-05
3.70578e-08
1.77402e-05
3.43254e-08
1.77302e-05
2.99453e-08
1.77257e-05
2.5499e-08
1.77259e-05
2.17763e-08
1.77298e-05
1.90732e-08
1.77364e-05
1.73978e-08
1.77449e-05
1.663e-08
1.77549e-05
1.66006e-08
1.77658e-05
1.71385e-08
1.77773e-05
1.80865e-08
1.77894e-05
1.93121e-08
1.78018e-05
2.0702e-08
1.78144e-05
2.21664e-08
2.36296e-08
1.78274e-05
1.58702e-05
2.21332e-08
1.58478e-05
4.9581e-08
1.58233e-05
6.01316e-08
1.58032e-05
5.72337e-08
1.57899e-05
4.76092e-08
1.57834e-05
3.63703e-08
1.57827e-05
2.61958e-08
1.57864e-05
1.8145e-08
1.57931e-05
1.23632e-08
1.58019e-05
8.61023e-09
1.5812e-05
6.49447e-09
1.5823e-05
5.6262e-09
1.58345e-05
5.66239e-09
1.58462e-05
6.32675e-09
1.58581e-05
7.39918e-09
1.58701e-05
8.71529e-09
1.58821e-05
1.01475e-08
1.16051e-08
1.58942e-05
1.41313e-05
3.95385e-08
1.41021e-05
7.87064e-08
1.40745e-05
8.7787e-08
1.40557e-05
7.60373e-08
1.40469e-05
5.6412e-08
1.40462e-05
3.70378e-08
1.40512e-05
2.12086e-08
1.40597e-05
9.58032e-09
1.40704e-05
1.76081e-09
1.4082e-05
-3.0504e-09
1.40941e-05
-5.60607e-09
1.41063e-05
-6.5624e-09
1.41184e-05
-6.41666e-09
1.41303e-05
-5.55901e-09
1.41419e-05
-4.25934e-09
1.41534e-05
-2.71838e-09
1.41646e-05
-1.07307e-09
5.78187e-10
1.41756e-05
1.25772e-05
6.73554e-08
1.25392e-05
1.16739e-07
1.25091e-05
1.17888e-07
1.24942e-05
9.08898e-08
1.24928e-05
5.78122e-08
1.25002e-05
2.9681e-08
1.25122e-05
9.12872e-09
1.25264e-05
-4.49873e-09
1.25409e-05
-1.28372e-08
1.25552e-05
-1.73492e-08
1.25689e-05
-1.92844e-08
1.25819e-05
-1.94998e-08
1.25941e-05
-1.86537e-08
1.26057e-05
-1.71518e-08
1.26167e-05
-1.53023e-08
1.26273e-05
-1.32939e-08
1.26375e-05
-1.12584e-08
-9.27729e-09
1.26473e-05
1.11862e-05
1.10916e-07
1.11384e-05
1.6457e-07
1.11088e-05
1.4752e-07
1.11022e-05
9.74837e-08
1.11117e-05
4.83115e-08
1.11289e-05
1.23997e-08
1.11486e-05
-1.04635e-08
1.11678e-05
-2.37296e-08
1.11855e-05
-3.05101e-08
1.12014e-05
-3.3292e-08
1.12157e-05
-3.3555e-08
1.12285e-05
-3.23581e-08
1.12402e-05
-3.03016e-08
1.12509e-05
-2.78496e-08
1.12608e-05
-2.52377e-08
1.12701e-05
-2.26315e-08
1.1279e-05
-2.01181e-08
-1.77494e-08
1.12875e-05
9.93908e-06
1.76451e-07
9.88248e-06
2.21163e-07
9.85873e-06
1.71262e-07
9.86593e-06
9.02748e-08
9.8896e-06
2.46378e-08
9.91759e-06
-1.55571e-08
9.94391e-06
-3.67966e-08
9.96668e-06
-4.6412e-08
9.98571e-06
-4.96132e-08
1.00017e-05
-4.929e-08
1.00152e-05
-4.71277e-08
1.00269e-05
-4.40008e-08
1.00371e-05
-4.05355e-08
1.00463e-05
-3.69935e-08
1.00546e-05
-3.35631e-08
1.00623e-05
-3.03407e-08
1.00696e-05
-2.7356e-08
-2.4637e-08
1.00765e-05
8.81963e-06
2.69916e-07
8.75785e-06
2.82944e-07
8.74788e-06
1.81225e-07
8.77481e-06
6.33226e-08
8.81458e-06
-1.51297e-08
8.85212e-06
-5.30928e-08
8.88268e-06
-6.72308e-08
8.90623e-06
-7.00279e-08
8.92427e-06
-6.76212e-08
8.93842e-06
-6.33757e-08
8.94984e-06
-5.84085e-08
8.95925e-06
-5.3343e-08
8.96726e-06
-4.849e-08
8.97427e-06
-4.39849e-08
8.98055e-06
-3.98424e-08
8.98633e-06
-3.60982e-08
8.99172e-06
-3.27617e-08
-2.97728e-08
8.99687e-06
7.81391e-06
3.96675e-07
7.75391e-06
3.42943e-07
7.76868e-06
1.6644e-07
7.82053e-06
1.14608e-08
7.87567e-06
-7.02746e-08
7.91912e-06
-9.64919e-08
7.94967e-06
-9.7836e-08
7.97057e-06
-9.0652e-08
7.98483e-06
-8.15938e-08
7.99524e-06
-7.35598e-08
8.00315e-06
-6.61196e-08
8.00938e-06
-5.94342e-08
8.01449e-06
-5.33505e-08
8.0189e-06
-4.82006e-08
8.02279e-06
-4.36411e-08
8.02632e-06
-3.9658e-08
8.02968e-06
-3.61454e-08
-3.30413e-08
8.03292e-06
6.90424e-06
5.66768e-07
6.86137e-06
3.85805e-07
6.91716e-06
1.10634e-07
6.99674e-06
-6.81332e-08
7.06253e-06
-1.36071e-07
7.10529e-06
-1.39269e-07
7.13031e-06
-1.2255e-07
7.14447e-06
-1.04618e-07
7.15207e-06
-8.89997e-08
7.15708e-06
-7.58138e-08
7.16036e-06
-6.66919e-08
7.16269e-06
-5.95619e-08
7.16421e-06
-5.41879e-08
7.16558e-06
-4.93239e-08
7.16674e-06
-4.4678e-08
7.1678e-06
-4.09199e-08
7.1689e-06
-3.79462e-08
-3.48292e-08
7.17005e-06
6.07162e-06
7.97662e-07
6.08526e-06
3.72164e-07
6.19865e-06
-2.77345e-09
6.29989e-06
-1.69398e-07
6.36526e-06
-2.01462e-07
6.39754e-06
-1.71504e-07
6.41011e-06
-1.35217e-07
6.41342e-06
-1.0695e-07
6.41238e-06
-8.58113e-08
6.40987e-06
-7.40389e-08
6.40747e-06
-6.45131e-08
6.40485e-06
-5.76144e-08
6.4024e-06
-5.13084e-08
6.40041e-06
-4.66149e-08
6.39831e-06
-4.28213e-08
6.39634e-06
-3.97742e-08
6.39516e-06
-3.70767e-08
-3.40739e-08
6.39404e-06
5.35805e-06
1.05451e-06
5.50649e-06
2.23716e-07
5.64777e-06
-1.44085e-07
5.73564e-06
-2.57314e-07
5.77646e-06
-2.42346e-07
5.78324e-06
-1.78422e-07
5.77527e-06
-1.26643e-07
5.76327e-06
-9.40061e-08
5.74975e-06
-7.56734e-08
5.73929e-06
-6.39812e-08
5.73025e-06
-5.65428e-08
5.72234e-06
-4.99583e-08
5.71447e-06
-4.45744e-08
5.70776e-06
-4.04659e-08
5.70182e-06
-3.67927e-08
5.69622e-06
-3.36257e-08
5.69181e-06
-3.27838e-08
-3.02733e-08
5.68743e-06
5.04576e-06
1.01105e-06
5.36491e-06
-9.54499e-08
5.35251e-06
-1.31767e-07
5.33285e-06
-2.37745e-07
5.296e-06
-2.0565e-07
5.25017e-06
-1.32586e-07
5.20891e-06
-8.47352e-08
5.17485e-06
-6.08267e-08
5.14636e-06
-4.98317e-08
5.12483e-06
-4.29116e-08
5.10668e-06
-3.93244e-08
5.09047e-06
-3.56205e-08
5.07519e-06
-3.14353e-08
5.06203e-06
-2.78011e-08
5.05044e-06
-2.46843e-08
5.03899e-06
-2.1938e-08
5.02944e-06
-2.30852e-08
-2.10329e-08
5.02142e-06
5.4676e-06
5.37215e-06
5.24037e-06
5.00261e-06
4.79694e-06
4.66444e-06
4.57967e-06
4.51835e-06
4.46847e-06
4.42538e-06
4.38572e-06
4.34961e-06
4.31802e-06
4.29031e-06
4.26571e-06
4.24383e-06
4.22109e-06
4.20054e-06
2.31235e-08
-2.3122e-08
2.372e-07
-2.14077e-07
4.89324e-07
-2.52093e-07
7.0959e-07
-2.20244e-07
8.77305e-07
-1.67696e-07
9.88435e-07
-1.11119e-07
1.0441e-06
-5.56521e-08
1.04652e-06
-2.42232e-09
1.00102e-06
4.55118e-08
9.17746e-07
8.32663e-08
8.11947e-07
1.05809e-07
7.02759e-07
1.09175e-07
6.09975e-07
9.278e-08
5.43687e-07
6.62983e-08
4.92543e-07
5.11619e-08
4.33363e-07
5.98808e-08
3.47056e-07
8.61674e-08
2.21957e-07
1.25871e-07
4.36534e-08
1.77887e-07
-2.01809e-07
2.44833e-07
-5.04344e-07
3.02279e-07
-8.45332e-07
3.40737e-07
-1.20967e-06
3.64346e-07
-1.58706e-06
3.77405e-07
-1.96866e-06
3.8164e-07
-2.34449e-06
3.7585e-07
-2.70653e-06
3.62057e-07
-3.0496e-06
3.43088e-07
-3.3699e-06
3.20305e-07
-3.66507e-06
2.95177e-07
-3.93425e-06
2.69193e-07
-4.17778e-06
2.43527e-07
-4.39666e-06
2.18885e-07
-4.59238e-06
1.95724e-07
-4.76665e-06
1.74269e-07
-4.92125e-06
1.54602e-07
-5.05794e-06
1.36686e-07
-5.17834e-06
1.20402e-07
-5.28393e-06
1.0559e-07
-5.376e-06
9.20687e-08
-5.45565e-06
7.96573e-08
-5.52384e-06
6.8183e-08
-5.58133e-06
5.74904e-08
-5.62877e-06
4.74456e-08
-5.66671e-06
3.79395e-08
-5.6956e-06
2.88849e-08
-5.71581e-06
2.02104e-08
-5.72769e-06
1.18863e-08
-5.73174e-06
4.04035e-09
-5.7288e-06
-2.93925e-09
-5.71996e-06
-8.83775e-09
-5.70599e-06
-1.39644e-08
-5.68731e-06
-1.86807e-08
-5.66416e-06
-2.31481e-08
-5.63672e-06
-2.74447e-08
-5.60512e-06
-3.15984e-08
-5.5695e-06
-3.56242e-08
-5.52997e-06
-3.95288e-08
-5.48666e-06
-4.33134e-08
-5.43968e-06
-4.69767e-08
-5.38916e-06
-5.05163e-08
-5.33523e-06
-5.39287e-08
-5.27802e-06
-5.72105e-08
-5.21766e-06
-6.03584e-08
-5.15429e-06
-6.33699e-08
-5.08805e-06
-6.62419e-08
-5.01908e-06
-6.89709e-08
-4.94753e-06
-7.15548e-08
-4.87353e-06
-7.39917e-08
-4.79725e-06
-7.62805e-08
-4.71883e-06
-7.84205e-08
-4.63842e-06
-8.04112e-08
-4.55617e-06
-8.2253e-08
-4.47222e-06
-8.39466e-08
-4.38673e-06
-8.54931e-08
-4.29983e-06
-8.68943e-08
-4.21168e-06
-8.81522e-08
-4.12241e-06
-8.92694e-08
-4.03216e-06
-9.0249e-08
-3.94107e-06
-9.10945e-08
-3.84926e-06
-9.18096e-08
-3.75686e-06
-9.23988e-08
-3.66399e-06
-9.28669e-08
-3.57077e-06
-9.32195e-08
-3.47731e-06
-9.34626e-08
-3.3837e-06
-9.36036e-08
-3.29005e-06
-9.3651e-08
-3.19644e-06
-9.36152e-08
-3.10293e-06
-9.35093e-08
-3.00958e-06
-9.33489e-08
-2.91642e-06
-9.31548e-08
-2.82347e-06
-9.29522e-08
-2.73071e-06
-9.27591e-08
-2.63815e-06
-9.25554e-08
-2.5459e-06
-9.22559e-08
-2.45414e-06
-9.17594e-08
-2.36316e-06
-9.09802e-08
-2.27322e-06
-8.99356e-08
-2.18444e-06
-8.87824e-08
-2.09681e-06
-8.76277e-08
-2.01034e-06
-8.64716e-08
-1.92504e-06
-8.52982e-08
-1.84094e-06
-8.41002e-08
-1.75806e-06
-8.28767e-08
-1.67643e-06
-8.16302e-08
-1.59607e-06
-8.03644e-08
-1.51699e-06
-7.90831e-08
-1.4392e-06
-7.77892e-08
-1.36272e-06
-7.64804e-08
-1.28758e-06
-7.51361e-08
-1.21381e-06
-7.37683e-08
-1.1414e-06
-7.24047e-08
-1.07036e-06
-7.10405e-08
-1.00068e-06
-6.96766e-08
-9.32369e-07
-6.83143e-08
-8.65413e-07
-6.69549e-08
-7.99812e-07
-6.56007e-08
-7.35556e-07
-6.42545e-08
-6.72637e-07
-6.29181e-08
-6.11044e-07
-6.15908e-08
-5.5077e-07
-6.02735e-08
-4.91799e-07
-5.89689e-08
-4.34115e-07
-5.7683e-08
-3.77692e-07
-5.64214e-08
-3.22511e-07
-5.518e-08
-2.68554e-07
-5.39555e-08
-2.15802e-07
-5.27517e-08
-1.64233e-07
-5.15678e-08
-1.1384e-07
-5.03921e-08
-6.46151e-08
-4.92244e-08
-1.668e-08
-4.79348e-08
3.0097e-08
-4.6777e-08
7.60232e-08
-4.59263e-08
1.20993e-07
-4.49696e-08
1.64902e-07
-4.39099e-08
2.07747e-07
-4.28462e-08
2.49546e-07
-4.17997e-08
2.90328e-07
-4.0783e-08
3.30126e-07
-3.97982e-08
3.68968e-07
-3.88438e-08
4.06885e-07
-3.79179e-08
4.43903e-07
-3.70192e-08
4.80048e-07
-3.61466e-08
5.15346e-07
-3.52993e-08
5.49822e-07
-3.44768e-08
5.83499e-07
-3.36788e-08
6.16403e-07
-3.2905e-08
6.48557e-07
-3.21552e-08
6.79986e-07
-3.14295e-08
7.10713e-07
-3.07278e-08
7.40763e-07
-3.00501e-08
7.70158e-07
-2.93964e-08
7.98924e-07
-2.87668e-08
8.27085e-07
-2.81614e-08
8.54664e-07
-2.758e-08
8.81685e-07
-2.70227e-08
9.08173e-07
-2.64893e-08
9.34152e-07
-2.59795e-08
9.59643e-07
-2.54929e-08
9.8467e-07
-2.50286e-08
1.00925e-06
-2.45853e-08
1.03341e-06
-2.41612e-08
1.05717e-06
-2.37534e-08
1.08052e-06
-2.33579e-08
1.10349e-06
-2.2969e-08
1.12607e-06
-2.25785e-08
1.14824e-06
-2.2175e-08
1.16999e-06
-2.17429e-08
1.19125e-06
-2.12599e-08
1.21194e-06
-2.0695e-08
1.23195e-06
-2.0004e-08
1.25107e-06
-1.9123e-08
1.26902e-06
-1.79547e-08
1.28538e-06
-1.63549e-08
1.29943e-06
-1.40483e-08
1.31005e-06
-1.06246e-08
1.31462e-06
-4.56041e-09
1.30777e-06
6.85449e-09
1.27823e-06
2.95347e-08
7.23278e-08
1.2059e-06
2.54185e-07
-2.77328e-07
4.90084e-07
-4.49973e-07
6.3967e-07
-4.01674e-07
7.24303e-07
-3.04875e-07
7.63818e-07
-2.07202e-07
7.69766e-07
-1.1707e-07
7.48835e-07
-3.47151e-08
7.06653e-07
3.97516e-08
6.46294e-07
1.05876e-07
5.67667e-07
1.61884e-07
4.70053e-07
2.03429e-07
3.51784e-07
2.27432e-07
2.06822e-07
2.37748e-07
2.3626e-08
2.4951e-07
-2.0859e-07
2.83384e-07
-4.9423e-07
3.45614e-07
-8.32189e-07
4.24215e-07
-1.21204e-06
5.05743e-07
-1.61586e-06
5.81661e-07
-2.0173e-06
6.46219e-07
-2.40733e-06
6.92252e-07
-2.7828e-06
7.16201e-07
-3.13775e-06
7.19289e-07
-3.46517e-06
7.04834e-07
-3.75993e-06
6.76407e-07
-4.02108e-06
6.37e-07
-4.24902e-06
5.90002e-07
-4.44503e-06
5.39106e-07
-4.61203e-06
4.87303e-07
-4.75351e-06
4.36664e-07
-4.87286e-06
3.8854e-07
-4.97323e-06
3.43904e-07
-5.05752e-06
3.0317e-07
-5.12822e-06
2.66426e-07
-5.18746e-06
2.33508e-07
-5.23697e-06
2.04113e-07
-5.27815e-06
1.77873e-07
-5.31215e-06
1.54396e-07
-5.33986e-06
1.33299e-07
-5.36202e-06
1.14232e-07
-5.37925e-06
9.68832e-08
-5.39205e-06
8.09867e-08
-5.40088e-06
6.63206e-08
-5.40614e-06
5.27033e-08
-5.40819e-06
3.99879e-08
-5.40736e-06
2.80594e-08
-5.40399e-06
1.68401e-08
-5.3984e-06
6.29515e-09
-5.39074e-06
-3.61941e-09
-5.38059e-06
-1.30933e-08
-5.36706e-06
-2.23667e-08
-5.34955e-06
-3.14689e-08
-5.3279e-06
-4.03339e-08
-5.30209e-06
-4.89584e-08
-5.27219e-06
-5.7349e-08
-5.23827e-06
-6.55119e-08
-5.20045e-06
-7.34501e-08
-5.15881e-06
-8.11629e-08
-5.11348e-06
-8.86471e-08
-5.06456e-06
-9.58971e-08
-5.01217e-06
-1.02906e-07
-4.95643e-06
-1.09666e-07
-4.89747e-06
-1.1617e-07
-4.83542e-06
-1.2241e-07
-4.77041e-06
-1.28382e-07
-4.70257e-06
-1.3408e-07
-4.63204e-06
-1.39495e-07
-4.55898e-06
-1.44623e-07
-4.4835e-06
-1.49462e-07
-4.40578e-06
-1.54008e-07
-4.32594e-06
-1.5826e-07
-4.24413e-06
-1.62218e-07
-4.1605e-06
-1.65881e-07
-4.0752e-06
-1.69252e-07
-3.98836e-06
-1.72332e-07
-3.90013e-06
-1.75125e-07
-3.81064e-06
-1.77635e-07
-3.72005e-06
-1.79868e-07
-3.62847e-06
-1.81828e-07
-3.53604e-06
-1.83523e-07
-3.44288e-06
-1.84961e-07
-3.34913e-06
-1.8615e-07
-3.2549e-06
-1.87099e-07
-3.1603e-06
-1.87817e-07
-3.06545e-06
-1.88316e-07
-2.97044e-06
-1.88608e-07
-2.87539e-06
-1.88703e-07
-2.78039e-06
-1.88616e-07
-2.68554e-06
-1.88359e-07
-2.59094e-06
-1.87945e-07
-2.49671e-06
-1.87385e-07
-2.40298e-06
-1.86687e-07
-2.30989e-06
-1.85847e-07
-2.21761e-06
-1.84834e-07
-2.12626e-06
-1.83607e-07
-2.03588e-06
-1.82135e-07
-1.94645e-06
-1.80415e-07
-1.85789e-06
-1.78487e-07
-1.77025e-06
-1.76429e-07
-1.68358e-06
-1.74294e-07
-1.59796e-06
-1.72096e-07
-1.51342e-06
-1.69835e-07
-1.43001e-06
-1.67513e-07
-1.34775e-06
-1.65134e-07
-1.26667e-06
-1.62704e-07
-1.18681e-06
-1.60227e-07
-1.10819e-06
-1.57709e-07
-1.03082e-06
-1.55154e-07
-9.54736e-07
-1.52564e-07
-8.79933e-07
-1.49938e-07
-8.06411e-07
-1.4729e-07
-7.34181e-07
-1.44634e-07
-6.63248e-07
-1.41973e-07
-5.93613e-07
-1.39311e-07
-5.25277e-07
-1.3665e-07
-4.58236e-07
-1.33994e-07
-3.92489e-07
-1.31347e-07
-3.28029e-07
-1.28713e-07
-2.64847e-07
-1.261e-07
-2.02931e-07
-1.23506e-07
-1.42274e-07
-1.2093e-07
-8.28635e-08
-1.18379e-07
-2.4693e-08
-1.15853e-07
3.22514e-08
-1.13365e-07
8.79975e-08
-1.10925e-07
1.42563e-07
-1.0852e-07
1.95957e-07
-1.06146e-07
2.48197e-07
-1.03807e-07
2.99308e-07
-1.01503e-07
3.4932e-07
-9.92363e-08
3.98392e-07
-9.70059e-08
4.46496e-07
-9.48812e-08
4.93416e-07
-9.28471e-08
5.39221e-07
-9.07743e-08
5.83987e-07
-8.86764e-08
6.27747e-07
-8.6606e-08
6.70529e-07
-8.45825e-08
7.12358e-07
-8.26125e-08
7.53257e-07
-8.06976e-08
7.93249e-07
-7.88365e-08
8.32358e-07
-7.70275e-08
8.70608e-07
-7.5269e-08
9.0802e-07
-7.35599e-08
9.44619e-07
-7.18992e-08
9.80428e-07
-7.02863e-08
1.01547e-06
-6.87208e-08
1.04977e-06
-6.72024e-08
1.08334e-06
-6.57308e-08
1.11622e-06
-6.43061e-08
1.14842e-06
-6.29281e-08
1.17996e-06
-6.15969e-08
1.21088e-06
-6.03126e-08
1.24119e-06
-5.90751e-08
1.27091e-06
-5.78846e-08
1.30007e-06
-5.67407e-08
1.32869e-06
-5.56435e-08
1.35679e-06
-5.45924e-08
1.3844e-06
-5.35868e-08
1.41153e-06
-5.26254e-08
1.43821e-06
-5.17066e-08
1.46445e-06
-5.08276e-08
1.49027e-06
-4.99845e-08
1.51569e-06
-4.91719e-08
1.54071e-06
-4.83817e-08
1.56534e-06
-4.76029e-08
1.58959e-06
-4.68202e-08
1.61342e-06
-4.60123e-08
1.63683e-06
-4.51496e-08
1.65976e-06
-4.41911e-08
1.68214e-06
-4.30792e-08
1.70387e-06
-4.17323e-08
1.72478e-06
-4.00324e-08
1.74463e-06
-3.78028e-08
1.76305e-06
-3.4774e-08
1.77949e-06
-3.04854e-08
1.79305e-06
-2.41844e-08
1.80277e-06
-1.42774e-08
1.80763e-06
1.99337e-09
1.80575e-06
3.14196e-08
8.80277e-08
1.79004e-06
2.46011e-07
-5.23359e-07
3.42327e-07
-5.46293e-07
3.58616e-07
-4.1796e-07
3.47572e-07
-2.93822e-07
3.19871e-07
-1.79495e-07
2.75789e-07
-7.29873e-08
2.14614e-07
2.64629e-08
1.35295e-07
1.19066e-07
3.67711e-08
2.04402e-07
-8.31207e-08
2.81772e-07
-2.30086e-07
3.50395e-07
-4.14643e-07
4.1199e-07
-6.50204e-07
4.73306e-07
-9.43689e-07
5.42999e-07
-1.28494e-06
6.24631e-07
-1.65204e-06
7.12713e-07
-2.02414e-06
7.96319e-07
-2.3844e-06
8.65987e-07
-2.71891e-06
9.16158e-07
-3.01713e-06
9.4443e-07
-3.2752e-06
9.50319e-07
-3.4941e-06
9.35102e-07
-3.67681e-06
9.02002e-07
-3.82737e-06
8.554e-07
-3.95051e-06
7.9955e-07
-4.05164e-06
7.38135e-07
-4.13609e-06
6.74456e-07
-4.20826e-06
6.11273e-07
-4.27157e-06
5.50618e-07
-4.32865e-06
4.93743e-07
-4.38137e-06
4.41258e-07
-4.43086e-06
3.93394e-07
-4.47776e-06
3.50068e-07
-4.52233e-06
3.11e-07
-4.56462e-06
2.75798e-07
-4.60453e-06
2.44023e-07
-4.64189e-06
2.15236e-07
-4.67652e-06
1.8902e-07
-4.70821e-06
1.64998e-07
-4.73682e-06
1.42841e-07
-4.7622e-06
1.22265e-07
-4.78425e-06
1.03032e-07
-4.80287e-06
8.49446e-08
-4.81801e-06
6.78375e-08
-4.82959e-06
5.15708e-08
-4.83756e-06
3.60253e-08
-4.84182e-06
2.10993e-08
-4.84222e-06
6.69897e-09
-4.83856e-06
-7.28248e-09
-4.83069e-06
-2.09593e-08
-4.81867e-06
-3.43911e-08
-4.80257e-06
-4.75656e-08
-4.78244e-06
-6.04604e-08
-4.75833e-06
-7.30672e-08
-4.7303e-06
-8.53795e-08
-4.69842e-06
-9.73915e-08
-4.66278e-06
-1.09096e-07
-4.62345e-06
-1.20485e-07
-4.58055e-06
-1.31548e-07
-4.53418e-06
-1.42274e-07
-4.48443e-06
-1.52649e-07
-4.43144e-06
-1.62662e-07
-4.37531e-06
-1.72299e-07
-4.31617e-06
-1.81549e-07
-4.25415e-06
-1.90404e-07
-4.18937e-06
-1.98854e-07
-4.12198e-06
-2.06888e-07
-4.0521e-06
-2.14499e-07
-3.97988e-06
-2.21682e-07
-3.90546e-06
-2.28433e-07
-3.82897e-06
-2.34749e-07
-3.75056e-06
-2.40628e-07
-3.67037e-06
-2.46072e-07
-3.58854e-06
-2.51082e-07
-3.50521e-06
-2.55662e-07
-3.42052e-06
-2.59815e-07
-3.3346e-06
-2.63549e-07
-3.2476e-06
-2.66869e-07
-3.15965e-06
-2.69785e-07
-3.07086e-06
-2.72306e-07
-2.98138e-06
-2.74443e-07
-2.89132e-06
-2.76207e-07
-2.80081e-06
-2.77611e-07
-2.70996e-06
-2.78668e-07
-2.61888e-06
-2.79392e-07
-2.52769e-06
-2.79799e-07
-2.43649e-06
-2.79902e-07
-2.34539e-06
-2.79717e-07
-2.25449e-06
-2.79258e-07
-2.1639e-06
-2.78538e-07
-2.07372e-06
-2.77568e-07
-1.98405e-06
-2.76356e-07
-1.895e-06
-2.74899e-07
-1.80665e-06
-2.73185e-07
-1.71905e-06
-2.71199e-07
-1.63225e-06
-2.68938e-07
-1.54625e-06
-2.66419e-07
-1.46106e-06
-2.63677e-07
-1.37673e-06
-2.60758e-07
-1.29333e-06
-2.57697e-07
-1.21091e-06
-2.54514e-07
-1.12952e-06
-2.51222e-07
-1.04921e-06
-2.47829e-07
-9.69993e-07
-2.44347e-07
-8.91914e-07
-2.40783e-07
-8.14994e-07
-2.37146e-07
-7.39258e-07
-2.33446e-07
-6.64723e-07
-2.29689e-07
-5.91405e-07
-2.25882e-07
-5.19308e-07
-2.22034e-07
-4.48442e-07
-2.18156e-07
-3.78817e-07
-2.14259e-07
-3.10438e-07
-2.10351e-07
-2.43308e-07
-2.0644e-07
-1.77426e-07
-2.02531e-07
-1.12791e-07
-1.98629e-07
-4.93997e-08
-1.94739e-07
1.27552e-08
-1.90868e-07
7.36778e-08
-1.87022e-07
1.33376e-07
-1.83203e-07
1.91863e-07
-1.79416e-07
2.4915e-07
-1.75666e-07
3.05254e-07
-1.71956e-07
3.60186e-07
-1.68297e-07
4.13952e-07
-1.64691e-07
4.66568e-07
-1.61136e-07
5.18054e-07
-1.57632e-07
5.68429e-07
-1.54181e-07
6.17715e-07
-1.50789e-07
6.65942e-07
-1.47463e-07
7.13152e-07
-1.44216e-07
7.59328e-07
-1.41057e-07
8.04436e-07
-1.37955e-07
8.48525e-07
-1.34863e-07
8.91639e-07
-1.31791e-07
9.33801e-07
-1.28768e-07
9.7503e-07
-1.25811e-07
1.01534e-06
-1.22927e-07
1.05476e-06
-1.20117e-07
1.09331e-06
-1.17381e-07
1.131e-06
-1.14719e-07
1.16786e-06
-1.12128e-07
1.20391e-06
-1.0961e-07
1.23917e-06
-1.07161e-07
1.27366e-06
-1.04783e-07
1.30742e-06
-1.02474e-07
1.34045e-06
-1.00234e-07
1.37278e-06
-9.80626e-08
1.40443e-06
-9.59604e-08
1.43543e-06
-9.39269e-08
1.4658e-06
-9.19623e-08
1.49555e-06
-9.00667e-08
1.52471e-06
-8.82398e-08
1.55331e-06
-8.64819e-08
1.58136e-06
-8.47926e-08
1.60889e-06
-8.31718e-08
1.63592e-06
-8.16186e-08
1.66246e-06
-8.01321e-08
1.68855e-06
-7.87106e-08
1.71419e-06
-7.73514e-08
1.73941e-06
-7.60506e-08
1.76423e-06
-7.48027e-08
1.78866e-06
-7.35997e-08
1.81271e-06
-7.24302e-08
1.83638e-06
-7.12787e-08
1.85968e-06
-7.01236e-08
1.88261e-06
-6.89348e-08
1.90513e-06
-6.76711e-08
1.92721e-06
-6.62753e-08
1.9488e-06
-6.4667e-08
1.9698e-06
-6.27333e-08
1.99008e-06
-6.03113e-08
2.00944e-06
-5.71604e-08
2.02758e-06
-5.29173e-08
2.04408e-06
-4.69913e-08
2.05834e-06
-3.84428e-08
2.06958e-06
-2.5512e-08
2.07692e-06
-5.35497e-09
2.08083e-06
2.75166e-08
8.5487e-08
2.08337e-06
9.37379e-08
-6.17107e-07
6.23958e-08
-5.14963e-07
1.39134e-08
-3.6947e-07
-4.31765e-08
-2.36725e-07
-1.12672e-07
-1.09993e-07
-1.98043e-07
1.23873e-08
-3.02272e-07
1.30694e-07
-4.27776e-07
2.4457e-07
-5.77131e-07
3.53755e-07
-7.53719e-07
4.58362e-07
-9.62301e-07
5.58973e-07
-1.20719e-06
6.5688e-07
-1.48718e-06
7.53289e-07
-1.79146e-06
8.47282e-07
-2.10135e-06
9.3451e-07
-2.39721e-06
1.00856e-06
-2.66455e-06
1.06365e-06
-2.8951e-06
1.09653e-06
-3.0856e-06
1.10665e-06
-3.23686e-06
1.09569e-06
-3.35324e-06
1.0667e-06
-3.44128e-06
1.02315e-06
-3.5081e-06
9.68824e-07
-3.56021e-06
9.07521e-07
-3.60311e-06
8.42452e-07
-3.64123e-06
7.76251e-07
-3.6778e-06
7.11031e-07
-3.71487e-06
6.4834e-07
-3.75343e-06
5.8918e-07
-3.79376e-06
5.34072e-07
-3.83567e-06
4.8317e-07
-3.87867e-06
4.36396e-07
-3.92212e-06
3.93516e-07
-3.96533e-06
3.54209e-07
-4.00764e-06
3.18113e-07
-4.04848e-06
2.84859e-07
-4.08733e-06
2.54088e-07
-4.12378e-06
2.2547e-07
-4.15749e-06
1.98704e-07
-4.18817e-06
1.73527e-07
-4.21562e-06
1.49709e-07
-4.23964e-06
1.27053e-07
-4.26009e-06
1.05394e-07
-4.27684e-06
8.45899e-08
-4.28979e-06
6.4521e-08
-4.29885e-06
4.50859e-08
-4.30395e-06
2.61981e-08
-4.30503e-06
7.78108e-09
-4.30208e-06
-1.0239e-08
-4.29511e-06
-2.79233e-08
-4.2842e-06
-4.52998e-08
-4.2694e-06
-6.23652e-08
-4.25076e-06
-7.91069e-08
-4.22831e-06
-9.55122e-08
-4.20212e-06
-1.11568e-07
-4.17226e-06
-1.27259e-07
-4.13878e-06
-1.4257e-07
-4.10178e-06
-1.57485e-07
-4.06135e-06
-1.71986e-07
-4.01757e-06
-1.86054e-07
-3.97054e-06
-1.99672e-07
-3.92038e-06
-2.12821e-07
-3.8672e-06
-2.25482e-07
-3.81111e-06
-2.37637e-07
-3.75224e-06
-2.49278e-07
-3.6907e-06
-2.60389e-07
-3.62664e-06
-2.70956e-07
-3.56017e-06
-2.80969e-07
-3.49143e-06
-2.90422e-07
-3.42055e-06
-2.99308e-07
-3.34768e-06
-3.07624e-07
-3.27294e-06
-3.15366e-07
-3.19647e-06
-3.22537e-07
-3.11842e-06
-3.29137e-07
-3.03891e-06
-3.35172e-07
-2.95808e-06
-3.40645e-07
-2.87606e-06
-3.45566e-07
-2.79299e-06
-3.49942e-07
-2.70899e-06
-3.53786e-07
-2.62418e-06
-3.57108e-07
-2.5387e-06
-3.59923e-07
-2.45267e-06
-3.62244e-07
-2.36619e-06
-3.64088e-07
-2.27939e-06
-3.6547e-07
-2.19237e-06
-3.66409e-07
-2.10525e-06
-3.66922e-07
-2.01812e-06
-3.67026e-07
-1.9311e-06
-3.6674e-07
-1.84428e-06
-3.66081e-07
-1.75775e-06
-3.65064e-07
-1.67161e-06
-3.63704e-07
-1.58596e-06
-3.62011e-07
-1.50086e-06
-3.59993e-07
-1.4164e-06
-3.5765e-07
-1.33261e-06
-3.54986e-07
-1.24954e-06
-3.52009e-07
-1.16722e-06
-3.4874e-07
-1.08569e-06
-3.4521e-07
-1.00499e-06
-3.41454e-07
-9.25184e-07
-3.37503e-07
-8.46318e-07
-3.3338e-07
-7.68437e-07
-3.29103e-07
-6.91579e-07
-3.24688e-07
-6.15776e-07
-3.20149e-07
-5.41059e-07
-3.155e-07
-4.67452e-07
-3.10753e-07
-3.94977e-07
-3.05921e-07
-3.23652e-07
-3.01013e-07
-2.53491e-07
-2.96043e-07
-1.84503e-07
-2.91021e-07
-1.16699e-07
-2.8596e-07
-5.00859e-08
-2.80872e-07
1.53302e-08
-2.75767e-07
7.95446e-08
-2.70655e-07
1.42556e-07