/*--------------------------------*- C++ -*----------------------------------*\
  =========                 |
  \\      /  F ield         | OpenFOAM: The Open Source CFD Toolbox
   \\    /   O peration     | Website:  https://openfoam.org
    \\  /    A nd           | Version:  8
     \\/     M anipulation  |
\*---------------------------------------------------------------------------*/
FoamFile
{
    version     2.0;
    format      ascii;
    class       volVectorField;
    location    "1700";
    object      U;
}
// * * * * * * * * * * * * * * * * * * * * * * * * * * * * * * * * * * * * * //

dimensions      [0 1 -1 0 0 0 0];

internalField   nonuniform List<vector> 
12225
(
(9.2745 -4.73371 0)
(13.1094 -1.71343 0)
(12.4778 -0.395198 0)
(11.2771 -0.0422041 0)
(10.6314 0.0141384 0)
(10.2979 -9.39353e-05 0)
(10.0776 -0.0165233 0)
(9.91228 -0.00288824 0)
(9.77909 0.0348745 0)
(9.66231 0.0428926 0)
(9.55574 0.024883 0)
(9.45767 0.00214193 0)
(9.36675 -0.0227919 0)
(9.28211 -0.0302252 0)
(9.20232 -0.0217878 0)
(9.13253 -0.0212276 0)
(9.07016 -0.0210396 0)
(9.08962 -0.0276982 0)
(10.2592 0.0928019 0)
(10.7814 0.199339 0)
(10.9594 0.245656 0)
(10.7469 0.229144 0)
(10.5875 0.172969 0)
(10.4527 0.115535 0)
(10.33 0.0823315 0)
(10.2327 0.0647299 0)
(10.155 0.0524765 0)
(10.0894 0.0472335 0)
(10.0323 0.0469925 0)
(9.98212 0.0489901 0)
(9.93785 0.0517975 0)
(9.89833 0.0519425 0)
(9.8615 0.0483251 0)
(9.82886 0.0438431 0)
(9.79429 0.0300803 0)
(9.76827 0.0102826 0)
(9.87768 -0.24504 0)
(9.74285 0.00579116 0)
(10.1971 0.125744 0)
(10.3245 0.179364 0)
(10.3564 0.161548 0)
(10.3311 0.120077 0)
(10.2777 0.0904941 0)
(10.2252 0.0746657 0)
(10.1812 0.065875 0)
(10.1438 0.0600287 0)
(10.1103 0.0562083 0)
(10.0799 0.0536509 0)
(10.052 0.0511363 0)
(10.026 0.0487621 0)
(10.0023 0.0460754 0)
(9.98118 0.0417679 0)
(9.95915 0.0316705 0)
(9.93459 0.0135771 0)
(9.83416 -0.443933 0)
(9.57654 -0.163146 0)
(9.91603 0.0336708 0)
(10.0933 0.134225 0)
(10.1892 0.145473 0)
(10.2168 0.120739 0)
(10.205 0.0978952 0)
(10.1824 0.0839094 0)
(10.1599 0.0756295 0)
(10.1389 0.0697121 0)
(10.119 0.0651343 0)
(10.1001 0.0616374 0)
(10.0821 0.0586132 0)
(10.0648 0.0562293 0)
(10.0483 0.0538548 0)
(10.0325 0.0501449 0)
(10.0148 0.0424185 0)
(9.99178 0.0306131 0)
(9.87825 -0.387476 0)
(9.61653 -0.196147 0)
(9.81623 -0.01867 0)
(9.96136 0.0916132 0)
(10.0698 0.122197 0)
(10.1219 0.113628 0)
(10.1354 0.0992643 0)
(10.1332 0.088421 0)
(10.1257 0.0809484 0)
(10.1162 0.0753965 0)
(10.1056 0.071124 0)
(10.0946 0.0678817 0)
(10.0833 0.0652541 0)
(10.0718 0.0631565 0)
(10.0601 0.0610447 0)
(10.0477 0.0581066 0)
(10.0328 0.0530812 0)
(10.0125 0.0469033 0)
(9.91439 -0.28804 0)
(9.68304 -0.185176 0)
(9.78717 -0.0532073 0)
(9.88917 0.0509995 0)
(9.98796 0.0936802 0)
(10.0476 0.0992041 0)
(10.0751 0.0938743 0)
(10.0861 0.0875181 0)
(10.0892 0.0821204 0)
(10.0879 0.0777644 0)
(10.0842 0.0743507 0)
(10.0789 0.07176 0)
(10.0726 0.0697418 0)
(10.0654 0.068172 0)
(10.0572 0.0667259 0)
(10.0476 0.0650434 0)
(10.0354 0.0627834 0)
(10.0185 0.0611708 0)
(9.93763 -0.214041 0)
(9.74856 -0.167535 0)
(9.79244 -0.0752152 0)
(9.85608 0.0162208 0)
(9.93595 0.0644222 0)
(9.99281 0.0805954 0)
(10.0261 0.0835613 0)
(10.0447 0.0822434 0)
(10.0546 0.0797793 0)
(10.0593 0.0772873 0)
(10.0606 0.0751757 0)
(10.0596 0.0735589 0)
(10.057 0.0723892 0)
(10.053 0.0716353 0)
(10.0477 0.0711908 0)
(10.0407 0.0710161 0)
(10.0312 0.0712783 0)
(10.0182 0.0731524 0)
(9.95263 -0.167334 0)
(9.79947 -0.149676 0)
(9.81177 -0.0846411 0)
(9.84959 -0.00621004 0)
(9.9114 0.0419322 0)
(9.96107 0.0638973 0)
(9.99432 0.0725501 0)
(10.0156 0.0752862 0)
(10.0289 0.0755298 0)
(10.0367 0.0749034 0)
(10.041 0.0741477 0)
(10.0427 0.0735817 0)
(10.0425 0.0733231 0)
(10.0408 0.0734487 0)
(10.0375 0.0740059 0)
(10.0325 0.0751366 0)
(10.0254 0.077205 0)
(10.0157 0.0812048 0)
(9.96406 -0.132089 0)
(9.84003 -0.131988 0)
(9.83337 -0.0876897 0)
(9.85306 -0.0213325 0)
(9.89927 0.0244158 0)
(9.94102 0.0495132 0)
(9.97207 0.0621235 0)
(9.99385 0.0680768 0)
(10.0086 0.0706959 0)
(10.0184 0.0717945 0)
(10.0246 0.0723175 0)
(10.0282 0.0727534 0)
(10.0298 0.0733604 0)
(10.0297 0.074319 0)
(10.028 0.0757871 0)
(10.0248 0.0780079 0)
(10.0197 0.081411 0)
(10.0129 0.086808 0)
(9.97418 -0.100205 0)
(9.87757 -0.11239 0)
(9.85857 -0.0853661 0)
(9.86387 -0.0323326 0)
(9.89487 0.00892914 0)
(9.92743 0.0352242 0)
(9.95439 0.0507172 0)
(9.97502 0.059497 0)
(9.99015 0.0644441 0)
(10.0009 0.0673593 0)
(10.0085 0.069298 0)
(10.0135 0.0708778 0)
(10.0166 0.0724764 0)
(10.018 0.0743692 0)
(10.0179 0.0768019 0)
(10.0164 0.0800764 0)
(10.0136 0.084618 0)
(10.0095 0.0910432 0)
(9.98253 -0.0727091 0)
(9.91035 -0.0921962 0)
(9.88507 -0.0782441 0)
(9.88001 -0.0386073 0)
(9.89746 -0.00337371 0)
(9.92043 0.0221692 0)
(9.94196 0.0391845 0)
(9.95999 0.0500812 0)
(9.97425 0.0570563 0)
(9.98518 0.061705 0)
(9.99339 0.0650795 0)
(9.99941 0.0678634 0)
(10.0037 0.0705164 0)
(10.0064 0.0733846 0)
(10.0078 0.0767699 0)
(10.0081 0.080992 0)
(10.0073 0.0864245 0)
(10.0058 0.0935035 0)
(9.98894 -0.0502566 0)
(9.93733 -0.072378 0)
(9.91073 -0.0674479 0)
(9.89917 -0.0399825 0)
(9.90566 -0.0116495 0)
(9.91955 0.0114525 0)
(9.93496 0.0285309 0)
(9.94934 0.0405806 0)
(9.96169 0.0490247 0)
(9.97188 0.0551117 0)
(9.98009 0.0597798 0)
(9.98659 0.0637029 0)
(9.99163 0.0673714 0)
(9.99544 0.0711644 0)
(9.9982 0.0754033 0)
(10.0001 0.0803905 0)
(10.0013 0.0864262 0)
(10.0021 0.0937939 0)
(9.99348 -0.0329086 0)
(9.9582 -0.0538109 0)
(9.93368 -0.0542833 0)
(9.91898 -0.036787 0)
(9.91755 -0.0154531 0)
(9.92366 0.00399524 0)
(9.93301 0.0197758 0)
(9.94318 0.031877 0)
(9.9529 0.0410109 0)
(9.96163 0.0480208 0)
(9.96922 0.0536475 0)
(9.9757 0.0584837 0)
(9.98118 0.0629924 0)
(9.98578 0.0675414 0)
(9.98965 0.0724342 0)
(9.99294 0.077931 0)
(9.99587 0.0842537 0)
(9.9987 0.0915736 0)
(9.99643 -0.0202024 0)
(9.97327 -0.0372097 0)
(9.95261 -0.0400452 0)
(9.93731 -0.0298104 0)
(9.93089 -0.0148232 0)
(9.93102 0.000366906 0)
(9.93504 0.0137746 0)
(9.94104 0.0248431 0)
(9.94782 0.0337591 0)
(9.95465 0.0409913 0)
(9.96117 0.0470498 0)
(9.96724 0.0523947 0)
(9.97281 0.0574114 0)
(9.9779 0.0624148 0)
(9.98261 0.067659 0)
(9.98704 0.0733462 0)
(9.99135 0.0796272 0)
(9.99573 0.0865954 0)
(9.99816 -0.0112876 0)
(9.9833 -0.0229304 0)
(9.96682 -0.0257624 0)
(9.95243 -0.0200764 0)
(9.94344 -0.0102414 0)
(9.93952 0.000675386 0)
(9.9394 0.0110303 0)
(9.94183 0.0201442 0)
(9.94582 0.0279253 0)
(9.95069 0.0345718 0)
(9.95597 0.0403854 0)
(9.96139 0.0456758 0)
(9.96681 0.0507213 0)
(9.97216 0.0557536 0)
(9.97744 0.060957 0)
(9.9827 0.0664679 0)
(9.98803 0.0723757 0)
(9.99354 0.0787211 0)
(9.99906 -0.00508077 0)
(9.98922 -0.0107805 0)
(9.97612 -0.0119165 0)
(9.96309 -0.00848227 0)
(9.9531 -0.00243412 0)
(9.94685 0.0045792 0)
(9.94399 0.011558 0)
(9.94384 0.018021 0)
(9.9457 0.0238391 0)
(9.94896 0.0290807 0)
(9.95317 0.0339013 0)
(9.95799 0.0384776 0)
(9.96321 0.0429744 0)
(9.96868 0.047529 0)
(9.97435 0.0522456 0)
(9.98019 0.057194 0)
(9.98623 0.0624096 0)
(9.99249 0.0678948 0)
(9.99942 -0.000367149 0)
(9.9918 0.00015213 0)
(9.98042 0.00183285 0)
(9.96821 0.00459438 0)
(9.9579 0.00792092 0)
(9.95061 0.0114025 0)
(9.94642 0.0148176 0)
(9.94498 0.0180894 0)
(9.94576 0.0212345 0)
(9.94825 0.0243191 0)
(9.95198 0.0274246 0)
(9.95661 0.0306279 0)
(9.96186 0.0339914 0)
(9.96757 0.0375593 0)
(9.97362 0.0413552 0)
(9.97993 0.0453842 0)
(9.98648 0.0496318 0)
(9.99325 0.0540684 0)
(9.99935 0.00408488 0)
(9.9911 0.0111737 0)
(9.97897 0.016134 0)
(9.96616 0.0187376 0)
(9.95552 0.019614 0)
(9.94819 0.0195478 0)
(9.94419 0.0191611 0)
(9.94311 0.0188638 0)
(9.94438 0.0188967 0)
(9.94741 0.0193766 0)
(9.95174 0.0203445 0)
(9.95698 0.021795 0)
(9.96287 0.0236974 0)
(9.96919 0.026007 0)
(9.97583 0.0286722 0)
(9.9827 0.0316366 0)
(9.98974 0.0348421 0)
(9.99692 0.038228 0)
(9.99882 0.00972983 0)
(9.98675 0.0240492 0)
(9.97122 0.0318473 0)
(9.95641 0.0332948 0)
(9.94558 0.0307055 0)
(9.93942 0.0263518 0)
(9.93734 0.0217493 0)
(9.93845 0.0177407 0)
(9.94186 0.0146963 0)
(9.94687 0.0127119 0)
(9.95292 0.0117316 0)
(9.95963 0.0116366 0)
(9.96674 0.0122879 0)
(9.97408 0.0135496 0)
(9.98155 0.015297 0)
(9.98908 0.0174202 0)
(9.99665 0.0198226 0)
(10.0042 0.0224203 0)
(9.99757 0.01821 0)
(9.97773 0.0404557 0)
(9.95664 0.0495782 0)
(9.93945 0.0474798 0)
(9.92961 0.0394251 0)
(9.92659 0.0296487 0)
(9.92848 0.020492 0)
(9.93357 0.0129686 0)
(9.94055 0.00735032 0)
(9.94856 0.00351912 0)
(9.95704 0.00122367 0)
(9.96567 0.000174315 0)
(9.97428 0.00010769 0)
(9.98276 0.000790583 0)
(9.99109 0.00203653 0)
(9.99925 0.00369266 0)
(10.0073 0.00563699 0)
(10.0151 0.00777147 0)
(9.99502 0.0318145 0)
(9.96177 0.062134 0)
(9.93372 0.069552 0)
(9.91534 0.0601158 0)
(9.90932 0.0439519 0)
(9.91249 0.0276613 0)
(9.92084 0.0139951 0)
(9.93162 0.0036404 0)
(9.94322 -0.00364097 0)
(9.95479 -0.00837314 0)
(9.96594 -0.0111301 0)
(9.97652 -0.0123941 0)
(9.98651 -0.0125708 0)
(9.99595 -0.0119598 0)
(10.0049 -0.0107976 0)
(10.0135 -0.00925648 0)
(10.0217 -0.00746758 0)
(10.0296 -0.00552911 0)
(9.99018 0.0534618 0)
(9.93561 0.0901521 0)
(9.90098 0.0906282 0)
(9.88515 0.0687574 0)
(9.8878 0.0418195 0)
(9.90121 0.0186591 0)
(9.91856 0.00141776 0)
(9.93626 -0.0103958 0)
(9.95285 -0.0179405 0)
(9.96786 -0.0223929 0)
(9.98129 -0.0246489 0)
(9.99332 -0.0253901 0)
(10.0042 -0.0250953 0)
(10.0141 -0.0241196 0)
(10.0232 -0.0227008 0)
(10.0318 -0.0210072 0)
(10.0399 -0.0191554 0)
(10.0476 -0.0172272 0)
(9.9819 0.0862471 0)
(9.89548 0.124258 0)
(9.85817 0.109884 0)
(9.85209 0.0697742 0)
(9.87033 0.0303383 0)
(9.89842 0.00144903 0)
(9.92658 -0.0172043 0)
(9.95135 -0.0283206 0)
(9.9722 -0.0344199 0)
(9.9896 -0.0373296 0)
(10.0042 -0.0382061 0)
(10.0168 -0.0378008 0)
(10.0276 -0.0366179 0)
(10.0372 -0.0349808 0)
(10.0459 -0.0330921 0)
(10.0539 -0.0310921 0)
(10.0613 -0.0290587 0)
(10.0684 -0.0270536 0)
(9.96925 0.133989 0)
(9.83823 0.163089 0)
(9.80793 0.122591 0)
(9.82311 0.0588001 0)
(9.86512 0.00730833 0)
(9.91138 -0.0240265 0)
(9.95035 -0.0405906 0)
(9.98048 -0.0483712 0)
(10.0034 -0.0512355 0)
(10.0212 -0.0515374 0)
(10.0353 -0.0504155 0)
(10.0469 -0.0485128 0)
(10.0565 -0.0462606 0)
(10.0649 -0.0438599 0)
(10.0723 -0.0414379 0)
(10.079 -0.0390867 0)
(10.0852 -0.0368583 0)
(10.0911 -0.0347641 0)
(9.94951 0.20714 0)
(9.76128 0.207022 0)
(9.75726 0.123478 0)
(9.81042 0.0320111 0)
(9.88382 -0.0278609 0)
(9.94874 -0.0559948 0)
(9.99526 -0.0660726 0)
(10.0266 -0.0678013 0)
(10.048 -0.0659726 0)
(10.063 -0.0631918 0)
(10.0743 -0.0598831 0)
(10.083 -0.0564959 0)
(10.09 -0.0531572 0)
(10.0959 -0.0501247 0)
(10.101 -0.0472808 0)
(10.1057 -0.0446754 0)
(10.11 -0.0423214 0)
(10.1141 -0.0401936 0)
(9.91094 0.322718 0)
(9.65923 0.254545 0)
(9.71887 0.107407 0)
(9.83329 -0.0119231 0)
(9.94173 -0.0726526 0)
(10.0199 -0.0901626 0)
(10.0662 -0.0893221 0)
(10.0917 -0.0831381 0)
(10.1058 -0.0760386 0)
(10.1141 -0.0696166 0)
(10.1197 -0.064493 0)
(10.1236 -0.060081 0)
(10.1262 -0.0564007 0)
(10.1281 -0.0532014 0)
(10.1298 -0.0501633 0)
(10.1314 -0.0476199 0)
(10.1329 -0.045547 0)
(10.1344 -0.0434256 0)
(9.84404 0.43511 0)
(9.53798 0.261026 0)
(9.7269 0.0591349 0)
(9.92367 -0.0731155 0)
(10.0584 -0.121552 0)
(10.1344 -0.120192 0)
(10.1664 -0.10528 0)
(10.1758 -0.0906172 0)
(10.1759 -0.0784833 0)
(10.1725 -0.0703771 0)
(10.1686 -0.0644304 0)
(10.1646 -0.0597644 0)
(10.1606 -0.0556882 0)
(10.1569 -0.0524179 0)
(10.1536 -0.0496137 0)
(10.1503 -0.0474483 0)
(10.1479 -0.0458479 0)
(10.146 -0.043927 0)
(9.83598 0.319666 0)
(9.55021 0.0912513 0)
(9.91739 -0.0687254 0)
(10.1507 -0.160112 0)
(10.2634 -0.172136 0)
(10.3032 -0.142727 0)
(10.2978 -0.112095 0)
(10.276 -0.0899555 0)
(10.2516 -0.0753905 0)
(10.2302 -0.0674557 0)
(10.2132 -0.0619268 0)
(10.1983 -0.057442 0)
(10.1844 -0.0528835 0)
(10.1713 -0.0486266 0)
(10.1597 -0.0448465 0)
(10.1497 -0.0425167 0)
(10.141 -0.0407809 0)
(10.1325 -0.0380692 0)
(10.2049 -0.0633775 0)
(10.4095 -0.191706 0)
(10.7164 -0.282558 0)
(10.6879 -0.282287 0)
(10.6191 -0.230103 0)
(10.5417 -0.163668 0)
(10.4546 -0.117044 0)
(10.3763 -0.0925011 0)
(10.3137 -0.0798723 0)
(10.2654 -0.0678617 0)
(10.2262 -0.0588598 0)
(10.1916 -0.0542991 0)
(10.1603 -0.0534857 0)
(10.1322 -0.0530822 0)
(10.107 -0.0522528 0)
(10.0852 -0.048244 0)
(10.0638 -0.0440348 0)
(10.0436 -0.0449084 0)
(9.41631 4.45107 0)
(12.7294 2.07612 0)
(12.5649 0.621213 0)
(11.569 0.127657 0)
(10.9309 0.0034344 0)
(10.5866 -0.00206818 0)
(10.3638 0.012309 0)
(10.2022 0.0302325 0)
(10.0795 0.0411899 0)
(9.97728 0.0358285 0)
(9.88477 0.0250301 0)
(9.79908 0.0218946 0)
(9.72267 0.024985 0)
(9.65612 0.0228077 0)
(9.59984 0.0197965 0)
(9.54589 0.0108824 0)
(9.49517 -0.01439 0)
(9.45193 -0.0109349 0)
(-0.0275224 0.0934416 0)
(0.137016 -0.183505 0)
(0.324982 -0.305894 0)
(0.525469 -0.315115 0)
(0.702945 -0.272071 0)
(0.833495 -0.211079 0)
(0.909815 -0.14634 -8.60205e-20)
(0.940397 -0.0824949 8.66445e-20)
(0.919526 -0.0201725 0)
(0.858844 0.0345377 9.18649e-20)
(0.771688 0.0739609 0)
(0.672426 0.0920067 0)
(0.578501 0.087726 0)
(0.505698 0.0666659 -1.43205e-19)
(0.455744 0.0377131 0)
(0.4124 0.0099768 0)
(0.352869 -0.0089707 1.87934e-19)
(0.262713 -0.00867919 0)
(0.135173 0.0293019 0)
(-0.0448102 0.112943 0)
(-0.300518 0.186487 -1.64821e-19)
(-0.594215 0.235258 0)
(-0.915634 0.266817 -7.62409e-20)
(-1.25188 0.296034 0)
(-1.59131 0.323653 0)
(-1.93105 0.336463 -4.13231e-20)
(-2.26348 0.335615 0)
(-2.58059 0.326493 3.4541e-20)
(-2.87937 0.310355 0)
(-3.15638 0.289555 -3.13418e-20)
(-3.41073 0.266419 0)
(-3.64203 0.242539 0)
(-3.851 0.218949 0)
(-4.03874 0.196354 0)
(-4.20669 0.175133 0)
(-4.35641 0.15549 2.82299e-20)
(-4.48948 0.137462 0)
(-4.60739 0.120977 -5.55712e-20)
(-4.71152 0.105908 0)
(-4.80309 0.0920965 5.47725e-20)
(-4.88315 0.0793789 0)
(-4.95261 0.0676038 0)
(-5.0122 0.0566433 -5.35504e-20)
(-5.06257 0.0464008 0)
(-5.10421 0.0368168 -5.26586e-20)
(-5.13753 0.0278743 5.21808e-20)
(-5.16293 0.0196176 0)
(-5.1808 0.0121944 5.11539e-20)
(-5.19141 0.00585267 5.06015e-20)
(-5.19493 0.000802815 0)
(-5.19261 -0.00315087 0)
(-5.1857 -0.00644922 0)
(-5.17431 -0.00937171 0)
(-5.15879 -0.0120825 0)
(-5.13929 -0.0146511 -4.6182e-20)
(-5.11595 -0.0170912 0)
(-5.08888 -0.0194141 4.43168e-20)
(-5.05818 -0.0216288 0)
(-5.02397 -0.0237376 0)
(-4.98633 -0.0257422 -4.11387e-20)
(-4.94538 -0.0276431 0)
(-4.90122 -0.0294403 3.8763e-20)
(-4.85396 -0.0311334 0)
(-4.80371 -0.0327227 0)
(-4.7506 -0.0342079 0)
(-4.69474 -0.0355889 -3.33835e-20)
(-4.63625 -0.0368662 0)
(-4.57526 -0.0380407 0)
(-4.5119 -0.0391129 -2.87862e-20)
(-4.4463 -0.0400837 0)
(-4.37858 -0.0409543 -2.54449e-20)
(-4.30888 -0.0417263 0)
(-4.23733 -0.0424013 0)
(-4.16406 -0.0429811 0)
(-4.0892 -0.0434678 1.80675e-20)
(-4.01289 -0.0438636 0)
(-3.93525 -0.0441708 0)
(-3.8564 -0.0443919 1.18856e-20)
(-3.77648 -0.0445294 9.69182e-21)
(-3.6956 -0.0445861 0)
(-3.61389 -0.0445648 5.09006e-21)
(-3.53146 -0.0444688 0)
(-3.44841 -0.0443018 3.64144e-22)
(-3.36487 -0.0440685 0)
(-3.28092 -0.0437753 -1.01256e-20)
(-3.19667 -0.0434311 0)
(-3.11221 -0.0430486 2.13682e-20)
(-3.02761 -0.0426473 0)
(-2.94295 -0.0422561 0)
(-2.85828 -0.0419179 0)
(-2.77364 -0.0416947 -4.65599e-20)
(-2.68906 -0.0416688 0)
(-2.60454 -0.0419302 6.08349e-20)
(-2.52006 -0.0425352 0)
(-2.43557 -0.043425 -7.65046e-20)
(-2.35132 -0.0443277 -8.48831e-20)
(-2.26755 -0.0447827 -9.35914e-20)
(-2.18453 -0.044575 0)
(-2.10242 -0.0439701 0)
(-2.02124 -0.0432717 0)
(-1.941 -0.0425666 0)
(-1.86171 -0.0418664 0)
(-1.7834 -0.0411718 0)
(-1.70608 -0.0404848 0)
(-1.6298 -0.039809 0)
(-1.55455 -0.0391503 1.92702e-19)
(-1.48038 -0.0385156 2.07022e-19)
(-1.40728 -0.0379105 0)
(-1.33527 -0.0373239 0)
(-1.26438 -0.0366986 0)
(-1.19464 -0.0360408 2.74289e-19)
(-1.12607 -0.0354067 0)
(-1.05866 -0.0347911 0)
(-0.992406 -0.0341954 0)
(-0.927322 -0.0336213 0)
(-0.863403 -0.0330709 -3.90929e-19)
(-0.800648 -0.0325465 0)
(-0.739052 -0.0320514 0)
(-0.67861 -0.0315892 4.89108e-19)
(-0.619315 -0.0311613 -5.28807e-19)
(-0.561159 -0.0307712 0)
(-0.504135 -0.0304294 -6.22418e-19)
(-0.448231 -0.0301597 0)
(-0.393426 -0.0300067 7.414e-19)
(-0.3397 -0.0299813 0)
(-0.287039 -0.0300451 0)
(-0.235428 -0.030185 0)
(-0.184839 -0.0304119 0)
(-0.135245 -0.0307415 0)
(-0.0866909 -0.0311925 -2.84658e-18)
(-0.0393882 -0.0316468 -3.27728e-18)
(0.00671627 -0.0313476 0)
(0.0521327 -0.0298502 0)
(0.096872 -0.0280001 0)
(0.140792 -0.0262822 2.68478e-18)
(0.183801 -0.0247495 0)
(0.225878 -0.0233761 0)
(0.267044 -0.0221386 0)
(0.307334 -0.0210172 2.03994e-18)
(0.346777 -0.0199946 -1.93366e-18)
(0.385401 -0.0190565 0)
(0.423233 -0.0181915 0)
(0.460299 -0.0173905 -1.6869e-18)
(0.49662 -0.0166459 -1.62223e-18)
(0.532222 -0.0159515 0)
(0.567127 -0.0153022 0)
(0.601358 -0.0146937 1.46396e-18)
(0.634937 -0.0141225 -1.42047e-18)
(0.667887 -0.0135853 0)
(0.70023 -0.0130795 0)
(0.73199 -0.0126029 -1.31019e-18)
(0.763188 -0.0121535 0)
(0.793848 -0.0117294 0)
(0.823992 -0.0113292 -1.22267e-18)
(0.853644 -0.0109515 0)
(0.882827 -0.0105949 -1.17359e-18)
(0.911564 -0.0102584 0)
(0.939879 -0.00994091 0)
(0.967795 -0.0096413 0)
(0.995334 -0.00935851 1.09159e-18)
(1.02252 -0.00909144 0)
(1.04937 -0.00883882 0)
(1.0759 -0.00859918 0)
(1.10213 -0.00837073 0)
(1.12806 -0.00815122 0)
(1.15371 -0.00793771 0)
(1.17906 -0.00772635 9.82777e-19)
(1.20409 -0.00751198 9.69856e-19)
(1.22877 -0.00728762 0)
(1.25301 -0.00704373 0)
(1.27673 -0.00676679 0)
(1.29974 -0.00643822 -9.24508e-19)
(1.32182 -0.00602828 0)
(1.34255 -0.00549826 1.81391e-18)
(1.36149 -0.00476113 -1.80053e-18)
(1.37724 -0.00372544 -1.7918e-18)
(1.38983 -0.00195409 1.7901e-18)
(1.39025 0.0013275 -1.79548e-18)
(1.38755 0.00807511 1.8088e-18)
(1.30829 0.0198889 0)
(0.0963172 -0.268973 0)
(0.334073 -0.681267 0)
(0.514179 -0.706523 1.57363e-19)
(0.61182 -0.571349 0)
(0.662817 -0.408901 -1.11141e-19)
(0.683258 -0.253829 -1.08106e-19)
(0.677233 -0.112178 -5.62557e-20)
(0.646862 0.0155801 -5.62009e-20)
(0.603885 0.125399 0)
(0.544692 0.211921 -6.08093e-20)
(0.467882 0.2674 0)
(0.373399 0.283204 0)
(0.257598 0.256439 1.70494e-19)
(0.110269 0.211439 9.82862e-20)
(-0.0747553 0.206281 -1.8447e-19)
(-0.301021 0.271825 -1.43805e-19)
(-0.578995 0.383396 -5.71926e-20)
(-0.904922 0.513231 0)
(-1.25851 0.642595 0)
(-1.61661 0.756425 0)
(-1.97223 0.841984 -2.85765e-20)
(-2.31782 0.895554 0)
(-2.64772 0.919042 6.9066e-20)
(-2.95444 0.915464 0)
(-3.23394 0.88903 0)
(-3.48458 0.844865 1.98202e-20)
(-3.70496 0.788299 0)
(-3.89591 0.724865 -1.97624e-20)
(-4.0593 0.658791 -4.17991e-20)
(-4.19869 0.59279 2.01692e-20)
(-4.31698 0.528964 0)
(-4.41708 0.469096 0)
(-4.50169 0.414016 0)
(-4.57322 0.364077 -4.42604e-20)
(-4.63374 0.319238 -4.47667e-20)
(-4.68492 0.279228 -2.21905e-20)
(-4.72815 0.243636 0)
(-4.76454 0.21198 4.53088e-20)
(-4.79498 0.183763 0)
(-4.82018 0.158503 -4.58805e-20)
(-4.84075 0.135759 0)
(-4.85715 0.115138 0)
(-4.86983 0.0962988 4.60909e-20)
(-4.87915 0.0789502 0)
(-4.88545 0.0628522 1.38174e-19)
(-4.88905 0.0478103 -4.56114e-20)
(-4.89022 0.0336893 0)
(-4.88921 0.0204584 -4.49422e-20)
(-4.88628 0.00823412 -4.44855e-20)
(-4.88169 -0.00282162 0)
(-4.87454 -0.0127646 0)
(-4.86372 -0.0218907 0)
(-4.84921 -0.030443 0)
(-4.83092 -0.0385361 0)
(-4.80888 -0.0462397 4.02194e-20)
(-4.78314 -0.0535907 7.91693e-20)
(-4.75378 -0.0606102 -3.84421e-20)
(-4.72089 -0.0673095 0)
(-4.68456 -0.0736944 7.34909e-20)
(-4.64487 -0.0797675 -3.59691e-20)
(-4.60193 -0.0855295 0)
(-4.55584 -0.0909801 -3.32691e-20)
(-4.5067 -0.0961194 0)
(-4.45463 -0.100949 0)
(-4.39973 -0.10547 -5.98963e-20)
(-4.34212 -0.109682 2.83875e-20)
(-4.28192 -0.113586 -5.47046e-20)
(-4.21925 -0.117186 5.19858e-20)
(-4.15424 -0.120484 2.42958e-20)
(-4.08701 -0.123485 0)
(-4.0177 -0.126194 2.13628e-20)
(-3.94641 -0.128618 0)
(-3.8733 -0.130761 0)
(-3.79848 -0.132633 0)
(-3.72208 -0.134241 1.56363e-20)
(-3.64422 -0.135594 0)
(-3.56504 -0.1367 2.37697e-20)
(-3.48466 -0.13757 -2.99788e-20)
(-3.40319 -0.138215 -7.9432e-21)
(-3.32077 -0.138644 0)
(-3.23749 -0.138869 -4.14251e-21)
(-3.15348 -0.138901 0)
(-3.06885 -0.138753 -2.941e-22)
(-2.98369 -0.138436 0)
(-2.89812 -0.137963 8.11187e-21)
(-2.81222 -0.137346 -2.35656e-20)
(-2.7261 -0.136595 -1.69652e-20)
(-2.63985 -0.135722 0)
(-2.55355 -0.134735 0)
(-2.46729 -0.133639 0)
(-2.38118 -0.132433 3.61833e-20)
(-2.29533 -0.131109 0)
(-2.20987 -0.129639 -4.66548e-20)
(-2.12495 -0.127968 0)
(-2.0407 -0.126042 1.71877e-19)
(-1.95722 -0.123887 6.36311e-20)
(-1.87449 -0.121604 6.96625e-20)
(-1.79248 -0.119299 0)
(-1.71115 -0.11703 0)
(-1.63055 -0.114796 0)
(-1.55077 -0.112574 0)
(-1.47184 -0.11035 0)
(-1.39381 -0.108119 2.1949e-19)
(-1.31671 -0.105882 2.34982e-19)
(-1.24056 -0.103643 0)
(-1.16541 -0.101404 -1.3476e-19)
(-1.09127 -0.0991678 -1.43539e-19)
(-1.01817 -0.0969368 0)
(-0.946125 -0.0947127 -3.23033e-19)
(-0.875163 -0.0924998 0)
(-0.805273 -0.0903117 1.81322e-19)
(-0.736463 -0.0881543 0)
(-0.668745 -0.0860276 0)
(-0.602124 -0.0839342 -4.34446e-19)
(-0.536601 -0.0818755 0)
(-0.472178 -0.0798529 2.4483e-19)
(-0.408855 -0.0778697 0)
(-0.34663 -0.0759313 0)
(-0.285497 -0.0740467 2.89766e-19)
(-0.225447 -0.072214 3.09071e-19)
(-0.166474 -0.0704276 0)
(-0.108573 -0.0686906 -3.46364e-19)
(-0.0517467 -0.0670032 0)
(0.00400596 -0.0653567 3.82634e-19)
(0.0587271 -0.0637444 7.66185e-19)
(0.11245 -0.0621775 0)
(0.165176 -0.0606708 0)
(0.216904 -0.0592287 0)
(0.26765 -0.0578489 0)
(0.317446 -0.0565338 7.09232e-19)
(0.366362 -0.0552723 2.09642e-18)
(0.414485 -0.0538942 0)
(0.461727 -0.0522491 0)
(0.507948 -0.0504753 0)
(0.553218 -0.0487287 -6.6562e-19)
(0.597618 -0.0470612 0)
(0.641175 -0.0454812 0)
(0.683909 -0.0439862 1.28792e-18)
(0.725838 -0.0425697 6.36941e-19)
(0.766986 -0.0412243 6.32417e-19)
(0.807374 -0.0399433 0)
(0.847022 -0.0387213 0)
(0.885953 -0.0375539 6.15873e-19)
(0.924187 -0.0364374 -6.09637e-19)
(0.961746 -0.0353687 0)
(0.998652 -0.0343455 0)
(1.03493 -0.0333655 -5.96779e-19)
(1.07059 -0.032427 1.77636e-18)
(1.10566 -0.0315283 0)
(1.14017 -0.030668 0)
(1.17412 -0.0298448 5.80311e-19)
(1.20756 -0.0290577 0)
(1.24049 -0.0283054 1.14491e-18)
(1.27294 -0.0275871 -5.68525e-19)
(1.30493 -0.0269017 0)
(1.33649 -0.0262482 5.62411e-19)
(1.36763 -0.0256257 1.11754e-18)
(1.39838 -0.0250331 0)
(1.42875 -0.024469 0)
(1.45878 -0.0239321 -5.49577e-19)
(1.48847 -0.0234205 0)
(1.51786 -0.022932 1.08644e-18)
(1.54694 -0.0224637 0)
(1.57574 -0.0220118 0)
(1.60426 -0.0215712 0)
(1.63251 -0.0211354 0)
(1.66048 -0.0206954 -5.29003e-19)
(1.68814 -0.0202391 -5.26236e-19)
(1.71547 -0.0197501 0)
(1.7424 -0.0192058 0)
(1.76885 -0.0185746 0)
(1.79466 -0.0178108 5.16142e-19)
(1.81964 -0.0168474 0)
(1.84346 -0.0155813 -1.02487e-18)
(1.86569 -0.0138355 1.02261e-18)
(1.88543 -0.0113255 1.02223e-18)
(1.90223 -0.00731063 1.02332e-18)
(1.91244 -0.000520166 1.02848e-18)
(1.92474 0.0124234 1.02037e-18)
(1.90518 0.0361852 0)
(0.116442 -0.859709 0)
(0.269018 -1.05683 0)
(0.316112 -0.826014 -1.26332e-19)
(0.31542 -0.584242 -1.08171e-19)
(0.29799 -0.373777 1.0049e-19)
(0.266782 -0.18865 1.00671e-19)
(0.220601 -0.0231903 -6.44939e-22)
(0.158706 0.124553 0)
(0.0809704 0.255096 0)
(-0.0138421 0.366014 0)
(-0.129288 0.451726 0)
(-0.273432 0.512789 0)
(-0.45919 0.566614 -2.67341e-19)
(-0.697048 0.641348 0)
(-0.983271 0.753902 6.62784e-20)
(-1.302 0.895868 5.71773e-20)
(-1.63529 1.04398 0)
(-1.96622 1.17799 0)
(-2.27956 1.28538 0)
(-2.56345 1.35908 0)
(-2.81256 1.39483 3.4905e-20)
(-3.0265 1.39239 0)
(-3.20665 1.35643 -3.23476e-20)
(-3.35584 1.29419 0)
(-3.47855 1.21299 0)
(-3.57937 1.11922 0)
(-3.66313 1.01897 -6.85897e-20)
(-3.73417 0.917582 0)
(-3.79604 0.819175 3.31183e-20)
(-3.85149 0.72655 -7.07031e-20)
(-3.90247 0.641221 0)
(-3.95026 0.563924 0)
(-3.99562 0.494711 0)
(-4.03892 0.433195 3.65654e-20)
(-4.08025 0.37873 3.71528e-20)
(-4.11959 0.330541 0)
(-4.15679 0.287834 0)
(-4.19167 0.249847 -7.78025e-20)
(-4.22407 0.215886 -7.81954e-20)
(-4.25381 0.18534 7.84284e-20)
(-4.28075 0.157691 0)
(-4.30479 0.132511 0)
(-4.32582 0.109449 0)
(-4.34377 0.0882236 0)
(-4.35859 0.0685995 -7.70118e-20)
(-4.37022 0.0503773 -7.69138e-20)
(-4.37858 0.0333728 7.62708e-20)
(-4.38355 0.0173849 0)
(-4.38495 0.0021575 0)
(-4.38261 -0.012596 0)
(-4.37649 -0.0270086 0)
(-4.36665 -0.0409937 -7.11071e-20)
(-4.35313 -0.0544594 0)
(-4.33597 -0.0673945 0)
(-4.31522 -0.0798032 -6.69954e-20)
(-4.29092 -0.0916943 -6.49697e-20)
(-4.26314 -0.103075 0)
(-4.23196 -0.11395 1.24571e-19)
(-4.19744 -0.124321 -6.00317e-20)
(-4.15968 -0.134188 5.82551e-20)
(-4.11876 -0.143548 0)
(-4.07478 -0.152401 0)
(-4.02784 -0.160744 0)
(-3.97804 -0.168576 0)
(-3.92549 -0.1759 4.84234e-20)
(-3.8703 -0.182718 9.37777e-20)
(-3.81258 -0.18903 4.40581e-20)
(-3.75246 -0.194837 -4.17859e-20)
(-3.69005 -0.200147 0)
(-3.62547 -0.204966 7.54265e-20)
(-3.55886 -0.209302 7.05434e-20)
(-3.49032 -0.213164 6.55439e-20)
(-3.41999 -0.216562 -6.04287e-20)
(-3.34799 -0.219508 0)
(-3.27445 -0.222014 -7.41017e-20)
(-3.19948 -0.224095 0)
(-3.12322 -0.225764 2.00963e-20)
(-3.04579 -0.227036 1.58732e-20)
(-2.9673 -0.227929 0)
(-2.88787 -0.228458 0)
(-2.80762 -0.228641 1.53636e-20)
(-2.72665 -0.228495 0)
(-2.64509 -0.22804 2.92931e-21)
(-2.56304 -0.227293 0)
(-2.48059 -0.226273 9.99348e-21)
(-2.39786 -0.225001 3.47146e-20)
(-2.31494 -0.223495 0)
(-2.23193 -0.221774 0)
(-2.14892 -0.219858 0)
(-2.06602 -0.217764 4.45776e-20)
(-1.9833 -0.215506 0)
(-1.90089 -0.213097 5.93988e-20)
(-1.81886 -0.210537 0)
(-1.73731 -0.207812 0)
(-1.65631 -0.204896 -1.67042e-19)
(-1.5759 -0.201773 0)
(-1.49609 -0.198457 -9.9307e-20)
(-1.4169 -0.194991 0)
(-1.33834 -0.191433 -1.16586e-19)
(-1.26047 -0.187821 0)
(-1.18337 -0.184174 0)
(-1.10707 -0.180497 0)
(-1.03162 -0.176799 -4.62668e-19)
(-0.957047 -0.173085 -1.65035e-19)
(-0.883393 -0.169363 0)
(-0.81068 -0.165639 0)
(-0.738933 -0.161918 0)
(-0.668174 -0.158207 0)
(-0.598421 -0.154509 2.18829e-19)
(-0.529684 -0.15083 -4.58446e-19)
(-0.46197 -0.14718 -2.42661e-19)
(-0.395291 -0.143566 5.07636e-19)
(-0.329657 -0.139995 5.33432e-19)
(-0.265073 -0.136473 2.81365e-19)
(-0.201542 -0.133001 0)
(-0.139065 -0.12958 6.16197e-19)
(-0.0776426 -0.126213 0)
(-0.017277 -0.122904 -6.73531e-19)
(0.0420382 -0.119653 -3.45151e-19)
(0.100317 -0.116462 0)
(0.157565 -0.113333 6.93108e-19)
(0.213788 -0.11027 3.48823e-19)
(0.268996 -0.107273 0)
(0.3232 -0.104332 3.48717e-19)
(0.376409 -0.101436 -1.05279e-18)
(0.42863 -0.0985948 0)
(0.479877 -0.0958182 0)
(0.530168 -0.0931091 0)
(0.57952 -0.0904683 0)
(0.627955 -0.0879002 -7.07735e-19)
(0.675508 -0.0854121 -7.10227e-19)
(0.722201 -0.0830188 0)
(0.768002 -0.0807076 0)
(0.812894 -0.0784392 0)
(0.85693 -0.0762125 0)
(0.900154 -0.0740437 0)
(0.942581 -0.0719412 0)
(0.984225 -0.0699079 -7.14004e-19)
(1.0251 -0.0679435 -1.0888e-21)
(1.06523 -0.0660463 0)
(1.10463 -0.0642145 0)
(1.14332 -0.0624459 -7.13839e-19)
(1.18132 -0.0607387 0)
(1.21865 -0.0590914 7.14888e-19)
(1.25533 -0.0575024 7.14027e-19)
(1.29138 -0.0559704 0)
(1.32683 -0.0544942 0)
(1.36168 -0.0530727 -7.1456e-19)
(1.39597 -0.0517049 -1.42732e-18)
(1.42972 -0.0503897 0)
(1.46294 -0.0491263 0)
(1.49566 -0.0479136 0)
(1.52789 -0.0467508 -7.13254e-19)
(1.55967 -0.045637 7.12872e-19)
(1.591 -0.0445711 0)
(1.62192 -0.0435522 1.42287e-18)
(1.65244 -0.042579 7.10415e-19)
(1.68258 -0.0416501 -1.42081e-18)
(1.71237 -0.0407641 0)
(1.74183 -0.0399187 0)
(1.77097 -0.0391115 -1.41701e-18)
(1.79981 -0.0383392 -7.08215e-19)
(1.82838 -0.0375973 0)
(1.85667 -0.0368802 0)
(1.88471 -0.0361803 0)
(1.9125 -0.0354875 0)
(1.94002 -0.0347882 -1.40688e-18)
(1.96728 -0.0340641 0)
(1.99423 -0.0332902 0)
(2.02084 -0.0324324 0)
(2.04702 -0.0314427 0)
(2.07266 -0.0302528 0)
(2.09759 -0.0287619 0)
(2.12155 -0.0268186 -1.39754e-18)
(2.1442 -0.0241712 0)
(2.16487 -0.0204146 0)
(2.18333 -0.0147564 -2.8163e-18)
(2.19677 -0.00587912 1.41817e-18)
(2.21146 0.00887474 -1.41629e-18)
(2.20637 0.0362532 1.41174e-18)
(0.0333226 -1.16607 0)
(0.0696847 -1.02977 3.59942e-19)
(0.033932 -0.746806 0)
(-0.0105246 -0.506328 1.1088e-19)
(-0.0658593 -0.283609 0)
(-0.133724 -0.0740205 0)
(-0.216969 0.122833 -8.28088e-20)
(-0.317967 0.306215 0)
(-0.438845 0.475685 0)
(-0.582208 0.631799 0)
(-0.75191 0.777094 0)
(-0.953162 0.917669 0)
(-1.18859 1.06164 2.04199e-19)
(-1.45262 1.21241 9.24372e-20)
(-1.73076 1.36373 -8.36891e-20)
(-2.00467 1.50226 0)
(-2.25858 1.61416 0)
(-2.48247 1.69009 0)
(-2.67154 1.72633 0)
(-2.82437 1.72415 0)
(-2.94352 1.6874 6.01637e-20)
(-3.03455 1.62132 5.8847e-20)
(-3.10354 1.53276 -5.7994e-20)
(-3.15684 1.42939 5.76924e-20)
(-3.19984 1.31789 0)
(-3.23686 1.20368 0)
(-3.2714 1.09112 5.58454e-20)
(-3.30578 0.983491 0)
(-3.3413 0.882912 0)
(-3.37846 0.790427 5.86997e-20)
(-3.41727 0.706277 6.15177e-20)
(-3.45738 0.630234 6.22293e-20)
(-3.49827 0.56177 0)
(-3.53931 0.500187 0)
(-3.57989 0.444725 -6.40394e-20)
(-3.61945 0.394628 0)
(-3.6575 0.349185 0)
(-3.69363 0.307753 6.43123e-20)
(-3.72748 0.269766 -6.60324e-20)
(-3.75878 0.234737 6.60428e-20)
(-3.7873 0.202251 0)
(-3.81287 0.171956 0)
(-3.83532 0.143558 1.30019e-19)
(-3.85453 0.116805 0)
(-3.8704 0.0914848 1.2863e-19)
(-3.88282 0.0674219 1.91042e-19)
(-3.89172 0.0444722 -1.894e-19)
(-3.89704 0.0225153 1.25332e-19)
(-3.89872 0.0014342 0)
(-3.89678 -0.0188871 0)
(-3.89124 -0.0385267 1.19876e-19)
(-3.88216 -0.0575036 5.84071e-20)
(-3.86958 -0.0758137 0)
(-3.85352 -0.0934558 0)
(-3.83403 -0.110429 5.49009e-20)
(-3.81116 -0.126734 1.08252e-19)
(-3.78495 -0.142368 0)
(-3.75548 -0.157328 -1.01799e-19)
(-3.72281 -0.171611 9.99699e-20)
(-3.68702 -0.185212 -9.6998e-20)
(-3.64819 -0.198127 0)
(-3.60641 -0.21035 0)
(-3.56177 -0.221874 0)
(-3.51437 -0.232699 0)
(-3.46431 -0.242829 0)
(-3.41171 -0.252263 -7.59249e-20)
(-3.35666 -0.261001 0)
(-3.29928 -0.269047 0)
(-3.23968 -0.276409 0)
(-3.17799 -0.283095 -1.22626e-19)
(-3.11431 -0.289116 -5.67055e-20)
(-3.04878 -0.294484 -5.26043e-20)
(-2.98151 -0.299213 9.80435e-20)
(-2.91261 -0.303319 -4.53642e-20)
(-2.84222 -0.306818 3.98123e-20)
(-2.77045 -0.309729 0)
(-2.69743 -0.312072 -3.08897e-20)
(-2.62326 -0.313867 0)
(-2.54806 -0.315137 0)
(-2.47196 -0.315903 0)
(-2.39505 -0.31619 -2.54933e-20)
(-2.31746 -0.31602 8.48677e-21)
(-2.23928 -0.315418 4.76928e-21)
(-2.16063 -0.314408 -2.97849e-21)