/*--------------------------------*- C++ -*----------------------------------*\
  =========                 |
  \\      /  F ield         | OpenFOAM: The Open Source CFD Toolbox
   \\    /   O peration     | Website:  https://openfoam.org
    \\  /    A nd           | Version:  8
     \\/     M anipulation  |
\*---------------------------------------------------------------------------*/
FoamFile
{
    version     2.0;
    format      ascii;
    class       volScalarField;
    location    "300";
    object      k;
}
// * * * * * * * * * * * * * * * * * * * * * * * * * * * * * * * * * * * * * //

dimensions      [0 2 -2 0 0 0 0];

internalField   nonuniform List<scalar> 
12225
(
0.362408
0.343861
0.32702
0.309387
0.294618
0.283328
0.275081
0.271274
0.271602
0.274508
0.279666
0.285289
0.295685
0.302336
0.314564
0.32092
0.334794
0.333669
0.443845
0.475223
0.467981
0.456054
0.458803
0.46821
0.486809
0.513733
0.541785
0.572311
0.602861
0.630385
0.659372
0.680772
0.707393
0.721399
0.746759
0.753225
0.390838
0.420043
0.42329
0.420251
0.415152
0.411698
0.412126
0.414514
0.419594
0.427126
0.436909
0.446588
0.45853
0.469013
0.481215
0.492051
0.502744
0.514541
0.377523
0.386526
0.39154
0.391903
0.39103
0.389033
0.38697
0.385493
0.384388
0.384433
0.384894
0.3859
0.387759
0.389858
0.392265
0.395369
0.397686
0.401633
0.374426
0.37554
0.377733
0.37818
0.377876
0.377023
0.375508
0.373905
0.372284
0.370793
0.3696
0.368449
0.367664
0.36701
0.366551
0.366319
0.366143
0.366303
0.373811
0.372365
0.372053
0.371647
0.370985
0.37011
0.368964
0.36762
0.36622
0.36473
0.363344
0.361935
0.360649
0.359424
0.358281
0.357264
0.356247
0.355465
0.37381
0.371634
0.370037
0.368729
0.367529
0.366349
0.365152
0.363876
0.362592
0.361248
0.359935
0.35861
0.357325
0.356074
0.354857
0.353712
0.352573
0.351554
0.37383
0.371553
0.369558
0.36781
0.366247
0.364792
0.363421
0.362069
0.360757
0.359444
0.358163
0.356896
0.355658
0.354454
0.353276
0.352153
0.351042
0.350011
0.373834
0.371556
0.36944
0.367496
0.365721
0.364075
0.362547
0.361092
0.359709
0.358371
0.357079
0.355827
0.354611
0.353437
0.352293
0.351199
0.350124
0.349114
0.373832
0.371561
0.369418
0.3674
0.365516
0.363751
0.362101
0.360547
0.359079
0.357684
0.356353
0.35508
0.353858
0.352688
0.351558
0.350479
0.34943
0.348438
0.373829
0.371561
0.369413
0.367378
0.365454
0.363637
0.361923
0.360303
0.358772
0.357321
0.355944
0.354635
0.353387
0.352199
0.35106
0.349977
0.348933
0.347945
0.373828
0.371558
0.369408
0.367369
0.365436
0.363602
0.361864
0.360216
0.358652
0.357168
0.355759
0.35442
0.353145
0.351934
0.350777
0.349679
0.348626
0.347628
0.373827
0.371555
0.369403
0.367362
0.365425
0.363587
0.361842
0.360184
0.358608
0.357111
0.355686
0.354332
0.353042
0.351815
0.350645
0.349531
0.348468
0.347457
0.373826
0.371554
0.369399
0.367356
0.365417
0.363576
0.361828
0.360167
0.358587
0.357085
0.355655
0.354294
0.352998
0.351763
0.350586
0.349465
0.348395
0.347376
0.373826
0.371552
0.369396
0.367351
0.365411
0.363568
0.361818
0.360154
0.358572
0.357068
0.355635
0.354272
0.352972
0.351735
0.350555
0.34943
0.348357
0.347334
0.373825
0.371551
0.369394
0.367348
0.365406
0.363562
0.36181
0.360145
0.358562
0.357055
0.355621
0.354255
0.352955
0.351715
0.350534
0.349407
0.348332
0.347307
0.373825
0.371551
0.369393
0.367346
0.365403
0.363558
0.361805
0.360139
0.358554
0.357046
0.355611
0.354244
0.352942
0.351701
0.350518
0.34939
0.348314
0.347287
0.373825
0.37155
0.369393
0.367345
0.365402
0.363556
0.361803
0.360136
0.35855
0.357042
0.355606
0.354238
0.352935
0.351694
0.35051
0.349381
0.348304
0.347277
0.373825
0.371551
0.369393
0.367345
0.365402
0.363557
0.361803
0.360136
0.35855
0.357042
0.355606
0.354238
0.352935
0.351693
0.350509
0.34938
0.348303
0.347275
0.373825
0.371551
0.369393
0.367347
0.365404
0.363559
0.361805
0.360139
0.358554
0.357045
0.35561
0.354242
0.35294
0.351698
0.350515
0.349386
0.348309
0.347282
0.373825
0.371551
0.369395
0.367349
0.365407
0.363562
0.36181
0.360145
0.358561
0.357054
0.355621
0.354255
0.352955
0.351716
0.350536
0.34941
0.348336
0.347311
0.373826
0.371552
0.369396
0.367351
0.365411
0.36357
0.361822
0.360162
0.358586
0.357087
0.355663
0.354307
0.353017
0.351787
0.350616
0.349498
0.348433
0.347415
0.373826
0.371553
0.369398
0.367358
0.365429
0.363606
0.361882
0.360251
0.358706
0.357239
0.355844
0.354516
0.353249
0.352039
0.350884
0.349778
0.348721
0.347706
0.373827
0.371548
0.369411
0.367419
0.365561
0.363828
0.3622
0.36066
0.359194
0.357791
0.356444
0.355147
0.353897
0.352692
0.351531
0.35041
0.349333
0.348292
0.373814
0.371554
0.369597
0.367867
0.366291
0.364819
0.36339
0.361983
0.360587
0.359204
0.357836
0.356491
0.355175
0.353893
0.352652
0.351449
0.350296
0.349182
0.373751
0.371959
0.370925
0.369944
0.368939
0.36779
0.366436
0.364948
0.363378
0.361776
0.360181
0.358617
0.357111
0.355668
0.354306
0.353011
0.35181
0.350669
0.374112
0.375061
0.376551
0.376422
0.375737
0.374151
0.372017
0.36979
0.367569
0.365465
0.363529
0.361771
0.360241
0.35889
0.357741
0.356739
0.355951
0.355249
0.377866
0.390851
0.393884
0.392212
0.388453
0.383662
0.37952
0.37623
0.373579
0.371742
0.370573
0.37003
0.370127
0.370466
0.371252
0.372333
0.373767
0.375229
0.402933
0.419146
0.414449
0.403761
0.395206
0.389469
0.388453
0.389396
0.391736
0.396188
0.401499
0.407648
0.414066
0.420919
0.427664
0.434626
0.441279
0.448108
0.366714
0.354826
0.344191
0.333281
0.322854
0.312974
0.304201
0.296722
0.290261
0.284951
0.280671
0.277302
0.274796
0.27293
0.271789
0.271022
0.270893
0.271064
0.000522601
0.00308396
0.00577449
0.00814202
0.0103804
0.0129031
0.0158348
0.0193469
0.0235431
0.0284154
0.033872
0.0397818
0.0460105
0.0524393
0.0589662
0.0655073
0.0719893
0.0783522
0.0845412
0.0905132
0.0962268
0.101652
0.106755
0.111513
0.11589
0.11985
0.12333
0.12625
0.128495
0.129963
0.130451
0.129299
0.125924
0.119254
0.123066
0.127334
0.132008
0.134607
0.139118
0.143608
0.148594
0.151861
0.147553
0.157611
0.164024
0.172046
0.179611
0.187711
0.195777
0.204125
0.212568
0.221208
0.229985
0.238932
0.248029
0.257286
0.266697
0.276263
0.285981
0.295852
0.305871
0.316037
0.326347
0.336798
0.347385
0.358104
0.36895
0.379919
0.391004
0.402199
0.413496
0.42489
0.436371
0.447933
0.459566
0.471261
0.483009
0.494801
0.506625
0.518472
0.53033
0.542189
0.554035
0.565859
0.577645
0.589383
0.601058
0.612656
0.624161
0.635557
0.646826
0.657947
0.668899
0.67966
0.690206
0.700522
0.710605
0.720487
0.73023
0.739706
0.748973
0.757996
0.76678
0.775308
0.783571
0.791559
0.799262
0.806671
0.813775
0.820566
0.827036
0.833177
0.838981
0.844442
0.849553
0.854308
0.858702
0.86273
0.866388
0.869673
0.872582
0.875113
0.877264
0.879035
0.880425
0.881434
0.882059
0.882294
0.882178
0.881773
0.880896
0.879643
0.877954
0.875987
0.873729
0.871059
0.868062
0.864725
0.861062
0.857079
0.852785
0.848188
0.843303
0.838135
0.832691
0.826983
0.82102
0.814813
0.808372
0.801708
0.794832
0.787753
0.780484
0.773035
0.765417
0.757641
0.74972
0.741665
0.733487
0.725202
0.716827
0.708391
0.699982
0.692371
0.687844
0.684219
0.680627
0.676996
0.673319
0.669599
0.665838
0.662035
0.658184
0.654268
0.65025
0.64605
0.64151
0.636195
0.62919
0.603495
0.00269846
0.0113669
0.0173077
0.0217145
0.0255838
0.0293492
0.0333675
0.0378493
0.0428896
0.0484837
0.0545627
0.0610274
0.0677731
0.0747037
0.0817358
0.0888
0.0958369
0.102798
0.10964
0.116332
0.122844
0.129157
0.135251
0.141111
0.146715
0.152036
0.157039
0.161685
0.165939
0.169768
0.173154
0.176262
0.179513
0.183813
0.191401
0.19978
0.208936
0.218513
0.229511
0.241892
0.255797
0.271338
0.28189
0.293925
0.306097
0.318932
0.332056
0.345567
0.359395
0.373554
0.388023
0.402809
0.417907
0.433319
0.449044
0.465085
0.481442
0.498115
0.515105
0.532411
0.550033
0.56797
0.586219
0.604778
0.623644
0.642813
0.662278
0.682036
0.702077
0.722397
0.742984
0.763831
0.784927
0.80626
0.827819
0.849591
0.871561
0.893714
0.916036
0.93851
0.961118
0.983841
1.00666
1.02956
1.05252
1.0755
1.09851
1.1215
1.14445
1.16734
1.19015
1.21283
1.23536
1.2577
1.2798
1.30163
1.32312
1.3442
1.36483
1.38518
1.40522
1.42492
1.44428
1.46327
1.48186
1.50004
1.51778
1.53507
1.55188
1.56818
1.58398
1.59923
1.61393
1.62807
1.64161
1.65456
1.66688
1.67858
1.68964
1.70004
1.70978
1.71885
1.72724
1.73494
1.74196
1.74828
1.7539
1.75883
1.76307
1.76662
1.76947
1.77158
1.77282
1.77343
1.77355
1.7729
1.77157
1.76957
1.76691
1.7636
1.75965
1.75507
1.74989
1.7441
1.73773
1.73079
1.7233
1.71527
1.70673
1.69769
1.68816
1.67818
1.66774
1.65689
1.64562
1.63397
1.62195
1.60959
1.5969
1.5839
1.57063
1.55711
1.54339
1.52968
1.51639
1.50313
1.48973
1.4762
1.46255
1.44881
1.43498
1.42109
1.40714
1.39313
1.37902
1.3648
1.35029
1.33547
1.31897
1.28274
0.00579903
0.0197055
0.0276648
0.0335555
0.0387601
0.0438177
0.0490314
0.0545813
0.0605535
0.0669588
0.0737557
0.0808753
0.0882403
0.0957777
0.103424
0.111127
0.118845
0.126544
0.1342
0.141797
0.149326
0.156789
0.164193
0.171553
0.17889
0.186234
0.193622
0.201103
0.208728
0.216575
0.224756
0.233445
0.242867
0.253275
0.264898
0.277413
0.29061
0.304612
0.319382
0.334914
0.350934
0.367204
0.382689
0.39864
0.414937
0.431692
0.448851
0.466416
0.484374
0.502721
0.521451
0.540564
0.560058
0.579934
0.60019
0.620828
0.641847
0.663248
0.685029
0.707189
0.729727
0.75264
0.775925
0.799578
0.823593
0.847966
0.872689
0.897755
0.923155
0.948879
0.974917
1.00126
1.02789
1.05479
1.08195
1.10936
1.137
1.16485
1.19288
1.22109
1.24944
1.27792
1.30651
1.33517
1.36389
1.39263
1.42138
1.4501
1.47876
1.50734
1.5358
1.5641
1.59223
1.62014
1.6478
1.67519
1.70226
1.729
1.7554
1.78143
1.80708
1.83231
1.8571
1.8814
1.9052
1.92847
1.95118
1.97329
1.9948
2.01566
2.03585
2.05536
2.07415
2.09221
2.10951
2.12603
2.14176
2.15668
2.17077
2.18401
2.19641
2.20793
2.21858
2.22835
2.23722
2.2452
2.25228
2.25847
2.26375
2.26814
2.27162
2.27418
2.27569
2.27632
2.27625
2.27524
2.27335
2.2706
2.267
2.26256
2.2573
2.25123
2.24438
2.23676
2.22838
2.21928
2.20947
2.19897
2.18781
2.17601
2.16359
2.15057
2.13699
2.12285
2.1082
2.09305
2.07744
2.06138
2.0449
2.02804
2.01082
1.99329
1.97549
1.95759
1.93976
1.92187
1.90382
1.88561
1.86727
1.84883
1.8303
1.81172
1.79311
1.77448
1.75586
1.73727
1.71864
1.7001
1.68038
1.64879
0.00940266
0.0276749
0.0375222
0.0446921
0.0509354
0.0569042
0.0629334
0.069213
0.0758392
0.082839
0.0901912
0.0978472
0.105748
0.113836
0.122061
0.130383
0.138774
0.147214
0.155693
0.164212
0.17278
0.181417
0.190154
0.199031
0.208098
0.217409
0.227022
0.236995
0.247387
0.258258
0.269674
0.281707
0.294426
0.307881
0.322086
0.336986
0.352546
0.368782
0.385657
0.403108
0.421027
0.439291
0.457741
0.476547
0.495731
0.515332
0.535357
0.555811
0.576698
0.598017
0.61977
0.641956
0.664578
0.687635
0.711129
0.73506
0.75943
0.784238
0.809485
0.835168
0.861287
0.887839
0.914821
0.942229
0.970057
0.9983
1.02695
1.056
1.08544
1.11526
1.14544
1.17598
1.20686
1.23806
1.26957
1.30136
1.33343
1.36574
1.39829
1.43103
1.46396
1.49704
1.53024
1.56354
1.59692
1.63033
1.66375
1.69715
1.73049
1.76374
1.79687
1.82984
1.86262
1.89517
1.92746
1.95947
1.99115
2.02247
2.0534
2.08391
2.11397
2.14353
2.17256
2.20103
2.22889
2.25613
2.2827
2.30857
2.33371
2.35809
2.38168
2.40445
2.42637
2.44742
2.46756
2.48679
2.50507
2.52239
2.53873
2.55406
2.56838
2.58168
2.59393
2.60513
2.61528
2.62436
2.63239
2.63934
2.64523
2.65006
2.65381
2.65647
2.65792
2.65838
2.6579
2.65636
2.65377
2.65018
2.64558
2.63999
2.63344
2.62595
2.61753
2.6082
2.598
2.58695
2.57506
2.56237
2.54891
2.53469
2.51975
2.50413
2.48783
2.47091
2.45337
2.43527
2.41662
2.39746
2.37782
2.35774
2.33724
2.31639
2.29523
2.27388
2.25246
2.23091
2.20919
2.18731
2.16529
2.14317
2.12098
2.09877
2.07656
2.05442
2.03239
2.01054
1.98894
1.96776
1.94591
1.91675
0.0130609
0.0351742
0.0467685
0.055118
0.0622833
0.0690152
0.0756922
0.0825276
0.0896372
0.0970697
0.104827
0.112882
0.121194
0.129721
0.138424
0.147276
0.156256
0.165358
0.174581
0.183937
0.193447
0.203142
0.213062
0.223257
0.233781
0.244692
0.256047
0.267897
0.280285
0.293243
0.306798
0.320969
0.33577
0.351206
0.367271
0.383957
0.401261
0.419186
0.437704
0.456784
0.476379
0.496436
0.516912
0.53782
0.559167
0.580968
0.603232
0.625966
0.649177
0.672868
0.697044
0.721708
0.746862
0.77251
0.798653
0.825294
0.852434
0.880075
0.908216
0.936859
0.966001
0.995642
1.02578
1.05641
1.08752
1.11912
1.15118
1.18372
1.21671
1.25014
1.284
1.31828
1.35296
1.38803
1.42346
1.45923
1.49532
1.53172
1.56839
1.6053
1.64244
1.67977
1.71726
1.75487
1.79259
1.83036
1.86816
1.90594
1.94368
1.98134
2.01887
2.05624
2.09341
2.13034
2.16698
2.20332
2.23929
2.27486
2.30998
2.34463
2.37875
2.4123
2.44525
2.47755
2.50916
2.54004
2.57016
2.59947
2.62794
2.65554
2.68222
2.70796
2.73272
2.75648
2.7792
2.80087
2.82144
2.8409
2.85924
2.87642
2.89244
2.90727
2.92091
2.93334
2.94456
2.95456
2.96334
2.97089
2.97723
2.98234
2.98622
2.98884
2.99012
2.99032
2.98934
2.98717
2.98383
2.97933
2.97368
2.96693
2.95907
2.95014
2.94016
2.92916
2.91716
2.9042
2.8903
2.8755
2.85981
2.84329
2.82595
2.80784
2.78898
2.76941
2.74917
2.72828
2.70679
2.68474
2.66215
2.63907
2.61554
2.59161
2.56735
2.54283
2.51815
2.49329
2.46825
2.44305
2.41771
2.39228
2.36681
2.34135
2.31595
2.29069
2.26565
2.24096
2.21676
2.19325
2.16948
2.14085
0.0165717
0.0420168
0.0551848
0.0646109
0.0726074
0.0800079
0.0872325
0.0945194
0.102006
0.109762
0.117814
0.126156
0.134767
0.14362
0.15269
0.161958
0.171414
0.181059
0.1909
0.200955
0.211251
0.221823
0.232712
0.243967
0.255638
0.267776
0.28043
0.293639
0.307434
0.321835
0.336851
0.352487
0.36874
0.385607
0.403082
0.421163
0.439848
0.459136
0.479016
0.499472
0.520486
0.542033
0.564095
0.586666
0.609743
0.63333
0.657435
0.682062
0.707219
0.732912
0.759147
0.785929
0.813263
0.841153
0.869604
0.898618
0.9282
0.958351
0.989074
1.02037
1.05224
1.08468
1.11769
1.15127
1.18541
1.2201
1.25535
1.29114
1.32746
1.3643
1.40164
1.43947
1.47778
1.51654
1.55573
1.59533
1.63531
1.67566
1.71634
1.75731
1.79856
1.84004
1.88172
1.92357
1.96555
2.00761
2.04973
2.09185
2.13393
2.17593
2.21781
2.25953
2.30103
2.34227
2.38321
2.42379
2.46397
2.5037
2.54293
2.58161
2.61971
2.65716
2.69393
2.72996
2.76522
2.79965
2.83322
2.86587
2.89757
2.92828
2.95795
2.98656
3.01406
3.04042
3.06561
3.0896
3.11236
3.13386
3.15408
3.17301
3.19061
3.20687
3.22179
3.23535
3.24753
3.25834
3.26777
3.27582
3.2825
3.2878
3.29172
3.29421
3.29525
3.29507
3.29354
3.29068
3.28651
3.28104
3.2743
3.26631
3.2571
3.2467
3.23513
3.22242
3.20861
3.19373
3.17781
3.16089
3.143
3.12418
3.10446
3.08389
3.06251
3.04034
3.01744
2.99384
2.96958
2.9447
2.91926
2.89328
2.86681
2.83992
2.81266
2.7851
2.75731
2.72931
2.70113
2.67278
2.6443
2.61575
2.58718
2.55866
2.53026
2.50208
2.47423
2.44689
2.42023
2.39445
2.36872
2.33943
0.0198019
0.0480756
0.0626173
0.0729955
0.0817271
0.0897131
0.0974076
0.10507
0.112858
0.12086
0.129125
0.137666
0.146482
0.155562
0.164894
0.174468
0.184284
0.194347
0.20467
0.215276
0.226192
0.237453
0.249098
0.261171
0.273714
0.286771
0.300378
0.314569
0.329366
0.344785
0.360831
0.377506
0.394808
0.412732
0.431274
0.450432
0.470204
0.490589
0.511582
0.53318
0.555373
0.578153
0.60151
0.625441
0.649942
0.675017
0.70067
0.726907
0.753735
0.781162
0.809195
0.837841
0.867106
0.896998
0.927523
0.958685
0.99049
1.02294
1.05605
1.0898
1.12421
1.15928
1.195
1.23137
1.2684
1.30606
1.34436
1.38329
1.42284
1.46299
1.50372
1.54503
1.5869
1.62929
1.67219
1.71558
1.75942
1.80369
1.84836
1.89338
1.93873
1.98436
2.03024
2.07633
2.12258
2.16895
2.21539
2.26186
2.3083
2.35467
2.40091
2.44698
2.49282
2.53837
2.58359
2.62842
2.6728
2.71668
2.76
2.80271
2.84476
2.88609
2.92665
2.96639
3.00526
3.04321
3.08018
3.11613
3.15102
3.18479
3.2174
3.24882
3.279
3.30791
3.3355
3.36175
3.38662
3.41009
3.43213
3.45272
3.47183
3.48945
3.50556
3.52016
3.53323
3.54476
3.55476
3.56323
3.57017
3.57558
3.57946
3.58174
3.5825
3.58184
3.57969
3.57606
3.57099
3.56449
3.55659
3.54732
3.53671
3.52478
3.51158
3.49713
3.48147
3.46464
3.44667
3.42762
3.40751
3.38638
3.36429
3.34127
3.31737
3.29263
3.26709
3.2408
3.21381
3.18616
3.1579
3.12907
3.09973
3.06993
3.03974
3.00921
2.97842
2.9474
2.91618
2.88479
2.85329
2.82174
2.7902
2.75875
2.72747
2.6965
2.66595
2.63605
2.60697
2.57891
2.5511
2.52043
0.0226568
0.0532698
0.0689694
0.0801581
0.0895182
0.0980038
0.106095
0.114069
0.122096
0.130284
0.138698
0.147371
0.156318
0.165543
0.175046
0.184829
0.194897
0.205262
0.21594
0.226954
0.238332
0.250108
0.262315
0.274992
0.288173
0.301895
0.316188
0.331077
0.346583
0.362719
0.379492
0.396905
0.41496
0.433654
0.452986
0.472955
0.493561
0.514804
0.536685
0.559203
0.582359
0.606149
0.630573
0.655631
0.681323
0.707653
0.734628
0.762253
0.790538
0.819491
0.849122
0.879439
0.910451
0.942167
0.974596
1.00775
1.04162
1.07623
1.11158
1.14767
1.18451
1.22209
1.26042
1.2995
1.33933
1.37989
1.42118
1.46319
1.50592
1.54934
1.59344
1.63821
1.68362
1.72964
1.77626
1.82343
1.87114
1.91935
1.96802
2.01711
2.06658
2.1164
2.16651
2.21686
2.26742
2.31812
2.36892
2.41976
2.47058
2.52134
2.57196
2.6224
2.67259
2.72246
2.77197
2.82104
2.86962
2.91764
2.96504
3.01176
3.05774
3.10292
3.14725
3.19066
3.2331
3.27452
3.31485
3.35405
3.39207
3.42884
3.46434
3.4985
3.5313
3.56267
3.5926
3.62103
3.64794
3.6733
3.69707
3.71924
3.73977
3.75866
3.77589
3.79144
3.80531
3.81748
3.82797
3.83677
3.84388
3.84931
3.85307
3.85508
3.85548
3.85426
3.85141
3.84696
3.84093
3.83334
3.82422
3.81361
3.80155
3.78805
3.77317
3.75694
3.7394
3.7206
3.70057
3.67937
3.65703
3.6336
3.60913
3.58367
3.55726
3.52996
3.50181
3.47287
3.44318
3.4128
3.38177
3.35015
3.318
3.28536
3.2523
3.21889
3.18518
3.15123
3.11707
3.08275
3.04834
3.01389
2.97948
2.9452
2.91116
2.87748
2.84433
2.81191
2.78043
2.75008
2.7201
2.68797
0.0250777
0.0575669
0.0742022
0.0860504
0.0959239
0.104818
0.113232
0.121453
0.129665
0.137988
0.1465
0.15525
0.164269
0.173572
0.183172
0.19308
0.203307
0.213868
0.224784
0.236077
0.247774
0.259905
0.2725
0.285593
0.299213
0.31339
0.328149
0.343513
0.359499
0.376122
0.39339
0.41131
0.429886
0.449121
0.469018
0.489577
0.510803
0.532699
0.555268
0.578514
0.602442
0.627055
0.652357
0.678354
0.70505
0.732452
0.760567
0.789407
0.81898
0.849298
0.880372
0.912213
0.944834
0.978245
1.01246
1.04748
1.08332
1.11999
1.15749
1.19584
1.23503
1.27507
1.31596
1.3577
1.40029
1.44372
1.48798
1.53307
1.57896
1.62566
1.67313
1.72136
1.77032
1.81999
1.87034
1.92133
1.97293
2.02511
2.07781
2.131
2.18463
2.23865
2.29301
2.34765
2.40253
2.45758
2.51275
2.56797
2.62318
2.67831
2.73331
2.7881
2.84261
2.89678
2.95054
3.00382
3.05655
3.10866
3.16008
3.21075
3.2606
3.30956
3.35758
3.40459
3.45052
3.49531
3.53892
3.58127
3.62231
3.662
3.70026
3.73707
3.77236
3.8061
3.83824
3.86875
3.89758
3.92471
3.95011
3.97374
3.99559
4.01564
4.03386
4.05026
4.06482
4.07753
4.0884
4.09743
4.10461
4.10998
4.11352
4.1152
4.11513
4.11329
4.10967
4.10432
4.09726
4.08853
4.07815
4.06615
4.05259
4.0375
4.02091
4.00288
3.98345
3.96266
3.94056
3.91721
3.89265
3.86693
3.84011
3.81223
3.78336
3.75354
3.72282
3.69128
3.65895
3.6259
3.59218
3.55784
3.52294
3.48754
3.45171
3.4155
3.37898
3.3422
3.30522
3.26809
3.23087
3.19364
3.15648
3.11949
3.08278
3.0465
3.01082
2.97595
2.9421
2.90942
2.87722
2.84343
0.0270335
0.0609713
0.0783261
0.0906814
0.10095
0.110158
0.118817
0.127223
0.135567
0.143976
0.152541
0.161323
0.170363
0.179689
0.189323
0.199282
0.209585
0.22025
0.2313
0.242757
0.254646
0.266995
0.27983
0.29318
0.307071
0.321528
0.336573
0.352227
0.368508
0.38543
0.403006
0.421246
0.440158
0.459749
0.480026
0.500995
0.522664
0.545039
0.568128
0.591939
0.616482
0.641764
0.667794
0.694581
0.722135
0.750467
0.779587
0.809509
0.840246
0.871811
0.90422
0.937485
0.971622
1.00664
1.04256
1.07939
1.11714
1.15582
1.19544
1.23601
1.27753
1.32001
1.36344
1.40784
1.45319
1.4995
1.54674
1.59492
1.64401
1.694
1.74487
1.79659
1.84914
1.90249
1.9566
2.01143
2.06695
2.12311
2.17986
2.23716
2.29495
2.35318
2.41179
2.47071
2.5299
2.58927
2.64877
2.70833
2.76787
2.82733
2.88663
2.94569
3.00445
3.06283
3.12074
3.17812
3.23488
3.29096
3.34628
3.40076
3.45434
3.50694
3.5585
3.60894
3.65821
3.70622
3.75293
3.79827
3.84217
3.88459
3.92545
3.96473
4.00235
4.03828
4.07247
4.10487
4.13546
4.1642
4.19105
4.21599
4.239
4.26005
4.27913
4.29623
4.31134
4.32445
4.33558
4.34471
4.35187
4.35705
4.36027
4.36154
4.36092
4.35836
4.35391
4.34759
4.33945
4.32951
4.31782
4.30441
4.28933
4.27261
4.25431
4.23447
4.21315
4.19039
4.16624
4.14077
4.11402
4.08606
4.05693
4.02669
3.99541
3.96314
3.92995
3.89588
3.861
3.82538
3.78905
3.7521
3.71457
3.67653
3.63803
3.59915
3.55995
3.52048
3.48082
3.44101
3.40113
3.36126
3.32148
3.2819
3.24265
3.20388
3.16577
3.12852
3.09233
3.05736
3.02293
2.9873
0.028519
0.06352
0.081391
0.0941072
0.104654
0.114083
0.122909
0.131435
0.139855
0.148304
0.156879
0.165649
0.174665
0.183966
0.193581
0.203534
0.213849
0.224544
0.235642
0.247165
0.259138
0.271585
0.28453
0.297999
0.312015
0.326601
0.341778
0.357568
0.37399
0.391059
0.408791
0.427201
0.446301
0.466102
0.486617
0.507856
0.52983
0.552552
0.576033
0.600286
0.625323
0.651158
0.677804
0.705276
0.733589
0.762756
0.792794
0.823717
0.855545
0.888294
0.921981
0.956624
0.992238
1.02884
1.06645
1.10507
1.14472
1.18542
1.22717
1.26998
1.31386
1.3588
1.40483
1.45192
1.50009
1.54931
1.59959
1.65091
1.70324
1.75658
1.81089
1.86615
1.92233
1.97938
2.03728
2.09597
2.15542
2.21556
2.27636
2.33775
2.39967
2.46207
2.52487
2.58801
2.65142
2.71502
2.77875
2.84253
2.90628
2.96992
3.03336
3.09654
3.15937
3.22176
3.28363
3.3449
3.40549
3.46532
3.5243
3.58237
3.63943
3.69542
3.75027
3.8039
3.85624
3.90721
3.95676
4.00482
4.05132
4.09621
4.13942
4.1809
4.2206
4.25847
4.29446
4.32853
4.36064
4.39075
4.41884
4.44488
4.46883
4.49069
4.51043
4.52804
4.54353
4.55688
4.5681
4.5772
4.58418
4.58906
4.59186
4.59259
4.59132
4.58797
4.5826
4.57525
4.56598
4.5548
4.54176
4.52691
4.51029
4.49195
4.47195
4.45032
4.42714
4.40244
4.3763
4.34877
4.3199
4.28976
4.25841
4.22592
4.19233
4.15772
4.12216
4.08569
4.04839
4.01032
3.97154
3.93212
3.8921
3.85156
3.81057
3.76918
3.72746
3.68548
3.6433
3.60098
3.55861
3.51626
3.47403
3.43204
3.3904
3.34927
3.30885
3.26933
3.23089
3.19368
3.15707
3.11958
0.0295526
0.0652788
0.0834769
0.096418
0.107134
0.11669
0.125606
0.134186
0.142626
0.151067
0.159611
0.168335
0.177295
0.186535
0.196089
0.205986
0.21625
0.226903
0.237969
0.24947
0.261429
0.27387
0.286814
0.300287
0.314309
0.328903
0.34409
0.359893
0.376334
0.393432
0.411205
0.429673
0.448853
0.468761
0.489415
0.51083
0.53302
0.556004
0.5798
0.604423
0.629889
0.656215
0.683422
0.71153
0.740559
0.770527
0.801456
0.833366
0.86628
0.900217
0.935199
0.971245
1.00837
1.0466
1.08595
1.12643
1.16806
1.21085
1.25481
1.29995
1.34628
1.39379
1.4425
1.49239
1.54346
1.5957
1.6491
1.70364
1.7593
1.81605
1.87387
1.93271
1.99255
2.05334
2.11503
2.17757
2.24092
2.30502
2.3698
2.43521
2.50117
2.56761
2.63447
2.70168
2.76914
2.83679
2.90454
2.97232
3.04003
3.10759
3.17492
3.24192
3.30851
3.3746
3.44011
3.50494
3.56902
3.63224
3.69453
3.75581
3.816
3.87501
3.93277
3.9892
4.04424
4.0978
4.14981
4.20022
4.24895
4.29594
4.34114
4.38447
4.4259
4.46537
4.50283
4.53823
4.57155
4.60274
4.63178
4.65862
4.68326
4.70566
4.72582
4.74373
4.75937
4.77276
4.78389
4.79277
4.79942
4.80385
4.80609
4.80617
4.80418
4.79993
4.79356
4.78513
4.77467
4.76222
4.74782
4.73153
4.71339
4.69345
4.67177
4.64841
4.62342
4.59687
4.56881
4.53931
4.50844
4.47624
4.4428
4.40818
4.37243
4.33564
4.29786
4.25917
4.21962
4.17929
4.13824
4.09653
4.05423
4.0114
3.9681
3.92441
3.88038
3.8361
3.79162
3.74701
3.70236
3.65774
3.61327
3.56904
3.5252
3.4819
3.43932
3.39767
3.35711
3.31777
3.27908
3.23979
0.0301774
0.0663274
0.0846822
0.0977241
0.108507
0.118103
0.127033
0.135605
0.144017
0.152413
0.160894
0.169536
0.178401
0.187538
0.196984
0.206773
0.21693
0.227479
0.238445
0.249849
0.261714
0.274064
0.286922
0.300312
0.314262
0.328788
0.343911
0.359656
0.376045
0.393101
0.410847
0.429306
0.4485
0.468452
0.489183
0.510719
0.533086
0.556315
0.58042
0.605418
0.631327
0.658157
0.685941
0.71471
0.744491
0.775312
0.807196
0.840171
0.874262
0.909493
0.945887
0.983467
1.02225
1.06226
1.10351
1.14602
1.18979
1.23485
1.2812
1.32885
1.3778
1.42806
1.47961
1.53246
1.5866
1.642
1.69865
1.75653
1.81561
1.87586
1.93723
1.9997
2.06321
2.12772
2.19317
2.25951
2.32668
2.39461
2.46323
2.53248
2.60227
2.67255
2.74322
2.8142
2.88542
2.95679
3.02821
3.09961
3.17089
3.24196
3.31273
3.38311
3.45301
3.52233
3.59099
3.65888
3.72593
3.79204
3.85712
3.92109
3.98387
4.04538
4.10553
4.16424
4.22145
4.27708
4.33105
4.38331
4.43377
4.48238
4.52908
4.57381
4.61651
4.65714
4.69564
4.73198
4.76611
4.79799
4.82761
4.85492
4.87991
4.90255
4.92284
4.94076
4.95631
4.96949
4.98031
4.98878
4.99492
4.99874
5.00027
4.99962
4.99675
4.99151
4.98409
4.97452
4.96285
4.94911
4.93336
4.91564
4.89601
4.87453
4.85125
4.82623
4.79954
4.77124
4.7414
4.71008
4.67734
4.64326
4.6079
4.57133
4.53362
4.49485
4.45507
4.41437
4.3728
4.33044
4.28736
4.24361
4.19927
4.1544
4.10906
4.06332
4.01725
3.97093
3.92441
3.87777
3.83109
3.78446
3.73798
3.69177
3.64595
3.60069
3.55617
3.51256
3.47004
3.42874
3.38811
3.34719
0.0303712
0.0666902
0.0850723
0.0981158
0.10888
0.118445
0.127331
0.135844
0.144184
0.152494
0.160884
0.169436
0.178208
0.187245
0.196586
0.206265
0.216309
0.226744
0.237591
0.248876
0.260619
0.272846
0.285578
0.298841
0.312655
0.327047
0.34204
0.357666
0.373952
0.390927
0.40862
0.42706
0.446275
0.466293
0.487144
0.508856
0.531454
0.554962
0.579408
0.604821
0.631233
0.658656
0.687135
0.716707
0.747407
0.779261
0.8123
0.846555
0.882057
0.918834
0.95691
0.996305
1.03704
1.07913
1.12258
1.16743
1.21366
1.2613
1.31034
1.36079
1.41265
1.46592
1.52058
1.57662
1.63403
1.69278
1.75285
1.81419
1.87679
1.94059
2.00556
2.07163
2.13877
2.20691
2.27599
2.34596
2.41673
2.48824
2.56041
2.63318
2.70645
2.78015
2.85419
2.9285
3.00297
3.07752
3.15206
3.22651
3.30075
3.37471
3.44829
3.52139
3.59392
3.66578
3.73689
3.80715
3.87646
3.94475
4.01191
4.07787
4.14253
4.20582
4.26766
4.32797
4.38668
4.4437
4.49897
4.55243
4.604
4.65361
4.70122
4.74676
4.79017
4.83141
4.87044
4.9072
4.94166
4.97378
5.00354
5.03091
5.05586
5.07838
5.09845
5.11607
5.13123
5.14395
5.15422
5.16206
5.16748
5.17052
5.17121
5.16974
5.16584
5.15955
5.15102
5.14029
5.12739
5.11238
5.0953
5.07621
5.05516
5.03222
5.00745
4.98091
4.95266
4.92277
4.89132
4.85836
4.82397
4.78821
4.75117
4.7129
4.67348
4.63299
4.59149
4.54905
4.50575
4.46166
4.41684
4.37136
4.32529
4.27868
4.23161
4.18415
4.13636
4.0883
4.04006
3.9917
3.9433
3.89496
3.84678
3.79886
3.75135
3.70439
3.65816
3.61284
3.56858
3.52552
3.48317
3.4408
0.0303069
0.0666109
0.0849246
0.0979093
0.108613
0.118109
0.126915
0.135339
0.14358
0.151782
0.160048
0.168457
0.177072
0.18594
0.195104
0.2046
0.214455
0.224698
0.235352
0.246442
0.257992
0.270028
0.282574
0.295658
0.309308
0.323556
0.338436
0.35398
0.370218
0.387187
0.404921
0.423457
0.442824
0.463059
0.484193
0.506264
0.529311
0.553367
0.578456
0.604603
0.631817
0.660163
0.689693
0.720438
0.752431
0.785712
0.820317
0.856284
0.893658
0.932461
0.972715
1.01444
1.05764
1.10233
1.14852
1.1962
1.24539
1.29608
1.34827
1.40196
1.45713
1.51377
1.57187
1.63139
1.6923
1.75459
1.8182
1.8831
1.94923
2.01656
2.08502
2.15456
2.22512
2.29662
2.36902
2.44222
2.51617
2.59077
2.66597
2.74167
2.81779
2.89425
2.97096
3.04783
3.12478
3.20171
3.27854
3.35516
3.43149
3.50744
3.58291
3.6578
3.73203
3.80549
3.87811
3.94978
4.02042
4.08993
4.15824
4.22525
4.29089
4.35507
4.41771
4.47874
4.53809
4.59567
4.65143
4.70529
4.75719
4.80707
4.85486
4.90051
4.94396
4.98518
5.0241
5.0607
5.09494
5.12677
5.15618
5.18313
5.20761
5.2296
5.24908
5.26604
5.28051
5.29247
5.30193
5.30892
5.31343
5.31551
5.31527
5.31284
5.3078
5.30042
5.29075
5.27885
5.26475
5.24851
5.23018
5.20981
5.18747
5.16321
5.1371
5.10921
5.0796
5.04834
5.01551
4.98117
4.94539
4.90824
4.8698
4.83014
4.78933
4.74745
4.70456
4.66074
4.61607
4.5706
4.52441
4.47757
4.43013
4.38217
4.33375
4.28494
4.23579
4.18639
4.1368
4.08709
4.03734
3.98764
3.9381
3.88882
3.83994
3.7916
3.74396
3.69721
3.65148
3.60693
3.5631
3.51955
0.0301174
0.0662966
0.0844242
0.0972518
0.107797
0.117129
0.125766
0.134013
0.142073
0.150088
0.158162
0.166376
0.174796
0.183476
0.192453
0.201761
0.21143
0.221487
0.231961
0.242879
0.25427
0.266162
0.278589
0.291583
0.30518
0.319417
0.33433
0.349958
0.366339
0.383516
0.401533
0.420445
0.440285
0.46109
0.482896
0.505735
0.529623
0.554583
0.580698
0.608028
0.636643
0.666583
0.697881
0.730568
0.764677
0.800243
0.837295
0.875859
0.915953
0.957618
1.0009
1.04581
1.09233
1.14045
1.19016
1.24144
1.29429
1.34869
1.40462
1.46208
1.52102
1.58142
1.64325
1.70647
1.77104
1.83691
1.90404
1.97236
2.04183
2.11238
2.18396
2.2565
2.32994
2.40419
2.4792
2.5549
2.63119
2.70802
2.78529
2.86294
2.94088
3.01902
3.09728
3.17558
3.25384
3.33195
3.40984
3.48742
3.56459
3.64127
3.71737
3.7928
3.86747
3.94129
4.01417
4.08603
4.15677
4.22632
4.2946
4.36151
4.42697
4.49093
4.55329
4.61398
4.67294
4.73008
4.78535
4.83868
4.89002
4.93928
4.98642
5.03139
5.07412
5.11458
5.15272
5.1885
5.22189
5.25285
5.28136
5.3074
5.33094
5.35196
5.37045
5.3864
5.39985
5.41077
5.41918
5.42509
5.42851
5.42948
5.42829
5.42469
5.41852
5.41002
5.39923
5.3862
5.37098
5.35361
5.33414
5.31265
5.28918
5.26381
5.23659
5.20759
5.17689
5.14455
5.11064
5.07523
5.0384
5.00022
4.96076
4.92009
4.87828
4.83541
4.79155
4.74677
4.70114
4.65473
4.60761
4.55985
4.5115
4.46263
4.4133
4.36358
4.31354
4.26323
4.21272
4.1621
4.11142
4.06079
4.0103
3.96005
3.91018
3.86083
3.81214
3.7643
3.71743
3.67169
3.62669
3.58227
0.0297211
0.0656306
0.0834807
0.0960738
0.106395
0.115506
0.123927
0.131963
0.139817
0.147631
0.155511
0.163536
0.171772
0.180269
0.18907
0.198213
0.207731
0.217659
0.228028
0.238872
0.250228
0.262132
0.274621
0.287739
0.301534
0.316066
0.331379
0.347511
0.364509
0.382419
0.401273
0.421079
0.441906
0.46384
0.486944
0.51128
0.536916
0.563916
0.592319
0.622176
0.65354
0.68645
0.720935
0.757026
0.794742
0.834099
0.875107
0.917771
0.962098
1.0081
1.05577
1.10516
1.15622
1.2089
1.26315
1.31894
1.37624
1.43502
1.49524
1.55685
1.61983
1.68411
1.74966
1.81643
1.88435
1.95338
2.02347
2.09454
2.16655
2.23944
2.31313
2.38757
2.46269