/*--------------------------------*- C++ -*----------------------------------*\
  =========                 |
  \\      /  F ield         | OpenFOAM: The Open Source CFD Toolbox
   \\    /   O peration     | Website:  https://openfoam.org
    \\  /    A nd           | Version:  8
     \\/     M anipulation  |
\*---------------------------------------------------------------------------*/
FoamFile
{
    version     2.0;
    format      ascii;
    class       volScalarField;
    location    "1400";
    object      nut;
}
// * * * * * * * * * * * * * * * * * * * * * * * * * * * * * * * * * * * * * //

dimensions      [0 2 -1 0 0 0 0];

internalField   nonuniform List<scalar> 
12225
(
0.0122671
0.00158819
0.000666129
0.000410105
0.000294025
0.00022806
0.000183261
0.000170805
0.000132697
0.000106844
9.46735e-05
8.80085e-05
7.89856e-05
7.2233e-05
6.77318e-05
6.4507e-05
6.12104e-05
6.46338e-05
0.0323823
0.00744532
0.00330638
0.00204329
0.00146801
0.0011445
0.000936338
0.000799975
0.000679511
0.000577234
0.000506286
0.000452432
0.00041054
0.000378806
0.000350182
0.000327767
0.000311172
0.000292818
0.0490123
0.01515
0.00728196
0.00457854
0.00330639
0.00258054
0.00211233
0.00178913
0.00154181
0.00134762
0.00119772
0.0010787
0.000982056
0.000902481
0.000835978
0.000780909
0.000735547
0.00068717
0.063054
0.0237783
0.0122894
0.00788814
0.00573397
0.00448498
0.00367412
0.00310733
0.00268471
0.00235805
0.00210111
0.00189458
0.00172531
0.00158451
0.00146613
0.00136604
0.00128146
0.00119789
0.074932
0.0328517
0.0181452
0.0119262
0.00874548
0.00686412
0.0056308
0.00476254
0.00411748
0.00362029
0.00322731
0.00290992
0.00264899
0.00243143
0.00224799
0.00209188
0.00195826
0.00183626
0.0849536
0.0420208
0.0246655
0.0166359
0.0123325
0.00972587
0.00799539
0.00676785
0.00585345
0.00514769
0.00458844
0.00413587
0.00376334
0.00345239
0.00318983
0.00296596
0.0027736
0.00260471
0.0933822
0.0510219
0.0316642
0.0219415
0.016474
0.0130717
0.0107778
0.00913551
0.0079057
0.0069534
0.0061969
0.00558367
0.00507837
0.00465632
0.00429976
0.00399561
0.00373414
0.00350818
0.0993794
0.0583363
0.0378386
0.0268568
0.0204171
0.0163053
0.0134891
0.011453
0.00991891
0.00872629
0.00777635
0.00700497
0.00636866
0.00583685
0.0053874
0.00500398
0.00467452
0.00439126
0.104023
0.0645454
0.0433804
0.0314239
0.0241571
0.0194092
0.0161097
0.0137018
0.0118766
0.0104521
0.00931443
0.00838904
0.00762485
0.00698574
0.00644544
0.00598449
0.00558858
0.00524877
0.108368
0.0708939
0.0493756
0.0365496
0.0284517
0.0230231
0.0191863
0.0163547
0.0141926
0.0124968
0.011138
0.0100303
0.00911434
0.00834759
0.0076991
0.00714579
0.00667068
0.00626298
0.112368
0.0772557
0.0557282
0.0421918
0.0332976
0.0271652
0.0227467
0.0194432
0.0168984
0.0148903
0.0132749
0.0119544
0.0108605
0.00994379
0.00916796
0.00850586
0.00793736
0.00744915
0.115994
0.0834975
0.0623053
0.0482611
0.0386474
0.0318167
0.026789
0.0229739
0.0200046
0.0176452
0.0157378
0.0141736
0.0128749
0.011785
0.0108618
0.0100736
0.00939671
0.00881464
0.119234
0.0894856
0.0689377
0.0546109
0.0443919
0.0369007
0.0312597
0.0269088
0.0234836
0.02074
0.0185096
0.0166735
0.0151449
0.01386
0.0127704
0.0118396
0.0110397
0.0103508
0.122086
0.095084
0.075415
0.0610223
0.0503361
0.0422534
0.0360231
0.0311353
0.0272402
0.024093
0.021519
0.0193909
0.017614
0.0161174
0.0148466
0.01376
0.0128257
0.0120196
0.124546
0.100135
0.0814619
0.0671725
0.056158
0.047577
0.0408126
0.0354174
0.031066
0.0275196
0.0246012
0.0221777
0.0201481
0.0184349
0.0169782
0.0157314
0.0146583
0.0137311
0.126578
0.104396
0.0866605
0.0725515
0.0613228
0.0523526
0.0451453
0.0393148
0.0345631
0.0306611
0.0274325
0.0247409
0.0224806
0.020569
0.0189413
0.0175468
0.0163454
0.0153061
0.128011
0.107322
0.0902141
0.0762353
0.0648743
0.0556509
0.0481493
0.0420254
0.0370012
0.0328553
0.0294126
0.0265352
0.0241143
0.0220643
0.0203172
0.0188191
0.0175275
0.0164083
0.128006
0.107313
0.0902048
0.0762269
0.0648674
0.0556454
0.048145
0.0420222
0.0369988
0.0328537
0.0294117
0.0265349
0.0241147
0.0220652
0.0203185
0.0188206
0.0175287
0.0164083
0.126509
0.104255
0.0864922
0.0723807
0.0611613
0.052205
0.0450128
0.0391967
0.0344584
0.0305686
0.0273506
0.0246684
0.0224163
0.0205118
0.0188903
0.0175006
0.0163024
0.0152631
0.124267
0.0995604
0.0807712
0.0664676
0.0554886
0.0469631
0.0402594
0.0349228
0.0306248
0.0271258
0.0242488
0.0218611
0.0198626
0.0181762
0.0167426
0.0155152
0.0144575
0.0135405
0.12136
0.0936399
0.0737261
0.0593348
0.0487592
0.0408249
0.0347467
0.0300003
0.0262308
0.0231928
0.0207127
0.018665
0.0169572
0.0155198
0.0142999
0.0132567
0.0123583
0.0115798
0.117686
0.0865903
0.0656967
0.0514791
0.0415374
0.0343608
0.0290184
0.0249322
0.0217348
0.0191848
0.0171184
0.0154211
0.0140106
0.0128263
0.0118229
0.0109657
0.010228
0.00958895
0.11305
0.0784122
0.056921
0.0432687
0.0342296
0.0279652
0.0234365
0.0200435
0.0174263
0.0153597
0.0136966
0.0123369
0.0112106
0.010267
0.00946866
0.00878719
0.00820102
0.00769347
0.107169
0.0691009
0.0476372
0.035029
0.0271566
0.021922
0.0182437
0.0155401
0.0134817
0.0118706
0.0105816
0.00953197
0.00866487
0.00793965
0.0073267
0.00680378
0.00635413
0.00596495
0.0996761
0.0587036
0.0381279
0.0270699
0.0205782
0.0164329
0.0135949
0.0115438
0.00999922
0.00879908
0.00784341
0.00706755
0.0064279
0.00589357
0.00544229
0.00505734
0.00472643
0.00444008
0.0901097
0.0473665
0.0287363
0.0196847
0.0146976
0.0116312
0.00957853
0.00811528
0.00702331
0.00617994
0.00551057
0.00496793
0.00452113
0.00414813
0.0038333
0.00356445
0.00333366
0.00313367
0.0779076
0.0353826
0.0198606
0.0131383
0.00966107
0.00759298
0.00623352
0.00527429
0.00456399
0.00401883
0.00358696
0.00323611
0.00294716
0.00270592
0.00250233
0.00232747
0.00217869
0.00204817
0.06238
0.0232554
0.0119461
0.00765493
0.00556337
0.00435256
0.00356724
0.00301639
0.00261307
0.00230794
0.00206655
0.00186719
0.00170218
0.00156416
0.00144769
0.00134441
0.0012608
0.00118219
0.0426105
0.0117794
0.0054693
0.00341385
0.00246071
0.00192006
0.00157275
0.00132885
0.00115942
0.00103848
0.000943994
0.000857685
0.000784587
0.00072151
0.000667762
0.000612319
0.000581062
0.000536615
0.0168348
0.00255985
0.00110002
0.000683428
0.000493724
0.000386804
0.000318219
0.00026631
0.000272591
0.000322006
0.000354515
0.000337161
0.000302488
0.0002618
0.000237263
0.000183811
0.00023452
0.000235735
3.99397e-09
5.9118e-07
2.00092e-06
6.28945e-06
1.08027e-05
1.35319e-05
1.32572e-05
1.17922e-05
9.0642e-06
5.94819e-06
3.52419e-06
2.02512e-06
1.41004e-06
1.50304e-06
2.06716e-06
2.56607e-06
2.45451e-06
2.06917e-06
2.5428e-06
8.67663e-06
9.0252e-06
5.55424e-06
6.75163e-06
2.65115e-05
5.67521e-05
7.44252e-05
9.09788e-05
0.000104827
0.000117047
0.000127208
0.000136112
0.000143759
0.000150449
0.000156276
0.000161358
0.000165844
0.000169818
0.000173369
0.000176551
0.00017941
0.000181975
0.000184268
0.000186308
0.000188111
0.000189692
0.000191063
0.000192235
0.000193215
0.000194004
0.000194476
0.000194974
0.000195083
0.000195144
0.000195019
0.00019472
0.000194275
0.000193676
0.000192929
0.000192035
0.000190997
0.000189816
0.000188494
0.000187034
0.000185438
0.00018371
0.00018185
0.00017986
0.000177742
0.000175499
0.000173133
0.000170645
0.000168039
0.000165315
0.000162475
0.00015952
0.000156451
0.000153269
0.000149975
0.000146568
0.000143047
0.00013941
0.000135654
0.000131774
0.000127764
0.000123616
0.000119319
0.000114861
0.000110227
0.000105397
0.000100346
9.50459e-05
8.94708e-05
8.36149e-05
7.75444e-05
7.15336e-05
6.62513e-05
6.24917e-05
6.01497e-05
5.83971e-05
5.67912e-05
5.5215e-05
5.36466e-05
5.20845e-05
5.05301e-05
4.89855e-05
4.74526e-05
4.5934e-05
4.44361e-05
4.29869e-05
4.17499e-05
4.05459e-05
3.93561e-05
3.81836e-05
3.7029e-05
3.58932e-05
3.47769e-05
3.3681e-05
3.26062e-05
3.1553e-05
3.0522e-05
2.95135e-05
2.85279e-05
2.75659e-05
2.66279e-05
2.5714e-05
2.4824e-05
2.3959e-05
2.31469e-05
2.24126e-05
2.1697e-05
2.09963e-05
2.03189e-05
1.96696e-05
1.90346e-05
1.84135e-05
1.78095e-05
1.72235e-05
1.66558e-05
1.61061e-05
1.55741e-05
1.50593e-05
1.45613e-05
1.40797e-05
1.36141e-05
1.3164e-05
1.27291e-05
1.2309e-05
1.19032e-05
1.15115e-05
1.11333e-05
1.07685e-05
1.04165e-05
1.00771e-05
9.74988e-06
9.43462e-06
9.131e-06
8.83875e-06
8.5576e-06
8.28734e-06
8.02775e-06
7.77864e-06
7.53984e-06
7.31116e-06
7.09244e-06
6.88346e-06
6.68397e-06
6.49365e-06
6.31207e-06
6.13868e-06
5.97273e-06
5.81343e-06
5.65918e-06
5.50955e-06
5.35957e-06
5.21383e-06
5.0478e-06
4.89383e-06
4.64747e-06
4.48929e-06
3.59424e-06
1.68174e-07
6.1425e-06
6.38831e-05
0.000139687
0.000183241
0.000207006
0.00021638
0.000214887
0.000206542
0.000189839
0.000169047
0.000148912
0.000138499
0.000143713
0.000157682
0.000166604
0.000169022
0.000170206
0.000175609
0.000185311
0.000200066
0.000217505
0.000234339
0.000250842
0.000262142
0.000272046
0.000280861
0.000293707
0.000312803
0.000326749
0.000339493
0.000350417
0.000360346
0.000369445
0.000377345
0.000384558
0.000391273
0.000397715
0.000404015
0.000410238
0.00041638
0.000422398
0.00042824
0.000433865
0.000439244
0.000444361
0.000449201
0.000453752
0.000458014
0.000461988
0.000465713
0.000469155
0.000472352
0.000475294
0.000477985
0.000480427
0.00048262
0.000484565
0.000486263
0.000487714
0.000488918
0.000489876
0.000490592
0.000491069
0.000491318
0.000491342
0.000491138
0.000490701
0.000490048
0.000489182
0.00048811
0.000486837
0.000485371
0.000483718
0.000481885
0.00047988
0.000477711
0.000475383
0.000472907
0.000470288
0.000467536
0.000464658
0.000461662
0.000458556
0.000455349
0.000452047
0.00044866
0.000445195
0.00044166
0.000438064
0.000434413
0.000430711
0.000426959
0.000423149
0.000419262
0.000415273
0.000411164
0.000406963
0.000402722
0.000398466
0.000394201
0.000389932
0.000385662
0.000381394
0.000377133
0.000372881
0.000368641
0.000364416
0.000360205
0.000356007
0.000351831
0.000347683
0.000343564
0.000339476
0.000335421
0.000331401
0.000327417
0.00032347
0.000319563
0.000315695
0.000311868
0.000308083
0.000304341
0.000300643
0.00029699
0.000293382
0.000289817
0.000286296
0.000282817
0.000279383
0.000275991
0.000272652
0.000269365
0.000266115
0.0002629
0.000259727
0.000256597
0.000253513
0.000250474
0.000247479
0.000244529
0.000241622
0.000238758
0.000235936
0.000233157
0.000230418
0.00022772
0.000225063
0.000222445
0.000219867
0.000217327
0.000214827
0.000212365
0.000209942
0.000207558
0.000205212
0.000202906
0.00020064
0.000198414
0.00019623
0.000194089
0.000191994
0.000189944
0.000187943
0.000185992
0.000184092
0.000182245
0.000180451
0.00017871
0.000177018
0.000175373
0.000173774
0.000172196
0.000170682
0.000169071
0.000167749
0.000165617
0.0001649
0.000162094
0.000160721
7.68602e-07
4.45418e-05
0.000164289
0.000246524
0.000299859
0.000330181
0.000341219
0.000338351
0.000325519
0.000306245
0.00028647
0.000273747
0.000271487
0.000278167
0.000288523
0.000299353
0.000312116
0.00032907
0.00035067
0.000375832
0.000403222
0.000431578
0.000469794
0.000516181
0.000561836
0.000605992
0.000649095
0.000692769
0.000732109
0.000763399
0.000788408
0.000808233
0.000823949
0.000836417
0.000846422
0.000854738
0.000862068
0.000869055
0.000876236
0.000883967
0.000892356
0.000901279
0.000910497
0.000919774
0.000928932
0.000937851
0.000946455
0.000954696
0.000962539
0.000969954
0.00097692
0.000983406
0.00098941
0.000994925
0.00099995
0.00100448
0.00100852
0.00101207
0.00101513
0.00101769
0.00101976
0.00102134
0.00102242
0.00102296
0.00102312
0.00102284
0.00102204
0.0010208
0.00101911
0.00101699
0.00101446
0.00101151
0.00100818
0.00100446
0.00100038
0.000995948
0.000991181
0.000986093
0.000980699
0.000975015
0.000969055
0.000962834
0.000956368
0.000949673
0.000942762
0.000935651
0.000928354
0.000920887
0.000913262
0.000905492
0.00089759
0.000889567
0.000881431
0.000873193
0.000864858
0.000856438
0.000847945
0.000839394
0.000830801
0.000822181
0.000813544
0.000804899
0.000796254
0.000787616
0.000778992
0.000770391
0.000761817
0.000753277
0.000744777
0.000736322
0.000727918
0.00071957
0.000711283
0.00070306
0.000694906
0.000686824
0.000678816
0.000670887
0.000663038
0.000655271
0.00064759
0.000639995
0.000632488
0.000625072
0.000617747
0.000610515
0.000603374
0.000596327
0.000589373
0.000582513
0.000575748
0.000569078
0.000562501
0.000556012
0.000549609
0.000543295
0.000537072
0.00053094
0.000524899
0.00051895
0.000513091
0.000507321
0.000501639
0.000496044
0.000490535
0.000485111
0.00047977
0.000474512
0.000469335
0.000464238
0.000459221
0.000454281
0.000449419
0.000444632
0.00043992
0.000435282
0.000430716
0.000426221
0.000421797
0.000417441
0.000413153
0.00040893
0.000404772
0.000400675
0.000396638
0.000392656
0.000388726
0.000384843
0.000381
0.000377188
0.000373394
0.000369606
0.000365798
0.000361951
0.000357992
0.000353951
0.00034947
0.000345076
0.000338586
0.000327128
5.07083e-07
8.12898e-05
0.000212972
0.000309206
0.000372991
0.000410403
0.000425978
0.000426368
0.000416357
0.000402954
0.000394797
0.00039396
0.000403187
0.000420398
0.000443154
0.000470909
0.000504262
0.000543573
0.00058803
0.000650268
0.000724133
0.000803925
0.000888188
0.00095885
0.00102128
0.0010774
0.00112782
0.00117272
0.00121199
0.00124587
0.00127512
0.00130045
0.00132257
0.00134211
0.00135965
0.00137567
0.0013906
0.00140476
0.00141842
0.00143177
0.00144494
0.00145799
0.00147095
0.00148381
0.0014965
0.00150896
0.00152109
0.0015328
0.00154399
0.00155459
0.00156454
0.00157382
0.00158239
0.00159025
0.00159739
0.0016038
0.00160947
0.00161441
0.00161861
0.00162207
0.00162479
0.00162677
0.00162793
0.00162837
0.00162824
0.00162733
0.0016257
0.00162338
0.00162038
0.00161673
0.00161243
0.00160751
0.00160199
0.00159589
0.00158923
0.00158204
0.00157433
0.00156613
0.00155747
0.00154836
0.00153883
0.0015289
0.0015186
0.00150795
0.00149696
0.00148567
0.0014741
0.00146226
0.00145018
0.00143788
0.00142538
0.0014127
0.00139985
0.00138685
0.00137372
0.00136047
0.00134712
0.00133369
0.0013202
0.00130667
0.00129311
0.00127953
0.00126596
0.0012524
0.00123886
0.00122536
0.0012119
0.0011985
0.00118516
0.00117189
0.0011587
0.0011456
0.00113259
0.00111969
0.00110689
0.0010942
0.00108163
0.00106918
0.00105685
0.00104466
0.00103259
0.00102066
0.00100887
0.000997214
0.000985701
0.00097433
0.000963103
0.000952021
0.000941084
0.000930293
0.000919648
0.000909149
0.000898794
0.000888578
0.0008785
0.000868561
0.000858763
0.000849107
0.000839591
0.000830215
0.000820978
0.000811879
0.000802916
0.000794088
0.000785392
0.000776828
0.000768393
0.000760085
0.000751904
0.000743846
0.000735911
0.000728096
0.000720399
0.00071282
0.000705355
0.000698003
0.000690763
0.000683632
0.000676607
0.000669688
0.000662872
0.000656155
0.000649535
0.000643009
0.000636572
0.00063022
0.000623946
0.000617743
0.000611601
0.000605507
0.000599447
0.000593397
0.00058733
0.000581207
0.000574963
0.000568544
0.000561768
0.000554576
0.000546334
0.000530144
1.49345e-06
0.000102059
0.000235125
0.000355062
0.000433979
0.000481488
0.000505126
0.000513595
0.00051517
0.000516158
0.000523038
0.0005392
0.000565257
0.000600244
0.000643372
0.000694656
0.000754742
0.000838163
0.000933837
0.00103005
0.00111907
0.00120346
0.00128281
0.00135551
0.00142227
0.00148368
0.00154015
0.001592
0.0016396
0.00168337
0.0017238
0.00176137
0.0017965
0.00182958
0.00186091
0.00189076
0.0019193
0.00194669
0.00197301
0.00199834
0.0020227
0.00204611
0.00206856
0.00209002
0.00211049
0.00212992
0.00214829
0.00216556
0.00218172
0.00219674
0.00221062
0.00222334
0.00223494
0.00224541
0.00225478
0.00226306
0.00227028
0.00227644
0.00228157
0.00228568
0.00228877
0.00229082
0.00229174
0.00229183
0.00229095
0.00228907
0.00228624
0.00228247
0.00227778
0.0022722
0.00226575
0.00225847
0.00225037
0.00224149
0.00223186
0.00222151
0.00221046
0.00219876
0.00218643
0.0021735
0.00216
0.00214597
0.00213143
0.00211643
0.00210097
0.00208511
0.00206886
0.00205227
0.00203535
0.00201813
0.00200065
0.00198292
0.00196498
0.00194684
0.00192854
0.00191008
0.0018915
0.00187282
0.00185406
0.00183525
0.00181641
0.00179755
0.00177869
0.00175985
0.00174105
0.0017223
0.00170361
0.001685
0.00166648
0.00164806
0.00162975
0.00161156
0.0015935
0.00157558
0.0015578
0.00154019
0.00152273
0.00150543
0.00148831
0.00147137
0.00145461
0.00143803
0.00142164
0.00140544
0.00138943
0.00137362
0.00135801
0.00134259
0.00132737
0.00131235
0.00129753
0.00128291
0.00126849
0.00125426
0.00124022
0.00122637
0.00121272
0.00119926
0.00118599
0.00117291
0.00116001
0.00114731
0.00113479
0.00112246
0.00111031
0.00109833
0.00108653
0.00107491
0.00106345
0.00105216
0.00104104
0.00103009
0.00101929
0.00100865
0.000998172
0.000987843
0.000977665
0.000967633
0.000957747
0.000948003
0.000938396
0.000928925
0.000919585
0.000910372
0.00090128
0.000892303
0.000883434
0.000874663
0.000865979
0.000857368
0.000848809
0.000840279
0.000831743
0.000823157
0.000814454
0.000805564
0.00079632
0.000786577
0.000776608
0.000756788
2.27171e-06
0.000118203
0.00025637
0.000390154
0.000487244
0.000549163
0.000587027
0.000610492
0.000628251
0.000647577
0.000673721
0.000709334
0.000755152
0.000811448
0.000878626
0.00096913
0.00107427
0.00117599
0.00127521
0.00137071
0.00146141
0.00154741
0.00162865
0.00170511
0.00177707
0.00184489
0.00190891
0.00196946
0.00202687
0.00208148
0.0021336
0.00218353
0.00223151
0.00227776
0.00232243
0.00236564
0.00240749
0.00244803
0.00248728
0.00252527
0.00256198
0.0025974
0.00263149
0.00266423
0.00269557
0.00272547
0.0027539
0.00278081
0.00280616
0.00282993
0.00285209
0.00287261
0.00289147
0.00290868
0.00292421
0.00293808
0.00295028
0.00296082
0.00296971
0.00297698
0.00298263
0.00298672
0.00298914
0.00299004
0.00298958
0.00298761
0.00298427
0.00297956
0.00297356
0.00296631
0.00295786
0.00294827
0.00293758
0.00292586
0.00291314
0.00289947
0.00288491
0.00286949
0.00285327
0.00283628
0.00281857
0.00280017
0.00278114
0.00276151
0.00274132
0.00272061
0.00269942
0.0026778
0.00265576
0.00263336
0.00261063
0.0025876
0.00256431
0.00254078
0.00251704
0.00249313
0.00246908
0.00244491
0.00242064
0.00239632
0.00237196
0.00234759
0.00232322
0.00229889
0.0022746
0.00225038
0.00222625
0.00220222
0.00217831
0.00215452
0.00213088
0.0021074
0.00208409
0.00206095
0.00203801
0.00201526
0.00199272
0.00197039
0.00194828
0.0019264
0.00190474
0.00188333
0.00186215
0.00184121
0.00182053
0.00180008
0.00177989
0.00175995
0.00174027
0.00172083
0.00170165
0.00168272
0.00166404
0.00164561
0.00162742
0.00160947
0.00159177
0.00157432
0.00155711
0.00154013
0.0015234
0.0015069
0.00149064
0.00147461
0.00145881
0.00144323
0.00142787
0.00141273
0.00139781
0.0013831
0.0013686
0.00135431
0.00134021
0.00132632
0.00131262
0.00129912
0.0012858
0.00127267
0.00125972
0.00124695
0.00123435
0.00122192
0.00120966
0.00119756
0.00118561
0.00117381
0.00116215
0.00115062
0.0011392
0.00112788
0.00111664
0.00110545
0.00109428
0.00108307
0.00107177
0.00106029
0.00104848
0.00103626
0.00102408
0.0010016
2.80557e-06
0.000126821
0.000269281
0.000407728
0.000526504
0.00060804
0.000664246
0.000706256
0.000743316
0.000782688
0.000829432
0.000886496
0.000955505
0.00104783
0.00115484
0.00126144
0.00136755
0.00147092
0.00157099
0.00166735
0.00175975
0.00184818
0.00193275
0.00201361
0.002091
0.00216519
0.00223647
0.0023051
0.00237134
0.00243541
0.00249754
0.00255789
0.00261663
0.00267386
0.00272967
0.00278411
0.00283723
0.00288903
0.0029395
0.00298864
0.00303641
0.00308277
0.00312768
0.00317109
0.00321295
0.0032532
0.00329179
0.00332867
0.0033638
0.00339712
0.00342858
0.00345816
0.00348582
0.00351152
0.00353524
0.00355696
0.00357667
0.00359436
0.00361001
0.00362363
0.00363523
0.00364481
0.00365239
0.00365801
0.00366166
0.00366328
0.00366319
0.0036612
0.00365743
0.00365191
0.0036447
0.00363586
0.00362545
0.00361351
0.00360013
0.00358536
0.00356928
0.00355193
0.0035334
0.00351375
0.00349305
0.00347137
0.00344876
0.0034253
0.00340105
0.00337607
0.00335043
0.00332418
0.00329737
0.00327006
0.00324231
0.00321416
0.00318565
0.00315683
0.00312775
0.00309844
0.00306894
0.00303929
0.00300953
0.00297968
0.00294978
0.00291986
0.00288994
0.00286006
0.00283024
0.00280049
0.00277085
0.00274133
0.00271195
0.00268273
0.00265369
0.00262483
0.00259618
0.00256774
0.00253953
0.00251157
0.00248385
0.00245639
0.00242919
0.00240227
0.00237562
0.00234926
0.00232319
0.00229741
0.00227193
0.00224675
0.00222187
0.00219729
0.00217302
0.00214905
0.00212538
0.00210202
0.00207896
0.00205619
0.00203373
0.00201156
0.00198968
0.0019681
0.00194681
0.00192581
0.00190509
0.00188466
0.00186451
0.00184464
0.00182504
0.00180571
0.00178665
0.00176785
0.00174931
0.00173102
0.00171299
0.0016952
0.00167766
0.00166035
0.00164328
0.00162645
0.00160983
0.00159345
0.00157728
0.00156132
0.00154558
0.00153004
0.00151471
0.00149956
0.00148461
0.00146983
0.00145523
0.00144079
0.00142649
0.00141232
0.00139825
0.00138427
0.00137032
0.00135637
0.00134235
0.00132818
0.0013137
0.00129895
0.00128394
0.00125969
2.94246e-06
0.000128735
0.000270669
0.000407308
0.000538109
0.000641779
0.000719045
0.000780498
0.000836304
0.000894162
0.00096177
0.00105374
0.00116337
0.00128511
0.00140069
0.00151196
0.0016198
0.00172437
0.00182563
0.0019235
0.002018
0.0021092
0.00219726
0.00228235
0.00236471
0.00244454
0.00252208
0.00259753
0.0026711
0.00274294
0.0028132
0.002882
0.00294943
0.00301556
0.00308042
0.00314404
0.00320641
0.00326752
0.00332735
0.00338584
0.00344296
0.00349866
0.00355286
0.00360551
0.00365654
0.00370589
0.00375349
0.00379929
0.00384321
0.0038852
0.0039252
0.00396317
0.00399905
0.00403281
0.0040644
0.0040938
0.00412098
0.00414591
0.00416858
0.00418898
0.00420711
0.00422296
0.00423654
0.00424787
0.00425696
0.00426383
0.00426855
0.004271
0.00427144
0.00426979
0.00426612
0.00426048
0.00425291
0.00424349
0.00423225
0.00421928
0.00420463
0.00418838
0.00417058
0.00415131
0.00413065
0.00410866
0.00408541
0.00406098
0.00403544
0.00400886
0.00398132
0.00395288
0.00392361
0.00389357
0.00386284
0.00383148
0.00379955
0.00376711
0.00373421
0.00370091
0.00366727
0.00363333
0.00359915
0.00356478
0.00353025
0.00349561
0.00346091
0.00342617
0.00339144
0.00335674
0.0033221
0.00328757
0.00325315
0.00321888
0.00318477
0.00315086
0.00311715
0.00308367
0.00305044
0.00301746
0.00298475
0.00295232
0.00292018
0.00288835
0.00285683
0.00282562
0.00279475
0.0027642
0.00273399
0.00270411
0.00267458
0.0026454
0.00261656
0.00258807
0.00255993
0.00253213
0.00250469
0.00247758
0.00245082
0.0024244
0.00239832
0.00237257
0.00234717
0.00232209
0.00229735
0.00227293
0.00224884
0.00222507
0.00220162
0.00217848
0.00215565
0.00213312
0.0021109
0.00208897
0.00206733
0.00204598
0.00202491
0.00200412
0.00198361
0.00196337
0.00194339
0.00192367
0.00190421
0.00188499
0.00186603
0.00184731
0.00182882
0.00181056
0.00179253
0.00177471
0.00175709
0.00173967
0.00172242
0.00170533
0.00168837
0.00167153
0.00165475
0.00163799
0.00162118
0.00160424
0.00158705
0.00156964
0.00155171
0.00152557
2.7594e-06
0.000125268
0.000264044
0.000395769
0.000520541
0.000633073
0.000727061
0.000808269
0.000891335
0.000986686
0.00109593
0.00122064
0.00135705
0.00148457
0.00160488
0.0017199
0.00183062
0.00193739
0.00204054
0.00214042
0.00223725
0.00233122
0.00242253
0.0025114
0.00259802
0.0026826
0.00276532
0.00284637
0.00292589
0.00300402
0.00308086
0.00315649
0.00323097
0.00330432
0.00337657
0.0034477
0.0035177
0.00358653
0.00365413
0.00372046
0.00378544
0.00384901
0.0039111
0.00397162
0.0040305
0.00408766
0.00414302
0.00419651
0.00424806
0.0042976
0.00434505
0.00439037
0.00443349
0.00447436
0.00451294
0.00454918
0.00458306
0.00461454
0.00464361
0.00467023
0.00469441
0.00471614
0.00473542
0.00475225
0.00476665
0.00477864
0.00478825
0.00479548
0.00480041
0.00480298
0.00480337
0.00480155
0.00479759
0.00479152
0.00478342
0.00477334
0.00476134
0.00474749
0.00473185
0.00471449
0.00469548
0.00467489
0.0046528
0.00462927
0.00460439
0.00457822
0.00455083
0.0045223
0.00449271
0.00446211
0.00443059
0.0043982
0.00436502
0.00433112
0.00429655
0.00426138
0.00422567
0.00418948
0.00415287
0.0041159
0.00407861
0.00404107
0.00400331
0.00396539
0.00392734
0.00388922
0.00385106
0.0038129
0.00377477
0.0037367
0.00369873
0.00366089
0.0036232
0.00358568
0.00354836
0.00351127
0.00347441
0.00343782
0.00340149
0.00336546
0.00332972
0.0032943
0.0032592
0.00322444
0.00319002
0.00315595
0.00312223
0.00308887
0.00305587
0.00302325
0.00299099
0.0029591
0.00292758
0.00289644
0.00286566
0.00283526
0.00280522
0.00277555
0.00274625
0.00271732
0.00268875
0.00266053
0.00263268
0.00260518
0.00257803
0.00255123
0.00252478
0.00249866
0.00247287
0.00244742
0.0024223
0.00239749
0.00237301
0.00234883
0.00232497
0.00230141
0.00227815
0.00225518
0.00223251
0.00221011
0.002188
0.00216617
0.0021446
0.0021233
0.00210225
0.00208144
0.00206087
0.00204053
0.00202039
0.00200043
0.00198064
0.00196099
0.00194142
0.00192189
0.00190234
0.00188268
0.0018628
0.00184273
0.00182199
0.00179366
2.34435e-06
0.000117989
0.000252847
0.000380973
0.000503946
0.000620482
0.000731376
0.000840492
0.000955426
0.00108133
0.00121946
0.00136924
0.00151155
0.00164355
0.00176781
0.00188625
0.00199997
0.00210962
0.00221558
0.00231807
0.00241748
0.00251418
0.00260849
0.00270065
0.00279089
0.00287942
0.00296641
0.00305202
0.0031364
0.00321964
0.00330183
0.00338303
0.00346327
0.00354257
0.00362091
0.00369828
0.00377463
0.0038499
0.00392405
0.00399698
0.00406862
0.00413889
0.0042077
0.00427495
0.00434056
0.00440444
0.00446649
0.00452664
0.00458479
0.00464087
0.0046948
0.00474652
0.00479595
0.00484305
0.00488776
0.00493002
0.00496981
0.00500709
0.00504182
0.00507399
0.00510359
0.0051306
0.00515502
0.00517685
0.00519612
0.00521282
0.00522699
0.00523864
0.00524781
0.00525454
0.00525886
0.00526079
0.00526045
0.00525784
0.00525303
0.00524606
0.00523701
0.00522593
0.00521289
0.00519795
0.00518119
0.00516267
0.00514246
0.00512065
0.00509729
0.00507246
0.00504624
0.00501869
0.00498989
0.00495992
0.00492883
0.00489671
0.00486361
0.00482962
0.00479478
0.00475918
0.00472287
0.00468592
0.00464838
0.00461032
0.0045718
0.00453288
0.00449359
0.00445401
0.00441417
0.00437412
0.00433391
0.00429358
0.00425318
0.00421273
0.00417228
0.00413187
0.00409151
0.00405125
0.00401112
0.00397113
0.00393132
0.00389171
0.00385231
0.00381315
0.00377425
0.00373562
0.00369728
0.00365925
0.00362152
0.00358412
0.00354706
0.00351033
0.00347396
0.00343795
0.00340229
0.00336701
0.00333209
0.00329755
0.00326338
0.00322958
0.00319616
0.00316312
0.00313046
0.00309817
0.00306626
0.00303473
0.00300356
0.00297277
0.00294235
0.0029123
0.0028826
0.00285327
0.0028243
0.00279567
0.0027674
0.00273947
0.00271188
0.00268463
0.00265771
0.00263113
0.00260486
0.00257892
0.00255329
0.00252798
0.00250297
0.00247826
0.00245385
0.00242972
0.00240588
0.00238231
0.002359
0.00233594
0.00231311
0.00229049
0.00226805
0.00224577
0.00222361
0.0022015
0.00217938
0.00215718
0.00213478
0.00211221
0.00208891
0.00205824
1.92686e-06
0.000110307
0.000242563
0.000369908
0.000495649
0.000620082
0.000745011
0.000874506
0.00101188
0.00115921
0.00131665
0.00147845
0.00162626
0.00176272
0.00189082
0.00201259
0.00212928
0.00224173
0.00235046
0.00245588
0.00255827
0.00265783
0.002755
0.00285014
0.00294352
0.0030354
0.00312596
0.00321536
0.00330374
0.00339121
0.00347782
0.00356363
0.00364866
0.00373291
0.00381636
0.00389896
0.00398066
0.0040614
0.0041411
0.00421966
0.004297
0.00437301
0.00444759
0.00452065
0.00459207
0.00466176
0.00472962
0.00479554
0.00485944
0.00492123
0.00498083
0.00503815
0.00509313
0.00514569
0.0051958
0.00524338
0.00528839
0.0053308
0.00537058
0.0054077
0.00544213
0.00547388
0.00550293
0.00552929
0.00555297
0.00557397
0.00559232
0.00560804
0.00562116
0.00563172
0.00563975
0.00564529
0.0056484
0.00564912
0.00564752
0.00564364
0.00563755
0.0056293
0.00561896
0.0056066
0.00559228
0.00557606
0.00555803
0.00553825
0.00551679
0.00549373
0.00546914
0.00544309
0.00541566
0.0053869
0.00535691
0.00532573
0.00529346
0.00526014
0.00522585
0.00519066
0.00515463
0.00511782
0.0050803
0.00504213
0.00500337
0.00496408
0.00492431
0.00488411
0.00484354
0.00480265
0.00476149
0.0047201
0.00467852
0.0046368
0.00459498
0.0045531
0.00451118
0.00446928
0.00442741
0.00438561
0.00434391
0.00430234
0.00426091
0.00421966
0.0041786
0.00413776
0.00409716
0.0040568
0.00401671
0.00397691
0.00393739
0.00389819
0.0038593
0.00382074
0.00378251
0.00374463
0.00370709
0.00366991
0.00363309
0.00359662
0.00356053
0.00352479
0.00348943
0.00345444
0.00341982
0.00338558
0.0033517
0.0033182
0.00328507
0.00325231
0.00321991
0.00318788
0.00315622
0.00312492
0.00309397
0.00306338
0.00303314
0.00300325
0.00297371
0.00294451
0.00291565
0.00288712
0.00285893
0.00283106
0.00280351
0.00277629
0.00274938
0.00272277
0.00269646
0.00267045
0.00264471
0.00261924
0.00259403
0.00256904
0.00254426
0.00251965
0.00249517
0.00247077
0.00244638
0.00242193
0.00239731
0.00237251
0.002347
0.00231419
1.54347e-06
0.000102167
0.000232071
0.000359053
0.00048772
0.00061899
0.000755524
0.000899239
0.00105186
0.00121393
0.00138596
0.00155193
0.00170373
0.00184405
0.00197566
0.00210054
0.00222004
0.00233509
0.00244637
0.00255435
0.00265942
0.0027619
0.00286205
0.00296005
0.00305634
0.00315119
0.00324486
0.00333753
0.00342933
0.00352038
0.00361075
0.00370047
0.00378957
0.00387804
0.00396583
0.00405291
0.0041392
0.00422463
0.00430909
0.0043925
0.00447475
0.00455572
0.00463531
0.0047134
0.00478987
0.00486461
0.00493752
0.00500849
0.00507742
0.00514421
0.00520877
0.00527101
0.00533087
0.00538826
0.00544313
0.00549542
0.00554507
0.00559206
0.00563634
0.00567788
0.00571666
0.00575268
0.00578592
0.00581638
0.00584407
0.00586901
0.0058912
0.00591068
0.00592747
0.00594161
0.00595312
0.00596206
0.00596847
0.00597239
0.00597388
0.00597301
0.00596984
0.00596441
0.00595679
0.00594704
0.00593523
0.00592143
0.00590571
0.00588813
0.00586878
0.00584772
0.00582503
0.00580077
0.00577502
0.00574785
0.00571933
0.00568953
0.00565851
0.00562635
0.00559311
0.00555886
0.00552367
0.00548759
0.0054507
0.00541305
0.00537471
0.00533573
0.00529617
0.00525609
0.00521553
0.00517456
0.00513321
0.00509153
0.00504958
0.0050074
0.00496502
0.0049225
0.00487986
0.00483714
0.00479438
0.00475161
0.00470886
0.00466617
0.00462355
0.00458105
0.00453867
0.00449644
0.00445439
0.00441254
0.00437089
0.00432948
0.00428832
0.00424741
0.00420678
0.00416644
0.00412639