/*--------------------------------*- C++ -*----------------------------------*\
| =========                 |                                                 |
| \\      /  F ield         | OpenFOAM: The Open Source CFD Toolbox           |
|  \\    /   O peration     | Version:  v2012                                 |
|   \\  /    A nd           | Website:  www.openfoam.com                      |
|    \\/     M anipulation  |                                                 |
\*---------------------------------------------------------------------------*/
FoamFile
{
    version     2.0;
    format      ascii;
    class       volScalarField;
    location    "1400";
    object      nut;
}
// * * * * * * * * * * * * * * * * * * * * * * * * * * * * * * * * * * * * * //

dimensions      [0 2 -1 0 0 0 0];


internalField   nonuniform List<scalar> 
12225
(
0.0122671
0.00158819
0.000666128
0.000410104
0.000294041
0.0002278
0.000186484
0.000144202
0.000165729
0.000215004
0.000223255
0.000213334
0.000194499
0.000166776
0.000161158
0.000147444
0.000135232
0.000122093
0.0323823
0.00744532
0.00330638
0.00204329
0.00146802
0.00114429
0.000938719
0.000784689
0.000690176
0.000626827
0.000569715
0.000518943
0.000475569
0.000436065
0.000405309
0.000373227
0.000348611
0.000322015
0.0490123
0.01515
0.00728196
0.00457855
0.00330639
0.00258047
0.00211329
0.00178176
0.00154671
0.00137273
0.00123198
0.00111597
0.0010192
0.000937093
0.000867564
0.000805212
0.000754634
0.000701622
0.063054
0.0237783
0.0122894
0.00788815
0.00573398
0.00448497
0.0036744
0.00310414
0.00268722
0.00237023
0.00211838
0.00191376
0.00174473
0.00160304
0.00148323
0.00137939
0.00129177
0.00120492
0.074932
0.0328517
0.0181452
0.0119262
0.00874549
0.00686413
0.00563086
0.00476129
0.00411875
0.00362589
0.00323544
0.00291912
0.00265844
0.00244055
0.00225647
0.00209883
0.00196379
0.00184006
0.0849536
0.0420208
0.0246655
0.0166359
0.0123325
0.00972588
0.0079954
0.00676741
0.00585407
0.00515013
0.00459204
0.00414001
0.00376764
0.0034566
0.00319378
0.00296932
0.00277635
0.00260672
0.0933822
0.0510219
0.0316642
0.0219415
0.016474
0.0130717
0.0107779
0.0091354
0.007906
0.0069544
0.00619838
0.00558539
0.00508017
0.00465811
0.00430147
0.00399712
0.00373544
0.0035092
0.0993794
0.0583363
0.0378386
0.0268568
0.0204171
0.0163053
0.0134892
0.011453
0.00991906
0.00872672
0.00777698
0.00700571
0.00636945
0.00583765
0.00538819
0.00500472
0.00467519
0.00439185
0.104023
0.0645454
0.0433804
0.0314239
0.0241571
0.0194092
0.0161097
0.0137018
0.0118767
0.0104523
0.00931473
0.0083894
0.00762524
0.00698616
0.00644587
0.00598492
0.00558901
0.00524918
0.108368
0.0708939
0.0493757
0.0365497
0.0284517
0.0230231
0.0191863
0.0163548
0.0141927
0.0124969
0.0111382
0.0100306
0.00911456
0.00834785
0.00769937
0.00714608
0.00667099
0.0062633
0.112368
0.0772557
0.0557282
0.0421918
0.0332976
0.0271652
0.0227468
0.0194433
0.0168984
0.0148904
0.013275
0.0119546
0.0108607
0.00994396
0.00916816
0.00850608
0.00793761
0.00744942
0.115994
0.0834975
0.0623054
0.0482612
0.0386474
0.0318167
0.026789
0.0229739
0.0200047
0.0176453
0.0157379
0.0141737
0.012875
0.0117851
0.010862
0.0100738
0.00939691
0.00881487
0.119234
0.0894856
0.0689377
0.0546109
0.0443919
0.0369007
0.0312597
0.0269089
0.0234837
0.02074
0.0185097
0.0166735
0.015145
0.0138601
0.0127706
0.0118397
0.0110399
0.010351
0.122086
0.095084
0.075415
0.0610223
0.0503361
0.0422535
0.0360231
0.0311353
0.0272402
0.0240931
0.0215191
0.0193909
0.0176141
0.0161175
0.0148467
0.0137602
0.0128258
0.0120198
0.124546
0.100135
0.0814619
0.0671726
0.056158
0.047577
0.0408126
0.0354174
0.031066
0.0275197
0.0246013
0.0221778
0.0201482
0.018435
0.0169783
0.0157315
0.0146584
0.0137312
0.126578
0.104396
0.0866605
0.0725515
0.0613228
0.0523526
0.0451453
0.0393148
0.0345631
0.0306611
0.0274325
0.024741
0.0224806
0.020569
0.0189413
0.0175468
0.0163455
0.0153062
0.128011
0.107322
0.0902141
0.0762353
0.0648743
0.0556509
0.0481493
0.0420254
0.0370012
0.0328553
0.0294126
0.0265352
0.0241143
0.0220643
0.0203171
0.0188191
0.0175275
0.0164083
0.128006
0.107313
0.0902048
0.0762269
0.0648674
0.0556454
0.048145
0.0420221
0.0369988
0.0328536
0.0294117
0.0265349
0.0241147
0.0220651
0.0203184
0.0188205
0.0175286
0.0164082
0.126509
0.104255
0.0864922
0.0723807
0.0611613
0.052205
0.0450127
0.0391967
0.0344584
0.0305685
0.0273506
0.0246684
0.0224163
0.0205118
0.0188902
0.0175005
0.0163023
0.015263
0.124267
0.0995604
0.0807712
0.0664676
0.0554886
0.0469631
0.0402594
0.0349227
0.0306248
0.0271258
0.0242487
0.0218611
0.0198625
0.0181761
0.0167425
0.0155151
0.0144574
0.0135404
0.12136
0.0936399
0.0737261
0.0593348
0.0487592
0.0408248
0.0347466
0.0300003
0.0262308
0.0231927
0.0207127
0.018665
0.0169571
0.0155197
0.0142998
0.0132566
0.0123582
0.0115797
0.117686
0.0865903
0.0656967
0.0514791
0.0415374
0.0343608
0.0290183
0.0249322
0.0217348
0.0191848
0.0171184
0.0154211
0.0140105
0.0128262
0.0118227
0.0109655
0.0102278
0.00958882
0.11305
0.0784122
0.056921
0.0432687
0.0342296
0.0279652
0.0234365
0.0200435
0.0174263
0.0153598
0.0136966
0.012337
0.0112106
0.010267
0.00946859
0.0087871
0.00820091
0.00769334
0.107169
0.0691009
0.0476372
0.035029
0.0271566
0.021922
0.0182437
0.0155401
0.0134818
0.0118707
0.0105818
0.00953226
0.00866511
0.00793981
0.00732679
0.00680384
0.00635411
0.00596489
0.0996761
0.0587036
0.0381279
0.0270699
0.0205782
0.0164329
0.0135949
0.0115438
0.00999935
0.0087995
0.00784418
0.00706847
0.00642879
0.00589428
0.00544292
0.00505792
0.00472675
0.0044403
0.0901097
0.0473665
0.0287363
0.0196847
0.0146976
0.0116311
0.0095785
0.00811522
0.00702352
0.00618078
0.00551232
0.00497018
0.00452355
0.00415015
0.00383532
0.00356656
0.00333494
0.00313488
0.0779076
0.0353826
0.0198606
0.0131383
0.00966106
0.00759296
0.00623349
0.00527413
0.0045643
0.00402037
0.00359052
0.00324086
0.00295274
0.00271041
0.00250738
0.00233328
0.00218194
0.00205187
0.06238
0.0232554
0.0119461
0.00765493
0.00556337
0.00435254
0.0035672
0.00301618
0.0026134
0.00231045
0.00207255
0.00187521
0.00171228
0.0015717
0.00145686
0.00135595
0.001266
0.00118913
0.0426105
0.0117794
0.0054693
0.00341385
0.00246071
0.00192004
0.00157265
0.00132943
0.0011584
0.00104159
0.000950397
0.000865831
0.000794603
0.000729375
0.000673146
0.000622497
0.000580298
0.0005384
0.0168348
0.00255984
0.00110002
0.000683429
0.000493725
0.000386812
0.000318004
0.000268399
0.000267762
0.000337725
0.000375363
0.00035437
0.000320009
0.000288437
0.000257573
0.000228288
0.000215712
0.000168852
5.32563e-10
1.00922e-07
1.14564e-06
5.15046e-06
9.79505e-06
1.27113e-05
1.30959e-05
1.11115e-05
8.78009e-06
5.73903e-06
3.37909e-06
1.92607e-06
1.35416e-06
1.48485e-06
2.01156e-06
2.4955e-06
2.43375e-06
1.64952e-06
7.5876e-07
3.62358e-07
4.02613e-07
1.26054e-06
5.71355e-06
2.84477e-05
5.72091e-05
7.5038e-05
9.14143e-05
0.000105208
0.000117341
0.000127453
0.000136308
0.00014392
0.000150579
0.000156379
0.00016144
0.000165908
0.000169869
0.000173407
0.000176579
0.00017943
0.000181987
0.000184274
0.000186309
0.000188107
0.000189684
0.00019105
0.000192218
0.000193193
0.000193973
0.000194554
0.000194814
0.00019507
0.000195117
0.000194989
0.000194689
0.000194242
0.000193641
0.000192893
0.000191998
0.000190959
0.000189776
0.000188453
0.000186992
0.000185395
0.000183665
0.000181805
0.000179813
0.000177694
0.000175451
0.000173085
0.000170598
0.000167993
0.000165272
0.000162436
0.000159487
0.000156426
0.000153252
0.000149965
0.000146564
0.000143044
0.000139402
0.000135634
0.000131736
0.000127704
0.000123534
0.000119221
0.000114754
0.000110116
0.000105286
0.000100235
9.49353e-05
8.93592e-05
8.35007e-05
7.74288e-05
7.14253e-05
6.61674e-05
6.24423e-05
6.01205e-05
5.83737e-05
5.6769e-05
5.51931e-05
5.36248e-05
5.20628e-05
5.05086e-05
4.89641e-05
4.74314e-05
4.59131e-05
4.44155e-05
4.29672e-05
4.17351e-05
4.05307e-05
3.93412e-05
3.81689e-05
3.70145e-05
3.58789e-05
3.47628e-05
3.36672e-05
3.25926e-05
3.15397e-05
3.05089e-05
2.95006e-05
2.85153e-05
2.75535e-05
2.66158e-05
2.57021e-05
2.48123e-05
2.39477e-05
2.31386e-05
2.24044e-05
2.1689e-05
2.09882e-05
2.03114e-05
1.96625e-05
1.90274e-05
1.84065e-05
1.78028e-05
1.7217e-05
1.66496e-05
1.61001e-05
1.55684e-05
1.50538e-05
1.45561e-05
1.40747e-05
1.36093e-05
1.31594e-05
1.27247e-05
1.23048e-05
1.18992e-05
1.15077e-05
1.11297e-05
1.0765e-05
1.04132e-05
1.00739e-05
9.74686e-06
9.43171e-06
9.12817e-06
8.836e-06
8.55492e-06
8.28473e-06
8.02519e-06
7.77615e-06
7.5374e-06
7.30881e-06
7.09016e-06
6.88127e-06
6.68186e-06
6.49165e-06
6.31017e-06
6.13689e-06
5.9711e-06
5.81171e-06
5.65812e-06
5.50699e-06
5.36136e-06
5.20421e-06
5.06925e-06
4.84914e-06
4.72145e-06
4.30102e-06
3.67952e-06
3.39541e-09
5.96487e-06
6.15064e-05
0.000137806
0.000181828
0.000205914
0.000215442
0.000213954
0.000205499
0.000188689
0.000167832
0.000147807
0.000137827
0.000143444
0.00015741
0.000165988
0.000168154
0.000169043
0.000174438
0.000184284
0.000200075
0.000218138
0.000235114
0.000251181
0.00026246
0.000272253
0.000281095
0.000294298
0.000313176
0.000327078
0.000339748
0.000350631
0.000360532
0.000369584
0.000377457
0.000384648
0.000391347
0.000397777
0.000404068
0.000410283
0.000416419
0.00042243
0.000428265
0.000433884
0.000439257
0.000444369
0.000449204
0.000453751
0.000458009
0.000461987
0.000465691
0.000469145
0.000472337
0.000475278
0.000477967
0.000480408
0.0004826
0.000484544
0.00048624
0.00048769
0.000488893
0.00048985
0.000490565
0.000491041
0.000491288
0.000491312
0.000491107
0.000490669
0.000490015
0.000489149
0.000488076
0.000486804
0.000485338
0.000483686
0.000481855
0.000479852
0.000477684
0.000475359
0.000472882
0.000470263
0.000467509
0.000464626
0.000461625
0.000458513
0.0004553
0.000451995
0.000448606
0.000445141
0.000441607
0.000438012
0.000434362
0.000430661
0.00042691
0.000423099
0.000419211
0.00041522
0.000411109
0.000406908
0.000402667
0.00039841
0.000394146
0.000389877
0.000385607
0.00038134
0.000377079
0.000372827
0.000368587
0.000364363
0.000360152
0.000355954
0.000351778
0.000347631
0.000343512
0.000339425
0.00033537
0.00033135
0.000327367
0.00032342
0.000319513
0.000315646
0.000311819
0.000308035
0.000304293
0.000300595
0.000296943
0.000293335
0.000289771
0.00028625
0.000282771
0.000279337
0.000275946
0.000272607
0.000269321
0.000266071
0.000262857
0.000259684
0.000256556
0.000253472
0.000250434
0.00024744
0.000244491
0.000241584
0.000238721
0.0002359
0.000233121
0.000230383
0.000227686
0.00022503
0.000222413
0.000219835
0.000217297
0.000214797
0.000212336
0.000209913
0.000207529
0.000205184
0.000202878
0.000200612
0.000198386
0.000196203
0.000194063
0.000191967
0.000189919
0.000187919
0.000185969
0.000184071
0.000182227
0.000180435
0.000178696
0.000177009
0.000175366
0.000173772
0.000172195
0.000170693
0.000169065
0.000167804
0.000165547
0.000165117
0.000161977
0.000160598
7.67014e-08
3.995e-05
0.000162965
0.00024563
0.000298874
0.000329055
0.00033994
0.000336929
0.000323947
0.000304634
0.000284991
0.000272683
0.000270812
0.000277864
0.000288442
0.000299476
0.000312485
0.000329575
0.000351141
0.000376422
0.000403801
0.000431999
0.000471373
0.000517547
0.000563136
0.000607209
0.000650263
0.000693907
0.000732951
0.000764011
0.000788834
0.000808519
0.000824129
0.000836519
0.000846471
0.000854754
0.000862065
0.000869046
0.000876229
0.000883965
0.000892357
0.000901281
0.000910496
0.000919769
0.000928921
0.000937834
0.000946433
0.00095467
0.000962508
0.00096992
0.000976878
0.000983364
0.000989364
0.000994876
0.000999898
0.00100443
0.00100847
0.00101201
0.00101507
0.00101763
0.00101969
0.00102127
0.00102235
0.00102289
0.00102304
0.00102276
0.00102196
0.00102072
0.00101903
0.00101691
0.00101437
0.00101142
0.00100809
0.00100437
0.00100029
0.000995855
0.000991087
0.000985998
0.000980603
0.000974917
0.000968954
0.000962731
0.000956262
0.000949563
0.00094265
0.000935537
0.000928239
0.00092077
0.000913145
0.000905375
0.000897473
0.000889449
0.000881314
0.000873074
0.000864739
0.000856319
0.000847825
0.000839274
0.000830682
0.000822062
0.000813425
0.000804781
0.000796136
0.000787498
0.000778875
0.000770274
0.000761701
0.000753162
0.000744663
0.000736208
0.000727805
0.000719458
0.000711171
0.00070295
0.000694797
0.000686715
0.000678708
0.00067078
0.000662932
0.000655166
0.000647485
0.000639891
0.000632385
0.00062497
0.000617646
0.000610414
0.000603275
0.000596228
0.000589275
0.000582417
0.000575653
0.000568984
0.000562408
0.00055592
0.000549518
0.000543205
0.000536984
0.000530854
0.000524815
0.000518867
0.000513009
0.000507241
0.00050156
0.000495967
0.000490459
0.000485036
0.000479697
0.00047444
0.000469265
0.000464169
0.000459153
0.000454215
0.000449353
0.000444567
0.000439856
0.000435218
0.000430652
0.000426158
0.000421734
0.000417379
0.000413091
0.000408869
0.000404711
0.000400615
0.000396578
0.000392598
0.000388669
0.000384787
0.000380945
0.000377134
0.000373342
0.000369556
0.000365745
0.00036191
0.000357926
0.000353949
0.000349364
0.000345147
0.000338529
0.000326889
6.13833e-07
8.21384e-05
0.000212942
0.000308787
0.000372238
0.000409328
0.000424624
0.000424853
0.000414779
0.000401488
0.000393699
0.000393169
0.000402808
0.000420319
0.000443304
0.00047126
0.00050478
0.000544152
0.000588555
0.000652395
0.000726514
0.00080649
0.000890344
0.000960582
0.00102273
0.00107861
0.00112881
0.00117351
0.00121258
0.0012463
0.00127541
0.00130064
0.00132268
0.00134217
0.00135966
0.00137566
0.00139057
0.00140472
0.00141838
0.00143172
0.00144489
0.00145794
0.0014709
0.00148375
0.00149644
0.0015089
0.00152103
0.00153273
0.00154391
0.0015545
0.00156445
0.00157372
0.00158229
0.00159015
0.00159728
0.00160369
0.00160936
0.00161429
0.00161849
0.00162195
0.00162467
0.00162664
0.0016278
0.00162823
0.0016281
0.00162719
0.00162556
0.00162324
0.00162024
0.00161658
0.00161228
0.00160735
0.00160183
0.00159573
0.00158907
0.00158187
0.00157416
0.00156596
0.0015573
0.00154819
0.00153865
0.00152872
0.00151842
0.00150776
0.00149677
0.00148548
0.00147391
0.00146207
0.00144999
0.00143769
0.00142519
0.00141251
0.00139966
0.00138666
0.00137352
0.00136027
0.00134692
0.00133349
0.00132
0.00130647
0.00129291
0.00127934
0.00126576
0.0012522
0.00123867
0.00122517
0.00121171
0.00119831
0.00118497
0.0011717
0.00115852
0.00114542
0.00113241
0.00111951
0.00110671
0.00109402
0.00108145
0.001069
0.00105668
0.00104448
0.00103242
0.00102049
0.0010087
0.000997045
0.000985533
0.000974164
0.000962939
0.000951858
0.000940922
0.000930133
0.00091949
0.000908993
0.00089864
0.000888425
0.000878349
0.000868413
0.000858618
0.000848963
0.00083945
0.000830077
0.000820842
0.000811746
0.000802785
0.000793959
0.000785265
0.000776703
0.00076827
0.000759965
0.000751785
0.000743729
0.000735796
0.000727982
0.000720287
0.000712709
0.000705245
0.000697894
0.000690655
0.000683524
0.000676501
0.000669582
0.000662766
0.000656051
0.000649432
0.000642907
0.000636471
0.00063012
0.000623847
0.000617645
0.000611505
0.000605413
0.000599353
0.000593306
0.000587238
0.000581119
0.000574867
0.000568476
0.000561629
0.000554639
0.000546138
0.000529928
1.40205e-06
0.000101864
0.000234927
0.000354646
0.000433267
0.00048049
0.000503934
0.000512355
0.00051401
0.000515261
0.000522541
0.000539138
0.000565624
0.000601004
0.000644512
0.000696189
0.000756853
0.000840753
0.000936838
0.00103257
0.00112133
0.00120549
0.00128455
0.00135698
0.00142351
0.00148471
0.00154099
0.00159267
0.00164012
0.00168376
0.00172409
0.00176157
0.00179663
0.00182966
0.00186095
0.00189076
0.00191927
0.00194664
0.00197295
0.00199826
0.00202261
0.002046
0.00206844
0.0020899
0.00211035
0.00212978
0.00214814
0.00216541
0.00218157
0.00219658
0.00221045
0.00222318
0.00223476
0.00224523
0.0022546
0.00226288
0.00227009
0.00227625
0.00228138
0.00228548
0.00228857
0.00229062
0.00229153
0.00229162
0.00229073
0.00228885
0.00228602
0.00228224
0.00227755
0.00227197
0.00226552
0.00225823
0.00225013
0.00224124
0.00223161
0.00222125
0.00221021
0.0021985
0.00218616
0.00217323
0.00215973
0.0021457
0.00213116
0.00211615
0.0021007
0.00208483
0.00206858
0.00205198
0.00203506
0.00201785
0.00200036
0.00198264
0.00196469
0.00194656
0.00192825
0.00190979
0.00189121
0.00187253
0.00185378
0.00183496
0.00181612
0.00179726
0.00177841
0.00175957
0.00174077
0.00172202
0.00170333
0.00168472
0.0016662
0.00164778
0.00162947
0.00161129
0.00159323
0.00157531
0.00155754
0.00153992
0.00152247
0.00150518
0.00148806
0.00147112
0.00145435
0.00143778
0.00142139
0.00140519
0.00138919
0.00137338
0.00135777
0.00134235
0.00132714
0.00131212
0.0012973
0.00128269
0.00126826
0.00125404
0.00124
0.00122616
0.0012125
0.00119905
0.00118578
0.0011727
0.00115982
0.00114712
0.0011346
0.00112227
0.00111012
0.00109815
0.00108635
0.00107473
0.00106328
0.00105199
0.00104087
0.00102992
0.00101912
0.00100849
0.000998008
0.00098768
0.000977503
0.000967473
0.000957588
0.000947845
0.00093824
0.00092877
0.000919432
0.00091022
0.00090113
0.000892155
0.000883288
0.000874519
0.000865837
0.000857227
0.00084867
0.000840142
0.000831606
0.000823022
0.000814318
0.000805436
0.000796164
0.000786553
0.000776359
0.000756604
2.32428e-06
0.000118213
0.000256241
0.000389846
0.000486665
0.000548375
0.000586138
0.000609644
0.000627598
0.000647256
0.000673816
0.000709868
0.000756111
0.000812814
0.000880531
0.000971459
0.00107687
0.00117851
0.00127759
0.00137285
0.00146331
0.00154908
0.0016301
0.00170635
0.00177812
0.00184576
0.00190962
0.00197003
0.00202732
0.00208182
0.00213386
0.0021837
0.00223162
0.00227781
0.00232243
0.0023656
0.00240741
0.00244791
0.00248714
0.00252511
0.0025618
0.0025972
0.00263127
0.00266399
0.00269532
0.00272522
0.00275363
0.00278054
0.00280589
0.00282965
0.0028518
0.00287232
0.00289118
0.00290838
0.00292392
0.00293778
0.00294998
0.00296052
0.00296941
0.00297667
0.00298232
0.0029864
0.00298883
0.00298973
0.00298926
0.00298728
0.00298394
0.00297923
0.00297323
0.00296597
0.00295752
0.00294793
0.00293724
0.00292551
0.00291278
0.00289912
0.00288455
0.00286913
0.0028529
0.00283591
0.0028182
0.0027998
0.00278076
0.00276113
0.00274094
0.00272023
0.00269904
0.00267741
0.00265538
0.00263297
0.00261024
0.00258721
0.00256392
0.00254039
0.00251665
0.00249274
0.00246869
0.00244452
0.00242025
0.00239593
0.00237157
0.0023472
0.00232284
0.0022985
0.00227422
0.00225
0.00222587
0.00220185
0.00217793
0.00215415
0.00213052
0.00210704
0.00208373
0.0020606
0.00203765
0.00201491
0.00199237
0.00197004
0.00194793
0.00192605
0.0019044
0.00188299
0.00186181
0.00184088
0.00182019
0.00179976
0.00177957
0.00175963
0.00173995
0.00172051
0.00170134
0.00168241
0.00166373
0.0016453
0.00162712
0.00160918
0.00159149
0.00157404
0.00155683
0.00153986
0.00152313
0.00150664
0.00149038
0.00147435
0.00145855
0.00144298
0.00142762
0.00141249
0.00139757
0.00138286
0.00136837
0.00135407
0.00133998
0.00132609
0.0013124
0.00129889
0.00128558
0.00127245
0.0012595
0.00124673
0.00123414
0.00122171
0.00120945
0.00119735
0.00118541
0.00117361
0.00116195
0.00115042
0.00113901
0.00112769
0.00111645
0.00110526
0.00109409
0.00108289
0.00107158
0.00106011
0.00104829
0.00103613
0.00102383
0.00100139
2.79382e-06
0.000126773
0.000269145
0.000407435
0.000526017
0.000607422
0.000663608
0.000705731
0.000743037
0.000782765
0.000829932
0.000887442
0.000957026
0.0010498
0.00115709
0.00126372
0.00136979
0.00147303
0.00157294
0.00166911
0.0017613
0.00184955
0.00193393
0.00201461
0.00209184
0.00216589
0.00223704
0.00230555
0.00237168
0.00243566
0.0024977
0.00255798
0.00261665
0.00267382
0.00272957
0.00278397
0.00283705
0.00288881
0.00293925
0.00298836
0.00303611
0.00308244
0.00312733
0.00317072
0.00321257
0.0032528
0.00329138
0.00332826
0.00336337
0.00339668
0.00342814
0.00345772
0.00348537
0.00351106
0.00353478
0.00355651
0.00357621
0.00359389
0.00360954
0.00362317
0.00363476
0.00364434
0.00365192
0.00365754
0.00366119
0.0036628
0.00366272
0.00366073
0.00365695
0.00365143
0.00364422
0.00363538
0.00362496
0.00361303
0.00359964
0.00358487
0.00356878
0.00355144
0.00353291
0.00351326
0.00349255
0.00347087
0.00344826
0.0034248
0.00340055
0.00337557
0.00334992
0.00332367
0.00329686
0.00326956
0.0032418
0.00321365
0.00318514
0.00315633
0.00312725
0.00309794
0.00306844
0.00303879
0.00300903
0.00297918
0.00294928
0.00291936
0.00288945
0.00285957
0.00282975
0.00280001
0.00277037
0.00274085
0.00271147
0.00268226
0.00265321
0.00262436
0.00259571
0.00256728
0.00253908
0.00251111
0.00248339
0.00245594
0.00242874
0.00240182
0.00237518
0.00234882
0.00232276
0.00229698
0.0022715
0.00224633
0.00222145
0.00219687
0.0021726
0.00214864
0.00212498
0.00210162
0.00207856
0.0020558
0.00203334
0.00201118
0.00198931
0.00196773
0.00194645
0.00192545
0.00190474
0.00188431
0.00186417
0.0018443
0.00182471
0.00180538
0.00178633
0.00176753
0.001749
0.00173071
0.00171268
0.0016949
0.00167736
0.00166006
0.00164299
0.00162615
0.00160954
0.00159316
0.00157699
0.00156104
0.0015453
0.00152977
0.00151443
0.00149929
0.00148434
0.00146957
0.00145497
0.00144053
0.00142623
0.00141207
0.00139801
0.00138402
0.00137008
0.00135613
0.00134211
0.00132794
0.00131346
0.00129873
0.00128367
0.00125943
2.93842e-06
0.00012865
0.000270467
0.00040694
0.000537531
0.000641114
0.00071843
0.000780037
0.000836115
0.000894377
0.000962853
0.0010555
0.00116569
0.0012872
0.00140271
0.0015139
0.00162163
0.00172608
0.00182718
0.0019249
0.00201923
0.00211027
0.00219817
0.00228312
0.00236534
0.00244504
0.00252247
0.00259782
0.00267128
0.00274304
0.00281322
0.00288195
0.00294932
0.00301538
0.00308019
0.00314376
0.00320609
0.00326716
0.00332695
0.00338542
0.00344251
0.00349818
0.00355236
0.00360499
0.003656
0.00370534
0.00375293
0.00379871
0.00384262
0.0038846
0.00392459
0.00396255
0.00399843
0.00403218
0.00406377
0.00409317
0.00412034
0.00414527
0.00416794
0.00418834
0.00420646
0.00422231
0.00423589
0.00424722
0.00425631
0.00426318
0.0042679
0.00427035
0.00427078
0.00426914
0.00426547
0.00425982
0.00425226
0.00424283
0.0042316
0.00421862
0.00420397
0.00418772
0.00416992
0.00415065
0.00412999
0.004108
0.00408475
0.00406032
0.00403478
0.00400821
0.00398066
0.00395222
0.00392295
0.00389292
0.00386219
0.00383083
0.0037989
0.00376646
0.00373356
0.00370027
0.00366663
0.0036327
0.00359852
0.00356415
0.00352962
0.00349499
0.00346029
0.00342555
0.00339082
0.00335613
0.0033215
0.00328697
0.00325255
0.00321829
0.00318419
0.00315028
0.00311658
0.0030831
0.00304987
0.00301689
0.00298418
0.00295176
0.00291963
0.0028878
0.00285628
0.00282508
0.00279421
0.00276366
0.00273346
0.00270359
0.00267406
0.00264488
0.00261605
0.00258757
0.00255943
0.00253164
0.0025042
0.0024771
0.00245034
0.00242393
0.00239785
0.00237212
0.00234672
0.00232165
0.00229691
0.0022725
0.00224842
0.00222466
0.00220121
0.00217808
0.00215525
0.00213273
0.00211051
0.00208858
0.00206695
0.0020456
0.00202454
0.00200375
0.00198324
0.001963
0.00194302
0.00192331
0.00190385
0.00188464
0.00186568
0.00184696
0.00182848
0.00181023
0.0017922
0.00177438
0.00175677
0.00173935
0.0017221
0.00170502
0.00168807
0.00167122
0.00165444
0.00163768
0.00162087
0.00160394
0.00158675
0.00156935
0.0015514
0.00152526
2.75425e-06
0.000125141
0.000263771
0.000395291
0.00051981
0.000632076
0.000726017
0.000807526
0.000891496
0.000987453
0.0010973
0.00122244
0.00135893
0.00148634
0.00160654
0.00172146
0.00183207
0.00193871
0.00204173
0.00214147
0.00223816
0.00233199
0.00242318
0.00251192
0.00259842
0.00268288
0.00276551
0.00284646
0.0029259
0.00300394
0.00308071
0.00315627
0.00323068
0.00330398
0.00337618
0.00344726
0.00351722
0.00358601
0.00365358
0.00371987
0.00378483
0.00384837
0.00391043
0.00397093
0.00402979
0.00408694
0.00414229
0.00419576
0.0042473
0.00429682
0.00434427
0.00438958
0.00443269
0.00447356
0.00451213
0.00454837
0.00458225
0.00461372
0.00464278
0.00466941
0.00469358
0.00471531
0.00473459
0.00475142
0.00476582
0.00477781
0.00478741
0.00479465
0.00479958
0.00480214
0.00480253
0.00480072
0.00479675
0.00479069
0.00478259
0.0047725
0.00476051
0.00474665
0.00473101
0.00471365
0.00469465
0.00467406
0.00465197
0.00462845
0.00460357
0.00457739
0.00455001
0.00452149
0.00449189
0.0044613
0.00442978
0.0043974
0.00436422
0.00433032
0.00429575
0.00426059
0.00422488
0.0041887
0.00415209
0.00411513
0.00407784
0.0040403
0.00400255
0.00396463
0.0039266
0.00388848
0.00385032
0.00381217
0.00377404
0.00373598
0.00369802
0.00366018
0.00362249
0.00358498
0.00354767
0.00351058
0.00347373
0.00343714
0.00340082
0.00336479
0.00332906
0.00329365
0.00325855
0.0032238
0.00318938
0.00315531
0.0031216
0.00308825
0.00305526
0.00302264
0.00299039
0.00295851
0.002927
0.00289586
0.00286509
0.00283469
0.00280466
0.00277501
0.00274571
0.00271679
0.00268822
0.00266002
0.00263217
0.00260468
0.00257754
0.00255074
0.00252429
0.00249818
0.0024724
0.00244695
0.00242183
0.00239703
0.00237255
0.00234838
0.00232452
0.00230096
0.00227771
0.00225474
0.00223207
0.00220969
0.00218758
0.00216575
0.00214419
0.00212289
0.00210184
0.00208105
0.00206048
0.00204014
0.00202
0.00200005
0.00198027
0.00196061
0.00194105
0.00192152
0.00190197
0.00188232
0.00186243
0.00184237
0.00182162
0.00179329
2.33809e-06
0.00011785
0.000252607
0.00038061
0.00050348
0.000619982
0.000730979
0.000840482
0.000955907
0.00108229
0.0012208
0.00137087
0.00151307
0.00164494
0.0017691
0.00188743
0.00200104
0.00211058
0.00221643
0.00231879
0.00241808
0.00251467
0.00260886
0.00270091
0.00279104
0.00287947
0.00296637
0.0030519
0.00313619
0.00321936
0.00330148
0.00338262
0.0034628
0.00354204
0.00362034
0.00369766
0.00377397
0.00384921
0.00392331
0.00399622
0.00406783
0.00413807
0.00420686
0.00427409
0.00433968
0.00440354
0.00446558
0.00452571
0.00458385
0.00463992
0.00469384
0.00474555
0.00479498
0.00484207
0.00488677
0.00492903
0.00496882
0.00500609
0.00504082
0.00507299
0.00510258
0.00512959
0.00515401
0.00517584
0.0051951
0.00521181
0.00522597
0.00523763
0.0052468
0.00525352
0.00525784
0.00525978
0.00525944
0.00525683
0.00525202
0.00524505
0.005236
0.00522492
0.00521188
0.00519695
0.00518019
0.00516167
0.00514147
0.00511965
0.0050963
0.00507147
0.00504525
0.00501771
0.00498892
0.00495894
0.00492786
0.00489574
0.00486265
0.00482866
0.00479383
0.00475823
0.00472193
0.00468498
0.00464745
0.0046094
0.00457089
0.00453197
0.00449269
0.00445311
0.00441328
0.00437324
0.00433303
0.00429271
0.00425232
0.00421188
0.00417144
0.00413103
0.00409068
0.00405043
0.0040103
0.00397032
0.00393051
0.00389091
0.00385152
0.00381237
0.00377347
0.00373485
0.00369652
0.00365849
0.00362077
0.00358338
0.00354632
0.00350961
0.00347324
0.00343723
0.00340159
0.00336631
0.0033314
0.00329687
0.00326271
0.00322892
0.00319551
0.00316248
0.00312982
0.00309754
0.00306564
0.00303411
0.00300296
0.00297218
0.00294176
0.00291172
0.00288203
0.0028527
0.00282373
0.00279512
0.00276685
0.00273892
0.00271134
0.00268409
0.00265718
0.0026306
0.00260434
0.0025784
0.00255278
0.00252747
0.00250247
0.00247777
0.00245336
0.00242924
0.0024054
0.00238184
0.00235853
0.00233548
0.00231265
0.00229004
0.00226761
0.00224533
0.00222316
0.00220106
0.00217895
0.00215675
0.00213435
0.00211177
0.00208847
0.00205781
1.9238e-06
0.000110196
0.00024238
0.000369667
0.000495397
0.000619901
0.000745097
0.000874855
0.00101263
0.00116036
0.00131821
0.00147983
0.00162745
0.00176377
0.00189176
0.00201341
0.00213
0.00224234
0.00235097
0.00245628
0.00255856
0.00265802
0.00275509
0.00285013
0.00294342
0.00303521
0.00312568
0.00321501
0.00330332
0.00339071
0.00347726
0.00356301
0.00364799
0.00373219
0.00381559
0.00389815
0.00397982
0.00406052
0.00414018
0.00421871
0.00429602
0.00437201
0.00444657
0.00451961
0.00459101
0.00466068
0.00472852
0.00479444
0.00485833
0.0049201
0.00497969
0.005037
0.00509197
0.00514454
0.00519463
0.00524221
0.00528722
0.00532963
0.0053694
0.00540652
0.00544095
0.0054727
0.00550175
0.00552811
0.00555178
0.00557278
0.00559113
0.00560686
0.00561998
0.00563054
0.00563857
0.00564411
0.00564722
0.00564795
0.00564634
0.00564247
0.00563638
0.00562813
0.0056178
0.00560544
0.00559111
0.0055749
0.00555687
0.0055371
0.00551564
0.00549259
0.005468
0.00544196
0.00541453
0.00538578
0.00535579
0.00532462
0.00529235
0.00525904
0.00522475
0.00518957
0.00515354
0.00511674
0.00507923
0.00504107
0.00500231
0.00496303
0.00492326
0.00488308
0.00484252
0.00480163
0.00476048
0.00471909
0.00467753
0.00463582
0.004594
0.00455213
0.00451022
0.00446833
0.00442647
0.00438468
0.00434298
0.00430142
0.00426
0.00421876
0.00417771
0.00413687
0.00409628
0.00405593
0.00401585
0.00397605
0.00393655
0.00389735
0.00385847
0.00381992
0.0037817
0.00374383
0.0037063
0.00366913
0.00363232
0.00359586
0.00355977
0.00352405
0.0034887
0.00345372
0.00341911
0.00338487
0.00335101
0.00331751
0.00328439
0.00325164
0.00321925
0.00318723
0.00315557
0.00312427
0.00309333
0.00306275
0.00303251
0.00300263
0.00297309
0.0029439
0.00291504
0.00288652
0.00285833
0.00283047
0.00280293
0.00277571
0.00274881
0.00272221
0.00269591
0.0026699
0.00264417
0.00261871
0.0025935
0.00256852
0.00254374
0.00251913
0.00249466
0.00247026
0.00244587
0.00242142
0.0023968
0.002372
0.00234649
0.00231368
1.53349e-06
0.000102049
0.000231926
0.000358897
0.000487603
0.000618987
0.000755708
0.000899686
0.00105258
0.00121493
0.00138721
0.00155299
0.0017046
0.00184477
0.00197626
0.00210103
0.00222043
0.00233538
0.00244656
0.00255444
0.00265942
0.00276181
0.00286186
0.00295978
0.00305598
0.00315076
0.00324435
0.00333694
0.00342868
0.00351966
0.00360997
0.00369964
0.00378869
0.00387711
0.00396486
0.0040519
0.00413816
0.00422355
0.00430798
0.00439137
0.00447359
0.00455454
0.00463411
0.00471217
0.00478863
0.00486336
0.00493626
0.00500721
0.00507613
0.00514291
0.00520746
0.00526969
0.00532954
0.00538693
0.00544179
0.00549408
0.00554373
0.00559071
0.00563499
0.00567653
0.00571531
0.00575133
0.00578456
0.00581503
0.00584272
0.00586766
0.00588985
0.00590933
0.00592613
0.00594026
0.00595178
0.00596072
0.00596713
0.00597105
0.00597255
0.00597168
0.00596852
0.00596309
0.00595547
0.00594572
0.00593392
0.00592012
0.0059044
0.00588683
0.00586748
0.00584643
0.00582374
0.00579949
0.00577374
0.00574658
0.00571806
0.00568827
0.00565726
0.00562511
0.00559187
0.00555763
0.00552244
0.00548638
0.00544949
0.00541185
0.00537352
0.00533455
0.005295
0.00525492
0.00521438
0.00517341
0.00513207
0.00509041
0.00504846
0.00500629
0.00496392
0.0049214
0.00487877
0.00483606
0.00479331