/*--------------------------------*- C++ -*----------------------------------*\
| =========                 |                                                 |
| \\      /  F ield         | OpenFOAM: The Open Source CFD Toolbox           |
|  \\    /   O peration     | Version:  v2012                                 |
|   \\  /    A nd           | Website:  www.openfoam.com                      |
|    \\/     M anipulation  |                                                 |
\*---------------------------------------------------------------------------*/
FoamFile
{
    version     2.0;
    format      ascii;
    class       volScalarField;
    location    "1400";
    object      p;
}
// * * * * * * * * * * * * * * * * * * * * * * * * * * * * * * * * * * * * * //

dimensions      [0 2 -2 0 0 0 0];


internalField   nonuniform List<scalar> 
12225
(
514.68
55.5322
2.3681
0.286374
-1.89371
-3.36947
-3.81096
-4.01417
-4.22366
-4.37639
-4.42111
-4.4229
-4.42212
-4.44963
-4.49706
-4.5655
-4.72315
-4.94216
-122.175
0.242914
-2.71418
-0.760476
-2.21145
-3.52006
-3.94675
-4.13315
-4.27172
-4.36294
-4.43449
-4.49492
-4.55112
-4.59009
-4.62248
-4.65778
-4.73445
-4.85879
-200.642
-16.1445
-2.34228
-0.353779
-1.89589
-3.2398
-3.76524
-4.01983
-4.19168
-4.30755
-4.40103
-4.47059
-4.52179
-4.55071
-4.57369
-4.5949
-4.63265
-4.62918
-110.613
-10.9702
-2.17307
-0.427591
-1.78293
-3.02373
-3.59477
-3.90654
-4.11955
-4.26408
-4.36762
-4.43802
-4.48611
-4.51561
-4.53675
-4.54778
-4.54965
-4.48421
-61.5691
-8.14207
-3.6186
-1.20569
-2.01056
-2.99333
-3.52351
-3.84759
-4.07491
-4.23061
-4.33895
-4.41274
-4.46305
-4.4944
-4.51181
-4.51132
-4.48636
-4.3965
-45.7272
-8.78156
-5.25488
-2.19616
-2.42546
-3.09631
-3.53173
-3.83237
-4.05241
-4.20761
-4.31744
-4.39384
-4.44574
-4.47687
-4.48975
-4.48031
-4.44052
-4.34528
-35.791
-9.27284
-6.37673
-3.12072
-2.91765
-3.28556
-3.59982
-3.8537
-4.05229
-4.19889
-4.30583
-4.38176
-4.43322
-4.46318
-4.47291
-4.45895
-4.41473
-4.32651
-27.7745
-8.90367
-6.97029
-3.79915
-3.35798
-3.49478
-3.69736
-3.89922
-4.07103
-4.20463
-4.3054
-4.37853
-4.42856
-4.45766
-4.46654
-4.45254
-4.41112
-4.33521
-21.6866
-8.51666
-7.13109
-4.30719
-3.72555
-3.7028
-3.8137
-3.96386
-4.10599
-4.22342
-4.31548
-4.38411
-4.43188
-4.46016
-4.46926
-4.45742
-4.42197
-4.35989
-16.6093
-8.13738
-7.08484
-4.75225
-4.08013
-3.93155
-3.95704
-4.05183
-4.15953
-4.25672
-4.33709
-4.39934
-4.444
-4.47153
-4.48198
-4.47451
-4.44814
-4.40275
-12.6356
-7.6776
-6.90293
-5.09868
-4.40397
-4.1678
-4.11997
-4.16051
-4.2317
-4.30589
-4.37227
-4.42662
-4.46757
-4.49469
-4.50786
-4.50694
-4.49229
-4.46536
-9.69572
-7.14553
-6.62608
-5.32361
-4.67597
-4.39477
-4.29259
-4.28559
-4.32152
-4.37186
-4.42303
-4.4686
-4.50566
-4.53297
-4.55023
-4.55773
-4.55648
-4.54863
-7.66278
-6.60149
-6.30287
-5.42863
-4.88048
-4.59497
-4.46176
-4.41914
-4.42498
-4.4533
-4.48979
-4.52684
-4.56047
-4.58885
-4.6114
-4.6285
-4.64129
-4.65175
-6.36765
-6.10979
-5.98257
-5.43734
-5.01311
-4.75517
-4.61405
-4.55078
-4.53518
-4.54616
-4.57062
-4.60079
-4.63229
-4.66285
-4.69164
-4.71875
-4.74512
-4.77212
-5.61934
-5.71907
-5.7058
-5.38777
-5.083
-4.87028
-4.73929
-4.67
-4.64328
-4.64375
-4.66065
-4.68697
-4.71839
-4.75249
-4.78813
-4.82506
-4.86368
-4.90476
-5.23992
-5.45678
-5.50478
-5.32432
-5.1119
-4.94497
-4.83283
-4.768
-4.73947
-4.73676
-4.75156
-4.77795
-4.81195
-4.85112
-4.89406
-4.94016
-4.98929
-5.04167
-5.09855
-5.34073
-5.41347
-5.29552
-5.13156
-4.9925
-4.89491
-4.83706
-4.812
-4.81184
-4.8297
-4.86031
-4.89988
-4.9459
-4.99673
-5.05143
-5.10948
-5.17069
-5.13607
-5.39636
-5.4705
-5.3444
-5.1706
-5.0249
-4.92462
-4.86741
-4.84543
-4.85022
-4.87432
-4.91208
-4.95934
-5.01335
-5.07215
-5.13459
-5.19986
-5.26761
-5.38813
-5.65058
-5.68634
-5.47124
-5.22208
-5.03172
-4.91061
-4.84748
-4.82835
-4.84049
-4.87398
-4.92163
-4.9786
-5.04162
-5.10865
-5.17831
-5.24986
-5.32281
-5.99725
-6.13218
-6.03802
-5.63059
-5.24269
-4.98302
-4.83657
-4.77161
-4.762
-4.7882
-4.83653
-4.89809
-4.96733
-5.04087
-5.11668
-5.1936
-5.27096
-5.34858
-7.24468
-6.88463
-6.48938
-5.75719
-5.17861
-4.84874
-4.69227
-4.64221
-4.65607
-4.70644
-4.77637
-4.856
-4.93984
-5.02494
-5.10983
-5.19379
-5.27657
-5.35827
-9.63604
-7.95955
-6.97765
-5.7671
-4.9751
-4.60808
-4.47823
-4.47009
-4.52503
-4.61023
-4.70766
-4.80822
-4.90767
-5.0043
-5.0977
-5.18796
-5.27537
-5.36038
-13.9772
-9.38595
-7.39812
-5.56472
-4.59036
-4.26039
-4.21167
-4.27664
-4.3889
-4.51643
-4.64411
-4.76593
-4.88001
-4.98664
-5.08691
-5.18205
-5.27288
-5.36026
-20.8848
-10.9489
-7.5491
-5.0524
-4.01156
-3.83223
-3.92706
-4.09154
-4.2701
-4.44102
-4.5971
-4.73727
-4.86316
-4.97688
-5.08138
-5.17939
-5.27224
-5.36073
-29.7314
-11.9443
-7.02842
-4.12129
-3.2598
-3.37458
-3.66842
-3.94485
-4.18756
-4.39594
-4.57381
-4.72686
-4.85976
-4.97681
-5.08272
-5.1815
-5.27469
-5.36308
-43.1014
-12.6089
-5.4677
-2.72412
-2.40903
-2.96011
-3.48197
-3.86047
-4.15196
-4.38535
-4.57636
-4.73478
-4.86887
-4.98475
-5.08918
-5.18768
-5.28014
-5.36718
-84.5945
-17.3684
-3.65901
-1.2606
-1.69176
-2.71851
-3.43393
-3.86779
-4.1707
-4.40613
-4.60128
-4.76175
-4.89265
-5.00034
-5.09838
-5.19618
-5.28764
-5.3715
-177.881
-26.8446
-3.67509
-0.765377
-1.53081
-2.83967
-3.61198
-4.01241
-4.26444
-4.45859
-4.64164
-4.80778
-4.94349
-5.0424
-5.12471
-5.21652
-5.3052
-5.38325
-154.786
-9.62232
-3.26736
-1.06348
-1.83882
-3.21744
-3.91144
-4.22166
-4.41131
-4.5499
-4.69152
-4.84522
-4.99732
-5.11311
-5.19663
-5.28581
-5.36996
-5.44774
428.062
66.6105
7.06094
1.60419
-0.91135
-2.85348
-3.6497
-3.9924
-4.31145
-4.58653
-4.71875
-4.76252
-4.80773
-4.91218
-5.04561
-5.1402
-5.22346
-5.31444
-8.50358
-8.49077
-8.48071
-8.52263
-8.61553
-8.71849
-8.79741
-8.83632
-8.83907
-8.82093
-8.79337
-8.7649
-8.74352
-8.73507
-8.74025
-8.75269
-8.76352
-8.76841
-8.76986
-8.77446
-8.78561
-8.8189
-8.90956
-9.08353
-9.33846
-9.65769
-10.03
-10.4444
-10.8854
-11.3369
-11.784
-12.2148
-12.6202
-12.9937
-13.3309
-13.6295
-13.8885
-14.1081
-14.2887
-14.4316
-14.5379
-14.6089
-14.6461
-14.6508
-14.6243
-14.5679
-14.4833
-14.3727
-14.2375
-14.0752
-13.8835
-13.6635
-13.4181
-13.1488
-12.8571
-12.5438
-12.2102
-11.8572
-11.4857
-11.097
-10.6919
-10.2718
-9.83764
-9.39065
-8.93199
-8.46286
-7.98445
-7.49797
-7.0046
-6.50553
-6.00192
-5.49492
-4.98564
-4.47515
-3.9645
-3.4547
-2.9467
-2.4414
-1.93967
-1.44233
-0.950115
-0.463737
0.0161587
0.488982
0.954196
1.41132
1.85994
2.29966
2.73019
3.15126
3.56267
3.96423
4.35579
4.73731
5.10905
5.471
5.82269
6.16373
6.49413
6.81412
7.12393
7.42377
7.71382
7.99427
8.26531
8.52712
8.77993
9.02395
9.2594
9.48649
9.70543
9.91648
10.1199
10.3159
10.5047
10.6867
10.8619
11.0307
11.1933
11.3499
11.5008
11.6461
11.7861
11.921
12.051
12.1763
12.2971
12.4136
12.5259
12.6342
12.7386
12.8396
12.9375
13.032
13.1234
13.2115
13.2967
13.3791
13.4587
13.5358
13.6104
13.6826
13.7525
13.8203
13.886
13.9496
14.0113
14.0712
14.1293
14.1856
14.2402
14.2932
14.3447
14.3946
14.443
14.4899
14.5354
14.5794
14.6221
14.6635
14.7035
14.7421
14.7795
14.8155
14.8503
14.8839
14.9162
14.9474
14.9774
15.0066
15.0348
15.0625
15.0899
15.1176
15.1462
15.177
15.2124
15.254
15.312
15.3725
-8.56154
-8.59283
-8.66688
-8.76033
-8.86328
-8.95471
-9.01504
-9.0385
-9.02045
-8.95907
-8.86887
-8.7723
-8.69153
-8.64135
-8.62003
-8.61729
-8.62739
-8.65396
-8.69262
-8.71423
-8.73682
-8.81686
-8.98237
-9.22597
-9.53562
-9.90878
-10.3357
-10.7961
-11.2686
-11.7354
-12.1844
-12.6061
-12.9944
-13.3455
-13.6577
-13.9306
-14.1648
-14.3613
-14.5211
-14.6455
-14.7357
-14.7927
-14.8175
-14.811
-14.774
-14.7072
-14.6109
-14.4852
-14.3307
-14.1504
-13.9481
-13.7239
-13.477
-13.2076
-12.9161
-12.6035
-12.2706
-11.9184
-11.5477
-11.1597
-10.7554
-10.3359
-9.90234
-9.45588
-8.99767
-8.5289
-8.05077
-7.56448
-7.07123
-6.5722
-6.06855
-5.56141
-5.05192
-4.54114
-4.03012
-3.51987
-3.01134
-2.50545
-2.00306
-1.50497
-1.01196
-0.524726
-0.0439149
0.429873
0.896093
1.35426
1.80392
2.24469
2.67621
3.09819
3.51037
3.9125
4.30436
4.68584
5.05705
5.41817
5.76942
6.11081
6.4422
6.76347
7.07468
7.37593
7.6674
7.94924
8.22165
8.48481
8.73893
8.98423
9.22094
9.44929
9.66951
9.88181
10.0864
10.2837
10.4737
10.6567
10.8331
11.003
11.1667
11.3243
11.4762
11.6226
11.7636
11.8994
12.0305
12.1569
12.2787
12.3963
12.5096
12.6191
12.7246
12.8263
12.9243
13.0189
13.1104
13.1987
13.2842
13.3668
13.4467
13.5241
13.599
13.6715
13.7417
13.8098
13.8758
13.9397
14.0018
14.0619
14.1202
14.1768
14.2317
14.285
14.3367
14.3868
14.4354
14.4826
14.5283
14.5726
14.6155
14.657
14.6971
14.736
14.7735
14.8097
14.8446
14.8783
14.9108
14.9421
14.9723
15.0016
15.03
15.0578
15.0853
15.113
15.1417
15.1724
15.2072
15.2468
15.3005
15.3503
-8.6888
-8.77037
-8.88797
-8.99324
-9.07542
-9.1285
-9.14836
-9.13375
-9.08337
-8.99962
-8.89177
-8.77667
-8.67798
-8.61488
-8.58727
-8.58339
-8.60382
-8.66324
-8.771
-8.92096
-9.11182
-9.35373
-9.64981
-9.99049
-10.3637
-10.7601
-11.1696
-11.5806
-11.9825
-12.3682
-12.7332
-13.0736
-13.387
-13.6716
-13.9264
-14.1509
-14.345
-14.5087
-14.6422
-14.746
-14.8202
-14.8654
-14.8819
-14.8702
-14.8307
-14.7639
-14.67
-14.5491
-14.4012
-14.2272
-14.0286
-13.8064
-13.5611
-13.2933
-13.0037
-12.6929
-12.3619
-12.0114
-11.6425
-11.2562
-10.8535
-10.4354
-10.0031
-9.55786
-9.10069
-8.63281
-8.15543
-7.66975
-7.17696
-6.67823
-6.17475
-5.66765
-5.15805
-4.64704
-4.13567
-3.62494
-3.11583
-2.60925
-2.10607
-1.60711
-1.11314
-0.624855
-0.142926
0.332047
0.799518
1.25899
1.71003
2.15224
2.58528
3.00888
3.42278
3.8268
4.22077
4.60462
4.97832
5.34188
5.69532
6.03866
6.37187
6.69494
7.00795
7.31102
7.60429
7.88792
8.16209
8.427
8.68284
8.92984
9.16821
9.39819
9.61999
9.83385
10.04
10.2387
10.4302
10.6146
10.7924
10.9636
11.1286
11.2876
11.4407
11.5883
11.7304
11.8674
11.9993
12.1265
12.2492
12.3674
12.4815
12.5915
12.6977
12.8001
12.8991
12.9947
13.0872
13.1766
13.2629
13.3464
13.4272
13.5053
13.5809
13.6541
13.7251
13.7937
13.8603
13.9248
13.9874
14.0481
14.1069
14.1639
14.2193
14.273
14.3251
14.3756
14.4246
14.4721
14.5181
14.5627
14.6059
14.6477
14.6881
14.7272
14.765
14.8014
14.8366
14.8705
14.9032
14.9347
14.965
14.9944
15.0229
15.0508
15.0783
15.106
15.1344
15.1645
15.198
15.2346
15.282
15.3156
-8.7265
-8.82347
-8.92439
-9.0106
-9.07464
-9.11386
-9.12579
-9.10785
-9.06013
-8.9878
-8.90229
-8.82054
-8.76067
-8.73532
-8.74913
-8.80419
-8.90447
-9.05377
-9.25271
-9.49574
-9.77349
-10.079
-10.4064
-10.7497
-11.1033
-11.4621
-11.8207
-12.174
-12.5174
-12.8468
-13.159
-13.4514
-13.7217
-13.9684
-14.1902
-14.3863
-14.556
-14.6989
-14.8149
-14.9038
-14.9658
-15.0008
-15.009
-14.9905
-14.9455
-14.874
-14.7766
-14.6533
-14.5048
-14.3317
-14.1346
-13.914
-13.6703
-13.4041
-13.1161
-12.8071
-12.4777
-12.1288
-11.7615
-11.3766
-10.9751
-10.5582
-10.127
-9.68259
-9.22611
-8.75879
-8.2818
-7.79635
-7.30362
-6.80481
-6.30108
-5.79359
-5.28345
-4.77177
-4.25958
-3.74792
-3.23774
-2.72998
-2.22551
-1.72516
-1.2297
-0.739841
-0.256255
0.22045
0.689721
1.15106
1.60401
2.0482
2.48326
2.90892
3.32494
3.73112
4.12732
4.51346
4.88948
5.25536
5.61105
5.95656
6.29187
6.61703
6.93212
7.23725
7.53257
7.81823
8.09441
8.3613
8.61909
8.86801
9.10826
9.34007
9.56367
9.77928
9.98715
10.1875
10.3807
10.5668
10.7461
10.9188
11.0853
11.2456
11.4001
11.549
11.6924
11.8306
11.9638
12.0922
12.2159
12.3353
12.4505
12.5615
12.6687
12.7722
12.8722
12.9689
13.0624
13.1526
13.2399
13.3242
13.4058
13.4847
13.5611
13.635
13.7066
13.776
13.8432
13.9083
13.9714
14.0326
14.092
14.1496
14.2054
14.2596
14.3121
14.363
14.4124
14.4603
14.5067
14.5517
14.5952
14.6373
14.6781
14.7175
14.7555
14.7922
14.8276
14.8617
14.8946
14.9262
14.9567
14.9862
15.0147
15.0426
15.0699
15.0973
15.1251
15.154
15.1853
15.2178
15.2572
15.2758
-8.51282
-8.5976
-8.69766
-8.79465
-8.87178
-8.92422
-8.95101
-8.95308
-8.93501
-8.90523
-8.87591
-8.86104
-8.87334
-8.92226
-9.01389
-9.15125
-9.33428
-9.55831
-9.81487
-10.0959
-10.396
-10.711
-11.0364
-11.3674
-11.6995
-12.0291
-12.3527
-12.6673
-12.9702
-13.259
-13.5316
-13.7865
-14.0221
-14.2373
-14.4311
-14.6026
-14.7512
-14.8762
-14.9772
-15.0539
-15.1059
-15.1331
-15.1353
-15.1124
-15.0643
-14.991
-14.8927
-14.7695
-14.6217
-14.4496
-14.2537
-14.0343
-13.7921
-13.5274
-13.2409
-12.9333
-12.6054
-12.258
-11.8919
-11.5082
-11.1079
-10.692
-10.2616
-9.81782
-9.36189
-8.89497
-8.41823
-7.93288
-7.4401
-6.9411
-6.43703
-5.92905
-5.41829
-4.90584
-4.39277
-3.8801
-3.3688
-2.8598
-2.35399
-1.85219
-1.35519
-0.863702
-0.378403
0.100095
0.571233
1.03451
1.48946
1.93571
2.3729
2.80073
3.21897
3.62741
4.0259
4.41434
4.79267
5.16082
5.51878
5.86652
6.20407
6.53145
6.84876
7.15611
7.45363
7.74147
8.0198
8.28882
8.54871
8.7997
9.04199
9.27582
9.5014
9.71896
9.92874
10.131
10.3259
10.5137
10.6948
10.8692
11.0373
11.1992
11.3552
11.5056
11.6505
11.7901
11.9247
12.0545
12.1796
12.3003
12.4167
12.5289
12.6373
12.7419
12.843
12.9407
13.0351
13.1264
13.2145
13.2998
13.3822
13.4619
13.5391
13.6138
13.6861
13.7562
13.8241
13.8899
13.9537
14.0155
14.0754
14.1336
14.19
14.2446
14.2977
14.3491
14.3989
14.4473
14.4941
14.5395
14.5834
14.6259
14.667
14.7067
14.745
14.782
14.8177
14.852
14.8851
14.9169
14.9475
14.977
15.0055
15.0332
15.0603
15.087
15.1139
15.1412
15.1697
15.1975
15.2291
15.2352
-8.09222
-8.1807
-8.30177
-8.42453
-8.52972
-8.61007
-8.66841
-8.7107
-8.74467
-8.78015
-8.82811
-8.89878
-9.00012
-9.13682
-9.31098
-9.5215
-9.76364
-10.0318
-10.3207
-10.6245
-10.9378
-11.256
-11.5751
-11.8915
-12.2027
-12.5063
-12.8007
-13.0841
-13.3551
-13.6124
-13.8549
-14.0813
-14.2907
-14.4821
-14.6545
-14.8072
-14.9393
-15.0503
-15.1394
-15.2061
-15.25
-15.2706
-15.2677
-15.2409
-15.1901
-15.1151
-15.0158
-14.8924
-14.7448
-14.5735
-14.3785
-14.1603
-13.9193
-13.656
-13.3709
-13.0648
-12.7383
-12.3922
-12.0275
-11.645
-11.2458
-10.831
-10.4014
-9.95842
-9.50309
-9.03662
-8.56019
-8.07498
-7.5822
-7.08303
-6.57866
-6.07023
-5.55888
-5.04571
-4.53178
-4.01812
-3.50571
-2.9955
-2.48836
-1.98513
-1.4866
-0.993493
-0.506488
-0.0262031
0.446798
0.912007
1.36897
1.81728
2.25659
2.6866
3.10705
3.51776
3.91854
4.3093
4.68993
5.06039
5.42063
5.77066
6.11049
6.44016
6.75975
7.06937
7.36915
7.65924
7.93982
8.21106
8.47315
8.7263
8.97072
9.20663
9.43426
9.65384
9.86559
10.0698
10.2666
10.4563
10.6392
10.8154
10.9852
11.1489
11.3066
11.4586
11.605
11.7462
11.8823
12.0135
12.1401
12.2621
12.3798
12.4934
12.603
12.7089
12.8111
12.9099
13.0054
13.0976
13.1868
13.273
13.3564
13.437
13.5151
13.5906
13.6638
13.7346
13.8033
13.8698
13.9343
13.9968
14.0574
14.1162
14.1731
14.2284
14.282
14.3339
14.3843
14.4331
14.4804
14.5262
14.5706
14.6135
14.6549
14.695
14.7337
14.771
14.8069
14.8415
14.8748
14.9068
14.9375
14.967
14.9954
15.0229
15.0495
15.0755
15.1011
15.1265
15.1519
15.1749
15.1992
15.1946
-7.62827
-7.72702
-7.86923
-8.01816
-8.15623
-8.27506
-8.37832
-8.47541
-8.57576
-8.68829
-8.82053
-8.97728
-9.16122
-9.37272
-9.61005
-9.87104
-10.1527
-10.4503
-10.7586
-11.0725
-11.3878
-11.701
-12.0095
-12.3112
-12.6045
-12.8882
-13.1613
-13.4228
-13.6718
-13.9076
-14.1292
-14.3359
-14.5268
-14.7011
-14.858
-14.9967
-15.1164
-15.2164
-15.296
-15.3546
-15.3917
-15.4067
-15.3991
-15.3687
-15.315
-15.2379
-15.1373
-15.013
-14.8651
-14.6938
-14.4992
-14.2816
-14.0413
-13.7789
-13.4949
-13.1899
-12.8646
-12.5197
-12.1562
-11.7749
-11.3768
-10.963
-10.5346
-10.0925
-9.63802
-9.17228
-8.69647
-8.21176
-7.71937
-7.22046
-6.71621
-6.20777
-5.69627
-5.18282
-4.66848
-4.15428
-3.64119
-3.13018
-2.62211
-2.11784
-1.61814
-1.12377
-0.635381
-0.153613
0.320967
0.787847
1.24656
1.69671
2.13793
2.56992
2.99242
3.40522
3.80814
4.20107
4.58389
4.95655
5.31901
5.67126
6.01331
6.34523
6.66707
6.97894
7.28098
7.57331
7.85612
8.12957
8.39385
8.64918
8.89575
9.13379
9.36352
9.58516
9.79896
10.0051
10.2039
10.3956
10.5804
10.7584
10.9301
11.0955
11.255
11.4086
11.5568
11.6996
11.8372
11.97
12.098
12.2215
12.3406
12.4555
12.5665
12.6736
12.7771
12.877
12.9736
13.067
13.1572
13.2445
13.3289
13.4105
13.4895
13.5659
13.64
13.7117
13.7811
13.8484
13.9137
13.9769
14.0382
14.0976
14.1553
14.2112
14.2654
14.3179
14.3688
14.4181
14.466
14.5122
14.5571
14.6004
14.6423
14.6827
14.7218
14.7594
14.7957
14.8305
14.864
14.8961
14.9269
14.9564
14.9847
15.0118
15.0379
15.0629
15.0872
15.1103
15.1325
15.1506
15.1682
15.1543
-7.27509
-7.36839
-7.52058
-7.6865
-7.85359
-8.01497
-8.17018
-8.3271
-8.49391
-8.67639
-8.87853
-9.10144
-9.34366
-9.60432
-9.88284
-10.1769
-10.4826
-10.7956
-11.1118
-11.4276
-11.74
-12.0468
-12.3462
-12.6369
-12.9178
-13.1881
-13.447
-13.6941
-13.9286
-14.1501
-14.3577
-14.551
-14.7292
-14.8916
-15.0374
-15.166
-15.2765
-15.3683
-15.4407
-15.4929
-15.5245
-15.5347
-15.5232
-15.4894
-15.433
-15.3537
-15.2513
-15.1257
-14.9769
-14.8049
-14.6099
-14.3921
-14.1519
-13.8897
-13.606
-13.3013
-12.9765
-12.6323
-12.2694
-11.8889
-11.4916
-11.0786
-10.6509
-10.2097
-9.75601
-9.29106
-8.816
-8.33203
-7.84031
-7.34202
-6.83833
-6.33037
-5.81928
-5.30614
-4.79201
-4.27792
-3.76484
-3.25372
-2.74543
-2.24082
-1.74067
-1.24571
-0.756633
-0.274054
0.201454
0.669373
1.12924
1.58064
2.02322
2.45666
2.8807
3.29511
3.69971
4.09437
4.47899
4.85349
5.21783
5.57199
5.91601
6.24991
6.57377
6.88768
7.19178
7.48619
7.77108
8.04662
8.313
8.57041
8.81906
9.05916
9.29094
9.51461
9.73042
9.93858
10.1393
10.3329
10.5196
10.6995
10.873
11.0402
11.2014
11.3568
11.5066
11.651
11.7903
11.9246
12.0542
12.1791
12.2997
12.416
12.5283
12.6368
12.7415
12.8427
12.9405
13.035
13.1264
13.2147
13.3001
13.3828
13.4628
13.5402
13.6151
13.6877
13.758
13.8262
13.8922
13.9562
14.0182
14.0784
14.1367
14.1933
14.2481
14.3012
14.3527
14.4026
14.451
14.4978
14.5431
14.5869
14.6292
14.6701
14.7095
14.7475
14.784
14.8192
14.8528
14.8851
14.9159
14.9454
14.9735
15.0002
15.0256
15.0496
15.0722
15.093
15.1119
15.1252
15.1369
15.1149
-7.08744
-7.17356
-7.32787
-7.50043
-7.68411
-7.87682
-8.07521
-8.28125
-8.4994
-8.73199
-8.97933
-9.24137
-9.51802
-9.80885
-10.1119
-10.424
-10.7415
-11.061
-11.3794
-11.6943
-12.0034
-12.3051
-12.5982
-12.8815
-13.1543
-13.416
-13.6661
-13.904
-14.1294
-14.3418
-14.5406
-14.7252
-14.8951
-15.0496
-15.188
-15.3097
-15.4139
-15.4998
-15.5669
-15.6144
-15.6417
-15.6482
-15.6333
-15.5966
-15.5377
-15.4563
-15.3521
-15.2249
-15.0748
-14.9017
-14.7058
-14.4873
-14.2465
-13.9839
-13.6999
-13.3951
-13.0702
-12.7261
-12.3634
-11.9831
-11.5861
-11.1735
-10.7463
-10.3057
-9.85261
-9.38832
-8.91397
-8.43072
-7.93974
-7.4422
-6.93925
-6.43204
-5.92166
-5.40921
-4.89573
-4.38224
-3.8697
-3.35904
-2.85114
-2.34684
-1.84691
-1.35207
-0.863003
-0.380333
0.095373
0.563599
1.02388
1.4758
1.919
2.35317
2.77803
3.19337
3.59899
3.99477
4.38058
4.75635
5.12203
5.47761
5.8231
6.15853
6.48399
6.79955
7.10533
7.40148
7.68813
7.96547
8.23366
8.4929
8.74339
8.98535
9.21898
9.44451
9.66216
9.87216
10.0747
10.2701
10.4586
10.6403
10.8155
10.9845
11.1474
11.3044
11.4559
11.6019
11.7428
11.8786
12.0096
12.1361
12.2581
12.3758
12.4895
12.5992
12.7053
12.8077
12.9067
13.0024
13.0949
13.1843
13.2708
13.3545
13.4355
13.5138
13.5897
13.6632
13.7344
13.8034
13.8703
13.935
13.9979
14.0587
14.1178
14.175
14.2305
14.2842
14.3364
14.3869
14.4358
14.4831
14.5289
14.5732
14.616
14.6573
14.6971
14.7355
14.7723
14.8077
14.8416
14.874
14.9049
14.9342
14.962
14.9883
15.0129
15.0358
15.0568
15.0752
15.0906
15.0995
15.1057
15.0766
-7.06236
-7.14939
-7.29717
-7.4661
-7.65308
-7.85798
-8.07762
-8.31003
-8.55546
-8.81442
-9.08636
-9.37044
-9.66638
-9.97299
-10.2876
-10.6071
-10.9287
-11.2497
-11.5677
-11.8807
-12.1869
-12.4849
-12.7737
-13.0525
-13.3206
-13.5774
-13.8225
-14.0554
-14.2758
-14.4831
-14.6768
-14.8566
-15.0217
-15.1715
-15.3055
-15.4229
-15.523
-15.6052
-15.6687
-15.7129
-15.7371
-15.7407
-15.7232
-15.6841
-15.623
-15.5396
-15.4336
-15.3048
-15.1532
-14.9788
-14.7817
-14.5622
-14.3205
-14.0571
-13.7725
-13.4673
-13.1421
-12.7977
-12.4349
-12.0546
-11.6578
-11.2455
-10.8187
-10.3785
-9.92603
-9.46241
-8.98881
-8.50638
-8.01629
-7.51969
-7.01771
-6.5115
-6.00214
-5.49071
-4.97824
-4.46575
-3.95418
-3.44446
-2.93744
-2.43396
-1.93479
-1.44064
-0.952186
-0.47004
0.00523687
0.473134
0.933191
1.385
1.8282
2.26247
2.68755
3.1032
3.50925
3.90553
4.29195
4.66841
5.03488
5.39132
5.73776
6.07423
6.40079
6.71753
7.02456
7.32201
7.61003
7.88877
8.15842
8.41915
8.67116
8.91467
9.14987
9.37699
9.59624
9.80786
10.0121
10.2091
10.3991
10.5825
10.7593
10.9298
11.0943
11.2529
11.4059
11.5534
11.6957
11.833
11.9655
12.0933
12.2167
12.3358
12.4508
12.5618
12.6691
12.7728
12.8729
12.9698
13.0634
13.1539
13.2414
13.3261
13.4081
13.4875
13.5643
13.6387
13.7108
13.7806
13.8483
13.9139
13.9774
14.0391
14.0988
14.1567
14.2129
14.2673
14.32
14.3711
14.4206
14.4685
14.5148
14.5596
14.6029
14.6446
14.6848
14.7235
14.7607
14.7964
14.8305
14.863
14.8939
14.9231
14.9506
14.9764
15.0002
15.0218
15.041
15.057
15.0692
15.0738
15.0751
15.0399
-7.17584
-7.2542
-7.38511
-7.54107
-7.71988
-7.92122
-8.14235
-8.3807
-8.63462
-8.90273
-9.18332
-9.47527
-9.77763
-10.0884
-10.4051
-10.7252
-11.0461
-11.3656
-11.6816
-11.9923
-12.296
-12.5917
-12.8783
-13.1549
-13.4209
-13.6757
-13.9189
-14.1499
-14.3683
-14.5737
-14.7656
-14.9433
-15.1063
-15.2541
-15.3859
-15.5012
-15.5991
-15.6791
-15.7405
-15.7825
-15.8046
-15.8062
-15.7867
-15.7457
-15.6828
-15.5976
-15.4899
-15.3595
-15.2064
-15.0307
-14.8324
-14.6118
-14.3691
-14.1049
-13.8196
-13.5138
-13.1883
-12.8436
-12.4808
-12.1006
-11.704
-11.2921
-10.8658
-10.4262
-9.97456
-9.51187
-9.0393
-8.55801
-8.06915
-7.57385
-7.07326
-6.56847
-6.06058
-5.55066
-5.03971
-4.52873
-4.01867
-3.51042
-3.00483
-2.50273
-2.00488
-1.51197
-1.02467
-0.543585
-0.0692794
0.397745
0.857032
1.30818
1.75082
2.18464
2.60938
3.0248
3.43073
3.827
4.2135
4.59016
4.95692
5.31376
5.66069
5.99774
6.32497
6.64247
6.95035
7.24871
7.53771
7.8175
8.08826
8.35015
8.60337
8.84813
9.08462
9.31306
9.53367
9.74666
9.95225
10.1507
10.3421
10.5269
10.7051
10.8771
11.043
11.203
11.3574
11.5063
11.65
11.7887
11.9225
12.0516
12.1763
12.2967
12.4129
12.5252
12.6336
12.7384
12.8397
12.9377
13.0323
13.1239
13.2125
13.2982
13.3811
13.4614
13.5392
13.6145
13.6874
13.7581
13.8266
13.8929
13.9573
14.0196
14.0801
14.1387
14.1955
14.2506
14.3039
14.3556
14.4057
14.4541
14.501
14.5463
14.59
14.6322
14.6728
14.7119
14.7494
14.7853
14.8196
14.8523
14.8832
14.9123
14.9395
14.9646
14.9876
15.008
15.0254
15.039
15.0481
15.0487
15.0455
15.0051
-7.35383
-7.41835
-7.52922
-7.6677
-7.83164
-8.02054
-8.23206
-8.4635
-8.71239
-8.97637
-9.25321
-9.54172
-9.84066
-10.1478
-10.4607
-10.777
-11.0944
-11.4107
-11.7239
-12.0324
-12.3346
-12.6292
-12.9152
-13.1917
-13.4578
-13.7131
-13.9568
-14.1884
-14.4074
-14.6133
-14.8055
-14.9835
-15.1466
-15.2942
-15.4257
-15.5404
-15.6376
-15.7167
-15.7769
-15.8178
-15.8386
-15.8388
-15.8178
-15.7753
-15.7109
-15.6242
-15.515
-15.3832
-15.2288
-15.0518
-14.8524
-14.6308
-14.3873
-14.1224
-13.8366
-13.5304
-13.2047
-12.8601
-12.4974
-12.1176
-11.7217
-11.3105
-10.8852
-10.4468
-9.99641
-9.53517
-9.06418
-8.5846
-8.09756
-7.60418
-7.10557
-6.60284
-6.09704
-5.58923
-5.08041
-4.57156
-4.06362
-3.55746
-3.05392
-2.55381
-2.05788
-1.56682
-1.08128
-0.601874
-0.129137
0.336427
0.794368
1.24428
1.68582
2.11866
2.54253
2.95722
3.36252
3.7583
4.14443
4.52083
4.88745
5.24426
5.59127
5.92852
6.25604
6.57394
6.8823
7.18124
7.4709
7.75143
8.023
8.28577
8.53993
8.78568
9.02322
9.25275
9.47448
9.68863
9.89542
10.0951
10.2878
10.4738
10.6533
10.8265
10.9937
11.155
11.3106
11.4608
11.6058
11.7457
11.8808
12.0111
12.137
12.2586
12.376
12.4894
12.599
12.7049
12.8073
12.9063
13.002
13.0946
13.1842
13.2709
13.3547
13.4359
13.5146
13.5907
13.6645
13.736
13.8053
13.8725
13.9375
14.0006
14.0618
14.1211
14.1786
14.2343
14.2883
14.3405
14.3912
14.4402
14.4876
14.5334
14.5776
14.6202
14.6613
14.7007
14.7386
14.7748
14.8092
14.842
14.8729
14.9018
14.9287
14.9533
14.9754
14.9945
15.0102
15.0215
15.0276
15.0246
15.0173
14.9724
-7.52831
-7.57976
-7.67232
-7.79295
-7.93967
-8.11194
-8.30768
-8.5245
-8.75992
-9.01138
-9.27686
-9.55524
-9.84509
-10.1442
-10.4501
-10.7604
-11.0729
-11.3855
-11.6961
-12.0029
-12.3046
-12.5995
-12.8866
-13.1647
-13.433
-13.6906
-13.9369
-14.1711
-14.3927
-14.601
-14.7953
-14.9752
-15.1399
-15.2887
-15.4211
-15.5364
-15.6339
-15.713
-15.773
-15.8133
-15.8334
-15.8326
-15.8107
-15.767
-15.7014
-15.6135
-15.5031
-15.3702
-15.2148
-15.0368
-14.8366
-14.6143
-14.3703
-14.1051
-13.8191
-13.5131
-13.1877
-12.8436
-12.4818
-12.103
-11.7082
-11.2985
-10.8748
-10.4382
-9.98987
-9.53079
-9.06214
-8.58502
-8.10055
-7.60985
-7.11401
-6.61411
-6.11119
-5.60628
-5.10037
-4.59442
-4.08935
-3.58603
-3.08528
-2.58789
-2.09459
-1.60607
-1.12297
-0.645878
-0.175344
0.288146
0.744146
1.19226
1.63213
2.06344
2.48594
2.89938
3.30359
3.69841
4.08372
4.45944
4.82551
5.1819
5.52862
5.8657
6.19318
6.51114
6.81967
7.11889
7.40893
7.68993
7.96204
8.22544
8.48031
8.72683
8.9652
9.19562
9.41829
9.63343
9.84123
10.0419
10.2357
10.4228
10.6035
10.7779
10.9462
11.1087
11.2655
11.4169
11.563
11.7041
11.8403
11.9719
12.0989
12.2216
12.3401
12.4546
12.5653
12.6723
12.7757
12.8757
12.9724
13.066
13.1565
13.2441
13.3289
13.411
13.4906
13.5676
13.6422
13.7145
13.7845
13.8525
13.9183
13.9821
14.044
14.104
14.1621
14.2184
14.273
14.3259
14.3771
14.4267
14.4746
14.5209
14.5656
14.6087
14.6502
14.6901
14.7282
14.7647
14.7994
14.8322
14.8631
14.8919
14.9185
14.9425
14.9637
14.9816
14.9956
15.0047
15.008
15.0017
14.9907
14.9421
-7.65503
-7.69722
-7.77441
-7.8784
-8.00771
-8.16188
-8.33915
-8.53755
-8.75506
-8.98947
-9.2394
-9.50414
-9.78221
-10.0713
-10.369
-10.6729
-10.9805
-11.2899
-11.5987
-11.9052
-12.2076
-12.5044
-12.7941
-13.0756
-13.3477
-13.6095
-13.86
-14.0984
-14.3239
-14.5359
-14.7337
-14.9166
-15.0839
-15.2349
-15.369
-15.4856
-15.584
-15.6636
-15.7237
-15.7639
-15.7836
-15.7823
-15.7596
-15.7152
-15.6487
-15.5599
-15.4487
-15.315
-15.1589
-14.9804
-14.7798
-14.5574
-14.3134
-14.0485
-13.7631
-13.4579
-13.1335
-12.7908
-12.4305
-12.0536
-11.661
-11.2536
-10.8324
-10.3987
-9.95325
-9.49733
-9.03198
-8.5583
-8.0774
-7.59035
-7.09824
-6.60212
-6.10301
-5.60193
-5.09984
-4.59767
-4.09633
-3.59668
-3.09954
-2.60566
-2.11576
-1.63052
-1.15057
-0.676498
-0.208831
0.251943
0.705386
1.1511
1.58874
2.01799
2.43858
2.85029
3.25293
3.64634
4.0304
4.40503
4.77015
5.12576
5.47184
5.80841
6.13552
6.45325
6.76167
7.0609
7.35106
7.63228
7.90472
8.16853
8.4239
8.671
8.91002
9.14115
9.3646
9.58057
9.78926
9.99088
10.1856
10.3737
10.5554
10.7308
10.9002
11.0638
11.2217
11.3742
11.5214
11.6636
11.8009
11.9336
12.0617
12.1855
12.305
12.4206
12.5323
12.6404
12.7448
12.8458
12.9435
13.038
13.1295
13.218
13.3037
13.3867
13.467
13.5449
13.6203
13.6934
13.7643
13.8329
13.8995
13.964
14.0266
14.0873
14.1461
14.2031
14.2583
14.3118
14.3636
14.4137
14.4622
14.509
14.5542
14.5978
14.6397
14.6799
14.7185
14.7552
14.7901
14.8231
14.854
14.8827
14.9089
14.9324
14.9527
14.9695
14.9819
14.9888
14.9896
14.9803
14.9659
14.9142
-7.71004
-7.74825
-7.81382
-7.90285
-8.01515
-8.15065
-8.3083
-8.48676
-8.68447
-8.8999
-9.13254
-9.3823
-9.64779
-9.92663
-10.2162
-10.5141
-10.8178
-11.1249
-11.4333
-11.7407
-12.0454
-12.3455
-12.6393
-12.9255
-13.2027
-13.4697
-13.7256
-13.9692
-14.1997
-14.4162
-14.6181
-14.8046
-14.975
-15.1287
-15.2649
-15.3831
-15.4826
-15.563
-15.6236
-15.6639
-15.6834
-15.6819
-15.6587
-15.6138
-15.5468
-15.4575
-15.346
-15.2121
-15.0559
-14.8776
-14.6773
-14.4555
-14.2125
-13.9488
-13.6649
-13.3614
-13.0392
-12.6988
-12.3413
-11.9673
-11.5779
-11.174
-10.7566
-10.3268
-9.88553
-9.43393
-8.97305
-8.50397
-8.02777
-7.5455
-7.05822
-6.56696
-6.07273
-5.5765
-5.07922
-4.58182
-4.08517
-3.5901
-3.09742
-2.6079
-2.12223
-1.64105
-1.16501
-0.694665
-0.230553
0.22685
0.677108
1.11983
1.55466
1.9813
2.39948
2.80897
3.20957
3.60113
3.98353
4.35667
4.72049
5.07496
5.42006
5.75582
6.08228
6.39949
6.70755
7.00654
7.29658
7.57781
7.85037
8.11441
8.3701
8.61761
8.85713
9.08883
9.31292
9.5296
9.73905
9.94148
10.1371
10.3261
10.5087
10.6851
10.8555
11.02
11.179
11.3325
11.4808
11.624
11.7624
11.8961
12.0252
12.15
12.2707
12.3873
12.5
12.609
12.7144
12.8164
12.9151
13.0105
13.1029
13.1923
13.2789
13.3627
13.444
13.5226
13.5989
13.6728
13.7444
13.8138
13.8811
13.9464
14.0097
14.071
14.1305
14.1881
14.2439
14.298
14.3504
14.4011
14.4502
14.4975
14.5433
14.5873
14.6297
14.6703
14.7092
14.7463
14.7815
14.8146
14.8455
14.8741
14.9
14.923
14.9426
14.9582
14.9691
14.9741
14.9725
14.9605
14.9431
14.8888
-7.69523
-7.72939
-7.78614
-7.86139
-7.9565
-8.0723
-8.20881
-8.36566
-8.54207
-8.73735
-8.95194
-9.18634
-9.4393
-9.70834
-9.99074
-10.2838
-10.5849
-10.8915
-11.201
-11.5111
-11.8196
-12.1244
-12.4236
-12.7156
-12.9988
-13.2719
-13.5337
-13.7829
-14.0187
-14.24
-14.4462
-14.6364
-14.8099
-14.9661
-15.1043
-15.2241
-15.3248
-15.4059
-15.467
-15.5076
-15.5273
-15.5257
-15.5025
-15.4575
-15.3906
-15.3015
-15.1903
-15.057
-14.9015
-14.7243
-14.5254
-14.3053
-14.0643
-13.8029
-13.5217
-13.2213
-12.9024
-12.5658
-12.2122
-11.8426
-11.4578
-11.0588
-10.6465
-10.222
-9.78627
-9.34033
-8.88524
-8.42206
-7.95183
-7.47559
-6.99436
-6.50914
-6.02092
-5.53066
-5.03928
-4.54767
-4.0567
-3.56718
-3.07989
-2.59559
-2.11497
-1.63869
-1.16732
-0.701438
-0.241569
0.211809
0.658261
1.0974
1.52887
1.95237
2.36763
2.77442
3.17254
3.56184
3.94218
4.31346
4.67563
5.02863
5.37246
5.70713
6.03266
6.34912
6.65657
6.9551
7.24483
7.52588
7.79838
8.06248
8.31834
8.56612
8.806
9.03815
9.26277
9.48004
9.69016
9.89332
10.0897
10.2795
10.463
10.6403
10.8116
10.9771
11.137
11.2915
11.4408
11.5851
11.7244
11.8591
11.9893
12.1152
12.2368
12.3544
12.4681
12.5781
12.6845
12.7874
12.887
12.9834
13.0767
13.167
13.2545
13.3392
13.4212
13.5008
13.5778
13.6525
13.7249
13.7951
13.8631
13.9291
13.9931
14.0551
14.1152
14.1735
14.23
14.2847
14.3377
14.389
14.4386
14.4865
14.5328
14.5773
14.6202
14.6613
14.7006
14.738
14.7734
14.8067
14.8377
14.8662
14.8919
14.9144
14.9333
14.9479
14.9574
14.9607
14.957
14.9425
14.9225
14.866
-7.63064
-7.65576
-7.70189
-7.76056
-7.83534
-7.92827
-8.04059
-8.17316
-8.32621
-8.50005
-8.69606
-8.91526
-9.15642
-9.41685
-9.69355
-9.98355
-10.2839
-10.5916
-10.9039
-11.218
-11.5315
-11.842
-12.1474
-12.4458
-12.7354
-13.0146