/*--------------------------------*- C++ -*----------------------------------*\
  =========                 |
  \\      /  F ield         | OpenFOAM: The Open Source CFD Toolbox
   \\    /   O peration     | Website:  https://openfoam.org
    \\  /    A nd           | Version:  8
     \\/     M anipulation  |
\*---------------------------------------------------------------------------*/
FoamFile
{
    version     2.0;
    format      ascii;
    class       volScalarField;
    location    "1400";
    object      p;
}
// * * * * * * * * * * * * * * * * * * * * * * * * * * * * * * * * * * * * * //

dimensions      [0 2 -2 0 0 0 0];

internalField   nonuniform List<scalar> 
12225
(
514.676
55.528
2.36368
0.281563
-1.89891
-3.37446
-3.81169
-4.0221
-4.23185
-4.36874
-4.41589
-4.42551
-4.42851
-4.45647
-4.50985
-4.57631
-4.7217
-4.94427
-122.179
0.238768
-2.71855
-0.765232
-2.2166
-3.52504
-3.95277
-4.13687
-4.28055
-4.38454
-4.45946
-4.51778
-4.56872
-4.6011
-4.62204
-4.64758
-4.71421
-4.80823
-200.646
-16.1485
-2.34656
-0.358455
-1.90094
-3.24492
-3.77233
-4.02257
-4.19525
-4.31951
-4.4122
-4.4794
-4.52803
-4.55326
-4.56832
-4.58387
-4.61575
-4.59892
-110.616
-10.9742
-2.17727
-0.432162
-1.78787
-3.02894
-3.60143
-3.90861
-4.11788
-4.26368
-4.36605
-4.43673
-4.48545
-4.51403
-4.53136
-4.53919
-4.53815
-4.46945
-61.5729
-8.14599
-3.62272
-1.21016
-2.01538
-2.9985
-3.52938
-3.84916
-4.07166
-4.22634
-4.33398
-4.40863
-4.45999
-4.4911
-4.50638
-4.50376
-4.47756
-4.38741
-45.7309
-8.78542
-5.25893
-2.20051
-2.43013
-3.10128
-3.53675
-3.83371
-4.0497
-4.20352
-4.31258
-4.3893
-4.44174
-4.47266
-4.48421
-4.47346
-4.43338
-4.33882
-35.7948
-9.27668
-6.38072
-3.12495
-2.92215
-3.29024
-3.60415
-3.85505
-4.05047
-4.19565
-4.30163
-4.37742
-4.42903
-4.45877
-4.46769
-4.45308
-4.40909
-4.32203
-27.7783
-8.90746
-6.97418
-3.80321
-3.36222
-3.49907
-3.70113
-3.90062
-4.06998
-4.20225
-4.30201
-4.37476
-4.42468
-4.45351
-4.46184
-4.44754
-4.40655
-4.33181
-21.6903
-8.52042
-7.13489
-4.31107
-3.72952
-3.70668
-3.81696
-3.96532
-4.10562
-4.22189
-4.31296
-4.38103
-4.42848
-4.45642
-4.46513
-4.45316
-4.41816
-4.35716
-16.613
-8.14109
-7.08855
-4.75596
-4.08383
-3.93504
-3.95992
-4.05337
-4.15974
-4.25594
-4.3354
-4.39702
-4.44125
-4.46843
-4.47861
-4.47112
-4.44519
-4.4007
-12.6393
-7.68129
-6.90657
-5.10227
-4.40745
-4.17102
-4.12262
-4.16218
-4.23237
-4.30574
-4.37133
-4.42506
-4.46556
-4.49237
-4.50537
-4.50452
-4.49025
-4.46407
-9.69943
-7.1492
-6.62967
-5.3271
-4.67931
-4.39782
-4.29515
-4.28743
-4.32261
-4.37227
-4.42279
-4.46782
-4.50448
-4.53154
-4.5487
-4.5563
-4.5554
-4.54811
-7.66649
-6.60516
-6.30645
-5.43208
-4.88376
-4.59797
-4.46435
-4.4212
-4.42649
-4.45427
-4.49025
-4.52686
-4.56017
-4.58835
-4.61086
-4.62807
-4.64114
-4.65205
-6.3714
-6.11349
-5.98617
-5.44082
-5.01641
-4.75823
-4.6168
-4.55314
-4.53713
-4.54772
-4.5718
-4.60164
-4.6329
-4.66333
-4.69209
-4.71933
-4.74592
-4.77327
-5.62316
-5.72284
-5.70948
-5.39133
-5.08641
-4.8735
-4.74228
-4.67272
-4.64572
-4.64593
-4.66257
-4.68867
-4.71994
-4.75397
-4.78961
-4.82665
-4.86545
-4.90679
-5.24385
-5.46064
-5.50857
-5.32802
-5.11549
-4.94842
-4.83614
-4.77114
-4.74246
-4.7396
-4.75426
-4.78054
-4.81448
-4.85362
-4.8966
-4.94279
-4.99208
-5.04464
-5.10261
-5.34474
-5.41741
-5.29941
-5.13537
-4.99625
-4.89859
-4.84068
-4.81556
-4.81536
-4.8332
-4.86379
-4.90338
-4.94942
-5.00032
-5.05511
-5.11329
-5.17462
-5.14033
-5.40054
-5.47463
-5.34847
-5.17465
-5.02891
-4.92863
-4.87141
-4.84948
-4.85431
-4.8785
-4.91633
-4.96369
-5.01777
-5.07667
-5.1392
-5.20458
-5.2724
-5.39261
-5.65497
-5.69066
-5.47552
-5.22629
-5.0359
-4.91477
-4.85168
-4.83262
-4.84489
-4.87853
-4.92636
-4.9835
-5.04669
-5.11386
-5.18364
-5.25527
-5.32829
-6.002
-6.1368
-6.04255
-5.63503
-5.24702
-4.98723
-4.84069
-4.77574
-4.76621
-4.79257
-4.84112
-4.90296
-4.9725
-5.04632
-5.12237
-5.19946
-5.27693
-5.35458
-7.24961
-6.88943
-6.49409
-5.76177
-5.18298
-4.85284
-4.69621
-4.64605
-4.65997
-4.71048
-4.78071
-4.86073
-4.94503
-5.03058
-5.11583
-5.20005
-5.28298
-5.36471
-9.64112
-7.9645
-6.98251
-5.77178
-4.97944
-4.61203
-4.4818
-4.47355
-4.52839
-4.61371
-4.71147
-4.8126
-4.9127
-5.00998
-5.10392
-5.19453
-5.28211
-5.36716
-13.9823
-9.39098
-7.40308
-5.56944
-4.59465
-4.26408
-4.21492
-4.27955
-4.39168
-4.51915
-4.64724
-4.76975
-4.88481
-4.99235
-5.09335
-5.18895
-5.27993
-5.36725
-20.8899
-10.9539
-7.5541
-5.05715
-4.01576
-3.83574
-3.92985
-4.09398
-4.27208
-4.44289
-4.59943
-4.74066
-4.86775
-4.98271
-5.08829
-5.18684
-5.27965
-5.36789
-29.7365
-11.9493
-7.03344
-4.12604
-3.26397
-3.37788
-3.67096
-3.94671
-4.18901
-4.397
-4.57556
-4.72981
-4.86437
-4.98311
-5.09041
-5.18991
-5.28285
-5.37059
-43.1064
-12.6139
-5.47273
-2.72889
-2.41318
-2.96336
-3.48418
-3.86229
-4.15352
-4.38578
-4.57748
-4.73753
-4.87403
-4.99188
-5.09822
-5.19724
-5.28912
-5.37546
-84.5994
-17.3734
-3.66404
-1.26538
-1.69595
-2.72176
-3.43612
-3.86987
-4.17338
-4.41045
-4.60639
-4.7675
-4.89931
-5.0086
-5.10925
-5.20599
-5.29519
-5.37928
-177.886
-26.8495
-3.6801
-0.770159
-1.53504
-2.843
-3.61403
-4.01518
-4.271
-4.467
-4.65076
-4.81546
-4.95242
-5.05078
-5.13818
-5.22928
-5.30753
-5.38207
-154.79
-9.62723
-3.27234
-1.06824
-1.84305
-3.22082
-3.91364
-4.22496
-4.41742
-4.55889
-4.70199
-4.85374
-5.00606
-5.11982
-5.21031
-5.30291
-5.37709
-5.44293
428.057
66.6056
7.05601
1.59947
-0.915549
-2.85687
-3.65291
-3.99463
-4.3102
-4.57691
-4.7073
-4.75546
-4.80121
-4.9048
-5.02451
-5.11966
-5.22601
-5.33257
-8.52551
-8.51268
-8.50204
-8.54342
-8.63645
-8.74015
-8.82008
-8.86009
-8.86375
-8.84608
-8.81866
-8.79009
-8.76842
-8.75962
-8.76462
-8.77726
-8.78847
-8.79361
-8.79283
-8.79077
-8.79526
-8.82797
-8.9182
-9.08956
-9.34258
-9.66035
-10.0315
-10.4453
-10.8863
-11.3384
-11.7863
-12.2183
-12.625
-12.9999
-13.3385
-13.6385
-13.8988
-14.1195
-14.3013
-14.4451
-14.5523
-14.6241
-14.662
-14.6673
-14.6413
-14.5854
-14.5012
-14.391
-14.2561
-14.0943
-13.9028
-13.6831
-13.438
-13.1689
-12.8774
-12.5643
-12.2308
-11.8779
-11.5066
-11.1179
-10.713
-10.293
-9.85887
-9.41193
-8.95332
-8.48421
-8.00582
-7.51934
-7.02596
-6.52687
-6.02324
-5.51619
-5.00685
-4.49629
-3.98557
-3.47568
-2.96757
-2.46217
-1.96033
-1.46285
-0.970503
-0.483981
-0.0039339
0.469048
0.934428
1.39173
1.84051
2.28042
2.71113
3.13238
3.54398
3.94573
4.33748
4.71919
5.09111
5.45324
5.80513
6.14638
6.47698
6.79715
7.10715
7.40718
7.69742
7.97806
8.24928
8.51127
8.76426
9.00845
9.24407
9.47133
9.69044
9.90166
10.1052
10.3014
10.4904
10.6725
10.8479
11.0168
11.1796
11.3363
11.4873
11.6328
11.773
11.908
12.0382
12.1636
12.2845
12.4011
12.5135
12.622
12.7266
12.8277
12.9256
13.0203
13.1118
13.2001
13.2854
13.3678
13.4476
13.5248
13.5994
13.6718
13.7418
13.8097
13.8754
13.9392
14.001
14.061
14.1191
14.1756
14.2303
14.2834
14.3349
14.3849
14.4334
14.4804
14.526
14.5701
14.6129
14.6543
14.6944
14.7331
14.7706
14.8067
14.8416
14.8752
14.9076
14.9388
14.969
14.9981
15.0265
15.0542
15.0816
15.1093
15.138
15.1688
15.2042
15.2458
15.3037
15.3642
-8.58296
-8.61422
-8.68817
-8.78178
-8.88524
-8.97745
-9.0387
-9.06308
-9.04603
-8.98558
-8.89582
-8.79899
-8.71737
-8.66609
-8.64403
-8.64083
-8.65039
-8.67583
-8.71111
-8.73135
-8.75569
-8.83366
-8.99342
-9.23299
-9.53987
-9.91086
-10.3366
-10.7968
-11.2697
-11.7374
-12.1876
-12.6108
-13.0005
-13.353
-13.6666
-13.9408
-14.1762
-14.3737
-14.5345
-14.6598
-14.7507
-14.8084
-14.8338
-14.8279
-14.7914
-14.7251
-14.6292
-14.5039
-14.3497
-14.1697
-13.9675
-13.7436
-13.4969
-13.2277
-12.9364
-12.624
-12.2913
-11.9391
-11.5686
-11.1807
-10.7765
-10.3571
-9.92356
-9.47714
-9.01898
-8.55024
-8.07213
-7.58585
-7.09259
-6.59354
-6.08985
-5.58268
-5.07313
-4.56228
-4.05119
-3.54084
-3.03222
-2.52621
-2.0237
-1.52549
-1.03234
-0.544963
-0.0640013
0.409944
0.876328
1.33466
1.7845
2.22544
2.65715
3.07932
3.49169
3.89401
4.28607
4.66775
5.03915
5.40046
5.75189
6.09347
6.42504
6.74651
7.0579
7.35935
7.651
7.93303
8.20561
8.46896
8.72325
8.96873
9.20561
9.43413
9.65451
9.86698
10.0718
10.2691
10.4593
10.6426
10.8191
10.9891
11.1529
11.3108
11.4628
11.6093
11.7504
11.8864
12.0176
12.1441
12.2661
12.3838
12.4973
12.6068
12.7125
12.8144
12.9125
13.0072
13.0988
13.1873
13.2728
13.3555
13.4356
13.5131
13.588
13.6607
13.731
13.7992
13.8653
13.9293
13.9914
14.0517
14.1101
14.1668
14.2218
14.2752
14.3269
14.3772
14.4259
14.4731
14.5189
14.5632
14.6062
14.6478
14.6881
14.727
14.7646
14.8009
14.8359
14.8696
14.9022
14.9336
14.9638
14.9931
15.0216
15.0494
15.077
15.1048
15.1335
15.1642
15.199
15.2386
15.2922
15.3421
-8.70998
-8.79182
-8.90978
-9.01561
-9.0985
-9.15235
-9.17297
-9.15915
-9.10957
-9.02648
-8.91895
-8.80357
-8.70381
-8.63926
-8.61051
-8.60568
-8.6247
-8.68142
-8.78502
-8.93208
-9.12242
-9.36317
-9.65721
-9.99634
-10.3684
-10.7641
-11.1735
-11.5848
-11.9874
-12.374
-12.7399
-13.0814
-13.3958
-13.6814
-13.9372
-14.1627
-14.3576
-14.5221
-14.6564
-14.7608
-14.8357
-14.8815
-14.8985
-14.8873
-14.8482
-14.7818
-14.6883
-14.5677
-14.4201
-14.2464
-14.0481
-13.8261
-13.5811
-13.3134
-13.024
-12.7134
-12.3825
-12.0321
-11.6634
-11.2771
-10.8745
-10.4565
-10.0243
-9.57912
-9.12199
-8.65414
-8.17678
-7.69111
-7.1983
-6.69956
-6.19605
-5.6889
-5.17925
-4.66817
-4.15673
-3.64591
-3.1367
-2.63001
-2.12672
-1.62763
-1.13352
-0.645092
-0.163013
0.312118
0.779752
1.23939
1.6906
2.13299
2.56622
2.99
3.40409
3.8083
4.20247
4.58651
4.9604
5.32415
5.67778
6.02131
6.3547
6.67797
6.99117
7.29442
7.58788
7.87169
8.14605
8.41114
8.66716
8.91433
9.15287
9.38302
9.60499
9.81901
10.0253
10.2242
10.4158
10.6004
10.7783
10.9497
11.1149
11.274
11.4273
11.5749
11.7172
11.8544
11.9865
12.1138
12.2366
12.3549
12.4691
12.5793
12.6856
12.7882
12.8872
12.983
13.0756
13.1651
13.2516
13.3352
13.416
13.4943
13.57
13.6433
13.7143
13.7831
13.8498
13.9144
13.9771
14.0378
14.0968
14.1539
14.2094
14.2631
14.3153
14.3659
14.415
14.4626
14.5087
14.5534
14.5967
14.6385
14.6791
14.7182
14.7561
14.7926
14.8278
14.8618
14.8945
14.9261
14.9565
14.986
15.0145
15.0424
15.07
15.0977
15.1262
15.1563
15.1898
15.2264
15.2738
15.3073
-8.74939
-8.84684
-8.94811
-9.03463
-9.09907
-9.13877
-9.15123
-9.13383
-9.08656
-9.01445
-8.92872
-8.84617
-8.78496
-8.75798
-8.7701
-8.82341
-8.92179
-9.0689
-9.26534
-9.50611
-9.78238
-10.0869
-10.4138
-10.7567
-11.11
-11.4688
-11.8276
-12.1812
-12.5251
-12.8552
-13.1681
-13.4612
-13.7323
-13.9797
-14.2023
-14.3991
-14.5695
-14.7131
-14.8297
-14.9192
-14.9817
-15.0173
-15.026
-15.0079
-14.9632
-14.8922
-14.795
-14.6721
-14.5239
-14.351
-14.1541
-13.9337
-13.6902
-13.4242
-13.1364
-12.8275
-12.4983
-12.1496
-11.7823
-11.3975
-10.9962
-10.5794
-10.1482
-9.70384
-9.2474
-8.78011
-8.30314
-7.81769
-7.32496
-6.82613
-6.32238
-5.81484
-5.30465
-4.7929
-4.28064
-3.76889
-3.25861
-2.75075
-2.24616
-1.74568
-1.25008
-0.760085
-0.27635
0.200512
0.669946
1.13145
1.58458
2.02894
2.46419
2.89004
3.30624
3.71261
4.10901
4.49533
4.87155
5.23761
5.5935
5.9392
6.2747
6.60005
6.91533
7.22065
7.51616
7.802
8.07836
8.34543
8.6034
8.85249
9.09291
9.32489
9.54866
9.76444
9.97247
10.173
10.3663
10.5526
10.732
10.9049
11.0715
11.232
11.3867
11.5356
11.6792
11.8175
11.9509
12.0794
12.2033
12.3228
12.4381
12.5493
12.6566
12.7602
12.8604
12.9572
13.0507
13.1412
13.2285
13.313
13.3947
13.4737
13.5502
13.6242
13.6959
13.7653
13.8326
13.8979
13.9611
14.0224
14.0819
14.1395
14.1955
14.2497
14.3023
14.3534
14.4028
14.4508
14.4973
14.5424
14.586
14.6282
14.669
14.7085
14.7466
14.7834
14.8188
14.853
14.886
14.9177
14.9482
14.9778
15.0064
15.0342
15.0616
15.089
15.1169
15.1458
15.1771
15.2096
15.249
15.2676
-8.53752
-8.62243
-8.72253
-8.81963
-8.89698
-8.94971
-8.9768
-8.97907
-8.961
-8.93088
-8.9008
-8.88474
-8.89548
-8.9426
-9.0323
-9.16771
-9.34893
-9.57139
-9.82665
-10.1067
-10.4059
-10.7203
-11.0453
-11.376
-11.7081
-12.0377
-12.3616
-12.6766
-12.98
-13.2693
-13.5425
-13.7979
-14.0342
-14.25
-14.4444
-14.6165
-14.7656
-14.8912
-14.9927
-15.0699
-15.1224
-15.15
-15.1525
-15.13
-15.0822
-15.0093
-14.9113
-14.7884
-14.6408
-14.4689
-14.2732
-14.0541
-13.812
-13.5475
-13.2612
-12.9538
-12.626
-12.2787
-11.9128
-11.5292
-11.1289
-10.7131
-10.2828
-9.83906
-9.38318
-8.91629
-8.43957
-7.95423
-7.46145
-6.96242
-6.45832
-5.9503
-5.43949
-4.92698
-4.41384
-3.90108
-3.38968
-2.88057
-2.37464
-1.87272
-1.37558
-0.883955
-0.398506
0.0801487
0.551449
1.01489
1.47002
1.91644
2.35381
2.78183
3.20026
3.60889
4.00757
4.39621
4.77472
5.14307
5.50122
5.84915
6.18689
6.51446
6.83197
7.1395
7.4372
7.72523
8.00374
8.27294
8.53302
8.78417
9.02664
9.26064
9.48639
9.70412
9.91405
10.1164
10.3115
10.4995
10.6807
10.8553
11.0235
11.1856
11.3418
11.4923
11.6373
11.7771
11.9118
12.0417
12.167
12.2878
12.4043
12.5167
12.6252
12.73
12.8312
12.929
13.0235
13.1149
13.2031
13.2885
13.371
13.4509
13.5282
13.603
13.6754
13.7456
13.8136
13.8795
13.9433
14.0053
14.0653
14.1235
14.18
14.2348
14.2879
14.3394
14.3894
14.4378
14.4847
14.5301
14.5741
14.6167
14.6579
14.6977
14.7361
14.7732
14.8089
14.8433
14.8764
14.9083
14.939
14.9686
14.9971
15.0249
15.052
15.0788
15.1057
15.133
15.1616
15.1894
15.221
15.2271
-8.11755
-8.20596
-8.32689
-8.44959
-8.55482
-8.63524
-8.69355
-8.73563
-8.76912
-8.80378
-8.85058
-8.91982
-9.01954
-9.15454
-9.32703
-9.53602
-9.77684
-10.0439
-10.3319
-10.6351
-10.948
-11.266
-11.585
-11.9015
-12.2128
-12.5167
-12.8113
-13.0951
-13.3665
-13.6243
-13.8672
-14.0941
-14.3039
-14.4958
-14.6687
-14.8219
-14.9545
-15.0658
-15.1554
-15.2225
-15.2668
-15.2878
-15.2852
-15.2588
-15.2082
-15.1335
-15.0345
-14.9113
-14.764
-14.5929
-14.3981
-14.1801
-13.9393
-13.6762
-13.3913
-13.0853
-12.7589
-12.413
-12.0484
-11.666
-11.2669
-10.8521
-10.4226
-9.97967
-9.52438
-9.05794
-8.58152
-8.09633
-7.60354
-7.10436
-6.59996
-6.09149
-5.58009
-5.06685
-4.55285
-4.0391
-3.5266
-3.01628
-2.50902
-2.00567
-1.507
-1.01376
-0.526601
-0.04616
0.427004
0.892381
1.34951
1.798
2.23749
2.66769
3.08833
3.49923
3.9002
4.29115
4.67197
5.04262
5.40306
5.75328
6.0933
6.42316
6.74294
7.05275
7.35272
7.64299
7.92376
8.19518
8.45745
8.71077
8.95537
9.19145
9.41924
9.63898
9.8509
10.0552
10.2522
10.4421
10.6251
10.8015
10.9715
11.1353
11.2931
11.4452
11.5919
11.7332
11.8694
12.0008
12.1275
12.2496
12.3675
12.4812
12.591
12.6969
12.7993
12.8982
12.9938
13.0861
13.1754
13.2618
13.3452
13.426
13.5042
13.5798
13.6531
13.724
13.7928
13.8594
13.924
13.9866
14.0473
14.1061
14.1632
14.2186
14.2722
14.3243
14.3747
14.4236
14.471
14.5169
14.5613
14.6043
14.6459
14.686
14.7248
14.7622
14.7982
14.8328
14.8662
14.8982
14.929
14.9586
14.9871
15.0145
15.0412
15.0673
15.0929
15.1183
15.1438
15.1667
15.1911
15.1865
-7.65254
-7.75123
-7.89328
-8.04207
-8.18002
-8.29865
-8.40155
-8.49805
-8.59754
-8.70896
-8.83992
-8.99531
-9.17787
-9.38806
-9.62417
-9.88409
-10.1648
-10.4618
-10.7696
-11.0833
-11.3985
-11.7117
-12.0203
-12.3222
-12.6158
-12.8998
-13.1732
-13.435
-13.6844
-13.9205
-14.1426
-14.3497
-14.541
-14.7157
-14.873
-15.0121
-15.1322
-15.2325
-15.3125
-15.3715
-15.4089
-15.4241
-15.4169
-15.3867
-15.3334
-15.2565
-15.1561
-15.0321
-14.8844
-14.7133
-14.5189
-14.3014
-14.0614
-13.7991
-13.5153
-13.2104
-12.8852
-12.5404
-12.177
-11.7959
-11.3979
-10.9842
-10.5558
-10.1138
-9.65932
-9.19361
-8.71782
-8.23312
-7.74073
-7.2418
-6.73752
-6.22904
-5.7175
-5.20398
-4.68956
-4.17527
-3.66209
-3.15097
-2.64279
-2.13839
-1.63856
-1.14404
-0.655507
-0.173583
0.301161
0.768208
1.2271
1.67743
2.11883
2.55101
2.97369
3.38668
3.78979
4.18291
4.56592
4.93878
5.30143
5.65387
5.99612
6.32822
6.65026
6.96232
7.26454
7.55706
7.84005
8.11368
8.37814
8.63364
8.88039
9.1186
9.3485
9.57031
9.78427
9.99061
10.1896
10.3814
10.5663
10.7445
10.9163
11.0819
11.2415
11.3953
11.5436
11.6865
11.8243
11.9572
12.0854
12.209
12.3282
12.4433
12.5544
12.6616
12.7652
12.8653
12.962
13.0555
13.1459
13.2332
13.3177
13.3995
13.4786
13.5551
13.6293
13.7011
13.7706
13.838
13.9034
13.9667
14.0281
14.0876
14.1454
14.2013
14.2556
14.3082
14.3592
14.4087
14.4566
14.5029
14.5478
14.5912
14.6332
14.6738
14.7129
14.7506
14.7869
14.8218
14.8554
14.8876
14.9184
14.948
14.9763
15.0035
15.0296
15.0547
15.0789
15.1021
15.1243
15.1424
15.1601
15.1463
-7.2969
-7.39037
-7.54241
-7.70813
-7.87497
-8.03594
-8.19055
-8.34666
-8.51253
-8.69395
-8.89499
-9.11684
-9.35808
-9.61784
-9.89555
-10.1889
-10.4941
-10.8069
-11.1229
-11.4386
-11.7511
-12.0581
-12.3577
-12.6487
-12.9299
-13.2005
-13.4598
-13.7072
-13.9421
-14.1639
-14.3719
-14.5655
-14.7441
-14.9068
-15.053
-15.1819
-15.2928
-15.3849
-15.4576
-15.5101
-15.5419
-15.5525
-15.5412
-15.5076
-15.4515
-15.3724
-15.2703
-15.1449
-14.9963
-14.8245
-14.6297
-14.4121
-14.172
-13.9099
-13.6263
-13.3219
-12.9972
-12.6531
-12.2903
-11.9099
-11.5127
-11.0997
-10.6721
-10.2309
-9.77733
-9.31241
-8.83738
-8.35341
-7.86169
-7.36338
-6.85966
-6.35167
-5.84052
-5.32732
-4.81311
-4.29894
-3.78576
-3.27453
-2.76612
-2.26139
-1.7611
-1.26601
-0.776776
-0.29404
0.181631
0.649719
1.10976
1.56134
2.0041
2.43773
2.86195
3.27655
3.68135
4.07621
4.46102
4.83571
5.20024
5.5546
5.89881
6.2329
6.55695
6.87106
7.17534
7.46994
7.75501
8.03073
8.29729
8.55487
8.80369
9.04397
9.27591
9.49975
9.71572
9.92405
10.125
10.3187
10.5055
10.6856
10.8592
11.0266
11.1879
11.3435
11.4934
11.638
11.7774
11.9119
12.0415
12.1666
12.2873
12.4038
12.5162
12.6248
12.7297
12.831
12.9289
13.0235
13.115
13.2035
13.289
13.3718
13.4519
13.5294
13.6044
13.6771
13.7475
13.8158
13.8819
13.946
14.0081
14.0684
14.1268
14.1834
14.2383
14.2916
14.3431
14.3931
14.4416
14.4885
14.5339
14.5777
14.6202
14.6611
14.7006
14.7387
14.7753
14.8105
14.8442
14.8766
14.9075
14.937
14.9651
14.9919
15.0173
15.0414
15.064
15.0849
15.1037
15.1171
15.1288
15.1069
-7.10658
-7.19269
-7.3468
-7.51917
-7.70256
-7.89487
-8.09266
-8.29793
-8.51524
-8.74702
-8.99356
-9.25485
-9.5308
-9.82103
-10.1237
-10.4354
-10.7527
-11.0721
-11.3906
-11.7056
-12.0149
-12.3169
-12.6102
-12.8938
-13.167
-13.429
-13.6794
-13.9178
-14.1435
-14.3562
-14.5553
-14.7403
-14.9105
-15.0653
-15.204
-15.326
-15.4305
-15.5167
-15.5841
-15.6319
-15.6594
-15.6661
-15.6515
-15.6151
-15.5564
-15.4752
-15.3711
-15.2442
-15.0942
-14.9213
-14.7256
-14.5073
-14.2666
-14.0042
-13.7203
-13.4157
-13.0909
-12.7469
-12.3843
-12.0041
-11.6072
-11.1947
-10.7676
-10.327
-9.87396
-9.4097
-8.93537
-8.45213
-7.96115
-7.46359
-6.96062
-6.45336
-5.94293
-5.43042
-4.91686
-4.40328
-3.89064
-3.37988
-2.87186
-2.36743
-1.86736
-1.37238
-0.883164
-0.400336
0.0755338
0.543929
1.00439
1.45649
1.89987
2.33422
2.75927
3.1748
3.58062
3.97659
4.3626
4.73856
5.10444
5.46021
5.80589
6.14152
6.46716
6.78292
7.08889
7.38522
7.67206
7.94957
8.21794
8.47736
8.72802
8.97015
9.20395
9.42964
9.64746
9.85762
10.0604
10.2559
10.4445
10.6264
10.8018
10.9709
11.1339
11.2911
11.4427
11.5889
11.7299
11.8658
11.997
12.1236
12.2457
12.3636
12.4774
12.5873
12.6934
12.796
12.8951
12.9909
13.0835
13.1731
13.2597
13.3435
13.4246
13.5031
13.579
13.6527
13.7239
13.793
13.86
13.9249
13.9878
14.0487
14.1078
14.1652
14.2207
14.2746
14.3268
14.3774
14.4264
14.4738
14.5197
14.5641
14.6069
14.6483
14.6882
14.7267
14.7636
14.799
14.833
14.8655
14.8964
14.9258
14.9537
14.98
15.0047
15.0276
15.0486
15.067
15.0825
15.0914
15.0976
15.0686
-7.07871
-7.16554
-7.31324
-7.48203
-7.66877
-7.87333
-8.09256
-8.32447
-8.56929
-8.82764
-9.09902
-9.38258
-9.67806
-9.98433
-10.2987
-10.6181
-10.9397
-11.2608
-11.579
-11.8921
-12.1986
-12.4969
-12.7861
-13.0652
-13.3336
-13.5908
-13.8363
-14.0695
-14.2902
-14.4979
-14.692
-14.872
-15.0374
-15.1876
-15.3218
-15.4395
-15.5399
-15.6224
-15.6861
-15.7305
-15.755
-15.7588
-15.7416
-15.7027
-15.6418
-15.5586
-15.4527
-15.3241
-15.1727
-14.9985
-14.8016
-14.5822
-14.3407
-14.0775
-13.793
-13.4879
-13.1628
-12.8185
-12.4559
-12.0757
-11.679
-11.2667
-10.84
-10.3998
-9.94741
-9.48383
-9.01025
-8.52783
-8.03773
-7.54111
-7.0391
-6.53285
-6.02344
-5.51194
-4.9994
-4.48682
-3.97515
-3.46531
-2.95818
-2.45457
-1.95526
-1.46097
-0.972363
-0.490058
-0.0146161
0.453452
0.913684
1.36567
1.80906
2.24352
2.66879
3.08463
3.49087
3.88735
4.27396
4.65062
5.01728
5.37392
5.72055
6.05721
6.38397
6.7009
7.00812
7.30575
7.59395
7.87287
8.1427
8.4036
8.65579
8.89947
9.13484
9.36212
9.58154
9.79331
9.99768
10.1948
10.3851
10.5685
10.7455
10.9162
11.0808
11.2396
11.3927
11.5404
11.6828
11.8203
11.9529
12.0809
12.2044
12.3236
12.4387
12.5499
12.6573
12.7611
12.8614
12.9583
13.052
13.1427
13.2303
13.3151
13.3972
13.4767
13.5536
13.6281
13.7003
13.7702
13.838
13.9037
13.9673
14.0291
14.0889
14.1469
14.2031
14.2576
14.3105
14.3616
14.4112
14.4592
14.5056
14.5505
14.5938
14.6356
14.676
14.7147
14.752
14.7877
14.8219
14.8545
14.8854
14.9147
14.9423
14.9681
14.9919
15.0136
15.0329
15.0489
15.0611
15.0658
15.067
15.0319
-7.18963
-7.26799
-7.39893
-7.55483
-7.73347
-7.93457
-8.15541
-8.39341
-8.64693
-8.91465
-9.19489
-9.48654
-9.78865
-10.0993
-10.4159
-10.736
-11.057
-11.3767
-11.6929
-12.0038
-12.3079
-12.6039
-12.8908
-13.1678
-13.4342
-13.6894
-13.9329
-14.1643
-14.3831
-14.5888
-14.7809
-14.959
-15.1223
-15.2704
-15.4025
-15.518
-15.6162
-15.6965
-15.758
-15.8003
-15.8227
-15.8245
-15.8052
-15.7644
-15.7017
-15.6166
-15.5091
-15.3789
-15.2261
-15.0505
-14.8523
-14.6319
-14.3894
-14.1253
-13.8402
-13.5345
-13.209
-12.8645
-12.5018
-12.1217
-11.7252
-11.3133
-10.8871
-10.4476
-9.99599
-9.53332
-9.06077
-8.57949
-8.09062
-7.59531
-7.09468
-6.58985
-6.08191
-5.57192
-5.06089
-4.54982
-4.03966
-3.53129
-3.02559
-2.52336
-2.02537
-1.53231
-1.04486
-0.563614
-0.0891425
0.378054
0.837518
1.28884
1.73167
2.16568
2.59061
3.00623
3.41234
3.80881
4.19551
4.57237
4.93932
5.29636
5.64348
5.98072
6.30815
6.62584
6.9339
7.23245
7.52163
7.80161
8.07254
8.33461
8.588
8.83293
9.06959
9.29819
9.51896
9.73211
9.93786
10.1364
10.3281
10.513
10.6914
10.8635
11.0295
11.1897
11.3442
11.4933
11.6371
11.7759
11.9099
12.0391
12.1639
12.2844
12.4008
12.5132
12.6218
12.7267
12.8282
12.9262
13.021
13.1127
13.2014
13.2872
13.3703
13.4507
13.5285
13.6039
13.677
13.7477
13.8163
13.8828
13.9472
14.0096
14.0702
14.1289
14.1858
14.2409
14.2944
14.3461
14.3963
14.4448
14.4918
14.5371
14.581
14.6233
14.664
14.7031
14.7407
14.7767
14.8111
14.8438
14.8747
14.9039
14.9311
14.9563
14.9793
14.9998
15.0173
15.0309
15.04
15.0407
15.0375
14.9972
-7.36614
-7.43071
-7.54162
-7.68006
-7.84389
-8.03263
-8.24394
-8.47514
-8.72378
-8.98753
-9.26417
-9.55251
-9.85133
-10.1584
-10.4714
-10.7878
-11.1053
-11.4218
-11.7353
-12.0441
-12.3466
-12.6415
-12.9279
-13.2047
-13.4713
-13.7269
-13.9709
-14.2029
-14.4223
-14.6285
-14.8211
-14.9993
-15.1627
-15.3106
-15.4424
-15.5573
-15.6548
-15.7341
-15.7946
-15.8357
-15.8567
-15.8571
-15.8364
-15.7941
-15.7298
-15.6433
-15.5343
-15.4027
-15.2485
-15.0717
-14.8724
-14.6509
-14.4076
-14.1428
-13.8571
-13.5511
-13.2255
-12.881
-12.5185
-12.1388
-11.7429
-11.3318
-10.9066
-10.4682
-10.0179
-9.55666
-9.08569
-8.60612
-8.11907
-7.62567
-7.12703
-6.62425
-6.1184
-5.61051
-5.10162
-4.59267
-4.08462
-3.57835
-3.07469
-2.57445
-2.07838
-1.58717
-1.10148
-0.621909
-0.149005
0.316732
0.774851
1.22495
1.66667
2.0997
2.52376
2.93864
3.34414
3.74012
4.12644
4.50304
4.86986
5.22686
5.57407
5.9115
6.23923
6.55731
6.86586
7.16499
7.45483
7.73554
8.00728
8.27023
8.52456
8.77048
9.00818
9.23788
9.45977
9.67408
9.88102
10.0808
10.2737
10.4598
10.6395
10.8129
10.9802
11.1416
11.2974
11.4478
11.5929
11.7329
11.8681
11.9987
12.1247
12.2464
12.3639
12.4775
12.5872
12.6932
12.7958
12.8949
12.9907
13.0834
13.1731
13.2599
13.3439
13.4252
13.5039
13.5802
13.6541
13.7257
13.795
13.8623
13.9275
13.9906
14.0519
14.1113
14.1688
14.2246
14.2787
14.3311
14.3818
14.4309
14.4784
14.5242
14.5686
14.6113
14.6524
14.692
14.7299
14.7661
14.8007
14.8335
14.8645
14.8935
14.9204
14.945
14.9671
14.9863
15.002
15.0134
15.0195
15.0166
15.0093
14.9645
-7.54005
-7.59154
-7.68411
-7.80469
-7.95132
-8.12346
-8.31905
-8.53572
-8.77099
-9.02232
-9.28768
-9.56596
-9.85576
-10.1548
-10.4608
-10.7713
-11.0839
-11.3967
-11.7075
-12.0147
-12.3167
-12.6119
-12.8993
-13.1778
-13.4465
-13.7045
-13.9511
-14.1857
-14.4076
-14.6162
-14.8109
-14.9911
-15.156
-15.3052
-15.4379
-15.5534
-15.6512
-15.7305
-15.7907
-15.8313
-15.8516
-15.851
-15.8293
-15.7859
-15.7204
-15.6327
-15.5225
-15.3898
-15.2345
-15.0567
-14.8566
-14.6345
-14.3906
-14.1256
-13.8398
-13.5339
-13.2086
-12.8646
-12.5029
-12.1242
-11.7295
-11.3199
-10.8962
-10.4597
-10.0114
-9.55232
-9.08368
-8.60657
-8.12209
-7.63137
-7.13549
-6.63554
-6.13256
-5.62758
-5.12159
-4.61555
-4.11037
-3.60694
-3.10607
-2.60854
-2.11509
-1.62642
-1.14317
-0.665914
-0.19521
0.268454
0.724633
1.17293
1.61298
2.04449
2.46717
2.88081
3.28522
3.68024
4.06574
4.44166
4.80792
5.16451
5.51143
5.84869
6.17637
6.49451
6.80324
7.10264
7.39286
7.67404
7.94633
8.2099
8.46494
8.71163
8.95016
9.18074
9.40358
9.61887
9.82684
10.0277
10.2216
10.4089
10.5897
10.7642
10.9327
11.0953
11.2523
11.4038
11.5501
11.6913
11.8277
11.9594
12.0865
12.2094
12.328
12.4427
12.5535
12.6606
12.7641
12.8643
12.9611
13.0548
13.1455
13.2332
13.3181
13.4003
13.4799
13.557
13.6317
13.7041
13.7743
13.8423
13.9082
13.9721
14.0341
14.0941
14.1524
14.2088
14.2635
14.3164
14.3677
14.4174
14.4654
14.5118
14.5566
14.5998
14.6414
14.6813
14.7196
14.7561
14.7909
14.8238
14.8547
14.8836
14.9102
14.9342
14.9555
14.9734
14.9875
14.9966
14.9999
14.9937
14.9827
14.9342
-7.66686
-7.70903
-7.78622
-7.89017
-8.0194
-8.17347
-8.35062
-8.5489
-8.7663
-9.00062
-9.25046
-9.51511
-9.79314
-10.0822
-10.38
-10.6839
-10.9918
-11.3013
-11.6104
-11.9171
-12.2198
-12.5169
-12.807
-13.0888
-13.3612
-13.6233
-13.8742
-14.1129
-14.3388
-14.5512
-14.7493
-14.9324
-15.1
-15.2514
-15.3858
-15.5026
-15.6013
-15.6811
-15.7415
-15.7819
-15.8018
-15.8008
-15.7783
-15.734
-15.6677
-15.5791
-15.4681
-15.3346
-15.1786
-15.0003
-14.7999
-14.5776
-14.3338
-14.069
-13.7838
-13.4787
-13.1545
-12.8118
-12.4517
-12.0748
-11.6823
-11.275
-10.8539
-10.4202
-9.97479
-9.51889
-9.05356
-8.57988
-8.09897
-7.6119
-7.11975
-6.62357
-6.1244
-5.62325
-5.12107
-4.61881
-4.11736
-3.61759
-3.12033
-2.62631
-2.13627
-1.65087
-1.17077
-0.696526
-0.228689
0.232261
0.685883
1.13178
1.56961
1.99905
2.41983
2.83174
3.23457
3.62818
4.01244
4.38726
4.75258
5.10838
5.45465
5.79142
6.11872
6.43664
6.74525
7.04466
7.335
7.6164
7.88901
8.153
8.40853
8.6558
8.89498
9.12628
9.34989
9.56601
9.77486
9.97663
10.1715
10.3598
10.5416
10.7172
10.8867
11.0504
11.2085
11.3611
11.5085
11.6508
11.7883
11.9211
12.0493
12.1732
12.293
12.4087
12.5205
12.6287
12.7332
12.8344
12.9322
13.0268
13.1184
13.207
13.2929
13.3759
13.4564
13.5344
13.6099
13.6831
13.754
13.8228
13.8894
13.9541
14.0167
14.0774
14.1363
14.1934
14.2487
14.3023
14.3542
14.4044
14.453
14.4999
14.5452
14.5889
14.6309
14.6712
14.7098
14.7466
14.7816
14.8147
14.8456
14.8743
14.9006
14.9241
14.9445
14.9613
14.9737
14.9807
14.9815
14.9723
14.958
14.9063
-7.72232
-7.76057
-7.82616
-7.91515
-8.02736
-8.16276
-8.3203
-8.49865
-8.69626
-8.91159
-9.14412
-9.39377
-9.65918
-9.93798
-10.2276
-10.5255
-10.8293
-11.1365
-11.4451
-11.7528
-12.0577
-12.358
-12.6522
-12.9386
-13.2162
-13.4836
-13.7397
-13.9836
-14.2145
-14.4314
-14.6336
-14.8204
-14.9911
-15.1451
-15.2816
-15.4001
-15.4999
-15.5805
-15.6413
-15.6819
-15.7017
-15.7003
-15.6774
-15.6327
-15.5658
-15.4768
-15.3654
-15.2317
-15.0757
-14.8975
-14.6975
-14.4758
-14.2329
-13.9693
-13.6856
-13.3823
-13.0601
-12.7199
-12.3624
-11.9886
-11.5993
-11.1954
-10.7781
-10.3483
-9.90711
-9.45553
-8.99466
-8.52558
-8.04936
-7.56706
-7.07974
-6.58843
-6.09413
-5.59782
-5.10046
-4.60296
-4.10619
-3.611
-3.1182
-2.62854
-2.14272
-1.66139
-1.18519
-0.714679
-0.250395
0.207184
0.657623
1.10053
1.53555
1.96238
2.38075
2.79043
3.19123
3.58299
3.96558
4.33892
4.70294
5.0576
5.4029
5.73885
6.06549
6.3829
6.69113
6.99031
7.28053
7.56194
7.83467
8.09888
8.35474
8.60241
8.84209
9.07396
9.29821
9.51503
9.72464
9.92722
10.123
10.3121
10.4949
10.6714
10.8419
11.0066
11.1657
11.3194
11.4678
11.6112
11.7497
11.8836
12.0129
12.1378
12.2586
12.3754
12.4882
12.5974
12.7029
12.805
12.9038
12.9993
13.0918
13.1814
13.2681
13.352
13.4334
13.5121
13.5885
13.6625
13.7342
13.8037
13.8711
13.9364
13.9997
14.0612
14.1207
14.1784
14.2344
14.2886
14.341
14.3918
14.441
14.4884
14.5343
14.5784
14.6209
14.6616
14.7006
14.7377
14.773
14.8062
14.8372
14.8658
14.8917
14.9147
14.9344
14.95
14.961
14.9661
14.9645
14.9525
14.9352
14.8809
-7.70791
-7.7426
-7.79943
-7.87457
-7.96957
-8.08527
-8.22167
-8.37841
-8.55469
-8.74984
-8.96427
-9.19851
-9.45132
-9.72026
-10.0026
-10.2957
-10.5968
-10.9034
-11.213
-11.5233
-11.8319
-12.1369
-12.4364
-12.7287
-13.0122
-13.2856
-13.5477
-13.7973
-14.0334
-14.2551
-14.4616
-14.6521
-14.8259
-14.9824
-15.121
-15.241
-15.342
-15.4234
-15.4847
-15.5256
-15.5455
-15.5441
-15.5212
-15.4764
-15.4097
-15.3208
-15.2098
-15.0766
-14.9214
-14.7443
-14.5456
-14.3256
-14.0847
-13.8235
-13.5424
-13.2422
-12.9234
-12.5869
-12.2335
-11.8639
-11.4792
-11.0803
-10.6681
-10.2436
-9.80787
-9.36195
-8.90687
-8.44368
-7.97343
-7.49716
-7.01589
-6.53061
-6.04233
-5.55198
-5.06051
-4.5688
-4.07771
-3.58807
-3.10065
-2.61621
-2.13545
-1.659
-1.18748
-0.721427
-0.261386
0.192169
0.638803
1.07812
1.50978
1.93348
2.34893
2.75591
3.15423
3.54372
3.92426
4.29574
4.6581
5.0113
5.35532
5.69017
6.01589
6.33253
6.64017
6.93888
7.22879
7.51002
7.78269
8.04696
8.30298
8.55092
8.79096
9.02328
9.24805
9.46548
9.67574
9.87905
10.0756
10.2656
10.4492
10.6266
10.798
10.9637
11.1238
11.2784
11.4279
11.5723
11.7118
11.8466
11.977
12.103
12.2247
12.3425
12.4563
12.5665
12.673
12.776
12.8758
12.9723
13.0657
13.1561
13.2437
13.3285
13.4107
13.4903
13.5674
13.6422
13.7147
13.7849
13.853
13.9191
13.9832
14.0453
14.1055
14.1638
14.2204
14.2752
14.3283
14.3797
14.4294
14.4774
14.5238
14.5685
14.6114
14.6526
14.692
14.7294
14.7649
14.7983
14.8294
14.8579
14.8837
14.9062
14.9251
14.9397
14.9493
14.9527
14.9489
14.9346
14.9145
14.8581
-7.6442
-7.6699
-7.71601
-7.77463
-7.84938
-7.94226
-8.05449
-8.18695
-8.33987
-8.51353
-8.70933
-8.92828
-9.16922
-9.42945
-9.70599
-9.99586
-10.2961
-10.6038
-10.9161
-11.2303
-11.5439
-11.8546
-12.1602
-12.4588
-12.7487
-13.0282
-13.2961
-13.5511
-13.7922
-14.0183
-14.2287
-14.4225
-14.5991
-14.7579
-14.8983
-15.0198
-15.1219
-15.2041