/*--------------------------------*- C++ -*----------------------------------*\
  =========                 |
  \\      /  F ield         | OpenFOAM: The Open Source CFD Toolbox
   \\    /   O peration     | Website:  https://openfoam.org
    \\  /    A nd           | Version:  8
     \\/     M anipulation  |
\*---------------------------------------------------------------------------*/
FoamFile
{
    version     2.0;
    format      ascii;
    class       volScalarField;
    location    "1800";
    object      nut;
}
// * * * * * * * * * * * * * * * * * * * * * * * * * * * * * * * * * * * * * //

dimensions      [0 2 -1 0 0 0 0];

internalField   nonuniform List<scalar> 
12225
(
5.94006e-06
1.74357e-05
2.44205e-05
3.51125e-05
3.85194e-05
3.82672e-05
2.93841e-05
2.46124e-05
2.00263e-05
2.20315e-05
1.88489e-05
1.86529e-05
1.81047e-05
2.18325e-05
1.88859e-05
1.81823e-05
1.79268e-05
1.90977e-05
0.00024378
6.29548e-05
4.97325e-05
5.33454e-05
5.58562e-05
6.04498e-05
4.85048e-05
4.02002e-05
3.4865e-05
3.45212e-05
3.65735e-05
3.42309e-05
4.24781e-05
4.02211e-05
4.32465e-05
4.29043e-05
4.18881e-05
4.42536e-05
0.00133391
0.000246766
0.000217612
0.000173123
0.000122753
9.32898e-05
7.53231e-05
6.38238e-05
5.80722e-05
5.13266e-05
4.91826e-05
4.92437e-05
5.06852e-05
5.02274e-05
4.99508e-05
4.89215e-05
4.80825e-05
4.70025e-05
0.0011699
0.000507345
0.000541179
0.000503519
0.000334111
0.000252823
0.000218571
0.000189549
0.000173632
0.000160225
0.000151734
0.000143148
0.00013827
0.000131514
0.000127374
0.000121883
0.000118213
0.000113355
0.000835605
0.000694604
0.000663543
0.000655635
0.000548386
0.000477103
0.000418415
0.000383896
0.000376155
0.000356129
0.000341355
0.000322657
0.000310467
0.000295336
0.000286421
0.000274556
0.000268387
0.000258392
0.000769827
0.00076205
0.000729306
0.000714249
0.000680376
0.000640046
0.000592811
0.000570938
0.000560789
0.000547246
0.000533176
0.000513275
0.000498695
0.000480838
0.000469424
0.00045509
0.000447453
0.000434917
0.000751694
0.000754255
0.000743426
0.000736513
0.000725878
0.00070848
0.000694746
0.000677893
0.000668612
0.000662504
0.000657322
0.000646006
0.000635802
0.000622719
0.000613356
0.000601907
0.000595219
0.000584957
0.000749363
0.000750235
0.000748789
0.000745248
0.000740892
0.000734353
0.000727183
0.000721098
0.000715205
0.000712068
0.000705869
0.00070212
0.000696748
0.000689279
0.000683173
0.000675785
0.000670938
0.000664107
0.000749389
0.000749105
0.000748091
0.00074637
0.000744501
0.00074227
0.000740024
0.000737639
0.000735242
0.000733322
0.000730887
0.000727661
0.000724641
0.000721188
0.000717683
0.000713692
0.00071044
0.000706286
0.000749487
0.000748782
0.000747977
0.000746967
0.000745985
0.000744921
0.000743996
0.000742907
0.000741961
0.000740913
0.000739889
0.000738489
0.000737134
0.000735388
0.000733849
0.000731867
0.00073046
0.000728376
0.000749548
0.000748704
0.000747926
0.000747099
0.00074635
0.000745565
0.000744898
0.000744162
0.00074354
0.000742846
0.000742236
0.000741492
0.00074082
0.000739987
0.000739274
0.00073839
0.000737708
0.000736822
0.000749561
0.000748694
0.000747899
0.00074711
0.000746389
0.000745668
0.00074502
0.000744363
0.000743773
0.000743173
0.000742629
0.000742066
0.000741548
0.000741008
0.000740512
0.000739994
0.000739528
0.000739039
0.000749559
0.000748694
0.000747885
0.000747105
0.000746375
0.000745668
0.000745008
0.000744369
0.000743768
0.000743187
0.000742639
0.000742111
0.000741609
0.000741125
0.000740663
0.000740217
0.000739793
0.000739383
0.000749556
0.000748694
0.000747877
0.000747099
0.00074636
0.000745656
0.000744988
0.000744349
0.000743743
0.000743162
0.00074261
0.000742081
0.000741579
0.000741096
0.000740637
0.000740194
0.000739775
0.00073937
0.000749555
0.000748692
0.000747873
0.000747092
0.000746352
0.000745645
0.000744974
0.000744334
0.000743724
0.000743142
0.000742587
0.000742056
0.00074155
0.000741066
0.000740603
0.00074016
0.000739737
0.000739332
0.000749556
0.000748694
0.000747875
0.000747095
0.000746355
0.000745649
0.000744979
0.000744339
0.00074373
0.000743147
0.000742592
0.000742061
0.000741555
0.00074107
0.000740607
0.000740163
0.00073974
0.000739334
0.000749568
0.000748728
0.000747928
0.000747165
0.000746439
0.000745747
0.000745087
0.000744457
0.000743856
0.000743281
0.000742732
0.000742207
0.000741705
0.000741225
0.000740765
0.000740326
0.000739904
0.000739502
0.000749567
0.000748728
0.000747927
0.000747165
0.000746438
0.000745746
0.000745084
0.000744455
0.00074385
0.000743277
0.000742725
0.000742201
0.000741696
0.000741217
0.000740755
0.000740316
0.000739893
0.000739491
0.000749555
0.000748694
0.000747874
0.000747094
0.000746352
0.000745645
0.000744973
0.00074433
0.000743719
0.000743133
0.000742576
0.000742042
0.000741534
0.000741046
0.000740581
0.000740135
0.000739709
0.000739301
0.000749555
0.000748692
0.000747871
0.00074709
0.000746346
0.000745639
0.000744964
0.000744322
0.000743707
0.000743122
0.000742562
0.000742028
0.000741517
0.000741029
0.000740561
0.000740115
0.000739687
0.000739279
0.000749554
0.000748694
0.000747873
0.000747094
0.000746351
0.000745646
0.000744971
0.000744331
0.000743717
0.000743134
0.000742573
0.00074204
0.000741527
0.000741039
0.000740569
0.000740121
0.00073969
0.000739278
0.000749551
0.000748699
0.000747875
0.000747103
0.000746356
0.000745659
0.000744982
0.00074435
0.000743728
0.000743142
0.000742561
0.000742013
0.000741469
0.000740958
0.000740449
0.000739971
0.000739491
0.000739042
0.000749532
0.00074872
0.000747878
0.000747116
0.000746347
0.000745669
0.000744948
0.000744299
0.000743566
0.000742868
0.00074207
0.000741319
0.000740494
0.000739737
0.000738908
0.00073816
0.000737315
0.000736564
0.000749459
0.000748815
0.000747869
0.000747013
0.000746058
0.000745164
0.000743955
0.000742801
0.000741137
0.000739394
0.000737154
0.000735031
0.000732621
0.000730424
0.00072802
0.000725796
0.000723429
0.000720957
0.00074936
0.000749066
0.00074715
0.00074488
0.00074199
0.00073786
0.000733478
0.000728478
0.000722324
0.000715479
0.000707412
0.000700251
0.000692409
0.000685813
0.000678508
0.000672491
0.000665546
0.000659953
0.000749956
0.000744504
0.000736641
0.000724323
0.000708717
0.000693425
0.000674386
0.000655881
0.000634904
0.000616296
0.000596956
0.000581095
0.000564859
0.000552027
0.000538366
0.00052778
0.000515883
0.000506888
0.000740098
0.000704439
0.000668805
0.000612163
0.000559946
0.000517051
0.000476745
0.000443776
0.000412915
0.000388663
0.000366145
0.000349075
0.000332634
0.000320395
0.000307736
0.000298476
0.000288179
0.000280816
0.00068843
0.000496367
0.000401701
0.00030621
0.000252729
0.000218258
0.000192804
0.000174879
0.00016028
0.000149557
0.000140616
0.000134
0.00012819
0.000123823
0.00011964
0.000116504
0.000113241
0.000110829
0.000541792
0.000125342
8.51421e-05
7.05317e-05
6.35448e-05
5.99304e-05
5.8081e-05
5.71359e-05
5.68591e-05
5.70082e-05
5.75372e-05
5.83374e-05
5.94791e-05
6.0639e-05
6.20974e-05
6.35197e-05
6.42065e-05
6.41727e-05
1.10104e-05
1.55364e-05
1.89831e-05
2.11514e-05
2.24388e-05
2.29179e-05
2.30765e-05
2.30581e-05
2.28359e-05
2.25479e-05
2.22376e-05
2.19265e-05
2.16298e-05
2.1353e-05
2.11007e-05
2.08719e-05
2.06673e-05
2.04873e-05
1.62586e-12
1.8396e-10
9.36467e-10
3.67966e-09
1.22536e-08
3.70263e-08
9.68965e-08
1.92536e-07
3.11747e-07
4.37289e-07
5.49795e-07
6.36937e-07
6.95075e-07
7.1682e-07
7.07465e-07
6.78659e-07
6.24257e-07
5.34035e-07
4.54749e-07
3.86547e-07
3.21984e-07
2.59259e-07
1.98763e-07
1.42637e-07
9.27823e-08
5.42148e-08
2.87061e-08
1.44062e-08
7.30873e-09
3.96935e-09
2.40254e-09
1.82179e-09
1.98916e-09
4.22212e-09
9.14051e-09
5.58418e-08
1.26245e-07
2.83044e-07
4.27843e-07
4.67306e-07
4.31179e-07
3.43683e-07
2.88414e-07
2.86151e-07
3.14382e-07
4.16691e-07
5.53834e-07
1.09998e-06
2.45698e-06
7.28485e-06
1.85168e-05
3.07301e-05
3.65691e-05
2.63965e-05
2.99146e-05
3.29836e-05
3.38575e-05
3.9412e-05
4.02685e-05
3.3485e-05
3.47172e-05
3.60049e-05
3.10809e-05
3.31483e-05
3.35125e-05
3.41577e-05
3.47265e-05
3.53368e-05
3.58718e-05
3.64577e-05
3.69869e-05
3.7544e-05
3.80705e-05
3.86081e-05
3.91298e-05
3.96551e-05
4.01716e-05
4.06889e-05
4.12009e-05
4.17126e-05
4.22211e-05
4.27289e-05
4.3235e-05
4.37398e-05
4.42443e-05
4.47471e-05
4.52504e-05
4.57515e-05
4.62526e-05
4.67513e-05
4.72485e-05
4.77438e-05
4.82368e-05
4.87272e-05
4.92147e-05
4.96988e-05
5.01802e-05
5.06592e-05
5.11396e-05
5.16265e-05
5.21236e-05
5.26165e-05
5.31148e-05
5.36167e-05
5.41237e-05
5.46362e-05
5.51546e-05
5.56796e-05
5.62114e-05
5.67511e-05
5.72987e-05
5.78556e-05
5.84218e-05
5.8999e-05
5.9587e-05
6.01878e-05
6.08013e-05
6.14297e-05
6.2073e-05
6.27336e-05
6.34115e-05
6.41095e-05
6.48278e-05
6.55694e-05
6.63347e-05
6.71267e-05
6.79462e-05
6.87985e-05
6.96895e-05
7.06274e-05
7.15586e-05
7.25755e-05
7.35978e-05
7.47042e-05
7.58685e-05
7.70872e-05
7.8241e-05
7.79896e-05
7.77301e-05
7.74547e-05
7.71695e-05
7.68725e-05
7.65659e-05
7.62485e-05
7.5922e-05
7.55857e-05
7.5241e-05
7.48875e-05
7.45264e-05
7.41591e-05
7.37801e-05
7.34028e-05
7.30085e-05
7.26201e-05
7.22192e-05
7.18188e-05
7.14144e-05
7.10083e-05
7.06015e-05
7.01944e-05
6.97876e-05
6.93815e-05
6.89764e-05
6.85725e-05
6.817e-05
6.77696e-05
6.73717e-05
6.69769e-05
6.65856e-05
6.61985e-05
6.58148e-05
6.54347e-05
6.50565e-05
6.46778e-05
6.42942e-05
6.3898e-05
6.34777e-05
6.30056e-05
6.24262e-05
6.08749e-05
7.22004e-12
1.17547e-09
1.58503e-08
8.39697e-08
3.65813e-07
1.18176e-06
2.74846e-06
5.02523e-06
7.78876e-06
1.09364e-05
1.41189e-05
1.70609e-05
1.95578e-05
2.14362e-05
2.25371e-05
2.28653e-05
2.25282e-05
2.17016e-05
1.94624e-05
1.62948e-05
1.25446e-05
9.21436e-06
6.48251e-06
4.35955e-06
2.74262e-06
1.69223e-06
1.03263e-06
6.40363e-07
4.01702e-07
2.63484e-07
1.90624e-07
1.6951e-07
1.53891e-07
2.97524e-07
4.31913e-07
3.28642e-06
7.35927e-06
1.50884e-05
2.09589e-05
2.30824e-05
2.1742e-05
1.98054e-05
1.71696e-05
1.62283e-05
1.68663e-05
1.69965e-05
1.98527e-05
2.69738e-05
3.80201e-05
4.86721e-05
6.01321e-05
7.00619e-05
7.93214e-05
8.62838e-05
9.68282e-05
0.000107802
0.000120631
0.000133601
0.000148918
0.000159467
0.000173571
0.000189028
0.000197231
0.000211449
0.000223094
0.000234918
0.000246281
0.000257239
0.000267721
0.000277898
0.000287773
0.00029737
0.000306744
0.000315898
0.000324872
0.000333674
0.000342325
0.000350834
0.00035921
0.000367463
0.000375594
0.000383612
0.000391517
0.000399317
0.000407009
0.000414599
0.000422087
0.000429473
0.000436758
0.000443941
0.000451014
0.000457982
0.000464835
0.000471563
0.000478147
0.000484556
0.000490749
0.000496651
0.000502161
0.00050712
0.000511556
0.000516073
0.000520371
0.000524603
0.000528695
0.000532678
0.000536534
0.000540269
0.000543878
0.000547358
0.000550707
0.000553923
0.000557004
0.000559947
0.000562749
0.000565409
0.000567924
0.000570291
0.000572509
0.000574574
0.000576485
0.00057824
0.000579835
0.000581269
0.000582539
0.000583645
0.000584584
0.000585356
0.000585965
0.000586426
0.000586694
0.000586847
0.000586703
0.00058648
0.000586194
0.000585838
0.000585529
0.000585344
0.000584996
0.000584503
0.000583874
0.000583112
0.000582224
0.00058121
0.000580076
0.000578822
0.000577451
0.000575963
0.000574387
0.000572653
0.000570971
0.000568968
0.000567078
0.000564931
0.000562786
0.000560538
0.000558218
0.000555838
0.0005534
0.000550914
0.000548382
0.000545813
0.000543204
0.000540558
0.000537875
0.000535158
0.00053241
0.000529637
0.000526841
0.000524024
0.000521184
0.000518314
0.000515404
0.000512418
0.000509303
0.000505981
0.000502316
0.000498011
0.000492321
0.000476393
1.84754e-11
3.14928e-09
5.95848e-08
3.5741e-07
1.15875e-06
2.94576e-06
6.26537e-06
1.08855e-05
1.65836e-05
2.30561e-05
2.99241e-05
3.67583e-05
4.29202e-05
4.80537e-05
5.19404e-05
5.44908e-05
5.58718e-05
5.61817e-05
5.46718e-05
5.17743e-05
4.71117e-05
4.11141e-05
3.38776e-05
2.66199e-05
1.99747e-05
1.42557e-05
9.67234e-06
6.44127e-06
4.08894e-06
2.72115e-06
1.93292e-06
1.55536e-06
1.32059e-06
2.1972e-06
4.08058e-06
1.69672e-05
3.57971e-05
5.40775e-05
6.35316e-05
6.19627e-05
5.01243e-05
4.08822e-05
4.01344e-05
4.66179e-05
5.38007e-05
6.3129e-05
7.63098e-05
8.84428e-05
0.000101212
0.000118487
0.000137238
0.000158501
0.000181318
0.000206839
0.000236708
0.000268208
0.000299984
0.000331117
0.000361446
0.000390855
0.000419448
0.000447381
0.000472672
0.000498892
0.000522717
0.00054618
0.000568356
0.000589782
0.0006105
0.000630619
0.000650215
0.000669343
0.000688073
0.000706433
0.000724471
0.000742206
0.000759664
0.000776859
0.000793805
0.000810511
0.000826984
0.000843228
0.000859247
0.000875045
0.000890621
0.000905977
0.00092111
0.000936019
0.000950696
0.000965137
0.000979327
0.000993259
0.00100691
0.00102027
0.0010333
0.00104596
0.00105822
0.00107002
0.00108135
0.00109221
0.00110278
0.00111319
0.0011233
0.00113319
0.00114281
0.00115218
0.00116128
0.00117011
0.00117867
0.00118694
0.00119493
0.00120263
0.00121004
0.00121714
0.00122394
0.00123043
0.00123661
0.00124247
0.00124801
0.00125321
0.00125809
0.00126263
0.00126683
0.00127069
0.0012742
0.00127736
0.00128017
0.00128264
0.00128476
0.00128653
0.00128794
0.00128903
0.00128969
0.00129005
0.00129023
0.00129023
0.00129001
0.00128958
0.00128882
0.00128774
0.00128635
0.00128467
0.00128269
0.00128044
0.00127791
0.00127511
0.00127206
0.00126876
0.00126522
0.00126144
0.00125751
0.00125321
0.00124887
0.00124417
0.00123936
0.00123435
0.00122918
0.00122387
0.00121843
0.00121289
0.00120724
0.00120152
0.0011957
0.00118981
0.00118384
0.0011778
0.0011717
0.00116555
0.00115935
0.00115312
0.00114684
0.0011405
0.00113408
0.0011275
0.00112066
0.0011134
0.00110542
0.00109594
0.00108312
0.00105423
6.9684e-11
1.17896e-08
1.86895e-07
8.29402e-07
2.51697e-06
6.95123e-06
1.3758e-05
2.2903e-05
3.36999e-05
4.50443e-05
5.60571e-05
6.61872e-05
7.48072e-05
8.13392e-05
8.62115e-05
8.92744e-05
9.04796e-05
9.02132e-05
8.86043e-05
8.54401e-05
8.08656e-05
7.53109e-05
6.78974e-05
5.90434e-05
4.92633e-05
3.94235e-05
3.0377e-05
2.2823e-05
1.70381e-05
1.23907e-05
9.58481e-06
7.13716e-06
7.82866e-06
1.18224e-05
2.68625e-05
5.01058e-05
6.90504e-05
7.83343e-05
7.57376e-05
7.28746e-05
7.3042e-05
7.67899e-05
8.45486e-05
9.56387e-05
0.000110645
0.000122191
0.000141503
0.000164769
0.000191127
0.000223714
0.000258963
0.000298335
0.000339912
0.000384005
0.000429523
0.000475255
0.000520085
0.000563823
0.000605852
0.000646807
0.000685761
0.000723924
0.000759934
0.000795308
0.000828765
0.000861227
0.000892557
0.000923003
0.000952654
0.000981608
0.00100995
0.00103773
0.00106503
0.00109187
0.00111829
0.00114432
0.00116997
0.00119527
0.00122021
0.0012448
0.00126906
0.00129297
0.00131655
0.00133979
0.00136269
0.00138524
0.00140744
0.00142929
0.00145077
0.00147188
0.00149259
0.00151291
0.0015328
0.00155226
0.00157126
0.00158978
0.00160782
0.00162536
0.00164241
0.00165904
0.00167531
0.00169123
0.00170676
0.00172192
0.00173668
0.00175105
0.00176502
0.00177857
0.0017917
0.0018044
0.00181668
0.00182851
0.0018399
0.00185084
0.00186132
0.00187134
0.00188088
0.00188996
0.00189855
0.00190666
0.00191427
0.00192139
0.00192801
0.00193413
0.00193974
0.00194484
0.00194944
0.00195352
0.0019571
0.00196017
0.00196273
0.00196479
0.00196628
0.0019673
0.00196805
0.00196841
0.00196832
0.00196781
0.00196682
0.00196537
0.00196347
0.00196112
0.00195835
0.00195515
0.00195155
0.00194756
0.00194319
0.00193845
0.00193335
0.0019279
0.00192215
0.001916
0.00190962
0.00190285
0.00189584
0.00188855
0.00188102
0.00187328
0.00186534
0.00185723
0.00184897
0.00184057
0.00183205
0.0018234
0.00181464
0.00180576
0.00179679
0.00178773
0.00177861
0.00176944
0.00176021
0.00175089
0.00174145
0.0017318
0.00172183
0.00171131
0.00169983
0.00168634
0.00166837
0.00163414
2.38701e-10
3.56262e-08
4.19728e-07
1.96641e-06
6.81531e-06
1.63513e-05
3.027e-05
4.68174e-05
6.40723e-05
8.03564e-05
9.43559e-05
0.000105108
0.000113104
0.000118663
0.000121803
0.000123102
0.000122784
0.000121043
0.00011808
0.000113925
0.000108582
0.000102512
9.51639e-05
8.64329e-05
7.63682e-05
6.52575e-05
5.39397e-05
4.36793e-05
3.52051e-05
2.83948e-05
2.2575e-05
2.13533e-05
2.6465e-05
4.42002e-05
6.86741e-05
8.43869e-05
9.21046e-05
9.55768e-05
9.83859e-05
0.000103474
0.000112405
0.000126073
0.000139451
0.000152378
0.000173898
0.000202917
0.000235029
0.000274062
0.000317216
0.000365368
0.000415782
0.000468988
0.000523261
0.000578478
0.000633558
0.000687905
0.000740931
0.000792602
0.00084231
0.000890964
0.000937703
0.000983229
0.00102701
0.00106949
0.00111056
0.00115051
0.0011894
0.00122738
0.00126453
0.00130095
0.0013367
0.00137184
0.00140642
0.00144048
0.00147403
0.00150711
0.00153972
0.00157188
0.00160358
0.00163483
0.00166563
0.00169597
0.00172587
0.00175531
0.00178428
0.00181279
0.00184083
0.0018684
0.00189547
0.00192205
0.00194812
0.00197368
0.0019987
0.00202319
0.00204713
0.00207052
0.00209337
0.00211569
0.00213749
0.0021588
0.00217963
0.00219999
0.00221985
0.00223921
0.00225806
0.00227639
0.0022942
0.00231147
0.00232821
0.00234439
0.00236002
0.00237509
0.00238959
0.00240352
0.00241687
0.00242963
0.0024418
0.00245338
0.00246435
0.00247472
0.00248447
0.00249361
0.00250213
0.00251004
0.00251732
0.00252397
0.00253
0.00253541
0.00254021
0.00254439
0.00254792
0.00255086
0.0025531
0.00255475
0.00255606
0.00255678
0.00255694
0.00255653
0.00255555
0.002554
0.0025519
0.00254925
0.00254608
0.00254239
0.0025382
0.00253351
0.00252836
0.00252275
0.00251669
0.00251021
0.00250331
0.00249598
0.00248828
0.00248017
0.00247172
0.00246292
0.00245381
0.00244442
0.00243478
0.00242491
0.00241483
0.00240458
0.00239414
0.00238354
0.00237278
0.00236187
0.00235082
0.00233966
0.00232841
0.00231705
0.0023056
0.00229405
0.00228236
0.00227045
0.00225819
0.00224535
0.00223154
0.00221567
0.00219492
0.00216048
7.60724e-10
8.72614e-08
1.04929e-06
5.31873e-06
1.72881e-05
3.64057e-05
5.93136e-05
8.26646e-05
0.000102924
0.00011885
0.000130721
0.000139498
0.00014495
0.000147909
0.000148896
0.000148308
0.000146408
0.000143377
0.00013936
0.000134323
0.000128374
0.000121799
0.000114106
0.000105313
9.43085e-05
7.86827e-05
6.355e-05
4.93726e-05
3.75213e-05
3.2417e-05
3.36422e-05
4.58055e-05
6.7765e-05
8.9573e-05
0.000104847
0.000114084
0.000120021
0.000126418
0.000136799
0.000153161
0.000164692
0.000178252
0.000201633
0.000230785
0.000266325
0.000308964
0.000356206
0.000409073
0.000464825
0.000523553
0.00058363
0.000644914
0.000706389
0.000767775
0.000828419
0.000888034
0.000945999
0.00100268
0.00105812
0.00111205
0.00116442
0.00121535
0.00126485
0.00131305
0.00136002
0.0014059
0.00145078
0.00149475
0.0015379
0.00158029
0.00162198
0.00166302
0.00170345
0.00174328
0.00178255
0.00182125
0.00185941
0.00189701
0.00193406
0.00197056
0.0020065
0.00204188
0.0020767
0.00211095
0.00214464
0.00217775
0.00221028
0.00224222
0.00227358
0.00230434
0.0023345
0.00236404
0.00239298
0.0024213
0.002449
0.00247609
0.00250257
0.00252847
0.00255377
0.00257849
0.00260264
0.0026262
0.00264917
0.00267154
0.00269331
0.00271446
0.00273499
0.0027549
0.00277417
0.0027928
0.00281077
0.00282809
0.00284476
0.00286076
0.0028761
0.00289077
0.00290476
0.00291807
0.0029307
0.00294264
0.00295389
0.00296445
0.00297432
0.00298349
0.00299197
0.00299975
0.00300684
0.00301325
0.003019
0.00302401
0.00302833
0.003032
0.00303488
0.00303715
0.00303895
0.00304009
0.00304058
0.00304043
0.00303965
0.00303824
0.00303622
0.00303361
0.0030304
0.00302661
0.00302226
0.00301737
0.00301195
0.00300601
0.00299957
0.00299264
0.00298524
0.00297736
0.00296904
0.00296027
0.00295109
0.00294152
0.00293158
0.00292132
0.00291074
0.0028999
0.0028888
0.00287746
0.00286591
0.00285415
0.00284218
0.00283003
0.0028177
0.00280523
0.00279262
0.0027799
0.00276706
0.00275411
0.002741
0.00272768
0.00271403
0.00269986
0.0026848
0.0026679
0.00264656
0.00261407
2.44565e-09
2.23157e-07
2.77827e-06
1.45035e-05
3.77633e-05
6.69887e-05
9.47683e-05
0.000117341
0.000134372
0.000147158
0.000156157
0.00016168
0.000164593
0.000165555
0.000165008
0.000163243
0.000160447
0.000156722
0.000152019
0.000146261
0.000139673
0.000132044
0.000123097
0.00010699
9.14871e-05
7.78112e-05
6.56892e-05
5.71101e-05
5.61874e-05
6.43372e-05
7.72752e-05
0.000102034
0.000119904
0.000132755
0.000142133
0.000150328
0.000161276
0.000178038
0.000187648
0.000200847
0.000223396
0.000251657
0.000287498
0.000329798
0.000378691
0.000433152
0.00049132
0.000552797
0.000616022
0.000680739
0.000746063
0.000811664
0.000877001
0.000941812
0.00100543
0.00106791
0.00112959
0.00118981
0.00124872
0.00130626
0.00136245
0.00141731
0.00147091
0.00152332
0.00157462
0.00162489
0.00167421
0.00172266
0.00177029
0.00181716
0.00186332
0.0019088
0.00195363
0.00199781
0.00204137
0.0020843
0.0021266
0.00216827
0.0022093
0.00224968
0.00228942
0.0023285
0.00236692
0.00240468
0.00244177
0.00247819
0.00251395
0.00254904
0.00258346
0.0026172
0.00265026
0.00268264
0.00271435
0.00274537
0.00277572
0.00280538
0.00283437
0.00286267
0.0028903
0.00291728
0.00294359
0.00296924
0.00299422
0.00301853
0.00304216
0.00306511
0.00308736
0.00310893
0.0031298
0.00314998
0.00316947
0.00318826
0.00320633
0.00322369
0.00324032
0.00325624
0.00327142
0.00328588
0.00329961
0.00331261
0.00332487
0.00333639
0.00334718
0.00335723
0.00336655
0.00337514
0.00338299
0.00339014
0.00339662
0.00340226
0.00340721
0.00341147
0.00341489
0.00341771
0.00341996
0.00342151
0.00342237
0.00342256
0.00342208
0.00342095
0.00341918
0.00341677
0.00341376
0.00341019
0.00340604
0.00340133
0.00339605
0.00339022
0.00338386
0.00337698
0.00336959
0.0033617
0.00335332
0.00334446
0.00333515
0.0033254
0.00331526
0.00330474
0.00329388
0.0032827
0.00327123
0.00325948
0.00324748
0.00323521
0.00322271
0.00320998
0.00319705
0.00318393
0.00317065
0.00315722
0.00314366
0.00312996
0.00311611
0.00310206
0.00308773
0.00307297
0.00305747
0.0030405
0.00302002
0.00299057
7.37537e-09
5.91118e-07
7.48357e-06
3.09716e-05
6.52698e-05
9.93011e-05
0.000127316
0.000148182
0.00016262
0.000171395
0.000175813
0.000177575
0.000177631
0.000176364
0.000174088
0.000170959
0.000166943
0.000161941
0.000156051
0.000149434
0.000141928
0.000133121
0.000115922
9.91041e-05
8.51696e-05
7.55656e-05
7.27541e-05
7.69005e-05
8.68469e-05
0.000107511
0.000132737
0.000155524
0.000169247
0.000179106
0.000190526
0.000200997
0.000208095
0.000220809
0.000240869
0.000267053
0.000300994
0.000341367
0.000388717
0.00044193
0.000500248
0.000562188
0.000626493
0.000692578
0.000759646
0.00082735
0.000895185
0.000962847
0.00102982
0.00109589
0.00116146
0.00122595
0.00128933
0.00135149
0.00141245
0.00147218
0.00153071
0.00158806
0.00164429
0.00169943
0.00175356
0.00180674
0.00185902
0.00191047
0.00196113
0.00201104
0.00206025
0.00210878
0.00215664
0.00220383
0.00225035
0.0022962
0.00234137
0.00238584
0.00242961
0.00247266
0.00251498
0.00255657
0.00259742
0.00263754
0.00267691
0.00271553
0.00275343
0.00279059
0.00282701
0.00286271
0.00289767
0.00293191
0.00296542
0.0029982
0.00303027
0.0030616
0.0030922
0.00312207
0.00315122
0.00317967
0.00320741
0.00323445
0.00326077
0.00328638
0.00331127
0.00333544
0.00335888
0.00338159
0.00340356
0.0034248
0.00344529
0.00346504
0.00348404
0.00350229
0.0035198
0.00353655
0.00355255
0.0035678
0.00358229
0.00359603
0.00360902
0.00362126
0.00363274
0.00364347
0.00365345
0.00366269
0.00367119
0.00367901
0.00368607
0.00369234
0.0036979
0.00370276
0.00370678
0.00371021
0.003713
0.00371509
0.00371648
0.00371719
0.00371723
0.0037166
0.00371532
0.00371341
0.00371086
0.0037077
0.00370393
0.00369958
0.00369464
0.00368914
0.00368308
0.00367649
0.00366935
0.00366169
0.00365352
0.00364485
0.00363569
0.00362608
0.00361604
0.00360559
0.00359477
0.00358359
0.00357209
0.00356027
0.00354816
0.00353576
0.00352307
0.00351013
0.00349695
0.00348356
0.00346997
0.0034562
0.00344228
0.00342821
0.00341398
0.00339956
0.00338492
0.00336998
0.0033546
0.00333811
0.00331892
0.00329305
1.92291e-08
1.47041e-06
1.6636e-05
5.19705e-05
9.16905e-05
0.000125781
0.000151816
0.000169799
0.000180909
0.000186622
0.000188419
0.000187472
0.000184751
0.000180985
0.000176573
0.000171625
0.000166062
0.00015992
0.000153129
0.000145807
0.000137764
0.000126288
0.000114147
0.000107149
0.000102406
9.82532e-05
0.000102731
0.000117676
0.00013732
0.000158496
0.000178476
0.000195027
0.000206872
0.000215745
0.00022501
0.00023712
0.000255058
0.000278608
0.000309415
0.000346779
0.000390934
0.00044102
0.000496735
0.000556926
0.000620504
0.000686283
0.00075347
0.000821581
0.000890153
0.000958874
0.00102743
0.00109519
0.00116257
0.0012294
0.00129531
0.00136023
0.00142409
0.00148687
0.00154855
0.00160912
0.00166861
0.00172704
0.00178446
0.0018409
0.00189642
0.00195106
0.00200487
0.00205789
0.00211017
0.00216176
0.00221268
0.00226295
0.00231258
0.00236156
0.00240986
0.00245747
0.00250439
0.00255058
0.00259602
0.0026407
0.0026846
0.00272772
0.00277004
0.00281157
0.00285235
0.00289238
0.00293161
0.00297004
0.00300769
0.00304455
0.00308063
0.00311593
0.00315047
0.00318425
0.00321728
0.00324955
0.00328108
0.00331187
0.00334193
0.00337126
0.00339985
0.00342771
0.00345482
0.00348119
0.00350681
0.00353168
0.0035558
0.00357917
0.00360178
0.00362364
0.00364473
0.00366507
0.00368464
0.00370345
0.00372151
0.0037388
0.00375533
0.00377111
0.00378613
0.0038004
0.00381391
0.00382667
0.00383868
0.00384995
0.00386047
0.00387025
0.00387931
0.00388772
0.0038953
0.00390217
0.00390833
0.00391378
0.00391843
0.0039225
0.0039259
0.0039286
0.00393062
0.00393197
0.00393265
0.00393268
0.00393206
0.00393081
0.00392893
0.00392644
0.00392335
0.00391967
0.0039154
0.00391057
0.00390518
0.00389923
0.00389275
0.00388573
0.00387817
0.00387011
0.00386154
0.0038525
0.00384301
0.00383309
0.00382277
0.00381207
0.00380102
0.00378962
0.00377789
0.00376583
0.00375347
0.00374082
0.00372789
0.00371472
0.00370133
0.00368773
0.00367395
0.00366
0.00364588
0.00363159
0.00361712
0.00360239
0.00358728
0.00357133
0.00355329
0.00353051
4.2882e-08
3.39739e-06
2.99689e-05
7.54019e-05
0.000119534
0.000153604
0.000176184
0.000189847
0.000196421
0.000197574
0.00019521
0.000190715
0.000185024
0.000178717
0.000172045
0.000164894
0.00015754
0.000149463
0.00014146
0.000133109
0.000124513
0.000116692
0.00011149
0.000111224
0.000117417
0.000129428
0.000145393
0.000163064
0.000181163
0.000198258
0.000212583
0.000223977
0.000235958
0.000249185
0.000265999
0.000287253
0.000314841
0.000348629
0.000388846
0.000434896
0.000486471
0.000542873
0.000603436
0.000667116
0.00073294
0.000800087
0.000868021
0.000936381
0.00100486
0.00107293
0.00114048
0.001208
0.0012747
0.00134063
0.00140567
0.00146975
0.00153284
0.00159492
0.00165597
0.00171602
0.00177506
0.00183314
0.0018903
0.0019466
0.00200207
0.00205677
0.00211073
0.00216394
0.0022165
0.00226846
0.00231984
0.00237066
0.00242094
0.00247072
0.00252009
0.00256885
0.0026169
0.00266418
0.00271066
0.00275633
0.00280116
0.00284512
0.00288822
0.00293045
0.00297181
0.00301229
0.00305195
0.00309082
0.00312891
0.00316623
0.00320278
0.00323857
0.0032736
0.00330789
0.00334144
0.00337424
0.00340632
0.00343765
0.00346824
0.00349808
0.00352718
0.00355552
0.00358311
0.00360994
0.00363602
0.00366134
0.0036859
0.00370969
0.00373273
0.003755
0.00377651
0.00379726
0.00381724
0.00383646
0.00385493
0.00387264
0.0038896
0.00390581
0.00392127
0.00393598
0.00394996
0.00396319
0.00397569
0.00398745
0.00399849
0.0040088
0.00401845
0.00402738
0.00403556
0.00404305
0.00404984
0.00405594
0.0040613
0.00406606
0.00407015
0.00407357
0.00407632
0.00407842
0.00407987
0.00408068
0.00408087
0.00408043
0.00407939
0.00407774
0.0040755
0.00407267
0.00406928
0.00406532
0.0040608
0.00405574
0.00405013
0.00404397
0.00403728
0.00403007
0.00402234
0.00401413
0.00400545
0.00399633
0.0039868
0.00397686
0.00396654
0.00395585
0.0039448
0.0039334
0.00392166
0.0039096
0.00389724
0.0038846
0.00387171
0.0038586
0.00384527
0.00383175
0.00381805
0.00380418
0.00379015
0.00377594
0.00376145
0.00374637
0.00372966
0.00371028
8.15452e-08
6.9562e-06
4.41244e-05
9.5725e-05
0.000141651
0.000174625
0.000195056
0.00020463
0.000206725
0.000203919
0.000198104
0.000190584
0.000182195
0.000173233
0.000164515
0.000155735
0.000147732
0.000140643
0.000135119
0.000130931
0.000128988
0.000130276
0.00013526
0.000144033
0.000156039
0.000170371
0.000185899
0.000201607
0.000216134
0.00022869
0.000241969
0.000257024
0.000273852
0.000293827
0.000318708
0.000349019
0.000385186
0.000426863
0.000473772
0.000525404
0.000581319
0.000640895
0.000703423
0.000768049
0.000834019
0.000900746
0.000967833
0.00103498
0.00110158
0.00116806
0.0012341
0.00129952
0.00136413
0.00142786
0.00149065
0.00155249
0.00161336
0.00167328
0.00173226
0.00179031
0.0018474
0.00190359
0.001959
0.00201368
0.00206769
0.00212112
0.00217412
0.00222692
0.00227922
0.00233099
0.00238225
0.002433
0.00248326
0.00253302
0.00258217
0.00263074
0.00267867
0.0027259
0.00277241
0.00281816
0.00286309
0.00290719
0.00295044
0.00299283
0.00303438
0.00307514
0.0031151
0.00315429
0.0031927
0.00323034
0.00326724
0.00330338
0.00333879
0.00337346
0.0034074
0.0034406
0.00347306
0.00350479
0.00353578
0.00356602
0.00359552
0.00362426
0.00365225
0.00367949
0.00370596
0.00373168
0.00375664
0.00378084
0.00380428
0.00382695
0.00384887
0.00387003
0.00389043
0.00391008
0.00392898
0.00394714
0.00396455
0.00398122
0.00399716
0.00401237
0.00402685
0.00404061
0.00405365
0.00406598
0.0040776
0.00408854
0.0040988
0.00410835
0.00411721
0.00412538
0.0041329
0.00413973
0.0041459
0.00415145
0.00415634
0.00416057
0.00416417
0.00416714
0.00416948
0.0041712
0.00417232
0.00417283
0.00417275
0.00417209
0.00417084
0.00416903
0.00416665
0.00416372
0.00416025
0.00415623
0.00415166
0.00414655
0.00414089
0.00413471
0.00412801
0.00412081
0.00411314
0.00410502
0.00409647
0.0040875
0.00407813
0.00406836
0.00405821
0.00404768
0.00403679
0.00402554
0.00401398
0.0040021
0.00398995
0.00397754
0.00396489
0.00395203
0.00393897
0.00392573
0.00391235
0.00389881
0.00388509
0.00387096
0.00385552
0.00383905
1.30307e-07
1.19186e-05
6.03431e-05
0.000118366
0.00016438
0.000194746
0.000210842
0.000216412
0.000214934
0.000209083
0.000200832
0.000191235
0.000181676
0.000172509
0.000164562
0.000157713
0.000152555
0.00014963
0.000148753
0.000150185
0.000154193
0.000160827
0.000169886
0.000180984
0.000193602
0.000207167
0.000220618
0.000233181
0.000246522
0.000262275
0.000279868
0.00029916
0.000322231
0.000349674
0.000382088
0.000419481