/*--------------------------------*- C++ -*----------------------------------*\
  =========                 |
  \\      /  F ield         | OpenFOAM: The Open Source CFD Toolbox
   \\    /   O peration     | Website:  https://openfoam.org
    \\  /    A nd           | Version:  8
     \\/     M anipulation  |
\*---------------------------------------------------------------------------*/
FoamFile
{
    version     2.0;
    format      ascii;
    class       volScalarField;
    location    "1800";
    object      omega;
}
// * * * * * * * * * * * * * * * * * * * * * * * * * * * * * * * * * * * * * //

dimensions      [0 0 -1 0 0 0 0];

internalField   nonuniform List<scalar> 
12225
(
32582.3
32582.3
32582.3
32582.3
32582.3
32582.3
43587.2
50771
53161.7
52700.1
52629.2
54135.4
49018
50276.9
51994.5
47150
48346.1
46428
501.473
6762.58
9016.13
10484.3
12423.1
12768.6
14981.1
18161
20219.8
21888.6
22200.6
23196.5
19812
21875.4
20557.6
20138.7
20591.5
19739.5
132.962
1521.24
1726.72
2184.72
3149.34
4044.9
4953.99
5783.16
6288.52
7076.79
7424.7
7398.89
7299.56
7471.91
7538.81
7739.61
7835.99
7995.65
320.406
733.444
678.126
720.362
1074.96
1397.74
1606.7
1823
1980.14
2144.51
2252.18
2361.62
2421.98
2515.16
2568.47
2652.23
2704.44
2789.86
447.434
535.045
552.965
554.326
656.754
748.62
848.645
919.081
933.609
979.94
1015.7
1065.05
1097.71
1142.82
1168.47
1207.79
1225.96
1262.43
485.431
487.375
504.536
511.078
532.672
562.458
603.926
623.558
631.731
643.624
656.803
677.68
693.072
713.899
726.812
744.906
753.443
770.474
497.11
492.186
495.728
496.897
500.969
510.112
517.383
527.375
532.013
534.09
535.542
541.957
547.804
556.358
562.115
570.007
573.87
581.266
498.648
494.72
492.369
491.488
491.377
492.842
495.008
496.549
498.139
497.832
499.781
500.005
501.523
504.625
506.948
510.316
511.988
515.208
498.633
495.425
492.859
490.876
489.177
487.833
486.677
485.707
484.879
483.795
483.153
483.08
482.982
483.235
483.65
484.458
484.892
485.98
498.569
495.615
492.917
490.501
488.237
486.158
484.143
482.346
480.585
478.978
477.462
476.265
475.139
474.342
473.509
473.033
472.278
472.013
498.528
495.657
492.93
490.397
487.976
485.721
483.534
481.514
479.546
477.729
475.968
474.384
472.855
471.512
470.186
469.044
467.856
466.864
498.517
495.657
492.931
490.368
487.921
485.619
483.411
481.335
479.341
477.464
475.661
473.97
472.348
470.832
469.372
468.011
466.69
465.463
498.516
495.652
492.929
490.355
487.905
485.587
483.378
481.286
479.289
477.397
475.589
473.875
472.237
470.684
469.197
467.787
466.437
465.154
498.517
495.648
492.926
490.345
487.895
485.57
483.361
481.26
479.264
477.363
475.556
473.832
472.194
470.628
469.14
467.716
466.363
465.067
498.517
495.646
492.922
490.339
487.886
485.558
483.346
481.244
479.243
477.341
475.528
473.804
472.159
470.594
469.099
467.675
466.314
465.019
498.516
495.643
492.917
490.33
487.874
485.543
483.327
481.222
479.217
477.312
475.496
473.768
472.119
470.551
469.052
467.627
466.262
464.965
498.508
495.619
492.88
490.282
487.816
485.474
483.25
481.136
479.124
477.212
475.39
473.656
472.003
470.43
468.927
467.497
466.129
464.827
498.508
495.62
492.88
490.283
487.815
485.475
483.248
481.136
479.121
477.21
475.385
473.653
471.997
470.424
468.92
467.49
466.121
464.819
498.517
495.642
492.918
490.33
487.875
485.54
483.325
481.214
479.212
477.3
475.486
473.752
472.105
470.53
469.034
467.601
466.24
464.935
498.517
495.645
492.921
490.337
487.882
485.553
483.337
481.232
479.227
477.322
475.506
473.778
472.129
470.56
469.061
467.635
466.27
464.972
498.517
495.646
492.924
490.34
487.888
485.559
483.346
481.241
479.24
477.336
475.523
473.796
472.152
470.584
469.091
467.665
466.308
465.01
498.521
495.645
492.928
490.343
487.898
485.566
483.36
481.254
479.264
477.363
475.571
473.855
472.237
470.685
469.223
467.817
466.495
465.222
498.534
495.637
492.935
490.35
487.923
485.588
483.417
481.332
479.419
477.6
475.949
474.372
472.933
471.544
470.282
469.051
467.951
466.868
498.583
495.582
492.953
490.443
488.153
485.983
484.147
482.408
481.104
479.964
479.241
478.543
478.12
477.647
477.387
477.086
476.945
476.941
498.642
495.426
493.456
491.936
490.985
491.027
491.343
492.201
493.929
496.27
499.591
502.448
505.933
508.672
512.054
514.608
517.966
520.406
498.187
498.512
500.705
506.387
514.769
523.461
535.464
547.758
562.878
576.881
592.496
605.643
619.977
631.366
644.3
654.179
666.14
674.893
504.546
527.592
553.253
602.156
655.585
707.021
763.037
815.364
870.933
919.442
969.661
1010.6
1053.83
1087.24
1124.96
1152.71
1186.69
1210.46
542.459
757.544
940.042
1235.45
1496.75
1732.19
1954.03
2146.45
2325.84
2472.97
2610.43
2718.3
2823.48
2903.75
2991.11
3055.01
3134.06
3188.68
714.789
3282.76
5107.62
6462.52
7473.39
8171.85
8649.21
8975.08
9189.6
9312.92
9384.76
9400.36
9392.06
9370.62
9340.65
9302.62
9279.6
9253.05
16112.1
20823.3
23155.8
24363.8
24945.7
25057.9
25001.7
24854.5
24607.7
24336.7
24063.2
23797.8
23547.9
23315.9
23103.7
22910.3
22735.3
22578.8
11463.3
2494.65
2496.87
2499.12
2501.38
2503.67
2505.98
2508.3
2510.65
2513.02
2515.42
2517.83
2520.27
2522.73
2525.21
2527.72
2530.25
2532.8
2535.37
2537.97
2540.6
2543.25
2545.92
2548.62
2551.34
2554.09
2556.87
2559.67
2562.5
2565.35
2568.23
2571.14
2574.08
2577.04
2580.04
2583.06
2586.11
2589.19
2592.3
2595.43
2598.6
2601.8
2605.03
2608.29
2611.59
2614.91
2618.27
2621.66
2625.08
2628.54
2632.03
2635.55
2639.11
3131.5
3196.09
3190.31
3239.72
3131.13
2661.21
3240.29
3378.88
2672.76
3338.23
3378.1
3482.67
3565.88
3644.51
3725.36
3797.88
3872.13
3941.27
4010.33
4076.4
4141.63
4204.86
4267.03
4327.68
4387.23
4445.51
4502.71
4558.79
4613.8
4667.79
4720.71
4772.69
4823.59
4873.59
4922.49
4970.46
5017.33
5063.16
5107.89
5151.51
5193.94
5235.17
5275.13
5313.82
5351.25
5387.57
5423.02
5457.98
5491.68
5524.55
5556.45
5587.43
5617.46
5646.52
5674.62
5701.73
5727.86
5752.98
5777.1
5800.19
5822.28
5843.31
5863.33
5882.27
5900.2
5917.05
5932.88
5947.62
5961.34
5973.99
5985.61
5996.19
6005.76
6014.32
6022.03
6029.09
6033.97
6039.67
6041.64
6044.87
6046.57
6048.21
6048.74
6048.36
6046.03
6043.19
6039.22
6034.58
6029.1
6022.94
6016.03
6008.47
6000.23
5991.4
5981.97
5972
5961.52
5950.64
5939.05
5927.32
5914.9
5902.41
5889.53
5876.5
5863.36
5850.17
5837.01
5823.88
5810.83
5797.85
5785
5772.26
5759.71
5747.35
5735.29
5723.52
5712.11
5701.02
5690.25
5679.66
5669.06
5658.04
5645.95
5631.72
5612.89
5584.41
5468.39
11463.3
1992.13
996.958
811.841
695.082
623.245
630.117
626.485
615.431
593.04
568.943
545.438
523.758
505.802
493.531
484.789
484.044
486.335
511.524
560.375
644.698
746.173
856.34
965.833
1063.66
1139.41
1182.27
1176.46
1135.86
1057.34
934.737
783.36
652.374
567.349
500.095
462.711
456.059
463.543
484.591
516.168
546.889
581.708
674.247
801.206
998.505
1312.31
1625.25
1842.43
1982.84
2051.73
2071.71
2059.75
2022.72
2008.29
1939.97
1880.83
1826.49
1788.21
1724.49
1724.37
1697.45
1659.95
1688.68
1668.75
1668.4
1665.48
1664.81
1666.02
1668.98
1673.13
1677.99
1683.76
1689.92
1696.64
1703.6
1710.85
1718.25
1725.78
1733.39
1741.03
1748.69
1756.33
1763.93
1771.47
1778.93
1786.28
1793.53
1800.64
1807.62
1814.4
1821.03
1827.47
1833.73
1839.82
1845.77
1851.66
1857.6
1863.8
1870.56
1878.37
1887.21
1895.23
1903.34
1911.09
1918.68
1926.02
1933.14
1940.04
1946.7
1953.14
1959.35
1965.32
1971.06
1976.57
1981.85
1986.89
1991.7
1996.28
2000.64
2004.77
2008.67
2012.35
2015.82
2019.07
2022.11
2024.95
2027.59
2030.05
2032.3
2034.31
2036.2
2037.77
2039.35
2040.74
2041.96
2042.76
2042.93
2042.38
2041.62
2040.67
2039.55
2038.25
2036.79
2035.16
2033.37
2031.43
2029.35
2027.14
2024.74
2022.39
2019.4
2017.05
2013.88
2011.19
2008.11
2005.05
2001.94
1998.78
1995.59
1992.37
1989.14
1985.89
1982.64
1979.4
1976.16
1972.94
1969.75
1966.61
1963.51
1960.47
1957.51
1954.63
1951.82
1949.15
1946.65
1944.39
1942.45
1941.39
1940.16
1949.36
11463.3
2008.38
812.607
639.745
680.232
682.013
654.942
599.728
540.156
484.088
434.472
392.28
359.144
333.191
313.225
297.896
287.193
279.09
276.811
279.143
289.325
307.941
340.133
384.111
439.064
499.596
560.857
607.889
638.675
636.619
615.053
573.332
511.203
443.064
392.314
383.628
393.939
417.683
454.542
525.614
635.13
787.441
985.252
1164.53
1313.39
1445.55
1534.31
1564.35
1563.9
1516.33
1462.67
1401.01
1343.79
1293.63
1246.35
1207.22
1177.18
1154.74
1137.45
1125.47
1116.45
1108.75
1107.05
1102.11
1101.58
1100.84
1101.82
1103.47
1105.73
1108.47
1111.57
1114.98
1118.6
1122.41
1126.36
1130.42
1134.56
1138.75
1142.99
1147.25
1151.53
1155.8
1160.06
1164.3
1168.51
1172.69
1176.82
1180.91
1184.94
1188.92
1192.85
1196.74
1200.6
1204.45
1208.3
1212.21
1216.2
1220.32
1224.61
1229.05
1233.44
1237.63
1241.75
1245.72
1249.58
1253.31
1256.91
1260.38
1263.73
1266.94
1270.02
1272.97
1275.79
1278.47
1281.02
1283.44
1285.72
1287.87
1289.89
1291.78
1293.54
1295.16
1296.66
1298.03
1299.28
1300.4
1301.4
1302.28
1303.03
1303.67
1304.18
1304.58
1304.88
1305.06
1305.09
1304.92
1304.51
1303.9
1303.2
1302.39
1301.48
1300.48
1299.37
1298.17
1296.87
1295.48
1294.01
1292.45
1290.8
1289.09
1287.22
1285.44
1283.43
1281.51
1279.46
1277.39
1275.26
1273.1
1270.91
1268.68
1266.42
1264.14
1261.83
1259.51
1257.18
1254.84
1252.49
1250.15
1247.81
1245.49
1243.19
1240.95
1238.77
1236.7
1234.81
1233.21
1232.07
1232.02
1233.43
1243.79
11463.3
2036.3
1009.14
977.003
903.412
775.073
658.297
551.556
467.041
404.011
356.313
318.844
290.06
268.152
251.488
238.84
229.351
222.412
217.741
215.96
216.939
219.916
228.158
242.347
263.808
292.448
326.921
362.095
393.466
416.764
422.875
416.951
393.992
395.061
431.623
521.39
587.803
645.565
716.791
817.671
951.912
1071.42
1150.93
1218.77
1272.22
1293.84
1260.29
1213.26
1169.05
1114.53
1069.13
1026.79
992.408
963.367
939.668
920.911
907.111
896.78
889.754
884.458
881.506
878.947
878.343
877.743
878.574
879.817
881.634
883.807
886.279
888.993
891.898
894.962
898.149
901.44
904.812
908.25
911.739
915.268
918.826
922.403
925.993
929.587
933.178
936.761
940.331
943.883
947.414
950.921
954.404
957.86
961.294
964.708
968.11
971.506
974.905
978.315
981.739
985.176
988.613
992.012
995.322
998.527
1001.65
1004.67
1007.59
1010.41
1013.13
1015.75
1018.26
1020.67
1022.97
1025.17
1027.26
1029.24
1031.1
1032.86
1034.51
1036.05
1037.48
1038.8
1040
1041.1
1042.09
1042.97
1043.74
1044.4
1044.95
1045.39
1045.73
1045.96
1046.09
1046.11
1046.03
1045.84
1045.52
1045.07
1044.47
1043.76
1042.95
1042.06
1041.08
1040.02
1038.86
1037.63
1036.31
1034.92
1033.44
1031.89
1030.27
1028.58
1026.81
1025.01
1023.13
1021.22
1019.24
1017.22
1015.16
1013.06
1010.91
1008.73
1006.52
1004.28
1002.02
999.728
997.421
995.098
992.762
990.418
988.07
985.723
983.394
981.1
978.863
976.721
974.735
973.006
971.688
971.305
972.326
978.644
11463.3
2305.65
1467.61
1186.55
942.57
729.184
562.9
451.305
375.041
321.591
283.814
257.259
237.75
222.902
211.341
202.34
195.489
190.531
187.239
185.661
185.897
187.302
191.038
197.826
208.607
224.424
245.448
269.268
293.271
312.049
328.139
353.242
418.992
520.951
610.181
679.154
749.299
826.038
899.299
963.384
1019.07
1067.05
1098.17
1106.98
1077.5
1029.73
993.018
950.371
913.615
878.969
851.346
827.504
808.63
793.27
781.372
772.393
766.059
761.653
759.225
757.602
757.259
757.437
758.465
759.951
761.947
764.258
766.852
769.658
772.637
775.76
778.999
782.336
785.753
789.238
792.779
796.366
799.989
803.642
807.317
811.006
814.703
818.403
822.099
825.788
829.465
833.125
836.766
840.386
843.98
847.55
851.092
854.611
858.106
861.577
865.025
868.447
871.836
875.181
878.471
881.688
884.82
887.862
890.818
893.68
896.449
899.122
901.698
904.175
906.552
908.827
911
913.068
915.03
916.886
918.634
920.273
921.802
923.221
924.529
925.727
926.813
927.787
928.65
929.401
930.04
930.567
930.981
931.283
931.473
931.548
931.526
931.387
931.137
930.773
930.293
929.689
928.966
928.135
927.209
926.19
925.079
923.877
922.588
921.214
919.757
918.216
916.596
914.896
913.124
911.278
909.365
907.398
905.364
903.283
901.142
898.952
896.714
894.432
892.107
889.744
887.346
884.917
882.46
879.98
877.479
874.958
872.421
869.873
867.32
864.775
862.245
859.744
857.293
854.925
852.692
850.679
849.012
848.054
848.284
851.441
11463.3
2924.63
1733.41
1210.13
834.931
589.087
445.566
356.778
302.085
266.608
241.818
223.412
209.226
198.143
189.328
182.326
176.915
172.971
170.404
169.317
169.635
171.033
174.251
179.466
187.298
198.994
215.493
237.026
265.459
307.783
363.126
453.821
565.138
655.861
724.813
787.779
840.809
881.7
916.453
949.937
967.905
970.574
942.093
910.607
878.062
843.489
813.881
785.211
761.647
741.247
724.897
711.437
700.953
692.846
686.954
682.906
680.697
679.658
679.495
680.18
681.576
683.5
685.877
688.599
691.604
694.825
698.221
701.757
705.409
709.158
712.987
716.886
720.844
724.851
728.901
732.986
737.098
741.231
745.378
749.533
753.689
757.842
761.986
766.116
770.226
774.314
778.376
782.407
786.405
790.365
794.288
798.171
802.014
805.814
809.567
813.269
816.911
820.482
823.979
827.392
830.715
833.947
837.084
840.126
843.068
845.91
848.648
851.281
853.807
856.224
858.534
860.731
862.814
864.783
866.635
868.369
869.984
871.479
872.854
874.106
875.237
876.245
877.129
877.89
878.527
879.04
879.428
879.69
879.817
879.836
879.733
879.503
879.149
878.672
878.07
877.343
876.494
875.531
874.461
873.286
872.008
870.629
869.151
867.583
865.921
864.167
862.326
860.398
858.39
856.302
854.143
851.918
849.626
847.275
844.863
842.395
839.875
837.306
834.693
832.038
829.346
826.621
823.868
821.089
818.288
815.467
812.628
809.777
806.92
804.068
801.228
798.415
795.648
792.955
790.377
787.985
785.881
784.314
783.623
784.661
11463.3
3437.61
1779.17
1038.14
652.1
458.698
359.598
303.848
268.63
243.621
224.756
209.99
198.103
188.272
180.128
173.509
168.345
164.615
162.415
161.855
162.727
165.306
170.078
177.44
188.199
202.772
224.59
259.121
313.511
398.67
504.709
595.238
665.644
726.27
773.916
809.511
837.867
860.151
869.417
866.465
843.764
820.982
794.443
768.745
743.517
719.801
699.362
681.331
666.555
654.269
644.51
636.863
631.192
627.209
624.942
623.995
623.911
624.825
626.477
628.752
631.526
634.709
638.212
641.973
645.937
650.062
654.319
658.682
663.133
667.661
672.252
676.899
681.594
686.33
691.099
695.895
700.711
705.539
710.372
715.205
720.03
724.842
729.634
734.401
739.139
743.843
748.507
753.127
757.699
762.219
766.683
771.092
775.441
779.728
783.948
788.098
792.173
796.169
800.078
803.892
807.607
811.219
814.726
818.126
821.415
824.591
827.652
830.594
833.415
836.112
838.678
841.118
843.429
845.61
847.66
849.577
851.36
853.007
854.518
855.891
857.127
858.224
859.182
860
860.679
861.217
861.615
861.865
861.963
861.949
861.789
861.488
861.049
860.472
859.759
858.91
857.929
856.822
855.593
854.246
852.783
851.207
849.518
847.71
845.793
843.774
841.656
839.442
837.137
834.746
832.273
829.725
827.105
824.418
821.663
818.848
815.976
813.051
810.078
807.061
804.004
800.913
797.793
794.646
791.476
788.285
785.077
781.857
778.632
775.41
772.201
769.018
765.878
762.804
759.831
757.014
754.433
752.256
750.648
750.105
11463.3
3582.11
1565.71
817.466
515.291
382.689
314.491
274.174
247.892
229.525
215.498
203.771
193.5
184.61
177.077
170.976
166.489
163.792
162.831
163.477
165.954
170.878
178.82
191.749
212.195
242.533
288.982
362.048
450.331
531.816
597.307
652.879
699.859
737.162
766.904
785.753
792.327
785.491
768.407
750.629
729.715
709.924
689.856
670.85
652.973
637.029
623.431
611.927
602.58
595.108
589.419
585.323
582.798
581.669
581.47
582.295
583.974
586.394
589.422
592.955
596.899
601.181
605.733
610.502
615.445
620.531
625.731
631.028
636.405
641.848
647.349
652.899
658.489
664.114
669.767
675.438
681.12
686.806
692.486
698.153
703.8
709.419
715.006
720.553
726.056
731.51
736.907
742.243
747.512
752.708
757.831
762.877
767.843
772.726
777.523
782.228
786.842
791.359
795.769
800.066
804.245
808.303
812.239
816.05
819.733
823.285
826.704
829.986
833.13
836.134
838.995
841.712
844.284
846.707
848.981
851.104
853.074
854.89
856.55
858.054
859.401
860.59
861.62
862.492
863.204
863.757
864.15
864.367
864.432
864.352
864.11
863.709
863.152
862.441
861.577
860.563
859.401
858.098
856.656
855.081
853.376
851.542
849.584
847.507
845.313
843.005
840.589
838.067
835.444
832.726
829.918
827.028
824.058
821.013
817.896
814.713
811.469
808.169
804.817
801.419
797.979
794.503
790.997
787.463
783.905
780.326
776.73
773.124
769.514
765.907
762.315
758.749
755.224
751.76
748.385
745.138
742.054
739.276
736.874
735.012
11463.3
3407.47
1283.4
662.976
448.788
352.188
299.138
266.434
244.412
227.961
214.973
204.242
195.131
187.359
180.951
176.131
173.224
172.385
173.886
177.784
184.942
196.758
214.685
243.231
287.226
346.661
414.905
478.462
535.887
585.721
628.401
664.156
694.836
716.199
723.872
720.49
707.639
693.302
676.851
661.117
645.42
630.542
616.017
602.4
590.006
579.239
570.195
562.79
556.976
552.633
549.673
548.186
547.746
548.258
549.732
552.051
555.102
558.787
563.01
567.686
572.74
578.107
583.73
589.564
595.569
601.716
607.981
614.346
620.791
627.301
633.864
640.47
647.108
653.769
660.454
667.147
673.838
680.518
687.178
693.809
700.402
706.951
713.448
719.884
726.249
732.533
738.744
744.876
750.924
756.884
762.749
768.519
774.189
779.756
785.215
790.56
795.786
800.886
805.857
810.694
815.394
819.953
824.369
828.64
832.762
836.734
840.552
844.214
847.716
851.058
854.236
857.249
860.094
862.772
865.278
867.612
869.771
871.755
873.561
875.189
876.637
877.906
878.994
879.903
880.63
881.176
881.537
881.699
881.702
881.526
881.169
880.634
879.924
879.04
877.985
876.762
875.374
873.827
872.125
870.272
868.273
866.131
863.851
861.437
858.894
856.225
853.436
850.531
847.516
844.394
841.174
837.863
834.465
830.985
827.428
823.799
820.106
816.354
812.547
808.692
804.793
800.856
796.888
792.892
788.871
784.83
780.774
776.71
772.643
768.582
764.538
760.52
756.543
752.623
748.784
745.062
741.494
738.174
735.113
732.221
11463.3
2978.52
1034.48
565.486
402.571
328.101
288.203
263
245.457
232.531
222.142
213.368
205.939
199.956
195.778
194.062
194.962
199.376
207.323
219.316
237.347
263.44
299.21
343.397
391.517
440.326
486.568
528.23
565.556
597.64
625.904
649.514
660.424
661.805
654.769
644.435
631.615
619.044
606.727
595.128
583.863
573.013
562.578
552.932
544.371
537.102
531.172
526.551
523.2
521.195
520.406
520.464
521.583
523.61
526.478
530.103
534.399
539.285
544.685
550.527
556.75
563.293
570.101
577.13
584.34
591.701
599.19
606.802
614.494
622.248
630.05
637.883
645.727
653.559
661.337
669.097
676.847
684.58
692.284
699.947
707.561
715.118
722.61
730.031
737.376
744.642
751.809
758.866
765.804
772.619
779.309
785.87
792.3
798.595
804.75
810.76
816.621
822.331
827.886
833.283
838.518
843.589
848.492
853.225
857.787
862.174
866.384
870.414
874.262
877.925
881.4
884.687
887.782
890.686
893.396
895.909
898.225
900.341
902.256
903.968
905.477
906.783
907.885
908.784
909.479
909.97
910.244
910.316
910.194
909.871
909.345
908.622
907.702
906.589
905.285
903.794
902.12
900.269
898.246
896.054
893.7
891.189
888.524
885.712
882.758
879.667
876.444
873.095
869.626
866.041
862.35
858.558
854.672
850.699
846.643
842.513
838.315
834.057
829.742
825.377
820.966
816.517
812.034
807.524
802.989
798.436
793.871
789.299
784.729
780.168
775.625
771.112
766.638
762.22
757.878
753.64
749.535
745.633
741.916
738.077
11463.3
2499.87
894.078
523.559
387.416
323.899
289.136
268.66
255.002
244.931
237.016
230.78
226.348
224.433
225.007
229.358
237.661
249.157
264.17
284.839
311.352
342.724
377.314
413.04
448.171
481.645
512.591
539.964
564.908
587.834
601.795
606.11
604.712
599.292
590.771
581.391
571.894
562.941
554.378
546.134
538.054
530.212
522.78
516.048
510.242
505.497
501.863
499.346
498.098
497.796
498.475
500.109
502.675
506.102
510.327
515.275
520.875
527.056
533.752
540.903
548.468
556.387
564.589
573.03
581.665
590.449
599.322
608.212
617.185
626.234
635.341
644.485
653.642
662.792
671.937
681.051
690.121
699.143
708.094
716.964
725.747
734.437
743.029
751.513
759.881
768.12
776.22
784.175
791.977
799.624
807.111
814.437
821.601
828.598
835.424
842.075
848.547
854.84
860.95
866.874
872.607
878.147
883.492
888.64
893.589
898.337
902.882
907.222
911.353
915.273
918.98
922.473
925.75
928.809
931.651
934.272
936.67
938.844
940.792
942.513
944.007
945.273
946.311
947.123
947.708
948.061
948.181
948.079
947.754
947.206
946.435
945.445
944.239
942.82
941.19
939.355
937.32
935.089
932.669
930.065
927.283
924.329
921.208
917.927
914.491
910.908
907.184
903.324
899.335
895.223
890.996
886.661
882.226
877.698
873.086
868.397
863.639
858.82
853.943
849.016
844.042
839.028
833.981
828.907
823.809
818.695
813.573
808.45
803.332
798.226
793.142
788.09
783.078
778.122
773.239
768.453
763.783
759.289
754.939
750.24
11463.3
2082.78
787.235
487.116
376.741
324.314
296.742
280.48
270.001
262.831
257.907
255.386
254.932
257.423
263.399
272.952
285.529
300.871
319.786
341.946
366.487
392.359
418.57
444.291
468.807
491.35
512.512
532.714
547.737
554.549
556.203
555.544
551.557
545.918
539.478
533.023
526.76
520.745
514.85
509.021
503.271
497.737
492.626
488.166
484.535
481.837
480.257
479.697
480.044
481.396
483.699
486.92
491.031
495.999
501.798
508.31
515.471
523.216
531.476
540.165
549.158
558.435
568.032
577.921
588.062
598.416
608.954
619.669
630.483
641.351
652.24
663.136
673.983
684.743
695.4
705.93
716.316
726.552
736.655
746.634
756.49
766.223
775.829
785.302
794.628
803.792
812.781
821.583
830.195
838.609
846.828
854.849
862.671
870.289
877.701
884.902
891.893
898.67
905.233
911.577
917.7
923.599
929.272
934.717
939.935
944.924
949.683
954.209
958.5
962.554
966.369
969.944
973.277
976.369
979.219
981.824
984.183
986.293
988.153
989.764
991.123
992.231
993.089
993.699
994.056
994.165
994.021
993.631
992.996
992.117
990.996
989.638
988.044
986.219
984.166
981.891
979.399
976.697
973.789
970.684
967.386
963.904
960.243
956.411
952.414
948.261
943.958
939.512
934.931
930.222
925.392
920.447
915.398
910.254
905.025
899.72
894.346
888.911
883.42
877.878
872.29
866.663
861.001
855.313
849.605
843.886
838.164
832.446
826.738
821.047
815.382
809.75
804.162
798.63
793.172
787.806
782.548
777.446
772.475
766.981
11463.3
1945.25
766.971
483.924
379.715
333.13
309.337
296.024
288.146
283.764
282.038
282.142
285.058
290.828
299.417
310.551
323.912
339.527
356.979
375.676
395.014
414.323
433.061
450.965
468.333
485.217
499.158
507.607
511.635
513.081
513.097
511.244
508.116
504.412
500.489
496.554
492.634
488.716
484.779
480.865
477.08
473.589
470.58
468.234
466.804
466.293
466.695
468.223
470.695
474.092
478.391
483.559
489.541
496.228
503.488
511.47
520.161
529.509
539.453
549.936
560.934
572.39
584.226
596.391
608.84
621.518
634.374
647.376
660.432
673.442
686.336
699.04
711.53
723.785
735.79
747.533
759.018
770.264
781.308
792.184
802.905
813.48
823.917
834.204
844.322
854.245
863.947
873.419
882.658
891.66
900.424
908.951
917.24
925.286
933.087
940.639
947.944
955.001
961.81
968.367
974.671
980.719
986.51
992.043
997.32
1002.34
1007.11
1011.61
1015.86
1019.85
1023.57
1027.03
1030.22
1033.15
1035.82
1038.22
1040.36
1042.23
1043.82
1045.15
1046.21
1046.99
1047.5
1047.75
1047.72
1047.44
1046.87
1046.05
1044.96
1043.61
1042.01
1040.15
1038.04
1035.68
1033.09
1030.25
1027.19
1023.9
1020.4
1016.69
1012.77
1008.66
1004.37
999.89
995.242
990.431
985.464
980.351
975.1
969.718
964.212
958.589
952.858
947.034
941.129
935.15
929.105
923
916.841
910.633
904.382
898.092
891.768
885.42
879.058
872.692
866.33
859.978
853.642
847.328
841.043
834.795
828.594
822.454
816.39
810.418
804.55
798.825
793.239
786.995
11463.3
1886.95
749.909
482.853
387.518
345.084
324.184
313.05
307.114
304.521
304.026
306.043
310.663
317.563
326.45
336.994
348.932
361.989
375.793
389.938
404.002
417.899
431.788
445.322
456.903
465.008
470.669
474.512
476.524
477.324
477.442
476.677
475.335
473.695
471.882
469.964
467.971
465.95
463.979
462.202
460.854
460.07
459.836
460.294
461.593
463.708
466.564
469.956
474.232
479.48
485.707
492.887
500.988
509.991
519.916
530.673
542.232
554.516
567.448
580.963
595.007
609.502
624.357
639.505
654.914
670.49
686.09
701.58
716.872
731.903
746.598
760.891
774.738
788.118
801.023
813.457
825.445
837.056
848.395
859.576
870.603
881.498
892.292
902.963
913.466
923.756
933.772
943.518
952.998
962.206
971.139
979.799
988.182
996.285
1004.1
1011.64
1018.9
1025.87
1032.57
1038.98
1045.12
1050.97
1056.53
1061.82
1066.82
1071.55
1076
1080.17
1084.06
1087.67
1091
1094.06
1096.83
1099.32
1101.53
1103.47
1105.12
1106.49
1107.58
1108.38
1108.91
1109.13
1109.08
1108.76
1108.14
1107.25
1106.08
1104.64
1102.92
1100.92
1098.67
1096.14
1093.36
1090.32
1087.03
1083.49
1079.72
1075.72
1071.5
1067.06
1062.41
1057.56
1052.52
1047.29
1041.89
1036.33
1030.6
1024.74
1018.73
1012.59
1006.34
999.963
993.484
986.921
980.281
973.572
966.801
959.973
953.094
946.17
939.206
932.209
925.176
918.127
911.073
904.023
896.985
889.965
882.966
875.996
869.059
862.162
855.318
848.542
841.846
835.247
828.75
822.388
816.189
809.233
11463.3
1849.24
743.857
488.425
398.424
358.623
339.057
328.728
323.457
321.345
321.123
323.604
328.314
334.757
342.514
351.245
360.745
370.779
381.108
391.566
402.305
412.625
421.47
428.763
434.738
439.885
443.929
447.103
449.577
451.572
453.245
454.677
455.876
456.853
457.666
458.378
459.049
459.746
460.529
461.424
462.317
463.624
465.676
468.729
472.843
477.94
484.027
491.224
499.473
508.792
519.192
530.631
543.058
556.434
570.735
585.892
601.964
618.723
636.027
653.77
671.852
690.17
708.617
727.079
745.411
763.521
781.343
798.777
815.711
832.04
847.65
862.49
876.537
889.814
902.353
914.163
925.259
935.815
946.082
956.442
966.709
976.926
987.213
997.479
1007.62
1017.57
1027.28
1036.74
1045.91
1054.78
1063.34
1071.6
1079.55
1087.19
1094.5
1101.5
1108.19
1114.57
1120.65
1126.42
1131.89
1137.06
1141.92
1146.47
1150.73
1154.7
1158.38
1161.77
1164.87
1167.68
1170.21
1172.45
1174.39
1176.05
1177.43
1178.53
1179.36
1179.88
1180.11
1180.06
1179.74
1179.1
1178.18
1176.99
1175.51
1173.74
1171.7
1169.38
1166.79
1163.92
1160.77
1157.36
1153.69
1149.76
1145.58
1141.16
1136.5
1131.61
1126.49
1121.16
1115.62
1109.88
1103.95
1097.83
1091.54
1085.09
1078.49
1071.74
1064.86
1057.86
1050.74
1043.54
1036.26
1028.9
1021.47
1013.98
1006.43
998.826
991.177
983.488
975.767
968.019
960.239
952.455
944.678
936.916
929.173
921.454
913.764
906.11
898.492
890.92
883.41
875.976
868.63
861.386
854.249
847.239
840.429
832.797
11463.3
1827.63
742.867
496.451
408.328
369.576
350.753
340.416
334.943
332.669
332.301
334.357
338.324
343.644
349.909
356.861
364.392
372.379
380.59
388.539
396.095
403.227
410.152
416.607
422.681
428.452
433.884
439.02
443.839
448.311
452.366
455.815
458.906
461.903
464.899
467.979
471.228
474.743
478.623
482.998
488.112
494.117
501.232
509.735
519.488
530.313
542.246
555.34
569.541
584.846
601.365
618.937
637.37
656.526
676.28
696.487
716.925
737.579
758.367
779.19
799.949
820.549
840.901
860.919
880.518
899.625
918.177
936.1
953.308
969.693
985.062
999.438
1012.86
1025.44
1037.23
1048.29
1058.66
1068.36
1077.52
1086.32
1094.84
1103.35
1112.38
1121.52
1130.56
1139.4
1148.02
1156.38
1164.42
1172.13
1179.51
1186.56
1193.28
1199.65
1205.68
1211.37
1216.73
1221.78
1226.51
1230.94
1235.05
1238.85
1242.34
1245.52
1248.41
1251.01
1253.33
1255.36
1257.11
1258.6
1259.8
1260.72
1261.36
1261.73
1261.82
1261.67
1261.25
1260.53
1259.54
1258.27
1256.74
1254.92
1252.83
1250.47
1247.84
1244.94
1241.77
1238.34
1234.64
1230.68
1226.45
1221.97
1217.24
1212.26
1207.04
1201.58
1195.9
1189.99
1183.87
1177.54
1171.01
1164.29
1157.39
1150.31
1143.06
1135.66
1128.12
1120.44
1112.64
1104.72
1096.7
1088.6
1080.44
1072.21
1063.92
1055.56
1047.16
1038.7
1030.2
1021.68
1013.13
1004.56
996.014
987.48
978.963
970.467
961.996
953.555
945.149
936.787
928.468
920.204
912.015
903.913
895.909
888.013
880.23
872.571
865.154
856.885
11463.3
1811.81
744.238
501.677
414.87
377.088
358.485
347.969
342.331
339.905
339.422
341.18
344.772
349.697
355.55
362.101
369.173
376.589
384.285
392.323
400.336
408.208
416.066
423.856
431.634
439.438
447.275
455.177
463.048
470.837
478.613
486.507
494.586
502.918
511.591
520.709
530.376
540.706
551.809
563.808
576.846
590.947
606.102
622.143
639.053
656.938
675.836
695.781
716.677
738.331
760.492
783.254
806.437
829.793
853.132
876.301
899.141
921.57
943.487
964.825
985.521
1005.55
1024.89
1043.54
1061.46
1078.66
1095.13
1110.86
1125.84
1140.06
1153.52
1166.17
1177.93
1189
1199.48
1209.4
1218.8
1227.52
1235.57
1242.8
1249.68
1256.77
1264.02
1271.13
1277.98
1284.52
1290.75
1296.65
1302.23
1307.48
1312.41
1317.03
1321.33
1325.3
1328.94
1332.26
1335.3
1338.07
1340.58
1342.8
1344.75
1346.42
1347.82
1348.96
1349.84
1350.49
1350.89
1351.04
1350.95
1350.68
1350.14
1349.35
1348.33
1347.08
1345.59
1343.89
1341.95
1339.77
1337.35
1334.68
1331.78
1328.63
1325.23
1321.6
1317.73
1313.63
1309.28
1304.69
1299.87
1294.8
1289.5
1283.96
1278.2
1272.21
1266.01
1259.59
1252.97
1246.14
1239.12
1231.9
1224.5
1216.92
1209.17
1201.26
1193.2
1184.99
1176.65
1168.19
1159.6
1150.91
1142.11
1133.22
1124.25
1115.21
1106.09
1096.92
1087.7
1078.43
1069.12
1059.78
1050.43
1041.06
1031.73
1022.42
1013.13
1003.86
994.627
985.424
976.266
967.159
958.123
949.172
940.311
931.548
922.888
914.345
905.923
897.626
889.611
880.756
11463.3
1796.87
745.06
504.247
418.35
382.634
364.656
354.838
350.585
349.115
349.661
352.694
357.435
363.458
370.779
379.531
388.905
398.726
409.503
421.376
433.896
446.699
460.142
474.239
488.986
504.35
520.315
536.837
553.914
571.575
589.84
608.75
628.241
648.297
668.941
690.252
712.323
735.329
759.262
784.048
809.565
835.68
862.225
888.994
915.914
942.983
970.248
998.045
1026.1
1053.7
1080.45
1105.93
1130.15
1153.11
1174.81
1195.2
1214.28
1231.99
1248.41
1263.59
1277.62
1290.57
1302.56
1313.67
1323.95
1333.47
1342.29
1350.47
1358.06
1365.16
1371.98
1378.61
1385.04
1391.23
1397.06
1402.51
1407.5
1411.88
1416
1420.11
1424.54
1428.98
1432.73
1435.92
1438.68
1441.11
1443.26
1445.15
1446.8
1448.22
1449.4
1450.34
1451.05
1451.52
1451.75
1451.75
1451.63
1451.33
1450.84
1450.16
1449.29
1448.24
1447
1445.6
1444.03
1442.31
1440.43
1438.38
1436.17
1433.81
1431.28
1428.58
1425.71
1422.69
1419.49
1416.13
1412.59
1408.87