/*--------------------------------*- C++ -*----------------------------------*\
  =========                 |
  \\      /  F ield         | OpenFOAM: The Open Source CFD Toolbox
   \\    /   O peration     | Website:  https://openfoam.org
    \\  /    A nd           | Version:  8
     \\/     M anipulation  |
\*---------------------------------------------------------------------------*/
FoamFile
{
    version     2.0;
    format      ascii;
    class       volScalarField;
    location    "1800";
    object      p;
}
// * * * * * * * * * * * * * * * * * * * * * * * * * * * * * * * * * * * * * //

dimensions      [0 2 -2 0 0 0 0];

internalField   nonuniform List<scalar> 
12225
(
-4.17583
-5.08655
-5.48602
-5.61926
-5.75431
-5.90263
-6.02623
-6.12164
-6.20308
-6.27569
-6.34113
-6.40769
-6.47826
-6.55291
-6.63144
-6.71386
-6.8086
-6.90998
-4.46278
-5.11371
-5.45176
-5.58101
-5.71379
-5.86451
-5.98791
-6.08087
-6.16636
-6.2441
-6.31051
-6.37875
-6.45378
-6.52985
-6.60901
-6.69399
-6.77976
-6.85201
-4.68571
-5.1169
-5.43685
-5.59013
-5.72618
-5.87113
-5.99109
-6.08379
-6.16736
-6.24328
-6.31157
-6.38066
-6.45386
-6.52741
-6.60268
-6.68008
-6.75407
-6.81377
-4.84217
-5.1484
-5.44773
-5.608
-5.73542
-5.86782
-5.98283
-6.07537
-6.15748
-6.23273
-6.30224
-6.37112
-6.44203
-6.51354
-6.58585
-6.65792
-6.72564
-6.78152
-4.97024
-5.19811
-5.46427
-5.62279
-5.7438
-5.8677
-5.97959
-6.07211
-6.15329
-6.22815
-6.2984
-6.36701
-6.43627
-6.50574
-6.57471
-6.64164
-6.70363
-6.75529
-5.08255
-5.25311
-5.48096
-5.63552
-5.75325
-5.87026
-5.97818
-6.06958
-6.14984
-6.22415
-6.29441
-6.36242
-6.42989
-6.4967
-6.56192
-6.62406
-6.68096
-6.72883
-5.18631
-5.31184
-5.50212
-5.64931
-5.76339
-5.87344
-5.97653
-6.06623
-6.14566
-6.21938
-6.28919
-6.35634
-6.42193
-6.486
-6.54767
-6.60569
-6.65843
-6.70365
-5.26784
-5.36387
-5.52518
-5.66297
-5.77286
-5.8771
-5.9758
-6.06359
-6.14208
-6.21498
-6.28398
-6.35
-6.41382
-6.47548
-6.53428
-6.5892
-6.63908
-6.68231
-5.33461
-5.41059
-5.5483
-5.67634
-5.782
-5.88118
-5.97581
-6.06154
-6.13894
-6.21085
-6.27886
-6.34368
-6.40586
-6.4654
-6.52178
-6.5742
-6.62185
-6.66359
-5.40131
-5.46092
-5.57594
-5.69252
-5.79292
-5.88669
-5.97667
-6.05973
-6.13556
-6.2061
-6.27276
-6.3361
-6.39646
-6.45381
-6.50775
-6.55781
-6.60337
-6.64363
-5.4669
-5.51336
-5.60777
-5.71166
-5.80566
-5.89367
-5.97855
-6.05829
-6.13199
-6.20078
-6.26573
-6.32732
-6.38571
-6.44078
-6.49242
-6.54015
-6.58377
-6.62259
-5.53023
-5.56643
-5.64298
-5.73366
-5.82018
-5.90211
-5.98157
-6.05737
-6.1284
-6.195
-6.25792
-6.31749
-6.37373
-6.42657
-6.47588
-6.52151
-6.56322
-6.60077
-5.59004
-5.6184
-5.6801
-5.75791
-5.83618
-5.91178
-5.98565
-6.05707
-6.12487
-6.1889
-6.24945
-6.30678
-6.36072
-6.41134
-6.45842
-6.50206
-6.54204
-6.57832
-5.6448
-5.66725
-5.71709
-5.78318
-5.85298
-5.92215
-5.99045
-6.05724
-6.12146
-6.18252
-6.24051
-6.29532
-6.34701
-6.39532
-6.44044
-6.48213
-6.52066
-6.55568
-5.69251
-5.7106
-5.75136
-5.8075
-5.86933
-5.93227
-5.99525
-6.05748
-6.11794
-6.17592
-6.23113
-6.28348
-6.3328
-6.37907
-6.42223
-6.46233
-6.49939
-6.53347
-5.73043
-5.74546
-5.77968
-5.82809
-5.88317
-5.94061
-5.99885
-6.05695
-6.11388
-6.16886
-6.22143
-6.2714
-6.31859
-6.36296
-6.40443
-6.4431
-6.47894
-6.51212
-5.75468
-5.76777
-5.79785
-5.84115
-5.89143
-5.94476
-5.99941
-6.0543
-6.10842
-6.16092
-6.21131
-6.25931
-6.30473
-6.34754
-6.38764
-6.42513
-6.46002
-6.49247
-5.75894
-5.7714
-5.80014
-5.84171
-5.89016
-5.94182
-5.99483
-6.04829
-6.10096
-6.15224
-6.20135
-6.24828
-6.29259
-6.33449
-6.37369
-6.4105
-6.44475
-6.47679
-5.74268
-5.75586
-5.78614
-5.82943
-5.87929
-5.93182
-5.98557
-6.03941
-6.09246
-6.14371
-6.19287
-6.23949
-6.28368
-6.32516
-6.36418
-6.40058
-6.43469
-6.46642
-5.71111
-5.72617
-5.76052
-5.80846
-5.86213
-5.91757
-5.97362
-6.02948
-6.08399
-6.1364
-6.18623
-6.23344
-6.27785
-6.31958
-6.35856
-6.39505
-6.42903
-6.46083
-5.66742
-5.68579
-5.72692
-5.78216
-5.84142
-5.90101
-5.96063
-6.01949
-6.07638
-6.13049
-6.18159
-6.22969
-6.27474
-6.31685
-6.35609
-6.39268
-6.42675
-6.45854
-5.6136
-5.6371
-5.68833
-5.75328
-5.81919
-5.88369
-5.9477
-6.01032
-6.07005
-6.12622
-6.17889
-6.22808
-6.27395
-6.3165
-6.35608
-6.39276
-6.42695
-6.45872
-5.55051
-5.58202
-5.64748
-5.72411
-5.79692
-5.86673
-5.93577
-6.00254
-6.06528
-6.12366
-6.17798
-6.22842
-6.27507
-6.31817
-6.35795
-6.39481
-6.42892
-6.46074
-5.47838
-5.52235
-5.60715
-5.6963
-5.77541
-5.85082
-5.92547
-5.99655
-6.06222
-6.12274
-6.17871
-6.23033
-6.27775
-6.32127
-6.36127
-6.39813
-6.43224
-6.46393
-5.3967
-5.45998
-5.57029
-5.67134
-5.7551
-5.8362
-5.91684
-5.99221
-6.06067
-6.12327
-6.18082
-6.23351
-6.28154
-6.3253
-6.3653
-6.40202
-6.4359
-6.46741
-5.30498
-5.39663
-5.53836
-5.64976
-5.7367
-5.82318
-5.90934
-5.98843
-6.05941
-6.12404
-6.1832
-6.23704
-6.28575
-6.32983
-6.36987
-6.40646
-6.44014
-6.47158
-5.2025
-5.3363
-5.50882
-5.62682
-5.71809
-5.8115
-5.90302
-5.98518
-6.05817
-6.12446
-6.18489
-6.23954
-6.28869
-6.33284
-6.37272
-6.40904
-6.44243
-6.47367
-5.07989
-5.29153
-5.48528
-5.59799
-5.69391
-5.79785
-5.89725
-5.98423
-6.06086
-6.1301
-6.19273
-6.24883
-6.29875
-6.34315
-6.38274
-6.41849
-6.4515
-6.48319
-4.8975
-5.26883
-5.49404
-5.58993
-5.68118
-5.78926
-5.89178
-5.98016
-6.05807
-6.12879
-6.19286
-6.25011
-6.30083
-6.34558
-6.38496
-6.41957
-6.45067
-6.47959
-4.63899
-5.19472
-5.48445
-5.59045
-5.68935
-5.80587
-5.91389
-6.00494
-6.08412
-6.15555
-6.22
-6.27739
-6.32796
-6.37225
-6.41066
-6.44285
-6.46952
-6.49109
-7.44419
-7.4443
-7.44434
-7.44433
-7.44403
-7.44284
-7.44032
-7.43697
-7.43377
-7.43171
-7.43181
-7.43426
-7.43855
-7.44394
-7.44963
-7.45494
-7.45933
-7.46238
-7.46405
-7.46469
-7.46458
-7.46392
-7.46295
-7.46195
-7.46115
-7.46065
-7.46041
-7.46027
-7.46005
-7.45967
-7.45912
-7.45843
-7.45752
-7.45633
-7.45491
-7.45353
-7.45282
-7.45346
-7.45553
-7.45837
-7.46107
-7.46315
-7.4648
-7.46647
-7.46859
-7.47167
-7.47538
-7.47862
-7.48096
-7.48426
-7.49219
-7.50888
-7.53471
-7.56864
-7.61048
-7.66076
-7.71939
-7.78509
-7.85579
-7.92957
-8.00414
-8.07737
-8.14832
-8.21608
-8.27954
-8.33836
-8.39234
-8.44145
-8.48568
-8.52515
-8.55989
-8.59003
-8.61559
-8.63663
-8.65317
-8.66521
-8.67275
-8.67576
-8.67421
-8.66805
-8.65724
-8.64171
-8.62144
-8.59634
-8.56642
-8.5316
-8.49189
-8.44722
-8.39756
-8.34283
-8.28292
-8.21778
-8.1474
-8.07176
-7.99086
-7.9047
-7.81331
-7.71677
-7.6152
-7.50854
-7.39634
-7.27843
-7.15505
-7.02625
-6.89204
-6.75246
-6.6075
-6.45718
-6.30152
-6.14055
-5.97431
-5.80285
-5.6262
-5.44446
-5.25767
-5.06593
-4.86934
-4.66799
-4.46202
-4.25154
-4.03671
-3.81766
-3.59458
-3.36762
-3.13698
-2.90285
-2.66542
-2.42493
-2.18161
-1.93569
-1.6874
-1.43696
-1.18463
-0.930665
-0.675377
-0.419091
-0.162038
0.0958822
0.35455
0.613549
0.872586
1.13141
1.38979
1.64753
1.90443
2.16031
2.41502
2.66839
2.92027
3.1705
3.41893
3.66542
3.90985
4.15209
4.39203
4.62956
4.8646
5.09708
5.32692
5.55407
5.77849
6.0001
6.21887
6.43472
6.64759
6.85741
7.06412
7.26764
7.46792
7.66486
7.85839
8.04842
8.23484
8.41754
8.59641
8.77138
8.94265
9.11011
9.27678
9.43373
-7.4454
-7.44558
-7.44595
-7.44633
-7.44632
-7.44551
-7.44358
-7.44111
-7.43934
-7.4392
-7.44102
-7.44463
-7.44952
-7.45504
-7.46057
-7.46561
-7.46978
-7.47289
-7.47473
-7.47511
-7.47413
-7.47211
-7.46949
-7.46674
-7.4643
-7.46242
-7.46115
-7.4603
-7.45962
-7.45898
-7.45837
-7.45778
-7.45713
-7.45633
-7.45534
-7.45455
-7.45471
-7.45629
-7.45907
-7.4621
-7.46421
-7.46504
-7.46503
-7.46424
-7.46283
-7.46237
-7.46528
-7.4719
-7.47849
-7.48509
-7.49522
-7.51039
-7.53229
-7.56415
-7.60804
-7.66342
-7.72793
-7.79879
-7.87346
-7.94931
-8.02416
-8.0972
-8.16693
-8.23203
-8.29255
-8.34844
-8.39967
-8.44632
-8.48844
-8.52612
-8.55942
-8.58839
-8.61305
-8.63342
-8.64947
-8.6612
-8.66855
-8.67148
-8.66995
-8.66389
-8.65325
-8.63797
-8.61798
-8.59322
-8.56366
-8.52925
-8.48998
-8.44579
-8.39666
-8.3425
-8.28321
-8.21875
-8.14909
-8.07423
-7.99413
-7.90879
-7.81816
-7.72221
-7.62083
-7.51393
-7.40178
-7.2845
-7.1619
-7.03395
-6.90063
-6.76193
-6.61787
-6.46846
-6.31371
-6.15366
-5.98833
-5.81778
-5.64204
-5.46119
-5.2753
-5.08445
-4.88873
-4.68824
-4.48311
-4.27346
-4.05942
-3.84116
-3.61883
-3.3926
-3.16266
-2.92919
-2.6924
-2.45251
-2.20974
-1.96433
-1.7165
-1.46648
-1.2145
-0.960778
-0.705556
-0.449036
-0.191473
0.0666898
0.325231
0.584101
0.843029
1.10178
1.36012
1.61785
1.87477
2.1307
2.38548
2.63894
2.89094
3.1413
3.38988
3.63656
3.88118
4.12363
4.3638
4.60157
4.83686
5.0696
5.2997
5.52712
5.75181
5.97369
6.19274
6.40887
6.62203
6.83214
7.03915
7.24299
7.44358
7.64085
7.83473
8.02513
8.21198
8.39521
8.57473
8.75047
8.92262
9.0905
9.2592
9.41545
-7.4467
-7.44669
-7.44673
-7.44681
-7.44689
-7.44692
-7.44713
-7.44803
-7.45012
-7.45352
-7.45805
-7.46334
-7.46898
-7.47452
-7.47959
-7.48389
-7.48722
-7.48946
-7.49053
-7.49038
-7.48903
-7.48661
-7.48331
-7.47931
-7.47489
-7.4703
-7.46586
-7.46184
-7.45843
-7.45572
-7.45367
-7.45204
-7.45056
-7.44928
-7.44866
-7.44938
-7.45198
-7.45618
-7.4606
-7.46339
-7.46322
-7.46098
-7.4588
-7.45823
-7.45884
-7.46045
-7.46556
-7.47557
-7.48971
-7.50845
-7.53272
-7.56279
-7.59917
-7.64241
-7.69259
-7.74889
-7.80983
-7.87376
-7.93916
-8.00468
-8.06923
-8.1322
-8.19282
-8.25037
-8.30457
-8.35523
-8.40221
-8.44543
-8.48483
-8.52039
-8.55204
-8.57977
-8.60351
-8.62323
-8.63885
-8.65031
-8.65755
-8.6605
-8.65908
-8.65323
-8.64287
-8.62793
-8.60835
-8.58406
-8.555
-8.52114
-8.48243
-8.43885
-8.39035
-8.33686
-8.27828
-8.21457
-8.1457
-8.07166
-7.99243
-7.90801
-7.81838
-7.7235
-7.62327
-7.51762
-7.40663
-7.29038
-7.16885
-7.04198
-6.90977
-6.7722
-6.62929
-6.48103
-6.32745
-6.16857
-6.00442
-5.83504
-5.66049
-5.48082
-5.2961
-5.10641
-4.91184
-4.71249
-4.50848
-4.29992
-4.08697
-3.86975
-3.64844
-3.42319
-3.1942
-2.96165
-2.72575
-2.48669
-2.24472
-2.00006
-1.75293
-1.50357
-1.25219
-0.999052
-0.744394
-0.488432
-0.2314
0.0263413
0.284562
0.543127
0.801783
1.0603
1.31844
1.57602
1.83282
2.08867
2.3434
2.59685
2.84884
3.09923
3.34787
3.59461
3.83933
4.0819
4.3222
4.56012
4.79558
5.02847
5.25875
5.48634
5.71119
5.93324
6.15243
6.36872
6.58202
6.79228
6.99943
7.20339
7.4041
7.60149
7.79548
7.986
8.17294
8.35622
8.53585
8.71179
8.88457
9.05295
9.22439
9.37658
-7.44783
-7.44755
-7.44718
-7.44719
-7.44837
-7.4511
-7.4552
-7.4603
-7.46606
-7.47217
-7.47833
-7.48429
-7.48983
-7.49476
-7.4989
-7.50214
-7.50435
-7.50548
-7.50551
-7.5044
-7.50216
-7.49888
-7.49463
-7.48951
-7.48361
-7.47707
-7.47008
-7.46293
-7.45598
-7.44962
-7.44411
-7.43964
-7.43648
-7.43511
-7.43625
-7.44015
-7.44571
-7.45094
-7.45433
-7.45551
-7.45507
-7.45457
-7.45559
-7.45892
-7.46504
-7.47467
-7.48868
-7.50779
-7.5321
-7.56125
-7.59479
-7.63246
-7.67406
-7.71941
-7.7683
-7.82039
-7.87511
-7.93169
-7.98928
-8.04705
-8.10426
-8.1603
-8.21462
-8.26675
-8.31631
-8.36307
-8.4068
-8.44736
-8.4846
-8.51843
-8.54874
-8.57543
-8.59841
-8.61758
-8.63283
-8.64409
-8.65124
-8.65421
-8.6529
-8.64723
-8.63712
-8.6225
-8.60328
-8.5794
-8.55079
-8.51741
-8.47922
-8.43618
-8.38826
-8.33536
-8.27742
-8.21437
-8.14621
-8.0729
-7.99442
-7.91077
-7.82191
-7.72782
-7.62844
-7.52375
-7.41377
-7.29853
-7.17799
-7.05215
-6.92097
-6.78446
-6.64262
-6.49545
-6.34296
-6.18518
-6.02215
-5.85388
-5.68044
-5.50188
-5.31827
-5.12968
-4.93619
-4.73792
-4.53496
-4.32744
-4.1155
-3.89927
-3.67892
-3.45461
-3.22653
-2.99484
-2.75977
-2.52151
-2.2803
-2.03635
-1.7899
-1.54115
-1.29036
-1.03777
-0.783626
-0.528168
-0.271635
-0.0143038
0.243602
0.501878
0.760278
1.01857
1.27653
1.53396
1.79065
2.04642
2.3011
2.55452
2.80651
3.05692
3.30559
3.5524
3.79719
4.03986
4.28027
4.51832
4.7539
4.98694
5.21736
5.44509
5.67008
5.89227
6.1116
6.32801
6.54144
6.75181
6.95906
7.16312
7.36391
7.56136
7.75541
7.94599
8.13301
8.31642
8.49622
8.67236
8.84547
9.01378
9.18595
9.33193
-7.45014
-7.44955
-7.44916
-7.45059
-7.45485
-7.4612
-7.46858
-7.47628
-7.48382
-7.49089
-7.49733
-7.50308
-7.50808
-7.51228
-7.51558
-7.51791
-7.51919
-7.51939
-7.51848
-7.51642
-7.51323
-7.50896
-7.50363
-7.49731
-7.49007
-7.48196
-7.47308
-7.46365
-7.454
-7.44463
-7.43617
-7.42942
-7.42533
-7.42487
-7.42794
-7.4327
-7.43747
-7.4415
-7.44466
-7.44737
-7.45041
-7.45493
-7.46192
-7.47237
-7.48711
-7.50643
-7.52994
-7.55707
-7.58756
-7.62106
-7.65732
-7.6963
-7.73798
-7.78228
-7.82903
-7.87792
-7.92851
-7.98026
-8.03261
-8.08498
-8.13687
-8.18781
-8.23736
-8.28518
-8.33095
-8.3744
-8.41532
-8.45351
-8.4888
-8.52103
-8.55006
-8.57575
-8.59795
-8.61653
-8.63137
-8.64233
-8.64931
-8.6522
-8.65089
-8.64528
-8.63529
-8.62084
-8.60184
-8.57822
-8.54991
-8.51686
-8.47903
-8.43639
-8.38889
-8.33644
-8.27898
-8.21645
-8.14884
-8.07611
-7.99827
-7.91527
-7.82709
-7.7337
-7.63507
-7.53118
-7.42202
-7.30761
-7.18792
-7.06292
-6.93261
-6.79698
-6.65603
-6.50976
-6.35818
-6.20133
-6.03921
-5.87188
-5.69936
-5.52172
-5.33901
-5.15133
-4.95873
-4.76134
-4.55924
-4.35257
-4.14145
-3.92602
-3.70644
-3.48288
-3.25551
-3.02452
-2.7901
-2.55248
-2.31186
-2.06847
-1.82253
-1.57427
-1.32393
-1.07176
-0.818005
-0.562903
-0.306704
-0.0496581
0.208002
0.466052
0.724249
0.982366
1.24018
1.49749
1.75409
2.0098
2.26443
2.51783
2.76981
3.02022
3.26892
3.51576
3.76061
4.00334
4.24382
4.48195
4.71763
4.95077
5.18129
5.40914
5.63423
5.85653
6.07597
6.29249
6.50603
6.7165
6.92384
7.128
7.32889
7.52645
7.7206
7.91127
8.09841
8.28194
8.46186
8.63804
8.81109
8.97872
9.15036
9.28959
-7.45443
-7.45352
-7.45405
-7.45858
-7.46611
-7.47467
-7.48334
-7.49165
-7.49929
-7.50618
-7.51232
-7.5177
-7.52226
-7.52592
-7.52863
-7.53032
-7.53092
-7.53042
-7.52879
-7.52602
-7.52211
-7.51709
-7.51098
-7.50377
-7.49548
-7.48619
-7.47604
-7.46523
-7.45415
-7.44345
-7.43398
-7.42698
-7.4235
-7.42335
-7.42509
-7.42756
-7.43067
-7.4348
-7.44024
-7.44695
-7.45521
-7.46622
-7.48098
-7.49963
-7.52192
-7.54745
-7.57596
-7.60705
-7.64047
-7.67605
-7.71364
-7.75317
-7.79455
-7.83769
-7.88241
-7.92849
-7.97561
-8.02343
-8.07157
-8.11966
-8.16733
-8.21425
-8.26007
-8.30448
-8.34722
-8.38801
-8.42664
-8.46289
-8.49656
-8.52745
-8.5554
-8.58021
-8.60172
-8.61976
-8.63419
-8.64486
-8.65163
-8.65437
-8.65297
-8.64733
-8.63736
-8.62295
-8.60404
-8.58054
-8.55238
-8.51952
-8.4819
-8.43949
-8.39225
-8.34009
-8.28294
-8.22076
-8.15354
-8.08124
-8.00386
-7.92135
-7.83369
-7.74086
-7.64281
-7.53953
-7.43101
-7.31724
-7.19819
-7.07386
-6.94423
-6.80929
-6.66904
-6.52348
-6.37262
-6.21649
-6.0551
-5.88849
-5.71669
-5.53977
-5.35778
-5.17079
-4.97888
-4.78216
-4.58072
-4.37469
-4.16418
-3.94935
-3.73035
-3.50734
-3.2805
-3.05
-2.81607
-2.5789
-2.3387
-2.0957
-1.85013
-1.60221
-1.35218
-1.10031
-0.846813
-0.591953
-0.335973
-0.0791189
0.178367
0.436255
0.694305
0.952291
1.20999
1.46721
1.72373
1.97938
2.23397
2.48733
2.73929
2.98968
3.23837
3.48521
3.73007
3.97281
4.21332
4.45147
4.68718
4.92036
5.15092
5.37881
5.60396
5.82632
6.04581
6.26239
6.47598
6.68651
6.89392
7.09814
7.29909
7.49671
7.69093
7.88167
8.06885
8.25242
8.43232
8.60836
8.78109
8.94774
9.11859
9.25127
-7.45976
-7.45931
-7.46209
-7.46939
-7.47828
-7.48712
-7.49554
-7.50341
-7.51065
-7.51724
-7.52312
-7.52821
-7.53245
-7.53575
-7.53806
-7.53931
-7.53947
-7.5385
-7.5364
-7.53315
-7.52879
-7.52331
-7.51664
-7.50874
-7.49972
-7.48977
-7.47911
-7.468
-7.45693
-7.44666
-7.43835
-7.4328
-7.42949
-7.42751
-7.42684
-7.42793
-7.43143
-7.43723
-7.44525
-7.4561
-7.47034
-7.48795
-7.50874
-7.53248
-7.55894
-7.5878
-7.61883
-7.65188
-7.68677
-7.72333
-7.76141
-7.80089
-7.84165
-7.88358
-7.92655
-7.97038
-8.01488
-8.05981
-8.10491
-8.14993
-8.19459
-8.23861
-8.28172
-8.32365
-8.36415
-8.40297
-8.43989
-8.47467
-8.50711
-8.53698
-8.56407
-8.5882
-8.60915
-8.62675
-8.64083
-8.65121
-8.65775
-8.66031
-8.65877
-8.65303
-8.64297
-8.62851
-8.60956
-8.58606
-8.55792
-8.52509
-8.48753
-8.4452
-8.39807
-8.34605
-8.28905
-8.22706
-8.16006
-8.08804
-8.01095
-7.92878
-7.84148
-7.74903
-7.65139
-7.54855
-7.44048
-7.32717
-7.20861
-7.08477
-6.95564
-6.82121
-6.68149
-6.53646
-6.38614
-6.23055
-6.06971
-5.90364
-5.7324
-5.55601
-5.37455
-5.18808
-4.99668
-4.80045
-4.59949
-4.39391
-4.18385
-3.96944
-3.75084
-3.52821
-3.30172
-3.07157
-2.83795
-2.60107
-2.36115
-2.1184
-1.87306
-1.62535
-1.37553
-1.12383
-0.870498
-0.615792
-0.359947
-0.103217
0.154155
0.411932
0.669882
0.927775
1.1854
1.44254
1.699
1.95459
2.20913
2.46244
2.71435
2.96471
3.21336
3.46017
3.70499
3.9477
4.18817
4.4263
4.66198
4.89513
5.12567
5.35354
5.57868
5.80104
6.02054
6.23712
6.45072
6.66126
6.86868
7.07291
7.27388
7.47151
7.66575
7.8565
8.04368
8.2272
8.40699
8.58276
8.75504
8.92062
9.09072
9.21732
-7.46393
-7.46477
-7.47023
-7.47861
-7.48716
-7.49537
-7.50322
-7.51066
-7.51762
-7.52399
-7.52967
-7.53458
-7.53862
-7.54171
-7.5438
-7.54482
-7.54473
-7.54353
-7.54119
-7.53773
-7.53314
-7.52736
-7.52029
-7.51211
-7.50305
-7.49324
-7.48292
-7.47252
-7.4628
-7.45451
-7.44799
-7.44263
-7.43791
-7.43452
-7.43338
-7.43482
-7.43929
-7.4473
-7.45893
-7.47402
-7.49229
-7.51351
-7.53745
-7.56382
-7.5924
-7.62299
-7.65538
-7.68942
-7.72494
-7.76178
-7.79981
-7.83893
-7.87901
-7.91996
-7.96165
-8.00393
-8.04667
-8.08969
-8.1328
-8.17578
-8.21842
-8.2605
-8.30179
-8.34204
-8.38102
-8.41851
-8.45427
-8.48806
-8.51965
-8.54882
-8.57534
-8.59898
-8.61953
-8.6368
-8.65059
-8.66072
-8.66703
-8.66938
-8.66765
-8.66173
-8.65151
-8.6369
-8.61781
-8.59418
-8.56593
-8.53301
-8.49537
-8.45299
-8.40582
-8.35378
-8.29681
-8.23486
-8.16795
-8.09604
-8.01911
-7.93712
-7.85003
-7.75782
-7.66044
-7.55787
-7.45009
-7.33709
-7.21885
-7.09535
-6.96657
-6.83251
-6.69315
-6.54851
-6.39859
-6.24339
-6.08294
-5.91727
-5.74642
-5.57042
-5.38934
-5.20323
-5.01219
-4.8163
-4.61567
-4.41041
-4.20064
-3.98651
-3.76817
-3.54578
-3.31951
-3.08956
-2.85613
-2.61942
-2.37965
-2.13704
-1.89182
-1.64423
-1.39451
-1.1429
-0.889655
-0.635024
-0.379249
-0.122589
0.134717
0.392426
0.650311
0.908143
1.16571
1.42279
1.6792
1.93474
2.18923
2.44248
2.69433
2.94462
3.19321
3.43997
3.68473
3.92736
4.16776
4.4058
4.6414
4.87447
5.10494
5.33275
5.55784
5.78016
5.99962
6.21617
6.42973
6.64023
6.84762
7.05182
7.25276
7.45039
7.64461
7.83534
8.02247
8.20589
8.3855
8.56095
8.7327
8.89723
9.06666
9.18781
-7.46522
-7.46775
-7.47478
-7.48285
-7.49071
-7.49841
-7.50591
-7.51312
-7.51991
-7.52618
-7.53181
-7.53667
-7.54067
-7.54373
-7.54578
-7.54678
-7.54669
-7.54549
-7.54316
-7.5397
-7.53506
-7.52918
-7.52216
-7.51424
-7.50561
-7.49649
-7.48734
-7.47864
-7.4708
-7.46382
-7.45748
-7.45164
-7.44667
-7.44356
-7.4432
-7.44614
-7.45276
-7.46313
-7.47698
-7.49412
-7.51427
-7.53716
-7.56254
-7.59014
-7.61974
-7.65115
-7.68416
-7.71861
-7.75434
-7.79122
-7.82913
-7.86794
-7.90755
-7.94785
-7.98873
-8.03008
-8.07176
-8.11363
-8.15554
-8.1973
-8.23875
-8.27968
-8.31988
-8.35915
-8.39726
-8.43399
-8.46909
-8.50232
-8.53346
-8.56223
-8.58842
-8.61178
-8.63209
-8.64913
-8.66269
-8.6726
-8.67868
-8.6808
-8.67883
-8.67266
-8.6622
-8.64735
-8.62803
-8.60416
-8.57568
-8.54253
-8.50469
-8.46213
-8.41481
-8.36264
-8.30555
-8.24353
-8.17658
-8.10466
-8.02776
-7.94582
-7.85881
-7.76669
-7.66942
-7.56699
-7.45937
-7.34655
-7.2285
-7.1052
-6.97665
-6.84282
-6.70372
-6.55934
-6.40968
-6.25476
-6.09459
-5.9292
-5.75861
-5.58288
-5.40205
-5.2162
-5.0254
-4.82974
-4.62931
-4.42425
-4.21466
-4.00069
-3.78249
-3.56023
-3.33407
-3.10422
-2.87087
-2.63423
-2.39453
-2.15197
-1.90679
-1.65923
-1.40955
-1.15797
-0.90474
-0.650126
-0.394378
-0.137745
0.119523
0.377196
0.635036
0.892824
1.15034
1.40738
1.66373
1.91922
2.17363
2.42681
2.67858
2.92878
3.17729
3.42396
3.66863
3.91116
4.15143
4.38935
4.62483
4.85779
5.08815
5.31586
5.54086
5.7631
5.9825
6.19897
6.41246
6.62289
6.83021
7.03436
7.23526
7.43284
7.62703
7.81771
8.00477
8.18806
8.36746
8.54254
8.71375
8.87726
9.04606
9.16248
-7.46209
-7.46602
-7.47321
-7.48073
-7.48826
-7.49577
-7.50316
-7.51033
-7.51716
-7.52352
-7.52928
-7.5343
-7.53849
-7.54174
-7.54399
-7.54518
-7.54526
-7.5442
-7.54201
-7.53865
-7.5341
-7.52842
-7.52179
-7.51446
-7.50672
-7.49887
-7.49117
-7.48369
-7.47652
-7.46975
-7.46351
-7.45814
-7.45427
-7.45266
-7.45391
-7.45842
-7.46641
-7.47793
-7.49281
-7.51087
-7.53185
-7.55548
-7.58149
-7.60962
-7.63966
-7.67141
-7.70468
-7.73932
-7.77516
-7.81208
-7.84995
-7.88863
-7.92803
-7.96805
-8.00857
-8.04949
-8.09069
-8.13204
-8.1734
-8.21463
-8.25555
-8.29599
-8.33575
-8.37463
-8.41241
-8.44887
-8.48377
-8.51685
-8.54784
-8.57649
-8.60256
-8.62579
-8.64595
-8.66282
-8.67619
-8.68588
-8.69171
-8.69357
-8.69131
-8.68485
-8.67408
-8.65892
-8.63929
-8.6151
-8.58629
-8.55283
-8.51467
-8.47182
-8.42424
-8.37183
-8.31452
-8.25231
-8.18521
-8.11319
-8.0362
-7.95419
-7.86714
-7.77499
-7.67772
-7.57531
-7.46774
-7.35499
-7.23703
-7.11384
-6.98541
-6.85173
-6.71278
-6.56856
-6.41908
-6.26434
-6.10436
-5.93915
-5.76875
-5.5932
-5.41254
-5.22685
-5.03619
-4.84067
-4.64037
-4.43541
-4.22591
-4.01203
-3.79389
-3.57167
-3.34555
-3.11572
-2.88238
-2.64575
-2.40604
-2.16347
-1.91827
-1.67071
-1.42101
-1.1694
-0.916154
-0.661526
-0.405775
-0.149147
0.108106
0.365757
0.623567
0.881318
1.13879
1.39577
1.65207
1.90748
2.16181
2.41489
2.66656
2.91665
3.16506
3.41163
3.65618
3.89856
4.13868
4.37644
4.61176
4.84456
5.07477
5.30234
5.52722
5.74936
5.96867
6.18504
6.39842
6.60876
6.81599
7.02006
7.22089
7.41842
7.61256
7.80318
7.99013
8.17326
8.35241
8.5271
8.69775
8.8603
9.02852
9.14093
-7.45257
-7.45717
-7.46406
-7.47155
-7.47926
-7.48696
-7.49453
-7.50191
-7.509
-7.51566
-7.52174
-7.52711
-7.53163
-7.53519
-7.53773
-7.53919
-7.53952
-7.5387
-7.53674
-7.53364
-7.52947
-7.52436
-7.5185
-7.5121
-7.5053
-7.49825
-7.49112
-7.48404
-7.47712
-7.47065
-7.46505
-7.46075
-7.45818
-7.4579
-7.46041
-7.46604
-7.47499
-7.48728
-7.50282
-7.52142
-7.54283
-7.56681
-7.59309
-7.62146
-7.65172
-7.68366
-7.71712
-7.75193
-7.78793
-7.82499
-7.86297
-7.90175
-7.94123
-7.9813
-8.02186
-8.0628
-8.104
-8.14535
-8.18672
-8.22797
-8.26893
-8.30942
-8.34925
-8.38821
-8.42609
-8.46265
-8.49766
-8.53085
-8.56195
-8.59069
-8.6168
-8.64003
-8.66014
-8.6769
-8.6901
-8.69955
-8.70512
-8.70666
-8.70406
-8.69724
-8.6861
-8.67056
-8.65054
-8.62595
-8.59673
-8.56284
-8.52428
-8.48104
-8.43309
-8.38036
-8.32274
-8.26026
-8.19292
-8.1207
-8.04353
-7.96138
-7.87419
-7.78194
-7.68458
-7.58211
-7.47451
-7.36175
-7.24381
-7.12067
-6.9923
-6.85869
-6.71983
-6.57572
-6.42636
-6.27174
-6.11189
-5.94681
-5.77654
-5.6011
-5.42056
-5.23497
-5.04441
-4.84897
-4.64874
-4.44384
-4.23439
-4.02052
-3.8024
-3.58018
-3.35404
-3.12419
-2.89083
-2.65416
-2.41441
-2.1718
-1.92656
-1.67896
-1.42921
-1.17756
-0.924281
-0.669634
-0.413872
-0.157253
0.0999893
0.357613
0.615391
0.873096
1.13052
1.38744
1.64367
1.89899
2.15322
2.40618
2.65772
2.90767
3.15596
3.40241
3.6468
3.88901
4.12894
4.3665
4.60162
4.83423
5.06427
5.29167
5.5164
5.73843
5.95763
6.17389
6.38715
6.59737
6.80449
7.00846
7.20922
7.40669
7.60078
7.79133
7.97816
8.16111
8.34
8.51429
8.68439
8.84604
9.01368
9.12282
-7.43508
-7.43967
-7.44673
-7.45499
-7.46341
-7.47158
-7.47952
-7.48725
-7.49475
-7.50188
-7.50847
-7.51431
-7.51925
-7.52322
-7.52614
-7.52797
-7.52868
-7.52827
-7.52675
-7.52417
-7.5206
-7.51615
-7.51095
-7.50513
-7.49884
-7.4922
-7.48535
-7.47851
-7.47198
-7.46611
-7.46122
-7.45773
-7.45614
-7.4569
-7.46043
-7.467
-7.47677
-7.48974
-7.50581
-7.5248
-7.54651
-7.57071
-7.59718
-7.62574
-7.65618
-7.68833
-7.72202
-7.75708
-7.79334
-7.83068
-7.86897
-7.90809
-7.94794
-7.9884
-8.02936
-8.07068
-8.11227
-8.15402
-8.19579
-8.23744
-8.27881
-8.31972
-8.35999
-8.3994
-8.43772
-8.47471
-8.51011
-8.54366
-8.57506
-8.60404
-8.6303
-8.65358
-8.67366
-8.6903
-8.70328
-8.71242
-8.71759
-8.71871
-8.71567
-8.70841
-8.69684
-8.68086
-8.66038
-8.63532
-8.6056
-8.57118
-8.53212
-8.48844
-8.4401
-8.38698
-8.32902
-8.26622
-8.1986
-8.12612
-8.04874
-7.96639
-7.87902
-7.78661
-7.68913
-7.58656
-7.47889
-7.3661
-7.24815
-7.12502
-6.99668
-6.86312
-6.72433
-6.5803
-6.43103
-6.27652
-6.11678
-5.95182
-5.78165
-5.60632
-5.42587
-5.24036
-5.04988
-4.85451
-4.65433
-4.44947
-4.24006
-4.02621
-3.80809
-3.58586
-3.35972
-3.12984
-2.89644
-2.65973
-2.41993
-2.17728
-1.93201
-1.68437
-1.43457
-1.18288
-0.929574
-0.674914
-0.419152
-0.162543
0.0946774
0.352268
0.610003
0.867656
1.12501
1.38186
1.63799
1.8932
2.14731
2.40013
2.65151
2.9013
3.14947
3.3958
3.64003
3.88202
4.12172
4.35905
4.59395
4.82634
5.05617
5.28339
5.50795
5.72987
5.94897
6.16508
6.37819
6.58828
6.79528
6.99916
7.19983
7.39724
7.59128
7.78175
7.96846
8.15122
8.32983
8.50372
8.67329
8.8341
9.00115
9.10774
-7.40921
-7.41364
-7.42162
-7.43128
-7.44071
-7.44945
-7.45782
-7.46607
-7.47426
-7.48216
-7.48948
-7.49595
-7.50145
-7.50591
-7.50932
-7.51165
-7.51288
-7.513
-7.51203
-7.51001
-7.50699
-7.50306
-7.49833
-7.49288
-7.48686
-7.48043
-7.47382
-7.4673
-7.46114
-7.45569
-7.45135
-7.44858
-7.44782
-7.44949
-7.45392
-7.46132
-7.47181
-7.48536
-7.50186
-7.52117
-7.54311
-7.5675
-7.59416
-7.62292
-7.65361
-7.68606
-7.7201
-7.75554
-7.79222
-7.83002
-7.86879
-7.90844
-7.94884
-7.98988
-8.03143
-8.07339
-8.11566
-8.15809
-8.20056
-8.24292
-8.285
-8.32664
-8.36763
-8.40776
-8.44678
-8.48443
-8.52044
-8.5545
-8.58629
-8.61546
-8.64176
-8.66496
-8.68485
-8.70121
-8.7138
-8.72243
-8.72704
-8.72761
-8.72406
-8.71633
-8.70433
-8.68792
-8.667
-8.64146
-8.61115
-8.57608
-8.53645
-8.49235
-8.44364
-8.39017
-8.33186
-8.26872
-8.20083
-8.12811
-8.05052
-7.96798
-7.88043
-7.78785
-7.69024
-7.58757
-7.47985
-7.36703
-7.24909
-7.12599
-6.9977
-6.8642
-6.72549
-6.58157
-6.43242
-6.27805
-6.11844
-5.95362
-5.78358
-5.60837
-5.42803
-5.24263
-5.05224
-4.85696
-4.65687
-4.45209
-4.24274
-4.02895
-3.81087
-3.58868
-3.36256
-3.13269
-2.89929
-2.66257
-2.42275
-2.18008
-1.9348
-1.68713
-1.43732
-1.18563
-0.932336
-0.6777
-0.421982
-0.16542
0.0917351
0.349255
0.606904
0.864465
1.12171
1.37844
1.63443
1.88949
2.14343
2.39606
2.64724
2.89685
3.14494
3.39123
3.63529
3.87704
4.11647
4.35355
4.5882
4.82037
5.04999
5.27701
5.50142
5.72326
5.94228
6.15824
6.3712
6.58114
6.78802
6.9918
7.19239
7.38975
7.58376
7.77415
7.96073
8.14329
8.32163
8.49512
8.66418
8.82423
8.99063
9.09537
-7.37616
-7.3809
-7.3904
-7.40186
-7.41239
-7.42187
-7.431
-7.43997
-7.44886
-7.45767
-7.46605
-7.47351
-7.47969
-7.48462
-7.48852
-7.49138
-7.49317
-7.49385
-7.49341
-7.49188
-7.4893
-7.48573
-7.48125
-7.47599
-7.47012
-7.46384
-7.45736
-7.45098
-7.44505
-7.43996
-7.43613
-7.434
-7.43398
-7.43643
-7.4416
-7.44967
-7.4607
-7.47467
-7.49151
-7.51108
-7.53326
-7.55786
-7.58473
-7.61373
-7.6447
-7.67747
-7.71186
-7.74771
-7.78487
-7.8232
-7.86258
-7.90287
-7.94395
-7.9857
-8.02802
-8.07079
-8.1139
-8.15722
-8.20059
-8.24386
-8.28685
-8.32937
-8.37121
-8.41213
-8.45188
-8.49017
-8.5267
-8.56113
-8.59311
-8.62225
-8.6483
-8.67112
-8.69059
-8.70645
-8.71834
-8.72611
-8.72995
-8.72993
-8.72595
-8.71791
-8.70569
-8.68907
-8.66787
-8.64194
-8.61106
-8.57527
-8.53507
-8.49064
-8.44164
-8.38784
-8.32914
-8.26566
-8.19746
-8.1245
-8.0467
-7.96396
-7.87621
-7.78343
-7.68565
-7.58287
-7.47508
-7.36225
-7.24433
-7.12126
-6.99301
-6.85957
-6.72095
-6.57714
-6.42813
-6.27392
-6.11448
-5.94982
-5.77993
-5.60487
-5.42468
-5.23944
-5.0492
-4.85406
-4.6541
-4.44945
-4.2402
-4.02649
-3.80849
-3.58637
-3.36031
-3.13051
-2.89718
-2.66054
-2.42082
-2.17825
-1.93305
-1.68546
-1.43573
-1.18415
-0.930993
-0.676503
-0.420945
-0.16456
0.0924039
0.349717
0.607146
0.86447
1.12147
1.37792
1.63362
1.88837
2.14197
2.39426
2.64507
2.89431
3.14217
3.38832
3.63211
3.87353
4.11266
4.34946
4.58385
4.81577
5.04516
5.27197
5.49624
5.71813
5.93716
6.15296
6.36575
6.57556
6.78233
6.98602
7.18655
7.38391
7.57793
7.76827
7.9547
8.13707
8.31513
8.48824
8.65682
8.81615
8.98185
9.08539
-7.33893
-7.34457
-7.35612
-7.36978
-7.38148
-7.39125
-7.40079
-7.41081
-7.42098
-7.43093
-7.44036
-7.44883
-7.45579
-7.46123
-7.46557
-7.46894
-7.47125
-7.47242
-7.47242
-7.47125
-7.46894
-7.46556
-7.4612
-7.45599
-7.4501
-7.44376
-7.43725
-7.43092
-7.42515
-7.42034
-7.41692
-7.41529
-7.41581
-7.41878
-7.42441
-7.43286
-7.44417
-7.45834
-7.47532
-7.49501
-7.51729
-7.54201
-7.56904
-7.59824
-7.62946
-7.66251
-7.69723
-7.73348
-7.77112
-7.81
-7.85
-7.89097
-7.93281
-7.97538
-8.01856
-8.06223
-8.10624
-8.15044
-8.19467
-8.23876
-8.28251
-8.32573
-8.36819
-8.40966
-8.44986
-8.4885
-8.52524
-8.55974
-8.59156
-8.62018
-8.64544
-8.66746
-8.68621
-8.70136
-8.71214
-8.71845
-8.7211
-8.7204
-8.71615
-8.70811
-8.69601
-8.67953
-8.65841
-8.63256
-8.60205
-8.56694
-8.52725
-8.4829
-8.43376
-8.37967
-8.32061
-8.25677
-8.18821
-8.11492
-8.03678
-7.95371
-7.86564
-7.77256
-7.67451
-7.57152
-7.46355
-7.35059
-7.23257
-7.10942
-6.98112
-6.84766
-6.70906
-6.56529
-6.41636
-6.26222
-6.1029
-5.93834
-5.76858
-5.59362
-5.41357
-5.22845
-5.03835
-4.84333
-4.6435
-4.43895
-4.2298
-4.01618
-3.79826
-3.57622
-3.35024
-3.12053
-2.88729
-2.65077
-2.41118
-2.16874
-1.92366
-1.67618
-1.42661
-1.17521
-0.922235
-0.667961
-0.412631
-0.156502
0.10019
0.357204
0.614317
0.871301
1.12794
1.384
1.63928
1.89357
2.14668
2.39844
2.64865
2.89719
3.14393
3.38881
3.63172
3.87256
4.1112
4.34754
4.58151
4.81303
5.04204
5.26848
5.49245
5.71423
5.9332
6.14881
6.36142
6.5711
6.77778
6.9814
7.1819
7.37933
7.57348
7.76383
7.95015
8.13233
8.31014
8.48289
8.65101
8.80968
8.97465
9.07763
-7.30116
-7.30803
-7.32208
-7.33769
-7.34972
-7.35994
-7.37058
-7.38175
-7.393
-7.40399
-7.41444
-7.42383
-7.43154
-7.43758
-7.44246
-7.44637
-7.44918
-7.45077
-7.45111
-7.45018
-7.448
-7.44462
-7.44016
-7.43477
-7.42866
-7.42209
-7.41538
-7.40891
-7.40306
-7.39826
-7.3949
-7.39334
-7.39391
-7.3969
-7.40251
-7.41087
-7.42204
-7.43605
-7.45285
-7.47237
-7.49453
-7.51923
-7.54633
-7.5757
-7.60715
-7.6405
-7.6756
-7.7123
-7.75046
-7.78995
-7.8306
-7.87226
-7.91479
-7.95806
-8.00194
-8.04629
-8.09095
-8.13576
-8.18053
-8.2251
-8.26926
-8.31282
-8.35553
-8.39717
-8.43746
-8.47613
-8.51283
-8.54717
-8.57848
-8.60579
-8.62907
-8.64925
-8.66679
-8.68159
-8.69296
-8.70037
-8.70363
-8.70294
-8.69854
-8.69037
-8.67815
-8.66155
-8.64028
-8.61438
-8.58422
-8.54982
-8.51062
-8.46632
-8.41706
-8.36274
-8.30347
-8.23938
-8.17057
-8.09699
-8.01857
-7.93523
-7.84691
-7.75362
-7.65542
-7.5523
-7.44424
-7.33121
-7.21315
-7.09
-6.96172
-6.82833
-6.68983
-6.54619
-6.39739
-6.24342
-6.08426
-5.91989