/*--------------------------------*- C++ -*----------------------------------*\
  =========                 |
  \\      /  F ield         | OpenFOAM: The Open Source CFD Toolbox
   \\    /   O peration     | Website:  https://openfoam.org
    \\  /    A nd           | Version:  8
     \\/     M anipulation  |
\*---------------------------------------------------------------------------*/
FoamFile
{
    version     2.0;
    format      ascii;
    class       surfaceScalarField;
    location    "1800";
    object      phi;
}
// * * * * * * * * * * * * * * * * * * * * * * * * * * * * * * * * * * * * * //

dimensions      [0 3 -1 0 0 0 0];

internalField   nonuniform List<scalar> 
24170
(
2.9965e-06
1.37306e-07
2.84479e-06
1.51716e-07
2.71401e-06
1.30677e-07
2.60119e-06
1.12688e-07
2.50439e-06
9.686e-08
2.42138e-06
8.32552e-08
2.35006e-06
7.15833e-08
2.28918e-06
6.08419e-08
2.24094e-06
4.81985e-08
2.20412e-06
3.67943e-08
2.17241e-06
3.17005e-08
2.1461e-06
2.63451e-08
2.12456e-06
2.15643e-08
2.10388e-06
2.07031e-08
2.08515e-06
1.87312e-08
2.07015e-06
1.49812e-08
2.06015e-06
9.93664e-09
1.383e-09
2.05869e-06
3.51757e-06
7.61434e-08
3.55282e-06
1.16353e-07
3.56893e-06
1.1459e-07
3.56888e-06
1.12876e-07
3.55559e-06
1.10398e-07
3.53281e-06
1.06269e-07
3.50244e-06
1.01945e-07
3.46828e-06
9.47026e-08
3.43144e-06
8.46742e-08
3.3934e-06
7.45237e-08
3.35852e-06
6.63421e-08
3.32615e-06
5.85805e-08
3.29541e-06
5.22049e-08
3.26791e-06
4.81564e-08
3.24435e-06
4.22809e-08
3.22285e-06
3.64781e-08
3.20266e-06
3.01381e-08
2.15623e-08
3.18254e-06
3.83248e-06
5.58126e-08
3.85165e-06
9.72539e-08
3.86687e-06
9.93584e-08
3.88028e-06
9.94051e-08
3.89133e-06
9.93716e-08
3.89937e-06
9.83699e-08
3.90508e-06
9.63051e-08
3.90808e-06
9.16695e-08
3.90772e-06
8.50337e-08
3.90441e-06
7.78323e-08
3.89968e-06
7.10833e-08
3.89346e-06
6.48316e-08
3.88619e-06
5.95072e-08
3.87948e-06
5.48922e-08
3.87281e-06
4.89591e-08
3.86605e-06
4.32313e-08
3.85903e-06
3.71223e-08
2.93002e-08
3.85124e-06
4.21734e-06
4.30748e-08
4.23171e-06
8.30542e-08
4.24126e-06
8.99547e-08
4.24904e-06
9.17615e-08
4.2561e-06
9.24545e-08
4.26282e-06
9.17051e-08
4.26946e-06
8.95481e-08
4.27546e-06
8.54145e-08
4.28037e-06
7.98693e-08
4.28419e-06
7.37851e-08
4.28722e-06
6.78926e-08
4.28949e-06
6.24497e-08
4.2913e-06
5.76344e-08
4.29311e-06
5.30379e-08
4.29434e-06
4.77216e-08
4.29519e-06
4.23611e-08
4.29559e-06
3.67141e-08
3.03631e-08
4.29457e-06
4.64641e-06
3.39659e-08
4.65913e-06
7.03501e-08
4.6677e-06
8.14016e-08
4.67443e-06
8.50104e-08
4.68051e-06
8.63888e-08
4.68637e-06
8.58499e-08
4.69225e-06
8.36587e-08
4.6978e-06
7.98411e-08
4.70275e-06
7.49235e-08
4.70708e-06
6.9495e-08
4.7109e-06
6.41029e-08
4.7143e-06
5.90762e-08
4.71751e-06
5.44459e-08
4.72068e-06
4.98956e-08
4.72344e-06
4.49643e-08
4.72583e-06
3.99706e-08
4.72772e-06
3.48211e-08
2.94199e-08
4.7285e-06
5.12128e-06
2.73019e-08
5.13208e-06
5.97333e-08
5.14054e-06
7.30787e-08
5.14768e-06
7.79504e-08
5.15411e-06
7.99819e-08
5.1601e-06
7.97869e-08
5.1659e-06
7.7692e-08
5.17137e-06
7.41636e-08
5.17635e-06
6.97509e-08
5.18081e-06
6.48759e-08
5.18482e-06
5.99529e-08
5.18852e-06
5.52825e-08
5.19205e-06
5.08497e-08
5.19546e-06
4.64487e-08
5.19855e-06
4.18596e-08
5.20127e-06
3.72388e-08
5.20347e-06
3.25672e-08
2.80193e-08
5.20493e-06
5.64646e-06
2.18397e-08
5.65555e-06
5.06267e-08
5.66379e-06
6.48276e-08
5.67118e-06
7.05621e-08
5.67802e-06
7.31166e-08
5.68438e-06
7.3374e-08
5.6904e-06
7.16255e-08
5.69603e-06
6.8499e-08
5.70121e-06
6.45864e-08
5.7059e-06
6.02128e-08
5.71015e-06
5.57215e-08
5.71409e-06
5.13475e-08
5.71784e-06
4.71236e-08
5.72138e-06
4.29053e-08
5.72463e-06
3.86261e-08
5.7275e-06
3.43611e-08
5.72991e-06
3.01775e-08
2.61283e-08
5.7317e-06
4.40932e-06
1.8625e-08
4.41518e-06
4.48595e-08
4.42105e-06
5.90209e-08
4.42646e-06
6.5164e-08
4.43155e-06
6.79816e-08
4.43634e-06
6.84848e-08
4.44081e-06
6.70106e-08
4.44497e-06
6.42092e-08
4.44881e-06
6.06459e-08
4.45232e-06
5.66198e-08
4.45553e-06
5.24414e-08
4.45851e-06
4.83083e-08
4.46133e-06
4.42698e-08
4.46398e-06
4.02335e-08
4.46641e-06
3.61889e-08
4.46858e-06
3.21856e-08
4.47043e-06
2.82962e-08
2.46133e-08
4.47193e-06
5.14278e-06
1.57037e-08
5.14857e-06
3.90198e-08
5.15471e-06
5.28639e-08
5.16057e-06
5.92839e-08
5.16619e-06
6.23064e-08
5.17154e-06
6.30684e-08
5.17655e-06
6.19157e-08
5.18123e-06
5.94896e-08
5.18558e-06
5.62909e-08
5.18957e-06
5.2626e-08
5.19324e-06
4.8758e-08
5.19665e-06
4.48892e-08
5.19985e-06
4.10625e-08
5.20283e-06
3.72589e-08
5.20557e-06
3.34546e-08
5.20801e-06
2.97513e-08
5.21013e-06
2.61796e-08
2.27985e-08
5.2119e-06
5.9984e-06
1.30738e-08
6.00404e-06
3.33833e-08
6.01039e-06
4.65068e-08
6.01664e-06
5.30105e-08
6.02276e-06
5.61222e-08
6.02865e-06
5.70834e-08
6.03424e-06
5.62543e-08
6.03949e-06
5.41982e-08
6.04438e-06
5.13741e-08
6.04891e-06
4.80851e-08
6.05308e-06
4.45692e-08
6.05696e-06
4.10022e-08
6.06057e-06
3.74512e-08
6.06391e-06
3.38925e-08
6.06699e-06
3.0417e-08
6.06974e-06
2.69967e-08
6.07215e-06
2.37538e-08
2.06911e-08
6.0742e-06
6.99659e-06
1.07464e-08
7.00197e-06
2.79577e-08
7.00845e-06
3.99913e-08
7.01504e-06
4.63647e-08
7.02162e-06
4.94765e-08
7.02805e-06
5.05704e-08
7.03421e-06
5.00295e-08
7.04004e-06
4.83285e-08
7.04551e-06
4.58862e-08
7.05059e-06
4.29827e-08
7.0553e-06
3.98469e-08
7.05967e-06
3.66199e-08
7.06371e-06
3.33703e-08
7.06747e-06
3.01585e-08
7.07088e-06
2.69723e-08
7.07399e-06
2.39254e-08
7.07669e-06
2.09939e-08
1.82928e-08
7.07909e-06
8.16108e-06
8.66547e-09
8.16614e-06
2.28522e-08
8.17265e-06
3.34356e-08
8.17954e-06
3.9429e-08
8.18653e-06
4.24191e-08
8.19348e-06
4.35628e-08
8.20021e-06
4.32741e-08
8.20663e-06
4.19073e-08
8.21269e-06
3.98316e-08
8.21835e-06
3.73325e-08
8.22362e-06
3.45751e-08
8.2285e-06
3.17299e-08
8.23302e-06
2.88234e-08
8.23718e-06
2.59673e-08
8.24101e-06
2.31536e-08
8.24445e-06
2.04603e-08
8.24755e-06
1.79032e-08
1.55204e-08
8.25025e-06
9.51959e-06
6.79647e-09
9.52431e-06
1.80755e-08
9.53076e-06
2.69268e-08
9.53788e-06
3.22565e-08
9.54525e-06
3.49752e-08
9.55269e-06
3.61145e-08
9.55998e-06
3.59801e-08
9.56699e-06
3.49137e-08
9.57366e-06
3.32127e-08
9.57992e-06
3.10896e-08
9.58579e-06
2.87611e-08
9.59119e-06
2.62668e-08
9.59623e-06
2.37972e-08
9.60083e-06
2.12906e-08
9.60512e-06
1.89109e-08
9.60896e-06
1.65791e-08
9.61246e-06
1.44307e-08
1.23957e-08
9.61558e-06
1.11044e-05
5.08854e-09
1.11088e-05
1.3593e-08
1.11152e-05
2.05232e-08
1.11225e-05
2.49138e-08
1.11302e-05
2.7233e-08
1.11381e-05
2.82028e-08
1.11459e-05
2.81647e-08
1.11536e-05
2.73415e-08
1.11608e-05
2.59652e-08
1.11677e-05
2.42469e-08
1.11742e-05
2.22956e-08
1.11802e-05
2.02646e-08
1.11858e-05
1.8169e-08
1.1191e-05
1.61402e-08
1.11956e-05
1.41392e-08
1.12e-05
1.22675e-08
1.12039e-05
1.04762e-08
8.84823e-09
1.12076e-05
1.29532e-05
3.49825e-09
1.29574e-05
9.34183e-09
1.29637e-05
1.42207e-08
1.29712e-05
1.74551e-08
1.29792e-05
1.9143e-08
1.29876e-05
1.98551e-08
1.2996e-05
1.97844e-08
1.30042e-05
1.91265e-08
1.30122e-05
1.80498e-08
1.30197e-05
1.66971e-08
1.30268e-05
1.51764e-08
1.30335e-05
1.35735e-08
1.30397e-05
1.19534e-08
1.30454e-05
1.0362e-08
1.30508e-05
8.82656e-09
1.30556e-05
7.3738e-09
1.30601e-05
6.01109e-09
4.75356e-09
1.30642e-05
1.511e-05
1.96728e-09
1.51141e-05
5.1746e-09
1.51204e-05
7.91711e-09
1.51281e-05
9.76369e-09
1.51366e-05
1.06651e-08
1.51455e-05
1.09519e-08
1.51545e-05
1.07575e-08
1.51634e-05
1.01958e-08
1.51721e-05
9.37701e-09
1.51804e-05
8.38342e-09
1.51883e-05
7.29156e-09
1.51956e-05
6.15197e-09
1.52026e-05
5.01246e-09
1.5209e-05
3.89854e-09
1.5215e-05
2.83521e-09
1.52205e-05
1.83563e-09
1.52256e-05
9.08343e-10
5.62022e-11
1.52303e-05
1.7626e-05
3.97414e-10
1.76303e-05
8.72121e-10
1.76369e-05
1.33579e-09
1.7645e-05
1.6141e-09
1.76542e-05
1.54103e-09
1.76638e-05
1.30676e-09
1.76736e-05
9.02206e-10
1.76834e-05
4.03561e-10
1.76929e-05
-1.96917e-10
1.77021e-05
-8.22043e-10
1.77109e-05
-1.49096e-09
1.77191e-05
-2.13723e-09
1.77269e-05
-2.78445e-09
1.77341e-05
-3.38289e-09
1.77409e-05
-3.95458e-09
1.77472e-05
-4.46435e-09
1.77531e-05
-4.93526e-09
-5.34596e-09
1.77585e-05
1.78277e-05
-1.14726e-09
1.78319e-05
-3.34658e-09
1.78383e-05
-5.07501e-09
1.78462e-05
-6.35091e-09
1.78551e-05
-7.36537e-09
1.78645e-05
-8.14357e-09
1.78742e-05
-8.72437e-09
1.78837e-05
-9.21475e-09
1.78931e-05
-9.56527e-09
1.79021e-05
-9.8889e-09
1.79108e-05
-1.01108e-08
1.79189e-05
-1.03333e-08
1.79266e-05
-1.0472e-08
1.79338e-05
-1.06154e-08
1.79406e-05
-1.06878e-08
1.79468e-05
-1.07607e-08
1.79527e-05
-1.07739e-08
-1.07854e-08
1.7958e-05
1.58828e-05
-2.61696e-09
1.58868e-05
-7.35171e-09
1.58927e-05
-1.10542e-08
1.59e-05
-1.36779e-08
1.59081e-05
-1.54964e-08
1.59166e-05
-1.66728e-08
1.59252e-05
-1.74227e-08
1.59338e-05
-1.78009e-08
1.59421e-05
-1.79684e-08
1.59502e-05
-1.79276e-08
1.59578e-05
-1.78094e-08
1.59651e-05
-1.75743e-08
1.59719e-05
-1.73227e-08
1.59783e-05
-1.70013e-08
1.59842e-05
-1.66873e-08
1.59899e-05
-1.63269e-08
1.5995e-05
-1.59839e-08
-1.5609e-08
1.59999e-05
1.41502e-05
-4.12489e-09
1.41542e-05
-1.14037e-08
1.41601e-05
-1.69704e-08
1.41671e-05
-2.07439e-08
1.41748e-05
-2.31953e-08
1.41827e-05
-2.46894e-08
1.41908e-05
-2.54718e-08
1.41987e-05
-2.57417e-08
1.42063e-05
-2.56214e-08
1.42136e-05
-2.52686e-08
1.42205e-05
-2.47446e-08
1.4227e-05
-2.41321e-08
1.42332e-05
-2.3454e-08
1.42389e-05
-2.2755e-08
1.42443e-05
-2.20386e-08
1.42492e-05
-2.13325e-08
1.42539e-05
-2.06301e-08
-1.99508e-08
1.42582e-05
1.26067e-05
-5.74948e-09
1.2611e-05
-1.57415e-08
1.26171e-05
-2.30519e-08
1.26241e-05
-2.77649e-08
1.26315e-05
-3.06743e-08
1.26392e-05
-3.23512e-08
1.26468e-05
-3.31031e-08
1.26541e-05
-3.31538e-08
1.26612e-05
-3.27298e-08
1.26679e-05
-3.20143e-08
1.26743e-05
-3.11001e-08
1.26802e-05
-3.00967e-08
1.26858e-05
-2.90173e-08
1.26909e-05
-2.79478e-08
1.26958e-05
-2.68649e-08
1.27002e-05
-2.58307e-08
1.27044e-05
-2.48112e-08
-2.38444e-08
1.27083e-05
1.12317e-05
-7.62836e-09
1.12365e-05
-2.05534e-08
1.12429e-05
-2.94596e-08
1.125e-05
-3.4827e-08
1.12573e-05
-3.80287e-08
1.12648e-05
-3.97775e-08
1.1272e-05
-4.03821e-08
1.1279e-05
-4.01495e-08
1.12856e-05
-3.9378e-08
1.12919e-05
-3.8265e-08
1.12977e-05
-3.69674e-08
1.13032e-05
-3.55439e-08
1.13082e-05
-3.41056e-08
1.13129e-05
-3.26468e-08
1.13172e-05
-3.12535e-08
1.13213e-05
-2.98806e-08
1.13251e-05
-2.86005e-08
-2.7349e-08
1.13286e-05
1.00069e-05
-9.88928e-09
1.00124e-05
-2.60739e-08
1.00192e-05
-3.62567e-08
1.00264e-05
-4.19676e-08
1.00337e-05
-4.53149e-08
1.00409e-05
-4.70198e-08
1.00479e-05
-4.73829e-08
1.00546e-05
-4.67896e-08
1.00608e-05
-4.56175e-08
1.00666e-05
-4.41072e-08
1.0072e-05
-4.23913e-08
1.00771e-05
-4.05868e-08
1.00817e-05
-3.87537e-08
1.0086e-05
-3.69647e-08
1.009e-05
-3.52268e-08
1.00936e-05
-3.35878e-08
1.00971e-05
-3.20186e-08
-3.0552e-08
1.01002e-05
8.91596e-06
-1.27436e-08
8.92238e-06
-3.24727e-08
8.92957e-06
-4.34363e-08
8.93681e-06
-4.91997e-08
8.94408e-06
-5.25708e-08
8.9512e-06
-5.41247e-08
8.95797e-06
-5.41328e-08
8.96432e-06
-5.31351e-08
8.97024e-06
-5.15489e-08
8.97574e-06
-4.96072e-08
8.98082e-06
-4.74784e-08
8.9855e-06
-4.52688e-08
8.9898e-06
-4.30713e-08
8.99377e-06
-4.09377e-08
8.99742e-06
-3.89054e-08
9.00081e-06
-3.69785e-08
9.00395e-06
-3.51775e-08
-3.34747e-08
9.00688e-06
7.94435e-06
-1.64246e-08
7.95191e-06
-4.00199e-08
7.95944e-06
-5.09559e-08
7.96679e-06
-5.65219e-08
7.97411e-06
-5.98819e-08
7.98118e-06
-6.1184e-08
7.98782e-06
-6.07736e-08
7.994e-06
-5.9313e-08
7.99973e-06
-5.72675e-08
8.005e-06
-5.48884e-08
8.00985e-06
-5.23264e-08
8.01428e-06
-4.97133e-08
8.01835e-06
-4.71428e-08
8.02207e-06
-4.4674e-08
8.02549e-06
-4.23354e-08
8.02865e-06
-4.01484e-08
8.03157e-06
-3.8113e-08
-3.62017e-08
8.03428e-06
7.0792e-06
-2.12901e-08
7.08816e-06
-4.89824e-08
7.09617e-06
-5.89427e-08
7.10385e-06
-6.41997e-08
7.11146e-06
-6.74808e-08
7.11871e-06
-6.84342e-08
7.12547e-06
-6.75201e-08
7.13171e-06
-6.55471e-08
7.13746e-06
-6.30281e-08
7.14272e-06
-6.01562e-08
7.14752e-06
-5.71314e-08
7.15189e-06
-5.40833e-08
7.15585e-06
-5.1106e-08
7.15945e-06
-4.82843e-08
7.16272e-06
-4.5624e-08
7.16572e-06
-4.31542e-08
7.16847e-06
-4.08816e-08
-3.87696e-08
7.17102e-06
6.30971e-06
-2.84937e-08
6.32047e-06
-5.96997e-08
6.32971e-06
-6.82158e-08
6.33867e-06
-7.31487e-08
6.34743e-06
-7.62335e-08
6.35563e-06
-7.66331e-08
6.36318e-06
-7.50602e-08
6.37006e-06
-7.24588e-08
6.37634e-06
-6.92843e-08
6.38199e-06
-6.58099e-08
6.38704e-06
-6.21932e-08
6.39154e-06
-5.85789e-08
6.3955e-06
-5.51003e-08
6.399e-06
-5.17791e-08
6.40207e-06
-4.86997e-08
6.40477e-06
-4.58639e-08
6.40714e-06
-4.3271e-08
-4.0881e-08
6.40924e-06
5.62911e-06
-4.26985e-08
5.64439e-06
-7.4973e-08
5.65844e-06
-8.22837e-08
5.67219e-06
-8.68978e-08
5.68501e-06
-8.90554e-08
5.69641e-06
-8.80218e-08
5.70629e-06
-8.49606e-08
5.71471e-06
-8.08794e-08
5.7217e-06
-7.62782e-08
5.72733e-06
-7.14425e-08
5.7317e-06
-6.65604e-08
5.7349e-06
-6.18049e-08
5.73705e-06
-5.72605e-08
5.73828e-06
-5.30134e-08
5.73871e-06
-4.91283e-08
5.73848e-06
-4.56449e-08
5.73774e-06
-4.25379e-08
-3.99842e-08
5.73682e-06
5.05125e-06
-9.16423e-08
5.08623e-06
-1.09939e-07
5.11395e-06
-1.10025e-07
5.13337e-06
-1.06329e-07
5.1445e-06
-1.00181e-07
5.14852e-06
-9.20363e-08
5.14684e-06
-8.32867e-08
5.14067e-06
-7.47222e-08
5.13103e-06
-6.66388e-08
5.11877e-06
-5.91795e-08
5.10458e-06
-5.23756e-08
5.08898e-06
-4.62349e-08
5.07245e-06
-4.07427e-08
5.05532e-06
-3.58861e-08
5.03786e-06
-3.16721e-08
5.02039e-06
-2.81828e-08
5.00328e-06
-2.54369e-08
-2.3721e-08
4.98701e-06
4.36491e-06
4.25497e-06
4.14494e-06
4.03861e-06
3.93843e-06
3.84639e-06
3.76311e-06
3.68838e-06
3.62175e-06
3.56257e-06
3.51019e-06
3.46395e-06
3.4232e-06
3.38732e-06
3.35564e-06
3.32746e-06
3.30202e-06
3.27829e-06
-8.23175e-09
8.244e-09
-2.22669e-08
1.40566e-08
-3.76278e-08
1.53844e-08
-5.08969e-08
1.32886e-08
-5.6945e-08
6.07467e-09
-4.97175e-08
-7.20889e-09
-2.70399e-08
-2.26496e-08
8.75194e-09
-3.57704e-08
5.35554e-08
-4.47784e-08
1.02571e-07
-4.89958e-08
1.5132e-07
-4.87311e-08
1.96697e-07
-4.53537e-08
2.3665e-07
-3.9935e-08
2.69945e-07
-3.32666e-08
2.95839e-07
-2.58758e-08
3.13947e-07
-1.80686e-08
3.23951e-07
-9.98334e-09
3.25579e-07
-1.57623e-09
3.18569e-07
7.03296e-09
3.0317e-07
1.54634e-08
2.79902e-07
2.32893e-08
2.49851e-07
3.0129e-08
2.1431e-07
3.55671e-08
1.75249e-07
3.91486e-08
1.3486e-07
4.04153e-08
9.58983e-08
3.90527e-08
6.09048e-08
3.50261e-08
3.21772e-08
2.88149e-08
1.07558e-08
2.1455e-08
-3.37847e-09
1.42108e-08
-1.11908e-08
7.84155e-09
-1.31005e-08
1.97885e-09
-8.97806e-09
-4.09759e-09
2.42962e-09
-1.13398e-08
2.25759e-08
-2.01276e-08
5.15658e-08
-2.89449e-08
8.55939e-08
-3.40113e-08
1.18571e-07
-3.29632e-08
1.44993e-07
-2.64025e-08
1.6156e-07
-1.6564e-08
1.68324e-07
-6.75203e-09
1.68067e-07
2.63704e-10
1.64284e-07
3.79709e-09
1.60486e-07
3.82296e-09
1.58917e-07
1.61366e-09
1.54035e-07
4.91127e-09
1.36383e-07
1.77673e-08
9.75776e-08
3.87694e-08
3.20925e-08
6.56677e-08
-5.7913e-08
8.99528e-08
-1.66614e-07
1.08763e-07
-2.9037e-07
1.23787e-07
-4.2607e-07
1.35688e-07
-5.70185e-07
1.44197e-07
-7.17842e-07
1.47648e-07
-8.64221e-07
1.46429e-07
-1.00709e-06
1.42854e-07
-1.14405e-06
1.36961e-07
-1.27243e-06
1.28368e-07
-1.39198e-06
1.19519e-07
-1.50313e-06
1.11147e-07
-1.60469e-06
1.01519e-07
-1.69749e-06
9.28121e-08
-1.78302e-06
8.54839e-08
-1.86137e-06
7.83622e-08
-1.93359e-06
7.21646e-08
-2.00023e-06
6.66632e-08
-2.0621e-06
6.18241e-08
-2.11966e-06
5.75834e-08
-2.17353e-06
5.38285e-08
-2.22402e-06
5.05157e-08
-2.2716e-06
4.75387e-08
-2.31643e-06
4.48666e-08
-2.35889e-06
4.24149e-08
-2.39902e-06
4.01685e-08
-2.43711e-06
3.80627e-08
-2.47317e-06
3.60938e-08
-2.5074e-06
3.42141e-08
-2.53979e-06
3.24266e-08
-2.57048e-06
3.06972e-08
-2.59948e-06
2.90311e-08
-2.62688e-06
2.74052e-08
-2.65267e-06
2.58226e-08
-2.67692e-06
2.4269e-08
-2.69964e-06
2.27429e-08
-2.72085e-06
2.12383e-08
-2.74057e-06
1.97471e-08
-2.75882e-06
1.82708e-08
-2.77562e-06
1.68089e-08
-2.79101e-06
1.5339e-08
-2.80493e-06
1.38842e-08
-2.8174e-06
1.2423e-08
-2.82839e-06
1.09525e-08
-2.83786e-06
9.4651e-09
-2.8458e-06
7.94553e-09
-2.85216e-06
6.39209e-09
-2.85691e-06
4.77875e-09
-2.85996e-06
3.10439e-09
-2.8613e-06
1.36326e-09
-2.86094e-06
-3.23219e-10
-2.85914e-06
-1.7927e-09
-2.85606e-06
-3.08186e-09
-2.85173e-06
-4.34381e-09
-2.84616e-06
-5.58606e-09
-2.83935e-06
-6.83223e-09
-2.83131e-06
-8.07647e-09
-2.82203e-06
-9.3252e-09
-2.8115e-06
-1.05749e-08
-2.79972e-06
-1.18263e-08
-2.78669e-06
-1.30798e-08
-2.77241e-06
-1.43318e-08
-2.75689e-06
-1.55865e-08
-2.7401e-06
-1.68363e-08
-2.72207e-06
-1.80887e-08
-2.70278e-06
-1.93328e-08
-2.68226e-06
-2.05785e-08
-2.66048e-06
-2.18126e-08
-2.63748e-06
-2.30465e-08
-2.61324e-06
-2.42656e-08
-2.58779e-06
-2.54821e-08
-2.56112e-06
-2.66806e-08
-2.53326e-06
-2.78733e-08
-2.50422e-06
-2.90451e-08
-2.47401e-06
-3.02065e-08
-2.44265e-06
-3.1344e-08
-2.41018e-06
-3.24663e-08
-2.37659e-06
-3.35627e-08
-2.34192e-06
-3.46397e-08
-2.3062e-06
-3.56875e-08
-2.26946e-06
-3.67144e-08
-2.23172e-06
-3.77098e-08
-2.19302e-06
-3.86732e-08
-2.1534e-06
-3.95958e-08
-2.11291e-06
-4.04584e-08
-2.07162e-06
-4.12639e-08
-2.0296e-06
-4.19968e-08
-1.98693e-06
-4.26609e-08
-1.9435e-06
-4.34207e-08
-1.89927e-06
-4.42226e-08
-1.85435e-06
-4.4897e-08
-1.8088e-06
-4.55277e-08
-1.76266e-06
-4.61094e-08
-1.71599e-06
-4.66621e-08
-1.66882e-06
-4.71744e-08
-1.62119e-06
-4.76581e-08
-1.57312e-06
-4.81009e-08
-1.52467e-06
-4.85136e-08
-1.47584e-06
-4.88891e-08
-1.42666e-06
-4.92321e-08
-1.37717e-06
-4.95446e-08
-1.32738e-06
-4.98192e-08
-1.27733e-06
-5.00655e-08
-1.22706e-06
-5.02756e-08
-1.1766e-06
-5.04574e-08
-1.12598e-06
-5.06119e-08
-1.07521e-06
-5.07447e-08
-1.02432e-06
-5.08596e-08
-9.73316e-07
-5.09665e-08
-9.22203e-07
-5.1066e-08
-8.70982e-07
-5.11693e-08
-8.19646e-07
-5.12743e-08
-7.68194e-07
-5.1389e-08
-7.16613e-07
-5.15064e-08
-6.64908e-07
-5.16314e-08
-6.13067e-07
-5.17567e-08
-5.61094e-07
-5.18905e-08
-5.08974e-07
-5.2029e-08
-4.56706e-07
-5.21823e-08
-4.04265e-07
-5.23455e-08
-3.51654e-07
-5.25235e-08
-2.98856e-07
-5.27005e-08
-2.45902e-07
-5.28649e-08
-1.92822e-07
-5.29811e-08
-1.39742e-07
-5.29914e-08
-8.6843e-08
-5.28021e-08
-3.45771e-08
-5.21782e-08
1.64121e-08
-5.09007e-08
6.44502e-08
-4.79672e-08
1.09004e-07
-4.44943e-08
-2.01879e-08
1.29241e-07
-3.47822e-09
1.17454e-08
-9.6701e-09
2.02927e-08
-1.26439e-08
1.84086e-08
-5.33795e-09
6.03135e-09
1.73813e-08
-1.65994e-08
5.47454e-08
-4.45465e-08
1.02322e-07
-7.02044e-08
1.54544e-07
-8.79759e-08
2.06254e-07
-9.64746e-08
2.54157e-07
-9.68838e-08
2.96753e-07
-9.13144e-08
3.33342e-07
-8.19272e-08
3.63805e-07
-7.03848e-08
3.88348e-07
-5.77875e-08
4.07285e-07
-4.4798e-08
4.21022e-07
-3.17782e-08
4.29959e-07
-1.89019e-08
4.3468e-07
-6.26007e-09
4.35551e-07
6.18353e-09
4.32518e-07
1.85395e-08
4.2507e-07
3.07614e-08
4.12647e-07
4.26017e-08
3.9463e-07
5.36116e-08
3.70703e-07
6.31272e-08
3.4084e-07
7.03081e-08
3.05694e-07
7.42501e-08
2.66564e-07
7.41871e-08
2.25664e-07
6.97679e-08
1.85928e-07
6.12227e-08
1.50929e-07
4.92701e-08
1.24073e-07
3.47333e-08
1.07934e-07
1.8191e-08
1.03907e-07
-3.00865e-11
1.11709e-07
-1.90781e-08
1.2934e-07
-3.77292e-08
1.51757e-07
-5.13245e-08
1.71837e-07
-5.40707e-08
1.84487e-07
-4.55936e-08
1.87891e-07
-2.97885e-08
1.81945e-07
-1.06062e-08
1.67975e-07
7.23872e-09
1.47718e-07
2.05335e-08
1.16479e-07
3.50571e-08
6.42441e-08
5.60919e-08
-1.83431e-08
8.4241e-08
-1.32588e-07
1.1917e-07
-2.70396e-07
1.55603e-07
-4.21552e-07
1.8992e-07
-5.77508e-07
2.21643e-07
-7.35657e-07
2.48099e-07
-8.94019e-07
2.67136e-07
-1.04921e-06
2.78996e-07
-1.19741e-06
2.83897e-07
-1.33526e-06
2.82084e-07
-1.46146e-06
2.73854e-07
-1.5754e-06
2.60385e-07
-1.6764e-06
2.43844e-07
-1.76526e-06
2.2582e-07
-1.84408e-06
2.0718e-07
-1.91382e-06
1.8924e-07
-1.97544e-06
1.72762e-07
-2.03139e-06
1.57447e-07
-2.08232e-06
1.43737e-07
-2.12873e-06
1.31874e-07
-2.17179e-06
1.21408e-07
-2.21194e-06
1.12303e-07
-2.24964e-06
1.04358e-07
-2.28523e-06
9.73978e-08
-2.31892e-06
9.12675e-08
-2.35092e-06
8.58133e-08
-2.38132e-06
8.09214e-08
-2.41027e-06
7.64761e-08
-2.4378e-06
7.24002e-08
-2.46401e-06
6.8612e-08
-2.48889e-06
6.50623e-08
-2.51253e-06
6.16955e-08
-2.53491e-06
5.84834e-08
-2.55608e-06
5.53883e-08
-2.57603e-06
5.23952e-08
-2.59481e-06
4.94789e-08
-2.61239e-06
4.66319e-08
-2.62881e-06
4.38374e-08
-2.64406e-06
4.10906e-08
-2.65815e-06
3.83806e-08
-2.67109e-06
3.57027e-08
-2.68288e-06
3.30497e-08
-2.69353e-06
3.04161e-08
-2.70304e-06
2.78005e-08
-2.71144e-06
2.51902e-08
-2.71872e-06
2.25974e-08
-2.72487e-06
2.00055e-08
-2.7299e-06
1.74185e-08
-2.73379e-06
1.48356e-08
-2.73658e-06
1.22488e-08
-2.73827e-06
9.65981e-09
-2.73892e-06
7.06784e-09
-2.73858e-06
4.47632e-09
-2.73734e-06
1.90046e-09
-2.73532e-06
-6.30108e-10
-2.73254e-06
-3.086e-09
-2.7288e-06
-5.51348e-09
-2.72393e-06
-7.95412e-09
-2.71788e-06
-1.04026e-08
-2.71063e-06
-1.28516e-08
-2.70218e-06
-1.53084e-08
-2.69251e-06
-1.77692e-08
-2.68163e-06
-2.02375e-08
-2.66953e-06
-2.27094e-08
-2.65621e-06
-2.51866e-08
-2.64166e-06
-2.76659e-08
-2.62589e-06
-3.01473e-08
-2.60888e-06
-3.26286e-08
-2.59065e-06
-3.51081e-08
-2.57119e-06
-3.75847e-08
-2.55051e-06
-4.00546e-08
-2.5286e-06
-4.2518e-08
-2.50548e-06
-4.49691e-08
-2.48114e-06
-4.74092e-08
-2.4556e-06
-4.9831e-08
-2.42886e-06
-5.22366e-08
-2.40094e-06
-5.46172e-08
-2.37184e-06
-5.69754e-08
-2.34159e-06
-5.93013e-08
-2.3102e-06
-6.15974e-08
-2.27768e-06
-6.38533e-08
-2.24406e-06
-6.60716e-08
-2.20937e-06
-6.8243e-08
-2.17362e-06
-7.03701e-08
-2.13684e-06
-7.24439e-08
-2.09907e-06
-7.44673e-08
-2.06033e-06
-7.64296e-08
-2.02066e-06
-7.83274e-08
-1.9801e-06
-8.01468e-08
-1.93865e-06
-8.18821e-08
-1.89636e-06
-8.3536e-08
-1.85323e-06
-8.51116e-08
-1.80927e-06
-8.66181e-08
-1.76458e-06
-8.81185e-08
-1.71922e-06
-8.95729e-08
-1.6732e-06
-9.09076e-08
-1.62655e-06
-9.21519e-08
-1.57934e-06
-9.33119e-08
-1.5316e-06
-9.4402e-08
-1.48336e-06
-9.54178e-08
-1.43467e-06
-9.63672e-08
-1.38556e-06
-9.72441e-08
-1.33605e-06
-9.80553e-08
-1.28619e-06
-9.87978e-08
-1.23598e-06
-9.94774e-08
-1.18545e-06
-1.00095e-07
-1.13464e-06
-1.0065e-07
-1.08357e-06
-1.01143e-07
-1.03227e-06
-1.01577e-07
-9.80771e-07
-1.01949e-07
-9.29099e-07
-1.02273e-07
-8.77273e-07
-1.0255e-07
-8.25312e-07
-1.02798e-07
-7.73226e-07
-1.03022e-07
-7.2102e-07
-1.03239e-07
-6.68694e-07
-1.03456e-07
-6.16241e-07
-1.03685e-07
-5.63657e-07
-1.03925e-07
-5.10932e-07
-1.04181e-07
-4.58063e-07
-1.04444e-07
-4.05043e-07
-1.0472e-07
-3.51868e-07
-1.05004e-07
-2.98527e-07
-1.05308e-07
-2.45012e-07
-1.05633e-07
-1.91307e-07
-1.05987e-07
-1.37406e-07
-1.06362e-07
-8.3299e-08
-1.06744e-07
-2.9012e-08
-1.07091e-07
2.54128e-08
-1.07345e-07
7.98885e-08
-1.0741e-07
1.34262e-07
-1.07119e-07
1.88275e-07
-1.06139e-07
2.41369e-07
-1.03944e-07
2.9298e-07
-9.9535e-08
3.39718e-07
-9.11939e-08
-6.49213e-08
3.84486e-07
4.48753e-10
1.13185e-08
4.12608e-09
1.66608e-08
1.88561e-08
3.71912e-09
5.24894e-08
-2.75743e-08
1.03593e-07
-6.76847e-08
1.62468e-07
-1.03408e-07
2.192e-07
-1.26926e-07
2.68213e-07
-1.36979e-07
3.07848e-07
-1.361e-07
3.38792e-07
-1.27818e-07
3.62632e-07
-1.15146e-07
3.80912e-07
-1.00195e-07
3.94811e-07
-8.42745e-08
4.05159e-07
-6.81197e-08
4.12488e-07
-5.21154e-08
4.17182e-07
-3.64509e-08
4.19508e-07
-2.12135e-08
4.19725e-07
-6.45034e-09
4.18106e-07
7.82079e-09
4.15036e-07
2.16415e-08
4.10759e-07
3.50589e-08
4.05341e-07
4.80567e-08
3.98481e-07
6.04945e-08
3.89612e-07
7.20359e-08
3.77852e-07
8.20924e-08
3.62332e-07
8.98101e-08
3.42422e-07
9.41226e-08
3.18301e-07
9.3926e-08
2.91174e-07
8.83774e-08
2.63391e-07
7.70921e-08
2.37898e-07
6.02579e-08
2.17502e-07
3.86337e-08
2.03834e-07
1.36766e-08
1.96871e-07
-1.20692e-08
1.92277e-07
-3.31047e-08
1.82581e-07
-4.15998e-08
1.63687e-07
-3.51544e-08
1.35641e-07
-1.75319e-08
9.92073e-08
6.66639e-09
5.24482e-08
3.6169e-08
-1.02231e-08
6.9928e-08
-9.58161e-08
1.06143e-07
-2.06382e-07
1.45632e-07
-3.38725e-07
1.88443e-07
-4.86628e-07
2.3215e-07
-6.41102e-07
2.73638e-07
-7.95731e-07
3.10232e-07
-9.45602e-07
3.3978e-07
-1.08537e-06
3.61406e-07
-1.21205e-06
3.74785e-07
-1.32477e-06
3.79852e-07
-1.42303e-06
3.77268e-07
-1.50716e-06
3.68044e-07
-1.57847e-06
3.53409e-07
-1.63932e-06
3.34707e-07
-1.69235e-06
3.13426e-07
-1.7396e-06
2.91092e-07
-1.78265e-06
2.68875e-07
-1.82301e-06
2.47529e-07
-1.86142e-06
2.2764e-07
-1.89818e-06
2.09521e-07
-1.93393e-06
1.93185e-07
-1.96883e-06
1.7862e-07
-2.00273e-06
1.65768e-07
-2.03575e-06
1.54414e-07
-2.06784e-06
1.44389e-07
-2.099e-06
1.35505e-07
-2.12919e-06
1.27584e-07
-2.1584e-06
1.2047e-07
-2.18661e-06
1.14017e-07
-2.2138e-06
1.08109e-07
-2.23997e-06
1.02641e-07
-2.26511e-06
9.75305e-08
-2.2892e-06
9.27039e-08
-2.31225e-06
8.8107e-08
-2.33424e-06
8.36916e-08
-2.35518e-06
7.94235e-08
-2.37506e-06
7.52721e-08
-2.39387e-06
7.1217e-08
-2.41162e-06
6.72389e-08
-2.4283e-06
6.33259e-08
-2.44392e-06
5.94659e-08
-2.45847e-06
5.56513e-08
-2.47195e-06
5.18742e-08
-2.48436e-06
4.81288e-08
-2.49571e-06
4.44094e-08
-2.50599e-06
4.07115e-08
-2.51521e-06
3.70295e-08
-2.52338e-06
3.33646e-08
-2.53051e-06
2.97025e-08
-2.53659e-06
2.60571e-08
-2.5416e-06
2.24201e-08
-2.54556e-06
1.87914e-08
-2.54847e-06
1.51701e-08
-2.55034e-06
1.15593e-08
-2.5512e-06
7.95595e-09
-2.55105e-06
4.36827e-09
-2.54992e-06
7.9607e-10
-2.54777e-06
-2.74782e-09
-2.54457e-06
-6.2782e-09
-2.54025e-06
-9.82162e-09
-2.53481e-06
-1.33979e-08
-2.52822e-06
-1.69926e-08
-2.52048e-06
-2.06043e-08
-2.51158e-06
-2.42286e-08
-2.5015e-06
-2.78656e-08
-2.49025e-06
-3.15129e-08
-2.47782e-06
-3.51695e-08
-2.4642e-06
-3.88339e-08
-2.44939e-06
-4.25035e-08
-2.43339e-06
-4.61775e-08
-2.4162e-06
-4.9852e-08
-2.39781e-06
-5.35265e-08
-2.37823e-06
-5.71955e-08
-2.35746e-06
-6.08584e-08
-2.33549e-06
-6.4509e-08
-2.31234e-06
-6.81462e-08
-2.28801e-06
-7.17632e-08
-2.2625e-06
-7.53584e-08
-2.23582e-06
-7.89247e-08
-2.208e-06
-8.24596e-08
-2.17902e-06
-8.59559e-08
-2.14892e-06
-8.94097e-08
-2.1177e-06
-9.28138e-08
-2.08538e-06
-9.61633e-08
-2.05199e-06
-9.94519e-08
-2.01755e-06
-1.02675e-07
-1.98208e-06
-1.05826e-07
-1.94561e-06
-1.08903e-07
-1.90816e-06
-1.11898e-07
-1.86977e-06
-1.14805e-07
-1.83047e-06
-1.17616e-07
-1.79028e-06
-1.20318e-07
-1.74924e-06
-1.22905e-07
-1.70737e-06
-1.25385e-07
-1.6647e-06
-1.27764e-07
-1.62126e-06
-1.30045e-07
-1.57713e-06
-1.3225e-07
-1.53233e-06
-1.34352e-07
-1.4869e-06
-1.36319e-07
-1.44087e-06
-1.3816e-07
-1.39428e-06
-1.39883e-07
-1.34718e-06
-1.41497e-07
-1.2996e-06
-1.43003e-07
-1.25157e-06
-1.44405e-07
-1.20312e-06
-1.45705e-07
-1.1543e-06
-1.46904e-07
-1.10511e-06
-1.48006e-07
-1.05559e-06
-1.49015e-07
-1.00577e-06
-1.49935e-07
-9.55658e-07
-1.50768e-07
-9.05292e-07
-1.51514e-07
-8.54695e-07
-1.52175e-07
-8.03893e-07
-1.5275e-07
-7.52912e-07
-1.53251e-07
-7.0177e-07
-1.53688e-07
-6.50483e-07
-1.54078e-07
-5.99062e-07
-1.54437e-07
-5.47511e-07
-1.54783e-07
-4.9583e-07
-1.5513e-07
-4.44014e-07
-1.55492e-07
-3.92057e-07
-1.55875e-07
-3.39948e-07
-1.56279e-07
-2.87686e-07
-1.56701e-07
-2.35259e-07
-1.57137e-07
-1.82666e-07
-1.57592e-07
-1.29894e-07
-1.58073e-07
-7.6935e-08
-1.58588e-07
-2.37741e-08
-1.59141e-07
2.95935e-08
-1.59726e-07
8.31769e-08
-1.60321e-07
1.36968e-07
-1.60879e-07
1.9094e-07
-1.61311e-07
2.45017e-07
-1.61484e-07
2.99074e-07
-1.61169e-07
3.52911e-07
-1.59971e-07
4.06201e-07
-1.57225e-07
4.58521e-07
-1.5185e-07
5.089e-07
-1.41567e-07
-1.16793e-07
5.60775e-07
-1.31957e-10
1.14706e-08
1.3034e-08
3.53285e-09
5.3225e-08
-3.64502e-08
1.15735e-07
-9.00697e-08
1.83103e-07
-1.35044e-07
2.41087e-07
-1.61384e-07
2.84088e-07
-1.6992e-07
3.13036e-07
-1.65918e-07
3.31539e-07
-1.54598e-07
3.43281e-07
-1.3955e-07
3.50942e-07
-1.228e-07
3.56133e-07
-1.05375e-07
3.59662e-07
-8.7795e-08
3.61885e-07
-7.03295e-08
3.62913e-07
-5.31339e-08
3.62791e-07
-3.63108e-08
3.61527e-07
-1.99362e-08
3.59174e-07
-4.07443e-09
3.55791e-07
1.12213e-08
3.51538e-07
2.59223e-08
3.46615e-07
4.00014e-08
3.41279e-07
5.34244e-08
3.35679e-07
6.6118e-08
3.29837e-07
7.79122e-08
3.2348e-07
8.84751e-08
3.161e-07
9.72266e-08
3.06942e-07
1.03307e-07
2.95317e-07
1.05589e-07
2.80844e-07
1.02878e-07
2.63726e-07
9.42523e-08
2.44887e-07
7.91299e-08
2.25734e-07
5.78366e-08
2.0676e-07
3.26889e-08
1.84367e-07
1.0369e-08
1.5144e-07
-1.48609e-10
1.05281e-07
4.58706e-09
4.7012e-08
2.31352e-08
-2.42167e-08
5.37154e-08
-1.11178e-07
9.36408e-08
-2.14847e-07
1.39848e-07
-3.34078e-07
1.89167e-07
-4.66709e-07
2.38778e-07
-6.07856e-07
2.86784e-07
-7.5103e-07
3.31616e-07
-8.90119e-07
3.7124e-07
-1.0196e-06
4.03113e-07
-1.13544e-06
4.26065e-07
-1.23603e-06
4.40362e-07
-1.3209e-06
4.46266e-07
-1.39071e-06
4.446e-07
-1.44734e-06
4.36478e-07
-1.49311e-06
4.23042e-07
-1.53062e-06
4.05562e-07
-1.56244e-06
3.85248e-07
-1.59094e-06
3.63208e-07
-1.61795e-06
3.40447e-07
-1.6447e-06
3.17842e-07
-1.67185e-06
2.96027e-07
-1.69974e-06
2.75415e-07
-1.72838e-06
2.56274e-07
-1.7576e-06
2.38732e-07
-1.78723e-06
2.22808e-07
-1.81706e-06
2.0844e-07
-1.84684e-06
1.95534e-07
-1.87637e-06
1.83944e-07
-1.90551e-06
1.73516e-07
-1.93411e-06
1.64099e-07
-1.96207e-06
1.5554e-07
-1.98931e-06
1.47705e-07
-2.01577e-06
1.40469e-07
-2.04139e-06
1.33727e-07
-2.06614e-06
1.27385e-07
-2.08998e-06
1.21368e-07
-2.11289e-06
1.1561e-07
-2.13484e-06
1.1006e-07
-2.15582e-06
1.04675e-07
-2.17582e-06
9.9423e-08
-2.19482e-06
9.42771e-08
-2.21282e-06
8.92177e-08
-2.2298e-06
8.42287e-08
-2.24576e-06
7.92987e-08
-2.2607e-06
7.44179e-08
-2.27462e-06
6.95792e-08
-2.28751e-06
6.47763e-08
-2.29938e-06
6.00041e-08
-2.31022e-06
5.52584e-08
-2.32003e-06
5.05345e-08
-2.32882e-06
4.58295e-08
-2.33661e-06
4.11337e-08
-2.34337e-06
3.64605e-08
-2.34911e-06
3.17883e-08
-2.35383e-06
2.71309e-08
-2.35751e-06
2.24839e-08
-2.36017e-06
1.78462e-08
-2.3618e-06
1.32189e-08
-2.3624e-06
8.59728e-09
-2.36198e-06
3.98382e-09
-2.36053e-06
-6.27268e-10
-2.35803e-06
-5.23393e-09
-2.35444e-06
-9.85317e-09
-2.34976e-06
-1.44975e-08
-2.34398e-06
-1.91788e-08
-2.33709e-06
-2.38862e-08
-2.32908e-06
-2.86195e-08
-2.31995e-06
-3.33717e-08
-2.30969e-06
-3.81438e-08
-2.29829e-06
-4.29307e-08
-2.28575e-06
-4.77322e-08
-2.27207e-06
-5.25447e-08
-2.25723e-06
-5.73663e-08
-2.24124e-06
-6.21948e-08
-2.22409e-06
-6.70256e-08
-2.20578e-06
-7.18577e-08
-2.18632e-06
-7.66837e-08
-2.1657e-06
-8.15034e-08
-2.14392e-06
-8.6307e-08
-2.12099e-06
-9.1095e-08
-2.09691e-06