/*--------------------------------*- C++ -*----------------------------------*\
  =========                 |
  \\      /  F ield         | OpenFOAM: The Open Source CFD Toolbox
   \\    /   O peration     | Website:  https://openfoam.org
    \\  /    A nd           | Version:  8
     \\/     M anipulation  |
\*---------------------------------------------------------------------------*/
FoamFile
{
    version     2.0;
    format      ascii;
    class       volScalarField;
    location    "1400";
    object      p;
}
// * * * * * * * * * * * * * * * * * * * * * * * * * * * * * * * * * * * * * //

dimensions      [0 2 -2 0 0 0 0];

internalField   nonuniform List<scalar> 
12225
(
-4.24738
-5.12888
-5.53286
-5.65395
-5.77224
-5.91472
-6.04439
-6.15621
-6.25324
-6.33757
-6.41004
-6.47656
-6.54261
-6.60382
-6.66372
-6.73003
-6.80932
-6.89887
-4.50559
-5.1532
-5.50587
-5.62677
-5.74209
-5.88348
-6.01155
-6.11723
-6.21244
-6.30168
-6.38004
-6.44932
-6.51332
-6.5757
-6.63808
-6.70377
-6.77453
-6.83911
-4.70193
-5.15461
-5.48304
-5.62811
-5.74996
-5.88874
-6.01461
-6.11865
-6.21139
-6.29703
-6.37374
-6.44179
-6.50421
-6.56474
-6.62529
-6.68684
-6.74882
-6.80102
-4.84926
-5.17813
-5.48248
-5.63742
-5.75602
-5.88586
-6.00676
-6.10884
-6.19962
-6.28324
-6.35865
-6.42591
-6.48799
-6.54819
-6.6076
-6.66574
-6.72132
-6.76776
-4.98581
-5.22883
-5.49653
-5.65015
-5.76501
-5.88758
-6.00403
-6.10427
-6.19328
-6.27493
-6.34897
-6.41578
-6.47773
-6.53702
-6.59418
-6.64861
-6.69903
-6.74124
-5.11028
-5.28685
-5.51464
-5.66412
-5.77718
-5.8933
-6.00432
-6.10158
-6.18817
-6.26756
-6.34012
-6.40623
-6.46748
-6.52532
-6.58017
-6.6315
-6.67832
-6.7182
-5.22329
-5.34843
-5.53837
-5.68073
-5.7912
-5.90061
-6.00564
-6.09939
-6.1834
-6.26055
-6.33152
-6.39653
-6.45666
-6.51296
-6.56575
-6.61466
-6.65895
-6.69709
-5.3088
-5.40203
-5.56309
-5.69663
-5.80357
-5.90737
-6.00737
-6.09794
-6.17965
-6.25482
-6.32418
-6.38793
-6.44685
-6.50176
-6.5529
-6.59999
-6.64244
-6.67928
-5.37639
-5.44937
-5.58702
-5.71145
-5.81457
-5.91349
-6.00908
-6.09672
-6.17631
-6.24964
-6.31743
-6.37988
-6.43761
-6.49125
-6.54094
-6.5865
-6.62752
-6.66334
-5.44207
-5.49929
-5.61438
-5.72817
-5.82646
-5.9201
-6.01088
-6.0952
-6.17239
-6.24365
-6.30963
-6.37057
-6.42691
-6.47908
-6.52724
-6.57125
-6.61091
-6.64586
-5.50592
-5.55087
-5.64524
-5.74712
-5.83942
-5.92735
-6.01288
-6.09338
-6.16778
-6.23667
-6.30061
-6.35981
-6.41455
-6.46515
-6.51171
-6.55425
-6.59265
-6.62683
-5.56766
-5.60287
-5.67921
-5.76849
-5.85365
-5.93543
-6.01531
-6.09149
-6.16263
-6.22885
-6.29046
-6.34766
-6.40064
-6.44956
-6.49457
-6.53568
-6.57297
-6.60635
-5.62605
-5.65374
-5.71508
-5.79188
-5.86906
-5.94435
-6.01834
-6.08975
-6.15724
-6.22043
-6.2795
-6.33448
-6.38554
-6.43272
-6.47621
-6.51596
-6.5522
-6.58488
-5.67962
-5.70153
-5.75089
-5.81617
-5.88505
-5.95372
-6.02179
-6.08825
-6.15176
-6.21175
-6.26805
-6.32072
-6.36972
-6.4152
-6.45711
-6.49565
-6.53084
-6.56289
-5.72616
-5.74381
-5.78401
-5.8394
-5.90038
-5.96265
-6.02509
-6.08667
-6.14619
-6.20287
-6.25641
-6.30669
-6.35368
-6.39737
-6.43783
-6.47514
-6.50945
-6.54083
-5.76289
-5.77752
-5.81113
-5.85882
-5.91304
-5.96967
-6.02714
-6.08434
-6.14015
-6.19372
-6.24462
-6.29264
-6.3377
-6.37975
-6.41886
-6.45507
-6.48855
-6.51938
-5.78586
-5.79858
-5.82807
-5.87064
-5.92006
-5.97249
-6.02619
-6.08001
-6.13285
-6.18388
-6.23259
-6.27872
-6.32215
-6.36283
-6.40081
-6.43613
-6.46894
-6.49933
-5.78893
-5.80106
-5.82926
-5.8701
-5.91772
-5.96836
-6.0204
-6.07257
-6.12395
-6.17357
-6.22107
-6.26604
-6.30853
-6.34833
-6.38564
-6.42037
-6.45278
-6.48288
-5.77187
-5.78472
-5.81449
-5.85711
-5.90605
-5.95762
-6.01019
-6.06282
-6.1143
-6.16398
-6.21127
-6.25611
-6.29826
-6.33787
-6.37486
-6.40946
-6.44165
-6.47173
-5.7398
-5.75455
-5.78845
-5.83575
-5.88851
-5.94291
-5.99784
-6.05229
-6.10523
-6.15581
-6.20379
-6.24897
-6.29143
-6.3311
-6.36819
-6.40274
-6.43499
-6.46505
-5.69578
-5.7138
-5.75467
-5.80933
-5.86769
-5.92631
-5.98477
-6.04216
-6.09727
-6.14941
-6.19846
-6.24441
-6.28736
-6.32735
-6.36461
-6.39928
-6.43157
-6.4617
-5.64144
-5.66476
-5.71603
-5.78052
-5.8456
-5.90927
-5.97217
-6.03319
-6.0909
-6.14491
-6.19526
-6.24216
-6.28565
-6.32605
-6.36345
-6.39826
-6.43056
-6.46074
-5.57752
-5.60921
-5.67521
-5.7515
-5.82365
-5.89287
-5.96086
-6.02587
-6.08637
-6.14231
-6.19406
-6.24187
-6.28597
-6.32661
-6.36419
-6.39896
-6.43128
-6.46137
-5.50392
-5.54899
-5.63497
-5.72393
-5.80261
-5.87766
-5.9512
-6.0203
-6.08351
-6.14134
-6.19443
-6.24311
-6.28767
-6.32851
-6.36608
-6.40078
-6.43294
-6.46296
-5.4199
-5.4857
-5.59789
-5.69908
-5.78276
-5.86356
-5.94283
-6.01591
-6.08166
-6.1413
-6.19569
-6.24518
-6.29012
-6.33105
-6.36847
-6.40295
-6.43486
-6.46467
-5.3256
-5.42026
-5.56411
-5.67633
-5.76388
-5.85024
-5.93486
-6.01148
-6.07959
-6.14104
-6.19681
-6.24722
-6.29268
-6.33379
-6.37117
-6.40543
-6.43712
-6.46687
-5.22185
-5.35683
-5.53084
-5.65063
-5.74349
-5.83728
-5.92759
-6.00749
-6.07777
-6.14086
-6.19782
-6.24896
-6.29476
-6.33597
-6.37311
-6.40707
-6.43848
-6.46803
-5.09713
-5.31177
-5.50716
-5.62098
-5.7183
-5.82286
-5.92143
-6.00646
-6.08035
-6.14618
-6.20502
-6.25726
-6.30364
-6.34485
-6.38162
-6.415
-6.44601
-6.47588
-4.89553
-5.28469
-5.51731
-5.61501
-5.70717
-5.81579
-5.91784
-6.00463
-6.07992
-6.14709
-6.20702
-6.25998
-6.30668
-6.34786
-6.38416
-6.41632
-6.44559
-6.47329
-4.61741
-5.20402
-5.50873
-5.62022
-5.72103
-5.83825
-5.94569
-6.03499
-6.11119
-6.1785
-6.23807
-6.2902
-6.33557
-6.37511
-6.40936
-6.43819
-6.46252
-6.48261
-7.43858
-7.4387
-7.43875
-7.43874
-7.43843
-7.43717
-7.43453
-7.43104
-7.42772
-7.42562
-7.42578
-7.42841
-7.43297
-7.43864
-7.44463
-7.45022
-7.45484
-7.45803
-7.45979
-7.46043
-7.46027
-7.4595
-7.45838
-7.45721
-7.45624
-7.45562
-7.4553
-7.45513
-7.45493
-7.45456
-7.45402
-7.45331
-7.45237
-7.45112
-7.44961
-7.4481
-7.44721
-7.44764
-7.44952
-7.45225
-7.45495
-7.45713
-7.45897
-7.46085
-7.4632
-7.46651
-7.47033
-7.47356
-7.4759
-7.47962
-7.48864
-7.5067
-7.53344
-7.56808
-7.61161
-7.66471
-7.72638
-7.79505
-7.86857
-7.94432
-8.02024
-8.09506
-8.16746
-8.23603
-8.30002
-8.35914
-8.41319
-8.46219
-8.50616
-8.54521
-8.57943
-8.60894
-8.6338
-8.65407
-8.66979
-8.68097
-8.68761
-8.68969
-8.68719
-8.68006
-8.66826
-8.65175
-8.63046
-8.60434
-8.57333
-8.53737
-8.4964
-8.45034
-8.39914
-8.34272
-8.28102
-8.21399
-8.14157
-8.06373
-7.9804
-7.89155
-7.7972
-7.69745
-7.59231
-7.48145
-7.36451
-7.24155
-7.11273
-6.97808
-6.83762
-6.69138
-6.53938
-6.38166
-6.21825
-6.04923
-5.87466
-5.69462
-5.5092
-5.31852
-5.1227
-4.92185
-4.71612
-4.50566
-4.29061
-4.07115
-3.84745
-3.61968
-3.38803
-3.15271
-2.91391
-2.67183
-2.4267
-2.17873
-1.92814
-1.67518
-1.4201
-1.16315
-0.904559
-0.644605
-0.383626
-0.121862
0.140761
0.404143
0.667878
0.931703
1.19535
1.45859
1.7212
1.98297
2.2437
2.50319
2.76125
3.01772
3.27242
3.52519
3.77588
4.02431
4.27033
4.51381
4.7546
4.9926
5.2277
5.45982
5.68888
5.9148
6.13754
6.35702
6.57319
6.78598
6.99535
7.20124
7.40359
7.60236
7.7975
7.98896
8.17669
8.36062
8.54068
8.7168
8.88893
9.05712
9.22173
9.38249
9.54274
9.69391
-7.43985
-7.44004
-7.44043
-7.44083
-7.44083
-7.43999
-7.43798
-7.43541
-7.43359
-7.43352
-7.43548
-7.43931
-7.44447
-7.45028
-7.45608
-7.46136
-7.46573
-7.46898
-7.47092
-7.47132
-7.4703
-7.46816
-7.46537
-7.46242
-7.45975
-7.45768
-7.45625
-7.45531
-7.45458
-7.45392
-7.45328
-7.45264
-7.45195
-7.45109
-7.45
-7.44907
-7.44902
-7.45039
-7.453
-7.45594
-7.45805
-7.45895
-7.45907
-7.45836
-7.45699
-7.45668
-7.46002
-7.46697
-7.47371
-7.48074
-7.49137
-7.507
-7.53
-7.56434
-7.61146
-7.66979
-7.73695
-7.81033
-7.88699
-7.96475
-8.04189
-8.11647
-8.18675
-8.25233
-8.31323
-8.36928
-8.4205
-8.46696
-8.50876
-8.54599
-8.57873
-8.60705
-8.63098
-8.65056
-8.66577
-8.67661
-8.68305
-8.68505
-8.68256
-8.67553
-8.66391
-8.64763
-8.62664
-8.60087
-8.57026
-8.53475
-8.49428
-8.44879
-8.39819
-8.34243
-8.28145
-8.21518
-8.14359
-8.0666
-7.98415
-7.89618
-7.80259
-7.70327
-7.59808
-7.48713
-7.37061
-7.24846
-7.12055
-6.98686
-6.84738
-6.70211
-6.55109
-6.39435
-6.23192
-6.06387
-5.89026
-5.71118
-5.52671
-5.33696
-5.14204
-4.94209
-4.73724
-4.52764
-4.31343
-4.09479
-3.87188
-3.64488
-3.41398
-3.17937
-2.94125
-2.69983
-2.45532
-2.20793
-1.95788
-1.70543
-1.45079
-1.19421
-0.935887
-0.676014
-0.414801
-0.152536
0.110306
0.373527
0.637108
0.900794
1.16434
1.4275
1.69007
1.95183
2.21258
2.47212
2.73027
2.98685
3.24169
3.49464
3.74552
3.99417
4.24045
4.48419
4.72528
4.96359
5.19902
5.43147
5.66088
5.88715
6.11025
6.33009
6.54664
6.75981
6.96957
7.17584
7.37859
7.57776
7.7733
7.96518
8.15333
8.33773
8.51834
8.69509
8.86794
9.0368
9.20194
9.36297
9.5253
9.67572
-7.44119
-7.44118
-7.44122
-7.44131
-7.44141
-7.44146
-7.4417
-7.44268
-7.44489
-7.44848
-7.45324
-7.45879
-7.46469
-7.47048
-7.47578
-7.48028
-7.48376
-7.48611
-7.48724
-7.4871
-7.48572
-7.48321
-7.47977
-7.4756
-7.47096
-7.46615
-7.46147
-7.45722
-7.4536
-7.45071
-7.44849
-7.44672
-7.44512
-7.44372
-7.44296
-7.44351
-7.44591
-7.44996
-7.4543
-7.45705
-7.45682
-7.45458
-7.45254
-7.45221
-7.45299
-7.45486
-7.46052
-7.47122
-7.48621
-7.50609
-7.53158
-7.56295
-7.60106
-7.6467
-7.6995
-7.75813
-7.82114
-7.88688
-7.95377
-8.0207
-8.08674
-8.1509
-8.21225
-8.27031
-8.32483
-8.37562
-8.42256
-8.46559
-8.50466
-8.53975
-8.57084
-8.5979
-8.6209
-8.63981
-8.65458
-8.66515
-8.67147
-8.67348
-8.67111
-8.66428
-8.65294
-8.63702
-8.61644
-8.59115
-8.56107
-8.52614
-8.48629
-8.44147
-8.39159
-8.33659
-8.27641
-8.21099
-8.14027
-8.06421
-7.98274
-7.89581
-7.80335
-7.70526
-7.60139
-7.49175
-7.37643
-7.25543
-7.1287
-6.99621
-6.85795
-6.71392
-6.56414
-6.40865
-6.24747
-6.08066
-5.90829
-5.73044
-5.54719
-5.35866
-5.16494
-4.96617
-4.76248
-4.55402
-4.34093
-4.12339
-3.90155
-3.67559
-3.4457
-3.21207
-2.97489
-2.73438
-2.49074
-2.24418
-1.99493
-1.74323
-1.4893
-1.23337
-0.975675
-0.716422
-0.455826
-0.19415
0.0682268
0.331088
0.594325
0.857699
1.12097
1.3839
1.64628
1.90789
2.16854
2.42801
2.68613
2.94271
3.19759
3.45061
3.70159
3.95037
4.19681
4.44074
4.68204
4.92059
5.15627
5.38899
5.61867
5.84522
6.06859
6.28871
6.50552
6.71897
6.92898
7.13552
7.33851
7.53792
7.73369
7.92577
8.11413
8.29869
8.4794
8.65623
8.82926
8.99846
9.16447
9.32617
9.49115
9.6373
-7.44234
-7.44205
-7.44167
-7.44171
-7.44296
-7.44585
-7.45016
-7.45549
-7.4615
-7.46787
-7.47429
-7.4805
-7.48628
-7.49142
-7.49575
-7.49913
-7.50146
-7.50267
-7.50273
-7.5016
-7.49932
-7.49594
-7.49156
-7.48627
-7.48016
-7.47338
-7.46612
-7.45868
-7.45144
-7.44476
-7.43893
-7.43416
-7.43074
-7.42913
-7.43006
-7.43376
-7.43918
-7.44429
-7.44763
-7.44885
-7.44849
-7.44817
-7.4495
-7.45326
-7.45997
-7.47038
-7.48534
-7.50555
-7.53114
-7.56171
-7.59675
-7.636
-7.67933
-7.72658
-7.7774
-7.83132
-7.88773
-7.94583
-8.00476
-8.06373
-8.12203
-8.17898
-8.23397
-8.28655
-8.33639
-8.38323
-8.42689
-8.46722
-8.5041
-8.53744
-8.56715
-8.59315
-8.61536
-8.63369
-8.64808
-8.65842
-8.66465
-8.66667
-8.6644
-8.65777
-8.6467
-8.6311
-8.61091
-8.58604
-8.55645
-8.52205
-8.48278
-8.43858
-8.38936
-8.33508
-8.27564
-8.211
-8.14109
-8.06586
-7.98524
-7.89916
-7.80756
-7.71037
-7.60752
-7.49898
-7.38477
-7.26487
-7.13925
-7.00789
-6.87077
-6.72789
-6.57926
-6.42492
-6.2649
-6.09925
-5.92803
-5.75133
-5.56922
-5.3818
-5.1892
-4.99153
-4.78892
-4.58152
-4.36948
-4.15295
-3.93211
-3.70713
-3.47819
-3.24548
-3.0092
-2.76955
-2.52674
-2.28097
-2.03248
-1.78149
-1.52823
-1.27294
-1.01584
-0.757155
-0.497129
-0.236019
0.0258947
0.288393
0.551299
0.814371
1.07738
1.34008
1.60228
1.86375
2.12428
2.38369
2.64177
2.89835
3.15326
3.40634
3.6574
3.9063
4.15288
4.39698
4.63847
4.87723
5.11313
5.34609
5.57601
5.80281
6.02643
6.2468
6.46386
6.67755
6.88781
7.09457
7.29778
7.49738
7.69334
7.88559
8.0741
8.25882
8.43971
8.61676
8.79003
8.95953
9.126
9.28767
9.45327
9.59294
-7.44471
-7.4441
-7.44371
-7.44525
-7.44972
-7.45637
-7.46405
-7.47206
-7.47989
-7.48723
-7.49392
-7.4999
-7.50512
-7.5095
-7.51296
-7.51541
-7.51679
-7.51704
-7.51614
-7.51407
-7.51082
-7.50644
-7.50098
-7.49448
-7.48702
-7.47866
-7.4695
-7.45975
-7.44975
-7.44
-7.43113
-7.42397
-7.4195
-7.41869
-7.42147
-7.42601
-7.43063
-7.43461
-7.43782
-7.44071
-7.44407
-7.44904
-7.45665
-7.46793
-7.48369
-7.50416
-7.52886
-7.55724
-7.58905
-7.62393
-7.66165
-7.70219
-7.74551
-7.79151
-7.83992
-7.89037
-7.9424
-7.99546
-8.04896
-8.10236
-8.15513
-8.20678
-8.25687
-8.30504
-8.35099
-8.39446
-8.43524
-8.47314
-8.50801
-8.53971
-8.56809
-8.59304
-8.61443
-8.63215
-8.64608
-8.65611
-8.66214
-8.66408
-8.66181
-8.65525
-8.64432
-8.62893
-8.60899
-8.58443
-8.55519
-8.52119
-8.48236
-8.43864
-8.38995
-8.33623
-8.2774
-8.21341
-8.14418
-8.06966
-7.98978
-7.90447
-7.81366
-7.71729
-7.6153
-7.50768
-7.39439
-7.27542
-7.15072
-7.02029
-6.8841
-6.74216
-6.59448
-6.44108
-6.282
-6.11728
-5.947
-5.77121
-5.59001
-5.40349
-5.21178
-5.01498
-4.81323
-4.60667
-4.39546
-4.17975
-3.9597
-3.73549
-3.50731
-3.27533
-3.03976
-2.80079
-2.55863
-2.31349
-2.0656
-1.81518
-1.56246
-1.30767
-1.05103
-0.792778
-0.533172
-0.272455
-0.010885
0.251324
0.51396
0.776792
1.03958
1.30211
1.56415
1.8255
2.08595
2.3453
2.60335
2.85994
3.11487
3.36799
3.61913
3.86812
4.11481
4.35904
4.60068
4.8396
5.07568
5.30883
5.53895
5.76595
5.98979
6.21037
6.42765
6.64154
6.852
7.05896
7.26237
7.46217
7.65831
7.85075
8.03944
8.22434
8.40542
8.58265
8.75609
8.92566
9.09208
9.25302
9.41797
9.55063
-7.44912
-7.44819
-7.44878
-7.45354
-7.46139
-7.47029
-7.4793
-7.48791
-7.49583
-7.50299
-7.50937
-7.51497
-7.51973
-7.52357
-7.52643
-7.52823
-7.52892
-7.52846
-7.52684
-7.52404
-7.52007
-7.51495
-7.5087
-7.50131
-7.49279
-7.48323
-7.47279
-7.46164
-7.45017
-7.43906
-7.42914
-7.4217
-7.41778
-7.41723
-7.41862
-7.42084
-7.42387
-7.42807
-7.43378
-7.44088
-7.44969
-7.46146
-7.47719
-7.49694
-7.52042
-7.54719
-7.57696
-7.60933
-7.64409
-7.68105
-7.72007
-7.76108
-7.80398
-7.84863
-7.89482
-7.94227
-7.99065
-8.0396
-8.08875
-8.13771
-8.18612
-8.23361
-8.27984
-8.32451
-8.36733
-8.40806
-8.44647
-8.48236
-8.51553
-8.54582
-8.57305
-8.59706
-8.6177
-8.63483
-8.64831
-8.65801
-8.66381
-8.66559
-8.66325
-8.65667
-8.64578
-8.63048
-8.61069
-8.58632
-8.5573
-8.52356
-8.48504
-8.44166
-8.39336
-8.34007
-8.2817
-8.2182
-8.14951
-8.07555
-7.99625
-7.91155
-7.82138
-7.72568
-7.62439
-7.51748
-7.40491
-7.28665
-7.16268
-7.03297
-6.8975
-6.75628
-6.60931
-6.45663
-6.29825
-6.13424
-5.96464
-5.78954
-5.60901
-5.42316
-5.23209
-5.03593
-4.8348
-4.62887
-4.41826
-4.20314
-3.98367
-3.76002
-3.53238
-3.30093
-3.06587
-2.8274
-2.58572
-2.34104
-2.09359
-1.84358
-1.59125
-1.33681
-1.08051
-0.82258
-0.563278
-0.302842
-0.0415187
0.220472
0.482906
0.745553
1.00818
1.27057
1.53249
1.79374
2.05412
2.31342
2.57144
2.82801
3.08296
3.33611
3.58728
3.83633
4.08309
4.3274
4.56913
4.80816
5.04435
5.27762
5.50786
5.73501
5.95898
6.17971
6.39713
6.61117
6.82178
7.02888
7.23243
7.43237
7.62864
7.82121
8.01002
8.19503
8.37621
8.55351
8.72695
8.89638
9.06243
9.22231
9.38634
9.5122
-7.45457
-7.45414
-7.45708
-7.4647
-7.47393
-7.4831
-7.49183
-7.49998
-7.5075
-7.51435
-7.52047
-7.5258
-7.53023
-7.53371
-7.53616
-7.53753
-7.53776
-7.53685
-7.53475
-7.53148
-7.52706
-7.52148
-7.51467
-7.50657
-7.49731
-7.48709
-7.47612
-7.46467
-7.45322
-7.44254
-7.43381
-7.4278
-7.42402
-7.42161
-7.42065
-7.42163
-7.4252
-7.4312
-7.43961
-7.45109
-7.46615
-7.48472
-7.5066
-7.53151
-7.55919
-7.58931
-7.62163
-7.65599
-7.69222
-7.73015
-7.76962
-7.8105
-7.85266
-7.89596
-7.94025
-7.98532
-8.03095
-8.0769
-8.1229
-8.16868
-8.21396
-8.25844
-8.30186
-8.34394
-8.38443
-8.42309
-8.45969
-8.49402
-8.52587
-8.55504
-8.58133
-8.60457
-8.62459
-8.64121
-8.65428
-8.66365
-8.66919
-8.67078
-8.6683
-8.66164
-8.65071
-8.63541
-8.61565
-8.59135
-8.56244
-8.52885
-8.49051
-8.44735
-8.39931
-8.3463
-8.28825
-8.22511
-8.1568
-8.08325
-8.00439
-7.92015
-7.83047
-7.73526
-7.6345
-7.52812
-7.41608
-7.29836
-7.17492
-7.04573
-6.91078
-6.77008
-6.62362
-6.47143
-6.31355
-6.15003
-5.98091
-5.80627
-5.62619
-5.44078
-5.25015
-5.05442
-4.85372
-4.64819
-4.43799
-4.22327
-4.00418
-3.78092
-3.55364
-3.32255
-3.08784
-2.8497
-2.60834
-2.36398
-2.11682
-1.86709
-1.61501
-1.36083
-1.10476
-0.847053
-0.587963
-0.327728
-0.0665782
0.195251
0.45754
0.720048
0.982557
1.24484
1.50667
1.76785
2.02816
2.28741
2.5454
2.80195
3.05689
3.31004
3.56123
3.8103
4.05709
4.30144
4.54321
4.78227
5.01851
5.25183
5.48213
5.70935
5.9334
6.15421
6.37172
6.58584
6.79652
7.0037
7.20732
7.40732
7.60367
7.7963
7.98517
8.17022
8.35141
8.52867
8.70199
8.87113
9.03666
9.19537
9.35851
9.47806
-7.45877
-7.45971
-7.46543
-7.47414
-7.48301
-7.49152
-7.49967
-7.5074
-7.51463
-7.52126
-7.5272
-7.53234
-7.53658
-7.53986
-7.54209
-7.54323
-7.54323
-7.54208
-7.53976
-7.53627
-7.53163
-7.52575
-7.51854
-7.51016
-7.50086
-7.49078
-7.48015
-7.46942
-7.45936
-7.45069
-7.44375
-7.43791
-7.43275
-7.42908
-7.42778
-7.42919
-7.43386
-7.44228
-7.45449
-7.47033
-7.48949
-7.51172
-7.53677
-7.56431
-7.59413
-7.62598
-7.65967
-7.69503
-7.73188
-7.77007
-7.80946
-7.84992
-7.89134
-7.93358
-7.97649
-8.01993
-8.06372
-8.10768
-8.15159
-8.19525
-8.23842
-8.28087
-8.32237
-8.36267
-8.40154
-8.43876
-8.47409
-8.50731
-8.5382
-8.56656
-8.59216
-8.61482
-8.63434
-8.65054
-8.66326
-8.67233
-8.67761
-8.67899
-8.67632
-8.66952
-8.65847
-8.64309
-8.62327
-8.59895
-8.57004
-8.53648
-8.4982
-8.45514
-8.40723
-8.35439
-8.29654
-8.23362
-8.16557
-8.0923
-8.01374
-7.92983
-7.84048
-7.74563
-7.64523
-7.53922
-7.42755
-7.31019
-7.18711
-7.05828
-6.92368
-6.78331
-6.63718
-6.48531
-6.32775
-6.16452
-5.99569
-5.82134
-5.64154
-5.45639
-5.26601
-5.07053
-4.87008
-4.6648
-4.45484
-4.24035
-4.0215
-3.79846
-3.57141
-3.34053
-3.10603
-2.8681
-2.62694
-2.38277
-2.13579
-1.88623
-1.63432
-1.38029
-1.12437
-0.866817
-0.607871
-0.347769
-0.086741
0.174976
0.437156
0.699566
0.961984
1.22418
1.48595
1.74706
2.00732
2.26652
2.52448
2.781
3.03592
3.28905
3.54025
3.78932
4.0361
4.28044
4.5222
4.76125
4.99749
5.23082
5.46114
5.68837
5.91245
6.1333
6.35084
6.56499
6.77569
6.98289
7.18653
7.38655
7.58292
7.77557
7.96445
8.14949
8.33063
8.50779
8.68091
8.84968
9.01461
9.17216
9.33447
9.44835
-7.46002
-7.46272
-7.47005
-7.47842
-7.48657
-7.49456
-7.50235
-7.50984
-7.51692
-7.52347
-7.52935
-7.53445
-7.53867
-7.54193
-7.54414
-7.54527
-7.54528
-7.54414
-7.54184
-7.53836
-7.53368
-7.52769
-7.52052
-7.5124
-7.50353
-7.49415
-7.48472
-7.47573
-7.46756
-7.4602
-7.45344
-7.4472
-7.44191
-7.43863
-7.43824
-7.44131
-7.44825
-7.45911
-7.4736
-7.49153
-7.51259
-7.5365
-7.56299
-7.59177
-7.62261
-7.65528
-7.6896
-7.72538
-7.76245
-7.80067
-7.83992
-7.88007
-7.92098
-7.96253
-8.0046
-8.04705
-8.08973
-8.13249
-8.17515
-8.21752
-8.25942
-8.30063
-8.34096
-8.38017
-8.41806
-8.45439
-8.48894
-8.52148
-8.55177
-8.5796
-8.60474
-8.62699
-8.64615
-8.66203
-8.67445
-8.68324
-8.68826
-8.68938
-8.6865
-8.6795
-8.66827
-8.65272
-8.63277
-8.60832
-8.57931
-8.54567
-8.50736
-8.4643
-8.41642
-8.36364
-8.30589
-8.24309
-8.17517
-8.10207
-8.0237
-7.93998
-7.85084
-7.75622
-7.65604
-7.55025
-7.43881
-7.32168
-7.19881
-7.07018
-6.93578
-6.7956
-6.64966
-6.49796
-6.34056
-6.17749
-6.0088
-5.83458
-5.6549
-5.46987
-5.2796
-5.08423
-4.88389
-4.67872
-4.46887
-4.25449
-4.03575
-3.81282
-3.58587
-3.3551
-3.12071
-2.88288
-2.64183
-2.39776
-2.15088
-1.90141
-1.64959
-1.39565
-1.13982
-0.882354
-0.623502
-0.363484
-0.102542
0.159098
0.421197
0.683535
0.945879
1.20801
1.46971
1.73077
1.99097
2.25012
2.50803
2.76451
3.01938
3.27249
3.52365
3.7727
4.01945
4.26375
4.50546
4.74447
4.98067
5.21396
5.44424
5.67146
5.89552
6.11637
6.33389
6.54803
6.75871
6.96588
7.1695
7.3695
7.56585
7.75849
7.94734
8.13233
8.31338
8.49039
8.66326
8.83161
8.99591
9.15232
9.31387
9.4228
-7.45673
-7.46086
-7.46832
-7.4761
-7.48391
-7.4917
-7.49938
-7.50685
-7.51397
-7.52062
-7.52665
-7.53193
-7.53635
-7.53982
-7.54225
-7.54358
-7.54378
-7.5428
-7.54064
-7.53727
-7.53268
-7.5269
-7.52012
-7.51261
-7.50466
-7.49657
-7.48859
-7.48079
-7.47327
-7.46614
-7.45955
-7.45389
-7.44982
-7.44813
-7.44944
-7.45416
-7.46252
-7.47456
-7.49012
-7.50899
-7.53091
-7.55557
-7.58269
-7.612
-7.64329
-7.67633
-7.71093
-7.74691
-7.78412
-7.82241
-7.86164
-7.90167
-7.94238
-7.98364
-8.02535
-8.06736
-8.10955
-8.15176
-8.19384
-8.23562
-8.27693
-8.31758
-8.35737
-8.39609
-8.43353
-8.46946
-8.50366
-8.53587
-8.56586
-8.5934
-8.61826
-8.64024
-8.65912
-8.67472
-8.68685
-8.69535
-8.7001
-8.70096
-8.69783
-8.69058
-8.67912
-8.66336
-8.6432
-8.61855
-8.58936
-8.55557
-8.51714
-8.47399
-8.42605
-8.37325
-8.31549
-8.25272
-8.18485
-8.11181
-8.03352
-7.94989
-7.86085
-7.76633
-7.66626
-7.56059
-7.44927
-7.33224
-7.20947
-7.08094
-6.94662
-6.80651
-6.66063
-6.50899
-6.35163
-6.1886
-6.01994
-5.84574
-5.66606
-5.48103
-5.29076
-5.09539
-4.89507
-4.68991
-4.48008
-4.26572
-4.047
-3.82409
-3.59717
-3.36642
-3.13206
-2.89426
-2.65326
-2.40924
-2.16239
-1.91295
-1.66117
-1.40728
-1.1515
-0.894093
-0.6353
-0.375342
-0.114461
0.147116
0.409152
0.671426
0.933706
1.19577
1.45741
1.71839
1.97853
2.23762
2.49547
2.75189
3.00671
3.25976
3.51089
3.7599
4.00658
4.2508
4.49243
4.73136
4.96747
5.20068
5.4309
5.65805
5.88207
6.10288
6.32037
6.53444
6.74507
6.95218
7.15574
7.3557
7.552
7.74461
7.93341
8.11832
8.29925
8.47606
8.64864
8.81653
8.98018
9.13551
9.29633
9.40106
-7.44682
-7.4516
-7.45873
-7.46647
-7.47446
-7.48244
-7.49031
-7.49799
-7.50538
-7.51234
-7.51871
-7.52435
-7.52912
-7.53292
-7.53565
-7.53728
-7.53774
-7.53702
-7.53511
-7.53202
-7.52782
-7.52264
-7.51666
-7.51008
-7.50306
-7.49575
-7.48832
-7.4809
-7.47364
-7.46685
-7.46096
-7.45643
-7.45373
-7.45342
-7.45604
-7.46194
-7.4713
-7.48415
-7.5004
-7.51983
-7.5422
-7.56722
-7.59464
-7.62422
-7.65575
-7.68901
-7.72384
-7.76004
-7.79746
-7.83594
-7.87532
-7.9155
-7.95633
-7.9977
-8.03947
-8.08152
-8.12372
-8.16593
-8.208
-8.24977
-8.29106
-8.33169
-8.37144
-8.41013
-8.44752
-8.48341
-8.51754
-8.54969
-8.57959
-8.60702
-8.63175
-8.65355
-8.67222
-8.68757
-8.69942
-8.70764
-8.71209
-8.71266
-8.70923
-8.70169
-8.68996
-8.67392
-8.65349
-8.62859
-8.59914
-8.56511
-8.52648
-8.48317
-8.43511
-8.3822
-8.32437
-8.26154
-8.19364
-8.12059
-8.0423
-7.95868
-7.86966
-7.77515
-7.67512
-7.56947
-7.45818
-7.34118
-7.21843
-7.0899
-6.95558
-6.81546
-6.66956
-6.51789
-6.3605
-6.19743
-6.02872
-5.85446
-5.67471
-5.48959
-5.29925
-5.10383
-4.90346
-4.69827
-4.4884
-4.27401
-4.05525
-3.83232
-3.60537
-3.37462
-3.14024
-2.90246
-2.66146
-2.41745
-2.17061
-1.92117
-1.6694
-1.41554
-1.1598
-0.902442
-0.643699
-0.383803
-0.122979
0.138529
0.400503
0.662705
0.924917
1.18691
1.44847
1.70939
1.96946
2.22847
2.48624
2.74257
2.99731
3.2503
3.50139
3.75033
3.9969
4.24101
4.48252
4.72132
4.95732
5.19042
5.42053
5.6476
5.87156
6.09232
6.30973
6.52372
6.73425
6.94128
7.14477
7.34465
7.5409
7.73346
7.9222
8.10701
8.28778
8.46437
8.63663
8.80405
8.96706
9.12137
9.28146
9.38275
-7.42863
-7.43339
-7.44067
-7.4492
-7.45789
-7.46635
-7.47458
-7.48262
-7.49042
-7.49787
-7.50476
-7.5109
-7.51612
-7.52033
-7.52348
-7.52551
-7.52638
-7.52609
-7.52465
-7.52211
-7.51852
-7.51401
-7.50868
-7.50269
-7.49616
-7.48924
-7.48208
-7.4749
-7.46804
-7.46186
-7.4567
-7.45301
-7.45132
-7.4521
-7.45578
-7.46266
-7.47288
-7.48645
-7.50325
-7.52311
-7.54578
-7.57105
-7.59869
-7.62849
-7.66025
-7.69379
-7.7289
-7.76542
-7.80317
-7.84201
-7.88179
-7.92239
-7.96367
-8.00549
-8.04772
-8.09022
-8.13284
-8.17546
-8.21792
-8.26007
-8.30172
-8.34269
-8.38278
-8.42179
-8.45947
-8.4956
-8.52992
-8.5622
-8.59218
-8.61961
-8.64426
-8.66592
-8.68439
-8.69948
-8.711
-8.71884
-8.7229
-8.72308
-8.71929
-8.71141
-8.69935
-8.683
-8.66225
-8.63701
-8.60722
-8.57288
-8.534
-8.49051
-8.44229
-8.38925
-8.3313
-8.26837
-8.2004
-8.1273
-8.04897
-7.96532
-7.87626
-7.78174
-7.68168
-7.57603
-7.46472
-7.3477
-7.22492
-7.09636
-6.96199
-6.82182
-6.67586
-6.52414
-6.36668
-6.20353
-6.03475
-5.86039
-5.68051
-5.49525
-5.30481
-5.10932
-4.9089
-4.70366
-4.49375
-4.27932
-4.06053
-3.83757
-3.61061
-3.37984
-3.14547
-2.90769
-2.66672
-2.42273
-2.17587
-1.92641
-1.67466
-1.42084
-1.16516
-0.907872
-0.649197
-0.389369
-0.12862
0.132814
0.394709
0.656831
0.918959
1.18087
1.44234
1.70317
1.96315
2.22207
2.47973
2.73597
2.99061
3.24352
3.49459
3.74347
3.98991
4.23385
4.47521
4.71386
4.94972
5.18268
5.41267
5.63962
5.86352
6.08422
6.30154
6.51541
6.72583
6.93276
7.13615
7.33596
7.53214
7.72465
7.91333
8.09801
8.27862
8.45497
8.6269
8.79384
8.95622
9.10959
9.26893
9.36751
-7.40174
-7.40631
-7.41454
-7.4245
-7.43421
-7.44324
-7.45189
-7.46046
-7.46897
-7.47722
-7.48487
-7.49167
-7.49747
-7.50223
-7.5059
-7.50846
-7.50989
-7.51017
-7.50931
-7.50733
-7.50431
-7.50032
-7.49545
-7.48981
-7.48353
-7.4768
-7.46986
-7.46299
-7.45649
-7.45071
-7.44611
-7.44315
-7.44232
-7.44404
-7.44866
-7.4564
-7.46737
-7.48154
-7.49879
-7.51898
-7.54191
-7.5674
-7.59526
-7.62532
-7.65739
-7.6913
-7.72684
-7.76384
-7.80211
-7.84151
-7.8819
-7.92313
-7.96507
-8.00757
-8.05049
-8.0937
-8.13705
-8.1804
-8.22357
-8.26639
-8.3087
-8.35031
-8.39101
-8.43058
-8.46878
-8.50536
-8.54006
-8.57259
-8.60266
-8.63001
-8.65445
-8.67581
-8.69393
-8.70858
-8.71957
-8.72685
-8.73039
-8.73013
-8.72594
-8.71774
-8.70539
-8.68874
-8.66768
-8.64208
-8.61183
-8.57709
-8.53798
-8.49434
-8.44599
-8.39281
-8.33474
-8.27172
-8.20369
-8.13055
-8.05219
-7.9685
-7.8794
-7.78485
-7.68477
-7.57911
-7.46779
-7.35076
-7.22796
-7.09936
-6.96495
-6.82473
-6.67873
-6.52696
-6.36945
-6.20624
-6.0374
-5.86297
-5.68298
-5.49758
-5.30703
-5.1115
-4.91104
-4.70577
-4.49583
-4.28137
-4.06257
-3.8396
-3.61266
-3.38192
-3.14759
-2.90988
-2.66898
-2.42508
-2.17828
-1.92885
-1.67716
-1.42343
-1.16786
-0.910686
-0.652127
-0.392412
-0.131785
0.129533
0.391302
0.653302
0.915301
1.17709
1.43843
1.69913
1.95898
2.21776
2.47529
2.73138
2.98588
3.23871
3.48982
3.73871
3.985
4.22876
4.46993
4.70842
4.94411
5.17693
5.40678
5.63362
5.85747
6.07815
6.29537
6.50911
6.7194
6.92621
7.1295
7.32923
7.52535
7.71782
7.90644
8.09099
8.27141
8.44752
8.61911
8.78558
8.94736
9.09984
9.2584
9.35498
-7.36741
-7.37231
-7.3821
-7.39388
-7.4047
-7.41445
-7.42389
-7.43319
-7.44243
-7.45163
-7.4604
-7.46824
-7.47478
-7.48005
-7.48426
-7.48742
-7.48945
-7.49033
-7.49002
-7.48856
-7.48598
-7.48233
-7.4777
-7.47222
-7.46606
-7.45944
-7.45259
-7.44582
-7.43951
-7.43408
-7.42998
-7.42767
-7.42758
-7.43008
-7.43546
-7.44387
-7.45538
-7.46998
-7.48757
-7.50804
-7.53122
-7.55695
-7.58507
-7.61543
-7.64786
-7.68216
-7.71817
-7.75569
-7.79457
-7.83464
-7.87576
-7.91778
-7.96054
-8.00388
-8.04769
-8.0918
-8.13607
-8.18034
-8.22441
-8.26812
-8.31126
-8.35364
-8.39504
-8.43522
-8.47394
-8.51092
-8.54587
-8.57846
-8.60838
-8.63536
-8.65929
-8.6801
-8.69764
-8.71161
-8.72171
-8.72813
-8.73107
-8.73041
-8.726
-8.71767
-8.70524
-8.68851
-8.6673
-8.64142
-8.61066
-8.57546
-8.53619
-8.49247
-8.44399
-8.39066
-8.33244
-8.26931
-8.20122
-8.12805
-8.04964
-7.96587
-7.8767
-7.78207
-7.68195
-7.57627
-7.46495
-7.3479
-7.22506
-7.0964
-6.96194
-6.82167
-6.67563
-6.52382
-6.36628
-6.20304
-6.03415
-5.85971
-5.6798
-5.49454
-5.30405
-5.10846
-4.90791
-4.70254
-4.4925
-4.27794
-4.05905
-3.83602
-3.60904
-3.37829
-3.14398
-2.90632
-2.66552
-2.42177
-2.17527
-1.92623
-1.67485
-1.42137
-1.16605
-0.909121
-0.650807
-0.391344
-0.130971
0.130084
0.391586
0.653311
0.915034
1.17654
1.4376
1.69802
1.95756
2.21604
2.47325
2.72902
2.98318
3.23572
3.48672
3.73554
3.98162
4.22515
4.46611
4.7044
4.93991
5.17255
5.40225
5.62896
5.85283
6.0736
6.29078
6.50438
6.71455
6.92125
7.12445
7.32411
7.5202
7.7127
7.90128
8.0857
8.26594
8.44181
8.61306
8.77907
8.94027
9.09192
9.24965
9.3449
-7.32878
-7.3346
-7.34648
-7.3605
-7.37247
-7.38252
-7.39237
-7.40276
-7.41334
-7.42373
-7.43363
-7.44256
-7.44994
-7.4558
-7.46053
-7.46427
-7.46688
-7.4683
-7.46848
-7.46741
-7.4651
-7.46162
-7.45708
-7.45161
-7.44537
-7.43863
-7.43168
-7.4249
-7.41869
-7.4135
-7.40977
-7.40792
-7.40834
-7.41133
-7.41714
-7.42589
-7.43767
-7.45245
-7.47018
-7.49076
-7.51406
-7.53994
-7.56827
-7.59889
-7.63164
-7.66633
-7.70278
-7.74083
-7.78034
-7.82113
-7.86303
-7.9059
-7.94957
-7.99388
-8.03867
-8.08377
-8.12901
-8.17418
-8.21909
-8.26356
-8.30737
-8.35031
-8.39217
-8.4327
-8.47164
-8.50871
-8.54357
-8.57588
-8.60518
-8.63123
-8.65413
-8.67406
-8.69086
-8.7039
-8.71255
-8.71747
-8.71954
-8.71853
-8.71413
-8.70603
-8.6939
-8.67743
-8.6565
-8.63112
-8.60129
-8.56698
-8.52809
-8.48444
-8.4359
-8.38241
-8.32402
-8.26074
-8.19251
-8.11918
-8.04061
-7.95667
-7.86731
-7.77253
-7.67227
-7.56646
-7.45503
-7.33786
-7.21489
-7.0861
-6.95151
-6.81112
-6.66496
-6.51304
-6.35539
-6.19204
-6.02307
-5.84857
-5.66871
-5.48356
-5.2931
-5.09744
-4.89678
-4.69129
-4.48112
-4.26645
-4.04747
-3.82437
-3.59733
-3.36656
-3.13225
-2.89463
-2.6539
-2.41031
-2.16413
-1.91549
-1.66446
-1.41131
-1.1563
-0.899683
-0.641686
-0.382557
-0.122522
0.138176
0.399315
0.660659
0.921994
1.1831
1.44375
1.70373
1.96282
2.22082
2.47753
2.73276
2.9863
3.23801
3.48775
3.73544
3.98092
4.22402
4.46459
4.70251
4.93767
5.16997
5.39933
5.62573
5.84944
6.07019
6.28729
6.50074
6.71077
6.91737
7.1205
7.3201
7.51621
7.70886
7.89753
8.08184
8.26191
8.43755
8.60849
8.77407
8.93473
9.08561
9.24248
9.33704
-7.28959
-7.29666
-7.3111
-7.32707
-7.33936
-7.34987
-7.36086
-7.37244
-7.38414
-7.39566
-7.40666
-7.41661
-7.42486
-7.43143
-7.43681
-7.44119
-7.4444
-7.44632
-7.44689
-7.44609
-7.44392
-7.44043
-7.43574
-7.43001
-7.42347
-7.41639
-7.40914
-7.40211
-7.39574
-7.39045
-7.38668
-7.38481
-7.3852
-7.38814
-7.39385
-7.40245
-7.41404
-7.42861
-7.44613
-7.46654
-7.48974
-7.51563
-7.54409
-7.57495
-7.60802
-7.64312
-7.68007
-7.71873
-7.75893
-7.80049
-7.84322
-7.88694
-7.93146
-7.97662
-8.02223
-8.0681
-8.11403
-8.1598
-8.20522
-8.25009
-8.29419
-8.33732
-8.37924
-8.41973
-8.45854
-8.49539
-8.52994
-8.56166
-8.58975
-8.61377
-8.63436
-8.65261
-8.6687
-8.68195
-8.69164
-8.69748
-8.69969
-8.69857
-8.6941
-8.68601
-8.67392
-8.65748
-8.63664
-8.61167
-8.58277
-8.54933
-8.51078
-8.46718
-8.41862
-8.36509
-8.30666
-8.24331
-8.17497
-8.10153
-8.02285
-7.93881
-7.84938
-7.75455
-7.65426
-7.54842
-7.43696
-7.31976
-7.19677
-7.06797
-6.93337
-6.79298
-6.64681
-6.49488
-6.33721
-6.17385
-6.00485
-5.83033
-5.65042
-5.4652