/*--------------------------------*- C++ -*----------------------------------*\
  =========                 |
  \\      /  F ield         | OpenFOAM: The Open Source CFD Toolbox
   \\    /   O peration     | Website:  https://openfoam.org
    \\  /    A nd           | Version:  8
     \\/     M anipulation  |
\*---------------------------------------------------------------------------*/
FoamFile
{
    version     2.0;
    format      ascii;
    class       surfaceScalarField;
    location    "1400";
    object      phi;
}
// * * * * * * * * * * * * * * * * * * * * * * * * * * * * * * * * * * * * * //

dimensions      [0 3 -1 0 0 0 0];

internalField   nonuniform List<scalar> 
24170
(
2.98869e-06
1.45303e-07
2.84548e-06
1.43516e-07
2.71978e-06
1.25952e-07
2.61115e-06
1.08866e-07
2.51746e-06
9.40701e-08
2.43529e-06
8.25959e-08
2.36158e-06
7.40559e-08
2.29465e-06
6.68628e-08
2.2368e-06
5.77722e-08
2.19131e-06
4.54076e-08
2.15501e-06
3.62362e-08
2.12563e-06
2.93561e-08
2.10313e-06
2.246e-08
2.08662e-06
1.64717e-08
2.07583e-06
1.0765e-08
2.06929e-06
6.53262e-09
2.06622e-06
3.06684e-09
-3.49492e-09
2.06969e-06
3.52845e-06
7.33643e-08
3.57093e-06
1.01803e-07
3.5859e-06
1.11648e-07
3.58216e-06
1.13165e-07
3.56618e-06
1.10585e-07
3.54332e-06
1.05868e-07
3.51658e-06
1.00875e-07
3.48607e-06
9.7052e-08
3.452e-06
9.14747e-08
3.41733e-06
7.97803e-08
3.38506e-06
6.8313e-08
3.35508e-06
5.92375e-08
3.32631e-06
5.1172e-08
3.29822e-06
4.45576e-08
3.27121e-06
3.77868e-08
3.2456e-06
3.21531e-08
3.22169e-06
2.6973e-08
2.00706e-08
3.19812e-06
3.83038e-06
5.52055e-08
3.84607e-06
8.61435e-08
3.86274e-06
9.4991e-08
3.87789e-06
9.80933e-08
3.88949e-06
9.915e-08
3.89797e-06
9.76118e-08
3.90413e-06
9.48194e-08
3.90901e-06
9.21359e-08
3.91243e-06
8.80142e-08
3.9124e-06
7.97734e-08
3.90973e-06
7.09745e-08
3.90557e-06
6.33876e-08
3.89986e-06
5.68516e-08
3.89288e-06
5.14949e-08
3.88454e-06
4.60871e-08
3.87566e-06
4.09967e-08
3.86659e-06
3.5999e-08
2.95176e-08
3.85711e-06
4.21773e-06
4.20016e-08
4.22484e-06
7.90237e-08
4.23341e-06
8.64589e-08
4.24264e-06
8.8961e-08
4.25134e-06
9.05764e-08
4.25899e-06
9.00241e-08
4.26583e-06
8.78568e-08
4.27262e-06
8.50686e-08
4.27938e-06
8.09551e-08
4.28466e-06
7.42719e-08
4.28846e-06
6.70111e-08
4.29139e-06
6.0354e-08
4.29359e-06
5.45659e-08
4.29534e-06
4.96847e-08
4.29643e-06
4.49462e-08
4.29704e-06
4.03478e-08
4.29727e-06
3.57286e-08
3.03844e-08
4.29636e-06
4.64695e-06
3.23389e-08
4.65539e-06
7.04719e-08
4.66303e-06
7.87438e-08
4.67031e-06
8.16693e-08
4.67726e-06
8.36894e-08
4.68357e-06
8.37523e-08
4.68937e-06
8.20515e-08
4.69512e-06
7.92987e-08
4.70083e-06
7.52372e-08
4.70568e-06
6.94419e-08
4.70961e-06
6.30976e-08
4.71291e-06
5.70452e-08
4.7158e-06
5.16518e-08
4.71852e-06
4.69264e-08
4.72101e-06
4.24211e-08
4.72328e-06
3.80297e-08
4.72532e-06
3.36512e-08
2.90693e-08
4.72663e-06
5.12132e-06
2.5594e-08
5.13092e-06
6.08389e-08
5.13877e-06
7.08864e-08
5.14573e-06
7.47287e-08
5.15233e-06
7.71073e-08
5.15842e-06
7.76199e-08
5.16407e-06
7.62777e-08
5.16954e-06
7.36453e-08
5.17483e-06
6.97886e-08
5.17945e-06
6.46953e-08
5.18333e-06
5.91117e-08
5.18664e-06
5.36468e-08
5.18958e-06
4.86409e-08
5.19235e-06
4.41006e-08
5.19495e-06
3.97725e-08
5.19739e-06
3.55495e-08
5.19961e-06
3.1403e-08
2.72577e-08
5.20138e-06
5.64587e-06
2.072e-08
5.65547e-06
5.11554e-08
5.66349e-06
6.28026e-08
5.67055e-06
6.76715e-08
5.67723e-06
7.04293e-08
5.68349e-06
7.13528e-08
5.68935e-06
7.03916e-08
5.69496e-06
6.80252e-08
5.70027e-06
6.45132e-08
5.70497e-06
6.0033e-08
5.70902e-06
5.5089e-08
5.71252e-06
5.01472e-08
5.71564e-06
4.54985e-08
5.71854e-06
4.1171e-08
5.72126e-06
3.70304e-08
5.72378e-06
3.30018e-08
5.72606e-06
2.90916e-08
2.53182e-08
5.728e-06
4.40902e-06
1.78121e-08
4.41531e-06
4.49559e-08
4.42113e-06
5.70523e-08
4.42638e-06
6.24927e-08
4.43135e-06
6.54997e-08
4.43605e-06
6.66441e-08
4.44048e-06
6.59234e-08
4.44465e-06
6.38042e-08
4.44855e-06
6.05868e-08
4.45204e-06
5.65133e-08
4.45511e-06
5.19874e-08
4.45782e-06
4.74071e-08
4.46025e-06
4.30276e-08
4.4625e-06
3.88965e-08
4.46457e-06
3.49276e-08
4.46647e-06
3.10794e-08
4.46817e-06
2.73783e-08
2.384e-08
4.46964e-06
5.1425e-06
1.51796e-08
5.14875e-06
3.86667e-08
5.15491e-06
5.08854e-08
5.16065e-06
5.67576e-08
5.16617e-06
5.99872e-08
5.17145e-06
6.13402e-08
5.17646e-06
6.0896e-08
5.1812e-06
5.90756e-08
5.18562e-06
5.62015e-08
5.18962e-06
5.25443e-08
5.19317e-06
4.84486e-08
5.19632e-06
4.42506e-08
5.19916e-06
4.01731e-08
5.20176e-06
3.62765e-08
5.20414e-06
3.25258e-08
5.2063e-06
2.88973e-08
5.20823e-06
2.54321e-08
2.21657e-08
5.2099e-06
5.99817e-06
1.27994e-08
6.00423e-06
3.26836e-08
6.01062e-06
4.45695e-08
6.01679e-06
5.06549e-08
6.02282e-06
5.39925e-08
6.02869e-06
5.54782e-08
6.03433e-06
5.52727e-08
6.03969e-06
5.37428e-08
6.0447e-06
5.12266e-08
6.04927e-06
4.7995e-08
6.05337e-06
4.43523e-08
6.05705e-06
4.05696e-08
6.06037e-06
3.68374e-08
6.06339e-06
3.32428e-08
6.06614e-06
2.97573e-08
6.06862e-06
2.64022e-08
6.07084e-06
2.32115e-08
2.02167e-08
6.07279e-06
6.99644e-06
1.06465e-08
7.00213e-06
2.70116e-08
7.00864e-06
3.80847e-08
7.01516e-06
4.4162e-08
7.02166e-06
4.74989e-08
7.0281e-06
4.90432e-08
7.03435e-06
4.90203e-08
7.04034e-06
4.77847e-08
7.04597e-06
4.56234e-08
7.05116e-06
4.28311e-08
7.05586e-06
3.96456e-08
7.06012e-06
3.63023e-08
7.06399e-06
3.29723e-08
7.06751e-06
2.97146e-08
7.0707e-06
2.65606e-08
7.07357e-06
2.35228e-08
7.07614e-06
2.0642e-08
1.79415e-08
7.07842e-06
8.16102e-06
8.62785e-09
8.16627e-06
2.18025e-08
8.17277e-06
3.16192e-08
8.17956e-06
3.7392e-08
8.18648e-06
4.05909e-08
8.19343e-06
4.21003e-08
8.20026e-06
4.22301e-08
8.20684e-06
4.12208e-08
8.21309e-06
3.94276e-08
8.21889e-06
3.70421e-08
8.22422e-06
3.4325e-08
8.2291e-06
3.14366e-08
8.23355e-06
2.8524e-08
8.23761e-06
2.56549e-08
8.24131e-06
2.28699e-08
8.24464e-06
2.0189e-08
8.24763e-06
1.76531e-08
1.52824e-08
8.2503e-06
9.51959e-06
6.78438e-09
9.52442e-06
1.70063e-08
9.53081e-06
2.5252e-08
9.5378e-06
3.04192e-08
9.54507e-06
3.33174e-08
9.55249e-06
3.47337e-08
9.55983e-06
3.49012e-08
9.56698e-06
3.41381e-08
9.57378e-06
3.26397e-08
9.58019e-06
3.06796e-08
9.58613e-06
2.83962e-08
9.59162e-06
2.59709e-08
9.59666e-06
2.34902e-08
9.6013e-06
2.1042e-08
9.60551e-06
1.86464e-08
9.60935e-06
1.63584e-08
9.61281e-06
1.41867e-08
1.21705e-08
9.61591e-06
1.11044e-05
5.06011e-09
1.11089e-05
1.25442e-08
1.11151e-05
1.90077e-08
1.11223e-05
2.32744e-08
1.11299e-05
2.57377e-08
1.11377e-05
2.692e-08
1.11456e-05
2.71119e-08
1.11532e-05
2.64995e-08
1.11606e-05
2.53141e-08
1.11676e-05
2.37207e-08
1.11741e-05
2.18793e-08
1.11802e-05
1.98969e-08
1.11859e-05
1.78686e-08
1.11911e-05
1.58452e-08
1.11958e-05
1.388e-08
1.12002e-05
1.19933e-08
1.12041e-05
1.02197e-08
8.56723e-09
1.12077e-05
1.29532e-05
3.44664e-09
1.29575e-05
8.31981e-09
1.29636e-05
1.28391e-08
1.29709e-05
1.59993e-08
1.29788e-05
1.78128e-08
1.29871e-05
1.86873e-08
1.29954e-05
1.87953e-08
1.30036e-05
1.83076e-08
1.30116e-05
1.73809e-08
1.30192e-05
1.61486e-08
1.30263e-05
1.47245e-08
1.3033e-05
1.31911e-08
1.30393e-05
1.1618e-08
1.30451e-05
1.00512e-08
1.30504e-05
8.52878e-09
1.30553e-05
7.07487e-09
1.30598e-05
5.70949e-09
4.44859e-09
1.30639e-05
1.511e-05
1.88962e-09
1.51141e-05
4.18792e-09
1.51203e-05
6.68205e-09
1.51277e-05
8.48808e-09
1.51361e-05
9.50553e-09
1.51448e-05
9.93741e-09
1.51538e-05
9.88737e-09
1.51626e-05
9.46921e-09
1.51712e-05
8.76952e-09
1.51795e-05
7.87965e-09
1.51873e-05
6.86556e-09
1.51947e-05
5.7863e-09
1.52016e-05
4.68313e-09
1.52081e-05
3.59149e-09
1.52141e-05
2.5355e-09
1.52196e-05
1.53467e-09
1.52247e-05
6.0141e-10
-2.49855e-10
1.52294e-05
1.7626e-05
3.13096e-10
1.76302e-05
-2.28689e-11
1.76367e-05
2.86031e-10
1.76446e-05
5.42886e-10
1.76535e-05
6.08306e-10
1.7663e-05
4.7208e-10
1.76727e-05
2.18591e-10
1.76823e-05
-1.90167e-10
1.76918e-05
-6.66549e-10
1.77009e-05
-1.23382e-09
1.77095e-05
-1.82208e-09
1.77178e-05
-2.44413e-09
1.77255e-05
-3.05129e-09
1.77327e-05
-3.6506e-09
1.77394e-05
-4.21118e-09
1.77457e-05
-4.73729e-09
1.77515e-05
-5.21123e-09
-5.63184e-09
1.77569e-05
1.78277e-05
-1.20884e-09
1.78319e-05
-4.08142e-09
1.78381e-05
-5.94084e-09
1.78459e-05
-7.16384e-09
1.78546e-05
-8.09958e-09
1.78639e-05
-8.73172e-09
1.78733e-05
-9.24747e-09
1.78827e-05
-9.59339e-09
1.78919e-05
-9.90715e-09
1.79008e-05
-1.01255e-08
1.79093e-05
-1.03443e-08
1.79174e-05
-1.05039e-08
1.7925e-05
-1.06643e-08
1.79321e-05
-1.07794e-08
1.79387e-05
-1.08858e-08
1.7945e-05
-1.09514e-08
1.79507e-05
-1.10003e-08
-1.10057e-08
1.79561e-05
1.58828e-05
-2.6509e-09
1.58867e-05
-7.95963e-09
1.58926e-05
-1.17405e-08
1.58997e-05
-1.43038e-08
1.59077e-05
-1.59952e-08
1.5916e-05
-1.70927e-08
1.59246e-05
-1.77083e-08
1.5933e-05
-1.8036e-08
1.59412e-05
-1.80975e-08
1.59491e-05
-1.80442e-08
1.59566e-05
-1.78659e-08
1.59637e-05
-1.76519e-08
1.59705e-05
-1.73769e-08
1.59767e-05
-1.70944e-08
1.59826e-05
-1.67807e-08
1.59881e-05
-1.64668e-08
1.59933e-05
-1.6133e-08
-1.57959e-08
1.5998e-05
1.41502e-05
-4.13786e-09
1.41542e-05
-1.19539e-08
1.416e-05
-1.75624e-08
1.4167e-05
-2.12206e-08
1.41745e-05
-2.35442e-08
1.41824e-05
-2.49104e-08
1.41903e-05
-2.55989e-08
1.41981e-05
-2.57607e-08
1.42055e-05
-2.55952e-08
1.42127e-05
-2.51976e-08
1.42195e-05
-2.46728e-08
1.42259e-05
-2.40605e-08
1.42319e-05
-2.3409e-08
1.42376e-05
-2.27353e-08
1.42428e-05
-2.20616e-08
1.42478e-05
-2.13902e-08
1.42523e-05
-2.07318e-08
-2.00787e-08
1.42566e-05
1.26067e-05
-5.7835e-09
1.2611e-05
-1.63173e-08
1.26171e-05
-2.36455e-08
1.26241e-05
-2.81806e-08
1.26315e-05
-3.09255e-08
1.2639e-05
-3.24515e-08
1.26465e-05
-3.30593e-08
1.26538e-05
-3.30096e-08
1.26607e-05
-3.25296e-08
1.26673e-05
-3.17792e-08
1.26735e-05
-3.08805e-08
1.26794e-05
-2.98838e-08
1.26848e-05
-2.8863e-08
1.26899e-05
-2.78254e-08
1.26947e-05
-2.68145e-08
1.26991e-05
-2.58201e-08
1.27032e-05
-2.48645e-08
-2.39336e-08
1.27071e-05
1.12317e-05
-7.72404e-09
1.12366e-05
-2.12356e-08
1.12431e-05
-3.01195e-08
1.12502e-05
-3.52581e-08
1.12575e-05
-3.82617e-08
1.12649e-05
-3.98065e-08
1.12721e-05
-4.02302e-08
1.12789e-05
-3.9868e-08
1.12855e-05
-3.90166e-08
1.12916e-05
-3.78837e-08
1.12973e-05
-3.65828e-08
1.13026e-05
-3.52148e-08
1.13076e-05
-3.38153e-08
1.13122e-05
-3.24461e-08
1.13165e-05
-3.1104e-08
1.13205e-05
-2.98232e-08
1.13242e-05
-2.85862e-08
-2.74118e-08
1.13277e-05
1.0007e-05
-1.01426e-08
1.00127e-05
-2.68999e-08
1.00196e-05
-3.70623e-08
1.00268e-05
-4.25121e-08
1.00341e-05
-4.55822e-08
1.00413e-05
-4.70199e-08
1.00483e-05
-4.7144e-08
1.00548e-05
-4.63863e-08
1.00609e-05
-4.51174e-08
1.00666e-05
-4.35681e-08
1.00719e-05
-4.18659e-08
1.00768e-05
-4.01039e-08
1.00813e-05
-3.83487e-08
1.00856e-05
-3.66378e-08
1.00895e-05
-3.49993e-08
1.00931e-05
-3.34356e-08
1.00964e-05
-3.19569e-08
-3.05474e-08
1.00996e-05
8.91627e-06
-1.3341e-08
8.92276e-06
-3.34026e-08
8.93011e-06
-4.44108e-08
8.93747e-06
-4.98699e-08
8.94478e-06
-5.28857e-08
8.95184e-06
-5.40877e-08
8.95851e-06
-5.38085e-08
8.96474e-06
-5.26115e-08
8.97052e-06
-5.08974e-08
8.97587e-06
-4.89046e-08
8.9808e-06
-4.67839e-08
8.98535e-06
-4.46286e-08
8.98953e-06
-4.25171e-08
8.99338e-06
-4.048e-08
8.99694e-06
-3.85488e-08
9.00024e-06
-3.67263e-08
9.00331e-06
-3.50123e-08
-3.33986e-08
9.00616e-06
7.94489e-06
-1.75594e-08
7.95238e-06
-4.09049e-08
7.96009e-06
-5.21369e-08
7.96754e-06
-5.73274e-08
7.97484e-06
-6.01751e-08
7.98181e-06
-6.10525e-08
7.98832e-06
-6.03337e-08
7.99436e-06
-5.86439e-08
7.99994e-06
-5.6452e-08
8.00506e-06
-5.40121e-08
8.00974e-06
-5.14553e-08
8.01402e-06
-4.89036e-08
8.01793e-06
-4.64125e-08
8.0215e-06
-4.40447e-08
8.02479e-06
-4.1814e-08
8.02782e-06
-3.97404e-08
8.03062e-06
-3.78019e-08
-3.59862e-08
8.03321e-06
7.07969e-06
-2.29288e-08
7.0886e-06
-4.98144e-08
7.09675e-06
-6.0259e-08
7.10442e-06
-6.4984e-08
7.11191e-06
-6.76615e-08
7.11904e-06
-6.81788e-08
7.12569e-06
-6.69687e-08
7.13183e-06
-6.47884e-08
7.13744e-06
-6.20627e-08
7.14254e-06
-5.91002e-08
7.14714e-06
-5.60524e-08
7.15129e-06
-5.30306e-08
7.15501e-06
-5.01339e-08
7.15836e-06
-4.73796e-08
7.16138e-06
-4.48311e-08
7.16413e-06
-4.24684e-08
7.16662e-06
-4.02904e-08
-3.82733e-08
7.16892e-06
6.30959e-06
-3.00124e-08
6.32075e-06
-6.08924e-08
6.32992e-06
-6.9457e-08
6.33866e-06
-7.37211e-08
6.34727e-06
-7.6263e-08
6.35541e-06
-7.63058e-08
6.36287e-06
-7.44553e-08
6.36963e-06
-7.15092e-08
6.37562e-06
-6.80655e-08
6.38089e-06
-6.43696e-08
6.38548e-06
-6.06303e-08
6.38942e-06
-5.69833e-08
6.3928e-06
-5.34831e-08
6.39564e-06
-5.02261e-08
6.39804e-06
-4.72216e-08
6.40006e-06
-4.44821e-08
6.40175e-06
-4.19752e-08
-3.97026e-08
6.40318e-06
5.62865e-06
-4.37469e-08
5.64453e-06
-7.66978e-08
5.65816e-06
-8.30797e-08
5.6715e-06
-8.70593e-08
5.68393e-06
-8.8682e-08
5.69479e-06
-8.7175e-08
5.70383e-06
-8.34801e-08
5.71106e-06
-7.87394e-08
5.71657e-06
-7.35925e-08
5.72053e-06
-6.83418e-08
5.7231e-06
-6.321e-08
5.72447e-06
-5.83375e-08
5.72479e-06
-5.3809e-08
5.72423e-06
-4.96665e-08
5.72295e-06
-4.59507e-08
5.72111e-06
-4.26432e-08
5.71885e-06
-3.97187e-08
-3.73496e-08
5.7165e-06
5.04831e-06
-8.97327e-08
5.08527e-06
-1.13557e-07
5.11236e-06
-1.10165e-07
5.12994e-06
-1.04635e-07
5.13872e-06
-9.74523e-08
5.14e-06
-8.84567e-08
5.13544e-06
-7.8907e-08
5.12639e-06
-6.96942e-08
5.11394e-06
-6.11699e-08
5.09907e-06
-5.34902e-08
5.08256e-06
-4.67047e-08
5.06502e-06
-4.07888e-08
5.04694e-06
-3.57351e-08
5.02872e-06
-3.14668e-08
5.01064e-06
-2.78833e-08
4.993e-06
-2.50092e-08
4.97609e-06
-2.28063e-08
-2.15567e-08
4.9603e-06
4.36682e-06
4.25327e-06
4.1431e-06
4.03847e-06
3.94101e-06
3.85256e-06
3.77365e-06
3.70395e-06
3.64278e-06
3.58929e-06
3.54259e-06
3.5018e-06
3.46606e-06
3.43459e-06
3.4067e-06
3.38169e-06
3.35889e-06
3.33733e-06
-8.51376e-09
8.52469e-09
-2.29858e-08
1.44897e-08
-3.87606e-08
1.5793e-08
-5.23054e-08
1.35629e-08
-5.82984e-08
6.01151e-09
-5.0557e-08
-7.7268e-09
-2.69434e-08
-2.35992e-08
1.00527e-08
-3.69882e-08
5.61654e-08
-4.61092e-08
1.06467e-07
-5.03003e-08
1.56376e-07
-4.99231e-08
2.02768e-07
-4.63923e-08
2.43554e-07
-4.08109e-08
2.77537e-07
-3.39808e-08
3.03939e-07
-2.64382e-08
3.22431e-07
-1.8484e-08
3.32646e-07
-1.02574e-08
3.3436e-07
-1.70158e-09
3.27247e-07
7.07046e-09
3.11571e-07
1.56856e-08
2.8781e-07
2.37142e-08
2.57031e-07
3.07708e-08
2.20548e-07
3.6436e-08
1.80273e-07
4.02392e-08
1.38518e-07
4.17037e-08
9.79873e-08
4.04705e-08
6.14691e-08
3.64621e-08
3.12849e-08
3.01102e-08
8.73349e-09
2.24918e-08
-6.34268e-09
1.50062e-08
-1.48476e-08
8.46159e-09
-1.7325e-08
2.42412e-09
-1.35585e-08
-3.78896e-09
-2.45163e-09
-1.11677e-08
1.75878e-08
-2.00379e-08
4.66123e-08
-2.91099e-08
8.11734e-08
-3.45464e-08
1.14886e-07
-3.37978e-08
1.42248e-07
-2.73423e-08
1.59649e-07
-1.74566e-08
1.67264e-07
-7.59017e-09
1.67835e-07
-5.84619e-10
1.64877e-07
2.98556e-09
1.61753e-07
3.14269e-09
1.60444e-07
1.35569e-09
1.54671e-07
5.84256e-09
1.34918e-07
1.97819e-08
9.33266e-08
4.17726e-08
2.4663e-08
6.86703e-08
-6.76548e-08
9.24843e-08
-1.79634e-07
1.11965e-07
-3.07765e-07
1.2818e-07
-4.4754e-07
1.39743e-07
-5.94339e-07
1.46803e-07
-7.45021e-07
1.50657e-07
-8.94985e-07
1.49958e-07
-1.04027e-06
1.45264e-07
-1.17857e-06
1.38297e-07
-1.30897e-06
1.30393e-07
-1.42983e-06
1.20857e-07
-1.54059e-06
1.10747e-07
-1.6421e-06
1.01514e-07
-1.73516e-06
9.30605e-08
-1.82052e-06
8.53548e-08
-1.89879e-06
7.82622e-08
-1.9708e-06
7.2011e-08
-2.03729e-06
6.6486e-08
-2.09894e-06
6.16466e-08
-2.15633e-06
5.73929e-08
-2.20999e-06
5.36495e-08
-2.26031e-06
5.03298e-08
-2.30768e-06
4.73658e-08
-2.35237e-06
4.46923e-08
-2.39463e-06
4.22567e-08
-2.43464e-06
4.00151e-08
-2.47257e-06
3.79301e-08
-2.50854e-06
3.59733e-08
-2.54265e-06
3.41194e-08
-2.575e-06
3.23505e-08
-2.60564e-06
3.06503e-08
-2.63465e-06
2.90068e-08
-2.66205e-06
2.741e-08
-2.6879e-06
2.5851e-08
-2.71221e-06
2.43238e-08
-2.73503e-06
2.2821e-08
-2.75636e-06
2.13394e-08
-2.77623e-06
1.98714e-08
-2.79463e-06
1.84147e-08
-2.8116e-06
1.6962e-08
-2.82711e-06
1.55069e-08
-2.84115e-06
1.40436e-08
-2.85371e-06
1.25641e-08
-2.86477e-06
1.1059e-08
-2.87428e-06
9.51935e-09
-2.88221e-06
7.93462e-09
-2.8885e-06
6.29401e-09
-2.89308e-06
4.58386e-09
-2.89588e-06
2.79736e-09
-2.89686e-06
9.79583e-10
-2.89614e-06
-7.26772e-10
-2.89393e-06
-2.2171e-09
-2.89035e-06
-3.58062e-09
-2.88544e-06
-4.91602e-09
-2.8792e-06
-6.24579e-09
-2.87162e-06
-7.5764e-09
-2.86271e-06
-8.91164e-09
-2.85246e-06
-1.02484e-08
-2.84087e-06
-1.15886e-08
-2.82793e-06
-1.29279e-08
-2.81366e-06
-1.42677e-08
-2.79804e-06
-1.56037e-08
-2.7811e-06
-1.69365e-08
-2.76282e-06
-1.82627e-08
-2.74322e-06
-1.9582e-08
-2.72231e-06
-2.08917e-08
-2.7001e-06
-2.21912e-08
-2.6766e-06
-2.34787e-08
-2.65183e-06
-2.47527e-08
-2.6258e-06
-2.60127e-08
-2.59852e-06
-2.72564e-08
-2.57002e-06
-2.84836e-08
-2.54031e-06
-2.96918e-08
-2.50941e-06
-3.08813e-08
-2.47734e-06
-3.2049e-08
-2.44413e-06
-3.31956e-08
-2.4098e-06
-3.43173e-08
-2.37437e-06
-3.54144e-08
-2.33787e-06
-3.64802e-08
-2.30034e-06
-3.75225e-08
-2.26179e-06
-3.85324e-08
-2.22228e-06
-3.95106e-08
-2.18183e-06
-4.0448e-08
-2.1405e-06
-4.13261e-08
-2.09834e-06
-4.21423e-08
-2.05544e-06
-4.28903e-08
-2.01187e-06
-4.35603e-08
-1.96753e-06
-4.43376e-08
-1.92236e-06
-4.51631e-08
-1.87649e-06
-4.58659e-08
-1.82996e-06
-4.65206e-08
-1.78281e-06
-4.71332e-08
-1.73509e-06
-4.77067e-08
-1.68683e-06
-4.82488e-08
-1.63807e-06
-4.8754e-08
-1.58884e-06
-4.9231e-08
-1.53919e-06
-4.96685e-08
-1.48914e-06
-5.00845e-08
-1.43873e-06
-5.04609e-08
-1.38799e-06
-5.08097e-08
-1.33694e-06
-5.11168e-08
-1.28562e-06
-5.13913e-08
-1.23407e-06
-5.16249e-08
-1.18232e-06
-5.18185e-08
-1.13041e-06
-5.1984e-08
-1.07838e-06
-5.21118e-08
-1.02624e-06
-5.22129e-08
-9.74023e-07
-5.22932e-08
-9.21742e-07
-5.23559e-08
-8.69407e-07
-5.24088e-08
-8.17024e-07
-5.24552e-08
-7.64597e-07
-5.24986e-08
-7.12126e-07
-5.25391e-08
-6.59617e-07
-5.25761e-08
-6.07071e-07
-5.26087e-08
-5.54492e-07
-5.2638e-08
-5.01879e-07
-5.26677e-08
-4.49226e-07
-5.27015e-08
-3.96525e-07
-5.27442e-08
-3.43764e-07
-5.2797e-08
-2.90936e-07
-5.28591e-08
-2.38041e-07
-5.29184e-08
-1.85099e-07
-5.29609e-08
-1.32157e-07
-5.29506e-08
-7.93359e-08
-5.28272e-08
-2.68808e-08
-5.2451e-08
2.47721e-08
-5.16468e-08
7.50249e-08
-5.02371e-08
1.22009e-07
-4.69681e-08
1.64742e-07
-4.27113e-08
-1.68058e-08
1.81555e-07
-3.51891e-09
1.20662e-08
-9.74769e-09
2.0752e-08
-1.26417e-08
1.87332e-08
-4.91245e-09
5.87419e-09
1.86023e-08
-1.74663e-08
5.70305e-08
-4.61361e-08
1.05787e-07
-7.23423e-08
1.59158e-07
-9.03542e-08
2.11884e-07
-9.88332e-08
2.60642e-07
-9.90576e-08
3.03936e-07
-9.32242e-08
3.41092e-07
-8.35494e-08
3.71992e-07
-7.17261e-08
3.96876e-07
-5.88641e-08
4.16048e-07
-4.56298e-08
4.29946e-07
-3.23818e-08
4.38956e-07
-1.92911e-08
4.43698e-07
-6.44075e-09
4.44533e-07
6.20846e-09
4.41439e-07
1.87768e-08
4.33892e-07
3.12322e-08
4.21312e-07
4.33371e-08
4.03066e-07
5.46519e-08
3.7877e-07
6.45081e-08
3.48388e-07
7.20534e-08
3.12475e-07
7.63482e-08
2.72328e-07
7.65759e-08
2.3007e-07
7.2325e-08
1.88732e-07
6.3793e-08
1.51989e-07
5.17024e-08
1.23515e-07
3.68943e-08
1.05936e-07
1.99534e-08
1.00898e-07
1.21503e-09
1.0803e-07
-1.83566e-08
1.25512e-07
-3.75352e-08
1.48183e-07
-5.18467e-08
1.68856e-07
-5.52245e-08
1.81999e-07
-4.70053e-08
1.857e-07
-3.10394e-08
1.79653e-07
-1.14511e-08
1.65286e-07
6.79821e-09
1.4401e-07
2.0681e-08
1.10755e-07
3.63084e-08
5.51774e-08
5.87563e-08
-3.18729e-08
8.84884e-08
-1.50607e-07
1.24649e-07
-2.92462e-07
1.61686e-07
-4.47016e-07
1.96381e-07
-6.0652e-07
2.28201e-07
-7.68436e-07
2.54433e-07
-9.29882e-07
2.73419e-07
-1.08693e-06
2.85241e-07
-1.23651e-06
2.89318e-07
-1.37556e-06
2.85845e-07
-1.50138e-06
2.76474e-07
-1.6139e-06
2.62472e-07
-1.71383e-06
2.45184e-07
-1.80204e-06
2.26505e-07
-1.8795e-06
2.0785e-07
-1.94836e-06
1.89723e-07
-2.01012e-06
1.72497e-07
-2.06568e-06
1.57073e-07
-2.11609e-06
1.4347e-07
-2.16229e-06
1.31556e-07
-2.20513e-06
1.21102e-07
-2.24512e-06
1.11995e-07
-2.28268e-06
1.04046e-07
-2.31812e-06
9.70911e-08
-2.35169e-06
9.09608e-08
-2.38356e-06
8.5514e-08
-2.41386e-06
8.06255e-08
-2.44268e-06
7.6191e-08
-2.47011e-06
7.21238e-08
-2.49621e-06
6.83524e-08
-2.52101e-06
6.48195e-08
-2.54456e-06
6.14781e-08
-2.56687e-06
5.82919e-08
-2.58798e-06
5.52306e-08
-2.6079e-06
5.22712e-08
-2.62664e-06
4.93943e-08
-2.64421e-06
4.6585e-08
-2.66063e-06
4.38307e-08
-2.67589e-06
4.1121e-08
-2.69001e-06
3.84475e-08
-2.70299e-06
3.5802e-08
-2.71482e-06
3.31783e-08
-2.72552e-06
3.05693e-08
-2.73507e-06
2.79697e-08
-2.74348e-06
2.53727e-08
-2.75075e-06
2.27728e-08
-2.75687e-06
2.01636e-08
-2.76184e-06
1.75408e-08
-2.76568e-06
1.48995e-08
-2.76839e-06
1.22377e-08
-2.77001e-06
9.55455e-09
-2.77056e-06
6.85411e-09
-2.77013e-06
4.14619e-09
-2.76879e-06
1.45666e-09
-2.76663e-06
-1.17997e-09
-2.76359e-06
-3.76609e-09
-2.75947e-06
-6.34891e-09
-2.7541e-06
-8.94974e-09
-2.74746e-06
-1.15604e-08
-2.73953e-06
-1.41804e-08
-2.7303e-06
-1.68101e-08
-2.71976e-06
-1.94493e-08
-2.70792e-06
-2.20951e-08
-2.69475e-06
-2.4746e-08
-2.68028e-06
-2.73981e-08
-2.66449e-06
-3.00494e-08
-2.64739e-06
-3.26956e-08
-2.62899e-06
-3.53342e-08
-2.60928e-06
-3.79609e-08
-2.58827e-06
-4.05731e-08
-2.56599e-06
-4.31669e-08
-2.54242e-06
-4.57398e-08
-2.5176e-06
-4.82886e-08
-2.49153e-06
-5.0811e-08
-2.46422e-06
-5.33044e-08
-2.4357e-06
-5.57661e-08
-2.40597e-06
-5.81937e-08
-2.37507e-06
-6.05842e-08
-2.343e-06
-6.29354e-08
-2.30979e-06
-6.52444e-08
-2.27547e-06
-6.75088e-08
-2.24005e-06
-6.97253e-08
-2.20356e-06
-7.1891e-08
-2.16603e-06
-7.40012e-08
-2.12749e-06
-7.60549e-08
-2.08797e-06
-7.80477e-08
-2.0475e-06
-7.99751e-08
-2.00612e-06
-8.18268e-08
-1.96385e-06
-8.35931e-08
-1.92071e-06
-8.52773e-08
-1.87671e-06
-8.68805e-08
-1.83185e-06
-8.8415e-08
-1.78623e-06
-8.99519e-08
-1.73994e-06
-9.14518e-08
-1.69297e-06
-9.28393e-08
-1.64534e-06
-9.41369e-08
-1.59711e-06
-9.53537e-08
-1.54831e-06
-9.64965e-08
-1.49898e-06
-9.75702e-08
-1.44916e-06
-9.85739e-08
-1.39888e-06
-9.95124e-08
-1.34818e-06
-1.00383e-07
-1.2971e-06
-1.01194e-07
-1.24566e-06
-1.01939e-07
-1.19389e-06
-1.0262e-07
-1.14183e-06
-1.0323e-07
-1.08949e-06
-1.0377e-07
-1.03692e-06
-1.0424e-07
-9.84156e-07
-1.04631e-07
-9.31228e-07
-1.0496e-07
-8.78166e-07
-1.05221e-07
-8.24998e-07
-1.05429e-07
-7.71745e-07
-1.05593e-07
-7.18425e-07
-1.05723e-07
-6.65048e-07
-1.05832e-07
-6.11621e-07
-1.05928e-07
-5.58146e-07
-1.06017e-07
-5.04625e-07
-1.06102e-07
-4.5106e-07
-1.06181e-07
-3.97453e-07
-1.06253e-07
-3.43805e-07
-1.06321e-07
-2.90113e-07
-1.0639e-07
-2.36371e-07
-1.0647e-07
-1.82571e-07
-1.06567e-07
-1.287e-07
-1.06686e-07
-7.4749e-08
-1.06822e-07
-2.07215e-08
-1.06955e-07
3.33656e-08
-1.07051e-07
8.74727e-08
-1.07058e-07
1.4151e-07
-1.06859e-07
1.95333e-07
-1.06266e-07
2.48653e-07
-1.04953e-07
3.00771e-07
-1.02338e-07
3.51131e-07
-9.73065e-08
3.96434e-07
-8.79925e-08
-5.96545e-08
4.393e-07
5.13295e-10
1.15784e-08
4.41914e-09
1.68897e-08
1.97328e-08
3.46623e-09
5.43961e-08
-2.8764e-08
1.06809e-07
-6.98598e-08
1.66968e-07
-1.06286e-07
2.24717e-07
-1.30083e-07
2.74436e-07
-1.40069e-07
3.14535e-07
-1.38931e-07
3.45788e-07
-1.30309e-07
3.69845e-07
-1.17284e-07
3.88288e-07
-1.01993e-07
4.02309e-07
-8.57547e-08
4.1275e-07
-6.93041e-08
4.20132e-07
-5.30243e-08
4.24851e-07
-3.70996e-08
4.27159e-07
-2.16139e-08
4.27328e-07
-6.6095e-09
4.25621e-07
7.89661e-09
4.22443e-07
2.19504e-08
4.18044e-07
3.56089e-08
4.12508e-07
4.88629e-08
4.05552e-07
6.15831e-08
3.96604e-07
7.34393e-08
3.84785e-07
8.38474e-08
3.69166e-07
9.19449e-08
3.4907e-07
9.6648e-08
3.24559e-07
9.68103e-08
2.9679e-07
9.15381e-08
2.68086e-07
8.03802e-08
2.41489e-07
6.34679e-08
2.19896e-07
4.15177e-08
2.05104e-07
1.59876e-08
1.97289e-07
-1.05792e-08
1.92321e-07
-3.25799e-08
1.82447e-07
-4.2016e-08
1.63137e-07
-3.59203e-08
1.34131e-07
-1.80376e-08
9.62054e-08
6.90064e-09
4.72217e-08
3.75076e-08
-1.85203e-08
7.25753e-08
-1.08057e-07
1.10235e-07
-2.22889e-07
1.51174e-07
-3.59348e-07
1.95241e-07
-5.10736e-07
2.39899e-07
-6.6797e-07
2.81909e-07
-8.24856e-07
3.18591e-07
-9.7639e-07
3.47936e-07
-1.11733e-06
3.69153e-07
-1.24481e-06
3.81926e-07
-1.35768e-06
3.86293e-07
-1.4553e-06
3.82863e-07
-1.53845e-06
3.72474e-07
-1.60914e-06
3.5653e-07
-1.66951e-06
3.36841e-07
-1.72199e-06
3.14949e-07
-1.7689e-06
2.9209e-07
-1.81189e-06
2.69493e-07
-1.85199e-06
2.4795e-07
-1.89018e-06
2.27909e-07
-1.92722e-06
2.09539e-07
-1.96321e-06
1.93061e-07
-1.99819e-06
1.78452e-07
-2.0322e-06
1.65562e-07
-2.06528e-06
1.54181e-07
-2.09741e-06
1.4413e-07
-2.12859e-06
1.35218e-07
-2.15877e-06
1.27275e-07
-2.18795e-06
1.20139e-07
-2.21611e-06
1.13671e-07
-2.24324e-06
1.07752e-07
-2.26933e-06
1.0228e-07
-2.29437e-06
9.71708e-08
-2.31838e-06
9.23541e-08
-2.34133e-06
8.77737e-08
-2.36323e-06
8.33837e-08
-2.38409e-06
7.91475e-08
-2.40389e-06
7.50355e-08
-2.42264e-06
7.10245e-08
-2.44034e-06
6.70956e-08
-2.45698e-06
6.32334e-08
-2.47258e-06
5.94258e-08
-2.48711e-06
5.5662e-08
-2.5006e-06
5.19335e-08
-2.51302e-06
4.82323e-08
-2.52439e-06
4.45516e-08
-2.5347e-06
4.08845e-08
-2.54396e-06
3.72249e-08
-2.55215e-06
3.35669e-08
-2.55929e-06
2.99036e-08
-2.56536e-06
2.62319e-08
-2.57036e-06
2.25463e-08
-2.5743e-06
1.88455e-08
-2.57719e-06
1.51279e-08
-2.57902e-06
1.13956e-08
-2.57982e-06
7.65255e-09
-2.57958e-06
3.90615e-09
-2.57829e-06
1.66872e-10
-2.57591e-06
-3.56293e-09
-2.57238e-06
-7.30161e-09
-2.56766e-06
-1.10759e-08
-2.56172e-06
-1.48885e-08
-2.55456e-06
-1.87305e-08
-2.54615e-06
-2.25955e-08
-2.53648e-06
-2.64808e-08
-2.52555e-06
-3.03817e-08
-2.51335e-06
-3.42953e-08
-2.49987e-06
-3.82166e-08
-2.48513e-06
-4.21421e-08
-2.46911e-06
-4.60663e-08
-2.45181e-06
-4.99847e-08
-2.43325e-06
-5.38918e-08
-2.41342e-06
-5.77827e-08
-2.39233e-06
-6.16518e-08
-2.36999e-06
-6.54942e-08
-2.34642e-06
-6.93055e-08
-2.32162e-06
-7.30814e-08
-2.2956e-06
-7.68182e-08
-2.26838e-06
-8.05121e-08
-2.23998e-06
-8.41593e-08
-2.2104e-06
-8.77558e-08
-2.17968e-06
-9.12977e-08
-2.14783e-06
-9.47809e-08
-2.11486e-06
-9.82017e-08
-2.0808e-06
-1.01556e-07
-2.04568e-06
-1.0484e-07
-2.00952e-06
-1.08049e-07
-1.97233e-06
-1.11178e-07
-1.93416e-06
-1.14222e-07
-1.89503e-06
-1.17176e-07
-1.85496e-06
-1.20035e-07
-1.814e-06
-1.22787e-07
-1.77217e-06
-1.25425e-07
-1.72948e-06
-1.27955e-07
-1.68598e-06
-1.30381e-07
-1.64167e-06
-1.32713e-07
-1.59665e-06
-1.34976e-07
-1.55095e-06
-1.37148e-07
-1.50459e-06
-1.39194e-07
-1.4576e-06
-1.41118e-07
-1.41002e-06
-1.42926e-07
-1.36188e-06
-1.44625e-07
-1.31323e-06
-1.46218e-07
-1.26409e-06
-1.47707e-07
-1.21451e-06
-1.49095e-07
-1.16451e-06
-1.50383e-07
-1.11414e-06
-1.51578e-07
-1.06342e-06
-1.52677e-07
-1.01239e-06
-1.53679e-07
-9.61056e-07
-1.54582e-07
-9.09462e-07
-1.55384e-07
-8.57635e-07
-1.56085e-07
-8.05612e-07
-1.56674e-07
-7.53424e-07
-1.57167e-07
-7.011e-07
-1.57565e-07
-6.48666e-07
-1.57881e-07
-5.96144e-07
-1.58133e-07
-5.43549e-07
-1.58335e-07
-4.90895e-07
-1.58504e-07
-4.38186e-07
-1.58653e-07
-3.85427e-07
-1.58793e-07
-3.32617e-07
-1.58927e-07
-2.7976e-07
-1.59054e-07
-2.26854e-07
-1.59173e-07
-1.73901e-07
-1.59288e-07
-1.20897e-07
-1.59408e-07
-6.78342e-08
-1.59545e-07
-1.47026e-08
-1.5971e-07
3.85088e-08
-1.59908e-07
9.18095e-08
-1.60133e-07
1.45207e-07
-1.60362e-07
1.9869e-07
-1.60543e-07
2.5222e-07
-1.60597e-07
3.05729e-07
-1.60376e-07
3.59097e-07
-1.59641e-07
4.12107e-07
-1.5797e-07
4.64396e-07
-1.54633e-07
5.15553e-07
-1.48469e-07
5.64639e-07
-1.37083e-07
-1.10224e-07
6.152e-07
-1.20213e-10
1.17332e-08
1.35442e-08
3.27487e-09
5.49896e-08
-3.79409e-08
1.1909e-07
-9.28501e-08
1.8782e-07
-1.38575e-07
2.46655e-07
-1.65114e-07
2.90062e-07
-1.73482e-07
3.19142e-07
-1.69146e-07
3.37668e-07
-1.57452e-07
3.49401e-07
-1.42041e-07
3.57064e-07
-1.24947e-07
3.62271e-07
-1.07199e-07
3.65821e-07
-8.93095e-08
3.68066e-07
-7.15477e-08
3.69102e-07
-5.4067e-08
3.68971e-07
-3.69679e-08
3.6767e-07
-2.03241e-08
3.65257e-07
-4.19685e-09
3.61781e-07
1.13576e-08
3.57413e-07
2.63151e-08
3.5235e-07
4.06535e-08
3.46865e-07
5.43404e-08
3.41118e-07
6.73088e-08
3.35151e-07
7.93947e-08
3.28705e-07
9.02716e-08
3.21275e-07
9.93607e-08
3.12098e-07
1.05804e-07
3.00434e-07
1.08459e-07
2.85844e-07
1.06108e-07
2.68455e-07
9.7755e-08
2.49182e-07
8.27237e-08
2.29414e-07
6.12672e-08
2.09783e-07
3.56058e-08
1.86851e-07
1.23223e-08
1.53342e-07
9.25516e-10
1.05843e-07
5.44735e-09
4.54507e-08
2.44796e-08
-2.86571e-08
5.60481e-08
-1.19042e-07
9.72999e-08
-2.26505e-07
1.44975e-07
-3.49608e-07
1.95693e-07
-4.85894e-07
2.46534e-07
-6.30171e-07
2.95465e-07
-7.75784e-07
3.40868e-07
-9.16537e-07
3.80663e-07
-1.04693e-06
4.12311e-07
-1.16313e-06
4.34803e-07
-1.26366e-06
4.48471e-07
-1.34812e-06
4.53621e-07
-1.41734e-06
4.51154e-07
-1.47323e-06
4.42182e-07
-1.5182e-06
4.27842e-07
-1.55512e-06
4.09389e-07
-1.58673e-06
3.88146e-07
-1.61529e-06
3.65393e-07
-1.64247e-06
3.42134e-07
-1.6695e-06
3.19118e-07
-1.69699e-06
2.96977e-07
-1.72516e-06
2.76122e-07
-1.75404e-06
2.56786e-07
-1.78356e-06
2.39064e-07
-1.81349e-06
2.22983e-07
-1.84354e-06
2.08504e-07
-1.87349e-06
1.95508e-07
-1.90314e-06
1.83839e-07
-1.93236e-06
1.7334e-07
-1.961e-06
1.63856e-07
-1.98896e-06
1.55239e-07
-2.01618e-06
1.47353e-07
-2.04258e-06
1.40075e-07
-2.06813e-06
1.333e-07
-2.09279e-06
1.26936e-07
-2.11652e-06
1.20909e-07
-2.13932e-06
1.15153e-07
-2.16116e-06
1.09616e-07
-2.18204e-06
1.04257e-07
-2.20193e-06
9.90418e-08
-2.22083e-06
9.39424e-08
-2.23875e-06
8.89374e-08
-2.25566e-06
8.40093e-08
-2.27156e-06
7.91439e-08
-2.28647e-06
7.43296e-08
-2.30036e-06
6.95567e-08
-2.31324e-06
6.48169e-08
-2.32511e-06
6.01027e-08
-2.33596e-06
5.54072e-08
-2.3458e-06
5.07238e-08
-2.35461e-06
4.60458e-08
-2.36242e-06
4.13663e-08
-2.36919e-06
3.668e-08
-2.37494e-06
3.19805e-08
-2.37966e-06
2.72641e-08
-2.38334e-06
2.25281e-08
-2.38598e-06
1.77702e-08
-2.38757e-06
1.29905e-08
-2.38811e-06
8.1899e-09
-2.38757e-06
3.37092e-09
-2.38594e-06
-1.46532e-09
-2.38319e-06
-6.32389e-09
-2.37927e-06
-1.12187e-08
-2.37419e-06
-1.61626e-08
-2.36793e-06
-2.1155e-08
-2.36047e-06
-2.61891e-08
-2.35181e-06
-3.12573e-08
-2.34194e-06
-3.6355e-08
-2.33085e-06
-4.14753e-08
-2.31853e-06
-4.66142e-08
-2.30498e-06
-5.17646e-08
-2.2902e-06
-5.69218e-08
-2.27418e-06
-6.20783e-08
-2.25694e-06
-6.72288e-08
-2.23846e-06
-7.23652e-08
-2.21875e-06
-7.74813e-08
-2.19783e-06
-8.25691e-08
-2.17569e-06
-8.76225e-08
-2.15236e-06
-9.26348e-08
-2.12783e-06
-9.76008e-08