/*--------------------------------*- C++ -*----------------------------------*\
  =========                 |
  \\      /  F ield         | OpenFOAM: The Open Source CFD Toolbox
   \\    /   O peration     | Website:  https://openfoam.org
    \\  /    A nd           | Version:  8
     \\/     M anipulation  |
\*---------------------------------------------------------------------------*/
FoamFile
{
    version     2.0;
    format      ascii;
    class       volVectorField;
    location    "1400";
    object      U;
}
// * * * * * * * * * * * * * * * * * * * * * * * * * * * * * * * * * * * * * //

dimensions      [0 1 -1 0 0 0 0];

internalField   nonuniform List<vector> 
12225
(
(9.75198 0.0603078 0)
(9.28548 0.091202 0)
(8.87745 0.0909695 0)
(8.49896 0.0796254 0)
(8.17293 0.0669856 0)
(7.89756 0.057333 0)
(7.64945 0.0565294 0)
(7.42726 0.0666915 0)
(7.22095 0.0703314 0)
(7.05689 0.0480729 0)
(6.93057 0.0266309 0)
(6.82438 0.014186 0)
(6.74223 0.00708711 0)
(6.68042 0.00460565 0)
(6.63779 -0.0029501 0)
(6.61069 -0.00129784 0)
(6.59486 0.00657889 0)
(6.59814 -0.000799687 0)
(10.1085 0.0532756 0)
(10.2777 0.085621 0)
(10.3751 0.0886838 0)
(10.3816 0.0868074 0)
(10.3477 0.0848858 0)
(10.2872 0.0818321 0)
(10.2166 0.0767913 0)
(10.135 0.069562 0)
(10.0405 0.0623124 0)
(9.93387 0.0577136 0)
(9.84061 0.0546224 0)
(9.74844 0.0513077 0)
(9.66627 0.0447192 0)
(9.58265 0.0368744 0)
(9.50267 0.0318362 0)
(9.4275 0.0262217 0)
(9.35527 0.0191538 0)
(9.2867 0.0130887 0)
(10.0019 0.0461745 0)
(10.0655 0.064198 0)
(10.1132 0.0704577 0)
(10.1566 0.0742786 0)
(10.1892 0.0777082 0)
(10.215 0.0801473 0)
(10.2344 0.0816737 0)
(10.2491 0.0829709 0)
(10.2602 0.0826782 0)
(10.2642 0.0780355 0)
(10.2607 0.071853 0)
(10.2515 0.0659721 0)
(10.2383 0.0617273 0)
(10.2217 0.0586605 0)
(10.2016 0.0537391 0)
(10.1788 0.0482577 0)
(10.1555 0.042767 0)
(10.13 0.0348471 0)
(10.0018 0.0300302 0)
(10.0394 0.0499304 0)
(10.0589 0.0589953 0)
(10.0814 0.0650799 0)
(10.1013 0.0694329 0)
(10.1205 0.0716477 0)
(10.138 0.0726079 0)
(10.1542 0.0732896 0)
(10.1703 0.0727046 0)
(10.1846 0.0690157 0)
(10.1955 0.0645461 0)
(10.2034 0.0604518 0)
(10.2092 0.0567462 0)
(10.2139 0.0538318 0)
(10.2175 0.050855 0)
(10.2197 0.0477382 0)
(10.2207 0.0440082 0)
(10.2201 0.0383932 0)
(10.0024 0.0233068 0)
(10.0279 0.0475575 0)
(10.0478 0.0558935 0)
(10.0648 0.0604798 0)
(10.0789 0.064271 0)
(10.093 0.0666765 0)
(10.1062 0.0678989 0)
(10.1188 0.0684624 0)
(10.131 0.0678079 0)
(10.1423 0.0650187 0)
(10.1519 0.0613615 0)
(10.1596 0.0577455 0)
(10.1661 0.0545007 0)
(10.1721 0.0516978 0)
(10.1779 0.0487501 0)
(10.1831 0.0456134 0)
(10.1878 0.0421136 0)
(10.1916 0.0376783 0)
(10.0027 0.0182784 0)
(10.0196 0.0425227 0)
(10.0398 0.0506544 0)
(10.0551 0.0552976 0)
(10.0675 0.0593118 0)
(10.0797 0.0621295 0)
(10.0914 0.0635783 0)
(10.1023 0.0640035 0)
(10.1127 0.0632191 0)
(10.1224 0.0609212 0)
(10.1307 0.057829 0)
(10.1377 0.054587 0)
(10.1437 0.0515267 0)
(10.1493 0.048693 0)
(10.1546 0.0457798 0)
(10.1596 0.0426717 0)
(10.1642 0.0392949 0)
(10.1682 0.0354803 0)
(10.0026 0.0146951 0)
(10.0144 0.0363452 0)
(10.0326 0.0453381 0)
(10.0467 0.0504804 0)
(10.0585 0.0545863 0)
(10.0698 0.0575092 0)
(10.0806 0.0590534 0)
(10.0909 0.059459 0)
(10.1005 0.0587312 0)
(10.1093 0.0568183 0)
(10.1171 0.054194 0)
(10.1237 0.051315 0)
(10.1295 0.0484677 0)
(10.1349 0.0457035 0)
(10.1399 0.0428567 0)
(10.1446 0.0398402 0)
(10.1488 0.0366318 0)
(10.1526 0.0331875 0)
(10.0021 0.0122485 0)
(10.0117 0.0313016 0)
(10.0272 0.0407707 0)
(10.0404 0.0462624 0)
(10.0518 0.0503864 0)
(10.0626 0.0533041 0)
(10.0731 0.054847 0)
(10.0829 0.0552438 0)
(10.092 0.054609 0)
(10.1004 0.0530145 0)
(10.1078 0.0507664 0)
(10.1144 0.0482053 0)
(10.1202 0.0455828 0)
(10.1255 0.0429455 0)
(10.1304 0.0401976 0)
(10.1349 0.0372793 0)
(10.139 0.0342148 0)
(10.1426 0.0310293 0)
(10.0014 0.0104525 0)
(10.0095 0.0274448 0)
(10.0229 0.0368859 0)
(10.035 0.0424997 0)
(10.0459 0.0466155 0)
(10.0563 0.049538 0)
(10.0664 0.0511369 0)
(10.076 0.0516162 0)
(10.0849 0.0511053 0)
(10.093 0.049716 0)
(10.1004 0.0476967 0)
(10.1069 0.0453467 0)
(10.1127 0.0428773 0)
(10.118 0.0403468 0)
(10.1228 0.0377014 0)
(10.1272 0.0349117 0)
(10.1312 0.0320171 0)
(10.1348 0.0290542 0)
(10.001 0.00882393 0)
(10.0075 0.0234207 0)
(10.0189 0.0327126 0)
(10.0299 0.0383487 0)
(10.0401 0.0423844 0)
(10.05 0.0452435 0)
(10.0596 0.0468662 0)
(10.0688 0.0474123 0)
(10.0775 0.0470297 0)
(10.0855 0.0458481 0)
(10.0927 0.0440847 0)
(10.0992 0.0419739 0)
(10.105 0.0396911 0)
(10.1103 0.0373148 0)
(10.1151 0.0348162 0)
(10.1195 0.0321976 0)
(10.1234 0.029502 0)
(10.1269 0.026776 0)
(10.0007 0.00736714 0)
(10.0059 0.0195107 0)
(10.0153 0.0282353 0)
(10.0251 0.0338088 0)
(10.0345 0.0377117 0)
(10.0437 0.0404578 0)
(10.0529 0.0420561 0)
(10.0617 0.0426522 0)
(10.07 0.0423858 0)
(10.0777 0.0414075 0)
(10.0848 0.0398921 0)
(10.0912 0.0380268 0)
(10.097 0.0359684 0)
(10.1023 0.0337836 0)
(10.1071 0.0314756 0)
(10.1114 0.0290641 0)
(10.1153 0.0265953 0)
(10.1188 0.0241107 0)
(10.0006 0.00605082 0)
(10.0046 0.0158918 0)
(10.0122 0.0237157 0)
(10.0208 0.0289952 0)
(10.0294 0.0326673 0)
(10.0379 0.035226 0)
(10.0463 0.0367518 0)
(10.0546 0.0373555 0)
(10.0625 0.0371918 0)
(10.0699 0.036388 0)
(10.0767 0.0351048 0)
(10.083 0.0334876 0)
(10.0887 0.0316672 0)
(10.0939 0.0296985 0)
(10.0987 0.0276181 0)
(10.103 0.0254451 0)
(10.1068 0.0232267 0)
(10.1103 0.0209991 0)
(10.0004 0.00484137 0)
(10.0037 0.0126031 0)
(10.0098 0.0192891 0)
(10.0171 0.0240362 0)
(10.0248 0.0273401 0)
(10.0326 0.0296343 0)
(10.0403 0.0310109 0)
(10.048 0.0315778 0)
(10.0554 0.031469 0)
(10.0623 0.0308101 0)
(10.0688 0.0297281 0)
(10.0748 0.0283456 0)
(10.0803 0.026753 0)
(10.0854 0.025019 0)
(10.0901 0.0231729 0)
(10.0943 0.0212536 0)
(10.0981 0.0192956 0)
(10.1016 0.0173392 0)
(10.0003 0.00372514 0)
(10.0029 0.00958022 0)
(10.0078 0.0149708 0)
(10.0141 0.0189762 0)
(10.0209 0.0217872 0)
(10.0279 0.0237234 0)
(10.035 0.0248771 0)
(10.042 0.0253581 0)
(10.0488 0.0252583 0)
(10.0553 0.0247059 0)
(10.0614 0.0237892 0)
(10.0671 0.0226109 0)
(10.0724 0.0212396 0)
(10.0773 0.0197339 0)
(10.0818 0.0181281 0)
(10.0859 0.0164639 0)
(10.0896 0.0147693 0)
(10.093 0.0130806 0)
(10.0003 0.00267878 0)
(10.0023 0.00674871 0)
(10.0064 0.0107367 0)
(10.0117 0.0138295 0)
(10.0177 0.0160134 0)
(10.0241 0.0174947 0)
(10.0305 0.018364 0)
(10.0369 0.018687 0)
(10.0432 0.018561 0)
(10.0492 0.0180631 0)
(10.0549 0.0172799 0)
(10.0603 0.0162745 0)
(10.0653 0.015109 0)
(10.07 0.0138231 0)
(10.0742 0.0124604 0)
(10.0782 0.011047 0)
(10.0818 0.00961602 0)
(10.0852 0.0081901 0)
(10.0002 0.00168318 0)
(10.0019 0.00402714 0)
(10.0053 0.00654297 0)
(10.01 0.00857156 0)
(10.0153 0.00998681 0)
(10.0211 0.0109216 0)
(10.027 0.0114151 0)
(10.0329 0.0115276 0)
(10.0387 0.011314 0)
(10.0443 0.0108347 0)
(10.0496 0.0101439 0)
(10.0547 0.00928823 0)
(10.0594 0.00830959 0)
(10.0638 0.00724159 0)
(10.068 0.00611485 0)
(10.0718 0.00495315 0)
(10.0753 0.00377893 0)
(10.0785 0.00261557 0)
(10.0002 0.000698095 0)
(10.0017 0.00131801 0)
(10.0047 0.00229767 0)
(10.0089 0.00311228 0)
(10.0138 0.00364145 0)
(10.0191 0.00391061 0)
(10.0245 0.00395774 0)
(10.0301 0.00378408 0)
(10.0355 0.00343743 0)
(10.0408 0.00292729 0)
(10.0458 0.00229898 0)
(10.0506 0.00156421 0)
(10.0552 0.000758861 0)
(10.0594 -0.000105473 0)
(10.0634 -0.00100192 0)
(10.0671 -0.00192026 0)
(10.0705 -0.00284133 0)
(10.0736 -0.00375027 0)
(10.0002 -0.000279706 0)
(10.0017 -0.00134717 0)
(10.0045 -0.00193493 0)
(10.0086 -0.00236414 0)
(10.0133 -0.00279303 0)
(10.0184 -0.00321282 0)
(10.0237 -0.0036625 0)
(10.029 -0.00413606 0)
(10.0343 -0.00465738 0)
(10.0394 -0.00521132 0)
(10.0443 -0.00581201 0)
(10.0489 -0.00643986 0)
(10.0533 -0.00710113 0)
(10.0574 -0.00777678 0)
(10.0613 -0.0084685 0)
(10.0649 -0.00916002 0)
(10.0683 -0.00985177 0)
(10.0714 -0.0105243 0)
(10.0002 -0.00121813 0)
(10.0018 -0.00391194 0)
(10.0048 -0.00597697 0)
(10.009 -0.00757346 0)
(10.0139 -0.00887717 0)
(10.0191 -0.00993202 0)
(10.0245 -0.0108166 0)
(10.0298 -0.0115649 0)
(10.0351 -0.0122244 0)
(10.0402 -0.0128206 0)
(10.045 -0.0133827 0)
(10.0497 -0.0139201 0)
(10.054 -0.0144453 0)
(10.0581 -0.0149598 0)
(10.062 -0.0154678 0)
(10.0655 -0.0159669 0)
(10.0689 -0.0164573 0)
(10.072 -0.0169309 0)
(10.0002 -0.00214378 0)
(10.002 -0.00646524 0)
(10.0055 -0.00990354 0)
(10.0102 -0.0125374 0)
(10.0155 -0.014572 0)
(10.021 -0.0161536 0)
(10.0266 -0.0173721 0)
(10.0321 -0.0183219 0)
(10.0376 -0.019059 0)
(10.0427 -0.0196636 0)
(10.0477 -0.0201622 0)
(10.0524 -0.0206036 0)
(10.0568 -0.0209928 0)
(10.0609 -0.0213594 0)
(10.0647 -0.0217012 0)
(10.0683 -0.0220329 0)
(10.0717 -0.0223499 0)
(10.0748 -0.0226546 0)
(10.0003 -0.00312958 0)
(10.0025 -0.00917618 0)
(10.0067 -0.0139367 0)
(10.0121 -0.0174552 0)
(10.0179 -0.0200958 0)
(10.0239 -0.0220765 0)
(10.0299 -0.0235425 0)
(10.0358 -0.0245947 0)
(10.0414 -0.0253588 0)
(10.0468 -0.0259101 0)
(10.0519 -0.0263287 0)
(10.0567 -0.0266421 0)
(10.0612 -0.0269 0)
(10.0653 -0.0271099 0)
(10.0693 -0.0273023 0)
(10.0729 -0.0274733 0)
(10.0763 -0.0276403 0)
(10.0794 -0.0277918 0)
(10.0003 -0.00425194 0)
(10.0032 -0.0121785 0)
(10.0084 -0.018195 0)
(10.0148 -0.022445 0)
(10.0214 -0.0255562 0)
(10.0279 -0.0278347 0)
(10.0344 -0.0294355 0)
(10.0407 -0.0305156 0)
(10.0467 -0.0312278 0)
(10.0523 -0.0316888 0)
(10.0576 -0.0319795 0)
(10.0625 -0.0321549 0)
(10.0671 -0.0322578 0)
(10.0714 -0.0323183 0)
(10.0753 -0.0323553 0)
(10.079 -0.0323825 0)
(10.0825 -0.0324039 0)
(10.0856 -0.0324245 0)
(10.0005 -0.00560753 0)
(10.0044 -0.0155941 0)
(10.0109 -0.0227491 0)
(10.0184 -0.0275509 0)
(10.0258 -0.0310097 0)
(10.0331 -0.0334831 0)
(10.0402 -0.0351256 0)
(10.0469 -0.0361438 0)
(10.0533 -0.0367414 0)
(10.0592 -0.037066 0)
(10.0647 -0.0371982 0)
(10.0698 -0.0372117 0)
(10.0745 -0.0371463 0)
(10.0788 -0.0370483 0)
(10.0829 -0.0369316 0)
(10.0866 -0.0368173 0)
(10.0901 -0.0367061 0)
(10.0934 -0.036603 0)
(10.0007 -0.00733289 0)
(10.0062 -0.0195306 0)
(10.0144 -0.0276288 0)
(10.0232 -0.0327647 0)
(10.0315 -0.0364485 0)
(10.0395 -0.0390291 0)
(10.0472 -0.0406239 0)
(10.0545 -0.0415169 0)
(10.0612 -0.0419555 0)
(10.0675 -0.0420991 0)
(10.0733 -0.0420467 0)
(10.0786 -0.0418684 0)
(10.0835 -0.0416274 0)
(10.088 -0.0413567 0)
(10.0921 -0.0410897 0)
(10.096 -0.0408343 0)
(10.0995 -0.0406017 0)
(10.1028 -0.040385 0)
(10.001 -0.00954482 0)
(10.0089 -0.0241026 0)
(10.0192 -0.0329031 0)
(10.0293 -0.0381382 0)
(10.0385 -0.0419 0)
(10.0474 -0.0444661 0)
(10.0559 -0.0459488 0)
(10.0639 -0.046674 0)
(10.0712 -0.0469233 0)
(10.0779 -0.0468667 0)
(10.0841 -0.0466034 0)
(10.0898 -0.04622 0)
(10.0949 -0.0457763 0)
(10.0996 -0.0453213 0)
(10.1039 -0.0448848 0)
(10.1079 -0.0444872 0)
(10.1116 -0.0441259 0)
(10.1149 -0.0437983 0)
(10.0016 -0.0125223 0)
(10.0125 -0.0293839 0)
(10.0257 -0.0384396 0)
(10.0375 -0.0437086 0)
(10.0479 -0.0474611 0)
(10.0581 -0.0498766 0)
(10.0679 -0.0511479 0)
(10.0771 -0.0516645 0)
(10.0854 -0.051692 0)
(10.0929 -0.0514188 0)
(10.0998 -0.050941 0)
(10.106 -0.0503485 0)
(10.1115 -0.0497097 0)
(10.1165 -0.0490689 0)
(10.121 -0.048472 0)
(10.1251 -0.0479333 0)
(10.1287 -0.0474514 0)
(10.1321 -0.0470157 0)
(10.0034 -0.0171301 0)
(10.0182 -0.0351609 0)
(10.0363 -0.0434025 0)
(10.051 -0.0490704 0)
(10.0642 -0.05328 0)
(10.0774 -0.0557062 0)
(10.09 -0.0567207 0)
(10.1014 -0.056877 0)
(10.1115 -0.0565303 0)
(10.1204 -0.0558709 0)
(10.1282 -0.0550207 0)
(10.1349 -0.0540758 0)
(10.1407 -0.0531056 0)
(10.1457 -0.0521663 0)
(10.1498 -0.0513113 0)
(10.1533 -0.0505522 0)
(10.1562 -0.0498807 0)
(10.1586 -0.0492768 0)
(10.0099 -0.0246883 0)
(10.0358 -0.0442255 0)
(10.0656 -0.0490854 0)
(10.0899 -0.0537309 0)
(10.1121 -0.0584761 0)
(10.1329 -0.061578 0)
(10.151 -0.0630004 0)
(10.1655 -0.063273 0)
(10.1768 -0.0628275 0)
(10.1852 -0.0618708 0)
(10.1909 -0.0606013 0)
(10.1944 -0.0591675 0)
(10.1959 -0.0576766 0)
(10.1956 -0.0562269 0)
(10.1939 -0.0548762 0)
(10.191 -0.0536918 0)
(10.1874 -0.0526822 0)
(10.183 -0.0519268 0)
(10.0373 -0.0336805 0)
(10.1296 -0.06311 0)
(10.2006 -0.0686742 0)
(10.2432 -0.070343 0)
(10.2675 -0.0710517 0)
(10.2769 -0.0702466 0)
(10.2734 -0.0681403 0)
(10.2593 -0.0654191 0)
(10.2373 -0.062472 0)
(10.2096 -0.0594333 0)
(10.1779 -0.0564196 0)
(10.1437 -0.0535174 0)
(10.1078 -0.0507862 0)
(10.0714 -0.0482772 0)
(10.035 -0.0460468 0)
(9.99911 -0.044099 0)
(9.96444 -0.0424636 0)
(9.93156 -0.0416182 0)
(9.89582 -0.0327502 0)
(9.67038 -0.0678429 0)
(9.42578 -0.0779432 0)
(9.18037 -0.0795465 0)
(8.94942 -0.0770735 0)
(8.74005 -0.071872 0)
(8.55273 -0.0654201 0)
(8.38616 -0.0585275 0)
(8.23949 -0.051664 0)
(8.11114 -0.0451934 0)
(7.99907 -0.0392669 0)
(7.90125 -0.033932 0)
(7.81579 -0.0292422 0)
(7.74066 -0.0251958 0)
(7.67433 -0.0217251 0)
(7.61544 -0.018889 0)
(7.56194 -0.0167139 0)
(7.51332 -0.0154867 0)
(-0.00285269 0.00790112 0)
(-0.0132373 0.0130672 0)
(-0.0273686 0.0141513 0)
(-0.0422734 0.0119567 0)
(-0.0530495 0.00585194 0)
(-0.051854 -0.00410735 0)
(-0.0353663 -0.0175581 -8.0665e-19)
(-0.00714417 -0.0315329 9.14611e-19)
(0.0295028 -0.0419235 0)
(0.0715872 -0.0469401 5.19692e-19)
(0.116045 -0.0473016 0)
(0.159356 -0.0442455 0)
(0.198709 -0.0388807 0)
(0.232425 -0.0320451 -2.54288e-19)
(0.259624 -0.0243242 0)
(0.279897 -0.0160811 0)
(0.29291 -0.00752134 2.19604e-19)
(0.298866 0.00143045 0)
(0.296663 0.0106845 0)
(0.286441 0.0197765 0)
(0.268836 0.0279497 -2.34883e-19)
(0.244472 0.0344088 0)
(0.214282 0.0384082 -2.77445e-19)
(0.179649 0.0393062 0)
(0.142439 0.0366323 0)
(0.104942 0.0303169 -4.51246e-19)
(0.06972 0.0209702 0)
(0.0393191 0.0102265 7.57668e-19)
(0.0157165 0.000793489 0)
(-0.000511559 -0.00499614 -1.29786e-18)
(-0.0107769 -0.007733 0)
(-0.0161603 -0.00963284 0)
(-0.0155681 -0.0119581 0)
(-0.00840775 -0.0156168 0)
(0.00615356 -0.0210333 0)
(0.0285206 -0.0271626 8.79434e-19)
(0.0572397 -0.031656 0)
(0.0882865 -0.0321058 -1.01385e-18)
(0.116481 -0.0279373 0)
(0.137407 -0.0204833 7.9363e-19)
(0.149078 -0.0123508 0)
(0.152706 -0.00577521 0)
(0.15092 -0.00207847 -7.74604e-19)
(0.147581 -0.00232564 0)
(0.145704 -0.00750051 -7.97835e-19)
(0.143361 -0.0169283 8.02005e-19)
(0.133814 -0.024843 0)
(0.109592 -0.0206687 8.78777e-19)
(0.0647269 -0.00129056 1.03459e-18)
(-0.0119256 0.0184488 0)
(-0.110898 0.040485 0)
(-0.219483 0.065535 0)
(-0.341126 0.0858041 0)
(-0.473446 0.10052 0)
(-0.609758 0.112311 -1.82979e-19)
(-0.746979 0.116379 0)
(-0.883375 0.11412 1.43849e-19)
(-1.01368 0.109764 0)
(-1.13703 0.105247 0)
(-1.25214 0.0965468 -1.12789e-19)
(-1.359 0.0862506 0)
(-1.45675 0.0779601 1.01331e-19)
(-1.54649 0.0711523 0)
(-1.62902 0.0650896 0)
(-1.70497 0.0591919 0)
(-1.77493 0.0540655 -8.76471e-20)
(-1.83963 0.0495211 0)
(-1.8997 0.0455806 0)
(-1.95572 0.0421296 -8.15839e-20)
(-2.00819 0.0391206 0)
(-2.05752 0.0364662 -7.84907e-20)
(-2.10406 0.0341178 0)
(-2.14811 0.0320143 0)
(-2.18989 0.0301163 0)
(-2.2296 0.0283844 7.35432e-20)
(-2.2674 0.0267903 0)
(-2.30342 0.0253093 0)
(-2.33775 0.0239222 7.04637e-20)
(-2.37047 0.0226139 6.95118e-20)
(-2.40167 0.0213717 0)
(-2.43138 0.0201859 6.76866e-20)
(-2.45966 0.0190484 0)
(-2.48653 0.0179518 1.31879e-19)
(-2.51204 0.0168908 0)
(-2.5362 0.015859 1.2849e-19)
(-2.55903 0.0148526 0)
(-2.58055 0.0138649 -1.25167e-19)
(-2.60076 0.012892 0)
(-2.61967 0.011927 0)
(-2.63728 0.010963 0)
(-2.65358 0.00999338 1.18593e-19)
(-2.66855 0.00900964 0)
(-2.68216 0.00800262 -1.15297e-19)
(-2.69439 0.00696441 0)
(-2.7052 0.00588779 1.11979e-19)
(-2.71453 0.00477091 1.10311e-19)
(-2.72233 0.00362332 1.08636e-19)
(-2.72854 0.00248163 0)
(-2.73309 0.00141937 0)
(-2.73589 0.00051021 0)
(-2.73721 -0.000249973 0)
(-2.73729 -0.0009435 0)
(-2.7361 -0.00162003 0)
(-2.73368 -0.00228809 0)
(-2.73 -0.00295076 0)
(-2.72507 -0.00360975 -9.24168e-20)
(-2.71888 -0.00426355 -9.04157e-20)
(-2.71143 -0.00491319 0)
(-2.7027 -0.00555665 0)
(-2.69269 -0.00619472 0)
(-2.6814 -0.00682547 -8.1914e-20)
(-2.66883 -0.00744945 0)
(-2.65498 -0.00806503 0)
(-2.63985 -0.00867249 0)
(-2.62345 -0.00927067 0)
(-2.60578 -0.00985962 7.0006e-20)
(-2.58684 -0.0104387 0)
(-2.56665 -0.0110077 0)
(-2.54522 -0.0115664 -6.20741e-20)
(-2.52254 -0.0121144 5.92857e-20)
(-2.49864 -0.0126519 0)
(-2.47353 -0.0131783 5.34779e-20)
(-2.44721 -0.0136939 0)
(-2.41971 -0.0141981 -4.73453e-20)
(-2.39104 -0.0146911 0)
(-2.36122 -0.0151718 0)
(-2.33027 -0.0156392 0)
(-2.2982 -0.0160871 0)
(-2.26505 -0.0165284 0)
(-2.23083 -0.0169497 5.35338e-20)
(-2.19557 -0.0173502 4.59702e-20)
(-2.1593 -0.0177176 0)
(-2.12206 -0.0180017 0)
(-2.08391 -0.0181557 0)
(-2.04491 -0.0180997 -1.34088e-20)
(-2.00514 -0.0178441 0)
(-1.96457 -0.0178913 0)
(-1.92308 -0.0182444 0)
(-1.88076 -0.0185095 2.33478e-20)
(-1.83765 -0.0187655 -3.33217e-20)
(-1.79381 -0.0190066 0)
(-1.74927 -0.019236 0)
(-1.70406 -0.0194565 -6.53965e-20)
(-1.65822 -0.0196669 -7.68718e-20)
(-1.61178 -0.0198699 0)
(-1.56477 -0.0200595 0)
(-1.51722 -0.0202464 1.13962e-19)
(-1.46918 -0.020418 -1.2732e-19)
(-1.42063 -0.0205851 0)
(-1.37164 -0.0207362 0)
(-1.32221 -0.0208817 -1.7076e-19)
(-1.27239 -0.0210123 0)
(-1.2222 -0.0211349 0)
(-1.17169 -0.0212543 -2.20206e-19)
(-1.12088 -0.021363 0)
(-1.0698 -0.0214708 -2.57162e-19)
(-1.01847 -0.0215783 0)
(-0.966904 -0.0216881 0)
(-0.915116 -0.0218039 0)
(-0.863109 -0.021927 3.43138e-19)
(-0.810885 -0.0220596 0)
(-0.758441 -0.0222019 0)
(-0.705778 -0.0223549 0)
(-0.652896 -0.0225193 0)
(-0.599795 -0.0226973 0)
(-0.546474 -0.0228919 0)
(-0.492925 -0.0231067 5.51863e-19)
(-0.439137 -0.0233454 5.90761e-19)
(-0.385095 -0.0236103 0)
(-0.330783 -0.0239027 0)
(-0.276193 -0.0242224 0)
(-0.221327 -0.0245837 -7.83043e-19)
(-0.166214 -0.0249823 0)
(-0.110935 -0.0253733 1.82033e-18)
(-0.0556885 -0.0256674 -1.96951e-18)
(-0.000897789 -0.0255019 -2.07388e-18)
(0.0534624 -0.0244311 2.05257e-18)
(0.103747 -0.0223311 -1.97742e-18)
(0.159093 -0.0197578 1.92293e-18)
(0.173251 -0.00794797 0)
(-0.000214024 0.0211126 0)
(-0.00587565 0.0366818 0)
(-0.0125548 0.0378508 2.15561e-18)
(-0.0128827 0.0280586 0)
(0.00167601 0.0054432 -2.23931e-18)
(0.0321636 -0.0326721 -1.4082e-18)
(0.0723006 -0.0753137 -4.43038e-19)
(0.117995 -0.110095 -3.16222e-19)
(0.165175 -0.131306 0)
(0.210356 -0.138697 -2.0708e-19)
(0.251327 -0.135052 0)
(0.287149 -0.123877 0)
(0.317506 -0.108137 3.09106e-19)
(0.342428 -0.0899553 1.47255e-19)
(0.362144 -0.0707035 -2.871e-19)
(0.376982 -0.0511591 -2.83753e-19)
(0.387331 -0.0317071 -1.41862e-19)
(0.393383 -0.0124726 0)
(0.396136 0.00656399 0)
(0.395533 0.0252528 0)
(0.391195 0.043241 -1.49988e-19)
(0.382607 0.0599958 0)
(0.369193 0.0747731 4.79628e-19)
(0.350431 0.0865783 0)
(0.326071 0.0942609 0)
(0.29629 0.0966865 1.93705e-19)
(0.261926 0.0930463 0)
(0.224595 0.0833177 -2.44723e-19)
(0.186645 0.0685127 -5.72767e-19)
(0.151064 0.0504621 3.42811e-19)
(0.121054 0.0308708 0)
(0.10001 0.0106789 0)
(0.0895143 -0.0102478 0)
(0.0912894 -0.0310066 -1.03766e-18)
(0.103732 -0.0514724 -8.77228e-19)
(0.123305 -0.0694016 -3.62644e-19)
(0.143922 -0.0777582 0)
(0.159348 -0.0728469 5.20903e-19)
(0.166789 -0.0573865 0)
(0.16579 -0.0368155 -5.01623e-19)
(0.157057 -0.0180561 0)
(0.141319 -0.0057037 0)
(0.118156 0.00162998 6.38815e-19)
(0.0816917 0.00897733 0)
(0.0216054 0.0235729 2.43731e-18)
(-0.0756867 0.0567381 -6.04616e-19)
(-0.199565 0.10147 0)
(-0.334258 0.147556 -2.60005e-19)
(-0.475593 0.191332 -1.9378e-19)
(-0.622728 0.227746 0)
(-0.770747 0.255253 0)
(-0.916206 0.274198 0)
(-1.05719 0.283999 0)
(-1.19025 0.284918 0)
(-1.31152 0.279016 8.25e-20)
(-1.42099 0.267557 1.55781e-19)
(-1.51858 0.251728 -7.34459e-20)
(-1.60498 0.233506 0)
(-1.68094 0.214639 1.35407e-19)
(-1.74884 0.196053 -6.60852e-20)
(-1.80933 0.178057 0)
(-1.86387 0.161658 -6.20731e-20)
(-1.91338 0.146858 0)
(-1.95884 0.13373 0)
(-2.00092 0.122163 -1.16915e-19)
(-2.04027 0.112067 5.73702e-20)
(-2.0773 0.103267 -1.12935e-19)
(-2.11234 0.0955911 1.11155e-19)
(-2.14563 0.0888659 5.47473e-20)
(-2.17735 0.0829385 0)
(-2.20764 0.0776719 5.32233e-20)
(-2.23659 0.0729489 0)
(-2.26429 0.0686727 0)
(-2.29079 0.0647615 0)
(-2.31614 0.061151 5.04034e-20)
(-2.34036 0.0577868 0)
(-2.3635 0.054628 9.8368e-20)
(-2.38556 0.0516393 -1.45754e-19)
(-2.40656 0.048795 -4.80084e-20)
(-2.42651 0.0460726 0)
(-2.44543 0.0434553 -4.68137e-20)
(-2.46332 0.040929 0)
(-2.48019 0.0384818 -9.12674e-20)
(-2.49603 0.0361049 0)
(-2.51086 0.0337889 -8.8917e-20)
(-2.52466 0.0315281 1.75369e-19)
(-2.53744 0.0293141 8.656e-20)
(-2.5492 0.0271423 0)
(-2.55993 0.0250051 0)
(-2.56963 0.0228965 0)
(-2.5783 0.0208099 -8.1773e-20)
(-2.58592 0.0187394 0)
(-2.59251 0.0166776 7.93214e-20)
(-2.59806 0.0146184 0)
(-2.6026 0.0125543 -2.30496e-19)
(-2.60615 0.0104782 -7.556e-20)
(-2.60875 0.00838457 -7.42848e-20)
(-2.61047 0.00628494 0)
(-2.6114 0.00422834 0)
(-2.61164 0.00228802 0)
(-2.61099 0.000483184 0)
(-2.60918 -0.001245 0)
(-2.6062 -0.00293943 -1.3244e-19)
(-2.60202 -0.00461057 -1.29571e-19)
(-2.59662 -0.00626263 0)
(-2.58999 -0.00789727 6.17423e-20)
(-2.58212 -0.00951252 6.02226e-20)
(-2.57301 -0.0111086 0)
(-2.56265 -0.0126825 1.14465e-19)
(-2.55103 -0.014234 0)
(-2.53815 -0.0157601 -5.41673e-20)
(-2.52401 -0.0172603 0)
(-2.50862 -0.0187319 0)
(-2.49196 -0.0201742 9.79099e-20)
(-2.47405 -0.0215849 0)
(-2.4549 -0.0229635 -4.52148e-20)
(-2.4345 -0.0243083 0)
(-2.41286 -0.0256187 0)
(-2.39 -0.0268936 -4.00829e-20)
(-2.36592 -0.0281321 -3.76838e-20)
(-2.34063 -0.0293335 0)
(-2.31416 -0.0304967 3.42195e-20)
(-2.2865 -0.0316214 0)
(-2.25768 -0.0327062 -3.01223e-20)
(-2.22771 -0.0337509 -5.54599e-20)
(-2.19662 -0.0347539 0)
(-2.16441 -0.035715 0)
(-2.13111 -0.0366325 0)
(-2.09674 -0.0375068 0)
(-2.06133 -0.0383377 -3.2449e-20)
(-2.0249 -0.0391238 -8.44765e-20)
(-1.98749 -0.0398613 0)
(-1.94911 -0.0405549 0)
(-1.90978 -0.0412198 0)
(-1.86951 -0.0418722 7.89763e-21)
(-1.8283 -0.0425088 0)
(-1.78619 -0.0431127 0)
(-1.74328 -0.0436402 1.43323e-20)
(-1.6996 -0.0440921 1.18578e-20)
(-1.65514 -0.0444896 1.8919e-20)
(-1.60995 -0.0448418 0)
(-1.56407 -0.0451531 0)
(-1.51752 -0.0454283 3.61771e-20)
(-1.47033 -0.045666 -4.05194e-20)
(-1.42255 -0.0458722 0)
(-1.37421 -0.0460421 0)
(-1.32532 -0.0461863 -6.06448e-20)
(-1.27594 -0.0462967 1.99451e-19)
(-1.22606 -0.0463781 0)
(-1.17574 -0.0464252 0)
(-1.12497 -0.0464412 8.69169e-20)
(-1.07381 -0.0464259 0)
(-1.02226 -0.0463742 1.99847e-19)
(-0.970389 -0.0462995 -1.0616e-19)
(-0.918207 -0.0461961 0)
(-0.865738 -0.0460724 1.22597e-19)
(-0.813011 -0.0459343 2.58482e-19)
(-0.760038 -0.0457864 0)
(-0.70683 -0.0456346 0)
(-0.653394 -0.0454835 -1.53631e-19)
(-0.599729 -0.045336 0)
(-0.545834 -0.0451932 3.38273e-19)
(-0.491708 -0.0450546 0)
(-0.43735 -0.0449206 0)
(-0.382757 -0.0447924 0)
(-0.327926 -0.0446735 0)
(-0.272849 -0.044568 -2.14127e-19)
(-0.217514 -0.0444797 -2.23505e-19)
(-0.161905 -0.0444118 0)
(-0.106007 -0.0443632 0)
(-0.0498107 -0.0443254 0)
(0.00667671 -0.0442754 2.60309e-19)
(0.0634364 -0.0441817 0)
(0.120411 -0.0440042 -5.27105e-19)
(0.177503 -0.0436643 5.28233e-19)
(0.234423 -0.04294 5.29403e-19)
(0.291066 -0.0414767 5.27644e-19)
(0.345086 -0.0389701 5.33355e-19)
(0.401592 -0.0345445 5.35492e-19)
(0.436236 -0.0213254 0)
(0.000389172 0.023828 0)
(0.00090662 0.0410426 0)
(0.00691686 0.03354 -2.29606e-18)
(0.0277027 -0.00100374 -1.59998e-18)
(0.0684464 -0.0626192 9.46946e-19)
(0.121152 -0.130383 6.14618e-19)
(0.175107 -0.183842 -3.69914e-22)
(0.223227 -0.214242 0)
(0.262905 -0.222631 0)
(0.294231 -0.214455 0)
(0.318492 -0.195692 0)
(0.337188 -0.171156 0)
(0.351557 -0.144099 -7.0503e-19)
(0.362471 -0.116435 0)
(0.370498 -0.0891837 2.24942e-19)
(0.376018 -0.062819 2.24361e-19)
(0.379296 -0.0375221 0)
(0.380529 -0.0133537 0)
(0.37997 0.00972044 0)
(0.377952 0.0318793 0)
(0.374746 0.0532802 2.38827e-19)
(0.370541 0.0738746 0)
(0.365274 0.0933036 -2.55689e-19)
(0.358561 0.110818 0)
(0.349717 0.125287 0)
(0.337859 0.135261 0)
(0.322162 0.139208 -6.38815e-19)
(0.302231 0.135858 0)
(0.278553 0.124655 3.78549e-19)
(0.25269 0.105923 -8.43831e-19)
(0.227205 0.0807776 0)
(0.205115 0.0506241 0)
(0.189115 0.0171941 0)
(0.179558 -0.0183867 6.31349e-19)
(0.175571 -0.0527425 5.58967e-19)
(0.170483 -0.075909 0)
(0.157026 -0.0780493 0)
(0.134665 -0.061547 -7.69018e-19)
(0.104414 -0.0341336 -7.91126e-19)
(0.0665676 -0.000663256 8.78424e-19)
(0.0189598 0.0340709 0)
(-0.0494012 0.0672783 0)
(-0.144376 0.107916 0)
(-0.259299 0.159453 0)
(-0.390477 0.216202 -3.90406e-19)
(-0.532091 0.273419 -3.09383e-19)
(-0.676341 0.327043 2.53877e-19)
(-0.817426 0.372254 0)
(-0.95121 0.407649 0)
(-1.07388 0.432264 0)
(-1.18371 0.445348 0)
(-1.28 0.447397 -1.41796e-19)
(-1.3627 0.439163 0)
(-1.43306 0.422295 0)
(-1.49296 0.39917 -1.18525e-19)
(-1.54491 0.372045 -1.12095e-19)
(-1.59078 0.342826 0)
(-1.63248 0.313487 2.09723e-19)
(-1.67123 0.285321 -1.00693e-19)
(-1.708 0.259086 9.7989e-20)
(-1.74349 0.235098 0)
(-1.77806 0.213774 0)
(-1.81179 0.195082 0)
(-1.8447 0.178788 0)
(-1.8768 0.164569 8.73651e-20)
(-1.9081 0.152174 1.71574e-19)
(-1.93859 0.141325 8.4172e-20)
(-1.96824 0.131787 -8.27196e-20)
(-1.99704 0.123335 0)
(-2.02496 0.11578 1.59975e-19)
(-2.05199 0.108962 1.57435e-19)
(-2.07812 0.102747 1.54997e-19)
(-2.10334 0.0970271 -1.52649e-19)
(-2.12766 0.0917127 0)
(-2.15106 0.0867332 -2.22333e-19)
(-2.17355 0.0820309 0)
(-2.19512 0.0775608 7.18822e-20)
(-2.21576 0.0732866 7.10037e-20)
(-2.23548 0.0691796 0)
(-2.25427 0.0652166 0)
(-2.27213 0.0613792 1.35855e-19)
(-2.28906 0.0576521 0)
(-2.30505 0.0540228 1.31955e-19)
(-2.32011 0.0504807 0)
(-2.33423 0.0470163 -1.28099e-19)
(-2.3474 0.043622 -2.52449e-19)
(-2.35963 0.0402898 0)
(-2.37091 0.0370133 0)
(-2.38123 0.0337857 0)
(-2.3906 0.0306008 -1.18496e-19)
(-2.39902 0.0274541 0)
(-2.40646 0.0243415 -1.14625e-19)
(-2.41294 0.021261 0)
(-2.41845 0.0182129 0)
(-2.42301 0.0152004 2.17509e-19)
(-2.42661 0.0122307 0)
(-2.42926 0.00931374 1.04803e-19)
(-2.43096 0.0064606 0)
(-2.43167 0.00367038 1.00741e-19)
(-2.43134 0.000917498 0)
(-2.42993 -0.0018283 0)
(-2.42738 -0.0045651 0)
(-2.4237 -0.00727993 2.7647e-19)
(-2.41885 -0.00996951 8.98697e-20)
(-2.41282 -0.0126328 0)
(-2.4056 -0.0152677 0)
(-2.39718 -0.0178724 0)
(-2.38755 -0.0204443 0)
(-2.3767 -0.0229808 -7.84136e-20)
(-2.36464 -0.0254792 1.52504e-19)
(-2.35135 -0.0279365 7.36205e-20)
(-2.33684 -0.0303501 -1.42847e-19)
(-2.32109 -0.032717 -1.3792e-19)
(-2.30413 -0.0350345 -6.61857e-20)
(-2.28594 -0.0373 0)
(-2.26653 -0.0395117 -1.22728e-19)
(-2.24592 -0.0416677 0)
(-2.22409 -0.0437664 1.12251e-19)
(-2.20107 -0.0458064 5.31098e-20)
(-2.17687 -0.0477863 0)
(-2.15149 -0.0497047 -9.60078e-20)
(-2.12494 -0.0515602 -4.48446e-20)
(-2.09724 -0.0533516 0)
(-2.0684 -0.0550776 -3.99697e-20)
(-2.03845 -0.0567371 1.09628e-19)
(-2.00738 -0.0583287 0)
(-1.97523 -0.059851 0)
(-1.94202 -0.0613019 0)
(-1.90775 -0.0626804 0)
(-1.87246 -0.0639849 4.34877e-20)
(-1.83617 -0.065213 3.63489e-20)
(-1.79891 -0.0663588 0)
(-1.76069 -0.067419 0)
(-1.72154 -0.0683982 0)
(-1.68148 -0.0693045 0)
(-1.64052 -0.0701497 0)
(-1.59872 -0.0709514 0)
(-1.55613 -0.0716899 -8.92963e-21)
(-1.51278 -0.0723405 -1.09114e-21)
(-1.46868 -0.0729114 0)
(-1.42385 -0.0734091 0)
(-1.37834 -0.0738396 -3.50334e-20)
(-1.33218 -0.074207 0)
(-1.2854 -0.0745129 5.01277e-20)
(-1.23803 -0.0747608 5.60347e-20)
(-1.1901 -0.0749521 0)
(-1.14165 -0.0750914 0)
(-1.09269 -0.0751789 -7.87255e-20)
(-1.04326 -0.0752136 -1.69621e-19)
(-0.993375 -0.0751967 0)
(-0.943067 -0.0751259 0)
(-0.892355 -0.0750051 0)
(-0.841272 -0.0748277 -1.15657e-19)
(-0.789852 -0.0746055 1.23192e-19)
(-0.738118 -0.0743383 0)
(-0.686098 -0.0740342 2.74384e-19)
(-0.633811 -0.0737028 1.43646e-19)
(-0.581274 -0.0733513 -3.05165e-19)
(-0.528498 -0.0729882 0)
(-0.475488 -0.0726205 0)
(-0.422245 -0.0722526 -3.51919e-19)
(-0.368769 -0.0718863 -1.85051e-19)
(-0.315056 -0.0715207 0)
(-0.261104 -0.0711557 0)
(-0.206911 -0.0707929 0)
(-0.152471 -0.0704361 0)
(-0.0977759 -0.0700904 -4.47214e-19)
(-0.042812 -0.0697607 0)
(0.0124356 -0.0694502 0)
(0.0679835 -0.0691556 0)
(0.123848 -0.0688648 0)
(0.180031 -0.0685478 0)
(0.236515 -0.0681637 0)
(0.293249 -0.0676572 -5.11204e-19)
(0.350157 -0.0669294 0)
(0.407013 -0.0657962 0)
(0.463798 -0.0639345 -1.05968e-18)
(0.518925 -0.0608155 5.35284e-19)
(0.576288 -0.0553889 -5.4616e-19)
(0.621103 -0.042075 5.57799e-19)
(-0.00115766 0.0239229 0)
(0.0020474 0.0274536 5.00744e-18)
(0.0245475 -0.0159874 0)
(0.0738908 -0.101672 8.45008e-19)
(0.136343 -0.191678 0)
(0.195109 -0.25668 0)
(0.240829 -0.287958 -3.17848e-19)
(0.27236 -0.290813 0)
(0.292665 -0.275019 0)
(0.30549 -0.249111 0)
(0.313787 -0.218664 0)
(0.319411 -0.186749 0)
(0.323346 -0.154896 7.96493e-19)
(0.326042 -0.123803 3.91782e-19)
(0.327657 -0.0937757 -3.89254e-19)
(0.328226 -0.0649455 0)
(0.327756 -0.0373687 0)
(0.326259 -0.0110776 0)
(0.323789 0.0139168 0)
(0.320438 0.0376511 0)
(0.316354 0.0601753 4.21181e-19)
(0.311761 0.0815071 4.32356e-19)
(0.306884 0.101569 -4.48052e-19)
(0.301847 0.12006 4.69528e-19)
(0.296568 0.136352 0)
(0.290714 0.149408 0)
(0.283688 0.157771 5.68132e-19)
(0.274717 0.159699 0)
(0.263176 0.153577 0)
(0.248829 0.138222 7.31e-19)
(0.2323 0.113364 8.15133e-19)
(0.2147 0.079972 9.22391e-19)
(0.19746 0.0403133 0)
(0.180007 -0.00119531 0)
(0.155497 -0.032625 -9.56764e-19)
(0.118222 -0.0401493 0)
(0.0694522 -0.0233967 0)
(0.0102899 0.0110183 7.67853e-19)
(-0.0623725 0.057316 -6.84107e-19)
(-0.151547 0.113452 5.42736e-19)
(-0.255779 0.17663 0)
(-0.374124 0.242123 0)
(-0.50269 0.307953 5.74998e-19)
(-0.635321 0.372602 0)
(-0.766339 0.43233 4.11426e-19)
(-0.890571 0.481893 5.41618e-19)
(-1.00323 0.519276 -4.83033e-19)
(-1.10215 0.54452 2.92205e-19)
(-1.18665 0.557535 0)
(-1.25663 0.559137 0)
(-1.31366 0.550543 2.32437e-19)
(-1.35968 0.533257 1.08449e-19)
(-1.39711 0.509058 0)
(-1.42859 0.480001 0)
(-1.45647 0.448303 9.33143e-20)
(-1.48254 0.415695 1.80611e-19)
(-1.50807 0.383442 0)
(-1.53387 0.352604 -1.66593e-19)
(-1.5603 0.323841 1.62396e-19)
(-1.58746 0.297455 -1.57629e-19)
(-1.61531 0.27354 0)
(-1.6437 0.252131 0)
(-1.67238 0.233122 0)
(-1.70113 0.21629 0)
(-1.72973 0.201368 0)
(-1.75804 0.188114 -1.36352e-19)
(-1.78594 0.17629 0)
(-1.81331 0.165681 0)
(-1.84007 0.156094 0)
(-1.86617 0.147359 -2.53575e-19)