/*--------------------------------*- C++ -*----------------------------------*\
  =========                 |
  \\      /  F ield         | OpenFOAM: The Open Source CFD Toolbox
   \\    /   O peration     | Website:  https://openfoam.org
    \\  /    A nd           | Version:  8
     \\/     M anipulation  |
\*---------------------------------------------------------------------------*/
FoamFile
{
    version     2.0;
    format      ascii;
    class       volVectorField;
    location    "1400";
    object      wallShearStress;
}
// * * * * * * * * * * * * * * * * * * * * * * * * * * * * * * * * * * * * * //

dimensions      [0 2 -2 0 0 0 0];

internalField   uniform (0 0 0);

boundaryField
{
    inlet
    {
        type            calculated;
        value           uniform (0 0 0);
    }
    outlet
    {
        type            calculated;
        value           uniform (0 0 0);
    }
    upperWall
    {
        type            calculated;
        value           nonuniform List<vector> 
223
(
(-0.46623 0.00302437 0)
(-0.496199 0.00581935 0)
(-0.511467 0.00699232 0)
(-0.511875 0.0073215 0)
(-0.505511 0.00717771 0)
(-0.493523 0.00669932 0)
(-0.48183 0.00610833 0)
(-0.469477 0.0054628 0)
(-0.457619 0.00481849 0)
(-0.446721 0.00421494 0)
(-0.4369 0.00366781 0)
(-0.428131 0.0031807 0)
(-0.42035 0.00275752 0)
(-0.413438 0.00239622 0)
(-0.407289 0.00208875 0)
(-0.401805 0.00184143 0)
(-0.39686 0.00165207 0)
(-0.392416 0.00155387 0)
(-0.388842 0.00151083 0)
(-0.386 0.00149634 5.78638e-22)
(-0.383206 0.00145796 0)
(-0.380477 0.00140463 0)
(-0.37781 0.00134261 0)
(-0.375212 0.00127544 5.90508e-22)
(-0.37269 0.00120548 0)
(-0.370248 0.00113494 0)
(-0.367886 0.00106499 0)
(-0.365606 0.000996857 -1.20187e-21)
(-0.363405 0.000930897 1.20677e-21)
(-0.361284 0.000867972 1.21157e-21)
(-0.359239 0.000808051 0)
(-0.357269 0.0007515 -1.22094e-21)
(-0.35537 0.000697953 0)
(-0.35354 0.000647752 1.23004e-21)
(-0.351776 0.000600471 1.23452e-21)
(-0.350078 0.000556126 -1.23896e-21)
(-0.348443 0.00051457 0)
(-0.346868 0.000475753 0)
(-0.345352 0.000439768 0)
(-0.343893 0.000406663 0)
(-0.342486 0.000376354 -1.26094e-21)
(-0.341129 0.000348785 0)
(-0.339819 0.000323978 0)
(-0.338552 0.000301742 1.27415e-21)
(-0.337326 0.000281797 0)
(-0.336137 0.000263903 1.28305e-21)
(-0.334985 0.000248031 -1.28754e-21)
(-0.333865 0.000233842 1.29206e-21)
(-0.332778 0.000221091 0)
(-0.331721 0.000209801 0)
(-0.330692 0.000199867 0)
(-0.32969 0.000191208 1.31051e-21)
(-0.328713 0.000183842 -1.31523e-21)
(-0.32776 0.000177738 0)
(-0.326828 0.000172728 0)
(-0.325918 0.000168816 0)
(-0.325024 0.000166035 0)
(-0.324148 0.00016418 0)
(-0.323285 0.000163222 0)
(-0.322438 0.00016313 0)
(-0.3216 0.000163741 0)
(-0.320774 0.000165082 1.35994e-21)
(-0.319954 0.000167124 -1.36517e-21)
(-0.319143 0.000169682 0)
(-0.318336 0.000172731 0)
(-0.317535 0.000176134 0)
(-0.316736 0.000179912 -1.38653e-21)
(-0.315939 0.000184043 0)
(-0.315146 0.000188404 0)
(-0.314346 0.000193165 0)
(-0.313558 0.000198155 0)
(-0.312749 0.000203617 0)
(-0.311957 0.000208961 -2.83922e-21)
(-0.31115 0.000215865 0)
(-0.310312 0.000234129 0)
(-0.30952 0.000228113 0)
(-0.308678 0.000181066 0)
(-0.307669 0.000243845 0)
(-0.307144 0.000345719 0)
(-0.307877 0.000350486 0)
(-0.306357 0.000355794 2.94988e-21)
(-0.307447 0.000361301 0)
(-0.305792 0.000309296 0)
(-0.305565 0.000163774 0)
(-0.355985 0.000182292 -3.50315e-21)
(-0.340631 0.00044189 0)
(-0.326584 0.00039305 -3.24136e-21)
(-0.321862 0.000272445 0)
(-0.304186 0.000301268 0)
(-0.355417 0.000314151 0)
(-0.33697 0.000319792 -3.42121e-21)
(-0.314164 0.000377185 0)
(-0.329563 0.000430516 3.39181e-21)
(-0.371711 0.000567686 3.84218e-21)
(-0.347044 0.000411745 0)
(-0.339803 0.00023077 3.52635e-21)
(-0.376262 0.00057892 0)
(-0.348773 0.000645837 0)
(-0.329232 0.00044961 0)
(-0.311667 0.000388218 -3.23945e-21)
(-0.300369 0.00043393 0)
(-0.299929 0.000497578 -3.12229e-21)
(-0.299551 9.89686e-05 3.1143e-21)
(-0.322732 0.000658859 0)
(-0.309726 0.00117451 0)
(-0.300016 0.000913486 0)
(-0.297303 0.000788913 0)
(-0.301897 0.000549739 0)
(-0.296251 0.000210225 0)
(-0.315691 -0.000141598 0)
(-0.35714 0.000205723 -3.71604e-21)
(-0.328901 0.0010232 0)
(-0.301362 0.00101202 0)
(-0.293646 0.000172195 0)
(-0.34899 1.07428e-05 0)
(-0.31914 0.000296699 0)
(-0.322564 0.000261959 0)
(-0.353837 0.000311456 0)
(-0.357477 0.000667851 0)
(-0.306234 0.000544565 0)
(-0.315146 0.000409272 0)
(-0.348346 0.000743593 0)
(-0.358029 0.000707314 0)
(-0.362822 0.000323778 -7.00742e-21)
(-0.365367 -8.57834e-05 0)
(-0.353735 0.000180703 0)
(-0.312435 0.00112483 0)
(-0.290368 0.00171152 5.12636e-21)
(-0.28174 0.00150926 0)
(-0.280465 0.00115702 0)
(-0.279113 0.000722533 4.67616e-21)
(-0.278008 0.000150498 0)
(-0.289928 8.61139e-05 -4.73237e-21)
(-0.321494 0.00019537 0)
(-0.301757 9.57008e-05 0)
(-0.300015 0.000614714 0)
(-0.274776 0.00117746 3.96918e-21)
(-0.269879 0.00079507 0)
(-0.284794 0.0010094 -3.82236e-21)
(-0.267105 0.000965899 0)
(-0.289142 0.00102975 0)
(-0.26427 0.000873845 0)
(-0.286547 0.000863087 0)
(-0.261262 0.000838589 0)
(-0.281633 0.000128385 0)
(-0.27914 0.000641717 0)
(-0.255943 0.000734746 0)
(-0.264805 0.000781694 0)
(-0.252388 0.000759842 0)
(-0.255641 0.000631064 0)
(-0.248862 0.00052891 -8.58821e-22)
(-0.247286 4.62008e-05 5.60797e-22)
(-0.244158 0.000389331 0)
(-0.241335 0.000138799 0)
(-0.237769 0.000973142 0)
(-0.236962 0.00224604 0)
(-0.235939 0.00126864 -9.76777e-22)
(-0.234149 0.00074165 1.366e-21)
(-0.24203 0.000966396 -1.79709e-21)
(-0.255433 5.33716e-05 0)
(-0.238396 -0.000516921 -2.71693e-21)
(-0.2243 -6.22798e-05 -6.0701e-21)
(-0.221571 0.000310377 0)
(-0.218597 0.000896484 -7.89724e-21)
(-0.217331 0.00155027 8.53129e-21)
(-0.230179 0.00188204 0)
(-0.241154 0.00174037 0)
(-0.239935 0.00112907 0)
(-0.231425 0.000803176 0)
(-0.220703 0.000272938 0)
(-0.207024 -0.000410055 -1.46673e-20)
(-0.203877 9.58268e-05 0)
(-0.202209 0.000380458 -1.70106e-20)
(-0.199201 0.000441242 0)
(-0.197056 0.00132968 0)
(-0.196488 0.00167427 0)
(-0.195664 0.00106939 0)
(-0.19333 0.00122521 0)
(-0.193049 0.000996678 2.36044e-20)
(-0.190125 -0.000627428 0)
(-0.184885 -0.000867488 0)
(-0.180928 0.000262226 -2.98581e-20)
(-0.178226 0.000729704 0)
(-0.175086 0.000506596 0)
(-0.173163 0.00115873 0)
(-0.174583 0.00176757 3.42665e-20)
(-0.177129 0.00152882 0)
(-0.177614 0.00113391 0)
(-0.175942 0.000793279 0)
(-0.171851 0.000492904 0)
(-0.164852 0.000315986 -4.43288e-20)
(-0.153939 0.000554191 0)
(-0.139324 0.00109752 0)
(-0.121601 0.00176306 0)
(-0.1037 0.0022366 8.08348e-20)
(-0.0848879 0.00224651 0)
(-0.073303 0.00249974 0)
(-0.0399645 0.00173909 -1.3532e-19)
(-0.0724728 0.000760344 6.01853e-36)
(-0.108314 0.00619904 1.16891e-17)
(-0.132995 0.0107886 2.0828e-17)
(-0.146146 0.0135199 1.95007e-17)
(-0.153878 0.0150539 1.87106e-17)
(-0.15956 0.0159824 1.80974e-17)
(-0.163928 0.0166309 -1.75871e-17)
(-0.166923 0.0170712 -1.71189e-17)
(-0.169075 0.0173621 -6.01853e-36)
(-0.170976 0.0175738 -3.27688e-17)
(-0.172749 0.0177497 -1.60451e-17)
(-0.174626 0.01791 1.80556e-34)
(-0.176808 0.018086 -1.20371e-35)
(-0.179485 0.0183013 -2.96716e-17)
(-0.182815 0.0185734 -2.85967e-17)
(-0.186799 0.0189138 -2.73405e-17)
(-0.19159 0.0193254 -2.40741e-35)
(-0.197069 0.0198134 4.83726e-17)
(-0.203543 0.0203842 2.22381e-17)
(-0.21061 0.0210294 1.20371e-35)
(-0.219355 0.0218054 -3.48145e-17)
(-0.227446 0.0225773 -1.23699e-20)
(-0.24133 0.0237478 -3.00927e-36)
(-0.24513 0.0244577 1.30865e-17)
(-0.271697 0.0260302 -7.25001e-18)
)
;
    }
    lowerWall
    {
        type            calculated;
        value           nonuniform List<vector> 
250
(
(-0.670304 -0.00772582 0)
(-0.625703 -0.0102153 0)
(-0.575221 -0.00968315 0)
(-0.630999 -0.00983153 0)
(-0.6427 -0.00885876 0)
(-0.6051 -0.00747871 0)
(-0.622057 -0.00773873 0)
(-0.539535 -0.00782398 0)
(-0.491916 -0.00754067 0)
(-0.45016 -0.00497087 0)
(-0.442138 -0.0030009 0)
(-0.435425 -0.0018266 0)
(-0.430229 -0.00109614 0)
(-0.426279 -0.000764189 0)
(-0.425457 -7.70453e-06 0)
(-0.487881 -6.39751e-05 0)
(-0.456222 -0.000660122 0)
(-0.420554 -2.42112e-05 0)
(0.00211273 0.000328924 0)
(0.00234915 -0.00251852 0)
(0.00259602 -0.00544491 0)
(0.00290813 -0.00851663 1.1607e-19)
(0.00330194 -0.0115403 -9.78171e-20)
(0.00377646 -0.0154232 8.48982e-20)
(0.00333549 -0.0158378 -7.91247e-20)
(0.00841663 -0.036181 0)
(-0.0503856 -0.105803 0)
(0.000229333 -0.000285555 0)
(5.76562e-05 -0.000813498 0)
(-1.13748e-05 -0.000897816 0)
(5.54529e-05 -0.000896519 0)
(3.373e-05 -0.000867158 1.53577e-19)
(-0.000145774 -0.000290293 -1.49415e-19)
(-0.000598749 0.00118716 0)
(-0.00121754 0.00397258 -1.69904e-19)
(-0.00160108 0.0075062 1.2967e-19)
(-0.00153477 0.0108213 0)
(-0.00112427 0.0132498 0)
(-0.000577496 0.0145091 0)
(-5.89804e-05 0.0145846 0)
(0.000347276 0.0136797 0)
(0.000683039 0.0120806 0)
(0.00100854 0.00983808 0)
(0.00136406 0.00699395 0)
(0.00176492 0.00359766 0)
(-0.000147957 -0.000287191 0)
(0.000174814 -0.000461018 0)
(0.000493636 -0.000513639 0)
(0.000823682 -0.000440081 0)
(0.00108528 -0.000196708 -0)
(0.00113043 0.00020406 -0)
(0.000873901 0.000683604 1.42671e-20)
(0.000345357 0.00113225 -1.61805e-20)
(-0.000385049 0.00145734 0)
(-0.00122077 0.00161879 -9.19208e-21)
(-0.00208083 0.00163117 0)
(-0.00289984 0.00152594 0)
(-0.00363179 0.00134064 0)
(-0.00425165 0.00110667 4.50363e-21)
(-0.00474796 0.00084536 0)
(-0.00511668 0.000568521 0)
(-0.00535547 0.000284492 -3.90173e-21)
(-0.00546875 -1.27344e-05 -0)
(-0.00543228 -0.000321339 0)
(-0.005243 -0.000620721 -0)
(-0.00490954 -0.000890388 4.19241e-21)
(-0.00444321 -0.00110999 -0)
(-0.00386197 -0.00125791 4.95983e-21)
(-0.00319276 -0.00131416 0)
(-0.00247344 -0.00126308 -0)
(-0.00175335 -0.00109977 8.07425e-21)
(-0.00109134 -0.000837902 0)
(-0.000548682 -0.000519919 -1.3561e-20)
(-0.00016549 -0.000220893 0)
(7.34736e-05 -1.39188e-05 2.32451e-20)
(0.000227735 0.000106758 0)
(0.000321061 0.000206689 0)
(0.000323403 0.000324337 0)
(0.000217424 0.000479982 0)
(-2.64379e-05 0.000682786 0)
(-0.000435604 0.000896679 -1.57944e-20)
(-0.000993434 0.00104438 0)
(-0.00161441 0.00105099 1.82221e-20)
(-0.0021785 0.000901691 0)
(-0.00258392 0.000644211 -1.42855e-20)
(-0.00278894 0.000367774 0)
(-0.00282474 0.000147395 0)
(-0.00274709 2.65907e-05 1.39778e-20)
(-0.0026282 3.21914e-05 0)
(-0.00253453 0.000161413 1.44177e-20)
(-0.00247633 0.000354643 -1.4506e-20)
(-0.00239625 0.000449377 0)
(-0.00213909 0.000195125 -1.59278e-20)
(-0.00142855 -0.000498395 -1.87701e-20)
(-5.51433e-05 -0.00120529 0)
(0.00170817 -0.00186981 0)
(0.00369382 -0.00256623 0)
(0.00597352 -0.00315081 0)
(0.00845956 -0.0035713 -0)
(0.0113134 -0.00397486 3.48474e-21)
(0.013981 -0.0040693 0)
(0.0161288 -0.00386364 -2.67273e-21)
(0.0185286 -0.00369828 -0)
(0.021116 -0.00357164 -0)
(0.0242582 -0.0034198 2.218e-21)
(0.0249323 -0.00291298 0)
(0.02767 -0.00273298 -1.95291e-21)
(0.0299222 -0.00254128 -0)
(0.0321959 -0.00237355 0)
(0.034405 -0.00220684 -0)
(0.0364318 -0.00205205 1.82115e-21)
(0.0384374 -0.00191541 0)
(0.0403088 -0.00179192 -0)
(0.0421434 -0.00168351 1.77665e-21)
(0.043888 -0.00158652 0)
(0.0455909 -0.0015003 1.75593e-21)
(0.0472293 -0.00142263 0)
(0.0488275 -0.00135229 0)
(0.0503757 -0.00128771 0)
(0.0518859 -0.00122802 -1.72508e-21)
(0.0533543 -0.00117215 -0)
(0.0547867 -0.00111935 0)
(0.0561812 -0.00106892 -1.70508e-21)
(0.0575403 -0.00102057 -1.6984e-21)
(0.0588638 -0.00097377 -0)
(0.0601521 -0.000928197 -1.68449e-21)
(0.0614049 -0.000883625 0)
(0.0626222 -0.000839856 -3.33896e-21)
(0.0638035 -0.000796734 -0)
(0.0649486 -0.000753976 -3.30598e-21)
(0.0660565 -0.00071155 -0)
(0.0671269 -0.00066919 3.26939e-21)
(0.0681584 -0.000626756 0)
(0.0691502 -0.000584048 0)
(0.0701011 -0.000540763 0)
(0.0710096 -0.000496605 -3.183e-21)
(0.0718738 -0.000451203 -0)
(0.0726915 -0.000404247 3.1322e-21)
(0.0734607 -0.000355421 0)
(0.074179 -0.000304298 -3.07593e-21)
(0.0748434 -0.00025078 -3.04574e-21)
(0.0754515 -0.000195238 -3.0142e-21)
(0.0760011 -0.000138972 0)
(0.0764916 -8.46436e-05 0)
(0.0769247 -3.65725e-05 0)
(0.0773065 3.86983e-06 0)
(0.0776403 4.10254e-05 0)
(0.0779264 7.76083e-05 0)
(0.0781648 0.000113916 0)
(0.0783541 0.000150177 0)
(0.0784943 0.000186349 2.65814e-21)
(0.0785845 0.000222399 2.60875e-21)
(0.0786245 0.000258389 0)
(0.0786133 0.00029422 0)
(0.0785507 0.000329821 0)
(0.0784363 0.000365098 2.38902e-21)
(0.0782701 0.000400054 0)
(0.078052 0.000434608 0)
(0.0777817 0.000468712 0)
(0.0774596 0.000502305 0)
(0.0770858 0.000535412 -2.06102e-21)
(0.0766601 0.000567913 0)
(0.0761834 0.000599746 0)
(0.075656 0.000631007 1.83377e-21)
(0.075078 0.000661589 -1.7527e-21)
(0.0744503 0.00069141 0)
(0.0737736 0.000720552 -1.58238e-21)
(0.0730482 0.00074894 0)
(0.0722754 0.000776504 1.40085e-21)
(0.0714559 0.000803284 0)
(0.0705907 0.00082919 0)
(0.0696807 0.000854213 0)
(0.0687307 0.000878078 0)
(0.0677412 0.000901287 0)
(0.0666928 0.000923065 -1.57056e-21)
(0.0656223 0.000943787 -1.34372e-21)
(0.0644996 0.000962491 0)
(0.063352 0.000977455 0)
(0.0621708 0.000986605 0)
(0.0609573 0.0009867 3.68734e-22)
(0.0597165 0.000978473 0)
(0.0584415 0.000982436 0)
(0.0571356 0.000998445 0)
(0.0557977 0.00101026 -7.23842e-22)
(0.0544347 0.00102117 1.01824e-21)
(0.0530477 0.00103097 0)
(0.0516389 0.00103992 0)
(0.0502099 0.00104809 1.95795e-21)
(0.0487623 0.00105545 2.29148e-21)
(0.0472987 0.00106216 0)
(0.0458188 0.00106797 0)
(0.0443271 0.00107331 -3.36003e-21)
(0.0428208 0.00107773 3.7412e-21)
(0.0413058 0.00108175 0)
(0.0397785 0.00108471 0)
(0.0382462 0.00108727 4.96903e-21)
(0.0367036 0.00108881 0)
(0.0351584 0.00108982 0)
(0.0336094 0.00109039 6.34528e-21)
(0.0320576 0.00109029 0)
(0.0305063 0.00108999 7.36132e-21)
(0.0289547 0.0010895 0)
(0.027405 0.00108898 0)
(0.0258573 0.00108861 0)
(0.0243123 0.00108846 -9.69227e-21)
(0.0227702 0.00108864 0)
(0.0212312 0.00108917 0)
(0.0196953 0.00109007 0)
(0.0181628 0.00109138 0)
(0.0166336 0.00109318 0)
(0.015108 0.0010956 0)
(0.0135858 0.00109881 -1.52335e-20)
(0.0120667 0.00110296 -1.62555e-20)
(0.0105502 0.00110813 0)
(0.00903574 0.00111437 0)
(0.00752304 0.00112161 0)
(0.00601192 0.00113028 2.1285e-20)
(0.0045027 0.00114003 0)
(0.00299712 0.00114884 -4.919e-20)
(0.0014995 0.00115275 5.30611e-20)
(2.03789e-05 0.00113923 5.56982e-20)
(-0.00143942 0.00108588 -5.49392e-20)
(-0.00277743 0.00100673 5.27116e-20)
(-0.00425711 0.000837077 -5.0976e-20)
(-0.00452575 0.000434961 0)
(-0.00649302 0.000992879 -3.05596e-18)
(-0.00964423 0.000757274 -2.78057e-18)
(-0.0127692 0.000400128 0)
(-0.0159555 6.78386e-05 -4.75538e-18)
(-0.0193412 -0.000276086 -8.86151e-18)
(-0.0229405 -0.000636651 -4.14193e-18)
(-0.0267647 -0.00101618 3.88075e-18)
(-0.0308348 -0.00141909 -1.20371e-35)
(-0.0351798 -0.00184938 0)
(-0.0398173 -0.00231149 3.22018e-18)
(-0.0447656 -0.00279478 3.03028e-18)
(-0.0500362 -0.00327969 3.00927e-36)
(-0.0556562 -0.00380573 0)
(-0.0616745 -0.00440615 0)
(-0.0681491 -0.00506561 -6.16429e-35)
(-0.0750802 -0.0057785 -5.64237e-36)
(-0.0826209 -0.00654713 2.10649e-35)
(-0.0906251 -0.00737666 -3.76576e-18)
(-0.0996683 -0.00827776 -3.43178e-18)
(-0.108807 -0.00925349 1.20371e-35)
(-0.120456 -0.010326 5.40385e-18)
(-0.130086 -0.0115037 8.97212e-18)
(-0.14765 -0.0127449 1.20371e-35)
(-0.155094 -0.0142678 -4.33004e-18)
(-0.189999 -0.0166203 -9.0278e-36)
)
;
    }
    frontAndBack
    {
        type            empty;
    }
}


// ************************************************************************* //
