/*--------------------------------*- C++ -*----------------------------------*\
| =========                 |                                                 |
| \\      /  F ield         | OpenFOAM: The Open Source CFD Toolbox           |
|  \\    /   O peration     | Version:  v2012                                 |
|   \\  /    A nd           | Website:  www.openfoam.com                      |
|    \\/     M anipulation  |                                                 |
\*---------------------------------------------------------------------------*/
FoamFile
{
    version     2.0;
    format      ascii;
    class       volScalarField;
    location    "100";
    object      nut;
}
// * * * * * * * * * * * * * * * * * * * * * * * * * * * * * * * * * * * * * //

dimensions      [0 2 -1 0 0 0 0];


internalField   nonuniform List<scalar> 
12225
(
5.3424e-06
8.14632e-06
1.00294e-05
1.11498e-05
1.16603e-05
1.18271e-05
1.1867e-05
1.17415e-05
1.15687e-05
1.139e-05
1.1216e-05
1.10507e-05
1.09094e-05
1.07681e-05
1.06721e-05
1.05457e-05
1.0503e-05
1.03958e-05
0.000251789
5.79297e-05
4.44017e-05
3.6399e-05
3.33422e-05
3.23041e-05
3.20348e-05
3.25285e-05
3.32114e-05
3.30563e-05
3.26798e-05
3.29113e-05
3.28223e-05
3.32779e-05
3.33612e-05
3.39974e-05
3.43026e-05
3.52263e-05
0.00059654
0.000321496
0.000224148
0.000164903
0.000133747
0.00011362
0.000102224
9.25172e-05
8.64529e-05
7.94547e-05
7.49416e-05
6.99138e-05
6.67909e-05
6.32502e-05
6.11845e-05
5.86785e-05
5.73838e-05
5.56626e-05
0.000770245
0.000637955
0.000533264
0.000440558
0.000377982
0.000325639
0.000294925
0.000264341
0.000246077
0.000224544
0.000211509
0.000195737
0.000186527
0.000174737
0.000168272
0.00015934
0.000154997
0.000148154
0.00085699
0.000777432
0.000728835
0.000675767
0.000631776
0.000578212
0.000542199
0.000501235
0.000475045
0.000444074
0.000424464
0.000400169
0.000385363
0.000365985
0.00035499
0.000339385
0.00033157
0.000318774
0.000858177
0.000835649
0.000817828
0.000796496
0.000777874
0.000747784
0.000724885
0.000694498
0.000672706
0.000645532
0.000626698
0.000603086
0.000587433
0.000567012
0.000554484
0.00053683
0.000527375
0.000512019
0.000853359
0.000849385
0.000843634
0.000837776
0.000830943
0.000820915
0.00081174
0.000797747
0.00078648
0.000770998
0.000759241
0.000743767
0.000732549
0.000717717
0.000707711
0.000693862
0.000685541
0.00067283
0.000851964
0.000850754
0.000849144
0.000846563
0.00084445
0.000840276
0.000836121
0.000831111
0.000825757
0.000818602
0.000812369
0.000803919
0.000797269
0.000788365
0.000781838
0.000772889
0.000766989
0.00075818
0.000851654
0.000850713
0.000849989
0.000848684
0.000847752
0.000846176
0.000844526
0.000842329
0.000840063
0.000837153
0.000833824
0.000830241
0.00082657
0.000822229
0.000818369
0.000813553
0.000809734
0.000804611
0.000851584
0.000850671
0.000849975
0.000849086
0.000848384
0.000847515
0.000846733
0.000845713
0.000844746
0.000843494
0.000842249
0.000840607
0.000839134
0.000837126
0.000835426
0.000833136
0.000831389
0.000828784
0.00085156
0.000850673
0.000849916
0.000849113
0.000848426
0.000847689
0.000847063
0.000846354
0.000845749
0.00084502
0.000844399
0.000843594
0.000842915
0.000842006
0.000841251
0.000840227
0.00083942
0.000838317
0.000851548
0.000850677
0.000849886
0.000849102
0.000848393
0.000847683
0.000847047
0.000846401
0.000845826
0.000845229
0.0008447
0.000844135
0.000843632
0.00084308
0.000842586
0.000842037
0.000841545
0.000840999
0.000851542
0.000850678
0.00084987
0.000849092
0.000848365
0.000847662
0.000847007
0.000846372
0.00084578
0.000845205
0.000844669
0.000844146
0.000843657
0.000843177
0.000842727
0.000842284
0.000841865
0.000841454
0.000851539
0.000850676
0.000849861
0.000849083
0.000848347
0.000847643
0.000846978
0.000846341
0.000845739
0.000845162
0.000844616
0.000844092
0.000843597
0.000843122
0.000842671
0.000842239
0.000841827
0.000841433
0.000851537
0.000850675
0.000849855
0.000849075
0.000848333
0.000847628
0.000846956
0.000846317
0.000845708
0.000845127
0.000844574
0.000844047
0.000843544
0.000843065
0.000842607
0.000842173
0.000841755
0.00084136
0.000851536
0.000850674
0.000849851
0.000849071
0.000848325
0.000847618
0.000846942
0.0008463
0.000845686
0.000845103
0.000844544
0.000844013
0.000843505
0.000843022
0.000842559
0.000842119
0.000841696
0.000841297
0.000851537
0.000850677
0.000849855
0.000849075
0.000848329
0.000847622
0.000846943
0.000846301
0.000845683
0.000845098
0.000844535
0.000844002
0.000843489
0.000843002
0.000842534
0.00084209
0.000841662
0.000841258
0.000851536
0.000850679
0.000849854
0.000849076
0.000848326
0.00084762
0.000846938
0.000846296
0.000845674
0.000845088
0.00084452
0.000843985
0.000843466
0.000842977
0.000842503
0.000842056
0.000841622
0.000841213
0.000851539
0.000850672
0.000849853
0.000849066
0.000848323
0.000847607
0.000846932
0.000846279
0.000845663
0.000845067
0.000844505
0.000843959
0.000843444
0.000842945
0.000842474
0.000842017
0.000841585
0.000841167
0.000851536
0.000850676
0.000849851
0.000849071
0.000848321
0.000847613
0.00084693
0.000846285
0.00084566
0.000845071
0.000844499
0.00084396
0.000843436
0.000842942
0.000842462
0.000842008
0.000841568
0.000841152
0.000851537
0.000850677
0.000849854
0.000849074
0.000848327
0.000847617
0.000846937
0.000846288
0.000845667
0.000845074
0.000844504
0.000843958
0.000843434
0.000842931
0.000842447
0.000841983
0.000841535
0.000841105
0.000851536
0.000850679
0.000849857
0.000849081
0.000848334
0.000847625
0.00084694
0.000846287
0.000845651
0.000845042
0.000844444
0.000843869
0.000843295
0.000842745
0.00084219
0.000841658
0.000841117
0.000840602
0.000851537
0.000850684
0.000849862
0.000849112
0.000848327
0.0008476
0.000846818
0.000846069
0.000845256
0.000844466
0.000843595
0.000842739
0.000841784
0.000840859
0.000839816
0.000838838
0.000837713
0.000836701
0.000851574
0.000850597
0.000849842
0.000849058
0.00084793
0.000846725
0.000845144
0.000843448
0.000841388
0.000839274
0.000836831
0.000834293
0.000831508
0.000828625
0.000825564
0.000822571
0.000819273
0.000816362
0.000851584
0.000848884
0.000848494
0.00084646
0.000842605
0.000837763
0.000831914
0.000825126
0.000817273
0.000809824
0.000801379
0.000793486
0.000784752
0.000776854
0.000768205
0.000760661
0.000752309
0.000745333
0.000845172
0.00082737
0.000832664
0.000820118
0.000805429
0.000785554
0.000763107
0.000742622
0.000721049
0.000702125
0.000682521
0.000665696
0.000648301
0.000633712
0.000618463
0.000606007
0.000592652
0.000582126
0.000749121
0.000756808
0.000742757
0.000698352
0.000645186
0.00059931
0.00055674
0.000522703
0.000491046
0.000466025
0.000442135
0.000423447
0.000405028
0.000390813
0.000376273
0.000365269
0.00035351
0.000344845
0.000412681
0.0004462
0.00041911
0.000359512
0.000309069
0.000272869
0.000244279
0.000223494
0.000205977
0.000193051
0.000181513
0.000173069
0.000165053
0.000159313
0.000153483
0.000149425
0.000145009
0.000141967
0.000114226
0.000116435
9.86092e-05
8.37795e-05
7.38204e-05
6.73895e-05
6.30007e-05
6.00998e-05
5.80945e-05
5.68445e-05
5.60733e-05
5.57605e-05
5.56758e-05
5.59025e-05
5.61861e-05
5.57274e-05
5.50793e-05
5.44715e-05
6.13409e-06
8.0745e-06
9.64558e-06
1.08748e-05
1.1795e-05
1.24715e-05
1.2945e-05
1.32813e-05
1.35283e-05
1.36911e-05
1.37827e-05
1.38373e-05
1.38498e-05
1.38245e-05
1.37743e-05
1.37208e-05
1.36668e-05
1.36121e-05
4.73587e-08
1.25503e-06
2.69894e-06
4.66142e-06
6.67043e-06
8.67695e-06
1.07464e-05
1.25134e-05
1.39568e-05
1.5097e-05
1.5997e-05
1.60951e-05
1.73809e-05
1.90248e-05
2.15998e-05
2.31035e-05
2.50264e-05
2.72286e-05
2.96788e-05
3.23138e-05
3.52934e-05
3.83592e-05
4.17255e-05
4.50119e-05
4.83982e-05
5.15815e-05
5.47619e-05
5.77108e-05
6.06063e-05
6.3248e-05
6.58469e-05
6.81972e-05
7.05093e-05
7.26225e-05
7.46671e-05
7.65376e-05
7.8465e-05
8.03521e-05
8.21995e-05
8.38864e-05
8.55973e-05
8.72244e-05
8.88885e-05
9.03081e-05
9.15314e-05
9.26946e-05
9.41431e-05
9.55148e-05
9.63238e-05
9.65828e-05
9.73787e-05
9.91008e-05
9.89826e-05
9.65607e-05
9.43052e-05
9.49712e-05
9.72618e-05
9.92292e-05
9.62254e-05
9.04161e-05
8.02247e-05
6.67831e-05
5.38254e-05
3.9419e-05
3.03921e-05
2.43973e-05
2.00627e-05
1.67046e-05
1.41515e-05
1.1405e-05
9.25336e-06
7.01941e-06
4.92748e-06
3.76646e-06
3.49887e-06
4.38922e-06
7.18755e-06
1.21474e-05
1.77491e-05
1.99698e-05
1.74148e-05
1.53775e-05
1.67291e-05
2.40055e-05
2.75865e-05
4.29307e-05
5.31652e-05
5.78217e-05
5.68341e-05
5.55736e-05
5.41774e-05
5.27331e-05
5.15588e-05
5.0333e-05
4.92699e-05
4.82314e-05
4.74261e-05
4.65539e-05
4.58294e-05
4.49825e-05
4.43709e-05
4.38336e-05
4.3248e-05
4.26784e-05
4.21759e-05
4.16766e-05
4.12803e-05
4.09185e-05
4.06396e-05
4.03779e-05
3.99835e-05
3.96227e-05
3.92032e-05
3.88884e-05
3.86768e-05
3.84521e-05
3.83583e-05
3.82871e-05
3.81813e-05
3.78987e-05
3.76198e-05
3.76466e-05
3.75906e-05
3.77023e-05
3.77994e-05
3.79419e-05
3.81317e-05
3.84331e-05
3.87442e-05
3.909e-05
3.94641e-05
3.99119e-05
4.03994e-05
4.0994e-05
4.16582e-05
4.24309e-05
4.33506e-05
4.44172e-05
4.56959e-05
4.72554e-05
4.90794e-05
5.12505e-05
5.39042e-05
5.58829e-05
5.51893e-05
5.44693e-05
5.3832e-05
5.30947e-05
5.24329e-05
5.18043e-05
5.12505e-05
5.08255e-05
5.02722e-05
4.99168e-05
4.95447e-05
4.91221e-05
4.97127e-05
5.03424e-05
5.13432e-05
5.19134e-05
5.21864e-05
5.27813e-05
5.35795e-05
5.42802e-05
5.48954e-05
5.278e-05
5.04579e-05
4.78874e-05
4.68586e-05
4.40278e-05
4.28864e-05
4.14481e-05
3.95121e-05
3.8289e-05
3.62168e-05
3.46881e-05
3.34513e-05
3.22795e-05
3.1154e-05
2.87423e-05
1.37684e-07
3.88626e-06
1.24132e-05
2.18571e-05
3.27175e-05
4.31469e-05
5.2303e-05
5.97015e-05
6.52421e-05
6.93154e-05
7.27565e-05
7.46448e-05
7.92721e-05
8.29179e-05
8.71354e-05
9.25403e-05
9.98817e-05
0.000108491
0.000118838
0.000131065
0.000145045
0.000160751
0.000177767
0.00019677
0.000220415
0.00024944
0.000272001
0.000297164
0.00032182
0.000346057
0.000369068
0.000389752
0.000415972
0.000443061
0.000475026
0.000495212
0.000516548
0.000535074
0.000554222
0.000573549
0.000593047
0.000612484
0.000631359
0.000649298
0.000666277
0.000682857
0.00069686
0.000709805
0.000717972
0.000727333
0.000738847
0.000748649
0.000753871
0.000751059
0.000741824
0.000727499
0.000709888
0.000693542
0.000689407
0.000685673
0.000624848
0.000543707
0.000421886
0.00025906
0.000179767
0.000105692
7.32143e-05
4.80792e-05
3.43461e-05
2.38797e-05
1.78346e-05
1.45881e-05
1.39297e-05
1.68156e-05
2.66144e-05
4.48314e-05
7.6085e-05
0.00011275
0.000128088
0.000133559
0.000131405
7.54114e-05
8.98247e-05
9.98932e-05
0.000102594
0.000118022
0.000142694
0.000166395
0.000185514
0.000230429
0.000251508
0.000292525
0.000310426
0.000349154
0.000368819
0.000400543
0.00045302
0.000470353
0.000485995
0.000529818
0.00054281
0.000567617
0.000583
0.000595044
0.000601161
0.000618827
0.000616132
0.000609924
0.00062078
0.000630573
0.000627616
0.000607327
0.000611029
0.00059039
0.000592258
0.000591224
0.000599227
0.000590275
0.000579956
0.000547943
0.000539684
0.000519668
0.000511687
0.000508811
0.000494636
0.000492959
0.000467514
0.000463921
0.000456082
0.000449208
0.000441822
0.000435587
0.000428197
0.000420791
0.000413857
0.000407001
0.000400168
0.000396421
0.000390409
0.000389252
0.000385515
0.000386732
0.000384105
0.000384059
0.000386321
0.000386521
0.000389228
0.000389804
0.000391105
0.000392147
0.000393986
0.000396115
0.000397891
0.000400135
0.000402388
0.000404999
0.000405595
0.000405203
0.000406241
0.000402903
0.000400352
0.000397935
0.000398501
0.000394561
0.000394224
0.000393337
0.000389615
0.000387739
0.00039167
0.000386651
0.000388477
0.000385467
0.000379578
0.000370036
0.000361285
0.000346459
0.000334864
0.000314684
0.000294374
0.000237643
3.48006e-07
1.21783e-05
5.46494e-05
9.91811e-05
0.000138334
0.000172087
0.000199436
0.000220798
0.000235541
0.000244017
0.00024724
0.000246745
0.000244836
0.000243171
0.000244032
0.000249184
0.000259852
0.000276422
0.000298888
0.000327008
0.000359362
0.000393568
0.000430313
0.000471719
0.000516456
0.000563326
0.00060823
0.000653976
0.000697252
0.000737577
0.000775941
0.000812041
0.000852617
0.000892263
0.000931503
0.000966429
0.00100051
0.00103324
0.00106545
0.00109689
0.0011273
0.00115634
0.00118373
0.00120917
0.00123228
0.00125253
0.00126994
0.00128473
0.00129187
0.00130086
0.00130467
0.00130431
0.00129896
0.00128763
0.00127036
0.00124729
0.00121921
0.00118819
0.00115765
0.00112745
0.00110017
0.00105252
0.000932706
0.000713245
0.000548052
0.000375689
0.000207858
0.000136624
8.76344e-05
5.76314e-05
3.92257e-05
3.07503e-05
2.72037e-05
2.92031e-05
4.23079e-05
7.28591e-05
0.000111673
0.000141318
0.000170493
0.000121328
0.000117526
0.000132518
0.000154312
0.000199688
0.000277282
0.000385635
0.000428579
0.000489856
0.000565455
0.00065635
0.000728424
0.000807351
0.000870952
0.000931001
0.000976854
0.00103311
0.00107953
0.00111238
0.00114963
0.00118529
0.00121202
0.00123624
0.0012579
0.00127967
0.00129165
0.00129896
0.0013025
0.00130183
0.00130838
0.00129945
0.00129719
0.00126689
0.00126784
0.00125519
0.00124372
0.00123029
0.00121969
0.00118079
0.00116271
0.00114337
0.00112408
0.00109716
0.00105855
0.00102868
0.00100642
0.0009829
0.000956768
0.000932955
0.000909143
0.00088601
0.000863429
0.000842511
0.000820057
0.000797173
0.000777923
0.000761045
0.000741819
0.00072914
0.000712985
0.0007056
0.00069349
0.000687638
0.000681464
0.000680842
0.000679319
0.000674515
0.000674068
0.000673425
0.000673262
0.000673033
0.000674153
0.000675885
0.000678308
0.000682173
0.000686917
0.000691798
0.000696633
0.000702044
0.000706793
0.000711148
0.000710581
0.000713307
0.000716318
0.000719177
0.000726486
0.000729911
0.000728811
0.000737792
0.000735659
0.000742617
0.000743269
0.000735118
0.000725085
0.000708323
0.0006915
0.000664506
0.000641813
0.000601732
0.000573799
0.000494725
6.98769e-07
2.6477e-05
0.00011112
0.000203455
0.00028293
0.000349823
0.000404492
0.000446668
0.000477121
0.00049627
0.000505442
0.000506733
0.00050289
0.000497101
0.000492802
0.000493178
0.000500762
0.000517093
0.000542585
0.000576569
0.000617133
0.000663056
0.000714108
0.000768534
0.000825114
0.00088198
0.00093704
0.00098992
0.00103951
0.00108639
0.00113058
0.00117316
0.00121435
0.00125368
0.00129113
0.00132607
0.001359
0.00138994
0.00141944
0.00144746
0.00147385
0.00149839
0.00152117
0.00154168
0.00155955
0.0015744
0.00158601
0.00159265
0.00159544
0.00159929
0.00159507
0.00158593
0.00157196
0.00155316
0.00152939
0.00150054
0.00146677
0.00142902
0.00138843
0.00134613
0.00130386
0.00125724
0.00120847
0.00113063
0.000953996
0.000716422
0.000459242
0.000317315
0.000210555
0.000132811
8.54607e-05
5.79324e-05
4.97531e-05
4.89875e-05
6.23041e-05
0.000101763
0.00014346
0.000196846
0.000133172
0.000160482
0.000192071
0.000255204
0.000364117
0.000518784
0.000616152
0.000725077
0.000818252
0.000928253
0.00104018
0.00114658
0.00124065
0.00132526
0.0014011
0.00146709
0.00152881
0.00158735
0.0016345
0.00167592
0.001717
0.00175496
0.00178404
0.00180724
0.00183926
0.00185629
0.00186789
0.00186453
0.00187453
0.00188359
0.00188204
0.00187515
0.00185666
0.0018482
0.0018488
0.00182523
0.00181557
0.00178706
0.00175122
0.00172572
0.0016968
0.00166589
0.00163288
0.00159591
0.00155644
0.00151653
0.00146642
0.00141586
0.00136496
0.00131499
0.00126534
0.00121663
0.00116944
0.00112438
0.0010822
0.00104377
0.00100959
0.000979738
0.000952949
0.000929063
0.000905166
0.000879284
0.000863127
0.000843553
0.000821298
0.000800907
0.000780407
0.00076092
0.000743139
0.000726111
0.000710477
0.000697278
0.00068814
0.000682599
0.000681513
0.000683081
0.000688339
0.000693011
0.000698837
0.000706693
0.000715511
0.000725974
0.000736613
0.000749254
0.000762973
0.000778085
0.000794512
0.00081155
0.000826756
0.000844315
0.000858412
0.000875606
0.000885721
0.000886631
0.000883512
0.000870366
0.000855546
0.000825468
0.000796703
0.000740342
0.000688929
0.000599924
1.08043e-06
3.91334e-05
0.000156618
0.000289488
0.000410953
0.00051513
0.000601449
0.000670082
0.000723264
0.000761033
0.000785398
0.000798251
0.000802339
0.000801
0.000798008
0.00079718
0.000801898
0.000814652
0.000836721
0.000868055
0.000907446
0.000953326
0.0010041
0.00105776
0.00111242
0.00116636
0.00121813
0.00126721
0.00131337
0.00135553
0.00139475
0.00143154
0.00146616
0.0014988
0.0015296
0.00155858
0.00158584
0.00161134
0.00163532
0.00165798
0.0016793
0.00169922
0.00171665
0.00173181
0.0017444
0.0017541
0.00176069
0.00176239
0.00176127
0.00176026
0.00175356
0.00173882
0.0016964
0.00166107
0.00163908
0.00162216
0.00159707
0.00155494
0.00150921
0.00146078
0.00141088
0.00136049
0.00131392
0.00127104
0.00119534
0.00105946
0.000830463
0.000572348
0.000412837
0.000270878
0.000184791
0.000124158
8.96842e-05
7.43487e-05
9.01893e-05
0.000144076
0.000203431
0.00017421
0.000206948
0.000267684
0.00037237
0.000545138
0.000695275
0.000807603
0.000934021
0.00106032
0.00118678
0.00131683
0.00144147
0.00155412
0.00165639
0.00174713
0.00182988
0.00190308
0.00197272
0.00203335
0.00208572
0.00213264
0.00217263
0.00220147
0.00223584
0.00226425
0.00229299
0.00231913
0.00233406
0.0023338
0.00235237
0.0023583
0.00234644
0.00235342
0.00234761
0.00233163
0.00232769
0.00231364
0.00230126
0.00226383
0.00223496
0.00220577
0.0021754
0.00212206
0.00205579
0.00199012
0.00192398
0.00185801
0.00179086
0.00172253
0.00165315
0.00158295
0.00151169
0.00143972
0.00136787
0.00129703
0.00122841
0.00116325
0.00110271
0.00104744
0.000996964
0.000950902
0.000908502
0.000869095
0.000831941
0.000796105
0.000763499
0.000734033
0.000708556
0.000686531
0.000667136
0.000650443
0.000637109
0.000627408
0.000621418
0.000617399
0.000618107
0.000619351
0.000623854
0.000629432
0.000636149
0.000644591
0.000655597
0.000667813
0.000681134
0.000698134
0.000715113
0.000733494
0.000751792
0.000771849
0.000789605
0.000809995
0.000824504
0.000842176
0.000855577
0.000861773
0.000865246
0.000859489
0.000852212
0.000830739
0.000808974
0.000765191
0.000724097
0.000650993
1.54347e-06
5.07085e-05
0.000191807
0.000357548
0.000511268
0.000644538
0.000757119
0.000851162
0.000926517
0.000984924
0.00102748
0.00105576
0.00107338
0.00108293
0.00108776
0.0010914
0.00109722
0.00110793
0.0011253
0.00114995
0.00118142
0.00121861
0.00126009
0.0013044
0.00134785
0.00139035
0.00143124
0.00146993
0.00150621
0.00154087
0.00157301
0.00160248
0.00162966
0.00165491
0.00167848
0.00170057
0.00172134
0.00174097
0.0017596
0.00177716
0.00179357
0.00180866
0.00182224
0.00183412
0.00184405
0.00185172
0.00185682
0.00185825
0.00185622
0.00185635
0.0018498
0.00183637
0.00181488
0.00178992
0.00176003
0.00172493
0.00168453
0.00163924
0.00158974
0.0015369
0.00148182
0.00142578
0.00137101
0.00131885
0.001271
0.00121204
0.00110078
0.000893006
0.000656476
0.000459726
0.000298175
0.000184091
0.000124915
0.000106996
0.000129787
0.000205658
0.000205668
0.000252682
0.000330368
0.000467738
0.000688399
0.000806595
0.000934726
0.00106276
0.00120137
0.00134372
0.00148833
0.00162943
0.00176173
0.00188088
0.00198912
0.00208476
0.00217224
0.00224861
0.00231567
0.00237853
0.00243708
0.00248543
0.00252836
0.00255486
0.002591
0.00262053
0.00264842
0.00267556
0.00268253
0.00269817
0.002711
0.00271081
0.00271459
0.00270929
0.002707
0.00270295
0.00270222
0.00268918
0.00266975
0.00264423
0.00260649
0.00257773
0.0025143
0.00244113
0.00236778
0.00229428
0.00222018
0.00214544
0.00206936
0.00199172
0.00191222
0.00183054
0.00174632
0.00165931
0.00157036
0.00148053
0.00139086
0.00130239
0.00121698
0.00113612
0.00105984
0.000988655
0.00092182
0.000859597
0.000802376
0.000755086
0.000714427
0.000678965
0.000649811
0.000624278
0.000603509
0.000586665
0.000573581
0.000564048
0.000557831
0.000553742
0.000553022
0.000554541
0.00055855
0.000564114
0.000571779
0.000581415
0.000593229
0.000606712
0.000621566
0.000638153
0.000656157
0.000675253
0.000695191
0.000715567
0.000735832
0.000756009
0.000774732
0.00079166
0.000807753
0.000820584
0.000831732
0.000834966
0.000836886
0.000826725
0.00081424
0.000783277
0.000752049
0.000695202
2.16278e-06
6.27961e-05
0.000223344
0.000411999
0.000590547
0.000747752
0.000881773
0.000993341
0.00108391
0.00115557
0.0012115
0.00125358
0.00128322
0.00130328
0.00131668
0.00132639
0.00133524
0.00134566
0.00135939
0.00137737
0.00139972
0.00142593
0.00145504
0.00148587
0.00151862
0.00155127
0.00158245
0.00161182
0.00163915
0.00166453
0.0016881
0.00171014
0.00173078
0.00175011
0.00176831
0.00178555
0.00180196
0.00181768
0.00183276
0.00184724
0.00186109
0.00187425
0.00188659
0.00189793
0.00190804
0.00191663
0.00192325
0.00192787
0.00192731
0.00193024
0.00192661
0.00191811
0.00189914
0.00187666
0.00184819
0.00181317
0.00177171
0.0017241
0.001671
0.00161344
0.00155277
0.00149061
0.00142844
0.00136806
0.001311
0.00126423
0.00120891
0.00111919
0.000932332
0.000672481
0.000439206
0.000285634
0.000202911
0.000162429
0.000222843
0.00025337
0.000298165
0.00037286
0.000514249
0.000753492
0.000874737
0.000999521
0.00113248
0.00127239
0.00142781
0.00158886
0.00174723
0.00189722
0.0020359
0.00215888
0.00226855
0.00236712
0.00245502
0.0025325
0.00260042
0.00266163
0.0027161
0.00276425
0.00280638
0.00284099
0.00287434
0.00290244
0.00292735
0.00294775
0.00296253
0.002976
0.00298617
0.00299122
0.00299465
0.00299324
0.0029893
0.00298134
0.00297195
0.00295717
0.00293718
0.00291736
0.00288089
0.00282025
0.00274197
0.00266466
0.00258753
0.00251024
0.00243245
0.002354
0.00227428
0.00219277
0.00210901
0.00202249
0.00193261
0.00183889
0.00174157
0.00164144
0.00153937
0.00143566
0.00133212
0.00123043
0.00113037
0.0010352
0.000943032
0.000858466
0.000787049
0.000725946
0.000671818
0.000627948
0.000592798
0.000564857
0.000543277
0.000526793
0.00051472
0.000506066
0.000500397
0.000496704
0.000496828
0.000499
0.000503448
0.000510301
0.000518787
0.000529141
0.000541315
0.000555505
0.000571317
0.000588571
0.000607402
0.000627406
0.000648521
0.000670351
0.000692633
0.000715129
0.000737606
0.000759436
0.000782097
0.000802126
0.000822872
0.000836599
0.000849347
0.000850759
0.000846747
0.000827122
0.000803505
0.000756748
2.93882e-06
7.54347e-05
0.000253627
0.000461196
0.000658661
0.000833171
0.00098215
0.00110635
0.00120764
0.00128845
0.00135243
0.00140157
0.00143759
0.00146329
0.00148135
0.00149433
0.00150468
0.00151458
0.00152566
0.00153889
0.00155463
0.00157282
0.00159304
0.00161457
0.00163679
0.001659
0.00168087
0.00170197
0.00172205
0.00174108
0.00175906
0.00177608
0.00179217
0.00180741
0.00182193
0.00183585
0.00184931
0.00186246
0.00187539
0.0018882
0.00190096
0.00191367
0.0019263
0.00193875
0.00195084
0.00196231
0.00197276
0.00198175
0.00198722
0.00199066
0.0019948
0.0019934
0.0019799
0.00196299
0.00193911
0.00190719
0.00186693
0.00181852
0.00176266
0.00170054
0.00163396
0.00156532
0.00149621
0.0014279
0.00136204
0.00130095
0.00124805
0.00120316
0.00109717
0.000880025
0.000599626
0.000394789
0.0002845
0.000276248
0.000293262
0.000337796
0.000412874
0.00052854
0.000759743
0.000910948
0.00103684
0.00116829
0.00131054
0.00146455
0.00163645
0.00181022
0.00197635
0.00213461
0.00227415
0.00240348
0.00251716
0.00261783
0.00270702
0.00278534
0.00285397
0.00291491
0.0029684
0.00301499
0.00305512
0.00308918
0.0031191
0.00314411
0.00316523
0.00318193
0.00319475
0.00320452
0.00321095
0.00321393
0.00321376
0.00320878
0.0032004
0.00318722
0.00317134
0.00315211
0.00312898
0.00310371
0.00304011
0.00295553
0.00287326
0.00279316
0.00271435
0.0026362
0.00255818
0.00247979
0.00240028
0.00231887
0.00223488
0.00214764
0.00205636
0.00196026
0.001859
0.00175286
0.00164206
0.00152603
0.00140717
0.00128722
0.00116864
0.00104902
0.000940755
0.000841002
0.000750227
0.000673753
0.000611982
0.000565929
0.000532737
0.000508442
0.000490406
0.000477174
0.000468028
0.000461625
0.000457681
0.000455641
0.00045818
0.000461524
0.000467082
0.000474867
0.000483456
0.000495319
0.000509237
0.00052479
0.000541796
0.000560065
0.000579856
0.000600922
0.000623447
0.000647352
0.000672689
0.00069979
0.000728492
0.000758789
0.000790785
0.000822174
0.000853394
0.000879146
0.00090278
0.000914476
0.000918756
0.000906782
0.000887842
0.000844818
3.84366e-06
8.80583e-05
0.000282486
0.000506415
0.000719041
0.000906452
0.0010657
0.00119767
0.00130453
0.00138935
0.00145668
0.00150893
0.00154763
0.00157577
0.00159592
0.00161045
0.00162139
0.00163046
0.00163906
0.00164819
0.00165849
0.00167018
0.00168318
0.00169725
0.00171206
0.00172732
0.00174274
0.00175802
0.00177295
0.00178739
0.00180126
0.00181451
0.00182714
0.00183918
0.00185073
0.00186192
0.00187292
0.00188388
0.001895
0.00190644
0.00191839
0.00193099
0.00194432
0.00195843
0.00197326
0.00198863
0.00200418
0.00201932
0.00203364
0.00204441
0.00205174
0.00206141
0.00205713
0.00204898
0.00203267
0.00200652
0.00196994
0.00192286
0.00186577
0.00179982
0.00172711
0.00165188
0.00157594
0.00150037
0.00142635
0.00135564
0.00129234
0.0012409
0.00118271
0.00103576
0.000783049
0.000570426
0.000430942
0.000348616
0.000373932
0.000436052
0.000540747
0.000727503
0.000931522
0.00105013
0.00118055
0.00131993
0.00147206
0.00163932
0.00182423
0.00200629
0.00218015
0.00233921
0.002486
0.0026167
0.00273257
0.00283501
0.00292526
0.00300422
0.00307304
0.00313317
0.00318498
0.0032288
0.00326574
0.00329645
0.00332188
0.00334245
0.00335848
0.00337
0.0033775
0.00338133
0.00338155
0.00337833
0.00337191
0.00336106
0.00334602
0.00332703
0.00330549
0.00328155
0.00325436
0.00318102
0.00308952
0.00300204
0.00291847
0.00283814
0.00275999
0.00268322
0.00260696
0.00253049
0.00245293
0.00237339
0.00229084
0.00220439
0.00211229
0.00201365
0.00190858
0.0017969
0.00167917
0.00155537
0.00142516
0.00129215
0.00116123
0.00102956
0.000898634
0.00077636
0.000675295
0.00059937
0.000544945
0.000507571
0.000482257
0.00046426
0.000450956
0.000441734
0.000435584
0.000431246
0.00042902
0.000429405
0.000434078
0.00043799
0.000444762
0.00045248
0.000462237
0.000475707
0.000491614
0.000509368
0.000528599
0.000548973
0.000570916
0.000594452
0.000620179
0.000648609
0.000680273
0.000716314
0.000756146
0.000800001
0.000846679
0.000893544
0.000938567
0.000977579
0.00100821
0.00102658
0.00103307
0.00102209
0.00100347
0.000958672
4.80962e-06
9.98215e-05
0.000308563
0.000546368
0.000771153
0.000968276
0.00113464
0.00127133
0.00138086
0.00146702
0.00153519
0.00158792
0.00162678
0.00165498
0.00167509
0.00168933
0.00169956
0.0017073
0.00171379
0.00171996
0.00172644
0.00173363
0.00174168
0.00175059
0.00176026
0.00177054
0.00178123
0.0017921
0.00180294
0.00181357
0.00182385
0.00183366
0.00184296
0.00185176
0.00186015
0.00186827
0.00187631
0.00188452
0.00189318
0.00190258
0.00191306
0.00192492
0.00193845
0.00195388
0.00197134
0.00199084
0.00201217
0.00203481
0.00205792
0.00208135
0.00209846
0.00211496
0.00212455
0.00212802
0.00212152
0.00210332
0.00207259
0.00202913
0.00197338
0.0019065
0.00183055
0.00174884
0.00166626
0.0015837
0.00150249
0.00142359
0.00135228
0.00128501
0.00123342
0.00112212
0.000911332
0.000707968
0.000460455
0.00040861
0.000468358
0.000555915
0.00070744
0.000951667
0.00105503
0.00117734
0.0013122
0.00145848
0.00161912
0.00179775
0.00199069
0.00217774
0.00235462
0.00251881
0.00266655
0.00279816
0.00291465
0.00301712
0.00310668
0.00318433
0.00325116
0.00330841
0.00335677
0.00339694
0.00343011
0.00345652
0.00347677
0.00349268
0.00350307
0.00350826
0.00350883
0.00350529
0.00349797
0.00348715
0.00347308
0.00345466
0.00343173
0.00340627
0.00337959
0.00335066
0.00324619
0.00314769
0.00305473
0.00296698
0.00288391
0.00280474
0.00272847
0.00265429
0.002581
0.00250749
0.00243234
0.00235416
0.00227278
0.00218739
0.00209696
0.00200083
0.00189784
0.0017871
0.00167025
0.00154493
0.00140766
0.00126291
0.00110667
0.000945198
0.000798213
0.000678558
0.000589906
0.000529188
0.000488419
0.000462525
0.000445791
0.000433818
0.000424439
0.000418473
0.000413938
0.000410995
0.000410513
0.000413125
0.000418146
0.000422655
0.000429886
0.00043989
0.000449068
0.000463815
0.00048233
0.000503321
0.000525984
0.000549952
0.000576099
0.000604949
0.00063783
0.000675849
0.000720064
0.000772014
0.000830484
0.000894478
0.00096077
0.00102518
0.00108439
0.00113252
0.00116539
0.00118108
0.00117786
0.0011575
0.00113327
0.00108129
5.75295e-06
0.000109958
0.000330334
0.000579122
0.000813248
0.0010176
0.00118905
0.00132888
0.00143989
0.00152649
0.0015947
0.00164704
0.00168529
0.00171281
0.00173218
0.00174559
0.00175477
0.00176116
0.00176585
0.00176969
0.00177334
0.00177725
0.00178168
0.00178673
0.00179243
0.00179869
0.00180538
0.00181232
0.00181929
0.00182609
0.00183254
0.00183851
0.00184391
0.00184875
0.00185309
0.0018571
0.00186106
0.0018653
0.00187021
0.00187626
0.00188398
0.00189384
0.00190628
0.00192182
0.00194085
0.00196376
0.0019906
0.0020209
0.00205401
0.00208851
0.00212465
0.00215193
0.00217478
0.00219263
0.0021998
0.00219346
0.00217212
0.00213524
0.00208314
0.00201702
0.00193928
0.00185366
0.00176465
0.00167472
0.00158642
0.00150063
0.00142099
0.00134469
0.00128055
0.00114141
0.00100234
0.000658882
0.000473422
0.00050149
0.000567434
0.000691457
0.00089831
0.00105963
0.00116682
0.00129172
0.00142993
0.00158117
0.00174814
0.00193578
0.00213267
0.0023241
0.00250516
0.00267066
0.00281921
0.00295111
0.00306732
0.00316886
0.00325677
0.00333206
0.00339578
0.00344898
0.00349236
0.00352731
0.00355679
0.00357843
0.00359328
0.00360192
0.00360452
0.00360181
0.00359446
0.00358297
0.00356771
0.00354902
0.00352687
0.00349996
0.00347058
0.00343916
0.00334994
0.00323547
0.00312985
0.00303168
0.00294057
0.00285565
0.00277603
0.00270058
0.00262804
0.00255741
0.00248814
0.00241949
0.00235051
0.00228024
0.00220786
0.00213203
0.00205168
0.00196444
0.00186726
0.00175808
0.00163698
0.00149538
0.00133614
0.00115961
0.000980397
0.000817776
0.000684096
0.000585438
0.000517689
0.000475634
0.000449646
0.000433576
0.000422865
0.000414108
0.000407257
0.000403091
0.000399178
0.000398279
0.000399426
0.000402992
0.000407835
0.000415292
0.000422524
0.000435464
0.000443979
0.000461229
0.000483308
0.00050831
0.000535499
0.000564983
0.000598358
0.000636813
0.000682499
0.000737272
0.000801138
0.000874538
0.000953296
0.00103593
0.00111743
0.00119328
0.00125979
0.0013074
0.00133664
0.00134007
0.0013234
0.00128911
0.00125302
0.00118991
6.59387e-06
0.000117923
0.000346431
0.000602878
0.000843596
0.00105321
0.00122852
0.00137093
0.00148342
0.00157078
0.00163936