/*--------------------------------*- C++ -*----------------------------------*\
  =========                 |
  \\      /  F ield         | OpenFOAM: The Open Source CFD Toolbox
   \\    /   O peration     | Website:  https://openfoam.org
    \\  /    A nd           | Version:  8
     \\/     M anipulation  |
\*---------------------------------------------------------------------------*/
FoamFile
{
    version     2.0;
    format      ascii;
    class       volVectorField;
    location    "100";
    object      wallShearStress;
}
// * * * * * * * * * * * * * * * * * * * * * * * * * * * * * * * * * * * * * //

dimensions      [0 2 -2 0 0 0 0];

internalField   uniform (0 0 0);

boundaryField
{
    inlet
    {
        type            calculated;
        value           uniform (0 0 0);
    }
    outlet
    {
        type            calculated;
        value           uniform (0 0 0);
    }
    upperWall
    {
        type            calculated;
        value           nonuniform List<vector> 
223
(
(-0.448848 0.00307299 0)
(-0.486885 0.00561906 0)
(-0.503657 0.00681598 0)
(-0.506183 0.00733004 0)
(-0.500943 0.00734912 0)
(-0.490472 0.00701404 0)
(-0.478404 0.00651618 0)
(-0.466085 0.00595274 0)
(-0.4535 0.0053636 0)
(-0.441632 0.0047933 0)
(-0.430699 0.00425903 0)
(-0.420755 0.0037679 0)
(-0.411804 0.00332302 0)
(-0.403779 0.00292675 0)
(-0.396606 0.00257808 0)
(-0.390186 0.00229002 0)
(-0.384377 0.00206393 0)
(-0.379153 0.00193802 0)
(-0.374897 0.00187802 0)
(-0.371528 0.00184465 6.59626e-22)
(-0.368214 0.00179137 0)
(-0.364969 0.00172691 0)
(-0.361787 0.00165762 0)
(-0.358666 0.00158568 6.70486e-22)
(-0.35561 0.00151351 0)
(-0.352621 0.00144186 0)
(-0.349698 0.00137248 0)
(-0.346841 0.00130535 -1.35544e-21)
(-0.344048 0.00124127 1.35884e-21)
(-0.341319 0.00118006 1.36209e-21)
(-0.338654 0.00112221 0)
(-0.336044 0.00106766 -1.36771e-21)
(-0.333504 0.00101646 0)
(-0.331 0.000968868 1.37162e-21)
(-0.328579 0.000925496 1.3729e-21)
(-0.326173 0.000885901 -1.37351e-21)
(-0.323847 0.000850129 0)
(-0.321542 0.000817033 0)
(-0.319295 0.000787366 0)
(-0.317068 0.000761514 0)
(-0.314912 0.000738324 -1.36828e-21)
(-0.312721 0.000718563 0)
(-0.310618 0.000702762 0)
(-0.308493 0.000687991 1.35497e-21)
(-0.306361 0.000674717 0)
(-0.304222 0.000663687 1.34031e-21)
(-0.302113 0.000654938 -1.33112e-21)
(-0.299987 0.000649421 1.32037e-21)
(-0.297952 0.000642875 0)
(-0.295885 0.00063423 0)
(-0.293813 0.000626709 0)
(-0.291752 0.000616206 1.26124e-21)
(-0.289793 0.00059783 -1.24173e-21)
(-0.287278 0.000584604 0)
(-0.286137 0.000570645 0)
(-0.283882 0.000545797 0)
(-0.302188 0.000560956 0)
(-0.317586 0.00056152 0)
(-0.30309 0.0004979 0)
(-0.342943 0.000624685 0)
(-0.323262 0.00126442 0)
(-0.309231 0.0015094 1.07656e-21)
(-0.300173 0.0014439 -1.00113e-21)
(-0.310845 0.0017311 0)
(-0.315516 0.00168404 0)
(-0.3315 0.00159588 0)
(-0.305592 0.00085627 -8.44768e-22)
(-0.297481 0.000278642 0)
(-0.292338 -5.40677e-05 0)
(-0.299197 -0.000475937 0)
(-0.299045 -0.000983615 0)
(-0.285447 -0.00116855 0)
(-0.278957 -0.000460708 -9.26533e-22)
(-0.304146 0.000198516 0)
(-0.291139 -8.6636e-05 0)
(-0.301791 -0.000618064 0)
(-0.311866 -0.000949817 0)
(-0.295889 -0.000918083 0)
(-0.29351 -0.00124046 0)
(-0.297158 -0.00183921 0)
(-0.293799 -0.00197299 1.52544e-22)
(-0.292984 -0.00198704 0)
(-0.294966 -0.00198086 0)
(-0.29791 -0.00197189 0)
(-0.301047 -0.00196279 9.36667e-23)
(-0.304362 -0.00196066 0)
(-0.307867 -0.00196541 1.4332e-22)
(-0.311529 -0.00197376 0)
(-0.316388 -0.00198973 0)
(-0.321717 -0.00200366 0)
(-0.327248 -0.00201211 5.46169e-23)
(-0.332996 -0.00201524 0)
(-0.338883 -0.00201279 1.0287e-22)
(-0.344908 -0.00200355 2.1374e-22)
(-0.351055 -0.00198728 0)
(-0.357198 -0.00196341 5.0136e-22)
(-0.363425 -0.00192838 0)
(-0.369543 -0.00187569 0)
(-0.375655 -0.00180967 0)
(-0.381489 -0.00173271 -1.34323e-21)
(-0.387327 -0.00164462 0)
(-0.392747 -0.00154807 -1.89332e-21)
(-0.397973 -0.00142768 2.19868e-21)
(-0.40281 -0.00126264 0)
(-0.407046 -0.00104407 0)
(-0.410292 -0.00074623 0)
(-0.412871 -0.000431407 0)
(-0.41445 -0.000123871 0)
(-0.415482 0.000172539 0)
(-0.414602 0.000463447 0)
(-0.412953 0.000721898 -5.20767e-21)
(-0.408725 0.000959465 0)
(-0.406533 0.00117366 0)
(-0.401959 0.00146834 0)
(-0.395702 0.00183858 0)
(-0.389965 0.00212992 0)
(-0.381782 0.00222974 0)
(-0.384509 0.00228881 0)
(-0.35836 0.00232752 0)
(-0.431676 0.00393284 0)
(-0.393101 0.00408021 0)
(-0.363708 0.00364733 0)
(-0.341305 0.0042933 0)
(-0.321671 0.00432741 -1.95036e-20)
(-0.32238 0.00371725 0)
(-0.301071 0.00321464 0)
(-0.321357 0.00357376 0)
(-0.318118 0.00378768 2.48799e-20)
(-0.314248 0.00476064 0)
(-0.266911 0.00455783 0)
(-0.246872 0.00374282 2.24018e-20)
(-0.244837 0.00360445 0)
(-0.22911 0.00376254 -2.33362e-20)
(-0.218377 0.00458799 0)
(-0.215009 0.00530665 0)
(-0.215112 0.00541661 0)
(-0.195771 0.00530536 2.40527e-20)
(-0.172739 0.00636178 0)
(-0.14733 0.00559371 -1.85689e-20)
(-0.131806 0.00489019 0)
(-0.118545 0.00637344 0)
(-0.0987075 0.00605621 0)
(-0.0731713 0.00633078 0)
(-0.044039 0.00658462 0)
(-0.0140898 0.00523931 0)
(0.00546844 0.00280874 0)
(0.013074 0.00109993 0)
(0.0188138 0.000733399 0)
(0.0221739 0.000388681 0)
(0.0247983 0.000306842 0)
(0.0265572 0.000167525 -1.24957e-20)
(0.0282406 0.000148942 9.75534e-21)
(0.0293276 6.08464e-05 0)
(0.0304796 9.19238e-05 0)
(0.0312429 1.7861e-05 0)
(0.0320878 8.04062e-05 0)
(0.0326193 -6.87236e-06 -1.33713e-21)
(0.0332481 6.31696e-05 3.24954e-21)
(0.0335902 -3.32532e-05 -5.14985e-21)
(0.0340123 7.73184e-05 0)
(0.0341432 -1.2473e-05 -8.88605e-21)
(0.034367 0.000122273 -2.16929e-20)
(0.0342085 9.75371e-06 0)
(0.0340904 0.000110757 -2.97138e-20)
(0.0334882 -0.000125292 3.38292e-20)
(0.032775 -0.000171127 0)
(0.0313951 -0.000592549 0)
(0.0298197 -0.000781631 0)
(0.0275224 -0.00130204 0)
(0.0252604 -0.0014329 0)
(0.0225644 -0.00182862 -7.31816e-20)
(0.0206268 -0.00166483 0)
(0.0189879 -0.00180198 -8.69764e-20)
(0.0186194 -0.00129898 0)
(0.0192765 -0.00100596 0)
(0.020901 -0.000269522 0)
(0.0231117 0.000181963 0)
(0.0253699 0.000935554 0)
(0.0273658 0.00130001 8.17262e-20)
(0.028798 0.00189451 0)
(0.0292729 0.00198928 0)
(0.02896 0.00240122 -8.57008e-20)
(0.0271252 0.00220489 0)
(0.0247523 0.00234255 0)
(0.0198818 0.00148838 0)
(0.0150419 0.00109271 1.28504e-19)
(0.00622474 -0.000530186 0)
(-0.00321836 -0.00110572 0)
(-0.0157737 -0.00240774 0)
(-0.0295677 -0.00266175 0)
(-0.0446755 -0.00295386 -9.96714e-20)
(-0.0585837 -0.00282204 0)
(-0.0716746 -0.00285669 0)
(-0.083309 -0.00266856 0)
(-0.094914 -0.00254968 8.43252e-20)
(-0.108614 -0.00194221 0)
(-0.115498 -0.00332051 0)
(-0.134393 0.000955158 -8.97695e-20)
(-0.144422 0.0104656 6.01853e-36)
(-0.140446 0.010387 1.29e-17)
(-0.070501 0.00698785 2.08811e-17)
(-0.0001034 -0.00399366 1.57693e-17)
(0.037792 -0.00646685 1.00243e-17)
(0.0707932 -0.012196 7.54241e-18)
(0.0830497 -0.0114315 -4.61202e-18)
(0.0980456 -0.0140703 -3.74776e-18)
(0.10041 -0.0120014 -1.88079e-37)
(0.105982 -0.0126121 -4.53042e-18)
(0.10102 -0.0103431 -1.92941e-18)
(0.0971402 -0.00883546 -1.18114e-34)
(0.0850574 -0.00732044 -6.01853e-36)
(0.0744541 -0.00428199 -1.32827e-17)
(0.0551175 -0.00472082 -1.95005e-17)
(0.0336099 0.000128871 -2.50563e-17)
(0.0106947 0.000917123 0)
(-0.0161068 0.00392376 6.17843e-17)
(-0.0474307 0.00548315 3.0087e-17)
(-0.0755823 0.00882629 4.81482e-35)
(-0.109036 0.0107886 -5.14329e-17)
(-0.136758 0.013716 -4.35944e-20)
(-0.174172 0.0165437 3.00927e-36)
(-0.189778 0.0181322 2.22891e-17)
(-0.260781 0.0222903 -1.45414e-17)
)
;
    }
    lowerWall
    {
        type            calculated;
        value           nonuniform List<vector> 
250
(
(-0.623164 -0.00611991 0)
(-0.643102 -0.0108195 0)
(-0.588431 -0.0120633 0)
(-0.574641 -0.0120894 0)
(-0.52098 -0.00892448 0)
(-0.508692 -0.00657552 0)
(-0.485691 -0.00535515 0)
(-0.472263 -0.0039798 0)
(-0.477712 -0.00289181 0)
(-0.543367 -0.00308755 0)
(-0.556953 -0.00227731 0)
(-0.547133 -0.00195364 0)
(-0.481216 -0.00272278 0)
(-0.455709 -0.00326193 0)
(-0.4271 -0.00232778 0)
(-0.424503 -0.0013221 0)
(-0.422634 -0.000186022 0)
(-0.422472 0.000773289 0)
(-0.000844973 -0.0244472 0)
(-0.000982604 -0.0233541 0)
(-0.00098512 -0.0221393 -0)
(-0.000851269 -0.0210091 7.74854e-20)
(-0.000417957 -0.0199765 -8.25696e-20)
(0.000307897 -0.0201115 8.76047e-20)
(0.00139165 -0.0172776 -8.65066e-20)
(0.00794697 -0.0367462 0)
(-0.0509904 -0.105037 0)
(-0.00204707 -0.0019847 0)
(-0.00166814 -0.00416272 0)
(-0.00021025 -0.00714334 0)
(0.00068611 -0.00960128 -0)
(0.000938461 -0.0112853 6.36643e-20)
(0.000753507 -0.0124344 -5.89504e-20)
(0.000411447 -0.0132633 0)
(0.000183328 -0.0139924 -1.00381e-19)
(0.000125446 -0.0148583 9.09324e-20)
(0.000137719 -0.0160036 0)
(0.000150618 -0.01743 0)
(0.000138282 -0.0190428 0)
(9.29953e-05 -0.0207078 0)
(1.03953e-05 -0.022281 0)
(-0.000110146 -0.0236195 0)
(-0.000253841 -0.0245836 0)
(-0.000440045 -0.0251299 0)
(-0.000601533 -0.0248822 0)
(-0.00175043 -0.00104348 0)
(0.000795649 -0.00203107 0)
(0.00123216 -0.00212462 0)
(0.00232508 -0.00244085 0)
(0.00316222 -0.00248712 -0)
(0.00397622 -0.00252818 -0)
(0.00479707 -0.00250783 3.86003e-21)
(0.00558865 -0.00243602 -3.502e-21)
(0.00636621 -0.00234991 -0)
(0.00712914 -0.00226005 -2.99219e-21)
(0.00790876 -0.00217485 -0)
(0.00869625 -0.00209006 0)
(0.0095026 -0.00202534 -0)
(0.0103249 -0.00199717 2.32799e-21)
(0.0111894 -0.00201955 0)
(0.0121004 -0.00209137 0)
(0.0130871 -0.00221212 -1.95938e-21)
(0.0141632 -0.002365 -0)
(0.0153432 -0.00250404 0)
(0.0166101 -0.0026117 -0)
(0.018354 -0.00269721 1.69113e-21)
(0.020673 -0.002835 0)
(0.0230103 -0.00296755 1.68232e-21)
(0.0255886 -0.00304977 0)
(0.0282047 -0.00303939 -0)
(0.0308389 -0.00294743 1.6861e-21)
(0.0334462 -0.00277493 0)
(0.0359219 -0.0025221 -1.7063e-21)
(0.0382694 -0.00219415 -0)
(0.0403619 -0.00179903 1.7364e-21)
(0.0422395 -0.0013508 0)
(0.0437798 -0.000860227 0)
(0.0450523 -0.000360664 0)
(0.0460261 0.00013882 -0)
(0.0467616 0.000674284 0)
(0.0471694 0.00126452 -1.75238e-21)
(0.0472909 0.001939 0)
(0.0470142 0.00267796 3.35685e-21)
(0.0463798 0.00349901 0)
(0.0453063 0.00444848 -3.09615e-21)
(0.0436923 0.00548477 0)
(0.0415379 0.00649331 0)
(0.0390377 0.00767634 2.51711e-21)
(0.035807 0.00906728 0)
(0.0316454 0.0100964 2.1225e-21)
(0.0277413 0.010901 -2.05282e-21)
(0.0239108 0.0130229 0)
(0.0170813 0.0156415 -1.14191e-21)
(0.00842331 0.0166837 -3.139e-22)
(0.000101366 0.0167135 0)
(-0.00828164 0.0165172 0)
(-0.0165986 0.0160957 0)
(-0.0246782 0.0155035 0)
(-0.0322218 0.0147016 0)
(-0.0390003 0.0137243 -1.11833e-21)
(-0.0448356 0.0126093 0)
(-0.0495413 0.0112871 1.05425e-21)
(-0.0530548 0.00970394 0)
(-0.0552637 0.00779409 0)
(-0.0559742 0.00542476 -7.64907e-22)
(-0.054706 0.00282402 0)
(-0.0520731 0.000426856 5.35714e-22)
(-0.0480767 -0.0016092 0)
(-0.0434498 -0.00318206 0)
(-0.0379107 -0.00430066 0)
(-0.0327543 -0.00496648 -2.65347e-22)
(-0.0276751 -0.00502986 0)
(-0.0231013 -0.00493241 0)
(-0.0194215 -0.00495802 -2.45262e-22)
(-0.0154939 -0.00440666 -0)
(-0.0116568 -0.00320456 -7.08936e-24)
(-0.00853321 -0.00246856 0)
(-0.00618971 -0.00276606 0)
(-0.00211434 -0.00280607 0)
(0.000117054 -0.00153278 -9.78528e-21)
(-0.000519143 -0.000457425 -0)
(-0.000791911 0.000505636 0)
(-0.00187919 0.00214535 -4.52646e-22)
(-0.0043804 0.00297648 -2.52111e-23)
(-0.00720952 0.00134617 -0)
(-0.00756226 -4.20733e-05 3.184e-22)
(-0.00604281 0.000186234 0)
(-0.00370317 0.00354496 1.61324e-21)
(-0.0117313 -0.000334302 0)
(-0.00103852 -0.0113146 3.13938e-21)
(0.0173995 -0.0206734 0)
(0.04321 -0.0266215 -2.45461e-21)
(0.0704892 -0.0280475 -0)
(0.0970524 -0.0269763 0)
(0.12213 -0.0247445 0)
(0.144897 -0.0218802 -8.7116e-22)
(0.164913 -0.0188917 -0)
(0.182412 -0.016142 2.28739e-21)
(0.197368 -0.0136681 0)
(0.210104 -0.0115231 -3.48571e-21)
(0.220775 -0.00963805 -4.01792e-21)
(0.229411 -0.00801843 -4.4986e-21)
(0.238383 -0.00665035 -0)
(0.244008 -0.00538214 0)
(0.248911 -0.00425152 0)
(0.252461 -0.00323728 0)
(0.254979 -0.00231759 0)
(0.256533 -0.00149964 -0)
(0.256758 -0.000778812 -0)
(0.256389 -0.000179908 -0)
(0.255439 0.000341577 7.17515e-21)
(0.253669 0.000823877 7.26215e-21)
(0.251511 0.00127818 0)
(0.248468 0.0016913 0)
(0.245208 0.00207583 0)
(0.240874 0.00242312 7.14973e-21)
(0.236224 0.00275658 0)
(0.231216 0.00306428 0)
(0.225711 0.00333296 0)
(0.219853 0.00356097 0)
(0.213534 0.00375886 -6.21718e-21)
(0.207314 0.00396528 0)
(0.20106 0.00414114 0)
(0.194458 0.00428931 5.35293e-21)
(0.187627 0.00438676 -5.01696e-21)
(0.180475 0.00442759 0)
(0.173659 0.00445643 -4.32645e-21)
(0.166933 0.00447214 0)
(0.159831 0.00444164 3.59925e-21)
(0.153228 0.00438067 0)
(0.146175 0.00427622 0)
(0.13964 0.00414963 0)
(0.132973 0.00400501 0)
(0.126741 0.00384668 0)
(0.12051 0.00367637 -2.72521e-21)
(0.114523 0.00351124 -1.99027e-21)
(0.10868 0.00335119 0)
(0.102995 0.00320384 0)
(0.0975068 0.0030777 0)
(0.0921836 0.0029745 -7.55383e-22)
(0.0870214 0.00289095 0)
(0.0820552 0.002832 0)
(0.0772501 0.00279534 0)
(0.0726357 0.00277304 -2.9827e-21)
(0.0680945 0.00275864 3.48671e-21)
(0.063669 0.00276012 0)
(0.0593751 0.00276379 0)
(0.0551594 0.00276181 5.12355e-21)
(0.0509208 0.00273081 5.77992e-21)
(0.0466902 0.00268277 0)
(0.0424195 0.00266172 0)
(0.0381364 0.00269147 -8.48865e-21)
(0.0338106 0.00271754 9.76042e-21)
(0.0294975 0.00274814 0)
(0.0251907 0.00279597 0)
(0.0208722 0.00287526 1.56808e-20)
(0.0165412 0.00299532 0)
(0.0122308 0.0031928 0)
(0.0079335 0.00349209 2.88256e-20)
(0.00350082 0.00382057 0)
(-0.00129409 0.00391878 3.13347e-20)
(-0.00644049 0.00378214 0)
(-0.0116318 0.00362162 0)
(-0.0169108 0.00348442 0)
(-0.0221896 0.00333278 -1.80568e-20)
(-0.027349 0.00315478 0)
(-0.0325407 0.00306784 0)
(-0.0378707 0.00304217 0)
(-0.0430786 0.00297967 0)
(-0.0483455 0.00290013 0)
(-0.0533996 0.0027946 0)
(-0.0584376 0.00269055 -1.25866e-20)
(-0.0636284 0.00260132 -1.22737e-20)
(-0.0685855 0.00250452 0)
(-0.0733662 0.00239559 0)
(-0.0780678 0.002281 0)
(-0.0821364 0.00213863 1.14231e-20)
(-0.0865585 0.00199927 0)
(-0.0897433 0.0018373 -2.22738e-20)
(-0.0935956 0.00166228 2.22e-20)
(-0.0959025 0.00139252 2.19384e-20)
(-0.0982661 0.00107478 -2.18561e-20)
(-0.0999426 0.000642073 2.20516e-20)
(-0.101751 -0.000786002 -2.25307e-20)
(-0.0944583 -0.00184506 0)
(-0.0969123 -0.00199785 -1.48987e-18)
(-0.105595 -0.00466829 -1.34028e-18)
(-0.115905 -0.00685063 0)
(-0.125088 -0.00873677 -2.28723e-18)
(-0.133407 -0.0103036 -4.3919e-18)
(-0.141227 -0.0115896 -2.12162e-18)
(-0.149108 -0.0127577 2.03249e-18)
(-0.156229 -0.0139613 -6.31946e-35)
(-0.161393 -0.0150747 1.50463e-36)
(-0.165163 -0.0159479 1.70334e-18)
(-0.166038 -0.0164365 1.55152e-18)
(-0.165051 -0.016663 0)
(-0.162276 -0.0166345 0)
(-0.158092 -0.0163716 0)
(-0.153021 -0.0159081 -3.02102e-35)
(-0.14796 -0.015355 -2.08533e-35)
(-0.143567 -0.0148214 6.24423e-35)
(-0.14028 -0.0143741 -1.34385e-18)
(-0.139088 -0.0141407 -1.21953e-18)
(-0.139134 -0.0140467 0)
(-0.141358 -0.0141817 2.08923e-18)
(-0.145447 -0.0145697 3.7463e-18)
(-0.152294 -0.0151684 6.01853e-36)
(-0.159377 -0.0156517 -2.43571e-18)
(-0.176059 -0.0185198 -3.00927e-36)
)
;
    }
    frontAndBack
    {
        type            empty;
    }
}


// ************************************************************************* //
