/*--------------------------------*- C++ -*----------------------------------*\
  =========                 |
  \\      /  F ield         | OpenFOAM: The Open Source CFD Toolbox
   \\    /   O peration     | Website:  https://openfoam.org
    \\  /    A nd           | Version:  8
     \\/     M anipulation  |
\*---------------------------------------------------------------------------*/
FoamFile
{
    version     2.0;
    format      ascii;
    class       surfaceScalarField;
    location    "4800";
    object      phi;
}
// * * * * * * * * * * * * * * * * * * * * * * * * * * * * * * * * * * * * * //

dimensions      [0 3 -1 0 0 0 0];

internalField   nonuniform List<scalar> 
24170
(
3.92539e-06
-7.91498e-07
3.76465e-06
1.6075e-07
3.63345e-06
1.31209e-07
3.43331e-06
2.00143e-07
3.28028e-06
1.53027e-07
3.18901e-06
9.11905e-08
3.13091e-06
5.81109e-08
3.08609e-06
4.58915e-08
3.04612e-06
4.23228e-08
3.01059e-06
3.81614e-08
2.97875e-06
3.38011e-08
2.94904e-06
3.07694e-08
2.92187e-06
2.73775e-08
2.89642e-06
2.52001e-08
2.87227e-06
2.36054e-08
2.85194e-06
1.94828e-08
2.84098e-06
9.85748e-09
-6.39506e-09
2.84671e-06
3.58445e-06
-9.19499e-07
3.80424e-06
-5.90414e-08
3.74282e-06
1.92629e-07
3.6906e-06
2.52374e-07
3.63729e-06
2.06332e-07
3.59023e-06
1.3828e-07
3.55289e-06
9.55996e-08
3.52309e-06
7.56592e-08
3.49853e-06
6.65685e-08
3.47732e-06
5.9214e-08
3.45871e-06
5.25287e-08
3.44253e-06
4.72648e-08
3.42795e-06
4.23387e-08
3.41466e-06
3.87874e-08
3.40269e-06
3.57311e-08
3.39123e-06
3.10516e-08
3.38037e-06
2.08403e-08
4.76783e-09
3.36944e-06
3.68518e-06
-7.92482e-07
3.83639e-06
-2.10251e-07
3.91494e-06
1.14082e-07
3.94502e-06
2.22293e-07
3.94408e-06
2.07264e-07
3.92749e-06
1.54897e-07
3.90755e-06
1.15615e-07
3.88932e-06
9.36443e-08
3.874e-06
8.11962e-08
3.86056e-06
7.19158e-08
3.84834e-06
6.42564e-08
3.83728e-06
5.81362e-08
3.82692e-06
5.27803e-08
3.81741e-06
4.84762e-08
3.80891e-06
4.44343e-08
3.80098e-06
3.92526e-08
3.79196e-06
3.02046e-08
1.7787e-08
3.77944e-06
4.05359e-06
-6.4151e-07
4.1146e-06
-2.71259e-07
4.20799e-06
2.06914e-08
4.26635e-06
1.63932e-07
4.29069e-06
1.82926e-07
4.29287e-06
1.52749e-07
4.28571e-06
1.22819e-07
4.27631e-06
1.02843e-07
4.26727e-06
8.96863e-08
4.25873e-06
7.9818e-08
4.25056e-06
7.19505e-08
4.24283e-06
6.56359e-08
4.23535e-06
6.02475e-08
4.22824e-06
5.56941e-08
4.22149e-06
5.13527e-08
4.21464e-06
4.63442e-08
4.20599e-06
3.91805e-08
3.06516e-08
4.19351e-06
4.50491e-06
-5.09114e-07
4.51536e-06
-2.81708e-07
4.58529e-06
-4.92343e-08
4.64665e-06
1.02566e-07
4.68258e-06
1.46992e-07
4.69688e-06
1.38473e-07
4.69946e-06
1.20237e-07
4.69723e-06
1.04926e-07
4.69331e-06
9.32556e-08
4.68868e-06
8.40582e-08
4.68367e-06
7.66431e-08
4.67851e-06
7.06094e-08
4.67321e-06
6.54957e-08
4.66783e-06
6.11066e-08
4.66227e-06
5.7005e-08
4.65606e-06
5.27019e-08
4.64787e-06
4.75877e-08
4.25987e-08
4.63612e-06
5.00014e-06
-3.94663e-07
4.98614e-06
-2.67704e-07
5.03069e-06
-9.37791e-08
5.08506e-06
4.81977e-08
5.12454e-06
1.07516e-07
5.14608e-06
1.1694e-07
5.15584e-06
1.10489e-07
5.1594e-06
1.01285e-07
5.15985e-06
9.26083e-08
5.15859e-06
8.50845e-08
5.15629e-06
7.8744e-08
5.15333e-06
7.34438e-08
5.14984e-06
6.89347e-08
5.14589e-06
6.50642e-08
5.14136e-06
6.15865e-08
5.13584e-06
5.83081e-08
5.12839e-06
5.51456e-08
5.30463e-08
5.11808e-06
5.54382e-06
-2.97475e-07
5.51664e-06
-2.40529e-07
5.54055e-06
-1.17686e-07
5.58388e-06
4.87024e-09
5.62166e-06
6.97343e-08
5.64656e-06
9.20461e-08
5.66107e-06
9.59685e-08
5.66906e-06
9.32474e-08
5.67315e-06
8.84249e-08
5.67482e-06
8.3302e-08
5.67491e-06
7.85528e-08
5.6739e-06
7.43766e-08
5.67204e-06
7.07665e-08
5.6694e-06
6.76962e-08
5.66591e-06
6.50994e-08
5.66127e-06
6.29869e-08
5.65494e-06
6.15447e-08
6.15285e-08
5.6465e-06
4.34788e-06
-2.39242e-07
4.32251e-06
-2.15162e-07
4.33078e-06
-1.25951e-07
4.35419e-06
-1.85364e-08
4.3784e-06
4.55258e-08
4.39646e-06
7.39848e-08
4.40841e-06
8.40228e-08
4.41597e-06
8.56739e-08
4.42059e-06
8.37682e-08
4.42325e-06
8.05984e-08
4.42456e-06
7.71974e-08
4.4249e-06
7.40036e-08
4.42447e-06
7.11806e-08
4.42335e-06
6.88104e-08
4.42151e-06
6.69365e-08
4.41885e-06
6.56698e-08
4.41514e-06
6.52668e-08
6.6346e-08
4.41035e-06
5.08621e-06
-1.85599e-07
5.05777e-06
-1.86718e-07
5.0584e-06
-1.26578e-07
5.07686e-06
-3.70024e-08
5.09918e-06
2.3214e-08
5.11773e-06
5.54362e-08
5.13124e-06
7.05071e-08
5.14059e-06
7.63169e-08
5.14686e-06
7.7476e-08
5.15094e-06
7.64977e-08
5.15345e-06
7.46769e-08
5.15477e-06
7.26669e-08
5.15514e-06
7.07972e-08
5.15468e-06
6.92642e-08
5.15341e-06
6.82096e-08
5.15128e-06
6.78122e-08
5.14821e-06
6.83487e-08
7.02697e-08
5.14429e-06
5.94839e-06
-1.38193e-07
5.91832e-06
-1.56649e-07
5.91161e-06
-1.19866e-07
5.924e-06
-4.93968e-08
5.94286e-06
4.35863e-09
5.96058e-06
3.77168e-08
5.97479e-06
5.62912e-08
5.98546e-06
6.56466e-08
5.9932e-06
6.97361e-08
5.99867e-06
7.10177e-08
6.00242e-06
7.09159e-08
6.00485e-06
7.02401e-08
6.00618e-06
6.94581e-08
6.00658e-06
6.8867e-08
6.0061e-06
6.86871e-08
6.00478e-06
6.91343e-08
6.00267e-06
7.04599e-08
7.29735e-08
5.99997e-06
6.95439e-06
-9.8313e-08
6.92401e-06
-1.26278e-07
6.91113e-06
-1.06984e-07
6.9168e-06
-5.50657e-08
6.93087e-06
-9.71041e-09
6.94635e-06
2.22395e-08
6.96015e-06
4.24929e-08
6.9714e-06
5.43964e-08
6.98017e-06
6.09617e-08
6.98684e-06
6.4348e-08
6.9918e-06
6.59555e-08
6.99538e-06
6.66647e-08
6.9978e-06
6.70304e-08
6.99924e-06
6.74236e-08
6.99982e-06
6.81125e-08
6.99963e-06
6.93232e-08
6.99883e-06
7.12659e-08
7.41274e-08
6.99768e-06
8.12719e-06
-6.64877e-08
8.09793e-06
-9.7021e-08
8.08056e-06
-8.96088e-08
8.07955e-06
-5.40587e-08
8.08793e-06
-1.80893e-08
8.09985e-06
1.03229e-08
8.11198e-06
3.03591e-08
8.12286e-06
4.35223e-08
8.13202e-06
5.17956e-08
8.1395e-06
5.6868e-08
8.14548e-06
5.99756e-08
8.15018e-06
6.197e-08
8.15378e-06
6.34311e-08
8.15645e-06
6.47566e-08
8.15833e-06
6.62328e-08
8.15958e-06
6.80732e-08
8.1604e-06
7.04398e-08
7.34377e-08
8.16109e-06
9.49368e-06
-4.24387e-08
9.4668e-06
-7.01427e-08
9.44683e-06
-6.96402e-08
9.43991e-06
-4.71317e-08
9.44229e-06
-2.04678e-08
9.44965e-06
2.95563e-09
9.45895e-06
2.10647e-08
9.4684e-06
3.40708e-08
9.47716e-06
4.30366e-08
9.48491e-06
4.91209e-08
9.49159e-06
5.32937e-08
9.49727e-06
5.62916e-08
9.50205e-06
5.86462e-08
9.50607e-06
6.07379e-08
9.50947e-06
6.28337e-08
9.51243e-06
6.51195e-08
9.51515e-06
6.77137e-08
7.06697e-08
9.51792e-06
1.10854e-05
-2.5159e-08
1.10618e-05
-4.65025e-08
1.1041e-05
-4.88066e-08
1.10294e-05
-3.55515e-08
1.10261e-05
-1.71696e-08
1.10284e-05
6.05147e-10
1.1034e-05
1.5475e-08
1.10411e-05
2.69711e-08
1.10487e-05
3.54921e-08
1.10561e-05
4.1716e-08
1.1063e-05
4.63135e-08
1.10695e-05
4.9843e-08
1.10754e-05
5.27347e-08
1.10808e-05
5.53027e-08
1.10859e-05
5.77673e-08
1.10908e-05
6.02723e-08
1.10956e-05
6.28982e-08
6.56681e-08
1.11006e-05
1.29396e-05
-1.31186e-08
1.29194e-05
-2.62785e-08
1.28988e-05
-2.82518e-08
1.28839e-05
-2.06875e-08
1.28758e-05
-8.99558e-09
1.28732e-05
3.14513e-09
1.28748e-05
1.39403e-08
1.28789e-05
2.27888e-08
1.28847e-05
2.97448e-08
1.28913e-05
3.51435e-08
1.28982e-05
3.93836e-08
1.29052e-05
4.28284e-08
1.29122e-05
4.57698e-08
1.29191e-05
4.8425e-08
1.29259e-05
5.09429e-08
1.29327e-05
5.34152e-08
1.29398e-05
5.58851e-08
5.83554e-08
1.29471e-05
1.50998e-05
-4.48306e-09
1.50822e-05
-8.67596e-09
1.50621e-05
-8.11348e-09
1.50448e-05
-3.45813e-09
1.50327e-05
3.10976e-09
1.50259e-05
9.93876e-09
1.50237e-05
1.61619e-08
1.5025e-05
2.14644e-08
1.50289e-05
2.58533e-08
1.50346e-05
2.94847e-08
1.50414e-05
3.25545e-08
1.5049e-05
3.52431e-08
1.50571e-05
3.76938e-08
1.50655e-05
4.00078e-08
1.50742e-05
4.22478e-08
1.50832e-05
4.4443e-08
1.50925e-05
4.6596e-08
4.86885e-08
1.51021e-05
1.76171e-05
2.89314e-09
1.75999e-05
8.52305e-09
1.75787e-05
1.30295e-08
1.7559e-05
1.62777e-08
1.75436e-05
1.84722e-08
1.75336e-05
1.99573e-08
1.75287e-05
2.10516e-08
1.75282e-05
2.1993e-08
1.75311e-05
2.29389e-08
1.75366e-05
2.39849e-08
1.7544e-05
2.51768e-08
1.75527e-05
2.65277e-08
1.75624e-05
2.80262e-08
1.75727e-05
2.96469e-08
1.75836e-05
3.13531e-08
1.7595e-05
3.31037e-08
1.76067e-05
3.4853e-08
3.65558e-08
1.76188e-05
1.78181e-05
1.10003e-08
1.77994e-05
2.72123e-08
1.77768e-05
3.56238e-08
1.7756e-05
3.70579e-08
1.77402e-05
3.43253e-08
1.77302e-05
2.99452e-08
1.77257e-05
2.54987e-08
1.7726e-05
2.17762e-08
1.77298e-05
1.90733e-08
1.77364e-05
1.73983e-08
1.7745e-05
1.66313e-08
1.77549e-05
1.66027e-08
1.77658e-05
1.71417e-08
1.77773e-05
1.80906e-08
1.77894e-05
1.93169e-08
1.78018e-05
2.07072e-08
1.78144e-05
2.21713e-08
2.3634e-08
1.78274e-05
1.58702e-05
2.21334e-08
1.58478e-05
4.95811e-08
1.58233e-05
6.01318e-08
1.58032e-05
5.72339e-08
1.57899e-05
4.76093e-08
1.57834e-05
3.637e-08
1.57827e-05
2.61953e-08
1.57864e-05
1.81441e-08
1.57931e-05
1.23625e-08
1.58019e-05
8.60992e-09
1.5812e-05
6.49501e-09
1.5823e-05
5.62839e-09
1.58345e-05
5.66618e-09
1.58462e-05
6.33239e-09
1.58581e-05
7.40619e-09
1.58701e-05
8.72308e-09
1.58821e-05
1.01552e-08
1.16119e-08
1.58942e-05
1.41313e-05
3.95387e-08
1.41021e-05
7.87067e-08
1.40745e-05
8.77874e-08
1.40557e-05
7.60377e-08
1.40469e-05
5.64123e-08
1.40462e-05
3.70379e-08
1.40512e-05
2.12082e-08
1.40597e-05
9.57963e-09
1.40704e-05
1.75983e-09
1.4082e-05
-3.05121e-09
1.40941e-05
-5.60573e-09
1.41063e-05
-6.56024e-09
1.41184e-05
-6.41197e-09
1.41303e-05
-5.5517e-09
1.4142e-05
-4.24989e-09
1.41534e-05
-2.70737e-09
1.41646e-05
-1.06234e-09
5.88172e-10
1.41756e-05
1.25772e-05
6.73555e-08
1.25392e-05
1.16739e-07
1.25091e-05
1.17889e-07
1.24942e-05
9.08905e-08
1.24928e-05
5.78129e-08
1.25002e-05
2.96816e-08
1.25122e-05
9.12909e-09
1.25264e-05
-4.49868e-09
1.25409e-05
-1.28376e-08
1.25552e-05
-1.73493e-08
1.25689e-05
-1.92836e-08
1.25819e-05
-1.9497e-08
1.25941e-05
-1.86482e-08
1.26057e-05
-1.71437e-08
1.26167e-05
-1.52899e-08
1.26273e-05
-1.32804e-08
1.26375e-05
-1.12443e-08
-9.26533e-09
1.26473e-05
1.11862e-05
1.10916e-07
1.11384e-05
1.6457e-07
1.11088e-05
1.4752e-07
1.11022e-05
9.74844e-08
1.11117e-05
4.83124e-08
1.11289e-05
1.24006e-08
1.11486e-05
-1.04624e-08
1.11678e-05
-2.37287e-08
1.11855e-05
-3.05089e-08
1.12014e-05
-3.32906e-08
1.12157e-05
-3.35527e-08
1.12285e-05
-3.23544e-08
1.12402e-05
-3.02944e-08
1.12509e-05
-2.78395e-08
1.12608e-05
-2.52244e-08
1.12701e-05
-2.26127e-08
1.1279e-05
-2.01056e-08
-1.77365e-08
1.12875e-05
9.93908e-06
1.76452e-07
9.88248e-06
2.21163e-07
9.85873e-06
1.71262e-07
9.86593e-06
9.02756e-08
9.8896e-06
2.46387e-08
9.9176e-06
-1.55559e-08
9.94391e-06
-3.67955e-08
9.96668e-06
-4.641e-08
9.98571e-06
-4.96108e-08
1.00017e-05
-4.92865e-08
1.00153e-05
-4.71238e-08
1.00269e-05
-4.39922e-08
1.00372e-05
-4.05272e-08
1.00463e-05
-3.6985e-08
1.00546e-05
-3.35445e-08
1.00623e-05
-3.0321e-08
1.00696e-05
-2.73521e-08
-2.46438e-08
1.00765e-05
8.81963e-06
2.69916e-07
8.75785e-06
2.82944e-07
8.74788e-06
1.81226e-07
8.77481e-06
6.33232e-08
8.81458e-06
-1.51287e-08
8.85212e-06
-5.30916e-08
8.88268e-06
-6.72292e-08
8.90623e-06
-7.00262e-08
8.92427e-06
-6.76173e-08
8.93843e-06
-6.33707e-08
8.94985e-06
-5.84002e-08
8.95926e-06
-5.33354e-08
8.96728e-06
-4.84724e-08
8.97429e-06
-4.3983e-08
8.98057e-06
-3.9827e-08
8.98633e-06
-3.60728e-08
8.99173e-06
-3.27843e-08
-2.98267e-08
8.99691e-06
7.81391e-06
3.96675e-07
7.75391e-06
3.42943e-07
7.76868e-06
1.6644e-07
7.82053e-06
1.14616e-08
7.87567e-06
-7.02735e-08
7.91913e-06
-9.64906e-08
7.94967e-06
-9.78354e-08
7.97057e-06
-9.06499e-08
7.98484e-06
-8.1589e-08
7.99525e-06
-7.35535e-08
8.00317e-06
-6.61139e-08
8.00939e-06
-5.94123e-08
8.01449e-06
-5.33374e-08
8.01892e-06
-4.82175e-08
8.0228e-06
-4.36829e-08
8.0263e-06
-3.96371e-08
8.02967e-06
-3.62188e-08
-3.31851e-08
8.03299e-06
6.90424e-06
5.66768e-07
6.86137e-06
3.85805e-07
6.91716e-06
1.10635e-07
6.99674e-06
-6.81325e-08
7.06253e-06
-1.3607e-07
7.10529e-06
-1.39267e-07
7.13032e-06
-1.22549e-07
7.14447e-06
-1.0462e-07
7.15208e-06
-8.89965e-08
7.15709e-06
-7.58113e-08
7.16038e-06
-6.66745e-08
7.1627e-06
-5.95481e-08
7.1642e-06
-5.41346e-08
7.16558e-06
-4.9472e-08
7.16676e-06
-4.50218e-08
7.16776e-06
-4.08691e-08
7.16888e-06
-3.76088e-08
-3.49599e-08
7.17015e-06
6.07162e-06
7.97662e-07
6.08526e-06
3.72164e-07
6.19865e-06
-2.77304e-09
6.29989e-06
-1.69397e-07
6.36526e-06
-2.01461e-07
6.39754e-06
-1.71503e-07
6.41011e-06
-1.35219e-07
6.41342e-06
-1.0695e-07
6.41239e-06
-8.58063e-08
6.40989e-06
-7.40308e-08
6.40749e-06
-6.45197e-08
6.40487e-06
-5.75696e-08
6.40234e-06
-5.13333e-08
6.40032e-06
-4.70309e-08
6.39843e-06
-4.30639e-08
6.39648e-06
-3.92231e-08
6.39494e-06
-3.67699e-08
-3.47684e-08
6.39407e-06
5.35805e-06
1.05451e-06
5.50649e-06
2.23716e-07
5.64777e-06
-1.44085e-07
5.73564e-06
-2.57314e-07
5.77646e-06
-2.42346e-07
5.78324e-06
-1.78423e-07
5.77527e-06
-1.26643e-07
5.76328e-06
-9.40049e-08
5.74976e-06
-7.56651e-08
5.73932e-06
-6.39896e-08
5.7303e-06
-5.65448e-08
5.72233e-06
-4.99756e-08
5.7144e-06
-4.46861e-08
5.7078e-06
-4.04914e-08
5.70181e-06
-3.70342e-08
5.69617e-06
-3.36307e-08
5.69164e-06
-3.20748e-08
-3.11683e-08
5.68729e-06
5.04576e-06
1.01105e-06
5.36491e-06
-9.545e-08
5.35251e-06
-1.31767e-07
5.33285e-06
-2.37745e-07
5.296e-06
-2.05651e-07
5.25016e-06
-1.32588e-07
5.20891e-06
-8.47324e-08
5.17486e-06
-6.08211e-08
5.14637e-06
-4.98257e-08
5.12486e-06
-4.29154e-08
5.10674e-06
-3.93759e-08
5.09049e-06
-3.57131e-08
5.07531e-06
-3.14591e-08
5.06198e-06
-2.75652e-08
5.0496e-06
-2.4445e-08
5.03868e-06
-2.21894e-08
5.03014e-06
-2.30616e-08
-2.20209e-08
5.02218e-06
5.4676e-06
5.37215e-06
5.24037e-06
5.0026e-06
4.79694e-06
4.66444e-06
4.57967e-06
4.51836e-06
4.46848e-06
4.42539e-06
4.38567e-06
4.34948e-06
4.3179e-06
4.29038e-06
4.26605e-06
4.24403e-06
4.22136e-06
4.20016e-06
2.31279e-08
-2.31283e-08
2.37202e-07
-2.14078e-07
4.89325e-07
-2.52093e-07
7.0959e-07
-2.20244e-07
8.77305e-07
-1.67696e-07
9.88433e-07
-1.11119e-07
1.0441e-06
-5.56523e-08
1.04652e-06
-2.42266e-09
1.00102e-06
4.55112e-08
9.17742e-07
8.32654e-08
8.11944e-07
1.05808e-07
7.02757e-07
1.09173e-07
6.09977e-07
9.27773e-08
5.43691e-07
6.62956e-08
4.92549e-07
5.11605e-08
4.33369e-07
5.98808e-08
3.4706e-07
8.61682e-08
2.21959e-07
1.25873e-07
4.36517e-08
1.77889e-07
-2.01815e-07
2.44836e-07
-5.04353e-07
3.02282e-07
-8.45345e-07
3.4074e-07
-1.20969e-06
3.64348e-07
-1.58708e-06
3.77407e-07
-1.96868e-06
3.81641e-07
-2.34451e-06
3.75851e-07
-2.70655e-06
3.62057e-07
-3.04962e-06
3.43087e-07
-3.36992e-06
3.20305e-07
-3.66509e-06
2.95177e-07
-3.93427e-06
2.69193e-07
-4.1778e-06
2.43526e-07
-4.39668e-06
2.18885e-07
-4.5924e-06
1.95723e-07
-4.76667e-06
1.74268e-07
-4.92127e-06
1.54602e-07
-5.05795e-06
1.36685e-07
-5.17836e-06
1.20401e-07
-5.28394e-06
1.05589e-07
-5.37601e-06
9.20682e-08
-5.45567e-06
7.96569e-08
-5.52385e-06
6.81825e-08
-5.58134e-06
5.749e-08
-5.62879e-06
4.74451e-08
-5.66673e-06
3.79391e-08
-5.69561e-06
2.88845e-08
-5.71582e-06
2.021e-08
-5.72771e-06
1.18859e-08
-5.73175e-06
4.03995e-09
-5.72881e-06
-2.93964e-09
-5.71997e-06
-8.8381e-09
-5.70601e-06
-1.39647e-08
-5.68732e-06
-1.8681e-08
-5.66418e-06
-2.31485e-08
-5.63673e-06
-2.7445e-08
-5.60513e-06
-3.15987e-08
-5.56951e-06
-3.56245e-08
-5.52998e-06
-3.95291e-08
-5.48666e-06
-4.33137e-08
-5.43969e-06
-4.6977e-08
-5.38917e-06
-5.05166e-08
-5.33524e-06
-5.39291e-08
-5.27803e-06
-5.72108e-08
-5.21767e-06
-6.03588e-08
-5.1543e-06
-6.33703e-08
-5.08806e-06
-6.62423e-08
-5.01909e-06
-6.89713e-08
-4.94753e-06
-7.15552e-08
-4.87354e-06
-7.39921e-08
-4.79726e-06
-7.6281e-08
-4.71884e-06
-7.8421e-08
-4.63843e-06
-8.04118e-08
-4.55617e-06
-8.22536e-08
-4.47223e-06
-8.39473e-08
-4.38673e-06
-8.54938e-08
-4.29984e-06
-8.6895e-08
-4.21168e-06
-8.81529e-08
-4.12241e-06
-8.92701e-08
-4.03216e-06
-9.02495e-08
-3.94107e-06
-9.10949e-08
-3.84926e-06
-9.18098e-08
-3.75686e-06
-9.23989e-08
-3.66399e-06
-9.28668e-08
-3.57077e-06
-9.32192e-08
-3.47731e-06
-9.34622e-08
-3.38371e-06
-9.36032e-08
-3.29006e-06
-9.36508e-08
-3.19644e-06
-9.36154e-08
-3.10293e-06
-9.35098e-08
-3.00958e-06
-9.33495e-08
-2.91642e-06
-9.31552e-08
-2.82347e-06
-9.29527e-08
-2.73071e-06
-9.27599e-08
-2.63815e-06
-9.25562e-08
-2.5459e-06
-9.22567e-08
-2.45414e-06
-9.17602e-08
-2.36316e-06
-9.09811e-08
-2.27322e-06
-8.99366e-08
-2.18444e-06
-8.87835e-08
-2.09681e-06
-8.76289e-08
-2.01034e-06
-8.64729e-08
-1.92504e-06
-8.52996e-08
-1.84094e-06
-8.41017e-08
-1.75806e-06
-8.28783e-08
-1.67643e-06
-8.16318e-08
-1.59607e-06
-8.03661e-08
-1.51698e-06
-7.9085e-08
-1.43919e-06
-7.77911e-08
-1.36271e-06
-7.64824e-08
-1.28757e-06
-7.51382e-08
-1.2138e-06
-7.37705e-08
-1.1414e-06
-7.2407e-08
-1.07036e-06
-7.10428e-08
-1.00068e-06
-6.96791e-08
-9.32364e-07
-6.83168e-08
-8.65408e-07
-6.69575e-08
-7.99806e-07
-6.56034e-08
-7.3555e-07
-6.42572e-08
-6.7263e-07
-6.29208e-08
-6.11038e-07
-6.15937e-08
-5.50763e-07
-6.02763e-08
-4.91792e-07
-5.89718e-08
-4.34108e-07
-5.76859e-08
-3.77685e-07
-5.64243e-08
-3.22503e-07
-5.51829e-08
-2.68546e-07
-5.39583e-08
-2.15792e-07
-5.27545e-08
-1.64223e-07
-5.15705e-08
-1.13829e-07
-5.03946e-08
-6.46032e-08
-4.92267e-08
-1.66671e-08
-4.79367e-08
3.01108e-08
-4.67784e-08
7.60377e-08
-4.59273e-08
1.21007e-07
-4.49702e-08
1.64917e-07
-4.39101e-08
2.07763e-07
-4.28463e-08
2.49563e-07
-4.17997e-08
2.90345e-07
-4.07829e-08
3.30143e-07
-3.9798e-08
3.68986e-07
-3.88435e-08
4.06904e-07
-3.79176e-08
4.43922e-07
-3.70188e-08
4.80067e-07
-3.61461e-08
5.15365e-07
-3.52987e-08
5.49841e-07
-3.44761e-08
5.83518e-07
-3.36781e-08
6.16422e-07
-3.29042e-08
6.48577e-07
-3.21546e-08
6.80006e-07
-3.14289e-08
7.10733e-07
-3.07273e-08
7.40782e-07
-3.00497e-08
7.70178e-07
-2.93962e-08
7.98945e-07
-2.87667e-08
8.27106e-07
-2.81613e-08
8.54685e-07
-2.75799e-08
8.81707e-07
-2.70226e-08
9.08196e-07
-2.64891e-08
9.34175e-07
-2.59792e-08
9.59667e-07
-2.54925e-08
9.84695e-07
-2.5028e-08
1.00928e-06
-2.45846e-08
1.03344e-06
-2.41604e-08
1.05719e-06
-2.37525e-08
1.08055e-06
-2.33569e-08
1.10352e-06
-2.29678e-08
1.1261e-06
-2.25772e-08
1.14827e-06
-2.21737e-08
1.17001e-06
-2.17415e-08
1.19127e-06
-2.12585e-08
1.21197e-06
-2.06935e-08
1.23197e-06
-2.00024e-08
1.25109e-06
-1.91214e-08
1.26905e-06
-1.7953e-08
1.2854e-06
-1.63531e-08
1.29945e-06
-1.40464e-08
1.31007e-06
-1.06225e-08
1.31464e-06
-4.55793e-09
1.30779e-06
6.85743e-09
1.27825e-06
2.95377e-08
7.233e-08
1.20591e-06
2.54183e-07
-2.77333e-07
4.90083e-07
-4.49975e-07
6.39669e-07
-4.01675e-07
7.24302e-07
-3.04875e-07
7.63817e-07
-2.07202e-07
7.69763e-07
-1.1707e-07
7.48832e-07
-3.4715e-08
7.06649e-07
3.97515e-08
6.4629e-07
1.05876e-07
5.67662e-07
1.61883e-07
4.70048e-07
2.03428e-07
3.51778e-07
2.2743e-07
2.06816e-07
2.37746e-07
2.36185e-08
2.49509e-07
-2.08599e-07
2.83385e-07
-4.94243e-07
3.45618e-07
-8.32205e-07
4.24219e-07
-1.21206e-06
5.05748e-07
-1.61588e-06
5.81666e-07
-2.01733e-06
6.46223e-07
-2.40735e-06
6.92255e-07
-2.78283e-06
7.16203e-07
-3.13777e-06
7.19291e-07
-3.46519e-06
7.04834e-07
-3.75995e-06
6.76407e-07
-4.0211e-06
6.37e-07
-4.24904e-06
5.90001e-07
-4.44505e-06
5.39105e-07
-4.61204e-06
4.87302e-07
-4.75353e-06
4.36663e-07
-4.87287e-06
3.88539e-07
-4.97325e-06
3.43903e-07
-5.05753e-06
3.03169e-07
-5.12823e-06
2.66425e-07
-5.18747e-06
2.33507e-07
-5.23698e-06
2.04112e-07
-5.27817e-06
1.77873e-07
-5.31216e-06
1.54395e-07
-5.33987e-06
1.33299e-07
-5.36204e-06
1.14231e-07
-5.37926e-06
9.68824e-08
-5.39206e-06
8.09859e-08
-5.40089e-06
6.63199e-08
-5.40615e-06
5.27025e-08
-5.4082e-06
3.99871e-08
-5.40737e-06
2.80586e-08
-5.404e-06
1.68393e-08
-5.39841e-06
6.29444e-09
-5.39075e-06
-3.6201e-09
-5.3806e-06
-1.3094e-08
-5.36707e-06
-2.23674e-08
-5.34956e-06
-3.14695e-08
-5.32791e-06
-4.03346e-08
-5.3021e-06
-4.8959e-08
-5.2722e-06
-5.73496e-08
-5.23828e-06
-6.55125e-08
-5.20046e-06
-7.34507e-08
-5.15882e-06
-8.11635e-08
-5.11349e-06
-8.86477e-08
-5.06457e-06
-9.58977e-08
-5.01218e-06
-1.02907e-07
-4.95644e-06
-1.09667e-07
-4.89748e-06
-1.16171e-07
-4.83543e-06
-1.22411e-07
-4.77041e-06
-1.28383e-07
-4.70258e-06
-1.34081e-07
-4.63205e-06
-1.39496e-07
-4.55898e-06
-1.44624e-07
-4.48351e-06
-1.49462e-07
-4.40578e-06
-1.54009e-07
-4.32594e-06
-1.58261e-07
-4.24414e-06
-1.62219e-07
-4.16051e-06
-1.65882e-07
-4.0752e-06
-1.69253e-07
-3.98836e-06
-1.72333e-07
-3.90013e-06
-1.75126e-07
-3.81065e-06
-1.77636e-07
-3.72005e-06
-1.79868e-07
-3.62847e-06
-1.81829e-07
-3.53604e-06
-1.83524e-07
-3.44289e-06
-1.84962e-07
-3.34914e-06
-1.8615e-07
-3.25491e-06
-1.87099e-07
-3.16031e-06
-1.87818e-07
-3.06545e-06
-1.88317e-07
-2.97045e-06
-1.88608e-07
-2.87539e-06
-1.88704e-07
-2.78039e-06
-1.88617e-07
-2.68554e-06
-1.8836e-07
-2.59095e-06
-1.87946e-07
-2.49671e-06
-1.87386e-07
-2.40298e-06
-1.86688e-07
-2.30989e-06
-1.85848e-07
-2.21761e-06
-1.84836e-07
-2.12626e-06
-1.83608e-07
-2.03588e-06
-1.82137e-07
-1.94645e-06
-1.80417e-07
-1.8579e-06
-1.78489e-07
-1.77025e-06
-1.76431e-07
-1.68358e-06
-1.74296e-07
-1.59796e-06
-1.72098e-07
-1.51342e-06
-1.69837e-07
-1.43001e-06
-1.67516e-07
-1.34775e-06
-1.65137e-07
-1.26667e-06
-1.62707e-07
-1.18681e-06
-1.6023e-07
-1.10818e-06
-1.57712e-07
-1.03082e-06
-1.55157e-07
-9.54735e-07
-1.52567e-07
-8.79933e-07
-1.49942e-07
-8.0641e-07
-1.47294e-07
-7.3418e-07
-1.44638e-07
-6.63247e-07
-1.41977e-07
-5.93612e-07
-1.39315e-07
-5.25276e-07
-1.36654e-07
-4.58236e-07
-1.33999e-07
-3.92488e-07
-1.31352e-07
-3.28028e-07
-1.28718e-07
-2.64846e-07
-1.26104e-07
-2.02931e-07
-1.2351e-07
-1.42273e-07
-1.20934e-07
-8.2863e-08
-1.18383e-07
-2.46926e-08
-1.15857e-07
3.22515e-08
-1.13369e-07
8.79974e-08
-1.1093e-07
1.42563e-07
-1.08524e-07
1.95957e-07
-1.06149e-07
2.48196e-07
-1.0381e-07
2.99307e-07
-1.01506e-07
3.4932e-07
-9.92393e-08
3.98391e-07
-9.70084e-08
4.46496e-07
-9.48833e-08
4.93417e-07
-9.28487e-08
5.39222e-07
-9.07756e-08
5.83989e-07
-8.86774e-08
6.2775e-07
-8.66068e-08
6.70533e-07
-8.45831e-08
7.12363e-07
-8.2613e-08
7.53263e-07
-8.0698e-08
7.93256e-07
-7.88367e-08
8.32365e-07
-7.70275e-08
8.70615e-07
-7.52689e-08
9.08028e-07
-7.35596e-08
9.44628e-07
-7.18987e-08
9.80437e-07
-7.02857e-08
1.01548e-06
-6.872e-08
1.04978e-06
-6.72015e-08
1.08335e-06
-6.57299e-08
1.11623e-06
-6.43052e-08
1.14843e-06
-6.29272e-08
1.17997e-06
-6.15962e-08
1.21089e-06
-6.0312e-08
1.2412e-06
-5.90746e-08
1.27092e-06
-5.7884e-08
1.30008e-06
-5.67402e-08
1.3287e-06
-5.56429e-08
1.3568e-06
-5.45917e-08
1.38441e-06
-5.3586e-08
1.41154e-06
-5.26245e-08
1.43822e-06
-5.17056e-08
1.46446e-06
-5.08264e-08
1.49028e-06
-4.99832e-08
1.5157e-06
-4.91704e-08
1.54072e-06
-4.83801e-08
1.56536e-06
-4.76012e-08
1.5896e-06
-4.68185e-08
1.61344e-06
-4.60104e-08
1.63684e-06
-4.51477e-08
1.65977e-06
-4.4189e-08
1.68216e-06
-4.30771e-08
1.70389e-06
-4.17301e-08
1.7248e-06
-4.003e-08
1.74464e-06
-3.78001e-08
1.76306e-06
-3.47711e-08
1.7795e-06
-3.04821e-08
1.79306e-06
-2.41809e-08
1.80278e-06
-1.42736e-08
1.80764e-06
1.99758e-09
1.80576e-06
3.14241e-08
8.8032e-08
1.79005e-06
2.4601e-07
-5.23363e-07
3.42326e-07
-5.46294e-07
3.58614e-07
-4.17961e-07
3.47571e-07
-2.93822e-07
3.19869e-07
-1.79495e-07
2.75787e-07
-7.29866e-08
2.14611e-07
2.64637e-08
1.35291e-07
1.19067e-07
3.67656e-08
2.04402e-07
-8.3128e-08
2.81773e-07
-2.30095e-07
3.50395e-07
-4.14656e-07
4.11991e-07
-6.50221e-07
4.73308e-07
-9.4371e-07
5.43002e-07
-1.28496e-06
6.24635e-07
-1.65206e-06
7.12718e-07
-2.02417e-06
7.96324e-07
-2.38442e-06
8.65992e-07
-2.71894e-06
9.16161e-07
-3.01716e-06
9.44433e-07
-3.27523e-06
9.50321e-07
-3.49412e-06
9.35103e-07
-3.67682e-06
9.02001e-07
-3.82738e-06
8.55399e-07
-3.95052e-06
7.99549e-07
-4.05166e-06
7.38134e-07
-4.13611e-06
6.74455e-07
-4.20827e-06
6.11272e-07
-4.27159e-06
5.50616e-07
-4.32867e-06
4.93742e-07
-4.38138e-06
4.41256e-07
-4.43087e-06
3.93392e-07
-4.47777e-06
3.50067e-07
-4.52234e-06
3.10999e-07
-4.56463e-06
2.75797e-07
-4.60454e-06
2.44022e-07
-4.6419e-06
2.15234e-07
-4.67653e-06
1.89018e-07
-4.70823e-06
1.64997e-07
-4.73683e-06
1.4284e-07
-4.76222e-06
1.22264e-07
-4.78426e-06
1.03031e-07
-4.80288e-06
8.49435e-08
-4.81802e-06
6.78364e-08
-4.8296e-06
5.15697e-08
-4.83757e-06
3.60243e-08
-4.84183e-06
2.10984e-08
-4.84223e-06
6.69801e-09
-4.83857e-06
-7.28342e-09
-4.8307e-06
-2.09602e-08
-4.81868e-06
-3.4392e-08
-4.80258e-06
-4.75665e-08
-4.78245e-06
-6.04613e-08
-4.75834e-06
-7.3068e-08
-4.73031e-06
-8.53803e-08
-4.69843e-06
-9.73923e-08
-4.66279e-06
-1.09097e-07
-4.62346e-06
-1.20486e-07
-4.58056e-06
-1.31549e-07
-4.53419e-06
-1.42275e-07
-4.48444e-06
-1.5265e-07
-4.43145e-06
-1.62663e-07
-4.37532e-06
-1.723e-07
-4.31618e-06
-1.8155e-07
-4.25415e-06
-1.90405e-07
-4.18938e-06
-1.98855e-07
-4.12199e-06
-2.06889e-07
-4.05211e-06
-2.145e-07
-3.97989e-06
-2.21683e-07
-3.90546e-06
-2.28434e-07
-3.82898e-06
-2.34749e-07
-3.75057e-06
-2.40629e-07
-3.67037e-06
-2.46073e-07
-3.58854e-06
-2.51083e-07
-3.50521e-06
-2.55663e-07
-3.42052e-06
-2.59816e-07
-3.33461e-06
-2.63549e-07
-3.24761e-06
-2.6687e-07
-3.15965e-06
-2.69786e-07
-3.07087e-06
-2.72307e-07
-2.98139e-06
-2.74444e-07
-2.89133e-06
-2.76208e-07
-2.80082e-06
-2.77612e-07
-2.70996e-06
-2.78669e-07
-2.61889e-06
-2.79393e-07
-2.5277e-06
-2.79799e-07
-2.4365e-06
-2.79903e-07
-2.3454e-06
-2.79718e-07
-2.2545e-06
-2.79259e-07
-2.1639e-06
-2.78539e-07
-2.07372e-06
-2.7757e-07
-1.98405e-06
-2.76357e-07
-1.895e-06
-2.749e-07
-1.80665e-06
-2.73186e-07
-1.71906e-06
-2.71201e-07
-1.63225e-06
-2.6894e-07
-1.54625e-06
-2.66421e-07
-1.46106e-06
-2.63679e-07
-1.37673e-06
-2.6076e-07
-1.29333e-06
-2.57699e-07
-1.21091e-06
-2.54517e-07
-1.12952e-06
-2.51225e-07
-1.04921e-06
-2.47832e-07
-9.69995e-07
-2.4435e-07
-8.91916e-07
-2.40786e-07
-8.14997e-07
-2.3715e-07
-7.3926e-07
-2.33449e-07
-6.64725e-07
-2.29692e-07
-5.91407e-07
-2.25886e-07
-5.19311e-07
-2.22038e-07
-4.48445e-07
-2.18161e-07
-3.78819e-07
-2.14264e-07
-3.10441e-07
-2.10356e-07
-2.4331e-07
-2.06445e-07
-1.77429e-07
-2.02536e-07
-1.12795e-07
-1.98634e-07
-4.94031e-08
-1.94744e-07
1.27516e-08
-1.90873e-07
7.36737e-08
-1.87027e-07
1.33371e-07
-1.83208e-07
1.91858e-07
-1.79421e-07
2.49145e-07
-1.75671e-07
3.05248e-07
-1.71961e-07
3.6018e-07
-1.68301e-07
4.13946e-07
-1.64695e-07
4.66561e-07
-1.6114e-07
5.18047e-07
-1.57636e-07
5.68422e-07
-1.54185e-07
6.17708e-07
-1.50793e-07
6.65935e-07
-1.47466e-07
7.13145e-07
-1.44219e-07
7.59321e-07
-1.4106e-07
8.0443e-07
-1.37958e-07
8.4852e-07
-1.34865e-07
8.91635e-07
-1.31792e-07
9.33797e-07
-1.2877e-07
9.75027e-07
-1.25813e-07
1.01534e-06
-1.22928e-07
1.05476e-06
-1.20118e-07
1.09331e-06
-1.17382e-07
1.131e-06
-1.14719e-07
1.16786e-06
-1.12129e-07
1.20391e-06
-1.0961e-07
1.23917e-06
-1.07161e-07
1.27367e-06
-1.04782e-07
1.30742e-06
-1.02473e-07
1.34045e-06
-1.00233e-07
1.37278e-06
-9.80617e-08
1.40444e-06
-9.59594e-08
1.43543e-06
-9.39259e-08
1.4658e-06
-9.19614e-08
1.49555e-06
-9.00657e-08
1.52472e-06
-8.82389e-08
1.55331e-06
-8.6481e-08
1.58137e-06
-8.47917e-08
1.60889e-06
-8.31708e-08
1.63592e-06
-8.16175e-08
1.66246e-06
-8.01309e-08
1.68855e-06
-7.87093e-08
1.71419e-06
-7.73499e-08
1.73942e-06
-7.6049e-08
1.76423e-06
-7.48009e-08
1.78866e-06
-7.35977e-08
1.81271e-06
-7.24281e-08
1.83639e-06
-7.12765e-08
1.85969e-06
-7.01213e-08
1.88261e-06
-6.89324e-08
1.90513e-06
-6.76686e-08
1.92722e-06
-6.62726e-08
1.94881e-06
-6.46642e-08
1.96981e-06
-6.27303e-08
1.99008e-06
-6.0308e-08
2.00944e-06
-5.71568e-08
2.02758e-06
-5.29134e-08
2.04409e-06
-4.69871e-08
2.05835e-06
-3.84382e-08
2.06958e-06
-2.55069e-08
2.07693e-06
-5.34959e-09
2.08083e-06
2.75223e-08
8.54928e-08
2.08337e-06
9.37371e-08
-6.17109e-07
6.23951e-08
-5.14964e-07
1.39125e-08
-3.6947e-07
-4.31782e-08
-2.36724e-07
-1.12675e-07
-1.09991e-07
-1.98046e-07
1.23893e-08
-3.02277e-07
1.30696e-07
-4.27783e-07
2.44573e-07
-5.7714e-07
3.53758e-07
-7.53732e-07
4.58365e-07
-9.62316e-07
5.58977e-07
-1.20721e-06
6.56885e-07
-1.4872e-06
7.53294e-07
-1.79149e-06
8.47287e-07
-2.10137e-06
9.34515e-07
-2.39723e-06
1.00856e-06
-2.66457e-06
1.06365e-06
-2.89512e-06
1.09653e-06
-3.08562e-06
1.10665e-06
-3.23688e-06
1.09569e-06
-3.35326e-06
1.0667e-06
-3.44129e-06
1.02315e-06
-3.50811e-06
9.68823e-07
-3.56023e-06
9.07519e-07
-3.60313e-06
8.42451e-07
-3.64124e-06
7.7625e-07
-3.67781e-06
7.11029e-07
-3.71488e-06
6.48338e-07
-3.75344e-06
5.89178e-07
-3.79377e-06
5.3407e-07
-3.83568e-06
4.83169e-07
-3.87868e-06
4.36394e-07
-3.92213e-06
3.93514e-07
-3.96534e-06
3.54207e-07
-4.00766e-06
3.18112e-07
-4.04849e-06
2.84857e-07
-4.08734e-06
2.54087e-07
-4.12379e-06
2.25468e-07
-4.1575e-06
1.98703e-07
-4.18819e-06
1.73525e-07
-4.21563e-06
1.49707e-07
-4.23965e-06
1.27052e-07
-4.2601e-06
1.05393e-07
-4.27685e-06
8.45886e-08
-4.2898e-06
6.45198e-08
-4.29886e-06
4.50846e-08
-4.30396e-06
2.61969e-08
-4.30504e-06
7.7799e-09
-4.30209e-06
-1.02402e-08
-4.29512e-06
-2.79245e-08
-4.28421e-06
-4.53009e-08
-4.26941e-06
-6.23663e-08
-4.25077e-06
-7.9108e-08
-4.22832e-06
-9.55133e-08
-4.20213e-06
-1.11569e-07
-4.17227e-06
-1.2726e-07
-4.13879e-06
-1.42571e-07
-4.10179e-06
-1.57486e-07
-4.06135e-06
-1.71987e-07
-4.01757e-06
-1.86055e-07
-3.97055e-06
-1.99673e-07
-3.92039e-06
-2.12822e-07
-3.86721e-06
-2.25483e-07
-3.81112e-06
-2.37638e-07
-3.75225e-06
-2.49279e-07
-3.69071e-06
-2.6039e-07
-3.62664e-06
-2.70957e-07
-3.56017e-06
-2.8097e-07
-3.49143e-06
-2.90423e-07
-3.42056e-06
-2.99309e-07
-3.34768e-06
-3.07625e-07
-3.27294e-06
-3.15367e-07
-3.19648e-06
-3.22538e-07
-3.11842e-06
-3.29138e-07
-3.03891e-06
-3.35173e-07
-2.95808e-06
-3.40646e-07
-2.87607e-06
-3.45567e-07
-2.79299e-06
-3.49943e-07
-2.70899e-06
-3.53787e-07
-2.62419e-06
-3.57109e-07
-2.53871e-06
-3.59923e-07
-2.45267e-06
-3.62245e-07
-2.3662e-06
-3.64088e-07
-2.27939e-06
-3.65471e-07
-2.19238e-06
-3.6641e-07
-2.10525e-06
-3.66923e-07
-2.01813e-06
-3.67027e-07
-1.9311e-06
-3.66741e-07
-1.84428e-06
-3.66082e-07
-1.75775e-06
-3.65066e-07
-1.67162e-06
-3.63705e-07
-1.58596e-06
-3.62013e-07
-1.50087e-06
-3.59994e-07
-1.4164e-06
-3.57652e-07
-1.33261e-06
-3.54988e-07
-1.24954e-06
-3.52011e-07
-1.16722e-06
-3.48742e-07
-1.08569e-06
-3.45212e-07
-1.00499e-06
-3.41457e-07
-9.25187e-07
-3.37506e-07
-8.46321e-07
-3.33383e-07
-7.6844e-07
-3.29106e-07
-6.91582e-07
-3.24691e-07
-6.1578e-07
-3.20152e-07
-5.41063e-07
-3.15504e-07
-4.67455e-07
-3.10757e-07
-3.9498e-07
-3.05925e-07
-3.23656e-07
-3.01017e-07
-2.53495e-07
-2.96047e-07
-1.84507e-07
-2.91026e-07
-1.16703e-07
-2.85965e-07
-5.00906e-08
-2.80877e-07
1.53251e-08
-2.75772e-07
7.95393e-08
-2.7066e-07