/*--------------------------------*- C++ -*----------------------------------*\
  =========                 |
  \\      /  F ield         | OpenFOAM: The Open Source CFD Toolbox
   \\    /   O peration     | Website:  https://openfoam.org
    \\  /    A nd           | Version:  8
     \\/     M anipulation  |
\*---------------------------------------------------------------------------*/
FoamFile
{
    version     2.0;
    format      ascii;
    class       volScalarField;
    location    "1500";
    object      k;
}
// * * * * * * * * * * * * * * * * * * * * * * * * * * * * * * * * * * * * * //

dimensions      [0 2 -2 0 0 0 0];

internalField   nonuniform List<scalar> 
12225
(
0.516542
2.28502
2.01402
1.94017
1.85771
1.99923
1.46579
2.31221
2.91113
2.88913
2.21023
1.83541
1.85141
1.53695
1.78093
1.55064
1.86623
1.58653
0.337029
0.475082
0.546662
0.59459
0.655829
0.685197
0.644761
0.669049
0.712058
0.756786
0.796391
0.810771
0.822232
0.828693
0.855557
0.846798
0.862739
0.870217
0.3619
0.377793
0.390004
0.393554
0.397003
0.39353
0.38289
0.375432
0.368697
0.359613
0.359782
0.358993
0.354218
0.351434
0.349661
0.345825
0.351132
0.352342
0.369679
0.370437
0.371827
0.370597
0.366786
0.362493
0.356824
0.352056
0.345028
0.337276
0.329027
0.320362
0.312719
0.304556
0.29903
0.292612
0.288889
0.28437
0.372488
0.370691
0.369401
0.367356
0.363914
0.360714
0.356931
0.353864
0.349328
0.344411
0.338368
0.332299
0.326248
0.320393
0.315877
0.310625
0.307681
0.303402
0.373348
0.371056
0.368866
0.366773
0.363935
0.361409
0.358602
0.356161
0.353116
0.349713
0.345808
0.341745
0.33767
0.333896
0.330627
0.327205
0.325226
0.321571
0.373575
0.371172
0.368755
0.366597
0.364165
0.361951
0.359674
0.357537
0.355237
0.352698
0.349982
0.347154
0.344328
0.341733
0.339364
0.337129
0.335506
0.333495
0.37363
0.371167
0.368727
0.366513
0.364244
0.362136
0.360069
0.358082
0.356081
0.353963
0.351784
0.349559
0.347359
0.345299
0.343406
0.34163
0.340185
0.338668
0.373653
0.371138
0.368704
0.366452
0.364251
0.362181
0.360201
0.358297
0.356443
0.354563
0.352682
0.350802
0.348965
0.347214
0.345589
0.344056
0.342714
0.341397
0.373663
0.371119
0.368689
0.366411
0.364232
0.362171
0.360217
0.358352
0.356567
0.354819
0.353114
0.351448
0.349834
0.348287
0.346831
0.345449
0.34418
0.342963
0.373669
0.371103
0.368674
0.366381
0.364204
0.362141
0.360187
0.358331
0.356565
0.35487
0.353244
0.351678
0.350177
0.348739
0.347375
0.346076
0.344853
0.343687
0.373668
0.371096
0.368663
0.366361
0.36418
0.362112
0.360152
0.358291
0.356524
0.354841
0.353237
0.351706
0.350244
0.348851
0.347522
0.346258
0.345054
0.34391
0.373668
0.371092
0.368654
0.366347
0.364161
0.362088
0.360122
0.358256
0.356483
0.354798
0.353194
0.351669
0.350214
0.34883
0.347509
0.346253
0.345053
0.34391
0.373667
0.371088
0.368648
0.366336
0.364146
0.362069
0.360099
0.358228
0.356451
0.354761
0.353154
0.351625
0.350169
0.348782
0.347461
0.346201
0.345001
0.343855
0.373666
0.371086
0.368643
0.366329
0.364135
0.362056
0.360081
0.358207
0.356426
0.354733
0.353122
0.35159
0.350131
0.348741
0.347416
0.346154
0.34495
0.343802
0.373666
0.371084
0.36864
0.366324
0.364128
0.362046
0.360069
0.358193
0.356409
0.354713
0.3531
0.351565
0.350103
0.348711
0.347384
0.346119
0.344912
0.343763
0.373665
0.371084
0.368639
0.366322
0.364125
0.362041
0.360063
0.358185
0.3564
0.354702
0.353087
0.351551
0.350087
0.348693
0.347365
0.346099
0.344891
0.343739
0.373665
0.371085
0.368639
0.366322
0.364123
0.36204
0.36006
0.358182
0.356395
0.354698
0.353081
0.351545
0.350079
0.348685
0.347355
0.346089
0.344879
0.343727
0.373666
0.371085
0.36864
0.366322
0.364126
0.36204
0.360063
0.358182
0.356398
0.354698
0.353083
0.351544
0.350081
0.348685
0.347356
0.346088
0.34488
0.343726
0.373666
0.371086
0.368642
0.366325
0.364129
0.362046
0.360068
0.35819
0.356405
0.354708
0.353092
0.351556
0.350092
0.348698
0.347368
0.346102
0.344894
0.343742
0.373666
0.371087
0.368644
0.36633
0.364136
0.362054
0.360079
0.358202
0.356419
0.354724
0.35311
0.351575
0.350113
0.34872
0.347392
0.346127
0.34492
0.343769
0.373667
0.371089
0.368649
0.366337
0.364145
0.362067
0.360095
0.358221
0.356442
0.354748
0.353137
0.351602
0.350141
0.348748
0.347422
0.346157
0.344953
0.343804
0.373667
0.371094
0.368655
0.366347
0.36416
0.362087
0.360123
0.358257
0.356479
0.354783
0.353163
0.351621
0.350148
0.34875
0.347416
0.346153
0.344945
0.3438
0.37367
0.371101
0.368662
0.366361
0.364188
0.362138
0.360196
0.358336
0.356544
0.354812
0.35314
0.351543
0.350016
0.348576
0.347209
0.345926
0.344696
0.343544
0.37368
0.371114
0.368665
0.366411
0.3643
0.362326
0.360431
0.358546
0.356657
0.354767
0.352899
0.351119
0.349412
0.347843
0.346366
0.345018
0.343718
0.342538
0.373718
0.371157
0.36874
0.366716
0.3648
0.363034
0.361189
0.359156
0.356935
0.354602
0.35223
0.349995
0.347854
0.345989
0.344259
0.342759
0.341332
0.340043
0.373852
0.371636
0.369668
0.368374
0.366942
0.365616
0.36379
0.361471
0.358402
0.355146
0.351657
0.348506
0.345511
0.343048
0.340908
0.339098
0.337479
0.335967
0.374886
0.375882
0.376591
0.377529
0.377649
0.377201
0.376553
0.37413
0.369774
0.365234
0.360289
0.356332
0.352639
0.349915
0.348349
0.346358
0.345327
0.344322
0.387712
0.411755
0.432975
0.454077
0.473616
0.489027
0.500568
0.509757
0.517168
0.523663
0.53096
0.538848
0.54887
0.559235
0.571715
0.584196
0.598604
0.610736
0.798597
1.11466
1.34547
1.48012
1.55186
1.56821
1.56211
1.54465
1.51491
1.48186
1.44848
1.4163
1.38628
1.35879
1.33393
1.31161
1.29162
1.27398
1.88317e-08
4.65024e-07
2.36606e-06
9.28029e-06
3.08854e-05
9.30765e-05
0.00024259
0.000481201
0.000778881
0.0010929
0.0013746
0.00159382
0.00174036
0.00179569
0.0017727
0.00170068
0.00156502
0.00133536
0.00113941
0.000969645
0.000807868
0.000650027
0.000497318
0.000355546
0.000229993
0.000133559
7.03844e-05
3.53234e-05
1.80031e-05
9.85133e-06
6.05215e-06
4.68888e-06
6.02979e-06
1.32315e-05
3.35943e-05
0.000189144
0.000398835
0.000822526
0.00118805
0.0012398
0.00113206
0.000894404
0.000746558
0.000742501
0.000819501
0.00112571
0.00154336
0.00317115
0.00728093
0.0227137
0.0577512
0.0999825
0.1334
0.148534
0.159011
0.167254
0.166412
0.168707
0.148912
0.137937
0.153198
0.152871
0.159732
0.174702
0.181115
0.190845
0.198958
0.207405
0.215446
0.223496
0.231297
0.239085
0.24669
0.254266
0.261704
0.269101
0.276386
0.283621
0.290756
0.297833
0.304816
0.311734
0.318558
0.325308
0.33196
0.33853
0.344994
0.351365
0.357622
0.363771
0.369796
0.375687
0.381433
0.387022
0.392445
0.397689
0.402749
0.407627
0.412335
0.416918
0.42144
0.425765
0.429956
0.433995
0.437879
0.441611
0.445178
0.448586
0.451826
0.454898
0.457798
0.460525
0.463078
0.465452
0.467652
0.46967
0.471515
0.473175
0.474663
0.475965
0.477098
0.478046
0.478827
0.479424
0.479856
0.480107
0.480192
0.480142
0.479964
0.479689
0.478978
0.478463
0.477446
0.476562
0.475537
0.474404
0.473073
0.47148
0.469787
0.467927
0.465944
0.463829
0.461587
0.459234
0.456764
0.454198
0.451528
0.448786
0.445988
0.443064
0.440131
0.437046
0.433978
0.430751
0.427543
0.424251
0.420946
0.417611
0.414262
0.410906
0.407547
0.404192
0.400843
0.397506
0.394184
0.390885
0.387617
0.384386
0.381202
0.378067
0.374984
0.371944
0.368942
0.365941
0.362903
0.359735
0.356325
0.352339
0.347164
0.331088
8.68954e-08
2.46654e-06
1.65615e-05
7.07208e-05
0.000264695
0.000746156
0.0017363
0.00314548
0.0047844
0.00647113
0.00801324
0.00928495
0.010218
0.0108235
0.0110915
0.0110522
0.0108693
0.0105263
0.00992417
0.00909609
0.0080485
0.00683236
0.00550683
0.00416373
0.00287651
0.0018951
0.0011967
0.000736735
0.000445457
0.000272075
0.000175415
0.000129736
0.000114495
0.000193039
0.000314572
0.00194293
0.00398023
0.00771271
0.0107721
0.0122494
0.0121159
0.011559
0.011587
0.0130694
0.0171495
0.0232228
0.0342161
0.0529293
0.0792854
0.105076
0.1306
0.150333
0.165112
0.178346
0.193283
0.209402
0.221707
0.239097
0.254586
0.273869
0.293936
0.313619
0.332795
0.353257
0.372199
0.391393
0.410132
0.428663
0.446968
0.465092
0.483046
0.500874
0.518579
0.536192
0.553714
0.571164
0.588537
0.605847
0.623085
0.640258
0.657354
0.674377
0.691314
0.708165
0.724914
0.741561
0.758089
0.774494
0.790761
0.806882
0.82284
0.838613
0.854181
0.869521
0.884609
0.899415
0.913909
0.928054
0.941815
0.955152
0.968057
0.980764
0.993163
1.0053
1.01713
1.02867
1.03988
1.05077
1.06133
1.07154
1.08138
1.09087
1.09997
1.1087
1.11703
1.12497
1.1325
1.13963
1.14634
1.15264
1.15851
1.16397
1.16899
1.17359
1.17776
1.1815
1.18482
1.18771
1.19017
1.19222
1.19384
1.19505
1.1957
1.19613
1.1963
1.19624
1.19582
1.19531
1.19435
1.193
1.19128
1.18918
1.18672
1.1839
1.18074
1.17726
1.17345
1.16936
1.16497
1.16033
1.15536
1.15017
1.14465
1.13892
1.13291
1.1267
1.1203
1.11372
1.10698
1.10011
1.09312
1.08601
1.07881
1.07151
1.06413
1.05669
1.04919
1.04166
1.03412
1.02657
1.01902
1.01148
1.00391
0.996272
0.988502
0.980481
0.971997
0.962721
0.950735
0.923599
2.08867e-07
6.19953e-06
4.70876e-05
0.000214307
0.000835885
0.00201956
0.00411221
0.00653404
0.00895917
0.0111573
0.0129919
0.0144041
0.015393
0.0159863
0.016233
0.0161932
0.016006
0.0156393
0.015092
0.0144092
0.0135848
0.0126123
0.0114709
0.0101716
0.00871284
0.00706336
0.00537057
0.00386893
0.0025747
0.00170926
0.00117633
0.000889117
0.000670769
0.00110853
0.00203261
0.00753795
0.0157413
0.0240615
0.0299687
0.0332234
0.0344733
0.0372747
0.0455041
0.0614623
0.0790456
0.0975802
0.11845
0.139801
0.159862
0.181104
0.201773
0.222945
0.245412
0.270202
0.297417
0.324999
0.352837
0.382706
0.411062
0.440032
0.468356
0.496234
0.52344
0.55008
0.576033
0.601502
0.626489
0.651094
0.675369
0.69937
0.723141
0.746721
0.770139
0.793418
0.816572
0.839614
0.86255
0.885382
0.90811
0.930732
0.953241
0.975633
0.997899
1.02003
1.04202
1.06385
1.08551
1.10699
1.12828
1.14936
1.17023
1.19086
1.21124
1.23134
1.25117
1.27069
1.28991
1.30882
1.3274
1.34565
1.36359
1.38118
1.3984
1.41524
1.43168
1.4477
1.46328
1.47842
1.49309
1.50729
1.52099
1.53419
1.54687
1.55902
1.57064
1.58171
1.59223
1.60219
1.61158
1.6204
1.62864
1.6363
1.64338
1.64988
1.65579
1.66113
1.66588
1.67005
1.67364
1.67666
1.67911
1.681
1.68229
1.68304
1.68335
1.68325
1.68257
1.68142
1.67974
1.67753
1.67481
1.67157
1.66783
1.6636
1.65889
1.65372
1.64811
1.64207
1.63561
1.62877
1.6215
1.61389
1.60586
1.5975
1.58878
1.57976
1.57046
1.56089
1.5511
1.54111
1.53094
1.5206
1.51012
1.49951
1.48878
1.47794
1.46703
1.45606
1.44507
1.43406
1.42307
1.41208
1.40109
1.39008
1.37899
1.36775
1.35618
1.34404
1.32941
1.30415
8.14066e-07
2.44712e-05
0.000192761
0.000769522
0.0023176
0.00539222
0.00906779
0.012638
0.0157352
0.0181844
0.0199504
0.0210718
0.021661
0.0217673
0.0216341
0.0212756
0.0207028
0.0200137
0.0192396
0.0183954
0.0174828
0.0164975
0.0154217
0.0142346
0.0129179
0.01145
0.00985396
0.00819656
0.00664262
0.00513029
0.00401237
0.00300593
0.00320687
0.00516843
0.0129451
0.0283342
0.0424566
0.0534847
0.0618806
0.0699727
0.0803424
0.0938714
0.109566
0.125114
0.14128
0.158876
0.179224
0.200755
0.224234
0.249938
0.277302
0.30678
0.338029
0.370777
0.404349
0.43819
0.472099
0.506089
0.539451
0.572486
0.604879
0.636706
0.667905
0.698518
0.728599
0.758216
0.787433
0.816315
0.844913
0.873276
0.901444
0.92945
0.957318
0.985066
1.01271
1.04024
1.06768
1.09502
1.12225
1.14938
1.17638
1.20325
1.22998
1.25655
1.28296
1.30918
1.33521
1.36103
1.38663
1.41199
1.4371
1.46195
1.48651
1.51077
1.53473
1.55836
1.58167
1.60462
1.62721
1.64943
1.67124
1.69263
1.71357
1.73404
1.75402
1.77349
1.79243
1.81082
1.82864
1.84587
1.86249
1.8785
1.89388
1.90861
1.92267
1.93607
1.94879
1.96082
1.97216
1.98279
1.99272
2.00194
2.01045
2.01824
2.02532
2.03169
2.03734
2.04229
2.04653
2.05007
2.05292
2.05507
2.0565
2.05721
2.0574
2.05697
2.05584
2.05408
2.05169
2.04865
2.04499
2.0407
2.03581
2.03031
2.02424
2.0176
2.01041
2.0027
1.99447
1.98576
1.97656
1.9669
1.95677
1.94622
1.93524
1.92388
1.91218
1.90015
1.88784
1.87528
1.86249
1.84951
1.83634
1.82301
1.80953
1.79592
1.78222
1.76845
1.75464
1.74082
1.72701
1.71323
1.69949
1.68578
1.67208
1.65836
1.6445
1.63033
1.61423
1.59082
2.74105e-06
8.21553e-05
0.000610798
0.0023677
0.00643716
0.0119405
0.0170462
0.0211221
0.0240112
0.0258163
0.0267517
0.0270147
0.0268677
0.0264251
0.0257151
0.024879
0.02397
0.0230255
0.0220679
0.0211048
0.0201322
0.0191404
0.0181105
0.0170193
0.015841
0.0145471
0.013139
0.0116689
0.0102346
0.0087514
0.00739119
0.00790687
0.0123985
0.0257318
0.0465795
0.0659749
0.0818074
0.0941446
0.104774
0.115505
0.127114
0.13977
0.153443
0.169174
0.18801
0.209686
0.234145
0.261165
0.290446
0.321689
0.354488
0.38866
0.423794
0.45958
0.495691
0.531946
0.568174
0.604283
0.640088
0.675585
0.710668
0.745343
0.779588
0.813428
0.846899
0.880039
0.912893
0.945506
0.977918
1.01016
1.04228
1.07428
1.10619
1.13802
1.16978
1.20146
1.23306
1.26458
1.29601
1.32733
1.35853
1.3896
1.42052
1.45127
1.48184
1.51222
1.54237
1.5723
1.60197
1.63138
1.66052
1.68935
1.71787
1.74606
1.7739
1.80138
1.82847
1.85516
1.88143
1.90725
1.93259
1.95744
1.98176
2.00553
2.02873
2.05134
2.07332
2.09466
2.11533
2.13531
2.15459
2.17315
2.19096
2.20801
2.22429
2.23979
2.25448
2.26837
2.28145
2.2937
2.30513
2.31572
2.32548
2.3344
2.34248
2.34973
2.35615
2.36173
2.36649
2.37042
2.37354
2.37585
2.37729
2.37789
2.37789
2.37708
2.37549
2.37314
2.37005
2.36622
2.36166
2.35638
2.35039
2.3437
2.33635
2.32833
2.31969
2.31042
2.30056
2.29013
2.27913
2.2676
2.25553
2.24297
2.22992
2.21644
2.20254
2.18827
2.17367
2.15877
2.1436
2.12819
2.11258
2.09677
2.08079
2.06467
2.04842
2.0321
2.01573
1.99935
1.983
1.96669
1.95045
1.9343
1.91825
1.9023
1.88638
1.8704
1.85298
1.83022
8.76957e-06
0.000256433
0.00182889
0.00645959
0.0144568
0.0214516
0.0264139
0.0294647
0.0310555
0.0316473
0.0315727
0.031132
0.0302974
0.0292815
0.0281681
0.0270204
0.025882
0.0247791
0.0237235
0.0227141
0.0217407
0.0207868
0.0198272
0.0188313
0.017769
0.0165759
0.0151939
0.0135941
0.0121286
0.0121787
0.0146727
0.0238633
0.0428712
0.0671438
0.0896607
0.107689
0.120843
0.130651
0.139414
0.14879
0.159623
0.173404
0.19049
0.210822
0.234598
0.261389
0.290671
0.321921
0.354694
0.388702
0.423676
0.459436
0.49579
0.532593
0.569721
0.607089
0.644593
0.682154
0.71968
0.75711
0.794382
0.831471
0.868357
0.905039
0.941529
0.977846
1.01401
1.05006
1.08601
1.1219
1.15773
1.19353
1.2293
1.26506
1.30079
1.33649
1.37215
1.40776
1.44329
1.47874
1.51408
1.54928
1.58434
1.61922
1.65392
1.6884
1.72264
1.75663
1.79035
1.82377
1.85689
1.88967
1.9221
1.95416
1.98582
2.01707
2.04788
2.07822
2.10808
2.13741
2.16621
2.19443
2.22205
2.24905
2.2754
2.30107
2.32602
2.35025
2.37371
2.39638
2.41825
2.43929
2.45947
2.47879
2.49722
2.51476
2.53138
2.54707
2.56182
2.57564
2.5885
2.60041
2.61136
2.62135
2.63039
2.63846
2.64558
2.65175
2.65697
2.66124
2.66458
2.66699
2.66838
2.66888
2.66861
2.66743
2.66535
2.66241
2.65862
2.65399
2.64854
2.64227
2.6352
2.62734
2.61873
2.60937
2.5993
2.58852
2.57707
2.56496
2.55223
2.53888
2.52495
2.51044
2.4954
2.47986
2.46385
2.44742
2.43061
2.41346
2.39601
2.37828
2.36032
2.34213
2.32375
2.3052
2.28652
2.26775
2.24892
2.23009
2.21128
2.19255
2.17392
2.15542
2.13709
2.11897
2.10103
2.08321
2.06434
2.04129
2.81666e-05
0.000770234
0.00495511
0.0150779
0.0246193
0.030698
0.0340348
0.0356031
0.0360426
0.0357962
0.0350447
0.0339042
0.0325676
0.0311399
0.0297019
0.0283107
0.0270021
0.0257927
0.0246835
0.0236628
0.0227119
0.0218019
0.0208984
0.0199553
0.0190192
0.0181743
0.0176097
0.0178259
0.0200547
0.0265757
0.040463
0.0625633
0.0868183
0.109212
0.126909
0.139215
0.147806
0.155161
0.163277
0.174345
0.188971
0.20722
0.229117
0.254319
0.282376
0.312577
0.344356
0.377329
0.41126
0.446006
0.481455
0.517536
0.554184
0.591351
0.62899
0.667052
0.705469
0.744166
0.783077
0.82214
0.861298
0.90051
0.939748
0.978992
1.01824
1.05748
1.09674
1.13603
1.17535
1.21472
1.25416
1.29366
1.33323
1.37285
1.41253
1.45224
1.49196
1.53167
1.57134
1.61095
1.65046
1.68985
1.7291
1.76817
1.80704
1.84568
1.88407
1.92219
1.96
1.99749
2.03463
2.0714
2.10778
2.14374
2.17926
2.21431
2.24885
2.28288
2.31635
2.34923
2.3815
2.41313
2.44408
2.47433
2.50384
2.53259
2.56054
2.58766
2.61393
2.6393
2.66377
2.68729
2.70986
2.73145
2.75203
2.7716
2.79013
2.80761
2.82403
2.83939
2.85367
2.86688
2.879
2.89004
2.9
2.90887
2.91666
2.92337
2.92901
2.93359
2.93711
2.93958
2.9409
2.94127
2.94069
2.9391
2.93651
2.93295
2.92845
2.923
2.91663
2.90935
2.90119
2.89215
2.88227
2.87156
2.86005
2.84775
2.83471
2.82094
2.80647
2.79132
2.77552
2.75909
2.74206
2.72448
2.70639
2.68783
2.66884
2.64947
2.62976
2.60974
2.58946
2.56893
2.54818
2.52724
2.50616
2.48497
2.46372
2.44246
2.42125
2.40011
2.37911
2.35828
2.33768
2.31736
2.29735
2.27758
2.25705
2.23305
8.47227e-05
0.00212153
0.011729
0.0253016
0.0335914
0.0379522
0.0399859
0.0405689
0.0402509
0.0392801
0.0378339
0.0361407
0.0343394
0.0325391
0.0308198
0.0292335
0.027806
0.0265413
0.0254283
0.0244462
0.0235696
0.0227708
0.0219806
0.0212563
0.0207392
0.0209616
0.022982
0.0285835
0.0402765
0.0585965
0.0805968
0.102687
0.12278
0.138808
0.150074
0.157937
0.164967
0.173686
0.185492
0.201009
0.220303
0.243089
0.268947
0.297259
0.327409
0.358847
0.391247
0.424444
0.458361
0.492966
0.528244
0.564193
0.600814
0.638103
0.67604
0.714587
0.753699
0.793321
0.833397
0.873868
0.91468
0.955785
0.997147
1.03874
1.08054
1.12253
1.16473
1.20711
1.2497
1.29248
1.33547
1.37864
1.422
1.46551
1.50917
1.55294
1.59679
1.64068
1.68458
1.72844
1.77222
1.8159
1.85943
1.90279
1.94594
1.98885
2.03149
2.07383
2.11583
2.15747
2.19873
2.23958
2.27998
2.31992
2.35936
2.39827
2.43663
2.47439
2.51154
2.54803
2.58383
2.61892
2.65325
2.68679
2.71951
2.75138
2.78235
2.8124
2.84149
2.86959
2.89667
2.9227
2.94765
2.97151
2.99424
3.01584
3.03627
3.05553
3.07361
3.09048
3.10616
3.12063
3.13389
3.14594
3.15678
3.16641
3.17483
3.18205
3.18807
3.1929
3.19655
3.19903
3.20024
3.20042
3.1995
3.19745
3.19431
3.19009
3.18482
3.17852
3.1712
3.16288
3.15358
3.14333
3.13214
3.12005
3.10708
3.09325
3.0786
3.06314
3.04692
3.02996
3.01228
2.99391
2.97489
2.95527
2.93509
2.91441
2.89325
2.87167
2.84972
2.82742
2.80482
2.78196
2.75885
2.73553
2.71205
2.68846
2.66481
2.64114
2.61751
2.59399
2.57061
2.54743
2.52453
2.50198
2.4798
2.45798
2.43557
2.41013
0.000220206
0.0050077
0.021327
0.0344214
0.0411258
0.0442643
0.0453619
0.0451768
0.0441493
0.0424802
0.040453
0.0382523
0.0360306
0.0339077
0.0319678
0.0302616
0.0288128
0.0276249
0.0266903
0.0259863
0.0255425
0.0254498
0.0258376
0.0270317
0.0295625
0.0344247
0.0433562
0.0573001
0.0746483
0.0938338
0.112969
0.130121
0.144098
0.154708
0.163022
0.171053
0.18083
0.193634
0.210015
0.229932
0.253036
0.27882
0.306729
0.336197
0.36677
0.398156
0.430232
0.462969
0.496381
0.530497
0.565357
0.600997
0.637447
0.674716
0.712801
0.751686
0.791343
0.831731
0.872802
0.914506
0.956793
0.999615
1.04293
1.08671
1.13092
1.17555
1.22058
1.266
1.3118
1.35797
1.4045
1.45137
1.49855
1.54602
1.59374
1.64167
1.68975
1.73794
1.78618
1.83441
1.8826
1.93069
1.97864
2.02641
2.07396
2.12125
2.16824
2.2149
2.2612
2.30709
2.35256
2.39757
2.44209
2.48608
2.52952
2.57236
2.61459
2.65616
2.69703
2.73718
2.77655
2.81513
2.85286
2.88972
2.92567
2.96066
2.99467
3.02764
3.05956
3.09037
3.12005
3.14856
3.17587
3.20197
3.22682
3.2504
3.2727
3.29369
3.31336
3.33171
3.34872
3.3644
3.37873
3.39173
3.40339
3.4137
3.42268
3.43033
3.43665
3.44166
3.44538
3.44778
3.44884
3.44874
3.4474
3.44484
3.44107
3.43613
3.43004
3.42282
3.41449
3.40507
3.39459
3.38308
3.37055
3.35704
3.34257
3.32718
3.31089
3.29373
3.27573
3.25693
3.23736
3.21704
3.19602
3.17436
3.15209
3.12927
3.10595
3.08218
3.05798
3.03342
3.00852
2.98333
2.95786
2.93218
2.90632
2.88033
2.85428
2.82821
2.80218
2.77626
2.7505
2.72496
2.69973
2.67489
2.65048
2.6265
2.60207
2.5749
0.000489716
0.0100934
0.0309718
0.0425954
0.0480384
0.0502975
0.0506754
0.0498355
0.0481292
0.0458739
0.0433159
0.0406678
0.038106
0.0357662
0.0337416
0.0320875
0.0308289
0.0299427
0.0295003
0.0293854
0.029813
0.0310839
0.0338258
0.0387884
0.046686
0.0578029
0.0715704
0.0869653
0.103223
0.119136
0.133561
0.145855
0.156128
0.165194
0.174499
0.185537
0.199375
0.216413
0.236573
0.259498
0.28472
0.311751
0.340136
0.369499
0.399593
0.430309
0.461639
0.493622
0.526319
0.5598
0.594131
0.629365
0.66554
0.702688
0.740823
0.779942
0.820034
0.861071
0.903018
0.945835
0.989478
1.0339
1.07908
1.12495
1.17151
1.21871
1.26654
1.31498
1.36401
1.4136
1.46373
1.51437
1.56548
1.617
1.6689
1.7211
1.77354
1.82616
1.87887
1.93162
1.98434
2.03697
2.08945
2.14175
2.19381
2.24559
2.29704
2.34812
2.39879
2.44901
2.49876
2.548
2.59669
2.64479
2.69227
2.73909
2.78522
2.83061
2.87523
2.91903
2.96198
3.00404
3.04516
3.08531
3.12445
3.16253
3.19952
3.23537
3.27005
3.30351
3.33572
3.36664
3.39624
3.4245
3.45138
3.47686
3.50092
3.52354
3.54471
3.56442
3.58266
3.59943
3.61473
3.62856
3.64093
3.65182
3.66125
3.66921
3.67573
3.68081
3.68448
3.68671
3.68752
3.68703
3.68518
3.68201
3.67753
3.67178
3.66479
3.65657
3.64716
3.63658
3.62485
3.61201
3.59809
3.58311
3.5671
3.55011
3.53214
3.51325
3.49345
3.47279
3.4513
3.42902
3.40599
3.38227
3.35792
3.33299
3.30751
3.28155
3.25513
3.22831
3.20113
3.17362
3.14582
3.11778
3.08955
3.06119
3.03276
3.0043
2.97589
2.94757
2.91943
2.89152
2.86394
2.83677
2.81008
2.78387
2.75732
2.72849
0.00092873
0.0173098
0.0393453
0.0499933
0.0547464
0.0564292
0.0562727
0.0548643
0.0526222
0.0498785
0.0469174
0.0439838
0.041281
0.0389632
0.0371437
0.0359015
0.0353414
0.035303
0.0359992
0.0376571
0.040607
0.0451938
0.051669
0.0601904
0.0706679
0.0827954
0.0959907
0.109507
0.12267
0.134929
0.146045
0.156179
0.165998
0.176522
0.188774
0.203468
0.220887
0.240934
0.2633
0.287595
0.313425
0.340438
0.368342
0.396936
0.42612
0.455884
0.486277
0.517378
0.549275
0.582056
0.615798
0.650565
0.686416
0.723391
0.761522
0.800823
0.841295
0.882926
0.925697
0.969579
1.01454
1.06054
1.10755
1.15552
1.20444
1.25425
1.30494
1.35647
1.4088
1.46192
1.51577
1.57031
1.62547
1.68118
1.73739
1.794
1.85093
1.90811
1.96544
2.02282
2.08019
2.13747
2.19459
2.25151
2.30816
2.3645
2.42048
2.47604
2.53113
2.58572
2.63977
2.69325
2.74612
2.79832
2.84983
2.9006
2.95059
2.99976
3.04807
3.09547
3.14192
3.18738
3.23179
3.27513
3.31734
3.35839
3.39824
3.43684
3.47414
3.51011
3.5447
3.57787
3.6096
3.63985
3.6686
3.69581
3.72147
3.74555
3.76804
3.78894
3.80823
3.82592
3.84202
3.85651
3.8694
3.88071
3.89042
3.89854
3.9051
3.9101
3.91356
3.91548
3.91591
3.91489
3.91241
3.9085
3.9032
3.89654
3.88854
3.87923
3.86865
3.85682
3.84377
3.82953
3.81415
3.79765
3.78006
3.76142
3.74175
3.7211
3.69949
3.67695
3.65353
3.62927
3.60424
3.57848
3.55206
3.52503
3.49743
3.46931
3.4407
3.41166
3.38223
3.35243
3.32233
3.29197
3.26142
3.23073
3.19995
3.16914
3.13837
3.1077
3.07719
3.04692
3.01699
2.98748
2.95847
2.93
2.90128
2.87061
0.00147961
0.0246743
0.0473169
0.0574717
0.0617551
0.063
0.062423
0.0605767
0.0579367
0.0548937
0.0517813
0.0488781
0.0464157
0.0445702
0.0435834
0.0433345
0.0439123
0.0454336
0.0480421
0.0518874
0.0570955
0.0637324
0.0717705
0.0810859
0.0914321
0.102435
0.113674
0.124782
0.135553
0.145939
0.156145
0.166686
0.178244
0.191444
0.206714
0.224208
0.243833
0.265348
0.288451
0.312848
0.338278
0.36453
0.39145
0.418957
0.447036
0.475731
0.505123
0.535311
0.566396
0.598471
0.631626
0.66594
0.701482
0.738307
0.77646
0.81597
0.856856
0.899121
0.942765
0.987773
1.03412
1.08179
1.13073
1.18092
1.23231
1.28487
1.33856
1.39334
1.44917
1.50599
1.56375
1.62237
1.68177
1.74186
1.80253
1.86371
1.92528
1.98714
2.04919
2.1113
2.1734
2.2354
2.29722
2.3588
2.42008
2.48099
2.54148
2.60148
2.66095
2.71985
2.77814
2.83579
2.89275
2.94897
3.00439
3.05899
3.11271
3.16551
3.21734
3.26817
3.31794
3.3666
3.41411
3.46041
3.50548
3.54927
3.59174
3.63284
3.67252
3.71073
3.74744
3.78261
3.8162
3.84819
3.87853
3.90721
3.9342
3.95948
3.98303
4.00485
4.02494
4.04329
4.05992
4.07483
4.08802
4.09949
4.10925
4.11731
4.12369
4.1284
4.13145
4.13288
4.13273
4.13104
4.12775
4.12296
4.11669
4.10898
4.09985
4.08934
4.07748
4.0643
4.04985
4.03414
4.01723
3.99915
3.97993
3.95961
3.93822
3.9158
3.89237
3.86795
3.8426
3.81639
3.78937
3.76161
3.73316
3.70407
3.6744
3.64418
3.61345
3.58226
3.55063
3.51861
3.48627
3.45367
3.42086
3.38791
3.35486
3.32177
3.28871
3.25573
3.22291
3.19032
3.15807
3.12625
3.09494
3.06419
3.03328
3.00073
0.0022027
0.0313559
0.0547743
0.0649544
0.069068
0.0700769
0.0691977
0.0670269
0.0641504
0.061052
0.0581213
0.0556538
0.0538839
0.0530691
0.0529881
0.0539124
0.0558324
0.0587925
0.0628255
0.0679398
0.0741143
0.0812799
0.0893148
0.0980542
0.107302
0.116874
0.126633
0.136509
0.146558
0.156994
0.168165
0.180482
0.194287
0.209799
0.227072
0.246024
0.266474
0.288212
0.311026
0.33474
0.359208
0.384331
0.410051
0.436361
0.463299
0.490941
0.51938
0.548723
0.579078
0.610547
0.64323
0.677215
0.712585
0.74941
0.787744
0.827628
0.8691
0.912183
0.956891
1.00322
1.05117
1.10072
1.15184
1.2045
1.25865
1.31426
1.37126
1.42961
1.48924
1.55008
1.61205
1.67504
1.73893
1.8036
1.86891
1.93477
2.00105
2.06764
2.13442
2.20126
2.26807
2.33476
2.40123
2.46742
2.53325
2.59865
2.66352
2.72782
2.7915
2.85453
2.91688
2.97849
3.03932
3.09931
3.1584
3.21655
3.27372
3.32985
3.38491
3.43884
3.49159
3.54311
3.59335
3.64227
3.68982
3.73597
3.78067
3.82387
3.86553
3.9056
3.94403
3.9808
4.01585
4.04918
4.08073
4.1105
4.13844
4.16454
4.18878
4.21115
4.23168
4.25035
4.26717
4.28216
4.29531
4.30663
4.31614
4.32384
4.32975
4.3339
4.3363
4.33699
4.33606
4.33345
4.32917
4.32331
4.3159
4.30698
4.29658
4.28473
4.27147
4.25685
4.24089
4.22364
4.20513
4.18541
4.16452
4.14249
4.11937
4.09517
4.06994
4.04366
4.01641
3.98829
3.95934
3.92964
3.89923
3.86818
3.83652
3.80429
3.77154
3.73828
3.70456
3.67042
3.63595
3.60121
3.56626
3.53116
3.49595
3.4607
3.42545
3.39026
3.35521
3.32038
3.28589
3.25183
3.21827
3.1853
3.15224
3.11785
0.00305351
0.0373854
0.0623006
0.0726821
0.0766968
0.0775336
0.0764142
0.0739909
0.0709647
0.0679943
0.0655518
0.0639112
0.0631855
0.0631339
0.0640996
0.0660503
0.0689369
0.0727257
0.0773853
0.0828716
0.0891228
0.0960612
0.103603
0.111673
0.120214
0.129193
0.138626
0.148612
0.159312
0.170931
0.183679
0.197725
0.213148
0.229946
0.24804
0.267307
0.287603
0.308795
0.330766
0.353432
0.376737
0.40066
0.42521
0.450427
0.476378
0.503158
0.530871
0.559624
0.58952
0.620667
0.653172
0.687132
0.722642
0.759781
0.798622
0.839229
0.881657
0.925949
0.972137
1.02024
1.07025
1.12217
1.17596
1.23161
1.28905
1.34824
1.40909
1.47152
1.53544
1.60073
1.66728
1.73495
1.80357
1.87297
1.94299
2.01351
2.0844
2.15558
2.22693
2.29832
2.36965
2.44082
2.51174
2.58233
2.65249
2.7221
2.79104
2.85931
2.92687
2.99367
3.05969
3.12487
3.18915
3.25247
3.31478
3.37602
3.43614
3.49511
3.55286
3.60936
3.66456
3.71838
3.7708
3.82175
3.87121
3.91914
3.96549
4.01023
4.05329
4.09463
4.13422
4.17201
4.20797
4.24207
4.2743
4.30461
4.33299
4.35941
4.38386
4.40633
4.42684
4.44538
4.46196
4.4766
4.48929
4.50006
4.5089
4.51585
4.52093
4.52418
4.5256
4.5253
4.52332
4.5195
4.514
4.50686
4.49811
4.4878
4.47596
4.46263
4.44785
4.43166
4.41411
4.39523
4.37507
4.35366
4.33106
4.30731
4.28245
4.25651
4.22952
4.20142
4.17235
4.1424
4.11162
4.08008
4.04783
4.01492
3.98139
3.94729
3.91265
3.87748
3.84179
3.80568
3.76924
3.73252
3.69559
3.6585
3.62129
3.58403
3.54674
3.50948
3.47234
3.43542
3.39881
3.36263
3.32693
3.29184
3.25671
3.22059
0.00397306
0.0436498
0.0696833
0.0803538
0.0843425
0.0850385
0.083557
0.0808264
0.0778554
0.0753421
0.0736922
0.0729819
0.0729071
0.073692
0.0754132
0.078007
0.081407
0.0855586
0.0904201
0.0959533
0.102125
0.108914
0.116302
0.124288
0.132892
0.142167
0.152194
0.163068
0.174896
0.187772
0.201743
0.216826
0.232984
0.250154
0.268245
0.287174
0.30686
0.327246
0.348292
0.369986
0.392332
0.415358
0.439115
0.463679
0.489106
0.515498
0.542968
0.571627
0.601589
0.632966
0.665872
0.700417
0.736708
0.774838
0.814898
0.856965
0.901115
0.947411
0.995903
1.04661
1.09955
1.15469
1.21201
1.27146
1.33299
1.39652
1.46194
1.52911
1.59786
1.66803
1.73943
1.8119
1.88526
1.95932
2.03386
2.10868
2.18375
2.25902
2.33442
2.40989
2.48523
2.56039
2.63528
2.70977
2.78373
2.85702
2.92951
3.00125
3.07216
3.1422
3.21131
3.27944
3.34654
3.41254
3.47737
3.54098
3.60332
3.66436
3.72405
3.78234
3.83917
3.89451
3.94829
4.00048
4.05104
4.09993
4.14713
4.19259
4.23627
4.27811
4.31807
4.35612
4.39224
4.42639
4.45856
4.48872
4.51685
4.54294
4.56698
4.58896
4.60886
4.62671
4.6425
4.65625
4.66797
4.67768
4.68538
4.69112
4.69491
4.69682
4.69692
4.69535
4.69186
4.68657
4.67957
4.67088
4.66056
4.64864
4.63516
4.62017
4.6037
4.58581
4.56654
4.54592
4.52402
4.50086
4.4765
4.45098
4.42435
4.39666
4.36793
4.33812
4.30736
4.27572
4.24326
4.21003
4.17609
4.14148
4.10625
4.07044
4.03409
3.9972
3.95975
3.92188
3.88368
3.8452
3.8065
3.76763
3.72864
3.68957
3.65044
3.6113
3.57227
3.53345
3.49492
3.45679
3.41912
3.38206
3.345
3.30735
0.00491684
0.0497163
0.0768807
0.0877886
0.0917058
0.0922168
0.0903305
0.0874721
0.0848154
0.0829619
0.0821016
0.0819174
0.0824635
0.0838282
0.0860408
0.0890301
0.0927399
0.0971288
0.102178
0.10788
0.114238
0.121265
0.128987
0.137444
0.146683
0.156758
0.167719
0.179607
0.192437
0.206201
0.220887
0.236462
0.252859
0.270023
0.287902
0.306465
0.325693
0.345588
0.366155
0.387425
0.409446
0.432302
0.45611
0.480876
0.506604
0.533478
0.561663
0.591246
0.62234
0.655059
0.689521
0.725846
0.764147
0.804526
0.84708
0.891896
0.939057
0.988627
1.04068
1.09522
1.15222
1.21164
1.27341
1.33748
1.40378
1.4722
1.54262
1.61485
1.68866
1.76372
1.83976
1.91666
1.99429
2.07247
2.15096
2.22954
2.30826
2.38708
2.46592
2.54463
2.62309
2.70132
2.77932
2.85683
2.93368
3.00977
3.08506
3.15945
3.23284
3.30518
3.37643
3.44652
3.5154
3.58299
3.64924
3.71409
3.7775
3.83945
3.89989
3.9588
4.01611
4.07177
4.12574
4.17799
4.22849
4.27721
4.32413
4.36923
4.41244
4.45371
4.49301
4.53031
4.56559
4.59884
4.63004
4.65915
4.68617
4.71109
4.73388
4.75455
4.7731
4.78953
4.80386
4.81611
4.82629
4.83442
4.84051
4.84458
4.84669
4.84691
4.84547
4.84208
4.83682
4.82978
4.82101
4.81055
4.79846
4.78475
4.7695
4.75273
4.73449
4.71484
4.69381
4.67145
4.6478
4.62292
4.59684
4.56962
4.54131
4.51194
4.48157
4.45026
4.41802
4.38491
4.35097
4.31626
4.28083
4.24473
4.208
4.1707
4.13286
4.09449
4.05557
4.01624
3.97656
3.93659
3.89639