/*--------------------------------*- C++ -*----------------------------------*\
  =========                 |
  \\      /  F ield         | OpenFOAM: The Open Source CFD Toolbox
   \\    /   O peration     | Website:  https://openfoam.org
    \\  /    A nd           | Version:  8
     \\/     M anipulation  |
\*---------------------------------------------------------------------------*/
FoamFile
{
    version     2.0;
    format      ascii;
    class       volScalarField;
    location    "1500";
    object      nut;
}
// * * * * * * * * * * * * * * * * * * * * * * * * * * * * * * * * * * * * * //

dimensions      [0 2 -1 0 0 0 0];

internalField   nonuniform List<scalar> 
12225
(
5.05017e-06
2.27407e-05
2.04471e-05
2.01801e-05
1.9761e-05
2.16745e-05
1.61681e-05
2.59255e-05
3.31204e-05
3.33144e-05
2.58317e-05
2.16821e-05
2.20942e-05
1.85267e-05
2.16606e-05
1.90059e-05
2.3029e-05
1.97007e-05
4.30059e-05
5.46995e-05
4.84464e-05
3.9735e-05
2.93896e-05
2.95918e-05
3.11903e-05
3.46732e-05
3.85699e-05
4.48208e-05
4.4119e-05
4.55005e-05
4.55463e-05
4.35712e-05
4.53293e-05
4.27608e-05
4.5638e-05
4.40084e-05
0.000190757
0.000230073
0.000167773
0.000131423
9.2954e-05
7.93046e-05
6.91021e-05
6.26002e-05
5.8288e-05
5.4975e-05
5.25279e-05
5.12875e-05
4.8946e-05
4.67585e-05
4.55246e-05
4.3928e-05
4.43825e-05
4.39814e-05
0.000475146
0.000482555
0.000461687
0.000386651
0.000298735
0.000252597
0.000216823
0.000193819
0.000173083
0.000157925
0.000143613
0.000132601
0.000122887
0.000114349
0.000108465
0.000102321
9.93297e-05
9.53806e-05
0.000682311
0.0006507
0.000659805
0.000624833
0.000545603
0.000492178
0.000442826
0.000409633
0.000373899
0.000345485
0.000316417
0.000293127
0.000272167
0.000254685
0.000242212
0.000228731
0.000222734
0.000212412
0.000744539
0.000723656
0.000720866
0.000718418
0.000683638
0.000652674
0.000618617
0.000592548
0.000561432
0.000531069
0.000500228
0.000470991
0.000446035
0.00042329
0.000407144
0.000389233
0.000380985
0.000366041
0.000749145
0.000747461
0.000744037
0.000741021
0.000733386
0.000721402
0.000706545
0.000693358
0.000676378
0.00065648
0.000634132
0.000611698
0.000590675
0.000570914
0.000556103
0.00053974
0.000531455
0.000518166
0.000749494
0.000748737
0.000747855
0.000746534
0.000744338
0.000739886
0.000734117
0.000727748
0.000720108
0.000709354
0.000696019
0.000681735
0.000667759
0.000653887
0.000643074
0.000631037
0.000624302
0.000614191
0.000749532
0.000748818
0.000747961
0.000747251
0.000746069
0.000744486
0.000742329
0.000740085
0.000737136
0.000732567
0.000725723
0.000717807
0.000709884
0.000701542
0.000694838
0.000687323
0.000682554
0.000675937
0.000749513
0.000748805
0.000747866
0.000747246
0.000746361
0.000745555
0.000744626
0.000743606
0.000742633
0.000740461
0.00073823
0.000736013
0.000732891
0.000729532
0.000726173
0.000722184
0.000718936
0.000715577
0.000749532
0.000748742
0.000747874
0.000747158
0.0007464
0.000745688
0.000745025
0.000744332
0.000743714
0.000742814
0.000741766
0.000740592
0.000739251
0.000737743
0.000736471
0.000734984
0.000733944
0.00073262
0.000749551
0.000748707
0.000747886
0.00074712
0.000746391
0.000745685
0.000745036
0.000744395
0.000743808
0.000743183
0.000742559
0.000741884
0.00074122
0.000740509
0.000739879
0.000739218
0.00073868
0.000738102
0.000749557
0.000748697
0.000747883
0.000747106
0.000746374
0.000745671
0.00074501
0.000744374
0.000743774
0.000743192
0.000742635
0.000742089
0.000741565
0.000741052
0.000740568
0.000740098
0.000739662
0.000739239
0.000749556
0.000748694
0.000747877
0.000747099
0.000746361
0.000745657
0.000744989
0.000744351
0.000743745
0.000743164
0.000742611
0.000742081
0.000741575
0.000741089
0.000740627
0.000740182
0.00073976
0.000739355
0.000749555
0.000748692
0.000747872
0.000747093
0.000746352
0.000745647
0.000744975
0.000744335
0.000743725
0.000743143
0.000742588
0.000742057
0.00074155
0.000741065
0.000740602
0.000740159
0.000739735
0.00073933
0.000749555
0.000748693
0.000747875
0.000747095
0.000746355
0.00074565
0.000744979
0.000744339
0.00074373
0.000743147
0.000742592
0.000742061
0.000741555
0.000741069
0.000740607
0.000740162
0.00073974
0.000739332
0.000749567
0.000748728
0.000747928
0.000747166
0.00074644
0.000745747
0.000745087
0.000744457
0.000743856
0.000743281
0.000742732
0.000742207
0.000741705
0.000741224
0.000740765
0.000740325
0.000739904
0.000739501
0.000749567
0.000748728
0.000747927
0.000747165
0.000746438
0.000745746
0.000745084
0.000744454
0.000743851
0.000743277
0.000742725
0.000742201
0.000741697
0.000741217
0.000740755
0.000740316
0.000739892
0.00073949
0.000749555
0.000748694
0.000747874
0.000747094
0.000746352
0.000745645
0.000744972
0.00074433
0.000743718
0.000743133
0.000742576
0.000742043
0.000741534
0.000741046
0.000740581
0.000740135
0.000739709
0.000739301
0.000749555
0.000748692
0.000747871
0.00074709
0.000746346
0.000745639
0.000744964
0.000744321
0.000743707
0.000743122
0.000742562
0.000742028
0.000741517
0.000741029
0.000740561
0.000740115
0.000739686
0.000739278
0.000749554
0.000748694
0.000747873
0.000747095
0.000746351
0.000745645
0.000744971
0.000744331
0.000743717
0.000743133
0.000742571
0.000742036
0.000741522
0.000741032
0.00074056
0.000740111
0.000739679
0.000739268
0.000749553
0.000748698
0.000747876
0.000747101
0.000746357
0.000745657
0.000744984
0.000744347
0.000743726
0.000743127
0.000742534
0.000741965
0.000741401
0.000740869
0.000740344
0.000739857
0.00073937
0.000738925
0.00074955
0.000748709
0.000747886
0.000747105
0.000746363
0.000745653
0.000744975
0.00074428
0.000743539
0.000742719
0.000741807
0.000740886
0.000739916
0.000739005
0.000738057
0.000737215
0.000736297
0.000735542
0.000749564
0.00074876
0.00074791
0.000747002
0.000746197
0.000745172
0.000744159
0.000742705
0.000740906
0.000738434
0.000735271
0.000732941
0.00072992
0.000726878
0.000723599
0.000720507
0.000717424
0.000714633
0.000749911
0.000749073
0.000747299
0.000745349
0.00074287
0.000738738
0.000734277
0.000728564
0.000721262
0.000711137
0.000700479
0.000690296
0.000679112
0.000670572
0.00066175
0.000653689
0.000645487
0.000640199
0.000753855
0.000749891
0.000737506
0.000727608
0.000712467
0.000694762
0.000677166
0.000653314
0.00063158
0.000605748
0.000582569
0.000561227
0.000539927
0.000525882
0.000510119
0.000498439
0.000489112
0.000475655
0.000781857
0.000724112
0.000669522
0.000617701
0.000562245
0.000520415
0.000479317
0.000443865
0.000409937
0.000381502
0.000354243
0.00033315
0.000314599
0.000302367
0.00029125
0.000284187
0.000276588
0.000271572
0.000922036
0.000508627
0.000390045
0.000303211
0.000252029
0.000218639
0.000194041
0.000175585
0.00015959
0.000147444
0.00013692
0.000129376
0.000122835
0.000118354
0.000114459
0.000111591
0.000108754
0.00010683
0.000548767
0.000125566
8.47136e-05
7.02646e-05
6.33871e-05
5.99181e-05
5.78959e-05
5.67375e-05
5.60613e-05
5.58789e-05
5.61026e-05
5.68295e-05
5.79272e-05
5.91489e-05
6.07026e-05
6.23508e-05
6.32804e-05
6.34444e-05
1.10594e-05
1.55605e-05
1.8971e-05
2.11094e-05
2.23932e-05
2.28888e-05
2.3052e-05
2.30364e-05
2.28203e-05
2.2533e-05
2.22193e-05
2.19033e-05
2.16012e-05
2.13207e-05
2.10655e-05
2.0836e-05
2.06317e-05
2.04533e-05
1.64278e-12
1.86408e-10
9.47609e-10
3.71342e-09
1.23473e-08
3.7176e-08
9.68044e-08
1.91843e-07
3.1023e-07
4.34894e-07
5.4647e-07
6.33013e-07
6.90544e-07
7.11804e-07
7.02e-07
6.72811e-07
6.18525e-07
5.27226e-07
4.49405e-07
3.82055e-07
3.17983e-07
2.5559e-07
1.95339e-07
1.39506e-07
9.01459e-08
5.2292e-08
2.75276e-08
1.38e-08
7.02562e-09
3.84015e-09
2.35654e-09
1.82366e-09
2.3425e-09
5.13438e-09
1.30209e-08
7.32249e-08
1.54222e-07
3.17677e-07
4.58301e-07
4.77685e-07
4.35642e-07
3.43763e-07
2.86583e-07
2.84669e-07
3.13794e-07
4.30496e-07
5.89456e-07
1.2096e-06
2.7736e-06
8.6412e-06
2.19417e-05
3.79361e-05
5.05473e-05
5.62053e-05
5.43293e-05
5.10044e-05
4.61049e-05
4.31967e-05
3.56531e-05
3.11455e-05
3.28951e-05
3.13817e-05
3.15018e-05
3.32801e-05
3.34415e-05
3.42394e-05
3.47704e-05
3.5382e-05
3.59412e-05
3.65161e-05
3.70623e-05
3.76169e-05
3.81518e-05
3.8691e-05
3.92171e-05
3.97447e-05
4.02635e-05
4.07826e-05
4.12955e-05
4.18083e-05
4.23165e-05
4.28246e-05
4.3329e-05
4.38335e-05
4.43349e-05
4.48363e-05
4.5335e-05
4.58336e-05
4.633e-05
4.6826e-05
4.73198e-05
4.78113e-05
4.82997e-05
4.87849e-05
4.92663e-05
4.9744e-05
5.02181e-05
5.06902e-05
5.1163e-05
5.16425e-05
5.21356e-05
5.26243e-05
5.31185e-05
5.36173e-05
5.41214e-05
5.46321e-05
5.51488e-05
5.56732e-05
5.62048e-05
5.6745e-05
5.7294e-05
5.78526e-05
5.84217e-05
5.90015e-05
5.95935e-05
6.01978e-05
6.08163e-05
6.14485e-05
6.20972e-05
6.27615e-05
6.34447e-05
6.41457e-05
6.48682e-05
6.56114e-05
6.63788e-05
6.717e-05
6.79887e-05
6.8841e-05
6.973e-05
7.06623e-05
7.15905e-05
7.26106e-05
7.36211e-05
7.47221e-05
7.58762e-05
7.70909e-05
7.82143e-05
7.79716e-05
7.77193e-05
7.74528e-05
7.71753e-05
7.68863e-05
7.65862e-05
7.62761e-05
7.59557e-05
7.56263e-05
7.52874e-05
7.49413e-05
7.45938e-05
7.4225e-05
7.38687e-05
7.34821e-05
7.31146e-05
7.27141e-05
7.23295e-05
7.1927e-05
7.15272e-05
7.1122e-05
7.07152e-05
7.03067e-05
6.98967e-05
6.94861e-05
6.90748e-05
6.86633e-05
6.82521e-05
6.78417e-05
6.74327e-05
6.70259e-05
6.6622e-05
6.62212e-05
6.58238e-05
6.54291e-05
6.50366e-05
6.4643e-05
6.42451e-05
6.38345e-05
6.34012e-05
6.29152e-05
6.23207e-05
6.07323e-05
7.58032e-12
1.23826e-09
1.66395e-08
8.74033e-08
3.82252e-07
1.19785e-06
2.7576e-06
5.02793e-06
7.78602e-06
1.09284e-05
1.41035e-05
1.70434e-05
1.95266e-05
2.14099e-05
2.24773e-05
2.27943e-05
2.24313e-05
2.16404e-05
1.93258e-05
1.61455e-05
1.24079e-05
9.09934e-06
6.39371e-06
4.28944e-06
2.69466e-06
1.6589e-06
1.01301e-06
6.27596e-07
3.94498e-07
2.601e-07
1.9057e-07
1.69906e-07
1.79342e-07
3.46876e-07
6.38463e-07
4.23035e-06
8.71995e-06
1.65803e-05
2.20837e-05
2.35389e-05
2.20172e-05
1.93891e-05
1.66646e-05
1.58505e-05
1.66803e-05
1.73126e-05
2.08549e-05
2.86609e-05
3.99583e-05
5.12979e-05
6.32049e-05
7.31789e-05
8.2114e-05
9.08058e-05
0.000101354
0.000111747
0.000121453
0.000135297
0.000145998
0.000158223
0.000172395
0.000184609
0.000198229
0.000211103
0.00022308
0.000234918
0.000246241
0.000257041
0.000267544
0.000277656
0.000287506
0.00029706
0.000306403
0.000315522
0.000324468
0.000333241
0.00034187
0.000350358
0.000358721
0.000366964
0.000375094
0.000383118
0.000391036
0.000398855
0.000406574
0.000414199
0.000421728
0.000429165
0.000436511
0.000443767
0.000450933
0.000458001
0.000464963
0.000471805
0.000478505
0.000485032
0.000491337
0.000497355
0.000502984
0.000508098
0.000512569
0.000517146
0.00052149
0.000525763
0.000529886
0.000533892
0.000537763
0.000541501
0.000545102
0.000548564
0.000551884
0.000555059
0.000558087
0.000560968
0.000563697
0.000566275
0.000568699
0.00057097
0.000573085
0.000575046
0.000576849
0.000578497
0.000579987
0.000581319
0.000582494
0.000583508
0.000584362
0.000585051
0.000585582
0.000585976
0.000586183
0.000586287
0.000586097
0.000585881
0.00058557
0.000585263
0.000584975
0.000584868
0.00058457
0.000584139
0.000583578
0.000582888
0.00058207
0.000581128
0.000580062
0.000578873
0.000577553
0.000576213
0.000574555
0.000573192
0.000571255
0.000569723
0.000567593
0.000565758
0.000563542
0.000561376
0.000559093
0.000556737
0.000554317
0.000551831
0.000549287
0.000546689
0.000544036
0.000541333
0.000538579
0.000535779
0.000532937
0.00053006
0.000527152
0.000524216
0.000521249
0.000518248
0.000515209
0.000512088
0.000508837
0.00050538
0.000501583
0.000497139
0.000491299
0.000475125
1.82205e-11
3.09115e-09
5.79849e-08
3.34179e-07
1.22726e-06
2.96365e-06
6.28913e-06
1.09185e-05
1.66207e-05
2.30898e-05
2.99492e-05
3.67527e-05
4.28792e-05
4.79847e-05
5.18175e-05
5.43417e-05
5.56958e-05
5.60107e-05
5.44259e-05
5.15138e-05
4.67702e-05
4.07527e-05
3.35231e-05
2.62975e-05
1.97105e-05
1.40438e-05
9.53165e-06
6.3425e-06
4.0334e-06
2.69063e-06
1.9232e-06
1.56624e-06
1.32979e-06
2.53834e-06
5.22869e-06
1.95982e-05
3.97704e-05
5.73114e-05
6.52664e-05
6.22948e-05
4.96145e-05
4.09507e-05
4.09376e-05
4.74483e-05
5.47752e-05
6.45614e-05
7.72763e-05
8.97049e-05
0.000102714
0.000120046
0.000138617
0.000159804
0.000183381
0.000209855
0.000239246
0.000269031
0.000298973
0.000331465
0.000361022
0.000390892
0.000419565
0.000446349
0.000473465
0.00049838
0.000522659
0.000545819
0.000567944
0.000589285
0.000609963
0.000630019
0.00064957
0.000668652
0.000687343
0.000705669
0.00072368
0.000741394
0.000758841
0.000776033
0.000792986
0.000809709
0.00082621
0.000842495
0.000858567
0.000874429
0.000890082
0.000905528
0.000920763
0.000935788
0.000950597
0.000965186
0.000979544
0.000993654
0.0010075
0.00102104
0.00103427
0.00104713
0.00105958
0.00107159
0.00108311
0.00109415
0.00110486
0.00111541
0.00112565
0.00113565
0.00114536
0.00115481
0.00116396
0.00117282
0.00118139
0.00118964
0.00119759
0.00120522
0.00121252
0.0012195
0.00122616
0.00123248
0.00123846
0.00124411
0.00124943
0.0012544
0.00125904
0.00126334
0.00126729
0.00127091
0.0012742
0.00127714
0.00127974
0.00128201
0.00128395
0.00128557
0.00128686
0.00128784
0.00128844
0.00128879
0.00128893
0.00128894
0.00128876
0.00128843
0.00128778
0.00128684
0.00128561
0.0012841
0.00128229
0.00128021
0.00127786
0.00127523
0.00127236
0.00126928
0.00126584
0.00126243
0.00125845
0.00125462
0.00125015
0.00124581
0.001241
0.00123612
0.00123101
0.00122574
0.00122033
0.00121477
0.00120909
0.00120329
0.00119737
0.00119135
0.00118522
0.001179
0.0011727
0.00116632
0.00115989
0.0011534
0.00114687
0.00114026
0.00113357
0.00112672
0.00111962
0.00111209
0.00110384
0.00109409
0.00108099
0.00105164
7.10151e-11
1.20086e-08
1.90202e-07
7.86062e-07
2.56746e-06
6.97077e-06
1.3806e-05
2.29628e-05
3.37433e-05
4.50569e-05
5.59871e-05
6.59627e-05
7.45169e-05
8.10378e-05
8.59398e-05
8.90571e-05
9.02954e-05
9.00236e-05
8.83689e-05
8.51269e-05
8.04729e-05
7.48463e-05
6.73677e-05
5.84635e-05
4.86893e-05
3.88949e-05
2.99562e-05
2.25076e-05
1.68228e-05
1.22799e-05
9.5032e-06
7.23426e-06
8.16143e-06
1.30116e-05
2.93274e-05
5.35775e-05
7.19214e-05
7.9721e-05
7.66728e-05
7.37061e-05
7.39359e-05
7.78762e-05
8.58611e-05
9.71857e-05
0.000111315
0.000123304
0.000143143
0.000166041
0.000192644
0.000225028
0.000260108
0.000299448
0.000341268
0.000385432
0.0004305
0.00047564
0.000520069
0.000564158
0.000606213
0.000647122
0.000686296
0.00072376
0.000760134
0.000794958
0.000828459
0.000860778
0.000892034
0.000922404
0.000951991
0.000980881
0.00100917
0.0010369
0.00106416
0.00109096
0.00111736
0.00114338
0.00116903
0.00119433
0.00121929
0.00124392
0.00126823
0.0012922
0.00131585
0.00133918
0.00136218
0.00138485
0.00140719
0.00142919
0.00145084
0.00147213
0.00149305
0.00151358
0.0015337
0.0015534
0.00157264
0.00159141
0.00160969
0.00162748
0.00164478
0.00166163
0.00167811
0.00169423
0.00170995
0.00172527
0.00174018
0.00175466
0.00176871
0.00178231
0.00179547
0.00180815
0.00182037
0.00183212
0.00184338
0.00185415
0.00186444
0.00187422
0.00188351
0.0018923
0.00190059
0.00190837
0.00191566
0.00192244
0.00192873
0.00193452
0.00193981
0.00194461
0.00194891
0.00195273
0.00195608
0.00195894
0.00196133
0.00196327
0.0019647
0.00196567
0.00196638
0.00196674
0.00196673
0.00196634
0.0019655
0.00196424
0.00196255
0.00196044
0.00195791
0.00195496
0.00195161
0.00194788
0.00194377
0.0019393
0.00193443
0.00192933
0.00192373
0.00191795
0.00191164
0.00190516
0.00189824
0.00189108
0.00188363
0.00187593
0.001868
0.00185986
0.00185153
0.00184302
0.00183434
0.0018255
0.0018165
0.00180736
0.0017981
0.00178874
0.00177928
0.00176976
0.00176016
0.00175047
0.00174066
0.00173064
0.0017203
0.00170941
0.00169758
0.00168373
0.00166539
0.00163059
2.39115e-10
3.55159e-08
4.15109e-07
1.99667e-06
6.84195e-06
1.64125e-05
3.0344e-05
4.68773e-05
6.40826e-05
8.02913e-05
9.43533e-05
0.000105429
0.000113618
0.00011923
0.00012231
0.000123464
0.000122956
0.000121053
0.000117962
0.000113658
0.000108197
0.000102105
9.4587e-05
8.5749e-05
7.56006e-05
6.44527e-05
5.31994e-05
4.30664e-05
3.47165e-05
2.78257e-05
2.21157e-05
2.1272e-05
2.76471e-05
4.67656e-05
7.10665e-05
8.62054e-05
9.34784e-05
9.67095e-05
9.95367e-05
0.00010484
0.000114022
0.000127934
0.000140198
0.000153437
0.000175339
0.000204351
0.000236718
0.000275568
0.000318766
0.000366685
0.000416994
0.000470195
0.000524528
0.000579606
0.000634374
0.000688544
0.000741476
0.000793199
0.000842914
0.000891321
0.000937969
0.000983288
0.00102699
0.00106929
0.0011103
0.00115015
0.00118897
0.00122687
0.00126396
0.00130032
0.00133602
0.00137112
0.00140567
0.0014397
0.00147324
0.00150632
0.00153894
0.00157111
0.00160284
0.00163413
0.00166499
0.00169541
0.00172539
0.00175492
0.00178401
0.00181265
0.00184083
0.00186855
0.0018958
0.00192257
0.00194885
0.00197462
0.00199988
0.00202462
0.00204881
0.00207247
0.00209558
0.00211816
0.00214021
0.00216177
0.00218284
0.00220342
0.00222348
0.00224302
0.00226203
0.0022805
0.0022984
0.00231574
0.0023325
0.00234867
0.00236424
0.00237921
0.00239357
0.00240732
0.00242044
0.00243295
0.00244483
0.00245609
0.00246673
0.00247674
0.00248613
0.0024949
0.00250305
0.00251059
0.00251751
0.00252383
0.00252955
0.00253467
0.0025392
0.00254315
0.0025465
0.00254931
0.00255147
0.00255307
0.00255434
0.00255508
0.00255531
0.00255502
0.00255421
0.00255286
0.002551
0.00254861
0.0025457
0.00254228
0.00253837
0.00253397
0.00252912
0.0025238
0.00251803
0.00251185
0.00250519
0.00249816
0.00249063
0.00248275
0.00247442
0.00246575
0.00245671
0.00244736
0.00243771
0.00242779
0.00241763
0.00240723
0.00239661
0.00238578
0.00237475
0.00236353
0.00235215
0.00234064
0.002329
0.00231724
0.00230538
0.00229341
0.00228129
0.00226895
0.00225627
0.00224302
0.0022288
0.00221253
0.00219136
0.00215635
7.65014e-10
8.74634e-08
1.05531e-06
5.34669e-06
1.7354e-05
3.64899e-05
5.93732e-05
8.26784e-05
0.000103058
0.000119174
0.000131155
0.000139919
0.000145294
0.000148205
0.000149155
0.000148518
0.000146544
0.000143427
0.000139307
0.000134138
0.000128086
0.000121426
0.000113566
0.000104636
9.34899e-05
7.77741e-05
6.25773e-05
4.8492e-05
3.7424e-05
3.30278e-05
3.47563e-05
4.77975e-05
7.02887e-05
9.17554e-05
0.000106483
0.000115421
0.00012127
0.000127832
0.000138547
0.000155238
0.0001655
0.00017935
0.000202916
0.00023224
0.000268015
0.000310717
0.000358034
0.000410759
0.000466427
0.00052498
0.000584955
0.000646172
0.000707576
0.00076878
0.000829219
0.000888743
0.000946692
0.00100327
0.00105865
0.00111247
0.00116468
0.0012155
0.00126489
0.00131298
0.00135988
0.00140569
0.0014505
0.00149442
0.00153751
0.00157987
0.00162153
0.00166255
0.00170296
0.00174279
0.00178206
0.00182078
0.00185896
0.0018966
0.00193369
0.00197025
0.00200626
0.00204172
0.00207663
0.00211098
0.00214478
0.00217801
0.00221067
0.00224276
0.00227428
0.00230521
0.00233556
0.00236531
0.00239446
0.00242301
0.00245095
0.00247828
0.002505
0.00253113
0.00255668
0.00258164
0.002606
0.00262978
0.00265294
0.00267549
0.00269741
0.00271869
0.00273931
0.00275928
0.00277857
0.00279718
0.0028151
0.00283233
0.00284885
0.00286468
0.00287981
0.00289422
0.00290794
0.00292094
0.00293324
0.00294484
0.00295574
0.00296594
0.00297545
0.00298427
0.0029924
0.00299986
0.00300664
0.00301276
0.00301825
0.00302304
0.00302719
0.00303071
0.0030335
0.0030357
0.00303745
0.00303859
0.00303914
0.00303909
0.00303845
0.00303722
0.00303541
0.00303302
0.00303005
0.00302651
0.00302242
0.00301779
0.00301265
0.00300698
0.00300081
0.00299415
0.00298699
0.00297936
0.00297122
0.00296263
0.00295358
0.00294411
0.00293424
0.00292399
0.00291341
0.0029025
0.0028913
0.00287982
0.00286808
0.00285608
0.00284385
0.00283139
0.00281873
0.00280589
0.00279291
0.00277978
0.00276653
0.00275315
0.00273961
0.00272586
0.00271179
0.00269721
0.00268173
0.00266444
0.00264269
0.00260967
2.45712e-09
2.24055e-07
2.78892e-06
1.45582e-05
3.78042e-05
6.70001e-05
9.4763e-05
0.000117418
0.00013467
0.000147451
0.000156373
0.000161837
0.000164723
0.000165673
0.000165115
0.000163335
0.000160511
0.000156734
0.000151948
0.000146075
0.000139376
0.000131597
0.000122484
0.000106175
9.0612e-05
7.6917e-05
6.48236e-05
5.64208e-05
5.58236e-05
6.49245e-05
7.91633e-05
0.000104478
0.000121496
0.000134214
0.000143486
0.000151733
0.000162949
0.000180064
0.000188499
0.000201886
0.000224663
0.000253088
0.000289119
0.000331608
0.000380636
0.000435114
0.000493222
0.000554553
0.000617649
0.000682219
0.00074743
0.00081292
0.000878115
0.000942734
0.00100618
0.00106855
0.00113021
0.00119039
0.00124922
0.00130667
0.00136273
0.00141751
0.00147102
0.00152337
0.00157461
0.00162484
0.00167412
0.00172254
0.00177016
0.00181702
0.00186318
0.00190867
0.00195352
0.00199773
0.00204131
0.00208428
0.00212662
0.00216834
0.00220943
0.00224988
0.00228969
0.00232885
0.00236735
0.0024052
0.0024424
0.00247893
0.0025148
0.00255001
0.00258455
0.00261844
0.00265165
0.0026842
0.00271608
0.0027473
0.00277784
0.0028077
0.00283689
0.0028654
0.00289323
0.0029204
0.0029469
0.00297273
0.00299787
0.00302233
0.00304609
0.00306915
0.0030915
0.00311312
0.00313402
0.0031542
0.00317365
0.00319236
0.00321032
0.00322753
0.00324399
0.00325969
0.00327464
0.00328883
0.00330228
0.00331497
0.00332692
0.00333813
0.0033486
0.00335834
0.00336735
0.00337564
0.00338322
0.00339011
0.00339633
0.00340176
0.00340653
0.00341063
0.00341394
0.00341667
0.00341885
0.00342036
0.00342124
0.00342148
0.00342108
0.00342007
0.00341843
0.00341619
0.00341335
0.00340997
0.00340602
0.00340151
0.00339644
0.00339083
0.00338468
0.00337801
0.00337081
0.0033631
0.00335488
0.00334615
0.00333695
0.00332728
0.00331719
0.00330669
0.00329581
0.00328458
0.00327302
0.00326114
0.00324897
0.0032365
0.00322376
0.00321076
0.00319753
0.00318409
0.00317046
0.00315668
0.00314274
0.00312866
0.00311442
0.00309998
0.00308526
0.00307013
0.00305426
0.00303692
0.00301607
0.00298614
7.39079e-09
5.92725e-07
7.50833e-06
3.10044e-05
6.49688e-05
9.91309e-05
0.000127437
0.000148282
0.000162535
0.000171241
0.00017568
0.000177502
0.000177608
0.00017638
0.000174127
0.000170998
0.000166948
0.000161892
0.000155949
0.000149252
0.000141637
0.000132735
0.000115501
9.88319e-05
8.49955e-05
7.58207e-05
7.36628e-05
7.77864e-05
8.85302e-05
0.000109654
0.000134613
0.000157218
0.000170594
0.000180509
0.000192054
0.000201739
0.000208978
0.000221817
0.000242078
0.000268442
0.000302584
0.000343131
0.00039064
0.000443964
0.000502305
0.000564191
0.000628387
0.000694334
0.000761256
0.000828804
0.000896495
0.000964013
0.00103081
0.00109672
0.00116222
0.00122664
0.00128997
0.00135206
0.00141295
0.00147261
0.00153106
0.00158836
0.00164453
0.00169964
0.00175375
0.00180692
0.00185921
0.00191067
0.00196135
0.0020113
0.00206054
0.00210911
0.00215702
0.00220426
0.00225084
0.00229675
0.00234197
0.00238651
0.00243034
0.00247346
0.00251585
0.0025575
0.00259843
0.00263862
0.00267807
0.00271678
0.00275475
0.00279199
0.00282851
0.0028643
0.00289937
0.00293372
0.00296736
0.00300027
0.00303247
0.00306395
0.00309471
0.00312472
0.00315401
0.00318261
0.00321049
0.00323767
0.00326413
0.00328987
0.00331487
0.00333914
0.00336266
0.00338543
0.00340744
0.00342869
0.00344917
0.00346888
0.00348781
0.00350596
0.00352333
0.00353993
0.00355575
0.00357079
0.00358507
0.00359857
0.00361131
0.00362329
0.00363451
0.00364499
0.00365472
0.00366371
0.00367197
0.00367956
0.00368637
0.00369244
0.00369782
0.0037025
0.00370638
0.00370969
0.00371237
0.00371437
0.00371571
0.0037164
0.00371644
0.00371585
0.00371462
0.00371278
0.00371032
0.00370725
0.0037036
0.00369937
0.00369457
0.0036892
0.00368329
0.00367683
0.00366983
0.0036623
0.00365424
0.00364566
0.00363658
0.00362703
0.00361703
0.0036066
0.00359577
0.00358456
0.00357299
0.00356108
0.00354883
0.00353627
0.00352341
0.00351025
0.00349684
0.00348319
0.00346932
0.00345527
0.00344104
0.00342665
0.0034121
0.00339736
0.0033824
0.00336711
0.00335141
0.00333461
0.00331511
0.00328883
1.92096e-08
1.4717e-06
1.66451e-05
5.20219e-05
9.29599e-05
0.000127596
0.000153151
0.000170269
0.00018099
0.000186535
0.000188282
0.000187337
0.000184647
0.000180918
0.00017653
0.000171589
0.000166012
0.000159837
0.000152972
0.000145573
0.000137383
0.000125811
0.000113962
0.000106905
0.000101697
9.82289e-05
0.000103659
0.000119241
0.00013902
0.000160145
0.000179909
0.000196235
0.000207848
0.00021666
0.000225952
0.000238151
0.00025625
0.000279958
0.000310947
0.000348478
0.000392791
0.000443006
0.000498813
0.00055904
0.000622575
0.00068825
0.000755287
0.00082324
0.000891655
0.000960225
0.00102861
0.00109624
0.00116353
0.00123027
0.0012961
0.00136095
0.00142475
0.00148748
0.0015491
0.00160963
0.00166909
0.0017275
0.00178491
0.00184136
0.0018969
0.00195158
0.00200543
0.00205851
0.00211086
0.00216253
0.00221353
0.00226388
0.00231359
0.00236265
0.00241103
0.00245872
0.0025057
0.00255196
0.00259746
0.0026422
0.00268616
0.00272932
0.00277169
0.00281327
0.00285408
0.00289416
0.00293344
0.00297192
0.00300961
0.00304652
0.00308265
0.00311802
0.00315263
0.00318647
0.00321956
0.00325191
0.0032835
0.00331438
0.00334452
0.00337393
0.00340261
0.00343055
0.00345776
0.00348421
0.00350992
0.00353487
0.00355907
0.0035825
0.00360516
0.00362705
0.00364816
0.00366849
0.00368804
0.0037068
0.00372479
0.00374199
0.00375842
0.00377406
0.00378894
0.00380305
0.00381639
0.00382898
0.0038408
0.00385188
0.00386221
0.0038718
0.0038807
0.00388888
0.00389627
0.00390294
0.00390893
0.00391419
0.00391867
0.00392259
0.00392583
0.00392839
0.00393028
0.00393153
0.00393212
0.00393208
0.00393142
0.00393013
0.00392824
0.00392574
0.00392266
0.003919
0.00391478
0.00390999
0.00390466
0.00389877
0.00389235
0.00388539
0.00387789
0.00386988
0.00386136
0.00385236
0.0038429
0.003833
0.00382269
0.00381198
0.0038009
0.00378945
0.00377765
0.0037655
0.00375303
0.00374024
0.00372716
0.00371382
0.00370023
0.00368643
0.00367244
0.00365826
0.0036439
0.00362937
0.00361464
0.00359967
0.00358431
0.00356812
0.00354982
0.00352672
4.27204e-08
3.3928e-06
2.99724e-05
7.58574e-05
0.000120025
0.000153441
0.000175565
0.000189451
0.000196057
0.000197252
0.000194938
0.000190499
0.000184865
0.000178614
0.000171955
0.000164839
0.000157455
0.000149381
0.000141373
0.000133006
0.000124551
0.000116932
0.000112069
0.000112224
0.000118699
0.000130893
0.000146873
0.000164588
0.000182626
0.00019958
0.000213722
0.000225069
0.000237058
0.000250325
0.000267226
0.000288608
0.000316344
0.000350277
0.000390641
0.000436822
0.000488512
0.000544993
0.000605586
0.000669234
0.00073496
0.000801967
0.000869741
0.000937936
0.00100626
0.00107417
0.00114163
0.00120905
0.00127567
0.00134152
0.00140648
0.0014705
0.00153355
0.00159558
0.00165662
0.00171665
0.0017757
0.00183381
0.00189101
0.00194737
0.00200293
0.00205772
0.0021118
0.00216512
0.00221781
0.0022699
0.00232141
0.00237235
0.00242275
0.00247262
0.00252206
0.00257091
0.00261904
0.00266639
0.00271293
0.00275865
0.00280352
0.00284752
0.00289065
0.0029329
0.00297429
0.00301477
0.00305443
0.0030933
0.00313137
0.00316867
0.00320521
0.00324099
0.00327601
0.00331029
0.00334382
0.00337662
0.00340869
0.00344002
0.00347061
0.00350047
0.00352959
0.00355796
0.00358558
0.00361245
0.00363858
0.00366394
0.00368855
0.0037124
0.00373548
0.0037578
0.00377935
0.00380013
0.00382013
0.00383936
0.00385783
0.00387552
0.00389244
0.0039086
0.003924
0.00393864
0.00395253
0.00396568
0.00397808
0.00398974
0.00400067
0.00401087
0.00402041
0.00402916
0.00403718
0.00404451
0.00405113
0.00405703
0.00406222
0.0040668
0.00407069
0.00407391
0.00407647
0.00407838
0.00407966
0.00408031
0.00408034
0.00407976
0.00407859
0.00407683
0.00407449
0.00407159
0.00406813
0.00406412
0.00405957
0.00405448
0.00404885
0.00404269
0.00403599
0.00402879
0.00402108
0.00401289
0.00400424
0.00399515
0.00398564
0.00397573
0.00396542
0.00395474
0.00394368
0.00393226
0.00392049
0.00390838
0.00389595
0.00388324
0.00387026
0.00385704
0.00384359
0.00382993
0.00381609
0.00380207
0.00378787
0.00377348
0.00375882
0.00374355
0.00372664
0.00370701
8.10178e-08
6.92853e-06
4.42906e-05
9.63525e-05
0.000142069
0.000174461
0.000194602
0.000204163
0.000206291
0.000203543
0.0001978
0.000190368
0.000182049
0.000173197
0.000164543
0.000155876
0.000147978
0.00014095
0.00013552
0.000131469
0.000129761
0.000131322
0.000136538
0.000145483
0.00015757
0.000171907
0.000187382
0.000203013
0.000217436
0.000229958
0.000243241
0.000258315
0.000275183
0.000295246
0.000320232
0.00035066
0.000386946
0.000428741
0.000475761
0.00052749
0.000583477
0.000643089
0.000705596
0.000770147
0.000835992
0.000902568
0.00096949
0.00103643
0.00110287
0.00116926
0.0012352
0.00130052
0.00136503
0.00142868
0.00149141
0.00155319
0.00161404
0.00167395
0.00173294
0.00179102
0.00184818
0.00190447
0.00196
0.00201481
0.00206898
0.00212257
0.00217573
0.00222871
0.00228121
0.00233319
0.00238465
0.00243559
0.00248603
0.00253594
0.00258525
0.00263393
0.00268196
0.00272924
0.00277579
0.00282155
0.00286649
0.00291058
0.00295381
0.00299617
0.00303769
0.00307839
0.00311829
0.00315741
0.00319575
0.00323332
0.00327014
0.00330621
0.00334153
0.00337612
0.00340997
0.00344308
0.00347546
0.00350711
0.00353802
0.0035682
0.00359764
0.00362634
0.00365429
0.0036815
0.00370797
0.00373369
0.00375866
0.00378288
0.00380635
0.00382907
0.00385104
0.00387225
0.00389271
0.00391242
0.00393137
0.00394957
0.00396701
0.00398371
0.00399967
0.0040149
0.00402939
0.00404315
0.00405619
0.0040685
0.00408009
0.00409101
0.0041012
0.00411066
0.00411942
0.00412747
0.00413484
0.0041415
0.00414749
0.00415284
0.00415749
0.00416149
0.00416484
0.00416756
0.00416964
0.00417111
0.00417198
0.00417225
0.00417194
0.00417105
0.00416961
0.00416761
0.00416507
0.004162
0.00415839
0.00415426
0.00414961
0.00414442
0.0041387
0.00413248
0.00412576
0.00411857
0.00411093
0.00410284
0.00409434
0.00408542
0.00407611
0.00406641
0.00405631
0.00404584
0.00403499
0.00402379
0.00401225
0.0040004
0.00398825
0.00397584
0.00396317
0.00395027
0.00393715
0.00392385
0.00391038
0.00389674
0.00388291
0.00386865
0.00385306
0.00383641
1.29074e-07
1.18465e-05
6.00607e-05
0.000117774
0.000163455
0.000193953
0.000210191
0.000215855
0.00021446
0.000208709
0.000200571
0.000191102
0.000181741
0.000172743
0.00016501
0.000158275
0.000153305
0.000150528
0.000149804
0.000151384
0.000155528
0.00016227
0.000171402
0.000182537
0.000195152
0.000208667
0.00022204
0.000234577
0.000247922
0.000263711
0.000281331
0.000300683
0.000323826
0.000351359
0.000383868
0.000421358
0.000463661