/*--------------------------------*- C++ -*----------------------------------*\
  =========                 |
  \\      /  F ield         | OpenFOAM: The Open Source CFD Toolbox
   \\    /   O peration     | Website:  https://openfoam.org
    \\  /    A nd           | Version:  8
     \\/     M anipulation  |
\*---------------------------------------------------------------------------*/
FoamFile
{
    version     2.0;
    format      ascii;
    class       volScalarField;
    location    "1500";
    object      p;
}
// * * * * * * * * * * * * * * * * * * * * * * * * * * * * * * * * * * * * * //

dimensions      [0 2 -2 0 0 0 0];

internalField   nonuniform List<scalar> 
12225
(
-4.18872
-5.08223
-5.47159
-5.60466
-5.74877
-5.90304
-6.03159
-6.13125
-6.2136
-6.29133
-6.3641
-6.42931
-6.49754
-6.5704
-6.64355
-6.7201
-6.8077
-6.90202
-4.46041
-5.10896
-5.43514
-5.56143
-5.7064
-5.86283
-5.99489
-6.10193
-6.18971
-6.26559
-6.33776
-6.40778
-6.47473
-6.54793
-6.62521
-6.70117
-6.7766
-6.84088
-4.67971
-5.10931
-5.41906
-5.57101
-5.71705
-5.8691
-5.99899
-6.104
-6.19085
-6.2668
-6.33887
-6.40885
-6.47625
-6.54632
-6.61791
-6.68615
-6.74967
-6.80063
-4.82643
-5.13502
-5.42858
-5.58995
-5.72566
-5.8655
-5.98936
-6.0919
-6.17852
-6.25541
-6.32785
-6.39749
-6.4645
-6.53186
-6.59894
-6.66232
-6.72011
-6.76704
-4.94869
-5.18338
-5.44658
-5.60658
-5.73417
-5.86498
-5.98451
-6.08534
-6.17151
-6.24862
-6.32085
-6.38973
-6.45572
-6.52056
-6.58386
-6.64328
-6.69681
-6.74082
-5.06444
-5.23943
-5.46564
-5.6214
-5.74431
-5.86741
-5.98182
-6.07999
-6.1649
-6.24155
-6.31321
-6.38115
-6.44588
-6.50843
-6.56844
-6.6243
-6.67434
-6.71622
-5.17188
-5.29912
-5.48879
-5.63712
-5.75537
-5.87063
-5.97918
-6.07434
-6.15788
-6.23385
-6.30478
-6.37168
-6.43503
-6.4954
-6.5525
-6.60526
-6.65251
-6.69292
-5.25522
-5.35209
-5.51328
-5.65228
-5.76568
-5.87437
-5.97766
-6.06994
-6.15197
-6.22695
-6.29691
-6.36269
-6.42468
-6.48323
-6.53813
-6.58865
-6.63399
-6.67326
-5.32318
-5.39967
-5.53761
-5.66695
-5.7756
-5.87856
-5.97704
-6.06647
-6.14686
-6.22063
-6.28949
-6.35411
-6.41481
-6.4718
-6.52493
-6.57368
-6.61754
-6.65589
-5.39085
-5.45085
-5.56638
-5.68429
-5.78723
-5.88413
-5.97729
-6.06332
-6.14159
-6.21374
-6.28114
-6.34434
-6.40355
-6.45889
-6.51022
-6.55726
-6.5997
-6.63713
-5.45744
-5.50419
-5.59924
-5.70443
-5.80055
-5.89111
-5.97857
-6.06067
-6.13632
-6.20643
-6.27201
-6.33349
-6.391
-6.44453
-6.49408
-6.53943
-6.58051
-6.61702
-5.52167
-5.55814
-5.63536
-5.72724
-5.8155
-5.89949
-5.981
-6.05866
-6.1312
-6.19884
-6.26226
-6.32173
-6.3773
-6.42895
-6.47667
-6.52041
-6.56015
-6.5958
-5.58242
-5.61096
-5.67328
-5.75213
-5.83181
-5.90903
-5.9845
-6.05736
-6.12631
-6.19112
-6.25202
-6.30924
-6.36269
-6.41239
-6.45829
-6.50048
-6.53895
-6.57373
-5.63798
-5.66059
-5.71096
-5.77789
-5.84881
-5.91922
-5.98874
-6.0566
-6.12165
-6.18328
-6.24148
-6.29621
-6.34748
-6.39515
-6.43935
-6.48
-6.51733
-6.55124
-5.68641
-5.70463
-5.74579
-5.80258
-5.86525
-5.92912
-5.99297
-6.05597
-6.11701
-6.17535
-6.2307
-6.28294
-6.33197
-6.37773
-6.42024
-6.45954
-6.49573
-6.5289
-5.72493
-5.74006
-5.77457
-5.82345
-5.87912
-5.9372
-5.99605
-6.05465
-6.11196
-6.16715
-6.21979
-6.26966
-6.31661
-6.36059
-6.40158
-6.43964
-6.47485
-6.50732
-5.74964
-5.76279
-5.79308
-5.8367
-5.88738
-5.94113
-5.99616
-6.05136
-6.10569
-6.15831
-6.2087
-6.25659
-6.30182
-6.34432
-6.38405
-6.42109
-6.45549
-6.4874
-5.75417
-5.76667
-5.79556
-5.83736
-5.88607
-5.93798
-5.99125
-6.04486
-6.09768
-6.14897
-6.19808
-6.24487
-6.28903
-6.33065
-6.36957
-6.40599
-6.43987
-6.47145
-5.73803
-5.75123
-5.78162
-5.82507
-5.8751
-5.92782
-5.98171
-6.03568
-6.08878
-6.14007
-6.18916
-6.2357
-6.27969
-6.32099
-6.35971
-6.39584
-6.42957
-6.46097
-5.70648
-5.72157
-5.75598
-5.80403
-5.85783
-5.9134
-5.96957
-6.02551
-6.08007
-6.13248
-6.18228
-6.22937
-6.27365
-6.31517
-6.35394
-6.39014
-6.42384
-6.4553
-5.66278
-5.68116
-5.72232
-5.77764
-5.83699
-5.8967
-5.95641
-6.01535
-6.07227
-6.12639
-6.17746
-6.22548
-6.27041
-6.31234
-6.35139
-6.38773
-6.42154
-6.45304
-5.60893
-5.63243
-5.68366
-5.74865
-5.81465
-5.87926
-5.94336
-6.00605
-6.06582
-6.122
-6.17464
-6.22378
-6.26954
-6.31197
-6.35136
-6.38786
-6.42178
-6.4533
-5.5458
-5.5773
-5.64273
-5.71937
-5.79226
-5.86218
-5.93132
-5.99818
-6.06096
-6.11936
-6.17367
-6.22407
-6.27065
-6.31364
-6.35329
-6.38995
-6.42387
-6.45541
-5.47364
-5.5176
-5.60233
-5.69149
-5.77066
-5.84618
-5.92092
-5.99208
-6.05781
-6.11837
-6.17436
-6.22596
-6.27333
-6.31675
-6.35663
-6.39333
-6.42724
-6.45872
-5.3919
-5.45517
-5.56536
-5.66645
-5.75034
-5.83152
-5.91222
-5.98763
-6.05614
-6.11878
-6.17637
-6.22907
-6.27708
-6.32079
-6.36069
-6.39727
-6.43098
-6.46228
-5.30007
-5.39172
-5.53322
-5.64464
-5.73185
-5.81851
-5.90475
-5.98387
-6.05488
-6.11955
-6.17876
-6.23262
-6.28134
-6.32538
-6.36533
-6.40179
-6.43529
-6.4665
-5.19747
-5.33138
-5.50351
-5.62142
-5.71304
-5.8068
-5.89858
-5.98091
-6.05401
-6.12034
-6.18076
-6.23538
-6.28445
-6.3285
-6.36824
-6.40438
-6.43756
-6.46852
-5.07513
-5.28675
-5.48011
-5.59264
-5.68869
-5.79297
-5.89273
-5.98006
-6.05696
-6.12635
-6.18902
-6.24507
-6.29487
-6.33912
-6.3785
-6.41405
-6.44682
-6.47822
-4.89321
-5.26431
-5.48917
-5.58489
-5.67604
-5.78422
-5.88697
-5.97564
-6.05388
-6.12485
-6.18906
-6.24638
-6.29711
-6.34182
-6.38108
-6.41552
-6.44642
-6.47514
-4.63454
-5.18966
-5.47902
-5.58496
-5.68385
-5.80047
-5.90871
-6.00009
-6.07966
-6.15147
-6.21619
-6.27377
-6.3245
-6.36889
-6.40731
-6.43934
-6.4658
-6.48726
-7.42916
-7.42926
-7.4293
-7.42927
-7.42897
-7.42778
-7.4253
-7.42198
-7.41881
-7.41679
-7.41689
-7.41933
-7.42359
-7.42891
-7.43452
-7.43975
-7.44404
-7.44699
-7.44859
-7.44916
-7.44901
-7.44832
-7.44732
-7.44632
-7.44552
-7.44504
-7.44482
-7.44468
-7.44447
-7.44409
-7.44354
-7.44284
-7.44192
-7.4407
-7.43928
-7.43794
-7.43735
-7.43818
-7.44044
-7.44342
-7.44618
-7.44826
-7.44989
-7.45152
-7.45363
-7.45671
-7.46039
-7.46361
-7.466
-7.46963
-7.47829
-7.49597
-7.52261
-7.55659
-7.59758
-7.64692
-7.70454
-7.76879
-7.83827
-7.91075
-7.98404
-8.05616
-8.12598
-8.19261
-8.25512
-8.31312
-8.36643
-8.41501
-8.45888
-8.49814
-8.53285
-8.56312
-8.58899
-8.61053
-8.62772
-8.64061
-8.64913
-8.65328
-8.653
-8.64825
-8.63896
-8.62509
-8.60657
-8.58335
-8.55535
-8.5225
-8.48469
-8.44188
-8.39397
-8.34094
-8.28275
-8.21934
-8.15065
-8.07664
-7.99726
-7.91244
-7.82217
-7.72648
-7.62544
-7.51893
-7.40652
-7.28808
-7.16383
-7.03382
-6.89808
-6.75663
-6.60951
-6.45674
-6.2984
-6.13453
-5.96523
-5.79058
-5.6107
-5.42569
-5.23571
-5.04089
-4.84138
-4.63734
-4.42895
-4.21636
-3.99978
-3.77937
-3.55533
-3.32782
-3.09706
-2.86322
-2.62649
-2.38708
-2.14514
-1.90087
-1.65442
-1.40603
-1.15592
-0.904298
-0.651367
-0.397385
-0.142524
0.113312
0.370042
0.627281
0.88484
1.14252
1.40016
1.65755
1.91452
2.17087
2.42643
2.68098
2.93435
3.18636
3.43685
3.68565
3.93261
4.17756
4.42034
4.6608
4.89883
5.13428
5.36704
5.59701
5.8241
6.04818
6.26918
6.48698
6.70149
6.91261
7.12025
7.32432
7.52474
7.72143
7.91431
8.10327
8.28823
8.4691
8.64579
8.81825
8.9868
9.1513
9.31485
9.46876
-7.43036
-7.43053
-7.43089
-7.43126
-7.43125
-7.43044
-7.42853
-7.42609
-7.42433
-7.42422
-7.42603
-7.42962
-7.43446
-7.43992
-7.44537
-7.45033
-7.45441
-7.45744
-7.4592
-7.45951
-7.45847
-7.45641
-7.45376
-7.45102
-7.44859
-7.44674
-7.4455
-7.44467
-7.44402
-7.44339
-7.44279
-7.4422
-7.44156
-7.44075
-7.43976
-7.43905
-7.43933
-7.44109
-7.44403
-7.44713
-7.44926
-7.45006
-7.44999
-7.44917
-7.44781
-7.44749
-7.45053
-7.45716
-7.46376
-7.47067
-7.48141
-7.49703
-7.51886
-7.55012
-7.59368
-7.64862
-7.71222
-7.78215
-7.85562
-7.93021
-8.00388
-8.07557
-8.14406
-8.20815
-8.26776
-8.32285
-8.37342
-8.41953
-8.46127
-8.49873
-8.53198
-8.56107
-8.58603
-8.60687
-8.62357
-8.63612
-8.64444
-8.64851
-8.64825
-8.6436
-8.63448
-8.62083
-8.6026
-8.57971
-8.55209
-8.51967
-8.48236
-8.44009
-8.39278
-8.34039
-8.28289
-8.22022
-8.15232
-8.07912
-8.00056
-7.91658
-7.82708
-7.73197
-7.63112
-7.52446
-7.41222
-7.2945
-7.17113
-7.04204
-6.90725
-6.76675
-6.62057
-6.46876
-6.31135
-6.14841
-5.98002
-5.80627
-5.62727
-5.44314
-5.25399
-5.05999
-4.86128
-4.65802
-4.45037
-4.23852
-4.02264
-3.80291
-3.57951
-3.35264
-3.12248
-2.88922
-2.65305
-2.41417
-2.17273
-1.92892
-1.68292
-1.43493
-1.18517
-0.933811
-0.68098
-0.42679
-0.171447
0.0845928
0.341131
0.598183
0.855566
1.11311
1.37062
1.62792
1.88482
2.14113
2.39666
2.65122
2.90463
3.1567
3.40728
3.6562
3.90331
4.14843
4.39141
4.6321
4.87035
5.10606
5.33909
5.56934
5.79672
6.0211
6.24241
6.46054
6.67538
6.88685
7.09485
7.2993
7.5001
7.69719
7.89047
8.07987
8.26534
8.44682
8.62422
8.79751
8.96689
9.13178
9.29737
9.45061
-7.43165
-7.43163
-7.43166
-7.43173
-7.43181
-7.43184
-7.43206
-7.43298
-7.43506
-7.43846
-7.44296
-7.44822
-7.4538
-7.45928
-7.46428
-7.46851
-7.47177
-7.47394
-7.47494
-7.47473
-7.47332
-7.47086
-7.46751
-7.4635
-7.45906
-7.45449
-7.45007
-7.44608
-7.44271
-7.44004
-7.43802
-7.43641
-7.43495
-7.43368
-7.43311
-7.43396
-7.43672
-7.44106
-7.44552
-7.44826
-7.44806
-7.44586
-7.44373
-7.44321
-7.44389
-7.44566
-7.45094
-7.46103
-7.47521
-7.49406
-7.51847
-7.54851
-7.58458
-7.62737
-7.67716
-7.73287
-7.79291
-7.85589
-7.92028
-7.98472
-8.04818
-8.10999
-8.16952
-8.22609
-8.2794
-8.32927
-8.37557
-8.41825
-8.45726
-8.49257
-8.52415
-8.55197
-8.57599
-8.59616
-8.61241
-8.62469
-8.6329
-8.63697
-8.63683
-8.63238
-8.62354
-8.61024
-8.59241
-8.56997
-8.54285
-8.51098
-8.47428
-8.43266
-8.38606
-8.33442
-8.27771
-8.21586
-8.14881
-8.0765
-7.99888
-7.91587
-7.82741
-7.73343
-7.63381
-7.52846
-7.41745
-7.30086
-7.17862
-7.05071
-6.91709
-6.77779
-6.6328
-6.48218
-6.32596
-6.16421
-5.997
-5.82442
-5.64656
-5.46355
-5.27552
-5.0826
-4.88494
-4.68272
-4.47608
-4.26522
-4.05029
-3.83149
-3.609
-3.38301
-3.1537
-2.92126
-2.68588
-2.44776
-2.20705
-1.96394
-1.71862
-1.47128
-1.22214
-0.971375
-0.719141
-0.465559
-0.21082
0.0447235
0.300859
0.557525
0.814547
1.07176
1.32898
1.58602
1.84269
2.09881
2.35418
2.60862
2.86193
3.11394
3.3645
3.61343
3.86058
4.10578
4.34886
4.58967
4.82808
5.06395
5.29716
5.52761
5.75517
5.97976
6.20128
6.41961
6.63467
6.84635
7.05456
7.25922
7.46023
7.65751
7.851
8.04062
8.22625
8.40786
8.58545
8.75902
8.92914
9.09463
9.26296
9.41217
-7.43279
-7.4325
-7.43213
-7.43214
-7.43332
-7.43605
-7.44014
-7.44522
-7.45095
-7.45703
-7.46315
-7.46906
-7.47454
-7.47941
-7.4835
-7.48667
-7.48883
-7.4899
-7.48987
-7.4887
-7.48642
-7.48309
-7.4788
-7.47365
-7.46772
-7.46116
-7.45417
-7.44703
-7.44011
-7.43379
-7.42832
-7.4239
-7.4208
-7.41953
-7.42083
-7.42489
-7.43056
-7.43581
-7.43916
-7.4403
-7.43987
-7.43944
-7.44058
-7.44401
-7.45021
-7.45993
-7.47402
-7.49312
-7.51737
-7.54644
-7.57989
-7.6174
-7.65873
-7.7037
-7.75211
-7.80352
-7.85737
-7.91299
-7.96956
-8.02628
-8.08243
-8.1374
-8.19068
-8.24184
-8.29052
-8.33648
-8.37954
-8.41954
-8.45638
-8.48996
-8.52018
-8.54695
-8.5702
-8.58981
-8.6057
-8.61777
-8.62591
-8.63002
-8.63001
-8.62577
-8.61722
-8.60426
-8.58682
-8.56481
-8.53817
-8.50681
-8.47066
-8.42964
-8.38368
-8.33273
-8.27673
-8.21563
-8.14937
-8.07786
-8.00105
-7.91888
-7.83126
-7.73814
-7.63944
-7.53512
-7.42521
-7.30969
-7.18852
-7.06169
-6.92917
-6.79097
-6.64709
-6.49757
-6.34245
-6.18179
-6.01566
-5.84415
-5.66735
-5.48537
-5.29836
-5.10644
-4.90976
-4.70848
-4.50278
-4.29282
-4.07879
-3.86086
-3.63921
-3.41404
-3.18553
-2.95387
-2.71925
-2.48185
-2.24185
-1.99942
-1.75475
-1.50805
-1.25952
-1.00933
-0.757645
-0.50463
-0.250483
0.0045497
0.260267
0.516548
0.773217
1.03011
1.28703
1.54381
1.80025
2.05617
2.31137
2.56567
2.81888
3.07083
3.32135
3.57028
3.81746
4.06271
4.30588
4.54681
4.78534
5.02136
5.25473
5.48534
5.71309
5.93786
6.15956
6.37809
6.59333
6.80521
7.0136
7.21843
7.41961
7.61705
7.81069
8.00046
8.18628
8.36811
8.54596
8.71983
8.89038
9.05589
9.22498
9.36797
-7.43511
-7.43452
-7.43413
-7.43557
-7.43982
-7.44616
-7.4535
-7.46116
-7.46866
-7.47568
-7.48207
-7.48776
-7.49271
-7.49685
-7.5001
-7.50238
-7.50361
-7.50376
-7.5028
-7.50069
-7.49747
-7.49315
-7.48778
-7.48142
-7.47415
-7.46601
-7.45711
-7.44768
-7.43803
-7.4287
-7.4203
-7.41364
-7.40972
-7.40946
-7.41272
-7.41759
-7.42239
-7.42642
-7.42956
-7.43228
-7.43539
-7.44001
-7.4471
-7.45763
-7.4724
-7.49171
-7.51515
-7.54215
-7.57248
-7.60578
-7.64183
-7.68056
-7.72191
-7.76578
-7.81199
-7.86018
-7.90993
-7.96074
-8.01207
-8.06339
-8.1142
-8.16407
-8.2126
-8.25944
-8.30431
-8.34695
-8.38718
-8.4248
-8.45967
-8.49164
-8.52057
-8.54634
-8.56881
-8.58786
-8.60334
-8.61515
-8.62315
-8.62722
-8.62725
-8.62313
-8.61476
-8.60204
-8.58488
-8.56319
-8.5369
-8.50593
-8.47021
-8.42966
-8.3842
-8.33379
-8.27838
-8.21789
-8.15227
-8.08144
-8.00533
-7.92387
-7.83701
-7.74467
-7.6468
-7.54336
-7.43433
-7.3197
-7.19943
-7.07349
-6.94187
-6.80456
-6.66158
-6.51294
-6.35871
-6.19891
-6.03365
-5.86297
-5.687
-5.50584
-5.31962
-5.12847
-4.93256
-4.73202
-4.52705
-4.31779
-4.10446
-3.8872
-3.66622
-3.4417
-3.21383
-2.98279
-2.74878
-2.51196
-2.27253
-2.03065
-1.78653
-1.54036
-1.29233
-1.04261
-0.791374
-0.538803
-0.285094
-0.0304715
0.224893
0.48084
0.737213
0.993824
1.2505
1.50705
1.76329
2.01903
2.27409
2.52827
2.78139
3.03328
3.28377
3.5327
3.77991
4.02521
4.26845
4.50947
4.74811
4.98425
5.21777
5.44853
5.67643
5.90137
6.12325
6.34195
6.55737
6.76941
6.97798
7.18299
7.38435
7.58198
7.77581
7.96576
8.15177
8.3338
8.51185
8.68583
8.8564
9.02127
9.18985
9.32608
-7.43941
-7.4385
-7.43903
-7.44356
-7.45107
-7.45959
-7.46822
-7.47647
-7.48406
-7.49089
-7.49698
-7.50231
-7.50681
-7.51043
-7.51309
-7.51473
-7.5153
-7.51475
-7.51308
-7.51027
-7.50632
-7.50127
-7.49513
-7.48788
-7.47955
-7.47023
-7.46006
-7.44924
-7.43817
-7.42753
-7.41817
-7.41134
-7.40807
-7.40811
-7.40999
-7.41254
-7.41572
-7.41992
-7.42543
-7.4322
-7.44052
-7.4516
-7.46642
-7.48508
-7.50733
-7.53278
-7.56113
-7.59201
-7.62518
-7.66047
-7.69774
-7.7369
-7.77785
-7.82047
-7.86457
-7.9099
-7.95615
-8.00301
-8.05013
-8.09715
-8.14372
-8.18955
-8.2343
-8.27771
-8.31951
-8.35947
-8.39738
-8.43304
-8.46626
-8.49688
-8.52472
-8.54963
-8.57142
-8.58996
-8.60507
-8.61662
-8.62446
-8.62845
-8.62848
-8.62441
-8.61613
-8.60355
-8.58657
-8.56509
-8.53904
-8.50835
-8.47293
-8.43271
-8.38762
-8.33761
-8.28263
-8.22261
-8.15748
-8.08717
-8.0116
-7.93072
-7.84446
-7.75275
-7.65554
-7.55279
-7.44446
-7.33052
-7.21094
-7.08568
-6.95474
-6.81811
-6.6758
-6.52783
-6.37424
-6.21508
-6.05043
-5.88037
-5.70499
-5.5244
-5.33874
-5.14813
-4.95274
-4.75272
-4.54825
-4.33949
-4.12664
-3.90986
-3.68936
-3.4653
-3.23789
-3.00731
-2.77375
-2.53738
-2.29837
-2.05692
-1.81322
-1.56746
-1.31983
-1.07049
-0.819615
-0.567405
-0.314049
-0.0597564
0.195309
0.450983
0.707102
0.963478
1.21994
1.47629
1.73236
1.98794
2.24286
2.49693
2.74996
3.00178
3.25225
3.50117
3.74839
3.99372
4.237
4.47807
4.71679
4.95302
5.18663
5.41751
5.64553
5.87059
6.09259
6.31143
6.52699
6.73917
6.94789
7.15304
7.35455
7.55232
7.74629
7.93637
8.12251
8.30463
8.48272
8.65661
8.82689
8.9908
9.1586
9.28825
-7.44472
-7.44428
-7.44706
-7.45434
-7.46319
-7.47197
-7.48034
-7.48815
-7.49534
-7.50187
-7.5077
-7.51275
-7.51694
-7.5202
-7.52246
-7.52368
-7.5238
-7.5228
-7.52067
-7.5174
-7.513
-7.5075
-7.5008
-7.49287
-7.48381
-7.47384
-7.46316
-7.45207
-7.44104
-7.43088
-7.42273
-7.41736
-7.41422
-7.41238
-7.41185
-7.41309
-7.41673
-7.42267
-7.43078
-7.44171
-7.456
-7.47365
-7.49444
-7.51815
-7.54452
-7.57323
-7.60406
-7.63685
-7.67143
-7.70763
-7.7453
-7.7843
-7.82451
-7.86581
-7.90804
-7.95104
-7.99461
-8.03852
-8.08254
-8.12644
-8.16994
-8.21281
-8.2548
-8.29567
-8.33517
-8.37311
-8.40926
-8.44342
-8.47538
-8.50496
-8.53196
-8.55618
-8.57745
-8.59558
-8.6104
-8.62173
-8.62942
-8.63332
-8.6333
-8.62923
-8.62099
-8.60847
-8.59157
-8.57021
-8.54429
-8.51375
-8.47851
-8.43849
-8.39364
-8.3439
-8.28921
-8.22951
-8.16473
-8.09479
-8.01962
-7.93916
-7.85335
-7.76211
-7.66539
-7.56315
-7.45533
-7.3419
-7.22282
-7.09807
-6.96762
-6.83146
-6.68961
-6.5421
-6.38894
-6.2302
-6.06595
-5.89627
-5.72126
-5.54104
-5.35571
-5.16544
-4.97036
-4.77066
-4.56648
-4.35804
-4.14548
-3.92902
-3.70882
-3.48507
-3.25797
-3.02771
-2.79446
-2.5584
-2.3197
-2.07857
-1.8352
-1.58976
-1.34244
-1.09339
-0.842818
-0.590905
-0.33785
-0.0838266
0.170983
0.426432
0.682328
0.938508
1.19478
1.45096
1.70687
1.96232
2.2171
2.47106
2.72401
2.97578
3.2262
3.47511
3.72232
3.96765
4.21095
4.45205
4.6908
4.92708
5.16074
5.39168
5.61977
5.84493
6.06703
6.28595
6.50161
6.71389
6.92269
7.12794
7.32953
7.5274
7.72145
7.91161
8.09779
8.27991
8.45794
8.63159
8.80142
8.96426
9.1313
9.25483
-7.44885
-7.4497
-7.45515
-7.46348
-7.47199
-7.48014
-7.48794
-7.49533
-7.50223
-7.50854
-7.51418
-7.51904
-7.52304
-7.5261
-7.52815
-7.52914
-7.52903
-7.52781
-7.52545
-7.52197
-7.51736
-7.51156
-7.50446
-7.49626
-7.48719
-7.47738
-7.46708
-7.45674
-7.44712
-7.43896
-7.43257
-7.42733
-7.42275
-7.41954
-7.4186
-7.42025
-7.42492
-7.4331
-7.44484
-7.46001
-7.47833
-7.49956
-7.52347
-7.54976
-7.57822
-7.60863
-7.64078
-7.67452
-7.70968
-7.74609
-7.78363
-7.82217
-7.86159
-7.90179
-7.94263
-7.98396
-8.02567
-8.06757
-8.1095
-8.15126
-8.19266
-8.2335
-8.27358
-8.31267
-8.35059
-8.38712
-8.42204
-8.45515
-8.48625
-8.5151
-8.54152
-8.56528
-8.58619
-8.60404
-8.61864
-8.62981
-8.63738
-8.64119
-8.6411
-8.63699
-8.62872
-8.6162
-8.59931
-8.57796
-8.55208
-8.52158
-8.4864
-8.44647
-8.40173
-8.35212
-8.2976
-8.23809
-8.17352
-8.10382
-8.02891
-7.94874
-7.86323
-7.77232
-7.67595
-7.57405
-7.46658
-7.3535
-7.23476
-7.11034
-6.98021
-6.84435
-6.70279
-6.55554
-6.40264
-6.24413
-6.0801
-5.91062
-5.7358
-5.55575
-5.37058
-5.18046
-4.98552
-4.78595
-4.58192
-4.37362
-4.16122
-3.94491
-3.72488
-3.50132
-3.2744
-3.04434
-2.81129
-2.57544
-2.33697
-2.09607
-1.85294
-1.60774
-1.36066
-1.11186
-0.861539
-0.609882
-0.357078
-0.10329
0.151306
0.406551
0.662255
0.918254
1.17436
1.43039
1.68615
1.94146
2.19612
2.44998
2.70284
2.95454
3.20493
3.45382
3.701
3.94632
4.1896
4.43069
4.66945
4.90574
5.13943
5.37041
5.59856
5.82378
6.04594
6.26493
6.48064
6.69297
6.90183
7.10713
7.30878
7.5067
7.70081
7.891
8.07718
8.25924
8.43712
8.61046
8.77977
8.94154
9.10789
9.22591
-7.45009
-7.45262
-7.45962
-7.46764
-7.47546
-7.4831
-7.49054
-7.4977
-7.50444
-7.51066
-7.51624
-7.52106
-7.52503
-7.52806
-7.53009
-7.53107
-7.53096
-7.52975
-7.52741
-7.52394
-7.51929
-7.5134
-7.50637
-7.49846
-7.48984
-7.48077
-7.47169
-7.46308
-7.45534
-7.44847
-7.44223
-7.43653
-7.43174
-7.42886
-7.42875
-7.43194
-7.43878
-7.44934
-7.46332
-7.48054
-7.50075
-7.52364
-7.54898
-7.57649
-7.60595
-7.63715
-7.66989
-7.704
-7.73932
-7.7757
-7.81302
-7.85116
-7.89
-7.92942
-7.96933
-8.00959
-8.05011
-8.09073
-8.13133
-8.17174
-8.21181
-8.25138
-8.29025
-8.32825
-8.36519
-8.40085
-8.43504
-8.46754
-8.49812
-8.52656
-8.55265
-8.57615
-8.59686
-8.61455
-8.62903
-8.64009
-8.64755
-8.65127
-8.6511
-8.64691
-8.63857
-8.62597
-8.60901
-8.5876
-8.56165
-8.53109
-8.49586
-8.45591
-8.41117
-8.3616
-8.30713
-8.24769
-8.18322
-8.11364
-8.03888
-7.95887
-7.87354
-7.78283
-7.68666
-7.58497
-7.47771
-7.36484
-7.2463
-7.12207
-6.99211
-6.85641
-6.71499
-6.56786
-6.41506
-6.25664
-6.09268
-5.92324
-5.74846
-5.56842
-5.38328
-5.19315
-4.99822
-4.79864
-4.59462
-4.38633
-4.17397
-3.95771
-3.73774
-3.51425
-3.28743
-3.05748
-2.82455
-2.58884
-2.35053
-2.1098
-1.86684
-1.62184
-1.37495
-1.12636
-0.876248
-0.624819
-0.372224
-0.118646
0.135766
0.390819
0.646355
0.90218
1.15813
1.414
1.66962
1.92479
2.17934
2.43308
2.68586
2.93749
3.18784
3.43668
3.68384
3.92911
4.17236
4.41343
4.65217
4.88845
5.12214
5.35313
5.58131
5.80656
6.02876
6.24778
6.46352
6.67588
6.88477
7.09009
7.29177
7.48972
7.68384
7.87403
8.06017
8.24213
8.41981
8.59279
8.76155
8.92227
9.08797
9.20119
-7.4469
-7.45083
-7.45798
-7.46544
-7.47292
-7.48038
-7.48772
-7.49484
-7.50162
-7.50793
-7.51365
-7.51863
-7.52279
-7.52602
-7.52825
-7.52942
-7.52949
-7.52844
-7.52624
-7.52288
-7.51834
-7.51268
-7.50607
-7.49879
-7.4911
-7.48333
-7.47571
-7.46834
-7.46127
-7.45463
-7.44854
-7.44337
-7.43973
-7.43839
-7.43992
-7.44469
-7.45291
-7.46463
-7.47966
-7.49783
-7.51888
-7.54252
-7.56849
-7.59653
-7.62642
-7.65794
-7.69092
-7.72517
-7.76054
-7.79689
-7.83409
-7.872
-7.91051
-7.94951
-7.98892
-8.02861
-8.06848
-8.10843
-8.14832
-8.18802
-8.22741
-8.26632
-8.30459
-8.34206
-8.37853
-8.41381
-8.44769
-8.47994
-8.51032
-8.53861
-8.56457
-8.58798
-8.6086
-8.62621
-8.64061
-8.65159
-8.65897
-8.6626
-8.66234
-8.65804
-8.64959
-8.63688
-8.61979
-8.59824
-8.57214
-8.54143
-8.50607
-8.466
-8.42117
-8.37152
-8.31701
-8.25754
-8.19307
-8.1235
-8.04878
-7.96883
-7.88358
-7.79295
-7.69687
-7.59528
-7.48812
-7.37535
-7.2569
-7.13274
-7.00284
-6.86719
-6.72579
-6.57866
-6.42584
-6.26738
-6.10337
-5.93387
-5.75901
-5.57888
-5.39363
-5.20339
-5.00834
-4.80866
-4.60455
-4.39619
-4.18378
-3.96748
-3.7475
-3.52402
-3.29723
-3.06732
-2.83447
-2.59885
-2.36065
-2.12004
-1.87722
-1.63237
-1.38565
-1.13725
-0.887338
-0.636111
-0.383715
-0.130323
0.123906
0.378782
0.634144
0.889805
1.14559
1.4013
1.65676
1.91179
2.1662
2.41983
2.6725
2.92406
3.17435
3.42316
3.67026
3.91548
4.15867
4.39968
4.63838
4.87462
5.1083
5.33928
5.56746
5.79273
6.01496
6.23399
6.44973
6.66209
6.87098
7.07631
7.278
7.47595
7.67008
7.86025
8.04632
8.22814
8.40558
8.57816
8.74635
8.90609
9.07116
9.18031
-7.43735
-7.44192
-7.44877
-7.4562
-7.46387
-7.47151
-7.47903
-7.48636
-7.4934
-7.50001
-7.50605
-7.51138
-7.51587
-7.51941
-7.52193
-7.52338
-7.52371
-7.5229
-7.52095
-7.51788
-7.51375
-7.50868
-7.50289
-7.49656
-7.48985
-7.4829
-7.47589
-7.46893
-7.46217
-7.45589
-7.4505
-7.44644
-7.44415
-7.44416
-7.44697
-7.45288
-7.46208
-7.47459
-7.49031
-7.50904
-7.53054
-7.55455
-7.58082
-7.6091
-7.6392
-7.67091
-7.70405
-7.73844
-7.77392
-7.81033
-7.84755
-7.88544
-7.92391
-7.96283
-8.00212
-8.04166
-8.08135
-8.1211
-8.1608
-8.20033
-8.23955
-8.27831
-8.31646
-8.35382
-8.39023
-8.42546
-8.45933
-8.49159
-8.52201
-8.55035
-8.57636
-8.5998
-8.62044
-8.63805
-8.65241
-8.66333
-8.67063
-8.67416
-8.67378
-8.66934
-8.66074
-8.64786
-8.63059
-8.60884
-8.58251
-8.55157
-8.51598
-8.4757
-8.4307
-8.3809
-8.32625
-8.26668
-8.20211
-8.13248
-8.05772
-7.97775
-7.89249
-7.80186
-7.7058
-7.60422
-7.49709
-7.38432
-7.26588
-7.14172
-7.0118
-6.8761
-6.73464
-6.58743
-6.43451
-6.27594
-6.11178
-5.94215
-5.76712
-5.58683
-5.40138
-5.21096
-5.01573
-4.81589
-4.61163
-4.40316
-4.19064
-3.97428
-3.75424
-3.53074
-3.30395
-3.07406
-2.84126
-2.60572
-2.3676
-2.12709
-1.88439
-1.63968
-1.39314
-1.14492
-0.895211
-0.644177
-0.391984
-0.138776
0.115254
0.369951
0.625123
0.880609
1.13621
1.39176
1.64705
1.90192
2.15619
2.4097
2.66226
2.91373
3.16397
3.41273
3.65975
3.90489
4.14799
4.38893
4.62756
4.86376
5.09739
5.32834
5.55652
5.78181
6.00405
6.22307
6.43879
6.65113
6.86
7.06532
7.267
7.46496
7.65908
7.84921
8.03518
8.21684
8.39401
8.56619
8.73381
8.89261
9.05706
9.16287
-7.41985
-7.4244
-7.43141
-7.43961
-7.44798
-7.4561
-7.46398
-7.47165
-7.4791
-7.48618
-7.49273
-7.49854
-7.50345
-7.50739
-7.51031
-7.51213
-7.51285
-7.51247
-7.51099
-7.50846
-7.50496
-7.50059
-7.49548
-7.48978
-7.48361
-7.47712
-7.47043
-7.46378
-7.45746
-7.45183
-7.44721
-7.44402
-7.44273
-7.44381
-7.44765
-7.45453
-7.46457
-7.47778
-7.49406
-7.51322
-7.53504
-7.5593
-7.58578
-7.61426
-7.64456
-7.67648
-7.70984
-7.74444
-7.78013
-7.81676
-7.8542
-7.89232
-7.93103
-7.97019
-8.00969
-8.04943
-8.08931
-8.12923
-8.16909
-8.20878
-8.24817
-8.28712
-8.32548
-8.36308
-8.39972
-8.43521
-8.46932
-8.50181
-8.53246
-8.56099
-8.58715
-8.6107
-8.63141
-8.64904
-8.66335
-8.67416
-8.68131
-8.68466
-8.68408
-8.67945
-8.67065
-8.65756
-8.64005
-8.61803
-8.5914
-8.56012
-8.52422
-8.48369
-8.43848
-8.38848
-8.33365
-8.27392
-8.20922
-8.13949
-8.06465
-7.98462
-7.89931
-7.80864
-7.71253
-7.61093
-7.50377
-7.39098
-7.27251
-7.1483
-7.01831
-6.88253
-6.74096
-6.59363
-6.44057
-6.28184
-6.11753
-5.94771
-5.77248
-5.59196
-5.4063
-5.21567
-5.02023
-4.82021
-4.61581
-4.40722
-4.19461
-3.97817
-3.75808
-3.53455
-3.30776
-3.0779
-2.84515
-2.60968
-2.37165
-2.13124
-1.88867
-1.64414
-1.39779
-1.14977
-0.900289
-0.649471
-0.397487
-0.144489
0.109334
0.363823
0.618795
0.874079
1.12948
1.38483
1.63994
1.89464
2.14876
2.40212
2.65456
2.90593
3.15615
3.40489
3.6518
3.89682
4.13982
4.38066
4.61921
4.85534
5.08891
5.31983
5.54799
5.77331
5.99555
6.21454
6.43023
6.64254
6.85138
7.05668
7.25835
7.45631
7.65043
7.8405
8.02637
8.20784
8.38474
8.5565
8.72356
8.8815
9.04531
9.14849
-7.39399
-7.39838
-7.4063
-7.4159
-7.42527
-7.43395
-7.44226
-7.45045
-7.45859
-7.46645
-7.47372
-7.48016
-7.48563
-7.49008
-7.49348
-7.49582
-7.49707
-7.49725
-7.49634
-7.4944
-7.49149
-7.48769
-7.48309
-7.47782
-7.47197
-7.46574
-7.45935
-7.45308
-7.44719
-7.44203
-7.438
-7.43555
-7.43513
-7.43714
-7.4419
-7.44963
-7.46041
-7.47422
-7.49096
-7.51047
-7.53256
-7.55705
-7.58375
-7.61247
-7.64305
-7.67528
-7.70898
-7.74395
-7.78003
-7.81705
-7.85489
-7.89343
-7.93255
-7.97211
-8.01202
-8.05218
-8.09249
-8.13284
-8.17314
-8.21325
-8.25307
-8.29247
-8.33129
-8.36936
-8.40647
-8.44243
-8.47698
-8.50987
-8.5408
-8.5695
-8.59573
-8.61928
-8.63994
-8.65745
-8.67156
-8.68209
-8.68896
-8.69204
-8.69123
-8.6864
-8.67742
-8.66414
-8.64641
-8.6241
-8.5971
-8.56537
-8.52909
-8.48831
-8.4429
-8.39273
-8.33771
-8.27781
-8.21296
-8.14313
-8.06822
-7.98814
-7.90277
-7.81204
-7.71589
-7.61425
-7.50707
-7.39426
-7.27577
-7.15152
-7.02146
-6.8856
-6.74393
-6.59648
-6.4433
-6.28443
-6.11997
-5.94997
-5.77456
-5.59384
-5.40798
-5.21715
-5.02155
-4.82138
-4.61687
-4.40818
-4.1955
-3.979
-3.75889
-3.53534
-3.30858
-3.07877
-2.8461
-2.61075
-2.37287
-2.13262
-1.89025
-1.64595
-1.39985
-1.1521
-0.902875
-0.652325
-0.400588
-0.147856
0.10572
0.359952
0.614682
0.869715
1.12488
1.37999
1.63488
1.88938
2.14331
2.3965
2.64878
2.90004
3.1503
3.39908
3.64589
3.89077
4.13365
4.37438
4.61284
4.84888
5.0824
5.31328
5.54144
5.76682
5.9891
6.20804
6.42368
6.63595
6.84476
7.05004
7.25169
7.44966
7.64378
7.8338
8.01954
8.20082
8.37744
8.54878
8.7153
8.87243
9.03554
9.13679
-7.36097
-7.36566
-7.3751
-7.3865
-7.39697
-7.40638
-7.41546
-7.42435
-7.43318
-7.44193
-7.45027
-7.45771
-7.46389
-7.46882
-7.47272
-7.47561
-7.47746
-7.47822
-7.47788
-7.47648
-7.47405
-7.47066
-7.46638
-7.46134
-7.4557
-7.44968
-7.44347
-7.43739
-7.43177
-7.427
-7.42351
-7.42174
-7.42206
-7.42486
-7.43038
-7.43878
-7.45013
-7.4644
-7.48151
-7.50133
-7.5237
-7.54845
-7.57541
-7.60442
-7.63532
-7.6679
-7.70198
-7.73735
-7.77388
-7.81139
-7.84975
-7.88882
-7.92846
-7.96856
-8.00902
-8.04974
-8.09061
-8.13155
-8.17244
-8.21315
-8.25356
-8.29354
-8.33291
-8.37152
-8.40913
-8.44553
-8.48045
-8.51359
-8.54463
-8.57326
-8.5993
-8.62261
-8.64302
-8.66023
-8.67386
-8.6838
-8.6902
-8.693
-8.69204
-8.68717
-8.67821
-8.66494
-8.64715
-8.62469
-8.59734
-8.56512
-8.52842
-8.48744
-8.44189
-8.39153
-8.33629
-8.27616
-8.21115
-8.14121
-8.06622
-7.98606
-7.9006
-7.80978
-7.71355
-7.61186
-7.50464
-7.39182
-7.27331
-7.14901
-7.01889
-6.88294
-6.74117
-6.59362
-6.44033
-6.28136
-6.11676
-5.94663
-5.77108
-5.59024
-5.40429
-5.21339
-5.01771
-4.81746
-4.61283
-4.404
-4.19118
-3.97456
-3.75435
-3.53076
-3.30399
-3.07424
-2.8417
-2.60656
-2.369
-2.12916
-1.88721
-1.64329
-1.39755
-1.15019
-0.901349
-0.651179
-0.399831
-0.147491
0.10569
0.359531
0.613863
0.8685
1.12327
1.378
1.63251
1.88665
2.14023
2.39308
2.64502
2.89597
3.14612
3.39486
3.6415
3.88619
4.1289
4.3695
4.60785
4.8438
5.07725
5.30807
5.53627
5.76183
5.98422
6.20313
6.41872
6.63095
6.83974
7.04501
7.24666
7.44468
7.63886
7.82884
8.01445
8.19553
8.37186
8.5428
8.7088
8.86517
9.02754
9.12753
-7.32374
-7.32933
-7.34082
-7.35443
-7.36606
-7.37576
-7.38523
-7.39518
-7.40528
-7.41516
-7.42455
-7.433
-7.43997
-7.44544
-7.44981
-7.45325
-7.45566
-7.45696
-7.45712
-7.45615
-7.45405
-7.45091
-7.44681
-7.44188
-7.43628
-7.43025
-7.42406
-7.41806
-7.41262
-7.40816
-7.40509
-7.40381
-7.40467
-7.40799
-7.41397
-7.42276
-7.43441
-7.44891
-7.46621
-7.4862
-7.50873
-7.53367
-7.56087
-7.59015
-7.62136
-7.65427
-7.68871
-7.7245
-7.76149
-7.7995
-7.8384
-7.87802
-7.91826
-7.95896
-8.00004
-8.04137
-8.08285
-8.12435
-8.16576
-8.20696
-8.24781
-8.28818
-8.3279
-8.3668
-8.40465
-8.44122
-8.4762
-8.50929
-8.54007
-8.56814
-8.59346
-8.61616
-8.63611
-8.65286
-8.66561
-8.67437
-8.67988
-8.6823
-8.68135
-8.67673
-8.66814
-8.65523
-8.63773
-8.61554
-8.58872
-8.5573
-8.52127
-8.48053
-8.43494
-8.38441
-8.32892
-8.26854
-8.20331
-8.13315
-8.05796
-7.97759
-7.89194
-7.80093
-7.70453
-7.6027
-7.49537
-7.38245
-7.26384
-7.13944
-7.00919
-6.87311
-6.7312
-6.58351
-6.43006
-6.27092
-6.10615
-5.93584
-5.76012
-5.57915
-5.39307
-5.20207
-5.00629
-4.80594
-4.60115
-4.39217
-4.17918
-3.96242
-3.7421
-3.51845
-3.29166
-3.06195
-2.82953
-2.5946
-2.35736
-2.11795
-1.87642
-1.63289
-1.38758
-1.14065
-0.892259
-0.642532
-0.391664
-0.139793
0.112894
0.366248
0.620074
0.87421
1.12847
1.38269
1.6367
1.89033
2.14339
2.3957
2.64705
2.89728
3.14623
3.39382
3.63985
3.88415
4.12653
4.36684
4.60491
4.84062
5.07382
5.30442
5.53247
5.75807
5.98052
6.19936
6.41488
6.62708
6.83586
7.04113
7.24281
7.44096
7.6353
7.82531
8.0108
8.19169
8.36776
8.53831
8.70382
8.85949
9.02107
9.12043
-7.28592
-7.29274
-7.30674
-7.32229
-7.33425
-7.34441
-7.35497
-7.36604
-7.37721
-7.38814
-7.39854
-7.40793
-7.41566
-7.42176
-7.42671
-7.43075
-7.43371
-7.4355
-7.43607
-7.43541
-7.43353
-7.43048
-7.42635
-7.42132
-7.41556
-7.40935
-7.40299
-7.39686
-7.39136
-7.38689
-7.38385
-7.38262
-7.38352
-7.38684
-7.39277
-7.40148
-7.413
-7.42738
-7.44455
-7.46443
-7.48694
-7.51196
-7.53933
-7.56887
-7.60039
-7.63367
-7.66853
-7.70478
-7.74228
-7.78084
-7.8203
-7.86048
-7.90124
-7.94244
-7.98397
-8.02569
-8.06751
-8.10927
-8.15089
-8.19223
-8.23317
-8.27356
-8.31326
-8.35208
-8.38983
-8.42626
-8.46109
-8.49391
-8.52408
-8.55075
-8.57416
-8.59525
-8.61434
-8.63108
-8.64474
-8.65479
-8.66105
-8.66368
-8.66281
-8.6583
-8.64983
-8.63704
-8.61959
-8.59755
-8.57121
-8.5406
-8.5052
-8.46466
-8.41903
-8.36835
-8.31272
-8.2522
-8.1868
-8.11646
-8.04108
-7.96056
-7.87477
-7.78366
-7.68721
-7.58536
-7.47801
-7.36508
-7.24647
-7.12206
-6.99182
-6.85574
-6.71384
-6.56613
-6.41265
-6.25346
-6.08863
-5.91824
-5.74242
-5.56133