/*--------------------------------*- C++ -*----------------------------------*\
  =========                 |
  \\      /  F ield         | OpenFOAM: The Open Source CFD Toolbox
   \\    /   O peration     | Website:  https://openfoam.org
    \\  /    A nd           | Version:  8
     \\/     M anipulation  |
\*---------------------------------------------------------------------------*/
FoamFile
{
    version     2.0;
    format      ascii;
    class       surfaceScalarField;
    location    "1500";
    object      phi;
}
// * * * * * * * * * * * * * * * * * * * * * * * * * * * * * * * * * * * * * //

dimensions      [0 3 -1 0 0 0 0];

internalField   nonuniform List<scalar> 
24170
(
3.00476e-06
1.29127e-07
2.85979e-06
1.44856e-07
2.72582e-06
1.33888e-07
2.606e-06
1.19814e-07
2.50804e-06
9.78541e-08
2.42589e-06
8.18879e-08
2.35521e-06
7.03753e-08
2.29632e-06
5.88431e-08
2.24725e-06
4.90598e-08
2.20614e-06
4.11344e-08
2.17311e-06
3.30636e-08
2.14558e-06
2.756e-08
2.12042e-06
2.52142e-08
2.09862e-06
2.18622e-08
2.08035e-06
1.83388e-08
2.06631e-06
1.40886e-08
2.05827e-06
8.07812e-09
-5.68974e-10
2.05885e-06
3.50772e-06
7.78228e-08
3.53844e-06
1.13844e-07
3.55025e-06
1.21708e-07
3.54598e-06
1.23766e-07
3.52878e-06
1.14741e-07
3.5082e-06
1.02217e-07
3.48529e-06
9.31992e-08
3.45833e-06
8.59145e-08
3.42985e-06
7.7661e-08
3.39864e-06
7.24339e-08
3.36634e-06
6.54152e-08
3.33622e-06
5.77085e-08
3.30734e-06
5.41056e-08
3.27953e-06
4.96953e-08
3.25416e-06
4.37288e-08
3.23061e-06
3.76518e-08
3.20835e-06
3.03624e-08
2.1783e-08
3.18605e-06
3.83324e-06
5.67749e-08
3.85085e-06
9.62538e-08
3.86607e-06
1.06503e-07
3.88041e-06
1.09451e-07
3.89071e-06
1.04438e-07
3.8969e-06
9.59158e-08
3.90056e-06
8.94448e-08
3.90229e-06
8.41549e-08
3.90164e-06
7.83056e-08
3.89993e-06
7.41425e-08
3.89659e-06
6.87628e-08
3.89154e-06
6.27606e-08
3.88664e-06
5.90201e-08
3.88151e-06
5.48592e-08
3.87583e-06
4.94341e-08
3.86974e-06
4.37641e-08
3.86278e-06
3.73378e-08
2.97794e-08
3.85477e-06
4.21706e-06
4.42428e-08
4.22965e-06
8.33964e-08
4.24057e-06
9.53132e-08
4.25085e-06
9.89148e-08
4.25914e-06
9.59338e-08
4.26521e-06
8.97089e-08
4.27033e-06
8.42984e-08
4.27506e-06
7.94829e-08
4.27895e-06
7.4495e-08
4.28279e-06
7.03372e-08
4.28606e-06
6.55136e-08
4.28837e-06
6.04495e-08
4.29085e-06
5.6553e-08
4.29327e-06
5.24301e-08
4.29522e-06
4.75004e-08
4.29674e-06
4.22443e-08
4.29756e-06
3.65158e-08
3.03667e-08
4.297e-06
4.64637e-06
3.5169e-08
4.65716e-06
7.2703e-08
4.66694e-06
8.55726e-08
4.67592e-06
8.99743e-08
4.68331e-06
8.85535e-08
4.68897e-06
8.40425e-08
4.69385e-06
7.94001e-08
4.69839e-06
7.49286e-08
4.70246e-06
7.04109e-08
4.70651e-06
6.6275e-08
4.71023e-06
6.17832e-08
4.71346e-06
5.72264e-08
4.71678e-06
5.324e-08
4.72011e-06
4.91176e-08
4.72314e-06
4.44897e-08
4.72581e-06
3.95899e-08
4.72791e-06
3.44332e-08
2.91897e-08
4.72899e-06
5.1216e-06
2.8141e-08
5.13131e-06
6.2737e-08
5.14055e-06
7.60996e-08
5.14919e-06
8.11416e-08
5.15654e-06
8.10514e-08
5.16242e-06
7.80697e-08
5.16751e-06
7.42912e-08
5.17216e-06
7.02997e-08
5.1764e-06
6.61875e-08
5.18051e-06
6.21817e-08
5.18433e-06
5.79658e-08
5.18782e-06
5.37391e-08
5.1913e-06
4.97675e-08
5.19472e-06
4.57053e-08
5.19787e-06
4.13433e-08
5.20067e-06
3.68023e-08
5.20292e-06
3.21503e-08
2.76738e-08
5.20447e-06
5.6465e-06
2.26567e-08
5.65537e-06
5.39881e-08
5.6642e-06
6.73353e-08
5.67262e-06
7.27396e-08
5.68008e-06
7.36254e-08
5.68634e-06
7.18224e-08
5.69182e-06
6.88165e-08
5.69679e-06
6.53112e-08
5.70137e-06
6.15949e-08
5.7057e-06
5.78247e-08
5.70975e-06
5.39101e-08
5.71351e-06
4.99723e-08
5.71716e-06
4.61293e-08
5.72067e-06
4.22122e-08
5.7239e-06
3.8131e-08
5.72676e-06
3.39545e-08
5.72913e-06
2.97985e-08
2.58248e-08
5.73091e-06
4.40934e-06
1.94382e-08
4.4152e-06
4.79358e-08
4.42134e-06
6.10415e-08
4.42722e-06
6.67242e-08
4.43258e-06
6.81712e-08
4.43731e-06
6.7035e-08
4.44154e-06
6.45604e-08
4.44539e-06
6.1441e-08
4.44894e-06
5.80362e-08
4.45226e-06
5.44913e-08
4.45536e-06
5.08093e-08
4.45825e-06
4.70815e-08
4.46101e-06
4.33845e-08
4.46361e-06
3.9621e-08
4.466e-06
3.5757e-08
4.46812e-06
3.18467e-08
4.46991e-06
2.79954e-08
2.4365e-08
4.47136e-06
5.14282e-06
1.64612e-08
5.14871e-06
4.2184e-08
5.1551e-06
5.46899e-08
5.16136e-06
6.04815e-08
5.1672e-06
6.23338e-08
5.17248e-06
6.17667e-08
5.17726e-06
5.97749e-08
5.18165e-06
5.70407e-08
5.18571e-06
5.39507e-08
5.18951e-06
5.06711e-08
5.19307e-06
4.72437e-08
5.19639e-06
4.37547e-08
5.19953e-06
4.02487e-08
5.20248e-06
3.66966e-08
5.20517e-06
3.30756e-08
5.20757e-06
2.94653e-08
5.20964e-06
2.59418e-08
2.26239e-08
5.21135e-06
5.99851e-06
1.37864e-08
6.00431e-06
3.63184e-08
6.0109e-06
4.80249e-08
6.01748e-06
5.38315e-08
6.02378e-06
5.5996e-08
6.0296e-06
5.59148e-08
6.03494e-06
5.43999e-08
6.03988e-06
5.20716e-08
6.04449e-06
4.93161e-08
6.04881e-06
4.6329e-08
6.05287e-06
4.31809e-08
6.05667e-06
3.99532e-08
6.06025e-06
3.66907e-08
6.06357e-06
3.33716e-08
6.06662e-06
3.00536e-08
6.06935e-06
2.67495e-08
6.07172e-06
2.35631e-08
2.05715e-08
6.07374e-06
6.99671e-06
1.13248e-08
7.00237e-06
3.07253e-08
7.00907e-06
4.13264e-08
7.01594e-06
4.69444e-08
7.02264e-06
4.92797e-08
7.02898e-06
4.95587e-08
7.03489e-06
4.84728e-08
7.04041e-06
4.65239e-08
7.04558e-06
4.41198e-08
7.05046e-06
4.14359e-08
7.05504e-06
3.85935e-08
7.05934e-06
3.5654e-08
7.06336e-06
3.26551e-08
7.06711e-06
2.96439e-08
7.07053e-06
2.66235e-08
7.07363e-06
2.3677e-08
7.07634e-06
2.08261e-08
1.81895e-08
7.07871e-06
8.16123e-06
9.14873e-09
8.16664e-06
2.53249e-08
8.17337e-06
3.45765e-08
8.18047e-06
3.98259e-08
8.18755e-06
4.21871e-08
8.19439e-06
4.27083e-08
8.20086e-06
4.19587e-08
8.20698e-06
4.04027e-08
8.21274e-06
3.83255e-08
8.21819e-06
3.59878e-08
8.22332e-06
3.34546e-08
8.22813e-06
3.0834e-08
8.23262e-06
2.81474e-08
8.23679e-06
2.54622e-08
8.24063e-06
2.27931e-08
8.24409e-06
2.0204e-08
8.2472e-06
1.77247e-08
1.54184e-08
8.24992e-06
9.51972e-06
7.14746e-09
9.52487e-06
2.01877e-08
9.53155e-06
2.78833e-08
9.53883e-06
3.25244e-08
9.54625e-06
3.47482e-08
9.55355e-06
3.53644e-08
9.56061e-06
3.48992e-08
9.56732e-06
3.36484e-08
9.57371e-06
3.19442e-08
9.57975e-06
2.99246e-08
9.58546e-06
2.77559e-08
9.5908e-06
2.54584e-08
9.5958e-06
2.31466e-08
9.60041e-06
2.08046e-08
9.60469e-06
1.8536e-08
9.60856e-06
1.63117e-08
9.61208e-06
1.42268e-08
1.22706e-08
9.61522e-06
1.11045e-05
5.33805e-09
1.11094e-05
1.53413e-08
1.1116e-05
2.13096e-08
1.11234e-05
2.51097e-08
1.11311e-05
2.6993e-08
1.11389e-05
2.75788e-08
1.11465e-05
2.7255e-08
1.11539e-05
2.6296e-08
1.11609e-05
2.48996e-08
1.11676e-05
2.3248e-08
1.11739e-05
2.14247e-08
1.11798e-05
1.95271e-08
1.11853e-05
1.75811e-08
1.11905e-05
1.56666e-08
1.11952e-05
1.37773e-08
1.11996e-05
1.19813e-08
1.12035e-05
1.02625e-08
8.69731e-09
1.12072e-05
1.29533e-05
3.65262e-09
1.2958e-05
1.07315e-08
1.29645e-05
1.4876e-08
1.2972e-05
1.75736e-08
1.29801e-05
1.89381e-08
1.29883e-05
1.93265e-08
1.29965e-05
1.90483e-08
1.30045e-05
1.82843e-08
1.30122e-05
1.7187e-08
1.30196e-05
1.58796e-08
1.30265e-05
1.44446e-08
1.30331e-05
1.29471e-08
1.30393e-05
1.14314e-08
1.3045e-05
9.93564e-09
1.30503e-05
8.48275e-09
1.30552e-05
7.09828e-09
1.30597e-05
5.79354e-09
4.59909e-09
1.30637e-05
1.51101e-05
2.04288e-09
1.51146e-05
6.25782e-09
1.51211e-05
8.42243e-09
1.51289e-05
9.84877e-09
1.51373e-05
1.04858e-08
1.51461e-05
1.05385e-08
1.51549e-05
1.01946e-08
1.51637e-05
9.55478e-09
1.51721e-05
8.71728e-09
1.51803e-05
7.74987e-09
1.5188e-05
6.71274e-09
1.51953e-05
5.64356e-09
1.52022e-05
4.57661e-09
1.52085e-05
3.53301e-09
1.52145e-05
2.53222e-09
1.522e-05
1.58756e-09
1.52251e-05
7.08559e-10
-8.7419e-11
1.52298e-05
1.76261e-05
4.20898e-10
1.76307e-05
1.64264e-09
1.76374e-05
1.69189e-09
1.76456e-05
1.658e-09
1.76547e-05
1.39172e-09
1.76642e-05
1.00305e-09
1.76739e-05
4.8622e-10
1.76836e-05
-6.48263e-11
1.76929e-05
-6.84943e-10
1.7702e-05
-1.29584e-09
1.77106e-05
-1.93153e-09
1.77188e-05
-2.53337e-09
1.77265e-05
-3.13026e-09
1.77337e-05
-3.67989e-09
1.77405e-05
-4.20383e-09
1.77467e-05
-4.67212e-09
1.77526e-05
-5.10258e-09
-5.46727e-09
1.77579e-05
1.78277e-05
-1.14315e-09
1.78322e-05
-2.86023e-09
1.78387e-05
-4.8494e-09
1.78466e-05
-6.36165e-09
1.78555e-05
-7.48439e-09
1.78648e-05
-8.38605e-09
1.78744e-05
-9.03207e-09
1.78838e-05
-9.56982e-09
1.78931e-05
-9.93145e-09
1.7902e-05
-1.02492e-08
1.79106e-05
-1.045e-08
1.79186e-05
-1.06394e-08
1.79263e-05
-1.07447e-08
1.79334e-05
-1.08482e-08
1.79402e-05
-1.0887e-08
1.79464e-05
-1.09235e-08
1.79522e-05
-1.09065e-08
-1.08777e-08
1.79576e-05
1.58828e-05
-2.61463e-09
1.58869e-05
-7.05183e-09
1.58929e-05
-1.09435e-08
1.59002e-05
-1.3712e-08
1.59083e-05
-1.56173e-08
1.59168e-05
-1.68659e-08
1.59253e-05
-1.76731e-08
1.59339e-05
-1.80783e-08
1.59421e-05
-1.82585e-08
1.59502e-05
-1.82122e-08
1.59577e-05
-1.80767e-08
1.5965e-05
-1.78181e-08
1.59717e-05
-1.75359e-08
1.59781e-05
-1.71857e-08
1.5984e-05
-1.68396e-08
1.59896e-05
-1.64526e-08
1.59947e-05
-1.60802e-08
-1.56747e-08
1.59996e-05
1.41501e-05
-4.11859e-09
1.41543e-05
-1.1227e-08
1.41602e-05
-1.69233e-08
1.41672e-05
-2.07979e-08
1.41749e-05
-2.33063e-08
1.41828e-05
-2.48589e-08
1.41909e-05
-2.56785e-08
1.41987e-05
-2.59731e-08
1.42063e-05
-2.58611e-08
1.42136e-05
-2.55033e-08
1.42205e-05
-2.49646e-08
1.4227e-05
-2.43297e-08
1.42331e-05
-2.36259e-08
1.42387e-05
-2.28986e-08
1.42441e-05
-2.21551e-08
1.4249e-05
-2.14225e-08
1.42537e-05
-2.0695e-08
-1.99876e-08
1.4258e-05
1.26067e-05
-5.74186e-09
1.2611e-05
-1.56344e-08
1.26171e-05
-2.30362e-08
1.26241e-05
-2.78229e-08
1.26316e-05
-3.0778e-08
1.26392e-05
-3.24998e-08
1.26468e-05
-3.32859e-08
1.26542e-05
-3.33567e-08
1.26612e-05
-3.29387e-08
1.26679e-05
-3.22196e-08
1.26742e-05
-3.12908e-08
1.26802e-05
-3.02656e-08
1.26857e-05
-2.91604e-08
1.26908e-05
-2.80624e-08
1.26956e-05
-2.6953e-08
1.27001e-05
-2.58921e-08
1.27043e-05
-2.48485e-08
-2.38558e-08
1.27081e-05
1.12317e-05
-7.62276e-09
1.12365e-05
-2.04862e-08
1.1243e-05
-2.94521e-08
1.125e-05
-3.48764e-08
1.12574e-05
-3.81218e-08
1.12648e-05
-3.99128e-08
1.1272e-05
-4.05479e-08
1.1279e-05
-4.03361e-08
1.12856e-05
-3.9575e-08
1.12919e-05
-3.84565e-08
1.12977e-05
-3.71438e-08
1.13031e-05
-3.56971e-08
1.13082e-05
-3.423e-08
1.13129e-05
-3.27414e-08
1.13172e-05
-3.13172e-08
1.13212e-05
-2.99184e-08
1.1325e-05
-2.86112e-08
-2.7336e-08
1.13285e-05
1.00069e-05
-9.88961e-09
1.00124e-05
-2.60311e-08
1.00192e-05
-3.62406e-08
1.00264e-05
-4.20053e-08
1.00337e-05
-4.53967e-08
1.00409e-05
-4.71433e-08
1.00479e-05
-4.75428e-08
1.00545e-05
-4.69732e-08
1.00608e-05
-4.58106e-08
1.00666e-05
-4.42979e-08
1.0072e-05
-4.25646e-08
1.0077e-05
-4.07333e-08
1.00817e-05
-3.88647e-08
1.00859e-05
-3.70385e-08
1.00899e-05
-3.52672e-08
1.00935e-05
-3.35962e-08
1.0097e-05
-3.19991e-08
-3.0506e-08
1.01001e-05
8.91597e-06
-1.27599e-08
8.92241e-06
-3.24321e-08
8.92958e-06
-4.33959e-08
8.93681e-06
-4.92163e-08
8.94407e-06
-5.2642e-08
8.95117e-06
-5.42406e-08
8.95794e-06
-5.42893e-08
8.9643e-06
-5.33213e-08
8.97023e-06
-5.17509e-08
8.97573e-06
-4.98009e-08
8.9808e-06
-4.76491e-08
8.98547e-06
-4.5403e-08
8.98976e-06
-4.31601e-08
8.9937e-06
-4.09805e-08
8.99731e-06
-3.89055e-08
9.00065e-06
-3.6943e-08
9.00374e-06
-3.51112e-08
-3.33819e-08
9.00663e-06
7.94439e-06
-1.64689e-08
7.95193e-06
-3.9967e-08
7.95944e-06
-5.08874e-08
7.96677e-06
-5.65251e-08
7.97408e-06
-5.99428e-08
7.98114e-06
-6.12945e-08
7.98779e-06
-6.09348e-08
7.99397e-06
-5.95064e-08
7.9997e-06
-5.74697e-08
8.00497e-06
-5.50777e-08
8.0098e-06
-5.248e-08
8.0142e-06
-4.9819e-08
8.01822e-06
-4.71891e-08
8.0219e-06
-4.46648e-08
8.02526e-06
-4.22798e-08
8.02836e-06
-4.00553e-08
8.03123e-06
-3.79948e-08
-3.60621e-08
8.03389e-06
7.07924e-06
-2.13738e-08
7.08816e-06
-4.8877e-08
7.09614e-06
-5.88436e-08
7.10381e-06
-6.41888e-08
7.11141e-06
-6.75371e-08
7.11867e-06
-6.85498e-08
7.12544e-06
-6.76888e-08
7.13168e-06
-6.57489e-08
7.13743e-06
-6.32275e-08
7.14267e-06
-6.03264e-08
7.14744e-06
-5.72513e-08
7.15175e-06
-5.41437e-08
7.15567e-06
-5.11063e-08
7.15922e-06
-4.82334e-08
7.16246e-06
-4.55324e-08
7.16543e-06
-4.30351e-08
7.16817e-06
-4.07474e-08
-3.86298e-08
7.17071e-06
6.3097e-06
-2.85582e-08
6.32038e-06
-5.95106e-08
6.32962e-06
-6.81117e-08
6.33859e-06
-7.31471e-08
6.34737e-06
-7.63132e-08
6.3556e-06
-7.67829e-08
6.36318e-06
-7.52626e-08
6.37008e-06
-7.26821e-08
6.37636e-06
-6.94947e-08
6.38201e-06
-6.59799e-08
6.38706e-06
-6.23107e-08
6.39156e-06
-5.86449e-08
6.39554e-06
-5.51237e-08
6.39908e-06
-5.17655e-08
6.4022e-06
-4.86601e-08
6.40496e-06
-4.58042e-08
6.40739e-06
-4.31971e-08
-4.0796e-08
6.40954e-06
5.62896e-06
-4.26128e-08
5.64414e-06
-7.46654e-08
5.65825e-06
-8.22378e-08
5.67206e-06
-8.69519e-08
5.68493e-06
-8.91876e-08
5.69638e-06
-8.8228e-08
5.70634e-06
-8.52392e-08
5.71487e-06
-8.12184e-08
5.72202e-06
-7.66483e-08
5.72786e-06
-7.18206e-08
5.73247e-06
-6.69222e-08
5.73591e-06
-6.21276e-08
5.7383e-06
-5.75227e-08
5.73973e-06
-5.32019e-08
5.74032e-06
-4.92444e-08
5.7402e-06
-4.56956e-08
5.73953e-06
-4.2533e-08
-3.99282e-08
5.73864e-06
5.05144e-06
-9.17415e-08
5.08674e-06
-1.09937e-07
5.11447e-06
-1.09978e-07
5.13381e-06
-1.06295e-07
5.14487e-06
-1.0024e-07
5.14891e-06
-9.22703e-08
5.1474e-06
-8.37474e-08
5.14155e-06
-7.53836e-08
5.13231e-06
-6.74154e-08
5.12045e-06
-5.9961e-08
5.10658e-06
-5.30652e-08
5.09121e-06
-4.67787e-08
5.07478e-06
-4.11207e-08
5.05768e-06
-3.60955e-08
5.04015e-06
-3.1724e-08
5.02255e-06
-2.81032e-08
5.00527e-06
-2.5262e-08
-2.34769e-08
4.98881e-06
4.36481e-06
4.25487e-06
4.14489e-06
4.0386e-06
3.93836e-06
3.84609e-06
3.76234e-06
3.68695e-06
3.61954e-06
3.55957e-06
3.5065e-06
3.45972e-06
3.4186e-06
3.3825e-06
3.35078e-06
3.32267e-06
3.29741e-06
3.27393e-06
-8.16734e-09
8.15045e-09
-2.21964e-08
1.40112e-08
-3.74772e-08
1.5259e-08
-5.06284e-08
1.31326e-08
-5.65362e-08
5.89357e-09
-4.91608e-08
-7.40202e-09
-2.63959e-08
-2.27686e-08
9.34331e-09
-3.57682e-08
5.4001e-08
-4.46527e-08
1.02762e-07
-4.87792e-08
1.51227e-07
-4.84566e-08
1.96264e-07
-4.50472e-08
2.35885e-07
-3.96126e-08
2.68819e-07
-3.29385e-08
2.9437e-07
-2.55455e-08
3.12103e-07
-1.77357e-08
3.21753e-07
-9.64575e-09
3.22983e-07
-1.23096e-09
3.15605e-07
7.37858e-09
2.99816e-07
1.57885e-08
2.76238e-07
2.35765e-08
2.45883e-07
3.03546e-08
2.10169e-07
3.5707e-08
1.71e-07
3.91681e-08
1.30705e-07
4.02811e-08
9.19692e-08
3.87289e-08
5.74475e-08
3.45026e-08
2.93031e-08
2.81266e-08
8.57409e-09
2.07053e-08
-4.97965e-09
1.35225e-08
-1.22289e-08
7.22531e-09
-1.36151e-08
1.3383e-09
-8.76712e-09
-4.87057e-09
3.50829e-09
-1.23383e-08
2.4904e-08
-2.14136e-08
5.49853e-08
-3.01237e-08
8.9497e-08
-3.45273e-08
1.22095e-07
-3.26233e-08
1.47471e-07
-2.53944e-08
1.62695e-07
-1.52595e-08
1.6816e-07
-5.51036e-09
1.66788e-07
1.30573e-09
1.62191e-07
4.54192e-09
1.57985e-07
4.11266e-09
1.56056e-07
1.88985e-09
1.49829e-07
6.08332e-09
1.30432e-07
1.93907e-08
8.97063e-08
4.05154e-08
2.29543e-08
6.67779e-08
-6.71683e-08
8.99645e-08
-1.75207e-07
1.08072e-07
-2.98532e-07
1.23284e-07
-4.33455e-07
1.34941e-07
-5.75913e-07
1.4249e-07
-7.2159e-07
1.45677e-07
-8.67647e-07
1.4612e-07
-1.00985e-06
1.42172e-07
-1.14542e-06
1.35615e-07
-1.27333e-06
1.27856e-07
-1.39213e-06
1.18846e-07
-1.50188e-06
1.0969e-07
-1.60287e-06
1.01021e-07
-1.69536e-06
9.24413e-08
-1.77985e-06
8.4515e-08
-1.85763e-06
7.77399e-08
-1.92923e-06
7.16224e-08
-1.99547e-06
6.6204e-08
-2.05692e-06
6.14482e-08
-2.11421e-06
5.72666e-08
-2.1678e-06
5.35896e-08
-2.21816e-06
5.03316e-08
-2.2656e-06
4.74278e-08
-2.31042e-06
4.48114e-08
-2.35287e-06
4.24287e-08
-2.39312e-06
4.02391e-08
-2.43135e-06
3.82006e-08
-2.46765e-06
3.62897e-08
-2.50216e-06
3.44749e-08
-2.5349e-06
3.27454e-08
-2.566e-06
3.10761e-08
-2.59546e-06
2.94643e-08
-2.62337e-06
2.78893e-08
-2.64971e-06
2.63535e-08
-2.67456e-06
2.48395e-08
-2.6979e-06
2.33532e-08
-2.71979e-06
2.18798e-08
-2.74021e-06
2.0426e-08
-2.7592e-06
1.89782e-08
-2.77672e-06
1.75382e-08
-2.79279e-06
1.60973e-08
-2.80743e-06
1.46473e-08
-2.82061e-06
1.3179e-08
-2.8323e-06
1.16868e-08
-2.84248e-06
1.01614e-08
-2.85109e-06
8.59615e-09
-2.85808e-06
6.97818e-09
-2.8634e-06
5.30055e-09
-2.86696e-06
3.54674e-09
-2.86871e-06
1.73335e-09
-2.86866e-06
-5.23736e-11
-2.86705e-06
-1.61228e-09
-2.86407e-06
-2.98242e-09
-2.85975e-06
-4.31147e-09
-2.85411e-06
-5.62947e-09
-2.84715e-06
-6.944e-09
-2.83887e-06
-8.26261e-09
-2.82927e-06
-9.57952e-09
-2.81834e-06
-1.08985e-08
-2.80609e-06
-1.2214e-08
-2.79253e-06
-1.3527e-08
-2.77765e-06
-1.48344e-08
-2.76147e-06
-1.61338e-08
-2.744e-06
-1.74257e-08
-2.72524e-06
-1.8704e-08
-2.70522e-06
-1.99732e-08
-2.68394e-06
-2.12233e-08
-2.66143e-06
-2.2463e-08
-2.6377e-06
-2.36788e-08
-2.61278e-06
-2.48831e-08
-2.58667e-06
-2.60597e-08
-2.55942e-06
-2.72238e-08
-2.53103e-06
-2.83575e-08
-2.50154e-06
-2.94778e-08
-2.47096e-06
-3.05664e-08
-2.43933e-06
-3.16405e-08
-2.40665e-06
-3.2683e-08
-2.37296e-06
-3.37095e-08
-2.33828e-06
-3.47031e-08
-2.30265e-06
-3.56728e-08
-2.26608e-06
-3.66132e-08
-2.22861e-06
-3.75282e-08
-2.19025e-06
-3.84126e-08
-2.15104e-06
-3.9269e-08
-2.11102e-06
-4.00765e-08
-2.07024e-06
-4.08299e-08
-2.02878e-06
-4.15191e-08
-1.98669e-06
-4.21363e-08
-1.94387e-06
-4.28673e-08
-1.90027e-06
-4.36564e-08
-1.856e-06
-4.43457e-08
-1.81108e-06
-4.49985e-08
-1.76554e-06
-4.56212e-08
-1.7194e-06
-4.61995e-08
-1.67271e-06
-4.67523e-08
-1.62546e-06
-4.72654e-08
-1.57772e-06
-4.77585e-08
-1.52946e-06
-4.82152e-08
-1.48075e-06
-4.86526e-08
-1.4316e-06
-4.9071e-08
-1.38206e-06
-4.9467e-08
-1.33215e-06
-4.98492e-08
-1.2819e-06
-5.02023e-08
-1.23133e-06
-5.05304e-08
-1.18047e-06
-5.0826e-08
-1.12935e-06
-5.10916e-08
-1.078e-06
-5.13349e-08
-1.02643e-06
-5.15547e-08
-9.74674e-07
-5.17585e-08
-9.22727e-07
-5.19501e-08
-8.70603e-07
-5.21318e-08
-8.18306e-07
-5.23085e-08
-7.65844e-07
-5.24777e-08
-7.13221e-07
-5.2641e-08
-6.60447e-07
-5.27936e-08
-6.07532e-07
-5.29385e-08
-5.54482e-07
-5.30741e-08
-5.01303e-07
-5.32074e-08
-4.47992e-07
-5.33384e-08
-3.94553e-07
-5.34723e-08
-3.40979e-07
-5.36047e-08
-2.87284e-07
-5.37309e-08
-2.3349e-07
-5.38263e-08
-1.79663e-07
-5.38648e-08
-1.25907e-07
-5.37885e-08
-7.24293e-08
-5.35135e-08
-1.96794e-08
-5.27788e-08
3.17264e-08
-5.14368e-08
8.00825e-08
-4.83762e-08
1.2461e-07
-4.45452e-08
-1.97383e-08
1.44339e-07
-3.49838e-09
1.16166e-08
-9.77458e-09
2.02611e-08
-1.27813e-08
1.82151e-08
-5.34257e-09
5.65536e-09
1.75621e-08
-1.70446e-08
5.50208e-08
-4.48886e-08
1.02536e-07
-7.02928e-08
1.54568e-07
-8.78157e-08
2.06047e-07
-9.6132e-08
2.53685e-07
-9.64267e-08
2.96027e-07
-9.07956e-08
3.32355e-07
-8.13805e-08
3.62575e-07
-6.98289e-08
3.86866e-07
-5.72319e-08
4.05569e-07
-4.42457e-08
4.1906e-07
-3.12273e-08
4.27765e-07
-1.83488e-08
4.32236e-07
-5.70086e-09
4.32863e-07
6.75235e-09
4.29534e-07
1.91181e-08
4.21768e-07
3.13426e-08
4.08958e-07
4.31646e-08
3.90539e-07
5.41227e-08
3.66169e-07
6.35368e-08
3.3589e-07
7.05547e-08
3.00347e-07
7.42658e-08
2.60926e-07
7.39142e-08
2.19865e-07
6.91762e-08
1.80234e-07
6.03217e-08
1.45649e-07
4.80835e-08
1.19593e-07
3.32607e-08
1.04491e-07
1.63919e-08
1.01701e-07
-2.10773e-09
1.10735e-07
-2.14262e-08
1.29261e-07
-3.99604e-08
1.51681e-07
-5.25788e-08
1.70887e-07
-5.37488e-08
1.82225e-07
-4.39803e-08
1.84278e-07
-2.74663e-08
1.77135e-07
-8.14947e-09
1.62313e-07
9.27866e-09
1.41079e-07
2.24627e-08
1.08147e-07
3.74186e-08
5.35112e-08
5.86348e-08
-3.14275e-08
8.67663e-08
-1.46665e-07
1.21227e-07
-2.83956e-07
1.56647e-07
-4.33663e-07
1.90169e-07
-5.88032e-07
2.21128e-07
-7.44848e-07
2.4675e-07
-9.02037e-07
2.65253e-07
-1.05585e-06
2.77089e-07
-1.20293e-06
2.82014e-07
-1.34018e-06
2.79757e-07
-1.46563e-06
2.71122e-07
-1.5776e-06
2.58109e-07
-1.67729e-06
2.41856e-07
-1.76535e-06
2.2369e-07
-1.84295e-06
2.05449e-07
-1.91182e-06
1.87725e-07
-1.9734e-06
1.71262e-07
-2.0287e-06
1.56323e-07
-2.07914e-06
1.4287e-07
-2.12553e-06
1.30906e-07
-2.16839e-06
1.20587e-07
-2.20838e-06
1.11604e-07
-2.24596e-06
1.03772e-07
-2.28144e-06
9.6927e-08
-2.31509e-06
9.09001e-08
-2.34706e-06
8.5556e-08
-2.37751e-06
8.07669e-08
-2.40652e-06
7.64283e-08
-2.43418e-06
7.24536e-08
-2.46054e-06
6.87708e-08
-2.48563e-06
6.53211e-08
-2.50951e-06
6.2057e-08
-2.53217e-06
5.89427e-08
-2.55366e-06
5.59461e-08
-2.57397e-06
5.3046e-08
-2.59312e-06
5.02205e-08
-2.61112e-06
4.74575e-08
-2.62797e-06
4.47412e-08
-2.64368e-06
4.20654e-08
-2.65826e-06
3.9418e-08
-2.6717e-06
3.67966e-08
-2.68402e-06
3.41915e-08
-2.6952e-06
3.16015e-08
-2.70524e-06
2.90185e-08
-2.71412e-06
2.6439e-08
-2.72186e-06
2.38566e-08
-2.72847e-06
2.12622e-08
-2.73395e-06
1.86516e-08
-2.73829e-06
1.60207e-08
-2.74151e-06
1.33691e-08
-2.74363e-06
1.06962e-08
-2.74467e-06
8.00671e-09
-2.74469e-06
5.30747e-09
-2.74377e-06
2.61651e-09
-2.74202e-06
-3.37767e-11
-2.73946e-06
-2.6167e-09
-2.7359e-06
-5.1737e-09
-2.73113e-06
-7.75039e-09
-2.7251e-06
-1.03349e-08
-2.7178e-06
-1.29255e-08
-2.70921e-06
-1.55222e-08
-2.69933e-06
-1.8126e-08
-2.68816e-06
-2.0732e-08
-2.6757e-06
-2.33404e-08
-2.66194e-06
-2.59445e-08
-2.6469e-06
-2.8544e-08
-2.63057e-06
-3.11319e-08
-2.61296e-06
-3.37073e-08
-2.59408e-06
-3.62638e-08
-2.57395e-06
-3.87995e-08
-2.55258e-06
-4.13095e-08
-2.52997e-06
-4.37907e-08
-2.50615e-06
-4.62403e-08
-2.48115e-06
-4.8654e-08
-2.45496e-06
-5.10315e-08
-2.42763e-06
-5.33671e-08
-2.39916e-06
-5.56634e-08
-2.36959e-06
-5.79132e-08
-2.33893e-06
-6.01215e-08
-2.30721e-06
-6.22802e-08
-2.27446e-06
-6.43958e-08
-2.24069e-06
-6.646e-08
-2.20593e-06
-6.84795e-08
-2.17021e-06
-7.04445e-08
-2.13355e-06
-7.23593e-08
-2.09598e-06
-7.4217e-08
-2.05752e-06
-7.60224e-08
-2.0182e-06
-7.77699e-08
-1.97805e-06
-7.94625e-08
-1.93707e-06
-8.1088e-08
-1.89529e-06
-8.26486e-08
-1.85271e-06
-8.41386e-08
-1.8093e-06
-8.55739e-08
-1.76516e-06
-8.70287e-08
-1.72039e-06
-8.84727e-08
-1.67494e-06
-8.98368e-08
-1.62886e-06
-9.11361e-08
-1.58216e-06
-9.23711e-08
-1.53487e-06
-9.3536e-08
-1.48701e-06
-9.46405e-08
-1.43861e-06
-9.56816e-08
-1.38969e-06
-9.66679e-08
-1.34028e-06
-9.75971e-08
-1.29041e-06
-9.84782e-08
-1.24011e-06
-9.93194e-08
-1.18942e-06
-1.00119e-07
-1.13835e-06
-1.0088e-07
-1.08694e-06
-1.01588e-07
-1.03521e-06
-1.0224e-07
-9.83184e-07
-1.02832e-07
-9.309e-07
-1.03363e-07
-8.78383e-07
-1.03847e-07
-8.2565e-07
-1.04285e-07
-7.72723e-07
-1.0469e-07
-7.19611e-07
-1.05068e-07
-6.66324e-07
-1.05429e-07
-6.12868e-07
-1.05775e-07
-5.59248e-07
-1.06112e-07
-5.0547e-07
-1.06434e-07
-4.5154e-07
-1.0674e-07
-3.97467e-07
-1.07029e-07
-3.43257e-07
-1.07305e-07
-2.88913e-07
-1.07572e-07
-2.34435e-07
-1.07839e-07
-1.79823e-07
-1.08108e-07
-1.25074e-07
-1.08378e-07
-7.0196e-08
-1.08633e-07
-1.52095e-08
-1.08837e-07
3.98382e-08
-1.08937e-07
9.48569e-08
-1.08829e-07
1.49656e-07
-1.08334e-07
2.03985e-07
-1.07127e-07
2.57206e-07
-1.04675e-07
3.08743e-07
-9.99261e-08
3.553e-07
-9.11123e-08
-6.40981e-08
3.99654e-07
3.7469e-10
1.12165e-08
3.94539e-09
1.66582e-08
1.87823e-08
3.33676e-09
5.26458e-08
-2.82327e-08
1.03811e-07
-6.82246e-08
1.62516e-07
-1.03608e-07
2.18997e-07
-1.26778e-07
2.67751e-07
-1.36578e-07
3.07164e-07
-1.35545e-07
3.37912e-07
-1.2718e-07
3.61587e-07
-1.1447e-07
3.79709e-07
-9.95055e-08
3.93465e-07
-8.35838e-08
4.03664e-07
-6.74321e-08
4.10852e-07
-5.14314e-08
4.15393e-07
-3.57681e-08
4.17574e-07
-2.05279e-08
4.17634e-07
-5.7587e-09
4.15868e-07
8.52033e-09
4.12637e-07
2.2351e-08
4.08202e-07
3.57792e-08
4.02588e-07
4.87803e-08
3.95506e-07
6.12047e-08
3.86343e-07
7.27005e-08
3.74235e-07
8.2661e-08
3.58287e-07
9.02121e-08
3.37924e-07
9.4273e-08
3.13357e-07
9.37373e-08
2.859e-07
8.77713e-08
2.57964e-07
7.60068e-08
2.32554e-07
5.86583e-08
2.12384e-07
3.65354e-08
1.99103e-07
1.11527e-08
1.92286e-07
-1.46403e-08
1.87057e-07
-3.47483e-08
1.75995e-07
-4.15343e-08
1.5574e-07
-3.35051e-08
1.26682e-07
-1.49372e-08
8.93942e-08
9.81453e-09
4.16231e-08
3.96049e-08
-2.23962e-08
7.32687e-08
-1.09085e-07
1.09121e-07
-2.19829e-07
1.48133e-07
-3.51488e-07
1.90265e-07
-4.97866e-07
2.33124e-07
-6.5039e-07
2.73726e-07
-8.03142e-07
3.09384e-07
-9.51169e-07
3.38172e-07
-1.08931e-06
3.59258e-07
-1.21484e-06
3.72263e-07
-1.32678e-06
3.77179e-07
-1.42434e-06
3.74633e-07
-1.50776e-06
3.65434e-07
-1.57867e-06
3.50664e-07
-1.63943e-06
3.31883e-07
-1.69213e-06
3.10813e-07
-1.739e-06
2.88728e-07
-1.78191e-06
2.666e-07
-1.82195e-06
2.45489e-07
-1.86004e-06
2.25823e-07
-1.89668e-06
2.07894e-07
-1.93211e-06
1.91762e-07
-1.96664e-06
1.77389e-07
-2.00036e-06
1.64626e-07
-2.03318e-06
1.53398e-07
-2.06508e-06
1.43509e-07
-2.09608e-06
1.34759e-07
-2.12614e-06
1.26975e-07
-2.15524e-06
1.19997e-07
-2.18338e-06
1.13684e-07
-2.21054e-06
1.07916e-07
-2.23671e-06
1.02591e-07
-2.26189e-06
9.7621e-08
-2.28606e-06
9.29364e-08
-2.30923e-06
8.84802e-08
-2.33139e-06
8.42048e-08
-2.35254e-06
8.00734e-08
-2.37266e-06
7.6056e-08
-2.39175e-06
7.21297e-08
-2.40981e-06
6.8275e-08
-2.42683e-06
6.44778e-08
-2.44282e-06
6.07252e-08
-2.45776e-06
5.70085e-08
-2.47166e-06
5.33187e-08
-2.48451e-06
4.96503e-08
-2.49632e-06
4.59968e-08
-2.50707e-06
4.23542e-08
-2.51677e-06
3.87167e-08
-2.5254e-06
3.50803e-08
-2.53297e-06
3.1438e-08
-2.53949e-06
2.77849e-08
-2.54496e-06
2.41155e-08
-2.54938e-06
2.04281e-08
-2.55274e-06
1.67235e-08
-2.55506e-06
1.30037e-08
-2.55634e-06
9.27486e-09
-2.55659e-06
5.54214e-09
-2.5558e-06
1.81717e-09
-2.55395e-06
-1.89441e-09
-2.55097e-06
-5.59876e-09
-2.54682e-06
-9.32984e-09
-2.54147e-06
-1.30993e-08
-2.5349e-06
-1.68979e-08
-2.52711e-06
-2.0716e-08
-2.51807e-06
-2.4552e-08
-2.50779e-06
-2.83992e-08
-2.49625e-06
-3.22549e-08
-2.48346e-06
-3.61127e-08
-2.46942e-06
-3.99682e-08
-2.45413e-06
-4.38154e-08
-2.43759e-06
-4.76484e-08
-2.41981e-06
-5.1462e-08
-2.4008e-06
-5.52491e-08
-2.38056e-06
-5.90054e-08
-2.35912e-06
-6.27232e-08
-2.33648e-06
-6.63995e-08
-2.31266e-06
-7.00266e-08
-2.28769e-06
-7.3603e-08
-2.26157e-06
-7.71216e-08
-2.23433e-06
-8.05822e-08
-2.206e-06
-8.39791e-08
-2.17658e-06
-8.73128e-08
-2.14611e-06
-9.05787e-08
-2.11461e-06
-9.37774e-08
-2.08209e-06
-9.69058e-08
-2.04859e-06
-9.99641e-08
-2.01413e-06
-1.0295e-07
-1.97873e-06
-1.05863e-07
-1.9424e-06
-1.08699e-07
-1.90519e-06
-1.11457e-07
-1.8671e-06
-1.14136e-07
-1.82816e-06
-1.16734e-07
-1.7884e-06
-1.19252e-07
-1.74783e-06
-1.21684e-07
-1.70647e-06
-1.24032e-07
-1.66434e-06
-1.26298e-07
-1.62144e-06
-1.28493e-07
-1.57785e-06
-1.30649e-07
-1.5336e-06
-1.32752e-07
-1.48871e-06
-1.3477e-07
-1.44319e-06
-1.36701e-07
-1.39706e-06
-1.38541e-07
-1.35034e-06
-1.40286e-07
-1.30306e-06
-1.41942e-07
-1.25525e-06
-1.43508e-07
-1.20693e-06
-1.4499e-07
-1.15812e-06
-1.4639e-07
-1.10886e-06
-1.47715e-07
-1.05918e-06
-1.48976e-07
-1.0091e-06
-1.50175e-07
-9.58657e-07
-1.51309e-07
-9.07868e-07
-1.52367e-07
-8.56763e-07
-1.53337e-07
-8.05369e-07
-1.54221e-07
-7.53715e-07
-1.55014e-07
-7.01827e-07
-1.55734e-07
-6.49727e-07
-1.56386e-07
-5.97432e-07
-1.56987e-07
-5.44956e-07
-1.57547e-07
-4.92309e-07
-1.58079e-07
-4.39497e-07
-1.58591e-07
-3.86524e-07
-1.59088e-07
-3.33397e-07
-1.59565e-07
-2.80121e-07
-1.60019e-07
-2.26704e-07
-1.60449e-07
-1.7315e-07
-1.6086e-07
-1.19462e-07
-1.61261e-07
-6.56396e-08
-1.61662e-07
-1.1679e-08
-1.6207e-07
4.24228e-08
-1.62479e-07
9.66571e-08
-1.62868e-07
1.51009e-07
-1.63188e-07
2.05431e-07
-1.63359e-07
2.59845e-07
-1.63241e-07
3.14117e-07
-1.62606e-07
3.68046e-07
-1.61055e-07
4.2128e-07
-1.5791e-07
4.73405e-07
-1.5205e-07
5.23482e-07
-1.4119e-07
-1.15579e-07
5.74963e-07
-1.64848e-10
1.13597e-08
1.31337e-08
3.32905e-09
5.3531e-08
-3.70817e-08
1.15989e-07
-9.0704e-08
1.83072e-07
-1.35314e-07
2.40715e-07
-1.61258e-07
2.83442e-07
-1.69507e-07
3.12191e-07
-1.65332e-07
3.30563e-07
-1.53918e-07
3.42204e-07
-1.38824e-07
3.49786e-07
-1.22051e-07
3.54896e-07
-1.04617e-07
3.58347e-07
-8.70331e-08
3.60481e-07
-6.95658e-08
3.6142e-07
-5.23682e-08
3.61195e-07
-3.55417e-08
3.59831e-07
-1.91608e-08
3.57366e-07
-3.29039e-09
3.53875e-07
1.20146e-08
3.49505e-07
2.67251e-08
3.44472e-07
4.08146e-08
3.39014e-07
5.4243e-08
3.3329e-07
6.69321e-08
3.2729e-07
7.87035e-08
3.20743e-07
8.9211e-08
3.13102e-07
9.78539e-08
3.03628e-07
1.03749e-07
2.91615e-07
1.05749e-07
2.76732e-07
1.02652e-07
2.59199e-07
9.35299e-08
2.40024e-07
7.78261e-08
2.20546e-07
5.599e-08
2.0103e-07
3.06554e-08
1.77283e-07
9.08345e-09
1.42486e-07
4.06194e-11
9.46876e-08
6.25071e-09
3.52786e-08
2.59009e-08
-3.68045e-08
5.71467e-08
-1.24232e-07
9.72371e-08
-2.27769e-07
1.43137e-07
-3.46261e-07
1.91756e-07
-4.77626e-07
2.40474e-07
-6.17053e-07
2.8755e-07
-7.58344e-07
3.31545e-07
-8.95582e-07
3.70352e-07
-1.02335e-06
4.0148e-07
-1.13784e-06
4.23865e-07
-1.23745e-06
4.3776e-07
-1.32163e-06
4.43431e-07
-1.39106e-06
4.41678e-07
-1.44746e-06
4.33571e-07
-1.49304e-06
4.20194e-07
-1.53035e-06
4.02739e-07
-1.56209e-06
3.82398e-07
-1.5906e-06
3.60387e-07
-1.61756e-06
3.3778e-07
-1.64419e-06
3.15352e-07
-1.67124e-06
2.93661e-07
-1.69896e-06
2.73206e-07
-1.72737e-06
2.54237e-07
-1.75634e-06
2.3687e-07
-1.78569e-06
2.21112e-07
-1.81521e-06
2.06909e-07
-1.84473e-06
1.94142e-07
-1.87403e-06
1.82695e-07
-1.90295e-06
1.72421e-07
-1.93135e-06
1.6316e-07
-1.95915e-06
1.54764e-07
-1.98625e-06
1.47095e-07
-2.01261e-06
1.40031e-07
-2.03817e-06
1.33465e-07
-2.06289e-06
1.27302e-07
-2.08674e-06
1.21465e-07
-2.1097e-06
1.1589e-07
-2.13175e-06
1.1052e-07
-2.15287e-06
1.05315e-07
-2.17305e-06
1.00238e-07
-2.19226e-06
9.52635e-08
-2.21051e-06
9.0369e-08
-2.22778e-06
8.55374e-08
-2.24406e-06
8.07554e-08
-2.25935e-06
7.60118e-08
-2.27364e-06
7.12984e-08
-2.28692e-06
6.66077e-08
-2.29921e-06
6.19341e-08
-2.31048e-06
5.72724e-08
-2.32075e-06
5.2618e-08
-2.32999e-06
4.79663e-08
-2.33822e-06
4.33118e-08
-2.34542e-06
3.86506e-08
-2.35161e-06
3.39741e-08
-2.35678e-06
2.92794e-08
-2.36092e-06
2.45634e-08
-2.36403e-06
1.98258e-08
-2.36611e-06
1.50678e-08
-2.36714e-06
1.02918e-08
-2.36711e-06
5.50033e-09
-2.36599e-06
6.9631e-10
-2.36377e-06
-4.12301e-09
-2.36041e-06
-8.96749e-09
-2.35589e-06
-1.38555e-08
-2.3502e-06
-1.879e-08
-2.34333e-06
-2.37652e-08
-2.33527e-06
-2.87711e-08
-2.32601e-06
-3.38038e-08
-2.31555e-06
-3.88539e-08
-2.30388e-06
-4.39177e-08
-2.29099e-06
-4.89851e-08
-2.27689e-06
-5.40516e-08
-2.26158e-06
-5.91073e-08
-2.24507e-06
-6.41464e-08
-2.22735e-06
-6.91597e-08
-2.20843e-06
-7.41399e-08
-2.18834e-06
-7.90792e-08
-2.16707e-06
-8.39689e-08
-2.14464e-06
-8.88036e-08
-2.12107e-06
-9.35734e-08
-2.09637e-06
-9.82764e-08
-2.07057e-06