/*--------------------------------*- C++ -*----------------------------------*\
  =========                 |
  \\      /  F ield         | OpenFOAM: The Open Source CFD Toolbox
   \\    /   O peration     | Website:  https://openfoam.org
    \\  /    A nd           | Version:  8
     \\/     M anipulation  |
\*---------------------------------------------------------------------------*/
FoamFile
{
    version     2.0;
    format      ascii;
    class       volVectorField;
    location    "1500";
    object      wallShearStress;
}
// * * * * * * * * * * * * * * * * * * * * * * * * * * * * * * * * * * * * * //

dimensions      [0 2 -2 0 0 0 0];

internalField   uniform (0 0 0);

boundaryField
{
    inlet
    {
        type            calculated;
        value           uniform (0 0 0);
    }
    outlet
    {
        type            calculated;
        value           uniform (0 0 0);
    }
    upperWall
    {
        type            calculated;
        value           nonuniform List<vector> 
223
(
(-0.4441 0.00293815 0)
(-0.474052 0.00539478 0)
(-0.498083 0.00683965 0)
(-0.50378 0.00740234 0)
(-0.500175 0.00740902 0)
(-0.490093 0.00705479 0)
(-0.478268 0.00655481 0)
(-0.466158 0.00599219 0)
(-0.453672 0.00539855 0)
(-0.44185 0.00481759 0)
(-0.430959 0.00426623 0)
(-0.421086 0.00375364 0)
(-0.412247 0.00328513 0)
(-0.404389 0.00286254 0)
(-0.397436 0.00248615 0)
(-0.391294 0.00216689 0)
(-0.385821 0.00191047 0)
(-0.380968 0.00175658 0)
(-0.3771 0.00167807 0)
(-0.374049 0.00162777 5.77602e-22)
(-0.37107 0.00155795 0)
(-0.368173 0.00147733 0)
(-0.365355 0.00139201 0)
(-0.362618 0.00130467 5.89784e-22)
(-0.359965 0.00121778 0)
(-0.357401 0.00113193 0)
(-0.354925 0.00104895 0)
(-0.352538 0.000968557 -1.20147e-21)
(-0.350238 0.00089201 1.20674e-21)
(-0.348026 0.000818587 1.21195e-21)
(-0.3459 0.000749137 0)
(-0.343859 0.000683077 -1.22217e-21)
(-0.341901 0.000621138 0)
(-0.340025 0.000562554 1.23215e-21)
(-0.338228 0.000507717 1.23706e-21)
(-0.336507 0.000456381 -1.24192e-21)
(-0.334862 0.000408713 0)
(-0.333288 0.000364603 0)
(-0.331783 0.000323766 0)
(-0.330345 0.000286223 0)
(-0.32897 0.000251825 -1.26575e-21)
(-0.327655 0.00022053 0)
(-0.326398 0.000192225 0)
(-0.325196 0.000166798 1.27978e-21)
(-0.324045 0.000144073 0)
(-0.322942 0.000123941 1.2891e-21)
(-0.321886 0.000106371 -1.29377e-21)
(-0.320871 9.11721e-05 1.29844e-21)
(-0.319896 7.85289e-05 0)
(-0.318958 6.8212e-05 0)
(-0.318052 6.01771e-05 0)
(-0.317177 5.41591e-05 1.31741e-21)
(-0.316328 5.01768e-05 -1.32223e-21)
(-0.315505 4.797e-05 0)
(-0.3147 4.74891e-05 0)
(-0.313918 4.8365e-05 0)
(-0.313147 5.07378e-05 0)
(-0.312396 5.43331e-05 0)
(-0.311648 5.8983e-05 0)
(-0.310921 6.46089e-05 0)
(-0.310185 7.10944e-05 0)
(-0.309477 7.83012e-05 1.36783e-21)
(-0.308743 8.65812e-05 -1.3731e-21)
(-0.308046 9.52936e-05 0)
(-0.307309 0.0001046 0)
(-0.306601 0.000114659 0)
(-0.305884 0.000125135 -1.39516e-21)
(-0.305116 0.000137505 0)
(-0.30442 0.00014344 0)
(-0.303616 0.000119768 0)
(-0.30275 0.000154598 0)
(-0.302641 0.000238374 0)
(-0.303156 0.000311731 -2.8803e-21)
(-0.301703 0.000398145 0)
(-0.301168 0.000284211 0)
(-0.30077 0.000242638 0)
(-0.3005 0.000313463 0)
(-0.300265 0.000277889 0)
(-0.300057 0.00017951 0)
(-0.311311 0.000109815 0)
(-0.362601 0.000277666 3.60256e-21)
(-0.342995 0.000128259 0)
(-0.357831 0.000614578 0)
(-0.339711 0.00150683 0)
(-0.342044 0.00174779 -3.39201e-21)
(-0.323554 0.00126832 0)
(-0.327011 0.00065454 -3.28852e-21)
(-0.319867 0.000212893 0)
(-0.31644 -7.1152e-05 0)
(-0.296787 -0.000275801 0)
(-0.348179 -0.000324079 -3.6292e-21)
(-0.328706 -0.000148234 0)
(-0.351649 0.000381409 3.69408e-21)
(-0.330573 0.000569733 3.4619e-21)
(-0.315445 0.00058434 0)
(-0.305988 0.000640341 3.21556e-21)
(-0.303914 0.00034333 0)
(-0.309878 5.8829e-05 0)
(-0.294469 -9.33977e-05 0)
(-0.341259 0.000189757 -3.66338e-21)
(-0.319924 0.000275147 0)
(-0.293503 0.000175018 -3.14973e-21)
(-0.345274 0.00119436 3.71708e-21)
(-0.321825 0.00147629 0)
(-0.30537 0.00106151 0)
(-0.305731 0.00130618 0)
(-0.315585 0.00139618 0)
(-0.294996 0.000698458 0)
(-0.297432 -4.01396e-05 0)
(-0.289383 0.000508839 0)
(-0.298961 0.00118563 -3.19105e-21)
(-0.287619 0.000638362 0)
(-0.29641 -0.000218861 0)
(-0.286705 -0.000612708 0)
(-0.326803 -0.000314465 0)
(-0.300963 -8.27385e-05 0)
(-0.321457 -0.000131078 0)
(-0.334018 8.0205e-05 0)
(-0.313238 -3.09344e-05 0)
(-0.32671 2.04671e-05 0)
(-0.339558 0.000199486 0)
(-0.333988 0.000252835 0)
(-0.31042 0.000406828 0)
(-0.324006 0.00046037 -6.81918e-21)
(-0.320912 0.00130623 0)
(-0.29877 0.00218098 0)
(-0.27528 0.00186926 0)
(-0.274391 0.00142031 5.30391e-21)
(-0.27344 0.00104884 0)
(-0.272281 0.000449284 0)
(-0.271456 -0.000199226 5.02205e-21)
(-0.277988 -0.000415462 0)
(-0.27707 -0.00024983 -4.97566e-21)
(-0.291089 0.000733611 0)
(-0.266614 0.00090601 0)
(-0.293799 0.00105878 0)
(-0.264374 0.00088762 4.13755e-21)
(-0.294441 0.000906268 0)
(-0.261999 0.000765253 -3.79611e-21)
(-0.290247 0.000784242 0)
(-0.259361 0.000687619 0)
(-0.283269 0.000875759 0)
(-0.256291 0.00131515 0)
(-0.254567 0.000540188 0)
(-0.266577 -0.000190171 0)
(-0.26193 0.000309283 0)
(-0.249271 0.000605397 0)
(-0.250875 0.000661682 0)
(-0.245905 0.00173684 0)
(-0.244205 0.00206827 0)
(-0.242633 0.0011471 -1.12429e-21)
(-0.240617 0.000550045 8.6034e-22)
(-0.255784 -9.4967e-05 0)
(-0.243652 -0.000772998 0)
(-0.231961 -0.000525612 0)
(-0.229528 -0.000376656 0)
(-0.227182 -0.000120928 -7.70181e-22)
(-0.224275 0.000213855 1.14144e-21)
(-0.222176 0.000277931 -1.48844e-21)
(-0.219543 0.00149442 0)
(-0.232003 0.00323897 -2.24889e-21)
(-0.218353 0.00267799 -4.96334e-21)
(-0.21662 0.00158035 0)
(-0.219446 0.000981771 -6.93955e-21)
(-0.230126 0.000898377 8.36723e-21)
(-0.227904 0.000343908 0)
(-0.211192 0.000733081 0)
(-0.206348 0.00189698 0)
(-0.206533 0.0015054 0)
(-0.205375 0.000179344 0)
(-0.202364 6.59714e-05 -1.3793e-20)
(-0.201146 -0.000370028 0)
(-0.197033 -0.000442434 -1.66424e-20)
(-0.196173 0.0012973 0)
(-0.195768 0.00144609 0)
(-0.194245 0.000667642 0)
(-0.190733 0.000402636 0)
(-0.187438 0.000752965 0)
(-0.184134 0.000715812 2.36146e-20)
(-0.17977 0.00051911 0)
(-0.176215 0.000837746 0)
(-0.173695 0.000990342 -2.86338e-20)
(-0.171532 0.000919348 0)
(-0.169767 0.000928502 0)
(-0.168922 0.000753109 0)
(-0.166942 0.000486306 3.43608e-20)
(-0.163146 0.000131504 0)
(-0.156399 -1.18271e-05 0)
(-0.146782 0.00025081 0)
(-0.134984 0.000750986 0)
(-0.12212 0.00125786 -5.93884e-20)
(-0.109205 0.0015513 0)
(-0.0975286 0.00157756 0)
(-0.0869809 0.00143831 0)
(-0.0783504 0.00129527 9.5035e-20)
(-0.0684924 0.00127681 0)
(-0.0636453 0.00174885 0)
(-0.035136 0.00147173 -1.39303e-19)
(-0.0673151 0.000448679 0)
(-0.101161 0.0057288 1.18938e-17)
(-0.124358 0.0101206 2.13433e-17)
(-0.136695 0.0126851 2.00573e-17)
(-0.143952 0.0140943 1.92822e-17)
(-0.149396 0.0149539 1.86584e-17)
(-0.153648 0.015562 -1.81338e-17)
(-0.156718 0.0159934 -1.76491e-17)
(-0.159043 0.0162923 -6.01853e-36)
(-0.161179 0.0165228 -3.3682e-17)
(-0.163291 0.0167321 -1.645e-17)
(-0.165487 0.0169325 2.82871e-34)
(-0.167926 0.0171423 0)
(-0.170827 0.0173832 -3.02432e-17)
(-0.174301 0.0176757 -2.90996e-17)
(-0.178431 0.018029 -2.77833e-17)
(-0.183286 0.0184516 0)
(-0.188873 0.0189456 4.90272e-17)
(-0.195365 0.0195235 2.25005e-17)
(-0.202545 0.0201742 1.20371e-35)
(-0.211216 0.0209505 -3.51143e-17)
(-0.219511 0.0217315 -1.23777e-20)
(-0.232999 0.0228857 0)
(-0.237341 0.0236114 1.32138e-17)
(-0.262862 0.0251689 -7.0765e-18)
)
;
    }
    lowerWall
    {
        type            calculated;
        value           nonuniform List<vector> 
250
(
(-0.625321 -0.00612542 0)
(-0.654895 -0.011279 0)
(-0.594684 -0.0125848 0)
(-0.557631 -0.0122949 0)
(-0.52535 -0.00892595 0)
(-0.522556 -0.00626115 0)
(-0.486168 -0.00465999 0)
(-0.52186 -0.00410707 0)
(-0.558969 -0.00329298 0)
(-0.546058 -0.00412489 0)
(-0.482669 -0.00357384 0)
(-0.442655 -0.00220247 0)
(-0.438633 -0.0027336 0)
(-0.429447 -0.00285201 0)
(-0.425331 -0.00226539 0)
(-0.42189 -0.00159658 0)
(-0.42502 -0.000835288 0)
(-0.418402 0.000535032 0)
(0.00209967 0.00024181 0)
(0.00233661 -0.00258518 0)
(0.00258553 -0.00550559 0)
(0.0028763 -0.00857606 1.15081e-19)
(0.00313791 -0.0115303 -9.64202e-20)
(0.00347467 -0.0149609 8.28986e-20)
(0.00350871 -0.014791 -7.48154e-20)
(0.0100989 -0.034498 0)
(-0.0460181 -0.107418 0)
(0.000221628 -0.000271647 0)
(5.89089e-05 -0.000781132 0)
(-5.94956e-06 -0.000867006 0)
(5.74183e-05 -0.000868985 0)
(3.4224e-05 -0.0008386 1.54295e-19)
(-0.000140309 -0.000273186 -1.49922e-19)
(-0.000574136 0.00116096 0)
(-0.00116801 0.00384524 -1.72311e-19)
(-0.00154417 0.00726321 1.31907e-19)
(-0.00149033 0.01049 0)
(-0.00110061 0.0128714 0)
(-0.00057277 0.0141231 0)
(-6.69432e-05 0.0142215 0)
(0.000332816 0.0133534 0)
(0.000665089 0.0118001 0)
(0.000990202 0.00960781 0)
(0.00134749 0.00681459 0)
(0.0017508 0.00346687 0)
(-0.000141054 -0.000275027 0)
(0.000168227 -0.000443447 0)
(0.000475788 -0.000494695 0)
(0.000794045 -0.000425427 0)
(0.00104863 -0.000193303 -0)
(0.00109587 0.000192759 -0)
(0.000850011 0.000655682 1.44634e-20)
(0.000340153 0.00108927 -1.64014e-20)
(-0.000366181 0.0014046 0)
(-0.00117571 0.0015627 -9.40442e-21)
(-0.00201033 0.00157611 0)
(-0.00280589 0.00147485 0)
(-0.00351717 0.00129484 0)
(-0.00411923 0.00106666 4.6198e-21)
(-0.00460044 0.000810921 0)
(-0.00495648 0.000539396 0)
(-0.00518472 0.000260454 -4.00959e-21)
(-0.00528963 -3.20305e-05 -0)
(-0.00524564 -0.000334984 0)
(-0.00505201 -0.000626688 -0)
(-0.00471772 -0.000886945 4.32729e-21)
(-0.00425484 -0.00109523 -0)
(-0.00368187 -0.00123012 5.1428e-21)
(-0.00302688 -0.00127211 0)
(-0.00232871 -0.00120693 -0)
(-0.00163768 -0.00103224 8.43818e-21)
(-0.00101264 -0.000766061 0)
(-0.000511105 -0.000456379 -1.41484e-20)
(-0.000163297 -0.000178469 0)
(5.35456e-05 7.38692e-06 2.37638e-20)
(0.00019215 0.000117143 0)
(0.000270227 0.000213682 0)
(0.000252882 0.000330942 0)
(0.000132422 0.000489768 0)
(-0.0001328 0.000700511 0)
(-0.000564657 0.000911156 -1.45993e-20)
(-0.00113593 0.0010416 0)
(-0.00174974 0.00102181 1.74323e-20)
(-0.0022868 0.000850864 0)
(-0.00265509 0.000583728 -1.4048e-20)
(-0.00282348 0.000305832 0)
(-0.00282219 8.94008e-05 0)
(-0.00271243 -2.14229e-05 1.40095e-20)
(-0.00257252 -4.19091e-06 0)
(-0.00246921 0.000128085 1.4619e-20)
(-0.00240364 0.00031413 -1.47448e-20)
(-0.00231743 0.000403813 0)
(-0.00206498 0.000166457 -1.6202e-20)
(-0.00138946 -0.000514479 -1.90718e-20)
(-2.12508e-05 -0.00120333 0)
(0.00170955 -0.00178454 0)
(0.00359811 -0.0024389 0)
(0.00577141 -0.00306123 0)
(0.00820694 -0.00354159 -0)
(0.0109946 -0.0038847 3.5662e-21)
(0.013864 -0.00408502 0)
(0.0164233 -0.00397537 -2.88998e-21)
(0.0190146 -0.00380053 -0)
(0.0203191 -0.0034095 -0)
(0.0223358 -0.00314857 2.13953e-21)
(0.0246067 -0.00294157 0)
(0.0263886 -0.00270749 -1.93345e-21)
(0.0285403 -0.0024919 -0)
(0.0311595 -0.00232485 0)
(0.0330878 -0.00215499 -0)
(0.0351849 -0.00201366 1.82325e-21)
(0.0370932 -0.00187956 0)
(0.0389611 -0.00176195 -0)
(0.0407413 -0.00165662 1.7736e-21)
(0.0424703 -0.00156357 0)
(0.0441341 -0.00148035 1.75184e-21)
(0.0457554 -0.00140589 0)
(0.0473244 -0.00133827 0)
(0.0488565 -0.00127642 0)
(0.0503449 -0.00121912 -1.72004e-21)
(0.0517992 -0.00116551 -0)
(0.053215 -0.00111482 0)
(0.0545982 -0.00106645 -1.7003e-21)
(0.0559457 -0.00101984 -1.69381e-21)
(0.0572603 -0.000974613 -0)
(0.0585402 -0.00093062 -1.68055e-21)
(0.0597871 -0.000887356 0)
(0.0609986 -0.000844891 -3.33284e-21)
(0.0621766 -0.000802807 -0)
(0.0633182 -0.000761168 -3.30199e-21)
(0.0644249 -0.000719684 -0)
(0.0654942 -0.00067824 3.26781e-21)
(0.0665262 -0.000636591 0)
(0.0675191 -0.00059468 0)
(0.0684723 -0.000552278 0)
(0.0693844 -0.000509151 -3.18683e-21)
(0.0702536 -0.000464904 -0)
(0.0710782 -0.000419205 3.13892e-21)
(0.0718556 -0.000371713 0)
(0.0725834 -0.000322263 -3.08566e-21)
(0.0732591 -0.000270558 -3.05698e-21)
(0.0738798 -0.000216757 -3.02699e-21)
(0.0744434 -0.000161444 -0)
(0.0749479 -0.000106644 0)
(0.075394 -5.56949e-05 0)
(0.0757872 -1.34208e-05 0)
(0.0761324 2.34125e-05 0)
(0.0764311 5.97972e-05 0)
(0.0766823 9.5691e-05 0)
(0.0768859 0.000131416 0)
(0.0770414 0.000167185 2.68782e-21)
(0.0771479 0.000202801 2.64052e-21)
(0.0772052 0.0002383 0)
(0.0772128 0.000273525 0)
(0.0771707 0.000308546 0)
(0.0770781 0.000343209 2.42924e-21)
(0.0769353 0.00037744 0)
(0.0767423 0.000411235 0)
(0.0764987 0.000444371 0)
(0.0762057 0.000476924 0)
(0.0758627 0.000508762 -2.11142e-21)
(0.0754708 0.00053997 0)
(0.0750296 0.000570268 0)
(0.0745408 0.000599824 1.89017e-21)
(0.0740041 0.000628391 -1.81119e-21)
(0.0734212 0.000656234 0)
(0.0727918 0.000683072 -1.6453e-21)
(0.0721173 0.000709116 0)
(0.0713983 0.000734069 1.46878e-21)
(0.0706363 0.000758347 0)
(0.069831 0.000781549 0)
(0.0689847 0.000804016 0)
(0.0680998 0.0008254 0)
(0.0671777 0.000845744 0)
(0.0662209 0.000865387 -1.74963e-21)
(0.0652114 0.000883674 -1.53199e-21)
(0.0641857 0.000901137 0)
(0.0631055 0.000916909 0)
(0.0620069 0.000929451 0)
(0.0608763 0.000936747 6.03924e-22)
(0.0597185 0.00093536 0)
(0.0585337 0.000926217 0)
(0.0573177 0.000929009 0)
(0.0560721 0.000943441 -4.26212e-22)
(0.0547963 0.000954226 7.02402e-22)
(0.0534962 0.000964418 0)
(0.0521717 0.000973792 0)
(0.0508249 0.000982301 1.58192e-21)
(0.0494568 0.00099025 1.89359e-21)
(0.0480692 0.000997459 0)
(0.0466633 0.00100437 0)
(0.0452399 0.00101068 -2.892e-21)
(0.0438015 0.00101673 3.24815e-21)
(0.0423494 0.00102246 0)
(0.0408833 0.00102764 0)
(0.0394074 0.00103278 4.39629e-21)
(0.0379187 0.00103726 0)
(0.0364231 0.00104154 0)
(0.0349165 0.00104518 5.68455e-21)
(0.0334053 0.00104851 0)
(0.0318879 0.0010516 6.63656e-21)
(0.0303667 0.00105454 0)
(0.028842 0.00105747 0)
(0.0273149 0.00106045 0)
(0.0257859 0.00106363 -8.82312e-21)
(0.0242553 0.00106706 0)
(0.0227233 0.00107075 0)
(0.0211904 0.00107472 0)
(0.0196567 0.00107894 0)
(0.0181227 0.00108349 0)
(0.0165887 0.00108845 0)
(0.015055 0.00109398 -1.40154e-20)
(0.0135214 0.00110017 -1.49698e-20)
(0.0119881 0.00110717 0)
(0.0104547 0.00111496 0)
(0.00892116 0.00112347 0)
(0.00738764 0.00113242 1.96418e-20)
(0.00585493 0.00114202 0)
(0.0043247 0.00115115 -4.53816e-20)
(0.00280099 0.00115681 4.89281e-20)
(0.00129341 0.00115391 5.28774e-20)
(-0.000195519 0.00111899 -5.49959e-20)
(-0.00157227 0.00104937 5.38361e-20)
(-0.00309608 0.000882389 -5.18952e-20)
(-0.00343268 0.000493336 0)
(-0.00540563 0.00108786 -3.09599e-18)
(-0.00850883 0.000860858 -2.80741e-18)
(-0.011585 0.000514232 0)
(-0.0147486 0.000189765 -4.77986e-18)
(-0.0181177 -0.000149535 -8.89228e-18)
(-0.0216991 -0.000507105 -4.1505e-18)
(-0.0255035 -0.000884331 3.88441e-18)
(-0.0295526 -0.00128518 -5.41668e-35)
(-0.0338727 -0.0017131 6.01853e-36)
(-0.0384816 -0.00217162 3.21521e-18)
(-0.043397 -0.00266116 3.02334e-18)
(-0.0486355 -0.00314632 3.00927e-36)
(-0.0542106 -0.00366006 0)
(-0.0601789 -0.00425289 0)
(-0.0665986 -0.00490697 -4.14244e-35)
(-0.0734727 -0.00561445 -2.32278e-35)
(-0.0809484 -0.0063771 5.7176e-35)
(-0.0888897 -0.00720028 -3.74593e-18)
(-0.0978526 -0.00809419 -3.41237e-18)
(-0.106923 -0.00906197 1.20371e-35)
(-0.118471 -0.0101273 5.36849e-18)
(-0.128037 -0.0112949 8.90968e-18)
(-0.145456 -0.012528 -6.01853e-36)
(-0.152826 -0.0140333 -4.29599e-18)
(-0.187502 -0.0163806 -1.80556e-35)
)
;
    }
    frontAndBack
    {
        type            empty;
    }
}


// ************************************************************************* //
