/*--------------------------------*- C++ -*----------------------------------*\
  =========                 |
  \\      /  F ield         | OpenFOAM: The Open Source CFD Toolbox
   \\    /   O peration     | Website:  https://openfoam.org
    \\  /    A nd           | Version:  8
     \\/     M anipulation  |
\*---------------------------------------------------------------------------*/
FoamFile
{
    version     2.0;
    format      ascii;
    class       volVectorField;
    location    "1700";
    object      wallShearStress;
}
// * * * * * * * * * * * * * * * * * * * * * * * * * * * * * * * * * * * * * //

dimensions      [0 2 -2 0 0 0 0];

internalField   uniform (0 0 0);

boundaryField
{
    inlet
    {
        type            calculated;
        value           uniform (0 0 0);
    }
    outlet
    {
        type            calculated;
        value           uniform (0 0 0);
    }
    upperWall
    {
        type            calculated;
        value           nonuniform List<vector> 
223
(
(-0.582193 -0.392359 0)
(-0.977814 -0.219377 0)
(-0.939336 -0.0567747 0)
(-0.81071 -0.00585788 0)
(-0.734594 0.00331365 0)
(-0.695452 0.00231534 0)
(-0.67094 0.000424136 0)
(-0.653501 -0.00144928 0)
(-0.640541 -0.00256727 0)
(-0.629804 -0.00217505 0)
(-0.620133 -0.00134617 0)
(-0.610878 -0.00098566 0)
(-0.603116 -0.00162004 0)
(-0.596906 -0.00156568 0)
(-0.590717 6.66315e-05 0)
(-0.584769 0.000695522 0)
(-0.579242 0.000276692 0)
(-0.574621 3.07982e-05 0)
(-0.57105 0.000355467 0)
(-0.567857 0.00216643 4.27448e-22)
(-0.564474 0.00264213 0)
(-0.561275 0.0021256 0)
(-0.558506 0.0021205 0)
(-0.555695 0.00238036 4.49056e-22)
(-0.552928 0.0032937 0)
(-0.550006 0.00364097 0)
(-0.547049 0.00394555 0)
(-0.544068 0.00386024 -9.40672e-22)
(-0.541218 0.00341234 9.48772e-22)
(-0.538504 0.00300302 9.57867e-22)
(-0.535821 0.00265823 0)
(-0.53316 0.00231798 -9.78794e-22)
(-0.530532 0.00202464 0)
(-0.527922 0.00180112 1.00246e-21)
(-0.5253 0.0016192 1.01514e-21)
(-0.522665 0.00148515 -1.02844e-21)
(-0.520004 0.00137764 0)
(-0.517325 0.00129256 0)
(-0.514624 0.00122674 0)
(-0.511898 0.0011758 0)
(-0.509143 0.00113658 -1.09387e-21)
(-0.506358 0.00110673 0)
(-0.503539 0.00108455 0)
(-0.500685 0.00106877 1.13268e-21)
(-0.497792 0.00105832 0)
(-0.494858 0.00105245 1.15841e-21)
(-0.49188 0.0010506 -1.17112e-21)
(-0.488853 0.00105195 1.18365e-21)
(-0.485774 0.00105624 0)
(-0.482643 0.0010622 0)
(-0.479456 0.00106903 0)
(-0.476217 0.00107576 1.2307e-21)
(-0.47293 0.00108116 -1.24131e-21)
(-0.469607 0.00108537 0)
(-0.466263 0.00108955 0)
(-0.462913 0.00109404 0)
(-0.459568 0.00109801 0)
(-0.456233 0.00110031 0)
(-0.452908 0.00110007 0)
(-0.44959 0.00109745 0)
(-0.44627 0.0010931 0)
(-0.442937 0.00108787 1.29181e-21)
(-0.439582 0.00108301 -1.2916e-21)
(-0.436193 0.00107939 0)
(-0.432758 0.00107749 0)
(-0.429268 0.00107768 0)
(-0.425713 0.00107998 -1.2783e-21)
(-0.422085 0.00108414 0)
(-0.418378 0.00109007 0)
(-0.414583 0.00109723 0)
(-0.4107 0.00110528 0)
(-0.406723 0.00111383 0)
(-0.402651 0.00112227 -2.43434e-21)
(-0.398483 0.00113017 0)
(-0.394219 0.00113686 0)
(-0.389863 0.00114183 0)
(-0.385422 0.00114499 0)
(-0.380902 0.00114615 0)
(-0.376317 0.0011452 0)
(-0.371677 0.00114184 0)
(-0.366996 0.00113579 2.09534e-21)
(-0.362283 0.00112699 0)
(-0.357546 0.00111543 0)
(-0.352789 0.00110141 0)
(-0.348017 0.00108556 -1.83971e-21)
(-0.343226 0.00106842 0)
(-0.338417 0.00105051 -1.69029e-21)
(-0.333586 0.00103258 0)
(-0.328727 0.0010155 0)
(-0.323832 0.000999999 0)
(-0.319022 0.000992163 -1.35113e-21)
(-0.316382 0.00100126 0)
(-0.313657 0.00101513 1.18067e-21)
(-0.310852 0.0010298 1.08999e-21)
(-0.307972 0.00104296 0)
(-0.305028 0.00105387 8.96303e-22)
(-0.30203 0.00106262 0)
(-0.298993 0.00106998 0)
(-0.295933 0.00107689 0)
(-0.29286 0.00108496 -4.54888e-22)
(-0.289792 0.0010923 0)
(-0.28674 0.00110467 -2.05498e-22)
(-0.283717 0.00110447 7.34428e-23)
(-0.280729 0.0011086 0)
(-0.277798 0.00111519 0)
(-0.274915 0.00111519 0)
(-0.272103 0.00110229 0)
(-0.269362 0.000995288 0)
(-0.266651 0.000970157 0)
(-0.264171 0.0010439 0)
(-0.261697 0.0014363 1.14196e-21)
(-0.259555 0.00154214 0)
(-0.257251 0.000887244 0)
(-0.254874 0.000525183 0)
(-0.252695 0.000510891 0)
(-0.250394 0.000582565 0)
(-0.248251 0.000626651 0)
(-0.24649 0.000599661 0)
(-0.244591 0.00065177 0)
(-0.242516 0.000705059 0)
(-0.24086 0.000701315 0)
(-0.239165 0.000839738 0)
(-0.237327 0.000923576 0)
(-0.235432 0.000798403 7.16843e-21)
(-0.233751 0.00123125 0)
(-0.232068 0.00146355 0)
(-0.230631 0.000911174 0)
(-0.2291 0.00106397 -8.76722e-21)
(-0.227616 0.00102126 0)
(-0.226098 0.000793689 0)
(-0.224752 0.00110271 -9.98674e-21)
(-0.223542 0.000402466 0)
(-0.221797 -0.00021517 1.0938e-20)
(-0.220152 6.96219e-06 0)
(-0.218678 0.00015424 0)
(-0.217205 0.000220692 0)
(-0.216213 0.000277827 -1.25986e-20)
(-0.215007 0.000315325 0)
(-0.21411 0.000317248 1.34169e-20)
(-0.213109 0.000323395 0)
(-0.211967 0.000504822 0)
(-0.2108 0.000539654 0)
(-0.209795 0.000387634 0)
(-0.208841 0.000800846 0)
(-0.207877 0.000900036 0)
(-0.206851 0.0007838 0)
(-0.206096 0.000939064 0)
(-0.205499 0.000549144 0)
(-0.20456 0.000475493 0)
(-0.204031 0.000691949 0)
(-0.203561 4.62671e-05 1.83634e-20)
(-0.202292 -0.000406281 -1.90359e-20)
(-0.201224 -0.000119177 0)
(-0.200704 -2.87641e-05 0)
(-0.200087 8.24843e-06 0)
(-0.1993 0.000169782 0)
(-0.198996 0.000230015 -2.09278e-20)
(-0.198525 0.000380268 2.13022e-20)
(-0.198157 0.00050173 -2.16842e-20)
(-0.197482 0.000675511 0)
(-0.19717 0.000788107 -2.24946e-20)
(-0.197286 0.000626537 -4.55082e-20)
(-0.196754 0.000559237 0)
(-0.196501 -5.58344e-05 -4.72765e-20)
(-0.195458 -0.00048633 4.87085e-20)
(-0.194628 -0.000195319 0)
(-0.194244 -3.0022e-05 0)
(-0.193796 1.63706e-05 0)
(-0.193721 9.04701e-05 0)
(-0.193351 0.000133165 0)
(-0.1928 0.000117139 -5.33988e-20)
(-0.192459 0.000172224 0)
(-0.191446 0.000230455 -5.54528e-20)
(-0.191208 0.000228178 0)
(-0.190878 0.000255428 0)
(-0.190363 0.000257021 0)
(-0.189941 0.000261053 0)
(-0.189318 0.000272843 0)
(-0.1888 0.000268611 6.07753e-20)
(-0.188089 0.000269079 0)
(-0.187672 0.00038186 0)
(-0.186503 0.000410697 -6.41657e-20)
(-0.186034 0.000518689 0)
(-0.18516 0.000704309 0)
(-0.184448 0.000770238 0)
(-0.183903 0.000743847 6.83125e-20)
(-0.183259 0.000582167 0)
(-0.18219 0.000507383 0)
(-0.180396 0.000427888 0)
(-0.178735 0.000476192 0)
(-0.176159 0.000596287 -7.69981e-20)
(-0.174055 0.00034813 0)
(-0.170393 0.000211635 0)
(-0.165983 0.000535524 0)
(-0.161326 0.000817794 8.87765e-20)
(-0.154699 0.00121274 0)
(-0.147559 0.00222672 0)
(-0.122992 0.00229192 -1.07919e-19)
(-0.140853 0.00684457 6.01853e-36)
(-0.169061 0.0134138 1.25094e-17)
(-0.186623 0.0171997 2.35369e-17)
(-0.193203 0.0189429 2.26999e-17)
(-0.196809 0.0197444 2.19733e-17)
(-0.200844 0.0203583 2.11672e-17)
(-0.205399 0.0210349 -2.02429e-17)
(-0.209693 0.0215186 -1.95173e-17)
(-0.214025 0.0219028 0)
(-0.217774 0.0220249 -3.67739e-17)
(-0.219984 0.02217 -1.80857e-17)
(-0.224591 0.02271 9.81021e-34)
(-0.22746 0.0229028 -2.40741e-35)
(-0.23107 0.0233655 -3.22704e-17)
(-0.235467 0.0239524 -3.06553e-17)
(-0.242449 0.0247994 -2.84638e-17)
(-0.249632 0.0254579 0)
(-0.256941 0.0260744 4.94006e-17)
(-0.263957 0.0266508 2.26456e-17)
(-0.272782 0.0274482 1.20371e-35)
(-0.282675 0.0283578 -3.48603e-17)
(-0.291235 0.0290027 -1.58558e-20)
(-0.300804 0.0295579 0)
(-0.305385 0.0305123 1.34121e-17)
(-0.33297 0.0322002 -7.62501e-18)
)
;
    }
    lowerWall
    {
        type            calculated;
        value           nonuniform List<vector> 
250
(
(-0.653909 0.466638 0)
(-1.14095 0.204678 0)
(-1.03492 0.0379586 0)
(-0.869573 -0.00093601 0)
(-0.786941 -0.00419165 0)
(-0.746063 -0.00160784 0)
(-0.719879 0.000416183 0)
(-0.700646 -0.00065175 0)
(-0.685091 -0.00405595 0)
(-0.67132 -0.00471219 0)
(-0.658937 -0.0029881 0)
(-0.647725 -0.000864073 0)
(-0.637523 0.00142651 0)
(-0.628198 0.00210471 0)
(-0.619334 0.00136882 0)
(-0.611538 0.00135983 0)
(-0.604611 0.00169748 0)
(-0.605084 0.00195556 0)
(-0.00423729 -0.0229331 0)
(-0.00277594 -0.017772 0)
(-0.000718417 -0.014596 0)
(0.00189245 -0.0138713 8.99579e-20)
(0.00521578 -0.0152516 -7.84932e-20)
(0.00891135 -0.0208512 6.27987e-20)
(0.0126851 -0.0200551 -4.84649e-20)
(0.0256295 -0.0632792 0)
(-0.0839561 -0.144696 0)
(0.000880803 -0.00384514 0)
(-0.00766458 0.00953188 0)
(-0.00852238 0.0328181 0)
(-0.00255758 0.0448687 0)
(0.00294794 0.044289 1.82184e-20)
(0.00617889 0.0360971 -1.89576e-20)
(0.00818361 0.0242006 0)
(0.00945706 0.0102022 -5.41615e-20)
(0.00943169 -0.00400099 6.11399e-20)
(0.00793603 -0.0173816 0)
(0.0061442 -0.0291562 0)
(0.0043845 -0.0385274 0)
(0.00268977 -0.0451091 0)
(0.000988938 -0.0488532 0)
(-0.000882014 -0.0494952 0)
(-0.00281673 -0.0463958 0)
(-0.00437406 -0.0399058 0)
(-0.00490397 -0.0308445 0)
(0.00132975 -0.00151685 0)
(0.00134187 0.00652768 0)
(-0.00450633 0.00962139 0)
(-0.0095961 0.00976109 0)
(-0.0133845 0.0083049 0)
(-0.0158933 0.00624067 0)
(-0.0172707 0.00410264 1.49511e-21)
(-0.0177912 0.00201057 -1.52656e-21)
(-0.0173418 -3.24862e-06 0)
(-0.0160659 -0.00168413 -1.65214e-21)
(-0.0142009 -0.00283784 0)
(-0.0120617 -0.00329953 0)
(-0.010059 -0.00304091 -0)
(-0.00855771 -0.002285 2.56931e-21)
(-0.00761894 -0.00142469 0)
(-0.00694131 -0.0008121 0)
(-0.00612659 -0.000612434 -3.37545e-21)
(-0.00500309 -0.0009797 0)
(-0.00343037 -0.0023508 0)
(-0.000536202 -0.00503688 0)
(0.00432472 -0.00739963 3.04704e-21)
(0.00991134 -0.00889236 0)
(0.0158133 -0.00985122 1.47129e-21)
(0.021862 -0.0106156 0)
(0.0280669 -0.0112687 -0)
(0.0343789 -0.0115163 8.45092e-22)
(0.040514 -0.0113575 0)
(0.0491061 -0.0116033 -7.5397e-22)
(0.0588978 -0.0117568 -0)
(0.068594 -0.0115852 7.70627e-22)
(0.0780058 -0.0111721 0)
(0.0869818 -0.0105876 0)
(0.0954293 -0.00989364 0)
(0.10329 -0.0091401 -0)
(0.11054 -0.00836401 0)
(0.117175 -0.0075926 -8.11099e-22)
(0.123211 -0.00684308 -0)
(0.128669 -0.00612506 1.63298e-21)
(0.133576 -0.00544261 0)
(0.13796 -0.00479596 -1.63486e-21)
(0.141847 -0.00418357 -0)
(0.145261 -0.00360282 -0)
(0.148223 -0.00305069 1.62097e-21)
(0.150749 -0.0025251 0)
(0.152856 -0.00202493 1.60075e-21)
(0.154554 -0.00155102 -1.58744e-21)
(0.155857 -0.00110689 -0)
(0.156776 -0.000699293 -1.55483e-21)
(0.157323 -0.000338187 -1.5358e-21)
(0.157509 -4.00694e-05 -0)
(0.157404 0.000194539 0)
(0.157072 0.000391424 0)
(0.156518 0.000568154 0)
(0.155757 0.00073101 -0)
(0.154796 0.000884145 1.37574e-21)
(0.153645 0.00102827 0)
(0.152308 0.00116397 -1.30696e-21)
(0.150795 0.00129156 -0)
(0.149113 0.00141123 -0)
(0.147268 0.00152286 1.19051e-21)
(0.145268 0.00162639 0)
(0.143123 0.0017219 -1.10482e-21)
(0.140839 0.00180927 -0)
(0.138426 0.00188861 0)
(0.135892 0.00195989 -0)
(0.133246 0.0020231 9.16793e-22)
(0.130498 0.0020784 0)
(0.127656 0.002126 -0)
(0.12473 0.00216594 7.63754e-22)
(0.121729 0.00219837 0)
(0.118662 0.00222361 6.57221e-22)
(0.115539 0.00224181 0)
(0.112367 0.00225326 0)
(0.109157 0.00225823 0)
(0.105916 0.00225696 -4.36145e-22)
(0.102654 0.00224979 -0)
(0.0993774 0.00223712 0)
(0.0960947 0.00221915 -2.65546e-22)
(0.0928135 0.00219625 -2.08098e-22)
(0.0895407 0.00216877 -0)
(0.0862832 0.00213705 -9.26325e-23)
(0.0830474 0.0021015 -0)
(0.0798391 0.0020625 4.66425e-23)
(0.0766639 0.00202038 -0)
(0.0735271 0.00197558 2.79055e-22)
(0.0704332 0.00192865 0)
(0.0673866 0.00188012 -5.11731e-22)
(0.0643909 0.00183076 -0)
(0.0614494 0.00178153 0)
(0.0585648 0.00173378 -0)
(0.0557389 0.00168919 9.78487e-22)
(0.0529731 0.0016499 0)
(0.0502678 0.00161807 -1.21392e-21)
(0.0476218 0.00159478 0)
(0.0457838 0.00160346 1.47569e-21)
(0.0442414 0.00162102 1.6342e-21)
(0.0427023 0.00162592 1.79912e-21)
(0.041175 0.001613 0)
(0.0396647 0.00158967 0)
(0.038171 0.00156403 0)
(0.0366926 0.00153819 0)
(0.0352299 0.00151248 0)
(0.0337826 0.00148688 0)
(0.0323518 0.00146139 0)
(0.0309376 0.00143616 0)
(0.0295407 0.00141134 -3.6919e-21)
(0.0281612 0.00138714 -3.96756e-21)
(0.0267996 0.0013637 0)
(0.0254557 0.00134072 0)
(0.0241303 0.00131666 0)
(0.0228245 0.00129178 -5.26753e-21)
(0.0215383 0.00126757 0)
(0.0202717 0.0012439 0)
(0.0190246 0.00122085 0)
(0.0177972 0.00119841 0)
(0.0165896 0.00117668 7.53624e-21)
(0.0154017 0.00115573 0)
(0.0142336 0.00113564 0)
(0.013085 0.00111653 -9.45519e-21)
(0.0119559 0.00109842 1.02328e-20)
(0.0108464 0.00108141 0)
(0.0097562 0.0010658 1.20693e-20)
(0.00868537 0.00105221 0)
(0.0076335 0.00104184 -1.44079e-20)
(0.00659993 0.00103496 0)
(0.00558429 0.00103056 0)
(0.00458658 0.00102835 0)
(0.00360633 0.00102865 0)
(0.00264311 0.00103169 0)
(0.00169738 0.00103742 5.57162e-20)
(0.000770645 0.001043 6.42281e-20)
(-0.000139147 0.00103027 0)
(-0.00103643 0.000987427 0)
(-0.00191825 0.000935043 0)
(-0.00278456 0.000885557 -5.2884e-20)
(-0.00363527 0.000840642 0)
(-0.00447017 0.000799901 0)
(-0.00528966 0.000762841 0)
(-0.00609427 0.00072897 -4.04132e-20)
(-0.00688463 0.00069783 3.83636e-20)
(-0.0076612 0.000669041 0)
(-0.00842445 0.000642295 0)
(-0.00917482 0.000617349 3.36166e-20)
(-0.00991276 0.000594006 3.23766e-20)
(-0.0106387 0.000572102 0)
(-0.0113531 0.000551497 0)
(-0.0120563 0.000532082 -2.93518e-20)
(-0.0127488 0.000513761 2.85244e-20)
(-0.0134309 0.000496454 0)
(-0.0141032 0.000480084 0)
(-0.0147661 0.000464598 2.64349e-20)
(-0.01542 0.000449939 0)
(-0.0160653 0.000436062 0)
(-0.0167025 0.000422922 2.47898e-20)
(-0.017332 0.000410488 0)
(-0.0179543 0.000398725 2.38739e-20)
(-0.0185699 0.000387599 0)
(-0.0191793 0.00037708 0)
(-0.0197828 0.00036714 0)
(-0.020381 0.000357742 -2.23583e-20)
(-0.0209743 0.000348861 0)
(-0.0215631 0.00034045 0)
(-0.0221477 0.000332454 0)
(-0.0227286 0.000324807 0)
(-0.0233058 0.000317445 0)
(-0.0238796 0.000310235 0)
(-0.0244495 0.000303038 -2.03853e-20)
(-0.0250155 0.000295675 -2.0155e-20)
(-0.0255766 0.000287851 0)
(-0.0261314 0.000279185 0)
(-0.0266776 0.000269133 0)
(-0.0272118 0.000256982 1.93604e-20)
(-0.0277289 0.000241506 0)
(-0.0282207 0.000221283 -3.8135e-20)
(-0.0286776 0.00019223 3.79288e-20)
(-0.0290705 0.000152606 3.78197e-20)
(-0.0294018 7.78562e-05 -3.78585e-20)
(-0.0294833 -3.94344e-05 3.80456e-20)
(-0.0295078 -0.00035658 -3.83978e-20)
(-0.0279732 -0.000616886 0)
(-0.0293457 -0.000516218 -2.43319e-18)
(-0.0327693 -0.00134236 -2.26978e-18)
(-0.0364128 -0.00203333 -3.00927e-36)
(-0.0395334 -0.00257605 -4.06091e-18)
(-0.0424831 -0.00301858 -7.75791e-18)
(-0.0455556 -0.00342155 -3.71962e-18)
(-0.0487786 -0.00381876 3.56817e-18)
(-0.0521158 -0.00430345 6.01853e-36)
(-0.0555933 -0.00476116 0)
(-0.0592929 -0.00507588 3.14826e-18)
(-0.0632352 -0.00539902 3.02872e-18)
(-0.0674222 -0.00580146 0)
(-0.0719014 -0.00624655 0)
(-0.0767158 -0.00670861 0)
(-0.0819107 -0.00720465 2.58139e-35)
(-0.0875325 -0.00774669 -1.3711e-34)
(-0.0936521 -0.00834697 6.62038e-35)
(-0.100324 -0.00901019 -4.15806e-18)
(-0.107687 -0.0097309 -3.81226e-18)
(-0.116746 -0.0106237 6.01853e-36)
(-0.127563 -0.0116272 6.13658e-18)
(-0.138418 -0.0127341 1.0349e-17)
(-0.153644 -0.0139273 1.20371e-35)
(-0.162843 -0.0152943 -5.09798e-18)
(-0.191958 -0.016982 2.70834e-35)
)
;
    }
    frontAndBack
    {
        type            empty;
    }
}


// ************************************************************************* //
