/*--------------------------------*- C++ -*----------------------------------*\
  =========                 |
  \\      /  F ield         | OpenFOAM: The Open Source CFD Toolbox
   \\    /   O peration     | Website:  https://openfoam.org
    \\  /    A nd           | Version:  8
     \\/     M anipulation  |
\*---------------------------------------------------------------------------*/
FoamFile
{
    version     2.0;
    format      ascii;
    class       volScalarField;
    location    "1000";
    object      p;
}
// * * * * * * * * * * * * * * * * * * * * * * * * * * * * * * * * * * * * * //

dimensions      [0 2 -2 0 0 0 0];

internalField   nonuniform List<scalar> 
12225
(
514.675
55.5269
2.36257
0.280437
-1.90006
-3.37565
-3.81294
-4.02341
-4.23323
-4.37022
-4.41747
-4.42723
-4.43041
-4.45863
-4.51237
-4.5794
-4.72553
-4.95025
-122.18
0.237679
-2.71965
-0.766362
-2.21776
-3.52624
-3.95402
-4.13818
-4.28193
-4.38601
-4.46104
-4.5195
-4.57063
-4.60325
-4.62452
-4.65059
-4.71792
-4.81339
-200.647
-16.1496
-2.34767
-0.359589
-1.9021
-3.24613
-3.77358
-4.02388
-4.19664
-4.32099
-4.41378
-4.48113
-4.52993
-4.5554
-4.57076
-4.58678
-4.61918
-4.60312
-110.618
-10.9753
-2.17838
-0.433301
-1.78904
-3.03015
-3.60269
-3.90993
-4.11927
-4.26516
-4.36764
-4.43845
-4.48734
-4.51614
-4.53374
-4.54194
-4.54124
-4.47291
-61.574
-8.14708
-3.62384
-1.2113
-2.01655
-2.99971
-3.53064
-3.85047
-4.07305
-4.22782
-4.33556
-4.41034
-4.46186
-4.49317
-4.50867
-4.50632
-4.48034
-4.39031
-45.732
-8.78652
-5.26005
-2.20165
-2.4313
-3.10249
-3.538
-3.83503
-4.05108
-4.20499
-4.31414
-4.39099
-4.44357
-4.47466
-4.48639
-4.47582
-4.43585
-4.34131
-35.7959
-9.27777
-6.38184
-3.12609
-2.92332
-3.29145
-3.60541
-3.85636
-4.05184
-4.1971
-4.30318
-4.37907
-4.4308
-4.46067
-4.46973
-4.45523
-4.41129
-4.32417
-27.7793
-8.90854
-6.97529
-3.80434
-3.36339
-3.50027
-3.70238
-3.90192
-4.07134
-4.20368
-4.30353
-4.37637
-4.42639
-4.45533
-4.46376
-4.44952
-4.40854
-4.33371
-21.6914
-8.52149
-7.13599
-4.3122
-3.73068
-3.70787
-3.8182
-3.96661
-4.10697
-4.2233
-4.31444
-4.38259
-4.43013
-4.45816
-4.46693
-4.455
-4.41997
-4.35888
-16.6141
-8.14216
-7.08964
-4.75708
-4.08498
-3.93623
-3.96114
-4.05464
-4.16106
-4.25732
-4.33685
-4.39853
-4.44282
-4.47006
-4.48028
-4.47281
-4.44683
-4.40225
-12.6404
-7.68235
-6.90765
-5.10337
-4.40859
-4.17219
-4.12382
-4.16342
-4.23366
-4.30708
-4.37272
-4.4265
-4.46705
-4.49389
-4.50691
-4.50605
-4.49172
-4.46545
-9.70047
-7.15025
-6.63074
-5.32819
-4.68043
-4.39897
-4.29633
-4.28864
-4.32385
-4.37355
-4.42411
-4.46918
-4.50586
-4.53294
-4.5501
-4.55767
-4.55671
-4.54933
-7.66751
-6.60619
-6.3075
-5.43315
-4.88485
-4.59908
-4.46549
-4.42237
-4.42768
-4.45549
-4.4915
-4.52812
-4.56144
-4.58963
-4.61212
-4.62929
-4.6423
-4.65313
-6.37241
-6.11451
-5.9872
-5.44186
-5.01747
-4.75931
-4.61789
-4.55425
-4.53827
-4.54887
-4.57296
-4.60281
-4.63406
-4.66447
-4.69321
-4.7204
-4.74693
-4.77421
-5.62414
-5.72383
-5.71049
-5.39234
-5.08743
-4.87453
-4.74332
-4.67378
-4.64678
-4.64699
-4.66364
-4.68973
-4.72099
-4.75499
-4.7906
-4.82759
-4.86634
-4.90761
-5.24481
-5.46162
-5.50955
-5.329
-5.11647
-4.94941
-4.83713
-4.77214
-4.74345
-4.74058
-4.75524
-4.7815
-4.81541
-4.85453
-4.89747
-4.94361
-4.99285
-5.04535
-5.10355
-5.34569
-5.41836
-5.30036
-5.13632
-4.9972
-4.89953
-4.84161
-4.81649
-4.81627
-4.83409
-4.86466
-4.90422
-4.95023
-5.00109
-5.05583
-5.11396
-5.17523
-5.14127
-5.40148
-5.47557
-5.34941
-5.17558
-5.02983
-4.92954
-4.87231
-4.85036
-4.85518
-4.87934
-4.91714
-4.96447
-5.01851
-5.07737
-5.13985
-5.20519
-5.27295
-5.39354
-5.65591
-5.6916
-5.47645
-5.22721
-5.03681
-4.91567
-4.85257
-4.83349
-4.84573
-4.87934
-4.92714
-4.98424
-5.0474
-5.11452
-5.18426
-5.25584
-5.32881
-6.00291
-6.13772
-6.04348
-5.63595
-5.24794
-4.98815
-4.8416
-4.77664
-4.76709
-4.79342
-4.84194
-4.90374
-4.97322
-5.04699
-5.12299
-5.20003
-5.27746
-5.35505
-7.25052
-6.89035
-6.49502
-5.7627
-5.18391
-4.85378
-4.69715
-4.64698
-4.66088
-4.71136
-4.78154
-4.8615
-4.94574
-5.0312
-5.11638
-5.20055
-5.28343
-5.36514
-9.64202
-7.96541
-6.98343
-5.77271
-4.98038
-4.61297
-4.48276
-4.47452
-4.52936
-4.61465
-4.71234
-4.8134
-4.91336
-5.01051
-5.10433
-5.19486
-5.28243
-5.36749
-13.9832
-9.39189
-7.404
-5.57037
-4.59559
-4.26504
-4.21591
-4.28056
-4.39272
-4.52017
-4.64821
-4.77058
-4.88546
-4.99274
-5.09351
-5.18899
-5.28003
-5.3675
-20.8908
-10.9548
-7.55503
-5.05808
-4.01671
-3.83671
-3.93087
-4.09505
-4.27319
-4.44403
-4.60051
-4.74167
-4.86838
-4.98294
-5.08814
-5.18646
-5.2795
-5.36818
-29.7374
-11.9502
-7.03437
-4.12698
-3.26492
-3.37887
-3.67199
-3.94782
-4.1902
-4.39827
-4.57682
-4.73096
-4.86515
-4.98313
-5.08996
-5.18899
-5.28248
-5.37119
-43.1073
-12.6148
-5.47366
-2.72982
-2.41414
-2.96435
-3.48523
-3.86343
-4.15478
-4.38718
-4.57891
-4.73911
-4.87481
-4.99169
-5.09721
-5.19574
-5.28884
-5.37685
-84.6003
-17.3743
-3.66497
-1.26632
-1.69692
-2.72276
-3.43718
-3.87103
-4.17467
-4.41192
-4.60809
-4.76924
-4.90052
-5.00806
-5.105
-5.20133
-5.29552
-5.3832
-177.887
-26.8505
-3.68104
-0.771107
-1.53601
-2.844
-3.61509
-4.01634
-4.27229
-4.46858
-4.65238
-4.81785
-4.95325
-5.05091
-5.13209
-5.21682
-5.30823
-5.39427
-154.791
-9.62818
-3.27329
-1.06919
-1.84402
-3.22182
-3.91469
-4.22611
-4.41874
-4.56046
-4.70365
-4.85619
-5.00665
-5.12373
-5.20874
-5.28621
-5.36975
-5.45986
428.056
66.6046
7.05506
1.59851
-0.916523
-2.85788
-3.65398
-3.99579
-4.31157
-4.57842
-4.70925
-4.75696
-4.80373
-4.90645
-5.04219
-5.15509
-5.23472
-5.30321
-8.52639
-8.51354
-8.50284
-8.54414
-8.63718
-8.74096
-8.82099
-8.86112
-8.86484
-8.84719
-8.81975
-8.79111
-8.76936
-8.76046
-8.76539
-8.77801
-8.78923
-8.79435
-8.79343
-8.79091
-8.79483
-8.82725
-8.91716
-9.08804
-9.34075
-9.65829
-10.0292
-10.4429
-10.8839
-11.336
-11.784
-12.2162
-12.623
-12.998
-13.3368
-13.6369
-13.8974
-14.1183
-14.3001
-14.4441
-14.5513
-14.6232
-14.6612
-14.6666
-14.6407
-14.5848
-14.5007
-14.3905
-14.2556
-14.0938
-13.9024
-13.6827
-13.4376
-13.1686
-12.877
-12.564
-12.2305
-11.8776
-11.5063
-11.1177
-10.7128
-10.2927
-9.85864
-9.41172
-8.95312
-8.48404
-8.00566
-7.5192
-7.02584
-6.52677
-6.02315
-5.51612
-5.0068
-4.49627
-3.98556
-3.47569
-2.96761
-2.46222
-1.9604
-1.46294
-0.970612
-0.48411
-0.00408177
0.468881
0.934243
1.39152
1.84029
2.28018
2.71087
3.13211
3.54369
3.94543
4.33716
4.71885
5.09076
5.45288
5.80475
6.14599
6.47657
6.79673
7.10672
7.40674
7.69696
7.97759
8.24879
8.51078
8.76375
9.00794
9.24355
9.4708
9.6899
9.9011
10.1047
10.3008
10.4898
10.6719
10.8473
11.0162
11.179
11.3357
11.4867
11.6322
11.7724
11.9074
12.0375
12.163
12.2839
12.4005
12.5129
12.6214
12.726
12.8271
12.925
13.0197
13.1112
13.1995
13.2848
13.3673
13.4471
13.5242
13.5989
13.6713
13.7413
13.8092
13.875
13.9388
14.0006
14.0606
14.1188
14.1752
14.23
14.2831
14.3346
14.3846
14.4331
14.4801
14.5257
14.5699
14.6127
14.6541
14.6942
14.7329
14.7704
14.8065
14.8414
14.875
14.9074
14.9387
14.9688
14.998
15.0263
15.0541
15.0815
15.1092
15.1379
15.1687
15.2041
15.2457
15.3036
15.3641
-8.58379
-8.61504
-8.68898
-8.7826
-8.88613
-8.97844
-9.03981
-9.06431
-9.04736
-8.98699
-8.89724
-8.80034
-8.71855
-8.66706
-8.64484
-8.64152
-8.65099
-8.67643
-8.71175
-8.73188
-8.75603
-8.83348
-8.99244
-9.23152
-9.53802
-9.90869
-10.3343
-10.7943
-11.2673
-11.7351
-12.1854
-12.6087
-12.9987
-13.3513
-13.665
-13.9394
-14.1749
-14.3726
-14.5335
-14.6589
-14.7499
-14.8076
-14.8331
-14.8273
-14.7908
-14.7245
-14.6287
-14.5034
-14.3492
-14.1692
-13.9671
-13.7432
-13.4965
-13.2273
-12.9361
-12.6237
-12.2909
-11.9388
-11.5683
-11.1804
-10.7762
-10.3568
-9.92333
-9.47693
-9.01878
-8.55006
-8.07197
-7.58571
-7.09247
-6.59343
-6.08977
-5.58261
-5.07308
-4.56225
-4.05118
-3.54085
-3.03224
-2.52626
-2.02377
-1.52558
-1.03245
-0.54509
-0.0641472
0.409779
0.876145
1.33446
1.78428
2.22521
2.6569
3.07905
3.49141
3.89371
4.28575
4.66742
5.0388
5.40009
5.75151
6.09308
6.42464
6.74609
7.05747
7.3589
7.65054
7.93256
8.20514
8.46847
8.72275
8.96822
9.20509
9.4336
9.65397
9.86643
10.0712
10.2686
10.4587
10.642
10.8185
10.9885
11.1523
11.3101
11.4622
11.6086
11.7498
11.8858
12.017
12.1435
12.2655
12.3831
12.4967
12.6062
12.7119
12.8138
12.9119
13.0066
13.0982
13.1867
13.2723
13.355
13.4351
13.5125
13.5875
13.6602
13.7306
13.7987
13.8648
13.9289
13.991
14.0513
14.1098
14.1665
14.2215
14.2749
14.3266
14.3769
14.4256
14.4728
14.5186
14.563
14.606
14.6476
14.6879
14.7268
14.7644
14.8007
14.8357
14.8695
14.902
14.9334
14.9637
14.993
15.0214
15.0493
15.0769
15.1046
15.1334
15.1641
15.1989
15.2385
15.2921
15.342
-8.71085
-8.79269
-8.91072
-9.01664
-9.09964
-9.1536
-9.17432
-9.1606
-9.1111
-9.02804
-8.92048
-8.80495
-8.70492
-8.64009
-8.61113
-8.60615
-8.62499
-8.68156
-8.78506
-8.932
-9.12209
-9.36239
-9.65597
-9.99479
-10.3666
-10.7622
-11.1716
-11.5829
-11.9855
-12.3722
-12.7382
-13.0798
-13.3943
-13.68
-13.9359
-14.1615
-14.3565
-14.5211
-14.6555
-14.76
-14.8349
-14.8807
-14.8978
-14.8866
-14.8476
-14.7812
-14.6877
-14.5672
-14.4197
-14.246
-14.0477
-13.8257
-13.5807
-13.3131
-13.0236
-12.713
-12.3821
-12.0318
-11.6631
-11.2769
-10.8742
-10.4563
-10.0241
-9.5789
-9.12179
-8.65396
-8.17662
-7.69096
-7.19817
-6.69945
-6.19595
-5.68883
-5.1792
-4.66814
-4.15671
-3.64592
-3.13673
-2.63006
-2.12678
-1.62771
-1.13362
-0.645215
-0.163155
0.311957
0.779573
1.2392
1.69039
2.13276
2.56597
2.98974
3.40381
3.808
4.20215
4.58618
4.96005
5.32379
5.6774
6.02092
6.3543
6.67755
6.99074
7.29398
7.58742
7.87123
8.14557
8.41065
8.66666
8.91382
9.15236
9.38249
9.60445
9.81847
10.0248
10.2236
10.4152
10.5999
10.7778
10.9491
11.1143
11.2734
11.4266
11.5743
11.7166
11.8537
11.9858
12.1132
12.2359
12.3543
12.4685
12.5787
12.685
12.7876
12.8866
12.9824
13.075
13.1645
13.251
13.3346
13.4155
13.4938
13.5695
13.6428
13.7139
13.7827
13.8494
13.914
13.9767
14.0375
14.0964
14.1536
14.209
14.2628
14.315
14.3656
14.4147
14.4623
14.5084
14.5531
14.5964
14.6383
14.6789
14.718
14.7559
14.7924
14.8277
14.8616
14.8944
14.9259
14.9564
14.9858
15.0144
15.0423
15.0699
15.0976
15.1261
15.1562
15.1897
15.2263
15.2737
15.3072
-8.75056
-8.84806
-8.94939
-9.03596
-9.10047
-9.14023
-9.15275
-9.1354
-9.08816
-9.01601
-8.93016
-8.8474
-8.78592
-8.75864
-8.77048
-8.8235
-8.92161
-9.06845
-9.26465
-9.50525
-9.78136
-10.0858
-10.4125
-10.7552
-11.1085
-11.4673
-11.826
-12.1797
-12.5236
-12.8537
-13.1667
-13.4598
-13.731
-13.9786
-14.2012
-14.3981
-14.5686
-14.7122
-14.8289
-14.9185
-14.981
-15.0166
-15.0253
-15.0073
-14.9626
-14.8916
-14.7945
-14.6716
-14.5234
-14.3506
-14.1537
-13.9333
-13.6898
-13.4239
-13.1361
-12.8272
-12.4979
-12.1493
-11.782
-11.3972
-10.9959
-10.5791
-10.148
-9.70361
-9.2472
-8.77992
-8.30297
-7.81754
-7.32483
-6.82602
-6.32228
-5.81476
-5.30459
-4.79286
-4.28062
-3.76889
-3.25863
-2.75079
-2.24622
-1.74576
-1.25018
-0.760203
-0.276487
0.200356
0.669771
1.13126
1.58437
2.02871
2.46394
2.88978
3.30597
3.71232
4.1087
4.49501
4.87121
5.23726
5.59313
5.93881
6.2743
6.59964
6.91491
7.22022
7.51571
7.80154
8.07789
8.34495
8.60291
8.85199
9.0924
9.32437
9.54813
9.7639
9.97193
10.1725
10.3657
10.552
10.7315
10.9044
11.0709
11.2314
11.3861
11.535
11.6786
11.8169
11.9503
12.0788
12.2027
12.3222
12.4375
12.5487
12.656
12.7597
12.8598
12.9566
13.0502
13.1406
13.228
13.3124
13.3941
13.4732
13.5497
13.6237
13.6954
13.7649
13.8322
13.8975
13.9607
14.022
14.0815
14.1392
14.1951
14.2494
14.302
14.3531
14.4026
14.4506
14.4971
14.5421
14.5857
14.628
14.6688
14.7083
14.7464
14.7832
14.8187
14.8529
14.8858
14.9175
14.9481
14.9776
15.0062
15.0341
15.0615
15.0889
15.1167
15.1457
15.177
15.2095
15.2489
15.2675
-8.53898
-8.62392
-8.72403
-8.82114
-8.89852
-8.95128
-8.97839
-8.98066
-8.96255
-8.93233
-8.90207
-8.88578
-8.89624
-8.94306
-9.03245
-9.16756
-9.34852
-9.57076
-9.82585
-10.1057
-10.4049
-10.7191
-11.044
-11.3747
-11.7067
-12.0364
-12.3603
-12.6753
-12.9787
-13.2681
-13.5413
-13.7968
-14.0331
-14.249
-14.4434
-14.6156
-14.7647
-14.8904
-14.9919
-15.0691
-15.1217
-15.1493
-15.1519
-15.1294
-15.0817
-15.0088
-14.9108
-14.7879
-14.6403
-14.4685
-14.2728
-14.0537
-13.8116
-13.5471
-13.2608
-12.9534
-12.6257
-12.2784
-11.9124
-11.5289
-11.1286
-10.7128
-10.2825
-9.83884
-9.38297
-8.91609
-8.43939
-7.95407
-7.4613
-6.9623
-6.45822
-5.95022
-5.43943
-4.92694
-4.41381
-3.90107
-3.38969
-2.88061
-2.3747
-1.87279
-1.37568
-0.884068
-0.398638
0.0799976
0.55128
1.0147
1.46982
1.91622
2.35357
2.78157
3.19998
3.6086
4.00726
4.39588
4.77438
5.14272
5.50085
5.84877
6.18649
6.51406
6.83155
7.13907
7.43676
7.72477
8.00328
8.27247
8.53253
8.78368
9.02614
9.26013
9.48587
9.70358
9.91351
10.1159
10.311
10.499
10.6801
10.8547
11.0229
11.185
11.3412
11.4917
11.6367
11.7765
11.9112
12.0411
12.1664
12.2872
12.4037
12.5161
12.6246
12.7294
12.8306
12.9284
13.023
13.1143
13.2026
13.288
13.3705
13.4504
13.5277
13.6025
13.675
13.7451
13.8132
13.8791
13.9429
14.0049
14.0649
14.1232
14.1797
14.2345
14.2876
14.3391
14.3891
14.4375
14.4844
14.5299
14.5739
14.6165
14.6577
14.6975
14.7359
14.773
14.8087
14.8431
14.8763
14.9082
14.9388
14.9684
14.997
15.0247
15.0518
15.0786
15.1055
15.1329
15.1614
15.1893
15.2208
15.227
-8.1191
-8.2075
-8.32841
-8.4511
-8.55632
-8.63674
-8.69502
-8.73704
-8.77041
-8.80491
-8.85151
-8.9205
-9.01994
-9.15466
-9.32688
-9.53564
-9.77626
-10.0432
-10.331
-10.6341
-10.947
-11.2649
-11.5838
-11.9003
-12.2116
-12.5155
-12.8102
-13.094
-13.3654
-13.6232
-13.8661
-14.0931
-14.303
-14.4949
-14.6679
-14.8211
-14.9537
-15.0651
-15.1547
-15.2218
-15.2662
-15.2872
-15.2846
-15.2582
-15.2077
-15.133
-15.034
-14.9108
-14.7636
-14.5924
-14.3977
-14.1797
-13.9389
-13.6758
-13.3909
-13.0849
-12.7586
-12.4126
-12.048
-11.6657
-11.2666
-10.8518
-10.4224
-9.97943
-9.52416
-9.05773
-8.58134
-8.09616
-7.60339
-7.10423
-6.59985
-6.0914
-5.58001
-5.0668
-4.55281
-4.03909
-3.52661
-3.0163
-2.50907
-2.00573
-1.50709
-1.01386
-0.526728
-0.0463059
0.426839
0.892197
1.34931
1.79778
2.23726
2.66743
3.08806
3.49894
3.8999
4.29083
4.67164
5.04227
5.4027
5.75291
6.09291
6.42276
6.74253
7.05233
7.35228
7.64255
7.9233
8.1947
8.45696
8.71028
8.95487
9.19094
9.41873
9.63846
9.85037
10.0547
10.2517
10.4416
10.6246
10.8009
10.9709
11.1347
11.2925
11.4447
11.5913
11.7326
11.8688
12.0002
12.1269
12.249
12.3669
12.4806
12.5904
12.6963
12.7987
12.8976
12.9932
13.0856
13.1749
13.2612
13.3447
13.4255
13.5037
13.5793
13.6526
13.7236
13.7924
13.859
13.9236
13.9862
14.0469
14.1058
14.1629
14.2182
14.2719
14.324
14.3744
14.4234
14.4708
14.5167
14.5611
14.6041
14.6457
14.6858
14.7246
14.762
14.798
14.8327
14.866
14.898
14.9288
14.9584
14.9869
15.0144
15.0411
15.0671
15.0928
15.1182
15.1436
15.1666
15.191
15.1864
-7.65387
-7.75255
-7.89459
-8.04336
-8.18127
-8.29986
-8.40268
-8.49906
-8.5984
-8.70963
-8.84037
-8.99553
-9.17786
-9.38783
-9.62375
-9.88349
-10.1641
-10.4609
-10.7687
-11.0823
-11.3974
-11.7106
-12.0193
-12.3212
-12.6147
-12.8988
-13.1722
-13.434
-13.6834
-13.9196
-14.1417
-14.3488
-14.5402
-14.7149
-14.8722
-15.0113
-15.1314
-15.2318
-15.3119
-15.3708
-15.4083
-15.4236
-15.4163
-15.3862
-15.3328
-15.256
-15.1556
-15.0316
-14.884
-14.7128
-14.5184
-14.301
-14.061
-13.7988
-13.5149
-13.21
-12.8848
-12.5401
-12.1767
-11.7956
-11.3976
-10.9839
-10.5555
-10.1135
-9.65909
-9.1934
-8.71762
-8.23295
-7.74057
-7.24166
-6.7374
-6.22894
-5.71741
-5.20392
-4.68952
-4.17525
-3.6621
-3.15099
-2.64283
-2.13845
-1.63864
-1.14414
-0.655628
-0.173724
0.301001
0.76803
1.2269
1.67721
2.1186
2.55076
2.97343
3.3864
3.7895
4.18259
4.56559
4.93843
5.30107
5.6535
5.99574
6.32783
6.64985
6.9619
7.26411
7.55662
7.83959
8.11321
8.37767
8.63316
8.8799
9.1181
9.34798
9.56979
9.78374
9.99008
10.189
10.3808
10.5657
10.744
10.9158
11.0813
11.2409
11.3947
11.543
11.6859
11.8237
11.9566
12.0848
12.2084
12.3276
12.4427
12.5538
12.6611
12.7647
12.8647
12.9615
13.055
13.1453
13.2327
13.3172
13.399
13.4781
13.5547
13.6288
13.7006
13.7702
13.8376
13.903
13.9663
14.0277
14.0873
14.145
14.201
14.2553
14.3079
14.3589
14.4084
14.4563
14.5027
14.5476
14.591
14.633
14.6736
14.7127
14.7504
14.7867
14.8217
14.8552
14.8874
14.9183
14.9478
14.9762
15.0033
15.0294
15.0546
15.0788
15.102
15.1242
15.1423
15.16
15.1462
-7.29779
-7.39129
-7.54331
-7.70901
-7.8758
-8.0367
-8.19119
-8.34716
-8.51287
-8.69412
-8.89497
-9.11664
-9.35772
-9.61733
-9.89489
-10.1881
-10.4933
-10.8059
-11.1219
-11.4376
-11.7501
-12.0571
-12.3567
-12.6477
-12.9289
-13.1995
-13.4589
-13.7063
-13.9412
-14.163
-14.3711
-14.5647
-14.7433
-14.9061
-15.0523
-15.1812
-15.2921
-15.3842
-15.4569
-15.5095
-15.5414
-15.5519
-15.5406
-15.5071
-15.451
-15.372
-15.2698
-15.1444
-14.9958
-14.8241
-14.6292
-14.4116
-14.1716
-13.9095
-13.626
-13.3215
-12.9968
-12.6527
-12.29
-11.9096
-11.5124
-11.0994
-10.6719
-10.2307
-9.77709
-9.31219
-8.83718
-8.35323
-7.86152
-7.36324
-6.85954
-6.35156
-5.84043
-5.32725
-4.81307
-4.29891
-3.78576
-3.27454
-2.76616
-2.26144
-1.76118
-1.2661
-0.776892
-0.294176
0.181476
0.649545
1.10957
1.56113
2.00387
2.43748
2.86169
3.27627
3.68105
4.07589
4.46069
4.83537
5.19989
5.55423
5.89843
6.2325
6.55654
6.87064
7.17491
7.4695
7.75456
8.03027
8.29682
8.55439
8.80321
9.04347
9.27541
9.49924
9.7152
9.92352
10.1244
10.3182
10.505
10.6851
10.8587
11.026
11.1874
11.3429
11.4929
11.6374
11.7768
11.9113
12.0409
12.166
12.2867
12.4032
12.5157
12.6242
12.7291
12.8304
12.9284
13.023
13.1145
13.2029
13.2885
13.3713
13.4514
13.5289
13.604
13.6767
13.7471
13.8154
13.8815
13.9456
14.0078
14.068
14.1265
14.1831
14.238
14.2913
14.3429
14.3929
14.4413
14.4882
14.5336
14.5775
14.62
14.6609
14.7004
14.7385
14.7751
14.8103
14.8441
14.8764
14.9073
14.9368
14.965
14.9917
15.0172
15.0412
15.0639
15.0848
15.1036
15.117
15.1287
15.1067
-7.10701
-7.19312
-7.34721
-7.51954
-7.70289
-7.89513
-8.09282
-8.29796
-8.51512
-8.74676
-8.99318
-9.25433
-9.53016
-9.82028
-10.1228
-10.4345
-10.7517
-11.0711
-11.3896
-11.7045
-12.0139
-12.3159
-12.6092
-12.8929
-13.166
-13.4281
-13.6786
-13.9169
-14.1427
-14.3554
-14.5545
-14.7395
-14.9097
-15.0646
-15.2034
-15.3253
-15.4298
-15.5161
-15.5835
-15.6313
-15.6588
-15.6656
-15.651
-15.6145
-15.5559
-15.4747
-15.3707
-15.2437
-15.0938
-14.9209
-14.7252
-14.5068
-14.2662
-14.0038
-13.7199
-13.4153
-13.0906
-12.7465
-12.384
-12.0038
-11.6069
-11.1944
-10.7673
-10.3267
-9.87371
-9.40948
-8.93516
-8.45194
-7.96097
-7.46344
-6.96048
-6.45325
-5.94284
-5.43034
-4.91681
-4.40325
-3.89063
-3.37989
-2.87189
-2.36748
-1.86743
-1.37247
-0.883276
-0.400468
0.0753829
0.543759
1.0042
1.45628
1.89965
2.33398
2.75902
3.17453
3.58033
3.97628
4.36227
4.73822
5.10409
5.45985
5.80551
6.14113
6.46676
6.7825
7.08847
7.38479
7.67162
7.94912
8.21748
8.47689
8.72755
8.96966
9.20345
9.42914
9.64695
9.8571
10.0598
10.2554
10.444
10.6258
10.8012
10.9703
11.1333
11.2905
11.4421
11.5883
11.7293
11.8653
11.9964
12.123
12.2451
12.363
12.4768
12.5867
12.6929
12.7954
12.8946
12.9904
13.083
13.1725
13.2592
13.343
13.4241
13.5026
13.5786
13.6522
13.7235
13.7926
13.8596
13.9245
13.9874
14.0484
14.1075
14.1648
14.2204
14.2743
14.3265
14.3771
14.4261
14.4736
14.5195
14.5638
14.6067
14.6481
14.688
14.7265
14.7634
14.7989
14.8328
14.8653
14.8962
14.9257
14.9535
14.9798
15.0045
15.0274
15.0484
15.0669
15.0824
15.0913
15.0975
15.0685
-7.07868
-7.16548
-7.31317
-7.48193
-7.66863
-7.87314
-8.0923
-8.32412
-8.56884
-8.82708
-9.09836
-9.38182
-9.67722
-9.98341
-10.2977
-10.6171
-10.9387
-11.2598
-11.5779
-11.8911
-12.1975
-12.4959
-12.7851
-13.0643
-13.3327
-13.5899
-13.8354
-14.0687
-14.2894
-14.4971
-14.6912
-14.8713
-15.0367
-15.1869
-15.3212
-15.4389
-15.5393
-15.6217
-15.6855
-15.73
-15.7544
-15.7583
-15.741
-15.7022
-15.6413
-15.5581
-15.4523
-15.3237
-15.1723
-14.998
-14.8012
-14.5818
-14.3403
-14.0771
-13.7926
-13.4875
-13.1625
-12.8182
-12.4555
-12.0754
-11.6787
-11.2664
-10.8397
-10.3996
-9.94716
-9.48359
-9.01003
-8.52763
-8.03755
-7.54095
-7.03896
-6.53273
-6.02333
-5.51186
-4.99934
-4.48678
-3.97513
-3.46532
-2.95821
-2.45462
-1.95533
-1.46106
-0.97247
-0.490186
-0.0147634
0.453285
0.913499
1.36547
1.80883
2.24328
2.66853
3.08436
3.49058
3.88704
4.27364
4.65028
5.01693
5.37356
5.72018
6.05683
6.38357
6.70049
7.0077
7.30533
7.59351
7.87243
8.14224
8.40314
8.65532
8.89899
9.13435
9.36163
9.58104
9.79281
9.99716
10.1943
10.3845
10.568
10.745
10.9156
11.0802
11.239
11.3921
11.5398
11.6823
11.8197
11.9523
12.0803
12.2038
12.323
12.4381
12.5493
12.6567
12.7605
12.8608
12.9578
13.0515
13.1421
13.2298
13.3147
13.3967
13.4762
13.5532
13.6277
13.6999
13.7698
13.8376
13.9033
13.967
14.0287
14.0886
14.1466
14.2028
14.2573
14.3102
14.3614
14.4109
14.4589
14.5054
14.5502
14.5936
14.6354
14.6758
14.7146
14.7518
14.7875
14.8217
14.8543
14.8852
14.9145
14.9421
14.9679
14.9918
15.0135
15.0327
15.0487
15.061
15.0656
15.0669
15.0318
-7.18918
-7.26754
-7.39849
-7.55437
-7.73298
-7.93403
-8.15482
-8.39276
-8.64621
-8.91384
-9.19402
-9.4856
-9.78765
-10.0982
-10.4148
-10.7349
-11.0559
-11.3756
-11.6918
-12.0028
-12.3069
-12.6029
-12.8898
-13.1668
-13.4332
-13.6885
-13.932
-14.1634
-14.3823
-14.588
-14.7802
-14.9582
-15.1216
-15.2697
-15.4018
-15.5174
-15.6156
-15.6959
-15.7575
-15.7998
-15.8221
-15.8239
-15.8047
-15.7639
-15.7011
-15.6162
-15.5086
-15.3785
-15.2256
-15.05
-14.8519
-14.6314
-14.389
-14.1249
-13.8398
-13.5341
-13.2087
-12.8642
-12.5014
-12.1213
-11.7249
-11.313
-10.8868
-10.4473
-9.99572
-9.53308
-9.06055
-8.57928
-8.09043
-7.59514
-7.09453
-6.58972
-6.0818
-5.57183
-5.06083
-4.54978
-4.03963
-3.53129
-3.02561
-2.5234
-2.02543
-1.53239
-1.04496
-0.563739
-0.0892867
0.37789
0.837334
1.28864
1.73145
2.16544
2.59035
3.00595
3.41206
3.80851
4.1952
4.57203
4.93898
5.296
5.64311
5.98034
6.30776
6.62544
6.93349
7.23203
7.5212
7.80117
8.07209
8.33415
8.58754
8.83246
9.06911
9.29771
9.51847
9.73161
9.93736
10.1359
10.3275
10.5124
10.6908
10.8629
11.0289
11.1891
11.3436
11.4927
11.6365
11.7753
11.9093
12.0386
12.1634
12.2839
12.4003
12.5127
12.6213
12.7262
12.8276
12.9257
13.0205
13.1122
13.2009
13.2867
13.3698
13.4502
13.5281
13.6035
13.6765
13.7473
13.8159
13.8824
13.9468
14.0093
14.0699
14.1286
14.1855
14.2406
14.2941
14.3459
14.396
14.4446
14.4915
14.5369
14.5808
14.623
14.6638
14.7029
14.7405
14.7765
14.8109
14.8436
14.8745
14.9037
14.931
14.9562
14.9792
14.9996
15.0171
15.0307
15.0398
15.0406
15.0374
14.997
-7.36544
-7.43002
-7.54093
-7.67935
-7.84315
-8.03186
-8.24313
-8.47428
-8.72287
-8.98657
-9.26316
-9.55145
-9.85024
-10.1573
-10.4702
-10.7866
-11.1042
-11.4207
-11.7342
-12.043
-12.3455
-12.6405
-12.9269
-13.2038
-13.4703
-13.726
-13.9701
-14.2021
-14.4215
-14.6277
-14.8203
-14.9986
-15.162
-15.3099
-15.4417
-15.5567
-15.6542
-15.7335
-15.794
-15.8351
-15.8561
-15.8566
-15.8358
-15.7936
-15.7293
-15.6428
-15.5338
-15.4022
-15.248
-15.0712
-14.8719
-14.6505
-14.4072
-14.1424
-13.8567
-13.5507
-13.2251
-12.8806
-12.5181
-12.1384
-11.7426
-11.3315
-10.9063
-10.4679
-10.0176
-9.55641
-9.08546
-8.6059
-8.11887
-7.62549
-7.12687
-6.62411
-6.11828
-5.61042
-5.10155
-4.59263
-4.0846
-3.57834
-3.07471
-2.57449
-2.07844
-1.58725
-1.10158
-0.622031
-0.149147
0.31657
0.77467
1.22475
1.66645
2.09946
2.52351
2.93837
3.34386
3.73982
4.12613
4.50271
4.86951
5.22651
5.5737
5.91113
6.23884
6.55691
6.86545
7.16457
7.4544
7.73511
8.00684
8.26978
8.5241
8.77002
9.00771
9.2374
9.45929
9.67359
9.88053
10.0803
10.2732
10.4593
10.639
10.8123
10.9796
11.1411
11.2969
11.4472
11.5923
11.7324
11.8676
11.9981
12.1241
12.2458
12.3634
12.4769
12.5867
12.6927
12.7952
12.8943
12.9902
13.0829
13.1726
13.2594
13.3434
13.4247
13.5035
13.5798
13.6537
13.7253
13.7947
13.8619
13.9271
13.9903
14.0516
14.111
14.1685
14.2243
14.2784
14.3308
14.3815
14.4306
14.4781
14.524
14.5683
14.6111
14.6522
14.6918
14.7297
14.766
14.8005
14.8333
14.8643
14.8933
14.9202
14.9449
14.967
14.9862
15.0019
15.0132
15.0193
15.0164
15.0091
14.9644
-7.53924
-7.59072
-7.68329
-7.80385
-7.95046
-8.12257
-8.31812
-8.53475
-8.76998
-9.02128
-9.2866
-9.56485
-9.85462
-10.1537
-10.4596
-10.7701
-11.0828
-11.3955
-11.7064
-12.0136
-12.3156
-12.6109
-12.8983
-13.1768
-13.4455
-13.7036
-13.9502
-14.1848
-14.4068
-14.6154
-14.8101
-14.9903
-15.1553
-15.3045
-15.4372
-15.5528
-15.6506
-15.7299
-15.7901
-15.8307
-15.851
-15.8505
-15.8287
-15.7853
-15.7199
-15.6322
-15.522
-15.3893
-15.234
-15.0562
-14.8562
-14.634
-14.3902
-14.1251
-13.8394
-13.5335
-13.2082
-12.8642
-12.5025
-12.1238
-11.7292
-11.3195
-10.8959
-10.4594
-10.0111
-9.55206
-9.08344
-8.60635
-8.12189
-7.63119
-7.13533
-6.6354
-6.13244
-5.62748
-5.12152
-4.61549
-4.11034
-3.60693
-3.10608
-2.60857
-2.11515
-1.6265
-1.14326
-0.666033
-0.19535
0.268294
0.724453
1.17273
1.61276
2.04425
2.46692
2.88055
3.28493
3.67994
4.06543
4.44133
4.80758
5.16416
5.51106
5.84832
6.17598
6.49412
6.80283
7.10223
7.39244
7.67361
7.94589
8.20946
8.46449
8.71117
8.9497
9.18028
9.4031
9.61839
9.82635
10.0272
10.2211
10.4084
10.5892
10.7637
10.9322
11.0948
11.2517
11.4033
11.5496
11.6908
11.8271
11.9588
12.086
12.2088
12.3275
12.4421
12.5529
12.6601
12.7636
12.8638
12.9606
13.0543
13.145
13.2327
13.3176
13.3998
13.4795
13.5566
13.6313
13.7037
13.7739
13.8419
13.9079
13.9718
14.0337
14.0938
14.152
14.2085
14.2632
14.3162
14.3675
14.4172
14.4652
14.5116
14.5564
14.5996
14.6412
14.6811
14.7194
14.7559
14.7907
14.8236
14.8546
14.8834
14.91
14.9341
14.9553
14.9733
14.9873
14.9964
14.9998
14.9935
14.9826
14.9341
-7.66602
-7.70818
-7.78536
-7.88929
-8.0185
-8.17253
-8.34965
-8.54791
-8.76527
-8.99956
-9.24937
-9.514
-9.792
-10.0811
-10.3788
-10.6828
-10.9906
-11.3001
-11.6092
-11.916
-12.2187
-12.5158
-12.8059
-13.0878
-13.3603
-13.6224
-13.8733
-14.112
-14.338
-14.5503
-14.7485
-14.9317
-15.0993
-15.2506
-15.3851
-15.502
-15.6006
-15.6805
-15.7409
-15.7813
-15.8012
-15.8002
-15.7777
-15.7335
-15.6672
-15.5786
-15.4676
-15.3341
-15.1781
-14.9999
-14.7994
-14.5771
-14.3334
-14.0686
-13.7834
-13.4783
-13.1541
-12.8115
-12.4513
-12.0745
-11.6819
-11.2746
-10.8536
-10.4199
-9.9745
-9.51863
-9.05331
-8.57965
-8.09876
-7.61171
-7.11958
-6.62342
-6.12428
-5.62314
-5.12099
-4.61875
-4.11733
-3.61758
-3.12033
-2.62634
-2.13632
-1.65095
-1.17086
-0.696644
-0.228828
0.232102
0.685704
1.13158
1.56939
1.99881
2.41958
2.83147
3.23429
3.62788
4.01212
4.38693
4.75224
5.10803
5.45429
5.79105
6.11834
6.43625
6.74485
7.04425
7.33458
7.61597
7.88858
8.15256
8.40809
8.65535
8.89453
9.12582
9.34942
9.56554
9.77438
9.97615
10.1711
10.3593
10.5411
10.7167
10.8862
11.0499
11.208
11.3606
11.508
11.6503
11.7878
11.9205
12.0488
12.1727
12.2924
12.4082
12.52
12.6281
12.7327
12.8338
12.9317
13.0263
13.1179
13.2066
13.2924
13.3755
13.456
13.5339
13.6095
13.6827
13.7536
13.8224
13.8891
13.9537
14.0164
14.0771
14.136
14.1931
14.2484
14.302
14.3539
14.4042
14.4527
14.4997
14.545
14.5887
14.6307
14.671
14.7096
14.7465
14.7814
14.8145
14.8454
14.8742
14.9004
14.9239
14.9443
14.9611
14.9736
14.9806
14.9814
14.9721
14.9578
14.9062
-7.72151
-7.75974
-7.82532
-7.91429
-8.02648
-8.16185
-8.31937
-8.49769
-8.69527
-8.91057
-9.14307
-9.39268
-9.65807
-9.93685
-10.2264
-10.5243
-10.8281
-11.1354
-11.4439
-11.7516
-12.0566
-12.3569
-12.6511
-12.9376
-13.2152
-13.4826
-13.7388
-13.9827
-14.2136
-14.4305
-14.6328
-14.8196
-14.9904
-15.1443
-15.2809
-15.3994
-15.4992
-15.5798
-15.6407
-15.6812
-15.7011
-15.6997
-15.6768
-15.6321
-15.5653
-15.4763
-15.3649
-15.2312
-15.0752
-14.897
-14.697
-14.4753
-14.2325
-13.9689
-13.6851
-13.3819
-13.0597
-12.7195
-12.3621
-11.9882
-11.5989
-11.1951
-10.7778
-10.348
-9.90682
-9.45525
-8.9944
-8.52534
-8.04914
-7.56687
-7.07957
-6.58828
-6.094
-5.59772
-5.10038
-4.6029
-4.10615
-3.61099
-3.11821
-2.62857
-2.14277
-1.66147
-1.18528
-0.714796
-0.250533
0.207026
0.657445
1.10033
1.53534
1.96215
2.3805
2.79016
3.19095
3.58269
3.96527
4.3386
4.7026
5.05725
5.40254
5.73848
6.06511
6.38251
6.69074
6.9899
7.28012
7.56152
7.83425
8.09845
8.3543
8.60197
8.84165
9.07351
9.29775
9.51457
9.72417
9.92675
10.1225
10.3117
10.4944
10.6709
10.8414
11.0061
11.1652
11.3189
11.4673
11.6107
11.7492
11.883
12.0123
12.1373
12.2581
12.3748
12.4877
12.5968
12.7024
12.8045
12.9033
12.9989
13.0914
13.1809
13.2676
13.3516
13.4329
13.5117
13.5881
13.6621
13.7338
13.8033
13.8707
13.9361
13.9994
14.0609
14.1204
14.1781
14.2341
14.2883
14.3408
14.3916
14.4407
14.4882
14.534
14.5782
14.6207
14.6614
14.7004
14.7376
14.7728
14.806
14.837
14.8656
14.8916
14.9146
14.9342
14.9498
14.9608
14.9659
14.9643
14.9524
14.9351
14.8808
-7.70717
-7.74184
-7.79865
-7.87378
-7.96877
-8.08445
-8.22083
-8.37754
-8.55379
-8.74891
-8.96331
-9.1975
-9.45028
-9.71918
-10.0015
-10.2945
-10.5957
-10.9023
-11.2119
-11.5222
-11.8308
-12.1358
-12.4354
-12.7277
-13.0112
-13.2846
-13.5467
-13.7963
-14.0325
-14.2542
-14.4607
-14.6512
-14.8251
-14.9816
-15.1202
-15.2403
-15.3413
-15.4227
-15.4841
-15.5249
-15.5448
-15.5435
-15.5206
-15.4758
-15.4091
-15.3202
-15.2092
-15.0761
-14.9208
-14.7438
-14.5451
-14.3251
-14.0842
-13.823
-13.542
-13.2417
-12.923
-12.5865
-12.2331
-11.8635
-11.4788
-11.0799
-10.6677
-10.2433
-9.80757
-9.36167
-8.90661
-8.44344
-7.97322
-7.49696
-7.01571
-6.53046
-6.04219
-5.55187
-5.06042
-4.56873
-4.07767
-3.58805
-3.10065
-2.61623
-2.1355
-1.65908
-1.18757
-0.721544
-0.261523
0.192011
0.638624
1.07793
1.50957
1.93324
2.34868
2.75564
3.15394
3.54342
3.92394
4.29541
4.65776
5.01095
5.35496
5.6898
6.01552
6.33215
6.63977
6.93848
7.22839
7.5096
7.78227
8.04653
8.30255
8.55049
8.79053
9.02283
9.2476
9.46502
9.67529
9.87858
10.0751
10.2651
10.4487
10.6261
10.7975
10.9632
11.1233
11.2779
11.4273
11.5717
11.7113
11.8461
11.9764
12.1024
12.2242
12.342
12.4558
12.5659
12.6725
12.7755
12.8753
12.9718
13.0652
13.1556
13.2432
13.3281
13.4102
13.4899
13.567
13.6418
13.7143
13.7846
13.8527
13.9188
13.9828
14.045
14.1052
14.1636
14.2202
14.275
14.3281
14.3795
14.4292
14.4772
14.5236
14.5683
14.6112
14.6524
14.6918
14.7293
14.7648
14.7981
14.8292
14.8577
14.8835
14.906
14.9249
14.9396
14.9492
14.9525
14.9488
14.9344
14.9144
14.858
-7.64351
-7.66923
-7.71535
-7.77397
-7.84872
-7.94158
-8.05379
-8.18622
-8.33911
-8.51274
-8.70849
-8.92739
-9.16828
-9.42846
-9.70496
-9.9948
-10.295
-10.6027
-10.915
-11.2292
-11.5428
-11.8535
-12.1591
-12.4577
-12.7476
-13.0272
-13.2951
-13.5501
-13.7912
-14.0174
-14.2278
-14.4217
-14.5983
-14.7571
-14.8975
-15.019
-15.1212
-15.2034
-15.2655