/*--------------------------------*- C++ -*----------------------------------*\
  =========                 |
  \\      /  F ield         | OpenFOAM: The Open Source CFD Toolbox
   \\    /   O peration     | Website:  https://openfoam.org
    \\  /    A nd           | Version:  8
     \\/     M anipulation  |
\*---------------------------------------------------------------------------*/
FoamFile
{
    version     2.0;
    format      ascii;
    class       volVectorField;
    location    "3200";
    object      U;
}
// * * * * * * * * * * * * * * * * * * * * * * * * * * * * * * * * * * * * * //

dimensions      [0 1 -1 0 0 0 0];

internalField   nonuniform List<vector> 
12225
(
(9.2745 -4.73371 0)
(13.1094 -1.71343 0)
(12.4779 -0.395197 0)
(11.2772 -0.0422026 0)
(10.6315 0.0141427 0)
(10.2982 -6.58788e-05 0)
(10.078 -0.0165181 0)
(9.91229 -0.00342659 0)
(9.77797 0.0338861 0)
(9.66005 0.0421378 0)
(9.55289 0.0245263 0)
(9.45486 0.00218564 0)
(9.36445 -0.022513 0)
(9.28053 -0.0298894 0)
(9.20148 -0.0213901 0)
(9.13246 -0.020717 0)
(9.07078 -0.0203782 0)
(9.08948 -0.0268323 0)
(10.2592 0.0928017 0)
(10.7814 0.199338 0)
(10.9594 0.245655 0)
(10.747 0.229142 0)
(10.5876 0.17297 0)
(10.4528 0.115566 0)
(10.3302 0.0823232 0)
(10.2331 0.0641992 0)
(10.156 0.0511913 0)
(10.0904 0.045663 0)
(10.033 0.0456675 0)
(9.98233 0.0481746 0)
(9.93757 0.0515325 0)
(9.89769 0.0520645 0)
(9.86068 0.0487249 0)
(9.82799 0.0445297 0)
(9.79339 0.0310127 0)
(9.76763 0.0112928 0)
(9.87768 -0.24504 0)
(9.74285 0.00578976 0)
(10.1971 0.125742 0)
(10.3245 0.179362 0)
(10.3564 0.161548 0)
(10.3312 0.120084 0)
(10.2777 0.0904266 0)
(10.2253 0.0742664 0)
(10.1815 0.0650483 0)
(10.1441 0.0589956 0)
(10.1106 0.0552704 0)
(10.08 0.0530026 0)
(10.0518 0.050829 0)
(10.0258 0.0487408 0)
(10.002 0.0462963 0)
(9.9809 0.0422102 0)
(9.95891 0.0322609 0)
(9.93435 0.0142461 0)
(9.83416 -0.443933 0)
(9.57654 -0.163148 0)
(9.91603 0.0336691 0)
(10.0933 0.134223 0)
(10.1892 0.145472 0)
(10.2168 0.120728 0)
(10.205 0.0978068 0)
(10.1824 0.0836513 0)
(10.1599 0.0751945 0)
(10.139 0.0691721 0)
(10.1192 0.0646092 0)
(10.1002 0.0612273 0)
(10.0821 0.058362 0)
(10.0647 0.0561445 0)
(10.0482 0.0539326 0)
(10.0324 0.0503572 0)
(10.0147 0.0426992 0)
(9.99169 0.0309102 0)
(9.87825 -0.387476 0)
(9.61653 -0.196148 0)
(9.81623 -0.0186719 0)
(9.96136 0.0916105 0)
(10.0698 0.122192 0)
(10.1219 0.113607 0)
(10.1353 0.099186 0)
(10.1331 0.0882817 0)
(10.1257 0.0807718 0)
(10.1162 0.0751795 0)
(10.1057 0.0708855 0)
(10.0947 0.0676574 0)
(10.0833 0.0650758 0)
(10.0718 0.0630544 0)
(10.06 0.0610315 0)
(10.0477 0.0581601 0)
(10.0328 0.0531529 0)
(10.0124 0.0469755 0)
(9.91439 -0.28804 0)
(9.68304 -0.185177 0)
(9.78717 -0.0532095 0)
(9.88918 0.050996 0)
(9.98798 0.0936731 0)
(10.0476 0.0991798 0)
(10.0751 0.0938166 0)
(10.086 0.087453 0)
(10.0891 0.0820731 0)
(10.0879 0.0777096 0)
(10.0843 0.0742685 0)
(10.079 0.0716528 0)
(10.0727 0.0696286 0)
(10.0654 0.0680818 0)
(10.0572 0.0666733 0)
(10.0476 0.0650146 0)
(10.0354 0.062753 0)
(10.0185 0.061136 0)
(9.93763 -0.214041 0)
(9.74856 -0.167538 0)
(9.79244 -0.0752185 0)
(9.85609 0.0162152 0)
(9.93596 0.0644116 0)
(9.99281 0.0805712 0)
(10.026 0.0835226 0)
(10.0446 0.0822192 0)
(10.0546 0.079787 0)
(10.0593 0.0773023 0)
(10.0606 0.0751688 0)
(10.0597 0.0735184 0)
(10.0571 0.0723233 0)
(10.0531 0.0715639 0)
(10.0477 0.0711258 0)
(10.0407 0.0709525 0)
(10.0312 0.0712075 0)
(10.0182 0.0730751 0)
(9.95263 -0.167334 0)
(9.79947 -0.149678 0)
(9.81178 -0.0846429 0)
(9.84959 -0.00621309 0)
(9.91141 0.0419258 0)
(9.96107 0.063884 0)
(9.9943 0.0725345 0)
(10.0156 0.0752879 0)
(10.0288 0.0755578 0)
(10.0367 0.0749422 0)
(10.041 0.0741761 0)
(10.0427 0.0735872 0)
(10.0426 0.0733069 0)
(10.0408 0.0734201 0)
(10.0375 0.0739713 0)
(10.0325 0.0750946 0)
(10.0254 0.0771534 0)
(10.0157 0.0811522 0)
(9.96406 -0.132089 0)
(9.84003 -0.13199 0)
(9.83337 -0.0876922 0)
(9.85306 -0.0213365 0)
(9.89927 0.024408 0)
(9.94102 0.0494988 0)
(9.97205 0.0621083 0)
(9.99383 0.0680788 0)
(10.0086 0.0707227 0)
(10.0184 0.0718325 0)
(10.0246 0.0723468 0)
(10.0282 0.0727615 0)
(10.0298 0.0733466 0)
(10.0297 0.074291 0)
(10.028 0.0757502 0)
(10.0248 0.0779617 0)
(10.0197 0.0813567 0)
(10.0129 0.0867541 0)
(9.97418 -0.100205 0)
(9.87757 -0.112392 0)
(9.85857 -0.0853688 0)
(9.86388 -0.0323369 0)
(9.89487 0.00892141 0)
(9.92742 0.0352116 0)
(9.95438 0.0507059 0)
(9.975 0.0595002 0)
(9.99013 0.0644666 0)
(10.0009 0.0673908 0)
(10.0085 0.0693234 0)
(10.0135 0.0708868 0)
(10.0166 0.0724683 0)
(10.018 0.0743477 0)
(10.018 0.076771 0)
(10.0165 0.0800368 0)
(10.0136 0.084572 0)
(10.0095 0.0909976 0)
(9.98253 -0.0727092 0)
(9.91035 -0.0921984 0)
(9.88507 -0.0782466 0)
(9.88002 -0.0386111 0)
(9.89746 -0.0033801 0)
(9.92043 0.0221601 0)
(9.94195 0.0391778 0)
(9.95998 0.0500847 0)
(9.97424 0.0570725 0)
(9.98518 0.0617272 0)
(9.9934 0.0650979 0)
(9.99943 0.0678712 0)
(10.0037 0.0705115 0)
(10.0064 0.0733691 0)
(10.0078 0.0767459 0)
(10.0081 0.0809607 0)
(10.0073 0.0863891 0)
(10.0058 0.0934684 0)
(9.98894 -0.0502566 0)
(9.93733 -0.0723805 0)
(9.91073 -0.0674505 0)
(9.89917 -0.0399859 0)
(9.90566 -0.0116545 0)
(9.91955 0.0114464 0)
(9.93496 0.0285271 0)
(9.94933 0.0405834 0)
(9.96169 0.0490349 0)
(9.97188 0.0551255 0)
(9.9801 0.0597914 0)
(9.9866 0.0637076 0)
(9.99165 0.0673673 0)
(9.99545 0.0711521 0)
(9.9982 0.0753839 0)
(10.0001 0.0803655 0)
(10.0013 0.0863987 0)
(10.0021 0.0937657 0)
(9.99348 -0.0329084 0)
(9.9582 -0.0538135 0)
(9.93368 -0.0542856 0)
(9.91899 -0.0367898 0)
(9.91755 -0.0154567 0)
(9.92366 0.00399129 0)
(9.93301 0.0197736 0)
(9.94317 0.0318784 0)
(9.95289 0.0410163 0)
(9.96163 0.0480278 0)
(9.96922 0.053653 0)
(9.97571 0.0584847 0)
(9.98119 0.0629877 0)
(9.98579 0.0675307 0)
(9.98965 0.0724183 0)
(9.99294 0.0779119 0)
(9.99587 0.0842314 0)
(9.99869 0.0915517 0)
(9.99643 -0.0202021 0)
(9.97327 -0.0372126 0)
(9.95261 -0.0400474 0)
(9.93731 -0.0298126 0)
(9.9309 -0.0148259 0)
(9.93102 0.000364133 0)
(9.93504 0.0137727 0)
(9.94104 0.0248429 0)
(9.94781 0.0337607 0)
(9.95465 0.0409933 0)
(9.96117 0.0470506 0)
(9.96724 0.0523931 0)
(9.97281 0.0574062 0)
(9.97791 0.0624062 0)
(9.98261 0.0676473 0)
(9.98704 0.0733322 0)
(9.99135 0.0796111 0)
(9.99573 0.086578 0)
(9.99816 -0.0112871 0)
(9.9833 -0.022934 0)
(9.96682 -0.0257651 0)
(9.95243 -0.0200788 0)
(9.94344 -0.010244 0)
(9.93952 0.000672789 0)
(9.9394 0.011028 0)
(9.94182 0.0201426 0)
(9.94582 0.0279242 0)
(9.95069 0.0345708 0)
(9.95597 0.0403838 0)
(9.96139 0.045673 0)
(9.96681 0.0507171 0)
(9.97216 0.0557478 0)
(9.97744 0.0609498 0)
(9.9827 0.066459 0)
(9.98803 0.0723653 0)
(9.99353 0.0787084 0)
(9.99906 -0.00508019 0)
(9.98922 -0.0107858 0)
(9.97612 -0.0119203 0)
(9.96309 -0.00848581 0)
(9.9531 -0.00243731 0)
(9.94685 0.00457595 0)
(9.94399 0.0115552 0)
(9.94384 0.0180186 0)
(9.9457 0.0238372 0)
(9.94896 0.0290789 0)
(9.95317 0.0338994 0)
(9.95799 0.0384755 0)
(9.96321 0.042972 0)
(9.96868 0.0475261 0)
(9.97435 0.0522421 0)
(9.98019 0.0571896 0)
(9.98623 0.0624035 0)
(9.99249 0.0678869 0)
(9.99942 -0.000366692 0)
(9.99181 0.000144546 0)
(9.98042 0.00182699 0)
(9.96821 0.00458968 0)
(9.9579 0.00791657 0)
(9.95061 0.0113992 0)
(9.94642 0.0148151 0)
(9.94498 0.0180879 0)
(9.94576 0.0212337 0)
(9.94825 0.0243189 0)
(9.95198 0.0274247 0)
(9.95661 0.0306279 0)
(9.96186 0.0339917 0)
(9.96757 0.0375593 0)
(9.97362 0.0413552 0)
(9.97993 0.0453832 0)
(9.98648 0.0496296 0)
(9.99325 0.0540644 0)
(9.99935 0.00408526 0)
(9.9911 0.0111646 0)
(9.97897 0.0161273 0)
(9.96616 0.0187321 0)
(9.95552 0.0196104 0)
(9.94819 0.0195462 0)
(9.94419 0.0191614 0)
(9.94312 0.0188663 0)
(9.94438 0.0189005 0)
(9.94741 0.0193814 0)
(9.95174 0.0203492 0)
(9.95699 0.0217998 0)
(9.96287 0.0237012 0)
(9.96919 0.0260107 0)
(9.97583 0.0286748 0)
(9.9827 0.0316388 0)
(9.98974 0.0348426 0)
(9.99692 0.0382273 0)
(9.99882 0.00973015 0)
(9.98675 0.0240406 0)
(9.97122 0.031841 0)
(9.95642 0.03329 0)
(9.94559 0.0307039 0)
(9.93942 0.0263536 0)
(9.93735 0.0217565 0)
(9.93845 0.0177504 0)
(9.94187 0.0147093 0)
(9.94687 0.0127256 0)
(9.95292 0.0117454 0)
(9.95963 0.0116484 0)
(9.96674 0.0122975 0)
(9.97408 0.0135566 0)
(9.98155 0.015302 0)
(9.98909 0.0174233 0)
(9.99665 0.0198241 0)
(10.0042 0.0224203 0)
(9.99757 0.0182103 0)
(9.97774 0.0404484 0)
(9.95664 0.0495719 0)
(9.93945 0.0474758 0)
(9.92962 0.039425 0)
(9.9266 0.0296565 0)
(9.92849 0.0205054 0)
(9.93358 0.01299 0)
(9.94055 0.0073744 0)
(9.94856 0.00354769 0)
(9.95704 0.00125234 0)
(9.96567 0.000198654 0)
(9.97427 0.000126188 0)
(9.98276 0.000801525 0)
(9.99109 0.00204313 0)
(9.99925 0.00369412 0)
(10.0073 0.00563619 0)
(10.0151 0.00776873 0)
(9.99502 0.0318148 0)
(9.96177 0.0621277 0)
(9.93372 0.0695462 0)
(9.91535 0.0601113 0)
(9.90934 0.0439535 0)
(9.91251 0.0276726 0)
(9.92086 0.0140188 0)
(9.93164 0.00366881 0)
(9.94323 -0.00359951 0)
(9.9548 -0.0083232 0)
(9.96593 -0.0110776 0)
(9.9765 -0.0123499 0)
(9.98649 -0.0125402 0)
(9.99593 -0.0119413 0)
(10.0049 -0.0107927 0)
(10.0135 -0.00925835 0)
(10.0217 -0.00747821 0)
(10.0296 -0.00554041 0)
(9.99018 0.053462 0)
(9.93561 0.090147 0)
(9.90098 0.0906223 0)
(9.88516 0.0687526 0)
(9.88782 0.0418212 0)
(9.90124 0.0186734 0)
(9.91858 0.00144305 0)
(9.93629 -0.010355 0)
(9.95288 -0.0178851 0)
(9.96787 -0.0223086 0)
(9.98127 -0.0245581 0)
(9.99328 -0.0253092 0)
(10.0041 -0.025045 0)
(10.014 -0.0240944 0)
(10.0232 -0.022695 0)
(10.0318 -0.0210196 0)
(10.0399 -0.0191833 0)
(10.0476 -0.0172638 0)
(9.9819 0.0862474 0)
(9.89548 0.124254 0)
(9.85818 0.109878 0)
(9.85211 0.0697683 0)
(9.87036 0.0303377 0)
(9.89846 0.00145978 0)
(9.92662 -0.017175 0)
(9.95139 -0.0282766 0)
(9.97225 -0.034328 0)
(9.98963 -0.03719 0)
(10.0042 -0.0380515 0)
(10.0167 -0.0376817 0)
(10.0275 -0.0365302 0)
(10.0371 -0.0349394 0)
(10.0458 -0.0330862 0)
(10.0538 -0.0311187 0)
(10.0613 -0.0291202 0)
(10.0684 -0.0271359 0)
(9.96925 0.13399 0)
(9.83823 0.163086 0)
(9.80793 0.122585 0)
(9.82313 0.0587928 0)
(9.86516 0.00730212 0)
(9.91144 -0.024022 0)
(9.9504 -0.04057 0)
(9.98056 -0.0483085 0)
(10.0036 -0.0511197 0)
(10.0213 -0.0513208 0)
(10.0353 -0.0501842 0)
(10.0468 -0.0483233 0)
(10.0564 -0.0461356 0)
(10.0647 -0.0438017 0)
(10.0721 -0.0414364 0)
(10.0789 -0.0391284 0)
(10.0851 -0.0369755 0)
(10.0911 -0.034936 0)
(9.94951 0.207141 0)
(9.76128 0.20702 0)
(9.75726 0.123472 0)
(9.81044 0.0320016 0)
(9.88386 -0.0278744 0)
(9.9488 -0.0560042 0)
(9.99535 -0.0660602 0)
(10.0267 -0.0677729 0)
(10.0481 -0.0659497 0)
(10.0631 -0.0629138 0)
(10.0742 -0.059586 0)
(10.0828 -0.0562707 0)
(10.0898 -0.053087 0)
(10.0957 -0.0501235 0)
(10.1009 -0.0473227 0)
(10.1055 -0.0447389 0)
(10.1098 -0.0425044 0)
(10.114 -0.0404876 0)
(9.91094 0.322718 0)
(9.65922 0.254544 0)
(9.71887 0.107401 0)
(9.83331 -0.0119364 0)
(9.94177 -0.0726756 0)
(10.02 -0.0901944 0)
(10.0662 -0.0893509 0)
(10.0918 -0.0832321 0)
(10.1061 -0.076303 0)
(10.1144 -0.0702393 0)
(10.1196 -0.0651133 0)
(10.1232 -0.0606667 0)
(10.1259 -0.0567222 0)
(10.1279 -0.0533888 0)
(10.1297 -0.0503314 0)
(10.1311 -0.0475925 0)
(10.1325 -0.0454517 0)
(10.1342 -0.0436356 0)
(9.84404 0.43511 0)
(9.53797 0.261026 0)
(9.7269 0.0591282 0)
(9.92369 -0.073131 0)
(10.0584 -0.121584 0)
(10.1345 -0.120237 0)
(10.1665 -0.10536 0)
(10.1757 -0.0910047 0)
(10.1757 -0.079779 0)
(10.1725 -0.0718061 0)
(10.1686 -0.0660252 0)
(10.1646 -0.0610721 0)
(10.1607 -0.0566385 0)
(10.157 -0.0529228 0)
(10.1536 -0.0497211 0)
(10.1502 -0.0469288 0)
(10.1473 -0.0451354 0)
(10.1456 -0.0438683 0)
(9.83598 0.319667 0)
(9.5502 0.09125 0)
(9.91739 -0.0687296 0)
(10.1507 -0.160124 0)
(10.2635 -0.17216 0)
(10.3033 -0.142762 0)
(10.2976 -0.112243 0)
(10.2753 -0.0908029 0)
(10.2514 -0.0768545 0)
(10.2304 -0.0683655 0)
(10.2131 -0.0630524 0)
(10.1984 -0.0585407 0)
(10.1847 -0.0537842 0)
(10.172 -0.0494036 0)
(10.1603 -0.0448011 0)
(10.1492 -0.0410166 0)
(10.1403 -0.0406974 0)
(10.1332 -0.0399065 0)
(10.2049 -0.0633777 0)
(10.4095 -0.191709 0)
(10.7164 -0.282554 0)
(10.6879 -0.282285 0)
(10.6192 -0.2301 0)
(10.5417 -0.163679 0)
(10.454 -0.117365 0)
(10.3752 -0.09329 0)
(10.3136 -0.07985 0)
(10.2654 -0.0684361 0)
(10.2259 -0.0594315 0)
(10.1918 -0.0549674 0)
(10.1612 -0.0541387 0)
(10.1338 -0.0528339 0)
(10.1072 -0.0518504 0)
(10.0829 -0.0502271 0)
(10.0657 -0.043709 0)
(10.0501 -0.0388138 0)
(9.41631 4.45107 0)
(12.7294 2.07612 0)
(12.5649 0.621223 0)
(11.5691 0.127669 0)
(10.9311 0.00345055 0)
(10.5866 -0.00208564 0)
(10.3632 0.012072 0)
(10.2012 0.0300978 0)
(10.079 0.0416572 0)
(9.97744 0.0356762 0)
(9.88474 0.0251066 0)
(9.79914 0.0223522 0)
(9.72402 0.0258252 0)
(9.65702 0.0222697 0)
(9.59987 0.0187428 0)
(9.55143 0.0147639 0)
(9.49878 -0.00542448 0)
(9.44697 -0.0225375 0)
(-0.0275507 0.0934386 0)
(0.137036 -0.183515 0)
(0.32497 -0.305892 0)
(0.525443 -0.315125 0)
(0.70293 -0.272089 0)
(0.833505 -0.211104 0)
(0.909854 -0.146366 -8.60051e-20)
(0.940464 -0.0825204 8.66269e-20)
(0.919623 -0.0201946 0)
(0.858962 0.0345243 9.18459e-20)
(0.771813 0.0739643 0)
(0.672543 0.092029 0)
(0.5786 0.0877649 0)
(0.505784 0.0667055 -1.43192e-19)
(0.455802 0.037727 0)
(0.412241 0.00995213 0)
(0.352564 -0.00899847 1.87705e-19)
(0.262297 -0.00886635 0)
(0.134706 0.0289359 0)
(-0.0448321 0.112653 0)
(-0.300198 0.186421 -1.64924e-19)
(-0.593666 0.235269 0)
(-0.914981 0.266821 -7.62563e-20)
(-1.25125 0.295997 0)
(-1.59072 0.323629 0)
(-1.93049 0.336463 -4.13261e-20)
(-2.26296 0.335625 0)
(-2.58011 0.326516 3.45417e-20)
(-2.87893 0.310387 0)
(-3.15599 0.289592 -3.13416e-20)
(-3.41038 0.266457 0)
(-3.64172 0.242577 0)
(-3.85073 0.218984 0)
(-4.03851 0.196388 0)
(-4.20648 0.175163 0)
(-4.35623 0.155517 2.82293e-20)
(-4.48932 0.137486 0)
(-4.60725 0.120998 -5.55702e-20)
(-4.7114 0.105927 0)
(-4.80298 0.0921127 5.47718e-20)
(-4.88306 0.0793932 0)
(-4.95253 0.0676165 0)
(-5.01214 0.0566546 -5.35501e-20)
(-5.06251 0.0464108 0)
(-5.10416 0.0368256 -5.26586e-20)
(-5.13749 0.0278821 5.21809e-20)
(-5.16289 0.0196243 0)
(-5.18077 0.0121999 5.11543e-20)
(-5.19138 0.00585692 5.0602e-20)
(-5.19491 0.000805783 0)
(-5.1926 -0.00314864 0)
(-5.18568 -0.00644726 0)
(-5.1743 -0.00936999 0)
(-5.15878 -0.0120811 0)
(-5.13928 -0.0146498 -4.61832e-20)
(-5.11594 -0.0170901 0)
(-5.08887 -0.0194131 4.43181e-20)
(-5.05818 -0.0216279 0)
(-5.02396 -0.0237367 0)
(-4.98633 -0.0257413 -4.11403e-20)
(-4.94538 -0.0276422 0)
(-4.90122 -0.0294394 3.87648e-20)
(-4.85396 -0.0311324 0)
(-4.80371 -0.0327215 0)
(-4.7506 -0.0342065 0)
(-4.69474 -0.0355872 -3.33855e-20)
(-4.63625 -0.0368641 0)
(-4.57526 -0.0380382 0)
(-4.5119 -0.03911 -2.87883e-20)
(-4.44629 -0.0400803 0)
(-4.37857 -0.0409506 -2.5447e-20)
(-4.30887 -0.0417224 0)
(-4.23732 -0.0423974 0)
(-4.16405 -0.0429776 0)
(-4.08919 -0.0434651 1.80698e-20)
(-4.01287 -0.0438621 0)
(-3.93523 -0.0441709 0)
(-3.85639 -0.0443939 1.18879e-20)
(-3.77646 -0.0445333 9.69408e-21)
(-3.69558 -0.0445915 0)
(-3.61387 -0.0445713 5.09221e-21)
(-3.53143 -0.0444757 0)
(-3.44839 -0.0443083 3.68269e-22)
(-3.36484 -0.044074 0)
(-3.28089 -0.0437793 -1.01216e-20)
(-3.19664 -0.0434333 0)
(-3.11218 -0.0430496 2.13642e-20)
(-3.02758 -0.0426478 0)
(-2.94292 -0.0422565 0)
(-2.85825 -0.0419183 0)
(-2.77361 -0.041695 -4.65564e-20)
(-2.68903 -0.0416691 0)
(-2.60451 -0.0419307 6.08318e-20)
(-2.52002 -0.0425358 0)
(-2.43553 -0.0434256 -7.65019e-20)
(-2.35128 -0.0443282 -8.48807e-20)
(-2.26751 -0.0447829 -9.35892e-20)
(-2.18449 -0.0445747 0)
(-2.10238 -0.0439697 0)
(-2.0212 -0.0432713 0)
(-1.94096 -0.0425662 0)
(-1.86167 -0.041866 0)
(-1.78336 -0.0411715 0)
(-1.70604 -0.0404844 0)
(-1.62976 -0.0398087 0)
(-1.55452 -0.0391499 1.92703e-19)
(-1.48034 -0.0385153 2.07024e-19)
(-1.40724 -0.0379102 0)
(-1.33523 -0.0373236 0)
(-1.26434 -0.0366983 0)
(-1.19461 -0.0360406 2.74293e-19)
(-1.12604 -0.0354064 0)
(-1.05862 -0.0347909 0)
(-0.992375 -0.0341952 0)
(-0.927291 -0.0336211 0)
(-0.863374 -0.0330707 -3.90937e-19)
(-0.80062 -0.0325463 0)
(-0.739025 -0.0320513 0)
(-0.678584 -0.0315891 4.89121e-19)
(-0.61929 -0.0311612 -5.28821e-19)
(-0.561135 -0.0307711 0)
(-0.504113 -0.0304294 -6.22437e-19)
(-0.448209 -0.0301598 0)
(-0.393406 -0.0300069 7.41425e-19)
(-0.339681 -0.0299816 0)
(-0.287021 -0.0300454 0)
(-0.235411 -0.0301853 0)
(-0.184822 -0.0304124 0)
(-0.135229 -0.030742 0)
(-0.0866759 -0.0311931 -2.84674e-18)
(-0.039374 -0.0316474 -3.2775e-18)
(0.00672993 -0.0313477 0)
(0.0521467 -0.0298499 0)
(0.0968863 -0.0279997 0)
(0.140807 -0.0262819 2.68467e-18)
(0.183816 -0.0247492 0)
(0.225893 -0.0233759 0)
(0.26706 -0.0221384 0)
(0.307349 -0.0210169 2.03988e-18)
(0.346792 -0.0199941 -1.9336e-18)
(0.385417 -0.0190559 0)
(0.423249 -0.0181909 0)
(0.460313 -0.0173897 -1.68686e-18)
(0.496635 -0.016645 -1.6222e-18)
(0.532236 -0.0159505 0)
(0.567139 -0.0153012 0)
(0.601368 -0.0146927 1.46393e-18)
(0.634945 -0.0141215 -1.42045e-18)
(0.667893 -0.0135844 0)
(0.700234 -0.0130788 0)
(0.731991 -0.0126022 -1.31018e-18)
(0.763187 -0.0121529 0)
(0.793845 -0.0117289 0)
(0.823988 -0.0113287 -1.22267e-18)
(0.853639 -0.0109511 0)
(0.882821 -0.0105946 -1.17359e-18)
(0.911558 -0.0102581 0)
(0.939873 -0.00994066 0)
(0.967789 -0.00964109 0)
(0.995328 -0.00935835 1.0916e-18)
(1.02251 -0.00909132 0)
(1.04936 -0.00883874 0)
(1.07589 -0.00859915 0)
(1.10212 -0.00837075 0)
(1.12806 -0.00815128 0)
(1.15371 -0.00793782 0)
(1.17906 -0.00772651 9.82785e-19)
(1.20409 -0.00751218 9.69863e-19)
(1.22876 -0.00728786 0)
(1.25301 -0.00704399 0)
(1.27672 -0.00676707 0)
(1.29974 -0.00643849 -9.24517e-19)
(1.32181 -0.00602856 0)
(1.34255 -0.00549848 1.81393e-18)
(1.36149 -0.00476146 -1.80056e-18)
(1.37723 -0.00372578 -1.79183e-18)
(1.38982 -0.00195495 1.79014e-18)
(1.39023 0.00132745 -1.79551e-18)
(1.38753 0.00807608 1.80883e-18)
(1.30826 0.01989 0)
(0.0963256 -0.268902 0)
(0.334091 -0.681218 0)
(0.514213 -0.706537 1.57332e-19)
(0.611874 -0.571403 0)
(0.662886 -0.408974 -1.11115e-19)
(0.683344 -0.253912 -1.08079e-19)
(0.677337 -0.112265 -5.62397e-20)
(0.646984 0.0154964 -5.61864e-20)
(0.604019 0.125328 0)
(0.544842 0.211872 -6.07926e-20)
(0.46805 0.267383 0)
(0.373592 0.283223 0)
(0.257831 0.256475 1.70452e-19)
(0.110566 0.211421 9.82633e-20)
(-0.0743673 0.206121 -1.84472e-19)
(-0.300557 0.271543 -1.43838e-19)
(-0.578487 0.383096 -5.72067e-20)
(-0.904375 0.51293 0)
(-1.25796 0.642364 0)
(-1.61609 0.756276 0)
(-1.97173 0.841909 -2.85754e-20)
(-2.31731 0.895535 0)
(-2.64722 0.919057 6.90603e-20)
(-2.95398 0.915512 0)
(-3.23353 0.889102 0)
(-3.48422 0.844958 1.98183e-20)
(-3.70465 0.788403 0)
(-3.89565 0.724973 -1.97607e-20)
(-4.05908 0.658899 -4.17958e-20)
(-4.1985 0.592894 2.01675e-20)
(-4.31683 0.52906 0)
(-4.41695 0.469183 0)
(-4.50159 0.414094 0)
(-4.57314 0.364145 -4.42579e-20)
(-4.63366 0.319297 -4.47644e-20)
(-4.68485 0.279279 -2.21895e-20)
(-4.72809 0.24368 0)
(-4.76449 0.212018 4.53071e-20)
(-4.79493 0.183795 0)
(-4.82014 0.158531 -4.58792e-20)
(-4.84071 0.135783 0)
(-4.85712 0.115159 0)
(-4.8698 0.0963169 4.60903e-20)
(-4.87913 0.0789662 0)
(-4.88543 0.0628663 1.38173e-19)
(-4.88903 0.0478229 -4.56113e-20)
(-4.8902 0.0337004 0)
(-4.88919 0.0204682 -4.49424e-20)
(-4.88626 0.00824248 -4.44859e-20)
(-4.88167 -0.00281471 0)
(-4.87453 -0.0127588 0)
(-4.8637 -0.0218856 0)
(-4.8492 -0.0304387 0)
(-4.83091 -0.0385324 0)
(-4.80887 -0.0462366 4.02205e-20)
(-4.78313 -0.0535881 7.91717e-20)
(-4.75378 -0.0606081 -3.84434e-20)
(-4.72089 -0.0673079 0)
(-4.68455 -0.0736933 7.34937e-20)
(-4.64487 -0.0797669 -3.59706e-20)
(-4.60193 -0.0855293 0)
(-4.55584 -0.0909804 -3.32706e-20)
(-4.5067 -0.09612 0)
(-4.45462 -0.10095 0)
(-4.39972 -0.105471 -5.98996e-20)
(-4.34211 -0.109684 2.83892e-20)
(-4.28191 -0.113589 -5.4708e-20)
(-4.21924 -0.117188 5.19892e-20)
(-4.15423 -0.120487 2.42976e-20)
(-4.087 -0.123488 0)
(-4.01769 -0.126197 2.13646e-20)
(-3.9464 -0.128621 0)
(-3.87328 -0.130765 0)
(-3.79846 -0.132637 0)
(-3.72206 -0.134245 1.56382e-20)
(-3.6442 -0.135597 0)
(-3.56502 -0.136703 2.37735e-20)
(-3.48464 -0.137573 -2.99844e-20)
(-3.40317 -0.138217 -7.94504e-21)
(-3.32074 -0.138646 0)
(-3.23746 -0.13887 -4.14431e-21)
(-3.15345 -0.138903 0)
(-3.06882 -0.138754 -2.9763e-22)
(-2.98366 -0.138437 0)
(-2.89809 -0.137964 8.1084e-21)
(-2.81219 -0.137347 -2.35586e-20)
(-2.72607 -0.136596 -1.69618e-20)
(-2.63982 -0.135723 0)
(-2.55351 -0.134736 0)
(-2.46726 -0.13364 0)
(-2.38115 -0.132434 3.61802e-20)
(-2.29529 -0.13111 0)
(-2.20983 -0.12964 -4.66519e-20)
(-2.12491 -0.127968 0)
(-2.04067 -0.126042 1.7187e-19)
(-1.95718 -0.123887 6.36287e-20)
(-1.87445 -0.121603 6.96602e-20)
(-1.79244 -0.119298 0)
(-1.71111 -0.11703 0)
(-1.63051 -0.114796 0)
(-1.55073 -0.112573 0)
(-1.4718 -0.110349 0)
(-1.39377 -0.108118 2.19488e-19)
(-1.31667 -0.105881 2.3498e-19)
(-1.24053 -0.103642 0)
(-1.16537 -0.101403 -1.34759e-19)
(-1.09123 -0.0991668 -1.43539e-19)
(-1.01813 -0.0969357 0)
(-0.946088 -0.0947116 -3.23034e-19)
(-0.875127 -0.0924987 0)
(-0.805238 -0.0903106 1.81322e-19)
(-0.736429 -0.0881531 0)
(-0.668712 -0.0860265 0)
(-0.602092 -0.0839331 -4.3445e-19)
(-0.53657 -0.0818743 0)
(-0.472148 -0.0798518 2.44832e-19)
(-0.408826 -0.0778686 0)
(-0.346602 -0.0759303 0)
(-0.28547 -0.0740458 2.8977e-19)
(-0.225421 -0.072213 3.09075e-19)
(-0.16645 -0.0704267 0)
(-0.108549 -0.0686898 -3.46371e-19)
(-0.0517238 -0.0670024 0)
(0.00402807 -0.0653561 3.82634e-19)
(0.0587486 -0.0637438 7.66172e-19)
(0.112471 -0.062177 0)
(0.165196 -0.0606703 0)
(0.216924 -0.0592282 0)
(0.26767 -0.0578486 0)
(0.317466 -0.0565336 7.09224e-19)
(0.366382 -0.0552721 2.0964e-18)
(0.414505 -0.053894 0)
(0.461747 -0.0522489 0)
(0.507968 -0.050475 0)
(0.553237 -0.0487284 -6.65614e-19)
(0.597637 -0.0470608 0)
(0.641194 -0.0454807 0)
(0.683927 -0.0439856 1.28791e-18)
(0.725857 -0.0425689 6.36937e-19)
(0.767004 -0.0412233 6.32413e-19)
(0.807391 -0.0399422 0)
(0.847039 -0.0387199 0)
(0.885969 -0.0375523 6.15871e-19)
(0.924203 -0.0364355 -6.09635e-19)
(0.961761 -0.0353667 0)
(0.998666 -0.0343434 0)
(1.03494 -0.0333634 -5.96778e-19)
(1.0706 -0.0324249 1.77636e-18)
(1.10567 -0.0315263 0)
(1.14017 -0.0306661 0)
(1.17413 -0.0298431 5.80312e-19)
(1.20756 -0.0290561 0)
(1.24049 -0.028304 1.14492e-18)
(1.27294 -0.0275858 -5.68529e-19)
(1.30493 -0.0269005 0)
(1.33649 -0.0262472 5.62417e-19)
(1.36763 -0.0256248 1.11755e-18)
(1.39837 -0.0250323 0)
(1.42875 -0.0244683 0)
(1.45878 -0.0239315 -5.49584e-19)
(1.48847 -0.02342 0)
(1.51785 -0.0229316 1.08646e-18)
(1.54694 -0.0224634 0)
(1.57574 -0.0220115 0)
(1.60426 -0.0215711 0)
(1.63251 -0.0211353 0)
(1.66048 -0.0206953 -5.2901e-19)
(1.68814 -0.0202391 -5.26243e-19)
(1.71547 -0.0197502 0)
(1.7424 -0.0192059 0)
(1.76884 -0.0185746 0)
(1.79466 -0.0178107 5.1615e-19)
(1.81964 -0.0168473 0)
(1.84345 -0.0155811 -1.02489e-18)
(1.86569 -0.0138355 1.02263e-18)
(1.88543 -0.0113257 1.02225e-18)
(1.90223 -0.00731174 1.02334e-18)
(1.91243 -0.000521046 1.02851e-18)
(1.92473 0.0124253 1.0204e-18)
(1.90517 0.0361888 0)
(0.116469 -0.85967 0)
(0.269073 -1.05689 0)
(0.316193 -0.826109 -1.263e-19)
(0.315513 -0.584346 -1.08141e-19)
(0.298094 -0.373889 1.00461e-19)
(0.2669 -0.188766 1.0064e-19)
(0.220735 -0.0233082 -6.43661e-22)
(0.158859 0.124439 0)
(0.0811469 0.254991 0)
(-0.0136368 0.365924 0)
(-0.129043 0.451651 0)
(-0.27313 0.51271 0)
(-0.458808 0.566486 -2.67358e-19)
(-0.696582 0.641139 0)
(-0.982745 0.753614 6.62866e-20)
(-1.30145 0.89554 5.71834e-20)
(-1.63475 1.04366 0)
(-1.96573 1.17773 0)
(-2.27912 1.28519 0)
(-2.56306 1.35899 0)
(-2.81222 1.39482 3.48985e-20)
(-3.0262 1.39245 0)
(-3.2064 1.35653 -3.23427e-20)
(-3.35564 1.29432 0)
(-3.47839 1.21314 0)
(-3.57924 1.11939 0)
(-3.66302 1.01914 -6.8583e-20)
(-3.73408 0.917744 0)
(-3.79596 0.819327 3.31151e-20)
(-3.85142 0.726688 -7.06973e-20)
(-3.90241 0.641343 0)
(-3.9502 0.564031 0)
(-3.99556 0.494803 0)
(-4.03886 0.433275 3.65631e-20)
(-4.08019 0.378798 3.71507e-20)
(-4.11953 0.3306 0)
(-4.15673 0.287884 0)
(-4.19162 0.24989 -7.77998e-20)
(-4.22402 0.215922 -7.81931e-20)
(-4.25376 0.185372 7.84264e-20)
(-4.28071 0.157719 0)
(-4.30475 0.132534 0)
(-4.32578 0.10947 0)
(-4.34374 0.0882419 0)
(-4.35856 0.0686157 -7.70115e-20)
(-4.37019 0.0503916 -7.69137e-20)
(-4.37855 0.0333855 7.62711e-20)
(-4.38353 0.0173964 0)
(-4.38492 0.00216789 0)
(-4.38259 -0.0125864 0)
(-4.37648 -0.0269997 0)
(-4.36663 -0.0409858 -7.11085e-20)
(-4.35312 -0.0544524 0)
(-4.33596 -0.0673884 0)
(-4.31521 -0.079798 -6.69972e-20)
(-4.29091 -0.09169 -6.49716e-20)
(-4.26314 -0.103072 0)
(-4.23195 -0.113947 1.24575e-19)
(-4.19744 -0.124319 -6.0034e-20)
(-4.15968 -0.134186 5.82574e-20)
(-4.11876 -0.143548 0)
(-4.07478 -0.152401 0)
(-4.02784 -0.160744 0)
(-3.97803 -0.168577 0)
(-3.92548 -0.175902 4.84261e-20)
(-3.87029 -0.182721 9.37832e-20)
(-3.81258 -0.189032 4.40608e-20)
(-3.75245 -0.19484 -4.17887e-20)
(-3.69004 -0.20015 0)
(-3.62546 -0.20497 7.54321e-20)
(-3.55884 -0.209306 7.05491e-20)
(-3.49031 -0.213168 6.55497e-20)
(-3.41997 -0.216566 -6.04345e-20)
(-3.34797 -0.219512 0)
(-3.27443 -0.222018 -7.41105e-20)
(-3.19946 -0.224099 0)
(-3.1232 -0.225767 2.00993e-20)
(-3.04577 -0.22704 1.58761e-20)
(-2.96727 -0.227932 0)
(-2.88784 -0.228461 0)
(-2.80759 -0.228644 1.53695e-20)
(-2.72663 -0.228498 0)
(-2.64506 -0.228043 2.93507e-21)
(-2.56301 -0.227296 0)
(-2.48056 -0.226276 9.98791e-21)
(-2.39783 -0.225003 3.47037e-20)
(-2.31491 -0.223497 0)
(-2.2319 -0.221776 0)
(-2.14889 -0.21986 0)
(-2.06598 -0.217766 4.45726e-20)
(-1.98327 -0.215508 0)
(-1.90085 -0.213098 5.93941e-20)
(-1.81882 -0.210538 0)
(-1.73728 -0.207813 0)
(-1.65628 -0.204896 -1.67034e-19)
(-1.57587 -0.201773 0)
(-1.49606 -0.198457 -9.93033e-20)
(-1.41686 -0.194991 0)
(-1.3383 -0.191432 -1.16583e-19)
(-1.26044 -0.187821 0)
(-1.18333 -0.184173 0)
(-1.10703 -0.180496 0)
(-1.03158 -0.176798 -4.62661e-19)
(-0.95701 -0.173084 -1.65033e-19)
(-0.883356 -0.169361 0)
(-0.810643 -0.165637 0)
(-0.738896 -0.161917 0)
(-0.668138 -0.158205 0)
(-0.598385 -0.154507 2.18828e-19)
(-0.529649 -0.150828 -4.58445e-19)
(-0.461936 -0.147178 -2.42661e-19)
(-0.395258 -0.143564 5.07636e-19)
(-0.329624 -0.139993 5.33433e-19)
(-0.265042 -0.136471 2.81366e-19)
(-0.201511 -0.132999 0)
(-0.139035 -0.129578 6.16199e-19)
(-0.0776138 -0.126211 0)
(-0.0172491 -0.122902 -6.73528e-19)
(0.0420653 -0.119651 -3.45146e-19)
(0.100343 -0.11646 0)
(0.15759 -0.113332 6.931e-19)
(0.213812 -0.110269 3.48819e-19)
(0.26902 -0.107272 0)
(0.323224 -0.104331 3.48714e-19)
(0.376431 -0.101435 -1.05279e-18)
(0.428652 -0.0985939 0)
(0.479899 -0.0958174 0)
(0.530189 -0.0931084 0)
(0.579541 -0.0904676 0)
(0.627976 -0.0878997 -7.07731e-19)
(0.675528 -0.0854116 -7.10224e-19)
(0.722221 -0.0830184 0)
(0.768021 -0.0807072 0)
(0.812913 -0.0784388 0)
(0.856949 -0.0762121 0)
(0.900173 -0.0740431 0)
(0.942599 -0.0719405 0)
(0.984243 -0.069907 -7.14004e-19)
(1.02512 -0.0679424 -1.08887e-21)
(1.06525 -0.066045 0)
(1.10465 -0.0642128 0)
(1.14334 -0.0624439 -7.13839e-19)
(1.18133 -0.0607364 0)
(1.21866 -0.0590888 7.14889e-19)
(1.25534 -0.0574995 7.14028e-19)
(1.29139 -0.0559674 0)
(1.32684 -0.0544912 0)
(1.36169 -0.0530698 -7.14563e-19)
(1.39598 -0.051702 -1.42733e-18)
(1.42973 -0.050387 0)
(1.46295 -0.0491237 0)
(1.49566 -0.0479112 0)
(1.5279 -0.0467486 -7.1326e-19)
(1.55967 -0.0456349 7.12879e-19)
(1.591 -0.0445692 0)
(1.62192 -0.0435505 1.42289e-18)
(1.65244 -0.0425775 7.10424e-19)
(1.68258 -0.0416489 -1.42083e-18)
(1.71237 -0.040763 0)
(1.74183 -0.0399178 0)
(1.77097 -0.0391108 -1.41703e-18)
(1.79981 -0.0383386 -7.08225e-19)
(1.82838 -0.0375969 0)
(1.85667 -0.0368799 0)
(1.88471 -0.0361801 0)
(1.91249 -0.0354874 0)
(1.94002 -0.0347882 -1.4069e-18)
(1.96728 -0.0340641 0)
(1.99423 -0.0332904 0)
(2.02084 -0.0324325 0)
(2.04702 -0.0314428 0)
(2.07266 -0.0302528 0)
(2.09759 -0.0287619 0)
(2.12155 -0.0268184 -1.39757e-18)
(2.1442 -0.0241711 0)
(2.16487 -0.0204148 0)
(2.18333 -0.0147572 -2.81637e-18)
(2.19676 -0.0058797 1.41821e-18)
(2.21146 0.00887716 -1.41632e-18)
(2.20636 0.0362579 1.41178e-18)
(0.0333574 -1.16612 0)
(0.0697472 -1.0299 3.59839e-19)
(0.0340143 -0.746937 0)
(-0.0104285 -0.506468 1.10855e-19)
(-0.0657441 -0.283761 0)
(-0.133585 -0.0741832 0)
(-0.216802 0.122664 -8.27967e-20)
(-0.317768 0.306043 0)
(-0.438607 0.47551 0)
(-0.581924 0.631618 0)
(-0.751572 0.776895 0)
(-0.952763 0.91744 0)
(-1.18814 1.06137 2.04202e-19)
(-1.45213 1.21212 9.24365e-20)
(-1.73028 1.36344 -8.36866e-20)
(-2.00421 1.50199 0)
(-2.25818 1.61395 0)
(-2.48213 1.68996 0)
(-2.67126 1.72629 0)
(-2.82416 1.72418 0)
(-2.94337 1.68749 6.01565e-20)
(-3.03443 1.62146 5.88404e-20)
(-3.10346 1.53293 -5.79876e-20)
(-3.15678 1.42957 5.76861e-20)
(-3.19979 1.31808 0)
(-3.23682 1.20387 0)
(-3.27136 1.0913 5.58393e-20)
(-3.30574 0.983656 0)
(-3.34125 0.883061 0)
(-3.37841 0.79056 5.86947e-20)
(-3.41721 0.706394 6.15133e-20)
(-3.45733 0.630337 6.22253e-20)
(-3.49821 0.561859 0)
(-3.53925 0.500265 0)
(-3.57983 0.444793 -6.40364e-20)
(-3.61939 0.394687 0)
(-3.65745 0.349237 0)
(-3.69357 0.307798 6.43101e-20)
(-3.72742 0.269806 -6.60306e-20)
(-3.75873 0.234773 6.60413e-20)
(-3.78725 0.202283 0)
(-3.81282 0.171985 0)
(-3.83528 0.143584 1.30017e-19)
(-3.85449 0.116828 0)
(-3.87036 0.091506 1.2863e-19)
(-3.88279 0.0674412 1.91042e-19)
(-3.89169 0.0444898 -1.89401e-19)
(-3.89701 0.0225314 1.25333e-19)
(-3.8987 0.00144889 0)
(-3.89675 -0.0188737 0)
(-3.89122 -0.0385146 1.19878e-19)
(-3.88214 -0.0574927 5.84083e-20)
(-3.86956 -0.075804 0)
(-3.85351 -0.0934473 0)
(-3.83402 -0.110422 5.49024e-20)
(-3.81115 -0.126728 1.08255e-19)
(-3.78495 -0.142363 0)
(-3.75548 -0.157324 -1.01803e-19)
(-3.72281 -0.171608 9.99737e-20)
(-3.68702 -0.18521 -9.70019e-20)
(-3.64819 -0.198126 0)
(-3.60641 -0.21035 0)
(-3.56177 -0.221875 0)
(-3.51437 -0.232701 0)
(-3.46431 -0.242831 0)
(-3.4117 -0.252266 -7.59294e-20)
(-3.35665 -0.261004 0)
(-3.29927 -0.269051 0)
(-3.23967 -0.276413 0)
(-3.17798 -0.2831 -1.22635e-19)
(-3.1143 -0.289121 -5.671e-20)
(-3.04877 -0.294489 -5.26089e-20)
(-2.98149 -0.299218 9.80528e-20)
(-2.9126 -0.303324 -4.5369e-20)
(-2.84221 -0.306823 3.9817e-20)
(-2.77044 -0.309734 0)
(-2.69741 -0.312077 -3.08944e-20)
(-2.62324 -0.313873 0)
(-2.54804 -0.315142 0)
(-2.47193 -0.315908 0)
(-2.39503 -0.316194 -2.55026e-20)
(-2.31743 -0.316024 8.49141e-21)
(-2.23926 -0.315422 4.7739e-21)
(-2.16061 -0.314412 -2.9695e-21)