/*--------------------------------*- C++ -*----------------------------------*\
  =========                 |
  \\      /  F ield         | OpenFOAM: The Open Source CFD Toolbox
   \\    /   O peration     | Website:  https://openfoam.org
    \\  /    A nd           | Version:  8
     \\/     M anipulation  |
\*---------------------------------------------------------------------------*/
FoamFile
{
    version     2.0;
    format      ascii;
    class       volScalarField;
    location    "800";
    object      nuTilda;
}
// * * * * * * * * * * * * * * * * * * * * * * * * * * * * * * * * * * * * * //

dimensions      [0 2 -1 0 0 0 0];

internalField   nonuniform List<scalar> 
12225
(
0.0122671
0.00158833
0.000666932
0.000412201
0.000298001
0.000234418
0.000192049
0.000186517
0.000141364
0.000110263
9.73201e-05
9.07192e-05
8.20032e-05
7.63422e-05
7.17075e-05
7.01733e-05
6.81333e-05
7.40038e-05
0.0323823
0.00744533
0.00330642
0.00204338
0.00146818
0.00114477
0.000936743
0.000800567
0.000680243
0.00057806
0.000507247
0.000453561
0.000411867
0.000380373
0.000352022
0.000329996
0.000313757
0.000295888
0.0490123
0.01515
0.00728196
0.00457856
0.00330642
0.00258059
0.00211241
0.00178924
0.00154196
0.00134781
0.00119795
0.00107898
0.000982391
0.000902877
0.000836442
0.000781452
0.000736168
0.000687899
0.063054
0.0237783
0.0122894
0.00788815
0.00573398
0.004485
0.00367415
0.00310736
0.00268476
0.00235811
0.00210119
0.00189468
0.00172543
0.00158465
0.0014663
0.00136624
0.00128168
0.00119816
0.074932
0.0328517
0.0181452
0.0119262
0.00874549
0.00686413
0.00563081
0.00476256
0.0041175
0.00362033
0.00322735
0.00290997
0.00264905
0.0024315
0.00224807
0.00209197
0.00195837
0.00183639
0.0849536
0.0420208
0.0246655
0.0166359
0.0123325
0.00972587
0.0079954
0.00676786
0.00585346
0.00514771
0.00458846
0.0041359
0.00376338
0.00345243
0.00318987
0.00296601
0.00277366
0.00260479
0.0933822
0.0510219
0.0316642
0.0219415
0.016474
0.0130717
0.0107779
0.00913552
0.00790571
0.00695341
0.00619691
0.00558369
0.00507839
0.00465635
0.00429979
0.00399564
0.00373419
0.00350824
0.0993794
0.0583363
0.0378386
0.0268568
0.0204171
0.0163053
0.0134892
0.011453
0.00991892
0.0087263
0.00777636
0.00700499
0.00636868
0.00583687
0.00538743
0.00500401
0.00467455
0.0043913
0.104023
0.0645454
0.0433804
0.0314239
0.0241571
0.0194092
0.0161097
0.0137018
0.0118766
0.0104521
0.00931444
0.00838905
0.00762487
0.00698576
0.00644546
0.00598452
0.00558861
0.0052488
0.108368
0.0708939
0.0493756
0.0365496
0.0284517
0.0230231
0.0191863
0.0163547
0.0141926
0.0124968
0.011138
0.0100304
0.00911435
0.00834761
0.00769912
0.00714581
0.00667071
0.006263
0.112368
0.0772557
0.0557282
0.0421918
0.0332976
0.0271652
0.0227468
0.0194432
0.0168984
0.0148903
0.0132749
0.0119544
0.0108605
0.0099438
0.00916798
0.00850588
0.00793738
0.00744917
0.115994
0.0834975
0.0623053
0.0482611
0.0386474
0.0318167
0.026789
0.0229739
0.0200046
0.0176452
0.0157379
0.0141736
0.0128749
0.011785
0.0108618
0.0100736
0.00939673
0.00881466
0.119234
0.0894856
0.0689377
0.0546109
0.0443919
0.0369007
0.0312597
0.0269088
0.0234836
0.02074
0.0185096
0.0166735
0.0151449
0.01386
0.0127704
0.0118396
0.0110397
0.0103508
0.122086
0.095084
0.075415
0.0610223
0.0503361
0.0422534
0.0360231
0.0311353
0.0272402
0.024093
0.021519
0.0193909
0.017614
0.0161174
0.0148466
0.0137601
0.0128257
0.0120196
0.124546
0.100135
0.0814619
0.0671725
0.056158
0.047577
0.0408126
0.0354174
0.031066
0.0275196
0.0246012
0.0221777
0.0201481
0.0184349
0.0169782
0.0157314
0.0146583
0.0137312
0.126578
0.104396
0.0866605
0.0725515
0.0613228
0.0523526
0.0451453
0.0393148
0.0345631
0.0306611
0.0274325
0.0247409
0.0224806
0.020569
0.0189413
0.0175468
0.0163454
0.0153061
0.128011
0.107322
0.0902141
0.0762353
0.0648743
0.0556509
0.0481493
0.0420254
0.0370012
0.0328553
0.0294126
0.0265352
0.0241143
0.0220643
0.0203172
0.0188191
0.0175275
0.0164083
0.128006
0.107313
0.0902048
0.0762269
0.0648674
0.0556454
0.048145
0.0420222
0.0369988
0.0328537
0.0294117
0.0265349
0.0241147
0.0220652
0.0203185
0.0188206
0.0175287
0.0164083
0.126509
0.104255
0.0864922
0.0723807
0.0611613
0.052205
0.0450128
0.0391967
0.0344584
0.0305686
0.0273506
0.0246684
0.0224163
0.0205118
0.0188903
0.0175006
0.0163024
0.0152631
0.124267
0.0995604
0.0807712
0.0664676
0.0554886
0.0469631
0.0402594
0.0349228
0.0306248
0.0271258
0.0242488
0.0218611
0.0198626
0.0181762
0.0167426
0.0155152
0.0144575
0.0135405
0.12136
0.0936399
0.0737261
0.0593348
0.0487592
0.0408249
0.0347467
0.0300003
0.0262308
0.0231928
0.0207127
0.018665
0.0169572
0.0155198
0.0142999
0.0132567
0.0123583
0.0115798
0.117686
0.0865903
0.0656967
0.0514791
0.0415374
0.0343608
0.0290184
0.0249322
0.0217348
0.0191848
0.0171184
0.0154211
0.0140106
0.0128263
0.0118229
0.0109656
0.010228
0.00958894
0.11305
0.0784122
0.056921
0.0432687
0.0342296
0.0279652
0.0234365
0.0200435
0.0174263
0.0153597
0.0136966
0.0123369
0.0112106
0.010267
0.00946865
0.00878718
0.00820101
0.00769346
0.107169
0.0691009
0.0476372
0.035029
0.0271566
0.021922
0.0182437
0.0155401
0.0134817
0.0118706
0.0105816
0.00953197
0.00866487
0.00793965
0.0073267
0.00680377
0.00635412
0.00596493
0.0996761
0.0587036
0.0381279
0.0270699
0.0205782
0.016433
0.0135949
0.0115438
0.00999923
0.00879909
0.00784342
0.00706756
0.00642793
0.00589354
0.00544235
0.00505736
0.00472641
0.0044401
0.0901097
0.0473665
0.0287363
0.0196847
0.0146976
0.0116312
0.00957853
0.00811528
0.00702332
0.00617995
0.00551059
0.00496792
0.00452125
0.00414797
0.00383351
0.00356465
0.00333363
0.0031339
0.0779076
0.0353826
0.0198606
0.0131383
0.00966107
0.00759298
0.00623353
0.00527431
0.00456401
0.00401884
0.00358704
0.00323603
0.00294756
0.00270532
0.00250298
0.00232847
0.00217858
0.00204922
0.06238
0.0232554
0.0119461
0.00765494
0.00556339
0.00435258
0.00356726
0.00301643
0.00261313
0.00230799
0.00206674
0.00186701
0.0017032
0.00156269
0.00144891
0.00134753
0.0012605
0.00118506
0.0426105
0.0117794
0.00546931
0.00341388
0.00246077
0.00192015
0.0015729
0.00132905
0.0011597
0.00103885
0.000944564
0.000858188
0.000786126
0.00072164
0.000666565
0.000617993
0.000576203
0.000539715
0.0168348
0.0025599
0.00110031
0.000684192
0.000495179
0.000389151
0.00032166
0.000270752
0.000280899
0.000338976
0.000384486
0.000374012
0.000343722
0.000315203
0.00028368
0.000259342
0.000232272
0.000218461
3.78288e-06
1.43241e-05
2.60316e-05
3.8542e-05
4.60189e-05
4.96749e-05
5.01629e-05
4.7839e-05
4.46481e-05
3.95792e-05
3.42404e-05
2.9462e-05
2.6759e-05
2.74192e-05
2.95918e-05
3.14338e-05
3.1281e-05
2.84063e-05
2.36572e-05
1.94765e-05
1.94422e-05
2.62717e-05
3.92502e-05
6.37063e-05
8.71446e-05
0.000100545
0.000113285
0.000124297
0.000134292
0.0001428
0.000150397
0.00015702
0.000162885
0.000168042
0.000172577
0.000176605
0.000180194
0.000183414
0.000186312
0.000188924
0.000191274
0.000193381
0.000195259
0.000196923
0.000198383
0.000199651
0.000200737
0.000201646
0.000202378
0.000202803
0.000203294
0.000203377
0.000203437
0.000203321
0.000203044
0.00020263
0.000202074
0.000201382
0.000200554
0.000199592
0.0001985
0.000197279
0.000195932
0.000194462
0.000192873
0.000191166
0.000189343
0.000187407
0.000185362
0.000183212
0.000180958
0.000178603
0.000176152
0.000173605
0.000170966
0.000168237
0.00016542
0.000162515
0.000159524
0.000156449
0.00015329
0.000150047
0.000146719
0.000143306
0.000139805
0.000136212
0.000132519
0.000128719
0.000124798
0.000120743
0.000116535
0.00011216
0.000107619
0.000102964
9.83999e-05
9.44179e-05
9.15949e-05
8.98385e-05
8.85242e-05
8.73194e-05
8.61361e-05
8.49573e-05
8.37814e-05
8.2609e-05
8.1441e-05
8.02783e-05
7.91224e-05
7.79774e-05
7.68643e-05
7.59097e-05
7.49757e-05
7.40478e-05
7.31279e-05
7.22163e-05
7.13133e-05
7.04192e-05
6.95345e-05
6.86595e-05
6.77945e-05
6.69396e-05
6.6095e-05
6.5261e-05
6.44379e-05
6.36261e-05
6.28255e-05
6.20361e-05
6.1259e-05
6.05196e-05
5.98423e-05
5.91737e-05
5.85104e-05
5.78603e-05
5.72284e-05
5.66017e-05
5.59797e-05
5.53658e-05
5.4761e-05
5.41659e-05
5.35804e-05
5.30045e-05
5.24381e-05
5.18811e-05
5.13332e-05
5.07943e-05
5.02644e-05
4.97433e-05
4.92309e-05
4.87271e-05
4.82318e-05
4.7745e-05
4.72665e-05
4.67964e-05
4.63346e-05
4.5881e-05
4.54356e-05
4.49986e-05
4.45698e-05
4.41496e-05
4.37378e-05
4.33348e-05
4.29407e-05
4.25557e-05
4.21802e-05
4.18142e-05
4.14581e-05
4.11118e-05
4.07755e-05
4.0449e-05
4.01316e-05
3.98228e-05
3.95204e-05
3.92249e-05
3.89271e-05
3.86405e-05
3.83116e-05
3.80559e-05
3.75482e-05
3.73533e-05
3.63026e-05
3.49084e-05
5.89553e-06
4.05847e-05
9.24554e-05
0.000153697
0.000192561
0.000214586
0.000223398
0.000221982
0.000214155
0.000198602
0.000179574
0.000161571
0.000152395
0.000156821
0.000169071
0.000177029
0.000179116
0.0001802
0.000185101
0.000193804
0.000208056
0.000224374
0.000240283
0.000256124
0.000267018
0.000276608
0.000285157
0.000297608
0.000316285
0.000329955
0.000342477
0.000353229
0.000363013
0.00037199
0.000379791
0.000386918
0.000393556
0.000399927
0.000406161
0.000412322
0.000418405
0.000424368
0.000430158
0.000435735
0.00044107
0.000446146
0.000450949
0.000455466
0.000459697
0.000463643
0.000467343
0.000470761
0.000473937
0.00047686
0.000479534
0.00048196
0.00048414
0.000486073
0.000487761
0.000489203
0.0004904
0.000491353
0.000492065
0.000492539
0.000492786
0.00049281
0.000492608
0.000492173
0.000491524
0.000490664
0.000489598
0.000488334
0.000486877
0.000485236
0.000483415
0.000481424
0.000479269
0.000476958
0.000474498
0.000471897
0.000469163
0.000466304
0.000463328
0.000460242
0.000457057
0.000453779
0.000450417
0.000446978
0.000443472
0.000439905
0.000436284
0.000432613
0.000428894
0.000425118
0.000421268
0.000417316
0.000413247
0.000409089
0.000404892
0.00040068
0.000396462
0.000392242
0.000388022
0.000383806
0.000379598
0.000375401
0.000371217
0.00036705
0.0003629
0.000358763
0.000354651
0.000350568
0.000346516
0.000342497
0.000338513
0.000334565
0.000330655
0.000326784
0.000322955
0.000319167
0.000315421
0.00031172
0.000308063
0.000304452
0.000300889
0.000297371
0.0002939
0.000290474
0.000287092
0.000283756
0.000280466
0.000277229
0.000274047
0.000270903
0.000267797
0.000264735
0.000261718
0.000258749
0.000255827
0.000252951
0.000250121
0.000247336
0.000244597
0.000241902
0.00023925
0.000236641
0.000234075
0.000231551
0.000229069
0.000226628
0.000224228
0.000221868
0.000219549
0.000217269
0.00021503
0.000212832
0.000210674
0.000208557
0.000206482
0.000204449
0.000202461
0.000200517
0.000198621
0.000196772
0.000194973
0.000193225
0.000191529
0.000189885
0.000188291
0.000186746
0.000185246
0.000183792
0.000182356
0.000180993
0.000179509
0.000178385
0.00017629
0.000175967
0.000172988
0.000172125
1.2873e-05
7.40521e-05
0.000174296
0.000251894
0.000303705
0.000333439
0.000344311
0.000341507
0.000328915
0.000310026
0.000290693
0.000278246
0.000275981
0.000282396
0.000292434
0.000302972
0.00031543
0.000332056
0.000353324
0.000378188
0.000405323
0.000433402
0.000471169
0.000517311
0.000562772
0.000606784
0.000649771
0.000693347
0.00073265
0.00076392
0.000788916
0.000808733
0.000824442
0.000836906
0.000846906
0.000855217
0.00086254
0.00086952
0.000876692
0.000884415
0.000892794
0.000901708
0.000910918
0.000920186
0.000929336
0.000938248
0.000946846
0.000955081
0.000962918
0.000970328
0.000977288
0.00098377
0.00098977
0.000995282
0.0010003
0.00100483
0.00100887
0.00101242
0.00101547
0.00101803
0.0010201
0.00102167
0.00102276
0.0010233
0.00102346
0.00102317
0.00102238
0.00102114
0.00101945
0.00101734
0.0010148
0.00101186
0.00100853
0.00100481
0.00100073
0.000996307
0.000991544
0.00098646
0.00098107
0.00097539
0.000969434
0.000963218
0.000956757
0.000950067
0.000943162
0.000936056
0.000928766
0.000921305
0.000913687
0.000905924
0.00089803
0.000890014
0.000881888
0.000873657
0.000865332
0.000856921
0.000848437
0.000839896
0.000831314
0.000822705
0.000814079
0.000805445
0.000796812
0.000788186
0.000779575
0.000770986
0.000762426
0.0007539
0.000745414
0.000736974
0.000728585
0.000720253
0.000711981
0.000703775
0.000695638
0.000687573
0.000679584
0.000671672
0.000663842
0.000656095
0.000648433
0.000640858
0.000633372
0.000625977
0.000618674
0.000611464
0.000604346
0.000597322
0.000590392
0.000583557
0.000576816
0.000570172
0.000563621
0.000557158
0.000550782
0.000544496
0.000538301
0.000532198
0.000526187
0.000520267
0.000514438
0.000508699
0.000503048
0.000497485
0.000492009
0.000486617
0.00048131
0.000476086
0.000470944
0.000465882
0.0004609
0.000455997
0.000451171
0.000446422
0.000441748
0.000437148
0.000432621
0.000428166
0.000423781
0.000419466
0.000415219
0.000411039
0.000406923
0.000402869
0.000398875
0.000394938
0.000391053
0.000387216
0.000383419
0.000379655
0.00037591
0.000372172
0.000368416
0.000364623
0.000360721
0.000356743
0.000352324
0.000348022
0.000341564
0.000330412
2.17689e-05
0.00010643
0.000220253
0.000312868
0.000375571
0.000412579
0.000428025
0.000428415
0.000418481
0.000405172
0.000397035
0.000396159
0.000405237
0.000422255
0.000444807
0.000472359
0.000505514
0.000544646
0.000588949
0.000650802
0.000724473
0.000804101
0.000888318
0.000958975
0.0010214
0.00107752
0.00112794
0.00117285
0.00121213
0.00124602
0.00127527
0.00130061
0.00132274
0.00134228
0.00135982
0.00137584
0.00139077
0.00140493
0.00141859
0.00143194
0.0014451
0.00145815
0.00147111
0.00148396
0.00149665
0.00150911
0.00152124
0.00153294
0.00154413
0.00155473
0.00156468
0.00157395
0.00158253
0.00159039
0.00159752
0.00160393
0.0016096
0.00161454
0.00161874
0.0016222
0.00162492
0.0016269
0.00162806
0.0016285
0.00162837
0.00162746
0.00162583
0.00162351
0.00162052
0.00161686
0.00161256
0.00160764
0.00160213
0.00159603
0.00158937
0.00158218
0.00157447
0.00156628
0.00155761
0.00154851
0.00153898
0.00152905
0.00151875
0.0015081
0.00149712
0.00148583
0.00147426
0.00146242
0.00145035
0.00143805
0.00142555
0.00141287
0.00140003
0.00138703
0.0013739
0.00136066
0.00134731
0.00133388
0.0013204
0.00130687
0.00129331
0.00127974
0.00126617
0.00125262
0.00123909
0.00122559
0.00121214
0.00119874
0.0011854
0.00117214
0.00115896
0.00114586
0.00113286
0.00111996
0.00110717
0.00109449
0.00108193
0.00106948
0.00105716
0.00104498
0.00103292
0.00102099
0.00100921
0.000997564
0.000986059
0.000974698
0.00096348
0.000952407
0.000941479
0.000930698
0.000920063
0.000909575
0.00089923
0.000889024
0.000878957
0.00086903
0.000859244
0.000849598
0.000840094
0.000830731
0.000821506
0.000812419
0.000803469
0.000794653
0.000785971
0.00077742
0.000768998
0.000760704
0.000752536
0.000744492
0.000736571
0.00072877
0.000721088
0.000713523
0.000706074
0.000698737
0.000691512
0.000684396
0.000677388
0.000670484
0.000663684
0.000656984
0.000650381
0.000643872
0.000637452
0.000631117
0.000624861
0.000618676
0.000612553
0.000606479
0.000600438
0.000594409
0.000588362
0.00058226
0.00057604
0.000569646
0.000562895
0.000555734
0.000547513
0.000531416
2.69688e-05
0.000122009
0.000241121
0.000357863
0.000435907
0.000483087
0.000506592
0.000515002
0.000516541
0.000517477
0.000524266
0.000540301
0.000566206
0.000601033
0.000644
0.000695127
0.000755038
0.000838284
0.000933805
0.00103002
0.00111901
0.00120339
0.00128275
0.00135546
0.00142224
0.00148367
0.00154014
0.00159201
0.00163962
0.0016834
0.00172384
0.00176142
0.00179656
0.00182964
0.00186098
0.00189082
0.00191937
0.00194675
0.00197308
0.00199841
0.00202277
0.00204618
0.00206862
0.00209009
0.00211055
0.00212998
0.00214835
0.00216563
0.00218179
0.00219681
0.00221068
0.00222341
0.002235
0.00224547
0.00225484
0.00226313
0.00227034
0.00227651
0.00228163
0.00228574
0.00228883
0.00229088
0.0022918
0.00229189
0.00229101
0.00228913
0.0022863
0.00228253
0.00227784
0.00227226
0.00226582
0.00225853
0.00225043
0.00224155
0.00223192
0.00222157
0.00221053
0.00219883
0.0021865
0.00217357
0.00216007
0.00214604
0.00213151
0.0021165
0.00210105
0.00208518
0.00206894
0.00205234
0.00203543
0.00201821
0.00200073
0.00198301
0.00196506
0.00194693
0.00192862
0.00191017
0.00189159
0.00187291
0.00185416
0.00183535
0.0018165
0.00179765
0.00177879
0.00175996
0.00174116
0.00172241
0.00170372
0.00168511
0.00166659
0.00164818
0.00162987
0.00161168
0.00159362
0.00157571
0.00155794
0.00154032
0.00152287
0.00150558
0.00148846
0.00147152
0.00145476
0.00143819
0.0014218
0.00140561
0.00138961
0.0013738
0.00135819
0.00134278
0.00132756
0.00131255
0.00129774
0.00128312
0.0012687
0.00125448
0.00124045
0.0012266
0.00121296
0.0011995
0.00118624
0.00117316
0.00116028
0.00114758
0.00113507
0.00112274
0.0011106
0.00109863
0.00108683
0.00107522
0.00106377
0.00105249
0.00104138
0.00103043
0.00101964
0.00100901
0.000998532
0.000988211
0.00097804
0.000968016
0.000958138
0.000948401
0.000938803
0.00092934
0.000920008
0.000910803
0.00090172
0.000892752
0.000883891
0.00087513
0.000866456
0.000857854
0.000849305
0.000840785
0.000832259
0.000823685
0.000814993
0.000806115
0.000796884
0.000787155
0.000777199
0.000757414
3.07983e-05
0.00013532
0.000261515
0.000392493
0.000488781
0.000550393
0.000588107
0.000611473
0.000629141
0.000648365
0.000674391
0.000709877
0.000755566
0.000811735
0.000878772
0.000969146
0.00107418
0.00117586
0.00127506
0.00137057
0.00146128
0.00154728
0.00162854
0.00170502
0.00177699
0.00184483
0.00190886
0.00196942
0.00202684
0.00208146
0.00213359
0.00218353
0.00223152
0.00227777
0.00232244
0.00236566
0.00240751
0.00244805
0.00248731
0.00252529
0.00256201
0.00259742
0.00263152
0.00266425
0.00269559
0.0027255
0.00275393
0.00278084
0.00280619
0.00282996
0.00285212
0.00287264
0.00289151
0.00290871
0.00292425
0.00293811
0.00295031
0.00296085
0.00296975
0.00297701
0.00298267
0.00298675
0.00298918
0.00299008
0.00298961
0.00298764
0.0029843
0.0029796
0.00297359
0.00296634
0.00295789
0.0029483
0.00293762
0.00292589
0.00291317
0.00289951
0.00288494
0.00286953
0.0028533
0.00283632
0.0028186
0.00280021
0.00278118
0.00276155
0.00274136
0.00272065
0.00269946
0.00267783
0.0026558
0.0026334
0.00261067
0.00258764
0.00256435
0.00254082
0.00251709
0.00249318
0.00246912
0.00244495
0.00242069
0.00239637
0.00237201
0.00234764
0.00232327
0.00229894
0.00227465
0.00225044
0.00222631
0.00220228
0.00217836
0.00215458
0.00213095
0.00210747
0.00208415
0.00206102
0.00203808
0.00201533
0.00199279
0.00197047
0.00194836
0.00192648
0.00190483
0.00188341
0.00186224
0.0018413
0.00182062
0.00180018
0.00177999
0.00176006
0.00174037
0.00172094
0.00170176
0.00168284
0.00166416
0.00164573
0.00162754
0.00160961
0.00159191
0.00157446
0.00155725
0.00154028
0.00152355
0.00150706
0.0014908
0.00147477
0.00145897
0.0014434
0.00142805
0.00141291
0.001398
0.00138329
0.00136879
0.0013545
0.00134041
0.00132652
0.00131283
0.00129933
0.00128602
0.00127289
0.00125994
0.00124718
0.00123458
0.00122216
0.00120991
0.00119781
0.00118587
0.00117407
0.00116242
0.00115089
0.00113948
0.00112816
0.00111693
0.00110574
0.00109458
0.00108338
0.00107208
0.00106061
0.0010488
0.00103659
0.00102442
0.00100196
3.23489e-05
0.000142507
0.000273985
0.000409885
0.000527832
0.000609049
0.000665087
0.000706976
0.000743925
0.000783185
0.00082981
0.000886754
0.000955629
0.00104784
0.00115475
0.00126131
0.00136739
0.00147075
0.00157082
0.00166719
0.0017596
0.00184805
0.00193263
0.0020135
0.0020909
0.00216511
0.0022364
0.00230504
0.00237129
0.00243537
0.00249751
0.00255787
0.00261661
0.00267384
0.00272965
0.0027841
0.00283722
0.00288903
0.00293951
0.00298865
0.00303642
0.00308278
0.00312769
0.0031711
0.00321296
0.00325321
0.0032918
0.00332869
0.00336381
0.00339713
0.0034286
0.00345818
0.00348583
0.00351153
0.00353526
0.00355698
0.00357669
0.00359437
0.00361003
0.00362365
0.00363525
0.00364483
0.00365241
0.00365802
0.00366168
0.0036633
0.00366321
0.00366122
0.00365745
0.00365193
0.00364472
0.00363588
0.00362546
0.00361353
0.00360015
0.00358538
0.00356929
0.00355195
0.00353342
0.00351377
0.00349307
0.00347138
0.00344878
0.00342532
0.00340107
0.00337609
0.00335045
0.00332419
0.00329739
0.00327008
0.00324233
0.00321418
0.00318567
0.00315686
0.00312777
0.00309846
0.00306897
0.00303932
0.00300955
0.0029797
0.0029498
0.00291988
0.00288997
0.00286009
0.00283026
0.00280052
0.00277088
0.00274136
0.00271198
0.00268276
0.00265372
0.00262486
0.00259621
0.00256778
0.00253957
0.0025116
0.00248389
0.00245642
0.00242923
0.00240231
0.00237567
0.00234931
0.00232324
0.00229746
0.00227198
0.0022468
0.00222192
0.00219735
0.00217308
0.00214911
0.00212545
0.00210209
0.00207903
0.00205627
0.0020338
0.00201164
0.00198977
0.00196819
0.0019469
0.0019259
0.00190519
0.00188476
0.00186461
0.00184474
0.00182515
0.00180582
0.00178676
0.00176796
0.00174943
0.00173114
0.00171311
0.00169533
0.00167779
0.00166048
0.00164342
0.00162658
0.00160997
0.00159359
0.00157742
0.00156147
0.00154573
0.0015302
0.00151486
0.00149972
0.00148477
0.00147
0.0014554
0.00144096
0.00142666
0.0014125
0.00139844
0.00138446
0.00137052
0.00135657
0.00134255
0.00132838
0.00131391
0.00129916
0.00128416
0.00125991
3.27981e-05
0.000144137
0.000275342
0.000409484
0.000539415
0.000642719
0.000719787
0.000781105
0.000836792
0.000894531
0.000961963
0.00105378
0.00116329
0.00128499
0.00140055
0.0015118
0.00161963
0.0017242
0.00182546
0.00192335
0.00201785
0.00210907
0.00219714
0.00228225
0.00236461
0.00244446
0.00252201
0.00259747
0.00267104
0.00274289
0.00281316
0.00288197
0.0029494
0.00301553
0.0030804
0.00314402
0.00320639
0.00326751
0.00332734
0.00338584
0.00344296
0.00349865
0.00355286
0.00360551
0.00365654
0.00370589
0.0037535
0.00379929
0.00384321
0.0038852
0.00392521
0.00396318
0.00399906
0.00403282
0.00406441
0.00409381
0.00412099
0.00414592
0.00416859
0.00418899
0.00420712
0.00422297
0.00423655
0.00424788
0.00425697
0.00426384
0.00426856
0.00427101
0.00427145
0.0042698
0.00426613
0.00426049
0.00425292
0.00424349
0.00423226
0.00421929
0.00420464
0.00418838
0.00417059
0.00415132
0.00413065
0.00410866
0.00408541
0.00406099
0.00403545
0.00400887
0.00398132
0.00395288
0.00392361
0.00389358
0.00386285
0.00383149
0.00379956
0.00376711
0.00373421
0.00370092
0.00366728
0.00363334
0.00359916
0.00356478
0.00353026
0.00349562
0.00346092
0.00342618
0.00339145
0.00335675
0.00332212
0.00328758
0.00325316
0.00321889
0.00318479
0.00315087
0.00311717
0.00308369
0.00305045
0.00301747
0.00298476
0.00295233
0.0029202
0.00288837
0.00285685
0.00282565
0.00279477
0.00276422
0.00273401
0.00270414
0.00267462
0.00264543
0.0026166
0.00258811
0.00255997
0.00253218
0.00250473
0.00247763
0.00245087
0.00242445
0.00239837
0.00237263
0.00234723
0.00232215
0.00229741
0.002273
0.00224891
0.00222514
0.00220169
0.00217856
0.00215573
0.0021332
0.00211098
0.00208905
0.00206742
0.00204607
0.002025
0.00200421
0.0019837
0.00196346
0.00194348
0.00192376
0.0019043
0.00188509
0.00186613
0.00184741
0.00182893
0.00181067
0.00179264
0.00177482
0.00175721
0.00173978
0.00172254
0.00170545
0.0016885
0.00167166
0.00165488
0.00163812
0.00162131
0.00160438
0.00158719
0.00156979
0.00155186
0.00152573
3.22405e-05
0.000141213
0.000268944
0.000398084
0.000521956
0.000634099
0.000727871
0.000808899
0.000891734
0.000986916
0.00109601
0.0012206
0.00135695
0.00148445
0.00160474
0.00171975
0.00183047
0.00193724
0.0020404
0.00214029
0.00223712
0.0023311
0.00242243
0.0025113
0.00259793
0.00268252
0.00276525
0.00284631
0.00292584
0.00300398
0.00308082
0.00315645
0.00323093
0.00330429
0.00337654
0.00344768
0.00351768
0.00358651
0.00365412
0.00372045
0.00378544
0.00384901
0.0039111
0.00397162
0.0040305
0.00408766
0.00414302
0.00419652
0.00424806
0.0042976
0.00434505
0.00439037
0.00443349
0.00447436
0.00451294
0.00454919
0.00458307
0.00461455
0.00464361
0.00467024
0.00469442
0.00471614
0.00473542
0.00475225
0.00476665
0.00477864
0.00478825
0.00479548
0.00480041
0.00480298
0.00480337
0.00480155
0.00479759
0.00479153
0.00478342
0.00477334
0.00476134
0.00474749
0.00473185
0.00471449
0.00469548
0.00467489
0.0046528
0.00462927
0.00460439
0.00457822
0.00455083
0.0045223
0.00449271
0.00446211
0.00443059
0.0043982
0.00436502
0.00433112
0.00429655
0.00426138
0.00422567
0.00418948
0.00415287
0.0041159
0.00407861
0.00404107
0.00400331
0.00396539
0.00392735
0.00388922
0.00385106
0.0038129
0.00377477
0.0037367
0.00369873
0.00366089
0.0036232
0.00358568
0.00354837
0.00351127
0.00347442
0.00343782
0.0034015
0.00336546
0.00332973
0.00329431
0.00325921
0.00322445
0.00319003
0.00315596
0.00312224
0.00308889
0.00305589
0.00302327
0.00299101
0.00295913
0.00292761
0.00289647
0.00286569
0.00283529
0.00280526
0.00277559
0.00274629
0.00271736
0.00268879
0.00266058
0.00263273
0.00260523
0.00257809
0.00255129
0.00252483
0.00249871
0.00247293
0.00244748
0.00242236
0.00239755
0.00237307
0.0023489
0.00232503
0.00230147
0.00227821
0.00225525
0.00223257
0.00221018
0.00218808
0.00216624
0.00214468
0.00212337
0.00210233
0.00208152
0.00206096
0.00204061
0.00202047
0.00200052
0.00198073
0.00196108
0.00194151
0.00192199
0.00190244
0.00188279
0.0018629
0.00184284
0.0018221
0.00179378
3.08716e-05
0.000135128
0.000258144
0.000383443
0.000505406
0.00062147
0.000732087
0.000840981
0.000955728
0.00108148
0.00121948
0.00136917
0.00151146
0.00164344
0.0017677
0.00188612
0.00199985
0.0021095
0.00221547
0.00231796
0.00241737
0.00251409
0.0026084
0.00270057
0.00279082
0.00287935
0.00296635
0.00305197
0.00313635
0.0032196
0.0033018
0.003383
0.00346324
0.00354254
0.00362089
0.00369826
0.00377461
0.00384989
0.00392404
0.00399697
0.00406862
0.00413889
0.00420769
0.00427495
0.00434056
0.00440444
0.00446649
0.00452664
0.00458479
0.00464087
0.0046948
0.00474652
0.00479596
0.00484305
0.00488776
0.00493003
0.00496981
0.00500709
0.00504182
0.00507399
0.00510359
0.0051306
0.00515502
0.00517685
0.00519612
0.00521282
0.00522699
0.00523864
0.00524781
0.00525453
0.00525885
0.00526079
0.00526045
0.00525784
0.00525302
0.00524606
0.005237
0.00522592
0.00521288
0.00519795
0.00518118
0.00516266
0.00514246
0.00512064
0.00509728
0.00507245
0.00504623
0.00501868
0.00498989
0.00495991
0.00492883
0.0048967
0.00486361
0.00482961
0.00479478
0.00475917
0.00472286
0.00468591
0.00464838
0.00461032
0.0045718
0.00453287
0.00449359
0.004454
0.00441416
0.00437411
0.00433391
0.00429358
0.00425317
0.00421273
0.00417228
0.00413186
0.00409151
0.00405125
0.00401111
0.00397113
0.00393132
0.0038917
0.00385231
0.00381315
0.00377425
0.00373562
0.00369729
0.00365925
0.00362153
0.00358413
0.00354706
0.00351034
0.00347397
0.00343796
0.00340231
0.00336702
0.00333211
0.00329757
0.0032634
0.0032296
0.00319619
0.00316315
0.00313049
0.0030982
0.00306629
0.00303476
0.0030036
0.00297281
0.00294239
0.00291233
0.00288264
0.00285331
0.00282434
0.00279571
0.00276744
0.00273951
0.00271193
0.00268468
0.00265776
0.00263117
0.00260491
0.00257897
0.00255334
0.00252803
0.00250302
0.00247831
0.0024539
0.00242978
0.00240594
0.00238237
0.00235906
0.002336
0.00231317
0.00229055
0.00226812
0.00224585
0.00222368
0.00220157
0.00217946
0.00215726
0.00213487
0.00211229
0.00208899
0.00205834
2.93202e-05
0.000128805
0.000248263
0.000372501
0.000497124
0.000621026
0.00074563
0.000874909
0.0010121
0.0011593
0.00131661
0.00147839
0.00162619
0.00176264
0.00189074
0.0020125
0.00212919
0.00224164
0.00235038
0.00245579
0.00255819
0.00265776
0.00275493
0.00285008
0.00294347
0.00303535
0.00312591
0.00321532
0.00330371
0.00339118
0.00347779
0.00356361
0.00364864
0.00373289
0.00381634
0.00389895
0.00398065
0.0040614
0.00414109
0.00421966
0.00429699
0.00437301
0.00444759
0.00452065
0.00459207
0.00466176
0.00472962
0.00479554
0.00485944
0.00492123
0.00498083
0.00503815
0.00509313
0.0051457
0.0051958
0.00524338
0.00528839
0.0053308
0.00537058
0.0054077
0.00544213
0.00547388
0.00550293
0.00552929
0.00555296
0.00557397
0.00559232
0.00560804
0.00562116
0.00563171
0.00563974
0.00564528
0.00564839
0.00564912
0.00564751
0.00564363
0.00563754
0.00562929
0.00561896
0.00560659
0.00559227
0.00557605
0.00555802
0.00553824
0.00551678
0.00549372
0.00546913
0.00544308
0.00541565
0.00538689
0.0053569
0.00532573
0.00529345
0.00526013
0.00522584
0.00519065
0.00515462
0.00511781
0.00508029
0.00504212
0.00500336
0.00496407
0.0049243
0.0048841
0.00484353
0.00480265
0.00476148
0.00472009
0.00467851
0.00463679
0.00459497
0.00455309
0.00451118
0.00446927
0.0044274
0.00438561
0.00434391
0.00430233
0.00426091
0.00421965
0.0041786
0.00413776
0.00409715
0.0040568
0.00401671
0.00397691
0.0039374
0.00389819
0.0038593
0.00382075
0.00378252
0.00374464
0.0037071
0.00366992
0.0036331
0.00359664
0.00356054
0.00352481
0.00348945
0.00345446
0.00341984
0.0033856
0.00335173
0.00331822
0.00328509
0.00325233
0.00321994
0.00318791
0.00315625
0.00312494
0.003094
0.00306341
0.00303317
0.00300328
0.00297374
0.00294454
0.00291568
0.00288715
0.00285896
0.00283109
0.00280355
0.00277633
0.00274942
0.00272281
0.00269651
0.00267049
0.00264476
0.00261929
0.00259408
0.00256909
0.00254431
0.00251971
0.00249523
0.00247083
0.00244644
0.00242199
0.00239737
0.00237258
0.00234707
0.00231426
2.76261e-05
0.000122203
0.000238232
0.000361785
0.000489222
0.000619911
0.000756112
0.000899603
0.00105207
0.00121401
0.00138594
0.0015519
0.00170368
0.00184399
0.0019756
0.00210048
0.00221998
0.00233504
0.00244631
0.00255429
0.00265937
0.00276185
0.002862
0.00296001
0.0030563
0.00315116
0.00324484
0.0033375
0.00342931
0.00352036
0.00361073
0.00370046
0.00378956
0.00387803
0.00396583
0.00405291
0.0041392
0.00422462
0.00430909
0.0043925
0.00447475
0.00455573
0.00463531
0.0047134
0.00478987
0.00486462
0.00493753
0.0050085
0.00507742
0.00514421
0.00520877
0.00527101
0.00533087
0.00538826
0.00544313
0.00549542
0.00554507
0.00559206
0.00563633
0.00567788
0.00571666
0.00575268
0.00578591
0.00581638
0.00584407
0.005869
0.0058912
0.00591068
0.00592747
0.0059416
0.00595312
0.00596205
0.00596846
0.00597238
0.00597387
0.005973
0.00596983
0.0059644
0.00595678
0.00594703
0.00593522
0.00592142
0.00590569
0.00588812
0.00586877
0.00584771
0.00582501
0.00580076
0.00577501
0.00574784
0.00571932
0.00568951
0.0056585
0.00562634
0.0055931
0.00555885
0.00552366
0.00548758
0.00545069
0.00541304
0.0053747
0.00533572
0.00529616
0.00525608
0.00521552
0.00517455
0.0051332
0.00509153
0.00504958
0.00500739
0.00496501
0.00492249
0.00487985
0.00483713
0.00479437
0.0047516
0.00470885
0.00466616
0.00462355
0.00458104
0.00453866
0.00449643
0.00445439
0.00441253
0.00437089
0.00432948
0.00428831
0.00424741
0.00420678
0.00416644
0.00412639