/*--------------------------------*- C++ -*----------------------------------*\
  =========                 |
  \\      /  F ield         | OpenFOAM: The Open Source CFD Toolbox
   \\    /   O peration     | Website:  https://openfoam.org
    \\  /    A nd           | Version:  8
     \\/     M anipulation  |
\*---------------------------------------------------------------------------*/
FoamFile
{
    version     2.0;
    format      ascii;
    class       surfaceScalarField;
    location    "800";
    object      phi;
}
// * * * * * * * * * * * * * * * * * * * * * * * * * * * * * * * * * * * * * //

dimensions      [0 3 -1 0 0 0 0];

internalField   nonuniform List<scalar> 
24170
(
3.92539e-06
-7.91498e-07
3.76465e-06
1.6075e-07
3.63345e-06
1.31208e-07
3.43331e-06
2.00143e-07
3.28028e-06
1.53026e-07
3.18901e-06
9.11896e-08
3.13092e-06
5.81088e-08
3.0861e-06
4.58893e-08
3.04613e-06
4.23215e-08
3.0106e-06
3.81604e-08
2.97877e-06
3.37993e-08
2.94906e-06
3.07659e-08
2.92189e-06
2.73715e-08
2.89645e-06
2.51906e-08
2.87231e-06
2.35915e-08
2.85199e-06
1.94588e-08
2.84105e-06
9.8299e-09
-6.47543e-09
2.84684e-06
3.58445e-06
-9.19499e-07
3.80424e-06
-5.90415e-08
3.74282e-06
1.92628e-07
3.6906e-06
2.52374e-07
3.63729e-06
2.06331e-07
3.59023e-06
1.38278e-07
3.55289e-06
9.55973e-08
3.52309e-06
7.56569e-08
3.49853e-06
6.65663e-08
3.47732e-06
5.92108e-08
3.45872e-06
5.25234e-08
3.44253e-06
4.72567e-08
3.42796e-06
4.23271e-08
3.41468e-06
3.87714e-08
3.40271e-06
3.57094e-08
3.39125e-06
3.10175e-08
3.38041e-06
2.07909e-08
4.67208e-09
3.36949e-06
3.68518e-06
-7.92482e-07
3.83639e-06
-2.10251e-07
3.91494e-06
1.14082e-07
3.94502e-06
2.22292e-07
3.94408e-06
2.07263e-07
3.92749e-06
1.54895e-07
3.90755e-06
1.15611e-07
3.88933e-06
9.36404e-08
3.874e-06
8.11913e-08
3.86057e-06
7.19092e-08
3.84834e-06
6.42473e-08
3.83729e-06
5.81239e-08
3.82693e-06
5.27642e-08
3.81742e-06
4.84548e-08
3.80893e-06
4.44056e-08
3.801e-06
3.92109e-08
3.79199e-06
3.0145e-08
1.76927e-08
3.77947e-06
4.05359e-06
-6.4151e-07
4.1146e-06
-2.7126e-07
4.20799e-06
2.06907e-08
4.26635e-06
1.63931e-07
4.2907e-06
1.82924e-07
4.29287e-06
1.52745e-07
4.28571e-06
1.22814e-07
4.27632e-06
1.02838e-07
4.26727e-06
8.96793e-08
4.25874e-06
7.98087e-08
4.25057e-06
7.19383e-08
4.24284e-06
6.56202e-08
4.23536e-06
6.02274e-08
4.22826e-06
5.5668e-08
4.22151e-06
5.13183e-08
4.21467e-06
4.62969e-08
4.20602e-06
3.91163e-08
3.05609e-08
4.19354e-06
4.50491e-06
-5.09114e-07
4.51536e-06
-2.81709e-07
4.58529e-06
-4.92354e-08
4.64665e-06
1.02564e-07
4.68259e-06
1.46989e-07
4.69688e-06
1.38469e-07
4.69946e-06
1.20232e-07
4.69723e-06
1.04919e-07
4.69332e-06
9.32465e-08
4.68869e-06
8.40464e-08
4.68367e-06
7.6628e-08
4.67852e-06
7.05904e-08
4.67322e-06
6.5472e-08
4.66785e-06
6.10765e-08
4.66229e-06
5.69663e-08
4.65609e-06
5.26511e-08
4.64789e-06
4.75218e-08
4.25132e-08
4.63614e-06
5.00014e-06
-3.94663e-07
4.98614e-06
-2.67705e-07
5.03069e-06
-9.37803e-08
5.08506e-06
4.81956e-08
5.12454e-06
1.07513e-07
5.14609e-06
1.16936e-07
5.15584e-06
1.10483e-07
5.1594e-06
1.01277e-07
5.15986e-06
9.25978e-08
5.1586e-06
8.50709e-08
5.1563e-06
7.87269e-08
5.15334e-06
7.34225e-08
5.14985e-06
6.89082e-08
5.14591e-06
6.50311e-08
5.14138e-06
6.15449e-08
5.13586e-06
5.82555e-08
5.12841e-06
5.50801e-08
5.29659e-08
5.11809e-06
5.54382e-06
-2.97475e-07
5.51664e-06
-2.4053e-07
5.54055e-06
-1.17687e-07
5.58388e-06
4.86766e-09
5.62166e-06
6.97305e-08
5.64656e-06
9.20408e-08
5.66108e-06
9.59615e-08
5.66906e-06
9.32382e-08
5.67315e-06
8.8413e-08
5.67482e-06
8.32867e-08
5.67491e-06
7.85338e-08
5.67391e-06
7.43531e-08
5.67205e-06
7.07378e-08
5.66942e-06
6.76609e-08
5.66593e-06
6.50561e-08
5.66129e-06
6.29339e-08
5.65495e-06
6.1481e-08
6.14538e-08
5.6465e-06
4.34788e-06
-2.39242e-07
4.32251e-06
-2.15163e-07
4.33078e-06
-1.25953e-07
4.35419e-06
-1.85392e-08
4.3784e-06
4.55218e-08
4.39646e-06
7.39792e-08
4.40841e-06
8.40153e-08
4.41597e-06
8.5664e-08
4.42059e-06
8.37554e-08
4.42325e-06
8.05822e-08
4.42456e-06
7.71774e-08
4.42491e-06
7.3979e-08
4.42447e-06
7.11507e-08
4.42335e-06
6.87741e-08
4.42152e-06
6.68926e-08
4.41885e-06
6.56172e-08
4.41515e-06
6.52051e-08
6.62751e-08
4.41035e-06
5.08621e-06
-1.856e-07
5.05777e-06
-1.86719e-07
5.0584e-06
-1.2658e-07
5.07686e-06
-3.70055e-08
5.09918e-06
2.32095e-08
5.11773e-06
5.543e-08
5.13124e-06
7.04989e-08
5.14059e-06
7.63063e-08
5.14687e-06
7.74624e-08
5.15095e-06
7.64807e-08
5.15345e-06
7.46559e-08
5.15477e-06
7.26413e-08
5.15515e-06
7.07664e-08
5.15469e-06
6.92273e-08
5.15342e-06
6.81658e-08
5.15128e-06
6.77608e-08
5.14821e-06
6.82895e-08
7.02033e-08
5.14429e-06
5.94839e-06
-1.38194e-07
5.91832e-06
-1.5665e-07
5.91161e-06
-1.19868e-07
5.924e-06
-4.94001e-08
5.94286e-06
4.35382e-09
5.96058e-06
3.77102e-08
5.9748e-06
5.62825e-08
5.98546e-06
6.56354e-08
5.9932e-06
6.97218e-08
5.99867e-06
7.09999e-08
6.00243e-06
7.08942e-08
6.00485e-06
7.02139e-08
6.00619e-06
6.94269e-08
6.00658e-06
6.88301e-08
6.0061e-06
6.8644e-08
6.00478e-06
6.90847e-08
6.00267e-06
7.04039e-08
7.29115e-08
5.99997e-06
6.95439e-06
-9.83132e-08
6.92402e-06
-1.26279e-07
6.91113e-06
-1.06986e-07
6.9168e-06
-5.50692e-08
6.93087e-06
-9.71553e-09
6.94635e-06
2.22325e-08
6.96015e-06
4.24838e-08
6.9714e-06
5.43846e-08
6.98017e-06
6.09469e-08
6.98684e-06
6.43297e-08
6.9918e-06
6.59334e-08
6.99538e-06
6.66384e-08
6.99781e-06
6.69993e-08
6.99925e-06
6.73873e-08
6.99982e-06
6.80707e-08
6.99963e-06
6.92759e-08
6.99882e-06
7.12133e-08
7.40702e-08
6.99766e-06
8.12719e-06
-6.6488e-08
8.09793e-06
-9.70222e-08
8.08056e-06
-8.96112e-08
8.07955e-06
-5.40624e-08
8.08793e-06
-1.80946e-08
8.09985e-06
1.03156e-08
8.11198e-06
3.03495e-08
8.12286e-06
4.35102e-08
8.13202e-06
5.17805e-08
8.1395e-06
5.68495e-08
8.14549e-06
5.99535e-08
8.15018e-06
6.19438e-08
8.15378e-06
6.34005e-08
8.15645e-06
6.47215e-08
8.15832e-06
6.61929e-08
8.15957e-06
6.80288e-08
8.16039e-06
7.03911e-08
7.33853e-08
8.16108e-06
9.49368e-06
-4.2439e-08
9.4668e-06
-7.0144e-08
9.44683e-06
-6.96426e-08
9.43991e-06
-4.71355e-08
9.44229e-06
-2.04733e-08
9.44966e-06
2.94811e-09
9.45895e-06
2.10549e-08
9.4684e-06
3.40584e-08
9.47716e-06
4.30213e-08
9.48491e-06
4.91025e-08
9.49159e-06
5.32719e-08
9.49727e-06
5.6266e-08
9.50205e-06
5.86167e-08
9.50607e-06
6.07045e-08
9.50947e-06
6.27963e-08
9.51242e-06
6.50784e-08
9.51514e-06
6.76693e-08
7.06223e-08
9.5179e-06
1.10854e-05
-2.51594e-08
1.10618e-05
-4.65038e-08
1.1041e-05
-4.88091e-08
1.10294e-05
-3.55554e-08
1.10261e-05
-1.71752e-08
1.10284e-05
5.97585e-10
1.1034e-05
1.54651e-08
1.10411e-05
2.69588e-08
1.10487e-05
3.5477e-08
1.10561e-05
4.1698e-08
1.1063e-05
4.62923e-08
1.10695e-05
4.98185e-08
1.10754e-05
5.27069e-08
1.10808e-05
5.52715e-08
1.10859e-05
5.77329e-08
1.10907e-05
6.0235e-08
1.10956e-05
6.28582e-08
6.5626e-08
1.11005e-05
1.29396e-05
-1.31189e-08
1.29194e-05
-2.62799e-08
1.28988e-05
-2.82543e-08
1.28839e-05
-2.06914e-08
1.28758e-05
-9.0011e-09
1.28732e-05
3.1377e-09
1.28748e-05
1.39308e-08
1.28789e-05
2.27769e-08
1.28847e-05
2.97305e-08
1.28913e-05
3.51264e-08
1.28982e-05
3.93638e-08
1.29052e-05
4.28057e-08
1.29122e-05
4.57443e-08
1.2919e-05
4.83966e-08
1.29259e-05
5.09119e-08
1.29327e-05
5.33819e-08
1.29397e-05
5.58497e-08
5.83183e-08
1.2947e-05
1.50998e-05
-4.48336e-09
1.50822e-05
-8.67729e-09
1.50621e-05
-8.11585e-09
1.50448e-05
-3.46178e-09
1.50327e-05
3.10454e-09
1.50259e-05
9.93186e-09
1.50237e-05
1.61531e-08
1.5025e-05
2.14535e-08
1.50289e-05
2.58403e-08
1.50346e-05
2.94694e-08
1.50414e-05
3.25368e-08
1.5049e-05
3.52229e-08
1.50571e-05
3.76711e-08
1.50655e-05
3.99827e-08
1.50742e-05
4.22205e-08
1.50831e-05
4.44137e-08
1.50924e-05
4.65651e-08
4.86563e-08
1.51021e-05
1.76171e-05
2.89292e-09
1.75999e-05
8.52193e-09
1.75787e-05
1.30276e-08
1.7559e-05
1.62745e-08
1.75436e-05
1.84678e-08
1.75336e-05
1.99513e-08
1.75287e-05
2.10442e-08
1.75282e-05
2.19837e-08
1.75311e-05
2.2928e-08
1.75366e-05
2.39718e-08
1.7544e-05
2.51617e-08
1.75527e-05
2.65103e-08
1.75623e-05
2.80065e-08
1.75727e-05
2.9625e-08
1.75836e-05
3.13291e-08
1.75949e-05
3.30781e-08
1.76067e-05
3.48258e-08
3.6528e-08
1.76188e-05
1.78181e-05
1.10002e-08
1.77994e-05
2.72117e-08
1.77768e-05
3.56223e-08
1.7756e-05
3.70557e-08
1.77402e-05
3.43218e-08
1.77302e-05
2.99408e-08
1.77257e-05
2.54926e-08
1.77259e-05
2.17693e-08
1.77298e-05
1.90644e-08
1.77364e-05
1.73881e-08
1.77449e-05
1.66189e-08
1.77549e-05
1.65883e-08
1.77657e-05
1.71247e-08
1.77773e-05
1.80708e-08
1.77893e-05
1.9295e-08
1.78017e-05
2.06828e-08
1.78144e-05
2.21463e-08
2.36081e-08
1.78273e-05
1.58702e-05
2.21333e-08
1.58478e-05
4.95807e-08
1.58233e-05
6.01309e-08
1.58032e-05
5.72322e-08
1.57899e-05
4.76072e-08
1.57834e-05
3.63668e-08
1.57827e-05
2.61919e-08
1.57864e-05
1.81389e-08
1.57931e-05
1.23566e-08
1.58019e-05
8.60213e-09
1.5812e-05
6.48549e-09
1.5823e-05
5.61604e-09
1.58344e-05
5.65054e-09
1.58462e-05
6.31306e-09
1.58581e-05
7.38262e-09
1.58701e-05
8.69748e-09
1.58821e-05
1.01273e-08
1.15858e-08
1.58941e-05
1.41313e-05
3.95385e-08
1.41021e-05
7.87064e-08
1.40745e-05
8.77867e-08
1.40557e-05
7.60367e-08
1.40469e-05
5.6411e-08
1.40462e-05
3.70368e-08
1.40512e-05
2.12063e-08
1.40597e-05
9.57772e-09
1.40703e-05
1.75649e-09
1.4082e-05
-3.05648e-09
1.40941e-05
-5.6136e-09
1.41063e-05
-6.57077e-09
1.41184e-05
-6.42793e-09
1.41303e-05
-5.57402e-09
1.41419e-05
-4.2791e-09
1.41533e-05
-2.74136e-09
1.41646e-05
-1.09774e-09
5.54235e-10
1.41756e-05
1.25772e-05
6.73554e-08
1.25392e-05
1.16739e-07
1.25091e-05
1.17888e-07
1.24942e-05
9.08897e-08
1.24928e-05
5.78124e-08
1.25002e-05
2.96816e-08
1.25122e-05
9.13013e-09
1.25264e-05
-4.4977e-09
1.25409e-05
-1.28375e-08
1.25552e-05
-1.73509e-08
1.25689e-05
-1.92873e-08
1.25818e-05
-1.9508e-08
1.25941e-05
-1.86641e-08
1.26057e-05
-1.7173e-08
1.26167e-05
-1.53311e-08
1.26273e-05
-1.33333e-08
1.26375e-05
-1.12957e-08
-9.31366e-09
1.26473e-05
1.11862e-05
1.10916e-07
1.11384e-05
1.6457e-07
1.11088e-05
1.4752e-07
1.11022e-05
9.74838e-08
1.11117e-05
4.83123e-08
1.11289e-05
1.24018e-08
1.11486e-05
-1.04597e-08
1.11678e-05
-2.3724e-08
1.11855e-05
-3.05036e-08
1.12014e-05
-3.32863e-08
1.12157e-05
-3.35548e-08
1.12285e-05
-3.23575e-08
1.12401e-05
-3.03109e-08
1.12508e-05
-2.78745e-08
1.12608e-05
-2.52935e-08
1.12701e-05
-2.26969e-08
1.1279e-05
-2.01919e-08
-1.78056e-08
1.12874e-05
9.93908e-06
1.76451e-07
9.88248e-06
2.21163e-07
9.85873e-06
1.71262e-07
9.86593e-06
9.02748e-08
9.88961e-06
2.46386e-08
9.9176e-06
-1.55544e-08
9.94391e-06
-3.67913e-08
9.96668e-06
-4.64026e-08
9.9857e-06
-4.96006e-08
1.00017e-05
-4.92772e-08
1.00152e-05
-4.71138e-08
1.00269e-05
-4.39982e-08
1.00371e-05
-4.05313e-08
1.00462e-05
-3.7028e-08
1.00545e-05
-3.36612e-08
1.00623e-05
-3.04784e-08
1.00696e-05
-2.74909e-08
-2.47474e-08
1.00764e-05
8.81963e-06
2.69916e-07
8.75785e-06
2.82943e-07
8.74788e-06
1.81225e-07
8.77481e-06
6.33222e-08
8.81458e-06
-1.51291e-08
8.85212e-06
-5.30903e-08
8.88269e-06
-6.72245e-08
8.90623e-06
-7.00175e-08
8.92426e-06
-6.76025e-08
8.93841e-06
-6.33534e-08
8.94981e-06
-5.83895e-08
8.95922e-06
-5.33274e-08
8.96718e-06
-4.84681e-08
8.97415e-06
-4.4017e-08
8.98045e-06
-4.00129e-08
8.98627e-06
-3.63464e-08
8.99171e-06
-3.2996e-08
-2.9946e-08
8.99689e-06
7.81391e-06
3.96675e-07
7.75391e-06
3.42943e-07
7.76868e-06
1.6644e-07
7.82054e-06
1.14604e-08
7.87567e-06
-7.02743e-08
7.91913e-06
-9.64899e-08
7.94967e-06
-9.78324e-08
7.97057e-06
-9.06405e-08
7.98483e-06
-8.15704e-08
7.99523e-06
-7.35297e-08
8.00313e-06
-6.60847e-08
8.00934e-06
-5.942e-08
8.01439e-06
-5.33084e-08
8.01871e-06
-4.82067e-08
8.02263e-06
-4.38826e-08
8.02626e-06
-4.00221e-08
8.02968e-06
-3.64781e-08
-3.32663e-08
8.03295e-06
6.90424e-06
5.66768e-07
6.86137e-06
3.85804e-07
6.91717e-06
1.10634e-07
6.99674e-06
-6.81338e-08
7.06253e-06
-1.36072e-07
7.10529e-06
-1.39268e-07
7.13032e-06
-1.22546e-07
7.14448e-06
-1.04613e-07
7.15207e-06
-8.89678e-08
7.15708e-06
-7.57832e-08
7.16035e-06
-6.66241e-08
7.16266e-06
-5.96015e-08
7.16408e-06
-5.41166e-08
7.16532e-06
-4.91816e-08
7.16653e-06
-4.51018e-08
7.16772e-06
-4.14438e-08
7.1689e-06
-3.78785e-08
-3.46178e-08
7.17009e-06
6.07162e-06
7.97662e-07
6.08526e-06
3.72163e-07
6.19865e-06
-2.77407e-09
6.2999e-06
-1.69399e-07
6.36526e-06
-2.01463e-07
6.39754e-06
-1.71504e-07
6.41011e-06
-1.3522e-07
6.41343e-06
-1.06939e-07
6.41239e-06
-8.57876e-08
6.40989e-06
-7.39933e-08
6.40745e-06
-6.44938e-08
6.40485e-06
-5.76381e-08
6.40228e-06
-5.11007e-08
6.39996e-06
-4.63978e-08
6.39808e-06
-4.32859e-08
6.3966e-06
-3.99767e-08
6.39523e-06
-3.66317e-08
-3.35243e-08
6.39399e-06
5.35805e-06
1.05451e-06
5.50649e-06
2.23716e-07
5.64777e-06
-1.44086e-07
5.73564e-06
-2.57315e-07
5.77646e-06
-2.42348e-07
5.78324e-06
-1.78427e-07
5.77528e-06
-1.26644e-07
5.76328e-06
-9.40025e-08
5.74976e-06
-7.56459e-08
5.73931e-06
-6.4001e-08
5.73029e-06
-5.64764e-08
5.72237e-06
-4.99874e-08
5.71427e-06
-4.41437e-08
5.70726e-06
-3.96123e-08
5.70167e-06
-3.74602e-08
5.69673e-06
-3.51165e-08
5.6922e-06
-3.20654e-08
-2.92873e-08
5.68756e-06
5.04576e-06
1.01105e-06
5.36491e-06
-9.54498e-08
5.35251e-06
-1.31767e-07
5.33285e-06
-2.37745e-07
5.296e-06
-2.05652e-07
5.25016e-06
-1.3259e-07
5.2089e-06
-8.47319e-08
5.17485e-06
-6.0819e-08
5.14634e-06
-4.98247e-08
5.12483e-06
-4.29487e-08
5.10677e-06
-3.93112e-08
5.09057e-06
-3.55939e-08
5.07485e-06
-3.02677e-08
5.06138e-06
-2.65872e-08
5.05032e-06
-2.64787e-08
5.03999e-06
-2.47542e-08
5.03037e-06
-2.23075e-08
-2.09561e-08
5.02272e-06
5.4676e-06
5.37215e-06
5.24037e-06
5.00261e-06
4.79694e-06
4.66444e-06
4.57966e-06
4.51835e-06
4.46847e-06
4.42536e-06
4.38572e-06
4.34969e-06
4.31929e-06
4.29269e-06
4.26621e-06
4.24151e-06
4.21939e-06
4.19875e-06
2.2981e-08
-2.29823e-08
2.37037e-07
-2.14061e-07
4.89245e-07
-2.52178e-07
7.09638e-07
-2.20373e-07
8.77492e-07
-1.67835e-07
9.88758e-07
-1.11257e-07
1.04455e-06
-5.57815e-08
1.04709e-06
-2.53715e-09
1.00167e-06
4.54243e-08
9.18435e-07
8.3227e-08
8.12604e-07
1.05839e-07
7.03304e-07
1.09288e-07
6.10352e-07
9.29471e-08
5.43962e-07
6.64076e-08
4.92902e-07
5.10793e-08
4.33966e-07
5.96263e-08
3.48017e-07
8.58124e-08
2.23311e-07
1.25448e-07
4.54301e-08
1.77469e-07
-1.99773e-07
2.44577e-07
-5.02267e-07
3.02242e-07
-8.43297e-07
3.40781e-07
-1.20771e-06
3.64421e-07
-1.58516e-06
3.77462e-07
-1.96685e-06
3.81729e-07
-2.3428e-06
3.75972e-07
-2.70497e-06
3.62192e-07
-3.04819e-06
3.43233e-07
-3.36863e-06
3.20454e-07
-3.66395e-06
2.95323e-07
-3.93328e-06
2.69331e-07
-4.17693e-06
2.43654e-07
-4.39592e-06
2.19e-07
-4.59175e-06
1.95826e-07
-4.7661e-06
1.74358e-07
-4.92078e-06
1.5468e-07
-5.05754e-06
1.36752e-07
-5.17799e-06
1.20459e-07
-5.28363e-06
1.05638e-07
-5.37574e-06
9.21098e-08
-5.45543e-06
7.96922e-08
-5.52365e-06
6.82126e-08
-5.58116e-06
5.75156e-08
-5.62863e-06
4.74671e-08
-5.66659e-06
3.79578e-08
-5.69549e-06
2.89006e-08
-5.71571e-06
2.02239e-08
-5.72761e-06
1.18978e-08
-5.73166e-06
4.0499e-09
-5.72873e-06
-2.93206e-09
-5.7199e-06
-8.8325e-09
-5.70594e-06
-1.39602e-08
-5.68726e-06
-1.86772e-08
-5.66411e-06
-2.31452e-08
-5.63667e-06
-2.74422e-08
-5.60507e-06
-3.15963e-08
-5.56945e-06
-3.56224e-08
-5.52992e-06
-3.95273e-08
-5.48661e-06
-4.3312e-08
-5.43964e-06
-4.69756e-08
-5.38912e-06
-5.05154e-08
-5.33519e-06
-5.3928e-08
-5.27798e-06
-5.721e-08
-5.21763e-06
-6.0358e-08
-5.15426e-06
-6.33697e-08
-5.08801e-06
-6.62418e-08
-5.01904e-06
-6.8971e-08
-4.94749e-06
-7.15549e-08
-4.87349e-06
-7.3992e-08
-4.79721e-06
-7.62809e-08
-4.71879e-06
-7.8421e-08
-4.63838e-06
-8.04118e-08
-4.55613e-06
-8.22538e-08
-4.47218e-06
-8.39476e-08
-4.38668e-06
-8.54942e-08
-4.29979e-06
-8.68955e-08
-4.21163e-06
-8.81536e-08
-4.12236e-06
-8.92709e-08
-4.03211e-06
-9.02505e-08
-3.94102e-06
-9.10959e-08
-3.8492e-06
-9.18109e-08
-3.7568e-06
-9.23999e-08
-3.66394e-06
-9.28677e-08
-3.57072e-06
-9.32201e-08
-3.47725e-06
-9.34632e-08
-3.38365e-06
-9.36042e-08
-3.29e-06
-9.36518e-08
-3.19638e-06
-9.36164e-08
-3.10287e-06
-9.35107e-08
-3.00952e-06
-9.33505e-08
-2.91636e-06
-9.31566e-08
-2.82341e-06
-9.29541e-08
-2.73064e-06
-9.27611e-08
-2.63809e-06
-9.25573e-08
-2.54583e-06
-9.22576e-08
-2.45407e-06
-9.17607e-08
-2.36309e-06
-9.09812e-08
-2.27315e-06
-8.99364e-08
-2.18436e-06
-8.87831e-08
-2.09674e-06
-8.76284e-08
-2.01026e-06
-8.64723e-08
-1.92496e-06
-8.5299e-08
-1.84086e-06
-8.4101e-08
-1.75798e-06
-8.28775e-08
-1.67635e-06
-8.1631e-08
-1.59599e-06
-8.03652e-08
-1.5169e-06
-7.90841e-08
-1.43911e-06
-7.77902e-08
-1.36263e-06
-7.64815e-08
-1.28749e-06
-7.51372e-08
-1.21372e-06
-7.37696e-08
-1.14132e-06
-7.24061e-08
-1.07028e-06
-7.1042e-08
-1.0006e-06
-6.96782e-08
-9.32282e-07
-6.8316e-08
-8.65325e-07
-6.69568e-08
-7.99723e-07
-6.56027e-08
-7.35467e-07
-6.42566e-08
-6.72548e-07
-6.29203e-08
-6.10956e-07
-6.15931e-08
-5.50681e-07
-6.02759e-08
-4.91711e-07
-5.89714e-08
-4.34027e-07
-5.76855e-08
-3.77604e-07
-5.6424e-08
-3.22423e-07
-5.51826e-08
-2.68466e-07
-5.39579e-08
-2.15714e-07
-5.2754e-08
-1.64145e-07
-5.15699e-08
-1.13753e-07
-5.03939e-08
-6.45285e-08
-4.92257e-08
-1.65944e-08
-4.79352e-08
3.01821e-08
-4.67774e-08
7.61079e-08
-4.59265e-08
1.21076e-07
-4.49685e-08
1.64984e-07
-4.39079e-08
2.07828e-07
-4.28436e-08
2.49625e-07
-4.17966e-08
2.90405e-07
-4.07794e-08
3.302e-07
-3.97942e-08
3.6904e-07
-3.88394e-08
4.06954e-07
-3.79132e-08
4.4397e-07
-3.70142e-08
4.80112e-07
-3.61413e-08
5.15407e-07
-3.52937e-08
5.4988e-07
-3.44711e-08
5.83555e-07
-3.36729e-08
6.16455e-07
-3.28991e-08
6.48607e-07
-3.21495e-08
6.80032e-07
-3.1424e-08
7.10756e-07
-3.07225e-08
7.40803e-07
-3.0045e-08
7.70196e-07
-2.93917e-08
7.9896e-07
-2.87623e-08
8.27118e-07
-2.81571e-08
8.54696e-07
-2.7576e-08
8.81716e-07
-2.70189e-08
9.08204e-07
-2.64857e-08
9.34181e-07
-2.59761e-08
9.59673e-07
-2.54897e-08
9.847e-07
-2.50255e-08
1.00928e-06
-2.45824e-08
1.03344e-06
-2.41584e-08
1.0572e-06
-2.37508e-08
1.08055e-06
-2.33554e-08
1.10352e-06
-2.29666e-08
1.1261e-06
-2.25762e-08
1.14827e-06
-2.21728e-08
1.17001e-06
-2.17407e-08
1.19127e-06
-2.12577e-08
1.21197e-06
-2.06929e-08
1.23197e-06
-2.00019e-08
1.25109e-06
-1.91209e-08
1.26904e-06
-1.79527e-08
1.28539e-06
-1.63528e-08
1.29944e-06
-1.40462e-08
1.31006e-06
-1.06224e-08
1.31463e-06
-4.55792e-09
1.30778e-06
6.85742e-09
1.27824e-06
2.95376e-08
7.23298e-08
1.2059e-06
2.54218e-07
-2.77223e-07
4.90238e-07
-4.50079e-07
6.39956e-07
-4.01893e-07
7.24707e-07
-3.05122e-07
7.64326e-07
-2.07447e-07
7.70369e-07
-1.17305e-07
7.49528e-07
-3.4935e-08
7.07429e-07
3.95524e-08
6.47151e-07
1.05707e-07
5.68611e-07
1.61756e-07
4.71101e-07
2.03356e-07
3.52974e-07
2.27402e-07
2.08224e-07
2.37704e-07
2.53044e-08
2.49345e-07
-2.06649e-07
2.83042e-07
-4.92117e-07
3.45188e-07
-8.30023e-07
4.23805e-07
-1.20996e-06
5.054e-07
-1.61394e-06
5.81409e-07
-2.0155e-06
6.46084e-07
-2.40555e-06
6.92244e-07
-2.78109e-06
7.16304e-07
-3.13614e-06
7.19476e-07
-3.46375e-06
7.05074e-07
-3.7587e-06
6.76684e-07
-4.02002e-06
6.37302e-07
-4.24814e-06
5.90308e-07
-4.4443e-06
5.39403e-07
-4.61143e-06
4.87581e-07
-4.75302e-06
4.36918e-07
-4.87245e-06
3.88767e-07
-4.9729e-06
3.44103e-07
-5.05724e-06
3.03342e-07
-5.12799e-06
2.66572e-07
-5.18726e-06
2.33632e-07
-5.2368e-06
2.04218e-07
-5.27801e-06
1.77961e-07
-5.31202e-06
1.5447e-07
-5.33974e-06
1.33361e-07
-5.36191e-06
1.14284e-07
-5.37915e-06
9.69266e-08
-5.39196e-06
8.10231e-08
-5.4008e-06
6.63512e-08
-5.40606e-06
5.27291e-08
-5.40811e-06
4.00096e-08
-5.40729e-06
2.80778e-08
-5.40392e-06
1.68556e-08
-5.39833e-06
6.30818e-09
-5.39067e-06
-3.60845e-09
-5.38052e-06
-1.30838e-08
-5.36699e-06
-2.23583e-08
-5.34949e-06
-3.14615e-08
-5.32784e-06
-4.03275e-08
-5.30203e-06
-4.89528e-08
-5.27213e-06
-5.73442e-08
-5.23822e-06
-6.55078e-08
-5.2004e-06
-7.34465e-08
-5.15876e-06
-8.11598e-08
-5.11343e-06
-8.86445e-08
-5.06451e-06
-9.58949e-08
-5.01212e-06
-1.02904e-07
-4.95639e-06
-1.09665e-07
-4.89743e-06
-1.16169e-07
-4.83538e-06
-1.22409e-07
-4.77036e-06
-1.28382e-07
-4.70253e-06
-1.3408e-07
-4.632e-06
-1.39495e-07
-4.55893e-06
-1.44624e-07
-4.48346e-06
-1.49462e-07
-4.40573e-06
-1.54009e-07
-4.32589e-06
-1.58261e-07
-4.24409e-06
-1.62219e-07
-4.16046e-06
-1.65883e-07
-4.07515e-06
-1.69254e-07
-3.98831e-06
-1.72334e-07
-3.90008e-06
-1.75127e-07
-3.81059e-06
-1.77637e-07
-3.72e-06
-1.7987e-07
-3.62842e-06
-1.8183e-07
-3.53599e-06
-1.83526e-07
-3.44283e-06
-1.84964e-07
-3.34908e-06
-1.86152e-07
-3.25485e-06
-1.87101e-07
-3.16025e-06
-1.87819e-07
-3.06539e-06
-1.88319e-07
-2.97039e-06
-1.8861e-07
-2.87533e-06
-1.88706e-07
-2.78033e-06
-1.88619e-07
-2.68548e-06
-1.88362e-07
-2.59088e-06
-1.87948e-07
-2.49665e-06
-1.87388e-07
-2.40291e-06
-1.86691e-07
-2.30982e-06
-1.8585e-07
-2.21754e-06
-1.84837e-07
-2.12619e-06
-1.8361e-07
-2.03581e-06
-1.82138e-07
-1.94638e-06
-1.80417e-07
-1.85782e-06
-1.78489e-07
-1.77017e-06
-1.76431e-07
-1.68351e-06
-1.74296e-07
-1.59788e-06
-1.72097e-07
-1.51334e-06
-1.69836e-07
-1.42993e-06
-1.67515e-07
-1.34767e-06
-1.65136e-07
-1.2666e-06
-1.62705e-07
-1.18673e-06
-1.60229e-07
-1.10811e-06
-1.57711e-07
-1.03074e-06
-1.55156e-07
-9.54655e-07
-1.52566e-07
-8.79852e-07
-1.4994e-07
-8.06329e-07
-1.47293e-07
-7.34098e-07
-1.44637e-07
-6.63165e-07
-1.41975e-07
-5.9353e-07
-1.39313e-07
-5.25194e-07
-1.36653e-07
-4.58153e-07
-1.33998e-07
-3.92406e-07
-1.31351e-07
-3.27947e-07
-1.28717e-07
-2.64764e-07
-1.26103e-07
-2.02849e-07
-1.23509e-07
-1.42192e-07
-1.20934e-07
-8.27822e-08
-1.18382e-07
-2.46123e-08
-1.15856e-07
3.23313e-08
-1.13369e-07
8.80767e-08
-1.10929e-07
1.42641e-07
-1.08523e-07
1.96035e-07
-1.06148e-07
2.48273e-07
-1.03809e-07
2.99383e-07
-1.01505e-07
3.49394e-07
-9.92373e-08
3.98464e-07
-9.7006e-08
4.46567e-07
-9.48807e-08
4.93486e-07
-9.28457e-08
5.39289e-07
-9.07717e-08
5.84054e-07
-8.86728e-08
6.27811e-07
-8.66015e-08
6.70592e-07
-8.45771e-08
7.12419e-07
-8.26065e-08
7.53316e-07
-8.06909e-08
7.93306e-07
-7.88292e-08
8.32413e-07
-7.70196e-08
8.7066e-07
-7.52606e-08
9.0807e-07
-7.3551e-08
9.44667e-07
-7.18899e-08
9.80474e-07
-7.02768e-08
1.01551e-06
-6.87111e-08
1.04981e-06
-6.71926e-08
1.08338e-06
-6.57211e-08
1.11625e-06
-6.42966e-08
1.14845e-06
-6.29189e-08
1.17999e-06
-6.15881e-08
1.21091e-06
-6.03041e-08
1.24121e-06
-5.90671e-08
1.27093e-06
-5.78768e-08
1.30009e-06
-5.67334e-08
1.32871e-06
-5.56365e-08
1.35681e-06
-5.45857e-08
1.38442e-06
-5.35804e-08
1.41155e-06
-5.26194e-08
1.43823e-06
-5.17009e-08
1.46447e-06
-5.08222e-08
1.49029e-06
-4.99795e-08
1.51571e-06
-4.91671e-08
1.54073e-06
-4.83771e-08
1.56536e-06
-4.75986e-08
1.5896e-06
-4.68161e-08
1.61344e-06
-4.60084e-08
1.63684e-06
-4.51459e-08
1.65978e-06
-4.41875e-08
1.68216e-06
-4.30757e-08
1.70389e-06
-4.17289e-08
1.72479e-06
-4.0029e-08
1.74464e-06
-3.77994e-08
1.76306e-06
-3.47706e-08
1.77949e-06
-3.04818e-08
1.79305e-06
-2.41808e-08
1.80277e-06
-1.42736e-08
1.80764e-06
1.9974e-09
1.80575e-06
3.14238e-08
8.80314e-08
1.79004e-06
2.46176e-07
-5.2342e-07
3.42668e-07
-5.46575e-07
3.59056e-07
-4.1828e-07
3.48085e-07
-2.94142e-07
3.20455e-07
-1.79812e-07
2.76449e-07
-7.32994e-08
2.15358e-07
2.61585e-08
1.36132e-07
1.18773e-07
3.77147e-08
2.04124e-07
-8.20463e-08
2.81513e-07
-2.28842e-07
3.50152e-07
-4.13184e-07
4.11744e-07
-6.48503e-07
4.73021e-07
-9.41814e-07
5.4266e-07
-1.28304e-06
6.24267e-07
-1.65024e-06
7.12386e-07
-2.02251e-06
7.96076e-07
-2.38296e-06
8.65845e-07
-2.71768e-06
9.16113e-07
-3.01609e-06
9.44479e-07
-3.27431e-06
9.5047e-07
-3.49336e-06
9.35355e-07
-3.6762e-06
9.02323e-07
-3.82688e-06
8.55761e-07
-3.95012e-06
7.99928e-07
-4.05133e-06
7.38511e-07
-4.13584e-06
6.74817e-07
-4.20804e-06
6.11608e-07
-4.27138e-06
5.50921e-07
-4.32847e-06
4.94013e-07
-4.3812e-06
4.41494e-07
-4.4307e-06
3.93599e-07
-4.4776e-06
3.50245e-07
-4.52218e-06
3.11151e-07
-4.56447e-06
2.75927e-07
-4.60439e-06
2.44133e-07
-4.64175e-06
2.15329e-07
-4.67638e-06
1.89099e-07
-4.70809e-06
1.65066e-07
-4.7367e-06
1.42899e-07
-4.76209e-06
1.22314e-07
-4.78414e-06
1.03074e-07
-4.80277e-06
8.49808e-08
-4.81791e-06
6.78686e-08
-4.8295e-06
5.15975e-08
-4.83747e-06
3.60484e-08
-4.84173e-06
2.11193e-08
-4.84214e-06
6.7163e-09
-4.83848e-06
-7.26731e-09
-4.83062e-06
-2.09459e-08
-4.8186e-06
-3.43793e-08
-4.80251e-06
-4.75552e-08
-4.78238e-06
-6.04513e-08
-4.75828e-06
-7.30591e-08
-4.73025e-06
-8.53724e-08
-4.69837e-06
-9.73853e-08
-4.66273e-06
-1.09091e-07
-4.62341e-06
-1.20481e-07
-4.58051e-06
-1.31544e-07
-4.53413e-06
-1.4227e-07
-4.48439e-06
-1.52647e-07
-4.43139e-06
-1.6266e-07
-4.37526e-06
-1.72297e-07
-4.31613e-06
-1.81548e-07
-4.2541e-06
-1.90403e-07
-4.18933e-06
-1.98854e-07
-4.12194e-06
-2.06888e-07
-4.05206e-06
-2.145e-07
-3.97984e-06
-2.21683e-07
-3.90541e-06
-2.28434e-07
-3.82893e-06
-2.3475e-07
-3.75051e-06
-2.4063e-07
-3.67032e-06
-2.46074e-07
-3.58849e-06
-2.51085e-07
-3.50516e-06
-2.55664e-07
-3.42047e-06
-2.59818e-07
-3.33456e-06
-2.63551e-07
-3.24755e-06
-2.66872e-07
-3.1596e-06
-2.69788e-07
-3.07081e-06
-2.72309e-07
-2.98133e-06
-2.74446e-07
-2.89127e-06
-2.7621e-07
-2.80076e-06
-2.77614e-07
-2.7099e-06
-2.78671e-07
-2.61883e-06
-2.79396e-07
-2.52763e-06
-2.79802e-07
-2.43644e-06
-2.79905e-07
-2.34533e-06
-2.7972e-07
-2.25443e-06
-2.79262e-07
-2.16384e-06
-2.78542e-07
-2.07366e-06
-2.77573e-07
-1.98399e-06
-2.7636e-07
-1.89493e-06
-2.74903e-07
-1.80658e-06
-2.73189e-07
-1.71899e-06
-2.71203e-07
-1.63218e-06
-2.68942e-07
-1.54618e-06
-2.66422e-07
-1.46099e-06
-2.63679e-07
-1.37666e-06
-2.6076e-07
-1.29326e-06
-2.57699e-07
-1.21084e-06
-2.54517e-07
-1.12945e-06
-2.51224e-07
-1.04913e-06
-2.47832e-07
-9.69919e-07
-2.44349e-07
-8.91839e-07
-2.40785e-07
-8.14919e-07
-2.37149e-07
-7.39182e-07
-2.33448e-07
-6.64647e-07
-2.29691e-07
-5.91329e-07
-2.25885e-07
-5.19232e-07
-2.22037e-07
-4.48366e-07
-2.18159e-07
-3.7874e-07
-2.14262e-07
-3.10361e-07
-2.10354e-07
-2.43231e-07
-2.06444e-07
-1.7735e-07
-2.02535e-07
-1.12715e-07
-1.98632e-07
-4.93241e-08
-1.94742e-07
1.28305e-08
-1.90872e-07
7.37524e-08
-1.87025e-07
1.3345e-07
-1.83207e-07
1.91936e-07
-1.7942e-07
2.49222e-07
-1.75669e-07
3.05325e-07
-1.7196e-07
3.60256e-07
-1.683e-07
4.14021e-07
-1.64694e-07
4.66636e-07
-1.61138e-07
5.1812e-07
-1.57633e-07
5.68493e-07
-1.54183e-07
6.17778e-07
-1.5079e-07
6.66003e-07
-1.47463e-07
7.13212e-07
-1.44215e-07
7.59386e-07
-1.41055e-07
8.04493e-07
-1.37952e-07
8.4858e-07
-1.34859e-07
8.91693e-07
-1.31785e-07
9.33853e-07
-1.28762e-07
9.7508e-07
-1.25804e-07
1.01539e-06
-1.22919e-07
1.05481e-06
-1.20108e-07
1.09335e-06
-1.17371e-07
1.13104e-06
-1.14708e-07
1.1679e-06
-1.12117e-07
1.20395e-06
-1.09598e-07
1.2392e-06
-1.07149e-07
1.2737e-06
-1.0477e-07
1.30745e-06
-1.02461e-07
1.34048e-06
-1.00221e-07
1.37281e-06
-9.80499e-08
1.40446e-06
-9.59479e-08
1.43546e-06
-9.39148e-08
1.46582e-06
-9.19506e-08
1.49557e-06
-9.00553e-08
1.52473e-06
-8.82289e-08
1.55333e-06
-8.64715e-08
1.58138e-06
-8.47827e-08
1.6089e-06
-8.31624e-08
1.63593e-06
-8.16097e-08
1.66247e-06
-8.01237e-08
1.68856e-06
-7.87027e-08
1.7142e-06
-7.73439e-08
1.73942e-06
-7.60436e-08
1.76424e-06
-7.47961e-08
1.78867e-06
-7.35934e-08
1.81271e-06
-7.24243e-08
1.83639e-06
-7.12731e-08
1.85969e-06
-7.01182e-08
1.88261e-06
-6.89297e-08
1.90513e-06
-6.76662e-08
1.92722e-06
-6.62705e-08
1.9488e-06
-6.46623e-08
1.9698e-06
-6.27286e-08
1.99008e-06
-6.03066e-08
2.00944e-06
-5.71557e-08
2.02758e-06
-5.29125e-08
2.04408e-06
-4.69865e-08
2.05834e-06
-3.84378e-08
2.06958e-06
-2.55068e-08
2.07692e-06
-5.34972e-09
2.08082e-06
2.75218e-08
8.5492e-08
2.08336e-06
9.3946e-08
-6.17378e-07
6.2702e-08
-5.15345e-07
1.42901e-08
-3.69861e-07
-4.27225e-08
-2.37123e-07
-1.12132e-07
-1.10397e-07
-1.97408e-07
1.19797e-08
-3.01535e-07
1.30286e-07
-4.26929e-07
2.44167e-07
-5.76166e-07
3.53359e-07
-7.52629e-07
4.57975e-07
-9.61076e-07
5.58597e-07
-1.20585e-06
6.56514e-07
-1.48577e-06
7.5294e-07
-1.79008e-06
8.46971e-07
-2.10009e-06
9.34267e-07
-2.39612e-06
1.00841e-06
-2.66365e-06
1.0636e-06
-2.89439e-06
1.09657e-06
-3.08508e-06
1.10679e-06
-3.23651e-06
1.09591e-06
-3.35302e-06
1.06699e-06
-3.44115e-06
1.02349e-06
-3.50803e-06
9.69202e-07
-3.56017e-06
9.07911e-07
-3.60308e-06
8.42838e-07
-3.64119e-06
7.76621e-07
-3.67775e-06
7.11377e-07
-3.71479e-06
6.48656e-07
-3.75334e-06
5.89465e-07
-3.79365e-06
5.34326e-07
-3.83555e-06
4.83394e-07
-3.87854e-06
4.36592e-07
-3.92198e-06
3.93687e-07
-3.96519e-06
3.54358e-07
-4.00751e-06
3.18243e-07
-4.04835e-06
2.84971e-07
-4.0872e-06
2.54185e-07
-4.12366e-06
2.25554e-07
-4.15737e-06
1.98777e-07
-4.18806e-06
1.7359e-07
-4.21551e-06
1.49764e-07
-4.23953e-06
1.27101e-07
-4.25999e-06
1.05436e-07
-4.27675e-06
8.46262e-08
-4.2897e-06
6.45528e-08
-4.29877e-06
4.51136e-08
-4.30387e-06
2.62225e-08
-4.30496e-06
7.80252e-09
-4.302e-06
-1.02201e-08
-4.29504e-06
-2.79065e-08
-4.28414e-06
-4.52849e-08
-4.26934e-06
-6.2352e-08
-4.2507e-06
-7.90952e-08
-4.22826e-06
-9.55018e-08
-4.20207e-06
-1.11559e-07
-4.1722e-06
-1.27251e-07
-4.13873e-06
-1.42563e-07
-4.10173e-06
-1.57479e-07
-4.0613e-06
-1.7198e-07
-4.01752e-06
-1.8605e-07
-3.9705e-06
-1.99668e-07
-3.92034e-06
-2.12818e-07
-3.86716e-06
-2.25479e-07
-3.81107e-06
-2.37636e-07
-3.75219e-06
-2.49277e-07
-3.69066e-06
-2.60388e-07
-3.62659e-06
-2.70955e-07
-3.56012e-06
-2.8097e-07
-3.49138e-06
-2.90423e-07
-3.42051e-06
-2.99309e-07
-3.34763e-06
-3.07625e-07
-3.27289e-06
-3.15368e-07
-3.19643e-06
-3.22539e-07
-3.11837e-06
-3.2914e-07
-3.03886e-06
-3.35175e-07
-2.95803e-06
-3.40648e-07
-2.87601e-06
-3.45569e-07
-2.79294e-06
-3.49946e-07
-2.70894e-06
-3.5379e-07
-2.62413e-06
-3.57112e-07
-2.53865e-06
-3.59927e-07
-2.45261e-06
-3.62248e-07
-2.36614e-06
-3.64092e-07
-2.27933e-06
-3.65475e-07
-2.19232e-06
-3.66414e-07
-2.10519e-06
-3.66926e-07
-2.01807e-06
-3.67031e-07
-1.93104e-06
-3.66745e-07
-1.84422e-06
-3.66086e-07
-1.75769e-06
-3.6507e-07
-1.67155e-06
-3.63709e-07
-1.5859e-06
-3.62017e-07
-1.5008e-06
-3.59998e-07
-1.41634e-06
-3.57655e-07
-1.33255e-06
-3.5499e-07
-1.24948e-06
-3.52013e-07
-1.16715e-06
-3.48744e-07
-1.08562e-06
-3.45214e-07
-1.00492e-06
-3.41457e-07
-9.25116e-07
-3.37506e-07
-8.4625e-07
-3.33383e-07
-7.68368e-07
-3.29106e-07
-6.91509e-07
-3.2469e-07
-6.15706e-07
-3.20152e-07
-5.40989e-07
-3.15503e-07
-4.67381e-07
-3.10756e-07
-3.94906e-07
-3.05923e-07
-3.23581e-07
-3.01016e-07
-2.5342e-07
-2.96046e-07
-1.84432e-07
-2.91024e-07
-1.16628e-07
-2.85963e-07
-5.0015e-08
-2.80875e-07
1.54007e-08
-2.7577e-07
7.96149e-08
-2.70658e-07
1.42626e-07