/*--------------------------------*- C++ -*----------------------------------*\
  =========                 |
  \\      /  F ield         | OpenFOAM: The Open Source CFD Toolbox
   \\    /   O peration     | Website:  https://openfoam.org
    \\  /    A nd           | Version:  8
     \\/     M anipulation  |
\*---------------------------------------------------------------------------*/
FoamFile
{
    version     2.0;
    format      ascii;
    class       volScalarField;
    location    "4900";
    object      nut;
}
// * * * * * * * * * * * * * * * * * * * * * * * * * * * * * * * * * * * * * //

dimensions      [0 2 -1 0 0 0 0];

internalField   nonuniform List<scalar> 
12225
(
0.0122671
0.00158819
0.000666129
0.000410105
0.000294025
0.00022806
0.000183261
0.000170805
0.000132697
0.000106844
9.46734e-05
8.80084e-05
7.89856e-05
7.22329e-05
6.77318e-05
6.4507e-05
6.12106e-05
6.46333e-05
0.0323823
0.00744532
0.00330638
0.00204329
0.00146801
0.0011445
0.000936337
0.000799975
0.00067951
0.000577234
0.000506286
0.000452432
0.000410539
0.000378806
0.000350181
0.000327767
0.000311172
0.000292818
0.0490123
0.01515
0.00728196
0.00457854
0.00330639
0.00258054
0.00211233
0.00178913
0.00154181
0.00134762
0.00119772
0.0010787
0.000982056
0.000902481
0.000835978
0.000780909
0.000735546
0.00068717
0.063054
0.0237783
0.0122894
0.00788814
0.00573397
0.00448498
0.00367412
0.00310733
0.00268471
0.00235805
0.00210111
0.00189458
0.0017253
0.00158451
0.00146613
0.00136604
0.00128146
0.00119789
0.074932
0.0328517
0.0181452
0.0119262
0.00874548
0.00686412
0.0056308
0.00476254
0.00411748
0.00362029
0.00322731
0.00290992
0.00264899
0.00243143
0.00224799
0.00209188
0.00195826
0.00183626
0.0849536
0.0420208
0.0246655
0.0166359
0.0123325
0.00972587
0.00799539
0.00676785
0.00585345
0.00514769
0.00458844
0.00413587
0.00376334
0.00345239
0.00318983
0.00296596
0.0027736
0.00260471
0.0933822
0.0510219
0.0316642
0.0219415
0.016474
0.0130717
0.0107778
0.00913551
0.0079057
0.0069534
0.0061969
0.00558367
0.00507837
0.00465632
0.00429976
0.00399561
0.00373414
0.00350818
0.0993794
0.0583363
0.0378386
0.0268568
0.0204171
0.0163053
0.0134891
0.011453
0.00991891
0.00872629
0.00777635
0.00700497
0.00636866
0.00583685
0.0053874
0.00500397
0.00467452
0.00439126
0.104023
0.0645454
0.0433804
0.0314239
0.0241571
0.0194092
0.0161097
0.0137018
0.0118766
0.0104521
0.00931443
0.00838904
0.00762485
0.00698574
0.00644544
0.00598449
0.00558858
0.00524877
0.108368
0.0708939
0.0493756
0.0365496
0.0284517
0.0230231
0.0191863
0.0163547
0.0141926
0.0124968
0.011138
0.0100303
0.00911434
0.00834759
0.0076991
0.00714579
0.00667068
0.00626297
0.112368
0.0772557
0.0557282
0.0421918
0.0332976
0.0271652
0.0227467
0.0194432
0.0168984
0.0148903
0.0132749
0.0119544
0.0108605
0.00994378
0.00916796
0.00850586
0.00793736
0.00744915
0.115994
0.0834975
0.0623053
0.0482611
0.0386474
0.0318167
0.026789
0.0229739
0.0200046
0.0176452
0.0157378
0.0141736
0.0128749
0.011785
0.0108618
0.0100736
0.00939671
0.00881464
0.119234
0.0894856
0.0689377
0.0546109
0.0443919
0.0369007
0.0312597
0.0269088
0.0234836
0.02074
0.0185096
0.0166735
0.0151449
0.01386
0.0127704
0.0118396
0.0110397
0.0103508
0.122086
0.095084
0.075415
0.0610223
0.0503361
0.0422534
0.0360231
0.0311353
0.0272402
0.024093
0.021519
0.0193909
0.017614
0.0161174
0.0148466
0.01376
0.0128257
0.0120196
0.124546
0.100135
0.0814619
0.0671725
0.056158
0.047577
0.0408126
0.0354174
0.031066
0.0275196
0.0246012
0.0221777
0.0201481
0.0184349
0.0169782
0.0157314
0.0146583
0.0137311
0.126578
0.104396
0.0866605
0.0725515
0.0613228
0.0523526
0.0451453
0.0393148
0.0345631
0.0306611
0.0274325
0.0247409
0.0224806
0.020569
0.0189413
0.0175468
0.0163454
0.0153061
0.128011
0.107322
0.0902141
0.0762353
0.0648743
0.0556509
0.0481493
0.0420254
0.0370012
0.0328553
0.0294126
0.0265352
0.0241143
0.0220643
0.0203172
0.0188191
0.0175275
0.0164083
0.128006
0.107313
0.0902048
0.0762269
0.0648674
0.0556454
0.048145
0.0420222
0.0369988
0.0328537
0.0294117
0.0265349
0.0241147
0.0220652
0.0203185
0.0188206
0.0175287
0.0164083
0.126509
0.104255
0.0864922
0.0723807
0.0611613
0.052205
0.0450128
0.0391967
0.0344584
0.0305686
0.0273506
0.0246684
0.0224163
0.0205118
0.0188903
0.0175006
0.0163024
0.0152631
0.124267
0.0995604
0.0807712
0.0664676
0.0554886
0.0469631
0.0402594
0.0349228
0.0306248
0.0271258
0.0242488
0.0218611
0.0198626
0.0181762
0.0167426
0.0155152
0.0144575
0.0135405
0.12136
0.0936399
0.0737261
0.0593348
0.0487592
0.0408249
0.0347467
0.0300003
0.0262308
0.0231928
0.0207127
0.018665
0.0169572
0.0155198
0.0142999
0.0132567
0.0123583
0.0115798
0.117686
0.0865903
0.0656967
0.0514791
0.0415374
0.0343608
0.0290184
0.0249322
0.0217348
0.0191848
0.0171184
0.0154211
0.0140106
0.0128263
0.0118229
0.0109657
0.010228
0.00958895
0.11305
0.0784122
0.056921
0.0432687
0.0342296
0.0279652
0.0234365
0.0200435
0.0174263
0.0153597
0.0136966
0.0123369
0.0112106
0.0102671
0.00946866
0.0087872
0.00820103
0.00769347
0.107169
0.0691009
0.0476372
0.035029
0.0271566
0.021922
0.0182437
0.0155401
0.0134817
0.0118706
0.0105816
0.00953197
0.00866487
0.00793966
0.0073267
0.00680378
0.00635415
0.00596495
0.0996761
0.0587036
0.0381279
0.0270699
0.0205782
0.0164329
0.0135949
0.0115438
0.00999922
0.00879908
0.00784341
0.00706755
0.00642791
0.00589357
0.0054423
0.00505733
0.00472649
0.0044401
0.0901097
0.0473665
0.0287363
0.0196847
0.0146976
0.0116312
0.00957853
0.00811528
0.00702331
0.00617994
0.00551057
0.00496792
0.00452115
0.00414808
0.00383337
0.00356438
0.00333381
0.0031338
0.0779076
0.0353826
0.0198606
0.0131383
0.00966107
0.00759298
0.00623352
0.00527429
0.00456399
0.00401882
0.00358698
0.00323605
0.00294731
0.00270564
0.00250271
0.00232738
0.00217893
0.00204873
0.06238
0.0232554
0.0119461
0.00765493
0.00556337
0.00435256
0.00356724
0.00301639
0.00261307
0.00230792
0.00206663
0.00186697
0.00170276
0.00156308
0.001449
0.00134497
0.00126094
0.00118318
0.0426105
0.0117794
0.0054693
0.00341385
0.00246071
0.00192005
0.00157275
0.00132885
0.00115943
0.00103843
0.000944192
0.000857062
0.000786435
0.00071784
0.000672808
0.000620637
0.000577955
0.000531314
0.0168348
0.00255985
0.00110002
0.000683428
0.000493724
0.000386803
0.000318219
0.000266306
0.000272635
0.000321836
0.000355141
0.000335067
0.000307992
0.000243786
0.000288124
0.000270514
0.000216282
0.000140683
3.99384e-09
5.91142e-07
2.00084e-06
6.28924e-06
1.08024e-05
1.35316e-05
1.32568e-05
1.17919e-05
9.06398e-06
5.94805e-06
3.5241e-06
2.02508e-06
1.41002e-06
1.50303e-06
2.06716e-06
2.56607e-06
2.4545e-06
2.06916e-06
2.54282e-06
8.67664e-06
9.02512e-06
5.55422e-06
6.75167e-06
2.65118e-05
5.67521e-05
7.44253e-05
9.09789e-05
0.000104827
0.000117047
0.000127208
0.000136112
0.000143759
0.000150449
0.000156276
0.000161358
0.000165844
0.000169818
0.000173369
0.000176551
0.00017941
0.000181975
0.000184268
0.000186308
0.000188111
0.000189692
0.000191063
0.000192235
0.000193215
0.000194004
0.000194476
0.000194974
0.000195082
0.000195144
0.000195019
0.00019472
0.000194275
0.000193676
0.000192929
0.000192035
0.000190997
0.000189816
0.000188494
0.000187034
0.000185438
0.00018371
0.00018185
0.00017986
0.000177741
0.000175498
0.000173131
0.000170643
0.000168036
0.000165311
0.00016247
0.000159513
0.000156443
0.00015326
0.000149965
0.000146557
0.000143036
0.000139399
0.000135644
0.000131766
0.000127758
0.000123611
0.000119315
0.000114858
0.000110226
0.000105398
0.000100347
9.50452e-05
8.94697e-05
8.36152e-05
7.75445e-05
7.15333e-05
6.62514e-05
6.24917e-05
6.01498e-05
5.83972e-05
5.67913e-05
5.52151e-05
5.36467e-05
5.20846e-05
5.05302e-05
4.89855e-05
4.74526e-05
4.59341e-05
4.44362e-05
4.2987e-05
4.175e-05
4.05459e-05
3.93562e-05
3.81837e-05
3.70291e-05
3.58932e-05
3.4777e-05
3.3681e-05
3.26062e-05
3.15531e-05
3.05221e-05
2.95135e-05
2.8528e-05
2.7566e-05
2.6628e-05
2.5714e-05
2.4824e-05
2.3959e-05
2.31469e-05
2.24127e-05
2.1697e-05
2.09964e-05
2.0319e-05
1.96697e-05
1.90347e-05
1.84136e-05
1.78097e-05
1.72237e-05
1.6656e-05
1.61063e-05
1.55743e-05
1.50595e-05
1.45615e-05
1.40799e-05
1.36143e-05
1.31643e-05
1.27294e-05
1.23092e-05
1.19035e-05
1.15117e-05
1.11336e-05
1.07687e-05
1.04167e-05
1.00772e-05
9.75003e-06
9.43476e-06
9.13112e-06
8.83885e-06
8.55768e-06
8.28741e-06
8.02781e-06
7.77869e-06
7.53988e-06
7.3112e-06
7.09246e-06
6.88347e-06
6.68398e-06
6.49364e-06
6.31205e-06
6.13866e-06
5.9727e-06
5.81339e-06
5.65913e-06
5.50949e-06
5.35951e-06
5.21377e-06
5.04773e-06
4.89376e-06
4.64739e-06
4.48923e-06
3.59419e-06
1.68175e-07
6.14242e-06
6.38823e-05
0.000139686
0.00018324
0.000207005
0.000216379
0.000214886
0.000206541
0.000189838
0.000169046
0.000148911
0.000138499
0.000143713
0.000157682
0.000166604
0.000169022
0.000170206
0.000175609
0.000185311
0.000200066
0.000217505
0.000234339
0.000250842
0.000262142
0.000272046
0.000280861
0.000293707
0.000312803
0.000326749
0.000339493
0.000350417
0.000360346
0.000369445
0.000377345
0.000384558
0.000391273
0.000397715
0.000404014
0.000410238
0.00041638
0.000422398
0.00042824
0.000433865
0.000439244
0.000444361
0.000449201
0.000453751
0.000458014
0.000461988
0.000465713
0.000469154
0.000472352
0.000475293
0.000477985
0.000480426
0.00048262
0.000484565
0.000486263
0.000487713
0.000488917
0.000489876
0.000490592
0.000491069
0.000491317
0.000491342
0.000491138
0.000490701
0.000490048
0.000489182
0.000488109
0.000486836
0.00048537
0.000483717
0.000481884
0.000479878
0.000477708
0.000475381
0.000472904
0.000470285
0.000467533
0.000464655
0.000461659
0.000458554
0.000455347
0.000452045
0.000448658
0.000445194
0.00044166
0.000438065
0.000434413
0.00043071
0.000426959
0.000423149
0.000419262
0.000415273
0.000411164
0.000406963
0.000402723
0.000398466
0.000394201
0.000389932
0.000385662
0.000381394
0.000377133
0.000372881
0.000368641
0.000364416
0.000360206
0.000356007
0.000351831
0.000347683
0.000343564
0.000339477
0.000335422
0.000331401
0.000327417
0.000323471
0.000319563
0.000315695
0.000311868
0.000308083
0.000304341
0.000300643
0.00029699
0.000293382
0.000289818
0.000286297
0.000282817
0.000279383
0.000275992
0.000272652
0.000269366
0.000266115
0.000262901
0.000259728
0.000256598
0.000253514
0.000250475
0.00024748
0.00024453
0.000241623
0.000238759
0.000235938
0.000233158
0.000230419
0.000227722
0.000225064
0.000222446
0.000219868
0.000217329
0.000214828
0.000212367
0.000209943
0.000207559
0.000205213
0.000202907
0.00020064
0.000198415
0.000196231
0.00019409
0.000191994
0.000189944
0.000187943
0.000185992
0.000184092
0.000182245
0.000180451
0.000178709
0.000177018
0.000175373
0.000173773
0.000172195
0.000170681
0.000169071
0.000167748
0.000165616
0.0001649
0.000162093
0.00016072
7.68599e-07
4.45416e-05
0.000164289
0.000246523
0.000299858
0.000330179
0.000341218
0.00033835
0.000325517
0.000306243
0.000286468
0.000273746
0.000271486
0.000278166
0.000288523
0.000299353
0.000312116
0.00032907
0.00035067
0.000375832
0.000403222
0.000431578
0.000469794
0.000516181
0.000561836
0.000605992
0.000649095
0.000692769
0.000732109
0.000763399
0.000788408
0.000808233
0.000823949
0.000836417
0.000846422
0.000854738
0.000862068
0.000869055
0.000876236
0.000883967
0.000892355
0.000901279
0.000910497
0.000919774
0.000928931
0.00093785
0.000946454
0.000954696
0.000962538
0.000969954
0.000976919
0.000983405
0.00098941
0.000994925
0.00099995
0.00100448
0.00100852
0.00101207
0.00101513
0.00101769
0.00101976
0.00102133
0.00102242
0.00102296
0.00102312
0.00102284
0.00102204
0.0010208
0.00101911
0.00101699
0.00101446
0.00101151
0.00100818
0.00100446
0.00100038
0.000995947
0.00099118
0.000986092
0.000980698
0.000975014
0.000969054
0.000962833
0.000956367
0.000949672
0.000942761
0.00093565
0.000928354
0.000920886
0.000913261
0.000905492
0.00089759
0.000889566
0.000881431
0.000873193
0.000864858
0.000856438
0.000847945
0.000839394
0.000830802
0.000822182
0.000813545
0.0008049
0.000796254
0.000787616
0.000778993
0.000770391
0.000761817
0.000753278
0.000744777
0.000736323
0.000727918
0.00071957
0.000711283
0.000703061
0.000694907
0.000686824
0.000678817
0.000670888
0.000663039
0.000655272
0.000647591
0.000639995
0.000632489
0.000625073
0.000617748
0.000610515
0.000603375
0.000596327
0.000589374
0.000582514
0.000575749
0.000569079
0.000562502
0.000556013
0.00054961
0.000543296
0.000537073
0.000530941
0.000524901
0.000518952
0.000513093
0.000507323
0.000501641
0.000496046
0.000490537
0.000485112
0.000479772
0.000474514
0.000469337
0.00046424
0.000459222
0.000454283
0.00044942
0.000444633
0.000439921
0.000435283
0.000430717
0.000426222
0.000421797
0.000417442
0.000413153
0.000408931
0.000404772
0.000400675
0.000396638
0.000392656
0.000388726
0.000384843
0.000380999
0.000377187
0.000373394
0.000369605
0.000365797
0.00036195
0.000357991
0.00035395
0.000349468
0.000345075
0.000338585
0.000327126
5.07083e-07
8.12897e-05
0.000212971
0.000309206
0.00037299
0.000410402
0.000425976
0.000426367
0.000416355
0.000402952
0.000394796
0.000393959
0.000403186
0.000420398
0.000443153
0.000470908
0.000504262
0.000543572
0.00058803
0.000650268
0.000724133
0.000803925
0.000888188
0.000958849
0.00102128
0.0010774
0.00112782
0.00117272
0.00121199
0.00124587
0.00127512
0.00130045
0.00132257
0.00134211
0.00135965
0.00137567
0.0013906
0.00140476
0.00141842
0.00143177
0.00144494
0.00145799
0.00147095
0.00148381
0.0014965
0.00150896
0.00152109
0.0015328
0.00154399
0.00155459
0.00156454
0.00157382
0.00158239
0.00159025
0.00159739
0.0016038
0.00160947
0.00161441
0.00161861
0.00162207
0.00162479
0.00162677
0.00162793
0.00162837
0.00162824
0.00162733
0.0016257
0.00162338
0.00162038
0.00161673
0.00161243
0.00160751
0.00160199
0.00159589
0.00158923
0.00158204
0.00157433
0.00156613
0.00155747
0.00154836
0.00153883
0.0015289
0.0015186
0.00150794
0.00149696
0.00148567
0.0014741
0.00146226
0.00145018
0.00143788
0.00142538
0.0014127
0.00139985
0.00138685
0.00137372
0.00136047
0.00134712
0.00133369
0.0013202
0.00130667
0.00129311
0.00127953
0.00126596
0.0012524
0.00123886
0.00122536
0.0012119
0.0011985
0.00118516
0.00117189
0.0011587
0.0011456
0.0011326
0.00111969
0.00110689
0.0010942
0.00108163
0.00106918
0.00105686
0.00104466
0.00103259
0.00102066
0.00100887
0.000997215
0.000985702
0.000974332
0.000963105
0.000952022
0.000941085
0.000930294
0.00091965
0.000909151
0.000898795
0.000888579
0.000878501
0.000868563
0.000858765
0.000849109
0.000839593
0.000830217
0.00082098
0.000811881
0.000802918
0.00079409
0.000785395
0.00077683
0.000768395
0.000760088
0.000751906
0.000743848
0.000735913
0.000728097
0.000720401
0.000712821
0.000705356
0.000698004
0.000690764
0.000683632
0.000676608
0.000669688
0.000662872
0.000656155
0.000649535
0.000643009
0.000636572
0.000630219
0.000623945
0.000617742
0.000611599
0.000605506
0.000599445
0.000593396
0.000587328
0.000581205
0.000574962
0.000568543
0.000561766
0.000554574
0.000546332
0.000530142
1.49344e-06
0.000102059
0.000235124
0.000355061
0.000433977
0.000481486
0.000505124
0.000513593
0.000515168
0.000516156
0.000523035
0.000539198
0.000565256
0.000600243
0.000643371
0.000694655
0.000754741
0.000838162
0.000933836
0.00103005
0.00111906
0.00120346
0.00128281
0.00135551
0.00142227
0.00148368
0.00154014
0.001592
0.0016396
0.00168337
0.0017238
0.00176136
0.0017965
0.00182958
0.00186091
0.00189076
0.0019193
0.00194669
0.00197301
0.00199834
0.0020227
0.00204611
0.00206855
0.00209002
0.00211049
0.00212992
0.00214829
0.00216556
0.00218172
0.00219674
0.00221062
0.00222334
0.00223494
0.00224541
0.00225478
0.00226306
0.00227028
0.00227644
0.00228157
0.00228567
0.00228877
0.00229082
0.00229174
0.00229183
0.00229095
0.00228907
0.00228624
0.00228247
0.00227778
0.0022722
0.00226575
0.00225847
0.00225037
0.00224149
0.00223186
0.0022215
0.00221046
0.00219876
0.00218643
0.0021735
0.00216
0.00214597
0.00213143
0.00211642
0.00210097
0.00208511
0.00206886
0.00205227
0.00203535
0.00201813
0.00200065
0.00198292
0.00196498
0.00194684
0.00192854
0.00191008
0.0018915
0.00187282
0.00185406
0.00183525
0.00181641
0.00179755
0.00177869
0.00175985
0.00174105
0.0017223
0.00170361
0.001685
0.00166648
0.00164806
0.00162975
0.00161156
0.0015935
0.00157558
0.00155781
0.00154019
0.00152273
0.00150544
0.00148832
0.00147137
0.00145461
0.00143803
0.00142164
0.00140544
0.00138944
0.00137362
0.00135801
0.00134259
0.00132737
0.00131235
0.00129754
0.00128292
0.00126849
0.00125426
0.00124022
0.00122637
0.00121272
0.00119926
0.00118599
0.00117291
0.00116002
0.00114731
0.0011348
0.00112246
0.00111031
0.00109833
0.00108653
0.00107491
0.00106345
0.00105217
0.00104105
0.00103009
0.00101929
0.00100866
0.000998173
0.000987844
0.000977665
0.000967634
0.000957747
0.000948002
0.000938396
0.000928925
0.000919584
0.000910371
0.000901279
0.000892302
0.000883432
0.000874662
0.000865978
0.000857366
0.000848808
0.000840277
0.000831741
0.000823155
0.000814452
0.000805562
0.000796318
0.000786575
0.000776606
0.000756786
2.27169e-06
0.000118202
0.00025637
0.000390153
0.000487242
0.000549161
0.000587025
0.00061049
0.000628249
0.000647574
0.000673718
0.000709332
0.00075515
0.000811446
0.000878624
0.000969128
0.00107426
0.00117598
0.00127521
0.00137071
0.00146141
0.00154741
0.00162865
0.00170511
0.00177707
0.00184489
0.00190891
0.00196946
0.00202687
0.00208148
0.0021336
0.00218353
0.00223151
0.00227776
0.00232242
0.00236564
0.00240749
0.00244802
0.00248728
0.00252527
0.00256198
0.0025974
0.00263149
0.00266422
0.00269556
0.00272547
0.00275389
0.0027808
0.00280616
0.00282993
0.00285209
0.00287261
0.00289147
0.00290868
0.00292421
0.00293808
0.00295028
0.00296082
0.00296971
0.00297698
0.00298263
0.00298671
0.00298914
0.00299004
0.00298958
0.00298761
0.00298426
0.00297956
0.00297356
0.00296631
0.00295786
0.00294827
0.00293758
0.00292585
0.00291313
0.00289947
0.00288491
0.00286949
0.00285327
0.00283628
0.00281857
0.00280017
0.00278114
0.00276151
0.00274132
0.00272061
0.00269942
0.00267779
0.00265576
0.00263336
0.00261063
0.0025876
0.00256431
0.00254078
0.00251704
0.00249313
0.00246908
0.00244491
0.00242064
0.00239632
0.00237196
0.00234759
0.00232322
0.00229889
0.0022746
0.00225038
0.00222625
0.00220222
0.00217831
0.00215452
0.00213089
0.0021074
0.00208409
0.00206096
0.00203801
0.00201526
0.00199272
0.00197039
0.00194828
0.0019264
0.00190475
0.00188333
0.00186215
0.00184122
0.00182053
0.00180009
0.0017799
0.00175996
0.00174027
0.00172083
0.00170165
0.00168272
0.00166404
0.00164561
0.00162742
0.00160948
0.00159178
0.00157432
0.00155711
0.00154014
0.0015234
0.00150691
0.00149064
0.00147461
0.00145881
0.00144323
0.00142787
0.00141274
0.00139781
0.0013831
0.0013686
0.00135431
0.00134021
0.00132632
0.00131262
0.00129912
0.0012858
0.00127267
0.00125972
0.00124695
0.00123435
0.00122192
0.00120966
0.00119756
0.00118561
0.00117381
0.00116215
0.00115062
0.0011392
0.00112788
0.00111664
0.00110545
0.00109428
0.00108307
0.00107176
0.00106029
0.00104847
0.00103626
0.00102408
0.0010016
2.80555e-06
0.000126821
0.00026928
0.000407728
0.000526502
0.000608038
0.000664244
0.000706254
0.000743313
0.000782685
0.000829429
0.000886493
0.000955502
0.00104783
0.00115483
0.00126144
0.00136755
0.00147092
0.00157099
0.00166735
0.00175975
0.00184818
0.00193275
0.00201361
0.002091
0.00216519
0.00223647
0.0023051
0.00237134
0.00243541
0.00249754
0.00255789
0.00261663
0.00267386
0.00272966
0.00278411
0.00283723
0.00288903
0.0029395
0.00298864
0.00303641
0.00308277
0.00312768
0.00317109
0.00321295
0.0032532
0.00329179
0.00332867
0.0033638
0.00339711
0.00342858
0.00345816
0.00348581
0.00351152
0.00353524
0.00355696
0.00357667
0.00359435
0.00361001
0.00362363
0.00363523
0.00364481
0.00365239
0.00365801
0.00366166
0.00366328
0.00366319
0.0036612
0.00365743
0.00365191
0.0036447
0.00363586
0.00362544
0.00361351
0.00360013
0.00358536
0.00356927
0.00355193
0.0035334
0.00351375
0.00349305
0.00347136
0.00344876
0.0034253
0.00340105
0.00337607
0.00335043
0.00332417
0.00329737
0.00327006
0.00324231
0.00321416
0.00318565
0.00315683
0.00312775
0.00309844
0.00306894
0.00303929
0.00300953
0.00297968
0.00294978
0.00291986
0.00288994
0.00286006
0.00283024
0.00280049
0.00277085
0.00274133
0.00271195
0.00268273
0.00265369
0.00262483
0.00259618
0.00256775
0.00253954
0.00251157
0.00248385
0.00245639
0.00242919
0.00240227
0.00237563
0.00234927
0.0023232
0.00229742
0.00227194
0.00224675
0.00222187
0.00219729
0.00217302
0.00214905
0.00212538
0.00210202
0.00207896
0.0020562
0.00203373
0.00201156
0.00198968
0.0019681
0.00194681
0.00192581
0.00190509
0.00188466
0.00186451
0.00184464
0.00182504
0.00180571
0.00178665
0.00176785
0.00174931
0.00173102
0.00171299
0.0016952
0.00167766
0.00166035
0.00164328
0.00162644
0.00160983
0.00159345
0.00157728
0.00156132
0.00154558
0.00153004
0.0015147
0.00149956
0.00148461
0.00146983
0.00145523
0.00144078
0.00142648
0.00141231
0.00139825
0.00138427
0.00137032
0.00135637
0.00134235
0.00132818
0.0013137
0.00129894
0.00128393
0.00125968
2.94243e-06
0.000128735
0.000270669
0.000407307
0.000538108
0.000641778
0.000719042
0.000780496
0.000836301
0.000894159
0.000961767
0.00105373
0.00116337
0.0012851
0.00140069
0.00151196
0.00161979
0.00172437
0.00182562
0.0019235
0.00201799
0.0021092
0.00219725
0.00228235
0.0023647
0.00244454
0.00252208
0.00259753
0.0026711
0.00274294
0.0028132
0.002882
0.00294943
0.00301556
0.00308042
0.00314403
0.00320641
0.00326752
0.00332734
0.00338584
0.00344296
0.00349865
0.00355286
0.00360551
0.00365654
0.00370589
0.00375349
0.00379929
0.00384321
0.0038852
0.0039252
0.00396317
0.00399905
0.00403281
0.0040644
0.0040938
0.00412098
0.00414591
0.00416858
0.00418898
0.00420711
0.00422296
0.00423654
0.00424787
0.00425696
0.00426383
0.00426855
0.004271
0.00427144
0.00426979
0.00426612
0.00426048
0.00425291
0.00424348
0.00423225
0.00421928
0.00420463
0.00418837
0.00417058
0.00415131
0.00413065
0.00410865
0.00408541
0.00406098
0.00403544
0.00400886
0.00398132
0.00395287
0.0039236
0.00389357
0.00386284
0.00383148
0.00379955
0.00376711
0.00373421
0.00370091
0.00366727
0.00363333
0.00359915
0.00356478
0.00353025
0.00349561
0.00346091
0.00342617
0.00339144
0.00335674
0.00332211
0.00328757
0.00325315
0.00321888
0.00318478
0.00315086
0.00311716
0.00308368
0.00305044
0.00301746
0.00298475
0.00295232
0.00292019
0.00288835
0.00285683
0.00282563
0.00279475
0.0027642
0.00273399
0.00270412
0.00267459
0.0026454
0.00261657
0.00258808
0.00255993
0.00253214
0.00250469
0.00247758
0.00245082
0.0024244
0.00239832
0.00237258
0.00234717
0.00232209
0.00229735
0.00227294
0.00224885
0.00222508
0.00220162
0.00217848
0.00215565
0.00213313
0.0021109
0.00208897
0.00206733
0.00204598
0.00202491
0.00200412
0.00198361
0.00196336
0.00194338
0.00192367
0.0019042
0.00188499
0.00186603
0.00184731
0.00182882
0.00181056
0.00179253
0.00177471
0.00175709
0.00173966
0.00172242
0.00170533
0.00168837
0.00167152
0.00165474
0.00163798
0.00162117
0.00160424
0.00158704
0.00156964
0.00155171
0.00152557
2.75938e-06
0.000125268
0.000264043
0.000395768
0.00052054
0.000633072
0.00072706
0.000808267
0.000891333
0.000986683
0.00109593
0.00122064
0.00135704
0.00148457
0.00160487
0.0017199
0.00183062
0.00193739
0.00204054
0.00214042
0.00223724
0.00233122
0.00242253
0.0025114
0.00259802
0.00268259
0.00276532
0.00284637
0.00292589
0.00300402
0.00308086
0.00315649
0.00323096
0.00330432
0.00337657
0.0034477
0.0035177
0.00358652
0.00365413
0.00372046
0.00378544
0.00384901
0.0039111
0.00397162
0.0040305
0.00408766
0.00414302
0.00419651
0.00424806
0.00429759
0.00434505
0.00439037
0.00443349
0.00447436
0.00451294
0.00454918
0.00458306
0.00461454
0.00464361
0.00467023
0.00469441
0.00471614
0.00473541
0.00475225
0.00476665
0.00477864
0.00478824
0.00479548
0.00480041
0.00480298
0.00480336
0.00480155
0.00479758
0.00479152
0.00478342
0.00477334
0.00476134
0.00474748
0.00473184
0.00471448
0.00469548
0.00467489
0.0046528
0.00462927
0.00460439
0.00457821
0.00455083
0.0045223
0.00449271
0.00446211
0.00443059
0.0043982
0.00436502
0.00433112
0.00429655
0.00426138
0.00422567
0.00418948
0.00415287
0.0041159
0.00407861
0.00404107
0.00400331
0.00396539
0.00392735
0.00388923
0.00385106
0.0038129
0.00377477
0.0037367
0.00369874
0.00366089
0.0036232
0.00358569
0.00354837
0.00351127
0.00347442
0.00343782
0.0034015
0.00336546
0.00332973
0.00329431
0.00325921
0.00322445
0.00319002
0.00315595
0.00312223
0.00308887
0.00305588
0.00302325
0.00299099
0.0029591
0.00292759
0.00289644
0.00286566
0.00283526
0.00280522
0.00277556
0.00274626
0.00271732
0.00268875
0.00266054
0.00263268
0.00260518
0.00257804
0.00255124
0.00252478
0.00249866
0.00247288
0.00244742
0.0024223
0.00239749
0.002373
0.00234883
0.00232497
0.00230141
0.00227814
0.00225518
0.0022325
0.00221011
0.002188
0.00216617
0.0021446
0.0021233
0.00210225
0.00208144
0.00206087
0.00204053
0.00202039
0.00200043
0.00198064
0.00196098
0.00194142
0.00192189
0.00190234
0.00188268
0.0018628
0.00184273
0.00182199
0.00179366
2.34434e-06
0.000117989
0.000252847
0.000380973
0.000503945
0.00062048
0.000731375
0.00084049
0.000955423
0.00108133
0.00121945
0.00136924
0.00151155
0.00164354
0.00176781
0.00188624
0.00199997
0.00210962
0.00221558
0.00231807
0.00241747
0.00251418
0.00260849
0.00270065
0.00279089
0.00287941
0.00296641
0.00305202
0.0031364
0.00321964
0.00330183
0.00338303
0.00346327
0.00354257
0.00362091
0.00369828
0.00377462
0.0038499
0.00392404
0.00399698
0.00406862
0.00413889
0.0042077
0.00427495
0.00434056
0.00440444
0.00446649
0.00452663
0.00458479
0.00464086
0.0046948
0.00474652
0.00479595
0.00484305
0.00488776
0.00493002
0.00496981
0.00500709
0.00504182
0.00507399
0.00510359
0.00513059
0.00515502
0.00517685
0.00519611
0.00521282
0.00522699
0.00523864
0.00524781
0.00525453
0.00525885
0.00526079
0.00526045
0.00525784
0.00525302
0.00524606
0.005237
0.00522593
0.00521288
0.00519795
0.00518119
0.00516267
0.00514246
0.00512064
0.00509728
0.00507246
0.00504623
0.00501869
0.00498989
0.00495992
0.00492883
0.00489671
0.00486361
0.00482962
0.00479478
0.00475918
0.00472287
0.00468592
0.00464838
0.00461033
0.00457181
0.00453288
0.00449359
0.00445401
0.00441417
0.00437412
0.00433391
0.00429359
0.00425318
0.00421273
0.00417229
0.00413187
0.00409152
0.00405126
0.00401112
0.00397114
0.00393132
0.00389171
0.00385231
0.00381316
0.00377426
0.00373563
0.00369729
0.00365925
0.00362153
0.00358413
0.00354706
0.00351034
0.00347397
0.00343795
0.0034023
0.00336701
0.00333209
0.00329755
0.00326338
0.00322958
0.00319616
0.00316312
0.00313046
0.00309817
0.00306626
0.00303473
0.00300356
0.00297277
0.00294235
0.0029123
0.0028826
0.00285327
0.00282429
0.00279567
0.0027674
0.00273947
0.00271188
0.00268463
0.00265771
0.00263112
0.00260486
0.00257892
0.00255329
0.00252797
0.00250297
0.00247826
0.00245385
0.00242972
0.00240588
0.00238231
0.002359
0.00233594
0.00231311
0.00229049
0.00226805
0.00224577
0.00222361
0.0022015
0.00217938
0.00215719
0.00213478
0.00211221
0.00208891
0.00205825
1.92686e-06
0.000110307
0.000242562
0.000369907
0.000495648
0.000620081
0.000745009
0.000874504
0.00101188
0.00115921
0.00131664
0.00147845
0.00162626
0.00176272
0.00189082
0.00201259
0.00212928
0.00224173
0.00235046
0.00245587
0.00255826
0.00265782
0.002755
0.00285013
0.00294352
0.0030354
0.00312595
0.00321536
0.00330374
0.00339121
0.00347782
0.00356363
0.00364866
0.00373291
0.00381636
0.00389896
0.00398066
0.0040614
0.0041411
0.00421966
0.004297
0.00437301
0.00444759
0.00452065
0.00459207
0.00466176
0.00472961
0.00479554
0.00485944
0.00492123
0.00498082
0.00503815
0.00509312
0.00514569
0.00519579
0.00524337
0.00528839
0.0053308
0.00537058
0.00540769
0.00544213
0.00547388
0.00550293
0.00552929
0.00555296
0.00557397
0.00559232
0.00560804
0.00562116
0.00563172
0.00563975
0.00564529
0.0056484
0.00564912
0.00564752
0.00564364
0.00563755
0.0056293
0.00561896
0.0056066
0.00559227
0.00557606
0.00555803
0.00553825
0.00551679
0.00549373
0.00546914
0.00544309
0.00541565
0.0053869
0.00535691
0.00532573
0.00529346
0.00526014
0.00522585
0.00519066
0.00515463
0.00511782
0.0050803
0.00504213
0.00500337
0.00496408
0.00492431
0.00488411
0.00484355
0.00480266
0.00476149
0.0047201
0.00467852
0.00463681
0.00459499
0.0045531
0.00451119
0.00446928
0.00442742
0.00438562
0.00434392
0.00430234
0.00426092
0.00421966
0.00417861
0.00413777
0.00409716
0.0040568
0.00401672
0.00397691
0.0039374
0.00389819
0.0038593
0.00382074
0.00378252
0.00374463
0.0037071
0.00366991
0.00363309
0.00359662
0.00356053
0.00352479
0.00348943
0.00345444
0.00341982
0.00338558
0.0033517
0.0033182
0.00328507
0.00325231
0.00321991
0.00318788
0.00315622
0.00312491
0.00309397
0.00306338
0.00303314
0.00300325
0.00297371
0.0029445
0.00291564
0.00288712
0.00285892
0.00283105
0.00280351
0.00277629
0.00274937
0.00272277
0.00269646
0.00267045
0.00264471
0.00261924
0.00259403
0.00256904
0.00254426
0.00251965
0.00249517
0.00247077
0.00244638
0.00242193
0.00239731
0.00237251
0.002347
0.00231419
1.54344e-06
0.000102167
0.000232071
0.000359053
0.00048772
0.000618989
0.000755523
0.000899238
0.00105186
0.00121393
0.00138595
0.00155193
0.00170373
0.00184404
0.00197566
0.00210054
0.00222004
0.00233509
0.00244636
0.00255435
0.00265942
0.0027619
0.00286204
0.00296005
0.00305633
0.00315119
0.00324486
0.00333753
0.00342933
0.00352038
0.00361075
0.00370047
0.00378957
0.00387804
0.00396583
0.00405291
0.0041392
0.00422462
0.00430909
0.0043925
0.00447475
0.00455572
0.00463531
0.0047134
0.00478987
0.00486461
0.00493752
0.00500849
0.00507742
0.00514421
0.00520877
0.00527101
0.00533087
0.00538826
0.00544313
0.00549542
0.00554507
0.00559206
0.00563633
0.00567788
0.00571666
0.00575268
0.00578592
0.00581638
0.00584407
0.00586901
0.0058912
0.00591068
0.00592747
0.00594161
0.00595312
0.00596206
0.00596847
0.00597239
0.00597388
0.00597301
0.00596984
0.00596441
0.00595679
0.00594704
0.00593523
0.00592143
0.00590571
0.00588813
0.00586878
0.00584772
0.00582502
0.00580077
0.00577502
0.00574785
0.00571933
0.00568953
0.00565851
0.00562635
0.00559311
0.00555886
0.00552367
0.00548759
0.0054507
0.00541305
0.00537471
0.00533573
0.00529618
0.00525609
0.00521554
0.00517456
0.00513321
0.00509154
0.00504959
0.0050074
0.00496503
0.0049225
0.00487986
0.00483714
0.00479438
0.00475161
0.00470887
0.00466617
0.00462356
0.00458105
0.00453867
0.00449645
0.0044544
0.00441254
0.0043709
0.00432949
0.00428832
0.00424741
0.00420678
0.00416644