/*--------------------------------*- C++ -*----------------------------------*\
  =========                 |
  \\      /  F ield         | OpenFOAM: The Open Source CFD Toolbox
   \\    /   O peration     | Website:  https://openfoam.org
    \\  /    A nd           | Version:  8
     \\/     M anipulation  |
\*---------------------------------------------------------------------------*/
FoamFile
{
    version     2.0;
    format      ascii;
    class       surfaceScalarField;
    location    "4900";
    object      phi;
}
// * * * * * * * * * * * * * * * * * * * * * * * * * * * * * * * * * * * * * //

dimensions      [0 3 -1 0 0 0 0];

internalField   nonuniform List<scalar> 
24170
(
3.92539e-06
-7.91498e-07
3.76465e-06
1.6075e-07
3.63345e-06
1.31209e-07
3.43331e-06
2.00144e-07
3.28028e-06
1.53027e-07
3.18901e-06
9.11912e-08
3.13091e-06
5.81114e-08
3.08609e-06
4.58927e-08
3.04612e-06
4.23255e-08
3.01059e-06
3.8165e-08
2.97875e-06
3.38046e-08
2.94904e-06
3.07722e-08
2.92187e-06
2.73794e-08
2.89642e-06
2.52013e-08
2.87227e-06
2.36063e-08
2.85194e-06
1.9484e-08
2.84097e-06
9.85831e-09
-6.38906e-09
2.84669e-06
3.58445e-06
-9.19499e-07
3.80424e-06
-5.9041e-08
3.74282e-06
1.92629e-07
3.6906e-06
2.52375e-07
3.63729e-06
2.06333e-07
3.59023e-06
1.38281e-07
3.55289e-06
9.5601e-08
3.52309e-06
7.56616e-08
3.49853e-06
6.65722e-08
3.47732e-06
5.92182e-08
3.45871e-06
5.25326e-08
3.44253e-06
4.72678e-08
3.42795e-06
4.23408e-08
3.41466e-06
3.8789e-08
3.40269e-06
3.57325e-08
3.39122e-06
3.10535e-08
3.38037e-06
2.0843e-08
4.77515e-09
3.36943e-06
3.68518e-06
-7.92482e-07
3.83639e-06
-2.1025e-07
3.91494e-06
1.14083e-07
3.94502e-06
2.22294e-07
3.94408e-06
2.07265e-07
3.92749e-06
1.54898e-07
3.90755e-06
1.15616e-07
3.88932e-06
9.36467e-08
3.874e-06
8.11994e-08
3.86056e-06
7.19193e-08
3.84834e-06
6.42598e-08
3.83728e-06
5.81391e-08
3.82692e-06
5.27827e-08
3.8174e-06
4.84784e-08
3.80891e-06
4.44365e-08
3.80098e-06
3.92555e-08
3.79196e-06
3.02088e-08
1.77947e-08
3.77944e-06
4.05359e-06
-6.4151e-07
4.1146e-06
-2.71259e-07
4.20799e-06
2.06922e-08
4.26635e-06
1.63933e-07
4.29069e-06
1.82927e-07
4.29287e-06
1.5275e-07
4.28571e-06
1.22821e-07
4.27631e-06
1.02846e-07
4.26727e-06
8.96893e-08
4.25873e-06
7.98212e-08
4.25056e-06
7.19536e-08
4.24283e-06
6.56388e-08
4.23535e-06
6.02503e-08
4.22824e-06
5.56969e-08
4.22149e-06
5.13558e-08
4.21464e-06
4.63481e-08
4.20599e-06
3.91857e-08
3.06595e-08
4.19351e-06
4.50491e-06
-5.09114e-07
4.51536e-06
-2.81708e-07
4.58529e-06
-4.92335e-08
4.64665e-06
1.02567e-07
4.68258e-06
1.46994e-07
4.69688e-06
1.38475e-07
4.69946e-06
1.20239e-07
4.69723e-06
1.04928e-07
4.69331e-06
9.32583e-08
4.68868e-06
8.40611e-08
4.68367e-06
7.6646e-08
4.67851e-06
7.06123e-08
4.67321e-06
6.54986e-08
4.66783e-06
6.11098e-08
4.66227e-06
5.70087e-08
4.65606e-06
5.27064e-08
4.64786e-06
4.75934e-08
4.26063e-08
4.63612e-06
5.00014e-06
-3.94663e-07
4.98614e-06
-2.67704e-07
5.03069e-06
-9.37783e-08
5.08506e-06
4.8199e-08
5.12454e-06
1.07518e-07
5.14608e-06
1.16942e-07
5.15584e-06
1.10491e-07
5.1594e-06
1.01288e-07
5.15985e-06
9.26111e-08
5.15859e-06
8.50874e-08
5.15629e-06
7.87471e-08
5.15333e-06
7.34469e-08
5.14984e-06
6.8938e-08
5.14589e-06
6.50678e-08
5.14136e-06
6.15907e-08
5.13584e-06
5.8313e-08
5.12839e-06
5.51515e-08
5.30536e-08
5.11808e-06
5.54382e-06
-2.97475e-07
5.51664e-06
-2.40529e-07
5.54055e-06
-1.17685e-07
5.58388e-06
4.8714e-09
5.62166e-06
6.97358e-08
5.64656e-06
9.2048e-08
5.66107e-06
9.59707e-08
5.66906e-06
9.32499e-08
5.67315e-06
8.84276e-08
5.67482e-06
8.33048e-08
5.67491e-06
7.85558e-08
5.6739e-06
7.43798e-08
5.67204e-06
7.077e-08
5.6694e-06
6.77001e-08
5.66591e-06
6.51038e-08
5.66127e-06
6.29919e-08
5.65494e-06
6.15506e-08
6.15353e-08
5.6465e-06
4.34788e-06
-2.39242e-07
4.32251e-06
-2.15162e-07
4.33078e-06
-1.2595e-07
4.35419e-06
-1.85352e-08
4.3784e-06
4.55274e-08
4.39646e-06
7.39868e-08
4.40841e-06
8.40251e-08
4.41597e-06
8.56765e-08
4.42059e-06
8.3771e-08
4.42325e-06
8.06013e-08
4.42456e-06
7.72005e-08
4.4249e-06
7.40069e-08
4.42447e-06
7.11843e-08
4.42335e-06
6.88145e-08
4.42151e-06
6.6941e-08
4.41885e-06
6.56748e-08
4.41514e-06
6.52725e-08
6.63524e-08
4.41035e-06
5.08621e-06
-1.85599e-07
5.05777e-06
-1.86717e-07
5.0584e-06
-1.26577e-07
5.07686e-06
-3.70012e-08
5.09918e-06
2.32155e-08
5.11773e-06
5.54381e-08
5.13124e-06
7.05094e-08
5.14059e-06
7.63195e-08
5.14686e-06
7.74788e-08
5.15094e-06
7.65007e-08
5.15345e-06
7.46801e-08
5.15477e-06
7.26703e-08
5.15514e-06
7.08009e-08
5.15468e-06
6.92683e-08
5.15341e-06
6.82141e-08
5.15128e-06
6.78172e-08
5.14821e-06
6.83542e-08
7.02757e-08
5.14429e-06
5.94839e-06
-1.38193e-07
5.91832e-06
-1.56649e-07
5.91161e-06
-1.19865e-07
5.924e-06
-4.93955e-08
5.94286e-06
4.36026e-09
5.96058e-06
3.77188e-08
5.97479e-06
5.62936e-08
5.98546e-06
6.56492e-08
5.9932e-06
6.97389e-08
5.99867e-06
7.10207e-08
6.00242e-06
7.09191e-08
6.00485e-06
7.02436e-08
6.00618e-06
6.94619e-08
6.00658e-06
6.88711e-08
6.0061e-06
6.86916e-08
6.00478e-06
6.91392e-08
6.00267e-06
7.04651e-08
7.2979e-08
5.99997e-06
6.95439e-06
-9.83128e-08
6.92401e-06
-1.26278e-07
6.91113e-06
-1.06983e-07
6.9168e-06
-5.50644e-08
6.93087e-06
-9.70878e-09
6.94635e-06
2.22414e-08
6.96015e-06
4.24953e-08
6.9714e-06
5.4399e-08
6.98017e-06
6.09646e-08
6.98684e-06
6.4351e-08
6.9918e-06
6.59587e-08
6.99538e-06
6.66683e-08
6.9978e-06
6.70342e-08
6.99925e-06
6.74277e-08
6.99982e-06
6.81168e-08
6.99963e-06
6.93278e-08
6.99883e-06
7.12707e-08
7.41323e-08
6.99768e-06
8.12719e-06
-6.64875e-08
8.09793e-06
-9.70205e-08
8.08056e-06
-8.9608e-08
8.07955e-06
-5.40574e-08
8.08793e-06
-1.80877e-08
8.09985e-06
1.03249e-08
8.11198e-06
3.03613e-08
8.12286e-06
4.35249e-08
8.13202e-06
5.17984e-08
8.1395e-06
5.6871e-08
8.14548e-06
5.99789e-08
8.15018e-06
6.19735e-08
8.15378e-06
6.34347e-08
8.15645e-06
6.47605e-08
8.15833e-06
6.62368e-08
8.15958e-06
6.80774e-08
8.1604e-06
7.04441e-08
7.3442e-08
8.1611e-06
9.49368e-06
-4.24385e-08
9.4668e-06
-7.01423e-08
9.44683e-06
-6.96394e-08
9.43991e-06
-4.71305e-08
9.44229e-06
-2.04662e-08
9.44965e-06
2.95749e-09
9.45895e-06
2.10668e-08
9.4684e-06
3.40732e-08
9.47716e-06
4.30392e-08
9.48491e-06
4.91237e-08
9.49159e-06
5.32968e-08
9.49727e-06
5.62948e-08
9.50205e-06
5.86496e-08
9.50607e-06
6.07415e-08
9.50947e-06
6.28374e-08
9.51243e-06
6.51233e-08
9.51515e-06
6.77175e-08
7.06735e-08
9.51792e-06
1.10854e-05
-2.51588e-08
1.10618e-05
-4.6502e-08
1.1041e-05
-4.88058e-08
1.10294e-05
-3.55503e-08
1.10261e-05
-1.71681e-08
1.10284e-05
6.06877e-10
1.1034e-05
1.54769e-08
1.10411e-05
2.69733e-08
1.10487e-05
3.54944e-08
1.10561e-05
4.17186e-08
1.1063e-05
4.63162e-08
1.10695e-05
4.98459e-08
1.10754e-05
5.27377e-08
1.10808e-05
5.53059e-08
1.10859e-05
5.77706e-08
1.10908e-05
6.02758e-08
1.10956e-05
6.29016e-08
6.56715e-08
1.11006e-05
1.29396e-05
-1.31184e-08
1.29194e-05
-2.62782e-08
1.28988e-05
-2.82511e-08
1.28839e-05
-2.06865e-08
1.28758e-05
-8.99431e-09
1.28732e-05
3.14659e-09
1.28748e-05
1.3942e-08
1.28789e-05
2.27906e-08
1.28847e-05
2.97469e-08
1.28913e-05
3.51457e-08
1.28982e-05
3.9386e-08
1.29052e-05
4.28309e-08
1.29122e-05
4.57725e-08
1.29191e-05
4.84278e-08
1.29259e-05
5.09458e-08
1.29327e-05
5.34182e-08
1.29398e-05
5.5888e-08
5.83583e-08
1.29471e-05
1.50998e-05
-4.48287e-09
1.50822e-05
-8.67576e-09
1.50621e-05
-8.11296e-09
1.50448e-05
-3.45734e-09
1.50327e-05
3.11074e-09
1.50259e-05
9.93993e-09
1.50237e-05
1.61632e-08
1.5025e-05
2.14659e-08
1.50289e-05
2.5855e-08
1.50346e-05
2.94866e-08
1.50414e-05
3.25565e-08
1.5049e-05
3.52453e-08
1.50571e-05
3.76961e-08
1.50655e-05
4.00102e-08
1.50742e-05
4.22502e-08
1.50832e-05
4.44454e-08
1.50925e-05
4.65984e-08
4.86908e-08
1.51021e-05
1.76171e-05
2.89331e-09
1.75999e-05
8.52312e-09
1.75787e-05
1.30299e-08
1.7559e-05
1.62782e-08
1.75436e-05
1.84729e-08
1.75336e-05
1.99581e-08
1.75287e-05
2.10525e-08
1.75282e-05
2.1994e-08
1.75311e-05
2.294e-08
1.75366e-05
2.39861e-08
1.7544e-05
2.51781e-08
1.75527e-05
2.65292e-08
1.75624e-05
2.80277e-08
1.75727e-05
2.96485e-08
1.75836e-05
3.13547e-08
1.7595e-05
3.31054e-08
1.76067e-05
3.48545e-08
3.65574e-08
1.76188e-05
1.78181e-05
1.10005e-08
1.77994e-05
2.72124e-08
1.77768e-05
3.56241e-08
1.7756e-05
3.70583e-08
1.77402e-05
3.43258e-08
1.77302e-05
2.99457e-08
1.77257e-05
2.54991e-08
1.7726e-05
2.17767e-08
1.77298e-05
1.90736e-08
1.77364e-05
1.73987e-08
1.7745e-05
1.66318e-08
1.77549e-05
1.66032e-08
1.77658e-05
1.71425e-08
1.77773e-05
1.80912e-08
1.77894e-05
1.93178e-08
1.78018e-05
2.07077e-08
1.78144e-05
2.2172e-08
2.36344e-08
1.78274e-05
1.58702e-05
2.21335e-08
1.58478e-05
4.95812e-08
1.58233e-05
6.01321e-08
1.58032e-05
5.72342e-08
1.57899e-05
4.76097e-08
1.57834e-05
3.63701e-08
1.57827e-05
2.61954e-08
1.57864e-05
1.81438e-08
1.57931e-05
1.23621e-08
1.58019e-05
8.60939e-09
1.5812e-05
6.49441e-09
1.5823e-05
5.628e-09
1.58345e-05
5.66578e-09
1.58462e-05
6.33233e-09
1.58581e-05
7.40583e-09
1.58701e-05
8.72287e-09
1.58822e-05
1.01543e-08
1.16113e-08
1.58942e-05
1.41313e-05
3.95387e-08
1.41021e-05
7.87068e-08
1.40745e-05
8.77877e-08
1.40557e-05
7.6038e-08
1.40469e-05
5.64125e-08
1.40462e-05
3.7038e-08
1.40512e-05
2.12079e-08
1.40597e-05
9.57901e-09
1.40704e-05
1.75867e-09
1.4082e-05
-3.05281e-09
1.40941e-05
-5.60742e-09
1.41063e-05
-6.56188e-09
1.41184e-05
-6.41324e-09
1.41303e-05
-5.55273e-09
1.4142e-05
-4.25087e-09
1.41534e-05
-2.70875e-09
1.41646e-05
-1.06434e-09
5.85468e-10
1.41756e-05
1.25772e-05
6.73556e-08
1.25392e-05
1.1674e-07
1.25091e-05
1.17889e-07
1.24942e-05
9.08907e-08
1.24928e-05
5.7813e-08
1.25002e-05
2.96816e-08
1.25122e-05
9.12866e-09
1.25264e-05
-4.49985e-09
1.25409e-05
-1.28396e-08
1.25552e-05
-1.73521e-08
1.25689e-05
-1.92867e-08
1.25819e-05
-1.95002e-08
1.25941e-05
-1.86506e-08
1.26057e-05
-1.71458e-08
1.26167e-05
-1.52911e-08
1.26273e-05
-1.3283e-08
1.26375e-05
-1.12474e-08
-9.27056e-09
1.26473e-05
1.11862e-05
1.10916e-07
1.11384e-05
1.6457e-07
1.11088e-05
1.4752e-07
1.11022e-05
9.74845e-08
1.11117e-05
4.83124e-08
1.11289e-05
1.24004e-08
1.11486e-05
-1.04632e-08
1.11678e-05
-2.37304e-08
1.11855e-05
-3.05119e-08
1.12014e-05
-3.32949e-08
1.12157e-05
-3.35579e-08
1.12285e-05
-3.23594e-08
1.12402e-05
-3.02988e-08
1.12509e-05
-2.78413e-08
1.12608e-05
-2.52269e-08
1.12701e-05
-2.2614e-08
1.1279e-05
-2.01105e-08
-1.77439e-08
1.12875e-05
9.93908e-06
1.76452e-07
9.88248e-06
2.21163e-07
9.85873e-06
1.71262e-07
9.86593e-06
9.02756e-08
9.8896e-06
2.46386e-08
9.91759e-06
-1.55563e-08
9.94391e-06
-3.67965e-08
9.96668e-06
-4.64124e-08
9.98571e-06
-4.9615e-08
1.00017e-05
-4.92928e-08
1.00153e-05
-4.71315e-08
1.00269e-05
-4.40009e-08
1.00372e-05
-4.05323e-08
1.00463e-05
-3.69888e-08
1.00546e-05
-3.35442e-08
1.00623e-05
-3.03209e-08
1.00696e-05
-2.73552e-08
-2.46542e-08
1.00765e-05
8.81963e-06
2.69916e-07
8.75785e-06
2.82944e-07
8.74788e-06
1.81226e-07
8.77481e-06
6.33231e-08
8.81458e-06
-1.51289e-08
8.85212e-06
-5.30921e-08
8.88268e-06
-6.72304e-08
8.90623e-06
-7.00289e-08
8.92427e-06
-6.76225e-08
8.93843e-06
-6.33791e-08
8.94985e-06
-5.84115e-08
8.95927e-06
-5.33468e-08
8.96728e-06
-4.84825e-08
8.9743e-06
-4.3984e-08
8.98056e-06
-3.98254e-08
8.98632e-06
-3.60665e-08
8.99171e-06
-3.27839e-08
-2.98412e-08
8.9969e-06
7.81391e-06
3.96675e-07
7.75391e-06
3.42943e-07
7.76868e-06
1.6644e-07
7.82053e-06
1.14614e-08
7.87567e-06
-7.02737e-08
7.91912e-06
-9.64911e-08
7.94967e-06
-9.78365e-08
7.97057e-06
-9.06527e-08
7.98484e-06
-8.15949e-08
7.99525e-06
-7.35626e-08
8.00317e-06
-6.61264e-08
8.0094e-06
-5.94311e-08
8.01451e-06
-5.33435e-08
8.01893e-06
-4.82208e-08
8.02281e-06
-4.36809e-08
8.02629e-06
-3.96201e-08
8.02964e-06
-3.62115e-08
-3.32121e-08
8.03297e-06
6.90424e-06
5.66768e-07
6.86137e-06
3.85804e-07
6.91716e-06
1.10635e-07
6.99674e-06
-6.81326e-08
7.06253e-06
-1.3607e-07
7.10529e-06
-1.39268e-07
7.13031e-06
-1.22549e-07
7.14447e-06
-1.04621e-07
7.15207e-06
-8.89982e-08
7.15709e-06
-7.58181e-08
7.16038e-06
-6.66917e-08
7.16271e-06
-5.95604e-08
7.16422e-06
-5.41555e-08
7.16559e-06
-4.94658e-08
7.16677e-06
-4.49927e-08
7.16774e-06
-4.08836e-08
7.16884e-06
-3.7632e-08
-3.49623e-08
7.17014e-06
6.07162e-06
7.97662e-07
6.08526e-06
3.72164e-07
6.19865e-06
-2.77321e-09
6.29989e-06
-1.69397e-07
6.36526e-06
-2.01462e-07
6.39754e-06
-1.71503e-07
6.4101e-06
-1.35218e-07
6.41342e-06
-1.0695e-07
6.41238e-06
-8.58098e-08
6.40988e-06
-7.40375e-08
6.40749e-06
-6.45252e-08
6.40488e-06
-5.75988e-08
6.40237e-06
-5.13329e-08
6.40035e-06
-4.70207e-08
6.3984e-06
-4.3105e-08
6.39644e-06
-3.92056e-08
6.39496e-06
-3.67163e-08
-3.47811e-08
6.39408e-06
5.35805e-06
1.05451e-06
5.50649e-06
2.23716e-07
5.64777e-06
-1.44085e-07
5.73564e-06
-2.57314e-07
5.77646e-06
-2.42346e-07
5.78324e-06
-1.78423e-07
5.77527e-06
-1.26643e-07
5.76327e-06
-9.40065e-08
5.74975e-06
-7.56673e-08
5.73931e-06
-6.39908e-08
5.73029e-06
-5.65605e-08
5.72234e-06
-4.99798e-08
5.71442e-06
-4.46768e-08
5.70782e-06
-4.0568e-08
5.70184e-06
-3.69863e-08
5.69614e-06
-3.35258e-08
5.69165e-06
-3.21785e-08
-3.09284e-08
5.68747e-06
5.04576e-06
1.01105e-06
5.36491e-06
-9.54501e-08
5.35251e-06
-1.31768e-07
5.33284e-06
-2.37746e-07
5.296e-06
-2.05652e-07
5.25016e-06
-1.32589e-07
5.2089e-06
-8.47346e-08
5.17485e-06
-6.08245e-08
5.14636e-06
-4.98275e-08
5.12485e-06
-4.29227e-08
5.10672e-06
-3.93762e-08
5.0905e-06
-3.57033e-08
5.07531e-06
-3.14421e-08
5.06199e-06
-2.75961e-08
5.04964e-06
-2.44202e-08
5.03869e-06
-2.21581e-08
5.03037e-06
-2.32994e-08
-2.17488e-08
5.02213e-06
5.4676e-06
5.37214e-06
5.24037e-06
5.0026e-06
4.79694e-06
4.66444e-06
4.57966e-06
4.51835e-06
4.46847e-06
4.42537e-06
4.38565e-06
4.34948e-06
4.31792e-06
4.29038e-06
4.26605e-06
4.24406e-06
4.22106e-06
4.19978e-06
2.31305e-08
-2.31312e-08
2.37205e-07
-2.14079e-07
4.89329e-07
-2.52093e-07
7.09593e-07
-2.20244e-07
8.77307e-07
-1.67695e-07
9.88435e-07
-1.11118e-07
1.0441e-06
-5.56514e-08
1.04652e-06
-2.42193e-09
1.00102e-06
4.55118e-08
9.17741e-07
8.32657e-08
8.11943e-07
1.05807e-07
7.02757e-07
1.09172e-07
6.09976e-07
9.27765e-08
5.4369e-07
6.62952e-08
4.92548e-07
5.11609e-08
4.33367e-07
5.98817e-08
3.47058e-07
8.61696e-08
2.21952e-07
1.25875e-07
4.36413e-08
1.77891e-07
-2.01832e-07
2.44839e-07
-5.04372e-07
3.02284e-07
-8.45366e-07
3.40741e-07
-1.20971e-06
3.64349e-07
-1.5871e-06
3.77407e-07
-1.9687e-06
3.81641e-07
-2.34453e-06
3.75851e-07
-2.70657e-06
3.62057e-07
-3.04964e-06
3.43087e-07
-3.36993e-06
3.20304e-07
-3.6651e-06
2.95176e-07
-3.93429e-06
2.69192e-07
-4.17781e-06
2.43525e-07
-4.39669e-06
2.18884e-07
-4.59241e-06
1.95723e-07
-4.76668e-06
1.74268e-07
-4.92128e-06
1.54601e-07
-5.05796e-06
1.36685e-07
-5.17837e-06
1.20401e-07
-5.28395e-06
1.05589e-07
-5.37602e-06
9.20678e-08
-5.45568e-06
7.96565e-08
-5.52386e-06
6.81822e-08
-5.58135e-06
5.74896e-08
-5.6288e-06
4.74447e-08
-5.66673e-06
3.79387e-08
-5.69562e-06
2.88841e-08
-5.71583e-06
2.02096e-08
-5.72771e-06
1.18854e-08
-5.73175e-06
4.03952e-09
-5.72881e-06
-2.94e-09
-5.71998e-06
-8.83842e-09
-5.70601e-06
-1.3965e-08
-5.68733e-06
-1.86814e-08
-5.66418e-06
-2.31488e-08
-5.63674e-06
-2.74453e-08
-5.60514e-06
-3.15991e-08
-5.56951e-06
-3.56249e-08
-5.52998e-06
-3.95296e-08
-5.48667e-06
-4.33141e-08
-5.43969e-06
-4.69775e-08
-5.38917e-06
-5.05171e-08
-5.33525e-06
-5.39296e-08
-5.27803e-06
-5.72114e-08
-5.21768e-06
-6.03593e-08
-5.1543e-06
-6.33709e-08
-5.08806e-06
-6.6243e-08
-5.01909e-06
-6.89721e-08
-4.94753e-06
-7.1556e-08
-4.87354e-06
-7.39931e-08
-4.79726e-06
-7.6282e-08
-4.71884e-06
-7.84221e-08
-4.63843e-06
-8.0413e-08
-4.55617e-06
-8.22549e-08
-4.47222e-06
-8.39486e-08
-4.38673e-06
-8.5495e-08
-4.29983e-06
-8.68961e-08
-4.21168e-06
-8.81537e-08
-4.12241e-06
-8.92707e-08
-4.03216e-06
-9.02498e-08
-3.94107e-06
-9.10948e-08
-3.84926e-06
-9.18096e-08
-3.75686e-06
-9.23986e-08
-3.66399e-06
-9.28667e-08
-3.57077e-06
-9.32194e-08
-3.47731e-06
-9.34629e-08
-3.38371e-06
-9.36042e-08
-3.29006e-06
-9.3652e-08
-3.19644e-06
-9.36165e-08
-3.10293e-06
-9.3511e-08
-3.00958e-06
-9.3351e-08
-2.91642e-06
-9.31571e-08
-2.82347e-06
-9.29544e-08
-2.73071e-06
-9.27614e-08
-2.63815e-06
-9.25579e-08
-2.5459e-06
-9.22584e-08
-2.45414e-06
-9.17617e-08
-2.36315e-06
-9.09825e-08
-2.27322e-06
-8.99379e-08
-2.18443e-06
-8.87847e-08
-2.0968e-06
-8.763e-08
-2.01033e-06
-8.6474e-08
-1.92503e-06
-8.53007e-08
-1.84093e-06
-8.41028e-08
-1.75805e-06
-8.28793e-08
-1.67642e-06
-8.16329e-08
-1.59605e-06
-8.03672e-08
-1.51697e-06
-7.90861e-08
-1.43918e-06
-7.77922e-08
-1.36269e-06
-7.64836e-08
-1.28755e-06
-7.51394e-08
-1.21378e-06
-7.37718e-08
-1.14138e-06
-7.24084e-08
-1.07033e-06
-7.10443e-08
-1.00065e-06
-6.96806e-08
-9.32335e-07
-6.83184e-08
-8.65377e-07
-6.69592e-08
-7.99773e-07
-6.56052e-08
-7.35515e-07
-6.42591e-08
-6.72593e-07
-6.29229e-08
-6.10999e-07
-6.15959e-08
-5.50722e-07
-6.02788e-08
-4.91749e-07
-5.89743e-08
-4.34062e-07
-5.76886e-08
-3.77637e-07
-5.64272e-08
-3.22453e-07
-5.5186e-08
-2.68494e-07
-5.39615e-08
-2.15738e-07
-5.27579e-08
-1.64167e-07
-5.15741e-08
-1.13772e-07
-5.03983e-08
-6.45441e-08
-4.92305e-08
-1.66071e-08
-4.79404e-08
3.01723e-08
-4.67828e-08
7.61013e-08
-4.59321e-08
1.21073e-07
-4.49744e-08
1.64984e-07
-4.3914e-08
2.07831e-07
-4.28498e-08
2.49631e-07
-4.18028e-08
2.90414e-07
-4.07857e-08
3.30212e-07
-3.98004e-08
3.69055e-07
-3.88455e-08
4.06972e-07
-3.79192e-08
4.4399e-07
-3.70199e-08
4.80135e-07
-3.61467e-08
5.15432e-07
-3.52989e-08
5.49907e-07
-3.44758e-08
5.83583e-07
-3.36773e-08
6.16485e-07
-3.29031e-08
6.48637e-07
-3.2153e-08
6.80063e-07
-3.14271e-08
7.10788e-07
-3.07252e-08
7.40834e-07
-3.00474e-08
7.70228e-07
-2.93937e-08
7.98991e-07
-2.87641e-08
8.27149e-07
-2.81586e-08
8.54726e-07
-2.75772e-08
8.81746e-07
-2.70199e-08
9.08233e-07
-2.64865e-08
9.34209e-07
-2.59767e-08
9.597e-07
-2.549e-08
9.84726e-07
-2.50257e-08
1.00931e-06
-2.45824e-08
1.03347e-06
-2.41582e-08
1.05722e-06
-2.37504e-08
1.08057e-06
-2.33549e-08
1.10354e-06
-2.29659e-08
1.12612e-06
-2.25754e-08
1.14829e-06
-2.2172e-08
1.17003e-06
-2.17399e-08
1.19129e-06
-2.12569e-08
1.21198e-06
-2.06921e-08
1.23198e-06
-2.0001e-08
1.2511e-06
-1.91201e-08
1.26906e-06
-1.79518e-08
1.28541e-06
-1.6352e-08
1.29945e-06
-1.40453e-08
1.31008e-06
-1.06214e-08
1.31464e-06
-4.55671e-09
1.30779e-06
6.85887e-09
1.27825e-06
2.95392e-08
7.23313e-08
1.20592e-06
2.54184e-07
-2.77337e-07
4.90083e-07
-4.49976e-07
6.39668e-07
-4.01674e-07
7.243e-07
-3.04874e-07
7.63814e-07
-2.072e-07
7.69759e-07
-1.17068e-07
7.48827e-07
-3.47134e-08
7.06644e-07
3.97529e-08
6.46283e-07
1.05877e-07
5.67655e-07
1.61884e-07
4.7004e-07
2.03428e-07
3.51769e-07
2.27431e-07
2.06805e-07
2.37746e-07
2.36048e-08
2.49511e-07
-2.08616e-07
2.83388e-07
-4.94263e-07
3.45621e-07
-8.32227e-07
4.24223e-07
-1.21209e-06
5.05751e-07
-1.61591e-06
5.81668e-07
-2.01735e-06
6.46225e-07
-2.40737e-06
6.92256e-07
-2.78285e-06
7.16204e-07
-3.13779e-06
7.1929e-07
-3.46521e-06
7.04834e-07
-3.75997e-06
6.76406e-07
-4.02111e-06
6.36998e-07
-4.24905e-06
5.9e-07
-4.44506e-06
5.39104e-07
-4.61206e-06
4.873e-07
-4.75354e-06
4.36662e-07
-4.87288e-06
3.88538e-07
-4.97326e-06
3.43902e-07
-5.05754e-06
3.03168e-07
-5.12824e-06
2.66424e-07
-5.18748e-06
2.33506e-07
-5.23699e-06
2.04111e-07
-5.27818e-06
1.77872e-07
-5.31217e-06
1.54394e-07
-5.33988e-06
1.33298e-07
-5.36204e-06
1.14231e-07
-5.37927e-06
9.68819e-08
-5.39207e-06
8.09854e-08
-5.4009e-06
6.63194e-08
-5.40616e-06
5.27021e-08
-5.40821e-06
3.99866e-08
-5.40738e-06
2.80582e-08
-5.40401e-06
1.68389e-08
-5.39842e-06
6.294e-09
-5.39076e-06
-3.62055e-09
-5.3806e-06
-1.30945e-08
-5.36707e-06
-2.23679e-08
-5.34957e-06
-3.14701e-08
-5.32792e-06
-4.03352e-08
-5.30211e-06
-4.89596e-08
-5.2722e-06
-5.73502e-08
-5.23829e-06
-6.55132e-08
-5.20046e-06
-7.34514e-08
-5.15883e-06
-8.11643e-08
-5.11349e-06
-8.86485e-08
-5.06457e-06
-9.58985e-08
-5.01218e-06
-1.02908e-07
-4.95644e-06
-1.09668e-07
-4.89748e-06
-1.16171e-07
-4.83543e-06
-1.22412e-07
-4.77042e-06
-1.28384e-07
-4.70258e-06
-1.34082e-07
-4.63205e-06
-1.39497e-07
-4.55899e-06
-1.44625e-07
-4.48351e-06
-1.49464e-07
-4.40579e-06
-1.5401e-07
-4.32595e-06
-1.58262e-07
-4.24414e-06
-1.6222e-07
-4.16051e-06
-1.65884e-07
-4.07521e-06
-1.69254e-07
-3.98837e-06
-1.72334e-07
-3.90014e-06
-1.75127e-07
-3.81065e-06
-1.77637e-07
-3.72005e-06
-1.7987e-07
-3.62848e-06
-1.8183e-07
-3.53605e-06
-1.83525e-07
-3.44289e-06
-1.84963e-07
-3.34914e-06
-1.86151e-07
-3.25491e-06
-1.871e-07
-3.16031e-06
-1.87819e-07
-3.06545e-06
-1.88319e-07
-2.97045e-06
-1.8861e-07
-2.8754e-06
-1.88706e-07
-2.78039e-06
-1.88619e-07
-2.68554e-06
-1.88363e-07
-2.59095e-06
-1.87949e-07
-2.49671e-06
-1.87389e-07
-2.40298e-06
-1.86692e-07
-2.30989e-06
-1.85851e-07
-2.21761e-06
-1.84839e-07
-2.12626e-06
-1.83611e-07
-2.03588e-06
-1.8214e-07
-1.94644e-06
-1.80419e-07
-1.85789e-06
-1.78492e-07
-1.77024e-06
-1.76434e-07
-1.68357e-06
-1.74299e-07
-1.59795e-06
-1.721e-07
-1.51341e-06
-1.6984e-07
-1.43e-06
-1.67518e-07
-1.34774e-06
-1.65139e-07
-1.26666e-06
-1.62709e-07
-1.1868e-06
-1.60232e-07
-1.10817e-06
-1.57715e-07
-1.0308e-06
-1.5516e-07
-9.54717e-07
-1.5257e-07
-8.79913e-07
-1.49944e-07
-8.06388e-07
-1.47297e-07
-7.34157e-07
-1.44641e-07
-6.63222e-07
-1.4198e-07
-5.93585e-07
-1.39318e-07
-5.25247e-07
-1.36658e-07
-4.58205e-07
-1.34002e-07
-3.92455e-07
-1.31355e-07
-3.27993e-07
-1.28722e-07
-2.64809e-07
-1.26108e-07
-2.02891e-07
-1.23515e-07
-1.42232e-07
-1.20939e-07
-8.28193e-08
-1.18388e-07
-2.46467e-08
-1.15862e-07
3.22998e-08
-1.13375e-07
8.80481e-08
-1.10936e-07
1.42616e-07
-1.0853e-07
1.96012e-07
-1.06156e-07
2.48254e-07
-1.03817e-07
2.99367e-07
-1.01513e-07
3.49381e-07
-9.92459e-08
3.98454e-07
-9.7015e-08
4.46561e-07
-9.48901e-08
4.93483e-07
-9.28554e-08
5.39289e-07
-9.07817e-08
5.84057e-07
-8.8683e-08
6.27818e-07
-8.66119e-08
6.70601e-07
-8.45876e-08
7.12431e-07
-8.26169e-08
7.53331e-07
-8.07012e-08
7.93324e-07
-7.88393e-08
8.32433e-07
-7.70295e-08
8.70682e-07
-7.52701e-08
9.08094e-07
-7.35601e-08
9.44693e-07
-7.18985e-08
9.80502e-07
-7.02848e-08
1.01554e-06
-6.87185e-08
1.04984e-06
-6.71993e-08
1.08341e-06
-6.57271e-08
1.11629e-06
-6.43019e-08
1.14848e-06
-6.29236e-08
1.18003e-06
-6.15922e-08
1.21094e-06
-6.03076e-08
1.24125e-06
-5.907e-08
1.27097e-06
-5.78793e-08
1.30013e-06
-5.67354e-08
1.32874e-06
-5.56381e-08
1.35684e-06
-5.45869e-08
1.38445e-06
-5.35813e-08
1.41158e-06
-5.26199e-08
1.43825e-06
-5.1701e-08
1.46449e-06
-5.0822e-08
1.49032e-06
-4.99789e-08
1.51573e-06
-4.91663e-08
1.54075e-06
-4.83761e-08
1.56539e-06
-4.75974e-08
1.58963e-06
-4.68147e-08
1.61346e-06
-4.60069e-08
1.63687e-06
-4.51443e-08
1.6598e-06
-4.41858e-08
1.68218e-06
-4.3074e-08
1.7039e-06
-4.17271e-08
1.72481e-06
-4.00272e-08
1.74466e-06
-3.77975e-08
1.76308e-06
-3.47686e-08
1.77951e-06
-3.04797e-08
1.79307e-06
-2.41785e-08
1.80279e-06
-1.42712e-08
1.80765e-06
2.00003e-09
1.80577e-06
3.14267e-08
8.80345e-08
1.79006e-06
2.46008e-07
-5.23366e-07
3.42322e-07
-5.46294e-07
3.58609e-07
-4.17959e-07
3.47565e-07
-2.9382e-07
3.19862e-07
-1.79492e-07
2.75779e-07
-7.29843e-08
2.14602e-07
2.6466e-08
1.3528e-07
1.19069e-07
3.6754e-08
2.04405e-07
-8.31411e-08
2.81775e-07
-2.3011e-07
3.50397e-07
-4.14673e-07
4.11994e-07
-6.5024e-07
4.73311e-07
-9.43731e-07
5.43006e-07
-1.28499e-06
6.24639e-07
-1.65208e-06
7.12722e-07
-2.02419e-06
7.96327e-07
-2.38445e-06
8.65994e-07
-2.71895e-06
9.16163e-07
-3.01717e-06
9.44433e-07
-3.27524e-06
9.5032e-07
-3.49413e-06
9.35102e-07
-3.67684e-06
9.02e-07
-3.82739e-06
8.55397e-07
-3.95053e-06
7.99547e-07
-4.05166e-06
7.38131e-07
-4.13612e-06
6.74453e-07
-4.20828e-06
6.1127e-07
-4.2716e-06
5.50615e-07
-4.32867e-06
4.9374e-07
-4.38139e-06
4.41255e-07
-4.43088e-06
3.93391e-07
-4.47778e-06
3.50065e-07
-4.52235e-06
3.10998e-07
-4.56464e-06
2.75796e-07
-4.60455e-06
2.44021e-07
-4.64191e-06
2.15234e-07
-4.67653e-06
1.89018e-07
-4.70823e-06
1.64996e-07
-4.73684e-06
1.42839e-07
-4.76222e-06
1.22263e-07
-4.78427e-06
1.0303e-07
-4.80289e-06
8.4943e-08
-4.81802e-06
6.78359e-08
-4.82961e-06
5.15692e-08
-4.83757e-06
3.60238e-08
-4.84183e-06
2.10978e-08
-4.84224e-06
6.69743e-09
-4.83857e-06
-7.28403e-09
-4.83071e-06
-2.09609e-08
-4.81868e-06
-3.43927e-08
-4.80258e-06
-4.75673e-08
-4.78246e-06
-6.04621e-08
-4.75835e-06
-7.30689e-08
-4.73032e-06
-8.53812e-08
-4.69844e-06
-9.73932e-08
-4.66279e-06
-1.09098e-07
-4.62347e-06
-1.20487e-07
-4.58057e-06
-1.3155e-07
-4.53419e-06
-1.42276e-07
-4.48445e-06
-1.52651e-07
-4.43145e-06
-1.62664e-07
-4.37532e-06
-1.72301e-07
-4.31618e-06
-1.81551e-07
-4.25416e-06
-1.90406e-07
-4.18938e-06
-1.98857e-07
-4.12199e-06
-2.06891e-07
-4.05211e-06
-2.14502e-07
-3.97989e-06
-2.21685e-07
-3.90547e-06
-2.28435e-07
-3.82898e-06
-2.34751e-07
-3.75057e-06
-2.40631e-07
-3.67038e-06
-2.46075e-07
-3.58855e-06
-2.51085e-07
-3.50522e-06
-2.55665e-07
-3.42053e-06
-2.59818e-07
-3.33461e-06
-2.63551e-07
-3.24761e-06
-2.66872e-07
-3.15965e-06
-2.69788e-07
-3.07087e-06
-2.72309e-07
-2.98139e-06
-2.74446e-07
-2.89133e-06
-2.7621e-07
-2.80082e-06
-2.77614e-07
-2.70997e-06
-2.78671e-07
-2.61889e-06
-2.79396e-07
-2.5277e-06
-2.79802e-07
-2.4365e-06
-2.79906e-07
-2.3454e-06
-2.79721e-07
-2.2545e-06
-2.79262e-07
-2.1639e-06
-2.78543e-07
-2.07372e-06
-2.77573e-07
-1.98405e-06
-2.76361e-07
-1.895e-06
-2.74904e-07
-1.80665e-06
-2.73191e-07
-1.71906e-06
-2.71205e-07
-1.63225e-06
-2.68944e-07
-1.54625e-06
-2.66425e-07
-1.46106e-06
-2.63683e-07
-1.37673e-06
-2.60764e-07
-1.29332e-06
-2.57703e-07
-1.2109e-06
-2.5452e-07
-1.12952e-06
-2.51228e-07
-1.0492e-06
-2.47836e-07
-9.69984e-07
-2.44353e-07
-8.91904e-07
-2.4079e-07
-8.14983e-07
-2.37153e-07
-7.39245e-07
-2.33453e-07
-6.64709e-07
-2.29696e-07
-5.91389e-07
-2.2589e-07
-5.19291e-07
-2.22042e-07
-4.48424e-07
-2.18165e-07
-3.78796e-07
-2.14268e-07
-3.10416e-07
-2.10361e-07
-2.43284e-07
-2.0645e-07
-1.77401e-07
-2.02541e-07
-1.12764e-07
-1.98639e-07
-4.93707e-08
-1.94749e-07
1.27861e-08
-1.90879e-07
7.37105e-08
-1.87033e-07
1.3341e-07
-1.83215e-07
1.91899e-07
-1.79428e-07
2.49188e-07
-1.75678e-07
3.05294e-07
-1.71969e-07
3.60228e-07
-1.68309e-07
4.13996e-07
-1.64704e-07
4.66614e-07
-1.61149e-07
5.18101e-07
-1.57644e-07
5.68478e-07
-1.54194e-07
6.17766e-07
-1.50801e-07
6.65994e-07
-1.47475e-07
7.13205e-07
-1.44227e-07
7.59383e-07
-1.41068e-07
8.04493e-07
-1.37966e-07
8.48583e-07
-1.34873e-07
8.91698e-07
-1.31799e-07
9.33862e-07
-1.28775e-07
9.75091e-07
-1.25818e-07
1.01541e-06
-1.22933e-07
1.05483e-06
-1.20121e-07
1.09337e-06
-1.17385e-07
1.13106e-06
-1.14721e-07
1.16792e-06
-1.1213e-07
1.20397e-06
-1.0961e-07
1.23923e-06
-1.0716e-07
1.27373e-06
-1.04781e-07
1.30748e-06
-1.0247e-07
1.34051e-06
-1.0023e-07
1.37284e-06
-9.80577e-08
1.40449e-06
-9.59548e-08
1.43549e-06
-9.39208e-08
1.46585e-06
-9.19558e-08
1.4956e-06
-9.00598e-08
1.52477e-06
-8.82327e-08
1.55336e-06
-8.64746e-08
1.58141e-06
-8.47853e-08
1.60894e-06
-8.31643e-08
1.63596e-06
-8.16112e-08
1.66251e-06
-8.01246e-08
1.68859e-06
-7.87031e-08
1.71423e-06
-7.73439e-08
1.73945e-06
-7.60431e-08
1.76427e-06
-7.47951e-08
1.78869e-06
-7.3592e-08
1.81274e-06
-7.24226e-08
1.83642e-06
-7.12711e-08
1.85972e-06
-7.0116e-08
1.88264e-06
-6.89274e-08
1.90516e-06
-6.76638e-08
1.92724e-06
-6.62679e-08
1.94883e-06
-6.46597e-08
1.96983e-06
-6.2726e-08
1.9901e-06
-6.03039e-08
2.00946e-06
-5.71529e-08
2.0276e-06
-5.29096e-08
2.0441e-06
-4.69834e-08
2.05836e-06
-3.84346e-08
2.0696e-06
-2.55034e-08
2.07694e-06
-5.34611e-09
2.08084e-06
2.75258e-08
8.54962e-08
2.08338e-06
9.37334e-08
-6.17109e-07
6.23892e-08
-5.14962e-07
1.39054e-08
-3.69467e-07
-4.31865e-08
-2.36721e-07
-1.12684e-07
-1.09988e-07
-1.98057e-07
1.23925e-08
-3.02289e-07
1.30699e-07
-4.27796e-07
2.44576e-07
-5.77155e-07
3.53762e-07
-7.53748e-07
4.58368e-07
-9.62334e-07
5.58981e-07
-1.20723e-06
6.56888e-07
-1.48722e-06
7.53298e-07
-1.79151e-06
8.4729e-07
-2.10139e-06
9.34517e-07
-2.39725e-06
1.00857e-06
-2.66458e-06
1.06365e-06
-2.89513e-06
1.09653e-06
-3.08563e-06
1.10665e-06
-3.23689e-06
1.09569e-06
-3.35326e-06
1.0667e-06
-3.4413e-06
1.02315e-06
-3.50812e-06
9.6882e-07
-3.56023e-06
9.07517e-07
-3.60313e-06
8.42448e-07
-3.64125e-06
7.76247e-07
-3.67782e-06
7.11027e-07
-3.71489e-06
6.48336e-07
-3.75345e-06
5.89176e-07
-3.79378e-06
5.34069e-07
-3.83569e-06
4.83167e-07
-3.87869e-06
4.36393e-07
-3.92214e-06
3.93513e-07
-3.96535e-06
3.54206e-07
-4.00766e-06
3.18111e-07
-4.0485e-06
2.84857e-07
-4.08735e-06
2.54086e-07
-4.1238e-06
2.25468e-07
-4.15751e-06
1.98702e-07
-4.18819e-06
1.73525e-07
-4.21563e-06
1.49707e-07
-4.23966e-06
1.27051e-07
-4.26011e-06
1.05392e-07
-4.27686e-06
8.45881e-08
-4.28981e-06
6.45192e-08
-4.29887e-06
4.5084e-08
-4.30397e-06
2.61963e-08
-4.30505e-06
7.7792e-09
-4.30209e-06
-1.02409e-08
-4.29513e-06
-2.79253e-08
-4.28422e-06
-4.53018e-08
-4.26942e-06
-6.23672e-08
-4.25077e-06
-7.91089e-08
-4.22833e-06
-9.55143e-08
-4.20214e-06
-1.1157e-07
-4.17227e-06
-1.27261e-07
-4.1388e-06
-1.42572e-07
-4.1018e-06
-1.57487e-07
-4.06136e-06
-1.71988e-07
-4.01758e-06
-1.86057e-07
-3.97055e-06
-1.99675e-07
-3.92039e-06
-2.12824e-07
-3.86721e-06
-2.25484e-07
-3.81112e-06
-2.3764e-07
-3.75225e-06
-2.4928e-07
-3.69071e-06
-2.60391e-07
-3.62665e-06
-2.70958e-07
-3.56018e-06
-2.80972e-07
-3.49144e-06
-2.90425e-07
-3.42056e-06
-2.99311e-07
-3.34768e-06
-3.07627e-07
-3.27295e-06
-3.1537e-07
-3.19648e-06
-3.2254e-07
-3.11843e-06
-3.29141e-07
-3.03892e-06
-3.35175e-07
-2.95809e-06
-3.40648e-07
-2.87607e-06
-3.45569e-07
-2.79299e-06
-3.49946e-07
-2.70899e-06
-3.53789e-07
-2.62419e-06
-3.57111e-07
-2.53871e-06
-3.59926e-07
-2.45267e-06
-3.62248e-07
-2.3662e-06
-3.64091e-07
-2.27939e-06
-3.65474e-07
-2.19238e-06
-3.66413e-07
-2.10525e-06
-3.66926e-07
-2.01813e-06
-3.67031e-07
-1.9311e-06
-3.66745e-07
-1.84428e-06
-3.66087e-07
-1.75775e-06
-3.6507e-07
-1.67162e-06
-3.6371e-07
-1.58596e-06
-3.62018e-07
-1.50087e-06
-3.59999e-07
-1.4164e-06
-3.57657e-07
-1.33261e-06
-3.54993e-07
-1.24954e-06
-3.52016e-07
-1.16722e-06
-3.48747e-07
-1.08569e-06
-3.45217e-07
-1.00499e-06
-3.41462e-07
-9.25181e-07
-3.3751e-07
-8.46315e-07
-3.33387e-07
-7.68433e-07
-3.29111e-07
-6.91573e-07
-3.24696e-07
-6.1577e-07
-3.20157e-07
-5.41051e-07
-3.15509e-07
-4.67443e-07
-3.10762e-07
-3.94966e-07
-3.0593e-07
-3.2364e-07
-3.01023e-07
-2.53478e-07
-2.96053e-07
-1.84489e-07
-2.91032e-07
-1.16683e-07
-2.85971e-07
-5.00688e-08
-2.80883e-07
1.53487e-08
-2.75778e-07
7.95647e-08
-2.70666e-07
1.42578e-07