/*--------------------------------*- C++ -*----------------------------------*\
  =========                 |
  \\      /  F ield         | OpenFOAM: The Open Source CFD Toolbox
   \\    /   O peration     | Website:  https://openfoam.org
    \\  /    A nd           | Version:  8
     \\/     M anipulation  |
\*---------------------------------------------------------------------------*/
FoamFile
{
    version     2.0;
    format      ascii;
    class       volVectorField;
    location    "4900";
    object      wallShearStress;
}
// * * * * * * * * * * * * * * * * * * * * * * * * * * * * * * * * * * * * * //

dimensions      [0 2 -2 0 0 0 0];

internalField   uniform (0 0 0);

boundaryField
{
    inlet
    {
        type            calculated;
        value           uniform (0 0 0);
    }
    outlet
    {
        type            calculated;
        value           uniform (0 0 0);
    }
    upperWall
    {
        type            calculated;
        value           nonuniform List<vector> 
223
(
(-0.582193 -0.392359 0)
(-0.977814 -0.219377 0)
(-0.939335 -0.0567746 0)
(-0.81071 -0.00585779 0)
(-0.734594 0.00331368 0)
(-0.695452 0.00231578 0)
(-0.670933 0.00042407 0)
(-0.653507 -0.00144945 0)
(-0.640532 -0.00256377 0)
(-0.629818 -0.00218246 0)
(-0.620062 -0.00131149 0)
(-0.610954 -0.0010836 0)
(-0.603068 -0.00141028 0)
(-0.596127 -0.00113902 0)
(-0.590222 -0.000824103 0)
(-0.58538 -0.000749057 0)
(-0.580147 0.0007963 0)
(-0.574918 0.00191156 0)
(-0.570693 0.00270885 0)
(-0.567302 0.00275138 4.25124e-22)
(-0.563983 0.00154178 0)
(-0.561367 0.00115823 0)
(-0.558737 0.00155227 0)
(-0.556068 0.00243922 4.4885e-22)
(-0.553083 0.00313922 0)
(-0.550079 0.00402576 0)
(-0.5469 0.0041503 0)
(-0.543969 0.00370932 -9.38632e-22)
(-0.541219 0.00329636 9.47658e-22)
(-0.538494 0.00318952 9.57281e-22)
(-0.535698 0.00280444 0)
(-0.533016 0.00242791 -9.7635e-22)
(-0.530373 0.00209468 0)
(-0.527758 0.001835 9.99193e-22)
(-0.525139 0.00163191 1.01167e-21)
(-0.522509 0.00148177 -1.02481e-21)
(-0.519859 0.00136467 0)
(-0.517192 0.00127442 0)
(-0.514504 0.00120623 0)
(-0.511788 0.00115501 0)
(-0.509043 0.00111672 -1.09134e-21)
(-0.506267 0.00108867 0)
(-0.503457 0.00106875 0)
(-0.50061 0.0010554 1.13135e-21)
(-0.497724 0.00104744 0)
(-0.494796 0.00104398 1.15776e-21)
(-0.491823 0.00104431 -1.17074e-21)
(-0.488802 0.00104764 1.1835e-21)
(-0.485728 0.00105377 0)
(-0.4826 0.00106122 0)
(-0.479418 0.00106921 0)
(-0.476182 0.00107684 1.23107e-21)
(-0.472899 0.0010829 -1.24174e-21)
(-0.469579 0.00108761 0)
(-0.466238 0.00109195 0)
(-0.462892 0.00109657 0)
(-0.459549 0.00110051 0)
(-0.456216 0.00110265 0)
(-0.452893 0.00110227 0)
(-0.449576 0.00109935 0)
(-0.446258 0.00109466 0)
(-0.442927 0.00108915 1.29214e-21)
(-0.439573 0.00108397 -1.2919e-21)
(-0.436185 0.00108002 0)
(-0.432752 0.00107795 0)
(-0.429263 0.00107791 0)
(-0.425709 0.00107999 -1.27849e-21)
(-0.422082 0.00108401 0)
(-0.418375 0.00108967 0)
(-0.414582 0.00109679 0)
(-0.410699 0.00110478 0)
(-0.406722 0.00111314 0)
(-0.402651 0.00112156 -2.43457e-21)
(-0.398483 0.00112939 0)
(-0.39422 0.00113599 0)
(-0.389865 0.001141 0)
(-0.385423 0.00114419 0)
(-0.380904 0.00114535 0)
(-0.376319 0.00114438 0)
(-0.37168 0.00114105 0)
(-0.366999 0.00113507 2.09549e-21)
(-0.362286 0.00112627 0)
(-0.357549 0.00111472 0)
(-0.352793 0.00110083 0)
(-0.34802 0.00108503 -1.83982e-21)
(-0.34323 0.00106789 0)
(-0.338421 0.00105011 -1.69039e-21)
(-0.333589 0.00103218 0)
(-0.328731 0.00101511 0)
(-0.323836 0.000999687 0)
(-0.319024 0.000991883 -1.3512e-21)
(-0.316384 0.00100101 0)
(-0.31366 0.00101491 1.18073e-21)
(-0.310855 0.00102961 1.09004e-21)
(-0.307975 0.00104279 0)
(-0.30503 0.00105372 8.96356e-22)
(-0.302033 0.00106239 0)
(-0.298996 0.0010701 0)
(-0.295935 0.00107638 0)
(-0.292862 0.00108612 -4.54928e-22)
(-0.289794 0.00109097 0)
(-0.286738 0.00110309 -2.0553e-22)
(-0.283716 0.00110608 7.35193e-23)
(-0.280727 0.0011123 0)
(-0.277794 0.00110977 0)
(-0.274908 0.00110774 0)
(-0.272102 0.00110912 0)
(-0.269371 0.00107768 0)
(-0.26669 0.00112915 0)
(-0.264194 0.00109118 0)
(-0.261728 0.00135532 1.14354e-21)
(-0.259519 0.00158716 0)
(-0.257353 0.00153011 0)
(-0.255163 0.00098272 0)
(-0.252795 0.000262309 0)
(-0.250673 0.000327849 0)
(-0.24844 0.000523856 0)
(-0.246291 0.000455318 0)
(-0.244522 0.000408748 0)
(-0.242593 0.000596492 0)
(-0.240558 0.00065153 0)
(-0.239053 0.000634607 0)
(-0.237158 0.000780672 0)
(-0.235329 0.00074814 7.1796e-21)
(-0.233829 0.00055602 0)
(-0.231947 0.00066775 0)
(-0.230211 0.000633927 0)
(-0.228854 0.000560567 -8.78704e-21)
(-0.227234 0.000710489 0)
(-0.225576 0.000663878 0)
(-0.224224 0.000534999 -1.00538e-20)
(-0.222666 0.000524057 0)
(-0.221409 0.000556053 1.08661e-20)
(-0.220159 0.000610811 0)
(-0.218805 0.000589363 0)
(-0.217537 0.000543373 0)
(-0.216153 0.000535517 -1.25907e-20)
(-0.215137 0.000460426 0)
(-0.214088 0.000483857 1.34009e-20)
(-0.212842 0.000462574 0)
(-0.211929 0.000402816 0)
(-0.210809 0.000444142 0)
(-0.209976 0.000587357 0)
(-0.208887 0.000601553 0)
(-0.207807 0.000582965 0)
(-0.207006 0.000741718 0)
(-0.205948 0.000628531 0)
(-0.20526 0.000845288 0)
(-0.204475 0.00107196 0)
(-0.204003 0.000835193 0)
(-0.203636 0.000115892 1.83274e-20)
(-0.202523 -0.000411474 -1.89886e-20)
(-0.201438 -0.000145393 0)
(-0.200793 3.04945e-05 0)
(-0.200102 9.72347e-05 0)
(-0.199863 0.000150813 0)
(-0.198987 0.000150123 -2.10132e-20)
(-0.198566 0.000175204 2.13221e-20)
(-0.198131 0.000198301 -2.17401e-20)
(-0.197796 0.000264924 0)
(-0.197071 0.000277584 -2.25788e-20)
(-0.19655 0.000238594 -4.58884e-20)
(-0.195714 0.000253727 0)
(-0.195493 0.000207121 -4.74884e-20)
(-0.1951 0.000215536 4.83112e-20)
(-0.194616 0.00026389 0)
(-0.194145 0.000318729 0)
(-0.193796 0.000280654 0)
(-0.193565 0.000515042 0)
(-0.193231 0.000658169 0)
(-0.192719 0.000216987 -5.34313e-20)
(-0.19204 2.84985e-05 0)
(-0.191577 0.000119501 -5.53617e-20)
(-0.191473 0.000194902 0)
(-0.190699 0.000200556 0)
(-0.190318 0.000179025 0)
(-0.189793 0.000222645 0)
(-0.189271 0.000226336 0)
(-0.188849 0.000318359 6.06809e-20)
(-0.18794 0.000370282 0)
(-0.187544 0.000452159 0)
(-0.187109 0.000759954 -6.35901e-20)
(-0.186481 0.000777629 0)
(-0.186182 0.00060692 0)
(-0.185205 0.000510152 0)
(-0.183816 0.000489373 6.88062e-20)
(-0.183097 0.00015579 0)
(-0.18109 -0.000151662 0)
(-0.179309 0.000109315 0)
(-0.17713 0.000353177 0)
(-0.175055 0.000432928 -7.73534e-20)
(-0.17331 0.000705574 0)
(-0.170368 0.00107488 0)
(-0.167223 0.00114853 0)
(-0.162893 0.00128562 8.76443e-20)
(-0.155743 0.00147797 0)
(-0.148861 0.00223035 0)
(-0.123792 0.0021783 -1.0779e-19)
(-0.141606 0.00667986 6.01853e-36)
(-0.169699 0.0132068 1.25422e-17)
(-0.187126 0.0170726 2.3555e-17)
(-0.193467 0.0188836 2.26959e-17)
(-0.196892 0.0196895 2.20017e-17)
(-0.201063 0.0203148 2.11471e-17)
(-0.205524 0.0210138 -2.02236e-17)
(-0.209714 0.0215213 -1.95174e-17)
(-0.213869 0.0218717 -1.20371e-35)
(-0.218074 0.0220152 -3.66538e-17)
(-0.220201 0.022178 -1.80744e-17)
(-0.224667 0.0227188 7.94446e-34)
(-0.227478 0.0229027 -1.20371e-35)
(-0.231058 0.0233606 -3.22678e-17)
(-0.23545 0.0239474 -3.0654e-17)
(-0.242436 0.0247962 -2.84626e-17)
(-0.249618 0.0254559 -2.40741e-35)
(-0.25693 0.0260702 4.93995e-17)
(-0.263933 0.0266565 2.26552e-17)
(-0.271715 0.0273464 1.20371e-35)
(-0.281082 0.0281716 -3.51281e-17)
(-0.290386 0.0289013 -1.52844e-20)
(-0.300206 0.0295021 0)
(-0.305082 0.0304942 1.34159e-17)
(-0.332326 0.0321453 -7.64404e-18)
)
;
    }
    lowerWall
    {
        type            calculated;
        value           nonuniform List<vector> 
250
(
(-0.653909 0.466638 0)
(-1.14095 0.204678 0)
(-1.03492 0.0379586 0)
(-0.869573 -0.00093601 0)
(-0.786941 -0.00419165 0)
(-0.746063 -0.00160786 0)
(-0.719878 0.000416123 0)
(-0.700645 -0.000651874 0)
(-0.685088 -0.00405609 0)
(-0.671317 -0.0047124 0)
(-0.658932 -0.00298845 0)
(-0.647719 -0.000864494 0)
(-0.637516 0.00142585 0)
(-0.628189 0.00210367 0)
(-0.61932 0.00136771 0)
(-0.611521 0.00135745 0)
(-0.604582 0.00169536 0)
(-0.605063 0.00194522 0)
(-0.00423441 -0.0228286 0)
(-0.00275824 -0.017643 0)
(-0.000680273 -0.0144914 0)
(0.00193714 -0.0138 9.02482e-20)
(0.00525434 -0.0152143 -7.86498e-20)
(0.00895001 -0.020829 6.28492e-20)
(0.0127328 -0.0200754 -4.84724e-20)
(0.0256468 -0.0632979 0)
(-0.0839968 -0.14472 0)
(0.000872325 -0.00384022 0)
(-0.00766532 0.00954717 0)
(-0.008516 0.0328217 0)
(-0.00254933 0.0448554 0)
(0.00295341 0.0442615 1.82219e-20)
(0.00618275 0.036063 -1.89654e-20)
(0.00818722 0.024161 0)
(0.0094605 0.0101605 -5.42281e-20)
(0.00943162 -0.00404251 6.11421e-20)
(0.00793323 -0.0174225 0)
(0.00614116 -0.029195 0)
(0.00438166 -0.0385625 0)
(0.00268697 -0.0451394 0)
(0.000986044 -0.0488779 0)
(-0.000886852 -0.0495133 0)
(-0.00281899 -0.0463963 0)
(-0.0043976 -0.0399073 0)
(-0.00491328 -0.0307468 0)
(0.00132868 -0.00151191 0)
(0.00133789 0.00652726 0)
(-0.00450926 0.00961864 0)
(-0.0095972 0.00975648 0)
(-0.0133831 0.00829949 0)
(-0.0158893 0.00623518 0)
(-0.0172643 0.0040976 1.4957e-21)
(-0.0177829 0.00200609 -1.52731e-21)
(-0.0173314 -7.01363e-06 0)
(-0.0160539 -0.00168626 -1.65305e-21)
(-0.0141884 -0.00283754 0)
(-0.0120504 -0.0032964 0)
(-0.0100507 -0.00303581 -0)
(-0.00855309 -0.0022802 2.57027e-21)
(-0.00761644 -0.00142299 0)
(-0.00693814 -0.000815808 0)
(-0.00612062 -0.000623402 -3.37816e-21)
(-0.00499297 -0.00100046 0)
(-0.00340857 -0.00238601 0)
(-0.000488526 -0.00505772 0)
(0.00436097 -0.00740375 3.03298e-21)
(0.00994596 -0.00889522 0)
(0.015847 -0.00985004 1.4691e-21)
(0.0218925 -0.010617 0)
(0.0280983 -0.011269 -0)
(0.0344087 -0.0115143 8.44687e-22)
(0.0405411 -0.0113546 0)
(0.0491491 -0.0116033 -7.54037e-22)
(0.0589393 -0.0117553 -0)
(0.0686335 -0.0115827 7.70699e-22)
(0.0780425 -0.011169 0)
(0.0870154 -0.0105841 0)
(0.0954597 -0.00989005 0)
(0.103318 -0.00913657 -0)
(0.110564 -0.0083607 0)
(0.117197 -0.00758953 -8.11155e-22)
(0.12323 -0.00684042 -0)
(0.128686 -0.00612272 1.63309e-21)
(0.133592 -0.00544039 0)
(0.137974 -0.00479407 -1.63496e-21)
(0.141859 -0.00418207 -0)
(0.145272 -0.00360148 -0)
(0.148232 -0.00304948 1.62105e-21)
(0.150758 -0.00252408 0)
(0.152864 -0.00202409 1.60084e-21)
(0.154562 -0.00155027 -1.58752e-21)
(0.155864 -0.00110624 -0)
(0.156782 -0.000698799 -1.55491e-21)
(0.157328 -0.000337855 -1.53587e-21)
(0.157514 -3.98217e-05 -0)
(0.157409 0.000194803 0)
(0.157077 0.000391524 0)
(0.156523 0.000568237 0)
(0.155762 0.000731149 -0)
(0.154801 0.000884208 1.37581e-21)
(0.153649 0.00102833 0)
(0.152313 0.00116402 -1.30702e-21)
(0.1508 0.00129168 -0)
(0.149117 0.00141134 -0)
(0.147272 0.00152291 1.19057e-21)
(0.145272 0.00162645 0)
(0.143127 0.00172196 -1.10487e-21)
(0.140843 0.0018094 -0)
(0.13843 0.0018887 0)
(0.135896 0.00195992 -0)
(0.13325 0.00202321 9.16851e-22)
(0.130502 0.00207858 0)
(0.12766 0.00212614 -0)
(0.124734 0.0021661 7.63806e-22)
(0.121732 0.0021986 0)
(0.118666 0.00222381 6.57271e-22)
(0.115542 0.00224201 0)
(0.112371 0.00225346 0)
(0.10916 0.00225842 0)
(0.105919 0.00225712 -4.3619e-22)
(0.102657 0.00224996 -0)
(0.0993801 0.00223718 0)
(0.0960975 0.00221911 -2.65589e-22)
(0.0928163 0.0021962 -2.08141e-22)
(0.0895435 0.00216868 -0)
(0.0862859 0.00213694 -9.26755e-23)
(0.0830501 0.00210143 -0)
(0.0798416 0.0020624 4.65573e-23)
(0.0766665 0.00202029 -0)
(0.0735294 0.00197553 2.78973e-22)
(0.0704357 0.00192861 0)
(0.0673888 0.00188013 -5.11651e-22)
(0.0643931 0.00183074 -0)
(0.0614516 0.00178153 0)
(0.0585669 0.00173377 -0)
(0.0557411 0.00168923 9.78416e-22)
(0.0529751 0.00164993 0)
(0.0502699 0.00161809 -1.21385e-21)
(0.0476237 0.00159483 0)
(0.0457849 0.00160345 1.4756e-21)
(0.0442425 0.00162102 1.6341e-21)
(0.0427034 0.00162593 1.79902e-21)
(0.0411761 0.00161305 0)
(0.0396656 0.00158973 0)
(0.0381719 0.00156403 0)
(0.0366937 0.00153822 0)
(0.0352308 0.00151251 0)
(0.0337837 0.00148691 0)
(0.0323527 0.00146145 0)
(0.0309385 0.0014362 0)
(0.0295416 0.00141138 -3.69177e-21)
(0.0281622 0.00138719 -3.96741e-21)
(0.0268005 0.00136375 0)
(0.0254567 0.0013408 0)
(0.024131 0.00131673 0)
(0.0228253 0.00129184 -5.26736e-21)
(0.021539 0.00126763 0)
(0.0202724 0.00124397 0)
(0.0190253 0.00122092 0)
(0.017798 0.00119849 0)
(0.0165903 0.00117677 7.53599e-21)
(0.0154024 0.00115581 0)
(0.0142342 0.00113573 0)
(0.0130856 0.00111662 -9.45486e-21)
(0.0119565 0.00109852 1.02324e-20)
(0.0108469 0.00108151 0)
(0.00975666 0.0010659 1.20688e-20)
(0.00868578 0.00105231 0)
(0.00763387 0.00104194 -1.44074e-20)
(0.00660024 0.00103506 0)
(0.00558458 0.00103066 0)
(0.0045868 0.00102845 0)
(0.0036065 0.00102875 0)
(0.00264323 0.00103179 0)
(0.00169745 0.00103752 5.57141e-20)
(0.000770663 0.00104311 6.4226e-20)
(-0.000139182 0.00103037 0)
(-0.00103651 0.000987521 0)
(-0.00191837 0.000935128 0)
(-0.00278472 0.000885634 -5.28836e-20)
(-0.00363547 0.000840712 0)
(-0.0044704 0.000799957 0)
(-0.00528991 0.00076289 0)
(-0.00609457 0.000729009 -4.04126e-20)
(-0.00688495 0.000697861 3.8363e-20)
(-0.00766154 0.000669059 0)
(-0.00842479 0.000642305 0)
(-0.00917518 0.000617351 3.3616e-20)
(-0.00991313 0.000594003 3.2376e-20)
(-0.0106391 0.000572088 0)
(-0.0113534 0.000551477 0)
(-0.0120567 0.000532055 -2.93514e-20)
(-0.0127491 0.000513727 2.85238e-20)
(-0.0134313 0.000496412 0)
(-0.0141036 0.00048004 0)
(-0.0147664 0.000464549 2.64345e-20)
(-0.0154202 0.000449887 0)
(-0.0160655 0.00043601 0)
(-0.0167027 0.000422868 2.47896e-20)
(-0.0173322 0.000410437 0)
(-0.0179545 0.000398674 2.38737e-20)
(-0.01857 0.000387547 0)
(-0.0191794 0.000377031 0)
(-0.0197829 0.000367091 0)
(-0.0203811 0.000357693 -2.23581e-20)
(-0.0209743 0.000348814 0)
(-0.0215631 0.000340408 0)
(-0.0221477 0.000332414 0)
(-0.0227286 0.000324786 0)
(-0.023306 0.000317409 0)
(-0.0238796 0.000310201 0)
(-0.0244497 0.000303023 -2.03852e-20)
(-0.0250157 0.000295645 -2.01549e-20)
(-0.0255768 0.000287807 0)
(-0.0261314 0.00027916 0)
(-0.0266778 0.000269129 0)
(-0.027212 0.000256963 1.93603e-20)
(-0.0277291 0.000241506 0)
(-0.0282211 0.000221285 -3.81346e-20)
(-0.028678 0.000192218 3.79283e-20)
(-0.029071 0.00015258 3.78193e-20)
(-0.029402 7.7847e-05 -3.7858e-20)
(-0.0294837 -3.94273e-05 3.8045e-20)
(-0.0295082 -0.000356593 -3.83974e-20)
(-0.0279736 -0.000616909 0)
(-0.0293462 -0.000516233 -2.43317e-18)
(-0.0327699 -0.00134241 -2.26976e-18)
(-0.0364134 -0.0020334 0)
(-0.0395341 -0.0025761 -4.06085e-18)
(-0.0424841 -0.0030186 -7.7578e-18)
(-0.0455565 -0.00342189 -3.71958e-18)
(-0.0487806 -0.0038182 3.56815e-18)
(-0.0521122 -0.00430629 -3.00927e-35)
(-0.0555987 -0.0047267 3.00927e-36)
(-0.0593176 -0.00501586 3.15087e-18)
(-0.0632364 -0.00546695 3.03178e-18)
(-0.0674432 -0.00591652 0)
(-0.0719414 -0.00626695 0)
(-0.076762 -0.00669455 0)
(-0.0819513 -0.00718662 1.07675e-35)
(-0.087565 -0.00773049 -4.23648e-35)
(-0.0936773 -0.00833398 1.20371e-35)
(-0.100343 -0.00900012 -4.15821e-18)
(-0.107703 -0.00972315 -3.81245e-18)
(-0.116765 -0.0106183 0)
(-0.127579 -0.0116231 6.13726e-18)
(-0.138431 -0.0127309 1.035e-17)
(-0.153655 -0.0139249 0)
(-0.162853 -0.0152923 -5.09848e-18)
(-0.191967 -0.0169805 3.00927e-36)
)
;
    }
    frontAndBack
    {
        type            empty;
    }
}


// ************************************************************************* //
