/*--------------------------------*- C++ -*----------------------------------*\
  =========                 |
  \\      /  F ield         | OpenFOAM: The Open Source CFD Toolbox
   \\    /   O peration     | Website:  https://openfoam.org
    \\  /    A nd           | Version:  8
     \\/     M anipulation  |
\*---------------------------------------------------------------------------*/
FoamFile
{
    version     2.0;
    format      ascii;
    class       volScalarField;
    location    "1500";
    object      nut;
}
// * * * * * * * * * * * * * * * * * * * * * * * * * * * * * * * * * * * * * //

dimensions      [0 2 -1 0 0 0 0];

internalField   nonuniform List<scalar> 
12225
(
1.58e-05
1.87225e-05
1.90619e-05
1.93306e-05
2.18057e-05
1.43851e-05
3.26822e-05
2.58353e-05
2.6923e-05
3.48923e-05
3.88463e-05
3.63763e-05
2.77926e-05
2.30044e-05
2.25598e-05
1.89453e-05
1.82784e-05
1.76285e-05
0.000319516
5.73578e-05
5.65625e-05
4.18991e-05
4.61518e-05
4.3066e-05
5.22219e-05
5.42602e-05
4.73124e-05
5.40324e-05
5.33515e-05
5.57107e-05
5.29656e-05
5.53919e-05
5.7561e-05
5.62611e-05
5.43871e-05
5.6458e-05
0.00209048
0.00031277
0.000245119
0.00016594
0.00014406
0.000125979
0.000112814
0.000105267
9.54687e-05
9.01157e-05
8.48292e-05
8.37046e-05
7.79914e-05
7.75082e-05
7.67701e-05
7.4276e-05
7.18905e-05
6.989e-05
0.00189477
0.000850093
0.000663035
0.000506478
0.000424664
0.000364551
0.000324928
0.000292404
0.000267327
0.000246421
0.000231228
0.000217614
0.00020782
0.00019678
0.000190097
0.000180856
0.00017538
0.000167026
0.00143113
0.00117443
0.00103083
0.000893275
0.000792635
0.000705416
0.000646077
0.000590167
0.000550004
0.00051048
0.0004841
0.000455523
0.000437306
0.000414918
0.000401506
0.000383057
0.000373276
0.00035741
0.00130075
0.0012539
0.00119768
0.00112476
0.00106058
0.000992565
0.000939665
0.00088472
0.00084259
0.000798003
0.000765992
0.000730705
0.000706514
0.000677587
0.000659061
0.000634436
0.000620658
0.000599213
0.00126213
0.00125802
0.00124187
0.00121605
0.00118903
0.00115532
0.00112507
0.00108948
0.00105933
0.00102521
0.000998141
0.000967748
0.000944878
0.000918034
0.000899104
0.000875046
0.000859901
0.000838077
0.0012534
0.00125094
0.00124857
0.0012389
0.00122781
0.00121282
0.00119774
0.00117842
0.00116062
0.00113904
0.00112058
0.00109917
0.00108193
0.00106152
0.00104614
0.00102674
0.00101363
0.000995123
0.00125006
0.00124892
0.00124762
0.0012443
0.00124033
0.00123402
0.00122704
0.00121861
0.00120938
0.0011975
0.00118659
0.0011735
0.00116231
0.00114875
0.00113796
0.0011242
0.00111441
0.00110048
0.0012492
0.00124794
0.001247
0.0012454
0.00124389
0.00124139
0.00123877
0.00123504
0.0012313
0.00122609
0.00122068
0.00121455
0.00120846
0.00120117
0.00119485
0.00118689
0.00118058
0.00117207
0.00124901
0.00124769
0.00124664
0.00124542
0.00124439
0.00124308
0.00124187
0.00124023
0.00123861
0.00123649
0.00123428
0.00123155
0.00122891
0.00122567
0.00122256
0.00121894
0.00121573
0.00121151
0.00124895
0.00124766
0.00124652
0.00124536
0.00124434
0.00124327
0.00124231
0.00124126
0.00124028
0.00123916
0.00123808
0.0012368
0.0012356
0.00123415
0.00123281
0.00123115
0.00122969
0.00122779
0.00124893
0.00124766
0.00124648
0.00124534
0.00124428
0.00124324
0.00124229
0.00124134
0.00124046
0.00123957
0.00123874
0.00123788
0.00123707
0.00123622
0.00123542
0.00123454
0.00123373
0.00123281
0.00124893
0.00124766
0.00124646
0.00124532
0.00124425
0.00124321
0.00124224
0.0012413
0.00124042
0.00123956
0.00123876
0.00123797
0.00123723
0.0012365
0.00123581
0.00123513
0.00123448
0.00123383
0.00124892
0.00124766
0.00124646
0.00124531
0.00124423
0.00124319
0.00124221
0.00124127
0.00124038
0.00123952
0.00123871
0.00123793
0.00123718
0.00123647
0.00123579
0.00123513
0.00123451
0.0012339
0.00124892
0.00124766
0.00124645
0.0012453
0.00124422
0.00124318
0.00124219
0.00124125
0.00124035
0.00123949
0.00123867
0.00123788
0.00123714
0.00123642
0.00123573
0.00123508
0.00123445
0.00123385
0.00124892
0.00124765
0.00124645
0.0012453
0.00124421
0.00124317
0.00124218
0.00124123
0.00124033
0.00123947
0.00123865
0.00123786
0.00123711
0.00123639
0.0012357
0.00123504
0.00123441
0.00123381
0.00124892
0.00124765
0.00124645
0.0012453
0.00124421
0.00124317
0.00124217
0.00124123
0.00124032
0.00123946
0.00123864
0.00123785
0.00123709
0.00123637
0.00123568
0.00123502
0.00123439
0.00123379
0.00124892
0.00124766
0.00124645
0.0012453
0.00124421
0.00124317
0.00124218
0.00124123
0.00124033
0.00123946
0.00123864
0.00123785
0.0012371
0.00123638
0.00123569
0.00123502
0.00123439
0.00123378
0.00124892
0.00124766
0.00124645
0.00124531
0.00124422
0.00124318
0.00124218
0.00124124
0.00124033
0.00123947
0.00123864
0.00123785
0.00123708
0.00123636
0.00123565
0.00123498
0.00123433
0.0012337
0.00124892
0.00124766
0.00124646
0.00124531
0.00124422
0.00124317
0.00124215
0.00124117
0.00124022
0.00123931
0.00123843
0.00123759
0.00123676
0.00123596
0.00123515
0.00123437
0.00123356
0.0012328
0.00124891
0.0012477
0.00124646
0.00124529
0.00124411
0.00124294
0.00124163
0.00124032
0.00123901
0.00123765
0.0012364
0.00123511
0.00123382
0.00123256
0.00123121
0.00122985
0.00122833
0.00122689
0.00124895
0.00124784
0.00124635
0.00124458
0.00124257
0.00124039
0.00123716
0.0012339
0.00123024
0.00122631
0.00122316
0.00121942
0.00121633
0.00121323
0.0012103
0.00120708
0.00120378
0.00120012
0.00124959
0.00124812
0.00124473
0.00123709
0.00122862
0.0012206
0.0012109
0.00120046
0.00118797
0.00117633
0.00116583
0.00115373
0.00114686
0.00113665
0.00112961
0.0011269
0.00112314
0.00111787
0.00125297
0.00124385
0.00121364
0.00118406
0.00115527
0.0011403
0.00111349
0.0010918
0.00106253
0.00104257
0.00101701
0.000990207
0.000976475
0.000966235
0.000966808
0.000962607
0.000952492
0.000942444
0.00125992
0.00122332
0.00111976
0.0010263
0.000974031
0.000934869
0.000895704
0.000853893
0.000817819
0.000792783
0.000753816
0.000722797
0.000709607
0.000708668
0.000703069
0.000694676
0.000681781
0.000670641
0.00127399
0.00112705
0.000866049
0.000716217
0.000642423
0.000589538
0.000548773
0.00051023
0.000481168
0.00045472
0.000424187
0.000411381
0.000405862
0.000402598
0.000395919
0.000389702
0.000380894
0.000374141
0.00132122
0.00076399
0.000418549
0.000313696
0.000267372
0.000238768
0.00022013
0.000204743
0.000190944
0.00018211
0.000174213
0.000167611
0.000165254
0.000164071
0.000163841
0.000162458
0.000161344
0.000160694
0.00103106
0.000177504
0.000109129
8.92556e-05
7.77146e-05
7.27214e-05
6.97102e-05
6.73212e-05
6.69681e-05
6.77865e-05
6.93396e-05
7.12502e-05
7.34996e-05
7.52825e-05
7.7091e-05
7.84874e-05
7.84937e-05
7.83388e-05
1.39817e-05
1.7471e-05
2.02926e-05
2.19941e-05
2.29897e-05
2.32362e-05
2.33612e-05
2.3226e-05
2.29755e-05
2.26851e-05
2.23903e-05
2.21071e-05
2.18452e-05
2.16056e-05
2.13883e-05
2.11925e-05
2.10184e-05
2.0866e-05
1.68531e-12
1.908e-10
9.70567e-10
3.8081e-09
1.26591e-08
3.80881e-08
9.95012e-08
1.97483e-07
3.19494e-07
4.47772e-07
5.62607e-07
6.51489e-07
7.10535e-07
7.32526e-07
7.22709e-07
6.93088e-07
6.37569e-07
5.44882e-07
4.64486e-07
3.95063e-07
3.29139e-07
2.64987e-07
2.02959e-07
1.45445e-07
9.43586e-08
5.49493e-08
2.89864e-08
1.45205e-08
7.37214e-09
4.02627e-09
2.46608e-09
1.90717e-09
2.3253e-09
5.02594e-09
1.13854e-08
6.48142e-08
1.46967e-07
3.10739e-07
4.50206e-07
4.68467e-07
4.27552e-07
3.41378e-07
2.93168e-07
3.00094e-07
3.39267e-07
4.77399e-07
6.74455e-07
1.48424e-06
3.55145e-06
1.12625e-05
2.54268e-05
3.72308e-05
4.3014e-05
4.45833e-05
4.40201e-05
3.54885e-05
4.09187e-05
4.12576e-05
3.35318e-05
3.52042e-05
3.66839e-05
3.07638e-05
3.32383e-05
3.33612e-05
3.4171e-05
3.46856e-05
3.53467e-05
3.5889e-05
3.64915e-05
3.70396e-05
3.7608e-05
3.81526e-05
3.87015e-05
3.92397e-05
3.9777e-05
4.0309e-05
4.0839e-05
4.13655e-05
4.18909e-05
4.2413e-05
4.29351e-05
4.34539e-05
4.39737e-05
4.44899e-05
4.50083e-05
4.55229e-05
4.60404e-05
4.65538e-05
4.70684e-05
4.75786e-05
4.80882e-05
4.85962e-05
4.91028e-05
4.96064e-05
5.01073e-05
5.06043e-05
5.10984e-05
5.15903e-05
5.20842e-05
5.25856e-05
5.30946e-05
5.3601e-05
5.41124e-05
5.46283e-05
5.51492e-05
5.56763e-05
5.62094e-05
5.675e-05
5.72976e-05
5.78541e-05
5.8419e-05
5.89943e-05
5.95795e-05
6.01769e-05
6.07859e-05
6.14093e-05
6.20462e-05
6.26998e-05
6.33694e-05
6.40582e-05
6.47657e-05
6.54955e-05
6.62473e-05
6.70246e-05
6.78276e-05
6.86599e-05
6.95218e-05
7.04234e-05
7.13731e-05
7.23321e-05
7.33637e-05
7.44064e-05
7.55296e-05
7.67148e-05
7.79617e-05
7.92561e-05
7.9128e-05
7.88697e-05
7.85951e-05
7.83089e-05
7.80104e-05
7.77006e-05
7.73809e-05
7.70522e-05
7.6708e-05
7.63669e-05
7.59988e-05
7.56423e-05
7.52533e-05
7.48814e-05
7.4473e-05
7.4088e-05
7.36628e-05
7.32671e-05
7.2829e-05
7.2419e-05
7.19833e-05
7.15541e-05
7.11206e-05
7.06858e-05
7.02508e-05
6.98154e-05
6.93803e-05
6.89458e-05
6.85126e-05
6.80813e-05
6.76527e-05
6.72277e-05
6.6807e-05
6.63908e-05
6.59794e-05
6.55726e-05
6.51686e-05
6.47652e-05
6.43574e-05
6.39401e-05
6.35007e-05
6.30072e-05
6.24077e-05
6.07462e-05
7.44058e-12
1.21353e-09
1.62915e-08
8.58989e-08
3.76544e-07
1.19796e-06
2.7845e-06
5.09358e-06
7.89039e-06
1.10724e-05
1.42865e-05
1.72551e-05
1.97677e-05
2.16667e-05
2.27628e-05
2.30941e-05
2.27432e-05
2.19071e-05
1.96339e-05
1.6422e-05
1.26396e-05
9.28612e-06
6.53536e-06
4.39849e-06
2.76737e-06
1.70752e-06
1.04343e-06
6.49149e-07
4.05032e-07
2.69759e-07
1.96748e-07
1.76572e-07
1.7483e-07
3.41706e-07
5.61438e-07
3.75284e-06
8.37844e-06
1.61741e-05
2.15709e-05
2.30958e-05
2.16878e-05
1.9377e-05
1.70752e-05
1.66022e-05
1.72024e-05
1.80013e-05
2.24581e-05
3.14705e-05
4.27843e-05
5.40488e-05
6.51117e-05
7.41558e-05
8.22653e-05
9.10334e-05
0.000103497
0.000111698
0.000125702
0.000140419
0.000150963
0.000165782
0.00018139
0.000191035
0.000205403
0.000217673
0.000229977
0.00024184
0.000253396
0.000264413
0.000274983
0.000285263
0.000295204
0.000304899
0.000314336
0.00032357
0.000332603
0.000341464
0.000350161
0.000358708
0.000367114
0.000375384
0.000383526
0.000391543
0.00039944
0.00040722
0.000414889
0.000422446
0.0004299
0.000437247
0.000444494
0.000451634
0.000458665
0.000465592
0.000472411
0.000479112
0.000485675
0.000492069
0.000498249
0.000504136
0.000509623
0.000514548
0.000519062
0.000523612
0.00052797
0.000532257
0.000536409
0.000540455
0.000544376
0.000548178
0.000551853
0.000555401
0.000558816
0.000562098
0.000565241
0.000568244
0.000571103
0.000573816
0.000576379
0.000578789
0.000581044
0.000583141
0.000585078
0.000586852
0.000588459
0.000589899
0.000591169
0.000592267
0.000593189
0.000593936
0.000594522
0.000594923
0.000595198
0.000595184
0.000595051
0.00059482
0.000594585
0.000594312
0.000594177
0.000593908
0.000593484
0.000592909
0.00059219
0.000591326
0.000590316
0.000589145
0.000588101
0.000586518
0.000585314
0.000583443
0.000582025
0.000579894
0.000578257
0.000575882
0.00057403
0.000571437
0.000569375
0.000566712
0.000564223
0.000561584
0.00055888
0.000556124
0.000553307
0.00055044
0.000547523
0.000544559
0.000541552
0.000538507
0.000535432
0.000532332
0.000529213
0.000526079
0.000522928
0.000519765
0.000516559
0.000513281
0.000509883
0.000506291
0.000502364
0.000497779
0.000491811
0.000475113
1.84032e-11
3.12317e-09
5.87905e-08
3.4664e-07
1.20919e-06
2.97004e-06
6.32827e-06
1.09885e-05
1.67257e-05
2.32356e-05
3.01333e-05
3.69977e-05
4.31776e-05
4.83212e-05
5.21959e-05
5.47476e-05
5.6113e-05
5.64103e-05
5.48735e-05
5.19508e-05
4.72559e-05
4.12174e-05
3.39602e-05
2.66807e-05
2.00392e-05
1.43084e-05
9.7289e-06
6.4902e-06
4.13732e-06
2.77751e-06
1.96724e-06
1.62849e-06
1.36093e-06
2.53701e-06
5.01427e-06
1.89264e-05
3.90002e-05
5.60601e-05
6.35638e-05
6.04617e-05
4.77516e-05
4.06206e-05
4.21566e-05
4.91597e-05
5.68647e-05
6.74795e-05
8.0729e-05
9.33337e-05
0.000107566
0.000125521
0.000144943
0.000167014
0.000191625
0.000219651
0.000250101
0.000279478
0.000313145
0.000344527
0.000374579
0.000405078
0.000434142
0.000461171
0.000488069
0.00051312
0.00053727
0.000560712
0.000583126
0.000604644
0.00062548
0.000645732
0.000665441
0.000684698
0.000703534
0.000722003
0.000740132
0.00075795
0.000775476
0.000792727
0.000809714
0.000826447
0.000842932
0.000859177
0.000875185
0.000890961
0.000906508
0.000921828
0.000936923
0.000951792
0.000966431
0.000980833
0.000994987
0.00100889
0.00102253
0.00103588
0.00104892
0.0010616
0.00107389
0.00108573
0.00109711
0.00110806
0.00111876
0.00112928
0.00113953
0.00114956
0.00115933
0.00116886
0.00117812
0.00118712
0.00119584
0.00120429
0.00121245
0.00122032
0.00122789
0.00123515
0.0012421
0.00124873
0.00125504
0.00126102
0.00126667
0.00127198
0.00127694
0.00128155
0.00128581
0.00128971
0.00129326
0.00129644
0.00129925
0.0013017
0.00130379
0.00130551
0.00130688
0.00130787
0.00130847
0.00130879
0.0013091
0.00130907
0.00130883
0.00130826
0.00130735
0.0013061
0.00130453
0.00130265
0.00130046
0.00129799
0.00129535
0.0012922
0.00128909
0.00128535
0.00128174
0.00127744
0.00127334
0.00126849
0.00126393
0.00125859
0.00125358
0.00124791
0.0012423
0.00123645
0.00123045
0.00122432
0.00121807
0.00121171
0.00120524
0.00119868
0.00119203
0.0011853
0.00117851
0.00117167
0.00116481
0.00115792
0.001151
0.00114405
0.00113703
0.00112988
0.00112248
0.00111468
0.00110616
0.00109613
0.00108278
0.00105242
7.13807e-11
1.20464e-08
1.8991e-07
8.2691e-07
2.5348e-06
7.01331e-06
1.3876e-05
2.30816e-05
3.39353e-05
4.53342e-05
5.63833e-05
6.6545e-05
7.51889e-05
8.17275e-05
8.66024e-05
8.96578e-05
9.08337e-05
9.05279e-05
8.88737e-05
8.56604e-05
8.10447e-05
7.54243e-05
6.79626e-05
5.90598e-05
4.9264e-05
3.94241e-05
3.04121e-05
2.28982e-05
1.71211e-05
1.25546e-05
9.70389e-06
7.44028e-06
8.3594e-06
1.34662e-05
2.94577e-05
5.35078e-05
7.14726e-05
7.77389e-05
7.51702e-05
7.31863e-05
7.43863e-05
7.92754e-05
8.80865e-05
0.00010042
0.000114803
0.000127898
0.000150369
0.000173178
0.000202632
0.000236002
0.000273159
0.000313805
0.000357101
0.000402327
0.000448317
0.000493932
0.000539824
0.000583656
0.00062609
0.000667635
0.000706938
0.000744569
0.000780997
0.000816186
0.000849922
0.000882533
0.000914074
0.000944704
0.000974551
0.0010037
0.00103223
0.00106021
0.00108768
0.00111468
0.00114125
0.00116741
0.00119318
0.00121857
0.0012436
0.00126825
0.00129256
0.0013165
0.0013401
0.00136334
0.00138624
0.00140878
0.00143097
0.00145281
0.00147428
0.00149538
0.0015161
0.00153642
0.00155634
0.00157584
0.0015949
0.0016135
0.00163163
0.00164928
0.00166647
0.00168326
0.00169971
0.00171582
0.00173156
0.00174694
0.00176193
0.00177653
0.00179074
0.00180454
0.00181792
0.00183088
0.0018434
0.00185548
0.0018671
0.00187827
0.00188897
0.00189919
0.00190893
0.00191817
0.00192692
0.00193516
0.0019429
0.00195012
0.00195682
0.00196299
0.00196864
0.00197376
0.00197836
0.00198242
0.00198596
0.00198895
0.00199144
0.00199339
0.00199477
0.00199579
0.00199654
0.00199676
0.00199654
0.00199583
0.00199463
0.00199294
0.00199078
0.00198817
0.00198511
0.00198164
0.00197778
0.00197341
0.00196877
0.00196359
0.00195818
0.0019522
0.00194604
0.00193929
0.00193241
0.00192493
0.0019174
0.00190932
0.00190109
0.00189258
0.00188383
0.00187489
0.00186576
0.00185645
0.00184699
0.00183738
0.00182763
0.00181777
0.00180782
0.0017978
0.00178773
0.00177763
0.00176749
0.0017573
0.00174702
0.00173657
0.00172582
0.00171455
0.00170236
0.00168811
0.00166942
0.00163345
2.43092e-10
3.6088e-08
4.20932e-07
1.99803e-06
6.8811e-06
1.6502e-05
3.05055e-05
4.71372e-05
6.44615e-05
8.08022e-05
9.48966e-05
0.000105705
0.00011372
0.000119277
0.000122401
0.000123679
0.000123333
0.000121555
0.000118538
0.000114303
0.000108896
0.000102757
9.52645e-05
8.64435e-05
7.62959e-05
6.51323e-05
5.38458e-05
4.3662e-05
3.53131e-05
2.79477e-05
2.24708e-05
2.18004e-05
2.84738e-05
4.77767e-05
7.14617e-05
8.61824e-05
9.33388e-05
9.67765e-05
0.000100154
0.000106266
0.000116507
0.000131843
0.000143998
0.000158524
0.000183257
0.000213092
0.000248338
0.000288181
0.000334242
0.000383269
0.000435602
0.000489957
0.000545555
0.000601483
0.000657063
0.000711823
0.000765502
0.000817416
0.000867808
0.000916409
0.000963537
0.00100915
0.00105319
0.00109587
0.00113722
0.00117744
0.00121661
0.00125486
0.0012923
0.00132899
0.00136501
0.00140041
0.00143523
0.00146952
0.00150329
0.00153656
0.00156934
0.00160164
0.00163348
0.00166484
0.00169573
0.00172616
0.00175612
0.00178562
0.00181464
0.0018432
0.00187128
0.00189888
0.001926
0.00195263
0.00197876
0.00200438
0.00202948
0.00205407
0.00207813
0.00210166
0.00212467
0.00214717
0.00216917
0.0021907
0.00221177
0.00223237
0.00225249
0.00227212
0.00229125
0.00230988
0.00232798
0.00234555
0.00236257
0.00237905
0.00239497
0.00241031
0.00242508
0.00243926
0.00245284
0.00246583
0.0024782
0.00248995
0.00250108
0.00251158
0.00252145
0.00253068
0.00253927
0.00254721
0.00255451
0.00256116
0.00256716
0.00257253
0.00257726
0.00258129
0.00258472
0.00258748
0.00258955
0.00259124
0.00259239
0.00259292
0.00259286
0.0025922
0.00259095
0.0025891
0.00258669
0.00258372
0.0025802
0.00257617
0.00257161
0.00256652
0.00256097
0.00255489
0.00254838
0.00254133
0.00253388
0.00252589
0.00251753
0.00250865
0.00249947
0.00248981
0.00247984
0.00246954
0.00245894
0.00244807
0.00243696
0.00242562
0.00241407
0.00240233
0.0023904
0.00237832
0.00236612
0.00235381
0.0023414
0.00232894
0.00231641
0.00230383
0.00229114
0.00227827
0.00226511
0.0022514
0.00223677
0.00222006
0.00219847
0.00216233
7.77438e-10
8.85884e-08
1.06215e-06
5.37401e-06
1.74535e-05
3.67071e-05
5.97275e-05
8.31759e-05
0.000103525
0.000119516
0.00013142
0.000140207
0.000145657
0.00014862
0.000149611
0.00014902
0.000147097
0.000144029
0.000139952
0.000134827
0.000128801
0.000122126
0.000114285
0.000105375
9.37004e-05
7.79388e-05
6.27043e-05
4.86175e-05
3.73534e-05
3.30632e-05
3.54567e-05
4.93708e-05
7.22314e-05
9.32657e-05
0.000107532
0.000116301
0.000122373
0.000129632
0.0001415
0.000159772
0.000169241
0.00018505
0.00021076
0.000241499
0.000280026
0.000324297
0.000374157
0.000428243
0.000486087
0.000545841
0.000607388
0.000669681
0.000732159
0.000794202
0.000855438
0.000915643
0.0009742
0.00103123
0.00108724
0.00114145
0.00119416
0.00124541
0.00129525
0.00134379
0.00139112
0.00143735
0.00148258
0.0015269
0.00157039
0.00161312
0.00165514
0.0016965
0.00173723
0.00177735
0.00181688
0.00185583
0.0018942
0.00193201
0.00196925
0.00200591
0.00204201
0.00207753
0.00211248
0.00214685
0.00218064
0.00221386
0.0022465
0.00227856
0.00231003
0.00234091
0.00237119
0.00240087
0.00242996
0.00245845
0.00248634
0.00251363
0.00254034
0.00256647
0.00259203
0.00261702
0.00264145
0.00266531
0.00268858
0.00271126
0.00273334
0.0027548
0.00277565
0.00279586
0.00281544
0.00283437
0.00285264
0.00287024
0.00288716
0.00290341
0.00291896
0.00293383
0.00294799
0.00296145
0.00297421
0.00298625
0.00299757
0.00300818
0.00301807
0.00302723
0.00303568
0.00304341
0.00305042
0.00305676
0.00306234
0.00306717
0.00307134
0.00307475
0.00307741
0.00307965
0.0030812
0.00308207
0.00308228
0.00308182
0.00308071
0.00307896
0.00307658
0.00307359
0.00306999
0.0030658
0.00306103
0.00305569
0.00304981
0.00304336
0.00303639
0.00302887
0.00302085
0.00301229
0.00300325
0.00299369
0.00298369
0.00297323
0.00296238
0.00295114
0.00293956
0.00292765
0.00291545
0.00290298
0.00289025
0.00287727
0.00286408
0.00285069
0.00283713
0.00282343
0.00280962
0.00279572
0.00278174
0.00276768
0.00275351
0.00273918
0.00272457
0.00270948
0.00269354
0.00267578
0.00265352
0.00261954
2.50688e-09
2.27374e-07
2.8139e-06
1.46601e-05
3.80658e-05
6.74367e-05
9.53162e-05
0.000117919
0.000134976
0.000147803
0.000156841
0.000162377
0.000165314
0.000166299
0.000165768
0.000164009
0.000161205
0.000157443
0.000152662
0.000146786
0.000140071
0.000132251
0.000123098
0.00010647
9.09945e-05
7.73192e-05
6.53783e-05
5.76382e-05
5.81331e-05
6.73376e-05
8.15798e-05
0.000107222
0.00012361
0.000136002
0.000145251
0.000153975
0.000166251
0.000183576
0.000191885
0.000207794
0.000232221
0.000262248
0.000300583
0.000345045
0.000396486
0.000452659
0.000512745
0.000575502
0.00064025
0.000706049
0.000772534
0.000839075
0.000905282
0.000970803
0.00103503
0.00109816
0.00116049
0.00122122
0.00128065
0.00133864
0.00139525
0.00145054
0.00150456
0.00155738
0.0016091
0.00165978
0.00170951
0.00175835
0.00180638
0.00185364
0.00190018
0.00194602
0.0019912
0.00203571
0.00207958
0.0021228
0.00216537
0.0022073
0.00224857
0.00228917
0.00232912
0.0023684
0.00240701
0.00244495
0.00248223
0.00251883
0.00255478
0.00259005
0.00262466
0.0026586
0.00269187
0.00272447
0.0027564
0.00278767
0.00281827
0.00284821
0.00287748
0.00290607
0.00293401
0.0029613
0.00298794
0.00301391
0.00303923
0.00306387
0.00308783
0.00311111
0.00313369
0.00315556
0.00317673
0.00319718
0.00321692
0.00323595
0.00325425
0.00327181
0.00328863
0.00330469
0.00332001
0.00333456
0.00334836
0.00336139
0.00337367
0.00338518
0.00339592
0.00340591
0.00341513
0.00342359
0.00343131
0.00343835
0.00344452
0.00344996
0.00345469
0.0034586
0.00346178
0.00346445
0.00346638
0.00346759
0.00346811
0.00346794
0.00346708
0.00346555
0.00346336
0.00346054
0.0034571
0.0034531
0.00344851
0.00344332
0.00343755
0.0034312
0.00342429
0.00341682
0.0034088
0.00340023
0.00339113
0.00338149
0.00337138
0.00336077
0.00334973
0.00333827
0.00332643
0.00331422
0.00330168
0.00328882
0.00327567
0.00326222
0.00324852
0.00323458
0.00322044
0.00320612
0.00319166
0.00317707
0.00316239
0.0031476
0.0031327
0.00311766
0.00310238
0.00308671
0.00307038
0.00305261
0.0030313
0.00300051
7.57761e-09
6.02845e-07
7.59373e-06
3.13092e-05
6.56916e-05
9.99812e-05
0.000128248
0.000149126
0.000163489
0.000172181
0.000176551
0.000178346
0.000178433
0.000177193
0.00017493
0.000171791
0.000167723
0.000162644
0.000156679
0.000149949
0.000142263
0.000133203
0.000115432
9.85239e-05
8.47535e-05
7.60195e-05
7.45259e-05
7.87585e-05
9.05737e-05
0.000112497
0.00013766
0.000160172
0.000173124
0.000183356
0.00019571
0.000204267
0.000212426
0.000227039
0.000248987
0.000277137
0.000313157
0.000355678
0.000405401
0.000460712
0.000521019
0.00058448
0.000650279
0.000717607
0.000785927
0.000854696
0.000923557
0.000992141
0.00105987
0.00112667
0.00119306
0.00125817
0.00132219
0.00138494
0.00144645
0.00150671
0.00156573
0.00162356
0.00168025
0.00173586
0.00179044
0.00184406
0.00189679
0.00194866
0.00199975
0.00205009
0.00209971
0.00214864
0.00219688
0.00224443
0.00229131
0.00233749
0.00238297
0.00242774
0.0024718
0.00251512
0.0025577
0.00259955
0.00264066
0.00268102
0.00272065
0.00275953
0.00279769
0.00283512
0.00287182
0.0029078
0.00294305
0.00297759
0.00301141
0.00304451
0.0030769
0.00310858
0.00313951
0.00316973
0.00319924
0.00322805
0.00325616
0.00328356
0.00331025
0.00333621
0.00336144
0.00338594
0.0034097
0.0034327
0.00345496
0.00347646
0.00349719
0.00351716
0.00353635
0.00355476
0.0035724
0.00358925
0.00360532
0.0036206
0.0036351
0.00364882
0.00366175
0.0036739
0.00368527
0.00369585
0.00370567
0.0037147
0.00372302
0.00373062
0.00373734
0.00374333
0.00374861
0.00375304
0.00375679
0.00375994
0.00376235
0.00376405
0.00376504
0.00376533
0.00376494
0.00376388
0.00376216
0.00375979
0.0037568
0.00375317
0.00374894
0.0037441
0.00373866
0.00373264
0.00372604
0.00371887
0.00371113
0.00370282
0.00369397
0.00368457
0.00367466
0.00366425
0.00365338
0.00364207
0.00363033
0.00361821
0.00360572
0.00359288
0.0035797
0.00356621
0.00355242
0.00353835
0.00352405
0.00350954
0.00349484
0.00348
0.00346502
0.00344993
0.00343471
0.00341937
0.00340388
0.00338822
0.00337209
0.0033549
0.00333498
0.00330797
1.97956e-08
1.50193e-06
1.68903e-05
5.25804e-05
9.32236e-05
0.000127606
0.000153541
0.000171036
0.000181932
0.000187527
0.000189266
0.000188288
0.000185564
0.000181802
0.000177378
0.000172392
0.000166758
0.000160525
0.000153585
0.000146158
0.000137942
0.000126428
0.000114832
0.000108185
0.000102455
9.93742e-05
0.000105798
0.000121774
0.000141893
0.000163171
0.00018287
0.000198948
0.000210189
0.000219332
0.00022922
0.000242849
0.00026214
0.000287707
0.000320481
0.000359869
0.000406101
0.000458279
0.000516052
0.000578043
0.000643211
0.000710341
0.000778809
0.00084809
0.000917785
0.00098754
0.00105697
0.0011256
0.00119392
0.00126147
0.00132813
0.00139372
0.00145824
0.00152163
0.00158388
0.001645
0.00170501
0.00176394
0.00182185
0.00187876
0.00193474
0.00198984
0.00204409
0.00209756
0.00215029
0.00220231
0.00225367
0.00230436
0.0023544
0.00240378
0.00245245
0.00250044
0.0025477
0.00259424
0.00264001
0.00268501
0.00272922
0.00277264
0.00281528
0.00285714
0.00289824
0.00293859
0.00297815
0.00301693
0.00305493
0.00309216
0.00312861
0.0031643
0.00319924
0.00323342
0.00326686
0.00329955
0.0033315
0.00336272
0.0033932
0.00342294
0.00345195
0.0034802
0.0035077
0.00353445
0.00356043
0.00358565
0.00361009
0.00363375
0.00365664
0.00367873
0.00370004
0.00372056
0.00374028
0.00375921
0.00377735
0.00379469
0.00381124
0.00382699
0.00384195
0.00385613
0.00386951
0.00388212
0.00389395
0.003905
0.00391527
0.00392479
0.00393361
0.00394166
0.0039489
0.00395541
0.00396121
0.00396619
0.00397052
0.0039742
0.00397717
0.00397943
0.003981
0.00398189
0.00398211
0.00398167
0.00398059
0.00397886
0.00397652
0.00397356
0.00397
0.00396584
0.00396109
0.00395577
0.00394987
0.00394339
0.00393635
0.00392875
0.00392059
0.00391189
0.00390266
0.00389293
0.00388272
0.00387205
0.00386095
0.00384944
0.00383753
0.00382524
0.00381259
0.00379958
0.00378625
0.00377261
0.00375869
0.00374453
0.00373016
0.00371559
0.00370087
0.00368599
0.00367099
0.00365585
0.00364057
0.00362509
0.0036093
0.00359272
0.00357405
0.00355033
4.41981e-08
3.47295e-06
3.04744e-05
7.64683e-05
0.000120651
0.000154563
0.000176797
0.000190669
0.000197243
0.000198385
0.000196016
0.000191523
0.000185832
0.000179515
0.000172759
0.000165542
0.000158005
0.000149818
0.000141647
0.000133171
0.000124645
0.000117124
0.000112536
0.000113238
0.000120364
0.000133174
0.000149447
0.000167367
0.000185501
0.000202373
0.000216295
0.000227971
0.000240524
0.000254447
0.000272418
0.000295326
0.000324618
0.000360342
0.00040245
0.000450408
0.000503892
0.000562155
0.000624454
0.00068966
0.000756839
0.000825206
0.000894294
0.000963738
0.00103325
0.00110224
0.00117079
0.00123913
0.00130666
0.00137334
0.0014391
0.00150386
0.00156759
0.00163026
0.00169188
0.00175246
0.001812
0.00187057
0.0019282
0.00198496
0.00204088
0.00209603
0.0021504
0.00220404
0.00225705
0.00230946
0.00236128
0.00241255
0.0024633
0.00251357
0.00256339
0.00261254
0.00266095
0.00270858
0.00275542
0.00280142
0.00284658
0.00289088
0.00293433
0.00297692
0.00301866
0.00305954
0.00309962
0.00313893
0.00317747
0.00321525
0.00325227
0.00328854
0.00332407
0.00335886
0.0033929
0.00342621
0.00345879
0.00349062
0.0035217
0.00355202
0.00358158
0.00361038
0.0036384
0.00366565
0.00369211
0.0037178
0.00374269
0.00376679
0.0037901
0.0038126
0.00383431
0.00385522
0.00387533
0.00389464
0.00391315
0.00393086
0.00394779
0.00396392
0.00397927
0.00399384
0.00400762
0.00402064
0.00403289
0.00404438
0.00405511
0.00406511
0.00407443
0.00408296
0.00409074
0.00409781
0.00410419
0.00410978
0.00411476
0.00411906
0.00412266
0.0041256
0.00412786
0.00412947
0.00413044
0.00413076
0.00413046
0.00412955
0.00412803
0.00412592
0.00412322
0.00411995
0.0041161
0.00411169
0.00410671
0.00410118
0.00409509
0.00408843
0.00408123
0.00407349
0.00406522
0.00405644
0.00404719
0.00403747
0.0040273
0.00401671
0.0040057
0.00399428
0.00398248
0.00397029
0.00395774
0.00394486
0.00393167
0.0039182
0.00390448
0.00389053
0.00387638
0.00386206
0.00384758
0.00383297
0.00381823
0.00380335
0.00378825
0.00377261
0.00375536
0.00373518
8.4058e-08
7.10633e-06
4.45445e-05
9.634e-05
0.000142155
0.00017546
0.000195977
0.000205555
0.000207624
0.000204803
0.000198985
0.000191474
0.000183058
0.000174111
0.00016532
0.000156544
0.000148597
0.000141544
0.000136152
0.000132178
0.000130631
0.000132428
0.000137965
0.000147256
0.000159688
0.000174318
0.000189987
0.000205684
0.00022007
0.000232761
0.000246633
0.000262235
0.000279902
0.000301048
0.000327396
0.000359366
0.000397223
0.000440649
0.000489278
0.000542625
0.000600226
0.000661415
0.000725425
0.000791382
0.000858559
0.00092641
0.000994567
0.00106264
0.00113018
0.00119767
0.00126455
0.00133077
0.00139614
0.00146058
0.00152405
0.00158651
0.00164798
0.00170846
0.00176795
0.00182649
0.001884
0.00194063
0.00199647
0.00205156
0.002106
0.0021599
0.00221349
0.00226672
0.00231944
0.00237163
0.00242331
0.00247448
0.00252518
0.00257535
0.00262491
0.00267391
0.00272225
0.00276989
0.00281681
0.00286295
0.00290828
0.00295278
0.00299643
0.00303926
0.00308127
0.0031225
0.00316297
0.00320267
0.00324161
0.00327981
0.00331727
0.00335399
0.00338998
0.00342523
0.00345976
0.00349355
0.0035266
0.0035589
0.00359045
0.00362125
0.00365128
0.00368053
0.00370901
0.00373671
0.00376362
0.00378974
0.00381507
0.00383959
0.00386332
0.00388624
0.00390836
0.00392968
0.0039502
0.00396992
0.00398885
0.00400698
0.00402433
0.00404089
0.00405669
0.00407171
0.00408596
0.00409947
0.00411222
0.00412422
0.00413548
0.00414606
0.00415592
0.00416504
0.00417346
0.00418119
0.00418823
0.00419456
0.00420027
0.00420531
0.00420968
0.0042134
0.00421648
0.00421894
0.00422078
0.00422201
0.00422263
0.00422267
0.00422213
0.00422101
0.00421933
0.0042171
0.00421432
0.00421099
0.00420712
0.0042027
0.00419773
0.00419221
0.00418615
0.00417955
0.00417244
0.00416482
0.00415672
0.00414816
0.00413914
0.00412968
0.0041198
0.00410948
0.00409875
0.00408761
0.00407609
0.0040642
0.00405197
0.00403943
0.0040266
0.00401351
0.00400018
0.00398664
0.00397291
0.00395903
0.00394503
0.00393091
0.00391666
0.00390202
0.0038861
0.00386894
1.34168e-07
1.21468e-05
6.11287e-05
0.000119529
0.00016578
0.000195977
0.000211974
0.000217473
0.000215961
0.000210118
0.000201881
0.000192311
0.000182869
0.000173743
0.000165916
0.0001591
0.000154132
0.000151387
0.000150747
0.000152471
0.000156813
0.000163784
0.000173159
0.00018453
0.000197374
0.000211039
0.000224486
0.000237239
0.000251094
0.000267439
0.000285605
0.000305869
0.000330077
0.000358853
0.000392733
0.000431651
0.000475391
0.000523563
0.000575786
0.000631645
0.000690683
0.000752313
0.000815869
0.00088067
0.000946146
0.00101188
0.00107721
0.00114232
0.00120706
0.00127117
0.00133452
0.00139702
0.00145855
0.001519
0.00157832
0.00163667
0.00169407
0.0017506
0.00180633
0.00186145
0.00191633
0.00197065
0.00202427
0.00207724
0.00212958
0.00218135
0.00223254
0.00228319