/*--------------------------------*- C++ -*----------------------------------*\
  =========                 |
  \\      /  F ield         | OpenFOAM: The Open Source CFD Toolbox
   \\    /   O peration     | Website:  https://openfoam.org
    \\  /    A nd           | Version:  8
     \\/     M anipulation  |
\*---------------------------------------------------------------------------*/
FoamFile
{
    version     2.0;
    format      ascii;
    class       volScalarField;
    location    "1500";
    object      p;
}
// * * * * * * * * * * * * * * * * * * * * * * * * * * * * * * * * * * * * * //

dimensions      [0 2 -2 0 0 0 0];

internalField   nonuniform List<scalar> 
12225
(
-4.2113
-5.10387
-5.49625
-5.62506
-5.76279
-5.92038
-6.05887
-6.16727
-6.25844
-6.34189
-6.41629
-6.48359
-6.54348
-6.60234
-6.66672
-6.73558
-6.81888
-6.91307
-4.45155
-5.12691
-5.46509
-5.59117
-5.7319
-5.88711
-6.02497
-6.13819
-6.23058
-6.31611
-6.39339
-6.45705
-6.51555
-6.57476
-6.63946
-6.7136
-6.78772
-6.84938
-4.67904
-5.13558
-5.45085
-5.59867
-5.74141
-5.89225
-6.02596
-6.13668
-6.2285
-6.31202
-6.38671
-6.45034
-6.51009
-6.57012
-6.63372
-6.70098
-6.76439
-6.81399
-4.84309
-5.16783
-5.46234
-5.61758
-5.75133
-5.89133
-6.01838
-6.12564
-6.21647
-6.29843
-6.37229
-6.43709
-6.49751
-6.55714
-6.61807
-6.67962
-6.7368
-6.78297
-4.97951
-5.22196
-5.48367
-5.63678
-5.76297
-5.89437
-6.01599
-6.12013
-6.20958
-6.28997
-6.3627
-6.42752
-6.48778
-6.54635
-6.60446
-6.66132
-6.71355
-6.75663
-5.10147
-5.28069
-5.50528
-5.65431
-5.77582
-5.89977
-6.01563
-6.11618
-6.20364
-6.28228
-6.35364
-6.41804
-6.47785
-6.53511
-6.59059
-6.64361
-6.69196
-6.73273
-5.21148
-5.34075
-5.52938
-5.67175
-5.78859
-5.90499
-6.01476
-6.11161
-6.1969
-6.27384
-6.34391
-6.4077
-6.46683
-6.52273
-6.57592
-6.62587
-6.67122
-6.7102
-5.29608
-5.39364
-5.55412
-5.6878
-5.79954
-5.9093
-6.01364
-6.10711
-6.19031
-6.26573
-6.33465
-6.39773
-6.45613
-6.51088
-6.56237
-6.61022
-6.65356
-6.69125
-5.36467
-5.44112
-5.57841
-5.70303
-5.8097
-5.91344
-6.0128
-6.10308
-6.18423
-6.25813
-6.32591
-6.3882
-6.44583
-6.49957
-6.54969
-6.59593
-6.63778
-6.67449
-5.43269
-5.49207
-5.60684
-5.72079
-5.82152
-5.91878
-6.01264
-6.09922
-6.17789
-6.24993
-6.31627
-6.37744
-6.43404
-6.48659
-6.53529
-6.58001
-6.62048
-6.65627
-5.49929
-5.54506
-5.6392
-5.74119
-5.83506
-5.92554
-6.01347
-6.09584
-6.17157
-6.24134
-6.30587
-6.36557
-6.42083
-6.47201
-6.51924
-6.56251
-6.60171
-6.63667
-5.56321
-5.59855
-5.67472
-5.76408
-5.85024
-5.93376
-6.01544
-6.09312
-6.16545
-6.23255
-6.2949
-6.35278
-6.40642
-6.45605
-6.50178
-6.54364
-6.5817
-6.61582
-5.62334
-5.6508
-5.71201
-5.78888
-5.86671
-5.94318
-6.01849
-6.09112
-6.15962
-6.2237
-6.28355
-6.33929
-6.39109
-6.43902
-6.48323
-6.52374
-6.5607
-6.59407
-5.67813
-5.69978
-5.74906
-5.81441
-5.88373
-5.95321
-6.02226
-6.08967
-6.15407
-6.21487
-6.27195
-6.32538
-6.37513
-6.42132
-6.46397
-6.5032
-6.53909
-6.57176
-5.72568
-5.74311
-5.78326
-5.83874
-5.90003
-5.96287
-6.02602
-6.08835
-6.1486
-6.20601
-6.26026
-6.31126
-6.35896
-6.40336
-6.44451
-6.48249
-6.51741
-6.54937
-5.7633
-5.77777
-5.81138
-5.85914
-5.91361
-5.97064
-6.02862
-6.08639
-6.1428
-6.197
-6.24854
-6.29722
-6.34294
-6.38565
-6.42539
-6.46222
-6.49626
-6.52759
-5.7871
-5.79973
-5.82923
-5.87189
-5.9215
-5.97422
-6.0283
-6.08256
-6.13589
-6.18745
-6.23672
-6.28343
-6.32746
-6.36873
-6.40728
-6.44314
-6.47644
-6.50727
-5.79088
-5.80295
-5.83118
-5.87213
-5.9199
-5.9708
-6.02312
-6.07569
-6.12746
-6.17756
-6.22552
-6.27103
-6.31401
-6.35434
-6.39213
-6.42734
-6.46017
-6.49066
-5.77427
-5.78708
-5.81692
-5.85966
-5.90881
-5.96059
-6.01349
-6.06642
-6.11831
-6.16837
-6.21611
-6.26137
-6.304
-6.34405
-6.38148
-6.41647
-6.44904
-6.47944
-5.74241
-5.75715
-5.79116
-5.83864
-5.89163
-5.94631
-6.00154
-6.05634
-6.10962
-6.1606
-6.20897
-6.25458
-6.29743
-6.33752
-6.37498
-6.40989
-6.44245
-6.4728
-5.69842
-5.71652
-5.75754
-5.81243
-5.87105
-5.92998
-5.98878
-6.04654
-6.10201
-6.15454
-6.20399
-6.25034
-6.29365
-6.33402
-6.37161
-6.40659
-6.43916
-6.46953
-5.64409
-5.66755
-5.71902
-5.78376
-5.84913
-5.91313
-5.97641
-6.03781
-6.09594
-6.15035
-6.20111
-6.24839
-6.29227
-6.33297
-6.37069
-6.40575
-6.4383
-6.46868
-5.58016
-5.61207
-5.6783
-5.75485
-5.82732
-5.8969
-5.96526
-6.03067
-6.09161
-6.14798
-6.20017
-6.24839
-6.29286
-6.33381
-6.37165
-6.40666
-6.43916
-6.46943
-5.50662
-5.55194
-5.63812
-5.72733
-5.80635
-5.88178
-5.95573
-6.02525
-6.08888
-6.14716
-6.20074
-6.24986
-6.29479
-6.33593
-6.37373
-6.40864
-6.44097
-6.47113
-5.42274
-5.48851
-5.60088
-5.70231
-5.78636
-5.86766
-5.94743
-6.021
-6.08722
-6.14731
-6.2022
-6.25213
-6.29742
-6.33861
-6.37626
-6.41091
-6.44297
-6.47291
-5.32856
-5.4226
-5.56657
-5.67917
-5.76716
-5.8542
-5.93955
-6.0168
-6.08544
-6.14739
-6.20363
-6.2544
-6.30013
-6.34144
-6.379
-6.41343
-6.44526
-6.47512
-5.2243
-5.35882
-5.53295
-5.65335
-5.74671
-5.84129
-5.93247
-6.01306
-6.0839
-6.14751
-6.20487
-6.25631
-6.30232
-6.34369
-6.38103
-6.41517
-6.44672
-6.47636
-5.09842
-5.31419
-5.50985
-5.62426
-5.72221
-5.82738
-5.92659
-6.01213
-6.08651
-6.15285
-6.21212
-6.2647
-6.31133
-6.35278
-6.3898
-6.42342
-6.45461
-6.48454
-4.89714
-5.28768
-5.52072
-5.61898
-5.71186
-5.82087
-5.92305
-6.01006
-6.0857
-6.1534
-6.2139
-6.26737
-6.31451
-6.35606
-6.39269
-6.42512
-6.45458
-6.48238
-4.62052
-5.20643
-5.51154
-5.62394
-5.72576
-5.84347
-5.95104
-6.04046
-6.11702
-6.18495
-6.24516
-6.29786
-6.34378
-6.38377
-6.41837
-6.44738
-6.47185
-6.49215
-7.44903
-7.44914
-7.44919
-7.44918
-7.44889
-7.44769
-7.44514
-7.44174
-7.43848
-7.43638
-7.43646
-7.43892
-7.44325
-7.44868
-7.45441
-7.45975
-7.46415
-7.46717
-7.46881
-7.46942
-7.46927
-7.46857
-7.46756
-7.46652
-7.46569
-7.46518
-7.46493
-7.46479
-7.46457
-7.46419
-7.46364
-7.46292
-7.46197
-7.46072
-7.45926
-7.4579
-7.45731
-7.45812
-7.4603
-7.46313
-7.4657
-7.46766
-7.46929
-7.47102
-7.47332
-7.47663
-7.48027
-7.48322
-7.48555
-7.4901
-7.50102
-7.52162
-7.55086
-7.58762
-7.63279
-7.68747
-7.75021
-7.81916
-7.89258
-7.96819
-8.04384
-8.11808
-8.18967
-8.25734
-8.32032
-8.37836
-8.43126
-8.47903
-8.52169
-8.55934
-8.59207
-8.61997
-8.64311
-8.66153
-8.67529
-8.68438
-8.68885
-8.68864
-8.68382
-8.67427
-8.66007
-8.64109
-8.61738
-8.58883
-8.55549
-8.51724
-8.47418
-8.42621
-8.37337
-8.31553
-8.25256
-8.18441
-8.11112
-8.03266
-7.94904
-7.86022
-7.76623
-7.66714
-7.56307
-7.45386
-7.33903
-7.21845
-7.09233
-6.96069
-6.82353
-6.68085
-6.53264
-6.37889
-6.21962
-6.05484
-5.88457
-5.70886
-5.52774
-5.34131
-5.1496
-4.95272
-4.75077
-4.54386
-4.33212
-4.11568
-3.8947
-3.66935
-3.4398
-3.20625
-2.96889
-2.72793
-2.48359
-2.2361
-1.98569
-1.73262
-1.47716
-1.21956
-0.960078
-0.699003
-0.436686
-0.173404
0.0909012
0.35614
0.621889
0.887866
1.15377
1.41937
1.6844
1.94866
2.21191
2.47397
2.73461
2.99366
3.25095
3.5063
3.75954
4.01048
4.25894
4.50478
4.74783
4.98798
5.2251
5.4591
5.68987
5.91734
6.14144
6.36208
6.57921
6.79276
7.00267
7.20887
7.41133
7.60999
7.80482
7.99576
8.18278
8.36582
8.54483
8.71974
8.89055
9.05733
9.22045
9.37964
9.53832
9.68798
-7.45026
-7.45044
-7.45081
-7.45121
-7.45122
-7.4504
-7.44845
-7.44594
-7.44412
-7.44397
-7.4458
-7.44944
-7.45437
-7.45993
-7.46549
-7.47055
-7.47472
-7.47781
-7.47961
-7.47994
-7.47889
-7.4768
-7.47412
-7.47133
-7.46885
-7.46695
-7.46567
-7.46482
-7.46414
-7.4635
-7.46288
-7.46226
-7.46156
-7.4607
-7.45968
-7.45897
-7.45929
-7.46105
-7.4639
-7.46681
-7.46866
-7.46925
-7.46904
-7.46796
-7.46652
-7.4666
-7.47059
-7.47757
-7.48412
-7.49186
-7.50394
-7.52128
-7.54622
-7.58262
-7.63192
-7.69195
-7.76012
-7.83415
-7.91118
-7.9888
-8.06529
-8.13909
-8.20861
-8.27334
-8.33329
-8.38834
-8.4385
-8.48383
-8.52442
-8.56034
-8.59166
-8.61844
-8.64071
-8.65848
-8.67177
-8.68055
-8.68483
-8.68455
-8.67973
-8.67028
-8.65621
-8.63745
-8.614
-8.58576
-8.55276
-8.51492
-8.47227
-8.42478
-8.37246
-8.31517
-8.25281
-8.18534
-8.11278
-8.03511
-7.9523
-7.86433
-7.77113
-7.67263
-7.56869
-7.45925
-7.34456
-7.22467
-7.09938
-6.96863
-6.8324
-6.69066
-6.54339
-6.3906
-6.23229
-6.06847
-5.89917
-5.72443
-5.54428
-5.3588
-5.16804
-4.97211
-4.77108
-4.56508
-4.35423
-4.13867
-3.91854
-3.69402
-3.46526
-3.23248
-2.99586
-2.75561
-2.51194
-2.26508
-2.01526
-1.76274
-1.50777
-1.2506
-0.991434
-0.730494
-0.467993
-0.204227
0.0602997
0.325359
0.590929
0.856739
1.12252
1.38801
1.65297
1.91719
2.18046
2.44254
2.70324
2.96239
3.2198
3.47532
3.72874
3.9799
4.2286
4.47471
4.71806
4.95853
5.19599
5.43033
5.66147
5.88931
6.11379
6.33482
6.55235
6.76631
6.97663
7.18326
7.38615
7.58524
7.78051
7.9719
8.15938
8.34293
8.52252
8.6981
8.86965
9.03709
9.20074
9.36023
9.52099
9.6699
-7.45156
-7.45155
-7.45159
-7.45168
-7.45177
-7.4518
-7.45202
-7.45293
-7.45503
-7.45847
-7.46305
-7.46839
-7.47407
-7.47965
-7.48474
-7.48904
-7.49235
-7.49456
-7.49558
-7.49536
-7.49393
-7.49143
-7.48803
-7.48394
-7.47942
-7.47476
-7.47025
-7.46617
-7.46272
-7.45998
-7.45787
-7.45617
-7.45464
-7.45337
-7.45286
-7.45384
-7.45674
-7.46109
-7.46536
-7.46766
-7.46693
-7.46448
-7.46253
-7.46225
-7.46305
-7.46537
-7.47188
-7.48324
-7.49893
-7.51985
-7.54657
-7.57931
-7.61877
-7.66567
-7.71961
-7.77904
-7.8425
-7.90859
-7.97574
-8.0427
-8.10847
-8.17218
-8.23299
-8.29042
-8.34424
-8.39425
-8.44032
-8.48238
-8.52039
-8.55429
-8.58407
-8.60968
-8.6311
-8.64827
-8.66115
-8.66971
-8.67389
-8.67363
-8.66892
-8.65967
-8.64587
-8.62744
-8.60436
-8.57658
-8.54405
-8.50674
-8.46464
-8.41775
-8.36605
-8.30942
-8.24776
-8.18104
-8.10927
-8.03243
-7.9505
-7.86347
-7.77129
-7.6739
-7.57118
-7.46302
-7.3495
-7.23069
-7.10652
-6.97691
-6.84185
-6.7013
-6.55525
-6.40368
-6.24661
-6.08404
-5.916
-5.7425
-5.56362
-5.37938
-5.18988
-4.99517
-4.79538
-4.59058
-4.38092
-4.16652
-3.94754
-3.72412
-3.49646
-3.26472
-3.02911
-2.78983
-2.54709
-2.30113
-2.05216
-1.80045
-1.54623
-1.28976
-1.03127
-0.770995
-0.509153
-0.246021
0.017999
0.282663
0.547856
0.813319
1.07879
1.34402
1.60876
1.87281
2.13594
2.39793
2.65857
2.9177
3.17514
3.43071
3.68422
3.9355
4.18437
4.43067
4.67424
4.91495
5.15267
5.38729
5.61872
5.84686
6.07164
6.29299
6.51083
6.72509
6.93572
7.14265
7.34583
7.54521
7.74074
7.9324
8.12013
8.30388
8.48361
8.65932
8.83109
8.99892
9.16347
9.32364
9.48707
9.63172
-7.45269
-7.45241
-7.45203
-7.45205
-7.45324
-7.45603
-7.46019
-7.46536
-7.47119
-7.47737
-7.48359
-7.4896
-7.49518
-7.50013
-7.50428
-7.5075
-7.50968
-7.51076
-7.51072
-7.50952
-7.50719
-7.50379
-7.49942
-7.49416
-7.48811
-7.48142
-7.47428
-7.467
-7.45995
-7.4535
-7.44792
-7.44342
-7.44033
-7.43917
-7.44066
-7.4449
-7.45055
-7.45551
-7.45853
-7.45938
-7.45881
-7.4586
-7.46018
-7.46422
-7.47136
-7.48242
-7.49822
-7.51929
-7.54569
-7.57712
-7.61302
-7.65315
-7.69729
-7.74527
-7.79673
-7.85113
-7.90787
-7.96622
-8.0253
-8.08433
-8.14255
-8.1993
-8.25398
-8.30615
-8.35548
-8.40172
-8.44467
-8.48418
-8.52011
-8.55237
-8.58086
-8.60548
-8.62615
-8.64278
-8.65531
-8.66364
-8.66772
-8.66747
-8.66282
-8.65373
-8.64014
-8.62199
-8.59923
-8.57181
-8.53969
-8.50284
-8.46123
-8.41487
-8.36373
-8.3077
-8.24668
-8.18064
-8.10959
-8.03351
-7.95236
-7.86612
-7.77474
-7.67818
-7.57635
-7.46921
-7.35676
-7.23902
-7.1159
-6.98739
-6.85343
-6.71401
-6.5691
-6.4187
-6.2628
-6.10141
-5.93455
-5.76225
-5.58455
-5.4015
-5.21317
-5.01963
-4.82099
-4.61733
-4.40879
-4.19549
-3.97758
-3.75522
-3.52857
-3.29782
-3.06316
-2.8248
-2.58295
-2.33783
-2.08967
-1.83872
-1.58523
-1.32943
-1.07157
-0.811897
-0.550659
-0.288129
-0.0246082
0.239664
0.504498
0.769629
1.03481
1.29978
1.56432
1.82819
2.09119
2.35308
2.61367
2.87278
3.13024
3.38586
3.63945
3.89083
4.13984
4.38631
4.63007
4.871
5.10896
5.34383
5.57553
5.80394
6.029
6.25063
6.46875
6.6833
6.89421
7.10142
7.30486
7.50448
7.70025
7.89212
8.08005
8.26401
8.44398
8.61995
8.79201
8.96017
9.12523
9.2854
9.44945
9.58762
-7.455
-7.45441
-7.45401
-7.45548
-7.45981
-7.46627
-7.47375
-7.48156
-7.48919
-7.49633
-7.50283
-7.50862
-7.51364
-7.51785
-7.52114
-7.52344
-7.52468
-7.52481
-7.52381
-7.52166
-7.51836
-7.51395
-7.50848
-7.50199
-7.49457
-7.48628
-7.47721
-7.4676
-7.4578
-7.44833
-7.43983
-7.43317
-7.42936
-7.42928
-7.43261
-7.43738
-7.442
-7.44584
-7.44891
-7.45175
-7.45523
-7.46046
-7.46842
-7.48019
-7.49658
-7.51768
-7.54291
-7.57183
-7.60419
-7.63962
-7.67793
-7.71907
-7.76296
-7.8095
-7.85841
-7.90928
-7.96164
-8.01497
-8.06866
-8.12216
-8.17495
-8.22654
-8.27648
-8.3244
-8.37001
-8.41303
-8.45324
-8.49045
-8.52449
-8.55519
-8.58242
-8.60605
-8.62594
-8.64197
-8.65404
-8.66205
-8.66591
-8.66552
-8.66082
-8.65173
-8.63819
-8.62015
-8.59756
-8.57035
-8.53848
-8.50193
-8.46066
-8.41467
-8.36394
-8.30836
-8.24783
-8.18233
-8.11188
-8.03643
-7.95596
-7.87042
-7.77978
-7.68398
-7.58296
-7.47669
-7.36513
-7.24829
-7.12609
-6.9985
-6.86548
-6.72702
-6.58308
-6.43366
-6.27874
-6.11835
-5.95248
-5.78117
-5.60445
-5.42239
-5.23502
-5.04246
-4.84475
-4.64203
-4.43439
-4.22199
-4.00494
-3.78342
-3.55758
-3.32762
-3.09372
-2.85609
-2.61493
-2.37048
-2.12295
-1.8726
-1.61967
-1.36439
-1.10702
-0.847792
-0.58699
-0.324872
-0.0617116
0.202258
0.466805
0.731681
0.996623
1.2614
1.52577
1.78951
2.0524
2.31422
2.57477
2.83388
3.09135
3.34701
3.60067
3.85215
4.10127
4.34787
4.59179
4.83289
5.07105
5.30613
5.53804
5.76669
5.99199
6.21386
6.43223
6.64702
6.85817
7.06561
7.26929
7.46916
7.66516
7.85726
8.04541
8.22959
8.40978
8.58597
8.75823
8.9265
9.09152
9.25098
9.41439
9.54554
-7.45933
-7.45841
-7.45895
-7.46357
-7.47123
-7.47992
-7.48871
-7.49712
-7.50484
-7.5118
-7.51799
-7.52339
-7.52796
-7.53163
-7.53432
-7.53597
-7.53652
-7.53595
-7.53423
-7.53135
-7.52732
-7.52216
-7.5159
-7.50852
-7.50003
-7.49054
-7.48019
-7.46919
-7.45797
-7.44721
-7.43781
-7.43107
-7.42792
-7.42794
-7.42965
-7.43206
-7.43523
-7.43959
-7.44547
-7.45272
-7.46176
-7.47392
-7.4901
-7.51031
-7.53419
-7.56136
-7.59149
-7.62422
-7.65936
-7.69671
-7.73616
-7.77761
-7.82095
-7.86603
-7.91262
-7.96045
-8.00917
-8.05844
-8.10785
-8.15702
-8.20556
-8.25313
-8.29936
-8.34393
-8.38655
-8.42697
-8.46494
-8.50025
-8.53268
-8.56205
-8.58819
-8.61091
-8.63006
-8.64551
-8.65711
-8.66474
-8.66829
-8.66767
-8.6628
-8.65359
-8.63998
-8.62192
-8.59933
-8.57218
-8.54041
-8.50399
-8.4629
-8.41714
-8.36666
-8.31138
-8.25119
-8.18608
-8.11607
-8.04111
-7.96117
-7.8762
-7.78615
-7.69098
-7.59062
-7.48505
-7.37422
-7.25809
-7.13664
-7.0098
-6.87755
-6.73986
-6.5967
-6.44807
-6.29394
-6.13434
-5.96926
-5.79873
-5.6228
-5.4415
-5.25489
-5.06306
-4.86608
-4.66406
-4.45712
-4.24538
-4.02898
-3.80807
-3.58284
-3.35345
-3.1201
-2.883
-2.64234
-2.39836
-2.15129
-1.90137
-1.64882
-1.39391
-1.13688
-0.877974
-0.617475
-0.355637
-0.0927221
0.17103
0.435373
0.700058
0.964831
1.22946
1.4937
1.75733
2.02014
2.28191
2.54243
2.80153
3.05902
3.3147
3.56841
3.81994
4.06914
4.31583
4.55986
4.80108
5.03936
5.27459
5.50666
5.73547
5.96094
6.18299
6.40153
6.61651
6.82784
7.03547
7.23932
7.43936
7.63553
7.82779
8.01609
8.20042
8.38073
8.55701
8.72929
8.89744
9.0621
9.22051
9.383
9.50732
-7.46469
-7.46424
-7.46708
-7.47452
-7.48355
-7.49251
-7.50105
-7.509
-7.51631
-7.52296
-7.52888
-7.534
-7.53825
-7.54155
-7.54383
-7.54504
-7.54514
-7.54411
-7.54191
-7.53856
-7.53407
-7.52846
-7.52163
-7.51354
-7.50432
-7.49419
-7.48336
-7.47212
-7.46097
-7.45077
-7.44268
-7.43734
-7.43407
-7.43203
-7.43141
-7.43276
-7.43669
-7.44302
-7.45178
-7.46364
-7.47906
-7.49797
-7.52014
-7.54536
-7.57331
-7.60369
-7.63628
-7.67092
-7.70745
-7.74569
-7.78549
-7.82671
-7.86923
-7.91291
-7.95757
-8.00302
-8.04903
-8.09535
-8.14169
-8.18779
-8.23333
-8.27803
-8.32158
-8.3637
-8.40413
-8.44261
-8.47889
-8.51274
-8.54393
-8.57225
-8.59748
-8.61945
-8.63797
-8.65287
-8.66401
-8.67123
-8.67444
-8.67352
-8.66838
-8.65894
-8.64514
-8.62692
-8.60421
-8.57697
-8.54515
-8.50873
-8.46767
-8.42197
-8.37162
-8.31649
-8.25649
-8.19164
-8.12191
-8.0473
-7.96774
-7.8832
-7.7936
-7.69891
-7.59907
-7.49404
-7.38376
-7.26821
-7.14733
-7.02108
-6.88944
-6.75235
-6.60981
-6.46178
-6.30827
-6.14927
-5.9848
-5.81487
-5.63953
-5.45879
-5.27275
-5.08146
-4.88502
-4.68351
-4.47706
-4.26579
-4.04984
-3.82937
-3.60455
-3.37554
-3.14257
-2.90581
-2.66549
-2.42182
-2.17505
-1.92539
-1.6731
-1.41843
-1.16161
-0.902917
-0.642614
-0.380958
-0.118201
0.145401
0.409609
0.674159
0.938819
1.20334
1.46749
1.73105
1.99379
2.25551
2.51601
2.77509
3.03258
3.28828
3.542
3.79358
4.04282
4.28956
4.53364
4.77492
5.01327
5.24858
5.48073
5.70964
5.93522
6.15739
6.37606
6.59115
6.80259
7.01032
7.21428
7.41441
7.61068
7.80303
7.99142
8.1758
8.35614
8.53239
8.70456
8.87242
9.03657
9.1938
9.3554
9.47339
-7.46884
-7.46973
-7.47531
-7.48383
-7.49252
-7.50084
-7.50878
-7.51631
-7.52333
-7.52975
-7.53548
-7.54041
-7.54446
-7.54755
-7.54961
-7.55059
-7.55046
-7.54918
-7.54676
-7.54319
-7.53849
-7.53256
-7.52534
-7.51699
-7.50776
-7.4978
-7.48737
-7.47693
-7.46728
-7.45912
-7.45267
-7.44727
-7.44251
-7.43927
-7.43841
-7.44026
-7.44544
-7.45438
-7.46704
-7.48326
-7.50272
-7.52522
-7.55049
-7.57825
-7.60827
-7.64033
-7.67423
-7.70982
-7.74691
-7.78537
-7.82504
-7.86582
-7.90758
-7.95019
-7.9935
-8.03736
-8.08158
-8.12599
-8.17035
-8.21444
-8.25801
-8.30081
-8.34258
-8.38307
-8.42202
-8.45918
-8.4943
-8.52713
-8.55744
-8.58499
-8.60956
-8.63094
-8.64893
-8.66336
-8.67405
-8.68086
-8.68368
-8.68239
-8.6769
-8.66714
-8.65304
-8.63453
-8.61158
-8.58413
-8.55213
-8.51556
-8.4744
-8.42864
-8.37826
-8.32316
-8.26324
-8.19849
-8.12894
-8.05455
-7.97525
-7.891
-7.80173
-7.70739
-7.60793
-7.50329
-7.39343
-7.27831
-7.15787
-7.03207
-6.90088
-6.76425
-6.62217
-6.47461
-6.32156
-6.16302
-5.99899
-5.8295
-5.65458
-5.47427
-5.28863
-5.09772
-4.90164
-4.70049
-4.49437
-4.28341
-4.06775
-3.84755
-3.62298
-3.39422
-3.16147
-2.92492
-2.68479
-2.4413
-2.1947
-1.94519
-1.69304
-1.4385
-1.18181
-0.92323
-0.663038
-0.401485
-0.138821
0.124692
0.388809
0.653273
0.917852
1.1823
1.44639
1.70989
1.97258
2.23426
2.49474
2.75381
3.01128
3.26698
3.52071
3.7723
4.02155
4.2683
4.51239
4.75369
4.99207
5.22741
5.45962
5.68858
5.91423
6.13647
6.3552
6.57035
6.78185
6.98963
7.19364
7.39382
7.59014
7.78252
7.97094
8.15532
8.33563
8.51178
8.68376
8.85125
9.01478
9.17084
9.3316
9.44388
-7.47009
-7.4727
-7.47988
-7.48809
-7.49607
-7.50387
-7.51146
-7.51874
-7.52561
-7.53193
-7.5376
-7.54249
-7.5465
-7.54956
-7.5516
-7.55257
-7.55243
-7.55116
-7.54875
-7.54519
-7.54044
-7.53442
-7.52726
-7.5192
-7.51043
-7.50123
-7.49204
-7.48338
-7.47558
-7.4686
-7.46222
-7.45636
-7.4515
-7.44872
-7.44886
-7.45248
-7.45996
-7.4713
-7.4862
-7.50447
-7.52581
-7.54996
-7.57665
-7.60561
-7.63662
-7.66946
-7.70395
-7.73992
-7.7772
-7.81567
-7.8552
-7.89566
-7.93693
-7.97888
-8.0214
-8.06434
-8.10754
-8.15086
-8.19408
-8.23702
-8.27945
-8.32117
-8.36192
-8.40148
-8.43959
-8.47599
-8.51044
-8.54269
-8.57246
-8.59952
-8.62364
-8.64459
-8.66216
-8.67617
-8.68644
-8.69283
-8.6952
-8.69348
-8.68756
-8.67738
-8.66287
-8.64399
-8.62067
-8.59288
-8.56057
-8.52373
-8.48235
-8.43642
-8.38592
-8.33072
-8.27077
-8.20603
-8.13655
-8.06226
-7.98311
-7.89904
-7.80998
-7.71587
-7.61667
-7.51231
-7.40274
-7.28793
-7.16781
-7.04235
-6.91148
-6.7752
-6.63346
-6.48624
-6.33353
-6.17533
-6.01162
-5.84245
-5.66782
-5.4878
-5.30241
-5.11177
-4.91592
-4.71499
-4.50907
-4.2983
-4.0828
-3.86276
-3.63831
-3.40967
-3.17702
-2.94056
-2.70052
-2.45711
-2.21058
-1.96113
-1.70904
-1.45454
-1.1979
-0.939368
-0.679225
-0.417713
-0.155099
0.108368
0.372426
0.636841
0.90136
1.16576
1.42979
1.69324
1.95589
2.21754
2.47798
2.73701
2.99446
3.25013
3.50386
3.75544
4.00467
4.2514
4.49547
4.73676
4.97512
5.21046
5.44267
5.67165
5.89732
6.11959
6.33834
6.55351
6.76502
6.97281
7.17682
7.37701
7.57332
7.76572
7.95412
8.13846
8.31868
8.49468
8.6664
8.83346
8.99635
9.15125
9.31123
9.41853
-7.46687
-7.47091
-7.47825
-7.48588
-7.49352
-7.50113
-7.50861
-7.51587
-7.52277
-7.52919
-7.53499
-7.54005
-7.54425
-7.54751
-7.54975
-7.55091
-7.55095
-7.54983
-7.54755
-7.54409
-7.53944
-7.53364
-7.52688
-7.51945
-7.51163
-7.50374
-7.496
-7.48848
-7.48127
-7.47447
-7.46825
-7.46303
-7.45945
-7.45829
-7.46014
-7.46537
-7.47423
-7.48672
-7.50266
-7.52185
-7.54402
-7.5689
-7.59619
-7.62566
-7.65709
-7.69027
-7.72501
-7.76116
-7.79856
-7.83708
-7.87659
-7.91696
-7.95806
-7.99978
-8.04201
-8.08461
-8.12742
-8.17032
-8.2131
-8.25561
-8.29763
-8.33894
-8.37933
-8.41856
-8.45637
-8.49252
-8.52675
-8.55876
-8.58829
-8.61509
-8.63892
-8.65954
-8.67675
-8.69036
-8.70019
-8.70611
-8.708
-8.70578
-8.69936
-8.68868
-8.67369
-8.65433
-8.63055
-8.60233
-8.56961
-8.5324
-8.4907
-8.44451
-8.39377
-8.33842
-8.27832
-8.21351
-8.14399
-8.06972
-7.99063
-7.90664
-7.81769
-7.72372
-7.62467
-7.52049
-7.41113
-7.29653
-7.17664
-7.05141
-6.9208
-6.78476
-6.64326
-6.49629
-6.34383
-6.18585
-6.02238
-5.85342
-5.67899
-5.49915
-5.31395
-5.12346
-4.92776
-4.72695
-4.52113
-4.31044
-4.09502
-3.87502
-3.65063
-3.42201
-3.18938
-2.95293
-2.7129
-2.4695
-2.22296
-1.97351
-1.72141
-1.46692
-1.21027
-0.951742
-0.691602
-0.4301
-0.167504
0.0959361
0.359961
0.624337
0.888813
1.15316
1.41714
1.68054
1.94314
2.20474
2.46513
2.72412
2.98152
3.23716
3.49087
3.74242
3.9916
4.23828
4.4823
4.72352
4.96184
5.19714
5.42931
5.65827
5.88393
6.10621
6.32496
6.5401
6.75158
6.95934
7.16333
7.3635
7.55979
7.75216
7.94052
8.12478
8.30487
8.48067
8.65209
8.81868
8.98091
9.13471
9.29392
9.397
-7.45717
-7.46189
-7.4689
-7.4765
-7.48433
-7.49213
-7.4998
-7.50726
-7.51443
-7.52115
-7.52729
-7.53269
-7.53723
-7.54081
-7.54334
-7.54476
-7.54505
-7.54417
-7.54212
-7.53894
-7.53467
-7.52947
-7.52351
-7.51702
-7.51012
-7.50299
-7.49579
-7.48864
-7.48169
-7.47526
-7.46978
-7.4657
-7.46349
-7.4637
-7.46684
-7.47323
-7.48306
-7.49632
-7.51292
-7.53263
-7.55522
-7.58042
-7.60798
-7.63768
-7.6693
-7.70267
-7.73761
-7.77395
-7.81154
-7.85025
-7.88993
-7.93046
-7.97174
-8.01363
-8.05601
-8.09876
-8.14173
-8.18478
-8.22773
-8.27041
-8.3126
-8.35408
-8.39463
-8.434
-8.47195
-8.50821
-8.54249
-8.57453
-8.60405
-8.63077
-8.65442
-8.6748
-8.69169
-8.7049
-8.71426
-8.71966
-8.721
-8.71821
-8.7112
-8.69994
-8.68438
-8.66446
-8.64015
-8.6114
-8.57819
-8.54052
-8.49841
-8.45186
-8.40085
-8.34524
-8.28494
-8.21998
-8.15036
-8.07605
-7.99693
-7.91295
-7.82404
-7.73013
-7.63118
-7.52711
-7.41789
-7.30344
-7.18372
-7.05866
-6.92823
-6.79237
-6.65107
-6.50427
-6.352
-6.19419
-6.03089
-5.86207
-5.68779
-5.50806
-5.32298
-5.13257
-4.93696
-4.73621
-4.53044
-4.31977
-4.10436
-3.88436
-3.65995
-3.43131
-3.19865
-2.96217
-2.7221
-2.47866
-2.23208
-1.9826
-1.73047
-1.47595
-1.21927
-0.960727
-0.700575
-0.439081
-0.176494
0.0869147
0.350912
0.615242
0.879674
1.14396
1.40789
1.67124
1.93378
2.19532
2.45565
2.71457
2.9719
3.2275
3.48117
3.73267
3.98177
4.22835
4.47227
4.71341
4.95164
5.18686
5.41897
5.64788
5.87353
6.09578
6.3145
6.52958
6.74101
6.94871
7.15265
7.35276
7.54902
7.74135
7.92965
8.11381
8.29374
8.46932
8.6404
8.8065
8.96807
9.12083
9.27929
9.37888
-7.43936
-7.44407
-7.45125
-7.45963
-7.46816
-7.47645
-7.48449
-7.49231
-7.49989
-7.5071
-7.51374
-7.51962
-7.52459
-7.52856
-7.53147
-7.53327
-7.53393
-7.53346
-7.53187
-7.5292
-7.52553
-7.52098
-7.51567
-7.50975
-7.50335
-7.49661
-7.48968
-7.48279
-7.47627
-7.47048
-7.46575
-7.46254
-7.46134
-7.46263
-7.46681
-7.47415
-7.4848
-7.49873
-7.51583
-7.53592
-7.55877
-7.58416
-7.61189
-7.64175
-7.67356
-7.70714
-7.74232
-7.77894
-7.81685
-7.8559
-7.89598
-7.93698
-7.97876
-8.0212
-8.06414
-8.10747
-8.15102
-8.19466
-8.2382
-8.28147
-8.32424
-8.3663
-8.40741
-8.44731
-8.48574
-8.52241
-8.55704
-8.58932
-8.61897
-8.64569
-8.66923
-8.68936
-8.7059
-8.71865
-8.72744
-8.73219
-8.73284
-8.72934
-8.72164
-8.70972
-8.69351
-8.67297
-8.64806
-8.61871
-8.5849
-8.54668
-8.50412
-8.4572
-8.40586
-8.34998
-8.28945
-8.22431
-8.15457
-8.08016
-8.00101
-7.91701
-7.8281
-7.73422
-7.63532
-7.53135
-7.42224
-7.30792
-7.18833
-7.06342
-6.93313
-6.79744
-6.65629
-6.50967
-6.35754
-6.19989
-6.03672
-5.86803
-5.69386
-5.51424
-5.32923
-5.1389
-4.94334
-4.74263
-4.53688
-4.32622
-4.1108
-3.8908
-3.66637
-3.43771
-3.20502
-2.9685
-2.72838
-2.48489
-2.23826
-1.98874
-1.73659
-1.48203
-1.22534
-0.966783
-0.70663
-0.445146
-0.182585
0.0807918
0.344746
0.609026
0.873398
1.13763
1.40149
1.66476
1.92723
2.18869
2.44893
2.70776
2.96501
3.22055
3.47421
3.72566
3.97464
4.22108
4.46488
4.7059
4.94402
5.17914
5.41116
5.64
5.86562
6.08786
6.30651
6.52151
6.73286
6.94048
7.14435
7.34441
7.54061
7.73291
7.92114
8.10517
8.28493
8.46026
8.63099
8.79659
8.95751
9.1093
9.26699
9.36384
-7.413
-7.41754
-7.42566
-7.43547
-7.44502
-7.45388
-7.46236
-7.47071
-7.479
-7.48698
-7.49436
-7.50087
-7.50639
-7.51085
-7.51425
-7.51654
-7.51772
-7.51778
-7.51673
-7.51461
-7.51149
-7.50745
-7.50259
-7.49703
-7.49089
-7.48436
-7.47768
-7.47113
-7.465
-7.45965
-7.45551
-7.45305
-7.45272
-7.45494
-7.46003
-7.46821
-7.47955
-7.49403
-7.51153
-7.53189
-7.55493
-7.58048
-7.60835
-7.6384
-7.67044
-7.70433
-7.73988
-7.77693
-7.81531
-7.85491
-7.8956
-7.93726
-7.97976
-8.02297
-8.06674
-8.11094
-8.15541
-8.19999
-8.24448
-8.28868
-8.33237
-8.37533
-8.4173
-8.45801
-8.49716
-8.53447
-8.56962
-8.60225
-8.63204
-8.65866
-8.6819
-8.7016
-8.71758
-8.72966
-8.73766
-8.74153
-8.74132
-8.737
-8.72856
-8.71596
-8.69913
-8.67799
-8.65248
-8.62252
-8.58802
-8.54915
-8.50613
-8.45888
-8.40728
-8.35112
-8.29038
-8.22506
-8.15522
-8.08076
-8.00158
-7.91757
-7.82867
-7.73483
-7.636
-7.53213
-7.42314
-7.30897
-7.18953
-7.06477
-6.93464
-6.79912
-6.65814
-6.51171
-6.35975
-6.20228
-6.03925
-5.87071
-5.69665
-5.51716
-5.33225
-5.14202
-4.94651
-4.74586
-4.54015
-4.32953
-4.11414
-3.89417
-3.66977
-3.44114
-3.20846
-2.97195
-2.73181
-2.48829
-2.24165
-1.99212
-1.73996
-1.4854
-1.22872
-0.970191
-0.710084
-0.448649
-0.18616
0.0771469
0.34101
0.6052
0.869469
1.1336
1.39735
1.66051
1.92287
2.1842
2.4443
2.703
2.96012
3.2156
3.46932
3.72077
3.96962
4.2159
4.45954
4.70042
4.93841
5.17341
5.40533
5.6341
5.85972
6.08197
6.30056
6.51546
6.7267
6.93424
7.13803
7.33802
7.53418
7.72645
7.91462
8.09851
8.27807
8.45314
8.62352
8.78863
8.94892
9.0998
9.25667
9.3515
-7.37929
-7.38417
-7.39384
-7.40547
-7.41615
-7.42575
-7.43501
-7.4441
-7.4531
-7.462
-7.47044
-7.47795
-7.48414
-7.48907
-7.49294
-7.49578
-7.49751
-7.49812
-7.49759
-7.49595
-7.49325
-7.48955
-7.48493
-7.47954
-7.47355
-7.46716
-7.46062
-7.45423
-7.44834
-7.44339
-7.43979
-7.438
-7.43844
-7.44144
-7.44727
-7.45609
-7.46794
-7.4828
-7.50058
-7.52115
-7.54437
-7.57008
-7.59813
-7.62837
-7.66067
-7.69487
-7.73078
-7.76828
-7.80721
-7.84746
-7.88889
-7.93137
-7.97476
-8.01893
-8.06373
-8.10903
-8.15465
-8.20041
-8.24608
-8.29146
-8.33628
-8.38029
-8.42323
-8.46479
-8.50468
-8.54254
-8.57806
-8.61084
-8.64051
-8.66672
-8.68932
-8.70825
-8.72342
-8.73457
-8.74138
-8.74403
-8.74282
-8.73773
-8.72869
-8.71563
-8.69841
-8.67689
-8.65098
-8.62054
-8.58536
-8.54577
-8.50232
-8.45485
-8.40298
-8.34659
-8.28559
-8.2201
-8.15016
-8.07566
-7.99646
-7.91242
-7.8235
-7.72966
-7.63088
-7.5271
-7.41825
-7.30421
-7.18492
-7.0603
-6.93032
-6.79495
-6.65416
-6.50791
-6.35616
-6.19886
-6.036
-5.8676
-5.6937
-5.51433
-5.32956
-5.13946
-4.94409
-4.74356
-4.53795
-4.3274
-4.11207
-3.89214
-3.66777
-3.43917
-3.20654
-2.97009
-2.73005
-2.48664
-2.24009
-1.99066
-1.73859
-1.48413
-1.22758
-0.969204
-0.70926
-0.448009
-0.185716
0.0773777
0.341015
0.604964
0.868986
1.13286
1.39635
1.65924
1.92131
2.18234
2.44214
2.70051
2.9573
3.2125
3.46611
3.7175
3.96615
4.21223
4.45567
4.69638
4.93422
5.16909
5.40088
5.62956
5.85524
6.07762
6.29619
6.51099
6.72213
6.92959
7.13331
7.33325
7.52939
7.72169
7.90982
8.09357
8.27294
8.44774
8.61777
8.7824
8.94209
9.09212
9.24813
9.3416
-7.3413
-7.3471
-7.35886
-7.37273
-7.3846
-7.39454
-7.40422
-7.41437
-7.42466
-7.43471
-7.44422
-7.45272
-7.45968
-7.46511
-7.46942
-7.47276
-7.47501
-7.4761
-7.476
-7.47471
-7.47227
-7.46874
-7.46422
-7.45887
-7.45284
-7.4464
-7.43983
-7.43349
-7.42779
-7.42315
-7.41998
-7.41871
-7.41969
-7.42321
-7.42949
-7.43864
-7.45073
-7.46573
-7.4836
-7.50422
-7.52747
-7.55323
-7.58137
-7.61175
-7.64425
-7.6787
-7.71496
-7.75289
-7.79239
-7.83331
-7.87552
-7.9189
-7.9633
-8.00857
-8.05454
-8.10106
-8.1479
-8.19485
-8.24166
-8.2881
-8.33388
-8.37875
-8.4224
-8.46454
-8.50482
-8.54291
-8.57844
-8.61102
-8.64014
-8.66536
-8.68672
-8.70452
-8.71865
-8.72862
-8.73371
-8.73449
-8.73199
-8.72617
-8.71681
-8.70364
-8.68643
-8.6649
-8.63897
-8.60869
-8.57412
-8.53528
-8.49217
-8.44467
-8.39267
-8.33603
-8.2748
-8.20912
-8.13901
-8.06437
-7.98501
-7.90084
-7.81179
-7.71786
-7.61902
-7.51522
-7.40638
-7.29237
-7.17311
-7.04853
-6.91862
-6.78333
-6.64264
-6.49649
-6.34486
-6.18766
-6.02491
-5.8566
-5.68281
-5.50354
-5.31888
-5.12886
-4.93361
-4.73316
-4.52764
-4.31715
-4.10187
-3.88196
-3.65762
-3.42905
-3.19646
-2.96007
-2.72014
-2.47685
-2.23042
-1.9811
-1.72916
-1.47487
-1.21851
-0.960348
-0.700628
-0.439633
-0.177606
0.0851869
0.348513
0.612122
0.875794
1.13929
1.40239
1.66487
1.9265
2.18706
2.44635
2.70417
2.96032
3.21465
3.46702
3.71733
3.9654
4.21106
4.45413
4.69449
4.93201
5.16656
5.39805
5.62643
5.85198
6.07438
6.2929
6.50758
6.71862
6.926
7.12967
7.32957
7.52574
7.71819
7.9064
8.09003
8.26922
8.44378
8.61348
8.77766
8.93678
9.08602
9.24115
9.33392
-7.30272
-7.30979
-7.32412
-7.33999
-7.35221
-7.36261
-7.37342
-7.38474
-7.39611
-7.40722
-7.41774
-7.42715
-7.43483
-7.44085
-7.44571
-7.44959
-7.45233
-7.45384
-7.45407
-7.453
-7.45067
-7.44713
-7.4425
-7.43694
-7.43068
-7.42399
-7.41722
-7.41074
-7.40498
-7.40034
-7.39724
-7.39605
-7.39708
-7.40061
-7.40683
-7.41586
-7.42776
-7.44253
-7.46014
-7.4805
-7.50355
-7.52919
-7.55732
-7.58779
-7.62046
-7.65518
-7.69182
-7.73025
-7.77037
-7.81203
-7.85508
-7.89936
-7.9447
-7.99097
-8.03795
-8.08548
-8.13328
-8.18112
-8.22874
-8.27589
-8.32225
-8.36757
-8.41153
-8.45383
-8.49413
-8.53212
-8.56741
-8.59951
-8.62757
-8.65076
-8.66958
-8.68534
-8.69831
-8.708
-8.71375
-8.71528
-8.71278
-8.7066
-8.69687
-8.68341
-8.66593
-8.64414
-8.61802
-8.5878
-8.55385
-8.51579
-8.47301
-8.42549
-8.37339
-8.31664
-8.25534
-8.18957
-8.11935
-8.04459
-7.96515
-7.8809
-7.79182
-7.69789
-7.59908
-7.49533
-7.38655
-7.27263
-7.15346
-7.02901
-6.89923
-6.76411
-6.62358
-6.4776
-6.32613
-6.16912
-6.00655
-5.83844
-5.66482
-5.48573