/*--------------------------------*- C++ -*----------------------------------*\
  =========                 |
  \\      /  F ield         | OpenFOAM: The Open Source CFD Toolbox
   \\    /   O peration     | Website:  https://openfoam.org
    \\  /    A nd           | Version:  8
     \\/     M anipulation  |
\*---------------------------------------------------------------------------*/
FoamFile
{
    version     2.0;
    format      ascii;
    class       volScalarField;
    location    "1200";
    object      k;
}
// * * * * * * * * * * * * * * * * * * * * * * * * * * * * * * * * * * * * * //

dimensions      [0 2 -2 0 0 0 0];

internalField   nonuniform List<scalar> 
12225
(
1.65349
1.85278
2.7095
2.28271
2.11358
1.90898
1.66737
1.58204
2.17268
1.84784
1.44588
2.73889
2.18409
2.04353
1.67602
1.55755
1.50374
1.61931
0.632707
0.627017
0.678388
0.713599
0.732616
0.766239
0.743736
0.738631
0.760159
0.810937
0.816132
0.880776
0.899861
0.923665
0.946222
0.949899
0.94494
0.943303
0.564302
0.544668
0.54251
0.542971
0.54409
0.542745
0.533631
0.523985
0.513921
0.505874
0.491146
0.47664
0.459701
0.435359
0.419684
0.401835
0.390243
0.382104
0.549724
0.542931
0.540815
0.538784
0.535773
0.53126
0.524496
0.517446
0.508537
0.497176
0.4815
0.460658
0.435534
0.40509
0.374838
0.343684
0.317465
0.292745
0.547297
0.543488
0.541053
0.538857
0.535802
0.532154
0.527449
0.522349
0.515965
0.507401
0.495256
0.478253
0.45726
0.431878
0.406654
0.378559
0.356935
0.33266
0.547668
0.544305
0.541526
0.538985
0.536133
0.533066
0.529541
0.525664
0.520866
0.514508
0.505793
0.493413
0.478614
0.460009
0.442517
0.422354
0.406956
0.388898
0.548127
0.544734
0.541763
0.539011
0.536246
0.533461
0.530565
0.527421
0.523663
0.518873
0.512605
0.504145
0.494259
0.481947
0.470431
0.457482
0.447139
0.435871
0.54826
0.544907
0.541845
0.53898
0.536223
0.533529
0.530886
0.528096
0.524932
0.521056
0.516246
0.510071
0.503027
0.494583
0.486458
0.477693
0.470388
0.46269
0.548294
0.544958
0.541867
0.538945
0.536171
0.533502
0.530973
0.52839
0.525629
0.522405
0.51862
0.513977
0.508825
0.502831
0.496999
0.490726
0.485494
0.479803
0.548297
0.544968
0.541856
0.538903
0.536111
0.533439
0.530943
0.52848
0.525993
0.52327
0.520265
0.516771
0.513
0.508763
0.504611
0.500178
0.496397
0.492293
0.548291
0.544964
0.541836
0.538866
0.536056
0.533375
0.530866
0.52845
0.526102
0.523697
0.521197
0.518478
0.515629
0.512562
0.509534
0.506384
0.503579
0.500622
0.548285
0.544958
0.541816
0.538836
0.536014
0.533325
0.530792
0.52838
0.526075
0.523822
0.521591
0.519318
0.517018
0.514655
0.512325
0.509976
0.507802
0.505593
0.548282
0.544952
0.541801
0.538813
0.535981
0.533289
0.530738
0.528316
0.526012
0.523806
0.521679
0.519604
0.517572
0.515568
0.513617
0.511701
0.509891
0.508108
0.548279
0.544948
0.54179
0.538796
0.535957
0.533261
0.530701
0.528269
0.525957
0.523756
0.521654
0.51964
0.517707
0.515843
0.514053
0.512325
0.510679
0.50909
0.548278
0.544944
0.541782
0.538785
0.53594
0.533239
0.530674
0.528236
0.525917
0.523711
0.52161
0.519607
0.517695
0.515869
0.514124
0.512456
0.510862
0.509339
0.548277
0.544942
0.541778
0.538777
0.535929
0.533224
0.530655
0.528212
0.525889
0.523678
0.521573
0.519569
0.517657
0.515835
0.514097
0.512439
0.510854
0.509343
0.548277
0.54494
0.541775
0.538772
0.535922
0.533215
0.530643
0.528198
0.525872
0.523658
0.52155
0.519542
0.517628
0.515804
0.514064
0.512404
0.510819
0.509307
0.548277
0.54494
0.541775
0.538771
0.53592
0.533212
0.530639
0.528193
0.525865
0.523652
0.521541
0.519533
0.517616
0.515791
0.514048
0.512387
0.5108
0.509287
0.548277
0.544941
0.541776
0.538774
0.535923
0.533216
0.530644
0.528197
0.525872
0.523655
0.521547
0.519535
0.517621
0.515792
0.51405
0.512386
0.5108
0.509285
0.548278
0.544943
0.541779
0.538778
0.535929
0.533225
0.530654
0.52821
0.525882
0.523664
0.521548
0.519533
0.517609
0.515778
0.51403
0.512366
0.510776
0.509265
0.548277
0.544946
0.541783
0.538786
0.535942
0.533241
0.530672
0.528218
0.525867
0.523617
0.521461
0.519404
0.517442
0.515581
0.51381
0.512137
0.510538
0.509035
0.548273
0.544957
0.541787
0.538805
0.535963
0.533268
0.53067
0.528141
0.52567
0.523257
0.520922
0.518691
0.516579
0.514598
0.512741
0.511024
0.509385
0.507904
0.548262
0.544987
0.541779
0.538845
0.535991
0.533284
0.530522
0.527692
0.524751
0.521812
0.518895
0.516169
0.513599
0.511273
0.509147
0.507277
0.505489
0.50403
0.548258
0.545022
0.541729
0.538904
0.53599
0.533183
0.52983
0.526101
0.521855
0.517615
0.513255
0.509409
0.505737
0.502532
0.499787
0.497305
0.495117
0.493417
0.548312
0.544921
0.541557
0.538806
0.535882
0.532742
0.527929
0.521955
0.514669
0.507717
0.500221
0.494242
0.488083
0.482967
0.47887
0.474187
0.471004
0.467011
0.548418
0.544399
0.540849
0.538249
0.535565
0.531583
0.523819
0.512138
0.498942
0.485795
0.472953
0.462817
0.452828
0.44572
0.438798
0.435036
0.429
0.427402
0.548626
0.542949
0.537819
0.537199
0.534062
0.529514
0.514953
0.490448
0.464847
0.438612
0.416456
0.398531
0.384613
0.372273
0.36692
0.361156
0.35998
0.366187
0.549631
0.537786
0.534145
0.537576
0.534559
0.528863
0.500953
0.46172
0.419495
0.382814
0.354266
0.331461
0.317548
0.311693
0.310472
0.314856
0.328096
0.347554
0.553331
0.554784
0.574313
0.596766
0.612639
0.607367
0.596573
0.575273
0.565402
0.553132
0.555319
0.551798
0.54999
0.556044
0.565011
0.588073
0.619715
0.652019
1.00009
1.2456
1.43169
1.53378
1.58882
1.5919
1.58316
1.5615
1.52733
1.48979
1.45256
1.41687
1.38389
1.35448
1.32865
1.30696
1.2889
1.27421
2.06863e-08
5.07319e-07
2.5763e-06
1.00957e-05
3.34833e-05
0.000100442
0.000261664
0.000518551
0.000837128
0.00117241
0.00147195
0.00170461
0.0018591
0.00191832
0.00189582
0.00182088
0.00167786
0.00143965
0.00122641
0.00104341
0.000870201
0.000702226
0.000539958
0.00038934
0.000254686
0.000149679
7.95813e-05
3.9967e-05
2.02385e-05
1.10096e-05
6.69108e-06
5.06319e-06
5.78402e-06
1.2153e-05
2.65285e-05
0.000152612
0.000352627
0.000778661
0.00116372
0.0012442
0.00114629
0.000925317
0.000790009
0.00080255
0.000895446
0.00123122
0.00168508
0.00363828
0.00841048
0.0264734
0.0623555
0.0988984
0.123968
0.133209
0.130909
0.110156
0.126143
0.132208
0.14514
0.165236
0.182038
0.151114
0.17431
0.179062
0.190094
0.197972
0.207144
0.215227
0.223713
0.231662
0.239758
0.247536
0.255361
0.262977
0.270592
0.278057
0.285494
0.292812
0.300086
0.307255
0.314369
0.321384
0.328332
0.335182
0.341953
0.348623
0.355201
0.361671
0.368033
0.374273
0.380386
0.38636
0.392188
0.397853
0.403346
0.408657
0.413781
0.418725
0.423512
0.4282
0.432771
0.437168
0.441422
0.445521
0.449463
0.453247
0.456866
0.460319
0.463601
0.466713
0.469647
0.472406
0.474984
0.477382
0.479598
0.481632
0.483481
0.485146
0.486626
0.487922
0.489033
0.489958
0.490699
0.491253
0.491618
0.491789
0.491767
0.491691
0.491487
0.490911
0.490338
0.489471
0.488577
0.487574
0.486452
0.485128
0.483483
0.481751
0.479831
0.477792
0.475607
0.473298
0.470861
0.468314
0.465662
0.462936
0.460052
0.457148
0.454069
0.450998
0.447741
0.444519
0.441103
0.437758
0.434216
0.430788
0.427172
0.423643
0.42004
0.416456
0.412868
0.409288
0.40572
0.402167
0.398637
0.395139
0.391682
0.388274
0.384924
0.381635
0.378406
0.375237
0.372104
0.368981
0.365815
0.362544
0.359024
0.354896
0.349573
0.332337
8.66546e-08
2.45555e-06
1.65072e-05
7.11203e-05
0.000268886
0.000769054
0.0018156
0.0033048
0.00502516
0.00678653
0.00838752
0.00969805
0.0106574
0.0112594
0.0115473
0.0115048
0.0113147
0.0109312
0.0103034
0.00944649
0.00836478
0.00711369
0.00574654
0.00436847
0.0030319
0.00200831
0.00127553
0.000790396
0.000480804
0.000296067
0.000191201
0.000142592
0.000112877
0.000184785
0.000262337
0.0015962
0.00363322
0.00738111
0.0105684
0.0122264
0.0121966
0.0119129
0.0122052
0.0141549
0.0186135
0.0250312
0.037309
0.058222
0.0841317
0.109638
0.133578
0.152276
0.167251
0.181105
0.196754
0.211717
0.228931
0.248755
0.268659
0.288298
0.308757
0.327755
0.349163
0.368908
0.388972
0.408406
0.427743
0.446679
0.465479
0.484014
0.502424
0.520653
0.538785
0.55679
0.574716
0.592544
0.610305
0.627981
0.645592
0.663118
0.680574
0.697941
0.715226
0.732411
0.749498
0.766471
0.783327
0.800051
0.816631
0.833055
0.849303
0.865364
0.881213
0.896826
0.912176
0.927228
0.941951
0.956306
0.970252
0.983757
0.996918
1.00983
1.02245
1.03479
1.04682
1.05854
1.06993
1.08099
1.09171
1.10206
1.11205
1.12166
1.13089
1.13972
1.14815
1.15617
1.16378
1.17097
1.17773
1.18406
1.18995
1.1954
1.2004
1.20496
1.20907
1.21272
1.21593
1.21869
1.22101
1.22286
1.22429
1.22508
1.22569
1.22593
1.22598
1.22569
1.22518
1.22424
1.22289
1.22113
1.21898
1.21645
1.21355
1.21029
1.20669
1.20273
1.19847
1.19384
1.18894
1.18368
1.17817
1.1723
1.16621
1.15979
1.15318
1.14629
1.13924
1.13197
1.12456
1.11701
1.10934
1.10157
1.09369
1.08573
1.0777
1.06962
1.06151
1.05338
1.04526
1.03716
1.02909
1.02103
1.01297
1.00485
0.996613
0.988165
0.97924
0.969526
0.957164
0.92829
2.1181e-07
6.29679e-06
4.82101e-05
0.000224812
0.000850031
0.002092
0.00427991
0.00679482
0.00930304
0.0115738
0.0134667
0.0149239
0.0159438
0.0165499
0.0168178
0.0167799
0.0165846
0.0161902
0.0156162
0.0149038
0.0140468
0.013039
0.0118613
0.010518
0.00902388
0.00733187
0.0055936
0.00404561
0.00271275
0.00180964
0.00124621
0.000945866
0.00071414
0.00108357
0.00185195
0.00694936
0.0150864
0.0236176
0.0300187
0.0337668
0.0354827
0.039095
0.048924
0.0664199
0.084856
0.104112
0.12574
0.147026
0.167562
0.189078
0.210572
0.233191
0.257717
0.284526
0.312334
0.340756
0.371886
0.401647
0.431582
0.4612
0.490321
0.518777
0.546651
0.573795
0.600374
0.6264
0.651963
0.677123
0.701955
0.726498
0.750811
0.774921
0.798865
0.822657
0.846321
0.869861
0.893289
0.916602
0.939805
0.962891
0.985858
1.0087
1.03141
1.05397
1.07638
1.09863
1.12071
1.1426
1.16429
1.18576
1.20701
1.22801
1.24876
1.26923
1.28942
1.30929
1.32885
1.34809
1.36699
1.38556
1.4038
1.42168
1.43917
1.45627
1.47294
1.48919
1.50499
1.52032
1.53518
1.54954
1.5634
1.57673
1.58954
1.6018
1.61352
1.62467
1.63525
1.64526
1.65468
1.66351
1.67175
1.67938
1.68642
1.69284
1.69865
1.70386
1.70845
1.71244
1.71582
1.71859
1.72077
1.72234
1.7233
1.72373
1.72378
1.7232
1.7221
1.72043
1.7182
1.71543
1.71211
1.70826
1.70389
1.69902
1.69367
1.68781
1.68152
1.67474
1.66755
1.65989
1.65186
1.64336
1.63452
1.62525
1.61569
1.60575
1.59558
1.5851
1.57442
1.56353
1.55247
1.54125
1.52989
1.51841
1.50682
1.49515
1.48343
1.47168
1.45993
1.4482
1.4365
1.42483
1.41319
1.40154
1.38984
1.37802
1.36589
1.35323
1.33817
1.31142
8.36797e-07
2.51739e-05
0.000198275
0.00082564
0.00237281
0.0056084
0.0094078
0.0130981
0.0163019
0.0188382
0.0206681
0.0218299
0.0224402
0.0225516
0.0224123
0.0220384
0.021445
0.0207307
0.0199269
0.0190513
0.0181044
0.0170828
0.0159682
0.014739
0.0133756
0.0118562
0.0102064
0.0084985
0.00689213
0.0053464
0.00419341
0.00314809
0.00330984
0.00521792
0.0126026
0.0282052
0.0429614
0.0547603
0.0641144
0.0733216
0.084933
0.0996093
0.11595
0.132044
0.148837
0.167291
0.188598
0.210882
0.235879
0.262861
0.29199
0.323195
0.356166
0.390339
0.425039
0.460103
0.495312
0.530053
0.56446
0.598328
0.631536
0.664107
0.696034
0.727365
0.758152
0.788471
0.818388
0.847962
0.877248
0.906292
0.935135
0.963805
0.992329
1.02072
1.04899
1.07715
1.1052
1.13314
1.16095
1.18864
1.2162
1.24362
1.27088
1.29798
1.32491
1.35164
1.37817
1.40448
1.43055
1.45639
1.48196
1.50726
1.53227
1.55698
1.58137
1.60543
1.62915
1.6525
1.67548
1.69806
1.72022
1.74193
1.76318
1.78393
1.80418
1.82389
1.84305
1.86164
1.87964
1.89703
1.9138
1.92994
1.94542
1.96023
1.97437
1.98782
2.00057
2.01261
2.02394
2.03455
2.04442
2.05357
2.06197
2.06963
2.07655
2.08272
2.08816
2.09284
2.09679
2.1
2.10248
2.10423
2.10517
2.1055
2.10523
2.1042
2.10249
2.10009
2.09702
2.09328
2.08888
2.08384
2.07817
2.07188
2.065
2.05752
2.04949
2.04089
2.03177
2.02211
2.01196
2.00129
1.99018
1.97859
1.9666
1.95419
1.94145
1.92838
1.91503
1.90143
1.88761
1.8736
1.85942
1.84509
1.83062
1.81605
1.80141
1.78673
1.77204
1.75738
1.74276
1.7282
1.71369
1.69925
1.68484
1.67044
1.65594
1.6412
1.62459
1.59999
2.85931e-06
8.58001e-05
0.000638528
0.00244798
0.00668666
0.0123747
0.0176449
0.0218571
0.0248457
0.026712
0.0276772
0.0279446
0.0277889
0.0273284
0.0265922
0.0257259
0.0247841
0.0238071
0.0228169
0.0218231
0.0208211
0.0198018
0.0187452
0.0176283
0.0164232
0.0150935
0.0136371
0.01211
0.0106245
0.00906838
0.00769532
0.0082055
0.0126738
0.0261006
0.0476362
0.0681869
0.0852297
0.0986589
0.110092
0.121385
0.133446
0.14661
0.160901
0.177646
0.197703
0.220583
0.246515
0.27494
0.305872
0.338651
0.373097
0.408788
0.445339
0.482379
0.519654
0.557057
0.59438
0.631471
0.668288
0.704726
0.740723
0.77628
0.811388
0.846079
0.880392
0.914371
0.948062
0.981507
1.01475
1.04782
1.08074
1.11355
1.14626
1.17887
1.21139
1.24382
1.27616
1.30839
1.34052
1.37252
1.40438
1.4361
1.46766
1.49903
1.53021
1.56118
1.59192
1.62242
1.65266
1.68263
1.7123
1.74167
1.77071
1.79942
1.82776
1.85573
1.88329
1.91044
1.93713
1.96336
1.98908
2.01429
2.03894
2.06302
2.0865
2.10936
2.13156
2.1531
2.17394
2.19408
2.21348
2.23213
2.25002
2.26712
2.28343
2.29894
2.31362
2.32747
2.34048
2.35265
2.36396
2.37441
2.384
2.39272
2.40058
2.40756
2.41367
2.41891
2.42329
2.42681
2.42947
2.43125
2.43209
2.43226
2.43162
2.43012
2.42782
2.42472
2.42083
2.41618
2.41076
2.4046
2.39771
2.39011
2.38181
2.37283
2.3632
2.35293
2.34204
2.33054
2.31847
2.30582
2.29264
2.27893
2.26474
2.2501
2.23505
2.21962
2.20386
2.18781
2.1715
2.15496
2.13823
2.12131
2.10424
2.08705
2.06976
2.05243
2.03509
2.01777
2.00051
1.98333
1.96625
1.94928
1.93244
1.91574
1.89912
1.88251
1.86454
1.84077
9.14552e-06
0.000267543
0.00189956
0.00670324
0.0149714
0.0221858
0.0273036
0.0304515
0.0320908
0.0326978
0.0326181
0.0321574
0.0312921
0.0302384
0.0290827
0.0278919
0.0267106
0.0255673
0.0244743
0.0234319
0.0224295
0.0214517
0.0204725
0.0194609
0.0183836
0.0171683
0.015753
0.0141078
0.0125664
0.012624
0.0152121
0.0246886
0.0443938
0.0697817
0.0936054
0.112686
0.126469
0.136594
0.145602
0.155353
0.16676
0.181578
0.19983
0.221534
0.246808
0.275059
0.305851
0.338569
0.372847
0.408314
0.444747
0.481892
0.51956
0.557605
0.595924
0.634452
0.673079
0.711724
0.750321
0.78879
0.827082
0.865174
0.903051
0.940717
0.978186
1.01548
1.05263
1.08965
1.12658
1.16343
1.20023
1.23698
1.27369
1.31037
1.347
1.38359
1.42011
1.45656
1.4929
1.52914
1.56525
1.60121
1.637
1.6726
1.70799
1.74315
1.77807
1.81272
1.84708
1.88114
1.91487
1.94826
1.98129
2.01393
2.04616
2.07795
2.10929
2.14014
2.17047
2.20026
2.22947
2.25808
2.28607
2.31339
2.34003
2.36595
2.39113
2.41554
2.43916
2.46196
2.48393
2.50503
2.52525
2.54458
2.563
2.58049
2.59703
2.61262
2.62726
2.64092
2.6536
2.6653
2.67602
2.68574
2.69446
2.70219
2.70893
2.71467
2.71942
2.72319
2.72599
2.72774
2.72847
2.72841
2.72739
2.72542
2.72252
2.71872
2.71404
2.70847
2.70205
2.69479
2.68671
2.67782
2.66815
2.65771
2.64654
2.63464
2.62204
2.60877
2.59485
2.58029
2.56513
2.54938
2.53309
2.51629
2.49903
2.48134
2.46328
2.44489
2.4262
2.40725
2.38807
2.36868
2.34912
2.32941
2.3096
2.28973
2.26985
2.24999
2.2302
2.21052
2.19096
2.17157
2.15239
2.13346
2.11477
2.09628
2.07681
2.05286
2.95231e-05
0.000806
0.0051543
0.0156318
0.0254634
0.0317193
0.0351499
0.0367573
0.0372034
0.0369454
0.0361656
0.0349838
0.0335978
0.0321165
0.0306229
0.0291773
0.0278167
0.02656
0.0254084
0.024352
0.0233716
0.02244
0.0215219
0.0205738
0.0196409
0.0187987
0.0182527
0.0185188
0.0208714
0.0276688
0.0421597
0.0652962
0.0906937
0.114149
0.132558
0.145157
0.153856
0.161403
0.169998
0.181984
0.197673
0.217235
0.24056
0.267241
0.296765
0.328391
0.361593
0.395968
0.431289
0.467399
0.504192
0.541584
0.579514
0.617932
0.656798
0.696066
0.735668
0.775531
0.815593
0.855793
0.896079
0.936413
0.976767
1.01713
1.05749
1.09786
1.13825
1.17866
1.21911
1.25961
1.30017
1.34078
1.38144
1.42214
1.46286
1.50359
1.54431
1.58498
1.62558
1.66609
1.70648
1.74672
1.7868
1.82667
1.86633
1.90574
1.94489
1.98374
2.02228
2.06047
2.09831
2.13576
2.17281
2.20942
2.24556
2.28122
2.31635
2.35093
2.38493
2.41831
2.45104
2.48309
2.51443
2.54502
2.57484
2.60385
2.63202
2.65932
2.68572
2.7112
2.73573
2.75928
2.78184
2.80339
2.8239
2.84336
2.86176
2.87908
2.89531
2.91044
2.92447
2.9374
2.94921
2.95989
2.96946
2.9779
2.98522
2.99142
2.99651
3.00049
3.00338
3.00508
3.00569
3.00536
3.00394
3.00146
2.99795
2.99343
2.98792
2.98144
2.974
2.96562
2.95634
2.94616
2.93511
2.92322
2.9105
2.89699
2.8827
2.86766
2.8519
2.83545
2.81833
2.80056
2.7822
2.76327
2.74383
2.72393
2.7036
2.6829
2.66187
2.64055
2.61896
2.59715
2.57513
2.55296
2.53066
2.5083
2.48592
2.46356
2.44129
2.41913
2.39713
2.37535
2.35384
2.33267
2.31186
2.29138
2.2702
2.24535
8.93382e-05
0.00222545
0.012214
0.0262005
0.0347111
0.0391758
0.0412507
0.0418393
0.0415054
0.0404984
0.0390017
0.0372485
0.0353814
0.0335131
0.0317262
0.0300758
0.0285892
0.0272721
0.0261139
0.0250953
0.0241899
0.0233661
0.0225504
0.0217895
0.0212633
0.0215284
0.0236489
0.0294971
0.0418422
0.0611031
0.0841386
0.107206
0.128072
0.144566
0.156005
0.163962
0.171315
0.180682
0.193418
0.2101
0.230694
0.254884
0.282174
0.311912
0.343436
0.376208
0.409924
0.444425
0.47964
0.515536
0.552101
0.589332
0.627229
0.665789
0.704989
0.744792
0.785154
0.826019
0.867334
0.909042
0.951091
0.993436
1.03604
1.07889
1.12195
1.16522
1.2087
1.25238
1.29626
1.34033
1.3846
1.42905
1.47366
1.51841
1.56327
1.6082
1.65318
1.69816
1.7431
1.78797
1.83274
1.87736
1.92182
1.96607
2.01009
2.05385
2.09732
2.14047
2.18326
2.22569
2.26772
2.30931
2.35045
2.39111
2.43124
2.47083
2.50983
2.54821
2.58594
2.62297
2.65927
2.69482
2.72956
2.76347
2.79651
2.82865
2.85984
2.89005
2.91926
2.94743
2.97454
3.00055
3.02545
3.04921
3.07181
3.09323
3.11346
3.13248
3.15028
3.16686
3.18221
3.19632
3.20919
3.2208
3.23116
3.24027
3.24813
3.25475
3.26012
3.26426
3.26719
3.2688
3.26925
3.26858
3.26672
3.26369
3.25953
3.25425
3.24788
3.24044
3.23195
3.22243
3.21191
3.20042
3.18797
3.1746
3.16032
3.14517
3.12918
3.11237
3.09477
3.07641
3.05733
3.03755
3.01711
2.99607
2.97446
2.95235
2.92978
2.90679
2.88344
2.85976
2.83579
2.81157
2.78712
2.76249
2.73773
2.71289
2.68803
2.66319
2.63844
2.61382
2.58939
2.5652
2.54134
2.51788
2.49487
2.4723
2.44921
2.42294
0.000233544
0.00526147
0.0221751
0.0355967
0.0424427
0.0456419
0.0467542
0.0465529
0.0454845
0.0437554
0.0416561
0.0393761
0.0370718
0.0348668
0.0328483
0.0310697
0.0295569
0.0283153
0.0273402
0.0266135
0.0261663
0.026102
0.0265027
0.0278296
0.0304951
0.0355326
0.044836
0.0594515
0.0776237
0.0976551
0.117557
0.135294
0.149644
0.160483
0.169037
0.177506
0.187976
0.201748
0.219276
0.240465
0.264906
0.292053
0.321299
0.352063
0.38389
0.416511
0.449816
0.483786
0.518437
0.553804
0.589924
0.626838
0.664572
0.703134
0.742519
0.782712
0.823683
0.865391
0.907791
0.950832
0.994468
1.03865
1.08335
1.12853
1.17416
1.22022
1.26669
1.31357
1.36084
1.40848
1.45647
1.50479
1.5534
1.60227
1.65135
1.70059
1.74993
1.79934
1.84874
1.8981
1.94736
1.99649
2.04545
2.09419
2.14269
2.1909
2.23879
2.28634
2.33349
2.38024
2.42654
2.47237
2.51768
2.56246
2.60665
2.65024
2.69317
2.73541
2.77692
2.81765
2.85757
2.89664
2.93482
2.97207
3.00835
3.04362
3.07784
3.11097
3.14297
3.17382
3.20348
3.23193
3.25914
3.28507
3.30972
3.33306
3.35507
3.37574
3.39506
3.41302
3.42962
3.44485
3.4587
3.47117
3.48225
3.49196
3.50028
3.50723
3.51281
3.51704
3.51992
3.52138
3.52159
3.52051
3.51813
3.51449
3.50961
3.50351
3.49622
3.48776
3.47817
3.46746
3.45566
3.4428
3.42892
3.41404
3.39818
3.38138
3.36366
3.34505
3.3256
3.30534
3.28428
3.26247
3.23997
3.21681
3.19305
3.16875
3.14394
3.11869
3.09303
3.06701
3.04068
3.01406
2.98719
2.96013
2.93292
2.90562
2.8783
2.851
2.82379
2.79671
2.76984
2.74324
2.717
2.69122
2.66593
2.64117
2.61603
2.58809
0.000521766
0.0106102
0.0321388
0.0439994
0.049548
0.0518409
0.0522054
0.0513223
0.0495477
0.0472082
0.0445555
0.0418078
0.0391465
0.0367113
0.0345982
0.032864
0.0315375
0.0305921
0.0301098
0.0299845
0.030391
0.031677
0.0344951
0.0396715
0.0479528
0.0596149
0.0740252
0.0900999
0.107031
0.123544
0.138464
0.15114
0.161731
0.171152
0.180981
0.192761
0.207544
0.225682
0.247033
0.2712
0.297677
0.32595
0.355544
0.386087
0.417343
0.449221
0.481719
0.514889
0.548792
0.583501
0.619083
0.655593
0.693066
0.731534
0.771008
0.811489
0.85296
0.895397
0.938765
0.983025
1.02814
1.07406
1.12075
1.16818
1.21632
1.26512
1.31458
1.36467
1.41535
1.46659
1.51837
1.57064
1.62335
1.67644
1.72985
1.78351
1.83736
1.89132
1.94531
1.99928
2.05317
2.10692
2.16049
2.21383
2.26691
2.31967
2.37208
2.4241
2.47569
2.52683
2.57748
2.62759
2.67714
2.72608
2.77438
2.82199
2.86888
2.915
2.9603
3.00475
3.04828
3.09087
3.13246
3.17302
3.2125
3.25086
3.28806
3.32405
3.35879
3.39225
3.4244
3.4552
3.48463
3.51265
3.53925
3.5644
3.58809
3.6103
3.63102
3.65026
3.66799
3.68422
3.69894
3.71214
3.72384
3.73401
3.74268
3.74985
3.75552
3.75972
3.76245
3.76366
3.7635
3.76192
3.75894
3.75458
3.74889
3.74188
3.73359
3.72405
3.71328
3.70131
3.68817
3.67391
3.65854
3.6421
3.62462
3.60614
3.58667
3.56626
3.54494
3.52274
3.4997
3.47587
3.45129
3.42602
3.40012
3.37365
3.34663
3.31913
3.2912
3.26287
3.23419
3.2052
3.17594
3.14646
3.11684
3.08711
3.05735
3.02761
2.99796
2.96844
2.93914
2.91012
2.8815
2.85336
2.82576
2.79874
2.77146
2.74185
0.000992422
0.0181856
0.0407722
0.0516265
0.0564522
0.0581426
0.0579493
0.0564726
0.0541389
0.0512881
0.0482112
0.0451603
0.0423445
0.0399241
0.0380152
0.0366845
0.0360648
0.0360073
0.0367116
0.0384137
0.0414527
0.0461961
0.0529214
0.0617954
0.0727209
0.0853651
0.0991089
0.113162
0.126826
0.139533
0.151058
0.161585
0.171862
0.182971
0.195974
0.211569
0.230005
0.251142
0.274636
0.300071
0.327037
0.355173
0.384182
0.413871
0.444149
0.475022
0.506544
0.538801
0.571883
0.605884
0.640875
0.676928
0.714096
0.752424
0.791939
0.832659
0.874582
0.917701
0.961996
1.00744
1.054
1.10164
1.15033
1.20003
1.2507
1.30231
1.35481
1.40818
1.46237
1.51734
1.57303
1.62938
1.68631
1.74376
1.80163
1.85985
1.91832
1.97695
2.03566
2.09435
2.15297
2.21144
2.26972
2.32774
2.38547
2.44285
2.49983
2.55637
2.61243
2.66798
2.72298
2.7774
2.83118
2.88427
2.93665
2.98826
3.03907
3.08901
3.13805
3.18612
3.23319
3.2792
3.32411
3.36787
3.41044
3.45177
3.49181
3.53052
3.56785
3.60377
3.63825
3.67124
3.70272
3.73267
3.76104
3.78783
3.81301
3.83658
3.85852
3.87884
3.89752
3.91457
3.92997
3.94373
3.95585
3.96633
3.97517
3.98238
3.98799
3.992
3.99441
3.99525
3.99457
3.99235
3.98863
3.98344
3.97682
3.9688
3.95941
3.94869
3.93665
3.92335
3.90881
3.89306
3.87615
3.85812
3.83898
3.81878
3.79755
3.77532
3.75212
3.72799
3.70297
3.67712
3.65048
3.62314
3.59513
3.56651
3.53733
3.50763
3.47746
3.44687
3.41589
3.38457
3.35297
3.32114
3.28914
3.25704
3.2249
3.19277
3.16071
3.12879
3.09708
3.06568
3.03467
3.00417
2.97424
2.94493
2.91546
2.88403
0.00158313
0.0258647
0.0490176
0.0593398
0.0636681
0.0649001
0.0642654
0.062332
0.0595824
0.0564164
0.053174
0.0501427
0.0475624
0.0456193
0.0445479
0.0442619
0.0448219
0.0463627
0.0490393
0.053004
0.0583932
0.0652714
0.0736124
0.0832827
0.094032
0.105465
0.117146
0.12869
0.139894
0.150709
0.161374
0.172436
0.184614
0.198546
0.214657
0.233071
0.253673
0.276196
0.300322
0.325749
0.352207
0.379484
0.407427
0.435966
0.46509
0.494856
0.525347
0.556672
0.58893
0.622221
0.656634
0.692251
0.72914
0.767359
0.806952
0.847951
0.890375
0.934233
0.979522
1.02623
1.07434
1.12382
1.17463
1.22673
1.28009
1.33465
1.39038
1.44721
1.50509
1.56397
1.62376
1.68437
1.74571
1.80767
1.87016
1.93306
1.99628
2.05969
2.12319
2.18668
2.25009
2.31333
2.37635
2.43908
2.50147
2.56345
2.62497
2.68599
2.74646
2.80637
2.86566
2.92428
2.9822
3.03934
3.09568
3.15115
3.20572
3.25934
3.31194
3.36347
3.41387
3.4631
3.5111
3.55784
3.60326
3.64731
3.68995
3.73112
3.77079
3.8089
3.84544
3.88035
3.91362
3.9452
3.97506
4.0032
4.0296
4.05425
4.07714
4.09827
4.11764
4.13523
4.15106
4.16511
4.1774
4.18792
4.1967
4.20374
4.20905
4.21266
4.21457
4.21481
4.21344
4.2104
4.20578
4.19961
4.19193
4.18276
4.17215
4.16013
4.14674
4.13201
4.11598
4.0987
4.08019
4.06051
4.03969
4.01776
3.99475
3.97069
3.94563
3.91957
3.89259
3.86475
3.83611
3.80674
3.77667
3.74598
3.71471
3.68289
3.65057
3.61778
3.58458
3.55101
3.51714
3.48304
3.44877
3.41438
3.37993
3.34549
3.31111
3.27685
3.2428
3.20906
3.17572
3.1429
3.11065
3.07906
3.0474
3.01409
0.00235992
0.0328022
0.0567126
0.0670517
0.0711975
0.072182
0.0712306
0.0689616
0.0659673
0.0627421
0.0596826
0.057093
0.0552033
0.0543134
0.0542027
0.0551188
0.0570649
0.0600939
0.0642374
0.0695065
0.0758851
0.0832924
0.0916095
0.100663
0.110262
0.120209
0.130371
0.140668
0.151171
0.162097
0.173825
0.186765
0.201273
0.217554
0.235654
0.255469
0.276809
0.299452
0.323183
0.347823
0.373224
0.399291
0.425969
0.453258
0.481202
0.509884
0.539402
0.56987
0.601396
0.63409
0.668048
0.703369
0.740132
0.77841
0.81826
0.859728
0.902852
0.947663
0.994173
1.04238
1.09229
1.14386
1.19708
1.2519
1.30827
1.36613
1.42542
1.48605
1.54797
1.61107
1.67526
1.7404
1.80635
1.87299
1.9402
2.00785
2.07583
2.14402
2.2123
2.28056
2.34871
2.41667
2.48436
2.55172
2.61865
2.6851
2.75101
2.81634
2.88106
2.94513
3.0085
3.07112
3.13293
3.19388
3.2539
3.31296
3.37101
3.42798
3.48381
3.53846
3.59185
3.64393
3.69466
3.74399
3.79187
3.83825
3.88308
3.92631
3.96789
4.00779
4.04597
4.08239
4.11703
4.14984
4.18079
4.20988
4.2371
4.26243
4.28589
4.30745
4.32712
4.3449
4.36079
4.37479
4.38691
4.39716
4.40554
4.4121
4.41683
4.41977
4.42092
4.42034
4.41803
4.41396
4.40824
4.4009
4.39199
4.38152
4.36956
4.35612
4.34125
4.325
4.30741
4.28851
4.26836
4.24699
4.22445
4.20078
4.176
4.15016
4.12325
4.09531
4.06643
4.03666
4.00609
3.97477
3.94275
3.91008
3.87682
3.84299
3.80864
3.77377
3.73846
3.70276
3.66675
3.63051
3.59409
3.55754
3.52093
3.48429
3.44769
3.41121
3.37493
3.33895
3.30337
3.26831
3.23382
3.2
3.16619
3.13106
0.00326585
0.0390656
0.0644791
0.0750176
0.079055
0.079858
0.0786521
0.0761252
0.0729863
0.0699031
0.0673481
0.065584
0.0647701
0.0646843
0.065635
0.0676051
0.0705447
0.0744214
0.0792053
0.084853
0.0913014
0.0984678
0.106276
0.114646
0.12353
0.132888
0.142745
0.153193
0.164408
0.176587
0.189952
0.204658
0.220785
0.238315
0.257166
0.277205
0.298287
0.320278
0.343061
0.366556
0.390707
0.4155
0.440946
0.467096
0.494019
0.521819
0.5506
0.580478
0.611557
0.643952
0.677771
0.713121
0.750095
0.788779
0.829252
0.871582
0.915831
0.962044
1.01026
1.06049
1.11273
1.16697
1.22318
1.28132
1.3413
1.40305
1.46648
1.53148
1.59791
1.66567
1.73459
1.8045
1.87524
1.94662
2.0185
2.09077
2.16334
2.2361
2.30893
2.38172
2.45437
2.52681
2.59893
2.67065
2.74184
2.81243
2.8824
2.95171
3.02031
3.08817
3.15523
3.22143
3.28671
3.351
3.41425
3.4764
3.5374
3.59721
3.65574
3.71295
3.76877
3.82314
3.87601
3.92734
3.97708
4.02519
4.07161
4.11629
4.15919
4.20027
4.2395
4.27684
4.31227
4.34575
4.37725
4.40676
4.43429
4.45981
4.48332
4.50482
4.52432
4.54181
4.5573
4.5708
4.5823
4.59183
4.59942
4.60508
4.60886
4.61077
4.61083
4.60917
4.6056
4.60027
4.59322
4.58451
4.57417
4.56224
4.54875
4.53376
4.51731
4.49944
4.4802
4.45963
4.43779
4.41471
4.39044
4.36503
4.33851
4.31092
4.28224
4.25249
4.22179
4.19022
4.15784
4.1247
4.09085
4.05635
4.02124
3.98556
3.94933
3.91255
3.87529
3.83764
3.79967
3.76147
3.72308
3.68455
3.64594
3.60729
3.56864
3.53009
3.49173
3.45366
3.41599
3.37882
3.34221
3.30628
3.27042
3.2336
0.00423759
0.0455262
0.0720854
0.0829196
0.0869237
0.0875797
0.085996
0.0831475
0.08006
0.0774454
0.0756878
0.0749069
0.074798
0.0755664
0.0772959
0.0799298
0.0833993
0.0876524
0.0926484
0.0983496
0.104728
0.111758
0.119435
0.127749
0.136734
0.146432
0.156936
0.168325
0.180714
0.19418
0.208773
0.22449
0.241298
0.25912
0.277873
0.297465
0.317825
0.338897
0.360648
0.383071
0.406175
0.429997
0.454587
0.480031
0.506417
0.533828
0.562376
0.592181
0.623361
0.656041
0.690337
0.726373
0.764256
0.804093
0.845979
0.890003
0.936244
0.984774
1.03564
1.08886
1.14444
1.20233
1.26251
1.3249
1.38939
1.45588
1.52422
1.59425
1.66576
1.73852
1.81235
1.88707
1.96248
2.03837
2.11453
2.1909
2.26746
2.34417
2.42095
2.49771
2.5743
2.65065
2.72666
2.80218
2.87707
2.95129
3.02481
3.09754
3.16946
3.2405
3.31062
3.37976
3.44783
3.51477
3.58052
3.64502
3.70823
3.77009
3.83054
3.88951
3.94695
4.00278
4.05697
4.10948
4.16025
4.20925
4.25644
4.30175
4.34515
4.3866
4.42606
4.46352
4.49896
4.53234
4.56367
4.59292
4.62006
4.64509
4.668
4.68881
4.7075
4.7241
4.73861
4.75104
4.76138
4.76968
4.77596
4.78025
4.78261
4.78306
4.78175
4.77853
4.77341
4.76652
4.75788
4.74754
4.73554
4.72193
4.70674
4.69004
4.67186
4.65224
4.63125
4.60893
4.58533
4.56049
4.53447
4.50731
4.47905
4.44973
4.41936
4.38795
4.3556
4.32239
4.28837
4.25358
4.21808
4.18193
4.14516
4.10783
4.06996
4.03147
3.99249
3.95312
3.91344
3.87351
3.83338
3.79311
3.75274
3.71229
3.67181
3.63141
3.59119
3.55125
3.51169
3.4726
3.43406
3.39619
3.35843
3.32011
0.00523234
0.0517801
0.0794778
0.0905509
0.0944793
0.0949487
0.0929486
0.0899793
0.0872213
0.0852773
0.0843564
0.0841479
0.0846772
0.0860492
0.0882939
0.0913479
0.0951497
0.0996644
0.104876
0.110779
0.117383
0.124698
0.13276
0.141602
0.15128
0.161831
0.173315
0.185747
0.199151
0.213491
0.228759
0.244905
0.261871
0.279589
0.298019
0.317129
0.33691
0.357374
0.378535
0.400434
0.423122
0.446682
0.47122
0.496866
0.523615
0.551521
0.580804
0.611575
0.643957
0.678084
0.714084
0.752091
0.792227
0.834608
0.879336
0.926513
0.97622
1.02853
1.0835
1.14113
1.20136
1.2641
1.32929
1.39682
1.46658
1.53841
1.61214
1.68751
1.76421
1.84187
1.92023
1.99918
2.0786
2.15831
2.23806
2.31791
2.39785
2.47783
2.55778
2.63752
2.71701
2.79628
2.87523
2.95363
3.03138
3.10839
3.18454
3.25975
3.33399
3.40721
3.47935
3.55035
3.62011
3.68857
3.75567
3.82136
3.8856
3.94834
4.00952
4.06906
4.12691
4.18302
4.23733
4.28982
4.34045
4.38918
4.43598
4.4808
4.52358
4.56429
4.60292
4.63945
4.67386
4.70614
4.73627
4.76424
4.79004
4.81365
4.83509
4.85437
4.87149
4.88648
4.89933
4.91007
4.91868
4.92521
4.92972
4.93222
4.93279
4.93157
4.9284
4.92328
4.91633
4.9076
4.89712
4.88494
4.87111
4.85567
4.83868
4.82017
4.8002
4.77881
4.75607
4.73202
4.7067
4.68017
4.65248
4.62367
4.59378
4.56286
4.53095
4.49812
4.46438
4.42977
4.39435
4.35816
4.32125
4.28368
4.24551
4.20676
4.16748
4.1276
4.08723
4.04646
4.00536
3.964
3.92242
3.88069
3.83885
3.79689