/*--------------------------------*- C++ -*----------------------------------*\
  =========                 |
  \\      /  F ield         | OpenFOAM: The Open Source CFD Toolbox
   \\    /   O peration     | Website:  https://openfoam.org
    \\  /    A nd           | Version:  8
     \\/     M anipulation  |
\*---------------------------------------------------------------------------*/
FoamFile
{
    version     2.0;
    format      ascii;
    class       volScalarField;
    location    "1200";
    object      omega;
}
// * * * * * * * * * * * * * * * * * * * * * * * * * * * * * * * * * * * * * //

dimensions      [0 0 -1 0 0 0 0];

internalField   nonuniform List<scalar> 
12225
(
32582.3
38628.8
32582.3
49583.1
44097.4
40595.2
38541.4
39326.4
32582.3
45710.7
40853.2
32582.3
41610.8
46875.9
49191.8
44909.6
47014.5
42027.5
18598.2
15274.3
13505.6
17068.7
17176.4
16726.1
15942.5
16824.9
16117.9
17966.7
17437.3
16701.6
16734.4
16797.6
17744.8
16499.9
18220.1
17980.4
6571.41
4504.6
3465.42
3605.04
4127.22
4488.58
4736.66
5209.07
5280.06
5693.71
5918.93
6191.55
6550.46
6915.08
7334.99
7532.14
7771.49
8092.13
2749.78
1872.15
1356.68
1269.55
1389.2
1517.78
1654.63
1815.15
1918.93
2036.63
2162.74
2306.26
2471.55
2643.63
2805.88
2955
3101.06
3201.36
1069.06
885.307
732.423
696.647
729.247
785.669
842.752
907.56
959.021
1007.35
1070.7
1135.77
1235.8
1313.06
1410.08
1528.58
1583.08
1731.29
569.676
550.18
520.343
513.781
526.532
552.126
578.108
607.515
633.428
657.156
686.993
731.237
797.269
857.258
927.812
1014.82
1063.68
1194.15
457.956
473.721
461.422
455.74
458.467
468.166
478.817
491.559
504.325
516.19
531.627
558.526
600.964
645.44
696.849
753.047
795.805
868.018
443.144
443.472
444.358
441.113
440.1
442.704
446.774
452.222
458.49
464.83
473.894
490.791
519.116
550.057
588.087
622.446
657.937
694.54
439.91
437.956
436.558
434.668
433.777
433.532
434.122
435.651
437.994
440.901
445.51
455.467
473.106
493.515
519.081
541.861
565.316
590.074
439.162
436.934
434.943
433.041
431.322
430.043
429.148
428.464
428.413
428.65
429.799
434.358
443.565
455.403
469.475
483.933
496.161
512.487
439.021
436.799
434.678
432.736
430.831
429.167
427.63
426.236
425.017
423.569
423.055
423.854
427.172
432.604
438.958
446.148
452.136
460
439
436.786
434.641
432.691
430.756
428.996
427.314
425.67
424.241
422.598
420.931
419.671
419.909
421.312
423.331
425.78
427.829
430.643
438.998
436.782
434.649
432.666
430.755
428.951
427.247
425.598
424.054
422.511
420.986
419.65
418.634
418.048
417.742
417.814
417.295
417.445
439
436.777
434.658
432.654
430.749
428.937
427.218
425.579
424.016
422.52
421.073
419.718
418.456
417.345
416.32
415.462
414.589
413.853
439.001
436.774
434.658
432.649
430.741
428.927
427.203
425.562
423.999
422.509
421.086
419.733
418.444
417.228
416.073
414.99
413.952
412.978
439.001
436.772
434.656
432.646
430.736
428.92
427.193
425.55
423.985
422.495
421.075
419.721
418.431
417.201
416.028
414.91
413.843
412.826
439.001
436.772
434.655
432.644
430.733
428.916
427.188
425.543
423.977
422.486
421.064
419.71
418.418
417.185
416.009
414.887
413.816
412.793
439.001
436.772
434.655
432.643
430.732
428.915
427.186
425.541
423.974
422.483
421.06
419.705
418.412
417.18
416.002
414.88
413.806
412.783
439.001
436.772
434.655
432.645
430.733
428.916
427.188
425.542
423.977
422.486
421.066
419.712
418.421
417.188
416.013
414.889
413.817
412.792
439.001
436.773
434.656
432.648
430.737
428.919
427.19
425.548
423.991
422.514
421.111
419.775
418.499
417.278
416.111
414.991
413.924
412.897
439.001
436.775
434.655
432.661
430.746
428.913
427.181
425.57
424.095
422.747
421.483
420.287
419.136
418.004
416.916
415.832
414.82
413.797
439.009
436.769
434.642
432.714
430.766
428.817
427.121
425.808
424.943
424.437
423.983
423.63
423.182
422.623
422.041
421.308
420.7
419.842
439.041
436.724
434.705
432.899
430.958
428.294
427.297
427.8
430.031
433.238
436.084
439.243
441.668
443.722
445.37
446.598
447.812
448.215
439.134
436.43
435.89
434.127
433.247
432.53
434.055
441.551
453.656
466.744
479.079
491.198
499.827
508.072
513.448
518.51
522.878
524.127
438.979
440.93
443.055
451.042
447.975
451.111
461.706
487.726
523.605
558.978
594.595
623.598
646.571
665.285
676.092
685.925
692.02
693.099
449.83
471.195
497.554
509.494
508.5
521.487
558.398
624.844
710.812
800.688
885.148
953.379
1002.04
1034.46
1051.83
1058.25
1059.69
1057.32
500.063
624.873
723.502
748.905
758.053
797.042
913.04
1069.51
1251.72
1462.86
1629.86
1778.67
1811.56
1814.89
1828.62
1875
1887.38
1852.11
708.967
1315.75
1614.18
1678.86
1800.93
1974.03
2263.71
2578.97
2897.51
3228.67
3487.28
3614.51
3678.1
3723.58
3730.15
3784.64
3804.31
3806.12
1794.28
4454.68
6050.72
6645.57
7329.39
7949.92
8504.33
8976.5
9329.31
9593.4
9663.98
9664.09
9652.91
9683.5
9683.59
9598.62
9551.95
9446.37
16112.1
21723.2
23764.5
24723.3
25198.2
25230.9
25154.9
24959.6
24671.7
24358.7
24044.8
23747.3
23473.9
23229.9
23020.5
22845.8
22699.8
22580.7
11463.3
2494.65
2496.87
2499.12
2501.38
2503.67
2505.98
2508.3
2510.65
2513.02
2515.42
2517.83
2520.27
2522.73
2525.21
2527.72
2530.25
2532.8
2535.37
2537.97
2540.6
2543.25
2545.92
2548.62
2551.34
2554.09
2556.87
2559.67
2562.5
2565.35
2568.23
2571.14
2574.08
2577.04
2580.04
2583.06
2586.11
2589.19
2592.3
2595.43
2598.6
2601.8
2605.03
2608.29
2611.59
2614.91
2618.27
2621.66
2625.08
2628.54
2632.03
2635.55
2639.11
2642.71
2646.33
3297.85
3207.93
3180.14
3389.04
3174.54
2668.88
3266.41
3369.83
3455.54
3554.33
3631.97
3717.6
3792.45
3869.57
3940.8
4012.32
4080.15
4147.53
4212.39
4276.47
4338.69
4400.01
4459.84
4518.73
4576.35
4633.01
4688.53
4743.1
4796.6
4849.12
4900.62
4951.11
5000.58
5049.01
5096.38
5142.64
5187.76
5231.7
5274.4
5315.81
5355.89
5394.65
5432.15
5468.57
5504.3
5539.22
5573.01
5605.85
5637.7
5668.55
5698.42
5727.25
5755.08
5781.88
5807.64
5832.35
5856.02
5878.63
5900.2
5920.7
5940.15
5958.55
5975.88
5992.17
6007.39
6021.57
6034.69
6046.76
6057.77
6067.71
6076.54
6084.22
6091.71
6097.78
6103.51
6106.89
6110.42
6112.83
6114.99
6116.36
6116.54
6114.72
6112.4
6108.91
6104.69
6099.56
6093.64
6086.92
6079.5
6071.5
6062.59
6053.39
6043.06
6032.67
6021.03
6009.49
5996.62
5984.06
5970.1
5956.72
5941.94
5927.84
5912.69
5897.82
5882.7
5867.56
5852.38
5837.22
5822.09
5807.06
5792.18
5777.53
5763.16
5749.16
5735.53
5722.31
5709.46
5696.84
5684.23
5671.23
5657.34
5641.42
5620.56
5589.98
5462.04
11463.3
1994.5
1002.76
818.009
699.673
628.764
636.855
634.671
621.399
599.645
574.931
551.069
528.908
510.524
497.803
488.793
487.647
489.441
514.31
562.477
646.848
748.754
859.352
969.365
1067.44
1143.71
1186.37
1179.02
1147.68
1061.39
943.307
793.407
663.067
574.954
505.582
468.111
463.114
471.055
494.148
524.858
555.207
596.919
692.812
829.435
1058.63
1401.27
1707.72
1910.06
2030.04
2090.38
2102.41
2081.83
2043.55
1991.01
1938.57
1931.57
1865.02
1816.42
1776.01
1724.53
1693.37
1712.33
1695.95
1690
1687.01
1684.93
1684.63
1686.78
1690.22
1694.61
1700.09
1706.08
1712.79
1719.79
1727.21
1734.8
1742.6
1750.48
1758.44
1766.42
1774.39
1782.32
1790.18
1797.95
1805.61
1813.14
1820.51
1827.72
1834.72
1841.52
1848.08
1854.44
1860.58
1866.53
1872.34
1878.11
1883.99
1890.2
1897.11
1905.19
1913.71
1921.72
1929.65
1937.3
1944.75
1951.95
1958.94
1965.69
1972.22
1978.51
1984.58
1990.42
1996.03
2001.41
2006.57
2011.5
2016.2
2020.68
2024.93
2028.96
2032.76
2036.34
2039.71
2042.86
2045.79
2048.52
2051.06
2053.47
2055.63
2057.62
2059.36
2061.03
2062.51
2063.84
2064.8
2065.08
2064.54
2063.82
2062.9
2061.79
2060.48
2058.99
2057.35
2055.6
2053.33
2051.67
2048.47
2046.75
2043.14
2041.2
2037.21
2035.05
2030.74
2028.39
2023.85
2021.19
2016.73
2013.39
2009.51
2005.68
2001.81
1997.91
1993.99
1990.07
1986.15
1982.25
1978.39
1974.57
1970.81
1967.13
1963.54
1960.01
1956.62
1953.39
1950.36
1947.68
1945.35
1944.03
1942.9
1951.43
11463.3
2017.13
819.857
648.287
688.845
691.429
663.712
607.641
547.375
490.538
440.358
397.525
363.931
337.637
317.398
301.867
290.987
282.786
280.172
282.386
292.53
311.089
343.364
387.695
442.801
503.83
564.816
611.824
642.109
637.92
621.004
574.013
512.935
446.128
396.686
391.614
403.981
429.951
472.451
550.651
669.149
836.858
1039.45
1218.4
1364.85
1497.29
1569.58
1590.63
1574.23
1523.64
1466.83
1405.43
1349.24
1297.06
1253.29
1220.29
1188.59
1165.41
1146.65
1134.32
1126.39
1122.02
1117.37
1115.53
1114.84
1114.71
1116.01
1117.91
1120.43
1123.38
1126.72
1130.33
1134.18
1138.18
1142.33
1146.57
1150.89
1155.26
1159.65
1164.05
1168.45
1172.83
1177.18
1181.5
1185.77
1189.98
1194.13
1198.22
1202.24
1206.19
1210.08
1213.93
1217.74
1221.53
1225.34
1229.21
1233.18
1237.28
1241.55
1245.91
1250.18
1254.29
1258.3
1262.17
1265.93
1269.56
1273.06
1276.43
1279.68
1282.8
1285.78
1288.64
1291.37
1293.97
1296.44
1298.78
1300.99
1303.06
1305.01
1306.82
1308.5
1310.06
1311.48
1312.77
1313.94
1314.98
1315.9
1316.71
1317.38
1317.94
1318.36
1318.69
1318.88
1318.93
1318.77
1318.36
1317.72
1316.98
1316.13
1315.16
1314.09
1312.9
1311.61
1310.21
1308.66
1307.13
1305.25
1303.59
1301.49
1299.67
1297.37
1295.41
1292.92
1290.84
1288.2
1285.98
1283.27
1280.82
1278.19
1275.55
1272.87
1270.17
1267.44
1264.7
1261.94
1259.18
1256.42
1253.67
1250.92
1248.21
1245.54
1242.92
1240.38
1237.98
1235.78
1233.92
1232.57
1232.46
1234
1244.74
11463.3
2040.71
1020.38
990.868
915.608
785.152
666.752
558.425
472.938
409.153
361.085
323.615
294.453
272.103
255.032
242.067
232.335
225.293
220.61
218.726
219.727
222.767
231.074
245.466
267.152
296.144
330.637
366.005
397.013
420.311
425.99
419.053
398.507
402.731
448.116
539.879
607.895
670.78
748.768
859.165
997.717
1109.56
1186.7
1253.27
1299.03
1313.05
1259.87
1222.99
1169.17
1118.67
1072.27
1031.59
997.484
969.15
946.787
929.316
915.519
905.646
898.388
893.663
890.809
889.42
888.794
888.835
889.812
891.284
893.289
895.63
898.276
901.151
904.221
907.438
910.781
914.217
917.73
921.299
924.912
928.554
932.215
935.883
939.552
943.213
946.859
950.485
954.085
957.657
961.196
964.702
968.174
971.614
975.026
978.417
981.792
985.161
988.53
991.906
995.294
998.687
1002.07
1005.4
1008.64
1011.77
1014.82
1017.76
1020.61
1023.36
1026.01
1028.55
1030.99
1033.33
1035.56
1037.69
1039.71
1041.62
1043.42
1045.11
1046.7
1048.17
1049.53
1050.77
1051.91
1052.93
1053.84
1054.64
1055.32
1055.9
1056.37
1056.73
1056.97
1057.11
1057.14
1057.06
1056.86
1056.53
1056.06
1055.43
1054.67
1053.82
1052.87
1051.81
1050.66
1049.42
1048.08
1046.64
1045.11
1043.51
1041.77
1040.01
1038.09
1036.18
1034.11
1032.06
1029.84
1027.67
1025.33
1023.04
1020.6
1018.18
1015.7
1013.17
1010.61
1008.03
1005.42
1002.78
1000.13
997.473
994.803
992.131
989.458
986.8
984.171
981.585
979.071
976.668
974.442
972.512
971.036
970.595
971.69
978.374
11463.3
2319.07
1486.67
1201.87
953.844
736.99
569.193
456.479
379.541
325.616
287.088
259.493
239.526
224.528
213.01
204.147
197.486
192.671
189.476
187.994
188.333
189.669
193.624
200.521
211.519
227.687
249.013
273.121
297.156
315.409
332.432
361.193
432.671
540.243
631.961
704.533
779.583
859.621
932.505
994.512
1049.09
1096.01
1119.24
1122.59
1080.22
1036.84
994.178
955.616
916.288
884.338
856.445
833.49
814.821
800.061
788.761
780.243
774.141
770.09
767.664
766.648
766.41
766.944
768.146
769.842
771.988
774.455
777.198
780.149
783.275
786.542
789.924
793.399
796.952
800.566
804.229
807.929
811.658
815.406
819.165
822.927
826.688
830.44
834.179
837.901
841.601
845.276
848.925
852.544
856.134
859.693
863.225
866.728
870.206
873.658
877.082
880.476
883.831
887.138
890.385
893.555
896.638
899.633
902.539
905.352
908.07
910.693
913.217
915.642
917.966
920.189
922.307
924.32
926.226
928.023
929.711
931.287
932.751
934.102
935.339
936.462
937.47
938.363
939.14
939.801
940.347
940.777
941.092
941.291
941.371
941.351
941.207
940.948
940.566
940.061
939.428
938.667
937.79
936.809
935.727
934.543
933.258
931.876
930.397
928.822
927.156
925.399
923.545
921.618
919.592
917.506
915.325
913.095
910.773
908.413
905.962
903.484
900.923
898.333
895.69
893.006
890.286
887.536
884.759
881.96
879.141
876.307
873.461
870.611
867.769
864.941
862.138
859.374
856.673
854.071
851.624
849.428
847.609
846.564
846.827
850.222
11463.3
2952.75
1753.88
1224.42
843.449
594.974
450.655
360.868
305.008
268.818
243.783
225.415
211.321
200.263
191.436
184.416
178.993
175.054
172.502
171.465
171.832
173.232
176.579
181.906
189.927
201.908
218.809
240.981
270.739
315.882
374.543
473.155
587.704
678.794
750.57
815.104
867.309
907.21
941.388
972.704
986.571
981.608
948.537
917.694
881.566
848.501
817.591
790.619
766.7
747.327
731.017
717.957
707.703
699.982
694.434
690.657
688.653
687.907
687.845
688.782
690.363
692.467
695.001
697.874
701.022
704.385
707.924
711.602
715.396
719.284
723.251
727.282
731.367
735.495
739.656
743.843
748.048
752.263
756.481
760.697
764.905
769.1
773.276
777.431
781.559
785.659
789.725
793.757
797.751
801.708
805.624
809.5
813.334
817.122
820.861
824.546
828.169
831.718
835.191
838.579
841.878
845.084
848.197
851.212
854.126
856.938
859.645
862.244
864.734
867.113
869.381
871.532
873.567
875.482
877.276
878.947
880.494
881.916
883.212
884.382
885.424
886.339
887.126
887.784
888.313
888.714
888.985
889.115
889.136
889.032
888.795
888.428
887.932
887.305
886.549
885.663
884.656
883.535
882.301
880.955
879.5
877.936
876.267
874.497
872.626
870.656
868.588
866.429
864.177
861.844
859.426
856.936
854.366
851.732
849.024
846.26
843.431
840.553
837.624
834.651
831.639
828.595
825.522
822.425
819.307
816.171
813.024
809.871
806.723
803.588
800.477
797.404
794.389
791.463
788.675
786.101
783.848
782.178
781.476
782.649
11463.3
3466.43
1797.68
1048.51
659.423
464.023
363.399
306.904
270.942
245.907
227.128
212.395
200.495
190.627
182.429
175.751
170.529
166.755
164.531
163.983
164.885
167.529
172.44
180.014
191.095
206.224
229.248
266.301
324.672
414.995
524.146
615.336
687.463
749.223
796.701
831.897
860.274
879.576
886.683
875.934
851.378
828.364
800.3
774.434
748.301
725.191
704.689
687.295
672.589
660.662
651.027
643.606
638.146
634.422
632.436
631.693
631.752
632.868
634.68
637.132
640.075
643.41
647.064
650.97
655.079
659.35
663.752
668.26
672.855
677.523
682.251
687.028
691.846
696.696
701.57
706.46
711.359
716.259
721.153
726.037
730.903
735.747
740.565
745.351
750.102
754.814
759.482
764.103
768.675
773.194
777.659
782.067
786.415
790.7
794.918
799.065
803.137
807.13
811.037
814.848
818.561
822.17
825.674
829.069
832.351
835.517
838.564
841.488
844.285
846.95
849.483
851.882
854.148
856.276
858.267
860.117
861.825
863.392
864.815
866.095
867.23
868.221
869.067
869.768
870.323
870.733
870.991
871.093
871.082
870.92
870.613
870.163
869.569
868.835
867.959
866.946
865.801
864.528
863.129
861.606
859.961
858.196
856.307
854.293
852.165
849.927
847.582
845.134
842.586
839.944
837.212
834.396
831.496
828.519
825.466
822.346
819.159
815.916
812.619
809.274
805.887
802.465
799.012
795.534
792.033
788.514
784.984
781.449
777.918
774.401
770.908
767.454
764.055
760.737
757.543
754.534
751.783
749.476
747.806
747.333
11463.3
3609.85
1578.23
824.554
522.221
386.998
317.471
277.027
250.961
232.546
218.362
206.491
196.106
187.118
179.494
173.311
168.753
166.012
165.041
165.719
168.291
173.427
181.654
195.09
216.411
248.169
297.439
375.143
466.376
548.674
615.428
672.053
719.45
756.734
786.63
802.629
806.745
796.048
777.149
758.302
736.8
716.62
695.912
676.703
658.649
642.97
629.475
618.198
608.938
601.624
596.06
592.125
589.838
588.916
588.854
589.882
591.731
594.33
597.527
601.228
605.338
609.779
614.488
619.414
624.515
629.757
635.114
640.565
646.092
651.681
657.322
663.003
668.716
674.452
680.205
685.964
691.721
697.469
703.2
708.908
714.587
720.231
725.836
731.396
736.907
742.366
747.766
753.103
758.373
763.574
768.702
773.755
778.73
783.622
788.428
793.145
797.772
802.305
806.73
811.042
815.237
819.312
823.262
827.085
830.776
834.333
837.75
841.025
844.155
847.138
849.971
852.652
855.178
857.547
859.758
861.808
863.696
865.42
866.981
868.378
869.61
870.678
871.581
872.318
872.89
873.297
873.523
873.593
873.517
873.274
872.869
872.304
871.58
870.699
869.664
868.476
867.141
865.663
864.044
862.287
860.394
858.367
856.21
853.926
851.517
848.988
846.342
843.582
840.712
837.739
834.667
831.502
828.246
824.904
821.481
817.983
814.415
810.784
807.096
803.355
799.57
795.747
791.891
788.008
784.1
780.175
776.239
772.299
768.363
764.444
760.55
756.695
752.893
749.168
745.539
742.051
738.773
735.839
733.336
731.478
11463.3
3426.93
1291.76
667.801
447.67
351.496
299.989
268.756
247.186
230.841
217.829
207.038
197.853
190.006
183.528
178.646
175.712
174.88
176.454
180.502
187.978
200.316
218.964
248.961
295.203
357.48
427.98
492.587
551.009
601.608
644.893
681.111
712.296
731.801
737.644
731.249
717.712
701.813
684.728
668.549
652.483
637.233
622.35
608.587
596.151
585.463
576.464
569.145
563.404
559.167
556.378
555.049
554.731
555.435
557.083
559.59
562.825
566.695
571.101
575.959
581.193
586.739
592.54
598.551
604.732
611.054
617.493
624.024
630.629
637.292
643.998
650.736
657.493
664.263
671.042
677.813
684.568
691.299
697.998
704.657
711.271
717.834
724.34
730.781
737.148
743.433
749.643
755.776
761.828
767.794
773.671
779.456
785.144
790.731
796.213
801.585
806.841
811.973
816.978
821.849
826.583
831.176
835.625
839.925
844.072
848.062
851.892
855.558
859.055
862.382
865.536
868.514
871.314
873.934
876.371
878.623
880.689
882.568
884.26
885.764
887.081
888.211
889.153
889.907
890.474
890.849
891.022
891.031
890.858
890.502
889.964
889.248
888.355
887.288
886.048
884.641
883.069
881.338
879.45
877.408
875.215
872.874
870.389
867.764
865.002
862.108
859.084
855.935
852.666
849.282
845.789
842.194
838.499
834.711
830.834
826.877
822.845
818.745
814.584
810.367
806.101
801.796
797.455
793.086
788.692
784.281
779.86
775.437
771.022
766.624
762.255
757.926
753.65
749.449
745.348
741.387
737.608
734.107
730.914
727.974
11463.3
2989.43
1040.63
567.25
404.75
331.453
292.146
266.393
248.696
235.679
225.226
216.406
208.943
202.939
198.764
197.084
198.089
202.663
210.903
223.367
242.162
269.299
306.491
352.245
401.927
452.011
499.211
541.561
579.48
612.184
641.127
663.652
672.959
673.254
665.234
653.686
640.355
627.166
614.503
602.564
590.952
579.76
569.056
559.267
550.637
543.367
537.458
532.895
529.62
527.75
527.061
527.287
528.569
530.783
533.845
537.673
542.176
547.272
552.882
558.938
565.374
572.127
579.142
586.374
593.785
601.344
609.033
616.823
624.682
632.591
640.534
648.491
656.442
664.361
672.21
680.035
687.836
695.605
703.331
711.007
718.626
726.183
733.671
741.085
748.423
755.681
762.84
769.891
776.831
783.657
790.363
796.948
803.406
809.734
815.926
821.98
827.888
833.649
839.257
844.707
849.996
855.12
860.074
864.855
869.458
873.879
878.114
882.159
886.01
889.664
893.118
896.37
899.417
902.258
904.89
907.31
909.518
911.513
913.294
914.864
916.22
917.365
918.298
919.019
919.529
919.817
919.896
919.779
919.455
918.929
918.201
917.276
916.154
914.84
913.336
911.647
909.778
907.732
905.512
903.124
900.569
897.852
894.978
891.949
888.772
885.45
881.987
878.388
874.658
870.802
866.828
862.741
858.547
854.253
849.864
845.39
840.837
836.212
831.522
826.773
821.973
817.13
812.25
807.34
802.406
797.457
792.5
787.544
782.598
777.673
772.78
767.928
763.133
758.411
753.785
749.288
744.949
740.845
736.969
733.039
11463.3
2504.66
893.112
523.412
389.465
327.141
292.607
272.103
258.418
248.343
240.435
234.229
229.855
228.019
228.769
233.342
241.931
253.771
269.307
290.723
318.147
350.496
386.056
422.679
458.638
492.809
524.311
552.238
577.761
600.661
613.631
617.239
615.224
609.128
600.013
590.099
580.253
570.928
562.042
553.459
545.041
536.896
529.228
522.349
516.464
511.697
508.077
505.657
504.514
504.305
505.141
506.958
509.724
513.371
517.827
523.018
528.865
535.3
542.252
549.664
557.503
565.675
574.124
582.803
591.664
600.653
609.693
618.772
627.925
637.134
646.379
655.639
664.885
674.103
683.299
692.441
701.524
710.541
719.475
728.322
737.078
745.739
754.302
762.759
771.102
779.316
787.397
795.339
803.142
810.799
818.311
825.671
832.875
839.919
846.799
853.512
860.053
866.418
872.603
878.602
884.411
890.025
895.442
900.657
905.666
910.465
915.048
919.413
923.555
927.472
931.16
934.617
937.842
940.831
943.584
946.097
948.37
950.402
952.195
953.749
955.064
956.142
956.983
957.588
957.954
958.081
957.98
957.65
957.094
956.315
955.315
954.098
952.666
951.024
949.176
947.127
944.881
942.443
939.816
937.005
934.015
930.848
927.511
924.009
920.345
916.526
912.556
908.44
904.183
899.792
895.272
890.632
885.878
881.018
876.059
871.012
865.883
860.679
855.408
850.074
844.687
839.255
833.784
828.283
822.76
817.223
811.683
806.148
800.627
795.13
789.667
784.25
778.891
773.607
768.419
763.352
758.428
753.709
749.175
744.355
11463.3
2085.58
793.017
492.518
381.832
328.567
300.617
284.242
273.764
266.647
261.801
259.42
259.1
261.853
268.098
277.968
290.901
306.69
326.169
348.956
374.144
400.641
427.446
453.719
478.742
501.821
523.554
544.017
558.754
565.098
566.518
565.387
561.032
555.017
548.232
541.446
534.878
528.536
522.313
516.149
510.082
504.278
498.96
494.369
490.671
487.963
486.454
485.967
486.456
487.969
490.471
493.925
498.296
503.565
509.664
516.488
523.968
532.035
540.612
549.602
558.845
568.428
578.337
588.529
598.956
609.574
620.363
631.284
642.267
653.268
664.253
675.206
686.068
696.814
707.431
717.9
728.21
738.367
748.392
758.293
768.076
777.742
787.287
796.702
805.975
815.091
824.041
832.821
841.426
849.857
858.108
866.175
874.051
881.735
889.221
896.508
903.593
910.47
917.134
923.581
929.805
935.803
941.571
947.107
952.406
957.465
962.278
966.842
971.153
975.208
979.006
982.545
985.821
988.834
991.581
994.061
996.274
998.219
999.898
1001.31
1002.46
1003.35
1003.98
1004.34
1004.45
1004.3
1003.89
1003.24
1002.34
1001.19
999.809
998.191
996.343
994.27
991.976
989.467
986.747
983.821
980.694
977.37
973.855
970.153
966.27
962.21
957.981
953.587
949.034
944.328
939.474
934.478
929.348
924.089
918.712
913.226
907.641
901.965
896.206
890.371
884.467
878.499
872.476
866.405
860.296
854.157
847.999
841.832
835.667
829.511
823.373
817.263
811.192
805.169
799.208
793.326
787.541
781.875
776.344
770.996
765.819
760.179
11463.3
1949.35
775.356
489.177
384.151
337.204
313.326
300.052
292.267
288.042
286.446
286.816
289.953
295.975
304.832
316.263
329.959
345.966
363.839
382.966
402.733
422.447
441.572
459.908
477.754
494.936
508.958
517.199
521.095
522.601
522.492
520.411
517.068
513.117
508.928
504.703
500.476
496.234
491.971
487.741
483.668
479.942
476.758
474.306
472.861
472.368
472.869
474.563
477.243
480.889
485.473
490.954
497.258
504.237
511.88
520.279
529.406
539.2
549.594
560.531
572.005
583.901
596.158
608.721
621.527
634.505
647.6
660.782
673.94
686.984
699.844
712.451
724.8
736.878
748.678
760.203
771.47
782.513
793.377
804.091
814.669
825.122
835.449
845.635
855.654
865.487
875.125
884.559
893.788
902.808
911.616
920.205
928.569
936.703
944.605
952.273
959.704
966.895
973.84
980.534
986.972
993.15
999.066
1004.72
1010.1
1015.22
1020.06
1024.62
1028.89
1032.89
1036.6
1040.02
1043.15
1046
1048.55
1050.81
1052.78
1054.45
1055.84
1056.94
1057.75
1058.28
1058.52
1058.48
1058.17
1057.57
1056.7
1055.57
1054.17
1052.52
1050.61
1048.45
1046.05
1043.42
1040.56
1037.46
1034.15
1030.62
1026.89
1022.94
1018.8
1014.46
1009.93
1005.22
1000.34
995.281
990.061
984.685
979.157
973.485
967.673
961.728
955.666
949.496
943.228
936.87
930.429
923.912
917.326
910.676
903.971
897.217
890.424
883.605
876.773
869.938
863.111
856.297
849.507
842.749
836.033
829.37
822.775
816.265
809.855
803.565
797.406
791.418
785.606
779.2
11463.3
1890.84
752.44
487.149
391.876
349.385
328.451
317.366
311.595
309.191
308.848
311.175
316.019
323.14
332.238
343.019
355.211
368.543
382.636
397.071
411.426
425.651
439.909
453.695
465.399
473.606
479.342
483.38
485.408
486.232
486.322
485.411
483.896
482.029
479.952
477.735
475.424
473.073
470.772
468.676
467.017
466.044
465.703
466.117
467.465
469.701
472.74
476.353
480.928
486.537
493.177
500.821
509.434
519.027
529.564
540.98
553.218
566.19
579.813
594.013
608.729
623.847
639.278
654.965
670.83
686.689
702.415
717.905
733.118
747.967
762.38
776.304
789.719
802.621
815.015
826.936
838.45
849.651
860.664
871.558
882.343
893.047
903.673
914.185
924.519
934.649
944.567
954.263
963.729
972.961
981.95
990.691
999.174
1007.4
1015.35
1023.04
1030.47
1037.62
1044.5
1051.09
1057.4
1063.42
1069.15
1074.59
1079.74
1084.58
1089.13
1093.38
1097.32
1100.95
1104.27
1107.29
1110
1112.4
1114.49
1116.28
1117.76
1118.93
1119.78
1120.33
1120.57
1120.5
1120.15
1119.48
1118.52
1117.27
1115.74
1113.92
1111.83
1109.47
1106.86
1103.99
1100.88
1097.53
1093.94
1090.13
1086.08
1081.82
1077.34
1072.65
1067.76
1062.67
1057.39
1051.92
1046.28
1040.46
1034.49
1028.35
1022.07
1015.64
1009.08
1002.38
995.574
988.664
981.66
974.567
967.393
960.145
952.83
945.453
938.025
930.544
923.029
915.496
907.957
900.423
892.902
885.401
877.929
870.492
863.101
855.772
848.518
841.355
834.3
827.368
820.567
813.93
807.489
800.362
11463.3
1857.87
750.622
494.003
403.355
363.327
343.688
333.415
328.275
326.325
326.235
329
333.876
340.483
348.389
357.29
366.967
377.199
387.735
398.432
409.436
419.949
428.969
436.438
442.622
447.933
452.136
455.439
457.969
459.947
461.52
462.74
463.722
464.435
464.951
465.343
465.687
466.068
466.567
467.234
468.001
469.148
471.077
474.046
478.278
483.612
490.036
497.674
506.458
516.418
527.548
539.798
553.116
567.474
582.815
599.118
616.312
634.168
652.536
671.288
690.3
709.444
728.601
747.633
766.307
784.57
802.349
819.557
836.087
851.819
866.691
880.683
893.833
906.181
917.716
928.523
938.747
948.577
958.376
968.273
978.162
988.122
998.174
1008.21
1018.16
1027.95
1037.54
1046.9
1056.01
1064.87
1073.48
1081.81
1089.87
1097.64
1105.11
1112.3
1119.2
1125.8
1132.11
1138.11
1143.8
1149.18
1154.25
1159.01
1163.45
1167.59
1171.4
1174.9
1178.07
1180.93
1183.46
1185.67
1187.56
1189.13
1190.39
1191.35
1191.98
1192.28
1192.25
1191.93
1191.27
1190.3
1189.03
1187.46
1185.58
1183.41
1180.94
1178.2
1175.17
1171.88
1168.33
1164.54
1160.5
1156.22
1151.71
1146.96
1142
1136.81
1131.41
1125.81
1120
1114.01
1107.82
1101.45
1094.91
1088.21
1081.35
1074.33
1067.18
1059.89
1052.48
1044.97
1037.37
1029.67
1021.88
1014
1006.05
998.022
989.933
981.788
973.598
965.357
957.092
948.819
940.55
932.292
924.053
915.841
907.664
899.526
891.439
883.424
875.496
867.669
859.955
852.371
844.922
837.631
830.568
822.762
11463.3
1836.17
750.538
502.619
413.604
374.617
355.73
345.411
340.034
337.884
337.604
339.881
343.947
349.377
355.743
362.844
370.542
378.728
387.093
395.219
402.943
410.263
417.373
424.003
430.251
436.153
441.692
446.875
451.701
456.119
460.095
463.47
466.284
468.934
471.546
474.219
477.057
480.176
483.691
487.747
492.571
498.375
505.33
513.752
523.812
535.099
547.648
561.522
576.672
593.146
611.003
629.982
649.906
670.624
691.975
713.748
735.763
757.945
780.162
802.28
824.162
845.685
866.73
887.168
906.943
926.008
944.299
961.713
978.137
993.441
1007.57
1020.63
1032.78
1044.11
1054.71
1064.61
1073.83
1082.45
1090.67
1098.63
1106.5
1114.72
1123.37
1132.12
1140.84
1149.42
1157.8
1165.93
1173.81
1181.44
1188.8
1195.89
1202.68
1209.17
1215.36
1221.25
1226.85
1232.15
1237.16
1241.85
1246.22
1250.27
1254
1257.43
1260.54
1263.34
1265.83
1268
1269.85
1271.39
1272.6
1273.49
1274.07
1274.34
1274.3
1273.98
1273.31
1272.32
1271.03
1269.44
1267.55
1265.35
1262.86
1260.09
1257.03
1253.68
1250.07
1246.18
1242.03
1237.61
1232.96
1228.06
1222.93
1217.57
1211.98
1206.18
1200.16
1193.94
1187.51
1180.9
1174.09
1167.1
1159.93
1152.59
1145.09
1137.44
1129.63
1121.69
1113.61
1105.41
1097.11
1088.72
1080.25
1071.68
1063.03
1054.29
1045.49
1036.61
1027.68
1018.7
1009.69
1000.67
991.643
982.62
973.606
964.608
955.635
946.695
937.799
928.948
920.159
911.455
902.85
894.356
885.983
877.745
869.649
861.708
854.033
845.594
11463.3
1824.6
754.163
508.344
420.317
382.399
363.719
353.225
347.682
345.377
344.968
346.924
350.6
355.66
361.631
368.346
375.586
383.192
391.114
399.387
407.589
415.667
423.741
431.719
439.667
447.569
455.447
463.287
471.04
478.598
486.05
493.463
501.019
508.741
516.75
525.164
534.116
543.748
554.209
565.651
578.24
592.064
607.15
623.462
640.74
659.216
678.961
700.037
722.32
745.581
769.603
794.517
819.951
845.614
871.294
896.752
921.82
946.324
970.132
993.109
1015.18
1036.28
1056.36
1075.4
1093.38
1110.32
1126.24
1141.15
1155.05
1168.02
1180.07
1191.05
1201.26
1210.86
1219.97
1228.56
1236.5
1243.83
1250.45
1256.53
1262.53
1268.92
1275.4
1281.77
1287.97
1293.97
1299.75
1305.3
1310.62
1315.72
1320.59
1325.22
1329.58
1333.67
1337.49
1341.06
1344.37
1347.42
1350.22
1352.73
1354.95
1356.89
1358.55
1359.94
1361.05
1361.9
1362.47
1362.75
1362.74
1362.49
1361.92
1361.08
1359.96
1358.57
1356.9
1354.97
1352.75
1350.25
1347.48
1344.44
1341.14
1337.57
1333.75
1329.68
1325.36
1320.78
1315.97
1310.92
1305.62
1300.1
1294.36
1288.41
1282.24
1275.87
1269.3
1262.53
1255.57
1248.42
1241.1
1233.59
1225.92
1218.08
1210.07
1201.91
1193.61
1185.15
1176.56
1167.84
1158.99
1150.02
1140.93
1131.75
1122.46
1113.09
1103.62
1094.08
1084.46
1074.78
1065.05
1055.27
1045.46
1035.66
1025.86
1016.06
1006.28
996.517
986.782
977.088
967.446
957.879
948.403
939.026
929.757
920.606
911.583
902.704
893.973
885.401
877.128
868.113
11463.3
1815.01
756.783
511.855
423.95
388.255
370.137
360.353
356.245
354.876
355.614
358.857
363.798
370.108
377.705
386.849
396.489
406.729
417.998
430.379
443.214
456.429
470.271
484.696
499.694
515.141
531.04
547.263
563.842
580.746
598.053
615.77
633.987
652.604
671.716
691.388
711.78
733.068
755.485
779.002
803.538
829.021
855.307
882.259
909.707
937.724
966.364
996.038
1026.37
1056.57
1086.1
1114.58
1141.97
1168.22
1193.13
1216.67
1238.67
1259.13
1278
1295.32
1311.13
1325.48
1338.4
1349.99
1360.31
1369.46
1377.53
1384.62
1390.87
1396.52
1401.84
1406.88
1411.63
1415.96
1419.91
1423.41
1426.3
1428.94
1431.56
1434.56
1437.84
1440.87
1443.31
1445.41
1447.31
1449.05
1450.67
1452.17
1453.55
1454.81
1455.92
1456.89
1457.69
1458.33
1458.81
1459.13
1459.3
1459.29
1459.13
1458.75
1458.16
1457.37
1456.4
1455.23
1453.88
1452.33
1450.58
1448.62
1446.44
1444.06
1441.47
1438.67