/*--------------------------------*- C++ -*----------------------------------*\
  =========                 |
  \\      /  F ield         | OpenFOAM: The Open Source CFD Toolbox
   \\    /   O peration     | Website:  https://openfoam.org
    \\  /    A nd           | Version:  8
     \\/     M anipulation  |
\*---------------------------------------------------------------------------*/
FoamFile
{
    version     2.0;
    format      ascii;
    class       surfaceScalarField;
    location    "1200";
    object      phi;
}
// * * * * * * * * * * * * * * * * * * * * * * * * * * * * * * * * * * * * * //

dimensions      [0 3 -1 0 0 0 0];

internalField   nonuniform List<scalar> 
24170
(
3.01248e-06
1.21428e-07
2.86613e-06
1.46394e-07
2.73844e-06
1.27731e-07
2.62683e-06
1.11646e-07
2.53334e-06
9.35927e-08
2.45497e-06
7.84372e-08
2.38827e-06
6.67207e-08
2.33264e-06
5.55409e-08
2.28685e-06
4.57036e-08
2.24953e-06
3.72342e-08
2.21972e-06
2.9789e-08
2.19452e-06
2.51731e-08
2.17176e-06
2.27674e-08
2.15079e-06
2.09837e-08
2.13327e-06
1.75356e-08
2.1188e-06
1.44806e-08
2.10911e-06
9.71782e-09
2.11583e-09
2.10703e-06
3.50326e-06
7.46932e-08
3.53667e-06
1.13381e-07
3.54693e-06
1.17729e-07
3.54236e-06
1.16399e-07
3.52724e-06
1.08898e-07
3.506e-06
9.98028e-08
3.48166e-06
9.11029e-08
3.45508e-06
8.20395e-08
3.42566e-06
7.50058e-08
3.39487e-06
6.79074e-08
3.36527e-06
5.93007e-08
3.33628e-06
5.40654e-08
3.30765e-06
5.13054e-08
3.27981e-06
4.87405e-08
3.25384e-06
4.34288e-08
3.23067e-06
3.75994e-08
3.20964e-06
3.07444e-08
2.37613e-08
3.18798e-06
3.83067e-06
5.62394e-08
3.84922e-06
9.48147e-08
3.86381e-06
1.03046e-07
3.876e-06
1.04154e-07
3.88391e-06
1.01039e-07
3.88837e-06
9.54039e-08
3.89035e-06
8.91276e-08
3.88978e-06
8.25705e-08
3.88765e-06
7.70809e-08
3.88423e-06
7.12842e-08
3.87888e-06
6.46418e-08
3.87292e-06
6.00162e-08
3.86726e-06
5.69528e-08
3.86195e-06
5.4048e-08
3.85597e-06
4.94096e-08
3.84973e-06
4.38536e-08
3.84286e-06
3.76378e-08
3.10985e-08
3.83552e-06
4.21583e-06
4.50136e-08
4.22921e-06
8.16075e-08
4.23975e-06
9.2622e-08
4.24918e-06
9.48262e-08
4.25685e-06
9.34748e-08
4.26293e-06
8.94122e-08
4.26784e-06
8.42554e-08
4.2716e-06
7.87857e-08
4.27483e-06
7.3791e-08
4.27745e-06
6.86069e-08
4.27893e-06
6.31065e-08
4.28014e-06
5.8749e-08
4.28172e-06
5.53189e-08
4.28375e-06
5.19667e-08
4.28551e-06
4.76096e-08
4.28687e-06
4.24637e-08
4.28758e-06
3.6917e-08
3.1297e-08
4.28737e-06
4.64618e-06
3.61691e-08
4.65735e-06
7.03885e-08
4.6667e-06
8.31828e-08
4.67495e-06
8.64989e-08
4.68205e-06
8.63769e-08
4.68802e-06
8.34613e-08
4.69311e-06
7.91568e-08
4.69747e-06
7.44033e-08
4.70145e-06
6.97798e-08
4.70499e-06
6.50499e-08
4.70783e-06
6.02584e-08
4.71047e-06
5.61114e-08
4.71329e-06
5.24939e-08
4.71636e-06
4.8901e-08
4.71926e-06
4.47101e-08
4.72178e-06
3.99564e-08
4.72373e-06
3.49785e-08
3.00657e-08
4.72491e-06
5.12205e-06
2.8719e-08
5.13176e-06
6.07157e-08
5.14066e-06
7.43149e-08
5.14863e-06
7.85837e-08
5.15568e-06
7.93873e-08
5.16176e-06
7.74271e-08
5.16703e-06
7.38944e-08
5.17168e-06
6.97382e-08
5.17594e-06
6.54873e-08
5.1798e-06
6.11612e-08
5.18315e-06
5.68648e-08
5.1863e-06
5.29248e-08
5.18948e-06
4.92653e-08
5.19274e-06
4.56035e-08
5.19582e-06
4.15969e-08
5.19852e-06
3.72363e-08
5.20069e-06
3.27709e-08
2.84668e-08
5.20227e-06
5.64704e-06
2.26903e-08
5.6558e-06
5.19133e-08
5.66441e-06
6.56058e-08
5.67233e-06
7.05966e-08
5.67953e-06
7.21679e-08
5.68587e-06
7.10769e-08
5.69145e-06
6.82965e-08
5.69644e-06
6.47358e-08
5.70099e-06
6.09142e-08
5.70514e-06
5.70027e-08
5.70888e-06
5.31268e-08
5.71237e-06
4.94252e-08
5.71579e-06
4.58423e-08
5.71915e-06
4.22358e-08
5.7223e-06
3.84415e-08
5.72508e-06
3.44533e-08
5.72738e-06
3.04564e-08
2.66217e-08
5.72919e-06
4.40961e-06
1.91796e-08
4.41544e-06
4.60554e-08
4.4215e-06
5.95232e-08
4.42716e-06
6.49417e-08
4.43241e-06
6.69368e-08
4.43717e-06
6.63353e-08
4.44142e-06
6.40378e-08
4.44524e-06
6.08991e-08
4.44873e-06
5.74138e-08
4.45191e-06
5.3802e-08
4.45482e-06
5.0201e-08
4.45753e-06
4.66928e-08
4.46012e-06
4.32347e-08
4.4626e-06
3.974e-08
4.46491e-06
3.61201e-08
4.46696e-06
3.23908e-08
4.46872e-06
2.86919e-08
2.5143e-08
4.47015e-06
5.14304e-06
1.59937e-08
5.14887e-06
4.01949e-08
5.15517e-06
5.3154e-08
5.16125e-06
5.88087e-08
5.16701e-06
6.11497e-08
5.17232e-06
6.10156e-08
5.17713e-06
5.92123e-08
5.18149e-06
5.65171e-08
5.18549e-06
5.34066e-08
5.18916e-06
5.01225e-08
5.19253e-06
4.68101e-08
5.19569e-06
4.35291e-08
5.19866e-06
4.02467e-08
5.20147e-06
3.69213e-08
5.20407e-06
3.35132e-08
5.20639e-06
3.00636e-08
5.2084e-06
2.66616e-08
2.3429e-08
5.2101e-06
5.99863e-06
1.31455e-08
6.00437e-06
3.44139e-08
6.01083e-06
4.66477e-08
6.01726e-06
5.23571e-08
6.0235e-06
5.49041e-08
6.02935e-06
5.51585e-08
6.03473e-06
5.38172e-08
6.03968e-06
5.15605e-08
6.04424e-06
4.88388e-08
6.04845e-06
4.59e-08
6.05236e-06
4.28905e-08
6.05602e-06
3.98616e-08
6.05945e-06
3.68042e-08
6.06266e-06
3.37055e-08
6.06561e-06
3.05634e-08
6.06826e-06
2.74097e-08
6.07059e-06
2.43321e-08
2.13976e-08
6.07258e-06
6.99676e-06
1.06453e-08
7.00231e-06
2.88476e-08
7.00887e-06
4.00481e-08
7.01558e-06
4.56051e-08
7.02223e-06
4.82311e-08
7.0286e-06
4.87808e-08
7.03455e-06
4.78486e-08
7.04009e-06
4.60104e-08
7.04524e-06
4.36735e-08
7.05004e-06
4.10882e-08
7.05453e-06
3.83901e-08
7.05873e-06
3.56402e-08
7.06267e-06
3.28546e-08
7.06635e-06
3.00337e-08
7.06972e-06
2.71894e-08
7.07277e-06
2.43742e-08
7.07546e-06
2.16151e-08
1.9031e-08
7.07782e-06
8.1612e-06
8.45777e-09
8.16647e-06
2.35483e-08
8.17305e-06
3.34288e-08
8.18e-06
3.86255e-08
8.18701e-06
4.11953e-08
8.19385e-06
4.19253e-08
8.20036e-06
4.13329e-08
8.20648e-06
3.98691e-08
8.21224e-06
3.79092e-08
8.21764e-06
3.56718e-08
8.22272e-06
3.32993e-08
8.2275e-06
3.08578e-08
8.23198e-06
2.83665e-08
8.23615e-06
2.58617e-08
8.23999e-06
2.33533e-08
8.24348e-06
2.08822e-08
8.24662e-06
1.84897e-08
1.62285e-08
8.24937e-06
9.51965e-06
6.52935e-09
9.5246e-06
1.85787e-08
9.53113e-06
2.68737e-08
9.53826e-06
3.14704e-08
9.5456e-06
3.38351e-08
9.55289e-06
3.46275e-08
9.55993e-06
3.42744e-08
9.56665e-06
3.31483e-08
9.57301e-06
3.15355e-08
9.57903e-06
2.96521e-08
9.58471e-06
2.76171e-08
9.59006e-06
2.54948e-08
9.59508e-06
2.33438e-08
9.59976e-06
2.11693e-08
9.60409e-06
1.90264e-08
9.60805e-06
1.69145e-08
9.61164e-06
1.48971e-08
1.29907e-08
9.61487e-06
1.11044e-05
4.80103e-09
1.11091e-05
1.3919e-08
1.11155e-05
2.04236e-08
1.11228e-05
2.41792e-08
1.11304e-05
2.61755e-08
1.11381e-05
2.68911e-08
1.11457e-05
2.66842e-08
1.1153e-05
2.58203e-08
1.116e-05
2.45376e-08
1.11667e-05
2.2999e-08
1.1173e-05
2.13136e-08
1.11789e-05
1.95529e-08
1.11845e-05
1.7751e-08
1.11897e-05
1.59573e-08
1.11945e-05
1.41811e-08
1.1199e-05
1.24689e-08
1.1203e-05
1.08157e-08
9.292e-09
1.12067e-05
1.29532e-05
3.20675e-09
1.29576e-05
9.50565e-09
1.2964e-05
1.40708e-08
1.29714e-05
1.67584e-08
1.29793e-05
1.81989e-08
1.29875e-05
1.8703e-08
1.29956e-05
1.85236e-08
1.30036e-05
1.7855e-08
1.30113e-05
1.68594e-08
1.30186e-05
1.56613e-08
1.30256e-05
1.43443e-08
1.30321e-05
1.29645e-08
1.30383e-05
1.1562e-08
1.30441e-05
1.01679e-08
1.30494e-05
8.80445e-09
1.30544e-05
7.49201e-09
1.3059e-05
6.24245e-09
5.08814e-09
1.30631e-05
1.511e-05
1.68231e-09
1.51143e-05
5.21018e-09
1.51206e-05
7.71608e-09
1.51282e-05
9.12089e-09
1.51366e-05
9.82474e-09
1.51453e-05
9.97252e-09
1.51541e-05
9.71261e-09
1.51628e-05
9.16322e-09
1.51712e-05
8.41738e-09
1.51793e-05
7.55171e-09
1.5187e-05
6.61783e-09
1.51943e-05
5.65271e-09
1.52012e-05
4.68301e-09
1.52076e-05
3.72871e-09
1.52136e-05
2.8056e-09
1.52191e-05
1.92534e-09
1.52243e-05
1.09671e-09
3.39851e-10
1.5229e-05
1.7626e-05
1.45641e-10
1.76304e-05
8.24185e-10
1.7637e-05
1.10461e-09
1.7645e-05
1.02994e-09
1.7654e-05
8.2345e-10
1.76635e-05
4.78971e-10
1.76732e-05
4.88412e-11
1.76828e-05
-4.41063e-10
1.76921e-05
-9.6143e-10
1.77012e-05
-1.48849e-09
1.77098e-05
-2.01751e-09
1.77179e-05
-2.52791e-09
1.77256e-05
-3.02663e-09
1.77328e-05
-3.49476e-09
1.77396e-05
-3.94077e-09
1.77458e-05
-4.34917e-09
1.77517e-05
-4.72741e-09
-5.05366e-09
1.7757e-05
1.78277e-05
-1.33399e-09
1.78319e-05
-3.41023e-09
1.78383e-05
-5.31459e-09
1.78462e-05
-6.85468e-09
1.7855e-05
-8.00052e-09
1.78644e-05
-8.84841e-09
1.78739e-05
-9.48078e-09
1.78834e-05
-9.93154e-09
1.78926e-05
-1.0236e-08
1.79015e-05
-1.04415e-08
1.79101e-05
-1.05556e-08
1.79181e-05
-1.06286e-08
1.79258e-05
-1.06434e-08
1.79329e-05
-1.06461e-08
1.79396e-05
-1.06098e-08
1.79458e-05
-1.05718e-08
1.79516e-05
-1.05035e-08
-1.04251e-08
1.79569e-05
1.58827e-05
-2.74222e-09
1.58867e-05
-7.3888e-09
1.58927e-05
-1.12815e-08
1.58999e-05
-1.41293e-08
1.5908e-05
-1.60577e-08
1.59165e-05
-1.73416e-08
1.59251e-05
-1.81228e-08
1.59337e-05
-1.85056e-08
1.5942e-05
-1.85968e-08
1.59501e-05
-1.84695e-08
1.59577e-05
-1.82111e-08
1.59649e-05
-1.78422e-08
1.59717e-05
-1.74348e-08
1.5978e-05
-1.69808e-08
1.59839e-05
-1.65321e-08
1.59894e-05
-1.60683e-08
1.59945e-05
-1.5625e-08
-1.51707e-08
1.59993e-05
1.41501e-05
-4.20737e-09
1.41541e-05
-1.14111e-08
1.416e-05
-1.71944e-08
1.41671e-05
-2.11573e-08
1.41748e-05
-2.37372e-08
1.41828e-05
-2.53446e-08
1.41909e-05
-2.61931e-08
1.41988e-05
-2.64657e-08
1.42065e-05
-2.6305e-08
1.42139e-05
-2.58424e-08
1.42208e-05
-2.51795e-08
1.42274e-05
-2.44002e-08
1.42335e-05
-2.35541e-08
1.42392e-05
-2.26888e-08
1.42445e-05
-2.18253e-08
1.42494e-05
-2.0989e-08
1.42539e-05
-2.0181e-08
-1.94066e-08
1.42582e-05
1.26066e-05
-5.81797e-09
1.2611e-05
-1.57211e-08
1.26171e-05
-2.32805e-08
1.26241e-05
-2.81513e-08
1.26316e-05
-3.12245e-08
1.26393e-05
-3.3045e-08
1.2647e-05
-3.39025e-08
1.26545e-05
-3.39788e-08
1.26618e-05
-3.35033e-08
1.26686e-05
-3.26804e-08
1.2675e-05
-3.16048e-08
1.2681e-05
-3.04047e-08
1.26866e-05
-2.91192e-08
1.26917e-05
-2.78451e-08
1.26965e-05
-2.65813e-08
1.27009e-05
-2.53879e-08
1.27049e-05
-2.424e-08
-2.3165e-08
1.27087e-05
1.12317e-05
-7.69404e-09
1.12365e-05
-2.05397e-08
1.1243e-05
-2.97146e-08
1.12501e-05
-3.52484e-08
1.12575e-05
-3.86136e-08
1.1265e-05
-4.0559e-08
1.12725e-05
-4.12877e-08
1.12797e-05
-4.11157e-08
1.12865e-05
-4.03116e-08
1.12929e-05
-3.90514e-08
1.12988e-05
-3.75485e-08
1.13043e-05
-3.5876e-08
1.13094e-05
-3.41779e-08
1.1314e-05
-3.24651e-08
1.13182e-05
-3.08382e-08
1.13221e-05
-2.92715e-08
1.13257e-05
-2.78276e-08
-2.64533e-08
1.1329e-05
1.00069e-05
-9.94304e-09
1.00125e-05
-2.61289e-08
1.00194e-05
-3.6564e-08
1.00266e-05
-4.24162e-08
1.0034e-05
-4.59777e-08
1.00414e-05
-4.79164e-08
1.00486e-05
-4.84766e-08
1.00554e-05
-4.79296e-08
1.00618e-05
-4.66608e-08
1.00678e-05
-4.49764e-08
1.00732e-05
-4.2989e-08
1.00782e-05
-4.08756e-08
1.00828e-05
-3.87012e-08
1.00869e-05
-3.65926e-08
1.00906e-05
-3.45711e-08
1.0094e-05
-3.26916e-08
1.00971e-05
-3.09275e-08
-2.93127e-08
1.01e-05
8.91587e-06
-1.26777e-08
8.92262e-06
-3.28345e-08
8.92996e-06
-4.38951e-08
8.9373e-06
-4.97739e-08
8.94468e-06
-5.33144e-08
8.95192e-06
-5.51372e-08
8.95883e-06
-5.53209e-08
8.96527e-06
-5.43447e-08
8.97121e-06
-5.26307e-08
8.97667e-06
-5.04181e-08
8.98164e-06
-4.79557e-08
8.98615e-06
-4.53497e-08
8.9902e-06
-4.27604e-08
8.99384e-06
-4.02442e-08
8.99712e-06
-3.78724e-08
9.00009e-06
-3.56681e-08
9.00278e-06
-3.3643e-08
-3.17772e-08
9.00525e-06
7.94416e-06
-1.61789e-08
7.95234e-06
-4.09662e-08
7.96007e-06
-5.16063e-08
7.96754e-06
-5.72005e-08
7.97494e-06
-6.07186e-08
7.98206e-06
-6.22453e-08
7.98865e-06
-6.19618e-08
7.99469e-06
-6.04019e-08
8.00022e-06
-5.81196e-08
8.00523e-06
-5.54407e-08
8.00978e-06
-5.24987e-08
8.01387e-06
-4.94627e-08
8.01753e-06
-4.64317e-08
8.02081e-06
-4.35369e-08
8.02374e-06
-4.08313e-08
8.02639e-06
-3.83405e-08
8.02879e-06
-3.60673e-08
-3.39719e-08
8.03097e-06
7.07906e-06
-2.08858e-08
7.0887e-06
-5.0621e-08
7.09688e-06
-5.97986e-08
7.10468e-06
-6.50201e-08
7.11232e-06
-6.83692e-08
7.11945e-06
-6.93996e-08
7.12592e-06
-6.84172e-08
7.13174e-06
-6.6253e-08
7.13701e-06
-6.34341e-08
7.14179e-06
-6.02448e-08
7.14614e-06
-5.68599e-08
7.15007e-06
-5.33907e-08
7.15358e-06
-4.99538e-08
7.15672e-06
-4.67078e-08
7.15952e-06
-4.36512e-08
7.16204e-06
-4.08852e-08
7.16436e-06
-3.83974e-08
-3.61321e-08
7.16648e-06
6.30964e-06
-2.80187e-08
6.32036e-06
-6.13362e-08
6.32983e-06
-6.93346e-08
6.33902e-06
-7.42045e-08
6.34775e-06
-7.71369e-08
6.3556e-06
-7.72855e-08
6.36257e-06
-7.54492e-08
6.36885e-06
-7.25579e-08
6.37455e-06
-6.91682e-08
6.37976e-06
-6.54903e-08
6.38457e-06
-6.1688e-08
6.38895e-06
-5.77872e-08
6.39285e-06
-5.39351e-08
6.39635e-06
-5.01809e-08
6.3994e-06
-4.67215e-08
6.40208e-06
-4.35736e-08
6.40443e-06
-4.07746e-08
-3.82285e-08
6.40653e-06
5.62831e-06
-4.14325e-08
5.64213e-06
-7.52053e-08
5.65642e-06
-8.37236e-08
5.67004e-06
-8.78644e-08
5.68219e-06
-8.93423e-08
5.69284e-06
-8.80043e-08
5.70242e-06
-8.50666e-08
5.7111e-06
-8.13017e-08
5.7189e-06
-7.70381e-08
5.72578e-06
-7.2423e-08
5.73166e-06
-6.75865e-08
5.7364e-06
-6.2607e-08
5.73999e-06
-5.75471e-08
5.74245e-06
-5.26545e-08
5.74382e-06
-4.80711e-08
5.74415e-06
-4.39057e-08
5.74353e-06
-4.01487e-08
-3.68868e-08
5.74217e-06
5.05355e-06
-9.26775e-08
5.08678e-06
-1.0852e-07
5.10959e-06
-1.06639e-07
5.12359e-06
-1.0193e-07
5.13138e-06
-9.72016e-08
5.13491e-06
-9.15951e-08
5.13469e-06
-8.49138e-08
5.13091e-06
-7.76019e-08
5.12388e-06
-7.00962e-08
5.11411e-06
-6.27067e-08
5.10203e-06
-5.55544e-08
5.08819e-06
-4.88399e-08
5.0731e-06
-4.25019e-08
5.0568e-06
-3.63384e-08
5.03927e-06
-3.05265e-08
5.02081e-06
-2.54472e-08
5.00202e-06
-2.13504e-08
-1.86496e-08
4.98377e-06
4.36387e-06
4.25534e-06
4.14869e-06
4.04676e-06
3.94955e-06
3.85794e-06
3.77302e-06
3.69541e-06
3.6253e-06
3.56259e-06
3.50702e-06
3.45817e-06
3.41567e-06
3.37933e-06
3.34881e-06
3.32336e-06
3.30201e-06
3.28336e-06
-8.55919e-09
8.54759e-09
-2.30729e-08
1.44754e-08
-3.89227e-08
1.58257e-08
-5.26042e-08
1.36392e-08
-5.87883e-08
6.16241e-09
-5.12923e-08
-7.538e-09
-2.7889e-08
-2.3415e-08
8.90597e-09
-3.68364e-08
5.48998e-08
-4.59935e-08
1.0513e-07
-5.02669e-08
1.55088e-07
-4.99474e-08
2.01508e-07
-4.64558e-08
2.42416e-07
-4.08943e-08
2.76452e-07
-3.40722e-08
3.02993e-07
-2.65271e-08
3.21528e-07
-1.85719e-08
3.31884e-07
-1.03437e-08
3.3365e-07
-1.79761e-09
3.26705e-07
6.95345e-09
3.11174e-07
1.5519e-08
2.87721e-07
2.34671e-08
2.57333e-07
3.04061e-08
2.21436e-07
3.59217e-08
1.81933e-07
3.95545e-08
1.41115e-07
4.08539e-08
1.01683e-07
3.9512e-08
6.62191e-08
3.55111e-08
3.69937e-08
2.93295e-08
1.50643e-08
2.19723e-08
5.54526e-10
1.46275e-08
-7.47181e-09
8.05002e-09
-9.26823e-09
1.9403e-09
-4.80722e-09
-4.4655e-09
7.37531e-09
-1.20042e-08
2.83333e-08
-2.09924e-08
5.8182e-08
-2.97207e-08
9.25476e-08
-3.44197e-08
1.25517e-07
-3.29245e-08
1.51402e-07
-2.59408e-08
1.67145e-07
-1.57454e-08
1.73157e-07
-6.06079e-09
1.7253e-07
5.88447e-10
1.68714e-07
3.76307e-09
1.65431e-07
3.18483e-09
1.64276e-07
1.0464e-09
1.57521e-07
6.59353e-09
1.35573e-07
2.1846e-08
9.02179e-08
4.51239e-08
1.79671e-08
7.22018e-08
-7.81084e-08
9.57488e-08
-1.93406e-07
1.153e-07
-3.25072e-07
1.31371e-07
-4.67585e-07
1.42569e-07
-6.16122e-07
1.48338e-07
-7.66825e-07
1.50777e-07
-9.17192e-07
1.50277e-07
-1.06259e-06
1.45518e-07
-1.2002e-06
1.37587e-07
-1.32931e-06
1.29225e-07
-1.44893e-06
1.19641e-07
-1.55807e-06
1.0923e-07
-1.65815e-06
1.00127e-07
-1.75001e-06
9.19229e-08
-1.83403e-06
8.40849e-08
-1.91104e-06
7.70603e-08
-1.98183e-06
7.08581e-08
-2.04718e-06
6.53777e-08
-2.10769e-06
6.05877e-08
-2.16404e-06
5.63711e-08
-2.21664e-06
5.26719e-08
-2.26602e-06
4.9385e-08
-2.31241e-06
4.64629e-08
-2.35623e-06
4.38203e-08
-2.39759e-06
4.14304e-08
-2.43682e-06
3.92223e-08
-2.47395e-06
3.7187e-08
-2.50923e-06
3.52685e-08
-2.54266e-06
3.34687e-08
-2.57444e-06
3.1743e-08
-2.60452e-06
3.00998e-08
-2.63306e-06
2.85032e-08
-2.66002e-06
2.6964e-08
-2.68553e-06
2.54536e-08
-2.70952e-06
2.39824e-08
-2.7321e-06
2.25283e-08
-2.75322e-06
2.10989e-08
-2.77293e-06
1.9678e-08
-2.79123e-06
1.82687e-08
-2.80812e-06
1.6855e-08
-2.82359e-06
1.54425e-08
-2.83761e-06
1.40098e-08
-2.85016e-06
1.25599e-08
-2.86123e-06
1.10788e-08
-2.87078e-06
9.55765e-09
-2.87877e-06
7.98708e-09
-2.88515e-06
6.35458e-09
-2.88983e-06
4.65157e-09
-2.89274e-06
2.86805e-09
-2.89382e-06
1.05228e-09
-2.8932e-06
-6.61169e-10
-2.89107e-06
-2.1566e-09
-2.88758e-06
-3.52161e-09
-2.88275e-06
-4.85521e-09
-2.87659e-06
-6.18369e-09
-2.86909e-06
-7.51051e-09
-2.86027e-06
-8.8421e-09
-2.8501e-06
-1.01727e-08
-2.8386e-06
-1.15062e-08
-2.82577e-06
-1.28364e-08
-2.8116e-06
-1.41658e-08
-2.79611e-06
-1.54891e-08
-2.7793e-06
-1.68078e-08
-2.76118e-06
-1.81176e-08
-2.74176e-06
-1.94191e-08
-2.72104e-06
-2.07091e-08
-2.69905e-06
-2.19874e-08
-2.6758e-06
-2.32521e-08
-2.65129e-06
-2.45024e-08
-2.62555e-06
-2.57372e-08
-2.5986e-06
-2.69553e-08
-2.57045e-06
-2.8156e-08
-2.54111e-06
-2.93381e-08
-2.51062e-06
-3.05008e-08
-2.47899e-06
-3.16437e-08
-2.44624e-06
-3.27656e-08
-2.41239e-06
-3.38669e-08
-2.37746e-06
-3.49457e-08
-2.34148e-06
-3.5998e-08
-2.30447e-06
-3.70219e-08
-2.26647e-06
-3.80194e-08
-2.22748e-06
-3.89866e-08
-2.18757e-06
-3.99218e-08
-2.14676e-06
-4.08077e-08
-2.10513e-06
-4.16409e-08
-2.06274e-06
-4.2408e-08
-2.01965e-06
-4.30934e-08
-1.97576e-06
-4.3879e-08
-1.93102e-06
-4.4733e-08
-1.88553e-06
-4.54729e-08
-1.83935e-06
-4.61768e-08
-1.7925e-06
-4.68421e-08
-1.74502e-06
-4.74763e-08
-1.69693e-06
-4.8072e-08
-1.64827e-06
-4.86373e-08
-1.59906e-06
-4.9166e-08
-1.54934e-06
-4.96736e-08
-1.49914e-06
-5.01459e-08
-1.44849e-06
-5.05967e-08
-1.39742e-06
-5.10133e-08
-1.34598e-06
-5.14032e-08
-1.29419e-06
-5.17546e-08
-1.2421e-06
-5.20753e-08
-1.18973e-06
-5.23528e-08
-1.13713e-06
-5.25984e-08
-1.08433e-06
-5.28025e-08
-1.03136e-06
-5.29799e-08
-9.78246e-07
-5.31295e-08
-9.25015e-07
-5.32548e-08
-8.71676e-07
-5.33696e-08
-8.18243e-07
-5.34679e-08
-7.64726e-07
-5.35581e-08
-7.11133e-07
-5.36364e-08
-6.57478e-07
-5.37037e-08
-6.03769e-07
-5.37574e-08
-5.50021e-07
-5.38007e-08
-4.96237e-07
-5.3836e-08
-4.42422e-07
-5.38699e-08
-3.88571e-07
-5.39048e-08
-3.34682e-07
-5.39454e-08
-2.8075e-07
-5.39886e-08
-2.26787e-07
-5.40226e-08
-1.72814e-07
-5.40332e-08
-1.18886e-07
-5.39897e-08
-6.51181e-08
-5.38293e-08
-1.17868e-08
-5.33931e-08
4.07164e-08
-5.25627e-08
9.1748e-08
-5.10873e-08
1.39365e-07
-4.76672e-08
1.82408e-07
-4.3087e-08
-1.6469e-08
1.98833e-07
-3.52863e-09
1.2055e-08
-9.74709e-09
2.06188e-08
-1.26079e-08
1.86412e-08
-5.01105e-09
5.95209e-09
1.81952e-08
-1.70781e-08
5.61544e-08
-4.55427e-08
1.0452e-07
-7.17888e-08
1.57653e-07
-8.99931e-08
2.1033e-07
-9.86716e-08
2.59093e-07
-9.90499e-08
3.02463e-07
-9.33162e-08
3.39685e-07
-8.36983e-08
3.70696e-07
-7.19023e-08
3.95651e-07
-5.90504e-08
4.14941e-07
-4.58155e-08
4.2891e-07
-3.2566e-08
4.38043e-07
-1.94768e-08
4.42864e-07
-6.64038e-09
4.43832e-07
5.98354e-09
4.4083e-07
1.85101e-08
4.33408e-07
3.08941e-08
4.20942e-07
4.28814e-08
4.02862e-07
5.40152e-08
3.78823e-07
6.36217e-08
3.48849e-07
7.08521e-08
3.13608e-07
7.47973e-08
2.74462e-07
7.469e-08
2.3367e-07
7.01805e-08
1.94186e-07
6.14949e-08
1.59549e-07
4.93486e-08
1.33054e-07
3.45801e-08
1.17342e-07
1.77844e-08
1.13536e-07
-6.30993e-10
1.21609e-07
-1.99388e-08
1.39324e-07
-3.87077e-08
1.61618e-07
-5.19302e-08
1.81009e-07
-5.38337e-08
1.92746e-07
-4.46388e-08
1.94947e-07
-2.81766e-08
1.87554e-07
-8.3628e-09
1.72234e-07
9.20235e-09
1.50187e-07
2.25976e-08
1.1478e-07
3.90882e-08
5.54756e-08
6.2397e-08
-3.66572e-08
9.30575e-08
-1.60436e-07
1.30264e-07
-3.06301e-07
1.67644e-07
-4.63674e-07
2.02431e-07
-6.25385e-07
2.33869e-07
-7.88928e-07
2.59207e-07
-9.50917e-07
2.77248e-07
-1.10761e-06
2.87984e-07
-1.256e-06
2.90933e-07
-1.39393e-06
2.86204e-07
-1.51882e-06
2.75665e-07
-1.62974e-06
2.61177e-07
-1.72784e-06
2.43645e-07
-1.81471e-06
2.24462e-07
-1.89094e-06
2.05494e-07
-1.95859e-06
1.87311e-07
-2.01943e-06
1.70109e-07
-2.07406e-06
1.54789e-07
-2.12347e-06
1.41379e-07
-2.16888e-06
1.29532e-07
-2.21096e-06
1.1918e-07
-2.25023e-06
1.10167e-07
-2.28711e-06
1.02298e-07
-2.3219e-06
9.54134e-08
-2.35484e-06
8.93444e-08
-2.38608e-06
8.3956e-08
-2.4158e-06
7.91213e-08
-2.44404e-06
7.47454e-08
-2.47093e-06
7.07348e-08
-2.4965e-06
6.70276e-08
-2.52082e-06
6.35594e-08
-2.5439e-06
6.02921e-08
-2.56581e-06
5.71798e-08
-2.58652e-06
5.42014e-08
-2.60611e-06
5.13237e-08
-2.62455e-06
4.85356e-08
-2.64187e-06
4.58125e-08
-2.65807e-06
4.31488e-08
-2.67317e-06
4.05258e-08
-2.68715e-06
3.79403e-08
-2.70003e-06
3.53778e-08
-2.71179e-06
3.28361e-08
-2.72244e-06
3.03034e-08
-2.73197e-06
2.77753e-08
-2.74038e-06
2.52468e-08
-2.74767e-06
2.27024e-08
-2.75381e-06
2.01456e-08
-2.75881e-06
1.75666e-08
-2.76268e-06
1.49595e-08
-2.76545e-06
1.23242e-08
-2.76713e-06
9.65899e-09
-2.76776e-06
6.96924e-09
-2.76741e-06
4.26647e-09
-2.76614e-06
1.5771e-09
-2.76406e-06
-1.06192e-09
-2.7611e-06
-3.65062e-09
-2.75705e-06
-6.23376e-09
-2.75176e-06
-8.83488e-09
-2.74519e-06
-1.14442e-08
-2.73732e-06
-1.40617e-08
-2.72816e-06
-1.66865e-08
-2.71769e-06
-1.93185e-08
-2.70592e-06
-2.19542e-08
-2.69284e-06
-2.4592e-08
-2.67845e-06
-2.72276e-08
-2.66276e-06
-2.98589e-08
-2.64576e-06
-3.24813e-08
-2.62747e-06
-3.50926e-08
-2.6079e-06
-3.76884e-08
-2.58705e-06
-4.02662e-08
-2.56493e-06
-4.28224e-08
-2.54156e-06
-4.53545e-08
-2.51695e-06
-4.78601e-08
-2.49112e-06
-5.03366e-08
-2.46407e-06
-5.27824e-08
-2.43583e-06
-5.51947e-08
-2.40642e-06
-5.75723e-08
-2.37585e-06
-5.99123e-08
-2.34414e-06
-6.22138e-08
-2.31132e-06
-6.44743e-08
-2.2774e-06
-6.66933e-08
-2.24241e-06
-6.8868e-08
-2.20637e-06
-7.09973e-08
-2.16931e-06
-7.30759e-08
-2.13124e-06
-7.51016e-08
-2.0922e-06
-7.70712e-08
-2.05221e-06
-7.89831e-08
-2.0113e-06
-8.08334e-08
-1.96949e-06
-8.26148e-08
-1.92682e-06
-8.43261e-08
-1.88327e-06
-8.59656e-08
-1.83883e-06
-8.75384e-08
-1.79358e-06
-8.91182e-08
-1.74763e-06
-9.06781e-08
-1.70095e-06
-9.21429e-08
-1.65359e-06
-9.3537e-08
-1.60557e-06
-9.48615e-08
-1.55692e-06
-9.61202e-08
-1.50767e-06
-9.73091e-08
-1.45786e-06
-9.84337e-08
-1.4075e-06
-9.94912e-08
-1.35665e-06
-1.00495e-07
-1.30532e-06
-1.01436e-07
-1.25356e-06
-1.02324e-07
-1.20139e-06
-1.03151e-07
-1.14886e-06
-1.03919e-07
-1.09597e-06
-1.04617e-07
-1.04279e-06
-1.05248e-07
-9.89335e-07
-1.05801e-07
-9.35651e-07
-1.06283e-07
-8.81767e-07
-1.0669e-07
-8.27719e-07
-1.07038e-07
-7.73528e-07
-1.07333e-07
-7.1922e-07
-1.07581e-07
-6.6481e-07
-1.078e-07
-6.10311e-07
-1.07992e-07
-5.55732e-07
-1.08164e-07
-5.01083e-07
-1.08317e-07
-4.46372e-07
-1.08446e-07
-3.91608e-07
-1.08554e-07
-3.36802e-07
-1.0864e-07
-2.81956e-07
-1.08716e-07
-2.27073e-07
-1.08788e-07
-1.72147e-07
-1.08865e-07
-1.17175e-07
-1.08952e-07
-6.21505e-08
-1.09048e-07
-7.08153e-09
-1.09127e-07
4.80165e-08
-1.09166e-07
1.03094e-07
-1.09102e-07
1.58045e-07
-1.08814e-07
2.12731e-07
-1.08111e-07
2.668e-07
-1.06663e-07
3.19534e-07
-1.03851e-07
3.70383e-07
-9.85439e-08
4.16032e-07
-8.87598e-08
-5.94971e-08
4.59036e-07
5.86208e-10
1.14456e-08
4.44336e-09
1.66923e-08
1.9597e-08
3.4473e-09
5.38158e-08
-2.83112e-08
1.05752e-07
-6.90279e-08
1.65645e-07
-1.05457e-07
2.23359e-07
-1.29508e-07
2.73141e-07
-1.3979e-07
3.13345e-07
-1.38879e-07
3.44684e-07
-1.30404e-07
3.6883e-07
-1.17465e-07
3.87336e-07
-1.0222e-07
4.01436e-07
-8.60041e-08
4.11929e-07
-6.95621e-08
4.19394e-07
-5.32832e-08
4.24166e-07
-3.73597e-08
4.26563e-07
-2.188e-08
4.26795e-07
-6.89367e-09
4.25189e-07
7.58258e-09
4.22091e-07
2.15926e-08
4.17798e-07
3.51834e-08
4.12341e-07
4.83349e-08
4.05455e-07
6.09028e-08
3.96544e-07
7.25433e-08
3.84752e-07
8.26548e-08
3.69203e-07
9.03692e-08
3.49306e-07
9.46067e-08
3.25266e-07
9.42564e-08
2.98305e-07
8.84823e-08
2.70791e-07
7.69139e-08
2.45628e-07
5.97778e-08
2.25599e-07
3.78915e-08
2.1226e-07
1.27474e-08
2.05498e-07
-1.3095e-08
2.00504e-07
-3.36988e-08
1.89737e-07
-4.11198e-08
1.69221e-07
-3.33289e-08
1.39313e-07
-1.47174e-08
1.00412e-07
1.06836e-08
4.98977e-08
4.21322e-08
-1.88431e-08
7.78971e-08
-1.12446e-07
1.16161e-07
-2.31541e-07
1.58149e-07
-3.72123e-07
2.02953e-07
-5.26911e-07
2.4782e-07
-6.86303e-07
2.89632e-07
-8.44266e-07
3.25589e-07
-9.95735e-07
3.53873e-07
-1.13581e-06
3.73926e-07
-1.262e-06
3.85353e-07
-1.37316e-06
3.88375e-07
-1.4689e-06
3.83679e-07
-1.55019e-06
3.72209e-07
-1.6194e-06
3.55376e-07
-1.67877e-06
3.35019e-07
-1.73036e-06
3.1275e-07
-1.7764e-06
2.89695e-07
-1.81884e-06
2.66907e-07
-1.8586e-06
2.45268e-07
-1.89651e-06
2.25229e-07
-1.9333e-06
2.06926e-07
-1.96903e-06
1.90537e-07
-2.00366e-06
1.76036e-07
-2.03731e-06
1.63218e-07
-2.07001e-06
1.51904e-07
-2.10172e-06
1.4191e-07
-2.13245e-06
1.33049e-07
-2.16215e-06
1.25151e-07
-2.19084e-06
1.18058e-07
-2.2185e-06
1.11637e-07
-2.24512e-06
1.05767e-07
-2.2707e-06
1.00352e-07
-2.29525e-06
9.5307e-08
-2.31877e-06
9.0566e-08
-2.34126e-06
8.60698e-08
-2.36273e-06
8.17749e-08
-2.38318e-06
7.76414e-08
-2.40261e-06
7.36411e-08
-2.42104e-06
6.97468e-08
-2.43844e-06
6.59401e-08
-2.45484e-06
6.22019e-08
-2.47023e-06
5.852e-08
-2.4846e-06
5.48802e-08
-2.49795e-06
5.12739e-08
-2.51028e-06
4.76901e-08
-2.52158e-06
4.41219e-08
-2.53186e-06
4.056e-08
-2.5411e-06
3.69988e-08
-2.5493e-06
3.34275e-08
-2.55646e-06
2.98464e-08
-2.56256e-06
2.6241e-08
-2.5676e-06
2.26114e-08
-2.5716e-06
1.8955e-08
-2.57455e-06
1.52698e-08
-2.57646e-06
1.15581e-08
-2.57734e-06
7.82681e-09
-2.57718e-06
4.08377e-09
-2.57597e-06
3.43807e-10
-2.57367e-06
-3.39018e-09
-2.5702e-06
-7.13231e-09
-2.56555e-06
-1.091e-08
-2.55967e-06
-1.47246e-08
-2.55257e-06
-1.85674e-08
-2.54421e-06
-2.24301e-08
-2.53459e-06
-2.63104e-08
-2.52372e-06
-3.0202e-08
-2.51157e-06
-3.41023e-08
-2.49816e-06
-3.80053e-08
-2.48348e-06
-4.19075e-08
-2.46754e-06
-4.58029e-08
-2.45033e-06
-4.96873e-08
-2.43187e-06
-5.35549e-08
-2.41215e-06
-5.74011e-08
-2.39119e-06
-6.12203e-08
-2.36901e-06
-6.50082e-08
-2.3456e-06
-6.87604e-08
-2.32098e-06
-7.24733e-08
-2.29517e-06
-7.61436e-08
-2.26818e-06
-7.9768e-08
-2.24003e-06
-8.33436e-08
-2.21074e-06
-8.68673e-08
-2.18032e-06
-9.03359e-08
-2.14879e-06
-9.37469e-08
-2.11617e-06
-9.70974e-08
-2.08248e-06
-1.00385e-07
-2.04775e-06
-1.03608e-07
-2.012e-06
-1.06763e-07
-1.97523e-06
-1.09845e-07
-1.93749e-06
-1.12852e-07
-1.89879e-06
-1.15777e-07
-1.85916e-06
-1.18618e-07
-1.81863e-06
-1.21372e-07
-1.77722e-06
-1.24033e-07
-1.73495e-06
-1.26604e-07
-1.69184e-06
-1.29085e-07
-1.6479e-06
-1.31483e-07
-1.6032e-06
-1.33823e-07
-1.55778e-06
-1.36092e-07
-1.51167e-06
-1.38258e-07
-1.46489e-06
-1.40326e-07
-1.41746e-06
-1.42297e-07
-1.36941e-06
-1.44169e-07
-1.32078e-06
-1.4594e-07
-1.27159e-06
-1.47614e-07
-1.22187e-06
-1.49191e-07
-1.17167e-06
-1.5068e-07
-1.12101e-06
-1.52079e-07
-1.06992e-06
-1.53392e-07
-1.01844e-06
-1.54617e-07
-9.66591e-07
-1.5575e-07
-9.14413e-07
-1.56786e-07
-8.61936e-07
-1.57716e-07
-8.09195e-07
-1.58537e-07
-7.56227e-07
-1.59247e-07
-7.03062e-07
-1.59853e-07
-6.49735e-07
-1.60364e-07
-5.96268e-07
-1.608e-07
-5.42685e-07
-1.61165e-07
-4.89004e-07
-1.61483e-07
-4.35236e-07
-1.61762e-07
-3.81392e-07
-1.62011e-07
-3.27479e-07
-1.62231e-07
-2.73507e-07
-1.62422e-07
-2.19482e-07
-1.62581e-07
-1.65413e-07
-1.62714e-07
-1.113e-07
-1.62831e-07
-5.71446e-08
-1.62947e-07
-2.93858e-09
-1.63074e-07
5.13229e-08
-1.63218e-07
1.05643e-07
-1.63372e-07
1.60021e-07
-1.6351e-07
2.14435e-07
-1.63585e-07
2.68839e-07
-1.63512e-07
3.23161e-07
-1.63142e-07
3.7727e-07
-1.62228e-07
4.30929e-07
-1.60329e-07
4.83764e-07
-1.56693e-07
5.35356e-07
-1.50143e-07
5.84774e-07
-1.38184e-07
-1.10346e-07
6.35616e-07
-1.30845e-10
1.15525e-08
1.32778e-08
3.23071e-09
5.42503e-08
-3.75491e-08
1.17915e-07
-9.19985e-08
1.86537e-07
-1.37658e-07
2.45525e-07
-1.6446e-07
2.89164e-07
-1.73152e-07
3.18425e-07
-1.69064e-07
3.37071e-07
-1.57529e-07
3.48867e-07
-1.42212e-07
3.56574e-07
-1.25175e-07
3.61797e-07
-1.07459e-07
3.65377e-07
-8.9588e-08
3.67633e-07
-7.18366e-08
3.68704e-07
-5.43622e-08
3.68592e-07
-3.72706e-08
3.67341e-07
-2.06402e-08
3.6496e-07
-4.53832e-09
3.61546e-07
1.09826e-08
3.57223e-07
2.58924e-08
3.52232e-07
4.01615e-08
3.468e-07
5.37503e-08
3.41111e-07
6.65832e-08
3.35162e-07
7.84863e-08
3.28696e-07
8.91187e-08
3.21193e-07
9.78829e-08
3.11905e-07
1.03899e-07
3.00156e-07
1.0603e-07
2.85556e-07
1.031e-07
2.68347e-07
9.41708e-08
2.49471e-07
7.86807e-08
2.30375e-07
5.70666e-08
2.11311e-07
3.18427e-08
1.88199e-07
1.00852e-08
1.53736e-07
7.6422e-10
1.05465e-07
7.18354e-09
4.40531e-08
2.80579e-08
-3.19109e-08
6.12354e-08
-1.25064e-07
1.03809e-07
-2.35626e-07
1.52675e-07
-3.61938e-07
2.04187e-07
-5.01163e-07
2.55372e-07
-6.4738e-07
3.04355e-07
-7.93931e-07
3.49492e-07
-9.34612e-07
3.88494e-07
-1.06395e-06
4.18959e-07
-1.17857e-06
4.40207e-07
-1.27728e-06
4.52569e-07
-1.35977e-06
4.56411e-07
-1.42717e-06
4.52731e-07
-1.48147e-06
4.42655e-07
-1.52521e-06
4.27401e-07
-1.56126e-06
4.08236e-07
-1.59236e-06
3.8646e-07
-1.62069e-06
3.63334e-07
-1.64779e-06
3.39842e-07
-1.67479e-06
3.16688e-07
-1.70233e-06
2.94443e-07
-1.73058e-06
2.73524e-07
-1.75951e-06
2.54163e-07
-1.78901e-06
2.36441e-07
-1.81883e-06
2.2038e-07
-1.8487e-06
2.05923e-07
-1.8784e-06
1.92937e-07
-1.90774e-06
1.81273e-07
-1.93659e-06
1.70779e-07
-1.96481e-06
1.61301e-07
-1.99233e-06
1.52693e-07
-2.01907e-06
1.44823e-07
-2.04499e-06
1.37572e-07
-2.07004e-06
1.30835e-07
-2.09419e-06
1.24527e-07
-2.11743e-06
1.18569e-07
-2.13975e-06
1.129e-07
-2.16113e-06
1.07467e-07
-2.18157e-06
1.02226e-07
-2.20106e-06
9.71425e-08
-2.2196e-06
9.21868e-08
-2.23719e-06
8.73343e-08
-2.25382e-06
8.25654e-08
-2.26949e-06
7.78627e-08
-2.28419e-06
7.32124e-08
-2.29792e-06
6.86016e-08
-2.31069e-06
6.40203e-08
-2.32247e-06
5.94582e-08
-2.33327e-06
5.49067e-08
-2.34308e-06
5.03574e-08
-2.3519e-06
4.58019e-08
-2.35972e-06
4.12358e-08
-2.36653e-06
3.66421e-08
-2.37232e-06
3.2028e-08
-2.37709e-06
2.7379e-08
-2.38083e-06
2.26949e-08
-2.38355e-06
1.79735e-08
-2.38522e-06
1.32157e-08
-2.38584e-06
8.42604e-09
-2.38539e-06
3.60847e-09
-2.38384e-06
-1.23109e-09
-2.38115e-06
-6.09696e-09
-2.3773e-06
-1.0999e-08
-2.37228e-06
-1.59506e-08
-2.36607e-06
-2.09485e-08
-2.35866e-06
-2.59863e-08
-2.35005e-06
-3.1054e-08
-2.34022e-06
-3.61472e-08
-2.32917e-06
-4.12574e-08
-2.31689e-06
-4.63805e-08
-2.30339e-06
-5.15083e-08
-2.28866e-06
-5.66364e-08
-2.27271e-06
-6.17565e-08
-2.25553e-06
-6.68636e-08
-2.23713e-06
-7.19493e-08
-2.21752e-06
-7.7008e-08
-2.19671e-06
-8.20317e-08
-2.1747e-06
-8.70147e-08
-2.15151e-06
-9.19508e-08
-2.12714e-06
-9.68354e-08
-2.10162e-06
-1.01664e-07