/*--------------------------------*- C++ -*----------------------------------*\
  =========                 |
  \\      /  F ield         | OpenFOAM: The Open Source CFD Toolbox
   \\    /   O peration     | Website:  https://openfoam.org
    \\  /    A nd           | Version:  8
     \\/     M anipulation  |
\*---------------------------------------------------------------------------*/
FoamFile
{
    version     2.0;
    format      ascii;
    class       volVectorField;
    location    "1200";
    object      U;
}
// * * * * * * * * * * * * * * * * * * * * * * * * * * * * * * * * * * * * * //

dimensions      [0 1 -1 0 0 0 0];

internalField   nonuniform List<vector> 
12225
(
(9.81245 0.0504618 0)
(9.36768 0.0910299 0)
(8.94474 0.0997993 0)
(8.5518 0.0937552 0)
(8.21842 0.0722984 0)
(7.95139 0.0566129 0)
(7.72029 0.0470261 0)
(7.52742 0.0326625 0)
(7.36259 0.031755 0)
(7.23305 0.0316351 0)
(7.12609 0.0162378 0)
(7.04154 0.0150874 0)
(6.96592 0.0233419 0)
(6.8955 0.0305604 0)
(6.83231 0.0226235 0)
(6.7835 0.0120226 0)
(6.73871 0.0016706 0)
(6.72431 -0.00708124 0)
(10.0518 0.0527812 0)
(10.1967 0.0844755 0)
(10.2692 0.083534 0)
(10.2627 0.0801237 0)
(10.2332 0.0774387 0)
(10.1755 0.0727913 0)
(10.1128 0.0671872 0)
(10.0347 0.063191 0)
(9.96037 0.0572246 0)
(9.8642 0.0511043 0)
(9.77897 0.0484864 0)
(9.69542 0.0443942 0)
(9.61266 0.0401788 0)
(9.5297 0.0363027 0)
(9.4491 0.0339267 0)
(9.37968 0.0330517 0)
(9.3142 0.0293932 0)
(9.25647 0.0219272 0)
(10.0219 0.0416815 0)
(10.0698 0.0691305 0)
(10.1204 0.0739253 0)
(10.1543 0.0770976 0)
(10.1792 0.0783643 0)
(10.1951 0.0775881 0)
(10.2042 0.0759106 0)
(10.2058 0.0730991 0)
(10.2026 0.0701718 0)
(10.1941 0.0667288 0)
(10.1826 0.0625599 0)
(10.1677 0.060168 0)
(10.1524 0.0590976 0)
(10.1378 0.0584814 0)
(10.1229 0.0557533 0)
(10.1068 0.0511959 0)
(10.0897 0.0454458 0)
(10.0705 0.0389307 0)
(10.0103 0.0327425 0)
(10.0406 0.056881 0)
(10.073 0.0661919 0)
(10.0964 0.0707221 0)
(10.1155 0.072219 0)
(10.1319 0.0715464 0)
(10.1452 0.069956 0)
(10.1557 0.0678361 0)
(10.1639 0.0660376 0)
(10.1706 0.0638165 0)
(10.1753 0.0607718 0)
(10.1785 0.0589293 0)
(10.1817 0.0581225 0)
(10.1859 0.0572315 0)
(10.1904 0.0546283 0)
(10.1942 0.0506889 0)
(10.1967 0.045589 0)
(10.1976 0.0397149 0)
(10.0051 0.0255086 0)
(10.0298 0.0498523 0)
(10.0545 0.0602687 0)
(10.0734 0.0647228 0)
(10.089 0.0667266 0)
(10.103 0.0667567 0)
(10.1152 0.0657398 0)
(10.1254 0.0642161 0)
(10.1343 0.0627119 0)
(10.1423 0.0608487 0)
(10.1491 0.058549 0)
(10.155 0.0568369 0)
(10.1608 0.0556194 0)
(10.1671 0.0542085 0)
(10.1736 0.0516748 0)
(10.1795 0.0480506 0)
(10.1843 0.0436382 0)
(10.1881 0.0387882 0)
(10.0032 0.0199273 0)
(10.0226 0.0428123 0)
(10.0429 0.0539259 0)
(10.0596 0.0588865 0)
(10.0736 0.0615564 0)
(10.0863 0.0622439 0)
(10.0976 0.0616986 0)
(10.1073 0.0605327 0)
(10.116 0.0591757 0)
(10.1239 0.0575142 0)
(10.1308 0.0555997 0)
(10.1372 0.0539278 0)
(10.1433 0.0524284 0)
(10.1496 0.0506988 0)
(10.1558 0.0481979 0)
(10.1615 0.0448779 0)
(10.1663 0.0410075 0)
(10.1702 0.0368991 0)
(10.0022 0.0159332 0)
(10.017 0.0365646 0)
(10.034 0.0476955 0)
(10.0491 0.0531285 0)
(10.0621 0.0562688 0)
(10.074 0.0574556 0)
(10.0847 0.0573265 0)
(10.0941 0.0564901 0)
(10.1025 0.0553282 0)
(10.1101 0.0538886 0)
(10.1171 0.0522567 0)
(10.1235 0.0506549 0)
(10.1296 0.0490308 0)
(10.1356 0.0471564 0)
(10.1414 0.0447377 0)
(10.1466 0.0417239 0)
(10.1512 0.0383233 0)
(10.155 0.0347809 0)
(10.0016 0.013148 0)
(10.0131 0.0321064 0)
(10.0279 0.0427766 0)
(10.0417 0.048328 0)
(10.0539 0.0516898 0)
(10.0652 0.0532049 0)
(10.0755 0.0533796 0)
(10.0847 0.0527824 0)
(10.0929 0.0517727 0)
(10.1004 0.0504928 0)
(10.1073 0.0490405 0)
(10.1137 0.0475075 0)
(10.1197 0.0458469 0)
(10.1254 0.043936 0)
(10.1309 0.0416213 0)
(10.1358 0.0388734 0)
(10.1402 0.0358418 0)
(10.1439 0.0326906 0)
(10.0012 0.0109939 0)
(10.0105 0.0281436 0)
(10.0233 0.0384424 0)
(10.0359 0.0440606 0)
(10.0473 0.0475379 0)
(10.058 0.0492583 0)
(10.0679 0.0496778 0)
(10.0769 0.0493132 0)
(10.085 0.0484933 0)
(10.0924 0.0473759 0)
(10.0993 0.0460651 0)
(10.1056 0.0446212 0)
(10.1116 0.0430007 0)
(10.1172 0.0411255 0)
(10.1224 0.0389048 0)
(10.1273 0.0363471 0)
(10.1315 0.0335594 0)
(10.1352 0.0306833 0)
(10.0009 0.00910394 0)
(10.0083 0.024306 0)
(10.0192 0.0340024 0)
(10.0305 0.03954 0)
(10.0411 0.0430383 0)
(10.0511 0.0449053 0)
(10.0605 0.0455349 0)
(10.0692 0.0453761 0)
(10.0771 0.0447334 0)
(10.0844 0.0437712 0)
(10.0911 0.0425965 0)
(10.0975 0.0412502 0)
(10.1034 0.0397006 0)
(10.1089 0.0379019 0)
(10.114 0.0358136 0)
(10.1187 0.033459 0)
(10.1229 0.030925 0)
(10.1266 0.0283238 0)
(10.0007 0.00744455 0)
(10.0064 0.020596 0)
(10.0156 0.0295024 0)
(10.0256 0.0348119 0)
(10.0353 0.0382184 0)
(10.0445 0.0401465 0)
(10.0534 0.04093 0)
(10.0616 0.0409405 0)
(10.0693 0.0404534 0)
(10.0764 0.0396345 0)
(10.083 0.0385829 0)
(10.0892 0.0373362 0)
(10.095 0.0358834 0)
(10.1005 0.0342005 0)
(10.1055 0.0322781 0)
(10.1101 0.030148 0)
(10.1142 0.0278672 0)
(10.1179 0.0255466 0)
(10.0005 0.00598663 0)
(10.005 0.0170446 0)
(10.0125 0.0249655 0)
(10.0213 0.0298912 0)
(10.03 0.0331017 0)
(10.0385 0.035001 0)
(10.0467 0.0358712 0)
(10.0545 0.0360046 0)
(10.0618 0.035645 0)
(10.0686 0.0349469 0)
(10.075 0.0340059 0)
(10.0811 0.0328628 0)
(10.0867 0.0315182 0)
(10.092 0.0299768 0)
(10.0969 0.0282368 0)
(10.1014 0.0263391 0)
(10.1055 0.0243174 0)
(10.1092 0.022276 0)
(10.0004 0.00470463 0)
(10.0038 0.0136906 0)
(10.01 0.0204504 0)
(10.0176 0.0248293 0)
(10.0254 0.0277316 0)
(10.0331 0.0295015 0)
(10.0406 0.0303756 0)
(10.0479 0.0305789 0)
(10.0548 0.0303106 0)
(10.0613 0.0297113 0)
(10.0674 0.0288684 0)
(10.0732 0.027822 0)
(10.0787 0.0265959 0)
(10.0838 0.0251982 0)
(10.0885 0.0236533 0)
(10.0929 0.0219769 0)
(10.0968 0.020225 0)
(10.1005 0.0184435 0)
(10.0003 0.00356329 0)
(10.003 0.0105499 0)
(10.0081 0.0160052 0)
(10.0145 0.0196658 0)
(10.0214 0.0221344 0)
(10.0284 0.0236645 0)
(10.0353 0.0244502 0)
(10.042 0.0246582 0)
(10.0485 0.0244411 0)
(10.0547 0.0239165 0)
(10.0605 0.0231585 0)
(10.066 0.0222117 0)
(10.0712 0.0211073 0)
(10.076 0.0198631 0)
(10.0806 0.0185066 0)
(10.0847 0.0170582 0)
(10.0886 0.0155514 0)
(10.0921 0.0140419 0)
(10.0002 0.00252272 0)
(10.0024 0.0075925 0)
(10.0066 0.0116411 0)
(10.0121 0.0144215 0)
(10.0182 0.0163188 0)
(10.0244 0.0174927 0)
(10.0308 0.0180881 0)
(10.037 0.0182223 0)
(10.0431 0.0180064 0)
(10.0489 0.017527 0)
(10.0544 0.016845 0)
(10.0596 0.0160036 0)
(10.0646 0.0150273 0)
(10.0692 0.0139497 0)
(10.0735 0.012783 0)
(10.0775 0.0115624 0)
(10.0811 0.0102923 0)
(10.0846 0.00903888 0)
(10.0002 0.00154218 0)
(10.002 0.00475622 0)
(10.0055 0.00732219 0)
(10.0103 0.00907235 0)
(10.0157 0.010256 0)
(10.0214 0.0109512 0)
(10.0272 0.0112486 0)
(10.033 0.0112254 0)
(10.0387 0.0109505 0)
(10.0442 0.0104825 0)
(10.0495 0.00986381 0)
(10.0544 0.00912571 0)
(10.0591 0.00829284 0)
(10.0635 0.00738632 0)
(10.0676 0.00642401 0)
(10.0714 0.00542348 0)
(10.075 0.00439805 0)
(10.0783 0.00338341 0)
(10.0002 0.000577498 0)
(10.0017 0.00194097 0)
(10.0048 0.00294144 0)
(10.0091 0.00352331 0)
(10.0141 0.00385351 0)
(10.0194 0.00394377 0)
(10.0248 0.00383821 0)
(10.0303 0.00357243 0)
(10.0357 0.00317801 0)
(10.041 0.00268581 0)
(10.046 0.00211165 0)
(10.0507 0.00147738 0)
(10.0553 0.000789143 0)
(10.0595 6.51859e-05 0)
(10.0634 -0.000690736 0)
(10.0671 -0.00146272 0)
(10.0706 -0.00224785 0)
(10.0738 -0.0030177 0)
(10.0002 -0.00037303 0)
(10.0016 -0.000842634 0)
(10.0046 -0.00143265 0)
(10.0087 -0.00207153 0)
(10.0135 -0.00266497 0)
(10.0187 -0.00324184 0)
(10.024 -0.00380761 0)
(10.0294 -0.00436371 0)
(10.0346 -0.0049082 0)
(10.0398 -0.00544879 0)
(10.0447 -0.00598282 0)
(10.0493 -0.00652238 0)
(10.0537 -0.00705976 0)
(10.0579 -0.00760718 0)
(10.0618 -0.00815281 0)
(10.0654 -0.00870697 0)
(10.0687 -0.00925555 0)
(10.0719 -0.00979491 0)
(10.0002 -0.0012848 0)
(10.0017 -0.00350191 0)
(10.0049 -0.00560495 0)
(10.0091 -0.00740037 0)
(10.0141 -0.00886124 0)
(10.0194 -0.0100676 0)
(10.0248 -0.0110684 0)
(10.0302 -0.0118916 0)
(10.0356 -0.0125716 0)
(10.0408 -0.0131416 0)
(10.0457 -0.0136302 0)
(10.0504 -0.0140601 0)
(10.0548 -0.0144507 0)
(10.0589 -0.0148162 0)
(10.0628 -0.015167 0)
(10.0663 -0.0155097 0)
(10.0697 -0.0158475 0)
(10.0728 -0.0161716 0)
(10.0002 -0.00219197 0)
(10.002 -0.00609889 0)
(10.0055 -0.00962344 0)
(10.0102 -0.0124543 0)
(10.0156 -0.0146682 0)
(10.0212 -0.0164173 0)
(10.0269 -0.0177754 0)
(10.0326 -0.0188077 0)
(10.0382 -0.0195784 0)
(10.0435 -0.0201404 0)
(10.0486 -0.0205558 0)
(10.0533 -0.0208559 0)
(10.0578 -0.0210894 0)
(10.062 -0.0212686 0)
(10.0659 -0.0214281 0)
(10.0695 -0.0215691 0)
(10.0728 -0.0217124 0)
(10.0759 -0.0218431 0)
(10.0003 -0.00316007 0)
(10.0025 -0.00879955 0)
(10.0066 -0.0136883 0)
(10.0121 -0.0174261 0)
(10.018 -0.0202818 0)
(10.024 -0.0224745 0)
(10.0302 -0.0241181 0)
(10.0363 -0.0252919 0)
(10.0421 -0.026088 0)
(10.0477 -0.0266087 0)
(10.053 -0.0269085 0)
(10.058 -0.0270666 0)
(10.0625 -0.0271088 0)
(10.0668 -0.0271016 0)
(10.0707 -0.0270504 0)
(10.0743 -0.0270032 0)
(10.0777 -0.0269472 0)
(10.0808 -0.0269054 0)
(10.0003 -0.00425349 0)
(10.0032 -0.0117573 0)
(10.0083 -0.0179465 0)
(10.0147 -0.0224485 0)
(10.0213 -0.0258107 0)
(10.028 -0.0283607 0)
(10.0346 -0.0302015 0)
(10.0412 -0.0314458 0)
(10.0475 -0.0322234 0)
(10.0534 -0.0326399 0)
(10.0589 -0.0327964 0)
(10.064 -0.032759 0)
(10.0687 -0.0326014 0)
(10.073 -0.0323677 0)
(10.0769 -0.0321086 0)
(10.0805 -0.0318437 0)
(10.0838 -0.0316019 0)
(10.0869 -0.031372 0)
(10.0004 -0.00554858 0)
(10.0042 -0.0151415 0)
(10.0108 -0.0224954 0)
(10.0182 -0.02757 0)
(10.0257 -0.0313316 0)
(10.033 -0.0341526 0)
(10.0404 -0.0361144 0)
(10.0474 -0.0373413 0)
(10.054 -0.0380123 0)
(10.0602 -0.0382737 0)
(10.0659 -0.0382293 0)
(10.0711 -0.0379646 0)
(10.0759 -0.0375633 0)
(10.0802 -0.0370852 0)
(10.0841 -0.0365944 0)
(10.0877 -0.0361126 0)
(10.0909 -0.0356691 0)
(10.0939 -0.035264 0)
(10.0006 -0.0071345 0)
(10.0057 -0.0192029 0)
(10.0143 -0.0273928 0)
(10.023 -0.032787 0)
(10.0313 -0.0368289 0)
(10.0395 -0.0398459 0)
(10.0474 -0.0418299 0)
(10.055 -0.0429497 0)
(10.0619 -0.0434407 0)
(10.0683 -0.043476 0)
(10.0742 -0.0431761 0)
(10.0795 -0.0426463 0)
(10.0843 -0.0419737 0)
(10.0886 -0.0412471 0)
(10.0925 -0.0405148 0)
(10.096 -0.0398266 0)
(10.0991 -0.0391856 0)
(10.1021 -0.0386177 0)
(10.001 -0.00913967 0)
(10.008 -0.0241564 0)
(10.0192 -0.0326694 0)
(10.0293 -0.0381363 0)
(10.0386 -0.0423258 0)
(10.0476 -0.0454051 0)
(10.0563 -0.047281 0)
(10.0643 -0.0481939 0)
(10.0716 -0.0484508 0)
(10.0782 -0.0482332 0)
(10.0842 -0.0476671 0)
(10.0897 -0.0468538 0)
(10.0946 -0.0459074 0)
(10.0989 -0.0449126 0)
(10.1028 -0.043943 0)
(10.1063 -0.0430388 0)
(10.1095 -0.0422265 0)
(10.1124 -0.0414825 0)
(10.0017 -0.0117123 0)
(10.0115 -0.029536 0)
(10.026 -0.0380451 0)
(10.0377 -0.0436451 0)
(10.0485 -0.0479151 0)
(10.0588 -0.0507971 0)
(10.0685 -0.0523615 0)
(10.0772 -0.0529709 0)
(10.085 -0.0529549 0)
(10.0921 -0.052513 0)
(10.0985 -0.0517379 0)
(10.1044 -0.0507212 0)
(10.1096 -0.0495471 0)
(10.1143 -0.0483574 0)
(10.1185 -0.0471864 0)
(10.1223 -0.0461158 0)
(10.1256 -0.0451725 0)
(10.1288 -0.0443294 0)
(10.0024 -0.0155789 0)
(10.0176 -0.0348719 0)
(10.036 -0.0427855 0)
(10.0512 -0.0488496 0)
(10.0652 -0.0535024 0)
(10.0781 -0.0562564 0)
(10.0899 -0.0574926 0)
(10.1005 -0.057736 0)
(10.1099 -0.0573604 0)
(10.1185 -0.0565356 0)
(10.1265 -0.0553965 0)
(10.1338 -0.0539959 0)
(10.1404 -0.0524532 0)
(10.1462 -0.0508919 0)
(10.1514 -0.0494345 0)
(10.1559 -0.048162 0)
(10.1599 -0.0470697 0)
(10.1634 -0.0460661 0)
(10.0038 -0.0241527 0)
(10.034 -0.0431745 0)
(10.0622 -0.0481585 0)
(10.0873 -0.0532983 0)
(10.1095 -0.0582897 0)
(10.1294 -0.0615183 0)
(10.1476 -0.0631834 0)
(10.1639 -0.063927 0)
(10.1786 -0.0640504 0)
(10.1917 -0.0636387 0)
(10.2031 -0.0627412 0)
(10.2126 -0.06143 0)
(10.22 -0.0598182 0)
(10.2254 -0.0579521 0)
(10.2288 -0.0559992 0)
(10.2303 -0.0541177 0)
(10.2301 -0.0524516 0)
(10.2281 -0.0510349 0)
(10.047 -0.0334315 0)
(10.1373 -0.0630637 0)
(10.1993 -0.0694251 0)
(10.2335 -0.070973 0)
(10.2519 -0.0720169 0)
(10.263 -0.0721556 0)
(10.2667 -0.07132 0)
(10.2628 -0.0698237 0)
(10.2517 -0.0678856 0)
(10.2348 -0.0655728 0)
(10.2127 -0.0629456 0)
(10.1865 -0.0599685 0)
(10.1575 -0.056594 0)
(10.1262 -0.0530633 0)
(10.0923 -0.0495879 0)
(10.0562 -0.0463502 0)
(10.0186 -0.0434151 0)
(9.9812 -0.0411094 0)
(9.88558 -0.0326001 0)
(9.66889 -0.0653992 0)
(9.43398 -0.0766886 0)
(9.1967 -0.0791323 0)
(8.9703 -0.0784911 0)
(8.75762 -0.0759012 0)
(8.55958 -0.071781 0)
(8.37682 -0.0664432 0)
(8.21091 -0.0603831 0)
(8.06176 -0.054081 0)
(7.92902 -0.0478089 0)
(7.81207 -0.041841 0)
(7.70959 -0.0361515 0)
(7.62092 -0.0304607 0)
(7.54609 -0.0248671 0)
(7.48372 -0.0197179 0)
(7.43168 -0.0153526 0)
(7.38853 -0.0123425 0)
(-0.00280284 0.00792531 0)
(-0.013294 0.0131025 0)
(-0.0274258 0.0141983 0)
(-0.0424582 0.0119953 0)
(-0.0534117 0.00586998 0)
(-0.052481 -0.00410792 0)
(-0.0361666 -0.0175227 -7.91906e-19)
(-0.00804706 -0.0315084 9.10236e-19)
(0.0284926 -0.0419387 0)
(0.0704385 -0.0469933 5.22092e-19)
(0.114876 -0.0473872 0)
(0.158218 -0.0443615 0)
(0.19764 -0.0390143 0)
(0.231431 -0.0321841 -2.53776e-19)
(0.258715 -0.0244562 0)
(0.279071 -0.0162041 0)
(0.29216 -0.00763153 2.19088e-19)
(0.298214 0.00132967 0)
(0.296086 0.0105855 0)
(0.285986 0.019644 0)
(0.26857 0.0277291 -2.34614e-19)
(0.244505 0.0340349 0)
(0.214734 0.0378271 -2.77256e-19)
(0.180694 0.0384946 0)
(0.144259 0.0356296 0)
(0.107721 0.0292689 -4.48262e-19)
(0.0735705 0.0201415 0)
(0.0441827 0.00992657 7.36928e-19)
(0.0212593 0.00107312 0)
(0.00534809 -0.00450077 -1.30454e-18)
(-0.00449745 -0.00722902 0)
(-0.00941543 -0.00914566 0)
(-0.00784168 -0.0114294 0)
(2.92599e-05 -0.0150545 0)
(0.0153126 -0.0203919 0)
(0.0383687 -0.0263156 7.65833e-19)
(0.0675013 -0.0305047 0)
(0.09833 -0.0305705 -9.30479e-19)
(0.12567 -0.0260788 0)
(0.145175 -0.018447 7.53269e-19)
(0.155311 -0.0103793 0)
(0.157463 -0.00408931 0)
(0.15462 -0.000866683 -7.47385e-19)
(0.150799 -0.00191273 0)
(0.149047 -0.00804403 -7.73382e-19)
(0.146515 -0.0180533 7.77489e-19)
(0.135772 -0.0251666 0)
(0.108946 -0.0187018 8.64519e-19)
(0.0612119 0.00133262 1.0367e-18)
(-0.0204116 0.0207616 0)
(-0.122063 0.0439135 0)
(-0.233768 0.069529 0)
(-0.358208 0.0895667 0)
(-0.492632 0.101971 0)
(-0.630606 0.112244 -1.7617e-19)
(-0.767412 0.119667 0)
(-0.903092 0.118325 1.38965e-19)
(-1.03374 0.110989 0)
(-1.15624 0.104715 0)
(-1.27028 0.095815 -1.10878e-19)
(-1.37569 0.0846987 0)
(-1.47205 0.0768447 1.00242e-19)
(-1.56053 0.0705683 0)
(-1.64202 0.0639997 0)
(-1.71677 0.0581618 0)
(-1.78559 0.053082 -8.70764e-20)
(-1.84921 0.0485835 0)
(-1.90824 0.0446968 0)
(-1.96327 0.0412874 -8.11379e-20)
(-2.01478 0.0383248 0)
(-2.06319 0.0357098 -7.80664e-20)
(-2.10884 0.033406 0)
(-2.15204 0.0313404 0)
(-2.19301 0.0294896 0)
(-2.23195 0.0277968 7.30797e-20)
(-2.26903 0.0262516 0)
(-2.30436 0.0248116 0)
(-2.33805 0.0234746 6.99395e-20)
(-2.3702 0.0222085 6.89659e-20)
(-2.40086 0.0210158 0)
(-2.4301 0.0198718 6.71011e-20)
(-2.45796 0.0187811 0)
(-2.48448 0.017724 1.30643e-19)
(-2.50968 0.0167049 0)
(-2.53358 0.0157082 1.27209e-19)
(-2.5562 0.0147371 0)
(-2.57754 0.0137793 -1.2386e-19)
(-2.59763 0.0128346 0)
(-2.61645 0.0118921 0)
(-2.63401 0.010951 0)
(-2.65027 0.00999668 1.17292e-19)
(-2.66522 0.00902802 0)
(-2.67883 0.00803302 -1.14024e-19)
(-2.69109 0.00700441 0)
(-2.70194 0.00593527 1.10748e-19)
(-2.71134 0.00482257 1.09103e-19)
(-2.71923 0.00367738 1.07454e-19)
(-2.72553 0.00253378 0)
(-2.73017 0.00146694 0)
(-2.73308 0.000549354 0)
(-2.73447 -0.000216276 0)
(-2.73463 -0.000913087 0)
(-2.73352 -0.00159135 0)
(-2.73117 -0.00226127 0)
(-2.72756 -0.0029245 0)
(-2.72271 -0.00358393 -9.14196e-20)
(-2.7166 -0.00423686 -8.94314e-20)
(-2.70922 -0.00488513 0)
(-2.70058 -0.00552591 0)
(-2.69067 -0.00616044 0)
(-2.67949 -0.00678636 -8.09662e-20)
(-2.66705 -0.00740439 0)
(-2.65333 -0.00801274 0)
(-2.63836 -0.00861167 0)
(-2.62214 -0.00920006 0)
(-2.60466 -0.00977779 6.90811e-20)
(-2.58594 -0.0103444 0)
(-2.566 -0.0108994 0)
(-2.54483 -0.0114429 -6.1159e-20)
(-2.52245 -0.0119744 5.83743e-20)
(-2.49888 -0.012494 0)
(-2.47412 -0.0130013 5.25764e-20)
(-2.44818 -0.0134969 0)
(-2.42109 -0.0139806 -4.64585e-20)
(-2.39286 -0.0144534 0)
(-2.3635 -0.0149162 0)
(-2.33303 -0.0153696 0)
(-2.30147 -0.0158053 0)
(-2.26883 -0.0162252 0)
(-2.23514 -0.0166307 5.19495e-20)
(-2.20041 -0.0170201 4.44333e-20)
(-2.16467 -0.0173814 0)
(-2.12796 -0.0176733 0)
(-2.09033 -0.0178435 0)
(-2.05186 -0.0178017 -1.21104e-20)
(-2.01259 -0.0175298 0)
(-1.97249 -0.0175449 0)
(-1.93144 -0.0178946 0)
(-1.88953 -0.0181696 2.43658e-20)
(-1.84681 -0.0184399 -3.42688e-20)
(-1.8033 -0.018697 0)
(-1.75905 -0.0189463 0)
(-1.71406 -0.0191853 -6.61637e-20)
(-1.66837 -0.0194188 -7.75986e-20)
(-1.622 -0.0196442 0)
(-1.57497 -0.0198698 0)
(-1.52734 -0.0200853 1.14672e-19)
(-1.4791 -0.0203014 -1.28037e-19)
(-1.4303 -0.0205068 0)
(-1.38095 -0.0207104 0)
(-1.33112 -0.0209012 -1.71731e-19)
(-1.28078 -0.0210895 0)
(-1.23003 -0.0212636 0)
(-1.17885 -0.0214359 -2.2164e-19)
(-1.12733 -0.0215955 0)
(-1.07543 -0.0217568 -2.59122e-19)
(-1.02324 -0.021912 0)
(-0.970733 -0.0220686 0)
(-0.917953 -0.0222313 0)
(-0.864898 -0.0223966 3.46825e-19)
(-0.811577 -0.0225693 0)
(-0.757996 -0.0227482 0)
(-0.704163 -0.0229343 0)
(-0.650086 -0.0231282 0)
(-0.595774 -0.0233326 0)
(-0.541233 -0.0235504 0)
(-0.486463 -0.0237861 5.61897e-19)
(-0.431461 -0.0240428 6.02265e-19)
(-0.376217 -0.0243245 0)
(-0.320723 -0.0246319 0)
(-0.264977 -0.0249669 0)
(-0.208989 -0.025349 -8.02956e-19)
(-0.152791 -0.0257656 0)
(-0.0964736 -0.0261656 1.87328e-18)
(-0.0402573 -0.0264495 -2.03089e-18)
(0.0154635 -0.0260762 -2.09793e-18)
(0.0707461 -0.0247793 2.03599e-18)
(0.12182 -0.0226134 -1.96252e-18)
(0.177739 -0.0199416 1.90981e-18)
(0.192028 -0.0078686 0)
(-0.000100912 0.0211574 0)
(-0.00590422 0.0365783 0)
(-0.0124592 0.0378355 2.13423e-18)
(-0.0129066 0.0281207 0)
(0.00144209 0.00577624 -2.23695e-18)
(0.031556 -0.0320006 -1.41675e-18)
(0.071303 -0.0745284 -4.44036e-19)
(0.116744 -0.109476 -3.16026e-19)
(0.163811 -0.13095 0)
(0.208981 -0.138573 -2.0631e-19)
(0.24999 -0.135097 0)
(0.285873 -0.124028 0)
(0.316304 -0.108343 3.0757e-19)
(0.341305 -0.090183 1.46525e-19)
(0.361105 -0.0709311 -2.8571e-19)
(0.376025 -0.0513841 -2.82422e-19)
(0.38646 -0.0319315 -1.4125e-19)
(0.392601 -0.0127162 0)
(0.39545 0.00628547 0)
(0.394946 0.024906 0)
(0.390697 0.0427791 -1.49556e-19)
(0.382205 0.0593531 0)
(0.3689 0.0738675 4.78796e-19)
(0.350307 0.0853283 0)
(0.326228 0.0926013 0)
(0.296924 0.0946115 1.93765e-19)
(0.263325 0.0906447 0)
(0.22711 0.0807891 -2.44533e-19)
(0.190639 0.0660945 -5.70282e-19)
(0.156831 0.0483465 3.39008e-19)
(0.12874 0.0291542 0)
(0.109552 0.00932081 0)
(0.10051 -0.0112626 0)
(0.103167 -0.0317897 -9.51021e-19)
(0.116011 -0.0522164 -8.04444e-19)
(0.135537 -0.069614 -3.35012e-19)
(0.155441 -0.076676 0)
(0.169715 -0.0705008 4.94915e-19)
(0.175909 -0.0542228 0)
(0.17363 -0.0333665 -4.89323e-19)
(0.1638 -0.0155004 0)
(0.147275 -0.00412486 0)
(0.123097 0.00278561 6.23881e-19)
(0.0843339 0.00988005 0)
(0.0199939 0.0254067 2.35043e-18)
(-0.0831067 0.0613213 -5.66216e-19)
(-0.210762 0.107643 0)
(-0.347886 0.154625 -2.46832e-19)
(-0.491721 0.198067 -1.85685e-19)
(-0.640825 0.233564 0)
(-0.789751 0.260239 0)
(-0.93542 0.27813 0)
(-1.07554 0.286853 0)
(-1.20761 0.286418 0)
(-1.32803 0.278906 8.0868e-20)
(-1.43588 0.266393 1.52756e-19)
(-1.53216 0.250101 -7.22657e-20)
(-1.61724 0.231462 0)
(-1.69194 0.212403 1.33916e-19)
(-1.75861 0.193767 -6.53747e-20)
(-1.81828 0.175789 0)
(-1.87188 0.159399 -6.16478e-20)
(-1.92059 0.144773 0)
(-1.96522 0.131732 0)
(-2.00658 0.120279 -1.1641e-19)
(-2.04527 0.110289 5.71274e-20)
(-2.08166 0.101578 -1.12499e-19)
(-2.1161 0.0939859 1.10731e-19)
(-2.1488 0.0873322 5.45247e-20)
(-2.17994 0.0814754 0)
(-2.20968 0.0762698 5.29851e-20)
(-2.2381 0.0716135 0)
(-2.26528 0.0673965 0)
(-2.29129 0.0635546 0)
(-2.31616 0.0600073 5.01062e-20)
(-2.33995 0.0567182 0)
(-2.36268 0.0536283 9.76763e-20)
(-2.38437 0.05072 -1.44649e-19)
(-2.40504 0.0479497 -4.76192e-20)
(-2.4247 0.0453105 0)
(-2.44337 0.0427697 -4.63886e-20)
(-2.46104 0.0403262 0)
(-2.47773 0.037955 -9.03604e-20)
(-2.49343 0.0356571 0)
(-2.50814 0.0334132 -8.79711e-20)
(-2.52186 0.0312244 1.73436e-19)
(-2.53459 0.0290759 8.55939e-20)
(-2.54631 0.026966 0)
(-2.55703 0.0248841 0)
(-2.56674 0.0228241 0)
(-2.57542 0.0207788 -8.0813e-20)
(-2.58306 0.0187435 0)
(-2.58968 0.0167092 7.83847e-20)
(-2.59527 0.0146711 0)
(-2.59986 0.012622 -2.27783e-19)
(-2.60348 0.0105551 -7.46785e-20)
(-2.60616 0.00846772 -7.34242e-20)
(-2.60795 0.00637021 0)
(-2.60895 0.00431345 0)
(-2.60925 0.00236871 0)
(-2.60867 0.000561251 0)
(-2.60693 -0.00116792 0)
(-2.60402 -0.00286136 -1.30958e-19)
(-2.59989 -0.00453114 -1.28122e-19)
(-2.59456 -0.00617987 0)
(-2.58799 -0.00781031 6.10465e-20)
(-2.58019 -0.00941917 5.95395e-20)
(-2.57114 -0.0110074 0)
(-2.56086 -0.0125711 1.13145e-19)
(-2.54932 -0.0141107 0)
(-2.53654 -0.0156226 -5.35265e-20)
(-2.52251 -0.0171067 0)
(-2.50723 -0.0185601 0)
(-2.49071 -0.0199823 9.66712e-20)
(-2.47296 -0.0213714 0)
(-2.45397 -0.0227268 -4.46078e-20)
(-2.43376 -0.0240472 0)
(-2.41234 -0.025332 0)
(-2.38972 -0.0265807 -3.94919e-20)
(-2.3659 -0.0277923 -3.71011e-20)
(-2.34091 -0.0289669 0)
(-2.31474 -0.0301034 3.36457e-20)
(-2.28743 -0.0312021 0)
(-2.25897 -0.0322622 -2.95624e-20)
(-2.22939 -0.0332839 -5.4365e-20)
(-2.1987 -0.0342664 0)
(-2.16693 -0.0352092 0)
(-2.13408 -0.0361113 0)
(-2.10017 -0.0369718 0)
(-2.06523 -0.0377913 -3.14988e-20)
(-2.02927 -0.038569 -8.16965e-20)
(-1.99233 -0.0393066 0)
(-1.95442 -0.0400075 0)
(-1.91557 -0.0406853 0)
(-1.87576 -0.0413554 7.1461e-21)
(-1.83499 -0.0420153 0)
(-1.79328 -0.0426456 0)
(-1.75073 -0.0432069 1.56003e-20)
(-1.70737 -0.0436989 1.24658e-20)
(-1.66321 -0.0441471 1.94403e-20)
(-1.61827 -0.0445545 0)
(-1.57258 -0.0449254 0)
(-1.52616 -0.045257 3.65817e-20)
(-1.47903 -0.0455544 -4.0932e-20)
(-1.43123 -0.0458148 0)
(-1.38278 -0.0460512 0)
(-1.33371 -0.0462546 -6.09956e-20)
(-1.28405 -0.046434 2.00493e-19)
(-1.23383 -0.0465826 0)
(-1.18306 -0.0467048 0)
(-1.1318 -0.0467937 8.73624e-20)
(-1.08005 -0.0468537 0)
(-1.02787 -0.0468778 2.00933e-19)
(-0.975266 -0.0468733 -1.06753e-19)
(-0.922295 -0.0468363 0)
(-0.86896 -0.0467769 1.23386e-19)
(-0.815317 -0.0466986 2.60295e-19)
(-0.76136 -0.046603 0)
(-0.707122 -0.0465013 0)
(-0.652606 -0.0463928 -1.54977e-19)
(-0.597823 -0.0462818 0)
(-0.542776 -0.046169 3.41627e-19)
(-0.487472 -0.0460531 0)
(-0.431917 -0.0459351 0)
(-0.376118 -0.0458163 0)
(-0.320077 -0.0457012 0)
(-0.263794 -0.0455942 -2.16955e-19)
(-0.207263 -0.0454998 -2.26598e-19)
(-0.150474 -0.0454213 0)
(-0.0934188 -0.0453583 0)
(-0.0360965 -0.0453009 0)
(0.0214921 -0.0452266 2.63156e-19)
(0.0793252 -0.0451061 0)
(0.137324 -0.0449013 -5.30288e-19)
(0.19539 -0.0445253 5.31457e-19)
(0.253203 -0.0436969 5.32676e-19)
(0.31061 -0.0420977 5.3092e-19)
(0.365264 -0.0394719 5.3681e-19)
(0.422247 -0.0348502 5.39064e-19)
(0.457157 -0.0212122 0)
(0.000488977 0.0237029 0)
(0.000962338 0.040739 0)
(0.00698919 0.0333872 -2.27321e-18)
(0.0273728 -0.000557057 -1.59919e-18)
(0.0676545 -0.061288 9.5184e-19)
(0.120048 -0.128772 6.15161e-19)
(0.17388 -0.182552 -3.58846e-22)
(0.222046 -0.21349 0)
(0.26181 -0.222344 0)
(0.293221 -0.214486 0)
(0.317558 -0.195915 0)
(0.336318 -0.171483 0)
(0.350747 -0.144474 -7.0068e-19)
(0.361717 -0.116825 0)
(0.369803 -0.0895707 2.2363e-19)
(0.375381 -0.0632001 2.23108e-19)
(0.378721 -0.0379024 0)
(0.380024 -0.0137525 0)
(0.379537 0.00928265 0)
(0.377596 0.03138 0)
(0.374472 0.0526803 2.38011e-19)
(0.370351 0.0731131 0)
(0.365151 0.0922924 -2.55238e-19)
(0.358486 0.109453 0)
(0.349662 0.123449 0)
(0.337837 0.132846 0)
(0.322238 0.136143 -6.39666e-19)
(0.302584 0.132146 0)
(0.279455 0.120385 3.79693e-19)
(0.254498 0.101275 -8.46315e-19)
(0.230255 0.075996 0)
(0.209638 0.046003 0)
(0.19499 0.0129925 0)
(0.186584 -0.0221922 6.04247e-19)
(0.183047 -0.0556955 5.3013e-19)
(0.177351 -0.0765547 0)
(0.162952 -0.0760368 0)
(0.1398 -0.0581611 -7.48395e-19)
(0.108651 -0.0301622 -7.73347e-19)
(0.0701248 0.00386583 8.7267e-19)
(0.0209058 0.0383383 0)
(-0.0517821 0.0716936 0)
(-0.150403 0.114628 0)
(-0.268956 0.167924 0)
(-0.403678 0.225662 -3.74271e-19)
(-0.548036 0.283463 -2.97885e-19)
(-0.693763 0.336586 2.45613e-19)
(-0.835137 0.380709 0)
(-0.968504 0.414891 0)
(-1.09013 0.437836 0)
(-1.1986 0.449197 0)
(-1.29322 0.449524 -1.39368e-19)
(-1.37417 0.43974 0)
(-1.443 0.421504 0)
(-1.50178 0.397293 -1.16965e-19)
(-1.55282 0.369558 -1.10639e-19)
(-1.59798 0.340036 0)
(-1.63906 0.310381 2.07749e-19)
(-1.67741 0.282077 -9.97883e-20)
(-1.71389 0.255861 9.71562e-20)
(-1.74916 0.231994 0)
(-1.78352 0.210845 0)
(-1.81697 0.192361 0)
(-1.84955 0.176202 0)
(-1.88131 0.162114 8.69806e-20)
(-1.91225 0.149831 1.709e-19)
(-1.94234 0.139083 8.38315e-20)
(-1.97157 0.129632 -8.23849e-20)
(-1.99992 0.121258 0)
(-2.02738 0.113779 1.59319e-19)
(-2.05394 0.107034 1.56744e-19)
(-2.07961 0.100897 1.54261e-19)
(-2.10437 0.0952567 -1.51859e-19)
(-2.12823 0.0900306 0)
(-2.1512 0.0851427 -2.20951e-19)
(-2.17327 0.0805412 0)
(-2.19445 0.0761748 7.13611e-20)
(-2.21473 0.0720117 7.04438e-20)
(-2.23413 0.0680167 0)
(-2.25263 0.0641704 0)
(-2.27025 0.0604479 1.34565e-19)
(-2.28696 0.0568371 0)
(-2.30278 0.0533199 1.30579e-19)
(-2.3177 0.0498881 0)
(-2.33171 0.0465281 -1.26667e-19)
(-2.34481 0.0432335 -2.4957e-19)
(-2.35699 0.0399936 0)
(-2.36824 0.0368024 0)
(-2.37856 0.0336515 0)
(-2.38795 0.0305344 -1.17054e-19)
(-2.39638 0.0274447 0)
(-2.40386 0.0243793 -1.13219e-19)
(-2.41038 0.0213356 0)
(-2.41595 0.0183143 0)
(-2.42057 0.0153186 2.14881e-19)
(-2.42424 0.012358 0)
(-2.42696 0.00944363 1.03555e-19)
(-2.42873 0.00658929 0)
(-2.42951 0.00379572 9.95663e-20)
(-2.42925 0.00104008 0)
(-2.4279 -0.00170789 0)
(-2.42542 -0.00444634 0)
(-2.42178 -0.00716179 2.73327e-19)
(-2.41698 -0.00985016 8.88482e-20)
(-2.411 -0.0125101 0)
(-2.40383 -0.015139 0)
(-2.39546 -0.0177349 0)
(-2.38589 -0.0202947 0)
(-2.3751 -0.0228158 -7.74999e-20)
(-2.36311 -0.0252954 1.50715e-19)
(-2.34989 -0.0277305 7.27396e-20)
(-2.33547 -0.0301185 -1.41118e-19)
(-2.31982 -0.0324566 -1.36217e-19)
(-2.30297 -0.0347424 -6.53461e-20)
(-2.28491 -0.0369736 0)
(-2.26566 -0.0391485 -1.21097e-19)
(-2.24521 -0.0412655 0)
(-2.22357 -0.0433235 1.10664e-19)
(-2.20077 -0.0453216 5.23278e-20)
(-2.17679 -0.0472588 0)
(-2.15167 -0.0491342 -9.44843e-20)
(-2.1254 -0.0509471 -4.40974e-20)
(-2.09801 -0.0526971 0)
(-2.0695 -0.0543834 -3.9239e-20)
(-2.0399 -0.0560062 1.07497e-19)
(-2.0092 -0.0575648 0)
(-1.97745 -0.0590589 0)
(-1.94464 -0.0604864 0)
(-1.91079 -0.0618461 0)
(-1.87593 -0.0631365 4.2243e-20)
(-1.84007 -0.0643575 3.51704e-20)
(-1.80323 -0.0655077 0)
(-1.76544 -0.0665848 0)
(-1.72672 -0.0675905 0)
(-1.68707 -0.0685312 0)
(-1.6465 -0.0694152 0)
(-1.60504 -0.0702611 0)
(-1.56276 -0.0710549 -9.72586e-21)
(-1.51968 -0.0717731 -1.06521e-21)
(-1.47581 -0.0724249 0)
(-1.43118 -0.073012 0)
(-1.38581 -0.0735365 -3.56431e-20)
(-1.33971 -0.0739985 0)
(-1.29293 -0.0744014 5.06411e-20)
(-1.24547 -0.0747462 5.6545e-20)
(-1.19739 -0.0750401 0)
(-1.14869 -0.0752834 0)
(-1.09941 -0.0754781 -7.91952e-20)
(-1.04958 -0.0756251 -1.70635e-19)
(-0.999227 -0.0757221 0)
(-0.948368 -0.0757682 0)
(-0.897044 -0.0757596 0)
(-0.845274 -0.0756962 -1.16329e-19)
(-0.793102 -0.0755779 1.23926e-19)
(-0.740547 -0.0754104 0)
(-0.68765 -0.0751977 2.76183e-19)
(-0.634428 -0.0749522 1.44645e-19)
(-0.580904 -0.0746749 -3.07432e-19)
(-0.527096 -0.0743797 0)
(-0.473014 -0.0740689 0)
(-0.418667 -0.073748 -3.55036e-19)
(-0.364058 -0.0734178 -1.86802e-19)
(-0.309193 -0.073077 0)
(-0.254078 -0.072726 0)
(-0.198715 -0.0723667 0)
(-0.143108 -0.0720037 0)
(-0.0872526 -0.0716434 -4.52472e-19)
(-0.0311436 -0.0712919 0)
(0.0252329 -0.0709532 0)
(0.0818871 -0.0706243 0)
(0.138825 -0.0702919 0)
(0.196039 -0.0699232 0)
(0.253504 -0.0694775 0)
(0.311159 -0.0689035 -5.15685e-19)
(0.368924 -0.0680974 0)
(0.426559 -0.0668639 0)
(0.484015 -0.0648718 -1.06942e-18)
(0.53971 -0.0615867 5.40288e-19)
(0.597508 -0.0559031 -5.51415e-19)
(0.642658 -0.0421298 5.63413e-19)
(-0.0011493 0.023561 0)
(0.00198338 0.0269898 4.98053e-18)
(0.0241572 -0.0159283 0)
(0.0729929 -0.10044 8.47627e-19)
(0.135177 -0.189909 0)
(0.194011 -0.25521 0)
(0.239935 -0.287117 -3.16234e-19)
(0.27166 -0.290522 0)
(0.292096 -0.275093 0)
(0.304997 -0.249399 0)
(0.313337 -0.219066 0)
(0.318984 -0.187207 0)
(0.322937 -0.155375 7.90962e-19)
(0.325651 -0.124286 3.89109e-19)
(0.327285 -0.0942542 -3.86692e-19)
(0.327877 -0.0654218 0)
(0.327437 -0.0378531 0)
(0.325979 -0.0115916 0)
(0.323549 0.0133562 0)
(0.320243 0.0370219 0)
(0.31621 0.0594424 4.1939e-19)
(0.311674 0.0806234 4.30889e-19)
(0.306849 0.10047 -4.47005e-19)
(0.30185 0.118661 4.68982e-19)
(0.296574 0.134541 0)
(0.290682 0.147053 0)
(0.283569 0.154726 5.69414e-19)
(0.2745 0.155844 0)
(0.262889 0.148849 0)
(0.248624 0.132677 7.35796e-19)
(0.23236 0.107227 8.2152e-19)
(0.215273 0.0736368 9.28994e-19)
(0.198677 0.0341898 0)
(0.181369 -0.00639575 0)
(0.156089 -0.0350645 -9.17e-19)
(0.118035 -0.0389964 0)
(0.0689626 -0.0194749 0)
(0.00872675 0.0163778 7.53749e-19)
(-0.0664372 0.0639576 -6.58528e-19)
(-0.15818 0.121969 5.22136e-19)
(-0.265425 0.186768 0)
(-0.386842 0.253232 0)
(-0.517544 0.319843 5.54941e-19)
(-0.65148 0.384811 0)
(-0.782947 0.443824 3.99798e-19)
(-0.906622 0.491993 5.27581e-19)
(-1.01798 0.527823 -4.71491e-19)
(-1.11538 0.55127 2.86299e-19)
(-1.19811 0.562452 0)
(-1.26632 0.562263 0)
(-1.32179 0.551975 2.28963e-19)
(-1.36651 0.533241 1.06869e-19)
(-1.403 0.507889 0)
(-1.43387 0.477959 0)
(-1.46143 0.445656 9.22055e-20)
(-1.48738 0.412722 1.7873e-19)
(-1.51289 0.380316 0)
(-1.53872 0.349367 -1.65104e-19)
(-1.56522 0.320566 1.61157e-19)
(-1.59244 0.294221 -1.56537e-19)
(-1.62031 0.270386 0)
(-1.64865 0.249082 0)
(-1.67721 0.230186 0)
(-1.70575 0.213433 0)
(-1.73409 0.198579 0)
(-1.7621 0.185384 -1.35809e-19)
(-1.78963 0.173614 0)
(-1.81661 0.163058 0)
(-1.84295 0.153523 0)
(-1.8686 0.144848 -2.52536e-19)