/*--------------------------------*- C++ -*----------------------------------*\
  =========                 |
  \\      /  F ield         | OpenFOAM: The Open Source CFD Toolbox
   \\    /   O peration     | Website:  https://openfoam.org
    \\  /    A nd           | Version:  8
     \\/     M anipulation  |
\*---------------------------------------------------------------------------*/
FoamFile
{
    version     2.0;
    format      ascii;
    class       volVectorField;
    location    "1200";
    object      wallShearStress;
}
// * * * * * * * * * * * * * * * * * * * * * * * * * * * * * * * * * * * * * //

dimensions      [0 2 -2 0 0 0 0];

internalField   uniform (0 0 0);

boundaryField
{
    inlet
    {
        type            calculated;
        value           uniform (0 0 0);
    }
    outlet
    {
        type            calculated;
        value           uniform (0 0 0);
    }
    upperWall
    {
        type            calculated;
        value           nonuniform List<vector> 
223
(
(-0.464362 0.00303147 0)
(-0.495324 0.00559695 0)
(-0.510753 0.0068368 0)
(-0.511755 0.00723868 0)
(-0.506225 0.00727413 0)
(-0.494589 0.0070495 0)
(-0.482324 0.00667866 0)
(-0.469418 0.00618374 0)
(-0.456057 0.00560925 0)
(-0.443334 0.00501486 0)
(-0.431646 0.00442865 0)
(-0.421075 0.00387561 0)
(-0.411662 0.00335446 0)
(-0.403453 0.00283954 0)
(-0.396438 0.00233977 0)
(-0.390596 0.00188807 0)
(-0.385749 0.00150706 0)
(-0.38178 0.0012614 0)
(-0.378899 0.00115226 0)
(-0.376754 0.00108297 5.76237e-22)
(-0.374664 0.00101106 0)
(-0.372635 0.000939139 0)
(-0.370637 0.000871945 0)
(-0.368667 0.000808677 5.85731e-22)
(-0.366723 0.000749449 0)
(-0.364833 0.000697988 0)
(-0.362957 0.000648648 0)
(-0.361147 0.000600317 -1.18643e-21)
(-0.359384 0.000556694 1.19011e-21)
(-0.357658 0.000518044 1.19382e-21)
(-0.355993 0.00049039 0)
(-0.35434 0.000475027 -1.20144e-21)
(-0.352716 0.000462666 0)
(-0.351111 0.000445536 1.20964e-21)
(-0.349534 0.000420945 1.21384e-21)
(-0.348002 0.000392022 -1.21811e-21)
(-0.346543 0.000361824 0)
(-0.345131 0.000331923 0)
(-0.343794 0.000303962 0)
(-0.342487 0.000278144 0)
(-0.341246 0.000254686 -1.24039e-21)
(-0.340032 0.000234193 0)
(-0.338871 0.000216493 0)
(-0.337732 0.000202368 1.2538e-21)
(-0.336631 0.000191315 0)
(-0.33554 0.000181938 1.26274e-21)
(-0.334489 0.000174737 -1.26722e-21)
(-0.333443 0.000170451 1.27171e-21)
(-0.332421 0.000168193 0)
(-0.331398 0.000167831 0)
(-0.330399 0.000169939 0)
(-0.329385 0.000172996 1.29005e-21)
(-0.328392 0.000176203 -1.29477e-21)
(-0.327391 0.00018138 0)
(-0.326402 0.000188277 0)
(-0.325394 0.000194156 0)
(-0.324414 0.000202007 0)
(-0.32341 0.000210412 0)
(-0.322421 0.000216582 0)
(-0.321429 0.000220753 0)
(-0.320454 0.000221039 0)
(-0.319484 0.000219081 1.34047e-21)
(-0.318543 0.000216257 -1.34582e-21)
(-0.317619 0.000213513 0)
(-0.316723 0.000211326 0)
(-0.315839 0.000209917 0)
(-0.31497 0.000209471 -1.36712e-21)
(-0.314117 0.000209899 0)
(-0.313264 0.000211395 0)
(-0.312427 0.000213881 0)
(-0.311582 0.000217319 0)
(-0.310754 0.000221892 0)
(-0.30989 0.000228579 -2.79266e-21)
(-0.309082 0.000230271 0)
(-0.30824 0.00023823 0)
(-0.307295 0.000591326 0)
(-0.308911 0.000792462 0)
(-0.31685 0.000582405 0)
(-0.317881 0.000550153 0)
(-0.317772 0.000497069 0)
(-0.311466 0.000610527 2.96692e-21)
(-0.309764 0.000804676 0)
(-0.307462 0.000875465 0)
(-0.306163 0.000748616 0)
(-0.311533 0.000379065 -3.07661e-21)
(-0.31137 7.74232e-05 0)
(-0.311335 -6.97144e-05 -3.12456e-21)
(-0.302287 -8.11466e-05 0)
(-0.323076 -0.000108765 0)
(-0.367879 0.000278337 0)
(-0.345533 0.000355141 -3.4911e-21)
(-0.332072 9.88323e-05 0)
(-0.312597 0.000372348 3.18022e-21)
(-0.306065 0.000298763 3.12026e-21)
(-0.304533 8.45732e-05 0)
(-0.30073 0.000349173 3.08433e-21)
(-0.301119 0.000575904 0)
(-0.29999 0.000233854 0)
(-0.331475 0.000578684 0)
(-0.317309 0.000747033 -3.25398e-21)
(-0.306772 0.000366842 0)
(-0.299697 0.000460553 -3.09607e-21)
(-0.298159 0.000603602 3.0994e-21)
(-0.297686 0.00041223 0)
(-0.297457 0.000227654 0)
(-0.297021 0.00036305 0)
(-0.296688 0.00025973 0)
(-0.296268 0.000382275 0)
(-0.295809 6.69437e-05 0)
(-0.314164 0.000403582 0)
(-0.30017 0.000853574 -3.07303e-21)
(-0.29402 0.000310593 0)
(-0.348743 0.000639189 0)
(-0.328124 0.00116454 0)
(-0.295722 0.000900475 0)
(-0.291333 0.000981163 0)
(-0.296688 0.00127827 0)
(-0.289179 0.000525582 0)
(-0.288593 0.000203405 0)
(-0.287597 0.000686281 0)
(-0.286513 0.000616273 0)
(-0.285558 0.000878292 0)
(-0.284237 0.00110629 0)
(-0.283017 0.000432483 -5.41318e-21)
(-0.282288 -0.000201432 0)
(-0.314236 0.00026431 0)
(-0.285767 0.000481123 0)
(-0.279786 -0.000127291 5.14671e-21)
(-0.307836 0.000475686 0)
(-0.278991 0.000699251 0)
(-0.276812 0.000162102 4.81003e-21)
(-0.30104 0.000187726 0)
(-0.314068 0.000428679 -5.28625e-21)
(-0.318399 0.000387236 0)
(-0.297322 0.000206465 0)
(-0.300875 0.000202577 0)
(-0.28545 0.00101111 4.34842e-21)
(-0.265562 0.00125109 0)
(-0.287941 0.00132211 -4.00405e-21)
(-0.26327 0.00105543 0)
(-0.287871 0.00100353 0)
(-0.261075 0.000824869 0)
(-0.283693 0.00077928 0)
(-0.258505 0.000656887 0)
(-0.27091 3.30756e-05 0)
(-0.276566 0.000724427 0)
(-0.253709 0.000733496 0)
(-0.262045 0.000756848 0)
(-0.250392 0.00074203 0)
(-0.252415 0.000631008 0)
(-0.246998 0.000522517 -8.0429e-22)
(-0.244889 8.08845e-06 4.99566e-22)
(-0.242203 0.000307146 0)
(-0.239325 0.000329766 0)
(-0.236605 0.000308103 0)
(-0.233631 0.0010749 0)
(-0.236127 0.00116729 -1.11892e-21)
(-0.250399 0.00152872 1.56682e-21)
(-0.230013 0.00209555 -1.76426e-21)
(-0.229249 0.00090018 0)
(-0.227466 -0.000491401 -2.60626e-21)
(-0.225127 -0.000403657 -6.15282e-21)
(-0.221647 0.00123537 0)
(-0.24074 0.00270028 -8.3068e-21)
(-0.219 0.00187741 8.39255e-21)
(-0.217607 0.000913938 0)
(-0.215227 0.000898789 0)
(-0.214111 9.78304e-05 0)
(-0.211349 -0.00106567 0)
(-0.207837 -0.000814533 0)
(-0.203741 0.000834214 -1.54251e-20)
(-0.203754 0.00107398 0)
(-0.201468 -0.000587922 -1.71775e-20)
(-0.198967 -0.000573462 0)
(-0.195215 -0.000294744 0)
(-0.19169 -0.000169819 0)
(-0.18817 0.000179469 0)
(-0.18514 0.000752955 0)
(-0.183672 0.00173477 2.48713e-20)
(-0.184503 0.00209546 0)
(-0.184058 0.00165657 0)
(-0.183322 0.00144506 -2.79687e-20)
(-0.182871 0.0014552 0)
(-0.181686 0.00122477 0)
(-0.178378 0.000754775 0)
(-0.173342 0.000532132 3.58039e-20)
(-0.169317 0.000719626 0)
(-0.166591 0.000742679 0)
(-0.163343 0.000642938 0)
(-0.158213 0.000583776 0)
(-0.150095 0.000612579 -4.98398e-20)
(-0.138145 0.00103181 0)
(-0.123536 0.00158775 0)
(-0.107736 0.00197747 0)
(-0.0931585 0.00207673 8.75675e-20)
(-0.0782493 0.0019274 0)
(-0.0699029 0.00220042 0)
(-0.0385895 0.00165077 -1.3821e-19)
(-0.0715086 0.000671785 -6.01853e-36)
(-0.107005 0.00612485 1.18356e-17)
(-0.131397 0.0106772 2.11389e-17)
(-0.144389 0.0133791 1.98176e-17)
(-0.152069 0.0148759 1.90221e-17)
(-0.15782 0.0157934 1.83895e-17)
(-0.162296 0.0164413 -1.78608e-17)
(-0.16547 0.0168968 -1.73784e-17)
(-0.167813 0.0172066 0)
(-0.169938 0.0174429 -3.31923e-17)
(-0.171918 0.0176453 -1.62348e-17)
(-0.173973 0.0178276 1.14352e-34)
(-0.176289 0.0180221 -1.20371e-35)
(-0.179124 0.01825 -2.99547e-17)
(-0.182545 0.018538 -2.88449e-17)
(-0.186682 0.0188878 -2.75669e-17)
(-0.191533 0.0193148 -4.81482e-35)
(-0.197161 0.0198095 4.87175e-17)
(-0.203658 0.0203933 2.23705e-17)
(-0.210867 0.0210429 2.40741e-35)
(-0.219611 0.0218296 -3.49809e-17)
(-0.227837 0.0226045 -1.22937e-20)
(-0.241726 0.0237857 3.00927e-36)
(-0.245647 0.0245 1.31801e-17)
(-0.272231 0.026078 -7.25982e-18)
)
;
    }
    lowerWall
    {
        type            calculated;
        value           nonuniform List<vector> 
250
(
(-0.626664 -0.00603953 0)
(-0.604206 -0.00974853 0)
(-0.670614 -0.0121645 0)
(-0.598789 -0.0106482 0)
(-0.558107 -0.00812869 0)
(-0.518702 -0.00623817 0)
(-0.492599 -0.00513972 0)
(-0.480325 -0.0037798 0)
(-0.505608 -0.00382972 0)
(-0.465835 -0.00344113 0)
(-0.454698 -0.00198658 0)
(-0.530236 -0.00213717 0)
(-0.479452 -0.00268227 0)
(-0.462179 -0.0032327 0)
(-0.435923 -0.00234138 0)
(-0.43279 -0.00138606 0)
(-0.429938 -0.000378987 0)
(-0.428634 0.000394979 0)
(0.00219409 0.000233427 0)
(0.00243737 -0.00262891 0)
(0.00270619 -0.00559305 0)
(0.00305229 -0.00873668 1.10375e-19)
(0.00348038 -0.0118828 -9.30598e-20)
(0.0037666 -0.0158356 8.31526e-20)
(0.0034473 -0.015585 -7.47952e-20)
(0.00914299 -0.0352963 0)
(-0.0453283 -0.108211 0)
(0.00022702 -0.00028719 0)
(5.15081e-05 -0.000815414 0)
(-1.76086e-05 -0.000892619 0)
(5.4457e-05 -0.000882031 0)
(3.85602e-05 -0.000854455 1.52707e-19)
(-0.000137177 -0.000286907 -1.48916e-19)
(-0.00058386 0.00116954 0)
(-0.00120069 0.00392095 -1.69853e-19)
(-0.00159003 0.00743438 1.29458e-19)
(-0.00153027 0.0107483 0)
(-0.00112246 0.0131874 0)
(-0.000573346 0.0144617 0)
(-4.87039e-05 0.0145487 0)
(0.000365351 0.0136463 0)
(0.000709627 0.0120446 0)
(0.00104655 0.00979324 0)
(0.00141727 0.00693196 0)
(0.00183693 0.0035121 0)
(-0.0001494 -0.0002878 0)
(0.000175602 -0.000462522 0)
(0.000494615 -0.000515539 0)
(0.000827216 -0.000442869 0)
(0.00109205 -0.000199835 -0)
(0.00114136 0.000201412 -0)
(0.000887834 0.000681105 1.40063e-20)
(0.000361794 0.00113042 -1.61031e-20)
(-0.000366463 0.00145624 0)
(-0.00119979 0.00161911 -9.23462e-21)
(-0.00205955 0.00163326 0)
(-0.00287923 0.00152926 0)
(-0.00361261 0.00134463 0)
(-0.00423401 0.00111087 4.4945e-21)
(-0.00473195 0.000849438 0)
(-0.00510219 0.000572329 0)
(-0.00534232 0.000288073 -3.89252e-21)
(-0.00545725 -9.38655e-06 -0)
(-0.00542175 -0.000317909 0)
(-0.0052339 -0.000615883 -0)
(-0.00490284 -0.000882512 4.18755e-21)
(-0.0044409 -0.00109726 -0)
(-0.00386654 -0.00123871 4.95632e-21)
(-0.00320807 -0.00128763 0)
(-0.00250407 -0.00123013 -0)
(-0.00180435 -0.00106426 8.02065e-21)
(-0.00116595 -0.000807402 0)
(-0.000644177 -0.000504103 -1.31898e-20)
(-0.000270749 -0.000222504 0)
(-3.31477e-05 -2.20364e-05 2.33645e-20)
(0.000115294 9.91481e-05 0)
(0.000199969 0.000202221 0)
(0.000184261 0.000320039 0)
(6.51777e-05 0.000473534 0)
(-0.00019298 0.000674279 0)
(-0.000616236 0.000881702 -1.37532e-20)
(-0.00118286 0.00101772 0)
(-0.00180012 0.00100909 1.67228e-20)
(-0.00234745 0.0008464 0)
(-0.00272464 0.000581523 -1.35594e-20)
(-0.00289886 0.000306463 0)
(-0.0029053 9.52203e-05 0)
(-0.00280516 -9.58532e-06 1.3487e-20)
(-0.00267441 2.06234e-05 0)
(-0.00258458 0.000174211 1.39761e-20)
(-0.00253481 0.000375584 -1.40633e-20)
(-0.00245215 0.000440383 0)
(-0.00214684 0.000123626 -1.5671e-20)
(-0.00136717 -0.000595854 -1.88098e-20)
(9.34863e-05 -0.00129427 0)
(0.00189986 -0.00197758 0)
(0.00395095 -0.00268806 0)
(0.00629981 -0.00326261 0)
(0.0088105 -0.00361301 -0)
(0.0113583 -0.00386496 3.26139e-21)
(0.0139287 -0.00402864 0)
(0.0165005 -0.00396419 -2.58415e-21)
(0.0189231 -0.00372599 -0)
(0.0211795 -0.00350042 -0)
(0.0243649 -0.00335598 2.15861e-21)
(0.027404 -0.00310951 0)
(0.0272083 -0.00262217 -1.88029e-21)
(0.0305091 -0.00254311 -0)
(0.0324435 -0.0023347 0)
(0.034726 -0.00217454 -0)
(0.036699 -0.00201841 1.81147e-21)
(0.0386926 -0.00188291 0)
(0.0405377 -0.00176024 -0)
(0.042353 -0.00165266 1.76867e-21)
(0.0440738 -0.00155658 0)
(0.0457574 -0.0014713 1.74778e-21)
(0.0473729 -0.0013947 0)
(0.0489525 -0.00132546 0)
(0.0504791 -0.00126224 0)
(0.0519716 -0.00120384 -1.71506e-21)
(0.0534204 -0.00114953 -0)
(0.0548363 -0.00109814 0)
(0.0562132 -0.0010496 -1.69303e-21)
(0.0575582 -0.00100287 -1.68568e-21)
(0.0588666 -0.000957949 -0)
(0.060143 -0.000914158 -1.67048e-21)
(0.0613838 -0.000871551 0)
(0.0625919 -0.000829507 -3.30875e-21)
(0.0637643 -0.000788119 -0)
(0.0649024 -0.000746944 -3.27409e-21)
(0.0660041 -0.000706036 -0)
(0.0670693 -0.000665075 3.23632e-21)
(0.0680972 -0.000623998 0)
(0.0690864 -0.00058237 0)
(0.0700356 -0.000540101 0)
(0.0709427 -0.000496607 -3.14915e-21)
(0.071806 -0.000451913 -0)
(0.0726235 -0.000405606 3.09868e-21)
(0.0733934 -0.000357299 0)
(0.0741126 -0.000306619 -3.04317e-21)
(0.0747788 -0.000253468 -3.01343e-21)
(0.0753891 -0.000198094 -2.98242e-21)
(0.0759411 -0.000141747 0)
(0.0764337 -8.73231e-05 0)
(0.0768693 -3.88393e-05 0)
(0.0772528 1.9485e-06 0)
(0.0775884 3.91936e-05 0)
(0.0778765 7.58947e-05 0)
(0.0781165 0.000112326 0)
(0.0783074 0.000148575 0)
(0.0784497 0.000184733 2.63024e-21)
(0.0785419 0.000220802 2.5811e-21)
(0.0785837 0.000256708 0)
(0.0785749 0.000292322 0)
(0.0785153 0.000327715 0)
(0.0784042 0.000362693 2.36206e-21)
(0.078242 0.000397349 0)
(0.0780279 0.000431514 0)
(0.0777629 0.000465099 0)
(0.0774467 0.000498206 0)
(0.0770793 0.000530735 -2.03447e-21)
(0.0766611 0.000562532 0)
(0.076193 0.000593683 0)
(0.0756747 0.000624181 1.80742e-21)
(0.0751071 0.000653875 -1.72645e-21)
(0.0744909 0.000682836 0)
(0.0738264 0.000711076 -1.5564e-21)
(0.0731141 0.000738493 0)
(0.0723552 0.000765071 1.37528e-21)
(0.0715501 0.000790914 0)
(0.0706991 0.00081601 0)
(0.0698033 0.000840338 0)
(0.0688715 0.000863697 0)
(0.0679001 0.000886073 0)
(0.0668767 0.000907337 -1.52493e-21)
(0.0658229 0.000927696 -1.29937e-21)
(0.0647234 0.000946338 0)
(0.0635941 0.00096176 0)
(0.0624322 0.000971688 0)
(0.06124 0.000972573 3.30858e-22)
(0.0600179 0.000964029 0)
(0.0587601 0.000967054 0)
(0.0574707 0.000983287 0)
(0.0561479 0.000995814 -7.54886e-22)
(0.0547991 0.00100771 1.04774e-21)
(0.0534237 0.00101862 0)
(0.052025 0.00102884 0)
(0.0506031 0.00103831 1.9842e-21)
(0.0491604 0.00104717 2.31737e-21)
(0.0476983 0.00105539 0)
(0.0462192 0.0010632 0)
(0.0447217 0.00107023 -3.3882e-21)
(0.0432115 0.00107705 3.77094e-21)
(0.0416845 0.00108301 0)
(0.0401484 0.00108859 0)
(0.0385986 0.0010933 5.00951e-21)
(0.0370423 0.00109767 0)
(0.0354752 0.00110099 0)
(0.0339056 0.00110405 6.40383e-21)
(0.0323282 0.00110623 0)
(0.0307516 0.00110839 7.43803e-21)
(0.0291696 0.0011099 0)
(0.0275897 0.00111145 0)
(0.0260089 0.00111299 0)
(0.0244296 0.00111458 -9.82347e-21)
(0.0228518 0.00111635 0)
(0.0212759 0.00111826 0)
(0.0197025 0.00112037 0)
(0.0181318 0.00112268 0)
(0.0165643 0.00112531 0)
(0.0150003 0.0011284 0)
(0.0134401 0.00113214 -1.55479e-20)
(0.0118834 0.00113668 -1.66107e-20)
(0.0103302 0.00114217 0)
(0.0087799 0.00114861 0)
(0.00723253 0.00115603 0)
(0.00568809 0.00116506 2.18687e-20)
(0.00414696 0.00117503 0)
(0.00261119 0.00118366 -5.07074e-20)
(0.00108518 0.0011867 5.48015e-20)
(-0.000420631 0.00116533 5.64271e-20)
(-0.00190508 0.00110326 -5.45688e-20)
(-0.00326313 0.00102071 5.23764e-20)
(-0.00475689 0.000845823 -5.06794e-20)
(-0.00502041 0.000433132 0)
(-0.00701338 0.000965732 -3.04076e-18)
(-0.0102103 0.000720144 -2.76998e-18)
(-0.0133816 0.000354405 -3.00927e-36)
(-0.0165968 1.48785e-05 -4.74521e-18)
(-0.0200031 -0.000334182 -8.84894e-18)
(-0.0236178 -0.000698922 -4.13873e-18)
(-0.0274506 -0.00108161 3.87988e-18)
(-0.0315254 -0.00148685 1.80556e-35)
(-0.035868 -0.0019185 3.00927e-36)
(-0.0404953 -0.00238205 3.22371e-18)
(-0.0454272 -0.0028582 3.03477e-18)
(-0.0506718 -0.00333928 3.00927e-36)
(-0.0562663 -0.00387035 0)
(-0.0622535 -0.00447162 0)
(-0.0686921 -0.00512907 -5.56714e-35)
(-0.0755819 -0.0058385 2.63311e-36)
(-0.0830794 -0.00660332 8.72687e-35)
(-0.0910318 -0.00742811 -3.7749e-18)
(-0.100027 -0.00832481 -3.43997e-18)
(-0.109107 -0.00929446 6.01853e-36)
(-0.120699 -0.0103619 5.41515e-18)
(-0.13028 -0.0115327 8.99036e-18)
(-0.147756 -0.0127701 6.01853e-36)
(-0.155165 -0.0142841 -4.33779e-18)
(-0.189859 -0.0166326 6.01853e-36)
)
;
    }
    frontAndBack
    {
        type            empty;
    }
}


// ************************************************************************* //
