/*--------------------------------*- C++ -*----------------------------------*\
  =========                 |
  \\      /  F ield         | OpenFOAM: The Open Source CFD Toolbox
   \\    /   O peration     | Website:  https://openfoam.org
    \\  /    A nd           | Version:  8
     \\/     M anipulation  |
\*---------------------------------------------------------------------------*/
FoamFile
{
    version     2.0;
    format      ascii;
    class       surfaceScalarField;
    location    "4300";
    object      phi;
}
// * * * * * * * * * * * * * * * * * * * * * * * * * * * * * * * * * * * * * //

dimensions      [0 3 -1 0 0 0 0];

internalField   nonuniform List<scalar> 
24170
(
3.92539e-06
-7.91498e-07
3.76465e-06
1.6075e-07
3.63345e-06
1.31209e-07
3.43331e-06
2.00144e-07
3.28028e-06
1.53027e-07
3.18901e-06
9.11906e-08
3.13091e-06
5.81105e-08
3.08609e-06
4.58913e-08
3.04612e-06
4.23236e-08
3.01059e-06
3.81628e-08
2.97876e-06
3.38025e-08
2.94904e-06
3.07704e-08
2.92187e-06
2.73781e-08
2.89642e-06
2.52004e-08
2.87227e-06
2.36058e-08
2.85194e-06
1.94834e-08
2.84097e-06
9.85767e-09
-6.39312e-09
2.84669e-06
3.58445e-06
-9.19499e-07
3.80424e-06
-5.90412e-08
3.74282e-06
1.92629e-07
3.6906e-06
2.52375e-07
3.63729e-06
2.06333e-07
3.59023e-06
1.3828e-07
3.55289e-06
9.55998e-08
3.52309e-06
7.56598e-08
3.49853e-06
6.65698e-08
3.47732e-06
5.92154e-08
3.45871e-06
5.25296e-08
3.44252e-06
4.72651e-08
3.42795e-06
4.23385e-08
3.41466e-06
3.87872e-08
3.40269e-06
3.57311e-08
3.39122e-06
3.10521e-08
3.38037e-06
2.08413e-08
4.77113e-09
3.36943e-06
3.68518e-06
-7.92482e-07
3.83639e-06
-2.1025e-07
3.91494e-06
1.14082e-07
3.94502e-06
2.22293e-07
3.94408e-06
2.07265e-07
3.92749e-06
1.54898e-07
3.90755e-06
1.15615e-07
3.88932e-06
9.36447e-08
3.874e-06
8.11968e-08
3.86056e-06
7.19163e-08
3.84834e-06
6.42565e-08
3.83728e-06
5.8136e-08
3.82691e-06
5.278e-08
3.8174e-06
4.8476e-08
3.80891e-06
4.44345e-08
3.80097e-06
3.92535e-08
3.79195e-06
3.02064e-08
1.77907e-08
3.77944e-06
4.05359e-06
-6.4151e-07
4.1146e-06
-2.71259e-07
4.20799e-06
2.06918e-08
4.26635e-06
1.63933e-07
4.29069e-06
1.82927e-07
4.29287e-06
1.52749e-07
4.28571e-06
1.22819e-07
4.27631e-06
1.02844e-07
4.26727e-06
8.96867e-08
4.25873e-06
7.98182e-08
4.25056e-06
7.19504e-08
4.24283e-06
6.56356e-08
4.23534e-06
6.02473e-08
4.22823e-06
5.56942e-08
4.22149e-06
5.13534e-08
4.21464e-06
4.63456e-08
4.20599e-06
3.91828e-08
3.06555e-08
4.19351e-06
4.50491e-06
-5.09114e-07
4.51536e-06
-2.81708e-07
4.58529e-06
-4.92339e-08
4.64665e-06
1.02566e-07
4.68258e-06
1.46993e-07
4.69687e-06
1.38474e-07
4.69946e-06
1.20238e-07
4.69723e-06
1.04926e-07
4.69331e-06
9.32557e-08
4.68868e-06
8.40581e-08
4.68366e-06
7.66428e-08
4.67851e-06
7.0609e-08
4.67321e-06
6.54955e-08
4.66783e-06
6.11069e-08
4.66227e-06
5.70059e-08
4.65606e-06
5.27034e-08
4.64786e-06
4.75901e-08
4.26022e-08
4.63612e-06
5.00014e-06
-3.94663e-07
4.98614e-06
-2.67704e-07
5.03069e-06
-9.37787e-08
5.08506e-06
4.81983e-08
5.12454e-06
1.07517e-07
5.14608e-06
1.16941e-07
5.15584e-06
1.1049e-07
5.15939e-06
1.01286e-07
5.15985e-06
9.26086e-08
5.15859e-06
8.50845e-08
5.15629e-06
7.87439e-08
5.15333e-06
7.34437e-08
5.14984e-06
6.89349e-08
5.14589e-06
6.50648e-08
5.14136e-06
6.15877e-08
5.13584e-06
5.83099e-08
5.12839e-06
5.5148e-08
5.30496e-08
5.11808e-06
5.54382e-06
-2.97475e-07
5.51664e-06
-2.40529e-07
5.54055e-06
-1.17685e-07
5.58388e-06
4.87078e-09
5.62166e-06
6.97349e-08
5.64656e-06
9.20467e-08
5.66107e-06
9.5969e-08
5.66906e-06
9.32478e-08
5.67315e-06
8.84251e-08
5.67481e-06
8.3302e-08
5.6749e-06
7.85528e-08
5.6739e-06
7.43766e-08
5.67204e-06
7.07668e-08
5.6694e-06
6.76969e-08
5.66591e-06
6.51005e-08
5.66127e-06
6.29885e-08
5.65494e-06
6.15469e-08
6.15312e-08
5.6465e-06
4.34788e-06
-2.39242e-07
4.32251e-06
-2.15162e-07
4.33078e-06
-1.25951e-07
4.35419e-06
-1.85358e-08
4.3784e-06
4.55265e-08
4.39646e-06
7.39855e-08
4.40841e-06
8.40234e-08
4.41597e-06
8.56744e-08
4.42059e-06
8.37685e-08
4.42325e-06
8.05985e-08
4.42456e-06
7.71975e-08
4.4249e-06
7.40037e-08
4.42446e-06
7.1181e-08
4.42334e-06
6.88112e-08
4.42151e-06
6.69376e-08
4.41885e-06
6.56713e-08
4.41514e-06
6.52687e-08
6.63484e-08
4.41035e-06
5.08621e-06
-1.85599e-07
5.05777e-06
-1.86718e-07
5.0584e-06
-1.26578e-07
5.07686e-06
-3.70019e-08
5.09918e-06
2.32146e-08
5.11773e-06
5.54368e-08
5.13124e-06
7.05077e-08
5.14059e-06
7.63174e-08
5.14686e-06
7.74763e-08
5.15094e-06
7.64979e-08
5.15344e-06
7.4677e-08
5.15477e-06
7.26671e-08
5.15514e-06
7.07976e-08
5.15468e-06
6.92649e-08
5.15341e-06
6.82106e-08
5.15128e-06
6.78136e-08
5.14821e-06
6.83504e-08
7.02716e-08
5.14429e-06
5.94839e-06
-1.38193e-07
5.91832e-06
-1.56649e-07
5.91161e-06
-1.19865e-07
5.924e-06
-4.93962e-08
5.94286e-06
4.35926e-09
5.96058e-06
3.77174e-08
5.97479e-06
5.62919e-08
5.98546e-06
6.56471e-08
5.9932e-06
6.97364e-08
5.99867e-06
7.10179e-08
6.00242e-06
7.09161e-08
6.00484e-06
7.02403e-08
6.00618e-06
6.94585e-08
6.00657e-06
6.88676e-08
6.0061e-06
6.8688e-08
6.00478e-06
6.91354e-08
6.00267e-06
7.04612e-08
7.29749e-08
5.99997e-06
6.95439e-06
-9.83129e-08
6.92401e-06
-1.26278e-07
6.91113e-06
-1.06984e-07
6.9168e-06
-5.50651e-08
6.93087e-06
-9.7098e-09
6.94635e-06
2.22401e-08
6.96015e-06
4.24935e-08
6.9714e-06
5.43969e-08
6.98017e-06
6.09621e-08
6.98684e-06
6.43482e-08
6.9918e-06
6.59556e-08
6.99537e-06
6.6665e-08
6.9978e-06
6.70307e-08
6.99924e-06
6.74241e-08
6.99982e-06
6.8113e-08
6.99963e-06
6.93238e-08
6.99883e-06
7.12667e-08
7.41282e-08
6.99768e-06
8.12719e-06
-6.64876e-08
8.09793e-06
-9.70208e-08
8.08056e-06
-8.96085e-08
8.07955e-06
-5.40582e-08
8.08793e-06
-1.80887e-08
8.09985e-06
1.03235e-08
8.11198e-06
3.03595e-08
8.12285e-06
4.35227e-08
8.13202e-06
5.17959e-08
8.1395e-06
5.68681e-08
8.14548e-06
5.99757e-08
8.15018e-06
6.197e-08
8.15378e-06
6.34311e-08
8.15644e-06
6.47566e-08
8.15832e-06
6.62328e-08
8.15958e-06
6.80733e-08
8.1604e-06
7.04399e-08
7.34378e-08
8.16109e-06
9.49368e-06
-4.24386e-08
9.4668e-06
-7.01425e-08
9.44683e-06
-6.96399e-08
9.43991e-06
-4.71313e-08
9.44229e-06
-2.04673e-08
9.44965e-06
2.95607e-09
9.45895e-06
2.1065e-08
9.4684e-06
3.4071e-08
9.47716e-06
4.30366e-08
9.4849e-06
4.91208e-08
9.49159e-06
5.32935e-08
9.49727e-06
5.62913e-08
9.50205e-06
5.86458e-08
9.50607e-06
6.07375e-08
9.50947e-06
6.28332e-08
9.51242e-06
6.5119e-08
9.51515e-06
6.77132e-08
7.06692e-08
9.51792e-06
1.10854e-05
-2.5159e-08
1.10618e-05
-4.65023e-08
1.1041e-05
-4.88063e-08
1.10294e-05
-3.55511e-08
1.10261e-05
-1.71692e-08
1.10284e-05
6.05473e-10
1.1034e-05
1.54752e-08
1.10411e-05
2.69711e-08
1.10487e-05
3.54919e-08
1.10561e-05
4.17156e-08
1.1063e-05
4.63129e-08
1.10695e-05
4.98422e-08
1.10754e-05
5.27337e-08
1.10808e-05
5.53017e-08
1.10859e-05
5.77662e-08
1.10908e-05
6.02712e-08
1.10956e-05
6.28971e-08
6.56671e-08
1.11006e-05
1.29396e-05
-1.31185e-08
1.29194e-05
-2.62783e-08
1.28988e-05
-2.82515e-08
1.28839e-05
-2.06871e-08
1.28758e-05
-8.99518e-09
1.28732e-05
3.14547e-09
1.28748e-05
1.39405e-08
1.28789e-05
2.27887e-08
1.28847e-05
2.97445e-08
1.28913e-05
3.51428e-08
1.28982e-05
3.93827e-08
1.29052e-05
4.28271e-08
1.29122e-05
4.57683e-08
1.29191e-05
4.84233e-08
1.29259e-05
5.09411e-08
1.29327e-05
5.34134e-08
1.29398e-05
5.58833e-08
5.83537e-08
1.29471e-05
1.50998e-05
-4.48299e-09
1.50822e-05
-8.67564e-09
1.50621e-05
-8.11301e-09
1.50448e-05
-3.45756e-09
1.50327e-05
3.11042e-09
1.50259e-05
9.93932e-09
1.50237e-05
1.61623e-08
1.5025e-05
2.14645e-08
1.50289e-05
2.58531e-08
1.50346e-05
2.94841e-08
1.50414e-05
3.25535e-08
1.5049e-05
3.52416e-08
1.50571e-05
3.76919e-08
1.50655e-05
4.00056e-08
1.50742e-05
4.22453e-08
1.50832e-05
4.44403e-08
1.50925e-05
4.65934e-08
4.86861e-08
1.51021e-05
1.76171e-05
2.89321e-09
1.75999e-05
8.52361e-09
1.75787e-05
1.30303e-08
1.7559e-05
1.62787e-08
1.75436e-05
1.84733e-08
1.75336e-05
1.99585e-08
1.75287e-05
2.10528e-08
1.75282e-05
2.1994e-08
1.75311e-05
2.29396e-08
1.75366e-05
2.3985e-08
1.7544e-05
2.51762e-08
1.75527e-05
2.65264e-08
1.75624e-05
2.80241e-08
1.75727e-05
2.9644e-08
1.75836e-05
3.13497e-08
1.7595e-05
3.31001e-08
1.76067e-05
3.48493e-08
3.65526e-08
1.76188e-05
1.78181e-05
1.10004e-08
1.77994e-05
2.7213e-08
1.77768e-05
3.56248e-08
1.7756e-05
3.70592e-08
1.77402e-05
3.43271e-08
1.77302e-05
2.99472e-08
1.77257e-05
2.5501e-08
1.77259e-05
2.17785e-08
1.77298e-05
1.90754e-08
1.77364e-05
1.73998e-08
1.77449e-05
1.66318e-08
1.77549e-05
1.6602e-08
1.77658e-05
1.71395e-08
1.77773e-05
1.80871e-08
1.77894e-05
1.93124e-08
1.78017e-05
2.0702e-08
1.78144e-05
2.21663e-08
2.36295e-08
1.78274e-05
1.58702e-05
2.21335e-08
1.58478e-05
4.95817e-08
1.58233e-05
6.01327e-08
1.58032e-05
5.72353e-08
1.57899e-05
4.76111e-08
1.57834e-05
3.63725e-08
1.57827e-05
2.61982e-08
1.57864e-05
1.81477e-08
1.57931e-05
1.2366e-08
1.58019e-05
8.61298e-09
1.5812e-05
6.49689e-09
1.5823e-05
5.62819e-09
1.58345e-05
5.66367e-09
1.58462e-05
6.32739e-09
1.58581e-05
7.39928e-09
1.58701e-05
8.71508e-09
1.58821e-05
1.01474e-08
1.1605e-08
1.58942e-05
1.41313e-05
3.95388e-08
1.41021e-05
7.87071e-08
1.40745e-05
8.77882e-08
1.40557e-05
7.60389e-08
1.40469e-05
5.6414e-08
1.40462e-05
3.70402e-08
1.40512e-05
2.12115e-08
1.40597e-05
9.58365e-09
1.40704e-05
1.76448e-09
1.4082e-05
-3.04661e-09
1.40941e-05
-5.60256e-09
1.41063e-05
-6.55953e-09
1.41184e-05
-6.41491e-09
1.41303e-05
-5.55836e-09
1.41419e-05
-4.25966e-09
1.41534e-05
-2.71907e-09
1.41646e-05
-1.07362e-09
5.78219e-10
1.41756e-05
1.25772e-05
6.73556e-08
1.25392e-05
1.1674e-07
1.25091e-05
1.17889e-07
1.24942e-05
9.08914e-08
1.24928e-05
5.78143e-08
1.25002e-05
2.96837e-08
1.25122e-05
9.13212e-09
1.25264e-05
-4.49457e-09
1.25409e-05
-1.28323e-08
1.25552e-05
-1.73439e-08
1.25689e-05
-1.92789e-08
1.25819e-05
-1.94954e-08
1.25941e-05
-1.86508e-08
1.26057e-05
-1.71511e-08
1.26167e-05
-1.5303e-08
1.26273e-05
-1.32955e-08
1.26375e-05
-1.12596e-08
-9.27706e-09
1.26473e-05
1.11862e-05
1.10916e-07
1.11384e-05
1.6457e-07
1.11088e-05
1.47521e-07
1.11022e-05
9.74853e-08
1.11117e-05
4.83136e-08
1.11289e-05
1.24025e-08
1.11486e-05
-1.04597e-08
1.11678e-05
-2.37245e-08
1.11855e-05
-3.05036e-08
1.12014e-05
-3.32842e-08
1.12157e-05
-3.35468e-08
1.12285e-05
-3.23505e-08
1.12402e-05
-3.02965e-08
1.12509e-05
-2.78482e-08
1.12608e-05
-2.52391e-08
1.12701e-05
-2.26347e-08
1.1279e-05
-2.01206e-08
-1.77492e-08
1.12875e-05
9.93908e-06
1.76452e-07
9.88248e-06
2.21163e-07
9.85873e-06
1.71263e-07
9.86593e-06
9.02762e-08
9.8896e-06
2.46397e-08
9.9176e-06
-1.55543e-08
9.94391e-06
-3.67926e-08
9.96668e-06
-4.64062e-08
9.98571e-06
-4.96051e-08
1.00017e-05
-4.92795e-08
1.00152e-05
-4.71154e-08
1.00269e-05
-4.39881e-08
1.00371e-05
-4.0528e-08
1.00463e-05
-3.69906e-08
1.00546e-05
-3.3566e-08
1.00623e-05
-3.03478e-08
1.00696e-05
-2.73621e-08
-2.46371e-08
1.00765e-05
8.81963e-06
2.69916e-07
8.75785e-06
2.82944e-07
8.74788e-06
1.81226e-07
8.77481e-06
6.33238e-08
8.81458e-06
-1.5128e-08
8.85212e-06
-5.30902e-08
8.88268e-06
-6.72269e-08
8.90623e-06
-7.00218e-08
8.92427e-06
-6.76118e-08
8.93842e-06
-6.33623e-08
8.94984e-06
-5.83915e-08
8.95924e-06
-5.33258e-08
8.96725e-06
-4.84754e-08
8.97426e-06
-4.39835e-08
8.98054e-06
-3.98474e-08
8.98633e-06
-3.61134e-08
8.99174e-06
-3.27757e-08
-2.97739e-08
8.99689e-06
7.81391e-06
3.96675e-07
7.75391e-06
3.42943e-07
7.76868e-06
1.66441e-07
7.82053e-06
1.14618e-08
7.87567e-06
-7.02731e-08
7.91913e-06
-9.64897e-08
7.94967e-06
-9.78324e-08
7.97057e-06
-9.0646e-08
7.98484e-06
-8.15839e-08
7.99524e-06
-7.35446e-08
8.00315e-06
-6.60993e-08
8.00936e-06
-5.94053e-08
8.01447e-06
-5.33407e-08
8.01888e-06
-4.81966e-08
8.02277e-06
-4.36449e-08
8.02632e-06
-3.96864e-08
8.0297e-06
-3.61721e-08
-3.30432e-08
8.03294e-06
6.90424e-06
5.66768e-07
6.86137e-06
3.85805e-07
6.91716e-06
1.10635e-07
6.99674e-06
-6.81324e-08
7.06253e-06
-1.3607e-07
7.10529e-06
-1.39267e-07
7.13032e-06
-1.22547e-07
7.14447e-06
-1.04613e-07
7.15207e-06
-8.89903e-08
7.15709e-06
-7.57993e-08
7.16036e-06
-6.66639e-08
7.16267e-06
-5.95425e-08
7.16418e-06
-5.41576e-08
7.16556e-06
-4.93353e-08
7.16672e-06
-4.47356e-08
7.16781e-06
-4.0935e-08
7.16893e-06
-3.79427e-08
-3.48191e-08
7.17008e-06
6.07162e-06
7.97662e-07
6.08526e-06
3.72164e-07
6.19865e-06
-2.77304e-09
6.29989e-06
-1.69397e-07
6.36526e-06
-2.01462e-07
6.39754e-06
-1.71502e-07
6.41011e-06
-1.35215e-07
6.41342e-06
-1.06946e-07
6.41239e-06
-8.58041e-08
6.40988e-06
-7.40219e-08
6.40747e-06
-6.44991e-08
6.40484e-06
-5.75684e-08
6.40236e-06
-5.1312e-08
6.40035e-06
-4.66563e-08
6.39832e-06
-4.27986e-08
6.39638e-06
-3.98131e-08
6.39519e-06
-3.7086e-08
-3.40387e-08
6.39407e-06
5.35805e-06
1.05451e-06
5.50649e-06
2.23717e-07
5.64777e-06
-1.44085e-07
5.73564e-06
-2.57314e-07
5.77646e-06
-2.42346e-07
5.78324e-06
-1.78422e-07
5.77527e-06
-1.26642e-07
5.76328e-06
-9.40032e-08
5.74976e-06
-7.56659e-08
5.7393e-06
-6.39744e-08
5.73027e-06
-5.65163e-08
5.72232e-06
-4.99519e-08
5.71443e-06
-4.45991e-08
5.70773e-06
-4.03726e-08
5.70175e-06
-3.68374e-08
5.69627e-06
-3.37518e-08
5.69188e-06
-3.27814e-08
-3.02404e-08
5.68746e-06
5.04576e-06
1.01105e-06
5.36491e-06
-9.54498e-08
5.35251e-06
-1.31767e-07
5.33285e-06
-2.37745e-07
5.29601e-06
-2.0565e-07
5.25017e-06
-1.32586e-07
5.20891e-06
-8.47335e-08
5.17485e-06
-6.08231e-08
5.14637e-06
-4.98275e-08
5.12484e-06
-4.29027e-08
5.1067e-06
-3.93263e-08
5.09045e-06
-3.56379e-08
5.07518e-06
-3.14557e-08
5.06204e-06
-2.77453e-08
5.05041e-06
-2.46985e-08
5.03896e-06
-2.20069e-08
5.02941e-06
-2.3096e-08
-2.11697e-08
5.02147e-06
5.4676e-06
5.37215e-06
5.24037e-06
5.00261e-06
4.79695e-06
4.66444e-06
4.57967e-06
4.51836e-06
4.46848e-06
4.4254e-06
4.38573e-06
4.3496e-06
4.31799e-06
4.29033e-06
4.26573e-06
4.24378e-06
4.22101e-06
4.20041e-06
2.31289e-08
-2.31307e-08
2.37205e-07
-2.14081e-07
4.8933e-07
-2.52095e-07
7.09595e-07
-2.20245e-07
8.7731e-07
-1.67696e-07
9.88438e-07
-1.11119e-07
1.0441e-06
-5.56524e-08
1.04652e-06
-2.42277e-09
1.00102e-06
4.5511e-08
9.17746e-07
8.32649e-08
8.11949e-07
1.05807e-07
7.02762e-07
1.09171e-07
6.09981e-07
9.2776e-08
5.43694e-07
6.6295e-08
4.92551e-07
5.11611e-08
4.33368e-07
5.98822e-08
3.47058e-07
8.61702e-08
2.21952e-07
1.25875e-07
4.36418e-08
1.77892e-07
-2.0183e-07
2.44839e-07
-5.0437e-07
3.02283e-07
-8.45363e-07
3.40741e-07
-1.2097e-06
3.64348e-07
-1.5871e-06
3.77407e-07
-1.9687e-06
3.8164e-07
-2.34453e-06
3.7585e-07
-2.70656e-06
3.62057e-07
-3.04964e-06
3.43087e-07
-3.36993e-06
3.20304e-07
-3.6651e-06
2.95176e-07
-3.93428e-06
2.69192e-07
-4.1778e-06
2.43525e-07
-4.39668e-06
2.18884e-07
-4.59241e-06
1.95722e-07
-4.76667e-06
1.74267e-07
-4.92127e-06
1.54601e-07
-5.05796e-06
1.36685e-07
-5.17836e-06
1.204e-07
-5.28394e-06
1.05588e-07
-5.37601e-06
9.20673e-08
-5.45567e-06
7.96559e-08
-5.52385e-06
6.81816e-08
-5.58134e-06
5.7489e-08
-5.62878e-06
4.74441e-08
-5.66672e-06
3.7938e-08
-5.69561e-06
2.88834e-08
-5.71581e-06
2.02089e-08
-5.7277e-06
1.18847e-08
-5.73174e-06
4.0388e-09
-5.7288e-06
-2.94066e-09
-5.71996e-06
-8.83902e-09
-5.70599e-06
-1.39656e-08
-5.68731e-06
-1.86819e-08
-5.66416e-06
-2.31493e-08
-5.63672e-06
-2.74459e-08
-5.60512e-06
-3.15996e-08
-5.56949e-06
-3.56254e-08
-5.52996e-06
-3.95301e-08
-5.48665e-06
-4.33146e-08
-5.43967e-06
-4.6978e-08
-5.38915e-06
-5.05176e-08
-5.33522e-06
-5.393e-08
-5.27801e-06
-5.72118e-08
-5.21765e-06
-6.03597e-08
-5.15428e-06
-6.33712e-08
-5.08804e-06
-6.62432e-08
-5.01907e-06
-6.89722e-08
-4.94751e-06
-7.15561e-08
-4.87352e-06
-7.3993e-08
-4.79724e-06
-7.62818e-08
-4.71881e-06
-7.84218e-08
-4.6384e-06
-8.04126e-08
-4.55615e-06
-8.22544e-08
-4.4722e-06
-8.3948e-08
-4.38671e-06
-8.54946e-08
-4.29981e-06
-8.68959e-08
-4.21166e-06
-8.81539e-08
-4.12239e-06
-8.92712e-08
-4.03213e-06
-9.02509e-08
-3.94104e-06
-9.10964e-08
-3.84923e-06
-9.18115e-08
-3.75683e-06
-9.24006e-08
-3.66396e-06
-9.28685e-08
-3.57074e-06
-9.3221e-08
-3.47727e-06
-9.34641e-08
-3.38367e-06
-9.36051e-08
-3.29002e-06
-9.36525e-08
-3.1964e-06
-9.36167e-08
-3.10289e-06
-9.35107e-08
-3.00954e-06
-9.33504e-08
-2.91638e-06
-9.31564e-08
-2.82343e-06
-9.29539e-08
-2.73067e-06
-9.2761e-08
-2.63811e-06
-9.25574e-08
-2.54585e-06
-9.22579e-08
-2.45409e-06
-9.17612e-08
-2.36311e-06
-9.09819e-08
-2.27318e-06
-8.99371e-08
-2.18439e-06
-8.87838e-08
-2.09677e-06
-8.7629e-08
-2.01029e-06
-8.64728e-08
-1.925e-06
-8.52992e-08
-1.84089e-06
-8.41011e-08
-1.75802e-06
-8.28774e-08
-1.67639e-06
-8.16307e-08
-1.59602e-06
-8.03647e-08
-1.51694e-06
-7.90832e-08
-1.43915e-06
-7.77891e-08
-1.36267e-06
-7.64801e-08
-1.28753e-06
-7.51356e-08
-1.21377e-06
-7.37676e-08
-1.14136e-06
-7.24038e-08
-1.07032e-06
-7.10393e-08
-1.00065e-06
-6.96753e-08
-9.32331e-07
-6.83127e-08
-8.65377e-07
-6.69532e-08
-7.99776e-07
-6.55988e-08
-7.35522e-07
-6.42524e-08
-6.72604e-07
-6.29157e-08
-6.11013e-07
-6.15883e-08
-5.5074e-07
-6.02708e-08
-4.91771e-07
-5.8966e-08
-4.34088e-07
-5.76799e-08
-3.77666e-07
-5.64181e-08
-3.22486e-07
-5.51764e-08
-2.68531e-07
-5.39516e-08
-2.15779e-07
-5.27475e-08
-1.64211e-07
-5.15634e-08
-1.13819e-07
-5.03873e-08
-6.45946e-08
-4.92193e-08
-1.66602e-08
-4.79293e-08
3.01162e-08
-4.67713e-08
7.60418e-08
-4.59207e-08
1.2101e-07
-4.49639e-08
1.64919e-07
-4.39042e-08
2.07764e-07
-4.28407e-08
2.49562e-07
-4.17944e-08
2.90344e-07
-4.07778e-08
3.30141e-07
-3.97932e-08
3.68984e-07
-3.88388e-08
4.06901e-07
-3.7913e-08
4.43919e-07
-3.70142e-08
4.80064e-07
-3.61415e-08
5.15362e-07
-3.52941e-08
5.49837e-07
-3.44718e-08
5.83514e-07
-3.36738e-08
6.16415e-07
-3.29004e-08
6.48567e-07
-3.2151e-08
6.79993e-07
-3.1426e-08
7.10717e-07
-3.07248e-08
7.40764e-07
-3.00477e-08
7.70159e-07
-2.93945e-08
7.98924e-07
-2.87655e-08
8.27084e-07
-2.81603e-08
8.54663e-07
-2.75793e-08
8.81685e-07
-2.70223e-08
9.08174e-07
-2.64892e-08
9.34154e-07
-2.59796e-08
9.59647e-07
-2.54931e-08
9.84676e-07
-2.50288e-08
1.00926e-06
-2.45856e-08
1.03342e-06
-2.41614e-08
1.05718e-06
-2.37536e-08
1.08054e-06
-2.3358e-08
1.1035e-06
-2.29689e-08
1.12608e-06
-2.25783e-08
1.14826e-06
-2.21747e-08
1.17e-06
-2.17424e-08
1.19126e-06
-2.12593e-08
1.21195e-06
-2.06942e-08
1.23196e-06
-2.0003e-08
1.25108e-06
-1.9122e-08
1.26903e-06
-1.79535e-08
1.28538e-06
-1.63536e-08
1.29943e-06
-1.40468e-08
1.31005e-06
-1.06229e-08
1.31462e-06
-4.55818e-09
1.30777e-06
6.85733e-09
1.27823e-06
2.95373e-08
7.23296e-08
1.20589e-06
2.54185e-07
-2.77338e-07
4.90084e-07
-4.49978e-07
6.39668e-07
-4.01676e-07
7.243e-07
-3.04876e-07
7.63814e-07
-2.07202e-07
7.6976e-07
-1.1707e-07
7.48828e-07
-3.47148e-08
7.06644e-07
3.97516e-08
6.46284e-07
1.05876e-07
5.67656e-07
1.61883e-07
4.70041e-07
2.03428e-07
3.51769e-07
2.2743e-07
2.06805e-07
2.37746e-07
2.36037e-08
2.49511e-07
-2.08617e-07
2.83388e-07
-4.94264e-07
3.45621e-07
-8.32228e-07
4.24223e-07
-1.21209e-06
5.05751e-07
-1.61591e-06
5.81668e-07
-2.01735e-06
6.46225e-07
-2.40737e-06
6.92256e-07
-2.78284e-06
7.16203e-07
-3.13779e-06
7.1929e-07
-3.46521e-06
7.04833e-07
-3.75997e-06
6.76405e-07
-4.02111e-06
6.36998e-07
-4.24905e-06
5.89999e-07
-4.44506e-06
5.39103e-07
-4.61205e-06
4.87299e-07
-4.75353e-06
4.36661e-07
-4.87288e-06
3.88537e-07
-4.97325e-06
3.43901e-07
-5.05753e-06
3.03168e-07
-5.12823e-06
2.66423e-07
-5.18747e-06
2.33505e-07
-5.23698e-06
2.04111e-07
-5.27817e-06
1.77871e-07
-5.31216e-06
1.54394e-07
-5.33987e-06
1.33297e-07
-5.36203e-06
1.1423e-07
-5.37926e-06
9.6881e-08
-5.39206e-06
8.09845e-08
-5.40089e-06
6.63184e-08
-5.40615e-06
5.27011e-08
-5.4082e-06
3.99857e-08
-5.40737e-06
2.80572e-08
-5.404e-06
1.68379e-08
-5.39841e-06
6.29304e-09
-5.39075e-06
-3.6215e-09
-5.38059e-06
-1.30954e-08
-5.36706e-06
-2.23689e-08
-5.34956e-06
-3.1471e-08
-5.3279e-06
-4.03361e-08
-5.30209e-06
-4.89605e-08
-5.27219e-06
-5.73512e-08
-5.23827e-06
-6.55142e-08
-5.20045e-06
-7.34524e-08
-5.15881e-06
-8.11652e-08
-5.11348e-06
-8.86494e-08
-5.06456e-06
-9.58994e-08
-5.01216e-06
-1.02908e-07
-4.95643e-06
-1.09669e-07
-4.89747e-06
-1.16172e-07
-4.83541e-06
-1.22413e-07
-4.7704e-06
-1.28385e-07
-4.70256e-06
-1.34082e-07
-4.63204e-06
-1.39498e-07
-4.55897e-06
-1.44626e-07
-4.48349e-06
-1.49464e-07
-4.40577e-06
-1.54011e-07
-4.32593e-06
-1.58263e-07
-4.24412e-06
-1.62221e-07
-4.16049e-06
-1.65884e-07
-4.07518e-06
-1.69255e-07
-3.98834e-06
-1.72335e-07
-3.90011e-06
-1.75128e-07
-3.81062e-06
-1.77638e-07
-3.72003e-06
-1.79871e-07
-3.62845e-06
-1.81831e-07
-3.53602e-06
-1.83527e-07
-3.44286e-06
-1.84965e-07
-3.34911e-06
-1.86153e-07
-3.25488e-06
-1.87102e-07
-3.16028e-06
-1.8782e-07
-3.06542e-06
-1.88319e-07
-2.97042e-06
-1.88611e-07
-2.87536e-06
-1.88706e-07
-2.78036e-06
-1.88619e-07
-2.68551e-06
-1.88362e-07
-2.59091e-06
-1.87948e-07
-2.49668e-06
-1.87388e-07
-2.40294e-06
-1.86691e-07
-2.30985e-06
-1.8585e-07
-2.21757e-06
-1.84838e-07
-2.12622e-06
-1.8361e-07
-2.03585e-06
-1.82138e-07
-1.94641e-06
-1.80418e-07
-1.85786e-06
-1.7849e-07
-1.77021e-06
-1.76432e-07
-1.68354e-06
-1.74297e-07
-1.59792e-06
-1.72098e-07
-1.51338e-06
-1.69837e-07
-1.42997e-06
-1.67515e-07
-1.34771e-06
-1.65136e-07
-1.26664e-06
-1.62705e-07
-1.18677e-06
-1.60227e-07
-1.10815e-06
-1.57709e-07
-1.03078e-06
-1.55154e-07
-9.547e-07
-1.52563e-07
-8.79898e-07
-1.49937e-07
-8.06376e-07
-1.47289e-07
-7.34147e-07
-1.44632e-07
-6.63215e-07
-1.41971e-07
-5.93582e-07
-1.39308e-07
-5.25247e-07
-1.36647e-07
-4.58208e-07
-1.33991e-07
-3.92462e-07
-1.31344e-07
-3.28004e-07
-1.28709e-07
-2.64823e-07
-1.26095e-07
-2.02908e-07
-1.23501e-07
-1.42253e-07
-1.20925e-07
-8.28435e-08
-1.18373e-07
-2.46743e-08
-1.15847e-07
3.22687e-08
-1.13359e-07
8.80136e-08
-1.10919e-07
1.42578e-07
-1.08514e-07
1.95971e-07
-1.06139e-07
2.4821e-07
-1.038e-07
2.9932e-07
-1.01496e-07
3.49332e-07
-9.92289e-08
3.98403e-07
-9.69982e-08
4.46507e-07
-9.48734e-08
4.93427e-07
-9.28392e-08
5.39232e-07
-9.07664e-08
5.83998e-07
-8.86685e-08
6.27758e-07
-8.65983e-08
6.7054e-07
-8.45749e-08
7.12369e-07
-8.26052e-08
7.53268e-07
-8.06904e-08
7.9326e-07
-7.88293e-08
8.3237e-07
-7.70202e-08
8.70619e-07
-7.52617e-08
9.08032e-07
-7.35525e-08
9.44632e-07
-7.18917e-08
9.8044e-07
-7.02789e-08
1.01548e-06
-6.87136e-08
1.04978e-06
-6.71955e-08
1.08335e-06
-6.57245e-08
1.11623e-06
-6.43005e-08
1.14842e-06
-6.29233e-08
1.17997e-06
-6.15929e-08
1.21088e-06
-6.03092e-08
1.24119e-06
-5.90723e-08
1.27091e-06
-5.78823e-08
1.30007e-06
-5.6739e-08
1.32869e-06
-5.56421e-08
1.35679e-06
-5.45915e-08
1.3844e-06
-5.35861e-08
1.41153e-06
-5.2625e-08
1.43821e-06
-5.17063e-08
1.46445e-06
-5.08274e-08
1.49028e-06
-4.99843e-08
1.5157e-06
-4.91717e-08
1.54072e-06
-4.83813e-08
1.56535e-06
-4.76024e-08
1.5896e-06
-4.68196e-08
1.61343e-06
-4.60114e-08
1.63684e-06
-4.51485e-08
1.65977e-06
-4.41897e-08
1.68215e-06
-4.30776e-08
1.70388e-06
-4.17305e-08
1.72479e-06
-4.00302e-08
1.74463e-06
-3.78003e-08
1.76305e-06
-3.47712e-08
1.77949e-06
-3.04822e-08
1.79305e-06
-2.4181e-08
1.80277e-06
-1.42736e-08
1.80763e-06
1.99756e-09
1.80575e-06
3.14239e-08
8.80313e-08
1.79004e-06
2.46008e-07
-5.23367e-07
3.42321e-07
-5.46295e-07
3.58608e-07
-4.17961e-07
3.47564e-07
-2.93822e-07
3.19861e-07
-1.79494e-07
2.75778e-07
-7.29861e-08
2.14601e-07
2.64643e-08
1.3528e-07
1.19068e-07
3.67533e-08
2.04403e-07
-8.31419e-08
2.81774e-07
-2.30111e-07
3.50396e-07
-4.14674e-07
4.11993e-07
-6.50241e-07
4.7331e-07
-9.43732e-07
5.43005e-07
-1.28499e-06
6.24638e-07
-1.65208e-06
7.12721e-07
-2.02419e-06
7.96326e-07
-2.38444e-06
8.65993e-07
-2.71895e-06
9.16162e-07
-3.01717e-06
9.44432e-07
-3.27524e-06
9.5032e-07
-3.49413e-06
9.35101e-07
-3.67683e-06
9.01999e-07
-3.82739e-06
8.55397e-07
-3.95053e-06
7.99546e-07
-4.05166e-06
7.38131e-07
-4.13611e-06
6.74452e-07
-4.20828e-06
6.11269e-07
-4.27159e-06
5.50614e-07
-4.32867e-06
4.93739e-07
-4.38139e-06
4.41254e-07
-4.43087e-06
3.9339e-07
-4.47777e-06
3.50065e-07
-4.52234e-06
3.10997e-07
-4.56463e-06
2.75795e-07
-4.60454e-06
2.4402e-07
-4.64191e-06
2.15233e-07
-4.67653e-06
1.89017e-07
-4.70823e-06
1.64995e-07
-4.73684e-06
1.42838e-07
-4.76222e-06
1.22262e-07
-4.78426e-06
1.03029e-07
-4.80288e-06
8.49418e-08
-4.81802e-06
6.78347e-08
-4.8296e-06
5.1568e-08
-4.83757e-06
3.60226e-08
-4.84182e-06
2.10966e-08
-4.84223e-06
6.6962e-09
-4.83856e-06
-7.28527e-09
-4.8307e-06
-2.09621e-08
-4.81867e-06
-3.4394e-08
-4.80258e-06
-4.75685e-08
-4.78245e-06
-6.04634e-08
-4.75834e-06
-7.30701e-08
-4.73031e-06
-8.53825e-08
-4.69843e-06
-9.73945e-08
-4.66278e-06
-1.09099e-07
-4.62346e-06
-1.20488e-07
-4.58056e-06
-1.31551e-07
-4.53418e-06
-1.42277e-07
-4.48443e-06
-1.52653e-07
-4.43144e-06
-1.62666e-07
-4.37531e-06
-1.72302e-07
-4.31617e-06
-1.81552e-07
-4.25415e-06
-1.90407e-07
-4.18937e-06
-1.98858e-07
-4.12198e-06
-2.06892e-07
-4.0521e-06
-2.14503e-07
-3.97988e-06
-2.21686e-07
-3.90545e-06
-2.28436e-07
-3.82896e-06
-2.34752e-07
-3.75055e-06
-2.40632e-07
-3.67036e-06
-2.46076e-07
-3.58853e-06
-2.51086e-07
-3.5052e-06
-2.55666e-07
-3.42051e-06
-2.59819e-07
-3.33459e-06
-2.63553e-07
-3.24759e-06
-2.66873e-07
-3.15963e-06
-2.69789e-07
-3.07085e-06
-2.7231e-07
-2.98137e-06
-2.74447e-07
-2.89131e-06
-2.76211e-07
-2.80079e-06
-2.77615e-07
-2.70994e-06
-2.78672e-07
-2.61886e-06
-2.79397e-07
-2.52767e-06
-2.79803e-07
-2.43647e-06
-2.79906e-07
-2.34537e-06
-2.79721e-07
-2.25447e-06
-2.79262e-07
-2.16388e-06
-2.78542e-07
-2.07369e-06
-2.77573e-07
-1.98402e-06
-2.7636e-07
-1.89497e-06
-2.74903e-07
-1.80662e-06
-2.73189e-07
-1.71903e-06
-2.71203e-07
-1.63222e-06
-2.68942e-07
-1.54622e-06
-2.66423e-07
-1.46103e-06
-2.6368e-07
-1.3767e-06
-2.60761e-07
-1.2933e-06
-2.577e-07
-1.21088e-06
-2.54517e-07
-1.12949e-06
-2.51224e-07
-1.04917e-06
-2.47831e-07
-9.69962e-07
-2.44348e-07
-8.91883e-07
-2.40784e-07
-8.14964e-07
-2.37147e-07
-7.39228e-07
-2.33446e-07
-6.64694e-07
-2.29688e-07
-5.91376e-07
-2.25881e-07
-5.1928e-07
-2.22032e-07
-4.48415e-07
-2.18154e-07
-3.78791e-07
-2.14257e-07
-3.10413e-07
-2.10348e-07
-2.43284e-07
-2.06437e-07
-1.77403e-07
-2.02527e-07
-1.1277e-07
-1.98624e-07
-4.93797e-08
-1.94733e-07
1.27739e-08
-1.90862e-07
7.3695e-08
-1.87016e-07
1.33392e-07
-1.83197e-07
1.91877e-07
-1.79409e-07
2.49163e-07
-1.75658e-07
3.05266e-07
-1.71949e-07
3.60197e-07
-1.68289e-07
4.13962e-07
-1.64683e-07
4.66577e-07
-1.61128e-07
5.18062e-07
-1.57623e-07
5.68436e-07
-1.54173e-07
6.17722e-07
-1.5078e-07
6.65948e-07
-1.47454e-07
7.13158e-07
-1.44207e-07
7.59334e-07
-1.41048e-07
8.04442e-07
-1.37946e-07
8.48531e-07
-1.34854e-07
8.91645e-07
-1.31782e-07
9.33807e-07
-1.28759e-07
9.75036e-07
-1.25803e-07
1.01535e-06
-1.22919e-07
1.05477e-06
-1.20108e-07
1.09331e-06
-1.17373e-07
1.13101e-06
-1.1471e-07
1.16787e-06
-1.1212e-07
1.20392e-06
-1.09601e-07
1.23918e-06
-1.07152e-07
1.27367e-06
-1.04774e-07
1.30743e-06
-1.02465e-07
1.34046e-06
-1.00225e-07
1.37279e-06
-9.8055e-08
1.40444e-06
-9.59536e-08
1.43544e-06
-9.3921e-08
1.4658e-06
-9.19572e-08
1.49555e-06
-9.00622e-08
1.52472e-06
-8.82361e-08
1.55331e-06
-8.64789e-08
1.58137e-06
-8.47903e-08
1.60889e-06
-8.317e-08
1.63592e-06
-8.16174e-08
1.66246e-06
-8.01313e-08
1.68855e-06
-7.87101e-08
1.71419e-06
-7.73511e-08
1.73942e-06
-7.60505e-08
1.76424e-06
-7.48025e-08
1.78866e-06
-7.35994e-08
1.81271e-06
-7.24297e-08
1.83639e-06
-7.12781e-08
1.85969e-06
-7.01226e-08
1.88261e-06
-6.89336e-08
1.90513e-06
-6.76695e-08
1.92722e-06
-6.62732e-08
1.94881e-06
-6.46646e-08
1.96981e-06
-6.27304e-08
1.99008e-06
-6.0308e-08
2.00944e-06
-5.71566e-08
2.02758e-06
-5.29131e-08
2.04408e-06
-4.69868e-08
2.05834e-06
-3.84379e-08
2.06958e-06
-2.55067e-08
2.07692e-06
-5.34951e-09
2.08082e-06
2.75219e-08
8.54918e-08
2.08336e-06
9.37331e-08
-6.1711e-07
6.23887e-08
-5.14964e-07
1.39047e-08
-3.69469e-07
-4.31873e-08
-2.36723e-07
-1.12685e-07
-1.0999e-07
-1.98058e-07
1.23906e-08
-3.0229e-07
1.30698e-07
-4.27797e-07
2.44574e-07
-5.77156e-07
3.5376e-07
-7.53749e-07
4.58367e-07
-9.62335e-07
5.58979e-07
-1.20723e-06
6.56887e-07
-1.48722e-06
7.53296e-07
-1.79151e-06
8.47289e-07
-2.10139e-06
9.34516e-07
-2.39725e-06
1.00856e-06
-2.66458e-06
1.06365e-06
-2.89513e-06
1.09653e-06
-3.08563e-06
1.10665e-06
-3.23689e-06
1.09569e-06
-3.35326e-06
1.0667e-06
-3.4413e-06
1.02315e-06
-3.50812e-06
9.6882e-07
-3.56023e-06
9.07516e-07
-3.60313e-06
8.42448e-07
-3.64124e-06
7.76247e-07
-3.67782e-06
7.11026e-07
-3.71488e-06
6.48335e-07
-3.75345e-06
5.89175e-07
-3.79377e-06
5.34068e-07
-3.83569e-06
4.83166e-07
-3.87869e-06
4.36392e-07
-3.92213e-06
3.93512e-07
-3.96534e-06
3.54205e-07
-4.00766e-06
3.1811e-07
-4.04849e-06
2.84855e-07
-4.08735e-06
2.54085e-07
-4.1238e-06
2.25466e-07
-4.1575e-06
1.98701e-07
-4.18819e-06
1.73523e-07
-4.21563e-06
1.49705e-07
-4.23965e-06
1.2705e-07
-4.2601e-06
1.05391e-07
-4.27685e-06
8.45867e-08
-4.2898e-06
6.45178e-08
-4.29886e-06
4.50826e-08
-4.30396e-06
2.61948e-08
-4.30504e-06
7.77776e-09
-4.30209e-06
-1.02424e-08
-4.29512e-06
-2.79267e-08
-4.28421e-06
-4.53032e-08
-4.26941e-06
-6.23687e-08
-4.25077e-06
-7.91104e-08
-4.22832e-06
-9.55158e-08
-4.20213e-06
-1.11571e-07
-4.17226e-06
-1.27263e-07
-4.13879e-06
-1.42574e-07
-4.10179e-06
-1.57489e-07
-4.06135e-06
-1.7199e-07
-4.01757e-06
-1.86058e-07
-3.97055e-06
-1.99676e-07
-3.92039e-06
-2.12825e-07
-3.8672e-06
-2.25486e-07
-3.81111e-06
-2.37641e-07
-3.75224e-06
-2.49282e-07
-3.69071e-06
-2.60393e-07
-3.62664e-06
-2.7096e-07
-3.56017e-06
-2.80974e-07
-3.49143e-06
-2.90427e-07
-3.42055e-06
-2.99313e-07
-3.34767e-06
-3.07628e-07
-3.27293e-06
-3.15371e-07
-3.19647e-06
-3.22542e-07
-3.11841e-06
-3.29142e-07
-3.0389e-06
-3.35177e-07
-2.95807e-06
-3.4065e-07
-2.87605e-06
-3.45571e-07
-2.79298e-06
-3.49948e-07
-2.70898e-06
-3.53791e-07
-2.62418e-06
-3.57113e-07
-2.53869e-06
-3.59928e-07
-2.45266e-06
-3.62249e-07
-2.36618e-06
-3.64093e-07
-2.27938e-06
-3.65476e-07
-2.19236e-06
-3.66414e-07
-2.10523e-06
-3.66927e-07
-2.01811e-06
-3.67032e-07
-1.93108e-06
-3.66746e-07
-1.84426e-06
-3.66086e-07
-1.75773e-06
-3.6507e-07
-1.67159e-06
-3.63709e-07
-1.58594e-06
-3.62017e-07
-1.50084e-06
-3.59998e-07
-1.41638e-06
-3.57655e-07
-1.33259e-06
-3.54991e-07
-1.24952e-06
-3.52014e-07
-1.1672e-06
-3.48745e-07
-1.08566e-06
-3.45215e-07
-1.00497e-06
-3.41458e-07
-9.2516e-07
-3.37507e-07
-8.46294e-07
-3.33383e-07
-7.68413e-07
-3.29106e-07
-6.91554e-07
-3.2469e-07
-6.15752e-07
-3.20151e-07
-5.41035e-07
-3.15501e-07
-4.67428e-07
-3.10754e-07
-3.94953e-07
-3.0592e-07
-3.23629e-07
-3.01012e-07
-2.53468e-07
-2.96041e-07
-1.84481e-07
-2.91019e-07
-1.16678e-07
-2.85957e-07
-5.00658e-08
-2.80868e-07
1.53492e-08
-2.75763e-07