/*--------------------------------*- C++ -*----------------------------------*\
  =========                 |
  \\      /  F ield         | OpenFOAM: The Open Source CFD Toolbox
   \\    /   O peration     | Website:  https://openfoam.org
    \\  /    A nd           | Version:  8
     \\/     M anipulation  |
\*---------------------------------------------------------------------------*/
FoamFile
{
    version     2.0;
    format      ascii;
    class       volScalarField;
    location    "3000";
    object      nut;
}
// * * * * * * * * * * * * * * * * * * * * * * * * * * * * * * * * * * * * * //

dimensions      [0 2 -1 0 0 0 0];

internalField   nonuniform List<scalar> 
12225
(
0.0122671
0.00158819
0.000666129
0.000410105
0.000294025
0.00022806
0.000183261
0.000170805
0.000132697
0.000106844
9.46734e-05
8.80085e-05
7.89856e-05
7.22329e-05
6.77318e-05
6.45069e-05
6.12102e-05
6.46333e-05
0.0323823
0.00744532
0.00330638
0.00204329
0.00146801
0.0011445
0.000936338
0.000799975
0.000679511
0.000577234
0.000506286
0.000452432
0.000410539
0.000378806
0.000350181
0.000327766
0.000311172
0.000292817
0.0490123
0.01515
0.00728196
0.00457854
0.00330639
0.00258054
0.00211233
0.00178913
0.00154181
0.00134762
0.00119772
0.0010787
0.000982056
0.000902481
0.000835978
0.000780908
0.000735546
0.000687169
0.063054
0.0237783
0.0122894
0.00788814
0.00573397
0.00448498
0.00367412
0.00310733
0.00268471
0.00235805
0.00210111
0.00189458
0.0017253
0.0015845
0.00146613
0.00136604
0.00128146
0.00119789
0.074932
0.0328517
0.0181452
0.0119262
0.00874548
0.00686412
0.0056308
0.00476254
0.00411748
0.00362029
0.00322731
0.00290992
0.00264899
0.00243143
0.00224799
0.00209188
0.00195826
0.00183626
0.0849536
0.0420208
0.0246655
0.0166359
0.0123325
0.00972587
0.00799539
0.00676785
0.00585345
0.00514769
0.00458844
0.00413587
0.00376334
0.00345239
0.00318983
0.00296596
0.0027736
0.00260471
0.0933822
0.0510219
0.0316642
0.0219415
0.016474
0.0130717
0.0107778
0.00913551
0.0079057
0.0069534
0.0061969
0.00558367
0.00507837
0.00465632
0.00429976
0.0039956
0.00373414
0.00350818
0.0993794
0.0583363
0.0378386
0.0268568
0.0204171
0.0163053
0.0134891
0.011453
0.00991891
0.00872629
0.00777635
0.00700497
0.00636866
0.00583685
0.0053874
0.00500397
0.00467451
0.00439126
0.104023
0.0645454
0.0433804
0.0314239
0.0241571
0.0194092
0.0161097
0.0137018
0.0118766
0.0104521
0.00931443
0.00838904
0.00762485
0.00698574
0.00644544
0.00598449
0.00558858
0.00524877
0.108368
0.0708939
0.0493756
0.0365496
0.0284517
0.0230231
0.0191863
0.0163547
0.0141926
0.0124968
0.011138
0.0100303
0.00911434
0.00834759
0.0076991
0.00714578
0.00667068
0.00626297
0.112368
0.0772557
0.0557282
0.0421918
0.0332976
0.0271652
0.0227467
0.0194432
0.0168984
0.0148903
0.0132749
0.0119544
0.0108605
0.00994378
0.00916796
0.00850585
0.00793735
0.00744914
0.115994
0.0834975
0.0623053
0.0482611
0.0386474
0.0318167
0.026789
0.0229739
0.0200046
0.0176452
0.0157378
0.0141736
0.0128749
0.011785
0.0108618
0.0100736
0.0093967
0.00881464
0.119234
0.0894856
0.0689377
0.0546109
0.0443919
0.0369007
0.0312597
0.0269088
0.0234836
0.02074
0.0185096
0.0166735
0.0151449
0.01386
0.0127704
0.0118396
0.0110397
0.0103508
0.122086
0.095084
0.075415
0.0610223
0.0503361
0.0422534
0.0360231
0.0311353
0.0272402
0.024093
0.021519
0.0193908
0.017614
0.0161174
0.0148466
0.01376
0.0128257
0.0120196
0.124546
0.100135
0.0814619
0.0671725
0.056158
0.047577
0.0408126
0.0354174
0.031066
0.0275196
0.0246012
0.0221777
0.0201481
0.0184349
0.0169782
0.0157314
0.0146583
0.0137311
0.126578
0.104396
0.0866605
0.0725515
0.0613228
0.0523526
0.0451453
0.0393148
0.0345631
0.0306611
0.0274325
0.0247409
0.0224806
0.020569
0.0189413
0.0175468
0.0163454
0.0153061
0.128011
0.107322
0.0902141
0.0762353
0.0648743
0.0556509
0.0481493
0.0420254
0.0370012
0.0328553
0.0294126
0.0265352
0.0241143
0.0220643
0.0203172
0.0188191
0.0175275
0.0164083
0.128006
0.107313
0.0902048
0.0762269
0.0648674
0.0556454
0.048145
0.0420222
0.0369988
0.0328537
0.0294117
0.0265349
0.0241147
0.0220652
0.0203185
0.0188206
0.0175287
0.0164083
0.126509
0.104255
0.0864922
0.0723807
0.0611613
0.052205
0.0450128
0.0391967
0.0344584
0.0305686
0.0273506
0.0246684
0.0224163
0.0205118
0.0188903
0.0175006
0.0163024
0.0152631
0.124267
0.0995604
0.0807712
0.0664676
0.0554886
0.0469631
0.0402594
0.0349228
0.0306248
0.0271258
0.0242488
0.0218611
0.0198626
0.0181762
0.0167426
0.0155152
0.0144575
0.0135405
0.12136
0.0936399
0.0737261
0.0593348
0.0487592
0.0408249
0.0347467
0.0300003
0.0262308
0.0231928
0.0207127
0.018665
0.0169572
0.0155198
0.0142999
0.0132567
0.0123583
0.0115798
0.117686
0.0865903
0.0656967
0.0514791
0.0415374
0.0343608
0.0290184
0.0249322
0.0217348
0.0191848
0.0171184
0.0154211
0.0140106
0.0128263
0.0118229
0.0109657
0.010228
0.00958895
0.11305
0.0784122
0.056921
0.0432687
0.0342296
0.0279652
0.0234365
0.0200435
0.0174263
0.0153597
0.0136966
0.0123369
0.0112106
0.0102671
0.00946866
0.0087872
0.00820102
0.00769347
0.107169
0.0691009
0.0476372
0.035029
0.0271566
0.021922
0.0182437
0.0155401
0.0134817
0.0118706
0.0105816
0.00953197
0.00866487
0.00793966
0.00732669
0.00680379
0.00635414
0.00596495
0.0996761
0.0587036
0.0381279
0.0270699
0.0205782
0.0164329
0.0135949
0.0115438
0.00999922
0.00879908
0.00784341
0.00706756
0.00642791
0.00589357
0.00544228
0.00505735
0.00472645
0.00444012
0.0901097
0.0473665
0.0287363
0.0196847
0.0146976
0.0116312
0.00957853
0.00811528
0.00702332
0.00617994
0.00551057
0.00496792
0.00452116
0.00414809
0.00383332
0.00356447
0.0033337
0.00313394
0.0779076
0.0353826
0.0198606
0.0131383
0.00966107
0.00759298
0.00623352
0.00527429
0.004564
0.00401882
0.00358699
0.00323604
0.00294733
0.00270564
0.00250263
0.00232761
0.00217857
0.00204925
0.06238
0.0232554
0.0119461
0.00765493
0.00556337
0.00435256
0.00356724
0.00301639
0.00261307
0.00230792
0.00206664
0.00186695
0.00170283
0.00156305
0.00144884
0.00134569
0.00125982
0.00118495
0.0426105
0.0117794
0.0054693
0.00341385
0.00246071
0.00192005
0.00157275
0.00132885
0.00115943
0.00103843
0.000944201
0.000857035
0.000786543
0.000717836
0.000672468
0.000622545
0.000573643
0.000540697
0.0168348
0.00255985
0.00110002
0.000683428
0.000493724
0.000386803
0.000318219
0.000266305
0.000272641
0.000321834
0.000355127
0.000335073
0.000307789
0.000243786
0.000288277
0.000268169
0.000194891
0.000220546
3.99403e-09
5.91161e-07
2.0009e-06
6.28941e-06
1.08026e-05
1.35318e-05
1.3257e-05
1.17919e-05
9.0639e-06
5.9479e-06
3.52393e-06
2.02493e-06
1.4099e-06
1.50292e-06
2.0671e-06
2.56605e-06
2.45449e-06
2.06917e-06
2.54292e-06
8.67688e-06
9.0253e-06
5.55446e-06
6.75226e-06
2.65141e-05
5.67532e-05
7.44266e-05
9.098e-05
0.000104828
0.000117048
0.000127209
0.000136113
0.00014376
0.00015045
0.000156277
0.000161359
0.000165845
0.000169819
0.00017337
0.000176552
0.000179411
0.000181976
0.000184269
0.000186309
0.000188112
0.000189693
0.000191064
0.000192236
0.000193216
0.000194005
0.000194477
0.000194975
0.000195083
0.000195145
0.00019502
0.000194721
0.000194276
0.000193677
0.00019293
0.000192036
0.000190998
0.000189817
0.000188495
0.000187035
0.000185439
0.000183711
0.000181851
0.000179862
0.000177744
0.000175502
0.000173138
0.000170652
0.000168049
0.000165329
0.000162493
0.000159544
0.000156482
0.000153306
0.000150018
0.000146615
0.000143096
0.000139458
0.000135698
0.000131812
0.000127795
0.000123639
0.000119336
0.000114873
0.000110235
0.000105402
0.000100348
9.50463e-05
8.94712e-05
8.3615e-05
7.75439e-05
7.15333e-05
6.62509e-05
6.24914e-05
6.01494e-05
5.83968e-05
5.67909e-05
5.52147e-05
5.36463e-05
5.20842e-05
5.05298e-05
4.89852e-05
4.74523e-05
4.59337e-05
4.44358e-05
4.29866e-05
4.17496e-05
4.05456e-05
3.93558e-05
3.81833e-05
3.70287e-05
3.58929e-05
3.47766e-05
3.36807e-05
3.26059e-05
3.15528e-05
3.05218e-05
2.95133e-05
2.85278e-05
2.75658e-05
2.66278e-05
2.57139e-05
2.48239e-05
2.3959e-05
2.31469e-05
2.24127e-05
2.16971e-05
2.09964e-05
2.03191e-05
1.96698e-05
1.90349e-05
1.84138e-05
1.78099e-05
1.7224e-05
1.66563e-05
1.61066e-05
1.55746e-05
1.50599e-05
1.45619e-05
1.40803e-05
1.36147e-05
1.31647e-05
1.27298e-05
1.23096e-05
1.19039e-05
1.15121e-05
1.1134e-05
1.07691e-05
1.04171e-05
1.00777e-05
9.75047e-06
9.43519e-06
9.13154e-06
8.83926e-06
8.55808e-06
8.28779e-06
8.02817e-06
7.77903e-06
7.54019e-06
7.31149e-06
7.09273e-06
6.88371e-06
6.68418e-06
6.49381e-06
6.31219e-06
6.13876e-06
5.97277e-06
5.81343e-06
5.65913e-06
5.50946e-06
5.35945e-06
5.21368e-06
5.04762e-06
4.89363e-06
4.64724e-06
4.48907e-06
3.59398e-06
1.68182e-07
6.14258e-06
6.38832e-05
0.000139687
0.000183242
0.000207006
0.00021638
0.000214886
0.000206541
0.000189837
0.000169044
0.000148909
0.000138496
0.000143711
0.000157681
0.000166604
0.000169023
0.000170206
0.00017561
0.000185312
0.000200068
0.000217507
0.00023434
0.000250843
0.000262143
0.000272047
0.000280862
0.000293708
0.000312804
0.00032675
0.000339493
0.000350418
0.000360347
0.000369446
0.000377346
0.000384559
0.000391274
0.000397715
0.000404015
0.000410238
0.000416381
0.000422399
0.000428241
0.000433865
0.000439245
0.000444362
0.000449202
0.000453752
0.000458015
0.000461988
0.000465713
0.000469155
0.000472353
0.000475294
0.000477985
0.000480427
0.00048262
0.000484566
0.000486264
0.000487714
0.000488918
0.000489877
0.000490593
0.00049107
0.000491318
0.000491343
0.000491139
0.000490702
0.000490049
0.000489183
0.000488111
0.000486839
0.000485374
0.000483722
0.000481891
0.000479888
0.00047772
0.000475394
0.000472919
0.000470301
0.00046755
0.000464671
0.000461674
0.000458566
0.000455357
0.000452053
0.000448664
0.000445198
0.000441662
0.000438065
0.000434413
0.00043071
0.000426958
0.000423148
0.000419261
0.000415272
0.000411163
0.000406963
0.000402722
0.000398465
0.0003942
0.000389931
0.000385661
0.000381393
0.000377132
0.00037288
0.00036864
0.000364415
0.000360205
0.000356006
0.00035183
0.000347682
0.000343563
0.000339476
0.000335421
0.0003314
0.000327416
0.00032347
0.000319562
0.000315695
0.000311868
0.000308083
0.000304341
0.000300643
0.00029699
0.000293382
0.000289818
0.000286297
0.000282818
0.000279383
0.000275992
0.000272653
0.000269366
0.000266116
0.000262902
0.000259729
0.0002566
0.000253516
0.000250476
0.000247482
0.000244532
0.000241625
0.000238761
0.00023594
0.00023316
0.000230422
0.000227724
0.000225066
0.000222449
0.00021987
0.000217331
0.000214831
0.000212369
0.000209946
0.000207561
0.000205216
0.000202909
0.000200643
0.000198417
0.000196233
0.000194092
0.000191996
0.000189946
0.000187945
0.000185993
0.000184093
0.000182246
0.000180452
0.00017871
0.000177018
0.000175372
0.000173773
0.000172194
0.00017068
0.000169069
0.000167746
0.000165614
0.000164898
0.000162091
0.000160717
7.68622e-07
4.45422e-05
0.00016429
0.000246525
0.000299859
0.00033018
0.000341218
0.000338349
0.000325516
0.000306241
0.000286466
0.000273744
0.000271484
0.000278166
0.000288523
0.000299354
0.000312116
0.000329071
0.000350671
0.000375834
0.000403224
0.00043158
0.000469795
0.000516182
0.000561837
0.000605994
0.000649097
0.00069277
0.00073211
0.000763401
0.00078841
0.000808235
0.00082395
0.000836419
0.000846424
0.00085474
0.00086207
0.000869056
0.000876237
0.000883968
0.000892357
0.00090128
0.000910498
0.000919775
0.000928933
0.000937852
0.000946456
0.000954698
0.00096254
0.000969955
0.000976921
0.000983407
0.000989411
0.000994927
0.000999951
0.00100448
0.00100853
0.00101207
0.00101513
0.00101769
0.00101976
0.00102134
0.00102242
0.00102296
0.00102312
0.00102284
0.00102204
0.0010208
0.00101911
0.00101699
0.00101446
0.00101151
0.00100818
0.00100446
0.00100038
0.00099595
0.000991183
0.000986095
0.000980702
0.000975017
0.000969057
0.000962836
0.00095637
0.000949674
0.000942763
0.000935651
0.000928354
0.000920886
0.000913261
0.000905491
0.000897589
0.000889565
0.00088143
0.000873191
0.000864857
0.000856436
0.000847943
0.000839392
0.0008308
0.00082218
0.000813543
0.000804897
0.000796252
0.000787614
0.000778991
0.000770389
0.000761815
0.000753275
0.000744775
0.00073632
0.000727916
0.000719568
0.000711281
0.000703059
0.000694905
0.000686823
0.000678815
0.000670886
0.000663037
0.000655271
0.000647589
0.000639995
0.000632488
0.000625072
0.000617748
0.000610515
0.000603375
0.000596328
0.000589375
0.000582515
0.000575751
0.000569081
0.000562505
0.000556016
0.000549613
0.000543299
0.000537076
0.000530945
0.000524905
0.000518956
0.000513097
0.000507327
0.000501645
0.00049605
0.000490541
0.000485117
0.000479776
0.000474518
0.000469341
0.000464244
0.000459227
0.000454287
0.000449425
0.000444638
0.000439926
0.000435287
0.000430721
0.000426226
0.000421801
0.000417445
0.000413156
0.000408933
0.000404774
0.000400677
0.000396639
0.000392657
0.000388727
0.000384843
0.000380999
0.000377186
0.000373392
0.000369603
0.000365794
0.000361946
0.000357986
0.000353945
0.000349463
0.000345069
0.000338578
0.000327118
5.07094e-07
8.12907e-05
0.000212973
0.000309207
0.00037299
0.000410402
0.000425975
0.000426365
0.000416353
0.000402949
0.000394793
0.000393957
0.000403185
0.000420398
0.000443154
0.000470909
0.000504263
0.000543574
0.000588032
0.000650271
0.000724136
0.000803928
0.000888191
0.000958852
0.00102128
0.00107741
0.00112782
0.00117273
0.00121199
0.00124588
0.00127512
0.00130045
0.00132257
0.00134211
0.00135965
0.00137567
0.0013906
0.00140476
0.00141843
0.00143178
0.00144494
0.00145799
0.00147096
0.00148381
0.00149651
0.00150897
0.0015211
0.0015328
0.00154399
0.00155459
0.00156454
0.00157382
0.00158239
0.00159025
0.00159739
0.0016038
0.00160947
0.00161441
0.00161861
0.00162207
0.0016248
0.00162677
0.00162793
0.00162837
0.00162824
0.00162733
0.0016257
0.00162338
0.00162039
0.00161673
0.00161243
0.00160751
0.00160199
0.00159589
0.00158923
0.00158204
0.00157433
0.00156613
0.00155747
0.00154836
0.00153883
0.0015289
0.0015186
0.00150794
0.00149696
0.00148567
0.00147409
0.00146226
0.00145018
0.00143788
0.00142538
0.0014127
0.00139985
0.00138685
0.00137372
0.00136047
0.00134712
0.00133369
0.0013202
0.00130666
0.0012931
0.00127953
0.00126596
0.0012524
0.00123886
0.00122536
0.0012119
0.0011985
0.00118516
0.00117189
0.0011587
0.0011456
0.00113259
0.00111969
0.00110689
0.0010942
0.00108163
0.00106918
0.00105685
0.00104466
0.00103259
0.00102066
0.00100887
0.000997215
0.000985702
0.000974332
0.000963106
0.000952024
0.000941087
0.000930297
0.000919653
0.000909155
0.000898799
0.000888584
0.000878506
0.000868568
0.000858771
0.000849115
0.000839599
0.000830223
0.000820987
0.000811888
0.000802925
0.000794097
0.000785401
0.000776837
0.000768402
0.000760094
0.000751912
0.000743855
0.000735919
0.000728104
0.000720407
0.000712827
0.000705362
0.00069801
0.000690769
0.000683637
0.000676612
0.000669693
0.000662875
0.000656158
0.000649537
0.00064301
0.000636573
0.000630219
0.000623944
0.00061774
0.000611597
0.000605503
0.000599441
0.000593391
0.000587322
0.000581198
0.000574954
0.000568534
0.000561757
0.000554564
0.000546321
0.000530129
1.49348e-06
0.00010206
0.000235126
0.000355063
0.000433978
0.000481486
0.000505123
0.000513592
0.000515166
0.000516154
0.000523035
0.000539198
0.000565257
0.000600245
0.000643373
0.000694658
0.000754745
0.000838166
0.00093384
0.00103006
0.00111907
0.00120346
0.00128281
0.00135551
0.00142227
0.00148368
0.00154015
0.001592
0.0016396
0.00168337
0.0017238
0.00176137
0.0017965
0.00182958
0.00186092
0.00189076
0.0019193
0.00194669
0.00197302
0.00199835
0.00202271
0.00204611
0.00206856
0.00209002
0.00211049
0.00212992
0.00214829
0.00216557
0.00218173
0.00219675
0.00221062
0.00222335
0.00223494
0.00224541
0.00225478
0.00226307
0.00227028
0.00227645
0.00228157
0.00228568
0.00228877
0.00229082
0.00229174
0.00229183
0.00229095
0.00228907
0.00228624
0.00228247
0.00227778
0.0022722
0.00226575
0.00225847
0.00225037
0.00224149
0.00223186
0.0022215
0.00221046
0.00219876
0.00218643
0.0021735
0.00216
0.00214597
0.00213143
0.00211642
0.00210097
0.00208511
0.00206886
0.00205226
0.00203534
0.00201813
0.00200065
0.00198292
0.00196498
0.00194684
0.00192853
0.00191008
0.0018915
0.00187282
0.00185406
0.00183525
0.0018164
0.00179754
0.00177869
0.00175985
0.00174105
0.0017223
0.00170361
0.001685
0.00166648
0.00164805
0.00162974
0.00161155
0.00159349
0.00157558
0.0015578
0.00154018
0.00152273
0.00150543
0.00148831
0.00147137
0.00145461
0.00143803
0.00142164
0.00140544
0.00138944
0.00137363
0.00135801
0.00134259
0.00132738
0.00131236
0.00129754
0.00128292
0.0012685
0.00125427
0.00124023
0.00122638
0.00121273
0.00119927
0.001186
0.00117292
0.00116003
0.00114732
0.00113481
0.00112247
0.00111032
0.00109834
0.00108654
0.00107492
0.00106346
0.00105218
0.00104105
0.0010301
0.0010193
0.00100866
0.00099818
0.000987851
0.000977671
0.000967639
0.000957752
0.000948007
0.0009384
0.000928928
0.000919587
0.000910372
0.000901279
0.000892301
0.00088343
0.000874658
0.000865973
0.00085736
0.000848801
0.000840269
0.000831732
0.000823145
0.000814441
0.000805549
0.000796305
0.00078656
0.000776591
0.000756769
2.27175e-06
0.000118203
0.000256371
0.000390156
0.000487244
0.000549162
0.000587025
0.00061049
0.000628249
0.000647574
0.000673719
0.000709333
0.000755152
0.000811449
0.000878628
0.000969133
0.00107427
0.00117599
0.00127521
0.00137071
0.00146141
0.00154741
0.00162865
0.00170511
0.00177707
0.00184489
0.00190891
0.00196946
0.00202687
0.00208148
0.0021336
0.00218353
0.00223151
0.00227776
0.00232243
0.00236564
0.00240749
0.00244803
0.00248728
0.00252527
0.00256198
0.0025974
0.00263149
0.00266423
0.00269557
0.00272547
0.0027539
0.00278081
0.00280616
0.00282993
0.00285209
0.00287261
0.00289148
0.00290868
0.00292422
0.00293808
0.00295028
0.00296082
0.00296972
0.00297698
0.00298264
0.00298672
0.00298914
0.00299004
0.00298958
0.00298761
0.00298427
0.00297956
0.00297356
0.00296631
0.00295786
0.00294827
0.00293758
0.00292586
0.00291314
0.00289947
0.00288491
0.00286949
0.00285327
0.00283628
0.00281857
0.00280017
0.00278114
0.00276151
0.00274132
0.00272061
0.00269942
0.00267779
0.00265576
0.00263336
0.00261063
0.0025876
0.0025643
0.00254077
0.00251704
0.00249313
0.00246907
0.0024449
0.00242064
0.00239632
0.00237195
0.00234758
0.00232322
0.00229888
0.0022746
0.00225038
0.00222625
0.00220222
0.0021783
0.00215452
0.00213088
0.0021074
0.00208409
0.00206095
0.00203801
0.00201526
0.00199272
0.00197039
0.00194828
0.0019264
0.00190475
0.00188333
0.00186215
0.00184122
0.00182053
0.00180009
0.0017799
0.00175996
0.00174027
0.00172084
0.00170166
0.00168273
0.00166405
0.00164562
0.00162743
0.00160949
0.00159179
0.00157433
0.00155712
0.00154015
0.00152342
0.00150692
0.00149066
0.00147462
0.00145882
0.00144324
0.00142789
0.00141275
0.00139782
0.00138311
0.00136861
0.00135432
0.00134022
0.00132633
0.00131263
0.00129912
0.00128581
0.00127267
0.00125972
0.00124695
0.00123435
0.00122192
0.00120966
0.00119756
0.00118561
0.00117381
0.00116214
0.00115061
0.00113919
0.00112787
0.00111663
0.00110544
0.00109426
0.00108305
0.00107175
0.00106027
0.00104846
0.00103624
0.00102406
0.00100157
2.80563e-06
0.000126822
0.000269282
0.000407731
0.000526505
0.00060804
0.000664246
0.000706255
0.000743314
0.000782687
0.000829432
0.000886497
0.000955507
0.00104784
0.00115484
0.00126145
0.00136756
0.00147092
0.001571
0.00166735
0.00175975
0.00184819
0.00193275
0.00201361
0.002091
0.00216519
0.00223647
0.0023051
0.00237134
0.00243541
0.00249754
0.00255789
0.00261663
0.00267386
0.00272967
0.00278411
0.00283723
0.00288903
0.0029395
0.00298864
0.00303641
0.00308277
0.00312768
0.00317109
0.00321295
0.0032532
0.00329179
0.00332867
0.0033638
0.00339712
0.00342858
0.00345816
0.00348582
0.00351152
0.00353524
0.00355696
0.00357667
0.00359436
0.00361001
0.00362363
0.00363523
0.00364481
0.00365239
0.00365801
0.00366166
0.00366328
0.00366319
0.0036612
0.00365743
0.00365191
0.0036447
0.00363586
0.00362544
0.00361351
0.00360013
0.00358536
0.00356927
0.00355193
0.0035334
0.00351375
0.00349305
0.00347136
0.00344876
0.0034253
0.00340105
0.00337607
0.00335042
0.00332417
0.00329736
0.00327006
0.0032423
0.00321415
0.00318564
0.00315683
0.00312775
0.00309844
0.00306894
0.00303929
0.00300952
0.00297967
0.00294977
0.00291985
0.00288994
0.00286005
0.00283023
0.00280049
0.00277085
0.00274133
0.00271195
0.00268273
0.00265368
0.00262483
0.00259617
0.00256774
0.00253953
0.00251157
0.00248385
0.00245639
0.00242919
0.00240227
0.00237562
0.00234927
0.0023232
0.00229742
0.00227194
0.00224676
0.00222188
0.0021973
0.00217303
0.00214906
0.00212539
0.00210203
0.00207897
0.00205621
0.00203374
0.00201157
0.0019897
0.00196812
0.00194682
0.00192582
0.00190511
0.00188468
0.00186453
0.00184465
0.00182505
0.00180573
0.00178666
0.00176786
0.00174932
0.00173104
0.001713
0.00169521
0.00167767
0.00166036
0.00164329
0.00162645
0.00160984
0.00159345
0.00157728
0.00156133
0.00154558
0.00153004
0.0015147
0.00149956
0.0014846
0.00146983
0.00145522
0.00144077
0.00142647
0.0014123
0.00139824
0.00138425
0.0013703
0.00135635
0.00134233
0.00132815
0.00131368
0.00129892
0.00128391
0.00125966
2.94253e-06
0.000128736
0.000270671
0.00040731
0.000538112
0.000641781
0.000719045
0.000780499
0.000836304
0.000894163
0.000961771
0.00105374
0.00116338
0.00128511
0.00140069
0.00151197
0.0016198
0.00172437
0.00182563
0.0019235
0.002018
0.0021092
0.00219726
0.00228235
0.00236471
0.00244454
0.00252208
0.00259753
0.0026711
0.00274294
0.0028132
0.002882
0.00294943
0.00301556
0.00308042
0.00314403
0.00320641
0.00326752
0.00332734
0.00338584
0.00344296
0.00349865
0.00355286
0.00360551
0.00365654
0.00370589
0.00375349
0.00379929
0.00384321
0.0038852
0.0039252
0.00396317
0.00399905
0.00403281
0.0040644
0.0040938
0.00412098
0.00414591
0.00416858
0.00418898
0.00420711
0.00422296
0.00423654
0.00424787
0.00425696
0.00426383
0.00426855
0.004271
0.00427143
0.00426979
0.00426612
0.00426048
0.00425291
0.00424348
0.00423225
0.00421928
0.00420463
0.00418837
0.00417057
0.00415131
0.00413064
0.00410865
0.0040854
0.00406097
0.00403543
0.00400886
0.00398131
0.00395287
0.0039236
0.00389357
0.00386284
0.00383148
0.00379954
0.0037671
0.0037342
0.0037009
0.00366726
0.00363332
0.00359914
0.00356477
0.00353024
0.0034956
0.0034609
0.00342616
0.00339143
0.00335673
0.0033221
0.00328756
0.00325314
0.00321887
0.00318477
0.00315086
0.00311715
0.00308367
0.00305043
0.00301745
0.00298474
0.00295232
0.00292018
0.00288835
0.00285683
0.00282563
0.00279475
0.0027642
0.00273399
0.00270412
0.00267459
0.00264541
0.00261657
0.00258808
0.00255994
0.00253215
0.0025047
0.0024776
0.00245084
0.00242442
0.00239833
0.00237259
0.00234718
0.00232211
0.00229737
0.00227295
0.00224886
0.00222509
0.00220164
0.0021785
0.00215567
0.00213314
0.00211091
0.00208898
0.00206734
0.00204599
0.00202492
0.00200413
0.00198362
0.00196337
0.00194339
0.00192367
0.00190421
0.001885
0.00186603
0.00184731
0.00182882
0.00181056
0.00179252
0.0017747
0.00175708
0.00173965
0.0017224
0.00170531
0.00168835
0.00167151
0.00165472
0.00163796
0.00162115
0.00160422
0.00158702
0.00156961
0.00155168
0.00152554
2.75947e-06
0.00012527
0.000264046
0.000395771
0.000520544
0.000633077
0.000727064
0.000808271
0.000891337
0.000986688
0.00109594
0.00122064
0.00135705
0.00148457
0.00160488
0.0017199
0.00183062
0.00193739
0.00204054
0.00214042
0.00223725
0.00233122
0.00242253
0.0025114
0.00259802
0.00268259
0.00276532
0.00284637
0.00292589
0.00300402
0.00308086
0.00315649
0.00323096
0.00330432
0.00337657
0.0034477
0.0035177
0.00358652
0.00365413
0.00372046
0.00378544
0.00384901
0.0039111
0.00397162
0.0040305
0.00408766
0.00414302
0.00419651
0.00424806
0.00429759
0.00434505
0.00439036
0.00443348
0.00447436
0.00451294
0.00454918
0.00458306
0.00461454
0.0046436
0.00467023
0.00469441
0.00471614
0.00473541
0.00475225
0.00476665
0.00477864
0.00478824
0.00479548
0.00480041
0.00480297
0.00480336
0.00480155
0.00479758
0.00479152
0.00478342
0.00477333
0.00476133
0.00474748
0.00473184
0.00471448
0.00469547
0.00467488
0.00465279
0.00462927
0.00460438
0.00457821
0.00455082
0.0045223
0.0044927
0.0044621
0.00443058
0.00439819
0.00436502
0.00433111
0.00429654
0.00426137
0.00422566
0.00418947
0.00415286
0.00411589
0.0040786
0.00404106
0.0040033
0.00396538
0.00392734
0.00388922
0.00385105
0.00381289
0.00377476
0.0037367
0.00369873
0.00366088
0.00362319
0.00358568
0.00354836
0.00351127
0.00347441
0.00343781
0.00340149
0.00336546
0.00332972
0.0032943
0.00325921
0.00322445
0.00319003
0.00315595
0.00312224
0.00308888
0.00305589
0.00302326
0.002991
0.00295911
0.0029276
0.00289645
0.00286568
0.00283527
0.00280524
0.00277557
0.00274627
0.00271734
0.00268876
0.00266055
0.0026327
0.0026052
0.00257805
0.00255125
0.00252479
0.00249867
0.00247289
0.00244744
0.00242231
0.0023975
0.00237302
0.00234884
0.00232498
0.00230141
0.00227815
0.00225518
0.00223251
0.00221012
0.002188
0.00216617
0.0021446
0.00212329
0.00210224
0.00208143
0.00206086
0.00204051
0.00202037
0.00200041
0.00198062
0.00196096
0.00194139
0.00192186
0.00190231
0.00188265
0.00186276
0.0018427
0.00182195
0.00179362
2.34443e-06
0.00011799
0.000252849
0.000380976
0.000503948
0.000620485
0.000731379
0.000840495
0.000955429
0.00108134
0.00121946
0.00136925
0.00151156
0.00164355
0.00176782
0.00188625
0.00199997
0.00210962
0.00221559
0.00231807
0.00241748
0.00251418
0.00260849
0.00270065
0.00279089
0.00287941
0.00296641
0.00305202
0.0031364
0.00321964
0.00330183
0.00338303
0.00346327
0.00354256
0.00362091
0.00369827
0.00377462
0.0038499
0.00392404
0.00399697
0.00406862
0.00413889
0.0042077
0.00427495
0.00434056
0.00440443
0.00446649
0.00452663
0.00458478
0.00464086
0.0046948
0.00474651
0.00479595
0.00484305
0.00488775
0.00493002
0.00496981
0.00500708
0.00504182
0.00507399
0.00510358
0.00513059
0.00515501
0.00517685
0.00519611
0.00521281
0.00522698
0.00523863
0.00524781
0.00525453
0.00525885
0.00526078
0.00526044
0.00525783
0.00525302
0.00524605
0.005237
0.00522592
0.00521288
0.00519794
0.00518118
0.00516266
0.00514246
0.00512064
0.00509728
0.00507245
0.00504623
0.00501868
0.00498988
0.00495991
0.00492882
0.0048967
0.0048636
0.00482961
0.00479477
0.00475917
0.00472286
0.00468591
0.00464837
0.00461031
0.00457179
0.00453287
0.00449358
0.004454
0.00441416
0.00437411
0.0043339
0.00429358
0.00425317
0.00421272
0.00417228
0.00413186
0.00409151
0.00405125
0.00401111
0.00397113
0.00393132
0.0038917
0.00385231
0.00381315
0.00377425
0.00373563
0.00369729
0.00365925
0.00362153
0.00358413
0.00354706
0.00351034
0.00347397
0.00343796
0.00340231
0.00336702
0.00333211
0.00329756
0.00326339
0.0032296
0.00319618
0.00316314
0.00313048
0.00309819
0.00306628
0.00303474
0.00300358
0.00297279
0.00294237
0.00291231
0.00288262
0.00285329
0.00282431
0.00279568
0.00276741
0.00273948
0.00271189
0.00268464
0.00265772
0.00263113
0.00260487
0.00257892
0.00255329
0.00252798
0.00250297
0.00247826
0.00245384
0.00242972
0.00240587
0.0023823
0.00235898
0.00233592
0.00231309
0.00229047
0.00226803
0.00224575
0.00222358
0.00220147
0.00217935
0.00215715
0.00213475
0.00211218
0.00208887
0.00205821
1.92694e-06
0.000110309
0.000242565
0.00036991
0.000495652
0.000620085
0.000745015
0.00087451
0.00101188
0.00115922
0.00131665
0.00147846
0.00162627
0.00176272
0.00189083
0.00201259
0.00212929
0.00224173
0.00235047
0.00245588
0.00255827
0.00265783
0.002755
0.00285013
0.00294352
0.00303539
0.00312595
0.00321536
0.00330374
0.0033912
0.00347782
0.00356363
0.00364866
0.00373291
0.00381635
0.00389895
0.00398066
0.0040614
0.00414109
0.00421966
0.00429699
0.004373
0.00444759
0.00452064
0.00459207
0.00466176
0.00472961
0.00479553
0.00485944
0.00492122
0.00498082
0.00503814
0.00509312
0.00514569
0.00519579
0.00524337
0.00528839
0.0053308
0.00537057
0.00540769
0.00544213
0.00547387
0.00550293
0.00552929
0.00555296
0.00557396
0.00559231
0.00560803
0.00562116
0.00563171
0.00563974
0.00564528
0.00564839
0.00564912
0.00564751
0.00564363
0.00563754
0.00562929
0.00561895
0.00560659
0.00559226
0.00557605
0.00555802
0.00553824
0.00551678
0.00549372
0.00546913
0.00544308
0.00541564
0.00538689
0.0053569
0.00532572
0.00529345
0.00526013
0.00522584
0.00519065
0.00515462
0.00511781
0.00508029
0.00504212
0.00500336
0.00496407
0.0049243
0.0048841
0.00484353
0.00480264
0.00476148
0.00472009
0.00467851
0.00463679
0.00459497
0.00455309
0.00451118
0.00446927
0.00442741
0.00438561
0.00434391
0.00430233
0.00426091
0.00421966
0.0041786
0.00413776
0.00409716
0.0040568
0.00401672
0.00397691
0.0039374
0.0038982
0.00385931
0.00382075
0.00378253
0.00374464
0.00370711
0.00366993
0.0036331
0.00359664
0.00356054
0.00352481
0.00348945
0.00345446
0.00341984
0.00338559
0.00335172
0.00331821
0.00328508
0.00325232
0.00321993
0.0031879
0.00315623
0.00312493
0.00309398
0.00306339
0.00303315
0.00300326
0.00297371
0.00294451
0.00291565
0.00288712
0.00285892
0.00283106
0.00280351
0.00277628
0.00274937
0.00272276
0.00269645
0.00267043
0.0026447
0.00261923
0.00259401
0.00256902
0.00254424
0.00251963
0.00249515
0.00247074
0.00244635
0.0024219
0.00239728
0.00237248
0.00234697
0.00231415
1.54351e-06
0.000102168
0.000232074
0.000359056
0.000487723
0.000618994
0.000755529
0.000899244
0.00105187
0.00121394
0.00138596
0.00155194
0.00170373
0.00184405
0.00197566
0.00210054
0.00222004
0.0023351
0.00244637
0.00255435
0.00265942
0.0027619
0.00286204
0.00296005
0.00305633
0.00315119
0.00324486
0.00333752
0.00342933
0.00352038
0.00361074
0.00370047
0.00378957
0.00387803
0.00396583
0.0040529
0.00413919
0.00422462
0.00430909
0.0043925
0.00447474
0.00455572
0.0046353
0.00471339
0.00478986
0.00486461
0.00493752
0.00500849
0.00507741
0.0051442
0.00520876
0.00527101
0.00533086
0.00538825
0.00544312
0.00549541
0.00554507
0.00559205
0.00563633
0.00567787
0.00571665
0.00575267
0.00578591
0.00581637
0.00584406
0.005869
0.0058912
0.00591067
0.00592746
0.0059416
0.00595311
0.00596205
0.00596846
0.00597238
0.00597387
0.005973
0.00596983
0.0059644
0.00595678
0.00594703
0.00593522
0.00592142
0.00590569
0.00588812
0.00586877
0.00584771
0.00582501
0.00580076
0.00577501
0.00574784
0.00571932
0.00568951
0.0056585
0.00562634
0.0055931
0.00555885
0.00552366
0.00548758
0.00545069
0.00541304
0.0053747
0.00533572
0.00529616
0.00525608
0.00521552
0.00517455
0.0051332
0.00509153
0.00504958
0.00500739
0.00496502
0.00492249
0.00487985
0.00483713
0.00479437
0.00475161
0.00470886
0.00466617
0.00462355
0.00458104
0.00453867
0.00449644
0.00445439
0.00441254
0.0043709
0.00432949
0.00428832
0.00424742
0.00420679
0.00416644
0.0041264
0.00408665