/*--------------------------------*- C++ -*----------------------------------*\
  =========                 |
  \\      /  F ield         | OpenFOAM: The Open Source CFD Toolbox
   \\    /   O peration     | Website:  https://openfoam.org
    \\  /    A nd           | Version:  8
     \\/     M anipulation  |
\*---------------------------------------------------------------------------*/
FoamFile
{
    version     2.0;
    format      ascii;
    class       volScalarField;
    location    "2100";
    object      nut;
}
// * * * * * * * * * * * * * * * * * * * * * * * * * * * * * * * * * * * * * //

dimensions      [0 2 -1 0 0 0 0];

internalField   nonuniform List<scalar> 
12225
(
0.0122671
0.00158819
0.000666129
0.000410105
0.000294025
0.00022806
0.000183261
0.000170805
0.000132697
0.000106844
9.46735e-05
8.80085e-05
7.89856e-05
7.2233e-05
6.77318e-05
6.4507e-05
6.12104e-05
6.46338e-05
0.0323823
0.00744532
0.00330638
0.00204329
0.00146801
0.0011445
0.000936338
0.000799975
0.00067951
0.000577234
0.000506286
0.000452432
0.00041054
0.000378806
0.000350182
0.000327767
0.000311172
0.000292818
0.0490123
0.01515
0.00728196
0.00457854
0.00330639
0.00258054
0.00211233
0.00178913
0.00154181
0.00134762
0.00119772
0.0010787
0.000982056
0.000902481
0.000835978
0.000780909
0.000735546
0.00068717
0.063054
0.0237783
0.0122894
0.00788814
0.00573397
0.00448498
0.00367412
0.00310733
0.00268471
0.00235805
0.00210111
0.00189458
0.00172531
0.00158451
0.00146613
0.00136604
0.00128146
0.00119789
0.074932
0.0328517
0.0181452
0.0119262
0.00874548
0.00686412
0.0056308
0.00476254
0.00411748
0.00362029
0.00322731
0.00290992
0.00264899
0.00243143
0.00224799
0.00209188
0.00195826
0.00183626
0.0849536
0.0420208
0.0246655
0.0166359
0.0123325
0.00972587
0.00799539
0.00676785
0.00585345
0.00514769
0.00458844
0.00413587
0.00376334
0.00345239
0.00318983
0.00296596
0.0027736
0.00260471
0.0933822
0.0510219
0.0316642
0.0219415
0.016474
0.0130717
0.0107778
0.00913551
0.0079057
0.0069534
0.0061969
0.00558367
0.00507837
0.00465632
0.00429976
0.00399561
0.00373414
0.00350818
0.0993794
0.0583363
0.0378386
0.0268568
0.0204171
0.0163053
0.0134891
0.011453
0.00991891
0.00872629
0.00777635
0.00700497
0.00636866
0.00583685
0.0053874
0.00500398
0.00467452
0.00439126
0.104023
0.0645454
0.0433804
0.0314239
0.0241571
0.0194092
0.0161097
0.0137018
0.0118766
0.0104521
0.00931443
0.00838904
0.00762485
0.00698574
0.00644544
0.00598449
0.00558858
0.00524877
0.108368
0.0708939
0.0493756
0.0365496
0.0284517
0.0230231
0.0191863
0.0163547
0.0141926
0.0124968
0.011138
0.0100303
0.00911434
0.00834759
0.0076991
0.00714579
0.00667068
0.00626297
0.112368
0.0772557
0.0557282
0.0421918
0.0332976
0.0271652
0.0227467
0.0194432
0.0168984
0.0148903
0.0132749
0.0119544
0.0108605
0.00994379
0.00916796
0.00850586
0.00793736
0.00744915
0.115994
0.0834975
0.0623053
0.0482611
0.0386474
0.0318167
0.026789
0.0229739
0.0200046
0.0176452
0.0157378
0.0141736
0.0128749
0.011785
0.0108618
0.0100736
0.00939671
0.00881464
0.119234
0.0894856
0.0689377
0.0546109
0.0443919
0.0369007
0.0312597
0.0269088
0.0234836
0.02074
0.0185096
0.0166735
0.0151449
0.01386
0.0127704
0.0118396
0.0110397
0.0103508
0.122086
0.095084
0.075415
0.0610223
0.0503361
0.0422534
0.0360231
0.0311353
0.0272402
0.024093
0.021519
0.0193909
0.017614
0.0161174
0.0148466
0.01376
0.0128257
0.0120196
0.124546
0.100135
0.0814619
0.0671725
0.056158
0.047577
0.0408126
0.0354174
0.031066
0.0275196
0.0246012
0.0221777
0.0201481
0.0184349
0.0169782
0.0157314
0.0146583
0.0137311
0.126578
0.104396
0.0866605
0.0725515
0.0613228
0.0523526
0.0451453
0.0393148
0.0345631
0.0306611
0.0274325
0.0247409
0.0224806
0.020569
0.0189413
0.0175468
0.0163454
0.0153061
0.128011
0.107322
0.0902141
0.0762353
0.0648743
0.0556509
0.0481493
0.0420254
0.0370012
0.0328553
0.0294126
0.0265352
0.0241143
0.0220643
0.0203172
0.0188191
0.0175275
0.0164083
0.128006
0.107313
0.0902048
0.0762269
0.0648674
0.0556454
0.048145
0.0420222
0.0369988
0.0328537
0.0294117
0.0265349
0.0241147
0.0220652
0.0203185
0.0188206
0.0175287
0.0164083
0.126509
0.104255
0.0864922
0.0723807
0.0611613
0.052205
0.0450128
0.0391967
0.0344584
0.0305686
0.0273506
0.0246684
0.0224163
0.0205118
0.0188903
0.0175006
0.0163024
0.0152631
0.124267
0.0995604
0.0807712
0.0664676
0.0554886
0.0469631
0.0402594
0.0349228
0.0306248
0.0271258
0.0242488
0.0218611
0.0198626
0.0181762
0.0167426
0.0155152
0.0144575
0.0135405
0.12136
0.0936399
0.0737261
0.0593348
0.0487592
0.0408249
0.0347467
0.0300003
0.0262308
0.0231928
0.0207127
0.018665
0.0169572
0.0155198
0.0142999
0.0132567
0.0123583
0.0115798
0.117686
0.0865903
0.0656967
0.0514791
0.0415374
0.0343608
0.0290184
0.0249322
0.0217348
0.0191848
0.0171184
0.0154211
0.0140106
0.0128263
0.0118229
0.0109657
0.010228
0.00958895
0.11305
0.0784122
0.056921
0.0432687
0.0342296
0.0279652
0.0234365
0.0200435
0.0174263
0.0153597
0.0136966
0.0123369
0.0112106
0.010267
0.00946866
0.00878719
0.00820101
0.00769346
0.107169
0.0691009
0.0476372
0.035029
0.0271566
0.021922
0.0182437
0.0155401
0.0134817
0.0118706
0.0105816
0.00953197
0.00866487
0.00793965
0.0073267
0.00680377
0.00635411
0.00596494
0.0996761
0.0587036
0.0381279
0.0270699
0.0205782
0.016433
0.0135949
0.0115438
0.00999923
0.00879908
0.00784341
0.00706755
0.00642793
0.00589353
0.00544234
0.00505736
0.00472636
0.00444011
0.0901097
0.0473665
0.0287363
0.0196847
0.0146976
0.0116312
0.00957853
0.00811528
0.00702332
0.00617994
0.00551058
0.0049679
0.00452123
0.00414796
0.00383348
0.00356466
0.00333342
0.00313388
0.0779076
0.0353826
0.0198606
0.0131383
0.00966107
0.00759298
0.00623352
0.0052743
0.004564
0.00401882
0.00358701
0.00323599
0.00294752
0.00270526
0.00250288
0.00232854
0.0021779
0.00204891
0.06238
0.0232554
0.0119461
0.00765493
0.00556337
0.00435256
0.00356724
0.00301639
0.00261307
0.00230792
0.00206665
0.00186689
0.00170308
0.00156251
0.0014487
0.00134759
0.00125907
0.00118357
0.0426105
0.0117794
0.0054693
0.00341385
0.00246071
0.00192005
0.00157275
0.00132885
0.00115943
0.00103846
0.000944042
0.000857504
0.000785386
0.00072053
0.000665877
0.000615683
0.000576586
0.000531896
0.0168348
0.00255985
0.00110002
0.000683428
0.000493724
0.000386803
0.000318219
0.000266307
0.000272613
0.00032205
0.000354121
0.00033789
0.000300244
0.000268116
0.000240464
0.000205925
0.000197281
0.000141055
3.9947e-09
5.9116e-07
2.00089e-06
6.28938e-06
1.08025e-05
1.35317e-05
1.32569e-05
1.1792e-05
9.06404e-06
5.94809e-06
3.52415e-06
2.02512e-06
1.41007e-06
1.50308e-06
2.0672e-06
2.56608e-06
2.4545e-06
2.06916e-06
2.54284e-06
8.67677e-06
9.02527e-06
5.55434e-06
6.75188e-06
2.65125e-05
5.67524e-05
7.44257e-05
9.09792e-05
0.000104827
0.000117048
0.000127208
0.000136112
0.000143759
0.000150449
0.000156276
0.000161358
0.000165844
0.000169819
0.000173369
0.000176551
0.00017941
0.000181975
0.000184268
0.000186308
0.000188111
0.000189692
0.000191063
0.000192235
0.000193215
0.000194004
0.000194476
0.000194974
0.000195082
0.000195144
0.000195019
0.00019472
0.000194274
0.000193675
0.000192929
0.000192035
0.000190997
0.000189815
0.000188494
0.000187034
0.000185438
0.00018371
0.00018185
0.00017986
0.000177743
0.0001755
0.000173135
0.00017065
0.000168045
0.000165323
0.000162486
0.000159534
0.000156468
0.000153288
0.000149994
0.000146586
0.000143063
0.000139422
0.000135662
0.000131779
0.000127767
0.000123618
0.000119322
0.000114863
0.000110228
0.000105396
0.000100345
9.50456e-05
8.94698e-05
8.36129e-05
7.75428e-05
7.15323e-05
6.62502e-05
6.24915e-05
6.01498e-05
5.83974e-05
5.67915e-05
5.52153e-05
5.36469e-05
5.20847e-05
5.05304e-05
4.89857e-05
4.74528e-05
4.59342e-05
4.44363e-05
4.2987e-05
4.17501e-05
4.0546e-05
3.93562e-05
3.81837e-05
3.70291e-05
3.58932e-05
3.47769e-05
3.3681e-05
3.26061e-05
3.1553e-05
3.05219e-05
2.95133e-05
2.85277e-05
2.75657e-05
2.66277e-05
2.57137e-05
2.48237e-05
2.39587e-05
2.31466e-05
2.24123e-05
2.16966e-05
2.09959e-05
2.03185e-05
1.96692e-05
1.90342e-05
1.84131e-05
1.78092e-05
1.72232e-05
1.66555e-05
1.61058e-05
1.55738e-05
1.5059e-05
1.45611e-05
1.40795e-05
1.36139e-05
1.31639e-05
1.2729e-05
1.23089e-05
1.19031e-05
1.15114e-05
1.11332e-05
1.07683e-05
1.04164e-05
1.0077e-05
9.74978e-06
9.43453e-06
9.13091e-06
8.83866e-06
8.55752e-06
8.28727e-06
8.02769e-06
7.77859e-06
7.5398e-06
7.31114e-06
7.09243e-06
6.88345e-06
6.68397e-06
6.49365e-06
6.31207e-06
6.13869e-06
5.97274e-06
5.81344e-06
5.65919e-06
5.50955e-06
5.35957e-06
5.21383e-06
5.04781e-06
4.89382e-06
4.64747e-06
4.48928e-06
3.59425e-06
1.68182e-07
6.14264e-06
6.38832e-05
0.000139687
0.000183241
0.000207006
0.000216379
0.000214886
0.000206541
0.000189838
0.000169046
0.000148912
0.0001385
0.000143714
0.000157682
0.000166604
0.000169022
0.000170206
0.00017561
0.000185312
0.000200067
0.000217506
0.00023434
0.000250842
0.000262143
0.000272046
0.000280862
0.000293708
0.000312804
0.00032675
0.000339493
0.000350417
0.000360347
0.000369445
0.000377346
0.000384558
0.000391273
0.000397715
0.000404015
0.000410238
0.00041638
0.000422399
0.000428241
0.000433865
0.000439244
0.000444361
0.000449201
0.000453752
0.000458014
0.000461988
0.000465713
0.000469155
0.000472352
0.000475294
0.000477985
0.000480427
0.00048262
0.000484565
0.000486263
0.000487714
0.000488918
0.000489877
0.000490593
0.000491069
0.000491318
0.000491342
0.000491138
0.000490701
0.000490049
0.000489183
0.000488111
0.000486839
0.000485373
0.000483721
0.000481889
0.000479885
0.000477716
0.000475389
0.000472913
0.000470294
0.000467541
0.000464662
0.000461664
0.000458558
0.00045535
0.000452048
0.000448661
0.000445196
0.000441661
0.000438065
0.000434414
0.000430712
0.00042696
0.00042315
0.000419263
0.000415273
0.000411164
0.000406964
0.000402723
0.000398467
0.000394202
0.000389933
0.000385662
0.000381395
0.000377134
0.000372882
0.000368642
0.000364417
0.000360206
0.000356007
0.000351832
0.000347683
0.000343564
0.000339476
0.000335422
0.000331401
0.000327417
0.00032347
0.000319562
0.000315695
0.000311867
0.000308082
0.00030434
0.000300642
0.000296989
0.00029338
0.000289816
0.000286295
0.000282815
0.000279381
0.000275989
0.00027265
0.000269363
0.000266113
0.000262898
0.000259725
0.000256595
0.000253511
0.000250472
0.000247478
0.000244527
0.00024162
0.000238757
0.000235935
0.000233155
0.000230417
0.000227719
0.000225062
0.000222444
0.000219866
0.000217327
0.000214826
0.000212365
0.000209942
0.000207557
0.000205212
0.000202905
0.000200639
0.000198414
0.00019623
0.000194089
0.000191993
0.000189944
0.000187943
0.000185992
0.000184092
0.000182245
0.000180452
0.00017871
0.000177019
0.000175373
0.000173774
0.000172196
0.000170682
0.000169071
0.000167749
0.000165617
0.000164901
0.000162094
0.000160721
7.68604e-07
4.4542e-05
0.000164289
0.000246523
0.000299858
0.000330179
0.000341218
0.000338349
0.000325517
0.000306243
0.000286469
0.000273747
0.000271487
0.000278167
0.000288524
0.000299354
0.000312116
0.000329071
0.000350671
0.000375833
0.000403223
0.000431579
0.000469795
0.000516182
0.000561837
0.000605994
0.000649096
0.00069277
0.00073211
0.0007634
0.000788409
0.000808234
0.000823949
0.000836418
0.000846422
0.000854739
0.000862068
0.000869055
0.000876236
0.000883967
0.000892356
0.000901279
0.000910497
0.000919774
0.000928932
0.000937851
0.000946455
0.000954697
0.000962539
0.000969954
0.00097692
0.000983406
0.00098941
0.000994926
0.00099995
0.00100448
0.00100852
0.00101207
0.00101513
0.00101769
0.00101976
0.00102134
0.00102242
0.00102296
0.00102312
0.00102284
0.00102204
0.0010208
0.00101911
0.00101699
0.00101446
0.00101151
0.00100818
0.00100446
0.00100038
0.000995949
0.000991183
0.000986095
0.000980701
0.000975016
0.000969056
0.000962835
0.000956369
0.000949673
0.000942762
0.000935651
0.000928355
0.000920887
0.000913262
0.000905492
0.00089759
0.000889567
0.000881432
0.000873193
0.000864859
0.000856439
0.000847946
0.000839395
0.000830803
0.000822183
0.000813546
0.0008049
0.000796255
0.000787617
0.000778993
0.000770392
0.000761818
0.000753278
0.000744778
0.000736322
0.000727918
0.00071957
0.000711283
0.00070306
0.000694906
0.000686823
0.000678816
0.000670886
0.000663037
0.00065527
0.000647588
0.000639993
0.000632486
0.00062507
0.000617745
0.000610512
0.000603371
0.000596324
0.000589369
0.00058251
0.000575744
0.000569075
0.000562498
0.000556008
0.000549605
0.000543291
0.000537068
0.000530936
0.000524896
0.000518947
0.000513088
0.000507318
0.000501636
0.000496041
0.000490532
0.000485108
0.000479768
0.00047451
0.000469333
0.000464236
0.000459219
0.00045428
0.000449417
0.000444631
0.000439919
0.000435281
0.000430715
0.00042622
0.000421796
0.000417441
0.000413153
0.000408931
0.000404772
0.000400676
0.000396639
0.000392658
0.000388728
0.000384845
0.000381002
0.00037719
0.000373397
0.000369609
0.000365801
0.000361954
0.000357995
0.000353955
0.000349473
0.00034508
0.00033859
0.000327131
5.07092e-07
8.12898e-05
0.000212971
0.000309205
0.000372989
0.000410401
0.000425975
0.000426366
0.000416355
0.000402951
0.000394796
0.000393959
0.000403187
0.000420398
0.000443154
0.000470909
0.000504263
0.000543574
0.000588031
0.00065027
0.000724135
0.000803928
0.00088819
0.000958851
0.00102128
0.00107741
0.00112782
0.00117272
0.00121199
0.00124587
0.00127512
0.00130045
0.00132257
0.00134211
0.00135965
0.00137567
0.0013906
0.00140476
0.00141842
0.00143177
0.00144494
0.00145799
0.00147095
0.00148381
0.0014965
0.00150896
0.0015211
0.0015328
0.00154399
0.00155459
0.00156454
0.00157382
0.00158239
0.00159025
0.00159739
0.0016038
0.00160947
0.00161441
0.00161861
0.00162207
0.00162479
0.00162677
0.00162793
0.00162837
0.00162824
0.00162733
0.0016257
0.00162338
0.00162038
0.00161673
0.00161243
0.00160751
0.00160199
0.00159589
0.00158923
0.00158204
0.00157433
0.00156614
0.00155747
0.00154836
0.00153883
0.0015289
0.0015186
0.00150795
0.00149696
0.00148567
0.0014741
0.00146226
0.00145018
0.00143788
0.00142538
0.0014127
0.00139985
0.00138685
0.00137372
0.00136047
0.00134712
0.00133369
0.0013202
0.00130667
0.00129311
0.00127953
0.00126596
0.0012524
0.00123886
0.00122536
0.0012119
0.0011985
0.00118516
0.00117189
0.0011587
0.0011456
0.00113259
0.00111969
0.00110689
0.0010942
0.00108163
0.00106918
0.00105685
0.00104466
0.00103259
0.00102066
0.00100886
0.00099721
0.000985697
0.000974326
0.000963099
0.000952016
0.000941079
0.000930287
0.000919643
0.000909144
0.000898788
0.000888572
0.000878494
0.000868556
0.000858758
0.000849101
0.000839586
0.00083021
0.000820973
0.000811874
0.000802912
0.000794083
0.000785388
0.000776824
0.000768389
0.000760082
0.0007519
0.000743843
0.000735908
0.000728093
0.000720397
0.000712817
0.000705353
0.000698001
0.000690761
0.00068363
0.000676607
0.000669688
0.000662872
0.000656156
0.000649536
0.000643011
0.000636574
0.000630223
0.000623949
0.000617746
0.000611605
0.000605512
0.000599452
0.000593403
0.000587336
0.000581213
0.00057497
0.000568551
0.000561775
0.000554583
0.000546341
0.000530151
1.49345e-06
0.000102059
0.000235124
0.000355061
0.000433977
0.000481485
0.000505122
0.000513592
0.000515167
0.000516155
0.000523036
0.000539199
0.000565257
0.000600244
0.000643372
0.000694657
0.000754744
0.000838165
0.000933839
0.00103006
0.00111907
0.00120346
0.00128281
0.00135551
0.00142227
0.00148368
0.00154015
0.001592
0.0016396
0.00168337
0.0017238
0.00176137
0.0017965
0.00182958
0.00186091
0.00189076
0.0019193
0.00194669
0.00197302
0.00199834
0.0020227
0.00204611
0.00206856
0.00209002
0.00211049
0.00212992
0.00214829
0.00216556
0.00218172
0.00219674
0.00221062
0.00222334
0.00223494
0.00224541
0.00225478
0.00226306
0.00227028
0.00227644
0.00228157
0.00228568
0.00228877
0.00229082
0.00229174
0.00229183
0.00229095
0.00228907
0.00228624
0.00228247
0.00227778
0.0022722
0.00226575
0.00225847
0.00225037
0.00224149
0.00223186
0.00222151
0.00221046
0.00219876
0.00218643
0.0021735
0.00216
0.00214597
0.00213143
0.00211643
0.00210097
0.00208511
0.00206886
0.00205227
0.00203535
0.00201813
0.00200065
0.00198292
0.00196498
0.00194684
0.00192854
0.00191008
0.0018915
0.00187282
0.00185406
0.00183525
0.00181641
0.00179755
0.00177869
0.00175985
0.00174105
0.0017223
0.00170361
0.001685
0.00166648
0.00164806
0.00162975
0.00161156
0.0015935
0.00157558
0.0015578
0.00154018
0.00152272
0.00150543
0.00148831
0.00147137
0.0014546
0.00143803
0.00142163
0.00140543
0.00138943
0.00137362
0.001358
0.00134258
0.00132736
0.00131235
0.00129753
0.00128291
0.00126848
0.00125425
0.00124021
0.00122637
0.00121271
0.00119925
0.00118598
0.0011729
0.00116001
0.00114731
0.00113479
0.00112245
0.0011103
0.00109833
0.00108653
0.0010749
0.00106345
0.00105216
0.00104104
0.00103008
0.00101929
0.00100865
0.000998169
0.000987841
0.000977663
0.000967632
0.000957746
0.000948002
0.000938397
0.000928927
0.000919587
0.000910375
0.000901283
0.000892307
0.000883439
0.000874669
0.000865986
0.000857375
0.000848818
0.000840288
0.000831752
0.000823167
0.000814464
0.000805574
0.000796331
0.000786588
0.00077662
0.0007568
2.27171e-06
0.000118202
0.000256369
0.000390153
0.000487241
0.00054916
0.000587024
0.000610488
0.000628248
0.000647574
0.000673718
0.000709332
0.00075515
0.000811447
0.000878626
0.00096913
0.00107427
0.00117599
0.00127521
0.00137071
0.00146141
0.00154741
0.00162865
0.00170511
0.00177707
0.00184489
0.00190891
0.00196946
0.00202687
0.00208148
0.0021336
0.00218353
0.00223151
0.00227776
0.00232243
0.00236564
0.00240749
0.00244803
0.00248728
0.00252527
0.00256198
0.0025974
0.00263149
0.00266422
0.00269556
0.00272547
0.00275389
0.0027808
0.00280616
0.00282993
0.00285209
0.00287261
0.00289147
0.00290868
0.00292421
0.00293808
0.00295028
0.00296082
0.00296971
0.00297698
0.00298263
0.00298671
0.00298914
0.00299004
0.00298958
0.00298761
0.00298426
0.00297956
0.00297356
0.00296631
0.00295786
0.00294827
0.00293758
0.00292586
0.00291314
0.00289947
0.00288491
0.00286949
0.00285327
0.00283628
0.00281857
0.00280017
0.00278114
0.00276151
0.00274132
0.00272061
0.00269942
0.00267779
0.00265576
0.00263336
0.00261063
0.0025876
0.00256431
0.00254078
0.00251704
0.00249313
0.00246908
0.00244491
0.00242064
0.00239632
0.00237196
0.00234759
0.00232322
0.00229889
0.0022746
0.00225038
0.00222625
0.00220222
0.0021783
0.00215452
0.00213088
0.0021074
0.00208409
0.00206095
0.00203801
0.00201526
0.00199272
0.00197039
0.00194828
0.00192639
0.00190474
0.00188332
0.00186214
0.00184121
0.00182052
0.00180008
0.00177989
0.00175995
0.00174026
0.00172082
0.00170164
0.00168271
0.00166403
0.0016456
0.00162741
0.00160946
0.00159177
0.00157431
0.0015571
0.00154013
0.00152339
0.0015069
0.00149063
0.0014746
0.0014588
0.00144322
0.00142787
0.00141273
0.00139781
0.0013831
0.0013686
0.0013543
0.00134021
0.00132631
0.00131262
0.00129911
0.0012858
0.00127267
0.00125972
0.00124695
0.00123435
0.00122193
0.00120966
0.00119756
0.00118562
0.00117382
0.00116216
0.00115063
0.00113921
0.00112789
0.00111665
0.00110546
0.00109429
0.00108309
0.00107178
0.00106031
0.00104849
0.00103627
0.00102409
0.00100161
2.80555e-06
0.000126821
0.00026928
0.000407726
0.000526501
0.000608037
0.000664242
0.000706252
0.000743311
0.000782684
0.000829429
0.000886493
0.000955503
0.00104783
0.00115484
0.00126144
0.00136755
0.00147092
0.00157099
0.00166735
0.00175975
0.00184818
0.00193275
0.00201361
0.002091
0.00216519
0.00223647
0.0023051
0.00237134
0.00243541
0.00249754
0.00255789
0.00261663
0.00267386
0.00272966
0.00278411
0.00283723
0.00288903
0.0029395
0.00298864
0.00303641
0.00308277
0.00312768
0.00317109
0.00321295
0.0032532
0.00329179
0.00332867
0.0033638
0.00339711
0.00342858
0.00345816
0.00348581
0.00351152
0.00353524
0.00355696
0.00357667
0.00359435
0.00361001
0.00362363
0.00363523
0.00364481
0.00365239
0.00365801
0.00366166
0.00366328
0.00366319
0.0036612
0.00365743
0.00365191
0.0036447
0.00363586
0.00362545
0.00361351
0.00360013
0.00358536
0.00356927
0.00355193
0.0035334
0.00351375
0.00349305
0.00347136
0.00344876
0.0034253
0.00340105
0.00337607
0.00335043
0.00332417
0.00329737
0.00327006
0.00324231
0.00321416
0.00318565
0.00315683
0.00312775
0.00309844
0.00306894
0.00303929
0.00300953
0.00297968
0.00294978
0.00291985
0.00288994
0.00286006
0.00283023
0.00280049
0.00277085
0.00274133
0.00271195
0.00268273
0.00265368
0.00262483
0.00259617
0.00256774
0.00253953
0.00251156
0.00248384
0.00245638
0.00242918
0.00240226
0.00237562
0.00234926
0.00232318
0.00229741
0.00227192
0.00224674
0.00222186
0.00219728
0.00217301
0.00214904
0.00212537
0.00210201
0.00207894
0.00205618
0.00203372
0.00201155
0.00198967
0.00196809
0.0019468
0.0019258
0.00190508
0.00188465
0.0018645
0.00184463
0.00182503
0.0018057
0.00178664
0.00176784
0.0017493
0.00173102
0.00171298
0.0016952
0.00167765
0.00166035
0.00164328
0.00162644
0.00160983
0.00159345
0.00157728
0.00156133
0.00154558
0.00153005
0.00151471
0.00149957
0.00148462
0.00146984
0.00145524
0.0014408
0.0014265
0.00141233
0.00139827
0.00138428
0.00137034
0.00135639
0.00134237
0.0013282
0.00131372
0.00129897
0.00128396
0.00125971
2.94244e-06
0.000128735
0.000270668
0.000407306
0.000538106
0.000641776
0.00071904
0.000780494
0.000836299
0.000894158
0.000961766
0.00105373
0.00116337
0.0012851
0.00140069
0.00151196
0.00161979
0.00172437
0.00182562
0.0019235
0.00201799
0.0021092
0.00219725
0.00228235
0.0023647
0.00244454
0.00252208
0.00259753
0.0026711
0.00274294
0.0028132
0.002882
0.00294943
0.00301556
0.00308042
0.00314403
0.00320641
0.00326752
0.00332734
0.00338584
0.00344296
0.00349865
0.00355286
0.00360551
0.00365654
0.00370589
0.00375349
0.00379929
0.00384321
0.0038852
0.0039252
0.00396317
0.00399905
0.00403281
0.0040644
0.0040938
0.00412098
0.00414591
0.00416858
0.00418898
0.00420711
0.00422296
0.00423654
0.00424787
0.00425696
0.00426383
0.00426855
0.004271
0.00427144
0.00426979
0.00426612
0.00426048
0.00425291
0.00424348
0.00423225
0.00421928
0.00420463
0.00418837
0.00417058
0.00415131
0.00413065
0.00410865
0.00408541
0.00406098
0.00403544
0.00400886
0.00398132
0.00395287
0.0039236
0.00389357
0.00386284
0.00383148
0.00379955
0.00376711
0.00373421
0.00370091
0.00366727
0.00363333
0.00359915
0.00356478
0.00353025
0.00349561
0.00346091
0.00342617
0.00339143
0.00335674
0.0033221
0.00328756
0.00325315
0.00321888
0.00318477
0.00315086
0.00311715
0.00308367
0.00305043
0.00301745
0.00298474
0.00295231
0.00292018
0.00288834
0.00285682
0.00282562
0.00279474
0.00276419
0.00273398
0.0027041
0.00267457
0.00264539
0.00261655
0.00258806
0.00255992
0.00253212
0.00250467
0.00247757
0.00245081
0.00242439
0.0023983
0.00237256
0.00234715
0.00232208
0.00229734
0.00227292
0.00224883
0.00222506
0.00220161
0.00217847
0.00215564
0.00213312
0.00211089
0.00208896
0.00206732
0.00204598
0.00202491
0.00200412
0.00198361
0.00196336
0.00194338
0.00192367
0.00190421
0.001885
0.00186604
0.00184731
0.00182883
0.00181057
0.00179254
0.00177472
0.0017571
0.00173968
0.00172243
0.00170535
0.00168839
0.00167155
0.00165477
0.00163801
0.0016212
0.00160427
0.00158707
0.00156967
0.00155173
0.00152559
2.75937e-06
0.000125268
0.000264042
0.000395767
0.000520538
0.000633069
0.000727057
0.000808264
0.000891331
0.000986681
0.00109593
0.00122063
0.00135704
0.00148457
0.00160487
0.0017199
0.00183061
0.00193739
0.00204054
0.00214042
0.00223724
0.00233121
0.00242253
0.00251139
0.00259801
0.00268259
0.00276532
0.00284637
0.00292589
0.00300402
0.00308086
0.00315649
0.00323096
0.00330432
0.00337657
0.0034477
0.0035177
0.00358652
0.00365413
0.00372046
0.00378544
0.00384901
0.0039111
0.00397162
0.0040305
0.00408766
0.00414302
0.00419651
0.00424806
0.00429759
0.00434505
0.00439037
0.00443348
0.00447436
0.00451294
0.00454918
0.00458306
0.00461454
0.00464361
0.00467023
0.00469441
0.00471614
0.00473541
0.00475225
0.00476665
0.00477864
0.00478824
0.00479548
0.00480041
0.00480298
0.00480337
0.00480155
0.00479759
0.00479152
0.00478342
0.00477334
0.00476134
0.00474748
0.00473184
0.00471449
0.00469548
0.00467489
0.0046528
0.00462927
0.00460439
0.00457822
0.00455083
0.0045223
0.00449271
0.00446211
0.00443059
0.0043982
0.00436502
0.00433112
0.00429655
0.00426138
0.00422567
0.00418948
0.00415287
0.0041159
0.00407861
0.00404107
0.00400331
0.00396539
0.00392734
0.00388922
0.00385106
0.0038129
0.00377477
0.0037367
0.00369873
0.00366089
0.00362319
0.00358568
0.00354836
0.00351127
0.00347441
0.00343781
0.00340149
0.00336545
0.00332971
0.00329429
0.0032592
0.00322443
0.00319001
0.00315594
0.00312222
0.00308886
0.00305586
0.00302323
0.00299098
0.00295909
0.00292757
0.00289642
0.00286565
0.00283524
0.00280521
0.00277554
0.00274624
0.00271731
0.00268874
0.00266052
0.00263267
0.00260517
0.00257803
0.00255122
0.00252477
0.00249865
0.00247287
0.00244742
0.00242229
0.00239749
0.002373
0.00234883
0.00232497
0.00230141
0.00227815
0.00225518
0.00223251
0.00221012
0.00218801
0.00216618
0.00214461
0.00212331
0.00210226
0.00208146
0.00206089
0.00204055
0.00202041
0.00200046
0.00198067
0.00196101
0.00194144
0.00192192
0.00190236
0.00188271
0.00186282
0.00184276
0.00182201
0.00179369
2.34433e-06
0.000117988
0.000252846
0.000380971
0.000503943
0.000620478
0.000731373
0.000840488
0.000955422
0.00108133
0.00121945
0.00136924
0.00151155
0.00164354
0.00176781
0.00188624
0.00199996
0.00210961
0.00221558
0.00231807
0.00241747
0.00251418
0.00260849
0.00270065
0.00279089
0.00287941
0.0029664
0.00305202
0.0031364
0.00321964
0.00330183
0.00338303
0.00346327
0.00354256
0.00362091
0.00369827
0.00377462
0.0038499
0.00392404
0.00399698
0.00406862
0.00413889
0.0042077
0.00427495
0.00434056
0.00440444
0.00446649
0.00452663
0.00458478
0.00464086
0.0046948
0.00474651
0.00479595
0.00484305
0.00488776
0.00493002
0.00496981
0.00500709
0.00504182
0.00507399
0.00510359
0.00513059
0.00515502
0.00517685
0.00519611
0.00521282
0.00522699
0.00523864
0.00524781
0.00525454
0.00525886
0.00526079
0.00526045
0.00525784
0.00525302
0.00524606
0.00523701
0.00522593
0.00521289
0.00519795
0.00518119
0.00516267
0.00514246
0.00512065
0.00509729
0.00507246
0.00504624
0.00501869
0.00498989
0.00495992
0.00492883
0.00489671
0.00486361
0.00482962
0.00479478
0.00475918
0.00472287
0.00468592
0.00464838
0.00461033
0.0045718
0.00453288
0.00449359
0.00445401
0.00441417
0.00437412
0.00433391
0.00429358
0.00425318
0.00421273
0.00417228
0.00413186
0.00409151
0.00405125
0.00401112
0.00397113
0.00393132
0.0038917
0.0038523
0.00381315
0.00377425
0.00373562
0.00369728
0.00365924
0.00362151
0.00358411
0.00354705
0.00351032
0.00347395
0.00343794
0.00340228
0.003367
0.00333208
0.00329753
0.00326336
0.00322957
0.00319615
0.00316311
0.00313045
0.00309816
0.00306625
0.00303471
0.00300355
0.00297276
0.00294234
0.00291229
0.0028826
0.00285326
0.00282429
0.00279567
0.00276739
0.00273946
0.00271188
0.00268463
0.00265771
0.00263112
0.00260486
0.00257892
0.0025533
0.00252798
0.00250298
0.00247827
0.00245386
0.00242974
0.0024059
0.00238233
0.00235902
0.00233596
0.00231313
0.00229051
0.00226808
0.0022458
0.00222363
0.00220153
0.00217941
0.00215721
0.00213481
0.00211224
0.00208894
0.00205828
1.92684e-06
0.000110307
0.000242562
0.000369906
0.000495647
0.000620079
0.000745008
0.000874502
0.00101187
0.00115921
0.00131664
0.00147845
0.00162626
0.00176271
0.00189082
0.00201258
0.00212928
0.00224172
0.00235046
0.00245587
0.00255826
0.00265782
0.002755
0.00285013
0.00294352
0.00303539
0.00312595
0.00321536
0.00330374
0.0033912
0.00347782
0.00356363
0.00364866
0.00373291
0.00381635
0.00389896
0.00398066
0.0040614
0.0041411
0.00421966
0.00429699
0.00437301
0.00444759
0.00452065
0.00459207
0.00466176
0.00472961
0.00479554
0.00485944
0.00492123
0.00498082
0.00503814
0.00509312
0.00514569
0.00519579
0.00524337
0.00528839
0.0053308
0.00537058
0.00540769
0.00544213
0.00547388
0.00550293
0.00552929
0.00555296
0.00557397
0.00559232
0.00560804
0.00562116
0.00563172
0.00563975
0.00564529
0.0056484
0.00564912
0.00564752
0.00564364
0.00563755
0.0056293
0.00561896
0.0056066
0.00559227
0.00557606
0.00555803
0.00553825
0.00551679
0.00549373
0.00546914
0.00544309
0.00541566
0.0053869
0.00535691
0.00532574
0.00529346
0.00526014
0.00522585
0.00519066
0.00515463
0.00511782
0.0050803
0.00504213
0.00500337
0.00496408
0.00492431
0.00488411
0.00484354
0.00480265
0.00476149
0.0047201
0.00467852
0.0046368
0.00459498
0.0045531
0.00451118
0.00446928
0.00442741
0.00438561
0.00434391
0.00430233
0.00426091
0.00421965
0.0041786
0.00413776
0.00409715
0.00405679
0.0040167
0.0039769
0.00393739
0.00389818
0.00385929
0.00382073
0.0037825
0.00374462
0.00370708
0.0036699
0.00363308
0.00359661
0.00356051
0.00352478
0.00348942
0.00345443
0.00341981
0.00338557
0.00335169
0.00331819
0.00328506
0.0032523
0.00321991
0.00318788
0.00315621
0.00312491
0.00309396
0.00306337
0.00303314
0.00300325
0.00297371
0.00294451
0.00291565
0.00288712
0.00285893
0.00283107
0.00280352
0.0027763
0.00274939
0.00272278
0.00269648
0.00267047
0.00264473
0.00261927
0.00259405
0.00256907
0.00254429
0.00251968
0.0024952
0.0024708
0.00244641
0.00242196
0.00239734
0.00237254
0.00234703
0.00231422
1.54346e-06
0.000102166
0.000232071
0.000359052
0.000487718
0.000618987
0.000755521
0.000899236
0.00105186
0.00121393
0.00138595
0.00155193
0.00170372
0.00184404
0.00197565
0.00210053
0.00222004
0.00233509
0.00244636
0.00255434
0.00265942
0.0027619
0.00286204
0.00296005
0.00305633
0.00315119
0.00324486
0.00333752
0.00342933
0.00352038
0.00361074
0.00370047
0.00378957
0.00387803
0.00396583
0.00405291
0.0041392
0.00422462
0.00430909
0.0043925
0.00447475
0.00455572
0.00463531
0.00471339
0.00478987
0.00486461
0.00493752
0.00500849
0.00507742
0.00514421
0.00520876
0.00527101
0.00533086
0.00538826
0.00544313
0.00549542
0.00554507
0.00559206
0.00563633
0.00567788
0.00571666
0.00575268
0.00578592
0.00581638
0.00584407
0.00586901
0.0058912
0.00591068
0.00592747
0.00594161
0.00595312
0.00596206
0.00596847
0.00597239
0.00597388
0.00597301
0.00596984
0.00596441
0.00595679
0.00594704
0.00593523
0.00592143
0.00590571
0.00588813
0.00586878
0.00584772
0.00582503
0.00580077
0.00577502
0.00574785
0.00571933
0.00568953
0.00565851
0.00562635
0.00559311
0.00555886
0.00552367
0.00548759
0.0054507
0.00541305
0.00537471
0.00533573
0.00529617
0.00525609
0.00521554
0.00517456
0.00513321
0.00509154
0.00504959
0.0050074
0.00496502
0.0049225
0.00487986
0.00483714
0.00479438
0.00475161
0.00470886
0.00466617
0.00462355
0.00458104
0.00453866
0.00449644
0.00445439
0.00441253
0.00437089
0.00432948
0.00428831
0.0042474
0.00420677
0.00416643