/*--------------------------------*- C++ -*----------------------------------*\
  =========                 |
  \\      /  F ield         | OpenFOAM: The Open Source CFD Toolbox
   \\    /   O peration     | Website:  https://openfoam.org
    \\  /    A nd           | Version:  8
     \\/     M anipulation  |
\*---------------------------------------------------------------------------*/
FoamFile
{
    version     2.0;
    format      ascii;
    class       volScalarField;
    location    "2100";
    object      nuTilda;
}
// * * * * * * * * * * * * * * * * * * * * * * * * * * * * * * * * * * * * * //

dimensions      [0 2 -1 0 0 0 0];

internalField   nonuniform List<scalar> 
12225
(
0.0122671
0.00158833
0.000666932
0.000412201
0.000298001
0.000234418
0.000192049
0.000186517
0.000141364
0.000110263
9.73199e-05
9.07189e-05
8.20027e-05
7.63417e-05
7.17067e-05
7.0172e-05
6.81327e-05
7.40045e-05
0.0323823
0.00744533
0.00330642
0.00204338
0.00146818
0.00114477
0.000936743
0.000800566
0.000680242
0.000578059
0.000507246
0.00045356
0.000411866
0.000380371
0.00035202
0.000329993
0.000313754
0.00029588
0.0490123
0.01515
0.00728196
0.00457856
0.00330642
0.00258059
0.00211241
0.00178924
0.00154196
0.00134781
0.00119795
0.00107898
0.000982389
0.000902873
0.000836437
0.000781445
0.000736159
0.000687884
0.063054
0.0237783
0.0122894
0.00788815
0.00573398
0.004485
0.00367415
0.00310736
0.00268476
0.00235811
0.00210119
0.00189468
0.00172542
0.00158464
0.0014663
0.00136623
0.00128167
0.00119814
0.074932
0.0328517
0.0181452
0.0119262
0.00874549
0.00686413
0.00563081
0.00476256
0.0041175
0.00362032
0.00322735
0.00290996
0.00264904
0.00243149
0.00224806
0.00209196
0.00195835
0.00183637
0.0849536
0.0420208
0.0246655
0.0166359
0.0123325
0.00972587
0.0079954
0.00676785
0.00585346
0.00514771
0.00458846
0.00413589
0.00376337
0.00345242
0.00318986
0.002966
0.00277365
0.00260477
0.0933822
0.0510219
0.0316642
0.0219415
0.016474
0.0130717
0.0107779
0.00913552
0.00790571
0.00695341
0.00619691
0.00558368
0.00507838
0.00465634
0.00429978
0.00399563
0.00373417
0.00350821
0.0993794
0.0583363
0.0378386
0.0268568
0.0204171
0.0163053
0.0134892
0.011453
0.00991891
0.00872629
0.00777635
0.00700498
0.00636867
0.00583686
0.00538741
0.00500399
0.00467453
0.00439128
0.104023
0.0645454
0.0433804
0.0314239
0.0241571
0.0194092
0.0161097
0.0137018
0.0118766
0.0104521
0.00931443
0.00838904
0.00762486
0.00698575
0.00644545
0.0059845
0.00558859
0.00524878
0.108368
0.0708939
0.0493756
0.0365496
0.0284517
0.0230231
0.0191863
0.0163547
0.0141926
0.0124968
0.011138
0.0100304
0.00911434
0.0083476
0.0076991
0.00714579
0.00667069
0.00626298
0.112368
0.0772557
0.0557282
0.0421918
0.0332976
0.0271652
0.0227467
0.0194432
0.0168984
0.0148903
0.0132749
0.0119544
0.0108605
0.00994379
0.00916797
0.00850586
0.00793736
0.00744915
0.115994
0.0834975
0.0623053
0.0482611
0.0386474
0.0318167
0.026789
0.0229739
0.0200046
0.0176452
0.0157378
0.0141736
0.0128749
0.011785
0.0108618
0.0100736
0.00939671
0.00881464
0.119234
0.0894856
0.0689377
0.0546109
0.0443919
0.0369007
0.0312597
0.0269088
0.0234836
0.02074
0.0185096
0.0166735
0.0151449
0.01386
0.0127704
0.0118396
0.0110397
0.0103508
0.122086
0.095084
0.075415
0.0610223
0.0503361
0.0422534
0.0360231
0.0311353
0.0272402
0.024093
0.021519
0.0193909
0.017614
0.0161174
0.0148466
0.01376
0.0128257
0.0120196
0.124546
0.100135
0.0814619
0.0671725
0.056158
0.047577
0.0408126
0.0354174
0.031066
0.0275196
0.0246012
0.0221777
0.0201481
0.0184349
0.0169782
0.0157314
0.0146583
0.0137311
0.126578
0.104396
0.0866605
0.0725515
0.0613228
0.0523526
0.0451453
0.0393148
0.0345631
0.0306611
0.0274325
0.0247409
0.0224806
0.020569
0.0189413
0.0175468
0.0163454
0.0153061
0.128011
0.107322
0.0902141
0.0762353
0.0648743
0.0556509
0.0481493
0.0420254
0.0370012
0.0328553
0.0294126
0.0265352
0.0241143
0.0220643
0.0203172
0.0188191
0.0175275
0.0164083
0.128006
0.107313
0.0902048
0.0762269
0.0648674
0.0556454
0.048145
0.0420222
0.0369988
0.0328537
0.0294117
0.0265349
0.0241147
0.0220652
0.0203185
0.0188206
0.0175287
0.0164083
0.126509
0.104255
0.0864922
0.0723807
0.0611613
0.052205
0.0450128
0.0391967
0.0344584
0.0305686
0.0273506
0.0246684
0.0224163
0.0205118
0.0188903
0.0175006
0.0163024
0.0152631
0.124267
0.0995604
0.0807712
0.0664676
0.0554886
0.0469631
0.0402594
0.0349228
0.0306248
0.0271258
0.0242488
0.0218611
0.0198626
0.0181762
0.0167426
0.0155152
0.0144575
0.0135405
0.12136
0.0936399
0.0737261
0.0593348
0.0487592
0.0408249
0.0347467
0.0300003
0.0262308
0.0231928
0.0207127
0.018665
0.0169572
0.0155198
0.0142999
0.0132567
0.0123583
0.0115798
0.117686
0.0865903
0.0656967
0.0514791
0.0415374
0.0343608
0.0290184
0.0249322
0.0217348
0.0191848
0.0171184
0.0154211
0.0140106
0.0128263
0.0118229
0.0109657
0.010228
0.00958895
0.11305
0.0784122
0.056921
0.0432687
0.0342296
0.0279652
0.0234365
0.0200435
0.0174263
0.0153597
0.0136966
0.0123369
0.0112106
0.0102671
0.00946866
0.00878719
0.00820102
0.00769347
0.107169
0.0691009
0.0476372
0.035029
0.0271566
0.021922
0.0182437
0.0155401
0.0134817
0.0118706
0.0105816
0.00953198
0.00866488
0.00793965
0.00732671
0.00680378
0.00635412
0.00596495
0.0996761
0.0587036
0.0381279
0.0270699
0.0205782
0.016433
0.0135949
0.0115438
0.00999923
0.00879909
0.00784342
0.00706756
0.00642794
0.00589354
0.00544235
0.00505737
0.00472638
0.00444013
0.0901097
0.0473665
0.0287363
0.0196847
0.0146976
0.0116312
0.00957853
0.00811529
0.00702332
0.00617995
0.00551059
0.00496792
0.00452125
0.00414798
0.0038335
0.00356469
0.00333345
0.00313391
0.0779076
0.0353826
0.0198606
0.0131383
0.00966107
0.00759298
0.00623353
0.00527431
0.00456401
0.00401884
0.00358703
0.00323602
0.00294756
0.00270531
0.00250294
0.00232861
0.00217798
0.00204899
0.06238
0.0232554
0.0119461
0.00765494
0.00556339
0.00435258
0.00356726
0.00301643
0.00261313
0.00230799
0.00206674
0.001867
0.00170321
0.00156266
0.00144888
0.00134779
0.00125931
0.00118383
0.0426105
0.0117794
0.00546931
0.00341388
0.00246077
0.00192015
0.0015729
0.00132905
0.0011597
0.00103885
0.00094457
0.000858163
0.000786195
0.00072144
0.000667015
0.000616966
0.00057792
0.00053339
0.0168348
0.0025599
0.00110031
0.000684192
0.000495179
0.000389151
0.00032166
0.000270752
0.0002809
0.000338969
0.000384516
0.000373912
0.000344024
0.000314315
0.000286158
0.000252613
0.000249679
0.000182558
3.78122e-06
1.43224e-05
2.60297e-05
3.85381e-05
4.60114e-05
4.96623e-05
5.01551e-05
4.78129e-05
4.46225e-05
3.95538e-05
3.42194e-05
2.94484e-05
2.67712e-05
2.74488e-05
2.96325e-05
3.14819e-05
3.13388e-05
2.85146e-05
2.38721e-05
2.02114e-05
2.08247e-05
2.64244e-05
3.93435e-05
6.39083e-05
8.72019e-05
0.000100615
0.000113336
0.000124344
0.00013433
0.000142833
0.000150424
0.000157043
0.000162905
0.00016806
0.000172591
0.000176618
0.000180205
0.000183424
0.000186321
0.000188932
0.000191281
0.000193387
0.000195265
0.000196927
0.000198387
0.000199655
0.00020074
0.000201649
0.000202381
0.000202805
0.000203297
0.00020338
0.000203439
0.000203323
0.000203046
0.000202632
0.000202076
0.000201383
0.000200555
0.000199594
0.000198501
0.00019728
0.000195933
0.000194464
0.000192874
0.000191167
0.000189344
0.000187408
0.000185363
0.000183212
0.000180957
0.000178602
0.00017615
0.000173602
0.000170962
0.000168231
0.000165411
0.000162503
0.000159511
0.000156433
0.000153272
0.000150029
0.000146704
0.000143295
0.0001398
0.000136211
0.000132522
0.000128721
0.000124799
0.000120744
0.000116539
0.000112164
0.00010762
0.000102966
9.84024e-05
9.44193e-05
9.15962e-05
8.98396e-05
8.85252e-05
8.73204e-05
8.61371e-05
8.49583e-05
8.37824e-05
8.261e-05
8.1442e-05
8.02793e-05
7.91234e-05
7.79784e-05
7.68653e-05
7.59106e-05
7.49767e-05
7.40488e-05
7.31288e-05
7.22172e-05
7.13142e-05
7.04201e-05
6.95354e-05
6.86603e-05
6.77953e-05
6.69404e-05
6.60957e-05
6.52617e-05
6.44385e-05
6.36267e-05
6.28261e-05
6.20367e-05
6.12594e-05
6.052e-05
5.98427e-05
5.91741e-05
5.85107e-05
5.78606e-05
5.72287e-05
5.66019e-05
5.59799e-05
5.5366e-05
5.47612e-05
5.41659e-05
5.35805e-05
5.30046e-05
5.24382e-05
5.1881e-05
5.13331e-05
5.07942e-05
5.02643e-05
4.97431e-05
4.92307e-05
4.87269e-05
4.82316e-05
4.77448e-05
4.72663e-05
4.67962e-05
4.63343e-05
4.58807e-05
4.54354e-05
4.49983e-05
4.45696e-05
4.41493e-05
4.37376e-05
4.33346e-05
4.29405e-05
4.25556e-05
4.218e-05
4.18141e-05
4.14579e-05
4.11118e-05
4.07755e-05
4.0449e-05
4.01316e-05
3.98228e-05
3.95205e-05
3.92249e-05
3.89272e-05
3.86406e-05
3.83117e-05
3.8056e-05
3.75483e-05
3.73535e-05
3.63029e-05
3.49087e-05
5.89818e-06
4.0589e-05
9.24666e-05
0.000153708
0.000192552
0.000214555
0.000223347
0.000221919
0.000214075
0.000198517
0.000179501
0.000161548
0.000152481
0.000157008
0.000169321
0.000177335
0.000179533
0.000180676
0.000185631
0.00019434
0.000208078
0.000224512
0.000240377
0.000256186
0.000267067
0.000276645
0.000285195
0.000297692
0.00031634
0.000330004
0.000342517
0.000353262
0.000363042
0.000372014
0.000379811
0.000386934
0.00039357
0.00039994
0.000406173
0.000412332
0.000418415
0.000424377
0.000430166
0.000435742
0.000441076
0.000446152
0.000450955
0.000455471
0.000459702
0.000463647
0.000467346
0.000470764
0.00047394
0.000476862
0.000479536
0.000481963
0.000484142
0.000486075
0.000487763
0.000489205
0.000490402
0.000491355
0.000492066
0.00049254
0.000492787
0.000492812
0.000492609
0.000492175
0.000491526
0.000490665
0.000489599
0.000488335
0.000486878
0.000485236
0.000483416
0.000481424
0.000479269
0.000476957
0.000474497
0.000471896
0.000469161
0.000466302
0.000463326
0.000460241
0.000457057
0.00045378
0.000450418
0.00044698
0.000443474
0.000439907
0.000436286
0.000432616
0.000428896
0.000425121
0.00042127
0.000417318
0.00041325
0.000409092
0.000404895
0.000400684
0.000396466
0.000392245
0.000388025
0.000383809
0.000379601
0.000375404
0.000371221
0.000367054
0.000362903
0.000358766
0.000354654
0.000350572
0.00034652
0.000342501
0.000338516
0.000334568
0.000330658
0.000326787
0.000322958
0.00031917
0.000315424
0.000311723
0.000308066
0.000304455
0.000300891
0.000297373
0.000293902
0.000290476
0.000287093
0.000283757
0.000280467
0.00027723
0.000274047
0.000270903
0.000267797
0.000264735
0.000261718
0.000258749
0.000255826
0.00025295
0.00025012
0.000247336
0.000244596
0.000241901
0.000239249
0.00023664
0.000234074
0.00023155
0.000229068
0.000226627
0.000224226
0.000221867
0.000219547
0.000217268
0.000215029
0.00021283
0.000210672
0.000208555
0.00020648
0.000204448
0.00020246
0.000200517
0.00019862
0.000196772
0.000194973
0.000193225
0.000191529
0.000189885
0.000188291
0.000186747
0.000185247
0.000183793
0.000182356
0.000180993
0.000179509
0.000178386
0.00017629
0.000175967
0.000172988
0.000172126
1.28769e-05
7.40673e-05
0.000174305
0.000251873
0.000303654
0.00033336
0.00034421
0.000341392
0.000328794
0.000309925
0.000290645
0.000278293
0.000276103
0.000282579
0.000292643
0.000303196
0.000315665
0.000332281
0.000353515
0.000378315
0.00040539
0.000433478
0.0004714
0.000517515
0.000562964
0.000606964
0.000649942
0.000693513
0.000732776
0.000764013
0.000788984
0.000808781
0.000824475
0.000836928
0.000846921
0.000855228
0.000862549
0.000869528
0.000876701
0.000884424
0.000892805
0.000901719
0.000910928
0.000920197
0.000929346
0.000938257
0.000946854
0.000955089
0.000962925
0.000970334
0.000977295
0.000983776
0.000989776
0.000995287
0.00100031
0.00100484
0.00100888
0.00101242
0.00101547
0.00101804
0.0010201
0.00102168
0.00102276
0.00102331
0.00102346
0.00102318
0.00102239
0.00102114
0.00101946
0.00101734
0.0010148
0.00101186
0.00100853
0.00100482
0.00100074
0.00099631
0.000991547
0.000986463
0.000981073
0.000975392
0.000969437
0.000963221
0.00095676
0.00095007
0.000943164
0.00093606
0.00092877
0.000921309
0.000913691
0.000905928
0.000898034
0.000890019
0.000881892
0.000873662
0.000865337
0.000856926
0.000848443
0.000839902
0.00083132
0.000822711
0.000814085
0.000805452
0.000796818
0.000788193
0.000779582
0.000770993
0.000762433
0.000753907
0.000745421
0.000736981
0.000728592
0.000720259
0.000711988
0.000703782
0.000695645
0.00068758
0.00067959
0.000671678
0.000663848
0.000656101
0.000648438
0.000640863
0.000633377
0.000625982
0.000618678
0.000611468
0.00060435
0.000597325
0.000590394
0.000583559
0.000576818
0.000570173
0.000563622
0.000557159
0.000550783
0.000544496
0.0005383
0.000532197
0.000526186
0.000520266
0.000514437
0.000508697
0.000503047
0.000497483
0.000492006
0.000486615
0.000481308
0.000476083
0.000470941
0.00046588
0.000460898
0.000455994
0.000451169
0.000446419
0.000441745
0.000437146
0.000432619
0.000428164
0.00042378
0.000419465
0.000415218
0.000411038
0.000406922
0.000402869
0.000398876
0.000394939
0.000391055
0.000387218
0.000383421
0.000379657
0.000375913
0.000372175
0.000368419
0.000364627
0.000360725
0.000356747
0.000352328
0.000348026
0.000341568
0.000330416
2.17717e-05
0.000106434
0.000220239
0.000312834
0.000375512
0.000412494
0.000427921
0.000428308
0.000418389
0.000405121
0.000397053
0.000396226
0.000405353
0.000422395
0.000444954
0.000472507
0.000505658
0.000544777
0.000589061
0.000651113
0.000724816
0.00080448
0.000888643
0.00095924
0.00102162
0.00107771
0.0011281
0.00117298
0.00121223
0.00124611
0.00127534
0.00130066
0.00132277
0.00134231
0.00135984
0.00137586
0.00139078
0.00140494
0.0014186
0.00143195
0.00144511
0.00145816
0.00147112
0.00148397
0.00149666
0.00150912
0.00152125
0.00153295
0.00154414
0.00155474
0.00156469
0.00157396
0.00158253
0.00159039
0.00159753
0.00160394
0.00160961
0.00161455
0.00161875
0.00162221
0.00162493
0.00162691
0.00162806
0.0016285
0.00162837
0.00162746
0.00162584
0.00162352
0.00162052
0.00161686
0.00161257
0.00160765
0.00160213
0.00159603
0.00158937
0.00158218
0.00157448
0.00156628
0.00155762
0.00154851
0.00153898
0.00152906
0.00151876
0.0015081
0.00149712
0.00148583
0.00147426
0.00146243
0.00145035
0.00143806
0.00142556
0.00141288
0.00140004
0.00138704
0.00137391
0.00136066
0.00134732
0.00133389
0.00132041
0.00130688
0.00129332
0.00127975
0.00126618
0.00125263
0.0012391
0.0012256
0.00121215
0.00119875
0.00118541
0.00117215
0.00115897
0.00114587
0.00113287
0.00111997
0.00110718
0.0010945
0.00108193
0.00106949
0.00105717
0.00104498
0.00103293
0.001021
0.00100922
0.00099757
0.000986065
0.000974703
0.000963484
0.000952411
0.000941482
0.0009307
0.000920065
0.000909576
0.000899231
0.000889025
0.000878957
0.00086903
0.000859243
0.000849597
0.000840092
0.000830728
0.000821503
0.000812416
0.000803466
0.00079465
0.000785967
0.000777416
0.000768994
0.0007607
0.000752532
0.000744488
0.000736567
0.000728766
0.000721084
0.00071352
0.00070607
0.000698734
0.000691509
0.000684394
0.000677386
0.000670483
0.000663683
0.000656984
0.000650381
0.000643873
0.000637454
0.00063112
0.000624864
0.00061868
0.000612557
0.000606484
0.000600443
0.000594414
0.000588368
0.000582267
0.000576046
0.000569652
0.000562902
0.000555741
0.00054752
0.000531423
2.69712e-05
0.000122012
0.000241114
0.000357833
0.000435852
0.000483014
0.000506514
0.000514938
0.000516505
0.000517488
0.000524334
0.000540421
0.00056637
0.000601233
0.000644233
0.000695397
0.00075537
0.000838673
0.000934249
0.00103039
0.00111935
0.00120371
0.00128303
0.0013557
0.00142245
0.00148384
0.0015403
0.00159214
0.00163973
0.00168349
0.00172392
0.00176148
0.00179661
0.00182969
0.00186102
0.00189086
0.0019194
0.00194678
0.00197311
0.00199843
0.00202279
0.0020462
0.00206864
0.0020901
0.00211057
0.00213
0.00214837
0.00216564
0.0021818
0.00219682
0.00221069
0.00222342
0.00223501
0.00224548
0.00225485
0.00226313
0.00227035
0.00227651
0.00228164
0.00228574
0.00228884
0.00229089
0.00229181
0.00229189
0.00229102
0.00228914
0.00228631
0.00228254
0.00227785
0.00227227
0.00226582
0.00225854
0.00225044
0.00224156
0.00223193
0.00222158
0.00221054
0.00219883
0.0021865
0.00217357
0.00216008
0.00214605
0.00213151
0.00211651
0.00210105
0.00208519
0.00206895
0.00205235
0.00203543
0.00201822
0.00200074
0.00198301
0.00196507
0.00194694
0.00192863
0.00191018
0.0018916
0.00187292
0.00185417
0.00183536
0.00181652
0.00179766
0.0017788
0.00175997
0.00174117
0.00172242
0.00170374
0.00168513
0.00166661
0.00164819
0.00162988
0.00161169
0.00159364
0.00157572
0.00155795
0.00154033
0.00152288
0.00150559
0.00148847
0.00147153
0.00145477
0.0014382
0.00142181
0.00140562
0.00138961
0.00137381
0.00135819
0.00134278
0.00132757
0.00131255
0.00129774
0.00128312
0.0012687
0.00125448
0.00124044
0.0012266
0.00121295
0.0011995
0.00118623
0.00117316
0.00116027
0.00114758
0.00113507
0.00112274
0.00111059
0.00109862
0.00108683
0.00107521
0.00106376
0.00105248
0.00104137
0.00103042
0.00101963
0.001009
0.000998528
0.000988207
0.000978037
0.000968014
0.000958136
0.0009484
0.000938803
0.000929341
0.00092001
0.000910806
0.000901723
0.000892756
0.000883897
0.000875136
0.000866463
0.000857862
0.000849314
0.000840794
0.000832269
0.000823694
0.000815003
0.000806125
0.000796894
0.000787165
0.000777209
0.000757425
3.07979e-05
0.000135318
0.000261503
0.000392463
0.000488735
0.000550339
0.000588057
0.000611444
0.000629151
0.000648424
0.000674504
0.000710041
0.000755777
0.00081199
0.000879089
0.000969511
0.00107458
0.00117625
0.00127543
0.0013709
0.00146158
0.00154756
0.00162879
0.00170523
0.00177719
0.001845
0.00190901
0.00196955
0.00202696
0.00208156
0.00213368
0.00218361
0.00223159
0.00227783
0.00232249
0.0023657
0.00240755
0.00244809
0.00248734
0.00252533
0.00256204
0.00259745
0.00263154
0.00266428
0.00269561
0.00272552
0.00275394
0.00278085
0.00280621
0.00282998
0.00285213
0.00287265
0.00289152
0.00290872
0.00292426
0.00293812
0.00295032
0.00296086
0.00296975
0.00297702
0.00298267
0.00298675
0.00298918
0.00299008
0.00298962
0.00298765
0.00298431
0.0029796
0.0029736
0.00296635
0.0029579
0.00294831
0.00293762
0.0029259
0.00291318
0.00289951
0.00288495
0.00286954
0.00285331
0.00283632
0.00281861
0.00280022
0.00278119
0.00276156
0.00274137
0.00272066
0.00269947
0.00267784
0.00265581
0.00263341
0.00261068
0.00258766
0.00256436
0.00254083
0.0025171
0.00249319
0.00246914
0.00244497
0.00242071
0.00239638
0.00237202
0.00234765
0.00232329
0.00229895
0.00227467
0.00225045
0.00222632
0.00220229
0.00217838
0.0021546
0.00213096
0.00210748
0.00208417
0.00206104
0.00203809
0.00201535
0.00199281
0.00197048
0.00194837
0.00192649
0.00190484
0.00188342
0.00186225
0.00184131
0.00182063
0.00180019
0.00178
0.00176006
0.00174038
0.00172094
0.00170176
0.00168284
0.00166416
0.00164573
0.00162754
0.0016096
0.00159191
0.00157446
0.00155725
0.00154028
0.00152355
0.00150705
0.00149079
0.00147477
0.00145897
0.00144339
0.00142804
0.00141291
0.00139799
0.00138328
0.00136879
0.0013545
0.00134041
0.00132652
0.00131283
0.00129932
0.00128601
0.00127289
0.00125994
0.00124718
0.00123459
0.00122216
0.00120991
0.00119781
0.00118587
0.00117408
0.00116242
0.0011509
0.00113949
0.00112817
0.00111694
0.00110576
0.00109459
0.00108339
0.00107209
0.00106062
0.00104882
0.00103661
0.00102444
0.00100197
3.23479e-05
0.0001425
0.000273966
0.000409846
0.000527783
0.000609
0.000665051
0.000706968
0.000743957
0.000783267
0.000829948
0.000886948
0.000955894
0.00104816
0.0011551
0.00126167
0.00136774
0.00147108
0.00157114
0.00166748
0.00175986
0.00184829
0.00193284
0.00201369
0.00209108
0.00216527
0.00223654
0.00230517
0.0023714
0.00243547
0.00249759
0.00255795
0.00261668
0.00267391
0.00272971
0.00278416
0.00283727
0.00288907
0.00293954
0.00298868
0.00303645
0.00308281
0.00312772
0.00317112
0.00321298
0.00325323
0.00329182
0.00332871
0.00336383
0.00339715
0.00342861
0.00345819
0.00348584
0.00351155
0.00353527
0.00355699
0.0035767
0.00359438
0.00361004
0.00362366
0.00363526
0.00364484
0.00365241
0.00365803
0.00366168
0.0036633
0.00366322
0.00366123
0.00365745
0.00365194
0.00364473
0.00363589
0.00362547
0.00361354
0.00360016
0.00358539
0.0035693
0.00355196
0.00353343
0.00351378
0.00349308
0.00347139
0.00344879
0.00342533
0.00340108
0.0033761
0.00335046
0.00332421
0.0032974
0.0032701
0.00324234
0.00321419
0.00318568
0.00315687
0.00312779
0.00309848
0.00306898
0.00303933
0.00300957
0.00297972
0.00294982
0.0029199
0.00288998
0.0028601
0.00283028
0.00280054
0.0027709
0.00274138
0.002712
0.00268278
0.00265373
0.00262488
0.00259623
0.00256779
0.00253959
0.00251162
0.0024839
0.00245644
0.00242925
0.00240232
0.00237568
0.00234932
0.00232325
0.00229747
0.00227199
0.00224681
0.00222193
0.00219735
0.00217308
0.00214911
0.00212545
0.00210209
0.00207903
0.00205627
0.0020338
0.00201163
0.00198976
0.00196818
0.00194689
0.00192589
0.00190518
0.00188475
0.0018646
0.00184473
0.00182514
0.00180581
0.00178675
0.00176796
0.00174942
0.00173114
0.0017131
0.00169532
0.00167778
0.00166048
0.00164341
0.00162658
0.00160997
0.00159359
0.00157742
0.00156147
0.00154573
0.0015302
0.00151487
0.00149973
0.00148478
0.00147001
0.00145541
0.00144097
0.00142668
0.00141251
0.00139845
0.00138447
0.00137053
0.00135659
0.00134257
0.0013284
0.00131393
0.00129918
0.00128417
0.00125993
3.27957e-05
0.000144125
0.000275311
0.00040943
0.000539334
0.000642641
0.00071973
0.00078108
0.00083681
0.000894605
0.000962153
0.00105406
0.00116364
0.00128532
0.00140087
0.00151212
0.00161993
0.00172449
0.00182573
0.00192359
0.00201808
0.00210928
0.00219733
0.00228242
0.00236477
0.0024446
0.00252213
0.00259759
0.00267115
0.00274298
0.00281324
0.00288204
0.00294947
0.0030156
0.00308046
0.00314407
0.00320644
0.00326755
0.00332738
0.00338587
0.00344299
0.00349868
0.00355288
0.00360553
0.00365657
0.00370592
0.00375352
0.00379931
0.00384323
0.00388522
0.00392522
0.00396319
0.00399907
0.00403283
0.00406442
0.00409382
0.004121
0.00414593
0.0041686
0.004189
0.00420713
0.00422298
0.00423656
0.00424789
0.00425698
0.00426385
0.00426857
0.00427102
0.00427146
0.00426981
0.00426614
0.0042605
0.00425293
0.0042435
0.00423227
0.0042193
0.00420465
0.0041884
0.0041706
0.00415133
0.00413067
0.00410868
0.00408543
0.004061
0.00403546
0.00400888
0.00398134
0.0039529
0.00392363
0.0038936
0.00386287
0.00383151
0.00379957
0.00376713
0.00373423
0.00370094
0.00366729
0.00363336
0.00359918
0.0035648
0.00353028
0.00349564
0.00346094
0.0034262
0.00339147
0.00335677
0.00332214
0.0032876
0.00325318
0.00321891
0.00318481
0.00315089
0.00311719
0.00308371
0.00305047
0.00301749
0.00298478
0.00295235
0.00292022
0.00288838
0.00285686
0.00282566
0.00279478
0.00276424
0.00273403
0.00270415
0.00267462
0.00264544
0.0026166
0.00258811
0.00255997
0.00253218
0.00250473
0.00247763
0.00245087
0.00242445
0.00239837
0.00237263
0.00234722
0.00232215
0.00229741
0.00227299
0.0022489
0.00222514
0.00220169
0.00217855
0.00215572
0.0021332
0.00211097
0.00208904
0.00206741
0.00204606
0.002025
0.00200421
0.0019837
0.00196346
0.00194348
0.00192376
0.00190431
0.0018851
0.00186614
0.00184742
0.00182894
0.00181068
0.00179265
0.00177483
0.00175722
0.0017398
0.00172255
0.00170547
0.00168852
0.00167167
0.0016549
0.00163814
0.00162133
0.00160441
0.00158721
0.00156981
0.00155188
0.00152575
3.22375e-05
0.000141196
0.000268903
0.000398013
0.000521849
0.000633959
0.000727732
0.000808811
0.000891781
0.000987049
0.00109623
0.00122087
0.00135724
0.00148473
0.00160501
0.00172002
0.00183072
0.00193748
0.00204062
0.00214049
0.00223731
0.00233128
0.00242259
0.00251145
0.00259807
0.00268264
0.00276537
0.00284641
0.00292593
0.00300406
0.0030809
0.00315652
0.003231
0.00330435
0.0033766
0.00344773
0.00351773
0.00358655
0.00365416
0.00372048
0.00378547
0.00384904
0.00391112
0.00397164
0.00403052
0.00408768
0.00414304
0.00419653
0.00424808
0.00429761
0.00434507
0.00439038
0.0044335
0.00447438
0.00451295
0.0045492
0.00458308
0.00461456
0.00464362
0.00467025
0.00469443
0.00471615
0.00473543
0.00475226
0.00476667
0.00477866
0.00478826
0.00479549
0.00480043
0.00480299
0.00480338
0.00480157
0.0047976
0.00479154
0.00478344
0.00477335
0.00476135
0.0047475
0.00473186
0.0047145
0.00469549
0.00467491
0.00465282
0.00462929
0.00460441
0.00457823
0.00455085
0.00452232
0.00449272
0.00446213
0.00443061
0.00439822
0.00436504
0.00433114
0.00429657
0.0042614
0.00422569
0.0041895
0.00415289
0.00411592
0.00407863
0.00404109
0.00400333
0.00396541
0.00392737
0.00388925
0.00385109
0.00381292
0.00377479
0.00373673
0.00369876
0.00366091
0.00362322
0.00358571
0.00354839
0.00351129
0.00347444
0.00343784
0.00340152
0.00336548
0.00332975
0.00329433
0.00325923
0.00322447
0.00319005
0.00315597
0.00312225
0.0030889
0.0030559
0.00302327
0.00299102
0.00295913
0.00292761
0.00289647
0.00286569
0.00283529
0.00280525
0.00277559
0.00274629
0.00271736
0.00268878
0.00266058
0.00263272
0.00260523
0.00257808
0.00255128
0.00252482
0.00249871
0.00247293
0.00244748
0.00242235
0.00239755
0.00237306
0.00234889
0.00232503
0.00230147
0.00227822
0.00225525
0.00223258
0.00221019
0.00218809
0.00216625
0.00214469
0.00212339
0.00210234
0.00208154
0.00206098
0.00204063
0.00202049
0.00200054
0.00198076
0.0019611
0.00194154
0.00192201
0.00190246
0.00188281
0.00186293
0.00184287
0.00182212
0.0017938
3.08682e-05
0.00013511
0.000258109
0.000383391
0.000505341
0.000621404
0.00073204
0.000840993
0.000955813
0.00108163
0.00121969
0.00136943
0.00151171
0.00164367
0.00176792
0.00188634
0.00200005
0.00210969
0.00221565
0.00231813
0.00241753
0.00251424
0.00260854
0.00270069
0.00279093
0.00287946
0.00296645
0.00305206
0.00313643
0.00321967
0.00330186
0.00338306
0.0034633
0.00354259
0.00362093
0.0036983
0.00377465
0.00384993
0.00392407
0.003997
0.00406864
0.00413891
0.00420772
0.00427497
0.00434058
0.00440446
0.00446651
0.00452665
0.0045848
0.00464088
0.00469481
0.00474653
0.00479597
0.00484306
0.00488777
0.00493004
0.00496982
0.0050071
0.00504183
0.005074
0.0051036
0.00513061
0.00515503
0.00517687
0.00519613
0.00521283
0.005227
0.00523865
0.00524783
0.00525455
0.00525887
0.0052608
0.00526046
0.00525785
0.00525304
0.00524607
0.00523702
0.00522594
0.0052129
0.00519796
0.0051812
0.00516268
0.00514248
0.00512066
0.0050973
0.00507247
0.00504625
0.0050187
0.00498991
0.00495993
0.00492885
0.00489672
0.00486363
0.00482963
0.0047948
0.0047592
0.00472289
0.00468593
0.0046484
0.00461034
0.00457182
0.00453289
0.00449361
0.00445402
0.00441418
0.00437414
0.00433393
0.0042936
0.0042532
0.00421275
0.0041723
0.00413189
0.00409153
0.00405127
0.00401114
0.00397115
0.00393134
0.00389172
0.00385233
0.00381317
0.00377427
0.00373564
0.0036973
0.00365926
0.00362154
0.00358414
0.00354707
0.00351035
0.00347398
0.00343797
0.00340231
0.00336703
0.00333211
0.00329757
0.0032634
0.0032296
0.00319619
0.00316315
0.00313048
0.0030982
0.00306629
0.00303475
0.00300359
0.0029728
0.00294238
0.00291233
0.00288264
0.00285331
0.00282433
0.00279571
0.00276744
0.00273951
0.00271193
0.00268468
0.00265776
0.00263118
0.00260492
0.00257898
0.00255335
0.00252804
0.00250303
0.00247833
0.00245392
0.0024298
0.00240596
0.00238239
0.00235908
0.00233602
0.0023132
0.00229058
0.00226815
0.00224587
0.00222371
0.0022016
0.00217949
0.00215729
0.00213489
0.00211232
0.00208902
0.00205836
2.93174e-05
0.000128791
0.000248237
0.000372468
0.000497091
0.000621006
0.000745651
0.00087497
0.00101222
0.00115947
0.00131685
0.00147861
0.00162639
0.00176283
0.00189092
0.00201267
0.00212936
0.00224179
0.00235052
0.00245593
0.00255832
0.00265787
0.00275504
0.00285018
0.00294356
0.00303543
0.00312599
0.00321539
0.00330377
0.00339123
0.00347785
0.00356366
0.00364869
0.00373293
0.00381638
0.00389898
0.00398068
0.00406142
0.00414112
0.00421968
0.00429701
0.00437302
0.00444761
0.00452066
0.00459209
0.00466177
0.00472963
0.00479555
0.00485945
0.00492124
0.00498084
0.00503816
0.00509314
0.00514571
0.00519581
0.00524339
0.0052884
0.00533081
0.00537059
0.00540771
0.00544214
0.00547389
0.00550294
0.0055293
0.00555298
0.00557398
0.00559233
0.00560805
0.00562117
0.00563173
0.00563976
0.0056453
0.00564841
0.00564913
0.00564753
0.00564365
0.00563756
0.00562931
0.00561898
0.00560661
0.00559229
0.00557607
0.00555804
0.00553826
0.0055168
0.00549374
0.00546915
0.0054431
0.00541567
0.00538692
0.00535692
0.00532575
0.00529347
0.00526015
0.00522587
0.00519067
0.00515464
0.00511784
0.00508032
0.00504215
0.00500339
0.00496409
0.00492432
0.00488413
0.00484356
0.00480267
0.00476151
0.00472011
0.00467854
0.00463682
0.004595
0.00455311
0.0045112
0.00446929
0.00442743
0.00438563
0.00434393
0.00430235
0.00426093
0.00421967
0.00417862
0.00413778
0.00409717
0.00405681
0.00401673
0.00397692
0.00393741
0.0038982
0.00385932
0.00382075
0.00378253
0.00374464
0.00370711
0.00366993
0.0036331
0.00359664
0.00356054
0.00352481
0.00348945
0.00345446
0.00341984
0.0033856
0.00335172
0.00331822
0.00328509
0.00325233
0.00321994
0.00318791
0.00315625
0.00312495
0.003094
0.00306341
0.00303318
0.00300329
0.00297375
0.00294455
0.00291569
0.00288717
0.00285897
0.00283111
0.00280357
0.00277635
0.00274944
0.00272283
0.00269653
0.00267052
0.00264478
0.00261932
0.0025941
0.00256912
0.00254434
0.00251973
0.00249526
0.00247086
0.00244647
0.00242202
0.0023974
0.0023726
0.0023471
0.00231428
2.76233e-05
0.000122192
0.000238215
0.000361766
0.000489209
0.000619917
0.000756147
0.000899677
0.00105218
0.00121417
0.00138614
0.00155208
0.00170385
0.00184415
0.00197574
0.00210062
0.00222011
0.00233516
0.00244642
0.0025544
0.00265947
0.00276194
0.00286208
0.00296009
0.00305637
0.00315123
0.00324489
0.00333756
0.00342936
0.00352041
0.00361077
0.0037005
0.0037896
0.00387806
0.00396585
0.00405293
0.00413922
0.00422464
0.00430911
0.00439252
0.00447477
0.00455574
0.00463532
0.00471341
0.00478988
0.00486463
0.00493754
0.00500851
0.00507743
0.00514422
0.00520878
0.00527102
0.00533088
0.00538827
0.00544314
0.00549543
0.00554508
0.00559207
0.00563634
0.00567789
0.00571667
0.00575269
0.00578593
0.00581639
0.00584408
0.00586902
0.00589121
0.00591069
0.00592748
0.00594162
0.00595313
0.00596207
0.00596848
0.0059724
0.00597389
0.00597302
0.00596985
0.00596442
0.0059568
0.00594705
0.00593524
0.00592144
0.00590572
0.00588814
0.00586879
0.00584773
0.00582504
0.00580078
0.00577503
0.00574786
0.00571934
0.00568954
0.00565852
0.00562636
0.00559312
0.00555888
0.00552368
0.00548761
0.00545071
0.00541307
0.00537472
0.00533575
0.00529619
0.0052561
0.00521555
0.00517457
0.00513322
0.00509155
0.0050496
0.00500742
0.00496504
0.00492251
0.00487987
0.00483715
0.00479439
0.00475162
0.00470888
0.00466618
0.00462357
0.00458106
0.00453868
0.00449645
0.0044544
0.00441255
0.00437091
0.00432949
0.00428833
0.00424742
0.00420679
0.00416645
0.0041264
0.00408666