/*--------------------------------*- C++ -*----------------------------------*\
  =========                 |
  \\      /  F ield         | OpenFOAM: The Open Source CFD Toolbox
   \\    /   O peration     | Website:  https://openfoam.org
    \\  /    A nd           | Version:  8
     \\/     M anipulation  |
\*---------------------------------------------------------------------------*/
FoamFile
{
    version     2.0;
    format      ascii;
    class       surfaceScalarField;
    location    "2100";
    object      phi;
}
// * * * * * * * * * * * * * * * * * * * * * * * * * * * * * * * * * * * * * //

dimensions      [0 3 -1 0 0 0 0];

internalField   nonuniform List<scalar> 
24170
(
3.92539e-06
-7.91498e-07
3.76465e-06
1.6075e-07
3.63345e-06
1.31209e-07
3.43331e-06
2.00144e-07
3.28028e-06
1.53027e-07
3.18901e-06
9.11907e-08
3.13091e-06
5.81104e-08
3.08609e-06
4.58913e-08
3.04613e-06
4.23239e-08
3.01059e-06
3.81633e-08
2.97876e-06
3.3803e-08
2.94904e-06
3.07708e-08
2.92187e-06
2.73781e-08
2.89642e-06
2.52001e-08
2.87227e-06
2.36052e-08
2.85193e-06
1.94834e-08
2.84097e-06
9.85629e-09
-6.37956e-09
2.84668e-06
3.58445e-06
-9.19499e-07
3.80424e-06
-5.90412e-08
3.74282e-06
1.92629e-07
3.6906e-06
2.52375e-07
3.63729e-06
2.06333e-07
3.59023e-06
1.3828e-07
3.55289e-06
9.55997e-08
3.52309e-06
7.566e-08
3.49853e-06
6.65702e-08
3.47732e-06
5.92158e-08
3.45871e-06
5.25298e-08
3.44252e-06
4.72649e-08
3.42795e-06
4.2338e-08
3.41466e-06
3.87863e-08
3.40269e-06
3.573e-08
3.39122e-06
3.10518e-08
3.38036e-06
2.0841e-08
4.77852e-09
3.36944e-06
3.68518e-06
-7.92482e-07
3.83639e-06
-2.1025e-07
3.91494e-06
1.14082e-07
3.94502e-06
2.22293e-07
3.94408e-06
2.07265e-07
3.92749e-06
1.54897e-07
3.90755e-06
1.15615e-07
3.88932e-06
9.36448e-08
3.874e-06
8.1197e-08
3.86056e-06
7.19164e-08
3.84834e-06
6.42565e-08
3.83728e-06
5.81356e-08
3.82691e-06
5.27794e-08
3.8174e-06
4.84752e-08
3.80891e-06
4.44336e-08
3.80097e-06
3.92533e-08
3.79195e-06
3.02068e-08
1.77957e-08
3.77944e-06
4.05359e-06
-6.4151e-07
4.1146e-06
-2.71259e-07
4.20799e-06
2.06917e-08
4.26635e-06
1.63932e-07
4.29069e-06
1.82926e-07
4.29287e-06
1.52749e-07
4.28571e-06
1.22819e-07
4.27631e-06
1.02844e-07
4.26727e-06
8.96866e-08
4.25873e-06
7.9818e-08
4.25056e-06
7.19501e-08
4.24283e-06
6.56351e-08
4.23534e-06
6.02466e-08
4.22824e-06
5.56934e-08
4.22149e-06
5.13527e-08
4.21464e-06
4.63455e-08
4.20599e-06
3.91837e-08
3.06589e-08
4.19351e-06
4.50491e-06
-5.09114e-07
4.51536e-06
-2.81708e-07
4.58529e-06
-4.92341e-08
4.64665e-06
1.02566e-07
4.68258e-06
1.46992e-07
4.69688e-06
1.38473e-07
4.69946e-06
1.20238e-07
4.69723e-06
1.04926e-07
4.69331e-06
9.32555e-08
4.68868e-06
8.40577e-08
4.68366e-06
7.66423e-08
4.67851e-06
7.06085e-08
4.67321e-06
6.54949e-08
4.66783e-06
6.11063e-08
4.66227e-06
5.70055e-08
4.65606e-06
5.27036e-08
4.64786e-06
4.75912e-08
4.2605e-08
4.63612e-06
5.00014e-06
-3.94663e-07
4.98614e-06
-2.67704e-07
5.03069e-06
-9.37788e-08
5.08506e-06
4.81981e-08
5.12454e-06
1.07517e-07
5.14608e-06
1.16941e-07
5.15584e-06
1.10489e-07
5.1594e-06
1.01286e-07
5.15985e-06
9.26082e-08
5.15859e-06
8.50841e-08
5.15629e-06
7.87434e-08
5.15333e-06
7.34432e-08
5.14984e-06
6.89343e-08
5.14589e-06
6.50643e-08
5.14136e-06
6.15874e-08
5.13584e-06
5.83101e-08
5.12839e-06
5.5149e-08
5.30515e-08
5.11808e-06
5.54382e-06
-2.97475e-07
5.51664e-06
-2.40529e-07
5.54055e-06
-1.17686e-07
5.58388e-06
4.87054e-09
5.62166e-06
6.97346e-08
5.64656e-06
9.20464e-08
5.66107e-06
9.59688e-08
5.66906e-06
9.32475e-08
5.67315e-06
8.84248e-08
5.67481e-06
8.33016e-08
5.6749e-06
7.85523e-08
5.6739e-06
7.43761e-08
5.67204e-06
7.07664e-08
5.6694e-06
6.76966e-08
5.66591e-06
6.51004e-08
5.66127e-06
6.29889e-08
5.65494e-06
6.15478e-08
6.15327e-08
5.6465e-06
4.34788e-06
-2.39242e-07
4.32251e-06
-2.15162e-07
4.33078e-06
-1.25951e-07
4.35419e-06
-1.85361e-08
4.3784e-06
4.55262e-08
4.39646e-06
7.39852e-08
4.40841e-06
8.40231e-08
4.41597e-06
8.56741e-08
4.42059e-06
8.37681e-08
4.42325e-06
8.05981e-08
4.42456e-06
7.71971e-08
4.4249e-06
7.40034e-08
4.42446e-06
7.11807e-08
4.42334e-06
6.8811e-08
4.42151e-06
6.69376e-08
4.41884e-06
6.56717e-08
4.41514e-06
6.52696e-08
6.63496e-08
4.41035e-06
5.08621e-06
-1.85599e-07
5.05777e-06
-1.86718e-07
5.0584e-06
-1.26578e-07
5.07686e-06
-3.70021e-08
5.09918e-06
2.32143e-08
5.11773e-06
5.54365e-08
5.13124e-06
7.05074e-08
5.14059e-06
7.63171e-08
5.14686e-06
7.7476e-08
5.15094e-06
7.64976e-08
5.15344e-06
7.46767e-08
5.15477e-06
7.26669e-08
5.15514e-06
7.07974e-08
5.15468e-06
6.92649e-08
5.15341e-06
6.82108e-08
5.15128e-06
6.7814e-08
5.14821e-06
6.83511e-08
7.02727e-08
5.14429e-06
5.94839e-06
-1.38193e-07
5.91832e-06
-1.56649e-07
5.91161e-06
-1.19866e-07
5.924e-06
-4.93965e-08
5.94286e-06
4.35896e-09
5.96058e-06
3.77172e-08
5.97479e-06
5.62916e-08
5.98546e-06
6.56469e-08
5.9932e-06
6.97362e-08
5.99867e-06
7.10177e-08
6.00242e-06
7.09159e-08
6.00484e-06
7.02402e-08
6.00618e-06
6.94585e-08
6.00657e-06
6.88677e-08
6.0061e-06
6.86883e-08
6.00478e-06
6.9136e-08
6.00267e-06
7.0462e-08
7.29758e-08
5.99997e-06
6.95439e-06
-9.83129e-08
6.92401e-06
-1.26278e-07
6.91113e-06
-1.06984e-07
6.9168e-06
-5.50654e-08
6.93087e-06
-9.7101e-09
6.94635e-06
2.22398e-08
6.96015e-06
4.24933e-08
6.9714e-06
5.43967e-08
6.98017e-06
6.09619e-08
6.98684e-06
6.43481e-08
6.9918e-06
6.59556e-08
6.99537e-06
6.66651e-08
6.9978e-06
6.70309e-08
6.99924e-06
6.74244e-08
6.99982e-06
6.81135e-08
6.99963e-06
6.93245e-08
6.99883e-06
7.12675e-08
7.41291e-08
6.99768e-06
8.12719e-06
-6.64876e-08
8.09793e-06
-9.70209e-08
8.08056e-06
-8.96086e-08
8.07955e-06
-5.40584e-08
8.08793e-06
-1.8089e-08
8.09985e-06
1.03232e-08
8.11198e-06
3.03593e-08
8.12286e-06
4.35226e-08
8.13202e-06
5.17959e-08
8.1395e-06
5.68682e-08
8.14548e-06
5.99759e-08
8.15018e-06
6.19703e-08
8.15378e-06
6.34316e-08
8.15644e-06
6.47572e-08
8.15832e-06
6.62336e-08
8.15958e-06
6.80742e-08
8.1604e-06
7.04408e-08
7.34387e-08
8.16109e-06
9.49368e-06
-4.24386e-08
9.4668e-06
-7.01426e-08
9.44683e-06
-6.964e-08
9.43991e-06
-4.71315e-08
9.44229e-06
-2.04676e-08
9.44965e-06
2.95584e-09
9.45895e-06
2.10648e-08
9.4684e-06
3.40709e-08
9.47716e-06
4.30367e-08
9.48491e-06
4.9121e-08
9.49159e-06
5.32939e-08
9.49727e-06
5.62918e-08
9.50205e-06
5.86465e-08
9.50607e-06
6.07383e-08
9.50947e-06
6.28342e-08
9.51242e-06
6.51201e-08
9.51515e-06
6.77143e-08
7.06702e-08
9.51792e-06
1.10854e-05
-2.5159e-08
1.10618e-05
-4.65024e-08
1.1041e-05
-4.88065e-08
1.10294e-05
-3.55513e-08
1.10261e-05
-1.71694e-08
1.10284e-05
6.05274e-10
1.1034e-05
1.5475e-08
1.10411e-05
2.69711e-08
1.10487e-05
3.54921e-08
1.10561e-05
4.1716e-08
1.1063e-05
4.63135e-08
1.10695e-05
4.9843e-08
1.10754e-05
5.27347e-08
1.10808e-05
5.53028e-08
1.10859e-05
5.77674e-08
1.10908e-05
6.02725e-08
1.10956e-05
6.28983e-08
6.56683e-08
1.11006e-05
1.29396e-05
-1.31186e-08
1.29194e-05
-2.62784e-08
1.28988e-05
-2.82517e-08
1.28839e-05
-2.06873e-08
1.28758e-05
-8.99546e-09
1.28732e-05
3.14521e-09
1.28748e-05
1.39403e-08
1.28789e-05
2.27887e-08
1.28847e-05
2.97447e-08
1.28913e-05
3.51433e-08
1.28982e-05
3.93835e-08
1.29052e-05
4.28282e-08
1.29122e-05
4.57696e-08
1.29191e-05
4.84247e-08
1.29259e-05
5.09426e-08
1.29327e-05
5.34149e-08
1.29398e-05
5.58847e-08
5.8355e-08
1.29471e-05
1.50998e-05
-4.48302e-09
1.50822e-05
-8.6758e-09
1.50621e-05
-8.11327e-09
1.50448e-05
-3.4579e-09
1.50327e-05
3.10997e-09
1.50259e-05
9.93895e-09
1.50237e-05
1.6162e-08
1.5025e-05
2.14644e-08
1.50289e-05
2.58533e-08
1.50346e-05
2.94847e-08
1.50414e-05
3.25543e-08
1.5049e-05
3.52428e-08
1.50571e-05
3.76933e-08
1.50655e-05
4.00072e-08
1.50742e-05
4.2247e-08
1.50832e-05
4.4442e-08
1.50925e-05
4.6595e-08
4.86875e-08
1.51021e-05
1.76171e-05
2.89319e-09
1.75999e-05
8.52337e-09
1.75787e-05
1.303e-08
1.7559e-05
1.62781e-08
1.75436e-05
1.84727e-08
1.75336e-05
1.99578e-08
1.75287e-05
2.10522e-08
1.75282e-05
2.19935e-08
1.75311e-05
2.29395e-08
1.75366e-05
2.39851e-08
1.7544e-05
2.51769e-08
1.75527e-05
2.65274e-08
1.75624e-05
2.80255e-08
1.75727e-05
2.96456e-08
1.75836e-05
3.13514e-08
1.7595e-05
3.31018e-08
1.76067e-05
3.48507e-08
3.65538e-08
1.76188e-05
1.78181e-05
1.10004e-08
1.77994e-05
2.72128e-08
1.77768e-05
3.56244e-08
1.7756e-05
3.70587e-08
1.77402e-05
3.43263e-08
1.77302e-05
2.99465e-08
1.77257e-05
2.54999e-08
1.7726e-05
2.17779e-08
1.77298e-05
1.90746e-08
1.77364e-05
1.73997e-08
1.77449e-05
1.6632e-08
1.77549e-05
1.6603e-08
1.77658e-05
1.71407e-08
1.77773e-05
1.80884e-08
1.77894e-05
1.93137e-08
1.78017e-05
2.07029e-08
1.78144e-05
2.21671e-08
2.36297e-08
1.78274e-05
1.58702e-05
2.21334e-08
1.58478e-05
4.95816e-08
1.58233e-05
6.01325e-08
1.58032e-05
5.72348e-08
1.57899e-05
4.76107e-08
1.57834e-05
3.63717e-08
1.57827e-05
2.61978e-08
1.57864e-05
1.81465e-08
1.57931e-05
1.23652e-08
1.58019e-05
8.61218e-09
1.5812e-05
6.49693e-09
1.5823e-05
5.62867e-09
1.58345e-05
5.66472e-09
1.58462e-05
6.32834e-09
1.58581e-05
7.39953e-09
1.58701e-05
8.71508e-09
1.58821e-05
1.01462e-08
1.16042e-08
1.58942e-05
1.41313e-05
3.95387e-08
1.41021e-05
7.8707e-08
1.40745e-05
8.77879e-08
1.40557e-05
7.60387e-08
1.40469e-05
5.64137e-08
1.40462e-05
3.70404e-08
1.40512e-05
2.1211e-08
1.40597e-05
9.58335e-09
1.40704e-05
1.76351e-09
1.4082e-05
-3.04802e-09
1.40941e-05
-5.60374e-09
1.41063e-05
-6.55952e-09
1.41184e-05
-6.41493e-09
1.41303e-05
-5.55944e-09
1.41419e-05
-4.2628e-09
1.41534e-05
-2.72356e-09
1.41646e-05
-1.0792e-09
5.72667e-10
1.41756e-05
1.25772e-05
6.73555e-08
1.25392e-05
1.1674e-07
1.25091e-05
1.17889e-07
1.24942e-05
9.08912e-08
1.24928e-05
5.78144e-08
1.25002e-05
2.96841e-08
1.25122e-05
9.13306e-09
1.25264e-05
-4.49396e-09
1.25409e-05
-1.28327e-08
1.25552e-05
-1.73448e-08
1.25689e-05
-1.92799e-08
1.25819e-05
-1.94977e-08
1.25941e-05
-1.8652e-08
1.26057e-05
-1.71578e-08
1.26167e-05
-1.53144e-08
1.26273e-05
-1.33127e-08
1.26375e-05
-1.12747e-08
-9.29268e-09
1.26473e-05
1.11862e-05
1.10916e-07
1.11384e-05
1.6457e-07
1.11088e-05
1.47521e-07
1.11022e-05
9.7485e-08
1.11117e-05
4.83138e-08
1.11289e-05
1.24034e-08
1.11486e-05
-1.04581e-08
1.11678e-05
-2.37224e-08
1.11855e-05
-3.05017e-08
1.12014e-05
-3.32836e-08
1.12157e-05
-3.35499e-08
1.12285e-05
-3.23506e-08
1.12402e-05
-3.02997e-08
1.12508e-05
-2.78601e-08
1.12608e-05
-2.5274e-08
1.12701e-05
-2.26725e-08
1.1279e-05
-2.01608e-08
-1.77796e-08
1.12875e-05
9.93908e-06
1.76452e-07
9.88248e-06
2.21163e-07
9.85873e-06
1.71262e-07
9.86593e-06
9.02759e-08
9.88961e-06
2.46398e-08
9.9176e-06
-1.55534e-08
9.94392e-06
-3.67907e-08
9.96668e-06
-4.64028e-08
9.98571e-06
-4.96013e-08
1.00017e-05
-4.9278e-08
1.00152e-05
-4.71142e-08
1.00269e-05
-4.39953e-08
1.00371e-05
-4.05225e-08
1.00462e-05
-3.70139e-08
1.00546e-05
-3.36409e-08
1.00623e-05
-3.04401e-08
1.00696e-05
-2.74404e-08
-2.47044e-08
1.00765e-05
8.81963e-06
2.69916e-07
8.75785e-06
2.82944e-07
8.74788e-06
1.81226e-07
8.77481e-06
6.33233e-08
8.81458e-06
-1.5128e-08
8.85212e-06
-5.30895e-08
8.88269e-06
-6.72244e-08
8.90623e-06
-7.00185e-08
8.92427e-06
-6.76056e-08
8.93842e-06
-6.33582e-08
8.94983e-06
-5.83944e-08
8.95924e-06
-5.33301e-08
8.96721e-06
-4.84658e-08
8.97418e-06
-4.4002e-08
8.98049e-06
-3.99937e-08
8.98632e-06
-3.62916e-08
8.99174e-06
-3.29045e-08
-2.98869e-08
8.99691e-06
7.81391e-06
3.96675e-07
7.75391e-06
3.42943e-07
7.76868e-06
1.6644e-07
7.82054e-06
1.14613e-08
7.87567e-06
-7.02733e-08
7.91913e-06
-9.64891e-08
7.94967e-06
-9.78321e-08
7.97057e-06
-9.06423e-08
7.98484e-06
-8.15751e-08
7.99524e-06
-7.35378e-08
8.00315e-06
-6.60953e-08
8.00936e-06
-5.94348e-08
8.01442e-06
-5.33073e-08
8.01874e-06
-4.81903e-08
8.02269e-06
-4.38821e-08
8.02632e-06
-3.99551e-08
8.02969e-06
-3.63287e-08
-3.31999e-08
8.03296e-06
6.90424e-06
5.66768e-07
6.86137e-06
3.85805e-07
6.91717e-06
1.10634e-07
6.99674e-06
-6.8133e-08
7.06253e-06
-1.36071e-07
7.10529e-06
-1.39267e-07
7.13032e-06
-1.22546e-07
7.14448e-06
-1.04614e-07
7.15208e-06
-8.89752e-08
7.15709e-06
-7.57939e-08
7.16036e-06
-6.66431e-08
7.16269e-06
-5.96178e-08
7.16412e-06
-5.41352e-08
7.16536e-06
-4.91602e-08
7.16661e-06
-4.52163e-08
7.16779e-06
-4.16572e-08
7.16889e-06
-3.7747e-08
-3.46633e-08
7.1701e-06
6.07162e-06
7.97662e-07
6.08526e-06
3.72164e-07
6.19865e-06
-2.77345e-09
6.2999e-06
-1.69398e-07
6.36526e-06
-2.01462e-07
6.39754e-06
-1.71503e-07
6.41011e-06
-1.35219e-07
6.41343e-06
-1.06942e-07
6.41239e-06
-8.57928e-08
6.40989e-06
-7.40072e-08
6.40746e-06
-6.45094e-08
6.40486e-06
-5.76804e-08
6.40233e-06
-5.11078e-08
6.39996e-06
-4.64762e-08
6.39809e-06
-4.37498e-08
6.39676e-06
-4.01716e-08
6.39514e-06
-3.64422e-08
-3.40958e-08
6.3939e-06
5.35805e-06
1.05451e-06
5.50649e-06
2.23716e-07
5.64777e-06
-1.44085e-07
5.73564e-06
-2.57314e-07
5.77646e-06
-2.42347e-07
5.78324e-06
-1.78425e-07
5.77528e-06
-1.26643e-07
5.76328e-06
-9.40042e-08
5.74975e-06
-7.56508e-08
5.73931e-06
-6.40088e-08
5.73029e-06
-5.65003e-08
5.72239e-06
-5.0001e-08
5.71428e-06
-4.4182e-08
5.70724e-06
-3.97255e-08
5.70186e-06
-3.77855e-08
5.69671e-06
-3.54021e-08
5.6917e-06
-3.14651e-08
-2.96536e-08
5.68736e-06
5.04576e-06
1.01105e-06
5.36491e-06
-9.54497e-08
5.35251e-06
-1.31766e-07
5.33285e-06
-2.37745e-07
5.296e-06
-2.05651e-07
5.25016e-06
-1.32589e-07
5.20891e-06
-8.47327e-08
5.17485e-06
-6.08214e-08
5.14634e-06
-4.98256e-08
5.12483e-06
-4.29547e-08
5.10676e-06
-3.93127e-08
5.09058e-06
-3.55901e-08
5.07487e-06
-3.02686e-08
5.06152e-06
-2.66321e-08
5.05062e-06
-2.70199e-08
5.0397e-06
-2.44148e-08
5.02918e-06
-2.02438e-08
-2.11069e-08
5.0213e-06
5.4676e-06
5.37215e-06
5.24037e-06
5.00261e-06
4.79694e-06
4.66444e-06
4.57967e-06
4.51835e-06
4.46847e-06
4.42535e-06
4.38573e-06
4.34971e-06
4.31933e-06
4.29269e-06
4.26567e-06
4.24143e-06
4.22142e-06
4.20064e-06
2.31324e-08
-2.31338e-08
2.37208e-07
-2.14081e-07
4.89332e-07
-2.52093e-07
7.09596e-07
-2.20243e-07
8.7731e-07
-1.67694e-07
9.88437e-07
-1.11117e-07
1.0441e-06
-5.56506e-08
1.04652e-06
-2.42127e-09
1.00102e-06
4.55122e-08
9.17746e-07
8.32658e-08
8.11949e-07
1.05807e-07
7.02764e-07
1.09172e-07
6.09984e-07
9.27772e-08
5.43699e-07
6.62965e-08
4.92555e-07
5.11625e-08
4.33374e-07
5.98831e-08
3.47062e-07
8.61708e-08
2.21956e-07
1.25875e-07
4.36434e-08
1.77892e-07
-2.0183e-07
2.44839e-07
-5.04373e-07
3.02284e-07
-8.45368e-07
3.40741e-07
-1.20971e-06
3.64349e-07
-1.58711e-06
3.77407e-07
-1.96871e-06
3.81641e-07
-2.34454e-06
3.75851e-07
-2.70657e-06
3.62057e-07
-3.04965e-06
3.43086e-07
-3.36994e-06
3.20303e-07
-3.66511e-06
2.95175e-07
-3.93429e-06
2.69191e-07
-4.17782e-06
2.43525e-07
-4.39669e-06
2.18883e-07
-4.59242e-06
1.95722e-07
-4.76668e-06
1.74267e-07
-4.92128e-06
1.54601e-07
-5.05797e-06
1.36684e-07
-5.17837e-06
1.204e-07
-5.28395e-06
1.05588e-07
-5.37602e-06
9.20672e-08
-5.45568e-06
7.96559e-08
-5.52386e-06
6.81815e-08
-5.58135e-06
5.7489e-08
-5.62879e-06
4.74441e-08
-5.66673e-06
3.7938e-08
-5.69562e-06
2.88834e-08
-5.71582e-06
2.02089e-08
-5.72771e-06
1.18848e-08
-5.73175e-06
4.03886e-09
-5.72881e-06
-2.9406e-09
-5.71997e-06
-8.83898e-09
-5.706e-06
-1.39656e-08
-5.68732e-06
-1.86819e-08
-5.66417e-06
-2.31493e-08
-5.63673e-06
-2.74459e-08
-5.60513e-06
-3.15996e-08
-5.5695e-06
-3.56254e-08
-5.52997e-06
-3.95301e-08
-5.48666e-06
-4.33147e-08
-5.43968e-06
-4.69781e-08
-5.38916e-06
-5.05177e-08
-5.33523e-06
-5.39301e-08
-5.27802e-06
-5.72119e-08
-5.21766e-06
-6.03599e-08
-5.15429e-06
-6.33714e-08
-5.08805e-06
-6.62435e-08
-5.01908e-06
-6.89726e-08
-4.94752e-06
-7.15565e-08
-4.87353e-06
-7.39934e-08
-4.79725e-06
-7.62823e-08
-4.71882e-06
-7.84224e-08
-4.63841e-06
-8.04132e-08
-4.55616e-06
-8.22552e-08
-4.47221e-06
-8.39489e-08
-4.38671e-06
-8.54956e-08
-4.29982e-06
-8.68969e-08
-4.21166e-06
-8.81548e-08
-4.12239e-06
-8.92721e-08
-4.03214e-06
-9.02516e-08
-3.94104e-06
-9.10969e-08
-3.84923e-06
-9.18117e-08
-3.75683e-06
-9.24006e-08
-3.66397e-06
-9.28684e-08
-3.57075e-06
-9.32208e-08
-3.47728e-06
-9.3464e-08
-3.38368e-06
-9.36054e-08
-3.29003e-06
-9.36533e-08
-3.19641e-06
-9.3618e-08
-3.1029e-06
-9.35123e-08
-3.00955e-06
-9.33521e-08
-2.91639e-06
-9.31584e-08
-2.82344e-06
-9.29563e-08
-2.73068e-06
-9.27635e-08
-2.63812e-06
-9.256e-08
-2.54586e-06
-9.22608e-08
-2.4541e-06
-9.17643e-08
-2.36312e-06
-9.09852e-08
-2.27318e-06
-8.99407e-08
-2.1844e-06
-8.87877e-08
-2.09677e-06
-8.76331e-08
-2.01029e-06
-8.64772e-08
-1.92499e-06
-8.53039e-08
-1.84089e-06
-8.41061e-08
-1.75801e-06
-8.28827e-08
-1.67638e-06
-8.16363e-08
-1.59601e-06
-8.03706e-08
-1.51692e-06
-7.90895e-08
-1.43913e-06
-7.77957e-08
-1.36265e-06
-7.6487e-08
-1.28751e-06
-7.51428e-08
-1.21374e-06
-7.37751e-08
-1.14133e-06
-7.24117e-08
-1.07029e-06
-7.10475e-08
-1.00061e-06
-6.96838e-08
-9.32288e-07
-6.83215e-08
-8.6533e-07
-6.69622e-08
-7.99726e-07
-6.56081e-08
-7.35468e-07
-6.42619e-08
-6.72547e-07
-6.29255e-08
-6.10952e-07
-6.15983e-08
-5.50676e-07
-6.0281e-08
-4.91704e-07
-5.89763e-08
-4.34017e-07
-5.76904e-08
-3.77593e-07
-5.64287e-08
-3.2241e-07
-5.51872e-08
-2.68451e-07
-5.39625e-08
-2.15697e-07
-5.27584e-08
-1.64127e-07
-5.15742e-08
-1.13733e-07
-5.0398e-08
-6.45067e-08
-4.92297e-08
-1.65714e-08
-4.79389e-08
3.02061e-08
-4.67812e-08
7.61333e-08
-4.59302e-08
1.21102e-07
-4.4972e-08
1.65011e-07
-4.39114e-08
2.07856e-07
-4.2847e-08
2.49653e-07
-4.18e-08
2.90434e-07
-4.07829e-08
3.30229e-07
-3.97977e-08
3.6907e-07
-3.88429e-08
4.06985e-07
-3.79166e-08
4.44e-07
-3.70175e-08
4.80143e-07
-3.61443e-08
5.15438e-07
-3.52965e-08
5.4991e-07
-3.44734e-08
5.83584e-07
-3.36749e-08
6.16484e-07
-3.29007e-08
6.48634e-07
-3.21507e-08
6.80059e-07
-3.14249e-08
7.10781e-07
-3.07231e-08
7.40826e-07
-3.00454e-08
7.70217e-07
-2.93918e-08
7.98979e-07
-2.87622e-08
8.27135e-07
-2.81568e-08
8.5471e-07
-2.75754e-08
8.81727e-07
-2.70181e-08
9.08211e-07
-2.64847e-08
9.34185e-07
-2.59749e-08
9.59672e-07
-2.54882e-08
9.84695e-07
-2.50238e-08
1.00927e-06
-2.45805e-08
1.03343e-06
-2.41563e-08
1.05718e-06
-2.37485e-08
1.08053e-06
-2.33531e-08
1.10349e-06
-2.29642e-08
1.12607e-06
-2.25738e-08
1.14824e-06
-2.21705e-08
1.16998e-06
-2.17385e-08
1.19123e-06
-2.12557e-08
1.21193e-06
-2.0691e-08
1.23193e-06
-2.00001e-08
1.25105e-06
-1.91193e-08
1.269e-06
-1.79511e-08
1.28535e-06
-1.63514e-08
1.2994e-06
-1.40448e-08
1.31002e-06
-1.06211e-08
1.31459e-06
-4.55667e-09
1.30774e-06
6.85842e-09
1.2782e-06
2.95376e-08
7.2329e-08
1.20587e-06
2.54185e-07
-2.7734e-07
4.90082e-07
-4.49976e-07
6.39665e-07
-4.01672e-07
7.24296e-07
-3.04872e-07
7.63809e-07
-2.07198e-07
7.69755e-07
-1.17067e-07
7.48823e-07
-3.47124e-08
7.0664e-07
3.97535e-08
6.46281e-07
1.05877e-07
5.67654e-07
1.61884e-07
4.70041e-07
2.03428e-07
3.51772e-07
2.27431e-07
2.06809e-07
2.37747e-07
2.361e-08
2.49512e-07
-2.08611e-07
2.8339e-07
-4.94258e-07
3.45623e-07
-8.32225e-07
4.24225e-07
-1.21209e-06
5.05754e-07
-1.61591e-06
5.81671e-07
-2.01735e-06
6.46227e-07
-2.40738e-06
6.92258e-07
-2.78285e-06
7.16205e-07
-3.1378e-06
7.19291e-07
-3.46522e-06
7.04833e-07
-3.75998e-06
6.76405e-07
-4.02112e-06
6.36998e-07
-4.24905e-06
5.89999e-07
-4.44507e-06
5.39102e-07
-4.61206e-06
4.87299e-07
-4.75354e-06
4.3666e-07
-4.87288e-06
3.88536e-07
-4.97326e-06
3.439e-07
-5.05754e-06
3.03167e-07
-5.12824e-06
2.66423e-07
-5.18748e-06
2.33505e-07
-5.23699e-06
2.0411e-07
-5.27817e-06
1.77871e-07
-5.31217e-06
1.54393e-07
-5.33988e-06
1.33297e-07
-5.36204e-06
1.1423e-07
-5.37926e-06
9.68809e-08
-5.39207e-06
8.09844e-08
-5.4009e-06
6.63184e-08
-5.40615e-06
5.27011e-08
-5.4082e-06
3.99857e-08
-5.40738e-06
2.80572e-08
-5.40401e-06
1.6838e-08
-5.39841e-06
6.29307e-09
-5.39075e-06
-3.62147e-09
-5.3806e-06
-1.30954e-08
-5.36707e-06
-2.23689e-08
-5.34957e-06
-3.1471e-08
-5.32791e-06
-4.03361e-08
-5.3021e-06
-4.89606e-08
-5.27219e-06
-5.73512e-08
-5.23828e-06
-6.55142e-08
-5.20045e-06
-7.34524e-08
-5.15882e-06
-8.11653e-08
-5.11348e-06
-8.86496e-08
-5.06456e-06
-9.58996e-08
-5.01217e-06
-1.02909e-07
-4.95643e-06
-1.09669e-07
-4.89747e-06
-1.16173e-07
-4.83542e-06
-1.22413e-07
-4.77041e-06
-1.28385e-07
-4.70257e-06
-1.34083e-07
-4.63204e-06
-1.39498e-07
-4.55897e-06
-1.44626e-07
-4.4835e-06
-1.49465e-07
-4.40577e-06
-1.54011e-07
-4.32593e-06
-1.58264e-07
-4.24412e-06
-1.62221e-07
-4.1605e-06
-1.65885e-07
-4.07519e-06
-1.69256e-07
-3.98835e-06
-1.72336e-07
-3.90012e-06
-1.75129e-07
-3.81063e-06
-1.77639e-07
-3.72003e-06
-1.79872e-07
-3.62845e-06
-1.81832e-07
-3.53602e-06
-1.83528e-07
-3.44287e-06
-1.84965e-07
-3.34912e-06
-1.86154e-07
-3.25489e-06
-1.87103e-07
-3.16029e-06
-1.87821e-07
-3.06543e-06
-1.88321e-07
-2.97042e-06
-1.88612e-07
-2.87537e-06
-1.88708e-07
-2.78037e-06
-1.88621e-07
-2.68552e-06
-1.88365e-07
-2.59092e-06
-1.87951e-07
-2.49669e-06
-1.87392e-07
-2.40295e-06
-1.86694e-07
-2.30986e-06
-1.85854e-07
-2.21758e-06
-1.84842e-07
-2.12623e-06
-1.83615e-07
-2.03585e-06
-1.82144e-07
-1.94641e-06
-1.80424e-07
-1.85786e-06
-1.78496e-07
-1.77021e-06
-1.76439e-07
-1.68354e-06
-1.74304e-07
-1.59792e-06
-1.72106e-07
-1.51338e-06
-1.69845e-07
-1.42996e-06
-1.67524e-07
-1.3477e-06
-1.65145e-07
-1.26663e-06
-1.62715e-07
-1.18676e-06
-1.60238e-07
-1.10813e-06
-1.57721e-07
-1.03077e-06
-1.55166e-07
-9.5468e-07
-1.52575e-07
-8.79876e-07
-1.4995e-07
-8.06351e-07
-1.47302e-07
-7.3412e-07
-1.44646e-07
-6.63185e-07
-1.41985e-07
-5.93548e-07
-1.39323e-07
-5.2521e-07
-1.36663e-07
-4.58167e-07
-1.34007e-07
-3.92418e-07
-1.3136e-07
-3.27957e-07
-1.28726e-07
-2.64773e-07
-1.26112e-07
-2.02856e-07
-1.23518e-07
-1.42197e-07
-1.20943e-07
-8.27852e-08
-1.18391e-07
-2.46136e-08
-1.15865e-07
3.23317e-08
-1.13377e-07
8.80786e-08
-1.10937e-07
1.42644e-07
-1.08531e-07
1.96039e-07
-1.06156e-07
2.48279e-07
-1.03816e-07
2.99391e-07
-1.01511e-07
3.49403e-07
-9.92437e-08
3.98475e-07
-9.70122e-08
4.46579e-07
-9.48867e-08
4.93499e-07
-9.28515e-08
5.39303e-07
-9.07774e-08
5.84069e-07
-8.86783e-08
6.27828e-07
-8.6607e-08
6.70609e-07
-8.45826e-08
7.12437e-07
-8.26119e-08
7.53335e-07
-8.06963e-08
7.93325e-07
-7.88344e-08
8.32432e-07
-7.70246e-08
8.70679e-07
-7.52653e-08
9.08089e-07
-7.35553e-08
9.44686e-07
-7.18937e-08
9.80492e-07
-7.028e-08
1.01553e-06
-6.87137e-08
1.04982e-06
-6.71946e-08
1.08339e-06
-6.57225e-08
1.11627e-06
-6.42974e-08
1.14846e-06
-6.29192e-08
1.18001e-06
-6.15879e-08
1.21092e-06
-6.03035e-08
1.24122e-06
-5.90661e-08
1.27094e-06
-5.78754e-08
1.30009e-06
-5.67316e-08
1.32871e-06
-5.56343e-08
1.35681e-06
-5.45832e-08
1.38441e-06
-5.35775e-08
1.41154e-06
-5.26161e-08
1.43821e-06
-5.16972e-08
1.46445e-06
-5.08183e-08
1.49027e-06
-4.99753e-08
1.51568e-06
-4.91627e-08
1.5407e-06
-4.83727e-08
1.56533e-06
-4.75941e-08
1.58957e-06
-4.68117e-08
1.6134e-06
-4.6004e-08
1.6368e-06
-4.51417e-08
1.65973e-06
-4.41835e-08
1.68211e-06
-4.30719e-08
1.70384e-06
-4.17254e-08
1.72475e-06
-4.00257e-08
1.74459e-06
-3.77964e-08
1.76301e-06
-3.47677e-08
1.77945e-06
-3.04792e-08
1.79301e-06
-2.41784e-08
1.80272e-06
-1.42715e-08
1.80759e-06
1.99903e-09
1.80571e-06
3.14244e-08
8.80307e-08
1.79e-06
2.46005e-07
-5.23367e-07
3.42316e-07
-5.46291e-07
3.58602e-07
-4.17956e-07
3.47558e-07
-2.93818e-07
3.19856e-07
-1.7949e-07
2.75772e-07
-7.2983e-08
2.14596e-07
2.64669e-08
1.35275e-07
1.1907e-07
3.67498e-08
2.04405e-07
-8.31443e-08
2.81775e-07
-2.30113e-07
3.50397e-07
-4.14675e-07
4.11994e-07
-6.50243e-07
4.73312e-07
-9.43735e-07
5.43008e-07
-1.28499e-06
6.24642e-07
-1.65209e-06
7.12725e-07
-2.0242e-06
7.9633e-07
-2.38445e-06
8.65996e-07
-2.71896e-06
9.16165e-07
-3.01718e-06
9.44435e-07
-3.27525e-06
9.50321e-07
-3.49414e-06
9.35102e-07
-3.67684e-06
9.01999e-07
-3.8274e-06
8.55397e-07
-3.95054e-06
7.99546e-07
-4.05167e-06
7.3813e-07
-4.13612e-06
6.74451e-07
-4.20828e-06
6.11268e-07
-4.2716e-06
5.50613e-07
-4.32868e-06
4.93739e-07
-4.38139e-06
4.41253e-07
-4.43088e-06
3.93389e-07
-4.47778e-06
3.50064e-07
-4.52235e-06
3.10996e-07
-4.56464e-06
2.75794e-07
-4.60455e-06
2.4402e-07
-4.64191e-06
2.15232e-07
-4.67653e-06
1.89016e-07
-4.70823e-06
1.64995e-07
-4.73684e-06
1.42838e-07
-4.76222e-06
1.22262e-07
-4.78427e-06
1.03029e-07
-4.80289e-06
8.49417e-08
-4.81802e-06
6.78346e-08
-4.82961e-06
5.15679e-08
-4.83757e-06
3.60225e-08
-4.84183e-06
2.10966e-08
-4.84223e-06
6.69618e-09
-4.83857e-06
-7.28529e-09
-4.8307e-06
-2.09621e-08
-4.81868e-06
-3.4394e-08
-4.80258e-06
-4.75686e-08
-4.78245e-06
-6.04634e-08
-4.75834e-06
-7.30702e-08
-4.73031e-06
-8.53826e-08
-4.69843e-06
-9.73946e-08
-4.66279e-06
-1.091e-07
-4.62346e-06
-1.20489e-07
-4.58056e-06
-1.31552e-07
-4.53418e-06
-1.42277e-07
-4.48444e-06
-1.52653e-07
-4.43144e-06
-1.62666e-07
-4.37531e-06
-1.72303e-07
-4.31617e-06
-1.81553e-07
-4.25415e-06
-1.90408e-07
-4.18937e-06
-1.98858e-07
-4.12198e-06
-2.06892e-07
-4.0521e-06
-2.14503e-07
-3.97988e-06
-2.21686e-07
-3.90546e-06
-2.28437e-07
-3.82897e-06
-2.34753e-07
-3.75056e-06
-2.40633e-07
-3.67036e-06
-2.46077e-07
-3.58853e-06
-2.51087e-07
-3.5052e-06
-2.55667e-07
-3.42051e-06
-2.5982e-07
-3.3346e-06
-2.63554e-07
-3.2476e-06
-2.66874e-07
-3.15964e-06
-2.6979e-07
-3.07085e-06
-2.72312e-07
-2.98137e-06
-2.74448e-07
-2.89131e-06
-2.76213e-07
-2.8008e-06
-2.77617e-07
-2.70995e-06
-2.78674e-07
-2.61887e-06
-2.79399e-07
-2.52768e-06
-2.79805e-07
-2.43648e-06
-2.79909e-07
-2.34538e-06
-2.79724e-07
-2.25448e-06
-2.79265e-07
-2.16388e-06
-2.78546e-07
-2.0737e-06
-2.77577e-07
-1.98403e-06
-2.76365e-07
-1.89498e-06
-2.74908e-07
-1.80662e-06
-2.73195e-07
-1.71903e-06
-2.7121e-07
-1.63223e-06
-2.68949e-07
-1.54622e-06
-2.6643e-07
-1.46103e-06
-2.63689e-07
-1.3767e-06
-2.6077e-07
-1.2933e-06
-2.5771e-07
-1.21088e-06
-2.54527e-07
-1.12949e-06
-2.51235e-07
-1.04917e-06
-2.47843e-07
-9.69956e-07
-2.44361e-07
-8.91875e-07
-2.40797e-07
-8.14954e-07
-2.37161e-07
-7.39216e-07
-2.3346e-07
-6.6468e-07
-2.29704e-07
-5.9136e-07
-2.25897e-07
-5.19262e-07
-2.2205e-07
-4.48394e-07
-2.18172e-07
-3.78767e-07
-2.14275e-07
-3.10387e-07
-2.10367e-07
-2.43255e-07
-2.06457e-07
-1.77372e-07
-2.02548e-07
-1.12736e-07
-1.98645e-07
-4.93429e-08
-1.94755e-07
1.28133e-08
-1.90884e-07
7.37369e-08
-1.87038e-07
1.33436e-07
-1.83219e-07
1.91923e-07
-1.79432e-07
2.49212e-07
-1.7568e-07
3.05316e-07
-1.71971e-07
3.60249e-07
-1.6831e-07
4.14015e-07
-1.64704e-07
4.66631e-07
-1.61148e-07
5.18117e-07
-1.57643e-07
5.68492e-07
-1.54192e-07
6.17778e-07
-1.50798e-07
6.66005e-07
-1.47471e-07
7.13215e-07
-1.44223e-07
7.59391e-07
-1.41063e-07
8.04498e-07
-1.3796e-07
8.48587e-07
-1.34866e-07
8.91701e-07
-1.31792e-07
9.33862e-07
-1.28769e-07
9.75089e-07
-1.25811e-07
1.0154e-06
-1.22925e-07
1.05482e-06
-1.20114e-07
1.09336e-06
-1.17377e-07
1.13105e-06
-1.14714e-07
1.16791e-06
-1.12123e-07
1.20396e-06
-1.09603e-07
1.23921e-06
-1.07153e-07
1.27371e-06
-1.04773e-07
1.30746e-06
-1.02463e-07
1.34048e-06
-1.00223e-07
1.37281e-06
-9.80508e-08
1.40446e-06
-9.59481e-08
1.43546e-06
-9.39143e-08
1.46582e-06
-9.19495e-08
1.49557e-06
-9.00537e-08
1.52473e-06
-8.82267e-08
1.55332e-06
-8.64687e-08
1.58137e-06
-8.47794e-08
1.60889e-06
-8.31585e-08
1.63592e-06
-8.16054e-08
1.66246e-06
-8.01189e-08
1.68854e-06
-7.86974e-08
1.71418e-06
-7.73382e-08
1.7394e-06
-7.60375e-08
1.76421e-06
-7.47897e-08
1.78864e-06
-7.35869e-08
1.81268e-06
-7.24177e-08
1.83635e-06
-7.12666e-08
1.85965e-06
-7.01119e-08
1.88257e-06
-6.89237e-08
1.90509e-06
-6.76605e-08
1.92717e-06
-6.62652e-08
1.94876e-06
-6.46574e-08
1.96976e-06
-6.27242e-08
1.99003e-06
-6.03026e-08
2.00939e-06
-5.71521e-08
2.02753e-06
-5.29093e-08
2.04404e-06
-4.69836e-08
2.05829e-06
-3.84353e-08
2.06953e-06
-2.55048e-08
2.07688e-06
-5.34826e-09
2.08078e-06
2.75223e-08
8.54911e-08
2.08332e-06
9.37295e-08
-6.17107e-07
6.23836e-08
-5.14959e-07
1.38992e-08
-3.69464e-07
-4.31932e-08
-2.36718e-07
-1.12691e-07
-1.09986e-07
-1.98065e-07
1.23943e-08
-3.02297e-07
1.30701e-07
-4.27804e-07
2.44577e-07
-5.77163e-07
3.53763e-07
-7.53756e-07
4.58369e-07
-9.62343e-07
5.58982e-07
-1.20724e-06
6.5689e-07
-1.48723e-06
7.533e-07
-1.79152e-06
8.47293e-07
-2.1014e-06
9.3452e-07
-2.39726e-06
1.00857e-06
-2.66459e-06
1.06366e-06
-2.89514e-06
1.09653e-06
-3.08564e-06
1.10665e-06
-3.2369e-06
1.09569e-06
-3.35327e-06
1.0667e-06
-3.44131e-06
1.02315e-06
-3.50812e-06
9.68819e-07
-3.56023e-06
9.07516e-07
-3.60313e-06
8.42447e-07
-3.64125e-06
7.76246e-07
-3.67782e-06
7.11025e-07
-3.71489e-06
6.48334e-07
-3.75345e-06
5.89174e-07
-3.79378e-06
5.34067e-07
-3.83569e-06
4.83165e-07
-3.87869e-06
4.36391e-07
-3.92214e-06
3.93511e-07
-3.96535e-06
3.54205e-07
-4.00766e-06
3.18109e-07
-4.0485e-06
2.84855e-07
-4.08735e-06
2.54084e-07
-4.1238e-06
2.25466e-07
-4.15751e-06
1.987e-07
-4.18819e-06
1.73523e-07
-4.21563e-06
1.49705e-07
-4.23966e-06
1.2705e-07
-4.2601e-06
1.05391e-07
-4.27686e-06
8.45865e-08
-4.28981e-06
6.45176e-08
-4.29887e-06
4.50825e-08
-4.30396e-06
2.61947e-08
-4.30505e-06
7.77765e-09
-4.30209e-06
-1.02425e-08
-4.29512e-06
-2.79268e-08
-4.28422e-06
-4.53033e-08
-4.26942e-06
-6.23688e-08
-4.25077e-06
-7.91105e-08
-4.22832e-06
-9.55159e-08
-4.20213e-06
-1.11571e-07
-4.17227e-06
-1.27263e-07
-4.13879e-06
-1.42574e-07
-4.10179e-06
-1.57489e-07
-4.06135e-06
-1.7199e-07
-4.01757e-06
-1.86058e-07
-3.97055e-06
-1.99677e-07
-3.92039e-06
-2.12826e-07
-3.86721e-06
-2.25486e-07
-3.81112e-06
-2.37642e-07
-3.75224e-06
-2.49282e-07
-3.69071e-06
-2.60393e-07
-3.62664e-06
-2.70961e-07
-3.56017e-06
-2.80974e-07
-3.49143e-06
-2.90427e-07
-3.42055e-06
-2.99313e-07
-3.34767e-06
-3.07629e-07
-3.27294e-06
-3.15372e-07
-3.19647e-06
-3.22543e-07
-3.11841e-06
-3.29143e-07
-3.0389e-06
-3.35178e-07
-2.95807e-06
-3.40651e-07
-2.87606e-06
-3.45572e-07
-2.79298e-06
-3.49949e-07
-2.70898e-06
-3.53792e-07
-2.62418e-06
-3.57115e-07
-2.5387e-06
-3.59929e-07
-2.45266e-06
-3.62251e-07
-2.36618e-06
-3.64095e-07
-2.27938e-06
-3.65478e-07
-2.19236e-06
-3.66417e-07
-2.10524e-06
-3.6693e-07
-2.01811e-06
-3.67035e-07
-1.93109e-06
-3.66749e-07
-1.84426e-06
-3.6609e-07
-1.75773e-06
-3.65074e-07
-1.6716e-06
-3.63714e-07
-1.58594e-06
-3.62022e-07
-1.50085e-06
-3.60004e-07
-1.41638e-06
-3.57662e-07
-1.33259e-06
-3.54998e-07
-1.24952e-06
-3.52022e-07
-1.1672e-06
-3.48754e-07
-1.08566e-06
-3.45224e-07
-1.00497e-06
-3.41469e-07
-9.25158e-07
-3.37518e-07
-8.46291e-07
-3.33395e-07
-7.68409e-07
-3.29118e-07
-6.9155e-07
-3.24704e-07
-6.15746e-07
-3.20165e-07
-5.41027e-07
-3.15517e-07
-4.67419e-07
-3.1077e-07
-3.94942e-07
-3.05938e-07
-3.23616e-07
-3.01031e-07
-2.53454e-07
-2.96061e-07
-1.84465e-07
-2.9104e-07
-1.1666e-07
-2.85979e-07
-5.00455e-08
-2.8089e-07
1.53716e-08
-2.75786e-07
7.95872e-08