/*--------------------------------*- C++ -*----------------------------------*\
| =========                 |                                                 |
| \\      /  F ield         | OpenFOAM: The Open Source CFD Toolbox           |
|  \\    /   O peration     | Version:  v2012                                 |
|   \\  /    A nd           | Website:  www.openfoam.com                      |
|    \\/     M anipulation  |                                                 |
\*---------------------------------------------------------------------------*/
FoamFile
{
    version     2.0;
    format      ascii;
    class       surfaceScalarField;
    location    "2100";
    object      phi;
}
// * * * * * * * * * * * * * * * * * * * * * * * * * * * * * * * * * * * * * //

dimensions      [0 3 -1 0 0 0 0];
oriented        oriented;


internalField   nonuniform List<scalar> 
24170
(
3.92539e-06
-7.91497e-07
3.76462e-06
1.60755e-07
3.63338e-06
1.31207e-07
3.4332e-06
2.00138e-07
3.28009e-06
1.53078e-07
3.18943e-06
9.06252e-08
3.12907e-06
6.02358e-08
3.08117e-06
4.75848e-08
3.04127e-06
3.94307e-08
3.00438e-06
3.6312e-08
2.96977e-06
3.40471e-08
2.93776e-06
3.14954e-08
2.90847e-06
2.88799e-08
2.88197e-06
2.61981e-08
2.85822e-06
2.3534e-08
2.83864e-06
1.9507e-08
2.83057e-06
8.14865e-09
-9.293e-09
2.83996e-06
3.58444e-06
-9.19498e-07
3.80423e-06
-5.90412e-08
3.7428e-06
1.9262e-07
3.69055e-06
2.52363e-07
3.63725e-06
2.06335e-07
3.58984e-06
1.37979e-07
3.55259e-06
9.7371e-08
3.5238e-06
7.61487e-08
3.5004e-06
6.24943e-08
3.48092e-06
5.53409e-08
3.46385e-06
5.06342e-08
3.44835e-06
4.6513e-08
3.43405e-06
4.27559e-08
3.42058e-06
3.93092e-08
3.40796e-06
3.5876e-08
3.39617e-06
3.11182e-08
3.38447e-06
1.97674e-08
3.96148e-09
3.37093e-06
3.68518e-06
-7.92482e-07
3.83638e-06
-2.10251e-07
3.91492e-06
1.14075e-07
3.94499e-06
2.22286e-07
3.94406e-06
2.0726e-07
3.92722e-06
1.54818e-07
3.90781e-06
1.16788e-07
3.89027e-06
9.37245e-08
3.87466e-06
7.82e-08
3.86142e-06
6.87098e-08
3.84986e-06
6.2311e-08
3.83926e-06
5.7191e-08
3.8293e-06
5.2753e-08
3.81987e-06
4.87099e-08
3.81115e-06
4.45358e-08
3.80303e-06
3.91419e-08
3.79316e-06
2.95272e-08
1.76869e-08
3.77913e-06
4.05359e-06
-6.41511e-07
4.11459e-06
-2.71265e-07
4.20798e-06
2.06775e-08
4.26634e-06
1.63915e-07
4.29068e-06
1.82902e-07
4.29272e-06
1.52745e-07
4.28601e-06
1.23478e-07
4.27704e-06
1.02725e-07
4.2676e-06
8.77301e-08
4.25883e-06
7.7598e-08
4.25083e-06
7.04132e-08
4.24331e-06
6.47665e-08
4.2361e-06
5.99673e-08
4.22913e-06
5.5638e-08
4.22234e-06
5.12282e-08
4.21536e-06
4.60055e-08
4.20612e-06
3.8611e-08
3.04605e-08
4.19305e-06
4.50491e-06
-5.09116e-07
4.51536e-06
-2.81713e-07
4.58528e-06
-4.92465e-08
4.64664e-06
1.02552e-07
4.68257e-06
1.46977e-07
4.6968e-06
1.3851e-07
4.69972e-06
1.20593e-07
4.69774e-06
1.04776e-07
4.69352e-06
9.20754e-08
4.68861e-06
8.26649e-08
4.68358e-06
7.5586e-08
4.67853e-06
6.99436e-08
4.67341e-06
6.51702e-08
4.66816e-06
6.09151e-08
4.66262e-06
5.67409e-08
4.65631e-06
5.22558e-08
4.64778e-06
4.70335e-08
4.2206e-08
4.63585e-06
5.00014e-06
-3.94666e-07
4.98614e-06
-2.67713e-07
5.03068e-06
-9.37965e-08
5.08505e-06
4.81746e-08
5.12452e-06
1.0749e-07
5.14606e-06
1.16952e-07
5.15605e-06
1.1061e-07
5.15976e-06
1.01101e-07
5.16001e-06
9.19085e-08
5.15853e-06
8.42555e-08
5.15617e-06
7.80535e-08
5.15326e-06
7.29405e-08
5.14989e-06
6.85882e-08
5.14604e-06
6.47634e-08
5.14154e-06
6.12037e-08
5.13594e-06
5.77865e-08
5.12833e-06
5.45543e-08
5.24217e-08
5.11793e-06
5.54382e-06
-2.97478e-07
5.51664e-06
-2.40536e-07
5.54055e-06
-1.177e-07
5.58387e-06
4.8507e-09
5.62165e-06
6.97127e-08
5.64657e-06
9.20412e-08
5.66123e-06
9.59736e-08
5.6693e-06
9.30734e-08
5.67327e-06
8.80075e-08
5.6748e-06
8.28078e-08
5.67484e-06
7.80966e-08
5.67386e-06
7.39871e-08
5.67207e-06
7.04258e-08
5.66951e-06
6.7344e-08
5.66603e-06
6.46644e-08
5.66134e-06
6.24417e-08
5.65491e-06
6.09112e-08
6.08354e-08
5.64643e-06
4.34788e-06
-2.39245e-07
4.32251e-06
-2.15173e-07
4.33078e-06
-1.25971e-07
4.35419e-06
-1.8564e-08
4.3784e-06
4.54937e-08
4.39647e-06
7.39594e-08
4.40846e-06
8.39854e-08
4.41604e-06
8.55106e-08
4.42063e-06
8.3452e-08
4.42326e-06
8.0225e-08
4.42457e-06
7.68327e-08
4.42493e-06
7.36638e-08
4.42454e-06
7.08483e-08
4.42345e-06
6.84416e-08
4.42162e-06
6.64827e-08
4.41892e-06
6.51151e-08
4.41518e-06
6.46373e-08
6.56132e-08
4.41033e-06
5.08622e-06
-1.85603e-07
5.05777e-06
-1.86728e-07
5.0584e-06
-1.26598e-07
5.07686e-06
-3.70316e-08
5.09918e-06
2.31781e-08
5.11774e-06
5.53993e-08
5.13129e-06
7.04467e-08
5.14065e-06
7.61657e-08
5.14691e-06
7.72213e-08
5.15097e-06
7.61932e-08
5.15347e-06
7.43606e-08
5.15481e-06
7.23479e-08
5.15521e-06
7.04615e-08
5.15477e-06
6.88786e-08
5.1535e-06
6.77439e-08
5.15134e-06
6.72602e-08
5.14822e-06
6.77149e-08
6.95695e-08
5.14425e-06
5.94839e-06
-1.38198e-07
5.91832e-06
-1.5666e-07
5.91161e-06
-1.19889e-07
5.924e-06
-4.9431e-08
5.94286e-06
4.31445e-09
5.9606e-06
3.76626e-08
5.97484e-06
5.62068e-08
5.98552e-06
6.54945e-08
5.99325e-06
6.95122e-08
5.9987e-06
7.07514e-08
6.00245e-06
7.06262e-08
6.00488e-06
6.99308e-08
6.00623e-06
6.91142e-08
6.00664e-06
6.84722e-08
6.00616e-06
6.82211e-08
6.00482e-06
6.85929e-08
6.00267e-06
6.98591e-08
7.22981e-08
5.99991e-06
6.95439e-06
-9.83182e-08
6.92402e-06
-1.2629e-07
6.91113e-06
-1.07009e-07
6.9168e-06
-5.51046e-08
6.93088e-06
-9.76288e-09
6.94637e-06
2.21697e-08
6.96019e-06
4.23907e-08
6.97145e-06
5.42411e-08
6.98022e-06
6.07535e-08
6.98688e-06
6.40999e-08
6.99183e-06
6.56773e-08
6.99541e-06
6.63532e-08
6.99784e-06
6.66845e-08
6.99929e-06
6.70256e-08
6.99985e-06
6.76562e-08
6.99965e-06
6.88077e-08
6.9988e-06
7.06865e-08
7.34979e-08
6.99759e-06
8.12719e-06
-6.64934e-08
8.09793e-06
-9.70334e-08
8.08056e-06
-8.96366e-08
8.07955e-06
-5.4102e-08
8.08794e-06
-1.81492e-08
8.09987e-06
1.02406e-08
8.11202e-06
3.02445e-08
8.1229e-06
4.33655e-08
8.13206e-06
5.15939e-08
8.13954e-06
5.66297e-08
8.14551e-06
5.97009e-08
8.15021e-06
6.16643e-08
8.1538e-06
6.30829e-08
8.15647e-06
6.43679e-08
8.15833e-06
6.57932e-08
8.15955e-06
6.75834e-08
8.16034e-06
6.99017e-08
7.28478e-08
8.16097e-06
9.49368e-06
-4.24456e-08
9.4668e-06
-7.01565e-08
9.44683e-06
-6.96712e-08
9.43991e-06
-4.718e-08
9.44229e-06
-2.0536e-08
9.44967e-06
2.8648e-09
9.45898e-06
2.09436e-08
9.46843e-06
3.39128e-08
9.47719e-06
4.28422e-08
9.48493e-06
4.88895e-08
9.49161e-06
5.30297e-08
9.49728e-06
5.59889e-08
9.50206e-06
5.83102e-08
9.50606e-06
6.03592e-08
9.50944e-06
6.24163e-08
9.51236e-06
6.46561e-08
9.51505e-06
6.72131e-08
7.01262e-08
9.51776e-06
1.10854e-05
-2.51667e-08
1.10618e-05
-4.65176e-08
1.1041e-05
-4.88402e-08
1.10294e-05
-3.56037e-08
1.10261e-05
-1.72415e-08
1.10284e-05
5.09195e-10
1.1034e-05
1.53517e-08
1.10411e-05
2.68166e-08
1.10487e-05
3.53041e-08
1.10561e-05
4.14949e-08
1.1063e-05
4.60577e-08
1.10695e-05
4.95538e-08
1.10754e-05
5.24084e-08
1.10808e-05
5.49413e-08
1.10858e-05
5.73677e-08
1.10907e-05
5.98398e-08
1.10954e-05
6.2431e-08
6.51755e-08
1.11004e-05
1.29396e-05
-1.31267e-08
1.29194e-05
-2.62941e-08
1.28988e-05
-2.82856e-08
1.28839e-05
-2.07401e-08
1.28758e-05
-9.06907e-09
1.28732e-05
3.04918e-09
1.28748e-05
1.38183e-08
1.2879e-05
2.26383e-08
1.28847e-05
2.95641e-08
1.28913e-05
3.49319e-08
1.28982e-05
3.914e-08
1.29052e-05
4.25522e-08
1.29121e-05
4.54605e-08
1.2919e-05
4.80835e-08
1.29258e-05
5.05705e-08
1.29326e-05
5.3015e-08
1.29395e-05
5.54604e-08
5.79102e-08
1.29468e-05
1.50998e-05
-4.49085e-09
1.50822e-05
-8.69204e-09
1.50621e-05
-8.14669e-09
1.50448e-05
-3.51037e-09
1.50327e-05
3.03864e-09
1.50259e-05
9.84435e-09
1.50237e-05
1.60438e-08
1.5025e-05
2.13194e-08
1.50289e-05
2.56815e-08
1.50346e-05
2.92844e-08
1.50414e-05
3.23255e-08
1.50489e-05
3.49851e-08
1.5057e-05
3.74074e-08
1.50654e-05
3.96946e-08
1.5074e-05
4.19098e-08
1.5083e-05
4.40836e-08
1.50922e-05
4.62191e-08
4.82974e-08
1.51018e-05
1.76171e-05
2.88545e-09
1.75999e-05
8.50523e-09
1.75787e-05
1.29941e-08
1.7559e-05
1.62287e-08
1.75436e-05
1.84017e-08
1.75336e-05
1.98705e-08
1.75287e-05
2.09405e-08
1.75282e-05
2.1862e-08
1.75311e-05
2.27815e-08
1.75366e-05
2.38046e-08
1.75439e-05
2.49697e-08
1.75526e-05
2.6297e-08
1.75622e-05
2.77705e-08
1.75726e-05
2.93701e-08
1.75834e-05
3.10559e-08
1.75947e-05
3.2791e-08
1.76064e-05
3.45265e-08
3.622e-08
1.76184e-05
1.78181e-05
1.09937e-08
1.77994e-05
2.71884e-08
1.77768e-05
3.5589e-08
1.7756e-05
3.70058e-08
1.77402e-05
3.42643e-08
1.77302e-05
2.98652e-08
1.77257e-05
2.54067e-08
1.77259e-05
2.16625e-08
1.77298e-05
1.89442e-08
1.77363e-05
1.72446e-08
1.77449e-05
1.64579e-08
1.77547e-05
1.64044e-08
1.77656e-05
1.69238e-08
1.77771e-05
1.7851e-08
1.77891e-05
1.90626e-08
1.78015e-05
2.04369e-08
1.78141e-05
2.18939e-08
2.33471e-08
1.7827e-05
1.58702e-05
2.2127e-08
1.58478e-05
4.95555e-08
1.58233e-05
6.0094e-08
1.58032e-05
5.71867e-08
1.57899e-05
4.75495e-08
1.57834e-05
3.6304e-08
1.57827e-05
2.61199e-08
1.57863e-05
1.80589e-08
1.5793e-05
1.22615e-08
1.58018e-05
8.49347e-09
1.58119e-05
6.35678e-09
1.58229e-05
5.46801e-09
1.58343e-05
5.48189e-09
1.5846e-05
6.1276e-09
1.58579e-05
7.18211e-09
1.58699e-05
8.48708e-09
1.58818e-05
9.90837e-09
1.13628e-08
1.58938e-05
1.41313e-05
3.95337e-08
1.41021e-05
7.86813e-08
1.40745e-05
8.77498e-08
1.40557e-05
7.59893e-08
1.40469e-05
5.63583e-08
1.40462e-05
3.69845e-08
1.40512e-05
2.11475e-08
1.40597e-05
9.52035e-09
1.40703e-05
1.68889e-09
1.40819e-05
-3.12753e-09
1.4094e-05
-5.69972e-09
1.41062e-05
-6.67859e-09
1.41182e-05
-6.55894e-09
1.41301e-05
-5.72743e-09
1.41417e-05
-4.44725e-09
1.41531e-05
-2.92416e-09
1.41643e-05
-1.28715e-09
3.58082e-10
1.41753e-05
1.25772e-05
6.73513e-08
1.25392e-05
1.16716e-07
1.25091e-05
1.17854e-07
1.24942e-05
9.08441e-08
1.24928e-05
5.77641e-08
1.25002e-05
2.9632e-08
1.25122e-05
9.0964e-09
1.25263e-05
-4.5484e-09
1.25409e-05
-1.28639e-08
1.25552e-05
-1.73796e-08
1.25688e-05
-1.93211e-08
1.25817e-05
-1.95667e-08
1.25939e-05
-1.87536e-08
1.26055e-05
-1.72826e-08
1.26165e-05
-1.5468e-08
1.26271e-05
-1.34807e-08
1.26372e-05
-1.14639e-08
-9.48578e-09
1.26471e-05
1.11862e-05
1.10913e-07
1.11384e-05
1.64551e-07
1.11088e-05
1.47487e-07
1.11022e-05
9.74416e-08
1.11117e-05
4.82664e-08
1.1129e-05
1.23687e-08
1.11486e-05
-1.05044e-08
1.11678e-05
-2.3734e-08
1.11855e-05
-3.05199e-08
1.12013e-05
-3.32468e-08
1.12156e-05
-3.35131e-08
1.12283e-05
-3.23363e-08
1.124e-05
-3.03435e-08
1.12506e-05
-2.79433e-08
1.12606e-05
-2.53713e-08
1.12699e-05
-2.28129e-08
1.12787e-05
-2.0326e-08
-1.79713e-08
1.12872e-05
9.93908e-06
1.7645e-07
9.88248e-06
2.21147e-07
9.85873e-06
1.71235e-07
9.86595e-06
9.02342e-08
9.88964e-06
2.45943e-08
9.91762e-06
-1.56019e-08
9.94394e-06
-3.67948e-08
9.96669e-06
-4.64321e-08
9.98574e-06
-4.95122e-08
1.00016e-05
-4.914e-08
1.00151e-05
-4.69611e-08
1.00267e-05
-4.39217e-08
1.00369e-05
-4.04843e-08
1.0046e-05
-3.70095e-08
1.00543e-05
-3.3659e-08
1.00621e-05
-3.05137e-08
1.00693e-05
-2.75947e-08
-2.48952e-08
1.00762e-05
8.81963e-06
2.69915e-07
8.75785e-06
2.82933e-07
8.74788e-06
1.812e-07
8.77483e-06
6.32844e-08
8.81461e-06
-1.51811e-08
8.85217e-06
-5.31246e-08
8.8827e-06
-6.72714e-08
8.90631e-06
-6.99621e-08
8.92434e-06
-6.75618e-08
8.93839e-06
-6.31181e-08
8.94964e-06
-5.81527e-08
8.95902e-06
-5.30948e-08
8.96697e-06
-4.83806e-08
8.97396e-06
-4.39305e-08
8.98022e-06
-3.98832e-08
8.986e-06
-3.62656e-08
8.99143e-06
-3.304e-08
-3.01148e-08
8.99661e-06
7.81391e-06
3.96675e-07
7.7539e-06
3.42935e-07
7.76868e-06
1.66418e-07
7.82055e-06
1.14207e-08
7.87571e-06
-7.033e-08
7.91917e-06
-9.65685e-08
7.94974e-06
-9.78225e-08
7.97063e-06
-9.07699e-08
7.985e-06
-8.17327e-08
7.99521e-06
-7.32325e-08
8.00297e-06
-6.57313e-08
8.00907e-06
-5.92084e-08
8.01419e-06
-5.33316e-08
8.01855e-06
-4.81998e-08
8.02239e-06
-4.36541e-08
8.02591e-06
-3.98305e-08
8.02928e-06
-3.64903e-08
-3.34414e-08
8.03259e-06
6.90424e-06
5.66768e-07
6.86137e-06
3.85802e-07
6.91717e-06
1.10613e-07
6.99676e-06
-6.81767e-08
7.06257e-06
-1.36147e-07
7.10536e-06
-1.39362e-07
7.13034e-06
-1.22672e-07
7.14451e-06
-1.04897e-07
7.15244e-06
-8.96411e-08
7.15707e-06
-7.77152e-08
7.1601e-06
-6.86327e-08
7.16229e-06
-6.11403e-08
7.16391e-06
-5.49072e-08
7.16524e-06
-4.95293e-08
7.16628e-06
-4.47395e-08
7.16727e-06
-4.08811e-08
7.16838e-06
-3.76172e-08
-3.47746e-08
7.16956e-06
6.07162e-06
7.97663e-07
6.08525e-06
3.7216e-07
6.19865e-06
-2.79181e-09
6.29991e-06
-1.69438e-07
6.3653e-06
-2.0154e-07
6.3976e-06
-1.71642e-07
6.41008e-06
-1.35261e-07
6.41333e-06
-1.07848e-07
6.41231e-06
-8.86772e-08
6.40988e-06
-7.52627e-08
6.40735e-06
-6.60564e-08
6.40484e-06
-5.86964e-08
6.40234e-06
-5.25855e-08
6.40011e-06
-4.72139e-08
6.39792e-06
-4.25678e-08
6.39606e-06
-3.90731e-08
6.39446e-06
-3.61311e-08
-3.35162e-08
6.3933e-06
5.35805e-06
1.05451e-06
5.50649e-06
2.23712e-07
5.64777e-06
-1.44089e-07
5.73566e-06
-2.57336e-07
5.7765e-06
-2.42397e-07
5.7833e-06
-1.78549e-07
5.77505e-06
-1.26868e-07
5.76264e-06
-9.55227e-08
5.75013e-06
-7.63603e-08
5.73922e-06
-6.46217e-08
5.73032e-06
-5.73368e-08
5.72234e-06
-5.10127e-08
5.71478e-06
-4.52769e-08
5.70783e-06
-4.04391e-08
5.70153e-06
-3.63268e-08
5.69625e-06
-3.38283e-08
5.69137e-06
-3.11575e-08
-2.90754e-08
5.68695e-06
5.04576e-06
1.01105e-06
5.36491e-06
-9.54589e-08
5.35252e-06
-1.3174e-07
5.33288e-06
-2.37718e-07
5.29605e-06
-2.05631e-07
5.25015e-06
-1.32735e-07
5.20835e-06
-8.5069e-08
5.17427e-06
-6.16063e-08
5.14685e-06
-4.93197e-08
5.12476e-06
-4.29524e-08
5.10678e-06
-3.9738e-08
5.09091e-06
-3.56567e-08
5.07608e-06
-3.09783e-08
5.06247e-06
-2.70837e-08
5.05043e-06
-2.43898e-08
5.04057e-06
-2.39645e-08
5.03093e-06
-2.14385e-08
-2.04338e-08
5.02239e-06
5.4676e-06
5.37214e-06
5.2404e-06
5.00267e-06
4.79703e-06
4.66429e-06
4.5792e-06
4.51754e-06
4.46814e-06
4.42512e-06
4.38529e-06
4.34951e-06
4.31847e-06
4.29136e-06
4.26696e-06
4.24302e-06
4.22161e-06
4.20121e-06
2.47819e-08
-2.47973e-08
2.38651e-07
-2.13857e-07
4.89978e-07
-2.51362e-07
7.09277e-07
-2.19304e-07
8.75961e-07
-1.66715e-07
9.86072e-07
-1.10115e-07
1.04061e-06
-5.45684e-08
1.04189e-06
-1.27715e-09
9.95262e-07
4.66018e-08
9.11083e-07
8.42013e-08
8.0466e-07
1.06411e-07
6.95401e-07
1.09318e-07
6.02956e-07
9.25007e-08
5.36819e-07
6.60601e-08
4.8531e-07
5.15983e-08
4.24005e-07
6.09642e-08
3.36259e-07
8.78591e-08
2.07876e-07
1.28294e-07
3.1547e-08
1.76504e-07
-2.1388e-07
2.45754e-07
-5.18822e-07
3.05027e-07
-8.60077e-07
3.41405e-07
-1.2236e-06
3.6351e-07
-1.60015e-06
3.76567e-07
-1.98093e-06
3.80734e-07
-2.35584e-06
3.74893e-07
-2.71692e-06
3.61057e-07
-3.05898e-06
3.42044e-07
-3.37825e-06
3.19241e-07
-3.67239e-06
2.94132e-07
-3.9406e-06
2.68203e-07
-4.18322e-06
2.4261e-07
-4.40128e-06
2.18053e-07
-4.59626e-06
1.94981e-07
-4.76987e-06
1.73613e-07
-4.9239e-06
1.54029e-07
-5.06009e-06
1.36188e-07
-5.18006e-06
1.19971e-07
-5.28528e-06
1.05218e-07
-5.37702e-06
9.1748e-08
-5.4564e-06
7.93801e-08
-5.52434e-06
6.79427e-08
-5.58162e-06
5.72811e-08
-5.62889e-06
4.72624e-08
-5.66666e-06
3.7778e-08
-5.6954e-06
2.87419e-08
-5.71549e-06
2.00827e-08
-5.72726e-06
1.17719e-08
-5.7312e-06
3.94518e-09
-5.72817e-06
-3.02606e-09
-5.71927e-06
-8.90278e-09
-5.70526e-06
-1.4009e-08
-5.68653e-06
-1.87297e-08
-5.66334e-06
-2.31925e-08
-5.63585e-06
-2.74861e-08
-5.60421e-06
-3.16375e-08
-5.56855e-06
-3.56615e-08
-5.52899e-06
-3.95646e-08
-5.48564e-06
-4.33479e-08
-5.43863e-06
-4.70101e-08
-5.38808e-06
-5.05488e-08
-5.33412e-06
-5.39603e-08
-5.27688e-06
-5.72412e-08
-5.21649e-06
-6.03883e-08
-5.15309e-06
-6.33991e-08
-5.08682e-06
-6.62703e-08
-5.01782e-06
-6.89986e-08
-4.94624e-06
-7.15817e-08
-4.87222e-06
-7.40179e-08
-4.79592e-06
-7.63059e-08
-4.71747e-06
-7.84451e-08
-4.63704e-06
-8.0435e-08
-4.55476e-06
-8.22759e-08
-4.47079e-06
-8.39686e-08
-4.38528e-06
-8.55141e-08
-4.29837e-06
-8.69141e-08
-4.2102e-06
-8.81709e-08
-4.12091e-06
-8.92869e-08
-4.03064e-06
-9.02654e-08
-3.93953e-06
-9.11097e-08
-3.84771e-06
-9.18239e-08
-3.7553e-06
-9.24124e-08
-3.66242e-06
-9.28802e-08
-3.56918e-06
-9.32325e-08
-3.47571e-06
-9.34756e-08
-3.38209e-06
-9.36163e-08
-3.28843e-06
-9.36633e-08
-3.1948e-06
-9.36269e-08
-3.10128e-06
-9.35201e-08
-3.00792e-06
-9.33591e-08
-2.91476e-06
-9.31649e-08
-2.8218e-06
-9.29628e-08
-2.72903e-06
-9.27707e-08
-2.63646e-06
-9.25672e-08
-2.5442e-06
-9.22656e-08
-2.45243e-06
-9.17647e-08
-2.36145e-06
-9.09802e-08
-2.27152e-06
-8.99322e-08
-2.18274e-06
-8.87788e-08
-2.09512e-06
-8.76244e-08
-2.00865e-06
-8.64684e-08
-1.92335e-06
-8.52948e-08
-1.83926e-06
-8.40965e-08
-1.75638e-06
-8.28726e-08
-1.67476e-06
-8.16259e-08
-1.5944e-06
-8.03598e-08
-1.51532e-06
-7.90786e-08
-1.43754e-06
-7.77844e-08
-1.36106e-06
-7.64756e-08
-1.28593e-06
-7.51305e-08
-1.21217e-06
-7.37625e-08
-1.13977e-06
-7.2399e-08
-1.06873e-06
-7.10349e-08
-9.99063e-07
-6.96709e-08
-9.30755e-07
-6.83087e-08
-8.63806e-07
-6.69492e-08
-7.98211e-07
-6.55952e-08
-7.33962e-07
-6.42488e-08
-6.7105e-07
-6.29125e-08
-6.09465e-07
-6.1585e-08
-5.49197e-07
-6.02679e-08
-4.90233e-07
-5.8963e-08
-4.32556e-07
-5.76773e-08
-3.7614e-07
-5.64151e-08
-3.20967e-07
-5.5173e-08
-2.67019e-07
-5.39476e-08
-2.14276e-07
-5.27437e-08
-1.62717e-07
-5.1559e-08
-1.12335e-07
-5.03824e-08
-6.31211e-08
-4.92138e-08
-1.52053e-08
-4.79167e-08
3.15669e-08
-4.67724e-08
7.74996e-08
-4.5932e-08
1.22468e-07
-4.49656e-08
1.66376e-07
-4.39044e-08
2.09219e-07
-4.28396e-08
2.51014e-07
-4.1793e-08
2.91793e-07
-4.07762e-08
3.31588e-07
-3.97916e-08
3.70429e-07
-3.88371e-08
4.08345e-07
-3.79114e-08
4.45363e-07
-3.70125e-08
4.81506e-07
-3.614e-08
5.16801e-07
-3.52925e-08
5.51272e-07
-3.44702e-08
5.84946e-07
-3.36721e-08
6.17843e-07
-3.28984e-08
6.49992e-07
-3.21484e-08
6.81414e-07
-3.14228e-08
7.12137e-07
-3.0721e-08
7.42181e-07
-3.00435e-08
7.71574e-07
-2.93902e-08
8.00337e-07
-2.87611e-08
8.28495e-07
-2.81562e-08
8.56072e-07
-2.75756e-08
8.83093e-07
-2.70191e-08
9.09581e-07
-2.64866e-08
9.35561e-07
-2.59778e-08
9.61055e-07
-2.54922e-08
9.86086e-07
-2.50288e-08
1.01068e-06
-2.45864e-08
1.03484e-06
-2.4163e-08
1.0586e-06
-2.37557e-08
1.08196e-06
-2.33605e-08
1.10494e-06
-2.29713e-08
1.12752e-06
-2.25805e-08
1.1497e-06
-2.21761e-08
1.17145e-06
-2.17428e-08
1.1927e-06
-2.12579e-08
1.21339e-06
-2.0691e-08
1.23338e-06
-1.99973e-08
1.25249e-06
-1.91133e-08
1.27042e-06
-1.79419e-08
1.28675e-06
-1.63382e-08
1.30077e-06
-1.40293e-08
1.31135e-06
-1.05978e-08
1.31587e-06
-4.53586e-09
1.30896e-06
6.89174e-09
1.27934e-06
2.9603e-08
7.24372e-08
1.20689e-06
2.53705e-07
-2.78511e-07
4.88934e-07
-4.49085e-07
6.38098e-07
-4.00541e-07
7.22272e-07
-3.03481e-07
7.6124e-07
-2.05696e-07
7.66614e-07
-1.15492e-07
7.45119e-07
-3.30872e-08
7.02445e-07
4.13951e-08
6.4156e-07
1.07476e-07
5.6242e-07
1.63347e-07
4.64234e-07
2.04594e-07
3.45309e-07
2.28245e-07
1.99393e-07
2.38438e-07
1.47008e-08
2.50686e-07
-2.19162e-07
2.85458e-07
-5.06444e-07
3.48168e-07
-8.4512e-07
4.26535e-07
-1.22399e-06
5.07184e-07
-1.62914e-06
5.81691e-07
-2.02949e-06
6.46159e-07
-2.41732e-06
6.92885e-07
-2.7922e-06
7.16315e-07
-3.14705e-06
7.18361e-07
-3.47377e-06
7.03295e-07
-3.76754e-06
6.74491e-07
-4.02755e-06
6.34891e-07
-4.25434e-06
5.87841e-07
-4.44931e-06
5.37002e-07
-4.6154e-06
4.85323e-07
-4.75611e-06
4.34844e-07
-4.87482e-06
3.86906e-07
-4.97468e-06
3.42462e-07
-5.05854e-06
3.01914e-07
-5.1289e-06
2.65343e-07
-5.18787e-06
2.3258e-07
-5.23716e-06
2.03322e-07
-5.27818e-06
1.77201e-07
-5.31203e-06
1.53824e-07
-5.33962e-06
1.32813e-07
-5.36169e-06
1.13817e-07
-5.37884e-06
9.65278e-08
-5.39158e-06
8.06813e-08
-5.40035e-06
6.60569e-08
-5.40556e-06
5.24745e-08
-5.40757e-06
3.97883e-08
-5.40671e-06
2.78845e-08
-5.40332e-06
1.66864e-08
-5.3977e-06
6.16002e-09
-5.39002e-06
-3.73897e-09
-5.37984e-06
-1.32043e-08
-5.36627e-06
-2.24698e-08
-5.34872e-06
-3.15632e-08
-5.32703e-06
-4.04234e-08
-5.30117e-06
-4.90428e-08
-5.27123e-06
-5.7429e-08
-5.23728e-06
-6.55882e-08
-5.19942e-06
-7.35232e-08
-5.15775e-06
-8.12332e-08
-5.11238e-06
-8.87151e-08
-5.06343e-06
-9.5963e-08
-5.01101e-06
-1.0297e-07
-4.95524e-06
-1.09729e-07
-4.89625e-06
-1.16231e-07
-4.83417e-06
-1.22469e-07
-4.76913e-06
-1.2844e-07
-4.70126e-06
-1.34136e-07
-4.63071e-06
-1.3955e-07
-4.55762e-06
-1.44676e-07
-4.48212e-06
-1.49513e-07
-4.40437e-06
-1.54058e-07
-4.32451e-06
-1.58309e-07
-4.24268e-06
-1.62265e-07
-4.15903e-06
-1.65927e-07
-4.0737e-06
-1.69296e-07
-3.98684e-06
-1.72374e-07
-3.89859e-06
-1.75165e-07
-3.80908e-06
-1.77673e-07
-3.71847e-06
-1.79904e-07
-3.62687e-06
-1.81862e-07
-3.53442e-06
-1.83556e-07
-3.44126e-06
-1.84992e-07
-3.34749e-06
-1.86179e-07
-3.25325e-06
-1.87126e-07
-3.15863e-06
-1.87843e-07
-3.06377e-06
-1.88341e-07
-2.96876e-06
-1.8863e-07
-2.87369e-06
-1.88724e-07
-2.77869e-06
-1.88635e-07
-2.68383e-06
-1.88377e-07
-2.58923e-06
-1.87961e-07
-2.495e-06
-1.874e-07
-2.40126e-06
-1.86701e-07
-2.30817e-06
-1.85858e-07
-2.21589e-06
-1.84844e-07
-2.12455e-06
-1.83613e-07
-2.03417e-06
-1.82138e-07
-1.94474e-06
-1.80414e-07
-1.85619e-06
-1.78484e-07
-1.76854e-06
-1.76425e-07
-1.68188e-06
-1.74289e-07
-1.59625e-06
-1.7209e-07
-1.51172e-06
-1.69828e-07
-1.42831e-06
-1.67506e-07
-1.34606e-06
-1.65127e-07
-1.26499e-06
-1.62695e-07
-1.18513e-06
-1.60218e-07
-1.10651e-06
-1.577e-07
-1.02915e-06
-1.55145e-07
-9.53072e-07
-1.52554e-07
-8.78275e-07
-1.49927e-07
-8.04758e-07
-1.4728e-07
-7.32534e-07
-1.44623e-07
-6.61607e-07
-1.41962e-07
-5.91978e-07
-1.393e-07
-5.23647e-07
-1.3664e-07
-4.56613e-07
-1.33984e-07
-3.90871e-07
-1.31337e-07
-3.26417e-07
-1.28703e-07
-2.6324e-07
-1.26089e-07
-2.0133e-07
-1.23495e-07
-1.40678e-07
-1.20919e-07
-8.12731e-08
-1.18368e-07
-2.31079e-08
-1.15842e-07
3.38322e-08
-1.13355e-07
8.95755e-08
-1.10916e-07
1.44138e-07
-1.0851e-07
1.9753e-07
-1.06135e-07
2.49767e-07
-1.03796e-07
3.00876e-07
-1.01492e-07
3.50887e-07
-9.92246e-08
3.99964e-07
-9.69941e-08
4.48065e-07
-9.4874e-08
4.94974e-07
-9.28412e-08
5.40774e-07
-9.07644e-08
5.85537e-07
-8.86651e-08
6.29293e-07
-8.65941e-08
6.72072e-07
-8.45705e-08
7.13898e-07
-8.26004e-08
7.54793e-07
-8.06855e-08
7.94783e-07
-7.88242e-08
8.3389e-07
-7.70152e-08
8.72137e-07
-7.52566e-08
9.09547e-07
-7.35477e-08
9.46143e-07
-7.1887e-08
9.81948e-07
-7.02745e-08
1.01699e-06
-6.8709e-08
1.05128e-06
-6.71908e-08
1.08485e-06
-6.57191e-08
1.11772e-06
-6.42946e-08
1.14992e-06
-6.29167e-08
1.18147e-06
-6.15861e-08
1.21238e-06
-6.03024e-08
1.24269e-06
-5.9066e-08
1.27241e-06
-5.78764e-08
1.30157e-06
-5.6734e-08
1.33019e-06
-5.56381e-08
1.35829e-06
-5.45887e-08
1.3859e-06
-5.35845e-08
1.41304e-06
-5.26249e-08
1.43972e-06
-5.17074e-08
1.46596e-06
-5.08299e-08
1.49179e-06
-4.99876e-08
1.51721e-06
-4.91758e-08
1.54224e-06
-4.83857e-08
1.56688e-06
-4.76069e-08
1.59113e-06
-4.68234e-08
1.61497e-06
-4.60142e-08
1.63838e-06
-4.51495e-08
1.66131e-06
-4.41882e-08
1.68369e-06
-4.3073e-08
1.70541e-06
-4.17219e-08
1.72631e-06
-4.00175e-08
1.74614e-06
-3.77823e-08
1.76454e-06
-3.47482e-08
1.78095e-06
-3.04534e-08
1.79449e-06
-2.41437e-08
1.80417e-06
-1.42388e-08
1.80899e-06
2.05435e-09
1.80707e-06
3.15129e-08
8.81602e-08
1.79133e-06
2.45032e-07
-5.23546e-07
3.40226e-07
-5.44279e-07
3.55989e-07
-4.16311e-07
3.44629e-07
-2.92119e-07
3.16593e-07
-1.77668e-07
2.72141e-07
-7.10375e-08
2.10536e-07
2.85077e-08
1.30761e-07
1.21171e-07
3.17098e-08
2.06519e-07
-8.88034e-08
2.83857e-07
-2.36618e-07
3.52405e-07
-4.22383e-07
4.13998e-07
-6.59455e-07
4.75508e-07
-9.54322e-07
5.45526e-07
-1.29619e-06
6.27318e-07
-1.66315e-06
7.15112e-07
-2.03458e-06
7.97968e-07
-2.39399e-06
8.66616e-07
-2.72809e-06
9.15804e-07
-3.02545e-06
9.43546e-07
-3.28171e-06
9.49157e-07
-3.49886e-06
9.33483e-07
-3.68036e-06
8.99864e-07
-3.83e-06
8.5293e-07
-3.95242e-06
7.96913e-07
-4.05301e-06
7.3548e-07
-4.13707e-06
6.71896e-07
-4.20896e-06
6.08882e-07
-4.27208e-06
5.48438e-07
-4.32902e-06
4.9179e-07
-4.38165e-06
4.3953e-07
-4.43107e-06
3.91882e-07
-4.47791e-06
3.48754e-07
-4.52243e-06
3.09863e-07
-4.56467e-06
2.74816e-07
-4.60452e-06
2.43176e-07
-4.64182e-06
2.14505e-07
-4.67639e-06
1.88388e-07
-4.70803e-06
1.64451e-07
-4.73657e-06
1.42365e-07
-4.76189e-06
1.2185e-07
-4.78388e-06
1.02669e-07
-4.80245e-06
8.46256e-08
-4.81753e-06
6.75557e-08
-4.82906e-06
5.13205e-08
-4.83698e-06
3.58018e-08
-4.84119e-06
2.08983e-08
-4.84155e-06
6.51658e-09
-4.83784e-06
-7.44994e-09
-4.82992e-06
-2.11151e-08
-4.81786e-06
-3.45368e-08
-4.80172e-06
-4.7702e-08
-4.78155e-06
-6.0589e-08
-4.7574e-06
-7.31891e-08
-4.72934e-06
-8.54956e-08
-4.69742e-06
-9.75026e-08
-4.66174e-06
-1.09203e-07
-4.62239e-06
-1.20588e-07
-4.57945e-06
-1.31648e-07
-4.53305e-06
-1.4237e-07
-4.48327e-06
-1.52743e-07
-4.43025e-06
-1.62754e-07
-4.37409e-06
-1.72388e-07
-4.31492e-06
-1.81636e-07
-4.25288e-06
-1.90489e-07
-4.18807e-06
-1.98937e-07
-4.12066e-06
-2.06969e-07
-4.05075e-06
-2.14578e-07
-3.97851e-06
-2.21758e-07
-3.90406e-06
-2.28507e-07
-3.82755e-06
-2.3482e-07
-3.74912e-06
-2.40697e-07
-3.66891e-06
-2.46139e-07
-3.58705e-06
-2.51146e-07
-3.50371e-06
-2.55723e-07
-3.419e-06
-2.59874e-07
-3.33307e-06
-2.63604e-07
-3.24605e-06
-2.66922e-07
-3.15807e-06
-2.69835e-07
-3.06928e-06
-2.72353e-07
-2.97978e-06
-2.74487e-07
-2.88971e-06
-2.76249e-07
-2.79919e-06
-2.7765e-07
-2.70833e-06
-2.78704e-07
-2.61724e-06
-2.79426e-07
-2.52604e-06
-2.7983e-07
-2.43483e-06
-2.7993e-07
-2.34373e-06
-2.79742e-07
-2.25282e-06
-2.7928e-07
-2.16223e-06
-2.78558e-07
-2.07204e-06
-2.77586e-07
-1.98237e-06
-2.7637e-07
-1.89332e-06
-2.74911e-07
-1.80497e-06
-2.73194e-07
-1.71738e-06
-2.71204e-07
-1.63058e-06
-2.6894e-07
-1.54457e-06
-2.66417e-07
-1.45939e-06
-2.63673e-07
-1.37506e-06
-2.60752e-07
-1.29166e-06
-2.57689e-07
-1.20924e-06
-2.54505e-07
-1.12786e-06
-2.51212e-07
-1.04755e-06
-2.47818e-07
-9.6834e-07
-2.44335e-07
-8.90266e-07
-2.4077e-07
-8.13351e-07
-2.37133e-07
-7.3762e-07
-2.33431e-07
-6.63091e-07
-2.29674e-07
-5.89778e-07
-2.25867e-07
-5.17687e-07
-2.22018e-07
-4.46826e-07
-2.1814e-07
-3.77206e-07
-2.14243e-07
-3.08833e-07
-2.10335e-07
-2.41708e-07
-2.06425e-07
-1.75832e-07
-2.02516e-07
-1.11202e-07
-1.98613e-07
-4.78158e-08
-1.94723e-07
1.43342e-08
-1.90853e-07
7.52522e-08
-1.87007e-07
1.34946e-07
-1.83189e-07
1.93429e-07
-1.79402e-07
2.50713e-07
-1.75652e-07
3.06813e-07
-1.71942e-07
3.61742e-07
-1.68283e-07
4.15504e-07
-1.64678e-07
4.68116e-07
-1.61123e-07
5.19599e-07
-1.57618e-07
5.69971e-07
-1.54167e-07
6.19255e-07
-1.50775e-07
6.67479e-07
-1.47449e-07
7.14688e-07
-1.44203e-07
7.6086e-07
-1.41046e-07
8.05963e-07
-1.37944e-07
8.50049e-07
-1.3485e-07
8.93161e-07
-1.31776e-07
9.35321e-07
-1.28753e-07
9.76547e-07
-1.25796e-07
1.01686e-06
-1.22911e-07
1.05627e-06
-1.20101e-07
1.09482e-06
-1.17365e-07
1.13251e-06
-1.14703e-07
1.16936e-06
-1.12113e-07
1.20541e-06
-1.09594e-07
1.24067e-06
-1.07146e-07
1.27516e-06
-1.04768e-07
1.30891e-06
-1.02459e-07
1.34194e-06
-1.0022e-07
1.37427e-06
-9.80489e-08
1.40592e-06
-9.59471e-08
1.43692e-06
-9.39141e-08
1.46728e-06
-9.19503e-08
1.49704e-06
-9.00555e-08
1.5262e-06
-8.823e-08
1.5548e-06
-8.64736e-08
1.58285e-06
-8.47861e-08
1.61038e-06
-8.31672e-08
1.63741e-06
-8.16162e-08
1.66396e-06
-8.01318e-08
1.69004e-06
-7.87125e-08
1.71569e-06
-7.73551e-08
1.74092e-06
-7.60562e-08
1.76574e-06
-7.48095e-08
1.79017e-06
-7.36074e-08
1.81423e-06
-7.24381e-08
1.83791e-06
-7.12865e-08
1.86122e-06
-7.01301e-08
1.88414e-06
-6.89396e-08
1.90666e-06
-6.76729e-08
1.92875e-06
-6.62733e-08
1.95033e-06
-6.46602e-08
1.97133e-06
-6.27205e-08
1.9916e-06
-6.02919e-08
2.01095e-06
-5.71331e-08
2.02908e-06
-5.28822e-08
2.04557e-06
-4.69466e-08
2.05981e-06
-3.83891e-08
2.07101e-06
-2.54531e-08
2.07833e-06
-5.26742e-09
2.0822e-06
2.7637e-08
8.56398e-08
2.08472e-06
9.23562e-08
-6.15904e-07
6.09307e-08
-5.1285e-07
1.19084e-08
-3.67293e-07
-4.57324e-08
-2.34473e-07
-1.15791e-07
-1.07614e-07
-2.0173e-07
1.49055e-08
-3.06567e-07
1.3334e-07
-4.32714e-07
2.47317e-07
-5.82772e-07
3.56575e-07
-7.60145e-07
4.61224e-07
-9.69591e-07
5.61851e-07
-1.21535e-06
6.59745e-07
-1.49592e-06
7.56074e-07
-1.80022e-06
8.4982e-07
-2.10945e-06
9.36547e-07
-2.40419e-06
1.00985e-06
-2.67025e-06
1.06404e-06
-2.89962e-06
1.096e-06
-3.08914e-06
1.10533e-06
-3.2394e-06
1.09382e-06
-3.3547e-06
1.06447e-06
-3.44185e-06
1.02063e-06
-3.5081e-06
9.66115e-07
-3.5599e-06
9.04736e-07
-3.60268e-06
8.39687e-07
-3.64078e-06
7.7359e-07
-3.67742e-06
7.08532e-07
-3.71458e-06
6.46039e-07
-3.75324e-06
5.87094e-07
-3.79365e-06
5.322e-07
-3.83562e-06
4.81505e-07
-3.87866e-06
4.34922e-07
-3.92213e-06
3.92216e-07
-3.96533e-06
3.53066e-07
-4.00762e-06
3.17109e-07
-4.04842e-06
2.83977e-07
-4.08723e-06
2.53312e-07
-4.12363e-06
2.24787e-07
-4.15728e-06
1.98102e-07
-4.1879e-06
1.72994e-07
-4.21529e-06
1.49237e-07
-4.23926e-06
1.26633e-07
-4.25965e-06
1.05019e-07
-4.27635e-06
8.42541e-08
-4.28924e-06
6.42185e-08
-4.29825e-06
4.48119e-08
-4.3033e-06
2.59485e-08
-4.30434e-06
7.55195e-09
-4.30134e-06
-1.0451e-08
-4.29433e-06
-2.8121e-08
-4.28338e-06
-4.54851e-08
-4.26854e-06
-6.25397e-08
-4.24986e-06
-7.92721e-08
-4.22738e-06
-9.56693e-08
-4.20116e-06
-1.11718e-07
-4.17126e-06
-1.27403e-07
-4.13775e-06
-1.42709e-07
-4.10072e-06
-1.57619e-07
-4.06025e-06
-1.72116e-07
-4.01644e-06
-1.8618e-07
-3.96939e-06
-1.99795e-07
-3.9192e-06
-2.12941e-07
-3.86599e-06
-2.25598e-07
-3.80988e-06
-2.37751e-07
-3.75098e-06
-2.49389e-07
-3.68942e-06
-2.60497e-07
-3.62533e-06
-2.71061e-07
-3.55883e-06
-2.81072e-07
-3.49007e-06
-2.90522e-07
-3.41917e-06
-2.99405e-07
-3.34627e-06
-3.07717e-07
-3.27152e-06
-3.15457e-07
-3.19503e-06
-3.22624e-07
-3.11696e-06
-3.29221e-07
-3.03743e-06
-3.35251e-07
-2.95658e-06
-3.40721e-07
-2.87455e-06
-3.45638e-07
-2.79146e-06
-3.50011e-07
-2.70744e-06
-3.53851e-07
-2.62263e-06
-3.57169e-07
-2.53713e-06
-3.5998e-07
-2.45108e-06
-3.62297e-07
-2.3646e-06
-3.64137e-07
-2.27779e-06
-3.65516e-07
-2.19076e-06
-3.66451e-07
-2.10363e-06
-3.6696e-07
-2.0165e-06
-3.67061e-07
-1.92947e-06
-3.66771e-07
-1.84264e-06
-3.66108e-07
-1.75611e-06
-3.65088e-07
-1.66998e-06
-3.63724e-07
-1.58432e-06
-3.62027e-07
-1.49923e-06
-3.60005e-07
-1.41476e-06
-3.57659e-07
-1.33097e-06
-3.5499e-07
-1.2479e-06
-3.5201e-07
-1.16558e-06
-3.48737e-07
-1.08405e-06
-3.45204e-07
-1.00336e-06
-3.41446e-07
-9.23555e-07
-3.37493e-07
-8.44693e-07
-3.33367e-07
-7.66816e-07
-3.29089e-07
-6.89962e-07
-3.24672e-07
-6.14164e-07
-3.20132e-07
-5.39452e-07
-3.15482e-07
-4.6585e-07
-3.10735e-07
-3.9338e-07
-3.05901e-07