/*--------------------------------*- C++ -*----------------------------------*\
  =========                 |
  \\      /  F ield         | OpenFOAM: The Open Source CFD Toolbox
   \\    /   O peration     | Website:  https://openfoam.org
    \\  /    A nd           | Version:  8
     \\/     M anipulation  |
\*---------------------------------------------------------------------------*/
FoamFile
{
    version     2.0;
    format      ascii;
    class       volVectorField;
    location    "2100";
    object      U;
}
// * * * * * * * * * * * * * * * * * * * * * * * * * * * * * * * * * * * * * //

dimensions      [0 1 -1 0 0 0 0];

internalField   nonuniform List<vector> 
12225
(
(9.2745 -4.73371 0)
(13.1094 -1.71343 0)
(12.4778 -0.395198 0)
(11.2771 -0.0422041 0)
(10.6314 0.0141385 0)
(10.2979 -9.39284e-05 0)
(10.0776 -0.0165233 0)
(9.91227 -0.00288817 0)
(9.77909 0.0348748 0)
(9.66231 0.0428928 0)
(9.55575 0.024883 0)
(9.45767 0.0021418 0)
(9.36676 -0.0227922 0)
(9.28212 -0.0302257 0)
(9.20232 -0.0217883 0)
(9.13253 -0.0212282 0)
(9.07016 -0.0210404 0)
(9.08961 -0.0276986 0)
(10.2592 0.0928019 0)
(10.7814 0.199339 0)
(10.9594 0.245656 0)
(10.7469 0.229144 0)
(10.5875 0.172969 0)
(10.4527 0.115535 0)
(10.33 0.0823315 0)
(10.2327 0.0647301 0)
(10.155 0.0524769 0)
(10.0894 0.0472341 0)
(10.0323 0.0469931 0)
(9.98212 0.0489905 0)
(9.93785 0.0517976 0)
(9.89833 0.0519424 0)
(9.8615 0.0483247 0)
(9.82886 0.0438425 0)
(9.79429 0.0300795 0)
(9.76827 0.0102822 0)
(9.87768 -0.24504 0)
(9.74285 0.00579117 0)
(10.1971 0.125744 0)
(10.3245 0.179364 0)
(10.3564 0.161548 0)
(10.3311 0.120077 0)
(10.2777 0.0904942 0)
(10.2252 0.0746659 0)
(10.1812 0.0658754 0)
(10.1438 0.0600291 0)
(10.1103 0.0562086 0)
(10.0799 0.053651 0)
(10.052 0.0511363 0)
(10.026 0.0487619 0)
(10.0023 0.046075 0)
(9.98118 0.0417673 0)
(9.95915 0.0316697 0)
(9.93459 0.0135765 0)
(9.83416 -0.443933 0)
(9.57654 -0.163146 0)
(9.91603 0.0336708 0)
(10.0933 0.134225 0)
(10.1892 0.145473 0)
(10.2168 0.120739 0)
(10.205 0.0978953 0)
(10.1824 0.0839096 0)
(10.1599 0.0756297 0)
(10.1389 0.0697124 0)
(10.119 0.0651345 0)
(10.1001 0.0616375 0)
(10.0821 0.0586131 0)
(10.0648 0.056229 0)
(10.0483 0.0538543 0)
(10.0325 0.0501443 0)
(10.0148 0.0424178 0)
(9.99178 0.0306125 0)
(9.87825 -0.387476 0)
(9.61653 -0.196147 0)
(9.81623 -0.0186699 0)
(9.96136 0.0916133 0)
(10.0698 0.122197 0)
(10.1219 0.113628 0)
(10.1354 0.0992644 0)
(10.1332 0.0884211 0)
(10.1257 0.0809485 0)
(10.1162 0.0753966 0)
(10.1056 0.0711241 0)
(10.0946 0.0678818 0)
(10.0833 0.0652541 0)
(10.0718 0.0631563 0)
(10.0601 0.0610443 0)
(10.0477 0.0581062 0)
(10.0328 0.0530806 0)
(10.0125 0.0469028 0)
(9.91439 -0.28804 0)
(9.68304 -0.185176 0)
(9.78717 -0.0532072 0)
(9.88917 0.0509996 0)
(9.98796 0.0936803 0)
(10.0476 0.0992042 0)
(10.0751 0.0938745 0)
(10.0861 0.0875182 0)
(10.0892 0.0821206 0)
(10.0879 0.0777645 0)
(10.0842 0.0743508 0)
(10.0789 0.0717601 0)
(10.0726 0.0697417 0)
(10.0654 0.0681719 0)
(10.0572 0.0667257 0)
(10.0476 0.0650431 0)
(10.0354 0.0627829 0)
(10.0185 0.0611704 0)
(9.93763 -0.214041 0)
(9.74856 -0.167535 0)
(9.79244 -0.0752151 0)
(9.85608 0.0162209 0)
(9.93595 0.0644223 0)
(9.99281 0.0805956 0)
(10.0261 0.0835615 0)
(10.0447 0.0822436 0)
(10.0546 0.0797795 0)
(10.0593 0.0772875 0)
(10.0606 0.0751759 0)
(10.0596 0.0735591 0)
(10.057 0.0723893 0)
(10.053 0.0716353 0)
(10.0477 0.0711907 0)
(10.0407 0.0710159 0)
(10.0312 0.0712781 0)
(10.0182 0.0731521 0)
(9.95263 -0.167334 0)
(9.79947 -0.149676 0)
(9.81177 -0.084641 0)
(9.84959 -0.00620992 0)
(9.9114 0.0419323 0)
(9.96107 0.0638974 0)
(9.99432 0.0725502 0)
(10.0156 0.0752864 0)
(10.0288 0.07553 0)
(10.0367 0.0749036 0)
(10.041 0.0741478 0)
(10.0427 0.0735818 0)
(10.0425 0.0733232 0)
(10.0408 0.0734486 0)
(10.0375 0.0740058 0)
(10.0325 0.0751363 0)
(10.0254 0.0772047 0)
(10.0157 0.0812044 0)
(9.96406 -0.132089 0)
(9.84003 -0.131988 0)
(9.83337 -0.0876896 0)
(9.85306 -0.0213323 0)
(9.89927 0.024416 0)
(9.94102 0.0495134 0)
(9.97207 0.0621237 0)
(9.99385 0.0680771 0)
(10.0086 0.0706962 0)
(10.0184 0.0717947 0)
(10.0246 0.0723177 0)
(10.0282 0.0727537 0)
(10.0298 0.0733606 0)
(10.0297 0.0743191 0)
(10.028 0.0757872 0)
(10.0248 0.0780079 0)
(10.0197 0.0814109 0)
(10.0129 0.0868078 0)
(9.97418 -0.100205 0)
(9.87757 -0.11239 0)
(9.85857 -0.0853659 0)
(9.86387 -0.0323325 0)
(9.89487 0.00892933 0)
(9.92743 0.0352244 0)
(9.95439 0.0507175 0)
(9.97502 0.0594973 0)
(9.99014 0.0644444 0)
(10.0009 0.0673596 0)
(10.0085 0.0692983 0)
(10.0135 0.0708781 0)
(10.0166 0.0724767 0)
(10.018 0.0743694 0)
(10.0179 0.0768021 0)
(10.0164 0.0800765 0)
(10.0136 0.0846181 0)
(10.0095 0.0910433 0)
(9.98253 -0.0727091 0)
(9.91035 -0.0921961 0)
(9.88507 -0.0782439 0)
(9.88001 -0.0386071 0)
(9.89746 -0.00337347 0)
(9.92043 0.0221695 0)
(9.94196 0.0391849 0)
(9.95999 0.0500816 0)
(9.97425 0.0570567 0)
(9.98518 0.0617055 0)
(9.99339 0.06508 0)
(9.99941 0.0678639 0)
(10.0037 0.0705169 0)
(10.0064 0.073385 0)
(10.0078 0.0767703 0)
(10.0081 0.0809923 0)
(10.0073 0.0864248 0)
(10.0058 0.0935038 0)
(9.98894 -0.0502565 0)
(9.93733 -0.0723779 0)
(9.91073 -0.0674477 0)
(9.89917 -0.0399823 0)
(9.90566 -0.0116492 0)
(9.91955 0.0114528 0)
(9.93496 0.0285313 0)
(9.94934 0.0405811 0)
(9.96169 0.0490252 0)
(9.97188 0.0551123 0)
(9.98009 0.0597805 0)
(9.98659 0.0637036 0)
(9.99163 0.0673721 0)
(9.99544 0.0711651 0)
(9.9982 0.075404 0)
(10.0001 0.0803911 0)
(10.0013 0.0864268 0)
(10.0021 0.0937943 0)
(9.99348 -0.0329085 0)
(9.9582 -0.0538108 0)
(9.93368 -0.0542831 0)
(9.91898 -0.0367867 0)
(9.91755 -0.0154527 0)
(9.92366 0.00399569 0)
(9.93301 0.0197764 0)
(9.94318 0.0318776 0)
(9.9529 0.0410116 0)
(9.96163 0.0480216 0)
(9.96922 0.0536483 0)
(9.9757 0.0584846 0)
(9.98118 0.0629934 0)
(9.98578 0.0675423 0)
(9.98965 0.0724352 0)
(9.99294 0.077932 0)
(9.99587 0.0842546 0)
(9.99869 0.0915743 0)
(9.99643 -0.0202023 0)
(9.97327 -0.0372095 0)
(9.95261 -0.0400449 0)
(9.93731 -0.02981 0)
(9.93089 -0.0148227 0)
(9.93102 0.000367459 0)
(9.93504 0.0137753 0)
(9.94104 0.0248438 0)
(9.94782 0.03376 0)
(9.95465 0.0409923 0)
(9.96117 0.0470509 0)
(9.96724 0.0523959 0)
(9.97281 0.0574126 0)
(9.9779 0.062416 0)
(9.98261 0.0676602 0)
(9.98704 0.0733474 0)
(9.99135 0.0796284 0)
(9.99573 0.0865964 0)
(9.99816 -0.0112875 0)
(9.9833 -0.0229302 0)
(9.96682 -0.0257621 0)
(9.95243 -0.0200759 0)
(9.94344 -0.0102408 0)
(9.93952 0.000676037 0)
(9.9394 0.0110311 0)
(9.94183 0.0201451 0)
(9.94582 0.0279264 0)
(9.95069 0.034573 0)
(9.95597 0.0403867 0)
(9.96139 0.0456773 0)
(9.96681 0.0507228 0)
(9.97215 0.0557552 0)
(9.97744 0.0609586 0)
(9.9827 0.0664694 0)
(9.98803 0.0723771 0)
(9.99354 0.0787223 0)
(9.99906 -0.00508065 0)
(9.98922 -0.0107803 0)
(9.97612 -0.0119161 0)
(9.96309 -0.00848176 0)
(9.9531 -0.00243352 0)
(9.94685 0.00457993 0)
(9.94399 0.0115588 0)
(9.94384 0.018022 0)
(9.9457 0.0238403 0)
(9.94896 0.0290821 0)
(9.95317 0.0339028 0)
(9.95799 0.0384793 0)
(9.96321 0.0429762 0)
(9.96868 0.0475308 0)
(9.97435 0.0522475 0)
(9.98019 0.0571958 0)
(9.98623 0.0624112 0)
(9.99249 0.0678961 0)
(9.99942 -0.000367005 0)
(9.9918 0.000152397 0)
(9.98042 0.00183331 0)
(9.96821 0.00459493 0)
(9.9579 0.00792158 0)
(9.95061 0.0114032 0)
(9.94642 0.0148185 0)
(9.94498 0.0180904 0)
(9.94576 0.0212357 0)
(9.94825 0.0243206 0)
(9.95198 0.0274262 0)
(9.95661 0.0306297 0)
(9.96186 0.0339933 0)
(9.96757 0.0375613 0)
(9.97362 0.0413571 0)
(9.97993 0.045386 0)
(9.98648 0.0496333 0)
(9.99325 0.0540696 0)
(9.99935 0.00408503 0)
(9.9911 0.011174 0)
(9.97897 0.0161345 0)
(9.96616 0.0187382 0)
(9.95552 0.0196147 0)
(9.94819 0.0195486 0)
(9.94419 0.019162 0)
(9.94311 0.0188649 0)
(9.94438 0.0188978 0)
(9.94741 0.0193781 0)
(9.95174 0.0203461 0)
(9.95698 0.0217968 0)
(9.96287 0.0236993 0)
(9.96919 0.0260088 0)
(9.97583 0.0286739 0)
(9.98269 0.0316379 0)
(9.98974 0.0348431 0)
(9.99692 0.0382287 0)
(9.99882 0.00972997 0)
(9.98675 0.0240496 0)
(9.97122 0.0318479 0)
(9.95641 0.0332956 0)
(9.94558 0.0307064 0)
(9.93942 0.0263528 0)
(9.93734 0.0217506 0)
(9.93845 0.0177419 0)
(9.94186 0.0146977 0)
(9.94687 0.0127134 0)
(9.95292 0.0117334 0)
(9.95963 0.0116385 0)
(9.96674 0.0122897 0)
(9.97408 0.0135511 0)
(9.98155 0.0152979 0)
(9.98908 0.0174206 0)
(9.99665 0.0198224 0)
(10.0042 0.0224199 0)
(9.99757 0.0182101 0)
(9.97773 0.0404561 0)
(9.95664 0.0495788 0)
(9.93945 0.0474807 0)
(9.92961 0.0394263 0)
(9.92659 0.0296502 0)
(9.92848 0.0204939 0)
(9.93357 0.0129705 0)
(9.94055 0.00735239 0)
(9.94856 0.00352097 0)
(9.95704 0.00122569 0)
(9.96567 0.000176471 0)
(9.97428 0.000109312 0)
(9.98276 0.000791127 0)
(9.99108 0.00203518 0)
(9.99925 0.00369033 0)
(10.0073 0.0056334 0)
(10.0151 0.00776842 0)
(9.99502 0.0318146 0)
(9.96177 0.0621344 0)
(9.93372 0.0695526 0)
(9.91534 0.0601168 0)
(9.90932 0.0439534 0)
(9.91249 0.0276635 0)
(9.92084 0.0139978 0)
(9.93162 0.00364372 0)
(9.94322 -0.00363776 0)
(9.95479 -0.00836999 0)
(9.96594 -0.0111271 0)
(9.97652 -0.0123919 0)
(9.9865 -0.0125694 0)
(9.99594 -0.0119628 0)
(10.0049 -0.0108046 0)
(10.0135 -0.00926789 0)
(10.0217 -0.00747844 0)
(10.0296 -0.0055397 0)
(9.99018 0.0534619 0)
(9.93561 0.0901525 0)
(9.90098 0.0906287 0)
(9.88515 0.0687583 0)
(9.8878 0.0418211 0)
(9.90121 0.0186617 0)
(9.91856 0.00142167 0)
(9.93626 -0.0103908 0)
(9.95285 -0.0179348 0)
(9.96786 -0.022387 0)
(9.98129 -0.0246441 0)
(9.99332 -0.0253856 0)
(10.0042 -0.0250939 0)
(10.0141 -0.024127 0)
(10.0232 -0.0227229 0)
(10.0318 -0.0210353 0)
(10.0399 -0.0191841 0)
(10.0476 -0.0172496 0)
(9.9819 0.0862472 0)
(9.89548 0.124258 0)
(9.85817 0.109884 0)
(9.85209 0.069775 0)
(9.87033 0.0303399 0)
(9.89842 0.00145186 0)
(9.92658 -0.0171998 0)
(9.95135 -0.0283138 0)
(9.9722 -0.034411 0)
(9.9896 -0.03732 0)
(10.0042 -0.038197 0)
(10.0167 -0.0377938 0)
(10.0276 -0.0366112 0)
(10.0372 -0.0349943 0)
(10.0459 -0.0331433 0)
(10.0539 -0.0311573 0)
(10.0613 -0.0291196 0)
(10.0684 -0.0270991 0)
(9.96925 0.13399 0)
(9.83823 0.163089 0)
(9.80793 0.122591 0)
(9.82311 0.0588007 0)
(9.86513 0.00730968 0)
(9.91139 -0.0240238 0)
(9.95035 -0.0405857 0)
(9.98049 -0.0483635 0)
(10.0034 -0.0512236 0)
(10.0212 -0.0515238 0)
(10.0353 -0.0504013 0)
(10.0469 -0.0485024 0)
(10.0565 -0.0462428 0)
(10.0648 -0.0438785 0)
(10.0722 -0.0415479 0)
(10.0789 -0.0392308 0)
(10.0852 -0.0369729 0)
(10.0911 -0.034857 0)
(9.94951 0.207141 0)
(9.76128 0.207022 0)
(9.75726 0.123478 0)
(9.81042 0.0320116 0)
(9.88382 -0.0278598 0)
(9.94874 -0.0559925 0)
(9.99527 -0.0660685 0)
(10.0266 -0.0677934 0)
(10.048 -0.0659581 0)
(10.063 -0.0631733 0)
(10.0743 -0.0598647 0)
(10.083 -0.0564839 0)
(10.09 -0.0531263 0)
(10.0957 -0.0501446 0)
(10.1009 -0.0474759 0)
(10.1056 -0.0449253 0)
(10.11 -0.0425146 0)
(10.1141 -0.0403481 0)
(9.91094 0.322718 0)
(9.65923 0.254545 0)
(9.71887 0.107407 0)
(9.83329 -0.0119227 0)
(9.94173 -0.0726518 0)
(10.0199 -0.090161 0)
(10.0662 -0.0893192 0)
(10.0918 -0.083132 0)
(10.1058 -0.0760202 0)
(10.1141 -0.0695979 0)
(10.1197 -0.0644585 0)
(10.1236 -0.0600998 0)
(10.1261 -0.0563584 0)
(10.1279 -0.0531259 0)
(10.1295 -0.0505758 0)
(10.1313 -0.0482136 0)
(10.1329 -0.0456127 0)
(10.1345 -0.0434954 0)
(9.84404 0.43511 0)
(9.53798 0.261026 0)
(9.7269 0.059135 0)
(9.92367 -0.0731153 0)
(10.0584 -0.121552 0)
(10.1345 -0.120191 0)
(10.1665 -0.105279 0)
(10.1758 -0.0906119 0)
(10.1759 -0.078465 0)
(10.1726 -0.0703534 0)
(10.1686 -0.0644078 0)
(10.1647 -0.0598217 0)
(10.1606 -0.0555401 0)
(10.1564 -0.0521967 0)
(10.1529 -0.0503123 0)
(10.1506 -0.0482169 0)
(10.1482 -0.0456343 0)
(10.1458 -0.0439154 0)
(9.83598 0.319666 0)
(9.55021 0.0912513 0)
(9.91739 -0.0687254 0)
(10.1507 -0.160112 0)
(10.2634 -0.172136 0)
(10.3032 -0.142727 0)
(10.2978 -0.112095 0)
(10.276 -0.0899506 0)
(10.2516 -0.0753723 0)
(10.2302 -0.0674497 0)
(10.2132 -0.0619133 0)
(10.1986 -0.0575185 0)
(10.1843 -0.0523911 0)
(10.1703 -0.0482341 0)
(10.1594 -0.0467721 0)
(10.1504 -0.043947 0)
(10.1409 -0.0396706 0)
(10.1324 -0.0389269 0)
(10.2049 -0.0633775 0)
(10.4095 -0.191706 0)
(10.7164 -0.282558 0)
(10.6879 -0.282287 0)
(10.6191 -0.230103 0)
(10.5417 -0.163669 0)
(10.4545 -0.117043 0)
(10.3763 -0.0924956 0)
(10.3136 -0.079868 0)
(10.2654 -0.0678548 0)
(10.2261 -0.0589725 0)
(10.1924 -0.0539316 0)
(10.1597 -0.0536937 0)
(10.1305 -0.0530294 0)
(10.1086 -0.047524 0)
(10.0852 -0.0454796 0)
(10.0625 -0.0482518 0)
(10.0457 -0.0447272 0)
(9.41631 4.45107 0)
(12.7294 2.07612 0)
(12.5649 0.621213 0)
(11.569 0.127658 0)
(10.9309 0.00343472 0)
(10.5866 -0.00206751 0)
(10.3638 0.0123127 0)
(10.2021 0.0302295 0)
(10.0796 0.0412444 0)
(9.97712 0.035689 0)
(9.88537 0.0255647 0)
(9.7981 0.0207409 0)
(9.72381 0.0274794 0)
(9.66289 0.0262717 0)
(9.60004 0.00145936 0)
(9.54294 -0.00539882 0)
(9.49687 0.00930019 0)
(9.44929 -0.00384024 0)
(-0.027514 0.0934266 0)
(0.13702 -0.183512 0)
(0.324988 -0.305899 0)
(0.525475 -0.315119 0)
(0.70295 -0.272073 0)
(0.833498 -0.21108 0)
(0.909816 -0.146341 -8.60182e-20)
(0.940397 -0.0824966 8.66424e-20)
(0.919525 -0.0201747 0)
(0.858843 0.0345348 9.18628e-20)
(0.771688 0.0739573 0)
(0.672428 0.0920025 0)
(0.578507 0.0877219 0)
(0.505708 0.0666623 -1.432e-19)
(0.455756 0.0377101 0)
(0.412411 0.00997428 0)
(0.352877 -0.00897278 1.87926e-19)
(0.262717 -0.00867956 0)
(0.135171 0.0293053 0)
(-0.0448249 0.11295 0)
(-0.300542 0.186494 -1.64808e-19)
(-0.594245 0.235262 0)
(-0.915669 0.26682 -7.62362e-20)
(-1.25192 0.29604 0)
(-1.59135 0.323657 0)
(-1.93109 0.336465 -4.13215e-20)
(-2.26352 0.335616 0)
(-2.58063 0.326493 3.45399e-20)
(-2.8794 0.310355 0)
(-3.15642 0.289554 -3.13411e-20)
(-3.41077 0.266418 0)
(-3.64207 0.242538 0)
(-3.85104 0.218947 0)
(-4.03878 0.196353 0)
(-4.20672 0.175131 0)
(-4.35644 0.155489 2.82294e-20)
(-4.48951 0.137461 0)
(-4.60742 0.120976 -5.55704e-20)
(-4.71155 0.105907 0)
(-4.80311 0.0920952 5.47717e-20)
(-4.88317 0.0793776 0)
(-4.95263 0.0676026 0)
(-5.01222 0.0566421 -5.35497e-20)
(-5.06259 0.0463996 0)
(-5.10422 0.0368156 -5.2658e-20)
(-5.13755 0.0278731 5.21802e-20)
(-5.16294 0.0196164 0)
(-5.18081 0.0121932 5.11533e-20)
(-5.19142 0.0058515 5.06009e-20)
(-5.19494 0.000801762 0)
(-5.19262 -0.00315183 0)
(-5.18571 -0.00645019 0)
(-5.17432 -0.00937269 0)
(-5.1588 -0.0120834 0)
(-5.1393 -0.0146521 -4.61813e-20)
(-5.11595 -0.0170922 0)
(-5.08888 -0.0194152 4.43161e-20)
(-5.05819 -0.02163 0)
(-5.02397 -0.0237387 0)
(-4.98633 -0.0257434 -4.11379e-20)
(-4.94538 -0.0276444 0)
(-4.90122 -0.0294416 3.87622e-20)
(-4.85396 -0.0311349 0)
(-4.80371 -0.0327243 0)
(-4.7506 -0.0342096 0)
(-4.69474 -0.0355908 -3.33826e-20)
(-4.63625 -0.0368683 0)
(-4.57526 -0.0380431 0)
(-4.5119 -0.0391157 -2.87852e-20)
(-4.44629 -0.0400868 0)
(-4.37857 -0.040958 -2.54438e-20)
(-4.30887 -0.0417306 0)
(-4.23732 -0.0424063 0)
(-4.16405 -0.0429867 0)
(-4.08919 -0.0434741 1.80662e-20)
(-4.01287 -0.0438703 0)
(-3.93523 -0.0441776 0)
(-3.85638 -0.0443983 1.1884e-20)
(-3.77646 -0.0445348 9.69017e-21)
(-3.69558 -0.0445897 0)
(-3.61387 -0.0445662 5.08829e-21)
(-3.53143 -0.0444676 0)
(-3.44839 -0.0442983 3.6045e-22)
(-3.36484 -0.0440635 0)
(-3.2809 -0.0437701 -1.01295e-20)
(-3.19665 -0.043427 0)
(-3.11218 -0.0430466 2.13726e-20)
(-3.02759 -0.0426473 0)
(-2.94292 -0.0422573 0)
(-2.85825 -0.0419198 0)
(-2.77362 -0.0416975 -4.65657e-20)
(-2.68903 -0.0416727 0)
(-2.60452 -0.0419345 6.08417e-20)
(-2.52003 -0.0425396 0)
(-2.43553 -0.0434296 -7.65123e-20)
(-2.35128 -0.0443324 -8.48914e-20)
(-2.26751 -0.0447872 -9.36002e-20)
(-2.18449 -0.0445793 0)
(-2.10238 -0.0439744 0)
(-2.02119 -0.0432761 0)
(-1.94095 -0.0425711 0)
(-1.86166 -0.0418709 0)
(-1.78335 -0.0411765 0)
(-1.70603 -0.0404895 0)
(-1.62974 -0.0398138 0)
(-1.5545 -0.0391552 1.92717e-19)
(-1.48032 -0.0385207 2.07039e-19)
(-1.40722 -0.0379156 0)
(-1.3352 -0.0373291 0)
(-1.26431 -0.0367038 0)
(-1.19458 -0.0360462 2.74312e-19)
(-1.126 -0.0354121 0)
(-1.05858 -0.0347966 0)
(-0.992332 -0.034201 0)
(-0.927245 -0.0336269 0)
(-0.863324 -0.0330766 -3.90964e-19)
(-0.800566 -0.0325523 0)
(-0.738969 -0.0320573 0)
(-0.678524 -0.0315951 4.89158e-19)
(-0.619227 -0.0311673 -5.28863e-19)
(-0.561069 -0.0307772 0)
(-0.504043 -0.0304355 -6.22492e-19)
(-0.448137 -0.0301659 0)
(-0.39333 -0.030013 7.415e-19)
(-0.339603 -0.0299877 0)
(-0.28694 -0.0300514 0)
(-0.235327 -0.0301912 0)
(-0.184736 -0.0304182 0)
(-0.13514 -0.0307477 0)
(-0.0865852 -0.0311987 -2.84729e-18)
(-0.0392823 -0.0316528 -3.27822e-18)
(0.00682252 -0.0313507 0)
(0.0522403 -0.0298505 0)
(0.0969801 -0.0279997 0)
(0.1409 -0.0262817 2.68418e-18)
(0.183908 -0.0247489 0)
(0.225984 -0.0233754 0)
(0.267149 -0.0221379 0)
(0.307437 -0.0210164 2.03962e-18)
(0.346879 -0.0199936 -1.93338e-18)
(0.385501 -0.0190555 0)
(0.423331 -0.0181904 0)
(0.460394 -0.0173892 -1.68671e-18)
(0.496713 -0.0166444 -1.62206e-18)
(0.532312 -0.0159498 0)
(0.567214 -0.0153003 0)
(0.601441 -0.0146917 1.46384e-18)
(0.635016 -0.0141203 -1.42036e-18)
(0.667962 -0.0135831 0)
(0.700302 -0.0130773 0)
(0.732057 -0.0126008 -1.31011e-18)
(0.76325 -0.0121514 0)
(0.793905 -0.0117275 0)
(0.824045 -0.0113274 -1.22262e-18)
(0.853693 -0.0109498 0)
(0.882871 -0.0105933 -1.17355e-18)
(0.911604 -0.0102569 0)
(0.939915 -0.00993943 0)
(0.967827 -0.00963982 0)
(0.995361 -0.00935704 1.09157e-18)
(1.02254 -0.00908996 0)
(1.04939 -0.00883732 0)
(1.07591 -0.00859767 0)
(1.10214 -0.00836922 0)
(1.12807 -0.00814971 0)
(1.15371 -0.00793622 0)
(1.17906 -0.00772489 9.82773e-19)
(1.20409 -0.00751056 9.69854e-19)
(1.22876 -0.00728623 0)
(1.253 -0.00704239 0)
(1.27671 -0.00676549 0)
(1.29972 -0.00643697 -9.24511e-19)
(1.3218 -0.00602706 0)
(1.34253 -0.00549707 1.81391e-18)
(1.36147 -0.00475996 -1.80054e-18)
(1.37721 -0.00372431 -1.79181e-18)
(1.38979 -0.00195291 1.79011e-18)
(1.39021 0.00132876 -1.79549e-18)
(1.38751 0.00807611 1.80881e-18)
(1.30825 0.0198894 0)
(0.0963185 -0.269002 0)
(0.334072 -0.681283 0)
(0.514176 -0.706525 1.57358e-19)
(0.611814 -0.571346 0)
(0.66281 -0.408896 -1.11138e-19)
(0.68325 -0.253824 -1.08104e-19)
(0.677223 -0.112174 -5.62546e-20)
(0.646851 0.0155832 -5.61998e-20)
(0.603874 0.1254 0)
(0.54468 0.21192 -6.08083e-20)
(0.467871 0.267397 0)
(0.373387 0.283198 0)
(0.257586 0.256431 1.70492e-19)
(0.110256 0.211435 9.82846e-20)
(-0.0747708 0.206285 -1.84463e-19)
(-0.301042 0.271835 -1.43797e-19)
(-0.579024 0.38341 -5.71895e-20)
(-0.904957 0.513247 0)
(-1.25855 0.642611 0)
(-1.61665 0.756439 0)
(-1.97227 0.841995 -2.85752e-20)
(-2.31786 0.895562 0)
(-2.64776 0.919046 6.90633e-20)
(-2.95448 0.915466 0)
(-3.23398 0.889029 0)
(-3.48462 0.844863 1.98197e-20)
(-3.70499 0.788296 0)
(-3.89594 0.724861 -1.9762e-20)
(-4.05933 0.658787 -4.17982e-20)
(-4.19871 0.592786 2.01688e-20)
(-4.31701 0.52896 0)
(-4.4171 0.469092 0)
(-4.50172 0.414012 0)
(-4.57325 0.364073 -4.42597e-20)
(-4.63376 0.319234 -4.4766e-20)
(-4.68494 0.279224 -2.21902e-20)
(-4.72817 0.243633 0)
(-4.76456 0.211977 4.53082e-20)
(-4.795 0.18376 0)
(-4.8202 0.1585 -4.58799e-20)
(-4.84076 0.135757 0)
(-4.85717 0.115136 0)
(-4.86985 0.0962962 4.60904e-20)
(-4.87917 0.0789477 0)
(-4.88547 0.0628497 1.38172e-19)
(-4.88906 0.0478078 -4.56108e-20)
(-4.89024 0.0336868 0)
(-4.88922 0.020456 -4.49416e-20)
(-4.88629 0.00823176 -4.44849e-20)
(-4.8817 -0.00282387 0)
(-4.87455 -0.0127668 0)
(-4.86373 -0.0218928 0)
(-4.84922 -0.0304451 0)
(-4.83093 -0.0385382 0)
(-4.80889 -0.0462419 4.02189e-20)
(-4.78315 -0.0535929 7.91681e-20)
(-4.75379 -0.0606124 -3.84415e-20)
(-4.7209 -0.0673117 0)
(-4.68456 -0.0736967 7.34896e-20)
(-4.64488 -0.0797698 -3.59685e-20)
(-4.60194 -0.0855318 0)
(-4.55584 -0.0909824 -3.32683e-20)
(-4.5067 -0.0961217 0)
(-4.45463 -0.100951 0)
(-4.39973 -0.105472 -5.98947e-20)
(-4.34212 -0.109684 2.83867e-20)
(-4.28192 -0.113589 -5.47029e-20)
(-4.21925 -0.117188 5.19841e-20)
(-4.15424 -0.120486 2.42949e-20)
(-4.08701 -0.123487 0)
(-4.01769 -0.126197 2.13618e-20)
(-3.94641 -0.12862 0)
(-3.87329 -0.130764 0)
(-3.79847 -0.132636 0)
(-3.72207 -0.134243 1.56352e-20)
(-3.64421 -0.135596 0)
(-3.56503 -0.136702 2.37673e-20)
(-3.48465 -0.137572 -2.99749e-20)
(-3.40318 -0.138217 -7.94185e-21)
(-3.32076 -0.138646 0)
(-3.23748 -0.138871 -4.14106e-21)
(-3.15347 -0.138904 0)
(-3.06883 -0.138756 -2.91038e-22)
(-2.98368 -0.13844 0)
(-2.8981 -0.137967 8.11515e-21)
(-2.81221 -0.13735 -2.35726e-20)
(-2.72608 -0.1366 -1.69688e-20)
(-2.63983 -0.135727 0)
(-2.55353 -0.13474 0)
(-2.46727 -0.133643 0)
(-2.38116 -0.132438 3.61878e-20)
(-2.29531 -0.131114 0)
(-2.20984 -0.129644 -4.66599e-20)
(-2.12492 -0.127973 0)
(-2.04068 -0.126048 1.71894e-19)
(-1.95719 -0.123893 6.36371e-20)
(-1.87446 -0.12161 6.96688e-20)
(-1.79244 -0.119305 0)
(-1.71111 -0.117037 0)
(-1.63052 -0.114803 0)
(-1.55073 -0.112581 0)
(-1.4718 -0.110357 0)
(-1.39377 -0.108126 2.19506e-19)
(-1.31666 -0.105889 2.34999e-19)
(-1.24052 -0.10365 0)
(-1.16536 -0.101411 -1.34769e-19)
(-1.09122 -0.0991755 -1.43549e-19)
(-1.01812 -0.0969446 0)
(-0.946073 -0.0947206 -3.23055e-19)
(-0.875109 -0.0925078 0)
(-0.805217 -0.0903198 1.81333e-19)
(-0.736405 -0.0881624 0)
(-0.668686 -0.0860359 0)
(-0.602062 -0.0839425 -4.34474e-19)
(-0.536538 -0.0818838 0)
(-0.472113 -0.0798613 2.44845e-19)
(-0.408787 -0.077878 0)
(-0.346561 -0.0759397 0)
(-0.285426 -0.0740551 2.89785e-19)
(-0.225375 -0.0722223 3.09091e-19)
(-0.166401 -0.0704358 0)
(-0.108497 -0.0686988 -3.46388e-19)
(-0.0516703 -0.0670112 0)
(0.00408346 -0.0653645 3.82642e-19)
(0.0588055 -0.063752 7.66163e-19)
(0.112529 -0.0621848 0)
(0.165255 -0.0606777 0)
(0.216984 -0.0592353 0)
(0.26773 -0.0578551 0)
(0.317526 -0.0565396 7.09215e-19)
(0.366443 -0.0552774 2.09638e-18)
(0.414566 -0.053898 0)
(0.461808 -0.0522514 0)
(0.508029 -0.0504767 0)
(0.553299 -0.0487294 -6.65607e-19)
(0.597698 -0.0470614 0)
(0.641255 -0.045481 0)
(0.683987 -0.0439856 1.28789e-18)
(0.725916 -0.0425688 6.36929e-19)
(0.767062 -0.0412231 6.32406e-19)
(0.807448 -0.0399418 0)
(0.847094 -0.0387194 0)
(0.886023 -0.0375515 6.15864e-19)
(0.924254 -0.0364345 -6.09629e-19)
(0.961811 -0.0353655 0)
(0.998714 -0.0343419 0)
(1.03498 -0.0333616 -5.96773e-19)
(1.07064 -0.0324229 1.77634e-18)
(1.10571 -0.031524 0)
(1.14021 -0.0306637 0)
(1.17417 -0.0298405 5.80308e-19)
(1.2076 -0.0290534 0)
(1.24053 -0.0283012 1.14491e-18)
(1.27297 -0.0275829 -5.68524e-19)
(1.30496 -0.0268975 0)
(1.33651 -0.0262441 5.62412e-19)
(1.36765 -0.0256216 1.11754e-18)
(1.39839 -0.0250289 0)
(1.42876 -0.0244649 0)
(1.45879 -0.0239279 -5.49579e-19)
(1.48848 -0.0234164 0)
(1.51785 -0.0229279 1.08645e-18)
(1.54693 -0.0224597 0)
(1.57573 -0.0220078 0)
(1.60425 -0.0215674 0)
(1.63249 -0.0211317 0)
(1.66046 -0.0206918 -5.29006e-19)
(1.68812 -0.0202357 -5.26238e-19)
(1.71544 -0.0197469 0)
(1.74237 -0.0192027 0)
(1.76881 -0.0185716 0)
(1.79462 -0.0178079 5.16145e-19)
(1.8196 -0.0168446 0)
(1.84342 -0.0155786 -1.02487e-18)
(1.86565 -0.0138329 1.02261e-18)
(1.88539 -0.011323 1.02223e-18)
(1.90219 -0.00730809 1.02332e-18)
(1.91239 -0.000517616 1.02848e-18)
(1.92469 0.0124255 1.02037e-18)
(1.90513 0.0361864 0)
(0.116438 -0.859727 0)
(0.269011 -1.05683 0)
(0.316101 -0.826006 -1.26329e-19)
(0.315407 -0.584233 -1.08168e-19)
(0.297977 -0.373769 1.00488e-19)
(0.266768 -0.188643 1.0067e-19)
(0.220586 -0.0231845 -6.44845e-22)
(0.15869 0.124557 0)
(0.0809524 0.255099 0)
(-0.0138617 0.366015 0)
(-0.12931 0.451726 0)
(-0.273458 0.512789 0)
(-0.459221 0.566618 -2.67328e-19)
(-0.697086 0.641358 0)
(-0.983314 0.753919 6.62752e-20)
(-1.30205 0.895888 5.71746e-20)
(-1.63534 1.044 0)
(-1.96627 1.17801 0)
(-2.27961 1.28539 0)
(-2.56349 1.3591 0)
(-2.8126 1.39484 3.49037e-20)
(-3.02654 1.39239 0)
(-3.20668 1.35643 -3.23465e-20)
(-3.35587 1.29418 0)
(-3.47858 1.21298 0)
(-3.5794 1.11921 0)
(-3.66315 1.01897 -6.85882e-20)
(-3.73419 0.917574 0)
(-3.79606 0.819168 3.31177e-20)
(-3.85152 0.726543 -7.07019e-20)
(-3.90249 0.641214 0)
(-3.95028 0.563918 0)
(-3.99564 0.494705 0)
(-4.03893 0.43319 3.65649e-20)
(-4.08027 0.378725 3.71523e-20)
(-4.11961 0.330537 0)
(-4.1568 0.28783 0)
(-4.19169 0.249843 -7.78015e-20)
(-4.22408 0.215882 -7.81944e-20)
(-4.25383 0.185336 7.84274e-20)
(-4.28077 0.157688 0)
(-4.3048 0.132507 0)
(-4.32583 0.109446 0)
(-4.34379 0.0882201 0)
(-4.3586 0.0685962 -7.70109e-20)
(-4.37023 0.050374 -7.69129e-20)
(-4.3786 0.0333695 7.62699e-20)
(-4.38356 0.0173817 0)
(-4.38496 0.00215431 0)
(-4.38263 -0.0125992 0)
(-4.37651 -0.0270118 0)
(-4.36666 -0.0409969 -7.11062e-20)
(-4.35314 -0.0544627 0)
(-4.33598 -0.0673978 0)
(-4.31523 -0.0798066 -6.69944e-20)
(-4.29093 -0.0916977 -6.49687e-20)
(-4.26315 -0.103079 0)
(-4.23196 -0.113954 1.24569e-19)
(-4.19745 -0.124324 -6.00306e-20)
(-4.15969 -0.134191 5.8254e-20)
(-4.11877 -0.143552 0)
(-4.07479 -0.152405 0)
(-4.02784 -0.160747 0)
(-3.97804 -0.16858 0)
(-3.92549 -0.175904 4.84222e-20)
(-3.8703 -0.182722 9.37752e-20)
(-3.81258 -0.189034 4.40567e-20)
(-3.75246 -0.194841 -4.17846e-20)
(-3.69005 -0.200151 0)
(-3.62547 -0.20497 7.54235e-20)
(-3.55885 -0.209306 7.05404e-20)
(-3.49032 -0.213168 6.55408e-20)
(-3.41998 -0.216567 -6.04255e-20)
(-3.34798 -0.219513 0)
(-3.27444 -0.222019 -7.40965e-20)
(-3.19948 -0.2241 0)
(-3.12322 -0.225769 2.00944e-20)
(-3.04578 -0.227041 1.58712e-20)
(-2.96729 -0.227934 0)
(-2.88786 -0.228463 0)
(-2.80761 -0.228646 1.53592e-20)
(-2.72664 -0.2285 0)
(-2.64508 -0.228045 2.92452e-21)
(-2.56302 -0.227298 0)
(-2.48058 -0.226279 9.99859e-21)
(-2.39785 -0.225007 3.47252e-20)
(-2.31493 -0.223501 0)
(-2.23191 -0.221781 0)
(-2.14891 -0.219865 0)
(-2.066 -0.217771 4.45837e-20)
(-1.98329 -0.215513 0)
(-1.90087 -0.213104 5.94055e-20)
(-1.81884 -0.210545 0)
(-1.73729 -0.207821 0)
(-1.65629 -0.204905 -1.67058e-19)
(-1.57588 -0.201782 0)
(-1.49607 -0.198466 -9.93156e-20)
(-1.41687 -0.195001 0)
(-1.33831 -0.191443 -1.16595e-19)
(-1.26044 -0.187831 0)
(-1.18334 -0.184184 0)
(-1.10704 -0.180508 0)
(-1.03158 -0.17681 -4.627e-19)
(-0.957013 -0.173096 -1.65046e-19)
(-0.883357 -0.169374 0)
(-0.810643 -0.16565 0)
(-0.738894 -0.161929 0)
(-0.668134 -0.158218 0)
(-0.598379 -0.15452 2.18841e-19)
(-0.52964 -0.150842 -4.58472e-19)
(-0.461925 -0.147191 -2.42674e-19)
(-0.395244 -0.143578 5.07663e-19)
(-0.329609 -0.140007 5.3346e-19)
(-0.265023 -0.136484 2.8138e-19)
(-0.201491 -0.133013 0)
(-0.139012 -0.129592 6.16227e-19)
(-0.0775885 -0.126225 0)
(-0.0172217 -0.122915 -6.73552e-19)
(0.0420948 -0.119664 -3.45156e-19)
(0.100374 -0.116473 0)
(0.157623 -0.113344 6.93117e-19)
(0.213847 -0.11028 3.48827e-19)
(0.269056 -0.107283 0)
(0.323261 -0.104342 3.4872e-19)
(0.37647 -0.101445 -1.0528e-18)
(0.428691 -0.0986033 0)
(0.479939 -0.095826 0)
(0.53023 -0.0931162 0)
(0.579582 -0.0904746 0)
(0.628017 -0.0879059 -7.0774e-19)
(0.67557 -0.0854169 -7.10232e-19)
(0.722263 -0.0830229 0)
(0.768063 -0.0807108 0)
(0.812955 -0.0784415 0)
(0.856991 -0.076214 0)
(0.900214 -0.0740444 0)
(0.942641 -0.0719413 0)
(0.984283 -0.0699074 -7.14008e-19)
(1.02516 -0.0679424 -1.08881e-21)
(1.06529 -0.0660447 0)
(1.10468 -0.0642122 0)
(1.14337 -0.062443 -7.13842e-19)
(1.18137 -0.0607352 0)
(1.2187 -0.0590872 7.14891e-19)
(1.25537 -0.0574976 7.1403e-19)
(1.29142 -0.0559651 0)
(1.32687 -0.0544885 0)
(1.36172 -0.0530667 -7.14564e-19)
(1.39601 -0.0516986 -1.42733e-18)
(1.42975 -0.0503833 0)
(1.46297 -0.0491198 0)
(1.49568 -0.0479071 0)
(1.52791 -0.0467443 -7.13259e-19)
(1.55968 -0.0456305 7.12878e-19)
(1.59101 -0.0445647 0)
(1.62192 -0.0435457 1.42288e-18)
(1.65244 -0.0425725 7.10421e-19)
(1.68258 -0.0416438 -1.42082e-18)
(1.71237 -0.0407577 0)
(1.74182 -0.0399124 0)
(1.77096 -0.0391053 -1.41702e-18)
(1.7998 -0.038333 -7.0822e-19)
(1.82836 -0.0375913 0)
(1.85665 -0.0368743 0)
(1.88468 -0.0361746 0)
(1.91247 -0.035482 0)
(1.93999 -0.0347829 -1.40688e-18)
(1.96724 -0.034059 0)
(1.99419 -0.0332855 0)
(2.0208 -0.0324279 0)
(2.04698 -0.0314384 0)
(2.07262 -0.0302488 0)
(2.09755 -0.0287581 0)
(2.1215 -0.0268149 -1.39754e-18)
(2.14415 -0.0241676 0)
(2.16482 -0.0204111 0)
(2.18328 -0.014753 -2.81629e-18)
(2.19672 -0.00587597 1.41816e-18)
(2.21141 0.00887739 -1.41628e-18)
(2.20632 0.0362551 1.41173e-18)
(0.033316 -1.16608 0)
(0.0696753 -1.02976 3.59932e-19)
(0.0339201 -0.746797 0)
(-0.0105383 -0.506319 1.10877e-19)
(-0.0658751 -0.283599 0)
(-0.133742 -0.0740106 0)
(-0.21699 0.122843 -8.28054e-20)
(-0.317991 0.306225 0)
(-0.438872 0.475694 0)
(-0.582238 0.631808 0)
(-0.751945 0.777104 0)
(-0.953202 0.917683 0)
(-1.18864 1.06166 2.04191e-19)
(-1.45267 1.21243 9.24334e-20)
(-1.73081 1.36375 -8.36857e-20)
(-2.00471 1.50228 0)
(-2.25863 1.61417 0)
(-2.48251 1.6901 0)
(-2.67157 1.72634 0)
(-2.8244 1.72415 0)
(-2.94355 1.6874 6.01619e-20)
(-3.03457 1.62131 5.88454e-20)
(-3.10356 1.53276 -5.79926e-20)
(-3.15686 1.42938 5.76911e-20)
(-3.19986 1.31788 0)
(-3.23688 1.20367 0)
(-3.27142 1.09111 5.58444e-20)
(-3.3058 0.983482 0)
(-3.34132 0.882904 0)
(-3.37848 0.790419 5.86988e-20)
(-3.41728 0.706269 6.15168e-20)
(-3.4574 0.630228 6.22285e-20)
(-3.49828 0.561763 0)
(-3.53932 0.500181 0)
(-3.57991 0.444719 -6.40386e-20)
(-3.61947 0.394623 0)
(-3.65752 0.34918 0)
(-3.69364 0.307748 6.43115e-20)
(-3.72749 0.269761 -6.60316e-20)
(-3.75879 0.234732 6.60421e-20)
(-3.78732 0.202246 0)
(-3.81288 0.171952 0)
(-3.83533 0.143554 1.30017e-19)
(-3.85455 0.1168 0)
(-3.87041 0.0914806 1.28629e-19)
(-3.88283 0.0674178 1.9104e-19)
(-3.89173 0.0444681 -1.89398e-19)
(-3.89705 0.0225112 1.25331e-19)
(-3.89873 0.00143011 0)
(-3.89679 -0.0188912 0)
(-3.89125 -0.0385309 1.19875e-19)
(-3.88217 -0.0575078 5.84064e-20)
(-3.86959 -0.0758179 0)
(-3.85353 -0.0934601 0)
(-3.83404 -0.110434 5.49001e-20)
(-3.81117 -0.126738 1.08251e-19)
(-3.78496 -0.142372 0)
(-3.75549 -0.157333 -1.01798e-19)
(-3.72282 -0.171616 9.99682e-20)
(-3.68703 -0.185217 -9.69963e-20)
(-3.6482 -0.198131 0)
(-3.60642 -0.210354 0)
(-3.56178 -0.221879 0)
(-3.51437 -0.232704 0)
(-3.46432 -0.242834 0)
(-3.41171 -0.252268 -7.59229e-20)
(-3.35666 -0.261006 0)
(-3.29928 -0.269052 0)
(-3.23968 -0.276414 0)
(-3.17799 -0.2831 -1.22621e-19)
(-3.11431 -0.289121 -5.6703e-20)
(-3.04878 -0.29449 -5.26017e-20)
(-2.9815 -0.299219 9.80383e-20)
(-2.91261 -0.303325 -4.53616e-20)
(-2.84222 -0.306824 3.98095e-20)
(-2.77045 -0.309735 0)
(-2.69742 -0.312078 -3.08867e-20)
(-2.62325 -0.313874 0)
(-2.54806 -0.315143 0)
(-2.47195 -0.31591 0)
(-2.39504 -0.316196 -2.54864e-20)
(-2.31745 -0.316026 8.48324e-21)
(-2.23928 -0.315425 4.76573e-21)