/*--------------------------------*- C++ -*----------------------------------*\
  =========                 |
  \\      /  F ield         | OpenFOAM: The Open Source CFD Toolbox
   \\    /   O peration     | Website:  https://openfoam.org
    \\  /    A nd           | Version:  8
     \\/     M anipulation  |
\*---------------------------------------------------------------------------*/
FoamFile
{
    version     2.0;
    format      ascii;
    class       surfaceScalarField;
    location    "400";
    object      phi;
}
// * * * * * * * * * * * * * * * * * * * * * * * * * * * * * * * * * * * * * //

dimensions      [0 3 -1 0 0 0 0];

internalField   nonuniform List<scalar> 
24170
(
3.92539e-06
-7.91499e-07
3.76466e-06
1.60746e-07
3.63347e-06
1.31204e-07
3.43335e-06
2.00137e-07
3.28034e-06
1.53023e-07
3.18912e-06
9.12396e-08
3.13098e-06
5.82134e-08
3.08596e-06
4.52038e-08
3.04567e-06
4.05551e-08
3.00983e-06
3.61539e-08
2.97791e-06
3.21896e-08
2.94828e-06
2.98596e-08
2.9213e-06
2.71339e-08
2.89606e-06
2.53368e-08
2.8721e-06
2.39981e-08
2.85207e-06
2.00178e-08
2.84143e-06
1.05914e-08
-5.94174e-09
2.84732e-06
3.58445e-06
-9.19499e-07
3.80424e-06
-5.90452e-08
3.74283e-06
1.92624e-07
3.69062e-06
2.52367e-07
3.63733e-06
2.06328e-07
3.59029e-06
1.38301e-07
3.55303e-06
9.55425e-08
3.52337e-06
7.49753e-08
3.49894e-06
6.51566e-08
3.47771e-06
5.76067e-08
3.45896e-06
5.11784e-08
3.4426e-06
4.64384e-08
3.42788e-06
4.20355e-08
3.41451e-06
3.88404e-08
3.40256e-06
3.60326e-08
3.39117e-06
3.1459e-08
3.38053e-06
2.12464e-08
4.93518e-09
3.36971e-06
3.68518e-06
-7.92483e-07
3.83639e-06
-2.10256e-07
3.91494e-06
1.14074e-07
3.94503e-06
2.22281e-07
3.94411e-06
2.07255e-07
3.92754e-06
1.54877e-07
3.9076e-06
1.15478e-07
3.88941e-06
9.31573e-08
3.87415e-06
8.03657e-08
3.86074e-06
7.09631e-08
3.84847e-06
6.34038e-08
3.83737e-06
5.75352e-08
3.82695e-06
5.2462e-08
3.81744e-06
4.83854e-08
3.80901e-06
4.45033e-08
3.80115e-06
3.93653e-08
3.79221e-06
3.02465e-08
1.75823e-08
3.77967e-06
4.05359e-06
-6.41511e-07
4.1146e-06
-2.71264e-07
4.20799e-06
2.06828e-08
4.26636e-06
1.63919e-07
4.29072e-06
1.82909e-07
4.2929e-06
1.52706e-07
4.28572e-06
1.22673e-07
4.27632e-06
1.02548e-07
4.26733e-06
8.92992e-08
4.25885e-06
7.93902e-08
4.25068e-06
7.15287e-08
4.24293e-06
6.52788e-08
4.23543e-06
5.9986e-08
4.22833e-06
5.55264e-08
4.22164e-06
5.12479e-08
4.21485e-06
4.62194e-08
4.20623e-06
3.89449e-08
3.02028e-08
4.19372e-06
4.50491e-06
-5.09115e-07
4.51536e-06
-2.81714e-07
4.58529e-06
-4.92458e-08
4.64666e-06
1.02548e-07
4.68261e-06
1.46966e-07
4.6969e-06
1.38414e-07
4.69945e-06
1.20109e-07
4.6972e-06
1.04756e-07
4.69334e-06
9.30964e-08
4.68877e-06
8.38902e-08
4.68378e-06
7.6444e-08
4.67863e-06
7.03892e-08
4.67332e-06
6.52751e-08
4.66795e-06
6.0897e-08
4.66243e-06
5.6792e-08
4.65626e-06
5.24324e-08
4.64807e-06
4.7198e-08
4.20561e-08
4.6363e-06
5.00015e-06
-3.94664e-07
4.98614e-06
-2.67711e-07
5.03069e-06
-9.37916e-08
5.08507e-06
4.81779e-08
5.12456e-06
1.07485e-07
5.1461e-06
1.1688e-07
5.15582e-06
1.1039e-07
5.15936e-06
1.01189e-07
5.15986e-06
9.2549e-08
5.15866e-06
8.50317e-08
5.1564e-06
7.8655e-08
5.15345e-06
7.33056e-08
5.14996e-06
6.8754e-08
5.14602e-06
6.48487e-08
5.14152e-06
6.13289e-08
5.13601e-06
5.79765e-08
5.12855e-06
5.47112e-08
5.24881e-08
5.11819e-06
5.54382e-06
-2.97477e-07
5.51665e-06
-2.40538e-07
5.54056e-06
-1.17701e-07
5.58389e-06
4.84561e-09
5.62168e-06
6.96964e-08
5.64657e-06
9.19862e-08
5.66105e-06
9.58912e-08
5.66903e-06
9.31841e-08
5.67316e-06
8.83907e-08
5.67488e-06
8.32699e-08
5.675e-06
7.84871e-08
5.67402e-06
7.42597e-08
5.67216e-06
7.05973e-08
5.66953e-06
6.74761e-08
5.66605e-06
6.48229e-08
5.66141e-06
6.26387e-08
5.65505e-06
6.11099e-08
6.1008e-08
5.64656e-06
4.34788e-06
-2.39243e-07
4.32251e-06
-2.15171e-07
4.33078e-06
-1.25967e-07
4.35419e-06
-1.85619e-08
4.3784e-06
4.54866e-08
4.39647e-06
7.39256e-08
4.40841e-06
8.39506e-08
4.41597e-06
8.56157e-08
4.4206e-06
8.37351e-08
4.42328e-06
8.0567e-08
4.42461e-06
7.71349e-08
4.42496e-06
7.38911e-08
4.42453e-06
7.10137e-08
4.42342e-06
6.85895e-08
4.42159e-06
6.66579e-08
4.41892e-06
6.53236e-08
4.41519e-06
6.48474e-08
6.58638e-08
4.41037e-06
5.08622e-06
-1.85601e-07
5.05777e-06
-1.86728e-07
5.0584e-06
-1.26596e-07
5.07687e-06
-3.70301e-08
5.09918e-06
2.31723e-08
5.11773e-06
5.53767e-08
5.13124e-06
7.04378e-08
5.14059e-06
7.62575e-08
5.14688e-06
7.74322e-08
5.15098e-06
7.64508e-08
5.15349e-06
7.46014e-08
5.15483e-06
7.25466e-08
5.15521e-06
7.06267e-08
5.15475e-06
6.90431e-08
5.15348e-06
6.79349e-08
5.15133e-06
6.74787e-08
5.14824e-06
6.79566e-08
6.98261e-08
5.14429e-06
5.94839e-06
-1.38196e-07
5.91832e-06
-1.5666e-07
5.91161e-06
-1.19885e-07
5.92401e-06
-4.94259e-08
5.94287e-06
4.31597e-09
5.96058e-06
3.76589e-08
5.97479e-06
5.62247e-08
5.98546e-06
6.55832e-08
5.99321e-06
6.96772e-08
5.9987e-06
7.09504e-08
6.00247e-06
7.08222e-08
6.0049e-06
7.01081e-08
6.00624e-06
6.92834e-08
6.00664e-06
6.86465e-08
6.00615e-06
6.84197e-08
6.00482e-06
6.88181e-08
6.00268e-06
7.00969e-08
7.25753e-08
5.99994e-06
6.95439e-06
-9.83155e-08
6.92402e-06
-1.2629e-07
6.91114e-06
-1.07004e-07
6.91681e-06
-5.50963e-08
6.93088e-06
-9.75384e-09
6.94636e-06
2.21827e-08
6.96015e-06
4.24274e-08
6.9714e-06
5.43276e-08
6.98018e-06
6.08891e-08
6.98687e-06
6.42626e-08
6.99184e-06
6.58459e-08
6.99542e-06
6.65233e-08
6.99785e-06
6.68513e-08
6.99929e-06
6.72063e-08
6.99985e-06
6.78552e-08
6.99964e-06
6.90268e-08
6.99881e-06
7.09362e-08
7.37699e-08
6.99762e-06
8.12719e-06
-6.64905e-08
8.09793e-06
-9.70342e-08
8.08056e-06
-8.96302e-08
8.07956e-06
-5.40904e-08
8.08794e-06
-1.81332e-08
8.09985e-06
1.02669e-08
8.11198e-06
3.0293e-08
8.12286e-06
4.34484e-08
8.13203e-06
5.1712e-08
8.13952e-06
5.67692e-08
8.14551e-06
5.98547e-08
8.15021e-06
6.18209e-08
8.15381e-06
6.32518e-08
8.15647e-06
6.45445e-08
8.15833e-06
6.5989e-08
8.15956e-06
6.77999e-08
8.16035e-06
7.01411e-08
7.31218e-08
8.16101e-06
9.49368e-06
-4.24415e-08
9.4668e-06
-7.01569e-08
9.44684e-06
-6.96624e-08
9.43991e-06
-4.71642e-08
9.44229e-06
-2.05117e-08
9.44966e-06
2.89966e-09
9.45895e-06
2.09976e-08
9.4684e-06
3.39925e-08
9.47717e-06
4.29455e-08
9.48492e-06
4.90134e-08
9.4916e-06
5.31658e-08
9.49728e-06
5.61406e-08
9.50206e-06
5.84696e-08
9.50607e-06
6.05363e-08
9.50945e-06
6.26074e-08
9.51238e-06
6.48724e-08
9.51507e-06
6.74484e-08
7.03932e-08
9.51781e-06
1.10854e-05
-2.5162e-08
1.10618e-05
-4.65178e-08
1.1041e-05
-4.88299e-08
1.10294e-05
-3.55846e-08
1.10261e-05
-1.72141e-08
1.10284e-05
5.49069e-10
1.1034e-05
1.54067e-08
1.10411e-05
2.68903e-08
1.10487e-05
3.5397e-08
1.10561e-05
4.16051e-08
1.1063e-05
4.61847e-08
1.10695e-05
4.96948e-08
1.10754e-05
5.25672e-08
1.10808e-05
5.51161e-08
1.10859e-05
5.75637e-08
1.10907e-05
6.00533e-08
1.10955e-05
6.26679e-08
6.54295e-08
1.11004e-05
1.29396e-05
-1.31217e-08
1.29194e-05
-2.62957e-08
1.28988e-05
-2.82765e-08
1.28839e-05
-2.07217e-08
1.28758e-05
-9.04041e-09
1.28732e-05
3.08884e-09
1.28748e-05
1.3872e-08
1.28789e-05
2.27079e-08
1.28847e-05
2.96504e-08
1.28913e-05
3.50345e-08
1.28982e-05
3.92597e-08
1.29052e-05
4.26893e-08
1.29121e-05
4.56161e-08
1.2919e-05
4.82577e-08
1.29258e-05
5.07637e-08
1.29326e-05
5.3226e-08
1.29396e-05
5.56884e-08
5.81542e-08
1.29469e-05
1.50998e-05
-4.48634e-09
1.50822e-05
-8.69609e-09
1.50621e-05
-8.13986e-09
1.50448e-05
-3.49358e-09
1.50327e-05
3.06528e-09
1.50259e-05
9.88354e-09
1.50237e-05
1.60963e-08
1.5025e-05
2.13873e-08
1.50289e-05
2.57646e-08
1.50346e-05
2.93838e-08
1.50414e-05
3.24413e-08
1.5049e-05
3.51183e-08
1.5057e-05
3.75581e-08
1.50654e-05
3.98626e-08
1.50741e-05
4.20944e-08
1.5083e-05
4.42833e-08
1.50923e-05
4.64318e-08
4.85219e-08
1.51019e-05
1.76171e-05
2.88949e-09
1.75999e-05
8.50092e-09
1.75787e-05
1.30011e-08
1.7559e-05
1.62436e-08
1.75436e-05
1.84289e-08
1.75336e-05
1.99075e-08
1.75287e-05
2.09929e-08
1.75282e-05
2.1926e-08
1.75311e-05
2.28625e-08
1.75366e-05
2.38985e-08
1.75439e-05
2.50812e-08
1.75526e-05
2.6422e-08
1.75623e-05
2.7913e-08
1.75726e-05
2.95258e-08
1.75835e-05
3.12273e-08
1.75948e-05
3.29734e-08
1.76065e-05
3.47207e-08
3.64223e-08
1.76186e-05
1.78181e-05
1.09971e-08
1.77994e-05
2.71892e-08
1.77768e-05
3.55974e-08
1.7756e-05
3.70244e-08
1.77402e-05
3.42895e-08
1.77302e-05
2.99039e-08
1.77257e-05
2.54533e-08
1.77259e-05
2.1726e-08
1.77298e-05
1.90168e-08
1.77364e-05
1.73353e-08
1.77449e-05
1.6558e-08
1.77548e-05
1.65227e-08
1.77657e-05
1.7051e-08
1.77772e-05
1.79953e-08
1.77892e-05
1.92145e-08
1.78016e-05
2.06033e-08
1.78143e-05
2.20644e-08
2.35278e-08
1.78272e-05
1.58702e-05
2.21302e-08
1.58478e-05
4.95601e-08
1.58233e-05
6.01063e-08
1.58032e-05
5.72053e-08
1.57899e-05
4.75778e-08
1.57834e-05
3.63387e-08
1.57827e-05
2.61683e-08
1.57864e-05
1.81149e-08
1.57931e-05
1.23338e-08
1.58018e-05
8.57482e-09
1.5812e-05
6.45487e-09
1.58229e-05
5.57444e-09
1.58344e-05
5.60417e-09
1.58461e-05
6.25698e-09
1.5858e-05
7.32563e-09
1.587e-05
8.63543e-09
1.5882e-05
1.00671e-08
1.1522e-08
1.5894e-05
1.41313e-05
3.95362e-08
1.41021e-05
7.8688e-08
1.40745e-05
8.77629e-08
1.40557e-05
7.60094e-08
1.40469e-05
5.63847e-08
1.40462e-05
3.702e-08
1.40512e-05
2.11904e-08
1.40597e-05
9.57658e-09
1.40703e-05
1.75554e-09
1.4082e-05
-3.04667e-09
1.40941e-05
-5.60693e-09
1.41062e-05
-6.57215e-09
1.41183e-05
-6.44328e-09
1.41302e-05
-5.60176e-09
1.41418e-05
-4.31451e-09
1.41533e-05
-2.78299e-09
1.41645e-05
-1.14221e-09
5.07569e-10
1.41755e-05
1.25772e-05
6.73532e-08
1.25392e-05
1.16723e-07
1.25091e-05
1.17866e-07
1.24942e-05
9.08624e-08
1.24928e-05
5.77888e-08
1.25002e-05
2.96629e-08
1.25123e-05
9.13587e-09
1.25264e-05
-4.49747e-09
1.25409e-05
-1.28e-08
1.25552e-05
-1.7299e-08
1.25688e-05
-1.92262e-08
1.25818e-05
-1.94557e-08
1.2594e-05
-1.86365e-08
1.26056e-05
-1.71575e-08
1.26166e-05
-1.53431e-08
1.26272e-05
-1.33469e-08
1.26373e-05
-1.13316e-08
-9.35053e-09
1.26472e-05
1.11862e-05
1.10914e-07
1.11384e-05
1.64556e-07
1.11088e-05
1.47498e-07
1.11022e-05
9.74578e-08
1.11117e-05
4.8287e-08
1.1129e-05
1.23926e-08
1.11486e-05
-1.04744e-08
1.11678e-05
-2.36909e-08
1.11855e-05
-3.04592e-08
1.12014e-05
-3.31676e-08
1.12156e-05
-3.34084e-08
1.12284e-05
-3.22155e-08
1.124e-05
-3.02108e-08
1.12507e-05
-2.78189e-08
1.12607e-05
-2.52449e-08
1.127e-05
-2.26932e-08
1.12788e-05
-2.02037e-08
-1.78581e-08
1.12873e-05
9.93908e-06
1.7645e-07
9.88248e-06
2.21151e-07
9.85874e-06
1.71244e-07
9.86595e-06
9.02471e-08
9.88965e-06
2.46102e-08
9.91763e-06
-1.55846e-08
9.94397e-06
-3.67777e-08
9.96673e-06
-4.64018e-08
9.9858e-06
-4.94652e-08
1.00017e-05
-4.90594e-08
1.00152e-05
-4.68418e-08
1.00268e-05
-4.37721e-08
1.0037e-05
-4.03326e-08
1.00461e-05
-3.68726e-08
1.00544e-05
-3.3544e-08
1.00621e-05
-3.03957e-08
1.00694e-05
-2.74889e-08
-2.48052e-08
1.00763e-05
8.81963e-06
2.69916e-07
8.75785e-06
2.82937e-07
8.74788e-06
1.81207e-07
8.77483e-06
6.32956e-08
8.81462e-06
-1.51681e-08
8.85218e-06
-5.31167e-08
8.88273e-06
-6.72755e-08
8.90635e-06
-6.99477e-08
8.92441e-06
-6.75171e-08
8.93849e-06
-6.30515e-08
8.94976e-06
-5.80269e-08
8.95911e-06
-5.29287e-08
8.96704e-06
-4.81906e-08
8.97401e-06
-4.37865e-08
8.98028e-06
-3.97701e-08
8.98605e-06
-3.61574e-08
8.99148e-06
-3.29595e-08
-3.00831e-08
8.99668e-06
7.81391e-06
3.96675e-07
7.7539e-06
3.42937e-07
7.76868e-06
1.66424e-07
7.82055e-06
1.14298e-08
7.87571e-06
-7.03199e-08
7.91918e-06
-9.65625e-08
7.94977e-06
-9.78456e-08
7.97068e-06
-9.07702e-08
7.98507e-06
-8.17298e-08
7.99533e-06
-7.32105e-08
8.0031e-06
-6.56183e-08
8.00919e-06
-5.90084e-08
8.01425e-06
-5.31078e-08
8.01859e-06
-4.80381e-08
8.02244e-06
-4.36097e-08
8.02595e-06
-3.97631e-08
8.0293e-06
-3.64572e-08
-3.35198e-08
8.03267e-06
6.90424e-06
5.66768e-07
6.86137e-06
3.85803e-07
6.91717e-06
1.10618e-07
6.99676e-06
-6.81676e-08
7.06257e-06
-1.36135e-07
7.10536e-06
-1.39351e-07
7.13037e-06
-1.22737e-07
7.14454e-06
-1.04904e-07
7.15249e-06
-8.96531e-08
7.15721e-06
-7.77895e-08
7.16026e-06
-6.85685e-08
7.16243e-06
-6.09563e-08
7.16398e-06
-5.46347e-08
7.16527e-06
-4.93742e-08
7.16635e-06
-4.47677e-08
7.16732e-06
-4.08484e-08
7.1684e-06
-3.76243e-08
-3.50708e-08
7.16972e-06
6.07162e-06
7.97663e-07
6.08525e-06
3.72161e-07
6.19865e-06
-2.788e-09
6.29991e-06
-1.6943e-07
6.3653e-06
-2.01525e-07
6.39759e-06
-1.71615e-07
6.41012e-06
-1.35362e-07
6.41334e-06
-1.07856e-07
6.41231e-06
-8.86972e-08
6.40999e-06
-7.54683e-08
6.40749e-06
-6.60428e-08
6.40496e-06
-5.85041e-08
6.40241e-06
-5.22808e-08
6.40016e-06
-4.70713e-08
6.39804e-06
-4.27054e-08
6.3961e-06
-3.89844e-08
6.39443e-06
-3.60743e-08
-3.41323e-08
6.39357e-06
5.35805e-06
1.05451e-06
5.50649e-06
2.23713e-07
5.64777e-06
-1.44087e-07
5.73566e-06
-2.57329e-07
5.7765e-06
-2.42379e-07
5.78328e-06
-1.78474e-07
5.77509e-06
-1.27042e-07
5.76262e-06
-9.54617e-08
5.75005e-06
-7.6352e-08
5.73928e-06
-6.49703e-08
5.73035e-06
-5.73094e-08
5.72232e-06
-5.07905e-08
5.71479e-06
-4.50132e-08
5.7079e-06
-4.03582e-08
5.70165e-06
-3.64545e-08
5.69614e-06
-3.34364e-08
5.69111e-06
-3.08547e-08
-3.00467e-08
5.68712e-06
5.04576e-06
1.01105e-06
5.36491e-06
-9.54572e-08
5.35252e-06
-1.31742e-07
5.33288e-06
-2.37715e-07
5.29606e-06
-2.05612e-07
5.25014e-06
-1.32605e-07
5.2084e-06
-8.52887e-08
5.17419e-06
-6.14123e-08
5.14662e-06
-4.91998e-08
5.12463e-06
-4.34167e-08
5.10651e-06
-3.95846e-08
5.09054e-06
-3.5354e-08
5.07589e-06
-3.08679e-08
5.06262e-06
-2.72934e-08
5.05041e-06
-2.42476e-08
5.03958e-06
-2.24623e-08
5.0294e-06
-2.04485e-08
-2.12591e-08
5.02083e-06
5.4676e-06
5.37214e-06
5.2404e-06
5.00267e-06
4.79705e-06
4.66445e-06
4.57914e-06
4.51766e-06
4.46839e-06
4.4249e-06
4.38522e-06
4.34975e-06
4.31882e-06
4.29153e-06
4.26731e-06
4.2449e-06
4.22452e-06
4.20332e-06
2.26957e-08
-2.26906e-08
2.36665e-07
-2.13966e-07
4.89003e-07
-2.52329e-07
7.09633e-07
-2.20627e-07
8.77746e-07
-1.68107e-07
9.89259e-07
-1.11516e-07
1.04528e-06
-5.60133e-08
1.048e-06
-2.73357e-09
1.00272e-06
4.52843e-08
9.19529e-07
8.31819e-08
8.13609e-07
1.05927e-07
7.04066e-07
1.09526e-07
6.10775e-07
9.32895e-08
5.44132e-07
6.66609e-08
4.93145e-07
5.09825e-08
4.34076e-07
5.91487e-08
3.48974e-07
8.50852e-08
2.24509e-07
1.24493e-07
4.77498e-08
1.76713e-07
-1.96437e-07
2.44096e-07
-4.98372e-07
3.0191e-07
-8.39071e-07
3.40659e-07
-1.20347e-06
3.64403e-07
-1.58093e-06
3.77461e-07
-1.96274e-06
3.81823e-07
-2.33888e-06
3.76151e-07
-2.70128e-06
3.62411e-07
-3.04477e-06
3.43489e-07
-3.36549e-06
3.2073e-07
-3.66109e-06
2.95605e-07
-3.93069e-06
2.69605e-07
-4.1746e-06
2.43912e-07
-4.39384e-06
2.19238e-07
-4.58988e-06
1.96042e-07
-4.76443e-06
1.74552e-07
-4.91928e-06
1.54853e-07
-5.05619e-06
1.36906e-07
-5.17679e-06
1.20596e-07
-5.28255e-06
1.05761e-07
-5.37477e-06
9.22216e-08
-5.45457e-06
7.97952e-08
-5.52288e-06
6.83093e-08
-5.58048e-06
5.7608e-08
-5.62804e-06
4.75569e-08
-5.66609e-06
3.80464e-08
-5.69508e-06
2.89892e-08
-5.71539e-06
2.03134e-08
-5.72738e-06
1.19885e-08
-5.73152e-06
4.13839e-09
-5.72867e-06
-2.85353e-09
-5.71991e-06
-8.76158e-09
-5.70602e-06
-1.38896e-08
-5.68742e-06
-1.86067e-08
-5.66435e-06
-2.30735e-08
-5.63698e-06
-2.73684e-08
-5.60546e-06
-3.15203e-08
-5.56992e-06
-3.55442e-08
-5.53047e-06
-3.94471e-08
-5.48725e-06
-4.323e-08
-5.44036e-06
-4.6892e-08
-5.38993e-06
-5.04304e-08
-5.33609e-06
-5.38419e-08
-5.27897e-06
-5.71231e-08
-5.2187e-06
-6.02707e-08
-5.15542e-06
-6.32821e-08
-5.08927e-06
-6.61546e-08
-5.02038e-06
-6.88842e-08
-4.94892e-06
-7.14692e-08
-4.87501e-06
-7.39075e-08
-4.79882e-06
-7.61982e-08
-4.72048e-06
-7.83402e-08
-4.64015e-06
-8.03335e-08
-4.55797e-06
-8.2178e-08
-4.4741e-06
-8.38748e-08
-4.38867e-06
-8.54245e-08
-4.30185e-06
-8.68293e-08
-4.21376e-06
-8.80908e-08
-4.12455e-06
-8.92121e-08
-4.03435e-06
-9.01955e-08
-3.94331e-06
-9.10451e-08
-3.85154e-06
-9.17642e-08
-3.75918e-06
-9.23577e-08
-3.66635e-06
-9.28299e-08
-3.57316e-06
-9.3187e-08
-3.47973e-06
-9.34344e-08
-3.38614e-06
-9.35801e-08
-3.29251e-06
-9.36316e-08
-3.19891e-06
-9.36e-08
-3.1054e-06
-9.34975e-08
-3.01205e-06
-9.33396e-08
-2.9189e-06
-9.3148e-08
-2.82594e-06
-9.29476e-08
-2.73318e-06
-9.27568e-08
-2.64062e-06
-9.25567e-08
-2.54836e-06
-9.2264e-08
-2.45658e-06
-9.17773e-08
-2.36557e-06
-9.10088e-08
-2.27559e-06
-8.99722e-08
-2.18677e-06
-8.88219e-08
-2.0991e-06
-8.7669e-08
-2.01258e-06
-8.65147e-08
-1.92723e-06
-8.53434e-08
-1.84308e-06
-8.41471e-08
-1.76015e-06
-8.29253e-08
-1.67846e-06
-8.16801e-08
-1.59804e-06
-8.04155e-08
-1.5189e-06
-7.9135e-08
-1.44105e-06
-7.78418e-08
-1.36451e-06
-7.65335e-08
-1.28931e-06
-7.51903e-08
-1.21548e-06
-7.38228e-08
-1.14301e-06
-7.2459e-08
-1.07191e-06
-7.10944e-08
-1.00217e-06
-6.97303e-08
-9.33791e-07
-6.83674e-08
-8.66775e-07
-6.70075e-08
-8.01113e-07
-6.56525e-08
-7.36798e-07
-6.43055e-08
-6.73821e-07
-6.29681e-08
-6.12172e-07
-6.164e-08
-5.51841e-07
-6.03217e-08
-4.92816e-07
-5.90161e-08
-4.35078e-07
-5.77291e-08
-3.78602e-07
-5.64665e-08
-3.2337e-07
-5.52242e-08
-2.69363e-07
-5.39988e-08
-2.16561e-07
-5.27942e-08
-1.64944e-07
-5.16097e-08
-1.14503e-07
-5.04335e-08
-6.5231e-08
-4.92658e-08
-1.72457e-08
-4.79786e-08
2.95752e-08
-4.68148e-08
7.55403e-08
-4.59602e-08
1.20551e-07
-4.50071e-08
1.64501e-07
-4.3947e-08
2.07386e-07
-4.28824e-08
2.49224e-07
-4.18345e-08
2.90043e-07
-4.08163e-08
3.29875e-07
-3.98296e-08
3.6875e-07
-3.88734e-08
4.06697e-07
-3.79456e-08
4.43744e-07
-3.70451e-08
4.79916e-07
-3.61704e-08
5.1524e-07
-3.53213e-08
5.4974e-07
-3.44967e-08
5.8344e-07
-3.36968e-08
6.16364e-07
-3.29211e-08
6.48537e-07
-3.21699e-08
6.79982e-07
-3.14428e-08
7.10723e-07
-3.07399e-08
7.40786e-07
-3.00612e-08
7.70193e-07
-2.94068e-08
7.98969e-07
-2.87767e-08
8.2714e-07
-2.81707e-08
8.54728e-07
-2.75891e-08
8.81759e-07
-2.70317e-08
9.08256e-07
-2.64983e-08
9.34243e-07
-2.59887e-08
9.59744e-07
-2.55025e-08
9.84782e-07
-2.50386e-08
1.00938e-06
-2.45961e-08
1.03355e-06
-2.41727e-08
1.05731e-06
-2.3766e-08
1.08069e-06
-2.33716e-08
1.10367e-06
-2.29839e-08
1.12627e-06
-2.25947e-08
1.14846e-06
-2.21926e-08
1.17022e-06
-2.17618e-08
1.19151e-06
-2.128e-08
1.21223e-06
-2.07161e-08
1.23225e-06
-2.00259e-08
1.2514e-06
-1.91455e-08
1.26939e-06
-1.79774e-08
1.28577e-06
-1.63774e-08
1.29984e-06
-1.40705e-08
1.31049e-06
-1.06448e-08
1.31508e-06
-4.58207e-09
1.30825e-06
6.83907e-09
1.27872e-06
2.95346e-08
7.23643e-08
1.20636e-06
2.54213e-07
-2.76904e-07
4.90498e-07
-4.5025e-07
6.40596e-07
-4.02425e-07
7.25625e-07
-3.05654e-07
7.65439e-07
-2.07918e-07
7.71641e-07
-1.1772e-07
7.50929e-07
-3.53002e-08
7.08946e-07
3.92435e-08
6.48764e-07
1.05467e-07
5.7033e-07
1.61609e-07
4.72942e-07
2.03316e-07
3.55023e-07
2.27444e-07
2.10608e-07
2.37706e-07
2.81936e-08
2.49094e-07
-2.03211e-07
2.82394e-07
-4.8831e-07
3.4427e-07
-8.26023e-07
4.22801e-07
-1.20597e-06
5.04438e-07
-1.60988e-06
5.80618e-07
-2.01138e-06
6.45579e-07
-2.4015e-06
6.92021e-07
-2.77716e-06
7.16314e-07
-3.13244e-06
7.19685e-07
-3.46041e-06
7.05429e-07
-3.75573e-06
6.77147e-07
-4.01742e-06
6.37846e-07
-4.24589e-06
5.90887e-07
-4.44238e-06
5.39985e-07
-4.60979e-06
4.88141e-07
-4.75163e-06
4.37443e-07
-4.87127e-06
3.89246e-07
-4.97189e-06
3.44532e-07
-5.05637e-06
3.03721e-07
-5.12723e-06
2.66905e-07
-5.1866e-06
2.33922e-07
-5.23622e-06
2.04471e-07
-5.2775e-06
1.78183e-07
-5.31157e-06
1.54666e-07
-5.33934e-06
1.33536e-07
-5.36156e-06
1.14442e-07
-5.37884e-06
9.70717e-08
-5.39169e-06
8.11585e-08
-5.40056e-06
6.64794e-08
-5.40586e-06
5.28522e-08
-5.40794e-06
4.01295e-08
-5.40715e-06
2.81957e-08
-5.40381e-06
1.69724e-08
-5.39825e-06
6.4238e-09
-5.39062e-06
-3.49304e-09
-5.38051e-06
-1.29643e-08
-5.36704e-06
-2.22325e-08
-5.3496e-06
-3.13305e-08
-5.32801e-06
-4.01917e-08
-5.30228e-06
-4.88122e-08
-5.27245e-06
-5.71988e-08
-5.23861e-06
-6.53576e-08
-5.20087e-06
-7.32919e-08
-5.15931e-06
-8.1001e-08
-5.11406e-06
-8.84818e-08
-5.06523e-06
-9.57289e-08
-5.01293e-06
-1.02735e-07
-4.95728e-06
-1.09494e-07
-4.8984e-06
-1.15996e-07
-4.83644e-06
-1.22236e-07
-4.77152e-06
-1.28208e-07
-4.70377e-06
-1.33906e-07
-4.63333e-06
-1.39322e-07
-4.56035e-06
-1.44453e-07
-4.48497e-06
-1.49294e-07
-4.40732e-06
-1.53844e-07
-4.32756e-06
-1.581e-07
-4.24584e-06
-1.62062e-07
-4.16229e-06
-1.65731e-07
-4.07705e-06
-1.69108e-07
-3.99029e-06
-1.72195e-07
-3.90212e-06
-1.74995e-07
-3.8127e-06
-1.77512e-07
-3.72216e-06
-1.79752e-07
-3.63064e-06
-1.81721e-07
-3.53826e-06
-1.83425e-07
-3.44515e-06
-1.84871e-07
-3.35144e-06
-1.86068e-07
-3.25724e-06
-1.87026e-07
-3.16268e-06
-1.87753e-07
-3.06785e-06
-1.88262e-07
-2.97286e-06
-1.88562e-07
-2.87783e-06
-1.88666e-07
-2.78283e-06
-1.88588e-07
-2.68799e-06
-1.88339e-07
-2.59339e-06
-1.87932e-07
-2.49915e-06
-1.8738e-07
-2.4054e-06
-1.8669e-07
-2.3123e-06
-1.85859e-07
-2.22e-06
-1.84857e-07
-2.12862e-06
-1.83641e-07
-2.03821e-06
-1.82182e-07
-1.94875e-06
-1.80473e-07
-1.86016e-06
-1.78555e-07
-1.77248e-06
-1.76504e-07
-1.68577e-06
-1.74375e-07
-1.6001e-06
-1.72181e-07
-1.51552e-06
-1.69925e-07
-1.43205e-06
-1.67607e-07
-1.34974e-06
-1.65232e-07
-1.26861e-06
-1.62805e-07
-1.18869e-06
-1.60331e-07
-1.11001e-06
-1.57815e-07
-1.03258e-06
-1.55262e-07
-9.56437e-07
-1.52673e-07
-8.81572e-07
-1.50049e-07
-8.07987e-07
-1.47402e-07
-7.35695e-07
-1.44746e-07
-6.64698e-07
-1.42084e-07
-5.95001e-07
-1.39421e-07
-5.26601e-07
-1.3676e-07
-4.59498e-07
-1.34104e-07
-3.93689e-07
-1.31455e-07
-3.29167e-07
-1.2882e-07
-2.65924e-07
-1.26205e-07
-2.03948e-07
-1.23609e-07
-1.43232e-07
-1.21032e-07
-8.37626e-08
-1.18479e-07
-2.55342e-08
-1.15951e-07
3.14669e-08
-1.13462e-07
8.72687e-08
-1.11021e-07
1.41889e-07
-1.08614e-07
1.95337e-07
-1.06238e-07
2.47629e-07
-1.03898e-07
2.98792e-07
-1.01593e-07
3.48854e-07
-9.93247e-08
3.97971e-07
-9.70929e-08
4.46123e-07
-9.49647e-08
4.93093e-07
-9.29281e-08
5.38943e-07
-9.0855e-08
5.83752e-07
-8.87554e-08
6.27554e-07
-8.66829e-08
6.70378e-07
-8.46566e-08
7.12247e-07
-8.26838e-08
7.53184e-07
-8.07656e-08
7.93212e-07
-7.89012e-08
8.32356e-07
-7.70887e-08
8.70638e-07
-7.53267e-08
9.08083e-07
-7.3614e-08
9.44712e-07
-7.19498e-08
9.8055e-07
-7.03332e-08
1.01562e-06
-6.87643e-08
1.04994e-06
-6.72425e-08
1.08354e-06
-6.5768e-08
1.11644e-06
-6.43405e-08
1.14866e-06
-6.29601e-08
1.18023e-06
-6.16268e-08
1.21116e-06
-6.03407e-08
1.24148e-06
-5.91017e-08
1.27122e-06
-5.791e-08
1.3004e-06
-5.67652e-08
1.32903e-06
-5.56674e-08
1.35715e-06
-5.46161e-08
1.38477e-06
-5.36105e-08
1.41192e-06
-5.26495e-08
1.43861e-06
-5.17314e-08
1.46486e-06
-5.08534e-08
1.4907e-06
-5.00117e-08
1.51614e-06
-4.92006e-08
1.54118e-06
-4.84122e-08
1.56583e-06
-4.76355e-08
1.59009e-06
-4.68549e-08
1.61395e-06
-4.60491e-08
1.63738e-06
-4.51885e-08
1.66033e-06
-4.42319e-08
1.68274e-06
-4.31217e-08
1.70449e-06
-4.17761e-08
1.72542e-06
-4.00769e-08
1.7453e-06
-3.78472e-08
1.76374e-06
-3.48182e-08
1.7802e-06
-3.05273e-08
1.79379e-06
-2.42247e-08
1.80352e-06
-1.43141e-08
1.8084e-06
1.96463e-09
1.80653e-06
3.14131e-08
8.80669e-08
1.79083e-06
2.46597e-07
-5.23503e-07
3.43404e-07
-5.47058e-07
3.59888e-07
-4.18909e-07
3.49002e-07
-2.94769e-07
3.21496e-07
-1.80411e-07
2.77638e-07
-7.38651e-08
2.16712e-07
2.56264e-08
1.37671e-07
1.18278e-07
3.94692e-08
2.0367e-07
-8.00217e-08
2.81095e-07
-2.26454e-07
3.4975e-07
-4.10304e-07
4.11296e-07
-6.45033e-07
4.72437e-07
-9.37824e-07
5.41893e-07
-1.2788e-06
6.2337e-07
-1.64602e-06
7.11497e-07
-2.01854e-06
7.95317e-07
-2.37937e-06
8.65274e-07
-2.71452e-06
9.15759e-07
-3.01332e-06
9.44371e-07
-3.27192e-06
9.50619e-07
-3.49133e-06
9.35724e-07
-3.67451e-06
9.02862e-07
-3.82549e-06
8.5641e-07
-3.94898e-06
8.00639e-07
-4.05038e-06
7.39245e-07
-4.13502e-06
6.75538e-07
-4.20733e-06
6.12292e-07
-4.27074e-06
5.51552e-07
-4.32788e-06
4.94585e-07
-4.38064e-06
4.42004e-07
-4.43015e-06
3.9405e-07
-4.47707e-06
3.50641e-07
-4.52167e-06
3.11498e-07
-4.56398e-06
2.76231e-07
-4.60391e-06
2.44401e-07
-4.64129e-06
2.15567e-07
-4.67594e-06
1.89313e-07
-4.70766e-06
1.6526e-07
-4.7363e-06
1.43078e-07
-4.76171e-06
1.22482e-07
-4.78378e-06
1.03234e-07
-4.80244e-06
8.51349e-08
-4.81761e-06
6.80197e-08
-4.82923e-06
5.17478e-08
-4.83723e-06
3.61998e-08
-4.84153e-06
2.12733e-08
-4.84199e-06
6.87459e-09
-4.83838e-06
-7.10281e-09
-4.83057e-06
-2.07735e-08
-4.8186e-06
-3.41986e-08
-4.80257e-06
-4.73664e-08
-4.78251e-06
-6.02545e-08
-4.75847e-06
-7.28545e-08
-4.73051e-06
-8.516e-08
-4.6987e-06
-9.71654e-08
-4.66313e-06
-1.08864e-07
-4.62388e-06
-1.20247e-07
-4.58106e-06
-1.31305e-07
-4.53477e-06
-1.42026e-07
-4.48511e-06
-1.52398e-07
-4.43219e-06
-1.62408e-07
-4.37615e-06
-1.72042e-07
-4.3171e-06
-1.81291e-07
-4.25516e-06
-1.90146e-07
-4.19047e-06
-1.98597e-07
-4.12316e-06
-2.06632e-07
-4.05337e-06
-2.14246e-07
-3.98123e-06
-2.21433e-07
-3.90689e-06
-2.28189e-07
-3.83048e-06
-2.3451e-07
-3.75215e-06
-2.40397e-07
-3.67203e-06
-2.45849e-07
-3.59027e-06
-2.50868e-07
-3.50701e-06
-2.55457e-07
-3.42239e-06
-2.59621e-07
-3.33654e-06
-2.63365e-07
-3.24959e-06
-2.66697e-07
-3.16169e-06
-2.69625e-07
-3.07295e-06
-2.72159e-07
-2.98352e-06
-2.74309e-07
-2.8935e-06
-2.76086e-07
-2.80302e-06
-2.77504e-07
-2.7122e-06
-2.78574e-07
-2.62114e-06
-2.79313e-07
-2.52997e-06
-2.79733e-07
-2.43879e-06
-2.79849e-07
-2.3477e-06
-2.79678e-07
-2.2568e-06
-2.79232e-07
-2.1662e-06
-2.78524e-07
-2.07601e-06
-2.77568e-07
-1.98633e-06
-2.76368e-07
-1.89726e-06
-2.74925e-07
-1.80889e-06
-2.73226e-07
-1.72128e-06
-2.71256e-07
-1.63445e-06
-2.6901e-07
-1.54842e-06
-2.66505e-07
-1.4632e-06
-2.63776e-07
-1.37883e-06
-2.60867e-07
-1.29539e-06
-2.57816e-07
-1.21293e-06
-2.54642e-07
-1.13149e-06
-2.51357e-07
-1.05113e-06
-2.47971e-07
-9.71863e-07
-2.44494e-07
-8.93729e-07
-2.40935e-07
-8.16753e-07
-2.37303e-07
-7.40958e-07
-2.33606e-07
-6.66364e-07
-2.29852e-07
-5.92985e-07
-2.26049e-07
-5.20827e-07
-2.22202e-07
-4.49899e-07
-2.18326e-07
-3.8021e-07
-2.1443e-07
-3.11768e-07
-2.10522e-07
-2.44574e-07
-2.06611e-07
-1.78629e-07
-2.02701e-07
-1.13931e-07
-1.98797e-07
-5.04765e-08
-1.94906e-07
1.17411e-08
-1.91034e-07
7.27259e-08
-1.87186e-07
1.32486e-07
-1.83365e-07
1.91033e-07
-1.79576e-07
2.48381e-07
-1.75823e-07
3.04544e-07
-1.72112e-07
3.59534e-07
-1.68449e-07
4.13357e-07
-1.64841e-07
4.66028e-07
-1.61284e-07
5.17569e-07
-1.57777e-07
5.67997e-07
-1.54324e-07
6.17335e-07
-1.50929e-07
6.65613e-07
-1.476e-07
7.12871e-07
-1.4435e-07
7.59096e-07
-1.41188e-07
8.04251e-07
-1.38083e-07
8.48385e-07
-1.34988e-07
8.91543e-07
-1.31913e-07
9.33748e-07
-1.28886e-07
9.75018e-07
-1.25926e-07
1.01537e-06
-1.23037e-07
1.05483e-06
-1.20223e-07
1.09341e-06
-1.17482e-07
1.13114e-06
-1.14815e-07
1.16803e-06
-1.1222e-07
1.20411e-06
-1.09696e-07
1.23941e-06
-1.07242e-07
1.27393e-06
-1.04859e-07
1.30772e-06
-1.02545e-07
1.34077e-06
-1.003e-07
1.37313e-06
-9.81248e-08
1.40481e-06
-9.60186e-08
1.43583e-06
-9.39817e-08
1.46622e-06
-9.20139e-08
1.496e-06
-9.01156e-08
1.52518e-06
-8.82864e-08
1.5538e-06
-8.65267e-08
1.58187e-06
-8.4836e-08
1.60941e-06
-8.32143e-08
1.63646e-06
-8.16607e-08
1.66302e-06
-8.01742e-08
1.68912e-06
-7.87532e-08
1.71479e-06
-7.73949e-08
1.74003e-06
-7.60955e-08
1.76486e-06
-7.48493e-08
1.78931e-06
-7.36484e-08
1.81338e-06
-7.24813e-08
1.83708e-06
-7.13325e-08
1.8604e-06
-7.01802e-08
1.88335e-06
-6.89943e-08
1.90589e-06
-6.77333e-08
1.928e-06
-6.63399e-08
1.94962e-06
-6.47336e-08
1.97064e-06
-6.28013e-08
1.99095e-06
-6.038e-08
2.01033e-06
-5.72287e-08
2.0285e-06
-5.29845e-08
2.04503e-06
-4.7055e-08
2.05931e-06
-3.85038e-08
2.07056e-06
-2.5566e-08
2.07793e-06
-5.3934e-09
2.08184e-06
2.75039e-08
8.55124e-08
2.08439e-06
9.43466e-08
-6.17853e-07
6.33243e-08
-5.16038e-07
1.50099e-08
-3.70596e-07
-4.18802e-08
-2.3788e-07
-1.11124e-07
-1.11168e-07
-1.96198e-07
1.12058e-08
-3.00087e-07
1.29515e-07
-4.25215e-07
2.43403e-07
-5.74145e-07
3.52598e-07
-7.50256e-07
4.57205e-07
-9.58307e-07
5.57801e-07
-1.20269e-06
6.55678e-07
-1.48232e-06
7.52073e-07
-1.78655e-06
8.46124e-07
-2.0967e-06
9.33522e-07
-2.39305e-06
1.00784e-06
-2.66099e-06
1.06326e-06
-2.89219e-06
1.09647e-06
-3.08333e-06
1.1069e-06
-3.2352e-06
1.09623e-06
-3.35206e-06
1.06748e-06
-3.44046e-06
1.02412e-06
-3.50752e-06
9.69918e-07
-3.55978e-06
9.0867e-07
-3.60274e-06
8.43607e-07
-3.64087e-06
7.77372e-07
-3.67742e-06
7.12088e-07
-3.71444e-06
6.49316e-07
-3.75296e-06
5.90067e-07
-3.79324e-06
5.34868e-07
-3.83512e-06
4.83879e-07
-3.87809e-06
4.37023e-07
-3.92152e-06
3.94069e-07
-3.96472e-06
3.54697e-07
-4.00703e-06
3.18545e-07
-4.04787e-06
2.85242e-07
-4.08673e-06
2.5443e-07
-4.1232e-06
2.25778e-07
-4.15692e-06
1.98985e-07
-4.18763e-06
1.73786e-07
-4.2151e-06
1.49951e-07
-4.23915e-06
1.27283e-07
-4.25963e-06
1.05615e-07
-4.27642e-06
8.48055e-08
-4.28941e-06
6.47345e-08
-4.29851e-06
4.52998e-08
-4.30365e-06
2.64149e-08
-4.30478e-06
8.00273e-09
-4.30187e-06
-1.00105e-08
-4.29496e-06
-2.76864e-08
-4.2841e-06
-4.50537e-08
-4.26936e-06
-6.21097e-08
-4.25078e-06
-7.88418e-08
-4.22839e-06
-9.52375e-08
-4.20227e-06
-1.11283e-07
-4.17247e-06
-1.26965e-07
-4.13907e-06
-1.42268e-07
-4.10214e-06
-1.57175e-07
-4.06178e-06
-1.71668e-07
-4.01808e-06
-1.8573e-07
-3.97113e-06
-1.99343e-07
-3.92106e-06
-2.12488e-07
-3.86795e-06
-2.25145e-07
-3.81195e-06
-2.37299e-07
-3.75316e-06
-2.48938e-07
-3.6917e-06
-2.6005e-07
-3.62772e-06
-2.70619e-07
-3.56133e-06
-2.80637e-07
-3.49267e-06
-2.90094e-07
-3.42187e-06
-2.98986e-07
-3.34907e-06
-3.0731e-07
-3.27441e-06
-3.15061e-07
-3.19802e-06
-3.22242e-07
-3.12003e-06
-3.28854e-07
-3.04059e-06
-3.34901e-07
-2.95983e-06
-3.40388e-07
-2.87787e-06
-3.45323e-07
-2.79485e-06
-3.49715e-07
-2.7109e-06
-3.53575e-07
-2.62615e-06
-3.56914e-07
-2.54071e-06
-3.59746e-07
-2.45471e-06
-3.62085e-07
-2.36827e-06
-3.63947e-07
-2.28149e-06
-3.65347e-07
-2.1945e-06
-3.66305e-07
-2.10739e-06
-3.66836e-07
-2.02028e-06
-3.66959e-07
-1.93327e-06
-3.66692e-07
-1.84645e-06
-3.6605e-07
-1.75992e-06
-3.65051e-07
-1.67377e-06
-3.63708e-07
-1.58811e-06
-3.62033e-07
-1.503e-06
-3.60033e-07
-1.41851e-06
-3.57709e-07
-1.33471e-06
-3.55064e-07
-1.25161e-06
-3.52106e-07
-1.16926e-06
-3.48855e-07
-1.0877e-06
-3.4534e-07
-1.00697e-06
-3.41599e-07
-9.27121e-07
-3.37661e-07
-8.48213e-07
-3.33549e-07
-7.70286e-07
-3.29282e-07
-6.93379e-07
-3.24876e-07
-6.17525e-07
-3.20346e-07
-5.42754e-07
-3.15704e-07
-4.69091e-07
-3.10964e-07
-3.96558e-07
-3.06137e-07
-3.25174e-07
-3.01234e-07
-2.54953e-07
-2.96267e-07
-1.85904e-07
-2.91249e-07
-1.18038e-07
-2.8619e-07
-5.13619e-08
-2.81103e-07
1.41174e-08
-2.75998e-07
7.83954e-08
-2.70886e-07