/*--------------------------------*- C++ -*----------------------------------*\
  =========                 |
  \\      /  F ield         | OpenFOAM: The Open Source CFD Toolbox
   \\    /   O peration     | Website:  https://openfoam.org
    \\  /    A nd           | Version:  8
     \\/     M anipulation  |
\*---------------------------------------------------------------------------*/
FoamFile
{
    version     2.0;
    format      ascii;
    class       volVectorField;
    location    "4000";
    object      wallShearStress;
}
// * * * * * * * * * * * * * * * * * * * * * * * * * * * * * * * * * * * * * //

dimensions      [0 2 -2 0 0 0 0];

internalField   uniform (0 0 0);

boundaryField
{
    inlet
    {
        type            calculated;
        value           uniform (0 0 0);
    }
    outlet
    {
        type            calculated;
        value           uniform (0 0 0);
    }
    upperWall
    {
        type            calculated;
        value           nonuniform List<vector> 
223
(
(-0.582193 -0.392359 0)
(-0.977814 -0.219377 0)
(-0.939335 -0.0567746 0)
(-0.81071 -0.00585779 0)
(-0.734594 0.00331369 0)
(-0.695452 0.00231577 0)
(-0.670933 0.000424061 0)
(-0.653508 -0.00144938 0)
(-0.640532 -0.00256372 0)
(-0.629821 -0.00218321 0)
(-0.620057 -0.00130746 0)
(-0.610958 -0.00110593 0)
(-0.603031 -0.0014163 0)
(-0.596179 -0.00125905 0)
(-0.590117 -0.000909422 0)
(-0.584819 -0.00080304 0)
(-0.580186 -0.000394097 0)
(-0.575298 0.00117817 0)
(-0.570572 0.00212735 0)
(-0.567027 0.00150473 4.2315e-22)
(-0.564176 0.00122243 0)
(-0.561324 0.00172906 0)
(-0.558234 0.00215434 0)
(-0.555261 0.00232957 4.47825e-22)
(-0.552498 0.00277984 0)
(-0.549714 0.00361299 0)
(-0.546726 0.00427137 0)
(-0.543669 0.0042863 -9.43166e-22)
(-0.540814 0.00397478 9.53872e-22)
(-0.538116 0.00350614 9.64253e-22)
(-0.535501 0.0030893 0)
(-0.532905 0.00273384 -9.8599e-22)
(-0.530313 0.0023934 0)
(-0.527739 0.00211633 1.00873e-21)
(-0.525152 0.00188493 1.02054e-21)
(-0.522542 0.00171167 -1.03298e-21)
(-0.519901 0.00156925 0)
(-0.517239 0.0014537 0)
(-0.514555 0.0013626 0)
(-0.511842 0.001291 0)
(-0.509099 0.00123478 -1.09561e-21)
(-0.506324 0.00119103 0)
(-0.503515 0.00115745 0)
(-0.500668 0.00113225 1.13443e-21)
(-0.497781 0.00111407 0)
(-0.494852 0.0011017 1.16017e-21)
(-0.491877 0.00109429 -1.17283e-21)
(-0.488853 0.00109081 1.18527e-21)
(-0.485776 0.00109136 0)
(-0.482646 0.00109356 0)
(-0.479461 0.00109686 0)
(-0.476223 0.00110081 1.23191e-21)
(-0.472937 0.00110372 -1.24245e-21)
(-0.469614 0.0011057 0)
(-0.466271 0.00110775 0)
(-0.46292 0.00111032 0)
(-0.459575 0.00111258 0)
(-0.456239 0.0011133 0)
(-0.452914 0.00111155 0)
(-0.449596 0.00110762 0)
(-0.446275 0.00110204 0)
(-0.442943 0.00109577 1.29241e-21)
(-0.439588 0.00108993 -1.29215e-21)
(-0.436199 0.00108536 0)
(-0.432764 0.00108276 0)
(-0.429274 0.0010822 0)
(-0.425719 0.00108382 -1.27864e-21)
(-0.422091 0.00108752 0)
(-0.418383 0.00109291 0)
(-0.41459 0.00109963 0)
(-0.410706 0.0011073 0)
(-0.406729 0.00111551 0)
(-0.402656 0.0011237 -2.43468e-21)
(-0.398488 0.00113125 0)
(-0.394225 0.00113771 0)
(-0.389869 0.00114254 0)
(-0.385428 0.00114553 0)
(-0.380908 0.00114657 0)
(-0.376323 0.00114551 0)
(-0.371683 0.00114206 0)
(-0.367002 0.00113594 2.09546e-21)
(-0.362289 0.00112705 0)
(-0.357552 0.00111545 0)
(-0.352796 0.00110149 0)
(-0.348023 0.00108558 -1.83975e-21)
(-0.343233 0.00106838 0)
(-0.338424 0.00105055 -1.69031e-21)
(-0.333591 0.00103262 0)
(-0.328732 0.0010155 0)
(-0.323838 0.000999958 0)
(-0.319026 0.000992151 -1.35107e-21)
(-0.316385 0.00100129 0)
(-0.313661 0.00101513 1.18057e-21)
(-0.310856 0.00102979 1.08987e-21)
(-0.307976 0.00104296 0)
(-0.305031 0.00105384 8.96159e-22)
(-0.302034 0.00106258 0)
(-0.298997 0.00107007 0)
(-0.295936 0.00107677 0)
(-0.292864 0.00108513 -4.5471e-22)
(-0.289795 0.00109262 0)
(-0.286743 0.00110327 -2.0536e-22)
(-0.283721 0.00111625 7.33972e-23)
(-0.28074 0.00110377 0)
(-0.277799 0.00111463 0)
(-0.274931 0.00111992 0)
(-0.272119 0.00108113 0)
(-0.26938 0.00113819 0)
(-0.266732 0.00114869 0)
(-0.264104 0.000991606 0)
(-0.261565 0.000852942 1.15183e-21)
(-0.259146 0.00077506 0)
(-0.256735 0.00077214 0)
(-0.254495 0.000818822 0)
(-0.252342 0.00101454 0)
(-0.250352 0.00096163 0)
(-0.248226 0.00122563 0)
(-0.246553 0.00135134 0)
(-0.244655 0.00128656 0)
(-0.243241 0.00148845 0)
(-0.241364 0.00122595 0)
(-0.239743 0.000550202 0)
(-0.237601 7.83623e-05 0)
(-0.235641 0.000408779 7.20521e-21)
(-0.233741 0.000499499 0)
(-0.23184 0.000900691 0)
(-0.230455 0.00112945 0)
(-0.229088 0.000530319 -8.77327e-21)
(-0.227578 0.000695595 0)
(-0.226101 0.000754734 0)
(-0.224715 0.000645294 -1.00348e-20)
(-0.223335 0.000967943 0)
(-0.222096 0.000338173 1.08381e-20)
(-0.220392 -0.000248922 0)
(-0.218789 -6.64078e-05 0)
(-0.217422 9.59645e-05 0)
(-0.216408 0.000197148 -1.25999e-20)
(-0.215134 0.000276979 0)
(-0.213832 0.000377954 1.34795e-20)
(-0.212782 0.000359931 0)
(-0.211758 0.000296215 0)
(-0.210731 0.000370436 0)
(-0.209557 0.000296017 0)
(-0.208909 0.000254622 0)
(-0.20772 0.000435176 0)
(-0.206828 0.000467637 0)
(-0.206293 0.000374408 0)
(-0.205393 0.000404601 0)
(-0.204591 0.000442529 0)
(-0.203721 0.00030324 0)
(-0.203303 0.000258347 1.83674e-20)
(-0.202351 0.000409067 -1.88864e-20)
(-0.201353 0.000354752 0)
(-0.200869 0.00029934 0)
(-0.200164 0.00035754 0)
(-0.199317 0.000295172 0)
(-0.199163 0.000306988 -2.08454e-20)
(-0.198471 0.000339132 2.13662e-20)
(-0.197682 0.000276742 -2.17861e-20)
(-0.197328 0.000246381 0)
(-0.196888 0.000266766 -2.25218e-20)
(-0.196365 0.000244821 -4.59598e-20)
(-0.196021 0.000254891 0)
(-0.195279 0.000296743 -4.77762e-20)
(-0.195058 0.000226576 4.83546e-20)
(-0.194954 0.000241637 0)
(-0.194327 0.000363856 0)
(-0.193577 0.000267739 0)
(-0.193482 0.000172544 0)
(-0.193022 0.000287197 0)
(-0.192592 0.000254696 -5.3457e-20)
(-0.192396 0.000222001 0)
(-0.19147 0.000359907 -5.53798e-20)
(-0.191095 0.000398242 0)
(-0.190579 0.000596716 0)
(-0.190125 0.000808707 0)
(-0.189741 0.000314833 0)
(-0.188978 -8.2862e-05 0)
(-0.187874 2.22047e-05 6.14583e-20)
(-0.18765 0.000139417 0)
(-0.187259 0.000233914 0)
(-0.186313 0.00025259 -6.43359e-20)
(-0.185385 0.000244096 0)
(-0.184915 0.000280443 0)
(-0.184 0.000316944 0)
(-0.183081 0.000377275 6.88169e-20)
(-0.181817 0.000521136 0)
(-0.180371 0.000742845 0)
(-0.179081 0.000846179 0)
(-0.17764 0.000720706 0)
(-0.17621 0.000726924 -7.64557e-20)
(-0.173669 0.000775936 0)
(-0.170645 0.000743277 0)
(-0.167316 0.00081566 0)
(-0.163052 0.00103836 8.75519e-20)
(-0.155846 0.00137384 0)
(-0.148777 0.00205511 0)
(-0.123507 0.00196408 -1.08415e-19)
(-0.140975 0.00673563 0)
(-0.169536 0.0133487 1.24916e-17)
(-0.187178 0.0171666 2.34884e-17)
(-0.193744 0.0189485 2.26577e-17)
(-0.197393 0.0197664 2.19247e-17)
(-0.20106 0.0203447 2.11954e-17)
(-0.20548 0.0210248 -2.02459e-17)
(-0.209669 0.0215334 -1.95273e-17)
(-0.213849 0.0218785 0)
(-0.218083 0.0220207 -3.66604e-17)
(-0.220224 0.0221828 -1.80762e-17)
(-0.224692 0.0227226 6.92131e-34)
(-0.227501 0.0229053 -2.40741e-35)
(-0.231074 0.0233622 -3.22681e-17)
(-0.235459 0.0239481 -3.06544e-17)
(-0.242439 0.0247961 -2.84631e-17)
(-0.249617 0.0254555 0)
(-0.256927 0.0260694 4.94006e-17)
(-0.263929 0.0266557 2.26557e-17)
(-0.271711 0.0273457 1.20371e-35)
(-0.281076 0.028171 -3.5129e-17)
(-0.290382 0.0289007 -1.52852e-20)
(-0.300202 0.0295015 -3.00927e-36)
(-0.305077 0.0304937 1.34165e-17)
(-0.332323 0.0321448 -7.64426e-18)
)
;
    }
    lowerWall
    {
        type            calculated;
        value           nonuniform List<vector> 
250
(
(-0.653909 0.466638 0)
(-1.14095 0.204678 0)
(-1.03492 0.0379586 0)
(-0.869573 -0.000935999 0)
(-0.786941 -0.00419163 0)
(-0.746063 -0.00160783 0)
(-0.719878 0.000416171 0)
(-0.700645 -0.000651824 0)
(-0.685088 -0.004056 0)
(-0.671318 -0.0047123 0)
(-0.658933 -0.00298827 0)
(-0.64772 -0.000864269 0)
(-0.637516 0.00142605 0)
(-0.628189 0.00210389 0)
(-0.61932 0.00136788 0)
(-0.611521 0.0013576 0)
(-0.604582 0.00169547 0)
(-0.605062 0.0019458 0)
(-0.00423442 -0.0228276 0)
(-0.00275826 -0.0176421 0)
(-0.000680366 -0.0144908 0)
(0.00193686 -0.0137994 9.02524e-20)
(0.00525391 -0.0152136 -7.86544e-20)
(0.00894916 -0.0208285 6.28534e-20)
(0.0127315 -0.0200729 -4.84759e-20)
(0.0256478 -0.0632962 0)
(-0.0839926 -0.144719 0)
(0.000872794 -0.00384079 0)
(-0.00766532 0.00954617 0)
(-0.0085163 0.0328211 0)
(-0.00254979 0.044855 0)
(0.00295297 0.0442618 1.82223e-20)
(0.00618239 0.0360635 -1.89657e-20)
(0.0081869 0.0241617 0)
(0.00946024 0.0101613 -5.42277e-20)
(0.00943147 -0.00404174 6.11429e-20)
(0.00793313 -0.0174217 0)
(0.00614108 -0.0291942 0)
(0.0043816 -0.0385618 0)
(0.00268693 -0.0451386 0)
(0.000985974 -0.0488771 0)
(-0.000886932 -0.0495121 0)
(-0.00281905 -0.0463951 0)
(-0.00439765 -0.0399062 0)
(-0.00491331 -0.0307458 0)
(0.0013286 -0.00151234 0)
(0.00133805 0.00652714 0)
(-0.00450915 0.00961855 0)
(-0.00959714 0.00975645 0)
(-0.0133831 0.00829949 0)
(-0.0158894 0.00623519 0)
(-0.0172644 0.00409759 1.49574e-21)
(-0.017783 0.00200606 -1.52734e-21)
(-0.0173315 -7.07855e-06 0)
(-0.0160539 -0.00168635 -1.65309e-21)
(-0.0141884 -0.00283766 0)
(-0.0120504 -0.00329655 0)
(-0.0100506 -0.00303598 -0)
(-0.00855292 -0.00228035 2.57032e-21)
(-0.00761623 -0.0014231 0)
(-0.00693795 -0.000815872 0)
(-0.00612047 -0.000623417 -3.37825e-21)
(-0.0049929 -0.00100041 0)
(-0.00340856 -0.00238578 0)
(-0.000488884 -0.00505734 0)
(0.00436033 -0.00740347 3.03321e-21)
(0.00994523 -0.00889505 0)
(0.0158462 -0.00984988 1.46918e-21)
(0.0218916 -0.0106168 0)
(0.0280973 -0.0112689 -0)
(0.0344078 -0.0115143 8.44708e-22)
(0.0405402 -0.0113546 0)
(0.0491478 -0.0116032 -7.54041e-22)
(0.0589376 -0.0117551 -0)
(0.0686317 -0.0115826 7.70702e-22)
(0.0780408 -0.0111689 0)
(0.0870137 -0.010584 0)
(0.095458 -0.00989 0)
(0.103316 -0.00913654 -0)
(0.110562 -0.00836064 0)
(0.117195 -0.00758947 -8.11157e-22)
(0.123228 -0.00684034 -0)
(0.128684 -0.00612261 1.63309e-21)
(0.133589 -0.00544043 0)
(0.137972 -0.00479412 -1.63496e-21)
(0.141857 -0.00418198 -0)
(0.14527 -0.00360139 -0)
(0.14823 -0.00304954 1.62106e-21)
(0.150756 -0.00252407 0)
(0.152862 -0.00202409 1.60084e-21)
(0.15456 -0.00155028 -1.58753e-21)
(0.155861 -0.00110624 -0)
(0.15678 -0.000698884 -1.55491e-21)
(0.157326 -0.000337869 -1.53588e-21)
(0.157512 -3.98386e-05 -0)
(0.157407 0.000194784 0)
(0.157075 0.000391574 0)
(0.156521 0.000568215 0)
(0.155759 0.000731051 -0)
(0.154799 0.000884179 1.37581e-21)
(0.153647 0.0010283 0)
(0.152311 0.00116406 -1.30703e-21)
(0.150797 0.00129165 -0)
(0.149115 0.00141124 -0)
(0.14727 0.00152287 1.19058e-21)
(0.14527 0.0016264 0)
(0.143125 0.00172191 -1.10488e-21)
(0.140841 0.00180935 -0)
(0.138428 0.00188864 0)
(0.135894 0.00195986 -0)
(0.133248 0.00202314 9.16854e-22)
(0.1305 0.0020785 0)
(0.127658 0.00212605 -0)
(0.124732 0.002166 7.63813e-22)
(0.121731 0.00219849 0)
(0.118664 0.00222369 6.57279e-22)
(0.11554 0.00224188 0)
(0.112369 0.00225333 0)
(0.109158 0.00225829 0)
(0.105918 0.002257 -4.36199e-22)
(0.102655 0.00224979 -0)
(0.0993787 0.00223707 0)
(0.0960959 0.00221906 -2.65598e-22)
(0.0928147 0.00219611 -2.08149e-22)
(0.0895419 0.00216861 -0)
(0.0862844 0.00213689 -9.26826e-23)
(0.0830486 0.00210136 -0)
(0.0798404 0.0020624 4.65464e-23)
(0.076665 0.00202032 -0)
(0.0735282 0.00197557 2.78967e-22)
(0.0704343 0.0019287 0)
(0.0673875 0.00188016 -5.1165e-22)
(0.0643919 0.0018308 -0)
(0.0614502 0.00178156 0)
(0.0585658 0.00173376 -0)
(0.0557398 0.00168919 9.78412e-22)
(0.052974 0.00164989 0)
(0.0502687 0.00161809 -1.21385e-21)
(0.0476225 0.0015948 0)
(0.0457842 0.00160344 1.47562e-21)
(0.0442418 0.001621 1.63413e-21)
(0.0427027 0.00162591 1.79905e-21)
(0.0411754 0.00161302 0)
(0.0396649 0.00158967 0)
(0.0381714 0.001564 0)
(0.036693 0.00153819 0)
(0.0352302 0.00151248 0)
(0.033783 0.00148688 0)
(0.0323521 0.00146139 0)
(0.030938 0.00143617 0)
(0.029541 0.00141133 -3.69183e-21)
(0.0281618 0.00138713 -3.96749e-21)
(0.0268002 0.00136372 0)
(0.0254563 0.00134074 0)
(0.0241308 0.00131668 0)
(0.0228251 0.0012918 -5.26743e-21)
(0.0215388 0.00126759 0)
(0.0202723 0.00124392 0)
(0.0190253 0.00122085 0)
(0.0177979 0.00119843 0)
(0.0165904 0.00117669 7.53599e-21)
(0.0154025 0.00115574 0)
(0.0142344 0.00113566 0)
(0.0130859 0.00111654 -9.45472e-21)
(0.0119569 0.00109842 1.02322e-20)
(0.0108474 0.00108141 0)
(0.00975726 0.00106579 1.20684e-20)
(0.00868649 0.00105219 0)
(0.0076347 0.00104181 -1.44066e-20)
(0.00660117 0.00103492 0)
(0.00558561 0.00103051 0)
(0.00458794 0.00102829 0)
(0.00360775 0.00102858 0)
(0.00264459 0.0010316 0)
(0.00169892 0.00103732 5.57035e-20)
(0.000772227 0.00104291 6.42109e-20)
(-0.000137516 0.00103023 0)
(-0.00103473 0.000987439 0)
(-0.00191648 0.000935056 0)
(-0.00278273 0.000885567 -5.28962e-20)
(-0.00363338 0.00084065 0)
(-0.00446823 0.0007999 0)
(-0.00528766 0.000762838 0)
(-0.00609225 0.000728962 -4.04205e-20)
(-0.00688255 0.000697819 3.83701e-20)
(-0.00765909 0.000669027 0)
(-0.0084223 0.000642281 0)
(-0.00917265 0.000617337 3.36215e-20)
(-0.00991057 0.000593996 3.23811e-20)
(-0.0106365 0.000572092 0)
(-0.0113509 0.00055149 0)
(-0.0120541 0.000532083 -2.93554e-20)
(-0.0127466 0.000513764 2.85276e-20)
(-0.0134288 0.00049646 0)
(-0.0141011 0.000480095 0)
(-0.014764 0.00046461 2.64375e-20)
(-0.0154179 0.000449954 0)
(-0.0160633 0.000436075 0)
(-0.0167005 0.000422942 2.47918e-20)
(-0.0173301 0.00041051 0)
(-0.0179525 0.000398747 2.38757e-20)
(-0.0185682 0.000387623 0)
(-0.0191776 0.000377106 0)
(-0.0197812 0.000367165 0)
(-0.0203795 0.000357767 -2.23595e-20)
(-0.0209728 0.00034888 0)
(-0.0215616 0.000340476 0)
(-0.0221465 0.000332479 0)
(-0.0227274 0.00032483 0)
(-0.0233048 0.000317466 0)
(-0.0238786 0.000310256 0)
(-0.0244487 0.000303074 -2.03858e-20)
(-0.0250149 0.000295693 -2.01555e-20)
(-0.0255759 0.000287852 0)
(-0.0261308 0.000279185 0)
(-0.026677 0.000269151 0)
(-0.0272114 0.000257017 1.93606e-20)
(-0.0277287 0.000241526 0)
(-0.0282205 0.000221287 -3.8135e-20)
(-0.0286774 0.000192253 3.79288e-20)
(-0.0290705 0.000152613 3.78195e-20)
(-0.0294016 7.78662e-05 -3.7858e-20)
(-0.0294833 -3.93893e-05 3.80452e-20)
(-0.029508 -0.000356554 -3.83974e-20)
(-0.0279734 -0.000616887 0)
(-0.0293462 -0.000516211 -2.43315e-18)
(-0.0327699 -0.00134241 -2.26974e-18)
(-0.0364134 -0.00203341 -3.00927e-36)
(-0.0395343 -0.00257607 -4.06082e-18)
(-0.0424843 -0.00301861 -7.75771e-18)
(-0.0455569 -0.00342186 -3.71953e-18)
(-0.0487812 -0.00381781 3.56815e-18)
(-0.052112 -0.00430676 -3.00927e-35)
(-0.0556024 -0.00472228 6.01853e-36)
(-0.0593094 -0.00503445 3.15113e-18)
(-0.0632395 -0.00542891 3.02963e-18)
(-0.067434 -0.00582886 0)
(-0.0719183 -0.00623801 0)
(-0.0767308 -0.0066992 0)
(-0.0819205 -0.00720424 -1.34712e-34)
(-0.0875391 -0.00775106 1.44351e-35)
(-0.0936572 -0.00835292 1.02315e-34)
(-0.100328 -0.00901603 -4.15826e-18)
(-0.107692 -0.00973596 -3.81234e-18)
(-0.116753 -0.0106277 6.01853e-36)
(-0.127571 -0.0116303 6.1369e-18)
(-0.138426 -0.0127363 1.03496e-17)
(-0.153651 -0.0139289 6.01853e-36)
(-0.162852 -0.0152954 -5.09829e-18)
(-0.191966 -0.0169828 -3.00927e-36)
)
;
    }
    frontAndBack
    {
        type            empty;
    }
}


// ************************************************************************* //
