/*--------------------------------*- C++ -*----------------------------------*\
| =========                 |                                                 |
| \\      /  F ield         | OpenFOAM: The Open Source CFD Toolbox           |
|  \\    /   O peration     | Version:  v2012                                 |
|   \\  /    A nd           | Website:  www.openfoam.com                      |
|    \\/     M anipulation  |                                                 |
\*---------------------------------------------------------------------------*/
FoamFile
{
    version     2.0;
    format      ascii;
    class       volScalarField;
    location    "3000";
    object      nut;
}
// * * * * * * * * * * * * * * * * * * * * * * * * * * * * * * * * * * * * * //

dimensions      [0 2 -1 0 0 0 0];


internalField   nonuniform List<scalar> 
12225
(
0.0122671
0.00158819
0.000666128
0.000410104
0.00029404
0.000227808
0.000186418
0.000144346
0.00016635
0.000215697
0.000223833
0.000214194
0.000195173
0.000167536
0.000161403
0.00014553
0.000132319
0.000120126
0.0323823
0.00744532
0.00330638
0.00204329
0.00146802
0.00114429
0.000938661
0.000784866
0.000690381
0.000626895
0.000569554
0.000518724
0.000475224
0.000435578
0.000404984
0.000372257
0.000347123
0.000321099
0.0490123
0.01515
0.00728196
0.00457854
0.00330639
0.00258047
0.00211327
0.00178187
0.00154675
0.0013725
0.00123147
0.0011153
0.00101836
0.000936118
0.000866705
0.000804302
0.000753571
0.000701005
0.063054
0.0237783
0.0122894
0.00788815
0.00573397
0.00448497
0.0036744
0.00310418
0.00268716
0.00236996
0.00211791
0.00191316
0.00174402
0.00160223
0.00148244
0.00137861
0.00129108
0.00120453
0.074932
0.0328517
0.0181452
0.0119262
0.00874549
0.00686412
0.00563086
0.00476129
0.00411868
0.00362571
0.00323516
0.00291876
0.00265801
0.00244006
0.00225597
0.00209833
0.00196335
0.00183981
0.0849536
0.0420208
0.0246655
0.0166359
0.0123325
0.00972587
0.0079954
0.0067674
0.00585403
0.00515005
0.00459191
0.00413983
0.00376743
0.00345636
0.00319353
0.00296907
0.00277613
0.00260657
0.0933822
0.0510219
0.0316642
0.0219415
0.016474
0.0130717
0.0107779
0.00913539
0.00790598
0.00695436
0.00619833
0.00558533
0.0050801
0.00465802
0.00430137
0.00399703
0.00373535
0.00350913
0.0993794
0.0583363
0.0378386
0.0268568
0.0204171
0.0163053
0.0134892
0.011453
0.00991905
0.00872671
0.00777697
0.0070057
0.00636944
0.00583763
0.00538816
0.00500468
0.00467516
0.00439182
0.104023
0.0645454
0.0433804
0.0314239
0.0241571
0.0194092
0.0161097
0.0137018
0.0118767
0.0104523
0.00931473
0.0083894
0.00762525
0.00698616
0.00644586
0.00598491
0.00558899
0.00524916
0.108368
0.0708939
0.0493757
0.0365496
0.0284517
0.0230231
0.0191863
0.0163548
0.0141927
0.0124969
0.0111382
0.0100306
0.00911457
0.00834785
0.00769937
0.00714607
0.00667098
0.00626328
0.112368
0.0772557
0.0557282
0.0421918
0.0332976
0.0271652
0.0227468
0.0194433
0.0168984
0.0148904
0.013275
0.0119546
0.0108607
0.00994396
0.00916816
0.00850607
0.00793759
0.0074494
0.115994
0.0834975
0.0623054
0.0482612
0.0386474
0.0318167
0.026789
0.0229739
0.0200047
0.0176453
0.0157379
0.0141737
0.012875
0.0117851
0.010862
0.0100738
0.0093969
0.00881485
0.119234
0.0894856
0.0689377
0.0546109
0.0443919
0.0369007
0.0312597
0.0269089
0.0234837
0.02074
0.0185097
0.0166735
0.015145
0.0138601
0.0127705
0.0118397
0.0110398
0.010351
0.122086
0.095084
0.075415
0.0610223
0.0503361
0.0422535
0.0360231
0.0311353
0.0272402
0.0240931
0.0215191
0.0193909
0.0176141
0.0161175
0.0148467
0.0137601
0.0128258
0.0120198
0.124546
0.100135
0.0814619
0.0671726
0.056158
0.047577
0.0408126
0.0354174
0.031066
0.0275197
0.0246013
0.0221778
0.0201482
0.018435
0.0169783
0.0157315
0.0146584
0.0137312
0.126578
0.104396
0.0866605
0.0725515
0.0613228
0.0523526
0.0451453
0.0393148
0.0345631
0.0306611
0.0274325
0.024741
0.0224806
0.020569
0.0189413
0.0175468
0.0163455
0.0153062
0.128011
0.107322
0.0902141
0.0762353
0.0648743
0.0556509
0.0481493
0.0420254
0.0370012
0.0328553
0.0294126
0.0265352
0.0241143
0.0220643
0.0203171
0.0188191
0.0175275
0.0164083
0.128006
0.107313
0.0902048
0.0762269
0.0648674
0.0556454
0.048145
0.0420221
0.0369988
0.0328536
0.0294117
0.0265349
0.0241147
0.0220651
0.0203184
0.0188205
0.0175286
0.0164082
0.126509
0.104255
0.0864922
0.0723807
0.0611613
0.052205
0.0450128
0.0391967
0.0344584
0.0305685
0.0273506
0.0246684
0.0224163
0.0205118
0.0188902
0.0175006
0.0163023
0.015263
0.124267
0.0995604
0.0807712
0.0664676
0.0554886
0.0469631
0.0402594
0.0349227
0.0306248
0.0271258
0.0242487
0.0218611
0.0198625
0.0181762
0.0167425
0.0155151
0.0144574
0.0135404
0.12136
0.0936399
0.0737261
0.0593348
0.0487592
0.0408248
0.0347467
0.0300003
0.0262308
0.0231928
0.0207127
0.018665
0.0169572
0.0155197
0.0142998
0.0132566
0.0123582
0.0115797
0.117686
0.0865903
0.0656967
0.0514791
0.0415374
0.0343608
0.0290183
0.0249322
0.0217348
0.0191848
0.0171184
0.0154211
0.0140105
0.0128262
0.0118228
0.0109656
0.0102279
0.00958884
0.11305
0.0784122
0.056921
0.0432687
0.0342296
0.0279652
0.0234365
0.0200435
0.0174263
0.0153598
0.0136967
0.012337
0.0112107
0.0102671
0.00946865
0.00878715
0.00820095
0.00769338
0.107169
0.0691009
0.0476372
0.035029
0.0271566
0.021922
0.0182437
0.0155401
0.0134818
0.0118708
0.0105819
0.00953233
0.00866517
0.0079399
0.00732685
0.00680389
0.00635417
0.00596492
0.0996761
0.0587036
0.0381279
0.0270699
0.0205782
0.0164329
0.0135949
0.0115437
0.00999935
0.00879954
0.00784425
0.00706857
0.00642885
0.00589442
0.00544294
0.00505792
0.00472681
0.00444033
0.0901097
0.0473665
0.0287363
0.0196847
0.0146976
0.0116311
0.0095785
0.0081152
0.00702351
0.00618082
0.00551238
0.00497029
0.00452349
0.00415045
0.00383513
0.00356631
0.00333501
0.00313486
0.0779076
0.0353826
0.0198606
0.0131383
0.00966105
0.00759295
0.00623348
0.0052741
0.00456425
0.00402038
0.00359045
0.00324088
0.00295213
0.00271109
0.00250634
0.00233218
0.00218199
0.00205162
0.06238
0.0232554
0.0119461
0.00765493
0.00556336
0.00435253
0.00356719
0.00301615
0.0026133
0.00231035
0.00207205
0.00187478
0.00171018
0.00157294
0.0014537
0.0013533
0.00126583
0.00118864
0.0426105
0.0117794
0.0054693
0.00341385
0.0024607
0.00192004
0.00157265
0.00132941
0.00115829
0.00104122
0.000949582
0.000865004
0.000792189
0.000729957
0.000672095
0.000622954
0.000578112
0.000542039
0.0168348
0.00255984
0.00110002
0.000683429
0.000493725
0.00038681
0.000318008
0.000268386
0.000267474
0.000335984
0.000374821
0.000353475
0.000322284
0.000283566
0.000268894
0.000240656
0.000196194
0.000237182
5.28758e-10
1.01557e-07
1.14789e-06
5.16909e-06
9.8612e-06
1.2803e-05
1.31258e-05
1.11696e-05
8.848e-06
5.76863e-06
3.39741e-06
1.93964e-06
1.35916e-06
1.47387e-06
2.01185e-06
2.48113e-06
2.41338e-06
1.63478e-06
7.30435e-07
3.7068e-07
4.11551e-07
1.22103e-06
5.52216e-06
2.84102e-05
5.71868e-05
7.50106e-05
9.13976e-05
0.000105192
0.000117331
0.000127445
0.000136303
0.000143915
0.000150576
0.000156377
0.00016144
0.000165909
0.00016987
0.000173409
0.000176582
0.000179433
0.00018199
0.000184278
0.000186313
0.000188111
0.000189688
0.000191055
0.000192223
0.000193198
0.00019398
0.000194563
0.000194824
0.000195074
0.000195122
0.000194994
0.000194695
0.000194247
0.000193647
0.000192899
0.000192004
0.000190965
0.000189783
0.00018846
0.000186999
0.000185402
0.000183673
0.000181812
0.000179821
0.000177702
0.000175458
0.000173092
0.000170605
0.000167999
0.000165275
0.000162436
0.000159483
0.000156415
0.000153233
0.000149938
0.000146526
0.000142998
0.000139351
0.000135581
0.000131686
0.000127662
0.000123503
0.000119201
0.000114743
0.000110113
0.000105288
0.000100241
9.4943e-05
8.93679e-05
8.35103e-05
7.74394e-05
7.1436e-05
6.6176e-05
6.24476e-05
6.01238e-05
5.83764e-05
5.67716e-05
5.51956e-05
5.36273e-05
5.20652e-05
5.0511e-05
4.89665e-05
4.74337e-05
4.59154e-05
4.44177e-05
4.29694e-05
4.17368e-05
4.05325e-05
3.9343e-05
3.81707e-05
3.70163e-05
3.58807e-05
3.47646e-05
3.36689e-05
3.25943e-05
3.15414e-05
3.05105e-05
2.95022e-05
2.85168e-05
2.7555e-05
2.66172e-05
2.57035e-05
2.48136e-05
2.39489e-05
2.31397e-05
2.24055e-05
2.16899e-05
2.09892e-05
2.03123e-05
1.96634e-05
1.90281e-05
1.8407e-05
1.78031e-05
1.72172e-05
1.66495e-05
1.60999e-05
1.5568e-05
1.50533e-05
1.45554e-05
1.40739e-05
1.36083e-05
1.31584e-05
1.27236e-05
1.23036e-05
1.18979e-05
1.15063e-05
1.11284e-05
1.07636e-05
1.04118e-05
1.00726e-05
9.74555e-06
9.43046e-06
9.12699e-06
8.83488e-06
8.55387e-06
8.28375e-06
8.02428e-06
7.77529e-06
7.53659e-06
7.30804e-06
7.08942e-06
6.88055e-06
6.68117e-06
6.49098e-06
6.30953e-06
6.13629e-06
5.97052e-06
5.81128e-06
5.65751e-06
5.5071e-06
5.35997e-06
5.20675e-06
5.06305e-06
4.86004e-06
4.71838e-06
4.30434e-06
3.68136e-06
3.34324e-09
6.03807e-06
6.15682e-05
0.000137857
0.000181892
0.000206001
0.000215524
0.000214025
0.00020555
0.000188723
0.000167816
0.000147714
0.000137603
0.000143081
0.00015692
0.000165321
0.000167424
0.000168285
0.000173762
0.000183531
0.000199766
0.00021807
0.000235171
0.000251144
0.000262459
0.000272244
0.00028109
0.000294273
0.000313163
0.000327068
0.000339741
0.000350627
0.000360529
0.000369583
0.000377458
0.000384649
0.000391349
0.000397779
0.00040407
0.000410286
0.000416421
0.000422433
0.000428268
0.000433886
0.00043926
0.000444372
0.000449208
0.000453754
0.000458013
0.000461991
0.000465695
0.000469149
0.000472342
0.000475282
0.000477972
0.000480412
0.000482604
0.000484548
0.000486245
0.000487695
0.000488898
0.000489856
0.000490571
0.000491047
0.000491294
0.000491318
0.000491113
0.000490675
0.000490021
0.000489155
0.000488082
0.000486808
0.000485342
0.000483688
0.000481855
0.00047985
0.000477679
0.000475351
0.000472872
0.000470251
0.000467496
0.000464614
0.000461615
0.000458506
0.000455296
0.000451994
0.000448607
0.000445144
0.000441612
0.000438018
0.000434368
0.000430667
0.000426915
0.000423105
0.000419217
0.000415226
0.000411115
0.000406914
0.000402673
0.000398417
0.000394152
0.000389883
0.000385613
0.000381346
0.000377084
0.000372833
0.000368593
0.000364368
0.000360158
0.00035596
0.000351784
0.000347637
0.000343518
0.000339431
0.000335376
0.000331356
0.000327372
0.000323426
0.000319519
0.000315652
0.000311825
0.00030804
0.000304298
0.0003006
0.000296948
0.000293339
0.000289775
0.000286254
0.000282774
0.00027934
0.000275949
0.000272609
0.000269323
0.000266072
0.000262857
0.000259683
0.000256554
0.000253469
0.00025043
0.000247435
0.000244485
0.000241578
0.000238714
0.000235893
0.000233113
0.000230375
0.000227677
0.00022502
0.000222403
0.000219825
0.000217287
0.000214787
0.000212326
0.000209904
0.00020752
0.000205175
0.000202869
0.000200603
0.000198378
0.000196195
0.000194055
0.00019196
0.000189911
0.00018791
0.00018596
0.000184062
0.000182217
0.000180425
0.000178685
0.000176997
0.000175356
0.000173759
0.000172189
0.000170674
0.000169082
0.000167738
0.000165694
0.0001651
0.000162024
0.000160568
7.63445e-08
3.98491e-05
0.000162908
0.000245621
0.000298883
0.000329074
0.00033996
0.000336943
0.000323947
0.000304605
0.000284908
0.000272515
0.000270568
0.000277546
0.000288086
0.000299122
0.000312182
0.000329343
0.000350994
0.000376357
0.000403788
0.000432003
0.000471308
0.000517483
0.00056308
0.000607157
0.000650215
0.000693862
0.000732922
0.000763993
0.000788826
0.000808519
0.000824133
0.000836528
0.000846481
0.000854766
0.000862078
0.000869059
0.000876241
0.000883976
0.000892367
0.00090129
0.000910505
0.000919777
0.00092893
0.000937843
0.000946442
0.000954679
0.000962517
0.000969929
0.000976888
0.000983373
0.000989373
0.000994886
0.000999908
0.00100444
0.00100848
0.00101202
0.00101508
0.00101764
0.0010197
0.00102128
0.00102236
0.0010229
0.00102306
0.00102277
0.00102198
0.00102073
0.00101904
0.00101692
0.00101438
0.00101144
0.0010081
0.00100438
0.0010003
0.000995867
0.000991098
0.000986009
0.000980613
0.000974926
0.000968963
0.00096274
0.000956272
0.000949574
0.000942661
0.000935549
0.000928252
0.000920784
0.000913159
0.000905389
0.000897487
0.000889463
0.000881327
0.000873088
0.000864753
0.000856332
0.000847838
0.000839287
0.000830694
0.000822074
0.000813437
0.000804792
0.000796147
0.00078751
0.000778887
0.000770286
0.000761712
0.000753173
0.000744674
0.000736219
0.000727816
0.000719469
0.000711182
0.000702961
0.000694807
0.000686726
0.000678719
0.00067079
0.000662942
0.000655176
0.000647494
0.0006399
0.000632393
0.000624977
0.000617653
0.00061042
0.00060328
0.000596232
0.000589278
0.000582419
0.000575653
0.000568983
0.000562407
0.000555917
0.000549513
0.000543199
0.000536976
0.000530844
0.000524804
0.000518855
0.000512996
0.000507227
0.000501545
0.000495951
0.000490443
0.000485019
0.000479679
0.000474422
0.000469247
0.000464152
0.000459135
0.000454197
0.000449336
0.000444551
0.00043984
0.000435203
0.000430639
0.000426145
0.000421722
0.000417367
0.00041308
0.000408858
0.000404701
0.000400605
0.000396569
0.000392589
0.000388661
0.000384779
0.000380938
0.000377128
0.000373337
0.000369552
0.000365745
0.000361906
0.000357937
0.000353932
0.000349399
0.00034515
0.000338584
0.000326879
6.16313e-07
8.21632e-05
0.000213019
0.000308836
0.000372265
0.000409342
0.000424626
0.000424841
0.000414744
0.000401419
0.000393591
0.000393028
0.000402631
0.000420128
0.00044312
0.000471104
0.000504664
0.000544073
0.000588497
0.000652313
0.000726424
0.000806389
0.000890256
0.000960513
0.00102267
0.00107857
0.00112878
0.00117349
0.00121257
0.0012463
0.00127541
0.00130065
0.00132269
0.00134218
0.00135968
0.00137568
0.00139058
0.00140474
0.00141839
0.00143174
0.00144491
0.00145796
0.00147091
0.00148377
0.00149646
0.00150891
0.00152104
0.00153274
0.00154393
0.00155452
0.00156447
0.00157374
0.00158231
0.00159017
0.0015973
0.00160371
0.00160938
0.00161431
0.00161851
0.00162197
0.00162469
0.00162666
0.00162782
0.00162825
0.00162813
0.00162721
0.00162558
0.00162326
0.00162026
0.0016166
0.0016123
0.00160738
0.00160186
0.00159575
0.00158909
0.0015819
0.00157419
0.00156599
0.00155732
0.00154821
0.00153868
0.00152875
0.00151844
0.00150778
0.0014968
0.0014855
0.00147393
0.00146209
0.00145001
0.00143771
0.00142521
0.00141253
0.00139968
0.00138668
0.00137354
0.00136029
0.00134694
0.00133351
0.00132002
0.00130649
0.00129293
0.00127935
0.00126578
0.00125222
0.00123869
0.00122518
0.00121173
0.00119833
0.00118499
0.00117172
0.00115853
0.00114543
0.00113243
0.00111952
0.00110672
0.00109404
0.00108147
0.00106902
0.00105669
0.0010445
0.00103243
0.0010205
0.00100871
0.000997053
0.00098554
0.00097417
0.000962943
0.00095186
0.000940922
0.000930131
0.000919487
0.000908988
0.000898632
0.000888416
0.000878338
0.000868399
0.000858602
0.000848945
0.00083943
0.000830055
0.00082082
0.000811722
0.00080276
0.000793933
0.000785239
0.000776676
0.000768243
0.000759938
0.000751758
0.000743703
0.000735769
0.000727957
0.000720263
0.000712685
0.000705223
0.000697873
0.000690635
0.000683506
0.000676484
0.000669566
0.000662752
0.000656037
0.000649419
0.000642895
0.00063646
0.00063011
0.000623839
0.000617638
0.000611499
0.000605409
0.000599351
0.000593306
0.000587241
0.000581123
0.000574878
0.00056848
0.00056165
0.000554651
0.000546191
0.00052994
1.39969e-06
0.000101868
0.000234934
0.000354662
0.000433283
0.000480498
0.000503927
0.000512329
0.000513964
0.000515192
0.000522451
0.00053903
0.000565504
0.000600879
0.000644391
0.000696079
0.000756753
0.000840659
0.00093674
0.00103249
0.00112125
0.00120542
0.00128449
0.00135693
0.00142347
0.00148468
0.00154096
0.00159266
0.00164011
0.00168376
0.00172409
0.00176157
0.00179664
0.00182967
0.00186096
0.00189077
0.00191929
0.00194666
0.00197296
0.00199828
0.00202263
0.00204602
0.00206846
0.00208992
0.00211037
0.0021298
0.00214816
0.00216544
0.00218159
0.00219661
0.00221048
0.0022232
0.00223479
0.00224526
0.00225463
0.00226291
0.00227012
0.00227628
0.00228141
0.00228551
0.0022886
0.00229065
0.00229156
0.00229165
0.00229077
0.00228889
0.00228605
0.00228228
0.00227758
0.002272
0.00226555
0.00225826
0.00225016
0.00224128
0.00223164
0.00222129
0.00221024
0.00219854
0.0021862
0.00217327
0.00215977
0.00214573
0.0021312
0.00211618
0.00210073
0.00208486
0.00206862
0.00205202
0.00203509
0.00201788
0.00200039
0.00198267
0.00196472
0.00194658
0.00192827
0.00190982
0.00189124
0.00187256
0.0018538
0.00183499
0.00181614
0.00179729
0.00177843
0.00175959
0.00174079
0.00172204
0.00170336
0.00168475
0.00166623
0.0016478
0.0016295
0.00161131
0.00159325
0.00157533
0.00155756
0.00153994
0.00152248
0.00150519
0.00148807
0.00147113
0.00145437
0.00143779
0.0014214
0.0014052
0.00138919
0.00137338
0.00135777
0.00134235
0.00132713
0.00131211
0.00129729
0.00128267
0.00126825
0.00125402
0.00123998
0.00122613
0.00121248
0.00119902
0.00118575
0.00117267
0.00115978
0.00114708
0.00113456
0.00112223
0.00111008
0.00109811
0.00108631
0.00107469
0.00106324
0.00105196
0.00104084
0.00102989
0.00101909
0.00100846
0.000997979
0.000987654
0.000977478
0.00096745
0.000957567
0.000947825
0.000938222
0.000928754
0.000919417
0.000910206
0.000901118
0.000892144
0.000883279
0.000874513
0.000865833
0.000857226
0.000848672
0.000840146
0.000831614
0.000823033
0.000814333
0.000805453
0.000796188
0.000786575
0.000776407
0.000756634
2.32594e-06
0.000118227
0.000256262
0.000389872
0.000486685
0.000548385
0.000586134
0.000609624
0.000627562
0.000647204
0.000673751
0.000709793
0.000756029
0.000812727
0.000880437
0.000971363
0.00107677
0.00117842
0.00127751
0.00137278
0.00146325
0.00154903
0.00163006
0.00170631
0.00177809
0.00184574
0.00190961
0.00197002
0.00202732
0.00208182
0.00213386
0.00218371
0.00223163
0.00227782
0.00232244
0.00236561
0.00240743
0.00244793
0.00248716
0.00252513
0.00256182
0.00259722
0.0026313
0.00266402
0.00269535
0.00272524
0.00275366
0.00278056
0.00280591
0.00282968
0.00285183
0.00287235
0.00289121
0.00290841
0.00292395
0.00293781
0.00295001
0.00296055
0.00296944
0.00297671
0.00298236
0.00298644
0.00298887
0.00298977
0.0029893
0.00298733
0.00298399
0.00297928
0.00297327
0.00296602
0.00295757
0.00294797
0.00293729
0.00292556
0.00291283
0.00289916
0.0028846
0.00286918
0.00285295
0.00283596
0.00281824
0.00279985
0.00278081
0.00276117
0.00274098
0.00272027
0.00269908
0.00267745
0.00265542
0.00263301
0.00261028
0.00258725
0.00256395
0.00254042
0.00251669
0.00249278
0.00246872
0.00244455
0.00242029
0.00239596
0.0023716
0.00234723
0.00232287
0.00229853
0.00227425
0.00225003
0.0022259
0.00220187
0.00217796
0.00215418
0.00213054
0.00210706
0.00208375
0.00206062
0.00203768
0.00201493
0.00199239
0.00197006
0.00194795
0.00192607
0.00190442
0.001883
0.00186182
0.00184089
0.0018202
0.00179976
0.00177956
0.00175962
0.00173994
0.0017205
0.00170132
0.00168239
0.00166371
0.00164528
0.00162709
0.00160915
0.00159145
0.00157399
0.00155678
0.00153981
0.00152308
0.00150659
0.00149033
0.0014743
0.0014585
0.00144293
0.00142758
0.00141244
0.00139752
0.00138282
0.00136832
0.00135403
0.00133994
0.00132605
0.00131236
0.00129886
0.00128555
0.00127242
0.00125947
0.00124671
0.00123411
0.00122169
0.00120943
0.00119734
0.0011854
0.0011736
0.00116194
0.00115042
0.001139
0.00112769
0.00111646
0.00110527
0.0010941
0.0010829
0.0010716
0.00106014
0.00104832
0.00103616
0.00102388
0.00100144
2.79452e-06
0.000126787
0.000269168
0.000407468
0.000526047
0.000607442
0.000663615
0.000705724
0.000743016
0.000782731
0.000829887
0.000887388
0.000956959
0.00104972
0.00115701
0.00126365
0.00136972
0.00147297
0.00157288
0.00166905
0.00176126
0.00184951
0.0019339
0.00201459
0.00209183
0.00216588
0.00223703
0.00230555
0.00237168
0.00243566
0.00249771
0.00255799
0.00261666
0.00267383
0.00272959
0.00278399
0.00283707
0.00288883
0.00293928
0.00298839
0.00303613
0.00308247
0.00312736
0.00317075
0.00321259
0.00325283
0.00329141
0.00332829
0.0033634
0.00339671
0.00342818
0.00345775
0.0034854
0.0035111
0.00353482
0.00355654
0.00357625
0.00359393
0.00360959
0.00362321
0.00363481
0.00364439
0.00365197
0.00365758
0.00366124
0.00366285
0.00366277
0.00366078
0.003657
0.00365149
0.00364428
0.00363543
0.00362502
0.00361308
0.0035997
0.00358493
0.00356884
0.00355149
0.00353296
0.00351331
0.00349261
0.00347092
0.00344831
0.00342485
0.0034006
0.00337562
0.00334997
0.00332372
0.00329691
0.0032696
0.00324185
0.00321369
0.00318519
0.00315637
0.00312729
0.00309798
0.00306848
0.00303883
0.00300906
0.00297921
0.00294931
0.00291939
0.00288948
0.0028596
0.00282978
0.00280004
0.0027704
0.00274088
0.00271151
0.00268229
0.00265324
0.00262439
0.00259574
0.00256731
0.0025391
0.00251114
0.00248342
0.00245596
0.00242876
0.00240184
0.0023752
0.00234884
0.00232277
0.00229699
0.00227151
0.00224632
0.00222144
0.00219686
0.00217259
0.00214862
0.00212495
0.00210159
0.00207853
0.00205577
0.0020333
0.00201113
0.00198926
0.00196768
0.00194639
0.00192539
0.00190468
0.00188426
0.00186411
0.00184424
0.00182465
0.00180533
0.00178627
0.00176748
0.00174894
0.00173066
0.00171263
0.00169485
0.00167731
0.00166002
0.00164295
0.00162612
0.00160951
0.00159313
0.00157697
0.00156102
0.00154528
0.00152975
0.00151442
0.00149928
0.00148433
0.00146956
0.00145497
0.00144053
0.00142624
0.00141207
0.00139802
0.00138404
0.0013701
0.00135616
0.00134214
0.00132798
0.0013135
0.00129877
0.00128372
0.00125949
2.93952e-06
0.000128667
0.000270494
0.000406978
0.000537578
0.000641154
0.000718458
0.000780052
0.000836116
0.000894365
0.000962812
0.00105544
0.00116561
0.00128714
0.00140265
0.00151385
0.00162158
0.00172604
0.00182715
0.00192486
0.0020192
0.00211025
0.00219815
0.00228311
0.00236533
0.00244504
0.00252247
0.00259782
0.00267129
0.00274305
0.00281324
0.00288197
0.00294934
0.0030154
0.00308021
0.00314378
0.00320611
0.00326719
0.00332698
0.00338545
0.00344254
0.00349821
0.00355239
0.00360502
0.00365603
0.00370537
0.00375296
0.00379874
0.00384265
0.00388463
0.00392463
0.00396259
0.00399847
0.00403222
0.00406382
0.00409321
0.00412039
0.00414532
0.00416799
0.00418839
0.00420651
0.00422236
0.00423595
0.00424727
0.00425636
0.00426323
0.00426795
0.00427041
0.00427084
0.0042692
0.00426553
0.00425988
0.00425232
0.00424289
0.00423166
0.00421868
0.00420403
0.00418778
0.00416998
0.00415071
0.00413005
0.00410805
0.00408481
0.00406038
0.00403484
0.00400826
0.00398071
0.00395227
0.003923
0.00389297
0.00386224
0.00383088
0.00379895
0.00376651
0.00373361
0.00370031
0.00366667
0.00363274
0.00359856
0.00356419
0.00352966
0.00349503
0.00346032
0.00342559
0.00339086
0.00335616
0.00332154
0.003287
0.00325259
0.00321832
0.00318422
0.00315031
0.00311661
0.00308313
0.00304989
0.00301692
0.00298421
0.00295178
0.00291965
0.00288782
0.0028563
0.00282509
0.00279422
0.00276367
0.00273346
0.00270358
0.00267405
0.00264487
0.00261603
0.00258754
0.0025594
0.0025316
0.00250416
0.00247705
0.00245029
0.00242388
0.0023978
0.00237206
0.00234665
0.00232159
0.00229685
0.00227244
0.00224835
0.00222459
0.00220114
0.00217801
0.00215519
0.00213267
0.00211045
0.00208853
0.0020669
0.00204555
0.00202449
0.00200371
0.0019832
0.00196297
0.00194299
0.00192328
0.00190383
0.00188462
0.00186566
0.00184695
0.00182847
0.00181022
0.00179219
0.00177438
0.00175677
0.00173935
0.00172211
0.00170503
0.00168808
0.00167124
0.00165447
0.00163772
0.00162091
0.00160399
0.0015868
0.00156941
0.00155146
0.00152533
2.75533e-06
0.000125159
0.0002638
0.000395332
0.000519864
0.000632139
0.000726077
0.000807569
0.000891501
0.000987437
0.00109726
0.00122239
0.00135888
0.00148629
0.0016065
0.00172143
0.00183204
0.00193869
0.00204171
0.00214146
0.00223815
0.00233199
0.00242318
0.00251192
0.00259842
0.00268289
0.00276552
0.00284648
0.00292592
0.00300397
0.00308073
0.0031563
0.00323071
0.00330401
0.00337621
0.0034473
0.00351725
0.00358604
0.00365361
0.0037199
0.00378486
0.00384841
0.00391047
0.00397097
0.00402983
0.00408698
0.00414232
0.0041958
0.00424734
0.00429686
0.00434431
0.00438962
0.00443273
0.0044736
0.00451218
0.00454842
0.0045823
0.00461377
0.00464284
0.00466946
0.00469364
0.00471536
0.00473464
0.00475147
0.00476588
0.00477787
0.00478747
0.00479471
0.00479964
0.00480221
0.00480259
0.00480078
0.00479681
0.00479075
0.00478265
0.00477257
0.00476057
0.00474671
0.00473107
0.00471372
0.00469471
0.00467412
0.00465203
0.00462851
0.00460362
0.00457745
0.00455006
0.00452154
0.00449194
0.00446135
0.00442983
0.00439744
0.00436427
0.00433036
0.0042958
0.00426063
0.00422492
0.00418874
0.00415213
0.00411516
0.00407788
0.00404034
0.00400259
0.00396467
0.00392663
0.00388852
0.00385036
0.0038122
0.00377407
0.00373601
0.00369805
0.00366021
0.00362252
0.00358501
0.0035477
0.00351061
0.00347376
0.00343716
0.00340084
0.00336481
0.00332908
0.00329366
0.00325856
0.0032238
0.00318938
0.00315531
0.00312159
0.00308823
0.00305524
0.00302261
0.00299035
0.00295847
0.00292695
0.00289581
0.00286504
0.00283464
0.00280461
0.00277494
0.00274565
0.00271672
0.00268816
0.00265995
0.00263211
0.00260461
0.00257747
0.00255068
0.00252423
0.00249812
0.00247235
0.0024469
0.00242179
0.00239699
0.00237251
0.00234835
0.00232449
0.00230094
0.00227768
0.00225472
0.00223206
0.00220967
0.00218757
0.00216574
0.00214418
0.00212289
0.00210185
0.00208105
0.00206049
0.00204015
0.00202002
0.00200007
0.00198029
0.00196064
0.00194108
0.00192156
0.00190202
0.00188237
0.00186249
0.00184243
0.00182169
0.00179336
2.33907e-06
0.000117868
0.000252633
0.000380646
0.000503522
0.000620026
0.000731018
0.000840506
0.000955914
0.00108229
0.00122078
0.00137084
0.00151305
0.00164492
0.00176908
0.00188741
0.00200103
0.00211057
0.00221643
0.0023188
0.00241809
0.00251468
0.00260887
0.00270093
0.00279106
0.00287949
0.0029664
0.00305193
0.00313623
0.00321939
0.00330152
0.00338265
0.00346284
0.00354208
0.00362038
0.0036977
0.00377401
0.00384925
0.00392336
0.00399626
0.00406787
0.00413812
0.0042069
0.00427413
0.00433973
0.00440359
0.00446562
0.00452575
0.00458389
0.00463996
0.00469389
0.0047456
0.00479503
0.00484212
0.00488682
0.00492909
0.00496887
0.00500614
0.00504088
0.00507305
0.00510264
0.00512965
0.00515407
0.0051759
0.00519517
0.00521187
0.00522604
0.00523769
0.00524687
0.00525359
0.00525791
0.00525984
0.0052595
0.0052569
0.00525208
0.00524512
0.00523606
0.00522498
0.00521194
0.00519701
0.00518025
0.00516173
0.00514153
0.00511971
0.00509635
0.00507153
0.0050453
0.00501776
0.00498897
0.00495899
0.00492791
0.00489579
0.0048627
0.0048287
0.00479387
0.00475827
0.00472197
0.00468502
0.00464749
0.00460944
0.00457092
0.004532
0.00449272
0.00445314
0.00441331
0.00437327
0.00433307
0.00429275
0.00425235
0.00421191
0.00417147
0.00413105
0.00409071
0.00405046
0.00401033
0.00397035
0.00393054
0.00389093
0.00385154
0.00381239
0.00377349
0.00373486
0.00369653
0.00365849
0.00362077
0.00358337
0.00354631
0.00350959
0.00347322
0.00343721
0.00340156
0.00336628
0.00333136
0.00329682
0.00326266
0.00322887
0.00319546
0.00316242
0.00312976
0.00309748
0.00306558
0.00303406
0.0030029
0.00297212
0.00294171
0.00291166
0.00288198
0.00285266
0.00282369
0.00279508
0.00276681
0.00273889
0.00271131
0.00268407
0.00265716
0.00263058
0.00260433
0.00257839
0.00255277
0.00252747
0.00250246
0.00247777
0.00245336
0.00242925
0.00240541
0.00238185
0.00235855
0.00233549
0.00231267
0.00229006
0.00226764
0.00224537
0.00222321
0.00220111
0.002179
0.00215681
0.00213441
0.00211184
0.00208855
0.00205789
1.92445e-06
0.000110212
0.000242403
0.000369697
0.000495432
0.000619935
0.000745123
0.000874874
0.00101264
0.00116036
0.00131819
0.00147982
0.00162745
0.00176377
0.00189176
0.00201342
0.00213002
0.00224236
0.00235099
0.0024563
0.00255859
0.00265805
0.00275512
0.00285016
0.00294346
0.00303525
0.00312572
0.00321505
0.00330336
0.00339076
0.00347731
0.00356306
0.00364804
0.00373224
0.00381564
0.0038982
0.00397986
0.00406057
0.00414023
0.00421876
0.00429607
0.00437206
0.00444662
0.00451966
0.00459106
0.00466074
0.00472858
0.00479449
0.00485838
0.00492016
0.00497974
0.00503706
0.00509203
0.00514459
0.00519469
0.00524227
0.00528728
0.00532969
0.00536947
0.00540658
0.00544102
0.00547276
0.00550181
0.00552817
0.00555185
0.00557285
0.0055912
0.00560692
0.00562005
0.0056306
0.00563863
0.00564418
0.00564729
0.00564801
0.00564641
0.00564253
0.00563644
0.0056282
0.00561786
0.0056055
0.00559117
0.00557496
0.00555693
0.00553715
0.0055157
0.00549264
0.00546805
0.00544201
0.00541457
0.00538582
0.00535583
0.00532466
0.00529239
0.00525908
0.00522479
0.0051896
0.00515358
0.00511678
0.00507926
0.0050411
0.00500234
0.00496306
0.00492329
0.00488311
0.00484255
0.00480166
0.00476051
0.00471912
0.00467755
0.00463584
0.00459403
0.00455215
0.00451025
0.00446835
0.00442649
0.0043847
0.00434301
0.00430144
0.00426002
0.00421877
0.00417772
0.00413689
0.00409629
0.00405593
0.00401585
0.00397605
0.00393654
0.00389734
0.00385846
0.0038199
0.00378168
0.0037438
0.00370627
0.00366909
0.00363227
0.00359582
0.00355973
0.003524
0.00348865
0.00345367
0.00341906
0.00338482
0.00335096
0.00331747
0.00328434
0.00325159
0.00321921
0.00318719
0.00315554
0.00312424
0.0030933
0.00306272
0.00303249
0.00300261
0.00297308
0.00294389
0.00291504
0.00288652
0.00285833
0.00283047
0.00280294
0.00277572
0.00274882
0.00272222
0.00269592
0.00266992
0.00264419
0.00261873
0.00259353
0.00256855
0.00254378
0.00251917
0.0024947
0.00247031
0.00244593
0.00242148
0.00239687
0.00237207
0.00234657
0.00231376
1.53455e-06
0.000102067
0.000231949
0.000358925
0.000487634
0.000619017
0.000755736
0.000899708
0.0010526
0.00121494
0.00138722
0.001553
0.00170461
0.00184479
0.00197628
0.00210106
0.00222046
0.00233542
0.00244659
0.00255448
0.00265947
0.00276185
0.00286191
0.00295983
0.00305603
0.00315081
0.0032444
0.003337
0.00342873
0.00351972
0.00361003
0.0036997
0.00378875
0.00387717
0.00396492
0.00405196
0.00413821
0.00422361
0.00430804
0.00439143
0.00447365
0.0045546
0.00463416
0.00471223
0.00478869
0.00486342
0.00493632
0.00500727
0.00507619
0.00514297
0.00520752
0.00526976
0.00532961
0.00538699
0.00544186
0.00549414
0.0055438
0.00559078
0.00563506
0.0056766
0.00571538
0.0057514
0.00578464
0.0058151
0.00584279
0.00586773
0.00588993
0.00590941
0.0059262
0.00594033
0.00595185
0.00596079
0.0059672
0.00597112
0.00597261
0.00597174
0.00596858
0.00596315
0.00595553
0.00594578
0.00593397
0.00592018
0.00590446
0.00588688
0.00586753
0.00584648
0.00582379
0.00579953
0.00577379
0.00574662
0.00571811
0.00568831
0.0056573
0.00562514
0.00559191
0.00555767
0.00552248
0.00548641
0.00544952
0.00541188
0.00537355
0.00533457
0.00529502
0.00525495
0.0052144
0.00517343
0.00513209
0.00509043
0.00504849
0.00500631
0.00496395
0.00492143