/*--------------------------------*- C++ -*----------------------------------*\
  =========                 |
  \\      /  F ield         | OpenFOAM: The Open Source CFD Toolbox
   \\    /   O peration     | Website:  https://openfoam.org
    \\  /    A nd           | Version:  8
     \\/     M anipulation  |
\*---------------------------------------------------------------------------*/
FoamFile
{
    version     2.0;
    format      ascii;
    class       volScalarField;
    location    "3000";
    object      p;
}
// * * * * * * * * * * * * * * * * * * * * * * * * * * * * * * * * * * * * * //

dimensions      [0 2 -2 0 0 0 0];

internalField   nonuniform List<scalar> 
12225
(
514.675
55.5274
2.36311
0.280995
-1.89947
-3.37502
-3.81226
-4.02266
-4.23241
-4.3693
-4.41645
-4.42606
-4.42904
-4.45699
-4.51036
-4.57679
-4.72214
-4.94465
-122.18
0.238198
-2.71911
-0.7658
-2.21717
-3.52561
-3.95333
-4.13743
-4.28111
-4.3851
-4.46002
-4.51833
-4.56926
-4.60162
-4.62254
-4.64806
-4.71466
-4.80864
-200.646
-16.1491
-2.34713
-0.359023
-1.90151
-3.24549
-3.77289
-4.02313
-4.19582
-4.32007
-4.41275
-4.47995
-4.52857
-4.55378
-4.56882
-4.58435
-4.61621
-4.59936
-110.617
-10.9748
-2.17784
-0.43273
-1.78844
-3.02951
-3.602
-3.90918
-4.11844
-4.26424
-4.36661
-4.43728
-4.48598
-4.51455
-4.53187
-4.53968
-4.53862
-4.46992
-61.5735
-8.14656
-3.62329
-1.21073
-2.01595
-2.99907
-3.52995
-3.84972
-4.07223
-4.2269
-4.33453
-4.40917
-4.46053
-4.49163
-4.50689
-4.50426
-4.47805
-4.38789
-45.7315
-8.786
-5.25951
-2.20108
-2.4307
-3.10185
-3.53731
-3.83428
-4.05026
-4.20408
-4.31313
-4.38985
-4.44228
-4.47319
-4.48473
-4.47397
-4.43388
-4.33932
-35.7954
-9.27725
-6.3813
-3.12552
-2.92272
-3.29081
-3.60472
-3.85561
-4.05103
-4.19621
-4.30219
-4.37797
-4.42957
-4.4593
-4.46821
-4.4536
-4.40961
-4.32254
-27.7788
-8.90803
-6.97476
-3.80378
-3.36279
-3.49964
-3.7017
-3.90119
-4.07054
-4.20281
-4.30257
-4.37531
-4.42522
-4.45405
-4.46237
-4.44806
-4.40707
-4.33233
-21.6909
-8.52099
-7.13547
-4.31165
-3.7301
-3.70725
-3.81753
-3.96589
-4.10619
-4.22246
-4.31352
-4.38158
-4.42903
-4.45697
-4.46566
-4.45369
-4.41868
-4.35769
-16.6136
-8.14167
-7.08913
-4.75654
-4.0844
-3.93562
-3.96049
-4.05394
-4.16031
-4.25651
-4.33597
-4.39757
-4.4418
-4.46897
-4.47915
-4.47166
-4.44573
-4.40124
-12.6399
-7.68187
-6.90715
-5.10285
-4.40803
-4.1716
-4.1232
-4.16275
-4.23295
-4.30631
-4.3719
-4.42562
-4.46612
-4.49292
-4.50592
-4.50507
-4.4908
-4.46462
-9.70002
-7.14979
-6.63026
-5.32769
-4.6799
-4.39841
-4.29573
-4.28801
-4.32319
-4.37285
-4.42337
-4.46839
-4.50504
-4.5321
-4.54927
-4.55686
-4.55596
-4.54867
-7.66708
-6.60575
-6.30704
-5.43267
-4.88435
-4.59856
-4.46494
-4.42179
-4.42707
-4.45485
-4.49084
-4.52743
-4.56074
-4.58893
-4.61144
-4.62864
-4.64171
-4.65262
-6.372
-6.11409
-5.98677
-5.44142
-5.017
-4.75883
-4.61739
-4.55373
-4.53773
-4.54832
-4.57239
-4.60223
-4.63348
-4.66391
-4.69268
-4.71991
-4.7465
-4.77386
-5.62376
-5.72344
-5.71009
-5.39193
-5.08701
-4.8741
-4.74288
-4.67333
-4.64633
-4.64653
-4.66318
-4.68928
-4.72055
-4.75457
-4.79021
-4.82725
-4.86605
-4.90739
-5.24446
-5.46126
-5.50918
-5.32863
-5.1161
-4.94904
-4.83675
-4.77176
-4.74308
-4.74022
-4.75489
-4.78116
-4.8151
-4.85424
-4.89722
-4.94341
-4.9927
-5.04526
-5.10323
-5.34536
-5.41803
-5.30003
-5.136
-4.99687
-4.89921
-4.84131
-4.81619
-4.816
-4.83384
-4.86443
-4.90401
-4.95006
-5.00095
-5.05574
-5.11391
-5.17523
-5.14097
-5.40117
-5.47527
-5.34911
-5.17529
-5.02954
-4.92927
-4.87205
-4.85012
-4.85496
-4.87914
-4.91697
-4.96433
-5.0184
-5.07731
-5.13982
-5.2052
-5.27301
-5.39326
-5.65562
-5.69131
-5.47617
-5.22694
-5.03655
-4.91542
-4.85233
-4.83326
-4.84553
-4.87916
-4.92699
-4.98411
-5.0473
-5.11446
-5.18423
-5.25584
-5.32885
-6.00266
-6.13746
-6.04321
-5.63569
-5.24769
-4.9879
-4.84136
-4.7764
-4.76686
-4.7932
-4.84175
-4.90357
-4.97308
-5.04688
-5.1229
-5.19997
-5.27742
-5.35505
-7.25028
-6.8901
-6.49477
-5.76245
-5.18367
-4.85354
-4.69691
-4.64674
-4.66064
-4.71113
-4.78133
-4.8613
-4.94557
-5.03106
-5.11626
-5.20044
-5.28332
-5.36504
-9.64179
-7.96518
-6.9832
-5.77248
-4.98015
-4.61275
-4.48252
-4.47428
-4.5291
-4.6144
-4.7121
-4.81319
-4.91319
-5.01036
-5.10418
-5.1947
-5.28223
-5.36726
-13.983
-9.39166
-7.40378
-5.57015
-4.59537
-4.26482
-4.21568
-4.28031
-4.39244
-4.51988
-4.64793
-4.77034
-4.88528
-4.99259
-5.09337
-5.18882
-5.27972
-5.36707
-20.8906
-10.9546
-7.5548
-5.05787
-4.0165
-3.83649
-3.93063
-4.09478
-4.27289
-4.44371
-4.6002
-4.74137
-4.86823
-4.98283
-5.08803
-5.18636
-5.27909
-5.36739
-29.7372
-11.95
-7.03415
-4.12676
-3.26471
-3.37865
-3.67175
-3.94754
-4.18988
-4.39789
-4.57645
-4.7306
-4.86499
-4.98311
-5.08989
-5.18908
-5.28198
-5.36986
-43.1071
-12.6146
-5.47343
-2.72961
-2.41393
-2.96413
-3.48499
-3.86314
-4.15443
-4.38675
-4.57849
-4.73855
-4.87477
-4.9918
-5.09723
-5.19599
-5.28788
-5.37468
-84.6001
-17.3741
-3.66474
-1.2661
-1.6967
-2.72253
-3.43692
-3.87072
-4.17431
-4.41145
-4.60757
-4.76855
-4.90043
-5.00812
-5.10618
-5.20306
-5.29273
-5.37762
-177.886
-26.8502
-3.6808
-0.770879
-1.53578
-2.84377
-3.61483
-4.01603
-4.27193
-4.46804
-4.65196
-4.81666
-4.95377
-5.04923
-5.13386
-5.22531
-5.30406
-5.3812
-154.791
-9.62792
-3.27304
-1.06896
-1.84379
-3.22158
-3.91443
-4.2258
-4.41838
-4.5599
-4.70324
-4.85478
-5.00794
-5.11926
-5.20661
-5.30287
-5.37626
-5.44176
428.057
66.6049
7.05531
1.59875
-0.916287
-2.85763
-3.65371
-3.99548
-4.31114
-4.57802
-4.70821
-4.75707
-4.80106
-4.90961
-5.03931
-5.13219
-5.23795
-5.34209
-8.52606
-8.51323
-8.50259
-8.54397
-8.637
-8.7407
-8.82063
-8.86064
-8.86429
-8.84663
-8.81921
-8.79064
-8.76897
-8.76016
-8.76517
-8.7778
-8.78902
-8.79415
-8.79338
-8.79131
-8.79581
-8.82851
-8.91874
-9.09009
-9.34311
-9.66088
-10.032
-10.4458
-10.8868
-11.3389
-11.7868
-12.2188
-12.6255
-13.0004
-13.339
-13.639
-13.8993
-14.12
-14.3018
-14.4456
-14.5528
-14.6246
-14.6625
-14.6678
-14.6418
-14.5859
-14.5017
-14.3916
-14.2566
-14.0948
-13.9033
-13.6837
-13.4385
-13.1695
-12.8779
-12.5648
-12.2313
-11.8784
-11.5071
-11.1184
-10.7135
-10.2935
-9.85937
-9.41243
-8.95381
-8.48471
-8.00632
-7.51983
-7.02646
-6.52736
-6.02372
-5.51668
-5.00733
-4.49678
-3.98605
-3.47616
-2.96805
-2.46264
-1.9608
-1.46332
-0.970972
-0.484449
-0.00439912
0.468585
0.933968
1.39127
1.84006
2.27997
2.71068
3.13193
3.54353
3.94529
4.33704
4.71875
5.09068
5.45281
5.8047
6.14595
6.47655
6.79673
7.10673
7.40676
7.69701
7.97764
8.24886
8.51086
8.76384
9.00804
9.24366
9.47091
9.69002
9.90124
10.1048
10.301
10.49
10.672
10.8474
11.0164
11.1791
11.3359
11.4869
11.6324
11.7725
11.9076
12.0377
12.1632
12.2841
12.4007
12.5131
12.6215
12.7261
12.8272
12.9252
13.0199
13.1113
13.1996
13.2849
13.3674
13.4472
13.5243
13.599
13.6714
13.7414
13.8093
13.8751
13.9388
14.0007
14.0606
14.1188
14.1752
14.23
14.2831
14.3346
14.3846
14.4331
14.4801
14.5257
14.5699
14.6126
14.6541
14.6941
14.7329
14.7703
14.8065
14.8413
14.8749
14.9073
14.9386
14.9687
14.9979
15.0262
15.054
15.0814
15.1091
15.1378
15.1686
15.204
15.2456
15.3036
15.364
-8.58351
-8.61477
-8.68872
-8.78232
-8.88579
-8.97799
-9.03924
-9.06363
-9.04657
-8.98612
-8.89636
-8.79954
-8.71792
-8.66664
-8.64458
-8.64138
-8.65094
-8.67637
-8.71166
-8.7319
-8.75624
-8.8342
-8.99395
-9.23352
-9.5404
-9.91138
-10.3371
-10.7973
-11.2702
-11.738
-12.1881
-12.6113
-13.001
-13.3535
-13.6671
-13.9413
-14.1767
-14.3742
-14.535
-14.6603
-14.7512
-14.8089
-14.8344
-14.8284
-14.792
-14.7256
-14.6297
-14.5044
-14.3502
-14.1702
-13.9681
-13.7441
-13.4974
-13.2282
-12.9369
-12.6245
-12.2918
-11.9396
-11.5691
-11.1812
-10.777
-10.3576
-9.92405
-9.47764
-9.01948
-8.55074
-8.07262
-7.58634
-7.09308
-6.59403
-6.09034
-5.58316
-5.07361
-4.56276
-4.05167
-3.54132
-3.03269
-2.52669
-2.02417
-1.52596
-1.03281
-0.545429
-0.0644655
0.409482
0.875868
1.3342
1.78404
2.22499
2.6567
3.07888
3.49125
3.89357
4.28563
4.66732
5.03871
5.40003
5.75146
6.09304
6.42462
6.74609
7.05748
7.35893
7.65058
7.93261
8.2052
8.46854
8.72284
8.96831
9.20519
9.43371
9.6541
9.86656
10.0714
10.2687
10.4589
10.6421
10.8187
10.9887
11.1525
11.3103
11.4624
11.6088
11.75
11.886
12.0172
12.1437
12.2657
12.3833
12.4968
12.6064
12.7121
12.8139
12.912
13.0068
13.0983
13.1868
13.2724
13.3551
13.4352
13.5126
13.5876
13.6603
13.7306
13.7988
13.8649
13.929
13.9911
14.0513
14.1098
14.1665
14.2215
14.2749
14.3266
14.3769
14.4256
14.4728
14.5186
14.563
14.606
14.6476
14.6878
14.7267
14.7643
14.8006
14.8357
14.8694
14.902
14.9333
14.9636
14.9929
15.0214
15.0492
15.0768
15.1046
15.1333
15.164
15.1988
15.2384
15.2921
15.3419
-8.71053
-8.79236
-8.91033
-9.01615
-9.09904
-9.15289
-9.17351
-9.1597
-9.11012
-9.02703
-8.9195
-8.80412
-8.70436
-8.63981
-8.61106
-8.60623
-8.62524
-8.68196
-8.78557
-8.93261
-9.12295
-9.3637
-9.65774
-9.99687
-10.3689
-10.7646
-11.1741
-11.5853
-11.9879
-12.3745
-12.7404
-13.0819
-13.3963
-13.6819
-13.9377
-14.1632
-14.3581
-14.5226
-14.6569
-14.7613
-14.8362
-14.882
-14.899
-14.8878
-14.8487
-14.7823
-14.6888
-14.5682
-14.4206
-14.2469
-14.0486
-13.8267
-13.5816
-13.314
-13.0245
-12.7139
-12.383
-12.0326
-11.6639
-11.2777
-10.875
-10.457
-10.0248
-9.57962
-9.12249
-8.65464
-8.17728
-7.6916
-7.19879
-6.70005
-6.19653
-5.68939
-5.17973
-4.66866
-4.15721
-3.64639
-3.13718
-2.63049
-2.12719
-1.6281
-1.13398
-0.645558
-0.163477
0.311656
0.779292
1.23894
1.69015
2.13254
2.56577
2.98955
3.40365
3.80786
4.20203
4.58608
4.95997
5.32372
5.67735
6.02088
6.35428
6.67755
6.99075
7.29401
7.58746
7.87128
8.14563
8.41072
8.66674
8.91392
9.15246
9.3826
9.60457
9.8186
10.0249
10.2238
10.4154
10.6
10.7779
10.9493
11.1144
11.2735
11.4268
11.5745
11.7168
11.8539
11.986
12.1134
12.2361
12.3545
12.4687
12.5789
12.6852
12.7877
12.8868
12.9826
13.0752
13.1647
13.2512
13.3348
13.4156
13.4939
13.5696
13.6429
13.714
13.7828
13.8494
13.9141
13.9767
14.0375
14.0964
14.1536
14.209
14.2628
14.315
14.3656
14.4147
14.4623
14.5084
14.5531
14.5964
14.6383
14.6788
14.718
14.7559
14.7924
14.8276
14.8616
14.8943
14.9259
14.9563
14.9858
15.0143
15.0422
15.0698
15.0975
15.126
15.1561
15.1896
15.2262
15.2736
15.3072
-8.74995
-8.84739
-8.94866
-9.03518
-9.09962
-9.13932
-9.15178
-9.13437
-9.08711
-9.015
-8.92927
-8.84671
-8.78551
-8.75853
-8.77065
-8.82395
-8.92233
-9.06944
-9.26588
-9.50664
-9.78291
-10.0875
-10.4144
-10.7572
-11.1106
-11.4693
-11.8281
-12.1818
-12.5256
-12.8557
-13.1686
-13.4617
-13.7328
-13.9803
-14.2029
-14.3996
-14.57
-14.7136
-14.8302
-14.9198
-14.9823
-15.0178
-15.0265
-15.0084
-14.9637
-14.8927
-14.7955
-14.6726
-14.5244
-14.3515
-14.1546
-13.9342
-13.6907
-13.4248
-13.1369
-12.828
-12.4988
-12.1501
-11.7828
-11.398
-10.9967
-10.5799
-10.1487
-9.70433
-9.2479
-8.7806
-8.30363
-7.81819
-7.32545
-6.82662
-6.32286
-5.81533
-5.30514
-4.79338
-4.28112
-3.76937
-3.25909
-2.75122
-2.24663
-1.74615
-1.25055
-0.760551
-0.276814
0.20005
0.669486
1.13099
1.58413
2.02849
2.46374
2.88959
3.3058
3.71217
4.10857
4.4949
4.87112
5.23718
5.59307
5.93877
6.27428
6.59963
6.91491
7.22023
7.51574
7.80159
8.07795
8.34501
8.60299
8.85208
9.0925
9.32448
9.54825
9.76402
9.97206
10.1726
10.3659
10.5521
10.7316
10.9045
11.0711
11.2316
11.3862
11.5352
11.6788
11.8171
11.9504
12.079
12.2029
12.3224
12.4377
12.5489
12.6562
12.7598
12.8599
12.9568
13.0503
13.1407
13.2281
13.3126
13.3943
13.4733
13.5498
13.6238
13.6955
13.765
13.8323
13.8975
13.9608
14.0221
14.0815
14.1392
14.1952
14.2494
14.302
14.3531
14.4026
14.4505
14.497
14.5421
14.5857
14.6279
14.6688
14.7082
14.7464
14.7831
14.8186
14.8528
14.8857
14.9175
14.948
14.9775
15.0061
15.034
15.0614
15.0888
15.1167
15.1456
15.1769
15.2094
15.2488
15.2674
-8.53808
-8.62299
-8.72309
-8.82018
-8.89754
-8.95026
-8.97735
-8.97962
-8.96155
-8.93143
-8.90135
-8.88528
-8.89602
-8.94315
-9.03285
-9.16825
-9.34947
-9.57193
-9.82719
-10.1072
-10.4065
-10.7208
-11.0458
-11.3765
-11.7086
-12.0383
-12.3622
-12.6772
-12.9805
-13.2698
-13.543
-13.7985
-14.0347
-14.2505
-14.4449
-14.617
-14.7661
-14.8917
-14.9932
-15.0704
-15.1229
-15.1505
-15.1531
-15.1305
-15.0827
-15.0098
-14.9118
-14.7889
-14.6413
-14.4694
-14.2737
-14.0546
-13.8125
-13.548
-13.2617
-12.9543
-12.6265
-12.2792
-11.9133
-11.5297
-11.1294
-10.7136
-10.2833
-9.83956
-9.38367
-8.91678
-8.44007
-7.95472
-7.46194
-6.96291
-6.45881
-5.95079
-5.43997
-4.92746
-4.41432
-3.90156
-3.39015
-2.88105
-2.37512
-1.87319
-1.37605
-0.884421
-0.39897
0.0796863
0.550989
1.01443
1.46957
1.91599
2.35336
2.78138
3.19981
3.60845
4.00713
4.39577
4.77429
5.14264
5.50079
5.84873
6.18647
6.51404
6.83155
7.13908
7.43679
7.72481
8.00333
8.27253
8.5326
8.78376
9.02623
9.26023
9.48598
9.7037
9.91364
10.116
10.3111
10.4991
10.6803
10.8549
11.0231
11.1852
11.3413
11.4918
11.6369
11.7767
11.9114
12.0413
12.1666
12.2874
12.4039
12.5163
12.6248
12.7296
12.8308
12.9286
13.0231
13.1145
13.2027
13.2881
13.3706
13.4505
13.5278
13.6026
13.675
13.7452
13.8132
13.8791
13.943
14.0049
14.065
14.1232
14.1797
14.2345
14.2876
14.3391
14.3891
14.4375
14.4844
14.5299
14.5739
14.6165
14.6576
14.6974
14.7359
14.7729
14.8087
14.8431
14.8762
14.9081
14.9388
14.9684
14.9969
15.0247
15.0518
15.0786
15.1055
15.1328
15.1614
15.1892
15.2208
15.2269
-8.11812
-8.20652
-8.32745
-8.45015
-8.55538
-8.6358
-8.69411
-8.73619
-8.76967
-8.80433
-8.85113
-8.92037
-9.02008
-9.15508
-9.32757
-9.53656
-9.77737
-10.0444
-10.3324
-10.6356
-10.9486
-11.2665
-11.5855
-11.902
-12.2133
-12.5172
-12.8118
-13.0956
-13.367
-13.6248
-13.8677
-14.0946
-14.3045
-14.4963
-14.6692
-14.8224
-14.955
-15.0664
-15.1559
-15.223
-15.2673
-15.2883
-15.2857
-15.2593
-15.2088
-15.134
-15.035
-14.9118
-14.7645
-14.5934
-14.3986
-14.1806
-13.9398
-13.6767
-13.3918
-13.0858
-12.7594
-12.4135
-12.0489
-11.6665
-11.2674
-10.8526
-10.4231
-9.98016
-9.52487
-9.05843
-8.58202
-8.09682
-7.60403
-7.10485
-6.60045
-6.09198
-5.58057
-5.06733
-4.55333
-4.03958
-3.52708
-3.01675
-2.50949
-2.00614
-1.50747
-1.01422
-0.527067
-0.0466233
0.426543
0.891922
1.34906
1.79755
2.23704
2.66724
3.08789
3.49878
3.89977
4.29071
4.67154
5.04219
5.40264
5.75286
6.09288
6.42274
6.74252
7.05233
7.3523
7.64258
7.92334
8.19476
8.45703
8.71036
8.95496
9.19104
9.41883
9.63857
9.85049
10.0548
10.2518
10.4417
10.6247
10.8011
10.9711
11.1349
11.2927
11.4448
11.5914
11.7328
11.869
12.0004
12.127
12.2492
12.3671
12.4808
12.5905
12.6965
12.7989
12.8978
12.9934
13.0857
13.175
13.2613
13.3448
13.4256
13.5038
13.5794
13.6527
13.7237
13.7924
13.8591
13.9236
13.9862
14.0469
14.1058
14.1629
14.2182
14.2719
14.324
14.3744
14.4234
14.4707
14.5166
14.5611
14.6041
14.6456
14.6858
14.7246
14.7619
14.798
14.8326
14.866
14.898
14.9288
14.9584
14.9868
15.0143
15.041
15.0671
15.0927
15.1181
15.1436
15.1666
15.1909
15.1863
-7.65311
-7.75179
-7.89385
-8.04264
-8.18058
-8.29921
-8.40211
-8.49861
-8.5981
-8.70951
-8.84047
-8.99585
-9.17842
-9.3886
-9.62471
-9.88463
-10.1654
-10.4623
-10.7701
-11.0838
-11.399
-11.7122
-12.0209
-12.3227
-12.6163
-12.9003
-13.1737
-13.4355
-13.6849
-13.9211
-14.1431
-14.3502
-14.5415
-14.7162
-14.8735
-15.0126
-15.1327
-15.233
-15.313
-15.372
-15.4094
-15.4247
-15.4174
-15.3872
-15.3339
-15.257
-15.1566
-15.0326
-14.8849
-14.7138
-14.5194
-14.3019
-14.0619
-13.7997
-13.5158
-13.2109
-12.8857
-12.541
-12.1775
-11.7964
-11.3984
-10.9847
-10.5563
-10.1143
-9.65981
-9.19411
-8.71831
-8.23362
-7.74122
-7.24229
-6.73801
-6.22953
-5.71798
-5.20446
-4.69005
-4.17575
-3.66257
-3.15145
-2.64326
-2.13886
-1.63903
-1.14451
-0.655974
-0.174048
0.300698
0.767748
1.22664
1.67697
2.11838
2.55056
2.97325
3.38624
3.78935
4.18247
4.56549
4.93835
5.301
5.65345
5.9957
6.3278
6.64984
6.9619
7.26413
7.55665
7.83964
8.11327
8.37773
8.63323
8.87998
9.11819
9.34809
9.5699
9.78386
9.9902
10.1892
10.381
10.5659
10.7441
10.9159
11.0815
11.2411
11.3949
11.5432
11.6861
11.8239
11.9568
12.0849
12.2085
12.3278
12.4429
12.554
12.6612
12.7648
12.8649
12.9616
13.0551
13.1455
13.2328
13.3173
13.3991
13.4782
13.5548
13.6289
13.7007
13.7703
13.8377
13.903
13.9664
14.0278
14.0873
14.145
14.201
14.2553
14.3079
14.3589
14.4084
14.4563
14.5027
14.5476
14.591
14.633
14.6735
14.7127
14.7504
14.7867
14.8216
14.8551
14.8873
14.9182
14.9478
14.9761
15.0033
15.0294
15.0545
15.0788
15.1019
15.1241
15.1422
15.16
15.1461
-7.29747
-7.39094
-7.54298
-7.7087
-7.87553
-8.03651
-8.19111
-8.34722
-8.51308
-8.6945
-8.89554
-9.11738
-9.35862
-9.61838
-9.89609
-10.1894
-10.4947
-10.8074
-11.1234
-11.4392
-11.7516
-12.0586
-12.3583
-12.6492
-12.9304
-13.201
-13.4603
-13.7077
-13.9426
-14.1644
-14.3724
-14.566
-14.7446
-14.9073
-15.0535
-15.1824
-15.2933
-15.3854
-15.4581
-15.5106
-15.5424
-15.553
-15.5417
-15.5082
-15.452
-15.373
-15.2708
-15.1454
-14.9968
-14.825
-14.6302
-14.4126
-14.1725
-13.9104
-13.6269
-13.3224
-12.9977
-12.6536
-12.2908
-11.9104
-11.5132
-11.1002
-10.6726
-10.2314
-9.77783
-9.31291
-8.83788
-8.35391
-7.86218
-7.36388
-6.86016
-6.35216
-5.84101
-5.3278
-4.8136
-4.29942
-3.78624
-3.27501
-2.7666
-2.26186
-1.76158
-1.26648
-0.777246
-0.294507
0.181167
0.649257
1.1093
1.56088
2.00365
2.43727
2.8615
3.27611
3.68091
4.07577
4.46058
4.83528
5.19981
5.55417
5.89838
6.23248
6.55653
6.87064
7.17492
7.46953
7.7546
8.03032
8.29688
8.55447
8.80329
9.04356
9.27551
9.49935
9.71532
9.92364
10.1246
10.3183
10.5051
10.6852
10.8588
11.0262
11.1875
11.3431
11.493
11.6376
11.777
11.9114
12.0411
12.1662
12.2869
12.4034
12.5158
12.6244
12.7293
12.8306
12.9285
13.0231
13.1146
13.2031
13.2886
13.3714
13.4515
13.529
13.6041
13.6768
13.7472
13.8154
13.8816
13.9457
14.0078
14.0681
14.1265
14.1831
14.238
14.2913
14.3429
14.3929
14.4413
14.4882
14.5336
14.5775
14.6199
14.6609
14.7004
14.7385
14.7751
14.8103
14.844
14.8763
14.9073
14.9368
14.9649
14.9917
15.0171
15.0412
15.0638
15.0847
15.1035
15.1169
15.1286
15.1067
-7.10715
-7.19326
-7.34737
-7.51973
-7.70313
-7.89543
-8.09322
-8.29849
-8.51579
-8.74757
-8.99411
-9.25539
-9.53134
-9.82157
-10.1242
-10.4359
-10.7532
-11.0726
-11.3911
-11.7061
-12.0154
-12.3174
-12.6107
-12.8943
-13.1675
-13.4295
-13.68
-13.9183
-14.144
-14.3567
-14.5558
-14.7408
-14.911
-15.0658
-15.2046
-15.3265
-15.431
-15.5173
-15.5846
-15.6324
-15.6599
-15.6667
-15.652
-15.6156
-15.5569
-15.4757
-15.3717
-15.2447
-15.0948
-14.9219
-14.7261
-14.5078
-14.2672
-14.0047
-13.7208
-13.4162
-13.0915
-12.7474
-12.3848
-12.0046
-11.6077
-11.1952
-10.7681
-10.3275
-9.87446
-9.4102
-8.93587
-8.45263
-7.96164
-7.46409
-6.96111
-6.45385
-5.94343
-5.43091
-4.91735
-4.40377
-3.89113
-3.38036
-2.87234
-2.36791
-1.86784
-1.37286
-0.883636
-0.400806
0.0750665
0.543465
1.00392
1.45603
1.89941
2.33377
2.75882
3.17435
3.58018
3.97615
4.36216
4.73813
5.10401
5.45978
5.80546
6.1411
6.46674
6.7825
7.08848
7.38481
7.67165
7.94916
8.21754
8.47695
8.72762
8.96975
9.20355
9.42924
9.64706
9.85722
10.06
10.2555
10.4441
10.626
10.8014
10.9705
11.1335
11.2907
11.4423
11.5885
11.7294
11.8654
11.9966
12.1232
12.2453
12.3632
12.477
12.5869
12.693
12.7956
12.8947
12.9905
13.0831
13.1727
13.2593
13.3431
13.4242
13.5027
13.5787
13.6523
13.7236
13.7927
13.8596
13.9245
13.9874
14.0484
14.1075
14.1649
14.2204
14.2743
14.3265
14.3771
14.4261
14.4735
14.5194
14.5638
14.6067
14.6481
14.688
14.7264
14.7634
14.7988
14.8328
14.8652
14.8962
14.9256
14.9535
14.9798
15.0044
15.0274
15.0484
15.0668
15.0823
15.0912
15.0975
15.0685
-7.07928
-7.16611
-7.31381
-7.48259
-7.66933
-7.87389
-8.09312
-8.32502
-8.56984
-8.82819
-9.09957
-9.38312
-9.67861
-9.98487
-10.2992
-10.6186
-10.9402
-11.2613
-11.5795
-11.8927
-12.1991
-12.4974
-12.7866
-13.0657
-13.3342
-13.5913
-13.8368
-14.0701
-14.2907
-14.4984
-14.6925
-14.8725
-15.0379
-15.1881
-15.3224
-15.44
-15.5404
-15.6229
-15.6866
-15.7311
-15.7555
-15.7594
-15.7421
-15.7032
-15.6423
-15.5591
-15.4533
-15.3247
-15.1732
-14.999
-14.8021
-14.5827
-14.3412
-14.078
-13.7935
-13.4884
-13.1633
-12.8191
-12.4564
-12.0762
-11.6795
-11.2672
-10.8405
-10.4004
-9.94792
-9.48433
-9.01075
-8.52833
-8.03823
-7.54161
-7.0396
-6.53334
-6.02393
-5.51243
-4.99989
-4.48731
-3.97564
-3.4658
-2.95866
-2.45505
-1.95574
-1.46145
-0.972838
-0.490531
-0.0150866
0.452984
0.913219
1.36521
1.8086
2.24306
2.66833
3.08418
3.49042
3.88691
4.27352
4.65018
5.01685
5.37349
5.72013
6.05679
6.38355
6.70048
7.0077
7.30534
7.59354
7.87247
8.14229
8.4032
8.65539
8.89907
9.13444
9.36173
9.58114
9.79292
9.99728
10.1945
10.3847
10.5681
10.7451
10.9158
11.0804
11.2392
11.3923
11.54
11.6824
11.8199
11.9525
12.0804
12.204
12.3232
12.4383
12.5495
12.6569
12.7607
12.8609
12.9579
13.0516
13.1423
13.2299
13.3148
13.3969
13.4763
13.5533
13.6278
13.7
13.7699
13.8377
13.9033
13.967
14.0287
14.0886
14.1466
14.2028
14.2573
14.3102
14.3614
14.4109
14.4589
14.5053
14.5502
14.5936
14.6354
14.6757
14.7145
14.7518
14.7875
14.8217
14.8542
14.8852
14.9145
14.9421
14.9679
14.9917
15.0134
15.0327
15.0487
15.0609
15.0656
15.0669
15.0318
-7.19019
-7.26856
-7.3995
-7.55539
-7.73403
-7.93513
-8.15596
-8.39397
-8.64748
-8.91519
-9.19543
-9.48708
-9.78919
-10.0998
-10.4164
-10.7365
-11.0576
-11.3772
-11.6934
-12.0043
-12.3084
-12.6045
-12.8914
-13.1683
-13.4347
-13.6899
-13.9334
-14.1648
-14.3836
-14.5893
-14.7815
-14.9595
-15.1228
-15.2709
-15.403
-15.5185
-15.6167
-15.697
-15.7586
-15.8008
-15.8232
-15.825
-15.8057
-15.7649
-15.7022
-15.6172
-15.5096
-15.3795
-15.2266
-15.051
-14.8529
-14.6324
-14.3899
-14.1258
-13.8407
-13.535
-13.2096
-12.865
-12.5023
-12.1222
-11.7257
-11.3138
-10.8876
-10.4481
-9.99649
-9.53383
-9.06128
-8.58
-8.09113
-7.59581
-7.09518
-6.59035
-6.08241
-5.57241
-5.06139
-4.55032
-4.04015
-3.53178
-3.02608
-2.52385
-2.02585
-1.53279
-1.04533
-0.564091
-0.0896165
0.377582
0.837049
1.28838
1.7312
2.16522
2.59015
3.00577
3.41189
3.80837
4.19507
4.57193
4.93889
5.29593
5.64305
5.9803
6.30773
6.62542
6.93349
7.23204
7.52123
7.8012
8.07214
8.33421
8.58761
8.83254
9.0692
9.2978
9.51857
9.73172
9.93748
10.1361
10.3277
10.5126
10.691
10.8631
11.0291
11.1893
11.3438
11.4929
11.6367
11.7755
11.9095
12.0387
12.1635
12.284
12.4004
12.5128
12.6214
12.7263
12.8278
12.9258
13.0206
13.1123
13.201
13.2868
13.3699
13.4503
13.5282
13.6036
13.6766
13.7474
13.816
13.8824
13.9469
14.0093
14.0699
14.1286
14.1855
14.2406
14.2941
14.3459
14.396
14.4446
14.4915
14.5369
14.5807
14.623
14.6637
14.7029
14.7405
14.7765
14.8108
14.8435
14.8745
14.9036
14.9309
14.9561
14.9791
14.9996
15.0171
15.0307
15.0398
15.0405
15.0373
14.997
-7.36671
-7.43128
-7.54219
-7.68062
-7.84444
-8.03318
-8.24449
-8.47569
-8.72433
-8.98808
-9.26472
-9.55305
-9.85188
-10.159
-10.4719
-10.7883
-11.1059
-11.4223
-11.7358
-12.0446
-12.3471
-12.6421
-12.9284
-13.2053
-13.4718
-13.7274
-13.9715
-14.2035
-14.4228
-14.629
-14.8216
-14.9998
-15.1632
-15.3111
-15.4429
-15.5578
-15.6553
-15.7346
-15.7951
-15.8362
-15.8572
-15.8576
-15.8369
-15.7946
-15.7303
-15.6438
-15.5348
-15.4032
-15.249
-15.0722
-14.8729
-14.6514
-14.4081
-14.1433
-13.8576
-13.5516
-13.226
-12.8815
-12.519
-12.1393
-11.7434
-11.3323
-10.9071
-10.4687
-10.0184
-9.55717
-9.0862
-8.60663
-8.11957
-7.62617
-7.12753
-6.62475
-6.1189
-5.61101
-5.10211
-4.59317
-4.08512
-3.57884
-3.07518
-2.57494
-2.07887
-1.58766
-1.10196
-0.62239
-0.149483
0.316257
0.774379
1.22448
1.6662
2.09923
2.5233
2.93819
3.34369
3.73967
4.126
4.5026
4.86942
5.22643
5.57364
5.91108
6.23881
6.55689
6.86545
7.16458
7.45443
7.73514
8.00688
8.26983
8.52417
8.77009
9.0078
9.23749
9.45939
9.6737
9.88064
10.0804
10.2733
10.4595
10.6391
10.8125
10.9798
11.1412
11.297
11.4474
11.5925
11.7326
11.8677
11.9983
12.1243
12.246
12.3635
12.4771
12.5868
12.6928
12.7954
12.8945
12.9903
13.083
13.1727
13.2595
13.3435
13.4248
13.5036
13.5799
13.6537
13.7253
13.7947
13.862
13.9271
13.9903
14.0516
14.111
14.1685
14.2243
14.2784
14.3308
14.3815
14.4306
14.4781
14.524
14.5683
14.611
14.6522
14.6917
14.7297
14.7659
14.8005
14.8333
14.8642
14.8932
14.9201
14.9448
14.9669
14.9861
15.0018
15.0132
15.0193
15.0164
15.0091
14.9643
-7.54062
-7.5921
-7.68467
-7.80525
-7.95188
-8.12402
-8.31961
-8.53627
-8.77154
-9.02287
-9.28823
-9.5665
-9.8563
-10.1554
-10.4613
-10.7718
-11.0845
-11.3972
-11.7081
-12.0153
-12.3172
-12.6125
-12.8999
-13.1784
-13.447
-13.705
-13.9516
-14.1862
-14.4081
-14.6167
-14.8114
-14.9916
-15.1566
-15.3057
-15.4384
-15.554
-15.6517
-15.731
-15.7913
-15.8318
-15.8521
-15.8516
-15.8298
-15.7864
-15.7209
-15.6332
-15.523
-15.3903
-15.235
-15.0572
-14.8571
-14.635
-14.3912
-14.1261
-13.8403
-13.5344
-13.2091
-12.8651
-12.5034
-12.1247
-11.73
-11.3204
-10.8967
-10.4602
-10.0119
-9.55284
-9.0842
-8.60708
-8.12261
-7.63188
-7.136
-6.63605
-6.13307
-5.62809
-5.12209
-4.61605
-4.11087
-3.60743
-3.10656
-2.60903
-2.11558
-1.62691
-1.14365
-0.666399
-0.195692
0.267974
0.724156
1.17245
1.61251
2.04402
2.46671
2.88036
3.28476
3.67978
4.0653
4.44122
4.80749
5.16408
5.511
5.84827
6.17595
6.4941
6.80283
7.10224
7.39246
7.67364
7.94593
8.20951
8.46455
8.71125
8.94978
9.18037
9.4032
9.6185
9.82646
10.0273
10.2213
10.4085
10.5893
10.7638
10.9323
11.0949
11.2519
11.4034
11.5497
11.6909
11.8273
11.959
12.0861
12.209
12.3276
12.4423
12.5531
12.6602
12.7638
12.8639
12.9607
13.0544
13.1451
13.2328
13.3177
13.3999
13.4796
13.5567
13.6314
13.7038
13.774
13.842
13.9079
13.9718
14.0338
14.0938
14.1521
14.2085
14.2632
14.3162
14.3675
14.4171
14.4652
14.5116
14.5564
14.5996
14.6412
14.6811
14.7193
14.7559
14.7906
14.8236
14.8545
14.8834
14.9099
14.934
14.9553
14.9732
14.9873
14.9964
14.9997
14.9935
14.9825
14.934
-7.66742
-7.7096
-7.78678
-7.89073
-8.01996
-8.17403
-8.35118
-8.54946
-8.76685
-9.00117
-9.25101
-9.51566
-9.79368
-10.0828
-10.3805
-10.6845
-10.9923
-11.3018
-11.6109
-11.9177
-12.2203
-12.5174
-12.8075
-13.0893
-13.3618
-13.6239
-13.8747
-14.1135
-14.3394
-14.5517
-14.7498
-14.933
-15.1006
-15.2519
-15.3863
-15.5032
-15.6018
-15.6816
-15.742
-15.7824
-15.8024
-15.8013
-15.7788
-15.7346
-15.6682
-15.5796
-15.4686
-15.3351
-15.1792
-15.0009
-14.8004
-14.5781
-14.3343
-14.0696
-13.7843
-13.4792
-13.155
-12.8124
-12.4522
-12.0754
-11.6828
-11.2755
-10.8544
-10.4207
-9.97531
-9.51941
-9.05407
-8.5804
-8.09948
-7.61241
-7.12026
-6.62408
-6.12491
-5.62375
-5.12158
-4.61931
-4.11787
-3.6181
-3.12083
-2.62681
-2.13676
-1.65137
-1.17126
-0.697016
-0.229176
0.231776
0.685402
1.1313
1.56913
1.99857
2.41936
2.83127
3.23411
3.62772
4.01199
4.38681
4.75214
5.10795
5.45422
5.79099
6.11831
6.43622
6.74484
7.04426
7.3346
7.616
7.88862
8.15261
8.40815
8.65542
8.89461
9.12591
9.34952
9.56565
9.77449
9.97626
10.1712
10.3594
10.5412
10.7168
10.8863
11.05
11.2081
11.3607
11.5081
11.6504
11.7879
11.9207
12.0489
12.1728
12.2926
12.4083
12.5202
12.6283
12.7329
12.834
12.9318
13.0264
13.118
13.2067
13.2925
13.3756
13.4561
13.534
13.6096
13.6828
13.7537
13.8225
13.8891
13.9538
14.0164
14.0772
14.136
14.1931
14.2484
14.302
14.3539
14.4041
14.4527
14.4997
14.545
14.5886
14.6306
14.671
14.7096
14.7464
14.7814
14.8144
14.8454
14.8741
14.9004
14.9239
14.9443
14.9611
14.9735
14.9805
14.9813
14.9721
14.9578
14.9061
-7.72288
-7.76113
-7.82672
-7.91571
-8.02792
-8.16332
-8.32086
-8.49921
-8.69682
-8.91214
-9.14467
-9.39431
-9.65973
-9.93852
-10.2281
-10.526
-10.8298
-11.1371
-11.4456
-11.7533
-12.0582
-12.3585
-12.6527
-12.9392
-13.2167
-13.4841
-13.7402
-13.9842
-14.215
-14.4319
-14.6341
-14.821
-14.9917
-15.1456
-15.2821
-15.4006
-15.5004
-15.581
-15.6418
-15.6824
-15.7022
-15.7008
-15.6779
-15.6332
-15.5664
-15.4773
-15.366
-15.2322
-15.0762
-14.8981
-14.698
-14.4763
-14.2335
-13.9699
-13.6861
-13.3828
-13.0607
-12.7204
-12.363
-11.9891
-11.5998
-11.196
-10.7786
-10.3488
-9.90763
-9.45605
-8.99518
-8.52609
-8.04987
-7.56758
-7.08026
-6.58894
-6.09464
-5.59834
-5.10097
-4.60347
-4.1067
-3.61151
-3.1187
-2.62904
-2.14322
-1.66189
-1.18569
-0.715174
-0.250887
0.206695
0.657137
1.10005
1.53507
1.96191
2.38028
2.78997
3.19077
3.58253
3.96513
4.33847
4.7025
5.05716
5.40247
5.73842
6.06508
6.38248
6.69073
6.98991
7.28014
7.56155
7.83428
8.0985
8.35436
8.60204
8.84172
9.07359
9.29784
9.51467
9.72428
9.92686
10.1226
10.3118
10.4945
10.671
10.8416
11.0063
11.1654
11.319
11.4675
11.6108
11.7494
11.8832
12.0125
12.1374
12.2582
12.375
12.4878
12.597
12.7025
12.8046
12.9034
12.999
13.0915
13.181
13.2677
13.3517
13.433
13.5118
13.5882
13.6621
13.7339
13.8034
13.8708
13.9361
13.9995
14.0609
14.1204
14.1782
14.2341
14.2883
14.3408
14.3916
14.4407
14.4882
14.534
14.5782
14.6206
14.6614
14.7004
14.7375
14.7727
14.8059
14.8369
14.8655
14.8915
14.9145
14.9341
14.9498
14.9607
14.9659
14.9643
14.9523
14.935
14.8807
-7.70847
-7.74316
-7.79999
-7.87513
-7.97014
-8.08583
-8.22223
-8.37896
-8.55525
-8.75039
-8.96483
-9.19906
-9.45187
-9.72081
-10.0031
-10.2962
-10.5973
-10.904
-11.2136
-11.5238
-11.8325
-12.1375
-12.437
-12.7292
-13.0128
-13.2862
-13.5482
-13.7978
-14.0339
-14.2556
-14.4621
-14.6526
-14.8264
-14.9829
-15.1215
-15.2415
-15.3425
-15.4239
-15.4853
-15.5261
-15.546
-15.5446
-15.5217
-15.4769
-15.4102
-15.3213
-15.2103
-15.0771
-14.9219
-14.7448
-14.5461
-14.3261
-14.0853
-13.824
-13.543
-13.2427
-12.9239
-12.5874
-12.234
-11.8644
-11.4797
-11.0808
-10.6686
-10.2441
-9.80839
-9.36247
-8.90739
-8.44421
-7.97396
-7.49768
-7.01641
-6.53113
-6.04284
-5.5525
-5.06102
-4.56931
-4.07822
-3.58858
-3.10116
-2.61671
-2.13595
-1.65951
-1.18798
-0.721927
-0.261883
0.191675
0.638311
1.07764
1.5093
1.933
2.34845
2.75544
3.15376
3.54326
3.9238
4.29529
4.65765
5.01086
5.35489
5.68975
6.01548
6.33212
6.63976
6.93849
7.2284
7.50963
7.78231
8.04658
8.30261
8.55056
8.7906
9.02292
9.2477
9.46512
9.67539
9.8787
10.0752
10.2652
10.4488
10.6262
10.7977
10.9633
11.1234
11.2781
11.4275
11.5719
11.7114
11.8463
11.9766
12.1026
12.2243
12.3421
12.456
12.5661
12.6726
12.7757
12.8754
12.9719
13.0653
13.1557
13.2433
13.3282
13.4103
13.4899
13.5671
13.6419
13.7143
13.7846
13.8528
13.9188
13.9829
14.045
14.1052
14.1636
14.2202
14.275
14.3281
14.3795
14.4292
14.4772
14.5236
14.5682
14.6112
14.6523
14.6917
14.7292
14.7647
14.7981
14.8291
14.8577
14.8834
14.906
14.9249
14.9395
14.9491
14.9525
14.9487
14.9344
14.9144
14.8579
-7.64477
-7.67047
-7.71658
-7.7752
-7.84995
-7.94282
-8.05505
-8.18751
-8.34043
-8.51409
-8.70988
-8.92884
-9.16977
-9.43
-9.70654
-9.99641
-10.2967
-10.6043
-10.9166
-11.2309
-11.5445
-11.8552
-12.1608
-12.4594
-12.7492
-13.0288
-13.2967
-13.5517
-13.7927
-14.0188
-14.2292
-14.423
-14.5997
-14.7585
-14.8988
-15.0203
-15.1224
-15.2047
-15.2667
-15.308
-15.3284
-15.3276