/*--------------------------------*- C++ -*----------------------------------*\
| =========                 |                                                 |
| \\      /  F ield         | OpenFOAM: The Open Source CFD Toolbox           |
|  \\    /   O peration     | Version:  v2012                                 |
|   \\  /    A nd           | Website:  www.openfoam.com                      |
|    \\/     M anipulation  |                                                 |
\*---------------------------------------------------------------------------*/
FoamFile
{
    version     2.0;
    format      ascii;
    class       surfaceScalarField;
    location    "3000";
    object      phi;
}
// * * * * * * * * * * * * * * * * * * * * * * * * * * * * * * * * * * * * * //

dimensions      [0 3 -1 0 0 0 0];
oriented        oriented;


internalField   nonuniform List<scalar> 
24170
(
3.92539e-06
-7.91497e-07
3.76462e-06
1.60755e-07
3.63337e-06
1.31207e-07
3.4332e-06
2.00137e-07
3.28008e-06
1.53077e-07
3.18942e-06
9.06255e-08
3.12905e-06
6.02436e-08
3.08113e-06
4.75996e-08
3.04122e-06
3.94424e-08
3.00432e-06
3.6311e-08
2.96972e-06
3.40283e-08
2.93773e-06
3.1461e-08
2.90846e-06
2.88368e-08
2.88197e-06
2.6151e-08
2.85824e-06
2.34856e-08
2.83868e-06
1.94552e-08
2.83064e-06
8.09467e-09
-9.41134e-09
2.84013e-06
3.58444e-06
-9.19499e-07
3.80423e-06
-5.90417e-08
3.7428e-06
1.92619e-07
3.69054e-06
2.52361e-07
3.63725e-06
2.06333e-07
3.58984e-06
1.3798e-07
3.55257e-06
9.73824e-08
3.52377e-06
7.61654e-08
3.50037e-06
6.2496e-08
3.4809e-06
5.5311e-08
3.46384e-06
5.05701e-08
3.44836e-06
4.64246e-08
3.43408e-06
4.2657e-08
3.42063e-06
3.92086e-08
3.40802e-06
3.57798e-08
3.39624e-06
3.10256e-08
3.38457e-06
1.96712e-08
3.8034e-09
3.37104e-06
3.68518e-06
-7.92483e-07
3.83638e-06
-2.10252e-07
3.91492e-06
1.14073e-07
3.94499e-06
2.22284e-07
3.94406e-06
2.07258e-07
3.92722e-06
1.5482e-07
3.9078e-06
1.16802e-07
3.89026e-06
9.37422e-08
3.87466e-06
7.81977e-08
3.86142e-06
6.86718e-08
3.84987e-06
6.22389e-08
3.83928e-06
5.70969e-08
3.82932e-06
5.26502e-08
3.8199e-06
4.86065e-08
3.81118e-06
4.44369e-08
3.80307e-06
3.90462e-08
3.79321e-06
2.94245e-08
1.75377e-08
3.77918e-06
4.05359e-06
-6.41512e-07
4.11459e-06
-2.71266e-07
4.20798e-06
2.06758e-08
4.26634e-06
1.63912e-07
4.29068e-06
1.82899e-07
4.29272e-06
1.52746e-07
4.28601e-06
1.23489e-07
4.27704e-06
1.02736e-07
4.2676e-06
8.77179e-08
4.25884e-06
7.75506e-08
4.25084e-06
7.03359e-08
4.24332e-06
6.46717e-08
4.23612e-06
5.98664e-08
4.22914e-06
5.55384e-08
4.22236e-06
5.11333e-08
4.21538e-06
4.59141e-08
4.20614e-06
3.85123e-08
3.03321e-08
4.19305e-06
4.50491e-06
-5.09116e-07
4.51536e-06
-2.81714e-07
4.58528e-06
-4.92483e-08
4.64664e-06
1.02549e-07
4.68257e-06
1.46974e-07
4.6968e-06
1.38511e-07
4.69972e-06
1.20601e-07
4.69775e-06
1.0478e-07
4.69354e-06
9.20572e-08
4.68862e-06
8.2617e-08
4.6836e-06
7.55146e-08
4.67854e-06
6.98595e-08
4.67342e-06
6.50823e-08
4.66817e-06
6.08289e-08
4.66263e-06
5.6659e-08
4.65631e-06
5.21759e-08
4.64778e-06
4.6948e-08
4.21121e-08
4.63583e-06
5.00014e-06
-3.94666e-07
4.98614e-06
-2.67714e-07
5.03068e-06
-9.37986e-08
5.08505e-06
4.81714e-08
5.12452e-06
1.07486e-07
5.14606e-06
1.16951e-07
5.15605e-06
1.10613e-07
5.15977e-06
1.01097e-07
5.16003e-06
9.18851e-08
5.15855e-06
8.42096e-08
5.15619e-06
7.79911e-08
5.15327e-06
7.28698e-08
5.14989e-06
6.85155e-08
5.14604e-06
6.46924e-08
5.14153e-06
6.1136e-08
5.13593e-06
5.77201e-08
5.12831e-06
5.4487e-08
5.23509e-08
5.11789e-06
5.54382e-06
-2.97478e-07
5.51664e-06
-2.40537e-07
5.54055e-06
-1.17703e-07
5.58387e-06
4.8475e-09
5.62165e-06
6.9709e-08
5.64657e-06
9.20388e-08
5.66123e-06
9.59716e-08
5.66931e-06
9.30638e-08
5.67329e-06
8.79823e-08
5.67482e-06
8.27667e-08
5.67485e-06
7.80445e-08
5.67387e-06
7.39296e-08
5.67207e-06
7.03672e-08
5.6695e-06
6.72869e-08
5.66603e-06
6.46095e-08
5.66133e-06
6.23885e-08
5.65489e-06
6.08586e-08
6.07863e-08
5.64639e-06
4.34788e-06
-2.39245e-07
4.32251e-06
-2.15174e-07
4.33078e-06
-1.25973e-07
4.35419e-06
-1.85674e-08
4.3784e-06
4.54899e-08
4.39647e-06
7.39563e-08
4.40847e-06
8.39817e-08
4.41605e-06
8.54995e-08
4.42064e-06
8.3428e-08
4.42326e-06
8.01884e-08
4.42457e-06
7.67876e-08
4.42493e-06
7.36147e-08
4.42454e-06
7.07984e-08
4.42345e-06
6.83931e-08
4.42162e-06
6.64359e-08
4.41892e-06
6.50699e-08
4.41517e-06
6.45936e-08
6.55746e-08
4.41031e-06
5.08622e-06
-1.85604e-07
5.05777e-06
-1.86729e-07
5.0584e-06
-1.266e-07
5.07686e-06
-3.7035e-08
5.09918e-06
2.31741e-08
5.11774e-06
5.53955e-08
5.13129e-06
7.04414e-08
5.14066e-06
7.61537e-08
5.14691e-06
7.71987e-08
5.15097e-06
7.61609e-08
5.15347e-06
7.43218e-08
5.15481e-06
7.23058e-08
5.15521e-06
7.04189e-08
5.15477e-06
6.88371e-08
5.15349e-06
6.7704e-08
5.15133e-06
6.72216e-08
5.14821e-06
6.76788e-08
6.95386e-08
5.14423e-06
5.94839e-06
-1.38198e-07
5.91832e-06
-1.56662e-07
5.91161e-06
-1.19891e-07
5.924e-06
-4.94344e-08
5.94286e-06
4.31037e-09
5.9606e-06
3.76581e-08
5.97485e-06
5.62001e-08
5.98553e-06
6.54819e-08
5.99325e-06
6.94914e-08
5.99871e-06
7.07233e-08
6.00246e-06
7.05931e-08
6.00488e-06
6.98952e-08
6.00623e-06
6.90782e-08
6.00664e-06
6.84369e-08
6.00615e-06
6.81867e-08
6.00481e-06
6.85604e-08
6.00266e-06
6.98291e-08
7.22738e-08
5.99989e-06
6.95439e-06
-9.83187e-08
6.92402e-06
-1.26291e-07
6.91113e-06
-1.07012e-07
6.91681e-06
-5.5108e-08
6.93088e-06
-9.76717e-09
6.94637e-06
2.21643e-08
6.9602e-06
4.23828e-08
6.97146e-06
5.42283e-08
6.98023e-06
6.07347e-08
6.98688e-06
6.40757e-08
6.99184e-06
6.56494e-08
6.99541e-06
6.63235e-08
6.99784e-06
6.66539e-08
6.99928e-06
6.69952e-08
6.99985e-06
6.76269e-08
6.99963e-06
6.87795e-08
6.99878e-06
7.06618e-08
7.34763e-08
6.99758e-06
8.12719e-06
-6.64939e-08
8.09793e-06
-9.70347e-08
8.08056e-06
-8.9639e-08
8.07955e-06
-5.41054e-08
8.08794e-06
-1.81538e-08
8.09987e-06
1.02347e-08
8.11202e-06
3.02359e-08
8.1229e-06
4.33529e-08
8.13207e-06
5.15769e-08
8.13954e-06
5.66088e-08
8.14551e-06
5.96774e-08
8.15021e-06
6.16389e-08
8.1538e-06
6.3057e-08
8.15646e-06
6.43416e-08
8.15832e-06
6.57676e-08
8.15954e-06
6.75593e-08
8.16033e-06
6.98795e-08
7.28291e-08
8.16096e-06
9.49368e-06
-4.24461e-08
9.4668e-06
-7.01579e-08
9.44683e-06
-6.96736e-08
9.43991e-06
-4.71835e-08
9.4423e-06
-2.05407e-08
9.44967e-06
2.85829e-09
9.45898e-06
2.09346e-08
9.46844e-06
3.39006e-08
9.47719e-06
4.28267e-08
9.48493e-06
4.88711e-08
9.49161e-06
5.3009e-08
9.49728e-06
5.59673e-08
9.50205e-06
5.82874e-08
9.50606e-06
6.03368e-08
9.50943e-06
6.23938e-08
9.51235e-06
6.46351e-08
9.51504e-06
6.7193e-08
7.01082e-08
9.51775e-06
1.10854e-05
-2.51672e-08
1.10618e-05
-4.6519e-08
1.1041e-05
-4.88426e-08
1.10294e-05
-3.56071e-08
1.10261e-05
-1.72463e-08
1.10284e-05
5.02582e-10
1.1034e-05
1.53427e-08
1.10411e-05
2.6805e-08
1.10487e-05
3.52898e-08
1.10561e-05
4.14785e-08
1.1063e-05
4.60397e-08
1.10695e-05
4.95346e-08
1.10754e-05
5.2389e-08
1.10808e-05
5.49215e-08
1.10858e-05
5.73485e-08
1.10906e-05
5.98208e-08
1.10954e-05
6.24132e-08
6.5158e-08
1.11004e-05
1.29396e-05
-1.31271e-08
1.29194e-05
-2.62956e-08
1.28988e-05
-2.8288e-08
1.28839e-05
-2.07435e-08
1.28758e-05
-9.07377e-09
1.28732e-05
3.04279e-09
1.28748e-05
1.38099e-08
1.2879e-05
2.26278e-08
1.28847e-05
2.95516e-08
1.28913e-05
3.49176e-08
1.28982e-05
3.91245e-08
1.29052e-05
4.25358e-08
1.29121e-05
4.54437e-08
1.2919e-05
4.80665e-08
1.29258e-05
5.05536e-08
1.29326e-05
5.29983e-08
1.29395e-05
5.54441e-08
5.78945e-08
1.29468e-05
1.50998e-05
-4.49121e-09
1.50822e-05
-8.69378e-09
1.50621e-05
-8.14901e-09
1.50448e-05
-3.51355e-09
1.50327e-05
3.03454e-09
1.50259e-05
9.83893e-09
1.50237e-05
1.60371e-08
1.5025e-05
2.13111e-08
1.50289e-05
2.56716e-08
1.50346e-05
2.9273e-08
1.50414e-05
3.23128e-08
1.50489e-05
3.49716e-08
1.5057e-05
3.73931e-08
1.50654e-05
3.96801e-08
1.5074e-05
4.1895e-08
1.50829e-05
4.4069e-08
1.50922e-05
4.62048e-08
4.82836e-08
1.51018e-05
1.76171e-05
2.88513e-09
1.75999e-05
8.50336e-09
1.75787e-05
1.29918e-08
1.7559e-05
1.62263e-08
1.75436e-05
1.83986e-08
1.75336e-05
1.98673e-08
1.75287e-05
2.09364e-08
1.75282e-05
2.18572e-08
1.75311e-05
2.27755e-08
1.75365e-05
2.37973e-08
1.75439e-05
2.49611e-08
1.75526e-05
2.62867e-08
1.75622e-05
2.77594e-08
1.75725e-05
2.93579e-08
1.75834e-05
3.10436e-08
1.75947e-05
3.27784e-08
1.76064e-05
3.45143e-08
3.62081e-08
1.76184e-05
1.78181e-05
1.09935e-08
1.77994e-05
2.71864e-08
1.77768e-05
3.55874e-08
1.7756e-05
3.70039e-08
1.77402e-05
3.42631e-08
1.77302e-05
2.9864e-08
1.77257e-05
2.54067e-08
1.77259e-05
2.16622e-08
1.77298e-05
1.8944e-08
1.77363e-05
1.72433e-08
1.77448e-05
1.64545e-08
1.77547e-05
1.63995e-08
1.77656e-05
1.6916e-08
1.77771e-05
1.78423e-08
1.77891e-05
1.90521e-08
1.78014e-05
2.04266e-08
1.78141e-05
2.1883e-08
2.33371e-08
1.7827e-05
1.58702e-05
2.2127e-08
1.58478e-05
4.9554e-08
1.58233e-05
6.00925e-08
1.58032e-05
5.7186e-08
1.57899e-05
4.75492e-08
1.57834e-05
3.63055e-08
1.57827e-05
2.61224e-08
1.57863e-05
1.80645e-08
1.5793e-05
1.22684e-08
1.58018e-05
8.50033e-09
1.58119e-05
6.36241e-09
1.58228e-05
5.46972e-09
1.58343e-05
5.4807e-09
1.5846e-05
6.12203e-09
1.58579e-05
7.17503e-09
1.58699e-05
8.47743e-09
1.58818e-05
9.89903e-09
1.13524e-08
1.58938e-05
1.41313e-05
3.95338e-08
1.41021e-05
7.86801e-08
1.40745e-05
8.77492e-08
1.40557e-05
7.59887e-08
1.40469e-05
5.63588e-08
1.40462e-05
3.69864e-08
1.40512e-05
2.11537e-08
1.40597e-05
9.53049e-09
1.40703e-05
1.70416e-09
1.40819e-05
-3.1083e-09
1.4094e-05
-5.68134e-09
1.41062e-05
-6.66421e-09
1.41182e-05
-6.55063e-09
1.41301e-05
-5.72495e-09
1.41417e-05
-4.44966e-09
1.41531e-05
-2.93008e-09
1.41643e-05
-1.29535e-09
3.48602e-10
1.41753e-05
1.25772e-05
6.73515e-08
1.25392e-05
1.16715e-07
1.25091e-05
1.17853e-07
1.24942e-05
9.08443e-08
1.24928e-05
5.77647e-08
1.25002e-05
2.96345e-08
1.25122e-05
9.10242e-09
1.25263e-05
-4.53372e-09
1.25409e-05
-1.28378e-08
1.25552e-05
-1.73458e-08
1.25688e-05
-1.92847e-08
1.25817e-05
-1.95319e-08
1.25939e-05
-1.87281e-08
1.26055e-05
-1.72643e-08
1.26165e-05
-1.54609e-08
1.2627e-05
-1.3478e-08
1.26372e-05
-1.14692e-08
-9.49358e-09
1.26471e-05
1.11862e-05
1.10913e-07
1.11384e-05
1.6455e-07
1.11088e-05
1.47487e-07
1.11022e-05
9.74416e-08
1.11117e-05
4.82668e-08
1.1129e-05
1.23701e-08
1.11486e-05
-1.04969e-08
1.11678e-05
-2.37161e-08
1.11855e-05
-3.04877e-08
1.12013e-05
-3.31944e-08
1.12155e-05
-3.3446e-08
1.12283e-05
-3.22697e-08
1.12399e-05
-3.02868e-08
1.12506e-05
-2.79045e-08
1.12605e-05
-2.53431e-08
1.12698e-05
-2.28007e-08
1.12787e-05
-2.03194e-08
-1.79801e-08
1.12872e-05
9.93908e-06
1.7645e-07
9.88248e-06
2.21147e-07
9.85873e-06
1.71235e-07
9.86595e-06
9.0235e-08
9.88964e-06
2.45943e-08
9.91763e-06
-1.56015e-08
9.94396e-06
-3.67923e-08
9.96672e-06
-4.64165e-08
9.98577e-06
-4.94659e-08
1.00017e-05
-4.90632e-08
1.00151e-05
-4.68574e-08
1.00267e-05
-4.38135e-08
1.00368e-05
-4.03824e-08
1.0046e-05
-3.69268e-08
1.00543e-05
-3.35971e-08
1.0062e-05
-3.0474e-08
1.00693e-05
-2.75789e-08
-2.4894e-08
1.00762e-05
8.81963e-06
2.69915e-07
8.75784e-06
2.82934e-07
8.74788e-06
1.81201e-07
8.77483e-06
6.32846e-08
8.81462e-06
-1.51818e-08
8.85218e-06
-5.31279e-08
8.88272e-06
-6.72717e-08
8.90635e-06
-6.99504e-08
8.92438e-06
-6.7523e-08
8.93843e-06
-6.30189e-08
8.94965e-06
-5.79991e-08
8.959e-06
-5.29011e-08
8.96693e-06
-4.82103e-08
8.9739e-06
-4.37853e-08
8.98015e-06
-3.97812e-08
8.98593e-06
-3.61906e-08
8.99137e-06
-3.29955e-08
-3.01005e-08
8.99655e-06
7.81391e-06
3.96675e-07
7.7539e-06
3.42936e-07
7.76868e-06
1.66419e-07
7.82055e-06
1.14215e-08
7.87571e-06
-7.0332e-08
7.91918e-06
-9.65748e-08
7.94976e-06
-9.78367e-08
7.97067e-06
-9.07762e-08
7.98507e-06
-8.16901e-08
7.99528e-06
-7.31174e-08
8.00301e-06
-6.55198e-08
8.00906e-06
-5.89607e-08
8.01415e-06
-5.30707e-08
8.01847e-06
-4.7983e-08
8.02231e-06
-4.34604e-08
8.02582e-06
-3.97076e-08
8.02921e-06
-3.64182e-08
-3.34089e-08
8.03252e-06
6.90424e-06
5.66769e-07
6.86136e-06
3.85803e-07
6.91717e-06
1.10614e-07
6.99676e-06
-6.81767e-08
7.06257e-06
-1.3615e-07
7.10537e-06
-1.39373e-07
7.13035e-06
-1.22693e-07
7.14455e-06
-1.04925e-07
7.1525e-06
-8.96289e-08
7.15716e-06
-7.76028e-08
7.16016e-06
-6.83929e-08
7.16232e-06
-6.07915e-08
7.16388e-06
-5.45759e-08
7.16519e-06
-4.92322e-08
7.16618e-06
-4.4505e-08
7.16717e-06
-4.07162e-08
7.16831e-06
-3.75416e-08
-3.47221e-08
7.1695e-06
6.07162e-06
7.97663e-07
6.08525e-06
3.72161e-07
6.19865e-06
-2.791e-09
6.29991e-06
-1.69438e-07
6.3653e-06
-2.01544e-07
6.3976e-06
-1.71655e-07
6.41009e-06
-1.35299e-07
6.41336e-06
-1.07889e-07
6.41236e-06
-8.86923e-08
6.40995e-06
-7.51732e-08
6.40742e-06
-6.58086e-08
6.40488e-06
-5.8349e-08
6.40236e-06
-5.22101e-08
6.40009e-06
-4.68824e-08
6.39785e-06
-4.22673e-08
6.39598e-06
-3.88966e-08
6.39444e-06
-3.61105e-08
-3.34964e-08
6.39331e-06
5.35805e-06
1.05451e-06
5.50649e-06
2.23712e-07
5.64777e-06
-1.44089e-07
5.73565e-06
-2.57337e-07
5.77649e-06
-2.42402e-07
5.7833e-06
-1.78567e-07
5.77504e-06
-1.26903e-07
5.76263e-06
-9.55773e-08
5.75013e-06
-7.6407e-08
5.73924e-06
-6.45839e-08
5.73035e-06
-5.71506e-08
5.72239e-06
-5.07052e-08
5.71482e-06
-4.49584e-08
5.70786e-06
-4.01628e-08
5.70154e-06
-3.60828e-08
5.69624e-06
-3.36949e-08
5.69145e-06
-3.1275e-08
-2.91288e-08
5.68707e-06
5.04576e-06
1.01105e-06
5.36491e-06
-9.54598e-08
5.35252e-06
-1.31742e-07
5.33287e-06
-2.3772e-07
5.29604e-06
-2.05637e-07
5.25013e-06
-1.3275e-07
5.2083e-06
-8.50969e-08
5.1742e-06
-6.16551e-08
5.14675e-06
-4.93803e-08
5.12465e-06
-4.29735e-08
5.10672e-06
-3.96644e-08
5.09094e-06
-3.55274e-08
5.07617e-06
-3.08555e-08
5.06259e-06
-2.69978e-08
5.05057e-06
-2.42916e-08
5.04067e-06
-2.38901e-08
5.03115e-06
-2.17436e-08
-2.054e-08
5.02262e-06
5.4676e-06
5.37214e-06
5.24039e-06
5.00267e-06
4.79701e-06
4.66426e-06
4.57914e-06
4.51742e-06
4.46795e-06
4.4249e-06
4.38512e-06
4.34945e-06
4.3185e-06
4.29144e-06
4.26712e-06
4.24323e-06
4.2215e-06
4.20098e-06
2.47931e-08
-2.48125e-08
2.38658e-07
-2.13858e-07
4.89974e-07
-2.51353e-07
7.09263e-07
-2.19295e-07
8.75924e-07
-1.66694e-07
9.86024e-07
-1.10106e-07
1.04056e-06
-5.45674e-08
1.04184e-06
-1.28202e-09
9.95221e-07
4.65937e-08
9.11052e-07
8.41907e-08
8.04641e-07
1.06398e-07
6.95399e-07
1.09301e-07
6.0298e-07
9.24766e-08
5.36875e-07
6.60271e-08
4.85413e-07
5.15577e-08
4.24149e-07
6.09228e-08
3.36432e-07
8.7831e-08
2.08037e-07
1.28302e-07
3.16451e-08
1.76559e-07
-2.13881e-07
2.45847e-07
-5.18866e-07
3.05065e-07
-8.60122e-07
3.41404e-07
-1.22364e-06
3.63499e-07
-1.60018e-06
3.76558e-07
-1.98095e-06
3.80729e-07
-2.35586e-06
3.7489e-07
-2.71694e-06
3.61056e-07
-3.059e-06
3.42043e-07
-3.37826e-06
3.19241e-07
-3.67241e-06
2.94133e-07
-3.94062e-06
2.68203e-07
-4.18323e-06
2.4261e-07
-4.40129e-06
2.18054e-07
-4.59628e-06
1.94981e-07
-4.76989e-06
1.73613e-07
-4.92392e-06
1.54029e-07
-5.06011e-06
1.36188e-07
-5.18008e-06
1.19971e-07
-5.2853e-06
1.05218e-07
-5.37704e-06
9.17477e-08
-5.45642e-06
7.93798e-08
-5.52436e-06
6.79424e-08
-5.58165e-06
5.72808e-08
-5.62891e-06
4.72621e-08
-5.66668e-06
3.77778e-08
-5.69543e-06
2.87417e-08
-5.71551e-06
2.00826e-08
-5.72728e-06
1.17718e-08
-5.73123e-06
3.94517e-09
-5.7282e-06
-3.02605e-09
-5.7193e-06
-8.9027e-09
-5.70529e-06
-1.40089e-08
-5.68656e-06
-1.87294e-08
-5.66337e-06
-2.31922e-08
-5.63588e-06
-2.74856e-08
-5.60424e-06
-3.16369e-08
-5.56858e-06
-3.56607e-08
-5.52902e-06
-3.95638e-08
-5.48567e-06
-4.33469e-08
-5.43867e-06
-4.70091e-08
-5.38812e-06
-5.05476e-08
-5.33416e-06
-5.39591e-08
-5.27692e-06
-5.72399e-08
-5.21653e-06
-6.0387e-08
-5.15314e-06
-6.33976e-08
-5.08687e-06
-6.62689e-08
-5.01787e-06
-6.89971e-08
-4.94629e-06
-7.15803e-08
-4.87228e-06
-7.40164e-08
-4.79597e-06
-7.63045e-08
-4.71753e-06
-7.84437e-08
-4.63709e-06
-8.04338e-08
-4.55482e-06
-8.22748e-08
-4.47085e-06
-8.39678e-08
-4.38534e-06
-8.55135e-08
-4.29843e-06
-8.69141e-08
-4.21026e-06
-8.81712e-08
-4.12097e-06
-8.92877e-08
-4.0307e-06
-9.02664e-08
-3.93959e-06
-9.11109e-08
-3.84777e-06
-9.18248e-08
-3.75535e-06
-9.24127e-08
-3.66247e-06
-9.28791e-08
-3.56924e-06
-9.32301e-08
-3.47577e-06
-9.34715e-08
-3.38216e-06
-9.36113e-08
-3.2885e-06
-9.36579e-08
-3.19488e-06
-9.36221e-08
-3.10136e-06
-9.35167e-08
-3.008e-06
-9.3357e-08
-2.91484e-06
-9.31639e-08
-2.82187e-06
-9.29625e-08
-2.7291e-06
-9.27706e-08
-2.63654e-06
-9.2567e-08
-2.54427e-06
-9.22653e-08
-2.45251e-06
-9.17646e-08
-2.36153e-06
-9.09802e-08
-2.2716e-06
-8.99325e-08
-2.18282e-06
-8.87791e-08
-2.09519e-06
-8.76251e-08
-2.00872e-06
-8.64692e-08
-1.92342e-06
-8.5296e-08
-1.83932e-06
-8.40981e-08
-1.75645e-06
-8.28747e-08
-1.67482e-06
-8.16283e-08
-1.59445e-06
-8.03628e-08
-1.51537e-06
-7.9082e-08
-1.43758e-06
-7.77885e-08
-1.3611e-06
-7.64801e-08
-1.28596e-06
-7.51358e-08
-1.21219e-06
-7.37684e-08
-1.13978e-06
-7.24057e-08
-1.06874e-06
-7.10422e-08
-9.99054e-07
-6.96791e-08
-9.30734e-07
-6.83176e-08
-8.63772e-07
-6.6959e-08
-7.98164e-07
-6.56058e-08
-7.33901e-07
-6.42604e-08
-6.70974e-07
-6.29249e-08
-6.09373e-07
-6.15984e-08
-5.49089e-07
-6.02821e-08
-4.90109e-07
-5.89782e-08
-4.32414e-07
-5.76934e-08
-3.7598e-07
-5.64324e-08
-3.20787e-07
-5.51918e-08
-2.66819e-07
-5.39678e-08
-2.14054e-07
-5.2765e-08
-1.62474e-07
-5.15815e-08
-1.1207e-07
-5.04057e-08
-6.28341e-08
-4.9238e-08
-1.48976e-08
-4.79405e-08
3.18944e-08
-4.67965e-08
7.78461e-08
-4.59556e-08
1.22831e-07
-4.49875e-08
1.66753e-07
-4.3925e-08
2.09608e-07
-4.28587e-08
2.51414e-07
-4.18106e-08
2.92202e-07
-4.07923e-08
3.32004e-07
-3.98061e-08
3.7085e-07
-3.88499e-08
4.0877e-07
-3.79222e-08
4.45789e-07
-3.70212e-08
4.81934e-07
-3.61464e-08
5.17229e-07
-3.52966e-08
5.51698e-07
-3.4472e-08
5.85367e-07
-3.36717e-08
6.18259e-07
-3.28964e-08
6.50399e-07
-3.21455e-08
6.81812e-07
-3.14194e-08
7.12523e-07
-3.07175e-08
7.42556e-07
-3.00398e-08
7.71937e-07
-2.93862e-08
8.00689e-07
-2.87569e-08
8.28837e-07
-2.81515e-08
8.56405e-07
-2.75703e-08
8.83418e-07
-2.70129e-08
9.09897e-07
-2.64793e-08
9.35869e-07
-2.59688e-08
9.61353e-07
-2.54813e-08
9.86373e-07
-2.50155e-08
1.01095e-06
-2.45706e-08
1.0351e-06
-2.41443e-08
1.05883e-06
-2.37345e-08
1.08217e-06
-2.33366e-08
1.10512e-06
-2.29456e-08
1.12767e-06
-2.2553e-08
1.14982e-06
-2.2148e-08
1.17153e-06
-2.17144e-08
1.19275e-06
-2.12307e-08
1.21341e-06
-2.06649e-08
1.23338e-06
-1.99739e-08
1.25246e-06
-1.90924e-08
1.27038e-06
-1.79244e-08
1.28669e-06
-1.63234e-08
1.3007e-06
-1.40176e-08
1.31128e-06
-1.05882e-08
1.31579e-06
-4.526e-09
1.30888e-06
6.9019e-09
1.27926e-06
2.961e-08
7.24414e-08
1.20681e-06
2.53691e-07
-2.78515e-07
4.88909e-07
-4.49078e-07
6.38069e-07
-4.00528e-07
7.22233e-07
-3.03464e-07
7.61207e-07
-2.05682e-07
7.66582e-07
-1.15485e-07
7.45086e-07
-3.30867e-08
7.0241e-07
4.13914e-08
6.41522e-07
1.0747e-07
5.62381e-07
1.63337e-07
4.64195e-07
2.04581e-07
3.45272e-07
2.28225e-07
1.99365e-07
2.38406e-07
1.46834e-08
2.5064e-07
-2.19165e-07
2.85405e-07
-5.06448e-07
3.48125e-07
-8.45141e-07
4.26523e-07
-1.22404e-06
5.0722e-07
-1.62921e-06
5.81765e-07
-2.02953e-06
6.4622e-07
-2.41734e-06
6.92908e-07
-2.79222e-06
7.1631e-07
-3.14707e-06
7.18348e-07
-3.47379e-06
7.03284e-07
-3.76756e-06
6.74484e-07
-4.02756e-06
6.34886e-07
-4.25436e-06
5.87839e-07
-4.44932e-06
5.37e-07
-4.61541e-06
4.85322e-07
-4.75613e-06
4.34844e-07
-4.87484e-06
3.86906e-07
-4.97469e-06
3.42461e-07
-5.05856e-06
3.01914e-07
-5.12892e-06
2.65342e-07
-5.18789e-06
2.32579e-07
-5.23718e-06
2.03322e-07
-5.27819e-06
1.772e-07
-5.31204e-06
1.53823e-07
-5.33964e-06
1.32812e-07
-5.36171e-06
1.13816e-07
-5.37885e-06
9.6527e-08
-5.39159e-06
8.06805e-08
-5.40037e-06
6.60562e-08
-5.40558e-06
5.24738e-08
-5.40759e-06
3.97877e-08
-5.40673e-06
2.78841e-08
-5.40333e-06
1.66861e-08
-5.39772e-06
6.1598e-09
-5.39004e-06
-3.73902e-09
-5.37986e-06
-1.32041e-08
-5.36629e-06
-2.24695e-08
-5.34874e-06
-3.15626e-08
-5.32704e-06
-4.04226e-08
-5.3012e-06
-4.90418e-08
-5.27125e-06
-5.74277e-08
-5.2373e-06
-6.55867e-08
-5.19944e-06
-7.35214e-08
-5.15778e-06
-8.12313e-08
-5.11241e-06
-8.87129e-08
-5.06346e-06
-9.59606e-08
-5.01104e-06
-1.02967e-07
-4.95527e-06
-1.09726e-07
-4.89629e-06
-1.16228e-07
-4.83421e-06
-1.22466e-07
-4.76917e-06
-1.28437e-07
-4.7013e-06
-1.34133e-07
-4.63076e-06
-1.39546e-07
-4.55766e-06
-1.44673e-07
-4.48217e-06
-1.4951e-07
-4.40442e-06
-1.54055e-07
-4.32456e-06
-1.58306e-07
-4.24273e-06
-1.62262e-07
-4.15908e-06
-1.65924e-07
-4.07376e-06
-1.69293e-07
-3.9869e-06
-1.72371e-07
-3.89865e-06
-1.75163e-07
-3.80915e-06
-1.77671e-07
-3.71854e-06
-1.79901e-07
-3.62695e-06
-1.8186e-07
-3.5345e-06
-1.83554e-07
-3.44134e-06
-1.84989e-07
-3.34758e-06
-1.86176e-07
-3.25333e-06
-1.87123e-07
-3.15872e-06
-1.87839e-07
-3.06386e-06
-1.88336e-07
-2.96884e-06
-1.88626e-07
-2.87378e-06
-1.8872e-07
-2.77877e-06
-1.88632e-07
-2.68391e-06
-1.88375e-07
-2.58931e-06
-1.8796e-07
-2.49507e-06
-1.87399e-07
-2.40133e-06
-1.86701e-07
-2.30824e-06
-1.85859e-07
-2.21597e-06
-1.84844e-07
-2.12462e-06
-1.83614e-07
-2.03424e-06
-1.82138e-07
-1.94481e-06
-1.80415e-07
-1.85626e-06
-1.78485e-07
-1.76861e-06
-1.76426e-07
-1.68194e-06
-1.74291e-07
-1.59632e-06
-1.72092e-07
-1.51178e-06
-1.69831e-07
-1.42837e-06
-1.6751e-07
-1.34611e-06
-1.65131e-07
-1.26504e-06
-1.62701e-07
-1.18518e-06
-1.60224e-07
-1.10655e-06
-1.57707e-07
-1.02919e-06
-1.55153e-07
-9.53101e-07
-1.52563e-07
-8.78297e-07
-1.49938e-07
-8.04772e-07
-1.47292e-07
-7.32539e-07
-1.44637e-07
-6.61602e-07
-1.41977e-07
-5.91963e-07
-1.39316e-07
-5.23622e-07
-1.36657e-07
-4.56576e-07
-1.34003e-07
-3.90822e-07
-1.31358e-07
-3.26354e-07
-1.28726e-07
-2.63164e-07
-1.26114e-07
-2.01239e-07
-1.23521e-07
-1.40572e-07
-1.20947e-07
-8.11516e-08
-1.18398e-07
-2.29702e-08
-1.15874e-07
3.39864e-08
-1.13388e-07
8.97463e-08
-1.10951e-07
1.44325e-07
-1.08547e-07
1.97734e-07
-1.06173e-07
2.49987e-07
-1.03835e-07
3.01112e-07
-1.01532e-07
3.51138e-07
-9.9265e-08
4.0023e-07
-9.70346e-08
4.48346e-07
-9.49143e-08
4.95269e-07
-9.28802e-08
5.41082e-07
-9.08011e-08
5.85855e-07
-8.86996e-08
6.29621e-07
-8.66264e-08
6.72409e-07
-8.46002e-08
7.14242e-07
-8.26278e-08
7.55144e-07
-8.07102e-08
7.95138e-07
-7.88462e-08
8.34249e-07
-7.70339e-08
8.72498e-07
-7.5272e-08
9.0991e-07
-7.35593e-08
9.46507e-07
-7.1895e-08
9.82312e-07
-7.02785e-08
1.01735e-06
-6.87099e-08
1.05164e-06
-6.71888e-08
1.0852e-06
-6.57155e-08
1.11807e-06
-6.42896e-08
1.15026e-06
-6.2911e-08
1.18179e-06
-6.15795e-08
1.2127e-06
-6.02949e-08
1.243e-06
-5.90573e-08
1.27271e-06
-5.78665e-08
1.30186e-06
-5.67225e-08
1.33047e-06
-5.56246e-08
1.35857e-06
-5.45729e-08
1.38617e-06
-5.35657e-08
1.41329e-06
-5.26028e-08
1.43996e-06
-5.16814e-08
1.4662e-06
-5.07997e-08
1.49201e-06
-4.99533e-08
1.51741e-06
-4.91372e-08
1.54242e-06
-4.83434e-08
1.56704e-06
-4.75613e-08
1.59126e-06
-4.67757e-08
1.61508e-06
-4.59651e-08
1.63846e-06
-4.51006e-08
1.66137e-06
-4.41405e-08
1.68373e-06
-4.3028e-08
1.70543e-06
-4.16804e-08
1.72631e-06
-3.99802e-08
1.74612e-06
-3.77497e-08
1.76451e-06
-3.47199e-08
1.78091e-06
-3.04296e-08
1.79444e-06
-2.41229e-08
1.80413e-06
-1.42209e-08
1.80895e-06
2.07064e-09
1.80702e-06
3.1527e-08
8.8173e-08
1.79129e-06
2.45015e-07
-5.23536e-07
3.40201e-07
-5.44266e-07
3.55961e-07
-4.16296e-07
3.44602e-07
-2.92106e-07
3.1657e-07
-1.77659e-07
2.72117e-07
-7.10328e-08
2.1051e-07
2.85087e-08
1.30733e-07
1.21169e-07
3.16774e-08
2.06516e-07
-8.88396e-08
2.83852e-07
-2.3666e-07
3.52396e-07
-4.2243e-07
4.13982e-07
-6.59508e-07
4.75482e-07
-9.54382e-07
5.45487e-07
-1.29626e-06
6.27269e-07
-1.66321e-06
7.15066e-07
-2.03463e-06
7.97944e-07
-2.39403e-06
8.66633e-07
-2.7281e-06
9.1585e-07
-3.02544e-06
9.43588e-07
-3.2817e-06
9.49176e-07
-3.49886e-06
9.33484e-07
-3.68037e-06
8.99857e-07
-3.83e-06
8.52923e-07
-3.95243e-06
7.96907e-07
-4.05302e-06
7.35476e-07
-4.13708e-06
6.71893e-07
-4.20896e-06
6.0888e-07
-4.27208e-06
5.48437e-07
-4.32903e-06
4.91788e-07
-4.38166e-06
4.39529e-07
-4.43108e-06
3.9188e-07
-4.47792e-06
3.48752e-07
-4.52243e-06
3.09861e-07
-4.56467e-06
2.74815e-07
-4.60452e-06
2.43175e-07
-4.64183e-06
2.14503e-07
-4.67639e-06
1.88387e-07
-4.70803e-06
1.6445e-07
-4.73658e-06
1.42364e-07
-4.7619e-06
1.21849e-07
-4.78388e-06
1.02668e-07
-4.80245e-06
8.46245e-08
-4.81753e-06
6.75548e-08
-4.82907e-06
5.13199e-08
-4.83698e-06
3.58013e-08
-4.84119e-06
2.08981e-08
-4.84155e-06
6.51662e-09
-4.83784e-06
-7.4496e-09
-4.82993e-06
-2.11144e-08
-4.81786e-06
-3.45358e-08
-4.80173e-06
-4.77007e-08
-4.78156e-06
-6.05873e-08
-4.75742e-06
-7.31871e-08
-4.72935e-06
-8.54933e-08
-4.69744e-06
-9.74999e-08
-4.66176e-06
-1.092e-07
-4.62241e-06
-1.20585e-07
-4.57947e-06
-1.31644e-07
-4.53307e-06
-1.42366e-07
-4.4833e-06
-1.52739e-07
-4.43027e-06
-1.62749e-07
-4.37412e-06
-1.72384e-07
-4.31495e-06
-1.81631e-07
-4.25291e-06
-1.90484e-07
-4.18811e-06
-1.98932e-07
-4.12069e-06
-2.06963e-07
-4.05079e-06
-2.14572e-07
-3.97855e-06
-2.21753e-07
-3.9041e-06
-2.28501e-07
-3.8276e-06
-2.34815e-07
-3.74917e-06
-2.40692e-07
-3.66896e-06
-2.46134e-07
-3.58711e-06
-2.51141e-07
-3.50376e-06
-2.55718e-07
-3.41905e-06
-2.59869e-07
-3.33313e-06
-2.636e-07
-3.24611e-06
-2.66917e-07
-3.15814e-06
-2.69831e-07
-3.06934e-06
-2.72349e-07
-2.97985e-06
-2.74483e-07
-2.88978e-06
-2.76244e-07
-2.79926e-06
-2.77645e-07
-2.7084e-06
-2.787e-07
-2.61731e-06
-2.79422e-07
-2.52611e-06
-2.79825e-07
-2.43491e-06
-2.79926e-07
-2.3438e-06
-2.79739e-07
-2.2529e-06
-2.79278e-07
-2.1623e-06
-2.78557e-07
-2.07211e-06
-2.77585e-07
-1.98244e-06
-2.76371e-07
-1.89339e-06
-2.74911e-07
-1.80504e-06
-2.73195e-07
-1.71745e-06
-2.71206e-07
-1.63065e-06
-2.68941e-07
-1.54464e-06
-2.66419e-07
-1.45945e-06
-2.63675e-07
-1.37512e-06
-2.60755e-07
-1.29172e-06
-2.57693e-07
-1.2093e-06
-2.5451e-07
-1.12792e-06
-2.51217e-07
-1.0476e-06
-2.47825e-07
-9.6839e-07
-2.44342e-07
-8.90312e-07
-2.40779e-07
-8.13392e-07
-2.37143e-07
-7.37656e-07
-2.33443e-07
-6.63121e-07
-2.29687e-07
-5.89801e-07
-2.25882e-07
-5.17703e-07
-2.22035e-07
-4.46835e-07
-2.18159e-07
-3.77207e-07
-2.14264e-07
-3.08824e-07
-2.10358e-07
-2.4169e-07
-2.06449e-07
-1.75803e-07
-2.02543e-07
-1.11163e-07
-1.98642e-07
-4.77646e-08
-1.94755e-07
1.43977e-08
-1.90887e-07
7.53286e-08
-1.87043e-07
1.35036e-07
-1.83228e-07
1.93532e-07
-1.79443e-07
2.5083e-07
-1.75695e-07
3.06946e-07
-1.71988e-07
3.61888e-07
-1.68331e-07
4.15665e-07
-1.64727e-07
4.68292e-07
-1.61174e-07
5.19789e-07
-1.5767e-07
5.70174e-07
-1.54221e-07
6.19471e-07
-1.50829e-07
6.67709e-07
-1.47503e-07
7.14929e-07
-1.44256e-07
7.61113e-07
-1.41098e-07
8.06226e-07
-1.37994e-07
8.50321e-07
-1.34897e-07
8.93441e-07
-1.3182e-07
9.35608e-07
-1.28794e-07
9.76841e-07
-1.25834e-07
1.01716e-06
-1.22946e-07
1.05658e-06
-1.20132e-07
1.09512e-06
-1.17392e-07
1.13282e-06
-1.14726e-07
1.16967e-06
-1.12131e-07
1.20572e-06
-1.09608e-07
1.24098e-06
-1.07155e-07
1.27547e-06
-1.04772e-07
1.30922e-06
-1.02459e-07
1.34225e-06
-1.00216e-07
1.37457e-06
-9.80422e-08
1.40622e-06
-9.59383e-08
1.43721e-06
-9.39039e-08
1.46757e-06
-9.19386e-08
1.49731e-06
-9.00424e-08
1.52647e-06
-8.82152e-08
1.55506e-06
-8.6457e-08
1.5831e-06
-8.47674e-08
1.61062e-06
-8.31458e-08
1.63764e-06
-8.15919e-08
1.66418e-06
-8.01037e-08
1.69026e-06
-7.86802e-08
1.7159e-06
-7.73179e-08
1.74111e-06
-7.60139e-08
1.76592e-06
-7.47617e-08
1.79034e-06
-7.35544e-08
1.81438e-06
-7.23803e-08
1.83804e-06
-7.12245e-08
1.86133e-06
-7.00652e-08
1.88424e-06
-6.88728e-08
1.90674e-06
-6.76063e-08
1.92881e-06
-6.6208e-08
1.95037e-06
-6.45982e-08
1.97135e-06
-6.2663e-08
1.99161e-06
-6.024e-08
2.01094e-06
-5.70875e-08
2.02906e-06
-5.28428e-08
2.04554e-06
-4.69135e-08
2.05978e-06
-3.83609e-08
2.07098e-06
-2.543e-08
2.07829e-06
-5.24796e-09
2.08216e-06
2.76533e-08
8.56541e-08
2.08468e-06
9.23467e-08
-6.15887e-07
6.09154e-08
-5.12834e-07
1.18925e-08
-3.67279e-07
-4.57475e-08
-2.34463e-07
-1.15805e-07
-1.07608e-07
-2.01744e-07
1.49087e-08
-3.06581e-07
1.3334e-07
-4.32728e-07
2.47315e-07
-5.82787e-07
3.56572e-07
-7.60158e-07
4.61219e-07
-9.69605e-07
5.61842e-07
-1.21537e-06
6.59733e-07
-1.49594e-06
7.56054e-07
-1.80025e-06
8.4979e-07
-2.10949e-06
9.36509e-07
-2.40424e-06
1.00981e-06
-2.6703e-06
1.06401e-06
-2.89965e-06
1.09599e-06
-3.08914e-06
1.10535e-06
-3.23938e-06
1.09384e-06
-3.35468e-06
1.06448e-06
-3.44183e-06
1.02064e-06
-3.50809e-06
9.66114e-07
-3.55989e-06
9.04733e-07
-3.60267e-06
8.39684e-07
-3.64078e-06
7.73587e-07
-3.67742e-06
7.08529e-07
-3.71458e-06
6.46037e-07
-3.75324e-06
5.87091e-07
-3.79365e-06
5.32198e-07
-3.83562e-06
4.81503e-07
-3.87866e-06
4.3492e-07
-3.92212e-06
3.92214e-07
-3.96532e-06
3.53064e-07
-4.00762e-06
3.17107e-07
-4.04842e-06
2.83974e-07
-4.08722e-06
2.5331e-07
-4.12362e-06
2.24785e-07
-4.15727e-06
1.981e-07
-4.1879e-06
1.72993e-07
-4.21529e-06
1.49235e-07
-4.23925e-06
1.26632e-07
-4.25964e-06
1.05018e-07
-4.27634e-06
8.42532e-08
-4.28924e-06
6.42179e-08
-4.29825e-06
4.48116e-08
-4.3033e-06
2.59485e-08
-4.30434e-06
7.55235e-09
-4.30134e-06
-1.04502e-08
-4.29433e-06
-2.81198e-08
-4.28338e-06
-4.54834e-08
-4.26855e-06
-6.25376e-08
-4.24986e-06
-7.92695e-08
-4.22738e-06
-9.56663e-08
-4.20116e-06
-1.11714e-07
-4.17126e-06
-1.27399e-07
-4.13776e-06
-1.42705e-07
-4.10073e-06
-1.57614e-07
-4.06026e-06
-1.7211e-07
-4.01646e-06
-1.86175e-07
-3.96941e-06
-1.99789e-07
-3.91922e-06
-2.12935e-07
-3.86601e-06
-2.25592e-07
-3.8099e-06
-2.37744e-07
-3.751e-06
-2.49382e-07
-3.68945e-06
-2.60489e-07
-3.62536e-06
-2.71053e-07
-3.55886e-06
-2.81064e-07
-3.4901e-06
-2.90514e-07
-3.41921e-06
-2.99397e-07
-3.34631e-06
-3.07709e-07
-3.27156e-06
-3.15449e-07
-3.19507e-06
-3.22616e-07
-3.117e-06
-3.29213e-07
-3.03748e-06
-3.35244e-07
-2.95663e-06
-3.40714e-07
-2.8746e-06
-3.45631e-07
-2.79151e-06
-3.50004e-07
-2.7075e-06
-3.53844e-07
-2.62269e-06
-3.57163e-07
-2.5372e-06
-3.59974e-07
-2.45115e-06
-3.62291e-07
-2.36466e-06
-3.64131e-07
-2.27785e-06
-3.6551e-07
-2.19083e-06
-3.66446e-07
-2.1037e-06
-3.66955e-07
-2.01657e-06
-3.67057e-07
-1.92954e-06
-3.66768e-07
-1.84271e-06
-3.66106e-07
-1.75618e-06
-3.65086e-07
-1.67004e-06
-3.63723e-07
-1.58438e-06
-3.62027e-07
-1.49929e-06
-3.60006e-07
-1.41483e-06
-3.5766e-07
-1.33104e-06
-3.54992e-07
-1.24797e-06
-3.52012e-07
-1.16565e-06
-3.4874e-07
-1.08412e-06
-3.45208e-07
-1.00342e-06
-3.41451e-07
-9.23614e-07
-3.37498e-07
-8.44749e-07
-3.33374e-07
-7.66869e-07
-3.29097e-07
-6.90012e-07
-3.24682e-07
-6.1421e-07
-3.20143e-07
-5.39493e-07
-3.15495e-07
-4.65887e-07
-3.10749e-07
-3.93412e-07
-3.05917e-07