/*--------------------------------*- C++ -*----------------------------------*\
| =========                 |                                                 |
| \\      /  F ield         | OpenFOAM: The Open Source CFD Toolbox           |
|  \\    /   O peration     | Version:  v2012                                 |
|   \\  /    A nd           | Website:  www.openfoam.com                      |
|    \\/     M anipulation  |                                                 |
\*---------------------------------------------------------------------------*/
FoamFile
{
    version     2.0;
    format      ascii;
    class       volVectorField;
    location    "3000";
    object      U;
}
// * * * * * * * * * * * * * * * * * * * * * * * * * * * * * * * * * * * * * //

dimensions      [0 1 -1 0 0 0 0];


internalField   nonuniform List<vector> 
12225
(
(9.2745 -4.73371 0)
(13.1094 -1.71343 0)
(12.4777 -0.395208 0)
(11.2768 -0.0422186 0)
(10.6311 0.0141928 0)
(10.2977 -0.000766108 0)
(10.0739 -0.00391379 0)
(9.90472 -0.0203033 0)
(9.76601 -0.0504267 0)
(9.6444 -0.0475743 0)
(9.53078 -0.0363826 0)
(9.42419 -0.032371 0)
(9.32628 -0.0304161 0)
(9.23696 -0.0235577 0)
(9.15573 -0.00816821 0)
(9.08996 0.00282469 0)
(9.02943 0.010321 0)
(9.05271 0.0216436 0)
(10.2592 0.0928023 0)
(10.7814 0.199338 0)
(10.9593 0.245649 0)
(10.7468 0.229136 0)
(10.5874 0.17297 0)
(10.4521 0.115297 0)
(10.329 0.081919 0)
(10.2315 0.0693052 0)
(10.1585 0.0651704 0)
(10.0982 0.0584936 0)
(10.0454 0.0523749 0)
(9.99831 0.0500039 0)
(9.95539 0.0494821 0)
(9.91576 0.0482588 0)
(9.87816 0.0442961 0)
(9.84349 0.0387173 0)
(9.80731 0.0217147 0)
(9.77533 -0.00130711 0)
(9.87768 -0.24504 0)
(9.74284 0.00579011 0)
(10.1971 0.125737 0)
(10.3244 0.179356 0)
(10.3563 0.16154 0)
(10.3308 0.119978 0)
(10.2777 0.0911681 0)
(10.2263 0.075315 0)
(10.183 0.065765 0)
(10.1459 0.0604263 0)
(10.1137 0.0571092 0)
(10.0848 0.0543637 0)
(10.0578 0.0516449 0)
(10.0325 0.0486273 0)
(10.0087 0.0450101 0)
(9.98671 0.0400146 0)
(9.96308 0.0289154 0)
(9.93558 0.0101472 0)
(9.83416 -0.443933 0)
(9.57654 -0.163149 0)
(9.91602 0.0336618 0)
(10.0932 0.134213 0)
(10.1892 0.145458 0)
(10.2166 0.120716 0)
(10.2052 0.0984993 0)
(10.1835 0.0839011 0)
(10.161 0.074039 0)
(10.1394 0.0682383 0)
(10.1196 0.0644894 0)
(10.1012 0.0614829 0)
(10.0837 0.05882 0)
(10.0668 0.0563804 0)
(10.0505 0.0536457 0)
(10.0343 0.0494676 0)
(10.0156 0.0411326 0)
(9.99131 0.0294199 0)
(9.87825 -0.387477 0)
(9.61653 -0.196151 0)
(9.81622 -0.0186805 0)
(9.96134 0.091599 0)
(10.0698 0.122179 0)
(10.1218 0.113638 0)
(10.1356 0.0996184 0)
(10.134 0.0883399 0)
(10.1264 0.0798628 0)
(10.1163 0.0742075 0)
(10.1055 0.0703502 0)
(10.0946 0.067475 0)
(10.0836 0.0651437 0)
(10.0724 0.0630842 0)
(10.0609 0.0607683 0)
(10.0483 0.0575011 0)
(10.0329 0.052143 0)
(10.012 0.0460606 0)
(9.91439 -0.288041 0)
(9.68303 -0.185181 0)
(9.78716 -0.0532189 0)
(9.88916 0.0509837 0)
(9.98794 0.0936621 0)
(10.0476 0.0992191 0)
(10.0753 0.0940513 0)
(10.0867 0.0874031 0)
(10.0896 0.0814081 0)
(10.088 0.0769152 0)
(10.0841 0.0736923 0)
(10.0788 0.071328 0)
(10.0726 0.0694936 0)
(10.0656 0.0679495 0)
(10.0575 0.0663544 0)
(10.0478 0.0644231 0)
(10.0354 0.0619617 0)
(10.0182 0.0603184 0)
(9.93763 -0.214042 0)
(9.74855 -0.16754 0)
(9.79243 -0.0752256 0)
(9.85608 0.0162071 0)
(9.93594 0.0644083 0)
(9.99283 0.0806058 0)
(10.0262 0.0836246 0)
(10.045 0.0821118 0)
(10.0549 0.0793087 0)
(10.0594 0.0766996 0)
(10.0605 0.0746532 0)
(10.0596 0.0731475 0)
(10.057 0.0720649 0)
(10.0532 0.0713048 0)
(10.0479 0.0707403 0)
(10.0408 0.0703832 0)
(10.0312 0.0704936 0)
(10.0181 0.072263 0)
(9.95263 -0.167336 0)
(9.79947 -0.149684 0)
(9.81178 -0.0846571 0)
(9.84959 -0.00623458 0)
(9.91141 0.0418998 0)
(9.9611 0.0638659 0)
(9.9944 0.0725094 0)
(10.0157 0.0751298 0)
(10.029 0.0752199 0)
(10.0368 0.0745296 0)
(10.041 0.0737708 0)
(10.0428 0.0732139 0)
(10.0427 0.0729455 0)
(10.041 0.0730098 0)
(10.0377 0.0734411 0)
(10.0327 0.0744127 0)
(10.0255 0.0763333 0)
(10.0157 0.0801784 0)
(9.96406 -0.132092 0)
(9.84003 -0.131996 0)
(9.83337 -0.0877055 0)
(9.85306 -0.0213564 0)
(9.89928 0.0243856 0)
(9.94105 0.0494831 0)
(9.97214 0.0620788 0)
(9.99396 0.0679391 0)
(10.0087 0.0704354 0)
(10.0185 0.0714681 0)
(10.0246 0.0719723 0)
(10.0283 0.0724024 0)
(10.0299 0.0729875 0)
(10.0298 0.0738814 0)
(10.0282 0.0752364 0)
(10.0249 0.0773208 0)
(10.0198 0.0805953 0)
(10.0128 0.0858562 0)
(9.97418 -0.100208 0)
(9.87757 -0.112397 0)
(9.85857 -0.0853824 0)
(9.86388 -0.0323576 0)
(9.89487 0.00889666 0)
(9.92745 0.0351868 0)
(9.95445 0.0506575 0)
(9.97511 0.0593634 0)
(9.99023 0.0642168 0)
(10.001 0.0670702 0)
(10.0085 0.0689764 0)
(10.0136 0.0705325 0)
(10.0167 0.0720929 0)
(10.0181 0.0739179 0)
(10.018 0.0762487 0)
(10.0165 0.0794067 0)
(10.0136 0.083837 0)
(10.0094 0.0901509 0)
(9.98253 -0.0727124 0)
(9.91035 -0.0922046 0)
(9.88507 -0.0782622 0)
(9.88002 -0.0386357 0)
(9.89747 -0.00341238 0)
(9.92045 0.0221185 0)
(9.94201 0.039106 0)
(9.96006 0.0499438 0)
(9.97432 0.0568492 0)
(9.98524 0.0614431 0)
(9.99344 0.0647771 0)
(9.99947 0.0675221 0)
(10.0037 0.070127 0)
(10.0064 0.0729261 0)
(10.0079 0.0762222 0)
(10.0081 0.0803456 0)
(10.0073 0.0856815 0)
(10.0057 0.0926601 0)
(9.98894 -0.0502604 0)
(9.93733 -0.0723868 0)
(9.91073 -0.0674677 0)
(9.89917 -0.0400142 0)
(9.90567 -0.011694 0)
(9.91957 0.0113905 0)
(9.935 0.0284389 0)
(9.94939 0.0404403 0)
(9.96175 0.0488284 0)
(9.97193 0.0548656 0)
(9.98013 0.0594881 0)
(9.98662 0.0633663 0)
(9.99167 0.0669823 0)
(9.99547 0.0707111 0)
(9.99821 0.0748728 0)
(10.0001 0.0797772 0)
(10.0012 0.0857252 0)
(10.002 0.0930069 0)
(9.99348 -0.0329129 0)
(9.9582 -0.0538203 0)
(9.93368 -0.0543049 0)
(9.91899 -0.0368218 0)
(9.91756 -0.0155035 0)
(9.92367 0.00392464 0)
(9.93304 0.0196754 0)
(9.94321 0.0317353 0)
(9.95293 0.0408223 0)
(9.96166 0.0477855 0)
(9.96924 0.0533664 0)
(9.97572 0.0581554 0)
(9.98119 0.0626118 0)
(9.98578 0.0671018 0)
(9.98962 0.0719283 0)
(9.99289 0.0773519 0)
(9.99578 0.0836029 0)
(9.99855 0.0908426 0)
(9.99643 -0.0202073 0)
(9.97327 -0.03722 0)
(9.95261 -0.0400687 0)
(9.93731 -0.0298483 0)
(9.9309 -0.0148781 0)
(9.93103 0.000290661 0)
(9.93505 0.0136701 0)
(9.94106 0.0247025 0)
(9.94783 0.0335781 0)
(9.95466 0.0407669 0)
(9.96118 0.0467815 0)
(9.96724 0.0520788 0)
(9.97279 0.0570461 0)
(9.97788 0.0619938 0)
(9.98256 0.0671795 0)
(9.98696 0.0728038 0)
(9.99123 0.0790224 0)
(9.99556 0.0859261 0)
(9.99816 -0.0112928 0)
(9.9833 -0.0229413 0)
(9.96682 -0.0257869 0)
(9.95243 -0.0201158 0)
(9.94344 -0.0102983 0)
(9.93953 0.000596994 0)
(9.93941 0.0109254 0)
(9.94183 0.0200074 0)
(9.94582 0.027752 0)
(9.95069 0.0343595 0)
(9.95596 0.0401308 0)
(9.96137 0.0453772 0)
(9.96677 0.0503745 0)
(9.9721 0.0553571 0)
(9.97736 0.0605073 0)
(9.98259 0.0659661 0)
(9.98788 0.0718201 0)
(9.99335 0.0781154 0)
(9.99906 -0.00508601 0)
(9.98922 -0.0107919 0)
(9.97612 -0.0119409 0)
(9.96309 -0.0085217 0)
(9.9531 -0.00249063 0)
(9.94686 0.00450169 0)
(9.94399 0.0114559 0)
(9.94383 0.0178898 0)
(9.94569 0.0236755 0)
(9.94894 0.0288815 0)
(9.95314 0.0336637 0)
(9.95795 0.0381992 0)
(9.96315 0.0426529 0)
(9.96861 0.0471633 0)
(9.97425 0.0518348 0)
(9.98006 0.056739 0)
(9.98606 0.0619118 0)
(9.99229 0.0673559 0)
(9.99942 -0.000372234 0)
(9.99181 0.000139843 0)
(9.98042 0.0018079 0)
(9.96821 0.00455648 0)
(9.9579 0.00786601 0)
(9.9506 0.0113295 0)
(9.94641 0.0147216 0)
(9.94497 0.0179689 0)
(9.94574 0.0210847 0)
(9.94822 0.0241387 0)
(9.95194 0.0272095 0)
(9.95655 0.0303772 0)
(9.96179 0.0337029 0)
(9.96748 0.0372332 0)
(9.9735 0.0409911 0)
(9.97979 0.044984 0)
(9.98631 0.049197 0)
(9.99305 0.0536011 0)
(9.99935 0.00408025 0)
(9.9911 0.0111585 0)
(9.97897 0.0161085 0)
(9.96616 0.0186999 0)
(9.95552 0.0195634 0)
(9.94818 0.0194815 0)
(9.94418 0.0190777 0)
(9.9431 0.0187595 0)
(9.94435 0.0187697 0)
(9.94737 0.0192225 0)
(9.95169 0.0201613 0)
(9.95692 0.0215796 0)
(9.96278 0.0234492 0)
(9.96909 0.0257252 0)
(9.9757 0.0283586 0)
(9.98254 0.0312918 0)
(9.98956 0.0344698 0)
(9.99671 0.0378284 0)
(9.99882 0.00972576 0)
(9.98675 0.0240317 0)
(9.97122 0.0318213 0)
(9.95642 0.0332583 0)
(9.94558 0.0306596 0)
(9.93942 0.0262947 0)
(9.93733 0.0216819 0)
(9.93843 0.0176585 0)
(9.94183 0.0145982 0)
(9.94682 0.012592 0)
(9.95285 0.0115871 0)
(9.95954 0.0114619 0)
(9.96664 0.0120822 0)
(9.97396 0.0133115 0)
(9.98141 0.0150291 0)
(9.98892 0.0171238 0)
(9.99647 0.0195022 0)
(10.004 0.0220774 0)
(9.99757 0.0182066 0)
(9.97774 0.0404381 0)
(9.95664 0.0495518 0)
(9.93945 0.0474452 0)
(9.92962 0.0393825 0)
(9.92659 0.0296028 0)
(9.92848 0.020439 0)
(9.93355 0.0129122 0)
(9.94052 0.00728262 0)
(9.9485 0.00344178 0)
(9.95696 0.00112531 0)
(9.96557 4.75652e-05 0)
(9.97415 -5.30939e-05 0)
(9.98262 0.000594267 0)
(9.99093 0.00180782 0)
(9.99908 0.00343409 0)
(10.0071 0.00535419 0)
(10.0149 0.00746862 0)
(9.99502 0.0318119 0)
(9.96178 0.0621175 0)
(9.93372 0.0695272 0)
(9.91535 0.0600822 0)
(9.90933 0.0439139 0)
(9.9125 0.0276223 0)
(9.92085 0.01396 0)
(9.93162 0.0036018 0)
(9.9432 -0.00367046 0)
(9.95475 -0.00840261 0)
(9.96585 -0.0111703 0)
(9.97639 -0.0124635 0)
(9.98635 -0.0126801 0)
(9.99577 -0.01211 0)
(10.0047 -0.0109913 0)
(10.0133 -0.00948418 0)
(10.0215 -0.00772673 0)
(10.0294 -0.00580842 0)
(9.99018 0.0534599 0)
(9.93561 0.090138 0)
(9.90098 0.0906053 0)
(9.88516 0.0687261 0)
(9.88782 0.0417847 0)
(9.90124 0.018628 0)
(9.91858 0.00139084 0)
(9.93628 -0.010411 0)
(9.95285 -0.0179402 0)
(9.96782 -0.0223602 0)
(9.98119 -0.0246124 0)
(9.99316 -0.0253784 0)
(10.004 -0.0251402 0)
(10.0139 -0.0242197 0)
(10.023 -0.0228541 0)
(10.0315 -0.0212127 0)
(10.0396 -0.0194018 0)
(10.0473 -0.017505 0)
(9.9819 0.0862459 0)
(9.89548 0.124246 0)
(9.85818 0.109864 0)
(9.85211 0.0697451 0)
(9.87036 0.0303053 0)
(9.89846 0.00141924 0)
(9.92662 -0.0172207 0)
(9.95139 -0.0283247 0)
(9.97224 -0.0343648 0)
(9.98961 -0.037212 0)
(10.0042 -0.0380642 0)
(10.0166 -0.0377032 0)
(10.0273 -0.0365689 0)
(10.0369 -0.0350064 0)
(10.0456 -0.033191 0)
(10.0536 -0.0312751 0)
(10.061 -0.0293097 0)
(10.0681 -0.0273512 0)
(9.96925 0.133989 0)
(9.83823 0.163081 0)
(9.80793 0.122574 0)
(9.82313 0.0587728 0)
(9.86516 0.00727332 0)
(9.91144 -0.0240582 0)
(9.9504 -0.0406081 0)
(9.98057 -0.0483524 0)
(10.0036 -0.051151 0)
(10.0213 -0.0513134 0)
(10.0352 -0.0501484 0)
(10.0466 -0.0482704 0)
(10.0562 -0.0461044 0)
(10.0645 -0.0437809 0)
(10.0718 -0.0414707 0)
(10.0785 -0.0392387 0)
(10.0848 -0.0371318 0)
(10.0907 -0.0351177 0)
(9.94951 0.20714 0)
(9.76128 0.207016 0)
(9.75726 0.123463 0)
(9.81043 0.0319845 0)
(9.88386 -0.0279002 0)
(9.9488 -0.0560381 0)
(9.99535 -0.066093 0)
(10.0268 -0.0678239 0)
(10.0482 -0.0659819 0)
(10.0632 -0.0628769 0)
(10.0742 -0.0594923 0)
(10.0827 -0.0561486 0)
(10.0896 -0.0529744 0)
(10.0954 -0.0500032 0)
(10.1005 -0.0472401 0)
(10.105 -0.0448154 0)
(10.1094 -0.04264 0)
(10.1135 -0.0406162 0)
(9.91094 0.322718 0)
(9.65922 0.254542 0)
(9.71887 0.107393 0)
(9.8333 -0.011951 0)
(9.94177 -0.0726999 0)
(10.02 -0.0902307 0)
(10.0662 -0.0893742 0)
(10.0918 -0.0833054 0)
(10.1062 -0.0763487 0)
(10.1145 -0.0701802 0)
(10.1196 -0.0649798 0)
(10.1232 -0.0604779 0)
(10.1257 -0.0565609 0)
(10.1276 -0.0531814 0)
(10.1291 -0.0501488 0)
(10.1304 -0.0477177 0)
(10.132 -0.0456062 0)
(10.1336 -0.0436865 0)
(9.84404 0.43511 0)
(9.53797 0.261025 0)
(9.7269 0.0591225 0)
(9.92369 -0.0731437 0)
(10.0584 -0.121608 0)
(10.1345 -0.120281 0)
(10.1665 -0.105368 0)
(10.1757 -0.0910895 0)
(10.1758 -0.0798704 0)
(10.1726 -0.0717253 0)
(10.1686 -0.0658539 0)
(10.1646 -0.060771 0)
(10.1606 -0.0563927 0)
(10.1567 -0.0525876 0)
(10.1529 -0.0493517 0)
(10.1495 -0.0471625 0)
(10.147 -0.0454981 0)
(10.1449 -0.0438762 0)
(9.83598 0.319667 0)
(9.5502 0.0912491 0)
(9.91738 -0.0687332 0)
(10.1507 -0.160134 0)
(10.2635 -0.172183 0)
(10.3033 -0.142822 0)
(10.2976 -0.112233 0)
(10.2753 -0.0909837 0)
(10.2514 -0.0770871 0)
(10.2304 -0.0682999 0)
(10.2132 -0.0629948 0)
(10.1985 -0.0583148 0)
(10.1848 -0.0535428 0)
(10.1718 -0.0485438 0)
(10.1595 -0.0441953 0)
(10.149 -0.0424696 0)
(10.1404 -0.0409999 0)
(10.1324 -0.0382188 0)
(10.2049 -0.0633776 0)
(10.4095 -0.191709 0)
(10.7164 -0.282555 0)
(10.6879 -0.282292 0)
(10.6191 -0.230118 0)
(10.5417 -0.163752 0)
(10.4538 -0.117617 0)
(10.3751 -0.0936164 0)
(10.3136 -0.0804766 0)
(10.2654 -0.0696327 0)
(10.2261 -0.0602921 0)
(10.1921 -0.0557951 0)
(10.1623 -0.0544101 0)
(10.1334 -0.0537048 0)
(10.1074 -0.0526127 0)
(10.0868 -0.0473334 0)
(10.0672 -0.0412044 0)
(10.0486 -0.0378851 0)
(9.41631 4.45107 0)
(12.7294 2.07612 0)
(12.5649 0.621224 0)
(11.5691 0.127667 0)
(10.9311 0.00343099 0)
(10.5862 -0.0022542 0)
(10.363 0.0138709 0)
(10.2007 0.0311972 0)
(10.0779 0.0446938 0)
(9.97632 0.0440409 0)
(9.88358 0.0333275 0)
(9.79874 0.0321113 0)
(9.72197 0.0344826 0)
(9.65783 0.0326416 0)
(9.60304 0.0289735 0)
(9.54826 0.0114746 0)
(9.49654 -0.00345423 0)
(9.44985 -0.0191697 0)
(-0.0249758 0.090888 0)
(0.137473 -0.182605 0)
(0.325864 -0.304446 0)
(0.525637 -0.313552 0)
(0.702314 -0.270732 0)
(0.831838 -0.210003 0)
(0.907188 -0.145208 -8.59982e-20)
(0.936874 -0.0812943 8.66803e-20)
(0.914864 -0.0190353 0)
(0.853235 0.0356301 9.20553e-20)
(0.765397 0.0747554 0)
(0.665812 0.0923378 0)
(0.572018 0.0875824 0)
(0.499572 0.0662446 -1.44105e-19)
(0.449627 0.0372938 0)
(0.405439 0.00985844 0)
(0.344944 -0.00843908 1.89693e-19)
(0.259048 -0.00785421 0)
(0.123103 0.0109532 0)
(-0.0756583 0.111788 0)
(-0.305228 0.206902 -1.3961e-19)
(-0.601289 0.247752 0)
(-0.929229 0.269606 -7.48488e-20)
(-1.26417 0.296705 0)
(-1.60281 0.323497 0)
(-1.94167 0.33603 -4.11392e-20)
(-2.27321 0.335048 0)
(-2.58946 0.32576 3.4452e-20)
(-2.8873 0.30951 0)
(-3.16339 0.288669 -3.12911e-20)
(-3.41685 0.265543 0)
(-3.64731 0.241704 0)
(-3.8555 0.218177 0)
(-4.04255 0.195655 0)
(-4.20987 0.17451 0)
(-4.35905 0.154943 2.82037e-20)
(-4.49164 0.136985 0)
(-4.60914 0.120563 -5.552e-20)
(-4.71291 0.10555 0)
(-4.80417 0.0917869 5.47211e-20)
(-4.88396 0.0791109 0)
(-4.95318 0.0673713 0)
(-5.01258 0.0564409 -5.34976e-20)
(-5.06277 0.0462241 0)
(-5.10425 0.0366623 -5.26047e-20)
(-5.13743 0.0277395 5.21263e-20)
(-5.16271 0.0195017 0)
(-5.18047 0.0120961 5.10982e-20)
(-5.19098 0.00578606 5.05457e-20)
(-5.19442 0.000720494 0)
(-5.19204 -0.00320131 0)
(-5.18507 -0.00645437 0)
(-5.17365 -0.00940277 0)
(-5.15808 -0.0121111 0)
(-5.13854 -0.0146777 -4.6121e-20)
(-5.11517 -0.0171161 0)
(-5.08806 -0.0194378 4.42545e-20)
(-5.05733 -0.0216514 0)
(-5.02309 -0.0237592 0)
(-4.98542 -0.025763 -4.10743e-20)
(-4.94444 -0.0276633 0)
(-4.90025 -0.0294599 3.86972e-20)
(-4.85296 -0.0311526 0)
(-4.80269 -0.0327414 0)
(-4.74955 -0.0342263 0)
(-4.69367 -0.0356071 -3.33145e-20)
(-4.63515 -0.0368842 0)
(-4.57414 -0.0380587 0)
(-4.51076 -0.039131 -2.87143e-20)
(-4.44513 -0.0401019 0)
(-4.37739 -0.0409729 -2.53708e-20)
(-4.30767 -0.0417454 0)
(-4.23609 -0.0424209 0)
(-4.16281 -0.0430015 0)
(-4.08793 -0.0434888 1.79884e-20)
(-4.0116 -0.0438853 0)
(-3.93394 -0.0441928 0)
(-3.85507 -0.0444138 1.18018e-20)
(-3.77514 -0.0445504 9.60628e-21)
(-3.69424 -0.0446051 0)
(-3.61251 -0.0445805 5.0008e-21)
(-3.53007 -0.0444797 0)
(-3.44701 -0.0443066 1.77538e-22)
(-3.36345 -0.0440667 0)
(-3.2795 -0.043767 -1.03212e-20)
(-3.19524 -0.0434179 0)
(-3.11077 -0.0430332 2.15742e-20)
(-3.02616 -0.042633 0)
(-2.94149 -0.0422457 0)
(-2.85681 -0.0419131 0)
(-2.77217 -0.0416967 -4.67938e-20)
(-2.68757 -0.0416787 0)
(-2.60304 -0.0419485 6.10867e-20)
(-2.51855 -0.0425614 0)
(-2.43404 -0.0434555 -7.67771e-20)
(-2.34979 -0.044355 -8.51664e-20)
(-2.26602 -0.0447986 -9.38852e-20)
(-2.183 -0.0445803 0)
(-2.10088 -0.0439718 0)
(-2.0197 -0.0432731 0)
(-1.93946 -0.0425682 0)
(-1.86018 -0.0418682 0)
(-1.78186 -0.041174 0)
(-1.70455 -0.0404874 0)
(-1.62826 -0.0398122 0)
(-1.55302 -0.0391541 1.93159e-19)
(-1.47884 -0.0385204 2.07508e-19)
(-1.40574 -0.0379163 0)
(-1.33372 -0.0373305 0)
(-1.26283 -0.0367048 0)
(-1.1931 -0.0360472 2.74927e-19)
(-1.12452 -0.0354144 0)
(-1.0571 -0.0347998 0)
(-0.990845 -0.0342054 0)
(-0.925754 -0.0336326 0)
(-0.861828 -0.0330836 -3.91898e-19)
(-0.799066 -0.0325609 0)
(-0.737462 -0.0320676 0)
(-0.67701 -0.0316074 4.90424e-19)
(-0.617705 -0.0311816 -5.30281e-19)
(-0.559538 -0.0307939 0)
(-0.502503 -0.030455 -6.24302e-19)
(-0.446586 -0.0301894 0)
(-0.391769 -0.030042 7.43885e-19)
(-0.33803 -0.0300219 0)
(-0.285356 -0.0300894 0)
(-0.233731 -0.0302338 0)
(-0.183127 -0.0304655 0)
(-0.133519 -0.0308008 0)
(-0.0849529 -0.0312587 -2.8618e-18)
(-0.0376535 -0.0317141 -3.29693e-18)
(0.00846016 -0.0313695 0)
(0.053909 -0.0298275 0)
(0.0986721 -0.0279744 0)
(0.142611 -0.0262611 2.67624e-18)
(0.185633 -0.0247322 0)
(0.22772 -0.0233618 0)
(0.268895 -0.0221267 0)
(0.309192 -0.021007 2.03536e-18)
(0.348642 -0.0199857 -1.92961e-18)
(0.387272 -0.0190485 0)
(0.425109 -0.0181841 0)
(0.462177 -0.0173834 -1.68397e-18)
(0.4985 -0.0166389 -1.61957e-18)
(0.5341 -0.0159445 0)
(0.569001 -0.0152953 0)
(0.603224 -0.0146871 1.46188e-18)
(0.636793 -0.0141161 -1.41854e-18)
(0.66973 -0.0135795 0)
(0.702061 -0.0130742 0)
(0.733807 -0.0125981 -1.3086e-18)
(0.764992 -0.012149 0)
(0.79564 -0.0117252 0)
(0.825774 -0.0113251 -1.22136e-18)
(0.855417 -0.0109473 0)
(0.884593 -0.0105906 -1.17243e-18)
(0.913325 -0.0102537 0)
(0.941635 -0.00993562 0)
(0.969546 -0.00963533 0)
(0.997081 -0.00935171 1.09069e-18)
(1.02426 -0.00908379 0)
(1.0511 -0.00883024 0)
(1.07762 -0.00858978 0)
(1.10384 -0.00836052 0)
(1.12976 -0.00814041 0)
(1.15538 -0.00792639 0)
(1.18071 -0.00771481 9.82163e-19)
(1.20571 -0.00750028 9.69271e-19)
(1.23035 -0.00727607 0)
(1.25457 -0.00703227 0)
(1.27824 -0.00675576 0)
(1.30122 -0.00642721 -9.24045e-19)
(1.32326 -0.00601812 0)
(1.34396 -0.00548679 1.81312e-18)
(1.36286 -0.00475357 -1.79984e-18)
(1.37856 -0.00370578 -1.79116e-18)
(1.39112 -0.00195503 1.78949e-18)
(1.39139 0.00137908 -1.79529e-18)
(1.38875 0.00810852 1.80774e-18)
(1.3093 0.0198611 0)
(0.0969413 -0.271977 0)
(0.333001 -0.68159 0)
(0.512988 -0.705221 1.57203e-19)
(0.610182 -0.569389 0)
(0.660764 -0.406643 -1.11169e-19)
(0.680697 -0.25143 -1.08198e-19)
(0.674176 -0.109681 -5.6353e-20)
(0.643275 0.0181334 -5.62746e-20)
(0.599976 0.12785 0)
(0.540306 0.214053 -6.0945e-20)
(0.462996 0.268893 0)
(0.367971 0.283738 0)
(0.251429 0.25608 1.71473e-19)
(0.102938 0.211509 9.89709e-20)
(-0.0832973 0.208424 -1.84186e-19)
(-0.310977 0.275518 -1.42661e-19)
(-0.590214 0.3872 -5.67629e-20)
(-0.916276 0.515824 0)
(-1.27096 0.642578 0)
(-1.62805 0.755106 0)
(-1.98091 0.841382 -2.83417e-20)
(-2.32671 0.894783 0)
(-2.65636 0.917566 6.88271e-20)
(-2.9625 0.913596 0)
(-3.24126 0.886787 0)
(-3.49088 0.842366 1.98028e-20)
(-3.71022 0.785697 0)
(-3.90016 0.722295 -1.97544e-20)
(-4.06269 0.656328 -4.17804e-20)
(-4.20134 0.590482 2.01665e-20)
(-4.31901 0.526865 0)
(-4.41859 0.467223 0)
(-4.50279 0.412371 0)
(-4.57399 0.362649 -4.42429e-20)
(-4.63423 0.31801 -4.47466e-20)
(-4.6852 0.278179 -2.21814e-20)
(-4.72825 0.242745 0)
(-4.7645 0.211224 4.52833e-20)
(-4.79483 0.183122 0)
(-4.81994 0.157959 -4.58487e-20)
(-4.84042 0.135296 0)
(-4.85677 0.114743 0)
(-4.86939 0.0959588 4.60518e-20)
(-4.87866 0.0786565 0)
(-4.88493 0.0625965 1.38044e-19)
(-4.88849 0.0475863 -4.55669e-20)
(-4.88964 0.0334918 0)
(-4.8886 0.0202852 -4.48949e-20)
(-4.88565 0.00808449 -4.44363e-20)
(-4.88105 -0.0029475 0)
(-4.87386 -0.0128732 0)
(-4.863 -0.0219891 0)
(-4.84845 -0.0305324 0)
(-4.83012 -0.0386185 0)
(-4.80805 -0.0463164 4.01659e-20)
(-4.78227 -0.0536628 7.90611e-20)
(-4.75289 -0.0606785 -3.83875e-20)
(-4.71996 -0.0673745 0)
(-4.6836 -0.0737565 7.33798e-20)
(-4.64388 -0.0798271 -3.59131e-20)
(-4.60092 -0.0855868 0)
(-4.5548 -0.0910353 -3.32119e-20)
(-4.50563 -0.0961726 0)
(-4.45353 -0.101 0)
(-4.3986 -0.105519 -5.97789e-20)
(-4.34097 -0.10973 2.83282e-20)
(-4.28075 -0.113633 -5.45848e-20)
(-4.21806 -0.11723 5.18647e-20)
(-4.15303 -0.120527 2.42345e-20)
(-4.08578 -0.123526 0)
(-4.01644 -0.126234 2.13e-20)
(-3.94513 -0.128655 0)
(-3.872 -0.130798 0)
(-3.79716 -0.132668 0)
(-3.72074 -0.134274 1.55705e-20)
(-3.64287 -0.135624 0)
(-3.56367 -0.136729 2.3634e-20)
(-3.48327 -0.137597 -2.97718e-20)
(-3.40179 -0.13824 -7.873e-21)
(-3.31935 -0.138667 0)
(-3.23606 -0.138891 -4.06997e-21)
(-3.15204 -0.138922 0)
(-3.06739 -0.138773 -1.43952e-22)
(-2.98223 -0.138456 0)
(-2.89664 -0.137983 8.26756e-21)
(-2.81074 -0.137365 -2.38834e-20)
(-2.72461 -0.136615 -1.71271e-20)
(-2.63834 -0.135741 0)
(-2.55203 -0.134753 0)
(-2.46577 -0.133656 0)
(-2.37965 -0.132449 3.63602e-20)
(-2.29379 -0.131123 0)
(-2.20832 -0.12965 -4.68405e-20)
(-2.1234 -0.127975 0)
(-2.03916 -0.126045 1.72464e-19)
(-1.95567 -0.123886 6.38325e-20)
(-1.87295 -0.121602 6.98698e-20)
(-1.79093 -0.119297 0)
(-1.7096 -0.11703 0)
(-1.62901 -0.114796 0)
(-1.54922 -0.112574 0)
(-1.47029 -0.11035 0)
(-1.39226 -0.108119 2.19999e-19)
(-1.31516 -0.105883 2.35512e-19)
(-1.23901 -0.103644 0)
(-1.16386 -0.101405 -1.35048e-19)
(-1.08971 -0.0991699 -1.43841e-19)
(-1.01661 -0.0969394 0)
(-0.944567 -0.0947158 -3.23695e-19)
(-0.873602 -0.0925035 0)
(-0.803708 -0.0903164 1.81688e-19)
(-0.734894 -0.08816 0)
(-0.667171 -0.0860345 0)
(-0.600544 -0.0839422 -4.35313e-19)
(-0.535015 -0.0818847 0)
(-0.470585 -0.0798634 2.45321e-19)
(-0.407254 -0.0778815 0)
(-0.34502 -0.0759447 0)
(-0.283878 -0.0740617 2.90366e-19)
(-0.223818 -0.0722303 3.09719e-19)
(-0.164834 -0.0704454 0)
(-0.10692 -0.0687099 -3.47119e-19)
(-0.0500832 -0.0670239 0)
(0.00568223 -0.0653784 3.83027e-19)
(0.0604189 -0.0637673 7.66033e-19)
(0.114158 -0.062202 0)
(0.166899 -0.0606972 0)
(0.218643 -0.0592568 0)
(0.269405 -0.0578789 0)
(0.319217 -0.0565655 7.09103e-19)
(0.368151 -0.0553052 2.09605e-18)
(0.416294 -0.0539179 0)
(0.463547 -0.0522602 0)
(0.509774 -0.0504816 0)
(0.555053 -0.0487339 -6.65506e-19)
(0.599463 -0.047066 0)
(0.643029 -0.0454857 0)
(0.685769 -0.0439903 1.2877e-18)
(0.727705 -0.0425732 6.36835e-19)
(0.768858 -0.0412269 6.32312e-19)
(0.80925 -0.0399447 0)
(0.848902 -0.0387214 0)
(0.887836 -0.0375524 6.1577e-19)
(0.926071 -0.0364343 -6.09534e-19)
(0.96363 -0.0353642 0)
(1.00053 -0.0343396 0)
(1.0368 -0.0333587 -5.96677e-19)
(1.07246 -0.0324196 1.77605e-18)
(1.10753 -0.0315207 0)
(1.14202 -0.0306604 0)
(1.17598 -0.0298373 5.80213e-19)
(1.2094 -0.0290502 0)
(1.24233 -0.0282981 1.14473e-18)
(1.27477 -0.0275798 -5.68438e-19)
(1.30676 -0.0268945 0)
(1.33831 -0.0262409 5.62335e-19)
(1.36944 -0.0256181 1.1174e-18)
(1.40019 -0.0250249 0)
(1.43056 -0.0244601 0)
(1.46058 -0.0239221 -5.49521e-19)
(1.49027 -0.0234094 0)
(1.51965 -0.0229194 1.08635e-18)
(1.54872 -0.0224497 0)
(1.57751 -0.0219963 0)
(1.60603 -0.0215544 0)
(1.63426 -0.0211175 0)
(1.66221 -0.0206766 -5.28963e-19)
(1.68985 -0.0202197 -5.262e-19)
(1.71716 -0.0197304 0)
(1.74407 -0.019186 0)
(1.77048 -0.0185548 0)
(1.79627 -0.0177912 5.16138e-19)
(1.82122 -0.0168277 0)
(1.84501 -0.0155619 -1.02492e-18)
(1.86721 -0.0138152 1.02271e-18)
(1.88693 -0.0113051 1.02234e-18)
(1.90367 -0.00729379 1.02351e-18)
(1.91388 -0.000498433 1.02887e-18)
(1.92609 0.0124711 1.02029e-18)
(1.90654 0.0362522 0)
(0.118659 -0.861509 0)
(0.266967 -1.05281 0)
(0.313881 -0.823106 -1.25599e-19)
(0.312956 -0.581175 -1.08124e-19)
(0.295239 -0.370599 1.00606e-19)
(0.263712 -0.185355 1.00885e-19)
(0.217164 -0.0198295 -6.46719e-22)
(0.15489 0.127912 0)
(0.0767389 0.258355 0)
(-0.018547 0.369013 0)
(-0.134631 0.454245 0)
(-0.279719 0.514972 0)
(-0.466808 0.569136 -2.65938e-19)
(-0.706068 0.64489 0)
(-0.993167 0.7584 6.58468e-20)
(-1.31208 0.900442 5.68221e-20)
(-1.64498 1.04768 0)
(-1.97531 1.18026 0)
(-2.28818 1.28608 0)
(-2.57131 1.35914 0)
(-2.81896 1.39451 3.48197e-20)
(-3.03147 1.39104 0)
(-3.21034 1.35384 -3.22853e-20)
(-3.35858 1.29081 0)
(-3.48055 1.20917 0)
(-3.58081 1.11527 0)
(-3.66415 1.01509 -6.85532e-20)
(-3.73489 0.913919 0)
(-3.79656 0.815821 3.31166e-20)
(-3.85188 0.723545 -7.06816e-20)
(-3.90276 0.638577 0)
(-3.95048 0.56163 0)
(-3.99579 0.492741 0)
(-4.03903 0.431517 3.65559e-20)
(-4.08032 0.377306 3.714e-20)
(-4.11961 0.329336 0)
(-4.15675 0.286814 0)
(-4.19159 0.248983 -7.77526e-20)
(-4.22393 0.215152 -7.81407e-20)
(-4.25361 0.184716 7.83692e-20)
(-4.2805 0.157158 0)
(-4.30448 0.132053 0)
(-4.32546 0.109055 0)
(-4.34337 0.0878822 0)
(-4.35814 0.0683027 -7.69382e-20)
(-4.36972 0.0501179 -7.68371e-20)
(-4.37804 0.0331443 7.61923e-20)
(-4.38297 0.0171813 0)
(-4.38432 0.00197238 0)
(-4.38194 -0.0127691 0)
(-4.37579 -0.0271702 0)
(-4.3659 -0.0411428 -7.10204e-20)
(-4.35235 -0.0545986 0)
(-4.33515 -0.067525 0)
(-4.31437 -0.0799259 -6.69065e-20)
(-4.29004 -0.0918103 -6.48801e-20)
(-4.26223 -0.103185 0)
(-4.23101 -0.114055 1.24389e-19)
(-4.19647 -0.124421 -5.994e-20)
(-4.15868 -0.134284 5.81627e-20)
(-4.11774 -0.143641 0)
(-4.07373 -0.15249 0)
(-4.02676 -0.16083 0)
(-3.97694 -0.168659 0)
(-3.92436 -0.175981 4.83275e-20)
(-3.86915 -0.182796 9.35847e-20)
(-3.81141 -0.189104 4.39606e-20)
(-3.75127 -0.194909 -4.16876e-20)
(-3.68884 -0.200216 0)
(-3.62424 -0.205033 7.52267e-20)
(-3.5576 -0.209366 7.03417e-20)
(-3.48904 -0.213225 6.53403e-20)
(-3.41869 -0.216621 -6.02231e-20)
(-3.34668 -0.219564 0)
(-3.27312 -0.222068 -7.37865e-20)
(-3.19814 -0.224146 0)
(-3.12186 -0.225812 1.9989e-20)
(-3.04441 -0.227082 1.57643e-20)
(-2.96591 -0.227972 0)
(-2.88647 -0.228499 0)
(-2.8062 -0.228679 1.51375e-20)
(-2.72523 -0.228531 0)
(-2.64365 -0.228073 2.69683e-21)
(-2.56159 -0.227323 0)
(-2.47913 -0.226302 1.02327e-20)
(-2.39639 -0.225027 3.52002e-20)
(-2.31346 -0.223519 0)
(-2.23045 -0.221797 0)
(-2.14743 -0.21988 0)
(-2.06452 -0.217784 4.48354e-20)
(-1.9818 -0.215525 0)
(-1.89938 -0.213114 5.96648e-20)
(-1.81735 -0.210552 0)
(-1.7358 -0.207825 0)
(-1.6548 -0.204906 -1.67603e-19)
(-1.57439 -0.201779 0)
(-1.49458 -0.198461 -9.95994e-20)
(-1.41538 -0.194993 0)
(-1.33682 -0.191434 -1.16892e-19)
(-1.25896 -0.187822 0)
(-1.18185 -0.184174 0)
(-1.10555 -0.180498 0)
(-1.0301 -0.176799 -4.63688e-19)
(-0.955527 -0.173086 -1.65385e-19)
(-0.881872 -0.169364 0)
(-0.809158 -0.16564 0)
(-0.737409 -0.16192 0)
(-0.666648 -0.158209 0)
(-0.596893 -0.154512 2.19238e-19)
(-0.528153 -0.150834 -4.59292e-19)
(-0.460435 -0.147185 -2.431e-19)
(-0.393752 -0.143573 5.08545e-19)
(-0.328113 -0.140003 5.34376e-19)
(-0.263524 -0.136483 2.81857e-19)
(-0.199987 -0.133012 0)
(-0.137503 -0.129593 6.17262e-19)
(-0.0760729 -0.126228 0)
(-0.0156989 -0.12292 -6.74315e-19)
(0.043626 -0.119671 -3.45352e-19)
(0.101915 -0.116481 0)
(0.159174 -0.113355 6.93486e-19)
(0.215409 -0.110293 3.49005e-19)
(0.27063 -0.107298 0)
(0.324847 -0.104357 3.48887e-19)
(0.378068 -0.101462 -1.05329e-18)
(0.430302 -0.0986214 0)
(0.481562 -0.0958453 0)
(0.531866 -0.0931364 0)
(0.58123 -0.0904956 0)
(0.629678 -0.0879276 -7.08016e-19)
(0.677244 -0.0854397 -7.105e-19)
(0.723949 -0.0830473 0)
(0.769757 -0.0807354 0)
(0.814657 -0.0784641 0)
(0.858701 -0.0762348 0)
(0.901933 -0.0740637 0)
(0.944367 -0.0719592 0)
(0.986017 -0.0699238 -7.14223e-19)
(1.0269 -0.0679572 -1.08899e-21)
(1.06703 -0.0660578 0)
(1.10643 -0.0642235 0)
(1.14513 -0.0624523 -7.14027e-19)
(1.18313 -0.0607425 0)
(1.22046 -0.0590926 7.15061e-19)
(1.25714 -0.0575012 7.14191e-19)
(1.29319 -0.0559671 0)
(1.32863 -0.0544892 0)
(1.36349 -0.0530666 -7.14705e-19)
(1.39777 -0.051698 -1.4276e-18)
(1.43151 -0.0503823 0)
(1.46473 -0.0491186 0)
(1.49744 -0.0479057 0)
(1.52967 -0.0467428 -7.13383e-19)
(1.56144 -0.0456288 7.13001e-19)
(1.59277 -0.0445628 0)
(1.62368 -0.0435435 1.42313e-18)
(1.6542 -0.0425698 7.10549e-19)
(1.68434 -0.0416401 -1.42108e-18)
(1.71413 -0.0407531 0)
(1.74358 -0.0399062 0)
(1.77272 -0.0390975 -1.41728e-18)
(1.80156 -0.0383231 -7.08347e-19)
(1.83011 -0.0375793 0)
(1.8584 -0.0368602 0)
(1.88643 -0.0361584 0)
(1.91421 -0.0354639 0)
(1.94172 -0.0347632 -1.40712e-18)
(1.96896 -0.0340381 0)
(1.9959 -0.0332636 0)
(2.02249 -0.0324054 0)
(2.04866 -0.0314154 0)
(2.07428 -0.0302254 0)
(2.09919 -0.0287342 0)
(2.12312 -0.0267905 -1.39791e-18)
(2.14575 -0.0241419 0)
(2.1664 -0.0203842 0)
(2.18482 -0.0147244 -2.81749e-18)
(2.19825 -0.00584012 1.4188e-18)
(2.21289 0.00892662 -1.41677e-18)
(2.20778 0.0363273 1.41246e-18)
(0.0332848 -1.16457 0)
(0.0682553 -1.02604 3.60142e-19)
(0.0322638 -0.743155 0)
(-0.0125488 -0.502662 1.10846e-19)
(-0.0683666 -0.279753 0)
(-0.13673 -0.0699612 0)
(-0.220495 0.127059 -8.26038e-20)
(-0.322044 0.310545 0)
(-0.44351 0.480065 0)
(-0.587529 0.636199 0)
(-0.757979 0.781545 0)
(-0.960063 0.922282 0)
(-1.19623 1.06647 2.03234e-19)
(-1.46057 1.21725 9.20222e-20)
(-1.73842 1.36806 -8.33429e-20)
(-2.01148 1.5055 0)
(-2.26428 1.6159 0)
(-2.48705 1.69022 0)
(-2.67515 1.72501 0)
(-2.82705 1.72182 0)
(-2.94521 1.6844 6.00527e-20)
(-3.03536 1.6177 5.87494e-20)
(-3.10373 1.52863 -5.79158e-20)
(-3.15666 1.425 5.76354e-20)
(-3.19947 1.31346 0)
(-3.23645 1.19939 0)
(-3.27102 1.0871 5.58338e-20)
(-3.30548 0.97981 0)
(-3.34108 0.879609 0)
(-3.37833 0.787502 5.86905e-20)
(-3.4172 0.703711 6.1495e-20)
(-3.45736 0.627999 6.22045e-20)
(-3.49827 0.559831 0)
(-3.53931 0.49851 0)
(-3.57988 0.443276 -6.40052e-20)
(-3.61941 0.393375 0)
(-3.65743 0.348101 0)
(-3.6935 0.306813 6.42715e-20)
(-3.72731 0.26895 -6.59817e-20)
(-3.75856 0.234026 6.59897e-20)
(-3.78703 0.201629 0)
(-3.81254 0.171412 0)
(-3.83494 0.143078 1.29903e-19)
(-3.85411 0.11638 0)
(-3.86992 0.0911074 1.28507e-19)
(-3.8823 0.0670845 1.90853e-19)
(-3.89115 0.0441688 -1.89206e-19)
(-3.89643 0.0222406 1.252e-19)
(-3.89807 0.00118334 0)
(-3.89608 -0.0191183 0)
(-3.89051 -0.0387411 1.19734e-19)
(-3.8814 -0.057703 5.83358e-20)
(-3.86878 -0.0760003 0)
(-3.85269 -0.0936313 0)
(-3.83317 -0.110595 5.48278e-20)
(-3.81027 -0.126891 1.08105e-19)
(-3.78404 -0.142517 0)
(-3.75454 -0.157471 -1.0165e-19)
(-3.72184 -0.171748 9.98195e-20)
(-3.68602 -0.185344 -9.68467e-20)
(-3.64717 -0.198253 0)
(-3.60536 -0.210472 0)
(-3.5607 -0.221992 0)
(-3.51327 -0.232813 0)
(-3.46319 -0.242939 0)
(-3.41056 -0.252369 -7.57675e-20)
(-3.35549 -0.261103 0)
(-3.29809 -0.269145 0)
(-3.23847 -0.276504 0)
(-3.17676 -0.283186 -1.22302e-19)
(-3.11307 -0.289204 -5.65423e-20)
(-3.04752 -0.294568 -5.24398e-20)
(-2.98022 -0.299294 9.77122e-20)
(-2.91132 -0.303396 -4.51973e-20)
(-2.84091 -0.306891 3.96437e-20)
(-2.76912 -0.309799 0)
(-2.69608 -0.312138 -3.0718e-20)
(-2.6219 -0.31393 0)