/*--------------------------------*- C++ -*----------------------------------*\
  =========                 |
  \\      /  F ield         | OpenFOAM: The Open Source CFD Toolbox
   \\    /   O peration     | Website:  https://openfoam.org
    \\  /    A nd           | Version:  8
     \\/     M anipulation  |
\*---------------------------------------------------------------------------*/
FoamFile
{
    version     2.0;
    format      ascii;
    class       volScalarField;
    location    "900";
    object      nut;
}
// * * * * * * * * * * * * * * * * * * * * * * * * * * * * * * * * * * * * * //

dimensions      [0 2 -1 0 0 0 0];

internalField   nonuniform List<scalar> 
12225
(
0.0122671
0.00158819
0.000666129
0.000410105
0.000294025
0.00022806
0.000183261
0.000170805
0.000132697
0.000106844
9.46735e-05
8.80085e-05
7.89856e-05
7.2233e-05
6.77318e-05
6.45071e-05
6.12105e-05
6.46339e-05
0.0323823
0.00744532
0.00330638
0.00204329
0.00146801
0.0011445
0.000936338
0.000799975
0.000679511
0.000577234
0.000506286
0.000452432
0.00041054
0.000378806
0.000350182
0.000327767
0.000311172
0.000292818
0.0490123
0.01515
0.00728196
0.00457854
0.00330639
0.00258054
0.00211233
0.00178913
0.00154181
0.00134762
0.00119772
0.0010787
0.000982057
0.000902481
0.000835979
0.000780909
0.000735547
0.000687171
0.063054
0.0237783
0.0122894
0.00788814
0.00573397
0.00448498
0.00367412
0.00310733
0.00268471
0.00235805
0.00210111
0.00189458
0.00172531
0.00158451
0.00146613
0.00136605
0.00128146
0.00119789
0.074932
0.0328517
0.0181452
0.0119262
0.00874548
0.00686412
0.0056308
0.00476254
0.00411748
0.0036203
0.00322731
0.00290992
0.00264899
0.00243143
0.00224799
0.00209188
0.00195826
0.00183627
0.0849536
0.0420208
0.0246655
0.0166359
0.0123325
0.00972587
0.00799539
0.00676785
0.00585345
0.00514769
0.00458844
0.00413587
0.00376334
0.00345239
0.00318983
0.00296596
0.0027736
0.00260471
0.0933822
0.0510219
0.0316642
0.0219415
0.016474
0.0130717
0.0107778
0.00913551
0.0079057
0.0069534
0.0061969
0.00558367
0.00507837
0.00465632
0.00429976
0.00399561
0.00373414
0.00350818
0.0993794
0.0583363
0.0378386
0.0268568
0.0204171
0.0163053
0.0134891
0.011453
0.00991891
0.00872629
0.00777635
0.00700497
0.00636866
0.00583685
0.0053874
0.00500398
0.00467452
0.00439126
0.104023
0.0645454
0.0433804
0.0314239
0.0241571
0.0194092
0.0161097
0.0137018
0.0118766
0.0104521
0.00931443
0.00838904
0.00762485
0.00698574
0.00644544
0.00598449
0.00558858
0.00524877
0.108368
0.0708939
0.0493756
0.0365496
0.0284517
0.0230231
0.0191863
0.0163547
0.0141926
0.0124968
0.011138
0.0100303
0.00911434
0.00834759
0.0076991
0.00714579
0.00667068
0.00626298
0.112368
0.0772557
0.0557282
0.0421918
0.0332976
0.0271652
0.0227467
0.0194432
0.0168984
0.0148903
0.0132749
0.0119544
0.0108605
0.00994379
0.00916796
0.00850586
0.00793736
0.00744915
0.115994
0.0834975
0.0623053
0.0482611
0.0386474
0.0318167
0.026789
0.0229739
0.0200046
0.0176452
0.0157378
0.0141736
0.0128749
0.011785
0.0108618
0.0100736
0.00939671
0.00881464
0.119234
0.0894856
0.0689377
0.0546109
0.0443919
0.0369007
0.0312597
0.0269088
0.0234836
0.02074
0.0185096
0.0166735
0.0151449
0.01386
0.0127704
0.0118396
0.0110397
0.0103508
0.122086
0.095084
0.075415
0.0610223
0.0503361
0.0422534
0.0360231
0.0311353
0.0272402
0.024093
0.021519
0.0193909
0.017614
0.0161174
0.0148466
0.01376
0.0128257
0.0120196
0.124546
0.100135
0.0814619
0.0671725
0.056158
0.047577
0.0408126
0.0354174
0.031066
0.0275196
0.0246012
0.0221777
0.0201481
0.0184349
0.0169782
0.0157314
0.0146583
0.0137311
0.126578
0.104396
0.0866605
0.0725515
0.0613228
0.0523526
0.0451453
0.0393148
0.0345631
0.0306611
0.0274325
0.0247409
0.0224806
0.020569
0.0189413
0.0175468
0.0163454
0.0153061
0.128011
0.107322
0.0902141
0.0762353
0.0648743
0.0556509
0.0481493
0.0420254
0.0370012
0.0328553
0.0294126
0.0265352
0.0241143
0.0220643
0.0203172
0.0188191
0.0175275
0.0164083
0.128006
0.107313
0.0902048
0.0762269
0.0648674
0.0556454
0.048145
0.0420222
0.0369988
0.0328537
0.0294117
0.0265349
0.0241147
0.0220652
0.0203185
0.0188206
0.0175287
0.0164083
0.126509
0.104255
0.0864922
0.0723807
0.0611613
0.052205
0.0450128
0.0391967
0.0344584
0.0305686
0.0273506
0.0246684
0.0224163
0.0205118
0.0188903
0.0175006
0.0163024
0.0152631
0.124267
0.0995604
0.0807712
0.0664676
0.0554886
0.0469631
0.0402594
0.0349228
0.0306248
0.0271258
0.0242488
0.0218611
0.0198626
0.0181762
0.0167426
0.0155152
0.0144575
0.0135405
0.12136
0.0936399
0.0737261
0.0593348
0.0487592
0.0408249
0.0347467
0.0300003
0.0262308
0.0231928
0.0207127
0.018665
0.0169572
0.0155198
0.0142999
0.0132567
0.0123583
0.0115798
0.117686
0.0865903
0.0656967
0.0514791
0.0415374
0.0343608
0.0290184
0.0249322
0.0217348
0.0191848
0.0171184
0.0154211
0.0140106
0.0128263
0.0118229
0.0109657
0.010228
0.00958895
0.11305
0.0784122
0.056921
0.0432687
0.0342296
0.0279652
0.0234365
0.0200435
0.0174263
0.0153597
0.0136966
0.0123369
0.0112106
0.010267
0.00946866
0.00878719
0.00820101
0.00769346
0.107169
0.0691009
0.0476372
0.035029
0.0271566
0.021922
0.0182437
0.0155401
0.0134817
0.0118706
0.0105816
0.00953197
0.00866487
0.00793965
0.0073267
0.00680377
0.00635411
0.00596494
0.0996761
0.0587036
0.0381279
0.0270699
0.0205782
0.016433
0.0135949
0.0115438
0.00999923
0.00879908
0.00784341
0.00706755
0.00642793
0.00589353
0.00544234
0.00505736
0.00472636
0.00444011
0.0901097
0.0473665
0.0287363
0.0196847
0.0146976
0.0116312
0.00957853
0.00811528
0.00702332
0.00617994
0.00551058
0.0049679
0.00452123
0.00414796
0.00383348
0.00356466
0.00333342
0.00313388
0.0779076
0.0353826
0.0198606
0.0131383
0.00966107
0.00759298
0.00623352
0.0052743
0.004564
0.00401882
0.00358701
0.00323599
0.00294752
0.00270526
0.00250288
0.00232854
0.0021779
0.00204891
0.06238
0.0232554
0.0119461
0.00765493
0.00556337
0.00435256
0.00356724
0.00301639
0.00261307
0.00230792
0.00206665
0.00186689
0.00170308
0.00156251
0.0014487
0.00134759
0.00125907
0.00118357
0.0426105
0.0117794
0.0054693
0.00341385
0.00246071
0.00192005
0.00157275
0.00132885
0.00115943
0.00103846
0.000944042
0.000857504
0.000785386
0.00072053
0.000665877
0.000615683
0.000576586
0.000531896
0.0168348
0.00255985
0.00110002
0.000683428
0.000493724
0.000386803
0.000318219
0.000266307
0.000272613
0.00032205
0.000354121
0.00033789
0.000300244
0.000268116
0.000240464
0.000205925
0.00019728
0.000141055
3.99435e-09
5.91164e-07
2.0009e-06
6.28939e-06
1.08026e-05
1.35319e-05
1.32572e-05
1.17923e-05
9.06435e-06
5.94832e-06
3.52428e-06
2.02517e-06
1.41005e-06
1.50305e-06
2.06718e-06
2.5662e-06
2.45465e-06
2.06927e-06
2.5426e-06
8.6761e-06
9.02515e-06
5.55393e-06
6.75021e-06
2.65059e-05
5.67501e-05
7.44229e-05
9.09771e-05
0.000104825
0.000117046
0.000127207
0.000136111
0.000143758
0.000150449
0.000156276
0.000161358
0.000165844
0.000169818
0.000173369
0.000176551
0.00017941
0.000181975
0.000184268
0.000186309
0.000188112
0.000189692
0.000191063
0.000192235
0.000193216
0.000194005
0.000194477
0.000194975
0.000195083
0.000195145
0.00019502
0.000194721
0.000194276
0.000193677
0.00019293
0.000192036
0.000190998
0.000189817
0.000188495
0.000187036
0.00018544
0.000183712
0.000181852
0.000179863
0.000177745
0.000175504
0.00017314
0.000170655
0.000168052
0.000165333
0.000162499
0.000159552
0.000156491
0.000153318
0.000150032
0.000146632
0.000143115
0.000139478
0.000135719
0.000131833
0.000127814
0.000123655
0.000119348
0.000114882
0.000110241
0.000105406
0.000100352
9.50502e-05
8.94748e-05
8.36186e-05
7.75477e-05
7.15367e-05
6.62534e-05
6.24927e-05
6.015e-05
5.83973e-05
5.67913e-05
5.52151e-05
5.36466e-05
5.20845e-05
5.05301e-05
4.89854e-05
4.74525e-05
4.5934e-05
4.4436e-05
4.29867e-05
4.17496e-05
4.05456e-05
3.93558e-05
3.81833e-05
3.70286e-05
3.58928e-05
3.47765e-05
3.36806e-05
3.26058e-05
3.15526e-05
3.05216e-05
2.9513e-05
2.85275e-05
2.75655e-05
2.66275e-05
2.57136e-05
2.48235e-05
2.39586e-05
2.31464e-05
2.24121e-05
2.16965e-05
2.09959e-05
2.03185e-05
1.96692e-05
1.90343e-05
1.84133e-05
1.78094e-05
1.72234e-05
1.66558e-05
1.61061e-05
1.55741e-05
1.50593e-05
1.45614e-05
1.40798e-05
1.36142e-05
1.31642e-05
1.27293e-05
1.23092e-05
1.19035e-05
1.15117e-05
1.11336e-05
1.07687e-05
1.04167e-05
1.00773e-05
9.75005e-06
9.43476e-06
9.13111e-06
8.83883e-06
8.55765e-06
8.28737e-06
8.02775e-06
7.77863e-06
7.5398e-06
7.31112e-06
7.09238e-06
6.88339e-06
6.68389e-06
6.49355e-06
6.31196e-06
6.13858e-06
5.97262e-06
5.81331e-06
5.65906e-06
5.50942e-06
5.35944e-06
5.21371e-06
5.04768e-06
4.89371e-06
4.64735e-06
4.48919e-06
3.59414e-06
1.68178e-07
6.14254e-06
6.3883e-05
0.000139686
0.000183241
0.000207006
0.00021638
0.000214888
0.000206543
0.00018984
0.000169048
0.000148913
0.000138499
0.000143713
0.000157682
0.000166606
0.000169024
0.000170207
0.000175609
0.00018531
0.000200064
0.000217503
0.000234337
0.000250841
0.000262141
0.000272045
0.000280861
0.000293704
0.000312802
0.000326748
0.000339492
0.000350416
0.000360346
0.000369444
0.000377345
0.000384558
0.000391273
0.000397714
0.000404014
0.000410237
0.00041638
0.000422398
0.00042824
0.000433864
0.000439244
0.000444361
0.000449201
0.000453751
0.000458014
0.000461987
0.000465712
0.000469154
0.000472352
0.000475293
0.000477985
0.000480426
0.00048262
0.000484565
0.000486263
0.000487713
0.000488918
0.000489876
0.000490592
0.000491069
0.000491317
0.000491342
0.000491138
0.000490701
0.000490049
0.000489183
0.000488111
0.000486839
0.000485374
0.000483723
0.000481892
0.00047989
0.000477722
0.000475398
0.000472923
0.000470306
0.000467555
0.000464677
0.00046168
0.000458572
0.000455362
0.000452057
0.000448667
0.0004452
0.000441664
0.000438066
0.000434414
0.000430711
0.000426959
0.000423149
0.000419262
0.000415273
0.000411163
0.000406963
0.000402722
0.000398466
0.000394201
0.000389931
0.000385661
0.000381394
0.000377132
0.00037288
0.000368641
0.000364415
0.000360205
0.000356006
0.00035183
0.000347682
0.000343563
0.000339475
0.00033542
0.0003314
0.000327416
0.000323469
0.000319562
0.000315694
0.000311867
0.000308082
0.00030434
0.000300642
0.000296989
0.00029338
0.000289816
0.000286295
0.000282816
0.000279382
0.000275991
0.000272651
0.000269365
0.000266115
0.0002629
0.000259727
0.000256598
0.000253514
0.000250475
0.00024748
0.00024453
0.000241623
0.000238759
0.000235938
0.000233158
0.00023042
0.000227722
0.000225064
0.000222447
0.000219868
0.000217329
0.000214829
0.000212367
0.000209944
0.000207559
0.000205213
0.000202907
0.00020064
0.000198414
0.00019623
0.000194089
0.000191993
0.000189944
0.000187942
0.000185991
0.000184091
0.000182244
0.00018045
0.000178708
0.000177017
0.000175371
0.000173772
0.000172194
0.00017068
0.00016907
0.000167747
0.000165615
0.000164899
0.000162093
0.000160719
7.68602e-07
4.45417e-05
0.000164289
0.000246524
0.000299859
0.000330181
0.00034122
0.000338352
0.000325521
0.000306247
0.000286472
0.000273749
0.000271489
0.000278168
0.000288525
0.000299354
0.000312116
0.00032907
0.000350669
0.000375831
0.000403221
0.000431577
0.000469787
0.000516175
0.00056183
0.000605987
0.00064909
0.000692763
0.000732105
0.000763397
0.000788407
0.000808233
0.000823948
0.000836418
0.000846423
0.00085474
0.000862069
0.000869056
0.000876237
0.000883967
0.000892356
0.000901279
0.000910497
0.000919774
0.000928931
0.00093785
0.000946454
0.000954696
0.000962538
0.000969954
0.000976919
0.000983405
0.00098941
0.000994925
0.00099995
0.00100448
0.00100852
0.00101207
0.00101513
0.00101769
0.00101976
0.00102134
0.00102242
0.00102296
0.00102312
0.00102284
0.00102204
0.0010208
0.00101911
0.001017
0.00101446
0.00101151
0.00100818
0.00100446
0.00100038
0.000995951
0.000991185
0.000986097
0.000980704
0.00097502
0.00096906
0.000962839
0.000956373
0.000949677
0.000942766
0.000935654
0.000928357
0.000920889
0.000913263
0.000905493
0.000897591
0.000889568
0.000881432
0.000873193
0.000864859
0.000856438
0.000847945
0.000839394
0.000830802
0.000822182
0.000813544
0.000804899
0.000796254
0.000787615
0.000778992
0.00077039
0.000761816
0.000753276
0.000744776
0.000736321
0.000727917
0.000719569
0.000711281
0.000703059
0.000694905
0.000686822
0.000678815
0.000670885
0.000663036
0.00065527
0.000647588
0.000639993
0.000632487
0.000625071
0.000617746
0.000610514
0.000603373
0.000596326
0.000589372
0.000582513
0.000575748
0.000569078
0.000562502
0.000556013
0.00054961
0.000543296
0.000537073
0.000530942
0.000524902
0.000518953
0.000513093
0.000507324
0.000501642
0.000496047
0.000490538
0.000485113
0.000479773
0.000474514
0.000469337
0.00046424
0.000459223
0.000454283
0.00044942
0.000444633
0.000439921
0.000435282
0.000430716
0.000426221
0.000421796
0.00041744
0.000413151
0.000408928
0.00040477
0.000400673
0.000396635
0.000392653
0.000388723
0.000384839
0.000380996
0.000377183
0.00037339
0.000369601
0.000365793
0.000361946
0.000357987
0.000353946
0.000349465
0.000345071
0.000338581
0.000327123
5.07078e-07
8.12895e-05
0.000212971
0.000309206
0.000372991
0.000410404
0.000425979
0.00042637
0.000416359
0.000402955
0.000394799
0.000393962
0.000403188
0.000420399
0.000443154
0.000470908
0.000504261
0.000543571
0.000588029
0.00065026
0.000724123
0.000803914
0.000888178
0.000958841
0.00102127
0.0010774
0.00112781
0.00117272
0.00121199
0.00124587
0.00127512
0.00130045
0.00132257
0.00134211
0.00135965
0.00137567
0.0013906
0.00140476
0.00141842
0.00143178
0.00144494
0.00145799
0.00147095
0.00148381
0.0014965
0.00150896
0.00152109
0.0015328
0.00154399
0.00155459
0.00156454
0.00157382
0.00158239
0.00159025
0.00159739
0.0016038
0.00160947
0.00161441
0.00161861
0.00162207
0.00162479
0.00162677
0.00162793
0.00162837
0.00162824
0.00162733
0.0016257
0.00162338
0.00162039
0.00161673
0.00161243
0.00160751
0.00160199
0.00159589
0.00158923
0.00158204
0.00157433
0.00156614
0.00155747
0.00154837
0.00153884
0.00152891
0.0015186
0.00150795
0.00149696
0.00148567
0.0014741
0.00146226
0.00145018
0.00143789
0.00142539
0.0014127
0.00139985
0.00138685
0.00137372
0.00136047
0.00134712
0.00133369
0.0013202
0.00130667
0.00129311
0.00127953
0.00126596
0.0012524
0.00123886
0.00122536
0.0012119
0.0011985
0.00118516
0.00117189
0.0011587
0.0011456
0.00113259
0.00111969
0.00110689
0.0010942
0.00108163
0.00106918
0.00105685
0.00104466
0.00103259
0.00102066
0.00100887
0.000997213
0.0009857
0.00097433
0.000963104
0.000952021
0.000941084
0.000930294
0.000919649
0.000909151
0.000898796
0.00088858
0.000878503
0.000868565
0.000858767
0.000849111
0.000839595
0.000830219
0.000820982
0.000811883
0.00080292
0.000794092
0.000785396
0.000776832
0.000768396
0.000760089
0.000751907
0.000743848
0.000735913
0.000728097
0.0007204
0.00071282
0.000705355
0.000698002
0.000690761
0.00068363
0.000676605
0.000669685
0.000662868
0.000656151
0.000649531
0.000643004
0.000636567
0.000630214
0.000623939
0.000617736
0.000611594
0.0006055
0.000599439
0.00059339
0.000587322
0.000581199
0.000574955
0.000568536
0.000561759
0.000554568
0.000546326
0.000530135
1.49343e-06
0.000102059
0.000235124
0.000355061
0.000433978
0.000481488
0.000505126
0.000513595
0.00051517
0.000516158
0.000523037
0.000539198
0.000565255
0.00060024
0.000643367
0.00069465
0.000754733
0.000838151
0.000933823
0.00103004
0.00111905
0.00120345
0.0012828
0.0013555
0.00142226
0.00148368
0.00154014
0.001592
0.0016396
0.00168337
0.0017238
0.00176136
0.0017965
0.00182958
0.00186091
0.00189076
0.0019193
0.00194669
0.00197301
0.00199834
0.0020227
0.00204611
0.00206855
0.00209002
0.00211049
0.00212992
0.00214829
0.00216556
0.00218172
0.00219674
0.00221062
0.00222334
0.00223494
0.00224541
0.00225478
0.00226306
0.00227028
0.00227645
0.00228157
0.00228568
0.00228877
0.00229082
0.00229174
0.00229183
0.00229095
0.00228907
0.00228624
0.00228247
0.00227778
0.0022722
0.00226576
0.00225847
0.00225037
0.00224149
0.00223186
0.00222151
0.00221047
0.00219876
0.00218643
0.0021735
0.00216001
0.00214597
0.00213144
0.00211643
0.00210098
0.00208511
0.00206887
0.00205227
0.00203535
0.00201814
0.00200065
0.00198293
0.00196498
0.00194685
0.00192854
0.00191008
0.0018915
0.00187282
0.00185406
0.00183525
0.00181641
0.00179755
0.00177869
0.00175985
0.00174105
0.0017223
0.00170361
0.001685
0.00166648
0.00164806
0.00162975
0.00161156
0.0015935
0.00157558
0.0015578
0.00154018
0.00152273
0.00150543
0.00148831
0.00147137
0.00145461
0.00143803
0.00142164
0.00140544
0.00138943
0.00137362
0.00135801
0.00134259
0.00132737
0.00131236
0.00129754
0.00128292
0.00126849
0.00125426
0.00124022
0.00122638
0.00121272
0.00119926
0.00118599
0.00117291
0.00116002
0.00114732
0.0011348
0.00112247
0.00111031
0.00109834
0.00108654
0.00107491
0.00106345
0.00105217
0.00104105
0.00103009
0.00101929
0.00100865
0.00099817
0.000987841
0.000977661
0.000967629
0.000957742
0.000947997
0.00093839
0.000928918
0.000919578
0.000910364
0.000901271
0.000892294
0.000883424
0.000874653
0.000865969
0.000857357
0.000848799
0.000840268
0.000831732
0.000823146
0.000814443
0.000805552
0.000796309
0.000786565
0.000776597
0.000756777
2.27168e-06
0.000118202
0.000256369
0.000390153
0.000487243
0.000549162
0.000587027
0.000610491
0.00062825
0.000647574
0.000673717
0.000709329
0.000755146
0.00081144
0.000878616
0.000969119
0.00107425
0.00117597
0.0012752
0.0013707
0.0014614
0.0015474
0.00162864
0.0017051
0.00177707
0.00184489
0.0019089
0.00196945
0.00202687
0.00208148
0.0021336
0.00218353
0.00223151
0.00227775
0.00232242
0.00236564
0.00240749
0.00244802
0.00248728
0.00252527
0.00256198
0.00259739
0.00263149
0.00266422
0.00269556
0.00272547
0.00275389
0.0027808
0.00280616
0.00282993
0.00285209
0.00287261
0.00289147
0.00290868
0.00292422
0.00293808
0.00295028
0.00296082
0.00296972
0.00297698
0.00298264
0.00298672
0.00298914
0.00299004
0.00298958
0.00298761
0.00298427
0.00297957
0.00297356
0.00296631
0.00295786
0.00294827
0.00293759
0.00292586
0.00291314
0.00289948
0.00288491
0.0028695
0.00285328
0.00283629
0.00281857
0.00280018
0.00278115
0.00276151
0.00274132
0.00272062
0.00269943
0.0026778
0.00265577
0.00263337
0.00261064
0.00258761
0.00256431
0.00254078
0.00251705
0.00249314
0.00246908
0.00244491
0.00242065
0.00239632
0.00237196
0.00234759
0.00232322
0.00229889
0.0022746
0.00225038
0.00222625
0.00220222
0.00217831
0.00215452
0.00213088
0.0021074
0.00208409
0.00206095
0.00203801
0.00201526
0.00199272
0.00197039
0.00194828
0.0019264
0.00190475
0.00188333
0.00186215
0.00184122
0.00182053
0.00180009
0.0017799
0.00175996
0.00174027
0.00172084
0.00170165
0.00168273
0.00166405
0.00164561
0.00162743
0.00160948
0.00159178
0.00157433
0.00155712
0.00154014
0.00152341
0.00150691
0.00149065
0.00147462
0.00145881
0.00144323
0.00142788
0.00141274
0.00139781
0.0013831
0.0013686
0.00135431
0.00134021
0.00132632
0.00131262
0.00129911
0.00128579
0.00127266
0.00125971
0.00124694
0.00123434
0.00122191
0.00120965
0.00119755
0.0011856
0.0011738
0.00116214
0.0011506
0.00113919
0.00112787
0.00111663
0.00110544
0.00109426
0.00108306
0.00107175
0.00106028
0.00104846
0.00103624
0.00102406
0.00100158
2.80553e-06
0.000126821
0.00026928
0.000407727
0.000526502
0.000608039
0.000664245
0.000706254
0.000743313
0.000782684
0.000829427
0.000886489
0.000955496
0.00104782
0.00115482
0.00126143
0.00136754
0.00147091
0.00157098
0.00166734
0.00175974
0.00184818
0.00193274
0.0020136
0.00209099
0.00216519
0.00223647
0.0023051
0.00237133
0.00243541
0.00249753
0.00255789
0.00261662
0.00267385
0.00272966
0.00278411
0.00283722
0.00288902
0.0029395
0.00298864
0.00303641
0.00308277
0.00312768
0.00317109
0.00321294
0.00325319
0.00329179
0.00332867
0.0033638
0.00339711
0.00342858
0.00345816
0.00348581
0.00351152
0.00353524
0.00355696
0.00357667
0.00359436
0.00361001
0.00362363
0.00363523
0.00364481
0.00365239
0.00365801
0.00366166
0.00366328
0.0036632
0.00366121
0.00365743
0.00365192
0.00364471
0.00363587
0.00362545
0.00361352
0.00360014
0.00358537
0.00356928
0.00355194
0.00353341
0.00351376
0.00349306
0.00347137
0.00344877
0.00342531
0.00340106
0.00337608
0.00335043
0.00332418
0.00329737
0.00327007
0.00324231
0.00321416
0.00318565
0.00315684
0.00312776
0.00309845
0.00306895
0.0030393
0.00300953
0.00297968
0.00294978
0.00291986
0.00288994
0.00286006
0.00283024
0.00280049
0.00277085
0.00274133
0.00271195
0.00268273
0.00265369
0.00262483
0.00259618
0.00256774
0.00253954
0.00251157
0.00248385
0.00245639
0.00242919
0.00240227
0.00237562
0.00234926
0.00232319
0.00229742
0.00227194
0.00224675
0.00222187
0.0021973
0.00217302
0.00214905
0.00212539
0.00210203
0.00207896
0.0020562
0.00203374
0.00201157
0.00198969
0.00196811
0.00194682
0.00192582
0.0019051
0.00188467
0.00186452
0.00184464
0.00182505
0.00180572
0.00178665
0.00176785
0.00174931
0.00173102
0.00171299
0.0016952
0.00167765
0.00166035
0.00164328
0.00162644
0.00160983
0.00159344
0.00157727
0.00156131
0.00154557
0.00153003
0.00151469
0.00149955
0.00148459
0.00146982
0.00145521
0.00144077
0.00142647
0.0014123
0.00139824
0.00138425
0.00137031
0.00135636
0.00134233
0.00132816
0.00131368
0.00129893
0.00128392
0.00125967
2.94243e-06
0.000128735
0.000270669
0.000407307
0.000538109
0.000641779
0.000719043
0.000780496
0.000836301
0.000894158
0.000961762
0.00105373
0.00116336
0.00128509
0.00140068
0.00151195
0.00161979
0.00172436
0.00182562
0.00192349
0.00201799
0.00210919
0.00219725
0.00228235
0.0023647
0.00244453
0.00252207
0.00259753
0.00267109
0.00274293
0.0028132
0.002882
0.00294943
0.00301555
0.00308042
0.00314403
0.0032064
0.00326752
0.00332734
0.00338584
0.00344296
0.00349865
0.00355285
0.0036055
0.00365654
0.00370589
0.00375349
0.00379928
0.0038432
0.00388519
0.0039252
0.00396317
0.00399905
0.00403281
0.0040644
0.0040938
0.00412098
0.00414591
0.00416858
0.00418898
0.00420711
0.00422296
0.00423654
0.00424787
0.00425696
0.00426383
0.00426855
0.00427101
0.00427144
0.00426979
0.00426613
0.00426048
0.00425292
0.00424349
0.00423226
0.00421928
0.00420464
0.00418838
0.00417058
0.00415132
0.00413065
0.00410866
0.00408541
0.00406098
0.00403544
0.00400887
0.00398132
0.00395288
0.00392361
0.00389358
0.00386285
0.00383149
0.00379955
0.00376711
0.00373421
0.00370091
0.00366727
0.00363333
0.00359915
0.00356478
0.00353025
0.00349561
0.00346091
0.00342617
0.00339144
0.00335674
0.00332211
0.00328757
0.00325315
0.00321888
0.00318478
0.00315086
0.00311715
0.00308368
0.00305044
0.00301746
0.00298475
0.00295232
0.00292018
0.00288835
0.00285683
0.00282563
0.00279475
0.0027642
0.00273399
0.00270412
0.00267459
0.00264541
0.00261657
0.00258808
0.00255994
0.00253214
0.0025047
0.00247759
0.00245083
0.00242441
0.00239833
0.00237259
0.00234718
0.0023221
0.00229736
0.00227294
0.00224885
0.00222508
0.00220163
0.00217849
0.00215565
0.00213313
0.0021109
0.00208897
0.00206733
0.00204598
0.00202491
0.00200412
0.0019836
0.00196335
0.00194337
0.00192365
0.00190419
0.00188498
0.00186601
0.00184729
0.0018288
0.00181055
0.00179251
0.00177469
0.00175707
0.00173964
0.0017224
0.00170531
0.00168835
0.00167151
0.00165473
0.00163796
0.00162115
0.00160422
0.00158702
0.00156962
0.00155169
0.00152555
2.75938e-06
0.000125268
0.000264044
0.000395769
0.000520542
0.000633075
0.000727063
0.000808269
0.000891332
0.000986679
0.00109593
0.00122063
0.00135704
0.00148456
0.00160487
0.00171989
0.00183061
0.00193738
0.00204053
0.00214041
0.00223724
0.00233121
0.00242253
0.00251139
0.00259801
0.00268259
0.00276532
0.00284637
0.00292589
0.00300402
0.00308086
0.00315649
0.00323096
0.00330432
0.00337656
0.0034477
0.0035177
0.00358652
0.00365413
0.00372045
0.00378544
0.00384901
0.0039111
0.00397162
0.0040305
0.00408766
0.00414302
0.00419651
0.00424806
0.00429759
0.00434505
0.00439036
0.00443348
0.00447436
0.00451294
0.00454918
0.00458306
0.00461454
0.00464361
0.00467023
0.00469441
0.00471614
0.00473542
0.00475225
0.00476665
0.00477864
0.00478825
0.00479548
0.00480041
0.00480298
0.00480337
0.00480155
0.00479759
0.00479153
0.00478342
0.00477334
0.00476134
0.00474749
0.00473185
0.00471449
0.00469548
0.00467489
0.0046528
0.00462928
0.00460439
0.00457822
0.00455083
0.00452231
0.00449271
0.00446211
0.00443059
0.0043982
0.00436502
0.00433112
0.00429655
0.00426138
0.00422567
0.00418948
0.00415287
0.0041159
0.00407861
0.00404107
0.00400331
0.00396539
0.00392734
0.00388922
0.00385106
0.0038129
0.00377477
0.0037367
0.00369873
0.00366089
0.00362319
0.00358568
0.00354836
0.00351127
0.00347441
0.00343781
0.00340149
0.00336546
0.00332972
0.0032943
0.00325921
0.00322444
0.00319002
0.00315595
0.00312223
0.00308887
0.00305588
0.00302325
0.00299099
0.00295911
0.00292759
0.00289645
0.00286567
0.00283527
0.00280523
0.00277556
0.00274626
0.00271733
0.00268876
0.00266054
0.00263269
0.00260519
0.00257804
0.00255124
0.00252478
0.00249866
0.00247287
0.00244742
0.00242229
0.00239748
0.002373
0.00234882
0.00232495
0.00230139
0.00227813
0.00225516
0.00223249
0.00221009
0.00218798
0.00216615
0.00214458
0.00212328
0.00210222
0.00208142
0.00206085
0.0020405
0.00202036
0.00200041
0.00198062
0.00196096
0.00194139
0.00192187
0.00190231
0.00188266
0.00186277
0.00184271
0.00182196
0.00179364
2.34435e-06
0.000117989
0.000252847
0.000380973
0.000503946
0.000620482
0.000731376
0.000840489
0.000955421
0.00108133
0.00121945
0.00136923
0.00151154
0.00164354
0.00176781
0.00188624
0.00199996
0.00210961
0.00221558
0.00231807
0.00241747
0.00251418
0.00260849
0.00270065
0.00279089
0.00287941
0.00296641
0.00305202
0.0031364
0.00321964
0.00330183
0.00338303
0.00346327
0.00354256
0.00362091
0.00369827
0.00377462
0.0038499
0.00392404
0.00399698
0.00406862
0.00413889
0.0042077
0.00427495
0.00434056
0.00440444
0.00446649
0.00452663
0.00458478
0.00464086
0.0046948
0.00474651
0.00479595
0.00484305
0.00488775
0.00493002
0.00496981
0.00500709
0.00504182
0.00507399
0.00510359
0.00513059
0.00515502
0.00517685
0.00519612
0.00521282
0.00522699
0.00523864
0.00524781
0.00525454
0.00525886
0.00526079
0.00526045
0.00525784
0.00525303
0.00524606
0.00523701
0.00522593
0.00521289
0.00519795
0.00518119
0.00516267
0.00514246
0.00512065
0.00509729
0.00507246
0.00504623
0.00501869
0.00498989
0.00495991
0.00492883
0.00489671
0.00486361
0.00482961
0.00479478
0.00475918
0.00472287
0.00468591
0.00464838
0.00461032
0.0045718
0.00453287
0.00449359
0.004454
0.00441416
0.00437411
0.00433391
0.00429358
0.00425317
0.00421273
0.00417228
0.00413186
0.00409151
0.00405125
0.00401111
0.00397113
0.00393132
0.0038917
0.00385231
0.00381315
0.00377425
0.00373562
0.00369728
0.00365925
0.00362152
0.00358412
0.00354706
0.00351034
0.00347397
0.00343795
0.0034023
0.00336701
0.0033321
0.00329755
0.00326338
0.00322959
0.00319617
0.00316313
0.00313046
0.00309818
0.00306627
0.00303473
0.00300357
0.00297278
0.00294235
0.00291229
0.0028826
0.00285327
0.00282429
0.00279566
0.00276739
0.00273946
0.00271187
0.00268461
0.0026577
0.00263111
0.00260484
0.0025789
0.00255327
0.00252795
0.00250294
0.00247824
0.00245382
0.0024297
0.00240585
0.00238228
0.00235897
0.00233591
0.00231308
0.00229046
0.00226803
0.00224575
0.00222358
0.00220147
0.00217936
0.00215716
0.00213476
0.00211218
0.00208888
0.00205822
1.92686e-06
0.000110308
0.000242563
0.000369908
0.000495649
0.000620081
0.000745009
0.000874502
0.00101187
0.0011592
0.00131664
0.00147844
0.00162626
0.00176271
0.00189082
0.00201258
0.00212928
0.00224173
0.00235046
0.00245588
0.00255827
0.00265783
0.002755
0.00285013
0.00294352
0.0030354
0.00312596
0.00321536
0.00330374
0.00339121
0.00347782
0.00356363
0.00364866
0.00373291
0.00381635
0.00389896
0.00398066
0.0040614
0.0041411
0.00421966
0.00429699
0.004373
0.00444759
0.00452064
0.00459207
0.00466176
0.00472961
0.00479554
0.00485944
0.00492123
0.00498082
0.00503814
0.00509312
0.00514569
0.00519579
0.00524337
0.00528839
0.0053308
0.00537058
0.00540769
0.00544213
0.00547388
0.00550293
0.00552929
0.00555297
0.00557397
0.00559232
0.00560804
0.00562116
0.00563172
0.00563975
0.00564529
0.0056484
0.00564912
0.00564752
0.00564364
0.00563755
0.0056293
0.00561896
0.0056066
0.00559227
0.00557606
0.00555803
0.00553825
0.00551679
0.00549373
0.00546914
0.00544309
0.00541565
0.0053869
0.0053569
0.00532573
0.00529345
0.00526013
0.00522585
0.00519065
0.00515462
0.00511781
0.00508029
0.00504212
0.00500336
0.00496407
0.0049243
0.0048841
0.00484353
0.00480264
0.00476148
0.00472009
0.00467851
0.00463679
0.00459497
0.00455309
0.00451118
0.00446927
0.0044274
0.0043856
0.0043439
0.00430233
0.0042609
0.00421965
0.0041786
0.00413776
0.00409715
0.0040568
0.00401671
0.0039769
0.00393739
0.00389819
0.0038593
0.00382074
0.00378252
0.00374463
0.0037071
0.00366991
0.00363309
0.00359663
0.00356053
0.0035248
0.00348944
0.00345444
0.00341982
0.00338558
0.0033517
0.0033182
0.00328507
0.0032523
0.00321991
0.00318788
0.00315621
0.0031249
0.00309395
0.00306336
0.00303312
0.00300323
0.00297369
0.00294448
0.00291562
0.00288709
0.0028589
0.00283103
0.00280349
0.00277626
0.00274935
0.00272274
0.00269643
0.00267042
0.00264468
0.00261922
0.002594
0.00256901
0.00254423
0.00251962
0.00249514
0.00247074
0.00244636
0.0024219
0.00239728
0.00237248
0.00234697
0.00231416
1.54347e-06
0.000102167
0.000232072
0.000359053
0.00048772
0.000618989
0.000755522
0.000899235
0.00105186
0.00121392
0.00138595
0.00155193
0.00170372
0.00184404
0.00197566
0.00210054
0.00222004
0.00233509
0.00244637
0.00255435
0.00265942
0.0027619
0.00286205
0.00296005
0.00305634
0.0031512
0.00324486
0.00333753
0.00342933
0.00352038
0.00361075
0.00370047
0.00378957
0.00387804
0.00396583
0.00405291
0.0041392
0.00422462
0.00430909
0.0043925
0.00447475
0.00455572
0.00463531
0.00471339
0.00478987
0.00486461
0.00493752
0.00500849
0.00507742
0.0051442
0.00520876
0.00527101
0.00533086
0.00538826
0.00544313
0.00549541
0.00554507
0.00559206
0.00563633
0.00567788
0.00571666
0.00575268
0.00578592
0.00581638
0.00584407
0.00586901
0.0058912
0.00591068
0.00592747
0.00594161
0.00595312
0.00596206
0.00596847
0.00597239
0.00597388
0.00597301
0.00596984
0.00596441
0.00595679
0.00594704
0.00593523
0.00592143
0.0059057
0.00588813
0.00586877
0.00584771
0.00582502
0.00580076
0.00577501
0.00574784
0.00571932
0.00568952
0.0056585
0.00562634
0.0055931
0.00555885
0.00552366
0.00548758
0.00545069
0.00541304
0.0053747
0.00533572
0.00529616
0.00525608
0.00521552
0.00517454
0.00513319
0.00509152
0.00504957
0.00500739
0.00496501
0.00492248
0.00487984
0.00483713
0.00479437
0.0047516
0.00470885
0.00466616
0.00462354
0.00458103
0.00453866
0.00449643
0.00445438
0.00441253
0.00437089
0.00432948
0.00428831
0.00424741
0.00420678
0.00416643
0.00412638