/*--------------------------------*- C++ -*----------------------------------*\
  =========                 |
  \\      /  F ield         | OpenFOAM: The Open Source CFD Toolbox
   \\    /   O peration     | Website:  https://openfoam.org
    \\  /    A nd           | Version:  8
     \\/     M anipulation  |
\*---------------------------------------------------------------------------*/
FoamFile
{
    version     2.0;
    format      ascii;
    class       volScalarField;
    location    "900";
    object      nuTilda;
}
// * * * * * * * * * * * * * * * * * * * * * * * * * * * * * * * * * * * * * //

dimensions      [0 2 -1 0 0 0 0];

internalField   nonuniform List<scalar> 
12225
(
0.0122671
0.00158833
0.000666932
0.000412201
0.000298001
0.000234418
0.000192049
0.000186517
0.000141364
0.000110263
9.73199e-05
9.07189e-05
8.20027e-05
7.63417e-05
7.17067e-05
7.0172e-05
6.81327e-05
7.40045e-05
0.0323823
0.00744533
0.00330642
0.00204338
0.00146818
0.00114477
0.000936743
0.000800566
0.000680243
0.000578059
0.000507246
0.00045356
0.000411866
0.000380371
0.00035202
0.000329993
0.000313754
0.000295881
0.0490123
0.01515
0.00728196
0.00457856
0.00330642
0.00258059
0.00211241
0.00178924
0.00154196
0.00134781
0.00119795
0.00107898
0.000982389
0.000902873
0.000836437
0.000781446
0.000736159
0.000687885
0.063054
0.0237783
0.0122894
0.00788815
0.00573398
0.004485
0.00367415
0.00310736
0.00268476
0.00235811
0.00210119
0.00189468
0.00172542
0.00158464
0.0014663
0.00136623
0.00128167
0.00119814
0.074932
0.0328517
0.0181452
0.0119262
0.00874549
0.00686413
0.00563081
0.00476256
0.0041175
0.00362032
0.00322735
0.00290996
0.00264904
0.00243149
0.00224806
0.00209196
0.00195835
0.00183637
0.0849536
0.0420208
0.0246655
0.0166359
0.0123325
0.00972587
0.0079954
0.00676785
0.00585346
0.00514771
0.00458846
0.00413589
0.00376337
0.00345242
0.00318986
0.002966
0.00277365
0.00260477
0.0933822
0.0510219
0.0316642
0.0219415
0.016474
0.0130717
0.0107779
0.00913552
0.00790571
0.00695341
0.00619691
0.00558368
0.00507838
0.00465634
0.00429978
0.00399563
0.00373417
0.00350821
0.0993794
0.0583363
0.0378386
0.0268568
0.0204171
0.0163053
0.0134892
0.011453
0.00991891
0.00872629
0.00777635
0.00700498
0.00636867
0.00583686
0.00538741
0.00500399
0.00467453
0.00439128
0.104023
0.0645454
0.0433804
0.0314239
0.0241571
0.0194092
0.0161097
0.0137018
0.0118766
0.0104521
0.00931443
0.00838904
0.00762486
0.00698575
0.00644545
0.0059845
0.00558859
0.00524878
0.108368
0.0708939
0.0493756
0.0365496
0.0284517
0.0230231
0.0191863
0.0163547
0.0141926
0.0124968
0.011138
0.0100304
0.00911434
0.0083476
0.0076991
0.00714579
0.00667069
0.00626298
0.112368
0.0772557
0.0557282
0.0421918
0.0332976
0.0271652
0.0227467
0.0194432
0.0168984
0.0148903
0.0132749
0.0119544
0.0108605
0.00994379
0.00916797
0.00850586
0.00793736
0.00744915
0.115994
0.0834975
0.0623053
0.0482611
0.0386474
0.0318167
0.026789
0.0229739
0.0200046
0.0176452
0.0157378
0.0141736
0.0128749
0.011785
0.0108618
0.0100736
0.00939671
0.00881464
0.119234
0.0894856
0.0689377
0.0546109
0.0443919
0.0369007
0.0312597
0.0269088
0.0234836
0.02074
0.0185096
0.0166735
0.0151449
0.01386
0.0127704
0.0118396
0.0110397
0.0103508
0.122086
0.095084
0.075415
0.0610223
0.0503361
0.0422534
0.0360231
0.0311353
0.0272402
0.024093
0.021519
0.0193909
0.017614
0.0161174
0.0148466
0.01376
0.0128257
0.0120196
0.124546
0.100135
0.0814619
0.0671725
0.056158
0.047577
0.0408126
0.0354174
0.031066
0.0275196
0.0246012
0.0221777
0.0201481
0.0184349
0.0169782
0.0157314
0.0146583
0.0137311
0.126578
0.104396
0.0866605
0.0725515
0.0613228
0.0523526
0.0451453
0.0393148
0.0345631
0.0306611
0.0274325
0.0247409
0.0224806
0.020569
0.0189413
0.0175468
0.0163454
0.0153061
0.128011
0.107322
0.0902141
0.0762353
0.0648743
0.0556509
0.0481493
0.0420254
0.0370012
0.0328553
0.0294126
0.0265352
0.0241143
0.0220643
0.0203172
0.0188191
0.0175275
0.0164083
0.128006
0.107313
0.0902048
0.0762269
0.0648674
0.0556454
0.048145
0.0420222
0.0369988
0.0328537
0.0294117
0.0265349
0.0241147
0.0220652
0.0203185
0.0188206
0.0175287
0.0164083
0.126509
0.104255
0.0864922
0.0723807
0.0611613
0.052205
0.0450128
0.0391967
0.0344584
0.0305686
0.0273506
0.0246684
0.0224163
0.0205118
0.0188903
0.0175006
0.0163024
0.0152631
0.124267
0.0995604
0.0807712
0.0664676
0.0554886
0.0469631
0.0402594
0.0349228
0.0306248
0.0271258
0.0242488
0.0218611
0.0198626
0.0181762
0.0167426
0.0155152
0.0144575
0.0135405
0.12136
0.0936399
0.0737261
0.0593348
0.0487592
0.0408249
0.0347467
0.0300003
0.0262308
0.0231928
0.0207127
0.018665
0.0169572
0.0155198
0.0142999
0.0132567
0.0123583
0.0115798
0.117686
0.0865903
0.0656967
0.0514791
0.0415374
0.0343608
0.0290184
0.0249322
0.0217348
0.0191848
0.0171184
0.0154211
0.0140106
0.0128263
0.0118229
0.0109657
0.010228
0.00958895
0.11305
0.0784122
0.056921
0.0432687
0.0342296
0.0279652
0.0234365
0.0200435
0.0174263
0.0153597
0.0136966
0.0123369
0.0112106
0.0102671
0.00946866
0.00878719
0.00820102
0.00769347
0.107169
0.0691009
0.0476372
0.035029
0.0271566
0.021922
0.0182437
0.0155401
0.0134817
0.0118706
0.0105816
0.00953198
0.00866488
0.00793965
0.00732671
0.00680378
0.00635412
0.00596495
0.0996761
0.0587036
0.0381279
0.0270699
0.0205782
0.016433
0.0135949
0.0115438
0.00999923
0.00879909
0.00784342
0.00706756
0.00642794
0.00589354
0.00544235
0.00505737
0.00472638
0.00444013
0.0901097
0.0473665
0.0287363
0.0196847
0.0146976
0.0116312
0.00957853
0.00811528
0.00702332
0.00617995
0.00551059
0.00496792
0.00452125
0.00414798
0.0038335
0.00356469
0.00333345
0.00313391
0.0779076
0.0353826
0.0198606
0.0131383
0.00966107
0.00759298
0.00623353
0.00527431
0.00456401
0.00401884
0.00358703
0.00323602
0.00294756
0.00270531
0.00250294
0.00232861
0.00217798
0.00204899
0.06238
0.0232554
0.0119461
0.00765494
0.00556339
0.00435258
0.00356726
0.00301643
0.00261313
0.00230799
0.00206674
0.001867
0.00170321
0.00156266
0.00144888
0.00134779
0.00125931
0.00118383
0.0426105
0.0117794
0.00546931
0.00341388
0.00246077
0.00192015
0.0015729
0.00132905
0.0011597
0.00103885
0.000944569
0.000858163
0.000786195
0.00072144
0.000667015
0.000616966
0.00057792
0.00053339
0.0168348
0.0025599
0.00110031
0.000684192
0.000495179
0.000389151
0.00032166
0.000270752
0.0002809
0.000338968
0.000384516
0.000373912
0.000344024
0.000314315
0.000286158
0.000252613
0.000249679
0.000182558
3.78126e-06
1.43224e-05
2.60298e-05
3.85382e-05
4.60115e-05
4.96626e-05
5.01553e-05
4.78134e-05
4.4623e-05
3.95543e-05
3.42199e-05
2.94487e-05
2.67712e-05
2.74487e-05
2.96326e-05
3.14824e-05
3.13394e-05
2.85155e-05
2.38738e-05
2.02116e-05
2.08239e-05
2.64231e-05
3.93419e-05
6.39026e-05
8.72003e-05
0.000100613
0.000113335
0.000124343
0.000134329
0.000142832
0.000150424
0.000157043
0.000162904
0.000168059
0.000172591
0.000176618
0.000180205
0.000183424
0.000186321
0.000188932
0.000191281
0.000193387
0.000195265
0.000196928
0.000198388
0.000199656
0.000200741
0.00020165
0.000202382
0.000202806
0.000203297
0.000203381
0.00020344
0.000203324
0.000203047
0.000202633
0.000202077
0.000201385
0.000200556
0.000199595
0.000198503
0.000197282
0.000195935
0.000194465
0.000192876
0.000191169
0.000189346
0.000187411
0.000185367
0.000183216
0.000180963
0.000178611
0.000176161
0.000173618
0.000170984
0.000168261
0.00016545
0.000162554
0.000159572
0.000156505
0.000153353
0.000150113
0.000146786
0.000143369
0.00013986
0.000136257
0.000132553
0.000128743
0.000124815
0.000120754
0.000116544
0.000112168
0.000107626
0.00010297
9.84055e-05
9.44221e-05
9.15971e-05
8.98397e-05
8.85251e-05
8.73202e-05
8.61369e-05
8.49581e-05
8.37822e-05
8.26098e-05
8.14418e-05
8.02791e-05
7.91232e-05
7.79782e-05
7.68651e-05
7.59102e-05
7.49763e-05
7.40484e-05
7.31285e-05
7.22168e-05
7.13138e-05
7.04198e-05
6.95351e-05
6.866e-05
6.7795e-05
6.69401e-05
6.60955e-05
6.52615e-05
6.44384e-05
6.36265e-05
6.2826e-05
6.20366e-05
6.12594e-05
6.05199e-05
5.98426e-05
5.9174e-05
5.85107e-05
5.78606e-05
5.72287e-05
5.6602e-05
5.59801e-05
5.53662e-05
5.47614e-05
5.41662e-05
5.35808e-05
5.30049e-05
5.24385e-05
5.18814e-05
5.13335e-05
5.07947e-05
5.02647e-05
4.97436e-05
4.92312e-05
4.87274e-05
4.82321e-05
4.77453e-05
4.72668e-05
4.67966e-05
4.63348e-05
4.58811e-05
4.54357e-05
4.49987e-05
4.45699e-05
4.41496e-05
4.37378e-05
4.33348e-05
4.29406e-05
4.25557e-05
4.21801e-05
4.18141e-05
4.14579e-05
4.11117e-05
4.07754e-05
4.04488e-05
4.01314e-05
3.98226e-05
3.95203e-05
3.92247e-05
3.8927e-05
3.86403e-05
3.83114e-05
3.80558e-05
3.7548e-05
3.73532e-05
3.63025e-05
3.49082e-05
5.89813e-06
4.05889e-05
9.24665e-05
0.000153707
0.000192552
0.000214556
0.000223348
0.00022192
0.000214077
0.000198519
0.000179503
0.000161549
0.000152481
0.000157007
0.000169321
0.000177336
0.000179534
0.000180676
0.00018563
0.000194339
0.000208075
0.00022451
0.000240374
0.000256184
0.000267065
0.000276644
0.000285194
0.000297689
0.000316338
0.000330002
0.000342515
0.000353261
0.000363041
0.000372013
0.00037981
0.000386934
0.00039357
0.00039994
0.000406172
0.000412332
0.000418414
0.000424376
0.000430166
0.000435741
0.000441076
0.000446152
0.000450954
0.00045547
0.000459701
0.000463646
0.000467345
0.000470764
0.00047394
0.000476862
0.000479536
0.000481962
0.000484142
0.000486075
0.000487763
0.000489204
0.000490401
0.000491354
0.000492066
0.00049254
0.000492787
0.000492812
0.000492609
0.000492175
0.000491526
0.000490665
0.0004896
0.000488336
0.00048688
0.000485238
0.000483419
0.000481429
0.000479275
0.000476966
0.000474508
0.000471908
0.000469176
0.000466317
0.000463341
0.000460256
0.000457069
0.000453789
0.000450425
0.000446984
0.000443476
0.000439908
0.000436286
0.000432615
0.000428896
0.00042512
0.000421269
0.000417318
0.000413249
0.000409091
0.000404894
0.000400683
0.000396465
0.000392244
0.000388024
0.000383808
0.0003796
0.000375403
0.00037122
0.000367053
0.000362902
0.000358765
0.000354653
0.00035057
0.000346518
0.0003425
0.000338515
0.000334567
0.000330657
0.000326787
0.000322957
0.000319169
0.000315424
0.000311722
0.000308065
0.000304455
0.000300891
0.000297373
0.000293902
0.000290476
0.000287094
0.000283758
0.000280468
0.000277231
0.000274049
0.000270905
0.000267799
0.000264737
0.000261721
0.000258751
0.000255829
0.000252953
0.000250123
0.000247338
0.000244599
0.000241903
0.000239252
0.000236643
0.000234077
0.000231553
0.00022907
0.000226629
0.000224229
0.000221869
0.000219549
0.00021727
0.000215031
0.000212832
0.000210674
0.000208556
0.000206481
0.000204449
0.00020246
0.000200517
0.00019862
0.000196771
0.000194972
0.000193224
0.000191528
0.000189883
0.00018829
0.000186745
0.000185245
0.000183791
0.000182355
0.000180992
0.000179508
0.000178385
0.000176289
0.000175966
0.000172987
0.000172125
1.28768e-05
7.4067e-05
0.000174305
0.000251874
0.000303656
0.000333362
0.000344213
0.000341395
0.000328798
0.000309928
0.000290647
0.000278295
0.000276105
0.00028258
0.000292644
0.000303197
0.000315665
0.00033228
0.000353513
0.000378313
0.000405387
0.000433476
0.000471392
0.000517508
0.000562957
0.000606957
0.000649936
0.000693507
0.000732771
0.000764009
0.000788981
0.000808779
0.000824475
0.000836928
0.000846921
0.000855229
0.00086255
0.000869529
0.000876702
0.000884425
0.000892805
0.000901719
0.000910928
0.000920196
0.000929345
0.000938257
0.000946853
0.000955088
0.000962924
0.000970334
0.000977294
0.000983775
0.000989775
0.000995286
0.00100031
0.00100484
0.00100888
0.00101242
0.00101547
0.00101804
0.0010201
0.00102168
0.00102276
0.00102331
0.00102346
0.00102318
0.00102239
0.00102114
0.00101946
0.00101734
0.00101481
0.00101186
0.00100853
0.00100482
0.00100074
0.000996311
0.000991548
0.000986465
0.000981076
0.000975396
0.00096944
0.000963225
0.000956764
0.000950073
0.000943168
0.000936063
0.000928772
0.000921311
0.000913692
0.000905929
0.000898035
0.000890019
0.000881892
0.000873662
0.000865336
0.000856926
0.000848442
0.000839901
0.000831319
0.00082271
0.000814084
0.00080545
0.000796817
0.000788191
0.00077958
0.000770992
0.000762431
0.000753905
0.00074542
0.000736979
0.00072859
0.000720258
0.000711987
0.000703781
0.000695644
0.000687579
0.000679589
0.000671678
0.000663848
0.000656101
0.000648439
0.000640864
0.000633378
0.000625983
0.00061868
0.000611469
0.000604352
0.000597327
0.000590397
0.000583562
0.000576822
0.000570177
0.000563626
0.000557163
0.000550787
0.000544501
0.000538306
0.000532203
0.000526191
0.000520272
0.000514442
0.000508703
0.000503052
0.000497489
0.000492012
0.00048662
0.000481313
0.000476088
0.000470945
0.000465884
0.000460901
0.000455998
0.000451172
0.000446422
0.000441747
0.000437147
0.00043262
0.000428164
0.00042378
0.000419464
0.000415217
0.000411036
0.00040692
0.000402866
0.000398872
0.000394934
0.000391049
0.000387212
0.000383415
0.00037965
0.000375906
0.000372168
0.000368411
0.000364619
0.000360716
0.000356738
0.000352319
0.000348017
0.00034156
0.000330408
2.17716e-05
0.000106434
0.000220239
0.000312835
0.000375514
0.000412497
0.000427924
0.000428312
0.000418393
0.000405124
0.000397056
0.000396228
0.000405355
0.000422396
0.000444954
0.000472506
0.000505657
0.000544775
0.000589058
0.000651103
0.000724804
0.000804467
0.000888631
0.00095923
0.00102162
0.00107771
0.00112809
0.00117298
0.00121223
0.0012461
0.00127534
0.00130066
0.00132277
0.00134231
0.00135984
0.00137586
0.00139078
0.00140494
0.0014186
0.00143195
0.00144511
0.00145816
0.00147112
0.00148397
0.00149666
0.00150912
0.00152125
0.00153295
0.00154414
0.00155474
0.00156469
0.00157396
0.00158253
0.00159039
0.00159753
0.00160394
0.00160961
0.00161455
0.00161875
0.00162221
0.00162493
0.00162691
0.00162807
0.0016285
0.00162838
0.00162747
0.00162584
0.00162352
0.00162052
0.00161687
0.00161257
0.00160765
0.00160213
0.00159603
0.00158938
0.00158218
0.00157448
0.00156628
0.00155762
0.00154851
0.00153899
0.00152906
0.00151876
0.00150811
0.00149712
0.00148584
0.00147426
0.00146243
0.00145035
0.00143806
0.00142556
0.00141288
0.00140004
0.00138704
0.00137391
0.00136066
0.00134732
0.00133389
0.0013204
0.00130688
0.00129332
0.00127975
0.00126618
0.00125263
0.0012391
0.0012256
0.00121215
0.00119875
0.00118541
0.00117215
0.00115897
0.00114587
0.00113287
0.00111997
0.00110718
0.0010945
0.00108193
0.00106949
0.00105717
0.00104498
0.00103293
0.001021
0.00100922
0.000997573
0.000986068
0.000974707
0.000963489
0.000952416
0.000941488
0.000930707
0.000920072
0.000909584
0.000899238
0.000889033
0.000878966
0.000869038
0.000859252
0.000849606
0.000840102
0.000830738
0.000821512
0.000812425
0.000803474
0.000794658
0.000785975
0.000777423
0.000769001
0.000760707
0.000752538
0.000744494
0.000736572
0.00072877
0.000721088
0.000713522
0.000706072
0.000698735
0.000691509
0.000684393
0.000677384
0.00067048
0.00066368
0.000656979
0.000650376
0.000643866
0.000637446
0.000631111
0.000624855
0.00061867
0.000612546
0.000606472
0.00060043
0.000594401
0.000588354
0.000582252
0.000576032
0.000569637
0.000562887
0.000555726
0.000547505
0.000531408
2.69711e-05
0.000122011
0.000241113
0.000357833
0.000435854
0.000483017
0.000506517
0.000514942
0.000516508
0.000517491
0.000524335
0.000540421
0.000566368
0.000601229
0.000644228
0.000695389
0.00075536
0.00083866
0.000934233
0.00103038
0.00111934
0.0012037
0.00128302
0.00135569
0.00142244
0.00148384
0.00154029
0.00159214
0.00163973
0.00168349
0.00172392
0.00176148
0.00179661
0.00182968
0.00186102
0.00189086
0.0019194
0.00194678
0.00197311
0.00199843
0.00202279
0.0020462
0.00206864
0.0020901
0.00211057
0.00213
0.00214837
0.00216564
0.0021818
0.00219682
0.00221069
0.00222342
0.00223501
0.00224548
0.00225485
0.00226313
0.00227035
0.00227651
0.00228164
0.00228575
0.00228884
0.00229089
0.00229181
0.0022919
0.00229102
0.00228914
0.00228631
0.00228254
0.00227785
0.00227227
0.00226583
0.00225854
0.00225044
0.00224156
0.00223193
0.00222158
0.00221054
0.00219884
0.00218651
0.00217358
0.00216008
0.00214605
0.00213152
0.00211651
0.00210106
0.0020852
0.00206895
0.00205236
0.00203544
0.00201822
0.00200074
0.00198302
0.00196508
0.00194694
0.00192863
0.00191018
0.0018916
0.00187292
0.00185417
0.00183536
0.00181652
0.00179766
0.0017788
0.00175997
0.00174117
0.00172242
0.00170374
0.00168513
0.00166661
0.00164819
0.00162988
0.00161169
0.00159364
0.00157572
0.00155795
0.00154034
0.00152288
0.00150559
0.00148848
0.00147154
0.00145478
0.0014382
0.00142182
0.00140562
0.00138962
0.00137381
0.0013582
0.00134279
0.00132758
0.00131256
0.00129775
0.00128313
0.00126872
0.00125449
0.00124046
0.00122662
0.00121297
0.00119951
0.00118625
0.00117317
0.00116029
0.00114759
0.00113508
0.00112275
0.0011106
0.00109863
0.00108684
0.00107522
0.00106377
0.00105249
0.00104138
0.00103043
0.00101964
0.001009
0.000998529
0.000988207
0.000978035
0.000968011
0.000958132
0.000948395
0.000938796
0.000929333
0.00092
0.000910795
0.000901711
0.000892743
0.000883882
0.00087512
0.000866446
0.000857843
0.000849295
0.000840774
0.000832248
0.000823673
0.000814981
0.000806103
0.000796872
0.000787142
0.000777186
0.000757402
3.07978e-05
0.000135318
0.000261502
0.000392463
0.000488736
0.000550341
0.00058806
0.000611447
0.000629153
0.000648425
0.000674503
0.000710039
0.000755772
0.000811983
0.000879079
0.000969499
0.00107456
0.00117623
0.00127542
0.00137089
0.00146157
0.00154755
0.00162878
0.00170523
0.00177718
0.00184499
0.001909
0.00196955
0.00202695
0.00208156
0.00213368
0.0021836
0.00223158
0.00227782
0.00232249
0.0023657
0.00240755
0.00244808
0.00248734
0.00252532
0.00256203
0.00259745
0.00263154
0.00266427
0.00269561
0.00272552
0.00275394
0.00278085
0.00280621
0.00282998
0.00285213
0.00287265
0.00289152
0.00290872
0.00292426
0.00293812
0.00295032
0.00296086
0.00296976
0.00297702
0.00298268
0.00298676
0.00298918
0.00299008
0.00298962
0.00298765
0.00298431
0.00297961
0.0029736
0.00296635
0.00295791
0.00294831
0.00293763
0.0029259
0.00291318
0.00289952
0.00288496
0.00286954
0.00285332
0.00283633
0.00281862
0.00280023
0.00278119
0.00276156
0.00274137
0.00272066
0.00269948
0.00267785
0.00265582
0.00263342
0.00261069
0.00258766
0.00256437
0.00254084
0.0025171
0.00249319
0.00246914
0.00244497
0.00242071
0.00239638
0.00237203
0.00234765
0.00232329
0.00229896
0.00227467
0.00225045
0.00222632
0.00220229
0.00217838
0.0021546
0.00213096
0.00210748
0.00208417
0.00206104
0.0020381
0.00201535
0.00199281
0.00197048
0.00194838
0.0019265
0.00190484
0.00188343
0.00186225
0.00184132
0.00182064
0.0018002
0.00178001
0.00176007
0.00174039
0.00172096
0.00170178
0.00168285
0.00166417
0.00164574
0.00162756
0.00160962
0.00159192
0.00157447
0.00155726
0.00154029
0.00152356
0.00150707
0.00149081
0.00147478
0.00145898
0.00144341
0.00142805
0.00141292
0.001398
0.00138329
0.00136879
0.0013545
0.00134041
0.00132652
0.00131283
0.00129932
0.00128601
0.00127288
0.00125994
0.00124717
0.00123458
0.00122215
0.00120989
0.0011978
0.00118586
0.00117406
0.0011624
0.00115087
0.00113946
0.00112815
0.00111691
0.00110573
0.00109456
0.00108336
0.00107206
0.00106059
0.00104879
0.00103658
0.0010244
0.00100194
3.23479e-05
0.0001425
0.000273966
0.000409846
0.000527784
0.000609003
0.000665053
0.00070697
0.000743959
0.000783267
0.000829946
0.000886944
0.000955887
0.00104815
0.00115509
0.00126166
0.00136773
0.00147107
0.00157113
0.00166747
0.00175985
0.00184828
0.00193284
0.00201369
0.00209107
0.00216526
0.00223654
0.00230517
0.0023714
0.00243547
0.00249759
0.00255795
0.00261668
0.0026739
0.00272971
0.00278415
0.00283727
0.00288907
0.00293954
0.00298868
0.00303645
0.00308281
0.00312771
0.00317112
0.00321298
0.00325323
0.00329182
0.0033287
0.00336383
0.00339714
0.00342861
0.00345819
0.00348584
0.00351155
0.00353527
0.00355699
0.0035767
0.00359438
0.00361004
0.00362366
0.00363526
0.00364484
0.00365242
0.00365804
0.00366169
0.00366331
0.00366322
0.00366123
0.00365746
0.00365194
0.00364474
0.00363589
0.00362548
0.00361355
0.00360017
0.0035854
0.00356931
0.00355197
0.00353344
0.00351379
0.00349309
0.0034714
0.0034488
0.00342534
0.00340109
0.00337611
0.00335047
0.00332421
0.00329741
0.0032701
0.00324235
0.0032142
0.00318569
0.00315688
0.00312779
0.00309848
0.00306899
0.00303934
0.00300957
0.00297972
0.00294982
0.0029199
0.00288999
0.00286011
0.00283028
0.00280054
0.0027709
0.00274138
0.002712
0.00268278
0.00265374
0.00262488
0.00259623
0.0025678
0.00253959
0.00251162
0.00248391
0.00245645
0.00242925
0.00240233
0.00237569
0.00234933
0.00232326
0.00229748
0.00227201
0.00224682
0.00222195
0.00219737
0.0021731
0.00214913
0.00212547
0.00210211
0.00207905
0.00205629
0.00203382
0.00201166
0.00198978
0.0019682
0.00194691
0.00192591
0.0019052
0.00188477
0.00186462
0.00184475
0.00182515
0.00180583
0.00178676
0.00176797
0.00174943
0.00173114
0.00171311
0.00169532
0.00167778
0.00166048
0.00164341
0.00162657
0.00160996
0.00159358
0.00157741
0.00156146
0.00154572
0.00153018
0.00151485
0.00149971
0.00148475
0.00146998
0.00145538
0.00144094
0.00142664
0.00141248
0.00139842
0.00138444
0.0013705
0.00135655
0.00134253
0.00132836
0.00131389
0.00129914
0.00128413
0.00125989
3.27957e-05
0.000144125
0.000275311
0.000409431
0.000539336
0.000642644
0.000719734
0.000781083
0.000836812
0.000894605
0.000962148
0.00105405
0.00116363
0.00128531
0.00140086
0.00151211
0.00161992
0.00172448
0.00182573
0.00192359
0.00201808
0.00210927
0.00219732
0.00228242
0.00236476
0.00244459
0.00252213
0.00259758
0.00267114
0.00274298
0.00281324
0.00288204
0.00294947
0.00301559
0.00308045
0.00314407
0.00320644
0.00326755
0.00332737
0.00338587
0.00344299
0.00349868
0.00355288
0.00360553
0.00365656
0.00370591
0.00375352
0.00379931
0.00384323
0.00388522
0.00392522
0.00396319
0.00399907
0.00403283
0.00406442
0.00409382
0.004121
0.00414593
0.0041686
0.004189
0.00420713
0.00422298
0.00423656
0.00424789
0.00425698
0.00426385
0.00426857
0.00427103
0.00427146
0.00426981
0.00426615
0.0042605
0.00425294
0.00424351
0.00423228
0.0042193
0.00420466
0.0041884
0.0041706
0.00415134
0.00413067
0.00410868
0.00408543
0.00406101
0.00403547
0.00400889
0.00398134
0.0039529
0.00392363
0.0038936
0.00386287
0.00383151
0.00379958
0.00376713
0.00373424
0.00370094
0.0036673
0.00363336
0.00359918
0.00356481
0.00353028
0.00349564
0.00346094
0.0034262
0.00339147
0.00335677
0.00332214
0.0032876
0.00325318
0.00321891
0.00318481
0.0031509
0.00311719
0.00308371
0.00305048
0.0030175
0.00298479
0.00295236
0.00292023
0.00288839
0.00285687
0.00282567
0.0027948
0.00276425
0.00273404
0.00270417
0.00267464
0.00264546
0.00261662
0.00258813
0.00255999
0.0025322
0.00250475
0.00247765
0.00245089
0.00242447
0.00239839
0.00237265
0.00234724
0.00232217
0.00229743
0.00227301
0.00224892
0.00222515
0.0022017
0.00217856
0.00215573
0.00213321
0.00211098
0.00208905
0.00206741
0.00204606
0.00202499
0.00200421
0.00198369
0.00196345
0.00194347
0.00192375
0.00190429
0.00188508
0.00186612
0.0018474
0.00182891
0.00181065
0.00179262
0.0017748
0.00175719
0.00173976
0.00172252
0.00170543
0.00168848
0.00167163
0.00165486
0.0016381
0.00162129
0.00160436
0.00158717
0.00156977
0.00155184
0.0015257
3.22375e-05
0.000141196
0.000268904
0.000398016
0.000521853
0.000633964
0.000727738
0.000808816
0.000891782
0.000987046
0.00109622
0.00122087
0.00135723
0.00148472
0.00160501
0.00172001
0.00183072
0.00193748
0.00204062
0.00214049
0.00223731
0.00233128
0.00242259
0.00251145
0.00259807
0.00268264
0.00276537
0.00284641
0.00292593
0.00300406
0.0030809
0.00315652
0.003231
0.00330435
0.0033766
0.00344773
0.00351773
0.00358655
0.00365415
0.00372048
0.00378546
0.00384903
0.00391112
0.00397164
0.00403052
0.00408768
0.00414304
0.00419653
0.00424808
0.00429761
0.00434507
0.00439038
0.0044335
0.00447437
0.00451295
0.0045492
0.00458308
0.00461456
0.00464362
0.00467025
0.00469443
0.00471615
0.00473543
0.00475226
0.00476667
0.00477866
0.00478826
0.0047955
0.00480043
0.004803
0.00480338
0.00480157
0.0047976
0.00479154
0.00478344
0.00477336
0.00476136
0.0047475
0.00473186
0.0047145
0.0046955
0.00467491
0.00465282
0.00462929
0.00460441
0.00457824
0.00455085
0.00452232
0.00449273
0.00446213
0.00443061
0.00439822
0.00436504
0.00433114
0.00429657
0.0042614
0.00422569
0.0041895
0.00415289
0.00411592
0.00407863
0.00404109
0.00400333
0.00396541
0.00392737
0.00388925
0.00385108
0.00381292
0.00377479
0.00373673
0.00369876
0.00366091
0.00362322
0.00358571
0.00354839
0.0035113
0.00347444
0.00343785
0.00340152
0.00336549
0.00332975
0.00329434
0.00325924
0.00322448
0.00319006
0.00315599
0.00312227
0.00308891
0.00305592
0.00302329
0.00299103
0.00295915
0.00292763
0.00289649
0.00286572
0.00283531
0.00280528
0.00277561
0.00274631
0.00271738
0.00268881
0.00266059
0.00263274
0.00260524
0.00257809
0.00255129
0.00252483
0.00249871
0.00247293
0.00244748
0.00242235
0.00239755
0.00237306
0.00234889
0.00232502
0.00230146
0.0022782
0.00225523
0.00223256
0.00221017
0.00218806
0.00216622
0.00214466
0.00212335
0.00210231
0.0020815
0.00206093
0.00204059
0.00202045
0.0020005
0.00198071
0.00196105
0.00194149
0.00192196
0.00190241
0.00188276
0.00186288
0.00184282
0.00182207
0.00179375
3.08682e-05
0.00013511
0.00025811
0.000383393
0.000505344
0.000621407
0.000732043
0.000840995
0.000955813
0.00108163
0.00121969
0.00136942
0.0015117
0.00164367
0.00176792
0.00188634
0.00200005
0.00210969
0.00221565
0.00231813
0.00241753
0.00251424
0.00260854
0.0027007
0.00279093
0.00287946
0.00296645
0.00305206
0.00313643
0.00321967
0.00330186
0.00338306
0.0034633
0.00354259
0.00362093
0.0036983
0.00377465
0.00384992
0.00392407
0.003997
0.00406864
0.00413891
0.00420772
0.00427497
0.00434058
0.00440445
0.00446651
0.00452665
0.0045848
0.00464088
0.00469481
0.00474653
0.00479597
0.00484306
0.00488777
0.00493004
0.00496982
0.0050071
0.00504183
0.005074
0.0051036
0.00513061
0.00515503
0.00517687
0.00519613
0.00521283
0.005227
0.00523865
0.00524783
0.00525455
0.00525887
0.0052608
0.00526046
0.00525786
0.00525304
0.00524607
0.00523702
0.00522594
0.0052129
0.00519796
0.0051812
0.00516268
0.00514248
0.00512066
0.0050973
0.00507247
0.00504625
0.0050187
0.00498991
0.00495993
0.00492884
0.00489672
0.00486363
0.00482963
0.0047948
0.00475919
0.00472288
0.00468593
0.00464839
0.00461034
0.00457182
0.00453289
0.00449361
0.00445402
0.00441418
0.00437413
0.00433392
0.0042936
0.00425319
0.00421275
0.0041723
0.00413188
0.00409153
0.00405127
0.00401114
0.00397115
0.00393134
0.00389173
0.00385233
0.00381317
0.00377427
0.00373565
0.00369731
0.00365927
0.00362155
0.00358415
0.00354709
0.00351037
0.00347399
0.00343798
0.00340233
0.00336704
0.00333213
0.00329759
0.00326342
0.00322962
0.00319621
0.00316316
0.0031305
0.00309821
0.0030663
0.00303477
0.00300361
0.00297282
0.00294239
0.00291234
0.00288264
0.00285331
0.00282433
0.00279571
0.00276743
0.0027395
0.00271191
0.00268466
0.00265775
0.00263116
0.00260489
0.00257895
0.00255332
0.00252801
0.002503
0.00247829
0.00245388
0.00242976
0.00240592
0.00238235
0.00235904
0.00233598
0.00231315
0.00229053
0.0022681
0.00224582
0.00222365
0.00220155
0.00217943
0.00215724
0.00213484
0.00211226
0.00208896
0.00205831
2.93175e-05
0.000128791
0.000248238
0.00037247
0.000497093
0.000621008
0.000745652
0.00087497
0.00101222
0.00115947
0.00131684
0.00147861
0.00162639
0.00176283
0.00189092
0.00201267
0.00212936
0.0022418
0.00235053
0.00245593
0.00255832
0.00265788
0.00275505
0.00285018
0.00294356
0.00303544
0.00312599
0.0032154
0.00330378
0.00339124
0.00347785
0.00356366
0.00364869
0.00373293
0.00381638
0.00389898
0.00398068
0.00406142
0.00414112
0.00421968
0.00429701
0.00437302
0.00444761
0.00452066
0.00459208
0.00466177
0.00472963
0.00479555
0.00485945
0.00492124
0.00498084
0.00503816
0.00509314
0.0051457
0.00519581
0.00524339
0.0052884
0.00533081
0.00537059
0.00540771
0.00544214
0.00547389
0.00550294
0.0055293
0.00555298
0.00557398
0.00559233
0.00560805
0.00562117
0.00563173
0.00563976
0.0056453
0.00564841
0.00564913
0.00564753
0.00564365
0.00563756
0.00562931
0.00561897
0.00560661
0.00559228
0.00557607
0.00555804
0.00553826
0.0055168
0.00549374
0.00546915
0.0054431
0.00541566
0.00538691
0.00535691
0.00532574
0.00529346
0.00526015
0.00522586
0.00519067
0.00515463
0.00511783
0.00508031
0.00504214
0.00500338
0.00496408
0.00492431
0.00488412
0.00484355
0.00480266
0.0047615
0.0047201
0.00467853
0.00463681
0.00459499
0.0045531
0.00451119
0.00446929
0.00442742
0.00438562
0.00434392
0.00430235
0.00426092
0.00421967
0.00417862
0.00413778
0.00409717
0.00405682
0.00401673
0.00397693
0.00393742
0.00389821
0.00385933
0.00382077
0.00378254
0.00374466
0.00370712
0.00366994
0.00363312
0.00359666
0.00356056
0.00352483
0.00348946
0.00345447
0.00341986
0.00338561
0.00335173
0.00331823
0.0032851
0.00325234
0.00321994
0.00318791
0.00315624
0.00312494
0.00309399
0.0030634
0.00303316
0.00300327
0.00297373
0.00294453
0.00291566
0.00288714
0.00285894
0.00283108
0.00280353
0.00277631
0.00274939
0.00272279
0.00269648
0.00267047
0.00264473
0.00261927
0.00259405
0.00256907
0.00254429
0.00251968
0.0024952
0.0024708
0.00244642
0.00242197
0.00239734
0.00237255
0.00234704
0.00231423
2.76234e-05
0.000122193
0.000238215
0.000361767
0.000489211
0.000619919
0.000756147
0.000899677
0.00105218
0.00121417
0.00138613
0.00155208
0.00170385
0.00184415
0.00197575
0.00210062
0.00222011
0.00233516
0.00244643
0.0025544
0.00265948
0.00276195
0.00286209
0.00296009
0.00305638
0.00315123
0.0032449
0.00333756
0.00342936
0.00352041
0.00361077
0.0037005
0.0037896
0.00387806
0.00396585
0.00405293
0.00413922
0.00422464
0.00430911
0.00439252
0.00447477
0.00455574
0.00463532
0.00471341
0.00478988
0.00486463
0.00493754
0.0050085
0.00507743
0.00514422
0.00520878
0.00527102
0.00533088
0.00538827
0.00544314
0.00549543
0.00554508
0.00559207
0.00563634
0.00567789
0.00571667
0.00575269
0.00578593
0.00581639
0.00584408
0.00586902
0.00589121
0.00591069
0.00592748
0.00594162
0.00595313
0.00596207
0.00596848
0.0059724
0.00597389
0.00597302
0.00596985
0.00596442
0.0059568
0.00594705
0.00593524
0.00592144
0.00590571
0.00588814
0.00586878
0.00584772
0.00582503
0.00580077
0.00577502
0.00574785
0.00571933
0.00568953
0.00565851
0.00562635
0.00559311
0.00555886
0.00552367
0.00548759
0.0054507
0.00541305
0.00537471
0.00533573
0.00529617
0.00525609
0.00521553
0.00517456
0.00513321
0.00509154
0.00504959
0.0050074
0.00496503
0.0049225
0.00487986
0.00483714
0.00479438
0.00475161
0.00470887
0.00466617
0.00462356
0.00458105
0.00453867
0.00449645
0.0044544
0.00441255
0.00437091
0.0043295
0.00428833
0.00424743
0.0042068
0.00416645