/*--------------------------------*- C++ -*----------------------------------*\
| =========                 |                                                 |
| \\      /  F ield         | OpenFOAM: The Open Source CFD Toolbox           |
|  \\    /   O peration     | Version:  v2012                                 |
|   \\  /    A nd           | Website:  www.openfoam.com                      |
|    \\/     M anipulation  |                                                 |
\*---------------------------------------------------------------------------*/
FoamFile
{
    version     2.0;
    format      ascii;
    class       volScalarField;
    location    "900";
    object      p;
}
// * * * * * * * * * * * * * * * * * * * * * * * * * * * * * * * * * * * * * //

dimensions      [0 2 -2 0 0 0 0];


internalField   nonuniform List<scalar> 
12225
(
514.684
55.5365
2.37251
0.29095
-1.8889
-3.36442
-3.8053
-4.00767
-4.2154
-4.36519
-4.40766
-4.40812
-4.40829
-4.43746
-4.49021
-4.56328
-4.72009
-4.93673
-122.171
0.247196
-2.70978
-0.755899
-2.20666
-3.51496
-3.94131
-4.12702
-4.26486
-4.35573
-4.42697
-4.48746
-4.54339
-4.58275
-4.61399
-4.64748
-4.72403
-4.84786
-200.637
-16.1402
-2.33787
-0.349208
-1.89111
-3.23471
-3.75989
-4.01395
-4.1854
-4.30138
-4.39485
-4.46447
-4.51524
-4.54392
-4.56526
-4.58519
-4.62364
-4.62063
-110.608
-10.966
-2.16869
-0.423045
-1.77818
-3.0187
-3.58949
-3.90089
-4.11371
-4.25841
-4.36207
-4.43257
-4.48038
-4.50953
-4.5296
-4.53988
-4.54197
-4.47655
-61.565
-8.13786
-3.61425
-1.20119
-2.00586
-2.98838
-3.51835
-3.84222
-4.06955
-4.22555
-4.33413
-4.40806
-4.45818
-4.48913
-4.50572
-4.50453
-4.47936
-4.38932
-45.7231
-8.77741
-5.25061
-2.19173
-2.42086
-3.0915
-3.52675
-3.82734
-4.04757
-4.20315
-4.31329
-4.38983
-4.44153
-4.47222
-4.48437
-4.47422
-4.43405
-4.33857
-35.7871
-9.26878
-6.37255
-3.11639
-2.91317
-3.28091
-3.59507
-3.84901
-4.04788
-4.19491
-4.30215
-4.37817
-4.42941
-4.45891
-4.46799
-4.4534
-4.40878
-4.32028
-27.7707
-8.89973
-6.96624
-3.79498
-3.35368
-3.49035
-3.69289
-3.89486
-4.06698
-4.20097
-4.30199
-4.37516
-4.42495
-4.45363
-4.46194
-4.44741
-4.40561
-4.32944
-21.6828
-8.51286
-7.12719
-4.30319
-3.72145
-3.69861
-3.80951
-3.95983
-4.10224
-4.21999
-4.31223
-4.38085
-4.4284
-4.4563
-4.46493
-4.45264
-4.41685
-4.35452
-16.6057
-8.13374
-7.08113
-4.74845
-4.07626
-3.92762
-3.95314
-4.04808
-4.15602
-4.25344
-4.33393
-4.39614
-4.44061
-4.46782
-4.4779
-4.47007
-4.44341
-4.39783
-12.6322
-7.67413
-6.8994
-5.09509
-4.40033
-4.16414
-4.11634
-4.15701
-4.22838
-4.30273
-4.36918
-4.42348
-4.46426
-4.49113
-4.50401
-4.50282
-4.48796
-4.4609
-9.69241
-7.14223
-6.62274
-5.32023
-4.67256
-4.39136
-4.28922
-4.28232
-4.31837
-4.3688
-4.42002
-4.46553
-4.50247
-4.52959
-4.54665
-4.55396
-4.55256
-4.54463
-7.65966
-6.59837
-6.29973
-5.42547
-4.87731
-4.5918
-4.45863
-4.41608
-4.422
-4.45038
-4.48689
-4.5239
-4.55743
-4.5857
-4.60811
-4.62509
-4.63779
-4.64822
-6.36473
-6.10687
-5.97964
-5.43441
-5.01018
-4.75226
-4.61118
-4.54796
-4.53242
-4.54344
-4.56791
-4.59805
-4.6295
-4.65999
-4.6887
-4.71575
-4.74208
-4.76907
-5.61661
-5.71635
-5.70309
-5.38507
-5.08032
-4.86764
-4.7367
-4.66746
-4.64079
-4.6413
-4.65821
-4.68452
-4.71593
-4.75
-4.78559
-4.8225
-4.8611
-4.9022
-5.23742
-5.45428
-5.50229
-5.32187
-5.1095
-4.94263
-4.83056
-4.76579
-4.73732
-4.73466
-4.7495
-4.7759
-4.80991
-4.84907
-4.892
-4.93809
-4.98722
-5.03961
-5.09628
-5.33846
-5.41123
-5.29334
-5.12946
-4.99049
-4.893
-4.83524
-4.81027
-4.81018
-4.82811
-4.85875
-4.89835
-4.94438
-4.99522
-5.04992
-5.10796
-5.16916
-5.13399
-5.39429
-5.46847
-5.34247
-5.16877
-5.02322
-4.92308
-4.86602
-4.84417
-4.8491
-4.87329
-4.91113
-4.95844
-5.01246
-5.07126
-5.13368
-5.19893
-5.26663
-5.38618
-5.64862
-5.68446
-5.46947
-5.22047
-5.0303
-4.90942
-4.8465
-4.8276
-4.83993
-4.87358
-4.92134
-4.97837
-5.04142
-5.10842
-5.17803
-5.2495
-5.32235
-5.99534
-6.13028
-6.03619
-5.6289
-5.2412
-4.98179
-4.83561
-4.77099
-4.76171
-4.78821
-4.83677
-4.89849
-4.96781
-5.04135
-5.11711
-5.1939
-5.27111
-5.34853
-7.24274
-6.88271
-6.48753
-5.75549
-5.17713
-4.84754
-4.69145
-4.64184
-4.65617
-4.707
-4.7773
-4.85714
-4.94109
-5.02614
-5.1109
-5.19462
-5.27712
-5.35849
-9.63405
-7.95757
-6.97574
-5.76533
-4.97353
-4.60681
-4.47737
-4.4698
-4.52541
-4.61127
-4.70925
-4.81021
-4.90974
-5.00631
-5.0994
-5.18927
-5.27615
-5.36067
-13.9751
-9.38389
-7.39612
-5.56282
-4.58864
-4.25893
-4.21065
-4.27624
-4.38931
-4.51778
-4.64637
-4.76875
-4.88304
-4.98952
-5.0894
-5.18379
-5.27378
-5.36028
-20.8826
-10.9467
-7.54698
-5.05035
-4.00963
-3.83051
-3.92569
-4.09077
-4.27029
-4.44241
-4.59972
-4.74086
-4.86718
-4.9809
-5.08498
-5.18186
-5.27323
-5.36032
-29.7292
-11.942
-7.02619
-4.11909
-3.25766
-3.37254
-3.66661
-3.94352
-4.18709
-4.39689
-4.57644
-4.73096
-4.86454
-4.98218
-5.08781
-5.18515
-5.27623
-5.36249
-43.0992
-12.6066
-5.46539
-2.7218
-2.4067
-2.95777
-3.47966
-3.85839
-4.15055
-4.38532
-4.57822
-4.73847
-4.87366
-4.99098
-5.09609
-5.19261
-5.28242
-5.36723
-84.5921
-17.3661
-3.65664
-1.2582
-1.6893
-2.71592
-3.43117
-3.86491
-4.168
-4.40456
-4.60156
-4.76398
-4.89535
-5.00619
-5.10609
-5.20069
-5.28926
-5.37213
-177.879
-26.8423
-3.67269
-0.76293
-1.52827
-2.83692
-3.60885
-4.00881
-4.2603
-4.45514
-4.63993
-4.80768
-4.942
-5.04557
-5.13161
-5.21766
-5.30239
-5.38184
-154.783
-9.61996
-3.26496
-1.06102
-1.83624
-3.21459
-3.90808
-4.21748
-4.40574
-4.54397
-4.68645
-4.84167
-4.98975
-5.1114
-5.20119
-5.28165
-5.36188
-5.44512
428.064
66.6128
7.06334
1.60665
-0.90876
-2.85061
-3.64622
-3.98754
-4.30426
-4.57392
-4.69873
-4.7353
-4.78364
-4.8786
-5.00519
-5.12083
-5.22213
-5.31657
-8.50528
-8.49248
-8.48244
-8.52439
-8.61732
-8.72029
-8.79921
-8.83809
-8.84081
-8.82262
-8.795
-8.76647
-8.74503
-8.7365
-8.74159
-8.75392
-8.76463
-8.76939
-8.77097
-8.77606
-8.78742
-8.82029
-8.91069
-9.08465
-9.3396
-9.65887
-10.0312
-10.4457
-10.8867
-11.3383
-11.7855
-12.2163
-12.6217
-12.9952
-13.3325
-13.6311
-13.8902
-14.1097
-14.2904
-14.4332
-14.5395
-14.6105
-14.6477
-14.6524
-14.6259
-14.5695
-14.4849
-14.3743
-14.239
-14.0768
-13.885
-13.665
-13.4195
-13.1503
-12.8584
-12.5452
-12.2115
-11.8584
-11.4869
-11.0981
-10.693
-10.2728
-9.83859
-9.39154
-8.93282
-8.46363
-7.98515
-7.4986
-7.00516
-6.50603
-6.00236
-5.49529
-4.98595
-4.4754
-3.96469
-3.45483
-2.94677
-2.44143
-1.93966
-1.44227
-0.950024
-0.463614
0.0163106
0.489159
0.954397
1.41155
1.86018
2.29992
2.73046
3.15154
3.56295
3.96452
4.35608
4.7376
5.10933
5.47127
5.82295
6.16399
6.49437
6.81434
7.12414
7.42397
7.71401
7.99445
8.26548
8.52728
8.78008
9.02409
9.25953
9.48661
9.70555
9.91659
10.12
10.316
10.5048
10.6868
10.862
11.0308
11.1934
11.3501
11.5009
11.6463
11.7863
11.9212
12.0512
12.1766
12.2973
12.4138
12.5261
12.6345
12.7389
12.84
12.9378
13.0324
13.1237
13.2119
13.2971
13.3795
13.4591
13.5362
13.6108
13.683
13.7529
13.8206
13.8863
13.9499
14.0117
14.0715
14.1295
14.1859
14.2405
14.2935
14.3449
14.3948
14.4432
14.4901
14.5356
14.5797
14.6223
14.6637
14.7037
14.7423
14.7797
14.8157
14.8505
14.884
14.9164
14.9475
14.9776
15.0067
15.035
15.0626
15.09
15.1177
15.1463
15.1771
15.2125
15.2542
15.3122
15.3727
-8.56319
-8.59456
-8.66873
-8.76221
-8.86514
-8.95657
-9.01692
-9.04038
-9.02231
-8.96087
-8.87062
-8.77399
-8.69316
-8.64289
-8.62145
-8.61855
-8.62856
-8.65533
-8.69455
-8.71613
-8.73821
-8.81803
-8.98356
-9.22717
-9.53685
-9.91006
-10.337
-10.7975
-11.27
-11.7369
-12.1859
-12.6077
-12.996
-13.3471
-13.6593
-13.9322
-14.1664
-14.3629
-14.5228
-14.6472
-14.7373
-14.7943
-14.8191
-14.8127
-14.7757
-14.7088
-14.6125
-14.4868
-14.3322
-14.1519
-13.9496
-13.7254
-13.4785
-13.209
-12.9175
-12.6049
-12.2719
-11.9196
-11.5489
-11.1609
-10.7565
-10.3369
-9.90331
-9.45678
-8.99851
-8.52968
-8.05148
-7.56513
-7.07182
-6.57272
-6.069
-5.56181
-5.05225
-4.54141
-4.03033
-3.52002
-3.01144
-2.5055
-2.00306
-1.50493
-1.01188
-0.524599
-0.043753
0.430066
0.896313
1.3545
1.80418
2.24496
2.6765
3.09849
3.51067
3.91279
4.30465
4.68613
5.05733
5.41844
5.76968
6.11107
6.44244
6.76371
7.0749
7.37614
7.6676
7.94943
8.22182
8.48498
8.73909
8.98438
9.22107
9.44942
9.66963
9.88193
10.0866
10.2838
10.4738
10.6569
10.8332
11.0031
11.1668
11.3245
11.4764
11.6227
11.7637
11.8996
12.0307
12.1571
12.279
12.3965
12.5099
12.6193
12.7249
12.8267
12.9246
13.0192
13.1107
13.1991
13.2845
13.3672
13.4471
13.5245
13.5993
13.6719
13.7421
13.8102
13.8761
13.9401
14.0021
14.0622
14.1205
14.1771
14.232
14.2853
14.3369
14.387
14.4357
14.4828
14.5285
14.5728
14.6157
14.6572
14.6973
14.7362
14.7737
14.8099
14.8448
14.8785
14.911
14.9423
14.9725
15.0017
15.0301
15.0579
15.0854
15.1131
15.1418
15.1725
15.2073
15.2469
15.3006
15.3505
-8.69056
-8.77219
-8.88993
-8.99529
-9.07751
-9.1306
-9.15046
-9.13583
-9.0854
-9.00157
-8.89361
-8.77838
-8.67954
-8.61629
-8.58853
-8.58452
-8.60497
-8.66469
-8.773
-8.9232
-9.11385
-9.35553
-9.65144
-9.99202
-10.3652
-10.7616
-11.1711
-11.5821
-11.984
-12.3698
-12.7347
-13.0752
-13.3886
-13.6732
-13.928
-14.1526
-14.3466
-14.5103
-14.6439
-14.7476
-14.8219
-14.867
-14.8836
-14.8718
-14.8323
-14.7655
-14.6716
-14.5507
-14.4027
-14.2287
-14.0301
-13.8079
-13.5626
-13.2948
-13.0051
-12.6943
-12.3632
-12.0127
-11.6437
-11.2573
-10.8546
-10.4364
-10.0041
-9.55878
-9.10155
-8.63361
-8.15616
-7.67041
-7.17755
-6.67876
-6.17522
-5.66805
-5.15839
-4.64732
-4.13589
-3.62511
-3.11594
-2.60931
-2.10608
-1.60707
-1.11305
-0.624731
-0.142766
0.332239
0.799737
1.25923
1.71029
2.15251
2.58557
3.00917
3.42308
3.82709
4.22107
4.60491
4.97861
5.34215
5.69559
6.03892
6.37211
6.69518
7.00818
7.31123
7.60449
7.88811
8.16227
8.42717
8.683
8.92999
9.16835
9.39832
9.62012
9.83397
10.0401
10.2388
10.4303
10.6148
10.7925
10.9637
11.1287
11.2877
11.4408
11.5884
11.7306
11.8676
11.9995
12.1267
12.2494
12.3677
12.4817
12.5918
12.698
12.8004
12.8994
12.9951
13.0876
13.1769
13.2633
13.3468
13.4276
13.5057
13.5813
13.6545
13.7254
13.7941
13.8606
13.9252
13.9877
14.0483
14.1072
14.1642
14.2195
14.2732
14.3253
14.3758
14.4248
14.4723
14.5183
14.5629
14.6061
14.6479
14.6883
14.7274
14.7652
14.8016
14.8368
14.8707
14.9033
14.9348
14.9652
14.9945
15.023
15.0509
15.0784
15.1061
15.1345
15.1646
15.1981
15.2347
15.2822
15.3157
-8.72836
-8.82539
-8.92639
-9.01266
-9.07673
-9.11597
-9.1279
-9.10993
-9.06216
-8.98976
-8.90414
-8.82226
-8.76226
-8.73678
-8.75046
-8.80542
-8.90568
-9.05507
-9.25423
-9.49743
-9.77523
-10.0807
-10.4081
-10.7513
-11.1049
-11.4637
-11.8223
-12.1756
-12.519
-12.8484
-13.1606
-13.453
-13.7233
-13.97
-14.1919
-14.3879
-14.5576
-14.7005
-14.8165
-14.9055
-14.9674
-15.0025
-15.0107
-14.9922
-14.9471
-14.8757
-14.7782
-14.6549
-14.5064
-14.3333
-14.1362
-13.9155
-13.6718
-13.4056
-13.1176
-12.8084
-12.479
-12.1301
-11.7627
-11.3777
-10.9763
-10.5593
-10.128
-9.68353
-9.22699
-8.7596
-8.28255
-7.79703
-7.30424
-6.80536
-6.30157
-5.79401
-5.28381
-4.77206
-4.25982
-3.74809
-3.23786
-2.73005
-2.22553
-1.72513
-1.22962
-0.739723
-0.2561
0.220638
0.689938
1.1513
1.60428
2.04847
2.48355
2.90922
3.32524
3.73142
4.12762
4.51376
4.88977
5.25564
5.61133
5.95683
6.29213
6.61728
6.93236
7.23748
7.53278
7.81843
8.0946
8.36148
8.61926
8.86816
9.1084
9.34021
9.5638
9.7794
9.98727
10.1877
10.3808
10.5669
10.7462
10.919
11.0854
11.2458
11.4002
11.5491
11.6925
11.8307
11.9639
12.0924
12.2162
12.3355
12.4507
12.5618
12.669
12.7725
12.8725
12.9692
13.0627
13.153
13.2402
13.3246
13.4062
13.4851
13.5614
13.6354
13.7069
13.7763
13.8435
13.9086
13.9717
14.0329
14.0922
14.1498
14.2056
14.2598
14.3123
14.3632
14.4126
14.4605
14.5069
14.5519
14.5954
14.6375
14.6783
14.7177
14.7557
14.7924
14.8278
14.8619
14.8947
14.9264
14.9569
14.9863
15.0149
15.0427
15.0701
15.0974
15.1252
15.1541
15.1854
15.2179
15.2573
15.2759
-8.51463
-8.59946
-8.69957
-8.79661
-8.87378
-8.92623
-8.95303
-8.95509
-8.93698
-8.90715
-8.87776
-8.86282
-8.87505
-8.92389
-9.01546
-9.15278
-9.3358
-9.55986
-9.81646
-10.0976
-10.3977
-10.7127
-11.0381
-11.3691
-11.7012
-12.0307
-12.3543
-12.669
-12.9719
-13.2606
-13.5333
-13.7881
-14.0238
-14.239
-14.4328
-14.6043
-14.7529
-14.8779
-14.9789
-15.0556
-15.1076
-15.1348
-15.137
-15.114
-15.0659
-14.9927
-14.8944
-14.7711
-14.6233
-14.4512
-14.2552
-14.0359
-13.7936
-13.5289
-13.2423
-12.9347
-12.6067
-12.2593
-11.8932
-11.5094
-11.109
-10.6931
-10.2626
-9.81879
-9.3628
-8.89581
-8.41901
-7.93359
-7.44074
-6.94167
-6.43753
-5.92949
-5.41866
-4.90615
-4.39302
-3.88029
-3.36893
-2.85988
-2.35401
-1.85217
-1.35512
-0.863591
-0.378253
0.100279
0.571447
1.03475
1.48973
1.93599
2.37319
2.80103
3.21927
3.62771
4.02621
4.41464
4.79296
5.16111
5.51906
5.8668
6.20433
6.53171
6.84901
7.15634
7.45385
7.74168
8.02
8.28901
8.54889
8.79986
9.04215
9.27597
9.50154
9.71909
9.92886
10.1311
10.326
10.5138
10.6949
10.8693
11.0374
11.1993
11.3554
11.5057
11.6506
11.7903
11.9249
12.0547
12.1798
12.3005
12.4169
12.5292
12.6376
12.7422
12.8433
12.941
13.0354
13.1267
13.2148
13.3001
13.3825
13.4623
13.5394
13.6141
13.6865
13.7565
13.8244
13.8902
13.9539
14.0157
14.0757
14.1338
14.1902
14.2448
14.2979
14.3493
14.3991
14.4475
14.4943
14.5397
14.5836
14.6261
14.6672
14.7069
14.7452
14.7822
14.8179
14.8522
14.8852
14.917
14.9476
14.9771
15.0057
15.0333
15.0604
15.0871
15.114
15.1413
15.1699
15.1977
15.2293
15.2354
-8.09386
-8.18239
-8.30351
-8.42632
-8.53155
-8.61193
-8.67028
-8.71258
-8.74653
-8.782
-8.82993
-8.90058
-9.00189
-9.13856
-9.31271
-9.52322
-9.76537
-10.0336
-10.3224
-10.6263
-10.9396
-11.2578
-11.5768
-11.8933
-12.2044
-12.5081
-12.8024
-13.0858
-13.3568
-13.6141
-13.8566
-14.083
-14.2924
-14.4838
-14.6562
-14.8089
-14.941
-15.052
-15.1411
-15.2078
-15.2517
-15.2723
-15.2694
-15.2426
-15.1918
-15.1167
-15.0175
-14.894
-14.7465
-14.5751
-14.3801
-14.1619
-13.9209
-13.6575
-13.3724
-13.0662
-12.7397
-12.3936
-12.0288
-11.6463
-11.247
-10.8321
-10.4025
-9.95942
-9.50402
-9.03748
-8.56098
-8.07571
-7.58286
-7.08363
-6.57918
-6.07069
-5.55927
-5.04603
-4.53204
-4.01832
-3.50586
-2.99558
-2.48839
-1.98511
-1.48654
-0.993388
-0.506344
-0.0260232
0.44701
0.912245
1.36923
1.81756
2.25688
2.6869
3.10737
3.51807
3.91886
4.3096
4.69023
5.06068
5.42093
5.77095
6.11076
6.44042
6.76
7.06961
7.36938
7.65946
7.94003
8.21126
8.47334
8.72648
8.97089
9.20679
9.43441
9.65398
9.86573
10.0699
10.2667
10.4564
10.6393
10.8155
10.9853
11.149
11.3067
11.4587
11.6052
11.7464
11.8825
12.0137
12.1403
12.2623
12.38
12.4936
12.6033
12.7091
12.8114
12.9102
13.0057
13.0979
13.1871
13.2733
13.3567
13.4373
13.5154
13.5909
13.6641
13.7349
13.8036
13.8701
13.9345
13.997
14.0576
14.1164
14.1733
14.2286
14.2822
14.3341
14.3845
14.4333
14.4806
14.5264
14.5708
14.6137
14.6552
14.6952
14.7339
14.7712
14.8071
14.8417
14.875
14.9069
14.9376
14.9672
14.9956
15.023
15.0496
15.0756
15.1013
15.1266
15.1521
15.175
15.1993
15.1948
-7.62971
-7.72851
-7.87078
-8.01978
-8.1579
-8.27677
-8.38006
-8.47717
-8.57754
-8.69008
-8.82233
-8.97909
-9.16303
-9.37454
-9.61187
-9.87286
-10.1545
-10.4521
-10.7604
-11.0743
-11.3896
-11.7028
-12.0113
-12.313
-12.6063
-12.89
-13.1631
-13.4245
-13.6735
-13.9093
-14.1309
-14.3376
-14.5286
-14.7029
-14.8598
-14.9984
-15.1181
-15.2181
-15.2978
-15.3564
-15.3934
-15.4084
-15.4008
-15.3704
-15.3167
-15.2396
-15.139
-15.0147
-14.8668
-14.6954
-14.5008
-14.2832
-14.0429
-13.7805
-13.4964
-13.1913
-12.866
-12.5211
-12.1575
-11.7762
-11.3781
-10.9642
-10.5357
-10.0935
-9.63898
-9.17317
-8.69729
-8.21252
-7.72005
-7.22107
-6.71675
-6.20825
-5.69668
-5.18317
-4.66876
-4.15449
-3.64135
-3.13027
-2.62215
-2.11783
-1.61809
-1.12367
-0.635241
-0.153437
0.321177
0.788085
1.24683
1.697
2.13823
2.57023
2.99274
3.40554
3.80846
4.20138
4.5842
4.95686
5.31931
5.67155
6.0136
6.34551
6.66734
6.9792
7.28123
7.57355
7.85634
8.12978
8.39405
8.64937
8.89593
9.13396
9.36368
9.58531
9.7991
10.0053
10.2041
10.3957
10.5805
10.7586
10.9302
11.0956
11.2551
11.4088
11.5569
11.6997
11.8374
11.9701
12.0982
12.2216
12.3408
12.4557
12.5667
12.6738
12.7773
12.8773
12.9739
13.0673
13.1575
13.2448
13.3291
13.4108
13.4898
13.5662
13.6402
13.7119
13.7814
13.8487
13.9139
13.9771
14.0384
14.0978
14.1555
14.2114
14.2655
14.3181
14.369
14.4183
14.4662
14.5124
14.5573
14.6006
14.6425
14.683
14.722
14.7596
14.7959
14.8307
14.8642
14.8963
14.9271
14.9566
14.9848
15.0119
15.038
15.0631
15.0873
15.1104
15.1326
15.1507
15.1684
15.1545
-7.2764
-7.36975
-7.522
-7.68799
-7.85514
-8.01657
-8.17184
-8.32881
-8.49566
-8.67817
-8.88035
-9.10328
-9.34552
-9.6062
-9.88473
-10.1788
-10.4845
-10.7975
-11.1137
-11.4294
-11.7419
-12.0486
-12.3481
-12.6387
-12.9196
-13.1899
-13.4488
-13.6959
-13.9304
-14.1518
-14.3595
-14.5528
-14.731
-14.8933
-15.0392
-15.1677
-15.2783
-15.3701
-15.4424
-15.4947
-15.5262
-15.5365
-15.5249
-15.4911
-15.4347
-15.3554
-15.253
-15.1274
-14.9786
-14.8066
-14.6116
-14.3937
-14.1535
-13.8912
-13.6075
-13.3028
-12.978
-12.6337
-12.2708
-11.8902
-11.4928
-11.0798
-10.652
-10.2107
-9.75699
-9.29198
-8.81685
-8.33281
-7.84102
-7.34266
-6.83889
-6.33087
-5.8197
-5.3065
-4.7923
-4.27815
-3.76501
-3.25382
-2.74548
-2.24082
-1.74062
-1.24562
-0.756497
-0.273879
0.201662
0.669611
1.1295
1.58093
2.02352
2.45697
2.88102
3.29543
3.70004
4.0947
4.47931
4.85381
5.21814
5.5723
5.91631
6.2502
6.57405
6.88796
7.19205
7.48645
7.77133
8.04686
8.31322
8.57062
8.81925
9.05935
9.29111
9.51478
9.73057
9.93873
10.1395
10.3331
10.5197
10.6997
10.8731
11.0403
11.2015
11.3569
11.5068
11.6512
11.7905
11.9248
12.0543
12.1793
12.2999
12.4162
12.5285
12.637
12.7417
12.843
12.9407
13.0353
13.1266
13.215
13.3004
13.383
13.463
13.5404
13.6154
13.6879
13.7582
13.8264
13.8924
13.9564
14.0184
14.0786
14.1369
14.1934
14.2483
14.3014
14.3529
14.4028
14.4512
14.498
14.5433
14.5871
14.6294
14.6703
14.7097
14.7477
14.7843
14.8194
14.853
14.8853
14.9161
14.9456
14.9736
15.0003
15.0257
15.0497
15.0724
15.0932
15.112
15.1254
15.137
15.1151
-7.08871
-7.17487
-7.32924
-7.50187
-7.68562
-7.8784
-8.07685
-8.28296
-8.50116
-8.73381
-8.98118
-9.24325
-9.51993
-9.81078
-10.1139
-10.426
-10.7435
-11.0629
-11.3814
-11.6962
-12.0053
-12.3071
-12.6001
-12.8834
-13.1562
-13.4179
-13.6679
-13.9059
-14.1313
-14.3436
-14.5424
-14.727
-14.8969
-15.0514
-15.1898
-15.3115
-15.4156
-15.5016
-15.5687
-15.6162
-15.6435
-15.65
-15.6351
-15.5984
-15.5395
-15.458
-15.3538
-15.2266
-15.0765
-14.9034
-14.7075
-14.4889
-14.2481
-13.9854
-13.7014
-13.3966
-13.0717
-12.7275
-12.3647
-11.9844
-11.5874
-11.1747
-10.7475
-10.3067
-9.85362
-9.38926
-8.91484
-8.43152
-7.94046
-7.44285
-6.93983
-6.43255
-5.9221
-5.40958
-4.89604
-4.38248
-3.86987
-3.35916
-2.8512
-2.34684
-1.84686
-1.35198
-0.862868
-0.380159
0.0955822
0.563839
1.02415
1.47609
1.91931
2.35349
2.77836
3.1937
3.59933
3.9951
4.38092
4.75668
5.12236
5.47794
5.82342
6.15885
6.48429
6.79985
7.10562
7.40175
7.6884
7.96572
8.2339
8.49313
8.74361
8.98555
9.21917
9.44468
9.66233
9.87232
10.0749
10.2703
10.4587
10.6404
10.8157
10.9846
11.1475
11.3046
11.456
11.6021
11.7429
11.8787
12.0098
12.1362
12.2582
12.376
12.4897
12.5994
12.7055
12.8079
12.9069
13.0026
13.0951
13.1845
13.271
13.3547
13.4357
13.514
13.5899
13.6634
13.7346
13.8036
13.8704
13.9352
13.998
14.0589
14.1179
14.1752
14.2306
14.2844
14.3365
14.387
14.436
14.4833
14.5291
14.5734
14.6162
14.6575
14.6974
14.7357
14.7725
14.8079
14.8418
14.8742
14.905
14.9344
14.9622
14.9884
15.0131
15.0359
15.0569
15.0753
15.0908
15.0996
15.1058
15.0768
-7.06369
-7.15075
-7.29859
-7.46758
-7.65463
-7.8596
-8.0793
-8.31178
-8.55727
-8.81628
-9.08827
-9.37238
-9.66835
-9.97498
-10.2896
-10.6091
-10.9307
-11.2517
-11.5697
-11.8827
-12.1888
-12.4869
-12.7757
-13.0545
-13.3225
-13.5793
-13.8244
-14.0573
-14.2776
-14.4849
-14.6787
-14.8584
-15.0235
-15.1733
-15.3073
-15.4247
-15.5248
-15.607
-15.6705
-15.7147
-15.7389
-15.7425
-15.725
-15.6859
-15.6248
-15.5414
-15.4353
-15.3065
-15.1549
-14.9805
-14.7834
-14.5639
-14.3222
-14.0588
-13.7741
-13.4688
-13.1436
-12.7992
-12.4363
-12.056
-11.6591
-11.2468
-10.8199
-10.3796
-9.92706
-9.46337
-8.9897
-8.5072
-8.01703
-7.52035
-7.01831
-6.51202
-6.00259
-5.49109
-4.97856
-4.46599
-3.95436
-3.44457
-2.9375
-2.43397
-1.93474
-1.44055
-0.952049
-0.469864
0.00544912
0.473378
0.933463
1.38529
1.82851
2.2628
2.68789
3.10355
3.5096
3.90589
4.2923
4.66876
5.03523
5.39167
5.7381
6.07456
6.40112
6.71785
7.02487
7.32231
7.61032
7.88904
8.15868
8.41939
8.6714
8.91489
9.15008
9.37718
9.59643
9.80803
10.0122
10.2092
10.3993
10.5826
10.7594
10.9299
11.0944
11.253
11.406
11.5535
11.6959
11.8332
11.9656
12.0935
12.2169
12.336
12.451
12.562
12.6693
12.773
12.8731
12.97
13.0636
13.1541
13.2416
13.3263
13.4083
13.4876
13.5644
13.6388
13.7109
13.7807
13.8484
13.914
13.9776
14.0392
14.0989
14.1569
14.213
14.2674
14.3202
14.3713
14.4208
14.4687
14.515
14.5598
14.6031
14.6448
14.6851
14.7238
14.761
14.7966
14.8307
14.8632
14.894
14.9233
14.9508
14.9765
15.0003
15.022
15.0412
15.0571
15.0693
15.074
15.0752
15.0401
-7.17729
-7.25568
-7.38664
-7.54265
-7.72152
-7.92292
-8.14411
-8.38252
-8.63649
-8.90465
-9.18528
-9.47727
-9.77966
-10.0905
-10.4072
-10.7272
-11.0482
-11.3677
-11.6837
-11.9943
-12.2981
-12.5937
-12.8802
-13.1568
-13.4228
-13.6776
-13.9208
-14.1518
-14.3702
-14.5756
-14.7674
-14.9451
-15.1082
-15.2559
-15.3878
-15.503
-15.601
-15.6809
-15.7423
-15.7843
-15.8064
-15.808
-15.7885
-15.7475
-15.6846
-15.5994
-15.4917
-15.3613
-15.2082
-15.0325
-14.8341
-14.6135
-14.3708
-14.1066
-13.8212
-13.5154
-13.1898
-12.8451
-12.4822
-12.102
-11.7053
-11.2933
-10.867
-10.4274
-9.97562
-9.51285
-9.04021
-8.55884
-8.0699
-7.57454
-7.07386
-6.569
-6.06104
-5.55104
-5.04003
-4.52898
-4.01885
-3.51054
-3.0049
-2.50274
-2.00483
-1.51187
-1.02453
-0.543404
-0.0690616
0.397995
0.857311
1.30848
1.75114
2.18498
2.60973
3.02516
3.43109
3.82737
4.21387
4.59053
4.95729
5.31413
5.66105
5.9981
6.32532
6.64282
6.95068
7.24903
7.53802
7.8178
8.08854
8.35042
8.60363
8.84837
9.08485
9.31328
9.53387
9.74684
9.95243
10.1508
10.3423
10.527
10.7053
10.8772
11.0431
11.2031
11.3575
11.5064
11.6501
11.7888
11.9226
12.0518
12.1764
12.2968
12.413
12.5253
12.6338
12.7386
12.8399
12.9378
13.0325
13.1241
13.2127
13.2983
13.3813
13.4615
13.5393
13.6146
13.6875
13.7582
13.8266
13.893
13.9574
14.0197
14.0802
14.1388
14.1957
14.2507
14.3041
14.3558
14.4059
14.4543
14.5012
14.5465
14.5903
14.6325
14.6731
14.7122
14.7497
14.7856
14.8199
14.8525
14.8833
14.9124
14.9396
14.9648
14.9877
15.0081
15.0256
15.0391
15.0482
15.0489
15.0457
15.0053
-7.35543
-7.41998
-7.53088
-7.6694
-7.83339
-8.02235
-8.23392
-8.46541
-8.71434
-8.97836
-9.25524
-9.54378
-9.84274
-10.1499
-10.4628
-10.7791
-11.0965
-11.4128
-11.726
-12.0345
-12.3366
-12.6312
-12.9172
-13.1937
-13.4598
-13.715
-13.9587
-14.1903
-14.4093
-14.6152
-14.8074
-14.9854
-15.1484
-15.296
-15.4275
-15.5422
-15.6394
-15.7185
-15.7788
-15.8196
-15.8404
-15.8406
-15.8197
-15.7772
-15.7127
-15.626
-15.5168
-15.385
-15.2306
-15.0536
-14.8542
-14.6325
-14.389
-14.1241
-13.8382
-13.532
-13.2062
-12.8616
-12.4989
-12.119
-11.723
-11.3118
-10.8864
-10.4479
-9.99748
-9.53616
-9.06511
-8.58545
-8.09833
-7.60487
-7.10619
-6.60338
-6.09751
-5.58962
-5.08073
-4.57181
-4.0638
-3.55758
-3.05398
-2.55381
-2.05783
-1.56672
-1.08114
-0.601686
-0.128912
0.336686
0.794657
1.2446
1.68615
2.11901
2.5429
2.95759
3.36291
3.75869
4.14482
4.52123
4.88784
5.24466
5.59166
5.9289
6.25642
6.57431
6.88266
7.18159
7.47124
7.75176
8.02331
8.28606
8.54021
8.78594
9.02346
9.25298
9.4747
9.68883
9.89561
10.0952
10.2879
10.4739
10.6534
10.8266
10.9938
11.1551
11.3107
11.4609
11.6059
11.7458
11.8809
12.0113
12.1371
12.2587
12.3761
12.4895
12.5991
12.7051
12.8075
12.9064
13.0022
13.0947
13.1843
13.2709
13.3548
13.436
13.5146
13.5908
13.6646
13.7361
13.8053
13.8725
13.9376
14.0007
14.0619
14.1212
14.1787
14.2344
14.2884
14.3407
14.3914
14.4404
14.4878
14.5336
14.5778
14.6205
14.6616
14.701
14.7388
14.775
14.8095
14.8422
14.8731
14.902
14.9289
14.9534
14.9755
14.9946
15.0103
15.0216
15.0277
15.0247
15.0174
14.9726
-7.53007
-7.58154
-7.67412
-7.79478
-7.94154
-8.11385
-8.30963
-8.52649
-8.76195
-9.01344
-9.27895
-9.55735
-9.84722
-10.1463
-10.4522
-10.7626
-11.0751
-11.3876
-11.6982
-12.0051
-12.3066
-12.6016
-12.8886
-13.1667
-13.435
-13.6926
-13.9389
-14.1731
-14.3946
-14.6029
-14.7972
-14.9771
-15.1417
-15.2906
-15.423
-15.5383
-15.6358
-15.7149
-15.7748
-15.8152
-15.8352
-15.8345
-15.8125
-15.7689
-15.7033
-15.6153
-15.505
-15.3721
-15.2166
-15.0386
-14.8384
-14.616
-14.372
-14.1068
-13.8208
-13.5148
-13.1893
-12.8452
-12.4833
-12.1044
-11.7096
-11.2998
-10.876
-10.4394
-9.99095
-9.5318
-9.06307
-8.58587
-8.10133
-7.61055
-7.11463
-6.61465
-6.11165
-5.60667
-5.10069
-4.59467
-4.08953
-3.58615
-3.08534
-2.58789
-2.09453
-1.60596
-1.12281
-0.645681
-0.175108
0.288417
0.744447
1.19258
1.63247
2.06381
2.48632
2.89978
3.30399
3.69882
4.08414
4.45986
4.82593
5.18232
5.52904
5.86611
6.19358
6.51154
6.82006
7.11927
7.40929
7.69028
7.96238
8.22576
8.48061
8.72712
8.96547
9.19587
9.41853
9.63364
9.84144
10.0421
10.2359
10.423
10.6036
10.778
10.9463
11.1088
11.2656
11.417
11.5631
11.7042
11.8404
11.9719
12.099
12.2217
12.3402
12.4547
12.5654
12.6724
12.7758
12.8758
12.9725
13.0661
13.1566
13.2442
13.329
13.411
13.4905
13.5675
13.6422
13.7145
13.7845
13.8525
13.9183
13.9822
14.044
14.104
14.1622
14.2186
14.2732
14.3261
14.3773
14.4269
14.4749
14.5212
14.5659
14.609
14.6505
14.6903
14.7285
14.765
14.7996
14.8325
14.8633
14.8921
14.9186
14.9426
14.9638
14.9817
14.9957
15.0048
15.0081
15.0018
14.9908
14.9423
-7.65694
-7.69914
-7.77635
-7.88035
-8.00969
-8.16389
-8.34119
-8.53962
-8.75715
-8.99159
-9.24155
-9.5063
-9.78439
-10.0735
-10.3712
-10.675
-10.9827
-11.292
-11.6009
-11.9074
-12.2097
-12.5065
-12.7962
-13.0777
-13.3498
-13.6115
-13.862
-14.1003
-14.3259
-14.5379
-14.7356
-14.9185
-15.0858
-15.2368
-15.3709
-15.4875
-15.5859
-15.6654
-15.7256
-15.7658
-15.7855
-15.7842
-15.7615
-15.7171
-15.6505
-15.5617
-15.4505
-15.3169
-15.1607
-14.9822
-14.7816
-14.5591
-14.3152
-14.0502
-13.7648
-13.4595
-13.1351
-12.7924
-12.432
-12.055
-11.6623
-11.2549
-10.8337
-10.3998
-9.95434
-9.49834
-9.03292
-8.55916
-8.07818
-7.59105
-7.09886
-6.60266
-6.10347
-5.60232
-5.10015
-4.59792
-4.09651
-3.5968
-3.09959
-2.60565
-2.1157
-1.6304
-1.15041
-0.67629
-0.208583
0.252227
0.705701
1.15144
1.5891
2.01837
2.43898
2.85071
3.25335
3.64677
4.03084
4.40547
4.77061
5.12621
5.47229
5.80885
6.13596
6.45368
6.76209
7.06131
7.35145
7.63266
7.90508
8.16888
8.42423
8.67131
8.91031
9.14143
9.36486
9.58081
9.78948
9.99108
10.1858
10.3739
10.5556
10.731
10.9003
11.0639
11.2218
11.3743
11.5215
11.6637
11.801
11.9336
12.0617
12.1855
12.3051
12.4207
12.5324
12.6404
12.7448
12.8458
12.9435
13.038
13.1295
13.218
13.3036
13.3866
13.467
13.5448
13.6202
13.6933
13.7642
13.8329
13.8995
13.964
14.0266
14.0873
14.1461
14.2032
14.2584
14.3119
14.3638
14.4139
14.4624
14.5093
14.5545
14.5981
14.64
14.6802
14.7187
14.7555
14.7904
14.8233
14.8542
14.8828
14.909
14.9325
14.9528
14.9696
14.982
14.989
14.9897
14.9804
14.9661
14.9144
-7.7121
-7.75029
-7.81585
-7.90488
-8.01719
-8.15271
-8.31038
-8.48887
-8.68661
-8.90206
-9.13473
-9.3845
-9.65001
-9.92885
-10.2185
-10.5163
-10.82
-11.1271
-11.4354
-11.7429
-12.0475
-12.3476
-12.6414
-12.9276
-13.2047
-13.4718
-13.7275
-13.9711
-14.2016
-14.4182
-14.6201
-14.8065
-14.9769
-15.1306
-15.2668
-15.385
-15.4845
-15.5649
-15.6254
-15.6658
-15.6853
-15.6837
-15.6606
-15.6157
-15.5487
-15.4594
-15.3479
-15.214
-15.0578
-14.8794
-14.6792
-14.4573
-14.2143
-13.9505
-13.6666
-13.3631
-13.0408
-12.7004
-12.3428
-11.9688
-11.5793
-11.1753
-10.7579
-10.328
-9.88663
-9.43495
-8.97399
-8.50483
-8.02854
-7.5462
-7.05884
-6.5675
-6.07319
-5.57688
-5.07953
-4.58206
-4.08534
-3.5902
-3.09746
-2.60788
-2.12215
-1.64093
-1.16483
-0.694444
-0.230291
0.227148
0.67744
1.12019
1.55505
1.98171
2.39991
2.80941
3.21002
3.6016
3.984
4.35715
4.72097
5.07544
5.42054
5.7563
6.08275
6.39996
6.708
7.00698
7.29702
7.57823
7.85077
8.11479
8.37046
8.61795
8.85745
9.08914
9.31321
9.52986
9.73929
9.9417
10.1373
10.3263
10.5089
10.6852
10.8556
11.0201
11.1791
11.3326
11.4808
11.6241
11.7624
11.8961
12.0253
12.1501
12.2707
12.3873
12.5
12.609
12.7145
12.8164
12.915
13.0105
13.1028
13.1922
13.2788
13.3626
13.4438
13.5225
13.5987
13.6727
13.7443
13.8137
13.8811
13.9464
14.0096
14.071
14.1305
14.1882
14.2441
14.2982
14.3506
14.4014
14.4504
14.4978
14.5436
14.5876
14.63
14.6707
14.7095
14.7466
14.7817
14.8148
14.8457
14.8743
14.9002
14.9231
14.9427
14.9583
14.9692
14.9743
14.9726
14.9606
14.9433
14.889
-7.69743
-7.73153
-7.78823
-7.86346
-7.95857
-8.07439
-8.21092
-8.36779
-8.54422
-8.73953
-8.95414
-9.18856
-9.44154
-9.71059
-9.993
-10.2861
-10.5872
-10.8937
-11.2032
-11.5133
-11.8217
-12.1265
-12.4257
-12.7177
-13.0009
-13.2739
-13.5356
-13.7849
-14.0206
-14.242
-14.4481
-14.6383
-14.8118
-14.968
-15.1062
-15.226
-15.3267
-15.4078
-15.4689
-15.5095
-15.5292
-15.5276
-15.5044
-15.4594
-15.3925
-15.3034
-15.1922
-15.0588
-14.9034
-14.7261
-14.5272
-14.3071
-14.066
-13.8046
-13.5234
-13.2229
-12.904
-12.5673
-12.2137
-11.8441
-11.4592
-11.0601
-10.6478
-10.2232
-9.78736
-9.34134
-8.88618
-8.42292
-7.95261
-7.47628
-6.99497
-6.50967
-6.02138
-5.53104
-5.03958
-4.5479
-4.05686
-3.56727
-3.07992
-2.59555
-2.11488
-1.63854
-1.16713
-0.701201
-0.24129
0.212126
0.658612
1.09778
1.52928
1.9528
2.36808
2.77489
3.17302
3.56233
3.94268
4.31397
4.67615
5.02915
5.37298
5.70764
6.03317
6.34962
6.65706
6.95559
7.2453
7.52634
7.79882
8.0629
8.31874
8.5665
8.80635
9.03849
9.26308
9.48033
9.69042
9.89355
10.0899
10.2797
10.4632
10.6404
10.8117
10.9772
11.1371
11.2916
11.4409
11.5851
11.7245
11.8592
11.9893
12.1152
12.2368
12.3544
12.4681
12.5781
12.6845
12.7874
12.887
12.9833
13.0766
13.1669
13.2543
13.339
13.421
13.5005
13.5776
13.6523
13.7247
13.7949
13.863
13.929
13.993
14.0551
14.1152
14.1736
14.2301
14.2849
14.3379
14.3892
14.4389
14.4868
14.5331
14.5777
14.6205
14.6616
14.7009
14.7383
14.7737
14.8069
14.8379
14.8664
14.8921
14.9146
14.9334
14.948
14.9575
14.9609
14.9571
14.9427
14.9226
14.8661
-7.6329
-7.65793
-7.70398
-7.76262
-7.83739
-7.93033
-8.04267
-8.17527
-8.32836
-8.50223
-8.69828
-8.9175
-9.15869
-9.41913
-9.69583
-9.98582
-10.2861
-10.5938
-10.9061
-11.2202
-11.5337
-11.8441
-12.1495