/*--------------------------------*- C++ -*----------------------------------*\
  =========                 |
  \\      /  F ield         | OpenFOAM: The Open Source CFD Toolbox
   \\    /   O peration     | Website:  https://openfoam.org
    \\  /    A nd           | Version:  8
     \\/     M anipulation  |
\*---------------------------------------------------------------------------*/
FoamFile
{
    version     2.0;
    format      ascii;
    class       surfaceScalarField;
    location    "900";
    object      phi;
}
// * * * * * * * * * * * * * * * * * * * * * * * * * * * * * * * * * * * * * //

dimensions      [0 3 -1 0 0 0 0];

internalField   nonuniform List<scalar> 
24170
(
3.92539e-06
-7.91498e-07
3.76465e-06
1.6075e-07
3.63345e-06
1.31209e-07
3.43331e-06
2.00144e-07
3.28028e-06
1.53027e-07
3.18901e-06
9.11905e-08
3.13091e-06
5.81103e-08
3.08609e-06
4.58909e-08
3.04613e-06
4.2323e-08
3.01059e-06
3.81621e-08
2.97876e-06
3.38018e-08
2.94904e-06
3.07698e-08
2.92187e-06
2.73774e-08
2.89642e-06
2.51996e-08
2.87227e-06
2.36048e-08
2.85194e-06
1.94825e-08
2.84098e-06
9.85576e-09
-6.38908e-09
2.8467e-06
3.58445e-06
-9.19499e-07
3.80424e-06
-5.90413e-08
3.74282e-06
1.92629e-07
3.6906e-06
2.52374e-07
3.63729e-06
2.06333e-07
3.59023e-06
1.3828e-07
3.55289e-06
9.55994e-08
3.52309e-06
7.56594e-08
3.49853e-06
6.65692e-08
3.47732e-06
5.92145e-08
3.45871e-06
5.25285e-08
3.44253e-06
4.72638e-08
3.42795e-06
4.23371e-08
3.41466e-06
3.87855e-08
3.40269e-06
3.57293e-08
3.39122e-06
3.10504e-08
3.38037e-06
2.08388e-08
4.76986e-09
3.36944e-06
3.68518e-06
-7.92482e-07
3.83639e-06
-2.10251e-07
3.91494e-06
1.14082e-07
3.94502e-06
2.22293e-07
3.94408e-06
2.07264e-07
3.92749e-06
1.54897e-07
3.90755e-06
1.15614e-07
3.88932e-06
9.36442e-08
3.874e-06
8.11961e-08
3.86056e-06
7.19153e-08
3.84834e-06
6.42553e-08
3.83728e-06
5.81345e-08
3.82691e-06
5.27783e-08
3.8174e-06
4.84742e-08
3.80891e-06
4.44325e-08
3.80098e-06
3.92514e-08
3.79196e-06
3.02036e-08
1.77883e-08
3.77944e-06
4.05359e-06
-6.4151e-07
4.1146e-06
-2.71259e-07
4.20799e-06
2.06915e-08
4.26635e-06
1.63932e-07
4.2907e-06
1.82926e-07
4.29287e-06
1.52748e-07
4.28571e-06
1.22818e-07
4.27631e-06
1.02843e-07
4.26727e-06
8.96858e-08
4.25873e-06
7.9817e-08
4.25056e-06
7.1949e-08
4.24283e-06
6.5634e-08
4.23534e-06
6.02455e-08
4.22824e-06
5.56922e-08
4.22149e-06
5.13511e-08
4.21464e-06
4.63432e-08
4.20599e-06
3.91801e-08
3.06525e-08
4.19351e-06
4.50491e-06
-5.09114e-07
4.51536e-06
-2.81708e-07
4.58529e-06
-4.92342e-08
4.64665e-06
1.02566e-07
4.68258e-06
1.46992e-07
4.69688e-06
1.38473e-07
4.69946e-06
1.20237e-07
4.69723e-06
1.04925e-07
4.69331e-06
9.32547e-08
4.68868e-06
8.40568e-08
4.68367e-06
7.66413e-08
4.67851e-06
7.06074e-08
4.67321e-06
6.54937e-08
4.66783e-06
6.11048e-08
4.66227e-06
5.70037e-08
4.65606e-06
5.27011e-08
4.64786e-06
4.75876e-08
4.25996e-08
4.63612e-06
5.00014e-06
-3.94663e-07
4.98614e-06
-2.67704e-07
5.03069e-06
-9.3779e-08
5.08506e-06
4.81978e-08
5.12454e-06
1.07516e-07
5.14608e-06
1.1694e-07
5.15584e-06
1.10489e-07
5.1594e-06
1.01285e-07
5.15985e-06
9.26075e-08
5.15859e-06
8.50832e-08
5.15629e-06
7.87424e-08
5.15333e-06
7.3442e-08
5.14984e-06
6.8933e-08
5.14589e-06
6.50627e-08
5.14136e-06
6.15855e-08
5.13584e-06
5.83076e-08
5.12839e-06
5.51456e-08
5.30471e-08
5.11808e-06
5.54382e-06
-2.97475e-07
5.51664e-06
-2.40529e-07
5.54055e-06
-1.17686e-07
5.58388e-06
4.87024e-09
5.62166e-06
6.97342e-08
5.64656e-06
9.2046e-08
5.66107e-06
9.59682e-08
5.66906e-06
9.32469e-08
5.67315e-06
8.8424e-08
5.67481e-06
8.33007e-08
5.67491e-06
7.85513e-08
5.6739e-06
7.4375e-08
5.67204e-06
7.0765e-08
5.6694e-06
6.7695e-08
5.66591e-06
6.50985e-08
5.66127e-06
6.29864e-08
5.65494e-06
6.15447e-08
6.1529e-08
5.6465e-06
4.34788e-06
-2.39242e-07
4.32251e-06
-2.15162e-07
4.33078e-06
-1.25951e-07
4.35419e-06
-1.85364e-08
4.3784e-06
4.55258e-08
4.39646e-06
7.39847e-08
4.40841e-06
8.40225e-08
4.41597e-06
8.56734e-08
4.42059e-06
8.37674e-08
4.42325e-06
8.05973e-08
4.42456e-06
7.71961e-08
4.4249e-06
7.40022e-08
4.42447e-06
7.11794e-08
4.42334e-06
6.88094e-08
4.42151e-06
6.69357e-08
4.41885e-06
6.56694e-08
4.41514e-06
6.52668e-08
6.63464e-08
4.41035e-06
5.08621e-06
-1.85599e-07
5.05777e-06
-1.86718e-07
5.0584e-06
-1.26578e-07
5.07686e-06
-3.70025e-08
5.09918e-06
2.32139e-08
5.11773e-06
5.5436e-08
5.13124e-06
7.05068e-08
5.14059e-06
7.63164e-08
5.14686e-06
7.74752e-08
5.15094e-06
7.64967e-08
5.15344e-06
7.46757e-08
5.15477e-06
7.26657e-08
5.15514e-06
7.07961e-08
5.15468e-06
6.92633e-08
5.15341e-06
6.8209e-08
5.15128e-06
6.78119e-08
5.14821e-06
6.83487e-08
7.027e-08
5.14429e-06
5.94839e-06
-1.38193e-07
5.91832e-06
-1.56649e-07
5.91161e-06
-1.19866e-07
5.924e-06
-4.93968e-08
5.94286e-06
4.35853e-09
5.96058e-06
3.77166e-08
5.97479e-06
5.62909e-08
5.98546e-06
6.56461e-08
5.9932e-06
6.97354e-08
5.99867e-06
7.10168e-08
6.00242e-06
7.09149e-08
6.00484e-06
7.02391e-08
6.00618e-06
6.94572e-08
6.00657e-06
6.88662e-08
6.0061e-06
6.86866e-08
6.00478e-06
6.9134e-08
6.00267e-06
7.04599e-08
7.29736e-08
5.99997e-06
6.95439e-06
-9.8313e-08
6.92401e-06
-1.26278e-07
6.91113e-06
-1.06984e-07
6.9168e-06
-5.50658e-08
6.93087e-06
-9.71054e-09
6.94635e-06
2.22392e-08
6.96015e-06
4.24926e-08
6.9714e-06
5.43959e-08
6.98017e-06
6.09611e-08
6.98684e-06
6.43472e-08
6.9918e-06
6.59546e-08
6.99537e-06
6.66639e-08
6.9978e-06
6.70296e-08
6.99924e-06
6.7423e-08
6.99982e-06
6.81119e-08
6.99963e-06
6.93228e-08
6.99883e-06
7.12657e-08
7.41273e-08
6.99767e-06
8.12719e-06
-6.64877e-08
8.09793e-06
-9.7021e-08
8.08056e-06
-8.96089e-08
8.07955e-06
-5.40588e-08
8.08793e-06
-1.80894e-08
8.09985e-06
1.03227e-08
8.11198e-06
3.03587e-08
8.12286e-06
4.35218e-08
8.13202e-06
5.1795e-08
8.1395e-06
5.68673e-08
8.14548e-06
5.99749e-08
8.15018e-06
6.19692e-08
8.15378e-06
6.34303e-08
8.15644e-06
6.47559e-08
8.15832e-06
6.62321e-08
8.15957e-06
6.80727e-08
8.1604e-06
7.04393e-08
7.34373e-08
8.16109e-06
9.49368e-06
-4.24387e-08
9.4668e-06
-7.01428e-08
9.44683e-06
-6.96403e-08
9.43991e-06
-4.71318e-08
9.44229e-06
-2.0468e-08
9.44965e-06
2.95529e-09
9.45895e-06
2.10642e-08
9.4684e-06
3.40702e-08
9.47716e-06
4.30359e-08
9.48491e-06
4.91201e-08
9.49159e-06
5.32929e-08
9.49727e-06
5.62908e-08
9.50205e-06
5.86454e-08
9.50607e-06
6.07371e-08
9.50947e-06
6.28329e-08
9.51242e-06
6.51188e-08
9.51515e-06
6.77131e-08
7.06691e-08
9.51792e-06
1.10854e-05
-2.5159e-08
1.10618e-05
-4.65026e-08
1.1041e-05
-4.88067e-08
1.10294e-05
-3.55517e-08
1.10261e-05
-1.71699e-08
1.10284e-05
6.04736e-10
1.1034e-05
1.54744e-08
1.10411e-05
2.69704e-08
1.10487e-05
3.54913e-08
1.10561e-05
4.17151e-08
1.1063e-05
4.63125e-08
1.10695e-05
4.9842e-08
1.10754e-05
5.27337e-08
1.10808e-05
5.53017e-08
1.10859e-05
5.77664e-08
1.10908e-05
6.02715e-08
1.10956e-05
6.28974e-08
6.56675e-08
1.11006e-05
1.29396e-05
-1.31186e-08
1.29194e-05
-2.62786e-08
1.28988e-05
-2.8252e-08
1.28839e-05
-2.06877e-08
1.28758e-05
-8.9959e-09
1.28732e-05
3.14468e-09
1.28748e-05
1.39397e-08
1.28789e-05
2.2788e-08
1.28847e-05
2.9744e-08
1.28913e-05
3.51425e-08
1.28982e-05
3.93826e-08
1.29052e-05
4.28272e-08
1.29122e-05
4.57687e-08
1.29191e-05
4.84238e-08
1.29259e-05
5.09417e-08
1.29327e-05
5.34141e-08
1.29397e-05
5.5884e-08
5.83545e-08
1.29471e-05
1.50998e-05
-4.48307e-09
1.50822e-05
-8.67597e-09
1.50621e-05
-8.11354e-09
1.50448e-05
-3.45825e-09
1.50327e-05
3.10954e-09
1.50259e-05
9.93844e-09
1.50237e-05
1.61614e-08
1.5025e-05
2.14638e-08
1.50289e-05
2.58526e-08
1.50346e-05
2.94839e-08
1.50414e-05
3.25535e-08
1.5049e-05
3.5242e-08
1.50571e-05
3.76925e-08
1.50655e-05
4.00064e-08
1.50742e-05
4.22462e-08
1.50832e-05
4.44414e-08
1.50925e-05
4.65944e-08
4.86871e-08
1.51021e-05
1.76171e-05
2.89314e-09
1.75999e-05
8.52321e-09
1.75787e-05
1.30297e-08
1.7559e-05
1.62778e-08
1.75436e-05
1.84723e-08
1.75336e-05
1.99573e-08
1.75287e-05
2.10517e-08
1.75282e-05
2.19929e-08
1.75311e-05
2.29389e-08
1.75366e-05
2.39845e-08
1.7544e-05
2.51763e-08
1.75527e-05
2.65267e-08
1.75624e-05
2.80248e-08
1.75727e-05
2.9645e-08
1.75836e-05
3.13508e-08
1.7595e-05
3.31012e-08
1.76067e-05
3.48503e-08
3.65535e-08
1.76188e-05
1.78181e-05
1.10003e-08
1.77994e-05
2.72127e-08
1.77768e-05
3.56241e-08
1.7756e-05
3.70584e-08
1.77402e-05
3.43259e-08
1.77302e-05
2.99461e-08
1.77257e-05
2.54994e-08
1.77259e-05
2.17773e-08
1.77298e-05
1.9074e-08
1.77364e-05
1.73991e-08
1.77449e-05
1.66314e-08
1.77549e-05
1.66024e-08
1.77658e-05
1.71401e-08
1.77773e-05
1.80879e-08
1.77894e-05
1.93132e-08
1.78017e-05
2.07025e-08
1.78144e-05
2.21667e-08
2.36295e-08
1.78274e-05
1.58702e-05
2.21334e-08
1.58478e-05
4.95814e-08
1.58233e-05
6.01323e-08
1.58032e-05
5.72345e-08
1.57899e-05
4.76104e-08
1.57834e-05
3.63713e-08
1.57827e-05
2.61974e-08
1.57864e-05
1.8146e-08
1.57931e-05
1.23648e-08
1.58019e-05
8.61168e-09
1.5812e-05
6.49642e-09
1.5823e-05
5.62817e-09
1.58345e-05
5.66422e-09
1.58462e-05
6.32788e-09
1.58581e-05
7.39911e-09
1.58701e-05
8.71473e-09
1.58821e-05
1.01459e-08
1.16041e-08
1.58942e-05
1.41313e-05
3.95386e-08
1.41021e-05
7.87069e-08
1.40745e-05
8.77878e-08
1.40557e-05
7.60385e-08
1.40469e-05
5.64135e-08
1.40462e-05
3.70401e-08
1.40512e-05
2.12106e-08
1.40597e-05
9.58295e-09
1.40704e-05
1.76311e-09
1.4082e-05
-3.04844e-09
1.40941e-05
-5.60417e-09
1.41063e-05
-6.55995e-09
1.41184e-05
-6.41535e-09
1.41303e-05
-5.55983e-09
1.41419e-05
-4.26315e-09
1.41534e-05
-2.72386e-09
1.41646e-05
-1.07943e-09
5.7252e-10
1.41756e-05
1.25772e-05
6.73555e-08
1.25392e-05
1.1674e-07
1.25091e-05
1.17889e-07
1.24942e-05
9.0891e-08
1.24928e-05
5.78142e-08
1.25002e-05
2.96838e-08
1.25122e-05
9.13272e-09
1.25264e-05
-4.49429e-09
1.25409e-05
-1.28331e-08
1.25552e-05
-1.73452e-08
1.25689e-05
-1.92802e-08
1.25819e-05
-1.94981e-08
1.25941e-05
-1.86523e-08
1.26057e-05
-1.71581e-08
1.26167e-05
-1.53147e-08
1.26273e-05
-1.33129e-08
1.26375e-05
-1.12749e-08
-9.29281e-09
1.26473e-05
1.11862e-05
1.10916e-07
1.11384e-05
1.6457e-07
1.11088e-05
1.4752e-07
1.11022e-05
9.74849e-08
1.11117e-05
4.83135e-08
1.11289e-05
1.24032e-08
1.11486e-05
-1.04584e-08
1.11678e-05
-2.37227e-08
1.11855e-05
-3.05019e-08
1.12014e-05
-3.32839e-08
1.12157e-05
-3.35502e-08
1.12285e-05
-3.23509e-08
1.12402e-05
-3.03e-08
1.12508e-05
-2.78604e-08
1.12608e-05
-2.52743e-08
1.12701e-05
-2.26727e-08
1.1279e-05
-2.0161e-08
-1.77797e-08
1.12875e-05
9.93908e-06
1.76452e-07
9.88248e-06
2.21163e-07
9.85873e-06
1.71262e-07
9.86593e-06
9.02758e-08
9.88961e-06
2.46396e-08
9.9176e-06
-1.55536e-08
9.94392e-06
-3.67909e-08
9.96668e-06
-4.6403e-08
9.98571e-06
-4.96015e-08
1.00017e-05
-4.92782e-08
1.00152e-05
-4.71145e-08
1.00269e-05
-4.39956e-08
1.00371e-05
-4.05228e-08
1.00462e-05
-3.70141e-08
1.00546e-05
-3.36411e-08
1.00623e-05
-3.04403e-08
1.00696e-05
-2.74406e-08
-2.47045e-08
1.00765e-05
8.81963e-06
2.69916e-07
8.75785e-06
2.82944e-07
8.74788e-06
1.81226e-07
8.77481e-06
6.33232e-08
8.81458e-06
-1.51282e-08
8.85212e-06
-5.30897e-08
8.88269e-06
-6.72247e-08
8.90623e-06
-7.00187e-08
8.92427e-06
-6.76058e-08
8.93842e-06
-6.33583e-08
8.94983e-06
-5.83945e-08
8.95924e-06
-5.33303e-08
8.96721e-06
-4.8466e-08
8.97418e-06
-4.40022e-08
8.98049e-06
-3.99939e-08
8.98631e-06
-3.62918e-08
8.99173e-06
-3.29046e-08
-2.98869e-08
8.99691e-06
7.81391e-06
3.96675e-07
7.75391e-06
3.42943e-07
7.76868e-06
1.6644e-07
7.82054e-06
1.14613e-08
7.87567e-06
-7.02734e-08
7.91913e-06
-9.64894e-08
7.94967e-06
-9.78324e-08
7.97057e-06
-9.06425e-08
7.98484e-06
-8.15752e-08
7.99524e-06
-7.35381e-08
8.00315e-06
-6.60957e-08
8.00936e-06
-5.94352e-08
8.01442e-06
-5.33075e-08
8.01874e-06
-4.81905e-08
8.02269e-06
-4.38822e-08
8.02632e-06
-3.99552e-08
8.02969e-06
-3.63287e-08
-3.31998e-08
8.03296e-06
6.90424e-06
5.66768e-07
6.86137e-06
3.85805e-07
6.91717e-06
1.10634e-07
6.99674e-06
-6.8133e-08
7.06253e-06
-1.36071e-07
7.10529e-06
-1.39267e-07
7.13032e-06
-1.22546e-07
7.14448e-06
-1.04615e-07
7.15207e-06
-8.89763e-08
7.15709e-06
-7.57947e-08
7.16036e-06
-6.66439e-08
7.16269e-06
-5.96183e-08
7.16412e-06
-5.41357e-08
7.16536e-06
-4.91606e-08
7.16661e-06
-4.52164e-08
7.16779e-06
-4.16571e-08
7.16889e-06
-3.77468e-08
-3.4663e-08
7.1701e-06
6.07162e-06
7.97662e-07
6.08526e-06
3.72164e-07
6.19865e-06
-2.77345e-09
6.2999e-06
-1.69398e-07
6.36526e-06
-2.01462e-07
6.39754e-06
-1.71504e-07
6.41011e-06
-1.35219e-07
6.41343e-06
-1.06943e-07
6.41239e-06
-8.57931e-08
6.40989e-06
-7.40086e-08
6.40746e-06
-6.45108e-08
6.40486e-06
-5.76816e-08
6.40233e-06
-5.11085e-08
6.39996e-06
-4.64764e-08
6.39808e-06
-4.375e-08
6.39676e-06
-4.01715e-08
6.39514e-06
-3.64419e-08
-3.40953e-08
6.3939e-06
5.35805e-06
1.05451e-06
5.50649e-06
2.23716e-07
5.64777e-06
-1.44085e-07
5.73564e-06
-2.57314e-07
5.77646e-06
-2.42347e-07
5.78324e-06
-1.78425e-07
5.77528e-06
-1.26644e-07
5.76328e-06
-9.40043e-08
5.74975e-06
-7.56518e-08
5.73931e-06
-6.40099e-08
5.73029e-06
-5.65013e-08
5.72239e-06
-5.00016e-08
5.71428e-06
-4.41825e-08
5.70724e-06
-3.97257e-08
5.70186e-06
-3.77855e-08
5.69671e-06
-3.5402e-08
5.6917e-06
-3.14647e-08
-2.96532e-08
5.68736e-06
5.04576e-06
1.01105e-06
5.36491e-06
-9.54497e-08
5.35251e-06
-1.31766e-07
5.33285e-06
-2.37745e-07
5.296e-06
-2.05651e-07
5.25016e-06
-1.32589e-07
5.20891e-06
-8.47324e-08
5.17485e-06
-6.08213e-08
5.14634e-06
-4.98263e-08
5.12483e-06
-4.29547e-08
5.10676e-06
-3.93125e-08
5.09059e-06
-3.559e-08
5.07487e-06
-3.02687e-08
5.06152e-06
-2.66321e-08
5.05062e-06
-2.70199e-08
5.0397e-06
-2.44148e-08
5.02919e-06
-2.02437e-08
-2.11068e-08
5.0213e-06
5.4676e-06
5.37215e-06
5.24037e-06
5.00261e-06
4.79694e-06
4.66444e-06
4.57967e-06
4.51835e-06
4.46847e-06
4.42535e-06
4.38573e-06
4.34971e-06
4.31933e-06
4.29269e-06
4.26567e-06
4.24143e-06
4.22142e-06
4.20064e-06
2.31288e-08
-2.31306e-08
2.37202e-07
-2.1408e-07
4.89327e-07
-2.52094e-07
7.09592e-07
-2.20245e-07
8.77308e-07
-1.67697e-07
9.88438e-07
-1.1112e-07
1.0441e-06
-5.56532e-08
1.04652e-06
-2.42363e-09
1.00103e-06
4.55103e-08
9.17753e-07
8.32648e-08
8.11955e-07
1.05808e-07
7.02769e-07
1.09173e-07
6.09986e-07
9.27787e-08
5.437e-07
6.62968e-08
4.92558e-07
5.11599e-08
4.3338e-07
5.98781e-08
3.47075e-07
8.61643e-08
2.21975e-07
1.25867e-07
4.36707e-08
1.77882e-07
-2.01793e-07
2.44829e-07
-5.04327e-07
3.02276e-07
-8.45316e-07
3.40736e-07
-1.20965e-06
3.64346e-07
-1.58705e-06
3.77406e-07
-1.96865e-06
3.81641e-07
-2.34448e-06
3.75853e-07
-2.70652e-06
3.6206e-07
-3.0496e-06
3.43091e-07
-3.36989e-06
3.20308e-07
-3.66507e-06
2.95181e-07
-3.93426e-06
2.69197e-07
-4.17779e-06
2.4353e-07
-4.39667e-06
2.18888e-07
-4.5924e-06
1.95727e-07
-4.76667e-06
1.74272e-07
-4.92127e-06
1.54605e-07
-5.05796e-06
1.36688e-07
-5.17836e-06
1.20404e-07
-5.28396e-06
1.05592e-07
-5.37603e-06
9.20705e-08
-5.45569e-06
7.9659e-08
-5.52387e-06
6.81846e-08
-5.58136e-06
5.7492e-08
-5.62881e-06
4.74471e-08
-5.66675e-06
3.7941e-08
-5.69564e-06
2.88864e-08
-5.71585e-06
2.02119e-08
-5.72774e-06
1.18877e-08
-5.73178e-06
4.04169e-09
-5.72884e-06
-2.93811e-09
-5.72001e-06
-8.83677e-09
-5.70605e-06
-1.39635e-08
-5.68737e-06
-1.86798e-08
-5.66422e-06
-2.31472e-08
-5.63678e-06
-2.74438e-08
-5.60518e-06
-3.15975e-08
-5.56956e-06
-3.56233e-08
-5.53003e-06
-3.95279e-08
-5.48672e-06
-4.33125e-08
-5.43974e-06
-4.69758e-08
-5.38922e-06
-5.05154e-08
-5.3353e-06
-5.39279e-08
-5.27809e-06
-5.72096e-08
-5.21773e-06
-6.03576e-08
-5.15436e-06
-6.33691e-08
-5.08812e-06
-6.62411e-08
-5.01915e-06
-6.89701e-08
-4.9476e-06
-7.1554e-08
-4.8736e-06
-7.39909e-08
-4.79733e-06
-7.62798e-08
-4.71891e-06
-7.84197e-08
-4.63849e-06
-8.04104e-08
-4.55624e-06
-8.22523e-08
-4.4723e-06
-8.39459e-08
-4.3868e-06
-8.54925e-08
-4.29991e-06
-8.68938e-08
-4.21176e-06
-8.81519e-08
-4.12249e-06
-8.92694e-08
-4.03224e-06
-9.02493e-08
-3.94114e-06
-9.1095e-08
-3.84933e-06
-9.18104e-08
-3.75693e-06
-9.23998e-08
-3.66406e-06
-9.2868e-08
-3.57084e-06
-9.32206e-08
-3.47738e-06
-9.34637e-08
-3.38377e-06
-9.36045e-08
-3.29012e-06
-9.36518e-08
-3.19651e-06
-9.3616e-08
-3.10299e-06
-9.351e-08
-3.00964e-06
-9.33496e-08
-2.91649e-06
-9.31555e-08
-2.82353e-06
-9.29529e-08
-2.73077e-06
-9.27599e-08
-2.63822e-06
-9.25561e-08
-2.54596e-06
-9.22567e-08
-2.4542e-06
-9.17602e-08
-2.36321e-06
-9.09811e-08
-2.27328e-06
-8.99365e-08
-2.18449e-06
-8.87833e-08
-2.09686e-06
-8.76285e-08
-2.01039e-06
-8.64724e-08
-1.92509e-06
-8.52991e-08
-1.84098e-06
-8.41011e-08
-1.75811e-06
-8.28776e-08
-1.67647e-06
-8.16311e-08
-1.59611e-06
-8.03653e-08
-1.51702e-06
-7.90841e-08
-1.43923e-06
-7.77902e-08
-1.36275e-06
-7.64814e-08
-1.28761e-06
-7.51371e-08
-1.21384e-06
-7.37694e-08
-1.14143e-06
-7.24058e-08
-1.07038e-06
-7.10416e-08
-1.0007e-06
-6.96777e-08
-9.32387e-07
-6.83154e-08
-8.65429e-07
-6.6956e-08
-7.99825e-07
-6.56018e-08
-7.35567e-07
-6.42554e-08
-6.72645e-07
-6.29189e-08
-6.11051e-07
-6.15916e-08
-5.50774e-07
-6.02742e-08
-4.91801e-07
-5.89693e-08
-4.34115e-07
-5.76833e-08
-3.7769e-07
-5.64214e-08
-3.22506e-07
-5.51797e-08
-2.68547e-07
-5.39548e-08
-2.15792e-07
-5.27506e-08
-1.64221e-07
-5.15663e-08
-1.13825e-07
-5.03901e-08
-6.45974e-08
-4.92218e-08
-1.66594e-08
-4.79315e-08
3.01206e-08
-4.67731e-08
7.60495e-08
-4.59221e-08
1.21021e-07
-4.49649e-08
1.64933e-07
-4.39049e-08
2.07781e-07
-4.2841e-08
2.49582e-07
-4.17944e-08
2.90366e-07
-4.07775e-08
3.30165e-07
-3.97927e-08
3.6901e-07
-3.88381e-08
4.06929e-07
-3.79123e-08
4.43949e-07
-3.70136e-08
4.80095e-07
-3.61412e-08
5.15395e-07
-3.5294e-08
5.49871e-07
-3.4472e-08
5.83549e-07
-3.36744e-08
6.16452e-07
-3.29011e-08
6.48606e-07
-3.2152e-08
6.80034e-07
-3.14268e-08
7.10761e-07
-3.07257e-08
7.4081e-07
-3.00484e-08
7.70207e-07
-2.93951e-08
7.98974e-07
-2.87658e-08
8.27135e-07
-2.81606e-08
8.54716e-07
-2.75794e-08
8.8174e-07
-2.70222e-08
9.0823e-07
-2.64888e-08
9.34211e-07
-2.5979e-08
9.59705e-07
-2.54923e-08
9.84734e-07
-2.5028e-08
1.00932e-06
-2.45846e-08
1.03348e-06
-2.41603e-08
1.05724e-06
-2.37523e-08
1.08059e-06
-2.33567e-08
1.10356e-06
-2.29676e-08
1.12614e-06
-2.2577e-08
1.14831e-06
-2.21734e-08
1.17006e-06
-2.17411e-08
1.19131e-06
-2.1258e-08
1.21201e-06
-2.06931e-08
1.23201e-06
-2.0002e-08
1.25113e-06
-1.9121e-08
1.26908e-06
-1.79527e-08
1.28543e-06
-1.63529e-08
1.29948e-06
-1.40462e-08
1.3101e-06
-1.06223e-08
1.31467e-06
-4.55766e-09
1.30782e-06
6.85796e-09
1.27828e-06
2.9539e-08
7.23319e-08
1.20594e-06
2.54184e-07
-2.77337e-07
4.90083e-07
-4.49977e-07
6.39668e-07
-4.01676e-07
7.24301e-07
-3.04876e-07
7.63816e-07
-2.07203e-07
7.69763e-07
-1.17072e-07
7.48832e-07
-3.47168e-08
7.06651e-07
3.97496e-08
6.46292e-07
1.05874e-07
5.67666e-07
1.61881e-07
4.70053e-07
2.03426e-07
3.51786e-07
2.27429e-07
2.06827e-07
2.37744e-07
2.36333e-08
2.49506e-07
-2.0858e-07
2.8338e-07
-4.94219e-07
3.4561e-07
-8.32177e-07
4.2421e-07
-1.21203e-06
5.05739e-07
-1.61585e-06
5.81658e-07
-2.0173e-06
6.46217e-07
-2.40732e-06
6.92251e-07
-2.7828e-06
7.16202e-07
-3.13775e-06
7.19292e-07
-3.46517e-06
7.04838e-07
-3.75994e-06
6.76412e-07
-4.02109e-06
6.37007e-07
-4.24903e-06
5.90009e-07
-4.44505e-06
5.39113e-07
-4.61205e-06
4.87309e-07
-4.75354e-06
4.36671e-07
-4.87288e-06
3.88546e-07
-4.97326e-06
3.4391e-07
-5.05755e-06
3.03175e-07
-5.12825e-06
2.6643e-07
-5.18749e-06
2.33512e-07
-5.237e-06
2.04117e-07
-5.27819e-06
1.77877e-07
-5.31219e-06
1.54399e-07
-5.3399e-06
1.33302e-07
-5.36206e-06
1.14235e-07
-5.37929e-06
9.68856e-08
-5.39209e-06
8.09889e-08
-5.40092e-06
6.63227e-08
-5.40618e-06
5.27053e-08
-5.40823e-06
3.99898e-08
-5.40741e-06
2.80613e-08
-5.40404e-06
1.68419e-08
-5.39845e-06
6.29691e-09
-5.39079e-06
-3.6177e-09
-5.38064e-06
-1.30916e-08
-5.36711e-06
-2.2365e-08
-5.3496e-06
-3.14671e-08
-5.32795e-06
-4.03321e-08
-5.30214e-06
-4.89565e-08
-5.27224e-06
-5.73471e-08
-5.23833e-06
-6.55101e-08
-5.2005e-06
-7.34483e-08
-5.15887e-06
-8.11611e-08
-5.11354e-06
-8.86453e-08
-5.06462e-06
-9.58953e-08
-5.01223e-06
-1.02904e-07
-4.95649e-06
-1.09665e-07
-4.89753e-06
-1.16168e-07
-4.83548e-06
-1.22409e-07
-4.77047e-06
-1.28381e-07
-4.70264e-06
-1.34078e-07
-4.63211e-06
-1.39494e-07
-4.55904e-06
-1.44622e-07
-4.48357e-06
-1.4946e-07
-4.40585e-06
-1.54007e-07
-4.32601e-06
-1.58259e-07
-4.2442e-06
-1.62217e-07
-4.16057e-06
-1.6588e-07
-4.07527e-06
-1.69251e-07
-3.98843e-06
-1.72332e-07
-3.9002e-06
-1.75125e-07
-3.81071e-06
-1.77635e-07
-3.72012e-06
-1.79868e-07
-3.62854e-06
-1.81828e-07
-3.53611e-06
-1.83524e-07
-3.44296e-06
-1.84962e-07
-3.3492e-06
-1.86151e-07
-3.25497e-06
-1.871e-07
-3.16037e-06
-1.87819e-07
-3.06552e-06
-1.88318e-07
-2.97051e-06
-1.88609e-07
-2.87546e-06
-1.88705e-07
-2.78046e-06
-1.88618e-07
-2.68561e-06
-1.88361e-07
-2.59101e-06
-1.87947e-07
-2.49678e-06
-1.87387e-07
-2.40304e-06
-1.86689e-07
-2.30995e-06
-1.85849e-07
-2.21767e-06
-1.84836e-07
-2.12632e-06
-1.83609e-07
-2.03594e-06
-1.82137e-07
-1.9465e-06
-1.80417e-07
-1.85795e-06
-1.78489e-07
-1.7703e-06
-1.76431e-07
-1.68363e-06
-1.74296e-07
-1.598e-06
-1.72098e-07
-1.51346e-06
-1.69837e-07
-1.43005e-06
-1.67515e-07
-1.34779e-06
-1.65136e-07
-1.26671e-06
-1.62706e-07
-1.18685e-06
-1.60229e-07
-1.10822e-06
-1.57711e-07
-1.03085e-06
-1.55157e-07
-9.54766e-07
-1.52566e-07
-8.79962e-07
-1.4994e-07
-8.06437e-07
-1.47293e-07
-7.34205e-07
-1.44637e-07
-6.6327e-07
-1.41975e-07
-5.93633e-07
-1.39313e-07
-5.25295e-07
-1.36653e-07
-4.58252e-07
-1.33997e-07
-3.92503e-07
-1.3135e-07
-3.28041e-07
-1.28716e-07
-2.64857e-07
-1.26102e-07
-2.02939e-07
-1.23507e-07
-1.42279e-07
-1.20932e-07
-8.28668e-08
-1.1838e-07
-2.46941e-08
-1.15854e-07
3.22525e-08
-1.13366e-07
8.80009e-08
-1.10926e-07
1.42569e-07
-1.0852e-07
1.95965e-07
-1.06145e-07
2.48207e-07
-1.03806e-07
2.99321e-07
-1.01501e-07
3.49336e-07
-9.92342e-08
3.9841e-07
-9.7003e-08
4.46517e-07
-9.48776e-08
4.9344e-07
-9.28428e-08
5.39247e-07
-9.07695e-08
5.84016e-07
-8.86711e-08
6.27779e-07
-8.66004e-08
6.70564e-07
-8.45766e-08
7.12395e-07
-8.26063e-08
7.53297e-07
-8.06911e-08
7.93292e-07
-7.88298e-08
8.32403e-07
-7.70206e-08
8.70655e-07
-7.52621e-08
9.0807e-07
-7.35531e-08
9.44671e-07
-7.18926e-08
9.80481e-07
-7.02801e-08
1.01552e-06
-6.87151e-08
1.04982e-06
-6.71973e-08
1.0834e-06
-6.57263e-08
1.11627e-06
-6.43023e-08
1.14847e-06
-6.29248e-08
1.18002e-06
-6.15943e-08
1.21094e-06
-6.03103e-08
1.24124e-06
-5.90733e-08
1.27097e-06
-5.78829e-08
1.30013e-06
-5.67393e-08
1.32875e-06
-5.56422e-08
1.35685e-06
-5.45911e-08
1.38446e-06
-5.35855e-08
1.41159e-06
-5.26241e-08
1.43827e-06
-5.17051e-08
1.46452e-06
-5.0826e-08
1.49034e-06
-4.99827e-08
1.51576e-06
-4.91699e-08
1.54078e-06
-4.83795e-08
1.56541e-06
-4.76005e-08
1.58966e-06
-4.68176e-08
1.61349e-06
-4.60094e-08
1.6369e-06
-4.51466e-08
1.65983e-06
-4.41879e-08
1.68221e-06
-4.3076e-08
1.70394e-06
-4.17289e-08
1.72484e-06
-4.00289e-08
1.74469e-06
-3.77992e-08
1.76311e-06
-3.47703e-08
1.77954e-06
-3.04813e-08
1.7931e-06
-2.41802e-08
1.80282e-06
-1.42727e-08
1.80768e-06
1.99868e-09
1.8058e-06
3.1426e-08
8.80348e-08
1.79009e-06
2.46008e-07
-5.23366e-07
3.42322e-07
-5.46296e-07
3.5861e-07
-4.17962e-07
3.47567e-07
-2.93824e-07
3.19865e-07
-1.79497e-07
2.75783e-07
-7.29895e-08
2.14608e-07
2.64604e-08
1.35289e-07
1.19063e-07
3.67661e-08
2.04398e-07
-8.31249e-08
2.81769e-07
-2.30089e-07
3.5039e-07
-4.14644e-07
4.11986e-07
-6.50204e-07
4.73301e-07
-9.43687e-07
5.42994e-07
-1.28494e-06
6.24625e-07
-1.65203e-06
7.12708e-07
-2.02414e-06
7.96315e-07
-2.3844e-06
8.65985e-07
-2.71891e-06
9.16157e-07
-3.01714e-06
9.44432e-07
-3.27521e-06
9.50322e-07
-3.49411e-06
9.35107e-07
-3.67682e-06
9.02008e-07
-3.82739e-06
8.55407e-07
-3.95053e-06
7.99558e-07
-4.05166e-06
7.38143e-07
-4.13612e-06
6.74464e-07
-4.20829e-06
6.11281e-07
-4.2716e-06
5.50626e-07
-4.32868e-06
4.9375e-07
-4.3814e-06
4.41264e-07
-4.43089e-06
3.934e-07
-4.47778e-06
3.50073e-07
-4.52236e-06
3.11005e-07
-4.56465e-06
2.75802e-07
-4.60456e-06
2.44027e-07
-4.64192e-06
2.15239e-07
-4.67655e-06
1.89023e-07
-4.70825e-06
1.65001e-07
-4.73686e-06
1.42844e-07
-4.76224e-06
1.22267e-07
-4.78428e-06
1.03035e-07
-4.80291e-06
8.49473e-08
-4.81804e-06
6.78401e-08
-4.82963e-06
5.15734e-08
-4.83759e-06
3.60279e-08
-4.84185e-06
2.11019e-08
-4.84226e-06
6.70158e-09
-4.8386e-06
-7.27983e-09
-4.83073e-06
-2.09566e-08
-4.81871e-06
-3.43884e-08
-4.80261e-06
-4.75628e-08
-4.78249e-06
-6.04576e-08
-4.75838e-06
-7.30643e-08
-4.73035e-06
-8.53766e-08
-4.69847e-06
-9.73886e-08
-4.66283e-06
-1.09093e-07
-4.62351e-06
-1.20482e-07
-4.58061e-06
-1.31545e-07
-4.53423e-06
-1.42271e-07
-4.48449e-06
-1.52647e-07
-4.4315e-06
-1.6266e-07
-4.37537e-06
-1.72297e-07
-4.31623e-06
-1.81546e-07
-4.25421e-06
-1.90402e-07
-4.18944e-06
-1.98852e-07
-4.12204e-06
-2.06886e-07
-4.05217e-06
-2.14497e-07
-3.97995e-06
-2.2168e-07
-3.90552e-06
-2.28431e-07
-3.82904e-06
-2.34747e-07
-3.75063e-06
-2.40627e-07
-3.67044e-06
-2.46071e-07
-3.58861e-06
-2.51082e-07
-3.50528e-06
-2.55661e-07
-3.42059e-06
-2.59815e-07
-3.33467e-06
-2.63548e-07
-3.24767e-06
-2.66869e-07
-3.15971e-06
-2.69785e-07
-3.07093e-06
-2.72307e-07
-2.98145e-06
-2.74444e-07
-2.89139e-06
-2.76208e-07
-2.80088e-06
-2.77612e-07
-2.71003e-06
-2.7867e-07
-2.61895e-06
-2.79394e-07
-2.52776e-06
-2.79801e-07
-2.43656e-06
-2.79904e-07
-2.34546e-06
-2.79719e-07
-2.25456e-06
-2.7926e-07
-2.16396e-06
-2.7854e-07
-2.07378e-06
-2.77571e-07
-1.98411e-06
-2.76359e-07
-1.89506e-06
-2.74902e-07
-1.8067e-06
-2.73188e-07
-1.71911e-06
-2.71202e-07
-1.6323e-06
-2.68941e-07
-1.5463e-06
-2.66422e-07
-1.46111e-06
-2.6368e-07
-1.37678e-06
-2.60761e-07
-1.29337e-06
-2.577e-07
-1.21095e-06
-2.54517e-07
-1.12956e-06
-2.51225e-07
-1.04925e-06
-2.47833e-07
-9.70031e-07
-2.4435e-07
-8.9195e-07
-2.40786e-07
-8.15029e-07
-2.3715e-07
-7.39291e-07
-2.33449e-07
-6.64754e-07
-2.29692e-07
-5.91434e-07
-2.25886e-07
-5.19335e-07
-2.22038e-07
-4.48467e-07
-2.1816e-07
-3.7884e-07
-2.14263e-07
-3.10459e-07
-2.10355e-07
-2.43327e-07
-2.06444e-07
-1.77443e-07
-2.02535e-07
-1.12807e-07
-1.98632e-07
-4.94129e-08
-1.94742e-07
1.27441e-08
-1.90872e-07
7.36686e-08
-1.87025e-07
1.33369e-07
-1.83207e-07
1.91857e-07
-1.79419e-07
2.49147e-07
-1.75669e-07
3.05253e-07
-1.71959e-07
3.60187e-07
-1.68299e-07
4.13955e-07
-1.64693e-07
4.66573e-07
-1.61137e-07
5.18061e-07
-1.57632e-07
5.68438e-07
-1.54182e-07
6.17727e-07
-1.50789e-07
6.65956e-07
-1.47462e-07
7.13169e-07
-1.44214e-07
7.59348e-07
-1.41055e-07
8.04459e-07
-1.37953e-07
8.4855e-07
-1.3486e-07
8.91667e-07
-1.31787e-07
9.33832e-07
-1.28764e-07
9.75064e-07
-1.25807e-07
1.01538e-06
-1.22922e-07
1.0548e-06
-1.20111e-07
1.09335e-06
-1.17375e-07
1.13104e-06
-1.14713e-07
1.1679e-06
-1.12122e-07
1.20396e-06
-1.09603e-07
1.23922e-06
-1.07155e-07
1.27372e-06
-1.04777e-07
1.30747e-06
-1.02468e-07
1.3405e-06
-1.00229e-07
1.37284e-06
-9.8058e-08
1.40449e-06
-9.59563e-08
1.43549e-06
-9.39234e-08
1.46585e-06
-9.19592e-08
1.49561e-06
-9.00639e-08
1.52477e-06
-8.82374e-08
1.55337e-06
-8.64797e-08
1.58142e-06
-8.47906e-08
1.60895e-06
-8.31699e-08
1.63598e-06
-8.16168e-08
1.66252e-06
-8.01303e-08
1.68861e-06
-7.87087e-08
1.71425e-06
-7.73493e-08
1.73948e-06
-7.60483e-08
1.7643e-06
-7.48001e-08
1.78872e-06
-7.35967e-08
1.81277e-06
-7.2427e-08
1.83645e-06
-7.12751e-08
1.85975e-06
-7.01196e-08
1.88267e-06
-6.89305e-08
1.90519e-06
-6.76665e-08
1.92727e-06
-6.62703e-08
1.94886e-06
-6.46618e-08
1.96986e-06
-6.27278e-08
1.99014e-06
-6.03056e-08
2.00949e-06
-5.71545e-08
2.02763e-06
-5.29112e-08
2.04414e-06
-4.69849e-08
2.05839e-06
-3.84361e-08
2.06963e-06
-2.55048e-08
2.07697e-06
-5.34724e-09
2.08087e-06
2.75253e-08
8.54967e-08
2.08341e-06
9.37337e-08
-6.17112e-07
6.23895e-08
-5.14966e-07
1.39066e-08
-3.69472e-07
-4.31839e-08
-2.36727e-07
-1.1268e-07
-1.09996e-07
-1.9805e-07
1.23844e-08
-3.02279e-07
1.3069e-07
-4.27783e-07
2.44566e-07
-5.77137e-07
3.53751e-07
-7.53725e-07
4.58357e-07
-9.62306e-07
5.58968e-07
-1.20719e-06
6.56875e-07
-1.48718e-06
7.53284e-07
-1.79147e-06
8.47276e-07
-2.10135e-06
9.34505e-07
-2.39721e-06
1.00856e-06
-2.66456e-06
1.06365e-06
-2.89511e-06
1.09653e-06
-3.08561e-06
1.10665e-06
-3.23688e-06
1.09569e-06
-3.35326e-06
1.0667e-06
-3.4413e-06
1.02316e-06
-3.50812e-06
9.68831e-07
-3.56024e-06
9.07529e-07
-3.60314e-06
8.42461e-07
-3.64125e-06
7.7626e-07
-3.67783e-06
7.11039e-07
-3.71489e-06
6.48347e-07
-3.75345e-06
5.89187e-07
-3.79378e-06
5.34079e-07
-3.8357e-06
4.83176e-07
-3.8787e-06
4.36401e-07
-3.92214e-06
3.93521e-07
-3.96535e-06
3.54214e-07
-4.00767e-06
3.18118e-07
-4.04851e-06
2.84863e-07
-4.08736e-06
2.54092e-07
-4.12381e-06
2.25473e-07
-4.15752e-06
1.98708e-07
-4.1882e-06
1.7353e-07
-4.21565e-06
1.49712e-07
-4.23967e-06
1.27057e-07
-4.26012e-06
1.05397e-07
-4.27687e-06
8.45933e-08
-4.28982e-06
6.45245e-08
-4.29889e-06
4.50893e-08
-4.30399e-06
2.62017e-08
-4.30507e-06
7.78466e-09
-4.30211e-06
-1.02354e-08
-4.29515e-06
-2.79196e-08
-4.28424e-06
-4.5296e-08
-4.26945e-06
-6.23613e-08
-4.2508e-06
-7.9103e-08
-4.22836e-06
-9.55083e-08
-4.20217e-06
-1.11564e-07
-4.1723e-06
-1.27255e-07
-4.13883e-06
-1.42566e-07
-4.10183e-06
-1.57481e-07
-4.0614e-06
-1.71982e-07
-4.01762e-06
-1.8605e-07
-3.9706e-06
-1.99668e-07
-3.92044e-06
-2.12818e-07
-3.86726e-06
-2.25478e-07
-3.81117e-06
-2.37634e-07
-3.7523e-06
-2.49275e-07
-3.69076e-06
-2.60386e-07
-3.6267e-06
-2.70953e-07
-3.56023e-06
-2.80967e-07
-3.49149e-06
-2.9042e-07
-3.42061e-06
-2.99306e-07
-3.34774e-06
-3.07622e-07
-3.273e-06
-3.15365e-07
-3.19654e-06
-3.22536e-07
-3.11848e-06
-3.29136e-07
-3.03897e-06
-3.35171e-07
-2.95814e-06
-3.40645e-07
-2.87613e-06
-3.45566e-07
-2.79305e-06
-3.49942e-07
-2.70905e-06
-3.53786e-07
-2.62425e-06
-3.57109e-07
-2.53877e-06
-3.59924e-07
-2.45273e-06
-3.62245e-07
-2.36625e-06
-3.64089e-07
-2.27945e-06
-3.65472e-07
-2.19243e-06
-3.66411e-07
-2.10531e-06
-3.66924e-07
-2.01819e-06
-3.67029e-07
-1.93116e-06
-3.66743e-07
-1.84434e-06
-3.66084e-07
-1.75781e-06
-3.65068e-07
-1.67167e-06
-3.63708e-07
-1.58601e-06
-3.62015e-07
-1.50092e-06
-3.59997e-07
-1.41645e-06
-3.57654e-07
-1.33266e-06
-3.5499e-07
-1.24959e-06
-3.52013e-07
-1.16727e-06
-3.48744e-07
-1.08573e-06
-3.45215e-07
-1.00504e-06
-3.41459e-07
-9.25228e-07
-3.37507e-07
-8.4636e-07
-3.33384e-07
-7.68478e-07
-3.29107e-07
-6.91617e-07
-3.24692e-07
-6.15813e-07
-3.20154e-07
-5.41094e-07
-3.15505e-07
-4.67485e-07
-3.10758e-07
-3.95008e-07
-3.05926e-07
-3.23681e-07
-3.01018e-07
-2.53518e-07
-2.96048e-07
-1.84529e-07
-2.91027e-07
-1.16723e-07
-2.85966e-07
-5.01078e-08
-2.80877e-07
1.53101e-08
-2.75773e-07
7.95265e-08
-2.7066e-07