/*--------------------------------*- C++ -*----------------------------------*\
  =========                 |
  \\      /  F ield         | OpenFOAM: The Open Source CFD Toolbox
   \\    /   O peration     | Website:  https://openfoam.org
    \\  /    A nd           | Version:  8
     \\/     M anipulation  |
\*---------------------------------------------------------------------------*/
FoamFile
{
    version     2.0;
    format      ascii;
    class       volScalarField;
    location    "1700";
    object      k;
}
// * * * * * * * * * * * * * * * * * * * * * * * * * * * * * * * * * * * * * //

dimensions      [0 2 -2 0 0 0 0];

internalField   nonuniform List<scalar> 
12225
(
2.463
2.24649
2.08983
1.94804
2.20169
1.16407
3.31275
7.56174
7.86369
7.56572
4.76978
3.3692
2.58397
2.72092
1.69744
2.22183
1.66233
1.88046
0.462618
0.612501
0.708321
0.731468
0.777284
0.675882
1.05487
1.19609
1.28741
1.31925
1.3561
1.2773
1.16801
1.08648
1.06507
1.13138
1.12852
1.10848
0.359739
0.418725
0.453593
0.470375
0.469711
0.470302
0.471468
0.481121
0.462524
0.502581
0.490098
0.483919
0.487855
0.491591
0.49925
0.505284
0.518818
0.529977
0.366835
0.378356
0.384853
0.389649
0.392498
0.394553
0.394555
0.392779
0.390342
0.388145
0.385615
0.383028
0.381202
0.37977
0.37899
0.37882
0.377938
0.378251
0.371898
0.371233
0.372884
0.372749
0.372902
0.37311
0.372512
0.371075
0.36964
0.367465
0.365352
0.363179
0.361064
0.359128
0.357562
0.356462
0.355043
0.354095
0.373476
0.371543
0.370108
0.368623
0.367467
0.366331
0.365286
0.363874
0.362531
0.360898
0.359274
0.357618
0.356002
0.354505
0.353126
0.351977
0.350764
0.349716
0.37373
0.371559
0.369553
0.36758
0.365878
0.364275
0.362861
0.361363
0.359939
0.358455
0.357016
0.355589
0.354226
0.352945
0.351733
0.350643
0.349543
0.348554
0.37381
0.371566
0.369464
0.36742
0.365562
0.363808
0.362214
0.360645
0.359155
0.357684
0.356277
0.354911
0.353613
0.352387
0.351223
0.350144
0.349084
0.348106
0.373825
0.371575
0.369451
0.367404
0.365497
0.363687
0.362004
0.360389
0.358856
0.357378
0.355969
0.354618
0.353333
0.352117
0.350958
0.349874
0.348821
0.347837
0.373833
0.371565
0.36943
0.36739
0.365469
0.363641
0.361921
0.360282
0.358725
0.357239
0.355823
0.354472
0.353186
0.351965
0.350799
0.349701
0.348643
0.347648
0.373828
0.371562
0.36942
0.36738
0.365451
0.363617
0.361881
0.36023
0.358662
0.357169
0.355747
0.354395
0.353102
0.351875
0.350703
0.349591
0.348528
0.347518
0.373829
0.371558
0.369408
0.367368
0.365433
0.363596
0.361852
0.360197
0.358621
0.357124
0.355697
0.354338
0.353044
0.351811
0.350634
0.349516
0.348445
0.34743
0.373826
0.371554
0.3694
0.367357
0.365419
0.363577
0.361831
0.360168
0.358591
0.357087
0.355657
0.354295
0.352997
0.35176
0.350581
0.349457
0.348384
0.34736
0.373826
0.371552
0.369395
0.36735
0.365407
0.363565
0.361811
0.36015
0.358564
0.35706
0.355625
0.354261
0.352959
0.35172
0.350537
0.349409
0.348333
0.347305
0.373826
0.37155
0.369393
0.367344
0.3654
0.363553
0.3618
0.360132
0.358547
0.357038
0.355601
0.354233
0.352929
0.351687
0.350501
0.349371
0.348291
0.347262
0.373825
0.37155
0.369389
0.36734
0.365394
0.363546
0.36179
0.360121
0.358533
0.357022
0.355583
0.354212
0.352906
0.351661
0.350473
0.349341
0.348259
0.347227
0.373825
0.371548
0.369387
0.367337
0.365389
0.363541
0.361783
0.360113
0.358523
0.35701
0.35557
0.354198
0.35289
0.351643
0.350454
0.34932
0.348237
0.347203
0.373826
0.371546
0.369387
0.367333
0.365389
0.363536
0.361782
0.360107
0.35852
0.357004
0.355565
0.35419
0.352883
0.351634
0.350446
0.349309
0.348227
0.347192
0.373825
0.371547
0.369385
0.367335
0.365386
0.36354
0.361779
0.360111
0.358519
0.357008
0.355565
0.354194
0.352884
0.351637
0.350446
0.349312
0.348227
0.347193
0.373826
0.371549
0.369387
0.367337
0.365392
0.363542
0.361787
0.360115
0.358527
0.357013
0.355574
0.354201
0.352894
0.351645
0.350457
0.349321
0.348238
0.347204
0.373826
0.371551
0.369391
0.367341
0.365397
0.36355
0.361794
0.360125
0.358537
0.357026
0.355587
0.354215
0.352909
0.351662
0.350474
0.34934
0.348257
0.347224
0.373828
0.371553
0.369394
0.367347
0.365405
0.36356
0.361807
0.36014
0.358554
0.357046
0.355608
0.35424
0.352934
0.351691
0.350504
0.349373
0.348293
0.347262
0.373825
0.371555
0.369401
0.367357
0.365416
0.363576
0.361829
0.36017
0.358593
0.357092
0.355664
0.354303
0.353008
0.351772
0.350595
0.34947
0.348398
0.347371
0.373828
0.371555
0.369415
0.367378
0.365451
0.363637
0.361928
0.360312
0.358779
0.35732
0.35593
0.354602
0.353337
0.352125
0.350969
0.349859
0.3488
0.347778
0.373796
0.371558
0.369512
0.367547
0.365732
0.364101
0.362586
0.36116
0.359791
0.35846
0.357165
0.355899
0.354676
0.353482
0.352336
0.351213
0.350137
0.349074
0.373664
0.371685
0.370359
0.368946
0.367799
0.366894
0.365961
0.365001
0.36396
0.36282
0.361588
0.360292
0.358995
0.357674
0.3564
0.355109
0.353875
0.352613
0.373467
0.373247
0.37637
0.377651
0.378575
0.379177
0.378861
0.378408
0.37763
0.376412
0.374889
0.373165
0.371428
0.369601
0.367921
0.366148
0.364569
0.362862
0.378539
0.39593
0.417152
0.424846
0.425766
0.428042
0.426998
0.425814
0.424376
0.422475
0.420286
0.418012
0.41599
0.413942
0.412507
0.410835
0.409987
0.408607
0.401
0.498104
0.564894
0.591292
0.607533
0.620642
0.631042
0.640734
0.648477
0.655545
0.661596
0.667225
0.6727
0.677667
0.683135
0.687612
0.693184
0.69712
0.632263
1.14133
1.46582
1.60915
1.68057
1.69127
1.68687
1.6727
1.64762
1.61997
1.5922
1.56539
1.54029
1.517
1.4957
1.47624
1.4585
1.44234
1.04457e-08
2.58909e-07
1.29723e-06
4.97793e-06
1.63589e-05
4.93834e-05
0.000121645
0.000228958
0.000351951
0.000464698
0.000548279
0.000576052
0.000558394
0.000508684
0.000393017
0.000299162
0.000235542
0.000183197
0.00013566
9.16423e-05
5.66276e-05
3.28474e-05
1.8788e-05
1.11786e-05
7.97633e-06
7.07892e-06
2.11524e-05
3.26732e-05
0.00013662
0.00021826
0.000291661
0.000293715
0.000346362
0.000435354
0.000513025
0.00110619
0.00220952
0.00611458
0.02345
0.0585242
0.0897092
0.0968397
0.0749809
0.105068
0.104894
0.118391
0.125244
0.135511
0.146298
0.159202
0.180253
0.20221
0.18193
0.199081
0.131357
0.169439
0.161354
0.172058
0.174942
0.180526
0.185149
0.189758
0.194448
0.198869
0.203408
0.20777
0.212185
0.216507
0.220843
0.225131
0.229414
0.233673
0.237918
0.242149
0.246361
0.250564
0.254743
0.258912
0.263051
0.267178
0.271269
0.275342
0.27937
0.283372
0.287319
0.291229
0.295073
0.298867
0.302586
0.306245
0.309826
0.313333
0.316767
0.320142
0.323477
0.326816
0.330078
0.333278
0.336409
0.339476
0.342471
0.345396
0.348244
0.351015
0.353706
0.356314
0.358836
0.361269
0.363613
0.365863
0.368019
0.370076
0.372037
0.373893
0.37565
0.377298
0.378844
0.380276
0.381604
0.382816
0.383919
0.384904
0.385777
0.38653
0.387169
0.387685
0.388084
0.388358
0.388509
0.388529
0.388472
0.388326
0.388096
0.387517
0.3872
0.386279
0.385828
0.384581
0.383796
0.382466
0.381288
0.379933
0.378506
0.376978
0.375315
0.373582
0.371751
0.369845
0.367864
0.365815
0.363699
0.361522
0.359286
0.356996
0.354659
0.352282
0.349867
0.347418
0.344941
0.34244
0.339923
0.337392
0.334854
0.332315
0.329785
0.327265
0.324757
0.322255
0.319769
0.317328
0.314881
0.312395
0.309881
0.307311
0.304617
0.301713
0.298361
0.294081
0.288838
0.263564
6.22117e-08
1.75245e-06
1.17313e-05
4.89802e-05
0.000178914
0.000462721
0.00100321
0.00174118
0.00257486
0.00339108
0.00411041
0.00461179
0.00493351
0.00492537
0.00478926
0.00452684
0.00398961
0.0032817
0.00249717
0.0017119
0.00111169
0.000701752
0.000443207
0.000285302
0.000221546
0.00012884
0.000349256
0.000480491
0.00173277
0.00292253
0.00385756
0.00445095
0.00629595
0.00959855
0.0164123
0.0300081
0.0545519
0.0783973
0.102033
0.122601
0.137945
0.150055
0.153969
0.166878
0.17292
0.183652
0.19463
0.207071
0.219166
0.233172
0.245225
0.263659
0.277164
0.294813
0.306075
0.322876
0.335969
0.350073
0.363387
0.376443
0.389357
0.401956
0.414497
0.426849
0.439164
0.451392
0.463608
0.475802
0.488013
0.500244
0.512514
0.52483
0.537202
0.549637
0.562138
0.574711
0.587354
0.600072
0.612858
0.625717
0.638639
0.651626
0.664663
0.677752
0.690871
0.704021
0.717175
0.730331
0.743461
0.756559
0.769593
0.782533
0.795352
0.80802
0.820512
0.832814
0.845079
0.857278
0.869438
0.881529
0.89356
0.905509
0.917375
0.929144
0.940807
0.952354
0.963774
0.97506
0.986198
0.997181
1.008
1.01863
1.02909
1.03934
1.04938
1.05921
1.06881
1.07817
1.08728
1.09612
1.1047
1.11299
1.12099
1.12869
1.13607
1.14313
1.14986
1.15623
1.16226
1.16792
1.1732
1.17811
1.18264
1.18674
1.19049
1.19376
1.19669
1.1991
1.20116
1.20266
1.20382
1.2044
1.20471
1.20466
1.20402
1.20298
1.20152
1.19964
1.19736
1.19468
1.19162
1.18817
1.18435
1.18017
1.17562
1.17074
1.16552
1.15997
1.15411
1.14794
1.14148
1.13475
1.12774
1.12049
1.11301
1.10531
1.0974
1.08928
1.08099
1.07255
1.06387
1.05491
1.04568
1.03614
1.02618
1.01569
1.00415
0.991469
0.977172
0.927387
1.76596e-07
5.24074e-06
3.9889e-05
0.00016942
0.000586015
0.0013685
0.00263495
0.00411603
0.00559012
0.0069247
0.00798511
0.00871566
0.00910375
0.00908512
0.00887668
0.0085032
0.0078633
0.00707622
0.00616406
0.00518029
0.00408082
0.00304698
0.00212257
0.00152503
0.00109045
0.000995805
0.00217875
0.00391759
0.0101185
0.0172303
0.0222818
0.0292123
0.0443145
0.0607752
0.0783537
0.0974429
0.114027
0.129898
0.145358
0.161137
0.177775
0.195638
0.217864
0.24427
0.270967
0.301324
0.331159
0.360868
0.390685
0.418845
0.446792
0.471132
0.494376
0.517019
0.538067
0.558882
0.578646
0.597977
0.61676
0.635139
0.653198
0.670977
0.688562
0.705978
0.723284
0.740504
0.757675
0.774818
0.791956
0.809105
0.826281
0.843494
0.860753
0.878065
0.895435
0.912866
0.930359
0.947915
0.965531
0.983206
1.00094
1.01872
1.03654
1.0544
1.07229
1.0902
1.10812
1.12605
1.14397
1.16188
1.17978
1.19765
1.21548
1.23327
1.25103
1.26875
1.28641
1.304
1.32149
1.33888
1.35615
1.37328
1.39026
1.40709
1.42373
1.44019
1.45644
1.47247
1.48826
1.50381
1.51909
1.5341
1.54881
1.56322
1.57731
1.59107
1.60448
1.61753
1.6302
1.64248
1.65436
1.66582
1.67684
1.68742
1.69753
1.70717
1.71631
1.72495
1.73307
1.74066
1.7477
1.75418
1.7601
1.76542
1.77017
1.77429
1.77783
1.78072
1.78301
1.78453
1.78545
1.78578
1.78554
1.78463
1.78306
1.78086
1.77805
1.77463
1.77062
1.76604
1.76088
1.75516
1.74889
1.74209
1.73477
1.72694
1.71861
1.70981
1.70055
1.69084
1.68071
1.67018
1.65925
1.64797
1.63634
1.62439
1.61214
1.59959
1.58678
1.57371
1.56038
1.54677
1.53288
1.51867
1.50407
1.48902
1.47317
1.45659
1.43924
1.393
7.16427e-07
2.15766e-05
0.000167744
0.000643569
0.00179158
0.00402933
0.00668238
0.0093565
0.0117131
0.0135824
0.0147912
0.0154126
0.015376
0.0151249
0.0144397
0.0135041
0.0124045
0.0111958
0.00992174
0.00862812
0.00730342
0.00605471
0.00499538
0.00361346
0.00392736
0.00675666
0.0168744
0.0322022
0.046756
0.0582903
0.0695758
0.0824774
0.095237
0.10913
0.125526
0.144164
0.16327
0.185819
0.210909
0.23926
0.270223
0.303695
0.338415
0.373855
0.409213
0.444462
0.478715
0.512058
0.54433
0.575178
0.604916
0.633242
0.66058
0.686982
0.712406
0.737154
0.76118
0.784662
0.807649
0.83023
0.852474
0.87444
0.896187
0.917759
0.939201
0.960548
0.981833
1.00308
1.02431
1.04555
1.06682
1.08811
1.10945
1.13085
1.1523
1.17382
1.19541
1.21706
1.23877
1.26056
1.2824
1.3043
1.32625
1.34826
1.3703
1.39238
1.41448
1.4366
1.45873
1.48088
1.50303
1.52516
1.54727
1.56934
1.59136
1.61331
1.63517
1.65693
1.67857
1.70006
1.72139
1.74254
1.76349
1.78422
1.80472
1.82496
1.84493
1.86461
1.88399
1.90304
1.92174
1.94009
1.95806
1.97564
1.9928
2.00954
2.02584
2.04168
2.05703
2.0719
2.08625
2.10008
2.11336
2.12608
2.13822
2.14976
2.16068
2.17097
2.18062
2.18959
2.19789
2.20548
2.21236
2.21851
2.22392
2.22858
2.23248
2.23559
2.23793
2.23934
2.23996
2.23991
2.23906
2.23739
2.23492
2.23166
2.22763
2.22284
2.21731
2.21104
2.20406
2.19639
2.18802
2.17899
2.1693
2.15899
2.14806
2.13653
2.12443
2.11178
2.09861
2.08493
2.07076
2.05615
2.04111
2.02568
2.00988
1.99373
1.97727
1.9605
1.94346
1.92614
1.90856
1.89071
1.87258
1.85418
1.83531
1.81622
1.79727
1.75531
2.67762e-06
7.97944e-05
0.000580517
0.00211204
0.00559666
0.0102697
0.014821
0.0185216
0.0209883
0.0223061
0.0225534
0.0222734
0.0215196
0.0203764
0.0190499
0.0176044
0.0160907
0.0145589
0.0130672
0.0116693
0.0102628
0.0085524
0.00792512
0.00950113
0.0184843
0.0373143
0.0614687
0.0787689
0.0887166
0.0969049
0.106009
0.118042
0.13336
0.15262
0.174598
0.19995
0.228516
0.26043
0.294726
0.331035
0.368489
0.406573
0.444704
0.482647
0.520123
0.557006
0.593089
0.628346
0.662715
0.696104
0.728598
0.760159
0.790882
0.820802
0.849963
0.87846
0.90634
0.933688
0.960567
0.987042
1.01318
1.03902
1.06463
1.09006
1.11533
1.1405
1.16559
1.19064
1.21566
1.24068
1.26571
1.29078
1.3159
1.34107
1.3663
1.3916
1.41697
1.44241
1.46793
1.49352
1.51919
1.54492
1.57071
1.59656
1.62246
1.64841
1.67439
1.7004
1.72643
1.75247
1.77851
1.80453
1.83051
1.85643
1.88228
1.90804
1.93369
1.9592
1.98456
2.00974
2.03473
2.05949
2.084
2.10825
2.13222
2.15586
2.17918
2.20214
2.22473
2.24692
2.26869
2.29002
2.3109
2.3313
2.35121
2.3706
2.38946
2.40776
2.4255
2.44264
2.45918
2.47509
2.49035
2.50494
2.51884
2.53204
2.54451
2.55623
2.56718
2.57734
2.58669
2.59522
2.6029
2.60971
2.61566
2.62071
2.62486
2.62809
2.63039
2.63159
2.63195
2.63143
2.62995
2.62751
2.62414
2.61983
2.61462
2.6085
2.6015
2.59364
2.58493
2.5754
2.56505
2.55392
2.54202
2.52938
2.51601
2.50196
2.48723
2.47186
2.45587
2.43929
2.42215
2.40449
2.38634
2.36773
2.34869
2.32928
2.30951
2.28943
2.26906
2.24842
2.22756
2.2065
2.18527
2.16395
2.14248
2.12123
2.10061
2.06157
9.78663e-06
0.000275779
0.00187549
0.00642069
0.0141209
0.0209903
0.0254922
0.0276424
0.0281484
0.0278409
0.0269622
0.0256937
0.0242654
0.0227417
0.021161
0.0195473
0.0179037
0.0161903
0.0143343
0.0124203
0.0108724
0.0116003
0.0173612
0.032487
0.0601379
0.0848195
0.0999133
0.107896
0.113836
0.123047
0.136828
0.155248
0.177324
0.203631
0.233201
0.265989
0.301113
0.338022
0.376022
0.414698
0.45363
0.492605
0.531456
0.570098
0.608435
0.646396
0.6839
0.720893
0.75732
0.793116
0.828276
0.862778
0.896634
0.929853
0.962459
0.994488
1.02598
1.05698
1.08755
1.11773
1.14757
1.17712
1.20644
1.23555
1.26451
1.29335
1.32211
1.35081
1.37948
1.40814
1.43682
1.46553
1.49429
1.52311
1.55199
1.58095
1.60998
1.6391
1.66829
1.69758
1.72694
1.75637
1.78588
1.81546
1.84509
1.87477
1.9045
1.93425
1.96402
1.99381
2.02358
2.05332
2.08301
2.11262
2.14214
2.17155
2.20082
2.22994
2.25887
2.28759
2.31608
2.34431
2.37225
2.39987
2.42715
2.45407
2.48059
2.50669
2.53234
2.55753
2.58222
2.6064
2.63004
2.65312
2.67561
2.6975
2.71877
2.7394
2.75935
2.77863
2.79719
2.81503
2.83212
2.84843
2.86395
2.87866
2.89253
2.90554
2.91766
2.92888
2.93917
2.94851
2.95688
2.96426
2.97064
2.97599
2.98031
2.98359
2.98576
2.98673
2.98675
2.98568
2.98353
2.9803
2.97598
2.97061
2.96418
2.95672
2.94825
2.93879
2.92836
2.91697
2.90467
2.89146
2.87738
2.86245
2.84671
2.83018
2.81289
2.79487
2.77616
2.75679
2.73679
2.7162
2.69506
2.67342
2.65131
2.62878
2.60588
2.58265
2.55913
2.53538
2.51143
2.48736
2.46323
2.43917
2.41523
2.39179
2.3691
2.33184
3.52372e-05
0.000902375
0.0054881
0.0162134
0.0257418
0.0307877
0.0326552
0.0327392
0.0321241
0.0308091
0.0291812
0.0274264
0.0256305
0.0238401
0.0220807
0.020407
0.0189555
0.0179466
0.0178427
0.0191785
0.0238845
0.0323789
0.0520569
0.0785994
0.0994134
0.112406
0.118928
0.125465
0.136425
0.152777
0.173542
0.198861
0.227916
0.260225
0.294812
0.331167
0.368608
0.406764
0.445326
0.484123
0.523044
0.562047
0.6011
0.640175
0.679233
0.718221
0.757072
0.795711
0.834076
0.872104
0.909747
0.946963
0.983727
1.02002
1.05584
1.0912
1.12611
1.1606
1.19469
1.22844
1.26187
1.29502
1.32794
1.36067
1.39323
1.42568
1.45804
1.49033
1.5226
1.55486
1.58714
1.61945
1.65181
1.68424
1.71673
1.74931
1.78198
1.81473
1.84757
1.88051
1.91353
1.94664
1.97983
2.01309
2.04642
2.07979
2.11322
2.14667
2.18013
2.2136
2.24706
2.28047
2.31381
2.34707
2.38022
2.41323
2.44609
2.47877
2.51123
2.54346
2.57541
2.60706
2.63838
2.66933
2.69988
2.73001
2.75968
2.78886
2.81753
2.84565
2.87319
2.90014
2.92646
2.95213
2.97712
3.00142
3.025
3.04783
3.0699
3.09119
3.11167
3.13131
3.15011
3.16803
3.18504
3.20114
3.21629
3.23047
3.24365
3.25582
3.26694
3.27699
3.28594
3.29379
3.30051
3.30607
3.31048
3.31371
3.31567
3.31639
3.31595
3.3143
3.31142
3.30732
3.30201
3.29551
3.28782
3.27898
3.26899
3.25789
3.2457
3.23244
3.21815
3.20285
3.18658
3.16936
3.15124
3.13224
3.11241
3.09177
3.07037
3.04824
3.02542
3.00196
2.9779
2.95329
2.92818
2.90262
2.87668
2.8504
2.82384
2.79706
2.77014
2.74315
2.71621
2.68948
2.66305
2.63733
2.61237
2.57571
0.00011091
0.00258367
0.0136661
0.0276462
0.0346361
0.0372381
0.0375134
0.0366945
0.0349764
0.0329149
0.0307454
0.0285961
0.0265253
0.0245567
0.0227191
0.0212968
0.0204171
0.0204424
0.0228827
0.0301119
0.0455733
0.0678467
0.090432
0.107896
0.118567
0.125423
0.133599
0.146897
0.165158
0.188388
0.215732
0.246552
0.279853
0.314946
0.351185
0.388203
0.4257
0.463544
0.501665
0.540045
0.57869
0.617614
0.656829
0.696331
0.73609
0.77605
0.816149
0.856316
0.896478
0.93656
0.976495
1.01622
1.05569
1.09487
1.13372
1.17223
1.2104
1.24823
1.28574
1.32295
1.35988
1.39656
1.43303
1.46932
1.50546
1.54149
1.57743
1.61332
1.64918
1.68504
1.72091
1.75683
1.7928
1.82885
1.86497
1.90118
1.93748
1.97389
2.01039
2.04699
2.08369
2.12048
2.15736
2.19431
2.23133
2.26841
2.30553
2.34267
2.37983
2.41698
2.45411
2.49119
2.52819
2.56509
2.60186
2.63847
2.67491
2.71114
2.74713
2.78284
2.81825
2.85331
2.88798
2.92224
2.95604
2.98936
3.02214
3.05436
3.08599
3.11699
3.14733
3.17697
3.2059
3.23408
3.26148
3.28809
3.31387
3.33881
3.36288
3.38605
3.40832
3.42965
3.45001
3.4694
3.48778
3.50513
3.52142
3.53663
3.55074
3.56372
3.57554
3.58617
3.5956
3.6038
3.61074
3.61642
3.62081
3.6239
3.62558
3.62595
3.62499
3.62266
3.61897
3.61394
3.60757
3.59988
3.59088
3.58059
3.56904
3.55626
3.54227
3.5271
3.51079
3.49337
3.47489
3.45537
3.43486
3.4134
3.39102
3.36777
3.3437
3.31884
3.29324
3.26695
3.24001
3.21249
3.18444
3.15592
3.127
3.09773
3.06819
3.03846
3.00861
2.97877
2.94906
2.91966
2.89071
2.8626
2.83522
2.79828
0.000287547
0.00624327
0.0246642
0.0369755
0.0418584
0.0429296
0.0420476
0.0400179
0.0374861
0.0348328
0.0322954
0.0300483
0.0282622
0.0270706
0.0267593
0.0274145
0.0302663
0.0349665
0.0447423
0.0609665
0.0798279
0.0977478
0.111824
0.121262
0.128986
0.13937
0.154394
0.17467
0.199422
0.228026
0.259386
0.292735
0.327361
0.362829
0.398846
0.435268
0.472027
0.509127
0.546601
0.584494
0.622852
0.661715
0.701108
0.741025
0.781436
0.822299
0.863554
0.905129
0.946947
0.988925
1.03098
1.07305
1.11505
1.15694
1.19867
1.24019
1.2815
1.32256
1.36339
1.40399
1.44437
1.48454
1.52453
1.56436
1.60407
1.64368
1.68321
1.7227
1.76217
1.80165
1.84116
1.88071
1.92033
1.96002
1.99981
2.03969
2.07967
2.11976
2.15996
2.20026
2.24067
2.28117
2.32176
2.36243
2.40316
2.44395
2.48478
2.52563
2.56648
2.60732
2.64813
2.68888
2.72953
2.77006
2.81044
2.85065
2.89066
2.93042
2.96991
3.00909
3.04791
3.08635
3.12434
3.16187
3.19887
3.23532
3.27116
3.30636
3.34088
3.37469
3.40773
3.43999
3.47142
3.502
3.53169
3.56048
3.58834
3.61523
3.64115
3.66606
3.68995
3.71279
3.73456
3.75523
3.77479
3.79322
3.81047
3.82655
3.84141
3.85503
3.86738
3.87844
3.88818
3.89658
3.90361
3.90925
3.91349
3.91631
3.91764
3.91753
3.91593
3.91283
3.90826
3.90221
3.89471
3.88577
3.87539
3.86362
3.85046
3.83595
3.82012
3.80301
3.78467
3.76511
3.74441
3.72258
3.69968
3.67576
3.65086
3.62503
3.59832
3.57076
3.54243
3.51336
3.48362
3.45325
3.42232
3.39091
3.35907
3.3269
3.29446
3.26184
3.22915
3.19651
3.16406
3.13201
3.1005
3.06992
3.04006
3.00225
0.000609166
0.0125071
0.0349165
0.0451459
0.0484297
0.0483058
0.0463191
0.0434338
0.040278
0.037269
0.0346524
0.0325884
0.0315296
0.0310376
0.0325155
0.0367414
0.0450004
0.0571931
0.0722565
0.0876198
0.101699
0.112933
0.12186
0.130936
0.143198
0.159921
0.1815
0.207247
0.236132
0.267314
0.299972
0.333605
0.367859
0.402556
0.437617
0.473039
0.50886
0.545146
0.581968
0.6194
0.657506
0.696332
0.735896
0.7762
0.817223
0.858927
0.901256
0.944138
0.987494
1.03124
1.07529
1.11955
1.16396
1.20843
1.25291
1.29734
1.34168
1.38591
1.42999
1.47393
1.51771
1.56135
1.60485
1.64823
1.69151
1.73471
1.77787
1.82099
1.8641
1.90724
1.95041
1.99364
2.03694
2.08033
2.12382
2.16741
2.21111
2.25493
2.29886
2.3429
2.38704
2.43128
2.47561
2.52002
2.56449
2.609
2.65355
2.6981
2.74265
2.78717
2.83165
2.87604
2.92031
2.96445
3.00841
3.05216
3.09568
3.13893
3.18186
3.22443
3.26661
3.30834
3.34958
3.39029
3.43041
3.46989
3.50869
3.54676
3.58406
3.62054
3.65617
3.69089
3.72468
3.7575
3.78932
3.82012
3.84986
3.87852
3.90608
3.93251
3.95781
3.98194
4.00488
4.02662
4.04713
4.06639
4.08439
4.10109
4.11648
4.13052
4.14319
4.15446
4.16432
4.17272
4.17966
4.1851
4.18903
4.19142
4.19225
4.19154
4.18918
4.18519
4.17962
4.17248
4.16376
4.15349
4.14167
4.12834
4.11352
4.09725
4.07956
4.06048
4.04008
4.01838
3.99545
3.97132
3.94605
3.91969
3.8923
3.86392
3.83461
3.80443
3.77342
3.74164
3.70916
3.67604
3.64233
3.60812
3.57349
3.5385
3.50326
3.46786
3.43242
3.39706
3.36196
3.3273
3.29324
3.26015
3.22778
3.18876
0.00108054
0.0207271
0.0440009
0.0529288
0.0551039
0.0540549
0.0512301
0.0477652
0.0444043
0.0416303
0.0399676
0.0394756
0.0404212
0.0434419
0.0489931
0.0572666
0.06787
0.0799464
0.0921338
0.103096
0.112585
0.121557
0.132102
0.145872
0.164027
0.186427
0.212429
0.241037
0.271418
0.302963
0.33524
0.368016
0.401172
0.434682
0.468577
0.502922
0.537804
0.573311
0.609536
0.646564
0.68446
0.723267
0.763012
0.803699
0.845315
0.887824
0.931173
0.975296
1.02011
1.06554
1.11149
1.15786
1.20457
1.25154
1.29869
1.34595
1.39327
1.4406
1.4879
1.53515
1.58232
1.62942
1.67644
1.72338
1.77026
1.81709
1.86389
1.91068
1.95747
2.0043
2.05117
2.09811
2.14513
2.19225
2.23947
2.28681
2.33426
2.38183
2.42952
2.47731
2.52521
2.57321
2.62129
2.66943
2.71763
2.76586
2.8141
2.86234
2.91054
2.9587
3.00678
3.05475
3.10258
3.15023
3.19767
3.24487
3.2918
3.3384
3.38465
3.43049
3.47588
3.52077
3.5651
3.60883
3.65189
3.69424
3.73583
3.77659
3.81647
3.85544
3.89344
3.93042
3.96635
4.00118
4.03489
4.06744
4.09881
4.12897
4.1579
4.18558
4.21199
4.23712
4.26094
4.28345
4.30461
4.32442
4.34285
4.35989
4.37551
4.38969
4.40241
4.41364
4.42335
4.43152
4.43813
4.44315
4.44657
4.44836
4.44851
4.44705
4.44375
4.43875
4.43208
4.42373
4.41371
4.40203
4.38872
4.37378
4.35727
4.3392
4.31962
4.29858
4.27611
4.25229
4.22715
4.20075
4.17315
4.14441
4.11458
4.08373
4.05191
4.01917
3.98559
3.95121
3.91611
3.88035
3.84399
3.80712
3.76981
3.73216
3.69425
3.6562
3.61813
3.58017
3.5425
3.50531
3.46875
3.43319
3.39834
3.35794
0.00171178
0.0286373
0.0525632
0.0608367
0.0624299
0.060687
0.0573358
0.0537813
0.0509086
0.049496
0.0492021
0.050626
0.0540183
0.0594435
0.0667264
0.0754123
0.0847946
0.0941462
0.102999
0.111662
0.121202
0.133063
0.14823
0.167339
0.190138
0.215868
0.243715
0.272948
0.303079
0.333799
0.364932
0.396413
0.42825
0.460497
0.493238
0.526571
0.5606
0.595429
0.631159
0.667872
0.705631
0.744486
0.784465
0.825578
0.867814
0.911142
0.955515
1.00087
1.04713
1.09421
1.14201
1.19045
1.23943
1.28885
1.33864
1.3887
1.43897
1.48939
1.53989
1.59045
1.64102
1.69158
1.74213
1.79265
1.84315
1.89364
1.94411
1.9946
2.04511
2.09566
2.14627
2.19695
2.24772
2.29858
2.34956
2.40065
2.45185
2.50317
2.5546
2.60614
2.65777
2.70949
2.76128
2.81311
2.86498
2.91686
2.96873
3.02055
3.07231
3.12399
3.17555
3.22697
3.2782
3.3292
3.37996
3.43042
3.48055
3.5303
3.57965
3.62852
3.67688
3.72467
3.77184
3.81833
3.86407
3.90901
3.9531
3.99626
4.03845
4.0796
4.11966
4.15859
4.19634
4.23286
4.26812
4.30209
4.33474
4.36604
4.39598
4.42455
4.45171
4.47746
4.50179
4.52468
4.54611
4.56609
4.58459
4.6016
4.6171
4.63107
4.6435
4.65435
4.66361
4.67125
4.67725
4.6816
4.68426
4.68523
4.68455
4.68207
4.67767
4.67153
4.66363
4.65397
4.64256
4.62941
4.61453
4.59796
4.57972
4.55985
4.53839
4.5154
4.49092
4.465
4.43772
4.40912
4.37928
4.34825
4.31609
4.28288
4.24867
4.21352
4.17751
4.14069
4.10313
4.06489
4.02606
3.98671
3.94691
3.90677
3.86639
3.82587
3.78533
3.74494
3.70485
3.66526
3.62631
3.58836
3.55111
3.50931
0.00263514
0.0360701
0.0614755
0.0693986
0.0705701
0.0682128
0.0645756
0.0613384
0.0596501
0.0591947
0.060259
0.0631567
0.0676177
0.0733958
0.0800939
0.0872944
0.0947089
0.102459
0.111113
0.121544
0.134565
0.150884
0.170579
0.193337
0.218454
0.245226
0.273099
0.301682
0.330748
0.360178
0.389943
0.420072
0.45064
0.48174
0.513481
0.545973
0.579334
0.613671
0.649081
0.685645
0.723428
0.76248
0.802832
0.844496
0.887462
0.931706
0.977184
1.02384
1.0716
1.12037
1.17007
1.2206
1.27185
1.32374
1.37616
1.42902
1.48224
1.53575
1.58947
1.64335
1.69735
1.75142
1.80553
1.85967
1.91383
1.968
2.02219
2.0764
2.13064
2.18492
2.23926
2.29367
2.34816
2.40275
2.45743
2.51222
2.56711
2.62211
2.67721
2.7324
2.78767
2.843
2.89838
2.95378
3.00918
3.06456
3.11988
3.17512
3.23025
3.28524
3.34006
3.39469
3.44906
3.50315
3.55692
3.61033
3.66334
3.71592
3.768
3.81955
3.8705
3.92081
3.97042
4.01926
4.06727
4.11439
4.16056
4.2057
4.24975
4.29266
4.33436
4.3748
4.41392
4.45168
4.48805
4.52298
4.55645
4.58844
4.61894
4.64791
4.67536
4.70126
4.72563
4.74843
4.76969
4.78938
4.8075
4.82404
4.83899
4.85233
4.86406
4.87416
4.88259
4.88936
4.89442
4.89778
4.89942
4.89934
4.89759
4.89379
4.88815
4.88071
4.87146
4.86038
4.8475
4.83281
4.81634
4.7981
4.77814
4.7565
4.7332
4.70832
4.68189
4.65399
4.62466
4.59399
4.56204
4.52886
4.49454
4.45914
4.42272
4.38536
4.34712
4.30807
4.26828
4.2278
4.18673
4.14513
4.1031
4.06071
4.01809
3.97533
3.93258
3.88997
3.84766
3.80586
3.76469
3.72451
3.68502
3.64194
0.00369403
0.0443378
0.0707253
0.0783687
0.0791653
0.0761301
0.0722497
0.0696466
0.0686433
0.068631
0.0705076
0.0736832
0.0778887
0.0829003
0.0885662
0.0949912
0.102537
0.111719
0.12315
0.137266
0.154389
0.174375
0.19679
0.221071
0.24665
0.273104
0.300141
0.32759
0.355381
0.383509
0.41203
0.441022
0.470589
0.500842
0.531902
0.563888
0.596915
0.631087
0.666495
0.70322
0.741328
0.780866
0.82186
0.864322
0.908243
0.953603
1.00036
1.04846
1.09784
1.14841
1.20009
1.25278
1.30639
1.3608
1.41591
1.47163
1.52786
1.58452
1.64151
1.69877
1.75623
1.81384
1.87155
1.92933
1.98716
2.04502
2.1029
2.16081
2.21874
2.2767
2.3347
2.39276
2.45087
2.50906
2.56732
2.62566
2.68408
2.74258
2.80116
2.85979
2.91848
2.97719
3.03592
3.09462
3.15329
3.21188
3.27037
3.32871
3.38687
3.44483
3.50255
3.55999
3.61711
3.67386
3.7302
3.7861
3.84151
3.89639
3.95069
4.00437
4.05737
4.10964
4.16111
4.21173
4.26142
4.31012
4.35777
4.40429
4.44962
4.49369
4.53642
4.57777
4.61768
4.6561
4.69297
4.72828
4.76199
4.79409
4.82455
4.85337
4.88052
4.90601
4.92985
4.95202
4.97254
4.99141
5.00862
5.02418
5.03809
5.05033
5.0609
5.0698
5.07699
5.08249
5.08625
5.08829
5.08858
5.08726
5.08397
5.07874
5.07168
5.06279
5.05205
5.03946
5.02503
5.00877
4.99069
4.97081
4.94917
4.92581
4.90076
4.87409
4.84585
4.8161
4.78491
4.75234
4.71847
4.68337
4.64711
4.60977
4.5714
4.53209
4.49191
4.45091
4.40917
4.36676
4.32376
4.28023
4.23627
4.19196
4.14741
4.10273
4.05805
4.01351
3.96927
3.92552
3.88237
3.84022
3.79869
3.75454
0.00482145
0.0524684
0.0798545
0.0872144
0.0875354
0.0835315
0.0791556
0.0766184
0.0756903
0.0756945
0.0775209
0.0804062
0.0843237
0.0893654
0.0957697
0.10388
0.114044
0.126581
0.141718
0.159414
0.17945
0.201392
0.224782
0.249213
0.274359
0.300012
0.326061
0.352467
0.379258
0.40649
0.434256
0.46265
0.491795
0.521802
0.552792
0.584867
0.618135
0.652691
0.688623
0.726002
0.764888
0.805324
0.847337
0.890943
0.936137
0.982903
1.03121
1.081
1.13222
1.1848
1.23864
1.29366
1.34976
1.40683
1.46475
1.52343
1.58275
1.64261
1.70292
1.76358
1.82451
1.88565
1.94693
2.0083
2.06974
2.1312
2.19267
2.25415
2.31562
2.3771
2.43857
2.50006
2.56156
2.62308
2.68463
2.74622
2.80784
2.86949
2.93116
2.99286
3.05455
3.11622
3.17785
3.23941
3.30087
3.36219
3.42334
3.48427
3.54494
3.60532
3.66536
3.72503
3.78428
3.84305
3.90132
3.95902
4.01613
4.0726
4.12839
4.18345
4.23772
4.29116
4.3437
4.39529
4.44586
4.49534
4.54367
4.59077
4.63656
4.68099
4.72398
4.76546
4.80539
4.84369
4.88033
4.91528
4.9485
4.97999
5.00972
5.03768
5.06386
5.08827
5.11092
5.13182
5.15098
5.16842
5.18413
5.19814
5.21044
5.22105
5.22997
5.23719
5.24269
5.2465
5.24856
5.24893
5.24772
5.24461
5.23958
5.23275
5.22409
5.2136
5.20127
5.1871
5.17109
5.15324
5.13358
5.11211
5.08888
5.06392
5.03727
5.00898
4.97912
4.94774
4.91491
4.88071
4.84521
4.80848
4.77059
4.73163
4.69165
4.65075
4.60897
4.5664
4.5231
4.47915
4.4346
4.38954
4.34404
4.2982
4.25212
4.2059
4.15967
4.11357
4.06775
4.0224
3.97761
3.93379
3.89051
3.8456
0.00604519
0.0604831
0.0885596
0.0955606
0.0950549
0.0898329
0.0847448
0.0820159
0.0810181
0.0809991
0.0831768
0.0867943
0.0920618
0.0991427
0.108195
0.119419
0.132907
0.148742
0.166754
0.186675
0.208155
0.230851
0.254464
0.278767
0.303612
0.328923
0.354689
0.380926
0.407687
0.435033
0.463064
0.491873
0.521572
0.552262
0.584049
0.617035
0.651319
0.68699
0.724127
0.762801
0.803064
0.844958
0.888512
0.933743
0.980654
1.02924
1.07946
1.1313
1.18468
1.23955
1.29582
1.3534
1.41217
1.47203
1.53287
1.59456
1.65699
1.72004
1.78361
1.84759
1.91187
1.97638
2.04105
2.1058
2.17059
2.23539
2.30015
2.36487
2.42953
2.49412
2.55865
2.62312
2.68753
2.75188
2.81618
2.88045
2.94466
3.00884
3.07296
3.13704
3.20104
3.26495
3.32875
3.39241
3.4559
3.51917
3.58218
3.64489
3.70724
3.76919
3.83071
3.89174
3.95222
4.01211
4.07136
4.12992
4.18776
4.24483
4.3011
4.35651
4.41102
4.46458
4.51715
4.56865
4.61904
4.66824
4.7162
4.76283
4.80807
4.85185
4.89408
4.93472
4.9737
5.01095
5.04644
5.08011
5.11196
5.142
5.17017
5.19647
5.2209
5.24346
5.26419
5.2831
5.30022
5.31555
5.32914
5.34099
5.35111
5.35954
5.3663
5.37135
5.37471
5.37644
5.3764
5.37497
5.37162
5.36648
5.35961
5.35097
5.34056
5.32837
5.31439
5.29862
5.28104
5.26166
5.24051
5.21758
5.19291
5.16654
5.1385
5.10885
5.07764
5.04493
5.0108
4.97532
4.93855
4.90057
4.86146
4.8213
4.78015
4.73809
4.69519
4.65151
4.60713
4.5621
4.5165
4.47038
4.42384
4.37696
4.32982
4.28254
4.23522
4.18801
4.14106
4.09453
4.0485
4.00343
3.95874
3.91348
0.00745873
0.0677663
0.0962597
0.10281
0.100938
0.0943384
0.0888118
0.0860272
0.0854738
0.0868659
0.0906191
0.0962518
0.103893
0.113604
0.125498
0.139882
0.156878
0.175977
0.196789
0.21904