/*--------------------------------*- C++ -*----------------------------------*\
  =========                 |
  \\      /  F ield         | OpenFOAM: The Open Source CFD Toolbox
   \\    /   O peration     | Website:  https://openfoam.org
    \\  /    A nd           | Version:  8
     \\/     M anipulation  |
\*---------------------------------------------------------------------------*/
FoamFile
{
    version     2.0;
    format      ascii;
    class       volVectorField;
    location    "1700";
    object      wallShearStress;
}
// * * * * * * * * * * * * * * * * * * * * * * * * * * * * * * * * * * * * * //

dimensions      [0 2 -2 0 0 0 0];

internalField   uniform (0 0 0);

boundaryField
{
    inlet
    {
        type            calculated;
        value           uniform (0 0 0);
    }
    outlet
    {
        type            calculated;
        value           uniform (0 0 0);
    }
    upperWall
    {
        type            calculated;
        value           nonuniform List<vector> 
223
(
(-0.440802 -0.0467176 0)
(-0.48719 -0.0451642 0)
(-0.530129 -0.033732 0)
(-0.539592 -0.0218955 0)
(-0.537394 -0.0132643 0)
(-0.527959 -0.00769319 0)
(-0.517687 -0.00420185 0)
(-0.5073 -0.00204106 0)
(-0.49663 -0.000710447 0)
(-0.486616 0.000103971 0)
(-0.477422 0.000590767 0)
(-0.469061 0.000873878 0)
(-0.461508 0.00102968 0)
(-0.454691 0.0011066 0)
(-0.448545 0.00113515 0)
(-0.442993 0.00113885 0)
(-0.437947 0.00113063 0)
(-0.433365 0.00116234 0)
(-0.429663 0.00122422 0)
(-0.426706 0.00127952 5.31912e-22)
(-0.423795 0.00129246 0)
(-0.420949 0.00127781 0)
(-0.418167 0.00124578 0)
(-0.415454 0.00120263 5.4405e-22)
(-0.412815 0.00115275 0)
(-0.410253 0.0010994 0)
(-0.407769 0.00104513 0)
(-0.40536 0.000991223 -1.11037e-21)
(-0.403027 0.000938856 1.11581e-21)
(-0.400766 0.000888664 1.12121e-21)
(-0.398574 0.00084115 0)
(-0.39645 0.000796422 -1.13193e-21)
(-0.394389 0.000754915 0)
(-0.392389 0.000716331 1.14257e-21)
(-0.390446 0.000680633 1.14788e-21)
(-0.388558 0.000647833 -1.15318e-21)
(-0.386721 0.000617594 0)
(-0.384933 0.00058973 0)
(-0.38319 0.000564162 0)
(-0.381493 0.000540696 0)
(-0.379836 0.000519202 -1.17973e-21)
(-0.378219 0.000499452 0)
(-0.37664 0.000481458 0)
(-0.375097 0.000465132 1.19571e-21)
(-0.373587 0.000450268 0)
(-0.372108 0.000436846 1.20637e-21)
(-0.37066 0.000424722 -1.21171e-21)
(-0.369239 0.000413882 1.21705e-21)
(-0.367844 0.000404227 0)
(-0.366474 0.000395641 0)
(-0.365126 0.000388034 0)
(-0.363799 0.000381347 1.23834e-21)
(-0.362492 0.000375501 -1.24364e-21)
(-0.361202 0.000370489 0)
(-0.359928 0.0003662 0)
(-0.35867 0.000362522 0)
(-0.357425 0.000359408 0)
(-0.356192 0.000356905 0)
(-0.35497 0.00035494 0)
(-0.353758 0.000353375 0)
(-0.352555 0.000352281 0)
(-0.351359 0.000351675 1.29018e-21)
(-0.35017 0.000351442 -1.29513e-21)
(-0.348985 0.000351548 0)
(-0.347804 0.000352056 0)
(-0.346625 0.000352865 0)
(-0.345448 0.000353988 -1.31414e-21)
(-0.34427 0.000355422 0)
(-0.343092 0.000357025 0)
(-0.341911 0.000358965 0)
(-0.340728 0.000361124 0)
(-0.339539 0.000363434 0)
(-0.338348 0.000365916 -2.67844e-21)
(-0.337145 0.0003688 0)
(-0.33594 0.000371941 0)
(-0.334719 0.000375127 0)
(-0.333493 0.000378733 0)
(-0.332255 0.000382554 0)
(-0.330996 0.000386974 0)
(-0.329742 0.000390895 0)
(-0.328435 0.000398103 2.72682e-21)
(-0.327158 0.000406802 0)
(-0.325803 0.000407349 0)
(-0.324477 0.00040679 0)
(-0.323 0.000405778 -2.74123e-21)
(-0.321723 0.000171417 0)
(-0.31997 -2.58085e-05 -2.73561e-21)
(-0.319712 0.000640287 0)
(-0.316464 0.000425701 0)
(-0.318853 -0.00054666 0)
(-0.314866 -1.59136e-05 -2.77199e-21)
(-0.313599 0.000519641 0)
(-0.312519 0.000650115 2.80219e-21)
(-0.311638 0.000256255 2.79682e-21)
(-0.31089 5.9847e-05 0)
(-0.309957 0.000296651 2.79971e-21)
(-0.403897 0.000524937 0)
(-0.360731 0.00107501 0)
(-0.332754 0.000146138 0)
(-0.410718 0.00185859 -3.75279e-21)
(-0.378915 0.0115818 0)
(-0.334156 0.00903554 -2.77505e-21)
(-0.351808 0.00136754 3.0567e-21)
(-0.344807 -0.000967505 0)
(-0.324316 -0.00238216 0)
(-0.323823 -0.00186294 0)
(-0.29899 -0.00190119 0)
(-0.343344 -0.00226995 0)
(-0.465323 -0.00144966 0)
(-0.404845 -0.00224005 0)
(-0.39501 0.00340021 -3.71541e-21)
(-0.350633 0.00529465 0)
(-0.330196 0.000411334 0)
(-0.309582 -0.000386705 0)
(-0.288318 0.00090922 0)
(-0.28751 0.00065776 0)
(-0.285464 -0.000246524 0)
(-0.28448 0.000181741 0)
(-0.2829 -0.000980654 0)
(-0.309588 -0.00114791 0)
(-0.408645 0.00364101 0)
(-0.359372 0.00661398 0)
(-0.289223 0.00696211 0)
(-0.277278 0.00399579 -4.1335e-21)
(-0.283578 -0.00231282 0)
(-0.273884 -0.00329048 0)
(-0.316921 -0.00295332 0)
(-0.342442 -0.00166126 5.25592e-21)
(-0.358195 -0.00245212 0)
(-0.332727 0.000779142 0)
(-0.298543 0.00571711 4.04815e-21)
(-0.261782 0.00455946 0)
(-0.260163 0.000785437 -3.19358e-21)
(-0.257767 -0.00224814 0)
(-0.294125 -0.00286038 0)
(-0.300944 -0.00170921 0)
(-0.300101 -0.00135656 3.23721e-21)
(-0.273608 0.000345664 0)
(-0.246127 0.000577849 -2.22693e-21)
(-0.277897 -0.00104292 0)
(-0.270239 0.000330834 0)
(-0.263173 0.000701439 0)
(-0.260948 -0.000720674 0)
(-0.234649 0.000940869 0)
(-0.234994 0.00181772 0)
(-0.24895 0.00239542 0)
(-0.233069 0.00184708 0)
(-0.249126 -0.000668876 0)
(-0.256375 0.00189518 0)
(-0.227686 0.00235916 0)
(-0.226263 2.7137e-05 1.10485e-21)
(-0.228695 0.00112948 -1.5479e-21)
(-0.222904 0.0012335 0)
(-0.226631 0.000796044 0)
(-0.219646 0.000793239 0)
(-0.218127 0.000532709 0)
(-0.259344 0.00163328 -4.10065e-21)
(-0.264012 0.000622943 4.78604e-21)
(-0.269292 -0.000259047 -5.58388e-21)
(-0.244836 0.00199538 0)
(-0.206479 0.00445868 -5.10999e-21)
(-0.20578 0.00303087 -1.09262e-20)
(-0.20365 -0.000144333 0)
(-0.202233 -0.00148894 -1.42788e-20)
(-0.210528 -0.00232643 1.65825e-20)
(-0.190435 -0.00288202 0)
(-0.18696 -0.0013437 0)
(-0.184419 0.000817696 0)
(-0.184702 0.00192385 0)
(-0.192695 0.00151996 0)
(-0.18932 0.00144738 -2.25632e-20)
(-0.196403 0.0020877 0)
(-0.195347 0.00122425 -2.59739e-20)
(-0.183582 -0.000728023 0)
(-0.175062 0.000160213 0)
(-0.176991 0.00201693 0)
(-0.188631 -0.00032114 0)
(-0.173742 -0.00272804 0)
(-0.16957 -0.00229713 3.49865e-20)
(-0.165317 -0.00167928 0)
(-0.162526 -0.00148607 0)
(-0.157611 0.00107668 -4.08276e-20)
(-0.161006 0.00295627 0)
(-0.161094 0.00186256 0)
(-0.157789 0.000952256 0)
(-0.151832 0.000567793 4.72836e-20)
(-0.14368 0.000613826 0)
(-0.134199 0.00085372 0)
(-0.124171 0.00115673 0)
(-0.114577 0.00129671 0)
(-0.106233 0.00125215 -7.86043e-20)
(-0.0991253 0.00109104 0)
(-0.0933373 0.000905487 0)
(-0.0879605 0.000837792 0)
(-0.0829138 0.000916933 1.06491e-19)
(-0.075302 0.00115125 0)
(-0.070763 0.00186223 0)
(-0.0421687 0.0015991 -1.49155e-19)
(-0.0729922 0.00104434 0)
(-0.107097 0.00636989 1.29209e-17)
(-0.130377 0.0107179 2.32992e-17)
(-0.142758 0.0132829 2.19763e-17)
(-0.150227 0.0147062 2.11665e-17)
(-0.15597 0.0155991 2.04985e-17)
(-0.160586 0.0162236 -1.99224e-17)
(-0.164216 0.0166901 -1.93879e-17)
(-0.167301 0.0170476 0)
(-0.170239 0.017352 -3.68e-17)
(-0.173276 0.0176413 -1.7901e-17)
(-0.176542 0.017942 3.55093e-34)
(-0.180161 0.0182692 -1.20371e-35)
(-0.184269 0.0186388 -3.23395e-17)
(-0.18885 0.0190557 -3.09447e-17)
(-0.194068 0.0195292 -2.93813e-17)
(-0.199854 0.0200618 -2.40741e-35)
(-0.206398 0.0206586 5.13789e-17)
(-0.213765 0.0213379 2.34912e-17)
(-0.221856 0.0220815 2.40741e-35)
(-0.231681 0.0229801 -3.64393e-17)
(-0.240835 0.0238514 -1.19591e-20)
(-0.256655 0.0252216 0)
(-0.261178 0.0260222 1.36365e-17)
(-0.291652 0.0279184 -7.65504e-18)
)
;
    }
    lowerWall
    {
        type            calculated;
        value           nonuniform List<vector> 
250
(
(-0.702188 0.112177 0)
(-0.662795 0.0841613 0)
(-0.627362 0.0520673 0)
(-0.589433 0.0286066 0)
(-0.600354 0.0173363 0)
(-0.539786 0.00920258 0)
(-0.669855 0.00676045 0)
(-0.913997 0.00505661 0)
(-0.910509 0.00207413 0)
(-0.88008 -0.0103882 0)
(-0.720221 -0.0105814 0)
(-0.619281 -0.00517808 0)
(-0.553717 -0.0137584 0)
(-0.560316 -0.0198899 0)
(-0.471279 -0.0120779 0)
(-0.509267 -0.00283982 0)
(-0.464944 -0.00403659 0)
(-0.470351 0.000896193 0)
(0.00288176 -0.00733249 0)
(0.002996 -0.0111918 0)
(0.00311477 -0.0149176 0)
(0.00323956 -0.0185121 6.86345e-20)
(0.00339813 -0.0217366 -6.10617e-20)
(0.00420706 -0.0248326 5.52963e-20)
(0.00560539 -0.0263453 -5.05025e-20)
(0.00867084 -0.0499746 0)
(-0.0687562 -0.116786 0)
(0.000202922 -0.000244966 0)
(6.64594e-05 -0.000725677 0)
(1.57937e-05 -0.000851485 0)
(5.62305e-05 -0.000896643 0)
(-2.52471e-05 -0.000678172 1.55541e-19)
(-0.000360516 0.000282889 -1.35174e-19)
(-0.00101861 0.00258073 0)
(-0.00161995 0.00618628 -1.40626e-19)
(-0.00173638 0.00999516 1.11766e-19)
(-0.00136573 0.0130076 0)
(-0.00075307 0.0147411 0)
(-0.000121497 0.0150849 0)
(0.000406504 0.0141756 0)
(0.000875842 0.0123636 0)
(0.00135173 0.00965893 0)
(0.0018503 0.00614515 0)
(0.00237517 0.00195872 0)
(0.00275481 -0.00280186 0)
(-0.000127702 -0.000250609 0)
(0.000157146 -0.000403477 0)
(0.000435516 -0.000442942 0)
(0.00070986 -0.000368347 0)
(0.000902845 -0.000152558 -0)
(0.000893066 0.000177423 -0)
(0.000636626 0.000548007 1.60414e-20)
(0.000166817 0.000861451 -1.75294e-20)
(-0.000435028 0.00104574 -0)
(-0.00108139 0.00108361 -1.06899e-20)
(-0.00170235 0.000992125 -0)
(-0.00224052 0.000802071 0)
(-0.00265772 0.000547678 -0)
(-0.00293307 0.000259286 6.45472e-21)
(-0.00305912 -4.32249e-05 0)
(-0.00302519 -0.000334778 0)
(-0.00283861 -0.000582668 -6.58913e-21)
(-0.00252366 -0.000758064 -0)
(-0.00211429 -0.000838827 0)
(-0.00165469 -0.000812591 -0)
(-0.00119824 -0.000683613 1.04017e-20)
(-0.000798789 -0.000477617 0)
(-0.000496465 -0.000236919 1.51938e-20)
(-0.000307721 -2.00538e-06 0)
(-0.000233083 0.000215145 0)
(-0.000286904 0.000397014 1.96234e-20)
(-0.000444457 0.000547073 0)
(-0.000709135 0.000678905 -1.41069e-20)
(-0.0010718 0.000761358 0)
(-0.00146928 0.000743771 1.00381e-20)
(-0.00180185 0.000629766 0)
(-0.0020151 0.000487692 0)
(-0.00210285 0.000403096 0)
(-0.00212944 0.000444145 0)
(-0.00214875 0.000542978 0)
(-0.00212568 0.000530716 -7.95872e-21)
(-0.00187253 0.000159239 0)
(-0.00113025 -0.000583677 2.03378e-20)
(0.0003268 -0.00116082 0)
(0.00197866 -0.00178095 -9.07584e-21)
(0.003875 -0.00258418 0)
(0.00613407 -0.00331257 0)
(0.00861125 -0.00378122 3.66639e-21)
(0.0111398 -0.0040562 0)
(0.013679 -0.00426389 2.71728e-21)
(0.0162139 -0.0042675 -2.44465e-21)
(0.0186229 -0.00411622 -0)
(0.0209088 -0.00398724 -2.08152e-21)
(0.0231053 -0.00363591 -1.96538e-21)
(0.0258554 -0.00346864 -0)
(0.0291281 -0.00339561 0)
(0.0323737 -0.00300075 0)
(0.0325513 -0.00245014 0)
(0.0351405 -0.00224928 -0)
(0.0322751 -0.00179439 1.57447e-21)
(0.0352916 -0.00173862 0)
(0.0356249 -0.00153414 -1.56044e-21)
(0.0374768 -0.00141765 -0)
(0.0385881 -0.00130022 -0)
(0.0398845 -0.0012064 1.54404e-21)
(0.0410514 -0.00112365 0)
(0.0421781 -0.0010527 -1.52786e-21)
(0.0432779 -0.000991427 -0)
(0.0443246 -0.000938187 0)
(0.0453561 -0.000891691 -0)
(0.0463489 -0.00085081 1.50295e-21)
(0.0473266 -0.000814537 0)
(0.0482776 -0.000782023 -0)
(0.0492135 -0.000752632 1.48601e-21)
(0.0501301 -0.000725687 0)
(0.0510319 -0.000700766 1.47453e-21)
(0.0519185 -0.000677456 0)
(0.0527909 -0.000655254 0)
(0.0536497 -0.000633994 0)
(0.0544943 -0.000613413 -1.44992e-21)
(0.0553261 -0.000593276 -0)
(0.0561434 -0.000573308 0)
(0.0569473 -0.000553371 -1.42918e-21)
(0.0577357 -0.000533378 -1.42169e-21)
(0.0585097 -0.000513078 -0)
(0.0592666 -0.000492388 -1.40574e-21)
(0.0600074 -0.000471153 0)
(0.0607295 -0.000449312 -2.77661e-21)
(0.0614335 -0.000426491 -0)
(0.0621159 -0.000402726 -2.73847e-21)
(0.0627777 -0.000377716 -0)
(0.0634151 -0.000351326 2.69664e-21)
(0.0640282 -0.000323142 0)
(0.0646136 -0.000293003 0)
(0.0651706 -0.000260812 0)
(0.0656967 -0.00022635 -2.60068e-21)
(0.0661904 -0.000189602 -0)
(0.0666494 -0.000151095 2.54639e-21)
(0.0670726 -0.000112036 0)
(0.0674588 -7.46877e-05 -2.48835e-21)
(0.0678103 -4.20334e-05 -2.45738e-21)
(0.0681278 -1.36826e-05 -2.42474e-21)
(0.0684134 1.34604e-05 0)
(0.0686663 4.04277e-05 0)
(0.0688864 6.76957e-05 0)
(0.069072 9.52007e-05 0)
(0.069223 0.00012302 0)
(0.069338 0.000151109 0)
(0.0694165 0.00017945 0)
(0.0694576 0.000207977 0)
(0.0694606 0.000236633 2.05456e-21)
(0.0694251 0.00026546 2.00374e-21)
(0.0693498 0.000294364 0)
(0.0692347 0.000323274 0)
(0.0690789 0.000352136 0)
(0.0688823 0.000380991 1.77834e-21)
(0.0686441 0.000409681 0)
(0.0683645 0.000438283 0)
(0.0680425 0.000466686 0)
(0.0676785 0.000494962 0)
(0.0672715 0.000522905 -1.44252e-21)
(0.0668223 0.000550686 0)
(0.0663298 0.000578057 0)
(0.0657952 0.000605225 1.20945e-21)
(0.0652171 0.000631983 -1.12611e-21)
(0.0645969 0.000658433 0)
(0.0639335 0.000684442 -9.50542e-22)
(0.0632282 0.000710109 0)
(0.0624802 0.000735313 7.62541e-22)
(0.0616905 0.000760096 0)
(0.0608589 0.000784369 0)
(0.0599862 0.00080819 0)
(0.0590727 0.000831454 0)
(0.0581188 0.000854228 0)
(0.0571248 0.000876431 -2.31098e-22)
(0.0560944 0.000898078 1.14849e-23)
(0.0550279 0.000919052 0)
(0.0539257 0.000939539 0)
(0.0527746 0.000958726 0)
(0.0516092 0.000978215 -1.07133e-21)
(0.050383 0.000996127 0)
(0.0491546 0.00101401 0)
(0.0478589 0.00103054 0)
(0.0465621 0.0010466 -2.29516e-21)
(0.0452142 0.00106222 2.63024e-21)
(0.0438511 0.00107667 0)
(0.0424581 0.00109061 0)
(0.0410412 0.00110364 3.72031e-21)
(0.0396006 0.00111582 4.1142e-21)
(0.0381364 0.00112719 0)
(0.0366521 0.00113789 0)
(0.0351487 0.0011478 -5.40319e-21)
(0.0336279 0.00115711 5.87331e-21)
(0.0320915 0.00116581 0)
(0.0305414 0.0011741 0)
(0.0289785 0.00118199 7.42893e-21)
(0.0274047 0.00118954 0)
(0.0258209 0.00119676 0)
(0.0242288 0.0012037 9.25189e-21)
(0.0226296 0.00121044 0)
(0.0210249 0.00121706 1.06579e-20)
(0.0194158 0.00122364 0)
(0.0178035 0.00123028 0)
(0.0161891 0.00123705 0)
(0.0145738 0.00124408 -1.41015e-20)
(0.0129585 0.00125145 0)
(0.0113442 0.00125929 0)
(0.00973181 0.00126772 0)
(0.00812216 0.0012771 0)
(0.00651591 0.00128842 0)
(0.00491328 0.00130224 0)
(0.00331466 0.00131779 -2.37672e-20)
(0.00172071 0.00133312 -2.58249e-20)
(0.000131883 0.00133651 0)
(-0.00145112 0.00131278 0)
(-0.00302563 0.00127345 0)
(-0.00458869 0.00123298 2.43396e-20)
(-0.00613721 0.00119234 0)
(-0.00766565 0.00114989 -4.46666e-20)
(-0.00916631 0.00110217 4.29939e-20)
(-0.0106191 0.00104547 4.15229e-20)
(-0.0120169 0.000963048 -4.02625e-20)
(-0.0132117 0.000854695 3.92484e-20)
(-0.0144749 0.000630082 -3.85969e-20)
(-0.0140146 0.000126312 0)
(-0.0164209 0.000326487 -2.38727e-18)
(-0.0201349 -0.000144588 -2.22371e-18)
(-0.0238318 -0.000631717 3.00927e-36)
(-0.0273213 -0.0010556 -3.9347e-18)
(-0.0308705 -0.00146333 -7.44072e-18)
(-0.0345807 -0.0018721 -3.52516e-18)
(-0.0384658 -0.00228662 3.34398e-18)
(-0.0425509 -0.00271431 -3.61112e-35)
(-0.0468756 -0.00316197 0)
(-0.0514662 -0.00363458 2.86875e-18)
(-0.0563519 -0.00413627 2.72637e-18)
(-0.0615685 -0.00467134 3.00927e-36)
(-0.0671535 -0.00524377 0)
(-0.0731449 -0.00585836 0)
(-0.0796152 -0.00652059 -3.45125e-35)
(-0.0865549 -0.0072341 -2.83059e-35)
(-0.0941993 -0.00801113 -6.01853e-36)
(-0.102266 -0.00884743 -3.57828e-18)
(-0.11158 -0.00977097 -3.28968e-18)
(-0.120922 -0.0107733 1.20371e-35)
(-0.132787 -0.0118529 5.26474e-18)
(-0.143407 -0.0131446 8.88927e-18)
(-0.160829 -0.0143543 0)
(-0.168831 -0.0161446 -4.37389e-18)
(-0.205246 -0.017183 -9.0278e-36)
)
;
    }
    frontAndBack
    {
        type            empty;
    }
}


// ************************************************************************* //
