/*--------------------------------*- C++ -*----------------------------------*\
  =========                 |
  \\      /  F ield         | OpenFOAM: The Open Source CFD Toolbox
   \\    /   O peration     | Website:  https://openfoam.org
    \\  /    A nd           | Version:  8
     \\/     M anipulation  |
\*---------------------------------------------------------------------------*/
FoamFile
{
    version     2.0;
    format      ascii;
    class       volScalarField;
    location    "2000";
    object      nuTilda;
}
// * * * * * * * * * * * * * * * * * * * * * * * * * * * * * * * * * * * * * //

dimensions      [0 2 -1 0 0 0 0];

internalField   nonuniform List<scalar> 
12225
(
0.0122671
0.00158833
0.000666932
0.000412201
0.000298001
0.000234418
0.000192049
0.000186517
0.000141364
0.000110263
9.732e-05
9.07191e-05
8.20031e-05
7.63421e-05
7.17073e-05
7.01732e-05
6.81337e-05
7.40039e-05
0.0323823
0.00744533
0.00330642
0.00204338
0.00146818
0.00114477
0.000936743
0.000800567
0.000680243
0.000578059
0.000507247
0.000453561
0.000411867
0.000380372
0.000352022
0.000329995
0.000313756
0.000295889
0.0490123
0.01515
0.00728196
0.00457856
0.00330642
0.00258059
0.00211241
0.00178924
0.00154196
0.00134781
0.00119795
0.00107898
0.000982391
0.000902876
0.000836441
0.000781451
0.000736166
0.000687898
0.063054
0.0237783
0.0122894
0.00788815
0.00573398
0.004485
0.00367415
0.00310736
0.00268476
0.00235811
0.00210119
0.00189468
0.00172543
0.00158465
0.0014663
0.00136624
0.00128168
0.00119816
0.074932
0.0328517
0.0181452
0.0119262
0.00874549
0.00686413
0.00563081
0.00476256
0.0041175
0.00362032
0.00322735
0.00290996
0.00264905
0.00243149
0.00224807
0.00209197
0.00195836
0.00183639
0.0849536
0.0420208
0.0246655
0.0166359
0.0123325
0.00972587
0.0079954
0.00676785
0.00585346
0.00514771
0.00458846
0.00413589
0.00376337
0.00345243
0.00318987
0.00296601
0.00277366
0.00260478
0.0933822
0.0510219
0.0316642
0.0219415
0.016474
0.0130717
0.0107779
0.00913552
0.00790571
0.00695341
0.00619691
0.00558368
0.00507839
0.00465634
0.00429979
0.00399564
0.00373418
0.00350823
0.0993794
0.0583363
0.0378386
0.0268568
0.0204171
0.0163053
0.0134892
0.011453
0.00991891
0.00872629
0.00777636
0.00700498
0.00636868
0.00583687
0.00538742
0.005004
0.00467455
0.0043913
0.104023
0.0645454
0.0433804
0.0314239
0.0241571
0.0194092
0.0161097
0.0137018
0.0118766
0.0104521
0.00931444
0.00838905
0.00762486
0.00698576
0.00644546
0.00598451
0.00558861
0.0052488
0.108368
0.0708939
0.0493756
0.0365496
0.0284517
0.0230231
0.0191863
0.0163547
0.0141926
0.0124968
0.011138
0.0100304
0.00911435
0.00834761
0.00769911
0.00714581
0.0066707
0.006263
0.112368
0.0772557
0.0557282
0.0421918
0.0332976
0.0271652
0.0227468
0.0194432
0.0168984
0.0148903
0.0132749
0.0119544
0.0108605
0.0099438
0.00916798
0.00850587
0.00793738
0.00744917
0.115994
0.0834975
0.0623053
0.0482611
0.0386474
0.0318167
0.026789
0.0229739
0.0200046
0.0176452
0.0157379
0.0141736
0.0128749
0.011785
0.0108618
0.0100736
0.00939672
0.00881466
0.119234
0.0894856
0.0689377
0.0546109
0.0443919
0.0369007
0.0312597
0.0269088
0.0234836
0.02074
0.0185096
0.0166735
0.0151449
0.01386
0.0127704
0.0118396
0.0110397
0.0103508
0.122086
0.095084
0.075415
0.0610223
0.0503361
0.0422534
0.0360231
0.0311353
0.0272402
0.024093
0.021519
0.0193909
0.017614
0.0161174
0.0148466
0.01376
0.0128257
0.0120196
0.124546
0.100135
0.0814619
0.0671725
0.056158
0.047577
0.0408126
0.0354174
0.031066
0.0275196
0.0246012
0.0221777
0.0201481
0.0184349
0.0169782
0.0157314
0.0146583
0.0137312
0.126578
0.104396
0.0866605
0.0725515
0.0613228
0.0523526
0.0451453
0.0393148
0.0345631
0.0306611
0.0274325
0.0247409
0.0224806
0.020569
0.0189413
0.0175468
0.0163454
0.0153061
0.128011
0.107322
0.0902141
0.0762353
0.0648743
0.0556509
0.0481493
0.0420254
0.0370012
0.0328553
0.0294126
0.0265352
0.0241143
0.0220643
0.0203172
0.0188191
0.0175275
0.0164083
0.128006
0.107313
0.0902048
0.0762269
0.0648674
0.0556454
0.048145
0.0420222
0.0369988
0.0328537
0.0294117
0.0265349
0.0241147
0.0220652
0.0203185
0.0188206
0.0175287
0.0164083
0.126509
0.104255
0.0864922
0.0723807
0.0611613
0.052205
0.0450128
0.0391967
0.0344584
0.0305686
0.0273506
0.0246684
0.0224163
0.0205118
0.0188903
0.0175006
0.0163024
0.0152631
0.124267
0.0995604
0.0807712
0.0664676
0.0554886
0.0469631
0.0402594
0.0349228
0.0306248
0.0271258
0.0242488
0.0218611
0.0198626
0.0181762
0.0167426
0.0155152
0.0144575
0.0135405
0.12136
0.0936399
0.0737261
0.0593348
0.0487592
0.0408249
0.0347467
0.0300003
0.0262308
0.0231928
0.0207127
0.018665
0.0169572
0.0155198
0.0142999
0.0132567
0.0123583
0.0115798
0.117686
0.0865903
0.0656967
0.0514791
0.0415374
0.0343608
0.0290184
0.0249322
0.0217348
0.0191848
0.0171184
0.0154211
0.0140106
0.0128263
0.0118229
0.0109657
0.010228
0.00958895
0.11305
0.0784122
0.056921
0.0432687
0.0342296
0.0279652
0.0234365
0.0200435
0.0174263
0.0153597
0.0136966
0.0123369
0.0112106
0.010267
0.00946866
0.00878719
0.00820102
0.00769347
0.107169
0.0691009
0.0476372
0.035029
0.0271566
0.021922
0.0182437
0.0155401
0.0134817
0.0118706
0.0105816
0.00953197
0.00866487
0.00793966
0.0073267
0.00680378
0.00635414
0.00596495
0.0996761
0.0587036
0.0381279
0.0270699
0.0205782
0.016433
0.0135949
0.0115438
0.00999923
0.00879908
0.00784341
0.00706756
0.00642791
0.00589358
0.0054423
0.00505735
0.00472644
0.0044401
0.0901097
0.0473665
0.0287363
0.0196847
0.0146976
0.0116312
0.00957853
0.00811528
0.00702332
0.00617995
0.00551058
0.00496795
0.00452115
0.00414815
0.00383332
0.00356447
0.0033337
0.0031337
0.0779076
0.0353826
0.0198606
0.0131383
0.00966107
0.00759298
0.00623353
0.00527431
0.00456401
0.00401885
0.00358699
0.00323614
0.0029472
0.00270597
0.00250238
0.00232753
0.00217877
0.00204822
0.06238
0.0232554
0.0119461
0.00765494
0.00556339
0.00435258
0.00356726
0.00301643
0.00261312
0.00230801
0.00206664
0.00186729
0.00170231
0.00156432
0.00144787
0.0013446
0.00126106
0.00118234
0.0426105
0.0117794
0.00546931
0.00341388
0.00246077
0.00192015
0.0015729
0.00132906
0.00115969
0.00103887
0.000944521
0.000858346
0.000785386
0.00072245
0.000668855
0.000613486
0.00058252
0.000537647
0.0168348
0.0025599
0.00110031
0.000684192
0.000495179
0.000389152
0.000321659
0.000270755
0.000280876
0.000338929
0.000384933
0.000372982
0.000345878
0.000310426
0.000291623
0.000232238
0.00030439
0.000265239
3.78292e-06
1.43244e-05
2.6032e-05
3.85425e-05
4.60194e-05
4.96754e-05
5.01635e-05
4.78392e-05
4.46484e-05
3.95796e-05
3.42408e-05
2.94625e-05
2.67595e-05
2.74196e-05
2.9592e-05
3.14339e-05
3.12811e-05
2.84064e-05
2.36573e-05
1.94767e-05
1.94425e-05
2.62721e-05
3.92508e-05
6.37092e-05
8.71456e-05
0.000100547
0.000113286
0.000124298
0.000134293
0.000142801
0.000150398
0.000157021
0.000162886
0.000168044
0.000172578
0.000176606
0.000180195
0.000183415
0.000186313
0.000188925
0.000191276
0.000193382
0.000195261
0.000196924
0.000198384
0.000199652
0.000200738
0.000201647
0.000202379
0.000202804
0.000203295
0.000203378
0.000203438
0.000203322
0.000203045
0.000202631
0.000202075
0.000201383
0.000200555
0.000199593
0.000198501
0.00019728
0.000195933
0.000194463
0.000192873
0.000191166
0.000189342
0.000187406
0.00018536
0.000183207
0.000180951
0.000178593
0.000176137
0.000173586
0.000170941
0.000168207
0.000165385
0.000162478
0.000159489
0.000156418
0.000153265
0.000150031
0.000146712
0.000143306
0.000139809
0.000136216
0.000132521
0.000128719
0.000124798
0.000120743
0.000116536
0.00011216
0.000107619
0.000102964
9.84001e-05
9.44179e-05
9.1595e-05
8.98384e-05
8.85241e-05
8.73193e-05
8.61359e-05
8.49571e-05
8.37812e-05
8.26088e-05
8.14407e-05
8.0278e-05
7.91221e-05
7.7977e-05
7.6864e-05
7.59093e-05
7.49753e-05
7.40474e-05
7.31275e-05
7.22159e-05
7.13128e-05
7.04188e-05
6.95341e-05
6.86591e-05
6.77941e-05
6.69392e-05
6.60946e-05
6.52606e-05
6.44375e-05
6.36257e-05
6.28252e-05
6.20359e-05
6.12587e-05
6.05193e-05
5.98421e-05
5.91736e-05
5.85103e-05
5.78602e-05
5.72284e-05
5.66018e-05
5.59799e-05
5.53661e-05
5.47613e-05
5.41662e-05
5.35808e-05
5.3005e-05
5.24387e-05
5.18817e-05
5.13338e-05
5.0795e-05
5.02651e-05
4.97441e-05
4.92317e-05
4.87279e-05
4.82327e-05
4.77459e-05
4.72675e-05
4.67973e-05
4.63355e-05
4.58819e-05
4.54366e-05
4.49995e-05
4.45708e-05
4.41506e-05
4.37388e-05
4.33358e-05
4.29417e-05
4.25568e-05
4.21812e-05
4.18152e-05
4.14591e-05
4.11129e-05
4.07766e-05
4.045e-05
4.01326e-05
3.98238e-05
3.95214e-05
3.92259e-05
3.89281e-05
3.86414e-05
3.83125e-05
3.80568e-05
3.75491e-05
3.73542e-05
3.63035e-05
3.49091e-05
5.89561e-06
4.05853e-05
9.24564e-05
0.000153699
0.000192563
0.000214588
0.000223399
0.000221984
0.000214156
0.000198604
0.000179576
0.000161573
0.000152398
0.000156823
0.000169072
0.00017703
0.000179117
0.000180201
0.000185103
0.000193806
0.000208058
0.000224376
0.000240285
0.000256125
0.00026702
0.00027661
0.000285158
0.000297609
0.000316286
0.000329956
0.000342478
0.00035323
0.000363014
0.000371991
0.000379792
0.000386919
0.000393557
0.000399928
0.000406162
0.000412322
0.000418406
0.000424369
0.000430159
0.000435736
0.000441071
0.000446147
0.00045095
0.000455467
0.000459698
0.000463644
0.000467344
0.000470762
0.000473938
0.000476861
0.000479535
0.000481961
0.000484141
0.000486074
0.000487762
0.000489204
0.000490401
0.000491354
0.000492066
0.00049254
0.000492787
0.000492811
0.000492608
0.000492174
0.000491525
0.000490664
0.000489598
0.000488333
0.000486876
0.000485233
0.000483412
0.00048142
0.000479264
0.000476952
0.000474492
0.000471892
0.000469159
0.000466301
0.000463326
0.000460243
0.000457058
0.00045378
0.000450417
0.000446978
0.000443472
0.000439905
0.000436284
0.000432613
0.000428894
0.000425118
0.000421267
0.000417315
0.000413246
0.000409088
0.000404891
0.00040068
0.000396462
0.000392241
0.000388021
0.000383805
0.000379596
0.000375399
0.000371216
0.000367049
0.000362898
0.000358761
0.000354649
0.000350566
0.000346514
0.000342495
0.000338511
0.000334563
0.000330653
0.000326782
0.000322953
0.000319165
0.00031542
0.000311718
0.000308061
0.000304451
0.000300887
0.00029737
0.000293899
0.000290473
0.000287091
0.000283756
0.000280466
0.000277229
0.000274047
0.000270904
0.000267798
0.000264736
0.00026172
0.000258751
0.000255829
0.000252953
0.000250124
0.000247339
0.0002446
0.000241905
0.000239253
0.000236645
0.000234079
0.000231555
0.000229073
0.000226632
0.000224232
0.000221872
0.000219553
0.000217274
0.000215035
0.000212836
0.000210678
0.000208561
0.000206486
0.000204454
0.000202465
0.000200522
0.000198625
0.000196777
0.000194978
0.00019323
0.000191534
0.000189889
0.000188295
0.000186751
0.000185251
0.000183797
0.00018236
0.000180997
0.000179513
0.00017839
0.000176294
0.000175971
0.000172992
0.00017213
1.28732e-05
7.40528e-05
0.000174297
0.000251896
0.000303707
0.00033344
0.000344313
0.000341508
0.000328916
0.000310027
0.000290695
0.000278248
0.000275983
0.000282398
0.000292435
0.000302973
0.000315431
0.000332057
0.000353326
0.00037819
0.000405325
0.000433404
0.000471172
0.000517313
0.000562774
0.000606786
0.000649773
0.000693349
0.000732652
0.000763921
0.000788918
0.000808734
0.000824443
0.000836907
0.000846906
0.000855217
0.000862541
0.00086952
0.000876693
0.000884415
0.000892795
0.000901709
0.000910919
0.000920188
0.000929338
0.00093825
0.000946847
0.000955083
0.000962919
0.000970329
0.00097729
0.000983772
0.000989772
0.000995284
0.00100031
0.00100484
0.00100887
0.00101242
0.00101547
0.00101803
0.0010201
0.00102168
0.00102276
0.0010233
0.00102346
0.00102318
0.00102239
0.00102114
0.00101946
0.00101734
0.0010148
0.00101186
0.00100853
0.00100481
0.00100074
0.000996308
0.000991544
0.00098646
0.00098107
0.00097539
0.000969434
0.000963219
0.000956758
0.000950068
0.000943162
0.000936057
0.000928767
0.000921306
0.000913687
0.000905925
0.00089803
0.000890014
0.000881887
0.000873657
0.000865331
0.00085692
0.000848436
0.000839895
0.000831313
0.000822704
0.000814078
0.000805444
0.00079681
0.000788184
0.000779573
0.000770984
0.000762424
0.000753897
0.000745412
0.000736971
0.000728582
0.000720249
0.000711978
0.000703772
0.000695635
0.00068757
0.00067958
0.000671669
0.000663839
0.000656092
0.00064843
0.000640855
0.000633369
0.000625975
0.000618672
0.000611462
0.000604345
0.000597321
0.000590391
0.000583556
0.000576816
0.000570172
0.000563622
0.00055716
0.000550784
0.000544498
0.000538304
0.000532201
0.000526191
0.000520272
0.000514443
0.000508705
0.000503054
0.000497492
0.000492016
0.000486625
0.000481318
0.000476094
0.000470952
0.000465891
0.000460909
0.000456006
0.00045118
0.000446431
0.000441757
0.000437157
0.00043263
0.000428175
0.000423791
0.000419476
0.000415229
0.000411048
0.000406932
0.000402878
0.000398884
0.000394947
0.000391062
0.000387225
0.000383428
0.000379663
0.000375919
0.00037218
0.000368423
0.000364631
0.000360728
0.00035675
0.00035233
0.000348028
0.00034157
0.000330418
2.17692e-05
0.000106431
0.000220255
0.00031287
0.000375572
0.00041258
0.000428025
0.000428416
0.000418482
0.000405174
0.000397037
0.000396161
0.000405239
0.000422257
0.000444809
0.000472361
0.000505517
0.000544649
0.000588952
0.000650806
0.000724477
0.000804105
0.000888322
0.000958978
0.0010214
0.00107753
0.00112794
0.00117285
0.00121213
0.00124603
0.00127528
0.00130062
0.00132274
0.00134228
0.00135982
0.00137584
0.00139077
0.00140493
0.00141859
0.00143194
0.0014451
0.00145815
0.00147111
0.00148396
0.00149665
0.00150911
0.00152124
0.00153294
0.00154413
0.00155473
0.00156468
0.00157396
0.00158253
0.00159039
0.00159753
0.00160393
0.00160961
0.00161454
0.00161874
0.0016222
0.00162493
0.00162691
0.00162806
0.0016285
0.00162837
0.00162746
0.00162584
0.00162352
0.00162052
0.00161686
0.00161257
0.00160765
0.00160213
0.00159603
0.00158937
0.00158218
0.00157447
0.00156628
0.00155762
0.00154851
0.00153898
0.00152905
0.00151875
0.0015081
0.00149712
0.00148583
0.00147426
0.00146242
0.00145035
0.00143805
0.00142555
0.00141287
0.00140003
0.00138703
0.0013739
0.00136065
0.00134731
0.00133388
0.00132039
0.00130687
0.00129331
0.00127974
0.00126617
0.00125262
0.00123908
0.00122559
0.00121213
0.00119874
0.0011854
0.00117214
0.00115896
0.00114586
0.00113286
0.00111996
0.00110717
0.00109449
0.00108192
0.00106948
0.00105716
0.00104497
0.00103291
0.00102099
0.00100921
0.00099756
0.000986057
0.000974695
0.000963478
0.000952405
0.000941478
0.000930698
0.000920064
0.000909576
0.000899232
0.000889027
0.000878961
0.000869034
0.000859249
0.000849604
0.000840101
0.000830738
0.000821514
0.000812428
0.000803478
0.000794663
0.000785981
0.000777431
0.00076901
0.000760716
0.000752548
0.000744505
0.000736584
0.000728784
0.000721102
0.000713537
0.000706087
0.000698751
0.000691526
0.00068441
0.000677402
0.000670499
0.000663699
0.000656998
0.000650395
0.000643886
0.000637466
0.000631131
0.000624875
0.00061869
0.000612566
0.000606492
0.00060045
0.00059442
0.000588373
0.000582271
0.00057605
0.000569654
0.000562903
0.000555741
0.000547521
0.000531423
2.69691e-05
0.000122011
0.000241124
0.000357865
0.000435909
0.000483089
0.000506593
0.000515003
0.000516542
0.000517478
0.000524268
0.000540303
0.000566209
0.000601036
0.000644004
0.000695131
0.000755042
0.000838289
0.000933811
0.00103002
0.00111901
0.0012034
0.00128275
0.00135547
0.00142224
0.00148367
0.00154015
0.00159202
0.00163963
0.00168341
0.00172384
0.00176142
0.00179656
0.00182964
0.00186098
0.00189082
0.00191937
0.00194676
0.00197308
0.00199841
0.00202277
0.00204618
0.00206862
0.00209009
0.00211055
0.00212999
0.00214836
0.00216563
0.00218179
0.00219681
0.00221068
0.00222341
0.002235
0.00224548
0.00225484
0.00226313
0.00227035
0.00227651
0.00228164
0.00228574
0.00228884
0.00229089
0.0022918
0.00229189
0.00229101
0.00228914
0.0022863
0.00228253
0.00227785
0.00227227
0.00226582
0.00225853
0.00225044
0.00224156
0.00223193
0.00222157
0.00221053
0.00219883
0.0021865
0.00217357
0.00216007
0.00214604
0.00213151
0.0021165
0.00210105
0.00208519
0.00206894
0.00205235
0.00203543
0.00201821
0.00200073
0.00198301
0.00196506
0.00194693
0.00192862
0.00191017
0.00189159
0.00187291
0.00185415
0.00183534
0.0018165
0.00179764
0.00177879
0.00175995
0.00174115
0.0017224
0.00170372
0.00168511
0.00166659
0.00164817
0.00162986
0.00161168
0.00159362
0.0015757
0.00155793
0.00154032
0.00152286
0.00150557
0.00148846
0.00147152
0.00145476
0.00143819
0.0014218
0.0014056
0.0013896
0.0013738
0.00135819
0.00134278
0.00132756
0.00131255
0.00129774
0.00128312
0.00126871
0.00125448
0.00124045
0.00122661
0.00121296
0.00119951
0.00118625
0.00117317
0.00116029
0.00114759
0.00113508
0.00112276
0.00111061
0.00109864
0.00108685
0.00107523
0.00106379
0.00105251
0.00104139
0.00103044
0.00101966
0.00100903
0.000998551
0.00098823
0.000978059
0.000968036
0.000958157
0.000948421
0.000938823
0.00092936
0.000920028
0.000910823
0.000901739
0.000892771
0.00088391
0.000875148
0.000866474
0.000857871
0.000849322
0.000840801
0.000832274
0.000823698
0.000815005
0.000806126
0.000796894
0.000787163
0.000777207
0.000757421
3.07986e-05
0.000135322
0.000261518
0.000392496
0.000488784
0.000550395
0.000588108
0.000611474
0.000629143
0.000648367
0.000674393
0.00070988
0.000755569
0.000811739
0.000878777
0.000969151
0.00107419
0.00117587
0.00127507
0.00137057
0.00146128
0.00154729
0.00162855
0.00170502
0.001777
0.00184483
0.00190886
0.00196942
0.00202685
0.00208146
0.0021336
0.00218353
0.00223152
0.00227777
0.00232244
0.00236566
0.00240751
0.00244805
0.00248731
0.0025253
0.00256201
0.00259742
0.00263152
0.00266425
0.0026956
0.0027255
0.00275393
0.00278084
0.00280619
0.00282996
0.00285212
0.00287264
0.00289151
0.00290871
0.00292425
0.00293812
0.00295032
0.00296086
0.00296975
0.00297701
0.00298267
0.00298675
0.00298918
0.00299008
0.00298961
0.00298764
0.0029843
0.0029796
0.0029736
0.00296634
0.0029579
0.0029483
0.00293762
0.00292589
0.00291317
0.00289951
0.00288495
0.00286953
0.00285331
0.00283632
0.00281861
0.00280021
0.00278118
0.00276155
0.00274136
0.00272065
0.00269946
0.00267783
0.0026558
0.0026334
0.00261067
0.00258764
0.00256435
0.00254082
0.00251708
0.00249318
0.00246912
0.00244495
0.00242069
0.00239637
0.00237201
0.00234763
0.00232327
0.00229893
0.00227465
0.00225043
0.0022263
0.00220227
0.00217836
0.00215458
0.00213094
0.00210746
0.00208415
0.00206102
0.00203807
0.00201533
0.00199279
0.00197046
0.00194835
0.00192647
0.00190482
0.00188341
0.00186223
0.0018413
0.00182062
0.00180018
0.00177999
0.00176006
0.00174037
0.00172094
0.00170176
0.00168284
0.00166416
0.00164574
0.00162755
0.00160961
0.00159192
0.00157447
0.00155726
0.0015403
0.00152357
0.00150708
0.00149082
0.00147479
0.00145899
0.00144342
0.00142807
0.00141294
0.00139802
0.00138331
0.00136882
0.00135453
0.00134044
0.00132655
0.00131285
0.00129935
0.00128604
0.00127291
0.00125997
0.0012472
0.00123461
0.00122219
0.00120993
0.00119783
0.00118589
0.0011741
0.00116244
0.00115091
0.0011395
0.00112818
0.00111695
0.00110576
0.00109459
0.00108339
0.00107209
0.00106062
0.00104881
0.0010366
0.00102443
0.00100196
3.23493e-05
0.000142508
0.000273988
0.000409889
0.000527835
0.000609052
0.000665088
0.000706978
0.000743927
0.000783187
0.000829812
0.000886757
0.000955633
0.00104784
0.00115475
0.00126131
0.0013674
0.00147075
0.00157083
0.00166719
0.0017596
0.00184805
0.00193263
0.0020135
0.0020909
0.00216511
0.0022364
0.00230504
0.00237129
0.00243537
0.0024975
0.00255787
0.00261661
0.00267384
0.00272965
0.0027841
0.00283722
0.00288902
0.0029395
0.00298864
0.00303642
0.00308278
0.00312769
0.0031711
0.00321296
0.00325321
0.0032918
0.00332869
0.00336381
0.00339713
0.0034286
0.00345818
0.00348583
0.00351153
0.00353526
0.00355698
0.00357669
0.00359437
0.00361003
0.00362365
0.00363525
0.00364483
0.00365241
0.00365803
0.00366168
0.0036633
0.00366321
0.00366122
0.00365745
0.00365193
0.00364472
0.00363588
0.00362547
0.00361353
0.00360015
0.00358538
0.00356929
0.00355195
0.00353342
0.00351377
0.00349307
0.00347138
0.00344878
0.00342532
0.00340107
0.00337609
0.00335045
0.00332419
0.00329739
0.00327008
0.00324233
0.00321417
0.00318567
0.00315685
0.00312777
0.00309846
0.00306896
0.00303931
0.00300955
0.0029797
0.0029498
0.00291987
0.00288996
0.00286008
0.00283026
0.00280051
0.00277087
0.00274135
0.00271197
0.00268275
0.00265371
0.00262485
0.0025962
0.00256777
0.00253956
0.0025116
0.00248388
0.00245642
0.00242923
0.0024023
0.00237566
0.0023493
0.00232324
0.00229746
0.00227198
0.0022468
0.00222192
0.00219735
0.00217308
0.00214911
0.00212545
0.00210209
0.00207903
0.00205628
0.00203382
0.00201165
0.00198978
0.0019682
0.00194691
0.00192592
0.0019052
0.00188478
0.00186463
0.00184476
0.00182517
0.00180584
0.00178678
0.00176799
0.00174945
0.00173117
0.00171314
0.00169535
0.00167781
0.00166051
0.00164344
0.00162661
0.00161
0.00159362
0.00157745
0.0015615
0.00154576
0.00153022
0.00151489
0.00149975
0.0014848
0.00147003
0.00145542
0.00144098
0.00142669
0.00141252
0.00139846
0.00138448
0.00137053
0.00135659
0.00134256
0.0013284
0.00131392
0.00129917
0.00128416
0.00125992
3.27985e-05
0.000144139
0.000275344
0.000409488
0.000539419
0.000642722
0.000719789
0.000781107
0.000836794
0.000894533
0.000961966
0.00105378
0.0011633
0.001285
0.00140055
0.00151181
0.00161963
0.00172421
0.00182547
0.00192335
0.00201785
0.00210907
0.00219714
0.00228225
0.00236461
0.00244445
0.002522
0.00259747
0.00267104
0.00274289
0.00281316
0.00288196
0.0029494
0.00301553
0.00308039
0.00314401
0.00320639
0.00326751
0.00332733
0.00338583
0.00344296
0.00349865
0.00355285
0.0036055
0.00365654
0.00370589
0.0037535
0.00379929
0.00384321
0.0038852
0.00392521
0.00396317
0.00399906
0.00403281
0.00406441
0.00409381
0.00412098
0.00414592
0.00416859
0.00418899
0.00420712
0.00422297
0.00423655
0.00424788
0.00425697
0.00426383
0.00426856
0.00427101
0.00427144
0.0042698
0.00426613
0.00426049
0.00425292
0.00424349
0.00423226
0.00421929
0.00420464
0.00418838
0.00417059
0.00415132
0.00413065
0.00410866
0.00408541
0.00406098
0.00403545
0.00400887
0.00398132
0.00395288
0.00392361
0.00389358
0.00386285
0.00383149
0.00379955
0.00376711
0.00373421
0.00370091
0.00366727
0.00363333
0.00359915
0.00356478
0.00353025
0.00349561
0.00346091
0.00342617
0.00339144
0.00335674
0.00332211
0.00328757
0.00325315
0.00321888
0.00318478
0.00315086
0.00311716
0.00308368
0.00305044
0.00301746
0.00298475
0.00295233
0.00292019
0.00288836
0.00285684
0.00282564
0.00279477
0.00276422
0.00273401
0.00270414
0.00267462
0.00264543
0.0026166
0.00258811
0.00255997
0.00253218
0.00250474
0.00247764
0.00245088
0.00242446
0.00239839
0.00237265
0.00234724
0.00232217
0.00229743
0.00227302
0.00224893
0.00222517
0.00220172
0.00217858
0.00215575
0.00213323
0.00211101
0.00208908
0.00206744
0.0020461
0.00202503
0.00200424
0.00198373
0.00196349
0.00194351
0.00192379
0.00190433
0.00188513
0.00186616
0.00184744
0.00182896
0.0018107
0.00179267
0.00177485
0.00175723
0.00173981
0.00172256
0.00170548
0.00168852
0.00167168
0.0016549
0.00163814
0.00162133
0.0016044
0.0015872
0.0015698
0.00155187
0.00152573
3.22409e-05
0.000141215
0.000268946
0.000398087
0.000521959
0.000634102
0.000727873
0.000808901
0.000891737
0.000986919
0.00109602
0.00122061
0.00135695
0.00148445
0.00160474
0.00171975
0.00183047
0.00193724
0.0020404
0.00214028
0.00223712
0.0023311
0.00242243
0.0025113
0.00259793
0.00268251
0.00276525
0.00284631
0.00292584
0.00300397
0.00308081
0.00315645
0.00323093
0.00330429
0.00337654
0.00344768
0.00351768
0.00358651
0.00365411
0.00372044
0.00378543
0.003849
0.00391109
0.00397161
0.00403049
0.00408765
0.00414302
0.00419651
0.00424806
0.00429759
0.00434505
0.00439036
0.00443348
0.00447436
0.00451294
0.00454918
0.00458306
0.00461454
0.0046436
0.00467023
0.00469441
0.00471614
0.00473541
0.00475225
0.00476665
0.00477864
0.00478824
0.00479548
0.00480041
0.00480298
0.00480336
0.00480155
0.00479758
0.00479152
0.00478342
0.00477334
0.00476134
0.00474748
0.00473184
0.00471448
0.00469547
0.00467489
0.0046528
0.00462927
0.00460438
0.00457821
0.00455083
0.0045223
0.0044927
0.00446211
0.00443058
0.0043982
0.00436502
0.00433111
0.00429654
0.00426137
0.00422566
0.00418947
0.00415286
0.00411589
0.0040786
0.00404106
0.0040033
0.00396538
0.00392733
0.00388921
0.00385105
0.00381289
0.00377476
0.00373669
0.00369872
0.00366088
0.00362319
0.00358567
0.00354836
0.00351126
0.00347441
0.00343781
0.00340149
0.00336545
0.00332972
0.0032943
0.00325921
0.00322445
0.00319003
0.00315596
0.00312224
0.00308889
0.00305589
0.00302327
0.00299101
0.00295913
0.00292762
0.00289647
0.0028657
0.0028353
0.00280527
0.00277561
0.00274631
0.00271738
0.00268881
0.0026606
0.00263275
0.00260526
0.00257811
0.00255131
0.00252486
0.00249874
0.00247296
0.00244751
0.00242239
0.00239758
0.0023731
0.00234893
0.00232506
0.0023015
0.00227825
0.00225528
0.00223261
0.00221022
0.00218811
0.00216628
0.00214471
0.00212341
0.00210236
0.00208155
0.00206099
0.00204064
0.0020205
0.00200055
0.00198076
0.0019611
0.00194153
0.001922
0.00190245
0.0018828
0.00186291
0.00184285
0.0018221
0.00179377
3.0872e-05
0.000135129
0.000258146
0.000383446
0.000505409
0.000621473
0.00073209
0.000840984
0.000955731
0.00108148
0.00121949
0.00136918
0.00151146
0.00164344
0.0017677
0.00188612
0.00199985
0.0021095
0.00221547
0.00231796
0.00241737
0.00251409
0.0026084
0.00270057
0.00279081
0.00287935
0.00296634
0.00305197
0.00313635
0.00321959
0.00330179
0.00338299
0.00346324
0.00354253
0.00362088
0.00369825
0.0037746
0.00384988
0.00392403
0.00399696
0.00406861
0.00413888
0.00420768
0.00427494
0.00434055
0.00440443
0.00446648
0.00452662
0.00458478
0.00464086
0.00469479
0.00474651
0.00479594
0.00484304
0.00488775
0.00493002
0.0049698
0.00500708
0.00504181
0.00507398
0.00510358
0.00513059
0.00515501
0.00517684
0.00519611
0.00521281
0.00522698
0.00523863
0.0052478
0.00525453
0.00525885
0.00526078
0.00526044
0.00525783
0.00525301
0.00524605
0.005237
0.00522592
0.00521288
0.00519794
0.00518118
0.00516266
0.00514245
0.00512063
0.00509727
0.00507245
0.00504622
0.00501868
0.00498988
0.0049599
0.00492882
0.00489669
0.0048636
0.0048296
0.00479477
0.00475916
0.00472285
0.0046859
0.00464836
0.00461031
0.00457179
0.00453286
0.00449357
0.00445399
0.00441415
0.0043741
0.00433389
0.00429356
0.00425316
0.00421271
0.00417226
0.00413185
0.00409149
0.00405123
0.0040111
0.00397111
0.0039313
0.00389169
0.00385229
0.00381314
0.00377424
0.00373561
0.00369728
0.00365924
0.00362152
0.00358412
0.00354706
0.00351034
0.00347397
0.00343796
0.00340231
0.00336702
0.00333211
0.00329757
0.0032634
0.00322961
0.0031962
0.00316316
0.0031305
0.00309821
0.00306631
0.00303478
0.00300362
0.00297283
0.00294241
0.00291236
0.00288267
0.00285334
0.00282436
0.00279574
0.00276747
0.00273954
0.00271195
0.00268471
0.00265779
0.0026312
0.00260494
0.002579
0.00255337
0.00252806
0.00250305
0.00247835
0.00245393
0.00242981
0.00240597
0.0023824
0.00235909
0.00233603
0.0023132
0.00229058
0.00226814
0.00224586
0.0022237
0.00220159
0.00217947
0.00215727
0.00213487
0.00211229
0.00208899
0.00205833
2.93206e-05
0.000128806
0.000248265
0.000372504
0.000497127
0.000621029
0.000745633
0.000874913
0.00101211
0.0011593
0.00131662
0.00147839
0.00162619
0.00176264
0.00189074
0.0020125
0.00212919
0.00224164
0.00235037
0.00245579
0.00255819
0.00265775
0.00275493
0.00285007
0.00294346
0.00303534
0.0031259
0.00321532
0.0033037
0.00339117
0.00347778
0.0035636
0.00364863
0.00373288
0.00381633
0.00389894
0.00398064
0.00406138
0.00414108
0.00421964
0.00429698
0.00437299
0.00444758
0.00452063
0.00459206
0.00466175
0.0047296
0.00479553
0.00485943
0.00492122
0.00498081
0.00503813
0.00509311
0.00514568
0.00519578
0.00524336
0.00528838
0.00533079
0.00537057
0.00540768
0.00544212
0.00547387
0.00550292
0.00552928
0.00555295
0.00557395
0.0055923
0.00560803
0.00562115
0.0056317
0.00563973
0.00564527
0.00564838
0.00564911
0.0056475
0.00564362
0.00563753
0.00562929
0.00561895
0.00560658
0.00559226
0.00557604
0.00555801
0.00553823
0.00551677
0.00549371
0.00546912
0.00544307
0.00541563
0.00538688
0.00535689
0.00532571
0.00529343
0.00526012
0.00522583
0.00519064
0.0051546
0.0051178
0.00508028
0.00504211
0.00500335
0.00496405
0.00492428
0.00488409
0.00484352
0.00480263
0.00476146
0.00472007
0.00467849
0.00463678
0.00459495
0.00455307
0.00451116
0.00446925
0.00442738
0.00438559
0.00434389
0.00430231
0.00426089
0.00421964
0.00417858
0.00413774
0.00409714
0.00405678
0.0040167
0.00397689
0.00393738
0.00389818
0.0038593
0.00382074
0.00378251
0.00374463
0.0037071
0.00366992
0.0036331
0.00359664
0.00356055
0.00352482
0.00348946
0.00345447
0.00341986
0.00338561
0.00335174
0.00331824
0.00328511
0.00325235
0.00321996
0.00318793
0.00315627
0.00312497
0.00309402
0.00306344
0.0030332
0.00300331
0.00297377
0.00294457
0.00291571
0.00288718
0.00285899
0.00283112
0.00280358
0.00277636
0.00274945
0.00272284
0.00269653
0.00267052
0.00264478
0.00261932
0.0025941
0.00256911
0.00254433
0.00251972
0.00249524
0.00247084
0.00244645
0.002422
0.00239738
0.00237257
0.00234706
0.00231425
2.76264e-05
0.000122204
0.000238234
0.000361788
0.000489224
0.000619914
0.000756115
0.000899607
0.00105207
0.00121401
0.00138594
0.0015519
0.00170368
0.00184399
0.0019756
0.00210048
0.00221998
0.00233503
0.0024463
0.00255429
0.00265937
0.00276185
0.002862
0.00296
0.00305629
0.00315116
0.00324483
0.00333749
0.0034293
0.00352035
0.00361072
0.00370045
0.00378955
0.00387802
0.00396581
0.00405289
0.00413918
0.00422461
0.00430908
0.00439249
0.00447474
0.00455571
0.0046353
0.00471338
0.00478986
0.0048646
0.00493751
0.00500848
0.00507741
0.00514419
0.00520875
0.005271
0.00533085
0.00538825
0.00544311
0.0054954
0.00554506
0.00559204
0.00563632
0.00567786
0.00571664
0.00575266
0.0057859
0.00581636
0.00584405
0.00586899
0.00589118
0.00591066
0.00592745
0.00594159
0.0059531
0.00596204
0.00596844
0.00597237
0.00597386
0.00597299
0.00596982
0.00596439
0.00595677
0.00594702
0.00593521
0.0059214
0.00590568
0.00588811
0.00586875
0.00584769
0.005825
0.00580074
0.00577499
0.00574782
0.0057193
0.0056895
0.00565848
0.00562632
0.00559308
0.00555883
0.00552364
0.00548756
0.00545067
0.00541302
0.00537468
0.0053357
0.00529614
0.00525606
0.0052155
0.00517453
0.00513318
0.0050915
0.00504955
0.00500737
0.00496499
0.00492247
0.00487982
0.00483711
0.00479435
0.00475158
0.00470883
0.00466614
0.00462353
0.00458102
0.00453864
0.00449642
0.00445437
0.00441251
0.00437087
0.00432946
0.0042883
0.0042474
0.00420677
0.00416642
0.00412638
0.00408664