/*--------------------------------*- C++ -*----------------------------------*\
  =========                 |
  \\      /  F ield         | OpenFOAM: The Open Source CFD Toolbox
   \\    /   O peration     | Website:  https://openfoam.org
    \\  /    A nd           | Version:  8
     \\/     M anipulation  |
\*---------------------------------------------------------------------------*/
FoamFile
{
    version     2.0;
    format      ascii;
    class       volScalarField;
    location    "600";
    object      p;
}
// * * * * * * * * * * * * * * * * * * * * * * * * * * * * * * * * * * * * * //

dimensions      [0 2 -2 0 0 0 0];

internalField   nonuniform List<scalar> 
12225
(
514.676
55.5282
2.36389
0.281767
-1.89872
-3.37428
-3.81154
-4.02197
-4.23175
-4.36869
-4.4159
-4.42558
-4.42866
-4.45674
-4.51028
-4.57697
-4.72266
-4.94613
-122.179
0.238988
-2.71833
-0.76503
-2.21641
-3.52487
-3.95262
-4.13674
-4.28046
-4.38449
-4.45947
-4.51786
-4.56888
-4.60137
-4.62244
-4.64821
-4.71513
-4.80975
-200.645
-16.1483
-2.34635
-0.358255
-1.90075
-3.24475
-3.77218
-4.02244
-4.19516
-4.31947
-4.41221
-4.47948
-4.52819
-4.55352
-4.56871
-4.58446
-4.61655
-4.60004
-110.616
-10.974
-2.17706
-0.431965
-1.78769
-3.02877
-3.60129
-3.90849
-4.1178
-4.26364
-4.36606
-4.4368
-4.4856
-4.51428
-4.53173
-4.53971
-4.53881
-4.47026
-61.5727
-8.14577
-3.62252
-1.20997
-2.0152
-2.99834
-3.52924
-3.84904
-4.07158
-4.22631
-4.33399
-4.4087
-4.46014
-4.49133
-4.50671
-4.5042
-4.47809
-4.38798
-45.7307
-8.78521
-5.25873
-2.20032
-2.42995
-3.10112
-3.53661
-3.8336
-4.04962
-4.20348
-4.31259
-4.38937
-4.44187
-4.47287
-4.48449
-4.47382
-4.43378
-4.33922
-35.7946
-9.27647
-6.38052
-3.12476
-2.92198
-3.29008
-3.60401
-3.85494
-4.05039
-4.19561
-4.30164
-4.37748
-4.42914
-4.45893
-4.46791
-4.45335
-4.40938
-4.32228
-27.778
-8.90725
-6.97399
-3.80302
-3.36205
-3.49891
-3.701
-3.90051
-4.0699
-4.2022
-4.30201
-4.3748
-4.42476
-4.45364
-4.46202
-4.44774
-4.40675
-4.33196
-21.6901
-8.52021
-7.13469
-4.31089
-3.72935
-3.70652
-3.81683
-3.96521
-4.10554
-4.22185
-4.31294
-4.38105
-4.42854
-4.45652
-4.46525
-4.4533
-4.41828
-4.35724
-16.6128
-8.14089
-7.08835
-4.75578
-4.08366
-3.93489
-3.95978
-4.05326
-4.15965
-4.25589
-4.33538
-4.39702
-4.44128
-4.46849
-4.47868
-4.4712
-4.44525
-4.40071
-12.6391
-7.68109
-6.90638
-5.10209
-4.40729
-4.17087
-4.12249
-4.16206
-4.23228
-4.30567
-4.37129
-4.42504
-4.46556
-4.49239
-4.50539
-4.50454
-4.49024
-4.46402
-9.69923
-7.149
-6.62948
-5.32692
-4.67914
-4.39767
-4.29502
-4.28731
-4.32251
-4.37219
-4.42273
-4.46778
-4.50444
-4.53151
-4.54868
-4.55626
-4.55533
-4.548
-7.66629
-6.60496
-6.30625
-5.4319
-4.88359
-4.59781
-4.46421
-4.42107
-4.42637
-4.45417
-4.49017
-4.52678
-4.5601
-4.58828
-4.61079
-4.62797
-4.64102
-4.65189
-6.3712
-6.1133
-5.98598
-5.44063
-5.01623
-4.75807
-4.61665
-4.553
-4.53701
-4.54761
-4.57169
-4.60154
-4.63279
-4.66321
-4.69197
-4.71918
-4.74574
-4.77307
-5.62295
-5.72264
-5.70929
-5.39114
-5.08623
-4.87333
-4.74212
-4.67257
-4.64558
-4.64579
-4.66244
-4.68854
-4.7198
-4.75382
-4.78945
-4.82646
-4.86524
-4.90655
-5.24364
-5.46044
-5.50837
-5.32782
-5.1153
-4.94824
-4.83597
-4.77098
-4.7423
-4.73944
-4.75411
-4.78038
-4.81431
-4.85344
-4.8964
-4.94257
-4.99184
-5.04437
-5.1024
-5.34453
-5.4172
-5.2992
-5.13517
-4.99606
-4.8984
-4.8405
-4.81538
-4.81518
-4.83302
-4.86361
-4.90318
-4.94922
-5.0001
-5.05487
-5.11302
-5.17432
-5.14012
-5.40033
-5.47442
-5.34826
-5.17444
-5.0287
-4.92843
-4.87121
-4.84928
-4.85411
-4.8783
-4.91612
-4.96347
-5.01754
-5.07643
-5.13893
-5.20429
-5.27208
-5.3924
-5.65476
-5.69045
-5.47531
-5.22607
-5.03568
-4.91455
-4.85146
-4.8324
-4.84467
-4.8783
-4.92613
-4.98326
-5.04644
-5.11359
-5.18335
-5.25494
-5.32793
-6.00178
-6.13658
-6.04233
-5.6348
-5.24679
-4.987
-4.84045
-4.7755
-4.76597
-4.79233
-4.84089
-4.90272
-4.97225
-5.04605
-5.12207
-5.19911
-5.27654
-5.35414
-7.24939
-6.88921
-6.49387
-5.76154
-5.18274
-4.8526
-4.69597
-4.6458
-4.65972
-4.71024
-4.78047
-4.8605
-4.94479
-5.0303
-5.1155
-5.19965
-5.28249
-5.36417
-9.6409
-7.96427
-6.98228
-5.77154
-4.9792
-4.61177
-4.48154
-4.47329
-4.52814
-4.61348
-4.71125
-4.81241
-4.91249
-5.00974
-5.10354
-5.19402
-5.28147
-5.36645
-13.9821
-9.39075
-7.40285
-5.5692
-4.5944
-4.26382
-4.21465
-4.27927
-4.39141
-4.5189
-4.64704
-4.7696
-4.88467
-4.99216
-5.09294
-5.18823
-5.279
-5.36627
-20.8897
-10.9537
-7.55387
-5.05691
-4.01551
-3.83547
-3.92957
-4.09368
-4.27177
-4.44263
-4.59921
-4.74056
-4.86771
-4.98262
-5.08788
-5.18583
-5.27828
-5.36655
-29.7363
-11.9491
-7.03321
-4.1258
-3.26371
-3.37761
-3.67066
-3.94639
-4.18866
-4.39668
-4.57528
-4.72977
-4.86432
-4.98333
-5.09007
-5.18849
-5.281
-5.369
-43.1062
-12.6137
-5.4725
-2.72864
-2.41293
-2.96309
-3.48388
-3.86195
-4.15312
-4.38541
-4.57708
-4.73744
-4.87415
-4.99256
-5.09784
-5.19505
-5.2868
-5.37435
-84.5992
-17.3732
-3.6638
-1.26514
-1.6957
-2.72149
-3.43581
-3.86952
-4.17293
-4.41003
-4.60569
-4.76762
-4.89901
-5.01086
-5.1096
-5.20103
-5.29082
-5.37798
-177.885
-26.8493
-3.67987
-0.769925
-1.5348
-2.84274
-3.61373
-4.01483
-4.27053
-4.4665
-4.64984
-4.81537
-4.95126
-5.05691
-5.14023
-5.21827
-5.29906
-5.38248
-154.79
-9.62701
-3.27211
-1.06801
-1.84281
-3.22056
-3.91334
-4.2246
-4.41693
-4.55842
-4.70066
-4.85379
-5.00238
-5.12836
-5.22025
-5.29195
-5.36241
-5.43812
428.057
66.6058
7.05623
1.5997
-0.915309
-2.85661
-3.65262
-3.99425
-4.30981
-4.57604
-4.70718
-4.75249
-4.80292
-4.89086
-5.01726
-5.14857
-5.25443
-5.33727
-8.52585
-8.51301
-8.5023
-8.54362
-8.63668
-8.74046
-8.82049
-8.86061
-8.86432
-8.84666
-8.81921
-8.79057
-8.76881
-8.75992
-8.76485
-8.77748
-8.7887
-8.79381
-8.79289
-8.79037
-8.7943
-8.82675
-8.91672
-9.08767
-9.34044
-9.65803
-10.029
-10.4428
-10.8838
-11.3359
-11.784
-12.2161
-12.623
-12.998
-13.3368
-13.6369
-13.8974
-14.1183
-14.3001
-14.4441
-14.5513
-14.6233
-14.6612
-14.6666
-14.6407
-14.5848
-14.5006
-14.3905
-14.2556
-14.0937
-13.9023
-13.6827
-13.4375
-13.1685
-12.8769
-12.5638
-12.2303
-11.8774
-11.5061
-11.1174
-10.7125
-10.2924
-9.85829
-9.41133
-8.9527
-8.48357
-8.00516
-7.51866
-7.02526
-6.52614
-6.02248
-5.51541
-5.00604
-4.49546
-3.98471
-3.47479
-2.96666
-2.46123
-1.95937
-1.46187
-0.969496
-0.482953
-0.00288515
0.470116
0.935514
1.39283
1.84163
2.28155
2.71227
3.13354
3.54514
3.94691
4.33866
4.72038
5.0923
5.45444
5.80633
6.14758
6.47817
6.79834
7.10834
7.40836
7.6986
7.97922
8.25043
8.51242
8.76539
9.00957
9.24519
9.47243
9.69153
9.90273
10.1063
10.3024
10.4914
10.6735
10.8489
11.0178
11.1806
11.3373
11.4883
11.6338
11.7739
11.909
12.0391
12.1645
12.2854
12.402
12.5144
12.6229
12.7275
12.8286
12.9265
13.0212
13.1126
13.2009
13.2862
13.3687
13.4485
13.5256
13.6003
13.6726
13.7427
13.8106
13.8763
13.9401
14.0019
14.0619
14.12
14.1764
14.2312
14.2843
14.3358
14.3858
14.4343
14.4813
14.5268
14.571
14.6138
14.6552
14.6952
14.734
14.7714
14.8075
14.8424
14.876
14.9084
14.9396
14.9697
14.9989
15.0272
15.0549
15.0824
15.11
15.1387
15.1695
15.2049
15.2465
15.3044
15.3648
-8.58327
-8.61452
-8.68848
-8.78212
-8.88566
-8.97797
-9.03934
-9.06382
-9.04686
-8.98646
-8.89669
-8.79977
-8.71798
-8.6665
-8.64429
-8.64097
-8.65045
-8.67591
-8.71124
-8.73135
-8.75552
-8.83302
-8.99205
-9.23118
-9.53774
-9.90847
-10.3341
-10.7942
-11.2672
-11.7351
-12.1854
-12.6087
-12.9987
-13.3513
-13.665
-13.9394
-14.1749
-14.3726
-14.5335
-14.6589
-14.7499
-14.8076
-14.8331
-14.8273
-14.7908
-14.7245
-14.6287
-14.5034
-14.3492
-14.1692
-13.9671
-13.7431
-13.4964
-13.2272
-12.9359
-12.6235
-12.2908
-11.9386
-11.5681
-11.1802
-10.7759
-10.3565
-9.92298
-9.47655
-9.01836
-8.5496
-8.07147
-7.58517
-7.09189
-6.59281
-6.0891
-5.5819
-5.07232
-4.56145
-4.05033
-3.53996
-3.03131
-2.52528
-2.02275
-1.52452
-1.03134
-0.543942
-0.0629593
0.411006
0.877409
1.33576
1.78561
2.22657
2.6583
3.08048
3.49285
3.89518
4.28725
4.66893
5.04033
5.40165
5.75308
6.09466
6.42624
6.7477
7.05908
7.36052
7.65217
7.93419
8.20677
8.4701
8.72439
8.96985
9.20672
9.43523
9.6556
9.86806
10.0728
10.2702
10.4604
10.6436
10.8201
10.9901
11.1539
11.3117
11.4637
11.6102
11.7513
11.8874
12.0185
12.145
12.267
12.3847
12.4982
12.6077
12.7134
12.8153
12.9133
13.0081
13.0996
13.1881
13.2737
13.3564
13.4365
13.5139
13.5889
13.6616
13.7319
13.8001
13.8662
13.9302
13.9923
14.0526
14.111
14.1677
14.2227
14.2761
14.3278
14.378
14.4267
14.474
14.5198
14.5641
14.6071
14.6487
14.6889
14.7278
14.7654
14.8017
14.8367
14.8704
14.903
14.9343
14.9646
14.9939
15.0223
15.0501
15.0777
15.1054
15.1342
15.1649
15.1997
15.2392
15.2929
15.3427
-8.71035
-8.7922
-8.91025
-9.01618
-9.09918
-9.15314
-9.17385
-9.16012
-9.11059
-9.02752
-8.91992
-8.80438
-8.70435
-8.63953
-8.61059
-8.60562
-8.62448
-8.68107
-8.78461
-8.93159
-9.12172
-9.36206
-9.65569
-9.99456
-10.3664
-10.762
-11.1714
-11.5828
-11.9854
-12.3721
-12.7382
-13.0798
-13.3943
-13.68
-13.9359
-14.1615
-14.3565
-14.5211
-14.6555
-14.76
-14.8349
-14.8807
-14.8978
-14.8867
-14.8476
-14.7812
-14.6877
-14.5672
-14.4196
-14.2459
-14.0476
-13.8257
-13.5806
-13.313
-13.0235
-12.7129
-12.382
-12.0316
-11.6629
-11.2766
-10.874
-10.456
-10.0238
-9.57853
-9.12138
-8.65351
-8.17613
-7.69043
-7.19761
-6.69884
-6.1953
-5.68813
-5.17845
-4.66735
-4.15588
-3.64504
-3.13581
-2.62909
-2.12577
-1.62666
-1.13253
-0.644079
-0.161979
0.313171
0.780824
1.24048
1.69171
2.13411
2.56735
2.99115
3.40525
3.80946
4.20364
4.58769
4.96158
5.32533
5.67897
6.0225
6.35589
6.67915
6.99235
7.2956
7.58905
7.87285
8.1472
8.41228
8.66829
8.91545
9.15399
9.38412
9.60608
9.82009
10.0264
10.2252
10.4168
10.6015
10.7793
10.9507
11.1158
11.2749
11.4282
11.5759
11.7182
11.8553
11.9874
12.1147
12.2375
12.3558
12.47
12.5802
12.6865
12.7891
12.8881
12.9839
13.0765
13.166
13.2524
13.3361
13.4169
13.4952
13.5709
13.6442
13.7152
13.784
13.8507
13.9153
13.978
14.0387
14.0977
14.1548
14.2103
14.264
14.3162
14.3668
14.4159
14.4634
14.5096
14.5542
14.5975
14.6394
14.6799
14.7191
14.7569
14.7934
14.8287
14.8626
14.8953
14.9269
14.9573
14.9867
15.0153
15.0432
15.0707
15.0984
15.1269
15.157
15.1905
15.2271
15.2744
15.308
-8.75005
-8.84756
-8.9489
-9.03548
-9.09999
-9.13975
-9.15227
-9.1349
-9.08765
-9.01549
-8.92962
-8.84686
-8.78538
-8.75812
-8.76999
-8.82304
-8.92117
-9.06805
-9.2643
-9.50494
-9.78109
-10.0855
-10.4123
-10.755
-11.1084
-11.4671
-11.8259
-12.1796
-12.5235
-12.8536
-13.1666
-13.4598
-13.731
-13.9786
-14.2012
-14.3981
-14.5686
-14.7122
-14.8289
-14.9185
-14.981
-15.0166
-15.0253
-15.0073
-14.9627
-14.8916
-14.7945
-14.6716
-14.5234
-14.3505
-14.1537
-13.9332
-13.6898
-13.4238
-13.136
-12.827
-12.4978
-12.1491
-11.7818
-11.397
-10.9956
-10.5788
-10.1476
-9.70326
-9.24681
-8.77949
-8.3025
-7.81703
-7.32428
-6.82542
-6.32164
-5.81408
-5.30387
-4.79209
-4.27981
-3.76803
-3.25773
-2.74984
-2.24523
-1.74472
-1.2491
-0.759083
-0.275326
0.201556
0.671009
1.13253
1.58568
2.03005
2.46532
2.89118
3.30739
3.71377
4.11017
4.49651
4.87272
5.23879
5.59468
5.94038
6.27588
6.60123
6.91651
7.22182
7.51732
7.80316
8.07951
8.34657
8.60453
8.85361
9.09402
9.32599
9.54975
9.76551
9.97354
10.1741
10.3673
10.5536
10.733
10.9059
11.0725
11.233
11.3876
11.5366
11.6801
11.8185
11.9518
12.0803
12.2042
12.3237
12.439
12.5502
12.6575
12.7611
12.8613
12.9581
13.0516
13.142
13.2294
13.3139
13.3955
13.4746
13.551
13.6251
13.6968
13.7662
13.8335
13.8988
13.962
14.0233
14.0828
14.1404
14.1964
14.2506
14.3032
14.3542
14.4037
14.4517
14.4982
14.5432
14.5868
14.629
14.6699
14.7093
14.7474
14.7842
14.8197
14.8538
14.8867
14.9184
14.949
14.9785
15.0071
15.0349
15.0624
15.0897
15.1175
15.1465
15.1778
15.2103
15.2496
15.2682
-8.53841
-8.62336
-8.72349
-8.82061
-8.898
-8.95076
-8.97787
-8.98014
-8.96202
-8.9318
-8.90155
-8.88527
-8.89575
-8.9426
-9.03202
-9.16717
-9.34816
-9.57044
-9.82556
-10.1055
-10.4046
-10.7189
-11.0439
-11.3746
-11.7066
-12.0363
-12.3602
-12.6753
-12.9787
-13.268
-13.5413
-13.7968
-14.0331
-14.249
-14.4434
-14.6156
-14.7648
-14.8904
-14.992
-15.0692
-15.1217
-15.1493
-15.152
-15.1294
-15.0817
-15.0088
-14.9108
-14.7879
-14.6403
-14.4685
-14.2728
-14.0537
-13.8116
-13.5471
-13.2608
-12.9533
-12.6255
-12.2782
-11.9123
-11.5287
-11.1284
-10.7125
-10.2822
-9.8385
-9.38259
-8.91568
-8.43894
-7.95357
-7.46077
-6.96172
-6.4576
-5.94956
-5.43872
-4.92619
-4.41302
-3.90023
-3.38881
-2.87968
-2.37372
-1.87178
-1.37462
-0.882965
-0.397494
0.0811806
0.5525
1.01596
1.47111
1.91755
2.35493
2.78296
3.2014
3.61004
4.00873
4.39737
4.77589
5.14424
5.50239
5.85033
6.18806
6.51564
6.83314
7.14067
7.43836
7.72638
8.00489
8.27408
8.53415
8.78529
9.02775
9.26174
9.48748
9.70519
9.91512
10.1175
10.3126
10.5005
10.6817
10.8563
11.0245
11.1866
11.3427
11.4932
11.6382
11.778
11.9128
12.0426
12.1679
12.2887
12.4052
12.5176
12.6261
12.7309
12.8321
12.9299
13.0244
13.1157
13.204
13.2894
13.3719
13.4518
13.5291
13.6039
13.6763
13.7465
13.8145
13.8804
13.9442
14.0062
14.0662
14.1244
14.1809
14.2357
14.2888
14.3403
14.3902
14.4387
14.4856
14.531
14.575
14.6176
14.6587
14.6985
14.7369
14.774
14.8097
14.8441
14.8772
14.9091
14.9398
14.9693
14.9979
15.0256
15.0527
15.0795
15.1064
15.1337
15.1622
15.19
15.2216
15.2277
-8.11846
-8.20687
-8.3278
-8.45051
-8.55575
-8.63617
-8.69447
-8.7365
-8.76988
-8.80439
-8.85101
-8.92002
-9.0195
-9.15425
-9.32652
-9.53531
-9.77597
-10.0429
-10.3308
-10.6339
-10.9468
-11.2647
-11.5837
-11.9002
-12.2115
-12.5154
-12.8101
-13.0939
-13.3654
-13.6232
-13.8661
-14.0931
-14.303
-14.4949
-14.6679
-14.8211
-14.9537
-15.0651
-15.1547
-15.2219
-15.2662
-15.2872
-15.2847
-15.2582
-15.2077
-15.133
-15.0341
-14.9109
-14.7636
-14.5924
-14.3977
-14.1797
-13.9389
-13.6757
-13.3908
-13.0848
-12.7584
-12.4125
-12.0479
-11.6655
-11.2664
-10.8515
-10.4221
-9.97911
-9.5238
-9.05734
-8.58091
-8.09569
-7.60288
-7.10368
-6.59925
-6.09076
-5.57933
-5.06607
-4.55204
-4.03827
-3.52574
-3.01539
-2.50811
-2.00474
-1.50605
-1.01278
-0.525603
-0.0451412
0.428042
0.893437
1.35059
1.79909
2.2386
2.6688
3.08946
3.50037
3.90135
4.2923
4.67313
5.04379
5.40423
5.75445
6.09447
6.42433
6.74411
7.05391
7.35387
7.64414
7.9249
8.19631
8.45857
8.71189
8.95647
9.19254
9.42033
9.64006
9.85197
10.0563
10.2533
10.4431
10.6261
10.8025
10.9725
11.1362
11.2941
11.4462
11.5928
11.7341
11.8704
12.0017
12.1284
12.2505
12.3684
12.4821
12.5918
12.6978
12.8002
12.8991
12.9947
13.087
13.1763
13.2626
13.3461
13.4269
13.505
13.5807
13.654
13.7249
13.7937
13.8603
13.9249
13.9875
14.0482
14.107
14.1641
14.2194
14.2731
14.3252
14.3756
14.4245
14.4719
14.5178
14.5622
14.6052
14.6467
14.6869
14.7256
14.763
14.799
14.8336
14.867
14.899
14.9298
14.9593
14.9878
15.0153
15.0419
15.068
15.0936
15.119
15.1444
15.1674
15.1917
15.1871
-7.65317
-7.75187
-7.89393
-8.04272
-8.18066
-8.29926
-8.40211
-8.49852
-8.59788
-8.70914
-8.83991
-8.9951
-9.17748
-9.38748
-9.62344
-9.88322
-10.1639
-10.4607
-10.7685
-11.0821
-11.3973
-11.7105
-12.0192
-12.3211
-12.6147
-12.8987
-13.1721
-13.434
-13.6834
-13.9196
-14.1417
-14.3488
-14.5402
-14.7149
-14.8723
-15.0114
-15.1315
-15.2319
-15.3119
-15.3709
-15.4083
-15.4236
-15.4164
-15.3862
-15.3329
-15.2561
-15.1557
-15.0316
-14.884
-14.7129
-14.5184
-14.301
-14.0609
-13.7987
-13.5148
-13.2099
-12.8847
-12.54
-12.1766
-11.7954
-11.3974
-10.9837
-10.5552
-10.1132
-9.65875
-9.19303
-8.71721
-8.2325
-7.74008
-7.24113
-6.73683
-6.22832
-5.71675
-5.20321
-4.68877
-4.17445
-3.66125
-3.1501
-2.64189
-2.13747
-1.63762
-1.14308
-0.654523
-0.172578
0.302185
0.769251
1.22816
1.6785
2.11992
2.55211
2.97481
3.38781
3.79093
4.18405
4.56707
4.93993
5.30259
5.65503
5.99728
6.32938
6.65142
6.96348
7.26569
7.55821
7.84119
8.11481
8.37927
8.63476
8.88149
9.11969
9.34958
9.57138
9.78533
9.99166
10.1906
10.3824
10.5673
10.7455
10.9173
11.0829
11.2425
11.3963
11.5445
11.6875
11.8253
11.9581
12.0863
12.2099
12.3291
12.4442
12.5553
12.6625
12.7661
12.8662
12.9629
13.0564
13.1467
13.2341
13.3186
13.4003
13.4794
13.556
13.6302
13.702
13.7715
13.8389
13.9043
13.9676
14.029
14.0885
14.1462
14.2022
14.2565
14.3091
14.3601
14.4095
14.4574
14.5038
14.5487
14.5921
14.6341
14.6746
14.7137
14.7514
14.7877
14.8226
14.8562
14.8883
14.9192
14.9487
14.977
15.0042
15.0303
15.0554
15.0796
15.1028
15.125
15.1431
15.1608
15.1469
-7.29707
-7.39059
-7.54264
-7.70836
-7.87518
-8.03611
-8.19063
-8.34664
-8.51238
-8.69367
-8.89456
-9.11627
-9.35738
-9.61703
-9.89463
-10.1879
-10.4931
-10.8058
-11.1218
-11.4375
-11.75
-12.057
-12.3566
-12.6476
-12.9288
-13.1995
-13.4588
-13.7063
-13.9412
-14.163
-14.3711
-14.5647
-14.7433
-14.9061
-15.0523
-15.1812
-15.2921
-15.3843
-15.457
-15.5096
-15.5414
-15.5519
-15.5407
-15.5072
-15.451
-15.372
-15.2699
-15.1445
-14.9959
-14.8241
-14.6292
-14.4116
-14.1716
-13.9095
-13.6259
-13.3214
-12.9968
-12.6526
-12.2899
-11.9094
-11.5122
-11.0992
-10.6716
-10.2304
-9.77678
-9.31184
-8.83679
-8.3528
-7.86106
-7.36273
-6.85898
-6.35097
-5.83979
-5.32656
-4.81234
-4.29813
-3.78493
-3.27368
-2.76525
-2.26049
-1.76018
-1.26506
-0.775808
-0.29305
0.182641
0.650748
1.11081
1.5624
2.00518
2.43882
2.86305
3.27767
3.68247
4.07734
4.46216
4.83685
5.20139
5.55575
5.89996
6.23405
6.5581
6.8722
7.17648
7.47108
7.75614
8.03186
8.2984
8.55598
8.80479
9.04506
9.27699
9.50082
9.71678
9.92509
10.126
10.3197
10.5065
10.6866
10.8602
11.0276
11.1889
11.3444
11.4944
11.6389
11.7783
11.9128
12.0424
12.1675
12.2882
12.4047
12.5171
12.6257
12.7306
12.8319
12.9298
13.0244
13.1159
13.2043
13.2899
13.3726
13.4527
13.5303
13.6053
13.678
13.7484
13.8167
13.8828
13.9469
14.009
14.0693
14.1277
14.1843
14.2392
14.2924
14.344
14.394
14.4425
14.4893
14.5347
14.5786
14.621
14.662
14.7015
14.7395
14.7761
14.8113
14.845
14.8773
14.9082
14.9377
14.9658
14.9926
15.018
15.0421
15.0647
15.0856
15.1044
15.1178
15.1294
15.1075
-7.10632
-7.19243
-7.34655
-7.51892
-7.7023
-7.89457
-8.0923
-8.29747
-8.51468
-8.74636
-8.99281
-9.254
-9.52986
-9.82002
-10.1226
-10.4343
-10.7516
-11.071
-11.3894
-11.7044
-12.0138
-12.3158
-12.6091
-12.8928
-13.166
-13.4281
-13.6785
-13.9169
-14.1427
-14.3554
-14.5545
-14.7395
-14.9098
-15.0646
-15.2034
-15.3254
-15.4299
-15.5162
-15.5836
-15.6313
-15.6589
-15.6657
-15.651
-15.6146
-15.5559
-15.4747
-15.3707
-15.2438
-15.0938
-14.9209
-14.7252
-14.5069
-14.2662
-14.0037
-13.7199
-13.4152
-13.0905
-12.7464
-12.3838
-12.0036
-11.6068
-11.1942
-10.7671
-10.3264
-9.87342
-9.40914
-8.93479
-8.45153
-7.96052
-7.46295
-6.95995
-6.45267
-5.94222
-5.42968
-4.9161
-4.40249
-3.88983
-3.37904
-2.871
-2.36655
-1.86645
-1.37145
-0.88221
-0.399361
0.0765288
0.544944
1.00542
1.45754
1.90093
2.3353
2.76037
3.1759
3.58173
3.97771
4.36372
4.73969
5.10557
5.46135
5.80703
6.14266
6.4683
6.78405
7.09003
7.38635
7.67318
7.95069
8.21905
8.47846
8.72912
8.97124
9.20502
9.43071
9.64851
9.85867
10.0614
10.2569
10.4455
10.6274
10.8027
10.9718
11.1349
11.2921
11.4436
11.5898
11.7308
11.8668
11.9979
12.1245
12.2466
12.3645
12.4783
12.5882
12.6943
12.7969
12.896
12.9918
13.0844
13.1739
13.2606
13.3443
13.4254
13.5039
13.5799
13.6535
13.7248
13.7939
13.8609
13.9258
13.9887
14.0496
14.1087
14.1661
14.2216
14.2755
14.3277
14.3783
14.4272
14.4747
14.5206
14.5649
14.6078
14.6492
14.6891
14.7275
14.7644
14.7999
14.8338
14.8662
14.8972
14.9266
14.9544
14.9807
15.0054
15.0283
15.0492
15.0677
15.0831
15.092
15.0983
15.0692
-7.07803
-7.16485
-7.31256
-7.48135
-7.66808
-7.87262
-8.09181
-8.32367
-8.56843
-8.82671
-9.09803
-9.38153
-9.67696
-9.98319
-10.2975
-10.6169
-10.9385
-11.2596
-11.5778
-11.891
-12.1975
-12.4959
-12.7851
-13.0642
-13.3327
-13.5899
-13.8354
-14.0687
-14.2894
-14.4971
-14.6912
-14.8713
-15.0368
-15.1869
-15.3212
-15.4389
-15.5394
-15.6218
-15.6856
-15.73
-15.7545
-15.7584
-15.7411
-15.7023
-15.6414
-15.5582
-15.4523
-15.3237
-15.1723
-14.9981
-14.8012
-14.5818
-14.3403
-14.0771
-13.7926
-13.4875
-13.1624
-12.8181
-12.4554
-12.0752
-11.6785
-11.2663
-10.8395
-10.3993
-9.94688
-9.48328
-9.00968
-8.52724
-8.03712
-7.54048
-7.03845
-6.53217
-6.02274
-5.51122
-4.99865
-4.48604
-3.97435
-3.46449
-2.95733
-2.4537
-1.95437
-1.46005
-0.971424
-0.489098
-0.0136358
0.454451
0.914702
1.36671
1.81011
2.24458
2.66986
3.08572
3.49197
3.88846
4.27507
4.65174
5.0184
5.37505
5.72168
6.05834
6.3851
6.70203
7.00924
7.30688
7.59507
7.87399
8.1438
8.4047
8.65688
8.90055
9.13591
9.36318
9.58259
9.79436
9.99871
10.1959
10.3861
10.5695
10.7465
10.9172
11.0818
11.2405
11.3936
11.5413
11.6838
11.8212
11.9538
12.0818
12.2053
12.3245
12.4396
12.5508
12.6582
12.7619
12.8622
12.9592
13.0529
13.1435
13.2312
13.316
13.3981
13.4776
13.5545
13.629
13.7012
13.7711
13.8389
13.9046
13.9682
14.03
14.0898
14.1478
14.204
14.2585
14.3113
14.3625
14.4121
14.46
14.5065
14.5513
14.5947
14.6365
14.6768
14.7156
14.7528
14.7885
14.8227
14.8552
14.8862
14.9155
14.943
14.9688
14.9926
15.0143
15.0335
15.0495
15.0617
15.0664
15.0677
15.0326
-7.18859
-7.26696
-7.39793
-7.55383
-7.73247
-7.93356
-8.15438
-8.39235
-8.64584
-8.91351
-9.19372
-9.48533
-9.78742
-10.098
-10.4147
-10.7347
-11.0558
-11.3755
-11.6917
-12.0027
-12.3068
-12.6029
-12.8898
-13.1668
-13.4332
-13.6885
-13.932
-14.1635
-14.3823
-14.588
-14.7802
-14.9583
-15.1217
-15.2697
-15.4019
-15.5174
-15.6157
-15.6959
-15.7575
-15.7998
-15.8222
-15.824
-15.8047
-15.764
-15.7012
-15.6162
-15.5087
-15.3785
-15.2257
-15.0501
-14.8519
-14.6315
-14.389
-14.1249
-13.8397
-13.5341
-13.2086
-12.8641
-12.5013
-12.1212
-11.7247
-11.3128
-10.8866
-10.4471
-9.99546
-9.53278
-9.06021
-8.57891
-8.09002
-7.59469
-7.09404
-6.58919
-6.08122
-5.5712
-5.06016
-4.54906
-4.03887
-3.53049
-3.02476
-2.52251
-2.02449
-1.53141
-1.04393
-0.562669
-0.0881768
0.379038
0.838521
1.28986
1.7327
2.16673
2.59167
3.0073
3.41343
3.80991
4.19662
4.57348
4.94044
5.29747
5.6446
5.98185
6.30927
6.62696
6.93502
7.23357
7.52275
7.80271
8.07364
8.3357
8.58909
8.834
9.07066
9.29925
9.52001
9.73315
9.93889
10.1375
10.3291
10.514
10.6923
10.8644
11.0304
11.1906
11.3451
11.4942
11.638
11.7768
11.9108
12.04
12.1648
12.2853
12.4017
12.5141
12.6227
12.7276
12.829
12.9271
13.0219
13.1136
13.2023
13.2881
13.3711
13.4516
13.5294
13.6048
13.6778
13.7486
13.8172
13.8837
13.9481
14.0105
14.0711
14.1298
14.1867
14.2418
14.2953
14.347
14.3972
14.4457
14.4926
14.538
14.5818
14.6241
14.6648
14.704
14.7415
14.7775
14.8119
14.8445
14.8755
14.9046
14.9319
14.9571
14.98
15.0005
15.0179
15.0315
15.0406
15.0413
15.0381
14.9978
-7.3649
-7.42949
-7.54042
-7.67886
-7.84269
-8.03142
-8.24272
-8.47391
-8.72253
-8.98626
-9.26288
-9.55121
-9.85003
-10.1571
-10.4701
-10.7865
-11.1041
-11.4206
-11.7341
-12.0429
-12.3455
-12.6405
-12.9269
-13.2037
-13.4703
-13.726
-13.9701
-14.2021
-14.4215
-14.6278
-14.8203
-14.9986
-15.1621
-15.31
-15.4418
-15.5567
-15.6542
-15.7336
-15.7941
-15.8352
-15.8562
-15.8566
-15.8359
-15.7936
-15.7294
-15.6429
-15.5339
-15.4023
-15.2481
-15.0713
-14.872
-14.6505
-14.4072
-14.1424
-13.8567
-13.5507
-13.2251
-12.8806
-12.518
-12.1383
-11.7424
-11.3313
-10.9061
-10.4677
-10.0174
-9.55613
-9.08515
-8.60555
-8.11848
-7.62506
-7.1264
-6.6236
-6.11772
-5.60982
-5.10089
-4.59193
-4.08385
-3.57756
-3.07388
-2.57361
-2.07751
-1.58628
-1.10057
-0.620979
-0.148054
0.317702
0.77584
1.22595
1.66769
2.10073
2.52481
2.9397
3.34522
3.7412
4.12754
4.50414
4.87096
5.22797
5.57518
5.91262
6.24034
6.55842
6.86697
7.16609
7.45593
7.73664
8.00837
8.27131
8.52564
8.77155
9.00924
9.23893
9.46081
9.67511
9.88205
10.0818
10.2747
10.4608
10.6405
10.8138
10.9811
11.1426
11.2984
11.4487
11.5938
11.7339
11.869
11.9996
12.1256
12.2473
12.3648
12.4784
12.5881
12.6941
12.7966
12.8957
12.9916
13.0843
13.174
13.2608
13.3448
13.4261
13.5048
13.5811
13.655
13.7266
13.7959
13.8632
13.9284
13.9915
14.0528
14.1122
14.1697
14.2255
14.2796
14.332
14.3827
14.4318
14.4792
14.5251
14.5694
14.6121
14.6533
14.6928
14.7307
14.767
14.8015
14.8343
14.8652
14.8942
14.9211
14.9457
14.9678
14.987
15.0027
15.014
15.0201
15.0172
15.0099
14.9651
-7.53873
-7.59023
-7.68281
-7.80339
-7.95002
-8.12216
-8.31774
-8.5344
-8.76966
-9.02098
-9.28634
-9.56461
-9.85441
-10.1535
-10.4595
-10.77
-11.0827
-11.3954
-11.7063
-12.0136
-12.3155
-12.6108
-12.8983
-13.1768
-13.4455
-13.7036
-13.9502
-14.1849
-14.4068
-14.6155
-14.8102
-14.9904
-15.1554
-15.3046
-15.4373
-15.5529
-15.6507
-15.73
-15.7902
-15.8308
-15.8511
-15.8506
-15.8288
-15.7854
-15.72
-15.6323
-15.5221
-15.3894
-15.2341
-15.0563
-14.8562
-14.6341
-14.3902
-14.1252
-13.8394
-13.5335
-13.2082
-12.8642
-12.5024
-12.1237
-11.7291
-11.3194
-10.8957
-10.4592
-10.0109
-9.5518
-9.08314
-8.60601
-8.12152
-7.63077
-7.13488
-6.6349
-6.1319
-5.6269
-5.12088
-4.61482
-4.10961
-3.60616
-3.10526
-2.60771
-2.11424
-1.62555
-1.14227
-0.664998
-0.194274
0.26941
0.725607
1.17392
1.61399
2.04551
2.46821
2.88186
3.28628
3.68131
4.06682
4.44274
4.80901
5.16561
5.51253
5.8498
6.17747
6.49562
6.80434
7.10374
7.39396
7.67513
7.94741
8.21098
8.46601
8.7127
8.95122
9.18179
9.40462
9.6199
9.82786
10.0287
10.2226
10.4099
10.5907
10.7652
10.9336
11.0962
11.2532
11.4047
11.551
11.6922
11.8286
11.9603
12.0874
12.2102
12.3289
12.4436
12.5544
12.6615
12.765
12.8651
12.962
13.0557
13.1463
13.2341
13.319
13.4012
13.4808
13.5579
13.6326
13.705
13.7752
13.8432
13.9091
13.973
14.035
14.095
14.1533
14.2097
14.2644
14.3173
14.3686
14.4183
14.4663
14.5127
14.5575
14.6007
14.6422
14.6821
14.7204
14.7569
14.7917
14.8246
14.8555
14.8843
14.9109
14.935
14.9562
14.9741
14.9882
14.9972
15.0006
14.9943
14.9833
14.9348
-7.66554
-7.70771
-7.7849
-7.88885
-8.01808
-8.17214
-8.34928
-8.54756
-8.76495
-8.99927
-9.24911
-9.51376
-9.79179
-10.0809
-10.3787
-10.6826
-10.9905
-11.3
-11.6091
-11.9159
-12.2187
-12.5158
-12.8059
-13.0878
-13.3603
-13.6224
-13.8733
-14.1121
-14.338
-14.5504
-14.7485
-14.9318
-15.0994
-15.2507
-15.3852
-15.502
-15.6007
-15.6806
-15.741
-15.7814
-15.8014
-15.8003
-15.7778
-15.7336
-15.6673
-15.5787
-15.4677
-15.3342
-15.1782
-14.9999
-14.7995
-14.5772
-14.3334
-14.0686
-13.7834
-13.4783
-13.154
-12.8114
-12.4512
-12.0744
-11.6818
-11.2745
-10.8534
-10.4197
-9.97429
-9.51837
-9.05302
-8.57933
-8.0984
-7.61131
-7.11914
-6.62294
-6.12375
-5.62257
-5.12037
-4.61809
-4.11662
-3.61683
-3.11954
-2.6255
-2.13543
-1.65001
-1.16989
-0.695625
-0.227768
0.233202
0.686842
1.13276
1.5706
2.00005
2.42085
2.83277
3.23562
3.62923
4.0135
4.38833
4.75366
5.10947
5.45574
5.79251
6.11982
6.43773
6.74634
7.04575
7.33608
7.61748
7.89009
8.15407
8.4096
8.65686
8.89604
9.12732
9.35092
9.56704
9.77587
9.97764
10.1725
10.3608
10.5426
10.7181
10.8877
11.0514
11.2094
11.362
11.5094
11.6517
11.7892
11.922
12.0502
12.1741
12.2939
12.4096
12.5214
12.6295
12.7341
12.8352
12.9331
13.0277
13.1193
13.2079
13.2937
13.3768
13.4573
13.5353
13.6108
13.684
13.7549
13.8237
13.8903
13.955
14.0176
14.0784
14.1372
14.1943
14.2496
14.3032
14.3551
14.4053
14.4538
14.5008
14.5461
14.5897
14.6317
14.672
14.7106
14.7475
14.7824
14.8154
14.8464
14.8751
14.9013
14.9248
14.9452
14.962
14.9744
14.9814
14.9822
14.9729
14.9586
14.9069
-7.72104
-7.75928
-7.82487
-7.91386
-8.02607
-8.16146
-8.31899
-8.49734
-8.69494
-8.91026
-9.14279
-9.39243
-9.65785
-9.93665
-10.2263
-10.5242
-10.828
-11.1353
-11.4438
-11.7516
-12.0565
-12.3569
-12.6511
-12.9376
-13.2152
-13.4826
-13.7388
-13.9828
-14.2136
-14.4306
-14.6329
-14.8197
-14.9905
-15.1444
-15.281
-15.3995
-15.4993
-15.5799
-15.6408
-15.6813
-15.7012
-15.6998
-15.6769
-15.6322
-15.5654
-15.4764
-15.365
-15.2313
-15.0753
-14.8971
-14.6971
-14.4754
-14.2325
-13.9689
-13.6852
-13.3819
-13.0597
-12.7195
-12.362
-11.9881
-11.5988
-11.195
-10.7776
-10.3478
-9.90661
-9.45501
-8.99413
-8.52503
-8.04879
-7.56648
-7.07914
-6.58781
-6.09349
-5.59716
-5.09977
-4.60225
-4.10546
-3.61025
-3.11742
-2.62774
-2.1419
-1.66055
-1.18432
-0.713792
-0.249488
0.208111
0.658568
1.10149
1.53653
1.96338
2.38176
2.79145
3.19226
3.58403
3.96664
4.33998
4.704
5.05867
5.40397
5.73993
6.06658
6.38398
6.69222
6.99139
7.28161
7.56302
7.83574
8.09995
8.3558
8.60347
8.84314
9.075
9.29924
9.51606
9.72565
9.92823
10.124
10.3131
10.4959
10.6724
10.8429
11.0076
11.1667
11.3203
11.4687
11.6121
11.7506
11.8845
12.0138
12.1387
12.2595
12.3762
12.4891
12.5982
12.7038
12.8059
12.9046
13.0002
13.0927
13.1823
13.269
13.3529
13.4343
13.513
13.5894
13.6634
13.7351
13.8046
13.872
13.9373
14.0007
14.0621
14.1216
14.1793
14.2353
14.2895
14.3419
14.3927
14.4419
14.4893
14.5351
14.5793
14.6217
14.6625
14.7014
14.7386
14.7738
14.807
14.8379
14.8665
14.8925
14.9155
14.9351
14.9507
14.9616
14.9667
14.9651
14.9531
14.9358
14.8815
-7.7067
-7.74138
-7.7982
-7.87335
-7.96835
-8.08404
-8.22043
-8.37716
-8.55344
-8.74858
-8.963
-9.19722
-9.45003
-9.71897
-10.0013
-10.2944
-10.5955
-10.9022
-11.2118
-11.5221
-11.8308
-12.1358
-12.4353
-12.7276
-13.0112
-13.2847
-13.5468
-13.7964
-14.0325
-14.2543
-14.4608
-14.6513
-14.8252
-14.9817
-15.1203
-15.2404
-15.3414
-15.4228
-15.4842
-15.525
-15.545
-15.5436
-15.5207
-15.4759
-15.4092
-15.3204
-15.2093
-15.0762
-14.9209
-14.7438
-14.5451
-14.3251
-14.0843
-13.8231
-13.542
-13.2417
-12.923
-12.5865
-12.233
-11.8635
-11.4788
-11.0798
-10.6676
-10.2431
-9.80737
-9.36143
-8.90634
-8.44314
-7.97288
-7.49659
-7.01529
-6.53
-6.04169
-5.55133
-5.05983
-4.5681
-4.07699
-3.58732
-3.09988
-2.61542
-2.13464
-1.65817
-1.18662
-0.720554
-0.260493
0.193082
0.639733
1.07907
1.51075
1.93446
2.34992
2.75692
3.15525
3.54475
3.9253
4.29679
4.65915
5.01236
5.35638
5.69124
6.01697
6.33361
6.64124
6.93996
7.22987
7.51109
7.78375
8.04802
8.30404
8.55197
8.79201
9.02431
9.24908
9.46649
9.67675
9.88005
10.0766
10.2665
10.4501
10.6275
10.799
10.9646
11.1247
11.2793
11.4288
11.5732
11.7127
11.8475
11.9779
12.1038
12.2256
12.3433
12.4572
12.5673
12.6738
12.7769
12.8766
12.9731
13.0665
13.157
13.2446
13.3294
13.4116
13.4912
13.5683
13.6431
13.7156
13.7858
13.854
13.92
13.9841
14.0462
14.1064
14.1648
14.2213
14.2762
14.3292
14.3806
14.4303
14.4783
14.5247
14.5693
14.6122
14.6534
14.6928
14.7303
14.7658
14.7991
14.8302
14.8587
14.8844
14.9069
14.9258
14.9404
14.95
14.9533
14.9496
14.9352
14.9152
14.8587
-7.64303
-7.66877
-7.71491
-7.77353
-7.84828
-7.94115
-8.05336
-8.18581
-8.33872
-8.51236
-8.70814
-8.92707
-9.16799
-9.42821
-9.70474
-9.99461
-10.2949
-10.6025
-10.9149
-11.2291
-11.5428
-11.8535
-12.1591
-12.4577
-12.7476
-13.0272
-13.2951
-13.5502
-13.7913
-14.0175
-14.2279
-14.4217
-14.5984
-14.7572
-14.8976
-15.0192
-15.1213
-15.2036
-15.2656
-15.307
-15.3274