/*--------------------------------*- C++ -*----------------------------------*\
| =========                 |                                                 |
| \\      /  F ield         | OpenFOAM: The Open Source CFD Toolbox           |
|  \\    /   O peration     | Version:  v2012                                 |
|   \\  /    A nd           | Website:  www.openfoam.com                      |
|    \\/     M anipulation  |                                                 |
\*---------------------------------------------------------------------------*/
FoamFile
{
    version     2.0;
    format      ascii;
    class       volScalarField;
    location    "300";
    object      k;
}
// * * * * * * * * * * * * * * * * * * * * * * * * * * * * * * * * * * * * * //

dimensions      [0 2 -2 0 0 0 0];


internalField   nonuniform List<scalar> 
12225
(
0.539758
0.830556
1.02512
1.12799
1.17802
1.18007
1.17195
1.15289
1.12614
1.09853
1.07224
1.04716
1.02551
1.0042
0.988358
0.969921
0.960836
0.943461
0.433739
0.4907
0.506197
0.513189
0.520413
0.530824
0.539429
0.552612
0.562499
0.577318
0.587737
0.603675
0.614102
0.630581
0.640371
0.656768
0.664904
0.680453
0.383095
0.4181
0.432
0.430412
0.425911
0.418343
0.410283
0.402759
0.395631
0.389543
0.384076
0.379802
0.376106
0.373621
0.371496
0.370527
0.369578
0.369923
0.374458
0.379141
0.384301
0.385935
0.385511
0.384085
0.381457
0.377725
0.374016
0.369664
0.365623
0.361231
0.35726
0.353156
0.34946
0.345825
0.342487
0.339361
0.373674
0.372569
0.372602
0.372418
0.371983
0.370901
0.369679
0.367716
0.3658
0.363356
0.361069
0.358409
0.355968
0.353268
0.350814
0.348179
0.345807
0.343309
0.373818
0.371593
0.369978
0.368521
0.367326
0.365927
0.364681
0.363141
0.361701
0.360008
0.358421
0.356635
0.35497
0.353156
0.351474
0.349684
0.348032
0.346303
0.373851
0.37155
0.369521
0.367578
0.36589
0.364212
0.362722
0.361185
0.359769
0.35829
0.356904
0.35546
0.354098
0.352693
0.351363
0.350006
0.348719
0.34742
0.373845
0.371559
0.369456
0.367425
0.365575
0.363791
0.362157
0.360565
0.359086
0.357628
0.356257
0.354899
0.353612
0.352337
0.351122
0.349922
0.348773
0.347643
0.373838
0.371561
0.369435
0.367395
0.36549
0.363668
0.361967
0.360338
0.358809
0.357339
0.355949
0.354609
0.353335
0.352103
0.350928
0.349791
0.3487
0.347646
0.373833
0.37156
0.369421
0.367383
0.365459
0.363626
0.361896
0.360249
0.35869
0.357204
0.355795
0.354449
0.35317
0.351946
0.350779
0.349662
0.348592
0.347569
0.373829
0.371558
0.369411
0.367372
0.36544
0.363603
0.361863
0.360207
0.358636
0.357141
0.355719
0.354366
0.353077
0.351849
0.350678
0.349562
0.348495
0.347477
0.373828
0.371556
0.369403
0.367361
0.365425
0.363585
0.361839
0.36018
0.358602
0.357101
0.355673
0.354314
0.353019
0.351786
0.350609
0.349489
0.348417
0.347397
0.373826
0.371553
0.369397
0.367353
0.365412
0.36357
0.36182
0.360157
0.358575
0.357071
0.355638
0.354275
0.352975
0.351737
0.350556
0.349431
0.348355
0.347331
0.373826
0.371551
0.369393
0.367346
0.365403
0.363558
0.361804
0.360138
0.358553
0.357045
0.355609
0.354242
0.352938
0.351697
0.350512
0.349383
0.348304
0.347276
0.373825
0.371549
0.36939
0.367341
0.365395
0.363548
0.361792
0.360123
0.358535
0.357024
0.355585
0.354215
0.352908
0.351664
0.350476
0.349344
0.348262
0.34723
0.373825
0.371548
0.369388
0.367337
0.36539
0.363541
0.361783
0.360111
0.358521
0.357007
0.355566
0.354193
0.352885
0.351637
0.350447
0.349312
0.348229
0.347195
0.373825
0.371548
0.369386
0.367335
0.365387
0.363536
0.361776
0.360103
0.358511
0.356996
0.355553
0.354178
0.352867
0.351618
0.350426
0.349289
0.348204
0.347168
0.373825
0.371548
0.369386
0.367334
0.365385
0.363533
0.361773
0.360099
0.358506
0.35699
0.355545
0.354169
0.352858
0.351607
0.350414
0.349276
0.34819
0.347153
0.373825
0.371548
0.369386
0.367334
0.365385
0.363534
0.361773
0.360099
0.358505
0.356989
0.355544
0.354168
0.352856
0.351605
0.350411
0.349273
0.348186
0.347149
0.373825
0.371548
0.369387
0.367335
0.365387
0.363536
0.361775
0.360101
0.358508
0.356992
0.355547
0.354171
0.352859
0.351608
0.350415
0.349276
0.34819
0.347153
0.373825
0.371549
0.369388
0.367338
0.36539
0.363539
0.36178
0.360106
0.358514
0.356998
0.355554
0.354178
0.352867
0.351616
0.350424
0.349286
0.3482
0.347163
0.373825
0.37155
0.36939
0.367341
0.365394
0.363545
0.361786
0.360114
0.358523
0.357008
0.355566
0.354191
0.352881
0.351632
0.350441
0.349304
0.348219
0.347183
0.373825
0.371551
0.369393
0.367346
0.3654
0.363554
0.361798
0.36013
0.358544
0.357034
0.355597
0.354228
0.352923
0.351678
0.350491
0.349357
0.348275
0.347239
0.373824
0.371553
0.369398
0.367359
0.365423
0.363593
0.361856
0.360213
0.35865
0.357165
0.355749
0.354399
0.353107
0.351872
0.350688
0.349553
0.348464
0.347417
0.373822
0.371557
0.369427
0.367459
0.365611
0.363894
0.362262
0.360724
0.359238
0.357817
0.356434
0.355101
0.353798
0.352537
0.351306
0.350111
0.348948
0.347817
0.373794
0.371647
0.369869
0.368362
0.366965
0.36568
0.364338
0.362992
0.361568
0.360134
0.358647
0.357165
0.355657
0.354166
0.352671
0.351203
0.349746
0.348321
0.373927
0.373394
0.37393
0.374093
0.373789
0.373083
0.371659
0.369993
0.368007
0.365949
0.363742
0.361528
0.359262
0.35702
0.354785
0.352588
0.350438
0.348331
0.37939
0.388539
0.399858
0.400184
0.398855
0.395833
0.391609
0.387494
0.383144
0.379113
0.375088
0.371343
0.367759
0.364361
0.361256
0.358229
0.355606
0.352949
0.40165
0.430881
0.435968
0.435404
0.434522
0.434937
0.435887
0.438484
0.441366
0.445652
0.449823
0.454829
0.45966
0.464802
0.470029
0.474984
0.480433
0.48506
0.448447
0.585983
0.701
0.786857
0.852563
0.895036
0.928655
0.952817
0.970557
0.981154
0.987955
0.989596
0.98869
0.986247
0.981609
0.975653
0.968888
0.961545
3.94808e-06
3.07199e-05
7.72505e-05
0.000143281
0.00021119
0.00026402
0.000322361
0.000435595
0.000621793
0.000912133
0.00127767
0.00165043
0.00202307
0.00234792
0.00262682
0.00283575
0.00295424
0.00300618
0.00299487
0.00288994
0.00271192
0.00232864
0.00178392
0.00113417
0.000536086
0.000164824
3.68363e-05
2.50186e-05
2.85756e-05
3.50251e-05
4.49324e-05
5.89836e-05
7.15099e-05
7.77102e-05
8.74776e-05
0.000141333
0.00027216
0.000479706
0.000622866
0.000671087
0.000662838
0.000632774
0.000597992
0.000652885
0.000905644
0.00125106
0.00147419
0.00179212
0.00268237
0.0102018
0.0265302
0.0434437
0.0586729
0.0723268
0.0845375
0.0955407
0.105531
0.114691
0.12317
0.131099
0.138589
0.14578
0.152769
0.15935
0.165651
0.171672
0.177496
0.18313
0.188628
0.193994
0.199265
0.204451
0.209567
0.214627
0.219633
0.224599
0.229523
0.234414
0.239268
0.244092
0.248881
0.253637
0.258355
0.263036
0.267673
0.272265
0.276806
0.281292
0.285717
0.290076
0.294365
0.298578
0.302714
0.306773
0.310759
0.314681
0.318558
0.322422
0.326228
0.329946
0.333599
0.33717
0.340663
0.344071
0.34739
0.350615
0.353744
0.35677
0.35969
0.362499
0.365193
0.367768
0.370219
0.372542
0.374733
0.376787
0.378702
0.380472
0.382094
0.383565
0.384881
0.386039
0.387037
0.387872
0.388544
0.389051
0.389393
0.389569
0.389571
0.389369
0.389146
0.388308
0.387672
0.38657
0.385522
0.384221
0.382775
0.38114
0.379341
0.377368
0.375228
0.372906
0.370433
0.367798
0.364968
0.362062
0.358968
0.355759
0.352411
0.348942
0.345355
0.341657
0.337855
0.333958
0.329974
0.32591
0.321773
0.317574
0.31332
0.309018
0.304676
0.300301
0.295901
0.291482
0.287049
0.282611
0.278175
0.273743
0.269318
0.264913
0.260787
0.258695
0.258072
0.257446
0.256638
0.255541
0.253892
0.251248
0.247328
0.222336
2.03472e-05
1.15392e-05
3.41584e-05
7.43762e-05
0.000154844
0.000396876
0.000875527
0.00168229
0.00269155
0.00377121
0.00489145
0.00584041
0.00665305
0.00716128
0.00753184
0.00752651
0.00745218
0.00719809
0.0067717
0.006118
0.00533808
0.00437461
0.00340248
0.0024645
0.00159661
0.000915221
0.00046982
0.000229646
0.000114637
6.33138e-05
4.10779e-05
3.37271e-05
4.66121e-05
0.000133494
0.00026145
0.000861101
0.00175678
0.00294912
0.00354335
0.00353124
0.00330231
0.00297096
0.00301535
0.00355686
0.00523073
0.008924
0.0153997
0.0244812
0.0371359
0.0548767
0.0755007
0.0951669
0.114468
0.133671
0.153261
0.17333
0.193928
0.214875
0.235993
0.257075
0.277252
0.296594
0.314962
0.332474
0.349155
0.365137
0.380506
0.395343
0.409762
0.423814
0.437579
0.451146
0.464527
0.477805
0.490982
0.504115
0.517206
0.53029
0.543371
0.556468
0.569584
0.582727
0.595897
0.609097
0.622322
0.63557
0.648833
0.662102
0.675365
0.68861
0.701819
0.714973
0.728049
0.741023
0.753868
0.766559
0.779069
0.791391
0.803639
0.815865
0.82803
0.840151
0.852206
0.864193
0.876098
0.887913
0.899626
0.911226
0.922701
0.934042
0.945234
0.956268
0.96713
0.977808
0.988289
0.998561
1.00861
1.01843
1.02799
1.0373
1.04633
1.05508
1.06352
1.07166
1.07947
1.08694
1.09407
1.10083
1.10723
1.11324
1.11887
1.12407
1.12889
1.13326
1.13724
1.14077
1.14388
1.14655
1.14878
1.15058
1.15196
1.15282
1.15323
1.15327
1.1526
1.15175
1.1504
1.14864
1.14647
1.1439
1.14093
1.13759
1.13388
1.12982
1.12542
1.12071
1.11569
1.11038
1.10481
1.099
1.09295
1.0867
1.08026
1.07365
1.06688
1.05997
1.05294
1.0458
1.03854
1.03116
1.02362
1.01599
1.00808
0.999759
0.991004
0.981747
0.971463
0.960366
0.946731
0.898911
2.63553e-05
8.55802e-06
3.07008e-05
0.000122503
0.000361658
0.00107213
0.00217143
0.00375086
0.00530533
0.00691651
0.00842871
0.009638
0.0106413
0.0112975
0.011676
0.0116477
0.011519
0.0111786
0.0106676
0.0100452
0.00925561
0.00839141
0.00728028
0.00604945
0.00466345
0.00336723
0.0020785
0.00119607
0.000669097
0.000377374
0.000228883
0.000152914
0.000122078
0.000409132
0.000792567
0.00243099
0.00470153
0.00719708
0.0080741
0.00900807
0.010098
0.0105661
0.0140285
0.0215359
0.0315024
0.0456957
0.0668662
0.0902454
0.116696
0.145193
0.175355
0.208486
0.244564
0.282558
0.32159
0.360398
0.398046
0.433725
0.466986
0.497594
0.526181
0.552957
0.578104
0.60186
0.62444
0.646048
0.666852
0.686987
0.706607
0.725803
0.744675
0.76329
0.781707
0.799978
0.818139
0.836225
0.85426
0.872265
0.890255
0.908242
0.926234
0.944237
0.962254
0.980285
0.998329
1.01638
1.03445
1.05251
1.07056
1.08861
1.10664
1.12464
1.14262
1.16056
1.17847
1.19634
1.21418
1.23199
1.24976
1.26746
1.28508
1.30259
1.32
1.33728
1.35442
1.37141
1.38822
1.40485
1.42128
1.43748
1.45346
1.46917
1.48462
1.49979
1.51464
1.52918
1.54338
1.55721
1.57067
1.58374
1.59639
1.60861
1.62039
1.63169
1.64252
1.65284
1.66265
1.67192
1.68065
1.68881
1.69639
1.70337
1.70976
1.71553
1.72068
1.7252
1.72909
1.73233
1.73494
1.7369
1.73811
1.73867
1.73878
1.73813
1.73678
1.73484
1.73226
1.72906
1.72526
1.72087
1.71592
1.71042
1.70439
1.69784
1.69081
1.6833
1.67536
1.66699
1.65823
1.64911
1.63964
1.62987
1.6198
1.60948
1.59893
1.58816
1.57722
1.56612
1.55487
1.54347
1.53189
1.52013
1.50811
1.49575
1.48301
1.46985
1.45591
1.44148
1.42526
1.38154
2.86669e-05
1.72131e-05
0.000101752
0.000473932
0.0012753
0.00312919
0.00542872
0.0081313
0.0104902
0.013005
0.0148867
0.0161972
0.0167788
0.0167692
0.0165503
0.0161742
0.0156386
0.0150266
0.0143213
0.0135371
0.0126519
0.0116811
0.0105828
0.00935583
0.00800523
0.00651519
0.00509146
0.0035631
0.00232374
0.00140829
0.000898503
0.000627708
0.000664188
0.00133898
0.0033535
0.00885584
0.0140389
0.0194199
0.0192661
0.0208169
0.027291
0.0369292
0.0537988
0.0719345
0.0953094
0.122828
0.153268
0.186949
0.225556
0.266502
0.310184
0.354992
0.400281
0.444953
0.488536
0.530492
0.570578
0.608636
0.644662
0.678761
0.711126
0.741889
0.771238
0.799339
0.826352
0.852444
0.877755
0.902418
0.926546
0.950234
0.973567
0.996615
1.01944
1.04209
1.06461
1.08703
1.10938
1.13169
1.15397
1.17624
1.19851
1.22078
1.24307
1.26537
1.28768
1.31001
1.33234
1.35469
1.37704
1.39939
1.42173
1.44406
1.46638
1.48868
1.51096
1.53319
1.55538
1.57751
1.59956
1.62151
1.64334
1.66504
1.68658
1.70795
1.72913
1.7501
1.77084
1.79133
1.81156
1.8315
1.85114
1.87044
1.88939
1.90798
1.92617
1.94395
1.96129
1.97817
1.99458
2.01048
2.02586
2.04069
2.05495
2.06863
2.08169
2.09413
2.10591
2.11702
2.12745
2.13716
2.14615
2.15439
2.16188
2.16861
2.17455
2.17971
2.18408
2.18764
2.19039
2.19231
2.19329
2.19364
2.19328
2.19199
2.18988
2.18698
2.1833
2.17886
2.17366
2.16774
2.1611
2.15378
2.14578
2.13715
2.1279
2.11806
2.10765
2.09672
2.08529
2.07339
2.06106
2.04832
2.03522
2.02179
2.00806
1.99406
1.97982
1.96538
1.95076
1.93597
1.92101
1.90589
1.89055
1.87499
1.85916
1.84307
1.82653
1.80987
1.7925
1.75343
3.76703e-05
6.30782e-05
0.000387655
0.00139282
0.00387278
0.00771944
0.0117057
0.0156308
0.0186
0.0200714
0.0202834
0.02003
0.0195558
0.0189065
0.0182562
0.0176253
0.0170193
0.0164179
0.0157918
0.0151248
0.0143899
0.0135661
0.0126235
0.011549
0.0103278
0.00897945
0.00750524
0.00613533
0.00451934
0.00332909
0.00240366
0.00200293
0.002641
0.0067217
0.0178718
0.0295804
0.0318928
0.0371877
0.045497
0.0559264
0.0715523
0.0904326
0.113399
0.141667
0.174483
0.211833
0.252718
0.296975
0.343141
0.389987
0.437145
0.483825
0.529842
0.574896
0.618876
0.661623
0.703042
0.743062
0.781658
0.818853
0.854696
0.889239
0.922582
0.954826
0.986084
1.01647
1.0461
1.07507
1.10349
1.13144
1.15899
1.18623
1.21321
1.23998
1.2666
1.29309
1.3195
1.34584
1.37215
1.39843
1.4247
1.45098
1.47726
1.50356
1.52987
1.55619
1.58253
1.60887
1.63523
1.66158
1.68793
1.71426
1.74057
1.76685
1.79309
1.81926
1.84536
1.87137
1.89726
1.92302
1.94864
1.97408
1.99933
2.02436
2.04916
2.0737
2.09796
2.12191
2.14554
2.16882
2.19173
2.21424
2.23632
2.25796
2.27912
2.29979
2.31993
2.33952
2.35854
2.37696
2.39475
2.41189
2.42835
2.44411
2.45915
2.47343
2.48695
2.49967
2.51157
2.52264
2.53285
2.54218
2.55063
2.55817
2.56479
2.57049
2.57525
2.57906
2.58193
2.58376
2.58457
2.58467
2.58379
2.58189
2.57903
2.57524
2.57053
2.56492
2.55842
2.55106
2.54286
2.53384
2.52403
2.51345
2.50215
2.49014
2.47746
2.46415
2.45025
2.43578
2.4208
2.40533
2.38942
2.3731
2.35642
2.33941
2.32212
2.30459
2.28683
2.2689
2.25081
2.23257
2.21419
2.19567
2.17701
2.15828
2.13939
2.12074
2.10205
2.06594
2.46044e-05
0.000207248
0.00121683
0.00410134
0.0100054
0.0159564
0.020696
0.0226413
0.022967
0.0226607
0.0217998
0.0208835
0.0200215
0.0192165
0.0184779
0.017808
0.0172034
0.0166419
0.0161086
0.0155809
0.0150188
0.0143871
0.0136466
0.0127699
0.0117292
0.0105145
0.00914905
0.00775728
0.00711588
0.00537503
0.0041004
0.00605663
0.0168084
0.0409575
0.0574693
0.0632886
0.0657347
0.072286
0.0834111
0.099739
0.122461
0.150069
0.18304
0.221033
0.262914
0.307529
0.353797
0.400903
0.448004
0.494833
0.541283
0.587246
0.632742
0.67772
0.72213
0.765875
0.808855
0.850975
0.892152
0.932326
0.971473
1.0096
1.04672
1.0829
1.11819
1.15267
1.18642
1.21953
1.25207
1.28413
1.31577
1.34706
1.37807
1.40885
1.43945
1.4699
1.50024
1.53051
1.56073
1.59091
1.62108
1.65124
1.68141
1.71159
1.74178
1.77199
1.80221
1.83244
1.86266
1.89289
1.9231
1.95329
1.98344
2.01353
2.04357
2.07351
2.10335
2.13308
2.16266
2.19208
2.22131
2.25034
2.27914
2.30768
2.33595
2.3639
2.39152
2.41879
2.44567
2.47214
2.49816
2.52373
2.54879
2.57333
2.59733
2.62074
2.64354
2.6657
2.68719
2.70799
2.72806
2.74737
2.7659
2.78363
2.80051
2.81653
2.83166
2.84588
2.85915
2.87147
2.8828
2.89313
2.90243
2.9107
2.91792
2.92408
2.92916
2.93317
2.93609
2.93781
2.93846
2.93819
2.93678
2.93424
2.93062
2.92592
2.92018
2.9134
2.9056
2.89682
2.88707
2.87638
2.86478
2.85231
2.83899
2.82487
2.80997
2.79434
2.77802
2.76106
2.74348
2.72535
2.7067
2.68757
2.66803
2.6481
2.62784
2.60729
2.58651
2.56552
2.54438
2.52311
2.50176
2.48035
2.45893
2.4376
2.41637
2.39564
2.37511
2.34076
0.0001005
0.000748129
0.00356712
0.0109967
0.0195334
0.0246499
0.0261145
0.0259772
0.0247502
0.0233196
0.0220288
0.0208722
0.0198293
0.0189231
0.0181531
0.0175031
0.0169537
0.0164823
0.0160504
0.0156248
0.0151938
0.014722
0.0141775
0.0135222
0.0127504
0.0119017
0.0108225
0.00933125
0.00814397
0.00892675
0.0139194
0.0311936
0.0644234
0.0809269
0.085614
0.0865132
0.0919821
0.105365
0.124686
0.150716
0.182475
0.219246
0.260344
0.304141
0.349539
0.395605
0.441851
0.487947
0.533764
0.579365
0.62482
0.670185
0.715501
0.760762
0.805915
0.850868
0.8955
0.939684
0.983311
1.02628
1.06853
1.11
1.15068
1.19057
1.2297
1.26809
1.30582
1.34293
1.37949
1.41557
1.45122
1.48651
1.5215
1.55624
1.59078
1.62516
1.65942
1.69358
1.72769
1.76175
1.79579
1.82982
1.86385
1.89789
1.93194
1.966
2.00007
2.03415
2.06822
2.10227
2.13631
2.1703
2.20424
2.23811
2.27189
2.30557
2.33911
2.3725
2.40573
2.43876
2.47157
2.50414
2.53644
2.56844
2.60012
2.63143
2.66236
2.69288
2.72295
2.75254
2.78163
2.81018
2.83816
2.86554
2.89228
2.91836
2.94374
2.96839
2.99228
3.01537
3.03764
3.05905
3.07956
3.09916
3.11781
3.13547
3.15213
3.16775
3.18231
3.19579
3.20815
3.21939
3.22947
3.23839
3.24612
3.25266
3.25799
3.26211
3.26501
3.26657
3.267
3.26627
3.26429
3.26106
3.25661
3.25097
3.24414
3.23616
3.22703
3.2168
3.20548
3.1931
3.1797
3.16532
3.14998
3.13373
3.11661
3.09867
3.07994
3.06048
3.04033
3.01954
2.99816
2.97624
2.95384
2.93101
2.9078
2.88427
2.86047
2.83645
2.81228
2.78801
2.76369
2.73939
2.71519
2.69121
2.66754
2.64455
2.62188
2.58809
0.000951022
0.00241511
0.00899195
0.0210875
0.0274568
0.0289499
0.0284479
0.0268096
0.0248928
0.0231377
0.0215786
0.0202731
0.0192145
0.0183654
0.0176815
0.017125
0.0166655
0.0162741
0.0159204
0.0155664
0.0151685
0.0147134
0.0141821
0.0135409
0.0126998
0.0113884
0.0103608
0.00905057
0.0105689
0.0211952
0.0486115
0.081134
0.0958317
0.0996881
0.100587
0.10811
0.123723
0.146342
0.175252
0.210059
0.249131
0.291202
0.33507
0.379658
0.424479
0.469229
0.513855
0.558369
0.602866
0.647476
0.692306
0.737429
0.782886
0.828669
0.874714
0.920916
0.967157
1.01331
1.05923
1.10482
1.14995
1.19457
1.23859
1.28201
1.32479
1.36696
1.40854
1.44955
1.49006
1.53009
1.56972
1.60899
1.64795
1.68665
1.72514
1.76346
1.80165
1.83973
1.87775
1.91572
1.95365
1.99158
2.0295
2.06742
2.10534
2.14328
2.18121
2.21915
2.25707
2.29496
2.33282
2.37063
2.40837
2.44601
2.48355
2.52095
2.55819
2.59526
2.63212
2.66876
2.70514
2.74123
2.77701
2.81245
2.84751
2.88216
2.91636
2.95009
2.98331
3.01598
3.04808
3.07956
3.11039
3.14054
3.16997
3.19865
3.22653
3.25359
3.27979
3.3051
3.32947
3.35287
3.37528
3.39665
3.41696
3.43617
3.45425
3.47118
3.48692
3.50145
3.51475
3.52679
3.53755
3.54701
3.55515
3.56197
3.56746
3.5716
3.57438
3.57572
3.57582
3.57456
3.57193
3.56793
3.56259
3.55593
3.54797
3.53873
3.52822
3.51649
3.50356
3.48946
3.47423
3.4579
3.44053
3.42214
3.40278
3.38251
3.36137
3.3394
3.31667
3.29323
3.26912
3.24442
3.21916
3.19343
3.16727
3.14076
3.11394
3.0869
3.05969
3.03241
3.00511
2.97789
2.95086
2.92417
2.89792
2.87249
2.84746
2.81333
0.00323121
0.00582252
0.0183226
0.0290622
0.0322184
0.0317988
0.0298456
0.0271238
0.0246585
0.0225918
0.0209639
0.0197124
0.0187477
0.0179931
0.0173914
0.0169014
0.0164906
0.0161307
0.0157897
0.0154306
0.0150112
0.0145104
0.0139848
0.0134946
0.0132439
0.0135943
0.0152501
0.0213679
0.0356984
0.0649117
0.0912452
0.103704
0.108071
0.110201
0.120785
0.138881
0.164218
0.195768
0.232215
0.27208
0.313887
0.356689
0.399836
0.442968
0.486018
0.529003
0.572025
0.615216
0.658722
0.702674
0.747177
0.792306
0.838085
0.884486
0.931449
0.978881
1.02666
1.07466
1.12274
1.17077
1.21861
1.26617
1.31337
1.36014
1.40644
1.45225
1.49758
1.54242
1.58681
1.63077
1.67435
1.7176
1.76054
1.80323
1.8457
1.888
1.93016
1.97221
2.01419
2.05611
2.09799
2.13985
2.1817
2.22355
2.26539
2.30723
2.34907
2.39089
2.43269
2.47445
2.51615
2.55779
2.59933
2.64076
2.68206
2.72319
2.76413
2.80487
2.84536
2.88558
2.92551
2.9651
3.00433
3.04316
3.08156
3.11949
3.15691
3.19379
3.23008
3.26576
3.30079
3.33512
3.36871
3.40154
3.43355
3.46472
3.495
3.52436
3.55275
3.58014
3.60649
3.63176
3.65593
3.67894
3.70077
3.72139
3.74075
3.75884
3.77562
3.79106
3.80514
3.81784
3.82914
3.839
3.84743
3.8544
3.8599
3.86393
3.86648
3.86752
3.86715
3.86527
3.86189
3.85704
3.85073
3.84298
3.83381
3.82325
3.81131
3.79803
3.78345
3.76759
3.7505
3.73222
3.71278
3.69224
3.67064
3.64804
3.62448
3.60002
3.57472
3.54863
3.52181
3.49434
3.46625
3.43764
3.40855
3.37907
3.34926
3.31921
3.28899
3.25869
3.22841
3.19826
3.16837
3.1389
3.10997
3.08195
3.0544
3.01929
0.00621632
0.010943
0.0276252
0.0355668
0.0361699
0.0339787
0.0304717
0.0271207
0.0243342
0.0221871
0.0205943
0.0194115
0.0185111
0.0177997
0.0172127
0.016711
0.0162712
0.0158658
0.0154816
0.0151074
0.0147386
0.0144131
0.0141997
0.0142776
0.0154879
0.0193088
0.0289256
0.0498087
0.0768182
0.0971375
0.106888
0.111548
0.117667
0.130017
0.151401
0.178798
0.212127
0.249181
0.288712
0.329489
0.370765
0.41215
0.453477
0.494725
0.535991
0.577411
0.619142
0.661339
0.704147
0.747694
0.792077
0.837352
0.883528
0.930587
0.978472
1.0271
1.07635
1.12609
1.17619
1.22651
1.27691
1.32726
1.37748
1.42746
1.47715
1.5265
1.57548
1.62409
1.67232
1.72019
1.76772
1.81494
1.86189
1.9086
1.9551
2.00142
2.04761
2.09368
2.13967
2.1856
2.23148
2.27733
2.32316
2.36898
2.41478
2.46056
2.50633
2.55206
2.59775
2.64339
2.68895
2.73441
2.77976
2.82497
2.87
2.91484
2.95946
3.00382
3.0479
3.09166
3.13507
3.1781
3.2207
3.26285
3.3045
3.34561
3.38614
3.42606
3.46532
3.50388
3.5417
3.57874
3.61496
3.65031
3.68475
3.71825
3.75076
3.78224
3.81264
3.84194
3.87009
3.89705
3.92278
3.94724
3.9704
3.99223
4.01268
4.03174
4.04936
4.06552
4.0802
4.09337
4.10502
4.11511
4.12364
4.13059
4.13595
4.13971
4.14187
4.14244
4.14148
4.13886
4.13462
4.12881
4.12142
4.11249
4.10203
4.09007
4.07664
4.06176
4.04548
4.02783
4.00885
3.98858
3.96707
3.94437
3.92053
3.8956
3.86964
3.84271
3.81486
3.78616
3.75667
3.72645
3.69559
3.66413
3.63217
3.59977
3.56702
3.53401
3.50082
3.46755
3.43433
3.40127
3.36851
3.33624
3.30458
3.27389
3.24372
3.20723
0.00867728
0.017782
0.0360457
0.0410984
0.0397119
0.0356644
0.0311727
0.0272415
0.0242265
0.0220376
0.0204585
0.0193005
0.0184232
0.017734
0.0171778
0.0167093
0.0162984
0.015941
0.0156725
0.015558
0.0155994
0.0161653
0.0177994
0.0214451
0.0291016
0.044158
0.0649996
0.0845029
0.0989357
0.10716
0.113373
0.122507
0.137921
0.161777
0.191195
0.225026
0.26195
0.30042
0.339698
0.379208
0.418719
0.458159
0.497577
0.537086
0.576844
0.617016
0.657766
0.699247
0.741599
0.78494
0.829346
0.874863
0.921507
0.969259
1.01807
1.06786
1.11852
1.16993
1.22196
1.27445
1.32727
1.3803
1.4334
1.48648
1.53945
1.59225
1.64482
1.69714
1.74917
1.80092
1.8524
1.90361
1.95459
2.00534
2.0559
2.10629
2.15655
2.2067
2.25675
2.30673
2.35665
2.40653
2.45638
2.50619
2.55597
2.60571
2.65541
2.70506
2.75463
2.80413
2.85351
2.90277
2.95188
3.0008
3.04952
3.09799
3.1462
3.19409
3.24165
3.28884
3.33561
3.38194
3.42778
3.47309
3.51783
3.56195
3.60542
3.6482
3.69022
3.73146
3.77187
3.8114
3.85001
3.88766
3.9243
3.95988
3.99437
4.02772
4.05989
4.09083
4.12052
4.14889
4.17593
4.20158
4.2258
4.24857
4.26985
4.28961
4.30782
4.32445
4.33948
4.35288
4.36463
4.37472
4.38313
4.38984
4.39485
4.39815
4.39975
4.39967
4.39798
4.39445
4.38921
4.3823
4.37373
4.36352
4.35168
4.33825
4.32326
4.30673
4.28871
4.26924
4.24835
4.2261
4.20253
4.17769
4.15163
4.12442
4.0961
4.06674
4.03641
4.00516
3.97306
3.94019
3.90661
3.87241
3.83765
3.80243
3.76683
3.73093
3.69486
3.65871
3.6226
3.58669
3.55111
3.51606
3.48166
3.44827
3.41546
3.37739
0.0101331
0.0258617
0.0432793
0.0466269
0.0435503
0.0379762
0.0323917
0.0279255
0.0247015
0.0224479
0.0208614
0.019715
0.0188694
0.0182546
0.0177636
0.0174375
0.0173013
0.0172983
0.017711
0.0186977
0.0206302
0.0243869
0.031477
0.0442472
0.0594061
0.0749411
0.088071
0.0982871
0.106288
0.115008
0.126855
0.145902
0.171758
0.202239
0.236048
0.271951
0.308989
0.346448
0.384039
0.421596
0.459124
0.496699
0.534452
0.572538
0.611123
0.650371
0.69044
0.731476
0.773608
0.816927
0.861508
0.907394
0.9546
1.00311
1.05289
1.10385
1.15591
1.20894
1.26282
1.31741
1.37258
1.42817
1.48406
1.54014
1.5963
1.65245
1.70854
1.76449
1.82028
1.87589
1.9313
1.9865
2.04151
2.09633
2.15098
2.20548
2.25985
2.3141
2.36824
2.4223
2.47629
2.5302
2.58406
2.63786
2.6916
2.74526
2.79885
2.85236
2.90575
2.95902
3.01214
3.06508
3.11783
3.17034
3.22259
3.27454
3.32616
3.37742
3.42826
3.47867
3.52859
3.57799
3.62682
3.67504
3.72261
3.76948
3.81561
3.86094
3.90543
3.94904
3.99172
4.03342
4.0741
4.1137
4.15219
4.18951
4.22563
4.26049
4.29407
4.3263
4.35716
4.3866
4.41458
4.44105
4.46599
4.48936
4.51112
4.53124
4.5497
4.56647
4.58153
4.59485
4.60642
4.61622
4.62423
4.63045
4.63486
4.63747
4.63827
4.63741
4.63472
4.63011
4.62373
4.61559
4.60571
4.59411
4.58081
4.56584
4.54923
4.53102
4.51124
4.48994
4.46716
4.44294
4.41735
4.39041
4.36221
4.33278
4.30219
4.27051
4.23779
4.20411
4.16953
4.13412
4.09797
4.06115
4.02374
3.98583
3.94751
3.90889
3.87006
3.83115
3.7923
3.75364
3.71534
3.67759
3.64051
3.60447
3.56904
3.52934
0.010849
0.0342344
0.0511259
0.0533091
0.0483903
0.0412446
0.0348576
0.0301508
0.0268718
0.0245931
0.0230178
0.0219259
0.0212324
0.0209084
0.0208023
0.0210613
0.0218564
0.0233826
0.026183
0.0310127
0.0383841
0.0477713
0.0587332
0.069069
0.0794507
0.0886543
0.0972723
0.106552
0.117803
0.132869
0.155578
0.182795
0.213547
0.246638
0.281121
0.316324
0.351822
0.38738
0.422956
0.45858
0.494349
0.530395
0.56687
0.60393
0.641733
0.680433
0.720174
0.761084
0.80327
0.846817
0.89179
0.938231
0.986157
1.03556
1.08639
1.13859
1.19207
1.24673
1.30244
1.35908
1.4165
1.47457
1.53316
1.59214
1.6514
1.71083
1.77036
1.8299
1.8894
1.94883
2.00814
2.06732
2.12635
2.18523
2.24396
2.30255
2.36101
2.41934
2.47755
2.53565
2.59365
2.65155
2.70936
2.76706
2.82465
2.88213
2.93948
2.99669
3.05374
3.11061
3.16727
3.22369
3.27985
3.33571
3.39123
3.44639
3.50114
3.55544
3.60926
3.66255
3.71528
3.76739
3.81884
3.86959
3.91959
3.96879
4.01715
4.06461
4.11113
4.15667
4.20116
4.24457
4.28684
4.32794
4.3678
4.40639
4.44365
4.47956
4.51405
4.5471
4.57866
4.60869
4.63715
4.66399
4.68919
4.7127
4.7345
4.75457
4.77286
4.78937
4.80407
4.81694
4.82796
4.83713
4.84442
4.84983
4.85335
4.85498
4.8548
4.85291
4.84894
4.8431
4.83542
4.82591
4.8146
4.80151
4.78667
4.7701
4.75184
4.73193
4.7104
4.68729
4.66266
4.63654
4.609
4.58007
4.54982
4.51831
4.48559
4.45173
4.41679
4.38084
4.34396
4.30621
4.26768
4.22844
4.18858
4.14819
4.10737
4.06621
4.02484
3.98337
3.94195
3.90073
3.85988
3.81957
3.77994
3.74136
3.70343
3.66217
0.0112481
0.0426273
0.0599864
0.0614955
0.054846
0.0463385
0.0395107
0.0349196
0.0318808
0.0298407
0.0287045
0.0282106
0.0281152
0.0288414
0.0302663
0.0325825
0.0359009
0.0403246
0.0458295
0.0520626
0.0587401
0.0660182
0.0734586
0.08102
0.0893376
0.0987792
0.110117
0.124329
0.143816
0.168644
0.196521
0.22683
0.258698
0.291452
0.324673
0.35811
0.39166
0.425317
0.459144
0.493246
0.52775
0.5628
0.598539
0.635108
0.672649
0.711299
0.751177
0.79239
0.83502
0.879142
0.924813
0.972071
1.02093
1.07139
1.1234
1.17694
1.23191
1.28823
1.34578
1.40445
1.4641
1.52461
1.58583
1.64764
1.70991
1.77254
1.83542
1.89846
1.96158
2.02473
2.08786
2.15092
2.21388
2.27673
2.33945
2.40204
2.46448
2.52678
2.58893
2.65094
2.7128
2.77452
2.83608
2.89748
2.95871
3.01976
3.08062
3.14125
3.20166
3.2618
3.32165
3.38119
3.44038
3.49918
3.55756
3.61548
3.67291
3.72979
3.78609
3.84176
3.89676
3.95105
4.00458
4.05729
4.10915
4.1601
4.2101
4.25909
4.30704
4.35388
4.39957
4.44406
4.4873
4.52925
4.56986
4.60909
4.64688
4.68319
4.718
4.75125
4.78291
4.81293
4.84128
4.86792
4.89281
4.91592
4.93723
4.95672
4.97435
4.99011
5.00399
5.01596
5.02602
5.03415
5.04035
5.0446
5.04691
5.04728
5.04594
5.04259
5.03721
5.02993
5.02078
5.00976
4.99692
4.98226
4.96581
4.94762
4.92771
4.90611
4.88287
4.85803
4.83164
4.80373
4.77437
4.7436
4.71148
4.67807
4.64342
4.6076
4.57067
4.5327
4.49377
4.45394
4.41329
4.37191
4.32987
4.28728
4.24423
4.20083
4.15719
4.11344
4.06972
4.02619
3.98301
3.94038
3.89841
3.8575
3.81722
3.77458
0.011532
0.0523229
0.0704695
0.0715865
0.0633118
0.0537039
0.0468692
0.0428274
0.040702
0.0395398
0.0392245
0.039432
0.0404827
0.0420642
0.0442634
0.0470557
0.0504569
0.0544573
0.0590439
0.064222
0.0701059
0.0769289
0.084955
0.0944702
0.105964
0.120231
0.138853
0.161437
0.187041
0.21488
0.244197
0.274533
0.305476
0.336776
0.368332
0.400119
0.432167
0.464551
0.497376
0.530761
0.564828
0.599694
0.635472
0.672281
0.710238
0.749448
0.790008
0.832004
0.875516
0.920609
0.967333
1.01572
1.0658
1.11756
1.17097
1.22601
1.28261
1.34068
1.40014
1.46086
1.52273
1.58562
1.6494
1.71393
1.77908
1.84475
1.9108
1.97715
2.0437
2.11037
2.1771
2.24382
2.31049
2.37707
2.44354
2.50986
2.57602
2.64201
2.70781
2.77341
2.8388
2.90398
2.96892
3.03363
3.09808
3.16226
3.22615
3.28973
3.35297
3.41586
3.47835
3.54042
3.60203
3.66315
3.72375
3.78377
3.84318
3.90194
3.96
4.01732
4.07386
4.12956
4.18439
4.23828
4.29121
4.34311
4.39395
4.44366
4.49221
4.53954
4.58561
4.63037
4.67377
4.71577
4.75632
4.79538
4.83291
4.86886
4.9032
4.9359
4.96692
4.99621
5.02375
5.04949
5.0734
5.09546
5.11566
5.13396
5.15035
5.16482
5.17734
5.18792
5.19654
5.20321
5.2079
5.21062
5.21136
5.21033
5.20735
5.2023
5.19531
5.18642
5.17565
5.16302
5.14855
5.13227
5.11421
5.0944
5.07288
5.04967
5.02482
4.99837
4.97037
4.94085
4.90987
4.87748
4.84373
4.80867
4.77238
4.73489
4.69628
4.65662
4.61596
4.57439
4.53198
4.48882
4.44497
4.40055
4.35564
4.31035
4.2648
4.21912
4.17345
4.12795
4.08278
4.03814
3.99412
3.95117
3.90878
3.86503
0.0116833
0.0622444
0.0820909
0.0832123
0.0734306
0.0624732
0.0550847
0.0508716
0.0488305
0.0477014
0.0474752
0.0480342
0.0493816
0.0513379
0.0539979
0.057376
0.0614649
0.0663167
0.0720525
0.0788517
0.0869909
0.0968173
0.108727
0.123437
0.141998
0.163447
0.187145
0.213047
0.240441
0.268901
0.298069
0.327758
0.357854
0.388316
0.419149
0.450384
0.482096
0.514375
0.547323
0.581041
0.61563
0.651191
0.687825
0.725631
0.7647
0.805118
0.84696
0.890301
0.935207
0.981739
1.02994
1.07985
1.13149
1.18485
1.23992
1.29666
1.35503
1.41495
1.47633
1.53907
1.60306
1.66819
1.73432
1.80133
1.86908
1.93747
2.00635
2.07564
2.14521
2.21498
2.28486
2.35478
2.42468
2.4945
2.56419
2.63372
2.70305
2.77216
2.84102
2.9096
2.97789
3.04588
3.11353
3.18084
3.24779
3.31435
3.3805
3.44622
3.51148
3.57626
3.64052
3.70423
3.76736
3.82987
3.89172
3.95288
4.01329
4.07293
4.13174
4.18969
4.24673
4.3028
4.35788
4.41192
4.46486
4.51665
4.56726
4.61664
4.66475
4.71153
4.75694
4.80094
4.84347
4.88451
4.92402
4.96194
4.99825
5.03289
5.06584
5.0971
5.12662
5.15434
5.18025
5.20429
5.22646
5.24674
5.26512
5.28156
5.29608
5.30864
5.31925
5.3279
5.33459
5.33937
5.34211
5.34293