/*--------------------------------*- C++ -*----------------------------------*\
  =========                 |
  \\      /  F ield         | OpenFOAM: The Open Source CFD Toolbox
   \\    /   O peration     | Website:  https://openfoam.org
    \\  /    A nd           | Version:  8
     \\/     M anipulation  |
\*---------------------------------------------------------------------------*/
FoamFile
{
    version     2.0;
    format      ascii;
    class       volScalarField;
    location    "300";
    object      k;
}
// * * * * * * * * * * * * * * * * * * * * * * * * * * * * * * * * * * * * * //

dimensions      [0 2 -2 0 0 0 0];

internalField   nonuniform List<scalar> 
12225
(
1.45427
1.90771
2.08866
1.90888
1.87051
3.68315
2.78204
2.33799
2.21633
2.11642
1.67027
1.61951
2.48495
2.14971
2.20428
1.98032
1.88454
1.56012
0.56273
0.651783
0.712696
0.799903
0.773132
0.848851
0.893717
0.950771
0.97077
0.898708
0.887448
0.886916
0.895014
0.953391
0.954999
0.971848
0.968098
0.964586
0.389957
0.441147
0.462941
0.484313
0.486028
0.490092
0.488559
0.491704
0.491317
0.495304
0.488605
0.488765
0.489788
0.491163
0.493663
0.495649
0.498784
0.501475
0.37722
0.386221
0.396624
0.401992
0.404
0.403821
0.403096
0.401571
0.399998
0.397058
0.393664
0.389862
0.386332
0.383341
0.380731
0.379497
0.377254
0.37716
0.374224
0.374685
0.376119
0.377731
0.378088
0.377286
0.376142
0.374426
0.372702
0.370499
0.368202
0.365736
0.363297
0.3611
0.358882
0.357209
0.355313
0.353933
0.373835
0.372059
0.370868
0.370089
0.369173
0.367815
0.366486
0.364911
0.3634
0.361735
0.360084
0.358379
0.356698
0.355101
0.35351
0.35207
0.350616
0.349302
0.373848
0.371616
0.369696
0.367972
0.366407
0.364754
0.363215
0.361633
0.360144
0.358639
0.357196
0.355758
0.354372
0.353031
0.351727
0.350482
0.349266
0.348114
0.373849
0.371575
0.369502
0.367553
0.36576
0.363997
0.362346
0.360728
0.359207
0.357722
0.356309
0.354935
0.353622
0.352357
0.35114
0.349975
0.348847
0.34777
0.373847
0.371562
0.369443
0.367436
0.365561
0.363756
0.362053
0.360415
0.358867
0.357379
0.355965
0.354607
0.353311
0.352071
0.350884
0.349749
0.348659
0.347619
0.373837
0.371562
0.369427
0.367402
0.365491
0.363668
0.361941
0.360293
0.358729
0.357236
0.355815
0.354458
0.353164
0.351931
0.350752
0.349629
0.348554
0.347529
0.373834
0.371558
0.369413
0.367382
0.365457
0.363627
0.361889
0.360236
0.358664
0.357167
0.355741
0.354382
0.353087
0.351853
0.350676
0.349555
0.348484
0.347463
0.37383
0.371556
0.369405
0.367368
0.365437
0.363601
0.361858
0.3602
0.358623
0.357122
0.355693
0.354332
0.353034
0.351798
0.350618
0.349497
0.348423
0.347403
0.373829
0.371554
0.369399
0.367359
0.365421
0.363583
0.361834
0.360173
0.358592
0.357088
0.355655
0.354291
0.35299
0.351752
0.35057
0.349444
0.348369
0.347345
0.373827
0.371551
0.369395
0.367349
0.36541
0.363566
0.361816
0.360151
0.358568
0.35706
0.355625
0.354257
0.352955
0.351712
0.350529
0.349399
0.348322
0.347294
0.373826
0.37155
0.36939
0.367343
0.3654
0.363554
0.361801
0.360134
0.358547
0.357038
0.3556
0.35423
0.352925
0.351681
0.350494
0.349363
0.348283
0.347253
0.373826
0.371548
0.369388
0.367339
0.365393
0.363546
0.36179
0.360121
0.358532
0.357021
0.355581
0.35421
0.352902
0.351657
0.350468
0.349335
0.348253
0.347222
0.373825
0.371548
0.369387
0.367337
0.36539
0.363541
0.361784
0.360113
0.358523
0.35701
0.355569
0.354196
0.352887
0.35164
0.35045
0.349316
0.348233
0.3472
0.373824
0.37155
0.369387
0.367338
0.365389
0.363542
0.361782
0.360112
0.35852
0.357007
0.355564
0.354191
0.352881
0.351634
0.350442
0.349308
0.348223
0.34719
0.373825
0.371549
0.36939
0.367339
0.365393
0.363542
0.361786
0.360113
0.358524
0.357008
0.355568
0.354193
0.352885
0.351635
0.350446
0.349309
0.348226
0.347191
0.373826
0.37155
0.369391
0.367341
0.365395
0.363547
0.361789
0.360119
0.358529
0.357017
0.355575
0.354203
0.352893
0.351646
0.350455
0.349321
0.348236
0.347203
0.373824
0.371552
0.369393
0.367345
0.3654
0.363553
0.361797
0.360128
0.35854
0.357028
0.355588
0.354216
0.352909
0.351662
0.350473
0.349339
0.348256
0.347223
0.373827
0.371552
0.369395
0.367347
0.365406
0.363561
0.361809
0.360141
0.358556
0.357045
0.355608
0.354237
0.352934
0.351687
0.350502
0.349368
0.348289
0.347256
0.373823
0.371557
0.369401
0.367359
0.365417
0.363575
0.361825
0.360164
0.358584
0.357082
0.355651
0.354289
0.352991
0.351754
0.350573
0.349447
0.34837
0.347341
0.37384
0.371556
0.369401
0.367363
0.365435
0.363612
0.361887
0.360255
0.358708
0.357241
0.355846
0.354515
0.353248
0.352031
0.350871
0.349752
0.348684
0.34765
0.373895
0.371531
0.369392
0.367433
0.365603
0.363914
0.362332
0.360851
0.359446
0.358106
0.356816
0.355566
0.354353
0.353166
0.352014
0.35088
0.349785
0.348701
0.374193
0.371378
0.369605
0.368229
0.367075
0.365989
0.364926
0.363882
0.362806
0.361708
0.360564
0.359369
0.35815
0.356885
0.35563
0.354334
0.353079
0.351786
0.375406
0.372122
0.37321
0.374759
0.37577
0.375823
0.375725
0.375322
0.374578
0.373634
0.372474
0.371095
0.369633
0.367999
0.366418
0.364683
0.363104
0.361375
0.384696
0.385757
0.401905
0.410507
0.414388
0.417008
0.41728
0.417414
0.416895
0.416301
0.41529
0.413964
0.412711
0.411173
0.410073
0.408586
0.407837
0.406533
0.474261
0.461277
0.50825
0.540661
0.567268
0.589991
0.607507
0.622502
0.634364
0.644766
0.653416
0.661147
0.668137
0.674268
0.680485
0.685522
0.691468
0.69571
2.14333
1.75412
1.6946
1.70414
1.71541
1.71457
1.70041
1.67854
1.64936
1.62004
1.59161
1.56462
1.53956
1.51641
1.49525
1.47591
1.45826
1.44217
1.17324e-08
2.88402e-07
1.4446e-06
5.55479e-06
1.82366e-05
5.469e-05
0.000135469
0.000254486
0.000389314
0.000511145
0.000598759
0.000623594
0.000605279
0.000533743
0.000416222
0.000314979
0.000247351
0.000190908
0.00013945
9.27121e-05
5.63179e-05
3.21954e-05
1.82748e-05
1.08492e-05
7.93251e-06
7.1582e-06
2.46576e-05
4.02775e-05
0.000129578
0.000244868
0.000296998
0.000294461
0.000353829
0.000456307
0.000562236
0.00125928
0.00267758
0.00813555
0.0332454
0.0801819
0.122905
0.145719
0.152351
0.146116
0.137766
0.118905
0.124086
0.131301
0.141144
0.154713
0.166704
0.136424
0.140231
0.150059
0.154179
0.162691
0.166837
0.172363
0.177455
0.18219
0.187016
0.191678
0.196242
0.200793
0.205236
0.209675
0.214049
0.218408
0.22273
0.227034
0.231314
0.235578
0.239822
0.244051
0.248259
0.252453
0.256621
0.260774
0.264894
0.268996
0.273055
0.277092
0.281074
0.285025
0.288907
0.29275
0.29651
0.300219
0.30384
0.307399
0.310874
0.314274
0.317603
0.320883
0.324144
0.327369
0.330495
0.33356
0.336543
0.339452
0.342279
0.345023
0.34768
0.350246
0.352723
0.355101
0.357388
0.359568
0.361656
0.363631
0.365514
0.367278
0.368951
0.3705
0.37196
0.373293
0.374537
0.375653
0.376682
0.377582
0.378395
0.37908
0.379677
0.380147
0.380524
0.380774
0.38092
0.38093
0.38087
0.380739
0.380523
0.380225
0.379849
0.3794
0.378823
0.378314
0.377425
0.376697
0.375779
0.374776
0.373627
0.37246
0.371177
0.369732
0.36829
0.366699
0.364966
0.363255
0.361469
0.359672
0.357821
0.355926
0.353974
0.351979
0.349938
0.347874
0.345766
0.343619
0.341431
0.339215
0.336971
0.334712
0.332438
0.330162
0.32789
0.325636
0.323393
0.321172
0.318952
0.316761
0.314622
0.312467
0.310284
0.308045
0.305694
0.303147
0.300145
0.296336
0.291358
0.266584
6.26701e-08
1.75915e-06
1.1785e-05
4.98183e-05
0.000185633
0.000490073
0.0010825
0.00188668
0.00278348
0.00365516
0.00440453
0.00492436
0.00523413
0.00520669
0.00508477
0.00472577
0.00414061
0.00337968
0.00253771
0.00172002
0.00110463
0.000691326
0.000434786
0.000278535
0.000221859
0.000123079
0.000394284
0.000581812
0.00167567
0.00315288
0.00387934
0.00453926
0.00672889
0.0105015
0.0184059
0.0337985
0.0609486
0.0840179
0.108457
0.127994
0.142274
0.152439
0.158121
0.165102
0.17831
0.188589
0.199027
0.210083
0.22251
0.23444
0.252751
0.264766
0.281464
0.29698
0.311736
0.326894
0.340654
0.354515
0.367889
0.381023
0.393887
0.406601
0.419128
0.431572
0.443915
0.456217
0.468484
0.480747
0.493018
0.505313
0.517645
0.530023
0.542454
0.554945
0.567498
0.580118
0.592802
0.605555
0.618369
0.631249
0.64418
0.657169
0.670191
0.683254
0.696328
0.709418
0.722489
0.735545
0.748551
0.761506
0.774365
0.787101
0.799682
0.81208
0.82428
0.836355
0.84838
0.860329
0.872194
0.883973
0.895646
0.907212
0.918647
0.929953
0.941105
0.952106
0.962931
0.973583
0.984038
0.994301
1.00435
1.01418
1.02378
1.03316
1.04228
1.05117
1.05979
1.06816
1.07625
1.08408
1.09163
1.0989
1.10589
1.11259
1.119
1.12512
1.13094
1.13646
1.14169
1.1466
1.15123
1.15555
1.15959
1.16331
1.16671
1.16979
1.17254
1.17501
1.17716
1.17892
1.17995
1.18124
1.18167
1.18187
1.18184
1.18134
1.1803
1.17898
1.17735
1.17543
1.17318
1.17059
1.16766
1.16437
1.16075
1.15681
1.15253
1.14792
1.14299
1.13775
1.13221
1.1264
1.12032
1.11401
1.10747
1.10074
1.09382
1.08672
1.07945
1.07205
1.06452
1.05675
1.04873
1.04042
1.03169
1.02249
1.01224
1.00106
0.987616
0.940445
1.7653e-07
5.23434e-06
3.99852e-05
0.000173582
0.000616741
0.00145474
0.00281454
0.00438743
0.00594308
0.00733827
0.00843362
0.00917934
0.00953801
0.00949505
0.0092992
0.00882381
0.00814072
0.00729849
0.00633039
0.00527776
0.00411873
0.00303471
0.00209493
0.00149096
0.0010958
0.00103211
0.00239562
0.00448384
0.0112042
0.0179448
0.0228815
0.0311085
0.0481789
0.0642331
0.0826634
0.101587
0.117383
0.133724
0.149579
0.166436
0.184126
0.202472
0.226711
0.2541
0.281661
0.308761
0.339417
0.370829
0.398888
0.428823
0.454346
0.478513
0.501984
0.524133
0.545569
0.566138
0.585959
0.605241
0.62403
0.642427
0.660498
0.678316
0.695929
0.713392
0.730739
0.748009
0.765228
0.782421
0.799607
0.816804
0.834025
0.851278
0.868574
0.885918
0.903313
0.920762
0.938265
0.955823
0.973433
0.991093
1.0088
1.02654
1.04432
1.06212
1.07994
1.09777
1.1156
1.13342
1.15123
1.16902
1.18678
1.2045
1.22217
1.23979
1.25736
1.27484
1.29224
1.30952
1.32666
1.34366
1.36049
1.37714
1.39358
1.40981
1.42581
1.44155
1.45702
1.47221
1.4871
1.50168
1.51593
1.52984
1.5434
1.5566
1.56941
1.58185
1.5939
1.60555
1.61678
1.62762
1.63802
1.64802
1.65758
1.66671
1.67541
1.68367
1.69149
1.69888
1.70582
1.71232
1.71839
1.72402
1.72921
1.73395
1.73823
1.74205
1.7454
1.74831
1.75076
1.75271
1.75391
1.75478
1.75496
1.75453
1.75371
1.75229
1.75028
1.74776
1.74474
1.74125
1.73725
1.73274
1.72771
1.72216
1.71609
1.70952
1.70244
1.69487
1.68683
1.67834
1.66941
1.66008
1.65036
1.64029
1.62989
1.6192
1.60823
1.59701
1.58554
1.57385
1.56194
1.54981
1.53742
1.52474
1.5117
1.49826
1.48402
1.46923
1.4531
1.40945
7.38926e-07
2.22687e-05
0.000174397
0.000676954
0.00189545
0.00427658
0.00707746
0.00988244
0.0123368
0.014257
0.0154831
0.0160494
0.0159856
0.0156842
0.0149288
0.0139232
0.0127549
0.0114809
0.0101451
0.00879015
0.00740994
0.0061254
0.00500315
0.00355798
0.00415086
0.00773874
0.0190718
0.034797
0.0490475
0.0604198
0.0721675
0.0855637
0.0983679
0.113121
0.130192
0.149196
0.168612
0.192331
0.217792
0.246809
0.277744
0.312024
0.347645
0.383401
0.419292
0.454319
0.488766
0.522198
0.554057
0.585057
0.614418
0.642696
0.669959
0.696242
0.721696
0.74638
0.770404
0.793868
0.816859
0.839452
0.861715
0.883708
0.905487
0.927096
0.948579
0.969969
0.991297
1.01259
1.03387
1.05515
1.07644
1.09777
1.11914
1.14056
1.16203
1.18355
1.20514
1.22678
1.24848
1.27024
1.29205
1.3139
1.33581
1.35775
1.37973
1.40173
1.42375
1.44578
1.46782
1.48987
1.5119
1.5339
1.55586
1.57776
1.59958
1.6213
1.6429
1.66435
1.68563
1.70672
1.72759
1.74823
1.76861
1.78871
1.80851
1.82798
1.84711
1.86586
1.88424
1.90221
1.91975
1.93686
1.95351
1.96969
1.98539
2.0006
2.0153
2.02949
2.04316
2.0563
2.06891
2.08097
2.09249
2.10346
2.11388
2.12374
2.13304
2.14179
2.14998
2.15761
2.16469
2.17121
2.17718
2.18258
2.18741
2.19166
2.19532
2.19841
2.20092
2.20282
2.2039
2.20433
2.20398
2.20308
2.2015
2.19919
2.19618
2.19251
2.18819
2.18323
2.17761
2.17135
2.16443
2.15685
2.14862
2.13975
2.13025
2.12013
2.10943
2.09815
2.08634
2.074
2.06119
2.04793
2.03426
2.02021
2.00581
1.99111
1.97612
1.96086
1.94536
1.92963
1.91368
1.89749
1.88106
1.86438
1.84726
1.83006
1.8126
1.77324
2.77307e-06
8.26847e-05
0.000604905
0.00222035
0.00590334
0.0108046
0.015538
0.0193402
0.021829
0.0231298
0.0233005
0.0229916
0.0221643
0.0209585
0.0195625
0.0180458
0.0164594
0.0148587
0.0133013
0.0118404
0.0103041
0.00866536
0.00839762
0.0106837
0.0210609
0.0415275
0.0653279
0.0811825
0.09043
0.098654
0.108537
0.121528
0.137952
0.158195
0.180946
0.207295
0.236631
0.269447
0.304127
0.340844
0.378427
0.416843
0.455278
0.493421
0.531113
0.56802
0.604165
0.639422
0.673695
0.707089
0.739497
0.771019
0.801695
0.831572
0.86072
0.889196
0.91707
0.944414
0.971299
0.997788
1.02394
1.04982
1.07546
1.10092
1.12624
1.15145
1.17658
1.20167
1.22673
1.2518
1.27687
1.30197
1.32712
1.35231
1.37755
1.40286
1.42823
1.45366
1.47916
1.50472
1.53035
1.55603
1.58177
1.60756
1.6334
1.65927
1.68517
1.71109
1.73703
1.76297
1.7889
1.8148
1.84063
1.86639
1.89204
1.91758
1.94297
1.96819
1.99321
2.01801
2.04256
2.06682
2.09078
2.11441
2.13767
2.16055
2.18301
2.20503
2.22659
2.24765
2.26822
2.28824
2.30773
2.32664
2.34498
2.36271
2.37985
2.39635
2.41223
2.42746
2.44206
2.456
2.46928
2.4819
2.49385
2.50513
2.51575
2.52569
2.53496
2.54356
2.55149
2.55874
2.56531
2.57121
2.57641
2.58092
2.58473
2.58785
2.59026
2.59193
2.59267
2.59266
2.59181
2.59023
2.58783
2.58461
2.58057
2.57573
2.57011
2.56371
2.55653
2.54856
2.53982
2.53029
2.52
2.50895
2.49715
2.48463
2.47142
2.45752
2.44299
2.42784
2.41212
2.39587
2.37913
2.36195
2.34436
2.3264
2.30813
2.28957
2.27077
2.25175
2.23253
2.21316
2.19366
2.17411
2.15444
2.13509
2.11616
2.07957
1.01377e-05
0.000285641
0.00195646
0.00674289
0.0147697
0.0218393
0.0264033
0.0285497
0.0290318
0.0287061
0.0277979
0.0264769
0.024982
0.023383
0.0217224
0.0200266
0.0182996
0.0165052
0.0145755
0.0125656
0.0110533
0.0119609
0.0186036
0.036272
0.0648997
0.0884772
0.102218
0.10929
0.115709
0.126004
0.141091
0.16057
0.183854
0.211115
0.241637
0.275199
0.310913
0.34829
0.386538
0.425435
0.464533
0.503729
0.542787
0.581603
0.620092
0.658147
0.695731
0.732774
0.76922
0.805043
0.840204
0.874708
0.908559
0.941773
0.97438
1.00641
1.03791
1.06892
1.09951
1.12971
1.15958
1.18916
1.21851
1.24767
1.27668
1.30557
1.33438
1.36313
1.39185
1.42057
1.44929
1.47805
1.50684
1.53568
1.56459
1.59355
1.62259
1.6517
1.68088
1.71013
1.73945
1.76884
1.79829
1.8278
1.85737
1.88697
1.91661
1.94628
1.97595
2.00564
2.0353
2.06492
2.09446
2.12392
2.15326
2.18246
2.2115
2.24036
2.26899
2.29736
2.32545
2.35323
2.38065
2.4077
2.43432
2.4605
2.4862
2.5114
2.53605
2.56014
2.58363
2.60651
2.62875
2.65032
2.67121
2.6914
2.71087
2.72962
2.74762
2.76487
2.78136
2.79708
2.81203
2.82619
2.83957
2.85216
2.86397
2.87498
2.8852
2.89463
2.90326
2.9111
2.91815
2.92439
2.92983
2.93446
2.93829
2.9413
2.94349
2.94476
2.94509
2.9445
2.94305
2.94069
2.93741
2.9332
2.92806
2.92199
2.91502
2.90715
2.89837
2.88869
2.87812
2.86665
2.85431
2.8411
2.82703
2.81214
2.79645
2.77998
2.76278
2.74488
2.72632
2.70715
2.68742
2.66718
2.64648
2.62537
2.60392
2.58216
2.56016
2.53795
2.5156
2.49317
2.47073
2.44841
2.42625
2.40469
2.38377
2.34885
3.66949e-05
0.000935779
0.00572107
0.0168925
0.0266325
0.0317655
0.0336763
0.0337699
0.0331427
0.0317808
0.0300925
0.0282656
0.0263906
0.0245137
0.0226619
0.0209028
0.019385
0.0183576
0.0183154
0.0201796
0.0247934
0.0344051
0.0561389
0.0827072
0.102843
0.11457
0.120678
0.127898
0.14016
0.157637
0.179709
0.20609
0.236164
0.26923
0.30447
0.341289
0.379088
0.417511
0.456274
0.49527
0.53439
0.573606
0.612866
0.652134
0.691367
0.730503
0.769485
0.808235
0.846693
0.8848
0.922507
0.959775
0.99658
1.03291
1.06876
1.10415
1.13908
1.1736
1.20773
1.2415
1.27497
1.30817
1.34114
1.37392
1.40654
1.43905
1.47147
1.50384
1.53617
1.5685
1.60084
1.63321
1.66562
1.69808
1.73061
1.76321
1.79588
1.82863
1.86146
1.89437
1.92736
1.96042
1.99355
2.02674
2.05999
2.09329
2.12662
2.15997
2.19334
2.22671
2.26006
2.29336
2.32657
2.35968
2.39267
2.42551
2.45818
2.49063
2.52284
2.55477
2.58638
2.61764
2.64851
2.67895
2.70892
2.73839
2.76731
2.79565
2.82338
2.85047
2.87687
2.90256
2.92752
2.95171
2.97511
2.99771
3.01948
3.04041
3.06047
3.07967
3.09798
3.11541
3.13193
3.14755
3.16226
3.17606
3.18895
3.20092
3.21197
3.22211
3.23133
3.23963
3.24702
3.25348
3.25902
3.26364
3.26734
3.27012
3.27195
3.27272
3.2725
3.27128
3.26906
3.26582
3.26155
3.25625
3.24991
3.24254
3.23415
3.22474
3.21431
3.20287
3.19043
3.177
3.16257
3.14718
3.13084
3.11357
3.09539
3.07636
3.0565
3.03585
3.01447
2.9924
2.9697
2.94643
2.92265
2.89842
2.87382
2.8489
2.82374
2.79839
2.77295
2.74749
2.72214
2.69704
2.67232
2.64841
2.62522
2.59081
0.000116126
0.00268448
0.0142297
0.0285503
0.0357039
0.0383829
0.0386809
0.0378464
0.0360768
0.033943
0.0316901
0.0294495
0.0272874
0.0252293
0.0232991
0.0217553
0.0208294
0.0207899
0.0235697
0.0317623
0.0485219
0.0717613
0.0942281
0.111028
0.120867
0.127644
0.136774
0.151199
0.170699
0.195058
0.223466
0.255083
0.289055
0.324639
0.361277
0.398599
0.436356
0.474428
0.512765
0.551369
0.590246
0.629412
0.668868
0.708604
0.748583
0.788746
0.829034
0.869372
0.909689
0.949909
0.989965
1.0298
1.06935
1.1086
1.14752
1.18609
1.22431
1.26219
1.29975
1.33701
1.37399
1.41074
1.44727
1.48363
1.51985
1.55595
1.59198
1.62796
1.6639
1.69985
1.73581
1.7718
1.80784
1.84395
1.88012
1.91636
1.95269
1.9891
2.0256
2.06218
2.09884
2.13558
2.17239
2.20927
2.24621
2.28319
2.32021
2.35725
2.39431
2.43136
2.46839
2.50536
2.54224
2.57902
2.61565
2.65213
2.68841
2.72447
2.76026
2.79574
2.83088
2.86562
2.89993
2.93376
2.96706
2.9998
3.03193
3.06341
3.09419
3.12424
3.15352
3.182
3.20964
3.23641
3.26228
3.28723
3.31123
3.33427
3.35632
3.37739
3.39744
3.41647
3.43447
3.45145
3.46738
3.48227
3.49612
3.50892
3.52068
3.5314
3.54107
3.5497
3.55728
3.56382
3.56933
3.5738
3.57723
3.57963
3.58094
3.58114
3.58024
3.57823
3.57511
3.57087
3.5655
3.559
3.55137
3.5426
3.53271
3.52169
3.50955
3.49631
3.48195
3.4665
3.44997
3.43237
3.41373
3.39406
3.37341
3.3518
3.32929
3.3059
3.28171
3.25675
3.23111
3.20483
3.17799
3.15066
3.12293
3.09487
3.06657
3.0381
3.00957
2.98109
2.95281
2.92491
2.89754
2.87112
2.84545
2.81068
0.00030189
0.00649363
0.0255062
0.0380855
0.0430967
0.0442119
0.0433219
0.0412381
0.0386267
0.035874
0.0332301
0.030878
0.0289967
0.0277082
0.027343
0.0281851
0.0305515
0.0357406
0.0467267
0.0637537
0.0831886
0.101156
0.114768
0.123818
0.131823
0.143154
0.159253
0.180612
0.206435
0.235874
0.26793
0.301793
0.336842
0.372649
0.40896
0.445644
0.482651
0.519998
0.557723
0.595878
0.634511
0.673658
0.713336
0.753533
0.794216
0.83534
0.876843
0.918651
0.960683
1.00286
1.04509
1.08731
1.12945
1.17146
1.21329
1.2549
1.29628
1.33742
1.37832
1.41899
1.45944
1.49969
1.53976
1.57969
1.61949
1.6592
1.69885
1.73845
1.77804
1.81764
1.85725
1.89691
1.93663
1.9764
2.01626
2.05619
2.09621
2.13632
2.17651
2.2168
2.25716
2.29761
2.33813
2.37871
2.41935
2.46004
2.50075
2.54149
2.58223
2.62297
2.66368
2.70432
2.74487
2.7853
2.82558
2.86568
2.90557
2.94521
2.98456
3.02357
3.0622
3.1004
3.13812
3.1753
3.21191
3.24788
3.28317
3.31773
3.35152
3.38448
3.41658
3.44777
3.47802
3.50728
3.53553
3.56274
3.58888
3.61392
3.63786
3.66067
3.68234
3.70285
3.7222
3.74039
3.7574
3.77323
3.78789
3.80138
3.81369
3.82482
3.83478
3.84357
3.85119
3.85765
3.86296
3.86711
3.87012
3.87197
3.87264
3.87212
3.87038
3.86743
3.86327
3.8579
3.85132
3.84351
3.83447
3.82422
3.81274
3.80004
3.78614
3.77102
3.75471
3.73722
3.71856
3.69874
3.67779
3.65573
3.63261
3.60845
3.58329
3.5572
3.53023
3.50243
3.47387
3.44462
3.41476
3.38438
3.35356
3.3224
3.29099
3.25943
3.22784
3.19636
3.16515
3.13441
3.10431
3.07526
3.047
3.01123
0.000639321
0.0130014
0.0359443
0.0464089
0.0498035
0.0497019
0.0476783
0.0447093
0.0414461
0.0383149
0.0355817
0.0334198
0.0323173
0.0318365
0.0334808
0.0380555
0.0468513
0.0596933
0.0751357
0.0908055
0.104835
0.115835
0.124716
0.134316
0.147385
0.165184
0.187695
0.214298
0.243887
0.275597
0.308693
0.342684
0.377256
0.412241
0.447578
0.48327
0.519364
0.555932
0.593049
0.630789
0.669218
0.708375
0.748273
0.78891
0.830262
0.872286
0.914923
0.958097
1.00173
1.04572
1.09
1.13447
1.17906
1.22369
1.2683
1.31285
1.3573
1.40162
1.4458
1.48982
1.53369
1.57743
1.62103
1.66453
1.70794
1.75128
1.79457
1.83785
1.88112
1.92441
1.96773
2.0111
2.05454
2.09804
2.14163
2.1853
2.22906
2.2729
2.31684
2.36085
2.40495
2.44913
2.49337
2.53767
2.58203
2.62642
2.67083
2.71525
2.75967
2.80407
2.84844
2.89273
2.93691
2.98096
3.02484
3.06852
3.11196
3.15513
3.19798
3.24045
3.28251
3.32409
3.36513
3.40559
3.44541
3.48452
3.52288
3.56042
3.5971
3.63286
3.66765
3.70143
3.73416
3.76578
3.79627
3.82559
3.85371
3.88061
3.90626
3.93065
3.95376
3.97557
3.99609
4.0153
4.0332
4.04979
4.06507
4.07904
4.0917
4.10306
4.11312
4.12188
4.12934
4.13553
4.14044
4.14409
4.14649
4.14762
4.14749
4.14609
4.14332
4.13927
4.13393
4.12729
4.11935
4.11011
4.09956
4.08771
4.07455
4.0601
4.04435
4.02732
4.00901
3.98945
3.96863
3.94659
3.92334
3.89891
3.87333
3.84665
3.81891
3.79015
3.76045
3.72986
3.69845
3.66631
3.63351
3.60014
3.56631
3.53212
3.49767
3.46309
3.4285
3.39407
3.35996
3.32639
3.29354
3.2618
3.23088
3.19374
0.00112859
0.0214218
0.0452162
0.0543697
0.0566287
0.0555755
0.0526896
0.0491174
0.0456279
0.0427211
0.0409725
0.0404457
0.0414183
0.0446169
0.0505371
0.0593099
0.0703587
0.0827871
0.0950833
0.106016
0.115482
0.124695
0.135852
0.15043
0.169471
0.192695
0.219333
0.248484
0.279296
0.311204
0.343806
0.37688
0.410325
0.444123
0.478309
0.512955
0.548148
0.583983
0.620551
0.657941
0.696211
0.735402
0.775537
0.816618
0.858623
0.901514
0.945234
0.98971
1.03486
1.08059
1.12682
1.17344
1.22038
1.26754
1.31485
1.36226
1.4097
1.45714
1.50455
1.5519
1.59919
1.6464
1.69355
1.74063
1.78767
1.83467
1.88166
1.92865
1.97565
2.02268
2.06975
2.11689
2.16409
2.21137
2.25873
2.30618
2.35371
2.40132
2.44902
2.49679
2.54464
2.59255
2.64052
2.68854
2.73659
2.78465
2.83273
2.88079
2.92883
2.97684
3.0248
3.07266
3.12039
3.16796
3.21533
3.26248
3.30937
3.35594
3.40215
3.44795
3.49329
3.5381
3.58232
3.62588
3.66874
3.71082
3.75206
3.7924
3.83178
3.87014
3.90743
3.9436
3.97858
4.01235
4.04486
4.07607
4.10594
4.13445
4.16158
4.18731
4.21161
4.23449
4.25592
4.27591
4.29446
4.31156
4.32721
4.34142
4.3542
4.36554
4.37545
4.38395
4.39103
4.39671
4.40102
4.40395
4.40553
4.40576
4.40466
4.40213
4.39818
4.39286
4.38617
4.37811
4.36867
4.35786
4.34568
4.33213
4.31721
4.30092
4.28328
4.26429
4.24396
4.22231
4.19935
4.17509
4.14957
4.12281
4.09484
4.0657
4.03544
4.00411
3.97177
3.93849
3.90434
3.8694
3.83377
3.79754
3.76081
3.7237
3.68633
3.64883
3.61134
3.57404
3.5371
3.50075
3.46517
3.43074
3.39716
3.35848
0.00178588
0.0294915
0.0539179
0.0624216
0.0640941
0.0623451
0.058937
0.0552894
0.0523195
0.0508439
0.050532
0.052016
0.0556325
0.0613469
0.0689542
0.0779165
0.0874838
0.0969268
0.105828
0.114665
0.124615
0.137084
0.153013
0.172838
0.196266
0.222493
0.250734
0.280324
0.310765
0.341772
0.373185
0.404953
0.437085
0.469641
0.502704
0.536378
0.570765
0.605976
0.642109
0.679243
0.717439
0.756745
0.797184
0.83876
0.881456
0.925236
0.970046
1.01582
1.06247
1.1099
1.15804
1.20676
1.25599
1.30564
1.3556
1.40582
1.45623
1.50676
1.55737
1.60804
1.65873
1.70942
1.76012
1.81082
1.86151
1.91222
1.96293
2.01368
2.06445
2.11528
2.16616
2.2171
2.26812
2.31921
2.37037
2.42161
2.47293
2.52431
2.57577
2.62728
2.67885
2.73046
2.78211
2.83377
2.88545
2.93711
2.98875
3.04035
3.09189
3.14337
3.19477
3.24605
3.29716
3.34808
3.39876
3.44918
3.49929
3.54905
3.5984
3.64729
3.69565
3.74343
3.79055
3.83696
3.88258
3.92734
3.97117
4.01401
4.05579
4.09644
4.13592
4.17415
4.21109
4.24668
4.28087
4.31364
4.34494
4.37474
4.40302
4.42976
4.45493
4.47854
4.50057
4.52102
4.53988
4.55718
4.57289
4.58705
4.59964
4.61067
4.62016
4.62811
4.63454
4.63946
4.6429
4.64487
4.6454
4.64455
4.64224
4.63837
4.63305
4.62628
4.61807
4.60843
4.59736
4.58486
4.57093
4.55558
4.53882
4.52064
4.50106
4.48009
4.45773
4.43401
4.40893
4.38252
4.35479
4.32577
4.2955
4.26401
4.23135
4.19758
4.16274
4.12692
4.09018
4.05262
4.01432
3.97539
3.93593
3.89607
3.85594
3.81568
3.77545
3.73542
3.69578
3.65676
3.61853
3.58149
3.54532
3.50506
0.00273691
0.0370561
0.0629833
0.0711377
0.0723837
0.0700283
0.0663573
0.0630683
0.0613547
0.0608889
0.061999
0.0650577
0.0697158
0.0756802
0.0825415
0.0898565
0.0973861
0.105318
0.114279
0.125187
0.138779
0.155727
0.175987
0.199195
0.22468
0.251763
0.27991
0.308751
0.338064
0.367749
0.397786
0.428212
0.459096
0.490537
0.522641
0.555528
0.589311
0.624102
0.659989
0.697056
0.735363
0.774955
0.815856
0.858071
0.901584
0.946361
0.992352
1.03949
1.0877
1.13688
1.18694
1.23778
1.28931
1.34142
1.39402
1.44703
1.50037
1.55398
1.6078
1.66178
1.71589
1.77009
1.82437
1.87871
1.9331
1.98754
2.04203
2.09657
2.15115
2.2058
2.2605
2.31526
2.37008
2.42497
2.47991
2.53492
2.58997
2.64508
2.70022
2.75539
2.81058
2.86578
2.92097
2.97614
3.03128
3.08637
3.1414
3.19633
3.25116
3.30588
3.36047
3.41489
3.4691
3.52307
3.57676
3.63013
3.68313
3.73572
3.78784
3.83943
3.89044
3.94079
3.99041
4.03924
4.08719
4.1342
4.18019
4.22508
4.26882
4.31132
4.35253
4.39237
4.43081
4.46777
4.50322
4.53709
4.56938
4.60002
4.62902
4.65633
4.68195
4.70586
4.72807
4.74857
4.76737
4.78447
4.79988
4.8136
4.82564
4.83602
4.84475
4.85183
4.85729
4.86116
4.86345
4.86419
4.86348
4.8613
4.85746
4.85208
4.84518
4.83678
4.82689
4.81552
4.80268
4.78838
4.77261
4.75539
4.73673
4.71662
4.6951
4.67215
4.6478
4.62205
4.59493
4.56644
4.53662
4.50548
4.47305
4.43937
4.40448
4.36845
4.33131
4.29316
4.25405
4.21408
4.17334
4.13194
4.08999
4.04762
4.00497
3.96217
3.91941
3.87685
3.83471
3.7932
3.75249
3.71298
3.67436
3.63263
0.00382346
0.0454468
0.072367
0.0802438
0.0811134
0.0780905
0.0741933
0.0715847
0.0705868
0.0705714
0.0725405
0.0758273
0.0801596
0.0852902
0.0910985
0.0977109
0.105531
0.115076
0.126949
0.14156
0.159145
0.179542
0.20228
0.226829
0.25264
0.279296
0.306526
0.334175
0.362183
0.390562
0.41936
0.448665
0.478579
0.50922
0.540707
0.573167
0.606707
0.641433
0.677432
0.714781
0.753537
0.793741
0.835407
0.878537
0.923115
0.969108
1.01647
1.06513
1.11501
1.16603
1.2181
1.27112
1.32498
1.37959
1.43486
1.49068
1.54699
1.6037
1.66075
1.71807
1.77561
1.83334
1.89121
1.9492
2.00729
2.06547
2.12372
2.18203
2.2404
2.29883
2.3573
2.41582
2.47438
2.53297
2.59159
2.65023
2.70888
2.76754
2.82619
2.88482
2.94341
3.00196
3.06046
3.11887
3.1772
3.23541
3.29349
3.35141
3.40917
3.46675
3.52413
3.58129
3.63817
3.69474
3.75095
3.80677
3.86216
3.91706
3.97141
4.02515
4.07823
4.13057
4.18211
4.23275
4.28244
4.33108
4.37861
4.42495
4.47001
4.51374
4.55607
4.59692
4.63624
4.67397
4.71006
4.74447
4.77715
4.80808
4.83723
4.86457
4.8901
4.9138
4.93567
4.95573
4.97397
4.99041
5.00506
5.01792
5.029
5.03832
5.04589
5.05174
5.05589
5.05837
5.05919
5.05849
5.05632
5.05241
5.04688
5.03978
5.03111
5.02091
5.00919
4.99596
4.98124
4.96504
4.94737
4.92823
4.90765
4.88563
4.86217
4.8373
4.81103
4.78336
4.75431
4.7239
4.69214
4.65906
4.62467
4.58903
4.55215
4.51411
4.47494
4.43473
4.39354
4.35146
4.30858
4.26502
4.22088
4.17631
4.13143
4.0864
4.0414
3.99662
3.95224
3.9085
3.86555
3.82383
3.78297
3.74
0.00497561
0.0536814
0.0816026
0.089187
0.0895743
0.0855817
0.0811901
0.078656
0.0777414
0.0777911
0.0797064
0.0826938
0.0867567
0.091974
0.0986247
0.107011
0.117514
0.1304
0.145912
0.163938
0.184255
0.206431
0.230008
0.254587
0.279863
0.305642
0.331826
0.358397
0.385384
0.412858
0.440908
0.469647
0.499188
0.52966
0.561177
0.593848
0.62777
0.66304
0.699731
0.737912
0.777626
0.818905
0.861764
0.906201
0.952201
0.99973
1.04874
1.09918
1.15097
1.20402
1.25826
1.31359
1.36991
1.42711
1.48511
1.54381
1.60311
1.66294
1.72321
1.78384
1.84479
1.90599
1.9674
2.02898
2.09069
2.15251
2.21442
2.27638
2.3384
2.40045
2.46252
2.5246
2.58667
2.64873
2.71076
2.77275
2.8347
2.89658
2.95838
3.02009
3.0817
3.14318
3.20453
3.26573
3.32675
3.38758
3.4482
3.50858
3.5687
3.62856
3.68813
3.74739
3.80629
3.86479
3.92285
3.98042
4.03746
4.09392
4.14974
4.20486
4.25922
4.31275
4.36537
4.41702
4.4676
4.51706
4.5653
4.61225
4.65782
4.70196
4.74459
4.78565
4.82507
4.8628
4.89877
4.93296
4.96531
4.99582
5.02443
5.05114
5.07592
5.09878
5.11971
5.13874
5.15586
5.1711
5.18446
5.19596
5.20561
5.21342
5.21941
5.22363
5.2261
5.22684
5.226
5.22364
5.21951
5.21371
5.20629
5.19726
5.18666
5.17451
5.16084
5.14566
5.12899
5.11085
5.09125
5.07021
5.04774
5.02386
4.99857
4.97189
4.94383
4.9144
4.88361
4.85148
4.81802
4.78324
4.74718
4.70986
4.67131
4.63158
4.59073
4.54881
4.5059
4.46208
4.41745
4.37211
4.32618
4.27979
4.23308
4.18621
4.13935
4.0927
4.04646
4.00085
3.956
3.9124
3.86958
3.82569
0.00622287
0.0617889
0.0903724
0.0975551
0.0971431
0.0919334
0.0868399
0.0841397
0.0831644
0.0832284
0.0855192
0.0892911
0.0947602
0.102056
0.111363
0.122833
0.136616
0.15271
0.170966
0.19107
0.212693
0.235477
0.259146
0.283482
0.308358
0.333712
0.359546
0.385899
0.412826
0.440412
0.468752
0.497962
0.528152
0.559438
0.591918
0.625698
0.660863
0.697497
0.735661
0.775408
0.816772
0.859775
0.904426
0.95072
0.99864
1.04816
1.09923
1.1518
1.2058
1.26116
1.31779
1.3756
1.43449
1.49436
1.55512
1.61667
1.67892
1.74178
1.80515
1.86897
1.93316
1.99764
2.06237
2.1273
2.19237
2.25754
2.32279
2.38809
2.45339
2.51868
2.58393
2.64913
2.71425
2.77928
2.8442
2.90899
2.97364
3.03813
3.10244
3.16658
3.2305
3.29421
3.35769
3.42091
3.48386
3.54653
3.60887
3.67088
3.73251
3.79377
3.85465
3.9151
3.97509
4.03457
4.09351
4.15184
4.20954
4.26654
4.3228
4.37824
4.43282
4.48646
4.5391
4.59066
4.64107
4.69025
4.73813
4.78463
4.82967
4.87318
4.91509
4.95535
4.9939
5.03066
5.06559
5.09865
5.1298
5.15904
5.18631
5.21159
5.23486
5.25615
5.27544
5.29277
5.30815
5.32159
5.33311
5.34271
5.35042
5.35624
5.36021
5.36238
5.36282
5.36166
5.3589
5.35435
5.34811
5.34023
5.33072
5.31963
5.30697
5.29278
5.27709
5.25993
5.24131
5.22125
5.19979
5.17692
5.15267
5.12706
5.1001
5.0718
5.04218
5.01123
4.97898
4.94542
4.91057
4.87445
4.83707
4.79845
4.75862
4.71763
4.67551
4.63233
4.58815
4.54306
4.49714
4.4505
4.40325
4.35553
4.30747
4.25924
4.21101
4.16297
4.11532
4.06828
4.02197
3.97691
3.9325
3.88811
0.00766218
0.0690366
0.0980279
0.104743
0.102948
0.0963342
0.0908152
0.0880545
0.0874425
0.0889109
0.0928114
0.0986318
0.10651
0.11648
0.128694
0.14344
0.16066
0.179828
0.200672
0.222887