/*--------------------------------*- C++ -*----------------------------------*\
| =========                 |                                                 |
| \\      /  F ield         | OpenFOAM: The Open Source CFD Toolbox           |
|  \\    /   O peration     | Version:  v2012                                 |
|   \\  /    A nd           | Website:  www.openfoam.com                      |
|    \\/     M anipulation  |                                                 |
\*---------------------------------------------------------------------------*/
FoamFile
{
    version     2.0;
    format      ascii;
    class       volScalarField;
    location    "300";
    object      nut;
}
// * * * * * * * * * * * * * * * * * * * * * * * * * * * * * * * * * * * * * //

dimensions      [0 2 -1 0 0 0 0];


internalField   nonuniform List<scalar> 
12225
(
1.3948e-05
1.99548e-05
2.35831e-05
2.53972e-05
2.62562e-05
2.62911e-05
2.61528e-05
2.58267e-05
2.53652e-05
2.48845e-05
2.44223e-05
2.39774e-05
2.35901e-05
2.32058e-05
2.29181e-05
2.25813e-05
2.2414e-05
2.20937e-05
0.000182609
9.50577e-05
7.15092e-05
6.0022e-05
5.33331e-05
4.93204e-05
4.66486e-05
4.5146e-05
4.40058e-05
4.35584e-05
4.31126e-05
4.32068e-05
4.31265e-05
4.35336e-05
4.36602e-05
4.42691e-05
4.4543e-05
4.52705e-05
0.000658257
0.000382821
0.000277342
0.00021752
0.000182315
0.000155924
0.000138496
0.000124181
0.000114419
0.000105629
9.97091e-05
9.38938e-05
9.01802e-05
8.61529e-05
8.38369e-05
8.09589e-05
7.96573e-05
7.74893e-05
0.000848361
0.000704504
0.000584062
0.000487419
0.000424475
0.000371818
0.000336638
0.000303737
0.000282081
0.000259867
0.000245609
0.000229627
0.000219811
0.000207797
0.000200867
0.000191575
0.000186752
0.000179036
0.000862353
0.000821151
0.000782876
0.000717839
0.000666424
0.0006121
0.00057312
0.000532019
0.000503786
0.000472719
0.000452187
0.000428153
0.000413049
0.000393964
0.000382804
0.000367267
0.000359198
0.000345964
0.000855971
0.000846482
0.000838164
0.00081756
0.000796425
0.000766031
0.000741696
0.000711655
0.000689286
0.000662534
0.000643591
0.000620511
0.000605058
0.000585224
0.000572958
0.000555761
0.000546395
0.000531228
0.000852503
0.000850559
0.000848836
0.000843296
0.000837684
0.00082753
0.000818248
0.000804361
0.000793154
0.00077812
0.000766663
0.000751789
0.000741049
0.000726943
0.000717434
0.000704291
0.000696263
0.000684069
0.000851728
0.000850512
0.000849746
0.000847816
0.000845898
0.000842298
0.000838239
0.000833222
0.000827961
0.000820887
0.000814889
0.000806864
0.000800611
0.000792298
0.000786231
0.000777943
0.000772383
0.000764157
0.000851551
0.000850396
0.000849626
0.00084849
0.00084752
0.000846024
0.000844408
0.0008422
0.000839946
0.00083705
0.000833879
0.000830463
0.000826973
0.000822978
0.000819364
0.000815066
0.000811455
0.000806853
0.000851495
0.000850391
0.000849506
0.000848518
0.000847691
0.00084672
0.000845836
0.000844725
0.000843668
0.000842352
0.000841066
0.000839441
0.000837994
0.000836084
0.000834512
0.000832369
0.000830753
0.000828398
0.00085147
0.000850403
0.000849462
0.0008485
0.000847655
0.000846773
0.000846
0.00084516
0.000844419
0.000843574
0.000842839
0.00084195
0.000841193
0.000840249
0.000839461
0.000838459
0.000837642
0.000836591
0.000851458
0.000850408
0.000849443
0.000848494
0.000847624
0.000846762
0.000845976
0.000845189
0.000844474
0.000843746
0.000843087
0.000842405
0.000841787
0.00084114
0.000840551
0.00083993
0.000839361
0.000838761
0.000851452
0.000850411
0.000849432
0.00084849
0.000847604
0.000846751
0.000845948
0.000845174
0.000844444
0.00084374
0.000843075
0.000842431
0.000841823
0.000841233
0.000840673
0.00084013
0.000839612
0.000839111
0.000851449
0.000850411
0.000849425
0.000848485
0.000847592
0.00084674
0.00084593
0.000845156
0.000844419
0.000843716
0.000843045
0.000842403
0.000841791
0.000841205
0.000840645
0.000840109
0.000839596
0.000839105
0.000851448
0.00085041
0.000849421
0.00084848
0.000847584
0.00084673
0.000845916
0.000845141
0.000844401
0.000843695
0.00084302
0.000842376
0.000841761
0.000841172
0.000840609
0.000840071
0.000839556
0.000839063
0.000851447
0.000850408
0.000849419
0.000848476
0.000847578
0.000846723
0.000845907
0.000845129
0.000844387
0.000843678
0.000843001
0.000842355
0.000841737
0.000841146
0.000840581
0.00084004
0.000839522
0.000839027
0.000851447
0.000850408
0.000849417
0.000848474
0.000847575
0.000846718
0.0008459
0.000845121
0.000844377
0.000843667
0.000842988
0.00084234
0.00084172
0.000841127
0.00084056
0.000840017
0.000839498
0.000839001
0.000851447
0.000850407
0.000849417
0.000848473
0.000847573
0.000846715
0.000845897
0.000845117
0.000844372
0.000843661
0.000842981
0.000842331
0.00084171
0.000841116
0.000840548
0.000840004
0.000839484
0.000838986
0.000851447
0.000850408
0.000849417
0.000848473
0.000847573
0.000846716
0.000845897
0.000845117
0.000844372
0.00084366
0.00084298
0.00084233
0.000841708
0.000841113
0.000840545
0.000840001
0.00083948
0.000838981
0.000851447
0.000850408
0.000849418
0.000848474
0.000847575
0.000846718
0.0008459
0.000845119
0.000844374
0.000843663
0.000842982
0.000842333
0.000841711
0.000841116
0.000840547
0.000840003
0.000839482
0.000838983
0.000851447
0.00085041
0.000849418
0.000848477
0.000847578
0.000846722
0.000845904
0.000845125
0.000844379
0.000843668
0.000842986
0.000842337
0.000841712
0.000841116
0.000840542
0.000839995
0.000839467
0.000838963
0.000851444
0.000850413
0.000849418
0.000848484
0.00084758
0.000846731
0.000845906
0.000845129
0.000844371
0.000843655
0.00084295
0.000842284
0.000841623
0.000840996
0.00084037
0.000839778
0.000839181
0.000838618
0.000851436
0.000850423
0.000849418
0.000848501
0.000847574
0.000846724
0.000845836
0.000845009
0.000844126
0.000843283
0.000842373
0.000841495
0.000840541
0.000839624
0.000838621
0.000837672
0.000836615
0.000835655
0.000851417
0.000850459
0.000849429
0.000848473
0.000847354
0.000846195
0.000844727
0.000843264
0.000841395
0.000839518
0.000837264
0.000835028
0.00083247
0.00082997
0.000827211
0.000824465
0.000821622
0.00081901
0.000851458
0.000850504
0.000848989
0.000847052
0.000843888
0.000839649
0.000834786
0.000829285
0.00082245
0.000815817
0.000808173
0.000801039
0.000793108
0.000785938
0.000778055
0.000771156
0.0007635
0.000757072
0.00085188
0.000847389
0.000841417
0.000830498
0.000814995
0.000798119
0.000778317
0.000759917
0.000740044
0.000722433
0.000704007
0.000688121
0.000671602
0.000657672
0.000643045
0.000631008
0.000618069
0.000607767
0.000843356
0.000824257
0.000778231
0.000728807
0.000678618
0.000636328
0.000595832
0.000563053
0.000531818
0.000506866
0.000482608
0.000463398
0.000444216
0.000429192
0.000413717
0.00040179
0.000389056
0.000379471
0.000784525
0.000631505
0.000513887
0.000434219
0.000376549
0.000335285
0.000301405
0.00027657
0.000254864
0.000238657
0.000223652
0.000212417
0.000201483
0.000193356
0.000185077
0.000179005
0.000172548
0.000167892
0.000338695
0.000197174
0.000148497
0.000123426
0.000107034
9.63517e-05
8.85108e-05
8.32137e-05
7.89632e-05
7.61145e-05
7.36125e-05
7.20023e-05
7.04474e-05
6.95285e-05
6.85313e-05
6.80218e-05
6.73673e-05
6.71044e-05
2.14109e-05
2.63748e-05
3.01786e-05
3.28472e-05
3.48032e-05
3.60314e-05
3.69845e-05
3.76597e-05
3.81504e-05
3.84414e-05
3.86274e-05
3.86722e-05
3.86477e-05
3.85805e-05
3.8454e-05
3.82905e-05
3.81044e-05
3.79016e-05
3.4441e-10
1.23124e-08
3.0927e-08
5.7292e-08
8.43409e-08
1.05316e-07
1.28432e-07
1.73288e-07
2.46903e-07
3.61337e-07
5.04763e-07
6.50226e-07
7.94837e-07
9.20138e-07
1.02707e-06
1.10656e-06
1.15102e-06
1.1698e-06
1.16435e-06
1.12278e-06
1.05368e-06
9.05392e-07
6.94684e-07
4.42575e-07
2.09573e-07
6.44817e-08
1.44042e-08
9.77297e-09
1.11499e-08
1.36508e-08
1.74917e-08
2.29341e-08
2.77712e-08
3.01436e-08
3.38904e-08
5.4679e-08
1.05102e-07
1.84848e-07
2.39562e-07
2.5774e-07
2.54269e-07
2.42477e-07
2.28902e-07
2.49535e-07
3.45296e-07
4.75619e-07
5.5915e-07
6.77853e-07
1.00908e-06
3.7061e-06
9.01397e-06
1.38861e-05
1.78484e-05
2.1123e-05
2.38626e-05
2.61977e-05
2.82195e-05
2.99978e-05
3.15846e-05
3.30202e-05
3.43361e-05
3.55649e-05
3.67288e-05
3.77975e-05
3.87969e-05
3.9731e-05
4.06159e-05
4.14552e-05
4.22587e-05
4.30287e-05
4.3772e-05
4.44911e-05
4.51887e-05
4.58679e-05
4.65293e-05
4.71757e-05
4.78068e-05
4.84248e-05
4.90291e-05
4.96213e-05
5.02007e-05
5.07682e-05
5.13234e-05
5.18667e-05
5.23974e-05
5.29159e-05
5.34214e-05
5.3914e-05
5.4393e-05
5.48584e-05
5.53097e-05
5.57468e-05
5.61697e-05
5.65785e-05
5.69742e-05
5.7358e-05
5.77324e-05
5.81009e-05
5.8459e-05
5.8803e-05
5.9136e-05
5.94562e-05
5.97643e-05
6.00596e-05
6.0342e-05
6.06111e-05
6.08668e-05
6.11087e-05
6.13366e-05
6.15501e-05
6.17491e-05
6.19332e-05
6.21022e-05
6.22557e-05
6.23937e-05
6.25157e-05
6.26215e-05
6.2711e-05
6.27838e-05
6.28398e-05
6.28788e-05
6.29005e-05
6.29049e-05
6.28918e-05
6.28612e-05
6.28131e-05
6.27474e-05
6.26638e-05
6.25604e-05
6.24339e-05
6.23289e-05
6.21138e-05
6.19729e-05
6.17441e-05
6.15379e-05
6.13011e-05
6.10502e-05
6.07796e-05
6.04917e-05
6.01857e-05
5.98622e-05
5.95193e-05
5.91603e-05
5.87836e-05
5.83862e-05
5.79803e-05
5.75535e-05
5.7114e-05
5.66585e-05
5.61892e-05
5.57059e-05
5.52094e-05
5.47003e-05
5.41793e-05
5.3647e-05
5.3104e-05
5.25511e-05
5.19892e-05
5.14189e-05
5.08409e-05
5.02561e-05
4.96651e-05
4.90685e-05
4.84671e-05
4.78614e-05
4.72521e-05
4.66402e-05
4.60258e-05
4.54093e-05
4.4792e-05
4.42051e-05
4.38533e-05
4.36639e-05
4.34734e-05
4.32613e-05
4.30156e-05
4.2706e-05
4.22816e-05
4.17092e-05
3.86326e-05
1.77495e-09
5.7038e-09
3.19062e-08
8.13878e-08
1.90787e-07
5.80633e-07
1.25951e-06
2.27312e-06
3.63822e-06
5.16721e-06
6.91718e-06
8.61864e-06
1.02453e-05
1.14849e-05
1.24585e-05
1.27708e-05
1.27362e-05
1.19965e-05
1.05181e-05
8.30554e-06
6.22626e-06
4.41138e-06
3.02481e-06
1.99471e-06
1.21867e-06
7.018e-07
3.75605e-07
2.05383e-07
1.25155e-07
8.50323e-08
6.07134e-08
5.17023e-08
8.12123e-08
2.78871e-07
5.90494e-07
2.00776e-06
4.09124e-06
6.76547e-06
7.9364e-06
7.51766e-06
6.6746e-06
5.76885e-06
4.77444e-06
4.74617e-06
4.18567e-06
4.87182e-06
6.83428e-06
1.02721e-05
1.50106e-05
2.18866e-05
2.9877e-05
3.86283e-05
4.8214e-05
5.86347e-05
7.01759e-05
8.27286e-05
9.62522e-05
0.000110467
0.00012513
0.000139933
0.000154237
0.000167912
0.000180775
0.000192831
0.000204062
0.000214417
0.000224264
0.000233312
0.000242032
0.000250303
0.000258007
0.000265515
0.000272675
0.000279671
0.000286454
0.000293114
0.000299642
0.000306085
0.000312447
0.000318753
0.00032501
0.000331233
0.000337427
0.000343599
0.000349754
0.000355894
0.00036202
0.000368132
0.000374225
0.000380294
0.000386327
0.00039231
0.000398219
0.000404024
0.000409679
0.000415124
0.000420276
0.000425035
0.000429637
0.000434261
0.00043882
0.000443359
0.000447852
0.00045231
0.000456723
0.000461092
0.000465412
0.00046968
0.000473894
0.000478049
0.000482144
0.000486173
0.000490135
0.000494025
0.000497839
0.000501575
0.000505228
0.000508795
0.000512272
0.000515654
0.000518939
0.000522121
0.000525197
0.000528163
0.000531016
0.000533751
0.000536365
0.000538854
0.000541218
0.00054346
0.000545593
0.000547549
0.000549427
0.000551095
0.000552644
0.000554044
0.000555295
0.000556401
0.000557357
0.000558165
0.000558836
0.00055933
0.000559666
0.000559885
0.000559833
0.000559735
0.00055946
0.000559041
0.000558477
0.000557771
0.000556925
0.000555943
0.000554824
0.000553583
0.000552225
0.000550747
0.000549155
0.000547455
0.000545653
0.000543756
0.000541769
0.000539698
0.000537551
0.00053533
0.000533041
0.000530688
0.000528282
0.000525815
0.000523279
0.000520658
0.000517836
0.000514374
0.000510214
0.000505712
0.000500957
0.000495874
0.000490226
0.000483831
0.000476002
0.000449957
2.29904e-09
4.16996e-09
3.65924e-08
1.84947e-07
5.06744e-07
1.27907e-06
2.5931e-06
4.68356e-06
7.14546e-06
1.02359e-05
1.3837e-05
1.75631e-05
2.14077e-05
2.48668e-05
2.77367e-05
2.94912e-05
3.04659e-05
3.05533e-05
2.91352e-05
2.6752e-05
2.34975e-05
1.93845e-05
1.4722e-05
1.06359e-05
7.05854e-06
4.57404e-06
2.58505e-06
1.48923e-06
8.653e-07
5.4312e-07
3.91508e-07
3.16478e-07
3.01876e-07
1.14377e-06
2.33533e-06
7.15483e-06
1.34507e-05
1.95937e-05
2.12395e-05
1.89393e-05
1.65242e-05
1.05081e-05
9.3773e-06
1.25623e-05
1.69958e-05
2.33882e-05
3.37598e-05
4.67885e-05
6.3489e-05
8.47484e-05
0.000110461
0.000139628
0.000173428
0.000211043
0.000251275
0.000292498
0.000333275
0.000372302
0.000408741
0.00044207
0.000472692
0.000500746
0.000526447
0.000549812
0.000571557
0.000591671
0.000610747
0.000628397
0.000645243
0.000661252
0.000676592
0.000691444
0.000705823
0.000719866
0.000733593
0.000747085
0.000760367
0.000773485
0.000786461
0.000799322
0.000812086
0.000824766
0.000837373
0.000849915
0.000862395
0.000874816
0.000887174
0.000899465
0.000911681
0.000923809
0.000935832
0.000947731
0.000959478
0.000971046
0.000982404
0.000993525
0.0010044
0.00101508
0.00102571
0.00103627
0.00104675
0.00105714
0.00106743
0.00107763
0.00108772
0.00109769
0.00110755
0.00111728
0.00112687
0.00113632
0.00114562
0.00115477
0.00116375
0.00117256
0.00118119
0.00118963
0.00119787
0.00120591
0.00121373
0.00122133
0.0012287
0.00123583
0.00124271
0.00124933
0.00125569
0.00126177
0.00126758
0.0012731
0.00127832
0.00128326
0.00128789
0.00129218
0.00129618
0.00129981
0.00130312
0.00130609
0.00130871
0.001311
0.00131295
0.00131452
0.00131565
0.00131652
0.00131715
0.00131733
0.00131714
0.00131661
0.00131573
0.00131451
0.00131295
0.00131107
0.00130887
0.00130636
0.00130355
0.00130046
0.00129708
0.00129344
0.00128954
0.0012854
0.00128102
0.00127642
0.00127162
0.00126663
0.00126146
0.00125613
0.00125065
0.00124502
0.00123927
0.00123338
0.00122736
0.00122119
0.00121471
0.00120745
0.00119927
0.00119046
0.00118108
0.00117099
0.00115973
0.00114683
0.00113064
0.00108447
2.50068e-09
8.36258e-09
9.99311e-08
4.43894e-07
1.18301e-06
3.07863e-06
6.05465e-06
1.05048e-05
1.59923e-05
2.36533e-05
3.21099e-05
4.06137e-05
4.77051e-05
5.27205e-05
5.61911e-05
5.81171e-05
5.82819e-05
5.73952e-05
5.471e-05
5.1221e-05
4.68242e-05
4.13089e-05
3.45637e-05
2.76182e-05
2.05952e-05
1.46108e-05
9.93757e-06
6.28987e-06
3.92956e-06
2.41762e-06
1.62982e-06
1.28447e-06
1.53598e-06
3.38988e-06
8.34891e-06
2.01008e-05
2.63156e-05
3.06668e-05
2.22968e-05
1.69635e-05
1.85158e-05
2.32599e-05
3.24112e-05
4.29073e-05
5.67463e-05
7.84171e-05
0.000108232
0.000140741
0.000182547
0.000229745
0.000283403
0.000340093
0.000400265
0.000460811
0.00052068
0.000578294
0.000632874
0.000683884
0.000731172
0.000774863
0.00081523
0.000852192
0.00088664
0.000918998
0.000949012
0.000977241
0.00100394
0.00102926
0.00105349
0.00107676
0.00109924
0.00112105
0.00114229
0.00116307
0.00118344
0.00120348
0.00122323
0.00124274
0.00126204
0.00128116
0.00130012
0.00131894
0.00133762
0.00135619
0.00137464
0.00139297
0.00141118
0.00142927
0.00144722
0.00146502
0.00148267
0.00150014
0.00151742
0.0015345
0.00155137
0.00156804
0.00158451
0.00160084
0.00161707
0.00163317
0.00164914
0.00166497
0.00168065
0.00169616
0.00171151
0.00172667
0.00174165
0.00175642
0.00177098
0.00178532
0.00179943
0.00181329
0.00182691
0.00184025
0.00185332
0.00186611
0.00187859
0.00189077
0.00190263
0.00191415
0.00192532
0.00193614
0.00194658
0.00195665
0.00196632
0.00197559
0.00198445
0.00199288
0.00200088
0.00200844
0.00201554
0.00202216
0.00202832
0.00203397
0.00203913
0.00204379
0.00204796
0.00205162
0.00205476
0.00205733
0.00205928
0.00206092
0.00206209
0.00206264
0.00206265
0.00206215
0.00206113
0.0020596
0.00205758
0.00205507
0.00205208
0.00204862
0.00204471
0.00204037
0.0020356
0.00203042
0.00202485
0.00201889
0.00201258
0.00200594
0.00199897
0.0019917
0.00198417
0.00197638
0.00196834
0.00196008
0.0019516
0.00194292
0.00193405
0.00192496
0.00191553
0.00190539
0.00189438
0.00188258
0.00187002
0.0018565
0.00184148
0.00182417
0.00180292
0.00174857
3.28604e-09
2.77515e-08
2.40706e-07
9.76195e-07
3.23711e-06
7.95141e-06
1.54901e-05
2.72223e-05
4.19235e-05
5.54667e-05
6.5224e-05
7.24083e-05
7.75496e-05
8.06352e-05
8.23228e-05
8.27606e-05
8.20405e-05
8.00978e-05
7.68695e-05
7.27133e-05
6.76203e-05
6.14096e-05
5.40016e-05
4.59061e-05
3.70313e-05
2.85215e-05
2.07485e-05
1.48671e-05
9.89364e-06
6.90727e-06
5.02067e-06
4.31774e-06
5.84804e-06
1.406e-05
3.08937e-05
3.69987e-05
2.91258e-05
2.86739e-05
3.23358e-05
3.79999e-05
4.77571e-05
5.97423e-05
7.75719e-05
0.000106359
0.000143738
0.000190665
0.000242546
0.000301603
0.00036816
0.00043759
0.000510451
0.000583631
0.000656903
0.000728207
0.000797001
0.000862491
0.000924383
0.000982575
0.00103675
0.00108739
0.00113519
0.00117968
0.00122143
0.00126077
0.00129784
0.001333
0.00136647
0.00139847
0.00142921
0.00145886
0.00148758
0.00151551
0.00154274
0.00156938
0.00159551
0.00162121
0.00164652
0.00167151
0.0016962
0.00172064
0.00174484
0.00176884
0.00179263
0.00181624
0.00183967
0.00186293
0.001886
0.00190889
0.0019316
0.00195411
0.00197643
0.00199853
0.00202042
0.0020421
0.00206358
0.00208485
0.00210594
0.00212685
0.00214761
0.00216819
0.00218858
0.00220878
0.00222877
0.00224854
0.00226808
0.00228738
0.00230643
0.00232522
0.00234372
0.00236195
0.00237987
0.00239748
0.00241477
0.00243172
0.00244832
0.00246457
0.00248044
0.00249592
0.002511
0.00252567
0.00253992
0.00255372
0.00256708
0.00257997
0.00259238
0.00260429
0.00261571
0.00262661
0.00263699
0.00264683
0.00265611
0.00266483
0.00267298
0.00268054
0.00268748
0.00269383
0.00269958
0.00270472
0.00270924
0.00271303
0.00271613
0.00271885
0.0027209
0.00272225
0.00272294
0.00272299
0.00272242
0.00272121
0.0027194
0.00271697
0.00271395
0.00271034
0.00270616
0.00270142
0.00269615
0.00269035
0.00268405
0.00267725
0.00267
0.0026623
0.00265418
0.00264566
0.00263674
0.00262747
0.00261787
0.00260796
0.00259774
0.00258726
0.00257654
0.00256555
0.0025542
0.00254225
0.00252953
0.00251603
0.00250171
0.00248637
0.00246952
0.00245029
0.0024268
0.00237284
2.14631e-09
6.6549e-08
5.95765e-07
2.74359e-06
9.38915e-06
2.18989e-05
4.05087e-05
5.72618e-05
7.04009e-05
8.0666e-05
8.75171e-05
9.2381e-05
9.56983e-05
9.76937e-05
9.85351e-05
9.83112e-05
9.7098e-05
9.47269e-05
9.13482e-05
8.73704e-05
8.20885e-05
7.57497e-05
6.82338e-05
5.97611e-05
5.02927e-05
4.05205e-05
3.10692e-05
2.29572e-05
1.87441e-05
1.28927e-05
9.07157e-06
1.26756e-05
2.84923e-05
5.09121e-05
5.22402e-05
5.00594e-05
4.86479e-05
5.28177e-05
6.04782e-05
7.26406e-05
9.38375e-05
0.000127516
0.000170464
0.000222302
0.000283593
0.000351446
0.00042384
0.000501459
0.000582038
0.000663356
0.000745135
0.000825705
0.000904618
0.000980921
0.00105428
0.00112425
0.00119047
0.00125347
0.00131331
0.00136962
0.00142288
0.00147314
0.00152071
0.00156582
0.00160869
0.00164957
0.00168867
0.0017262
0.00176234
0.00179728
0.00183115
0.00186409
0.00189622
0.00192765
0.00195846
0.00198872
0.00201851
0.00204788
0.00207687
0.00210552
0.00213386
0.00216191
0.0021897
0.00221724
0.00224453
0.00227159
0.00229842
0.00232501
0.00235137
0.00237749
0.00240338
0.00242902
0.00245443
0.0024796
0.00250454
0.00252927
0.00255377
0.00257806
0.00260213
0.00262597
0.00264958
0.00267294
0.00269604
0.00271888
0.00274143
0.0027637
0.00278566
0.00280731
0.00282864
0.00284963
0.00287028
0.00289057
0.00291048
0.00293001
0.00294914
0.00296786
0.00298617
0.00300405
0.00302148
0.00303846
0.00305497
0.00307099
0.00308652
0.00310154
0.00311603
0.00312999
0.00314341
0.00315627
0.00316856
0.00318026
0.00319137
0.00320187
0.00321179
0.003221
0.00322958
0.00323753
0.00324482
0.00325145
0.00325741
0.00326257
0.00326705
0.00327104
0.00327426
0.00327674
0.00327851
0.00327958
0.00327994
0.00327961
0.00327859
0.00327689
0.00327451
0.00327147
0.00326778
0.00326345
0.0032585
0.00325294
0.0032468
0.00324008
0.00323281
0.00322502
0.00321673
0.00320795
0.00319871
0.00318904
0.00317895
0.00316849
0.00315764
0.00314644
0.00313489
0.00312302
0.00311078
0.00309803
0.00308463
0.00307051
0.00305561
0.00303977
0.00302258
0.00300341
0.00297998
0.00293062
8.76617e-09
1.94011e-07
1.67137e-06
8.6417e-06
2.59111e-05
4.91791e-05
6.85674e-05
8.28407e-05
9.14531e-05
9.69705e-05
0.000101097
0.000104101
0.000106054
0.000107125
0.000107362
0.000106757
0.000105317
0.00010293
9.97499e-05
9.57301e-05
9.05635e-05
8.44305e-05
7.72764e-05
6.89345e-05
5.9528e-05
4.97136e-05
3.95114e-05
2.92051e-05
2.16636e-05
2.04025e-05
2.68778e-05
4.61905e-05
6.73075e-05
6.93558e-05
6.67143e-05
6.67747e-05
7.07285e-05
8.29084e-05
0.00010473
0.000139013
0.000185555
0.000240195
0.000305037
0.0003764
0.000454397
0.000535728
0.000619975
0.000706373
0.000793313
0.000879763
0.000965232
0.0010489
0.00113036
0.0012091
0.00128459
0.00135738
0.00142727
0.00149385
0.00155733
0.00161771
0.00167515
0.0017298
0.00178184
0.00183146
0.00187884
0.00192419
0.0019677
0.00200956
0.00204993
0.00208898
0.00212686
0.0021637
0.00219961
0.00223471
0.00226908
0.00230281
0.00233597
0.00236861
0.00240079
0.00243256
0.00246394
0.00249496
0.00252565
0.00255603
0.0025861
0.00261588
0.00264538
0.0026746
0.00270355
0.00273222
0.00276062
0.00278874
0.00281659
0.00284418
0.00287149
0.00289852
0.00292529
0.00295179
0.00297803
0.003004
0.00302969
0.0030551
0.0030802
0.003105
0.00312949
0.00315364
0.00317746
0.00320094
0.00322407
0.00324683
0.00326921
0.00329122
0.00331286
0.0033341
0.00335493
0.00337533
0.0033953
0.00341482
0.00343387
0.00345246
0.00347056
0.00348816
0.00350526
0.00352183
0.00353787
0.00355336
0.00356829
0.00358265
0.00359643
0.00360962
0.00362221
0.00363422
0.00364554
0.0036562
0.00366622
0.00367559
0.00368429
0.00369231
0.00369965
0.00370618
0.00371217
0.00371755
0.00372216
0.00372604
0.00372918
0.0037316
0.00373329
0.00373425
0.00373449
0.00373401
0.00373281
0.00373092
0.00372832
0.00372504
0.00372108
0.00371646
0.0037112
0.00370531
0.00369881
0.00369171
0.00368405
0.00367585
0.00366712
0.00365789
0.00364819
0.00363804
0.00362743
0.00361643
0.00360506
0.00359332
0.00358119
0.00356861
0.00355548
0.00354173
0.0035273
0.00351207
0.00349573
0.00347778
0.00345646
0.00341278
8.28771e-08
5.93757e-07
4.86303e-06
2.28435e-05
4.86799e-05
7.02223e-05
8.55487e-05
9.47385e-05
0.000100177
0.000103962
0.000106608
0.000108487
0.000109807
0.000110572
0.000110644
0.000109994
0.00010856
0.000106094
0.000102709
9.80695e-05
9.21276e-05
8.51589e-05
7.75434e-05
6.95437e-05
5.94654e-05
4.72154e-05
3.67499e-05
2.69152e-05
2.56675e-05
4.01778e-05
6.47599e-05
7.99715e-05
8.12354e-05
8.17071e-05
8.14441e-05
8.96504e-05
0.000110757
0.000144487
0.000189208
0.000244612
0.000310422
0.000382554
0.000461842
0.000544817
0.000631362
0.000719498
0.000808913
0.000898732
0.000988036
0.00107623
0.00116289
0.00124761
0.0013296
0.00140922
0.00148674
0.00156132
0.00163307
0.00170192
0.00176789
0.00183103
0.00189143
0.00194917
0.0020044
0.00205727
0.00210792
0.00215652
0.00220323
0.00224823
0.00229167
0.0023337
0.00237446
0.00241408
0.00245269
0.00249037
0.00252724
0.00256337
0.00259885
0.00263373
0.00266807
0.00270192
0.00273532
0.0027683
0.00280089
0.00283311
0.00286498
0.0028965
0.0029277
0.00295859
0.00298916
0.00301942
0.00304938
0.00307904
0.0031084
0.00313745
0.00316619
0.00319462
0.00322276
0.00325062
0.00327819
0.00330547
0.00333244
0.00335911
0.00338546
0.00341149
0.00343719
0.00346256
0.00348757
0.00351223
0.00353652
0.00356044
0.00358399
0.00360714
0.0036299
0.00365224
0.00367417
0.00369568
0.00371675
0.00373737
0.00375754
0.00377725
0.00379648
0.00381522
0.00383347
0.00385121
0.00386843
0.00388513
0.00390128
0.00391688
0.00393191
0.00394638
0.00396031
0.00397361
0.00398627
0.00399831
0.00400973
0.00402051
0.00403065
0.00404013
0.00404894
0.00405698
0.00406445
0.00407123
0.00407727
0.00408258
0.00408717
0.00409102
0.00409414
0.00409653
0.00409818
0.0040991
0.00409929
0.00409876
0.0040975
0.00409552
0.00409284
0.00408947
0.00408541
0.00408068
0.00407529
0.00406927
0.00406264
0.0040554
0.00404759
0.00403924
0.00403035
0.00402098
0.0040113
0.0040012
0.00399069
0.00397979
0.00396849
0.00395677
0.00394457
0.00393185
0.00391858
0.00390467
0.00388991
0.003874
0.00385553
0.00381887
2.80894e-07
1.5179e-06
1.28165e-05
4.13872e-05
7.00592e-05
8.9693e-05
0.000100373
0.00010458
0.000106698
0.000108082
0.0001093
0.000110352
0.000111061
0.000111399
0.000111177
0.000110017
0.000107838
0.000104726
0.000100603
9.52502e-05
8.85513e-05
8.05815e-05
7.17242e-05
6.22608e-05
5.43907e-05
4.86324e-05
4.55642e-05
4.95587e-05
6.06623e-05
7.8259e-05
8.94399e-05
9.26242e-05
9.41048e-05
9.55327e-05
0.000112385
0.000143375
0.000185586
0.000238636
0.000302202
0.000373781
0.000452087
0.000534475
0.000620866
0.000709265
0.000799345
0.000890055
0.000980957
0.00107143
0.00116094
0.0012491
0.00133536
0.00141937
0.00150187
0.00158204
0.00165984
0.00173508
0.00180773
0.00187774
0.0019451
0.00200983
0.00207198
0.0021316
0.00218881
0.00224371
0.00229642
0.00234709
0.00239584
0.00244284
0.00248822
0.00253212
0.0025747
0.00261606
0.00265632
0.00269559
0.00273395
0.00277151
0.00280834
0.0028445
0.00288007
0.00291508
0.00294959
0.00298363
0.00301723
0.00305042
0.00308323
0.00311569
0.00314779
0.00317953
0.00321092
0.00324197
0.00327268
0.00330307
0.00333312
0.00336285
0.00339227
0.00342137
0.00345017
0.00347866
0.00350685
0.00353473
0.0035623
0.00358955
0.00361647
0.00364306
0.00366932
0.00369523
0.00372079
0.003746
0.00377085
0.00379532
0.00381943
0.00384315
0.00386649
0.00388943
0.00391197
0.0039341
0.00395581
0.0039771
0.00399797
0.00401839
0.00403837
0.00405789
0.00407695
0.00409554
0.00411364
0.00413125
0.00414836
0.00416495
0.00418103
0.0041966
0.00421165
0.0042261
0.00423999
0.00425331
0.00426604
0.00427819
0.00428972
0.00430065
0.00431094
0.00432057
0.00432963
0.00433801
0.00434568
0.00435267
0.00435896
0.00436455
0.00436943
0.0043736
0.00437705
0.00437977
0.00438178
0.00438306
0.00438361
0.00438345
0.00438257
0.00438097
0.00437867
0.00437568
0.004372
0.00436765
0.00436265
0.00435702
0.00435077
0.00434392
0.0043365
0.00432853
0.00432005
0.0043111
0.0043017
0.00429187
0.00428164
0.004271
0.00425993
0.00424843
0.00423648
0.00422405
0.00421101
0.0041972
0.00418168
0.00415203
5.3867e-07
3.37248e-06
2.52706e-05
5.99849e-05
8.56288e-05
0.000100151
0.000104734
0.000105937
0.000106403
0.000107206
0.000108385
0.000109485
0.000110057
0.000109831
0.000108581
0.000106501
0.000103977
0.000100203
9.53181e-05
8.94795e-05
8.2732e-05
7.52121e-05
6.73199e-05
5.96213e-05
5.46388e-05
5.42215e-05
5.97834e-05
7.42274e-05
8.93039e-05
9.8054e-05
0.000102141
0.000104023
0.000112693
0.0001377
0.000176817
0.000225341
0.000285577
0.000353853
0.000429539
0.000510085
0.000594524
0.000681452
0.000770475
0.000860547
0.000951237
0.00104196
0.00113231
0.00122188
0.00131032
0.00139693
0.00148192
0.00156556
0.00164719
0.0017267
0.00180398
0.00187894
0.00195151
0.00202165
0.00208932
0.00215451
0.00221725
0.0022776
0.00233561
0.00239138
0.00244501
0.00249661
0.00254629
0.00259419
0.00264044
0.00268519
0.00272856
0.00277067
0.00281166
0.00285168
0.0028908
0.00292905
0.00296649
0.00300321
0.00303926
0.00307469
0.00310957
0.00314393
0.00317779
0.0032112
0.00324417
0.00327672
0.00330887
0.00334066
0.0033721
0.0034032
0.00343397
0.00346441
0.00349453
0.00352434
0.00355385
0.00358305
0.00361194
0.00364052
0.00366879
0.00369675
0.00372439
0.00375172
0.00377873
0.00380542
0.00383177
0.0038578
0.00388348
0.00390883
0.00393382
0.00395847
0.00398277
0.0040067
0.00403027
0.00405347
0.0040763
0.00409875
0.00412082
0.0041425
0.00416379
0.00418469
0.00420517
0.00422525
0.00424491
0.00426415
0.00428295
0.00430131
0.00431922
0.00433667
0.00435366
0.00437021
0.00438626
0.00440182
0.00441686
0.0044314
0.00444541
0.00445889
0.00447183
0.00448421
0.00449602
0.00450726
0.00451798
0.00452804
0.00453744
0.00454621
0.00455434
0.00456181
0.00456861
0.00457473
0.00458017
0.00458492
0.00458896
0.0045923
0.00459493
0.00459685
0.00459805
0.00459853
0.00459831
0.00459738
0.00459575
0.00459343
0.00459043
0.00458676
0.00458244
0.0045775
0.00457194
0.00456579
0.00455909
0.00455187
0.00454416
0.00453599
0.00452738
0.00451837
0.00450897
0.00449919
0.00448905
0.00447855
0.00446763
0.00445624
0.00444358
0.00441998
7.49956e-07
6.83972e-06
4.0221e-05
7.83446e-05
0.000100686
0.000107781
0.000107981
0.000105951
0.000104738
0.00010466
0.000105054
0.000105272
0.000104886
0.000103503
0.000101466
9.85053e-05
9.45801e-05
8.99492e-05
8.46347e-05
7.88413e-05
7.24658e-05
6.67712e-05
6.2917e-05
6.19446e-05
6.4947e-05
7.51847e-05
8.86447e-05
9.87554e-05
0.000105919
0.000110685
0.000115697
0.000133363
0.000164687
0.000209018
0.000264385
0.000327801
0.0003996
0.000476408
0.000557702
0.000641887
0.000728331
0.000816249
0.000905204
0.000994613
0.0010841
0.00117327
0.00126181
0.0013494
0.00143536
0.00152026
0.00160374
0.00168554
0.00176549
0.00184346
0.00191934
0.00199307
0.00206457
0.00213379
0.00220071
0.00226528
0.00232748
0.00238739
0.00244507
0.00250058
0.00255403
0.00260555
0.00265537
0.00270348
0.00274993
0.0027948
0.00283825
0.00288038
0.0029213
0.00296109
0.00299983
0.00303763
0.00307463
0.0031109
0.0031465
0.00318149
0.00321592
0.00324984
0.00328328
0.00331627
0.00334885
0.00338104
0.00341284
0.00344429
0.00347538
0.00350614
0.00353657
0.00356668
0.00359649
0.00362599
0.00365518
0.00368408
0.00371268
0.00374098
0.00376898
0.00379668
0.00382408
0.00385118
0.00387798
0.00390447
0.00393065
0.00395653
0.00398209
0.00400733
0.00403225
0.00405685
0.00408113
0.00410508
0.0041287
0.00415199
0.00417495
0.00419756
0.00421984
0.00424177
0.00426336
0.0042846
0.00430549
0.00432602
0.00434619
0.00436599
0.00438541
0.00440445
0.0044231
0.00444136
0.00445922
0.00447668
0.00449373
0.00451036
0.00452655
0.0045423
0.0045576
0.00457242
0.00458677
0.00460064
0.00461401
0.0046269
0.00463937
0.00465115
0.00466236
0.00467301
0.00468307
0.00469253
0.00470137
0.00470959
0.00471716
0.00472408
0.00473033
0.0047359
0.00474079
0.00474498
0.00474847
0.00475126
0.00475334
0.0047547
0.00475537
0.00475533
0.00475459
0.00475316
0.00475106
0.00474829
0.00474488
0.00474085
0.00473622
0.00473103
0.00472531
0.00471909
0.00471242
0.00470532
0.00469785
0.00469003
0.00468191
0.00467352
0.00466485
0.00465594
0.0046462
0.00462836
8.7443e-07
1.17667e-05
5.23539e-05
9.10816e-05
0.000110008
0.000111525
0.000106654
0.000102164
9.97322e-05
9.88274e-05
9.85196e-05
9.8061e-05
9.70029e-05
9.51126e-05
9.2853e-05
8.96723e-05
8.59643e-05
8.1469e-05
7.7231e-05
7.32496e-05
6.97798e-05
6.76341e-05
7.04689e-05
8.04612e-05