/*--------------------------------*- C++ -*----------------------------------*\
  =========                 |
  \\      /  F ield         | OpenFOAM: The Open Source CFD Toolbox
   \\    /   O peration     | Website:  https://openfoam.org
    \\  /    A nd           | Version:  8
     \\/     M anipulation  |
\*---------------------------------------------------------------------------*/
FoamFile
{
    version     2.0;
    format      ascii;
    class       volScalarField;
    location    "300";
    object      nut;
}
// * * * * * * * * * * * * * * * * * * * * * * * * * * * * * * * * * * * * * //

dimensions      [0 2 -1 0 0 0 0];

internalField   nonuniform List<scalar> 
12225
(
2.27864e-05
3.83408e-05
4.45394e-05
4.51778e-05
4.36878e-05
0.000113042
4.44828e-05
3.79825e-05
4.32866e-05
4.46252e-05
4.00407e-05
3.78844e-05
7.62669e-05
3.68518e-05
4.41004e-05
4.44186e-05
4.59987e-05
4.05231e-05
6.24427e-05
7.12539e-05
7.45926e-05
7.2599e-05
6.29335e-05
7.04332e-05
6.82897e-05
5.76642e-05
5.94683e-05
5.64976e-05
5.65475e-05
5.67414e-05
6.15278e-05
6.03235e-05
5.99965e-05
6.14888e-05
6.24467e-05
6.35328e-05
0.000209066
0.000235072
0.000223078
0.000195275
0.000159545
0.000141131
0.000127523
0.000117429
0.000110822
0.000106446
0.000102335
9.95203e-05
9.89762e-05
9.6301e-05
9.45432e-05
9.28276e-05
9.24518e-05
9.03145e-05
0.0005512
0.000534355
0.000500989
0.000444399
0.000376156
0.000323572
0.000290227
0.000264779
0.000248431
0.000231978
0.000222189
0.000210275
0.000203484
0.000193921
0.0001887
0.000181327
0.000177165
0.000170648
0.00079273
0.000754518
0.000728678
0.000681832
0.000622254
0.0005603
0.000517103
0.000478361
0.000453477
0.000426828
0.000410511
0.000390211
0.000378075
0.000361489
0.000352191
0.00033854
0.000331154
0.000318927
0.000850785
0.000833178
0.000820968
0.000800267
0.000771589
0.000731979
0.000701229
0.000668448
0.00064595
0.00062006
0.000602943
0.000581406
0.000567641
0.000549141
0.000538089
0.000521995
0.000513105
0.000498382
0.000854322
0.000852045
0.000845892
0.00083869
0.000829016
0.000813807
0.000798983
0.000780997
0.000767837
0.000751384
0.000739599
0.000724284
0.000713699
0.000699491
0.000690287
0.000677114
0.000669306
0.000656831
0.000853193
0.00085154
0.000849508
0.000846952
0.000843353
0.000837733
0.000830989
0.000822328
0.00081551
0.000806701
0.000799857
0.000790812
0.000784077
0.000775089
0.000768758
0.00075999
0.000754249
0.000745487
0.000851898
0.000850914
0.000849743
0.000848443
0.000847029
0.000844684
0.000841891
0.000838336
0.000834754
0.000830888
0.000827034
0.000822529
0.00081859
0.000813723
0.000809782
0.0008048
0.000800981
0.000795674
0.00085156
0.000850524
0.000849577
0.000848552
0.000847663
0.000846505
0.000845279
0.000843759
0.000842247
0.000840429
0.000838726
0.000836619
0.000834726
0.000832428
0.00083038
0.000827996
0.000825822
0.000823188
0.000851486
0.000850423
0.00084948
0.000848514
0.00084767
0.000846768
0.000845945
0.00084502
0.000844181
0.0008432
0.000842316
0.000841263
0.000840325
0.000839202
0.000838228
0.000837036
0.000836065
0.00083478
0.000851463
0.00085041
0.000849447
0.0008485
0.000847636
0.000846774
0.000845989
0.000845192
0.000844466
0.000843714
0.000843028
0.000842305
0.000841645
0.000840942
0.000840306
0.000839618
0.000839004
0.000838328
0.000851455
0.000850411
0.000849434
0.000848495
0.000847613
0.000846763
0.000845962
0.000845189
0.00084446
0.000843753
0.000843085
0.000842435
0.00084182
0.000841219
0.00084065
0.000840094
0.000839567
0.000839049
0.000851451
0.00085041
0.000849427
0.000848487
0.000847599
0.000846748
0.000845941
0.000845168
0.000844435
0.000843729
0.000843061
0.000842417
0.000841806
0.000841216
0.000840658
0.000840118
0.000839606
0.000839112
0.000851449
0.00085041
0.000849421
0.000848482
0.000847588
0.000846736
0.000845925
0.000845151
0.000844413
0.000843708
0.000843034
0.000842391
0.000841775
0.000841189
0.000840625
0.000840089
0.000839574
0.000839083
0.000851448
0.000850407
0.000849418
0.000848477
0.00084758
0.000846727
0.000845913
0.000845138
0.000844397
0.000843691
0.000843015
0.000842371
0.000841753
0.000841164
0.000840599
0.000840061
0.000839544
0.000839052
0.000851447
0.000850408
0.000849417
0.000848475
0.000847578
0.000846723
0.000845908
0.000845131
0.000844389
0.000843681
0.000843004
0.000842358
0.000841739
0.000841149
0.000840582
0.000840043
0.000839524
0.000839031
0.000851446
0.000850411
0.000849418
0.000848478
0.000847577
0.000846725
0.000845906
0.000845132
0.000844386
0.00084368
0.000842999
0.000842355
0.000841733
0.000841144
0.000840575
0.000840036
0.000839516
0.000839022
0.000851447
0.00085041
0.000849422
0.000848478
0.000847582
0.000846725
0.000845912
0.000845132
0.000844392
0.00084368
0.000843005
0.000842355
0.000841739
0.000841144
0.00084058
0.000840036
0.00083952
0.000839022
0.000851447
0.000850411
0.000849422
0.000848481
0.000847583
0.00084673
0.000845915
0.000845139
0.000844396
0.00084369
0.000843011
0.000842366
0.000841745
0.000841156
0.000840587
0.000840047
0.000839527
0.000839032
0.000851445
0.000850413
0.000849423
0.000848486
0.000847588
0.000846737
0.000845921
0.000845148
0.000844405
0.000843699
0.00084302
0.000842373
0.000841751
0.000841158
0.000840586
0.00084004
0.000839512
0.000839008
0.000851446
0.000850416
0.000849425
0.00084849
0.000847591
0.000846744
0.000845924
0.000845147
0.00084439
0.000843672
0.000842966
0.000842294
0.000841629
0.000840994
0.000840359
0.000839754
0.000839142
0.000838561
0.000851438
0.000850433
0.000849423
0.0008485
0.000847562
0.00084669
0.000845778
0.000844908
0.00084399
0.000843104
0.00084215
0.000841223
0.00084021
0.000839229
0.00083814
0.000837122
0.000835959
0.000834904
0.000851487
0.000850503
0.000849306
0.000848253
0.000846942
0.000845615
0.000843924
0.00084218
0.000840107
0.000838002
0.00083558
0.000833105
0.000830337
0.000827434
0.000824518
0.000821548
0.000818298
0.000815359
0.000852124
0.000850621
0.000847569
0.000844686
0.000840213
0.000835458
0.000830041
0.000823692
0.000816206
0.000809137
0.000801014
0.000793435
0.000784934
0.000777211
0.000768656
0.000761142
0.000752754
0.00074569
0.000856993
0.000848189
0.000832561
0.000816448
0.000802779
0.000783975
0.000762572
0.000743199
0.0007226
0.000704579
0.000685642
0.000669322
0.000652223
0.000637788
0.000622566
0.000610029
0.000596534
0.000585801
0.000890964
0.000812911
0.000756418
0.000704334
0.000652338
0.000607864
0.000566972
0.000534456
0.000503926
0.000479779
0.000456381
0.000437852
0.000419378
0.000404896
0.000390055
0.000378614
0.000366486
0.000357379
0.000994368
0.000617847
0.000497601
0.000412194
0.000352978
0.000313351
0.000281918
0.000259616
0.000240662
0.000226765
0.000214025
0.00020448
0.000195306
0.000188481
0.000181651
0.000176636
0.000171425
0.000167663
0.000696094
0.000212054
0.000159773
0.000133289
0.000118655
0.000110141
0.000104143
0.000100187
9.70183e-05
9.48983e-05
9.30372e-05
9.18525e-05
9.07142e-05
9.00755e-05
8.93788e-05
8.90745e-05
8.86533e-05
8.85549e-05
0.000133026
8.10757e-05
6.92458e-05
6.68274e-05
6.60625e-05
6.58603e-05
6.54434e-05
6.49588e-05
6.43273e-05
6.37275e-05
6.31534e-05
6.26087e-05
6.2101e-05
6.16295e-05
6.11962e-05
6.07978e-05
6.04322e-05
6.00968e-05
1.02347e-12
1.15608e-10
5.78564e-10
2.2227e-09
7.29062e-09
2.18439e-08
5.40584e-08
1.01457e-07
1.55065e-07
2.03398e-07
2.38036e-07
2.47671e-07
2.40164e-07
2.11574e-07
1.64827e-07
1.2461e-07
9.77575e-08
7.53745e-08
5.50017e-08
3.653e-08
2.21672e-08
1.26592e-08
7.17809e-09
4.2569e-09
3.10915e-09
2.80264e-09
9.64367e-09
1.57354e-08
5.05669e-08
9.54521e-08
1.15643e-07
1.14525e-07
1.37458e-07
1.77066e-07
2.17918e-07
4.87514e-07
1.03537e-06
3.14213e-06
1.28247e-05
3.08934e-05
4.72966e-05
5.60068e-05
5.84832e-05
5.60197e-05
5.27519e-05
3.63362e-05
3.59319e-05
4.04839e-05
4.09273e-05
4.97345e-05
6.33367e-05
4.35454e-05
4.52911e-05
4.81102e-05
4.87594e-05
4.99112e-05
5.02971e-05
5.12062e-05
5.18621e-05
5.25169e-05
5.31796e-05
5.37894e-05
5.43908e-05
5.49747e-05
5.55385e-05
5.60933e-05
5.6632e-05
5.71617e-05
5.76798e-05
5.81889e-05
5.86888e-05
5.918e-05
5.96633e-05
6.01384e-05
6.06057e-05
6.10654e-05
6.15171e-05
6.19614e-05
6.23972e-05
6.28256e-05
6.32447e-05
6.36562e-05
6.40574e-05
6.44505e-05
6.48321e-05
6.5205e-05
6.55653e-05
6.59164e-05
6.62544e-05
6.65822e-05
6.68974e-05
6.72013e-05
6.74944e-05
6.77788e-05
6.80577e-05
6.83321e-05
6.85916e-05
6.88431e-05
6.90829e-05
6.93129e-05
6.95319e-05
6.97401e-05
6.99373e-05
7.01231e-05
7.02977e-05
7.04604e-05
7.06118e-05
7.07508e-05
7.08787e-05
7.09937e-05
7.10978e-05
7.11885e-05
7.12686e-05
7.13351e-05
7.13913e-05
7.14337e-05
7.14661e-05
7.14847e-05
7.14937e-05
7.14889e-05
7.14747e-05
7.1447e-05
7.14101e-05
7.13599e-05
7.13003e-05
7.12278e-05
7.11457e-05
7.10508e-05
7.09519e-05
7.08416e-05
7.07232e-05
7.05961e-05
7.04611e-05
7.03184e-05
7.01579e-05
7.00218e-05
6.98079e-05
6.96447e-05
6.94563e-05
6.92636e-05
6.90535e-05
6.88447e-05
6.86224e-05
6.8381e-05
6.81428e-05
6.78851e-05
6.76203e-05
6.73572e-05
6.70872e-05
6.68158e-05
6.65397e-05
6.6259e-05
6.59735e-05
6.56828e-05
6.53876e-05
6.50875e-05
6.47834e-05
6.44738e-05
6.41603e-05
6.38421e-05
6.35212e-05
6.31967e-05
6.28709e-05
6.25427e-05
6.22149e-05
6.18866e-05
6.15594e-05
6.12324e-05
6.09058e-05
6.05802e-05
6.02592e-05
5.99349e-05
5.96075e-05
5.92735e-05
5.89284e-05
5.85628e-05
5.81527e-05
5.76626e-05
5.70583e-05
5.44679e-05
5.46703e-12
8.71459e-10
1.18213e-08
6.23209e-08
2.71517e-07
7.5982e-07
1.65131e-06
2.88903e-06
4.33075e-06
5.88012e-06
7.34689e-06
8.51361e-06
9.28949e-06
9.46644e-06
9.25791e-06
8.30314e-06
6.63534e-06
4.70329e-06
3.07428e-06
1.86863e-06
1.11043e-06
6.85176e-07
4.42497e-07
3.01094e-07
2.81098e-07
1.84308e-07
6.87695e-07
1.13367e-06
3.32455e-06
6.10092e-06
7.2942e-06
7.35314e-06
9.09279e-06
9.59445e-06
1.21635e-05
1.82334e-05
2.99673e-05
3.94887e-05
5.0415e-05
5.94741e-05
6.74284e-05
7.39154e-05
7.87346e-05
8.41898e-05
9.29963e-05
0.000100502
0.000107473
0.000122298
0.000133304
0.0001451
0.000160716
0.000168729
0.000182599
0.000194854
0.000206407
0.000216739
0.000226483
0.000235737
0.000244389
0.000252667
0.000260568
0.000268138
0.000275451
0.000282517
0.000289398
0.000296106
0.000302686
0.00030915
0.000315529
0.000321833
0.000328085
0.000334293
0.000340472
0.00034663
0.000352776
0.000358916
0.000365056
0.000371203
0.000377358
0.000383526
0.000389708
0.000395906
0.000402117
0.000408343
0.000414575
0.000420813
0.000427041
0.000433257
0.000439437
0.000445562
0.0004516
0.000457498
0.000463194
0.000468609
0.000473658
0.000478487
0.000483328
0.000488107
0.00049284
0.000497526
0.000502153
0.000506724
0.00051123
0.00051567
0.000520037
0.00052433
0.000528541
0.00053267
0.000536709
0.000540661
0.000544516
0.000548277
0.000551936
0.000555496
0.000558951
0.000562302
0.000565545
0.000568682
0.000571708
0.000574627
0.000577435
0.000580135
0.000582726
0.000585209
0.000587586
0.000589859
0.000592027
0.000594085
0.000596023
0.000597825
0.000599524
0.000601112
0.000602593
0.000603958
0.0006052
0.000606336
0.00060732
0.000608269
0.000609116
0.000609847
0.000610269
0.000610884
0.000611129
0.000611197
0.000611296
0.000611145
0.000610802
0.000610339
0.000609753
0.000609049
0.000608228
0.000607275
0.000606188
0.000604956
0.000603582
0.000602066
0.00060041
0.000598612
0.000596681
0.000594613
0.000592419
0.000590098
0.00058766
0.000585103
0.00058244
0.000579684
0.00057682
0.000573852
0.000570783
0.000567607
0.000564329
0.000560909
0.000557335
0.000553573
0.000549555
0.000545197
0.00054019
0.000534357
0.000526926
0.000501351
1.53996e-11
2.57796e-09
4.66876e-08
2.40662e-07
8.14365e-07
1.93247e-06
3.91586e-06
6.65163e-06
9.90881e-06
1.35023e-05
1.7082e-05
2.0311e-05
2.28119e-05
2.42138e-05
2.4838e-05
2.44503e-05
2.25311e-05
1.97974e-05
1.63238e-05
1.24912e-05
8.83006e-06
5.99862e-06
3.97044e-06
2.84884e-06
2.20268e-06
2.27875e-06
5.70412e-06
1.04295e-05
2.28394e-05
2.82822e-05
2.68112e-05
2.78017e-05
3.63546e-05
4.26149e-05
5.04258e-05
6.01503e-05
6.92519e-05
8.26759e-05
9.62497e-05
0.00011296
0.000131447
0.000151927
0.000178051
0.000207944
0.00023933
0.000271356
0.000306945
0.000344433
0.000377701
0.000412181
0.000440723
0.000467387
0.000493066
0.000516795
0.000538752
0.000559098
0.000578184
0.000596196
0.000613274
0.000629599
0.000645263
0.000660357
0.00067499
0.000689213
0.000703109
0.000716719
0.0007301
0.000743286
0.000756315
0.000769214
0.000782009
0.00079472
0.000807366
0.00081996
0.000832516
0.000845041
0.000857546
0.000870035
0.000882514
0.000894983
0.000907445
0.000919897
0.000932335
0.000944753
0.000957141
0.000969488
0.000981777
0.000993992
0.00100611
0.00101811
0.00102995
0.0010416
0.00105304
0.00106424
0.00107524
0.00108615
0.00109698
0.00110769
0.00111829
0.00112876
0.0011391
0.00114928
0.00115931
0.00116918
0.00117886
0.00118837
0.00119767
0.00120677
0.00121566
0.00122433
0.00123277
0.00124098
0.00124896
0.00125669
0.00126418
0.00127143
0.00127842
0.00128516
0.00129165
0.00129789
0.00130387
0.00130961
0.0013151
0.00132034
0.00132533
0.00133008
0.00133458
0.00133883
0.00134282
0.00134656
0.00135006
0.00135332
0.00135635
0.00135914
0.00136169
0.001364
0.00136605
0.00136793
0.00136959
0.00137102
0.001372
0.00137287
0.00137323
0.0013733
0.00137316
0.00137263
0.0013718
0.00137066
0.00136924
0.00136754
0.00136557
0.00136331
0.00136076
0.0013579
0.00135472
0.00135122
0.00134742
0.00134332
0.00133893
0.00133426
0.00132932
0.00132412
0.00131867
0.00131298
0.00130707
0.00130095
0.00129462
0.0012881
0.00128138
0.00127443
0.00126725
0.0012598
0.00125207
0.00124397
0.00123537
0.00122605
0.00121553
0.00120311
0.0011875
0.00114148
6.44602e-11
1.04938e-08
1.46225e-07
6.07807e-07
1.92521e-06
5.03041e-06
9.67464e-06
1.57984e-05
2.29811e-05
3.06123e-05
3.76473e-05
4.32542e-05
4.67625e-05
4.88794e-05
4.8746e-05
4.69935e-05
4.38509e-05
3.93788e-05
3.43595e-05
2.87292e-05
2.27403e-05
1.7394e-05
1.33795e-05
9.16389e-06
1.02078e-05
1.66246e-05
3.38856e-05
4.80435e-05
5.29662e-05
5.3746e-05
5.68868e-05
6.36457e-05
7.01334e-05
7.89979e-05
9.1272e-05
0.000113935
0.000135038
0.000164718
0.000196181
0.000235076
0.000276631
0.000324104
0.000373917
0.000425003
0.000476555
0.000526931
0.000576311
0.000623306
0.000667301
0.000708923
0.000747097
0.000783169
0.000817061
0.00084909
0.000878911
0.000907137
0.000933899
0.000959431
0.000983881
0.0010074
0.00103012
0.00105214
0.00107357
0.00109449
0.00111497
0.00113509
0.0011549
0.00117444
0.00119377
0.0012129
0.00123188
0.00125073
0.00126947
0.00128812
0.00130669
0.0013252
0.00134365
0.00136206
0.00138041
0.00139873
0.00141699
0.00143521
0.00145338
0.00147149
0.00148952
0.00150747
0.00152531
0.00154305
0.00156064
0.0015781
0.00159538
0.00161248
0.00162939
0.00164611
0.00166267
0.0016791
0.00169539
0.00171151
0.00172744
0.00174318
0.00175871
0.00177401
0.00178907
0.00180387
0.00181839
0.00183264
0.00184658
0.00186021
0.00187353
0.00188651
0.00189915
0.00191144
0.00192338
0.00193496
0.00194617
0.00195702
0.00196749
0.0019776
0.00198733
0.00199669
0.00200568
0.0020143
0.00202255
0.00203044
0.00203797
0.00204513
0.00205193
0.00205836
0.00206442
0.00207013
0.0020755
0.00208053
0.00208522
0.00208957
0.00209359
0.00209727
0.0021006
0.00210363
0.00210633
0.00210868
0.0021105
0.00211191
0.00211274
0.00211327
0.00211334
0.00211294
0.00211209
0.00211078
0.00210906
0.00210691
0.00210435
0.00210137
0.00209794
0.00209406
0.00208973
0.00208494
0.0020797
0.00207402
0.00206791
0.00206138
0.00205446
0.00204715
0.00203948
0.00203144
0.00202307
0.00201439
0.0020054
0.00199613
0.00198659
0.00197673
0.00196655
0.00195602
0.00194509
0.00193368
0.00192164
0.00190867
0.00189426
0.00187725
0.00185648
0.00180201
2.41909e-10
3.15027e-08
3.56243e-07
1.7295e-06
5.86207e-06
1.37929e-05
2.5679e-05
4.02671e-05
5.47614e-05
6.67154e-05
7.4485e-05
7.9387e-05
8.10445e-05
7.98673e-05
7.66535e-05
7.18301e-05
6.56048e-05
5.88229e-05
5.1708e-05
4.45594e-05
3.64763e-05
2.78154e-05
2.32493e-05
2.51826e-05
4.0158e-05
5.9735e-05
7.17065e-05
7.56297e-05
7.71026e-05
8.03403e-05
8.62698e-05
9.57057e-05
0.000110985
0.000138296
0.000169734
0.000207681
0.000249457
0.000300008
0.000353067
0.000412095
0.000472521
0.000535497
0.000598448
0.00066087
0.000721828
0.000780565
0.000837068
0.000890555
0.000941224
0.000988999
0.00103452
0.00107758
0.00111832
0.00115698
0.00119363
0.00122859
0.00126203
0.00129411
0.00132501
0.00135486
0.00138378
0.00141189
0.0014393
0.00146609
0.00149236
0.00151816
0.00154356
0.00156862
0.00159339
0.00161789
0.00164218
0.00166627
0.00169019
0.00171397
0.00173762
0.00176115
0.00178457
0.00180789
0.00183112
0.00185426
0.0018773
0.00190025
0.0019231
0.00194584
0.00196847
0.00199097
0.00201334
0.00203556
0.00205762
0.00207952
0.00210124
0.00212279
0.00214415
0.00216533
0.00218633
0.00220714
0.00222776
0.00224817
0.00226833
0.00228824
0.00230788
0.00232722
0.00234625
0.00236496
0.00238332
0.00240132
0.00241895
0.00243618
0.00245302
0.00246945
0.00248545
0.00250102
0.00251616
0.00253085
0.00254509
0.00255888
0.00257222
0.0025851
0.00259753
0.0026095
0.00262103
0.0026321
0.00264273
0.00265291
0.00266265
0.00267196
0.00268082
0.00268924
0.00269723
0.0027048
0.00271194
0.00271868
0.00272501
0.00273092
0.00273642
0.00274156
0.00274625
0.00275055
0.00275443
0.00275787
0.00276068
0.00276301
0.00276475
0.00276603
0.00276678
0.00276697
0.00276662
0.00276572
0.0027643
0.00276235
0.00275988
0.00275688
0.00275333
0.00274922
0.00274454
0.0027393
0.0027335
0.00272715
0.00272025
0.00271282
0.00270487
0.0026964
0.00268744
0.00267803
0.00266819
0.00265793
0.00264728
0.00263627
0.00262493
0.00261322
0.00260112
0.00258863
0.00257568
0.00256221
0.00254806
0.00253298
0.00251647
0.00249753
0.00247429
0.00242004
8.84366e-10
8.41989e-08
1.0347e-06
5.37171e-06
1.75662e-05
3.72752e-05
5.83552e-05
7.54337e-05
8.76156e-05
9.59626e-05
0.00010088
0.000102607
0.000101834
9.88722e-05
9.39376e-05
8.73095e-05
7.93591e-05
6.99714e-05
5.88661e-05
4.69998e-05
3.73245e-05
3.44008e-05
4.20824e-05
6.06139e-05
8.07336e-05
9.01471e-05
9.47715e-05
9.62905e-05
0.000100327
0.000108616
0.000125946
0.000155129
0.000191658
0.000235339
0.000285015
0.000341132
0.000401842
0.000467841
0.000535623
0.000605997
0.000676534
0.000747208
0.000816781
0.000884815
0.000950776
0.00101439
0.0010752
0.00113345
0.00118949
0.00124274
0.00129359
0.00134212
0.00138843
0.00143268
0.00147501
0.00151561
0.00155463
0.00159222
0.00162853
0.00166369
0.00169781
0.00173103
0.00176343
0.00179512
0.00182617
0.00185667
0.00188667
0.00191625
0.00194544
0.00197429
0.00200285
0.00203115
0.0020592
0.00208704
0.00211469
0.00214216
0.00216946
0.0021966
0.00222359
0.00225043
0.00227712
0.00230367
0.00233007
0.00235631
0.0023824
0.00240832
0.00243407
0.00245964
0.00248503
0.00251023
0.00253524
0.00256005
0.00258467
0.00260907
0.00263325
0.00265721
0.00268093
0.00270439
0.00272757
0.00275045
0.00277302
0.00279526
0.00281713
0.00283863
0.00285973
0.00288044
0.00290072
0.00292057
0.00293998
0.00295892
0.0029774
0.0029954
0.00301292
0.00302995
0.00304648
0.00306251
0.00307804
0.00309307
0.00310761
0.00312164
0.00313517
0.00314821
0.00316075
0.00317281
0.00318438
0.00319547
0.00320607
0.0032162
0.00322585
0.00323503
0.00324376
0.00325204
0.00325986
0.00326726
0.0032742
0.00328068
0.00328671
0.0032923
0.00329744
0.00330202
0.00330601
0.00330944
0.00331233
0.00331466
0.00331641
0.00331757
0.00331814
0.00331811
0.0033175
0.0033163
0.0033145
0.00331209
0.00330907
0.00330542
0.00330114
0.00329621
0.00329064
0.00328444
0.00327761
0.00327017
0.00326212
0.00325347
0.00324425
0.00323448
0.00322421
0.00321344
0.00320219
0.00319047
0.00317832
0.00316575
0.00315277
0.00313936
0.0031255
0.00311111
0.00309609
0.00308023
0.00306312
0.00304409
0.00302095
0.00297102
3.20108e-09
2.51115e-07
3.13956e-06
1.69117e-05
4.27654e-05
6.93952e-05
9.00975e-05
0.000104103
0.000113523
0.000118093
0.000119073
0.000117541
0.000114075
0.000108689
0.000101353
9.26849e-05
8.38932e-05
7.64231e-05
7.02046e-05
6.72481e-05
6.70865e-05
6.98291e-05
8.32007e-05
9.68115e-05
0.000104948
0.000110347
0.000112604
0.000118847
0.000134829
0.000163668
0.00020182
0.000247514
0.000301011
0.000360689
0.000425602
0.000494897
0.000567215
0.000641907
0.000717362
0.000793328
0.000868715
0.000943182
0.00101616
0.00108737
0.00115611
0.00122275
0.00128743
0.00134952
0.00140928
0.00146662
0.00152169
0.00157454
0.00162528
0.00167402
0.00172087
0.00176597
0.00180946
0.00185146
0.0018921
0.0019315
0.00196978
0.00200704
0.0020434
0.00207894
0.00211375
0.00214791
0.00218148
0.00221453
0.00224711
0.00227928
0.00231106
0.0023425
0.00237364
0.00240449
0.00243507
0.00246541
0.00249552
0.00252541
0.00255509
0.00258456
0.00261383
0.0026429
0.00267177
0.00270044
0.00272892
0.00275719
0.00278525
0.00281311
0.00284075
0.00286818
0.00289539
0.00292236
0.00294908
0.00297555
0.00300177
0.00302773
0.00305341
0.00307881
0.00310391
0.00312868
0.00315312
0.00317721
0.00320094
0.0032243
0.00324725
0.00326979
0.00329189
0.00331355
0.00333475
0.00335547
0.00337571
0.00339546
0.0034147
0.00343344
0.00345166
0.00346937
0.00348655
0.00350322
0.00351936
0.00353498
0.00355008
0.00356466
0.00357872
0.00359228
0.00360531
0.00361785
0.00362987
0.0036414
0.00365243
0.00366297
0.00367306
0.00368266
0.00369179
0.00370044
0.00370862
0.00371633
0.00372357
0.00373035
0.00373664
0.00374233
0.00374747
0.00375208
0.00375616
0.00375972
0.00376271
0.0037651
0.00376689
0.00376806
0.00376863
0.00376857
0.00376789
0.00376657
0.00376459
0.00376195
0.00375863
0.00375463
0.00374993
0.00374455
0.00373848
0.00373174
0.00372432
0.00371625
0.00370755
0.00369823
0.00368833
0.00367788
0.00366687
0.00365534
0.00364335
0.00363092
0.00361804
0.00360473
0.00359097
0.00357674
0.00356195
0.00354647
0.00352999
0.00351199
0.00349091
0.00344665
1.01302e-08
7.22797e-07
9.59151e-06
3.71558e-05
6.85744e-05
9.35103e-05
0.000110867
0.000121741
0.000126873
0.000128499
0.000127373
0.000123869
0.000118073
0.000110267
0.000100709
9.0404e-05
8.05338e-05
7.20603e-05
7.02751e-05
7.56442e-05
8.62715e-05
9.94634e-05
0.000110008
0.000118211
0.000122679
0.000127571
0.000139218
0.000165339
0.00020186
0.000246959
0.000300875
0.000361344
0.000427855
0.000498636
0.000572832
0.000649466
0.000727612
0.000806563
0.00088551
0.000964048
0.00104165
0.00111802
0.00119252
0.00126517
0.00133647
0.00140552
0.00147248
0.00153722
0.00159976
0.00166011
0.00171831
0.00177442
0.00182849
0.00188061
0.00193087
0.00197937
0.00202622
0.00207154
0.00211543
0.00215801
0.00219939
0.00223966
0.00227894
0.0023173
0.00235485
0.00239165
0.00242778
0.00246331
0.00249828
0.00253275
0.00256676
0.00260036
0.00263358
0.00266645
0.00269899
0.00273122
0.00276316
0.00279483
0.00282622
0.00285736
0.00288824
0.00291888
0.00294927
0.00297942
0.00300934
0.00303902
0.00306845
0.00309766
0.00312662
0.00315535
0.00318383
0.00321204
0.00323999
0.00326767
0.00329509
0.00332225
0.00334913
0.00337572
0.00340201
0.00342798
0.00345362
0.00347891
0.00350384
0.00352838
0.00355252
0.00357625
0.00359956
0.00362242
0.00364483
0.00366677
0.00368823
0.00370921
0.0037297
0.00374968
0.00376915
0.00378811
0.00380656
0.00382448
0.00384188
0.00385877
0.00387513
0.00389097
0.00390629
0.0039211
0.0039354
0.00394918
0.00396246
0.00397524
0.00398753
0.00399934
0.00401067
0.00402151
0.00403188
0.00404177
0.0040512
0.00406015
0.00406864
0.00407668
0.00408419
0.00409118
0.00409762
0.00410352
0.00410885
0.00411364
0.00411787
0.00412151
0.00412456
0.004127
0.00412882
0.00413002
0.00413058
0.00413049
0.00412973
0.00412829
0.00412615
0.0041233
0.00411974
0.00411545
0.00411044
0.00410471
0.00409827
0.00409113
0.0040833
0.00407481
0.00406568
0.00405596
0.00404579
0.00403513
0.00402397
0.00401234
0.00400026
0.00398775
0.00397481
0.00396145
0.00394764
0.00393331
0.00391825
0.00390217
0.00388386
0.00384674
2.63354e-08
1.98869e-06
2.1952e-05
5.99134e-05
9.39813e-05
0.000116565
0.000128965
0.000134904
0.000136333
0.000134599
0.000130871
0.000125644
0.000119976
0.000114248
0.000108368
0.000102811
9.69315e-05
9.27038e-05
9.53193e-05
0.000103102
0.000112303
0.000120551
0.000128353
0.000134403
0.000142461
0.000163264
0.000195334
0.00023742
0.000288869
0.000347858
0.000413484
0.000483811
0.000558031
0.000634898
0.000713704
0.000793708
0.000874275
0.000954886
0.00103508
0.00111452
0.00119283
0.00126951
0.00134506
0.0014191
0.00149139
0.00156178
0.00163021
0.00169664
0.00176104
0.00182339
0.00188371
0.00194202
0.00199836
0.00205279
0.00210538
0.0021562
0.00220535
0.00225292
0.00229902
0.00234374
0.00238718
0.00242944
0.00247062
0.00251082
0.00255012
0.0025886
0.00262633
0.00266339
0.0026998
0.00273565
0.00277098
0.00280583
0.00284024
0.00287423
0.00290785
0.0029411
0.00297401
0.0030066
0.00303887
0.00307087
0.00310259
0.00313402
0.00316515
0.00319601
0.00322658
0.00325687
0.00328689
0.00331664
0.00334612
0.00337534
0.0034043
0.003433
0.00346144
0.00348961
0.00351753
0.00354517
0.00357254
0.00359962
0.00362642
0.00365291
0.00367908
0.00370492
0.00373041
0.00375555
0.00378031
0.00380468
0.00382866
0.00385222
0.00387536
0.00389806
0.00392031
0.00394211
0.00396343
0.00398428
0.00400464
0.00402452
0.0040439
0.00406278
0.00408117
0.00409904
0.00411642
0.00413329
0.00414966
0.00416553
0.00418089
0.00419576
0.00421014
0.00422404
0.00423746
0.0042504
0.00426287
0.00427487
0.0042864
0.00429747
0.00430809
0.00431825
0.00432797
0.00433725
0.00434604
0.00435434
0.00436211
0.00436937
0.00437611
0.00438233
0.00438801
0.00439315
0.00439772
0.00440171
0.00440511
0.0044079
0.00441008
0.00441161
0.00441249
0.00441269
0.0044122
0.004411
0.00440907
0.00440641
0.00440301
0.00439887
0.00439399
0.00438837
0.00438203
0.00437498
0.00436726
0.00435889
0.00434989
0.00434032
0.00433022
0.00431961
0.00430855
0.00429705
0.00428516
0.0042729
0.00426029
0.00424732
0.00423387
0.00421981
0.00420441
0.00417447
5.57712e-08
4.81387e-06
3.70616e-05
7.97959e-05
0.000112375
0.000131863
0.000140239
0.000141509
0.000138996
0.000134454
0.000128435
0.00012139
0.000114907
0.00010714
0.000102175
9.99614e-05
0.000102827
0.000108938
0.000116247
0.000123351
0.000130851
0.000137891
0.000145519
0.000159417
0.000185945
0.000223521
0.000269962
0.000325364
0.00038789
0.00045593
0.000528352
0.000603866
0.00068173
0.000761157
0.000841599
0.000922543
0.00100356
0.00108429
0.00116444
0.00124348
0.00132132
0.00139846
0.00147415
0.00154836
0.00162096
0.00169183
0.00176091
0.00182813
0.00189344
0.00195683
0.00201826
0.00207776
0.00213534
0.00219104
0.00224489
0.00229698
0.00234737
0.00239616
0.00244344
0.0024893
0.0025338
0.00257706
0.00261919
0.00266026
0.00270037
0.00273961
0.00277806
0.00281581
0.00285298
0.00288953
0.00292549
0.0029609
0.00299581
0.00303025
0.00306424
0.00309782
0.00313101
0.00316381
0.00319625
0.00322832
0.00326003
0.00329143
0.00332251
0.0033533
0.00338379
0.00341399
0.00344392
0.00347357
0.00350295
0.00353208
0.00356096
0.00358959
0.00361796
0.00364607
0.00367392
0.00370152
0.00372885
0.00375592
0.00378273
0.00380925
0.00383549
0.00386143
0.00388706
0.00391237
0.00393736
0.003962
0.00398629
0.00401021
0.00403375
0.0040569
0.00407964
0.00410197
0.00412388
0.00414536
0.00416639
0.00418697
0.00420709
0.00422675
0.00424595
0.00426467
0.00428292
0.0043007
0.00431799
0.00433481
0.00435115
0.00436701
0.00438243
0.00439737
0.00441185
0.00442587
0.00443944
0.00445256
0.00446523
0.00447747
0.00448927
0.00450064
0.00451159
0.00452213
0.00453224
0.0045419
0.00455103
0.0045597
0.0045679
0.00457562
0.00458285
0.00458957
0.00459578
0.00460145
0.00460657
0.00461112
0.00461509
0.00461844
0.00462117
0.00462325
0.00462465
0.00462536
0.00462536
0.00462462
0.00462315
0.00462092
0.00461793
0.00461419
0.0046097
0.00460448
0.00459854
0.00459192
0.00458463
0.00457672
0.00456824
0.00455924
0.00454975
0.00453984
0.00452954
0.00451892
0.00450803
0.0044969
0.0044855
0.00447381
0.00446118
0.00443744
9.84525e-08
9.85333e-06
5.41566e-05
0.000100492
0.000130203
0.000143887
0.000146679
0.000143848
0.000138635
0.000132173
0.000126995
0.000121865
0.000117058
0.000114063
0.000113696
0.000116235
0.000120458
0.000126049
0.000132472
0.000139332
0.000146799
0.000156967
0.000178235
0.000208521
0.000249175
0.000299123
0.000356562
0.000420583
0.000489483
0.000562096
0.000637499
0.000714883
0.000793687
0.000873404
0.000953625
0.001034
0.00111422
0.00119403
0.00127289
0.00135098
0.00142837
0.00150465
0.00157966
0.00165329
0.00172543
0.00179597
0.00186483
0.00193193
0.00199721
0.00206063
0.00212218
0.00218184
0.00223963
0.00229556
0.00234963
0.00240193
0.00245253
0.00250151
0.00254898
0.00259504
0.00263986
0.00268351
0.00272596
0.00276728
0.00280757
0.00284691
0.00288538
0.00292303
0.00295989
0.00299604
0.00303157
0.00306654
0.00310099
0.00313497
0.00316851
0.00320162
0.00323434
0.00326668
0.00329866
0.00333029
0.00336159
0.00339256
0.00342322
0.00345357
0.00348361
0.00351336
0.00354283
0.00357202
0.00360093
0.0036296
0.00365802
0.00368619
0.00371411
0.00374178
0.00376921
0.0037964
0.00382336
0.00385008
0.00387657
0.00390282
0.00392883
0.00395459
0.00398009
0.00400532
0.00403028
0.00405496
0.00407934
0.00410341
0.00412717
0.00415059
0.00417367
0.0041964
0.00421875
0.00424073
0.00426232
0.00428351
0.00430429
0.00432466
0.0043446
0.00436411
0.00438319
0.00440182
0.00442001
0.00443776
0.00445506
0.00447191
0.00448833
0.00450431
0.00451986
0.00453498
0.00454966
0.00456392
0.00457775
0.00459117
0.00460418
0.0046168
0.00462903
0.00464088
0.00465238
0.0046634
0.00467396
0.0046841
0.00469382
0.0047031
0.00471195
0.00472034
0.00472827
0.00473572
0.00474266
0.00474909
0.00475497
0.0047603
0.00476503
0.00476915
0.00477263
0.00477545
0.00477757
0.00477898
0.00477966
0.00477958
0.00477875
0.00477714
0.00477477
0.00477165
0.00476778
0.00476318
0.00475789
0.00475195
0.0047454
0.00473829
0.00473068
0.00472262
0.0047142
0.00470548
0.00469655
0.00468747
0.00467826
0.00466902
0.00465925
0.0046414
1.55792e-07
1.49488e-05
6.62122e-05
0.000114713
0.000142136
0.000151807
0.000150817
0.000145181
0.000138681
0.000133995
0.000129149
0.00012563
0.000124095
0.000124465
0.000126602
0.000130229
0.000135093
0.000141138
0.000147559
0.000156631
0.00017116
0.000196749
0.000230571
0.000273301
0.000324763
0.000383116
0.000446946
0.000515211
0.000586723
0.000660683
0.000736462
0.000813546
0.000891526
0.000970048
0.00104881
0.00112756
0.00120606
0.00128379
0.00136111
0.00143776
0.00151351
0.00158821