/*--------------------------------*- C++ -*----------------------------------*\
  =========                 |
  \\      /  F ield         | OpenFOAM: The Open Source CFD Toolbox
   \\    /   O peration     | Website:  https://openfoam.org
    \\  /    A nd           | Version:  8
     \\/     M anipulation  |
\*---------------------------------------------------------------------------*/
FoamFile
{
    version     2.0;
    format      ascii;
    class       volScalarField;
    location    "300";
    object      p;
}
// * * * * * * * * * * * * * * * * * * * * * * * * * * * * * * * * * * * * * //

dimensions      [0 2 -2 0 0 0 0];

internalField   nonuniform List<scalar> 
12225
(
-1.3344
-3.67938
-4.83896
-5.17451
-5.36954
-5.57573
-5.7387
-5.85053
-5.94561
-6.02541
-6.10364
-6.15359
-6.22297
-6.28613
-6.32996
-6.37588
-6.44414
-6.43854
-4.44067
-5.39206
-5.66774
-5.61807
-5.60851
-5.66496
-5.76096
-5.8602
-5.95077
-6.03875
-6.10531
-6.16989
-6.21918
-6.26877
-6.32554
-6.38348
-6.4449
-6.51516
-4.91598
-4.95067
-5.1515
-5.28608
-5.40873
-5.54605
-5.68794
-5.81487
-5.92286
-6.01602
-6.08875
-6.15736
-6.21167
-6.26134
-6.31729
-6.37595
-6.43822
-6.50574
-4.84534
-4.82195
-5.14173
-5.37044
-5.50337
-5.62171
-5.7405
-5.84691
-5.93906
-6.02115
-6.09016
-6.15361
-6.20699
-6.25745
-6.31211
-6.36889
-6.42969
-6.49093
-4.87199
-4.93213
-5.22541
-5.42262
-5.52831
-5.62867
-5.73727
-5.83853
-5.92815
-6.00892
-6.07909
-6.14226
-6.19787
-6.25113
-6.3063
-6.36305
-6.42228
-6.48101
-4.9638
-5.04082
-5.2606
-5.4282
-5.53243
-5.63289
-5.73959
-5.83893
-5.9266
-6.00521
-6.07477
-6.13744
-6.19432
-6.24895
-6.304
-6.35974
-6.41637
-6.47202
-5.05409
-5.11739
-5.28434
-5.43698
-5.54469
-5.64393
-5.74567
-5.84071
-5.92523
-6.00143
-6.07012
-6.1326
-6.19024
-6.24545
-6.3
-6.35423
-6.40817
-6.46053
-5.12258
-5.17496
-5.31268
-5.45207
-5.55762
-5.65321
-5.74983
-5.84107
-5.92326
-5.9979
-6.06592
-6.12823
-6.18608
-6.24124
-6.29504
-6.34782
-6.39958
-6.44937
-5.17939
-5.22501
-5.34148
-5.46729
-5.56889
-5.66107
-5.75343
-5.84144
-5.92166
-5.99493
-6.06217
-6.12413
-6.18186
-6.23672
-6.28971
-6.34117
-6.39111
-6.43875
-5.2377
-5.27746
-5.37425
-5.48551
-5.58192
-5.67029
-5.75807
-5.84244
-5.92031
-5.9919
-6.05803
-6.11935
-6.17666
-6.23095
-6.28297
-6.33303
-6.38113
-6.42673
-5.29689
-5.33064
-5.41023
-5.50725
-5.59728
-5.68118
-5.764
-5.84424
-5.91929
-5.98886
-6.05356
-6.11391
-6.17049
-6.22396
-6.27486
-6.32346
-6.3698
-6.41344
-5.35545
-5.38368
-5.44888
-5.53247
-5.61499
-5.69368
-5.77128
-5.847
-5.91879
-5.98599
-6.04891
-6.10794
-6.16345
-6.21584
-6.2655
-6.31261
-6.35723
-6.39912
-5.41218
-5.43549
-5.48893
-5.56029
-5.63467
-5.70759
-5.77979
-5.8508
-5.91893
-5.98343
-6.04423
-6.10159
-6.1557
-6.20679
-6.25506
-6.30068
-6.34368
-6.38394
-5.46534
-5.48458
-5.52861
-5.58932
-5.65554
-5.72236
-5.7892
-5.85539
-5.9197
-5.98118
-6.03961
-6.09501
-6.14746
-6.19702
-6.24383
-6.28793
-6.32945
-6.36825
-5.513
-5.52899
-5.56567
-5.61758
-5.67623
-5.73707
-5.79872
-5.86032
-5.92076
-5.97914
-6.03504
-6.08832
-6.13893
-6.18686
-6.23213
-6.2748
-6.31492
-6.35251
-5.55244
-5.56601
-5.5973
-5.64234
-5.69464
-5.75014
-5.80715
-5.86463
-5.92152
-5.97694
-6.03036
-6.08153
-6.13029
-6.17659
-6.22038
-6.26172
-6.30063
-6.33718
-5.57999
-5.59196
-5.61963
-5.66001
-5.70771
-5.75917
-5.81261
-5.86687
-5.92091
-5.97386
-6.02517
-6.07448
-6.12162
-6.16647
-6.20898
-6.24919
-6.28711
-6.32284
-5.58941
-5.6007
-5.62689
-5.66535
-5.71108
-5.76073
-5.81243
-5.86509
-5.91759
-5.96919
-6.01921
-6.06739
-6.11346
-6.15738
-6.19904
-6.23852
-6.27577
-6.31098
-5.57969
-5.59126
-5.61806
-5.65737
-5.70397
-5.75423
-5.80633
-5.85914
-5.91173
-5.96319
-6.01304
-6.0609
-6.10669
-6.15023
-6.19159
-6.23071
-6.26772
-6.30265
-5.5559
-5.56831
-5.59728
-5.63971
-5.68951
-5.74234
-5.79637
-5.85075
-5.90453
-5.95688
-6.00727
-6.05552
-6.10148
-6.14515
-6.1865
-6.22563
-6.26256
-6.29748
-5.52163
-5.53537
-5.56783
-5.6156
-5.67049
-5.72718
-5.78428
-5.84128
-5.89712
-5.95092
-6.00232
-6.05128
-6.09775
-6.14176
-6.18333
-6.22259
-6.25963
-6.29461
-5.47993
-5.49458
-5.53187
-5.58764
-5.64936
-5.71052
-5.77127
-5.83162
-5.89014
-5.94579
-5.9985
-6.04837
-6.0955
-6.1399
-6.18177
-6.22117
-6.25834
-6.29335
-5.43295
-5.4475
-5.49064
-5.55765
-5.62785
-5.69403
-5.75891
-5.82294
-5.88415
-5.94168
-5.99576
-6.04667
-6.09451
-6.13941
-6.18155
-6.2212
-6.25847
-6.29367
-5.3831
-5.39553
-5.44702
-5.5269
-5.605
-5.67696
-5.7478
-5.81637
-5.88023
-5.93934
-5.99456
-6.04627
-6.09459
-6.13973
-6.18199
-6.22164
-6.25892
-6.29403
-5.32988
-5.33517
-5.40861
-5.50451
-5.58356
-5.65782
-5.73512
-5.8094
-5.87666
-5.93792
-5.99477
-6.04763
-6.09663
-6.14213
-6.18452
-6.2242
-6.26146
-6.29667
-5.28132
-5.24205
-5.36331
-5.49595
-5.57782
-5.64959
-5.72784
-5.80335
-5.87115
-5.93297
-5.99049
-6.04397
-6.09342
-6.13925
-6.18191
-6.22181
-6.25924
-6.29453
-5.2873
-5.11831
-5.25737
-5.4392
-5.55647
-5.65101
-5.74094
-5.82057
-5.88929
-5.95087
-6.00755
-6.05973
-6.10767
-6.15192
-6.19304
-6.2315
-6.26774
-6.30244
-5.39679
-5.19043
-5.20304
-5.28975
-5.39825
-5.52308
-5.64225
-5.74317
-5.82873
-5.90426
-5.97204
-6.03275
-6.08719
-6.13642
-6.18131
-6.22255
-6.26093
-6.29737
-5.14469
-5.74255
-5.88666
-5.78469
-5.73222
-5.7634
-5.81961
-5.87348
-5.92511
-5.97688
-6.02764
-6.07577
-6.1208
-6.16288
-6.2022
-6.23885
-6.27327
-6.30691
-2.19739
-3.86234
-4.86385
-5.18992
-5.3624
-5.53313
-5.67669
-5.78363
-5.86836
-5.94161
-6.00654
-6.06401
-6.11521
-6.16137
-6.20329
-6.24126
-6.27535
-6.30413
-7.49011
-7.49021
-7.49026
-7.49021
-7.48982
-7.48856
-7.48625
-7.48343
-7.48088
-7.47931
-7.47918
-7.48029
-7.48206
-7.48386
-7.48524
-7.48603
-7.48633
-7.48631
-7.48613
-7.48589
-7.48568
-7.48549
-7.48525
-7.48491
-7.48445
-7.48386
-7.48314
-7.48251
-7.48232
-7.48293
-7.4843
-7.48605
-7.48797
-7.4902
-7.49315
-7.4962
-7.4982
-7.49926
-7.50244
-7.51202
-7.53011
-7.55545
-7.58812
-7.62982
-7.68102
-7.74057
-7.80685
-7.87681
-7.94812
-8.01894
-8.08737
-8.15253
-8.21285
-8.26761
-8.31679
-8.35999
-8.39768
-8.43016
-8.45756
-8.48027
-8.49859
-8.5128
-8.52316
-8.52989
-8.53318
-8.53316
-8.52998
-8.5237
-8.5144
-8.50212
-8.48688
-8.46869
-8.44753
-8.4234
-8.39623
-8.36599
-8.33259
-8.29599
-8.25607
-8.2128
-8.16604
-8.11575
-8.06178
-8.00409
-7.94248
-7.87687
-7.80706
-7.73297
-7.6545
-7.57165
-7.48439
-7.39269
-7.29646
-7.19556
-7.08959
-6.97825
-6.86158
-6.7396
-6.61228
-6.47961
-6.34154
-6.19806
-6.04917
-5.89484
-5.73514
-5.57004
-5.39966
-5.22399
-5.04316
-4.85722
-4.66631
-4.4705
-4.26997
-4.06479
-3.85515
-3.64116
-3.42302
-3.20083
-2.97481
-2.74507
-2.51182
-2.27519
-2.03537
-1.79251
-1.54677
-1.29832
-1.04732
-0.793959
-0.538362
-0.280651
-0.0209326
0.240574
0.503651
0.768077
1.03377
1.30064
1.5686
1.83733
2.10661
2.37619
2.64603
2.91593
3.18583
3.45541
3.72454
3.99296
4.26054
4.52694
4.79191
5.05518
5.31662
5.57605
5.83331
6.08821
6.34054
6.59013
6.83678
7.08033
7.3206
7.55742
7.79065
8.02012
8.2457
8.46724
8.68462
8.89771
9.10638
9.3105
9.50998
9.70492
9.89526
10.0807
10.2611
10.4366
10.607
10.7728
10.9348
11.0934
11.2561
11.4136
-7.49127
-7.49144
-7.49175
-7.49195
-7.49172
-7.49068
-7.48874
-7.48653
-7.48498
-7.48461
-7.48544
-7.4871
-7.48904
-7.49074
-7.49186
-7.49217
-7.49165
-7.49046
-7.48893
-7.48742
-7.48614
-7.48516
-7.48439
-7.48373
-7.48308
-7.48252
-7.4822
-7.48227
-7.48302
-7.48464
-7.48653
-7.48764
-7.48701
-7.48513
-7.4845
-7.488
-7.49384
-7.49936
-7.50682
-7.51805
-7.53388
-7.55802
-7.59425
-7.64296
-7.70213
-7.76928
-7.84101
-7.91493
-7.98856
-8.05954
-8.12644
-8.18766
-8.24349
-8.29399
-8.33884
-8.37855
-8.41289
-8.44197
-8.46646
-8.48665
-8.50284
-8.51528
-8.52418
-8.52972
-8.53204
-8.53126
-8.52747
-8.52072
-8.51107
-8.49854
-8.48314
-8.46486
-8.44368
-8.41958
-8.39249
-8.36238
-8.32917
-8.29279
-8.25315
-8.21019
-8.16379
-8.11389
-8.06036
-8.00314
-7.94208
-7.87707
-7.80793
-7.73455
-7.65682
-7.57468
-7.48809
-7.39689
-7.30086
-7.19983
-7.09383
-6.98291
-6.86692
-6.74571
-6.6192
-6.48736
-6.35014
-6.20752
-6.05947
-5.90602
-5.74716
-5.58294
-5.41339
-5.23859
-5.05859
-4.87349
-4.68339
-4.4884
-4.28864
-4.08425
-3.87536
-3.66213
-3.4447
-3.22324
-2.9979
-2.76885
-2.53625
-2.30027
-2.06108
-1.81883
-1.57369
-1.32581
-1.07538
-0.822547
-0.567478
-0.310265
-0.0510584
0.209957
0.472545
0.736529
1.0018
1.26829
1.53585
1.80421
2.07313
2.3424
2.61194
2.88162
3.15129
3.4207
3.68967
3.95799
4.22548
4.49182
4.75677
5.02006
5.28155
5.54108
5.79847
6.05353
6.30607
6.5559
6.80283
7.04669
7.28731
7.52452
7.75817
7.98809
8.21416
8.43622
8.65416
8.86791
9.07733
9.28226
9.48254
9.67785
9.86806
10.0534
10.2338
10.4092
10.58
10.7463
10.9091
11.0686
11.2336
11.3888
-7.49263
-7.49258
-7.49253
-7.49253
-7.49254
-7.49265
-7.49315
-7.49435
-7.49638
-7.49906
-7.50202
-7.50482
-7.50704
-7.50836
-7.50855
-7.50756
-7.50543
-7.50228
-7.49834
-7.49391
-7.48934
-7.48497
-7.48114
-7.47805
-7.47585
-7.47467
-7.47481
-7.47621
-7.47833
-7.48023
-7.48128
-7.48232
-7.4838
-7.48472
-7.48712
-7.49452
-7.50702
-7.52461
-7.54817
-7.57758
-7.61296
-7.65487
-7.70362
-7.75824
-7.81708
-7.87848
-7.9407
-8.00243
-8.06266
-8.1204
-8.17491
-8.22546
-8.27184
-8.314
-8.3519
-8.38571
-8.41543
-8.44112
-8.46296
-8.48111
-8.49571
-8.50693
-8.51491
-8.51975
-8.52155
-8.52041
-8.51637
-8.50949
-8.49978
-8.48727
-8.47194
-8.4538
-8.4328
-8.40892
-8.38211
-8.35231
-8.31945
-8.28346
-8.24426
-8.20176
-8.15586
-8.10649
-8.05354
-7.99691
-7.9365
-7.87218
-7.8038
-7.73122
-7.65434
-7.57311
-7.48746
-7.39726
-7.30231
-7.20244
-7.09758
-6.98772
-6.87278
-6.75265
-6.62726
-6.49656
-6.36049
-6.21903
-6.07216
-5.91989
-5.7622
-5.59917
-5.43079
-5.25716
-5.07831
-4.89438
-4.70541
-4.51155
-4.3129
-4.10962
-3.9018
-3.68965
-3.47326
-3.25284
-3.02851
-2.80047
-2.56885
-2.33385
-2.09561
-1.8543
-1.61008
-1.36312
-1.11359
-0.861636
-0.607417
-0.351047
-0.0926783
0.167504
0.429274
0.69248
0.957005
1.22277
1.4896
1.75726
2.02548
2.29412
2.56306
2.8322
3.10132
3.37024
3.63875
3.90665
4.17373
4.43972
4.70435
4.96739
5.22867
5.48802
5.74529
6.00026
6.25274
6.50255
6.7495
6.9934
7.2341
7.47141
7.70518
7.93525
8.16149
8.38373
8.60183
8.81564
9.02503
9.22995
9.43031
9.62597
9.81684
10.0029
10.1841
10.3605
10.5323
10.6998
10.8642
11.0248
11.1918
11.34
-7.49406
-7.49367
-7.49324
-7.49355
-7.49555
-7.49934
-7.50427
-7.50964
-7.51488
-7.51958
-7.52347
-7.5263
-7.52788
-7.52809
-7.5269
-7.5243
-7.52025
-7.51488
-7.50836
-7.50099
-7.49309
-7.48508
-7.47752
-7.47113
-7.46665
-7.46458
-7.46531
-7.468
-7.47089
-7.47315
-7.47552
-7.47965
-7.48656
-7.49717
-7.51285
-7.5339
-7.56024
-7.59157
-7.62745
-7.66704
-7.70978
-7.75522
-7.80307
-7.85296
-7.90438
-7.95672
-8.00926
-8.06129
-8.11214
-8.16115
-8.20776
-8.25147
-8.29195
-8.32898
-8.36247
-8.39244
-8.4189
-8.44188
-8.4615
-8.47783
-8.49097
-8.50102
-8.50807
-8.5122
-8.51346
-8.51193
-8.50762
-8.50058
-8.49081
-8.47831
-8.46308
-8.44509
-8.4243
-8.40068
-8.37418
-8.34473
-8.31227
-8.27673
-8.238
-8.19603
-8.15069
-8.10191
-8.04959
-7.99363
-7.93391
-7.87031
-7.8027
-7.73093
-7.65488
-7.57449
-7.4897
-7.40035
-7.3063
-7.2074
-7.10359
-6.99478
-6.88091
-6.76185
-6.63756
-6.50796
-6.37301
-6.23267
-6.08693
-5.93578
-5.77923
-5.6173
-5.45004
-5.2775
-5.09976
-4.91689
-4.729
-4.53619
-4.33858
-4.13632
-3.92952
-3.71835
-3.50295
-3.2835
-3.06013
-2.83302
-2.60234
-2.36825
-2.13092
-1.89051
-1.64717
-1.40109
-1.15242
-0.901314
-0.647915
-0.392363
-0.134815
0.12455
0.385519
0.647965
0.91177
1.17682
1.44292
1.70986
1.9774
2.24542
2.51377
2.78235
3.05093
3.31934
3.58738
3.85484
4.1215
4.3871
4.65138
4.91413
5.17518
5.43436
5.69147
5.94632
6.19873
6.44849
6.69542
6.93935
7.18008
7.41745
7.6513
7.88146
8.10779
8.33015
8.54839
8.76238
8.97199
9.17712
9.37773
9.57378
9.76519
9.95187
10.1337
10.3108
10.4833
10.6515
10.8166
10.9771
11.1435
11.2823
-7.49718
-7.49634
-7.49623
-7.49918
-7.50538
-7.51308
-7.52087
-7.52809
-7.5343
-7.53918
-7.54262
-7.5446
-7.54512
-7.54416
-7.5417
-7.5377
-7.53216
-7.52518
-7.51691
-7.50752
-7.49733
-7.48684
-7.47687
-7.46871
-7.46366
-7.46227
-7.46311
-7.46439
-7.4667
-7.47159
-7.48029
-7.49371
-7.51255
-7.53676
-7.56556
-7.59777
-7.63279
-7.67014
-7.70928
-7.75
-7.79217
-7.83576
-7.88066
-7.92662
-7.97325
-8.0201
-8.06665
-8.11242
-8.1569
-8.19964
-8.24023
-8.27835
-8.31375
-8.34627
-8.37582
-8.40233
-8.42581
-8.44626
-8.46372
-8.47825
-8.48991
-8.49874
-8.50479
-8.50813
-8.50878
-8.50677
-8.50212
-8.49485
-8.48494
-8.47239
-8.45718
-8.43927
-8.41864
-8.39522
-8.36897
-8.33982
-8.30771
-8.27255
-8.23425
-8.19274
-8.14791
-8.09967
-8.04792
-7.99256
-7.93347
-7.87055
-7.80364
-7.7326
-7.65731
-7.57771
-7.49372
-7.40521
-7.312
-7.21399
-7.11108
-7.00319
-6.89022
-6.77208
-6.64871
-6.52002
-6.386
-6.24657
-6.10175
-5.95149
-5.79584
-5.63479
-5.46842
-5.29673
-5.11985
-4.9378
-4.75075
-4.55874
-4.36196
-4.16046
-3.95447
-3.74406
-3.52944
-3.31073
-3.08813
-2.86176
-2.63183
-2.39848
-2.16189
-1.9222
-1.67961
-1.43426
-1.18631
-0.935917
-0.68322
-0.428374
-0.171531
0.0871111
0.347399
0.609181
0.872364
1.13676
1.40223
1.66853
1.93549
2.20293
2.47079
2.73884
3.00696
3.27491
3.54254
3.80959
4.07587
4.34111
4.60508
4.86758
5.12842
5.38743
5.64441
5.89917
6.15151
6.40124
6.64816
6.8921
7.13288
7.37033
7.60428
7.83458
8.06106
8.28359
8.50203
8.71625
8.92612
9.13153
9.3324
9.52871
9.72038
9.90733
10.0895
10.2669
10.4397
10.608
10.7728
10.9321
11.0964
11.2253
-7.50226
-7.50146
-7.50338
-7.51031
-7.5195
-7.52858
-7.53682
-7.5438
-7.54934
-7.55345
-7.55617
-7.55746
-7.55729
-7.55562
-7.55243
-7.54768
-7.54139
-7.53361
-7.52445
-7.51412
-7.50304
-7.49189
-7.48202
-7.47521
-7.47169
-7.46994
-7.46962
-7.47195
-7.47862
-7.49113
-7.50993
-7.53425
-7.56287
-7.59479
-7.62921
-7.66554
-7.70328
-7.74221
-7.78206
-7.82274
-7.86413
-7.90613
-7.94856
-7.99121
-8.0338
-8.07603
-8.11759
-8.15813
-8.19735
-8.23494
-8.27061
-8.30415
-8.33535
-8.36409
-8.39026
-8.4138
-8.43467
-8.45288
-8.46842
-8.48131
-8.49158
-8.49926
-8.50437
-8.50694
-8.50698
-8.50449
-8.49949
-8.49196
-8.4819
-8.46928
-8.45406
-8.43622
-8.4157
-8.39246
-8.36643
-8.33755
-8.30575
-8.27093
-8.23303
-8.19194
-8.14757
-8.09982
-8.04859
-7.99378
-7.93527
-7.87295
-7.80667
-7.73628
-7.66168
-7.58277
-7.49951
-7.41172
-7.31926
-7.222
-7.11984
-7.01269
-6.90046
-6.78306
-6.66041
-6.53245
-6.39913
-6.2604
-6.11625
-5.96667
-5.81166
-5.65126
-5.48549
-5.31442
-5.13812
-4.95667
-4.77017
-4.57873
-4.38248
-4.18154
-3.97607
-3.76621
-3.55212
-3.33395
-3.11189
-2.88607
-2.65669
-2.42389
-2.18786
-1.94875
-1.70673
-1.46196
-1.2146
-0.964779
-0.712667
-0.458412
-0.202176
0.0558588
0.315556
0.576789
0.83941
1.10324
1.36813
1.63386
1.90029
2.16726
2.43465
2.70225
2.96994
3.23749
3.50472
3.7714
4.03731
4.30221
4.56587
4.82811
5.08875
5.34758
5.60442
5.85906
6.1113
6.36095
6.60784
6.85176
7.09256
7.33004
7.56405
7.79442
8.02101
8.24365
8.46222
8.67657
8.88661
9.0922
9.29326
9.48972
9.68154
9.86861
10.0509
10.2283
10.4011
10.5691
10.7333
10.8908
11.0527
11.1722
-7.50737
-7.50782
-7.51317
-7.52245
-7.53191
-7.54037
-7.54767
-7.55381
-7.55876
-7.56246
-7.56483
-7.56579
-7.5653
-7.56332
-7.55982
-7.55478
-7.54828
-7.5404
-7.53128
-7.52126
-7.51102
-7.50176
-7.4946
-7.48967
-7.4864
-7.48519
-7.48765
-7.49568
-7.51032
-7.53115
-7.55694
-7.58652
-7.61898
-7.6536
-7.6898
-7.72725
-7.76563
-7.80475
-7.84437
-7.88434
-7.92447
-7.96463
-8.00468
-8.04444
-8.08374
-8.12236
-8.16009
-8.1967
-8.23197
-8.26568
-8.29763
-8.32764
-8.35557
-8.3813
-8.40475
-8.42585
-8.44456
-8.46087
-8.47476
-8.48623
-8.49529
-8.50195
-8.50622
-8.50809
-8.50757
-8.50466
-8.49933
-8.49157
-8.48136
-8.46867
-8.45345
-8.43566
-8.41526
-8.39218
-8.36636
-8.33772
-8.3062
-8.27171
-8.23416
-8.19346
-8.14951
-8.1022
-8.05145
-7.99713
-7.93914
-7.87736
-7.81163
-7.74183
-7.66782
-7.58953
-7.50688
-7.41971
-7.32787
-7.23122
-7.12967
-7.02312
-6.91146
-6.79463
-6.67252
-6.54509
-6.41227
-6.27404
-6.13034
-5.98121
-5.82661
-5.66662
-5.50122
-5.33053
-5.15456
-4.97346
-4.78727
-4.59617
-4.40022
-4.19962
-3.99444
-3.78492
-3.57114
-3.35332
-3.13159
-2.90615
-2.67713
-2.44474
-2.20911
-1.97043
-1.72885
-1.48453
-1.23763
-0.988283
-0.736654
-0.482897
-0.227184
0.0303459
0.289537
0.550287
0.812397
1.07573
1.34009
1.60534
1.87128
2.13783
2.40477
2.672
2.93927
3.20647
3.47332
3.73965
4.0052
4.26977
4.53314
4.79513
5.05554
5.31417
5.57083
5.82532
6.07744
6.32699
6.57379
6.81766
7.05841
7.29587
7.52987
7.76025
7.98685
8.20953
8.42815
8.64258
8.85268
9.05836
9.25952
9.45607
9.64795
9.83505
10.0173
10.1947
10.3672
10.5348
10.698
10.8535
11.0131
11.1239
-7.5102
-7.51273
-7.52073
-7.52998
-7.53834
-7.54582
-7.55247
-7.55822
-7.56294
-7.5665
-7.56878
-7.56968
-7.56917
-7.56722
-7.56382
-7.55901
-7.55285
-7.54549
-7.53728
-7.52881
-7.52093
-7.51425
-7.509
-7.50548
-7.50449
-7.50754
-7.51628
-7.53118
-7.55153
-7.57638
-7.60488
-7.63627
-7.6699
-7.70525
-7.74187
-7.77943
-7.81764
-7.85627
-7.89511
-7.93398
-7.97273
-8.01123
-8.04934
-8.08691
-8.12378
-8.15977
-8.19474
-8.2285
-8.2609
-8.29175
-8.32092
-8.34827
-8.3737
-8.3971
-8.41842
-8.43758
-8.45457
-8.46935
-8.4819
-8.49221
-8.50028
-8.5061
-8.50967
-8.51097
-8.50999
-8.50672
-8.50113
-8.49319
-8.48287
-8.47014
-8.45493
-8.43722
-8.41693
-8.39401
-8.36838
-8.33998
-8.30873
-8.27453
-8.23731
-8.19696
-8.15339
-8.10649
-8.05616
-8.00228
-7.94475
-7.88344
-7.81821
-7.74891
-7.67541
-7.59764
-7.51551
-7.42886
-7.33752
-7.24136
-7.14027
-7.03417
-6.92294
-6.8065
-6.68478
-6.55769
-6.42519
-6.28724
-6.14381
-5.9949
-5.84053
-5.68071
-5.51549
-5.34493
-5.16911
-4.98812
-4.80206
-4.61105
-4.41522
-4.21472
-4.00968
-3.80027
-3.58664
-3.36898
-3.14744
-2.9222
-2.69341
-2.46126
-2.22591
-1.98753
-1.74628
-1.50231
-1.25576
-1.00679
-0.755565
-0.502231
-0.246958
0.0101302
0.2689
0.529205
0.790862
1.05373
1.31761
1.58241
1.84794
2.11409
2.38065
2.6475
2.91443
3.18126
3.44777
3.71374
3.97895
4.24319
4.50627
4.768
5.02818
5.28661
5.54309
5.79741
6.04937
6.29879
6.54548
6.78924
7.02991
7.2673
7.50124
7.73159
7.95816
8.18084
8.39945
8.61389
8.82402
9.02973
9.23091
9.42748
9.61934
9.80641
9.98857
10.1658
10.3379
10.5048
10.6669
10.8204
10.9778
11.0809
-7.50891
-7.51346
-7.5219
-7.53006
-7.53758
-7.54459
-7.55104
-7.55677
-7.56159
-7.56533
-7.56782
-7.56899
-7.56876
-7.56712
-7.56409
-7.55974
-7.55424
-7.54797
-7.54144
-7.53514
-7.52944
-7.52481
-7.52191
-7.52161
-7.5253
-7.53407
-7.54799
-7.56665
-7.58953
-7.61605
-7.64557
-7.67754
-7.71143
-7.7468
-7.78326
-7.82049
-7.8582
-7.89618
-7.93423
-7.97216
-8.00983
-8.04709
-8.08377
-8.11975
-8.15487
-8.18901
-8.22201
-8.25375
-8.28408
-8.31288
-8.34005
-8.36546
-8.38905
-8.41074
-8.43047
-8.44819
-8.46388
-8.4775
-8.48904
-8.49847
-8.50579
-8.51098
-8.51402
-8.5149
-8.51359
-8.51007
-8.50431
-8.49627
-8.4859
-8.47317
-8.45802
-8.44039
-8.42023
-8.39747
-8.37205
-8.34387
-8.31286
-8.27894
-8.24202
-8.20199
-8.15876
-8.11222
-8.06227
-8.00879
-7.95166
-7.89077
-7.82596
-7.75709
-7.68401
-7.60669
-7.52497
-7.43874
-7.34778
-7.25198
-7.15123
-7.04543
-6.93449
-6.81829
-6.69679
-6.56987
-6.43753
-6.29968
-6.15635
-6.00748
-5.85314
-5.6933
-5.52807
-5.35745
-5.18159
-5.00051
-4.8144
-4.62329
-4.42741
-4.22682
-4.02175
-3.81229
-3.59868
-3.38102
-3.15953
-2.93435
-2.70568
-2.47366
-2.23849
-2.00031
-1.75929
-1.51557
-1.26931
-1.02065
-0.769755
-0.516791
-0.261885
-0.00518141
0.253215
0.513106
0.774357
1.03678
1.30026
1.56464
1.82981
2.09557
2.36179
2.62827
2.89486
3.16133
3.4275
3.69312
3.958
4.22193
4.48473
4.74621
5.00616
5.26437
5.52064
5.77477
6.02657
6.27583
6.52237
6.766
7.00655
7.24384
7.47769
7.70795
7.93447
8.15708
8.37566
8.59007
8.80018
9.00587
9.20704
9.40357
9.59538
9.78233
9.96433
10.1412
10.3129
10.479
10.6399
10.7915
10.9469
11.0433
-7.50077
-7.50635
-7.5141
-7.5217
-7.52912
-7.53623
-7.54291
-7.54897
-7.5542
-7.55837
-7.5613
-7.56291
-7.56312
-7.56191
-7.55937
-7.55577
-7.55144
-7.5467
-7.54187
-7.53737
-7.53375
-7.53169
-7.53213
-7.53613
-7.5443
-7.55676
-7.57339
-7.59401
-7.61823
-7.64559
-7.6756
-7.70776
-7.74164
-7.77685
-7.81304
-7.84992
-7.88722
-7.92471
-7.96221
-7.99951
-8.03646
-8.07287
-8.10861
-8.14353
-8.17751
-8.21041
-8.24211
-8.27249
-8.30144
-8.32886
-8.35466
-8.37876
-8.4011
-8.42161
-8.44025
-8.45698
-8.47178
-8.48461
-8.49546
-8.50431
-8.51114
-8.51592
-8.51863
-8.51925
-8.51775
-8.5141
-8.50826
-8.50018
-8.48983
-8.47715
-8.46209
-8.44459
-8.42459
-8.40201
-8.37678
-8.34883
-8.31807
-8.28441
-8.24776
-8.20802
-8.1651
-8.11889
-8.06927
-8.01613
-7.95936
-7.89882
-7.83436
-7.76584
-7.69313
-7.61612
-7.53475
-7.44881
-7.35813
-7.26258
-7.16205
-7.05643
-6.94563
-6.82955
-6.7081
-6.58123
-6.44887
-6.31099
-6.16756
-6.01859
-5.86408
-5.70409
-5.53865
-5.36784
-5.19173
-5.01044
-4.82407
-4.63276
-4.43664
-4.23586
-4.03059
-3.82098
-3.60722
-3.38947
-3.16791
-2.9427
-2.71404
-2.48207
-2.24698
-2.00893
-1.76807
-1.52454
-1.2785
-1.0301
-0.779496
-0.52685
-0.272275
-0.0158962
0.24214
0.501655
0.762511
1.02453
1.28763
1.55164
1.81645
2.08185
2.34772
2.61385
2.88009
3.14622
3.41204
3.67731
3.94186
4.2055
4.46802
4.72923
4.98894
5.24692
5.50297
5.75689
6.00849
6.25757
6.50394
6.74741
6.98781
7.22495
7.45868
7.68882
7.91523
8.13775
8.35625
8.57058
8.78062
8.98624
9.18734
9.38379
9.57548
9.76226
9.94402
10.1206
10.2917
10.457
10.6167
10.7663
10.9199
11.0107
-7.48302
-7.48861
-7.49619
-7.50441
-7.51247
-7.52012
-7.52733
-7.53396
-7.53974
-7.54445
-7.54794
-7.55007
-7.5508
-7.55024
-7.54856
-7.54597
-7.54277
-7.53931
-7.53602
-7.5334
-7.53212
-7.53306
-7.53695
-7.54417
-7.55499
-7.56964
-7.58804
-7.61
-7.63519
-7.66319
-7.69357
-7.72593
-7.75987
-7.79506
-7.83117
-7.86792
-7.90506
-7.94237
-7.97962
-8.01663
-8.0532
-8.08917
-8.1244
-8.15874
-8.19207
-8.22426
-8.25521
-8.28479
-8.31293
-8.33952
-8.36452
-8.38783
-8.40942
-8.42924
-8.44725
-8.46341
-8.47769
-8.49006
-8.50053
-8.50905
-8.51561
-8.52019
-8.52277
-8.52331
-8.52177
-8.51812
-8.51232
-8.50431
-8.49406
-8.4815
-8.46659
-8.44925
-8.42943
-8.40704
-8.38201
-8.35428
-8.32374
-8.29032
-8.25392
-8.21445
-8.1718
-8.12586
-8.07652
-8.02368
-7.96719
-7.90694
-7.84277
-7.77453
-7.70206
-7.62533
-7.54419
-7.45845
-7.36795
-7.27254
-7.17211
-7.06656
-6.95578
-6.83969
-6.71818
-6.59121
-6.45869
-6.32063
-6.17696
-6.02775
-5.87294
-5.71265
-5.54686
-5.37572
-5.19923
-5.0176
-4.83085
-4.63921
-4.44273
-4.24166
-4.03607
-3.82623
-3.61223
-3.39431
-3.17259
-2.9473
-2.71856
-2.4866
-2.25154
-2.01357
-1.77282
-1.52945
-1.2836
-1.03543
-0.7851
-0.532735
-0.278468
-0.0224031
0.23527
0.494424
0.754875
1.01654
1.27924
1.54293
1.80736
2.07243
2.33792
2.60373
2.86961
3.1354
3.40085
3.66579
3.93002
4.19336
4.45561
4.71656
4.976
5.23374
5.48956
5.74326
5.99464
6.24351
6.48968
6.73297
6.97319
7.21017
7.44374
7.67374
7.9
8.1224
8.34077
8.555
8.76493
8.97046
9.17144
9.36777
9.55929
9.74587
9.92733
10.1035
10.274
10.4384
10.5969
10.7447
10.8967
10.9828
-7.4543
-7.45963
-7.46827
-7.47805
-7.48723
-7.49564
-7.50349
-7.51075
-7.51721
-7.52262
-7.52678
-7.52958
-7.53105
-7.53128
-7.53045
-7.52882
-7.52672
-7.52453
-7.52276
-7.52206
-7.52313
-7.52649
-7.53258
-7.54184
-7.55456
-7.5709
-7.59075
-7.61387
-7.63995
-7.66861
-7.69948
-7.73221
-7.76643
-7.80184
-7.83814
-7.87505
-7.91233
-7.94975
-7.98707
-8.02409
-8.06063
-8.09653
-8.13164
-8.16581
-8.19892
-8.23085
-8.2615
-8.29076
-8.31857
-8.34482
-8.36946
-8.39243
-8.41369
-8.4332
-8.45093
-8.46686
-8.48096
-8.49321
-8.50358
-8.51205
-8.51861
-8.52322
-8.52587
-8.5265
-8.52508
-8.52157
-8.51591
-8.50807
-8.49799
-8.48561
-8.47087
-8.45371
-8.43407
-8.41186
-8.38703
-8.35948
-8.32914
-8.29592
-8.25974
-8.22048
-8.17805
-8.13233
-8.08323
-8.03061
-7.97436
-7.91433
-7.85038
-7.78234
-7.71008
-7.6335
-7.55251
-7.46691
-7.37649
-7.28112
-7.18069
-7.0751
-6.96424
-6.84801
-6.72633
-6.59913
-6.46636
-6.32797
-6.18398
-6.03437
-5.87918
-5.71844
-5.55223
-5.38061
-5.20368
-5.02157
-4.83439
-4.64229
-4.44542
-4.24394
-4.03801
-3.82783
-3.61356
-3.39539
-3.17349
-2.94805
-2.71923
-2.48722
-2.25218
-2.01426
-1.77361
-1.53038
-1.28472
-1.03677
-0.786699
-0.534616
-0.280642
-0.0249142
0.232395
0.491161
0.751219
1.0125
1.27484
1.53816
1.80222
2.06692
2.33205
2.59749
2.863
3.12842
3.3935
3.6581
3.922
4.18504
4.447
4.70767
4.96684
5.22432
5.47988
5.73334
5.98448
6.23313
6.47907
6.72215
6.96216
7.19895
7.43233
7.66215
7.88825
8.11049
8.32871
8.5428
8.75259
8.95798
9.15882
9.35498
9.54631
9.73264
9.91376
10.0894
10.2594
10.4228
10.5801
10.7263
10.8766
10.959
-7.41502
-7.42085
-7.43157
-7.44356
-7.45407
-7.46322
-7.4717
-7.47968
-7.48693
-7.49314
-7.49811
-7.50174
-7.50404
-7.50509
-7.50511
-7.50437
-7.50322
-7.50216
-7.5018
-7.50265
-7.50522
-7.51009
-7.51778
-7.5287
-7.54305
-7.56088
-7.58201
-7.60622
-7.63319
-7.66261
-7.69411
-7.72739
-7.76211
-7.79797
-7.8347
-7.87203
-7.90971
-7.94748
-7.98514
-8.02248
-8.05932
-8.09548
-8.13081
-8.16515
-8.1984
-8.23042
-8.26113
-8.29043
-8.31825
-8.34452
-8.36919
-8.3922
-8.41351
-8.43308
-8.4509
-8.46695
-8.4812
-8.49363
-8.5042
-8.51289
-8.51968
-8.52452
-8.52739
-8.52825
-8.52706
-8.52376
-8.51832
-8.51069
-8.5008
-8.48861
-8.47406
-8.45708
-8.43761
-8.41557
-8.3909
-8.36352
-8.33335
-8.3003
-8.26427
-8.22518
-8.18292
-8.13739
-8.08846
-8.03601
-7.97992
-7.92006
-7.85626
-7.78836
-7.7162
-7.63974
-7.55881
-7.47325
-7.38283
-7.28742
-7.1869
-7.08118
-6.97014
-6.85368
-6.73174
-6.60421
-6.4711
-6.33231
-6.18789
-6.0378
-5.88214
-5.72087
-5.55416
-5.38199
-5.20456
-5.02189
-4.83423
-4.64162
-4.4443
-4.24235
-4.03606
-3.8255
-3.61093
-3.39248
-3.17039
-2.94478
-2.71588
-2.48382
-2.2488
-2.01094
-1.77041
-1.52734
-1.28188
-1.03419
-0.784393
-0.532624
-0.278979
-0.023638
0.233284
0.491616
0.751287
1.01214
1.27413
1.53702
1.80071
2.06497
2.32973
2.59476
2.8599
3.12491
3.38962
3.65385
3.91743
4.18015
4.4418
4.70217
4.96106
5.21825
5.47354
5.72672
5.97761
6.22599
6.4717
6.71453
6.95432
7.19088
7.42405
7.65367
7.87958
8.10163
8.31969
8.5336
8.74325
8.94847
9.14915
9.34512
9.53623
9.72228
9.90305
10.0782
10.2475
10.4101
10.5662
10.7109
10.8596
10.9391
-7.36822
-7.37546
-7.3889
-7.4034
-7.41526
-7.42512
-7.43428
-7.4431
-7.45124
-7.45835
-7.4642
-7.46868
-7.47173
-7.47346
-7.47407
-7.4739
-7.47342
-7.47309
-7.47344
-7.47506
-7.47861
-7.48468
-7.49375
-7.5061
-7.52184
-7.54092
-7.56316
-7.58833
-7.61614
-7.64631
-7.67851
-7.71246
-7.74783
-7.78436
-7.82173
-7.85969
-7.89797
-7.93632
-7.97453
-8.01241
-8.04975
-8.08639
-8.12217
-8.15695
-8.19061
-8.22303
-8.25412
-8.28378
-8.31196
-8.33859
-8.36364
-8.38704
-8.40877
-8.42876
-8.44701
-8.46346
-8.47811
-8.49092
-8.50188
-8.51094
-8.51808
-8.52327
-8.52647
-8.52764
-8.52674
-8.52373
-8.51855
-8.51115
-8.50149
-8.48951
-8.47514
-8.45833
-8.43902
-8.41713
-8.3926
-8.36534
-8.3353
-8.30236
-8.26646
-8.22749
-8.18535
-8.13994
-8.09113
-8.0388
-7.98282
-7.92306
-7.85935
-7.79152
-7.71945
-7.64299
-7.5621
-7.47651
-7.38602
-7.29049
-7.18982
-7.08389
-6.9726
-6.85586
-6.73356
-6.60566
-6.47209
-6.33285
-6.18791
-6.0373
-5.88107
-5.71926
-5.55194
-5.37921
-5.20118
-5.01798
-4.82975
-4.63664
-4.43881
-4.23644
-4.02972
-3.81882
-3.60394
-3.38525
-3.16297
-2.93724
-2.70828
-2.47622
-2.24125
-2.00351
-1.76313
-1.52027
-1.27507
-1.02768
-0.778218
-0.526801
-0.273557
-0.0186458
0.237821
0.495696
0.754916
1.01535
1.2769
1.53934
1.80257
2.06641
2.33073
2.59532
2.86001
3.12459
3.3889
3.65275
3.91597
4.17833
4.43965
4.69969
4.95826
5.21514
5.47013
5.72302
5.97361
6.22172
6.46715
6.70972
6.94924
7.18556
7.41849
7.64787
7.87357
8.09542
8.31328
8.52701
8.73647
8.94151
9.142
9.33776
9.52863
9.71438
9.89477
10.0695
10.2381
10.3998
10.5548
10.698
10.8451
10.9226
-7.31917
-7.32812
-7.3447
-7.36196
-7.3752
-7.38577
-7.39561
-7.40529
-7.41436
-7.42233
-7.42896
-7.43401
-7.43743
-7.43934
-7.44004
-7.43985
-7.43925
-7.43882
-7.43926
-7.44128
-7.44549
-7.45245
-7.46252
-7.4759
-7.49262
-7.51262
-7.53571
-7.56168
-7.59025
-7.62113
-7.65403
-7.68867
-7.72474
-7.76196
-7.80003
-7.83869
-7.87768
-7.91677
-7.95571
-7.99429
-8.03232
-8.06964
-8.1061
-8.14156
-8.1759
-8.20899
-8.24076
-8.2711
-8.29997
-8.32727
-8.35297
-8.37699
-8.39932
-8.41991
-8.43872
-8.45573
-8.4709
-8.48422
-8.49566
-8.5052
-8.5128
-8.51842
-8.52203
-8.52358
-8.52302
-8.52033
-8.51544
-8.5083
-8.49886
-8.48708
-8.47289
-8.45623
-8.43705
-8.41527
-8.39084
-8.36368
-8.33372
-8.30086
-8.26504
-8.22614
-8.18408
-8.13874
-8.09
-8.03774
-7.98183
-7.92212
-7.85846
-7.79068
-7.71858
-7.64214
-7.5612
-7.47553
-7.38492
-7.28923
-7.18834
-7.08216
-6.97056
-6.85347
-6.73076
-6.60243
-6.46837
-6.32862
-6.18312
-6.03196
-5.87512
-5.71275
-5.54481
-5.37152
-5.19287
-5.00914
-4.82036
-4.62678
-4.42846
-4.22569
-4.01858
-3.80741
-3.59225
-3.3734
-3.15098
-2.92522
-2.69625
-2.46428
-2.22943
-1.99188
-1.75173
-1.50916
-1.26429
-1.01727
-0.768215
-0.517225
-0.264467
-0.0100415
0.245891
0.503283
0.761988
1.02197
1.28298
1.54494
1.80764
2.071
2.33482
2.59893
2.86313
3.12725
3.39111
3.65455
3.91737
4.17936
4.4403
4.69998
4.9582
5.21473
5.46938
5.72194
5.97221
6.22001
6.46513
6.70741
6.94665
7.18269
7.41536
7.6445
7.86995
8.09158
8.30923
8.52276
8.73202
8.93688
9.13716
9.33271
9.52331
9.70876
9.88876
10.0629
10.2309
10.3918
10.5457
10.6876
10.8331
10.9093
-7.2747
-7.28537
-7.30517
-7.32525
-7.33987
-7.35114
-7.36169
-7.37219
-7.38201
-7.39049
-7.3973
-7.40221
-7.40516
-7.4063
-7.40596
-7.40464
-7.40303
-7.40185
-7.40187
-7.40381
-7.40824
-7.41561
-7.42616
-7.44006
-7.45728
-7.47778
-7.50136
-7.52781
-7.55686
-7.58827
-7.62174
-7.657
-7.69371
-7.73159
-7.77038
-7.80981
-7.8496
-7.88952
-7.92932
-7.96876
-8.00768
-8.04587
-8.0832
-8.11952
-8.15472
-8.18867
-8.22127
-8.25243
-8.28209
-8.31015
-8.33658
-8.3613
-8.38431
-8.40553
-8.42498
-8.44259
-8.45837
-8.47228
-8.48429
-8.49436
-8.50248
-8.50858
-8.51264
-8.5146
-8.51443
-8.51207
-8.50747
-8.50059
-8.49138
-8.47979
-8.46576
-8.44924
-8.43016
-8.40848
-8.38412
-8.35702
-8.32711
-8.2943
-8.25852
-8.21967
-8.17764
-8.13234
-8.08363
-8.03142
-7.97554
-7.91586
-7.85221
-7.78442
-7.71231
-7.6358
-7.55478
-7.469
-7.37823
-7.28234
-7.18121
-7.07474
-6.96281
-6.84533
-6.72222
-6.59341
-6.45887
-6.31858
-6.17255
-6.02081
-5.86343
-5.70046
-5.53199
-5.3581
-5.17895
-4.99469
-4.80547
-4.61144
-4.41275
-4.20963
-4.00226
-3.79085
-3.57557
-3.35662
-3.13419
-2.90847
-2.67962
-2.44782
-2.2132
-1.97592