/*--------------------------------*- C++ -*----------------------------------*\
  =========                 |
  \\      /  F ield         | OpenFOAM: The Open Source CFD Toolbox
   \\    /   O peration     | Website:  https://openfoam.org
    \\  /    A nd           | Version:  8
     \\/     M anipulation  |
\*---------------------------------------------------------------------------*/
FoamFile
{
    version     2.0;
    format      ascii;
    class       volVectorField;
    location    "300";
    object      wallShearStress;
}
// * * * * * * * * * * * * * * * * * * * * * * * * * * * * * * * * * * * * * //

dimensions      [0 2 -2 0 0 0 0];

internalField   uniform (0 0 0);

boundaryField
{
    inlet
    {
        type            calculated;
        value           uniform (0 0 0);
    }
    outlet
    {
        type            calculated;
        value           uniform (0 0 0);
    }
    upperWall
    {
        type            calculated;
        value           nonuniform List<vector> 
223
(
(-0.625866 -0.0623723 0)
(-0.578777 -0.0561601 0)
(-0.562813 -0.0364341 0)
(-0.552584 -0.0229186 0)
(-0.542232 -0.0138621 0)
(-0.531201 -0.0080965 0)
(-0.519625 -0.00451775 0)
(-0.508242 -0.00229327 0)
(-0.497041 -0.00091513 0)
(-0.486802 -7.08962e-05 0)
(-0.477512 0.000441577 0)
(-0.469117 0.00074691 0)
(-0.461558 0.000921285 0)
(-0.454746 0.00101348 0)
(-0.448609 0.00105521 0)
(-0.443063 0.00107013 0)
(-0.43802 0.00107131 0)
(-0.433439 0.001111 0)
(-0.429734 0.00117445 0)
(-0.426781 0.0012374 5.44735e-22)
(-0.423869 0.00125489 0)
(-0.421025 0.00124434 0)
(-0.418244 0.00121664 0)
(-0.415531 0.0011773 5.57712e-22)
(-0.412892 0.00113182 0)
(-0.410328 0.00108204 0)
(-0.407838 0.00103162 0)
(-0.405422 0.000980632 -1.13926e-21)
(-0.403078 0.000931345 1.14507e-21)
(-0.400805 0.00088314 1.15084e-21)
(-0.398601 0.00083769 0)
(-0.396463 0.000794147 -1.16228e-21)
(-0.394388 0.000753583 0)
(-0.392374 0.000715218 1.17361e-21)
(-0.390419 0.000679541 1.17925e-21)
(-0.38852 0.000646327 -1.18486e-21)
(-0.386674 0.000615664 0)
(-0.384879 0.000587424 0)
(-0.383131 0.000561435 0)
(-0.381429 0.00053744 0)
(-0.379771 0.000515517 -1.21285e-21)
(-0.378153 0.000495523 0)
(-0.376575 0.00047729 0)
(-0.375032 0.000460796 1.22954e-21)
(-0.373523 0.000445817 0)
(-0.372048 0.000432324 1.24064e-21)
(-0.370602 0.000420267 -1.24617e-21)
(-0.369185 0.00040949 1.25171e-21)
(-0.367793 0.000399957 0)
(-0.366427 0.000391553 0)
(-0.365082 0.000384188 0)
(-0.363759 0.000377767 1.27373e-21)
(-0.362454 0.000372239 -1.27918e-21)
(-0.361168 0.000367461 0)
(-0.359898 0.000363476 0)
(-0.358642 0.000360184 0)
(-0.3574 0.000357503 0)
(-0.35617 0.000355421 0)
(-0.354949 0.000353846 0)
(-0.353738 0.000352724 0)
(-0.352535 0.00035205 0)
(-0.351339 0.000351785 1.32612e-21)
(-0.350147 0.000351795 -1.33095e-21)
(-0.348962 0.000352173 0)
(-0.347778 0.000352945 0)
(-0.346598 0.000353951 0)
(-0.345417 0.000355175 -1.34905e-21)
(-0.344238 0.000356669 0)
(-0.343055 0.000358357 0)
(-0.341874 0.000360282 0)
(-0.340684 0.000362413 0)
(-0.339496 0.000364887 0)
(-0.338293 0.000367579 -2.74271e-21)
(-0.337094 0.000370226 0)
(-0.335876 0.000372932 0)
(-0.334662 0.000376036 0)
(-0.333424 0.000379327 0)
(-0.332186 0.000382773 0)
(-0.330933 0.000386326 0)
(-0.32965 0.000390603 0)
(-0.328412 0.000394942 2.77082e-21)
(-0.326994 0.000400459 0)
(-0.325951 0.000409081 0)
(-0.323942 0.000406595 0)
(-0.324153 0.00040723 -2.77305e-21)
(-0.319004 0.000412314 0)
(-0.326323 0.000426648 -2.80517e-21)
(-0.317756 0.000334073 0)
(-0.352406 0.000149303 0)
(-0.541841 0.00461488 0)
(-0.470567 0.00772682 -3.96582e-21)
(-0.404968 0.0110043 0)
(-0.370317 0.0109593 3.01436e-21)
(-0.358949 0.00195642 2.87835e-21)
(-0.370677 -0.0028482 0)
(-0.36088 -0.00193143 3.12414e-21)
(-0.347835 -0.00193594 0)
(-0.331608 -0.001919 0)
(-0.324213 -0.00180635 0)
(-0.317061 -0.00150454 -2.93448e-21)
(-0.309594 -0.0017047 0)
(-0.302794 -0.00122983 -2.87076e-21)
(-0.301735 -0.00157578 2.86365e-21)
(-0.374864 0.000408546 0)
(-0.356075 0.00712339 0)
(-0.302187 0.0052252 0)
(-0.297727 0.00325519 0)
(-0.298568 0.00117536 0)
(-0.311472 -0.00285548 0)
(-0.30636 -0.00159796 0)
(-0.290325 -0.000433861 -2.82645e-21)
(-0.289015 -0.00207351 0)
(-0.329995 0.00169815 0)
(-0.307654 0.00338633 0)
(-0.29775 -0.000382764 0)
(-0.309526 -0.00132753 0)
(-0.283166 -0.00209636 0)
(-0.361444 -0.00295688 0)
(-0.402478 0.0018007 0)
(-0.344326 0.0027016 0)
(-0.330065 -0.000643549 0)
(-0.276991 -0.000475128 0)
(-0.377743 -0.0019651 0)
(-0.390204 -0.00206582 -6.72268e-21)
(-0.348252 0.000266249 0)
(-0.373786 0.00034929 0)
(-0.351485 0.00422692 0)
(-0.299681 0.00403257 4.52225e-21)
(-0.264348 -0.000127511 0)
(-0.355237 0.00156745 0)
(-0.310684 0.00505123 4.41523e-21)
(-0.261251 0.00441412 0)
(-0.259656 0.00242557 -3.34786e-21)
(-0.258265 -0.000206662 0)
(-0.256211 -0.00250778 0)
(-0.27711 -0.00289154 0)
(-0.307276 9.43159e-05 3.48078e-21)
(-0.259342 0.000735554 0)
(-0.248743 -0.00162641 -2.33155e-21)
(-0.267541 -0.00157929 0)
(-0.273202 0.00208519 0)
(-0.243698 0.00387036 0)
(-0.242834 0.000689143 0)
(-0.241577 -0.00138948 0)
(-0.253902 0.00114304 0)
(-0.238656 0.000971104 0)
(-0.26093 0.00167962 0)
(-0.235605 0.0029564 0)
(-0.234063 -0.000372416 0)
(-0.258552 -0.00227608 0)
(-0.253935 0.000450032 1.2044e-21)
(-0.227801 0.000737771 -1.34744e-21)
(-0.238269 0.000553165 0)
(-0.223931 0.00019429 0)
(-0.232966 -0.00226042 0)
(-0.219629 -0.00162238 0)
(-0.213848 -0.000718168 -3.5214e-21)
(-0.209844 0.000106784 3.91535e-21)
(-0.205511 0.000421398 -4.37372e-21)
(-0.20088 0.0024058 0)
(-0.201644 0.00288566 -4.85353e-21)
(-0.213698 -0.000356925 -1.14843e-20)
(-0.207241 -0.00169271 0)
(-0.194525 -0.000640766 -1.37195e-20)
(-0.192159 0.000229327 1.47783e-20)
(-0.18875 0.00141745 0)
(-0.18778 0.00101597 0)
(-0.185768 0.000588734 0)
(-0.190953 0.00391723 0)
(-0.187546 0.00192492 0)
(-0.184606 -0.00172392 -2.14611e-20)
(-0.180904 -0.000132712 0)
(-0.178182 0.0010272 -2.3969e-20)
(-0.176529 0.000259832 0)
(-0.173291 0.00060395 0)
(-0.173712 0.0021732 0)
(-0.173573 0.00125769 0)
(-0.170833 0.000109269 0)
(-0.169255 0.00178332 3.22632e-20)
(-0.171354 0.000585002 0)
(-0.166435 -0.00209465 0)
(-0.162089 -0.000917471 -3.86123e-20)
(-0.160932 0.000949464 0)
(-0.161875 0.00162133 0)
(-0.160843 0.00104759 0)
(-0.157058 0.000500633 4.36938e-20)
(-0.150192 0.000326474 0)
(-0.140393 0.000538979 0)
(-0.128557 0.00093075 0)
(-0.11662 0.0012239 0)
(-0.105907 0.00127018 -7.77335e-20)
(-0.0975711 0.00106374 0)
(-0.0913193 0.000858592 0)
(-0.0859967 0.000767485 0)
(-0.0812108 0.000855724 1.06508e-19)
(-0.0737178 0.00111422 0)
(-0.0694054 0.00182024 0)
(-0.0408394 0.00157492 -1.49234e-19)
(-0.0717845 0.000944469 0)
(-0.105564 0.00627084 1.28915e-17)
(-0.128573 0.0105684 2.32657e-17)
(-0.1408 0.0131026 2.19617e-17)
(-0.148245 0.0145017 2.11536e-17)
(-0.153909 0.0153941 2.04993e-17)
(-0.158552 0.0160163 -1.99255e-17)
(-0.162012 0.0164855 -1.94091e-17)
(-0.165195 0.016829 0)
(-0.168049 0.017146 -3.68731e-17)
(-0.171221 0.0174377 -1.79563e-17)
(-0.174304 0.0177478 5.95835e-34)
(-0.1781 0.0180604 -1.20371e-35)
(-0.182158 0.0184436 -3.24889e-17)
(-0.187003 0.0188671 -3.11334e-17)
(-0.192152 0.0193563 -2.9543e-17)
(-0.198178 0.0198929 -4.81482e-35)
(-0.204764 0.0205039 5.17172e-17)
(-0.212369 0.0211953 2.36854e-17)
(-0.220596 0.0219543 1.20371e-35)
(-0.230643 0.0228736 -3.67519e-17)
(-0.240061 0.0237622 -1.20117e-20)
(-0.256063 0.0251615 0)
(-0.260879 0.0259763 1.37688e-17)
(-0.291776 0.0279201 -7.70557e-18)
)
;
    }
    lowerWall
    {
        type            calculated;
        value           nonuniform List<vector> 
250
(
(-0.618995 0.0605012 0)
(-0.621236 0.0622884 0)
(-0.623659 0.0389877 0)
(-0.581463 0.0210628 0)
(-0.559354 0.0120953 0)
(-0.712506 -0.00283336 0)
(-0.621318 -0.0133776 0)
(-0.567906 -0.00231807 0)
(-0.544121 0.00184266 0)
(-0.525511 0.000690422 0)
(-0.485773 0.00148657 0)
(-0.480818 0.00364174 0)
(-0.538942 -0.0041102 0)
(-0.504235 -0.00744314 0)
(-0.50371 5.99174e-06 0)
(-0.479815 0.00158295 0)
(-0.466002 0.00166599 0)
(-0.455677 0.00236279 0)
(0.00288178 -0.00734618 0)
(0.00295292 -0.0112051 0)
(0.00301361 -0.0148898 0)
(0.0030169 -0.0183705 7.03145e-20)
(0.00296961 -0.0213835 -6.27615e-20)
(0.0032622 -0.0241006 5.71428e-20)
(0.00398972 -0.0241234 -5.24103e-20)
(0.00927484 -0.042509 0)
(-0.0636131 -0.146552 0)
(0.000213765 -0.000265176 0)
(6.73608e-05 -0.000776647 0)
(1.45572e-05 -0.000909903 0)
(6.45017e-05 -0.000965874 0)
(-1.47541e-05 -0.000761566 1.54942e-19)
(-0.000366985 0.000203692 -1.35499e-19)
(-0.00105788 0.00255538 0)
(-0.0016789 0.00626094 -1.40764e-19)
(-0.0017841 0.0101564 1.11869e-19)
(-0.00139044 0.0132148 0)
(-0.00076192 0.0149566 0)
(-0.000123302 0.0152857 0)
(0.000409048 0.0143545 0)
(0.000884828 0.0125129 0)
(0.0013675 0.00977364 0)
(0.00187283 0.00622296 0)
(0.0024018 0.00199658 0)
(0.00277036 -0.0027966 0)
(-0.000138099 -0.000267852 0)
(0.000165714 -0.000429325 0)
(0.000461329 -0.000471537 0)
(0.000753966 -0.000392227 0)
(0.000958663 -0.000164563 -0)
(0.000950304 0.000179142 -0)
(0.000685856 0.000564016 1.5865e-20)
(0.000200783 0.000888811 -1.75775e-20)
(-0.00042047 0.00107792 -0)
(-0.00108573 0.00111281 -1.07693e-20)
(-0.00172209 0.0010134 -0)
(-0.00227003 0.00081215 0)
(-0.00269087 0.000545476 -0)
(-0.00296417 0.00024542 6.53251e-21)
(-0.00308332 -6.81422e-05 0)
(-0.00303662 -0.000367724 0)
(-0.00283414 -0.000618842 -6.71036e-21)
(-0.00250218 -0.000791904 -0)
(-0.00207685 -0.000864379 0)
(-0.00160551 -0.000824584 -0)
(-0.00114465 -0.000679098 1.07919e-20)
(-0.000750152 -0.000458003 0)
(-0.000460558 -0.000207836 1.58463e-20)
(-0.000288269 2.97759e-05 0)
(-0.000229896 0.000247455 0)
(-0.000303112 0.00042672 1.96296e-20)
(-0.00047641 0.000576343 0)
(-0.000760424 0.000709009 -1.38619e-20)
(-0.00114063 0.000784529 0)
(-0.00154251 0.000754122 9.92107e-21)
(-0.00186899 0.000633473 0)
(-0.00207177 0.000493985 0)
(-0.00215277 0.000423398 0)
(-0.00217661 0.000476445 0)
(-0.00219019 0.000573633 0)
(-0.00214562 0.000515601 -8.06592e-21)
(-0.00181426 5.2809e-05 0)
(-0.000969701 -0.000696287 2.06755e-20)
(0.00057745 -0.00133131 0)
(0.00227483 -0.00203804 -8.31846e-21)
(0.00427294 -0.00287228 0)
(0.00664038 -0.0035955 -0)
(0.00934704 -0.00409142 3.74988e-21)
(0.0118284 -0.00423617 0)
(0.0143698 -0.0041458 2.86782e-21)
(0.0167749 -0.00401345 -2.51647e-21)
(0.0191261 -0.00411697 -0)
(0.0214502 -0.00388888 -2.1034e-21)
(0.0235437 -0.00359173 -1.9635e-21)
(0.026107 -0.0034451 -0)
(0.0287723 -0.00304868 0)
(0.0288193 -0.00250962 0)
(0.0302215 -0.00224213 0)
(0.0318204 -0.00198414 -0)
(0.0333072 -0.00176348 1.63347e-21)
(0.0350784 -0.00164298 0)
(0.0364284 -0.00153163 -1.60683e-21)
(0.0378367 -0.00140182 -0)
(0.0391333 -0.00128726 -0)
(0.0403462 -0.00119407 1.57569e-21)
(0.0415251 -0.00111319 0)
(0.0426507 -0.00104423 -1.56007e-21)
(0.043735 -0.000984216 -0)
(0.0447892 -0.000932206 0)
(0.0458085 -0.000886653 -0)
(0.0468053 -0.000846672 1.53431e-21)
(0.0477763 -0.000811035 0)
(0.0487283 -0.000779122 -0)
(0.0496606 -0.000750061 1.51669e-21)
(0.0505762 -0.00072353 0)
(0.0514756 -0.000698882 1.50483e-21)
(0.0523605 -0.000675773 0)
(0.0532304 -0.000653734 0)
(0.0540868 -0.000632652 0)
(0.0549287 -0.000612096 -1.47942e-21)
(0.055757 -0.000591989 -0)
(0.0565706 -0.000572073 0)
(0.0573705 -0.000552085 -1.45801e-21)
(0.0581539 -0.000531904 -1.4503e-21)
(0.0589225 -0.000511413 -0)
(0.059673 -0.000490405 -1.43387e-21)
(0.0604071 -0.000468658 0)
(0.0611206 -0.000446086 -2.83194e-21)
(0.0618155 -0.000422391 -0)
(0.0624869 -0.000397422 -2.79281e-21)
(0.0631366 -0.000370884 -0)
(0.0637598 -0.000342607 2.75001e-21)
(0.0643576 -0.000312116 0)
(0.0649251 -0.000279248 0)
(0.0654622 -0.000244187 0)
(0.0659663 -0.000206766 -2.65184e-21)
(0.0664354 -0.000167263 -0)
(0.0668671 -0.000126861 2.5967e-21)
(0.067261 -8.74809e-05 0)
(0.067617 -5.17818e-05 -2.53774e-21)
(0.0679387 -2.0875e-05 -2.50594e-21)
(0.0682253 7.7943e-06 -2.47261e-21)
(0.0684785 3.65101e-05 0)
(0.0686962 6.52649e-05 0)
(0.0688786 9.44068e-05 0)
(0.069024 0.000123839 0)
(0.0691323 0.000153554 0)
(0.0692022 0.0001836 0)
(0.0692327 0.000213749 0)
(0.0692238 0.00024405 0)
(0.0691742 0.000274285 2.09182e-21)
(0.0690843 0.000304608 2.0392e-21)
(0.0689523 0.000334647 0)
(0.0687796 0.000364598 0)
(0.0685646 0.000394091 0)
(0.0683085 0.000423479 1.80541e-21)
(0.0680097 0.000452132 0)
(0.0676703 0.000480596 0)
(0.0672882 0.000508223 0)
(0.0668661 0.000535588 0)
(0.0664016 0.000561968 -1.4576e-21)
(0.0658979 0.000588017 0)
(0.0653527 0.000612941 0)
(0.0647697 0.000637548 1.21785e-21)
(0.0641461 0.000661097 -1.13259e-21)
(0.0634852 0.0006842 0)
(0.0627854 0.000706154 -9.53939e-22)
(0.0620497 0.000727773 0)
(0.0612759 0.000748279 7.64171e-22)
(0.0604674 0.000768334 0)
(0.0596223 0.000787439 0)
(0.0587429 0.000806139 0)
(0.0578277 0.000824017 0)
(0.0568812 0.000841294 0)
(0.0559045 0.000857626 -2.47295e-22)
(0.0548966 0.000873549 -1.11492e-23)
(0.0538586 0.000889052 0)
(0.0527915 0.000904256 0)
(0.0516961 0.000919226 0)
(0.0505693 0.000933562 -1.00875e-21)
(0.0494224 0.000947609 0)
(0.0482319 0.000960376 0)
(0.0470275 0.000973119 0)
(0.0457925 0.000985896 -2.16848e-21)
(0.0445335 0.000998852 2.48391e-21)
(0.0432472 0.00101134 0)
(0.0419402 0.00102361 0)
(0.0406072 0.00103466 3.50273e-21)
(0.0392489 0.00104496 3.86967e-21)
(0.0378724 0.00105442 0)
(0.0364725 0.00106335 0)
(0.0350501 0.00107126 -5.06938e-21)
(0.0336126 0.00107922 5.50737e-21)
(0.032159 0.00108667 0)
(0.0306934 0.00109465 0)
(0.0292151 0.00110295 6.9563e-21)
(0.0277249 0.00111162 0)
(0.0262224 0.00112022 0)
(0.0247092 0.00112879 8.65189e-21)
(0.0231861 0.0011372 0)
(0.0216548 0.00114563 9.95793e-21)
(0.0201157 0.00115393 0)
(0.0185698 0.00116235 0)
(0.017018 0.00117082 0)
(0.0154614 0.00117956 -1.31439e-20)
(0.0139008 0.00118853 0)
(0.012337 0.00119797 0)
(0.0107709 0.0012079 0)
(0.00920323 0.0012186 0)
(0.0076346 0.00123043 0)
(0.00606521 0.00124489 0)
(0.0044953 0.00126208 -2.19513e-20)
(0.00292507 0.00128079 -2.37981e-20)
(0.00135504 0.00129843 0)
(-0.000213269 0.00129784 0)
(-0.00177848 0.00127053 0)
(-0.00333877 0.0012337 2.48234e-20)
(-0.00489173 0.00119594 0)
(-0.00643219 0.00115656 -4.53517e-20)
(-0.00795293 0.00111233 4.357e-20)
(-0.00943498 0.00105948 4.20051e-20)
(-0.0108713 0.000981423 -4.06633e-20)
(-0.0121188 0.000878816 3.95794e-20)
(-0.013447 0.00066217 -3.88637e-20)
(-0.0130916 0.000156188 0)
(-0.015514 0.000389782 -2.39808e-18)
(-0.0192524 -6.00731e-05 -2.22956e-18)
(-0.0229916 -0.000534965 -3.00927e-36)
(-0.0265515 -0.000954435 -3.93417e-18)
(-0.0301944 -0.0013655 -7.4316e-18)
(-0.0340152 -0.00178187 -3.51796e-18)
(-0.0380201 -0.00220537 3.33498e-18)
(-0.0422337 -0.00264398 -6.01853e-36)
(-0.0466989 -0.00310353 3.00927e-36)
(-0.0514386 -0.00359026 2.858e-18)
(-0.0564732 -0.0041061 2.71596e-18)
(-0.0618422 -0.00465727 3.00927e-36)
(-0.0675668 -0.00524493 0)
(-0.0736972 -0.00587514 0)
(-0.0802872 -0.00655251 -1.57046e-35)
(-0.0873316 -0.00728068 -4.9841e-36)
(-0.0950669 -0.00807172 1.05324e-34)
(-0.103202 -0.00891921 -3.56962e-18)
(-0.112579 -0.00985338 -3.28385e-18)
(-0.121953 -0.010861 6.01853e-36)
(-0.133849 -0.0119481 5.26335e-18)
(-0.144565 -0.0132518 8.90666e-18)
(-0.161792 -0.0144405 6.01853e-36)
(-0.170416 -0.0162727 -4.40525e-18)
(-0.206027 -0.0172867 -1.50463e-35)
)
;
    }
    frontAndBack
    {
        type            empty;
    }
}


// ************************************************************************* //
