/*--------------------------------*- C++ -*----------------------------------*\
  =========                 |
  \\      /  F ield         | OpenFOAM: The Open Source CFD Toolbox
   \\    /   O peration     | Website:  https://openfoam.org
    \\  /    A nd           | Version:  8
     \\/     M anipulation  |
\*---------------------------------------------------------------------------*/
FoamFile
{
    version     2.0;
    format      ascii;
    class       volScalarField;
    location    "2800";
    object      nut;
}
// * * * * * * * * * * * * * * * * * * * * * * * * * * * * * * * * * * * * * //

dimensions      [0 2 -1 0 0 0 0];

internalField   nonuniform List<scalar> 
12225
(
0.0122671
0.00158819
0.000666129
0.000410105
0.000294025
0.00022806
0.000183261
0.000170805
0.000132697
0.000106844
9.46735e-05
8.80085e-05
7.89856e-05
7.2233e-05
6.77319e-05
6.45071e-05
6.12105e-05
6.46335e-05
0.0323823
0.00744532
0.00330638
0.00204329
0.00146801
0.0011445
0.000936338
0.000799975
0.00067951
0.000577234
0.000506286
0.000452432
0.00041054
0.000378806
0.000350182
0.000327767
0.000311172
0.000292818
0.0490123
0.01515
0.00728196
0.00457854
0.00330639
0.00258054
0.00211233
0.00178913
0.00154181
0.00134762
0.00119772
0.0010787
0.000982056
0.000902481
0.000835978
0.000780909
0.000735547
0.000687171
0.063054
0.0237783
0.0122894
0.00788814
0.00573397
0.00448498
0.00367412
0.00310733
0.00268471
0.00235805
0.00210111
0.00189458
0.00172531
0.00158451
0.00146613
0.00136605
0.00128146
0.00119789
0.074932
0.0328517
0.0181452
0.0119262
0.00874548
0.00686412
0.0056308
0.00476254
0.00411748
0.00362029
0.00322731
0.00290992
0.00264899
0.00243143
0.00224799
0.00209188
0.00195826
0.00183627
0.0849536
0.0420208
0.0246655
0.0166359
0.0123325
0.00972587
0.00799539
0.00676785
0.00585345
0.00514769
0.00458844
0.00413587
0.00376334
0.00345239
0.00318983
0.00296596
0.0027736
0.00260471
0.0933822
0.0510219
0.0316642
0.0219415
0.016474
0.0130717
0.0107778
0.00913551
0.0079057
0.0069534
0.0061969
0.00558367
0.00507837
0.00465632
0.00429976
0.00399561
0.00373414
0.00350818
0.0993794
0.0583363
0.0378386
0.0268568
0.0204171
0.0163053
0.0134891
0.011453
0.00991891
0.00872629
0.00777635
0.00700497
0.00636866
0.00583685
0.0053874
0.00500398
0.00467452
0.00439126
0.104023
0.0645454
0.0433804
0.0314239
0.0241571
0.0194092
0.0161097
0.0137018
0.0118766
0.0104521
0.00931443
0.00838904
0.00762485
0.00698574
0.00644544
0.00598449
0.00558858
0.00524877
0.108368
0.0708939
0.0493756
0.0365496
0.0284517
0.0230231
0.0191863
0.0163547
0.0141926
0.0124968
0.011138
0.0100303
0.00911434
0.00834759
0.0076991
0.00714579
0.00667068
0.00626298
0.112368
0.0772557
0.0557282
0.0421918
0.0332976
0.0271652
0.0227467
0.0194432
0.0168984
0.0148903
0.0132749
0.0119544
0.0108605
0.00994379
0.00916796
0.00850586
0.00793736
0.00744915
0.115994
0.0834975
0.0623053
0.0482611
0.0386474
0.0318167
0.026789
0.0229739
0.0200046
0.0176452
0.0157378
0.0141736
0.0128749
0.011785
0.0108618
0.0100736
0.00939671
0.00881464
0.119234
0.0894856
0.0689377
0.0546109
0.0443919
0.0369007
0.0312597
0.0269088
0.0234836
0.02074
0.0185096
0.0166735
0.0151449
0.01386
0.0127704
0.0118396
0.0110397
0.0103508
0.122086
0.095084
0.075415
0.0610223
0.0503361
0.0422534
0.0360231
0.0311353
0.0272402
0.024093
0.021519
0.0193909
0.017614
0.0161174
0.0148466
0.01376
0.0128257
0.0120196
0.124546
0.100135
0.0814619
0.0671725
0.056158
0.047577
0.0408126
0.0354174
0.031066
0.0275196
0.0246012
0.0221777
0.0201481
0.0184349
0.0169782
0.0157314
0.0146583
0.0137311
0.126578
0.104396
0.0866605
0.0725515
0.0613228
0.0523526
0.0451453
0.0393148
0.0345631
0.0306611
0.0274325
0.0247409
0.0224806
0.020569
0.0189413
0.0175468
0.0163454
0.0153061
0.128011
0.107322
0.0902141
0.0762353
0.0648743
0.0556509
0.0481493
0.0420254
0.0370012
0.0328553
0.0294126
0.0265352
0.0241143
0.0220643
0.0203172
0.0188191
0.0175275
0.0164083
0.128006
0.107313
0.0902048
0.0762269
0.0648674
0.0556454
0.048145
0.0420222
0.0369988
0.0328537
0.0294117
0.0265349
0.0241147
0.0220652
0.0203185
0.0188206
0.0175287
0.0164083
0.126509
0.104255
0.0864922
0.0723807
0.0611613
0.052205
0.0450128
0.0391967
0.0344584
0.0305686
0.0273506
0.0246684
0.0224163
0.0205118
0.0188903
0.0175006
0.0163024
0.0152631
0.124267
0.0995604
0.0807712
0.0664676
0.0554886
0.0469631
0.0402594
0.0349228
0.0306248
0.0271258
0.0242488
0.0218611
0.0198626
0.0181762
0.0167426
0.0155152
0.0144575
0.0135405
0.12136
0.0936399
0.0737261
0.0593348
0.0487592
0.0408249
0.0347467
0.0300003
0.0262308
0.0231928
0.0207127
0.018665
0.0169572
0.0155198
0.0142999
0.0132567
0.0123583
0.0115798
0.117686
0.0865903
0.0656967
0.0514791
0.0415374
0.0343608
0.0290184
0.0249322
0.0217348
0.0191848
0.0171184
0.0154211
0.0140106
0.0128263
0.0118229
0.0109657
0.010228
0.00958895
0.11305
0.0784122
0.056921
0.0432687
0.0342296
0.0279652
0.0234365
0.0200435
0.0174263
0.0153597
0.0136966
0.0123369
0.0112106
0.010267
0.00946866
0.00878719
0.00820102
0.00769347
0.107169
0.0691009
0.0476372
0.035029
0.0271566
0.021922
0.0182437
0.0155401
0.0134817
0.0118706
0.0105816
0.00953197
0.00866487
0.00793965
0.0073267
0.00680378
0.00635413
0.00596495
0.0996761
0.0587036
0.0381279
0.0270699
0.0205782
0.0164329
0.0135949
0.0115438
0.00999922
0.00879908
0.00784341
0.00706756
0.00642791
0.00589357
0.00544229
0.00505734
0.00472643
0.00444008
0.0901097
0.0473665
0.0287363
0.0196847
0.0146976
0.0116312
0.00957853
0.00811528
0.00702332
0.00617994
0.00551057
0.00496794
0.00452113
0.00414813
0.00383329
0.00356444
0.00333366
0.00313367
0.0779076
0.0353826
0.0198606
0.0131383
0.00966107
0.00759298
0.00623352
0.0052743
0.00456399
0.00401883
0.00358697
0.00323611
0.00294717
0.00270592
0.00250232
0.00232747
0.00217868
0.00204817
0.06238
0.0232554
0.0119461
0.00765493
0.00556337
0.00435256
0.00356724
0.00301639
0.00261307
0.00230795
0.00206655
0.00186719
0.00170218
0.00156416
0.00144768
0.0013444
0.00126079
0.00118219
0.0426105
0.0117794
0.0054693
0.00341385
0.00246071
0.00192006
0.00157275
0.00132885
0.00115942
0.00103848
0.000943996
0.000857686
0.000784586
0.000721511
0.00066776
0.000612312
0.000581055
0.000536635
0.0168348
0.00255985
0.00110002
0.000683428
0.000493724
0.000386804
0.000318219
0.00026631
0.000272592
0.000322007
0.000354516
0.000337161
0.000302487
0.000261799
0.000237268
0.00018379
0.000234515
0.000235741
3.99311e-09
5.91155e-07
2.00085e-06
6.28928e-06
1.08026e-05
1.3532e-05
1.32574e-05
1.17926e-05
9.06462e-06
5.9485e-06
3.52435e-06
2.02515e-06
1.40991e-06
1.50286e-06
2.06693e-06
2.56615e-06
2.45469e-06
2.06933e-06
2.54226e-06
8.67513e-06
9.02478e-06
5.55322e-06
6.74758e-06
2.64952e-05
5.67459e-05
7.44181e-05
9.09733e-05
0.000104822
0.000117043
0.000127204
0.000136109
0.000143756
0.000150447
0.000156274
0.000161356
0.000165842
0.000169817
0.000173367
0.00017655
0.000179409
0.000181974
0.000184267
0.000186307
0.000188111
0.000189691
0.000191062
0.000192235
0.000193215
0.000194004
0.000194476
0.000194974
0.000195083
0.000195144
0.000195019
0.000194721
0.000194275
0.000193676
0.000192929
0.000192036
0.000190997
0.000189816
0.000188495
0.000187035
0.00018544
0.000183711
0.000181852
0.000179862
0.000177745
0.000175504
0.000173139
0.000170655
0.000168052
0.000165333
0.000162499
0.000159551
0.00015649
0.000153316
0.000150027
0.000146624
0.000143104
0.000139466
0.000135705
0.000131819
0.000127802
0.000123646
0.000119341
0.000114877
0.000110237
0.000105403
0.000100349
9.50479e-05
8.94725e-05
8.36163e-05
7.75457e-05
7.15348e-05
6.62521e-05
6.2492e-05
6.01497e-05
5.8397e-05
5.67911e-05
5.52148e-05
5.36464e-05
5.20842e-05
5.05298e-05
4.89851e-05
4.74522e-05
4.59336e-05
4.44356e-05
4.29864e-05
4.17493e-05
4.05452e-05
3.93555e-05
3.81829e-05
3.70283e-05
3.58924e-05
3.47761e-05
3.36802e-05
3.26054e-05
3.15523e-05
3.05212e-05
2.95127e-05
2.85272e-05
2.75652e-05
2.66272e-05
2.57133e-05
2.48233e-05
2.39584e-05
2.31462e-05
2.2412e-05
2.16964e-05
2.09958e-05
2.03185e-05
1.96692e-05
1.90343e-05
1.84133e-05
1.78095e-05
1.72236e-05
1.6656e-05
1.61064e-05
1.55744e-05
1.50597e-05
1.45618e-05
1.40803e-05
1.36147e-05
1.31647e-05
1.27298e-05
1.23097e-05
1.1904e-05
1.15122e-05
1.11341e-05
1.07692e-05
1.04172e-05
1.00778e-05
9.75056e-06
9.43527e-06
9.13161e-06
8.83931e-06
8.55812e-06
8.28782e-06
8.02819e-06
7.77904e-06
7.5402e-06
7.3115e-06
7.09274e-06
6.88373e-06
6.68422e-06
6.49387e-06
6.31226e-06
6.13886e-06
5.97289e-06
5.81358e-06
5.65931e-06
5.50966e-06
5.35967e-06
5.21393e-06
5.04788e-06
4.89391e-06
4.64754e-06
4.48934e-06
3.59426e-06
1.6816e-07
6.14203e-06
6.3881e-05
0.000139684
0.00018324
0.000207006
0.000216381
0.000214889
0.000206544
0.000189842
0.000169049
0.000148913
0.000138496
0.000143708
0.000157678
0.000166604
0.000169023
0.000170206
0.000175607
0.000185307
0.00020006
0.000217499
0.000234332
0.000250838
0.000262139
0.000272043
0.000280858
0.000293698
0.000312797
0.000326744
0.000339487
0.000350412
0.000360342
0.000369441
0.000377342
0.000384555
0.000391269
0.000397711
0.000404011
0.000410234
0.000416377
0.000422395
0.000428237
0.000433862
0.000439241
0.000444358
0.000449198
0.000453749
0.000458011
0.000461985
0.00046571
0.000469152
0.00047235
0.000475291
0.000477983
0.000480425
0.000482618
0.000484563
0.000486261
0.000487712
0.000488916
0.000489875
0.000490591
0.000491068
0.000491316
0.000491341
0.000491137
0.000490701
0.000490048
0.000489182
0.000488111
0.000486839
0.000485374
0.000483723
0.000481892
0.000479889
0.000477721
0.000475396
0.000472921
0.000470304
0.000467552
0.000464673
0.000461676
0.000458568
0.000455358
0.000452055
0.000448665
0.000445198
0.000441663
0.000438065
0.000434413
0.000430711
0.000426959
0.000423149
0.000419262
0.000415272
0.000411163
0.000406963
0.000402722
0.000398465
0.0003942
0.000389931
0.00038566
0.000381393
0.000377131
0.000372879
0.00036864
0.000364414
0.000360204
0.000356005
0.000351829
0.000347681
0.000343562
0.000339474
0.000335419
0.000331399
0.000327414
0.000323468
0.00031956
0.000315693
0.000311866
0.000308081
0.000304339
0.000300641
0.000296988
0.00029338
0.000289816
0.000286295
0.000282816
0.000279382
0.000275991
0.000272651
0.000269365
0.000266115
0.000262901
0.000259728
0.000256599
0.000253515
0.000250476
0.000247482
0.000244532
0.000241625
0.000238762
0.000235941
0.000233161
0.000230423
0.000227725
0.000225068
0.00022245
0.000219872
0.000217333
0.000214832
0.00021237
0.000209947
0.000207562
0.000205217
0.00020291
0.000200644
0.000198418
0.000196234
0.000194093
0.000191996
0.000189947
0.000187945
0.000185994
0.000184094
0.000182247
0.000180453
0.000178711
0.00017702
0.000175374
0.000173775
0.000172197
0.000170682
0.000169072
0.000167749
0.000165617
0.000164901
0.000162094
0.000160721
7.68581e-07
4.454e-05
0.000164287
0.000246523
0.00029986
0.000330183
0.000341223
0.000338355
0.000325524
0.00030625
0.000286474
0.000273749
0.000271488
0.000278167
0.000288524
0.000299354
0.000312115
0.000329067
0.000350666
0.000375827
0.000403217
0.000431573
0.000469775
0.000516163
0.000561818
0.000605975
0.000649077
0.00069275
0.000732093
0.000763386
0.000788397
0.000808224
0.00082394
0.00083641
0.000846416
0.000854733
0.000862063
0.00086905
0.000876231
0.000883962
0.00089235
0.000901274
0.000910492
0.000919769
0.000928926
0.000937845
0.00094645
0.000954692
0.000962534
0.000969949
0.000976915
0.000983402
0.000989406
0.000994922
0.000999946
0.00100448
0.00100852
0.00101207
0.00101512
0.00101769
0.00101976
0.00102133
0.00102242
0.00102296
0.00102312
0.00102283
0.00102204
0.0010208
0.00101911
0.00101699
0.00101446
0.00101151
0.00100818
0.00100446
0.00100038
0.00099595
0.000991183
0.000986096
0.000980702
0.000975018
0.000969058
0.000962837
0.000956371
0.000949675
0.000942764
0.000935652
0.000928355
0.000920887
0.000913262
0.000905492
0.000897589
0.000889566
0.000881431
0.000873192
0.000864857
0.000856437
0.000847944
0.000839392
0.0008308
0.00082218
0.000813543
0.000804897
0.000796252
0.000787613
0.00077899
0.000770388
0.000761814
0.000753274
0.000744774
0.000736318
0.000727914
0.000719566
0.000711279
0.000703056
0.000694902
0.00068682
0.000678812
0.000670883
0.000663034
0.000655268
0.000647586
0.000639991
0.000632485
0.000625069
0.000617745
0.000610513
0.000603373
0.000596325
0.000589372
0.000582513
0.000575748
0.000569079
0.000562503
0.000556014
0.000549612
0.000543299
0.000537076
0.000530945
0.000524905
0.000518956
0.000513097
0.000507328
0.000501646
0.000496052
0.000490543
0.000485119
0.000479778
0.00047452
0.000469343
0.000464247
0.000459229
0.00045429
0.000449427
0.00044464
0.000439927
0.000435288
0.000430722
0.000426227
0.000421802
0.000417446
0.000413157
0.000408934
0.000404775
0.000400678
0.00039664
0.000392658
0.000388727
0.000384844
0.000381
0.000377187
0.000373394
0.000369605
0.000365796
0.000361949
0.00035799
0.000353949
0.000349467
0.000345074
0.000338584
0.000327126
5.07036e-07
8.12883e-05
0.000212971
0.000309206
0.000372992
0.000410406
0.000425982
0.000426374
0.000416363
0.000402959
0.000394801
0.000393962
0.000403188
0.000420398
0.000443153
0.000470907
0.000504259
0.000543568
0.000588025
0.000650245
0.000724105
0.000803894
0.000888161
0.000958826
0.00102126
0.00107739
0.0011278
0.00117271
0.00121198
0.00124586
0.00127511
0.00130044
0.00132256
0.0013421
0.00135964
0.00137566
0.00139059
0.00140475
0.00141842
0.00143177
0.00144493
0.00145798
0.00147095
0.0014838
0.0014965
0.00150896
0.00152109
0.00153279
0.00154398
0.00155458
0.00156454
0.00157381
0.00158239
0.00159025
0.00159738
0.00160379
0.00160947
0.0016144
0.0016186
0.00162207
0.00162479
0.00162677
0.00162793
0.00162836
0.00162824
0.00162733
0.0016257
0.00162338
0.00162038
0.00161673
0.00161243
0.00160751
0.00160199
0.00159589
0.00158923
0.00158204
0.00157433
0.00156613
0.00155747
0.00154836
0.00153883
0.0015289
0.0015186
0.00150795
0.00149696
0.00148567
0.0014741
0.00146226
0.00145018
0.00143788
0.00142538
0.0014127
0.00139985
0.00138685
0.00137372
0.00136047
0.00134712
0.00133369
0.0013202
0.00130666
0.0012931
0.00127953
0.00126596
0.0012524
0.00123886
0.00122536
0.0012119
0.0011985
0.00118515
0.00117189
0.0011587
0.0011456
0.00113259
0.00111968
0.00110688
0.0010942
0.00108163
0.00106917
0.00105685
0.00104465
0.00103259
0.00102066
0.00100886
0.000997211
0.000985699
0.000974329
0.000963103
0.000952021
0.000941084
0.000930294
0.000919651
0.000909153
0.000898798
0.000888583
0.000878506
0.000868568
0.000858771
0.000849115
0.0008396
0.000830225
0.000820989
0.00081189
0.000802928
0.0007941
0.000785404
0.00077684
0.000768405
0.000760098
0.000751916
0.000743858
0.000735922
0.000728107
0.00072041
0.00071283
0.000705364
0.000698012
0.00069077
0.000683638
0.000676613
0.000669693
0.000662876
0.000656158
0.000649538
0.000643011
0.000636573
0.00063022
0.000623946
0.000617742
0.000611599
0.000605506
0.000599444
0.000593395
0.000587326
0.000581203
0.000574959
0.00056854
0.000561763
0.000554571
0.000546329
0.000530139
1.49338e-06
0.000102058
0.000235123
0.000355061
0.000433979
0.00048149
0.000505129
0.000513599
0.000515173
0.000516159
0.000523037
0.000539196
0.000565251
0.000600235
0.000643359
0.000694639
0.000754719
0.000838133
0.000933802
0.00103002
0.00111904
0.00120343
0.00128278
0.00135548
0.00142225
0.00148366
0.00154013
0.00159199
0.00163958
0.00168335
0.00172379
0.00176135
0.00179649
0.00182957
0.0018609
0.00189075
0.00191929
0.00194668
0.001973
0.00199833
0.00202269
0.0020461
0.00206854
0.00209001
0.00211048
0.00212991
0.00214828
0.00216556
0.00218171
0.00219673
0.00221061
0.00222334
0.00223493
0.0022454
0.00225477
0.00226306
0.00227027
0.00227644
0.00228157
0.00228567
0.00228877
0.00229082
0.00229173
0.00229182
0.00229095
0.00228907
0.00228624
0.00228246
0.00227778
0.0022722
0.00226575
0.00225847
0.00225037
0.00224149
0.00223186
0.0022215
0.00221046
0.00219876
0.00218643
0.0021735
0.00216
0.00214597
0.00213143
0.00211642
0.00210097
0.00208511
0.00206886
0.00205227
0.00203535
0.00201813
0.00200065
0.00198292
0.00196498
0.00194684
0.00192853
0.00191008
0.0018915
0.00187282
0.00185406
0.00183525
0.0018164
0.00179754
0.00177869
0.00175985
0.00174105
0.00172229
0.00170361
0.00168499
0.00166647
0.00164805
0.00162974
0.00161155
0.00159349
0.00157557
0.0015578
0.00154018
0.00152272
0.00150543
0.00148831
0.00147137
0.0014546
0.00143803
0.00142164
0.00140544
0.00138943
0.00137362
0.00135801
0.00134259
0.00132737
0.00131236
0.00129754
0.00128292
0.0012685
0.00125427
0.00124023
0.00122638
0.00121273
0.00119927
0.001186
0.00117292
0.00116003
0.00114733
0.00113481
0.00112248
0.00111032
0.00109835
0.00108655
0.00107492
0.00106347
0.00105218
0.00104106
0.0010301
0.0010193
0.00100867
0.000998183
0.000987853
0.000977673
0.000967641
0.000957753
0.000948007
0.0009384
0.000928928
0.000919587
0.000910372
0.000901279
0.000892302
0.000883432
0.000874661
0.000865976
0.000857364
0.000848805
0.000840274
0.000831737
0.000823151
0.000814448
0.000805557
0.000796313
0.000786569
0.000776601
0.000756781
2.27163e-06
0.000118202
0.000256369
0.000390154
0.000487244
0.000549164
0.000587029
0.000610493
0.000628251
0.000647574
0.000673715
0.000709325
0.000755139
0.000811431
0.000878604
0.000969103
0.00107424
0.00117596
0.00127518
0.00137068
0.00146139
0.00154738
0.00162863
0.00170509
0.00177705
0.00184487
0.00190889
0.00196944
0.00202685
0.00208146
0.00213359
0.00218352
0.0022315
0.00227774
0.00232241
0.00236563
0.00240747
0.00244801
0.00248727
0.00252526
0.00256197
0.00259738
0.00263148
0.00266421
0.00269555
0.00272546
0.00275388
0.00278079
0.00280615
0.00282992
0.00285208
0.0028726
0.00289146
0.00290867
0.00292421
0.00293807
0.00295027
0.00296081
0.00296971
0.00297697
0.00298263
0.00298671
0.00298914
0.00299004
0.00298957
0.0029876
0.00298426
0.00297956
0.00297356
0.00296631
0.00295786
0.00294827
0.00293758
0.00292585
0.00291314
0.00289947
0.00288491
0.00286949
0.00285327
0.00283628
0.00281857
0.00280017
0.00278114
0.00276151
0.00274132
0.00272061
0.00269942
0.00267779
0.00265576
0.00263336
0.00261063
0.0025876
0.0025643
0.00254077
0.00251704
0.00249313
0.00246907
0.0024449
0.00242064
0.00239631
0.00237195
0.00234758
0.00232321
0.00229888
0.00227459
0.00225038
0.00222624
0.00220221
0.0021783
0.00215451
0.00213088
0.00210739
0.00208408
0.00206095
0.002038
0.00201525
0.00199271
0.00197039
0.00194828
0.00192639
0.00190474
0.00188333
0.00186215
0.00184121
0.00182053
0.00180009
0.0017799
0.00175996
0.00174027
0.00172084
0.00170166
0.00168273
0.00166405
0.00164562
0.00162743
0.00160949
0.00159179
0.00157434
0.00155713
0.00154015
0.00152342
0.00150692
0.00149066
0.00147463
0.00145883
0.00144325
0.00142789
0.00141275
0.00139783
0.00138312
0.00136862
0.00135432
0.00134023
0.00132633
0.00131263
0.00129912
0.00128581
0.00127267
0.00125972
0.00124695
0.00123435
0.00122192
0.00120966
0.00119756
0.00118561
0.00117381
0.00116215
0.00115061
0.00113919
0.00112787
0.00111663
0.00110544
0.00109427
0.00108306
0.00107176
0.00106028
0.00104847
0.00103625
0.00102407
0.00100159
2.80551e-06
0.000126821
0.000269281
0.000407729
0.000526505
0.000608041
0.000664247
0.000706256
0.000743313
0.000782683
0.000829423
0.000886483
0.000955486
0.00104781
0.00115481
0.00126142
0.00136753
0.00147089
0.00157097
0.00166733
0.00175972
0.00184816
0.00193273
0.00201359
0.00209098
0.00216517
0.00223645
0.00230508
0.00237132
0.0024354
0.00249752
0.00255788
0.00261661
0.00267384
0.00272965
0.00278409
0.00283721
0.00288901
0.00293949
0.00298862
0.00303639
0.00308275
0.00312766
0.00317107
0.00321293
0.00325318
0.00329177
0.00332866
0.00336378
0.0033971
0.00342857
0.00345815
0.0034858
0.0035115
0.00353523
0.00355695
0.00357666
0.00359434
0.00361
0.00362362
0.00363522
0.0036448
0.00365238
0.003658
0.00366165
0.00366327
0.00366319
0.0036612
0.00365742
0.00365191
0.0036447
0.00363586
0.00362544
0.00361351
0.00360013
0.00358536
0.00356927
0.00355193
0.0035334
0.00351375
0.00349305
0.00347136
0.00344876
0.0034253
0.00340105
0.00337607
0.00335043
0.00332417
0.00329737
0.00327006
0.0032423
0.00321415
0.00318564
0.00315683
0.00312775
0.00309844
0.00306894
0.00303929
0.00300952
0.00297967
0.00294977
0.00291985
0.00288993
0.00286005
0.00283023
0.00280048
0.00277084
0.00274132
0.00271194
0.00268272
0.00265368
0.00262482
0.00259617
0.00256773
0.00253953
0.00251156
0.00248384
0.00245638
0.00242919
0.00240226
0.00237562
0.00234926
0.00232319
0.00229741
0.00227193
0.00224675
0.00222187
0.0021973
0.00217302
0.00214906
0.00212539
0.00210203
0.00207897
0.00205621
0.00203375
0.00201158
0.0019897
0.00196812
0.00194683
0.00192583
0.00190511
0.00188468
0.00186453
0.00184466
0.00182506
0.00180573
0.00178667
0.00176787
0.00174933
0.00173104
0.00171301
0.00169522
0.00167767
0.00166036
0.00164329
0.00162645
0.00160984
0.00159345
0.00157728
0.00156133
0.00154558
0.00153004
0.0015147
0.00149956
0.0014846
0.00146983
0.00145522
0.00144078
0.00142648
0.00141231
0.00139824
0.00138426
0.00137031
0.00135636
0.00134234
0.00132816
0.00131369
0.00129893
0.00128392
0.00125967
2.94243e-06
0.000128735
0.00027067
0.00040731
0.000538113
0.000641783
0.000719047
0.000780498
0.000836301
0.000894156
0.000961755
0.00105372
0.00116335
0.00128508
0.00140066
0.00151194
0.00161977
0.00172435
0.0018256
0.00192348
0.00201797
0.00210918
0.00219724
0.00228233
0.00236469
0.00244452
0.00252206
0.00259751
0.00267108
0.00274292
0.00281318
0.00288198
0.00294941
0.00301554
0.0030804
0.00314402
0.00320639
0.0032675
0.00332732
0.00338582
0.00344294
0.00349863
0.00355284
0.00360549
0.00365652
0.00370587
0.00375347
0.00379927
0.00384319
0.00388518
0.00392518
0.00396315
0.00399903
0.00403279
0.00406439
0.00409379
0.00412096
0.00414589
0.00416857
0.00418897
0.00420709
0.00422295
0.00423653
0.00424786
0.00425695
0.00426382
0.00426854
0.00427099
0.00427143
0.00426978
0.00426611
0.00426047
0.00425291
0.00424348
0.00423225
0.00421927
0.00420462
0.00418837
0.00417057
0.00415131
0.00413064
0.00410865
0.0040854
0.00406097
0.00403543
0.00400885
0.00398131
0.00395287
0.0039236
0.00389357
0.00386284
0.00383148
0.00379954
0.0037671
0.0037342
0.0037009
0.00366726
0.00363332
0.00359914
0.00356476
0.00353024
0.0034956
0.00346089
0.00342616
0.00339142
0.00335672
0.00332209
0.00328755
0.00325314
0.00321887
0.00318476
0.00315085
0.00311714
0.00308366
0.00305043
0.00301745
0.00298474
0.00295231
0.00292017
0.00288834
0.00285682
0.00282562
0.00279475
0.0027642
0.00273399
0.00270412
0.00267459
0.00264541
0.00261657
0.00258808
0.00255994
0.00253215
0.0025047
0.0024776
0.00245084
0.00242442
0.00239834
0.0023726
0.00234719
0.00232212
0.00229737
0.00227296
0.00224887
0.0022251
0.00220164
0.0021785
0.00215567
0.00213314
0.00211092
0.00208899
0.00206735
0.00204599
0.00202492
0.00200413
0.00198362
0.00196337
0.00194339
0.00192367
0.0019042
0.00188499
0.00186603
0.0018473
0.00182881
0.00181056
0.00179252
0.0017747
0.00175708
0.00173965
0.0017224
0.00170531
0.00168836
0.00167151
0.00165473
0.00163797
0.00162116
0.00160423
0.00158703
0.00156963
0.00155169
0.00152555
2.75941e-06
0.000125269
0.000264046
0.000395773
0.000520547
0.000633082
0.00072707
0.000808274
0.000891331
0.000986675
0.00109592
0.00122062
0.00135702
0.00148455
0.00160486
0.00171988
0.0018306
0.00193737
0.00204052
0.0021404
0.00223723
0.0023312
0.00242251
0.00251138
0.002598
0.00268258
0.0027653
0.00284635
0.00292587
0.003004
0.00308084
0.00315647
0.00323094
0.0033043
0.00337655
0.00344768
0.00351768
0.0035865
0.00365411
0.00372043
0.00378542
0.00384899
0.00391108
0.0039716
0.00403048
0.00408764
0.004143
0.00419649
0.00424804
0.00429757
0.00434503
0.00439034
0.00443346
0.00447434
0.00451292
0.00454916
0.00458304
0.00461452
0.00464359
0.00467021
0.00469439
0.00471612
0.0047354
0.00475223
0.00476663
0.00477862
0.00478823
0.00479546
0.0048004
0.00480296
0.00480335
0.00480154
0.00479757
0.00479151
0.00478341
0.00477333
0.00476133
0.00474747
0.00473183
0.00471447
0.00469547
0.00467488
0.00465279
0.00462926
0.00460438
0.0045782
0.00455082
0.00452229
0.00449269
0.0044621
0.00443057
0.00439819
0.00436501
0.0043311
0.00429653
0.00426136
0.00422566
0.00418947
0.00415286
0.00411588
0.0040786
0.00404105
0.00400329
0.00396537
0.00392733
0.00388921
0.00385104
0.00381288
0.00377475
0.00373668
0.00369872
0.00366087
0.00362318
0.00358567
0.00354835
0.00351125
0.0034744
0.0034378
0.00340148
0.00336545
0.00332971
0.00329429
0.0032592
0.00322444
0.00319002
0.00315595
0.00312223
0.00308887
0.00305588
0.00302325
0.002991
0.00295911
0.0029276
0.00289645
0.00286568
0.00283527
0.00280524
0.00277557
0.00274627
0.00271734
0.00268877
0.00266056
0.0026327
0.0026052
0.00257805
0.00255125
0.00252479
0.00249867
0.00247289
0.00244743
0.00242231
0.0023975
0.00237301
0.00234883
0.00232497
0.00230141
0.00227814
0.00225517
0.0022325
0.0022101
0.00218799
0.00216616
0.00214459
0.00212328
0.00210223
0.00208143
0.00206086
0.00204051
0.00202037
0.00200041
0.00198062
0.00196096
0.0019414
0.00192187
0.00190232
0.00188266
0.00186277
0.00184271
0.00182197
0.00179364
2.34438e-06
0.00011799
0.000252849
0.000380976
0.000503949
0.000620485
0.000731378
0.00084049
0.000955419
0.00108132
0.00121944
0.00136922
0.00151153
0.00164353
0.00176779
0.00188623
0.00199995
0.0021096
0.00221556
0.00231805
0.00241746
0.00251417
0.00260847
0.00270063
0.00279087
0.0028794
0.00296639
0.003052
0.00313638
0.00321962
0.00330181
0.00338301
0.00346325
0.00354254
0.00362089
0.00369825
0.0037746
0.00384988
0.00392402
0.00399695
0.0040686
0.00413887
0.00420767
0.00427493
0.00434054
0.00440441
0.00446647
0.00452661
0.00458476
0.00464084
0.00469477
0.00474649
0.00479593
0.00484303
0.00488773
0.00493
0.00496979
0.00500706
0.0050418
0.00507397
0.00510356
0.00513057
0.00515499
0.00517683
0.00519609
0.0052128
0.00522697
0.00523862
0.00524779
0.00525452
0.00525884
0.00526077
0.00526043
0.00525782
0.00525301
0.00524604
0.00523699
0.00522591
0.00521287
0.00519793
0.00518117
0.00516265
0.00514245
0.00512063
0.00509727
0.00507244
0.00504622
0.00501867
0.00498987
0.0049599
0.00492881
0.00489669
0.00486359
0.0048296
0.00479476
0.00475916
0.00472285
0.00468589
0.00464836
0.0046103
0.00457178
0.00453285
0.00449357
0.00445398
0.00441414
0.0043741
0.00433389
0.00429356
0.00425315
0.00421271
0.00417226
0.00413184
0.00409149
0.00405123
0.0040111
0.00397111
0.0039313
0.00389169
0.00385229
0.00381314
0.00377424
0.00373561
0.00369727
0.00365924
0.00362151
0.00358412
0.00354705
0.00351033
0.00347396
0.00343795
0.0034023
0.00336701
0.0033321
0.00329755
0.00326338
0.00322959
0.00319617
0.00316313
0.00313047
0.00309818
0.00306627
0.00303474
0.00300358
0.00297278
0.00294236
0.00291231
0.00288261
0.00285328
0.0028243
0.00279567
0.0027674
0.00273947
0.00271188
0.00268462
0.0026577
0.00263111
0.00260485
0.0025789
0.00255328
0.00252796
0.00250295
0.00247824
0.00245383
0.0024297
0.00240586
0.00238229
0.00235897
0.00233591
0.00231308
0.00229046
0.00226803
0.00224575
0.00222358
0.00220147
0.00217936
0.00215716
0.00213476
0.00211218
0.00208888
0.00205822
1.9269e-06
0.000110308
0.000242564
0.000369909
0.00049565
0.000620082
0.000745008
0.000874501
0.00101187
0.0011592
0.00131663
0.00147843
0.00162625
0.0017627
0.00189081
0.00201257
0.00212927
0.00224171
0.00235045
0.00245586
0.00255825
0.00265781
0.00275498
0.00285012
0.0029435
0.00303538
0.00312594
0.00321534
0.00330372
0.00339118
0.0034778
0.00356361
0.00364864
0.00373289
0.00381633
0.00389893
0.00398064
0.00406138
0.00414107
0.00421963
0.00429697
0.00437298
0.00444756
0.00452062
0.00459204
0.00466173
0.00472959
0.00479551
0.00485941
0.0049212
0.0049808
0.00503812
0.0050931
0.00514567
0.00519577
0.00524335
0.00528836
0.00533078
0.00537055
0.00540767
0.00544211
0.00547385
0.00550291
0.00552927
0.00555294
0.00557394
0.00559229
0.00560802
0.00562114
0.00563169
0.00563972
0.00564527
0.00564838
0.0056491
0.00564749
0.00564362
0.00563753
0.00562928
0.00561894
0.00560657
0.00559225
0.00557604
0.005558
0.00553822
0.00551677
0.0054937
0.00546911
0.00544306
0.00541563
0.00538688
0.00535688
0.00532571
0.00529343
0.00526011
0.00522582
0.00519063
0.0051546
0.00511779
0.00508027
0.0050421
0.00500334
0.00496405
0.00492428
0.00488408
0.00484351
0.00480262
0.00476146
0.00472007
0.00467849
0.00463677
0.00459495
0.00455307
0.00451115
0.00446925
0.00442738
0.00438558
0.00434389
0.00430231
0.00426089
0.00421964
0.00417858
0.00413774
0.00409714
0.00405678
0.0040167
0.00397689
0.00393738
0.00389818
0.00385929
0.00382073
0.00378251
0.00374463
0.00370709
0.00366991
0.00363309
0.00359662
0.00356053
0.0035248
0.00348943
0.00345444
0.00341983
0.00338558
0.0033517
0.0033182
0.00328507
0.00325231
0.00321991
0.00318788
0.00315621
0.00312491
0.00309396
0.00306337
0.00303313
0.00300324
0.00297369
0.00294449
0.00291562
0.0028871
0.0028589
0.00283103
0.00280349
0.00277626
0.00274935
0.00272274
0.00269643
0.00267042
0.00264468
0.00261921
0.002594
0.00256901
0.00254423
0.00251962
0.00249514
0.00247074
0.00244636
0.0024219
0.00239728
0.00237248
0.00234697
0.00231416
1.54347e-06
0.000102168
0.000232073
0.000359054
0.00048772
0.000618989
0.000755521
0.000899233
0.00105185
0.00121392
0.00138594
0.00155192
0.00170371
0.00184403
0.00197564
0.00210053
0.00222003
0.00233508
0.00244635
0.00255433
0.00265941
0.00276188
0.00286203
0.00296003
0.00305632
0.00315118
0.00324484
0.00333751
0.00342931
0.00352036
0.00361072
0.00370045
0.00378955
0.00387801
0.00396581
0.00405288
0.00413917
0.0042246
0.00430906
0.00439247
0.00447472
0.00455569
0.00463528
0.00471337
0.00478984
0.00486458
0.00493749
0.00500846
0.00507739
0.00514418
0.00520873
0.00527098
0.00533084
0.00538823
0.0054431
0.00549539
0.00554504
0.00559203
0.00563631
0.00567785
0.00571663
0.00575265
0.00578589
0.00581635
0.00584404
0.00586898
0.00589117
0.00591065
0.00592744
0.00594158
0.00595309
0.00596203
0.00596844
0.00597236
0.00597385
0.00597298
0.00596981
0.00596438
0.00595676
0.00594701
0.0059352
0.0059214
0.00590567
0.0058881
0.00586875
0.00584769
0.00582499
0.00580073
0.00577499
0.00574782
0.00571929
0.00568949
0.00565848
0.00562631
0.00559308
0.00555883
0.00552363
0.00548756
0.00545066
0.00541302
0.00537467
0.00533569
0.00529614
0.00525605
0.0052155
0.00517452
0.00513317
0.0050915
0.00504955
0.00500736
0.00496499
0.00492246
0.00487982
0.0048371
0.00479434
0.00475158
0.00470883
0.00466614
0.00462352
0.00458101
0.00453864
0.00449641
0.00445436
0.00441251
0.00437087
0.00432946
0.0042883
0.00424739
0.00420676
0.00416642
0.00412637