/*--------------------------------*- C++ -*----------------------------------*\
  =========                 |
  \\      /  F ield         | OpenFOAM: The Open Source CFD Toolbox
   \\    /   O peration     | Website:  https://openfoam.org
    \\  /    A nd           | Version:  8
     \\/     M anipulation  |
\*---------------------------------------------------------------------------*/
FoamFile
{
    version     2.0;
    format      ascii;
    class       volScalarField;
    location    "2800";
    object      p;
}
// * * * * * * * * * * * * * * * * * * * * * * * * * * * * * * * * * * * * * //

dimensions      [0 2 -2 0 0 0 0];

internalField   nonuniform List<scalar> 
12225
(
514.676
55.5281
2.36373
0.281611
-1.89886
-3.37441
-3.81166
-4.02207
-4.23182
-4.36872
-4.41588
-4.4255
-4.42851
-4.45648
-4.50989
-4.57639
-4.72183
-4.94453
-122.179
0.238819
-2.7185
-0.765185
-2.21656
-3.525
-3.95273
-4.13684
-4.28052
-4.38452
-4.45945
-4.51778
-4.56872
-4.60112
-4.62208
-4.64766
-4.71434
-4.80846
-200.646
-16.1485
-2.34651
-0.358408
-1.9009
-3.24488
-3.77229
-4.02253
-4.19523
-4.31949
-4.41218
-4.4794
-4.52803
-4.55328
-4.56835
-4.58394
-4.61586
-4.59911
-110.616
-10.9742
-2.17722
-0.432115
-1.78782
-3.0289
-3.60139
-3.90858
-4.11786
-4.26366
-4.36604
-4.43672
-4.48545
-4.51404
-4.5314
-4.53925
-4.53825
-4.46959
-61.5729
-8.14594
-3.62268
-1.21012
-2.01534
-2.99846
-3.52935
-3.84912
-4.07164
-4.22633
-4.33397
-4.40862
-4.45999
-4.49112
-4.50642
-4.50382
-4.47764
-4.38749
-45.7309
-8.78537
-5.25889
-2.20046
-2.43009
-3.10124
-3.53671
-3.83368
-4.04967
-4.2035
-4.31256
-4.3893
-4.44175
-4.47268
-4.48424
-4.4735
-4.43343
-4.33887
-35.7947
-9.27663
-6.38067
-3.1249
-2.92211
-3.2902
-3.60411
-3.85501
-4.05044
-4.19562
-4.30162
-4.37741
-4.42903
-4.45877
-4.46771
-4.45311
-4.40912
-4.32204
-27.7782
-8.9074
-6.97413
-3.80316
-3.36218
-3.49902
-3.70109
-3.90058
-4.06995
-4.20222
-4.30199
-4.37474
-4.42467
-4.45351
-4.46185
-4.44755
-4.40656
-4.3318
-21.6902
-8.52036
-7.13484
-4.31102
-3.72947
-3.70663
-3.81692
-3.96528
-4.10559
-4.22186
-4.31293
-4.381
-4.42846
-4.45641
-4.46512
-4.45315
-4.41814
-4.35713
-16.613
-8.14104
-7.08849
-4.75591
-4.08378
-3.93499
-3.95987
-4.05333
-4.1597
-4.25591
-4.33537
-4.39699
-4.44122
-4.4684
-4.47858
-4.4711
-4.44516
-4.40066
-12.6393
-7.68123
-6.90651
-5.10221
-4.4074
-4.17097
-4.12257
-4.16213
-4.23233
-4.30569
-4.37129
-4.42502
-4.46552
-4.49233
-4.50533
-4.50448
-4.4902
-4.46401
-9.69937
-7.14914
-6.62961
-5.32704
-4.67925
-4.39776
-4.2951
-4.28738
-4.32255
-4.37222
-4.42274
-4.46777
-4.50442
-4.53149
-4.54865
-4.55624
-4.55534
-4.54803
-7.66642
-6.60509
-6.30638
-5.43201
-4.88369
-4.5979
-4.46429
-4.42114
-4.42642
-4.4542
-4.49019
-4.52679
-4.5601
-4.58828
-4.61079
-4.62799
-4.64106
-4.65195
-6.37133
-6.11342
-5.9861
-5.44075
-5.01634
-4.75816
-4.61672
-4.55306
-4.53706
-4.54764
-4.57172
-4.60156
-4.63281
-4.66324
-4.692
-4.71923
-4.74581
-4.77316
-5.62308
-5.72276
-5.70941
-5.39125
-5.08633
-4.87341
-4.74219
-4.67263
-4.64563
-4.64583
-4.66247
-4.68857
-4.71983
-4.75385
-4.78949
-4.82652
-4.86533
-4.90666
-5.24377
-5.46056
-5.50848
-5.32793
-5.1154
-4.94833
-4.83604
-4.77104
-4.74235
-4.73948
-4.75414
-4.78041
-4.81434
-4.85348
-4.89645
-4.94264
-4.99193
-5.04449
-5.10251
-5.34464
-5.41731
-5.29931
-5.13527
-4.99614
-4.89847
-4.84056
-4.81543
-4.81522
-4.83305
-4.86363
-4.90321
-4.94925
-5.00014
-5.05493
-5.1131
-5.17443
-5.14023
-5.40043
-5.47452
-5.34836
-5.17453
-5.02878
-4.9285
-4.87127
-4.84933
-4.85415
-4.87832
-4.91614
-4.96349
-5.01756
-5.07646
-5.13898
-5.20437
-5.27219
-5.3925
-5.65486
-5.69055
-5.4754
-5.22616
-5.03576
-4.91462
-4.85152
-4.83244
-4.8447
-4.87832
-4.92614
-4.98326
-5.04645
-5.11361
-5.18339
-5.25503
-5.32806
-6.00188
-6.13668
-6.04243
-5.6349
-5.24688
-4.98708
-4.84053
-4.77556
-4.76601
-4.79235
-4.84089
-4.90271
-4.97222
-5.04603
-5.12208
-5.19917
-5.27666
-5.35433
-7.24949
-6.88931
-6.49397
-5.76164
-5.18284
-4.85269
-4.69604
-4.64586
-4.65976
-4.71025
-4.78045
-4.86044
-4.94472
-5.03025
-5.11549
-5.19972
-5.28266
-5.36445
-9.64099
-7.96437
-6.98238
-5.77164
-4.9793
-4.61187
-4.48163
-4.47337
-4.52819
-4.61348
-4.7112
-4.81229
-4.91234
-5.00959
-5.10351
-5.19412
-5.28175
-5.36687
-13.9822
-9.39085
-7.40295
-5.56931
-4.5945
-4.26393
-4.21476
-4.27937
-4.3915
-4.51894
-4.64699
-4.76943
-4.88442
-4.9919
-5.09287
-5.18846
-5.27949
-5.36696
-20.8897
-10.9538
-7.55397
-5.05701
-4.01562
-3.83559
-3.92969
-4.09382
-4.27191
-4.44273
-4.59922
-4.74042
-4.86735
-4.98223
-5.08777
-5.18626
-5.27915
-5.36761
-29.7364
-11.9492
-7.03331
-4.1259
-3.26382
-3.37773
-3.6708
-3.94657
-4.18887
-4.39688
-4.57542
-4.72963
-4.86401
-4.9826
-5.08988
-5.18911
-5.2822
-5.37044
-43.1063
-12.6138
-5.47259
-2.72874
-2.41303
-2.96321
-3.48403
-3.86215
-4.1534
-4.38572
-4.5774
-4.73755
-4.87367
-4.99135
-5.09744
-5.1959
-5.28805
-5.37534
-84.5993
-17.3733
-3.6639
-1.26523
-1.6958
-2.7216
-3.43597
-3.86973
-4.17326
-4.41041
-4.60637
-4.76764
-4.89907
-5.00823
-5.108
-5.20389
-5.29379
-5.37875
-177.886
-26.8494
-3.67996
-0.770011
-1.53489
-2.84284
-3.61388
-4.01505
-4.27087
-4.46701
-4.65064
-4.81589
-4.95162
-5.05198
-5.139
-5.22523
-5.30526
-5.38268
-154.79
-9.62709
-3.2722
-1.06809
-1.8429
-3.22066
-3.91348
-4.22482
-4.4173
-4.5589
-4.70178
-4.85413
-5.00417
-5.12237
-5.21611
-5.30183
-5.37461
-5.444
428.057
66.6057
7.05615
1.59962
-0.915395
-2.85671
-3.65276
-3.99449
-4.31013
-4.57675
-4.70747
-4.75427
-4.80093
-4.89805
-5.01729
-5.12587
-5.2347
-5.33491
-8.52531
-8.51248
-8.50184
-8.54322
-8.63625
-8.73995
-8.81988
-8.8599
-8.86355
-8.84589
-8.81847
-8.78989
-8.76822
-8.75942
-8.76442
-8.77706
-8.78828
-8.79341
-8.79264
-8.79058
-8.79506
-8.82775
-8.91796
-9.08929
-9.34228
-9.66004
-10.0312
-10.445
-10.886
-11.338
-11.786
-12.218
-12.6247
-12.9996
-13.3382
-13.6382
-13.8986
-14.1193
-14.3011
-14.4449
-14.5521
-14.624
-14.6619
-14.6672
-14.6413
-14.5854
-14.5012
-14.391
-14.2561
-14.0943
-13.9029
-13.6832
-13.4381
-13.169
-12.8775
-12.5644
-12.231
-11.8781
-11.5068
-11.1181
-10.7132
-10.2932
-9.85909
-9.41216
-8.95356
-8.48447
-8.00608
-7.5196
-7.02623
-6.52715
-6.02351
-5.51647
-5.00713
-4.49657
-3.98585
-3.47596
-2.96785
-2.46244
-1.9606
-1.46312
-0.970768
-0.484243
-0.00419201
0.468793
0.934177
1.39148
1.84027
2.28018
2.71089
3.13215
3.54375
3.94551
4.33725
4.71897
5.09089
5.45302
5.80491
6.14616
6.47676
6.79693
7.10693
7.40696
7.6972
7.97783
8.24905
8.51104
8.76402
9.00821
9.24383
9.47109
9.6902
9.90141
10.105
10.3011
10.4901
10.6722
10.8476
11.0166
11.1793
11.3361
11.4871
11.6326
11.7727
11.9078
12.0379
12.1634
12.2843
12.4009
12.5133
12.6218
12.7264
12.8275
12.9254
13.0201
13.1116
13.1999
13.2852
13.3677
13.4475
13.5246
13.5993
13.6717
13.7417
13.8096
13.8754
13.9392
14.001
14.061
14.1191
14.1756
14.2303
14.2834
14.335
14.385
14.4335
14.4805
14.5261
14.5702
14.613
14.6544
14.6945
14.7333
14.7707
14.8068
14.8417
14.8753
14.9077
14.939
14.9691
14.9983
15.0266
15.0543
15.0818
15.1095
15.1382
15.1689
15.2044
15.246
15.3039
15.3643
-8.58276
-8.61402
-8.68797
-8.78157
-8.88504
-8.97725
-9.0385
-9.06289
-9.04584
-8.98539
-8.89563
-8.79881
-8.71719
-8.6659
-8.64383
-8.64063
-8.65019
-8.67563
-8.71091
-8.73115
-8.75548
-8.83342
-8.99315
-9.2327
-9.53956
-9.91053
-10.3363
-10.7964
-11.2693
-11.7371
-12.1873
-12.6105
-13.0002
-13.3528
-13.6663
-13.9406
-14.176
-14.3735
-14.5343
-14.6596
-14.7506
-14.8083
-14.8337
-14.8278
-14.7914
-14.725
-14.6292
-14.5039
-14.3497
-14.1697
-13.9676
-13.7437
-13.497
-13.2278
-12.9365
-12.6241
-12.2914
-11.9393
-11.5688
-11.1809
-10.7767
-10.3573
-9.92378
-9.47738
-9.01922
-8.55049
-8.07239
-7.58611
-7.09286
-6.59381
-6.09013
-5.58296
-5.07341
-4.56256
-4.05146
-3.54112
-3.03249
-2.52649
-2.02398
-1.52576
-1.03261
-0.545228
-0.0642626
0.409686
0.876074
1.33441
1.78425
2.2252
2.65692
3.07909
3.49146
3.89379
4.28585
4.66753
5.03892
5.40024
5.75167
6.09325
6.42482
6.74629
7.05768
7.35912
7.65077
7.9328
8.20539
8.46873
8.72302
8.96849
9.20537
9.43389
9.65427
9.86674
10.0715
10.2689
10.4591
10.6423
10.8188
10.9889
11.1527
11.3105
11.4625
11.609
11.7501
11.8862
12.0174
12.1439
12.2659
12.3835
12.4971
12.6066
12.7123
12.8142
12.9123
13.007
13.0986
13.1871
13.2727
13.3554
13.4355
13.5129
13.5879
13.6606
13.731
13.7991
13.8652
13.9293
13.9914
14.0517
14.1101
14.1668
14.2219
14.2752
14.327
14.3772
14.4259
14.4732
14.519
14.5634
14.6063
14.648
14.6882
14.7271
14.7647
14.801
14.836
14.8698
14.9023
14.9337
14.964
14.9933
15.0217
15.0496
15.0771
15.1049
15.1336
15.1643
15.1991
15.2387
15.2924
15.3422
-8.70979
-8.79162
-8.90959
-9.01541
-9.09831
-9.15216
-9.17279
-9.15897
-9.1094
-9.02631
-8.91878
-8.80339
-8.70362
-8.63907
-8.61031
-8.60548
-8.62448
-8.68119
-8.78478
-8.93182
-9.12214
-9.36288
-9.6569
-9.99602
-10.3681
-10.7638
-11.1732
-11.5845
-11.9871
-12.3737
-12.7396
-13.0811
-13.3955
-13.6812
-13.937
-14.1624
-14.3574
-14.5219
-14.6562
-14.7607
-14.8356
-14.8814
-14.8984
-14.8872
-14.8482
-14.7817
-14.6883
-14.5677
-14.4202
-14.2465
-14.0482
-13.8262
-13.5811
-13.3135
-13.0241
-12.7135
-12.3826
-12.0323
-11.6636
-11.2773
-10.8747
-10.4567
-10.0246
-9.57935
-9.12223
-8.65439
-8.17704
-7.69137
-7.19857
-6.69983
-6.19632
-5.68918
-5.17953
-4.66845
-4.15701
-3.64619
-3.13698
-2.63029
-2.12699
-1.6279
-1.13379
-0.645359
-0.163276
0.311859
0.779496
1.23914
1.69036
2.13275
2.56598
2.98977
3.40386
3.80807
4.20224
4.58629
4.96018
5.32392
5.67756
6.02109
6.35448
6.67775
6.99095
7.2942
7.58765
7.87147
8.14582
8.41091
8.66693
8.9141
9.15264
9.38278
9.60475
9.81877
10.0251
10.2239
10.4156
10.6002
10.7781
10.9495
11.1146
11.2737
11.427
11.5747
11.717
11.8541
11.9862
12.1136
12.2363
12.3547
12.4689
12.5791
12.6854
12.788
12.887
12.9828
13.0754
13.1649
13.2514
13.335
13.4159
13.4942
13.5699
13.6432
13.7143
13.7831
13.8498
13.9144
13.9771
14.0378
14.0968
14.1539
14.2094
14.2632
14.3154
14.366
14.4151
14.4627
14.5088
14.5535
14.5968
14.6387
14.6792
14.7184
14.7562
14.7928
14.828
14.862
14.8947
14.9262
14.9567
14.9861
15.0147
15.0426
15.0702
15.0978
15.1263
15.1564
15.1899
15.2265
15.2739
15.3075
-8.74921
-8.84666
-8.94793
-9.03445
-9.0989
-9.1386
-9.15106
-9.13365
-9.08639
-9.01428
-8.92854
-8.84598
-8.78477
-8.75778
-8.76989
-8.82317
-8.92155
-9.06864
-9.26507
-9.50582
-9.78208
-10.0866
-10.4135
-10.7563
-11.1097
-11.4685
-11.8273
-12.1809
-12.5248
-12.8549
-13.1678
-13.4609
-13.732
-13.9795
-14.2021
-14.3989
-14.5693
-14.7129
-14.8295
-14.9191
-14.9816
-15.0172
-15.0259
-15.0078
-14.9632
-14.8921
-14.795
-14.6721
-14.5239
-14.3511
-14.1542
-13.9338
-13.6903
-13.4243
-13.1366
-12.8276
-12.4984
-12.1497
-11.7825
-11.3977
-10.9964
-10.5796
-10.1484
-9.70407
-9.24765
-8.78036
-8.3034
-7.81796
-7.32523
-6.82641
-6.32265
-5.81512
-5.30494
-4.79318
-4.28092
-3.76917
-3.2589
-2.75103
-2.24644
-1.74596
-1.25036
-0.760354
-0.276615
0.200251
0.669688
1.1312
1.58433
2.0287
2.46395
2.8898
3.30601
3.71238
4.10878
4.49511
4.87132
5.23739
5.59328
5.93898
6.27448
6.59983
6.91511
7.22043
7.51593
7.80178
8.07814
8.3452
8.60317
8.85226
9.09268
9.32466
9.54842
9.7642
9.97223
10.1728
10.3661
10.5523
10.7318
10.9047
11.0713
11.2318
11.3864
11.5354
11.679
11.8173
11.9506
12.0792
12.2031
12.3226
12.4379
12.5491
12.6564
12.76
12.8602
12.957
13.0506
13.141
13.2284
13.3128
13.3945
13.4736
13.5501
13.6241
13.6958
13.7653
13.8326
13.8978
13.9611
14.0224
14.0819
14.1396
14.1955
14.2498
14.3024
14.3534
14.4029
14.4509
14.4974
14.5425
14.5861
14.6283
14.6691
14.7086
14.7467
14.7835
14.819
14.8532
14.8861
14.9178
14.9484
14.9779
15.0065
15.0344
15.0618
15.0891
15.117
15.1459
15.1772
15.2097
15.2491
15.2677
-8.53736
-8.62227
-8.72237
-8.81946
-8.89682
-8.94955
-8.97663
-8.97891
-8.96083
-8.93071
-8.90062
-8.88454
-8.89527
-8.94238
-9.03207
-9.16746
-9.34866
-9.57111
-9.82636
-10.1064
-10.4056
-10.72
-11.045
-11.3757
-11.7078
-12.0374
-12.3613
-12.6764
-12.9797
-13.269
-13.5422
-13.7977
-14.034
-14.2498
-14.4442
-14.6163
-14.7654
-14.891
-14.9926
-15.0697
-15.1222
-15.1499
-15.1525
-15.1299
-15.0822
-15.0093
-14.9113
-14.7884
-14.6408
-14.4689
-14.2733
-14.0542
-13.8121
-13.5476
-13.2613
-12.9539
-12.6261
-12.2788
-11.9129
-11.5293
-11.1291
-10.7133
-10.283
-9.8393
-9.38342
-8.91654
-8.43983
-7.95449
-7.46172
-6.96269
-6.4586
-5.95058
-5.43977
-4.92727
-4.41412
-3.90136
-3.38996
-2.88086
-2.37492
-1.873
-1.37586
-0.884227
-0.398774
0.0798843
0.551189
1.01463
1.46977
1.9162
2.35357
2.78159
3.20002
3.60865
4.00734
4.39598
4.7745
5.14284
5.501
5.84893
6.18667
6.51425
6.83175
7.13928
7.43698
7.72501
8.00352
8.27272
8.53279
8.78395
9.02641
9.26041
9.48616
9.70388
9.91382
10.1162
10.3113
10.4993
10.6805
10.855
11.0233
11.1853
11.3415
11.492
11.6371
11.7768
11.9116
12.0415
12.1668
12.2876
12.4041
12.5165
12.625
12.7298
12.831
12.9288
13.0234
13.1147
13.203
13.2884
13.3709
13.4508
13.5281
13.6029
13.6754
13.7455
13.8135
13.8794
13.9433
14.0053
14.0653
14.1236
14.1801
14.2348
14.288
14.3395
14.3894
14.4379
14.4848
14.5302
14.5743
14.6168
14.658
14.6978
14.7362
14.7733
14.809
14.8435
14.8766
14.9085
14.9391
14.9687
14.9973
15.025
15.0521
15.0789
15.1058
15.1331
15.1617
15.1895
15.2211
15.2272
-8.1174
-8.2058
-8.32673
-8.44943
-8.55466
-8.63507
-8.69338
-8.73546
-8.76894
-8.80359
-8.85038
-8.91961
-9.01931
-9.15429
-9.32677
-9.53575
-9.77655
-10.0436
-10.3316
-10.6348
-10.9477
-11.2657
-11.5847
-11.9012
-12.2125
-12.5164
-12.811
-13.0948
-13.3662
-13.624
-13.8669
-14.0938
-14.3037
-14.4956
-14.6685
-14.8217
-14.9543
-15.0657
-15.1552
-15.2224
-15.2667
-15.2877
-15.2851
-15.2587
-15.2082
-15.1335
-15.0345
-14.9113
-14.764
-14.5929
-14.3982
-14.1802
-13.9394
-13.6763
-13.3914
-13.0854
-12.759
-12.4131
-12.0485
-11.6662
-11.2671
-10.8523
-10.4228
-9.9799
-9.52462
-9.05819
-8.58179
-8.09659
-7.60382
-7.10464
-6.60024
-6.09178
-5.58037
-5.06714
-4.55314
-4.03939
-3.52689
-3.01656
-2.5093
-2.00595
-1.50728
-1.01403
-0.526873
-0.0464276
0.42674
0.892121
1.34926
1.79775
2.23725
2.66745
3.0881
3.49899
3.89997
4.29092
4.67175
5.0424
5.40284
5.75306
6.09308
6.42294
6.74272
7.05253
7.3525
7.64278
7.92354
8.19495
8.45722
8.71055
8.95514
9.19122
9.41901
9.63875
9.85067
10.055
10.252
10.4419
10.6249
10.8013
10.9712
11.135
11.2929
11.445
11.5916
11.733
11.8692
12.0006
12.1272
12.2494
12.3673
12.481
12.5908
12.6967
12.7991
12.898
12.9936
13.086
13.1753
13.2616
13.3451
13.4259
13.5041
13.5797
13.653
13.724
13.7927
13.8594
13.924
13.9866
14.0473
14.1062
14.1632
14.2186
14.2723
14.3243
14.3748
14.4237
14.4711
14.517
14.5615
14.6044
14.646
14.6862
14.7249
14.7623
14.7983
14.833
14.8663
14.8984
14.9291
14.9587
14.9872
15.0147
15.0413
15.0674
15.0931
15.1184
15.1439
15.1669
15.1912
15.1866
-7.65238
-7.75106
-7.89311
-8.0419
-8.17984
-8.29847
-8.40136
-8.49786
-8.59734
-8.70875
-8.83969
-8.99507
-9.17762
-9.38779
-9.62389
-9.8838
-10.1646
-10.4615
-10.7693
-11.083
-11.3981
-11.7114
-12.02
-12.3219
-12.6155
-12.8995
-13.1729
-13.4347
-13.6841
-13.9203
-14.1423
-14.3494
-14.5408
-14.7155
-14.8728
-15.0119
-15.132
-15.2324
-15.3124
-15.3713
-15.4087
-15.424
-15.4168
-15.3867
-15.3333
-15.2565
-15.1561
-15.0321
-14.8844
-14.7133
-14.5189
-14.3015
-14.0615
-13.7992
-13.5154
-13.2105
-12.8853
-12.5406
-12.1772
-11.796
-11.3981
-10.9844
-10.556
-10.114
-9.65956
-9.19387
-8.71808
-8.23339
-7.741
-7.24208
-6.73781
-6.22933
-5.71779
-5.20427
-4.68985
-4.17556
-3.66239
-3.15126
-2.64307
-2.13867
-1.63884
-1.14432
-0.655782
-0.173854
0.300894
0.767946
1.22684
1.67717
2.11858
2.55076
2.97345
3.38644
3.78956
4.18268
4.5657
4.93855
5.30121
5.65365
5.9959
6.32801
6.65004
6.9621
7.26432
7.55684
7.83983
8.11346
8.37792
8.63342
8.88017
9.11837
9.34827
9.57008
9.78404
9.99038
10.1893
10.3812
10.5661
10.7443
10.9161
11.0817
11.2413
11.3951
11.5434
11.6863
11.8241
11.957
12.0851
12.2088
12.328
12.4431
12.5542
12.6614
12.765
12.8651
12.9619
13.0554
13.1457
13.2331
13.3176
13.3994
13.4785
13.555
13.6292
13.701
13.7706
13.838
13.9034
13.9667
14.0281
14.0877
14.1454
14.2014
14.2557
14.3083
14.3593
14.4088
14.4567
14.503
14.5479
14.5914
14.6334
14.6739
14.713
14.7507
14.7871
14.822
14.8555
14.8877
14.9186
14.9481
14.9764
15.0036
15.0297
15.0548
15.0791
15.1022
15.1244
15.1425
15.1603
15.1464
-7.29671
-7.39018
-7.54222
-7.70794
-7.87477
-8.03574
-8.19033
-8.34643
-8.51229
-8.69371
-8.89473
-9.11657
-9.3578
-9.61756
-9.89526
-10.1886
-10.4938
-10.8066
-11.1226
-11.4383
-11.7508
-12.0578
-12.3574
-12.6484
-12.9296
-13.2002
-13.4595
-13.7069
-13.9418
-14.1636
-14.3717
-14.5653
-14.7438
-14.9066
-15.0528
-15.1817
-15.2926
-15.3847
-15.4574
-15.51
-15.5418
-15.5524
-15.5411
-15.5076
-15.4514
-15.3724
-15.2703
-15.1449
-14.9963
-14.8245
-14.6297
-14.4121
-14.1721
-13.91
-13.6265
-13.322
-12.9973
-12.6532
-12.2905
-11.9101
-11.5129
-11.0999
-10.6724
-10.2312
-9.77758
-9.31267
-8.83764
-8.35369
-7.86197
-7.36367
-6.85995
-6.35196
-5.84082
-5.32761
-4.81341
-4.29923
-3.78606
-3.27482
-2.76642
-2.26168
-1.76139
-1.26629
-0.777055
-0.294314
0.181361
0.649453
1.1095
1.56108
2.00385
2.43748
2.86171
3.27631
3.68111
4.07597
4.46079
4.83548
5.20002
5.55438
5.89859
6.23268
6.55673
6.87084
7.17512
7.46972
7.7548
8.03052
8.29707
8.55465
8.80347
9.04375
9.27569
9.49953
9.71549
9.92382
10.1247
10.3185
10.5053
10.6854
10.859
11.0264
11.1877
11.3432
11.4932
11.6378
11.7772
11.9116
12.0413
12.1664
12.2871
12.4036
12.516
12.6246
12.7295
12.8308
12.9287
13.0234
13.1149
13.2033
13.2889
13.3717
13.4518
13.5293
13.6044
13.6771
13.7475
13.8157
13.8819
13.946
14.0081
14.0684
14.1268
14.1835
14.2384
14.2916
14.3432
14.3932
14.4417
14.4886
14.534
14.5779
14.6203
14.6613
14.7008
14.7388
14.7755
14.8106
14.8444
14.8767
14.9076
14.9371
14.9652
14.992
15.0174
15.0415
15.0642
15.085
15.1038
15.1172
15.1289
15.107
-7.10636
-7.19246
-7.34658
-7.51894
-7.70233
-7.89463
-8.09242
-8.29767
-8.51497
-8.74674
-8.99328
-9.25455
-9.5305
-9.82072
-10.1234
-10.4351
-10.7524
-11.0718
-11.3903
-11.7053
-12.0146
-12.3166
-12.6099
-12.8935
-13.1667
-13.4287
-13.6792
-13.9175
-14.1432
-14.3559
-14.555
-14.74
-14.9103
-15.0651
-15.2038
-15.3258
-15.4303
-15.5166
-15.5839
-15.6317
-15.6593
-15.666
-15.6514
-15.615
-15.5563
-15.4751
-15.3711
-15.2442
-15.0943
-14.9214
-14.7257
-14.5073
-14.2667
-14.0043
-13.7204
-13.4158
-13.0911
-12.747
-12.3845
-12.0043
-11.6074
-11.1949
-10.7678
-10.3272
-9.87421
-9.40996
-8.93564
-8.45241
-7.96143
-7.46388
-6.96091
-6.45365
-5.94323
-5.43072
-4.91716
-4.40358
-3.89094
-3.38017
-2.87216
-2.36772
-1.86765
-1.37267
-0.883446
-0.400614
0.07526
0.54366
1.00412
1.45623
1.89962
2.33397
2.75903
3.17456
3.58038
3.97636
4.36236
4.73833
5.10421
5.45999
5.80567
6.1413
6.46695
6.7827
7.08868
7.38501
7.67185
7.94936
8.21773
8.47714
8.72781
8.96993
9.20373
9.42942
9.64724
9.8574
10.0601
10.2557
10.4443
10.6262
10.8015
10.9706
11.1337
11.2909
11.4425
11.5887
11.7296
11.8656
11.9968
12.1234
12.2455
12.3634
12.4772
12.5871
12.6933
12.7958
12.8949
12.9907
13.0834
13.1729
13.2596
13.3434
13.4245
13.503
13.579
13.6526
13.7239
13.793
13.86
13.9249
13.9878
14.0488
14.1079
14.1652
14.2208
14.2747
14.3269
14.3775
14.4265
14.4739
14.5198
14.5642
14.6071
14.6485
14.6884
14.7268
14.7637
14.7992
14.8332
14.8656
14.8965
14.926
14.9538
14.9801
15.0048
15.0277
15.0487
15.0671
15.0826
15.0915
15.0977
15.0687
-7.07845
-7.16528
-7.31298
-7.48176
-7.6685
-7.87306
-8.09228
-8.32418
-8.569
-8.82734
-9.09871
-9.38227
-9.67775
-9.98401
-10.2983
-10.6178
-10.9394
-11.2605
-11.5787
-11.8918
-12.1983
-12.4966
-12.7858
-13.0649
-13.3334
-13.5905
-13.836
-14.0693
-14.29
-14.4976
-14.6917
-14.8718
-15.0372
-15.1874
-15.3216
-15.4393
-15.5398
-15.6222
-15.686
-15.7304
-15.7549
-15.7587
-15.7415
-15.7026
-15.6418
-15.5585
-15.4527
-15.3241
-15.1727
-14.9985
-14.8016
-14.5823
-14.3408
-14.0776
-13.7931
-13.488
-13.163
-12.8187
-12.4561
-12.0759
-11.6792
-11.267
-10.8402
-10.4001
-9.94767
-9.48409
-9.01052
-8.5281
-8.03801
-7.5414
-7.0394
-6.53315
-6.02374
-5.51224
-4.9997
-4.48712
-3.97545
-3.46561
-2.95848
-2.45487
-1.95555
-1.46126
-0.972649
-0.49034
-0.0148933
0.453179
0.913416
1.36541
1.8088
2.24326
2.66854
3.08439
3.49063
3.88711
4.27373
4.65039
5.01705
5.3737
5.72033
6.057
6.38375
6.70068
7.0079
7.30554
7.59374
7.87266
8.14249
8.40339
8.65558
8.89925
9.13462
9.36191
9.58132
9.7931
9.99746
10.1946
10.3848
10.5683
10.7453
10.916
11.0806
11.2393
11.3925
11.5401
11.6826
11.8201
11.9527
12.0806
12.2042
12.3234
12.4385
12.5497
12.6571
12.7609
12.8612
12.9581
13.0519
13.1425
13.2302
13.315
13.3971
13.4766
13.5535
13.6281
13.7003
13.7702
13.838
13.9037
13.9674
14.0291
14.0889
14.1469
14.2032
14.2577
14.3105
14.3617
14.4113
14.4593
14.5057
14.5506
14.594
14.6358
14.6761
14.7149
14.7522
14.7879
14.822
14.8546
14.8856
14.9148
14.9424
14.9682
14.992
15.0137
15.033
15.049
15.0612
15.0659
15.0672
15.0321
-7.18933
-7.2677
-7.39864
-7.55453
-7.73317
-7.93426
-8.1551
-8.3931
-8.64661
-8.91432
-9.19456
-9.4862
-9.78831
-10.0989
-10.4156
-10.7357
-11.0567
-11.3764
-11.6926
-12.0035
-12.3076
-12.6036
-12.8905
-13.1675
-13.4339
-13.6891
-13.9326
-14.164
-14.3828
-14.5885
-14.7807
-14.9587
-15.1221
-15.2702
-15.4023
-15.5178
-15.616
-15.6963
-15.7579
-15.8002
-15.8225
-15.8244
-15.8051
-15.7643
-15.7016
-15.6166
-15.5091
-15.3789
-15.2261
-15.0505
-14.8524
-14.6319
-14.3895
-14.1254
-13.8403
-13.5346
-13.2092
-12.8647
-12.5019
-12.1219
-11.7254
-11.3135
-10.8873
-10.4479
-9.99624
-9.53359
-9.06105
-8.57977
-8.09091
-7.5956
-7.09498
-6.59015
-6.08221
-5.57222
-5.0612
-4.55013
-4.03996
-3.5316
-3.0259
-2.52366
-2.02566
-1.5326
-1.04515
-0.5639
-0.0894233
0.377777
0.837246
1.28858
1.73141
2.16542
2.59036
3.00598
3.4121
3.80857
4.19528
4.57214
4.93909
5.29613
5.64326
5.98051
6.30793
6.62563
6.93369
7.23224
7.52143
7.8014
8.07233
8.3344
8.5878
8.83272
9.06938
9.29799
9.51875
9.7319
9.93765
10.1362
10.3279
10.5127
10.6911
10.8632
11.0293
11.1894
11.344
11.493
11.6369
11.7757
11.9096
12.0389
12.1637
12.2842
12.4006
12.513
12.6216
12.7266
12.828
12.9261
13.0209
13.1126
13.2013
13.2871
13.3702
13.4506
13.5285
13.6039
13.6769
13.7477
13.8163
13.8828
13.9472
14.0097
14.0702
14.1289
14.1858
14.241
14.2945
14.3462
14.3964
14.4449
14.4919
14.5373
14.5811
14.6234
14.6641
14.7033
14.7409
14.7769
14.8112
14.8439
14.8749
14.904
14.9313
14.9565
14.9795
14.9999
15.0174
15.031
15.0401
15.0408
15.0376
14.9973
-7.36582
-7.43039
-7.5413
-7.67973
-7.84355
-8.03229
-8.2436
-8.4748
-8.72344
-8.98719
-9.26382
-9.55216
-9.85098
-10.1581
-10.471
-10.7874
-11.105
-11.4215
-11.735
-12.0437
-12.3463
-12.6412
-12.9276
-13.2044
-13.471
-13.7266
-13.9707
-14.2027
-14.422
-14.6283
-14.8208
-14.9991
-15.1625
-15.3104
-15.4422
-15.5571
-15.6546
-15.7339
-15.7945
-15.8356
-15.8566
-15.857
-15.8363
-15.794
-15.7298
-15.6433
-15.5343
-15.4027
-15.2485
-15.0717
-14.8724
-14.651
-14.4077
-14.1429
-13.8572
-13.5513
-13.2256
-12.8812
-12.5186
-12.139
-11.7431
-11.332
-10.9068
-10.4685
-10.0181
-9.55693
-9.08597
-8.60641
-8.11936
-7.62596
-7.12733
-6.62455
-6.1187
-5.61083
-5.10193
-4.59299
-4.08493
-3.57866
-3.075
-2.57476
-2.07868
-1.58747
-1.10177
-0.622199
-0.14929
0.316452
0.774576
1.22468
1.6664
2.09944
2.52351
2.93839
3.3439
3.73988
4.12621
4.50281
4.86963
5.22664
5.57385
5.91129
6.23901
6.5571
6.86565
7.16478
7.45462
7.73534
8.00708
8.27002
8.52436
8.77028
9.00798
9.23767
9.45957
9.67387
9.88082
10.0806
10.2735
10.4596
10.6393
10.8126
10.98
11.1414
11.2972
11.4476
11.5927
11.7327
11.8679
11.9985
12.1245
12.2462
12.3637
12.4773
12.587
12.6931
12.7956
12.8947
12.9906
13.0833
13.173
13.2598
13.3438
13.4251
13.5039
13.5802
13.654
13.7256
13.795
13.8623
13.9275
13.9907
14.0519
14.1113
14.1689
14.2247
14.2788
14.3312
14.3819
14.431
14.4785
14.5244
14.5687
14.6114
14.6526
14.6921
14.73
14.7663
14.8009
14.8336
14.8646
14.8936
14.9205
14.9451
14.9673
14.9864
15.0022
15.0135
15.0196
15.0167
15.0094
14.9646
-7.5397
-7.59118
-7.68375
-7.80434
-7.95096
-8.1231
-8.31869
-8.53535
-8.77062
-9.02196
-9.28732
-9.56559
-9.85539
-10.1545
-10.4604
-10.7709
-11.0836
-11.3963
-11.7072
-12.0144
-12.3163
-12.6116
-12.899
-13.1775
-13.4462
-13.7042
-13.9508
-14.1854
-14.4073
-14.6159
-14.8107
-14.9908
-15.1558
-15.305
-15.4377
-15.5533
-15.651
-15.7303
-15.7906
-15.8311
-15.8514
-15.8509
-15.8292
-15.7858
-15.7203
-15.6326
-15.5225
-15.3898
-15.2345
-15.0567
-14.8567
-14.6345
-14.3907
-14.1257
-13.8399
-13.534
-13.2087
-12.8648
-12.5031
-12.1244
-11.7297
-11.3201
-10.8965
-10.46
-10.0116
-9.5526
-9.08397
-8.60686
-8.12239
-7.63167
-7.1358
-6.63585
-6.13288
-5.6279
-5.12191
-4.61586
-4.11068
-3.60725
-3.10638
-2.60885
-2.1154
-1.62672
-1.14346
-0.666207
-0.195499
0.26817
0.724354
1.17265
1.61271
2.04422
2.46692
2.88056
3.28497
3.67999
4.06551
4.44143
4.80769
5.16429
5.51121
5.84848
6.17615
6.4943
6.80303
7.10244
7.39266
7.67383
7.94613
8.2097
8.46474
8.71143
8.94997
9.18055
9.40338
9.61867
9.82663
10.0275
10.2214
10.4087
10.5895
10.764
10.9325
11.0951
11.2521
11.4036
11.5499
11.6911
11.8275
11.9592
12.0863
12.2092
12.3278
12.4425
12.5533
12.6604
12.764
12.8641
12.961
13.0547
13.1453
13.2331
13.318
13.4002
13.4799
13.557
13.6317
13.7041
13.7743
13.8423
13.9082
13.9722
14.0341
14.0942
14.1524
14.2089
14.2636
14.3166
14.3679
14.4175
14.4656
14.512
14.5568
14.6
14.6415
14.6815
14.7197
14.7563
14.791
14.8239
14.8549
14.8837
14.9103
14.9344
14.9556
14.9735
14.9876
14.9967
15
14.9938
14.9828
14.9343
-7.66647
-7.70865
-7.78583
-7.88978
-8.01901
-8.17308
-8.35023
-8.54852
-8.76592
-9.00024
-9.25008
-9.51474
-9.79276
-10.0819
-10.3796
-10.6836
-10.9914
-11.3009
-11.61
-11.9168
-12.2195
-12.5166
-12.8066
-13.0885
-13.3609
-13.6231
-13.8739
-14.1126
-14.3386
-14.5509
-14.749
-14.9322
-15.0998
-15.2511
-15.3856
-15.5024
-15.6011
-15.6809
-15.7413
-15.7818
-15.8017
-15.8007
-15.7782
-15.734
-15.6676
-15.5791
-15.4681
-15.3346
-15.1786
-15.0004
-14.7999
-14.5777
-14.3339
-14.0691
-13.7839
-13.4788
-13.1546
-12.812
-12.4519
-12.075
-11.6825
-11.2752
-10.8541
-10.4204
-9.97506
-9.51917
-9.05384
-8.58018
-8.09927
-7.6122
-7.12006
-6.62389
-6.12472
-5.62356
-5.12139
-4.61913
-4.11768
-3.61791
-3.12064
-2.62662
-2.13658
-1.65118
-1.17107
-0.696824
-0.228982
0.231972
0.6856
1.1315
1.56933
1.99878
2.41957
2.83148
3.23432
3.62793
4.0122
4.38702
4.75235
5.10816
5.45443
5.7912
6.11851
6.43643
6.74504
7.04445
7.33479
7.6162
7.88881
8.1528
8.40834
8.6556
8.89479
9.12609
9.3497
9.56582
9.77466
9.97643
10.1713
10.3596
10.5414
10.717
10.8865
11.0502
11.2083
11.3609
11.5083
11.6506
11.7881
11.9209
12.0491
12.173
12.2928
12.4085
12.5204
12.6285
12.7331
12.8342
12.932
13.0267
13.1183
13.2069
13.2928
13.3759
13.4564
13.5343
13.6099
13.6831
13.754
13.8228
13.8895
13.9541
14.0167
14.0775
14.1364
14.1935
14.2488
14.3024
14.3543
14.4045
14.4531
14.5
14.5453
14.589
14.631
14.6714
14.71
14.7468
14.7818
14.8148
14.8458
14.8745
14.9007
14.9242
14.9446
14.9614
14.9738
14.9809
14.9816
14.9724
14.9581
14.9064
-7.72188
-7.76014
-7.82573
-7.91472
-8.02694
-8.16234
-8.31989
-8.49825
-8.69586
-8.91119
-9.14373
-9.39338
-9.6588
-9.9376
-10.2272
-10.5251
-10.8289
-11.1362
-11.4447
-11.7524
-12.0573
-12.3577
-12.6518
-12.9383
-13.2159
-13.4833
-13.7394
-13.9834
-14.2142
-14.4311
-14.6334
-14.8202
-14.9909
-15.1449
-15.2814
-15.3999
-15.4997
-15.5803
-15.6412
-15.6817
-15.7015
-15.7002
-15.6773
-15.6326
-15.5658
-15.4768
-15.3654
-15.2317
-15.0757
-14.8976
-14.6975
-14.4759
-14.233
-13.9695
-13.6857
-13.3824
-13.0603
-12.7201
-12.3626
-11.9888
-11.5995
-11.1957
-10.7784
-10.3486
-9.90738
-9.45581
-8.99495
-8.52587
-8.04966
-7.56737
-7.08006
-6.58875
-6.09445
-5.59814
-5.10078
-4.60328
-4.10652
-3.61133
-3.11852
-2.62886
-2.14303
-1.6617
-1.18549
-0.714981
-0.250693
0.206891
0.657336
1.10025
1.53527
1.96211
2.38049
2.79017
3.19098
3.58274
3.96534
4.33868
4.7027
5.05737
5.40267
5.73863
6.06528
6.38268
6.69093
6.9901
7.28033
7.56174
7.83447
8.09869
8.35455
8.60222
8.8419
9.07377
9.29802
9.51484
9.72445
9.92703
10.1228
10.3119
10.4947
10.6712
10.8417
11.0064
11.1655
11.3192
11.4676
11.611
11.7495
11.8834
12.0127
12.1376
12.2584
12.3752
12.488
12.5972
12.7027
12.8049
12.9036
12.9992
13.0917
13.1813
13.268
13.352
13.4333
13.5121
13.5885
13.6624
13.7342
13.8037
13.8711
13.9364
13.9998
14.0612
14.1208
14.1785
14.2345
14.2887
14.3412
14.392
14.4411
14.4886
14.5344
14.5786
14.621
14.6618
14.7008
14.7379
14.7731
14.8063
14.8373
14.8659
14.8919
14.9149
14.9345
14.9501
14.9611
14.9662
14.9646
14.9526
14.9353
14.881
-7.70741
-7.7421
-7.79894
-7.8741
-7.96912
-8.08483
-8.22124
-8.37799
-8.55428
-8.74944
-8.96388
-9.19812
-9.45094
-9.71988
-10.0022
-10.2953
-10.5964
-10.9031
-11.2127
-11.5229
-11.8316
-12.1366
-12.4361
-12.7284
-13.0119
-13.2853
-13.5474
-13.797
-14.0331
-14.2548
-14.4613
-14.6518
-14.8257
-14.9822
-15.1207
-15.2408
-15.3418
-15.4232
-15.4846
-15.5254
-15.5453
-15.544
-15.5211
-15.4763
-15.4096
-15.3208
-15.2098
-15.0766
-14.9214
-14.7443
-14.5456
-14.3256
-14.0848
-13.8236
-13.5426
-13.2423
-12.9236
-12.5871
-12.2336
-11.8641
-11.4794
-11.0805
-10.6683
-10.2438
-9.80814
-9.36223
-8.90716
-8.44398
-7.97374
-7.49748
-7.0162
-6.53093
-6.04265
-5.55231
-5.06083
-4.56912
-4.07804
-3.58839
-3.10097
-2.61653
-2.13576
-1.65932
-1.18779
-0.721734
-0.261688
0.191871
0.63851
1.07784
1.5095
1.9332
2.34866
2.75565
3.15397
3.54347
3.92401
4.29549
4.65786
5.01106
5.35509
5.68995
6.01568
6.33232
6.63996
6.93868
7.22859
7.50982
7.7825
8.04677
8.30279
8.55074
8.79078
9.02309
9.24787
9.46529
9.67556
9.87886
10.0754
10.2654
10.449
10.6264
10.7978
10.9635
11.1236
11.2782
11.4277
11.5721
11.7116
11.8465
11.9768
12.1028
12.2246
12.3423
12.4562
12.5663
12.6728
12.7759
12.8756
12.9721
13.0656
13.156
13.2436
13.3284
13.4106
13.4902
13.5674
13.6422
13.7147
13.7849
13.8531
13.9191
13.9832
14.0453
14.1056
14.1639
14.2205
14.2754
14.3285
14.3799
14.4296
14.4776
14.524
14.5686
14.6116
14.6528
14.6921
14.7296
14.7651
14.7985
14.8295
14.8581
14.8838
14.9063
14.9252
14.9399
14.9494
14.9528
14.949
14.9347
14.9147
14.8582
-7.64352
-7.66931
-7.7155
-7.77416
-7.84893
-7.94182
-8.05406
-8.18653
-8.33947
-8.51314
-8.70894
-8.9279
-9.16884
-9.42907
-9.70561
-9.99549
-10.2957
-10.6034
-10.9157
-11.23
-11.5436
-11.8543
-12.1599
-12.4585
-12.7483
-13.0279
-13.2958
-13.5508
-13.7919
-14.018
-14.2284
-14.4223
-14.5989
-14.7577
-14.8981
-15.0196
-15.1217
-15.204
-15.266
-15.3074
-15.3278
-15.3269
-15.3046
-15.2606
-15.1947