/*--------------------------------*- C++ -*----------------------------------*\
  =========                 |
  \\      /  F ield         | OpenFOAM: The Open Source CFD Toolbox
   \\    /   O peration     | Website:  https://openfoam.org
    \\  /    A nd           | Version:  8
     \\/     M anipulation  |
\*---------------------------------------------------------------------------*/
FoamFile
{
    version     2.0;
    format      ascii;
    class       volVectorField;
    location    "2800";
    object      U;
}
// * * * * * * * * * * * * * * * * * * * * * * * * * * * * * * * * * * * * * //

dimensions      [0 1 -1 0 0 0 0];

internalField   nonuniform List<vector> 
12225
(
(9.2745 -4.73371 0)
(13.1094 -1.71343 0)
(12.4778 -0.395198 0)
(11.2771 -0.0422041 0)
(10.6314 0.0141385 0)
(10.2979 -9.39149e-05 0)
(10.0776 -0.0165233 0)
(9.91228 -0.00288807 0)
(9.77909 0.0348751 0)
(9.66231 0.0428936 0)
(9.55574 0.0248842 0)
(9.45767 0.00214317 0)
(9.36676 -0.0227909 0)
(9.28212 -0.0302245 0)
(9.20233 -0.0217867 0)
(9.13253 -0.0212278 0)
(9.07017 -0.021038 0)
(9.08958 -0.0277016 0)
(10.2592 0.0928019 0)
(10.7814 0.199339 0)
(10.9594 0.245656 0)
(10.7469 0.229144 0)
(10.5875 0.172969 0)
(10.4527 0.115535 0)
(10.33 0.0823315 0)
(10.2327 0.0647302 0)
(10.155 0.0524773 0)
(10.0894 0.0472347 0)
(10.0324 0.0469937 0)
(9.98213 0.0489911 0)
(9.93786 0.051798 0)
(9.89833 0.0519425 0)
(9.86151 0.0483243 0)
(9.82886 0.0438404 0)
(9.79429 0.0300784 0)
(9.76827 0.0102765 0)
(9.87768 -0.24504 0)
(9.74285 0.00579118 0)
(10.1971 0.125744 0)
(10.3245 0.179364 0)
(10.3564 0.161548 0)
(10.3311 0.120077 0)
(10.2777 0.0904941 0)
(10.2252 0.0746659 0)
(10.1812 0.0658756 0)
(10.1438 0.0600296 0)
(10.1103 0.0562092 0)
(10.0799 0.0536516 0)
(10.052 0.0511367 0)
(10.026 0.0487619 0)
(10.0023 0.0460743 0)
(9.98119 0.0417648 0)
(9.95916 0.0316658 0)
(9.93459 0.0135679 0)
(9.83416 -0.443933 0)
(9.57654 -0.163146 0)
(9.91603 0.0336708 0)
(10.0933 0.134225 0)
(10.1892 0.145473 0)
(10.2168 0.120738 0)
(10.205 0.0978951 0)
(10.1824 0.0839095 0)
(10.1599 0.0756298 0)
(10.1389 0.0697126 0)
(10.119 0.0651348 0)
(10.1002 0.0616377 0)
(10.0821 0.058613 0)
(10.0648 0.0562285 0)
(10.0483 0.0538528 0)
(10.0325 0.0501408 0)
(10.0148 0.0424121 0)
(9.99179 0.0306022 0)
(9.87825 -0.387476 0)
(9.61653 -0.196147 0)
(9.81623 -0.01867 0)
(9.96136 0.0916132 0)
(10.0698 0.122197 0)
(10.1219 0.113628 0)
(10.1354 0.0992641 0)
(10.1332 0.0884209 0)
(10.1257 0.0809484 0)
(10.1162 0.0753965 0)
(10.1056 0.071124 0)
(10.0946 0.0678815 0)
(10.0833 0.0652534 0)
(10.0718 0.0631551 0)
(10.0601 0.061042 0)
(10.0477 0.0581019 0)
(10.0329 0.053074 0)
(10.0125 0.0468923 0)
(9.91439 -0.28804 0)
(9.68304 -0.185176 0)
(9.78717 -0.0532073 0)
(9.88917 0.0509995 0)
(9.98796 0.0936801 0)
(10.0476 0.0992039 0)
(10.0751 0.0938742 0)
(10.0861 0.0875178 0)
(10.0892 0.0821202 0)
(10.0879 0.0777641 0)
(10.0842 0.0743503 0)
(10.0789 0.0717593 0)
(10.0726 0.0697405 0)
(10.0654 0.06817 0)
(10.0572 0.0667226 0)
(10.0476 0.0650383 0)
(10.0354 0.062776 0)
(10.0185 0.0611606 0)
(9.93763 -0.214041 0)
(9.74856 -0.167535 0)
(9.79244 -0.0752152 0)
(9.85608 0.0162207 0)
(9.93595 0.0644221 0)
(9.99281 0.0805952 0)
(10.0261 0.083561 0)
(10.0447 0.0822431 0)
(10.0546 0.0797788 0)
(10.0593 0.0772867 0)
(10.0606 0.0751749 0)
(10.0596 0.0735578 0)
(10.057 0.0723875 0)
(10.0531 0.0716327 0)
(10.0477 0.0711871 0)
(10.0407 0.0710108 0)
(10.0312 0.0712713 0)
(10.0182 0.0731433 0)
(9.95263 -0.167334 0)
(9.79947 -0.149677 0)
(9.81177 -0.0846412 0)
(9.84959 -0.00621014 0)
(9.91141 0.041932 0)
(9.96107 0.0638971 0)
(9.99432 0.0725498 0)
(10.0156 0.0752858 0)
(10.0289 0.0755293 0)
(10.0367 0.0749027 0)
(10.041 0.0741467 0)
(10.0427 0.0735803 0)
(10.0425 0.0733212 0)
(10.0408 0.0734459 0)
(10.0375 0.0740021 0)
(10.0325 0.0751313 0)
(10.0254 0.0771982 0)
(10.0157 0.0811965 0)
(9.96406 -0.132089 0)
(9.84003 -0.131988 0)
(9.83337 -0.0876898 0)
(9.85306 -0.0213326 0)
(9.89927 0.0244156 0)
(9.94102 0.0495129 0)
(9.97207 0.0621231 0)
(9.99385 0.0680763 0)
(10.0086 0.0706953 0)
(10.0184 0.0717936 0)
(10.0246 0.0723163 0)
(10.0282 0.0727518 0)
(10.0298 0.0733582 0)
(10.0297 0.0743161 0)
(10.028 0.0757832 0)
(10.0248 0.0780028 0)
(10.0197 0.0814048 0)
(10.0129 0.0868008 0)
(9.97418 -0.100205 0)
(9.87757 -0.11239 0)
(9.85857 -0.0853662 0)
(9.86387 -0.0323328 0)
(9.89487 0.00892891 0)
(9.92743 0.0352239 0)
(9.95439 0.0507168 0)
(9.97502 0.0594964 0)
(9.99015 0.0644433 0)
(10.0009 0.0673582 0)
(10.0085 0.0692966 0)
(10.0135 0.070876 0)
(10.0166 0.0724741 0)
(10.018 0.0743661 0)
(10.0179 0.076798 0)
(10.0164 0.0800716 0)
(10.0136 0.0846125 0)
(10.0095 0.0910372 0)
(9.98253 -0.0727091 0)
(9.91035 -0.0921963 0)
(9.88507 -0.0782442 0)
(9.88001 -0.0386075 0)
(9.89746 -0.00337397 0)
(9.92043 0.0221688 0)
(9.94196 0.039184 0)
(9.95999 0.0500805 0)
(9.97425 0.0570555 0)
(9.98518 0.0617039 0)
(9.99339 0.065078 0)
(9.99941 0.0678615 0)
(10.0037 0.0705139 0)
(10.0064 0.0733815 0)
(10.0078 0.0767661 0)
(10.0081 0.0809876 0)
(10.0073 0.0864197 0)
(10.0058 0.0934985 0)
(9.98894 -0.0502566 0)
(9.93733 -0.0723782 0)
(9.91073 -0.0674481 0)
(9.89917 -0.0399827 0)
(9.90566 -0.0116498 0)
(9.91955 0.0114521 0)
(9.93497 0.0285304 0)
(9.94934 0.0405799 0)
(9.96169 0.0490237 0)
(9.97188 0.0551105 0)
(9.98009 0.0597782 0)
(9.98659 0.0637009 0)
(9.99163 0.0673689 0)
(9.99544 0.0711614 0)
(9.9982 0.0753998 0)
(10.0001 0.0803865 0)
(10.0013 0.086422 0)
(10.0021 0.0937898 0)
(9.99348 -0.0329086 0)
(9.9582 -0.053811 0)
(9.93368 -0.0542835 0)
(9.91898 -0.0367872 0)
(9.91755 -0.0154534 0)
(9.92366 0.00399478 0)
(9.93301 0.0197752 0)
(9.94318 0.0318761 0)
(9.9529 0.0410099 0)
(9.96163 0.0480194 0)
(9.96922 0.0536458 0)
(9.9757 0.0584816 0)
(9.98118 0.0629899 0)
(9.98578 0.0675385 0)
(9.98965 0.072431 0)
(9.99294 0.0779275 0)
(9.99587 0.0842502 0)
(9.99869 0.0915704 0)
(9.99643 -0.0202025 0)
(9.97327 -0.0372098 0)
(9.95261 -0.0400454 0)
(9.93731 -0.0298106 0)
(9.9309 -0.0148236 0)
(9.93102 0.000366402 0)
(9.93504 0.0137739 0)
(9.94104 0.0248422 0)
(9.94782 0.033758 0)
(9.95465 0.0409898 0)
(9.96117 0.047048 0)
(9.96724 0.0523926 0)
(9.97281 0.0574089 0)
(9.9779 0.062412 0)
(9.98261 0.067656 0)
(9.98704 0.0733431 0)
(9.99135 0.0796243 0)
(9.99573 0.086593 0)
(9.99816 -0.0112876 0)
(9.9833 -0.0229306 0)
(9.96682 -0.0257627 0)
(9.95243 -0.0200767 0)
(9.94344 -0.0102418 0)
(9.93952 0.000674836 0)
(9.9394 0.0110296 0)
(9.94183 0.0201432 0)
(9.94582 0.0279241 0)
(9.95069 0.0345703 0)
(9.95597 0.0403836 0)
(9.96139 0.0456737 0)
(9.96681 0.0507189 0)
(9.97215 0.055751 0)
(9.97744 0.0609542 0)
(9.9827 0.0664652 0)
(9.98803 0.0723733 0)
(9.99353 0.0787193 0)
(9.99906 -0.00508081 0)
(9.98922 -0.0107807 0)
(9.97612 -0.0119168 0)
(9.96309 -0.00848261 0)
(9.9531 -0.00243456 0)
(9.94685 0.00457862 0)
(9.94399 0.0115572 0)
(9.94384 0.01802 0)
(9.94569 0.0238379 0)
(9.94896 0.0290792 0)
(9.95317 0.0338995 0)
(9.95799 0.0384755 0)
(9.96321 0.042972 0)
(9.96868 0.0475264 0)
(9.97435 0.052243 0)
(9.98019 0.0571915 0)
(9.98623 0.0624075 0)
(9.99249 0.0678934 0)
(9.99942 -0.000367194 0)
(9.9918 0.000151897 0)
(9.98042 0.00183257 0)
(9.96821 0.00459404 0)
(9.9579 0.00792048 0)
(9.95061 0.0114019 0)
(9.94642 0.0148169 0)
(9.94498 0.0180885 0)
(9.94576 0.0212333 0)
(9.94825 0.0243177 0)
(9.95198 0.0274228 0)
(9.9566 0.0306259 0)
(9.96186 0.0339891 0)
(9.96757 0.0375568 0)
(9.97361 0.0413526 0)
(9.97993 0.0453817 0)
(9.98648 0.0496297 0)
(9.99325 0.0540671 0)
(9.99935 0.00408484 0)
(9.9911 0.0111735 0)
(9.97897 0.0161338 0)
(9.96616 0.0187373 0)
(9.95552 0.0196136 0)
(9.94819 0.0195473 0)
(9.94419 0.0191605 0)
(9.94311 0.0188631 0)
(9.94437 0.0188957 0)
(9.94741 0.0193754 0)
(9.95174 0.020343 0)
(9.95698 0.0217931 0)
(9.96286 0.0236952 0)
(9.96919 0.0260044 0)
(9.97583 0.0286695 0)
(9.98269 0.0316339 0)
(9.98974 0.0348398 0)
(9.99692 0.0382265 0)
(9.99882 0.00972981 0)
(9.98675 0.0240491 0)
(9.97122 0.0318471 0)
(9.95641 0.0332946 0)
(9.94558 0.0307053 0)
(9.93942 0.0263515 0)
(9.93734 0.021749 0)
(9.93845 0.0177403 0)
(9.94186 0.0146957 0)
(9.94686 0.012711 0)
(9.95291 0.0117304 0)
(9.95962 0.0116349 0)
(9.96673 0.0122856 0)
(9.97408 0.0135468 0)
(9.98155 0.0152938 0)
(9.98908 0.0174169 0)
(9.99665 0.0198198 0)
(10.0042 0.0224183 0)
(9.99757 0.01821 0)
(9.97773 0.0404556 0)
(9.95664 0.0495781 0)
(9.93945 0.0474797 0)
(9.92961 0.0394251 0)
(9.92658 0.0296487 0)
(9.92848 0.020492 0)
(9.93357 0.0129686 0)
(9.94055 0.00735026 0)
(9.94855 0.00351893 0)
(9.95704 0.001223 0)
(9.96567 0.000173107 0)
(9.97427 0.000105453 0)
(9.98276 0.000787497 0)
(9.99108 0.00203251 0)
(9.99925 0.00368831 0)
(10.0073 0.00563285 0)
(10.0151 0.00776836 0)
(9.99502 0.0318145 0)
(9.96177 0.0621339 0)
(9.93372 0.069552 0)
(9.91534 0.0601159 0)
(9.90932 0.0439521 0)
(9.91249 0.0276616 0)
(9.92084 0.0139956 0)
(9.93162 0.00364108 0)
(9.94322 -0.00364005 0)
(9.95479 -0.00837228 0)
(9.96594 -0.0111295 0)
(9.97651 -0.0123944 0)
(9.9865 -0.0125724 0)
(9.99594 -0.0119633 0)
(10.0049 -0.0108024 0)
(10.0135 -0.00926245 0)
(10.0217 -0.00747357 0)
(10.0296 -0.00553396 0)
(9.99018 0.0534618 0)
(9.93561 0.0901521 0)
(9.90098 0.0906282 0)
(9.88515 0.0687575 0)
(9.8878 0.0418198 0)
(9.90121 0.0186597 0)
(9.91856 0.00141871 0)
(9.93626 -0.0103943 0)
(9.95285 -0.0179384 0)
(9.96785 -0.0223903 0)
(9.98128 -0.0246463 0)
(9.99331 -0.0253883 0)
(10.0042 -0.0250954 0)
(10.0141 -0.0241225 0)
(10.0232 -0.0227062 0)
(10.0318 -0.0210146 0)
(10.0399 -0.0191636 0)
(10.0476 -0.0172345 0)
(9.9819 0.0862471 0)
(9.89548 0.124258 0)
(9.85817 0.109884 0)
(9.85209 0.0697743 0)
(9.87033 0.0303387 0)
(9.89842 0.00144973 0)
(9.92658 -0.017203 0)
(9.95134 -0.0283184 0)
(9.9722 -0.0344164 0)
(9.98959 -0.0373248 0)
(10.0042 -0.0382005 0)
(10.0167 -0.0377953 0)
(10.0276 -0.0366155 0)
(10.0372 -0.0349821 0)
(10.0459 -0.0330975 0)
(10.0539 -0.0311015 0)
(10.0613 -0.0290703 0)
(10.0684 -0.0270638 0)
(9.96925 0.133989 0)
(9.83823 0.163089 0)
(9.80793 0.122591 0)
(9.82311 0.0588002 0)
(9.86512 0.00730865 0)
(9.91138 -0.0240257 0)
(9.95035 -0.040589 0)
(9.98048 -0.0483684 0)
(10.0034 -0.0512308 0)
(10.0212 -0.0515304 0)
(10.0353 -0.0504062 0)
(10.0469 -0.0485031 0)
(10.0565 -0.0462537 0)
(10.0649 -0.0438604 0)
(10.0722 -0.0414436 0)
(10.079 -0.039101 0)
(10.0852 -0.036876 0)
(10.0911 -0.0347777 0)
(9.94951 0.20714 0)
(9.76128 0.207022 0)
(9.75726 0.123478 0)
(9.81042 0.0320112 0)
(9.88382 -0.0278606 0)
(9.94874 -0.0559941 0)
(9.99526 -0.0660711 0)
(10.0266 -0.0677983 0)
(10.048 -0.0659673 0)
(10.063 -0.0631827 0)
(10.0743 -0.0598706 0)
(10.083 -0.0564794 0)
(10.09 -0.0531481 0)
(10.0959 -0.0501256 0)
(10.101 -0.0472888 0)
(10.1057 -0.0446972 0)
(10.11 -0.0423479 0)
(10.1141 -0.0402139 0)
(9.91094 0.322718 0)
(9.65923 0.254545 0)
(9.71887 0.107407 0)
(9.83329 -0.0119231 0)
(9.94173 -0.0726524 0)
(10.0199 -0.0901621 0)
(10.0662 -0.0893208 0)
(10.0917 -0.0831351 0)
(10.1058 -0.0760327 0)
(10.1141 -0.0696069 0)
(10.1197 -0.0644765 0)
(10.1235 -0.060063 0)
(10.1261 -0.0563877 0)
(10.1281 -0.0532037 0)
(10.1298 -0.0502017 0)
(10.1313 -0.0476736 0)
(10.1329 -0.0455815 0)
(10.1345 -0.0434436 0)
(9.84404 0.43511 0)
(9.53798 0.261026 0)
(9.7269 0.0591349 0)
(9.92367 -0.0731155 0)
(10.0584 -0.121552 0)
(10.1344 -0.120191 0)
(10.1664 -0.105279 0)
(10.1758 -0.0906144 0)
(10.1759 -0.0784782 0)
(10.1725 -0.0703665 0)
(10.1686 -0.064417 0)
(10.1646 -0.0597423 0)
(10.1605 -0.0556843 0)
(10.1569 -0.0524409 0)
(10.1535 -0.0496276 0)
(10.1503 -0.0475001 0)
(10.148 -0.0459036 0)
(10.1461 -0.0439436 0)
(9.83598 0.319666 0)
(9.55021 0.0912512 0)
(9.91739 -0.0687255 0)
(10.1507 -0.160112 0)
(10.2634 -0.172136 0)
(10.3032 -0.142726 0)
(10.2978 -0.112094 0)
(10.276 -0.0899535 0)
(10.2516 -0.075386 0)
(10.2302 -0.0674484 0)
(10.2132 -0.0619132 0)
(10.1983 -0.0574341 0)
(10.1843 -0.0528995 0)
(10.1713 -0.0486748 0)
(10.1597 -0.0448521 0)
(10.1496 -0.0424351 0)
(10.141 -0.0406965 0)
(10.1326 -0.0380601 0)
(10.2049 -0.0633775 0)
(10.4095 -0.191706 0)
(10.7164 -0.282558 0)
(10.6879 -0.282287 0)
(10.6191 -0.230103 0)
(10.5417 -0.163667 0)
(10.4546 -0.117044 0)
(10.3763 -0.0924995 0)
(10.3137 -0.0798683 0)
(10.2654 -0.0678565 0)
(10.2262 -0.0588546 0)
(10.1916 -0.0543088 0)
(10.1603 -0.0535485 0)
(10.1322 -0.0530291 0)
(10.1071 -0.0522587 0)
(10.0853 -0.0483445 0)
(10.0637 -0.0439715 0)
(10.0434 -0.0447552 0)
(9.41631 4.45107 0)
(12.7294 2.07612 0)
(12.5649 0.621212 0)
(11.569 0.127657 0)
(10.9309 0.00343431 0)
(10.5866 -0.00206807 0)
(10.3638 0.0123092 0)
(10.2022 0.0302337 0)
(10.0796 0.0411919 0)
(9.9773 0.0358332 0)
(9.88479 0.0250256 0)
(9.79904 0.02189 0)
(9.72261 0.0249214 0)
(9.65617 0.0228306 0)
(9.59978 0.0193774 0)
(9.54588 0.00989516 0)
(9.49542 -0.0149514 0)
(9.45202 -0.010966 0)
(-0.027526 0.0934404 0)
(0.137012 -0.183508 0)
(0.324979 -0.3059 0)
(0.525467 -0.315123 0)
(0.702948 -0.272079 0)
(0.833502 -0.211087 0)
(0.909826 -0.146347 -8.60131e-20)
(0.940412 -0.082501 8.66368e-20)
(0.919544 -0.0201773 0)
(0.858863 0.0345348 9.18568e-20)
(0.771706 0.0739605 0)
(0.672442 0.0920086 0)
(0.578515 0.0877292 0)
(0.505708 0.066669 -1.43194e-19)
(0.455753 0.0377153 0)
(0.412414 0.00997783 0)
(0.352892 -0.00897145 1.87915e-19)
(0.262747 -0.00868511 0)
(0.135219 0.0292835 0)
(-0.0447408 0.112917 0)
(-0.300432 0.18647 -1.64835e-19)
(-0.594121 0.235247 0)
(-0.915534 0.266809 -7.6242e-20)
(-1.25178 0.296024 0)
(-1.59121 0.323647 0)
(-1.93095 0.336462 -4.13218e-20)
(-2.26338 0.335616 0)
(-2.5805 0.326496 3.45395e-20)
(-2.87929 0.310361 0)
(-3.15631 0.289562 -3.13404e-20)
(-3.41067 0.266426 0)
(-3.64197 0.242546 0)
(-3.85095 0.218955 0)
(-4.0387 0.196361 0)
(-4.20666 0.175139 0)
(-4.35638 0.155496 2.82288e-20)
(-4.48945 0.137467 0)
(-4.60737 0.120982 -5.55691e-20)
(-4.71151 0.105913 0)
(-4.80308 0.0921007 5.47705e-20)
(-4.88314 0.0793829 0)
(-4.9526 0.0676077 0)
(-5.01221 0.056647 -5.35487e-20)
(-5.06257 0.0464043 0)
(-5.10421 0.0368202 -5.26571e-20)
(-5.13754 0.0278775 5.21793e-20)
(-5.16294 0.0196206 0)
(-5.18081 0.012197 5.11525e-20)
(-5.19143 0.00585484 5.06002e-20)
(-5.19495 0.000804478 0)
(-5.19264 -0.00314952 0)
(-5.18572 -0.00644793 0)
(-5.17434 -0.00937044 0)
(-5.15882 -0.0120813 0)
(-5.13932 -0.0146499 -4.61811e-20)
(-5.11598 -0.01709 0)
(-5.08891 -0.0194129 4.4316e-20)
(-5.05822 -0.0216276 0)
(-5.024 -0.0237363 0)
(-4.98637 -0.0257409 -4.11381e-20)
(-4.94542 -0.0276417 0)
(-4.90126 -0.0294388 3.87626e-20)
(-4.854 -0.0311319 0)
(-4.80376 -0.032721 0)
(-4.75065 -0.0342061 0)
(-4.69479 -0.0355869 -3.33834e-20)
(-4.6363 -0.0368639 0)
(-4.57531 -0.0380382 0)
(-4.51195 -0.0391101 -2.87862e-20)
(-4.44634 -0.0400807 0)
(-4.37863 -0.0409512 -2.54451e-20)
(-4.30893 -0.0417232 0)
(-4.23738 -0.0423985 0)
(-4.16411 -0.0429788 0)
(-4.08925 -0.0434663 1.80679e-20)
(-4.01294 -0.0438632 0)
(-3.93529 -0.0441718 0)
(-3.85645 -0.0443942 1.18861e-20)
(-3.77653 -0.044533 9.69236e-21)
(-3.69565 -0.0445905 0)
(-3.61393 -0.0445695 5.09059e-21)
(-3.5315 -0.0444732 0)
(-3.44845 -0.0443056 3.65228e-22)
(-3.36491 -0.0440717 0)
(-3.28096 -0.043778 -1.01245e-20)
(-3.19671 -0.0434334 0)
(-3.11224 -0.0430509 2.1367e-20)
(-3.02764 -0.0426496 0)
(-2.94298 -0.0422582 0)
(-2.85831 -0.0419197 0)
(-2.77367 -0.0416964 -4.65588e-20)
(-2.68909 -0.0416705 0)
(-2.60457 -0.0419319 6.08339e-20)
(-2.52008 -0.0425369 0)
(-2.43559 -0.0434267 -7.65037e-20)
(-2.35134 -0.0443295 -8.48824e-20)
(-2.26757 -0.0447848 -9.35908e-20)
(-2.18454 -0.0445771 0)
(-2.10243 -0.0439723 0)
(-2.02125 -0.043274 0)
(-1.941 -0.0425689 0)
(-1.86172 -0.0418687 0)
(-1.7834 -0.0411742 0)
(-1.70609 -0.0404871 0)
(-1.6298 -0.0398114 0)
(-1.55456 -0.0391526 1.92702e-19)
(-1.48038 -0.038518 2.07023e-19)
(-1.40728 -0.0379128 0)
(-1.33526 -0.0373262 0)
(-1.26437 -0.0367008 0)
(-1.19464 -0.036043 2.7429e-19)
(-1.12607 -0.0354088 0)
(-1.05865 -0.0347931 0)
(-0.992405 -0.0341974 0)
(-0.92732 -0.0336231 0)
(-0.863402 -0.0330725 -3.90928e-19)
(-0.800648 -0.032548 0)
(-0.739053 -0.0320528 0)
(-0.678612 -0.0315903 4.89105e-19)
(-0.619317 -0.0311622 -5.28802e-19)
(-0.561163 -0.0307718 0)
(-0.50414 -0.0304297 -6.2241e-19)
(-0.448236 -0.0301597 0)
(-0.393433 -0.0300063 7.41387e-19)
(-0.339708 -0.0299806 0)
(-0.287048 -0.030044 0)
(-0.235438 -0.0301836 0)
(-0.184849 -0.0304102 0)
(-0.135256 -0.0307395 0)
(-0.0867022 -0.0311902 -2.8465e-18)
(-0.0393993 -0.0316442 -3.2772e-18)
(0.00670485 -0.0313451 0)
(0.0521204 -0.0298479 0)
(0.0968586 -0.0279976 0)
(0.140778 -0.0262797 2.6849e-18)
(0.183786 -0.0247471 0)
(0.225862 -0.0233738 0)
(0.267028 -0.0221364 0)
(0.307318 -0.0210151 2.03999e-18)
(0.346761 -0.0199925 -1.93371e-18)
(0.385386 -0.0190545 0)
(0.423219 -0.0181897 0)
(0.460285 -0.0173888 -1.68692e-18)
(0.496607 -0.0166443 -1.62225e-18)
(0.53221 -0.0159501 0)
(0.567116 -0.0153011 0)
(0.601347 -0.0146929 1.46396e-18)
(0.634927 -0.0141219 -1.42047e-18)
(0.667878 -0.013585 0)
(0.700222 -0.0130796 0)
(0.731983 -0.0126033 -1.31018e-18)
(0.763183 -0.0121542 0)
(0.793844 -0.0117304 0)
(0.823991 -0.0113303 -1.22266e-18)
(0.853646 -0.0109527 0)
(0.882833 -0.0105963 -1.17357e-18)
(0.911574 -0.0102599 0)
(0.939893 -0.00994235 0)
(0.967812 -0.00964272 0)
(0.995355 -0.00935992 1.09157e-18)
(1.02254 -0.0090928 0)
(1.0494 -0.00884014 0)
(1.07593 -0.00860045 0)
(1.10216 -0.00837197 0)
(1.1281 -0.00815242 0)
(1.15375 -0.00793889 0)
(1.17911 -0.00772752 9.82746e-19)
(1.20414 -0.00751315 9.69824e-19)
(1.22881 -0.00728879 0)
(1.25306 -0.00704491 0)
(1.27678 -0.00676797 0)
(1.29979 -0.0064394 -9.24469e-19)
(1.32187 -0.00602944 0)
(1.34261 -0.00549939 1.81382e-18)
(1.36155 -0.00476219 -1.80045e-18)
(1.3773 -0.00372642 -1.79172e-18)
(1.38988 -0.00195492 1.79001e-18)
(1.3903 0.00132695 -1.79539e-18)
(1.38761 0.00807511 1.80871e-18)
(1.30834 0.0198891 0)
(0.0963158 -0.268964 0)
(0.334075 -0.681269 0)
(0.514187 -0.706535 1.57349e-19)
(0.611832 -0.571366 0)
(0.662833 -0.408918 -1.11131e-19)
(0.683277 -0.253845 -1.08097e-19)
(0.677255 -0.112192 -5.62506e-20)
(0.646886 0.0155687 -5.61956e-20)
(0.603912 0.125391 0)
(0.544721 0.211917 -6.08033e-20)
(0.467914 0.267401 0)
(0.373434 0.28321 0)
(0.257638 0.256448 1.70477e-19)
(0.110318 0.211441 9.82753e-20)
(-0.0746965 0.206266 -1.8446e-19)
(-0.300949 0.271795 -1.43803e-19)
(-0.57891 0.38336 -5.71917e-20)
(-0.904827 0.513194 0)
(-1.25841 0.64256 0)
(-1.61651 0.756397 0)
(-1.97213 0.841966 -2.85752e-20)
(-2.31773 0.895545 0)
(-2.64763 0.91904 6.90622e-20)
(-2.95436 0.91547 0)
(-3.23387 0.889041 0)
(-3.48453 0.84488 1.98189e-20)
(-3.70491 0.788317 0)
(-3.89587 0.724884 -1.97612e-20)
(-4.05927 0.658811 -4.17966e-20)
(-4.19867 0.592809 2.0168e-20)
(-4.31697 0.528982 0)
(-4.41707 0.469113 0)
(-4.50169 0.414032 0)
(-4.57323 0.364091 -4.42582e-20)
(-4.63374 0.319251 -4.47646e-20)
(-4.68493 0.279239 -2.21895e-20)
(-4.72816 0.243646 0)
(-4.76455 0.21199 4.53068e-20)
(-4.79499 0.183771 0)
(-4.8202 0.158511 -4.58787e-20)
(-4.84076 0.135766 0)
(-4.85717 0.115145 0)
(-4.86985 0.0963048 4.60893e-20)
(-4.87918 0.0789559 0)
(-4.88548 0.0628576 1.38169e-19)
(-4.88908 0.0478155 -4.561e-20)
(-4.89025 0.0336942 0)
(-4.88924 0.0204631 -4.49409e-20)
(-4.88631 0.00823846 -4.44843e-20)
(-4.88172 -0.00281769 0)
(-4.87458 -0.012761 0)
(-4.86375 -0.0218872 0)
(-4.84925 -0.0304397 0)
(-4.83096 -0.038533 0)
(-4.80892 -0.0462367 4.02187e-20)
(-4.78318 -0.0535878 7.91679e-20)
(-4.75383 -0.0606074 -3.84415e-20)
(-4.72094 -0.0673069 0)
(-4.6846 -0.0736919 7.34898e-20)
(-4.64492 -0.0797652 -3.59686e-20)
(-4.60198 -0.0855273 0)
(-4.55589 -0.0909782 -3.32687e-20)
(-4.50675 -0.0961176 0)
(-4.45468 -0.100947 0)
(-4.39978 -0.105468 -5.98959e-20)
(-4.34217 -0.109681 2.83874e-20)
(-4.28197 -0.113586 -5.47044e-20)
(-4.21931 -0.117185 5.19857e-20)
(-4.1543 -0.120484 2.42958e-20)
(-4.08707 -0.123485 0)
(-4.01775 -0.126195 2.13629e-20)
(-3.94647 -0.128618 0)
(-3.87335 -0.130762 0)
(-3.79853 -0.132635 0)
(-3.72213 -0.134243 1.56366e-20)
(-3.64428 -0.135595 0)
(-3.5651 -0.136702 2.37705e-20)
(-3.48471 -0.137572 -2.998e-20)
(-3.40325 -0.138216 -7.94361e-21)
(-3.32082 -0.138645 0)
(-3.23754 -0.13887 -4.14295e-21)
(-3.15353 -0.138903 0)
(-3.06889 -0.138755 -2.95036e-22)
(-2.98374 -0.138439 0)
(-2.89816 -0.137966 8.11089e-21)
(-2.81227 -0.137348 -2.35635e-20)
(-2.72614 -0.136598 -1.69642e-20)
(-2.63989 -0.135725 0)
(-2.55359 -0.134738 0)
(-2.46733 -0.133642 0)
(-2.38122 -0.132436 3.61824e-20)
(-2.29536 -0.131112 0)
(-2.2099 -0.129643 -4.66539e-20)
(-2.12498 -0.127971 0)
(-2.04073 -0.126046 1.71875e-19)
(-1.95724 -0.123891 6.36304e-20)
(-1.87451 -0.121608 6.96619e-20)
(-1.7925 -0.119303 0)
(-1.71117 -0.117034 0)
(-1.63057 -0.1148 0)
(-1.55078 -0.112578 0)
(-1.47185 -0.110353 0)
(-1.39382 -0.108122 2.19489e-19)
(-1.31672 -0.105885 2.34981e-19)
(-1.24057 -0.103646 0)
(-1.16542 -0.101407 -1.3476e-19)
(-1.09128 -0.0991708 -1.43539e-19)
(-1.01817 -0.0969396 0)
(-0.946131 -0.0947153 -3.23033e-19)
(-0.875168 -0.0925023 0)
(-0.805278 -0.090314 1.81321e-19)
(-0.736468 -0.0881564 0)
(-0.66875 -0.0860296 0)
(-0.602129 -0.083936 -4.34444e-19)
(-0.536606 -0.081877 0)
(-0.472184 -0.0798543 2.44828e-19)
(-0.408861 -0.0778708 0)
(-0.346636 -0.0759322 0)
(-0.285505 -0.0740474 2.89764e-19)
(-0.225456 -0.0722144 3.09068e-19)
(-0.166484 -0.0704278 0)
(-0.108583 -0.0686906 -3.4636e-19)
(-0.0517586 -0.0670029 0)
(0.00399298 -0.0653562 3.82634e-19)
(0.0587128 -0.0637436 7.66195e-19)
(0.112434 -0.0621763 0)
(0.165159 -0.0606693 0)
(0.216886 -0.0592269 0)
(0.267631 -0.0578468 0)
(0.317426 -0.0565314 7.0924e-19)
(0.366341 -0.0552695 2.09645e-18)
(0.414464 -0.053891 0)
(0.461706 -0.0522457 0)
(0.507928 -0.0504718 0)
(0.553198 -0.0487253 -6.65624e-19)
(0.597598 -0.047058 0)
(0.641156 -0.0454782 0)
(0.683891 -0.0439834 1.28792e-18)
(0.725822 -0.0425671 6.3694e-19)
(0.766971 -0.0412219 6.32415e-19)
(0.80736 -0.0399411 0)
(0.847009 -0.0387194 0)
(0.885941 -0.0375522 6.15869e-19)
(0.924177 -0.0364359 -6.09632e-19)
(0.961739 -0.0353676 0)
(0.998646 -0.0343448 0)
(1.03492 -0.0333652 -5.96772e-19)
(1.07059 -0.0324271 1.77634e-18)
(1.10566 -0.0315289 0)
(1.14017 -0.0306691 0)
(1.17413 -0.0298463 5.80303e-19)
(1.20756 -0.0290595 0)
(1.2405 -0.0283076 1.1449e-18)
(1.27295 -0.0275895 -5.68517e-19)
(1.30495 -0.0269043 0)
(1.3365 -0.026251 5.62404e-19)
(1.36765 -0.0256286 1.11752e-18)
(1.3984 -0.025036 0)
(1.42878 -0.024472 0)
(1.45881 -0.023935 -5.49569e-19)
(1.48851 -0.0234234 0)
(1.51789 -0.0229349 1.08643e-18)
(1.54698 -0.0224665 0)
(1.57578 -0.0220145 0)
(1.60431 -0.0215739 0)
(1.63256 -0.021138 0)
(1.66053 -0.0206979 -5.2899e-19)
(1.6882 -0.0202416 -5.26222e-19)
(1.71553 -0.0197525 0)
(1.74246 -0.0192081 0)
(1.7689 -0.0185768 0)
(1.79472 -0.0178129 5.16126e-19)
(1.8197 -0.0168493 0)
(1.84352 -0.015583 -1.02483e-18)
(1.86576 -0.013837 1.02257e-18)
(1.88549 -0.0113267 1.02219e-18)
(1.90229 -0.00731147 1.02328e-18)
(1.9125 -0.000520451 1.02844e-18)
(1.9248 0.012424 1.02034e-18)
(1.90524 0.0361865 0)
(0.116445 -0.859711 0)
(0.269028 -1.05686 0)
(0.316127 -0.826042 -1.2632e-19)
(0.315438 -0.584268 -1.08161e-19)
(0.29801 -0.373801 1.00481e-19)
(0.266805 -0.188672 1.00661e-19)
(0.220627 -0.0232096 -6.44998e-22)
(0.158736 0.124536 0)
(0.0810035 0.255081 0)
(-0.0138042 0.366003 0)
(-0.129244 0.451717 0)
(-0.273379 0.512779 0)
(-0.459125 0.566597 -2.6733e-19)
(-0.696972 0.641319 0)
(-0.983186 0.753864 6.62758e-20)
(-1.30191 0.895826 5.71748e-20)
(-1.6352 1.04394 0)
(-1.96614 1.17796 0)
(-2.27949 1.28535 0)
(-2.56339 1.35907 0)
(-2.81251 1.39483 3.49027e-20)
(-3.02646 1.3924 0)
(-3.20662 1.35645 -3.23454e-20)
(-3.35582 1.29421 0)
(-3.47854 1.21301 0)
(-3.57937 1.11925 0)
(-3.66312 1.019 -6.85855e-20)
(-3.73417 0.917612 0)
(-3.79604 0.819203 3.31163e-20)
(-3.8515 0.726576 -7.06992e-20)
(-3.90248 0.641245 0)
(-3.95027 0.563946 0)
(-3.99563 0.49473 0)
(-4.03893 0.433213 3.65636e-20)
(-4.08027 0.378746 3.7151e-20)
(-4.1196 0.330555 0)
(-4.1568 0.287847 0)
(-4.19169 0.249858 -7.77993e-20)
(-4.22408 0.215896 -7.81923e-20)
(-4.25383 0.185349 7.84254e-20)
(-4.28077 0.1577 0)
(-4.30481 0.132519 0)
(-4.32584 0.109457 0)
(-4.3438 0.0882306 0)
(-4.35861 0.0686061 -7.70095e-20)
(-4.37024 0.0503836 -7.69115e-20)
(-4.37861 0.0333787 7.62687e-20)
(-4.38358 0.0173907 0)
(-4.38498 0.00216316 0)
(-4.38265 -0.0125903 0)
(-4.37653 -0.0270029 0)
(-4.36668 -0.0409882 -7.11056e-20)
(-4.35317 -0.054454 0)
(-4.33601 -0.0673893 0)
(-4.31526 -0.0797982 -6.69942e-20)
(-4.29096 -0.0916895 -6.49686e-20)
(-4.26319 -0.10307 0)
(-4.232 -0.113946 1.24569e-19)
(-4.19749 -0.124317 -6.00309e-20)
(-4.15973 -0.134184 5.82544e-20)
(-4.11881 -0.143545 0)
(-4.07483 -0.152398 0)
(-4.02789 -0.160741 0)
(-3.97809 -0.168573 0)
(-3.92554 -0.175898 4.84232e-20)
(-3.87035 -0.182716 9.37775e-20)
(-3.81264 -0.189028 4.4058e-20)
(-3.75252 -0.194836 -4.17859e-20)
(-3.69011 -0.200146 0)
(-3.62553 -0.204965 7.54268e-20)
(-3.55891 -0.209302 7.05439e-20)
(-3.49038 -0.213164 6.55445e-20)
(-3.42005 -0.216563 -6.04295e-20)
(-3.34805 -0.219509 0)
(-3.2745 -0.222016 -7.41032e-20)
(-3.19954 -0.224097 0)
(-3.12328 -0.225766 2.00969e-20)
(-3.04584 -0.227039 1.58738e-20)
(-2.96735 -0.227932 0)
(-2.88792 -0.228461 0)
(-2.80767 -0.228644 1.53652e-20)
(-2.72671 -0.228499 0)
(-2.64514 -0.228044 2.93097e-21)
(-2.56309 -0.227297 0)
(-2.48064 -0.226278 9.99178e-21)
(-2.39791 -0.225005 3.47112e-20)
(-2.31499 -0.2235 0)
(-2.23197 -0.221779 0)
(-2.14896 -0.219863 0)
(-2.06606 -0.217769 4.4576e-20)
(-1.98334 -0.215512 0)
(-1.90092 -0.213102 5.93973e-20)
(-1.81889 -0.210543 0)
(-1.73734 -0.207818 0)
(-1.65634 -0.204902 -1.6704e-19)
(-1.57593 -0.201779 0)
(-1.49612 -0.198463 -9.9306e-20)
(-1.41692 -0.194997 0)
(-1.33836 -0.191439 -1.16585e-19)
(-1.2605 -0.187827 0)
(-1.18339 -0.184179 0)
(-1.10709 -0.180503 0)
(-1.03163 -0.176804 -4.62667e-19)
(-0.957063 -0.17309 -1.65035e-19)
(-0.883408 -0.169368 0)
(-0.810693 -0.165643 0)
(-0.738945 -0.161923 0)
(-0.668186 -0.158211 0)
(-0.598432 -0.154513 2.18828e-19)
(-0.529694 -0.150834 -4.58445e-19)
(-0.46198 -0.147183 -2.42661e-19)
(-0.395301 -0.143569 5.07635e-19)
(-0.329667 -0.139998 5.33431e-19)
(-0.265083 -0.136475 2.81365e-19)
(-0.201552 -0.133003 0)
(-0.139075 -0.129582 6.16194e-19)
(-0.0776538 -0.126215 0)
(-0.0172889 -0.122905 -6.73531e-19)
(0.0420256 -0.119653 -3.45153e-19)
(0.100303 -0.116462 0)
(0.15755 -0.113333 6.93112e-19)
(0.213772 -0.110269 3.48825e-19)
(0.268979 -0.107272 0)
(0.323182 -0.104331 3.48719e-19)
(0.37639 -0.101435 -1.0528e-18)
(0.42861 -0.0985928 0)
(0.479857 -0.095816 0)
(0.530147 -0.0931066 0)
(0.579499 -0.0904655 0)
(0.627934 -0.0878973 -7.07736e-19)
(0.675487 -0.0854089 -7.10228e-19)
(0.72218 -0.0830153 0)
(0.767981 -0.0807039 0)
(0.812874 -0.0784356 0)
(0.856911 -0.0762091 0)
(0.900136 -0.0740404 0)
(0.942564 -0.0719383 0)
(0.98421 -0.0699052 -7.13999e-19)
(1.02509 -0.0679411 -1.08877e-21)
(1.06522 -0.0660442 0)
(1.10462 -0.0642126 0)
(1.14331 -0.0624443 -7.13831e-19)
(1.18131 -0.0607375 0)
(1.21864 -0.0590905 7.14879e-19)
(1.25533 -0.0575019 7.14017e-19)
(1.29138 -0.0559704 0)
(1.32683 -0.0544947 0)
(1.36169 -0.0530738 -7.1455e-19)
(1.39598 -0.0517065 -1.4273e-18)
(1.42973 -0.0503919 0)
(1.46295 -0.0491289 0)
(1.49567 -0.0479167 0)
(1.52791 -0.0467543 -7.13244e-19)
(1.55968 -0.0456408 7.12863e-19)
(1.59102 -0.0445752 0)
(1.62194 -0.0435564 1.42285e-18)
(1.65246 -0.0425834 7.10407e-19)
(1.68261 -0.0416546 -1.4208e-18)
(1.7124 -0.0407686 0)
(1.74186 -0.0399233 0)
(1.77101 -0.039116 -1.41699e-18)
(1.79985 -0.0383436 -7.08207e-19)
(1.82842 -0.0376016 0)
(1.85672 -0.0368844 0)
(1.88476 -0.0361844 0)
(1.91254 -0.0354915 0)
(1.94007 -0.034792 -1.40685e-18)
(1.96733 -0.0340678 0)
(1.99429 -0.0332938 0)
(2.0209 -0.0324359 0)
(2.04708 -0.031446 0)
(2.07272 -0.0302559 0)
(2.09765 -0.0287648 0)
(2.12161 -0.0268211 -1.39751e-18)
(2.14426 -0.0241733 0)
(2.16493 -0.0204163 0)
(2.18339 -0.0147575 -2.81623e-18)
(2.19683 -0.00587953 1.41814e-18)
(2.21152 0.00887528 -1.41625e-18)
(2.20643 0.0362548 1.4117e-18)
(0.0333275 -1.16609 0)
(0.0696957 -1.0298 3.59906e-19)
(0.0339463 -0.746839 0)
(-0.0105072 -0.50636 1.10871e-19)
(-0.0658383 -0.283639 0)
(-0.133699 -0.07405 0)
(-0.216939 0.122805 -8.28035e-20)
(-0.317933 0.306188 0)
(-0.438805 0.475658 0)
(-0.582161 0.631772 0)
(-0.751855 0.777064 0)
(-0.9531 0.917636 0)
(-1.18853 1.0616 2.04188e-19)
(-1.45255 1.21237 9.2432e-20)
(-1.73069 1.36369 -8.36841e-20)
(-2.0046 1.50223 0)
(-2.25853 1.61413 0)
(-2.48243 1.69008 0)
(-2.67151 1.72633 0)
(-2.82435 1.72416 0)
(-2.94351 1.68741 6.01598e-20)
(-3.03454 1.62134 5.88432e-20)
(-3.10355 1.53279 -5.79903e-20)
(-3.15685 1.42942 5.76888e-20)
(-3.19985 1.31793 0)
(-3.23688 1.20372 0)
(-3.27141 1.09115 5.58419e-20)
(-3.30579 0.983522 0)
(-3.34131 0.882941 0)
(-3.37847 0.790453 5.86964e-20)
(-3.41728 0.7063 6.15145e-20)
(-3.45739 0.630256 6.22263e-20)
(-3.49828 0.561789 0)
(-3.53932 0.500204 0)
(-3.5799 0.444741 -6.40366e-20)
(-3.61947 0.394643 0)
(-3.65752 0.349198 0)
(-3.69364 0.307765 6.43097e-20)
(-3.72749 0.269778 -6.60299e-20)
(-3.75879 0.234748 6.60405e-20)
(-3.78732 0.202261 0)
(-3.81289 0.171966 0)
(-3.83534 0.143567 1.30014e-19)
(-3.85456 0.116814 0)
(-3.87042 0.0914936 1.28626e-19)
(-3.88285 0.0674305 1.91037e-19)
(-3.89175 0.0444806 -1.89395e-19)
(-3.89707 0.0225236 1.25329e-19)
(-3.89875 0.0014423 0)
(-3.89681 -0.0188791 0)
(-3.89127 -0.0385189 1.19874e-19)
(-3.8822 -0.0574959 5.8406e-20)
(-3.86962 -0.0758062 0)
(-3.85356 -0.0934485 0)
(-3.83407 -0.110422 5.49e-20)
(-3.8112 -0.126727 1.08251e-19)
(-3.785 -0.142361 0)
(-3.75553 -0.157322 -1.01798e-19)
(-3.72286 -0.171605 9.99688e-20)
(-3.68707 -0.185207 -9.6997e-20)
(-3.64824 -0.198122 0)
(-3.60646 -0.210345 0)
(-3.56183 -0.22187 0)
(-3.51443 -0.232695 0)
(-3.46437 -0.242826 0)
(-3.41176 -0.25226 -7.59248e-20)
(-3.35671 -0.260998 0)
(-3.29933 -0.269045 0)
(-3.23974 -0.276407 0)
(-3.17805 -0.283094 -1.22627e-19)
(-3.11437 -0.289116 -5.67059e-20)
(-3.04884 -0.294484 -5.26048e-20)
(-2.98157 -0.299214 9.80448e-20)
(-2.91267 -0.30332 -4.5365e-20)
(-2.84228 -0.30682 3.98132e-20)
(-2.77051 -0.309731 0)
(-2.69748 -0.312075 -3.08907e-20)
(-2.62331 -0.313871 0)
(-2.54812 -0.315141 0)
(-2.47201 -0.315908 0)
(-2.39511 -0.316194 -2.54959e-20)
(-2.31751 -0.316025 8.48813e-21)
(-2.23934 -0.315423 4.77073e-21)
(-2.16068 -0.314414 -2.97571e-21)