/*--------------------------------*- C++ -*----------------------------------*\
  =========                 |
  \\      /  F ield         | OpenFOAM: The Open Source CFD Toolbox
   \\    /   O peration     | Website:  https://openfoam.org
    \\  /    A nd           | Version:  8
     \\/     M anipulation  |
\*---------------------------------------------------------------------------*/
FoamFile
{
    version     2.0;
    format      ascii;
    class       volScalarField;
    location    "1200";
    object      nut;
}
// * * * * * * * * * * * * * * * * * * * * * * * * * * * * * * * * * * * * * //

dimensions      [0 2 -1 0 0 0 0];

internalField   nonuniform List<scalar> 
12225
(
4.57201e-06
2.30089e-05
2.08936e-05
2.18533e-05
1.96549e-05
2.13991e-05
1.4851e-05
2.84863e-05
3.21894e-05
2.48449e-05
2.31853e-05
1.61988e-05
2.54088e-05
2.32365e-05
1.87058e-05
1.64486e-05
2.8969e-05
2.40568e-05
4.44568e-05
5.99616e-05
3.63876e-05
3.46851e-05
2.57957e-05
2.41898e-05
2.36605e-05
2.68737e-05
3.14465e-05
3.02714e-05
3.35187e-05
3.58197e-05
4.18164e-05
4.4817e-05
4.53785e-05
4.71487e-05
5.03302e-05
4.98617e-05
0.00114722
0.000153277
0.000109825
4.30671e-05
3.46064e-05
2.60805e-05
2.602e-05
2.98363e-05
3.11591e-05
3.38629e-05
3.56097e-05
3.72296e-05
3.97962e-05
4.31339e-05
4.3839e-05
4.52292e-05
4.6181e-05
4.67002e-05
0.000642148
0.000363336
0.00028276
0.000101685
8.60778e-05
6.99358e-05
6.5469e-05
6.85696e-05
6.75979e-05
6.91118e-05
7.53925e-05
8.75291e-05
9.35905e-05
0.000103794
0.000104835
0.000107513
0.000107944
0.000107531
0.000804108
0.000624623
0.000522159
0.000253954
0.000214252
0.000197243
0.000188974
0.000171261
0.000169859
0.00019627
0.000197892
0.000202003
0.000204782
0.000224529
0.000246855
0.000244769
0.000244557
0.000241654
0.000824954
0.000828795
0.000575955
0.000462453
0.000403939
0.000357166
0.000335306
0.000331731
0.000348654
0.000355019
0.000352545
0.00037305
0.000395903
0.000415811
0.000412892
0.000412824
0.000413165
0.000407698
0.000776758
0.000794709
0.000704257
0.000645233
0.000595526
0.000552368
0.000534247
0.000519676
0.000529054
0.000520982
0.000516076
0.000518362
0.000541602
0.000543847
0.000546463
0.000545144
0.000543131
0.000549403
0.000757657
0.000762005
0.000742748
0.000710951
0.000682754
0.000661947
0.000648522
0.000631284
0.000638023
0.000629119
0.000624515
0.000634875
0.000650866
0.000644202
0.000640582
0.000644094
0.000637814
0.000635381
0.000749813
0.000753361
0.000749688
0.000740856
0.000728811
0.000715789
0.000708692
0.000700565
0.000697409
0.000697277
0.000694709
0.000695031
0.000697815
0.000697966
0.000696489
0.000697157
0.000697712
0.000695532
0.000749172
0.000749229
0.000748223
0.000745756
0.000742352
0.000738533
0.000735977
0.000733782
0.000732269
0.000731463
0.000730752
0.000730061
0.00072977
0.000729162
0.000728469
0.000727459
0.000726966
0.000725591
0.000749463
0.000748749
0.00074795
0.000746895
0.00074572
0.000744424
0.00074333
0.00074238
0.000741643
0.00074096
0.000740427
0.000739818
0.000739342
0.000738742
0.000738246
0.000737582
0.000737067
0.000736334
0.000749543
0.000748699
0.000747907
0.000747089
0.000746312
0.000745524
0.000744807
0.000744111
0.0007435
0.000742894
0.000742359
0.000741813
0.000741326
0.000740821
0.000740365
0.000739885
0.000739446
0.000738976
0.000749557
0.000748695
0.000747887
0.000747104
0.000746368
0.000745657
0.000744989
0.000744346
0.000743742
0.00074316
0.000742613
0.000742083
0.000741585
0.000741102
0.000740646
0.000740203
0.000739782
0.000739374
0.000749556
0.000748693
0.000747877
0.000747098
0.000746361
0.000745656
0.000744989
0.00074435
0.000743743
0.000743162
0.000742609
0.00074208
0.000741575
0.000741093
0.000740632
0.000740191
0.000739769
0.000739366
0.000749555
0.000748692
0.000747872
0.000747092
0.000746352
0.000745647
0.000744976
0.000744335
0.000743725
0.000743142
0.000742587
0.000742055
0.000741548
0.000741063
0.0007406
0.000740157
0.000739733
0.000739328
0.000749556
0.000748693
0.000747875
0.000747095
0.000746355
0.00074565
0.00074498
0.000744339
0.000743729
0.000743146
0.000742591
0.000742059
0.000741553
0.000741067
0.000740605
0.00074016
0.000739738
0.00073933
0.000749568
0.000748728
0.000747928
0.000747166
0.00074644
0.000745747
0.000745087
0.000744457
0.000743855
0.00074328
0.00074273
0.000742205
0.000741703
0.000741222
0.000740763
0.000740323
0.000739902
0.000739499
0.000749567
0.000748728
0.000747927
0.000747165
0.000746437
0.000745745
0.000745083
0.000744453
0.00074385
0.000743274
0.000742724
0.000742198
0.000741695
0.000741214
0.000740753
0.000740313
0.000739891
0.000739488
0.000749555
0.000748694
0.000747874
0.000747094
0.000746352
0.000745644
0.000744971
0.000744329
0.000743717
0.000743132
0.000742573
0.00074204
0.000741531
0.000741044
0.000740578
0.000740133
0.000739706
0.0007393
0.000749555
0.000748692
0.000747871
0.00074709
0.000746346
0.000745638
0.000744963
0.00074432
0.000743706
0.00074312
0.00074256
0.000742026
0.000741514
0.000741026
0.000740559
0.000740113
0.000739685
0.000739276
0.000749554
0.000748694
0.000747872
0.000747096
0.00074635
0.000745645
0.000744968
0.000744327
0.000743712
0.000743129
0.000742568
0.000742036
0.000741523
0.000741036
0.000740565
0.000740118
0.000739686
0.000739275
0.000749548
0.000748699
0.000747879
0.000747112
0.000746343
0.000745638
0.000744941
0.000744298
0.00074367
0.000743089
0.000742514
0.000741984
0.000741443
0.000740949
0.000740435
0.000739965
0.000739477
0.000739032
0.000749499
0.000748728
0.000747944
0.00074715
0.000746144
0.000745362
0.000744435
0.00074366
0.000742926
0.000742235
0.000741596
0.000740966
0.000740252
0.000739627
0.000738818
0.000738134
0.000737242
0.000736579
0.000749217
0.000749023
0.000748284
0.000746759
0.000744057
0.000742294
0.000739284
0.000737245
0.000735439
0.000733886
0.000733073
0.000731424
0.000730334
0.000728939
0.000727071
0.000725338
0.000723124
0.00072092
0.000748569
0.000750685
0.000747998
0.000741445
0.000729428
0.000719487
0.000705535
0.000697385
0.000686782
0.000686094
0.000676891
0.00067203
0.000676187
0.000668552
0.000669593
0.000668782
0.000663861
0.000659264
0.000751344
0.000747136
0.000733411
0.000707336
0.000661359
0.000630369
0.000597443
0.000581636
0.00055803
0.000547097
0.000535407
0.000541087
0.000526134
0.000528775
0.000527677
0.000523344
0.000513844
0.000506057
0.000753243
0.000712907
0.000641407
0.000564219
0.000487242
0.000433613
0.00039143
0.000368973
0.000344508
0.000321823
0.000310241
0.000308155
0.000307533
0.000307781
0.000301564
0.000295835
0.000286804
0.00028014
0.000763093
0.00049811
0.00034487
0.000267901
0.000215147
0.00018122
0.000160831
0.000147504
0.000137305
0.000131843
0.000125894
0.000122949
0.000119393
0.000118408
0.000116928
0.000114499
0.000112103
0.000110323
0.000302009
0.000118909
8.26559e-05
6.93732e-05
6.28966e-05
5.7697e-05
5.5184e-05
5.38573e-05
5.41017e-05
5.45306e-05
5.5847e-05
5.70195e-05
5.85549e-05
6.00383e-05
6.17722e-05
6.33926e-05
6.38415e-05
6.39155e-05
1.01099e-05
1.52078e-05
1.89905e-05
2.12431e-05
2.25204e-05
2.2938e-05
2.30836e-05
2.30158e-05
2.27716e-05
2.24738e-05
2.21619e-05
2.18559e-05
2.15674e-05
2.12999e-05
2.10557e-05
2.0835e-05
2.06367e-05
2.04629e-05
1.65973e-12
1.87636e-10
9.53683e-10
3.74074e-09
1.24403e-08
3.74825e-08
9.78136e-08
1.93913e-07
3.1333e-07
4.38679e-07
5.50722e-07
6.37031e-07
6.94386e-07
7.14676e-07
7.04703e-07
6.74674e-07
6.19741e-07
5.27785e-07
4.49368e-07
3.81637e-07
3.17395e-07
2.54928e-07
1.94809e-07
1.39075e-07
8.99147e-08
5.22216e-08
2.75531e-08
1.38454e-08
7.06596e-09
3.87366e-09
2.37929e-09
1.83423e-09
2.26556e-09
4.8135e-09
1.09157e-08
6.32336e-08
1.4386e-07
3.07324e-07
4.50748e-07
4.75577e-07
4.35641e-07
3.44738e-07
2.8735e-07
2.84178e-07
3.1284e-07
4.23449e-07
5.69314e-07
1.14703e-06
2.55603e-06
7.61008e-06
1.96033e-05
3.42173e-05
4.64083e-05
5.5103e-05
5.46339e-05
4.92613e-05
4.70003e-05
4.18e-05
3.53169e-05
3.1427e-05
3.29584e-05
3.13978e-05
3.14983e-05
3.32631e-05
3.34635e-05
3.42316e-05
3.47671e-05
3.53819e-05
3.59302e-05
3.65121e-05
3.70513e-05
3.76083e-05
3.81414e-05
3.86803e-05
3.92065e-05
3.97335e-05
4.0253e-05
4.07717e-05
4.12854e-05
4.1798e-05
4.23069e-05
4.28149e-05
4.33199e-05
4.38242e-05
4.43259e-05
4.48271e-05
4.53257e-05
4.58239e-05
4.632e-05
4.68152e-05
4.73084e-05
4.77991e-05
4.82871e-05
4.87718e-05
4.92528e-05
4.97302e-05
5.02041e-05
5.06766e-05
5.11503e-05
5.16317e-05
5.21253e-05
5.26156e-05
5.31116e-05
5.36123e-05
5.41187e-05
5.46316e-05
5.51511e-05
5.5678e-05
5.62127e-05
5.67559e-05
5.73083e-05
5.78702e-05
5.84429e-05
5.90263e-05
5.96224e-05
6.02306e-05
6.08534e-05
6.14899e-05
6.21433e-05
6.28123e-05
6.35006e-05
6.42068e-05
6.49351e-05
6.56841e-05
6.64586e-05
6.72578e-05
6.80878e-05
6.89564e-05
6.98305e-05
7.07809e-05
7.17057e-05
7.2727e-05
7.37483e-05
7.48542e-05
7.60154e-05
7.72301e-05
7.81032e-05
7.78566e-05
7.76007e-05
7.73313e-05
7.70515e-05
7.67607e-05
7.64591e-05
7.6148e-05
7.58266e-05
7.54967e-05
7.51577e-05
7.48122e-05
7.44608e-05
7.40989e-05
7.37398e-05
7.33603e-05
7.299e-05
7.25991e-05
7.2215e-05
7.18197e-05
7.14245e-05
7.10252e-05
7.06245e-05
7.02224e-05
6.98189e-05
6.94148e-05
6.901e-05
6.86051e-05
6.82002e-05
6.77961e-05
6.73933e-05
6.69926e-05
6.65945e-05
6.61995e-05
6.58076e-05
6.54184e-05
6.5031e-05
6.46427e-05
6.42497e-05
6.38441e-05
6.34153e-05
6.29342e-05
6.23455e-05
6.07772e-05
7.356e-12
1.19896e-09
1.61247e-08
8.52231e-08
3.74745e-07
1.18998e-06
2.76564e-06
5.05449e-06
7.82987e-06
1.09847e-05
1.41662e-05
1.71037e-05
1.95847e-05
2.14511e-05
2.25157e-05
2.28414e-05
2.24783e-05
2.16211e-05
1.93293e-05
1.61177e-05
1.23705e-05
9.05933e-06
6.36135e-06
4.25955e-06
2.67721e-06
1.64847e-06
1.00857e-06
6.25884e-07
3.9428e-07
2.60895e-07
1.91512e-07
1.71851e-07
1.74735e-07
3.33464e-07
5.52319e-07
3.70662e-06
8.31362e-06
1.6182e-05
2.1809e-05
2.34479e-05
2.19994e-05
1.94936e-05
1.67921e-05
1.59825e-05
1.68678e-05
1.7228e-05
2.03451e-05
2.77346e-05
3.86907e-05
4.92664e-05
6.05237e-05
7.02517e-05
7.96816e-05
8.97821e-05
0.000101041
0.000111243
0.000122531
0.000133169
0.000145034
0.000157299
0.000172863
0.000184329
0.000198557
0.000211141
0.000223219
0.000235046
0.00024646
0.000257236
0.000267752
0.000277846
0.000287702
0.000297246
0.000306585
0.000315695
0.000324635
0.000333399
0.000342019
0.000350498
0.000358853
0.000367087
0.000375211
0.000383227
0.00039114
0.000398954
0.000406671
0.000414294
0.000421824
0.000429264
0.000436615
0.000443877
0.000451052
0.00045813
0.000465105
0.000471959
0.00047867
0.000485207
0.000491517
0.000497532
0.000503148
0.000508237
0.000512743
0.000517325
0.00052169
0.000525975
0.000530114
0.000534134
0.000538018
0.000541768
0.00054538
0.000548851
0.000552177
0.000555358
0.000558388
0.000561268
0.000563995
0.000566566
0.000568981
0.000571238
0.000573336
0.000575275
0.000577053
0.00057867
0.000580126
0.000581419
0.00058255
0.000583516
0.000584318
0.000584951
0.000585428
0.000585775
0.000585919
0.000585965
0.000585732
0.000585444
0.000585101
0.000584728
0.000584456
0.000584293
0.000583942
0.000583462
0.000582855
0.000582125
0.000581272
0.000580301
0.000579213
0.00057801
0.000576693
0.000575265
0.000573723
0.000572222
0.00057039
0.000568747
0.000566709
0.000564812
0.000562669
0.000560522
0.000558268
0.000555951
0.000553568
0.000551124
0.000548624
0.000546071
0.000543467
0.000540812
0.000538109
0.00053536
0.00053257
0.000529746
0.00052689
0.000524006
0.000521093
0.000518145
0.000515156
0.000512088
0.00050889
0.000505486
0.000501742
0.000497355
0.000491581
0.000475546
1.81572e-11
3.07534e-09
5.79196e-08
3.41667e-07
1.20234e-06
2.9601e-06
6.30022e-06
1.09386e-05
1.66554e-05
2.31416e-05
3.0021e-05
3.68495e-05
4.29971e-05
4.81086e-05
5.19513e-05
5.44782e-05
5.58116e-05
5.60836e-05
5.44841e-05
5.15334e-05
4.67977e-05
4.07181e-05
3.34646e-05
2.62236e-05
1.96358e-05
1.39671e-05
9.47688e-06
6.29881e-06
4.00961e-06
2.67973e-06
1.91755e-06
1.57518e-06
1.31629e-06
2.47289e-06
4.91815e-06
1.8812e-05
3.89859e-05
5.66441e-05
6.50708e-05
6.25269e-05
4.96699e-05
4.07913e-05
4.05569e-05
4.70983e-05
5.43211e-05
6.38441e-05
7.68813e-05
8.90333e-05
0.000101764
0.000118733
0.00013712
0.000158386
0.000182522
0.000210288
0.000239987
0.000270158
0.000301002
0.000330547
0.000360585
0.000389353
0.000419974
0.000446459
0.000473167
0.000498458
0.000523159
0.000546208
0.000568372
0.000589707
0.000610383
0.000630425
0.000649973
0.000669041
0.000687722
0.000706034
0.000724032
0.000741731
0.000759164
0.00077634
0.00079328
0.000809989
0.000826478
0.000842752
0.000858816
0.000874672
0.000890322
0.000905767
0.000921004
0.000936033
0.00095085
0.000965448
0.000979817
0.000993941
0.0010078
0.00102136
0.0010346
0.00104747
0.00105994
0.00107196
0.00108349
0.00109456
0.00110531
0.00111589
0.00112617
0.0011362
0.00114595
0.00115543
0.00116461
0.0011735
0.00118208
0.00119036
0.00119833
0.00120597
0.00121328
0.00122027
0.00122692
0.00123323
0.0012392
0.00124483
0.00125011
0.00125505
0.00125964
0.00126388
0.00126777
0.00127131
0.00127451
0.00127736
0.00127986
0.00128202
0.00128385
0.00128535
0.00128652
0.00128737
0.00128783
0.00128804
0.0012881
0.001288
0.00128771
0.00128726
0.0012865
0.00128545
0.00128413
0.00128252
0.00128065
0.00127851
0.0012761
0.00127345
0.00127054
0.00126739
0.00126403
0.00126051
0.00125662
0.00125272
0.00124837
0.001244
0.00123929
0.00123446
0.00122942
0.00122424
0.0012189
0.00121343
0.00120784
0.00120213
0.00119632
0.0011904
0.00118437
0.00117825
0.00117205
0.00116578
0.00115945
0.00115307
0.00114663
0.00114013
0.00113353
0.00112679
0.00111978
0.00111235
0.00110419
0.00109455
0.00108157
0.00105247
7.05218e-11
1.19251e-08
1.88484e-07
8.15571e-07
2.53115e-06
6.98671e-06
1.38259e-05
2.30015e-05
3.38155e-05
4.51634e-05
5.61534e-05
6.6258e-05
7.48496e-05
8.13394e-05
8.61837e-05
8.91977e-05
9.03524e-05
9.00344e-05
8.83668e-05
8.5121e-05
8.04841e-05
7.48452e-05
6.73481e-05
5.84207e-05
4.86348e-05
3.88125e-05
2.98795e-05
2.24196e-05
1.67587e-05
1.22164e-05
9.46297e-06
7.21093e-06
8.14183e-06
1.30248e-05
2.90753e-05
5.33038e-05
7.16467e-05
7.95923e-05
7.64672e-05
7.34302e-05
7.35686e-05
7.74056e-05
8.53102e-05
9.6555e-05
0.00011115
0.000122953
0.000142605
0.000165482
0.000192015
0.000224291
0.000259485
0.000299004
0.000341221
0.000385985
0.000431306
0.000476451
0.000521064
0.000564105
0.000606206
0.000646397
0.000686591
0.000723719
0.000760594
0.000795442
0.000829077
0.000861373
0.000892641
0.000923015
0.0009526
0.000981484
0.00100976
0.00103749
0.00106473
0.00109152
0.0011179
0.00114389
0.00116952
0.0011948
0.00121974
0.00124434
0.00126862
0.00129258
0.00131622
0.00133953
0.00136252
0.00138518
0.00140751
0.0014295
0.00145115
0.00147244
0.00149337
0.00151391
0.00153404
0.00155375
0.00157301
0.0015918
0.0016101
0.00162792
0.00164525
0.00166215
0.00167867
0.00169483
0.00171059
0.00172595
0.0017409
0.00175542
0.00176951
0.00178315
0.00179634
0.00180906
0.0018213
0.00183307
0.00184435
0.00185513
0.00186542
0.0018752
0.00188448
0.00189325
0.0019015
0.00190924
0.00191647
0.00192318
0.00192938
0.00193507
0.00194026
0.00194493
0.00194911
0.00195279
0.00195598
0.00195868
0.00196091
0.00196268
0.00196389
0.0019647
0.00196528
0.00196548
0.0019653
0.00196475
0.00196376
0.00196236
0.00196054
0.00195832
0.00195569
0.00195266
0.00194925
0.00194546
0.0019413
0.00193679
0.00193195
0.0019268
0.00192125
0.00191547
0.00190925
0.00190281
0.00189599
0.00188893
0.00188158
0.001874
0.00186618
0.00185817
0.00184996
0.00184159
0.00183304
0.00182433
0.00181547
0.00180647
0.00179734
0.00178811
0.00177879
0.0017694
0.00175993
0.00175037
0.00174068
0.00173079
0.00172057
0.0017098
0.00169809
0.00168436
0.00166615
0.00163165
2.40294e-10
3.56952e-08
4.18722e-07
1.99195e-06
6.8603e-06
1.64415e-05
3.04072e-05
4.69748e-05
6.42203e-05
8.04795e-05
9.4494e-05
0.000105246
0.000113241
0.00011876
0.000121845
0.000123076
0.000122682
0.000120859
0.000117818
0.000113565
0.000108157
0.000102001
9.45642e-05
8.57393e-05
7.56065e-05
6.44529e-05
5.31923e-05
4.30347e-05
3.47182e-05
2.78396e-05
2.24107e-05
2.15897e-05
2.78309e-05
4.70281e-05
7.12721e-05
8.62686e-05
9.33956e-05
9.64968e-05
9.9189e-05
0.000104356
0.000113442
0.000127294
0.000139951
0.000153154
0.000175047
0.000203931
0.00023627
0.000275056
0.00031832
0.000366248
0.000416756
0.000470167
0.000524816
0.000580203
0.000635115
0.000689166
0.000742071
0.00079344
0.000843398
0.000891399
0.000938427
0.000983808
0.00102765
0.00106998
0.00111102
0.00115088
0.00118971
0.00122761
0.0012647
0.00130105
0.00133674
0.00137182
0.00140634
0.00144035
0.00147386
0.0015069
0.00153948
0.00157162
0.00160331
0.00163457
0.00166539
0.00169578
0.00172572
0.00175523
0.0017843
0.00181292
0.00184108
0.00186878
0.00189602
0.00192278
0.00194906
0.00197483
0.0020001
0.00202484
0.00204905
0.00207273
0.00209586
0.00211847
0.00214056
0.00216216
0.00218327
0.00220389
0.00222399
0.00224358
0.00226263
0.00228114
0.00229909
0.00231647
0.00233327
0.00234948
0.00236509
0.00238009
0.00239448
0.00240825
0.0024214
0.00243391
0.00244579
0.00245704
0.00246765
0.00247762
0.00248696
0.00249566
0.00250373
0.00251117
0.00251798
0.00252418
0.00252975
0.00253472
0.00253908
0.00254285
0.00254602
0.00254865
0.00255059
0.00255202
0.00255311
0.00255367
0.00255371
0.00255326
0.00255227
0.00255078
0.00254877
0.00254626
0.00254325
0.00253975
0.00253577
0.00253133
0.00252643
0.00252109
0.00251533
0.00250916
0.00250255
0.00249555
0.00248811
0.00248031
0.00247209
0.00246353
0.00245462
0.0024454
0.00243589
0.00242612
0.0024161
0.00240584
0.00239537
0.00238469
0.0023738
0.00236273
0.0023515
0.00234012
0.00232862
0.002317
0.00230527
0.00229342
0.00228143
0.00226921
0.00225664
0.00224351
0.0022294
0.00221325
0.00219221
0.00215746
7.67042e-10
8.76909e-08
1.05678e-06
5.3577e-06
1.73809e-05
3.65489e-05
5.95646e-05
8.28907e-05
0.000103037
0.000118865
0.000130701
0.000139455
0.000144892
0.000147841
0.00014881
0.000148191
0.000146243
0.000143153
0.000139061
0.000133926
0.000127907
0.000121236
0.000113445
0.000104554
9.30969e-05
7.74854e-05
6.23847e-05
4.83196e-05
3.67453e-05
3.2315e-05
3.43731e-05
4.78255e-05
7.06139e-05
9.19988e-05
0.000106568
0.000115326
0.000121016
0.000127446
0.000138057
0.000154699
0.000165179
0.000179043
0.000202682
0.000231917
0.000267677
0.000310267
0.000357611
0.000410325
0.000466107
0.000524743
0.000584928
0.000646366
0.000708014
0.000769407
0.000829937
0.000889385
0.000947294
0.00100379
0.00105921
0.00111299
0.00116533
0.00121621
0.00126565
0.00131377
0.00136069
0.0014065
0.00145132
0.00149524
0.00153833
0.00158066
0.0016223
0.00166329
0.00170367
0.00174346
0.00178268
0.00182136
0.00185948
0.00189707
0.00193411
0.00197062
0.00200658
0.00204199
0.00207686
0.00211117
0.00214493
0.00217813
0.00221076
0.00224283
0.00227432
0.00230524
0.00233557
0.00236531
0.00239446
0.00242301
0.00245095
0.00247829
0.00250503
0.00253118
0.00255675
0.00258174
0.00260614
0.00262995
0.00265315
0.00267574
0.0026977
0.00271902
0.00273969
0.00275971
0.00277905
0.0027977
0.00281567
0.00283295
0.00284952
0.00286539
0.00288054
0.00289499
0.00290872
0.00292173
0.00293402
0.0029456
0.00295647
0.00296662
0.00297606
0.0029848
0.00299284
0.00300018
0.00300684
0.00301282
0.00301815
0.00302277
0.00302676
0.0030301
0.00303268
0.00303473
0.0030363
0.00303726
0.00303763
0.00303742
0.00303663
0.00303526
0.00303332
0.00303082
0.00302776
0.00302415
0.00302001
0.00301534
0.00301017
0.0030045
0.00299835
0.00299172
0.00298461
0.00297704
0.00296899
0.00296051
0.00295157
0.00294222
0.00293249
0.00292238
0.00291194
0.00290118
0.00289012
0.00287879
0.00286719
0.00285533
0.00284323
0.00283091
0.00281837
0.00280566
0.00279279
0.00277978
0.00276664
0.00275336
0.00273992
0.00272627
0.00271229
0.00269779
0.0026824
0.00266519
0.00264353
0.00261071
2.46372e-09
2.24643e-07
2.79533e-06
1.45827e-05
3.78843e-05
6.71156e-05
9.44321e-05
0.000116721
0.00013374
0.000146623
0.000155791
0.000161452
0.000164441
0.00016544
0.000164899
0.000163113
0.000160272
0.000156478
0.000151689
0.000145827
0.000139148
0.000131395
0.000122325
0.000105714
9.03257e-05
7.67883e-05
6.49123e-05
5.68704e-05
5.68996e-05
6.59948e-05
7.93904e-05
0.000104698
0.000121879
0.000134319
0.00014338
0.000151485
0.0001626
0.000179634
0.000188103
0.000201601
0.000224405
0.000252779
0.000288819
0.000331215
0.000380219
0.000434651
0.00049283
0.00055422
0.000617441
0.000682133
0.000747523
0.000813204
0.000878585
0.000943341
0.00100688
0.00106924
0.00113087
0.00119102
0.00124987
0.00130735
0.00136347
0.00141829
0.00147184
0.0015242
0.00157545
0.00162569
0.00167497
0.00172338
0.00177097
0.00181781
0.00186394
0.00190938
0.00195418
0.00199833
0.00204186
0.00208476
0.00212704
0.00216869
0.00220972
0.0022501
0.00228985
0.00232894
0.00236739
0.00240519
0.00244233
0.00247882
0.00251465
0.00254982
0.00258433
0.00261818
0.00265137
0.0026839
0.00271576
0.00274695
0.00277748
0.00280735
0.00283654
0.00286505
0.00289289
0.00292007
0.00294659
0.00297244
0.00299761
0.00302211
0.00304591
0.00306901
0.0030914
0.00311308
0.00313404
0.00315429
0.00317381
0.00319258
0.00321061
0.00322788
0.00324439
0.00326015
0.00327514
0.00328937
0.00330283
0.00331554
0.00332749
0.00333868
0.00334911
0.0033588
0.00336775
0.00337596
0.00338344
0.00339023
0.00339631
0.00340161
0.00340625
0.00341019
0.00341332
0.00341593
0.00341795
0.00341931
0.00342003
0.00342013
0.00341961
0.00341848
0.00341674
0.00341442
0.00341152
0.0034081
0.00340412
0.00339959
0.00339452
0.00338892
0.00338281
0.00337618
0.00336905
0.00336142
0.00335328
0.00334467
0.00333558
0.00332604
0.00331607
0.00330571
0.00329496
0.00328387
0.00327244
0.00326069
0.00324863
0.00323628
0.00322365
0.00321076
0.00319762
0.00318427
0.00317073
0.00315702
0.00314315
0.00312913
0.00311495
0.00310056
0.00308589
0.00307079
0.00305495
0.00303765
0.00301684
0.00298704
7.41502e-09
5.94238e-07
7.52307e-06
3.10419e-05
6.52465e-05
9.90423e-05
0.000126973
0.000147881
0.000162402
0.000171276
0.000175689
0.000177434
0.000177498
0.000176239
0.00017396
0.000170807
0.000166736
0.000161655
0.000155665
0.000148943
0.000141318
0.00013239
0.000114702
9.80942e-05
8.4271e-05
7.51197e-05
7.29444e-05
7.72987e-05
8.80626e-05
0.000109296
0.000134511
0.000157172
0.000170825
0.000180493
0.000191854
0.00020137
0.000208593
0.000221473
0.000241763
0.000268127
0.000302256
0.000342747
0.000390229
0.000443499
0.000501848
0.000563751
0.000628024
0.000694051
0.000761094
0.000828777
0.000896623
0.0009643
0.00103125
0.00109727
0.00116281
0.00122724
0.00129058
0.0013527
0.0014136
0.0014733
0.00153179
0.00158912
0.00164531
0.00170044
0.00175455
0.00180772
0.00185999
0.00191143
0.00196208
0.00201199
0.00206119
0.0021097
0.00215754
0.00220472
0.00225122
0.00229705
0.0023422
0.00238665
0.00243041
0.00247344
0.00251576
0.00255735
0.0025982
0.00263833
0.00267772
0.00271636
0.00275428
0.00279147
0.00282794
0.00286368
0.00289871
0.00293302
0.00296662
0.0029995
0.00303167
0.00306313
0.00309387
0.00312386
0.00315315
0.00318175
0.00320964
0.00323684
0.00326332
0.00328908
0.00331413
0.00333844
0.00336202
0.00338485
0.00340694
0.00342826
0.00344883
0.00346862
0.00348764
0.00350588
0.00352334
0.00354002
0.00355592
0.00357103
0.00358537
0.00359892
0.00361169
0.00362369
0.00363492
0.00364539
0.00365509
0.00366405
0.00367226
0.00367979
0.00368651
0.00369249
0.00369777
0.00370233
0.00370608
0.0037093
0.00371185
0.00371374
0.00371497
0.00371555
0.00371549
0.00371481
0.00371351
0.00371161
0.0037091
0.00370601
0.00370235
0.00369812
0.00369333
0.003688
0.00368214
0.00367574
0.00366882
0.00366137
0.0036534
0.00364493
0.00363597
0.00362654
0.00361665
0.00360635
0.00359564
0.00358454
0.00357308
0.00356128
0.00354913
0.00353666
0.00352387
0.00351078
0.00349743
0.00348382
0.00347
0.00345597
0.00344177
0.00342739
0.00341284
0.0033981
0.00338313
0.00336783
0.00335211
0.00333529
0.00331576
0.00328953
1.92931e-08
1.47622e-06
1.66718e-05
5.19674e-05
9.16805e-05
0.000125653
0.00015154
0.00016955
0.000180667
0.000186396
0.000188209
0.000187284
0.000184585
0.000180834
0.000176422
0.000171449
0.000165841
0.000159634
0.000152762
0.000145341
0.00013721
0.000125442
0.000113615
0.00010697
0.000102044
9.82787e-05
0.000103226
0.000118515
0.0001384
0.000159664
0.000179547
0.000195889
0.000207469
0.000216243
0.00022552
0.000237735
0.000255822
0.000279563
0.000310555
0.000348061
0.000392335
0.000442498
0.000498273
0.000558475
0.000622033
0.000687761
0.000754895
0.000822952
0.000891487
0.000960181
0.00102872
0.00109647
0.00116384
0.00123066
0.00129655
0.00136143
0.00142527
0.00148802
0.00154968
0.00161024
0.00166972
0.00172816
0.00178558
0.00184203
0.00189757
0.00195223
0.00200607
0.00205911
0.00211142
0.00216303
0.00221397
0.00226425
0.00231389
0.00236287
0.00241116
0.00245876
0.00250566
0.00255183
0.00259724
0.0026419
0.00268577
0.00272885
0.00277115
0.00281266
0.00285341
0.00289341
0.00293262
0.00297104
0.00300866
0.00304551
0.00308158
0.00311689
0.00315143
0.00318523
0.00321827
0.00325056
0.00328212
0.00331296
0.00334308
0.00337248
0.00340115
0.0034291
0.00345632
0.0034828
0.00350855
0.00353355
0.00355781
0.00358131
0.00360405
0.00362604
0.00364725
0.00366769
0.00368735
0.00370624
0.00372434
0.00374167
0.00375821
0.00377397
0.00378894
0.00380314
0.00381656
0.00382921
0.00384109
0.0038522
0.00386256
0.00387217
0.00388106
0.00388922
0.00389657
0.0039032
0.00390913
0.00391432
0.00391874
0.00392259
0.00392575
0.00392824
0.00393007
0.00393124
0.00393178
0.00393169
0.00393098
0.00392967
0.00392776
0.00392526
0.00392219
0.00391856
0.00391437
0.00390963
0.00390435
0.00389854
0.0038922
0.00388532
0.00387792
0.00387001
0.0038616
0.00385271
0.00384335
0.00383356
0.00382335
0.00381274
0.00380174
0.00379037
0.00377863
0.00376654
0.0037541
0.00374134
0.00372827
0.00371493
0.00370134
0.00368752
0.00367349
0.00365927
0.00364486
0.00363027
0.00361548
0.00360043
0.00358499
0.00356871
0.00355032
0.0035272
4.29661e-08
3.40664e-06
2.9979e-05
7.53395e-05
0.000119401
0.000153419
0.000176028
0.000189608
0.000196145
0.000197288
0.000194932
0.000190455
0.000184788
0.000178499
0.000171839
0.000164683
0.000157304
0.00014918
0.000141115
0.000132683
0.000124033
0.000116219
0.000111111
0.000111024
0.000117465
0.000129727
0.000145864
0.000163674
0.000181845
0.000198907
0.000213123
0.000224501
0.000236489
0.000249762
0.000266664
0.000288063
0.000315804
0.000349738
0.000390071
0.000436201
0.000487834
0.000544267
0.000604838
0.000668497
0.00073428
0.000801373
0.000869256
0.000937568
0.00100601
0.00107405
0.0011416
0.00120911
0.0012758
0.00134173
0.00140676
0.00147083
0.00153391
0.00159598
0.00165704
0.0017171
0.00177617
0.00183428
0.0018915
0.00194785
0.00200339
0.00205816
0.00211219
0.00216546
0.0022181
0.00227012
0.00232156
0.00237242
0.00242274
0.00247253
0.0025219
0.00257066
0.00261869
0.00266595
0.00271241
0.00275804
0.00280282
0.00284674
0.00288978
0.00293196
0.00297326
0.00301367
0.00305325
0.00309204
0.00313004
0.00316726
0.00320372
0.00323942
0.00327437
0.00330857
0.00334203
0.00337475
0.00340676
0.00343803
0.00346858
0.0034984
0.0035275
0.00355586
0.00358349
0.00361038
0.00363654
0.00366196
0.00368663
0.00371057
0.00373375
0.00375618
0.00377785
0.00379876
0.00381891
0.00383829
0.0038569
0.00387475
0.00389182
0.00390813
0.00392367
0.00393845
0.00395246
0.00396572
0.00397821
0.00398996
0.00400096
0.00401123
0.00402081
0.00402959
0.00403763
0.00404496
0.00405159
0.00405747
0.00406265
0.0040672
0.00407106
0.00407426
0.00407679
0.00407868
0.00407994
0.00408057
0.0040806
0.00408003
0.00407887
0.00407713
0.00407482
0.00407197
0.00406856
0.00406461
0.00406013
0.00405512
0.00404957
0.0040435
0.0040369
0.00402979
0.00402217
0.00401408
0.00400553
0.00399652
0.00398709
0.00397725
0.003967
0.00395636
0.00394534
0.00393393
0.00392216
0.00391003
0.00389758
0.00388482
0.00387178
0.00385849
0.00384495
0.0038312
0.00381725
0.00380311
0.00378879
0.00377427
0.00375946
0.00374405
0.00372701
0.00370727
8.16332e-08
6.96915e-06
4.41476e-05
9.57283e-05
0.000141625
0.000174446
0.000194773
0.000204279
0.000206337
0.000203521
0.00019771
0.000190203
0.000181825
0.000172858
0.000164129
0.000155312
0.000147267
0.000140157
0.000134612
0.000130427
0.000128528
0.000129902
0.000135018
0.000143948
0.000156109
0.000170577
0.000186206
0.000201961
0.000216492
0.000229098
0.000242436
0.000257538
0.000274432
0.000294504
0.000319494
0.000349919
0.000386183
0.000427938
0.0004749
0.000526566
0.000582499
0.000642079
0.000704593
0.000769189
0.000835117
0.0009018
0.000968843
0.00103593
0.0011025
0.00116897
0.001235
0.0013004
0.001365
0.00142872
0.00149151
0.00155335
0.00161423
0.00167417
0.00173318
0.00179128
0.00184843
0.00190471
0.00196022
0.00201501
0.00206914
0.00212269
0.00217582
0.00222874
0.00228117
0.00233306
0.00238443
0.00243528
0.00248562
0.00253544
0.00258464
0.00263324
0.00268118
0.00272838
0.00277486
0.00282055
0.00286543
0.00290945
0.00295261
0.0029949
0.00303635
0.00307699
0.00311682
0.00315586
0.00319412
0.0032316
0.00326832
0.00330429
0.00333951
0.00337399
0.00340774
0.00344075
0.00347304
0.0035046
0.00353544
0.00356556
0.00359495
0.00362362
0.00365156
0.00367878
0.00370528
0.00373105
0.00375609
0.0037804
0.00380398
0.00382683
0.00384894
0.0038703
0.00389093
0.00391081
0.00392995
0.00394833
0.00396597
0.00398286
0.003999
0.0040144
0.00402905
0.00404296
0.00405614
0.00406859
0.0040803
0.00409133
0.0041016
0.00411115
0.00411997
0.00412809
0.0041355
0.0041422
0.00414823
0.0041536
0.00415828
0.0041623
0.00416567
0.0041684
0.00417051
0.004172
0.00417289
0.0041732
0.00417293
0.00417209
0.0041707
0.00416877
0.0041663
0.0041633
0.00415978
0.00415573
0.00415116
0.00414606
0.00414043
0.00413429
0.00412766
0.00412056
0.00411299
0.00410497
0.00409653
0.00408766
0.00407838
0.00406869
0.00405859
0.00404809
0.00403721
0.00402595
0.00401435
0.00400241
0.00399016
0.00397762
0.00396481
0.00395176
0.00393848
0.00392501
0.00391136
0.00389753
0.00388351
0.00386905
0.00385326
0.00383644
1.30373e-07
1.19267e-05
6.01711e-05
0.000118073
0.000163915
0.000194309
0.000210382
0.000215919
0.000214419
0.000208562
0.000200316
0.000190726
0.000181168
0.000171997
0.000164034
0.00015717
0.000152015
0.000149108
0.00014826
0.000149745
0.00015383
0.000160558
0.000169725
0.000180933
0.000193653
0.000207291
0.000220789
0.00023342
0.00024684
0.000262664
0.000280323
0.000299702
0.000322852
0.000350376
0.000382863
0.000420318