/*--------------------------------*- C++ -*----------------------------------*\
  =========                 |
  \\      /  F ield         | OpenFOAM: The Open Source CFD Toolbox
   \\    /   O peration     | Website:  https://openfoam.org
    \\  /    A nd           | Version:  8
     \\/     M anipulation  |
\*---------------------------------------------------------------------------*/
FoamFile
{
    version     2.0;
    format      ascii;
    class       volScalarField;
    location    "1200";
    object      omega;
}
// * * * * * * * * * * * * * * * * * * * * * * * * * * * * * * * * * * * * * //

dimensions      [0 0 -1 0 0 0 0];

internalField   nonuniform List<scalar> 
12225
(
32582.3
32582.3
43112.3
51440.5
52075.3
46466.7
39134.9
32582.3
32582.3
47269.1
41398.8
39916.4
32582.3
41188.9
45162.8
40388.1
32582.3
45654
7438.16
7428
11056.8
14647
17833.2
19284.3
18431.5
19050.6
17943.3
19662.2
19241.8
18844.5
17825.2
17745.6
18209.8
17720.3
17433
18019.7
209.543
2175
2621.16
5626.95
6422.27
8032.29
8011.1
7905.43
8170.81
8102.6
8061.1
8006.26
7852.18
7625.29
7767.91
7736.43
7700.16
7806.39
580.507
978.11
1152.89
2911.55
3219.72
3852.95
3875.39
3834.54
3830.06
3759.66
3685.15
3408.79
3167.75
2905.42
2918.13
2822.15
2800.34
2805.2
464.147
587.959
678.216
1324.6
1526.21
1604.06
1686.35
1814.74
1811.74
1598.83
1621.15
1622.67
1577.65
1449.61
1326.29
1334.87
1332.4
1342.13
452.752
447.677
632.163
770.629
869.463
974.549
1019.01
1020.33
975.395
960.011
966.777
914.885
859.95
816.735
820.563
817.726
814.017
821.115
481.036
467.243
521.879
563.258
604.34
646.922
664.099
678.506
663.675
671.5
675.517
670.277
639.435
634.486
629.25
628.365
628.296
618.581
493.192
487.15
496.012
514.006
531.226
544.287
552.261
564.177
555.487
560.797
562.538
551.104
535.551
539.006
540.048
535.079
538.353
538.351
498.35
492.65
491.736
494.21
499.113
505.061
507.242
510.376
510.122
507.812
507.432
505.033
501.009
498.943
498.132
495.812
493.657
493.426
498.776
495.327
492.752
491.242
490.497
490.16
489.161
488.057
486.642
484.872
483.169
481.546
479.775
478.288
476.95
475.87
474.53
473.798
498.586
495.627
492.917
490.528
488.374
486.436
484.51
482.616
480.712
478.885
477.076
475.413
473.77
472.292
470.835
469.559
468.259
467.162
498.529
495.653
492.928
490.385
487.973
485.713
483.549
481.496
479.514
477.64
475.831
474.13
472.489
470.95
469.468
468.079
466.741
465.49
498.519
495.652
492.928
490.356
487.91
485.598
483.393
481.305
479.311
477.419
475.611
473.894
472.255
470.696
469.208
467.792
466.439
465.153
498.517
495.648
492.925
490.345
487.896
485.572
483.363
481.264
479.267
477.368
475.558
473.837
472.194
470.631
469.138
467.717
466.358
465.066
498.517
495.646
492.921
490.339
487.887
485.56
483.347
481.245
479.245
477.342
475.529
473.804
472.159
470.592
469.098
467.673
466.313
465.015
498.516
495.642
492.917
490.33
487.875
485.544
483.328
481.222
479.218
477.312
475.496
473.767
472.119
470.549
469.051
467.624
466.26
464.961
498.508
495.619
492.88
490.282
487.816
485.474
483.25
481.135
479.124
477.211
475.389
473.655
472.002
470.427
468.926
467.494
466.128
464.824
498.508
495.62
492.88
490.282
487.816
485.474
483.249
481.133
479.122
477.207
475.386
473.65
471.997
470.421
468.92
467.486
466.121
464.816
498.517
495.643
492.917
490.33
487.874
485.54
483.323
481.215
479.209
477.3
475.482
473.752
472.102
470.53
469.03
467.601
466.236
464.934
498.517
495.645
492.921
490.336
487.882
485.551
483.337
481.23
479.227
477.32
475.505
473.775
472.128
470.557
469.06
467.631
466.269
464.968
498.518
495.646
492.924
490.339
487.889
485.559
483.347
481.242
479.242
477.336
475.524
473.795
472.151
470.582
469.089
467.663
466.305
465.008
498.523
495.646
492.926
490.338
487.906
485.579
483.383
481.284
479.293
477.391
475.591
473.867
472.244
470.685
469.221
467.814
466.493
465.221
498.554
495.631
492.894
490.33
488.047
485.767
483.714
481.696
479.78
477.953
476.206
474.554
473.051
471.581
470.309
469.039
467.971
466.831
498.731
495.449
492.701
490.591
489.369
487.679
486.936
485.72
484.497
483.246
481.636
480.675
479.433
478.478
477.888
477.293
477.056
476.889
499.109
494.435
492.95
493.966
498.811
502.501
509.341
512.506
517.823
516.003
520.815
522.468
517.26
521.192
518.41
517.147
519.018
520.733
497.186
497.082
502.766
516.989
548.665
570.858
598.015
610.673
633.256
643.374
654.602
645.855
661.929
656.547
655.595
658.669
667.985
675.408
496.086
521.737
574.957
645.918
740.745
821.078
900.809
947.907
1009.27
1075.74
1104.22
1117.7
1110.21
1114.23
1138.49
1158.28
1189.16
1211.41
491.484
753.357
1078.68
1371.45
1686.96
1977.16
2200.87
2383.65
2539.63
2638.43
2741.19
2802.97
2882.28
2936.41
3010.98
3065.54
3139.9
3192.57
1288.71
3426.2
5247.44
6538.53
7489.62
8180.77
8715.78
9099.14
9321.02
9446.57
9483.69
9479.96
9463.23
9415.78
9368.45
9322.19
9290.43
9264.04
16112.1
20871.7
23318.4
24476.9
24994.5
25055.5
24983.3
24818.2
24561.9
24290.5
24020.6
23761
23517.4
23291.3
23083.7
22894.8
22722.8
22569.2
11463.3
2494.65
2496.87
2499.12
2501.38
2503.67
2505.98
2508.3
2510.65
2513.02
2515.42
2517.83
2520.27
2522.73
2525.21
2527.72
2530.25
2532.8
2535.37
2537.97
2540.6
2543.25
2545.92
2548.62
2551.34
2554.09
2556.87
2559.67
2562.5
2565.35
2568.23
2571.14
2574.08
2577.04
2580.04
2583.06
2586.11
2589.19
2592.3
2595.43
2598.6
2601.8
2605.03
2608.29
2611.59
2614.91
2618.27
2621.66
2625.08
2628.54
2632.03
2635.55
2639.11
2642.71
2646.33
2650
2653.7
2657.44
2661.21
3132.64
3274.12
3414.03
3235.44
3402.79
3479.29
3566.1
3646.08
3725.58
3799.12
3873.02
3942.59
4011.67
4078.04
4143.42
4206.93
4269.33
4330.24
4390.09
4448.65
4506.18
4562.54
4617.91
4672.19
4725.49
4777.73
4829.01
4879.21
4928.45
4976.6
5023.74
5069.78
5114.69
5158.42
5200.92
5242.15
5282.06
5320.65
5357.96
5394.13
5429.48
5464.28
5497.82
5530.46
5562.09
5592.73
5622.37
5651
5678.61
5705.19
5730.73
5755.24
5778.68
5801.1
5822.43
5842.75
5861.97
5880.2
5897.32
5913.46
5928.5
5942.58
5955.56
5967.6
5978.56
5988.6
5997.59
6005.72
6013.23
6019.96
6024.36
6029.95
6031.99
6035.26
6037.17
6039.03
6039.97
6039.72
6037.98
6035.63
6032.3
6028.23
6023.36
6017.73
6011.42
6004.36
5996.68
5988.32
5979.46
5970.09
5960.36
5949.84
5939.18
5927.59
5915.98
5903.68
5891.27
5878.46
5865.53
5852.43
5839.25
5825.97
5812.68
5799.36
5786.06
5772.79
5759.63
5746.62
5733.82
5721.3
5709.09
5697.19
5685.58
5674.18
5662.76
5650.97
5638.1
5623.21
5603.68
5574.5
5457.17
11463.3
1993.41
997.558
811.448
693.417
622.954
629.885
626.125
614.777
592.285
568.222
544.713
523.146
505.306
493.293
484.447
484.102
486.65
512.916
563.344
648.921
751.327
861.68
971.033
1067.29
1142.06
1179.85
1172.22
1127.8
1044.89
920.548
765.638
641.479
559.302
494.463
460.174
456.412
464.661
486.909
519.008
548.441
591.98
688.633
814.234
1010.85
1326.28
1635.78
1848.56
1987.35
2057.17
2077.12
2068.93
2029.48
1971.69
1905.64
1850.64
1816.93
1787.48
1761.13
1745.41
1703.9
1700.06
1678.94
1673.67
1668.74
1666.21
1665.01
1667.31
1670.09
1674.62
1679.58
1685.59
1691.93
1698.83
1705.97
1713.41
1720.96
1728.66
1736.4
1744.18
1751.94
1759.66
1767.32
1774.9
1782.38
1789.73
1796.93
1803.98
1810.83
1817.5
1823.94
1830.17
1836.19
1842.01
1847.69
1853.3
1858.98
1864.92
1871.43
1878.92
1887.59
1895.44
1903.35
1910.92
1918.32
1925.47
1932.41
1939.11
1945.6
1951.86
1957.9
1963.71
1969.31
1974.68
1979.83
1984.76
1989.47
1993.97
1998.26
2002.33
2006.19
2009.84
2013.29
2016.54
2019.59
2022.45
2025.15
2027.68
2030
2032.08
2034.09
2035.78
2037.49
2039
2040.35
2041.26
2041.4
2040.88
2040.3
2039.52
2038.56
2037.42
2036.09
2034.59
2032.93
2031.11
2029.14
2027.07
2024.93
2022.18
2020.1
2016.91
2014.61
2011.4
2008.62
2005.48
2002.36
1999.15
1995.89
1992.58
1989.23
1985.85
1982.44
1979.01
1975.58
1972.16
1968.75
1965.37
1962.04
1958.77
1955.56
1952.45
1949.41
1946.49
1943.77
1941.29
1939.16
1937.89
1936.54
1945.45
11463.3
2012.24
815.5
641.256
680.668
681.597
654.196
598.773
539.123
483.111
433.57
391.556
358.563
332.728
312.885
297.645
287.096
279.008
277.056
279.564
290.125
309.418
342.199
386.983
442.14
503.25
563.306
610.044
637.399
634.246
610.345
566.526
503.623
436.537
388.596
384.094
394.96
418.784
456.816
529.54
641.02
796.954
994.209
1171.06
1317.8
1449.3
1535.8
1563.6
1561.5
1514.5
1461.87
1401.95
1344.58
1288.83
1241.56
1204.98
1176.71
1157.57
1141.39
1130.88
1116.01
1111.92
1106.89
1104.02
1101.54
1101.62
1102.59
1104.39
1106.71
1109.56
1112.73
1116.22
1119.91
1123.8
1127.8
1131.92
1136.1
1140.33
1144.59
1148.87
1153.15
1157.41
1161.66
1165.87
1170.04
1174.16
1178.22
1182.23
1186.17
1190.05
1193.88
1197.65
1201.39
1205.11
1208.85
1212.63
1216.5
1220.5
1224.65
1228.95
1233.23
1237.3
1241.31
1245.16
1248.91
1252.53
1256.03
1259.41
1262.66
1265.79
1268.79
1271.67
1274.43
1277.06
1279.56
1281.95
1284.2
1286.34
1288.35
1290.24
1292
1293.64
1295.16
1296.57
1297.85
1299.02
1300.08
1301.02
1301.84
1302.54
1303.14
1303.61
1303.99
1304.24
1304.34
1304.23
1303.9
1303.37
1302.75
1302.02
1301.18
1300.24
1299.19
1298.04
1296.79
1295.44
1294
1292.48
1290.87
1289.11
1287.41
1285.43
1283.61
1281.53
1279.51
1277.37
1275.2
1272.97
1270.69
1268.37
1266.01
1263.62
1261.19
1258.75
1256.29
1253.81
1251.33
1248.85
1246.37
1243.91
1241.49
1239.11
1236.8
1234.61
1232.6
1230.89
1229.65
1229.52
1230.87
1241.14
11463.3
2039.15
1013.67
976.709
903.508
774.219
657.192
550.458
466.171
403.33
355.862
318.492
289.774
267.915
251.302
238.706
229.277
222.395
217.797
216.151
217.228
220.392
228.901
243.498
265.31
294.456
328.907
364.223
394.666
417.603
421.557
414.986
392.048
396.383
440.318
527.432
589.397
645.878
717.581
820.806
955.936
1073.31
1152.17
1219.71
1272.35
1292.25
1256.12
1212.17
1166.82
1113.6
1068.61
1026.75
992.015
962.014
938.588
920.623
906.924
897.47
890.346
885.982
881.339
880.029
878.406
878.368
879.002
880.401
882.271
884.504
887.029
889.798
892.749
895.857
899.082
902.407
905.806
909.266
912.769
916.306
919.865
923.436
927.012
930.585
934.149
937.698
941.227
944.732
948.209
951.657
955.074
958.465
961.83
965.174
968.503
971.825
975.148
978.479
981.822
985.174
988.524
991.839
995.07
998.197
1001.24
1004.19
1007.04
1009.8
1012.45
1015.01
1017.47
1019.83
1022.09
1024.25
1026.3
1028.25
1030.1
1031.84
1033.48
1035.01
1036.44
1037.76
1038.98
1040.09
1041.09
1041.99
1042.78
1043.48
1044.07
1044.55
1044.93
1045.21
1045.38
1045.45
1045.42
1045.27
1045
1044.59
1044.05
1043.38
1042.63
1041.79
1040.85
1039.82
1038.7
1037.5
1036.2
1034.83
1033.37
1031.83
1030.21
1028.51
1026.76
1024.91
1023.04
1021.06
1019.06
1016.98
1014.86
1012.69
1010.47
1008.21
1005.92
1003.58
1001.22
998.837
996.43
994.005
991.567
989.121
986.675
984.231
981.808
979.423
977.1
974.878
972.818
971.023
969.65
969.221
970.214
976.505
11463.3
2314.36
1470.42
1185.85
941.252
727.658
561.54
450.297
374.319
321.051
283.258
256.718
237.249
222.466
210.986
202.074
195.313
190.446
187.236
185.772
186.074
187.591
191.472
198.478
209.519
225.695
246.923
270.881
294.659
312.888
329.233
356.65
426.633
529.737
614.416
680.75
750.48
826.779
899.309
963.283
1018.99
1067
1097.18
1105.19
1074.39
1028.28
991.041
949.564
912.614
878.662
851.119
827.334
808.265
792.783
781.046
772.321
766.034
761.87
759.207
758.11
757.501
757.772
758.753
760.336
762.356
764.728
767.368
770.217
773.237
776.398
779.671
783.038
786.481
789.988
793.544
797.141
800.77
804.422
808.09
811.767
815.447
819.124
822.794
826.452
830.093
833.714
837.312
840.885
844.432
847.952
851.447
854.916
858.359
861.778
865.172
868.537
871.868
875.156
878.386
881.548
884.627
887.619
890.525
893.342
896.068
898.701
901.24
903.683
906.029
908.277
910.424
912.47
914.413
916.251
917.985
919.611
921.131
922.542
923.845
925.039
926.123
927.098
927.963
928.719
929.366
929.903
930.332
930.651
930.861
930.962
930.959
930.836
930.612
930.273
929.819
929.243
928.552
927.754
926.861
925.873
924.79
923.614
922.348
920.994
919.552
918.023
916.411
914.718
912.942
911.092
909.174
907.179
905.132
903.008
900.833
898.595
896.305
893.964
891.575
889.143
886.672
884.166
881.63
879.068
876.482
873.877
871.256
868.624
865.99
863.366
860.761
858.191
855.676
853.25
850.965
848.908
847.207
846.222
846.441
849.592
11463.3
2932.51
1733.33
1208.39
833.069
587.645
443.883
355.699
301.522
266.291
241.576
223.186
209.009
197.934
189.138
182.167
176.801
172.91
170.41
169.417
169.796
171.298
174.641
180.021
188.107
200.14
216.996
238.977
268.275
312.467
369.165
463.544
573.079
659.074
726.147
787.859
839.868
880.329
915.104
948.892
966.396
968.603
940.013
909.185
876.556
842.583
812.974
784.758
761.237
741.08
724.732
711.256
700.717
692.639
686.838
682.904
680.716
679.792
679.635
680.398
681.804
683.754
686.167
688.933
691.977
695.239
698.672
702.243
705.926
709.703
713.557
717.477
721.451
725.471
729.528
733.614
737.723
741.849
745.983
750.122
754.258
758.387
762.503
766.603
770.683
774.737
778.762
782.756
786.716
790.64
794.528
798.376
802.183
805.946
809.662
813.325
816.93
820.466
823.927
827.308
830.602
833.806
836.92
839.939
842.862
845.686
848.408
851.026
853.538
855.945
858.242
860.426
862.497
864.453
866.292
868.012
869.613
871.093
872.452
873.689
874.802
875.794
876.662
877.407
878.03
878.53
878.908
879.163
879.289
879.305
879.196
878.965
878.615
878.144
877.552
876.838
876.006
875.063
874.015
872.862
871.606
870.249
868.794
867.243
865.597
863.857
862.027
860.108
858.103
856.016
853.854
851.616
849.31
846.932
844.49
841.986
839.423
836.807
834.14
831.427
828.672
825.882
823.059
820.209
817.334
814.438
811.525
808.601
805.673
802.752
799.848
796.977
794.156
791.415
788.797
786.372
784.244
782.66
781.965
783.005
11463.3
3437.94
1776.95
1035.76
650.648
457.713
360.486
304.996
269.441
244.076
224.865
209.889
197.912
188.048
179.908
173.317
168.202
164.537
162.415
161.951
162.907
165.624
170.567
178.167
189.22
204.206
226.667
262.418
318.916
406.49
512.164
599.489
667.793
726.684
773.088
808.067
836.275
858.393
867.648
864.525
841.953
819.738
793.333
767.903
742.756
719.275
698.919
681.063
666.341
654.133
644.377
636.729
631.073
627.149
624.938
624.069
624.003
624.955
626.642
628.949
631.758
634.967
638.505
642.299
646.296
650.453
654.739
659.129
663.605
668.153
672.762
677.422
682.126
686.867
691.637
696.429
701.236
706.052
710.87
715.683
720.486
725.273
730.04
734.78
739.491
744.166
748.801
753.391
757.935
762.429
766.87
771.255
775.582
779.845
784.044
788.172
792.227
796.204
800.099
803.902
807.609
811.216
814.72
818.118
821.407
824.583
827.644
830.586
833.404
836.093
838.653
841.084
843.384
845.551
847.584
849.48
851.239
852.86
854.341
855.683
856.884
857.945
858.866
859.648
860.29
860.793
861.157
861.376
861.454
861.413
861.229
860.91
860.457
859.871
859.153
858.306
857.332
856.236
855.023
853.695
852.253
850.698
849.029
847.242
845.347
843.348
841.249
839.053
836.761
834.38
831.915
829.367
826.742
824.041
821.268
818.427
815.523
812.561
809.544
806.478
803.368
800.219
797.037
793.826
790.588
787.328
784.051
780.763
777.471
774.186
770.918
767.681
764.492
761.375
758.367
755.521
752.922
750.734
749.126
748.589
11463.3
3580.3
1562.79
815.996
515.077
383.178
314.845
274.245
247.745
229.204
215.177
203.472
193.202
184.316
176.802
170.738
166.312
163.69
162.824
163.569
166.173
171.257
179.45
192.76
213.749
244.905
292.499
367.156
455.673
535.613
599.69
653.867
699.633
736.121
765.487
783.952
790.353
783.727
766.882
749.465
728.775
709.224
689.245
670.349
652.544
636.709
623.18
611.755
602.452
595.022
589.354
585.277
582.789
581.7
581.526
582.387
584.092
586.541
589.6
593.16
597.135
601.443
606.024
610.821
615.792
620.903
626.129
631.447
636.843
642.303
647.816
653.374
658.969
664.594
670.242
675.906
681.577
687.247
692.909
698.556
704.181
709.778
715.341
720.865
726.344
731.776
737.152
742.466
747.716
752.897
758.008
763.043
768
772.874
777.662
782.362
786.971
791.488
795.902
800.205
804.394
808.464
812.413
816.237
819.933
823.497
826.926
830.217
833.367
836.372
839.231
841.94
844.497
846.902
849.151
851.243
853.177
854.951
856.565
858.019
859.312
860.444
861.416
862.228
862.881
863.375
863.71
863.873
863.897
863.77
863.487
863.05
862.464
861.73
860.85
859.828
858.666
857.37
855.943
854.386
852.704
850.897
848.969
846.922
844.757
842.479
840.091
837.597
834.998
832.302
829.512
826.633
823.67
820.623
817.498
814.3
811.034
807.705
804.319
800.88
797.394
793.866
790.303
786.709
783.087
779.442
775.78
772.108
768.433
764.765
761.115
757.495
753.923
750.417
747.008
743.739
740.639
737.853
735.453
733.599
11463.3
3403.41
1281.52
662.546
448.342
352.057
299.175
266.304
244.194
227.68
214.652
203.887
194.757
186.978
180.583
175.798
172.942
172.169
173.756
177.786
185.117
197.165
215.468
244.494
289.213
349.413
417.976
481.109
537.811
586.725
628.572
663.709
693.98
714.818
722.238
718.9
706.338
692.249
676.024
660.483
644.905
630.116
615.637
602.076
589.738
579.038
570.049
562.694
556.916
552.604
549.671
548.205
547.781
548.313
549.811
552.156
555.233
558.943
563.192
567.893
572.973
578.364
584.013
589.871
595.9
602.069
608.354
614.736
621.196
627.717
634.289
640.899
647.536
654.194
660.87
667.552
674.228
680.891
687.532
694.142
700.715
707.243
713.721
720.139
726.486
732.754
738.95
745.07
751.109
757.063
762.928
768.701
774.376
779.95
785.419
790.777
796.02
801.139
806.133
810.995
815.723
820.311
824.756
829.056
833.206
837.203
841.043
844.722
848.237
851.584
854.76
857.763
860.591
863.242
865.713
868.003
870.111
872.035
873.775
875.331
876.702
877.889
878.894
879.717
880.359
880.82
881.093
881.186
881.12
880.875
880.457
879.868
879.112
878.191
877.109
875.869
874.476
872.933
871.244
869.412
867.44
865.332
863.089
860.714
858.212
855.586
852.839
849.975
846.997
843.911
840.723
837.438
834.059
830.59
827.037
823.405
819.701
815.93
812.098
808.209
804.27
800.287
796.267
792.213
788.13
784.025
779.904
775.773
771.642
767.519
763.416
759.345
755.319
751.357
747.484
743.735
740.151
736.823
733.764
730.881
11463.3
2974.65
1033.79
565.427
402.511
327.97
287.897
262.732
245.169
232.205
221.773
212.954
205.488
199.477
195.282
193.565
194.483
198.923
206.941
219.089
237.347
263.771
299.93
344.529
392.901
441.72
487.718
528.949
565.785
597.479
625.475
648.623
659.24
660.548
653.639
643.479
630.867
618.455
606.258
594.744
583.533
572.721
562.319
552.714
544.195
536.972
531.082
526.497
523.175
521.198
520.425
520.498
521.634
523.679
526.568
530.216
534.535
539.444
544.867
550.732
556.978
563.543
570.373
577.421
584.651
592.029
599.533
607.156
614.856
622.615
630.417
638.247
646.084
653.907
661.676
669.419
677.15
684.862
692.543
700.184
707.776
715.313
722.788
730.194
737.527
744.786
751.949
759.005
765.947
772.773
779.479
786.061
792.516
798.838
805.024
811.07
816.971
822.722
828.322
833.767
839.052
844.173
849.126
853.907
858.513
862.941
867.186
871.244
875.111
878.784
882.259
885.534
888.607
891.476
894.138
896.593
898.839
900.874
902.699
904.314
905.719
906.915
907.904
908.688
909.268
909.641
909.802
909.779
909.557
909.14
908.53
907.731
906.747
905.581
904.238
902.721
901.035
899.184
897.173
895.005
892.684
890.213
887.595
884.834
881.934
878.9
875.735
872.442
869.027
865.493
861.849
858.099
854.247
850.3
846.262
842.142
837.945
833.677
829.346
824.954
820.509
816.018
811.487
806.922
802.327
797.711
793.079
788.442
783.806
779.18
774.577
770.007
765.483
761.021
756.642
752.377
748.253
744.343
740.628
736.798
11463.3
2496.61
893.043
523
386.943
323.648
288.93
268.447
254.751
244.627
236.655
230.364
225.885
223.947
224.508
228.873
237.212
248.754
263.878
284.711
311.434
343.015
377.755
413.538
448.618
481.944
512.666
539.845
564.637
587.266
600.969
605.189
603.802
598.459
590.078
580.834
571.457
562.587
554.082
545.875
537.82
529.999
522.591
515.887
510.112
505.4
501.795
499.314
498.092
497.806
498.503
500.156
502.741
506.188
510.435
515.405
521.027
527.23
533.947
541.119
548.706
556.642
564.861
573.315
581.961
590.755
599.637
608.53
617.501
626.543
635.638
644.766
653.901
663.026
672.143
681.228
690.269
699.263
708.187
717.033
725.795
734.468
743.047
751.524
759.891
768.132
776.241
784.209
792.032
799.707
807.231
814.601
821.814
828.864
835.747
842.46
849.001
855.364
861.548
867.548
873.36
878.978
884.399
889.619
894.635
899.444
904.042
908.423
912.584
916.522
920.232
923.713
926.963
929.979
932.761
935.307
937.615
939.686
941.518
943.112
944.47
945.594
946.486
947.149
947.584
947.783
947.766
947.528
947.071
946.399
945.516
944.426
943.133
941.642
939.957
938.084
936.028
933.792
931.383
928.804
926.059
923.153
920.089
916.871
913.505
909.994
906.343
902.556
898.639
894.595
890.432
886.155
881.771
877.285
872.706
868.041
863.296
858.479
853.595
848.649
843.648
838.597
833.506
828.378
823.222
818.046
812.858
807.667
802.482
797.31
792.162
787.05
781.985
776.982
772.061
767.244
762.555
758.05
753.702
749.013
11463.3
2081.19
788.689
487.676
377.185
324.414
296.717
280.38
269.836
262.603
257.62
255.055
254.576
257.052
263.041
272.63
285.244
300.635
319.637
341.879
366.49
392.398
418.597
444.259
468.681
491.144
512.234
532.291
547.164
553.886
555.528
554.87
550.959
545.408
539.063
532.685
526.483
520.507
514.638
508.827
503.091
497.572
492.479
488.042
484.437
481.766
480.22
479.682
480.057
481.433
483.759
487.005
491.142
496.14
501.964
508.501
515.686
523.453
531.734
540.441
549.448
558.739
568.347
578.243
588.386
598.734
609.258
619.954
630.742
641.577
652.427
663.275
674.07
684.778
695.382
705.863
716.204
726.4
736.469
746.42
756.254
765.972
775.572
785.045
794.379
803.558
812.569
821.403
830.054
838.521
846.803
854.897
862.798
870.502
878.006
885.306
892.4
899.286
905.961
912.421
918.659
924.673
930.457
936.009
941.325
946.403
951.239
955.828
960.166
964.25
968.076
971.642
974.947
977.989
980.767
983.282
985.531
987.514
989.23
990.682
991.872
992.801
993.477
993.897
994.069
993.989
993.664
993.098
992.294
991.255
989.988
988.498
986.791
984.87
982.743
980.414
977.889
975.174
972.273
969.191
965.934
962.505
958.91
955.153
951.239
947.173
942.961
938.607
934.116
929.492
924.744
919.874
914.893
909.809
904.63
899.364
894.018
888.598
883.11
877.558
871.95
866.291
860.589
854.852
849.088
843.308
837.521
831.734
825.957
820.198
814.466
808.771
803.126
797.545
792.045
786.648
781.368
776.255
771.284
765.8
11463.3
1945.63
770.658
484.606
379.936
333.239
309.405
296.042
288.102
283.66
281.894
281.955
284.852
290.619
299.217
310.368
323.746
339.39
356.848
375.54
394.869
414.14
432.822
450.676
468.001
484.816
498.668
507.08
511.101
512.58
512.607
510.789
507.729
504.089
500.223
496.331
492.444
488.547
484.625
480.724
476.952
473.476
470.486
468.163
466.766
466.279
466.718
468.287
470.792
474.223
478.556
483.757
489.767
496.471
503.764
511.782
520.51
529.892
539.867
550.376
561.396
572.865
584.703
596.859
609.286
621.929
634.734
647.67
660.649
673.574
686.374
698.977
711.361
723.512
735.417
747.069
758.477
769.662
780.662
791.505
802.204
812.769
823.206
833.503
843.64
853.59
863.331
872.856
882.16
891.243
900.104
908.74
917.146
925.319
933.255
940.951
948.406
955.62
962.59
969.312
975.781
981.992
987.941
993.626
999.044
1004.19
1009.07
1013.67
1017.99
1022.03
1025.78
1029.24
1032.41
1035.28
1037.87
1040.17
1042.18
1043.9
1045.32
1046.46
1047.31
1047.88
1048.17
1048.19
1047.94
1047.42
1046.63
1045.58
1044.29
1042.74
1040.94
1038.92
1036.66
1034.18
1031.49
1028.58
1025.47
1022.15
1018.65
1014.96
1011.08
1007.03
1002.8
998.409
993.855
989.145
984.285
979.28
974.137
968.859
963.453
957.921
952.278
946.534
940.697
934.774
928.771
922.695
916.551
910.344
904.08
897.765
891.406
885.014
878.6
872.176
865.75
859.33
852.924
846.54
840.187
833.874
827.614
821.422
815.314
809.308
803.417
797.68
792.095
785.861
11463.3
1887.03
746.59
482.294
387.566
345.294
324.426
313.259
307.246
304.596
304.057
306.023
310.612
317.495
326.37
336.906
348.829
361.866
375.638
389.746
403.764
417.61
431.45
444.936
456.47
464.536
470.192
474.07
476.129
476.967
477.109
476.385
475.1
473.507
471.734
469.845
467.875
465.872
463.918
462.163
460.845
460.091
459.878
460.369
461.699
463.841
466.717
470.126
474.443
479.741
486.021
493.259
501.422
510.496
520.489
531.317
542.945
555.292
568.28
581.839
595.914
610.419
625.263
640.374
655.715
671.197
686.677
702.024
717.147
731.989
746.481
760.566
774.206
787.388
800.108
812.371
824.225
835.744
847.033
858.18
869.187
880.081
890.889
901.585
912.124
922.449
932.523
942.351
951.93
961.254
970.322
979.131
987.677
995.954
1003.96
1011.69
1019.16
1026.35
1033.26
1039.9
1046.26
1052.34
1058.12
1063.61
1068.81
1073.72
1078.32
1082.63
1086.63
1090.33
1093.71
1096.79
1099.54
1101.99
1104.12
1105.95
1107.47
1108.67
1109.56
1110.16
1110.45
1110.43
1110.14
1109.54
1108.65
1107.48
1106.03
1104.31
1102.32
1100.08
1097.59
1094.86
1091.9
1088.7
1085.28
1081.65
1077.81
1073.76
1069.52
1065.09
1060.47
1055.68
1050.71
1045.57
1040.28
1034.82
1029.22
1023.47
1017.59
1011.58
1005.44
999.173
992.804
986.34
979.787
973.151
966.437
959.652
952.8
945.888
938.923
931.907
924.847
917.761
910.661
903.557
896.458
889.371
882.303
875.263
868.256
861.293
854.388
847.559
840.818
834.184
827.665
821.291
815.094
808.15
11463.3
1849.74
744.441
489.005
398.921
359.098
339.495
329.109
323.753
321.583
321.317
323.737
328.399
334.808
342.531
351.234
360.698
370.699
380.989
391.39
402.06
412.316
421.124
428.387
434.356
439.518
443.6
446.827
449.361
451.415
453.153
454.666
455.906
456.91
457.747
458.476
459.161
459.868
460.661
461.559
462.44
463.771
465.857
468.959
473.106
478.239
484.37
491.625
499.939
509.341
519.842
531.394
543.943
557.455
571.896
587.204
603.425
620.315
637.731
655.559
673.694
692.026
710.442
728.826
747.033
764.961
782.552
799.702
816.305
832.258
847.472
861.918
875.595
888.532
900.758
912.233
923.109
933.528
943.772
954.093
964.339
974.57
984.888
995.201
1005.41
1015.44
1025.25
1034.82
1044.11
1053.12
1061.84
1070.28
1078.42
1086.27
1093.81
1101.06
1108
1114.64
1121
1127.05
1132.81
1138.26
1143.4
1148.23
1152.75
1156.96
1160.87
1164.45
1167.72
1170.67
1173.29
1175.59
1177.56
1179.2
1180.51
1181.52
1182.21
1182.56
1182.59
1182.35
1181.77
1180.87
1179.67
1178.17
1176.38
1174.3
1171.93
1169.29
1166.38
1163.21
1159.8
1156.14
1152.25
1148.13
1143.78
1139.23
1134.46
1129.5
1124.34
1118.99
1113.47
1107.77
1101.9
1095.87
1089.69
1083.35
1076.87
1070.25
1063.51
1056.64
1049.67
1042.6
1035.45
1028.21
1020.89
1013.48
1006.01
998.459
990.85
983.186
975.474
967.717
959.921
952.11
944.295
936.484
928.683
920.901
913.144
905.421
897.734
890.096
882.526
875.04
867.651
860.374
853.215
846.196
839.389
831.772
11463.3
1830.69
744.593
497.456
408.991
370.209
351.341
340.935
335.378
333.056
332.645
334.627
338.532
343.809
350.033
356.956
364.457
372.429
380.626
388.553
396.098
403.234
410.17
416.648
422.763
428.582
434.076
439.271
444.134
448.634
452.702
456.123
459.239
462.257
465.27
468.36
471.617
475.136
479.018
483.396
488.526
494.547
501.694
510.242
520.004
530.856
542.835
556.003
570.303
585.749
602.475
620.257
638.913
658.309
678.315
698.772
719.455
740.339
761.325
782.298
803.148
823.77
844.067
863.95
883.334
902.149
920.334
937.822
954.53
970.334
985.088
998.884
1011.8
1023.93
1035.34
1046.09
1056.18
1065.65
1074.63
1083.28
1091.7
1100.22
1109.26
1118.43
1127.53
1136.47
1145.21
1153.67
1161.84
1169.69
1177.24
1184.48
1191.41
1198.02
1204.3
1210.26
1215.91
1221.25
1226.3
1231.06
1235.51
1239.66
1243.49
1247.01
1250.23
1253.14
1255.75
1258.05
1260.04
1261.71
1263.07
1264.1
1264.8
1265.19
1265.24
1265.03
1264.48
1263.61
1262.42
1260.93
1259.14
1257.03
1254.64
1251.95
1248.98
1245.74
1242.23
1238.45
1234.41
1230.13
1225.6
1220.84
1215.85
1210.64
1205.23
1199.6
1193.79
1187.78
1181.59
1175.23
1168.7
1162.01
1155.16
1148.15
1141
1133.72
1126.3
1118.75
1111.09
1103.31
1095.44
1087.5
1079.48
1071.38
1063.21
1054.95
1046.63
1038.24
1029.8
1021.31
1012.78
1004.24
995.686
987.135
978.587
970.049
961.526
953.026
944.558
936.13
927.746
919.42
911.175
903.025
894.981
887.055
879.253
871.589
864.178
855.926
11463.3
1818.55
747.701
503.022
415.632
377.862
359.195
348.615
342.897
340.425
339.898
341.587
345.133
350.047
355.885
362.436
369.502
376.933
384.645
392.737
400.766
408.685
416.61
424.482
432.359
440.266
448.222
456.232
464.158
471.999
479.823
487.764
495.873
504.215
512.887
521.987
531.626
541.915
552.965
564.903
577.876
591.903
606.976
622.919
639.759
657.602
676.495
696.489
717.474
739.27
761.612
784.686
808.218
831.957
855.721
879.327
902.612
925.457
947.75
969.385
990.292
1010.42
1029.75
1048.25
1065.91
1082.73
1098.72
1113.89
1128.23
1141.78
1154.56
1166.47
1177.58
1188.09
1198.07
1207.64
1216.64
1224.99
1232.65
1239.59
1246.26
1253.24
1260.4
1267.46
1274.31
1280.9
1287.21
1293.23
1298.93
1304.34
1309.46
1314.28
1318.81
1323.04
1326.98
1330.62
1333.98
1337.08
1339.94
1342.54
1344.87
1346.94
1348.73
1350.25
1351.51
1352.51
1353.24
1353.71
1353.9
1353.82
1353.48
1352.81
1351.87
1350.64
1349.14
1347.36
1345.31
1342.96
1340.34
1337.43
1334.26
1330.81
1327.1
1323.13
1318.92
1314.46
1309.76
1304.82
1299.65
1294.26
1288.65
1282.83
1276.8
1270.58
1264.17
1257.58
1250.81
1243.88
1236.78
1229.52
1222.12
1214.56
1206.86
1199.03
1191.06
1182.96
1174.74
1166.41
1157.97
1149.41
1140.76
1132.01
1123.18
1114.27
1105.27
1096.21
1087.07
1077.88
1068.63
1059.35
1050.02
1040.69
1031.37
1022.05
1012.73
1003.43
994.154
984.901
975.688
966.524
957.432
948.427
939.517
930.71
922.016
913.448
905.012
896.714
888.709
879.873
11463.3
1808.33
750.184
506.208
419.273
383.491
365.408
355.522
351.222
349.728
350.237
353.281
358.055
364.158
371.576
380.484
389.93
399.936
410.966
423.138
435.796
448.862
462.591
476.988
492.036
507.684
523.915
540.643
557.916
575.717
594.088
613.041
632.527
652.508
673.039
694.177
716.047
738.805
762.451
786.899
812.048
837.769
863.898
890.252
916.788
943.535
970.557
998.28
1026.3
1053.97
1080.87
1106.62
1131.25
1154.77
1177.12
1198.23
1218.05
1236.5
1253.61
1269.4
1283.91
1297.2
1309.35
1320.42
1330.49
1339.6
1347.87
1355.36
1362.17
1368.46
1374.53
1380.38
1386.04
1391.43
1396.51
1401.26
1405.55
1409.37
1413.03
1416.77
1420.93
1425.09
1428.65
1431.74
1434.47
1436.93
1439.16
1441.18
1442.99
1444.59
1445.99
1447.17
1448.14
1448.9
1449.47
1449.86
1450.07
1450.11
1450.01
1449.75
1449.29
1448.65
1447.83
1446.83
1445.65
1444.29
1442.75
1441.02
1439.08
1436.93
1434.58
1431.99
1429.19
1426.18