/*--------------------------------*- C++ -*----------------------------------*\
  =========                 |
  \\      /  F ield         | OpenFOAM: The Open Source CFD Toolbox
   \\    /   O peration     | Website:  https://openfoam.org
    \\  /    A nd           | Version:  8
     \\/     M anipulation  |
\*---------------------------------------------------------------------------*/
FoamFile
{
    version     2.0;
    format      ascii;
    class       volScalarField;
    location    "1200";
    object      p;
}
// * * * * * * * * * * * * * * * * * * * * * * * * * * * * * * * * * * * * * //

dimensions      [0 2 -2 0 0 0 0];

internalField   nonuniform List<scalar> 
12225
(
-4.20589
-5.09275
-5.49043
-5.62933
-5.77508
-5.93815
-6.07821
-6.18732
-6.28317
-6.37133
-6.45036
-6.51823
-6.57825
-6.63566
-6.69299
-6.75309
-6.82626
-6.90969
-4.48256
-5.12174
-5.45587
-5.5892
-5.7379
-5.9003
-6.04107
-6.15638
-6.24949
-6.33279
-6.41278
-6.4879
-6.55335
-6.60897
-6.66377
-6.72434
-6.78807
-6.8427
-4.67792
-5.1181
-5.43717
-5.59771
-5.74961
-5.90699
-6.0435
-6.15496
-6.24581
-6.3279
-6.40645
-6.47911
-6.54246
-6.59753
-6.65188
-6.70922
-6.76541
-6.81059
-4.82537
-5.14353
-5.44602
-5.61568
-5.75746
-5.90284
-6.03299
-6.14133
-6.2323
-6.31458
-6.39186
-6.4627
-6.52541
-6.58154
-6.63585
-6.68996
-6.74108
-6.78299
-4.96353
-5.19563
-5.46536
-5.63257
-5.76603
-5.90262
-6.02829
-6.13475
-6.22558
-6.30732
-6.38295
-6.45205
-6.51403
-6.57013
-6.62313
-6.67388
-6.72076
-6.75973
-5.08364
-5.25587
-5.48669
-5.64886
-5.77743
-5.9061
-6.02606
-6.12937
-6.21869
-6.29911
-6.37302
-6.44054
-6.50158
-6.55704
-6.6086
-6.65678
-6.70059
-6.73778
-5.18931
-5.31855
-5.51232
-5.66659
-5.79022
-5.91053
-6.02389
-6.1235
-6.21081
-6.28961
-6.36182
-6.42783
-6.48774
-6.54227
-6.59248
-6.63867
-6.68037
-6.71637
-5.27313
-5.37344
-5.53857
-5.68296
-5.80132
-5.91456
-6.0221
-6.11824
-6.20343
-6.28049
-6.3511
-6.41569
-6.47447
-6.52808
-6.57719
-6.62205
-6.66245
-6.69771
-5.34336
-5.42266
-5.56408
-5.69813
-5.81129
-5.91839
-6.0207
-6.11354
-6.19657
-6.27187
-6.34093
-6.4042
-6.46195
-6.51468
-6.56287
-6.60673
-6.6462
-6.68092
-5.41368
-5.4755
-5.59379
-5.71562
-5.8225
-5.92311
-6.01967
-6.10866
-6.1891
-6.26234
-6.32964
-6.39142
-6.44797
-6.49967
-6.54687
-6.58973
-6.62835
-6.66255
-5.48254
-5.53031
-5.62746
-5.73577
-5.83523
-5.92901
-6.01941
-6.10398
-6.18136
-6.25222
-6.31749
-6.37758
-6.43275
-6.48325
-6.52934
-6.57122
-6.60901
-6.64274
-5.54845
-5.58552
-5.6643
-5.7586
-5.84958
-5.93626
-6.02022
-6.09986
-6.17371
-6.24181
-6.30478
-6.36296
-6.4165
-6.46563
-6.51055
-6.5514
-6.58843
-6.62165
-5.61043
-5.63935
-5.70281
-5.78349
-5.86531
-5.94469
-6.02208
-6.09645
-6.16632
-6.23135
-6.29176
-6.34777
-6.39953
-6.44713
-6.49079
-6.53062
-6.56686
-6.59961
-5.66686
-5.68973
-5.74092
-5.80919
-5.88172
-5.95374
-6.02469
-6.09361
-6.15925
-6.22093
-6.27857
-6.33228
-6.38209
-6.42811
-6.47043
-6.50925
-6.54469
-6.57696
-5.71586
-5.73426
-5.77599
-5.83372
-5.89751
-5.9625
-6.02731
-6.09098
-6.15234
-6.21057
-6.2654
-6.31673
-6.36458
-6.40897
-6.45
-6.48777
-6.52247
-6.55421
-5.75466
-5.7699
-5.80479
-5.85427
-5.91067
-5.96944
-6.02885
-6.08781
-6.14521
-6.2002
-6.25233
-6.30141
-6.34739
-6.39024
-6.43003
-6.46684
-6.50083
-6.53209
-5.77935
-5.79257
-5.82309
-5.86707
-5.91816
-5.97228
-6.02758
-6.0829
-6.13716
-6.18949
-6.23938
-6.28658
-6.33098
-6.37252
-6.41126
-6.44725
-6.48063
-6.51152
-5.78359
-5.79614
-5.82517
-5.86719
-5.91614
-5.96823
-6.0216
-6.07516
-6.12781
-6.17872
-6.22736
-6.27345
-6.3169
-6.35763
-6.39572
-6.4312
-6.46422
-6.49488
-5.76702
-5.78025
-5.81078
-5.85441
-5.90462
-5.95745
-6.01134
-6.06522
-6.11803
-6.16894
-6.21745
-6.26338
-6.30659
-6.34713
-6.38499
-6.42033
-6.4532
-6.48384
-5.73496
-5.75011
-5.78468
-5.83296
-5.88695
-5.94264
-5.99883
-6.05462
-6.1089
-6.16084
-6.21007
-6.25644
-6.29997
-6.34066
-6.37864
-6.414
-6.44693
-6.47759
-5.6907
-5.70918
-5.75058
-5.80621
-5.86586
-5.92577
-5.98552
-6.04435
-6.10097
-6.15458
-6.205
-6.25223
-6.29636
-6.33743
-6.37563
-6.41114
-6.44415
-6.47489
-5.63619
-5.65989
-5.71148
-5.77694
-5.84337
-5.9083
-5.97256
-6.03518
-6.09461
-6.15026
-6.20214
-6.25045
-6.29525
-6.33679
-6.37523
-6.41091
-6.44398
-6.47479
-5.57227
-5.60412
-5.6701
-5.74742
-5.82095
-5.89136
-5.96077
-6.02763
-6.0901
-6.14788
-6.20136
-6.25076
-6.29631
-6.33822
-6.37689
-6.4126
-6.44571
-6.47646
-5.49914
-5.54377
-5.62926
-5.71932
-5.79937
-5.87558
-5.95079
-6.02204
-6.08745
-6.14735
-6.20238
-6.25286
-6.29902
-6.34124
-6.37997
-6.41567
-6.44866
-6.47938
-5.41619
-5.48063
-5.59183
-5.69408
-5.77898
-5.86107
-5.94243
-6.01813
-6.08641
-6.14836
-6.20492
-6.25636
-6.30299
-6.34533
-6.38392
-6.41933
-6.452
-6.48243
-5.32319
-5.41633
-5.55915
-5.67208
-5.76048
-5.84818
-5.93523
-6.01473
-6.08556
-6.14954
-6.20767
-6.26018
-6.30743
-6.35001
-6.38855
-6.42373
-6.45614
-6.48646
-5.22071
-5.35477
-5.52846
-5.64865
-5.74192
-5.83695
-5.92954
-6.0121
-6.08487
-6.1503
-6.20951
-6.26271
-6.31031
-6.35298
-6.39131
-6.42617
-6.45829
-6.48849
-5.10006
-5.31051
-5.50493
-5.6195
-5.71741
-5.82313
-5.92377
-6.01124
-6.08763
-6.15594
-6.21728
-6.27187
-6.32026
-6.36311
-6.40114
-6.43539
-6.46707
-6.49775
-4.91671
-5.29007
-5.51625
-5.61347
-5.70624
-5.81571
-5.9193
-6.00807
-6.08565
-6.15539
-6.21804
-6.27364
-6.32263
-6.36559
-6.40312
-6.43595
-6.46542
-6.49294
-4.65031
-5.21386
-5.50676
-5.61545
-5.71653
-5.8348
-5.94407
-6.03555
-6.11417
-6.18433
-6.24701
-6.30238
-6.35087
-6.39301
-6.42919
-6.45926
-6.484
-6.50383
-7.43261
-7.43272
-7.43277
-7.43277
-7.43247
-7.43127
-7.42874
-7.42538
-7.42218
-7.42013
-7.42024
-7.42269
-7.42699
-7.43234
-7.43799
-7.44325
-7.44757
-7.45054
-7.45214
-7.45273
-7.45259
-7.45192
-7.45096
-7.44999
-7.44924
-7.4488
-7.4486
-7.44848
-7.44827
-7.44789
-7.44734
-7.44665
-7.44574
-7.44454
-7.44314
-7.44184
-7.4413
-7.44218
-7.44451
-7.44755
-7.45034
-7.4524
-7.45398
-7.45554
-7.45757
-7.4606
-7.46425
-7.46745
-7.46982
-7.47327
-7.48144
-7.49832
-7.52411
-7.55784
-7.59965
-7.65017
-7.70891
-7.7744
-7.84484
-7.91811
-7.99198
-8.06449
-8.1346
-8.20148
-8.26415
-8.32222
-8.37552
-8.42399
-8.46769
-8.50671
-8.54112
-8.57105
-8.59654
-8.61767
-8.63445
-8.6469
-8.65501
-8.65875
-8.65808
-8.65296
-8.64333
-8.62914
-8.61033
-8.58685
-8.55862
-8.52556
-8.48756
-8.44456
-8.39646
-8.34322
-8.28483
-8.22121
-8.15231
-8.07806
-7.99842
-7.91332
-7.82274
-7.72671
-7.62527
-7.51826
-7.40527
-7.28624
-7.16136
-7.03068
-6.89424
-6.75205
-6.60418
-6.45063
-6.29149
-6.12681
-5.9567
-5.78122
-5.60052
-5.41468
-5.22388
-5.02823
-4.82791
-4.62306
-4.41388
-4.20054
-3.98323
-3.76213
-3.53745
-3.30937
-3.07812
-2.84387
-2.60686
-2.36728
-2.12533
-1.88121
-1.6351
-1.38719
-1.13773
-0.886939
-0.635043
-0.382294
-0.128836
0.125425
0.380387
0.635684
0.891136
1.14655
1.40179
1.65666
1.91102
2.1647
2.41755
2.66938
2.92002
3.1693
3.41709
3.66324
3.90762
4.15007
4.39047
4.62867
4.86457
5.09804
5.329
5.55733
5.78295
6.00575
6.22565
6.44254
6.65633
6.86693
7.07424
7.27817
7.47864
7.67557
7.86886
8.05841
8.24413
8.42591
8.60366
8.77731
8.9471
9.11294
9.27788
9.43312
-7.43383
-7.43402
-7.43439
-7.43478
-7.43477
-7.43395
-7.43201
-7.42953
-7.42775
-7.42762
-7.42944
-7.43304
-7.43791
-7.4434
-7.44888
-7.45385
-7.45796
-7.461
-7.46277
-7.46309
-7.46205
-7.45999
-7.45736
-7.45464
-7.45224
-7.45042
-7.44921
-7.44842
-7.44777
-7.44716
-7.44657
-7.446
-7.44537
-7.44458
-7.44363
-7.44296
-7.44333
-7.4452
-7.44823
-7.45139
-7.45353
-7.45429
-7.45416
-7.45323
-7.45174
-7.45131
-7.45429
-7.46085
-7.46734
-7.47397
-7.48425
-7.49953
-7.52154
-7.55371
-7.59805
-7.6536
-7.71786
-7.78837
-7.86244
-7.93755
-8.01172
-8.08388
-8.15281
-8.21719
-8.27695
-8.3321
-8.38263
-8.42863
-8.47019
-8.5074
-8.54034
-8.56907
-8.59363
-8.61405
-8.63032
-8.64243
-8.65033
-8.65398
-8.65331
-8.64829
-8.63882
-8.62486
-8.60633
-8.58318
-8.55533
-8.52271
-8.48522
-8.44277
-8.39528
-8.34271
-8.28503
-8.22217
-8.15407
-8.08065
-8.00185
-7.91758
-7.82775
-7.73225
-7.63095
-7.52383
-7.41109
-7.29281
-7.16882
-7.03908
-6.90359
-6.76237
-6.61544
-6.46285
-6.30465
-6.14092
-5.97172
-5.79716
-5.61734
-5.43239
-5.24243
-5.04761
-4.84809
-4.64403
-4.4356
-4.22299
-4.00637
-3.78595
-3.56191
-3.33445
-3.10378
-2.8701
-2.63362
-2.39453
-2.15305
-1.90936
-1.66364
-1.41609
-1.16692
-0.91633
-0.664472
-0.411469
-0.157527
0.0969368
0.35174
0.606884
0.862191
1.1175
1.37264
1.62745
1.88176
2.13542
2.38827
2.64012
2.8908
3.14015
3.38802
3.63429
3.87881
4.12142
4.362
4.60041
4.83653
5.07025
5.30145
5.53004
5.75592
5.979
6.19919
6.41638
6.63049
6.84141
7.04905
7.25332
7.45415
7.65144
7.84511
8.03507
8.22126
8.40361
8.58204
8.75649
8.92717
9.09343
9.2604
9.41495
-7.43514
-7.43513
-7.43517
-7.43525
-7.43534
-7.43536
-7.43557
-7.43647
-7.43854
-7.44193
-7.44644
-7.4517
-7.4573
-7.46279
-7.46781
-7.47205
-7.47532
-7.47749
-7.4785
-7.47829
-7.47689
-7.47442
-7.47108
-7.46707
-7.46265
-7.45809
-7.45369
-7.44972
-7.44637
-7.44374
-7.44175
-7.44017
-7.43874
-7.43751
-7.437
-7.43794
-7.44083
-7.44531
-7.44986
-7.45263
-7.45241
-7.45013
-7.44792
-7.44728
-7.44783
-7.44948
-7.45467
-7.46466
-7.47873
-7.49747
-7.52184
-7.55204
-7.58861
-7.63213
-7.68255
-7.73882
-7.79949
-7.86301
-7.92786
-7.9927
-8.05655
-8.11872
-8.17856
-8.23537
-8.28881
-8.33873
-8.38499
-8.42755
-8.46636
-8.50141
-8.53267
-8.56011
-8.58372
-8.60344
-8.61924
-8.63105
-8.63881
-8.64244
-8.64188
-8.63704
-8.62784
-8.61422
-8.59609
-8.57339
-8.54604
-8.51397
-8.47709
-8.43531
-8.38854
-8.33674
-8.27986
-8.21785
-8.15063
-8.07813
-8.00028
-7.91702
-7.82825
-7.73391
-7.63385
-7.52804
-7.41653
-7.29938
-7.17654
-7.04797
-6.91367
-6.77365
-6.62792
-6.47653
-6.31953
-6.15699
-5.98897
-5.81558
-5.63691
-5.45309
-5.26424
-5.07052
-4.87206
-4.66904
-4.46162
-4.25
-4.03433
-3.81483
-3.59169
-3.36509
-3.13525
-2.90236
-2.66664
-2.42828
-2.18749
-1.94445
-1.69936
-1.4524
-1.2038
-0.953747
-0.702427
-0.449977
-0.196583
0.0574325
0.311874
0.566674
0.82166
1.07668
1.33156
1.58614
1.84026
2.09374
2.34644
2.59818
2.84877
3.09806
3.34591
3.59218
3.83673
4.07941
4.32007
4.5586
4.79484
5.0287
5.26006
5.48881
5.71487
5.93812
6.15848
6.37586
6.59014
6.80124
7.00906
7.21351
7.41451
7.61196
7.8058
7.99593
8.18227
8.36472
8.5433
8.718
8.88934
9.05614
9.22585
9.37638
-7.43626
-7.43598
-7.43561
-7.43563
-7.43681
-7.43955
-7.44364
-7.44873
-7.45446
-7.46053
-7.46666
-7.47257
-7.47806
-7.48294
-7.48703
-7.49021
-7.49236
-7.49343
-7.4934
-7.49223
-7.48994
-7.4866
-7.48231
-7.47715
-7.47122
-7.46466
-7.45767
-7.45053
-7.44363
-7.43733
-7.43189
-7.42751
-7.42448
-7.42328
-7.42468
-7.42888
-7.43469
-7.44006
-7.44349
-7.44464
-7.44417
-7.44368
-7.44473
-7.44805
-7.45417
-7.46384
-7.47792
-7.49704
-7.52133
-7.5505
-7.58413
-7.62195
-7.66373
-7.70923
-7.75814
-7.81007
-7.86448
-7.92063
-7.97769
-8.03484
-8.09137
-8.14666
-8.20021
-8.25156
-8.30035
-8.34633
-8.38932
-8.42918
-8.46579
-8.49907
-8.52893
-8.5553
-8.5781
-8.59724
-8.61263
-8.6242
-8.63186
-8.6355
-8.63505
-8.6304
-8.62147
-8.60818
-8.59043
-8.56816
-8.54129
-8.50974
-8.47343
-8.43226
-8.38615
-8.33506
-8.27892
-8.21768
-8.15126
-8.07959
-8.00258
-7.92016
-7.83226
-7.73879
-7.63969
-7.53493
-7.42451
-7.30844
-7.18668
-7.0592
-6.926
-6.78708
-6.64246
-6.49218
-6.33628
-6.17482
-6.00789
-5.83557
-5.65796
-5.47518
-5.28736
-5.09464
-4.89716
-4.69509
-4.48861
-4.27788
-4.0631
-3.84446
-3.62214
-3.39635
-3.16729
-2.93515
-2.70015
-2.46249
-2.22235
-1.97995
-1.73546
-1.48908
-1.24103
-0.991505
-0.740686
-0.488747
-0.235883
0.0176756
0.271744
0.5262
0.780871
1.0356
1.29022
1.54457
1.79848
2.05179
2.30433
2.55593
2.80642
3.05563
3.30344
3.5497
3.79426
4.03698
4.27772
4.51633
4.75268
4.98666
5.21815
5.44705
5.67326
5.89667
6.11719
6.33472
6.54917
6.76043
6.9684
7.17299
7.37412
7.5717
7.76565
7.9559
8.14237
8.32501
8.50382
8.67876
8.8505
9.01727
9.18773
9.33206
-7.43857
-7.43797
-7.43758
-7.43903
-7.44329
-7.44964
-7.457
-7.46466
-7.47216
-7.47918
-7.48558
-7.49128
-7.49623
-7.50037
-7.50362
-7.50589
-7.50712
-7.50726
-7.50628
-7.50416
-7.50092
-7.49658
-7.4912
-7.48482
-7.47753
-7.46938
-7.46047
-7.45101
-7.44136
-7.43203
-7.42365
-7.41704
-7.41319
-7.41303
-7.41642
-7.42143
-7.42637
-7.4305
-7.43369
-7.43642
-7.4395
-7.44408
-7.45113
-7.46164
-7.47643
-7.49579
-7.51932
-7.54646
-7.57695
-7.61048
-7.64682
-7.68591
-7.7277
-7.77207
-7.81877
-7.86747
-7.91773
-7.96905
-8.02087
-8.07262
-8.12382
-8.17401
-8.22278
-8.26978
-8.31472
-8.35735
-8.39747
-8.4349
-8.46949
-8.50112
-8.52964
-8.55495
-8.57692
-8.59544
-8.61038
-8.62165
-8.62912
-8.63268
-8.63224
-8.62769
-8.61892
-8.60585
-8.58838
-8.56643
-8.53992
-8.50878
-8.47291
-8.43223
-8.38665
-8.33613
-8.28061
-8.22002
-8.15427
-8.08329
-8.007
-7.92533
-7.8382
-7.74553
-7.64728
-7.54339
-7.43388
-7.31869
-7.19783
-7.07124
-6.93894
-6.80091
-6.65718
-6.50778
-6.35277
-6.19217
-6.0261
-5.85462
-5.67785
-5.49587
-5.30886
-5.1169
-4.92019
-4.71885
-4.5131
-4.30307
-4.08898
-3.87099
-3.64933
-3.42416
-3.19571
-2.96416
-2.72973
-2.49262
-2.25301
-2.01111
-1.76711
-1.5212
-1.27361
-1.02452
-0.774101
-0.52256
-0.270086
-0.0168905
0.236862
0.491014
0.745418
0.999892
1.25429
1.50842
1.76215
2.01529
2.26769
2.51916
2.76954
3.01868
3.26644
3.51268
3.75725
4
4.24079
4.47946
4.7159
4.94998
5.18159
5.41061
5.63695
5.86051
6.08118
6.29886
6.51345
6.72485
6.93297
7.13772
7.339
7.53673
7.73084
7.92124
8.10787
8.29067
8.46965
8.64468
8.8164
8.98253
9.15249
9.29007
-7.44285
-7.44194
-7.44248
-7.44702
-7.45453
-7.46306
-7.4717
-7.47996
-7.48756
-7.4944
-7.50049
-7.50582
-7.51033
-7.51394
-7.5166
-7.51822
-7.51877
-7.51821
-7.51652
-7.51368
-7.5097
-7.50461
-7.49844
-7.49117
-7.48281
-7.47346
-7.46326
-7.45242
-7.44132
-7.43067
-7.42131
-7.41452
-7.41132
-7.41147
-7.41347
-7.41614
-7.41941
-7.42366
-7.4292
-7.43598
-7.44433
-7.45543
-7.47029
-7.48902
-7.51137
-7.53696
-7.5655
-7.59661
-7.63007
-7.66569
-7.70333
-7.74294
-7.78437
-7.82751
-7.87215
-7.91802
-7.96481
-8.01219
-8.05979
-8.10725
-8.1542
-8.20032
-8.2453
-8.28884
-8.33067
-8.37057
-8.40831
-8.44372
-8.4766
-8.50681
-8.53417
-8.55854
-8.57977
-8.5977
-8.61222
-8.62317
-8.63043
-8.63387
-8.63338
-8.62884
-8.62016
-8.60721
-8.58992
-8.56819
-8.54193
-8.51108
-8.47553
-8.43522
-8.39005
-8.33996
-8.28492
-8.22482
-8.1596
-8.08918
-8.01346
-7.93238
-7.84586
-7.75384
-7.65626
-7.55307
-7.44425
-7.32976
-7.20958
-7.08367
-6.95204
-6.81469
-6.67162
-6.52288
-6.36849
-6.20854
-6.04308
-5.8722
-5.69601
-5.51461
-5.32814
-5.13673
-4.94054
-4.73972
-4.53446
-4.32492
-4.1113
-3.89378
-3.67256
-3.44784
-3.21981
-2.98869
-2.75467
-2.51795
-2.27873
-2.0372
-1.79357
-1.54803
-1.30079
-1.05203
-0.801941
-0.55072
-0.29856
-0.04566
0.20782
0.46172
0.715885
0.970136
1.22432
1.47827
1.73182
1.9848
2.23705
2.48838
2.73865
2.98771
3.23541
3.48162
3.72617
3.96892
4.20972
4.44842
4.68491
4.91905
5.15073
5.37984
5.60627
5.82992
6.0507
6.26849
6.48319
6.69471
6.90295
7.10782
7.30922
7.50707
7.70129
7.8918
8.07853
8.2614
8.44039
8.61532
8.78674
8.95191
9.1211
9.25212
-7.44815
-7.44771
-7.45049
-7.45778
-7.46665
-7.47544
-7.48382
-7.49165
-7.49885
-7.50539
-7.51122
-7.51627
-7.52046
-7.52371
-7.52596
-7.52715
-7.52725
-7.52623
-7.52406
-7.52074
-7.5163
-7.51075
-7.50401
-7.49604
-7.48695
-7.47694
-7.46623
-7.4551
-7.44403
-7.43384
-7.42568
-7.42034
-7.41728
-7.41552
-7.41503
-7.4163
-7.41996
-7.42592
-7.43408
-7.44506
-7.45942
-7.47716
-7.49807
-7.52192
-7.54847
-7.57742
-7.60853
-7.64165
-7.67662
-7.71326
-7.75141
-7.79094
-7.83171
-7.8736
-7.91644
-7.96004
-8.0042
-8.04867
-8.09321
-8.13756
-8.18144
-8.22461
-8.26679
-8.30775
-8.34724
-8.38505
-8.42097
-8.4548
-8.48635
-8.51542
-8.54185
-8.56545
-8.58606
-8.6035
-8.61763
-8.62829
-8.63534
-8.63864
-8.63807
-8.6335
-8.62482
-8.61193
-8.59472
-8.57311
-8.54701
-8.51633
-8.481
-8.44093
-8.39603
-8.34626
-8.29155
-8.23183
-8.167
-8.09697
-8.02169
-7.94105
-7.855
-7.76346
-7.66638
-7.5637
-7.45538
-7.3414
-7.22171
-7.09629
-6.96513
-6.82825
-6.68562
-6.53732
-6.38336
-6.22381
-6.05874
-5.88825
-5.71242
-5.53138
-5.34524
-5.15417
-4.95828
-4.75778
-4.5528
-4.34356
-4.13022
-3.91299
-3.69204
-3.4676
-3.23985
-3.00901
-2.77526
-2.53881
-2.29985
-2.05859
-1.81522
-1.56995
-1.32299
-1.07449
-0.824662
-0.573707
-0.321814
-0.0691592
0.184082
0.437768
0.691715
0.945773
1.19976
1.45354
1.70692
1.95974
2.21183
2.46303
2.71318
2.96215
3.20978
3.45594
3.70045
3.94317
4.18395
4.42265
4.65914
4.89329
5.125
5.35414
5.58063
5.80435
6.02519
6.24305
6.45783
6.66942
6.87773
7.08267
7.28414
7.48206
7.67635
7.86691
8.05367
8.23653
8.41543
8.59011
8.76109
8.9252
9.09364
9.21857
-7.45227
-7.45312
-7.45857
-7.46693
-7.47545
-7.48362
-7.49143
-7.49883
-7.50575
-7.51208
-7.51772
-7.52258
-7.52657
-7.52962
-7.53165
-7.53261
-7.53247
-7.5312
-7.52879
-7.52526
-7.5206
-7.51474
-7.5076
-7.49935
-7.49023
-7.48037
-7.47001
-7.45961
-7.44992
-7.44172
-7.43532
-7.43012
-7.42555
-7.4223
-7.4213
-7.42291
-7.42756
-7.43576
-7.44756
-7.46281
-7.48124
-7.50263
-7.52671
-7.55323
-7.58197
-7.6127
-7.64524
-7.67942
-7.71508
-7.75204
-7.79018
-7.82936
-7.86946
-7.91035
-7.95188
-7.99392
-8.03629
-8.07882
-8.12131
-8.16355
-8.20535
-8.24648
-8.28673
-8.32588
-8.36373
-8.40006
-8.43468
-8.46737
-8.49793
-8.52618
-8.55191
-8.57493
-8.59506
-8.61213
-8.62595
-8.63636
-8.64321
-8.64636
-8.64567
-8.64102
-8.6323
-8.61939
-8.6022
-8.58062
-8.55457
-8.52397
-8.48875
-8.4488
-8.40407
-8.35449
-8.3
-8.24052
-8.17595
-8.1062
-8.03121
-7.95089
-7.86516
-7.77396
-7.67722
-7.57489
-7.46692
-7.35326
-7.2339
-7.10879
-6.97793
-6.84132
-6.69897
-6.55091
-6.39719
-6.23786
-6.073
-5.90269
-5.72705
-5.54617
-5.3602
-5.16926
-4.97352
-4.77314
-4.5683
-4.35918
-4.14598
-3.92888
-3.70808
-3.48378
-3.25618
-3.02549
-2.79191
-2.55562
-2.31683
-2.07574
-1.83256
-1.5875
-1.34073
-1.09244
-0.84283
-0.592099
-0.340432
-0.0879933
0.165045
0.418531
0.672285
0.926156
1.17997
1.43358
1.68679
1.93945
2.19138
2.44243
2.69246
2.94133
3.18889
3.43498
3.67943
3.92209
4.16282
4.40147
4.63793
4.87207
5.10377
5.33293
5.55944
5.78319
6.00408
6.22198
6.43679
6.64842
6.85677
7.06174
7.26324
7.4612
7.65553
7.84611
8.03285
8.21564
8.39439
8.56875
8.73921
8.90226
9.07003
9.18948
-7.45349
-7.45604
-7.46305
-7.47109
-7.47892
-7.48659
-7.49406
-7.50123
-7.50799
-7.51423
-7.51981
-7.52463
-7.52859
-7.5316
-7.53361
-7.53455
-7.53441
-7.53314
-7.53074
-7.52721
-7.5225
-7.51655
-7.50945
-7.50147
-7.49278
-7.48362
-7.47444
-7.46574
-7.45793
-7.451
-7.44471
-7.43894
-7.43405
-7.43104
-7.4308
-7.4339
-7.4407
-7.45126
-7.4653
-7.48264
-7.50299
-7.52609
-7.55168
-7.57951
-7.60934
-7.64097
-7.67421
-7.70888
-7.74483
-7.78189
-7.81995
-7.85887
-7.89852
-7.93877
-7.97949
-8.02057
-8.06185
-8.10319
-8.14442
-8.18537
-8.22586
-8.26572
-8.30475
-8.34276
-8.37956
-8.41496
-8.44873
-8.48069
-8.51062
-8.53832
-8.56358
-8.58621
-8.60601
-8.62279
-8.63637
-8.64657
-8.65323
-8.65622
-8.65539
-8.65063
-8.64182
-8.62883
-8.61158
-8.58995
-8.56387
-8.53325
-8.49803
-8.45813
-8.41346
-8.36398
-8.3096
-8.25025
-8.18583
-8.11625
-8.04143
-7.9613
-7.87577
-7.78477
-7.68824
-7.58611
-7.47834
-7.36487
-7.24569
-7.12074
-6.99003
-6.85355
-6.71131
-6.56335
-6.40971
-6.25044
-6.08564
-5.91536
-5.73975
-5.55889
-5.37293
-5.18198
-4.98625
-4.78585
-4.58101
-4.37189
-4.15871
-3.94162
-3.72086
-3.49659
-3.26905
-3.03842
-2.80492
-2.56871
-2.33003
-2.08905
-1.84601
-1.60109
-1.35448
-1.10636
-0.856933
-0.6064
-0.354924
-0.102684
0.150175
0.403467
0.657044
0.91073
1.16438
1.4178
1.67084
1.92332
2.17509
2.426
2.6759
2.92465
3.17211
3.41812
3.66249
3.90507
4.14573
4.38431
4.62072
4.85481
5.08649
5.31563
5.54214
5.7659
5.98681
6.20472
6.41954
6.63117
6.83953
7.04451
7.24603
7.444
7.63833
7.8289
8.0156
8.19827
8.37682
8.55082
8.72074
8.88276
9.0499
9.16459
-7.4503
-7.45423
-7.4614
-7.46889
-7.4764
-7.48388
-7.49125
-7.4984
-7.5052
-7.51154
-7.51726
-7.52225
-7.5264
-7.52962
-7.53182
-7.53296
-7.53299
-7.53187
-7.52961
-7.52618
-7.52156
-7.51581
-7.5091
-7.50171
-7.4939
-7.486
-7.47825
-7.47075
-7.46356
-7.45677
-7.45052
-7.44516
-7.44132
-7.43978
-7.44113
-7.44578
-7.45393
-7.46564
-7.48073
-7.49903
-7.52027
-7.54417
-7.57046
-7.5989
-7.62926
-7.66134
-7.69495
-7.7299
-7.76605
-7.80324
-7.84134
-7.88019
-7.91967
-7.95967
-8.00005
-8.0407
-8.08147
-8.12223
-8.16284
-8.20314
-8.24299
-8.2822
-8.32061
-8.35804
-8.39431
-8.42922
-8.46257
-8.49415
-8.52373
-8.55112
-8.57609
-8.59846
-8.61802
-8.63457
-8.64793
-8.65794
-8.66442
-8.66724
-8.66627
-8.66137
-8.65243
-8.63932
-8.62195
-8.60022
-8.57403
-8.54332
-8.50803
-8.46808
-8.42339
-8.37391
-8.31956
-8.26025
-8.19587
-8.12636
-8.05162
-7.97157
-7.88613
-7.79522
-7.69878
-7.59674
-7.48905
-7.37566
-7.25652
-7.13163
-7.00094
-6.86447
-6.72222
-6.57423
-6.42055
-6.26123
-6.09635
-5.926
-5.75029
-5.56934
-5.38327
-5.19222
-4.99636
-4.79586
-4.59091
-4.3817
-4.16844
-3.9513
-3.73049
-3.5062
-3.27864
-3.04802
-2.81453
-2.57837
-2.33973
-2.09882
-1.85587
-1.61107
-1.36459
-1.11662
-0.867367
-0.617013
-0.365719
-0.113657
0.139019
0.392127
0.645519
0.899025
1.15248
1.40572
1.65856
1.91085
2.16244
2.41318
2.66293
2.91156
3.15893
3.40484
3.6491
3.89158
4.13213
4.37062
4.60695
4.84097
5.07259
5.3017
5.52818
5.75195
5.97285
6.19075
6.40556
6.61718
6.82552
7.03049
7.23201
7.42998
7.6243
7.81484
8.00145
8.18399
8.3623
8.53591
8.70526
8.86631
9.03285
9.14351
-7.44071
-7.44529
-7.45217
-7.45964
-7.46734
-7.47502
-7.48258
-7.48995
-7.49702
-7.50366
-7.50973
-7.51508
-7.51957
-7.52311
-7.52562
-7.52703
-7.52731
-7.52644
-7.52441
-7.52125
-7.517
-7.51181
-7.50587
-7.49939
-7.4925
-7.48536
-7.47814
-7.47097
-7.46396
-7.45741
-7.45174
-7.44739
-7.44481
-7.44456
-7.44713
-7.45288
-7.46198
-7.47447
-7.49025
-7.50912
-7.53085
-7.55518
-7.58184
-7.61062
-7.64131
-7.6737
-7.70761
-7.74287
-7.7793
-7.81674
-7.85505
-7.89409
-7.93373
-7.97383
-8.01428
-8.05495
-8.0957
-8.1364
-8.17693
-8.21713
-8.25686
-8.29594
-8.3342
-8.37148
-8.40759
-8.44234
-8.47553
-8.50696
-8.5364
-8.56365
-8.58848
-8.61069
-8.63009
-8.64647
-8.65965
-8.66946
-8.67577
-8.67841
-8.67726
-8.67218
-8.66308
-8.64982
-8.63228
-8.61038
-8.58402
-8.55313
-8.51769
-8.47763
-8.43285
-8.3833
-8.3289
-8.26954
-8.20514
-8.13561
-8.06086
-7.98082
-7.89539
-7.80449
-7.70806
-7.60601
-7.49832
-7.38491
-7.26575
-7.14081
-7.01006
-6.87351
-6.73116
-6.58306
-6.42924
-6.26979
-6.10475
-5.93425
-5.75836
-5.57724
-5.39098
-5.19976
-5.00371
-4.80304
-4.59792
-4.38858
-4.17519
-3.95796
-3.73706
-3.51271
-3.28511
-3.05447
-2.82098
-2.58483
-2.34621
-2.10536
-1.86249
-1.6178
-1.37145
-1.12364
-0.874553
-0.624373
-0.37327
-0.121388
0.131086
0.384006
0.637194
0.890504
1.14375
1.39678
1.64941
1.9015
2.1529
2.40346
2.65305
2.90154
3.14881
3.39462
3.63874
3.88108
4.12151
4.35989
4.5961
4.83004
5.06159
5.29064
5.51709
5.74085
5.96175
6.17962
6.39439
6.60597
6.81428
7.01923
7.22073
7.41869
7.613
7.80349
7.99001
8.17238
8.35042
8.52363
8.69243
8.85256
9.0185
9.12585
-7.42314
-7.42772
-7.43477
-7.44302
-7.45143
-7.4596
-7.46754
-7.47526
-7.48277
-7.4899
-7.49649
-7.50234
-7.50728
-7.51123
-7.51414
-7.51594
-7.51661
-7.51616
-7.51458
-7.51193
-7.50828
-7.50374
-7.49843
-7.49249
-7.48606
-7.47927
-7.47226
-7.46525
-7.45855
-7.45252
-7.44749
-7.44389
-7.44222
-7.44296
-7.44652
-7.45318
-7.46309
-7.47627
-7.49261
-7.51194
-7.53402
-7.55866
-7.58562
-7.61471
-7.64572
-7.67846
-7.71276
-7.74841
-7.78525
-7.82313
-7.86188
-7.90138
-7.94149
-7.98206
-8.02296
-8.06403
-8.10515
-8.14619
-8.18701
-8.22747
-8.26742
-8.3067
-8.34515
-8.38259
-8.41884
-8.4537
-8.48696
-8.51843
-8.54789
-8.5751
-8.59986
-8.62197
-8.64122
-8.65743
-8.67039
-8.67996
-8.686
-8.68839
-8.687
-8.6817
-8.6724
-8.65893
-8.64119
-8.61906
-8.59245
-8.56131
-8.52566
-8.48545
-8.44056
-8.39091
-8.33641
-8.27697
-8.21249
-8.14291
-8.06812
-7.98804
-7.90258
-7.81164
-7.71515
-7.61306
-7.50531
-7.39184
-7.27261
-7.14757
-7.01672
-6.88003
-6.73754
-6.58928
-6.4353
-6.27566
-6.11044
-5.93974
-5.76365
-5.58231
-5.39583
-5.20439
-5.00813
-4.80726
-4.60198
-4.39251
-4.17901
-3.96168
-3.7407
-3.51629
-3.28865
-3.05799
-2.8245
-2.58836
-2.34977
-2.10897
-1.8662
-1.62164
-1.37544
-1.1278
-0.878911
-0.62893
-0.378025
-0.126352
0.125911
0.378614
0.631587
0.88467
1.13769
1.39048
1.64288
1.89474
2.14592
2.39629
2.6457
2.89405
3.14124
3.38695
3.63092
3.87309
4.11336
4.3516
4.5877
4.82153
5.05299
5.28197
5.50839
5.73215
5.95302
6.17084
6.38556
6.5971
6.80537
7.01029
7.21176
7.40972
7.60402
7.79446
7.98086
8.16305
8.34082
8.51362
8.68188
8.84116
9.00648
9.11124
-7.39718
-7.4016
-7.40959
-7.41926
-7.42869
-7.43744
-7.44582
-7.45408
-7.4623
-7.47023
-7.47758
-7.48408
-7.4896
-7.49408
-7.4975
-7.49982
-7.50104
-7.50113
-7.50011
-7.49801
-7.4949
-7.49085
-7.48596
-7.48034
-7.4741
-7.46743
-7.46056
-7.45377
-7.44735
-7.44164
-7.43706
-7.43409
-7.43319
-7.43477
-7.43919
-7.44666
-7.45729
-7.47106
-7.48787
-7.50757
-7.52997
-7.5549
-7.58217
-7.6116
-7.64302
-7.67624
-7.71106
-7.74729
-7.78475
-7.82326
-7.86268
-7.90286
-7.94366
-7.98491
-8.02648
-8.06821
-8.10998
-8.15164
-8.19305
-8.23404
-8.27447
-8.31421
-8.35308
-8.3909
-8.42748
-8.46264
-8.49615
-8.52778
-8.55728
-8.58441
-8.60898
-8.63084
-8.64981
-8.66569
-8.67826
-8.68741
-8.69307
-8.69514
-8.69348
-8.68797
-8.67849
-8.66486
-8.64694
-8.62458
-8.59765
-8.56616
-8.53025
-8.4899
-8.44493
-8.39519
-8.34059
-8.28105
-8.2165
-8.14686
-8.07204
-7.99193
-7.90642
-7.81543
-7.71888
-7.61673
-7.50892
-7.39539
-7.2761
-7.15097
-7.02
-6.88318
-6.74055
-6.59213
-6.438
-6.27818
-6.1128
-5.9419
-5.76564
-5.58408
-5.3974
-5.20574
-5.00932
-4.80828
-4.60289
-4.39329
-4.17972
-3.9623
-3.74128
-3.51683
-3.28918
-3.05853
-2.82508
-2.589
-2.35049
-2.10981
-1.8672
-1.62282
-1.37683
-1.12942
-0.880762
-0.631031
-0.38037
-0.128962
0.123049
0.375482
0.628192
0.880996
1.13374
1.38624
1.63837
1.88997
2.14091
2.39104
2.64024
2.88844
3.13562
3.3813
3.62511
3.86709
4.10718
4.34527
4.58124
4.81496
5.04632
5.27524
5.50164
5.72544
5.94632
6.16408
6.37873
6.59022
6.79844
7.00333
7.20478
7.40273
7.59704
7.78742
7.9737
8.15569
8.33319
8.50558
8.67331
8.8318
8.99645
9.09932
-7.36405
-7.3688
-7.37831
-7.3898
-7.40035
-7.40984
-7.419
-7.428
-7.43693
-7.4458
-7.45425
-7.46179
-7.46804
-7.47304
-7.47698
-7.47989
-7.48169
-7.48236
-7.48188
-7.48027
-7.47757
-7.47382
-7.46912
-7.46359
-7.4574
-7.45076
-7.4439
-7.43712
-7.43079
-7.42531
-7.42113
-7.4187
-7.41844
-7.42073
-7.42584
-7.43394
-7.44511
-7.45932
-7.4765
-7.49653
-7.51926
-7.54452
-7.57215
-7.602
-7.63388
-7.66763
-7.70303
-7.7399
-7.77806
-7.81734
-7.85758
-7.8986
-7.94025
-7.98235
-8.02476
-8.06734
-8.10993
-8.15238
-8.19453
-8.23623
-8.27731
-8.3176
-8.35696
-8.39519
-8.43211
-8.46751
-8.50114
-8.53276
-8.56208
-8.58885
-8.61295
-8.63432
-8.6528
-8.66816
-8.68005
-8.68847
-8.69361
-8.69535
-8.69353
-8.68798
-8.67855
-8.66498
-8.64706
-8.62461
-8.59742
-8.56551
-8.52929
-8.48886
-8.44385
-8.39402
-8.33928
-8.27961
-8.21495
-8.14525
-8.0704
-7.99025
-7.90467
-7.81358
-7.71694
-7.61471
-7.50683
-7.39324
-7.27387
-7.14866
-7.01756
-6.8806
-6.73782
-6.58925
-6.43496
-6.27501
-6.10946
-5.93841
-5.76196
-5.58026
-5.39346
-5.20172
-5.00521
-4.80411
-4.59862
-4.38892
-4.1752
-3.95766
-3.73653
-3.51201
-3.28433
-3.05369
-2.82032
-2.58443
-2.34623
-2.1059
-1.86361
-1.61954
-1.37387
-1.12681
-0.878513
-0.629149
-0.378871
-0.127854
0.123755
0.375785
0.628076
0.880453
1.13276
1.38483
1.63652
1.88771
2.13824
2.38797
2.63676
2.8846
3.13161
3.3772
3.62078
3.86253
4.10242
4.34033
4.57614
4.80974
5.041
5.26983
5.49623
5.72019
5.94117
6.15888
6.37347
6.5849
6.7931
6.99797
7.19942
7.39741
7.59176
7.78211
7.96826
8.15006
8.32728
8.49927
8.6665
8.82425
8.98818
9.08981
-7.32676
-7.33241
-7.34399
-7.35769
-7.3694
-7.37919
-7.38877
-7.39885
-7.4091
-7.41915
-7.4287
-7.43731
-7.44442
-7.45
-7.45446
-7.45793
-7.4603
-7.4615
-7.46148
-7.46022
-7.45775
-7.45412
-7.44945
-7.44384
-7.4375
-7.43064
-7.42358
-7.41667
-7.41033
-7.40497
-7.40105
-7.39899
-7.39916
-7.40188
-7.40738
-7.41581
-7.42724
-7.44167
-7.45905
-7.47927
-7.50221
-7.52773
-7.55569
-7.58594
-7.6183
-7.65258
-7.68857
-7.72611
-7.76503
-7.80513
-7.84624
-7.88817
-7.93075
-7.97381
-8.01717
-8.06066
-8.10411
-8.14733
-8.19016
-8.23242
-8.27397
-8.31463
-8.35423
-8.39261
-8.42958
-8.4649
-8.49835
-8.52963
-8.55839
-8.58428
-8.60737
-8.62786
-8.64568
-8.66036
-8.67114
-8.67824
-8.68247
-8.68381
-8.68197
-8.67669
-8.66766
-8.65452
-8.63698
-8.61492
-8.58839
-8.55739
-8.52187
-8.48171
-8.43674
-8.38682
-8.33194
-8.2721
-8.2073
-8.13746
-8.06246
-7.98215
-7.89641
-7.80514
-7.70833
-7.60594
-7.49791
-7.38418
-7.26466
-7.13928
-7.00799
-6.87084
-6.72785
-6.57909
-6.42459
-6.26444
-6.09867
-5.92742
-5.75075
-5.56888
-5.38193
-5.19009
-4.99348
-4.7923
-4.58669
-4.37685
-4.16297
-3.94531
-3.72405
-3.49947
-3.27174
-3.04112
-2.80782
-2.57212
-2.33424
-2.09428
-1.85233
-1.60859
-1.36329
-1.11662
-0.868751
-0.619818
-0.370009
-0.119463
0.131646
0.383173
0.634935
0.886774
1.13852
1.39004
1.64117
1.89179
2.14174
2.39086
2.63899
2.88599
3.13175
3.37619
3.61915
3.86048
4.1
4.33758
4.57308
4.80639
5.03738
5.26596
5.49217
5.71615
5.93719
6.15482
6.36933
6.58073
6.7889
6.99377
7.19523
7.39333
7.58785
7.77824
7.96428
8.14589
8.32284
8.49447
8.66122
8.81828
8.98145
9.08248
-7.28893
-7.29583
-7.30992
-7.32556
-7.3376
-7.34785
-7.35854
-7.3698
-7.38116
-7.39232
-7.40297
-7.4126
-7.42056
-7.42684
-7.43194
-7.43605
-7.439
-7.44067
-7.44101
-7.43998
-7.4376
-7.4339
-7.42901
-7.42307
-7.41631
-7.40902
-7.40154
-7.39427
-7.38764
-7.38208
-7.37802
-7.37585
-7.37593
-7.37856
-7.38394
-7.39224
-7.40351
-7.4178
-7.43504
-7.45519
-7.47815
-7.50383
-7.53207
-7.56272
-7.59557
-7.63042
-7.66708
-7.70538
-7.74512
-7.78611
-7.82813
-7.87098
-7.91446
-7.95837
-8.00253
-8.04672
-8.09077
-8.13447
-8.17764
-8.22013
-8.26177
-8.30241
-8.34188
-8.38002
-8.41667
-8.45162
-8.48464
-8.51536
-8.54321
-8.56735
-8.58821
-8.60687
-8.62363
-8.63819
-8.64986
-8.65815
-8.66292
-8.66432
-8.6625
-8.65732
-8.64843
-8.63546
-8.61806
-8.59627
-8.57035
-8.54027
-8.50542
-8.46549
-8.42053
-8.37058
-8.31565
-8.25577
-8.1909
-8.12096
-8.04585
-7.96544
-7.87959
-7.78825
-7.69139
-7.58896
-7.48089
-7.36711
-7.24754
-7.12209
-6.99075
-6.85353
-6.71048
-6.56164
-6.40706
-6.24681
-6.08096
-5.90959
-5.73283
-5.55084
-5.36378
-5.17183
-4.97513