/*--------------------------------*- C++ -*----------------------------------*\
  =========                 |
  \\      /  F ield         | OpenFOAM: The Open Source CFD Toolbox
   \\    /   O peration     | Website:  https://openfoam.org
    \\  /    A nd           | Version:  8
     \\/     M anipulation  |
\*---------------------------------------------------------------------------*/
FoamFile
{
    version     2.0;
    format      ascii;
    class       volVectorField;
    location    "1200";
    object      U;
}
// * * * * * * * * * * * * * * * * * * * * * * * * * * * * * * * * * * * * * //

dimensions      [0 1 -1 0 0 0 0];

internalField   nonuniform List<vector> 
12225
(
(9.75394 0.0521096 0)
(9.27619 0.103488 0)
(8.8063 0.12081 0)
(8.35369 0.116907 0)
(7.97114 0.0887361 0)
(7.65286 0.0601262 0)
(7.3961 0.044253 0)
(7.1945 0.031222 0)
(7.0216 0.0336775 0)
(6.89139 0.0315561 0)
(6.79498 0.0155463 0)
(6.72557 -7.92732e-05 0)
(6.67299 -0.00371617 0)
(6.6372 0.00771227 0)
(6.59999 0.00262215 0)
(6.57498 -0.0104164 0)
(6.55905 -0.00367227 0)
(6.56091 -0.00220313 0)
(10.0926 0.0577347 0)
(10.2902 0.0938017 0)
(10.3897 0.0919311 0)
(10.4209 0.0890722 0)
(10.3979 0.0888508 0)
(10.355 0.0848561 0)
(10.2934 0.0767518 0)
(10.2028 0.070634 0)
(10.1148 0.0621431 0)
(10.0045 0.0529638 0)
(9.90309 0.0474522 0)
(9.80073 0.0439299 0)
(9.70926 0.0386446 0)
(9.61459 0.032398 0)
(9.52749 0.0300871 0)
(9.45163 0.027437 0)
(9.38359 0.0204268 0)
(9.313 0.013201 0)
(10.0164 0.0416637 0)
(10.0639 0.0682434 0)
(10.1183 0.071982 0)
(10.1663 0.0772349 0)
(10.2115 0.0791277 0)
(10.2507 0.0787409 0)
(10.28 0.0787744 0)
(10.2993 0.0776432 0)
(10.3101 0.0751046 0)
(10.3119 0.070994 0)
(10.3057 0.0660117 0)
(10.2924 0.0612068 0)
(10.2737 0.057467 0)
(10.2527 0.0554493 0)
(10.2314 0.0519719 0)
(10.2086 0.0476237 0)
(10.1855 0.0436872 0)
(10.161 0.0374588 0)
(10.0102 0.0297414 0)
(10.0333 0.0575467 0)
(10.0645 0.0661246 0)
(10.0858 0.0718669 0)
(10.1037 0.0727529 0)
(10.1202 0.0701889 0)
(10.1369 0.0683787 0)
(10.1534 0.0669693 0)
(10.1694 0.0653345 0)
(10.1837 0.0628166 0)
(10.195 0.0594159 0)
(10.2037 0.0563043 0)
(10.2101 0.0541638 0)
(10.2153 0.0528464 0)
(10.2197 0.050423 0)
(10.2224 0.0471573 0)
(10.2239 0.0440543 0)
(10.2242 0.0399078 0)
(10.006 0.0249783 0)
(10.025 0.0519749 0)
(10.0506 0.0622198 0)
(10.0688 0.066887 0)
(10.083 0.0676707 0)
(10.095 0.0660884 0)
(10.1059 0.0645221 0)
(10.1164 0.0631467 0)
(10.1268 0.0615959 0)
(10.1369 0.0592694 0)
(10.1462 0.0564659 0)
(10.1542 0.053839 0)
(10.1615 0.0517552 0)
(10.1686 0.0501024 0)
(10.1756 0.0478177 0)
(10.1817 0.0449668 0)
(10.1871 0.0419704 0)
(10.1915 0.0384081 0)
(10.0027 0.021001 0)
(10.02 0.0452951 0)
(10.0406 0.0561266 0)
(10.0576 0.0607599 0)
(10.0711 0.0623905 0)
(10.0828 0.0619744 0)
(10.0931 0.0608418 0)
(10.1025 0.0594689 0)
(10.1113 0.0577089 0)
(10.1195 0.0554769 0)
(10.1271 0.0529317 0)
(10.1339 0.0504361 0)
(10.1404 0.048342 0)
(10.1467 0.0464809 0)
(10.153 0.0442842 0)
(10.1588 0.0417155 0)
(10.1642 0.03892 0)
(10.1688 0.0357791 0)
(10.0011 0.0171498 0)
(10.0165 0.0394675 0)
(10.0331 0.0502518 0)
(10.0487 0.0552806 0)
(10.0616 0.0574033 0)
(10.0729 0.0576037 0)
(10.0831 0.0568205 0)
(10.0923 0.0555301 0)
(10.1007 0.053801 0)
(10.1084 0.051712 0)
(10.1153 0.0493708 0)
(10.1217 0.047107 0)
(10.1276 0.0450189 0)
(10.1333 0.0430232 0)
(10.1389 0.0408499 0)
(10.1441 0.038451 0)
(10.149 0.0358454 0)
(10.1533 0.0330004 0)
(10.0013 0.0139866 0)
(10.0135 0.0342726 0)
(10.0278 0.0449436 0)
(10.042 0.050242 0)
(10.0542 0.052773 0)
(10.0652 0.0535362 0)
(10.0752 0.0531366 0)
(10.0843 0.0520505 0)
(10.0926 0.0504665 0)
(10.1001 0.0485618 0)
(10.1069 0.0464275 0)
(10.1131 0.0442856 0)
(10.1189 0.0422006 0)
(10.1244 0.0401445 0)
(10.1296 0.0379843 0)
(10.1345 0.0356656 0)
(10.139 0.0331676 0)
(10.143 0.030537 0)
(10.0012 0.0118178 0)
(10.0112 0.0304322 0)
(10.0238 0.0405873 0)
(10.0369 0.0459363 0)
(10.0485 0.0486432 0)
(10.0591 0.0496571 0)
(10.0688 0.0495126 0)
(10.0777 0.0486024 0)
(10.0858 0.0471681 0)
(10.0931 0.0454097 0)
(10.0997 0.0434463 0)
(10.1059 0.0414363 0)
(10.1115 0.0394451 0)
(10.1168 0.0374455 0)
(10.1218 0.0353547 0)
(10.1265 0.0331309 0)
(10.1308 0.0307754 0)
(10.1346 0.028325 0)
(10.001 0.0098424 0)
(10.009 0.0266731 0)
(10.02 0.0360428 0)
(10.0319 0.0413057 0)
(10.0428 0.0441152 0)
(10.0528 0.0453433 0)
(10.0622 0.0454214 0)
(10.0708 0.0446963 0)
(10.0786 0.0434407 0)
(10.0857 0.0418652 0)
(10.0922 0.0400904 0)
(10.0982 0.0382291 0)
(10.1037 0.0363436 0)
(10.1089 0.0344183 0)
(10.1137 0.0324127 0)
(10.1182 0.0303071 0)
(10.1223 0.0280964 0)
(10.126 0.0258269 0)
(10.0008 0.00807716 0)
(10.007 0.0228206 0)
(10.0165 0.0313259 0)
(10.0271 0.0363836 0)
(10.0372 0.0392095 0)
(10.0465 0.0405748 0)
(10.0554 0.0408413 0)
(10.0636 0.0403106 0)
(10.0711 0.0392607 0)
(10.078 0.0378827 0)
(10.0843 0.0362972 0)
(10.0901 0.0345971 0)
(10.0956 0.0328276 0)
(10.1006 0.0309989 0)
(10.1053 0.0290983 0)
(10.1096 0.0271175 0)
(10.1136 0.0250707 0)
(10.1172 0.0229889 0)
(10.0006 0.00652506 0)
(10.0055 0.019045 0)
(10.0135 0.0265584 0)
(10.0227 0.0312723 0)
(10.0318 0.0340045 0)
(10.0405 0.035411 0)
(10.0487 0.0358001 0)
(10.0565 0.0354437 0)
(10.0636 0.0345757 0)
(10.0703 0.0333907 0)
(10.0764 0.0319883 0)
(10.0821 0.0304479 0)
(10.0873 0.028814 0)
(10.0922 0.0271079 0)
(10.0967 0.025339 0)
(10.1009 0.0235088 0)
(10.1047 0.0216414 0)
(10.1082 0.0197565 0)
(10.0005 0.00516272 0)
(10.0043 0.0153957 0)
(10.0109 0.0217779 0)
(10.0189 0.0259908 0)
(10.027 0.0285149 0)
(10.0349 0.0298539 0)
(10.0425 0.0303038 0)
(10.0498 0.0300751 0)
(10.0565 0.0293727 0)
(10.0629 0.028359 0)
(10.0687 0.0271296 0)
(10.0742 0.025753 0)
(10.0793 0.0242731 0)
(10.084 0.0227183 0)
(10.0884 0.0211031 0)
(10.0924 0.0194523 0)
(10.0961 0.0177651 0)
(10.0995 0.0160926 0)
(10.0004 0.00393977 0)
(10.0034 0.0119436 0)
(10.0088 0.0170649 0)
(10.0156 0.020603 0)
(10.0228 0.0227671 0)
(10.0299 0.0239326 0)
(10.0369 0.0243565 0)
(10.0436 0.0241918 0)
(10.05 0.0236183 0)
(10.056 0.0227483 0)
(10.0616 0.0216825 0)
(10.0669 0.0204735 0)
(10.0718 0.0191622 0)
(10.0763 0.0177815 0)
(10.0806 0.0163497 0)
(10.0845 0.0148853 0)
(10.0881 0.0134029 0)
(10.0914 0.0119302 0)
(10.0003 0.00282632 0)
(10.0027 0.00869483 0)
(10.0072 0.0124641 0)
(10.013 0.0151431 0)
(10.0193 0.0167972 0)
(10.0257 0.0176741 0)
(10.0321 0.0179624 0)
(10.0383 0.0177991 0)
(10.0443 0.0172894 0)
(10.05 0.0165388 0)
(10.0553 0.015615 0)
(10.0604 0.0145669 0)
(10.0651 0.0134347 0)
(10.0695 0.0122375 0)
(10.0736 0.0110014 0)
(10.0774 0.00973607 0)
(10.0809 0.00846615 0)
(10.0841 0.00720481 0)
(10.0002 0.00177794 0)
(10.0022 0.00560639 0)
(10.006 0.00793852 0)
(10.0109 0.00960284 0)
(10.0165 0.0105988 0)
(10.0223 0.0110547 0)
(10.0282 0.0111152 0)
(10.034 0.0108572 0)
(10.0396 0.0103563 0)
(10.045 0.00967702 0)
(10.0501 0.00886934 0)
(10.055 0.00797109 0)
(10.0595 0.00700701 0)
(10.0638 0.00599792 0)
(10.0677 0.00495937 0)
(10.0714 0.00390674 0)
(10.0748 0.00285114 0)
(10.0779 0.00181446 0)
(10.0002 0.00075018 0)
(10.0019 0.00256585 0)
(10.0051 0.00337248 0)
(10.0096 0.00389562 0)
(10.0146 0.00407916 0)
(10.02 0.004002 0)
(10.0255 0.00371899 0)
(10.031 0.00328192 0)
(10.0363 0.00271538 0)
(10.0415 0.0020612 0)
(10.0464 0.00133649 0)
(10.0511 0.000567474 0)
(10.0555 -0.000236659 0)
(10.0596 -0.00106014 0)
(10.0634 -0.00189604 0)
(10.067 -0.00273249 0)
(10.0704 -0.00356497 0)
(10.0735 -0.00437494 0)
(10.0002 -0.000261821 0)
(10.0018 -0.000433983 0)
(10.0048 -0.00115697 0)
(10.009 -0.00184172 0)
(10.0139 -0.00252289 0)
(10.0191 -0.00321052 0)
(10.0244 -0.00388996 0)
(10.0297 -0.00456778 0)
(10.0349 -0.0052377 0)
(10.04 -0.00590598 0)
(10.0448 -0.00656776 0)
(10.0494 -0.00722722 0)
(10.0537 -0.00788028 0)
(10.0578 -0.00852807 0)
(10.0616 -0.00916755 0)
(10.0651 -0.00979596 0)
(10.0685 -0.0104133 0)
(10.0715 -0.0110065 0)
(10.0002 -0.00122386 0)
(10.0018 -0.00327012 0)
(10.005 -0.00545087 0)
(10.0093 -0.00727804 0)
(10.0143 -0.00877751 0)
(10.0196 -0.0100396 0)
(10.025 -0.0110955 0)
(10.0304 -0.0119949 0)
(10.0357 -0.0127628 0)
(10.0408 -0.0134374 0)
(10.0456 -0.0140391 0)
(10.0502 -0.0145897 0)
(10.0545 -0.0151006 0)
(10.0586 -0.0155822 0)
(10.0624 -0.0160411 0)
(10.0659 -0.01648 0)
(10.0692 -0.016904 0)
(10.0723 -0.0173053 0)
(10.0002 -0.00216558 0)
(10.0021 -0.00598957 0)
(10.0056 -0.00955999 0)
(10.0104 -0.0124082 0)
(10.0157 -0.0146306 0)
(10.0213 -0.016373 0)
(10.027 -0.0177394 0)
(10.0326 -0.0187956 0)
(10.0381 -0.019617 0)
(10.0433 -0.0202612 0)
(10.0482 -0.0207823 0)
(10.0529 -0.0212109 0)
(10.0573 -0.0215769 0)
(10.0613 -0.0218961 0)
(10.0652 -0.022185 0)
(10.0687 -0.0224498 0)
(10.072 -0.0227003 0)
(10.0751 -0.0229318 0)
(10.0003 -0.00315548 0)
(10.0025 -0.00877472 0)
(10.0067 -0.0136862 0)
(10.0121 -0.0174519 0)
(10.0181 -0.0202729 0)
(10.0242 -0.0224098 0)
(10.0302 -0.0239978 0)
(10.0361 -0.0251451 0)
(10.0419 -0.0259573 0)
(10.0473 -0.0265324 0)
(10.0524 -0.0269375 0)
(10.0571 -0.0272268 0)
(10.0616 -0.0274338 0)
(10.0658 -0.0275899 0)
(10.0696 -0.0277107 0)
(10.0732 -0.0278123 0)
(10.0766 -0.0279013 0)
(10.0797 -0.0279787 0)
(10.0004 -0.0042674 0)
(10.0032 -0.0117736 0)
(10.0083 -0.0179745 0)
(10.0147 -0.0225139 0)
(10.0214 -0.0258199 0)
(10.028 -0.0282554 0)
(10.0346 -0.0299826 0)
(10.0409 -0.0311409 0)
(10.0469 -0.0318838 0)
(10.0526 -0.0323394 0)
(10.0579 -0.0325976 0)
(10.0628 -0.0327203 0)
(10.0674 -0.0327575 0)
(10.0716 -0.0327422 0)
(10.0755 -0.0326995 0)
(10.0791 -0.0326421 0)
(10.0825 -0.0325829 0)
(10.0856 -0.0325183 0)
(10.0005 -0.00558221 0)
(10.0042 -0.0151435 0)
(10.0107 -0.0225122 0)
(10.0182 -0.0276536 0)
(10.0257 -0.0313305 0)
(10.033 -0.0339742 0)
(10.0401 -0.0357418 0)
(10.0469 -0.0368302 0)
(10.0533 -0.0374445 0)
(10.0592 -0.0377366 0)
(10.0647 -0.037812 0)
(10.0698 -0.0377476 0)
(10.0744 -0.0375994 0)
(10.0787 -0.0374108 0)
(10.0827 -0.0372055 0)
(10.0864 -0.0370003 0)
(10.0899 -0.0368049 0)
(10.093 -0.0366137 0)
(10.0007 -0.00720498 0)
(10.0058 -0.0190293 0)
(10.014 -0.0273459 0)
(10.0228 -0.0328598 0)
(10.0311 -0.0368051 0)
(10.0391 -0.0395731 0)
(10.0469 -0.0412928 0)
(10.0542 -0.042236 0)
(10.0609 -0.0426577 0)
(10.0671 -0.0427418 0)
(10.0728 -0.0426078 0)
(10.0781 -0.042335 0)
(10.0829 -0.0420005 0)
(10.0874 -0.041642 0)
(10.0915 -0.041288 0)
(10.0953 -0.0409515 0)
(10.0988 -0.0406437 0)
(10.1021 -0.0403521 0)
(10.001 -0.00924358 0)
(10.0081 -0.0235757 0)
(10.0186 -0.0325322 0)
(10.0287 -0.0381524 0)
(10.0379 -0.042201 0)
(10.0467 -0.0449674 0)
(10.0552 -0.0465574 0)
(10.0631 -0.0473254 0)
(10.0702 -0.0475537 0)
(10.0768 -0.0474288 0)
(10.0829 -0.047082 0)
(10.0885 -0.0466221 0)
(10.0936 -0.0461011 0)
(10.0984 -0.0455698 0)
(10.1027 -0.0450578 0)
(10.1068 -0.0445851 0)
(10.1106 -0.0441601 0)
(10.114 -0.0437641 0)
(10.0015 -0.0119117 0)
(10.0115 -0.0286994 0)
(10.025 -0.0380297 0)
(10.0368 -0.0437227 0)
(10.0471 -0.0477339 0)
(10.057 -0.0502751 0)
(10.0665 -0.0515809 0)
(10.0752 -0.0521104 0)
(10.0833 -0.0521299 0)
(10.0907 -0.0518645 0)
(10.0976 -0.0514008 0)
(10.104 -0.0507995 0)
(10.1098 -0.0501415 0)
(10.1152 -0.0494705 0)
(10.12 -0.0488291 0)
(10.1245 -0.0482432 0)
(10.1286 -0.0477202 0)
(10.1324 -0.0472296 0)
(10.0027 -0.0161648 0)
(10.0179 -0.0342496 0)
(10.0356 -0.0429979 0)
(10.0504 -0.049056 0)
(10.0634 -0.0535231 0)
(10.0759 -0.0560566 0)
(10.088 -0.057093 0)
(10.0992 -0.057307 0)
(10.1094 -0.0570412 0)
(10.1188 -0.0564135 0)
(10.1276 -0.0555998 0)
(10.1354 -0.0546926 0)
(10.1424 -0.0537402 0)
(10.1486 -0.0527987 0)
(10.154 -0.0519283 0)
(10.1587 -0.0511492 0)
(10.1629 -0.0504668 0)
(10.1664 -0.0498275 0)
(10.0072 -0.0241883 0)
(10.0367 -0.0421954 0)
(10.0657 -0.0479982 0)
(10.0907 -0.0533473 0)
(10.114 -0.0583898 0)
(10.1361 -0.0616543 0)
(10.1563 -0.0633499 0)
(10.1737 -0.0640197 0)
(10.1885 -0.0640471 0)
(10.2006 -0.0635479 0)
(10.2099 -0.062621 0)
(10.2168 -0.0613983 0)
(10.2215 -0.0600206 0)
(10.2243 -0.0586059 0)
(10.2255 -0.0572573 0)
(10.2254 -0.0560692 0)
(10.2243 -0.0550773 0)
(10.2224 -0.0543603 0)
(10.0406 -0.0351466 0)
(10.1348 -0.0636116 0)
(10.2089 -0.0694095 0)
(10.2576 -0.071317 0)
(10.2884 -0.0723944 0)
(10.3052 -0.0720716 0)
(10.3091 -0.0705574 0)
(10.3019 -0.0684047 0)
(10.2856 -0.0659245 0)
(10.2626 -0.0632369 0)
(10.2348 -0.0604555 0)
(10.2037 -0.057676 0)
(10.1702 -0.0549733 0)
(10.1354 -0.052403 0)
(10.0997 -0.0500593 0)
(10.0638 -0.0479842 0)
(10.0284 -0.0462206 0)
(9.99429 -0.0452581 0)
(9.8925 -0.0326828 0)
(9.66874 -0.0671443 0)
(9.42288 -0.0807723 0)
(9.17112 -0.0836216 0)
(8.93148 -0.0816928 0)
(8.71217 -0.0769356 0)
(8.51342 -0.0708282 0)
(8.33485 -0.0639963 0)
(8.17626 -0.0570434 0)
(8.03594 -0.0504111 0)
(7.91253 -0.0442535 0)
(7.80385 -0.0386347 0)
(7.70842 -0.0335435 0)
(7.62449 -0.0289733 0)
(7.55064 -0.0249075 0)
(7.48547 -0.0214738 0)
(7.42674 -0.0187564 0)
(7.37373 -0.0170628 0)
(-0.0027622 0.00769318 0)
(-0.0128991 0.012773 0)
(-0.0266547 0.0138884 0)
(-0.041228 0.0118117 0)
(-0.0518133 0.00592723 0)
(-0.0508195 -0.00372637 0)
(-0.0349119 -0.0167515 -8.12324e-19)
(-0.0075025 -0.0303206 9.25119e-19)
(0.028134 -0.0404429 0)
(0.0690586 -0.0453518 5.31393e-19)
(0.112345 -0.0457289 0)
(0.154531 -0.042766 0)
(0.19286 -0.0375319 0)
(0.225669 -0.0308419 -2.60436e-19)
(0.252087 -0.0232656 0)
(0.271697 -0.0151658 0)
(0.284155 -0.00674391 2.25388e-19)
(0.289694 0.0020709 0)
(0.28713 0.0111593 0)
(0.276739 0.0200204 0)
(0.259173 0.027884 -2.42222e-19)
(0.235099 0.0339515 0)
(0.205479 0.0374885 -2.87411e-19)
(0.171749 0.0378802 0)
(0.135803 0.034718 0)
(0.0999433 0.0280503 -4.70036e-19)
(0.0666792 0.0186567 0)
(0.0383806 0.00835051 7.82666e-19)
(0.0166795 -0.000252518 0)
(0.0018863 -0.00530567 -1.33236e-18)
(-0.00716532 -0.00760801 0)
(-0.0114803 -0.00921424 0)
(-0.00957918 -0.0113662 0)
(-0.00153813 -0.0150175 0)
(0.0139411 -0.0205634 0)
(0.0371321 -0.026649 7.94091e-19)
(0.0662418 -0.030809 0)
(0.0968916 -0.03071 -9.54985e-19)
(0.123966 -0.0260829 0)
(0.143307 -0.0184095 7.69605e-19)
(0.153349 -0.0102227 0)
(0.155213 -0.00373989 0)
(0.1518 -0.000265103 -7.6494e-19)
(0.147186 -0.000771593 0)
(0.144649 -0.00601677 -7.97167e-19)
(0.142341 -0.0153211 8.0352e-19)
(0.133547 -0.0235216 0)
(0.110678 -0.02052 8.78958e-19)
(0.0680278 -0.0022821 1.02972e-18)
(-0.00376465 0.0174218 0)
(-0.0999058 0.0375299 0)
(-0.205706 0.0615786 0)
(-0.323989 0.081525 0)
(-0.453268 0.0967667 0)
(-0.586545 0.109371 -1.87736e-19)
(-0.721263 0.113954 0)
(-0.855347 0.113204 1.46735e-19)
(-0.983528 0.108149 0)
(-1.10568 0.100739 0)
(-1.21984 0.0937439 -1.14775e-19)
(-1.32506 0.0864726 0)
(-1.42238 0.0799184 1.02498e-19)
(-1.51198 0.0719063 0)
(-1.59408 0.0643644 0)
(-1.66948 0.058876 0)
(-1.73908 0.0538032 -8.89691e-20)
(-1.80352 0.0493232 0)
(-1.86338 0.0454284 0)
(-1.91925 0.0420214 -8.26823e-20)
(-1.97159 0.0390418 0)
(-2.02084 0.0364288 -7.94811e-20)
(-2.06734 0.0341106 0)
(-2.11139 0.0320437 0)
(-2.15321 0.0301776 0)
(-2.193 0.0284792 7.43824e-20)
(-2.23092 0.0269164 0)
(-2.26709 0.0254661 0)
(-2.30161 0.0241079 7.12322e-20)
(-2.33457 0.0228271 7.02634e-20)
(-2.36603 0.0216103 0)
(-2.39603 0.0204483 6.84133e-20)
(-2.42464 0.0193317 0)
(-2.45186 0.018255 1.33304e-19)
(-2.47774 0.0172104 0)
(-2.5023 0.0161944 1.29907e-19)
(-2.52555 0.0151997 0)
(-2.5475 0.014224 -1.26592e-19)
(-2.56815 0.0132587 0)
(-2.58751 0.0122999 0)
(-2.60557 0.0113425 0)
(-2.62234 0.0103752 1.20073e-19)
(-2.63778 0.00939351 0)
(-2.6519 0.00838906 -1.1682e-19)
(-2.66464 0.00735527 0)
(-2.67598 0.00628755 1.13554e-19)
(-2.68586 0.00518221 1.11915e-19)
(-2.69422 0.00404761 1.10271e-19)
(-2.701 0.00290362 0)
(-2.70612 0.0018091 0)
(-2.70952 0.000837599 0)
(-2.71123 3.67395e-05 0)
(-2.71173 -0.000670729 0)
(-2.71095 -0.00135721 0)
(-2.70891 -0.0020343 0)
(-2.70563 -0.00270455 0)
(-2.70109 -0.00337182 -9.44037e-20)
(-2.6953 -0.00403279 -9.24397e-20)
(-2.68823 -0.0046896 0)
(-2.67991 -0.00533934 0)
(-2.67031 -0.00598255 0)
(-2.65945 -0.00661775 -8.40702e-20)
(-2.64733 -0.00724372 0)
(-2.63394 -0.00786082 0)
(-2.6193 -0.00846588 0)
(-2.60342 -0.00906137 0)
(-2.5863 -0.00964212 7.2284e-20)
(-2.56795 -0.0102128 0)
(-2.5484 -0.0107665 0)
(-2.52766 -0.01131 -6.44063e-20)
(-2.50573 -0.0118345 6.16356e-20)
(-2.48265 -0.0123488 0)
(-2.45842 -0.012843 5.58665e-20)
(-2.43307 -0.0133271 0)
(-2.40662 -0.0137906 -4.97836e-20)
(-2.37909 -0.0142443 0)
(-2.35049 -0.0146777 0)
(-2.32086 -0.0151008 0)
(-2.29021 -0.0154993 0)
(-2.25858 -0.0158796 0)
(-2.22598 -0.0162474 5.90458e-20)
(-2.19243 -0.0165951 5.1665e-20)
(-2.15798 -0.0169141 0)
(-2.12262 -0.0172003 0)
(-2.08641 -0.0173996 0)
(-2.04938 -0.017469 -2.01498e-20)
(-2.01163 -0.017336 0)
(-1.9732 -0.0170966 0)
(-1.93402 -0.0171526 0)
(-1.89404 -0.0174386 1.49167e-20)
(-1.85331 -0.0176585 -2.43453e-20)
(-1.81188 -0.0178717 0)
(-1.76976 -0.0180735 0)
(-1.72699 -0.0182618 -5.44817e-20)
(-1.68358 -0.0184435 -6.52062e-20)
(-1.63955 -0.0186136 0)
(-1.59492 -0.0187801 0)
(-1.5497 -0.0189362 9.97483e-20)
(-1.5039 -0.0190927 -1.12143e-19)
(-1.45756 -0.0192474 0)
(-1.41072 -0.0194033 0)
(-1.3634 -0.0195631 -1.52376e-19)
(-1.31562 -0.0197193 0)
(-1.26739 -0.0198751 0)
(-1.21874 -0.0200283 -1.98032e-19)
(-1.16969 -0.0201805 0)
(-1.12025 -0.0203354 -2.32103e-19)
(-1.07046 -0.0204923 0)
(-1.0203 -0.0206558 0)
(-0.969801 -0.0208256 0)
(-0.918949 -0.0210049 3.11286e-19)
(-0.867745 -0.0211939 0)
(-0.816187 -0.0213936 0)
(-0.764273 -0.0216035 0)
(-0.712004 -0.0218242 0)
(-0.659384 -0.0220569 0)
(-0.606412 -0.0223036 0)
(-0.553089 -0.0225675 5.02817e-19)
(-0.499408 -0.0228514 5.38343e-19)
(-0.445363 -0.0231581 0)
(-0.390943 -0.0234882 0)
(-0.336144 -0.0238403 0)
(-0.280975 -0.0242101 -7.12892e-19)
(-0.225469 -0.0246031 0)
(-0.169704 -0.0250045 1.65435e-18)
(-0.113843 -0.0253531 -1.78761e-18)
(-0.0582548 -0.0255108 -1.93643e-18)
(-0.00313339 -0.0250836 2.04528e-18)
(0.0482727 -0.0233738 -2.03472e-18)
(0.105114 -0.0209016 1.97096e-18)
(0.121264 -0.00957158 0)
(-0.000184154 0.0205998 0)
(-0.00582092 0.0357664 0)
(-0.0122855 0.0369765 2.16721e-18)
(-0.0126799 0.0274212 0)
(0.00140483 0.00545995 -2.26143e-18)
(0.0309619 -0.0315744 -1.43536e-18)
(0.0699993 -0.0730422 -4.52528e-19)
(0.114567 -0.107005 -3.23154e-19)
(0.160661 -0.127816 0)
(0.20486 -0.135153 -2.11534e-19)
(0.244971 -0.131684 0)
(0.280051 -0.120811 0)
(0.309778 -0.105425 3.15628e-19)
(0.334167 -0.0876092 1.50414e-19)
(0.353445 -0.0687107 -2.93344e-19)
(0.367925 -0.049502 -2.90067e-19)
(0.377995 -0.0303659 -1.45135e-19)
(0.383829 -0.0114437 0)
(0.38644 0.00727964 0)
(0.385699 0.0256194 0)
(0.381211 0.0432034 -1.53609e-19)
(0.372473 0.0594735 0)
(0.358922 0.0736595 4.92357e-19)
(0.340097 0.0847622 0)
(0.315814 0.0916417 0)
(0.286357 0.0932254 2.00207e-19)
(0.25268 0.0888207 0)
(0.216492 0.0785692 -2.54506e-19)
(0.180176 0.0635995 -5.9677e-19)
(0.146667 0.0457377 3.57019e-19)
(0.119072 0.0265676 0)
(0.100608 0.0068807 0)
(0.092539 -0.0133635 0)
(0.0962556 -0.0333744 -1.00267e-18)
(0.109904 -0.0533368 -8.39581e-19)
(0.129694 -0.070189 -3.46833e-19)
(0.149517 -0.0766669 0)
(0.163727 -0.0700153 5.0713e-19)
(0.170039 -0.0536104 0)
(0.168194 -0.0329109 -4.99162e-19)
(0.159003 -0.0145865 0)
(0.143517 -0.00253207 0)
(0.121219 0.00437688 6.39674e-19)
(0.0859951 0.010276 0)
(0.0276869 0.0224549 2.49345e-18)
(-0.066359 0.0534632 -6.32322e-19)
(-0.186881 0.0967141 0)
(-0.31866 0.141647 -2.69637e-19)
(-0.456946 0.184576 -2.00344e-19)
(-0.600998 0.220667 0)
(-0.746526 0.248059 0)
(-0.889648 0.267187 0)
(-1.02861 0.277602 0)
(-1.16002 0.279443 0)
(-1.28027 0.274423 8.40655e-20)
(-1.38924 0.263719 1.58385e-19)
(-1.48645 0.248713 -7.45651e-20)
(-1.57276 0.231415 0)
(-1.64911 0.212791 1.38337e-19)
(-1.71653 0.194453 -6.69486e-20)
(-1.77701 0.177008 0)
(-1.83146 0.160788 -6.27675e-20)
(-1.88117 0.146144 0)
(-1.92661 0.133095 0)
(-1.9688 0.12169 -1.18489e-19)
(-2.00815 0.111688 5.81137e-20)
(-2.04517 0.102971 -1.14374e-19)
(-2.0802 0.0953625 1.12541e-19)
(-2.1135 0.0887005 5.54119e-20)
(-2.14524 0.0828348 0)
(-2.17558 0.0776279 5.38434e-20)
(-2.2046 0.0729659 0)
(-2.2324 0.068749 0)
(-2.25902 0.0648978 0)
(-2.28452 0.0613448 5.09547e-20)
(-2.30892 0.0580377 0)
(-2.33225 0.0549331 9.9428e-20)
(-2.35454 0.0519967 -1.47321e-19)
(-2.37579 0.0492012 -4.85259e-20)
(-2.39601 0.0465241 0)
(-2.41521 0.0439484 -4.73232e-20)
(-2.43341 0.0414584 0)
(-2.45059 0.0390442 -9.22823e-20)
(-2.46677 0.0366948 0)
(-2.48194 0.034405 -8.99395e-20)
(-2.4961 0.032166 1.77415e-19)
(-2.50926 0.029975 8.76006e-20)
(-2.5214 0.0278222 0)
(-2.53251 0.0257036 0)
(-2.54258 0.0236107 0)
(-2.55162 0.0215343 -8.28678e-20)
(-2.55963 0.0194684 0)
(-2.5666 0.0174063 8.04516e-20)
(-2.57254 0.0153435 0)
(-2.57747 0.0132745 -2.33996e-19)
(-2.5814 0.0111935 -7.67523e-20)
(-2.58437 0.0090989 -7.54993e-20)
(-2.58643 0.0069941 0)
(-2.58767 0.00491517 0)
(-2.58817 0.00292661 0)
(-2.58793 0.00108767 0)
(-2.58653 -0.000652661 0)
(-2.58397 -0.00235309 -1.35168e-19)
(-2.58021 -0.00402711 -1.32345e-19)
(-2.57523 -0.00567844 0)
(-2.56902 -0.00731122 6.31768e-20)
(-2.56158 -0.00892121 6.16766e-20)
(-2.55291 -0.0105102 0)
(-2.54299 -0.0120734 1.17438e-19)
(-2.53183 -0.0136114 0)
(-2.51943 -0.0151204 -5.56814e-20)
(-2.50578 -0.0165994 0)
(-2.4909 -0.0180465 0)
(-2.47479 -0.0194588 1.01006e-19)
(-2.45746 -0.0208367 0)
(-2.43891 -0.0221754 -4.67753e-20)
(-2.41916 -0.0234778 0)
(-2.39821 -0.0247374 0)
(-2.3761 -0.0259595 -4.16512e-20)
(-2.35282 -0.0271358 -3.92525e-20)
(-2.32841 -0.0282743 0)
(-2.30287 -0.0293651 3.57887e-20)
(-2.27623 -0.0304181 0)
(-2.2485 -0.0314225 -3.16943e-20)
(-2.21971 -0.0323896 -5.86183e-20)
(-2.18988 -0.0333082 0)
(-2.15903 -0.0341898 0)
(-2.12719 -0.0350227 0)
(-2.09437 -0.0358172 0)
(-2.0606 -0.0365635 -3.57994e-20)
(-2.02592 -0.0372719 -9.4693e-20)
(-1.99033 -0.0379338 0)
(-1.95386 -0.0385555 0)
(-1.91653 -0.0391375 0)
(-1.87835 -0.0396996 1.17593e-20)
(-1.83933 -0.0402527 0)
(-1.79945 -0.0407953 0)
(-1.75878 -0.0413056 5.68481e-21)
(-1.71738 -0.0417566 7.37981e-21)
(-1.67528 -0.0421521 1.41121e-20)
(-1.63248 -0.0425078 0)
(-1.58899 -0.0428282 0)
(-1.54484 -0.0431102 3.05802e-20)
(-1.50005 -0.0433619 -3.47511e-20)
(-1.45463 -0.0435792 0)
(-1.4086 -0.0437687 0)
(-1.36197 -0.0439255 -5.37946e-20)
(-1.31476 -0.044059 1.77991e-19)
(-1.26701 -0.0441744 0)
(-1.21873 -0.0442741 0)
(-1.16996 -0.0443642 7.86562e-20)
(-1.12072 -0.0444344 0)
(-1.07101 -0.0444843 1.81939e-19)
(-1.02086 -0.0445134 -9.69012e-20)
(-0.970297 -0.0445212 0)
(-0.919338 -0.0445155 1.1247e-19)
(-0.867996 -0.0444967 2.37588e-19)
(-0.816286 -0.0444717 0)
(-0.764213 -0.0444426 0)
(-0.711781 -0.0444145 -1.42056e-19)
(-0.658988 -0.0443884 0)
(-0.605832 -0.0443662 3.13831e-19)
(-0.552311 -0.0443459 0)
(-0.498425 -0.0443274 0)
(-0.444174 -0.04431 0)
(-0.389559 -0.0442963 0)
(-0.334579 -0.0442887 -2.00312e-19)
(-0.279226 -0.0442913 -2.09407e-19)
(-0.223492 -0.0443059 0)
(-0.167369 -0.044333 0)
(-0.11085 -0.0443672 0)
(-0.0539439 -0.044393 2.48023e-19)
(0.00332081 -0.044378 0)
(0.0608859 -0.0442723 -5.17078e-19)
(0.118639 -0.0440125 5.18587e-19)
(0.176299 -0.0434632 5.20122e-19)
(0.233795 -0.0423059 5.18581e-19)
(0.2889 -0.0400816 5.24637e-19)
(0.346669 -0.0359544 5.26791e-19)
(0.382771 -0.0235282 0)
(0.000389761 0.0232507 0)
(0.000843323 0.0400075 0)
(0.00673896 0.0326508 -2.30802e-18)
(0.0268642 -0.000883523 -1.62127e-18)
(0.0665156 -0.0606148 9.66812e-19)
(0.117929 -0.126585 6.27488e-19)
(0.170669 -0.17889 -3.54827e-22)
(0.217853 -0.208842 0)
(0.256819 -0.217287 0)
(0.287614 -0.209464 0)
(0.311469 -0.191199 0)
(0.329843 -0.16721 0)
(0.34395 -0.140693 -7.17711e-19)
(0.354644 -0.113538 0)
(0.362492 -0.0867576 2.29127e-19)
(0.367866 -0.0608278 2.28637e-19)
(0.371037 -0.0359352 0)
(0.372197 -0.0121549 0)
(0.371608 0.0105445 0)
(0.36959 0.0323334 0)
(0.366406 0.0533385 2.43865e-19)
(0.362222 0.0734752 0)
(0.356942 0.0923453 -2.61733e-19)
(0.350155 0.109171 0)
(0.341158 0.122801 0)
(0.329099 0.131802 0)
(0.313213 0.134687 -6.57722e-19)
(0.293246 0.130298 0)
(0.269831 0.118203 3.92009e-19)
(0.24468 0.098856 -8.76246e-19)
(0.220403 0.0734634 0)
(0.19996 0.0434853 0)
(0.185704 0.0105942 0)
(0.177791 -0.0243151 6.27677e-19)
(0.174391 -0.0573137 5.47108e-19)
(0.168663 -0.0774389 0)
(0.154595 -0.076327 0)
(0.132451 -0.0579174 -7.55377e-19)
(0.103037 -0.0300024 -7.80368e-19)
(0.0665734 0.00296619 8.74611e-19)
(0.0205007 0.0361968 0)
(-0.0457986 0.067303 0)
(-0.13725 0.105835 0)
(-0.248545 0.155078 0)
(-0.376367 0.209697 -3.99882e-19)
(-0.514853 0.265319 -3.17067e-19)
(-0.656377 0.317791 2.60249e-19)
(-0.795171 0.362331 0)
(-0.927154 0.397492 0)
(-1.04861 0.422355 0)
(-1.15769 0.436063 0)
(-1.25369 0.439013 -1.44786e-19)
(-1.33639 0.431889 0)
(-1.40685 0.41623 0)
(-1.46685 0.394283 -1.2066e-19)
(-1.51883 0.368183 -1.13961e-19)
(-1.56463 0.339871 0)
(-1.6062 0.311216 2.13197e-19)
(-1.64491 0.283441 -1.02463e-19)
(-1.68159 0.257505 9.94234e-20)
(-1.71688 0.234009 0)
(-1.75107 0.213032 0)
(-1.78441 0.194485 0)
(-1.81702 0.178189 0)
(-1.84889 0.164042 8.85947e-20)
(-1.87999 0.151735 1.73946e-19)
(-1.9103 0.140976 8.53116e-20)
(-1.93979 0.131528 -8.38187e-20)
(-1.96846 0.123163 0)
(-1.99628 0.115698 1.62031e-19)
(-2.02325 0.10897 1.5942e-19)
(-2.04936 0.102847 1.5692e-19)
(-2.0746 0.0972178 -1.54513e-19)
(-2.09895 0.0919934 0)
(-2.12243 0.0871013 -2.24982e-19)
(-2.14503 0.0824838 0)
(-2.16673 0.0780946 7.27224e-20)
(-2.18754 0.0738968 7.18374e-20)
(-2.20745 0.0698614 0)
(-2.22646 0.0659643 0)
(-2.24457 0.0621869 1.37456e-19)
(-2.26176 0.0585131 0)
(-2.27803 0.0549307 1.33542e-19)
(-2.29339 0.0514285 0)
(-2.30782 0.047999 -1.29688e-19)
(-2.32132 0.0446343 -2.5565e-19)
(-2.33389 0.0413288 0)
(-2.34552 0.0380752 0)
(-2.3562 0.034868 0)
(-2.36592 0.0316996 -1.20142e-19)
(-2.37469 0.0285631 0)
(-2.3825 0.0254541 -1.16309e-19)
(-2.38935 0.0223708 0)
(-2.39525 0.0193146 0)
(-2.40019 0.0162884 2.21025e-19)
(-2.40417 0.0133009 0)
(-2.4072 0.0103612 1.06609e-19)
(-2.40928 0.00748286 0)
(-2.41038 0.00466972 1.0263e-19)
(-2.41045 0.00190791 0)
(-2.40945 -0.000840396 0)
(-2.40731 -0.00358256 0)
(-2.40404 -0.00630177 2.82459e-19)
(-2.3996 -0.00899299 9.18957e-20)
(-2.39399 -0.0116552 0)
(-2.38719 -0.0142856 0)
(-2.3792 -0.0168819 0)
(-2.37001 -0.0194412 0)
(-2.35961 -0.0219599 -8.05413e-20)
(-2.34801 -0.0244355 1.56782e-19)
(-2.3352 -0.0268637 7.57747e-20)
(-2.32118 -0.0292424 -1.47172e-19)
(-2.30596 -0.0315673 -1.4226e-19)
(-2.28954 -0.0338365 -6.83614e-20)
(-2.27193 -0.036046 0)
(-2.25313 -0.0381943 -1.27083e-19)
(-2.23317 -0.0402779 0)
(-2.21205 -0.042296 1.16594e-19)
(-2.18978 -0.0442459 5.52755e-20)
(-2.16638 -0.046127 0)
(-2.14187 -0.047938 -1.0031e-19)
(-2.11626 -0.0496784 -4.69899e-20)
(-2.08958 -0.0513482 0)
(-2.06184 -0.0529465 -4.20956e-20)
(-2.03306 -0.0544746 1.16015e-19)
(-2.00327 -0.0559313 0)
(-1.97248 -0.0573184 0)
(-1.94071 -0.0586336 0)
(-1.90799 -0.0598785 0)
(-1.87434 -0.0610517 4.78402e-20)
(-1.83979 -0.0621546 4.07976e-20)
(-1.80434 -0.063184 0)
(-1.76803 -0.0641407 0)
(-1.73086 -0.0650215 0)
(-1.69286 -0.0658349 0)
(-1.65404 -0.0665868 0)
(-1.61442 -0.0672942 0)
(-1.57403 -0.0679705 -3.55409e-21)
(-1.53293 -0.0686005 -1.01726e-21)
(-1.49112 -0.0691674 0)
(-1.44863 -0.0696759 0)
(-1.40546 -0.0701266 -2.88025e-20)
(-1.36163 -0.0705198 0)
(-1.31716 -0.0708601 4.32513e-20)
(-1.27207 -0.0711485 4.89469e-20)
(-1.22637 -0.0713866 0)
(-1.18008 -0.071577 0)
(-1.13321 -0.0717258 -7.06199e-20)
(-1.0858 -0.0718429 -1.52951e-19)
(-1.03787 -0.0719316 0)
(-0.989438 -0.0719943 0)
(-0.940525 -0.0720245 0)
(-0.891148 -0.0720162 -1.05961e-19)
(-0.841327 -0.0719724 1.13201e-19)
(-0.791085 -0.071891 0)
(-0.74044 -0.0717823 2.53361e-19)
(-0.689411 -0.0716484 1.32917e-19)
(-0.638007 -0.0714987 -2.83067e-19)
(-0.586238 -0.0713367 0)
(-0.534108 -0.0711698 0)
(-0.481617 -0.0709997 -3.28455e-19)
(-0.428764 -0.0708295 -1.73087e-19)
(-0.375546 -0.0706557 0)
(-0.321963 -0.0704781 0)
(-0.268015 -0.0702947 0)
(-0.213701 -0.0701092 0)
(-0.159018 -0.0699236 -4.2201e-19)
(-0.10396 -0.0697433 0)
(-0.0485187 -0.0695697 0)
(0.00731671 -0.0694022 0)
(0.0635538 -0.0692308 0)
(0.120192 -0.0690346 0)
(0.17721 -0.0687707 0)
(0.234553 -0.0683737 -4.96769e-19)
(0.292132 -0.0677535 0)
(0.349726 -0.0667435 0)
(0.407331 -0.0650513 -1.03339e-18)
(0.463396 -0.0621726 5.22446e-19)
(0.521801 -0.0571194 -5.33616e-19)
(0.567713 -0.0446345 5.44961e-19)
(-0.00113877 0.0232487 0)
(0.00200086 0.0266068 5.03821e-18)
(0.0238775 -0.0156556 0)
(0.0718876 -0.0987996 8.6114e-19)
(0.132843 -0.186533 0)
(0.190432 -0.250254 0)
(0.235388 -0.281196 -3.23819e-19)
(0.266483 -0.284299 0)
(0.286546 -0.269032 0)
(0.299223 -0.243744 0)
(0.307413 -0.213919 0)
(0.312937 -0.182598 0)
(0.316775 -0.151302 8.10144e-19)
(0.319377 -0.120731 3.98565e-19)
(0.320904 -0.0911943 -3.96165e-19)
(0.321398 -0.0628303 0)
(0.320873 -0.0357017 0)
(0.319343 -0.0098509 0)
(0.316868 0.0147178 0)
(0.313539 0.0380322 0)
(0.309506 0.0601278 4.29355e-19)
(0.304988 0.0810081 4.41178e-19)
(0.300195 0.100568 -4.57797e-19)
(0.295226 0.118472 4.80407e-19)
(0.289969 0.134057 0)
(0.284062 0.146258 0)
(0.27689 0.1536 5.8376e-19)
(0.267712 0.154376 0)
(0.255966 0.147037 0)
(0.241561 0.130562 7.56236e-19)
(0.225219 0.104854 8.4593e-19)
(0.208143 0.071084 9.58791e-19)
(0.191597 0.0315848 0)
(0.174159 -0.00867425 0)
(0.148696 -0.0367018 -9.38018e-19)
(0.111332 -0.0402681 0)
(0.0638163 -0.0213478 0)
(0.0065944 0.0132652 7.55841e-19)
(-0.063605 0.0584215 -6.7207e-19)
(-0.149607 0.112652 5.41601e-19)
(-0.250365 0.173442 0)
(-0.365114 0.236382 0)
(-0.490041 0.300004 5.85235e-19)
(-0.619438 0.362932 0)
(-0.747869 0.421364 4.2003e-19)
(-0.870161 0.470251 5.5313e-19)
(-0.981517 0.507473 -4.93428e-19)
(-1.07968 0.532957 2.98416e-19)
(-1.16388 0.546575 0)
(-1.23391 0.549032 0)
(-1.29117 0.54146 2.37109e-19)
(-1.33752 0.525289 1.10596e-19)
(-1.37527 0.502248 0)
(-1.40693 0.474302 0)
(-1.43483 0.44359 9.499e-20)
(-1.46077 0.411796 1.83694e-19)
(-1.48603 0.380225 0)
(-1.51148 0.349939 -1.69403e-19)
(-1.53755 0.321568 1.65113e-19)
(-1.56436 0.295504 -1.60124e-19)
(-1.59182 0.271954 0)
(-1.61978 0.250833 0)
(-1.64802 0.232009 0)
(-1.67638 0.215291 0)
(-1.70466 0.200492 0)
(-1.7327 0.187369 -1.38297e-19)
(-1.76035 0.175679 0)
(-1.78751 0.165205 0)
(-1.81411 0.155752 0)
(-1.84008 0.147153 -2.56939e-19)