/*--------------------------------*- C++ -*----------------------------------*\
  =========                 |
  \\      /  F ield         | OpenFOAM: The Open Source CFD Toolbox
   \\    /   O peration     | Website:  https://openfoam.org
    \\  /    A nd           | Version:  8
     \\/     M anipulation  |
\*---------------------------------------------------------------------------*/
FoamFile
{
    version     2.0;
    format      ascii;
    class       volScalarField;
    location    "900";
    object      k;
}
// * * * * * * * * * * * * * * * * * * * * * * * * * * * * * * * * * * * * * //

dimensions      [0 2 -2 0 0 0 0];

internalField   nonuniform List<scalar> 
12225
(
0.64581
1.29912
1.63017
1.69112
1.67097
1.61846
1.5622
2.1389
2.50908
2.48123
2.5466
2.78311
2.30327
1.70083
1.54761
2.33148
2.22994
2.61619
0.400126
0.429447
0.504237
0.523845
0.612167
0.620783
0.633314
0.661163
0.705068
0.744606
0.749218
0.786727
0.813312
0.845294
0.859057
0.90659
0.908732
0.926101
0.380049
0.380308
0.388409
0.387858
0.392517
0.390793
0.387014
0.379133
0.374892
0.372854
0.369819
0.368764
0.367087
0.368984
0.372278
0.37802
0.379306
0.384191
0.376022
0.37355
0.373594
0.372074
0.370503
0.368264
0.365057
0.359909
0.355785
0.351045
0.347166
0.342662
0.338942
0.334991
0.331934
0.328987
0.326153
0.323469
0.374663
0.372343
0.370801
0.368948
0.367392
0.365191
0.363073
0.360092
0.35747
0.354422
0.351814
0.348805
0.346168
0.343182
0.340618
0.337777
0.335338
0.332596
0.374191
0.372039
0.370209
0.368284
0.36668
0.364786
0.363033
0.360926
0.35899
0.35686
0.354947
0.352856
0.350945
0.348844
0.346942
0.344857
0.343018
0.34098
0.374026
0.371954
0.370068
0.368171
0.366501
0.364763
0.363151
0.361421
0.359795
0.358105
0.356534
0.354905
0.353378
0.351774
0.350274
0.348691
0.347244
0.345699
0.373976
0.371922
0.37002
0.368154
0.36645
0.364765
0.36319
0.3616
0.360093
0.358584
0.35716
0.355732
0.354377
0.353001
0.351698
0.350363
0.349119
0.34783
0.373956
0.371905
0.36999
0.368141
0.36642
0.364756
0.363192
0.361663
0.36021
0.358789
0.357441
0.356117
0.354857
0.353608
0.352418
0.351228
0.350107
0.348971
0.373946
0.371892
0.369963
0.36812
0.366387
0.36473
0.363165
0.36166
0.360231
0.358854
0.357545
0.35628
0.355073
0.3539
0.352781
0.351685
0.350643
0.349613
0.37394
0.371883
0.369942
0.368097
0.366353
0.364694
0.363123
0.361623
0.360198
0.358836
0.35754
0.356299
0.355116
0.35398
0.352894
0.351848
0.350848
0.349881
0.373937
0.371876
0.369926
0.368077
0.366324
0.364659
0.36308
0.361577
0.360148
0.358786
0.35749
0.356253
0.355074
0.353948
0.352873
0.351844
0.350861
0.349919
0.373935
0.371871
0.369915
0.36806
0.366301
0.364631
0.363044
0.361535
0.3601
0.358733
0.357432
0.356191
0.355009
0.353881
0.352805
0.351778
0.350797
0.34986
0.373934
0.371867
0.369907
0.368048
0.366284
0.364609
0.363017
0.361503
0.360061
0.35869
0.357383
0.356138
0.35495
0.353819
0.352737
0.351707
0.350722
0.349783
0.373933
0.371865
0.369902
0.36804
0.366272
0.364593
0.362996
0.361478
0.360033
0.358657
0.357346
0.356096
0.354905
0.353768
0.352684
0.351649
0.350661
0.349718
0.373933
0.371863
0.369899
0.368034
0.366264
0.364581
0.362982
0.36146
0.360012
0.358633
0.357319
0.356066
0.354872
0.353732
0.352645
0.351607
0.350617
0.34967
0.373932
0.371862
0.369897
0.368031
0.366259
0.364574
0.362973
0.361449
0.359999
0.358618
0.357302
0.356047
0.354851
0.353709
0.35262
0.35158
0.350587
0.349639
0.373932
0.371862
0.369896
0.36803
0.366257
0.364572
0.36297
0.361446
0.359995
0.358612
0.357295
0.356039
0.354842
0.3537
0.35261
0.351569
0.350576
0.349626
0.373932
0.371862
0.369897
0.368031
0.366259
0.364574
0.362973
0.361448
0.359997
0.358616
0.357298
0.356043
0.354846
0.353704
0.352613
0.351573
0.350579
0.34963
0.373932
0.371864
0.369899
0.368035
0.366264
0.364581
0.36298
0.361457
0.360007
0.358626
0.357311
0.356056
0.35486
0.353718
0.352629
0.351589
0.350597
0.349648
0.373934
0.371865
0.369903
0.368041
0.366272
0.364591
0.362992
0.361471
0.360024
0.358645
0.357332
0.356079
0.354885
0.353745
0.352657
0.351617
0.350624
0.349675
0.373934
0.371869
0.369909
0.368051
0.366284
0.364605
0.363009
0.361492
0.360047
0.358673
0.357363
0.356115
0.35492
0.35378
0.352687
0.351642
0.350641
0.349685
0.373937
0.371872
0.369919
0.368067
0.366298
0.364618
0.363019
0.361506
0.360069
0.358703
0.357399
0.356151
0.354949
0.353791
0.352672
0.351594
0.350556
0.34956
0.373938
0.371872
0.369943
0.368092
0.366294
0.364587
0.362966
0.361459
0.360033
0.358688
0.357388
0.356129
0.354885
0.353661
0.352446
0.35126
0.350108
0.348997
0.373925
0.371852
0.370015
0.368118
0.366189
0.364376
0.362681
0.361183
0.359774
0.358479
0.357193
0.3559
0.354533
0.353128
0.351678
0.350231
0.348815
0.347447
0.373791
0.37176
0.370288
0.368174
0.365879
0.363812
0.361935
0.360479
0.359115
0.357945
0.356672
0.355283
0.353637
0.351842
0.349908
0.347923
0.34598
0.344118
0.373177
0.371477
0.371455
0.368905
0.365931
0.363438
0.361099
0.359697
0.358259
0.356961
0.356002
0.354535
0.352459
0.349956
0.347218
0.344242
0.341448
0.33874
0.371556
0.374338
0.377598
0.376353
0.373035
0.371042
0.368812
0.367167
0.366047
0.362582
0.361087
0.360903
0.360362
0.357959
0.355467
0.352364
0.350212
0.34807
0.373881
0.413542
0.444593
0.463746
0.467725
0.477461
0.489012
0.501408
0.513779
0.524934
0.536042
0.545291
0.555154
0.563852
0.574281
0.583886
0.595955
0.60628
0.622601
1.12177
1.38365
1.51119
1.56882
1.57609
1.56696
1.54504
1.51353
1.48022
1.44735
1.41596
1.38662
1.35953
1.33483
1.31246
1.29227
1.27432
1.89678e-08
4.67533e-07
2.37866e-06
9.33499e-06
3.10629e-05
9.35623e-05
0.000244527
0.000485878
0.000786948
0.00110474
0.0013904
0.00161312
0.00176284
0.00182246
0.00180084
0.00173261
0.00159777
0.00137415
0.00117337
0.00100077
0.000836444
0.000676468
0.000520536
0.000375742
0.000245603
0.00014415
7.63949e-05
3.82654e-05
1.93173e-05
1.04171e-05
6.24662e-06
4.69223e-06
5.00777e-06
1.02858e-05
2.1446e-05
0.000143746
0.000320709
0.000726364
0.00111255
0.00123551
0.00114485
0.000918514
0.00076926
0.000756269
0.000828156
0.00109417
0.0014491
0.00279715
0.00616586
0.0177547
0.0466775
0.081092
0.108822
0.128827
0.145471
0.152341
0.149294
0.139296
0.151699
0.149096
0.141121
0.148342
0.163618
0.173052
0.181676
0.191049
0.198999
0.207752
0.215614
0.22381
0.231554
0.239394
0.246982
0.254575
0.262004
0.269403
0.276677
0.283904
0.291026
0.298088
0.305056
0.311953
0.318761
0.325487
0.332124
0.338669
0.345123
0.351471
0.357718
0.363846
0.369855
0.375735
0.381476
0.387068
0.392502
0.397765
0.402854
0.407762
0.412507
0.417116
0.421674
0.426038
0.430279
0.434369
0.43832
0.442119
0.44577
0.449264
0.452602
0.455778
0.458793
0.46164
0.46432
0.466831
0.469168
0.471334
0.473322
0.475138
0.476773
0.478236
0.479514
0.480621
0.481539
0.482284
0.482836
0.483205
0.483361
0.483318
0.483263
0.483056
0.482716
0.482063
0.481324
0.480435
0.479473
0.478388
0.477107
0.475529
0.473832
0.471967
0.469965
0.467826
0.465558
0.463173
0.460673
0.458077
0.455406
0.452562
0.449702
0.446656
0.443622
0.440395
0.437215
0.433836
0.430513
0.427063
0.423615
0.420132
0.416626
0.413114
0.409601
0.406093
0.402596
0.399111
0.395646
0.392206
0.388802
0.385439
0.382127
0.378869
0.375667
0.372516
0.369406
0.366303
0.363164
0.359898
0.356401
0.352326
0.347057
0.330629
8.53113e-08
2.42062e-06
1.62589e-05
6.96158e-05
0.000261443
0.000741756
0.0017398
0.00316166
0.00481325
0.006512
0.00806663
0.00934774
0.0102936
0.0109033
0.0111886
0.0111554
0.010974
0.0106365
0.0100473
0.0092359
0.00820069
0.00699924
0.00567088
0.00433365
0.00301139
0.00199636
0.00126533
0.000780611
0.000471903
0.000286404
0.000181457
0.000133151
0.000100504
0.000160589
0.00017667
0.0015124
0.00325802
0.00690739
0.0101568
0.012027
0.0120655
0.0117293
0.011771
0.0131458
0.0169682
0.0224305
0.0320958
0.048812
0.0747179
0.0989135
0.123419
0.142659
0.158305
0.17273
0.188747
0.203327
0.218965
0.235822
0.255259
0.273666
0.292665
0.312629
0.333232
0.353009
0.372308
0.391616
0.410368
0.429058
0.447394
0.46562
0.483626
0.501526
0.519282
0.536951
0.554516
0.572008
0.589415
0.606756
0.624016
0.641206
0.658313
0.675341
0.692278
0.709122
0.725863
0.742495
0.759008
0.77539
0.791631
0.80771
0.823622
0.839347
0.854869
0.870169
0.885225
0.900012
0.9145
0.928656
0.942439
0.955808
0.968737
0.981471
0.993915
1.0061
1.01801
1.02963
1.04095
1.05196
1.06266
1.07302
1.08305
1.09273
1.10206
1.11102
1.11961
1.12782
1.13564
1.14306
1.15009
1.15671
1.16292
1.16871
1.17408
1.17902
1.18353
1.18761
1.19125
1.19445
1.19723
1.19957
1.20148
1.20291
1.20398
1.20446
1.20479
1.2049
1.20471
1.20424
1.20339
1.20212
1.20045
1.19839
1.19594
1.19313
1.18997
1.18648
1.18261
1.17845
1.1739
1.16908
1.16389
1.15845
1.15266
1.14666
1.14034
1.13381
1.12707
1.12014
1.11304
1.1058
1.09844
1.09097
1.08339
1.07573
1.06798
1.06017
1.05232
1.04444
1.03655
1.02866
1.02078
1.01292
1.00504
0.997101
0.98904
0.980744
0.972002
0.962477
0.950276
0.922563
2.06441e-07
6.12489e-06
4.65957e-05
0.000213495
0.000828594
0.00201358
0.0041166
0.00654953
0.00898674
0.0111985
0.0130463
0.0144727
0.0154748
0.0160784
0.0163397
0.0163059
0.0161224
0.0157663
0.0152277
0.0145556
0.0137434
0.0127855
0.0116605
0.0103704
0.00893297
0.00728832
0.00557623
0.00403938
0.00270657
0.00178984
0.00122366
0.000907113
0.000688927
0.000926753
0.00143271
0.00628747
0.0136831
0.0224097
0.0288938
0.0327521
0.0344345
0.0371322
0.0445454
0.0601562
0.0777131
0.0959657
0.116513
0.137939
0.157771
0.178848
0.199567
0.220899
0.243943
0.269371
0.296463
0.324141
0.352589
0.381546
0.410708
0.439497
0.467989
0.496059
0.523501
0.550221
0.576322
0.601935
0.627033
0.651758
0.676132
0.700235
0.724095
0.747764
0.771261
0.794616
0.817841
0.840951
0.863948
0.886839
0.909619
0.932289
0.954841
0.977271
0.999569
1.02173
1.04374
1.06558
1.08726
1.10875
1.13004
1.15112
1.17197
1.19258
1.21294
1.23303
1.25283
1.27235
1.29155
1.31045
1.32903
1.34729
1.36523
1.38284
1.40009
1.41698
1.43348
1.44958
1.46526
1.48052
1.49533
1.50969
1.52358
1.53699
1.54991
1.56232
1.57423
1.58561
1.59645
1.60676
1.61652
1.62572
1.63436
1.64243
1.64993
1.65685
1.66318
1.66893
1.67409
1.67866
1.68265
1.68604
1.68885
1.69108
1.69277
1.69377
1.69428
1.6944
1.69393
1.69292
1.69136
1.68924
1.68657
1.68335
1.67961
1.67536
1.6706
1.66537
1.65963
1.65345
1.64677
1.63969
1.63213
1.62419
1.6158
1.60707
1.59794
1.58851
1.57877
1.56876
1.55852
1.54807
1.53744
1.52664
1.51571
1.50464
1.49346
1.48218
1.47083
1.45943
1.44802
1.4366
1.42521
1.41383
1.40248
1.39111
1.37968
1.36812
1.35624
1.34382
1.32896
1.30319
8.09038e-07
2.43213e-05
0.000191044
0.000776913
0.00230387
0.00539002
0.00907819
0.0126641
0.0157789
0.0182453
0.0200271
0.021162
0.0217611
0.0218785
0.0217504
0.0213986
0.0208327
0.0201513
0.0193847
0.0185499
0.0176476
0.016675
0.0156139
0.014443
0.0131445
0.0116939
0.0101039
0.00843458
0.00686066
0.00528805
0.00417179
0.00300818
0.00305445
0.00446264
0.0108693
0.0251852
0.0399593
0.0517547
0.0607547
0.0691672
0.0795212
0.0929681
0.108799
0.124418
0.140552
0.157835
0.178033
0.199628
0.222904
0.248618
0.275932
0.305442
0.336797
0.369631
0.403244
0.437193
0.471271
0.505243
0.538884
0.572019
0.604626
0.63664
0.668005
0.69878
0.729009
0.758771
0.78812
0.817131
0.845851
0.874333
0.902614
0.93073
0.958705
0.986557
1.0143
1.04194
1.06947
1.0969
1.12422
1.15143
1.17851
1.20546
1.23226
1.2589
1.28537
1.31165
1.33773
1.3636
1.38924
1.41462
1.43975
1.46461
1.48917
1.51344
1.5374
1.56103
1.58434
1.60729
1.62989
1.65211
1.67394
1.69536
1.71633
1.73685
1.75689
1.77644
1.79547
1.81397
1.83192
1.84931
1.86612
1.88234
1.89795
1.91294
1.92729
1.94101
1.95407
1.96646
1.97818
1.98921
1.99956
2.00921
2.01815
2.02639
2.03392
2.04073
2.04683
2.0522
2.05686
2.0608
2.06402
2.06654
2.06837
2.06937
2.06976
2.06957
2.06865
2.06703
2.06474
2.06178
2.05815
2.05386
2.04894
2.04339
2.03723
2.03048
2.02313
2.01523
2.00676
1.99777
1.98823
1.97821
1.96768
1.95671
1.94528
1.93347
1.92129
1.90878
1.89598
1.88292
1.86963
1.85614
1.84248
1.82865
1.81468
1.8006
1.78642
1.77219
1.75793
1.74367
1.72944
1.71526
1.70112
1.68704
1.67298
1.65893
1.64475
1.6303
1.61395
1.59012
2.7446e-06
8.23068e-05
0.000611883
0.0023602
0.00643561
0.0119489
0.0170703
0.0211638
0.0240683
0.0258859
0.0268305
0.0271025
0.0269598
0.0265258
0.0258221
0.0249927
0.0240906
0.0231541
0.0222048
0.0212516
0.0202895
0.0193098
0.0182933
0.0172171
0.0160551
0.0147797
0.0133852
0.011915
0.010473
0.00902289
0.00747678
0.00766591
0.0109754
0.0224694
0.042955
0.0629562
0.0797471
0.0929568
0.104135
0.115073
0.126765
0.139431
0.15307
0.168503
0.187068
0.208548
0.232825
0.259772
0.288933
0.32017
0.352962
0.3872
0.422437
0.458331
0.494565
0.530951
0.56734
0.603597
0.639604
0.67526
0.710538
0.745388
0.7798
0.813798
0.847416
0.880699
0.91369
0.946436
0.978977
1.01135
1.04359
1.07572
1.10776
1.13971
1.17159
1.2034
1.23513
1.26677
1.29832
1.32976
1.36108
1.39226
1.42328
1.45414
1.48481
1.51527
1.54552
1.57552
1.60527
1.63475
1.66393
1.69281
1.72137
1.74959
1.77746
1.80497
1.83209
1.85881
1.8851
1.91094
1.93632
1.9612
1.98556
2.00938
2.03264
2.05532
2.07739
2.09883
2.11962
2.13975
2.1592
2.17795
2.19598
2.21328
2.22984
2.24564
2.26066
2.2749
2.28835
2.301
2.31283
2.32385
2.33405
2.34342
2.35195
2.35964
2.3665
2.37252
2.37769
2.38203
2.38553
2.38821
2.39003
2.39093
2.39115
2.39059
2.38919
2.38699
2.38399
2.38023
2.37569
2.37039
2.36436
2.3576
2.35014
2.34199
2.33316
2.32368
2.31356
2.30282
2.29148
2.27957
2.26709
2.25409
2.24058
2.22661
2.21222
2.19744
2.18233
2.16691
2.15122
2.13529
2.11916
2.10284
2.08635
2.06973
2.053
2.03619
2.01936
2.00253
1.98574
1.96902
1.95238
1.93585
1.91943
1.90314
1.88691
1.87064
1.85297
1.82985
8.76762e-06
0.000256526
0.00182572
0.00645032
0.0144556
0.0214669
0.0264461
0.0295101
0.031111
0.0317122
0.0316439
0.0312104
0.0303827
0.0293735
0.0282662
0.0271253
0.0259938
0.0248991
0.0238523
0.0228532
0.0218906
0.020949
0.0200027
0.0190211
0.0179765
0.0168075
0.0154578
0.0138786
0.0122182
0.0118834
0.0137523
0.0215094
0.0388183
0.0629784
0.0865553
0.105785
0.119988
0.130434
0.139405
0.148759
0.159458
0.172899
0.189689
0.209722
0.233244
0.259877
0.289061
0.320283
0.35305
0.387107
0.422163
0.458045
0.494536
0.53148
0.568754
0.606265
0.643925
0.681647
0.719343
0.756934
0.794375
0.831623
0.868661
0.90549
0.942121
0.978574
1.01488
1.05105
1.08714
1.12316
1.15913
1.19506
1.23098
1.26688
1.30275
1.3386
1.37441
1.41017
1.44585
1.48145
1.51693
1.55228
1.58747
1.62249
1.65732
1.69192
1.72629
1.7604
1.79423
1.82775
1.86095
1.89381
1.92631
1.95844
1.99016
2.02147
2.05233
2.08273
2.11264
2.14202
2.17086
2.19913
2.2268
2.25385
2.28026
2.30599
2.33102
2.35533
2.37889
2.40169
2.4237
2.44491
2.46529
2.48483
2.50351
2.52132
2.53825
2.55427
2.56938
2.58356
2.59682
2.60914
2.62052
2.63095
2.64042
2.64894
2.65649
2.66309
2.66872
2.6734
2.67713
2.67992
2.68169
2.68245
2.68246
2.68151
2.67964
2.67684
2.67316
2.66859
2.66316
2.65688
2.64976
2.64182
2.6331
2.62359
2.61332
2.60232
2.5906
2.57819
2.5651
2.55137
2.53701
2.52207
2.50655
2.49052
2.47401
2.45707
2.43974
2.42206
2.40408
2.38582
2.36733
2.34862
2.32972
2.31066
2.29149
2.27223
2.25293
2.23364
2.2144
2.19524
2.17621
2.15733
2.13863
2.12017
2.10192
2.08381
2.06469
2.04132
2.8145e-05
0.000770249
0.00495039
0.0150712
0.0246289
0.0307199
0.0340632
0.0356401
0.0360896
0.0358517
0.0351109
0.0339788
0.0326494
0.0312285
0.0297968
0.0284125
0.027111
0.0259101
0.0248099
0.0237999
0.0228599
0.0219623
0.0210716
0.0201433
0.0192138
0.0183573
0.0177483
0.017827
0.0196746
0.0252178
0.0374951
0.0587663
0.0833184
0.106523
0.12539
0.138702
0.147844
0.155334
0.163332
0.174022
0.188306
0.20622
0.227827
0.252811
0.280736
0.310898
0.342694
0.375722
0.409728
0.444569
0.480132
0.516342
0.553128
0.590434
0.628213
0.666414
0.704975
0.743821
0.78288
0.822088
0.861391
0.900743
0.940115
0.979491
1.01886
1.05824
1.09762
1.13703
1.17649
1.216
1.25557
1.29522
1.33494
1.37473
1.41457
1.45444
1.49434
1.53422
1.57407
1.61385
1.65353
1.69309
1.7325
1.77174
1.81077
1.84957
1.88811
1.92637
1.96433
2.00195
2.03921
2.0761
2.11258
2.14865
2.18426
2.2194
2.25404
2.28814
2.32169
2.35464
2.38697
2.41865
2.44966
2.47996
2.50952
2.53833
2.56633
2.59352
2.61987
2.64534
2.66992
2.69358
2.71631
2.73809
2.75889
2.7787
2.79751
2.81529
2.83204
2.84775
2.8624
2.876
2.88853
2.89999
2.91037
2.91967
2.9279
2.93504
2.9411
2.94608
2.94999
2.95284
2.95455
2.95518
2.9549
2.95356
2.95118
2.94779
2.94339
2.93802
2.93168
2.9244
2.91619
2.90708
2.89708
2.88622
2.87452
2.862
2.84869
2.83461
2.81979
2.80427
2.78805
2.77118
2.75369
2.73562
2.71702
2.69795
2.67844
2.65854
2.63829
2.61775
2.59693
2.57587
2.5546
2.53315
2.51157
2.48989
2.46817
2.44646
2.4248
2.40324
2.38183
2.36062
2.33965
2.319
2.29867
2.27862
2.25783
2.23353
8.46763e-05
0.00212156
0.0117202
0.0253056
0.0336015
0.0379688
0.0400137
0.0406088
0.0403003
0.0393412
0.0379042
0.0362196
0.0344258
0.0326328
0.0309202
0.0293411
0.027921
0.0266647
0.0255604
0.0245874
0.0237175
0.0229165
0.0221066
0.0213251
0.0207653
0.020822
0.0224736
0.0273924
0.0381192
0.0557019
0.0776345
0.099948
0.120728
0.137668
0.149743
0.158063
0.1651
0.173568
0.185021
0.200171
0.219156
0.241693
0.267384
0.295619
0.325772
0.357265
0.389748
0.423038
0.457057
0.49177
0.527164
0.563233
0.599978
0.637391
0.675453
0.714126
0.753365
0.793116
0.833319
0.873914
0.914847
0.956071
0.997547
1.03925
1.08116
1.12327
1.16558
1.20809
1.2508
1.29372
1.33685
1.38017
1.42369
1.46738
1.51122
1.55517
1.59921
1.6433
1.68739
1.73145
1.77543
1.8193
1.86303
1.90657
1.94991
1.993
2.03581
2.07832
2.12049
2.16229
2.2037
2.24469
2.28524
2.32531
2.36488
2.40392
2.4424
2.48027
2.51752
2.5541
2.58998
2.62513
2.65952
2.69312
2.72589
2.7578
2.78882
2.81891
2.84806
2.87623
2.90339
2.92952
2.9546
2.97861
3.00152
3.02333
3.044
3.06353
3.0819
3.0991
3.11513
3.12997
3.14362
3.15608
3.16733
3.17738
3.18622
3.19386
3.2003
3.20554
3.2096
3.21247
3.21406
3.21453
3.21392
3.21214
3.20922
3.20519
3.20005
3.19384
3.18657
3.17825
3.16893
3.15861
3.14732
3.13509
3.12194
3.10789
3.09298
3.07723
3.06067
3.04333
3.02525
3.00645
2.98698
2.96688
2.94621
2.92501
2.90333
2.88123
2.85874
2.83592
2.81279
2.7894
2.76577
2.74194
2.71796
2.69388
2.66975
2.64563
2.62156
2.59761
2.57383
2.55027
2.527
2.5041
2.48161
2.4595
2.43684
2.4111
0.00022034
0.00501165
0.0213302
0.0344244
0.0411349
0.0442879
0.0453999
0.045226
0.0442107
0.0425527
0.0405357
0.0383451
0.0361325
0.0340181
0.0320857
0.0303868
0.028944
0.0277616
0.0268307
0.0261284
0.0256812
0.025577
0.0258903
0.0270255
0.0293701
0.0338043
0.0420557
0.0554192
0.0724371
0.0915787
0.111
0.128645
0.14324
0.154378
0.162979
0.17099
0.180532
0.193007
0.209067
0.228716
0.25163
0.277301
0.305174
0.334672
0.365319
0.396802
0.428983
0.461824
0.49534
0.529561
0.564526
0.600271
0.636828
0.674204
0.712397
0.75139
0.791154
0.831647
0.872822
0.914627
0.957011
0.999928
1.04334
1.08721
1.13151
1.17624
1.22137
1.2669
1.31282
1.35912
1.40579
1.45282
1.50018
1.54783
1.59574
1.64387
1.69216
1.74057
1.78902
1.83748
1.88588
1.93419
1.98235
2.03032
2.07807
2.12556
2.17275
2.21961
2.26609
2.31217
2.35781
2.40299
2.44767
2.49182
2.53542
2.57842
2.62079
2.66249
2.70349
2.74375
2.78322
2.82188
2.85969
2.8966
2.93259
2.96762
3.00166
3.03467
3.06661
3.09747
3.12719
3.15577
3.18318
3.20939
3.23438
3.25814
3.28064
3.30186
3.3218
3.34045
3.35779
3.37382
3.38853
3.40192
3.41397
3.4247
3.4341
3.44217
3.44891
3.45434
3.45845
3.46127
3.4627
3.46293
3.46191
3.45964
3.45612
3.45138
3.44545
3.43834
3.43008
3.42069
3.4102
3.39863
3.38602
3.37238
3.35775
3.34215
3.32562
3.30817
3.28986
3.27071
3.25075
3.23001
3.20856
3.18642
3.16368
3.14036
3.11654
3.09224
3.06753
3.04244
3.01702
2.9913
2.96533
2.93913
2.91278
2.88631
2.85978
2.83325
2.80679
2.78044
2.75427
2.72835
2.70275
2.67756
2.65284
2.62857
2.60387
2.57641
0.000490725
0.01011
0.0309795
0.042617
0.0480836
0.0503553
0.0507391
0.0499066
0.0482105
0.0459674
0.0434223
0.0407875
0.0382377
0.0359088
0.0338924
0.0322431
0.0309844
0.030093
0.0296346
0.0294831
0.029847
0.0310028
0.0335448
0.0382403
0.0458035
0.0565764
0.0701116
0.0853585
0.101637
0.117746
0.132499
0.145154
0.155738
0.16496
0.174225
0.185065
0.198636
0.215414
0.235369
0.258155
0.283308
0.310333
0.338764
0.368209
0.398406
0.42923
0.460667
0.492752
0.525547
0.559121
0.593544
0.628869
0.665135
0.702372
0.740595
0.779801
0.819977
0.861096
0.903121
0.946012
0.989726
1.03422
1.07946
1.12541
1.17203
1.21932
1.26723
1.31577
1.36491
1.41463
1.46491
1.51571
1.56699
1.61872
1.67082
1.72324
1.77592
1.82877
1.88173
1.93471
1.98767
2.04053
2.09324
2.14576
2.19803
2.25002
2.30168
2.35296
2.40383
2.45425
2.50419
2.55361
2.60248
2.65076
2.69842
2.74542
2.79171
2.83725
2.88202
2.92595
2.96902
3.01117
3.05237
3.09258
3.13177
3.16988
3.2069
3.24276
3.27745
3.31093
3.34316
3.37411
3.40377
3.4321
3.45908
3.4847
3.50893
3.53175
3.55316
3.57314
3.59169
3.6088
3.62446
3.63867
3.65143
3.66273
3.67257
3.68095
3.68789
3.69339
3.69747
3.70012
3.70131
3.70118
3.69967
3.69681
3.6926
3.68708
3.68027
3.67219
3.66287
3.65234
3.64063
3.62776
3.61376
3.59868
3.58253
3.56534
3.54716
3.528
3.50791
3.48692
3.46507
3.44239
3.41895
3.39479
3.36997
3.34456
3.31859
3.29213
3.26521
3.23788
3.21018
3.18216
3.15386
3.12532
3.0966
3.06776
3.03886
3.00995
2.9811
2.95236
2.92381
2.89551
2.86756
2.84004
2.81302
2.78652
2.7597
2.73058
0.0009327
0.0173641
0.0394318
0.0500827
0.054829
0.0565092
0.0563565
0.0549571
0.052728
0.0500006
0.0470569
0.0441411
0.0414545
0.0391506
0.0373403
0.0360977
0.0355292
0.035478
0.0361342
0.0377152
0.0405322
0.0449302
0.0511833
0.0594733
0.0697445
0.0817253
0.0948646
0.108414
0.121696
0.134135
0.145448
0.155738
0.165613
0.176077
0.188174
0.20267
0.2199
0.239801
0.262077
0.286336
0.312181
0.339248
0.367236
0.395932
0.425224
0.455094
0.485589
0.516783
0.548767
0.581631
0.615451
0.650295
0.686218
0.723265
0.761463
0.800827
0.841359
0.883045
0.925866
0.969794
1.0148
1.06084
1.10788
1.1559
1.20486
1.25474
1.3055
1.35712
1.40956
1.4628
1.5168
1.57151
1.62687
1.6828
1.73923
1.79609
1.85328
1.91072
1.96831
2.02595
2.08357
2.1411
2.19846
2.25561
2.31248
2.36904
2.42522
2.48099
2.53628
2.59107
2.64531
2.69898
2.75203
2.80443
2.85612
2.90708
2.95725
3.00659
3.05505
3.1026
3.14918
3.19474
3.23924
3.28264
3.3249
3.36599
3.40585
3.44445
3.48175
3.5177
3.55229
3.58546
3.61721
3.6475
3.67631
3.70362
3.72941
3.75366
3.77637
3.79751
3.8171
3.83511
3.85155
3.86642
3.8797
3.8914
3.90152
3.91006
3.91704
3.92246
3.92635
3.92869
3.92952
3.92888
3.92676
3.92318
3.91817
3.91175
3.90396
3.89482
3.88436
3.87261
3.8596
3.84536
3.82993
3.81334
3.79563
3.77683
3.75697
3.73608
3.7142
3.69137
3.66761
3.643
3.61757
3.5914
3.56454
3.53706
3.50899
3.48039
3.45131
3.42178
3.39184
3.36156
3.33096
3.30012
3.26909
3.23793
3.20669
3.17544
3.14423
3.11313
3.08222
3.05156
3.02125
2.9914
2.96205
2.93327
2.90427
2.8733
0.00149105
0.0247908
0.0474274
0.0575639
0.0618418
0.0630893
0.0625211
0.0606893
0.0580675
0.0550458
0.0519552
0.0490723
0.0466256
0.0447894
0.0437948
0.0435333
0.0440758
0.0455418
0.0480688
0.0518051
0.0568796
0.0633672
0.0712563
0.0804403
0.0906953
0.101662
0.112917
0.124084
0.134937
0.14541
0.15567
0.166207
0.177697
0.190781
0.205914
0.223282
0.242814
0.264279
0.287375
0.311802
0.337292
0.363628
0.390647
0.418258
0.446442
0.475237
0.504721
0.534991
0.566152
0.598297
0.631517
0.665891
0.701487
0.738362
0.776559
0.816107
0.857024
0.899314
0.942975
0.987995
1.03435
1.08202
1.13098
1.18118
1.2326
1.28521
1.33896
1.39382
1.44975
1.5067
1.56463
1.62344
1.68307
1.7434
1.80434
1.86579
1.92765
1.9898
2.05213
2.11453
2.1769
2.23915
2.30122
2.36304
2.42454
2.48567
2.54637
2.60657
2.66624
2.72533
2.7838
2.84163
2.89877
2.95517
3.01078
3.06556
3.11946
3.17243
3.22443
3.27541
3.32531
3.37408
3.42167
3.46805
3.51316
3.55698
3.59945
3.64053
3.68019
3.71837
3.75505
3.7902
3.82377
3.85576
3.88613
3.91486
3.94194
3.96735
3.99109
4.01314
4.03349
4.05216
4.06913
4.0844
4.09797
4.10983
4.12
4.12848
4.13528
4.14041
4.1439
4.14575
4.14601
4.14472
4.14181
4.13736
4.1314
4.12396
4.11507
4.10475
4.09304
4.07997
4.06558
4.0499
4.03297
4.01483
3.99551
3.97506
3.95351
3.93089
3.90723
3.88255
3.85691
3.83037
3.803
3.77486
3.74601
3.71651
3.68641
3.65575
3.62456
3.5929
3.5608
3.52832
3.49551
3.46243
3.42916
3.39575
3.36225
3.32873
3.29524
3.26184
3.22861
3.19563
3.16301
3.13084
3.09919
3.06813
3.03693
3.00407
0.0022137
0.0314584
0.0548976
0.0650633
0.0691689
0.0701789
0.0693102
0.067157
0.0643029
0.0612297
0.0583225
0.0558727
0.0541075
0.0532875
0.0531953
0.0540854
0.0559535
0.058842
0.0627892
0.0678053
0.0738767
0.0809414
0.0888894
0.0975635
0.106775
0.116338
0.126108
0.136007
0.146075
0.15651
0.167646
0.179899
0.193618
0.209042
0.226239
0.245141
0.265574
0.287326
0.310183
0.333964
0.358517
0.383735
0.409558
0.435971
0.463008
0.490741
0.519263
0.548678
0.579099
0.610624
0.643355
0.67738
0.712782
0.74963
0.78798
0.827871
0.869339
0.912408
0.957094
1.0034
1.05131
1.10083
1.15192
1.20456
1.25873
1.31436
1.37143
1.42987
1.48962
1.55062
1.61278
1.67601
1.74017
1.80514
1.87077
1.93695
2.00356
2.07048
2.13757
2.20472
2.27181
2.33876
2.40549
2.47191
2.53797
2.60357
2.66865
2.73314
2.79701
2.86021
2.92272
2.98449
3.04548
3.10564
3.1649
3.22323
3.28056
3.33687
3.39208
3.44616
3.49904
3.55066
3.60098
3.64996
3.69755
3.74371
3.7884
3.83158
3.87319
3.91321
3.95158
3.98829
4.02331
4.0566
4.08813
4.11789
4.14587
4.17206
4.19645
4.21904
4.23981
4.25877
4.27591
4.29124
4.30476
4.31648
4.32639
4.33451
4.34083
4.3454
4.34824
4.34936
4.34884
4.34665
4.34275
4.33724
4.33016
4.32153
4.31139
4.29976
4.28668
4.27219
4.25633
4.23914
4.22064
4.2009
4.17995
4.15783
4.13458
4.11023
4.08481
4.05831
4.03083
4.00242
3.97317
3.94314
3.91238
3.88096
3.84891
3.81628
3.78311
3.74943
3.71526
3.68069
3.64577
3.61059
3.57519
3.53965
3.50402
3.46834
3.43267
3.39706
3.36161
3.3264
3.29154
3.25712
3.22322
3.18993
3.15656
3.12186
0.00308114
0.0376384
0.0624823
0.0728243
0.0768211
0.0776529
0.0765406
0.0741345
0.0711336
0.0681915
0.0657708
0.0641346
0.0634003
0.0633399
0.0642795
0.0661868
0.0690178
0.0727394
0.0773274
0.0827388
0.0889196
0.0957935
0.103282
0.111311
0.119826
0.128788
0.138208
0.148178
0.158845
0.170421
0.18311
0.197094
0.212459
0.229216
0.247288
0.266561
0.286886
0.308131
0.330175
0.352929
0.376331
0.400358
0.425013
0.450331
0.476377
0.503241
0.53103
0.559847
0.589798
0.620987
0.653522
0.6875
0.723014
0.760143
0.798961
0.839528
0.881901
0.926126
0.972234
1.02025
1.07017
1.122
1.17573
1.23133
1.28876
1.34797
1.4089
1.47146
1.53555
1.60107
1.66789
1.73587
1.80485
1.87464
1.94507
2.01599
2.08728
2.15882
2.2305
2.30221
2.37383
2.44526
2.51642
2.58724
2.65762
2.72743
2.79658
2.86502
2.93273
2.99969
3.06584
3.13115
3.19557
3.25904
3.3215
3.38289
3.44317
3.50229
3.56019
3.61682
3.67213
3.72605
3.77853
3.82954
3.87902
3.92695
3.97328
4.01796
4.06095
4.10222
4.14171
4.17942
4.2153
4.24933
4.2815
4.31177
4.34015
4.36662
4.39117
4.4138
4.4345
4.45327
4.47013
4.48507
4.4981
4.50923
4.51847
4.52582
4.53131
4.53498
4.53685
4.53695
4.5354
4.53199
4.52687
4.52009
4.51168
4.50168
4.49011
4.47703
4.46246
4.44644
4.42902
4.41023
4.39012
4.36873
4.34612
4.32232
4.29738
4.27133
4.24422
4.21596
4.1867
4.15653
4.12551
4.0937
4.06115
4.02793
3.99407
3.95962
3.92461
3.88906
3.85298
3.81647
3.77961
3.74248
3.70514
3.66764
3.63002
3.59235
3.55465
3.51699
3.47946
3.44216
3.40519
3.36865
3.33261
3.29718
3.26174
3.22531
0.00399747
0.0438139
0.0698577
0.0805057
0.0844741
0.0851632
0.0836868
0.0809734
0.0780264
0.0755365
0.073895
0.0731828
0.0731014
0.0738705
0.0755614
0.0781123
0.0814636
0.0855596
0.0903669
0.0958452
0.101968
0.10871
0.116059
0.12401
0.132583
0.141826
0.151816
0.162648
0.174425
0.187249
0.201167
0.216209
0.232338
0.2495
0.267602
0.286567
0.306308
0.326768
0.347902
0.369696
0.392151
0.415288
0.439157
0.463828
0.489355
0.515834
0.543381
0.572101
0.602109
0.633514
0.666429
0.700958
0.73721
0.775276
0.815247
0.857202
0.901216
0.947357
0.99568
1.04622
1.09898
1.15397
1.21117
1.27055
1.33205
1.39563
1.46117
1.52855
1.59759
1.66813
1.73996
1.8129
1.88675
1.96133
2.03641
2.11179
2.1873
2.26294
2.33869
2.41446
2.49009
2.5655
2.64062
2.71532
2.78948
2.86295
2.93563
3.0075
3.07854
3.1487
3.21791
3.28616
3.35337
3.41949
3.48445
3.5482
3.61069
3.67187
3.73169
3.79011
3.84706
3.90249
3.95633
4.00857
4.05914
4.10803
4.15518
4.20058
4.24416
4.28589
4.32572
4.36364
4.39963
4.43367
4.46574
4.49584
4.52394
4.55001
4.57407
4.5961
4.6161
4.63408
4.65005
4.66402
4.67601
4.68601
4.69406
4.70015
4.70436
4.70671
4.70723
4.70602
4.70296
4.69804
4.69141
4.68308
4.67309
4.66149
4.64831
4.63359
4.61737
4.59969
4.58059
4.56012
4.53831
4.51522
4.4909
4.46539
4.43875
4.41102
4.38223
4.35233
4.32146
4.28967
4.25704
4.2236
4.18944
4.15458
4.11909
4.08299
4.04634
4.00913
3.97134
3.93312
3.89456
3.85571
3.81663
3.77738
3.73801
3.69856
3.65904
3.61952
3.58012
3.54092
3.50203
3.46355
3.42554
3.38815
3.35077
3.31279
0.00495334
0.0499363
0.0770738
0.0879451
0.0918371
0.0923406
0.0904561
0.0876156
0.0849795
0.0831404
0.0822821
0.0820967
0.0826316
0.0839751
0.0861593
0.0891117
0.0927833
0.0971286
0.102138
0.107799
0.114121
0.121111
0.128798
0.137217
0.146415
0.156445
0.167354
0.179187
0.191961
0.205673
0.220311
0.235852
0.252229
0.269395
0.287294
0.305901
0.325189
0.345165
0.36583
0.387211
0.409354
0.432337
0.456275
0.481167
0.507016
0.533992
0.562257
0.591906
0.623041
0.655769
0.690202
0.726454
0.764639
0.804857
0.84721
0.891786
0.938676
0.987954
1.0397
1.09395
1.15069
1.20988
1.27149
1.33548
1.40178
1.47031
1.54095
1.61353
1.68783
1.76355
1.84031
1.91792
1.99621
2.07506
2.15424
2.2335
2.31266
2.39188
2.47109
2.55014
2.62888
2.70735
2.78556
2.86326
2.94028
3.0165
3.09189
3.16637
3.23987
3.31229
3.38362
3.4538
3.52278
3.59049
3.65686
3.72185
3.78541
3.84752
3.90812
3.96717
4.02462
4.08039
4.13445
4.18676
4.23729
4.286
4.33288
4.3779
4.42099
4.46212
4.50125
4.53837
4.57346
4.60651
4.63752
4.66647
4.69335
4.71814
4.74084
4.76145
4.77998
4.79644
4.81086
4.82323
4.83358
4.84192
4.84825
4.85261
4.85505
4.85565
4.85452
4.85149
4.84656
4.83986
4.83143
4.82131
4.80955
4.79617
4.78123
4.76476
4.7468
4.7274
4.7066
4.68443
4.66095
4.6362
4.61024
4.58311
4.55486
4.52554
4.49519
4.46387
4.4316
4.39843
4.36441
4.32959
4.29402
4.25776
4.22086
4.18335
4.14529
4.10666
4.06748
4.02786
3.98787