/*--------------------------------*- C++ -*----------------------------------*\
  =========                 |
  \\      /  F ield         | OpenFOAM: The Open Source CFD Toolbox
   \\    /   O peration     | Website:  https://openfoam.org
    \\  /    A nd           | Version:  8
     \\/     M anipulation  |
\*---------------------------------------------------------------------------*/
FoamFile
{
    version     2.0;
    format      ascii;
    class       volScalarField;
    location    "900";
    object      omega;
}
// * * * * * * * * * * * * * * * * * * * * * * * * * * * * * * * * * * * * * //

dimensions      [0 0 -1 0 0 0 0];

internalField   nonuniform List<scalar> 
12225
(
32582.3
43833
41192.4
40773.9
41023.2
38461.4
39098.4
32582.3
32582.3
32582.3
32582.3
32582.3
42174.2
47576.3
43595.2
32582.3
32582.3
32582.3
1150.31
9468.5
11843.2
14612.5
15659.7
15268.1
16658.3
17293
16111
15743.4
16850.1
16563.2
17045.1
17783.6
18026.6
17356.4
17347.3
17033.4
537.956
1127.55
2058.72
3138.73
3914.23
4693.7
5207.57
5664.39
5841.03
6134.55
6454.56
6756.81
6950.41
7222.25
7386.34
7545.26
7630.73
7738.09
430.448
493.077
676.75
921.221
1111.99
1334.49
1512.83
1698.59
1831.88
1983.25
2101.7
2240.98
2326
2438.25
2498.79
2593.32
2638.97
2727.18
403.639
411.728
448.062
514.488
570.177
639.563
699.232
767.507
820.459
882.369
927.78
984.205
1019.75
1068.11
1094.37
1136.78
1157.42
1197.8
399.009
398.958
405.395
421.471
438.696
461.934
482.521
508.781
529.867
555.81
574.976
599.294
615.326
637.319
650.026
670.189
680.31
699.635
399.178
396.885
396.925
399.017
402.952
409.425
415.158
424.09
431.506
441.654
449.312
459.482
466.453
476.181
482.182
491.544
496.582
505.798
399.142
397.115
395.692
394.798
395.014
396.033
397.476
400.059
402.414
406.324
409.297
413.686
416.694
421.195
423.996
428.6
431.095
435.894
399.084
397.23
395.502
394.065
392.881
392.22
391.636
391.701
391.931
392.599
393.307
394.709
395.621
397.27
398.277
400.135
401.207
403.329
399.05
397.252
395.476
393.898
392.356
391.078
389.836
388.886
387.998
387.439
386.881
386.661
386.378
386.349
386.372
386.45
386.606
386.962
399.044
397.237
395.473
393.85
392.264
390.82
389.413
388.157
386.935
385.879
384.853
383.984
383.131
382.422
381.718
381.18
380.582
380.214
399.048
397.223
395.469
393.826
392.244
390.762
389.334
388.001
386.715
385.521
384.368
383.305
382.274
381.331
380.41
379.582
378.764
378.04
399.05
397.216
395.466
393.811
392.232
390.738
389.31
387.958
386.664
385.439
384.266
383.156
382.091
381.085
380.119
379.208
378.332
377.507
399.051
397.212
395.462
393.802
392.223
390.723
389.294
387.936
386.64
385.407
384.23
383.11
382.039
381.02
380.045
379.117
378.228
377.383
399.051
397.21
395.46
393.797
392.216
390.713
389.282
387.92
386.622
385.386
384.207
383.083
382.01
380.987
380.009
379.077
378.185
377.334
399.051
397.209
395.458
393.793
392.211
390.706
389.273
387.909
386.61
385.371
384.19
383.064
381.989
380.964
379.985
379.05
378.157
377.303
399.051
397.208
395.456
393.791
392.208
390.701
389.267
387.902
386.601
385.361
384.179
383.052
381.976
380.949
379.968
379.032
378.138
377.283
399.05
397.208
395.456
393.791
392.207
390.7
389.265
387.9
386.598
385.358
384.175
383.047
381.97
380.943
379.962
379.025
378.13
377.275
399.051
397.208
395.457
393.791
392.208
390.701
389.268
387.902
386.6
385.36
384.177
383.05
381.973
380.946
379.965
379.028
378.133
377.278
399.051
397.209
395.458
393.794
392.211
390.705
389.272
387.907
386.607
385.367
384.186
383.058
381.983
380.956
379.977
379.041
378.148
377.294
399.052
397.21
395.461
393.796
392.217
390.712
389.282
387.918
386.621
385.382
384.205
383.08
382.011
380.99
380.021
379.095
378.216
377.375
399.052
397.212
395.463
393.799
392.233
390.736
389.324
387.968
386.686
385.462
384.314
383.215
382.194
381.223
380.331
379.484
378.71
377.967
399.059
397.218
395.445
393.822
392.362
390.974
389.718
388.456
387.304
386.249
385.313
384.426
383.671
382.997
382.527
382.119
381.871
381.637
399.109
397.175
395.419
394.249
393.54
393.178
393.005
392.41
392.511
393.057
393.242
393.339
392.968
393.142
394.096
395.242
396.756
398.194
399.173
397.991
396.885
398.102
401.658
407.443
411.263
415.965
422.916
425.686
425.091
425.708
429.136
433.324
438.773
443.975
449.791
454.909
405.239
407.099
408.853
422.425
445.189
469.665
484.481
501.867
520.045
521.654
530.791
541.245
555.566
569.133
585.027
598.656
613.637
625.542
462.98
460.122
490.471
551.742
633.263
705.898
762.241
805.043
847.494
883.439
924.321
960.311
1002.1
1037.51
1078.28
1110.95
1148.53
1176.56
864.168
868.491
1070.41
1333.38
1621.59
1847.87
2037.23
2195.45
2347.54
2470.69
2589.55
2684.63
2784
2864.17
2953.34
3025.13
3110.66
3174.14
3780.21
4484.57
5655.1
6767.54
7688.7
8351.96
8802.98
9089.46
9267.89
9359.85
9408.09
9416.54
9407.71
9381.94
9352.15
9326.71
9312.58
9290.52
19455.3
22075.1
23717.4
24579
25001.8
25062.5
24993.4
24831.3
24583.4
24316
24046.7
23784.7
23536
23303.6
23089.9
22894.7
22717.4
22558.9
11463.3
2494.65
2496.87
2499.12
2501.38
2503.67
2505.98
2508.3
2510.65
2513.02
2515.42
2517.83
2520.27
2522.73
2525.21
2527.72
2530.25
2532.8
2535.37
2537.97
2540.6
2543.25
2545.92
2548.62
2551.34
2554.09
2556.87
2559.67
2562.5
2565.35
2568.23
2571.14
2574.08
2577.04
2580.04
2583.06
2586.11
2589.19
2592.3
2595.43
2598.6
2601.8
2605.03
2608.29
2611.59
2614.91
2618.27
2621.66
2625.08
2628.54
2632.03
2635.55
2639.11
2642.71
2646.33
2650
2653.7
2657.44
2661.21
2665.03
3213.07
3191.5
3263.87
3392.43
3474.97
3569.33
3644.56
3726.7
3799.65
3873.98
3943.61
4012.88
4079.24
4144.74
4208.19
4270.62
4331.47
4391.28
4449.76
4507.2
4563.49
4618.74
4672.94
4726.11
4778.31
4829.46
4879.69
4928.84
4977.05
5024.17
5070.25
5115.25
5159.14
5201.86
5243.38
5283.64
5322.64
5360.36
5396.93
5432.54
5467.72
5501.68
5534.78
5566.9
5598.12
5628.37
5657.69
5686.03
5713.41
5739.81
5765.21
5789.62
5813.02
5835.43
5856.8
5877.17
5896.49
5914.82
5932.09
5948.36
5963.56
5977.78
5990.9
6003.03
6014.04
6024.01
6032.78
6040.41
6048.03
6054.96
6059.89
6064.43
6067.54
6070.35
6072.52
6074.01
6074.27
6072.72
6070.44
6067.09
6062.93
6057.9
6052.09
6045.52
6038.26
6030.44
6021.69
6012.62
6002.35
5991.99
5980.36
5968.85
5956.03
5943.56
5929.74
5916.13
5902
5887.63
5873.08
5858.36
5843.61
5828.8
5814.01
5799.22
5784.53
5769.93
5755.53
5741.36
5727.51
5713.99
5700.84
5687.99
5675.42
5662.83
5649.93
5635.95
5620.1
5599.53
5569.24
5447.56
11463.3
1993.28
997.146
811.22
693.702
622.98
629.865
626.023
615.343
593.106
569.092
545.71
524.081
506.158
493.83
485.047
484.321
486.092
511.395
558.543
641.79
742.36
852.328
961.858
1061.35
1138.13
1185.38
1180.87
1142.25
1067.04
943.967
792.756
656.014
569.679
501.639
463.081
455.403
462.712
483.194
515.42
546.857
579.847
669.238
793.38
986.095
1296.99
1610.66
1830.98
1975.68
2052.42
2075.9
2072.38
2037.58
1985.58
1926.9
1882.8
1839.59
1783.31
1740.99
1723.34
1724.49
1694.75
1683.61
1676.54
1672.43
1668.07
1667.87
1669.27
1672.13
1676.31
1681.18
1686.98
1693.18
1699.96
1706.97
1714.3
1721.77
1729.39
1737.08
1744.82
1752.57
1760.31
1768.02
1775.66
1783.23
1790.69
1798.04
1805.25
1812.31
1819.19
1825.93
1832.46
1838.81
1844.98
1850.99
1856.93
1862.86
1868.99
1875.58
1883.06
1892
1900.11
1908.26
1916.1
1923.76
1931.19
1938.4
1945.38
1952.14
1958.67
1964.97
1971.05
1976.9
1982.51
1987.9
1993.07
1998
2002.7
2007.18
2011.43
2015.45
2019.25
2022.82
2026.17
2029.3
2032.21
2034.92
2037.45
2039.88
2042.06
2044
2045.8
2047.41
2048.93
2050.24
2051.23
2051.61
2051.22
2050.51
2049.6
2048.49
2047.19
2045.72
2044.11
2042.4
2040.05
2038.46
2035.22
2033.56
2029.9
2028.02
2024
2021.9
2017.55
2014.89
2011.25
2007.7
2004.14
2000.43
1996.72
1992.95
1989.16
1985.35
1981.53
1977.71
1973.9
1970.11
1966.37
1962.68
1959.06
1955.52
1952.08
1948.7
1945.5
1942.49
1939.78
1937.43
1936.02
1934.65
1943.17
11463.3
2010.29
814.581
640.629
679.963
681.79
654.649
599.568
540.14
484.146
434.653
392.437
359.256
333.273
313.288
297.976
287.244
279.188
276.78
278.962
289.054
307.04
338.759
381.932
436.747
496.586
559.09
606.367
640.389
639.273
619.488
579.693
517.721
448.119
395.67
383.701
393.596
416.794
452.793
522.766
631.017
780.572
975.488
1153.49
1303.31
1435.24
1528.52
1561.23
1562.28
1517.86
1465.01
1405.95
1349.57
1297.48
1251.85
1216.11
1185.1
1159.71
1141.89
1129.28
1120.36
1112.51
1107.66
1105.03
1103.85
1103.42
1104.15
1105.88
1108.13
1110.9
1114.01
1117.45
1121.11
1124.97
1128.96
1133.07
1137.25
1141.51
1145.8
1150.11
1154.44
1158.77
1163.09
1167.39
1171.65
1175.88
1180.07
1184.2
1188.28
1192.31
1196.29
1200.22
1204.11
1207.99
1211.86
1215.78
1219.76
1223.87
1228.13
1232.56
1237.01
1241.24
1245.4
1249.43
1253.33
1257.11
1260.77
1264.29
1267.69
1270.96
1274.1
1277.11
1279.99
1282.74
1285.35
1287.83
1290.18
1292.4
1294.48
1296.42
1298.24
1299.92
1301.47
1302.88
1304.17
1305.33
1306.37
1307.29
1308.1
1308.78
1309.33
1309.76
1310.08
1310.28
1310.32
1310.19
1309.79
1309.18
1308.45
1307.6
1306.63
1305.56
1304.38
1303.1
1301.71
1300.15
1298.64
1296.76
1295.12
1293.02
1291.22
1288.92
1286.99
1284.49
1282.38
1279.96
1277.54
1275.08
1272.55
1269.99
1267.39
1264.77
1262.12
1259.44
1256.76
1254.07
1251.38
1248.69
1246.02
1243.38
1240.77
1238.22
1235.74
1233.39
1231.24
1229.41
1228.08
1227.92
1229.3
1239.64
11463.3
2039.02
1012.87
975.994
903.613
774.754
657.941
551.277
466.927
403.959
356.496
319.417
290.514
268.348
251.43
238.567
228.945
222
217.402
215.604
216.619
219.583
227.673
241.552
262.766
290.902
325.457
360.444
392.751
416.423
424.455
418.601
397.026
394.457
428.322
515.817
584.567
642.176
712.215
810.505
942.826
1063.97
1144.18
1212.47
1268.36
1291.87
1263.46
1213.5
1171.75
1116.93
1072.21
1030.27
996.012
966.967
943.486
925.093
910.516
899.728
892.132
886.793
883.097
881.101
880.023
879.876
880.513
881.796
883.587
885.782
888.266
891.001
893.929
897.02
900.236
903.559
906.963
910.437
913.962
917.528
921.124
924.741
928.369
932.002
935.632
939.254
942.861
946.449
950.015
953.556
957.071
960.559
964.023
967.466
970.894
974.312
977.729
981.153
984.589
988.038
991.491
994.919
998.267
1001.51
1004.67
1007.72
1010.68
1013.54
1016.31
1018.96
1021.52
1023.97
1026.32
1028.56
1030.69
1032.71
1034.62
1036.43
1038.12
1039.7
1041.17
1042.53
1043.77
1044.9
1045.92
1046.82
1047.62
1048.3
1048.88
1049.34
1049.7
1049.95
1050.1
1050.13
1050.05
1049.85
1049.53
1049.07
1048.45
1047.71
1046.86
1045.91
1044.86
1043.72
1042.48
1041.15
1039.72
1038.19
1036.6
1034.87
1033.12
1031.21
1029.32
1027.26
1025.24
1023.03
1020.88
1018.61
1016.3
1013.94
1011.54
1009.09
1006.61
1004.1
1001.56
999.005
996.431
993.844
991.249
988.652
986.061
983.479
980.925
978.416
975.976
973.649
971.493
969.62
968.189
967.742
968.76
975.149
11463.3
2313.67
1469.15
1186.16
941.904
728.642
562.477
450.96
374.849
321.542
283.451
256.097
236.288
221.411
210.003
201.266
194.685
189.921
186.75
185.268
185.58
186.909
190.654
197.356
207.997
223.547
244.456
268.212
292.484
311.835
327.598
355.199
410.761
511.488
604.149
674.137
743.535
819.567
893.033
957.721
1013.72
1061.86
1095.76
1106.3
1080.62
1031.31
995.984
952.123
916.311
881.241
853.992
830.134
811.234
795.859
783.901
774.834
768.186
763.637
760.75
759.505
758.952
759.106
760.102
761.631
763.6
765.923
768.522
771.342
774.336
777.476
780.734
784.092
787.533
791.042
794.609
798.223
801.875
805.558
809.262
812.981
816.709
820.439
824.167
827.886
831.592
835.281
838.95
842.596
846.217
849.813
853.382
856.926
860.444
863.938
867.407
870.85
874.26
877.629
880.946
884.195
887.36
890.436
893.425
896.323
899.127
901.836
904.449
906.962
909.376
911.687
913.897
916.002
918.001
919.893
921.677
923.35
924.913
926.365
927.703
928.929
930.041
931.039
931.924
932.694
933.351
933.895
934.324
934.641
934.843
934.928
934.916
934.781
934.529
934.158
933.664
933.045
932.296
931.432
930.463
929.392
928.22
926.947
925.578
924.113
922.549
920.895
919.152
917.311
915.4
913.392
911.326
909.167
906.964
904.663
902.331
899.924
897.465
894.956
892.399
889.801
887.165
884.498
881.805
879.089
876.354
873.604
870.843
868.078
865.315
862.57
859.852
857.176
854.563
852.048
849.685
847.562
845.812
844.805
845.038
848.26
11463.3
2930.01
1733.03
1209.15
834.203
588.504
444.811
356.313
301.459
265.723
240.857
222.588
208.571
197.578
188.812
181.849
176.478
172.572
170.032
168.974
169.308
170.675
173.859
179.022
186.735
198.234
214.521
235.776
263.454
304.053
358.572
446.461
556.729
649.898
719.332
782.497
836.251
877.765
912.89
946.407
966.693
971.142
944.845
912.587
880.899
845.564
816.229
787.106
763.8
743.248
727.005
713.479
702.933
694.784
688.814
684.674
682.304
681.206
680.982
681.671
683.03
684.935
687.313
690.041
693.048
696.277
699.681
703.229
706.893
710.655
714.499
718.414
722.39
726.417
730.487
734.594
738.729
742.885
747.057
751.237
755.418
759.596
763.765
767.92
772.055
776.168
780.253
784.307
788.328
792.312
796.259
800.167
804.033
807.857
811.634
815.36
819.028
822.628
826.155
829.6
832.956
836.222
839.394
842.471
845.449
848.326
851.1
853.768
856.329
858.781
861.122
863.353
865.469
867.469
869.352
871.116
872.76
874.282
875.681
876.957
878.109
879.138
880.041
880.82
881.473
882.002
882.404
882.681
882.821
882.85
882.76
882.538
882.187
881.708
881.1
880.364
879.499
878.513
877.411
876.196
874.87
873.433
871.889
870.24
868.488
866.636
864.685
862.637
860.499
858.271
855.963
853.572
851.112
848.572
845.971
843.302
840.574
837.792
834.959
832.082
829.165
826.214
823.236
820.233
817.21
814.171
811.121
808.065
805.012
801.972
798.959
795.984
793.069
790.243
787.549
785.06
782.881
781.268
780.574
781.655
11463.3
3436.18
1777.36
1037.08
651.908
458.456
360.182
304.205
268.486
243.305
224.421
209.695
197.853
188.066
179.951
173.348
168.181
164.439
162.225
161.646
162.491
165.013
169.69
176.913
187.493
201.786
223.067
256.396
308.473
390.424
495.807
589.178
660.332
721.464
769.909
806.116
834.719
858.271
868.38
868.119
846.396
822.977
796.94
770.844
745.702
721.642
701.202
683.018
668.29
655.947
646.186
638.483
632.763
628.745
626.425
625.43
625.293
626.15
627.777
630.04
632.807
635.981
639.486
643.249
647.216
651.347
655.609
659.978
664.438
668.974
673.575
678.234
682.942
687.691
692.477
697.29
702.124
706.972
711.826
716.679
721.526
726.358
731.172
735.96
740.719
745.443
750.128
754.768
759.361
763.903
768.39
772.822
777.194
781.505
785.75
789.925
794.027
798.051
801.991
805.838
809.587
813.234
816.777
820.214
823.54
826.753
829.85
832.829
835.686
838.418
841.022
843.495
845.838
848.051
850.131
852.076
853.886
855.559
857.094
858.491
859.749
860.867
861.846
862.684
863.382
863.939
864.357
864.628
864.745
864.749
864.608
864.323
863.897
863.33
862.623
861.777
860.794
859.678
858.433
857.062
855.567
853.949
852.209
850.344
848.355
846.253
844.041
841.722
839.3
836.781
834.17
831.47
828.688
825.823
822.885
819.874
816.799
813.664
810.474
807.237
803.956
800.64
797.295
793.923
790.531
787.121
783.7
780.275
776.853
773.444
770.061
766.717
763.429
760.222
757.133
754.219
751.562
749.334
747.71
747.191
11463.3
3579.78
1564.17
816.889
517.089
383.696
314.544
274.083
247.821
229.498
215.491
203.754
193.492
184.623
177.111
171.027
166.54
163.826
162.81
163.398
165.8
170.635
178.389
190.989
210.861
240.285
285.207
355.872
442.945
525.401
591.865
648.444
696.157
734.083
764.191
784.534
792.238
786.906
770.364
752.772
731.873
711.823
691.788
672.586
654.646
638.552
624.918
613.362
604.016
596.522
590.814
586.684
584.113
582.954
582.732
583.516
585.163
587.558
590.571
594.094
598.033
602.31
606.86
611.629
616.572
621.658
626.86
632.158
637.538
642.986
648.492
654.049
659.648
665.283
670.948
676.633
682.331
688.033
693.73
699.415
705.08
710.718
716.322
721.887
727.407
732.879
738.294
743.647
748.934
754.151
759.294
764.362
769.351
774.257
779.078
783.809
788.45
792.998
797.441
801.772
805.988
810.084
814.059
817.909
821.631
825.223
828.681
832.002
835.184
838.224
841.121
843.872
846.476
848.932
851.237
853.389
855.387
857.23
858.917
860.446
861.818
863.032
864.088
864.986
865.724
866.304
866.725
866.974
867.063
867.014
866.802
866.429
865.899
865.212
864.37
863.375
862.228
860.933
859.494
857.913
856.192
854.334
852.342
850.217
847.965
845.589
843.091
840.476
837.748
834.911
831.973
828.938
825.812
822.596
819.297
815.922
812.475
808.964
805.395
801.774
798.107
794.402
790.665
786.9
783.114
779.31
775.495
771.677
767.863
764.063
760.29
756.556
752.876
749.272
745.775
742.425
739.259
736.42
733.988
732.13
11463.3
3404.7
1283.03
662.368
444.13
348.636
297.029
265.697
244.15
227.899
215.02
204.382
195.348
187.645
181.293
176.51
173.618
172.765
174.221
177.986
184.964
196.509
213.914
241.765
284.52
342.478
409.618
473.091
530.897
581.459
624.888
661.224
692.2
714.878
723.582
721.609
708.962
695.092
678.66
662.851
647.045
632.049
617.485
603.776
591.33
580.513
571.465
564.051
558.236
553.879
550.89
549.368
548.905
549.379
550.827
553.12
556.149
559.816
564.026
568.691
573.737
579.097
584.715
590.543
596.543
602.684
608.945
615.306
621.749
628.259
634.824
641.433
648.077
654.746
661.439
668.144
674.848
681.543
688.218
694.864
701.473
708.038
714.551
721.004
727.387
733.685
739.91
746.056
752.119
758.094
763.977
769.766
775.457
781.045
786.527
791.898
797.154
802.286
807.291
812.164
816.902
821.501
825.958
830.27
834.435
838.449
842.31
846.013
849.556
852.936
856.152
859.201
862.081
864.792
867.331
869.696
871.886
873.899
875.734
877.392
878.87
880.17
881.291
882.232
882.994
883.576
883.978
884.184
884.222
884.089
883.776
883.285
882.617
881.775
880.761
879.576
878.223
876.705
875.025
873.186
871.192
869.044
866.747
864.304
861.72
858.997
856.141
853.155
850.044
846.813
843.469
840.019
836.467
832.819
829.079
825.257
821.358
817.39
813.361
809.275
805.14
800.965
796.756
792.518
788.257
783.979
779.692
775.404
771.122
766.856
762.619
758.421
754.279
750.209
746.237
742.4
738.74
735.349
732.245
729.339
11463.3
2976.81
1036.28
563.423
400.875
327.396
288.401
263.012
245.517
232.672
222.383
213.724
206.417
200.557
196.519
194.906
195.902
200.352
208.244
219.994
237.615
263.002
297.81
340.841
388.089
436.407
482.568
524.497
562.27
594.762
623.27
648.023
660.135
662.158
655.637
645.772
633.006
620.484
608.082
596.401
585.073
574.185
563.736
554.068
545.501
538.231
532.309
527.69
524.336
522.312
521.505
521.523
522.611
524.607
527.449
531.049
535.324
540.191
545.573
551.4
557.608
564.138
570.933
577.95
585.148
592.498
599.976
607.577
615.262
623.011
630.811
638.645
646.494
654.336
662.133
669.903
677.663
685.408
693.125
700.802
708.429
715.999
723.503
730.934
738.287
745.562
752.74
759.808
766.76
773.589
780.295
786.874
793.324
799.641
805.82
811.858
817.749
823.491
829.082
834.517
839.793
844.905
849.852
854.631
859.238
863.671
867.926
872.001
875.891
879.595
883.111
886.435
889.568
892.507
895.25
897.797
900.145
902.292
904.239
905.984
907.529
908.872
910.013
910.954
911.692
912.23
912.558
912.678
912.609
912.342
911.876
911.213
910.354
909.302
908.059
906.627
905.01
903.21
901.23
899.075
896.747
894.251
891.589
888.767
885.789
882.66
879.384
875.966
872.412
868.726
864.917
860.99
856.954
852.812
848.573
844.246
839.838
835.357
830.811
826.206
821.548
816.848
812.112
807.346
802.557
797.753
792.941
788.131
783.33
778.549
773.799
769.091
764.438
759.856
755.369
751.004
746.793
742.809
739.037
735.167
11463.3
2499.06
883.9
516.727
384.33
322.949
288.856
268.602
255.084
245.149
237.373
231.287
227.022
225.222
225.917
230.328
238.59
249.937
264.651
284.836
310.67
341.277
375.164
410.377
445.25
478.681
509.782
537.445
562.565
586.035
601.084
606.029
605.143
600.08
591.778
582.502
572.979
563.994
555.379
547.107
539.018
531.182
523.766
517.049
511.259
506.529
502.908
500.389
499.133
498.818
499.465
501.067
503.601
506.995
511.189
516.108
521.679
527.834
534.504
541.63
549.167
557.062
565.243
573.662
582.279
591.05
599.92
608.799
617.759
626.797
635.896
645.037
654.194
663.347
672.495
681.617
690.697
699.733
708.699
717.584
726.381
735.085
743.688
752.183
760.562
768.811
776.921
784.886
792.7
800.359
807.861
815.204
822.387
829.405
836.255
842.934
849.438
855.766
861.914
867.878
873.654
879.24
884.632
889.829
894.827
899.624
904.218
908.604
912.781
916.744
920.493
924.025
927.34
930.436
933.311
935.965
938.396
940.602
942.583
944.34
945.872
947.179
948.263
949.123
949.759
950.171
950.35
950.309
950.05
949.572
948.875
947.961
946.834
945.495
943.947
942.193
940.236
938.08
935.727
933.182
930.449
927.532
924.435
921.164
917.723
914.118
910.355
906.439
902.376
898.171
893.833
889.368
884.784
880.09
875.293
870.404
865.432
860.384
855.267
850.089
844.856
839.579
834.264
828.918
823.551
818.171
812.787
807.408
802.043
796.701
791.393
786.13
780.923
775.789
770.746
765.82
761.032
756.442
752.024
747.281
11463.3
2085.53
787.78
487.472
377.094
324.413
296.747
280.517
270.123
263.066
258.275
255.898
255.519
258.072
264.032
273.477
285.868
300.948
319.449
341.145
365.207
390.675
416.609
442.206
466.751
489.358
510.625
530.976
546.667
554.2
556.171
555.916
552.173
546.675
540.295
533.85
527.566
521.537
515.636
509.82
504.094
498.591
493.513
489.082
485.478
482.801
481.23
480.671
481.003
482.334
484.608
487.795
491.867
496.792
502.547
509.017
516.135
523.839
532.06
540.717
549.693
558.935
568.495
578.347
588.454
598.775
609.278
619.966
630.761
641.615
652.495
663.384
674.233
685.002
695.669
706.216
716.624
726.88
737.004
747.002
756.875
766.623
776.243
785.728
795.065
804.24
813.237
822.05
830.672
839.099
847.333
855.372
863.214
870.856
878.294
885.527
892.552
899.368
905.974
912.364
918.535
924.484
930.209
935.708
940.98
946.022
950.833
955.409
959.747
963.846
967.704
971.318
974.69
977.817
980.698
983.333
985.722
987.863
989.755
991.4
992.799
993.951
994.856
995.517
995.931
996.102
996.023
995.704
995.144
994.346
993.312
992.044
990.545
988.818
986.866
984.692
982.301
979.695
976.878
973.854
970.629
967.206
963.591
959.789
955.806
951.649
947.324
942.837
938.194
933.401
928.468
923.398
918.204
912.896
907.483
901.977
896.384
890.715
884.976
879.174
873.316
867.412
861.469
855.496
849.504
843.503
837.503
831.514
825.542
819.599
813.692
807.833
802.034
796.309
790.677
785.158
779.769
774.559
769.509
763.958
11463.3
1952.24
769.456
483.995
379.832
333.005
309.221
295.981
288.191
283.916
282.252
282.431
285.365
291.099
299.585
310.552
323.691
339.02
356.202
374.636
393.726
412.887
431.573
449.435
466.775
483.823
498.09
507.122
511.589
513.183
513.328
511.696
508.665
505.011
501.104
497.176
493.261
489.361
485.45
481.574
477.834
474.39
471.426
469.122
467.726
467.235
467.646
469.177
471.631
474.997
479.256
484.378
490.312
496.958
504.158
512.074
520.697
529.975
539.85
550.263
561.185
572.573
584.344
596.448
608.84
621.468
634.28
647.246
660.282
673.283
686.178
698.894
711.399
723.675
735.703
747.475
758.991
770.269
781.344
792.248
802.992
813.588
824.042
834.346
844.478
854.414
864.129
873.614
882.865
891.883
900.666
909.215
917.53
925.605
933.438
941.029
948.377
955.481
962.341
968.953
975.315
981.421
987.273
992.867
998.205
1003.29
1008.11
1012.67
1016.96
1021
1024.76
1028.26
1031.49
1034.46
1037.15
1039.58
1041.74
1043.63
1045.26
1046.61
1047.7
1048.53
1049.08
1049.38
1049.41
1049.18
1048.69
1047.94
1046.93
1045.67
1044.16
1042.4
1040.4
1038.15
1035.67
1032.96
1030.01
1026.84
1023.45
1019.84
1016.02
1011.99
1007.76
1003.34
998.724
993.927
988.955
983.816
978.516
973.062
967.463
961.72
955.851
949.869
943.783
937.603
931.338
924.995
918.583
912.108
905.577
899
892.382
885.738
879.079
872.418
865.764
859.127
852.513
845.931
839.39
832.9
826.474
820.127
813.875
807.739
801.728
795.884
790.209
783.9
11463.3
1868.76
743.697
481.131
386.799
344.699
323.934
312.884
307.019
304.483
304.009
306.041
310.632
317.464
326.243
336.647
348.428
361.319
374.98
389.001
403
416.836
430.671
444.291
456.118
464.501
470.438
474.461
476.666
477.564
477.741
477.077
475.776
474.164
472.371
470.48
468.521
466.547
464.636
462.936
461.683
460.985
460.812
461.332
462.672
464.804
467.657
471.022
475.268
480.469
486.635
493.741
501.755
510.652
520.466
531.101
542.527
554.676
567.473
580.854
594.766
609.141
623.888
638.94
654.262
669.776
685.334
700.807
716.095
731.137
745.856
760.182
774.071
787.496
800.449
812.935
824.973
836.636
848.028
859.252
870.315
881.241
892.061
902.755
913.28
923.589
933.629
943.394
952.894
962.124
971.085
979.776
988.194
996.338
1004.2
1011.79
1019.1
1026.14
1032.9
1039.39
1045.6
1051.52
1057.16
1062.52
1067.59
1072.39
1076.9
1081.13
1085.08
1088.74
1092.11
1095.2
1098.01
1100.53
1102.77
1104.74
1106.42
1107.82
1108.93
1109.75
1110.3
1110.56
1110.54
1110.26
1109.68
1108.83
1107.71
1106.32
1104.68
1102.77
1100.61
1098.19
1095.52
1092.6
1089.44
1086.04
1082.4
1078.53
1074.43
1070.11
1065.58
1060.83
1055.87
1050.72
1045.37
1039.83
1034.12
1028.24
1022.2
1016.01
1009.67
1003.18
996.578
989.863
983.049
976.143
969.152
962.085
954.95
947.755
940.507
933.214
925.88
918.527
911.167
903.812
896.472
889.155
881.866
874.616
867.41
860.259
853.179
846.184
839.292
832.518
825.871
819.382
813.087
806.06
11463.3
1850.39
743.41
488.073
398.034
358.257
338.716
328.421
323.182
321.099
320.885
323.365
328.046
334.435
342.124
350.778
360.206
370.175
380.466
390.877
401.581
411.966
420.949
428.392
434.512
439.796
443.969
447.24
449.788
451.828
453.533
455.002
456.241
457.268
458.137
458.921
459.673
460.465
461.348
462.343
463.32
464.748
466.936
470.159
474.35
479.485
485.581
492.759
500.951
510.176
520.446
531.726
543.964
557.121
571.184
586.084
601.872
618.359
635.401
652.898
670.756
688.88
707.165
725.504
743.756
761.815
779.622
797.07
814.047
830.44
846.13
861.054
875.188
888.552
901.176
913.077
924.249
934.881
945.241
955.666
965.984
976.242
986.567
996.869
1007.05
1017.02
1026.76
1036.24
1045.43
1054.33
1062.93
1071.23
1079.23
1086.92
1094.3
1101.37
1108.13
1114.6
1120.76
1126.63
1132.2
1137.46
1142.42
1147.07
1151.42
1155.48
1159.25
1162.71
1165.88
1168.75
1171.33
1173.61
1175.59
1177.28
1178.68
1179.81
1180.66
1181.2
1181.45
1181.4
1181.1
1180.48
1179.57
1178.39
1176.93
1175.19
1173.17
1170.9
1168.36
1165.56
1162.51
1159.2
1155.63
1151.82
1147.77
1143.48
1138.95
1134.2
1129.22
1124.01
1118.6
1112.97
1107.13
1101.1
1094.88
1088.48
1081.9
1075.15
1068.25
1061.21
1054.02
1046.73
1039.34
1031.84
1024.24
1016.56
1008.79
1000.95
993.048
985.088
977.083
969.035
960.953
952.863
944.776
936.703
928.651
920.628
912.641
904.698
896.803
888.97
881.217
873.561
866.015
858.592
851.301
844.162
837.251
829.546
11463.3
1827.99
742.814
496.16
407.867
369.125
350.312
339.99
334.537
332.294
331.935
334.001
337.959
343.252
349.492
356.419
363.934
371.906
380.141
388.116
395.739
402.923
409.924
416.45
422.585
428.406
433.876
439.04
443.891
448.399
452.497
456.016
459.165
462.239
465.329
468.529
471.921
475.605
479.673
484.259
489.617
495.881
503.307
512.155
522.052
532.972
544.943
558.009
572.108
587.225
603.454
620.689
638.734
657.456
676.746
696.475
716.447
736.642
757.001
777.441
797.874
818.211
838.367
858.256
877.79
896.889
915.483
933.49
950.815
967.342
982.876
997.405
1010.98
1023.69
1035.61
1046.78
1057.24
1067.03
1076.28
1085.15
1093.72
1102.28
1111.36
1120.55
1129.63
1138.5
1147.15
1155.53
1163.61
1171.36
1178.79
1185.9
1192.68
1199.13
1205.25
1211.03
1216.49
1221.64
1226.49
1231.04
1235.28
1239.2
1242.82
1246.12
1249.13
1251.85
1254.27
1256.4
1258.23
1259.78
1261.04
1262
1262.67
1263.06
1263.16
1263.01
1262.59
1261.86
1260.86
1259.57
1258.02
1256.19
1254.09
1251.72
1249.09
1246.2
1243.05
1239.65
1235.99
1232.09
1227.94
1223.54
1218.9
1214.02
1208.92
1203.59
1198.03
1192.26
1186.28
1180.08
1173.68
1167.08
1160.28
1153.3
1146.13
1138.79
1131.28
1123.62
1115.81
1107.86
1099.78
1091.62
1083.35
1074.99
1066.54
1058
1049.38
1040.7
1031.95
1023.16
1014.33
1005.48
996.639
987.799
978.972
970.164
961.383
952.637
943.935
935.285
926.689
918.167
909.739
901.418
893.214
885.142
877.205
869.418
861.899
853.556
11463.3
1813.63
744.849
501.453
414.338
376.644
358.036
347.536
341.915
339.527
339.058
340.839
344.43
349.347
355.192
361.731
368.808
376.225
383.928
391.978
400.034
407.93
415.811
423.608
431.379
439.159
446.954
454.814
462.683
470.477
478.27
486.215
494.383
502.859
511.728
521.109
531.102
541.828
553.381
565.878
579.453
594.094
609.762
626.18
643.479
661.673
680.775
700.792
721.597
742.992
764.755
786.947
809.441
832.03
854.544
876.88
898.898
920.557
941.772
962.506
982.699
1002.34
1021.41
1039.88
1057.74
1074.96
1091.52
1107.4
1122.57
1137
1150.68
1163.54
1175.51
1186.79
1197.45
1207.53
1217.06
1225.91
1234.05
1241.37
1248.33
1255.47
1262.79
1269.96
1276.86
1283.46
1289.74
1295.7
1301.33
1306.65
1311.65
1316.35
1320.74
1324.81
1328.57
1332.02
1335.18
1338.09
1340.73
1343.09
1345.19
1347
1348.54
1349.81
1350.82
1351.58
1352.09
1352.33
1352.29
1352.07
1351.57
1350.8
1349.78
1348.52
1347.01
1345.27
1343.29
1341.06
1338.59
1335.87
1332.91
1329.71
1326.28
1322.62
1318.73
1314.61
1310.26
1305.68
1300.88
1295.86
1290.61
1285.15
1279.47
1273.57
1267.48
1261.18
1254.68
1247.99
1241.1
1234.01
1226.74
1219.29
1211.65
1203.85
1195.87
1187.73
1179.44
1171
1162.42
1153.7
1144.86
1135.9
1126.83
1117.66
1108.4
1099.06
1089.64
1080.14
1070.6
1061.01
1051.38
1041.75
1032.13
1022.53
1012.94
1003.37
993.83
984.334
974.889
965.506
956.211
947.015
937.925
928.95
920.098
911.384
902.814
894.393
886.278
877.35
11463.3
1800.25
746.028
504.223
417.779
382.312
364.327
354.535
350.307
348.872
349.458
352.497
357.238
363.253
370.591
379.352
388.732
398.522
409.25
421.035
433.512
446.193
459.496
473.405
487.948
503.079
518.812
535.127
552.003
569.523
587.708
606.646
626.263
646.599
667.654
689.562
712.391
736.368
761.376
787.338
814.065
841.388
869.07
896.827
924.636
952.399
980.145
1008.23
1036.13
1063.23
1089.21
1113.67
1136.7
1158.31
1178.63
1197.6
1215.33
1231.79
1247.09
1261.3
1274.53
1286.83
1298.39
1309.21
1319.36
1328.88
1337.79
1346.16
1353.98
1361.35
1368.44
1375.35
1382.07
1388.54
1394.64
1400.32
1405.47
1410.03
1414.31
1418.54
1423.09
1427.64
1431.48
1434.76
1437.6
1440.11
1442.33
1444.3
1446.04
1447.55
1448.83
1449.88
1450.71
1451.31
1451.7
1451.87
1451.85
1451.7
1451.37
1450.85
1450.13
1449.22
1448.12
1446.84
1445.38
1443.75
1441.95
1439.96
1437.79
1435.44
1432.9
1430.18
1427.28
1424.2
1420.94
1417.5
1413.87
1410.07
1406.07