/*--------------------------------*- C++ -*----------------------------------*\
  =========                 |
  \\      /  F ield         | OpenFOAM: The Open Source CFD Toolbox
   \\    /   O peration     | Website:  https://openfoam.org
    \\  /    A nd           | Version:  8
     \\/     M anipulation  |
\*---------------------------------------------------------------------------*/
FoamFile
{
    version     2.0;
    format      ascii;
    class       volVectorField;
    location    "900";
    object      U;
}
// * * * * * * * * * * * * * * * * * * * * * * * * * * * * * * * * * * * * * //

dimensions      [0 1 -1 0 0 0 0];

internalField   nonuniform List<vector> 
12225
(
(9.78675 0.0533033 0)
(9.3333 0.0999748 0)
(8.90402 0.0959459 0)
(8.50146 0.0899927 0)
(8.15802 0.0794425 0)
(7.86158 0.0666745 0)
(7.62272 0.0481588 0)
(7.42422 0.0306233 0)
(7.26205 0.0235425 0)
(7.11926 0.020319 0)
(6.99933 0.0174544 0)
(6.90003 0.021414 0)
(6.8254 0.0298386 0)
(6.76002 0.02306 0)
(6.71048 0.00588983 0)
(6.67477 -0.00525482 0)
(6.64412 -0.0101822 0)
(6.64069 -0.0089797 0)
(10.0646 0.0556138 0)
(10.2116 0.0869209 0)
(10.2866 0.0868385 0)
(10.3066 0.0832475 0)
(10.2754 0.0790804 0)
(10.2283 0.0737942 0)
(10.153 0.0702021 0)
(10.0753 0.0669769 0)
(9.98955 0.0619123 0)
(9.90497 0.056539 0)
(9.81922 0.0511862 0)
(9.73395 0.0441264 0)
(9.64336 0.0375883 0)
(9.55361 0.034923 0)
(9.47345 0.0333485 0)
(9.40321 0.0309978 0)
(9.33987 0.026232 0)
(9.28059 0.0195907 0)
(10.0221 0.0433853 0)
(10.0778 0.0684298 0)
(10.1264 0.0715023 0)
(10.1617 0.0769915 0)
(10.1906 0.0813463 0)
(10.2136 0.0818427 0)
(10.2278 0.0786171 0)
(10.2341 0.0744979 0)
(10.2338 0.0719889 0)
(10.2298 0.0699781 0)
(10.2224 0.0675226 0)
(10.212 0.0646113 0)
(10.1991 0.0618268 0)
(10.1844 0.0580112 0)
(10.1669 0.0532818 0)
(10.1474 0.0486614 0)
(10.1269 0.0430231 0)
(10.1048 0.0365731 0)
(10.0097 0.0328201 0)
(10.0442 0.0578797 0)
(10.075 0.0649433 0)
(10.0968 0.0703346 0)
(10.1165 0.0736556 0)
(10.1347 0.0737364 0)
(10.1501 0.0713553 0)
(10.162 0.0682879 0)
(10.1714 0.0661161 0)
(10.1796 0.0642987 0)
(10.1867 0.062471 0)
(10.1929 0.0605739 0)
(10.1985 0.0586017 0)
(10.2033 0.0556633 0)
(10.2066 0.0517651 0)
(10.2084 0.0476544 0)
(10.2087 0.0432503 0)
(10.2079 0.0388605 0)
(10.0053 0.0249507 0)
(10.0311 0.0506948 0)
(10.0552 0.0595232 0)
(10.0732 0.0646145 0)
(10.089 0.0677774 0)
(10.1039 0.0683784 0)
(10.117 0.066925 0)
(10.1276 0.064749 0)
(10.1365 0.0629343 0)
(10.1447 0.0612965 0)
(10.1524 0.0596244 0)
(10.1597 0.0578323 0)
(10.1667 0.0558457 0)
(10.1733 0.0531754 0)
(10.1791 0.0497871 0)
(10.1839 0.0461062 0)
(10.1878 0.0422068 0)
(10.1908 0.0382591 0)
(10.0034 0.0197346 0)
(10.023 0.043737 0)
(10.0431 0.0535274 0)
(10.0593 0.0589176 0)
(10.0736 0.0624193 0)
(10.087 0.0635633 0)
(10.099 0.0627391 0)
(10.1089 0.0610837 0)
(10.1175 0.0594775 0)
(10.1253 0.0578982 0)
(10.1328 0.0562527 0)
(10.1399 0.0544292 0)
(10.1467 0.052352 0)
(10.1531 0.0497865 0)
(10.1589 0.0467429 0)
(10.1639 0.0434113 0)
(10.1683 0.0398924 0)
(10.1719 0.036327 0)
(10.0023 0.0157471 0)
(10.017 0.0374038 0)
(10.034 0.0476054 0)
(10.0489 0.0532136 0)
(10.062 0.0568942 0)
(10.0745 0.0584142 0)
(10.0857 0.0581194 0)
(10.0954 0.0569449 0)
(10.1038 0.055602 0)
(10.1115 0.0541673 0)
(10.1188 0.052598 0)
(10.1257 0.0508071 0)
(10.1323 0.0487412 0)
(10.1384 0.0463098 0)
(10.144 0.0435336 0)
(10.149 0.0405081 0)
(10.1533 0.0373239 0)
(10.1571 0.0340896 0)
(10.0017 0.0129615 0)
(10.0131 0.0325952 0)
(10.0278 0.0429237 0)
(10.0415 0.0486489 0)
(10.0538 0.0523654 0)
(10.0655 0.0540866 0)
(10.0763 0.0541341 0)
(10.0857 0.0532896 0)
(10.0941 0.0521278 0)
(10.1018 0.05079 0)
(10.109 0.0492594 0)
(10.1157 0.047491 0)
(10.1221 0.0454555 0)
(10.128 0.0431385 0)
(10.1334 0.0405556 0)
(10.1383 0.0377673 0)
(10.1426 0.0348407 0)
(10.1464 0.031872 0)
(10.0013 0.0108635 0)
(10.0105 0.0285962 0)
(10.0233 0.038712 0)
(10.0359 0.0444074 0)
(10.0474 0.0481086 0)
(10.0584 0.049968 0)
(10.0686 0.0502853 0)
(10.0778 0.0497153 0)
(10.086 0.0487508 0)
(10.0936 0.0475448 0)
(10.1007 0.046107 0)
(10.1074 0.0444173 0)
(10.1136 0.0424687 0)
(10.1194 0.0402656 0)
(10.1247 0.037841 0)
(10.1295 0.0352389 0)
(10.1338 0.0325293 0)
(10.1375 0.0297835 0)
(10.0009 0.00900595 0)
(10.0083 0.0246404 0)
(10.0193 0.0343335 0)
(10.0307 0.0399199 0)
(10.0414 0.0435574 0)
(10.0516 0.0455031 0)
(10.0612 0.0460472 0)
(10.07 0.0457125 0)
(10.078 0.0449279 0)
(10.0854 0.0438456 0)
(10.0923 0.0425056 0)
(10.0988 0.0409034 0)
(10.1049 0.0390557 0)
(10.1106 0.0369897 0)
(10.1158 0.0347279 0)
(10.1205 0.032329 0)
(10.1247 0.0298383 0)
(10.1284 0.0273273 0)
(10.0007 0.00736822 0)
(10.0065 0.0208141 0)
(10.0158 0.0298498 0)
(10.0259 0.0352192 0)
(10.0357 0.0387184 0)
(10.0451 0.0406856 0)
(10.0541 0.0413914 0)
(10.0624 0.0412526 0)
(10.0701 0.0406189 0)
(10.0773 0.0396544 0)
(10.084 0.0384075 0)
(10.0903 0.0369054 0)
(10.0962 0.0351811 0)
(10.1017 0.033264 0)
(10.1067 0.0311848 0)
(10.1113 0.0289956 0)
(10.1154 0.0267344 0)
(10.1191 0.0244464 0)
(10.0005 0.00591462 0)
(10.0051 0.0171496 0)
(10.0127 0.0252954 0)
(10.0216 0.0302977 0)
(10.0305 0.0335741 0)
(10.0391 0.0354874 0)
(10.0474 0.0362879 0)
(10.0553 0.0362952 0)
(10.0626 0.0357975 0)
(10.0695 0.0349397 0)
(10.0759 0.0338012 0)
(10.0819 0.0324147 0)
(10.0876 0.0308356 0)
(10.0929 0.029075 0)
(10.0977 0.0271973 0)
(10.1021 0.0252132 0)
(10.1061 0.0231835 0)
(10.1098 0.0211228 0)
(10.0004 0.00462953 0)
(10.0039 0.0137097 0)
(10.0102 0.0207383 0)
(10.0179 0.0252004 0)
(10.0258 0.0281578 0)
(10.0337 0.029925 0)
(10.0413 0.0307366 0)
(10.0487 0.0308354 0)
(10.0556 0.0304405 0)
(10.0621 0.0296916 0)
(10.0683 0.0286647 0)
(10.074 0.0274187 0)
(10.0794 0.0259837 0)
(10.0845 0.024411 0)
(10.0891 0.0227176 0)
(10.0933 0.0209601 0)
(10.0972 0.0191474 0)
(10.1007 0.0173267 0)
(10.0003 0.0034832 0)
(10.0031 0.010487 0)
(10.0082 0.0162268 0)
(10.0148 0.0199727 0)
(10.0218 0.0224917 0)
(10.0289 0.0240132 0)
(10.036 0.0247427 0)
(10.0428 0.0248644 0)
(10.0493 0.0245339 0)
(10.0554 0.0238816 0)
(10.0613 0.0229703 0)
(10.0668 0.0218663 0)
(10.0719 0.0205944 0)
(10.0767 0.0192033 0)
(10.0811 0.0177145 0)
(10.0852 0.0161756 0)
(10.0889 0.0145952 0)
(10.0923 0.013011 0)
(10.0002 0.00243356 0)
(10.0025 0.00744564 0)
(10.0067 0.0117725 0)
(10.0123 0.0146384 0)
(10.0185 0.0165856 0)
(10.0249 0.0177569 0)
(10.0313 0.0183083 0)
(10.0377 0.0183706 0)
(10.0438 0.018065 0)
(10.0496 0.0174744 0)
(10.0551 0.0166766 0)
(10.0603 0.0157026 0)
(10.0652 0.0146037 0)
(10.0698 0.0133937 0)
(10.074 0.0121245 0)
(10.0779 0.0108036 0)
(10.0815 0.00946849 0)
(10.0848 0.0081251 0)
(10.0002 0.00144401 0)
(10.002 0.00451879 0)
(10.0056 0.00734753 0)
(10.0104 0.00918287 0)
(10.016 0.0104231 0)
(10.0218 0.0111287 0)
(10.0277 0.0114007 0)
(10.0335 0.0113272 0)
(10.0393 0.0109804 0)
(10.0448 0.0104251 0)
(10.05 0.0097089 0)
(10.055 0.00886677 0)
(10.0597 0.00792693 0)
(10.064 0.00691535 0)
(10.0681 0.0058571 0)
(10.0719 0.00477161 0)
(10.0753 0.00367477 0)
(10.0786 0.00258701 0)
(10.0002 0.000474277 0)
(10.0017 0.00162587 0)
(10.0049 0.00286699 0)
(10.0092 0.00353093 0)
(10.0143 0.00392907 0)
(10.0196 0.00404547 0)
(10.0252 0.00393965 0)
(10.0307 0.00363955 0)
(10.0361 0.00319679 0)
(10.0414 0.00262832 0)
(10.0464 0.00197587 0)
(10.0511 0.00124485 0)
(10.0556 0.000466383 0)
(10.0599 -0.000355856 0)
(10.0638 -0.00119592 0)
(10.0675 -0.00205089 0)
(10.0709 -0.00290296 0)
(10.074 -0.00374054 0)
(10.0002 -0.000467476 0)
(10.0017 -0.00119606 0)
(10.0047 -0.00158337 0)
(10.0088 -0.0021403 0)
(10.0137 -0.00265689 0)
(10.0189 -0.00318509 0)
(10.0242 -0.00373546 0)
(10.0296 -0.00429893 0)
(10.0349 -0.00488607 0)
(10.04 -0.00548211 0)
(10.0449 -0.00610047 0)
(10.0495 -0.0067225 0)
(10.0539 -0.00736132 0)
(10.0581 -0.00799613 0)
(10.0619 -0.0086381 0)
(10.0655 -0.00926746 0)
(10.0689 -0.00989521 0)
(10.072 -0.0104934 0)
(10.0002 -0.00136235 0)
(10.0018 -0.00386201 0)
(10.0049 -0.00580127 0)
(10.0093 -0.00750852 0)
(10.0142 -0.00888206 0)
(10.0195 -0.0100169 0)
(10.025 -0.0109766 0)
(10.0304 -0.0117901 0)
(10.0357 -0.012498 0)
(10.0408 -0.0131228 0)
(10.0457 -0.0136939 0)
(10.0504 -0.0142203 0)
(10.0547 -0.0147185 0)
(10.0589 -0.0151904 0)
(10.0627 -0.015645 0)
(10.0663 -0.0160811 0)
(10.0696 -0.0165036 0)
(10.0728 -0.0168995 0)
(10.0002 -0.00225178 0)
(10.002 -0.00647765 0)
(10.0056 -0.00985606 0)
(10.0104 -0.012591 0)
(10.0157 -0.0146919 0)
(10.0213 -0.0163384 0)
(10.027 -0.0176239 0)
(10.0326 -0.0186254 0)
(10.0381 -0.0194003 0)
(10.0434 -0.0200237 0)
(10.0484 -0.0205228 0)
(10.0531 -0.0209475 0)
(10.0575 -0.0213011 0)
(10.0617 -0.0216212 0)
(10.0655 -0.0219012 0)
(10.0691 -0.022166 0)
(10.0725 -0.0224063 0)
(10.0756 -0.0226282 0)
(10.0002 -0.00321145 0)
(10.0025 -0.00923272 0)
(10.0067 -0.0139701 0)
(10.0122 -0.0175986 0)
(10.0181 -0.0203025 0)
(10.0242 -0.0223505 0)
(10.0303 -0.023877 0)
(10.0362 -0.0249819 0)
(10.0419 -0.0257788 0)
(10.0474 -0.0263427 0)
(10.0525 -0.0267549 0)
(10.0574 -0.0270416 0)
(10.0619 -0.0272594 0)
(10.0661 -0.0274108 0)
(10.07 -0.0275376 0)
(10.0737 -0.0276281 0)
(10.0771 -0.0277141 0)
(10.0802 -0.0277699 0)
(10.0003 -0.00430751 0)
(10.0032 -0.0122741 0)
(10.0084 -0.0182819 0)
(10.0148 -0.0226483 0)
(10.0215 -0.025828 0)
(10.0281 -0.0281755 0)
(10.0347 -0.0298484 0)
(10.041 -0.0309817 0)
(10.047 -0.0317241 0)
(10.0527 -0.0321979 0)
(10.0581 -0.0324775 0)
(10.063 -0.032622 0)
(10.0677 -0.0326739 0)
(10.072 -0.0326687 0)
(10.076 -0.032626 0)
(10.0797 -0.032566 0)
(10.0832 -0.032493 0)
(10.0864 -0.0324124 0)
(10.0005 -0.00562489 0)
(10.0043 -0.0157206 0)
(10.0109 -0.0228547 0)
(10.0184 -0.0277793 0)
(10.0258 -0.0313175 0)
(10.0331 -0.0338709 0)
(10.0402 -0.0355919 0)
(10.047 -0.0366726 0)
(10.0534 -0.0373097 0)
(10.0594 -0.037645 0)
(10.0649 -0.0377663 0)
(10.0701 -0.0377447 0)
(10.0749 -0.0376252 0)
(10.0793 -0.0374553 0)
(10.0834 -0.0372503 0)
(10.0872 -0.0370389 0)
(10.0907 -0.0368233 0)
(10.094 -0.0366088 0)
(10.0007 -0.00727713 0)
(10.006 -0.0196968 0)
(10.0143 -0.0277246 0)
(10.0231 -0.0329805 0)
(10.0314 -0.0367704 0)
(10.0394 -0.0394416 0)
(10.0471 -0.0411243 0)
(10.0544 -0.0420751 0)
(10.0612 -0.0425549 0)
(10.0675 -0.0427271 0)
(10.0733 -0.0426746 0)
(10.0787 -0.0424704 0)
(10.0836 -0.0421753 0)
(10.0882 -0.0418285 0)
(10.0924 -0.0414681 0)
(10.0963 -0.0411073 0)
(10.1 -0.0407655 0)
(10.1033 -0.040427 0)
(10.0011 -0.00940152 0)
(10.0086 -0.0242952 0)
(10.019 -0.0329557 0)
(10.0292 -0.0382971 0)
(10.0383 -0.0421814 0)
(10.0471 -0.0448491 0)
(10.0556 -0.0464226 0)
(10.0635 -0.0472245 0)
(10.0708 -0.0475491 0)
(10.0775 -0.0475456 0)
(10.0838 -0.0473042 0)
(10.0895 -0.0469069 0)
(10.0948 -0.0464133 0)
(10.0996 -0.0458784 0)
(10.104 -0.0453405 0)
(10.1081 -0.0448266 0)
(10.1119 -0.044343 0)
(10.1154 -0.0438796 0)
(10.0016 -0.0122078 0)
(10.0125 -0.0294682 0)
(10.0257 -0.0385582 0)
(10.0376 -0.0438846 0)
(10.0478 -0.0477098 0)
(10.0576 -0.0501925 0)
(10.0672 -0.0515391 0)
(10.0761 -0.0521569 0)
(10.0844 -0.0523035 0)
(10.092 -0.0521277 0)
(10.099 -0.0517114 0)
(10.1054 -0.0511407 0)
(10.1112 -0.0504827 0)
(10.1165 -0.049782 0)
(10.1213 -0.0491024 0)
(10.1257 -0.0484576 0)
(10.1297 -0.0478609 0)
(10.1334 -0.0472833 0)
(10.0028 -0.0169313 0)
(10.0192 -0.035359 0)
(10.0368 -0.0437843 0)
(10.0514 -0.0492857 0)
(10.0642 -0.0534595 0)
(10.0766 -0.055945 0)
(10.0888 -0.0570486 0)
(10.1001 -0.0573573 0)
(10.1104 -0.0571639 0)
(10.1197 -0.056636 0)
(10.1282 -0.0558755 0)
(10.1358 -0.0549776 0)
(10.1425 -0.0540023 0)
(10.1484 -0.0530274 0)
(10.1536 -0.0521039 0)
(10.1582 -0.0512652 0)
(10.1622 -0.0505068 0)
(10.1657 -0.0497792 0)
(10.0086 -0.0249264 0)
(10.0377 -0.0439012 0)
(10.0666 -0.0491549 0)
(10.0901 -0.0538631 0)
(10.1124 -0.0585249 0)
(10.1337 -0.0617101 0)
(10.1531 -0.0634141 0)
(10.1698 -0.0640966 0)
(10.1836 -0.0640762 0)
(10.1948 -0.0635102 0)
(10.2037 -0.0625687 0)
(10.2104 -0.0613699 0)
(10.2152 -0.0600241 0)
(10.2182 -0.0586434 0)
(10.2198 -0.0572966 0)
(10.2202 -0.0560838 0)
(10.2196 -0.0550318 0)
(10.2181 -0.0542294 0)
(10.0362 -0.0348644 0)
(10.13 -0.0632833 0)
(10.2003 -0.0687107 0)
(10.2482 -0.0705802 0)
(10.2794 -0.0717437 0)
(10.2959 -0.0714832 0)
(10.299 -0.0700571 0)
(10.2909 -0.067998 0)
(10.2743 -0.0656479 0)
(10.2515 -0.063151 0)
(10.2243 -0.0605788 0)
(10.194 -0.0579833 0)
(10.1617 -0.0554235 0)
(10.128 -0.0529602 0)
(10.0935 -0.0506526 0)
(10.0587 -0.0485616 0)
(10.0242 -0.0467253 0)
(9.99086 -0.0456379 0)
(9.89454 -0.036086 0)
(9.66887 -0.0683126 0)
(9.42234 -0.0788344 0)
(9.17184 -0.081411 0)
(8.93349 -0.0796923 0)
(8.71569 -0.0751439 0)
(8.51892 -0.0692046 0)
(8.3423 -0.0627245 0)
(8.18484 -0.0562276 0)
(8.04511 -0.0500326 0)
(7.92136 -0.0442816 0)
(7.81181 -0.039 0)
(7.71496 -0.0341737 0)
(7.62933 -0.0297851 0)
(7.55367 -0.0258467 0)
(7.48661 -0.0224311 0)
(7.42635 -0.0196128 0)
(7.37223 -0.0177678 0)
(-0.00278746 0.00761666 0)
(-0.0128544 0.012691 0)
(-0.0266108 0.0138216 0)
(-0.0411354 0.0117959 0)
(-0.0517579 0.00595848 0)
(-0.050915 -0.00367796 0)
(-0.0351163 -0.0166981 -8.01606e-19)
(-0.00777118 -0.0302962 9.16511e-19)
(0.0278673 -0.0404868 0)
(0.068836 -0.0454765 5.2581e-19)
(0.11224 -0.045924 0)
(0.154616 -0.0430229 0)
(0.193198 -0.0378426 0)
(0.226304 -0.0312028 -2.55608e-19)
(0.253059 -0.0236723 0)
(0.273034 -0.0156157 0)
(0.2859 -0.00723382 2.20258e-19)
(0.291834 0.00153126 0)
(0.289786 0.0105939 0)
(0.279869 0.019492 0)
(0.262711 0.0274877 -2.35343e-19)
(0.238933 0.0337864 0)
(0.20945 0.0376601 -2.77942e-19)
(0.175626 0.0384706 0)
(0.139292 0.0357718 0)
(0.102706 0.0295011 -4.51984e-19)
(0.0683693 0.0202969 0)
(0.0387789 0.00978919 7.57565e-19)
(0.0158434 0.00064174 0)
(0.000123516 -0.00492975 -1.29357e-18)
(-0.00981829 -0.00753249 0)
(-0.015026 -0.00931033 0)
(-0.0144278 -0.0115279 0)
(-0.00736557 -0.0151087 0)
(0.00698208 -0.0204638 0)
(0.0290132 -0.0265361 8.74441e-19)
(0.0573453 -0.0310097 0)
(0.0879798 -0.0314831 -1.00869e-18)
(0.115833 -0.0273992 0)
(0.136554 -0.0200549 7.88947e-19)
(0.148093 -0.0119272 0)
(0.151519 -0.00523815 0)
(0.14929 -0.00143824 -7.73021e-19)
(0.145455 -0.00146347 0)
(0.143248 -0.00623536 -8.01782e-19)
(0.141456 -0.0153208 8.07711e-19)
(0.133816 -0.0240861 0)
(0.112972 -0.0225582 8.74107e-19)
(0.0723864 -0.00488205 1.01276e-18)
(0.00369121 0.0162082 0)
(-0.0906467 0.0369172 0)
(-0.195148 0.0608322 0)
(-0.312338 0.0802401 0)
(-0.440905 0.0937689 0)
(-0.574033 0.105837 -1.89154e-19)
(-0.70818 0.113909 0)
(-0.842431 0.113174 1.47334e-19)
(-0.97276 0.10706 0)
(-1.09575 0.100222 0)
(-1.21059 0.0932591 -1.13769e-19)
(-1.31721 0.0872967 0)
(-1.41577 0.0798862 1.01488e-19)
(-1.50644 0.0713941 0)
(-1.58931 0.0651117 0)
(-1.66568 0.0596814 0)
(-1.73617 0.0544902 -8.74618e-20)
(-1.80137 0.0499797 0)
(-1.86192 0.0459809 0)
(-1.9184 0.0425306 -8.12941e-20)
(-1.97131 0.0394832 0)
(-2.02107 0.0368174 -7.81818e-20)
(-2.06802 0.0344391 0)
(-2.11246 0.0323207 0)
(-2.15463 0.0303944 0)
(-2.19471 0.028645 7.32642e-20)
(-2.23286 0.0270223 0)
(-2.26921 0.0255207 0)
(-2.30385 0.0241036 7.02343e-20)
(-2.33686 0.0227721 6.93005e-20)
(-2.36832 0.0214991 0)
(-2.39827 0.0202889 6.75114e-20)
(-2.42677 0.0191213 0)
(-2.45384 0.0180011 1.31598e-19)
(-2.47951 0.0169134 0)
(-2.50383 0.0158617 1.28269e-19)
(-2.52679 0.0148348 0)
(-2.54844 0.0138331 -1.24993e-19)
(-2.56877 0.0128499 0)
(-2.58779 0.0118839 0)
(-2.60553 0.0109243 0)
(-2.62196 0.00997692 1.18487e-19)
(-2.6371 0.00902674 0)
(-2.65092 0.00806918 -1.1521e-19)
(-2.6634 0.00709434 0)
(-2.67451 0.00609236 1.11891e-19)
(-2.68421 0.00505779 1.10214e-19)
(-2.69245 0.0039832 1.08525e-19)
(-2.69919 0.00288487 0)
(-2.70439 0.00180188 0)
(-2.70796 0.000827687 0)
(-2.70987 3.67122e-05 0)
(-2.71062 -0.000627146 0)
(-2.71017 -0.00126531 0)
(-2.70855 -0.00188521 0)
(-2.70577 -0.00249979 0)
(-2.70184 -0.00310516 -9.22543e-20)
(-2.69673 -0.00370668 -9.02659e-20)
(-2.69045 -0.00429999 0)
(-2.68299 -0.00488884 0)
(-2.67436 -0.00546985 0)
(-2.66454 -0.00604544 -8.18814e-20)
(-2.65353 -0.00661358 0)
(-2.64133 -0.00717521 0)
(-2.62795 -0.00772985 0)
(-2.61337 -0.00827686 0)
(-2.59761 -0.00881749 7.03062e-20)
(-2.58066 -0.00934943 0)
(-2.56252 -0.00987575 0)
(-2.54321 -0.0103925 -6.26858e-20)
(-2.52271 -0.0109045 6.00195e-20)
(-2.50104 -0.011406 0)
(-2.47819 -0.0119037 5.44826e-20)
(-2.45419 -0.0123903 0)
(-2.42902 -0.012874 -4.86536e-20)
(-2.4027 -0.0133466 0)
(-2.37524 -0.0138181 0)
(-2.34664 -0.0142801 0)
(-2.31692 -0.014743 0)
(-2.28608 -0.0151875 0)
(-2.25414 -0.0156201 5.82929e-20)
(-2.2211 -0.016043 5.1118e-20)
(-2.18699 -0.0164604 0)
(-2.15185 -0.0168486 0)
(-2.11571 -0.0171864 0)
(-2.07864 -0.0174041 -2.01889e-20)
(-2.04065 -0.0174241 0)
(-2.0018 -0.0172085 0)
(-1.96206 -0.0172092 0)
(-1.92136 -0.0175351 1.48798e-20)
(-1.87976 -0.0178498 -2.44167e-20)
(-1.83732 -0.0181464 0)
(-1.79405 -0.0184333 0)
(-1.74998 -0.0187078 -5.5207e-20)
(-1.70513 -0.0189754 -6.62645e-20)
(-1.65954 -0.0192347 0)
(-1.61325 -0.019489 0)
(-1.56626 -0.0197403 1.02119e-19)
(-1.51865 -0.0199785 -1.15059e-19)
(-1.47041 -0.0202126 0)
(-1.4216 -0.0204304 0)
(-1.37223 -0.0206423 -1.5721e-19)
(-1.32236 -0.0208378 0)
(-1.272 -0.0210291 0)
(-1.22121 -0.0212039 -2.05304e-19)
(-1.17 -0.021375 0)
(-1.11842 -0.0215413 -2.4128e-19)
(-1.06649 -0.0217024 0)
(-1.01423 -0.021865 0)
(-0.961662 -0.0220303 0)
(-0.908792 -0.0222005 3.25083e-19)
(-0.85563 -0.022378 0)
(-0.80218 -0.0225624 0)
(-0.748447 -0.0227551 0)
(-0.694439 -0.0229555 0)
(-0.640163 -0.0231658 0)
(-0.585626 -0.0233872 0)
(-0.530832 -0.0236237 5.28395e-19)
(-0.475782 -0.0238778 5.66211e-19)
(-0.420473 -0.024152 0)
(-0.364902 -0.0244479 0)
(-0.309068 -0.0247632 0)
(-0.252992 -0.0250962 -7.52578e-19)
(-0.196705 -0.0254594 0)
(-0.140289 -0.0258218 1.7503e-18)
(-0.0839125 -0.0261126 -1.89364e-18)
(-0.028037 -0.0261835 -2.05411e-18)
(0.0273336 -0.0253634 2.09585e-18)
(0.0787373 -0.0232493 -2.01649e-18)
(0.135172 -0.0206311 1.95722e-18)
(0.150833 -0.00900974 0)
(-0.000259102 0.0204458 0)
(-0.00581784 0.0357419 0)
(-0.0123325 0.0369249 2.1205e-18)
(-0.0128029 0.0274614 0)
(0.00115759 0.00560257 -2.21849e-18)
(0.0307043 -0.031349 -1.41425e-18)
(0.0697583 -0.0728382 -4.44933e-19)
(0.114385 -0.106935 -3.1721e-19)
(0.160596 -0.12795 0)
(0.20496 -0.135501 -2.07163e-19)
(0.245273 -0.132217 0)
(0.280578 -0.121492 0)
(0.310545 -0.106219 3.08325e-19)
(0.335181 -0.0884893 1.468e-19)
(0.354708 -0.0696582 -2.86063e-19)
(0.369439 -0.0505049 -2.82637e-19)
(0.379754 -0.0314127 -1.41261e-19)
(0.385839 -0.0125225 0)
(0.388651 0.00618083 0)
(0.388149 0.0245422 0)
(0.383962 0.0422223 -1.49234e-19)
(0.375587 0.0586856 0)
(0.362462 0.0732042 4.77074e-19)
(0.344082 0.0847919 0)
(0.320204 0.0923274 0)
(0.291005 0.0946899 1.92565e-19)
(0.25731 0.0911027 0)
(0.220707 0.0815465 -2.4311e-19)
(0.183505 0.0670373 -5.68662e-19)
(0.148643 0.049369 3.40122e-19)
(0.119262 0.0302176 0)
(0.0986821 0.0104823 0)
(0.0884739 -0.00999163 0)
(0.09025 -0.0303715 -1.02861e-18)
(0.10251 -0.0505506 -8.69878e-19)
(0.12179 -0.0682919 -3.59578e-19)
(0.142157 -0.0766451 0)
(0.157525 -0.0718722 5.14983e-19)
(0.165131 -0.0566791 0)
(0.164564 -0.0364343 -4.93385e-19)
(0.156494 -0.0176259 0)
(0.14172 -0.00502712 0)
(0.12026 0.00216654 6.2793e-19)
(0.0866352 0.00839988 0)
(0.0315095 0.0203734 2.48321e-18)
(-0.0589037 0.0498992 -6.48416e-19)
(-0.177759 0.0924507 0)
(-0.308729 0.137135 -2.73087e-19)
(-0.446236 0.180617 -2.01338e-19)
(-0.589701 0.217666 0)
(-0.735109 0.245922 0)
(-0.878286 0.265988 0)
(-1.01778 0.277262 0)
(-1.1505 0.279639 0)
(-1.27247 0.274918 8.32229e-20)
(-1.38242 0.264878 1.56602e-19)
(-1.48074 0.250588 -7.3735e-20)
(-1.56777 0.233485 0)
(-1.64483 0.21516 1.35892e-19)
(-1.7133 0.196758 -6.59522e-20)
(-1.77433 0.179081 0)
(-1.8294 0.162689 -6.18368e-20)
(-1.87939 0.147813 0)
(-1.92534 0.134647 0)
(-1.9679 0.123065 -1.16226e-19)
(-2.0076 0.112916 5.70151e-20)
(-2.04497 0.104074 -1.12222e-19)
(-2.08031 0.0963499 1.10442e-19)
(-2.11389 0.0895911 5.44006e-20)
(-2.14589 0.0836275 0)
(-2.17645 0.0783365 5.28984e-20)
(-2.20568 0.0735841 0)
(-2.23365 0.0692881 0)
(-2.26041 0.0653491 0)
(-2.28602 0.0617182 5.01416e-20)
(-2.3105 0.0583242 0)
(-2.33388 0.0551418 9.79249e-20)
(-2.35617 0.05212 -1.45147e-19)
(-2.3774 0.0492487 -4.78243e-20)
(-2.39758 0.0464914 0)
(-2.4167 0.0438462 -4.66641e-20)
(-2.43479 0.0412871 0)
(-2.45185 0.0388151 -9.10306e-20)
(-2.46788 0.0364111 0)
(-2.48288 0.0340754 -8.87334e-20)
(-2.49686 0.0317936 1.75058e-19)
(-2.50982 0.0295634 8.64181e-20)
(-2.52176 0.0273769 0)
(-2.53269 0.0252304 0)
(-2.54261 0.0231211 0)
(-2.55151 0.0210485 -8.16906e-20)
(-2.55941 0.0190064 0)
(-2.56629 0.0169915 7.92581e-20)
(-2.57215 0.0149951 0)
(-2.577 0.0130115 -2.30325e-19)
(-2.58087 0.011034 -7.54972e-20)
(-2.58379 0.00904986 -7.42142e-20)
(-2.58582 0.00705694 0)
(-2.58703 0.00506796 0)
(-2.58753 0.00315085 0)
(-2.58741 0.00137974 0)
(-2.58625 -0.000271148 0)
(-2.584 -0.0018794 -1.32261e-19)
(-2.58063 -0.00345361 -1.29389e-19)
(-2.57613 -0.00500797 0)
(-2.57049 -0.00653933 6.1663e-20)
(-2.5637 -0.00805315 6.01524e-20)
(-2.55575 -0.00954454 0)
(-2.54665 -0.0110171 1.14363e-19)
(-2.53638 -0.0124666 0)
(-2.52495 -0.0138953 -5.41469e-20)
(-2.51234 -0.0153 0)
(-2.49857 -0.0166817 0)
(-2.48361 -0.0180384 9.81133e-20)
(-2.46748 -0.0193697 0)
(-2.45018 -0.0206754 -4.54385e-20)
(-2.43171 -0.0219534 0)
(-2.41206 -0.0232055 0)
(-2.39124 -0.0244283 -4.04489e-20)
(-2.36926 -0.0256252 -3.8177e-20)
(-2.34612 -0.0267911 0)
(-2.32182 -0.0279311 3.4818e-20)
(-2.29636 -0.029038 0)
(-2.26977 -0.0301187 -3.08967e-20)
(-2.24203 -0.0311641 -5.7257e-20)
(-2.21317 -0.0321821 0)
(-2.18319 -0.0331619 0)
(-2.1521 -0.0341121 0)
(-2.11992 -0.0350214 0)
(-2.08665 -0.0358978 -3.53089e-20)
(-2.0523 -0.0367325 -9.35392e-20)
(-2.01691 -0.0375364 0)
(-1.9805 -0.0383032 0)
(-1.94311 -0.0390438 0)
(-1.90474 -0.0397622 1.17667e-20)
(-1.86538 -0.0404747 0)
(-1.825 -0.0411694 0)
(-1.78363 -0.0418402 5.60652e-21)
(-1.74137 -0.0424439 7.37221e-21)
(-1.69827 -0.0429819 1.41794e-20)
(-1.65434 -0.0434679 0)
(-1.6096 -0.0439137 0)
(-1.56405 -0.0443158 3.1032e-20)
(-1.51775 -0.0446819 -3.53379e-20)
(-1.4707 -0.0450103 0)
(-1.42296 -0.0453062 0)
(-1.37455 -0.0455769 -5.51462e-20)
(-1.32551 -0.0458144 1.82821e-19)
(-1.27586 -0.0460204 0)
(-1.22565 -0.0461896 0)
(-1.17488 -0.046324 8.12357e-20)
(-1.12361 -0.0464202 0)
(-1.07185 -0.0464825 1.88409e-19)
(-1.01966 -0.0465096 -1.00466e-19)
(-0.967041 -0.0465032 0)
(-0.914054 -0.0464741 1.16914e-19)
(-0.860711 -0.0464186 2.47168e-19)
(-0.807036 -0.0463493 0)
(-0.753049 -0.0462684 0)
(-0.698759 -0.0461815 -1.48126e-19)
(-0.644176 -0.0460913 0)
(-0.589302 -0.0460001 3.27516e-19)
(-0.534144 -0.0459067 0)
(-0.478705 -0.0458113 0)
(-0.422992 -0.045714 0)
(-0.36701 -0.0456172 0)
(-0.310761 -0.0455242 -2.09246e-19)
(-0.254245 -0.0454397 -2.18739e-19)
(-0.197459 -0.0453648 0)
(-0.140397 -0.0453008 0)
(-0.0830593 -0.0452412 0)
(-0.025462 -0.0451702 2.58609e-19)
(0.0323775 -0.0450554 0)
(0.0903907 -0.0448512 -5.29437e-19)
(0.148446 -0.0444886 5.30745e-19)
(0.206262 -0.0438239 5.3209e-19)
(0.263762 -0.0424279 5.30343e-19)
(0.318617 -0.0399139 5.36309e-19)
(0.375874 -0.0355181 5.38435e-19)
(0.411471 -0.0226024 0)
(0.0003261 0.0230958 0)
(0.000786779 0.0399098 0)
(0.00662786 0.0325638 -2.26691e-18)
(0.0266828 -0.000871152 -1.59401e-18)
(0.066277 -0.0604691 9.50621e-19)
(0.117702 -0.126445 6.1615e-19)
(0.170545 -0.178915 -3.59758e-22)
(0.217904 -0.209129 0)
(0.257081 -0.217848 0)
(0.28809 -0.210263 0)
(0.312149 -0.192179 0)
(0.330712 -0.168317 0)
(0.344993 -0.141888 -7.00896e-19)
(0.355854 -0.114796 0)
(0.36386 -0.0880609 2.23447e-19)
(0.369389 -0.062165 2.22819e-19)
(0.372708 -0.0372949 0)
(0.374013 -0.0135193 0)
(0.37355 0.00919175 0)
(0.371649 0.0310029 0)
(0.368571 0.052062 2.3708e-19)
(0.3645 0.0723173 0)
(0.359372 0.0914163 -2.53808e-19)
(0.352808 0.108625 0)
(0.344134 0.122838 0)
(0.332486 0.132638 0)
(0.31705 0.136527 -6.34146e-19)
(0.297447 0.133263 0)
(0.274155 0.122304 3.75702e-19)
(0.248719 0.103965 -8.37254e-19)
(0.223657 0.0793516 0)
(0.20192 0.0498314 0)
(0.186168 0.0170638 0)
(0.176744 -0.0179013 6.26964e-19)
(0.172793 -0.051808 5.55096e-19)
(0.167884 -0.0747767 0)
(0.154953 -0.077115 0)
(0.133518 -0.0610352 -7.51898e-19)
(0.104751 -0.0344233 -7.69546e-19)
(0.0687524 -0.00219944 8.47899e-19)
(0.0238465 0.0313459 0)
(-0.0396108 0.0629312 0)
(-0.129222 0.10043 0)
(-0.238892 0.148944 0)
(-0.365093 0.203443 -4.02304e-19)
(-0.502498 0.259122 -3.17762e-19)
(-0.643768 0.312295 2.59819e-19)
(-0.783011 0.357824 0)
(-0.915812 0.393975 0)
(-1.03838 0.420015 0)
(-1.14863 0.434865 0)
(-1.24586 0.43895 -1.42701e-19)
(-1.32979 0.43288 0)
(-1.40149 0.417997 0)
(-1.46268 0.396542 -1.18788e-19)
(-1.51554 0.370885 -1.12206e-19)
(-1.56195 0.342793 0)
(-1.60387 0.314043 2.09644e-19)
(-1.64282 0.28618 -1.00593e-19)
(-1.67974 0.260177 9.76713e-20)
(-1.71519 0.236502 0)
(-1.74956 0.21527 0)
(-1.78315 0.196434 0)
(-1.81601 0.180003 0)
(-1.84812 0.165719 8.69126e-20)
(-1.87945 0.153258 1.7064e-19)
(-1.90999 0.14236 8.37106e-20)
(-1.93973 0.132778 -8.22645e-20)
(-1.96865 0.124296 0)
(-1.99671 0.116714 1.59106e-19)
(-2.02391 0.109875 1.56605e-19)
(-2.05023 0.103639 1.54216e-19)
(-2.07566 0.0978996 -1.51919e-19)
(-2.10019 0.0925614 0)
(-2.12381 0.0875573 -2.21412e-19)
(-2.14651 0.0828245 0)
(-2.1683 0.0783229 7.16327e-20)
(-2.18916 0.0740116 7.07837e-20)
(-2.20909 0.0698676 0)
(-2.22808 0.0658643 0)
(-2.24614 0.0619888 1.35577e-19)
(-2.26325 0.0582236 0)
(-2.27943 0.0545611 1.3177e-19)
(-2.29466 0.050989 0)
(-2.30894 0.0475013 -1.27993e-19)
(-2.32228 0.044088 -2.52291e-19)
(-2.33467 0.0407435 0)
(-2.34611 0.0374606 0)
(-2.35661 0.0342346 0)
(-2.36617 0.0310624 -1.18515e-19)
(-2.37478 0.0279441 0)
(-2.38244 0.0248766 -1.14674e-19)
(-2.38915 0.0218579 0)
(-2.39491 0.0188852 0)
(-2.39972 0.0159606 2.17612e-19)
(-2.40358 0.0130849 0)
(-2.40652 0.0102657 1.04836e-19)
(-2.40854 0.00750938 0)
(-2.40964 0.0048267 1.00785e-19)
(-2.40979 0.0022094 0)
(-2.40893 -0.00037996 0)
(-2.40703 -0.00296224 0)
(-2.40405 -0.00552095 2.76526e-19)
(-2.39999 -0.00805106 8.98927e-20)
(-2.39484 -0.010551 0)
(-2.38858 -0.0130203 0)
(-2.38121 -0.0154578 0)
(-2.37272 -0.0178627 0)
(-2.3631 -0.0202338 -7.85012e-20)
(-2.35235 -0.0225699 1.52694e-19)
(-2.34046 -0.0248699 7.37728e-20)
(-2.32743 -0.0271322 -1.43183e-19)
(-2.31326 -0.0293559 -1.38349e-19)
(-2.29794 -0.0315388 -6.6485e-20)
(-2.28147 -0.0336803 0)
(-2.26386 -0.0357784 -1.23522e-19)
(-2.2451 -0.0378327 0)
(-2.2252 -0.0398417 1.13357e-19)
(-2.20415 -0.0418054 5.3789e-20)
(-2.18196 -0.0437225 0)
(-2.15864 -0.0455929 -9.76715e-20)
(-2.13418 -0.0474152 -4.5821e-20)
(-2.10859 -0.0491887 0)
(-2.08188 -0.0509125 -4.10794e-20)
(-2.05406 -0.0525849 1.13467e-19)
(-2.02513 -0.054205 0)
(-1.9951 -0.0557706 0)
(-1.96399 -0.0572807 0)
(-1.93179 -0.0587308 0)
(-1.89853 -0.0601183 4.7187e-20)
(-1.86421 -0.0614429 4.03601e-20)
(-1.82887 -0.0627089 0)
(-1.79252 -0.063914 0)
(-1.7552 -0.0650571 0)
(-1.71691 -0.0661333 0)
(-1.67765 -0.0671434 0)
(-1.63741 -0.0680932 0)
(-1.59625 -0.0690025 -3.5104e-21)
(-1.55422 -0.0698591 -1.03397e-21)
(-1.51136 -0.0706443 0)
(-1.46768 -0.0713563 0)
(-1.4232 -0.0719999 -2.914e-20)
(-1.37794 -0.0725748 0)
(-1.33194 -0.0730865 4.40381e-20)
(-1.28521 -0.0735359 4.99382e-20)
(-1.23781 -0.0739285 0)
(-1.18976 -0.074269 0)
(-1.14109 -0.0745565 -7.25527e-20)
(-1.09184 -0.0747871 -1.57347e-19)
(-1.04202 -0.0749615 0)
(-0.99168 -0.0750751 0)
(-0.940827 -0.0751305 0)
(-0.889509 -0.0751242 -1.09685e-19)
(-0.837747 -0.0750624 1.1732e-19)
(-0.785581 -0.0749434 0)
(-0.733039 -0.0747821 2.63015e-19)
(-0.680147 -0.0745781 1.38066e-19)
(-0.626927 -0.0743448 -2.94274e-19)
(-0.573397 -0.0740886 0)
(-0.519568 -0.0738165 0)
(-0.46545 -0.0735336 -3.41898e-19)
(-0.411045 -0.0732428 -1.80225e-19)
(-0.356359 -0.0729429 0)
(-0.301394 -0.0726329 0)
(-0.246156 -0.0723135 0)
(-0.190648 -0.0719865 0)
(-0.134872 -0.0716561 -4.39298e-19)
(-0.0788255 -0.071327 0)
(-0.0225032 -0.0710027 0)
(0.0341045 -0.0706835 0)
(0.0909986 -0.0703592 0)
(0.14817 -0.0700058 0)
(0.205592 -0.0695744 0)
(0.263203 -0.0690025 -5.11118e-19)
(0.320913 -0.0682049 0)
(0.378503 -0.0670083 0)
(0.43596 -0.0651003 -1.06145e-18)
(0.491711 -0.061956 5.36383e-19)
(0.549617 -0.0565675 -5.47546e-19)
(0.595039 -0.0435336 5.59168e-19)
(-0.00116419 0.0231457 0)
(0.00197421 0.0265018 4.9313e-18)
(0.0237837 -0.0155404 0)
(0.0716637 -0.0985644 8.4612e-19)
(0.132623 -0.186348 0)
(0.190352 -0.250324 0)
(0.235523 -0.281614 -3.17209e-19)
(0.266848 -0.285042 0)
(0.287114 -0.270023 0)
(0.299959 -0.244906 0)
(0.308286 -0.215198 0)
(0.31393 -0.183959 0)
(0.317881 -0.152725 7.90852e-19)
(0.320595 -0.122204 3.88793e-19)
(0.322237 -0.0927039 -3.86151e-19)
(0.322849 -0.0643622 0)
(0.322442 -0.0372376 0)
(0.32103 -0.0113664 0)
(0.318665 0.0132386 0)
(0.315438 0.0366083 0)
(0.311493 0.0587871 4.17631e-19)
(0.307045 0.0797894 4.28636e-19)
(0.302312 0.0995354 -4.4415e-19)
(0.297413 0.117729 4.65409e-19)
(0.292261 0.133755 0)
(0.28653 0.146604 0)
(0.279629 0.154851 5.63174e-19)
(0.270803 0.156791 0)
(0.259442 0.15084 0)
(0.245318 0.135845 7.24417e-19)
(0.229051 0.111536 8.07551e-19)
(0.211707 0.0788423 9.13526e-19)
(0.194717 0.0399098 0)
(0.177573 -0.00103041 0)
(0.153653 -0.0322648 -9.47099e-19)
(0.117676 -0.0401343 0)
(0.0707837 -0.0245363 0)
(0.0142677 0.00811815 7.5229e-19)
(-0.0545965 0.0521092 -6.8241e-19)
(-0.139396 0.10536 5.47075e-19)
(-0.238872 0.165653 0)
(-0.352356 0.228648 0)
(-0.476668 0.292335 5.86045e-19)
(-0.605973 0.355448 0)
(-0.734781 0.414739 4.17899e-19)
(-0.858082 0.464912 5.49172e-19)
(-0.970875 0.503416 -4.89106e-19)
(-1.07051 0.530232 2.95031e-19)
(-1.15625 0.545099 0)
(-1.22774 0.548709 0)
(-1.28625 0.542189 2.3349e-19)
(-1.33367 0.526936 1.08833e-19)
(-1.37221 0.50462 0)
(-1.40444 0.477135 0)
(-1.43271 0.446645 9.34151e-20)
(-1.45887 0.414977 1.80628e-19)
(-1.48425 0.383412 0)
(-1.50974 0.352979 -1.66424e-19)
(-1.53585 0.324446 1.62075e-19)
(-1.5627 0.298239 -1.57163e-19)
(-1.59023 0.274504 0)
(-1.61827 0.253196 0)
(-1.64668 0.234184 0)
(-1.67523 0.217334 0)
(-1.70373 0.202409 0)
(-1.73199 0.189157 -1.35667e-19)
(-1.75988 0.177341 0)
(-1.7873 0.166743 0)
(-1.81416 0.157168 0)
(-1.84038 0.148445 -2.52303e-19)