/*--------------------------------*- C++ -*----------------------------------*\
  =========                 |
  \\      /  F ield         | OpenFOAM: The Open Source CFD Toolbox
   \\    /   O peration     | Website:  https://openfoam.org
    \\  /    A nd           | Version:  8
     \\/     M anipulation  |
\*---------------------------------------------------------------------------*/
FoamFile
{
    version     2.0;
    format      ascii;
    class       volVectorField;
    location    "900";
    object      wallShearStress;
}
// * * * * * * * * * * * * * * * * * * * * * * * * * * * * * * * * * * * * * //

dimensions      [0 2 -2 0 0 0 0];

internalField   uniform (0 0 0);

boundaryField
{
    inlet
    {
        type            calculated;
        value           uniform (0 0 0);
    }
    outlet
    {
        type            calculated;
        value           uniform (0 0 0);
    }
    upperWall
    {
        type            calculated;
        value           nonuniform List<vector> 
223
(
(-0.444377 0.00308839 0)
(-0.475134 0.00560931 0)
(-0.50322 0.00696473 0)
(-0.507348 0.00743768 0)
(-0.501584 0.00737978 0)
(-0.490239 0.00697661 0)
(-0.478045 0.00643317 0)
(-0.465496 0.00582987 0)
(-0.45296 0.00521787 0)
(-0.441284 0.00463747 0)
(-0.430617 0.00410385 0)
(-0.420962 0.00361899 0)
(-0.412286 0.0031809 0)
(-0.404518 0.00278699 0)
(-0.397593 0.00243733 0)
(-0.391423 0.00213911 0)
(-0.385891 0.00189393 0)
(-0.380962 0.001744 0)
(-0.377027 0.00165675 0)
(-0.373933 0.00160406 5.74606e-22)
(-0.370921 0.00153094 0)
(-0.368004 0.00144757 0)
(-0.365176 0.00135964 0)
(-0.362438 0.00127071 5.85733e-22)
(-0.359792 0.00118257 0)
(-0.357239 0.00109705 0)
(-0.354777 0.00101452 0)
(-0.352406 0.000935741 -1.19121e-21)
(-0.350123 0.00086045 1.1959e-21)
(-0.347927 0.000789187 1.20052e-21)
(-0.345817 0.000721496 0)
(-0.343792 0.000657648 -1.20954e-21)
(-0.341849 0.000597293 0)
(-0.339988 0.000540739 1.21837e-21)
(-0.338205 0.000487687 1.22273e-21)
(-0.336498 0.000438205 -1.22706e-21)
(-0.334865 0.000392043 0)
(-0.333304 0.000349281 0)
(-0.331812 0.000309776 0)
(-0.330385 0.000273425 0)
(-0.329022 0.000240239 -1.24851e-21)
(-0.327718 0.000209997 0)
(-0.326472 0.000182646 0)
(-0.32528 0.000158031 1.26144e-21)
(-0.324139 0.000136035 0)
(-0.323046 0.000116668 1.27016e-21)
(-0.321998 9.96519e-05 -1.27456e-21)
(-0.320994 8.50147e-05 1.27899e-21)
(-0.320028 7.28425e-05 0)
(-0.319099 6.29294e-05 0)
(-0.318201 5.51765e-05 0)
(-0.317335 4.94502e-05 1.29712e-21)
(-0.316494 4.56405e-05 -1.30176e-21)
(-0.315679 4.35445e-05 0)
(-0.314884 4.30672e-05 0)
(-0.314109 4.39342e-05 0)
(-0.313351 4.6184e-05 0)
(-0.312605 4.9599e-05 0)
(-0.311874 5.39341e-05 0)
(-0.311149 5.92503e-05 0)
(-0.31044 6.53247e-05 0)
(-0.309723 7.21398e-05 1.34566e-21)
(-0.309032 7.95191e-05 -1.35081e-21)
(-0.308313 8.77276e-05 0)
(-0.307637 9.6283e-05 0)
(-0.306907 0.000105618 0)
(-0.306235 0.000114854 -1.37159e-21)
(-0.305504 0.000126003 0)
(-0.304777 0.000146216 0)
(-0.304093 0.000138807 0)
(-0.303217 0.000109927 0)
(-0.302777 0.000165805 0)
(-0.301883 0.000259124 -2.80996e-21)
(-0.301655 0.000231061 0)
(-0.301465 0.000200086 0)
(-0.301233 0.000225342 0)
(-0.301013 0.000168204 0)
(-0.312498 0.000122423 0)
(-0.363687 0.000189352 0)
(-0.344615 1.01657e-05 0)
(-0.357696 0.000690721 3.44081e-21)
(-0.347442 0.00145207 0)
(-0.325377 0.00103394 0)
(-0.325104 0.000812305 0)
(-0.321793 0.000469319 -3.15987e-21)
(-0.311554 -4.85066e-05 0)
(-0.30551 -7.64753e-05 -3.05094e-21)
(-0.298345 0.000302129 0)
(-0.297914 0.000498178 0)
(-0.297602 0.000366697 0)
(-0.297418 0.000114001 -3.04539e-21)
(-0.334291 0.000368954 0)
(-0.31949 0.000604057 3.28633e-21)
(-0.312991 0.000450949 3.24009e-21)
(-0.30518 0.000198368 0)
(-0.29615 -1.70213e-05 3.09999e-21)
(-0.338379 -0.000140758 0)
(-0.350645 0.000567737 0)
(-0.328168 0.000994713 0)
(-0.319527 0.00039273 -3.34847e-21)
(-0.298678 0.000403593 0)
(-0.301757 0.000957095 -3.16629e-21)
(-0.293749 0.000868141 3.06866e-21)
(-0.302842 0.000423116 0)
(-0.293009 -4.67234e-05 0)
(-0.331791 0.000130568 0)
(-0.311164 0.00064247 0)
(-0.297221 0.000851672 0)
(-0.291152 0.000754593 0)
(-0.290679 3.02816e-05 0)
(-0.342315 0.000353128 -3.63569e-21)
(-0.314889 0.000642973 0)
(-0.289157 8.4104e-05 0)
(-0.341261 0.000658938 0)
(-0.312086 0.000885767 0)
(-0.303602 0.000391883 0)
(-0.286724 3.45425e-05 0)
(-0.319672 0.0001133 0)
(-0.301416 0.000890548 0)
(-0.284586 0.000617505 0)
(-0.283958 -9.54528e-06 0)
(-0.283228 0.000193917 0)
(-0.282291 0.000364998 0)
(-0.283583 0.000416132 -5.7042e-21)
(-0.320273 0.00064794 0)
(-0.332853 0.000137988 0)
(-0.323765 0.000567104 0)
(-0.298018 0.0017339 5.61707e-21)
(-0.275123 0.00155132 0)
(-0.273896 0.0010787 0)
(-0.272659 0.00086767 4.87425e-21)
(-0.271332 0.000453653 0)
(-0.270339 5.07709e-05 -4.67119e-21)
(-0.281611 -5.01512e-06 0)
(-0.295027 0.000671176 0)
(-0.270773 0.00134291 0)
(-0.265303 0.000819123 4.04071e-21)
(-0.284786 0.000860233 0)
(-0.262828 0.000736732 -3.72659e-21)
(-0.286169 0.000770778 0)
(-0.260111 0.000675543 0)
(-0.281491 0.000689242 0)
(-0.257209 0.000634562 0)
(-0.274354 0.000639092 0)
(-0.254101 0.000618175 0)
(-0.265822 0.000612613 0)
(-0.250786 0.000616867 0)
(-0.256438 0.000595695 0)
(-0.247288 0.000633454 0)
(-0.246585 0.000537176 0)
(-0.271156 0.000502227 -1.1875e-21)
(-0.264926 -3.19621e-05 8.44038e-22)
(-0.241511 0.000190502 0)
(-0.234933 0.000416362 0)
(-0.232115 0.000195351 0)
(-0.228756 0.00150059 0)
(-0.228282 0.00287277 -7.77141e-22)
(-0.227067 0.00194071 1.1255e-21)
(-0.225851 0.000439341 -1.51074e-21)
(-0.223911 -0.000289969 0)
(-0.22097 0.000364236 -2.4093e-21)
(-0.219635 0.000252715 -5.56205e-21)
(-0.216992 -0.000253499 0)
(-0.213932 0.000451414 -7.50294e-21)
(-0.212131 0.00123488 8.17116e-21)
(-0.218864 0.00164082 0)
(-0.224742 0.00157358 0)
(-0.21954 0.0011189 0)
(-0.212784 0.000587403 0)
(-0.20163 0.000816286 0)
(-0.207756 0.000220516 -1.45325e-20)
(-0.197873 -0.000789214 0)
(-0.194538 -0.00076709 -1.73425e-20)
(-0.190487 0.00101401 0)
(-0.19187 0.00286745 0)
(-0.192569 0.0010228 0)
(-0.189763 -0.00106943 0)
(-0.186116 -0.00119878 0)
(-0.182098 -0.000968572 2.5161e-20)
(-0.177553 -0.000929975 0)
(-0.172877 0.00111493 0)
(-0.175346 0.00148397 -2.74481e-20)
(-0.171274 -0.000335292 0)
(-0.167316 0.000302885 0)
(-0.166453 0.00186533 0)
(-0.1676 0.00238772 3.35935e-20)
(-0.166349 0.00171888 0)
(-0.161305 0.00104264 0)
(-0.152182 0.00088916 0)
(-0.139926 0.00115082 0)
(-0.125851 0.00154637 -5.8493e-20)
(-0.111799 0.00178312 0)
(-0.0991814 0.00176188 0)
(-0.0882558 0.00156044 0)
(-0.0795176 0.00137582 9.485e-20)
(-0.0696821 0.00132944 0)
(-0.0647416 0.00179056 0)
(-0.0360703 0.00149571 -1.38761e-19)
(-0.0681462 0.000518256 6.01853e-36)
(-0.102219 0.00581478 1.18935e-17)
(-0.125665 0.0102241 2.13269e-17)
(-0.138108 0.0128223 2.00415e-17)
(-0.145465 0.0142422 1.92672e-17)
(-0.150995 0.0151179 1.8646e-17)
(-0.155343 0.0157311 -1.81204e-17)
(-0.15851 0.0161721 -1.76351e-17)
(-0.160901 0.0164794 -6.01853e-36)
(-0.163103 0.0167163 -3.36528e-17)
(-0.16521 0.0169303 -1.64379e-17)
(-0.167421 0.0171282 3.37038e-34)
(-0.169818 0.0173392 -1.20371e-35)
(-0.172714 0.0175737 -3.02386e-17)
(-0.176137 0.0178661 -2.90895e-17)
(-0.180267 0.0182127 -2.77848e-17)
(-0.185076 0.0186361 0)
(-0.190656 0.0191238 4.90328e-17)
(-0.197105 0.0197021 2.24927e-17)
(-0.204266 0.0203469 2.40741e-35)
(-0.212913 0.0211242 -3.51053e-17)
(-0.22115 0.0218987 -1.22994e-20)
(-0.234699 0.0230565 0)
(-0.238911 0.0237763 1.32201e-17)
(-0.264664 0.0253361 -7.12187e-18)
)
;
    }
    lowerWall
    {
        type            calculated;
        value           nonuniform List<vector> 
250
(
(-0.625062 -0.00640821 0)
(-0.595773 -0.0104422 0)
(-0.568206 -0.0100635 0)
(-0.54249 -0.00943015 0)
(-0.520545 -0.00834373 0)
(-0.501592 -0.0070526 0)
(-0.486324 -0.005272 0)
(-0.50658 -0.00386499 0)
(-0.527991 -0.00329507 0)
(-0.515335 -0.00286541 0)
(-0.51196 -0.00249621 0)
(-0.52294 -0.00284271 0)
(-0.479706 -0.00332506 0)
(-0.431284 -0.00237223 0)
(-0.428094 -0.000817842 0)
(-0.471282 0.000210176 0)
(-0.460978 0.000794603 0)
(-0.490438 0.000682765 0)
(0.00209761 0.000131807 0)
(0.00233811 -0.0027321 0)
(0.00259838 -0.00572033 0)
(0.00290037 -0.00889877 1.14588e-19)
(0.0031733 -0.0119829 -9.72712e-20)
(0.00353736 -0.0157636 8.55411e-20)
(0.00312885 -0.0159887 -7.54925e-20)
(0.00830645 -0.0343622 0)
(-0.0461204 -0.106616 0)
(0.000223243 -0.000274876 0)
(5.86142e-05 -0.000787691 0)
(-8.5162e-06 -0.00087027 0)
(5.56771e-05 -0.000867471 0)
(3.39978e-05 -0.000837963 1.53569e-19)
(-0.000138636 -0.000276427 -1.49603e-19)
(-0.00056903 0.00114994 0)
(-0.00116312 0.00382855 -1.7178e-19)
(-0.00154324 0.00724816 1.31222e-19)
(-0.00149291 0.0104809 0)
(-0.00110341 0.0128685 0)
(-0.000572481 0.0141236 0)
(-6.35019e-05 0.0142177 0)
(0.000339317 0.0133427 0)
(0.000672527 0.011778 0)
(0.000997373 0.00957035 0)
(0.00135261 0.00675748 0)
(0.00175415 0.00338418 0)
(-0.000142857 -0.000277677 0)
(0.000168485 -0.000447827 0)
(0.000478248 -0.000501184 0)
(0.000799541 -0.000432998 0)
(0.00105703 -0.000200429 -0)
(0.00110696 0.000187612 -0)
(0.000862175 0.000653876 1.41782e-20)
(0.000351276 0.00109178 -1.62146e-20)
(-0.000358108 0.0014108 0)
(-0.0011715 0.00157143 -9.30098e-21)
(-0.00201126 0.00158698 0)
(-0.0028128 0.00148713 0)
(-0.00353069 0.00130813 0)
(-0.00413965 0.00108071 4.5273e-21)
(-0.00462812 0.000825712 0)
(-0.00499162 0.000554987 0)
(-0.00522776 0.000276728 -3.91342e-21)
(-0.0053405 -1.43959e-05 -0)
(-0.00530669 -0.000316669 0)
(-0.0051229 -0.000609875 -0)
(-0.00479765 -0.000873835 4.20047e-21)
(-0.00434215 -0.00108827 -0)
(-0.00377407 -0.00123206 4.96849e-21)
(-0.00312006 -0.00128539 0)
(-0.00241739 -0.00123324 -0)
(-0.00171485 -0.00107101 8.08718e-21)
(-0.00107011 -0.000813114 0)
(-0.000543016 -0.000501933 -1.3559e-20)
(-0.000171594 -0.000211308 0)
(5.94407e-05 -1.13174e-05 2.31681e-20)
(0.000208641 0.00010446 0)
(0.000299019 0.000199878 0)
(0.000301578 0.000313591 0)
(0.000197697 0.000466296 0)
(-4.21794e-05 0.000666482 0)
(-0.000445013 0.000878187 -1.57048e-20)
(-0.000995309 0.00102506 0)
(-0.00160813 0.00103248 1.81295e-20)
(-0.00216547 0.000886202 0)
(-0.00256775 0.000632349 -1.42013e-20)
(-0.00277194 0.000356051 0)
(-0.00280483 0.000131528 0)
(-0.00271989 6.91934e-06 1.39494e-20)
(-0.00259404 7.71649e-06 0)
(-0.00249516 0.000131945 1.44887e-20)
(-0.00243849 0.000326864 -1.46083e-20)
(-0.00237312 0.000454503 0)
(-0.00217162 0.000274347 -1.58413e-20)
(-0.00156489 -0.000358425 -1.83725e-20)
(-0.000338411 -0.00109668 0)
(0.00135669 -0.00174613 0)
(0.00326487 -0.00241611 0)
(0.0054636 -0.00298142 0)
(0.00785203 -0.00336942 -0)
(0.0103141 -0.00367839 3.49602e-21)
(0.0130322 -0.00392915 0)
(0.0154788 -0.00385547 -2.75269e-21)
(0.0178076 -0.00363123 -0)
(0.0202961 -0.003435 -0)
(0.0222594 -0.00316814 2.12578e-21)
(0.0241379 -0.00294072 0)
(0.0259913 -0.0026946 -1.89029e-21)
(0.0287376 -0.00251569 -0)
(0.0309784 -0.00234455 0)
(0.0330928 -0.00218971 -0)
(0.0351848 -0.00204178 1.79444e-21)
(0.0370974 -0.00190458 0)
(0.0390033 -0.00178421 -0)
(0.0407833 -0.00167607 1.74673e-21)
(0.0425357 -0.00158058 0)
(0.0442063 -0.00149486 1.72668e-21)
(0.0458409 -0.00141786 0)
(0.0474169 -0.00134798 0)
(0.0489571 -0.0012837 0)
(0.0504502 -0.00122419 -1.69771e-21)
(0.0519087 -0.00116824 -0)
(0.0533265 -0.00111542 0)
(0.0547102 -0.00106467 -1.67951e-21)
(0.0560561 -0.00101607 -1.6734e-21)
(0.0573682 -0.000968748 -0)
(0.0586438 -0.000922838 -1.6607e-21)
(0.0598851 -0.000877721 0)
(0.0610902 -0.000833482 -3.29377e-21)
(0.0622595 -0.000789852 -0)
(0.063393 -0.000746832 -3.26299e-21)
(0.0644891 -0.000704101 -0)
(0.0655488 -0.000661733 3.22834e-21)
(0.0665696 -0.000619358 0)
(0.0675517 -0.000577163 0)
(0.0684939 -0.000534623 0)
(0.0693946 -0.000491935 -3.14539e-21)
(0.0702534 -0.000448604 -0)
(0.0710678 -0.000404311 3.09614e-21)
(0.0718363 -0.000358727 0)
(0.0725566 -0.000311426 -3.04104e-21)
(0.0732264 -0.000262139 -3.01126e-21)
(0.0738434 -0.000210613 -2.98e-21)
(0.0744053 -0.000157505 -0)
(0.0749113 -0.00010407 0)
(0.0753603 -5.38674e-05 0)
(0.0757581 -1.22862e-05 0)
(0.076109 2.27198e-05 0)
(0.0764165 5.69221e-05 0)
(0.0766787 9.03589e-05 0)
(0.0768963 0.000123585 0)
(0.0770686 0.000156603 2.62826e-21)
(0.0771949 0.0001896 2.58002e-21)
(0.0772746 0.000222306 0)
(0.0773075 0.000254849 0)
(0.0772934 0.000287122 0)
(0.0772316 0.000319244 2.36708e-21)
(0.0771217 0.000351036 0)
(0.0769637 0.00038248 0)
(0.0767577 0.000413621 0)
(0.076503 0.000444379 0)
(0.0762003 0.000474749 -2.05356e-21)
(0.075849 0.000504705 0)
(0.0754497 0.000534238 0)
(0.0750023 0.000563254 1.83846e-21)
(0.074507 0.000591935 -1.76201e-21)
(0.073964 0.000619998 0)
(0.0733736 0.000647665 -1.60168e-21)
(0.0727363 0.000674666 0)
(0.0720525 0.000701362 1.43108e-21)
(0.0713218 0.000727293 0)
(0.0705455 0.000752929 0)
(0.0697222 0.00077787 0)
(0.0688536 0.000802527 0)
(0.0679507 0.000826259 0)
(0.0670064 0.000849222 -1.70511e-21)
(0.0660222 0.000871481 -1.49134e-21)
(0.0649891 0.000892924 0)
(0.0639214 0.000912778 0)
(0.0628163 0.000930055 0)
(0.0616803 0.000942135 5.69664e-22)
(0.0605115 0.00094596 0)
(0.059311 0.000940122 0)
(0.0580741 0.000942834 0)
(0.0568043 0.000958202 -4.69682e-22)
(0.0555011 0.000972472 7.5082e-22)
(0.0541699 0.000985568 0)
(0.0528116 0.000997918 0)
(0.0514278 0.00100939 1.65249e-21)
(0.0500202 0.00102019 1.97396e-21)
(0.0485906 0.0010302 0)
(0.0471414 0.0010397 0)
(0.0456738 0.00104867 -3.00783e-21)
(0.0441868 0.00105665 3.3776e-21)
(0.0426868 0.00106421 0)
(0.0411693 0.00107067 0)
(0.0396426 0.00107662 4.57107e-21)
(0.0381014 0.00108146 0)
(0.0365549 0.00108592 0)
(0.0349968 0.00108927 5.91225e-21)
(0.0334363 0.00109231 0)
(0.0318691 0.00109478 6.90345e-21)
(0.0303003 0.00109688 0)
(0.0287295 0.00109884 0)
(0.0271579 0.00110074 0)
(0.0255863 0.00110273 -9.1794e-21)
(0.0240153 0.00110489 0)
(0.0224452 0.00110723 0)
(0.0208765 0.0011098 0)
(0.0193095 0.00111258 0)
(0.0177445 0.00111564 0)
(0.016182 0.00111905 0)
(0.0146223 0.00112298 -1.45791e-20)
(0.0130654 0.00112754 -1.55719e-20)
(0.0115113 0.00113284 0)
(0.00995979 0.00113892 0)
(0.0084108 0.00114566 0)
(0.00686475 0.0011529 2.04383e-20)
(0.00532221 0.00116095 0)
(0.0037849 0.00116838 -4.72433e-20)
(0.00225695 0.00117181 5.09522e-20)
(0.000749061 0.00116624 5.50877e-20)
(-0.000738696 0.00112166 -5.60079e-20)
(-0.00210777 0.00104197 5.366e-20)
(-0.00361615 0.000871402 -5.17876e-20)
(-0.00393307 0.000475761 0)
(-0.00589946 0.00104776 -3.09562e-18)
(-0.00901515 0.000817955 -2.81162e-18)
(-0.0121022 0.000466552 0)
(-0.0152617 0.000138314 -4.79691e-18)
(-0.0186198 -0.000202501 -8.9306e-18)
(-0.0221875 -0.000560231 -4.17078e-18)
(-0.0259755 -0.000937035 3.9051e-18)
(-0.0300064 -0.00133681 -3.61112e-35)
(-0.0343064 -0.00176358 3.00927e-36)
(-0.038895 -0.00222065 3.23477e-18)
(-0.0437902 -0.0027054 3.04222e-18)
(-0.0490067 -0.0031871 3.00927e-36)
(-0.0545656 -0.00370183 0)
(-0.0605169 -0.00429397 0)
(-0.0669244 -0.00494641 -2.82119e-35)
(-0.0737846 -0.00565206 2.56258e-35)
(-0.0812469 -0.00641262 4.81482e-35)
(-0.0891752 -0.00723379 -3.76756e-18)
(-0.0981289 -0.00812576 -3.43131e-18)
(-0.107192 -0.00909247 6.01853e-36)
(-0.118732 -0.0101552 5.39593e-18)
(-0.128302 -0.0113236 8.95483e-18)
(-0.145702 -0.0125531 6.01853e-36)
(-0.153148 -0.0140669 -4.31925e-18)
(-0.187793 -0.0164042 0)
)
;
    }
    frontAndBack
    {
        type            empty;
    }
}


// ************************************************************************* //
