/*--------------------------------*- C++ -*----------------------------------*\
  =========                 |
  \\      /  F ield         | OpenFOAM: The Open Source CFD Toolbox
   \\    /   O peration     | Website:  https://openfoam.org
    \\  /    A nd           | Version:  8
     \\/     M anipulation  |
\*---------------------------------------------------------------------------*/
FoamFile
{
    version     2.0;
    format      ascii;
    class       volScalarField;
    location    "500";
    object      k;
}
// * * * * * * * * * * * * * * * * * * * * * * * * * * * * * * * * * * * * * //

dimensions      [0 2 -2 0 0 0 0];

internalField   nonuniform List<scalar> 
12225
(
0.287719
2.31043
2.03444
2.11486
1.36857
3.01723
2.32572
1.72974
2.86472
2.22183
2.39876
2.52938
2.3338
2.66763
2.96201
2.65529
2.17297
2.47483
0.35633
0.448678
0.511346
0.603208
0.56302
0.653607
0.683121
0.675411
0.755206
0.765294
0.817466
0.821148
0.818015
0.837984
0.841464
0.852551
0.851774
0.876359
0.370306
0.377797
0.38138
0.391207
0.386833
0.3815
0.379876
0.375526
0.375073
0.373074
0.372715
0.373525
0.369716
0.367421
0.361908
0.361418
0.361412
0.365228
0.372761
0.371323
0.369834
0.369499
0.367888
0.365309
0.361966
0.357773
0.354122
0.349647
0.345287
0.34037
0.33507
0.329333
0.323825
0.318332
0.313102
0.308444
0.373537
0.370969
0.368647
0.366802
0.36494
0.362749
0.360329
0.357582
0.354876
0.351856
0.348743
0.345158
0.34146
0.337113
0.333063
0.32843
0.324507
0.320195
0.373676
0.37111
0.368638
0.366432
0.364367
0.362309
0.360234
0.358083
0.355969
0.35374
0.351477
0.34891
0.346306
0.343256
0.340389
0.337122
0.33435
0.331273
0.37368
0.371149
0.368716
0.366434
0.364282
0.362236
0.360273
0.358349
0.3565
0.354631
0.352787
0.350793
0.348796
0.346567
0.34443
0.342096
0.340044
0.337831
0.373675
0.371137
0.368722
0.366436
0.36427
0.362218
0.360274
0.358408
0.356637
0.354897
0.353212
0.351473
0.349756
0.34793
0.346169
0.344313
0.342636
0.340878
0.373674
0.371121
0.368708
0.366421
0.364254
0.362198
0.360257
0.358406
0.356656
0.354967
0.35335
0.351743
0.350177
0.348581
0.347041
0.345468
0.344014
0.342529
0.373672
0.371109
0.368689
0.366397
0.364228
0.362169
0.360222
0.358372
0.356621
0.354948
0.353356
0.351813
0.350329
0.348867
0.347463
0.346071
0.344761
0.343463
0.373671
0.3711
0.368673
0.366375
0.3642
0.362137
0.360184
0.358328
0.356569
0.354895
0.353305
0.351783
0.35033
0.348929
0.347589
0.346292
0.345057
0.343863
0.373669
0.371095
0.368662
0.366358
0.364177
0.362108
0.360148
0.358287
0.35652
0.35484
0.353244
0.351724
0.350276
0.348893
0.347574
0.346311
0.345106
0.343953
0.373667
0.371091
0.368653
0.366345
0.364158
0.362086
0.36012
0.358253
0.35648
0.354795
0.353193
0.351668
0.350217
0.348834
0.347517
0.346261
0.345062
0.343919
0.373666
0.371088
0.368647
0.366335
0.364145
0.362068
0.360098
0.358226
0.356449
0.354759
0.353152
0.351623
0.350167
0.348782
0.34746
0.346203
0.345001
0.343857
0.373666
0.371086
0.368643
0.366329
0.364135
0.362055
0.360081
0.358206
0.356425
0.354732
0.353121
0.351589
0.350129
0.34874
0.347416
0.346154
0.34495
0.343803
0.373666
0.371085
0.36864
0.366324
0.364128
0.362046
0.360069
0.358192
0.356408
0.354713
0.353099
0.351564
0.350102
0.348711
0.347384
0.346119
0.344913
0.343763
0.373665
0.371084
0.368639
0.366322
0.364125
0.362041
0.360063
0.358185
0.356399
0.354702
0.353087
0.35155
0.350087
0.348693
0.347365
0.346099
0.344892
0.34374
0.373665
0.371084
0.368638
0.366322
0.364123
0.36204
0.36006
0.358182
0.356395
0.354698
0.353081
0.351544
0.35008
0.348685
0.347356
0.346089
0.344881
0.343728
0.373666
0.371084
0.368639
0.366321
0.364125
0.36204
0.360063
0.358182
0.356397
0.354698
0.353083
0.351544
0.35008
0.348685
0.347356
0.346089
0.344881
0.343728
0.373666
0.371085
0.36864
0.366325
0.364128
0.362046
0.360068
0.35819
0.356404
0.354707
0.353092
0.351555
0.350092
0.348698
0.347369
0.346103
0.344895
0.343742
0.373666
0.371087
0.368644
0.366329
0.364135
0.362054
0.360078
0.358202
0.356419
0.354723
0.35311
0.351575
0.350113
0.34872
0.347393
0.346126
0.344918
0.343764
0.373667
0.37109
0.368649
0.366337
0.364145
0.362067
0.360094
0.358221
0.356441
0.354749
0.353139
0.351607
0.350145
0.348751
0.347418
0.346143
0.344924
0.343758
0.373667
0.371094
0.368655
0.366348
0.364161
0.362087
0.360119
0.358252
0.356479
0.354795
0.353187
0.351654
0.350179
0.348761
0.34739
0.346067
0.344791
0.343562
0.373668
0.371102
0.368667
0.36637
0.364195
0.36213
0.360182
0.358326
0.356568
0.354889
0.353266
0.351694
0.350147
0.34862
0.347103
0.345603
0.344141
0.342711
0.373669
0.37111
0.368702
0.366444
0.364323
0.36229
0.360393
0.358549
0.35681
0.355084
0.353374
0.351632
0.349833
0.347976
0.346069
0.344127
0.342222
0.340334
0.373667
0.371146
0.3689
0.366834
0.364889
0.362952
0.361159
0.359271
0.357502
0.355546
0.353563
0.351344
0.348977
0.346388
0.343683
0.340863
0.338089
0.335344
0.373719
0.371535
0.370129
0.368755
0.367288
0.365642
0.363969
0.361942
0.359959
0.357411
0.354763
0.351506
0.348057
0.344121
0.340097
0.335807
0.331711
0.327608
0.374747
0.374823
0.377269
0.378837
0.37898
0.378702
0.377696
0.375786
0.373302
0.370111
0.366478
0.362171
0.357898
0.352943
0.348672
0.343831
0.340191
0.336161
0.389615
0.406238
0.434952
0.45874
0.476089
0.491174
0.5024
0.513013
0.521637
0.52962
0.537337
0.54486
0.554625
0.562953
0.574687
0.585335
0.598083
0.607886
0.680635
1.08956
1.35581
1.49579
1.56186
1.57344
1.56604
1.5463
1.51572
1.48259
1.44949
1.41765
1.38791
1.36049
1.33554
1.31304
1.29266
1.27457
1.83073e-08
4.5011e-07
2.3008e-06
9.1006e-06
3.04969e-05
9.33211e-05
0.000243009
0.000483381
0.000782784
0.00109787
0.00138026
0.00159885
0.00174509
0.00179825
0.00177519
0.00170179
0.0015651
0.00133479
0.00113766
0.000967493
0.000805562
0.00064821
0.000496115
0.000355036
0.000229974
0.00013384
7.06462e-05
3.54888e-05
1.80761e-05
9.88462e-06
6.04603e-06
4.6592e-06
5.68635e-06
1.21575e-05
2.71788e-05
0.000165568
0.000372509
0.000800224
0.00117551
0.00124998
0.00115003
0.000920651
0.000779794
0.000779319
0.000853708
0.00113438
0.00151946
0.00310191
0.00705525
0.0217364
0.0535667
0.0867579
0.100399
0.0832652
0.107345
0.110258
0.13997
0.142656
0.161346
0.186036
0.174121
0.141851
0.168705
0.172368
0.182596
0.191357
0.199494
0.208016
0.215957
0.224027
0.231783
0.239568
0.247141
0.254708
0.262121
0.269504
0.27677
0.283987
0.291106
0.298165
0.305133
0.312034
0.318844
0.325579
0.332219
0.338774
0.345227
0.351584
0.35783
0.363966
0.369978
0.375858
0.381593
0.387174
0.392589
0.397829
0.402886
0.407763
0.412475
0.417064
0.421589
0.425921
0.430122
0.434173
0.438071
0.441817
0.445403
0.448831
0.452092
0.455187
0.458111
0.460864
0.463441
0.465843
0.468066
0.470111
0.471975
0.473658
0.475161
0.476482
0.477624
0.478584
0.479367
0.479971
0.480404
0.480662
0.480763
0.480739
0.480439
0.480196
0.479405
0.478828
0.477774
0.476836
0.475775
0.47456
0.473168
0.47151
0.46975
0.467826
0.465789
0.463624
0.461346
0.458955
0.456459
0.453861
0.451169
0.448395
0.445551
0.442663
0.439649
0.43664
0.433485
0.430349
0.42711
0.423877
0.420601
0.417318
0.414026
0.410735
0.407445
0.404164
0.40089
0.39763
0.394386
0.391165
0.387974
0.384822
0.381712
0.378651
0.375635
0.37266
0.369716
0.366768
0.363776
0.360648
0.35727
0.353315
0.348162
0.332128
7.8439e-08
2.2005e-06
1.4992e-05
6.59797e-05
0.00024525
0.000747787
0.00173161
0.00315234
0.0047997
0.00648942
0.00803039
0.00929379
0.0102216
0.0108093
0.0110797
0.0110389
0.0108557
0.0104961
0.00988608
0.00905329
0.00800354
0.00678895
0.00546857
0.00413168
0.00285599
0.0018833
0.0011903
0.000733551
0.000443916
0.000271361
0.000174646
0.000130253
0.000109164
0.000182863
0.00025866
0.00172866
0.00379802
0.00756645
0.0107019
0.0123157
0.0122428
0.0118604
0.0119945
0.0135558
0.0174397
0.0230691
0.0335921
0.0518508
0.0770744
0.101636
0.125835
0.145031
0.160729
0.173445
0.190044
0.205024
0.222872
0.240435
0.259868
0.277582
0.29546
0.313798
0.335235
0.354134
0.373561
0.392599
0.411247
0.429768
0.448001
0.466093
0.484002
0.501797
0.519466
0.537048
0.554538
0.571958
0.589302
0.606582
0.623791
0.640935
0.658003
0.674998
0.691907
0.708731
0.725455
0.742076
0.75858
0.774959
0.7912
0.807294
0.823225
0.838971
0.854514
0.869831
0.884898
0.899687
0.914166
0.928302
0.942055
0.955389
0.968302
0.981021
0.993436
1.00559
1.01745
1.02902
1.04028
1.05121
1.06182
1.07208
1.08199
1.09153
1.10071
1.1095
1.11791
1.12592
1.13352
1.14072
1.14749
1.15385
1.15978
1.16528
1.17034
1.17497
1.17916
1.18291
1.18622
1.1891
1.19153
1.19354
1.1951
1.19625
1.19684
1.19716
1.19728
1.19704
1.19656
1.1959
1.1948
1.19332
1.19146
1.18924
1.18668
1.18377
1.18052
1.17695
1.17308
1.16891
1.16449
1.15976
1.15482
1.14956
1.14409
1.13835
1.13242
1.12628
1.11997
1.1135
1.1069
1.10018
1.09335
1.08642
1.07939
1.07228
1.06508
1.05783
1.05051
1.04317
1.03581
1.02844
1.02106
1.01366
1.00624
0.998732
0.991076
0.983155
0.974752
0.965548
0.953603
0.926533
2.18604e-07
6.57097e-06
5.03805e-05
0.000243889
0.000716789
0.00203864
0.00412482
0.0065487
0.00897525
0.0111733
0.0130069
0.0144168
0.0154028
0.0159902
0.0162375
0.0161983
0.0160068
0.0156301
0.0150762
0.0143875
0.0135562
0.0125788
0.0114325
0.0101324
0.00867019
0.00702417
0.00533618
0.00384227
0.00255349
0.00169636
0.00116618
0.000886341
0.000656948
0.00106272
0.00186595
0.00732669
0.0155592
0.0240843
0.0302463
0.0337241
0.0351839
0.0382709
0.0469998
0.0630229
0.0804597
0.0987236
0.119291
0.140259
0.160105
0.18134
0.202296
0.223526
0.245078
0.270121
0.297679
0.326512
0.355928
0.384727
0.413682
0.44213
0.470283
0.498004
0.525236
0.551652
0.577555
0.602936
0.627847
0.652397
0.676612
0.700565
0.724289
0.747827
0.771204
0.794444
0.81756
0.840566
0.863464
0.88626
0.908951
0.931536
0.954008
0.976363
0.998592
1.02069
1.04264
1.06443
1.08606
1.1075
1.12876
1.14981
1.17064
1.19123
1.21158
1.23165
1.25145
1.27095
1.29015
1.30903
1.3276
1.34584
1.36377
1.38136
1.39858
1.41543
1.43189
1.44793
1.46355
1.47873
1.49345
1.5077
1.52146
1.53473
1.54749
1.55973
1.57144
1.5826
1.59321
1.60326
1.61274
1.62165
1.62998
1.63771
1.64486
1.65142
1.65737
1.66273
1.6675
1.67166
1.67524
1.67822
1.68061
1.68243
1.6836
1.68424
1.68449
1.68426
1.68346
1.68216
1.68032
1.67796
1.67509
1.67171
1.66785
1.66351
1.6587
1.65345
1.64776
1.64166
1.63518
1.62829
1.62106
1.61343
1.60549
1.59717
1.58858
1.57968
1.57053
1.56115
1.55155
1.54178
1.53183
1.52173
1.51149
1.50111
1.49062
1.48002
1.46935
1.45861
1.44783
1.43704
1.42623
1.41542
1.40459
1.39372
1.38275
1.37161
1.3601
1.348
1.33339
1.30815
8.10048e-07
2.43851e-05
0.00019164
0.000800994
0.00228924
0.00541562
0.00908965
0.0126633
0.0157631
0.0182128
0.0199766
0.0210931
0.0216768
0.0217762
0.0216393
0.0212744
0.0206979
0.0200059
0.0192288
0.0183824
0.0174671
0.0164796
0.0154006
0.014212
0.0128924
0.0114235
0.00982644
0.00816991
0.00661796
0.00510342
0.00398988
0.00298735
0.00317324
0.00514348
0.0128345
0.0283792
0.0428565
0.0542831
0.0631148
0.0716353
0.0823457
0.096034
0.111562
0.126955
0.142961
0.160457
0.180709
0.202146
0.225881
0.251816
0.279532
0.309115
0.340288
0.373108
0.406706
0.440712
0.474675
0.508353
0.541744
0.574609
0.60692
0.638649
0.669758
0.700267
0.730263
0.759804
0.788955
0.817779
0.846322
0.874637
0.902759
0.930722
0.958548
0.986256
1.01386
1.04135
1.06875
1.09605
1.12324
1.15032
1.17728
1.20411
1.23079
1.25732
1.28368
1.30986
1.33585
1.36162
1.38718
1.41249
1.43756
1.46236
1.48688
1.51111
1.53503
1.55863
1.58189
1.60481
1.62738
1.64956
1.67135
1.69272
1.71365
1.73412
1.7541
1.77357
1.79253
1.81094
1.82879
1.84607
1.86275
1.87883
1.89428
1.90909
1.92325
1.93675
1.94957
1.9617
1.97315
1.98388
1.99391
2.00322
2.01182
2.01968
2.02682
2.03324
2.03892
2.04388
2.04811
2.05161
2.05441
2.05649
2.0578
2.05841
2.05854
2.05799
2.05674
2.05484
2.0523
2.04912
2.04531
2.0409
2.03589
2.03029
2.02413
2.01742
2.01019
2.00244
1.99421
1.9855
1.97634
1.96673
1.9567
1.94625
1.93543
1.92425
1.91274
1.90094
1.88887
1.87656
1.86404
1.85132
1.83843
1.82536
1.81215
1.79881
1.78536
1.77183
1.75826
1.74465
1.73104
1.71744
1.70385
1.69027
1.67667
1.66302
1.6492
1.63505
1.61893
1.5955
2.76834e-06
8.30267e-05
0.000620362
0.00235875
0.00646863
0.0119741
0.0170828
0.0211577
0.0240428
0.0258409
0.0267674
0.0270175
0.026862
0.0264101
0.0256926
0.0248507
0.0239374
0.0229908
0.0220322
0.0210701
0.0200994
0.0191106
0.0180838
0.0169971
0.015823
0.014533
0.0131259
0.0116554
0.0102238
0.00873048
0.00738427
0.00790851
0.0124073
0.0258586
0.0470565
0.0669288
0.0832366
0.0959531
0.106795
0.117583
0.129143
0.141717
0.155305
0.171081
0.189974
0.211663
0.236247
0.263394
0.292918
0.324333
0.357268
0.391426
0.426492
0.462243
0.498313
0.534533
0.570692
0.606682
0.642436
0.677844
0.712855
0.747449
0.781612
0.815367
0.848757
0.881823
0.914611
0.947162
0.979516
1.01171
1.04377
1.07573
1.1076
1.13938
1.1711
1.20273
1.23429
1.26577
1.29715
1.32842
1.35957
1.39059
1.42146
1.45216
1.48268
1.513
1.5431
1.57298
1.6026
1.63196
1.66104
1.68982
1.71829
1.74643
1.77422
1.80165
1.8287
1.85535
1.88157
1.90734
1.93265
1.95745
1.98174
2.00549
2.02867
2.05126
2.07323
2.09458
2.11527
2.13528
2.1546
2.1732
2.19108
2.20821
2.22458
2.24017
2.25497
2.26897
2.28216
2.29452
2.30606
2.31676
2.32662
2.33563
2.34379
2.3511
2.35757
2.36318
2.36794
2.37186
2.37494
2.3772
2.37854
2.37908
2.37901
2.3781
2.3764
2.37393
2.3707
2.36675
2.36206
2.35667
2.35058
2.34382
2.33639
2.32833
2.31965
2.31038
2.30053
2.29013
2.2792
2.26776
2.25582
2.2434
2.23053
2.21725
2.20358
2.18956
2.17522
2.1606
2.14572
2.1306
2.11528
2.09976
2.08407
2.06821
2.05223
2.03616
2.02002
2.00385
1.98769
1.97155
1.95545
1.93941
1.92343
1.90753
1.89163
1.87564
1.85818
1.83535
8.83477e-06
0.000258251
0.00183514
0.0064884
0.0144965
0.0214947
0.026453
0.0294985
0.0310846
0.0316704
0.0315904
0.0311386
0.0302945
0.0292671
0.0281418
0.0269837
0.0258366
0.0247277
0.0236684
0.0226585
0.0216866
0.0207367
0.0197827
0.0187946
0.0177402
0.0165548
0.0151793
0.0135848
0.0120911
0.0121496
0.0146635
0.0239724
0.0432641
0.0679934
0.0910029
0.109374
0.122698
0.132527
0.141249
0.150597
0.161429
0.175315
0.192524
0.212978
0.236895
0.263791
0.293207
0.32458
0.357482
0.391571
0.42659
0.462333
0.498646
0.53541
0.57249
0.6098
0.647236
0.684721
0.722183
0.75954
0.79674
0.833753
0.87056
0.907164
0.943577
0.979821
1.01592
1.0519
1.0878
1.12363
1.15941
1.19516
1.23089
1.2666
1.30228
1.33794
1.37355
1.40911
1.4446
1.47999
1.51527
1.55042
1.58542
1.62024
1.65487
1.68929
1.72348
1.75741
1.79106
1.82442
1.85748
1.8902
1.92257
1.95457
1.98617
2.01736
2.04811
2.0784
2.1082
2.13747
2.16621
2.19437
2.22195
2.24889
2.2752
2.30082
2.32575
2.34995
2.3734
2.39608
2.41796
2.43903
2.45927
2.47865
2.49716
2.51478
2.5315
2.5473
2.56218
2.57611
2.5891
2.60113
2.6122
2.6223
2.63143
2.6396
2.64679
2.65301
2.65826
2.66254
2.66587
2.66825
2.66959
2.67004
2.66972
2.66846
2.66629
2.66325
2.65935
2.65461
2.64906
2.64269
2.63555
2.62763
2.61897
2.60958
2.59949
2.58872
2.5773
2.56525
2.5526
2.53936
2.52557
2.51123
2.49638
2.48106
2.4653
2.44914
2.43261
2.41575
2.3986
2.38118
2.36352
2.34563
2.32754
2.30927
2.29085
2.27232
2.25373
2.2351
2.21648
2.1979
2.17939
2.16098
2.14271
2.12462
2.10668
2.08882
2.06989
2.04675
2.84063e-05
0.000776242
0.00498132
0.0151328
0.0246807
0.0307558
0.0340855
0.0356455
0.0360768
0.0358244
0.0350644
0.0339137
0.0325642
0.0311226
0.0296701
0.0282657
0.0269456
0.0257276
0.0246124
0.0235894
0.0226389
0.0217326
0.0208355
0.0199031
0.0189842
0.0181548
0.017612
0.0178542
0.0201232
0.0267053
0.040759
0.0632332
0.0878917
0.110615
0.128509
0.140851
0.149412
0.156745
0.164886
0.17612
0.190885
0.209311
0.231384
0.25673
0.284908
0.315208
0.347088
0.380151
0.414158
0.448949
0.484417
0.520488
0.557113
0.594251
0.631852
0.669869
0.708233
0.746872
0.785722
0.82472
0.863809
0.90295
0.942113
0.981282
1.02045
1.05963
1.09882
1.13804
1.17731
1.21663
1.25601
1.29547
1.33499
1.37458
1.41421
1.45387
1.49355
1.53321
1.57282
1.61237
1.65182
1.69115
1.73033
1.76933
1.80813
1.8467
1.88502
1.92306
1.9608
1.99822
2.0353
2.072
2.10831
2.14421
2.17966
2.21463
2.24911
2.28307
2.31646
2.34927
2.38147
2.41302
2.44389
2.47406
2.50351
2.53218
2.56007
2.58714
2.61337
2.63872
2.66317
2.68671
2.7093
2.73093
2.75157
2.77122
2.78985
2.80744
2.82398
2.83947
2.85389
2.86723
2.87949
2.89066
2.90073
2.90972
2.91761
2.92441
2.93011
2.93473
2.93827
2.94075
2.94205
2.9424
2.9418
2.94015
2.9375
2.93386
2.92927
2.92374
2.91729
2.90994
2.90171
2.89262
2.8827
2.87198
2.86046
2.84819
2.83519
2.82149
2.80711
2.79209
2.77644
2.76019
2.74337
2.72602
2.70818
2.6899
2.6712
2.65213
2.63273
2.61303
2.59305
2.57282
2.55236
2.5317
2.51088
2.48994
2.46891
2.44786
2.42681
2.40583
2.38493
2.36418
2.34362
2.32332
2.30329
2.28348
2.26286
2.23875
8.55172e-05
0.00213876
0.0117935
0.0253844
0.0336741
0.0380312
0.0400601
0.0406377
0.0403136
0.0393334
0.0378753
0.0361674
0.0343489
0.0325303
0.0307922
0.0291886
0.027746
0.0264693
0.0253475
0.0243602
0.0234796
0.0226712
0.0218565
0.0210972
0.020572
0.020817
0.0228571
0.0284951
0.0404057
0.0590458
0.0813747
0.103747
0.124041
0.140156
0.151424
0.159267
0.166351
0.1752
0.187183
0.202906
0.222393
0.245363
0.271377
0.299814
0.330059
0.361572
0.394039
0.427293
0.461257
0.495893
0.531189
0.567142
0.603757
0.641033
0.678949
0.717466
0.756541
0.79612
0.836146
0.876561
0.917311
0.958351
0.999645
1.04117
1.0829
1.12483
1.16696
1.20929
1.25182
1.29455
1.33749
1.38062
1.42394
1.46742
1.51104
1.55477
1.59857
1.64241
1.68625
1.73005
1.77377
1.81737
1.86083
1.90411
1.94719
1.99001
2.03257
2.07482
2.11674
2.1583
2.19948
2.24025
2.28059
2.32045
2.35981
2.39865
2.43693
2.47461
2.51167
2.54807
2.58378
2.61877
2.653
2.68644
2.71906
2.75083
2.78171
2.81167
2.84069
2.86873
2.89576
2.92177
2.94672
2.9706
2.99337
3.01503
3.03555
3.05492
3.07312
3.09013
3.10595
3.12058
3.13399
3.14619
3.15718
3.16695
3.1755
3.18283
3.18895
3.19386
3.19757
3.20009
3.20133
3.20152
3.2006
3.19853
3.19535
3.19108
3.18576
3.17939
3.17201
3.16363
3.15428
3.14399
3.13278
3.12068
3.10772
3.09392
3.07932
3.06394
3.04781
3.03098
3.01346
2.99527
2.97647
2.95708
2.93716
2.91675
2.89589
2.87462
2.85297
2.83099
2.80871
2.78614
2.76332
2.74029
2.71707
2.69372
2.67028
2.64681
2.62335
2.59996
2.57668
2.55357
2.53071
2.50816
2.48596
2.46408
2.44158
2.41602
0.00022249
0.00505069
0.0214349
0.0345368
0.0412343
0.044371
0.0454703
0.0452845
0.0442525
0.042574
0.0405325
0.0383137
0.0360703
0.0339239
0.0319599
0.0302313
0.0287628
0.0275593
0.0266143
0.0259065
0.0254687
0.0253959
0.0257723
0.0270463
0.0296124
0.0344623
0.0434482
0.0575725
0.0751482
0.0945545
0.11387
0.131138
0.14517
0.155809
0.164168
0.172307
0.182244
0.195258
0.211856
0.23198
0.255267
0.281206
0.309231
0.338784
0.369418
0.400855
0.432978
0.465757
0.499207
0.533355
0.568239
0.603897
0.640357
0.677629
0.71571
0.754583
0.794219
0.834578
0.875612
0.917272
0.959508
1.00228
1.04553
1.08925
1.1334
1.17797
1.22295
1.26831
1.31406
1.36019
1.40669
1.45352
1.50068
1.54812
1.5958
1.64369
1.69173
1.73987
1.78806
1.83623
1.88435
1.93236
1.98023
2.02791
2.07537
2.12257
2.16947
2.21604
2.26224
2.30804
2.35342
2.39834
2.44277
2.48668
2.53004
2.5728
2.61494
2.65642
2.6972
2.73724
2.77651
2.81497
2.85258
2.88931
2.92513
2.95999
2.99387
3.02672
3.05852
3.08924
3.11883
3.14729
3.17457
3.20066
3.22553
3.24916
3.27153
3.29262
3.31241
3.3309
3.34807
3.36391
3.37842
3.39159
3.40342
3.4139
3.42304
3.43084
3.4373
3.44243
3.44624
3.44873
3.44985
3.44981
3.4485
3.44595
3.44218
3.43722
3.43109
3.42383
3.41546
3.406
3.39548
3.38394
3.37139
3.35788
3.34343
3.32807
3.31183
3.29474
3.27684
3.25817
3.23876
3.21862
3.19782
3.17638
3.15437
3.13183
3.10881
3.08533
3.06145
3.03719
3.01261
2.98771
2.96254
2.93713
2.91153
2.88578
2.85994
2.83406
2.8082
2.78241
2.75675
2.73128
2.70608
2.68124
2.6568
2.63276
2.60824
2.58095
0.000495258
0.0101834
0.0311148
0.0427457
0.0482007
0.050467
0.0508477
0.0500071
0.0482956
0.0460306
0.0434576
0.0407896
0.0382031
0.0358355
0.0337814
0.0320981
0.0308119
0.0298979
0.0294311
0.0292844
0.0296843
0.0309338
0.0336714
0.0386901
0.046693
0.0579566
0.0718765
0.0874288
0.103829
0.119854
0.134362
0.146719
0.15705
0.166201
0.175646
0.186874
0.200927
0.218181
0.238538
0.261633
0.286993
0.31413
0.342591
0.372008
0.402145
0.432902
0.464271
0.496294
0.529031
0.562548
0.596914
0.632178
0.668379
0.705546
0.743692
0.782816
0.822904
0.863927
0.905853
0.948639
0.992245
1.03663
1.08175
1.12758
1.17409
1.22124
1.26903
1.31742
1.36641
1.41597
1.46608
1.51669
1.56778
1.61928
1.67115
1.72333
1.77574
1.82831
1.88098
1.93367
1.98631
2.03886
2.09126
2.14346
2.19542
2.24709
2.29844
2.34941
2.39998
2.4501
2.49974
2.54888
2.59748
2.64549
2.69288
2.7396
2.78563
2.83093
2.87544
2.91913
2.96196
3.00389
3.04487
3.08486
3.12384
3.16176
3.19859
3.23428
3.26881
3.30213
3.33422
3.36504
3.39457
3.42278
3.44965
3.47516
3.49928
3.52199
3.54329
3.56314
3.58155
3.5985
3.61399
3.62802
3.64058
3.65167
3.66129
3.66944
3.67613
3.68137
3.68518
3.68754
3.68847
3.68807
3.6863
3.68317
3.67872
3.67298
3.66597
3.65774
3.6483
3.63769
3.62594
3.61307
3.59914
3.58416
3.56817
3.5512
3.53329
3.51446
3.49477
3.47423
3.45289
3.43078
3.40796
3.38447
3.36037
3.3357
3.31051
3.28484
3.25873
3.23222
3.20534
3.17812
3.15061
3.12285
3.09488
3.06676
3.03853
3.01027
2.98202
2.95384
2.92579
2.89794
2.87039
2.84323
2.81651
2.79025
2.76362
2.73468
0.000940173
0.0174673
0.0395395
0.0502027
0.05497
0.056664
0.0565171
0.0551139
0.0528725
0.0501245
0.0471521
0.0442006
0.0414732
0.0391273
0.037278
0.0360028
0.0354162
0.0353609
0.0360406
0.0376926
0.0406387
0.0452291
0.0517297
0.0603032
0.070862
0.0830868
0.096381
0.109988
0.12323
0.135559
0.146749
0.156968
0.166906
0.177591
0.190038
0.204938
0.222554
0.242779
0.265293
0.289707
0.315629
0.342711
0.370665
0.399299
0.428519
0.45832
0.488753
0.519895
0.551837
0.584665
0.618451
0.653261
0.689151
0.726161
0.76432
0.803642
0.844126
0.885761
0.928527
0.972396
1.01733
1.06331
1.11028
1.15822
1.2071
1.25687
1.30753
1.35903
1.41134
1.46443
1.51827
1.57279
1.62794
1.68365
1.73984
1.79644
1.85335
1.9105
1.96778
2.02511
2.0824
2.1396
2.19663
2.25345
2.30999
2.36622
2.42207
2.47751
2.53248
2.58695
2.64089
2.69426
2.74702
2.79913
2.85054
2.9012
2.95109
3.00015
3.04834
3.09562
3.14194
3.18724
3.2315
3.27466
3.31669
3.35755
3.39719
3.43559
3.4727
3.50849
3.54291
3.57594
3.60755
3.63772
3.66643
3.69364
3.71934
3.7435
3.76611
3.78716
3.80663
3.82452
3.84082
3.85554
3.86866
3.88019
3.89012
3.89847
3.90523
3.91044
3.91409
3.91619
3.91678
3.91591
3.91354
3.90972
3.90448
3.89785
3.88987
3.88057
3.86998
3.85813
3.84507
3.83082
3.81542
3.79892
3.78134
3.76273
3.74311
3.72252
3.701
3.67858
3.6553
3.6312
3.60636
3.58082
3.55463
3.52786
3.50053
3.47269
3.44438
3.41563
3.38649
3.35699
3.32717
3.29709
3.26679
3.23634
3.20577
3.17516
3.14455
3.11401
3.0836
3.0534
3.02351
2.99402
2.96499
2.93648
2.90768
2.87692
0.00149962
0.0248952
0.0476087
0.0577757
0.0620658
0.0633197
0.0627556
0.0609226
0.0582926
0.0552546
0.0521381
0.049222
0.0467379
0.0448658
0.043842
0.0435656
0.0441042
0.0456022
0.0481948
0.0520326
0.0572419
0.0638891
0.0719494
0.0812995
0.0916926
0.102749
0.114048
0.125221
0.136065
0.146537
0.156853
0.167535
0.179259
0.192643
0.208098
0.225763
0.245536
0.267174
0.290375
0.314849
0.340337
0.366634
0.39359
0.421129
0.449242
0.477976
0.50741
0.537646
0.568781
0.600911
0.634122
0.668491
0.704087
0.740962
0.779161
0.818709
0.859626
0.901914
0.945571
0.990584
1.03693
1.08458
1.13351
1.18368
1.23505
1.28759
1.34126
1.39602
1.45183
1.50865
1.5664
1.62503
1.68443
1.74452
1.8052
1.86637
1.92793
1.98977
2.05178
2.11384
2.17587
2.23778
2.2995
2.36098
2.42214
2.48293
2.54328
2.60315
2.66249
2.72126
2.77943
2.83696
2.8938
2.9499
3.00522
3.0597
3.11331
3.16599
3.2177
3.26839
3.31801
3.3665
3.41382
3.45993
3.50479
3.54835
3.59058
3.63144
3.67088
3.70887
3.74537
3.78034
3.81377
3.84563
3.87589
3.90454
3.93154
3.95688
3.98055
4.00252
4.0228
4.04137
4.05823
4.07339
4.08683
4.09856
4.10859
4.11691
4.12354
4.1285
4.13181
4.13347
4.13354
4.13204
4.12891
4.12425
4.11808
4.11044
4.10136
4.09088
4.07904
4.06586
4.0514
4.03569
4.01877
4.00068
3.98147
3.96117
3.93982
3.91745
3.89409
3.86977
3.84455
3.81848
3.79164
3.76407
3.73584
3.70699
3.67758
3.64762
3.61717
3.58625
3.5549
3.52317
3.49111
3.45877
3.42622
3.3935
3.36067
3.32778
3.29488
3.26204
3.22932
3.19681
3.16462
3.13283
3.10151
3.07074
3.03978
3.00715
0.0022273
0.031562
0.0550798
0.0652974
0.0694361
0.0704671
0.069616
0.0674726
0.0646193
0.0615375
0.0586118
0.0561371
0.0543406
0.053493
0.0533799
0.0542541
0.056137
0.059067
0.0630763
0.0681729
0.0743364
0.0814977
0.089538
0.0982931
0.107572
0.11719
0.127012
0.136968
0.147117
0.157675
0.168992
0.181469
0.195437
0.211105
0.228518
0.247587
0.268131
0.289942
0.312813
0.33657
0.361071
0.386222
0.411968
0.438307
0.465279
0.49296
0.521446
0.550842
0.581256
0.612789
0.645539
0.679593
0.715033
0.751925
0.790323
0.830267
0.871791
0.914919
0.959663
1.00602
1.05399
1.10355
1.15467
1.20733
1.26148
1.31708
1.37409
1.43244
1.49207
1.55291
1.6149
1.6779
1.74181
1.8065
1.87182
1.93768
2.00396
2.07053
2.13727
2.20407
2.27081
2.33741
2.40378
2.46985
2.53556
2.60081
2.66554
2.7297
2.79324
2.85613
2.91834
2.97983
3.04053
3.1004
3.15937
3.2174
3.27444
3.33045
3.38537
3.43915
3.49173
3.54306
3.5931
3.64179
3.6891
3.73498
3.77941
3.82233
3.86371
3.9035
3.94166
3.97818
4.01302
4.04617
4.07759
4.10728
4.1352
4.16133
4.18567
4.20821
4.22892
4.24782
4.2649
4.28016
4.2936
4.30523
4.31505
4.32306
4.32928
4.33374
4.33645
4.33744
4.33679
4.33443
4.33036
4.32468
4.31742
4.30861
4.2983
4.28651
4.2733
4.2587
4.24275
4.22549
4.20698
4.18726
4.16637
4.14435
4.12125
4.0971
4.07193
4.04572
4.01858
3.99058
3.96178
3.93225
3.90204
3.8712
3.83976
3.80778
3.77528
3.74228
3.70881
3.67495
3.64074
3.60626
3.57156
3.53669
3.50171
3.46665
3.43157
3.39652
3.36158
3.32685
3.29243
3.25841
3.22487
3.1919
3.1588
3.12436
0.00309474
0.037744
0.0626743
0.0730802
0.0771245
0.0779888
0.07691
0.0745269
0.0715364
0.068594
0.0661606
0.0645017
0.0637431
0.0636581
0.0645645
0.0664674
0.0693102
0.0730605
0.0776877
0.0831481
0.0893825
0.0963133
0.103862
0.111956
0.120542
0.129586
0.139107
0.149201
0.160027
0.171783
0.184675
0.198858
0.214404
0.231306
0.249482
0.26881
0.289149
0.310371
0.332361
0.355041
0.378357
0.402292
0.426858
0.452097
0.47808
0.5049
0.532664
0.561476
0.59144
0.622662
0.655248
0.689296
0.724894
0.762124
0.801054
0.841746
0.884253
0.928618
0.974869
1.02302
1.07308
1.12503
1.17886
1.23453
1.29199
1.3512
1.41208
1.47454
1.53849
1.60381
1.67039
1.73809
1.80674
1.87616
1.94621
2.01673
2.08762
2.15877
2.23008
2.30142
2.37267
2.44374
2.51455
2.58502
2.65503
2.72448
2.79326
2.86138
2.9288
2.99546
3.06134
3.12638
3.19054
3.25374
3.31592
3.37703
3.43702
3.49584
3.55345
3.60978
3.66479
3.71841
3.77059
3.82129
3.87048
3.91811
3.96414
4.00855
4.05128
4.09229
4.13155
4.16904
4.20473
4.2386
4.27063
4.3008
4.32911
4.35552
4.38003
4.40262
4.4233
4.44207
4.45891
4.47385
4.48689
4.49801
4.50724
4.51458
4.52006
4.52369
4.52552
4.52556
4.52394
4.52043
4.5152
4.5083
4.49976
4.48962
4.47792
4.4647
4.45
4.43386
4.41633
4.39747
4.3773
4.3559
4.3333
4.30955
4.2847
4.25878
4.23184
4.20379
4.17479
4.14493
4.11428
4.08288
4.05079
4.01806
3.98473
3.95084
3.91642
3.88147
3.84602
3.81016
3.77396
3.73749
3.7008
3.66394
3.62696
3.58989
3.55276
3.51565
3.47864
3.44182
3.40531
3.36919
3.33353
3.29845
3.26332
3.22718
0.00400434
0.0438796
0.0700344
0.0807634
0.0847966
0.0855323
0.0841092
0.0814341
0.0785033
0.0760137
0.0743569
0.0736261
0.0735247
0.0742563
0.0759249
0.0784698
0.0818246
0.0859381
0.0907698
0.0962839
0.102451
0.109251
0.11667
0.124705
0.133382
0.142748
0.152885
0.163877
0.175829
0.188823
0.202901
0.218071
0.234296
0.251509
0.269623
0.288558
0.308236
0.328606
0.349631
0.371304
0.393631
0.416645
0.440397
0.464966
0.490423
0.516858
0.544384
0.573111
0.603152
0.634621
0.66763
0.702287
0.738696
0.776948
0.817132
0.859321
0.903588
0.949994
0.998586
1.04939
1.1024
1.15761
1.21499
1.27451
1.3361
1.39968
1.46516
1.53239
1.60122
1.67145
1.74292
1.81544
1.88885
1.96294
2.0375
2.11233
2.18736
2.26258
2.33792
2.4133
2.48855
2.56359
2.63835
2.7127
2.7865
2.8596
2.93194
3.00353
3.07429
3.14417
3.21314
3.28113
3.3481
3.41396
3.47866
3.54214
3.60435
3.66525
3.72478
3.78289
3.83954
3.89465
3.94818
4.00009
4.05034
4.09891
4.14575
4.19083
4.23412
4.27557
4.31514
4.35282
4.38859
4.42244
4.45435
4.4843
4.51229
4.5383
4.56232
4.58435
4.60437
4.62241
4.63846
4.65254
4.66464
4.67478
4.68295
4.68918
4.69348
4.69591
4.69648
4.69532
4.69229
4.68738
4.68072
4.67235
4.66231
4.65064
4.63736
4.62254
4.6062
4.5884
4.56919
4.54862
4.52673
4.50357
4.47921
4.45369
4.42706
4.39938
4.37066
4.34089
4.31017
4.27859
4.24621
4.21308
4.17926
4.14478
4.10971
4.07407
4.03791
4.0012
3.96396
3.92632
3.88834
3.85009
3.81161
3.77297
3.73418
3.69531
3.65634
3.61736
3.57846
3.53976
3.50134
3.46329
3.42569
3.38867
3.35164
3.31399
0.00495309
0.0499612
0.0772205
0.0881858
0.0921647
0.0927329
0.0909232
0.0881278
0.0855065
0.0836628
0.082792
0.0825927
0.083102
0.0844228
0.0865884
0.0895367
0.0932111
0.0975757
0.102614
0.10832
0.1147
0.121767
0.12955
0.138083
0.147417
0.157594
0.168663
0.180654
0.193579
0.207418
0.222158
0.23776
0.25416
0.271303
0.289141
0.307649
0.326809
0.346632
0.367125
0.388326
0.410283
0.43308
0.456826
0.481589
0.507371
0.534287
0.562528
0.592184
0.62337
0.656202
0.690795
0.727268
0.76573
0.80628
0.849008
0.893998
0.941329
0.991062
1.04326
1.09795
1.15508
1.21462
1.2765
1.34068
1.40708
1.4756
1.54613
1.61848
1.69242
1.76764
1.84379
1.92078
1.99846
2.07667
2.15517
2.23373
2.31237
2.3911
2.46983
2.54842
2.62675
2.70484
2.78268
2.86002
2.93669
3.01262
3.08774
3.16194
3.23515
3.30731
3.37838
3.44831
3.51705
3.58451
3.65062
3.71535
3.77863
3.84045
3.90075
3.95949
4.01661
4.07206
4.12578
4.17773
4.2279
4.27626
4.32279
4.36746
4.41022
4.45104
4.48988
4.52673
4.56159
4.59444
4.62529
4.65412
4.68092
4.70569
4.72841
4.74909
4.76773
4.78434
4.79893
4.81151
4.8221
4.83069
4.8373
4.84192
4.84461
4.84542
4.84449
4.84167
4.8369
4.83034
4.82202
4.81198
4.80026
4.7869
4.77194
4.75542
4.73738
4.71788
4.69697
4.67468
4.65109
4.62623
4.60016
4.57294
4.54462
4.51524
4.48485
4.45353
4.4213
4.38821
4.35431
4.31966
4.2843
4.24828
4.21166
4.17448
4.13678
4.09855
4.05981
4.02066
3.98117
3.94141
3.90141
3.86123