/*--------------------------------*- C++ -*----------------------------------*\
  =========                 |
  \\      /  F ield         | OpenFOAM: The Open Source CFD Toolbox
   \\    /   O peration     | Website:  https://openfoam.org
    \\  /    A nd           | Version:  8
     \\/     M anipulation  |
\*---------------------------------------------------------------------------*/
FoamFile
{
    version     2.0;
    format      ascii;
    class       volScalarField;
    location    "500";
    object      omega;
}
// * * * * * * * * * * * * * * * * * * * * * * * * * * * * * * * * * * * * * //

dimensions      [0 0 -1 0 0 0 0];

internalField   nonuniform List<scalar> 
12225
(
32582.3
32582.3
49267.3
42115.9
39695.7
32582.3
44136.1
41958.4
32582.3
38575.5
32582.3
32582.3
32582.3
32582.3
32582.3
32582.3
32582.3
32582.3
2725.48
7091.66
11873.1
13778.1
16036.8
15243.4
16574.6
16859.6
16198.9
16035.7
15792.2
18336
15827.6
17442.3
18423.5
18168.8
17904.2
17587.7
626.182
1096.67
2223.28
3096.04
3889.59
4549.81
5054.28
5663.56
5869.66
6289.93
6525.91
6912.68
7200.92
7389.57
7549.76
7748.53
7802.94
7955.01
483.431
600.391
788.779
978.282
1166.55
1371.55
1545.89
1738.84
1869.6
2022.83
2134.79
2270.94
2370.79
2491.06
2557.89
2672.33
2714.7
2825
486.387
514.086
551.858
597.031
645.27
703.514
758.886
821.316
872.755
930.143
974.746
1029.57
1068.25
1122.67
1153.61
1207.69
1232.76
1283.86
495.165
497.975
506.221
515.958
525.526
540.874
557.372
577.515
596.335
618.254
636.078
659.249
675.775
701.044
716.343
742.831
756.817
782.679
497.842
495.689
494.541
495.091
496.195
497.949
500.907
505.534
510.406
517.283
522.909
531.599
537.846
548.583
555.725
567.822
575.227
587.602
498.318
495.554
493.169
491.233
489.8
488.579
488.202
488.334
488.685
489.811
491.076
493.642
495.638
499.945
502.9
508.646
512.126
518.505
498.483
495.616
492.981
490.504
488.287
486.245
484.458
482.998
481.744
480.947
480.188
479.841
479.849
480.523
481.209
483.205
484.482
487.127
498.519
495.647
492.955
490.401
487.985
485.723
483.589
481.635
479.772
478.195
476.638
475.351
474.174
473.294
472.688
472.321
472.332
471.621
498.52
495.656
492.941
490.381
487.934
485.634
483.431
481.375
479.384
477.565
475.792
474.185
472.621
471.257
469.948
468.896
467.855
467.013
498.517
495.655
492.933
490.366
487.916
485.605
483.396
481.315
479.316
477.439
475.632
473.94
472.307
470.792
469.33
467.993
466.699
465.519
498.517
495.65
492.928
490.353
487.904
485.585
483.376
481.283
479.287
477.394
475.586
473.871
472.232
470.679
469.194
467.787
466.441
465.167
498.517
495.647
492.925
490.344
487.895
485.569
483.36
481.261
479.264
477.364
475.555
473.833
472.192
470.63
469.138
467.719
466.362
465.071
498.517
495.646
492.922
490.339
487.886
485.559
483.346
481.244
479.243
477.341
475.529
473.803
472.159
470.593
469.099
467.675
466.315
465.019
498.516
495.643
492.917
490.331
487.875
485.544
483.328
481.222
479.218
477.312
475.496
473.768
472.12
470.551
469.053
467.626
466.263
464.964
498.508
495.619
492.88
490.282
487.816
485.474
483.25
481.135
479.124
477.211
475.39
473.656
472.003
470.429
468.928
467.496
466.13
464.827
498.508
495.62
492.88
490.282
487.815
485.474
483.248
481.134
479.122
477.209
475.386
473.651
471.999
470.423
468.921
467.489
466.123
464.818
498.517
495.642
492.917
490.329
487.874
485.54
483.324
481.215
479.21
477.301
475.484
473.753
472.104
470.531
469.033
467.603
466.239
464.936
498.517
495.645
492.92
490.336
487.882
485.551
483.336
481.231
479.227
477.321
475.506
473.777
472.129
470.559
469.062
467.634
466.272
464.972
498.518
495.646
492.923
490.339
487.888
485.558
483.346
481.241
479.24
477.335
475.523
473.795
472.152
470.584
469.094
467.672
466.321
465.03
498.521
495.645
492.929
490.345
487.897
485.569
483.361
481.258
479.268
477.363
475.57
473.853
472.24
470.698
469.261
467.896
466.629
465.422
498.536
495.633
492.944
490.353
487.914
485.612
483.412
481.366
479.428
477.598
475.954
474.383
472.952
471.635
470.56
469.598
468.857
468.175
498.57
495.598
492.95
490.43
488.098
486.028
484.067
482.53
481.041
479.928
479.271
478.595
477.866
478.048
478.723
479.733
481.192
482.627
498.656
495.46
493.14
491.85
490.558
490.509
490.893
491.828
493.363
496.026
499.177
503.029
507.899
513.135
519.484
525.791
532.835
539.285
498.836
495.591
499.359
505.403
512.169
522.66
532.628
546.854
560.036
575.808
590.89
607.578
624.86
642.561
661.542
679.301
698.637
714.63
501.762
514.064
554.009
603.619
648.857
702.164
753.092
809.46
860.831
913.407
962.327
1010.86
1060.33
1105.99
1155.64
1198.28
1245.36
1281.17
547.133
753.407
1023.82
1277.61
1498.07
1721.55
1928.47
2123.18
2295.37
2447.53
2584.76
2707.87
2828.46
2930.92
3042.72
3134.66
3234.37
3308.25
1063.9
3430.79
5262.32
6552.47
7487.63
8142.84
8609.97
8935.74
9158.52
9297.42
9376.61
9426.29
9392.79
9392.83
9379.58
9356.63
9348.32
9322.03
16112.1
21167.2
23458.6
24507.7
24984.7
25070.5
25005.6
24849.2
24602.5
24332.9
24059.8
23794
23542.5
23308.3
23093.2
22897.5
22718.8
22558.4
11463.3
2494.65
2496.87
2499.12
2501.38
2503.67
2505.98
2508.3
2510.65
2513.02
2515.42
2517.83
2520.27
2522.73
2525.21
2527.72
2530.25
2532.8
2535.37
2537.97
2540.6
2543.25
2545.92
2548.62
2551.34
2554.09
2556.87
2559.67
2562.5
2565.35
2568.23
2571.14
2574.08
2577.04
2580.04
2583.06
2586.11
2589.19
2592.3
2595.43
2598.6
2601.8
2605.03
2608.29
2611.59
2614.91
2618.27
2621.66
2625.08
2628.54
2632.03
2635.55
2639.11
3110.46
3194.57
3235.31
3228.8
3161.57
3341.23
2665.03
2668.88
3144.06
3302.47
3400.86
3480.23
3572.81
3649.43
3729.17
3802.88
3876.2
3945.79
4014.71
4080.88
4146.23
4209.54
4271.89
4332.66
4392.43
4450.88
4508.32
4564.6
4619.89
4674.09
4727.32
4779.5
4830.72
4880.9
4930.1
4978.25
5025.37
5071.42
5116.36
5160.13
5202.69
5243.99
5284
5322.69
5360.11
5396.37
5431.78
5466.72
5500.37
5533.14
5564.93
5595.73
5625.58
5654.41
5682.25
5709.07
5734.87
5759.64
5783.39
5806.08
5827.74
5848.34
5867.9
5886.41
5903.86
5920.27
5935.63
5949.96
5963.23
5975.5
5986.73
5996.98
6006.21
6014.53
6022.14
6028.98
6033.52
6039.24
6041.12
6044.44
6046.16
6047.97
6048.72
6048.39
6046.44
6043.86
6040.27
6035.97
6030.86
6025.04
6018.49
6011.24
6003.34
5994.79
5985.71
5976.2
5966
5955.71
5944.39
5933.15
5920.92
5908.8
5896.11
5883.33
5870.33
5857.24
5844.08
5830.86
5817.63
5804.39
5791.18
5778
5764.94
5752.02
5739.32
5726.87
5714.73
5702.88
5691.28
5679.87
5668.39
5656.51
5643.52
5628.49
5608.79
5579.32
5460.71
11463.3
1993.86
995.832
809.282
691.382
623.011
629.957
625.966
614.835
592.314
568.162
544.557
522.901
505.008
492.853
484.144
483.962
485.727
513.187
562.665
647.786
749.952
860.418
969.875
1066.88
1142.21
1181.23
1174.28
1129.79
1048.52
924.158
768.185
642.353
560.04
495.028
460.956
457.838
466.436
489.683
521.572
552.939
593.766
693.598
828.407
1038.21
1354.8
1656.5
1862.38
1992.01
2060.28
2078.47
2068.52
2039.34
2031.1
1961.54
1905.07
1840.13
1771.98
1744.51
1680.12
1689.86
1688.47
1679.02
1672.78
1667.33
1666.27
1665.67
1667.68
1670.73
1675.2
1680.25
1686.26
1692.6
1699.52
1706.63
1714.06
1721.6
1729.29
1737.01
1744.78
1752.53
1760.26
1767.92
1775.51
1783
1790.38
1797.61
1804.69
1811.6
1818.33
1824.85
1831.16
1837.26
1843.18
1848.95
1854.64
1860.39
1866.37
1872.9
1880.39
1889.18
1897.06
1905.06
1912.69
1920.17
1927.38
1934.39
1941.17
1947.72
1954.04
1960.14
1966.01
1971.65
1977.07
1982.26
1987.23
1991.98
1996.5
2000.8
2004.89
2008.76
2012.42
2015.87
2019.12
2022.16
2025.02
2027.7
2030.2
2032.49
2034.54
2036.52
2038.13
2039.81
2041.26
2042.56
2043.42
2043.56
2043.07
2042.42
2041.58
2040.57
2039.37
2038
2036.46
2034.76
2032.91
2030.94
2028.88
2026.27
2024.43
2021.03
2019.04
2015.61
2013.23
2010.01
2007.03
2003.88
2000.69
1997.44
1994.15
1990.83
1987.47
1984.09
1980.69
1977.28
1973.88
1970.5
1967.14
1963.82
1960.55
1957.35
1954.23
1951.17
1948.24
1945.49
1942.99
1940.81
1939.53
1938.16
1947
11463.3
2014.96
817.499
643.441
682.907
682.624
654.61
598.995
539.189
483.045
433.366
391.361
358.375
332.539
312.67
297.4
286.811
278.642
276.737
279.159
290.013
308.835
341.419
385.808
441.027
501.739
562.441
609.141
637.723
635.113
611.77
569.13
506.367
438.828
390.332
386.955
399.352
424.523
464.814
539.697
653.33
813.007
1008.88
1183.32
1328.38
1458.56
1537.74
1563.41
1556.73
1508.72
1454.44
1393.84
1338.23
1291.03
1244.23
1207.77
1176.14
1151.57
1138.68
1122.65
1116.11
1109.94
1105.62
1103.57
1101.84
1101.94
1103.03
1104.84
1107.21
1110.07
1113.25
1116.75
1120.45
1124.34
1128.34
1132.46
1136.64
1140.88
1145.15
1149.44
1153.72
1158
1162.26
1166.49
1170.68
1174.82
1178.91
1182.94
1186.92
1190.84
1194.7
1198.51
1202.28
1206.04
1209.81
1213.62
1217.51
1221.54
1225.72
1230.05
1234.37
1238.48
1242.52
1246.42
1250.2
1253.86
1257.39
1260.79
1264.07
1267.23
1270.25
1273.15
1275.92
1278.57
1281.08
1283.47
1285.73
1287.87
1289.87
1291.76
1293.51
1295.14
1296.65
1298.04
1299.31
1300.46
1301.49
1302.41
1303.2
1303.87
1304.45
1304.87
1305.23
1305.45
1305.52
1305.4
1305.02
1304.47
1303.82
1303.06
1302.2
1301.24
1300.17
1299
1297.74
1296.39
1294.95
1293.44
1291.68
1290.16
1288.11
1286.47
1284.33
1282.5
1280.37
1278.28
1276.1
1273.88
1271.62
1269.31
1266.96
1264.58
1262.17
1259.74
1257.28
1254.81
1252.33
1249.85
1247.37
1244.9
1242.46
1240.07
1237.74
1235.52
1233.48
1231.74
1230.46
1230.31
1231.65
1241.95
11463.3
2040.86
1018.07
979.567
904.239
774.599
657.392
550.37
466.024
403.14
355.816
318.861
290.109
268.053
251.192
238.381
228.789
221.855
217.275
215.668
216.769
219.95
228.433
242.884
264.626
293.493
328.05
363.164
393.995
417.125
421.814
415.474
393.117
397.81
443.492
534.443
598.231
655.986
728.925
833.694
967.555
1079.93
1157.56
1224.3
1273.62
1291.35
1248.96
1208.43
1160.44
1108.65
1063.47
1022.5
988.834
961.015
937.808
920.058
906.108
896.078
889.775
884.269
881.273
879.659
878.583
878.633
879.377
880.818
882.711
884.961
887.5
890.274
893.232
896.343
899.571
902.898
906.299
909.762
913.27
916.812
920.377
923.957
927.542
931.126
934.703
938.265
941.808
945.329
948.823
952.288
955.725
959.135
962.52
965.883
969.231
972.571
975.912
979.261
982.622
985.995
989.367
992.705
995.96
999.109
1002.18
1005.14
1008.02
1010.79
1013.46
1016.04
1018.51
1020.89
1023.16
1025.32
1027.38
1029.34
1031.19
1032.93
1034.57
1036.1
1037.52
1038.84
1040.05
1041.15
1042.14
1043.03
1043.81
1044.49
1045.06
1045.53
1045.89
1046.15
1046.31
1046.35
1046.3
1046.13
1045.84
1045.41
1044.84
1044.16
1043.38
1042.52
1041.56
1040.52
1039.38
1038.17
1036.86
1035.48
1034.02
1032.48
1030.81
1029.17
1027.32
1025.55
1023.61
1021.7
1019.67
1017.61
1015.5
1013.33
1011.12
1008.87
1006.58
1004.25
1001.9
999.516
997.11
994.684
992.241
989.788
987.329
984.871
982.43
980.024
977.676
975.425
973.333
971.505
970.097
969.637
970.619
976.921
11463.3
2322.05
1475.13
1187.31
941.683
727.606
561.369
450.077
374.214
321.296
283.677
256.901
237.511
222.88
211.481
202.565
195.759
190.776
187.425
185.793
186.005
187.328
191.284
198.167
209.122
225.148
246.32
270.187
294.01
312.19
328.931
356.834
428.698
534.896
622.101
689.642
759.964
835.718
906.626
968.731
1023.19
1070.31
1097.46
1103.69
1068.96
1024.45
985.649
945.738
908.405
875.619
848.323
825.276
806.806
792.031
780.471
771.917
765.716
761.59
759.426
757.946
757.663
758.063
759.102
760.741
762.779
765.17
767.817
770.671
773.693
776.854
780.126
783.492
786.935
790.441
793.998
797.597
801.229
804.885
808.558
812.242
815.929
819.615
823.294
826.962
830.613
834.245
837.855
841.439
844.998
848.531
852.038
855.52
858.975
862.406
865.812
869.19
872.535
875.836
879.082
882.259
885.352
888.356
891.276
894.104
896.841
899.484
902.033
904.484
906.837
909.091
911.244
913.294
915.241
917.082
918.818
920.446
921.966
923.377
924.679
925.871
926.952
927.924
928.785
929.536
930.177
930.707
931.126
931.434
931.632
931.717
931.703
931.572
931.332
930.977
930.508
929.916
929.205
928.389
927.477
926.471
925.372
924.181
922.9
921.533
920.079
918.541
916.92
915.22
913.424
911.583
909.635
907.659
905.588
903.482
901.302
899.07
896.783
894.445
892.061
889.632
887.164
884.661
882.126
879.563
876.975
874.364
871.735
869.093
866.445
863.804
861.18
858.586
856.044
853.588
851.269
849.177
847.44
846.418
846.618
849.765
11463.3
2941.17
1735.79
1209.27
832.977
587.57
444.556
355.642
300.11
264.166
239.485
221.586
207.997
197.421
188.968
182.199
176.926
173.052
170.512
169.424
169.744
171.134
174.467
179.766
187.775
199.727
216.567
238.606
268.031
312.492
369.997
466.859
578.824
666.152
733.504
794.657
845.366
884.8
918.882
951.275
966.507
966.944
936.352
906.004
872.372
839.128
809.467
782.118
758.833
739.293
723.256
710.225
700.036
692.272
686.623
682.813
680.762
679.921
679.873
680.659
682.146
684.159
686.591
689.38
692.431
695.697
699.129
702.697
706.377
710.149
713.999
717.914
721.885
725.903
729.959
734.047
738.159
742.287
746.427
750.571
754.713
758.849
762.973
767.081
771.167
775.229
779.262
783.264
787.231
791.164
795.059
798.915
802.729
806.5
810.224
813.896
817.509
821.053
824.523
827.911
831.212
834.422
837.541
840.565
843.491
846.318
849.043
851.664
854.179
856.587
858.886
861.074
863.148
865.106
866.949
868.673
870.277
871.761
873.124
874.365
875.483
876.478
877.349
878.098
878.722
879.223
879.6
879.852
879.97
879.983
879.872
879.635
879.276
878.794
878.189
877.462
876.614
875.655
874.589
873.418
872.144
870.769
869.296
867.73
866.069
864.315
862.471
860.539
858.518
856.424
854.245
852.004
849.687
847.309
844.864
842.358
839.795
837.178
834.511
831.798
829.043
826.252
823.428
820.575
817.695
814.791
811.868
808.931
805.988
803.048
800.123
797.227
794.378
791.606
788.954
786.493
784.327
782.707
781.982
783.011
11463.3
3443.05
1778.24
1035.54
650.658
457.768
359.168
303.761
268.273
243.283
224.458
209.782
197.99
188.271
180.222
173.667
168.53
164.809
162.614
162.061
162.954
165.581
170.44
177.933
188.86
203.873
226.698
263.169
320.193
408.08
515.208
604.443
673.532
732.289
777.847
812.132
839.981
860.529
868.77
862.522
839.295
817.34
790.303
765.054
739.82
716.821
696.756
679.379
664.941
653.079
643.586
636.215
630.783
627.036
624.982
624.203
624.198
625.239
626.991
629.341
632.185
635.423
638.973
642.774
646.77
650.923
655.202
659.584
664.051
668.591
673.192
677.846
682.544
687.281
692.049
696.841
701.65
706.469
711.29
716.108
720.916
725.709
730.481
735.226
739.942
744.621
749.261
753.856
758.404
762.902
767.347
771.736
776.067
780.335
784.537
788.669
792.727
796.708
800.606
804.411
808.118
811.725
815.229
818.626
821.914
825.089
828.149
831.09
833.909
836.601
839.164
841.598
843.903
846.075
848.115
850.02
851.788
853.419
854.912
856.265
857.478
858.551
859.484
860.277
860.928
861.44
861.812
862.034
862.114
862.077
861.895
861.574
861.116
860.523
859.796
858.936
857.948
856.835
855.604
854.256
852.793
851.217
849.527
847.718
845.802
843.783
841.665
839.449
837.138
834.74
832.257
829.697
827.059
824.349
821.568
818.721
815.812
812.845
809.825
806.756
803.643
800.491
797.306
794.089
790.845
787.576
784.289
780.987
777.679
774.375
771.085
767.823
764.605
761.456
758.412
755.53
752.892
750.665
749.022
748.466
11463.3
3583.64
1562.01
815.533
516.281
382.35
313.461
273.624
248.059
230.012
216.014
204.19
193.889
185.003
177.481
171.391
166.915
164.218
163.233
163.882
166.41
171.458
179.506
192.675
213.549
244.633
292.957
368.85
457.86
538.503
603.523
658.26
703.821
739.837
768.872
785.851
791.105
782.797
765.24
747.404
726.591
707.041
686.928
668.187
650.553
635.057
621.805
610.672
601.601
594.401
588.933
585.042
582.738
581.783
581.684
582.637
584.408
586.92
590.024
593.617
597.613
601.935
606.519
611.315
616.279
621.381
626.594
631.899
637.281
642.729
648.231
653.78
659.367
664.987
670.632
676.295
681.966
687.638
693.303
698.953
704.582
710.182
715.748
721.275
726.757
732.19
737.567
742.883
748.134
753.316
758.427
763.463
768.42
773.294
778.083
782.783
787.392
791.909
796.321
800.622
804.808
808.874
812.819
816.64
820.332
823.893
827.32
830.61
833.759
836.766
839.629
842.344
844.91
847.324
849.586
851.693
853.644
855.436
857.07
858.544
859.858
861.011
862.004
862.836
863.508
864.019
864.37
864.545
864.578
864.461
864.183
863.748
863.16
862.422
861.534
860.499
859.323
858.008
856.559
854.979
853.271
851.438
849.482
847.407
845.215
842.91
840.496
837.976
835.352
832.632
829.82
826.922
823.941
820.879
817.742
814.533
811.258
807.922
804.529
801.084
797.592
794.06
790.492
786.892
783.263
779.609
775.936
772.25
768.559
764.872
761.2
757.556
753.954
750.416
746.971
743.659
740.518
737.692
735.253
733.371
11463.3
3404.33
1280.26
660.968
443.178
348.014
296.795
265.844
244.505
228.379
215.55
204.922
195.87
188.132
181.745
176.942
174.05
173.236
174.809
178.77
186.15
198.314
216.591
246.084
291.217
351.922
420.71
483.666
540.532
589.795
631.854
666.972
697.137
716.811
723.255
718.469
705.57
690.83
674.396
658.755
643.153
628.365
613.914
600.508
588.368
577.908
569.138
561.991
556.397
552.255
549.507
548.184
547.852
548.5
550.079
552.496
555.63
559.387
563.67
568.394
573.487
578.884
584.53
590.38
596.396
602.549
608.817
615.182
621.623
628.129
634.686
641.284
647.912
654.563
661.235
667.915
674.591
681.255
687.898
694.51
701.085
707.615
714.093
720.512
726.86
733.127
739.321
745.439
751.475
757.426
763.287
769.057
774.728
780.299
785.763
791.117
796.356
801.471
806.458
811.315
816.035
820.617
825.055
829.348
833.492
837.484
841.32
844.998
848.513
851.863
855.046
858.059
860.9
863.567
866.058
868.372
870.505
872.458
874.228
875.815
877.218
878.439
879.475
880.329
881
881.489
881.787
881.899
881.852
881.622
881.215
880.632
879.878
878.955
877.866
876.614
875.203
873.638
871.924
870.063
868.06
865.918
863.641
861.231
858.694
856.032
853.25
850.352
847.341
844.224
841.006
837.694
834.292
830.802
827.231
823.583
819.865
816.083
812.24
808.343
804.397
800.407
796.381
792.32
788.23
784.116
779.984
775.841
771.694
767.553
763.428
759.332
755.277
751.282
747.373
743.584
739.959
736.589
733.49
730.573
11463.3
2974.58
1033.05
561.055
399.647
327.509
288.823
263.522
246.139
233.344
223.068
214.398
207.067
201.175
197.124
195.526
196.607
201.169
209.339
221.563
240.084
266.734
303.047
347.384
395.527
444.249
490.269
531.504
568.357
600.122
628.207
650.507
660.107
660.793
653.315
642.595
629.789
617.177
604.921
593.375
582.154
571.364
561.034
551.569
543.222
536.184
530.47
526.053
522.885
521.063
520.39
520.588
521.82
523.954
526.917
530.624
534.991
539.938
545.386
551.268
557.52
564.083
570.905
577.939
585.151
592.508
599.99
607.59
615.269
623.008
630.794
638.61
646.437
654.253
662.019
669.76
677.49
685.203
692.886
700.528
708.122
715.659
723.132
730.536
737.864
745.118
752.275
759.324
766.259
773.077
779.775
786.35
792.796
799.11
805.288
811.325
817.216
822.957
828.547
833.981
839.254
844.363
849.305
854.076
858.673
863.094
867.333
871.389
875.258
878.935
882.42
885.709
888.8
891.693
894.383
896.871
899.153
901.229
903.097
904.756
906.207
907.45
908.485
909.313
909.935
910.349
910.544
910.55
910.358
909.964
909.372
908.586
907.609
906.443
905.094
903.564
901.859
899.984
897.943
895.74
893.381
890.869
888.208
885.403
882.459
879.379
876.169
872.833
869.375
865.802
862.119
858.334
854.451
850.476
846.413
842.271
838.055
833.772
829.427
825.024
820.57
816.07
811.532
806.959
802.357
797.732
793.091
788.441
783.79
779.147
774.523
769.928
765.375
760.88
756.465
752.16
747.995
744.042
740.285
736.416
11463.3
2496.22
890.059
521.129
386.374
324.162
289.843
269.477
255.939
246.009
238.245
232.167
227.926
226.161
226.944
231.526
239.986
251.541
266.69
287.538
314.172
345.62
380.225
415.841
450.841
484.134
514.831
541.995
566.769
589.073
601.951
605.664
603.821
598.099
589.426
579.98
570.511
561.564
553.017
544.784
536.726
528.94
521.611
515.03
509.397
504.834
501.374
499.058
497.97
497.776
498.583
500.339
503.011
506.535
510.845
515.867
521.529
527.761
534.497
541.678
549.263
557.191
565.394
573.828
582.451
591.219
600.077
608.944
617.891
626.912
635.989
645.103
654.228
663.347
672.46
681.545
690.587
699.583
708.51
717.357
726.119
734.791
743.367
751.839
760.198
768.432
776.53
784.487
792.297
799.959
807.47
814.827
822.025
829.061
835.929
842.627
849.152
855.499
861.666
867.648
873.441
879.041
884.445
889.649
894.652
899.449
904.038
908.415
912.577
916.52
920.242
923.741
927.015
930.062
932.881
935.47
937.827
939.951
941.841
943.496
944.916
946.103
947.057
947.78
948.273
948.527
948.557
948.365
947.949
947.312
946.456
945.387
944.107
942.622
940.934
939.049
936.972
934.709
932.265
929.646
926.856
923.901
920.784
917.513
914.091
910.524
906.818
902.977
899.007
894.912
890.702
886.381
881.956
877.435
872.823
868.13
863.361
858.523
853.621
848.661
843.646
838.586
833.485
828.349
823.185
818.001
812.804
807.602
802.402
797.213
792.046
786.909
781.816
776.78
771.822
766.966
762.235
757.687
753.294
748.563
11463.3
2079.43
782.831
485.861
377.224
325.085
297.596
281.456
271.122
264.114
259.382
257.064
256.733
259.392
265.519
275.182
287.816
303.24
322.139
344.242
368.678
394.453
420.579
446.189
470.543
492.987
514.111
533.993
548.322
554.498
555.884
554.851
550.687
544.951
538.47
531.997
525.726
519.691
513.778
507.943
502.21
496.73
491.714
487.383
483.902
481.362
479.964
479.529
480.026
481.504
483.93
487.266
491.481
496.548
502.425
509.003
516.217
524.002
532.29
540.996
549.993
559.268
568.853
578.721
588.833
599.151
609.644
620.311
631.075
641.89
652.725
663.564
674.356
685.064
695.672
706.159
716.507
726.71
736.784
746.738
756.573
766.289
775.883
785.349
794.672
803.839
812.835
821.652
830.286
838.734
846.997
855.07
862.951
870.634
878.115
885.392
892.462
899.323
905.972
912.404
918.615
924.602
930.359
935.886
941.18
946.24
951.061
955.641
959.977
964.065
967.903
971.489
974.822
977.901
980.725
983.294
985.604
987.654
989.444
990.974
992.245
993.256
994.012
994.513
994.759
994.752
994.494
993.99
993.243
992.255
991.029
989.572
987.887
985.979
983.853
981.515
978.97
976.225
973.287
970.16
966.85
963.365
959.708
955.887
951.907
947.774
943.494
939.074
934.519
929.834
925.028
920.104
915.073
909.943
904.723
899.421
894.044
888.597
883.086
877.516
871.891
866.219
860.506
854.759
848.987
843.199
837.402
831.606
825.815
820.04
814.288
808.57
802.896
797.283
791.747
786.31
780.988
775.829
770.813
765.284
11463.3
1954.17
770.632
484.728
380.693
333.943
310.246
297.092
289.379
285.181
283.564
283.82
286.849
292.709
301.347
312.496
325.835
341.39
358.776
377.378
396.577
415.775
434.4
452.236
469.572
486.227
499.794
507.699
511.399
512.813
512.676
510.679
507.482
503.731
499.768
495.794
491.833
487.876
483.909
479.988
476.224
472.791
469.872
467.646
466.379
465.989
466.561
468.241
470.856
474.385
478.808
484.089
490.166
496.921
504.258
512.307
521.05
530.436
540.401
550.889
561.878
573.309
585.104
597.216
609.599
622.203
634.973
647.884
660.846
673.761
686.561
699.173
711.572
723.743
735.669
747.345
758.773
769.975
780.985
791.835
802.535
813.097
823.527
833.815
843.938
853.871
863.592
873.096
882.377
891.436
900.271
908.88
917.26
925.404
933.309
940.973
948.395
955.574
962.507
969.19
975.619
981.79
987.7
993.347
998.731
1003.85
1008.7
1013.28
1017.59
1021.63
1025.39
1028.87
1032.07
1034.99
1037.63
1039.99
1042.07
1043.87
1045.38
1046.62
1047.57
1048.24
1048.63
1048.75
1048.59
1048.17
1047.47
1046.51
1045.29
1043.81
1042.07
1040.1
1037.87
1035.42
1032.73
1029.82
1026.69
1023.35
1019.8
1016.06
1012.13
1008.01
1003.72
999.252
994.621
989.833
984.894
979.812
974.592
969.241
963.767
958.169
952.464
946.664
940.777
934.809
928.767
922.657
916.484
910.252
903.968
897.636
891.263
884.86
878.436
872.003
865.568
859.138
852.719
846.32
839.946
833.609
827.322
821.098
814.954
808.909
802.975
797.192
791.559
785.278
11463.3
1869.69
744.983
482.242
387.893
345.834
325.123
314.15
308.381
305.917
305.485
307.595
312.257
319.173
328.037
338.539
350.408
363.379
377.086
391.115
405.063
418.894
432.754
446.099
457.354
465.218
470.657
474.464
476.366
477.11
477.181
476.333
474.933
473.236
471.362
469.382
467.333
465.267
463.27
461.498
460.188
459.493
459.337
459.923
461.37
463.629
466.623
470.154
474.59
479.996
486.372
493.691
501.917
511.036
521.052
531.88
543.486
555.791
568.72
582.206
596.197
610.615
625.373
640.406
655.681
671.112
686.557
701.89
717.02
731.887
746.421
760.558
774.258
787.503
800.287
812.613
824.517
836.072
847.384
858.542
869.553
880.444
891.243
901.926
912.448
922.753
932.803
942.604
952.154
961.448
970.486
979.264
987.776
996.019
1003.99
1011.68
1019.1
1026.25
1033.11
1039.7
1046.01
1052.03
1057.76
1063.19
1068.34
1073.2
1077.77
1082.05
1086.03
1089.71
1093.1
1096.18
1098.97
1101.45
1103.64
1105.54
1107.14
1108.43
1109.42
1110.12
1110.52
1110.62
1110.44
1109.97
1109.2
1108.15
1106.82
1105.22
1103.34
1101.19
1098.79
1096.12
1093.21
1090.04
1086.65
1083.02
1079.16
1075.1
1070.82
1066.34
1061.66
1056.8
1051.75
1046.54
1041.15
1035.61
1029.92
1024.08
1018.11
1012.01
1005.8
999.452
993.009
986.477
979.863
973.173
966.411
959.583
952.696
945.753
938.762
931.724
924.647
917.546
910.435
903.321
896.212
889.115
882.034
874.978
867.95
860.963
854.031
847.17
840.394
833.721
827.157
820.736
814.49
807.498
11463.3
1852.3
744.891
489.242
399.171
359.467
340.002
329.802
324.647
322.615
322.423
324.945
329.638
336.05
343.746
352.408
361.818
371.759
381.985
392.381
403.079
413.238
421.91
429.07
434.973
440.024
443.999
447.14
449.564
451.506
453.111
454.454
455.568
456.459
457.19
457.829
458.441
459.101
459.872
460.783
461.717
463.115
465.28
468.483
472.787
478.092
484.403
491.832
500.309
509.853
520.469
532.103
544.701
558.222
572.629
587.859
603.962
620.701
637.94
655.576
673.515
691.658
709.902
728.142
746.239
764.101
781.67
798.844
815.515
831.573
846.916
861.507
875.333
888.417
900.784
912.412
923.391
933.882
944.165
954.512
964.769
974.996
985.304
995.6
1005.78
1015.78
1025.57
1035.1
1044.35
1053.33
1062.02
1070.42
1078.53
1086.34
1093.84
1101.04
1107.94
1114.54
1120.84
1126.84
1132.53
1137.92
1142.99
1147.75
1152.2
1156.35
1160.19
1163.73
1166.95
1169.87
1172.48
1174.77
1176.75
1178.43
1179.79
1180.86
1181.63
1182.08
1182.21
1182.06
1181.61
1180.84
1179.78
1178.42
1176.77
1174.84
1172.62
1170.12
1167.35
1164.3
1160.99
1157.42
1153.59
1149.52
1145.22
1140.68
1135.91
1130.94
1125.75
1120.36
1114.78
1109.02
1103.07
1096.96
1090.68
1084.25
1077.67
1070.96
1064.12
1057.15
1050.08
1042.92
1035.69
1028.37
1020.97
1013.5
1005.97
998.368
990.715
983.013
975.269
967.484
959.666
951.837
944.007
936.184
928.372
920.577
912.806
905.066
897.357
889.696
882.099
874.582
867.158
859.84
852.637
845.57
838.713
831.047
11463.3
1830.54
744.469
497.414
409.036
370.372
351.635
341.404
335.997
333.771
333.41
335.468
339.383
344.651
350.846
357.733
365.188
373.109
381.198
389.06
396.507
403.58
410.436
416.835
422.864
428.58
433.961
439.038
443.793
448.188
452.163
455.535
458.523
461.414
464.31
467.303
470.485
473.962
477.836
482.247
487.446
493.582
500.875
509.602
519.652
530.806
543.091
556.55
571.115
586.777
603.656
621.524
640.194
659.526
679.387
699.627
720.029
740.583
761.208
781.812
802.304
822.6
842.621
862.29
881.533
900.282
918.479
936.054
952.915
968.937
983.938
997.993
1011.16
1023.53
1035.15
1046.07
1056.31
1065.91
1074.99
1083.72
1092.19
1100.71
1109.76
1118.92
1127.99
1136.89
1145.59
1154.01
1162.13
1169.94
1177.45
1184.65
1191.55
1198.12
1204.37
1210.29
1215.9
1221.2
1226.2
1230.9
1235.29
1239.36
1243.11
1246.55
1249.68
1252.51
1255.04
1257.26
1259.18
1260.8
1262.12
1263.12
1263.83
1264.23
1264.32
1264.16
1263.69
1262.91
1261.83
1260.46
1258.8
1256.84
1254.59
1252.07
1249.26
1246.18
1242.83
1239.2
1235.31
1231.16
1226.75
1222.09
1217.19
1212.05
1206.69
1201.1
1195.3
1189.29
1183.09
1176.69
1170.11
1163.35
1156.42
1149.34
1142.1
1134.71
1127.19
1119.54
1111.77
1103.89
1095.91
1087.87
1079.75
1071.57
1063.3
1054.98
1046.58
1038.14
1029.64
1021.11
1012.54
1003.96
995.379
986.805
978.238
969.683
961.145
952.63
944.146
935.701
927.293
918.945
910.674
902.494
894.413
886.447
878.6
870.887
863.425
855.124
11463.3
1817.94
747.063
502.694
415.458
377.798
359.25
348.825
343.215
340.82
340.331
342.079
345.618
350.509
356.29
362.776
369.772
377.112
384.772
392.749
400.706
408.539
416.36
424.111
431.849
439.591
447.354
455.155
462.922
470.576
478.199
485.913
493.811
501.958
510.453
519.412
528.949
539.194
550.27
562.317
575.483
589.796
605.252
621.69
639.046
657.437
676.897
697.448
718.948
741.178
763.856
787.125
810.706
834.346
857.854
881.073
903.849
926.107
947.757
968.744
989.021
1008.59
1027.45
1045.58
1063
1079.7
1095.69
1110.97
1125.53
1139.35
1152.45
1164.72
1176.2
1187.06
1197.36
1207.17
1216.42
1225
1232.86
1239.96
1246.75
1253.79
1261
1268.07
1274.9
1281.45
1287.71
1293.67
1299.32
1304.68
1309.74
1314.52
1319.02
1323.21
1327.11
1330.71
1334.04
1337.09
1339.9
1342.43
1344.7
1346.68
1348.38
1349.81
1350.97
1351.87
1352.51
1352.89
1352.98
1352.85
1352.45
1351.75
1350.79
1349.58
1348.11
1346.39
1344.41
1342.16
1339.65
1336.88
1333.85
1330.55
1327.01
1323.21
1319.16
1314.87
1310.33
1305.55
1300.53
1295.28
1289.79
1284.08
1278.14
1271.99
1265.64
1259.09
1252.35
1245.41
1238.3
1231.01
1223.56
1215.94
1208.17
1200.25
1192.19
1183.99
1175.67
1167.23
1158.68
1150.02
1141.26
1132.4
1123.47
1114.46
1105.38
1096.23
1087.02
1077.76
1068.45
1059.11
1049.73
1040.36
1031
1021.66
1012.32
1003
993.695
984.424
975.192
966.008
956.9
947.874
938.938
930.1
921.369
912.759
904.277
895.929
887.872
878.987
11463.3
1807.87
749.121
505.703
418.802
383.203
365.238
355.472
351.22
349.749
350.266
353.268
357.951
363.937
371.181
379.886
389.255
399.087
409.891
421.801
434.356
447.19
460.655
474.75
489.47
504.748
520.581
536.896
553.703
571.02
588.898
607.373
626.425
646.023
666.217
687.094
708.775
731.457
755.208
779.982
805.647
832.092
859.131
886.565
914.289
942.287
970.596
999.583
1028.75
1057.39
1085.06
1111.29
1136.13
1159.56
1181.55
1202.04
1221.04
1238.52
1254.58
1269.26
1282.69
1295
1306.34
1316.74
1326.32
1335.15
1343.32
1350.89
1357.92
1364.54
1371.01
1377.33
1383.48
1389.39
1394.98
1400.2
1404.91
1409.1
1413.07
1417.06
1421.4
1425.72
1429.35
1432.46
1435.18
1437.61
1439.78
1441.73
1443.47
1445.01
1446.34
1447.47
1448.4
1449.12
1449.65
1450
1450.16
1450.15
1450
1449.66
1449.12
1448.4
1447.48
1446.38
1445.09
1443.63
1441.99
1440.16
1438.13
1435.92
1433.51
1430.89
1428.09
1425.09
1421.89