/*--------------------------------*- C++ -*----------------------------------*\
  =========                 |
  \\      /  F ield         | OpenFOAM: The Open Source CFD Toolbox
   \\    /   O peration     | Website:  https://openfoam.org
    \\  /    A nd           | Version:  8
     \\/     M anipulation  |
\*---------------------------------------------------------------------------*/
FoamFile
{
    version     2.0;
    format      ascii;
    class       volScalarField;
    location    "500";
    object      p;
}
// * * * * * * * * * * * * * * * * * * * * * * * * * * * * * * * * * * * * * //

dimensions      [0 2 -2 0 0 0 0];

internalField   nonuniform List<scalar> 
12225
(
-4.19092
-5.07369
-5.46265
-5.59563
-5.73408
-5.88239
-6.00867
-6.11135
-6.19846
-6.27755
-6.34918
-6.41984
-6.49036
-6.55975
-6.63291
-6.7112
-6.79762
-6.8877
-4.45747
-5.0964
-5.42483
-5.55831
-5.69796
-5.84698
-5.97268
-6.07472
-6.16508
-6.24822
-6.32321
-6.39457
-6.47061
-6.54691
-6.6182
-6.69186
-6.76691
-6.82755
-4.66605
-5.09747
-5.40984
-5.56685
-5.70858
-5.85317
-5.97608
-6.07725
-6.16769
-6.25042
-6.32585
-6.39749
-6.47126
-6.54403
-6.61146
-6.67777
-6.74145
-6.78969
-4.81559
-5.12654
-5.42178
-5.58452
-5.71621
-5.84995
-5.96834
-6.06815
-6.15724
-6.23893
-6.31436
-6.38615
-6.45796
-6.52784
-6.59315
-6.65519
-6.71215
-6.75629
-4.94426
-5.17679
-5.44046
-5.60014
-5.72441
-5.85049
-5.96579
-6.06452
-6.15227
-6.23295
-6.30804
-6.37929
-6.44881
-6.51562
-6.57802
-6.63583
-6.6876
-6.72877
-5.0615
-5.2332
-5.45898
-5.61384
-5.73409
-5.85361
-5.96481
-6.06143
-6.14748
-6.22684
-6.30098
-6.37098
-6.43806
-6.50186
-6.56125
-6.61557
-6.66372
-6.70312
-5.16787
-5.29253
-5.48133
-5.62849
-5.74452
-5.85701
-5.96315
-6.0572
-6.14154
-6.21951
-6.29241
-6.36096
-6.42587
-6.48705
-6.54377
-6.59534
-6.64092
-6.67913
-5.24989
-5.34492
-5.50515
-5.64284
-5.75419
-5.86054
-5.9619
-6.05334
-6.13597
-6.21248
-6.28403
-6.35115
-6.4143
-6.47347
-6.52815
-6.57773
-6.62163
-6.659
-5.31675
-5.39193
-5.52887
-5.65679
-5.76352
-5.86446
-5.96134
-6.05013
-6.13098
-6.20595
-6.27611
-6.34185
-6.40344
-6.46091
-6.51388
-6.56189
-6.60455
-6.64131
-5.38338
-5.4424
-5.55693
-5.67341
-5.77457
-5.86975
-5.96162
-6.04717
-6.1258
-6.19888
-6.26732
-6.3314
-6.39129
-6.44695
-6.49818
-6.54465
-6.58612
-6.6223
-5.44888
-5.49492
-5.58904
-5.69287
-5.78742
-5.87654
-5.96298
-6.04471
-6.12063
-6.19143
-6.2578
-6.31996
-6.37794
-6.43171
-6.48116
-6.52609
-6.56643
-6.60203
-5.51207
-5.54799
-5.62437
-5.71506
-5.80199
-5.8848
-5.96552
-6.04289
-6.11561
-6.18375
-6.24773
-6.30768
-6.36357
-6.41536
-6.46301
-6.50643
-6.54567
-6.58064
-5.57172
-5.59988
-5.66151
-5.73937
-5.81797
-5.89426
-5.96912
-6.04173
-6.11079
-6.17592
-6.23721
-6.29473
-6.34838
-6.39815
-6.444
-6.48596
-6.5241
-6.55843
-5.62629
-5.64861
-5.69844
-5.76459
-5.83467
-5.90436
-5.9734
-6.04104
-6.10612
-6.16795
-6.22637
-6.28129
-6.33266
-6.38038
-6.42451
-6.46504
-6.50212
-6.53575
-5.67374
-5.69177
-5.73254
-5.78875
-5.85079
-5.91411
-5.97758
-6.04037
-6.10139
-6.15981
-6.21528
-6.26762
-6.31671
-6.36249
-6.40495
-6.44415
-6.4802
-6.51316
-5.71134
-5.72632
-5.76057
-5.80905
-5.86427
-5.92193
-5.98047
-6.0389
-6.09614
-6.15135
-6.20404
-6.25395
-6.30094
-6.34492
-6.38588
-6.42387
-6.45899
-6.4913
-5.73511
-5.74817
-5.77829
-5.82165
-5.87202
-5.92548
-5.98028
-6.03532
-6.08957
-6.14217
-6.19258
-6.24049
-6.28574
-6.32824
-6.36796
-6.40496
-6.43931
-6.47111
-5.73875
-5.75122
-5.78001
-5.82164
-5.87016
-5.92186
-5.97498
-6.02846
-6.08122
-6.13247
-6.18159
-6.22837
-6.27257
-6.31419
-6.35313
-6.38953
-6.42339
-6.45489
-5.72193
-5.73513
-5.76546
-5.8088
-5.8587
-5.91128
-5.96504
-6.01894
-6.07198
-6.12325
-6.17233
-6.21889
-6.2629
-6.30422
-6.34296
-6.37911
-6.41283
-6.44422
-5.68989
-5.70498
-5.73936
-5.78735
-5.84105
-5.89652
-5.9526
-6.00849
-6.06303
-6.11542
-6.16522
-6.21232
-6.25661
-6.29815
-6.33694
-6.37316
-6.40689
-6.43834
-5.64584
-5.6642
-5.70535
-5.76063
-5.81992
-5.87956
-5.93921
-5.99813
-6.05505
-6.10917
-6.16024
-6.20825
-6.25318
-6.29513
-6.33419
-6.37056
-6.40439
-6.43591
-5.59164
-5.61512
-5.66638
-5.73138
-5.79733
-5.8619
-5.92599
-5.9887
-6.04849
-6.10469
-6.15733
-6.20646
-6.25218
-6.29461
-6.33398
-6.3705
-6.40445
-6.43601
-5.52817
-5.55964
-5.62513
-5.70182
-5.77472
-5.84464
-5.91381
-5.98074
-6.04359
-6.10203
-6.15635
-6.20672
-6.25325
-6.29618
-6.33579
-6.37244
-6.40637
-6.43794
-5.45555
-5.49958
-5.58444
-5.67368
-5.75288
-5.82845
-5.9033
-5.97461
-6.04045
-6.10109
-6.15709
-6.20866
-6.25596
-6.2993
-6.3391
-6.37576
-6.40965
-6.44113
-5.37322
-5.43678
-5.54724
-5.64848
-5.73237
-5.8136
-5.89445
-5.97008
-6.03879
-6.10156
-6.15919
-6.21187
-6.25982
-6.30345
-6.34326
-6.37978
-6.41344
-6.44471
-5.28073
-5.37297
-5.51504
-5.62684
-5.71399
-5.80057
-5.88686
-5.96614
-6.03736
-6.10217
-6.16148
-6.21539
-6.26413
-6.30818
-6.34815
-6.38462
-6.41817
-6.44946
-5.17828
-5.31213
-5.48514
-5.60384
-5.69564
-5.78934
-5.88107
-5.96336
-6.0365
-6.10288
-6.16337
-6.21804
-6.26717
-6.31133
-6.35114
-6.38736
-6.42066
-6.45185
-5.05611
-5.26708
-5.46123
-5.57451
-5.67114
-5.7757
-5.87566
-5.96309
-6.04002
-6.10942
-6.17209
-6.22809
-6.27788
-6.32212
-6.36153
-6.39704
-6.42981
-6.46141
-4.87158
-5.24418
-5.47015
-5.56641
-5.65798
-5.76645
-5.86959
-5.95868
-6.03714
-6.10818
-6.17231
-6.22944
-6.27993
-6.32439
-6.36342
-6.39771
-6.42853
-6.45725
-4.60688
-5.16923
-5.46044
-5.56691
-5.66576
-5.7823
-5.89082
-5.9826
-6.06244
-6.1343
-6.19889
-6.2563
-6.30675
-6.35078
-6.38879
-6.42076
-6.44734
-6.46874
-7.40769
-7.4078
-7.40785
-7.40785
-7.40756
-7.40636
-7.40385
-7.40051
-7.39734
-7.39534
-7.3955
-7.398
-7.40234
-7.40773
-7.41341
-7.4187
-7.42305
-7.42605
-7.42768
-7.42828
-7.42814
-7.42745
-7.42646
-7.42545
-7.42467
-7.4242
-7.42401
-7.42392
-7.42374
-7.4234
-7.42287
-7.42219
-7.42129
-7.4201
-7.4187
-7.41741
-7.41687
-7.41775
-7.42007
-7.42314
-7.42604
-7.42831
-7.43016
-7.43199
-7.43425
-7.4374
-7.44104
-7.44409
-7.44634
-7.44993
-7.4587
-7.47648
-7.50313
-7.53741
-7.57936
-7.62998
-7.68898
-7.75473
-7.82536
-7.89858
-7.97237
-8.04498
-8.11517
-8.18209
-8.24475
-8.30282
-8.35614
-8.40467
-8.44845
-8.48757
-8.52209
-8.55214
-8.57774
-8.59897
-8.61582
-8.62833
-8.63646
-8.6402
-8.63949
-8.63431
-8.62458
-8.61027
-8.59129
-8.56762
-8.53918
-8.50591
-8.46773
-8.42457
-8.37635
-8.32301
-8.26451
-8.20079
-8.13178
-8.05744
-7.97772
-7.89258
-7.80201
-7.70608
-7.60486
-7.49821
-7.38568
-7.26719
-7.14295
-7.01302
-6.87743
-6.73619
-6.58935
-6.43692
-6.27895
-6.1155
-5.94663
-5.77241
-5.59294
-5.4083
-5.21861
-5.02399
-4.82457
-4.62048
-4.4119
-4.19896
-3.98184
-3.76073
-3.5358
-3.30724
-3.07527
-2.84008
-2.60188
-2.36089
-2.11735
-1.87146
-1.62342
-1.37346
-1.12181
-0.868711
-0.614448
-0.359302
-0.103438
0.153246
0.41062
0.668298
0.926047
1.18365
1.44093
1.69769
1.95378
2.20902
2.46328
2.71637
2.96814
3.21843
3.46709
3.714
3.959
4.20197
4.44277
4.68129
4.91742
5.15106
5.38213
5.61053
5.83619
6.05902
6.27893
6.49583
6.70963
6.92023
7.12756
7.33151
7.53201
7.72897
7.92229
8.11186
8.29759
8.47936
8.65707
8.83066
9.0004
9.16616
9.33101
9.48619
-7.4089
-7.40908
-7.40945
-7.40984
-7.40983
-7.40901
-7.40709
-7.40464
-7.40291
-7.40284
-7.40471
-7.40836
-7.41328
-7.4188
-7.42432
-7.42933
-7.43347
-7.43654
-7.43835
-7.43869
-7.43767
-7.43562
-7.43299
-7.43024
-7.4278
-7.42595
-7.42471
-7.42391
-7.42328
-7.42269
-7.42211
-7.42154
-7.4209
-7.42012
-7.41917
-7.4185
-7.41884
-7.42067
-7.4237
-7.42691
-7.42913
-7.43009
-7.4302
-7.42943
-7.4281
-7.42794
-7.43138
-7.43803
-7.44433
-7.45115
-7.46182
-7.4775
-7.49999
-7.53258
-7.57741
-7.63343
-7.69802
-7.7687
-7.84278
-7.91804
-7.99239
-8.06453
-8.1333
-8.19754
-8.25723
-8.31239
-8.36298
-8.40908
-8.45077
-8.48813
-8.52122
-8.55011
-8.57482
-8.59536
-8.61173
-8.6239
-8.63184
-8.63549
-8.6348
-8.62971
-8.62016
-8.60607
-8.58739
-8.56405
-8.536
-8.50316
-8.46546
-8.42283
-8.37519
-8.32249
-8.26468
-8.2017
-8.13348
-8.05996
-7.98108
-7.89678
-7.80699
-7.71161
-7.61052
-7.50368
-7.39133
-7.27355
-7.15016
-7.02114
-6.88648
-6.74619
-6.60028
-6.44879
-6.29176
-6.12924
-5.9613
-5.788
-5.60943
-5.42569
-5.23688
-5.04312
-4.84454
-4.64128
-4.43349
-4.22133
-4.00496
-3.78457
-3.56034
-3.33246
-3.10112
-2.86653
-2.62891
-2.38847
-2.14542
-1.89999
-1.65237
-1.40279
-1.15144
-0.898555
-0.644317
-0.388897
-0.132539
0.124341
0.381564
0.639101
0.896725
1.15424
1.41145
1.66817
1.92424
2.17949
2.43377
2.68691
2.93875
3.18913
3.4379
3.68494
3.9301
4.17325
4.41424
4.65297
4.88933
5.12321
5.35452
5.58318
5.80911
6.03221
6.25241
6.4696
6.68371
6.89463
7.10228
7.30658
7.50743
7.70474
7.89844
8.08843
8.27463
8.45699
8.63539
8.80979
8.98036
9.14651
9.3134
9.46791
-7.41018
-7.41018
-7.41021
-7.4103
-7.41038
-7.41042
-7.41066
-7.4116
-7.41372
-7.41717
-7.42173
-7.42704
-7.43268
-7.43822
-7.44328
-7.44756
-7.45086
-7.45307
-7.45411
-7.45393
-7.45255
-7.45011
-7.44677
-7.44277
-7.43833
-7.43375
-7.42933
-7.42533
-7.42196
-7.41928
-7.41723
-7.4156
-7.41413
-7.41289
-7.41236
-7.41326
-7.4161
-7.42053
-7.42509
-7.42787
-7.42768
-7.42563
-7.42385
-7.4236
-7.42429
-7.42615
-7.43183
-7.44224
-7.45671
-7.47595
-7.50069
-7.53112
-7.56778
-7.61131
-7.66179
-7.71818
-7.77891
-7.84241
-7.90721
-7.97213
-8.03613
-8.0984
-8.15827
-8.2151
-8.2686
-8.31862
-8.36503
-8.40777
-8.44677
-8.48203
-8.51349
-8.54113
-8.56492
-8.5848
-8.60071
-8.61261
-8.62042
-8.62406
-8.62347
-8.61858
-8.6093
-8.59555
-8.57728
-8.5544
-8.52685
-8.49456
-8.45747
-8.41548
-8.36853
-8.31657
-8.25954
-8.19737
-8.13
-8.05738
-7.97944
-7.89612
-7.80738
-7.71314
-7.61327
-7.50772
-7.39656
-7.27988
-7.15762
-7.02974
-6.89624
-6.75712
-6.61239
-6.46209
-6.30625
-6.14493
-5.97817
-5.80605
-5.62865
-5.44607
-5.25841
-5.06578
-4.86831
-4.66614
-4.45941
-4.2483
-4.03294
-3.81353
-3.59025
-3.36329
-3.13283
-2.8991
-2.66228
-2.42261
-2.1803
-1.93556
-1.6886
-1.43962
-1.18886
-0.936527
-0.682841
-0.427976
-0.17215
0.0843025
0.341186
0.598396
0.85572
1.11297
1.36994
1.62647
1.88237
2.13749
2.39166
2.64472
2.8965
3.14684
3.39561
3.64267
3.88788
4.1311
4.37219
4.61104
4.84753
5.08155
5.31302
5.54183
5.76792
5.99118
6.21155
6.42891
6.64319
6.85428
7.06211
7.26657
7.46758
7.66506
7.85892
8.04907
8.23541
8.41786
8.59642
8.77108
8.94236
9.1091
9.27873
9.4292
-7.4113
-7.41102
-7.41065
-7.41067
-7.41187
-7.41463
-7.41876
-7.42389
-7.42967
-7.43579
-7.44196
-7.44792
-7.45345
-7.45837
-7.46251
-7.46573
-7.46792
-7.46904
-7.46904
-7.46791
-7.46565
-7.46234
-7.45807
-7.45293
-7.44701
-7.44045
-7.43345
-7.4263
-7.41937
-7.41301
-7.40749
-7.40303
-7.39991
-7.39863
-7.39993
-7.40402
-7.40972
-7.41497
-7.41839
-7.41968
-7.41945
-7.41934
-7.42079
-7.42448
-7.43097
-7.44104
-7.45558
-7.47519
-7.49992
-7.52944
-7.56324
-7.60106
-7.6427
-7.688
-7.7368
-7.7887
-7.84312
-7.89928
-7.95637
-8.01359
-8.07023
-8.12565
-8.17932
-8.23079
-8.27973
-8.3259
-8.3691
-8.4092
-8.44607
-8.47961
-8.50973
-8.53633
-8.55934
-8.57867
-8.59421
-8.60589
-8.6136
-8.61726
-8.61678
-8.61207
-8.60305
-8.58963
-8.57173
-8.54928
-8.52221
-8.49044
-8.4539
-8.41251
-8.3662
-8.31492
-8.2586
-8.19718
-8.13059
-8.05877
-7.98164
-7.89915
-7.81124
-7.71785
-7.6189
-7.51437
-7.40429
-7.28866
-7.16745
-7.04064
-6.90821
-6.77018
-6.62656
-6.47736
-6.32262
-6.16239
-5.99673
-5.82571
-5.6494
-5.46789
-5.28129
-5.08971
-4.89327
-4.69212
-4.48638
-4.27623
-4.06182
-3.84333
-3.62093
-3.39483
-3.16521
-2.93227
-2.69622
-2.45729
-2.21567
-1.97159
-1.72526
-1.47687
-1.22667
-0.974868
-0.721687
-0.467332
-0.212018
0.0440069
0.300546
0.557435
0.814466
1.07145
1.3282
1.58452
1.84025
2.09523
2.34928
2.60225
2.85395
3.10425
3.35301
3.60007
3.84531
4.08858
4.32974
4.56868
4.80527
5.03942
5.27101
5.49996
5.72618
5.94959
6.1701
6.38761
6.60203
6.81328
7.02124
7.22583
7.42696
7.62455
7.81852
8.00879
8.19527
8.37791
8.5567
8.73162
8.90332
9.07005
9.24043
9.38469
-7.41361
-7.41301
-7.41263
-7.41409
-7.41838
-7.42476
-7.43214
-7.43984
-7.44738
-7.45444
-7.46087
-7.46662
-7.47162
-7.47582
-7.47911
-7.48143
-7.48271
-7.4829
-7.48197
-7.4799
-7.47669
-7.4724
-7.46705
-7.46071
-7.45344
-7.4453
-7.4364
-7.42695
-7.41729
-7.40793
-7.39948
-7.39277
-7.3888
-7.38849
-7.39168
-7.39648
-7.40128
-7.4054
-7.40871
-7.4117
-7.41513
-7.4201
-7.42757
-7.43856
-7.45388
-7.4737
-7.49754
-7.52493
-7.55563
-7.58927
-7.62563
-7.66466
-7.70629
-7.75048
-7.79704
-7.84564
-7.89585
-7.94714
-7.99897
-8.05078
-8.10208
-8.15239
-8.20132
-8.24852
-8.29369
-8.33658
-8.37699
-8.41474
-8.44965
-8.4816
-8.51044
-8.53604
-8.55827
-8.577
-8.59212
-8.60351
-8.61105
-8.61464
-8.61417
-8.60954
-8.60067
-8.58745
-8.56981
-8.54767
-8.52094
-8.48956
-8.45345
-8.41253
-8.36673
-8.316
-8.26026
-8.19946
-8.13351
-8.06235
-7.98592
-7.90415
-7.81698
-7.72436
-7.62623
-7.52256
-7.41335
-7.29858
-7.17825
-7.05231
-6.92077
-6.78363
-6.6409
-6.49259
-6.33875
-6.17941
-6.01464
-5.84449
-5.66905
-5.4884
-5.30265
-5.1119
-4.91628
-4.71592
-4.51098
-4.30158
-4.08792
-3.87015
-3.64846
-3.42302
-3.19406
-2.96175
-2.72631
-2.48795
-2.24688
-2.00332
-1.75748
-1.50957
-1.25981
-1.00843
-0.755643
-0.501662
-0.246711
0.00898797
0.26524
0.521858
0.778645
1.0354
1.29195
1.5481
1.80368
2.05853
2.31247
2.56534
2.81697
3.06722
3.31595
3.56301
3.80826
4.05156
4.29277
4.53177
4.76844
5.00267
5.23437
5.46343
5.68978
5.91331
6.13395
6.3516
6.56615
6.77752
6.98562
7.19035
7.39163
7.58937
7.78349
7.97391
8.16056
8.34336
8.52233
8.69734
8.86903
9.03512
9.20499
9.34249
-7.41788
-7.41697
-7.41753
-7.42209
-7.42963
-7.43819
-7.44685
-7.45514
-7.46277
-7.46965
-7.47579
-7.48117
-7.48573
-7.4894
-7.49211
-7.4938
-7.4944
-7.4939
-7.49226
-7.48948
-7.48556
-7.48052
-7.4744
-7.46717
-7.45884
-7.44951
-7.43933
-7.42849
-7.4174
-7.40673
-7.39731
-7.39043
-7.38709
-7.38701
-7.38877
-7.39131
-7.39459
-7.39899
-7.4048
-7.41188
-7.42056
-7.43211
-7.44747
-7.46666
-7.48939
-7.51526
-7.544
-7.57523
-7.60875
-7.64435
-7.68193
-7.72138
-7.76262
-7.80555
-7.84998
-7.89569
-7.94237
-7.98968
-8.03727
-8.08477
-8.13183
-8.17812
-8.22331
-8.26711
-8.30924
-8.34948
-8.3876
-8.4234
-8.45669
-8.48729
-8.51503
-8.53974
-8.56127
-8.57947
-8.59418
-8.60527
-8.61261
-8.61608
-8.61555
-8.61093
-8.60211
-8.589
-8.57152
-8.54956
-8.52306
-8.49195
-8.45613
-8.41555
-8.37013
-8.31979
-8.2645
-8.20416
-8.13871
-8.06807
-7.99219
-7.91098
-7.8244
-7.73239
-7.6349
-7.53189
-7.42335
-7.30927
-7.1896
-7.06434
-6.93347
-6.797
-6.65494
-6.50731
-6.35414
-6.19547
-6.03135
-5.86186
-5.68706
-5.50704
-5.32191
-5.13177
-4.93674
-4.73696
-4.53258
-4.32373
-4.1106
-3.89334
-3.67215
-3.4472
-3.2187
-2.98683
-2.75183
-2.51388
-2.27321
-2.03002
-1.78454
-1.53697
-1.28754
-1.03647
-0.783979
-0.530282
-0.2756
-0.020149
0.235872
0.492271
0.748853
1.00542
1.26179
1.51778
1.77323
2.02795
2.28178
2.53454
2.78609
3.03627
3.28495
3.53198
3.77721
4.0205
4.26172
4.50074
4.73744
4.97171
5.20346
5.43259
5.65901
5.88262
6.10335
6.32108
6.53574
6.74721
6.95542
7.16026
7.36165
7.5595
7.75374
7.94427
8.13102
8.3139
8.49289
8.6678
8.8392
9.00432
9.17341
9.30434
-7.42316
-7.42272
-7.42553
-7.43284
-7.44172
-7.45054
-7.45894
-7.4668
-7.47404
-7.48063
-7.48652
-7.49162
-7.49587
-7.49919
-7.5015
-7.50276
-7.50292
-7.50196
-7.49986
-7.49661
-7.49224
-7.48676
-7.48007
-7.47213
-7.46307
-7.4531
-7.44242
-7.4313
-7.42024
-7.41004
-7.40186
-7.39639
-7.39309
-7.39113
-7.3906
-7.39197
-7.39583
-7.40199
-7.41041
-7.42179
-7.43658
-7.45471
-7.47598
-7.50013
-7.52692
-7.55601
-7.58722
-7.62036
-7.65527
-7.69179
-7.72977
-7.76907
-7.80958
-7.8512
-7.89379
-7.93718
-7.98118
-8.02555
-8.07006
-8.11445
-8.15845
-8.20181
-8.24426
-8.28554
-8.32542
-8.36366
-8.40004
-8.43435
-8.46639
-8.49594
-8.52282
-8.54683
-8.5678
-8.58555
-8.59991
-8.61073
-8.61786
-8.62117
-8.62054
-8.61586
-8.60703
-8.59394
-8.57651
-8.55464
-8.52826
-8.49729
-8.46165
-8.42128
-8.3761
-8.32604
-8.27105
-8.21104
-8.14594
-8.07567
-8.00018
-7.91938
-7.83323
-7.74167
-7.64465
-7.54212
-7.43407
-7.32047
-7.20129
-7.07651
-6.94612
-6.81013
-6.66854
-6.52138
-6.36867
-6.21046
-6.0468
-5.87775
-5.70338
-5.52379
-5.33907
-5.14933
-4.9547
-4.7553
-4.55128
-4.3428
-4.13001
-3.91309
-3.69221
-3.46758
-3.23937
-3.0078
-2.77307
-2.5354
-2.29498
-2.05205
-1.8068
-1.55947
-1.31027
-1.05943
-0.807151
-0.553668
-0.299191
-0.0439343
0.2119
0.468122
0.72453
0.980937
1.23715
1.49301
1.74832
2.00291
2.25662
2.50927
2.76072
3.01082
3.25942
3.5064
3.75158
3.99483
4.23601
4.475
4.71169
4.94595
5.17771
5.40685
5.63329
5.85695
6.07772
6.29551
6.51022
6.72175
6.93002
7.13492
7.33638
7.5343
7.7286
7.91919
8.10597
8.28885
8.46776
8.64244
8.81339
8.97745
9.14579
9.27061
-7.42722
-7.42809
-7.43356
-7.44193
-7.45047
-7.45866
-7.46651
-7.47395
-7.48092
-7.4873
-7.493
-7.49793
-7.50199
-7.5051
-7.50721
-7.50825
-7.50818
-7.50698
-7.50465
-7.50119
-7.49661
-7.49082
-7.48373
-7.47553
-7.46645
-7.45662
-7.44628
-7.43591
-7.42628
-7.41808
-7.41159
-7.40619
-7.40151
-7.39834
-7.39749
-7.39926
-7.4042
-7.41276
-7.42491
-7.44052
-7.45926
-7.48094
-7.50527
-7.53198
-7.56083
-7.59161
-7.62413
-7.65822
-7.69371
-7.73045
-7.7683
-7.80717
-7.84694
-7.8875
-7.92873
-7.97049
-8.01265
-8.05505
-8.09749
-8.13977
-8.1817
-8.22306
-8.26363
-8.30318
-8.3415
-8.37836
-8.41354
-8.44682
-8.47798
-8.5068
-8.53307
-8.55658
-8.57713
-8.59454
-8.60862
-8.6192
-8.62613
-8.62928
-8.62851
-8.62372
-8.61481
-8.60166
-8.58419
-8.56231
-8.53595
-8.50502
-8.46945
-8.42917
-8.38411
-8.33421
-8.27939
-8.21958
-8.1547
-8.08467
-8.00944
-7.92892
-7.84306
-7.7518
-7.65508
-7.55288
-7.44514
-7.33186
-7.21299
-7.08852
-6.95844
-6.82276
-6.68147
-6.5346
-6.38218
-6.22425
-6.06086
-5.89208
-5.71798
-5.53864
-5.35416
-5.16466
-4.97025
-4.77107
-4.56726
-4.35897
-4.14637
-3.92963
-3.70893
-3.48447
-3.25643
-3.02502
-2.79045
-2.55292
-2.31266
-2.06987
-1.82477
-1.5776
-1.32856
-1.07786
-0.825738
-0.572411
-0.318091
-0.0629872
0.192698
0.44877
0.70503
0.961294
1.21738
1.4731
1.72827
1.98274
2.23631
2.48885
2.74018
2.99018
3.23871
3.4856
3.73071
3.97388
4.21499
4.45391
4.69054
4.92476
5.15648
5.3856
5.61204
5.83571
6.0565
6.27431
6.48903
6.70058
6.90886
7.1138
7.31529
7.51325
7.70759
7.8982
8.08497
8.26779
8.44656
8.62092
8.79137
8.95437
9.12202
9.24136
-7.42837
-7.43093
-7.43795
-7.44601
-7.45387
-7.46156
-7.46907
-7.47629
-7.48311
-7.48941
-7.49506
-7.49995
-7.50399
-7.50708
-7.50917
-7.51019
-7.51013
-7.50894
-7.50663
-7.50318
-7.49854
-7.49265
-7.48562
-7.47767
-7.46901
-7.4599
-7.45078
-7.44214
-7.43435
-7.42738
-7.42104
-7.41525
-7.41044
-7.40764
-7.40769
-7.41111
-7.41827
-7.42918
-7.44354
-7.46119
-7.48181
-7.50513
-7.53089
-7.55881
-7.58866
-7.62024
-7.65335
-7.68781
-7.72348
-7.76021
-7.79789
-7.83639
-7.87562
-7.91545
-7.95578
-7.99652
-8.03754
-8.0787
-8.11985
-8.16084
-8.20149
-8.24161
-8.28103
-8.31953
-8.3569
-8.39293
-8.4274
-8.46007
-8.49072
-8.5191
-8.54501
-8.56821
-8.5885
-8.60568
-8.61954
-8.62991
-8.63665
-8.63961
-8.63867
-8.63373
-8.62466
-8.61139
-8.5938
-8.57183
-8.54538
-8.51439
-8.47878
-8.4385
-8.39347
-8.34361
-8.28886
-8.22914
-8.16437
-8.09447
-8.01937
-7.939
-7.8533
-7.76221
-7.66566
-7.56363
-7.45607
-7.34295
-7.22426
-7.09996
-6.97004
-6.83452
-6.69338
-6.54666
-6.39439
-6.2366
-6.07335
-5.90469
-5.7307
-5.55147
-5.3671
-5.17769
-4.98337
-4.78427
-4.58054
-4.37233
-4.1598
-3.94312
-3.72249
-3.49807
-3.2701
-3.03875
-2.80424
-2.56678
-2.32659
-2.08387
-1.83886
-1.59177
-1.34283
-1.09223
-0.840218
-0.587005
-0.332806
-0.0778286
0.17773
0.433668
0.689797
0.945925
1.20187
1.45746
1.7125
1.96682
2.22026
2.47266
2.72387
2.97375
3.22217
3.46897
3.71397
3.95704
4.19805
4.43688
4.67341
4.90756
5.13921
5.36829
5.5947
5.81835
6.03913
6.25692
6.47163
6.68317
6.89145
7.09639
7.29789
7.49586
7.69022
7.88082
8.06755
8.25026
8.42884
8.60286
8.77277
8.93474
9.10177
9.21633
-7.42505
-7.42899
-7.43617
-7.44368
-7.45122
-7.45875
-7.46616
-7.47336
-7.48023
-7.48663
-7.49243
-7.4975
-7.50173
-7.50503
-7.50731
-7.50853
-7.50865
-7.50762
-7.50543
-7.50208
-7.49753
-7.49185
-7.4852
-7.47787
-7.47012
-7.46229
-7.45458
-7.4471
-7.43992
-7.43317
-7.42701
-7.42182
-7.41823
-7.41699
-7.4187
-7.42372
-7.43227
-7.44436
-7.4598
-7.4784
-7.49988
-7.52396
-7.55037
-7.57883
-7.60913
-7.64106
-7.67443
-7.70907
-7.74482
-7.78156
-7.81914
-7.85746
-7.89639
-7.93585
-7.97574
-8.01595
-8.05638
-8.09691
-8.13742
-8.17776
-8.21778
-8.25732
-8.29619
-8.33421
-8.37117
-8.40686
-8.44104
-8.47348
-8.50393
-8.53214
-8.55788
-8.58092
-8.60104
-8.61804
-8.63172
-8.6419
-8.64843
-8.65119
-8.65005
-8.6449
-8.63565
-8.62219
-8.60443
-8.58229
-8.55568
-8.52455
-8.48882
-8.44845
-8.40336
-8.35346
-8.29869
-8.23897
-8.1742
-8.10432
-8.02926
-7.94893
-7.86327
-7.77222
-7.67573
-7.57376
-7.46625
-7.3532
-7.23455
-7.1103
-6.98044
-6.84496
-6.70386
-6.55718
-6.40493
-6.24717
-6.08394
-5.9153
-5.74133
-5.5621
-5.37772
-5.18831
-4.99398
-4.79487
-4.59112
-4.38288
-4.17033
-3.95363
-3.73297
-3.50854
-3.28055
-3.04919
-2.81468
-2.57722
-2.33704
-2.09435
-1.84937
-1.60234
-1.35345
-1.10293
-0.85099
-0.59787
-0.343773
-0.0889042
0.166536
0.42235
0.678349
0.934344
1.19015
1.44559
1.70047
1.95464
2.20792
2.46017
2.71123
2.96097
3.20928
3.45597
3.70084
3.94378
4.18465
4.42334
4.65976
4.89379
5.12536
5.35435
5.58071
5.80433
6.02507
6.24283
6.4575
6.66901
6.87726
7.08218
7.28368
7.48166
7.67601
7.86658
8.05324
8.23583
8.41418
8.58781
8.75717
8.91817
9.0846
9.19512
-7.41529
-7.41988
-7.42677
-7.43427
-7.44201
-7.44973
-7.45734
-7.46476
-7.47188
-7.47859
-7.48472
-7.49014
-7.49471
-7.49833
-7.50091
-7.50241
-7.50277
-7.50198
-7.50004
-7.49695
-7.49279
-7.48768
-7.48181
-7.47538
-7.46854
-7.46145
-7.45429
-7.44718
-7.44027
-7.43388
-7.42844
-7.42438
-7.42214
-7.42229
-7.42531
-7.43152
-7.44107
-7.45399
-7.47016
-7.48935
-7.51133
-7.53582
-7.56255
-7.5913
-7.62186
-7.65401
-7.68758
-7.72239
-7.75829
-7.79513
-7.83278
-7.87112
-7.91005
-7.94947
-7.98929
-8.02941
-8.06972
-8.11012
-8.1505
-8.19073
-8.23067
-8.27013
-8.30896
-8.34695
-8.3839
-8.4196
-8.45381
-8.48628
-8.51676
-8.545
-8.57073
-8.59374
-8.61378
-8.63066
-8.64417
-8.65415
-8.66047
-8.66299
-8.6616
-8.65621
-8.64672
-8.63302
-8.61503
-8.59265
-8.56582
-8.53446
-8.49853
-8.458
-8.41277
-8.36276
-8.30789
-8.24808
-8.18324
-8.1133
-8.03819
-7.95782
-7.87212
-7.78104
-7.68451
-7.5825
-7.47497
-7.36188
-7.24321
-7.11894
-6.98904
-6.85351
-6.71238
-6.56565
-6.41336
-6.25555
-6.09227
-5.92358
-5.74954
-5.57025
-5.3858
-5.19632
-5.00191
-4.80273
-4.5989
-4.39059
-4.17796
-3.96119
-3.74046
-3.51597
-3.28792
-3.05652
-2.82196
-2.58448
-2.34428
-2.10159
-1.85663
-1.60964
-1.36079
-1.11033
-0.858464
-0.605434
-0.351441
-0.096685
0.158629
0.414312
0.670168
0.926016
1.18167
1.43694
1.69166
1.94565
2.19876
2.45083
2.70172
2.9513
3.19949
3.44605
3.69077
3.93354
4.17424
4.41278
4.64904
4.88295
5.11439
5.3433
5.56958
5.79316
6.01387
6.23156
6.44618
6.65764
6.86586
7.07075
7.27222
7.4702
7.66455
7.85508
8.04165
8.22408
8.40218
8.57542
8.74423
8.90432
9.07016
9.17737
-7.39752
-7.40211
-7.40917
-7.41745
-7.4259
-7.43411
-7.44208
-7.44985
-7.45739
-7.46458
-7.47121
-7.47712
-7.48212
-7.48614
-7.48912
-7.491
-7.49175
-7.49137
-7.48988
-7.4873
-7.48372
-7.47924
-7.47399
-7.46811
-7.46175
-7.45503
-7.44813
-7.44127
-7.43478
-7.42902
-7.42433
-7.42113
-7.41993
-7.42119
-7.4253
-7.43253
-7.44298
-7.45666
-7.47345
-7.49313
-7.51549
-7.54029
-7.5673
-7.59631
-7.62713
-7.65954
-7.69338
-7.72845
-7.7646
-7.80169
-7.83959
-7.8782
-7.91741
-7.9571
-7.99719
-8.03755
-8.07811
-8.11875
-8.15938
-8.19986
-8.24006
-8.27981
-8.31894
-8.35726
-8.39454
-8.43055
-8.46505
-8.49779
-8.52849
-8.55688
-8.58271
-8.60573
-8.62572
-8.64248
-8.65578
-8.66549
-8.67149
-8.67368
-8.67197
-8.66627
-8.65648
-8.6425
-8.62422
-8.60155
-8.5744
-8.54273
-8.50655
-8.46581
-8.42042
-8.37026
-8.31525
-8.25531
-8.19036
-8.12032
-8.04511
-7.96466
-7.87888
-7.78771
-7.6911
-7.589
-7.4814
-7.36824
-7.2495
-7.12515
-6.99518
-6.85957
-6.71836
-6.57155
-6.41919
-6.2613
-6.09794
-5.92916
-5.75503
-5.57564
-5.3911
-5.20151
-5.00701
-4.80772
-4.6038
-4.3954
-4.18269
-3.96585
-3.74505
-3.5205
-3.2924
-3.06094
-2.82633
-2.58881
-2.3486
-2.10592
-1.86099
-1.61404
-1.36525
-1.11485
-0.863076
-0.61015
-0.356272
-0.101645
0.153531
0.409064
0.664764
0.920444
1.17592
1.43101
1.68553
1.93933
2.19224
2.44411
2.69481
2.94422
3.1923
3.43874
3.68327
3.92583
4.16634
4.40469
4.64079
4.87454
5.10585
5.33464
5.56086
5.7844
6.00505
6.22267
6.43722
6.64861
6.85678
7.06163
7.26308
7.46107
7.65541
7.84589
8.03236
8.21462
8.39246
8.56531
8.73358
8.89283
9.05806
9.16267
-7.37136
-7.37579
-7.38378
-7.39347
-7.40292
-7.41169
-7.42009
-7.42838
-7.43661
-7.44458
-7.45196
-7.45851
-7.46407
-7.46861
-7.47209
-7.47448
-7.47576
-7.47591
-7.47495
-7.47291
-7.46985
-7.46585
-7.46102
-7.45546
-7.44931
-7.44277
-7.43608
-7.42953
-7.42341
-7.41808
-7.41397
-7.41154
-7.41125
-7.41349
-7.41859
-7.42675
-7.43802
-7.4524
-7.46973
-7.48986
-7.51258
-7.53771
-7.56503
-7.59436
-7.62552
-7.65831
-7.69255
-7.72803
-7.7646
-7.80211
-7.84045
-7.87949
-7.91913
-7.95927
-7.9998
-8.04064
-8.08169
-8.12284
-8.16399
-8.20501
-8.24575
-8.28606
-8.32577
-8.36467
-8.40251
-8.43908
-8.47408
-8.50724
-8.53822
-8.56675
-8.59256
-8.61546
-8.63526
-8.65173
-8.66465
-8.6739
-8.67944
-8.68121
-8.67912
-8.67309
-8.66303
-8.64879
-8.63024
-8.60727
-8.57975
-8.54766
-8.51116
-8.47024
-8.42471
-8.37442
-8.31927
-8.25919
-8.19412
-8.12398
-8.0487
-7.96817
-7.88229
-7.79102
-7.69431
-7.59213
-7.48445
-7.37123
-7.25243
-7.12801
-6.99796
-6.86229
-6.721
-6.57412
-6.42169
-6.26374
-6.10031
-5.93147
-5.75727
-5.57781
-5.39319
-5.20352
-5.00893
-4.80956
-4.60558
-4.39712
-4.18437
-3.96749
-3.74667
-3.52209
-3.29397
-3.06249
-2.82787
-2.59033
-2.35014
-2.10751
-1.86266
-1.61577
-1.36707
-1.11678
-0.865144
-0.612366
-0.358649
-0.104198
0.150795
0.406133
0.66163
0.917096
1.17235
1.4272
1.68149
1.93505
2.18773
2.43937
2.68983
2.93906
3.18711
3.43349
3.67781
3.92013
4.16042
4.39857
4.63449
4.86808
5.09925
5.32793
5.5541
5.77764
5.99825
6.21578
6.43025
6.64157
6.84968
7.0545
7.25594
7.45393
7.64829
7.83871
8.02507
8.20715
8.38472
8.55718
8.72494
8.88341
9.04797
9.15068
-7.33802
-7.34278
-7.35229
-7.36377
-7.37432
-7.38381
-7.39298
-7.40198
-7.41093
-7.41982
-7.42829
-7.43585
-7.44212
-7.44715
-7.45113
-7.45408
-7.45592
-7.45662
-7.45618
-7.45459
-7.45192
-7.44821
-7.44356
-7.43811
-7.43205
-7.42558
-7.41896
-7.41251
-7.40658
-7.40162
-7.39804
-7.3963
-7.39681
-7.39991
-7.40584
-7.41477
-7.42673
-7.44168
-7.45951
-7.48008
-7.50322
-7.52874
-7.55645
-7.58618
-7.61775
-7.65096
-7.68563
-7.72156
-7.7586
-7.79662
-7.83547
-7.87505
-7.91524
-7.95593
-7.99704
-8.03848
-8.08017
-8.122
-8.16384
-8.20557
-8.24703
-8.28806
-8.32845
-8.368
-8.40646
-8.44355
-8.47897
-8.51241
-8.5435
-8.5719
-8.59742
-8.61994
-8.63932
-8.6553
-8.66753
-8.67599
-8.68089
-8.68222
-8.67986
-8.67368
-8.66356
-8.64927
-8.63063
-8.60748
-8.57963
-8.54704
-8.51018
-8.46914
-8.42354
-8.37311
-8.31779
-8.25754
-8.19233
-8.1221
-8.04674
-7.96612
-7.88013
-7.78872
-7.69188
-7.58959
-7.48183
-7.36854
-7.24967
-7.12519
-6.99505
-6.85929
-6.71792
-6.57098
-6.41849
-6.2605
-6.09704
-5.92815
-5.75389
-5.57437
-5.3897
-5.2
-5.00539
-4.80601
-4.60202
-4.39355
-4.18078
-3.96387
-3.74303
-3.51846
-3.29035
-3.05892
-2.82439
-2.58698
-2.34693
-2.10446
-1.85977
-1.61305
-1.36454
-1.11449
-0.863104
-0.610595
-0.357168
-0.103021
0.151651
0.406657
0.661806
0.91691
1.17179
1.42626
1.68015
1.93332
2.18559
2.43683
2.68688
2.93575
3.18362
3.42985
3.67387
3.9159
4.15593
4.39385
4.62957
4.86298
5.094
5.32256
5.54874
5.7724
5.99303
6.21047
6.42485
6.63611
6.84418
7.04898
7.25042
7.44848
7.64289
7.83326
8.0195
8.2014
8.37872
8.55079
8.71805
8.8758
9.03965
9.14112
-7.30055
-7.3062
-7.31775
-7.33143
-7.34313
-7.35292
-7.3625
-7.37257
-7.38282
-7.39288
-7.40244
-7.41104
-7.41812
-7.4237
-7.42817
-7.43165
-7.43402
-7.43521
-7.43518
-7.43391
-7.43143
-7.42782
-7.42319
-7.41768
-7.41147
-7.40483
-7.39807
-7.39158
-7.38574
-7.38102
-7.37784
-7.37662
-7.37771
-7.38141
-7.38792
-7.39736
-7.40977
-7.42513
-7.44333
-7.46426
-7.48774
-7.51362
-7.54172
-7.57185
-7.60384
-7.63747
-7.67255
-7.70892
-7.74644
-7.78495
-7.82432
-7.86444
-7.90521
-7.94651
-7.98826
-8.03036
-8.07272
-8.11519
-8.15767
-8.20001
-8.24204
-8.2836
-8.32448
-8.36445
-8.40325
-8.44059
-8.47614
-8.50956
-8.54039
-8.56815
-8.59283
-8.6146
-8.63336
-8.64868
-8.65976
-8.66681
-8.6707
-8.67153
-8.66904
-8.66301
-8.65317
-8.63919
-8.6208
-8.59795
-8.57066
-8.53895
-8.50275
-8.46195
-8.41636
-8.36583
-8.31034
-8.24991
-8.18454
-8.11414
-8.0386
-7.95778
-7.87157
-7.77994
-7.68288
-7.58038
-7.47243
-7.35897
-7.23994
-7.11528
-6.98497
-6.84905
-6.70753
-6.56046
-6.40785
-6.24975
-6.08618
-5.9172
-5.74284
-5.56324
-5.37849
-5.18874
-4.99409
-4.79469
-4.59067
-4.38218
-4.16937
-3.95244
-3.73157
-3.507
-3.27891
-3.04756
-2.81314
-2.57589
-2.33601
-2.09371
-1.8492
-1.6027
-1.35444
-1.10467
-0.853599
-0.601425
-0.348358
-0.0945936
0.159672
0.414252
0.668952
0.923588
1.17798
1.43194
1.68532
1.93794
2.18965
2.44027
2.68967
2.9377
3.18425
3.42928
3.67264
3.91419
4.15378
4.39132
4.62668
4.85975
5.09045
5.31872
5.54472
5.76838
5.98898
6.20631
6.42059
6.63179
6.83983
7.04463
7.24609
7.44433
7.63891
7.82927
8.0154
8.19713
8.3742
8.54592
8.71273
8.86979
9.03289
9.13376
-7.26257
-7.26944
-7.28348
-7.29909
-7.31113
-7.32138
-7.33206
-7.3433
-7.35465
-7.3658
-7.37643
-7.38601
-7.39391
-7.40015
-7.40524
-7.40931
-7.41221
-7.41383
-7.41411
-7.41302
-7.41059
-7.40686
-7.40198
-7.39612
-7.38951
-7.38246
-7.37532
-7.36852
-7.36248
-7.35767
-7.35447
-7.35331
-7.35448
-7.35829
-7.36491
-7.37445
-7.38696
-7.40241
-7.42073
-7.4418
-7.46549
-7.49165
-7.5201
-7.55065
-7.58307
-7.61714
-7.65269
-7.68953
-7.72754
-7.76657
-7.80646
-7.84709
-7.88835
-7.93012
-7.97232
-8.01485
-8.05759
-8.10041
-8.1432
-8.18581
-8.22807
-8.2698
-8.3108
-8.35082
-8.38963
-8.42693
-8.46239
-8.49558
-8.52581
-8.55208
-8.57467
-8.59473
-8.6125
-8.62768
-8.63959
-8.64778
-8.65217
-8.65299
-8.65042
-8.64436
-8.63452
-8.62056
-8.60219
-8.57947
-8.55271
-8.52187
-8.48632
-8.44571
-8.40013
-8.34957
-8.29403
-8.23356
-8.16811
-8.09759
-8.02191
-7.94095
-7.85461
-7.76284
-7.66568
-7.56309
-7.45504
-7.34148
-7.22235
-7.09761
-6.96723
-6.83125
-6.6897
-6.54259
-6.38996
-6.23184
-6.06827
-5.89928
-5.72493
-5.54534