/*--------------------------------*- C++ -*----------------------------------*\
  =========                 |
  \\      /  F ield         | OpenFOAM: The Open Source CFD Toolbox
   \\    /   O peration     | Website:  https://openfoam.org
    \\  /    A nd           | Version:  8
     \\/     M anipulation  |
\*---------------------------------------------------------------------------*/
FoamFile
{
    version     2.0;
    format      ascii;
    class       surfaceScalarField;
    location    "4600";
    object      phi;
}
// * * * * * * * * * * * * * * * * * * * * * * * * * * * * * * * * * * * * * //

dimensions      [0 3 -1 0 0 0 0];

internalField   nonuniform List<scalar> 
24170
(
3.92539e-06
-7.91498e-07
3.76465e-06
1.6075e-07
3.63345e-06
1.31209e-07
3.43331e-06
2.00144e-07
3.28028e-06
1.53027e-07
3.18901e-06
9.11908e-08
3.13091e-06
5.81104e-08
3.08609e-06
4.58916e-08
3.04613e-06
4.2325e-08
3.01059e-06
3.81649e-08
2.97876e-06
3.38046e-08
2.94904e-06
3.07721e-08
2.92187e-06
2.73792e-08
2.89642e-06
2.5201e-08
2.87227e-06
2.36061e-08
2.85194e-06
1.94834e-08
2.84097e-06
9.85722e-09
-6.39441e-09
2.84669e-06
3.58445e-06
-9.19499e-07
3.80424e-06
-5.90412e-08
3.74282e-06
1.92629e-07
3.6906e-06
2.52375e-07
3.63729e-06
2.06333e-07
3.59023e-06
1.3828e-07
3.55289e-06
9.55999e-08
3.52309e-06
7.56606e-08
3.49853e-06
6.65715e-08
3.47732e-06
5.92174e-08
3.45871e-06
5.25313e-08
3.44252e-06
4.72662e-08
3.42795e-06
4.23391e-08
3.41466e-06
3.87873e-08
3.40269e-06
3.57311e-08
3.39122e-06
3.10518e-08
3.38037e-06
2.08408e-08
4.77042e-09
3.36943e-06
3.68518e-06
-7.92482e-07
3.83639e-06
-2.1025e-07
3.91494e-06
1.14082e-07
3.94502e-06
2.22293e-07
3.94408e-06
2.07265e-07
3.92749e-06
1.54898e-07
3.90755e-06
1.15615e-07
3.88932e-06
9.36455e-08
3.874e-06
8.11981e-08
3.86056e-06
7.19177e-08
3.84834e-06
6.42578e-08
3.83728e-06
5.81369e-08
3.82691e-06
5.27806e-08
3.8174e-06
4.84764e-08
3.80891e-06
4.44348e-08
3.80098e-06
3.92536e-08
3.79195e-06
3.02064e-08
1.77907e-08
3.77944e-06
4.05359e-06
-6.4151e-07
4.1146e-06
-2.71259e-07
4.20799e-06
2.06919e-08
4.26635e-06
1.63933e-07
4.29069e-06
1.82927e-07
4.29287e-06
1.52749e-07
4.28571e-06
1.22819e-07
4.27631e-06
1.02844e-07
4.26727e-06
8.96876e-08
4.25873e-06
7.98191e-08
4.25056e-06
7.19512e-08
4.24283e-06
6.56363e-08
4.23534e-06
6.0248e-08
4.22824e-06
5.56948e-08
4.22149e-06
5.13539e-08
4.21464e-06
4.63461e-08
4.20599e-06
3.91832e-08
3.0656e-08
4.19351e-06
4.50491e-06
-5.09114e-07
4.51536e-06
-2.81708e-07
4.58529e-06
-4.92339e-08
4.64665e-06
1.02566e-07
4.68258e-06
1.46993e-07
4.69688e-06
1.38474e-07
4.69946e-06
1.20238e-07
4.69723e-06
1.04927e-07
4.69331e-06
9.32564e-08
4.68868e-06
8.40587e-08
4.68366e-06
7.66434e-08
4.67851e-06
7.06097e-08
4.67321e-06
6.54963e-08
4.66783e-06
6.11077e-08
4.66227e-06
5.70068e-08
4.65606e-06
5.27044e-08
4.64786e-06
4.7591e-08
4.26034e-08
4.63612e-06
5.00014e-06
-3.94663e-07
4.98614e-06
-2.67704e-07
5.03069e-06
-9.37786e-08
5.08506e-06
4.81985e-08
5.12454e-06
1.07517e-07
5.14608e-06
1.16941e-07
5.15584e-06
1.1049e-07
5.1594e-06
1.01286e-07
5.15985e-06
9.26092e-08
5.15859e-06
8.50851e-08
5.15629e-06
7.87446e-08
5.15333e-06
7.34445e-08
5.14984e-06
6.89358e-08
5.14589e-06
6.50658e-08
5.14136e-06
6.15888e-08
5.13584e-06
5.8311e-08
5.12839e-06
5.51492e-08
5.30509e-08
5.11808e-06
5.54382e-06
-2.97475e-07
5.51664e-06
-2.40529e-07
5.54055e-06
-1.17685e-07
5.58388e-06
4.87094e-09
5.62166e-06
6.97351e-08
5.64656e-06
9.20471e-08
5.66107e-06
9.59695e-08
5.66906e-06
9.32484e-08
5.67315e-06
8.84258e-08
5.67481e-06
8.33027e-08
5.6749e-06
7.85536e-08
5.6739e-06
7.43775e-08
5.67204e-06
7.07679e-08
5.6694e-06
6.76981e-08
5.66591e-06
6.51019e-08
5.66127e-06
6.299e-08
5.65494e-06
6.15485e-08
6.15329e-08
5.6465e-06
4.34788e-06
-2.39242e-07
4.32251e-06
-2.15162e-07
4.33078e-06
-1.25951e-07
4.35419e-06
-1.85356e-08
4.3784e-06
4.55268e-08
4.39646e-06
7.39859e-08
4.40841e-06
8.4024e-08
4.41597e-06
8.5675e-08
4.42059e-06
8.37692e-08
4.42325e-06
8.05993e-08
4.42456e-06
7.71984e-08
4.4249e-06
7.40049e-08
4.42446e-06
7.11823e-08
4.42334e-06
6.88126e-08
4.42151e-06
6.69392e-08
4.41885e-06
6.5673e-08
4.41514e-06
6.52705e-08
6.63502e-08
4.41035e-06
5.08621e-06
-1.85599e-07
5.05777e-06
-1.86718e-07
5.0584e-06
-1.26577e-07
5.07686e-06
-3.70017e-08
5.09918e-06
2.32149e-08
5.11773e-06
5.54373e-08
5.13124e-06
7.05083e-08
5.14059e-06
7.63182e-08
5.14686e-06
7.74772e-08
5.15094e-06
7.64989e-08
5.15344e-06
7.46782e-08
5.15477e-06
7.26685e-08
5.15514e-06
7.07991e-08
5.15468e-06
6.92666e-08
5.15341e-06
6.82125e-08
5.15128e-06
6.78155e-08
5.14821e-06
6.83524e-08
7.02738e-08
5.14429e-06
5.94839e-06
-1.38193e-07
5.91832e-06
-1.56649e-07
5.91161e-06
-1.19865e-07
5.924e-06
-4.9396e-08
5.94286e-06
4.35964e-09
5.96058e-06
3.7718e-08
5.97479e-06
5.62926e-08
5.98546e-06
6.5648e-08
5.9932e-06
6.97375e-08
5.99867e-06
7.10192e-08
6.00242e-06
7.09175e-08
6.00484e-06
7.02419e-08
6.00618e-06
6.94603e-08
6.00657e-06
6.88696e-08
6.0061e-06
6.86901e-08
6.00478e-06
6.91377e-08
6.00267e-06
7.04635e-08
7.29773e-08
5.99997e-06
6.95439e-06
-9.83128e-08
6.92401e-06
-1.26278e-07
6.91113e-06
-1.06983e-07
6.9168e-06
-5.50648e-08
6.93087e-06
-9.70936e-09
6.94635e-06
2.22407e-08
6.96015e-06
4.24943e-08
6.9714e-06
5.43979e-08
6.98017e-06
6.09633e-08
6.98684e-06
6.43497e-08
6.9918e-06
6.59573e-08
6.99537e-06
6.66669e-08
6.9978e-06
6.70328e-08
6.99924e-06
6.74264e-08
6.99982e-06
6.81155e-08
6.99963e-06
6.93264e-08
6.99883e-06
7.12693e-08
7.41309e-08
6.99767e-06
8.12719e-06
-6.64876e-08
8.09793e-06
-9.70206e-08
8.08056e-06
-8.96082e-08
8.07955e-06
-5.40578e-08
8.08793e-06
-1.80882e-08
8.09985e-06
1.03242e-08
8.11198e-06
3.03605e-08
8.12285e-06
4.35239e-08
8.13202e-06
5.17974e-08
8.1395e-06
5.68699e-08
8.14548e-06
5.99777e-08
8.15018e-06
6.19723e-08
8.15378e-06
6.34336e-08
8.15644e-06
6.47593e-08
8.15832e-06
6.62357e-08
8.15958e-06
6.80763e-08
8.1604e-06
7.04429e-08
7.34408e-08
8.16109e-06
9.49368e-06
-4.24385e-08
9.4668e-06
-7.01423e-08
9.44683e-06
-6.96396e-08
9.43991e-06
-4.71308e-08
9.44229e-06
-2.04667e-08
9.44965e-06
2.9569e-09
9.45895e-06
2.10661e-08
9.4684e-06
3.40724e-08
9.47716e-06
4.30383e-08
9.48491e-06
4.91228e-08
9.49159e-06
5.32958e-08
9.49727e-06
5.62939e-08
9.50205e-06
5.86487e-08
9.50607e-06
6.07406e-08
9.50947e-06
6.28364e-08
9.51242e-06
6.51224e-08
9.51515e-06
6.77166e-08
7.06724e-08
9.51792e-06
1.10854e-05
-2.51589e-08
1.10618e-05
-4.65021e-08
1.1041e-05
-4.88059e-08
1.10294e-05
-3.55506e-08
1.10261e-05
-1.71685e-08
1.10284e-05
6.06417e-10
1.1034e-05
1.54764e-08
1.10411e-05
2.69727e-08
1.10487e-05
3.54938e-08
1.10561e-05
4.17179e-08
1.1063e-05
4.63155e-08
1.10695e-05
4.98452e-08
1.10754e-05
5.2737e-08
1.10808e-05
5.53052e-08
1.10859e-05
5.77699e-08
1.10908e-05
6.0275e-08
1.10956e-05
6.29008e-08
6.56707e-08
1.11006e-05
1.29396e-05
-1.31184e-08
1.29194e-05
-2.62781e-08
1.28988e-05
-2.82511e-08
1.28839e-05
-2.06865e-08
1.28758e-05
-8.99445e-09
1.28732e-05
3.14644e-09
1.28748e-05
1.39418e-08
1.28789e-05
2.27904e-08
1.28847e-05
2.97466e-08
1.28913e-05
3.51453e-08
1.28982e-05
3.93857e-08
1.29052e-05
4.28305e-08
1.29122e-05
4.57721e-08
1.29191e-05
4.84273e-08
1.29259e-05
5.09452e-08
1.29327e-05
5.34175e-08
1.29398e-05
5.58873e-08
5.83576e-08
1.29471e-05
1.50998e-05
-4.48289e-09
1.50822e-05
-8.67537e-09
1.50621e-05
-8.11263e-09
1.50448e-05
-3.45704e-09
1.50327e-05
3.11105e-09
1.50259e-05
9.94027e-09
1.50237e-05
1.61636e-08
1.5025e-05
2.14662e-08
1.50289e-05
2.58553e-08
1.50346e-05
2.94869e-08
1.50414e-05
3.25567e-08
1.5049e-05
3.52453e-08
1.50571e-05
3.76959e-08
1.50655e-05
4.00099e-08
1.50742e-05
4.22497e-08
1.50832e-05
4.44448e-08
1.50925e-05
4.65977e-08
4.86901e-08
1.51021e-05
1.76171e-05
2.89333e-09
1.75999e-05
8.52384e-09
1.75787e-05
1.30307e-08
1.7559e-05
1.6279e-08
1.75436e-05
1.84739e-08
1.75336e-05
1.99592e-08
1.75287e-05
2.10539e-08
1.75282e-05
2.19953e-08
1.75311e-05
2.29416e-08
1.75366e-05
2.39874e-08
1.7544e-05
2.51795e-08
1.75527e-05
2.653e-08
1.75624e-05
2.80282e-08
1.75727e-05
2.96484e-08
1.75836e-05
3.13542e-08
1.7595e-05
3.31046e-08
1.76067e-05
3.48535e-08
3.65565e-08
1.76188e-05
1.78181e-05
1.10005e-08
1.77994e-05
2.72133e-08
1.77768e-05
3.56251e-08
1.7756e-05
3.70597e-08
1.77402e-05
3.43275e-08
1.77302e-05
2.9948e-08
1.77257e-05
2.55016e-08
1.7726e-05
2.17799e-08
1.77298e-05
1.90768e-08
1.77364e-05
1.74022e-08
1.77449e-05
1.66345e-08
1.77549e-05
1.66057e-08
1.77658e-05
1.71434e-08
1.77773e-05
1.80913e-08
1.77894e-05
1.93164e-08
1.78017e-05
2.07057e-08
1.78144e-05
2.21696e-08
2.36322e-08
1.78274e-05
1.58702e-05
2.21336e-08
1.58478e-05
4.9582e-08
1.58233e-05
6.01332e-08
1.58032e-05
5.72357e-08
1.57899e-05
4.76119e-08
1.57834e-05
3.63731e-08
1.57827e-05
2.61997e-08
1.57864e-05
1.81484e-08
1.57931e-05
1.23676e-08
1.58019e-05
8.61461e-09
1.5812e-05
6.49966e-09
1.5823e-05
5.63138e-09
1.58345e-05
5.66762e-09
1.58462e-05
6.33109e-09
1.58581e-05
7.4023e-09
1.58701e-05
8.71755e-09
1.58821e-05
1.01485e-08
1.16062e-08
1.58942e-05
1.41313e-05
3.95388e-08
1.41021e-05
7.87074e-08
1.40745e-05
8.77885e-08
1.40557e-05
7.60395e-08
1.40469e-05
5.64148e-08
1.40462e-05
3.70418e-08
1.40512e-05
2.12127e-08
1.40597e-05
9.58539e-09
1.40704e-05
1.76577e-09
1.4082e-05
-3.04551e-09
1.40941e-05
-5.60106e-09
1.41063e-05
-6.55669e-09
1.41184e-05
-6.41203e-09
1.41303e-05
-5.55654e-09
1.41419e-05
-4.26005e-09
1.41534e-05
-2.72107e-09
1.41646e-05
-1.07717e-09
5.7429e-10
1.41756e-05
1.25772e-05
6.73556e-08
1.25392e-05
1.1674e-07
1.25091e-05
1.17889e-07
1.24942e-05
9.08919e-08
1.24928e-05
5.78154e-08
1.25002e-05
2.96853e-08
1.25122e-05
9.13469e-09
1.25264e-05
-4.49206e-09
1.25409e-05
-1.28306e-08
1.25552e-05
-1.73424e-08
1.25689e-05
-1.92773e-08
1.25819e-05
-1.94948e-08
1.25941e-05
-1.86492e-08
1.26057e-05
-1.71547e-08
1.26167e-05
-1.53117e-08
1.26273e-05
-1.331e-08
1.26375e-05
-1.12728e-08
-9.29136e-09
1.26473e-05
1.11862e-05
1.10916e-07
1.11384e-05
1.6457e-07
1.11088e-05
1.47521e-07
1.11022e-05
9.74856e-08
1.11117e-05
4.83146e-08
1.11289e-05
1.24046e-08
1.11486e-05
-1.04567e-08
1.11678e-05
-2.37208e-08
1.11855e-05
-3.04997e-08
1.12014e-05
-3.32815e-08
1.12157e-05
-3.35474e-08
1.12285e-05
-3.2348e-08
1.12402e-05
-3.02968e-08
1.12508e-05
-2.78573e-08
1.12608e-05
-2.52711e-08
1.12701e-05
-2.267e-08
1.1279e-05
-2.01585e-08
-1.77791e-08
1.12875e-05
9.93908e-06
1.76452e-07
9.88248e-06
2.21163e-07
9.85873e-06
1.71263e-07
9.86594e-06
9.02764e-08
9.88961e-06
2.46405e-08
9.9176e-06
-1.55524e-08
9.94392e-06
-3.67894e-08
9.96668e-06
-4.64013e-08
9.98571e-06
-4.95997e-08
1.00017e-05
-4.92762e-08
1.00152e-05
-4.71121e-08
1.00269e-05
-4.3993e-08
1.00371e-05
-4.05202e-08
1.00462e-05
-3.70116e-08
1.00546e-05
-3.36388e-08
1.00623e-05
-3.04374e-08
1.00696e-05
-2.74392e-08
-2.47039e-08
1.00765e-05
8.81963e-06
2.69916e-07
8.75785e-06
2.82944e-07
8.74788e-06
1.81226e-07
8.77481e-06
6.33237e-08
8.81458e-06
-1.51275e-08
8.85212e-06
-5.30887e-08
8.88269e-06
-6.72235e-08
8.90623e-06
-7.00173e-08
8.92427e-06
-6.76043e-08
8.93842e-06
-6.33567e-08
8.94983e-06
-5.83927e-08
8.95924e-06
-5.33282e-08
8.96721e-06
-4.84644e-08
8.97418e-06
-4.40011e-08
8.98049e-06
-3.99921e-08
8.98631e-06
-3.62915e-08
8.99173e-06
-3.29029e-08
-2.9884e-08
8.99689e-06
7.81391e-06
3.96675e-07
7.75391e-06
3.42943e-07
7.76868e-06
1.6644e-07
7.82054e-06
1.14616e-08
7.87567e-06
-7.02729e-08
7.91913e-06
-9.64886e-08
7.94967e-06
-9.78312e-08
7.97058e-06
-9.06413e-08
7.98484e-06
-8.15742e-08
7.99524e-06
-7.35362e-08
8.00315e-06
-6.60933e-08
8.00936e-06
-5.9433e-08
8.01442e-06
-5.33069e-08
8.01874e-06
-4.81898e-08
8.02269e-06
-4.38834e-08
8.02632e-06
-3.99569e-08
8.02968e-06
-3.63304e-08
-3.31853e-08
8.03294e-06
6.90424e-06
5.66768e-07
6.86137e-06
3.85805e-07
6.91717e-06
1.10634e-07
6.99674e-06
-6.81328e-08
7.06253e-06
-1.3607e-07
7.10529e-06
-1.39267e-07
7.13032e-06
-1.22545e-07
7.14448e-06
-1.04613e-07
7.15208e-06
-8.89724e-08
7.15709e-06
-7.57914e-08
7.16036e-06
-6.66406e-08
7.16269e-06
-5.96163e-08
7.16412e-06
-5.41346e-08
7.16535e-06
-4.91625e-08
7.16661e-06
-4.52171e-08
7.16779e-06
-4.16574e-08
7.1689e-06
-3.77813e-08
-3.45916e-08
7.17008e-06
6.07162e-06
7.97662e-07
6.08526e-06
3.72164e-07
6.19865e-06
-2.77341e-09
6.2999e-06
-1.69398e-07
6.36526e-06
-2.01462e-07
6.39754e-06
-1.71503e-07
6.41011e-06
-1.35218e-07
6.41343e-06
-1.0694e-07
6.41239e-06
-8.57917e-08
6.40989e-06
-7.40037e-08
6.40746e-06
-6.45061e-08
6.40486e-06
-5.76773e-08
6.40233e-06
-5.11086e-08
6.39997e-06
-4.64792e-08
6.39809e-06
-4.37483e-08
6.39675e-06
-4.01978e-08
6.39519e-06
-3.64271e-08
-3.3676e-08
6.39398e-06
5.35805e-06
1.05451e-06
5.50649e-06
2.23716e-07
5.64777e-06
-1.44085e-07
5.73564e-06
-2.57314e-07
5.77646e-06
-2.42347e-07
5.78324e-06
-1.78425e-07
5.77528e-06
-1.26643e-07
5.76328e-06
-9.40039e-08
5.74976e-06
-7.56488e-08
5.73931e-06
-6.40066e-08
5.73029e-06
-5.64976e-08
5.72239e-06
-4.99997e-08
5.71428e-06
-4.41843e-08
5.70724e-06
-3.97294e-08
5.70186e-06
-3.78028e-08
5.69676e-06
-3.53753e-08
5.69187e-06
-3.14548e-08
-2.94012e-08
5.68773e-06
5.04576e-06
1.01105e-06
5.36491e-06
-9.54496e-08
5.35251e-06
-1.31766e-07
5.33285e-06
-2.37744e-07
5.29601e-06
-2.05651e-07
5.25016e-06
-1.32589e-07
5.20891e-06
-8.47329e-08
5.17485e-06
-6.08214e-08
5.14635e-06
-4.98244e-08
5.12483e-06
-4.29549e-08
5.10676e-06
-3.93137e-08
5.09058e-06
-3.55917e-08
5.07486e-06
-3.02736e-08
5.06152e-06
-2.66409e-08
5.05064e-06
-2.70209e-08
5.03975e-06
-2.44508e-08
5.02918e-06
-2.04285e-08
-2.1969e-08
5.02209e-06
5.4676e-06
5.37215e-06
5.24037e-06
5.00261e-06
4.79695e-06
4.66444e-06
4.57967e-06
4.51835e-06
4.46847e-06
4.42535e-06
4.38573e-06
4.3497e-06
4.31932e-06
4.29268e-06
4.26565e-06
4.24131e-06
4.22101e-06
4.19919e-06
2.31276e-08
-2.31265e-08
2.37203e-07
-2.14077e-07
4.89327e-07
-2.52093e-07
7.09593e-07
-2.20244e-07
8.77307e-07
-1.67696e-07
9.88436e-07
-1.11119e-07
1.0441e-06
-5.56512e-08
1.04652e-06
-2.42101e-09
1.00101e-06
4.55135e-08
9.17736e-07
8.32681e-08
8.11934e-07
1.0581e-07
7.02744e-07
1.09175e-07
6.09961e-07
9.27792e-08
5.43673e-07
6.62968e-08
4.92531e-07
5.11616e-08
4.33351e-07
5.98821e-08
3.47045e-07
8.61701e-08
2.21942e-07
1.25875e-07
4.3634e-08
1.77892e-07
-2.01835e-07
2.44839e-07
-5.04375e-07
3.02283e-07
-8.45367e-07
3.4074e-07
-1.20971e-06
3.64348e-07
-1.5871e-06
3.77406e-07
-1.9687e-06
3.8164e-07
-2.34453e-06
3.7585e-07
-2.70656e-06
3.62056e-07
-3.04964e-06
3.43086e-07
-3.36993e-06
3.20303e-07
-3.6651e-06
2.95175e-07
-3.93428e-06
2.69191e-07
-4.17781e-06
2.43525e-07
-4.39669e-06
2.18884e-07
-4.59241e-06
1.95722e-07
-4.76667e-06
1.74267e-07
-4.92127e-06
1.54601e-07
-5.05796e-06
1.36685e-07
-5.17836e-06
1.20401e-07
-5.28395e-06
1.05589e-07
-5.37602e-06
9.2068e-08
-5.45567e-06
7.96567e-08
-5.52385e-06
6.81824e-08
-5.58134e-06
5.74899e-08
-5.62879e-06
4.74451e-08
-5.66673e-06
3.7939e-08
-5.69561e-06
2.88845e-08
-5.71582e-06
2.021e-08
-5.72771e-06
1.18859e-08
-5.73175e-06
4.03995e-09
-5.72881e-06
-2.93959e-09
-5.71997e-06
-8.83805e-09
-5.70601e-06
-1.39647e-08
-5.68732e-06
-1.8681e-08
-5.66418e-06
-2.31484e-08
-5.63673e-06
-2.74449e-08
-5.60513e-06
-3.15987e-08
-5.56951e-06
-3.56244e-08
-5.52998e-06
-3.95291e-08
-5.48666e-06
-4.33136e-08
-5.43969e-06
-4.6977e-08
-5.38917e-06
-5.05166e-08
-5.33524e-06
-5.3929e-08
-5.27803e-06
-5.72108e-08
-5.21767e-06
-6.03587e-08
-5.1543e-06
-6.33702e-08
-5.08806e-06
-6.62422e-08
-5.01909e-06
-6.89712e-08
-4.94753e-06
-7.15551e-08
-4.87354e-06
-7.3992e-08
-4.79726e-06
-7.62808e-08
-4.71884e-06
-7.84208e-08
-4.63842e-06
-8.04116e-08
-4.55617e-06
-8.22534e-08
-4.47222e-06
-8.39471e-08
-4.38673e-06
-8.54936e-08
-4.29983e-06
-8.68948e-08
-4.21168e-06
-8.81528e-08
-4.12241e-06
-8.92701e-08
-4.03216e-06
-9.02496e-08
-3.94107e-06
-9.10949e-08
-3.84926e-06
-9.18099e-08
-3.75686e-06
-9.23989e-08
-3.66399e-06
-9.28667e-08
-3.57077e-06
-9.32191e-08
-3.47731e-06
-9.34622e-08
-3.3837e-06
-9.36032e-08
-3.29005e-06
-9.36507e-08
-3.19644e-06
-9.36151e-08
-3.10293e-06
-9.35094e-08
-3.00958e-06
-9.33492e-08
-2.91642e-06
-9.31552e-08
-2.82347e-06
-9.29526e-08
-2.73071e-06
-9.27595e-08
-2.63815e-06
-9.25557e-08
-2.54589e-06
-9.22561e-08
-2.45413e-06
-9.17594e-08
-2.36315e-06
-9.09801e-08
-2.27322e-06
-8.99354e-08
-2.18443e-06
-8.87822e-08
-2.0968e-06
-8.76274e-08
-2.01033e-06
-8.64714e-08
-1.92503e-06
-8.5298e-08
-1.84093e-06
-8.41e-08
-1.75806e-06
-8.28766e-08
-1.67642e-06
-8.16301e-08
-1.59606e-06
-8.03643e-08
-1.51698e-06
-7.90832e-08
-1.43919e-06
-7.77892e-08
-1.3627e-06
-7.64805e-08
-1.28757e-06
-7.51363e-08
-1.2138e-06
-7.37686e-08
-1.14139e-06
-7.24051e-08
-1.07035e-06
-7.10409e-08
-1.00068e-06
-6.96772e-08
-9.3236e-07
-6.83149e-08
-8.65405e-07
-6.69556e-08
-7.99803e-07
-6.56016e-08
-7.35548e-07
-6.42554e-08
-6.7263e-07
-6.2919e-08
-6.11038e-07
-6.15919e-08
-5.50764e-07
-6.02747e-08
-4.91795e-07
-5.89701e-08
-4.34111e-07
-5.76843e-08
-3.77689e-07
-5.64228e-08
-3.22508e-07
-5.51814e-08
-2.68552e-07
-5.39569e-08
-2.158e-07
-5.27531e-08
-1.64232e-07
-5.15693e-08
-1.13839e-07
-5.03934e-08
-6.46148e-08
-4.92256e-08
-1.668e-08
-4.79358e-08
3.00966e-08
-4.67776e-08
7.6022e-08
-4.59264e-08
1.2099e-07
-4.49694e-08
1.64899e-07
-4.39094e-08
2.07743e-07
-4.28457e-08
2.49542e-07
-4.17991e-08
2.90323e-07
-4.07823e-08
3.3012e-07
-3.97975e-08
3.68962e-07
-3.8843e-08
4.06878e-07
-3.79171e-08
4.43895e-07
-3.70184e-08
4.8004e-07
-3.61458e-08
5.15338e-07
-3.52984e-08
5.49814e-07
-3.44759e-08
5.83491e-07
-3.36779e-08
6.16395e-07
-3.29042e-08
6.4855e-07
-3.21546e-08
6.79979e-07
-3.1429e-08
7.10707e-07
-3.07275e-08
7.40757e-07
-3.00499e-08
7.70153e-07
-2.93965e-08
7.9892e-07
-2.8767e-08
8.27082e-07
-2.81617e-08
8.54662e-07
-2.75804e-08
8.81685e-07
-2.70232e-08
9.08174e-07
-2.64898e-08
9.34154e-07
-2.59801e-08
9.59647e-07
-2.54935e-08
9.84675e-07
-2.50292e-08
1.00926e-06
-2.4586e-08
1.03342e-06
-2.41618e-08
1.05717e-06
-2.37541e-08
1.08053e-06
-2.33587e-08
1.1035e-06
-2.29698e-08
1.12608e-06
-2.25794e-08
1.14825e-06
-2.21761e-08
1.16999e-06
-2.17441e-08
1.19125e-06
-2.12613e-08
1.21195e-06
-2.06965e-08
1.23195e-06
-2.00057e-08
1.25108e-06
-1.91248e-08
1.26903e-06
-1.79567e-08
1.28539e-06
-1.63569e-08
1.29944e-06
-1.40503e-08
1.31006e-06
-1.06265e-08
1.31463e-06
-4.56229e-09
1.30778e-06
6.85282e-09
1.27824e-06
2.95336e-08
7.23269e-08
1.20591e-06
2.54185e-07
-2.77332e-07
4.90087e-07
-4.49975e-07
6.39673e-07
-4.01675e-07
7.24306e-07
-3.04875e-07
7.6382e-07
-2.07201e-07
7.69766e-07
-1.17068e-07
7.48833e-07
-3.47128e-08
7.06649e-07
3.97543e-08
6.46287e-07
1.0588e-07
5.67657e-07
1.61887e-07
4.70041e-07
2.03433e-07
3.51769e-07
2.27435e-07
2.06804e-07
2.3775e-07
2.3603e-08
2.49513e-07
-2.08617e-07
2.83389e-07
-4.94263e-07
3.45622e-07
-8.32227e-07
4.24223e-07
-1.21209e-06
5.05751e-07
-1.6159e-06
5.81668e-07
-2.01735e-06
6.46225e-07
-2.40737e-06
6.92256e-07
-2.78284e-06
7.16203e-07
-3.13779e-06
7.1929e-07
-3.46521e-06
7.04833e-07
-3.75996e-06
6.76405e-07
-4.02111e-06
6.36997e-07
-4.24904e-06
5.89999e-07
-4.44506e-06
5.39103e-07
-4.61205e-06
4.87299e-07
-4.75353e-06
4.36661e-07
-4.87288e-06
3.88537e-07
-4.97325e-06
3.43901e-07
-5.05753e-06
3.03168e-07
-5.12823e-06
2.66424e-07
-5.18747e-06
2.33506e-07
-5.23698e-06
2.04112e-07
-5.27817e-06
1.77872e-07
-5.31216e-06
1.54395e-07
-5.33987e-06
1.33298e-07
-5.36203e-06
1.14231e-07
-5.37926e-06
9.68824e-08
-5.39206e-06
8.09859e-08
-5.40089e-06
6.63199e-08
-5.40615e-06
5.27026e-08
-5.4082e-06
3.99872e-08
-5.40737e-06
2.80588e-08
-5.404e-06
1.68395e-08
-5.39841e-06
6.29459e-09
-5.39075e-06
-3.61995e-09
-5.3806e-06
-1.30939e-08
-5.36707e-06
-2.23673e-08
-5.34956e-06
-3.14694e-08
-5.32791e-06
-4.03345e-08
-5.3021e-06
-4.89589e-08
-5.27219e-06
-5.73495e-08
-5.23828e-06
-6.55125e-08
-5.20045e-06
-7.34507e-08
-5.15882e-06
-8.11635e-08
-5.11349e-06
-8.86477e-08
-5.06456e-06
-9.58977e-08
-5.01217e-06
-1.02907e-07
-4.95644e-06
-1.09667e-07
-4.89748e-06
-1.1617e-07
-4.83542e-06
-1.22411e-07
-4.77041e-06
-1.28383e-07
-4.70257e-06
-1.3408e-07
-4.63205e-06
-1.39496e-07
-4.55898e-06
-1.44624e-07
-4.48351e-06
-1.49462e-07
-4.40578e-06
-1.54009e-07
-4.32594e-06
-1.58261e-07
-4.24413e-06
-1.62218e-07
-4.1605e-06
-1.65882e-07
-4.0752e-06
-1.69253e-07
-3.98836e-06
-1.72333e-07
-3.90013e-06
-1.75126e-07
-3.81064e-06
-1.77636e-07
-3.72005e-06
-1.79868e-07
-3.62847e-06
-1.81829e-07
-3.53604e-06
-1.83524e-07
-3.44289e-06
-1.84962e-07
-3.34913e-06
-1.8615e-07
-3.2549e-06
-1.87099e-07
-3.1603e-06
-1.87817e-07
-3.06545e-06
-1.88317e-07
-2.97044e-06
-1.88608e-07
-2.87539e-06
-1.88704e-07
-2.78039e-06
-1.88617e-07
-2.68554e-06
-1.8836e-07
-2.59094e-06
-1.87946e-07
-2.49671e-06
-1.87386e-07
-2.40297e-06
-1.86688e-07
-2.30988e-06
-1.85847e-07
-2.2176e-06
-1.84835e-07
-2.12625e-06
-1.83607e-07
-2.03588e-06
-1.82135e-07
-1.94644e-06
-1.80415e-07
-1.85789e-06
-1.78487e-07
-1.77024e-06
-1.76429e-07
-1.68357e-06
-1.74294e-07
-1.59795e-06
-1.72095e-07
-1.51341e-06
-1.69835e-07
-1.43e-06
-1.67513e-07
-1.34774e-06
-1.65134e-07
-1.26666e-06
-1.62704e-07
-1.1868e-06
-1.60227e-07
-1.10818e-06
-1.57709e-07
-1.03081e-06
-1.55154e-07
-9.54726e-07
-1.52564e-07
-8.79924e-07
-1.49938e-07
-8.06401e-07
-1.47291e-07
-7.34172e-07
-1.44634e-07
-6.63239e-07
-1.41973e-07
-5.93605e-07
-1.39311e-07
-5.25269e-07
-1.36651e-07
-4.58229e-07
-1.33995e-07
-3.92483e-07
-1.31348e-07
-3.28024e-07
-1.28714e-07
-2.64842e-07
-1.26101e-07
-2.02928e-07
-1.23507e-07
-1.42271e-07
-1.20931e-07
-8.2862e-08
-1.1838e-07
-2.46926e-08
-1.15854e-07
3.22505e-08
-1.13366e-07
8.79954e-08
-1.10927e-07
1.42559e-07
-1.08521e-07
1.95953e-07
-1.06147e-07
2.48191e-07
-1.03808e-07
2.99301e-07
-1.01504e-07
3.49312e-07
-9.92368e-08
3.98381e-07
-9.70061e-08
4.46485e-07
-9.4881e-08
4.93404e-07
-9.28464e-08
5.39208e-07
-9.07734e-08
5.83973e-07
-8.86753e-08
6.27732e-07
-8.66048e-08
6.70514e-07
-8.45812e-08
7.12342e-07
-8.26113e-08
7.53241e-07
-8.06963e-08
7.93233e-07
-7.88352e-08
8.32341e-07
-7.70262e-08
8.7059e-07
-7.52678e-08
9.08003e-07
-7.35587e-08
9.44602e-07
-7.1898e-08
9.80411e-07
-7.02852e-08
1.01545e-06
-6.87198e-08
1.04975e-06
-6.72015e-08
1.08333e-06
-6.57301e-08
1.1162e-06
-6.43056e-08
1.1484e-06
-6.29279e-08
1.17995e-06
-6.15969e-08
1.21087e-06
-6.03129e-08
1.24117e-06
-5.90756e-08
1.2709e-06
-5.78852e-08
1.30006e-06
-5.67415e-08
1.32868e-06
-5.56444e-08
1.35678e-06
-5.45934e-08
1.38439e-06
-5.35879e-08
1.41152e-06
-5.26266e-08
1.4382e-06
-5.17078e-08
1.46444e-06
-5.08289e-08
1.49027e-06
-4.9986e-08
1.51568e-06
-4.91734e-08
1.54071e-06
-4.83834e-08
1.56534e-06
-4.76048e-08
1.58958e-06
-4.68224e-08
1.61342e-06
-4.60147e-08
1.63683e-06
-4.51523e-08
1.65976e-06
-4.4194e-08
1.68214e-06
-4.30824e-08
1.70387e-06
-4.17358e-08
1.72478e-06
-4.0036e-08
1.74463e-06
-3.78065e-08
1.76305e-06
-3.47778e-08
1.77949e-06
-3.04891e-08
1.79305e-06
-2.4188e-08
1.80277e-06
-1.42808e-08
1.80764e-06
1.99028e-09
1.80576e-06
3.14171e-08
8.80257e-08
1.79005e-06
2.46011e-07
-5.23364e-07
3.42328e-07
-5.46295e-07
3.58616e-07
-4.17961e-07
3.47572e-07
-2.93821e-07
3.19869e-07
-1.79493e-07
2.75785e-07
-7.29843e-08
2.14608e-07
2.64668e-08
1.35286e-07
1.19071e-07
3.67598e-08
2.04407e-07
-8.31353e-08
2.81778e-07
-2.30104e-07
3.50401e-07
-4.14666e-07
4.11997e-07
-6.50232e-07
4.73313e-07
-9.43722e-07
5.43007e-07
-1.28498e-06
6.2464e-07
-1.65207e-06
7.12722e-07
-2.02418e-06
7.96327e-07
-2.38444e-06
8.65994e-07
-2.71895e-06
9.16162e-07
-3.01716e-06
9.44433e-07
-3.27523e-06
9.5032e-07
-3.49412e-06
9.35101e-07
-3.67683e-06
9.01999e-07
-3.82739e-06
8.55397e-07
-3.95052e-06
7.99546e-07
-4.05166e-06
7.38131e-07
-4.13611e-06
6.74452e-07
-4.20827e-06
6.11269e-07
-4.27159e-06
5.50614e-07
-4.32867e-06
4.9374e-07
-4.38138e-06
4.41254e-07
-4.43087e-06
3.93391e-07
-4.47777e-06
3.50066e-07
-4.52234e-06
3.10998e-07
-4.56463e-06
2.75796e-07
-4.60454e-06
2.44021e-07
-4.6419e-06
2.15234e-07
-4.67653e-06
1.89018e-07
-4.70823e-06
1.64997e-07
-4.73683e-06
1.4284e-07
-4.76222e-06
1.22264e-07
-4.78426e-06
1.03031e-07
-4.80288e-06
8.49437e-08
-4.81802e-06
6.78366e-08
-4.8296e-06
5.15699e-08
-4.83757e-06
3.60245e-08
-4.84182e-06
2.10985e-08
-4.84223e-06
6.69817e-09
-4.83857e-06
-7.28328e-09
-4.8307e-06
-2.09601e-08
-4.81867e-06
-3.43919e-08
-4.80258e-06
-4.75664e-08
-4.78245e-06
-6.04612e-08
-4.75834e-06
-7.3068e-08
-4.73031e-06
-8.53803e-08
-4.69843e-06
-9.73923e-08
-4.66278e-06
-1.09097e-07
-4.62346e-06
-1.20486e-07
-4.58056e-06
-1.31549e-07
-4.53418e-06
-1.42275e-07
-4.48444e-06
-1.5265e-07
-4.43144e-06
-1.62663e-07
-4.37531e-06
-1.723e-07
-4.31617e-06
-1.8155e-07
-4.25415e-06
-1.90405e-07
-4.18938e-06
-1.98855e-07
-4.12198e-06
-2.06889e-07
-4.05211e-06
-2.145e-07
-3.97989e-06
-2.21683e-07
-3.90546e-06
-2.28434e-07
-3.82897e-06
-2.34749e-07
-3.75056e-06
-2.40629e-07
-3.67037e-06
-2.46073e-07
-3.58854e-06
-2.51083e-07
-3.50521e-06
-2.55663e-07
-3.42052e-06
-2.59816e-07
-3.3346e-06
-2.63549e-07
-3.2476e-06
-2.6687e-07
-3.15964e-06
-2.69786e-07
-3.07086e-06
-2.72307e-07
-2.98138e-06
-2.74444e-07
-2.89132e-06
-2.76208e-07
-2.80081e-06
-2.77612e-07
-2.70996e-06
-2.78669e-07
-2.61888e-06
-2.79393e-07
-2.52769e-06
-2.79799e-07
-2.43649e-06
-2.79902e-07
-2.34539e-06
-2.79717e-07
-2.25449e-06
-2.79259e-07
-2.1639e-06
-2.78539e-07
-2.07371e-06
-2.77569e-07
-1.98404e-06
-2.76357e-07
-1.89499e-06
-2.749e-07
-1.80664e-06
-2.73186e-07
-1.71905e-06
-2.712e-07
-1.63224e-06
-2.68938e-07
-1.54624e-06
-2.66419e-07
-1.46105e-06
-2.63677e-07
-1.37672e-06
-2.60757e-07
-1.29332e-06
-2.57697e-07
-1.2109e-06
-2.54514e-07
-1.12951e-06
-2.51221e-07
-1.0492e-06
-2.47829e-07
-9.69983e-07
-2.44346e-07
-8.91904e-07
-2.40782e-07
-8.14985e-07
-2.37146e-07
-7.39248e-07
-2.33445e-07
-6.64714e-07
-2.29688e-07
-5.91395e-07
-2.25882e-07
-5.19299e-07
-2.22034e-07
-4.48434e-07
-2.18156e-07
-3.78809e-07
-2.14259e-07
-3.1043e-07
-2.10351e-07
-2.43301e-07
-2.06441e-07
-1.7742e-07
-2.02532e-07
-1.12786e-07
-1.98629e-07
-4.93953e-08
-1.94739e-07
1.27587e-08
-1.90868e-07
7.36802e-08
-1.87022e-07
1.33377e-07
-1.83204e-07
1.91862e-07
-1.79417e-07
2.49149e-07
-1.75666e-07
3.05251e-07
-1.71957e-07
3.60182e-07
-1.68297e-07
4.13946e-07
-1.64691e-07
4.66561e-07
-1.61136e-07
5.18045e-07
-1.57631e-07
5.68418e-07
-1.54181e-07
6.17703e-07
-1.50789e-07
6.65928e-07
-1.47462e-07
7.13137e-07
-1.44215e-07
7.59312e-07
-1.41056e-07
8.04419e-07
-1.37954e-07
8.48507e-07
-1.34861e-07
8.9162e-07
-1.31789e-07
9.33781e-07
-1.28766e-07
9.75009e-07
-1.2581e-07
1.01532e-06
-1.22925e-07
1.05474e-06
-1.20115e-07
1.09329e-06
-1.17379e-07
1.13098e-06
-1.14717e-07
1.16784e-06
-1.12127e-07
1.20388e-06
-1.09608e-07
1.23915e-06
-1.0716e-07
1.27364e-06
-1.04781e-07
1.3074e-06
-1.02472e-07
1.34043e-06
-1.00233e-07
1.37276e-06
-9.80618e-08
1.40441e-06
-9.59599e-08
1.43541e-06
-9.39268e-08
1.46578e-06
-9.19625e-08
1.49553e-06
-9.00671e-08
1.5247e-06
-8.82405e-08
1.55329e-06
-8.64828e-08
1.58135e-06
-8.47937e-08
1.60888e-06
-8.3173e-08
1.6359e-06
-8.162e-08
1.66245e-06
-8.01337e-08
1.68853e-06
-7.87123e-08
1.71418e-06
-7.73532e-08
1.7394e-06
-7.60525e-08
1.76422e-06
-7.48047e-08
1.78865e-06
-7.36018e-08
1.8127e-06
-7.24325e-08
1.83637e-06
-7.12813e-08
1.85968e-06
-7.01265e-08
1.8826e-06
-6.8938e-08
1.90512e-06
-6.76747e-08
1.9272e-06
-6.62792e-08
1.94879e-06
-6.46713e-08
1.96979e-06
-6.27379e-08
1.99007e-06
-6.03161e-08
2.00943e-06
-5.71654e-08
2.02758e-06
-5.29224e-08
2.04408e-06
-4.69965e-08
2.05834e-06
-3.84478e-08
2.06958e-06
-2.55167e-08
2.07692e-06
-5.35932e-09
2.08083e-06
2.75128e-08
8.5484e-08
2.08337e-06
9.37371e-08
-6.1711e-07
6.23943e-08
-5.14964e-07
1.39108e-08
-3.69469e-07
-4.31805e-08
-2.36722e-07
-1.12678e-07
-1.09989e-07
-1.98051e-07
1.23923e-08
-3.02282e-07
1.307e-07
-4.27789e-07
2.44577e-07
-5.77147e-07
3.53764e-07
-7.5374e-07
4.58371e-07
-9.62325e-07
5.58983e-07
-1.20722e-06
6.5689e-07
-1.48721e-06
7.53299e-07
-1.7915e-06
8.47292e-07
-2.10138e-06
9.34518e-07
-2.39724e-06
1.00857e-06
-2.66458e-06
1.06365e-06
-2.89512e-06
1.09653e-06
-3.08562e-06
1.10665e-06
-3.23688e-06
1.09569e-06
-3.35326e-06
1.0667e-06
-3.44129e-06
1.02315e-06
-3.50811e-06
9.6882e-07
-3.56022e-06
9.07517e-07
-3.60312e-06
8.42448e-07
-3.64124e-06
7.76247e-07
-3.67781e-06
7.11027e-07
-3.71488e-06
6.48336e-07
-3.75344e-06
5.89176e-07
-3.79377e-06
5.34069e-07
-3.83568e-06
4.83167e-07
-3.87868e-06
4.36393e-07
-3.92213e-06
3.93513e-07
-3.96534e-06
3.54207e-07
-4.00766e-06
3.18112e-07
-4.04849e-06
2.84857e-07
-4.08734e-06
2.54087e-07
-4.12379e-06
2.25468e-07
-4.1575e-06
1.98703e-07
-4.18818e-06
1.73525e-07
-4.21563e-06
1.49707e-07
-4.23965e-06
1.27052e-07
-4.2601e-06
1.05393e-07
-4.27685e-06
8.45888e-08
-4.2898e-06
6.452e-08
-4.29886e-06
4.50848e-08
-4.30396e-06
2.61971e-08
-4.30504e-06
7.78002e-09
-4.30208e-06
-1.02401e-08
-4.29512e-06
-2.79244e-08
-4.28421e-06
-4.53009e-08
-4.26941e-06
-6.23663e-08
-4.25076e-06
-7.9108e-08
-4.22832e-06
-9.55133e-08
-4.20213e-06
-1.11569e-07
-4.17226e-06
-1.2726e-07
-4.13879e-06
-1.42571e-07
-4.10179e-06
-1.57486e-07
-4.06135e-06
-1.71987e-07
-4.01757e-06
-1.86055e-07
-3.97055e-06
-1.99673e-07
-3.92039e-06
-2.12822e-07
-3.8672e-06
-2.25483e-07
-3.81112e-06
-2.37639e-07
-3.75224e-06
-2.49279e-07
-3.69071e-06
-2.6039e-07
-3.62664e-06
-2.70957e-07
-3.56017e-06
-2.80971e-07
-3.49143e-06
-2.90423e-07
-3.42055e-06
-2.99309e-07
-3.34768e-06
-3.07625e-07
-3.27294e-06
-3.15368e-07
-3.19647e-06
-3.22538e-07
-3.11842e-06
-3.29139e-07
-3.03891e-06
-3.35173e-07
-2.95808e-06
-3.40646e-07
-2.87606e-06
-3.45567e-07
-2.79299e-06
-3.49943e-07
-2.70898e-06
-3.53787e-07
-2.62418e-06
-3.57109e-07
-2.5387e-06
-3.59924e-07
-2.45266e-06
-3.62245e-07
-2.36619e-06
-3.64089e-07
-2.27938e-06
-3.65471e-07
-2.19237e-06
-3.6641e-07
-2.10524e-06
-3.66923e-07
-2.01812e-06
-3.67027e-07
-1.93109e-06
-3.66741e-07
-1.84427e-06
-3.66082e-07
-1.75774e-06
-3.65066e-07
-1.67161e-06
-3.63705e-07
-1.58595e-06
-3.62013e-07
-1.50086e-06
-3.59994e-07
-1.41639e-06
-3.57651e-07
-1.3326e-06
-3.54986e-07
-1.24953e-06
-3.52009e-07
-1.16721e-06
-3.4874e-07
-1.08568e-06
-3.4521e-07
-1.00498e-06
-3.41454e-07
-9.25175e-07
-3.37503e-07
-8.46309e-07
-3.33379e-07
-7.68428e-07
-3.29102e-07
-6.91569e-07
-3.24687e-07
-6.15767e-07
-3.20148e-07
-5.41049e-07
-3.15499e-07
-4.67442e-07
-3.10753e-07
-3.94967e-07
-3.0592e-07
-3.23643e-07
-3.01012e-07
-2.53482e-07
-2.96042e-07
-1.84495e-07
-2.91021e-07
-1.16691e-07
-2.8596e-07
-5.00787e-08
-2.80871e-07
1.53367e-08
-2.75767e-07
7.95504e-08