/*--------------------------------*- C++ -*----------------------------------*\
| =========                 |                                                 |
| \\      /  F ield         | OpenFOAM: The Open Source CFD Toolbox           |
|  \\    /   O peration     | Version:  v2012                                 |
|   \\  /    A nd           | Website:  www.openfoam.com                      |
|    \\/     M anipulation  |                                                 |
\*---------------------------------------------------------------------------*/
FoamFile
{
    version     2.0;
    format      ascii;
    class       volScalarField;
    location    "500";
    object      p;
}
// * * * * * * * * * * * * * * * * * * * * * * * * * * * * * * * * * * * * * //

dimensions      [0 2 -2 0 0 0 0];


internalField   nonuniform List<scalar> 
12225
(
514.683
55.5348
2.37081
0.289227
-1.89065
-3.36619
-3.80705
-4.00947
-4.21719
-4.36678
-4.40931
-4.40995
-4.41065
-4.44012
-4.49385
-4.56774
-4.72348
-4.93848
-122.172
0.245517
-2.71147
-0.757622
-2.20841
-3.51672
-3.94313
-4.12886
-4.26681
-4.35799
-4.42948
-4.49021
-4.54615
-4.58563
-4.61644
-4.64902
-4.72529
-4.84903
-200.639
-16.1419
-2.33957
-0.350932
-1.89286
-3.23648
-3.76172
-4.01581
-4.18736
-4.30354
-4.39709
-4.46677
-4.51744
-4.54614
-4.56711
-4.58675
-4.62561
-4.62298
-110.61
-10.9677
-2.17039
-0.424768
-1.77993
-3.02047
-3.59132
-3.90276
-4.11561
-4.26037
-4.36403
-4.43454
-4.48232
-4.51151
-4.53151
-4.54187
-4.54436
-4.47929
-61.5667
-8.13953
-3.61595
-1.20291
-2.00761
-2.99016
-3.52017
-3.84408
-4.07142
-4.22744
-4.33602
-4.40997
-4.4601
-4.49113
-4.50778
-4.50674
-4.48188
-4.39211
-45.7248
-8.77908
-5.2523
-2.19344
-2.4226
-3.09327
-3.52857
-3.82919
-4.04943
-4.20504
-4.3152
-4.39178
-4.44352
-4.4743
-4.48656
-4.47655
-4.43661
-4.3413
-35.7887
-9.27044
-6.37423
-3.11809
-2.9149
-3.28267
-3.59688
-3.85085
-4.04975
-4.19681
-4.30409
-4.38016
-4.43146
-4.46107
-4.47026
-4.45579
-4.41131
-4.3229
-27.7723
-8.90138
-6.96791
-3.79666
-3.35539
-3.49209
-3.69468
-3.89669
-4.06885
-4.20288
-4.30395
-4.37718
-4.42704
-4.45581
-4.46422
-4.44978
-4.40807
-4.33194
-21.6844
-8.51449
-7.12884
-4.30486
-3.72315
-3.70034
-3.81129
-3.96164
-4.1041
-4.2219
-4.31419
-4.38288
-4.43049
-4.45847
-4.46718
-4.45496
-4.41923
-4.35692
-16.6073
-8.13534
-7.08274
-4.75009
-4.07793
-3.92933
-3.9549
-4.04987
-4.15786
-4.25534
-4.33588
-4.39816
-4.44268
-4.46996
-4.4801
-4.47232
-4.4457
-4.40013
-12.6337
-7.6757
-6.90099
-5.09671
-4.40197
-4.16582
-4.11807
-4.15878
-4.23019
-4.3046
-4.3711
-4.42546
-4.46629
-4.49322
-4.50615
-4.505
-4.49016
-4.46311
-9.69396
-7.14378
-6.6243
-5.32181
-4.67418
-4.39301
-4.29091
-4.28405
-4.32015
-4.37063
-4.42189
-4.46746
-4.50444
-4.53161
-4.54871
-4.55605
-4.55468
-4.54675
-7.66116
-6.59987
-6.30125
-5.42701
-4.87888
-4.59341
-4.46028
-4.41777
-4.42373
-4.45216
-4.48871
-4.52576
-4.55933
-4.58764
-4.61009
-4.6271
-4.63982
-4.65025
-6.36618
-6.10833
-5.98111
-5.4359
-5.0117
-4.75382
-4.61277
-4.54959
-4.53408
-4.54514
-4.56965
-4.59982
-4.63131
-4.66182
-4.69057
-4.71764
-4.74399
-4.77099
-5.61801
-5.71775
-5.7045
-5.38649
-5.08178
-4.86912
-4.73821
-4.669
-4.64235
-4.64289
-4.65983
-4.68617
-4.71761
-4.7517
-4.78733
-4.82426
-4.86288
-4.90399
-5.23874
-5.4556
-5.50362
-5.32321
-5.11086
-4.94401
-4.83196
-4.76721
-4.73876
-4.73612
-4.75097
-4.77739
-4.81142
-4.85061
-4.89356
-4.93968
-4.98883
-5.04124
-5.0975
-5.33968
-5.41245
-5.29457
-5.1307
-4.99174
-4.89425
-4.8365
-4.81154
-4.81146
-4.82939
-4.86005
-4.89966
-4.94571
-4.99657
-5.0513
-5.10937
-5.17059
-5.13508
-5.39538
-5.46956
-5.34357
-5.16986
-5.02431
-4.92416
-4.86709
-4.84524
-4.85015
-4.87434
-4.91218
-4.95949
-5.01353
-5.07235
-5.13481
-5.20009
-5.26784
-5.38716
-5.6496
-5.68543
-5.47043
-5.22142
-5.03122
-4.91031
-4.84737
-4.82844
-4.84075
-4.87438
-4.92213
-4.97916
-5.04221
-5.10924
-5.17889
-5.25042
-5.32334
-5.99622
-6.13116
-6.03706
-5.62975
-5.24201
-4.98256
-4.83634
-4.77167
-4.76234
-4.7888
-4.83732
-4.89902
-4.96832
-5.04188
-5.11767
-5.19453
-5.27183
-5.34936
-7.24356
-6.88352
-6.48833
-5.75626
-5.17786
-4.84821
-4.69205
-4.64236
-4.65661
-4.70737
-4.77761
-4.85742
-4.94135
-5.02643
-5.11124
-5.19509
-5.27773
-5.35928
-9.63481
-7.95833
-6.97649
-5.76604
-4.97419
-4.6074
-4.47788
-4.47021
-4.52571
-4.61146
-4.70936
-4.81022
-4.90975
-5.00634
-5.09958
-5.18963
-5.27681
-5.3616
-13.9758
-9.38461
-7.39682
-5.56348
-4.58926
-4.25948
-4.21111
-4.27659
-4.38953
-4.51785
-4.64627
-4.76854
-4.88275
-4.98927
-5.08927
-5.18409
-5.27459
-5.36164
-20.8833
-10.9474
-7.54766
-5.05099
-4.01022
-3.83104
-3.92614
-4.09111
-4.27049
-4.44242
-4.59954
-4.74043
-4.86656
-4.98011
-5.08429
-5.18181
-5.27423
-5.36235
-29.7298
-11.9427
-7.02684
-4.11971
-3.25824
-3.37307
-3.66707
-3.94388
-4.18732
-4.39693
-4.57622
-4.73038
-4.86359
-4.98058
-5.08598
-5.1842
-5.27701
-5.36515
-43.0998
-12.6072
-5.46602
-2.72241
-2.40727
-2.9583
-3.48012
-3.85879
-4.15085
-4.38544
-4.5781
-4.73791
-4.87249
-4.98842
-5.09231
-5.18992
-5.28229
-5.36978
-84.5927
-17.3667
-3.65725
-1.25878
-1.68985
-2.71644
-3.43165
-3.86536
-4.16841
-4.40489
-4.60179
-4.76373
-4.89465
-5.00276
-5.09995
-5.19592
-5.28735
-5.373
-177.879
-26.8429
-3.67329
-0.763499
-1.52881
-2.83743
-3.60932
-4.00931
-4.26086
-4.45589
-4.64107
-4.80871
-4.94325
-5.0426
-5.12371
-5.21186
-5.29877
-5.37815
-154.784
-9.62054
-3.26554
-1.06157
-1.83677
-3.21509
-3.90854
-4.21797
-4.40635
-4.545
-4.68859
-4.84457
-4.99527
-5.11261
-5.19492
-5.279
-5.35996
-5.43333
428.064
66.6122
7.06277
1.6061
-0.909279
-2.8511
-3.64666
-3.98787
-4.30442
-4.57383
-4.69827
-4.73682
-4.78622
-4.89276
-5.03369
-5.14297
-5.23476
-5.32683
-8.50607
-8.49327
-8.48334
-8.52547
-8.61849
-8.72143
-8.80022
-8.83891
-8.84144
-8.82315
-8.7955
-8.76699
-8.74562
-8.73718
-8.74234
-8.75465
-8.76529
-8.76995
-8.77155
-8.77683
-8.78845
-8.82178
-8.91312
-9.08817
-9.34398
-9.66396
-10.0369
-10.4518
-10.8931
-11.3447
-11.7916
-12.2222
-12.6272
-13.0002
-13.3369
-13.635
-13.8935
-14.1125
-14.2926
-14.435
-14.5407
-14.6113
-14.648
-14.6522
-14.6252
-14.5684
-14.4833
-14.3724
-14.2368
-14.0741
-13.8818
-13.6614
-13.4156
-13.146
-12.8539
-12.5403
-12.2063
-11.853
-11.4812
-11.0922
-10.6869
-10.2665
-9.83217
-9.38498
-8.92614
-8.45686
-7.97831
-7.49171
-6.99825
-6.49911
-5.99546
-5.48843
-4.97914
-4.46866
-3.95805
-3.44829
-2.94036
-2.43515
-1.93352
-1.43629
-0.944207
-0.457971
0.0217706
0.49443
0.95947
1.41642
1.86484
2.30437
2.73469
3.15555
3.56674
3.9681
4.35944
4.74074
5.11227
5.47401
5.82547
6.16629
6.49647
6.81624
7.12584
7.42547
7.71532
7.99558
8.26642
8.52805
8.78068
9.02452
9.25981
9.48673
9.70551
9.91641
10.1197
10.3155
10.5042
10.686
10.8611
11.0298
11.1923
11.3488
11.4996
11.6448
11.7847
11.9195
12.0494
12.1746
12.2953
12.4116
12.5239
12.6321
12.7365
12.8374
12.9351
13.0296
13.1209
13.209
13.2941
13.3764
13.4559
13.5329
13.6074
13.6796
13.7494
13.8171
13.8827
13.9463
14.008
14.0678
14.1258
14.182
14.2366
14.2896
14.3409
14.3908
14.4391
14.486
14.5314
14.5755
14.6181
14.6594
14.6994
14.738
14.7754
14.8114
14.8462
14.8798
14.9122
14.9434
14.9735
15.0026
15.0309
15.0587
15.0861
15.1138
15.1425
15.1733
15.2088
15.2504
15.3084
15.3689
-8.56412
-8.59557
-8.66987
-8.76344
-8.86637
-8.95773
-9.01794
-9.04122
-9.02291
-8.96121
-8.87078
-8.77413
-8.69343
-8.64335
-8.62202
-8.61918
-8.62934
-8.65639
-8.69583
-8.71719
-8.7395
-8.82023
-8.98687
-9.23135
-9.54188
-9.9159
-10.3435
-10.8042
-11.2767
-11.7434
-12.1921
-12.6134
-13.0013
-13.3518
-13.6635
-13.9359
-14.1696
-14.3655
-14.5248
-14.6488
-14.7384
-14.7949
-14.8193
-14.8123
-14.7749
-14.7076
-14.6109
-14.4847
-14.3297
-14.149
-13.9464
-13.7218
-13.4746
-13.2047
-12.913
-12.6
-12.2668
-11.9142
-11.5433
-11.155
-10.7504
-10.3307
-9.8969
-9.45023
-8.99184
-8.52292
-8.04465
-7.55825
-7.06491
-6.5658
-6.0621
-5.55494
-5.04543
-4.53466
-4.02368
-3.51347
-3.00501
-2.4992
-1.9969
-1.49893
-1.00605
-0.518953
-0.0382964
0.435326
0.901371
1.35935
1.80882
2.24939
2.68071
3.10248
3.51444
3.91635
4.30799
4.68926
5.06024
5.42116
5.77219
6.11338
6.44455
6.76561
7.0766
7.37765
7.66892
7.95057
8.22278
8.48576
8.7397
8.98482
9.22136
9.44954
9.6696
9.88175
10.0862
10.2833
10.4732
10.6561
10.8324
11.0021
11.1657
11.3232
11.475
11.6212
11.7621
11.8979
12.0289
12.1551
12.2769
12.3943
12.5076
12.617
12.7225
12.8241
12.922
13.0165
13.1079
13.1962
13.2815
13.3641
13.4439
13.5212
13.596
13.6685
13.7387
13.8067
13.8726
13.9365
13.9984
14.0585
14.1168
14.1733
14.2282
14.2814
14.333
14.383
14.4316
14.4787
14.5244
14.5686
14.6114
14.6529
14.6931
14.7319
14.7694
14.8056
14.8406
14.8743
14.9068
14.9381
14.9684
14.9976
15.0261
15.0539
15.0815
15.1092
15.138
15.1687
15.2036
15.2432
15.2969
15.3468
-8.69161
-8.77336
-8.89115
-8.99649
-9.07863
-9.1316
-9.15131
-9.13649
-9.08583
-9.00177
-8.89363
-8.77837
-8.67969
-8.61671
-8.58917
-8.58535
-8.60615
-8.6665
-8.77555
-8.92635
-9.11756
-9.35991
-9.65643
-9.99743
-10.3709
-10.7675
-11.1771
-11.588
-11.9897
-12.3752
-12.7399
-13.08
-13.393
-13.6772
-13.9316
-14.1557
-14.3493
-14.5126
-14.6457
-14.749
-14.8228
-14.8675
-14.8836
-14.8715
-14.8316
-14.7643
-14.67
-14.5487
-14.4003
-14.2259
-14.027
-13.8044
-13.5587
-13.2906
-13.0005
-12.6894
-12.3581
-12.0073
-11.6381
-11.2515
-10.8485
-10.4302
-9.99774
-9.55226
-9.09491
-8.62687
-8.14935
-7.66355
-7.17066
-6.67186
-6.16832
-5.66119
-5.15158
-4.64058
-4.12923
-3.61855
-3.10951
-2.60301
-2.09992
-1.60107
-1.10722
-0.61908
-0.137304
0.337506
0.804803
1.26409
1.71494
2.15695
2.5898
3.01318
3.42687
3.83068
4.22444
4.60807
4.98155
5.34489
5.69812
6.04125
6.37424
6.6971
7.0099
7.31276
7.60583
7.88926
8.16325
8.42797
8.68363
8.93045
9.16865
9.39846
9.6201
9.83381
10.0398
10.2384
10.4297
10.614
10.7916
10.9628
11.1276
11.2865
11.4395
11.5869
11.729
11.8659
11.9977
12.1248
12.2474
12.3655
12.4795
12.5895
12.6956
12.7979
12.8968
12.9923
13.0848
13.174
13.2603
13.3437
13.4244
13.5025
13.578
13.6511
13.722
13.7906
13.8571
13.9216
13.9841
14.0447
14.1034
14.1604
14.2157
14.2693
14.3214
14.3718
14.4207
14.4682
14.5142
14.5587
14.6019
14.6437
14.6841
14.7232
14.7609
14.7974
14.8325
14.8665
14.8991
14.9307
14.9611
14.9905
15.019
15.0469
15.0745
15.1022
15.1307
15.1608
15.1944
15.231
15.2784
15.312
-8.72893
-8.826
-8.92704
-9.01334
-9.07739
-9.11657
-9.12841
-9.11031
-9.0624
-8.98988
-8.90426
-8.82252
-8.76282
-8.73772
-8.75183
-8.80727
-8.90807
-9.05806
-9.25787
-9.50165
-9.77987
-10.0856
-10.4133
-10.7566
-11.1103
-11.4691
-11.8276
-12.1808
-12.524
-12.8532
-13.1652
-13.4572
-13.7272
-13.9736
-14.195
-14.3907
-14.56
-14.7026
-14.8181
-14.9067
-14.9682
-15.0029
-15.0107
-14.9918
-14.9463
-14.8745
-14.7766
-14.6529
-14.504
-14.3305
-14.133
-13.912
-13.6679
-13.4014
-13.1131
-12.8037
-12.4739
-12.1248
-11.7571
-11.3719
-10.9702
-10.5531
-10.1217
-9.67702
-9.22036
-8.75287
-8.27575
-7.79017
-7.29735
-6.79846
-6.29468
-5.78715
-5.277
-4.76531
-4.25315
-3.74153
-3.23141
-2.72373
-2.21936
-1.71911
-1.22377
-0.734055
-0.25062
0.225924
0.695024
1.15618
1.60895
2.05293
2.4878
2.91325
3.32906
3.73503
4.13102
4.51694
4.89275
5.2584
5.61389
5.95918
6.29427
6.61922
6.9341
7.23903
7.53415
7.81961
8.0956
8.3623
8.61991
8.86864
9.10872
9.34037
9.56381
9.77926
9.98699
10.1872
10.3802
10.5662
10.7454
10.918
11.0843
11.2445
11.3989
11.5477
11.691
11.8291
11.9622
12.0905
12.2142
12.3334
12.4485
12.5595
12.6666
12.77
12.8699
12.9665
13.0599
13.1501
13.2373
13.3215
13.403
13.4819
13.5582
13.632
13.7036
13.7728
13.84
13.905
13.9681
14.0293
14.0886
14.1461
14.2018
14.2559
14.3084
14.3593
14.4086
14.4564
14.5028
14.5477
14.5912
14.6333
14.674
14.7134
14.7514
14.7881
14.8235
14.8577
14.8905
14.9222
14.9528
14.9823
15.0108
15.0387
15.0661
15.0935
15.1214
15.1503
15.1817
15.2142
15.2536
15.2723
-8.51434
-8.59925
-8.6995
-8.79665
-8.87388
-8.92635
-8.95312
-8.95516
-8.93707
-8.90733
-8.87815
-8.86354
-8.8762
-8.92557
-9.0177
-9.15558
-9.33914
-9.56365
-9.82063
-10.102
-10.4024
-10.7175
-11.0431
-11.3741
-11.7062
-12.0357
-12.3592
-12.6737
-12.9764
-13.2649
-13.5373
-13.7919
-14.0273
-14.2422
-14.4357
-14.6069
-14.7551
-14.8797
-14.9804
-15.0567
-15.1084
-15.1352
-15.1369
-15.1136
-15.0651
-14.9915
-14.8928
-14.7691
-14.6209
-14.4484
-14.2521
-14.0324
-13.7898
-13.5247
-13.2379
-12.93
-12.6017
-12.254
-11.8876
-11.5036
-11.103
-10.6869
-10.2563
-9.8123
-9.35618
-8.88909
-8.41221
-7.92673
-7.43386
-6.93477
-6.43064
-5.92262
-5.41184
-4.8994
-4.38635
-3.87372
-3.36247
-2.85355
-2.34783
-1.84614
-1.34925
-0.857904
-0.372752
0.105587
0.576556
1.03965
1.49442
1.94047
2.37746
2.80509
3.22312
3.63135
4.02963
4.41786
4.79596
5.1639
5.52165
5.86918
6.2065
6.53368
6.85078
7.15792
7.45523
7.74288
8.02102
8.28985
8.54956
8.80037
9.04249
9.27616
9.50158
9.71898
9.9286
10.1307
10.3255
10.5132
10.6941
10.8684
11.0363
11.1981
11.3541
11.5043
11.6491
11.7886
11.9231
12.0528
12.1778
12.2984
12.4147
12.5269
12.6352
12.7398
12.8408
12.9384
13.0327
13.1238
13.2119
13.2971
13.3794
13.4591
13.5362
13.6108
13.6831
13.7531
13.8209
13.8867
13.9504
14.0121
14.072
14.1301
14.1864
14.241
14.294
14.3453
14.3951
14.4434
14.4902
14.5355
14.5794
14.6218
14.6629
14.7026
14.7409
14.7779
14.8136
14.848
14.881
14.9129
14.9435
14.9731
15.0016
15.0294
15.0565
15.0833
15.1102
15.1375
15.1661
15.194
15.2256
15.2318
-8.09283
-8.18151
-8.30284
-8.42584
-8.53122
-8.6117
-8.67017
-8.7126
-8.74677
-8.78253
-8.83087
-8.90199
-9.00383
-9.14106
-9.31574
-9.52672
-9.76927
-10.0378
-10.3269
-10.6309
-10.9444
-11.2626
-11.5816
-11.898
-12.2091
-12.5127
-12.8068
-13.0901
-13.3609
-13.618
-13.8602
-14.0864
-14.2956
-14.4867
-14.6589
-14.8112
-14.9431
-15.0537
-15.1424
-15.2088
-15.2524
-15.2726
-15.2693
-15.2422
-15.191
-15.1155
-15.0159
-14.8921
-14.7441
-14.5724
-14.377
-14.1585
-13.9171
-13.6534
-13.368
-13.0615
-12.7347
-12.3883
-12.0233
-11.6405
-11.241
-10.8259
-10.3962
-9.95294
-9.49741
-9.03078
-8.55419
-8.06886
-7.57598
-7.07673
-6.57229
-6.06382
-5.55245
-5.03927
-4.52536
-4.01174
-3.49939
-2.98924
-2.48219
-1.97907
-1.48065
-0.98768
-0.500821
-0.020692
0.452142
0.917175
1.37395
1.82207
2.26118
2.69099
3.11124
3.52173
3.92231
4.31284
4.69326
5.0635
5.42354
5.77335
6.11296
6.44242
6.7618
7.07122
7.37079
7.66069
7.94108
8.21213
8.47404
8.72701
8.97126
9.207
9.43447
9.65389
9.86549
10.0695
10.2662
10.4558
10.6385
10.8146
10.9843
11.1479
11.3055
11.4573
11.6037
11.7448
11.8808
12.0119
12.1383
12.2603
12.3779
12.4914
12.601
12.7067
12.8089
12.9076
13.003
13.0952
13.1842
13.2704
13.3537
13.4342
13.5122
13.5877
13.6608
13.7316
13.8002
13.8666
13.931
13.9935
14.054
14.1127
14.1696
14.2248
14.2783
14.3302
14.3805
14.4293
14.4765
14.5223
14.5666
14.6094
14.6509
14.691
14.7296
14.7669
14.8029
14.8375
14.8708
14.9028
14.9335
14.9631
14.9916
15.019
15.0457
15.0718
15.0975
15.1228
15.1483
15.1713
15.1957
15.1912
-7.62852
-7.72747
-7.86996
-8.01919
-8.15754
-8.27663
-8.38018
-8.47761
-8.57836
-8.69135
-8.8241
-8.98137
-9.1658
-9.37778
-9.61553
-9.87687
-10.1588
-10.4567
-10.7651
-11.0791
-11.3944
-11.7075
-12.016
-12.3176
-12.6108
-12.8943
-13.1672
-13.4285
-13.6774
-13.913
-14.1344
-14.3409
-14.5316
-14.7056
-14.8622
-15.0006
-15.12
-15.2197
-15.299
-15.3573
-15.394
-15.4086
-15.4007
-15.3699
-15.3159
-15.2384
-15.1374
-15.0127
-14.8645
-14.6927
-14.4977
-14.2798
-14.0392
-13.7764
-13.492
-13.1866
-12.861
-12.5158
-12.152
-11.7704
-11.3721
-10.9581
-10.5293
-10.0871
-9.63239
-9.16648
-8.69052
-8.20569
-7.71318
-7.21419
-6.70987
-6.20139
-5.68987
-5.17641
-4.66208
-4.14791
-3.63488
-3.12393
-2.61595
-2.11177
-1.6122
-1.11795
-0.629704
-0.14809
0.326326
0.793032
1.25157
1.70153
2.14255
2.57434
2.99664
3.40923
3.81194
4.20465
4.58726
4.9597
5.32195
5.67398
6.01582
6.34753
6.66916
6.98083
7.28266
7.5748
7.85741
8.13068
8.39478
8.64993
8.89633
9.1342
9.36377
9.58526
9.7989
10.0049
10.2036
10.3951
10.5797
10.7577
10.9292
11.0945
11.2539
11.4074
11.5555
11.6981
11.8357
11.9684
12.0963
12.2197
12.3387
12.4536
12.5644
12.6715
12.7749
12.8747
12.9713
13.0645
13.1547
13.2419
13.3262
13.4077
13.4866
13.563
13.637
13.7086
13.778
13.8453
13.9104
13.9736
14.0348
14.0942
14.1518
14.2076
14.2617
14.3141
14.365
14.4143
14.462
14.5083
14.5531
14.5964
14.6382
14.6787
14.7177
14.7554
14.7916
14.8265
14.86
14.8921
14.9229
14.9525
14.9808
15.008
15.0341
15.0592
15.0835
15.1067
15.1289
15.147
15.1648
15.1509
-7.27571
-7.36911
-7.52158
-7.68782
-7.85524
-8.01701
-8.17266
-8.33006
-8.49736
-8.68034
-8.88298
-9.10635
-9.34897
-9.61
-9.88884
-10.1831
-10.489
-10.8022
-11.1184
-11.4342
-11.7465
-12.0532
-12.3526
-12.6431
-12.9239
-13.194
-13.4528
-13.6997
-13.9341
-14.1553
-14.3628
-14.5559
-14.7338
-14.896
-15.0415
-15.1698
-15.2801
-15.3716
-15.4437
-15.4956
-15.5268
-15.5367
-15.5248
-15.4906
-15.4339
-15.3542
-15.2515
-15.1255
-14.9763
-14.8039
-14.6085
-14.3904
-14.1498
-13.8872
-13.6031
-13.2982
-12.973
-12.6284
-12.2653
-11.8845
-11.4869
-11.0736
-10.6457
-10.2043
-9.75043
-9.28531
-8.8101
-8.326
-7.83417
-7.33579
-6.83203
-6.32403
-5.81291
-5.29976
-4.78564
-4.27158
-3.75855
-3.24749
-2.73929
-2.23477
-1.73473
-1.23991
-0.750964
-0.268535
0.206812
0.674561
1.13425
1.58546
2.02785
2.46109
2.88492
3.29913
3.70353
4.09798
4.48238
4.85667
5.22079
5.57475
5.91855
6.25224
6.57589
6.88961
7.1935
7.48772
7.77242
8.04777
8.31397
8.5712
8.81968
9.05961
9.29123
9.51475
9.7304
9.93842
10.139
10.3325
10.519
10.6988
10.8722
11.0393
11.2004
11.3556
11.5053
11.6497
11.7888
11.923
12.0525
12.1774
12.2978
12.4141
12.5263
12.6347
12.7393
12.8405
12.9382
13.0326
13.1239
13.2121
13.2975
13.3801
13.46
13.5373
13.6122
13.6847
13.755
13.823
13.889
13.9529
14.0149
14.075
14.1332
14.1897
14.2444
14.2975
14.3489
14.3988
14.4471
14.4938
14.5391
14.5829
14.6252
14.666
14.7055
14.7434
14.78
14.8151
14.8488
14.8811
14.912
14.9415
14.9696
14.9964
15.0218
15.0459
15.0686
15.0894
15.1083
15.1217
15.1334
15.1115
-7.08881
-7.17508
-7.32967
-7.50254
-7.68656
-7.87967
-8.07851
-8.28506
-8.50371
-8.73675
-8.98449
-9.24691
-9.5239
-9.81502
-10.1183
-10.4306
-10.7481
-11.0677
-11.3861
-11.7009
-12.01
-12.3116
-12.6045
-12.8877
-13.1604
-13.4219
-13.6718
-13.9096
-14.1348
-14.347
-14.5456
-14.73
-14.8997
-15.0539
-15.1921
-15.3135
-15.4174
-15.5031
-15.5699
-15.6171
-15.644
-15.6502
-15.6349
-15.5979
-15.5386
-15.4568
-15.3522
-15.2247
-15.0742
-14.9007
-14.7044
-14.4855
-14.2444
-13.9814
-13.697
-13.3919
-13.0668
-12.7223
-12.3593
-11.9787
-11.5815
-11.1686
-10.7412
-10.3003
-9.84706
-9.3826
-8.9081
-8.42472
-7.93363
-7.43601
-6.93299
-6.42573
-5.91533
-5.40287
-4.8894
-4.37593
-3.86344
-3.35285
-2.84503
-2.34082
-1.841
-1.34628
-0.857351
-0.374829
0.100719
0.568777
1.02888
1.48062
1.92363
2.3576
2.78226
3.1974
3.60282
3.99838
4.38398
4.75954
5.12501
5.48038
5.82566
6.16089
6.48614
6.8015
7.10709
7.40304
7.6895
7.96665
8.23466
8.49372
8.74405
8.98583
9.2193
9.44467
9.66218
9.87203
10.0745
10.2697
10.4581
10.6396
10.8147
10.9836
11.1463
11.3033
11.4546
11.6006
11.7413
11.8771
12.008
12.1343
12.2563
12.3739
12.4875
12.5972
12.7031
12.8055
12.9044
13
13.0924
13.1818
13.2682
13.3518
13.4327
13.511
13.5868
13.6603
13.7314
13.8003
13.8671
13.9318
13.9945
14.0553
14.1143
14.1714
14.2268
14.2805
14.3326
14.383
14.4318
14.4791
14.5249
14.5692
14.6119
14.6532
14.6931
14.7314
14.7683
14.8037
14.8376
14.87
14.9009
14.9303
14.9582
14.9845
15.0092
15.0321
15.0531
15.0716
15.0871
15.096
15.1022
15.0733
-7.06478
-7.15201
-7.30001
-7.46921
-7.65651
-7.86176
-8.08178
-8.31459
-8.56043
-8.81979
-9.09209
-9.37648
-9.67268
-9.9795
-10.2942
-10.6138
-10.9355
-11.2565
-11.5745
-11.8874
-12.1935
-12.4914
-12.7801
-13.0587
-13.3267
-13.5833
-13.8282
-14.061
-14.2811
-14.4883
-14.6818
-14.8613
-15.0262
-15.1759
-15.3096
-15.4267
-15.5266
-15.6085
-15.6717
-15.7155
-15.7394
-15.7427
-15.7248
-15.6854
-15.6239
-15.5401
-15.4337
-15.3046
-15.1526
-14.9778
-14.7804
-14.5605
-14.3184
-14.0547
-13.7697
-13.4641
-13.1386
-12.7939
-12.4308
-12.0503
-11.6532
-11.2406
-10.8136
-10.3732
-9.92051
-9.45673
-8.98297
-8.50042
-8.01022
-7.51353
-7.01148
-6.50522
-5.99583
-5.4844
-4.97194
-4.45948
-3.94795
-3.43829
-2.93135
-2.42797
-1.9289
-1.43487
-0.946555
-0.464555
0.0105658
0.478297
0.93818
1.38981
1.83282
2.2669
2.69178
3.10723
3.51307
3.90915
4.29536
4.67161
5.03787
5.39411
5.74034
6.0766
6.40296
6.7195
7.02634
7.3236
7.61142
7.88998
8.15945
8.42
8.67185
8.91518
9.15023
9.37719
9.59629
9.80776
10.0118
10.2087
10.3986
10.5818
10.7585
10.9289
11.0933
11.2518
11.4047
11.5521
11.6943
11.8315
11.9639
12.0917
12.2149
12.334
12.4489
12.5598
12.667
12.7706
12.8707
12.9674
13.0609
13.1514
13.2389
13.3235
13.4054
13.4847
13.5614
13.6358
13.7078
13.7775
13.8451
13.9106
13.9741
14.0356
14.0953
14.1531
14.2092
14.2635
14.3162
14.3672
14.4167
14.4645
14.5108
14.5556
14.5988
14.6405
14.6808
14.7195
14.7567
14.7923
14.8265
14.859
14.8899
14.9192
14.9468
14.9726
14.9964
15.0182
15.0374
15.0534
15.0657
15.0704
15.0717
15.0366
-7.1794
-7.25787
-7.38894
-7.54511
-7.72419
-7.92582
-8.14727
-8.38595
-8.64019
-8.90862
-9.18948
-9.48168
-9.78423
-10.0952
-10.412
-10.7321
-11.053
-11.3725
-11.6884
-11.999
-12.3027
-12.5982
-12.8847
-13.1611
-13.427
-13.6816
-13.9246
-14.1555
-14.3738
-14.579
-14.7706
-14.9481
-15.1109
-15.2584
-15.39
-15.505
-15.6027
-15.6824
-15.7434
-15.7852
-15.807
-15.8082
-15.7884
-15.747
-15.6837
-15.5981
-15.49
-15.3593
-15.2059
-15.0297
-14.8311
-14.6101
-14.3671
-14.1025
-13.8168
-13.5107
-13.1848
-12.8399
-12.4767
-12.0962
-11.6994
-11.2872
-10.8607
-10.4209
-9.96907
-9.50621
-9.03349
-8.55208
-8.06311
-7.56773
-7.06706
-6.56223
-6.05431
-5.54438
-5.03344
-4.52249
-4.01247
-3.50428
-2.99878
-2.49677
-1.99902
-1.50623
-1.01906
-0.538119
-0.0639672
0.402894
0.862009
1.31297
1.75543
2.18906
2.6136
3.02883
3.43455
3.83062
4.21692
4.59337
4.95992
5.31655
5.66328
6.00013
6.32716
6.64446
6.95214
7.25032
7.53913
7.81874
8.08931
8.35103
8.60409
8.84868
9.08501
9.3133
9.53375
9.7466
9.95205
10.1503
10.3417
10.5263
10.7044
10.8762
11.042
11.2019
11.3562
11.505
11.6486
11.7872
11.9209
12.05
12.1746
12.2948
12.411
12.5232
12.6316
12.7363
12.8375
12.9354
13.03
13.1215
13.21
13.2956
13.3785
13.4587
13.5364
13.6116
13.6845
13.755
13.8234
13.8897
13.954
14.0162
14.0766
14.1351
14.1919
14.2468
14.3001
14.3517
14.4017
14.4501
14.497
14.5422
14.5859
14.6281
14.6688
14.7078
14.7454
14.7813
14.8156
14.8483
14.8792
14.9084
14.9356
14.9609
14.9839
15.0043
15.0218
15.0355
15.0446
15.0453
15.0421
15.0018
-7.35822
-7.42282
-7.53381
-7.67247
-7.83662
-8.02578
-8.23756
-8.46926
-8.71841
-8.98263
-9.25969
-9.54838
-9.84746
-10.1547
-10.4677
-10.784
-11.1014
-11.4176
-11.7308
-12.0392
-12.3413
-12.6358
-12.9216
-13.198
-13.464
-13.7191
-13.9626
-14.1941
-14.4129
-14.6186
-14.8106
-14.9883
-15.1512
-15.2986
-15.4298
-15.5442
-15.6412
-15.72
-15.7799
-15.8205
-15.8409
-15.8408
-15.8195
-15.7766
-15.7118
-15.6247
-15.5152
-15.383
-15.2282
-15.0509
-14.8511
-14.6291
-14.3852
-14.1199
-13.8338
-13.5273
-13.2012
-12.8563
-12.4934
-12.1133
-11.7171
-11.3057
-10.8801
-10.4415
-9.99095
-9.52954
-9.05841
-8.5787
-8.09155
-7.59808
-7.09941
-6.59663
-6.09081
-5.58298
-5.07418
-4.56535
-4.05745
-3.55135
-3.04789
-2.54787
-2.05204
-1.5611
-1.0757
-0.596428
-0.123843
0.34156
0.799332
1.24907
1.69042
2.12307
2.54675
2.96124
3.36635
3.76192
4.14785
4.52405
4.89046
5.24707
5.59388
5.93092
6.25825
6.57595
6.88412
7.18287
7.47235
7.7527
8.02408
8.28668
8.54067
8.78626
9.02364
9.25301
9.47459
9.6886
9.89524
10.0947
10.2873
10.4732
10.6526
10.8257
10.9927
11.1539
11.3095
11.4596
11.6045
11.7443
11.8792
12.0095
12.1353
12.2568
12.3741
12.4875
12.597
12.7028
12.8051
12.904
12.9997
13.0922
13.1817
13.2683
13.3521
13.4333
13.5118
13.5879
13.6616
13.733
13.8022
13.8693
13.9342
13.9972
14.0583
14.1175
14.1749
14.2305
14.2844
14.3366
14.3872
14.4362
14.4835
14.5293
14.5735
14.6161
14.6572
14.6967
14.7345
14.7707
14.8052
14.838
14.869
14.8979
14.9249
14.9495
14.9716
14.9908
15.0066
15.0179
15.0241
15.0212
15.0139
14.9692
-7.53321
-7.58473
-7.6774
-7.79817
-7.94509
-8.11756
-8.31352
-8.53056
-8.76618
-9.01784
-9.28349
-9.56202
-9.85198
-10.1511
-10.4571
-10.7675
-11.0799
-11.3924
-11.703
-12.0098
-12.3113
-12.6061
-12.8931
-13.1711
-13.4392
-13.6967
-13.9428
-14.1768
-14.3982
-14.6063
-14.8005
-14.9801
-15.1445
-15.2932
-15.4253
-15.5404
-15.6376
-15.7163
-15.776
-15.816
-15.8357
-15.8347
-15.8124
-15.7684
-15.7024
-15.6141
-15.5033
-15.3701
-15.2142
-15.0359
-14.8352
-14.6126
-14.3682
-14.1026
-13.8164
-13.51
-13.1843
-12.8399
-12.4777
-12.0987
-11.7037
-11.2937
-10.8698
-10.433
-9.98443
-9.52519
-9.05639
-8.57915
-8.09458
-7.60379
-7.10789
-6.60793
-6.10499
-5.60007
-5.09417
-4.58825
-4.08322
-3.57996
-3.07929
-2.58198
-2.08878
-1.60038
-1.1174
-0.640454
-0.170069
0.293262
0.749095
1.19703
1.63672
2.06785
2.49015
2.90341
3.30742
3.70204
4.08715
4.46266
4.82853
5.18472
5.53124
5.86812
6.1954
6.51317
6.82151
7.12055
7.4104
7.69122
7.96315
8.22638
8.48108
8.72744
8.96565
9.19592
9.41844
9.63343
9.84109
10.0417
10.2353
10.4223
10.6028
10.7771
10.9453
11.1076
11.2644
11.4157
11.5617
11.7027
11.8388
11.9703
12.0972
12.2198
12.3383
12.4527
12.5633
12.6702
12.7736
12.8735
12.9701
13.0636
13.1541
13.2416
13.3264
13.4084
13.4878
13.5648
13.6393
13.7115
13.7815
13.8493
13.915
13.9787
14.0405
14.1004
14.1584
14.2147
14.2692
14.322
14.3731
14.4227
14.4705
14.5168
14.5615
14.6046
14.6461
14.686
14.7242
14.7607
14.7954
14.8283
14.8592
14.8881
14.9146
14.9387
14.96
14.978
14.992
15.0012
15.0045
14.9983
14.9873
14.9388
-7.66014
-7.70241
-7.7797
-7.88382
-8.0133
-8.16765
-8.34511
-8.5437
-8.76138
-8.99595
-9.24604
-9.51091
-9.7891
-10.0783
-10.376
-10.6799
-10.9876
-11.2969
-11.6057
-11.9121
-12.2144
-12.5111
-12.8007
-13.0821
-13.354
-13.6156
-13.8659
-14.1041
-14.3295
-14.5413
-14.7389
-14.9216
-15.0886
-15.2394
-15.3733
-15.4896
-15.5877
-15.667
-15.7268
-15.7667
-15.786
-15.7844
-15.7613
-15.7165
-15.6496
-15.5605
-15.4489
-15.3148
-15.1583
-14.9795
-14.7785
-14.5556
-14.3114
-14.0461
-13.7603
-13.4548
-13.1301
-12.7871
-12.4265
-12.0493
-11.6564
-11.2488
-10.8274
-10.3934
-9.94785
-9.49176
-9.02627
-8.55247
-8.07146
-7.58434
-7.09216
-6.59599
-6.09685
-5.59576
-5.09368
-4.59154
-4.09024
-3.59065
-3.09358
-2.59979
-2.10999
-1.62486
-1.14504
-0.6711
-0.20358
0.257039
0.710317
1.15586
1.59332
2.02238
2.44279
2.85431
3.25675
3.64997
4.03383
4.40825
4.77319
5.12859
5.47447
5.81085
6.13777
6.4553
6.76354
7.06258
7.35255
7.6336
7.90586
8.16951
8.42471
8.67164
8.9105
9.14149
9.36478
9.58061
9.78915
9.99064
10.1853
10.3732
10.5548
10.7301
10.8993
11.0628
11.2206
11.373
11.5201
11.6622
11.7995
11.932
12.06
12.1837
12.3033
12.4188
12.5304
12.6383
12.7427
12.8436
12.9412
13.0357
13.1271
13.2155
13.3012
13.3841
13.4644
13.5421
13.6175
13.6905
13.7612
13.8298
13.8962
13.9606
14.0231
14.0837
14.1424
14.1993
14.2544
14.3078
14.3595
14.4096
14.4581
14.5049
14.5501
14.5936
14.6356
14.6758
14.7144
14.7512
14.7861
14.8191
14.8501
14.8788
14.9051
14.9286
14.949
14.9658
14.9783
14.9853
14.9861
14.9769
14.9626
14.9109
-7.71512
-7.7534
-7.81906
-7.90821
-8.02066
-8.15633
-8.31416
-8.4928
-8.69069
-8.90628
-9.13908
-9.38898
-9.65459
-9.93353
-10.2232
-10.5211
-10.8248
-11.1319
-11.4402
-11.7476
-12.0522
-12.3522
-12.6459
-12.932
-13.209
-13.4759
-13.7316
-13.975
-14.2053
-14.4217
-14.6234
-14.8097
-14.9798
-15.1332
-15.2692
-15.3871
-15.4864
-15.5664
-15.6266
-15.6666
-15.6859
-15.6839
-15.6604
-15.6151
-15.5477
-15.4581
-15.3462
-15.2119
-15.0553
-14.8766
-14.676
-14.4538
-14.2104
-13.9463
-13.6621
-13.3583
-13.0358
-12.6951
-12.3373
-11.963
-11.5734
-11.1692
-10.7517
-10.3216
-9.88018
-9.42841
-8.96739
-8.49819
-8.02188
-7.53954
-7.05219
-6.56089
-6.06662
-5.57038
-5.07312
-4.57574
-4.07913
-3.58411
-3.09151
-2.60207
-2.11649
-1.63543
-1.15951
-0.689299
-0.22533
0.23192
0.682018
1.12457
1.55923
1.98569
2.40368
2.81298
3.21339
3.60476
3.98696
4.35991
4.72353
5.0778
5.42271
5.75828
6.08454
6.40157
6.70944
7.00825
7.29811
7.57916
7.85155
8.11542
8.37094
8.61829
8.85765
9.0892
9.31314
9.52966
9.73897
9.94127
10.1367
10.3256
10.5081
10.6843
10.8546
11.0191
11.1779
11.3313
11.4795
11.6227
11.7609
11.8945
12.0236
12.1484
12.2689
12.3854
12.4981
12.607
12.7124
12.8143
12.9128
13.0082
13.1005
13.1899
13.2764
13.3602
13.4413
13.5199
13.5961
13.6699
13.7414
13.8107
13.8779
13.943
14.0061
14.0674
14.1267
14.1843
14.24
14.2941
14.3464
14.397
14.446
14.4934
14.5391
14.5831
14.6255
14.6662
14.7051
14.7422
14.7774
14.8106
14.8416
14.8702
14.8962
14.9192
14.9389
14.9545
14.9655
14.9707
14.9691
14.9572
14.9399
14.8856
-7.7001
-7.73428
-7.7911
-7.86648
-7.96175
-8.07773
-8.21442
-8.37145
-8.54804
-8.7435
-8.95827
-9.19283
-9.44594
-9.7151
-9.99759
-10.2907
-10.5919
-10.8985
-11.208
-11.518
-11.8264
-12.1311
-12.4302
-12.7221
-13.0052
-13.2781
-13.5397
-13.7888
-14.0243
-14.2455
-14.4514
-14.6414
-14.8147
-14.9706
-15.1086
-15.2281
-15.3285
-15.4093
-15.4701
-15.5103
-15.5297
-15.5277
-15.5042
-15.4589
-15.3915
-15.3021
-15.1905
-15.0567
-14.901
-14.7233
-14.5241
-14.3035
-14.0622
-13.8004
-13.5189
-13.2182
-12.899
-12.5621
-12.2083
-11.8384
-11.4533
-11.0541
-10.6416
-10.2169
-9.78097
-9.33487
-8.87964
-8.41634
-7.94602
-7.46969
-6.9884
-6.50313
-6.01489
-5.52461
-5.03323
-4.54165
-4.05071
-3.56124
-3.07403
-2.58981
-2.10929
-1.63311
-1.16186
-0.696109
-0.23638
0.216849
0.663144
1.10212
1.53342
1.95674
2.37182
2.77843
3.17636
3.56546
3.94561
4.31671
4.67868
5.03149
5.37513
5.7096
6.03495
6.35122
6.65848
6.95684
7.24639
7.52726
7.79959
8.06352
8.31922
8.56683
8.80655
9.03856
9.26302
9.48015
9.69012
9.89313
10.0894
10.2791
10.4624
10.6396
10.8107
10.9761
11.136
11.2904
11.4396
11.5837
11.723
11.8577
11.9878
12.1135
12.2351
12.3526
12.4663
12.5762
12.6825
12.7853
12.8849
12.9812
13.0744
13.1647
13.2521
13.3367
13.4187
13.4981
13.575
13.6496
13.7219
13.7919
13.8598
13.9257
13.9895
14.0514
14.1115
14.1697
14.2261
14.2807
14.3336
14.3849
14.4344
14.4823
14.5286
14.5731
14.616
14.6571
14.6964
14.7339
14.7694
14.8027
14.8338
14.8623
14.8881
14.9107
14.9296
14.9443
14.9539
14.9573
14.9536
14.9392
14.9192
14.8628
-7.63502
-7.66022
-7.7065
-7.76529
-7.84021
-7.93331
-8.04581
-8.17858
-8.33184
-8.50588
-8.7021
-8.9215
-9.16284
-9.42342
-9.70025
-9.99033
-10.2907
-10.5984
-10.9107
-11.2248
-11.5383
-11.8487
-12.154
-12.4523