/*--------------------------------*- C++ -*----------------------------------*\
| =========                 |                                                 |
| \\      /  F ield         | OpenFOAM: The Open Source CFD Toolbox           |
|  \\    /   O peration     | Version:  v2012                                 |
|   \\  /    A nd           | Website:  www.openfoam.com                      |
|    \\/     M anipulation  |                                                 |
\*---------------------------------------------------------------------------*/
FoamFile
{
    version     2.0;
    format      ascii;
    class       volVectorField;
    location    "500";
    object      U;
}
// * * * * * * * * * * * * * * * * * * * * * * * * * * * * * * * * * * * * * //

dimensions      [0 1 -1 0 0 0 0];


internalField   nonuniform List<vector> 
12225
(
(9.2745 -4.73371 0)
(13.1094 -1.71343 0)
(12.4776 -0.395208 0)
(11.2768 -0.0422187 0)
(10.6311 0.0141931 0)
(10.2977 -0.000764746 0)
(10.0738 -0.00390623 0)
(9.90473 -0.0202879 0)
(9.76604 -0.0504125 0)
(9.64445 -0.0475653 0)
(9.53086 -0.0363739 0)
(9.42431 -0.0323624 0)
(9.32643 -0.0304101 0)
(9.23713 -0.0235545 0)
(9.15592 -0.00816601 0)
(9.09017 0.00281896 0)
(9.02977 0.010299 0)
(9.05326 0.0215785 0)
(10.2592 0.0928024 0)
(10.7814 0.199338 0)
(10.9593 0.24565 0)
(10.7468 0.229136 0)
(10.5874 0.172971 0)
(10.4521 0.115301 0)
(10.329 0.0819272 0)
(10.2315 0.0693205 0)
(10.1585 0.0651968 0)
(10.0982 0.0585305 0)
(10.0454 0.0524155 0)
(9.99831 0.0500429 0)
(9.95541 0.0495163 0)
(9.91579 0.0482861 0)
(9.87822 0.0443173 0)
(9.84358 0.0387351 0)
(9.80751 0.0217456 0)
(9.77567 -0.00132375 0)
(9.87768 -0.24504 0)
(9.74284 0.00579051 0)
(10.1971 0.125737 0)
(10.3244 0.179357 0)
(10.3563 0.161542 0)
(10.3308 0.119984 0)
(10.2777 0.0911789 0)
(10.2263 0.0753336 0)
(10.183 0.0657929 0)
(10.1459 0.0604632 0)
(10.1137 0.0571512 0)
(10.0848 0.0544063 0)
(10.0579 0.0516836 0)
(10.0325 0.048659 0)
(10.0087 0.0450331 0)
(9.98678 0.040031 0)
(9.96322 0.0289317 0)
(9.93579 0.0101201 0)
(9.83416 -0.443933 0)
(9.57654 -0.163149 0)
(9.91602 0.0336624 0)
(10.0932 0.134214 0)
(10.1892 0.145461 0)
(10.2166 0.120723 0)
(10.2052 0.0985113 0)
(10.1835 0.08392 0)
(10.161 0.0740661 0)
(10.1394 0.0682731 0)
(10.1196 0.0645291 0)
(10.1012 0.061523 0)
(10.0837 0.0588561 0)
(10.0669 0.056409 0)
(10.0505 0.0536657 0)
(10.0344 0.0494807 0)
(10.0157 0.0411401 0)
(9.99146 0.0293916 0)
(9.87825 -0.387477 0)
(9.61653 -0.196151 0)
(9.81622 -0.0186797 0)
(9.96134 0.0916008 0)
(10.0698 0.122183 0)
(10.1218 0.113645 0)
(10.1356 0.0996302 0)
(10.134 0.0883573 0)
(10.1264 0.0798864 0)
(10.1163 0.0742369 0)
(10.1055 0.0703833 0)
(10.0946 0.067508 0)
(10.0836 0.0651731 0)
(10.0724 0.0631072 0)
(10.0609 0.0607845 0)
(10.0484 0.0575118 0)
(10.033 0.0521469 0)
(10.0121 0.0460361 0)
(9.91439 -0.288041 0)
(9.68303 -0.185181 0)
(9.78716 -0.0532178 0)
(9.88916 0.0509859 0)
(9.98794 0.0936663 0)
(10.0476 0.0992264 0)
(10.0753 0.0940626 0)
(10.0867 0.0874186 0)
(10.0896 0.0814279 0)
(10.088 0.0769391 0)
(10.0841 0.0737185 0)
(10.0788 0.071354 0)
(10.0726 0.0695166 0)
(10.0656 0.0679678 0)
(10.0575 0.0663676 0)
(10.0479 0.0644318 0)
(10.0354 0.0619627 0)
(10.0183 0.060299 0)
(9.93763 -0.214042 0)
(9.74855 -0.167539 0)
(9.79243 -0.0752241 0)
(9.85608 0.0162098 0)
(9.93594 0.0644131 0)
(9.99283 0.0806134 0)
(10.0262 0.0836354 0)
(10.045 0.0821259 0)
(10.0549 0.079326 0)
(10.0594 0.0767196 0)
(10.0605 0.0746748 0)
(10.0596 0.0731687 0)
(10.0571 0.072084 0)
(10.0532 0.0713204 0)
(10.0479 0.0707519 0)
(10.0408 0.0703902 0)
(10.0312 0.0704929 0)
(10.0182 0.0722493 0)
(9.95263 -0.167336 0)
(9.79947 -0.149684 0)
(9.81178 -0.084656 0)
(9.84959 -0.00623257 0)
(9.91141 0.0419032 0)
(9.9611 0.0638709 0)
(9.9944 0.0725164 0)
(10.0157 0.0751385 0)
(10.029 0.0752302 0)
(10.0368 0.0745409 0)
(10.041 0.0737825 0)
(10.0428 0.0732248 0)
(10.0427 0.0729546 0)
(10.041 0.0730162 0)
(10.0377 0.0734445 0)
(10.0327 0.0744123 0)
(10.0255 0.0763275 0)
(10.0158 0.0801636 0)
(9.96406 -0.132092 0)
(9.84003 -0.131995 0)
(9.83337 -0.0877042 0)
(9.85306 -0.0213541 0)
(9.89928 0.0243893 0)
(9.94105 0.0494885 0)
(9.97214 0.0620859 0)
(9.99396 0.0679477 0)
(10.0087 0.0704452 0)
(10.0185 0.0714787 0)
(10.0247 0.0719832 0)
(10.0283 0.0724128 0)
(10.0299 0.0729966 0)
(10.0298 0.0738885 0)
(10.0282 0.0752407 0)
(10.0249 0.0773219 0)
(10.0198 0.0805912 0)
(10.0129 0.0858439 0)
(9.97418 -0.100208 0)
(9.87757 -0.112397 0)
(9.85857 -0.085381 0)
(9.86388 -0.0323552 0)
(9.89487 0.00890029 0)
(9.92745 0.0351919 0)
(9.95445 0.0506639 0)
(9.97511 0.059371 0)
(9.99024 0.0642251 0)
(10.001 0.067079 0)
(10.0085 0.0689852 0)
(10.0136 0.0705409 0)
(10.0167 0.0721003 0)
(10.0181 0.0739234 0)
(10.0181 0.076252 0)
(10.0165 0.0794066 0)
(10.0136 0.0838323 0)
(10.0094 0.0901391 0)
(9.98253 -0.0727123 0)
(9.91035 -0.0922038 0)
(9.88507 -0.0782609 0)
(9.88002 -0.0386335 0)
(9.89747 -0.00340919 0)
(9.92045 0.0221228 0)
(9.94201 0.0391113 0)
(9.96007 0.0499497 0)
(9.97433 0.0568556 0)
(9.98525 0.0614494 0)
(9.99345 0.0647833 0)
(9.99948 0.0675279 0)
(10.0037 0.0701319 0)
(10.0065 0.0729294 0)
(10.0079 0.0762235 0)
(10.0081 0.0803439 0)
(10.0073 0.0856752 0)
(10.0057 0.0926485 0)
(9.98894 -0.0502603 0)
(9.93733 -0.072386 0)
(9.91073 -0.0674664 0)
(9.89917 -0.0400122 0)
(9.90567 -0.0116913 0)
(9.91957 0.011394 0)
(9.935 0.0284431 0)
(9.94939 0.0404449 0)
(9.96175 0.048833 0)
(9.97194 0.05487 0)
(9.98014 0.059492 0)
(9.98663 0.0633699 0)
(9.99168 0.0669847 0)
(9.99548 0.0707126 0)
(9.99822 0.0748719 0)
(10.0001 0.079774 0)
(10.0012 0.0857175 0)
(10.002 0.0929951 0)
(9.99348 -0.0329128 0)
(9.9582 -0.0538195 0)
(9.93368 -0.0543038 0)
(9.91899 -0.0368201 0)
(9.91756 -0.0155011 0)
(9.92368 0.00392754 0)
(9.93304 0.0196787 0)
(9.94322 0.0317388 0)
(9.95294 0.0408256 0)
(9.96166 0.0477884 0)
(9.96925 0.0533687 0)
(9.97573 0.0581568 0)
(9.9812 0.0626123 0)
(9.98579 0.0671008 0)
(9.98963 0.0719258 0)
(9.9929 0.0773463 0)
(9.99579 0.0835946 0)
(9.99857 0.0908297 0)
(9.99643 -0.0202073 0)
(9.97327 -0.0372192 0)
(9.95261 -0.0400677 0)
(9.93731 -0.0298469 0)
(9.9309 -0.0148762 0)
(9.93104 0.000292935 0)
(9.93506 0.0136727 0)
(9.94107 0.024705 0)
(9.94784 0.0335804 0)
(9.95467 0.0407685 0)
(9.96119 0.0467823 0)
(9.96725 0.0520782 0)
(9.9728 0.0570445 0)
(9.97788 0.0619904 0)
(9.98257 0.0671745 0)
(9.98697 0.0727963 0)
(9.99124 0.0790122 0)
(9.99558 0.0859129 0)
(9.99816 -0.0112928 0)
(9.9833 -0.0229406 0)
(9.96682 -0.0257861 0)
(9.95243 -0.0201147 0)
(9.94344 -0.0102969 0)
(9.93953 0.000598602 0)
(9.93941 0.0109271 0)
(9.94184 0.020009 0)
(9.94583 0.027753 0)
(9.95069 0.0343598 0)
(9.95597 0.0401298 0)
(9.96138 0.0453749 0)
(9.96678 0.0503703 0)
(9.97211 0.0553515 0)
(9.97737 0.0604994 0)
(9.9826 0.0659565 0)
(9.98789 0.0718076 0)
(9.99336 0.0781008 0)
(9.99906 -0.00508598 0)
(9.98922 -0.0107915 0)
(9.97612 -0.0119403 0)
(9.96309 -0.00852106 0)
(9.9531 -0.00248983 0)
(9.94686 0.00450241 0)
(9.94399 0.0114565 0)
(9.94384 0.0178899 0)
(9.94569 0.0236749 0)
(9.94895 0.0288799 0)
(9.95315 0.0336607 0)
(9.95796 0.0381946 0)
(9.96316 0.0426465 0)
(9.96862 0.0471551 0)
(9.97426 0.0518246 0)
(9.98007 0.0567268 0)
(9.98607 0.0618973 0)
(9.9923 0.067339 0)
(9.99942 -0.000372215 0)
(9.99181 0.000139723 0)
(9.98042 0.00180779 0)
(9.96821 0.00455655 0)
(9.9579 0.00786579 0)
(9.9506 0.0113292 0)
(9.94641 0.0147206 0)
(9.94497 0.0179675 0)
(9.94575 0.0210821 0)
(9.94822 0.0241352 0)
(9.95194 0.0272043 0)
(9.95655 0.0303706 0)
(9.9618 0.0336941 0)
(9.96748 0.0372227 0)
(9.97351 0.0409783 0)
(9.97979 0.0449694 0)
(9.98632 0.0491802 0)
(9.99306 0.0535823 0)
(9.99935 0.00408027 0)
(9.9911 0.0111576 0)
(9.97897 0.0161078 0)
(9.96616 0.0186989 0)
(9.95552 0.0195623 0)
(9.94818 0.0194797 0)
(9.94418 0.0190755 0)
(9.9431 0.0187562 0)
(9.94435 0.0187657 0)
(9.94737 0.0192168 0)
(9.95169 0.0201544 0)
(9.95692 0.0215705 0)
(9.96278 0.0234385 0)
(9.96909 0.025712 0)
(9.97571 0.0283436 0)
(9.98255 0.0312744 0)
(9.98957 0.0344511 0)
(9.99672 0.0378077 0)
(9.99882 0.00972579 0)
(9.98675 0.0240305 0)
(9.97122 0.0318201 0)
(9.95642 0.0332568 0)
(9.94558 0.0306577 0)
(9.93942 0.0262921 0)
(9.93733 0.0216784 0)
(9.93843 0.0176541 0)
(9.94183 0.0145926 0)
(9.94682 0.012585 0)
(9.95285 0.0115785 0)
(9.95954 0.0114512 0)
(9.96664 0.0120693 0)
(9.97396 0.013296 0)
(9.98141 0.0150114 0)
(9.98893 0.0171041 0)
(9.99647 0.0194811 0)
(10.004 0.0220553 0)
(9.99757 0.0182066 0)
(9.97774 0.040437 0)
(9.95665 0.0495506 0)
(9.93945 0.0474436 0)
(9.92962 0.0393802 0)
(9.92659 0.0295997 0)
(9.92848 0.0204348 0)
(9.93355 0.0129071 0)
(9.94052 0.00727589 0)
(9.9485 0.00343409 0)
(9.95696 0.00111536 0)
(9.96557 3.56669e-05 0)
(9.97415 -6.83936e-05 0)
(9.98262 0.000576408 0)
(9.99093 0.00178658 0)
(9.99908 0.00341217 0)
(10.0071 0.00533116 0)
(10.0149 0.0074462 0)
(9.99502 0.0318119 0)
(9.96178 0.0621166 0)
(9.93372 0.0695262 0)
(9.91535 0.0600807 0)
(9.90933 0.0439118 0)
(9.9125 0.0276191 0)
(9.92085 0.0139558 0)
(9.93162 0.00359595 0)
(9.9432 -0.00367703 0)
(9.95474 -0.00841117 0)
(9.96585 -0.0111805 0)
(9.97639 -0.0124772 0)
(9.98635 -0.0126969 0)
(9.99577 -0.0121326 0)
(10.0047 -0.0110156 0)
(10.0133 -0.00951015 0)
(10.0215 -0.00774785 0)
(10.0294 -0.00582758 0)
(9.99018 0.0534599 0)
(9.93561 0.0901374 0)
(9.90098 0.0906045 0)
(9.88516 0.0687249 0)
(9.88782 0.0417829 0)
(9.90124 0.0186253 0)
(9.91858 0.00138674 0)
(9.93628 -0.0104165 0)
(9.95285 -0.0179472 0)
(9.96782 -0.0223685 0)
(9.98119 -0.0246227 0)
(9.99316 -0.0253925 0)
(10.004 -0.0251589 0)
(10.0139 -0.0242463 0)
(10.023 -0.0228901 0)
(10.0316 -0.0212408 0)
(10.0397 -0.0194162 0)
(10.0473 -0.0175097 0)
(9.9819 0.0862459 0)
(9.89548 0.124246 0)
(9.85818 0.109863 0)
(9.85211 0.0697441 0)
(9.87036 0.0303037 0)
(9.89846 0.00141686 0)
(9.92661 -0.0172245 0)
(9.95138 -0.0283302 0)
(9.97224 -0.0343716 0)
(9.9896 -0.0372204 0)
(10.0041 -0.0380748 0)
(10.0165 -0.0377172 0)
(10.0273 -0.0365866 0)
(10.0369 -0.0350404 0)
(10.0456 -0.0332433 0)
(10.0536 -0.031314 0)
(10.0611 -0.0293132 0)
(10.0681 -0.0273242 0)
(9.96925 0.133989 0)
(9.83823 0.16308 0)
(9.80793 0.122573 0)
(9.82313 0.058772 0)
(9.86516 0.00727204 0)
(9.91144 -0.0240602 0)
(9.9504 -0.0406117 0)
(9.98057 -0.0483585 0)
(10.0036 -0.05116 0)
(10.0213 -0.0513234 0)
(10.0352 -0.0501596 0)
(10.0466 -0.0482874 0)
(10.0562 -0.0461115 0)
(10.0644 -0.0438125 0)
(10.0718 -0.0415637 0)
(10.0786 -0.0393124 0)
(10.0849 -0.0371127 0)
(10.0908 -0.0350287 0)
(9.94951 0.20714 0)
(9.76128 0.207016 0)
(9.75726 0.123462 0)
(9.81043 0.0319837 0)
(9.88386 -0.0279014 0)
(9.9488 -0.0560399 0)
(9.99535 -0.0660967 0)
(10.0268 -0.067832 0)
(10.0482 -0.065994 0)
(10.0631 -0.0628911 0)
(10.0742 -0.0595053 0)
(10.0827 -0.0561718 0)
(10.0896 -0.0529543 0)
(10.0953 -0.0500111 0)
(10.1004 -0.0474009 0)
(10.1052 -0.0449571 0)
(10.1096 -0.042584 0)
(10.1137 -0.0404281 0)
(9.91094 0.322718 0)
(9.65922 0.254541 0)
(9.71887 0.107393 0)
(9.8333 -0.0119518 0)
(9.94177 -0.0727011 0)
(10.02 -0.0902325 0)
(10.0662 -0.0893785 0)
(10.0918 -0.0833161 0)
(10.1062 -0.0763636 0)
(10.1145 -0.0701995 0)
(10.1196 -0.06499 0)
(10.1232 -0.0605129 0)
(10.1257 -0.056486 0)
(10.1274 -0.0531092 0)
(10.129 -0.0504431 0)
(10.1308 -0.0480045 0)
(10.1325 -0.0455121 0)
(10.1339 -0.0433444 0)
(9.84404 0.43511 0)
(9.53797 0.261025 0)
(9.7269 0.0591221 0)
(9.92369 -0.0731445 0)
(10.0584 -0.121609 0)
(10.1345 -0.120283 0)
(10.1665 -0.105372 0)
(10.1757 -0.0911006 0)
(10.1758 -0.0798877 0)
(10.1726 -0.0717461 0)
(10.1686 -0.0658523 0)
(10.1647 -0.0608298 0)
(10.1606 -0.0561992 0)
(10.1562 -0.0522905 0)
(10.1526 -0.0499009 0)
(10.1501 -0.0478646 0)
(10.1478 -0.0453875 0)
(10.1454 -0.0432626 0)
(9.83598 0.319667 0)
(9.5502 0.0912489 0)
(9.91738 -0.0687335 0)
(10.1507 -0.160135 0)
(10.2634 -0.172184 0)
(10.3033 -0.142824 0)
(10.2975 -0.112238 0)
(10.2753 -0.0909938 0)
(10.2514 -0.0770969 0)
(10.2305 -0.068321 0)
(10.2132 -0.062971 0)
(10.1986 -0.0584132 0)
(10.1847 -0.0530353 0)
(10.1709 -0.048167 0)
(10.1593 -0.0460419 0)
(10.1501 -0.0437137 0)
(10.1414 -0.040116 0)
(10.133 -0.0381801 0)
(10.2049 -0.0633776 0)
(10.4095 -0.19171 0)
(10.7164 -0.282555 0)
(10.6879 -0.282292 0)
(10.6191 -0.23012 0)
(10.5417 -0.163755 0)
(10.4537 -0.117623 0)
(10.375 -0.0936201 0)
(10.3135 -0.0804796 0)
(10.2654 -0.0696147 0)
(10.2259 -0.0603479 0)
(10.1925 -0.0554478 0)
(10.1611 -0.0548487 0)
(10.1322 -0.0538716 0)
(10.1094 -0.0487912 0)
(10.0867 -0.0454685 0)
(10.0656 -0.0465607 0)
(10.0487 -0.0452913 0)
(9.41631 4.45107 0)
(12.7294 2.07612 0)
(12.5649 0.621225 0)
(11.5691 0.127667 0)
(10.9311 0.00343111 0)
(10.5862 -0.00225515 0)
(10.363 0.0138693 0)
(10.2007 0.0311906 0)
(10.0779 0.0447316 0)
(9.97624 0.0439417 0)
(9.88414 0.0337177 0)
(9.79774 0.0308087 0)
(9.72383 0.0381863 0)
(9.66293 0.0365736 0)
(9.60139 0.0137484 0)
(9.54431 0.00202813 0)
(9.49413 0.0120702 0)
(9.44664 0.00844538 0)
(-0.0247563 0.0907452 0)
(0.137793 -0.182821 0)
(0.326331 -0.304566 0)
(0.526144 -0.31354 0)
(0.702727 -0.27062 0)
(0.832075 -0.209822 0)
(0.907201 -0.144975 -8.60304e-20)
(0.936671 -0.0810208 8.67345e-20)
(0.914358 -0.0187294 0)
(0.852475 0.0359186 9.21376e-20)
(0.764465 0.0749526 0)
(0.664826 0.0923881 0)
(0.571128 0.0874862 0)
(0.49887 0.0660548 -1.44314e-19)
(0.449015 0.0370808 0)
(0.404677 0.0096779 0)
(0.343801 -0.00848352 1.90177e-19)
(0.257487 -0.00761528 0)
(0.120625 0.0115392 0)
(-0.0788215 0.113538 0)
(-0.309141 0.207873 -1.38686e-19)
(-0.605862 0.248241 0)
(-0.934028 0.270021 -7.45418e-20)
(-1.26901 0.297267 0)
(-1.60766 0.323817 0)
(-1.94649 0.336098 -4.10772e-20)
(-2.27779 0.335002 0)
(-2.5938 0.325591 3.44261e-20)
(-2.89131 0.309257 0)
(-3.16708 0.288369 -3.12807e-20)
(-3.42018 0.265223 0)
(-3.65031 0.241382 0)
(-3.85818 0.217863 0)
(-4.04493 0.195358 0)
(-4.21197 0.174232 0)
(-4.36089 0.154685 2.82042e-20)
(-4.49325 0.136748 0)
(-4.61053 0.120345 -5.55221e-20)
(-4.71411 0.105348 0)
(-4.80519 0.0915985 5.47232e-20)
(-4.88482 0.078934 0)
(-4.95388 0.067204 0)
(-5.01313 0.0562817 -5.34991e-20)
(-5.06318 0.0460722 0)
(-5.10453 0.0365174 -5.26056e-20)
(-5.13758 0.0276022 5.21268e-20)
(-5.16273 0.0193739 0)
(-5.18037 0.0119821 5.10979e-20)
(-5.19076 0.00569148 5.0545e-20)
(-5.19408 0.000647394 0)
(-5.19163 -0.0032616 0)
(-5.18458 -0.00650893 0)
(-5.17308 -0.00945231 0)
(-5.15744 -0.0121592 0)
(-5.13783 -0.014725 -4.61152e-20)
(-5.11438 -0.0171619 0)
(-5.08721 -0.0194822 4.42469e-20)
(-5.05642 -0.0216945 0)
(-5.02211 -0.0238009 0)
(-4.98438 -0.0258033 -4.10641e-20)
(-4.94334 -0.027702 0)
(-4.89909 -0.0294969 3.86853e-20)
(-4.85174 -0.0311879 0)
(-4.80142 -0.0327749 0)
(-4.74822 -0.0342579 0)
(-4.69229 -0.0356366 -3.3299e-20)
(-4.63373 -0.0369116 0)
(-4.57267 -0.0380838 0)
(-4.50924 -0.0391536 -2.8696e-20)
(-4.44357 -0.0401219 0)
(-4.37579 -0.04099 -2.53507e-20)
(-4.30603 -0.0417593 0)
(-4.23443 -0.0424315 0)
(-4.16111 -0.0430083 0)
(-4.08621 -0.0434918 1.79645e-20)
(-4.00985 -0.0438842 0)
(-3.93217 -0.0441877 0)
(-3.85329 -0.0444051 1.17749e-20)
(-3.77334 -0.0445391 9.57838e-21)
(-3.69243 -0.0445926 0)
(-3.6107 -0.044569 4.97065e-21)
(-3.52824 -0.0444718 0)
(-3.44518 -0.0443049 1.11979e-22)
(-3.36162 -0.0440731 0)
(-3.27766 -0.0437821 -1.0393e-20)
(-3.1934 -0.0434404 0)
(-3.10893 -0.0430603 2.16529e-20)
(-3.02432 -0.0426608 0)
(-2.93966 -0.042271 0)
(-2.85498 -0.041935 0)
(-2.77035 -0.0417164 -4.68876e-20)
(-2.68576 -0.041699 0)
(-2.60124 -0.0419728 6.11906e-20)
(-2.51675 -0.0425907 0)
(-2.43226 -0.0434869 -7.68924e-20)
(-2.34802 -0.0443799 -8.52867e-20)
(-2.26427 -0.044809 -9.40096e-20)
(-2.18127 -0.0445784 0)
(-2.09919 -0.0439659 0)
(-2.01803 -0.0432669 0)
(-1.93782 -0.0425622 0)
(-1.85856 -0.0418625 0)
(-1.78028 -0.0411686 0)
(-1.70299 -0.0404822 0)
(-1.62673 -0.0398074 0)
(-1.55152 -0.0391497 1.93351e-19)
(-1.47737 -0.0385165 2.07712e-19)
(-1.4043 -0.037913 0)
(-1.33231 -0.0373275 0)
(-1.26145 -0.0367011 0)
(-1.19175 -0.0360431 2.75187e-19)
(-1.1232 -0.0354108 0)
(-1.05581 -0.0347964 0)
(-0.989589 -0.0342022 0)
(-0.92453 -0.0336296 0)
(-0.860635 -0.0330807 -3.92272e-19)
(-0.797903 -0.0325581 0)
(-0.736331 -0.032065 0)
(-0.67591 -0.0316047 4.9091e-19)
(-0.616636 -0.0311789 -5.30815e-19)
(-0.5585 -0.030791 0)
(-0.501496 -0.0304521 -6.24961e-19)
(-0.44561 -0.0301867 0)
(-0.390823 -0.0300406 7.44721e-19)
(-0.337113 -0.0300211 0)
(-0.284468 -0.0300887 0)
(-0.23287 -0.030233 0)
(-0.182293 -0.0304651 0)
(-0.13271 -0.0308008 0)
(-0.0841696 -0.0312594 -2.86625e-18)
(-0.0368973 -0.0317127 -3.30248e-18)
(0.00919235 -0.0313508 0)
(0.0546159 -0.029793 0)
(0.0993459 -0.0279392 0)
(0.143247 -0.0262282 2.67312e-18)
(0.186231 -0.0247016 0)
(0.228284 -0.0233328 0)
(0.269426 -0.0220991 0)
(0.309689 -0.0209807 2.03392e-18)
(0.349102 -0.0199608 -1.92839e-18)
(0.387693 -0.019025 0)
(0.425491 -0.0181623 0)
(0.462521 -0.0173628 -1.68314e-18)
(0.498811 -0.0166196 -1.61883e-18)
(0.534382 -0.015926 0)
(0.56926 -0.0152775 0)
(0.603468 -0.0146689 1.46137e-18)
(0.637028 -0.0140975 -1.41809e-18)
(0.669959 -0.01356 0)
(0.702279 -0.0130543 0)
(0.734011 -0.0125779 -1.30825e-18)
(0.765175 -0.0121292 0)
(0.795795 -0.011706 0)
(0.825895 -0.011307 -1.22099e-18)
(0.855496 -0.0109305 0)
(0.884625 -0.0105753 -1.172e-18)
(0.913304 -0.0102403 0)
(0.941557 -0.00992422 0)
(0.969409 -0.00962623 0)
(0.996883 -0.0093448 1.09015e-18)
(1.024 -0.00907934 0)
(1.05079 -0.00882784 0)
(1.07726 -0.00858966 0)
(1.10343 -0.00836202 0)
(1.12931 -0.00814369 0)
(1.15491 -0.00793061 0)
(1.18021 -0.0077201 9.81813e-19)
(1.20521 -0.00750577 9.68986e-19)
(1.22984 -0.00728189 0)
(1.25406 -0.00703765 0)
(1.27774 -0.00676086 0)
(1.30073 -0.00643147 -9.24054e-19)
(1.32278 -0.00602177 0)
(1.34349 -0.00548951 1.81341e-18)
(1.3624 -0.00475559 -1.80026e-18)
(1.37811 -0.00370697 -1.79169e-18)
(1.39069 -0.00195526 1.79012e-18)
(1.39097 0.00137956 -1.79602e-18)
(1.38834 0.00810738 1.80856e-18)
(1.3089 0.0198565 0)
(0.0970886 -0.273032 0)
(0.333143 -0.682347 0)
(0.513005 -0.70533 1.57193e-19)
(0.610038 -0.569117 0)
(0.660465 -0.406175 -1.11206e-19)
(0.680238 -0.250842 -1.08258e-19)
(0.673551 -0.109009 -5.63965e-20)
(0.642468 0.0188576 -5.63176e-20)
(0.599047 0.128561 0)
(0.539209 0.214663 -6.10122e-20)
(0.461713 0.269285 0)
(0.366468 0.283795 0)
(0.249607 0.255836 1.71805e-19)
(0.100632 0.21143 9.92006e-20)
(-0.0861617 0.209148 -1.84048e-19)
(-0.314526 0.276984 -1.42219e-19)
(-0.594488 0.389042 -5.66014e-20)
(-0.92107 0.517749 0)
(-1.27599 0.644362 0)
(-1.63302 0.756585 0)
(-1.98576 0.842405 -2.83051e-20)
(-2.33137 0.895358 0)
(-2.66073 0.917743 6.8775e-20)
(-2.96647 0.913402 0)
(-3.24482 0.886303 0)
(-3.49399 0.84166 1.9804e-20)
(-3.71289 0.784859 0)
(-3.9024 0.721397 -1.97592e-20)
(-4.06455 0.655414 -4.17914e-20)
(-4.20287 0.589582 2.01742e-20)
(-4.32025 0.526012 0)
(-4.41959 0.466432 0)
(-4.50358 0.41165 0)
(-4.5746 0.361999 -4.4257e-20)
(-4.6347 0.317428 -4.47601e-20)
(-4.68554 0.277659 -2.21884e-20)
(-4.72848 0.24228 0)
(-4.76464 0.210808 4.5295e-20)
(-4.79488 0.182747 0)
(-4.81991 0.157619 -4.58578e-20)
(-4.84033 0.134986 0)
(-4.85661 0.114456 0)
(-4.86917 0.0956914 4.60573e-20)
(-4.8784 0.0784049 0)
(-4.88461 0.0623578 1.38053e-19)
(-4.88813 0.0473581 -4.55691e-20)
(-4.88924 0.0332732 0)
(-4.88817 0.0200773 -4.4895e-20)
(-4.88519 0.00789125 -4.44345e-20)
(-4.88056 -0.00312363 0)
(-4.87331 -0.0130362 0)
(-4.86238 -0.0221442 0)
(-4.84777 -0.0306816 0)
(-4.82937 -0.038763 0)
(-4.80723 -0.0464568 4.01587e-20)
(-4.78139 -0.0537993 7.90457e-20)
(-4.75194 -0.0608112 -3.83789e-20)
(-4.71895 -0.0675033 0)
(-4.68253 -0.0738814 7.33601e-20)
(-4.64275 -0.0799478 -3.59028e-20)
(-4.59972 -0.0857032 0)
(-4.55355 -0.0911472 -3.31998e-20)
(-4.50433 -0.0962799 0)
(-4.45217 -0.101103 0)
(-4.39719 -0.105617 -5.97507e-20)
(-4.33951 -0.109823 2.83132e-20)
(-4.27924 -0.11372 -5.45539e-20)
(-4.21651 -0.117313 5.18324e-20)
(-4.15143 -0.120604 2.42175e-20)
(-4.08414 -0.123599 0)
(-4.01476 -0.126301 2.12818e-20)
(-3.94343 -0.128717 0)
(-3.87026 -0.130855 0)
(-3.79539 -0.13272 0)
(-3.71894 -0.134321 1.55497e-20)
(-3.64105 -0.135667 0)
(-3.56183 -0.136767 2.35897e-20)
(-3.48141 -0.137632 -2.97034e-20)
(-3.39992 -0.13827 -7.84953e-21)
(-3.31746 -0.138694 0)
(-3.23416 -0.138913 -4.04516e-21)
(-3.15013 -0.13894 0)
(-3.06548 -0.138787 -9.14576e-23)
(-2.98031 -0.138465 0)
(-2.89472 -0.137987 8.32319e-21)
(-2.80882 -0.137365 -2.39962e-20)
(-2.72269 -0.13661 -1.7186e-20)
(-2.63643 -0.135733 0)
(-2.55014 -0.134742 0)
(-2.46389 -0.133642 0)
(-2.37778 -0.132432 3.64263e-20)
(-2.29194 -0.131104 0)
(-2.20649 -0.129628 -4.69108e-20)
(-2.1216 -0.127948 0)
(-2.03738 -0.126013 1.72688e-19)
(-1.95392 -0.12385 6.39101e-20)
(-1.87122 -0.121565 6.99497e-20)
(-1.78922 -0.11926 0)
(-1.70792 -0.116994 0)
(-1.62735 -0.114761 0)
(-1.54759 -0.112539 0)
(-1.46868 -0.110315 0)
(-1.39068 -0.108084 2.2019e-19)
(-1.31361 -0.105847 2.35709e-19)
(-1.23749 -0.103608 0)
(-1.16237 -0.10137 -1.35154e-19)
(-1.08826 -0.0991347 -1.4395e-19)
(-1.01518 -0.0969044 0)
(-0.943171 -0.0946812 -3.23928e-19)
(-0.872239 -0.0924693 0)
(-0.802376 -0.0902828 1.81812e-19)
(-0.733594 -0.088127 0)
(-0.665904 -0.0860021 0)
(-0.599309 -0.0839104 -4.35591e-19)
(-0.533813 -0.0818534 0)
(-0.469415 -0.0798327 2.45471e-19)
(-0.406117 -0.0778514 0)
(-0.343916 -0.0759154 0)
(-0.282807 -0.0740332 2.90537e-19)
(-0.222781 -0.0722024 3.09897e-19)
(-0.16383 -0.070418 0)
(-0.10595 -0.068683 -3.47314e-19)
(-0.0491473 -0.0669975 0)
(0.00658305 -0.0653522 3.83007e-19)
(0.0612836 -0.063741 7.65539e-19)
(0.114986 -0.0621758 0)
(0.16769 -0.0606711 0)
(0.219396 -0.0592308 0)
(0.27012 -0.0578528 0)
(0.319895 -0.0565388 7.08733e-19)
(0.368794 -0.0552766 2.095e-18)
(0.416905 -0.0538836 0)
(0.464124 -0.05222 0)
(0.510316 -0.0504399 0)
(0.555562 -0.0486929 -6.65213e-19)
(0.599939 -0.0470262 0)
(0.643474 -0.0454469 0)
(0.686184 -0.0439524 1.28718e-18)
(0.72809 -0.0425362 6.36581e-19)
(0.769212 -0.0411914 6.32061e-19)
(0.809571 -0.039911 0)
(0.84919 -0.0386897 0)
(0.888091 -0.0375227 6.15535e-19)
(0.926296 -0.0364066 -6.09308e-19)
(0.963828 -0.035338 0)
(1.00071 -0.0343145 0)
(1.03696 -0.0333335 -5.96457e-19)
(1.0726 -0.0323938 1.7754e-18)
(1.10765 -0.0314935 0)
(1.14213 -0.0306321 0)
(1.17607 -0.029808 5.7998e-19)
(1.20947 -0.0290206 0)
(1.24237 -0.0282681 1.14422e-18)
(1.27479 -0.0275502 -5.6817e-19)
(1.30674 -0.0268649 0)
(1.33826 -0.0262124 5.62042e-19)
(1.36936 -0.0255905 1.11679e-18)
(1.40007 -0.0249992 0)
(1.4304 -0.0244362 0)
(1.46038 -0.0239009 -5.49205e-19)
(1.49003 -0.0233908 0)
(1.51936 -0.0229042 1.08575e-18)
(1.54841 -0.0224375 0)
(1.57716 -0.0219873 0)
(1.60565 -0.0215485 0)
(1.63386 -0.0211141 0)
(1.66179 -0.0206756 -5.2881e-19)
(1.68942 -0.0202204 -5.26088e-19)
(1.71672 -0.0197326 0)
(1.74362 -0.0191888 0)
(1.77003 -0.0185583 0)
(1.79582 -0.0177945 5.16205e-19)
(1.82077 -0.016831 0)
(1.84457 -0.0155647 -1.02522e-18)
(1.86677 -0.0138179 1.02309e-18)
(1.88649 -0.011307 1.02279e-18)
(1.90324 -0.00729563 1.02403e-18)
(1.91345 -0.000500476 1.02944e-18)
(1.92567 0.0124676 1.02092e-18)
(1.90612 0.0362432 0)
(0.118568 -0.862463 0)
(0.26667 -1.0528 0)
(0.31336 -0.822595 -1.25652e-19)
(0.312291 -0.580488 -1.08187e-19)
(0.294442 -0.369799 1.00689e-19)
(0.262771 -0.18446 1.00992e-19)
(0.216061 -0.0188597 -6.44764e-22)
(0.15361 0.128931 0)
(0.0752593 0.259386 0)
(-0.0202628 0.369997 0)
(-0.136663 0.455126 0)
(-0.282198 0.515827 0)
(-0.469894 0.570223 -2.65533e-19)
(-0.709811 0.646457 0)
(-0.997417 0.760447 6.57319e-20)
(-1.31661 0.902695 5.67306e-20)
(-1.64954 1.04982 0)
(-1.9797 1.18208 0)
(-2.2922 1.28745 0)
(-2.57484 1.36001 0)
(-2.82196 1.39482 3.48056e-20)
(-3.03397 1.3908 0)
(-3.21234 1.35317 -3.22813e-20)
(-3.36015 1.28982 0)
(-3.48177 1.20795 0)
(-3.58174 1.11391 0)
(-3.66488 1.01369 -6.85704e-20)
(-3.73547 0.912529 0)
(-3.79702 0.814499 3.31301e-20)
(-3.85227 0.722316 -7.07046e-20)
(-3.9031 0.637458 0)
(-3.95079 0.560624 0)
(-3.99606 0.491845 0)
(-4.03928 0.430721 3.65689e-20)
(-4.08054 0.3766 3.7152e-20)
(-4.11979 0.328709 0)
(-4.15691 0.286255 0)
(-4.1917 0.248481 -7.77679e-20)
(-4.22401 0.214697 -7.81536e-20)
(-4.25365 0.1843 7.83798e-20)
(-4.2805 0.156776 0)
(-4.30443 0.131699 0)
(-4.32536 0.108725 0)
(-4.34322 0.0875729 0)
(-4.35794 0.0680112 -7.6939e-20)
(-4.36947 0.0498418 -7.68363e-20)
(-4.37774 0.0328811 7.619e-20)
(-4.38261 0.0169277 0)
(-4.3839 0.00172378 0)
(-4.38146 -0.0130171 0)
(-4.37523 -0.0274167 0)
(-4.36528 -0.0413849 -7.10087e-20)
(-4.35167 -0.0548357 0)
(-4.33441 -0.0677567 0)
(-4.31356 -0.0801522 -6.68916e-20)
(-4.28917 -0.0920309 -6.48637e-20)
(-4.2613 -0.1034 0)
(-4.23003 -0.114264 1.24353e-19)
(-4.19542 -0.124624 -5.99204e-20)
(-4.15757 -0.134479 5.8142e-20)
(-4.11657 -0.143829 0)
(-4.07251 -0.152671 0)
(-4.02549 -0.161003 0)
(-3.97561 -0.168825 0)
(-3.92299 -0.176138 4.83016e-20)
(-3.86773 -0.182945 9.35315e-20)
(-3.80994 -0.189245 4.39327e-20)
(-3.74976 -0.195042 -4.16588e-20)
(-3.68728 -0.20034 0)
(-3.62265 -0.205148 7.5166e-20)
(-3.55597 -0.209472 7.02793e-20)
(-3.48738 -0.213323 6.52761e-20)
(-3.417 -0.21671 -6.01572e-20)
(-3.34496 -0.219644 0)
(-3.27137 -0.22214 -7.36825e-20)
(-3.19637 -0.224209 0)
(-3.12007 -0.225867 1.99532e-20)
(-3.04261 -0.227129 1.57272e-20)
(-2.96408 -0.228011 0)
(-2.88463 -0.22853 0)
(-2.80436 -0.228703 1.506e-20)
(-2.72337 -0.228548 0)
(-2.6418 -0.228084 2.617e-21)
(-2.55973 -0.227328 0)
(-2.47728 -0.226301 1.03149e-20)
(-2.39454 -0.225021 3.5368e-20)
(-2.31162 -0.223508 0)
(-2.2286 -0.221781 0)
(-2.1456 -0.219859 0)
(-2.0627 -0.217759 4.4925e-20)
(-1.98 -0.215496 0)
(-1.8976 -0.213082 5.9758e-20)
(-1.81558 -0.210516 0)
(-1.73406 -0.207785 0)
(-1.65308 -0.204861 -1.67801e-19)
(-1.57269 -0.201729 0)
(-1.4929 -0.198406 -9.97021e-20)
(-1.41372 -0.194936 0)
(-1.33519 -0.191376 -1.16998e-19)
(-1.25735 -0.187762 0)
(-1.18027 -0.184114 0)
(-1.10399 -0.180437 0)
(-1.02857 -0.176738 -4.6402e-19)
(-0.954031 -0.173024 -1.65497e-19)
(-0.880405 -0.169302 0)
(-0.807721 -0.165579 0)
(-0.736004 -0.161859 0)
(-0.665275 -0.158149 0)
(-0.595551 -0.154452 2.19355e-19)
(-0.526843 -0.150774 -4.59527e-19)
(-0.459158 -0.147126 -2.43219e-19)
(-0.392508 -0.143514 5.08783e-19)
(-0.326902 -0.139945 5.34616e-19)
(-0.262347 -0.136425 2.81977e-19)
(-0.198843 -0.132956 0)
(-0.136393 -0.129537 6.17503e-19)
(-0.0749979 -0.126172 0)
(-0.0146588 -0.122865 -6.74325e-19)
(0.0446308 -0.119616 -3.45234e-19)
(0.102884 -0.116427 0)
(0.160106 -0.1133 6.9325e-19)
(0.216305 -0.110239 3.48886e-19)
(0.271489 -0.107244 0)
(0.325669 -0.104303 3.48771e-19)
(0.378852 -0.101407 -1.05294e-18)
(0.431049 -0.0985662 0)
(0.482273 -0.0957902 0)
(0.53254 -0.0930814 0)
(0.581868 -0.0904408 0)
(0.63028 -0.0878728 -7.07786e-19)
(0.677812 -0.0853844 -7.10267e-19)
(0.724483 -0.0829916 0)
(0.770259 -0.080679 0)
(0.815125 -0.0784072 0)
(0.859137 -0.0761783 0)
(0.902338 -0.0740079 0)
(0.944742 -0.071904 0)
(0.986362 -0.0698692 -7.1399e-19)
(1.02721 -0.0679036 -1.08607e-21)
(1.06732 -0.0660056 0)
(1.10669 -0.0641733 0)
(1.14535 -0.0624044 -7.13791e-19)
(1.18332 -0.060697 0)
(1.22062 -0.0590493 7.1482e-19)
(1.25728 -0.0574598 7.13952e-19)
(1.2933 -0.0559269 0)
(1.32872 -0.0544492 0)
(1.36356 -0.0530258 -7.1445e-19)
(1.39782 -0.0516561 -1.42708e-18)
(1.43155 -0.0503395 0)
(1.46474 -0.049075 0)
(1.49744 -0.047862 0)
(1.52964 -0.046699 -7.13056e-19)
(1.56139 -0.0455856 7.12656e-19)
(1.5927 -0.04452 0)
(1.62358 -0.0435022 1.42236e-18)
(1.65407 -0.0425298 7.10145e-19)
(1.68418 -0.0416027 -1.42026e-18)
(1.71394 -0.0407179 0)
(1.74336 -0.0398748 0)
(1.77247 -0.0390693 -1.41647e-18)
(1.80128 -0.0382993 -7.07965e-19)
(1.82981 -0.0375592 0)
(1.85808 -0.0368444 0)
(1.88609 -0.0361463 0)
(1.91384 -0.0354554 0)
(1.94134 -0.0347576 -1.40674e-18)
(1.96857 -0.0340348 0)
(1.9955 -0.0332621 0)
(2.02208 -0.0324049 0)
(2.04824 -0.0314157 0)
(2.07386 -0.0302257 0)
(2.09876 -0.0287346 0)
(2.12269 -0.0267903 -1.39833e-18)
(2.14532 -0.0241417 0)
(2.16596 -0.0203835 0)
(2.18438 -0.014724 -2.8189e-18)
(2.1978 -0.00584041 1.41958e-18)
(2.21244 0.00892384 -1.41761e-18)
(2.20733 0.03632 1.41336e-18)
(0.0330252 -1.16478 0)
(0.0677583 -1.02535 3.60321e-19)
(0.0315862 -0.742355 0)
(-0.0133892 -0.501716 1.10869e-19)
(-0.0694016 -0.278637 0)
(-0.137983 -0.0686881 0)
(-0.22199 0.128468 -8.25495e-20)
(-0.323807 0.312066 0)
(-0.44557 0.481685 0)
(-0.589926 0.637914 0)
(-0.760761 0.783385 0)
(-0.963266 0.924298 0)
(-1.19982 1.06869 2.02994e-19)
(-1.46438 1.21958 9.1921e-20)
(-1.74223 1.37032 -8.32632e-20)
(-2.01504 1.50745 0)
(-2.26743 1.61738 0)
(-2.48969 1.69112 0)
(-2.67726 1.72534 0)
(-2.82861 1.72161 0)
(-2.9463 1.68372 6.00412e-20)
(-3.03608 1.61664 5.87436e-20)
(-3.10418 1.5273 -5.79168e-20)
(-3.15693 1.42351 5.76429e-20)
(-3.19962 1.3119 0)
(-3.23655 1.19782 0)
(-3.27111 1.08558 5.58526e-20)
(-3.30558 0.978384 0)
(-3.34122 0.878293 0)
(-3.37849 0.786302 5.87098e-20)
(-3.41739 0.702626 6.15107e-20)
(-3.45756 0.627022 6.22196e-20)
(-3.49848 0.558952 0)
(-3.53952 0.497718 0)
(-3.58008 0.44256 -6.40173e-20)
(-3.6196 0.392725 0)
(-3.65759 0.347506 0)
(-3.69364 0.306265 6.42805e-20)
(-3.7274 0.26844 -6.59876e-20)
(-3.75861 0.233549 6.59944e-20)
(-3.78704 0.201179 0)
(-3.81251 0.170984 0)
(-3.83486 0.14267 1.29905e-19)
(-3.85397 0.115988 0)
(-3.86973 0.090728 1.28504e-19)
(-3.88205 0.0667163 1.90844e-19)
(-3.89085 0.0438102 -1.89195e-19)
(-3.89607 0.0218903 1.2519e-19)
(-3.89765 0.000839706 0)
(-3.8956 -0.0194567 0)
(-3.88997 -0.0390744 1.19713e-19)
(-3.8808 -0.0580308 5.8324e-20)
(-3.86812 -0.0763222 0)
(-3.85197 -0.0939469 0)
(-3.83239 -0.110904 5.48133e-20)
(-3.80943 -0.127193 1.08075e-19)
(-3.78314 -0.142811 0)
(-3.75358 -0.157757 -1.01616e-19)
(-3.72083 -0.172026 9.97844e-20)
(-3.68495 -0.185612 -9.68099e-20)
(-3.64604 -0.198512 0)
(-3.60418 -0.210721 0)
(-3.55947 -0.222231 0)
(-3.51199 -0.233041 0)
(-3.46187 -0.243156 0)
(-3.40919 -0.252575 -7.57209e-20)
(-3.35408 -0.261297 0)
(-3.29663 -0.269328 0)
(-3.23698 -0.276674 0)
(-3.17522 -0.283345 -1.22199e-19)
(-3.1115 -0.28935 -5.64892e-20)
(-3.04591 -0.294703 -5.23856e-20)
(-2.97859 -0.299416 9.76019e-20)
(-2.90965 -0.303506 -4.51413e-20)
(-2.83922 -0.30699 3.95863e-20)
(-2.76742 -0.309886 0)
(-2.69435 -0.312213 -3.06588e-20)
(-2.62015 -0.313994 0)
(-2.54493 -0.315249 0)
(-2.4688 -0.316001 0)