/*--------------------------------*- C++ -*----------------------------------*\
  =========                 |
  \\      /  F ield         | OpenFOAM: The Open Source CFD Toolbox
   \\    /   O peration     | Website:  https://openfoam.org
    \\  /    A nd           | Version:  8
     \\/     M anipulation  |
\*---------------------------------------------------------------------------*/
FoamFile
{
    version     2.0;
    format      ascii;
    class       volScalarField;
    location    "4500";
    object      p;
}
// * * * * * * * * * * * * * * * * * * * * * * * * * * * * * * * * * * * * * //

dimensions      [0 2 -2 0 0 0 0];

internalField   nonuniform List<scalar> 
12225
(
514.675
55.5275
2.36313
0.281028
-1.89944
-3.37497
-3.8122
-4.02261
-4.23235
-4.36924
-4.41637
-4.42597
-4.42894
-4.45689
-4.51026
-4.57671
-4.72211
-4.94472
-122.18
0.238219
-2.71909
-0.765767
-2.21713
-3.52556
-3.95328
-4.13738
-4.28105
-4.38503
-4.45994
-4.51824
-4.56916
-4.60152
-4.62245
-4.64798
-4.71462
-4.80867
-200.646
-16.1491
-2.3471
-0.358989
-1.90147
-3.24544
-3.77284
-4.02307
-4.19575
-4.32
-4.41267
-4.47986
-4.52847
-4.55369
-4.56873
-4.58428
-4.61616
-4.59936
-110.617
-10.9748
-2.17781
-0.432697
-1.7884
-3.02946
-3.60194
-3.90912
-4.11838
-4.26416
-4.36652
-4.43719
-4.48589
-4.51445
-4.53178
-4.5396
-4.53857
-4.46988
-61.5735
-8.14654
-3.62327
-1.2107
-2.01591
-2.99902
-3.5299
-3.84966
-4.07216
-4.22683
-4.33445
-4.40909
-4.46044
-4.49154
-4.50681
-4.50418
-4.47798
-4.38783
-45.7315
-8.78597
-5.25948
-2.20104
-2.43066
-3.1018
-3.53726
-3.83422
-4.05019
-4.20401
-4.31305
-4.38977
-4.44219
-4.4731
-4.48464
-4.47389
-4.4338
-4.33924
-35.7954
-9.27723
-6.38127
-3.12549
-2.92268
-3.29076
-3.60467
-3.85555
-4.05096
-4.19613
-4.30211
-4.37789
-4.42949
-4.45921
-4.46813
-4.45351
-4.40952
-4.32244
-27.7788
-8.90802
-6.97474
-3.80375
-3.36276
-3.4996
-3.70165
-3.90113
-4.07048
-4.20274
-4.30249
-4.37523
-4.42514
-4.45396
-4.46229
-4.44797
-4.40698
-4.33222
-21.6909
-8.52098
-7.13545
-4.31162
-3.73006
-3.70721
-3.81749
-3.96584
-4.10613
-4.22239
-4.31345
-4.38151
-4.42895
-4.45688
-4.46558
-4.4536
-4.41859
-4.35758
-16.6136
-8.14166
-7.08911
-4.75652
-4.08438
-3.93558
-3.96045
-4.0539
-4.16025
-4.25645
-4.3359
-4.39751
-4.44172
-4.46889
-4.47907
-4.47157
-4.44563
-4.40113
-12.6399
-7.68187
-6.90714
-5.10283
-4.40801
-4.17157
-4.12316
-4.16271
-4.2329
-4.30626
-4.37184
-4.42556
-4.46605
-4.49285
-4.50584
-4.50498
-4.4907
-4.46451
-9.70002
-7.14979
-6.63025
-5.32768
-4.67988
-4.39838
-4.29571
-4.28798
-4.32315
-4.3728
-4.42332
-4.46834
-4.50498
-4.53203
-4.54919
-4.55678
-4.55587
-4.54857
-7.66709
-6.60575
-6.30704
-5.43267
-4.88434
-4.59854
-4.46492
-4.42176
-4.42704
-4.45482
-4.49079
-4.52739
-4.56069
-4.58886
-4.61137
-4.62856
-4.64163
-4.65252
-6.37202
-6.11411
-5.98678
-5.44142
-5.01701
-4.75882
-4.61738
-4.55372
-4.53771
-4.54829
-4.57236
-4.6022
-4.63344
-4.66386
-4.69262
-4.71985
-4.74642
-4.77377
-5.62379
-5.72347
-5.71011
-5.39195
-5.08703
-4.87411
-4.74289
-4.67333
-4.64632
-4.64652
-4.66316
-4.68926
-4.72052
-4.75453
-4.79017
-4.82719
-4.86599
-4.90731
-5.2445
-5.46129
-5.50922
-5.32866
-5.11613
-4.94906
-4.83678
-4.77178
-4.74309
-4.74023
-4.75489
-4.78116
-4.81509
-4.85423
-4.89719
-4.94337
-4.99265
-5.0452
-5.10329
-5.34542
-5.41808
-5.30008
-5.13605
-4.99692
-4.89926
-4.84135
-4.81624
-4.81603
-4.83387
-4.86445
-4.90403
-4.95007
-5.00095
-5.05573
-5.11389
-5.1752
-5.14105
-5.40125
-5.47534
-5.34919
-5.17536
-5.02962
-4.92935
-4.87213
-4.85019
-4.85502
-4.8792
-4.91702
-4.96438
-5.01844
-5.07734
-5.13984
-5.20521
-5.273
-5.39336
-5.65572
-5.69141
-5.47628
-5.22704
-5.03666
-4.91552
-4.85244
-4.83337
-4.84563
-4.87925
-4.92707
-4.98419
-5.04737
-5.11451
-5.18428
-5.25587
-5.32887
-6.00277
-6.13757
-6.04333
-5.63581
-5.24781
-4.98803
-4.84149
-4.77653
-4.76699
-4.79333
-4.84186
-4.90368
-4.97318
-5.04696
-5.12298
-5.20003
-5.27747
-5.35507
-7.25041
-6.89023
-6.4949
-5.76259
-5.18382
-4.85369
-4.69706
-4.6469
-4.6608
-4.71128
-4.78146
-4.86142
-4.94567
-5.03114
-5.11634
-5.20051
-5.28338
-5.36507
-9.64193
-7.96531
-6.98334
-5.77263
-4.98031
-4.61292
-4.4827
-4.47446
-4.52928
-4.61457
-4.71224
-4.8133
-4.91326
-5.01042
-5.10424
-5.19478
-5.2823
-5.36732
-13.9831
-9.39181
-7.40393
-5.57032
-4.59555
-4.26501
-4.21588
-4.28052
-4.39266
-4.52008
-4.6481
-4.77045
-4.88533
-4.9926
-5.09341
-5.18888
-5.27984
-5.36718
-20.8907
-10.9548
-7.55496
-5.05804
-4.01668
-3.83669
-3.93085
-4.09502
-4.27314
-4.44396
-4.6004
-4.74154
-4.86819
-4.98278
-5.08802
-5.18636
-5.27923
-5.36762
-29.7373
-11.9502
-7.03431
-4.12693
-3.26489
-3.37885
-3.67198
-3.94781
-4.19018
-4.39821
-4.57673
-4.7308
-4.86495
-4.98286
-5.08981
-5.18894
-5.28214
-5.37026
-43.1073
-12.6147
-5.47359
-2.72978
-2.41411
-2.96433
-3.48522
-3.86342
-4.15477
-4.38716
-4.57885
-4.73902
-4.87448
-4.99126
-5.09691
-5.19564
-5.28833
-5.37559
-84.6002
-17.3742
-3.6649
-1.26626
-1.69688
-2.72273
-3.43716
-3.87102
-4.17468
-4.41192
-4.60812
-4.76911
-4.90029
-5.00732
-5.1041
-5.20245
-5.29527
-5.38003
-177.887
-26.8504
-3.68096
-0.771041
-1.53595
-2.84396
-3.61506
-4.01632
-4.2723
-4.46863
-4.65238
-4.81791
-4.9528
-5.05009
-5.13207
-5.2197
-5.30677
-5.38731
-154.791
-9.62807
-3.27319
-1.06912
-1.84396
-3.22177
-3.91465
-4.22608
-4.41875
-4.5605
-4.70369
-4.85616
-5.00609
-5.12298
-5.20829
-5.29334
-5.37164
-5.44575
428.056
66.6047
7.05515
1.59859
-0.916459
-2.85782
-3.65394
-3.99577
-4.31158
-4.57846
-4.7092
-4.75673
-4.8027
-4.90461
-5.04004
-5.14464
-5.23699
-5.32738
-8.52576
-8.51293
-8.50229
-8.54367
-8.6367
-8.7404
-8.82033
-8.86034
-8.86399
-8.84632
-8.8189
-8.79033
-8.76866
-8.75986
-8.76487
-8.7775
-8.78872
-8.79385
-8.79308
-8.79102
-8.79551
-8.82822
-8.91844
-9.0898
-9.34282
-9.66059
-10.0317
-10.4455
-10.8865
-11.3386
-11.7865
-12.2185
-12.6252
-13.0001
-13.3387
-13.6387
-13.899
-14.1197
-14.3015
-14.4453
-14.5525
-14.6243
-14.6622
-14.6675
-14.6415
-14.5856
-14.5014
-14.3913
-14.2563
-14.0945
-13.903
-13.6834
-13.4382
-13.1692
-12.8776
-12.5645
-12.231
-11.8781
-11.5068
-11.1182
-10.7132
-10.2932
-9.85909
-9.41215
-8.95354
-8.48444
-8.00605
-7.51957
-7.02619
-6.5271
-6.02347
-5.51642
-5.00709
-4.49653
-3.98581
-3.47592
-2.96782
-2.46242
-1.96058
-1.4631
-0.970759
-0.48424
-0.00419611
0.468782
0.934158
1.39145
1.84024
2.28014
2.71085
3.1321
3.54369
3.94544
4.33718
4.71889
5.09081
5.45294
5.80482
6.14607
6.47666
6.79683
7.10683
7.40686
7.6971
7.97773
8.24894
8.51094
8.76392
9.00811
9.24373
9.47099
9.6901
9.90131
10.1049
10.301
10.49
10.6721
10.8475
11.0165
11.1792
11.336
11.487
11.6325
11.7727
11.9077
12.0378
12.1633
12.2842
12.4008
12.5132
12.6217
12.7263
12.8274
12.9254
13.0201
13.1115
13.1998
13.2852
13.3676
13.4474
13.5246
13.5993
13.6716
13.7417
13.8096
13.8753
13.9391
14.0009
14.0609
14.1191
14.1755
14.2303
14.2834
14.3349
14.3849
14.4334
14.4804
14.526
14.5702
14.6129
14.6544
14.6944
14.7332
14.7706
14.8068
14.8416
14.8752
14.9076
14.9389
14.969
14.9982
15.0265
15.0542
15.0817
15.1094
15.1381
15.1689
15.2043
15.2459
15.3038
15.3642
-8.58321
-8.61446
-8.68842
-8.78202
-8.88549
-8.97769
-9.03894
-9.06332
-9.04627
-8.98582
-8.89605
-8.79923
-8.71761
-8.66633
-8.64427
-8.64108
-8.65064
-8.67608
-8.71136
-8.7316
-8.75594
-8.8339
-8.99366
-9.23323
-9.54011
-9.91109
-10.3369
-10.797
-11.2699
-11.7377
-12.1878
-12.611
-13.0007
-13.3532
-13.6668
-13.941
-14.1764
-14.3739
-14.5347
-14.66
-14.7509
-14.8086
-14.834
-14.8281
-14.7916
-14.7253
-14.6294
-14.5041
-14.3499
-14.1699
-13.9678
-13.7438
-13.4971
-13.2279
-12.9366
-12.6242
-12.2915
-11.9393
-11.5688
-11.1809
-10.7767
-10.3573
-9.92378
-9.47737
-9.0192
-8.55046
-8.07235
-7.58608
-7.09282
-6.59377
-6.09009
-5.58291
-5.07336
-4.56252
-4.05143
-3.54109
-3.03246
-2.52646
-2.02395
-1.52575
-1.0326
-0.545224
-0.0642654
0.409677
0.876058
1.33439
1.78422
2.22516
2.65687
3.07904
3.4914
3.89372
4.28578
4.66745
5.03884
5.40015
5.75158
6.09316
6.42473
6.74619
7.05758
7.35902
7.65067
7.9327
8.20528
8.46862
8.72292
8.96839
9.20527
9.43379
9.65417
9.86664
10.0714
10.2688
10.459
10.6422
10.8187
10.9888
11.1526
11.3104
11.4625
11.6089
11.7501
11.8861
12.0173
12.1438
12.2658
12.3835
12.497
12.6065
12.7123
12.8141
12.9122
13.0069
13.0985
13.187
13.2726
13.3554
13.4354
13.5129
13.5879
13.6605
13.7309
13.7991
13.8652
13.9292
13.9914
14.0516
14.1101
14.1668
14.2218
14.2752
14.3269
14.3772
14.4259
14.4731
14.5189
14.5633
14.6063
14.6479
14.6881
14.727
14.7646
14.8009
14.836
14.8697
14.9023
14.9336
14.9639
14.9932
15.0216
15.0495
15.077
15.1048
15.1335
15.1642
15.199
15.2386
15.2923
15.3421
-8.71023
-8.79206
-8.91003
-9.01585
-9.09874
-9.15259
-9.17321
-9.15939
-9.10981
-9.02672
-8.91919
-8.8038
-8.70405
-8.6395
-8.61076
-8.60593
-8.62494
-8.68166
-8.78527
-8.93232
-9.12266
-9.36341
-9.65745
-9.99658
-10.3686
-10.7643
-11.1738
-11.5851
-11.9876
-12.3742
-12.7401
-13.0816
-13.396
-13.6816
-13.9374
-14.1629
-14.3578
-14.5223
-14.6566
-14.761
-14.8359
-14.8817
-14.8987
-14.8875
-14.8484
-14.782
-14.6885
-14.5679
-14.4203
-14.2466
-14.0483
-13.8264
-13.5813
-13.3137
-13.0242
-12.7136
-12.3827
-12.0324
-11.6636
-11.2774
-10.8747
-10.4567
-10.0246
-9.57934
-9.12221
-8.65437
-8.17701
-7.69133
-7.19853
-6.69979
-6.19628
-5.68914
-5.17949
-4.66841
-4.15697
-3.64616
-3.13695
-2.63026
-2.12697
-1.62788
-1.13377
-0.645353
-0.163277
0.311851
0.779482
1.23912
1.69033
2.13271
2.56594
2.98972
3.40381
3.80801
4.20217
4.58621
4.9601
5.32384
5.67747
6.021
6.35439
6.67765
6.99085
7.2941
7.58755
7.87137
8.14572
8.4108
8.66683
8.914
9.15254
9.38268
9.60465
9.81868
10.025
10.2238
10.4155
10.6001
10.778
10.9494
11.1145
11.2736
11.4269
11.5746
11.7169
11.854
11.9862
12.1135
12.2363
12.3547
12.4689
12.579
12.6853
12.7879
12.887
12.9828
13.0754
13.1649
13.2514
13.335
13.4159
13.4941
13.5699
13.6432
13.7142
13.783
13.8497
13.9143
13.977
14.0378
14.0967
14.1539
14.2093
14.2631
14.3153
14.3659
14.415
14.4626
14.5087
14.5534
14.5967
14.6386
14.6791
14.7183
14.7561
14.7927
14.8279
14.8619
14.8946
14.9262
14.9566
14.986
15.0146
15.0425
15.0701
15.0978
15.1263
15.1564
15.1899
15.2265
15.2738
15.3074
-8.74964
-8.84709
-8.94835
-9.03488
-9.09932
-9.13902
-9.15147
-9.13407
-9.0868
-9.01469
-8.92896
-8.8464
-8.7852
-8.75822
-8.77034
-8.82365
-8.92203
-9.06914
-9.26558
-9.50635
-9.78262
-10.0872
-10.4141
-10.7569
-11.1103
-11.469
-11.8278
-12.1815
-12.5253
-12.8554
-13.1683
-13.4614
-13.7325
-13.98
-14.2025
-14.3993
-14.5697
-14.7133
-14.8299
-14.9194
-14.982
-15.0175
-15.0262
-15.0081
-14.9634
-14.8924
-14.7952
-14.6723
-14.5241
-14.3512
-14.1543
-13.9339
-13.6904
-13.4245
-13.1367
-12.8277
-12.4985
-12.1498
-11.7825
-11.3977
-10.9964
-10.5796
-10.1484
-9.70406
-9.24763
-8.78033
-8.30337
-7.81792
-7.32519
-6.82636
-6.32261
-5.81508
-5.30489
-4.79314
-4.28088
-3.76913
-3.25886
-2.751
-2.24641
-1.74594
-1.25034
-0.760345
-0.276613
0.200246
0.669677
1.13118
1.58431
2.02866
2.46391
2.88975
3.30596
3.71232
4.10871
4.49504
4.87125
5.23731
5.5932
5.93889
6.27439
6.59974
6.91501
7.22033
7.51583
7.80168
8.07804
8.3451
8.60307
8.85216
9.09258
9.32456
9.54832
9.7641
9.97214
10.1727
10.366
10.5522
10.7317
10.9046
11.0712
11.2317
11.3863
11.5353
11.6789
11.8172
11.9506
12.0791
12.203
12.3226
12.4378
12.549
12.6564
12.76
12.8601
12.9569
13.0505
13.1409
13.2283
13.3128
13.3945
13.4735
13.55
13.6241
13.6958
13.7652
13.8325
13.8978
13.961
14.0224
14.0818
14.1395
14.1954
14.2497
14.3023
14.3534
14.4029
14.4508
14.4973
14.5424
14.586
14.6282
14.6691
14.7085
14.7467
14.7834
14.8189
14.8531
14.886
14.9177
14.9483
14.9778
15.0064
15.0343
15.0617
15.0891
15.1169
15.1458
15.1772
15.2097
15.249
15.2676
-8.53777
-8.62268
-8.72278
-8.81988
-8.89723
-8.94996
-8.97704
-8.97932
-8.96124
-8.93112
-8.90104
-8.88498
-8.89572
-8.94284
-9.03254
-9.16795
-9.34917
-9.57163
-9.82689
-10.1069
-10.4062
-10.7205
-11.0455
-11.3762
-11.7083
-12.038
-12.3619
-12.6769
-12.9802
-13.2695
-13.5427
-13.7982
-14.0344
-14.2502
-14.4446
-14.6167
-14.7658
-14.8914
-14.9929
-15.0701
-15.1226
-15.1502
-15.1527
-15.1302
-15.0824
-15.0095
-14.9115
-14.7886
-14.641
-14.4691
-14.2734
-14.0543
-13.8122
-13.5477
-13.2614
-12.954
-12.6262
-12.2789
-11.913
-11.5294
-11.1291
-10.7133
-10.283
-9.83929
-9.3834
-8.91651
-8.4398
-7.95445
-7.46167
-6.96265
-6.45855
-5.95054
-5.43973
-4.92722
-4.41408
-3.90132
-3.38992
-2.88082
-2.3749
-1.87298
-1.37584
-0.884215
-0.398769
0.0798828
0.55118
1.01462
1.46975
1.91617
2.35353
2.78155
3.19997
3.6086
4.00728
4.39591
4.77442
5.14277
5.50091
5.84885
6.18658
6.51415
6.83165
7.13918
7.43688
7.7249
8.00342
8.27262
8.53269
8.78384
9.02631
9.26031
9.48606
9.70378
9.91372
10.1161
10.3112
10.4992
10.6804
10.855
11.0232
11.1853
11.3414
11.492
11.637
11.7768
11.9115
12.0414
12.1667
12.2875
12.404
12.5165
12.625
12.7297
12.8309
12.9288
13.0233
13.1147
13.2029
13.2883
13.3709
13.4507
13.528
13.6028
13.6753
13.7455
13.8135
13.8794
13.9433
14.0052
14.0653
14.1235
14.18
14.2348
14.2879
14.3394
14.3894
14.4378
14.4847
14.5302
14.5742
14.6168
14.6579
14.6977
14.7362
14.7732
14.809
14.8434
14.8765
14.9084
14.9391
14.9686
14.9972
15.0249
15.052
15.0788
15.1057
15.133
15.1616
15.1894
15.221
15.2271
-8.1178
-8.20621
-8.32714
-8.44983
-8.55507
-8.63549
-8.6938
-8.73588
-8.76936
-8.80402
-8.85082
-8.92006
-9.01977
-9.15477
-9.32726
-9.53626
-9.77707
-10.0441
-10.3321
-10.6353
-10.9483
-11.2662
-11.5852
-11.9017
-12.213
-12.5169
-12.8115
-13.0953
-13.3667
-13.6245
-13.8674
-14.0943
-14.3042
-14.496
-14.6689
-14.8221
-14.9547
-15.0661
-15.1556
-15.2227
-15.267
-15.288
-15.2854
-15.259
-15.2085
-15.1337
-15.0347
-14.9115
-14.7642
-14.5931
-14.3983
-14.1803
-13.9395
-13.6764
-13.3915
-13.0855
-12.7591
-12.4132
-12.0486
-11.6662
-11.2671
-10.8523
-10.4228
-9.97989
-9.5246
-9.05816
-8.58175
-8.09655
-7.60377
-7.10459
-6.60019
-6.09173
-5.58032
-5.06709
-4.55309
-4.03935
-3.52685
-3.01652
-2.50927
-2.00592
-1.50726
-1.01402
-0.526864
-0.0464256
0.426735
0.892109
1.34924
1.79772
2.23721
2.66741
3.08805
3.49894
3.89991
4.29085
4.67168
5.04232
5.40276
5.75298
6.09299
6.42285
6.74263
7.05244
7.3524
7.64267
7.92343
8.19485
8.45712
8.71044
8.95504
9.19112
9.41891
9.63865
9.85057
10.0549
10.2519
10.4418
10.6248
10.8012
10.9711
11.1349
11.2928
11.4449
11.5916
11.7329
11.8691
12.0005
12.1272
12.2493
12.3672
12.4809
12.5907
12.6967
12.799
12.898
12.9936
13.0859
13.1752
13.2616
13.3451
13.4258
13.504
13.5797
13.653
13.7239
13.7927
13.8593
13.9239
13.9865
14.0472
14.1061
14.1632
14.2185
14.2722
14.3243
14.3747
14.4236
14.471
14.5169
14.5614
14.6044
14.6459
14.6861
14.7248
14.7622
14.7982
14.8329
14.8662
14.8983
14.929
14.9586
14.9871
15.0146
15.0413
15.0673
15.093
15.1183
15.1438
15.1668
15.1911
15.1866
-7.65279
-7.75147
-7.89353
-8.04232
-8.18026
-8.2989
-8.4018
-8.49829
-8.59779
-8.7092
-8.84016
-8.99555
-9.17811
-9.3883
-9.62441
-9.88433
-10.1651
-10.462
-10.7698
-11.0835
-11.3987
-11.7119
-12.0206
-12.3224
-12.616
-12.9
-13.1734
-13.4352
-13.6846
-13.9208
-14.1428
-14.3499
-14.5412
-14.7159
-14.8732
-15.0123
-15.1324
-15.2327
-15.3127
-15.3717
-15.4091
-15.4244
-15.4171
-15.3869
-15.3336
-15.2567
-15.1563
-15.0323
-14.8846
-14.7135
-14.5191
-14.3016
-14.0616
-13.7994
-13.5155
-13.2106
-12.8854
-12.5407
-12.1773
-11.7961
-11.3981
-10.9844
-10.556
-10.114
-9.65954
-9.19384
-8.71804
-8.23335
-7.74096
-7.24203
-6.73776
-6.22928
-5.71773
-5.20422
-4.6898
-4.17552
-3.66234
-3.15122
-2.64304
-2.13864
-1.63882
-1.1443
-0.65577
-0.173849
0.300892
0.767937
1.22683
1.67715
2.11855
2.55072
2.97341
3.38639
3.7895
4.18261
4.56563
4.93848
5.30113
5.65357
5.99581
6.32791
6.64995
6.96201
7.26422
7.55674
7.83973
8.11336
8.37782
8.63332
8.88006
9.11827
9.34817
9.56998
9.78394
9.99028
10.1892
10.3811
10.566
10.7442
10.916
11.0816
11.2412
11.395
11.5433
11.6862
11.824
11.9569
12.0851
12.2087
12.3279
12.443
12.5541
12.6614
12.765
12.8651
12.9618
13.0553
13.1457
13.233
13.3175
13.3993
13.4784
13.555
13.6291
13.701
13.7705
13.838
13.9033
13.9666
14.028
14.0876
14.1453
14.2013
14.2556
14.3082
14.3592
14.4087
14.4566
14.503
14.5479
14.5913
14.6333
14.6738
14.7129
14.7507
14.787
14.8219
14.8554
14.8876
14.9185
14.948
14.9764
15.0035
15.0296
15.0547
15.079
15.1022
15.1244
15.1425
15.1602
15.1463
-7.29714
-7.39062
-7.54265
-7.70838
-7.87521
-8.03619
-8.19079
-8.3469
-8.51277
-8.69419
-8.89523
-9.11707
-9.35831
-9.61808
-9.89578
-10.1891
-10.4944
-10.8071
-11.1231
-11.4389
-11.7513
-12.0583
-12.358
-12.6489
-12.9301
-13.2007
-13.46
-13.7074
-13.9423
-14.1641
-14.3721
-14.5657
-14.7443
-14.907
-15.0532
-15.1821
-15.293
-15.3851
-15.4578
-15.5103
-15.5421
-15.5527
-15.5414
-15.5078
-15.4517
-15.3727
-15.2705
-15.1451
-14.9965
-14.8247
-14.6299
-14.4123
-14.1722
-13.9101
-13.6266
-13.3221
-12.9974
-12.6533
-12.2905
-11.9101
-11.5129
-11.1
-10.6723
-10.2312
-9.77755
-9.31264
-8.83761
-8.35364
-7.86192
-7.36362
-6.8599
-6.35191
-5.84076
-5.32756
-4.81336
-4.29918
-3.78601
-3.27478
-2.76638
-2.26164
-1.76136
-1.26627
-0.77704
-0.294306
0.181362
0.649448
1.10949
1.56106
2.00382
2.43744
2.86167
3.27626
3.68106
4.07591
4.46072
4.83541
5.19994
5.5543
5.8985
6.23259
6.55664
6.87074
7.17502
7.46962
7.75469
8.03041
8.29697
8.55455
8.80337
9.04364
9.27559
9.49943
9.7154
9.92372
10.1246
10.3184
10.5052
10.6853
10.8589
11.0263
11.1876
11.3432
11.4931
11.6377
11.7771
11.9116
12.0412
12.1663
12.287
12.4035
12.516
12.6246
12.7294
12.8308
12.9287
13.0233
13.1148
13.2033
13.2888
13.3716
13.4517
13.5292
13.6043
13.677
13.7474
13.8157
13.8818
13.9459
14.0081
14.0683
14.1268
14.1834
14.2383
14.2916
14.3432
14.3932
14.4416
14.4885
14.5339
14.5778
14.6202
14.6612
14.7007
14.7387
14.7754
14.8106
14.8443
14.8766
14.9075
14.937
14.9652
14.9919
15.0174
15.0414
15.0641
15.0849
15.1038
15.1172
15.1289
15.1069
-7.10682
-7.19293
-7.34704
-7.51941
-7.7028
-7.89511
-8.0929
-8.29817
-8.51547
-8.74725
-8.9938
-9.25508
-9.53103
-9.82126
-10.1239
-10.4356
-10.7529
-11.0723
-11.3908
-11.7058
-12.0151
-12.3171
-12.6104
-12.894
-13.1672
-13.4292
-13.6797
-13.918
-14.1437
-14.3564
-14.5555
-14.7405
-14.9107
-15.0655
-15.2043
-15.3262
-15.4307
-15.517
-15.5843
-15.6321
-15.6596
-15.6664
-15.6517
-15.6153
-15.5566
-15.4754
-15.3714
-15.2444
-15.0945
-14.9216
-14.7258
-14.5075
-14.2669
-14.0044
-13.7205
-13.4159
-13.0912
-12.7471
-12.3845
-12.0043
-11.6075
-11.1949
-10.7678
-10.3272
-9.87418
-9.40993
-8.9356
-8.45236
-7.96138
-7.46382
-6.96085
-6.4536
-5.94317
-5.43066
-4.91711
-4.40353
-3.89089
-3.38013
-2.87212
-2.36769
-1.86762
-1.37264
-0.883429
-0.400603
0.0752641
0.543657
1.00411
1.45621
1.89959
2.33394
2.75899
3.17451
3.58033
3.9763
4.3623
4.73826
5.10414
5.45991
5.80559
6.14121
6.46686
6.78261
7.08858
7.38491
7.67174
7.94926
8.21763
8.47704
8.72771
8.96983
9.20363
9.42932
9.64714
9.8573
10.06
10.2556
10.4442
10.6261
10.8014
10.9705
11.1336
11.2908
11.4424
11.5886
11.7296
11.8655
11.9967
12.1233
12.2454
12.3633
12.4771
12.587
12.6932
12.7958
12.8949
12.9907
13.0833
13.1729
13.2595
13.3433
13.4244
13.5029
13.5789
13.6525
13.7238
13.7929
13.8599
13.9248
13.9877
14.0487
14.1078
14.1651
14.2207
14.2746
14.3268
14.3774
14.4264
14.4738
14.5197
14.5641
14.607
14.6484
14.6883
14.7267
14.7637
14.7991
14.8331
14.8655
14.8965
14.9259
14.9537
14.98
15.0047
15.0276
15.0486
15.067
15.0825
15.0914
15.0977
15.0687
-7.07894
-7.16578
-7.31348
-7.48226
-7.669
-7.87356
-8.09279
-8.3247
-8.56952
-8.82787
-9.09925
-9.38281
-9.67829
-9.98456
-10.2989
-10.6183
-10.9399
-11.261
-11.5792
-11.8924
-12.1988
-12.4971
-12.7863
-13.0654
-13.3339
-13.591
-13.8365
-14.0698
-14.2904
-14.4981
-14.6922
-14.8722
-15.0376
-15.1878
-15.3221
-15.4397
-15.5401
-15.6226
-15.6863
-15.7307
-15.7552
-15.759
-15.7418
-15.7029
-15.642
-15.5588
-15.4529
-15.3243
-15.1729
-14.9987
-14.8018
-14.5824
-14.3409
-14.0777
-13.7932
-13.4881
-13.1631
-12.8188
-12.4561
-12.0759
-11.6792
-11.267
-10.8402
-10.4001
-9.94764
-9.48406
-9.01048
-8.52806
-8.03796
-7.54134
-7.03934
-6.53309
-6.02368
-5.51218
-4.99965
-4.48706
-3.9754
-3.46557
-2.95844
-2.45483
-1.95552
-1.46123
-0.972628
-0.490326
-0.0148869
0.453178
0.913408
1.36539
1.80878
2.24323
2.6685
3.08434
3.49058
3.88706
4.27366
4.65032
5.01698
5.37362
5.72025
6.05691
6.38366
6.70059
7.00781
7.30544
7.59364
7.87256
8.14238
8.40329
8.65548
8.89915
9.13452
9.3618
9.58122
9.793
9.99736
10.1945
10.3847
10.5682
10.7452
10.9159
11.0805
11.2392
11.3924
11.5401
11.6825
11.82
11.9526
12.0806
12.2041
12.3233
12.4385
12.5496
12.657
12.7608
12.8611
12.9581
13.0518
13.1425
13.2302
13.315
13.3971
13.4765
13.5535
13.628
13.7002
13.7701
13.8379
13.9036
13.9673
14.029
14.0889
14.1469
14.2031
14.2576
14.3105
14.3616
14.4112
14.4592
14.5056
14.5505
14.5939
14.6357
14.676
14.7148
14.7521
14.7878
14.8219
14.8545
14.8855
14.9148
14.9423
14.9681
14.992
15.0137
15.0329
15.0489
15.0611
15.0658
15.0671
15.032
-7.18986
-7.26822
-7.39916
-7.55506
-7.7337
-7.9348
-8.15564
-8.39364
-8.64716
-8.91488
-9.19512
-9.48676
-9.78887
-10.0995
-10.4161
-10.7362
-11.0573
-11.3769
-11.6931
-12.004
-12.3081
-12.6041
-12.891
-13.168
-13.4344
-13.6896
-13.9331
-14.1645
-14.3833
-14.589
-14.7811
-14.9592
-15.1225
-15.2706
-15.4027
-15.5182
-15.6164
-15.6967
-15.7583
-15.8005
-15.8229
-15.8247
-15.8054
-15.7646
-15.7019
-15.6169
-15.5093
-15.3792
-15.2263
-15.0507
-14.8526
-14.6321
-14.3896
-14.1255
-13.8404
-13.5347
-13.2093
-12.8647
-12.502
-12.1219
-11.7254
-11.3135
-10.8873
-10.4479
-9.99622
-9.53355
-9.06101
-8.57972
-8.09086
-7.59555
-7.09492
-6.59009
-6.08215
-5.57216
-5.06114
-4.55007
-4.03991
-3.53155
-3.02585
-2.52362
-2.02563
-1.53257
-1.04512
-0.563884
-0.0894146
0.377779
0.83724
1.28856
1.73139
2.1654
2.59032
3.00594
3.41205
3.80852
4.19522
4.57207
4.93902
5.29605
5.64318
5.98042
6.30784
6.62553
6.93359
7.23214
7.52133
7.8013
8.07223
8.33429
8.58769
8.83262
9.06928
9.29788
9.51865
9.7318
9.93755
10.1361
10.3278
10.5127
10.691
10.8632
11.0292
11.1894
11.3439
11.493
11.6368
11.7756
11.9096
12.0389
12.1637
12.2842
12.4006
12.513
12.6216
12.7265
12.8279
12.926
13.0208
13.1125
13.2012
13.2871
13.3701
13.4505
13.5284
13.6038
13.6769
13.7476
13.8162
13.8827
13.9471
14.0096
14.0702
14.1289
14.1858
14.2409
14.2944
14.3462
14.3963
14.4449
14.4918
14.5372
14.581
14.6233
14.664
14.7032
14.7408
14.7768
14.8111
14.8438
14.8748
14.9039
14.9312
14.9564
14.9794
14.9998
15.0173
15.0309
15.04
15.0407
15.0375
14.9972
-7.36637
-7.43094
-7.54185
-7.68029
-7.84411
-8.03285
-8.24416
-8.47536
-8.72401
-8.98776
-9.26439
-9.55273
-9.85156
-10.1587
-10.4716
-10.788
-11.1055
-11.422
-11.7355
-12.0443
-12.3468
-12.6418
-12.9281
-13.205
-13.4715
-13.7271
-13.9712
-14.2031
-14.4225
-14.6287
-14.8213
-14.9995
-15.1629
-15.3108
-15.4426
-15.5575
-15.655
-15.7343
-15.7948
-15.8359
-15.8569
-15.8573
-15.8366
-15.7943
-15.73
-15.6435
-15.5345
-15.4029
-15.2487
-15.0719
-14.8726
-14.6511
-14.4078
-14.143
-13.8573
-13.5513
-13.2257
-12.8812
-12.5187
-12.139
-11.7431
-11.332
-10.9068
-10.4684
-10.0181
-9.55689
-9.08593
-8.60635
-8.1193
-7.6259
-7.12727
-6.62449
-6.11864
-5.61076
-5.10187
-4.59293
-4.08488
-3.57861
-3.07495
-2.57471
-2.07864
-1.58744
-1.10175
-0.622181
-0.149279
0.316456
0.774572
1.22467
1.66638
2.09941
2.52347
2.93835
3.34385
3.73982
4.12615
4.50274
4.86956
5.22656
5.57377
5.9112
6.23892
6.557
6.86555
7.16468
7.45452
7.73523
8.00697
8.26992
8.52425
8.77017
9.00787
9.23757
9.45946
9.67377
9.88072
10.0805
10.2734
10.4595
10.6392
10.8126
10.9799
11.1413
11.2971
11.4475
11.5926
11.7327
11.8679
11.9984
12.1244
12.2461
12.3637
12.4772
12.587
12.693
12.7955
12.8947
12.9905
13.0832
13.1729
13.2597
13.3437
13.4251
13.5038
13.5801
13.654
13.7256
13.795
13.8622
13.9274
13.9906
14.0519
14.1113
14.1688
14.2246
14.2787
14.3311
14.3818
14.4309
14.4784
14.5243
14.5686
14.6113
14.6525
14.692
14.73
14.7662
14.8008
14.8336
14.8645
14.8935
14.9204
14.9451
14.9672
14.9864
15.0021
15.0134
15.0195
15.0166
15.0093
14.9645
-7.54027
-7.59176
-7.68433
-7.80491
-7.95154
-8.12368
-8.31927
-8.53594
-8.77121
-9.02254
-9.2879
-9.56618
-9.85598
-10.1551
-10.461
-10.7715
-11.0842
-11.3969
-11.7078
-12.0149
-12.3169
-12.6121
-12.8996
-13.1781
-13.4467
-13.7047
-13.9513
-14.1859
-14.4078
-14.6164
-14.8111
-14.9913
-15.1563
-15.3054
-15.4381
-15.5537
-15.6514
-15.7307
-15.791
-15.8315
-15.8518
-15.8513
-15.8295
-15.7861
-15.7206
-15.6329
-15.5227
-15.39
-15.2347
-15.0569
-14.8568
-14.6347
-14.3909
-14.1258
-13.84
-13.5341
-13.2088
-12.8649
-12.5031
-12.1244
-11.7297
-11.3201
-10.8965
-10.4599
-10.0116
-9.55256
-9.08392
-8.60681
-8.12233
-7.63161
-7.13574
-6.63579
-6.13281
-5.62783
-5.12184
-4.6158
-4.11063
-3.60719
-3.10633
-2.6088
-2.11536
-1.62669
-1.14344
-0.666187
-0.195486
0.268175
0.724352
1.17264
1.6127
2.0442
2.46688
2.88052
3.28493
3.67994
4.06545
4.44136
4.80762
5.16421
5.51112
5.84839
6.17606
6.49421
6.80293
7.10234
7.39256
7.67373
7.94602
8.2096
8.46464
8.71133
8.94986
9.18044
9.40327
9.61857
9.82653
10.0274
10.2213
10.4086
10.5894
10.7639
10.9324
11.095
11.252
11.4035
11.5498
11.691
11.8274
11.9591
12.0863
12.2091
12.3278
12.4424
12.5533
12.6604
12.7639
12.8641
12.9609
13.0546
13.1453
13.233
13.3179
13.4002
13.4798
13.5569
13.6317
13.7041
13.7742
13.8422
13.9082
13.9721
14.034
14.0941
14.1523
14.2088
14.2635
14.3165
14.3678
14.4174
14.4655
14.5119
14.5567
14.5999
14.6415
14.6814
14.7196
14.7562
14.7909
14.8238
14.8548
14.8836
14.9102
14.9343
14.9555
14.9735
14.9875
14.9966
14.9999
14.9937
14.9827
14.9342
-7.66707
-7.70924
-7.78643
-7.89038
-8.01961
-8.17368
-8.35083
-8.54911
-8.76651
-9.00083
-9.25068
-9.51533
-9.79335
-10.0825
-10.3802
-10.6841
-10.992
-11.3015
-11.6106
-11.9173
-12.22
-12.5171
-12.8072
-13.089
-13.3615
-13.6236
-13.8744
-14.1131
-14.339
-14.5514
-14.7495
-14.9327
-15.1002
-15.2516
-15.386
-15.5028
-15.6015
-15.6813
-15.7417
-15.7821
-15.8021
-15.801
-15.7785
-15.7342
-15.6679
-15.5793
-15.4683
-15.3348
-15.1789
-15.0006
-14.8001
-14.5778
-14.334
-14.0693
-13.784
-13.4789
-13.1547
-12.8121
-12.4519
-12.0751
-11.6825
-11.2752
-10.8541
-10.4204
-9.97502
-9.51913
-9.05379
-8.58012
-8.09921
-7.61214
-7.11999
-6.62382
-6.12465
-5.6235
-5.12132
-4.61906
-4.11762
-3.61785
-3.12059
-2.62658
-2.13653
-1.65114
-1.17104
-0.696802
-0.228968
0.23198
0.6856
1.1315
1.56932
1.99875
2.41954
2.83144
3.23427
3.62788
4.01214
4.38696
4.75228
5.10808
5.45435
5.79112
6.11842
6.43633
6.74494
7.04436
7.33469
7.61609
7.88871
8.15269
8.40823
8.6555
8.89468
9.12598
9.34959
9.56571
9.77456
9.97633
10.1712
10.3595
10.5413
10.7169
10.8864
11.0501
11.2082
11.3608
11.5082
11.6505
11.788
11.9208
12.0491
12.173
12.2927
12.4084
12.5203
12.6285
12.733
12.8342
12.932
13.0266
13.1182
13.2069
13.2927
13.3758
13.4563
13.5343
13.6098
13.683
13.754
13.8227
13.8894
13.954
14.0167
14.0774
14.1363
14.1934
14.2487
14.3023
14.3542
14.4044
14.453
14.5
14.5453
14.5889
14.6309
14.6713
14.7099
14.7467
14.7817
14.8147
14.8457
14.8744
14.9006
14.9242
14.9446
14.9613
14.9738
14.9808
14.9815
14.9723
14.958
14.9063
-7.7225
-7.76075
-7.82634
-7.91533
-8.02755
-8.16295
-8.32049
-8.49885
-8.69646
-8.91179
-9.14433
-9.39397
-9.65939
-9.93819
-10.2278
-10.5257
-10.8295
-11.1368
-11.4453
-11.753
-12.0579
-12.3582
-12.6524
-12.9389
-13.2164
-13.4838
-13.7399
-13.9838
-14.2147
-14.4316
-14.6338
-14.8206
-14.9914
-15.1453
-15.2818
-15.4003
-15.5001
-15.5807
-15.6415
-15.6821
-15.7019
-15.7005
-15.6776
-15.6329
-15.5661
-15.477
-15.3657
-15.2319
-15.0759
-14.8978
-14.6977
-14.476
-14.2332
-13.9696
-13.6858
-13.3825
-13.0604
-12.7201
-12.3627
-11.9888
-11.5995
-11.1957
-10.7784
-10.3486
-9.90734
-9.45576
-8.9949
-8.52582
-8.0496
-7.56731
-7.07999
-6.58868
-6.09438
-5.59807
-5.10072
-4.60322
-4.10645
-3.61127
-3.11846
-2.62881
-2.14299
-1.66167
-1.18546
-0.714958
-0.250677
0.2069
0.657337
1.10024
1.53526
1.96209
2.38046
2.79014
3.19093
3.58269
3.96528
4.33862
4.70263
5.0573
5.40259
5.73854
6.06519
6.38259
6.69083
6.99001
7.28023
7.56164
7.83437
8.09858
8.35444
8.60212
8.8418
9.07366
9.29791
9.51474
9.72434
9.92693
10.1227
10.3118
10.4946
10.6711
10.8416
11.0063
11.1654
11.3191
11.4676
11.6109
11.7495
11.8833
12.0126
12.1376
12.2584
12.3751
12.488
12.5971
12.7027
12.8048
12.9036
12.9992
13.0917
13.1812
13.2679
13.3519
13.4333
13.512
13.5884
13.6624
13.7341
13.8036
13.871
13.9364
13.9997
14.0612
14.1207
14.1784
14.2344
14.2886
14.3411
14.3919
14.441
14.4885
14.5343
14.5785
14.6209
14.6617
14.7007
14.7378
14.773
14.8062
14.8372
14.8658
14.8918
14.9148
14.9344
14.95
14.961
14.9661
14.9645
14.9525
14.9352
14.8809
-7.70804
-7.74273
-7.79956
-7.87471
-7.96973
-8.08544
-8.22185
-8.37859
-8.55488
-8.75003
-8.96447
-9.19871
-9.45153
-9.72047
-10.0028
-10.2959
-10.597
-10.9036
-11.2133
-11.5235
-11.8321
-12.1372
-12.4366
-12.7289
-13.0124
-13.2859
-13.5479
-13.7975
-14.0336
-14.2553
-14.4618
-14.6523
-14.8261
-14.9826
-15.1212
-15.2412
-15.3422
-15.4236
-15.4849
-15.5258
-15.5457
-15.5443
-15.5214
-15.4766
-15.4099
-15.321
-15.21
-15.0768
-14.9216
-14.7445
-14.5458
-14.3258
-14.0849
-13.8237
-13.5427
-13.2424
-12.9236
-12.5871
-12.2337
-11.8642
-11.4794
-11.0805
-10.6683
-10.2438
-9.8081
-9.36219
-8.90711
-8.44393
-7.97368
-7.49741
-7.01613
-6.53086
-6.04258
-5.55224
-5.06076
-4.56906
-4.07797
-3.58833
-3.10092
-2.61648
-2.13572
-1.65928
-1.18775
-0.721709
-0.26167
0.191882
0.638513
1.07783
1.50949
1.93318
2.34863
2.75561
3.15393
3.54342
3.92395
4.29543
4.65779
5.01099
5.35501
5.68987
6.01559
6.33223
6.63987
6.93858
7.22849
7.50972
7.78239
8.04666
8.30269
8.55063
8.79067
9.02299
9.24776
9.46518
9.67545
9.87876
10.0753
10.2653
10.4489
10.6263
10.7977
10.9634
11.1235
11.2781
11.4276
11.572
11.7115
11.8464
11.9767
12.1027
12.2245
12.3422
12.4561
12.5662
12.6728
12.7758
12.8756
12.9721
13.0655
13.156
13.2435
13.3284
13.4106
13.4902
13.5673
13.6421
13.7146
13.7849
13.853
13.9191
13.9831
14.0453
14.1055
14.1639
14.2205
14.2753
14.3284
14.3798
14.4295
14.4775
14.5239
14.5685
14.6115
14.6527
14.692
14.7295
14.765
14.7984
14.8294
14.858
14.8837
14.9063
14.9252
14.9398
14.9494
14.9527
14.949
14.9346
14.9146
14.8581
-7.64414
-7.66993
-7.71611
-7.77475
-7.84952
-7.94241
-8.05465
-8.18712
-8.34005
-8.51372
-8.70953
-8.92849
-9.16943
-9.42966
-9.7062
-9.99608
-10.2963
-10.604
-10.9163
-11.2305
-11.5442
-11.8548
-12.1604
-12.459
-12.7489
-13.0284
-13.2963
-13.5513
-13.7924
-14.0185
-14.2289
-14.4227
-14.5993
-14.7581
-14.8985
-15.02
-15.1221
-15.2044
-15.2664
-15.3077
-15.3281