/*--------------------------------*- C++ -*----------------------------------*\
  =========                 |
  \\      /  F ield         | OpenFOAM: The Open Source CFD Toolbox
   \\    /   O peration     | Website:  https://openfoam.org
    \\  /    A nd           | Version:  8
     \\/     M anipulation  |
\*---------------------------------------------------------------------------*/
FoamFile
{
    version     2.0;
    format      ascii;
    class       volVectorField;
    location    "4500";
    object      U;
}
// * * * * * * * * * * * * * * * * * * * * * * * * * * * * * * * * * * * * * //

dimensions      [0 1 -1 0 0 0 0];

internalField   nonuniform List<vector> 
12225
(
(9.2745 -4.73371 0)
(13.1094 -1.71343 0)
(12.4778 -0.395197 0)
(11.2771 -0.0422038 0)
(10.6314 0.0141388 0)
(10.2979 -9.35091e-05 0)
(10.0776 -0.0165228 0)
(9.91227 -0.00288768 0)
(9.77909 0.0348752 0)
(9.66231 0.042893 0)
(9.55574 0.0248829 0)
(9.45767 0.00214138 0)
(9.36675 -0.0227926 0)
(9.28211 -0.030226 0)
(9.20232 -0.0217882 0)
(9.13252 -0.0212283 0)
(9.07016 -0.021039 0)
(9.08953 -0.0277136 0)
(10.2592 0.0928019 0)
(10.7814 0.199339 0)
(10.9594 0.245656 0)
(10.7469 0.229144 0)
(10.5875 0.172969 0)
(10.4527 0.115535 0)
(10.33 0.0823321 0)
(10.2327 0.0647308 0)
(10.155 0.0524777 0)
(10.0894 0.0472349 0)
(10.0323 0.0469938 0)
(9.98211 0.0489913 0)
(9.93784 0.0517987 0)
(9.89832 0.0519439 0)
(9.8615 0.0483267 0)
(9.82885 0.0438438 0)
(9.79429 0.030082 0)
(9.76825 0.0102715 0)
(9.87768 -0.24504 0)
(9.74285 0.00579134 0)
(10.1971 0.125744 0)
(10.3245 0.179365 0)
(10.3564 0.161549 0)
(10.3311 0.120078 0)
(10.2777 0.0904951 0)
(10.2252 0.074667 0)
(10.1812 0.0658766 0)
(10.1438 0.0600302 0)
(10.1103 0.0562097 0)
(10.0799 0.0536522 0)
(10.052 0.0511377 0)
(10.026 0.0487637 0)
(10.0023 0.0460773 0)
(9.98117 0.0417692 0)
(9.95915 0.0316714 0)
(9.93458 0.0135728 0)
(9.83416 -0.443933 0)
(9.57654 -0.163146 0)
(9.91603 0.0336712 0)
(10.0933 0.134225 0)
(10.1892 0.145474 0)
(10.2168 0.12074 0)
(10.205 0.0978965 0)
(10.1824 0.0839109 0)
(10.1599 0.0756312 0)
(10.1389 0.0697138 0)
(10.119 0.065136 0)
(10.1001 0.0616391 0)
(10.0821 0.058615 0)
(10.0648 0.0562314 0)
(10.0483 0.0538571 0)
(10.0325 0.0501467 0)
(10.0148 0.0424197 0)
(9.99178 0.0306114 0)
(9.87825 -0.387476 0)
(9.61653 -0.196147 0)
(9.81623 -0.0186695 0)
(9.96136 0.091614 0)
(10.0698 0.122198 0)
(10.1219 0.113629 0)
(10.1354 0.0992657 0)
(10.1332 0.0884227 0)
(10.1257 0.0809502 0)
(10.1161 0.0753984 0)
(10.1056 0.071126 0)
(10.0946 0.0678838 0)
(10.0833 0.0652565 0)
(10.0718 0.0631592 0)
(10.0601 0.0610474 0)
(10.0477 0.058109 0)
(10.0328 0.0530829 0)
(10.0124 0.0469035 0)
(9.91439 -0.28804 0)
(9.68304 -0.185176 0)
(9.78717 -0.0532066 0)
(9.88917 0.0510004 0)
(9.98796 0.0936814 0)
(10.0476 0.0992055 0)
(10.0751 0.093876 0)
(10.0861 0.08752 0)
(10.0892 0.0821225 0)
(10.0879 0.0777666 0)
(10.0842 0.074353 0)
(10.0789 0.0717626 0)
(10.0726 0.0697446 0)
(10.0653 0.0681751 0)
(10.0572 0.0667291 0)
(10.0476 0.0650463 0)
(10.0354 0.0627857 0)
(10.0185 0.0611722 0)
(9.93763 -0.214041 0)
(9.74856 -0.167535 0)
(9.79244 -0.0752145 0)
(9.85608 0.0162218 0)
(9.93595 0.0644235 0)
(9.99281 0.080597 0)
(10.0261 0.0835632 0)
(10.0447 0.0822456 0)
(10.0546 0.0797816 0)
(10.0593 0.0772898 0)
(10.0606 0.0751785 0)
(10.0596 0.0735619 0)
(10.057 0.0723925 0)
(10.053 0.0716387 0)
(10.0477 0.0711943 0)
(10.0407 0.0710194 0)
(10.0312 0.0712813 0)
(10.0182 0.0731548 0)
(9.95263 -0.167334 0)
(9.79947 -0.149676 0)
(9.81177 -0.0846403 0)
(9.84959 -0.00620893 0)
(9.9114 0.0419336 0)
(9.96107 0.0638991 0)
(9.99432 0.0725521 0)
(10.0156 0.0752886 0)
(10.0288 0.0755324 0)
(10.0367 0.0749062 0)
(10.041 0.0741507 0)
(10.0427 0.073585 0)
(10.0425 0.0733267 0)
(10.0408 0.0734524 0)
(10.0375 0.0740098 0)
(10.0325 0.0751402 0)
(10.0254 0.0772084 0)
(10.0157 0.0812079 0)
(9.96406 -0.132089 0)
(9.84003 -0.131988 0)
(9.83337 -0.0876889 0)
(9.85306 -0.0213313 0)
(9.89927 0.0244174 0)
(9.94102 0.0495151 0)
(9.97207 0.0621257 0)
(9.99385 0.0680794 0)
(10.0086 0.0706987 0)
(10.0184 0.0717976 0)
(10.0246 0.0723208 0)
(10.0282 0.0727571 0)
(10.0298 0.0733643 0)
(10.0297 0.0743231 0)
(10.028 0.0757913 0)
(10.0248 0.078012 0)
(10.0197 0.0814149 0)
(10.0129 0.0868118 0)
(9.97418 -0.100205 0)
(9.87757 -0.112389 0)
(9.85857 -0.0853652 0)
(9.86387 -0.0323314 0)
(9.89487 0.0089308 0)
(9.92742 0.0352262 0)
(9.95439 0.0507196 0)
(9.97502 0.0594998 0)
(9.99014 0.0644472 0)
(10.0009 0.0673626 0)
(10.0085 0.0693017 0)
(10.0135 0.0708817 0)
(10.0166 0.0724807 0)
(10.018 0.0743736 0)
(10.0179 0.0768064 0)
(10.0164 0.0800809 0)
(10.0136 0.0846225 0)
(10.0095 0.0910476 0)
(9.98253 -0.0727089 0)
(9.91035 -0.0921956 0)
(9.88507 -0.0782431 0)
(9.88001 -0.0386059 0)
(9.89746 -0.00337188 0)
(9.92043 0.0221714 0)
(9.94196 0.0391872 0)
(9.95999 0.0500842 0)
(9.97425 0.0570597 0)
(9.98518 0.0617088 0)
(9.99339 0.0650836 0)
(9.99941 0.0678678 0)
(10.0037 0.070521 0)
(10.0064 0.0733894 0)
(10.0078 0.0767748 0)
(10.0081 0.080997 0)
(10.0073 0.0864295 0)
(10.0058 0.0935084 0)
(9.98894 -0.0502564 0)
(9.93733 -0.0723774 0)
(9.91073 -0.0674468 0)
(9.89917 -0.039981 0)
(9.90566 -0.0116475 0)
(9.91955 0.0114549 0)
(9.93496 0.0285338 0)
(9.94934 0.0405839 0)
(9.96169 0.0490284 0)
(9.97188 0.0551158 0)
(9.98009 0.0597843 0)
(9.98659 0.0637077 0)
(9.99163 0.0673765 0)
(9.99544 0.0711697 0)
(9.9982 0.0754087 0)
(10.0001 0.0803959 0)
(10.0013 0.0864317 0)
(10.0021 0.0937991 0)
(9.99348 -0.0329083 0)
(9.9582 -0.0538102 0)
(9.93368 -0.0542821 0)
(9.91898 -0.0367853 0)
(9.91755 -0.0154509 0)
(9.92366 0.00399791 0)
(9.93301 0.019779 0)
(9.94318 0.0318806 0)
(9.9529 0.041015 0)
(9.96163 0.0480252 0)
(9.96922 0.0536524 0)
(9.9757 0.0584889 0)
(9.98118 0.0629979 0)
(9.98578 0.0675471 0)
(9.98964 0.0724401 0)
(9.99294 0.077937 0)
(9.99587 0.0842596 0)
(9.99869 0.0915792 0)
(9.99643 -0.0202021 0)
(9.97327 -0.0372089 0)
(9.95261 -0.0400438 0)
(9.93731 -0.0298085 0)
(9.93089 -0.0148208 0)
(9.93102 0.000369831 0)
(9.93504 0.013778 0)
(9.94104 0.024847 0)
(9.94782 0.0337636 0)
(9.95464 0.0409962 0)
(9.96117 0.0470551 0)
(9.96724 0.0524005 0)
(9.97281 0.0574174 0)
(9.9779 0.062421 0)
(9.98261 0.0676654 0)
(9.98704 0.0733526 0)
(9.99135 0.0796335 0)
(9.99573 0.0866013 0)
(9.99816 -0.0112872 0)
(9.9833 -0.0229295 0)
(9.96682 -0.0257609 0)
(9.95243 -0.0200743 0)
(9.94344 -0.0102388 0)
(9.93952 0.000678554 0)
(9.9394 0.0110341 0)
(9.94183 0.0201485 0)
(9.94582 0.0279301 0)
(9.95069 0.0345771 0)
(9.95597 0.0403912 0)
(9.96139 0.0456821 0)
(9.96681 0.0507278 0)
(9.97215 0.0557604 0)
(9.97744 0.0609639 0)
(9.9827 0.0664748 0)
(9.98803 0.0723824 0)
(9.99353 0.0787272 0)
(9.99906 -0.00508038 0)
(9.98922 -0.0107795 0)
(9.97612 -0.0119148 0)
(9.96309 -0.00848003 0)
(9.9531 -0.00243132 0)
(9.94685 0.0045826 0)
(9.94399 0.0115619 0)
(9.94384 0.0180256 0)
(9.9457 0.0238443 0)
(9.94896 0.0290864 0)
(9.95317 0.0339075 0)
(9.95799 0.0384843 0)
(9.96321 0.0429814 0)
(9.96868 0.0475362 0)
(9.97435 0.052253 0)
(9.98019 0.0572013 0)
(9.98623 0.0624165 0)
(9.99249 0.0679011 0)
(9.99942 -0.000366715 0)
(9.9918 0.000153192 0)
(9.98042 0.00183463 0)
(9.96821 0.00459674 0)
(9.9579 0.0079239 0)
(9.95061 0.011406 0)
(9.94642 0.0148218 0)
(9.94498 0.0180942 0)
(9.94576 0.02124 0)
(9.94825 0.0243252 0)
(9.95198 0.0274312 0)
(9.95661 0.0306349 0)
(9.96186 0.0339987 0)
(9.96757 0.0375667 0)
(9.97362 0.0413627 0)
(9.97993 0.0453915 0)
(9.98648 0.0496386 0)
(9.99325 0.0540746 0)
(9.99935 0.00408533 0)
(9.9911 0.0111748 0)
(9.97897 0.0161359 0)
(9.96616 0.0187401 0)
(9.95552 0.0196171 0)
(9.94819 0.0195516 0)
(9.94419 0.0191654 0)
(9.94312 0.018869 0)
(9.94438 0.0189023 0)
(9.94741 0.0193829 0)
(9.95174 0.0203512 0)
(9.95698 0.0218022 0)
(9.96287 0.0237047 0)
(9.96919 0.0260142 0)
(9.97583 0.0286792 0)
(9.98269 0.0316431 0)
(9.98974 0.0348481 0)
(9.99692 0.0382332 0)
(9.99882 0.00973025 0)
(9.98675 0.0240504 0)
(9.97122 0.0318492 0)
(9.95641 0.0332975 0)
(9.94558 0.0307089 0)
(9.93942 0.0263559 0)
(9.93734 0.0217542 0)
(9.93845 0.0177462 0)
(9.94186 0.0147024 0)
(9.94687 0.0127185 0)
(9.95292 0.0117387 0)
(9.95963 0.0116439 0)
(9.96674 0.012295 0)
(9.97408 0.0135562 0)
(9.98155 0.0153028 0)
(9.98908 0.0174251 0)
(9.99665 0.0198265 0)
(10.0042 0.0224237 0)
(9.99757 0.0182104 0)
(9.97773 0.0404568 0)
(9.95664 0.0495801 0)
(9.93945 0.0474825 0)
(9.92961 0.0394288 0)
(9.92659 0.0296533 0)
(9.92849 0.0204977 0)
(9.93357 0.0129749 0)
(9.94055 0.0073575 0)
(9.94856 0.00352647 0)
(9.95704 0.00123142 0)
(9.96567 0.000181995 0)
(9.97428 0.000114516 0)
(9.98276 0.000795686 0)
(9.99108 0.00203929 0)
(9.99925 0.00369382 0)
(10.0073 0.00563641 0)
(10.0151 0.00777088 0)
(9.99502 0.0318148 0)
(9.96177 0.062135 0)
(9.93372 0.0695538 0)
(9.91534 0.0601185 0)
(9.90932 0.0439558 0)
(9.91249 0.0276666 0)
(9.92084 0.0140017 0)
(9.93162 0.00364855 0)
(9.94323 -0.00363216 0)
(9.95479 -0.00836373 0)
(9.96594 -0.0111207 0)
(9.97652 -0.0123858 0)
(9.9865 -0.0125643 0)
(9.99594 -0.0119587 0)
(10.0049 -0.0108018 0)
(10.0135 -0.00926561 0)
(10.0217 -0.00747705 0)
(10.0296 -0.00553887 0)
(9.99018 0.0534621 0)
(9.93561 0.090153 0)
(9.90098 0.0906297 0)
(9.88515 0.0687598 0)
(9.8878 0.0418233 0)
(9.90121 0.0186647 0)
(9.91856 0.00142568 0)
(9.93627 -0.0103856 0)
(9.95285 -0.0179284 0)
(9.96786 -0.0223796 0)
(9.98129 -0.0246363 0)
(9.99331 -0.0253782 0)
(10.0042 -0.0250882 0)
(10.0141 -0.0241238 0)
(10.0232 -0.0227214 0)
(10.0318 -0.0210353 0)
(10.0399 -0.0191847 0)
(10.0476 -0.0172513 0)
(9.9819 0.0862473 0)
(9.89548 0.124258 0)
(9.85817 0.109885 0)
(9.8521 0.0697763 0)
(9.87034 0.0303418 0)
(9.89843 0.00145466 0)
(9.92658 -0.0171958 0)
(9.95135 -0.0283083 0)
(9.9722 -0.0344036 0)
(9.9896 -0.0373108 0)
(10.0042 -0.0381866 0)
(10.0167 -0.0377837 0)
(10.0276 -0.0366044 0)
(10.0372 -0.0349919 0)
(10.0459 -0.0331448 0)
(10.0539 -0.0311612 0)
(10.0613 -0.0291239 0)
(10.0684 -0.0271037 0)
(9.96925 0.13399 0)
(9.83823 0.163089 0)
(9.80793 0.122592 0)
(9.82311 0.0588018 0)
(9.86513 0.00731129 0)
(9.91139 -0.0240214 0)
(9.95035 -0.0405819 0)
(9.98049 -0.0483577 0)
(10.0034 -0.0512152 0)
(10.0212 -0.0515123 0)
(10.0353 -0.0503874 0)
(10.0469 -0.048488 0)
(10.0565 -0.0462333 0)
(10.0648 -0.0438788 0)
(10.0722 -0.0415547 0)
(10.0789 -0.0392426 0)
(10.0852 -0.0369828 0)
(10.0911 -0.0348626 0)
(9.94951 0.207141 0)
(9.76128 0.207022 0)
(9.75726 0.123479 0)
(9.81042 0.0320124 0)
(9.88382 -0.0278586 0)
(9.94874 -0.0559905 0)
(9.99527 -0.0660651 0)
(10.0266 -0.0677878 0)
(10.048 -0.065949 0)
(10.063 -0.0631596 0)
(10.0743 -0.0598463 0)
(10.083 -0.0564624 0)
(10.0899 -0.0531155 0)
(10.0957 -0.0501485 0)
(10.1009 -0.0474909 0)
(10.1056 -0.0449497 0)
(10.11 -0.0425303 0)
(10.1141 -0.0403466 0)
(9.91094 0.322718 0)
(9.65923 0.254545 0)
(9.71887 0.107407 0)
(9.83329 -0.0119222 0)
(9.94173 -0.0726509 0)
(10.0199 -0.0901594 0)
(10.0662 -0.0893164 0)
(10.0918 -0.0831268 0)
(10.1058 -0.0760106 0)
(10.1141 -0.0695825 0)
(10.1198 -0.0644344 0)
(10.1236 -0.0600731 0)
(10.1261 -0.0563405 0)
(10.1278 -0.0531305 0)
(10.1295 -0.0506114 0)
(10.1313 -0.0482385 0)
(10.1329 -0.0456143 0)
(10.1344 -0.0434398 0)
(9.84404 0.43511 0)
(9.53798 0.261026 0)
(9.7269 0.0591352 0)
(9.92367 -0.073115 0)
(10.0584 -0.121551 0)
(10.1345 -0.12019 0)
(10.1665 -0.105277 0)
(10.1758 -0.0906074 0)
(10.1759 -0.0784563 0)
(10.1726 -0.0703362 0)
(10.1686 -0.0643841 0)
(10.1647 -0.0597841 0)
(10.1605 -0.0555208 0)
(10.1563 -0.0521878 0)
(10.1529 -0.0502976 0)
(10.1506 -0.0482734 0)
(10.1483 -0.0456593 0)
(10.1459 -0.0435743 0)
(9.83598 0.319666 0)
(9.55021 0.0912513 0)
(9.91739 -0.0687252 0)
(10.1507 -0.160112 0)
(10.2634 -0.172136 0)
(10.3032 -0.142727 0)
(10.2978 -0.112093 0)
(10.276 -0.0899471 0)
(10.2517 -0.0753646 0)
(10.2303 -0.0674363 0)
(10.2132 -0.0618867 0)
(10.1986 -0.0574923 0)
(10.1843 -0.0523588 0)
(10.1702 -0.0482254 0)
(10.1593 -0.0467245 0)
(10.1503 -0.0438908 0)
(10.1413 -0.0397022 0)
(10.1331 -0.0384913 0)
(10.2049 -0.0633775 0)
(10.4095 -0.191706 0)
(10.7164 -0.282557 0)
(10.6879 -0.282287 0)
(10.6191 -0.230103 0)
(10.5417 -0.163668 0)
(10.4546 -0.117041 0)
(10.3763 -0.0924927 0)
(10.3136 -0.0798621 0)
(10.2654 -0.0678446 0)
(10.2262 -0.0589577 0)
(10.1924 -0.0539164 0)
(10.1597 -0.0537316 0)
(10.1304 -0.0529319 0)
(10.1086 -0.0475682 0)
(10.0852 -0.0455562 0)
(10.0627 -0.0480981 0)
(10.0461 -0.0463376 0)
(9.41631 4.45107 0)
(12.7294 2.07612 0)
(12.5649 0.621213 0)
(11.569 0.127658 0)
(10.9309 0.00343512 0)
(10.5866 -0.0020669 0)
(10.3638 0.0123138 0)
(10.2022 0.0302326 0)
(10.0796 0.0412481 0)
(9.97715 0.0356968 0)
(9.88542 0.0255661 0)
(9.7981 0.0207523 0)
(9.72378 0.0274187 0)
(9.66285 0.0263637 0)
(9.59985 0.00118842 0)
(9.54289 -0.00582334 0)
(9.49539 0.00963299 0)
(9.4473 0.000983775 0)
(-0.0275185 0.093433 0)
(0.137018 -0.183509 0)
(0.324985 -0.305897 0)
(0.525472 -0.315117 0)
(0.702948 -0.272072 0)
(0.833496 -0.211079 0)
(0.909814 -0.146339 -8.60216e-20)
(0.940395 -0.0824942 8.66459e-20)
(0.919521 -0.0201714 0)
(0.858836 0.0345389 9.18668e-20)
(0.771678 0.0739615 0)
(0.672416 0.092006 0)
(0.578493 0.0877237 0)
(0.505692 0.0666624 -1.43209e-19)
(0.455741 0.0377089 0)
(0.412398 0.00997277 0)
(0.352866 -0.00897341 1.87939e-19)
(0.262707 -0.00867912 0)
(0.135165 0.0293075 0)
(-0.044827 0.11295 0)
(-0.30054 0.186491 -1.64816e-19)
(-0.594238 0.23526 0)
(-0.915659 0.266818 -7.62404e-20)
(-1.25191 0.296036 0)
(-1.59134 0.323654 0)
(-1.93108 0.336463 -4.13233e-20)
(-2.2635 0.335615 0)
(-2.58061 0.326492 3.45412e-20)
(-2.87939 0.310354 0)
(-3.1564 0.289554 -3.13421e-20)
(-3.41075 0.266418 0)
(-3.64205 0.242538 0)
(-3.85102 0.218948 0)
(-4.03876 0.196354 0)
(-4.20671 0.175132 0)
(-4.35643 0.155489 2.82301e-20)
(-4.48949 0.137461 0)
(-4.6074 0.120977 -5.55716e-20)
(-4.71153 0.105908 0)
(-4.8031 0.0920958 5.47728e-20)
(-4.88316 0.0793783 0)
(-4.95262 0.0676032 0)
(-5.01221 0.0566427 -5.35507e-20)
(-5.06258 0.0464002 0)
(-5.10422 0.0368162 -5.26589e-20)
(-5.13754 0.0278737 5.21811e-20)
(-5.16294 0.019617 0)
(-5.1808 0.0121938 5.11542e-20)
(-5.19141 0.00585215 5.06018e-20)
(-5.19494 0.000802383 0)
(-5.19262 -0.00315123 0)
(-5.1857 -0.00644957 0)
(-5.17432 -0.00937205 0)
(-5.15879 -0.0120828 0)
(-5.13929 -0.0146514 -4.61821e-20)
(-5.11595 -0.0170915 0)
(-5.08888 -0.0194144 4.43169e-20)
(-5.05818 -0.0216291 0)
(-5.02397 -0.0237378 0)
(-4.98633 -0.0257424 -4.11388e-20)
(-4.94538 -0.0276432 0)
(-4.90122 -0.0294404 3.87631e-20)
(-4.85396 -0.0311335 0)
(-4.80371 -0.0327226 0)
(-4.7506 -0.0342078 0)
(-4.69474 -0.0355887 -3.33835e-20)
(-4.63625 -0.0368659 0)
(-4.57526 -0.0380403 0)
(-4.5119 -0.0391123 -2.87861e-20)
(-4.44629 -0.040083 0)
(-4.37858 -0.0409535 -2.54448e-20)
(-4.30888 -0.0417254 0)
(-4.23733 -0.0424004 0)
(-4.16406 -0.0429803 0)
(-4.0892 -0.0434672 1.80674e-20)
(-4.01289 -0.0438634 0)
(-3.93524 -0.0441712 0)
(-3.8564 -0.0443931 1.18853e-20)
(-3.77648 -0.0445315 9.69154e-21)
(-3.6956 -0.0445891 0)
(-3.61389 -0.0445685 5.08968e-21)
(-3.53145 -0.0444728 0)
(-3.44841 -0.0443055 3.63213e-22)
(-3.36486 -0.0440713 0)
(-3.28092 -0.0437766 -1.01267e-20)
(-3.19667 -0.0434309 0)
(-3.1122 -0.0430477 2.13693e-20)
(-3.02761 -0.0426466 0)
(-2.94295 -0.0422562 0)
(-2.85828 -0.0419185 0)
(-2.77364 -0.0416953 -4.65615e-20)
(-2.68906 -0.0416695 0)
(-2.60454 -0.0419313 6.08367e-20)
(-2.52006 -0.0425365 0)
(-2.43556 -0.0434262 -7.65067e-20)
(-2.35131 -0.044329 -8.48854e-20)
(-2.26755 -0.044784 -9.35938e-20)
(-2.18453 -0.0445763 0)
(-2.10241 -0.0439714 0)
(-2.02123 -0.0432731 0)
(-1.94099 -0.0425682 0)
(-1.8617 -0.041868 0)
(-1.78339 -0.0411736 0)
(-1.70608 -0.0404866 0)
(-1.62979 -0.039811 0)
(-1.55455 -0.0391523 1.92706e-19)
(-1.48037 -0.0385178 2.07027e-19)
(-1.40727 -0.0379128 0)
(-1.33526 -0.0373263 0)
(-1.26437 -0.0367011 0)
(-1.19464 -0.0360435 2.74295e-19)
(-1.12606 -0.0354095 0)
(-1.05865 -0.034794 0)
(-0.992401 -0.0341984 0)
(-0.927317 -0.0336243 0)
(-0.863398 -0.0330739 -3.90935e-19)
(-0.800643 -0.0325496 0)
(-0.739048 -0.0320546 0)
(-0.678607 -0.0315924 4.89114e-19)
(-0.619311 -0.0311645 -5.28813e-19)
(-0.561156 -0.0307744 0)
(-0.504133 -0.0304325 -6.22423e-19)
(-0.448229 -0.0301628 0)
(-0.393426 -0.0300097 7.41402e-19)
(-0.339701 -0.0299841 0)
(-0.28704 -0.0300477 0)
(-0.23543 -0.0301874 0)
(-0.184841 -0.0304141 0)
(-0.135248 -0.0307434 0)
(-0.0866949 -0.0311941 -2.84654e-18)
(-0.0393928 -0.0316482 -3.27722e-18)
(0.00671091 -0.0313489 0)
(0.0521264 -0.0298515 0)
(0.0968646 -0.0280011 0)
(0.140784 -0.0262829 2.68486e-18)
(0.183792 -0.0247498 0)
(0.225868 -0.0233761 0)
(0.267033 -0.0221384 0)
(0.307322 -0.0210167 2.04001e-18)
(0.346764 -0.0199938 -1.93372e-18)
(0.385388 -0.0190555 0)
(0.42322 -0.0181904 0)
(0.460284 -0.0173892 -1.68695e-18)
(0.496605 -0.0166445 -1.62229e-18)
(0.532206 -0.0159499 0)
(0.567111 -0.0153005 0)
(0.601341 -0.014692 1.464e-18)
(0.63492 -0.0141207 -1.42051e-18)
(0.66787 -0.0135835 0)
(0.700213 -0.0130777 0)
(0.731972 -0.0126012 -1.31022e-18)
(0.76317 -0.0121518 0)
(0.79383 -0.0117279 0)
(0.823975 -0.0113279 -1.2227e-18)
(0.853627 -0.0109503 0)
(0.882811 -0.0105939 -1.17362e-18)
(0.91155 -0.0102575 0)
(0.939866 -0.00994012 0)
(0.967783 -0.00964062 0)
(0.995324 -0.00935794 1.09161e-18)
(1.02251 -0.00909096 0)
(1.04936 -0.00883841 0)
(1.07589 -0.00859885 0)
(1.10212 -0.00837047 0)
(1.12806 -0.00815102 0)
(1.15371 -0.00793756 0)
(1.17906 -0.00772626 9.82785e-19)
(1.2041 -0.00751193 9.69863e-19)
(1.22877 -0.00728762 0)
(1.25302 -0.00704375 0)
(1.27673 -0.00676685 0)
(1.29975 -0.0064383 -9.24511e-19)
(1.32183 -0.00602839 0)
(1.34256 -0.00549836 1.81391e-18)
(1.3615 -0.00476124 -1.80053e-18)
(1.37725 -0.00372554 -1.7918e-18)
(1.38984 -0.00195417 1.7901e-18)
(1.39026 0.00132744 -1.79548e-18)
(1.38756 0.00807514 1.8088e-18)
(1.30829 0.0198886 0)
(0.096318 -0.268988 0)
(0.334073 -0.681278 0)
(0.514179 -0.706527 1.57364e-19)
(0.611819 -0.57135 0)
(0.662816 -0.4089 -1.11142e-19)
(0.683256 -0.253827 -1.08108e-19)
(0.677229 -0.112175 -5.62565e-20)
(0.646856 0.0155833 -5.62018e-20)
(0.603878 0.125402 0)
(0.544683 0.211924 -6.08105e-20)
(0.467872 0.267401 0)
(0.373386 0.283202 0)
(0.257583 0.256433 1.705e-19)
(0.110251 0.211433 9.82896e-20)
(-0.0747753 0.206281 -1.84472e-19)
(-0.301044 0.271831 -1.43804e-19)
(-0.579022 0.383405 -5.71924e-20)
(-0.904951 0.51324 0)
(-1.25854 0.642603 0)
(-1.61664 0.756432 0)
(-1.97225 0.841988 -2.85766e-20)
(-2.31784 0.895557 0)
(-2.64774 0.919043 6.90666e-20)
(-2.95446 0.915464 0)
(-3.23396 0.889028 0)
(-3.4846 0.844862 1.98205e-20)
(-3.70498 0.788297 0)
(-3.89592 0.724862 -1.97627e-20)
(-4.05931 0.658788 -4.17995e-20)
(-4.1987 0.592787 2.01694e-20)
(-4.31699 0.528962 0)
(-4.41709 0.469094 0)
(-4.5017 0.414014 0)
(-4.57323 0.364075 -4.42608e-20)
(-4.63375 0.319236 -4.47671e-20)
(-4.68493 0.279226 -2.21907e-20)
(-4.72816 0.243635 0)
(-4.76455 0.211979 4.53092e-20)
(-4.79499 0.183762 0)
(-4.82019 0.158502 -4.58808e-20)
(-4.84075 0.135758 0)
(-4.85716 0.115137 0)
(-4.86984 0.0962976 4.60912e-20)
(-4.87916 0.0789491 0)
(-4.88546 0.062851 1.38175e-19)
(-4.88906 0.0478091 -4.56116e-20)
(-4.89023 0.0336881 0)
(-4.88922 0.0204572 -4.49424e-20)
(-4.88629 0.00823294 -4.44857e-20)
(-4.8817 -0.00282275 0)
(-4.87455 -0.0127657 0)
(-4.86372 -0.0218918 0)
(-4.84922 -0.0304441 0)
(-4.83093 -0.0385372 0)
(-4.80888 -0.0462408 4.02196e-20)
(-4.78314 -0.0535918 7.91696e-20)
(-4.75379 -0.0606114 -3.84423e-20)
(-4.7209 -0.0673107 0)
(-4.68456 -0.0736956 7.34911e-20)
(-4.64487 -0.0797687 -3.59692e-20)
(-4.60193 -0.0855307 0)
(-4.55584 -0.0909813 -3.32691e-20)
(-4.5067 -0.0961205 0)
(-4.45463 -0.10095 0)
(-4.39973 -0.105471 -5.98963e-20)
(-4.34212 -0.109683 2.83875e-20)
(-4.28192 -0.113588 -5.47045e-20)
(-4.21925 -0.117187 5.19857e-20)
(-4.15424 -0.120485 2.42958e-20)
(-4.08701 -0.123486 0)
(-4.01769 -0.126196 2.13627e-20)
(-3.94641 -0.128619 0)
(-3.8733 -0.130763 0)
(-3.79847 -0.132635 0)
(-3.72207 -0.134242 1.56361e-20)
(-3.64422 -0.135595 0)
(-3.56504 -0.136701 2.37693e-20)
(-3.48466 -0.137572 -2.9978e-20)
(-3.40319 -0.138216 -7.94292e-21)
(-3.32076 -0.138645 0)
(-3.23749 -0.138869 -4.14217e-21)
(-3.15348 -0.138902 0)
(-3.06884 -0.138754 -2.93321e-22)
(-2.98369 -0.138437 0)
(-2.89811 -0.137964 8.11274e-21)
(-2.81222 -0.137347 -2.35674e-20)
(-2.7261 -0.136596 -1.69661e-20)
(-2.63984 -0.135724 0)
(-2.55354 -0.134736 0)
(-2.46729 -0.13364 0)
(-2.38118 -0.132434 3.61845e-20)
(-2.29533 -0.131111 0)
(-2.20986 -0.129641 -4.66562e-20)
(-2.12494 -0.127969 0)
(-2.0407 -0.126043 1.71882e-19)
(-1.95721 -0.123888 6.36328e-20)
(-1.87449 -0.121605 6.96643e-20)
(-1.79247 -0.1193 0)
(-1.71114 -0.117032 0)
(-1.63055 -0.114798 0)
(-1.55076 -0.112576 0)
(-1.47183 -0.110351 0)
(-1.3938 -0.108121 2.19495e-19)
(-1.3167 -0.105884 2.34987e-19)
(-1.24056 -0.103645 0)
(-1.1654 -0.101406 -1.34763e-19)
(-1.09126 -0.09917 -1.43542e-19)
(-1.01816 -0.0969391 0)
(-0.94612 -0.0947151 -3.2304e-19)
(-0.875158 -0.0925023 0)
(-0.805268 -0.0903143 1.81325e-19)
(-0.736458 -0.0881569 0)
(-0.668741 -0.0860304 0)
(-0.60212 -0.0839371 -4.34454e-19)
(-0.536597 -0.0818784 0)
(-0.472175 -0.0798559 2.44834e-19)
(-0.408852 -0.0778727 0)
(-0.346627 -0.0759344 0)
(-0.285495 -0.0740499 2.8977e-19)
(-0.225446 -0.0722171 3.09075e-19)
(-0.166474 -0.0704308 0)
(-0.108573 -0.0686938 -3.46368e-19)
(-0.0517479 -0.0670063 0)
(0.00400383 -0.0653598 3.82639e-19)
(0.0587239 -0.0637475 7.66198e-19)
(0.112446 -0.0621805 0)
(0.16517 -0.0606736 0)
(0.216897 -0.0592313 0)
(0.267641 -0.0578513 0)
(0.317436 -0.056536 7.09247e-19)
(0.366351 -0.0552742 2.09647e-18)
(0.414472 -0.0538956 0)
(0.461713 -0.0522501 0)
(0.507934 -0.050476 0)
(0.553202 -0.048729 -6.65636e-19)
(0.597602 -0.0470611 0)
(0.641158 -0.0454808 0)
(0.683891 -0.0439855 1.28795e-18)
(0.725821 -0.0425688 6.36956e-19)
(0.766968 -0.0412231 6.32431e-19)
(0.807355 -0.039942 0)
(0.847003 -0.0387198 0)
(0.885933 -0.0375522 6.15887e-19)
(0.924167 -0.0364355 -6.0965e-19)
(0.961726 -0.0353667 0)
(0.998632 -0.0343434 0)
(1.0349 -0.0333634 -5.96792e-19)
(1.07057 -0.0324248 1.77639e-18)
(1.10564 -0.0315261 0)
(1.14015 -0.0306659 0)
(1.1741 -0.0298429 5.80323e-19)
(1.20754 -0.0290559 0)
(1.24047 -0.0283038 1.14494e-18)
(1.27292 -0.0275857 -5.68537e-19)
(1.30491 -0.0269005 0)
(1.33647 -0.0262472 5.62423e-19)
(1.36761 -0.0256249 1.11756e-18)
(1.39836 -0.0250324 0)
(1.42874 -0.0244685 0)
(1.45877 -0.0239317 -5.49588e-19)
(1.48846 -0.0234202 0)
(1.51785 -0.0229318 1.08646e-18)
(1.54693 -0.0224636 0)
(1.57573 -0.0220118 0)
(1.60426 -0.0215714 0)
(1.63251 -0.0211356 0)
(1.66047 -0.0206957 -5.29011e-19)
(1.68814 -0.0202394 -5.26243e-19)
(1.71547 -0.0197505 0)
(1.7424 -0.0192062 0)
(1.76885 -0.018575 0)
(1.79466 -0.0178112 5.16149e-19)
(1.81964 -0.0168478 0)
(1.84346 -0.0155816 -1.02488e-18)
(1.8657 -0.0138358 1.02262e-18)
(1.88543 -0.0113257 1.02224e-18)
(1.90223 -0.00731079 1.02333e-18)
(1.91244 -0.000520211 1.0285e-18)
(1.92474 0.0124236 1.02039e-18)
(1.90518 0.0361852 0)
(0.116441 -0.859722 0)
(0.269016 -1.05684 0)
(0.316109 -0.826015 -1.26333e-19)
(0.315416 -0.58424 -1.08172e-19)
(0.297985 -0.373774 1.00492e-19)
(0.266776 -0.188646 1.00673e-19)
(0.220594 -0.0231858 -6.44864e-22)
(0.158697 0.124558 0)
(0.0809597 0.255101 0)
(-0.0138545 0.366019 0)
(-0.129303 0.45173 0)
(-0.273449 0.512791 0)
(-0.459211 0.566616 -2.67341e-19)
(-0.697073 0.641352 0)
(-0.983298 0.753909 6.62786e-20)
(-1.30203 0.895876 5.71775e-20)
(-1.63532 1.04399 0)
(-1.96625 1.178 0)
(-2.27959 1.28538 0)
(-2.56347 1.35909 0)
(-2.81258 1.39483 3.49053e-20)
(-3.02652 1.39239 0)
(-3.20666 1.35643 -3.2348e-20)
(-3.35586 1.29418 0)
(-3.47856 1.21298 0)
(-3.57939 1.11922 0)
(-3.66314 1.01897 -6.85904e-20)
(-3.73418 0.917577 0)
(-3.79605 0.819171 3.31187e-20)
(-3.8515 0.726546 -7.07038e-20)
(-3.90248 0.641217 0)
(-3.95027 0.563921 0)
(-3.99563 0.494708 0)
(-4.03892 0.433193 3.65658e-20)
(-4.08026 0.378728 3.71531e-20)
(-4.1196 0.330539 0)
(-4.15679 0.287832 0)
(-4.19168 0.249845 -7.78031e-20)
(-4.22408 0.215884 -7.8196e-20)
(-4.25382 0.185338 7.84289e-20)
(-4.28076 0.15769 0)
(-4.30479 0.132509 0)
(-4.32582 0.109448 0)
(-4.34378 0.0882221 0)
(-4.3586 0.068598 -7.70123e-20)
(-4.37022 0.0503758 -7.69142e-20)
(-4.37859 0.0333712 7.62713e-20)
(-4.38356 0.0173834 0)
(-4.38495 0.00215593 0)
(-4.38262 -0.0125976 0)
(-4.3765 -0.0270102 0)
(-4.36665 -0.0409954 -7.11074e-20)
(-4.35313 -0.0544611 0)
(-4.33598 -0.0673963 0)
(-4.31522 -0.079805 -6.69956e-20)
(-4.29092 -0.0916962 -6.49699e-20)
(-4.26315 -0.103077 0)
(-4.23196 -0.113952 1.24571e-19)
(-4.19744 -0.124323 -6.00318e-20)
(-4.15968 -0.134189 5.82552e-20)
(-4.11876 -0.14355 0)
(-4.07478 -0.152403 0)
(-4.02784 -0.160746 0)
(-3.97804 -0.168578 0)
(-3.92549 -0.175902 4.84234e-20)
(-3.8703 -0.18272 9.37777e-20)
(-3.81258 -0.189031 4.4058e-20)
(-3.75246 -0.194839 -4.17859e-20)
(-3.69005 -0.200149 0)
(-3.62547 -0.204968 7.54262e-20)
(-3.55885 -0.209304 7.0543e-20)
(-3.49032 -0.213166 6.55435e-20)
(-3.41999 -0.216564 -6.04283e-20)
(-3.34799 -0.21951 0)
(-3.27444 -0.222016 -7.41008e-20)
(-3.19948 -0.224097 0)
(-3.12322 -0.225765 2.00959e-20)
(-3.04578 -0.227038 1.58728e-20)
(-2.96729 -0.227931 0)
(-2.88786 -0.22846 0)
(-2.80761 -0.228643 1.53627e-20)
(-2.72665 -0.228497 0)
(-2.64509 -0.228041 2.92821e-21)
(-2.56303 -0.227295 0)
(-2.48059 -0.226275 9.99476e-21)
(-2.39786 -0.225003 3.47173e-20)
(-2.31494 -0.223497 0)
(-2.23193 -0.221776 0)
(-2.14892 -0.21986 0)
(-2.06601 -0.217766 4.45793e-20)
(-1.9833 -0.215508 0)
(-1.90088 -0.213099 5.94006e-20)
(-1.81885 -0.210539 0)
(-1.73731 -0.207815 0)
(-1.65631 -0.204898 -1.67047e-19)
(-1.5759 -0.201775 0)
(-1.49609 -0.198459 -9.93095e-20)
(-1.41689 -0.194994 0)
(-1.33833 -0.191435 -1.16589e-19)
(-1.26047 -0.187824 0)
(-1.18336 -0.184176 0)
(-1.10706 -0.1805 0)
(-1.03161 -0.176802 -4.62678e-19)
(-0.957043 -0.173088 -1.65039e-19)
(-0.883389 -0.169366 0)
(-0.810676 -0.165642 0)
(-0.738929 -0.161921 0)
(-0.66817 -0.15821 0)
(-0.598417 -0.154512 2.18833e-19)
(-0.52968 -0.150834 -4.58455e-19)
(-0.461967 -0.147183 -2.42665e-19)
(-0.395288 -0.14357 5.07645e-19)
(-0.329654 -0.139999 5.33442e-19)
(-0.265071 -0.136477 2.8137e-19)
(-0.20154 -0.133005 0)
(-0.139063 -0.129584 6.16206e-19)
(-0.0776415 -0.126217 0)
(-0.0172765 -0.122908 -6.73541e-19)
(0.0420381 -0.119657 -3.45157e-19)
(0.100316 -0.116466 0)
(0.157563 -0.113337 6.9312e-19)
(0.213785 -0.110274 3.48829e-19)
(0.268992 -0.107277 0)
(0.323196 -0.104336 3.48723e-19)
(0.376403 -0.10144 -1.05281e-18)
(0.428622 -0.098598 0)
(0.479869 -0.0958211 0)
(0.530158 -0.0931117 0)
(0.579509 -0.0904706 0)
(0.627943 -0.0879022 -7.07749e-19)
(0.675494 -0.0854137 -7.10241e-19)
(0.722186 -0.08302 0)
(0.767986 -0.0807083 0)
(0.812877 -0.0784396 0)
(0.856913 -0.0762125 0)
(0.900136 -0.0740433 0)
(0.942562 -0.0719405 0)
(0.984206 -0.0699069 -7.14017e-19)
(1.02508 -0.0679422 -1.08882e-21)
(1.06521 -0.0660448 0)
(1.10461 -0.0642127 0)
(1.1433 -0.0624439 -7.13851e-19)
(1.1813 -0.0607366 0)
(1.21863 -0.059089 7.149e-19)
(1.25531 -0.0574999 7.14038e-19)
(1.29136 -0.0559678 0)
(1.32681 -0.0544915 0)
(1.36166 -0.05307 -7.14572e-19)
(1.39595 -0.0517022 -1.42735e-18)
(1.4297 -0.0503872 0)
(1.46292 -0.0491239 0)
(1.49564 -0.0479114 0)
(1.52787 -0.0467489 -7.13266e-19)
(1.55965 -0.0456353 7.12885e-19)
(1.59098 -0.0445697 0)
(1.6219 -0.043551 1.42289e-18)
(1.65242 -0.042578 7.10428e-19)
(1.68257 -0.0416494 -1.42084e-18)
(1.71236 -0.0407635 0)
(1.74181 -0.0399183 0)
(1.77096 -0.0391113 -1.41703e-18)
(1.7998 -0.0383391 -7.08228e-19)
(1.82837 -0.0375973 0)
(1.85666 -0.0368804 0)
(1.8847 -0.0361806 0)
(1.91249 -0.0354879 0)
(1.94001 -0.0347886 -1.4069e-18)
(1.96727 -0.0340646 0)
(1.99423 -0.0332908 0)
(2.02083 -0.032433 0)
(2.04702 -0.0314433 0)
(2.07266 -0.0302534 0)
(2.09759 -0.0287625 0)
(2.12155 -0.0268191 -1.39756e-18)
(2.1442 -0.0241716 0)
(2.16487 -0.0204149 0)
(2.18333 -0.0147565 -2.81635e-18)
(2.19677 -0.00587914 1.4182e-18)
(2.21146 0.00887489 -1.41632e-18)
(2.20637 0.0362535 1.41177e-18)
(0.0333208 -1.16608 0)
(0.0696812 -1.02977 3.59944e-19)
(0.0339274 -0.746806 0)
(-0.0105303 -0.506327 1.10881e-19)
(-0.0658664 -0.283605 0)
(-0.133732 -0.0740152 0)
(-0.216979 0.12284 -8.28091e-20)
(-0.317979 0.306223 0)
(-0.438859 0.475693 0)
(-0.582223 0.631807 0)
(-0.751927 0.777102 0)
(-0.953182 0.917677 0)
(-1.18862 1.06165 2.042e-19)
(-1.45264 1.21242 9.24377e-20)
(-1.73079 1.36374 -8.36896e-20)
(-2.00469 1.50227 0)
(-2.2586 1.61416 0)
(-2.48249 1.69009 0)
(-2.67155 1.72633 0)
(-2.82438 1.72415 0)
(-2.94353 1.68739 6.01643e-20)
(-3.03456 1.62131 5.88476e-20)
(-3.10355 1.53276 -5.79946e-20)
(-3.15685 1.42938 5.76931e-20)
(-3.19985 1.31789 0)
(-3.23687 1.20368 0)
(-3.27141 1.09112 5.58461e-20)
(-3.30579 0.983486 0)
(-3.34131 0.882908 0)
(-3.37847 0.790423 5.87004e-20)
(-3.41728 0.706273 6.15183e-20)
(-3.45739 0.630231 6.22299e-20)
(-3.49827 0.561767 0)
(-3.53931 0.500184 0)
(-3.5799 0.444723 -6.404e-20)
(-3.61946 0.394626 0)
(-3.65751 0.349183 0)
(-3.69363 0.307751 6.43128e-20)
(-3.72748 0.269764 -6.60329e-20)
(-3.75878 0.234735 6.60433e-20)
(-3.78731 0.202249 0)
(-3.81287 0.171955 0)
(-3.83533 0.143556 1.30019e-19)
(-3.85454 0.116803 0)
(-3.8704 0.0914829 1.28631e-19)
(-3.88282 0.06742 1.91043e-19)
(-3.89173 0.0444703 -1.89401e-19)
(-3.89704 0.0225133 1.25333e-19)
(-3.89873 0.00143218 0)
(-3.89678 -0.0188892 0)
(-3.89124 -0.0385289 1.19877e-19)
(-3.88217 -0.0575058 5.84074e-20)
(-3.86958 -0.0758159 0)
(-3.85352 -0.0934581 0)
(-3.83404 -0.110432 5.49011e-20)
(-3.81116 -0.126736 1.08253e-19)
(-3.78496 -0.14237 0)
(-3.75549 -0.15733 -1.018e-19)
(-3.72282 -0.171614 9.99702e-20)
(-3.68702 -0.185215 -9.69982e-20)
(-3.64819 -0.198129 0)
(-3.60641 -0.210352 0)
(-3.56177 -0.221877 0)
(-3.51437 -0.232702 0)
(-3.46432 -0.242831 0)
(-3.41171 -0.252266 -7.59249e-20)
(-3.35666 -0.261003 0)
(-3.29928 -0.269049 0)
(-3.23968 -0.276411 0)
(-3.17799 -0.283097 -1.22626e-19)
(-3.11431 -0.289118 -5.67052e-20)
(-3.04878 -0.294486 -5.26039e-20)
(-2.9815 -0.299215 9.80427e-20)
(-2.91261 -0.303321 -4.53638e-20)
(-2.84222 -0.30682 3.98119e-20)
(-2.77045 -0.309731 0)
(-2.69742 -0.312074 -3.08892e-20)
(-2.62325 -0.31387 0)
(-2.54806 -0.315139 0)
(-2.47195 -0.315906 0)
(-2.39505 -0.316192 -2.54918e-20)
(-2.31746 -0.316022 8.486e-21)
(-2.23928 -0.31542 4.76848e-21)