/*--------------------------------*- C++ -*----------------------------------*\
| =========                 |                                                 |
| \\      /  F ield         | OpenFOAM: The Open Source CFD Toolbox           |
|  \\    /   O peration     | Version:  v2012                                 |
|   \\  /    A nd           | Website:  www.openfoam.com                      |
|    \\/     M anipulation  |                                                 |
\*---------------------------------------------------------------------------*/
FoamFile
{
    version     2.0;
    format      ascii;
    class       volScalarField;
    location    "100";
    object      nuTilda;
}
// * * * * * * * * * * * * * * * * * * * * * * * * * * * * * * * * * * * * * //

dimensions      [0 2 -1 0 0 0 0];


internalField   nonuniform List<scalar> 
12225
(
0.0122671
0.00158832
0.000666922
0.000412184
0.000297991
0.000234138
0.000195219
0.000157782
0.000176116
0.000220904
0.000228555
0.000221288
0.000203349
0.0001783
0.00017211
0.000157485
0.000146147
0.000135437
0.0323823
0.00744531
0.00330638
0.00204331
0.00146809
0.00114443
0.000938862
0.000785638
0.000690459
0.000626411
0.000569682
0.000519683
0.000476161
0.000437036
0.000405895
0.00037351
0.000348864
0.000322467
0.0490123
0.0151499
0.00728189
0.00457844
0.00330623
0.00258023
0.00211311
0.00178165
0.0015457
0.001371
0.00123057
0.00111474
0.00101775
0.000935294
0.000865266
0.000802716
0.000751574
0.000698032
0.063054
0.0237783
0.0122893
0.00788796
0.0057337
0.00448455
0.00367402
0.00310339
0.00268571
0.00236839
0.00211674
0.00191218
0.0017429
0.00160069
0.0014803
0.00137587
0.00128738
0.00119971
0.074932
0.0328517
0.018145
0.0119259
0.00874511
0.00686357
0.00563023
0.00476018
0.00411711
0.00362411
0.00323375
0.00291733
0.00265629
0.00243781
0.00225303
0.00209453
0.0019584
0.00183364
0.0849536
0.0420207
0.0246654
0.0166356
0.012332
0.0097252
0.00799454
0.00676609
0.00585236
0.00514827
0.0045901
0.00413781
0.00376496
0.00345322
0.00318957
0.00296411
0.00276995
0.00259898
0.0933822
0.0510218
0.0316641
0.0219411
0.0164735
0.0130709
0.0107768
0.00913394
0.00790418
0.00695232
0.00619603
0.00558263
0.00507682
0.004654
0.00429644
0.00399102
0.00372806
0.00350038
0.0993794
0.0583362
0.0378384
0.0268564
0.0204165
0.0163044
0.013488
0.0114514
0.00991713
0.00872443
0.00777429
0.0070025
0.00636558
0.00583298
0.00538257
0.00499801
0.00466723
0.00438247
0.104023
0.0645453
0.0433802
0.0314235
0.0241564
0.0194083
0.0161085
0.0137002
0.0118747
0.0104498
0.0093118
0.00838588
0.00762103
0.00698111
0.00643988
0.00597786
0.00558073
0.00523955
0.108368
0.0708938
0.0493754
0.0365492
0.028451
0.0230222
0.019185
0.0163531
0.0141906
0.0124943
0.0111351
0.0100268
0.00911011
0.00834257
0.00769317
0.00713885
0.00666263
0.00625371
0.112368
0.0772555
0.0557279
0.0421913
0.0332969
0.0271643
0.0227455
0.0194416
0.0168963
0.0148878
0.0132718
0.0119508
0.0108561
0.00993866
0.00916199
0.00849897
0.00792948
0.00744023
0.115994
0.0834974
0.0623051
0.0482607
0.0386467
0.0318157
0.0267877
0.0229722
0.0200026
0.0176427
0.0157348
0.01417
0.0128706
0.01178
0.0108561
0.0100671
0.00938939
0.00880648
0.119234
0.0894855
0.0689374
0.0546104
0.0443912
0.0368998
0.0312585
0.0269073
0.0234817
0.0207377
0.0185069
0.0166702
0.0151411
0.0138556
0.0127654
0.0118339
0.0110333
0.0103439
0.122086
0.0950838
0.0754147
0.0610218
0.0503354
0.0422527
0.0360221
0.031134
0.0272386
0.0240911
0.0215167
0.0193881
0.0176109
0.0161138
0.0148425
0.0137555
0.0128207
0.0120143
0.124546
0.100135
0.0814617
0.0671722
0.0561575
0.0475764
0.0408119
0.0354165
0.0310648
0.0275182
0.0245996
0.0221758
0.0201459
0.0184324
0.0169755
0.0157284
0.0146551
0.0137277
0.126578
0.104396
0.0866604
0.0725513
0.0613225
0.0523523
0.045145
0.0393143
0.0345625
0.0306605
0.0274317
0.0247401
0.0224796
0.0205679
0.0189401
0.0175456
0.0163442
0.0153048
0.128011
0.107322
0.0902142
0.0762353
0.0648744
0.055651
0.0481495
0.0420256
0.0370014
0.0328555
0.0294128
0.0265355
0.0241147
0.0220647
0.0203177
0.0188198
0.0175283
0.0164092
0.128006
0.107313
0.090205
0.0762272
0.0648678
0.0556458
0.0481456
0.0420229
0.0369997
0.0328547
0.0294129
0.0265363
0.0241163
0.0220669
0.0203204
0.0188228
0.017531
0.0164108
0.126509
0.104255
0.0864925
0.0723811
0.0611619
0.0522058
0.0450138
0.039198
0.0344599
0.0305702
0.0273526
0.0246707
0.0224189
0.0205147
0.0188934
0.0175041
0.016306
0.015267
0.124267
0.0995605
0.0807715
0.0664681
0.0554893
0.046964
0.0402605
0.0349241
0.0306264
0.0271277
0.024251
0.0218637
0.0198655
0.0181794
0.0167461
0.015519
0.0144615
0.0135447
0.12136
0.09364
0.0737264
0.0593352
0.0487599
0.0408258
0.0347478
0.0300017
0.0262325
0.0231948
0.0207151
0.0186677
0.0169602
0.0155231
0.0143035
0.0132605
0.0123623
0.0115839
0.117686
0.0865904
0.065697
0.0514796
0.0415381
0.0343617
0.0290195
0.0249336
0.0217366
0.0191869
0.0171209
0.0154239
0.0140136
0.0128296
0.0118264
0.0109694
0.0102318
0.00959288
0.11305
0.0784123
0.0569213
0.0432691
0.0342302
0.027966
0.0234375
0.0200448
0.017428
0.0153618
0.0136991
0.0123399
0.0112139
0.0102705
0.00947222
0.00879085
0.00820472
0.00769716
0.107169
0.069101
0.0476373
0.0350294
0.0271571
0.0219227
0.0182446
0.0155413
0.0134833
0.0118728
0.0105845
0.00953545
0.00866868
0.00794363
0.00733069
0.00680774
0.00635797
0.00596862
0.0996761
0.0587037
0.038128
0.0270702
0.0205787
0.0164335
0.0135957
0.0115447
0.0100006
0.0088015
0.0078471
0.00707228
0.00643313
0.00589897
0.00544753
0.00506238
0.00473107
0.00444433
0.0901097
0.0473665
0.0287364
0.0196849
0.0146979
0.0116316
0.00957909
0.00811592
0.00702452
0.00618276
0.00551567
0.00497493
0.00452896
0.00415624
0.00384091
0.00357176
0.00334008
0.00313944
0.0779076
0.0353826
0.0198607
0.0131384
0.00966131
0.00759329
0.00623392
0.00527456
0.00456489
0.00402225
0.0035941
0.00324634
0.00295866
0.00271777
0.00251308
0.00233815
0.00218752
0.00205628
0.06238
0.0232554
0.0119461
0.00765504
0.00556354
0.00435277
0.00356751
0.00301641
0.00261352
0.00231195
0.0020754
0.0018799
0.00171637
0.00157828
0.00145968
0.00135738
0.00127017
0.0011912
0.0426105
0.0117795
0.00546934
0.00341394
0.00246085
0.00192025
0.00157297
0.00132972
0.00115837
0.0010423
0.000951438
0.000867433
0.000795935
0.000728808
0.00067717
0.000623322
0.000584674
0.000544886
0.0168348
0.0025599
0.00110032
0.000684209
0.000495204
0.000389188
0.000321488
0.00027316
0.0002717
0.000339906
0.000377158
0.000354123
0.000330027
0.000271558
0.000323165
0.000250813
0.000281239
0.000268195
4.52386e-06
1.94571e-05
3.85867e-05
4.97217e-05
5.33286e-05
5.23311e-05
4.73262e-05
4.04166e-05
3.38156e-05
2.9189e-05
2.70374e-05
2.61841e-05
2.51244e-05
1.95741e-05
2.1176e-05
4.24743e-05
3.86723e-05
6.79415e-05
9.28229e-05
0.000109641
0.000124808
0.000138204
0.000150544
0.000161229
0.000170835
0.000179313
0.000186877
0.000193595
0.000199574
0.000204924
0.000209708
0.000213973
0.000217743
0.000221043
0.000223898
0.000226327
0.00022835
0.000229982
0.000231063
0.000231577
0.000231781
0.000231679
0.000231163
0.000230307
0.000229085
0.00022751
0.000225578
0.000223285
0.000220621
0.000217605
0.000214248
0.00021054
0.000206505
0.000202165
0.000197597
0.000192938
0.000191066
0.000180789
0.000180359
0.000166594
0.00016413
0.000150343
0.000148502
0.000136826
0.000135211
0.000114634
0.000112454
0.000105916
0.00010382
0.000100515
9.75047e-05
9.44098e-05
9.13698e-05
8.85354e-05
8.60413e-05
8.35568e-05
8.11497e-05
7.89862e-05
7.63843e-05
7.29008e-05
6.88673e-05
6.41984e-05
5.84519e-05
5.15608e-05
4.3209e-05
3.56995e-05
2.52784e-05
2.07978e-05
2.04783e-05
2.80825e-05
3.33572e-05
4.0231e-05
4.11798e-05
4.27231e-05
5.03563e-05
9.29808e-05
0.000103435
0.000139114
0.000141388
0.000167546
0.000167562
0.000188574
0.000189469
0.000202399
0.000202272
0.000207098
0.000209303
0.000212317
0.000214776
0.000213293
0.000214723
0.000212791
0.000211025
0.000208552
0.000205886
0.000202834
0.000199822
0.000196917
0.000192977
0.000187718
0.0001794
0.00017304
0.000149245
0.000155776
0.000164512
0.000149534
0.000128205
0.000117129
0.000119932
9.77008e-05
9.42968e-05
9.07207e-05
8.78572e-05
8.48554e-05
8.16475e-05
7.9289e-05
7.53966e-05
7.28185e-05
6.49006e-05
5.72727e-05
5.64777e-05
3.23042e-05
2.88081e-05
2.11317e-05
1.30824e-05
7.37668e-06
3.95039e-06
2.04545e-06
1.03003e-06
5.0778e-07
2.46085e-07
1.17735e-07
5.5565e-08
2.59084e-08
1.19054e-08
5.40834e-09
2.42954e-09
1.10062e-09
4.95149e-10
2.66179e-10
1.55922e-10
1.35414e-10
1.13374e-10
1.2099e-10
1.28793e-10
1.33868e-10
1.30491e-10
1.6928e-10
3.32098e-10
9.76474e-10
3.06551e-09
9.34849e-09
3.20149e-08
9.42701e-08
3.13895e-07
8.19457e-07
2.4872e-06
5.49796e-06
1.44021e-05
2.34938e-05
1.04204e-05
6.25747e-05
0.000151871
0.000208335
0.000233853
0.00023692
0.000227391
0.000206573
0.000183368
0.000166901
0.000163349
0.000169408
0.000181065
0.00019592
0.000212894
0.000231956
0.000254398
0.000274242
0.000290552
0.000305011
0.00031764
0.000329537
0.000351597
0.000369637
0.000385992
0.000400476
0.000413925
0.000426644
0.000438314
0.000449548
0.00046057
0.000471457
0.000482067
0.000492215
0.000501798
0.000510729
0.000518998
0.000526603
0.000533551
0.000539851
0.000545519
0.000550553
0.000554978
0.000558796
0.000562014
0.000564632
0.000566665
0.000568059
0.000568607
0.000568566
0.000567915
0.000566586
0.000564609
0.000561993
0.000558758
0.000554918
0.000550787
0.000545422
0.000540348
0.000533471
0.000527032
0.000519196
0.000512159
0.000502716
0.000494936
0.000483804
0.000474028
0.000462704
0.000451581
0.00044012
0.000428557
0.000416885
0.000405159
0.000393343
0.000381551
0.000369777
0.000357943
0.000345686
0.000332161
0.00031742
0.000301708
0.000284087
0.000263703
0.000239738
0.000211747
0.000180611
0.000147175
0.000123044
0.000121745
0.00012558
0.000175248
0.000215107
0.000242104
0.000267236
0.000284863
0.000298567
0.000326812
0.000357088
0.000378698
0.000399098
0.000416409
0.00043363
0.000447931
0.000461445
0.000469906
0.000481141
0.000484997
0.000497882
0.000501536
0.000503467
0.000506722
0.000511158
0.000511434
0.00051076
0.000511342
0.00050947
0.000507469
0.000504982
0.000501819
0.000497775
0.000492031
0.000487298
0.000479143
0.00047547
0.000473045
0.0004647
0.000453103
0.000446767
0.000441593
0.000429982
0.000420338
0.000409424
0.000398386
0.000386821
0.000374952
0.000362221
0.000348515
0.0003285
0.000300507
0.000260149
0.000225136
0.000156392
8.92997e-05
4.83293e-05
2.45694e-05
1.20755e-05
5.84182e-06
2.75374e-06
1.28269e-06
5.90094e-07
2.68091e-07
1.20422e-07
5.34138e-08
2.33587e-08
1.00682e-08
4.26818e-09
1.77327e-09
7.20483e-10
2.84304e-10
1.09905e-10
4.33622e-11
1.59051e-11
9.3372e-12
2.11483e-12
3.69777e-12
1.582e-12
2.7935e-12
5.63834e-12
7.08528e-12
4.01185e-11
6.56685e-11
4.27424e-10
8.47559e-10
5.09601e-09
1.53683e-08
7.24795e-08
2.24168e-07
8.33848e-07
2.04574e-06
6.94357e-06
2.27929e-05
0.000116638
0.000238417
0.000304135
0.000334148
0.000337379
0.000323557
0.00030449
0.000294927
0.000296039
0.000310386
0.000332105
0.000358679
0.000388941
0.000421976
0.000456412
0.000492115
0.000548155
0.000603267
0.000658431
0.000712432
0.00076708
0.00081916
0.000860916
0.000894316
0.000920763
0.000941593
0.000958013
0.000971341
0.000983151
0.000995084
0.00100841
0.00102328
0.00103884
0.00105422
0.00106901
0.001083
0.00109608
0.00110816
0.00111913
0.00112891
0.00113745
0.00114473
0.00115075
0.00115551
0.00115905
0.00116117
0.00116208
0.00116217
0.00116044
0.00115732
0.00115281
0.00114691
0.00113965
0.00113106
0.00112117
0.00111006
0.00109764
0.00108411
0.00106925
0.00105333
0.00103613
0.00101797
0.000998492
0.000978287
0.000956783
0.000934624
0.000911547
0.000887845
0.000863588
0.000838905
0.000813884
0.000788604
0.000763112
0.000737478
0.000711764
0.000685974
0.000660252
0.000634998
0.000609304
0.000582302
0.000553215
0.000521013
0.000484115
0.000440491
0.00039139
0.00033942
0.000290063
0.000289949
0.000302316
0.000332278
0.000377071
0.000425664
0.000508367
0.000598571
0.000678742
0.000753203
0.000820497
0.000864839
0.00089687
0.000918014
0.000938139
0.000959057
0.000980269
0.000999117
0.00101569
0.00102563
0.00104101
0.00104629
0.00105409
0.00105784
0.00105842
0.00105887
0.00105629
0.00105265
0.0010472
0.00104055
0.0010327
0.00102369
0.00101356
0.00100222
0.000989842
0.000975991
0.000963514
0.000950498
0.000934665
0.000917449
0.00090113
0.000884175
0.000864806
0.000844903
0.000823631
0.000801113
0.000776803
0.00075019
0.000719953
0.000685229
0.000641473
0.000580094
0.000504464
0.00040654
0.000260098
0.000140577
6.82008e-05
3.15713e-05
1.44105e-05
6.72612e-06
2.98398e-06
1.31205e-06
5.73991e-07
2.50173e-07
1.08619e-07
4.69494e-08
2.01816e-08
8.62523e-09
3.66578e-09
1.55817e-09
6.61086e-10
2.84506e-10
1.21122e-10
5.06086e-11
2.07168e-11
8.60708e-12
3.67557e-12
1.50255e-12
7.59583e-13
3.16005e-13
3.75421e-13
2.36912e-13
1.08334e-12
9.3267e-13
3.1047e-11
3.747e-11
4.37935e-10
4.85551e-10
5.95025e-09
8.36138e-09
7.63489e-08
1.35142e-07
9.98006e-07
3.44247e-05
0.000152349
0.000292749
0.000379325
0.00041979
0.000432992
0.000435035
0.000437534
0.000450481
0.000475984
0.000512195
0.000556654
0.000608152
0.00066622
0.000749172
0.000841566
0.000941459
0.00103263
0.00111309
0.00118632
0.00125304
0.00131341
0.00136722
0.00141427
0.0014553
0.00149112
0.00152257
0.00155047
0.0015756
0.00159868
0.00162035
0.00164108
0.00166118
0.00168079
0.00169994
0.00171853
0.00173636
0.00175317
0.0017687
0.00178271
0.00179501
0.00180548
0.00181401
0.00182056
0.00182503
0.00182771
0.0018286
0.00182792
0.00182489
0.00181976
0.00181256
0.00180324
0.00179178
0.00177821
0.00176257
0.00174493
0.00172538
0.00170397
0.00168079
0.00165583
0.00162913
0.00160067
0.00157051
0.00153868
0.00150531
0.00147045
0.00143425
0.00139679
0.00135822
0.00131871
0.00127842
0.00123753
0.00119618
0.00115453
0.00111276
0.00107108
0.00102991
0.00099011
0.000952405
0.000915567
0.000878857
0.000841445
0.000801933
0.00075798
0.000704597
0.000641748
0.000583162
0.000517455
0.000472868
0.000471308
0.000518274
0.000602413
0.000755303
0.000934229
0.0010888
0.00121022
0.00130768
0.00138547
0.00144333
0.00148734
0.0015211
0.00154972
0.00157598
0.0016012
0.00162464
0.0016452
0.00166123
0.00167501
0.00168325
0.00168748
0.00168938
0.0016876
0.00168343
0.0016764
0.00166706
0.00165546
0.00164192
0.00162661
0.00160968
0.00159126
0.00157143
0.00155032
0.00152806
0.00150555
0.0014821
0.00145706
0.00143078
0.00140392
0.00137589
0.00134607
0.00131478
0.00128165
0.00124632
0.00120776
0.00116404
0.00111211
0.00104893
0.000972999
0.000875989
0.000775672
0.000559149
0.000315981
0.000158724
7.55325e-05
3.48845e-05
1.60531e-05
6.75938e-06
2.85327e-06
1.19959e-06
5.00621e-07
2.07702e-07
8.60579e-08
3.56888e-08
1.48122e-08
6.18784e-09
2.60306e-09
1.09809e-09
4.65128e-10
1.97711e-10
8.42782e-11
3.6482e-11
1.61102e-11
7.21748e-12
3.16499e-12
1.4055e-12
6.23066e-13
3.0141e-13
1.60364e-13
1.44002e-13
1.26602e-13
1.07961e-13
5.19444e-13
8.6326e-13
8.03335e-12
1.24969e-11
5.11181e-10
3.18198e-10
7.13574e-09
1.11422e-08
8.92463e-08
4.04711e-05
0.000175758
0.000330704
0.000449055
0.000514448
0.000551745
0.000579413
0.000610489
0.000652034
0.000705718
0.000770494
0.000847548
0.000950768
0.00106776
0.00117762
0.00128257
0.00138279
0.00147655
0.00156369
0.00164483
0.00172037
0.00179064
0.00185595
0.0019167
0.00197336
0.00202644
0.0020764
0.00212362
0.00216841
0.00221098
0.00225146
0.0022899
0.00232624
0.00236042
0.00239231
0.00242176
0.00244862
0.00247272
0.00249394
0.00251216
0.00252731
0.00253936
0.00254832
0.00255394
0.00255648
0.00255702
0.00255466
0.00254958
0.00254182
0.00253139
0.00251822
0.00250225
0.00248341
0.00246169
0.00243712
0.00240981
0.00237992
0.00234758
0.00231292
0.00227599
0.00223678
0.00219527
0.00215147
0.00210544
0.00205729
0.00200716
0.00195518
0.00190146
0.00184614
0.00178942
0.00173157
0.00167285
0.00161353
0.00155391
0.00149432
0.00143521
0.00137747
0.00132277
0.00127205
0.00122453
0.00117995
0.00113794
0.00109693
0.00105489
0.0010034
0.000923899
0.000823606
0.000719009
0.000653937
0.000666576
0.000752628
0.00093704
0.00117709
0.0013876
0.00156708
0.00171641
0.00184088
0.00194478
0.00203098
0.00210333
0.00216456
0.002217
0.00226197
0.00230019
0.00233194
0.00235748
0.00237508
0.00238781
0.00239282
0.00239383
0.00239032
0.00238248
0.00237098
0.00235606
0.00233808
0.00231732
0.00229414
0.00226881
0.00224157
0.00221262
0.00218215
0.00215036
0.00211741
0.0020836
0.00204878
0.0020127
0.00197537
0.00193692
0.00189698
0.00185515
0.00181129
0.00176497
0.00171552
0.0016614
0.0015995
0.00152363
0.00142849
0.00131661
0.00119116
0.00099686
0.000635739
0.00033938
0.000155916
6.71701e-05
2.85083e-05
1.20522e-05
5.0511e-06
2.11204e-06
8.79273e-07
3.73048e-07
1.62878e-07
7.16304e-08
3.12117e-08
1.33299e-08
5.68767e-09
2.41599e-09
1.04165e-09
4.45607e-10
1.87078e-10
7.69379e-11
3.19122e-11
1.33e-11
5.55939e-12
2.51016e-12
1.12978e-12
5.16808e-13
2.22644e-13
1.03729e-13
6.32131e-14
5.17754e-14
4.81886e-14
1.94052e-13
1.85394e-13
8.89703e-13
9.84217e-13
2.32766e-11
6.38882e-12
5.61255e-10
6.45189e-10
1.19008e-08
4.30994e-05
0.000186112
0.000345516
0.00049621
0.000595848
0.000663931
0.000721511
0.000782175
0.000853773
0.00094782
0.001066
0.00119698
0.00131952
0.0014386
0.0015527
0.00166186
0.00176606
0.00186521
0.00195946
0.00204915
0.00213462
0.00221617
0.00229412
0.00236878
0.00244041
0.00250926
0.00257552
0.00263931
0.00270071
0.00275973
0.00281634
0.00287047
0.00292202
0.00297087
0.00301687
0.00305987
0.00309973
0.00313628
0.00316937
0.00319885
0.00322459
0.00324645
0.00326432
0.00327809
0.00328752
0.00329228
0.00329379
0.00329063
0.00328298
0.0032707
0.00325379
0.00323227
0.00320623
0.00317584
0.00314132
0.00310297
0.00306114
0.00301618
0.00296838
0.00291787
0.00286466
0.00280867
0.00274981
0.00268813
0.00262376
0.00255692
0.00248777
0.00241638
0.00234284
0.00226739
0.00219041
0.00211233
0.00203356
0.00195458
0.00187587
0.00179817
0.00172274
0.00165185
0.00158737
0.00152917
0.00147792
0.00143457
0.00140049
0.00135431
0.00127757
0.00116908
0.0010377
0.000912731
0.000854674
0.000906244
0.00106085
0.00132212
0.00158399
0.0018184
0.002023
0.00219979
0.00235264
0.00248509
0.00259999
0.00269988
0.00278663
0.00286163
0.00292579
0.00297977
0.00302406
0.00305918
0.00308445
0.00310148
0.00310881
0.00311053
0.00310546
0.00309424
0.00307756
0.00305597
0.00303
0.00300017
0.00296701
0.00293099
0.00289253
0.00285199
0.00280969
0.00276592
0.00272087
0.00267472
0.00262746
0.00257897
0.00252909
0.00247771
0.00242441
0.00236869
0.00231003
0.0022476
0.00218003
0.00210483
0.00201847
0.00191669
0.00179283
0.00164351
0.00147188
0.00110879
0.000672436
0.000334565
0.000152855
6.76285e-05
2.93894e-05
1.28117e-05
5.24249e-06
2.05014e-06
8.20517e-07
3.35636e-07
1.39878e-07
5.90897e-08
2.47247e-08
1.12079e-08
4.98259e-09
2.21286e-09
9.10303e-10
3.80009e-10
1.6043e-10
6.85597e-11
2.94639e-11
1.28634e-11
5.92191e-12
2.69856e-12
1.23328e-12
5.65307e-13
2.69531e-13
1.10849e-13
1.00018e-13
8.70312e-14
7.65854e-14
7.01121e-14
6.71559e-14
2.30438e-13
2.00839e-13
2.31826e-12
1.0456e-12
5.18963e-11
4.0735e-11
1.16503e-09
4.33623e-05
0.000185037
0.000340421
0.00048828
0.000615034
0.000714369
0.000807791
0.000920904
0.00105088
0.00119737
0.00135393
0.00149595
0.00162821
0.0017535
0.00187274
0.00198702
0.00209678
0.00220235
0.00230401
0.00240209
0.00249685
0.00258854
0.00267739
0.00276356
0.0028472
0.0029284
0.0030072
0.00308362
0.00315764
0.00322917
0.00329815
0.00336446
0.00342796
0.00348852
0.00354599
0.0036002
0.00365099
0.00369819
0.00374162
0.00378112
0.00381653
0.00384767
0.00387439
0.00389654
0.00391398
0.00392658
0.00393389
0.00393661
0.00393476
0.00392747
0.00391476
0.00389666
0.00387319
0.00384439
0.00381031
0.00377104
0.00372665
0.00367722
0.00362284
0.00356356
0.00349944
0.00343058
0.00335718
0.00327955
0.0031982
0.00311368
0.00302638
0.00293637
0.00284358
0.00274821
0.00265088
0.00255221
0.00245279
0.00235332
0.00225452
0.0021573
0.00206314
0.00197462
0.00189502
0.00182512
0.00176692
0.00172351
0.00168628
0.00162095
0.00152178
0.0013911
0.00124195
0.00111513
0.00107805
0.00116579
0.00140141
0.00168758
0.00196774
0.00222353
0.00245159
0.0026532
0.0028311
0.002988
0.0031262
0.00324755
0.00335349
0.00344515
0.00352339
0.00358895
0.0036425
0.00368469
0.00371574
0.0037361
0.00374562
0.00374806
0.00374221
0.00372889
0.00370884
0.00368275
0.00365124
0.00361494
0.00357443
0.00353026
0.00348294
0.0034329
0.00338052
0.00332615
0.00327
0.00321222
0.00315285
0.00309176
0.00302876
0.00296355
0.00289565
0.00282437
0.00274892
0.00266819
0.00258053
0.00248351
0.00237362
0.00224686
0.00209654
0.00191241
0.00164581
0.00117326
0.000658317
0.000323138
0.000147695
6.5604e-05
2.82762e-05
1.07303e-05
4.16965e-06
1.83451e-06
8.00721e-07
3.45815e-07
1.5121e-07
6.53816e-08
2.80502e-08
1.19891e-08
5.10452e-09
2.18922e-09
9.46966e-10
4.07414e-10
1.75107e-10
7.53383e-11
3.23731e-11
1.42651e-11
5.80644e-12
2.59952e-12
1.20724e-12
5.73317e-13
2.80385e-13
1.38935e-13
6.84443e-14
5.07005e-14
4.26101e-14
5.12355e-14
4.74015e-14
1.14433e-13
8.56813e-14
7.12475e-13
3.08475e-13
1.31002e-11
1.47616e-11
1.27481e-10
4.2486e-05
0.000180933
0.00033449
0.000484488
0.00062569
0.000763269
0.00090651
0.00106404
0.00123522
0.00141846
0.00158496
0.00173639
0.00187741
0.00201073
0.00213774
0.00225914
0.00237561
0.002488
0.00259685
0.00270252
0.00280532
0.00290546
0.00300312
0.00309839
0.00319135
0.00328203
0.00337041
0.00345646
0.00354009
0.00362122
0.00369971
0.00377545
0.00384828
0.00391804
0.00398457
0.00404768
0.00410718
0.0041629
0.00421464
0.0042622
0.00430539
0.00434403
0.00437795
0.00440697
0.00443093
0.00444969
0.0044631
0.00447072
0.00447347
0.00447103
0.00446266
0.00444849
0.00442855
0.00440288
0.00437152
0.00433452
0.00429191
0.00424376
0.00419009
0.00413091
0.00406625
0.00399607
0.00392036
0.00383905
0.00375208
0.00365931
0.00356054
0.00345565
0.00334487
0.00322924
0.00311065
0.00299046
0.00286937
0.00274854
0.00262891
0.00251154
0.0023979
0.00229058
0.00219382
0.00210997
0.00204228
0.00199596
0.00194384
0.00186175
0.00174683
0.0016031
0.00144885
0.00133255
0.00132137
0.00144727
0.00172257
0.00202634
0.00232298
0.00259771
0.00284637
0.00306919
0.00326789
0.00344446
0.0036007
0.00373812
0.00385799
0.00396135
0.00404915
0.00412225
0.00418148
0.00422766
0.00426138
0.00428238
0.00429222
0.00429337
0.00428516
0.00426849
0.00424423
0.00421315
0.00417598
0.00413342
0.00408611
0.00403464
0.00397955
0.00392129
0.00386027
0.00379679
0.00373107
0.00366322
0.00359324
0.003521
0.00344621
0.0033685
0.00328729
0.00320183
0.00311116
0.00301404
0.00290874
0.00279276
0.00266225
0.0025125
0.00233955
0.00210299
0.00175408
0.00115999
0.000608328
0.000295894
0.000118198
4.69062e-05
2.16717e-05
9.85962e-06
3.90003e-06
1.77533e-06
7.93001e-07
3.49778e-07
1.53201e-07
6.68186e-08
2.90701e-08
1.26355e-08
5.48322e-09
2.38561e-09
1.02583e-09
4.40225e-10
1.87921e-10
7.42583e-11
2.99657e-11
1.23817e-11
5.30756e-12
2.31449e-12
1.13476e-12
5.56542e-13
2.75945e-13
1.37236e-13
7.07828e-14
3.50502e-14
2.97956e-14
2.16384e-14
1.84259e-14
2.56683e-14
1.66666e-14
4.90814e-13
5.02894e-13
4.61409e-12
4.84222e-12
4.76514e-11
4.12329e-05
0.000176665
0.00033189
0.000490368
0.000651533
0.000817433
0.000994134
0.00118273
0.00138283
0.00158208
0.00175953
0.00192084
0.00207083
0.00221242
0.00234733
0.00247662
0.00260097
0.00272077
0.00283662
0.00294918
0.00305889
0.00316602
0.00327076
0.00337322
0.00347348
0.00357153
0.00366734
0.00376086
0.003852
0.00394064
0.00402665
0.00410988
0.00419017
0.00426734
0.0043412
0.00441155
0.0044782
0.00454092
0.0045995
0.00465373
0.00470339
0.00474827
0.00478817
0.00482291
0.00485231
0.00487621
0.00489447
0.00490687
0.00491335
0.00491468
0.00490988
0.004899
0.00488208
0.00485915
0.00483029
0.00479553
0.00475495
0.00470861
0.00465657
0.00459886
0.0045355
0.0044665
0.00439181
0.00431135
0.00422497
0.00413242
0.00403338
0.00392741
0.00381398
0.00369259
0.00356283
0.00342503
0.00328202
0.00313916
0.00299824
0.00286039
0.00272693
0.00260018
0.00248423
0.00238354
0.00230178
0.00224457
0.00217892
0.00208521
0.00196143
0.00181326
0.00166281
0.00156083
0.00156928
0.00173039
0.0020191
0.00233458
0.00264496
0.00293589
0.00320214
0.00344276
0.00365858
0.00385095
0.00402129
0.00417091
0.004301
0.00441262
0.00450682
0.00458458
0.00464687
0.00469466
0.00472866
0.00474842
0.00475691
0.00475509
0.00474305
0.00472181
0.00469232
0.00465548
0.00461213
0.00456304
0.00450892
0.00445041
0.00438806
0.00432234
0.00425363
0.00418223
0.00410829
0.00403189
0.00395296
0.00387129
0.00378655
0.00369827
0.00360582
0.00350837
0.00340487
0.00329395
0.00317376
0.00304172
0.0028938
0.00272317
0.00252647
0.00227507
0.00177685
0.00110967
0.000585393
0.000251136
0.000105995
4.46214e-05
2.14303e-05
9.9792e-06
4.41092e-06
1.90279e-06
8.19346e-07
3.53392e-07
1.52568e-07
6.58785e-08
2.84739e-08
1.23194e-08
5.32202e-09
2.2971e-09
9.93742e-10
4.3962e-10
1.78026e-10
7.52581e-11
3.30923e-11
1.50896e-11
7.03061e-12
3.32418e-12
1.58869e-12
7.75813e-13
3.87565e-13
1.96369e-13
1.02006e-13
5.33165e-14
2.98159e-14
1.6523e-14
1.60112e-14
1.4911e-14
1.33494e-14
1.03766e-13
9.49775e-14
1.14487e-12
1.25479e-12
1.48573e-11
3.97462e-05
0.000171974
0.000329013
0.000495963
0.000671844
0.000858209
0.00105615
0.00126544
0.00148608
0.00169533
0.00188281
0.00205362
0.00221229
0.00236184
0.00250422
0.00264069
0.00277212
0.00289908
0.00302202
0.00314116
0.00325704
0.00337013
0.00348072
0.003589
0.00369506
0.00379895
0.00390065
0.0040001
0.00409723
0.0041919
0.00428399
0.00437334
0.00445976
0.00454308
0.00462309
0.00469957
0.00477229
0.00484102
0.00490553
0.00496557
0.0050209
0.00507128
0.0051165
0.00515634
0.0051906
0.00521912
0.00524175
0.00525835
0.00526866
0.00527308
0.00527158
0.00526369
0.00524951
0.00522911
0.00520255
0.00516992
0.0051313
0.00508677
0.00503643
0.00498035
0.00491858
0.00485115
0.00477806
0.00469925
0.00461459
0.00452389
0.00442685
0.00432306
0.00421199
0.00409297
0.00396519
0.00382782
0.00368031
0.00352335
0.00336149
0.00320329
0.00305011
0.00290388
0.00276798
0.00264795
0.00254823
0.00247421
0.00239795
0.00229732
0.00217052
0.0020244
0.0018823
0.00179225
0.00180646
0.00199636
0.00228727
0.00260922
0.00293012
0.00323439
0.00351538
0.00377093
0.00400096
0.00420626
0.0043879
0.00454706
0.00468486
0.00480245
0.00490092
0.00498138
0.00504493
0.00509264
0.00512516
0.00514287
0.00514872
0.00514275
0.00512591
0.00509926
0.00506387
0.00502075
0.00497087
0.00491508
0.0048542
0.00478889
0.00471975
0.00464723
0.00457171
0.00449344
0.00441253
0.00432897
0.00424262
0.00415321
0.00406031
0.00396338
0.0038617
0.00375437
0.0036402
0.00351771
0.00338491
0.00323901
0.00307604
0.0028882
0.00265788
0.00237605
0.001753
0.00105656
0.000546794
0.000259579
0.000118859
5.36902e-05
2.38262e-05
1.06254e-05
4.14763e-06
1.80755e-06
8.28773e-07
3.7352e-07
1.66594e-07
7.37817e-08
3.26377e-08
1.42232e-08
6.13105e-09
2.65018e-09
1.15097e-09
5.04163e-10
2.23396e-10
1.00439e-10
4.58571e-11
2.14035e-11
1.00034e-11
4.62542e-12
2.12948e-12
1.01182e-12
4.95221e-13
2.47828e-13
1.275e-13
6.53766e-14
3.61113e-14
1.82596e-14
1.64846e-14
1.41209e-14
1.33739e-14
3.55759e-14
3.43849e-14
2.36687e-13
2.43051e-13
2.48103e-12
3.80088e-05
0.000165775
0.000322311
0.000493553
0.000678786
0.000878133
0.00108918
0.00131177
0.00154557
0.0017634
0.00195969
0.00213896
0.00230544
0.00246213
0.00261112
0.00275381
0.00289122
0.00302405
0.00315283
0.00327793
0.00339964
0.00351808
0.00363372
0.00374687
0.00385771
0.00396636
0.00407283
0.0041771
0.00427911
0.00437875
0.00447589
0.00457037
0.00466201
0.00475061
0.00483595
0.0049178
0.00499592
0.00507005
0.00513993
0.00520529
0.00526587
0.0053214
0.00537163
0.00541632
0.00545526
0.00548825
0.00551513
0.00553576
0.00555
0.00555778
0.00555943
0.00555453
0.00554316
0.00552538
0.00550126
0.00547091
0.00543443
0.00539193
0.00534352
0.00528932
0.00522941
0.00516386
0.00509269
0.0050159
0.0049334
0.00484506
0.00475064
0.00464982
0.00454217
0.00442711
0.00430394
0.0041718
0.00402971
0.00387672
0.00371249
0.00353917
0.00336687
0.00320188
0.00304677
0.00290603
0.00278562
0.00268991
0.00260568
0.00250153
0.00237574
0.0022356
0.00210363
0.00202337
0.00204116
0.0022352
0.0025237
0.002848
0.00317613
0.00349093
0.00378411
0.00405218
0.00429417
0.00451027
0.00470126
0.00486813
0.00501199
0.00513399
0.00523533
0.0053172
0.00538082
0.00542738
0.00545755
0.00547265
0.0054746
0.00546388
0.00544164
0.00540907
0.00536738
0.00531772
0.00526115
0.00519869
0.0051312
0.00505944
0.00498402
0.0049054
0.00482394
0.00473984
0.00465316
0.00456378
0.0044715
0.00437592
0.00427652
0.00417267
0.00406354
0.0039481
0.00382506
0.00369277
0.0035491
0.00339096
0.00321359
0.00301088
0.00276175
0.00238967
0.00172137
0.00104303
0.000546287
0.000262742
0.000121443
5.52091e-05
2.38933e-05
1.02459e-05
4.4445e-06
1.90214e-06
7.24686e-07
2.84915e-07
1.14821e-07
4.72089e-08
1.97883e-08
8.84288e-09
4.10877e-09
1.87731e-09
8.56677e-10
3.94093e-10
1.83651e-10
8.69246e-11
4.16521e-11
2.06099e-11
9.2866e-12
4.38785e-12
2.158e-12
1.09366e-12
5.66802e-13
2.98459e-13
1.59646e-13
8.56112e-14
4.73062e-14
2.44536e-14
1.58584e-14
1.10082e-14
1.03962e-14
1.3289e-14
1.34352e-14
7.13172e-14
7.84131e-14
6.41189e-13
3.53519e-05
0.000157371
0.000311199
0.00048406
0.000672724
0.000875783
0.00109312
0.0013245
0.00156631
0.00179064
0.00199403
0.00218033
0.00235329
0.00251592
0.00267037
0.00281815
0.00296038
0.00309786
0.00323119
0.00336083
0.00348713
0.00361031
0.00373057
0.00384799
0.00396294
0.0040756
0.00418607
0.00429438
0.0044005
0.00450436
0.00460583
0.00470476
0.00480098
0.00489428
0.00498443
0.00507119
0.0051543
0.00523347
0.00530845
0.00537892
0.00544459
0.00550517
0.00556037
0.00560993
0.00565359
0.00569115
0.00572241
0.00574722
0.00576547
0.00577707
0.00578206
0.0057804
0.00577214
0.00575732
0.005736
0.00570831
0.00567436
0.00563429
0.00558824
0.00553636
0.00547875
0.00541554
0.00534677
0.00527248
0.00519264
0.00510716
0.00501586
0.0049185
0.00481473
0.00470409
0.00458599
0.00445973
0.00432445
0.00417915
0.00402277
0.00385457
0.00367557
0.0034932
0.00332043
0.00316044
0.00301868
0.00290012
0.00280595
0.00269937
0.00257658
0.00244404
0.00232185
0.00224801
0.00226355
0.00244759
0.00272802
0.00305026
0.00338207
0.00370453
0.00400752
0.0042861