/*--------------------------------*- C++ -*----------------------------------*\
| =========                 |                                                 |
| \\      /  F ield         | OpenFOAM: The Open Source CFD Toolbox           |
|  \\    /   O peration     | Version:  v2012                                 |
|   \\  /    A nd           | Website:  www.openfoam.com                      |
|    \\/     M anipulation  |                                                 |
\*---------------------------------------------------------------------------*/
FoamFile
{
    version     2.0;
    format      ascii;
    class       volVectorField;
    location    "100";
    object      U;
}
// * * * * * * * * * * * * * * * * * * * * * * * * * * * * * * * * * * * * * //

dimensions      [0 1 -1 0 0 0 0];


internalField   nonuniform List<vector> 
12225
(
(9.27451 -4.73371 0)
(13.1092 -1.71336 0)
(12.4771 -0.39507 0)
(11.2755 -0.0420247 0)
(10.6288 0.0144405 0)
(10.294 -0.000415212 0)
(10.0685 -0.00389509 0)
(9.8975 -0.0195155 0)
(9.7566 -0.0484946 0)
(9.63225 -0.046315 0)
(9.51512 -0.0362634 0)
(9.40404 -0.0314505 0)
(9.30058 -0.0284653 0)
(9.20385 -0.0217994 0)
(9.11321 -0.00687973 0)
(9.03439 0.00348451 0)
(8.95742 0.011764 0)
(8.95678 0.0243909 0)
(10.2592 0.0928169 0)
(10.7813 0.199439 0)
(10.9589 0.245856 0)
(10.7459 0.22945 0)
(10.5856 0.173407 0)
(10.4493 0.1159 0)
(10.3249 0.0827869 0)
(10.2257 0.0704333 0)
(10.1507 0.0665894 0)
(10.0881 0.0605101 0)
(10.0329 0.0550473 0)
(9.98288 0.0529767 0)
(9.93623 0.0527993 0)
(9.89213 0.0524952 0)
(9.84903 0.0500084 0)
(9.80734 0.0466274 0)
(9.76297 0.0328462 0)
(9.71515 0.0139658 0)
(9.87769 -0.245016 0)
(9.74274 0.00593894 0)
(10.1967 0.126043 0)
(10.3236 0.179831 0)
(10.3547 0.162209 0)
(10.3282 0.120897 0)
(10.2739 0.0924103 0)
(10.221 0.0770148 0)
(10.1759 0.0680173 0)
(10.1367 0.0632591 0)
(10.1019 0.0605493 0)
(10.07 0.0585628 0)
(10.0394 0.0568078 0)
(10.0096 0.0550571 0)
(9.98022 0.0532478 0)
(9.95116 0.0508682 0)
(9.9191 0.0441846 0)
(9.88033 0.0326774 0)
(9.83417 -0.443897 0)
(9.57644 -0.162949 0)
(9.91566 0.0340702 0)
(10.0924 0.134857 0)
(10.1877 0.146371 0)
(10.2143 0.121962 0)
(10.2017 0.100158 0)
(10.1787 0.0861112 0)
(10.1545 0.0769028 0)
(10.1309 0.0718076 0)
(10.1087 0.068878 0)
(10.0873 0.0669413 0)
(10.0663 0.0656281 0)
(10.0453 0.0649355 0)
(10.0238 0.0646138 0)
(10.0013 0.0638821 0)
(9.97526 0.0608861 0)
(9.94231 0.0572569 0)
(9.87825 -0.387427 0)
(9.61643 -0.195899 0)
(9.81589 -0.0181676 0)
(9.9606 0.0924116 0)
(10.0684 0.123336 0)
(10.1197 0.115212 0)
(10.1325 0.101698 0)
(10.1296 0.0910503 0)
(10.1205 0.0833256 0)
(10.1085 0.0785382 0)
(10.0954 0.0757338 0)
(10.0818 0.0742059 0)
(10.0676 0.0735876 0)
(10.0526 0.0737536 0)
(10.0366 0.0744371 0)
(10.0187 0.0753076 0)
(9.99737 0.0758837 0)
(9.97007 0.078195 0)
(9.91439 -0.287976 0)
(9.68293 -0.184873 0)
(9.78685 -0.0525996 0)
(9.88848 0.0519665 0)
(9.98673 0.0950655 0)
(10.0457 0.101122 0)
(10.0725 0.0965499 0)
(10.0827 0.0906227 0)
(10.0843 0.0854927 0)
(10.0809 0.0820315 0)
(10.0749 0.0800803 0)
(10.0673 0.0793279 0)
(10.0582 0.0795399 0)
(10.0479 0.0806319 0)
(10.036 0.0825006 0)
(10.0221 0.0851819 0)
(10.0052 0.0889554 0)
(9.98364 0.0956429 0)
(9.93763 -0.21396 0)
(9.74846 -0.167171 0)
(9.79213 -0.074496 0)
(9.85545 0.0173639 0)
(9.93485 0.0660613 0)
(9.99111 0.0828418 0)
(10.0237 0.0865494 0)
(10.0415 0.0858593 0)
(10.0501 0.0840444 0)
(10.0531 0.0826307 0)
(10.0524 0.0820616 0)
(10.0494 0.0824081 0)
(10.0445 0.0836566 0)
(10.0379 0.0858532 0)
(10.0296 0.089077 0)
(10.0194 0.0935951 0)
(10.0066 0.0999935 0)
(9.99086 0.109728 0)
(9.95263 -0.167239 0)
(9.79937 -0.149278 0)
(9.81149 -0.0838585 0)
(9.84901 -0.00496716 0)
(9.91042 0.0437133 0)
(9.95953 0.0663183 0)
(9.99211 0.0757134 0)
(10.0126 0.0792287 0)
(10.0247 0.0803959 0)
(10.0312 0.0810163 0)
(10.0339 0.081876 0)
(10.0339 0.0833326 0)
(10.0318 0.0855747 0)
(10.0279 0.0887784 0)
(10.0223 0.0931483 0)
(10.015 0.0990526 0)
(10.0057 0.107116 0)
(9.99448 0.118445 0)
(9.96405 -0.131979 0)
(9.83994 -0.13154 0)
(9.8331 -0.0868218 0)
(9.85252 -0.0199595 0)
(9.89836 0.0263819 0)
(9.93962 0.0521797 0)
(9.97007 0.0655969 0)
(9.99109 0.0724319 0)
(10.0049 0.076097 0)
(10.0135 0.0785464 0)
(10.0183 0.0807866 0)
(10.0204 0.0833553 0)
(10.0204 0.0865756 0)
(10.0186 0.0907165 0)
(10.0153 0.0960645 0)
(10.0104 0.103031 0)
(10.004 0.112213 0)
(9.9965 0.124438 0)
(9.97417 -0.100078 0)
(9.87748 -0.11189 0)
(9.85831 -0.0844141 0)
(9.86338 -0.0308347 0)
(9.89404 0.0110692 0)
(9.92617 0.0381177 0)
(9.95262 0.0544771 0)
(9.97259 0.0642348 0)
(9.98688 0.070345 0)
(9.9967 0.0747123 0)
(10.0031 0.0784556 0)
(10.007 0.0822472 0)
(10.0088 0.0865245 0)
(10.009 0.0916378 0)
(10.0077 0.0979285 0)
(10.0053 0.105806 0)
(10.0019 0.115783 0)
(9.99797 0.128413 0)
(9.98253 -0.0725641 0)
(9.91026 -0.0916423 0)
(9.88483 -0.0772073 0)
(9.87956 -0.0369871 0)
(9.89672 -0.001067 0)
(9.91933 0.0252776 0)
(9.94042 0.0432183 0)
(9.95791 0.055181 0)
(9.9715 0.0634229 0)
(9.98165 0.0696135 0)
(9.98901 0.074862 0)
(9.99414 0.0799033 0)
(9.9975 0.0852498 0)
(9.99944 0.0913033 0)
(10.0002 0.0984268 0)
(10.0002 0.106993 0)
(9.99963 0.11739 0)
(9.99902 0.129936 0)
(9.98894 -0.0500915 0)
(9.93725 -0.0717658 0)
(9.91051 -0.0663232 0)
(9.89877 -0.0382402 0)
(9.90503 -0.00918043 0)
(9.91863 0.0147684 0)
(9.93369 0.0328283 0)
(9.94764 0.0460181 0)
(9.95949 0.0558081 0)
(9.96912 0.0635015 0)
(9.97674 0.0700822 0)
(9.98267 0.0762671 0)
(9.98722 0.0825839 0)
(9.99068 0.0894469 0)
(9.99333 0.0972021 0)
(9.99547 0.106159 0)
(9.99746 0.116579 0)
(9.99975 0.12859 0)
(9.99348 -0.0327223 0)
(9.95813 -0.0531392 0)
(9.9335 -0.0530719 0)
(9.91865 -0.0349288 0)
(9.91704 -0.0128351 0)
(9.92293 0.0074989 0)
(9.93203 0.024307 0)
(9.9419 0.0376017 0)
(9.95129 0.0481309 0)
(9.95968 0.056776 0)
(9.96695 0.0643116 0)
(9.97318 0.0713581 0)
(9.97853 0.0783999 0)
(9.98319 0.0858154 0)
(9.9874 0.0939044 0)
(9.99142 0.102895 0)
(9.99557 0.11294 0)
(10.0002 0.124028 0)
(9.99642 -0.0199953 0)
(9.97322 -0.0364816 0)
(9.95247 -0.0387545 0)
(9.93706 -0.0278515 0)
(9.93053 -0.0120809 0)
(9.93052 0.00402095 0)
(9.93438 0.0184842 0)
(9.94023 0.0307719 0)
(9.94684 0.0410956 0)
(9.95355 0.0499474 0)
(9.96001 0.0578576 0)
(9.96611 0.0652977 0)
(9.97188 0.0726577 0)
(9.97739 0.0802413 0)
(9.9828 0.0882757 0)
(9.98829 0.0969084 0)
(9.9941 0.106199 0)
(10.0005 0.116061 0)
(9.99816 -0.0110618 0)
(9.98326 -0.0221556 0)
(9.96673 -0.0244087 0)
(9.95228 -0.0180431 0)
(9.94323 -0.00741507 0)
(9.93926 0.00442034 0)
(9.93909 0.0158328 0)
(9.94149 0.0261564 0)
(9.9455 0.0353132 0)
(9.95043 0.0435129 0)
(9.95588 0.051062 0)
(9.96159 0.0582692 0)
(9.96747 0.0653987 0)
(9.9735 0.0726583 0)
(9.97973 0.0801875 0)
(9.98626 0.0880584 0)
(9.99322 0.0962605 0)
(10.0008 0.104666 0)
(9.99906 -0.00484203 0)
(9.98921 -0.00997813 0)
(9.97609 -0.0105292 0)
(9.96306 -0.0064175 0)
(9.95308 0.000414475 0)
(9.94686 0.00832913 0)
(9.94405 0.016335 0)
(9.944 0.0239578 0)
(9.94601 0.0310726 0)
(9.94952 0.0377478 0)
(9.95407 0.0441323 0)
(9.95938 0.0503892 0)
(9.96525 0.0566595 0)
(9.97158 0.0630453 0)
(9.97834 0.0696005 0)
(9.98553 0.0763261 0)
(9.99319 0.0831639 0)
(10.0014 0.0899612 0)
(9.99942 -0.000125552 0)
(9.99182 0.000949563 0)
(9.98046 0.00320624 0)
(9.9683 0.00662587 0)
(9.95806 0.0107056 0)
(9.95087 0.0150434 0)
(9.94684 0.019421 0)
(9.94561 0.0237625 0)
(9.94667 0.0280796 0)
(9.94953 0.0324308 0)
(9.95375 0.0368814 0)
(9.95899 0.0414887 0)
(9.96501 0.0462843 0)
(9.97166 0.0512753 0)
(9.97883 0.056434 0)
(9.98646 0.0617029 0)
(9.99453 0.0669836 0)
(10.003 0.0721127 0)
(9.99935 0.00431493 0)
(9.99114 0.0119214 0)
(9.97907 0.0174309 0)
(9.96636 0.0206554 0)
(9.95585 0.0222345 0)
(9.94869 0.0229565 0)
(9.94492 0.0234423 0)
(9.94413 0.0240968 0)
(9.94576 0.025151 0)
(9.94926 0.0267073 0)
(9.95415 0.0287895 0)
(9.96008 0.0313663 0)
(9.96677 0.0343801 0)
(9.97405 0.0377482 0)
(9.98177 0.0413774 0)
(9.98985 0.0451547 0)
(9.99824 0.0489556 0)
(10.0069 0.0526032 0)
(9.99882 0.00993717 0)
(9.98681 0.0247175 0)
(9.97137 0.0330258 0)
(9.9567 0.0350464 0)
(9.94604 0.0331006 0)
(9.9401 0.0294591 0)
(9.9383 0.0256344 0)
(9.93976 0.022457 0)
(9.94359 0.0202883 0)
(9.94911 0.0192058 0)
(9.95576 0.0191357 0)
(9.96318 0.0199358 0)
(9.97111 0.021441 0)
(9.97937 0.023485 0)
(9.98786 0.0259081 0)
(9.99651 0.0285573 0)
(10.0053 0.0312806 0)
(10.0141 0.0338995 0)
(9.99758 0.0183899 0)
(9.97781 0.0410359 0)
(9.95682 0.0506232 0)
(9.93979 0.0490473 0)
(9.93016 0.0415745 0)
(9.9274 0.0324372 0)
(9.92962 0.023966 0)
(9.93509 0.0171674 0)
(9.94254 0.0122931 0)
(9.95108 0.00922035 0)
(9.9602 0.00767053 0)
(9.96954 0.00733729 0)
(9.97895 0.00792778 0)
(9.98832 0.00919295 0)
(9.99761 0.0109145 0)
(10.0068 0.0129114 0)
(10.0159 0.0150153 0)
(10.0248 0.0170525 0)
(9.99502 0.031966 0)
(9.96185 0.0626268 0)
(9.93392 0.0704622 0)
(9.91573 0.0614945 0)
(9.90995 0.0458508 0)
(9.91341 0.0301265 0)
(9.92212 0.0170624 0)
(9.93332 0.00732655 0)
(9.94542 0.000687808 0)
(9.95756 -0.00340764 0)
(9.96935 -0.00554435 0)
(9.98063 -0.00623997 0)
(9.9914 -0.00590447 0)
(10.0017 -0.00486567 0)
(10.0116 -0.00336733 0)
(10.0211 -0.00161206 0)
(10.0303 0.000246406 0)
(10.0393 0.00203796 0)
(9.99018 0.0535859 0)
(9.93569 0.0905639 0)
(9.9012 0.0914087 0)
(9.88556 0.0699519 0)
(9.88848 0.0434702 0)
(9.90222 0.0208022 0)
(9.91996 0.00407699 0)
(9.93813 -0.00719913 0)
(9.95525 -0.014199 0)
(9.97084 -0.0180949 0)
(9.98492 -0.0198335 0)
(9.99765 -0.0201142 0)
(10.0093 -0.0194364 0)
(10.02 -0.0181497 0)
(10.0301 -0.0165058 0)
(10.0395 -0.0146825 0)
(10.0485 -0.0128179 0)
(10.0572 -0.0110393 0)
(9.9819 0.0863463 0)
(9.89556 0.124597 0)
(9.85839 0.110544 0)
(9.85253 0.0707918 0)
(9.87106 0.0317445 0)
(9.89951 0.00327075 0)
(9.92809 -0.0149406 0)
(9.95336 -0.0256095 0)
(9.9748 -0.0312247 0)
(9.99282 -0.0336321 0)
(10.0081 -0.0340645 0)
(10.0213 -0.0333012 0)
(10.0329 -0.0318413 0)
(10.0433 -0.029994 0)
(10.0529 -0.0279727 0)
(10.0617 -0.0259142 0)
(10.0701 -0.0239042 0)
(10.0781 -0.0220251 0)
(9.96925 0.134067 0)
(9.8383 0.163365 0)
(9.80815 0.123141 0)
(9.82356 0.0596508 0)
(9.86589 0.00847575 0)
(9.91255 -0.0225203 0)
(9.95197 -0.0387293 0)
(9.98267 -0.0461237 0)
(10.0063 -0.0485738 0)
(10.0247 -0.0483989 0)
(10.0394 -0.0468924 0)
(10.0516 -0.0447285 0)
(10.062 -0.0422842 0)
(10.0712 -0.0397544 0)
(10.0794 -0.037273 0)
(10.087 -0.0349432 0)
(10.0942 -0.0327622 0)
(10.101 -0.0307525 0)
(9.9495 0.207199 0)
(9.76135 0.207244 0)
(9.75747 0.123927 0)
(9.81087 0.0327046 0)
(9.88461 -0.0269219 0)
(9.94996 -0.0548028 0)
(9.99701 -0.0645912 0)
(10.029 -0.0660698 0)
(10.051 -0.0639883 0)
(10.0668 -0.0606289 0)
(10.0786 -0.056991 0)
(10.088 -0.0534116 0)
(10.0958 -0.0500455 0)
(10.1025 -0.0468973 0)
(10.1084 -0.0440044 0)
(10.114 -0.0414757 0)
(10.1193 -0.0392023 0)
(10.1244 -0.0370774 0)
(9.91093 0.322762 0)
(9.65929 0.25472 0)
(9.71908 0.107765 0)
(9.83375 -0.0113776 0)
(9.94256 -0.0719307 0)
(10.0212 -0.0892739 0)
(10.068 -0.0882452 0)
(10.0942 -0.081984 0)
(10.1092 -0.0749403 0)
(10.1183 -0.0685959 0)
(10.1244 -0.0632032 0)
(10.1288 -0.0585101 0)
(10.1323 -0.0544631 0)
(10.1352 -0.0508982 0)
(10.1377 -0.0477383 0)
(10.1401 -0.045216 0)
(10.1427 -0.0430372 0)
(10.1454 -0.0408487 0)
(9.84403 0.435141 0)
(9.53803 0.26116 0)
(9.72711 0.0594091 0)
(9.92415 -0.0727043 0)
(10.0592 -0.121031 0)
(10.1358 -0.119584 0)
(10.1683 -0.104559 0)
(10.1782 -0.0902172 0)
(10.179 -0.0789289 0)
(10.1767 -0.0707398 0)
(10.1737 -0.0646972 0)
(10.1707 -0.0594861 0)
(10.1677 -0.0549401 0)
(10.165 -0.0510241 0)
(10.1622 -0.0476338 0)
(10.16 -0.0453843 0)
(10.1588 -0.0437938 0)
(10.158 -0.0416455 0)
(9.83597 0.319688 0)
(9.55026 0.0913487 0)
(9.9176 -0.0685215 0)
(10.1512 -0.159815 0)
(10.2643 -0.171775 0)
(10.3046 -0.142337 0)
(10.2995 -0.111686 0)
(10.2778 -0.090493 0)
(10.2547 -0.0765113 0)
(10.2348 -0.0677622 0)
(10.2186 -0.0623389 0)
(10.205 -0.057436 0)
(10.1926 -0.0525469 0)
(10.1809 -0.0474856 0)
(10.1698 -0.0430562 0)
(10.1605 -0.0413245 0)
(10.1533 -0.0400692 0)
(10.147 -0.036809 0)
(10.2049 -0.063363 0)
(10.4095 -0.191636 0)
(10.7167 -0.282406 0)
(10.6884 -0.282079 0)
(10.6201 -0.22985 0)
(10.5432 -0.163422 0)
(10.4557 -0.117314 0)
(10.3775 -0.0933352 0)
(10.3169 -0.0801768 0)
(10.27 -0.0693503 0)
(10.2318 -0.0601174 0)
(10.1993 -0.0555871 0)
(10.171 -0.0538503 0)
(10.1435 -0.0529946 0)
(10.1187 -0.0517195 0)
(10.0989 -0.0463365 0)
(10.0797 -0.0409956 0)
(10.0627 -0.0413883 0)
(9.4163 4.45108 0)
(12.7295 2.07618 0)
(12.5653 0.621351 0)
(11.5699 0.127836 0)
(10.9325 0.00364479 0)
(10.5883 -0.00197295 0)
(10.3657 0.0139838 0)
(10.2042 0.0315235 0)
(10.0823 0.0454725 0)
(9.9816 0.0446617 0)
(9.88975 0.0350216 0)
(9.80596 0.0339528 0)
(9.7305 0.0350052 0)
(9.66728 0.0321907 0)
(9.61347 0.0298358 0)
(9.55909 0.0147015 0)
(9.50745 -0.00920714 0)
(9.46014 -0.00541093 0)
(0.0575512 -0.06159 0)
(0.290981 -0.368554 0)
(0.556301 -0.430533 0)
(0.7793 -0.369822 0)
(0.922934 -0.270678 0)
(0.988803 -0.166352 0)
(0.96948 -0.0674085 -1.2643e-19)
(0.888524 0.012475 1.34842e-19)
(0.775515 0.0607413 0)
(0.660261 0.0735752 1.71742e-19)
(0.556701 0.0554216 0)
(0.453875 0.0254466 0)
(0.322169 0.00768344 0)
(0.120547 0.0386516 -3.8296e-19)
(-0.050254 0.151588 0)
(-0.372226 0.229793 0)
(-0.73928 0.291503 1.19353e-19)
(-1.11853 0.353248 0)
(-1.51549 0.402674 0)
(-1.92237 0.43085 0)
(-2.32689 0.440114 -4.8361e-20)
(-2.71957 0.435329 0)
(-3.09464 0.419817 -4.12047e-20)
(-3.44643 0.395906 0)
(-3.77244 0.366892 0)
(-4.07086 0.335005 -3.72322e-20)
(-4.34138 0.301819 0)
(-4.58435 0.268437 3.63242e-20)
(-4.80075 0.235615 0)
(-4.99187 0.203864 -3.59354e-20)
(-5.15912 0.17354 0)
(-5.3039 0.144885 0)
(-5.42748 0.118116 0)
(-5.53089 0.0933891 0)
(-5.61496 0.0708354 0)
(-5.68029 0.0505228 3.57304e-20)
(-5.72732 0.0325377 0)
(-5.75651 0.0169201 -7.16105e-20)
(-5.76871 0.00354722 0)
(-5.76519 -0.00762874 7.15299e-20)
(-5.75008 -0.0170611 0)
(-5.72343 -0.0254955 0)
(-5.68596 -0.0333987 -7.08527e-20)
(-5.63796 -0.0410193 0)
(-5.57966 -0.0483472 -7.00663e-20)
(-5.51127 -0.0554591 6.95595e-20)
(-5.43296 -0.0623467 0)
(-5.34489 -0.0690045 6.83e-20)
(-5.24728 -0.0754009 6.75394e-20)
(-5.14032 -0.0815377 0)
(-5.02424 -0.0874133 0)
(-4.89936 -0.093012 0)
(-4.76601 -0.0983406 0)
(-4.62458 -0.103238 0)
(-4.47539 -0.107835 -6.06147e-20)
(-4.31901 -0.111127 0)
(-4.15559 -0.115452 5.72653e-20)
(-3.98543 -0.11912 0)
(-3.80905 -0.122767 0)
(-3.62649 -0.126572 -5.13384e-20)
(-3.43873 -0.128328 0)
(-3.24618 -0.129941 4.69229e-20)
(-3.04893 -0.133322 0)
(-2.84756 -0.135904 0)
(-2.64331 -0.138609 0)
(-2.43555 -0.144206 -3.6821e-20)
(-2.22722 -0.145128 0)
(-2.01843 -0.147057 0)
(-1.81072 -0.147678 -2.36174e-20)
(-1.60414 -0.14973 0)
(-1.39909 -0.153139 -9.49831e-21)
(-1.1957 -0.157757 0)
(-0.993313 -0.164004 0)
(-0.792681 -0.171675 0)
(-0.593769 -0.180817 -4.44086e-20)
(-0.402881 -0.191733 0)
(-0.21334 -0.203809 0)
(9.30667e-05 -0.207686 -9.76458e-20)
(0.22398 -0.194719 -7.57094e-20)
(0.416942 -0.170873 0)
(0.580766 -0.145104 -5.65878e-20)
(0.707755 -0.114868 0)
(0.794605 -0.0737285 -1.03452e-19)
(0.811391 -0.0271877 0)
(0.765972 0.0171041 -1.10774e-19)
(0.659761 0.0516669 0)
(0.491244 0.0714723 1.84831e-19)
(0.289571 0.0649578 0)
(0.0903648 -0.0317419 0)
(0.083693 -0.101593 0)
(0.242744 0.14388 -5.2317e-19)
(0.017092 0.140445 0)
(-0.235418 0.182059 2.74906e-19)
(-0.684095 0.262555 0)
(-1.24537 0.33556 -1.54145e-19)
(-1.85801 0.356944 -1.16324e-19)
(-2.47323 0.350053 -8.45386e-20)
(-3.04888 0.316251 0)
(-3.57302 0.275293 0)
(-4.0323 0.233057 0)
(-4.42963 0.193093 0)
(-4.7655 0.159166 0)
(-5.04521 0.12692 0)
(-5.2717 0.0980706 0)
(-5.44883 0.0742901 0)
(-5.5799 0.0536374 -6.04053e-20)
(-5.66816 0.0351257 -6.96684e-20)
(-5.71762 0.0199043 0)
(-5.73096 0.00674941 0)
(-5.71946 -0.00204033 0)
(-5.68491 -0.00958948 -9.71605e-20)
(-5.62955 -0.0172205 0)
(-5.55519 -0.0238531 0)
(-5.46336 -0.0298771 0)
(-5.35521 -0.0350332 0)
(-5.23196 -0.0395153 1.07834e-19)
(-5.09483 -0.0430204 0)
(-4.94482 -0.0469152 0)
(-4.78283 -0.0517148 -1.01626e-19)
(-4.60935 -0.0571341 9.78175e-20)
(-4.42558 -0.0611001 0)
(-4.23214 -0.0664012 8.77818e-20)
(-4.03007 -0.0623801 0)
(-3.82428 -0.052517 -7.52995e-20)
(-3.61165 -0.0613092 0)
(-3.38893 -0.0773416 0)
(-3.16053 -0.0838054 0)
(-2.93098 -0.0878239 0)
(-2.69904 -0.104248 0)
(-2.46487 -0.12436 4.55564e-20)
(-2.23458 -0.139183 9.22005e-21)
(-2.00682 -0.155188 0)
(-1.78207 -0.170286 0)
(-1.56036 -0.185088 0)
(-1.33749 -0.201207 2.95274e-19)
(-1.10421 -0.215946 0)
(-0.865568 -0.225486 0)
(-0.630456 -0.231402 0)
(-0.371245 -0.242186 1.70671e-18)
(-0.0548518 -0.24574 -1.93124e-18)
(0.258981 -0.20379 0)
(0.464213 -0.151623 0)
(0.601408 -0.117359 -1.52937e-18)
(0.70347 -0.0947907 -1.35811e-18)
(0.789428 -0.0785379 0)
(0.865859 -0.0660282 0)
(0.935639 -0.0563434 1.01557e-18)
(1.00054 -0.0486568 -9.35922e-19)
(1.06192 -0.0425943 0)
(1.12096 -0.0376764 0)
(1.17846 -0.0335461 -7.48678e-19)
(1.23478 -0.02973 0)
(1.29011 -0.0258761 0)
(1.34495 -0.0217752 -6.1193e-19)
(1.40004 -0.017719 0)
(1.45648 -0.0143594 -5.39743e-19)
(1.51557 -0.0125863 0)
(1.57776 -0.0125205 0)
(1.6429 -0.013508 0)
(1.71114 -0.0149693 4.35168e-19)
(1.7839 -0.0165743 0)
(1.86306 -0.0180171 0)
(1.9501 -0.019368 0)
(2.04528 -0.0204394 0)
(2.14651 -0.0212379 0)
(2.25091 -0.0210814 0)
(2.35703 -0.0193367 3.29672e-19)
(2.46404 -0.0163451 3.21661e-19)
(2.57049 -0.0130238 0)
(2.67433 -0.0102457 0)
(2.77361 -0.00738805 0)
(2.86132 -0.00238966 -3.00663e-19)
(2.92625 0.0056657 0)
(2.95675 0.0150068 5.95875e-19)
(2.95024 0.0248818 -5.99132e-19)
(2.90041 0.0356623 -6.10345e-19)
(2.807 0.0464116 6.32193e-19)
(2.65316 0.0572785 -6.67185e-19)
(2.47688 0.0684485 7.24048e-19)
(2.12813 0.0736544 0)
(0.145503 -0.754058 0)
(0.407777 -1.02049 0)
(0.540662 -0.79112 1.9362e-19)
(0.577903 -0.501464 0)
(0.567661 -0.237407 -1.7315e-19)
(0.51674 -0.0105594 -1.82385e-19)
(0.442637 0.166649 -9.64359e-20)
(0.340749 0.285788 -1.03093e-19)
(0.200902 0.342031 0)
(0.00696572 0.354135 -1.29624e-19)
(-0.261042 0.403059 0)
(-0.601076 0.526384 0)
(-0.995335 0.683465 1.23272e-19)
(-1.4194 0.83831 4.95447e-20)
(-1.84582 0.972524 -8.22876e-20)
(-2.28013 1.06785 -7.1076e-20)
(-2.69483 1.1233 -3.08837e-20)
(-3.08456 1.14315 0)
(-3.44431 1.1301 0)
(-3.76989 1.09045 0)
(-4.0589 1.03111 -2.76342e-20)
(-4.31134 0.958723 0)
(-4.52802 0.879395 7.69383e-20)
(-4.71274 0.797282 0)
(-4.86896 0.715306 0)
(-5.00003 0.636223 2.60696e-20)
(-5.10931 0.561549 0)
(-5.19981 0.492063 -2.73244e-20)
(-5.27418 0.427976 -5.74743e-20)
(-5.33462 0.369094 2.85091e-20)
(-5.38298 0.315006 0)
(-5.42078 0.265161 0)
(-5.44937 0.219021 0)
(-5.46992 0.176093 -6.14708e-20)
(-5.48356 0.136 -6.19931e-20)
(-5.49134 0.0984716 -3.07555e-20)
(-5.49423 0.0634082 0)
(-5.49287 0.0308326 6.21443e-20)
(-5.48726 0.000828117 0)
(-5.47668 -0.0266446 -6.18863e-20)
(-5.45716 -0.0520884 0)
(-5.42857 -0.0762054 0)
(-5.39041 -0.0993233 6.06879e-20)
(-5.34259 -0.121629 0)
(-5.28507 -0.143214 1.79766e-19)
(-5.21792 -0.164123 -5.88667e-20)
(-5.14123 -0.184341 0)
(-5.05513 -0.203842 -5.72799e-20)
(-4.95982 -0.222566 -5.63687e-20)
(-4.85548 -0.240445 0)
(-4.74234 -0.257438 0)
(-4.62067 -0.273533 0)
(-4.49077 -0.288719 0)
(-4.35297 -0.302992 0)
(-4.20767 -0.316344 4.88607e-20)
(-4.05522 -0.328763 9.62549e-20)
(-3.89601 -0.340293 -4.54593e-20)
(-3.73072 -0.350682 0)
(-3.55964 -0.360153 8.54013e-20)
(-3.3835 -0.368277 -4.17784e-20)
(-3.20255 -0.375385 0)
(-3.01721 -0.381109 -3.53326e-20)
(-2.82816 -0.38556 0)
(-2.63622 -0.387933 0)
(-2.44142 -0.389087 -5.91755e-20)
(-2.24466 -0.387813 2.59239e-20)
(-2.04608 -0.385302 -4.8475e-20)
(-1.84557 -0.381511 4.22733e-20)
(-1.64351 -0.377293 1.63432e-20)
(-1.4402 -0.372883 0)
(-1.23604 -0.368875 7.59076e-21)
(-1.03128 -0.365249 0)
(-0.826452 -0.362684 0)
(-0.622305 -0.36108 0)
(-0.420368 -0.36108 -1.01764e-20)
(-0.222983 -0.363375 0)
(-0.0256701 -0.367523 -4.64747e-20)
(0.159203 -0.359843 7.50785e-20)
(0.323413 -0.33348 2.69194e-20)
(0.470987 -0.292481 0)
(0.599877 -0.240044 2.66601e-20)
(0.706621 -0.174718 0)
(0.787871 -0.0957916 5.3056e-20)
(0.84591 -0.008441 0)
(0.868899 0.0801475 5.15113e-20)
(0.842499 0.158313 -9.93702e-20)
(0.764817 0.204847 -6.37461e-20)
(0.664437 0.186286 0)
(0.488943 0.0891992 0)
(0.461261 0.0862135 0)
(0.181444 0.411565 1.03167e-19)
(-0.581989 0.666358 0)
(-1.41571 0.830206 -8.2672e-20)
(-2.19213 0.91439 0)
(-2.85563 0.92324 2.19174e-19)
(-3.40401 0.87847 6.39344e-20)
(-3.84334 0.799061 5.3341e-20)
(-4.19813 0.704613 0)
(-4.48135 0.605687 0)
(-4.70848 0.511765 0)
(-4.88913 0.425142 0)
(-5.03205 0.347614 0)
(-5.14378 0.278693 -4.19532e-20)
(-5.22964 0.217606 -6.35131e-20)
(-5.29394 0.162883 0)
(-5.33949 0.113491 5.05093e-20)
(-5.36988 0.0688536 5.93301e-20)
(-5.38514 0.0290035 0)
(-5.38756 -0.00522831 1.479e-19)
(-5.36756 -0.0352621 0)
(-5.32576 -0.0622087 -8.44554e-20)
(-5.26359 -0.0867085 0)
(-5.18243 -0.109185 0)
(-5.08356 -0.12994 1.86037e-19)
(-4.96808 -0.148821 0)
(-4.83722 -0.165851 -9.31995e-20)
(-4.69242 -0.180947 0)
(-4.53502 -0.194376 0)
(-4.36668 -0.205764 -8.94532e-20)
(-4.1891 -0.215203 -8.38045e-20)
(-4.00323 -0.222868 0)
(-3.81009 -0.229181 7.70619e-20)
(-3.6117 -0.234335 0)
(-3.40559 -0.239908 -6.57316e-20)
(-3.19401 -0.24359 -1.20331e-19)
(-2.98141 -0.244037 0)
(-2.76734 -0.242854 0)
(-2.54974 -0.241536 0)
(-2.32995 -0.239281 0)
(-2.11088 -0.234401 -5.17648e-20)
(-1.89146 -0.22939 -9.47543e-20)
(-1.67034 -0.225541 0)
(-1.44616 -0.223696 0)
(-1.21765 -0.224644 0)
(-0.983503 -0.230472 -1.43702e-19)
(-0.741255 -0.240839 0)
(-0.493581 -0.254224 0)
(-0.228138 -0.279899 8.23564e-19)
(0.0563434 -0.314774 4.75175e-19)
(0.28787 -0.298976 5.73909e-19)
(0.464369 -0.223808 0)
(0.627059 -0.143604 0)
(0.770198 -0.0967047 9.5516e-19)
(0.888798 -0.0783686 -8.72152e-19)
(0.991962 -0.0693405 0)
(1.08581 -0.0635306 0)
(1.17332 -0.059582 -6.83134e-19)
(1.25644 -0.0565966 1.88525e-18)
(1.33676 -0.054298 0)
(1.4156 -0.0523653 0)
(1.49393 -0.0508142 5.02416e-19)
(1.57237 -0.0496184 0)
(1.65124 -0.0489835 8.73614e-19)
(1.73092 -0.048898 -4.09202e-19)
(1.81177 -0.0496665 0)
(1.89433 -0.0511521 3.63147e-19)
(1.9799 -0.0535493 6.88666e-19)
(2.0699 -0.0568663 0)
(2.16497 -0.0607303 0)
(2.26487 -0.0649623 -3.01856e-19)
(2.36995 -0.0697095 0)
(2.48063 -0.0744633 5.60984e-19)
(2.59733 -0.0786876 0)
(2.72021 -0.0820735 0)
(2.84819 -0.0854602 0)
(2.97977 -0.0881515 0)
(3.11374 -0.08893 -2.47697e-19)
(3.24846 -0.0871419 -2.44347e-19)
(3.38086 -0.0830397 0)
(3.50756 -0.0771807 0)
(3.6248 -0.0695342 0)
(3.73235 -0.0592053 2.3345e-19)
(3.83435 -0.0445723 0)
(3.93633 -0.0263684 -4.48231e-19)
(4.03415 -0.0048106 4.34401e-19)
(4.11761 0.0212216 4.20729e-19)
(4.17981 0.0515533 4.09289e-19)
(4.19936 0.0854315 4.06046e-19)
(4.19452 0.126711 4.0239e-19)
(4.05325 0.15848 0)
(0.0592725 -1.28766 0)
(0.151576 -1.09294 0)
(0.111808 -0.678515 -1.96104e-19)
(0.0421204 -0.338356 -1.83029e-19)
(-0.0530445 -0.044914 1.75144e-19)
(-0.178192 0.211922 1.54997e-19)
(-0.336475 0.436075 6.82614e-22)
(-0.536312 0.629466 0)
(-0.789312 0.804229 0)
(-1.10265 0.980578 0)
(-1.46531 1.16943 0)
(-1.85106 1.35613 0)
(-2.2346 1.51688 -1.77725e-19)
(-2.5964 1.63781 0)
(-2.92436 1.71399 4.81742e-20)
(-3.21225 1.74153 4.49161e-20)
(-3.45894 1.72316 0)
(-3.66547 1.66727 0)
(-3.83647 1.58246 0)
(-3.97798 1.47648 0)
(-4.09579 1.3574 3.98595e-20)
(-4.19549 1.23234 0)
(-4.28194 1.10712 -4.0962e-20)
(-4.35912 0.986132 0)
(-4.42981 0.871973 0)
(-4.49594 0.766203 0)
(-4.5587 0.669445 -9.37932e-20)
(-4.61866 0.581649 0)
(-4.67595 0.502324 4.73023e-20)
(-4.73039 0.4307 -9.86169e-20)
(-4.78159 0.365872 0)
(-4.82902 0.306891 0)
(-4.87208 0.252856 0)
(-4.91013 0.202941 5.06725e-20)
(-4.94252 0.156395 5.09782e-20)
(-4.96855 0.112509 0)
(-4.98752 0.0706221 0)
(-4.99874 0.030117 -1.03681e-19)
(-5.00171 -0.00949412 -1.03231e-19)
(-4.99604 -0.048573 1.02556e-19)
(-4.98158 -0.0870567 0)
(-4.95826 -0.124711 0)
(-4.92592 -0.161473 0)
(-4.88446 -0.197314 0)
(-4.8338 -0.232204 -9.65154e-20)
(-4.77395 -0.266103 -9.65412e-20)
(-4.70494 -0.298941 9.51457e-20)
(-4.62686 -0.330633 0)
(-4.53985 -0.36108 0)
(-4.44406 -0.390165 0)
(-4.33971 -0.417781 0)
(-4.22705 -0.443851 -8.61287e-20)
(-4.10642 -0.468302 0)
(-3.97815 -0.491086 0)
(-3.84261 -0.512185 -7.89007e-20)
(-3.70022 -0.531561 -7.4215e-20)
(-3.55145 -0.549265 0)
(-3.39682 -0.565238 1.40331e-19)
(-3.23682 -0.579482 -6.47639e-20)
(-3.07198 -0.59191 6.13382e-20)
(-2.90275 -0.602481 0)
(-2.72964 -0.61114 0)
(-2.55314 -0.617918 0)
(-2.37371 -0.622593 0)
(-2.19165 -0.625263 4.28078e-20)
(-2.00736 -0.62586 8.16525e-20)
(-1.82095 -0.624486 3.42895e-20)
(-1.63257 -0.621395 -2.95212e-20)
(-1.44247 -0.616988 0)
(-1.25107 -0.61163 4.22899e-20)
(-1.05881 -0.60564 3.04392e-20)
(-0.866483 -0.59918 1.77908e-20)
(-0.675002 -0.592307 -4.52577e-21)
(-0.485531 -0.584658 0)
(-0.30029 -0.575923 3.8188e-20)
(-0.120345 -0.56515 0)
(0.0519288 -0.549363 -1.78744e-20)
(0.211256 -0.523798 -2.82953e-20)
(0.355525 -0.484358 0)
(0.484752 -0.429485 0)
(0.59783 -0.358362 -5.84213e-20)
(0.691258 -0.271044 0)
(0.762755 -0.168032 -6.00404e-20)
(0.810764 -0.0500715 0)
(0.830909 0.0751693 5.721e-20)
(0.82097 0.18997 1.24047e-19)
(0.78231 0.265179 0)
(0.681987 0.278584 0)
(0.475649 0.303467 0)
(0.150113 0.622326 1.32967e-19)
(-0.583233 1.06958 0)
(-1.40039 1.32813 1.40938e-19)
(-2.06726 1.4342 0)
(-2.58784 1.43016 0)
(-2.98694 1.34997 -2.17575e-19)
(-3.29711 1.2243 0)
(-3.54752 1.0789 -7.32411e-20)
(-3.76077 0.931546 0)
(-3.94997 0.792319 -3.66957e-20)
(-4.12163 0.666148 0)
(-4.27802 0.553952 0)
(-4.41896 0.454925 0)
(-4.54344 0.367077 1.10409e-19)
(-4.65018 0.288669 5.33251e-20)
(-4.73804 0.217914 0)
(-4.80556 0.153433 0)
(-4.85227 0.0938096 0)
(-4.87699 0.0384773 0)
(-4.88057 -0.0128732 -1.22779e-19)
(-4.86194 -0.0604349 2.64599e-19)
(-4.82176 -0.104164 1.39214e-19)
(-4.76123 -0.144288 -2.9191e-19)
(-4.68139 -0.181101 -3.00973e-19)
(-4.58367 -0.214622 -1.52054e-19)
(-4.46933 -0.244952 0)
(-4.33981 -0.272026 -3.08647e-19)
(-4.19658 -0.295981 0)
(-4.04111 -0.317082 2.97872e-19)
(-3.87499 -0.335527 1.41243e-19)
(-3.6999 -0.351351 0)
(-3.51723 -0.364508 -2.61043e-19)
(-3.3283 -0.375464 -1.19391e-19)
(-3.13422 -0.384023 0)
(-2.93528 -0.390637 -1.06015e-19)
(-2.73325 -0.396041 2.8055e-19)
(-2.52999 -0.399471 0)
(-2.32527 -0.40025 0)
(-2.11865 -0.399282 0)
(-1.91065 -0.397046 0)
(-1.7014 -0.393143 8.00766e-20)
(-1.48985 -0.388384 4.68462e-20)
(-1.27495 -0.384389 0)
(-1.05532 -0.382669 0)
(-0.829934 -0.384792 0)
(-0.598048 -0.39233 0)
(-0.360653 -0.40543 0)
(-0.111911 -0.428161 0)
(0.138663 -0.451401 -4.4382e-19)
(0.353324 -0.446474 -1.42443e-20)
(0.514756 -0.397091 0)
(0.653758 -0.318602 0)
(0.791979 -0.240044 -1.22412e-18)
(0.926462 -0.184366 0)
(1.05024 -0.155502 1.34852e-18)
(1.16333 -0.139087 1.23616e-18)
(1.26955 -0.128245 0)
(1.37081 -0.120598 0)
(1.46851 -0.114916 -9.86493e-19)
(1.5639 -0.110547 -1.8266e-18)
(1.65806 -0.107059 0)
(1.75182 -0.104408 0)
(1.84569 -0.102589 0)
(1.94009 -0.101879 -6.9723e-19)
(2.03548 -0.102269 6.55671e-19)
(2.13243 -0.103929 0)
(2.23163 -0.106459 1.17254e-18)
(2.33411 -0.109625 5.58143e-19)
(2.44083 -0.113413 -1.06697e-18)
(2.55202 -0.118072 0)
(2.66721 -0.123608 0)
(2.7867 -0.129609 -9.59853e-19)
(2.91104 -0.135668 -4.65843e-19)
(3.0404 -0.141372 0)
(3.17422 -0.14608 0)
(3.31145 -0.150278 0)
(3.45089 -0.154026 0)
(3.59104 -0.156154 -8.55617e-19)
(3.73005 -0.155423 0)
(3.86576 -0.150998 0)
(3.99633 -0.142185 0)
(4.11999 -0.129361 0)
(4.23411 -0.113505 0)
(4.33531 -0.0947571 0)
(4.42191 -0.072685 -8.18685e-19)
(4.49622 -0.0467247 0)
(4.55931 -0.0156036 0)
(4.61396 0.0226309 -1.49142e-18)
(4.65691 0.0676458 7.18477e-19)
(4.70266 0.126583 -7.03494e-19)
(4.70254 0.185039 6.81662e-19)
(-0.0855949 -1.26682 0)
(-0.141313 -0.827893 4.37434e-19)
(-0.280178 -0.436261 0)
(-0.439411 -0.0646575 1.25597e-19)
(-0.626528 0.287303 0)
(-0.839667 0.615849 0)
(-1.08098 0.920819 -7.60672e-20)
(-1.35158 1.20268 0)
(-1.64762 1.4605 0)
(-1.95757 1.68969 0)
(-2.26326 1.88065 0)
(-2.54691 2.02377 0)
(-2.79664 2.11368 1.7121e-19)
(-3.00709 2.15033 8.2864e-20)
(-3.17738 2.13799 -7.93795e-20)
(-3.31156 2.08333 0)
(-3.41668 1.99458 0)
(-3.49979 1.88129 0)
(-3.56777 1.75256 0)
(-3.62648 1.61581 0)
(-3.68068 1.47718 7.42106e-20)
(-3.73383 1.34143 7.48811e-20)
(-3.78807 1.21186 -7.57031e-20)
(-3.84437 1.09034 7.66402e-20)
(-3.9029 0.97756 0)
(-3.96325 0.873506 0)
(-4.02464 0.777694 7.71868e-20)
(-4.08609 0.689354 0)
(-4.14655 0.607588 0)
(-4.20501 0.531487 8.05983e-20)
(-4.26051 0.460201 8.31602e-20)
(-4.31218 0.392984 8.38095e-20)
(-4.35923 0.329196 0)
(-4.40093 0.268279 0)
(-4.43662 0.209741 -8.5168e-20)
(-4.4657 0.153135 0)
(-4.48766 0.0980651 0)
(-4.50205 0.0441898 8.46517e-20)
(-4.50861 -0.00874928 -8.63713e-20)
(-4.5071 -0.0609227 8.58202e-20)
(-4.49736 -0.11236 0)
(-4.47923 -0.162997 0)
(-4.45256 -0.212754 1.65163e-19)
(-4.41721 -0.261538 0)
(-4.3731 -0.309247 1.61444e-19)
(-4.32018 -0.355757 2.3761e-19)
(-4.25845 -0.400934 -2.33985e-19)
(-4.18797 -0.44463 1.54299e-19)
(-4.10885 -0.486669 0)
(-4.02122 -0.52688 0)
(-3.92529 -0.565106 1.45115e-19)
(-3.82132 -0.601205 6.91789e-20)
(-3.7096 -0.63505 0)
(-3.59051 -0.666536 0)
(-3.46443 -0.695586 6.29568e-20)
(-3.33181 -0.722147 1.24807e-19)
(-3.19314 -0.746206 0)
(-3.04893 -0.767742 -1.11088e-19)
(-2.8997 -0.786746 1.09519e-19)
(-2.74599 -0.803199 -1.0395e-19)
(-2.58831 -0.817103 0)
(-2.42715 -0.828449 0)
(-2.26299 -0.837256 0)
(-2.09624 -0.843519 0)
(-1.92727 -0.847316 0)
(-1.75641 -0.8487 -6.2564e-20)
(-1.58388 -0.847795 0)
(-1.40995 -0.844779 0)
(-1.23495 -0.839944 0)
(-1.05931 -0.833476 -6.7396e-20)
(-0.88366 -0.825535 -2.24596e-20)
(-0.7087 -0.816131 -1.29917e-20)
(-0.535374 -0.804952 1.21893e-20)
(-0.364928 -0.791526 3.7583e-22)
(-0.199203 -0.774908 -1.58863e-20)
(-0.0389705 -0.753918 0)
(0.113329 -0.724998 3.01046e-20)
(0.254416 -0.684088 0)
(0.38328 -0.628311 0)
(0.498865 -0.555346 0)
(0.599208 -0.463957 8.13949e-20)
(0.681592 -0.353686 -4.01419e-20)
(0.743577 -0.224546 -3.80128e-20)
(0.781319 -0.0792207 -8.12643e-20)
(0.789752 0.0748783 -1.20431e-19)
(0.768132 0.224084 -4.27131e-20)
(0.701107 0.35467 0)
(0.516296 0.486195 -1.4461e-19)
(0.187935 0.792603 0)