/*--------------------------------*- C++ -*----------------------------------*\
| =========                 |                                                 |
| \\      /  F ield         | OpenFOAM: The Open Source CFD Toolbox           |
|  \\    /   O peration     | Version:  v2012                                 |
|   \\  /    A nd           | Website:  www.openfoam.com                      |
|    \\/     M anipulation  |                                                 |
\*---------------------------------------------------------------------------*/
FoamFile
{
    version     2.0;
    format      ascii;
    class       volScalarField;
    location    "600";
    object      omega;
}
// * * * * * * * * * * * * * * * * * * * * * * * * * * * * * * * * * * * * * //

dimensions      [0 0 -1 0 0 0 0];


internalField   nonuniform List<scalar> 
12225
(
38763.3
41502.2
43127.1
43942.5
44183.3
44128.9
43975.7
43698.9
43400.9
43114
42846.3
42598.9
42384.3
42180
42025.5
41853.4
41767.3
41613.2
8960.53
8631.09
10063.1
11683.5
12948.6
13823.8
14426.8
14824.3
15085.3
15316.7
15538.5
15780.8
15995.6
16219.9
16392.2
16569.3
16660.2
16763.2
1962.48
1830.1
1962.9
2365.81
2770.17
3177.39
3479.72
3783.77
4008.83
4319.38
4549.05
4846.61
5051.12
5318.67
5484.9
5719.19
5839.86
6036.29
764.129
760.678
781.529
869.513
977.153
1112.59
1216.19
1339.23
1425.05
1542.64
1621.65
1732.39
1800.38
1902.09
1957.02
2048.73
2088.25
2173.31
504.167
510.367
525.635
552.041
582.387
629.167
666.165
714.352
748.464
794.054
824.714
867.745
894.461
934.684
957.014
994.214
1011.34
1046.32
448.203
450.491
455.245
463.879
471.808
487.242
499.766
518.262
531.991
550.96
564.229
582.801
594.881
612.765
623.248
640.365
648.823
665.188
439.557
439.677
439.456
439.668
441.13
443.805
446.671
452.031
456.229
463.021
467.881
475.259
480.21
487.804
492.481
500.107
504.232
511.763
439.157
437.229
435.498
434.438
433.269
433.386
433.36
433.952
434.768
436.535
437.938
440.597
442.364
445.477
447.378
450.799
452.641
456.314
439.009
436.9
434.8
433.085
431.351
430.012
428.842
427.999
427.299
426.914
426.907
426.992
427.211
427.789
428.21
429.199
429.743
431.091
438.991
436.82
434.69
432.765
430.884
429.186
427.565
426.144
424.802
423.657
422.598
421.782
420.962
420.434
419.823
419.582
419.07
419.095
438.995
436.794
434.672
432.696
430.788
429.015
427.298
425.718
424.186
422.797
421.439
420.239
419.052
418.032
417.002
416.158
415.272
414.582
438.999
436.784
434.667
432.674
430.765
428.969
427.245
425.625
424.066
422.606
421.197
419.884
418.613
417.434
416.29
415.236
414.212
413.271
439.001
436.778
434.663
432.661
430.754
428.947
427.224
425.591
424.031
422.552
421.138
419.797
418.514
417.297
416.132
415.027
413.968
412.964
439.001
436.775
434.66
432.653
430.745
428.933
427.209
425.57
424.009
422.523
421.107
419.759
418.472
417.247
416.076
414.96
413.894
412.877
439.001
436.773
434.657
432.648
430.738
428.923
427.197
425.555
423.991
422.502
421.083
419.732
418.442
417.213
416.04
414.92
413.851
412.83
439.001
436.772
434.655
432.644
430.733
428.916
427.187
425.543
423.977
422.486
421.065
419.711
418.419
417.187
416.011
414.89
413.818
412.795
439
436.769
434.651
432.638
430.725
428.906
427.176
425.53
423.962
422.469
421.046
419.689
418.396
417.162
415.984
414.861
413.788
412.763
439
436.769
434.65
432.637
430.724
428.905
427.174
425.526
423.957
422.463
421.039
419.682
418.387
417.153
415.974
414.85
413.776
412.75
439.001
436.771
434.654
432.641
430.729
428.91
427.179
425.532
423.964
422.47
421.046
419.688
418.394
417.159
415.98
414.855
413.781
412.755
439.001
436.772
434.655
432.643
430.731
428.913
427.183
425.536
423.968
422.474
421.051
419.693
418.399
417.164
415.986
414.862
413.789
412.763
439.001
436.772
434.656
432.645
430.735
428.917
427.188
425.542
423.976
422.483
421.062
419.705
418.414
417.182
416.008
414.887
413.82
412.799
439
436.773
434.66
432.651
430.743
428.926
427.202
425.56
424.005
422.521
421.118
419.776
418.511
417.301
416.164
415.076
414.058
413.079
438.987
436.775
434.667
432.675
430.779
428.99
427.305
425.729
424.266
422.896
421.627
420.427
419.342
418.316
417.412
416.542
415.801
415.066
438.854
436.788
434.739
432.914
431.199
429.741
428.429
427.364
426.546
425.913
425.407
425.042
424.807
424.745
424.781
424.877
425.174
425.382
437.844
437.279
436.065
435.561
435.443
436.302
436.901
438.3
440.543
442.689
445.34
447.711
450.625
453.225
456.424
459.16
462.525
465.213
432.759
445.027
449.084
454.837
462.022
469.892
480.284
490.514
502.196
512.577
523.89
533.64
544.475
553.703
564.194
572.838
582.897
590.735
422.732
495.252
523.503
555.944
592.106
627.348
666.23
701.643
739.021
770.904
804.54
832.171
862.302
886.317
913.589
934.427
959.204
977.104
496.669
734.529
887.147
1067.87
1231.02
1374.61
1512.66
1631.01
1746.25
1840.61
1935.18
2008.47
2086.19
2142.71
2207.69
2251.59
2307.26
2342.35
682.493
2263.8
3306.11
4384.24
5180.14
5800.98
6295.8
6683.84
7001.08
7249.35
7456.56
7611.36
7751.99
7848.1
7952.68
8016.68
8110.48
8163.86
20906.4
22153.6
23088.9
23775.4
24250.8
24575.3
24775.9
24901.7
24975.4
25008.8
25002.2
24983.7
24940.3
24886.8
24818.2
24750.3
24684.7
24621.6
11463.3
2495.07
2497.95
2501.21
2504.72
2508.48
2513.26
2519.67
2528.12
2538.41
2549.34
2560.43
2570.94
2580.52
2589.07
2596.48
2602.76
2607.86
2611.98
2614.48
2616.78
2617.71
2617.87
2615.91
2611.99
2605.88
2597.72
2588.18
2578.9
2572.42
2570.31
2571.71
2574.52
2577.52
2580.59
2583.71
2586.88
2590.04
2593.23
2597.21
2602.33
2610.89
2621.77
2631.58
2638.94
2642.16
2644.23
2644.95
2645.4
2646.4
2649.86
2656.57
2666.72
2672.88
2681.79
2696.96
2746.67
2920.13
3129.55
3325.61
3501.12
3659.12
3801.76
3932.67
4054.01
4168.5
4276.41
4375.07
4468.21
4555.02
4637.57
4715.68
4790.58
4862.34
4931.61
4998.56
5063.56
5126.71
5188.35
5248.44
5307.28
5364.78
5421.15
5476.33
5530.46
5583.48
5635.47
5686.39
5736.28
5785.09
5832.82
5879.43
5924.9
5969.18
6012.24
6054.03
6094.55
6133.8
6171.88
6208.95
6245.35
6280.85
6315.27
6348.77
6381.26
6412.78
6443.28
6472.78
6501.25
6528.68
6555.06
6580.39
6604.64
6627.83
6649.93
6670.95
6690.89
6709.73
6727.49
6744.17
6759.77
6774.3
6787.78
6800.21
6811.61
6821.99
6831.89
6839.79
6847.21
6853.53
6858.17
6861.82
6864.24
6865.65
6866.21
6865.86
6864.28
6861.81
6858.36
6853.99
6848.72
6842.57
6835.56
6827.72
6819.07
6809.64
6799.5
6788.78
6777.01
6765
6751.77
6738.53
6724.03
6709.72
6694.15
6679.01
6662.6
6646.86
6629.85
6613.51
6596.31
6579.31
6562.02
6544.65
6527.17
6509.65
6492.14
6474.68
6457.31
6440.04
6422.84
6405.65
6388.39
6370.92
6352.9
6333.85
6313.47
6294.36
6284.81
6188.94
11463.5
1998.94
1053.1
892.518
778.691
654.064
664.343
680.561
672.608
657.686
631.57
605.03
580.06
556.612
537.276
522.86
513.278
509.282
508.21
528.344
556.255
620.761
708.729
812.962
927.91
1043.62
1154.55
1244.69
1314.12
1329.66
1308.35
1244.39
1111.56
945.932
792.283
689.247
618.859
538.613
489.211
455.737
443.027
448.017
458.129
475.604
491.924
515.744
528.487
588.915
657.276
742.035
801.265
1076.4
1512.16
1898.53
2157.04
2302.96
2399.46
2453.36
2471.36
2452.77
2387.87
2318.5
2243.06
2175.82
2113.9
2061.76
2017.16
1980.99
1951.98
1929.5
1912.54
1900.18
1892.91
1886.59
1884.71
1883.4
1883.75
1886.17
1889.12
1893.11
1897.55
1902.53
1907.81
1913.36
1919.06
1924.88
1930.73
1936.58
1942.38
1948.1
1953.69
1959.15
1964.46
1969.63
1974.67
1979.66
1984.71
1989.99
1995.79
2002.54
2010.82
2019.37
2027.5
2035.51
2043.25
2050.79
2058.09
2065.17
2072.01
2078.63
2085.01
2091.17
2097.09
2102.78
2108.24
2113.46
2118.46
2123.24
2127.78
2132.11
2136.21
2140.1
2143.77
2147.24
2150.49
2153.53
2156.35
2158.83
2161.03
2162.73
2163.59
2164.23
2164.61
2164.77
2164.71
2164.46
2163.96
2163.25
2162.32
2161.17
2159.82
2158.27
2156.53
2154.6
2152.5
2150.28
2148.03
2144.68
2142.71
2138.63
2136.53
2132.07
2129.76
2124.97
2122.46
2117.42
2114.72
2109.46
2106.48
2101.46
2097.69
2093.3
2088.98
2084.59
2080.16
2075.71
2071.23
2066.75
2062.27
2057.81
2053.36
2048.96
2044.62
2040.32
2036.22
2032.39
2029.08
2027.68
2028.59
2043.14
11463.6
2046.57
829.255
638.739
676.433
740.839
723.68
681.422
618.341
555.844
499.105
449.439
406.51
373.151
347.239
327.23
312.033
300.762
293.115
288.302
288.832
295.464
306.873
330.316
365.774
413.27
474
543.322
617.29
683.596
734.826
765.716
759.373
735.251
676.647
601.227
524.408
447.186
389.907
357.949
357.591
371.579
389.101
405.807
419.878
468.284
555.501
700.701
911.192
1201.17
1416.41
1561.57
1691.82
1768.38
1788.36
1769.1
1723.15
1660.23
1586.3
1512.64
1444.02
1387.13
1338.44
1300.24
1269.31
1245.75
1227.49
1213.98
1204.05
1197.05
1192.65
1189.57
1188.59
1187.99
1188.47
1189.8
1191.66
1194.04
1196.7
1199.66
1202.81
1206.12
1209.55
1213.05
1216.61
1220.2
1223.8
1227.4
1230.98
1234.53
1238.06
1241.57
1245.06
1248.56
1252.08
1255.66
1259.34
1263.17
1267.19
1271.42
1275.76
1279.98
1284.06
1288.04
1291.88
1295.6
1299.19
1302.66
1306
1309.21
1312.3
1315.25
1318.07
1320.76
1323.33
1325.76
1328.06
1330.23
1332.27
1334.19
1335.97
1337.62
1339.15
1340.54
1341.81
1342.93
1343.9
1344.69
1345.31
1345.71
1345.89
1345.94
1345.88
1345.72
1345.46
1344.97
1344.42
1343.74
1342.95
1342.03
1341
1339.86
1338.61
1337.26
1335.8
1334.24
1332.64
1330.63
1329.03
1326.73
1325.01
1322.51
1320.67
1317.99
1316.02
1313.2
1311.11
1308.17
1305.92
1303.04
1300.45
1297.69
1294.92
1292.11
1289.27
1286.4
1283.51
1280.61
1277.7
1274.79
1271.9
1269.04
1266.25
1263.57
1261.07
1258.89
1257.23
1257
1258.81
1270.75
11463.6
2023.57
964.708
984.038
961.424
875.918
751.231
633.448
534.995
459.37
401.902
356.717
321.625
294.783
274.265
258.496
246.351
237.126
230.358
225.69
223.033
223.254
224.76
230.276
239.428
254.879
277.677
309.023
348.16
390.923
433.997
473.149
503.029
514.192
507.723
488.971
453.747
407.5
383.385
408.816
469.252
527.575
572.635
619.809
690.01
808.557
982.026
1171.1
1304.52
1374.85
1429.37
1463.16
1467.59
1392.32
1343.83
1287.05
1227.24
1171.01
1120.18
1076.69
1040.38
1011.45
988.388
970.883
957.542
947.831
940.845
936.055
933.207
931.568
931.106
931.047
932.049
933.401
935.246
937.43
939.877
942.538
945.355
948.305
951.351
954.473
957.649
960.864
964.103
967.356
970.612
973.866
977.112
980.348
983.574
986.793
990.01
993.231
996.463
999.715
1002.99
1006.3
1009.63
1012.95
1016.22
1019.39
1022.47
1025.46
1028.34
1031.13
1033.82
1036.41
1038.89
1041.27
1043.55
1045.72
1047.79
1049.75
1051.6
1053.34
1054.98
1056.5
1057.92
1059.22
1060.42
1061.5
1062.47
1063.32
1064.06
1064.68
1065.17
1065.53
1065.76
1065.85
1065.8
1065.65
1065.4
1065.04
1064.59
1064.01
1063.34
1062.56
1061.69
1060.72
1059.65
1058.48
1057.23
1055.88
1054.44
1052.92
1051.33
1049.55
1047.85
1045.9
1044.06
1041.96
1040
1037.76
1035.69
1033.33
1031.14
1028.68
1026.37
1023.87
1021.41
1018.89
1016.34
1013.75
1011.14
1008.51
1005.85
1003.18
1000.51
997.825
995.161
992.532
989.964
987.496
985.196
983.171
981.586
981.056
982.157
988.992
11463.7
2188.24
1461.15
1292.54
1053.12
828.989
645.495
514.771
424.382
360.706
315.08
282.452
259.124
241.621
228.033
217.356
208.974
202.446
197.514
194.019
191.832
191.334
191.877
194.028
197.817
204.577
214.89
229.848
250.793
277.04
305.807
334.658
361.724
383.113
394.663
392.539
387.611
401.91
467.973
569.688
639.189
700.793
777.109
879.282
993.312
1093.52
1165.65
1224.02
1258.31
1268.33
1241.91
1177.85
1127.57
1076.17
1032.48
987.333
948.395
914.182
885.334
861.676
842.816
828.28
817.329
809.453
803.967
800.409
798.674
797.991
797.977
798.871
800.334
802.196
804.489
807.033
809.817
812.78
815.884
819.1
822.402
825.771
829.19
832.646
836.126
839.621
843.122
846.621
850.114
853.595
857.061
860.51
863.94
867.353
870.748
874.125
877.484
880.824
884.14
887.423
890.66
893.839
896.939
899.952
902.878
905.713
908.456
911.105
913.658
916.112
918.467
920.72
922.871
924.917
926.857
928.691
930.417
932.034
933.542
934.94
936.227
937.4
938.461
939.407
940.238
940.952
941.547
942.022
942.373
942.596
942.689
942.677
942.537
942.288
941.931
941.464
940.897
940.216
939.434
938.549
937.563
936.477
935.294
934.014
932.64
931.173
929.615
927.968
926.24
924.399
922.521
920.519
918.498
916.352
914.199
911.922
909.646
907.25
904.862
902.362
899.868
897.294
894.7
892.065
889.399
886.704
883.983
881.239
878.476
875.7
872.919
870.147
867.392
864.671
862.006
859.432
857.006
854.814
852.978
851.899
852.123
855.448
11463.6
2853.08
1858.48
1353.4
955.508
677.23
511.481
404.599
336.522
292.685
262.948
241.613
225.443
212.704
202.521
194.292
187.648
182.382
178.378
175.555
173.873
173.508
174.023
175.575
178.575
183.263
190.097
199.75
213.183
230.95
251.999
274.414
295.843
316.291
337.721
373.212
440.256
550.747
649.547
723.99
795.788
872.206
945.796
1006.04
1052.21
1090.32
1112.91
1116.43
1073.93
1030.58
988.915
946.593
909.795
873.665
842.58
813.954
790.073
769.823
753.412
740.496
730.724
723.687
718.902
716.155
714.996
714.749
715.541
717.091
719.184
721.755
724.673
727.857
731.267
734.837
738.541
742.347
746.23
750.173
754.16
758.178
762.216
766.263
770.313
774.358
778.391
782.407
786.401
790.369
794.308
798.214
802.086
805.922
809.72
813.478
817.193
820.861
824.475
828.026
831.503
834.903
838.216
841.439
844.568
847.603
850.54
853.376
856.11
858.737
861.258
863.668
865.967
868.152
870.222
872.174
874.009
875.724
877.318
878.792
880.142
881.368
882.468
883.443
884.289
885.008
885.597
886.055
886.382
886.567
886.621
886.568
886.379
886.066
885.633
885.08
884.412
883.625
882.724
881.712
880.588
879.354
878.014
876.568
875.019
873.37
871.622
869.777
867.84
865.804
863.694
861.489
859.221
856.864
854.452
851.954
849.409
846.785
844.121
841.387
838.618
835.796
832.937
830.043
827.117
824.163
821.183
818.181
815.161
812.13
809.094
806.066
803.057
800.08
797.155
794.313
791.604
789.091
786.876
785.222
784.494
785.583
11464.1
3554.81
1959.76
1198.14
758.758
527.533
403.987
336.344
294.009
264.918
243.274
226.36
212.676
201.341
191.841
183.891
177.35
172.147
168.231
165.525
164.03
163.795
164.432
166.151
169.145
173.531
179.72
188.275
199.896
215.161
234.288
257.96
288.844
328.311
386.315
483.612
599.086
691.665
765.652
832.19
888.169
929.506
961.819
987.651
998.627
994.003
955.926
921.31
887.622
856.267
826.015
796.693
770.255
746.093
725.426
707.472
692.741
680.806
671.596
664.842
660.231
657.73
656.795
656.776
658.005
660.032
662.741
665.968
669.592
673.53
677.704
682.059
686.556
691.158
695.839
700.578
705.358
710.165
714.987
719.814
724.636
729.446
734.238
739.005
743.741
748.442
753.104
757.722
762.292
766.81
771.275
775.684
780.034
784.322
788.545
792.698
796.778
800.779
804.699
808.528
812.259
815.889
819.415
822.833
826.141
829.335
832.413
835.371
838.208
840.919
843.502
845.957
848.28
850.469
852.522
854.438
856.213
857.845
859.335
860.684
861.891
862.955
863.875
864.651
865.282
865.767
866.106
866.284
866.332
866.25
866.02
865.652
865.148
864.51
863.741
862.839
861.802
860.635
859.342
857.926
856.389
854.734
852.965
851.082
849.09
846.991
844.788
842.483
840.085
837.593
835.02
832.361
829.628
826.815
823.935
820.985
817.978
814.91
811.793
808.627
805.421
802.178
798.904
795.601
792.272
788.921
785.555
782.178
778.799
775.429
772.078
768.76
765.491
762.298
759.224
756.316
753.647
751.397
749.746
749.217
11470.8
3802.89
1777.09
940.874
584.735
424.393
343.492
296.293
266.06
244.827
228.9
215.954
204.868
195.145
186.604
179.196
172.917
167.812
163.979
161.531
160.455
160.681
162.026
164.743
168.812
174.258
181.524
191.468
204.966
223.206
249.199
287.666
345.904
434.692
539.158
628.884
701.334
765.557
817.961
856.446
885.277
903.712
909.462
895.981
867.188
838.938
810.437
785.925
762.425
739.803
717.682
696.957
678.547
662.431
648.848
637.582
628.675
621.931
617.194
614.49
613.44
613.414
614.715
616.949
620.029
623.754
628
632.651
637.615
642.821
648.209
653.734
659.359
665.056
670.802
676.578
682.37
688.165
693.951
699.718
705.459
711.166
716.833
722.454
728.024
733.538
738.99
744.38
749.7
754.946
760.116
765.207
770.218
775.143
779.981
784.728
789.381
793.94
798.399
802.747
806.977
811.087
815.074
818.933
822.663
826.261
829.722
833.044
836.224
839.26
842.148
844.886
847.473
849.907
852.185
854.306
856.268
858.071
859.712
861.192
862.51
863.665
864.656
865.485
866.149
866.65
866.984
867.138
867.155
867.013
866.709
866.249
865.636
864.872
863.958
862.897
861.691
860.344
858.856
857.232
855.474
853.585
851.569
849.429
847.168
844.789
842.296
839.692
836.984
834.175
831.274
828.282
825.205
822.045
818.809
815.501
812.128
808.694
805.206
801.667
798.085
794.465
790.813
787.131
783.423
779.694
775.95
772.198
768.445
764.703
760.982
757.294
753.655
750.082
746.587
743.231
740.07
737.231
734.788
732.93
11491.2
3709.75
1452.29
743.859
490.076
380.32
321.382
284.238
259.604
241.44
226.789
214.47
203.776
194.354
186.082
178.973
173.11
168.592
165.53
163.823
163.451
164.394
166.698
170.675
176.845
185.393
197.677
215.498
240.755
276.497
328.798
403.802
489.081
566.862
632.917
689.936
738.75
778.812
811.086
829.439
834.4
819.565
796.337
772.538
749.39
729.088
710.364
693.155
676.008
659.122
642.991
628.398
615.73
605.016
596.287
589.461
584.482
581.331
579.924
579.692
580.762
582.927
586.088
590.059
594.715
599.924
605.577
611.581
617.861
624.353
631.003
637.765
644.607
651.497
658.413
665.335
672.254
679.154
686.021
692.846
699.619
706.335
712.987
719.57
726.078
732.505
738.843
745.079
751.221
757.27
763.223
769.077
774.83
780.477
786.014
791.439
796.746
801.931
806.987
811.909
816.693
821.335
825.832
830.181
834.378
838.421
842.306
846.029
849.588
852.979
856.2
859.248
862.121
864.818
867.337
869.675
871.832
873.805
875.594
877.199
878.618
879.851
880.9
881.763
882.441
882.935
883.234
883.345
883.294
883.06
882.646
882.057
881.294
880.362
879.262
877.997
876.569
874.983
873.241
871.346
869.301
867.112
864.781
862.312
859.709
856.977
854.12
851.14
848.045
844.84
841.532
838.126
834.625
831.036
827.364
823.616
819.798
815.917
811.977
807.984
803.946
799.868
795.757
791.615
787.447
783.26
779.06
774.854
770.65
766.459
762.292
758.158
754.073
750.055
746.129
742.328
738.693
735.318
732.219
729.328
11522.5
3262.56
1155.26
618.177
434.219
350.558
305.179
277.49
257.24
241.743
229.267
218.511
208.904
200.285
192.707
186.32
181.32
177.831
176.062
175.803
177.319
180.331
185.382
193.455
205.427
221.874
246.582
282.513
331.46
392.052
456.486
516.648
572.176
621.583
664.928
701.72
733.671
755.722
763.12
755.072
736.913
717.524
698.167
681.216
666.197
652.732
639.795
626.995
614.07
601.523
589.943
579.797
571.273
564.402
559.181
555.542
553.675
553.125
553.798
555.699
558.703
562.68
567.515
573.077
579.249
585.924
593.004
600.409
608.072
615.951
623.971
632.088
640.267
648.475
656.68
664.849
672.938
680.958
688.93
696.847
704.699
712.477
720.175
727.787
735.308
742.73
750.049
757.265
764.363
771.332
778.17
784.875
791.444
797.875
804.163
810.306
816.298
822.134
827.815
833.336
838.693
843.883
848.901
853.746
858.413
862.9
867.204
871.32
875.246
878.978
882.513
885.85
888.986
891.919
894.649
897.172
899.489
901.597
903.495
905.183
906.661
907.93
908.989
909.84
910.483
910.918
911.131
911.151
910.973
910.591
910.011
909.233
908.264
907.105
905.758
904.229
902.519
900.633
898.574
896.347
893.955
891.402
888.694
885.834
882.828
879.681
876.396
872.98
869.437
865.774
861.998
858.115
854.131
850.052
845.885
841.639
837.319
832.933
828.485
823.982
819.432
814.84
810.213
805.555
800.873
796.174
791.464
786.752
782.045
777.354
772.688
768.059
763.479
758.965
754.538
750.227
746.06
742.109
738.358
734.523
11553.7
2733.72
971.652
563.201
415.093
344.078
304.151
279.535
262.802
250.02
239.332
229.935
221.572
214.289
208.309
203.819
201.416
200.866
202.479
206.127
212.258
220.993
233.879
252.171
276.69
308.615
347.157
390.318
435.91
481.343
524.636
564.427
600.573
632.482
661.239
684.259
693.985
693.832
682.644
668.754
653.273
639.417
627.233
616.673
606.967
597.566
588.032
578.334
568.708
559.653
551.615
544.874
539.545
535.648
533.341
532.476
532.767
534.38
537.155
541.013
545.859
551.594
558.147
565.381
573.178
581.444
590.088
599.022
608.151
617.355
626.695
636.144
645.665
655.222
664.773
674.286
683.753
693.149
702.457
711.675
720.782
729.772
738.642
747.389
756.008
764.49
772.827
781.009
789.028
796.884
804.574
812.098
819.455
826.64
833.65
840.482
847.133
853.6
859.882
865.973
871.872
877.573
883.073
888.37
893.459
898.34
903.008
907.46
911.693
915.704
919.489
923.047
926.377
929.476
932.344
934.979
937.381
939.547
941.477
943.171
944.629
945.853
946.843
947.601
948.129
948.418
948.479
948.316
947.93
947.321
946.493
945.448
944.192
942.726
941.055
939.183
937.114
934.852
932.401
929.766
926.951
923.963
920.805
917.483
914.003
910.37
906.591
902.669
898.612
894.426
890.118
885.695
881.166
876.536
871.816
867.013
862.135
857.188
852.178
847.111
841.994
836.835
831.64
826.415
821.167
815.905
810.637
805.37
800.112
794.874
789.664
784.493
779.372
774.319
769.351
764.492
759.764
755.224
750.841
746.151
11577.1
2238.25
839.04
516.23
396.798
339.399
307.888
288.23
274.477
263.875
255.139
247.764
241.699
237.089
234.699
234.199
236.148
240.776
247.565
256.247
267.957
283.993
304.584
329.574
358.322
389.758
422.413
455.271
487.517
518.346
546.895
572.965
597.344
618.987
630.599
633.366
629.163
621.794
611.402
601.215
591.834
583.782
576.619
569.938
563.302
556.484
549.448
542.388
535.649
529.629
524.635
520.828
518.413
517.421
517.51
518.985
521.754
525.693
530.688
536.656
543.498
551.091
559.241
567.972
577.275
587.074
597.279
607.81
618.603
629.636
640.806
652.051
663.326
674.606
685.818
696.907
707.846
718.611
729.186
739.571
749.79
759.856
769.773
779.541
789.156
798.607
807.879
816.961
825.844
834.525
843.003
851.279
859.351
867.216
874.87
882.309
889.532
896.537
903.323
909.887
916.224
922.331
928.204
933.841
939.239
944.397
949.311
953.98
958.399
962.566
966.478
970.134
973.532
976.671
979.553
982.175
984.536
986.636
988.474
990.051
991.368
992.425
993.226
993.772
994.063
994.101
993.887
993.427
992.723
991.777
990.593
989.175
987.526
985.652
983.556
981.243
978.718
975.985
973.05
969.917
966.592
963.081
959.389
955.523
951.488
947.292
942.941
938.44
933.797
929.018
924.11
919.081
913.941
908.7
903.367
897.951
892.458
886.896
881.27
875.586
869.852
864.074
858.26
852.418
846.557
840.687
834.815
828.95
823.098
817.269
811.471
805.716
800.014
794.383
788.837
783.399
778.083
772.936
767.933
762.45
11590.5
2032.79
814.122
512.051
398.926
346.953
319.026
301.989
290.423
281.939
275.529
270.822
268.107
267.247
268.377
272.079
278.212
286.555
296.868
309.862
325.654
344.053
364.686
387.019
410.418
434.25
457.919
480.892
502.479
523.138
543.16
561.102
572.638
576.975
577.327
575.047
570.196
564.503
558.575
553.243
548.49
544.192
540.05
535.849
531.464
526.914
522.345
518.021
514.259
511.391
509.831
509.326
509.9
511.691
514.589
518.573
523.403
529.285
536.233
544.176
553.028
562.703
573.166
584.299
595.998
608.171
620.709
633.517
646.521
659.677
672.897
686.07
699.137
712.04
724.72
737.132
749.245
761.054
772.569
783.827
794.878
805.755
816.473
827.038
837.444
847.669
857.683
867.473
877.03
886.348
895.427
904.267
912.865
921.217
929.32
937.171
944.768
952.112
959.201
966.034
972.607
978.916
984.957
990.729
996.23
1001.46
1006.42
1011.1
1015.5
1019.62
1023.46
1027.02
1030.29
1033.28
1035.98
1038.4
1040.53
1042.38
1043.95
1045.23
1046.23
1046.95
1047.39
1047.56
1047.46
1047.09
1046.44
1045.53
1044.36
1042.94
1041.26
1039.33
1037.16
1034.75
1032.1
1029.22
1026.13
1022.81
1019.28
1015.54
1011.6
1007.47
1003.14
998.638
993.957
989.11
984.102
978.941
973.634
968.188
962.608
956.903
951.088
945.174
939.17
933.082
926.919
920.688
914.394
908.043
901.642
895.196
888.715
882.211
875.694
869.174
862.659
856.156
849.671
843.212
836.788
830.411
824.092
817.848
811.694
805.647
799.719
793.949
788.331
782.099
11598.8
1933.96
780.365
505.729
404.819
358.174
333.455
318.602
308.824
302.179
298.06
296.244
295.992
297.916
301.973
308.072
316.069
325.845
337.479
350.902
365.734
381.709
398.5
415.656
432.796
449.56
465.66
481.564
497.524
511.433
521.436
526.731
529.467
530.383
530.314
529.009
527.133
525.205
523.39
521.801
520.365
519.033
517.825
516.522
515.129
513.756
512.565
511.8
511.538
511.775
512.546
514.361
517.349
521.585
527.067
533.859
542.144
551.724
562.381
573.981
586.414
599.583
613.408
627.766
642.571
657.737
673.072
688.445
703.744
718.848
733.66
748.161
762.364
776.373
790.004
803.149
815.771
827.89
839.57
850.916
862.066
873.093
884.009
894.836
905.552
916.105
926.421
936.494
946.315
955.873
965.162
974.18
982.923
991.387
999.567
1007.46
1015.07
1022.39
1029.42
1036.17
1042.63
1048.79
1054.66
1060.23
1065.51
1070.48
1075.16
1079.54
1083.62
1087.39
1090.86
1094.02
1096.88
1099.43
1101.68
1103.63
1105.28
1106.62
1107.67
1108.41
1108.86
1109.01
1108.87
1108.45
1107.74
1106.74
1105.47
1103.92
1102.1
1100.02
1097.67
1095.06
1092.2
1089.09
1085.75
1082.16
1078.35
1074.31
1070.06
1065.59
1060.92
1056.04
1050.98
1045.73
1040.3
1034.7
1028.95
1023.04
1016.98
1010.79
1004.46
998.015
991.463
984.816
978.082
971.268
964.38
957.426
950.412
943.345
936.232
929.071
921.881
914.676
907.466
900.261
893.067
885.89
878.738
871.616
864.532
857.5
850.535
843.651
836.862
830.184
823.625
817.217
810.984
804.039
11602.2
1908.75
778.616
512.357
416.252
372.955
350.441
336.851
328.01
322.559
320.018
319.375
320.759
324.286
329.517
336.264
344.368
353.712
364.152
375.487
387.477
399.888
412.462
424.971
437.241
449.13
460.455
470.495
478.509
484.882
490.159
494.319
497.965
501.146
503.989
506.493
508.808
511.023
513.16
515.205
517.079
518.671
519.707
520.676
521.793
523.208
525.085
527.599
530.879
535.094
540.5
547.109
555.011
564.201
574.691
586.579
600.017
614.778
630.503
646.921
663.882
681.263
698.951
716.819
734.719
752.518
770.173
787.586
804.648
821.242
837.252
852.591
867.243
881.222
894.411
906.797
918.356
929.164
939.373
949.194
959.043
969.019
979.028
989.161
999.333
1009.43
1019.38
1029.11
1038.6
1047.8
1056.71
1065.33
1073.66
1081.68
1089.39
1096.78
1103.86
1110.63
1117.09
1123.24
1129.09
1134.61
1139.83
1144.72
1149.29
1153.56
1157.51
1161.14
1164.46
1167.47
1170.15
1172.52
1174.57
1176.3
1177.72
1178.83
1179.64
1180.13
1180.31
1180.19
1179.78
1179.04
1178.02
1176.7
1175.1
1173.21
1171.04
1168.59
1165.87
1162.88
1159.63
1156.11
1152.34
1148.33
1144.08
1139.59
1134.87
1129.93
1124.77
1119.41
1113.84
1108.07
1102.11
1095.97
1089.65
1083.17
1076.54
1069.75
1062.83
1055.78
1048.63
1041.37
1034.03
1026.59
1019.07
1011.48
1003.81
996.086
988.304
980.474
972.605
964.691
956.758
948.822
940.89
932.97
925.067
917.189
909.341
901.528
893.757
886.046
878.412
870.869
863.427
856.102
848.898
841.841
834.992
827.369
11602.6
1881.42
776.503
521.68
429.791
388.087
366.768
353.983
345.645
340.931
338.965
338.653
340.592
344.361
349.51
355.783
362.993
371.033
379.768
389.068
398.81
408.906
419.318
429.688
439.752
449.31
458.071
466.219
473.781
480.896
487.638
493.884
499.508
504.863
510.087
515.189
520.233
525.277
530.373
535.53
540.733
546.057
551.721
557.767
564.32
571.516
579.479
588.309
598.104
608.986
621.087
634.451
649.305
665.307
682.26
700.01
718.251
736.783
755.621
774.767
794.131
813.607
833.093
852.486
871.677
890.565
909.07
927.117
944.624
961.497
977.626
992.826
1006.99
1019.99
1032.03
1043.25
1053.75
1063.55
1072.67
1081.21
1089.39
1097.37
1105.37
1113.95
1122.78
1131.61
1140.35
1148.9
1157.17
1165.14
1172.81
1180.17
1187.23
1193.98
1200.4
1206.49
1212.25
1217.69
1222.83
1227.66
1232.17
1236.37
1240.25
1243.8
1247.04
1249.97
1252.59
1254.9
1256.9
1258.59
1259.98
1261.04
1261.79
1262.24
1262.37
1262.23
1261.79
1261.03
1259.97
1258.61
1256.97
1255.03
1252.81
1250.3
1247.52
1244.47
1241.15
1237.56
1233.71
1229.61
1225.25
1220.64
1215.79
1210.7
1205.39
1199.85
1194.09
1188.13
1181.95
1175.58
1169.02
1162.26
1155.33
1148.22
1140.95
1133.52
1125.95
1118.23
1110.39
1102.43
1094.37
1086.24
1078.02
1069.71
1061.33
1052.87
1044.35
1035.77
1027.14
1018.48
1009.79
1001.09
992.401
983.716
975.042
966.386
957.752
949.148
940.583
932.058
923.584
915.184
906.871
898.658
890.555
882.573
874.719
867.009
859.549
851.283
11599.9
1863.43
779.282
532.064
442.213
401.955
381.632
369.265
361.286
357.088
355.442
355.281
357.408
361.149
366.208
372.381
379.538
387.654
396.456
405.859
415.638
425.593
435.62
445.741
455.978
466.361
477.025
487.589
498.152
508.777
519.489
530.29
541.336
552.581
563.983
575.52
587.167
598.925
610.792
622.798
635.038
647.639
660.763
674.425
688.696
703.681
719.48
736.077
753.42
771.496
790.304
809.857
829.985
850.471
871.183
891.976
912.678
933.131
953.243
972.96
992.232
1011.01
1029.24
1046.9
1063.94
1080.34
1096.08
1111.16
1125.56
1139.27
1152.28
1164.61
1176.25
1186.94
1196.94
1206.41
1215.44
1224.01
1231.96
1239.32
1245.98
1252.16
1258.5
1265.13
1271.72
1278.16
1284.37
1290.34
1296.03
1301.43
1306.56
1311.42
1316
1320.3
1324.3
1328.01
1331.43
1334.57
1337.45
1340.07
1342.41
1344.48
1346.26
1347.77
1348.99
1349.95
1350.65
1351.08
1351.23
1351.12
1350.76
1350.09
1349.16
1347.96
1346.49
1344.77
1342.79
1340.54
1338.03
1335.25
1332.21
1328.91
1325.37
1321.57
1317.53
1313.25
1308.73
1303.98
1298.99
1293.77
1288.32
1282.65
1276.76
1270.66
1264.35
1257.85
1251.15
1244.25
1237.17
1229.91
1222.47
1214.86
1207.08
1199.14
1191.05
1182.82
1174.45
1165.95
1157.32
1148.57
1139.72
1130.77
1121.73
1112.61
1103.4
1094.12
1084.78
1075.38
1065.95
1056.47
1046.97
1037.49
1028.02
1018.55
1009.11
999.675
990.273
980.907
971.588
962.332
953.161
944.079
935.092
926.213
917.448
908.813
900.314
891.96
883.896
875.035
11594.5
1849.41
783.83
539.498
452.601
415.49
396.58
385.247
378.585
375.696
374.96
376.571
380.524
386.305
393.664
402.493
412.717
423.381
435.152
448.132
462.028
476.707
492.423
509.277
527.348
546.662
567.148
588.59
610.851
633.767
657.211
681.101
705.422
730.034
754.901
779.939
804.83
829.458
853.776
877.783
901.53
925.106
948.568
971.924
995.224
1018.63
1042.64
1066.89
1090.79
1114.13
1136.76
1158.42
1178.73
1198.01
1216.31
1233.62
1249.88
1265.08
1279.22
1292.36
1304.55
1315.81
1326.2
1335.75
1344.51
1352.54
1359.86
1366.53
1372.6
1378.13
1383.19
1387.99
1392.67
1397.29
1401.78
1406.02
1409.98
1413.6
1416.69
1419.59
1422.55
1425.99
1429.61
1432.67
1435.21
1437.42
1439.38
1441.16
1442.75
1444.18
1445.44