/*--------------------------------*- C++ -*----------------------------------*\
  =========                 |
  \\      /  F ield         | OpenFOAM: The Open Source CFD Toolbox
   \\    /   O peration     | Website:  https://openfoam.org
    \\  /    A nd           | Version:  8
     \\/     M anipulation  |
\*---------------------------------------------------------------------------*/
FoamFile
{
    version     2.0;
    format      ascii;
    class       volScalarField;
    location    "600";
    object      p;
}
// * * * * * * * * * * * * * * * * * * * * * * * * * * * * * * * * * * * * * //

dimensions      [0 2 -2 0 0 0 0];

internalField   nonuniform List<scalar> 
12225
(
-4.24012
-5.13801
-5.52929
-5.65968
-5.7937
-5.9396
-6.06136
-6.15929
-6.2459
-6.32658
-6.40037
-6.4714
-6.54321
-6.61142
-6.67812
-6.74765
-6.82879
-6.91597
-4.52026
-5.16605
-5.49577
-5.622
-5.75787
-5.90499
-6.02566
-6.12373
-6.21254
-6.29821
-6.38086
-6.45308
-6.51941
-6.58813
-6.65649
-6.72373
-6.79043
-6.8482
-4.73991
-5.16853
-5.48086
-5.63161
-5.77012
-5.91198
-6.0302
-6.12766
-6.21644
-6.30176
-6.38172
-6.45196
-6.51704
-6.58274
-6.64753
-6.7095
-6.76668
-6.81292
-4.88462
-5.19578
-5.49103
-5.64917
-5.77759
-5.90807
-6.02243
-6.11927
-6.20728
-6.29059
-6.3683
-6.43809
-6.50305
-6.56706
-6.62933
-6.68761
-6.74014
-6.78316
-5.0057
-5.24381
-5.50767
-5.66376
-5.7849
-5.90793
-6.01999
-6.1163
-6.20298
-6.28421
-6.3601
-6.42929
-6.49362
-6.55552
-6.61468
-6.66938
-6.71817
-6.75847
-5.1204
-5.29774
-5.52391
-5.67595
-5.79352
-5.91056
-6.01922
-6.11378
-6.19865
-6.27785
-6.35191
-6.42
-6.48315
-6.54287
-6.59912
-6.65074
-6.69661
-6.73519
-5.22656
-5.3551
-5.54424
-5.68918
-5.80299
-5.91358
-6.0177
-6.10996
-6.19306
-6.27042
-6.34273
-6.40949
-6.47129
-6.52907
-6.5829
-6.63204
-6.67577
-6.71312
-5.30858
-5.4059
-5.56636
-5.70223
-5.81176
-5.91666
-6.0164
-6.10626
-6.18765
-6.26332
-6.33401
-6.39946
-6.46001
-6.51628
-6.56837
-6.61578
-6.65806
-6.69461
-5.37515
-5.45164
-5.58868
-5.71513
-5.82036
-5.92015
-6.01572
-6.1031
-6.18272
-6.25672
-6.32586
-6.39003
-6.44939
-6.50438
-6.55506
-6.60114
-6.64234
-6.67825
-5.44134
-5.50092
-5.61544
-5.73078
-5.83073
-5.92495
-6.01576
-6.10007
-6.17751
-6.24954
-6.31687
-6.37948
-6.43745
-6.491
-6.54024
-6.58499
-6.62514
-6.66048
-5.50614
-5.55243
-5.64643
-5.74939
-5.84294
-5.93124
-6.01679
-6.09743
-6.17223
-6.24195
-6.30718
-6.36794
-6.42424
-6.47623
-6.52396
-6.5674
-6.60655
-6.64131
-5.56864
-5.60457
-5.68076
-5.77078
-5.85688
-5.93897
-6.01891
-6.09534
-6.16701
-6.23408
-6.29691
-6.35556
-6.40999
-6.46026
-6.50647
-6.54859
-6.58676
-6.62091
-5.62745
-5.6556
-5.71701
-5.79433
-5.87224
-5.94787
-6.02204
-6.0938
-6.16191
-6.226
-6.2862
-6.34251
-6.39491
-6.44339
-6.48805
-6.52889
-6.56608
-6.59961
-5.68125
-5.70351
-5.75311
-5.81883
-5.88831
-5.95739
-6.02578
-6.09268
-6.15689
-6.21777
-6.27517
-6.32904
-6.37929
-6.42597
-6.46905
-6.50865
-6.54484
-6.57776
-5.72794
-5.7459
-5.78645
-5.84227
-5.9038
-5.96654
-6.02941
-6.09153
-6.15178
-6.20936
-6.26393
-6.31533
-6.36349
-6.40834
-6.44992
-6.48828
-6.52355
-6.55579
-5.76479
-5.77971
-5.81372
-5.86186
-5.91661
-5.97376
-6.03175
-6.08956
-6.14613
-6.2006
-6.25251
-6.30162
-6.34779
-6.39097
-6.43115
-6.46837
-6.50278
-6.53442
-5.78783
-5.80083
-5.83072
-5.87376
-5.9237
-5.9767
-6.03099
-6.08549
-6.13915
-6.19111
-6.24083
-6.28804
-6.33258
-6.37435
-6.41337
-6.44967
-6.48337
-6.51454
-5.7909
-5.80329
-5.83187
-5.87314
-5.92128
-5.97252
-6.0252
-6.07815
-6.1304
-6.18104
-6.2296
-6.27571
-6.3193
-6.36022
-6.39856
-6.43428
-6.46757
-6.49846
-5.77378
-5.78689
-5.81695
-5.85994
-5.90939
-5.96154
-6.01483
-6.06828
-6.12077
-6.17154
-6.22001
-6.26602
-6.30939
-6.35014
-6.38823
-6.42382
-6.45695
-6.48782
-5.74169
-5.75666
-5.79073
-5.83829
-5.8915
-5.94648
-6.00211
-6.0575
-6.11155
-6.16338
-6.21265
-6.25916
-6.30289
-6.34382
-6.38206
-6.41769
-6.4509
-6.48181
-5.69776
-5.71595
-5.75675
-5.8115
-5.87021
-5.92933
-5.9885
-6.04693
-6.10331
-6.15688
-6.2074
-6.25483
-6.2992
-6.34056
-6.37907
-6.41489
-6.4482
-6.47922
-5.64376
-5.66705
-5.71789
-5.78223
-5.84752
-5.91155
-5.97515
-6.03733
-6.09656
-6.15219
-6.20423
-6.25279
-6.29791
-6.33979
-6.37858
-6.4146
-6.44801
-6.47913
-5.58056
-5.61184
-5.67682
-5.75266
-5.82481
-5.8942
-5.96291
-6.02928
-6.09153
-6.14936
-6.20305
-6.25279
-6.29871
-6.34103
-6.3801
-6.4162
-6.44967
-6.48077
-5.5082
-5.55208
-5.6363
-5.72445
-5.80283
-5.87791
-5.9523
-6.02305
-6.08829
-6.1483
-6.20364
-6.25453
-6.30116
-6.34386
-6.38306
-6.41917
-6.45256
-6.4836
-5.42588
-5.48972
-5.59929
-5.69909
-5.78208
-5.86287
-5.94328
-6.01834
-6.08645
-6.14859
-6.20555
-6.25754
-6.30478
-6.34772
-6.38688
-6.42281
-6.45594
-6.48674
-5.33289
-5.42644
-5.56721
-5.6771
-5.76323
-5.8494
-5.93527
-6.01403
-6.08467
-6.14887
-6.20749
-6.26069
-6.3087
-6.35205
-6.39132
-6.42715
-6.46011
-6.49087
-5.22938
-5.3661
-5.53718
-5.65353
-5.74411
-5.8373
-5.92861
-6.01045
-6.08313
-6.14896
-6.20881
-6.26283
-6.31129
-6.35481
-6.394
-6.42963
-6.46237
-6.49302
-5.11026
-5.32174
-5.513
-5.62404
-5.71945
-5.82334
-5.92269
-6.00957
-6.08601
-6.15485
-6.21689
-6.27227
-6.32145
-6.36511
-6.40395
-6.43896
-6.47128
-6.50234
-4.93254
-5.29875
-5.52098
-5.61544
-5.70621
-5.81415
-5.91665
-6.00507
-6.08299
-6.15347
-6.21703
-6.27357
-6.32348
-6.36735
-6.40579
-6.43952
-6.46984
-6.49806
-4.67288
-5.22279
-5.50954
-5.61475
-5.71353
-5.83005
-5.93812
-6.02937
-6.1087
-6.18003
-6.24416
-6.30097
-6.35083
-6.39424
-6.43169
-6.46303
-6.48901
-6.51004
-7.44012
-7.44023
-7.44028
-7.44027
-7.43998
-7.43878
-7.43626
-7.43292
-7.42974
-7.42771
-7.42783
-7.43028
-7.43457
-7.43992
-7.44557
-7.45084
-7.45517
-7.45817
-7.45981
-7.46045
-7.46035
-7.45972
-7.45879
-7.45783
-7.45707
-7.45661
-7.45638
-7.45623
-7.45601
-7.45561
-7.45506
-7.45435
-7.45342
-7.45219
-7.45075
-7.44941
-7.44881
-7.44959
-7.45174
-7.45453
-7.45705
-7.4589
-7.46034
-7.46184
-7.46386
-7.46689
-7.47045
-7.47351
-7.47587
-7.47989
-7.4895
-7.50854
-7.53655
-7.57186
-7.61436
-7.66553
-7.72489
-7.79061
-7.86102
-7.934
-8.00747
-8.0796
-8.14939
-8.21592
-8.27816
-8.33574
-8.38851
-8.43641
-8.47951
-8.51786
-8.5516
-8.58077
-8.60549
-8.62578
-8.64171
-8.65326
-8.66047
-8.66329
-8.66172
-8.6557
-8.64521
-8.63018
-8.61058
-8.58633
-8.55741
-8.52375
-8.48531
-8.44201
-8.39379
-8.34053
-8.28217
-8.21867
-8.14999
-8.07609
-7.99693
-7.91247
-7.82267
-7.72761
-7.62737
-7.52187
-7.41061
-7.2934
-7.17043
-7.04177
-6.90742
-6.76742
-6.62175
-6.47045
-6.31353
-6.15105
-5.98305
-5.80959
-5.63075
-5.44662
-5.2573
-5.0629
-4.86355
-4.65938
-4.45054
-4.2372
-4.01952
-3.79768
-3.57186
-3.34227
-3.10911
-2.87258
-2.63291
-2.3903
-2.14501
-1.89724
-1.64726
-1.39526
-1.14148
-0.886182
-0.629649
-0.372195
-0.114008
0.145016
0.404738
0.664779
0.924866
1.18477
1.44427
1.70317
1.9613
2.21846
2.47448
2.72919
2.98243
3.23404
3.48385
3.73171
3.97746
4.22095
4.46205
4.70062
4.93657
5.16979
5.40019
5.62769
5.85221
6.07368
6.29202
6.50716
6.71902
6.92753
7.13261
7.3342
7.53223
7.72663
7.91733
8.10425
8.28731
8.46641
8.64148
8.81248
8.97971
9.14304
9.30555
9.45856
-7.44133
-7.44152
-7.44189
-7.44227
-7.44226
-7.44144
-7.43951
-7.43705
-7.43529
-7.43518
-7.437
-7.44061
-7.44547
-7.45096
-7.45644
-7.46143
-7.46554
-7.46861
-7.47041
-7.47077
-7.46977
-7.46776
-7.46517
-7.46248
-7.4601
-7.45828
-7.45705
-7.45622
-7.45556
-7.45492
-7.45431
-7.4537
-7.45302
-7.45218
-7.45119
-7.45048
-7.45078
-7.4525
-7.45533
-7.45822
-7.46008
-7.46062
-7.46033
-7.45926
-7.45777
-7.45751
-7.46082
-7.46746
-7.47392
-7.48115
-7.49261
-7.50921
-7.5324
-7.56553
-7.61115
-7.66782
-7.73268
-7.80348
-7.87763
-7.95273
-8.02687
-8.09894
-8.16758
-8.23153
-8.29084
-8.34553
-8.39557
-8.44104
-8.48203
-8.51862
-8.55089
-8.5789
-8.6027
-8.6223
-8.63771
-8.64892
-8.6559
-8.65862
-8.65704
-8.65109
-8.64075
-8.62592
-8.60658
-8.58264
-8.55408
-8.52082
-8.48282
-8.44002
-8.39234
-8.33969
-8.28199
-8.21921
-8.15129
-8.07821
-7.99991
-7.91632
-7.82736
-7.73295
-7.63294
-7.52722
-7.41601
-7.29942
-7.17729
-7.04953
-6.91613
-6.77707
-6.63236
-6.48201
-6.32606
-6.16453
-5.99748
-5.82497
-5.64706
-5.46386
-5.27544
-5.08194
-4.88346
-4.68015
-4.47215
-4.25961
-4.04272
-3.82163
-3.59655
-3.36766
-3.13517
-2.89928
-2.66021
-2.41817
-2.17341
-1.92614
-1.6766
-1.425
-1.17155
-0.91647
-0.659964
-0.40224
-0.143574
0.115626
0.375196
0.635089
0.895047
1.15485
1.41427
1.67314
1.93125
2.18842
2.44448
2.69925
2.95259
3.20431
3.45427
3.7023
3.94824
4.19194
4.43327
4.6721
4.90832
5.14182
5.37252
5.60031
5.82514
6.04692
6.26559
6.48106
6.69326
6.90211
7.10755
7.3095
7.5079
7.70269
7.89379
8.08113
8.26468
8.44437
8.62013
8.79193
8.95998
9.12368
9.28822
9.44054
-7.44263
-7.44262
-7.44266
-7.44274
-7.44283
-7.44285
-7.44306
-7.44397
-7.44605
-7.44944
-7.45395
-7.45921
-7.46481
-7.4703
-7.47532
-7.47958
-7.48285
-7.48505
-7.48609
-7.4859
-7.48453
-7.48211
-7.47881
-7.47483
-7.47043
-7.46589
-7.4615
-7.45752
-7.45416
-7.45149
-7.44946
-7.44782
-7.44633
-7.44508
-7.44456
-7.44548
-7.4483
-7.4526
-7.45687
-7.45929
-7.45873
-7.45629
-7.4541
-7.45352
-7.45411
-7.45599
-7.46166
-7.47211
-7.48671
-7.50622
-7.53145
-7.5625
-7.59978
-7.64398
-7.69521
-7.75217
-7.81321
-7.87694
-7.94194
-8.00692
-8.07083
-8.13301
-8.19271
-8.24926
-8.30239
-8.35195
-8.39781
-8.43991
-8.47821
-8.51268
-8.54331
-8.57007
-8.59293
-8.61185
-8.62679
-8.63771
-8.64454
-8.64723
-8.64573
-8.63995
-8.62985
-8.61534
-8.59637
-8.57287
-8.54478
-8.51205
-8.47461
-8.43242
-8.38539
-8.33344
-8.27649
-8.2145
-8.14741
-8.0752
-7.99781
-7.91519
-7.82728
-7.734
-7.63521
-7.53079
-7.4208
-7.30533
-7.18432
-7.05771
-6.92548
-6.78761
-6.64411
-6.49498
-6.34025
-6.17994
-6.01411
-5.84281
-5.66612
-5.48411
-5.29688
-5.10455
-4.90722
-4.70504
-4.49814
-4.28669
-4.07084
-3.85078
-3.62669
-3.39876
-3.16718
-2.93218
-2.69396
-2.45273
-2.20873
-1.96219
-1.71334
-1.46237
-1.20953
-0.95503
-0.699102
-0.441953
-0.183826
0.0749469
0.334177
0.593739
0.853396
1.11293
1.37213
1.6308
1.88876
2.14581
2.40178
2.6565
2.90981
3.16154
3.41153
3.65962
3.90566
4.14949
4.39097
4.62997
4.86637
5.10007
5.33097
5.55899
5.78403
6.00603
6.22491
6.44059
6.65301
6.86207
7.06772
7.26987
7.46847
7.66344
7.85473
8.04226
8.22596
8.40576
8.58168
8.75375
8.9225
9.08676
9.25401
9.40227
-7.44375
-7.44347
-7.4431
-7.44312
-7.44429
-7.44702
-7.45111
-7.45618
-7.46191
-7.46798
-7.4741
-7.48002
-7.48551
-7.49038
-7.49448
-7.49767
-7.49983
-7.50093
-7.50092
-7.49977
-7.49751
-7.49421
-7.48996
-7.48483
-7.47894
-7.4724
-7.46543
-7.45832
-7.45144
-7.44514
-7.4397
-7.43532
-7.43229
-7.43112
-7.43255
-7.43671
-7.44234
-7.44738
-7.45048
-7.45135
-7.4507
-7.45021
-7.45136
-7.45484
-7.46121
-7.47125
-7.48582
-7.50551
-7.53042
-7.56024
-7.59451
-7.63292
-7.6752
-7.72116
-7.77054
-7.82288
-7.87759
-7.93397
-7.9912
-8.04849
-8.1051
-8.16043
-8.21393
-8.26513
-8.31371
-8.35943
-8.40208
-8.44154
-8.47769
-8.51044
-8.5397
-8.5654
-8.58745
-8.60579
-8.62033
-8.63099
-8.6377
-8.64037
-8.63894
-8.63332
-8.62344
-8.60922
-8.5906
-8.5675
-8.53985
-8.5076
-8.47069
-8.42907
-8.38265
-8.33135
-8.2751
-8.21383
-8.14752
-8.07611
-7.99953
-7.91774
-7.83066
-7.73822
-7.64034
-7.53695
-7.42805
-7.31365
-7.19372
-7.0682
-6.93708
-6.80033
-6.65796
-6.50996
-6.35636
-6.1972
-6.0325
-5.86234
-5.68677
-5.50588
-5.31975
-5.12851
-4.93225
-4.73112
-4.52525
-4.3148
-4.09994
-3.88083
-3.65766
-3.43063
-3.19992
-2.96575
-2.72832
-2.48786
-2.2446
-1.99875
-1.75054
-1.50019
-1.24792
-0.993972
-0.738572
-0.481953
-0.224344
0.0340022
0.29289
0.55213
0.811494
1.07077
1.32974
1.58823
1.84603
2.10296
2.35884
2.6135
2.86678
3.11851
3.36852
3.61666
3.86277
4.1067
4.34831
4.58745
4.82402
5.05789
5.28897
5.51718
5.74241
5.96461
6.18368
6.39956
6.61217
6.82142
7.02725
7.22957
7.42832
7.62343
7.81485
8.00252
8.18637
8.36636
8.54253
8.71485
8.884
9.04824
9.21622
9.35824
-7.44604
-7.44544
-7.44505
-7.44649
-7.45074
-7.45707
-7.46441
-7.47206
-7.47955
-7.48657
-7.49296
-7.49866
-7.50361
-7.50776
-7.51101
-7.51329
-7.51454
-7.5147
-7.51374
-7.51166
-7.50844
-7.50415
-7.4988
-7.49247
-7.48523
-7.47712
-7.46826
-7.45886
-7.44927
-7.44001
-7.4317
-7.42518
-7.42141
-7.42133
-7.42467
-7.42949
-7.43416
-7.43802
-7.44101
-7.44362
-7.44669
-7.45133
-7.45853
-7.46928
-7.48441
-7.50414
-7.52803
-7.55557
-7.58652
-7.62052
-7.65733
-7.69688
-7.73908
-7.78383
-7.8309
-7.87992
-7.93046
-7.98201
-8.034
-8.08591
-8.13721
-8.18746
-8.23623
-8.28317
-8.32798
-8.37041
-8.41025
-8.44734
-8.48152
-8.51264
-8.54059
-8.56523
-8.58646
-8.60416
-8.61823
-8.62856
-8.63505
-8.63761
-8.63614
-8.63056
-8.62078
-8.60673
-8.58833
-8.56549
-8.53816
-8.50627
-8.46976
-8.42858
-8.38265
-8.33187
-8.27618
-8.21552
-8.14985
-8.07912
-8.00326
-7.9222
-7.83587
-7.74421
-7.64714
-7.54463
-7.43664
-7.32315
-7.20412
-7.07952
-6.94932
-6.8135
-6.67206
-6.525
-6.37234
-6.21411
-6.05034
-5.8811
-5.70644
-5.52645
-5.34121
-5.15083
-4.95543
-4.75513
-4.55009
-4.34043
-4.12634
-3.90798
-3.68555
-3.45921
-3.22918
-2.99566
-2.75886
-2.519
-2.2763
-2.03099
-1.7833
-1.53342
-1.28161
-1.02809
-0.773095
-0.516858
-0.259613
-0.00158212
0.257023
0.516
0.775122
1.03418
1.29297
1.5513
1.80896
2.06579
2.32159
2.5762
2.82945
3.08117
3.33119
3.57937
3.82554
4.06955
4.31125
4.5505
4.7872
5.02121
5.25244
5.4808
5.7062
5.92857
6.14782
6.36387
6.57664
6.78605
6.99204
7.19453
7.39344
7.58872
7.7803
7.96813
8.15215
8.33232
8.50865
8.68106
8.8502
9.01378
9.18124
9.31647
-7.4503
-7.44938
-7.44991
-7.45444
-7.46193
-7.47044
-7.47907
-7.48731
-7.4949
-7.50173
-7.50782
-7.51315
-7.51765
-7.52127
-7.52394
-7.52558
-7.52614
-7.5256
-7.52394
-7.52113
-7.5172
-7.51216
-7.50603
-7.49882
-7.49051
-7.48123
-7.47111
-7.46035
-7.44937
-7.43884
-7.42962
-7.42299
-7.4199
-7.42002
-7.42186
-7.42434
-7.42747
-7.43163
-7.43714
-7.44389
-7.45225
-7.46348
-7.47855
-7.49751
-7.52009
-7.54593
-7.57472
-7.60611
-7.63988
-7.67584
-7.71385
-7.7538
-7.79558
-7.83904
-7.88399
-7.93015
-7.9772
-8.02482
-8.07263
-8.12026
-8.16736
-8.2136
-8.25863
-8.30217
-8.34393
-8.38369
-8.42122
-8.45633
-8.48883
-8.51857
-8.54536
-8.56907
-8.58954
-8.60665
-8.62024
-8.63022
-8.63644
-8.63882
-8.63724
-8.63161
-8.62184
-8.60785
-8.58955
-8.56687
-8.53973
-8.50807
-8.47184
-8.43096
-8.38537
-8.335
-8.27973
-8.21954
-8.15438
-8.08418
-8.00888
-7.92841
-7.8427
-7.75168
-7.65529
-7.55348
-7.4462
-7.33343
-7.21512
-7.09125
-6.96177
-6.82668
-6.68596
-6.53963
-6.38769
-6.23017
-6.06711
-5.89856
-5.72458
-5.54526
-5.36068
-5.17095
-4.97618
-4.77649
-4.57203
-4.36295
-4.14942
-3.9316
-3.70967
-3.48384
-3.25429
-3.02123
-2.78487
-2.54544
-2.30315
-2.05822
-1.81088
-1.56135
-1.30987
-1.05666
-0.801957
-0.546
-0.289012
-0.0312155
0.227172
0.485942
0.744873
1.00376
1.26239
1.52058
1.77814
2.03487
2.2906
2.54515
2.79836
3.05005
3.30007
3.54826
3.79445
4.0385
4.28025
4.51957
4.75633
4.99043
5.22176
5.45022
5.67573
5.89821
6.11757
6.33374
6.54663
6.75617
6.96228
7.16489
7.36392
7.55932
7.75101
7.93895
8.12306
8.3033
8.47965
8.65194
8.82078
8.98338
9.15005
9.27867
-7.45557
-7.45512
-7.45789
-7.46516
-7.474
-7.48278
-7.49114
-7.49895
-7.50614
-7.51268
-7.5185
-7.52355
-7.52774
-7.53099
-7.53325
-7.53446
-7.53458
-7.53358
-7.53144
-7.52817
-7.52378
-7.51829
-7.51161
-7.5037
-7.49468
-7.48475
-7.47414
-7.46313
-7.45222
-7.44221
-7.43425
-7.42903
-7.42593
-7.42407
-7.42352
-7.42477
-7.42846
-7.43442
-7.44258
-7.45363
-7.46811
-7.48596
-7.507
-7.531
-7.55771
-7.58682
-7.61811
-7.65143
-7.68661
-7.72349
-7.7619
-7.8017
-7.84275
-7.88492
-7.92803
-7.97191
-8.01633
-8.06106
-8.10583
-8.1504
-8.19448
-8.23781
-8.28011
-8.32113
-8.36062
-8.39836
-8.43412
-8.46769
-8.49888
-8.5275
-8.55337
-8.5763
-8.59613
-8.6127
-8.62587
-8.63549
-8.64144
-8.6436
-8.64185
-8.63611
-8.62626
-8.61224
-8.59395
-8.57131
-8.54425
-8.51271
-8.47662
-8.43593
-8.39057
-8.34045
-8.28548
-8.22563
-8.16083
-8.09104
-8.01617
-7.93614
-7.8509
-7.76037
-7.6645
-7.56322
-7.45649
-7.34426
-7.2265
-7.10317
-6.97424
-6.83968
-6.6995
-6.55369
-6.40227
-6.24526
-6.08271
-5.91465
-5.74116
-5.5623
-5.37817
-5.18888
-4.99453
-4.79525
-4.59118
-4.38248
-4.16931
-3.95184
-3.73025
-3.50473
-3.27549
-3.04273
-2.80666
-2.5675
-2.32546
-2.08079
-1.83368
-1.58438
-1.33311
-1.08012
-0.825625
-0.569868
-0.313063
-0.0554429
0.202781
0.461389
0.720172
0.978918
1.23743
1.4955
1.75296
2.0096
2.26525
2.51974
2.7729
3.02455
3.27455
3.52272
3.76891
4.01295
4.25471
4.49404
4.73083
4.96495
5.19632
5.42482
5.65039
5.87293
6.09237
6.3086
6.52157
6.73117
6.93734
7.14001
7.3391
7.53456
7.72632
7.91429
8.09843
8.27864
8.4549
8.62694
8.79531
8.95683
9.12273
9.24522
-7.45967
-7.46051
-7.46594
-7.47427
-7.48277
-7.49092
-7.49872
-7.50611
-7.51301
-7.51933
-7.52497
-7.52982
-7.53382
-7.53686
-7.53891
-7.53988
-7.53976
-7.53853
-7.53615
-7.53267
-7.52806
-7.52227
-7.51519
-7.50702
-7.49798
-7.48823
-7.478
-7.46777
-7.45829
-7.45028
-7.44399
-7.43877
-7.43418
-7.43098
-7.43005
-7.43172
-7.43648
-7.44479
-7.45668
-7.47201
-7.49051
-7.51197
-7.53614
-7.56275
-7.59158
-7.62242
-7.65508
-7.68939
-7.72519
-7.76232
-7.80064
-7.84002
-7.88035
-7.92148
-7.96327
-8.00557
-8.04821
-8.09102
-8.13379
-8.17631
-8.21836
-8.25971
-8.30015
-8.33943
-8.37734
-8.41366
-8.44816
-8.48064
-8.51088
-8.53869
-8.56385
-8.58618
-8.6055
-8.62164
-8.63443
-8.64373
-8.64939
-8.6513
-8.64934
-8.64342
-8.63343
-8.61929
-8.60092
-8.57823
-8.55115
-8.51961
-8.48356
-8.44295
-8.3977
-8.34773
-8.29294
-8.2333
-8.16875
-8.09922
-8.02465
-7.94495
-7.86005
-7.76988
-7.67438
-7.57348
-7.46714
-7.3553
-7.23793
-7.11498
-6.98643
-6.85226
-6.71244
-6.567
-6.41593
-6.25926
-6.09703
-5.92929
-5.75611
-5.57754
-5.39369
-5.20466
-5.01056
-4.81153
-4.60769
-4.3992
-4.18623
-3.96895
-3.74755
-3.52221
-3.29313
-3.06053
-2.82461
-2.5856
-2.34371
-2.09917
-1.8522
-1.60304
-1.35192
-1.09906
-0.844695
-0.589069
-0.332395
-0.0749015
0.183196
0.441679
0.700342
0.958974
1.21738
1.47536
1.73272
1.98927
2.24485
2.49927
2.75236
3.00396
3.25392
3.50206
3.74822
3.99223
4.23396
4.47326
4.71002
4.94414
5.1755
5.40401
5.6296
5.85217
6.07163
6.28789
6.50087
6.71049
6.91668
7.11937
7.31849
7.51397
7.70574
7.89372
8.07783
8.25796
8.43405
8.60576
8.77359
8.93403
9.09922
9.21619
-7.46089
-7.46342
-7.47041
-7.47842
-7.48624
-7.49389
-7.50134
-7.50849
-7.51524
-7.52146
-7.52703
-7.53185
-7.5358
-7.53882
-7.54083
-7.54179
-7.54167
-7.54043
-7.53807
-7.53459
-7.52993
-7.52405
-7.51703
-7.50914
-7.50055
-7.49154
-7.48253
-7.47403
-7.46639
-7.45957
-7.45336
-7.44764
-7.44284
-7.43997
-7.4399
-7.44315
-7.45011
-7.46079
-7.47491
-7.49231
-7.51272
-7.53587
-7.5615
-7.58937
-7.61924
-7.65092
-7.68421
-7.71895
-7.75498
-7.79215
-7.83034
-7.86942
-7.90925
-7.94971
-7.99068
-8.03203
-8.07361
-8.11526
-8.15682
-8.1981
-8.23891
-8.27907
-8.31836
-8.35658
-8.39352
-8.42896
-8.46268
-8.49447
-8.52411
-8.55137
-8.57605
-8.59796
-8.6169
-8.63269
-8.64515
-8.65414
-8.65951
-8.66114
-8.65893
-8.65277
-8.64258
-8.62825
-8.60971
-8.58688
-8.55967
-8.52804
-8.49194
-8.4513
-8.40607
-8.35614
-8.30144
-8.24191
-8.1775
-8.10814
-8.03375
-7.95426
-7.86958
-7.77965
-7.68439
-7.58375
-7.47766
-7.36608
-7.24896
-7.12627
-6.99796
-6.86403
-6.72444
-6.57922
-6.42836
-6.27189
-6.10985
-5.9423
-5.76927
-5.59086
-5.40715
-5.21824
-5.02426
-4.82533
-4.62158
-4.41318
-4.20029
-3.98307
-3.76173
-3.53645
-3.30743
-3.07488
-2.83902
-2.60006
-2.35823
-2.11374
-1.86683
-1.61774
-1.3667
-1.11391
-0.859638
-0.604094
-0.347513
-0.0901123
0.167883
0.426268
0.684827
0.943361
1.20166
1.45955
1.71681
1.97328
2.22877
2.4831
2.73612
2.98765
3.23755
3.48564
3.73174
3.97569
4.21735
4.4566
4.69331
4.92737
5.1587
5.38718
5.61275
5.83531
6.05477
6.27102
6.48399
6.69359
6.89977
7.10244
7.30155
7.49702
7.68878
7.87673
8.06077
8.24077
8.41664
8.58797
8.75523
8.91462
9.07916
9.19132
-7.4577
-7.46162
-7.46877
-7.47624
-7.48373
-7.49119
-7.49853
-7.50566
-7.51245
-7.51876
-7.52447
-7.52945
-7.53359
-7.5368
-7.53901
-7.54016
-7.5402
-7.53912
-7.53689
-7.5335
-7.52895
-7.52327
-7.51665
-7.50938
-7.50171
-7.49398
-7.4864
-7.47906
-7.47202
-7.46537
-7.45926
-7.45407
-7.45042
-7.44908
-7.45063
-7.45546
-7.46377
-7.4756
-7.49078
-7.50914
-7.53041
-7.55433
-7.58062
-7.60905
-7.63939
-7.67145
-7.70505
-7.74001
-7.77618
-7.81343
-7.8516
-7.89057
-7.93021
-7.9704
-8.01103
-8.05196
-8.09306
-8.13419
-8.17519
-8.2159
-8.25614
-8.29574
-8.3345
-8.37223
-8.40872
-8.44375
-8.47711
-8.50857
-8.53788
-8.56484
-8.58922
-8.61082
-8.62945
-8.64493
-8.65708
-8.66575
-8.67081
-8.67214
-8.66964
-8.66321
-8.65275
-8.63819
-8.61942
-8.59637
-8.56897
-8.53717
-8.50092
-8.46018
-8.41488
-8.36492
-8.31021
-8.2507
-8.18634
-8.11705
-8.04276
-7.96337
-7.87882
-7.78901
-7.69389
-7.59339
-7.48745
-7.37602
-7.25906
-7.13651
-7.00834
-6.87453
-6.73507
-6.58995
-6.4392
-6.28283
-6.12087
-5.95338
-5.78041
-5.60204
-5.41836
-5.22948
-5.03551
-4.83658
-4.63283
-4.42441
-4.2115
-3.99426
-3.7729
-3.54759
-3.31855
-3.08598
-2.8501
-2.61113
-2.36929
-2.1248
-1.87791
-1.62885
-1.37784
-1.12509
-0.870861
-0.615375
-0.358862
-0.10154
0.156372
0.414667
0.673133
0.931569
1.18977
1.44755
1.70471
1.96108
2.21646
2.47069
2.72361
2.97505
3.22489
3.47292
3.71894
3.96279
4.20436
4.44351
4.68013
4.91412
5.14537
5.37379
5.59932
5.82185
6.04128
6.25749
6.47041
6.67997
6.8861
7.08873
7.2878
7.48325
7.67498
7.86287
8.04681
8.22664
8.40225
8.57317
8.73985
8.89824
9.06214
9.17024
-7.44814
-7.45272
-7.45958
-7.46702
-7.4747
-7.48236
-7.48989
-7.49723
-7.50428
-7.51089
-7.51693
-7.52225
-7.52673
-7.53025
-7.53275
-7.53417
-7.53446
-7.53361
-7.53162
-7.5285
-7.52433
-7.51923
-7.51341
-7.50705
-7.50031
-7.49335
-7.48631
-7.47933
-7.47253
-7.4662
-7.46076
-7.45665
-7.45431
-7.4543
-7.4571
-7.46305
-7.47231
-7.48492
-7.50078
-7.51969
-7.54142
-7.56571
-7.59232
-7.62103
-7.65163
-7.68394
-7.71776
-7.75295
-7.78934
-7.82677
-7.86511
-7.90423
-7.944
-7.9843
-8.025
-8.06599
-8.10711
-8.14824
-8.18923
-8.22993
-8.27016
-8.30973
-8.34845
-8.38613
-8.42256
-8.45753
-8.4908
-8.52216
-8.55137
-8.57818
-8.60239
-8.62379
-8.64218
-8.65738
-8.66921
-8.67755
-8.68228
-8.68327
-8.68043
-8.67368
-8.66292
-8.64806
-8.62901
-8.60568
-8.57802
-8.54596
-8.5095
-8.46858
-8.42315
-8.37308
-8.31829
-8.25873
-8.19434
-8.12505
-8.05077
-7.97142
-7.88691
-7.79715
-7.7021
-7.60166
-7.4958
-7.38444
-7.26755
-7.14506
-7.01696
-6.8832
-6.74378
-6.5987
-6.44798
-6.29162
-6.12968
-5.96218
-5.7892
-5.6108
-5.42709
-5.23816
-5.04413
-4.84514
-4.64132
-4.43283
-4.21984
-4.00254
-3.7811
-3.55573
-3.32662
-3.09399
-2.85804
-2.61902
-2.37714
-2.13263
-1.88573
-1.63668
-1.38568
-1.13296
-0.878767
-0.623339
-0.366891
-0.109652
0.148175
0.406373
0.66474
0.923067
1.18116
1.43883
1.69588
1.95212
2.20739
2.4615
2.7143
2.96563
3.2154
3.46335
3.70925
3.95297
4.19441
4.43344
4.66994
4.90382
5.13497
5.36331
5.58877
5.81127
6.03065
6.2468
6.45965
6.66913
6.8752
7.07777
7.2768
7.4722
7.66389
7.85171
8.03552
8.21517
8.39049
8.56098
8.72709
8.88453
9.04781
9.15256
-7.43064
-7.43521
-7.44224
-7.45046
-7.45885
-7.46699
-7.4749
-7.48259
-7.49005
-7.49714
-7.50369
-7.50948
-7.51439
-7.51831
-7.52119
-7.52298
-7.52366
-7.52322
-7.52168
-7.51909
-7.51552
-7.51108
-7.50591
-7.50014
-7.4939
-7.48732
-7.48055
-7.4738
-7.46738
-7.46165
-7.45692
-7.45363
-7.45226
-7.45328
-7.45709
-7.46397
-7.47404
-7.48733
-7.50371
-7.52303
-7.54507
-7.56961
-7.59644
-7.62537
-7.65621
-7.68878
-7.7229
-7.75841
-7.79513
-7.83292
-7.87165
-7.91119
-7.95141
-7.99218
-8.03334
-8.07477
-8.11632
-8.15787
-8.19925
-8.24032
-8.28089
-8.3208
-8.35984
-8.3978
-8.43449
-8.46967
-8.5031
-8.53456
-8.56381
-8.5906
-8.6147
-8.63592
-8.65407
-8.66896
-8.68044
-8.68836
-8.69264
-8.6932
-8.68995
-8.68281
-8.67169
-8.65649
-8.63711
-8.61345
-8.58544
-8.55305
-8.51631
-8.47519
-8.42959
-8.3794
-8.32449
-8.26483
-8.20038
-8.13105
-8.05676
-7.9774
-7.89289
-7.80315
-7.7081
-7.60769
-7.50186
-7.39054
-7.27368
-7.15123
-7.02315
-6.88941
-6.75
-6.60492
-6.45419
-6.29783
-6.13586
-5.96833
-5.7953
-5.61684
-5.43306
-5.24406
-5.04995
-4.85087
-4.64696
-4.43838
-4.22531
-4.00793
-3.78643
-3.56099
-3.33181
-3.09911
-2.8631
-2.62401
-2.38208
-2.13756
-1.89066
-1.64162
-1.39064
-1.13795
-0.883811
-0.628449
-0.372081
-0.114931
0.142796
0.400887
0.659139
0.917346
1.17532
1.43285
1.68976
1.94587
2.20099
2.45496
2.70762
2.95883
3.20854
3.45642
3.70217
3.94573
4.18701
4.42589
4.66225
4.896
5.12703
5.35527
5.58066
5.80311
6.02244
6.2385
6.45125
6.66065
6.86664
7.06914
7.26811
7.46347
7.65512
7.84285
8.02652
8.20596
8.38099
8.55105
8.71658
8.87315
9.03577
9.1379
-7.40478
-7.40919
-7.41714
-7.42677
-7.43617
-7.4449
-7.45324
-7.46146
-7.46961
-7.47747
-7.48474
-7.49118
-7.49663
-7.50105
-7.50442
-7.50671
-7.50792
-7.50802
-7.50704
-7.50502
-7.50201
-7.4981
-7.49339
-7.48798
-7.482
-7.47563
-7.46908
-7.46265
-7.4566
-7.45127
-7.44708
-7.44449
-7.44394
-7.44585
-7.45053
-7.45822
-7.46899
-7.48283
-7.49965
-7.51928
-7.54156
-7.56631
-7.59336
-7.62254
-7.65368
-7.68661
-7.72116
-7.75713
-7.79437
-7.83272
-7.87206
-7.91223
-7.95312
-7.99456
-8.03643
-8.07857
-8.12085
-8.16312
-8.20521
-8.24695
-8.28816
-8.32867
-8.36829
-8.40678
-8.44394
-8.47952
-8.51329
-8.54498
-8.5743
-8.60099
-8.62485
-8.64573
-8.66347
-8.6779
-8.68882
-8.69614
-8.69985
-8.69988
-8.69616
-8.68863
-8.67718
-8.66168
-8.64199
-8.61799
-8.58957
-8.55674
-8.51967
-8.47837
-8.43266
-8.38234
-8.32732
-8.26757
-8.20305
-8.13369
-8.05939
-7.98005
-7.89554
-7.8058
-7.71075
-7.61037
-7.50457
-7.3933
-7.27648
-7.15408
-7.02601
-6.89229
-6.75289
-6.60783
-6.4571
-6.30075
-6.13877
-5.97122
-5.79816
-5.61967
-5.43584
-5.24677
-5.05259
-4.85343
-4.64947
-4.44084
-4.22773
-4.01031
-3.78877
-3.5633
-3.3341
-3.10137
-2.86532
-2.62618
-2.38425
-2.13974
-1.89289
-1.64389
-1.39295
-1.14034
-0.8863
-0.631044
-0.374804
-0.117784
0.139797
0.39774
0.655832
0.913878
1.17168
1.42904
1.68577
1.9417
2.19663
2.45042
2.70289
2.95396
3.20367
3.45156
3.69716
3.94052
4.18161
4.42032
4.65653
4.89013
5.12104
5.34918
5.5745
5.79696
6.01625
6.23219
6.44484
6.65414
6.86004
7.06248
7.26138
7.45672
7.64833
7.83597
8.01948
8.1987
8.37343
8.54306
8.70804
8.8638
9.02572
9.12592
-7.37175
-7.37648
-7.38595
-7.39739
-7.4079
-7.41736
-7.42647
-7.43541
-7.44427
-7.45302
-7.46135
-7.46877
-7.47492
-7.47982
-7.48368
-7.48653
-7.48831
-7.48899
-7.48856
-7.48704
-7.48448
-7.48093
-7.47647
-7.47124
-7.46541
-7.45917
-7.45275
-7.44644
-7.44059
-7.4356
-7.4319
-7.42993
-7.43008
-7.43273
-7.43812
-7.44643
-7.45771
-7.47196
-7.48908
-7.50897
-7.53149
-7.55647
-7.58376
-7.61322
-7.6447
-7.67803
-7.71302
-7.74951
-7.78735
-7.82637
-7.86645
-7.90742
-7.94913
-7.99143
-8.03418
-8.07724
-8.12045
-8.16363
-8.20662
-8.24922
-8.29125
-8.3325
-8.37277
-8.41183
-8.44947
-8.4854
-8.51939
-8.55112
-8.5803
-8.60662
-8.62994
-8.65019
-8.6673
-8.68104
-8.69111
-8.6975
-8.70046
-8.69997
-8.6959
-8.68816
-8.6766
-8.66101
-8.6412
-8.617
-8.5882
-8.55485
-8.51744
-8.47604
-8.43026
-8.37984
-8.32467
-8.26478
-8.20018
-8.13079
-8.0565
-7.97714
-7.8926
-7.80282
-7.70776
-7.60737
-7.5016
-7.39037
-7.27361
-7.15122
-7.02318
-6.88946
-6.75008
-6.60503
-6.45433
-6.29799
-6.13603
-5.96848
-5.7954
-5.61688
-5.43303
-5.24396
-5.04978
-4.85064
-4.64668
-4.43804
-4.22489
-4.00742
-3.78583
-3.56032
-3.3311
-3.0984
-2.86242
-2.62341
-2.38161
-2.13724
-1.89052
-1.64165
-1.39087
-1.13845
-0.884628
-0.629606
-0.373616
-0.11686
0.140444
0.398096
0.655888
0.913623
1.1711
1.42813
1.68453
1.94011
2.19469
2.44812
2.70023
2.95095
3.2005
3.4483
3.69368
3.9368
4.17767
4.41617
4.6522
4.88565
5.11642
5.34443
5.56972
5.79229
6.01163
6.22747
6.44001
6.64921
6.85504
7.05741
7.25627
7.45162
7.64324
7.8308
8.01415
8.19315
8.36758
8.53679
8.70124
8.85623
9.0174
9.11634
-7.33453
-7.34017
-7.35169
-7.36534
-7.37703
-7.3868
-7.39632
-7.4063
-7.41641
-7.42631
-7.43568
-7.4441
-7.45103
-7.45645
-7.46078
-7.46417
-7.46649
-7.46769
-7.46773
-7.4666
-7.46432
-7.46097
-7.45664
-7.45146
-7.4456
-7.43928
-7.4328
-7.42651
-7.42078
-7.41605
-7.41271
-7.41119
-7.41184
-7.41496
-7.42077
-7.4294
-7.44093
-7.45534
-7.47259
-7.49258
-7.51519
-7.5403
-7.56778
-7.59749
-7.62928
-7.66297
-7.6984
-7.73542
-7.77389
-7.81363
-7.85449
-7.89633
-7.93896
-7.98225
-8.02601
-8.07007
-8.11426
-8.15836
-8.20218
-8.24554
-8.28821
-8.33
-8.37069
-8.41005
-8.44786
-8.48384
-8.51772
-8.54919
-8.57785
-8.60328
-8.62549
-8.64473
-8.66098
-8.67387
-8.68264
-8.68751
-8.68936
-8.68828
-8.68403
-8.67639
-8.66507
-8.64977
-8.6302
-8.60629
-8.5781
-8.54563
-8.50887
-8.46769
-8.42193
-8.3714
-8.31609
-8.25605
-8.19132
-8.12182
-8.0474
-7.96792
-7.88325
-7.79333
-7.69815
-7.59767
-7.49183
-7.38053
-7.26372
-7.14127
-7.01316
-6.87937
-6.73994
-6.59483
-6.44409
-6.2877
-6.12569
-5.95809
-5.78495
-5.60638
-5.42248
-5.23337
-5.03918
-4.84003
-4.63605
-4.42739
-4.21419
-3.99666
-3.77499
-3.54944
-3.32021
-3.08754
-2.85166
-2.6128
-2.37116
-2.12694
-1.88037
-1.63167
-1.38112
-1.12896
-0.8754
-0.620682
-0.365008
-0.1086
0.148342
0.405607
0.662997
0.920307
1.17735
1.43392
1.68983
1.94491
2.19898
2.45184
2.70333
2.9533
3.20161
3.4482
3.69292
3.93559
4.17607
4.41421
4.6499
4.88303
5.11349
5.3412
5.56627
5.78881
6.00815
6.22386
6.43628
6.64539
6.85115
7.05347
7.25231
7.44774
7.6395
7.82705
8.01025
8.18904
8.36318
8.532
8.69595
8.85023
9.01061
9.10892
-7.29676
-7.30364
-7.31767
-7.33328
-7.34532
-7.35554
-7.36614
-7.37725
-7.38842
-7.39934
-7.40971
-7.41905
-7.42673
-7.43277
-7.43768
-7.44165
-7.44452
-7.44619
-7.44661
-7.44576
-7.44364
-7.44032
-7.4359
-7.43052
-7.42442
-7.41784
-7.41112
-7.40464
-7.3988
-7.39401
-7.39067
-7.38916
-7.38981
-7.3929
-7.39862
-7.40712
-7.41846
-7.43267
-7.4497
-7.4695
-7.492
-7.51709
-7.54467
-7.5746
-7.60669
-7.64078
-7.67671
-7.71432
-7.75348
-7.79401
-7.83572
-7.87842
-7.92195
-7.96611
-8.01073
-8.0556
-8.10051
-8.14524
-8.18959
-8.23335
-8.27631
-8.31826
-8.35898
-8.39827
-8.43588
-8.47159
-8.50512
-8.53609
-8.56388
-8.58755
-8.60742
-8.62468
-8.6397
-8.65226
-8.66171
-8.66762
-8.66989
-8.66874
-8.66437
-8.65666
-8.64533
-8.63004
-8.61051
-8.58676
-8.55914
-8.52757
-8.49143
-8.45043
-8.40468
-8.35412
-8.29877
-8.23871
-8.17392
-8.10433
-8.02982
-7.95026
-7.86551
-7.77556
-7.68036
-7.57988
-7.47404
-7.36276
-7.24595
-7.12352
-6.99544
-6.86169
-6.7223
-6.57725
-6.42654
-6.2702
-6.10823
-5.94067
-5.76757
-5.58904
-5.40518
-5.2161
-5.02193