/*--------------------------------*- C++ -*----------------------------------*\
  =========                 |
  \\      /  F ield         | OpenFOAM: The Open Source CFD Toolbox
   \\    /   O peration     | Website:  https://openfoam.org
    \\  /    A nd           | Version:  8
     \\/     M anipulation  |
\*---------------------------------------------------------------------------*/
FoamFile
{
    version     2.0;
    format      ascii;
    class       surfaceScalarField;
    location    "600";
    object      phi;
}
// * * * * * * * * * * * * * * * * * * * * * * * * * * * * * * * * * * * * * //

dimensions      [0 3 -1 0 0 0 0];

internalField   nonuniform List<scalar> 
24170
(
3.00826e-06
1.25664e-07
2.86145e-06
1.46989e-07
2.73265e-06
1.29003e-07
2.61944e-06
1.13342e-07
2.52034e-06
9.92677e-08
2.43553e-06
8.49814e-08
2.3646e-06
7.10462e-08
2.30551e-06
5.90508e-08
2.25605e-06
4.93925e-08
2.21442e-06
4.15575e-08
2.17968e-06
3.47264e-08
2.14974e-06
2.98956e-08
2.12258e-06
2.71476e-08
2.09947e-06
2.30915e-08
2.08244e-06
1.70283e-08
2.07173e-06
1.07436e-08
2.06554e-06
6.25378e-09
-8.97843e-10
2.06651e-06
3.50727e-06
7.49518e-08
3.54331e-06
1.11651e-07
3.56018e-06
1.12759e-07
3.56129e-06
1.12747e-07
3.55049e-06
1.10493e-07
3.53018e-06
1.05595e-07
3.5033e-06
9.81454e-08
3.4744e-06
8.80659e-08
3.4443e-06
7.96001e-08
3.41302e-06
7.29197e-08
3.38225e-06
6.55919e-08
3.35287e-06
5.92834e-08
3.32587e-06
5.41542e-08
3.30021e-06
4.87116e-08
3.27442e-06
4.27711e-08
3.24847e-06
3.66335e-08
3.22289e-06
3.17762e-08
2.49001e-08
3.19699e-06
3.83169e-06
5.54833e-08
3.8507e-06
9.25741e-08
3.86551e-06
9.79132e-08
3.87852e-06
9.97294e-08
3.88896e-06
1.00093e-07
3.89685e-06
9.77762e-08
3.9022e-06
9.2844e-08
3.90438e-06
8.58498e-08
3.90422e-06
7.96994e-08
3.90239e-06
7.46907e-08
3.89874e-06
6.9237e-08
3.894e-06
6.40014e-08
3.88891e-06
5.92467e-08
3.88317e-06
5.44402e-08
3.87656e-06
4.93853e-08
3.86911e-06
4.4088e-08
3.8616e-06
3.931e-08
3.29249e-08
3.8536e-06
4.21627e-06
4.38258e-08
4.22982e-06
7.94177e-08
4.2397e-06
8.83822e-08
4.24837e-06
9.13864e-08
4.25619e-06
9.25397e-08
4.26338e-06
9.08232e-08
4.26979e-06
8.65896e-08
4.27482e-06
8.09359e-08
4.27892e-06
7.56739e-08
4.28259e-06
7.11044e-08
4.28557e-06
6.63005e-08
4.28802e-06
6.15948e-08
4.29012e-06
5.71529e-08
4.29182e-06
5.27268e-08
4.29308e-06
4.80976e-08
4.29385e-06
4.32974e-08
4.29455e-06
3.85794e-08
3.30162e-08
4.29437e-06
4.64637e-06
3.47832e-08
4.6576e-06
6.80624e-08
4.66641e-06
7.94821e-08
4.67403e-06
8.36903e-08
4.68104e-06
8.55062e-08
4.68751e-06
8.43635e-08
4.69331e-06
8.08065e-08
4.69816e-06
7.60599e-08
4.70238e-06
7.14154e-08
4.70636e-06
6.71014e-08
4.70999e-06
6.26611e-08
4.71332e-06
5.82523e-08
4.71645e-06
5.40199e-08
4.71936e-06
4.97977e-08
4.72202e-06
4.54387e-08
4.72438e-06
4.09349e-08
4.72656e-06
3.63935e-08
3.15944e-08
4.7281e-06
5.12183e-06
2.75752e-08
5.13174e-06
5.84191e-08
5.1402e-06
7.12581e-08
5.14773e-06
7.63758e-08
5.15476e-06
7.86809e-08
5.16122e-06
7.80759e-08
5.16697e-06
7.51895e-08
5.17193e-06
7.11935e-08
5.17635e-06
6.70741e-08
5.18049e-06
6.30196e-08
5.18433e-06
5.88645e-08
5.18791e-06
5.46915e-08
5.1913e-06
5.06285e-08
5.19451e-06
4.65694e-08
5.1975e-06
4.24244e-08
5.20021e-06
3.81798e-08
5.20269e-06
3.39316e-08
2.95575e-08
5.20462e-06
5.6467e-06
2.18852e-08
5.65561e-06
4.93616e-08
5.66383e-06
6.28994e-08
5.6714e-06
6.87236e-08
5.67861e-06
7.14447e-08
5.68527e-06
7.14192e-08
5.69125e-06
6.92198e-08
5.69651e-06
6.59206e-08
5.70127e-06
6.2298e-08
5.7057e-06
5.85814e-08
5.70983e-06
5.47309e-08
5.71368e-06
5.08399e-08
5.7173e-06
4.69794e-08
5.72073e-06
4.31278e-08
5.72391e-06
3.92201e-08
5.72682e-06
3.52619e-08
5.7294e-06
3.13025e-08
2.7439e-08
5.7316e-06
4.40941e-06
1.85821e-08
4.41525e-06
4.3678e-08
4.4211e-06
5.71888e-08
4.42658e-06
6.33834e-08
4.43183e-06
6.63255e-08
4.43674e-06
6.66326e-08
4.4412e-06
6.48537e-08
4.44521e-06
6.19804e-08
4.44887e-06
5.86792e-08
4.45229e-06
5.52077e-08
4.45546e-06
5.15759e-08
4.45842e-06
4.78844e-08
4.4612e-06
4.41951e-08
4.4638e-06
4.05154e-08
4.46621e-06
3.6795e-08
4.46838e-06
3.3063e-08
4.47032e-06
2.93716e-08
2.5752e-08
4.47198e-06
5.14284e-06
1.56107e-08
5.14865e-06
3.77248e-08
5.15476e-06
5.09866e-08
5.16066e-06
5.74353e-08
5.16641e-06
6.0585e-08
5.17184e-06
6.12165e-08
5.17683e-06
5.98907e-08
5.18137e-06
5.74476e-08
5.18556e-06
5.45071e-08
5.18946e-06
5.13116e-08
5.19309e-06
4.7942e-08
5.19649e-06
4.44799e-08
5.19966e-06
4.10045e-08
5.20263e-06
3.75159e-08
5.20537e-06
3.40398e-08
5.20784e-06
3.05507e-08
5.21005e-06
2.71287e-08
2.38578e-08
5.21198e-06
5.99845e-06
1.29119e-08
6.00413e-06
3.20919e-08
6.01043e-06
4.47412e-08
6.01671e-06
5.1229e-08
6.02291e-06
5.44558e-08
6.02885e-06
5.53413e-08
6.03439e-06
5.44167e-08
6.03948e-06
5.23831e-08
6.04422e-06
4.9802e-08
6.04864e-06
4.69043e-08
6.05277e-06
4.38142e-08
6.05663e-06
4.06091e-08
6.06024e-06
3.73617e-08
6.06362e-06
3.41504e-08
6.06672e-06
3.08992e-08
6.06954e-06
2.77227e-08
6.07207e-06
2.46106e-08
2.16414e-08
6.07431e-06
6.99663e-06
1.05655e-08
7.00205e-06
2.66178e-08
7.00848e-06
3.82969e-08
7.01508e-06
4.46488e-08
7.0217e-06
4.78608e-08
7.02815e-06
4.8945e-08
7.03422e-06
4.8373e-08
7.03989e-06
4.67551e-08
7.04519e-06
4.45191e-08
7.05016e-06
4.19567e-08
7.05481e-06
3.9157e-08
7.05915e-06
3.62402e-08
7.06325e-06
3.33033e-08
7.06704e-06
3.0335e-08
7.07054e-06
2.74198e-08
7.07372e-06
2.45262e-08
7.07661e-06
2.17493e-08
1.90817e-08
7.07918e-06
8.1611e-06
8.44093e-09
8.16621e-06
2.15079e-08
8.17267e-06
3.18491e-08
8.17954e-06
3.77981e-08
8.18655e-06
4.08815e-08
8.19347e-06
4.20556e-08
8.2001e-06
4.1791e-08
8.20634e-06
4.05021e-08
8.21223e-06
3.86592e-08
8.21776e-06
3.64061e-08
8.22295e-06
3.39652e-08
8.22783e-06
3.13722e-08
8.2324e-06
2.87589e-08
8.23666e-06
2.61156e-08
8.24056e-06
2.35192e-08
8.24414e-06
2.09617e-08
8.24739e-06
1.8514e-08
1.6182e-08
8.25033e-06
9.51961e-06
6.57488e-09
9.52436e-06
1.67612e-08
9.53076e-06
2.54677e-08
9.53784e-06
3.07503e-08
9.5452e-06
3.35612e-08
9.55258e-06
3.47239e-08
9.55973e-06
3.46286e-08
9.56659e-06
3.36893e-08
9.57306e-06
3.21399e-08
9.5792e-06
3.02885e-08
9.58495e-06
2.81685e-08
9.59041e-06
2.59852e-08
9.59549e-06
2.36867e-08
9.60025e-06
2.14382e-08
9.60458e-06
1.915e-08
9.6086e-06
1.69798e-08
9.61223e-06
1.48476e-08
1.28712e-08
9.61554e-06
1.11044e-05
4.85686e-09
1.11089e-05
1.23102e-08
1.11151e-05
1.91743e-08
1.11224e-05
2.35219e-08
1.113e-05
2.59082e-08
1.11379e-05
2.69327e-08
1.11456e-05
2.69515e-08
1.1153e-05
2.62264e-08
1.11601e-05
2.50288e-08
1.11669e-05
2.34958e-08
1.11733e-05
2.17951e-08
1.11793e-05
1.99534e-08
1.1185e-05
1.80874e-08
1.11902e-05
1.61677e-08
1.11951e-05
1.43081e-08
1.11995e-05
1.24745e-08
1.12037e-05
1.07554e-08
9.10569e-09
1.12073e-05
1.29532e-05
3.26053e-09
1.29574e-05
8.06373e-09
1.29636e-05
1.29205e-08
1.2971e-05
1.61346e-08
1.2979e-05
1.7913e-08
1.29872e-05
1.86835e-08
1.29955e-05
1.86978e-08
1.30036e-05
1.81553e-08
1.30114e-05
1.72301e-08
1.30188e-05
1.605e-08
1.30259e-05
1.47178e-08
1.30326e-05
1.32887e-08
1.30389e-05
1.18147e-08
1.30447e-05
1.03279e-08
1.30501e-05
8.87121e-09
1.30551e-05
7.46365e-09
1.30597e-05
6.13358e-09
4.88603e-09
1.30639e-05
1.511e-05
1.7188e-09
1.51141e-05
3.89046e-09
1.51203e-05
6.67094e-09
1.51278e-05
8.52081e-09
1.51362e-05
9.52358e-09
1.5145e-05
9.91181e-09
1.51539e-05
9.81904e-09
1.51627e-05
9.3829e-09
1.51712e-05
8.69245e-09
1.51795e-05
7.84265e-09
1.51873e-05
6.8873e-09
1.51947e-05
5.87678e-09
1.52017e-05
4.83842e-09
1.52082e-05
3.8049e-09
1.52142e-05
2.79747e-09
1.52199e-05
1.83633e-09
1.5225e-05
9.33729e-10
1.01945e-10
1.52298e-05
1.7626e-05
1.64019e-10
1.76302e-05
-3.27749e-10
1.76367e-05
2.18683e-10
1.76447e-05
4.96224e-10
1.76537e-05
5.69976e-10
1.76631e-05
4.0349e-10
1.76729e-05
1.41738e-10
1.76825e-05
-2.85329e-10
1.7692e-05
-7.40577e-10
1.77011e-05
-1.29161e-09
1.77099e-05
-1.8306e-09
1.77182e-05
-2.41602e-09
1.77259e-05
-2.96759e-09
1.77333e-05
-3.52854e-09
1.77401e-05
-4.04085e-09
1.77465e-05
-4.53507e-09
1.77523e-05
-4.97213e-09
-5.37138e-09
1.77578e-05
1.78277e-05
-1.32809e-09
1.78318e-05
-4.31441e-09
1.7838e-05
-6.00354e-09
1.78459e-05
-7.22245e-09
1.78546e-05
-8.18306e-09
1.7864e-05
-8.82873e-09
1.78734e-05
-9.38723e-09
1.7883e-05
-9.7288e-09
1.78922e-05
-1.00628e-08
1.79013e-05
-1.02443e-08
1.79098e-05
-1.04559e-08
1.79181e-05
-1.05583e-08
1.79257e-05
-1.06969e-08
1.7933e-05
-1.07504e-08
1.79397e-05
-1.08308e-08
1.79461e-05
-1.08389e-08
1.79519e-05
-1.0864e-08
-1.0823e-08
1.79574e-05
1.58828e-05
-2.73954e-09
1.58866e-05
-8.09223e-09
1.58925e-05
-1.17419e-08
1.58996e-05
-1.43406e-08
1.59077e-05
-1.60696e-08
1.5916e-05
-1.72298e-08
1.59247e-05
-1.78825e-08
1.59331e-05
-1.82614e-08
1.59415e-05
-1.83218e-08
1.59494e-05
-1.82804e-08
1.59572e-05
-1.80651e-08
1.59643e-05
-1.78345e-08
1.59712e-05
-1.75025e-08
1.59776e-05
-1.71887e-08
1.59836e-05
-1.6813e-08
1.59892e-05
-1.64652e-08
1.59945e-05
-1.60735e-08
-1.57078e-08
1.59993e-05
1.41501e-05
-4.1963e-09
1.41541e-05
-1.19784e-08
1.41599e-05
-1.74772e-08
1.41668e-05
-2.12087e-08
1.41744e-05
-2.36021e-08
1.41823e-05
-2.50499e-08
1.41902e-05
-2.58258e-08
1.41981e-05
-2.60442e-08
1.42057e-05
-2.59213e-08
1.4213e-05
-2.55268e-08
1.42199e-05
-2.49931e-08
1.42265e-05
-2.43447e-08
1.42326e-05
-2.36523e-08
1.42383e-05
-2.29227e-08
1.42437e-05
-2.2198e-08
1.42487e-05
-2.1466e-08
1.42534e-05
-2.07588e-08
-2.00502e-08
1.42578e-05
1.26066e-05
-5.80522e-09
1.26109e-05
-1.62324e-08
1.26169e-05
-2.34513e-08
1.26238e-05
-2.80827e-08
1.26311e-05
-3.09392e-08
1.26387e-05
-3.25904e-08
1.26463e-05
-3.33216e-08
1.26536e-05
-3.3365e-08
1.26607e-05
-3.29426e-08
1.26674e-05
-3.221e-08
1.26737e-05
-3.13092e-08
1.26797e-05
-3.0272e-08
1.26853e-05
-2.92113e-08
1.26905e-05
-2.81046e-08
1.26953e-05
-2.704e-08
1.26998e-05
-2.59706e-08
1.2704e-05
-2.49612e-08
-2.39649e-08
1.27079e-05
1.12317e-05
-7.67598e-09
1.12364e-05
-2.10282e-08
1.12428e-05
-2.97727e-08
1.12497e-05
-3.50533e-08
1.1257e-05
-3.82084e-08
1.12644e-05
-3.99348e-08
1.12716e-05
-4.05274e-08
1.12785e-05
-4.02941e-08
1.12852e-05
-3.952e-08
1.12914e-05
-3.84246e-08
1.12973e-05
-3.71139e-08
1.13027e-05
-3.57181e-08
1.13078e-05
-3.42531e-08
1.13125e-05
-3.28275e-08
1.13169e-05
-3.13994e-08
1.1321e-05
-3.00581e-08
1.13248e-05
-2.87351e-08
-2.75097e-08
1.13283e-05
1.00069e-05
-9.96473e-09
1.00124e-05
-2.65693e-08
1.00191e-05
-3.65194e-08
1.00262e-05
-4.21257e-08
1.00334e-05
-4.54413e-08
1.00406e-05
-4.71353e-08
1.00475e-05
-4.74909e-08
1.00542e-05
-4.69014e-08
1.00604e-05
-4.57369e-08
1.00662e-05
-4.42326e-08
1.00717e-05
-4.25283e-08
1.00767e-05
-4.07242e-08
1.00814e-05
-3.89062e-08
1.00857e-05
-3.71126e-08
1.00897e-05
-3.53956e-08
1.00934e-05
-3.37386e-08
1.00969e-05
-3.21872e-08
-3.06923e-08
1.01001e-05
8.91606e-06
-1.29502e-08
8.9224e-06
-3.29339e-08
8.92948e-06
-4.3613e-08
8.93663e-06
-4.92941e-08
8.94385e-06
-5.26717e-08
8.95093e-06
-5.4228e-08
8.95768e-06
-5.42419e-08
8.96402e-06
-5.32479e-08
8.96994e-06
-5.16559e-08
8.97545e-06
-4.97249e-08
8.98055e-06
-4.76027e-08
8.98525e-06
-4.54006e-08
8.98958e-06
-4.32111e-08
8.99356e-06
-4.10801e-08
8.99725e-06
-3.9045e-08
9.00065e-06
-3.71258e-08
9.00381e-06
-3.53151e-08
-3.36204e-08
9.00673e-06
7.94469e-06
-1.69729e-08
7.95195e-06
-4.02338e-08
7.95936e-06
-5.10613e-08
7.96664e-06
-5.65828e-08
7.97393e-06
-5.99631e-08
7.98097e-06
-6.12794e-08
7.98759e-06
-6.08824e-08
7.99376e-06
-5.94145e-08
7.99947e-06
-5.73651e-08
8.00475e-06
-5.49912e-08
8.0096e-06
-5.24393e-08
8.01405e-06
-4.98385e-08
8.01812e-06
-4.7262e-08
8.02184e-06
-4.47855e-08
8.02527e-06
-4.24424e-08
8.02841e-06
-4.02522e-08
8.03132e-06
-3.82062e-08
-3.62851e-08
8.03402e-06
7.0799e-06
-2.2556e-08
7.0882e-06
-4.85681e-08
7.09609e-06
-5.89385e-08
7.10372e-06
-6.42339e-08
7.11128e-06
-6.75184e-08
7.11848e-06
-6.84922e-08
7.12519e-06
-6.75932e-08
7.1314e-06
-6.56466e-08
7.13712e-06
-6.30783e-08
7.14237e-06
-6.02271e-08
7.14715e-06
-5.72182e-08
7.15151e-06
-5.41726e-08
7.15546e-06
-5.12055e-08
7.15903e-06
-4.83434e-08
7.16228e-06
-4.56761e-08
7.16525e-06
-4.31994e-08
7.16797e-06
-4.09068e-08
-3.87699e-08
7.17048e-06
6.31049e-06
-3.05375e-08
6.32043e-06
-5.84316e-08
6.32953e-06
-6.81229e-08
6.33839e-06
-7.30976e-08
6.34702e-06
-7.61446e-08
6.35511e-06
-7.65879e-08
6.36256e-06
-7.50727e-08
6.36941e-06
-7.24521e-08
6.3756e-06
-6.9304e-08
6.3812e-06
-6.58265e-08
6.38623e-06
-6.2229e-08
6.39069e-06
-5.86394e-08
6.39464e-06
-5.51172e-08
6.39809e-06
-5.1801e-08
6.40112e-06
-4.86968e-08
6.4038e-06
-4.58607e-08
6.40616e-06
-4.32481e-08
-4.08425e-08
6.40825e-06
5.62869e-06
-4.43089e-08
5.64375e-06
-7.34441e-08
5.65752e-06
-8.19434e-08
5.67093e-06
-8.65299e-08
5.68356e-06
-8.87742e-08
5.69484e-06
-8.78861e-08
5.70468e-06
-8.48957e-08
5.71307e-06
-8.08457e-08
5.72001e-06
-7.6272e-08
5.72561e-06
-7.14398e-08
5.72995e-06
-6.6579e-08
5.73316e-06
-6.18126e-08
5.73533e-06
-5.72793e-08
5.73657e-06
-5.30425e-08
5.73704e-06
-4.91667e-08
5.73689e-06
-4.57048e-08
5.73624e-06
-4.25948e-08
-4.00432e-08
5.73547e-06
5.04366e-06
-8.56442e-08
5.08081e-06
-1.1053e-07
5.10876e-06
-1.09947e-07
5.12882e-06
-1.06617e-07
5.14073e-06
-1.00693e-07
5.14542e-06
-9.25895e-08
5.14428e-06
-8.37468e-08
5.13852e-06
-7.50866e-08
5.12916e-06
-6.69469e-08
5.11713e-06
-5.94248e-08
5.10312e-06
-5.2567e-08
5.08771e-06
-4.63827e-08
5.07131e-06
-4.08668e-08
5.05427e-06
-3.60094e-08
5.0369e-06
-3.18035e-08
5.01949e-06
-2.82977e-08
5.00245e-06
-2.55402e-08
-2.37884e-08
4.98621e-06
4.37091e-06
4.26037e-06
4.15042e-06
4.04381e-06
3.94311e-06
3.85052e-06
3.76678e-06
3.69169e-06
3.62474e-06
3.56531e-06
3.51275e-06
3.46637e-06
3.4255e-06
3.38949e-06
3.35768e-06
3.32939e-06
3.30385e-06
3.28007e-06
-8.24083e-09
8.25641e-09
-2.22717e-08
1.40359e-08
-3.75962e-08
1.53493e-08
-5.08079e-08
1.32103e-08
-5.67241e-08
5.94326e-09
-4.9364e-08
-7.36378e-09
-2.65508e-08
-2.27846e-08
9.29557e-09
-3.58489e-08
5.40919e-08
-4.47684e-08
1.02993e-07
-4.89081e-08
1.51604e-07
-4.85863e-08
1.96764e-07
-4.51679e-08
2.36509e-07
-3.97214e-08
2.69537e-07
-3.30367e-08
2.95197e-07
-2.56375e-08
3.13018e-07
-1.78286e-08
3.22782e-07
-9.74609e-09
3.24125e-07
-1.34672e-09
3.16891e-07
7.24424e-09
3.01261e-07
1.56348e-08
2.77863e-07
2.34033e-08
2.47713e-07
3.01665e-08
2.12204e-07
3.5514e-08
1.73236e-07
3.89904e-08
1.33087e-07
4.01511e-08
9.44179e-08
3.86901e-08
5.98146e-08
3.45989e-08
3.14605e-08
2.83709e-08
1.03888e-08
2.10511e-08
-3.45889e-09
1.38708e-08
-1.10338e-08
7.52687e-09
-1.25777e-08
1.59424e-09
-8.01458e-09
-4.63528e-09
4.09284e-09
-1.20224e-08
2.48969e-08
-2.08879e-08
5.43739e-08
-2.94042e-08
8.81065e-08
-3.38112e-08
1.20189e-07
-3.20648e-08
1.45135e-07
-2.50092e-08
1.60057e-07
-1.49615e-08
1.65318e-07
-5.31356e-09
1.63864e-07
1.37427e-09
1.59354e-07
4.46491e-09
1.55405e-07
3.84979e-09
1.53629e-07
1.72956e-09
1.46904e-07
6.62053e-09
1.26281e-07
2.05624e-08
8.39823e-08
4.22302e-08
1.59232e-08
6.80189e-08
-7.50463e-08
9.09158e-08
-1.84273e-07
1.09261e-07
-3.09251e-07
1.24887e-07
-4.46458e-07
1.37257e-07
-5.8928e-07
1.42761e-07
-7.34173e-07
1.44926e-07
-8.79887e-07
1.4573e-07
-1.02213e-06
1.42278e-07
-1.15756e-06
1.35464e-07
-1.28469e-06
1.27156e-07
-1.40293e-06
1.18264e-07
-1.5126e-06
1.09689e-07
-1.61272e-06
1.00135e-07
-1.70422e-06
9.14986e-08
-1.78857e-06
8.43645e-08
-1.86596e-06
7.7392e-08
-1.93721e-06
7.12577e-08
-2.00305e-06
6.58436e-08
-2.06412e-06
6.10825e-08
-2.12102e-06
5.69018e-08
-2.17423e-06
5.32153e-08
-2.22417e-06
4.995e-08
-2.27119e-06
4.70325e-08
-2.31559e-06
4.44032e-08
-2.35758e-06
4.20098e-08
-2.39738e-06
3.98073e-08
-2.43513e-06
3.77621e-08
-2.47096e-06
3.58419e-08
-2.50497e-06
3.4027e-08
-2.53726e-06
3.22939e-08
-2.56787e-06
3.06334e-08
-2.5969e-06
2.90264e-08
-2.62436e-06
2.74713e-08
-2.65032e-06
2.59503e-08
-2.67477e-06
2.44667e-08
-2.69779e-06
2.30031e-08
-2.71933e-06
2.15665e-08
-2.73948e-06
2.01397e-08
-2.7582e-06
1.87313e-08
-2.77555e-06
1.7328e-08
-2.79151e-06
1.5925e-08
-2.80605e-06
1.45197e-08
-2.81915e-06
1.31058e-08
-2.83081e-06
1.16718e-08
-2.84099e-06
1.02106e-08
-2.84968e-06
8.70872e-09
-2.85682e-06
7.15939e-09
-2.86236e-06
5.54826e-09
-2.86621e-06
3.86299e-09
-2.86832e-06
2.10196e-09
-2.86867e-06
3.37503e-10
-2.86744e-06
-1.24852e-09
-2.86483e-06
-2.63336e-09
-2.8609e-06
-3.94776e-09
-2.85568e-06
-5.24726e-09
-2.84916e-06
-6.54377e-09
-2.84134e-06
-7.84719e-09
-2.83221e-06
-9.15158e-09
-2.82177e-06
-1.04637e-08
-2.81001e-06
-1.17744e-08
-2.79693e-06
-1.30908e-08
-2.78253e-06
-1.44025e-08
-2.76683e-06
-1.57171e-08
-2.7498e-06
-1.70237e-08
-2.73147e-06
-1.83298e-08
-2.71183e-06
-1.96247e-08
-2.6909e-06
-2.09152e-08
-2.66868e-06
-2.21916e-08
-2.6452e-06
-2.34594e-08
-2.62046e-06
-2.4711e-08
-2.59448e-06
-2.59497e-08
-2.56727e-06
-2.71701e-08
-2.53886e-06
-2.83734e-08
-2.50926e-06
-2.95569e-08
-2.4785e-06
-3.07191e-08
-2.44659e-06
-3.18598e-08
-2.41357e-06
-3.29751e-08
-2.37946e-06
-3.40671e-08
-2.34429e-06
-3.51296e-08
-2.30809e-06
-3.61648e-08
-2.27089e-06
-3.71717e-08
-2.23272e-06
-3.81495e-08
-2.19362e-06
-3.90909e-08
-2.15362e-06
-3.99912e-08
-2.11277e-06
-4.08268e-08
-2.07114e-06
-4.1607e-08
-2.0288e-06
-4.23138e-08
-1.98582e-06
-4.29781e-08
-1.94209e-06
-4.37361e-08
-1.89758e-06
-4.45214e-08
-1.85238e-06
-4.51925e-08
-1.80654e-06
-4.58236e-08
-1.76011e-06
-4.64126e-08
-1.71313e-06
-4.69742e-08
-1.66563e-06
-4.75005e-08
-1.61765e-06
-4.80001e-08
-1.56921e-06
-4.84658e-08
-1.52035e-06
-4.8906e-08
-1.47109e-06
-4.93131e-08
-1.42146e-06
-4.96964e-08
-1.37147e-06
-5.00408e-08
-1.32116e-06
-5.03589e-08
-1.27056e-06
-5.06396e-08
-1.21971e-06
-5.08888e-08
-1.16864e-06
-5.11076e-08
-1.11738e-06
-5.12957e-08
-1.06595e-06
-5.14604e-08
-1.01437e-06
-5.16044e-08
-9.62667e-07
-5.17341e-08
-9.10841e-07
-5.18541e-08
-8.589e-07
-5.19689e-08
-8.06847e-07
-5.20811e-08
-7.54684e-07
-5.2192e-08
-7.02413e-07
-5.22999e-08
-6.50038e-07
-5.24039e-08
-5.97563e-07
-5.25033e-08
-5.4499e-07
-5.26006e-08
-4.92316e-07
-5.26984e-08
-4.39539e-07
-5.28012e-08
-3.8665e-07
-5.29096e-08
-3.33647e-07
-5.3024e-08
-2.80531e-07
-5.31334e-08
-2.27329e-07
-5.32208e-08
-1.74089e-07
-5.32546e-08
-1.20929e-07
-5.31777e-08
-6.80427e-08
-5.28981e-08
-1.59078e-08
-5.21506e-08
3.48844e-08
-5.08011e-08
8.26128e-08
-4.77417e-08
1.26546e-07
-4.39391e-08
-1.92393e-08
1.45769e-07
-3.44775e-09
1.17335e-08
-9.48393e-09
2.00722e-08
-1.22381e-08
1.81601e-08
-4.82647e-09
5.80297e-09
1.78875e-08
-1.67189e-08
5.51005e-08
-4.45714e-08
1.02509e-07
-7.01669e-08
1.54535e-07
-8.78718e-08
2.06069e-07
-9.62857e-08
2.53773e-07
-9.66118e-08
2.9618e-07
-9.09799e-08
3.32563e-07
-8.15528e-08
3.62845e-07
-6.99895e-08
3.87191e-07
-5.73853e-08
4.05965e-07
-4.43991e-08
4.19524e-07
-3.13894e-08
4.28318e-07
-1.85293e-08
4.32881e-07
-5.90977e-09
4.33624e-07
6.50744e-09
4.30433e-07
1.8831e-08
4.22834e-07
3.1007e-08
4.10234e-07
4.27778e-08
3.92067e-07
5.36863e-08
3.68008e-07
6.30634e-08
3.38096e-07
7.00685e-08
3.02992e-07
7.38049e-08
2.64063e-07
7.35292e-08
2.23532e-07
6.89154e-08
1.84353e-07
6.02203e-08
1.50076e-07
4.81689e-08
1.24007e-07
3.35694e-08
1.08674e-07
1.69743e-08
1.05224e-07
-1.22688e-09
1.13559e-07
-2.02891e-08
1.31277e-07
-3.86461e-08
1.53217e-07
-5.12944e-08
1.7207e-07
-5.26977e-08
1.83257e-07
-4.32421e-08
1.85139e-07
-2.69251e-08
1.77779e-07
-7.64061e-09
1.62731e-07
9.68484e-09
1.4115e-07
2.28642e-08
1.07364e-07
3.81983e-08
5.11674e-08
5.99333e-08
-3.58604e-08
8.8709e-08
-1.53056e-07
1.23766e-07
-2.91903e-07
1.59389e-07
-4.42603e-07
1.92919e-07
-5.98238e-07
2.23639e-07
-7.56199e-07
2.48858e-07
-9.13951e-07
2.67004e-07
-1.06754e-06
2.78445e-07
-1.21312e-06
2.82837e-07
-1.34982e-06
2.79448e-07
-1.47484e-06
2.69953e-07
-1.58606e-06
2.56969e-07
-1.68467e-06
2.40898e-07
-1.77212e-06
2.22932e-07
-1.84957e-06
2.0462e-07
-1.91819e-06
1.86895e-07
-1.97903e-06
1.70538e-07
-2.0343e-06
1.55412e-07
-2.08466e-06
1.41872e-07
-2.13053e-06
1.30239e-07
-2.1731e-06
1.19961e-07
-2.21284e-06
1.11002e-07
-2.25018e-06
1.03184e-07
-2.28543e-06
9.63384e-08
-2.31883e-06
9.03056e-08
-2.35055e-06
8.49447e-08
-2.38073e-06
8.01361e-08
-2.40947e-06
7.57766e-08
-2.43684e-06
7.17809e-08
-2.4629e-06
6.80791e-08
-2.48769e-06
6.46139e-08
-2.51126e-06
6.134e-08
-2.53363e-06
5.822e-08
-2.55482e-06
5.52259e-08
-2.57485e-06
5.23331e-08
-2.59373e-06
4.95248e-08
-2.61149e-06
4.67838e-08
-2.62811e-06
4.41008e-08
-2.64363e-06
4.14622e-08
-2.65802e-06
3.8863e-08
-2.67131e-06
3.62914e-08
-2.68348e-06
3.37452e-08
-2.69455e-06
3.12141e-08
-2.70451e-06
2.86967e-08
-2.71339e-06
2.6184e-08
-2.72116e-06
2.36715e-08
-2.72781e-06
2.11536e-08
-2.73332e-06
1.8626e-08
-2.73772e-06
1.60829e-08
-2.74101e-06
1.35196e-08
-2.74321e-06
1.09322e-08
-2.74436e-06
8.32287e-09
-2.7445e-06
5.69475e-09
-2.7437e-06
3.06364e-09
-2.74206e-06
4.59671e-10
-2.73965e-06
-2.08138e-09
-2.73633e-06
-4.58988e-09
-2.73186e-06
-7.11354e-09
-2.72618e-06
-9.65316e-09
-2.71924e-06
-1.22028e-08
-2.71104e-06
-1.47643e-08
-2.70157e-06
-1.73377e-08
-2.69082e-06
-1.99212e-08
-2.67878e-06
-2.25138e-08
-2.66546e-06
-2.51116e-08
-2.65084e-06
-2.77136e-08
-2.63494e-06
-3.03145e-08
-2.61774e-06
-3.29138e-08
-2.59926e-06
-3.55053e-08
-2.5795e-06
-3.80886e-08
-2.55846e-06
-4.06568e-08
-2.53616e-06
-4.32099e-08
-2.51259e-06
-4.5741e-08
-2.48778e-06
-4.82501e-08
-2.46174e-06
-5.07304e-08
-2.43448e-06
-5.31821e-08
-2.40603e-06
-5.5599e-08
-2.37639e-06
-5.79808e-08
-2.3456e-06
-6.03221e-08
-2.31366e-06
-6.26218e-08
-2.28062e-06
-6.48756e-08
-2.24648e-06
-6.70814e-08
-2.21128e-06
-6.92356e-08
-2.17505e-06
-7.13353e-08
-2.13781e-06
-7.33778e-08
-2.0996e-06
-7.53628e-08
-2.06045e-06
-7.72859e-08
-2.0204e-06
-7.91403e-08
-1.97947e-06
-8.0916e-08
-1.93767e-06
-8.26054e-08
-1.89504e-06
-8.42179e-08
-1.85159e-06
-8.57557e-08
-1.80733e-06
-8.72408e-08
-1.76235e-06
-8.87234e-08
-1.71671e-06
-9.01613e-08
-1.6704e-06
-9.14913e-08
-1.62347e-06
-9.27406e-08
-1.57596e-06
-9.3916e-08
-1.5279e-06
-9.50281e-08
-1.47933e-06
-9.60752e-08
-1.43028e-06
-9.7062e-08
-1.38078e-06
-9.79872e-08
-1.33086e-06
-9.8855e-08
-1.28055e-06
-9.96624e-08
-1.22987e-06
-1.00416e-07
-1.17884e-06
-1.01105e-07
-1.12749e-06
-1.01736e-07
-1.07585e-06
-1.02302e-07
-1.02396e-06
-1.02804e-07
-9.71839e-07
-1.03245e-07
-9.19526e-07
-1.03628e-07
-8.67042e-07
-1.03961e-07
-8.14408e-07
-1.04255e-07
-7.61638e-07
-1.04519e-07
-7.08745e-07
-1.04763e-07
-6.55734e-07
-1.04995e-07
-6.02609e-07
-1.05223e-07
-5.4937e-07
-1.05448e-07
-4.96019e-07
-1.05668e-07
-4.42558e-07
-1.05882e-07
-3.8899e-07
-1.06088e-07
-3.35315e-07
-1.06291e-07
-2.8153e-07
-1.06497e-07
-2.27632e-07
-1.06713e-07
-1.73613e-07
-1.06941e-07
-1.19468e-07
-1.07179e-07
-6.51992e-08
-1.07412e-07
-1.08305e-08
-1.07599e-07
4.35941e-08
-1.07687e-07
9.7987e-08
-1.07579e-07
1.52175e-07
-1.07093e-07
2.05919e-07
-1.05901e-07
2.58591e-07
-1.03477e-07
3.09617e-07
-9.87709e-08
3.55716e-07
-9.00396e-08
-6.31625e-08
3.99633e-07
4.84839e-10
1.1268e-08
4.33068e-09
1.62324e-08
1.9187e-08
3.34259e-09
5.27239e-08
-2.77261e-08
1.03656e-07
-6.76301e-08
1.62341e-07
-1.03253e-07
2.18874e-07
-1.26688e-07
2.67654e-07
-1.36651e-07
3.07068e-07
-1.3569e-07
3.37803e-07
-1.27349e-07
3.61477e-07
-1.14644e-07
3.79604e-07
-9.96812e-08
3.93386e-07
-8.37622e-08
4.03616e-07
-6.76162e-08
4.10853e-07
-5.16264e-08
4.15444e-07
-3.59807e-08
4.1769e-07
-2.07669e-08
4.17814e-07
-6.03319e-09
4.16126e-07
8.20221e-09
4.12979e-07
2.19819e-08
4.08643e-07
3.53494e-08
4.03145e-07
4.82826e-08
3.96204e-07
6.06335e-08
3.87221e-07
7.20563e-08
3.75342e-07
8.19511e-08
3.59704e-07
8.94565e-08
3.39729e-07
9.35064e-08
3.15643e-07
9.30142e-08
2.88697e-07
8.71682e-08
2.61264e-07
7.56185e-08
2.36237e-07
5.8595e-08
2.16331e-07
3.69121e-08
2.03053e-07
1.205e-08
1.96162e-07
-1.33546e-08
1.90819e-07
-3.33074e-08
1.79743e-07
-4.01891e-08
1.59361e-07
-3.23248e-08
1.30069e-07
-1.39455e-08
9.23536e-08
1.07604e-08
4.39079e-08
4.07708e-08
-2.12316e-08
7.47719e-08
-1.0949e-07
1.11066e-07
-2.22022e-07
1.50696e-07
-3.55458e-07
1.93341e-07
-5.03266e-07
2.36503e-07
-6.56666e-07
2.77162e-07
-8.09875e-07
3.12596e-07
-9.57928e-07
3.40967e-07
-1.09584e-06
3.61551e-07
-1.22098e-06
3.73977e-07
-1.33228e-06
3.78295e-07
-1.429e-06
3.75145e-07
-1.51152e-06
3.65347e-07
-1.58206e-06
3.49986e-07
-1.64293e-06
3.30828e-07
-1.69568e-06
3.09727e-07
-1.74247e-06
2.87694e-07
-1.78525e-06
2.65722e-07
-1.8253e-06
2.44683e-07
-1.86345e-06
2.25049e-07
-1.90004e-06
2.07138e-07
-1.93563e-06
1.91002e-07
-1.97037e-06
1.7661e-07
-2.00406e-06
1.63939e-07
-2.03685e-06
1.52748e-07
-2.0687e-06
1.42862e-07
-2.09962e-06
1.34101e-07
-2.12957e-06
1.26292e-07
-2.15854e-06
1.19278e-07
-2.18651e-06
1.12924e-07
-2.21348e-06
1.07112e-07
-2.23944e-06
1.01742e-07
-2.26439e-06
9.67316e-08
-2.28831e-06
9.20122e-08
-2.31122e-06
8.75276e-08
-2.3331e-06
8.32329e-08
-2.35397e-06
7.90915e-08
-2.37381e-06
7.50751e-08
-2.39263e-06
7.116e-08
-2.41043e-06
6.73285e-08
-2.42721e-06
6.35649e-08
-2.44296e-06
5.98579e-08
-2.4577e-06
5.61962e-08
-2.47141e-06
5.25722e-08
-2.48409e-06
4.89769e-08
-2.49575e-06
4.54047e-08
-2.50638e-06
4.18479e-08
-2.51598e-06
3.8302e-08
-2.52457e-06
3.47601e-08
-2.53214e-06
3.12151e-08
-2.53866e-06
2.76649e-08
-2.54413e-06
2.41033e-08
-2.54856e-06
2.05285e-08
-2.55196e-06
1.69353e-08
-2.55434e-06
1.33247e-08
-2.5557e-06
9.69705e-09
-2.55606e-06
6.0586e-09
-2.55541e-06
2.41751e-09
-2.55374e-06
-1.215e-09
-2.55099e-06
-4.84169e-09
-2.5471e-06
-8.49093e-09
-2.54205e-06
-1.21826e-08
-2.5358e-06
-1.59116e-08
-2.52835e-06
-1.96685e-08
-2.51968e-06
-2.34512e-08
-2.50978e-06
-2.7254e-08
-2.49864e-06
-3.1076e-08
-2.48625e-06
-3.49107e-08
-2.47262e-06
-3.87569e-08
-2.45773e-06
-4.26075e-08
-2.4416e-06
-4.64606e-08
-2.4242e-06
-5.03089e-08
-2.40556e-06
-5.41496e-08
-2.38567e-06
-5.79755e-08
-2.36454e-06
-6.17832e-08
-2.34218e-06
-6.55655e-08
-2.31859e-06
-6.93187e-08
-2.29379e-06
-7.30364e-08
-2.26779e-06
-7.67144e-08
-2.24061e-06
-8.03473e-08
-2.21226e-06
-8.39307e-08
-2.18276e-06
-8.74598e-08
-2.15213e-06
-9.09301e-08
-2.12039e-06
-9.43374e-08
-2.08757e-06
-9.76768e-08
-2.05368e-06
-1.00944e-07
-2.01876e-06
-1.04134e-07
-1.98283e-06
-1.07244e-07
-1.94592e-06
-1.10269e-07
-1.90806e-06
-1.13207e-07
-1.86929e-06
-1.16053e-07
-1.82962e-06
-1.188e-07
-1.78909e-06
-1.21436e-07
-1.74772e-06
-1.23961e-07
-1.70554e-06
-1.26383e-07
-1.66257e-06
-1.28711e-07
-1.61885e-06
-1.30956e-07
-1.57444e-06
-1.33133e-07
-1.52938e-06
-1.35218e-07
-1.48368e-06
-1.37183e-07
-1.43738e-06
-1.39035e-07
-1.3905e-06
-1.40784e-07
-1.34309e-06
-1.42435e-07
-1.29518e-06
-1.43991e-07
-1.24679e-06
-1.45455e-07
-1.19796e-06
-1.46828e-07
-1.14872e-06
-1.48114e-07
-1.0991e-06
-1.49311e-07
-1.04911e-06
-1.50426e-07
-9.98778e-07
-1.51453e-07
-9.48135e-07
-1.52394e-07
-8.97207e-07
-1.53245e-07
-8.46023e-07
-1.54e-07
-7.94615e-07
-1.54665e-07
-7.43009e-07
-1.55244e-07
-6.91229e-07
-1.5575e-07
-6.39296e-07
-1.56197e-07
-5.87225e-07
-1.56597e-07
-5.35028e-07
-1.56968e-07
-4.82711e-07
-1.5732e-07
-4.30277e-07
-1.57664e-07
-3.77728e-07
-1.58004e-07
-3.25065e-07
-1.58339e-07
-2.72288e-07
-1.58665e-07
-2.194e-07
-1.58984e-07
-1.66399e-07
-1.59298e-07
-1.13284e-07
-1.59619e-07
-6.00476e-08
-1.59955e-07
-6.68297e-09
-1.60311e-07
4.68147e-08
-1.60682e-07
1.00445e-07
-1.61047e-07
1.54198e-07
-1.61357e-07
2.08035e-07
-1.61529e-07
2.61879e-07
-1.61428e-07
3.15606e-07
-1.60824e-07
3.69019e-07
-1.59319e-07
4.21774e-07
-1.56236e-07
4.73459e-07
-1.50459e-07
5.23136e-07
-1.3972e-07
-1.14273e-07
5.74241e-07
-8.73394e-11
1.13699e-08
1.32092e-08
2.94123e-09
5.33209e-08
-3.67522e-08
1.15638e-07
-9.00413e-08
1.82817e-07
-1.348e-07
2.40573e-07
-1.61011e-07
2.83344e-07
-1.69452e-07
3.12073e-07
-1.65383e-07
3.30413e-07
-1.54025e-07
3.42024e-07
-1.38962e-07
3.49597e-07
-1.2221e-07
3.54705e-07
-1.04791e-07
3.58172e-07
-8.72201e-08
3.60321e-07
-6.97663e-08
3.61289e-07
-5.25858e-08
3.61089e-07
-3.57816e-08
3.59763e-07
-1.94311e-08
3.5733e-07
-3.59996e-09
3.53883e-07
1.16588e-08
3.49552e-07
2.63152e-08
3.4457e-07
4.03402e-08
3.39161e-07
5.36961e-08
3.33497e-07
6.63057e-08
3.27567e-07
7.79948e-08
3.21109e-07
8.84175e-08
3.13592e-07
9.69837e-08
3.04282e-07
1.02824e-07
2.92503e-07
1.04811e-07
2.77899e-07
1.01778e-07
2.60719e-07
9.28246e-08
2.41897e-07
7.74223e-08
2.22801e-07
5.60498e-08
2.0359e-07
3.1261e-08
1.8019e-07
1.0087e-08
1.45704e-07
1.16639e-09
9.81705e-08
7.36914e-09
3.86425e-08
2.7179e-08
-3.40156e-08
5.87052e-08
-1.22464e-07
9.91793e-08
-2.27326e-07
1.45606e-07
-3.47329e-07
1.94749e-07
-4.80178e-07
2.43892e-07
-6.2076e-07
2.91263e-07
-7.6277e-07
3.3534e-07
-9.00243e-07
3.73972e-07
-1.02779e-06
4.04709e-07
-1.14181e-06
4.26615e-07
-1.24081e-06
4.39961e-07
-1.32431e-06
4.45051e-07
-1.39309e-06
4.42743e-07
-1.44891e-06
4.34112e-07
-1.49406e-06
4.20285e-07
-1.53119e-06
4.02466e-07
-1.56306e-06
3.81851e-07
-1.59191e-06
3.59683e-07
-1.61922e-06
3.3704e-07
-1.64615e-06
3.14632e-07
-1.67344e-06
2.93019e-07
-1.70139e-06
2.72628e-07
-1.73002e-06
2.53687e-07
-1.7592e-06
2.36325e-07
-1.78876e-06
2.2056e-07
-1.81848e-06
2.06335e-07
-1.84811e-06
1.93565e-07
-1.87746e-06
1.82101e-07
-1.90638e-06
1.71787e-07
-1.93475e-06
1.62473e-07
-1.96247e-06
1.54014e-07
-1.98946e-06
1.46274e-07
-2.01567e-06
1.39135e-07
-2.04105e-06
1.32493e-07
-2.06556e-06
1.2626e-07
-2.08918e-06
1.20358e-07
-2.11189e-06
1.14726e-07
-2.13367e-06
1.09313e-07
-2.15451e-06
1.04077e-07
-2.1744e-06
9.89839e-08
-2.19332e-06
9.4008e-08
-2.21129e-06
8.91276e-08
-2.22828e-06
8.43256e-08
-2.2443e-06
7.95881e-08
-2.25934e-06
7.49039e-08
-2.27341e-06
7.02631e-08
-2.2865e-06
6.56579e-08
-2.2986e-06
6.10804e-08
-2.30972e-06
5.65242e-08
-2.31985e-06
5.19827e-08
-2.329e-06
4.74496e-08
-2.33717e-06
4.29177e-08
-2.34435e-06
3.83816e-08
-2.35053e-06
3.3835e-08
-2.35569e-06
2.92743e-08
-2.35985e-06
2.46963e-08
-2.363e-06
2.0096e-08
-2.36513e-06
1.54727e-08
-2.36625e-06
1.08245e-08
-2.36634e-06
6.15465e-09
-2.36539e-06
1.46424e-09
-2.36337e-06
-3.24504e-09
-2.36023e-06
-7.98254e-09
-2.35597e-06
-1.27644e-08
-2.35057e-06
-1.75997e-08
-2.34401e-06
-2.24839e-08
-2.33628e-06
-2.74093e-08
-2.32737e-06
-3.23715e-08
-2.31728e-06
-3.73635e-08
-2.30598e-06
-4.23822e-08
-2.29348e-06
-4.74197e-08
-2.27978e-06
-5.24734e-08
-2.26486e-06
-5.75342e-08
-2.24873e-06
-6.25996e-08
-2.23138e-06
-6.76592e-08
-2.21282e-06
-7.27106e-08
-2.19305e-06
-7.77426e-08
-2.17208e-06
-8.27521e-08
-2.14991e-06
-8.7728e-08
-2.12655e-06
-9.26669e-08