/*--------------------------------*- C++ -*----------------------------------*\
| =========                 |                                                 |
| \\      /  F ield         | OpenFOAM: The Open Source CFD Toolbox           |
|  \\    /   O peration     | Version:  v2012                                 |
|   \\  /    A nd           | Website:  www.openfoam.com                      |
|    \\/     M anipulation  |                                                 |
\*---------------------------------------------------------------------------*/
FoamFile
{
    version     2.0;
    format      ascii;
    class       surfaceScalarField;
    location    "600";
    object      phi;
}
// * * * * * * * * * * * * * * * * * * * * * * * * * * * * * * * * * * * * * //

dimensions      [0 3 -1 0 0 0 0];
oriented        oriented;


internalField   nonuniform List<scalar> 
24170
(
3.00557e-06
1.28312e-07
2.86048e-06
1.45085e-07
2.73119e-06
1.2928e-07
2.61478e-06
1.16398e-07
2.51069e-06
1.04072e-07
2.41919e-06
9.1471e-08
2.3398e-06
7.93755e-08
2.27139e-06
6.84023e-08
2.21238e-06
5.90084e-08
2.16112e-06
5.12495e-08
2.11655e-06
4.45715e-08
2.0779e-06
3.86445e-08
2.04462e-06
3.32832e-08
2.0163e-06
2.83182e-08
1.99277e-06
2.35325e-08
1.97435e-06
1.8423e-08
1.96197e-06
1.23777e-08
2.11183e-10
1.96175e-06
3.50989e-06
7.48759e-08
3.54447e-06
1.10557e-07
3.56128e-06
1.12497e-07
3.56518e-06
1.12522e-07
3.55858e-06
1.1067e-07
3.54449e-06
1.05572e-07
3.52524e-06
9.86267e-08
3.50259e-06
9.10621e-08
3.4781e-06
8.35134e-08
3.45307e-06
7.62871e-08
3.42817e-06
6.94728e-08
3.40383e-06
6.29943e-08
3.38034e-06
5.6778e-08
3.35795e-06
5.07105e-08
3.33688e-06
4.45995e-08
3.31737e-06
3.79355e-08
3.29947e-06
3.02802e-08
1.95808e-08
3.2801e-06
3.83205e-06
5.50198e-08
3.85047e-06
9.21387e-08
3.86533e-06
9.76244e-08
3.87824e-06
9.96113e-08
3.88895e-06
9.99482e-08
3.89716e-06
9.73417e-08
3.90302e-06
9.27574e-08
3.90672e-06
8.73628e-08
3.90854e-06
8.16907e-08
3.90884e-06
7.59822e-08
3.90796e-06
7.03494e-08
3.90617e-06
6.47892e-08
3.90368e-06
5.92672e-08
3.90069e-06
5.3698e-08
3.89737e-06
4.79271e-08
3.89373e-06
4.15772e-08
3.88949e-06
3.45173e-08
2.59841e-08
3.88309e-06
4.21644e-06
4.31341e-08
4.2291e-06
7.94961e-08
4.23908e-06
8.76552e-08
4.24806e-06
9.06411e-08
4.25625e-06
9.17588e-08
4.26354e-06
9.00693e-08
4.26993e-06
8.63781e-08
4.2755e-06
8.18027e-08
4.28031e-06
7.68853e-08
4.28446e-06
7.18465e-08
4.28804e-06
6.67736e-08
4.29115e-06
6.16873e-08
4.29386e-06
5.65586e-08
4.29624e-06
5.13221e-08
4.29832e-06
4.58575e-08
4.29995e-06
3.9948e-08
4.3009e-06
3.35679e-08
2.65724e-08
4.30032e-06
4.64624e-06
3.42044e-08
4.65691e-06
6.88298e-08
4.66553e-06
7.90363e-08
4.67327e-06
8.28907e-08
4.68045e-06
8.45664e-08
4.687e-06
8.35225e-08
4.69289e-06
8.04798e-08
4.69823e-06
7.64665e-08
4.70307e-06
7.20386e-08
4.7075e-06
6.74141e-08
4.71158e-06
6.26908e-08
4.71537e-06
5.79019e-08
4.71889e-06
5.30356e-08
4.72217e-06
4.80442e-08
4.72518e-06
4.28523e-08
4.72777e-06
3.7356e-08
4.72976e-06
3.15872e-08
2.56432e-08
4.73068e-06
5.12164e-06
2.71586e-08
5.13118e-06
5.92709e-08
5.13934e-06
7.08719e-08
5.14677e-06
7.54641e-08
5.15375e-06
7.75843e-08
5.16017e-06
7.71077e-08
5.166e-06
7.46515e-08
5.17133e-06
7.11417e-08
5.17624e-06
6.71368e-08
5.18079e-06
6.28639e-08
5.18505e-06
5.84383e-08
5.18905e-06
5.39065e-08
5.19281e-06
4.92796e-08
5.19632e-06
4.4532e-08
5.19955e-06
3.96332e-08
5.20236e-06
3.45514e-08
5.20459e-06
2.93564e-08
2.42203e-08
5.20602e-06
5.64653e-06
2.16361e-08
5.65521e-06
5.05935e-08
5.66314e-06
6.29424e-08
5.67046e-06
6.81309e-08
5.67747e-06
7.05781e-08
5.68398e-06
7.05884e-08
5.68997e-06
6.86688e-08
5.69547e-06
6.56358e-08
5.70057e-06
6.20356e-08
5.70533e-06
5.81067e-08
5.70979e-06
5.39777e-08
5.71398e-06
4.97111e-08
5.71792e-06
4.53408e-08
5.72159e-06
4.08665e-08
5.72493e-06
3.62936e-08
5.72785e-06
3.1636e-08
5.73022e-06
2.69824e-08
2.24871e-08
5.73195e-06
4.40931e-06
1.84352e-08
4.41501e-06
4.48777e-08
4.42064e-06
5.72989e-08
4.42591e-06
6.28613e-08
4.43096e-06
6.55223e-08
4.43573e-06
6.58152e-08
4.44016e-06
6.42362e-08
4.44427e-06
6.15305e-08
4.44809e-06
5.82159e-08
4.45166e-06
5.45358e-08
4.45501e-06
5.06271e-08
4.45816e-06
4.6565e-08
4.4611e-06
4.23967e-08
4.46383e-06
3.814e-08
4.46631e-06
3.38194e-08
4.46847e-06
2.94704e-08
4.47027e-06
2.51807e-08
2.10941e-08
4.47167e-06
5.14277e-06
1.55233e-08
5.14846e-06
3.91882e-08
5.15436e-06
5.13941e-08
5.16002e-06
5.71956e-08
5.16553e-06
6.00114e-08
5.17078e-06
6.05614e-08
5.1757e-06
5.93157e-08
5.18029e-06
5.69414e-08
5.18458e-06
5.39258e-08
5.1886e-06
5.05161e-08
5.19237e-06
4.68544e-08
5.19591e-06
4.30283e-08
5.19921e-06
3.90965e-08
5.20226e-06
3.50951e-08
5.20501e-06
3.10622e-08
5.20744e-06
2.70486e-08
5.20948e-06
2.31371e-08
1.94456e-08
5.21113e-06
5.99841e-06
1.29116e-08
6.00399e-06
3.36005e-08
6.01009e-06
4.52815e-08
6.01612e-06
5.11627e-08
6.02207e-06
5.40582e-08
6.02781e-06
5.48209e-08
6.03323e-06
5.38923e-08
6.03832e-06
5.1849e-08
6.0431e-06
4.91428e-08
6.0476e-06
4.60237e-08
6.05181e-06
4.26366e-08
6.05576e-06
3.90794e-08
6.05944e-06
3.54217e-08
6.06282e-06
3.17122e-08
6.06588e-06
2.8002e-08
6.06859e-06
2.43468e-08
6.0709e-06
2.08191e-08
1.75185e-08
6.07283e-06
6.99659e-06
1.05877e-08
7.00196e-06
2.82314e-08
7.0082e-06
3.90412e-08
7.01455e-06
4.48088e-08
7.02091e-06
4.76956e-08
7.02712e-06
4.86051e-08
7.03306e-06
4.79598e-08
7.03867e-06
4.62391e-08
7.04396e-06
4.38512e-08
7.04894e-06
4.10413e-08
7.05362e-06
3.79583e-08
7.05799e-06
3.4705e-08
7.06205e-06
3.13578e-08
7.06579e-06
2.79785e-08
7.06917e-06
2.46207e-08
7.07217e-06
2.13429e-08
7.07479e-06
1.82063e-08
1.52874e-08
7.07702e-06
8.16108e-06
8.5259e-09
8.16616e-06
2.31507e-08
8.17244e-06
3.27561e-08
8.17906e-06
3.81861e-08
8.1858e-06
4.09604e-08
8.19247e-06
4.19367e-08
8.1989e-06
4.15201e-08
8.20504e-06
4.01041e-08
8.21085e-06
3.80366e-08
8.21634e-06
3.55544e-08
8.22149e-06
3.28032e-08
8.22631e-06
2.98882e-08
8.23078e-06
2.68906e-08
8.23488e-06
2.38749e-08
8.2386e-06
2.08981e-08
8.24193e-06
1.80138e-08
8.24486e-06
1.52715e-08
1.27312e-08
8.24742e-06
9.51957e-06
6.68171e-09
9.52433e-06
1.83901e-08
9.53057e-06
2.65159e-08
9.5374e-06
3.13616e-08
9.54446e-06
3.38974e-08
9.55155e-06
3.48463e-08
9.55848e-06
3.45903e-08
9.56514e-06
3.34418e-08
9.57148e-06
3.16909e-08
9.57749e-06
2.95469e-08
9.58314e-06
2.71525e-08
9.58842e-06
2.46079e-08
9.59332e-06
2.19936e-08
9.59782e-06
1.93732e-08
9.60191e-06
1.68013e-08
9.6056e-06
1.43244e-08
9.60889e-06
1.19822e-08
9.81939e-09
9.61181e-06
1.11044e-05
5.01254e-09
1.11088e-05
1.39365e-08
1.1115e-05
2.03829e-08
1.11219e-05
2.4402e-08
1.11293e-05
2.6549e-08
1.11367e-05
2.73693e-08
1.11441e-05
2.71899e-08
1.11513e-05
2.62613e-08
1.11582e-05
2.4807e-08
1.11647e-05
2.30059e-08
1.11709e-05
2.09842e-08
1.11767e-05
1.88351e-08
1.1182e-05
1.66312e-08
1.1187e-05
1.44317e-08
1.11915e-05
1.22834e-08
1.11956e-05
1.02264e-08
1.11993e-05
8.28969e-09
6.50824e-09
1.12026e-05
1.29532e-05
3.47198e-09
1.29574e-05
9.73158e-09
1.29634e-05
1.43691e-08
1.29704e-05
1.73445e-08
1.29781e-05
1.89436e-08
1.29859e-05
1.95226e-08
1.29938e-05
1.93336e-08
1.30014e-05
1.85637e-08
1.30089e-05
1.73771e-08
1.3016e-05
1.59113e-08
1.30227e-05
1.42701e-08
1.3029e-05
1.25318e-08
1.30349e-05
1.07573e-08
1.30403e-05
8.99562e-09
1.30453e-05
7.28551e-09
1.30499e-05
5.65785e-09
1.3054e-05
4.13399e-09
2.74013e-09
1.30578e-05
1.51099e-05
2.00963e-09
1.5114e-05
5.67286e-09
1.51199e-05
8.40637e-09
1.51271e-05
1.01607e-08
1.5135e-05
1.10548e-08
1.51432e-05
1.12804e-08
1.51516e-05
1.09957e-08
1.51598e-05
1.0322e-08
1.51678e-05
9.36678e-09
1.51755e-05
8.22159e-09
1.51828e-05
6.96054e-09
1.51897e-05
5.64041e-09
1.51962e-05
4.30661e-09
1.52022e-05
2.99492e-09
1.52077e-05
1.73369e-09
1.52129e-05
5.44663e-10
1.52175e-05
-5.57921e-10
-1.55511e-09
1.52218e-05
1.76259e-05
5.60378e-10
1.763e-05
1.5921e-09
1.76361e-05
2.30966e-09
1.76435e-05
2.69195e-09
1.76519e-05
2.74187e-09
1.76606e-05
2.51433e-09
1.76696e-05
2.05866e-09
1.76785e-05
1.43059e-09
1.76871e-05
6.75046e-10
1.76955e-05
-1.61227e-10
1.77035e-05
-1.04333e-09
1.77111e-05
-1.9379e-09
1.77182e-05
-2.82109e-09
1.77249e-05
-3.67074e-09
1.77311e-05
-4.47163e-09
1.77369e-05
-5.21046e-09
1.77422e-05
-5.88044e-09
-6.46866e-09
1.77471e-05
1.78276e-05
-7.99125e-10
1.78314e-05
-2.26123e-09
1.78372e-05
-3.46482e-09
1.78443e-05
-4.40996e-09
1.78522e-05
-5.17969e-09
1.78606e-05
-5.86306e-09
1.78692e-05
-6.49779e-09
1.78777e-05
-7.10492e-09
1.78861e-05
-7.6846e-09
1.78941e-05
-8.2449e-09
1.79019e-05
-8.77881e-09
1.79092e-05
-9.28518e-09
1.79162e-05
-9.75375e-09
1.79227e-05
-1.01814e-08
1.79288e-05
-1.05605e-08
1.79344e-05
-1.08887e-08
1.79397e-05
-1.11626e-08
-1.13762e-08
1.79446e-05
1.58826e-05
-2.05817e-09
1.58861e-05
-5.79684e-09
1.58914e-05
-8.71292e-09
1.58978e-05
-1.07752e-08
1.59048e-05
-1.22158e-08
1.59122e-05
-1.32535e-08
1.59197e-05
-1.40207e-08
1.59272e-05
-1.45807e-08
1.59345e-05
-1.49947e-08
1.59416e-05
-1.53011e-08
1.59483e-05
-1.55321e-08
1.59547e-05
-1.56992e-08
1.59608e-05
-1.5815e-08
1.59665e-05
-1.58825e-08
1.59718e-05
-1.59074e-08
1.59768e-05
-1.58897e-08
1.59815e-05
-1.58331e-08
-1.57325e-08
1.59859e-05
1.41499e-05
-3.33645e-09
1.41535e-05
-9.33078e-09
1.41586e-05
-1.38198e-08
1.41646e-05
-1.68023e-08
1.41712e-05
-1.87404e-08
1.41779e-05
-2.00268e-08
1.41848e-05
-2.08472e-08
1.41915e-05
-2.13205e-08
1.4198e-05
-2.15443e-08
1.42043e-05
-2.16014e-08
1.42104e-05
-2.15428e-08
1.42161e-05
-2.14005e-08
1.42214e-05
-2.11966e-08
1.42265e-05
-2.09458e-08
1.42313e-05
-2.06589e-08
1.42357e-05
-2.03416e-08
1.42399e-05
-1.99989e-08
-1.96289e-08
1.42438e-05
1.26064e-05
-4.73999e-09
1.26102e-05
-1.30993e-08
1.26154e-05
-1.90304e-08
1.26213e-05
-2.26912e-08
1.26276e-05
-2.49647e-08
1.26339e-05
-2.6387e-08
1.26403e-05
-2.71857e-08
1.26465e-05
-2.75069e-08
1.26524e-05
-2.75099e-08
1.26581e-05
-2.73094e-08
1.26636e-05
-2.69671e-08
1.26687e-05
-2.65309e-08
1.26735e-05
-2.60279e-08
1.26781e-05
-2.54868e-08
1.26823e-05
-2.49182e-08
1.26863e-05
-2.43348e-08
1.26901e-05
-2.37397e-08
-2.31341e-08
1.26936e-05
1.12315e-05
-6.38339e-09
1.12357e-05
-1.73336e-08
1.12412e-05
-2.45118e-08
1.12471e-05
-2.85797e-08
1.12531e-05
-3.09928e-08
1.12592e-05
-3.24482e-08
1.12651e-05
-3.31295e-08
1.12709e-05
-3.32497e-08
1.12764e-05
-3.30085e-08
1.12816e-05
-3.25355e-08
1.12865e-05
-3.19133e-08
1.12912e-05
-3.1188e-08
1.12956e-05
-3.04062e-08
1.12997e-05
-2.95917e-08
1.13035e-05
-2.87682e-08
1.13071e-05
-2.79424e-08
1.13105e-05
-2.71243e-08
-2.63094e-08
1.13137e-05
1.00067e-05
-8.43359e-09
1.00116e-05
-2.22272e-08
1.00174e-05
-3.03217e-08
1.00233e-05
-3.44521e-08
1.00292e-05
-3.68906e-08
1.00351e-05
-3.82748e-08
1.00407e-05
-3.8769e-08
1.00461e-05
-3.8627e-08
1.00512e-05
-3.81128e-08
1.0056e-05
-3.73706e-08
1.00606e-05
-3.64672e-08
1.00649e-05
-3.54663e-08
1.00689e-05
-3.44129e-08
1.00726e-05
-3.33447e-08
1.00761e-05
-3.22813e-08
1.00794e-05
-3.12369e-08
1.00825e-05
-3.02152e-08
-2.92146e-08
1.00854e-05
8.91575e-06
-1.10539e-08
8.92158e-06
-2.80633e-08
8.92776e-06
-3.64939e-08
8.93367e-06
-4.03863e-08
8.93949e-06
-4.26911e-08
8.94514e-06
-4.39167e-08
8.95052e-06
-4.41341e-08
8.95561e-06
-4.37117e-08
8.96043e-06
-4.29275e-08
8.96496e-06
-4.19064e-08
8.96922e-06
-4.07274e-08
8.97321e-06
-3.94527e-08
8.97693e-06
-3.81379e-08
8.98041e-06
-3.68238e-08
8.98366e-06
-3.55336e-08
8.98671e-06
-3.4283e-08
8.98957e-06
-3.3076e-08
-3.19066e-08
8.99226e-06
7.94412e-06
-1.45191e-08
7.95117e-06
-3.50836e-08
7.95764e-06
-4.29503e-08
7.9636e-06
-4.63254e-08
7.96939e-06
-4.84892e-08
7.97495e-06
-4.94759e-08
7.98019e-06
-4.93751e-08
7.98511e-06
-4.86384e-08
7.98975e-06
-4.75655e-08
7.99411e-06
-4.62677e-08
7.99819e-06
-4.48058e-08
8.00199e-06
-4.32519e-08
8.00552e-06
-4.16715e-08
8.0088e-06
-4.01075e-08
8.01186e-06
-3.85922e-08
8.01471e-06
-3.7138e-08
8.01738e-06
-3.57534e-08
-3.44172e-08
8.01989e-06
7.07896e-06
-1.91324e-08
7.08744e-06
-4.35756e-08
7.09432e-06
-4.98443e-08
7.10053e-06
-5.25432e-08
7.10653e-06
-5.44988e-08
7.11222e-06
-5.51682e-08
7.11754e-06
-5.4688e-08
7.12251e-06
-5.36082e-08
7.12717e-06
-5.22329e-08
7.13152e-06
-5.0623e-08
7.13556e-06
-4.88494e-08
7.1393e-06
-4.69902e-08
7.14274e-06
-4.51126e-08
7.1459e-06
-4.32781e-08
7.14882e-06
-4.15138e-08
7.15153e-06
-3.98464e-08
7.15406e-06
-3.82803e-08
-3.67934e-08
7.15643e-06
6.30944e-06
-2.6064e-08
6.31952e-06
-5.36961e-08
6.32752e-06
-5.78379e-08
6.33481e-06
-5.98345e-08
6.34173e-06
-6.14292e-08
6.34812e-06
-6.15685e-08
6.35399e-06
-6.0559e-08
6.35939e-06
-5.90324e-08
6.3644e-06
-5.72324e-08
6.36899e-06
-5.52181e-08
6.37317e-06
-5.30397e-08
6.37696e-06
-5.07811e-08
6.38038e-06
-4.85327e-08
6.38344e-06
-4.63427e-08
6.38619e-06
-4.42657e-08
6.38867e-06
-4.23279e-08
6.39093e-06
-4.05357e-08
-3.88344e-08
6.39297e-06
5.62857e-06
-3.97368e-08
5.64224e-06
-6.74243e-08
5.6541e-06
-6.97184e-08
5.66494e-06
-7.06865e-08
5.67464e-06
-7.11475e-08
5.68313e-06
-7.00615e-08
5.6905e-06
-6.79493e-08
5.69692e-06
-6.54557e-08
5.70245e-06
-6.27706e-08
5.70714e-06
-5.99103e-08
5.71103e-06
-5.69337e-08
5.71418e-06
-5.39317e-08
5.71663e-06
-5.09835e-08
5.71845e-06
-4.81664e-08
5.71972e-06
-4.55347e-08
5.72055e-06
-4.31502e-08
5.72103e-06
-4.10194e-08
-3.92706e-08
5.72147e-06
5.04915e-06
-8.65856e-08
5.07811e-06
-9.64664e-08
5.09883e-06
-9.04609e-08
5.11308e-06
-8.49572e-08
5.12192e-06
-8.0008e-08
5.12632e-06
-7.44626e-08
5.12715e-06
-6.87931e-08
5.12513e-06
-6.34489e-08
5.12078e-06
-5.84289e-08
5.11452e-06
-5.36546e-08
5.10672e-06
-4.91305e-08
5.09768e-06
-4.48945e-08
5.08767e-06
-4.09793e-08
5.07693e-06
-3.74286e-08
5.06575e-06
-3.43496e-08
5.05444e-06
-3.18337e-08
5.04324e-06
-2.98184e-08
-2.86279e-08
5.0326e-06
4.36996e-06
4.27349e-06
4.18303e-06
4.09807e-06
4.01806e-06
3.9436e-06
3.8748e-06
3.81135e-06
3.75292e-06
3.69927e-06
3.65014e-06
3.60524e-06
3.56426e-06
3.52683e-06
3.49249e-06
3.46065e-06
3.43083e-06
3.40221e-06
-1.03583e-08
1.03617e-08
-2.78787e-08
1.75205e-08
-4.74579e-08
1.95845e-08
-6.57384e-08
1.82772e-08
-7.75221e-08
1.17894e-08
-7.49386e-08
-2.59006e-09
-5.32996e-08
-2.16319e-08
-1.42148e-08
-3.90912e-08
3.7668e-08
-5.1875e-08
9.7127e-08
-5.94639e-08
1.58605e-07
-6.14704e-08
2.17908e-07
-5.93062e-08
2.72316e-07
-5.44015e-08
3.20094e-07
-4.77813e-08
3.60291e-07
-4.01909e-08
3.92391e-07
-3.21039e-08
4.16155e-07
-2.37583e-08
4.31375e-07
-1.52246e-08
4.37783e-07
-6.40445e-09
4.34938e-07
2.8405e-09
4.22583e-07
1.23583e-08
4.0084e-07
2.17393e-08
3.70234e-07
3.06079e-08
3.31617e-07
3.86159e-08
2.86281e-07
4.53368e-08
2.36042e-07
5.02398e-08
1.83306e-07
5.27377e-08
1.31033e-07
5.22745e-08
8.25689e-08
4.84665e-08
4.12299e-08
4.13415e-08
9.50933e-09
3.17223e-08
-1.19952e-08
2.15077e-08
-2.52278e-08
1.32333e-08
-3.30305e-08
7.80488e-09
-3.80849e-08
5.05318e-09
-4.2164e-08
4.08152e-09
-4.49409e-08
2.77141e-09
-4.2758e-08
-2.17226e-09
-3.15507e-08
-1.12207e-08
-8.8796e-09
-2.26533e-08
2.45585e-08
-3.34537e-08
6.4264e-08
-3.96949e-08
1.03232e-07
-3.89774e-08
1.35646e-07
-3.24178e-08
1.58149e-07
-2.25083e-08
1.69802e-07
-1.16667e-08
1.71407e-07
-1.60967e-09
1.66191e-07
5.20183e-09
1.5918e-07
7.00727e-09
1.5377e-07
5.40115e-09
1.54669e-07
-9.0182e-10
1.67158e-07
-1.24939e-08
1.7818e-07
-1.10157e-08
1.69369e-07
8.80982e-09
1.29747e-07
3.96333e-08
5.05201e-08
7.92258e-08
-7.06068e-08
1.21144e-07
-2.24754e-07
1.54144e-07
-4.00184e-07
1.75443e-07
-5.87452e-07
1.87266e-07
-7.78237e-07
1.90794e-07
-9.65591e-07
1.87352e-07
-1.14412e-06
1.78533e-07
-1.31031e-06
1.66194e-07
-1.46233e-06
1.52027e-07
-1.59963e-06
1.373e-07
-1.72262e-06
1.22992e-07
-1.83231e-06
1.09687e-07
-1.92999e-06
9.76811e-08
-2.01708e-06
8.70921e-08
-2.09497e-06
7.78958e-08
-2.16496e-06
6.99906e-08
-2.22819e-06
6.32291e-08
-2.28563e-06
5.74507e-08
-2.33813e-06
5.24974e-08
-2.38635e-06
4.8226e-08
-2.43086e-06
4.4511e-08
-2.47211e-06
4.12499e-08
-2.51046e-06
3.83526e-08
-2.5462e-06
3.57491e-08
-2.57959e-06
3.33792e-08
-2.61078e-06
3.11992e-08
-2.63996e-06
2.91694e-08
-2.66722e-06
2.72627e-08
-2.69267e-06
2.54525e-08
-2.7164e-06
2.37221e-08
-2.73845e-06
2.20533e-08
-2.75889e-06
2.04346e-08
-2.77774e-06
1.8852e-08
-2.79504e-06
1.72961e-08
-2.8108e-06
1.57546e-08
-2.82501e-06
1.42188e-08
-2.83768e-06
1.26773e-08
-2.8488e-06
1.11195e-08
-2.85833e-06
9.53432e-09
-2.86624e-06
7.91027e-09
-2.87248e-06
6.23665e-09
-2.87699e-06
4.49882e-09
-2.87969e-06
2.69379e-09
-2.88056e-06
8.705e-10
-2.87975e-06
-8.15913e-10
-2.87748e-06
-2.28074e-09
-2.87386e-06
-3.62258e-09
-2.86893e-06
-4.93725e-09
-2.86269e-06
-6.24185e-09
-2.85515e-06
-7.54704e-09
-2.84629e-06
-8.85141e-09
-2.83614e-06
-1.01572e-08
-2.82468e-06
-1.1461e-08
-2.81191e-06
-1.27641e-08
-2.79784e-06
-1.40631e-08
-2.78248e-06
-1.53584e-08
-2.76583e-06
-1.66472e-08
-2.7479e-06
-1.79296e-08
-2.72869e-06
-1.92029e-08
-2.70822e-06
-2.04668e-08
-2.68649e-06
-2.17191e-08
-2.66353e-06
-2.29591e-08
-2.63934e-06
-2.41852e-08
-2.61393e-06
-2.53962e-08
-2.58734e-06
-2.65908e-08
-2.55957e-06
-2.77674e-08
-2.53064e-06
-2.89245e-08
-2.50057e-06
-3.00601e-08
-2.46939e-06
-3.11712e-08
-2.43714e-06
-3.22535e-08
-2.40383e-06
-3.32983e-08
-2.36952e-06
-3.43035e-08
-2.33426e-06
-3.52642e-08
-2.29809e-06
-3.6165e-08
-2.26097e-06
-3.71113e-08
-2.22287e-06
-3.81015e-08
-2.18384e-06
-3.90255e-08
-2.14393e-06
-3.98996e-08
-2.10319e-06
-4.07401e-08
-2.06163e-06
-4.15497e-08
-2.0193e-06
-4.23264e-08
-1.97623e-06
-4.30679e-08
-1.93245e-06
-4.37748e-08
-1.88799e-06
-4.44468e-08
-1.8429e-06
-4.50854e-08
-1.7972e-06
-4.56898e-08
-1.75093e-06
-4.62628e-08
-1.70412e-06
-4.68027e-08
-1.6568e-06
-4.73127e-08
-1.60901e-06
-4.77908e-08
-1.56078e-06
-4.82416e-08
-1.51213e-06
-4.86575e-08
-1.46309e-06
-4.90492e-08
-1.41371e-06
-4.94019e-08
-1.36399e-06
-4.97262e-08
-1.314e-06
-5.00111e-08
-1.26374e-06
-5.02679e-08
-1.21326e-06
-5.04874e-08
-1.16259e-06
-5.06854e-08
-1.11174e-06
-5.08541e-08
-1.06074e-06
-5.10117e-08
-1.0096e-06
-5.11497e-08
-9.58314e-07
-5.12861e-08
-9.069e-07
-5.1416e-08
-8.55361e-07
-5.15413e-08
-8.03692e-07
-5.16694e-08
-7.51901e-07
-5.179e-08
-6.99993e-07
-5.19075e-08
-6.47969e-07
-5.20219e-08
-5.95828e-07
-5.21375e-08
-5.43567e-07
-5.22584e-08
-4.91174e-07
-5.23893e-08
-4.38638e-07
-5.2531e-08
-3.85954e-07
-5.26804e-08
-3.33123e-07
-5.28256e-08
-2.80175e-07
-5.29442e-08
-2.27168e-07
-5.30015e-08
-1.74221e-07
-5.2942e-08
-1.21546e-07
-5.26702e-08
-6.95811e-08
-5.19604e-08
-1.89491e-08
-5.06273e-08
2.86669e-08
-4.76132e-08
7.31089e-08
-4.44397e-08
-2.07333e-08
9.38424e-08
-4.00881e-09
1.43762e-08
-1.18992e-08
2.54115e-08
-1.74546e-08
2.51523e-08
-1.34369e-08
1.42551e-08
7.82886e-09
-9.46368e-09
4.64481e-08
-4.12126e-08
9.86628e-08
-7.38395e-08
1.58845e-07
-9.92752e-08
2.21061e-07
-1.14086e-07
2.80494e-07
-1.18898e-07
3.3483e-07
-1.15803e-07
3.82864e-07
-1.07341e-07
4.24228e-07
-9.57622e-08
4.59032e-07
-8.25869e-08
4.87597e-07
-6.87526e-08
5.10289e-07
-5.47971e-08
5.27516e-07
-4.09824e-08
5.39696e-07
-2.74077e-08
5.47375e-07
-1.40811e-08
5.51138e-07
-9.24853e-10
5.51223e-07
1.22745e-08
5.47247e-07
2.5714e-08
5.38477e-07
3.93792e-08
5.2401e-07
5.30824e-08
5.0294e-07
6.64075e-08
4.74499e-07
7.86809e-08
4.38267e-07
8.89706e-08
3.94378e-07
9.61647e-08
3.43667e-07
9.9178e-08
2.87767e-07
9.72431e-08
2.29228e-07
9.02626e-08
1.71706e-07
7.9033e-08
1.20063e-07
6.48763e-08
7.87299e-08
4.91438e-08
5.0571e-08
3.32047e-08
3.67859e-08
1.78782e-08
3.73036e-08
2.23847e-09
5.00141e-08
-1.48668e-08
7.30707e-08
-3.42892e-08
1.04818e-07
-5.43886e-08
1.40044e-07
-6.86858e-08
1.71707e-07
-7.13511e-08
1.95383e-07
-6.26561e-08
2.09196e-07
-4.62316e-08
2.13343e-07
-2.66569e-08
2.0948e-07
-7.8115e-09
1.99049e-07
8.81975e-09
1.8516e-07
1.90806e-08
1.71809e-07
2.03597e-08
1.47775e-07
2.94241e-08
9.44187e-08
5.24615e-08
-9.00752e-09
9.09308e-08
-1.65362e-07
1.45346e-07
-3.57112e-07
2.00562e-07
-5.66113e-07
2.48637e-07
-7.77889e-07
2.91004e-07
-9.82644e-07
3.25902e-07
-1.17674e-06
3.48245e-07
-1.35711e-06
3.55807e-07
-1.52021e-06
3.5037e-07
-1.66413e-06
3.34718e-07
-1.78871e-06
3.11932e-07
-1.89522e-06
2.85047e-07
-1.98575e-06
2.5672e-07
-2.06273e-06
2.29007e-07
-2.12865e-06
2.03227e-07
-2.18575e-06
1.80086e-07
-2.23587e-06
1.59814e-07
-2.28053e-06
1.4234e-07
-2.32087e-06
1.2743e-07
-2.35773e-06
1.14764e-07
-2.39175e-06
1.04009e-07
-2.42336e-06
9.48413e-08
-2.45288e-06
8.69742e-08
-2.48055e-06
8.01629e-08
-2.50652e-06
7.42036e-08
-2.53093e-06
6.89269e-08
-2.55388e-06
6.41955e-08
-2.57542e-06
5.98986e-08
-2.59562e-06
5.59499e-08
-2.61452e-06
5.22794e-08
-2.63216e-06
4.88326e-08
-2.64855e-06
4.55648e-08
-2.66373e-06
4.24416e-08
-2.67772e-06
3.94335e-08
-2.69051e-06
3.65183e-08
-2.70214e-06
3.36759e-08
-2.71259e-06
3.08907e-08
-2.72189e-06
2.81488e-08
-2.73004e-06
2.54361e-08
-2.73703e-06
2.27429e-08
-2.74286e-06
2.00596e-08
-2.74756e-06
1.73776e-08
-2.75113e-06
1.46913e-08
-2.75359e-06
1.1996e-08
-2.75497e-06
9.29167e-09
-2.75532e-06
6.58099e-09
-2.7547e-06
3.87493e-09
-2.75321e-06
1.19857e-09
-2.75093e-06
-1.41505e-09
-2.74778e-06
-3.97618e-09
-2.74353e-06
-6.53409e-09
-2.73805e-06
-9.10449e-09
-2.73131e-06
-1.16785e-08
-2.7233e-06
-1.42554e-08
-2.71401e-06
-1.68366e-08
-2.70344e-06
-1.94203e-08
-2.6916e-06
-2.20057e-08
-2.67847e-06
-2.45899e-08
-2.66406e-06
-2.71709e-08
-2.64837e-06
-2.97458e-08
-2.63142e-06
-3.23123e-08
-2.61319e-06
-3.48672e-08
-2.59371e-06
-3.74083e-08
-2.57298e-06
-3.99324e-08
-2.551e-06
-4.2437e-08
-2.5278e-06
-4.49192e-08
-2.50338e-06
-4.73764e-08
-2.47775e-06
-4.98058e-08
-2.45094e-06
-5.22048e-08
-2.42296e-06
-5.45706e-08
-2.39382e-06
-5.69003e-08
-2.36355e-06
-5.9191e-08
-2.33217e-06
-6.14394e-08
-2.29969e-06
-6.36419e-08
-2.26615e-06
-6.57944e-08
-2.23155e-06
-6.78928e-08
-2.19591e-06
-6.99362e-08
-2.15925e-06
-7.19214e-08
-2.12157e-06
-7.38488e-08
-2.08292e-06
-7.57584e-08
-2.04337e-06
-7.76423e-08
-2.00294e-06
-7.94526e-08
-1.96165e-06
-8.1189e-08
-1.91953e-06
-8.28614e-08
-1.8766e-06
-8.44724e-08
-1.83291e-06
-8.60171e-08
-1.78848e-06
-8.74931e-08
-1.74335e-06
-8.89004e-08
-1.69755e-06
-9.02394e-08
-1.65112e-06
-9.15106e-08
-1.60409e-06
-9.2715e-08
-1.55649e-06
-9.3854e-08
-1.50836e-06
-9.49279e-08
-1.45974e-06
-9.59387e-08
-1.41064e-06
-9.68876e-08
-1.36111e-06
-9.77772e-08
-1.31117e-06
-9.86037e-08
-1.26086e-06
-9.9374e-08
-1.21019e-06
-1.00079e-07
-1.15921e-06
-1.0072e-07
-1.10793e-06
-1.01293e-07
-1.05641e-06
-1.01802e-07
-1.00466e-06
-1.02246e-07
-9.5271e-07
-1.02637e-07
-9.0059e-07
-1.0298e-07
-8.48318e-07
-1.03289e-07
-7.95902e-07
-1.03569e-07
-7.43356e-07
-1.03834e-07
-6.9068e-07
-1.04093e-07
-6.37879e-07
-1.04343e-07
-5.84954e-07
-1.04594e-07
-5.31907e-07
-1.04836e-07
-4.78742e-07
-1.0507e-07
-4.25461e-07
-1.05301e-07
-3.72062e-07
-1.05533e-07
-3.1854e-07
-1.05777e-07
-2.64886e-07
-1.0604e-07
-2.11088e-07
-1.06325e-07
-1.57139e-07
-1.06625e-07
-1.03039e-07
-1.06922e-07
-4.88065e-08
-1.07172e-07
5.50553e-09
-1.07309e-07
5.98097e-08
-1.07242e-07
1.13944e-07
-1.068e-07
1.67636e-07
-1.05649e-07
2.2035e-07
-1.03337e-07
2.71676e-07
-9.89367e-08
3.18103e-07
-9.08651e-08
-6.5482e-08
3.62853e-07
1.34299e-09
1.3038e-08
4.63848e-09
2.21195e-08
1.70125e-08
1.27879e-08
4.89376e-08
-1.76697e-08
1.02181e-07
-6.27021e-08
1.68909e-07
-1.07941e-07
2.36871e-07
-1.41798e-07
2.979e-07
-1.60305e-07
3.48841e-07
-1.65025e-07
3.89682e-07
-1.59741e-07
4.22046e-07
-1.48164e-07
4.47786e-07
-1.33081e-07
4.68373e-07
-1.16347e-07
4.8484e-07
-9.90545e-08
4.97873e-07
-8.17839e-08
5.07896e-07
-6.48211e-08
5.152e-07
-4.82844e-08
5.19993e-07
-3.22018e-08
5.22474e-07
-1.65612e-08
5.22875e-07
-1.32643e-09
5.21565e-07
1.35858e-08
5.18952e-07
2.83262e-08
5.15304e-07
4.30273e-08
5.10625e-07
5.77615e-08
5.04558e-07
7.24751e-08
4.96318e-07
8.69222e-08
4.84685e-07
1.00603e-07
4.68144e-07
1.12706e-07
4.45208e-07
1.22116e-07
4.14913e-07
1.2754e-07
3.77422e-07
1.27754e-07
3.3454e-07
1.21917e-07
2.89651e-07
1.09766e-07
2.47066e-07
9.17314e-08
2.11329e-07
6.89405e-08
1.86451e-07
4.27595e-08
1.74486e-07
1.42019e-08
1.75135e-07
-1.55102e-08
1.86359e-07
-4.55143e-08
2.0127e-07
-6.92925e-08
2.10994e-07
-7.84073e-08
2.10629e-07
-7.09813e-08
2.00034e-07
-5.20577e-08
1.80404e-07
-2.66012e-08
1.5336e-07
3.90473e-10
1.20485e-07
2.50592e-08
7.67845e-08
5.25239e-08
9.47573e-09
8.63845e-08
-9.69347e-08
1.26772e-07
-2.46957e-07
1.79446e-07
-4.3322e-07
2.38726e-07
-6.40303e-07
2.98015e-07
-8.48102e-07
3.53147e-07
-1.04639e-06
3.98849e-07
-1.22959e-06
4.31839e-07
-1.39095e-06
4.52367e-07
-1.52551e-06
4.60462e-07
-1.63368e-06
4.56411e-07
-1.71937e-06
4.41498e-07
-1.78709e-06
4.18091e-07
-1.84139e-06
3.89026e-07
-1.88647e-06
3.57009e-07
-1.92573e-06
3.24305e-07
-1.96163e-06
2.92627e-07
-1.99573e-06
2.63099e-07
-2.02884e-06
2.3634e-07
-2.06132e-06
2.12571e-07
-2.09325e-06
1.91743e-07
-2.12455e-06
1.73641e-07
-2.15509e-06
1.57973e-07
-2.18475e-06
1.4442e-07
-2.2134e-06
1.32663e-07
-2.24096e-06
1.22408e-07
-2.26739e-06
1.13398e-07
-2.29263e-06
1.0541e-07
-2.31668e-06
9.82571e-08
-2.33954e-06
9.17822e-08
-2.3612e-06
8.58564e-08
-2.38167e-06
8.03745e-08
-2.40097e-06
7.52523e-08
-2.41911e-06
7.04213e-08
-2.43611e-06
6.58267e-08
-2.45197e-06
6.14234e-08
-2.4667e-06
5.71756e-08
-2.48032e-06
5.30531e-08
-2.49284e-06
4.90319e-08
-2.50425e-06
4.50909e-08
-2.51458e-06
4.12132e-08
-2.52382e-06
3.7383e-08
-2.53197e-06
3.35874e-08
-2.53904e-06
2.98144e-08
-2.54503e-06
2.60547e-08
-2.54995e-06
2.23014e-08
-2.55381e-06
1.85489e-08
-2.55661e-06
1.47948e-08
-2.55836e-06
1.10398e-08
-2.55907e-06
7.28686e-09
-2.55874e-06
3.5431e-09
-2.55736e-06
-1.83498e-10
-2.55489e-06
-3.89242e-09
-2.55126e-06
-7.60623e-09
-2.54645e-06
-1.13489e-08
-2.54044e-06
-1.51216e-08
-2.53321e-06
-1.8913e-08
-2.52475e-06
-2.27188e-08
-2.51505e-06
-2.65346e-08
-2.50411e-06
-3.03575e-08
-2.49194e-06
-3.41835e-08
-2.47852e-06
-3.80095e-08
-2.46385e-06
-4.1831e-08
-2.44795e-06
-4.56445e-08
-2.43082e-06
-4.94458e-08
-2.41245e-06
-5.32311e-08
-2.39286e-06
-5.69958e-08
-2.37206e-06
-6.07362e-08
-2.35004e-06
-6.44477e-08
-2.32683e-06
-6.81266e-08
-2.30244e-06
-7.17685e-08
-2.27687e-06
-7.53697e-08
-2.25014e-06
-7.8926e-08
-2.22228e-06
-8.24334e-08
-2.19329e-06
-8.58879e-08
-2.16319e-06
-8.92851e-08
-2.13201e-06
-9.26207e-08
-2.09976e-06
-9.58903e-08
-2.06646e-06
-9.90897e-08
-2.03213e-06
-1.02216e-07
-1.9968e-06
-1.05266e-07
-1.96048e-06
-1.0824e-07
-1.92319e-06
-1.11137e-07
-1.88497e-06
-1.13972e-07
-1.84588e-06
-1.16739e-07
-1.80591e-06
-1.19413e-07
-1.76511e-06
-1.21989e-07
-1.7235e-06
-1.24473e-07
-1.6811e-06
-1.26865e-07
-1.63796e-06
-1.29161e-07
-1.59409e-06
-1.31356e-07
-1.54954e-06
-1.33449e-07
-1.50433e-06
-1.35441e-07
-1.45851e-06
-1.37333e-07
-1.41209e-06
-1.39124e-07
-1.36513e-06
-1.40817e-07
-1.31764e-06
-1.42413e-07
-1.26966e-06
-1.43913e-07
-1.22123e-06
-1.45319e-07
-1.17237e-06
-1.46635e-07
-1.12312e-06
-1.4786e-07
-1.0735e-06
-1.48999e-07
-1.02354e-06
-1.50047e-07
-9.73261e-07
-1.51e-07
-9.227e-07
-1.51857e-07
-8.71889e-07
-1.52616e-07
-8.20853e-07
-1.53284e-07
-7.69624e-07
-1.53869e-07
-7.1822e-07
-1.54385e-07
-6.66665e-07
-1.54846e-07
-6.14966e-07
-1.55268e-07
-5.63138e-07
-1.55663e-07
-5.11182e-07
-1.5605e-07
-4.59101e-07
-1.56424e-07
-4.06898e-07
-1.56798e-07
-3.54573e-07
-1.57161e-07
-3.0213e-07
-1.57514e-07
-2.49568e-07
-1.57862e-07
-1.96887e-07
-1.58215e-07
-1.44079e-07
-1.58585e-07
-9.11365e-08
-1.58983e-07
-3.80469e-08
-1.59415e-07
1.51986e-08
-1.59872e-07
6.86015e-08
-1.60325e-07
1.2215e-07
-1.60721e-07
1.75813e-07
-1.60974e-07
2.29519e-07
-1.60949e-07
2.83144e-07
-1.60425e-07
3.36509e-07
-1.59016e-07
3.89311e-07
-1.56139e-07
4.41183e-07
-1.50809e-07
4.9115e-07
-1.40833e-07
-1.16934e-07
5.42601e-07
-8.08379e-10
1.38509e-08
9.49933e-09
1.18159e-08
4.76004e-08
-2.53073e-08
1.14897e-07
-8.49658e-08
1.94015e-07
-1.41817e-07
2.66571e-07
-1.80498e-07
3.23213e-07
-1.98438e-07
3.63063e-07
-2.00156e-07
3.89621e-07
-1.91581e-07
4.07243e-07
-1.77363e-07
4.19459e-07
-1.60377e-07
4.28547e-07
-1.4217e-07
4.35738e-07
-1.23536e-07
4.41568e-07
-1.04886e-07
4.46223e-07
-8.64368e-08
4.4971e-07
-6.83096e-08
4.52002e-07
-5.05743e-08
4.53068e-07
-3.32687e-08
4.52921e-07
-1.64125e-08
4.51606e-07
-1.31043e-11
4.49247e-07
1.59465e-08
4.46065e-07
3.15079e-08
4.42376e-07
4.67174e-08
4.38512e-07
6.1625e-08
4.34745e-07
7.6243e-08
4.31165e-07
9.0503e-08
4.27551e-07
1.04219e-07
4.23247e-07
1.17011e-07
4.17138e-07
1.28226e-07
4.07829e-07
1.36852e-07
3.94045e-07
1.41539e-07
3.75179e-07
1.40786e-07
3.51692e-07
1.33253e-07
3.25338e-07
1.18087e-07
2.98933e-07
9.53451e-08
2.75731e-07
6.59652e-08
2.58199e-07
3.17322e-08
2.46899e-07
-4.20402e-09
2.3705e-07
-3.56648e-08
2.20537e-07
-5.27728e-08
1.92694e-07
-5.05617e-08
1.53735e-07
-3.20173e-08
1.04975e-07
-3.29562e-09
4.53099e-08
3.30653e-08
-3.12739e-08
7.69757e-08
-1.33159e-07
1.26943e-07
-2.63714e-07
1.8308e-07
-4.22017e-07
2.44687e-07
-6.03756e-07
3.08512e-07
-7.95099e-07
3.70789e-07
-9.82892e-07
4.2652e-07
-1.15665e-06
4.71778e-07
-1.30774e-06
5.04233e-07
-1.43236e-06
5.23465e-07
-1.53107e-06
5.3055e-07
-1.60553e-06
5.26833e-07
-1.65902e-06
5.1395e-07
-1.69628e-06
4.93677e-07
-1.72264e-06
4.67851e-07
-1.7429e-06
4.38352e-07
-1.7608e-06
4.06925e-07
-1.77885e-06
3.7506e-07
-1.79847e-06
3.4393e-07
-1.82023e-06
3.14385e-07
-1.8441e-06
2.86968e-07
-1.86972e-06
2.61963e-07
-1.8966e-06
2.39452e-07
-1.92423e-06
2.19369e-07
-1.95214e-06
2.01549e-07
-1.97994e-06
1.85776e-07
-2.00733e-06
1.71813e-07
-2.03408e-06
1.59414e-07
-2.06002e-06
1.48352e-07
-2.08504e-06
1.3842e-07
-2.10906e-06
1.29431e-07
-2.13203e-06
1.21227e-07
-2.15392e-06
1.1367e-07
-2.17471e-06
1.06648e-07
-2.1944e-06
1.00062e-07
-2.21298e-06
9.3837e-08
-2.23047e-06
8.79065e-08
-2.24686e-06
8.2218e-08
-2.26216e-06
7.67278e-08
-2.27639e-06
7.14002e-08
-2.28954e-06
6.62052e-08
-2.30163e-06
6.11177e-08
-2.31266e-06
5.61165e-08
-2.32263e-06
5.11832e-08
-2.33155e-06
4.63018e-08
-2.33942e-06
4.14564e-08
-2.34624e-06
3.66359e-08
-2.35201e-06
3.1829e-08
-2.35674e-06
2.70277e-08
-2.36041e-06
2.22255e-08
-2.36304e-06
1.74187e-08
-2.36461e-06
1.26056e-08
-2.36511e-06
7.78624e-09
-2.36453e-06
2.96192e-09
-2.36285e-06
-1.86779e-09
-2.36004e-06
-6.70926e-09
-2.35607e-06
-1.15778e-08
-2.35094e-06
-1.64845e-08
-2.34464e-06
-2.1428e-08
-2.33715e-06
-2.63994e-08
-2.32848e-06
-3.13931e-08
-2.31861e-06
-3.64027e-08
-2.30755e-06
-4.14237e-08
-2.29528e-06
-4.64501e-08
-2.28181e-06