/*--------------------------------*- C++ -*----------------------------------*\
| =========                 |                                                 |
| \\      /  F ield         | OpenFOAM: The Open Source CFD Toolbox           |
|  \\    /   O peration     | Version:  v2012                                 |
|   \\  /    A nd           | Website:  www.openfoam.com                      |
|    \\/     M anipulation  |                                                 |
\*---------------------------------------------------------------------------*/
FoamFile
{
    version     2.0;
    format      ascii;
    class       volVectorField;
    location    "600";
    object      U;
}
// * * * * * * * * * * * * * * * * * * * * * * * * * * * * * * * * * * * * * //

dimensions      [0 1 -1 0 0 0 0];


internalField   nonuniform List<vector> 
12225
(
(9.78903 0.0430691 0)
(9.34815 0.0786324 0)
(8.92398 0.0845228 0)
(8.52609 0.0815091 0)
(8.16948 0.0748257 0)
(7.85768 0.0664758 0)
(7.58617 0.0576358 0)
(7.35116 0.0490141 0)
(7.14898 0.0413025 0)
(6.9739 0.0348725 0)
(6.82121 0.0294814 0)
(6.68902 0.0248527 0)
(6.57431 0.0207171 0)
(6.47632 0.0169365 0)
(6.39342 0.0132674 0)
(6.32576 0.00925645 0)
(6.276 0.00504871 0)
(6.23956 -0.00633083 0)
(10.0645 0.0570928 0)
(10.2159 0.090658 0)
(10.2941 0.0904992 0)
(10.3193 0.0876213 0)
(10.3108 0.0852962 0)
(10.2795 0.0820737 0)
(10.2306 0.0780423 0)
(10.169 0.0736904 0)
(10.0997 0.0692917 0)
(10.0272 0.0650356 0)
(9.95478 0.0610442 0)
(9.88315 0.0571209 0)
(9.8139 0.0531636 0)
(9.74719 0.0490174 0)
(9.68432 0.0445051 0)
(9.62502 0.0390663 0)
(9.5712 0.0318919 0)
(9.51698 0.0196949 0)
(10.018 0.0429907 0)
(10.0741 0.0655076 0)
(10.1236 0.0685489 0)
(10.1586 0.0725722 0)
(10.1882 0.0765883 0)
(10.2131 0.0782563 0)
(10.2319 0.0779037 0)
(10.2445 0.0764278 0)
(10.2514 0.0743603 0)
(10.254 0.0719764 0)
(10.2531 0.0692758 0)
(10.2495 0.0662706 0)
(10.2437 0.0629467 0)
(10.2364 0.0592333 0)
(10.2281 0.0549349 0)
(10.2188 0.0494761 0)
(10.2087 0.0423922 0)
(10.195 0.0313014 0)
(10.0082 0.0308332 0)
(10.0414 0.0547612 0)
(10.072 0.0622688 0)
(10.0942 0.0673379 0)
(10.1134 0.0710133 0)
(10.1317 0.0723433 0)
(10.1482 0.0719903 0)
(10.1625 0.0708107 0)
(10.1748 0.0691904 0)
(10.1854 0.0672539 0)
(10.1945 0.0650344 0)
(10.2024 0.062547 0)
(10.2093 0.0597403 0)
(10.2154 0.0565106 0)
(10.2206 0.0526498 0)
(10.2251 0.0477498 0)
(10.2283 0.0415534 0)
(10.2292 0.0334922 0)
(10.005 0.0240145 0)
(10.0289 0.0482394 0)
(10.0526 0.0570969 0)
(10.0703 0.0619739 0)
(10.0854 0.065443 0)
(10.1001 0.0670189 0)
(10.1137 0.067085 0)
(10.1258 0.0662959 0)
(10.1368 0.0650055 0)
(10.1467 0.0633425 0)
(10.1559 0.0613671 0)
(10.1643 0.0590773 0)
(10.1722 0.0564247 0)
(10.1795 0.0533113 0)
(10.1863 0.0495854 0)
(10.1924 0.0450075 0)
(10.1974 0.0395021 0)
(10.2009 0.0330764 0)
(10.0033 0.0191325 0)
(10.0212 0.0418147 0)
(10.0408 0.0512861 0)
(10.0565 0.0564505 0)
(10.0699 0.0601846 0)
(10.0828 0.0621192 0)
(10.0949 0.062516 0)
(10.1059 0.0619735 0)
(10.1159 0.0608713 0)
(10.125 0.0593537 0)
(10.1336 0.0574859 0)
(10.1417 0.0552709 0)
(10.1493 0.0526807 0)
(10.1564 0.0496418 0)
(10.163 0.0460591 0)
(10.169 0.0418087 0)
(10.174 0.0369046 0)
(10.1777 0.031498 0)
(10.0022 0.0153003 0)
(10.0157 0.0358349 0)
(10.0321 0.0456329 0)
(10.0463 0.0511126 0)
(10.0586 0.0549779 0)
(10.0704 0.0571205 0)
(10.0816 0.0577602 0)
(10.0918 0.0574294 0)
(10.1012 0.0564992 0)
(10.1099 0.0551167 0)
(10.118 0.0533514 0)
(10.1257 0.0512199 0)
(10.1329 0.0487139 0)
(10.1396 0.0457876 0)
(10.1459 0.0423928 0)
(10.1515 0.0384838 0)
(10.1562 0.0341219 0)
(10.16 0.029494 0)
(10.0016 0.0126238 0)
(10.0122 0.0312337 0)
(10.0263 0.0410752 0)
(10.0393 0.0466898 0)
(10.0508 0.0505519 0)
(10.0618 0.0527868 0)
(10.0723 0.0535854 0)
(10.082 0.0534138 0)
(10.091 0.0526167 0)
(10.0994 0.0513415 0)
(10.1072 0.0496631 0)
(10.1146 0.0476099 0)
(10.1215 0.0451903 0)
(10.128 0.0423826 0)
(10.1339 0.0391722 0)
(10.1392 0.035558 0)
(10.1437 0.0316199 0)
(10.1474 0.0275313 0)
(10.0012 0.010644 0)
(10.0098 0.0274568 0)
(10.022 0.0371022 0)
(10.0339 0.0427604 0)
(10.0447 0.0465957 0)
(10.055 0.0488773 0)
(10.065 0.049787 0)
(10.0743 0.0497373 0)
(10.0829 0.0490459 0)
(10.091 0.0478619 0)
(10.0985 0.0462628 0)
(10.1057 0.0442882 0)
(10.1123 0.0419585 0)
(10.1185 0.0392728 0)
(10.1242 0.0362385 0)
(10.1292 0.0328819 0)
(10.1336 0.0292871 0)
(10.1373 0.0256107 0)
(10.0009 0.00891201 0)
(10.0077 0.0237556 0)
(10.0182 0.0329631 0)
(10.0289 0.0385606 0)
(10.0389 0.0423132 0)
(10.0486 0.0446006 0)
(10.0579 0.0455978 0)
(10.0667 0.0456535 0)
(10.075 0.0450596 0)
(10.0827 0.0439662 0)
(10.09 0.0424536 0)
(10.0968 0.0405715 0)
(10.1031 0.0383513 0)
(10.109 0.035811 0)
(10.1144 0.0329759 0)
(10.1192 0.0298898 0)
(10.1234 0.0266342 0)
(10.127 0.0233442 0)
(10.0007 0.00737718 0)
(10.006 0.0201643 0)
(10.0148 0.028713 0)
(10.0244 0.0341194 0)
(10.0336 0.0377176 0)
(10.0425 0.0399524 0)
(10.0512 0.0409996 0)
(10.0595 0.0411409 0)
(10.0673 0.0406352 0)
(10.0746 0.0396314 0)
(10.0815 0.0382141 0)
(10.088 0.0364394 0)
(10.0941 0.0343495 0)
(10.0996 0.0319777 0)
(10.1047 0.0293624 0)
(10.1093 0.0265564 0)
(10.1133 0.0236339 0)
(10.1169 0.0207073 0)
(10.0005 0.00601065 0)
(10.0047 0.0167409 0)
(10.0119 0.0244094 0)
(10.0203 0.0294666 0)
(10.0287 0.0328293 0)
(10.0369 0.0349439 0)
(10.0449 0.0359899 0)
(10.0527 0.0361888 0)
(10.06 0.0357586 0)
(10.0669 0.0348436 0)
(10.0734 0.03353 0)
(10.0796 0.0318793 0)
(10.0853 0.0299412 0)
(10.0905 0.02776 0)
(10.0953 0.0253812 0)
(10.0997 0.0228604 0)
(10.1035 0.0202612 0)
(10.1069 0.0176742 0)
(10.0004 0.00479056 0)
(10.0037 0.0135225 0)
(10.0096 0.0201158 0)
(10.0168 0.024648 0)
(10.0243 0.0276791 0)
(10.0318 0.029596 0)
(10.0391 0.0305765 0)
(10.0463 0.0307922 0)
(10.0532 0.0304189 0)
(10.0597 0.0295875 0)
(10.0658 0.0283842 0)
(10.0715 0.0268723 0)
(10.0769 0.0251059 0)
(10.0818 0.0231334 0)
(10.0864 0.0210038 0)
(10.0905 0.0187688 0)
(10.0941 0.0164817 0)
(10.0974 0.0142143 0)
(10.0003 0.00369047 0)
(10.0029 0.0105133 0)
(10.0077 0.0158848 0)
(10.0139 0.019717 0)
(10.0205 0.0223036 0)
(10.0272 0.0239365 0)
(10.0339 0.0247762 0)
(10.0405 0.0249553 0)
(10.0469 0.0246094 0)
(10.053 0.0238494 0)
(10.0587 0.0227566 0)
(10.0641 0.0213922 0)
(10.0691 0.0198099 0)
(10.0737 0.0180582 0)
(10.078 0.0161834 0)
(10.0819 0.0142312 0)
(10.0854 0.0122445 0)
(10.0886 0.0102797 0)
(10.0003 0.00268266 0)
(10.0023 0.00768685 0)
(10.0063 0.0117408 0)
(10.0115 0.0147154 0)
(10.0173 0.0167355 0)
(10.0233 0.0179908 0)
(10.0294 0.0186082 0)
(10.0355 0.018688 0)
(10.0413 0.0183285 0)
(10.0469 0.0176181 0)
(10.0523 0.0166259 0)
(10.0573 0.015408 0)
(10.062 0.0140123 0)
(10.0664 0.012483 0)
(10.0704 0.0108601 0)
(10.0741 0.00918238 0)
(10.0775 0.00748243 0)
(10.0806 0.00580483 0)
(10.0002 0.00173719 0)
(10.0019 0.00499099 0)
(10.0052 0.00766447 0)
(10.0097 0.00964923 0)
(10.0148 0.0109804 0)
(10.0202 0.0117595 0)
(10.0257 0.012071 0)
(10.0312 0.0119826 0)
(10.0366 0.0115608 0)
(10.0419 0.0108679 0)
(10.0468 0.00995732 0)
(10.0515 0.0088738 0)
(10.056 0.00765669 0)
(10.0601 0.00634153 0)
(10.0639 0.00496072 0)
(10.0674 0.00354399 0)
(10.0707 0.00211573 0)
(10.0737 0.000710254 0)
(10.0002 0.000817878 0)
(10.0016 0.00234468 0)
(10.0045 0.00358259 0)
(10.0084 0.00447039 0)
(10.013 0.00499917 0)
(10.0179 0.00520641 0)
(10.023 0.00512878 0)
(10.0281 0.00480307 0)
(10.0331 0.00426449 0)
(10.0379 0.0035502 0)
(10.0426 0.00269251 0)
(10.047 0.00172214 0)
(10.0512 0.000665441 0)
(10.0551 -0.00045204 0)
(10.0588 -0.00160811 0)
(10.0622 -0.00278158 0)
(10.0653 -0.00395629 0)
(10.0682 -0.00510663 0)
(10.0002 -7.18193e-05 0)
(10.0015 -0.00022277 0)
(10.0042 -0.000407163 0)
(10.0079 -0.000636492 0)
(10.0122 -0.000942252 0)
(10.0168 -0.00134311 0)
(10.0216 -0.00184428 0)
(10.0264 -0.00244265 0)
(10.0312 -0.0031291 0)
(10.0358 -0.00389443 0)
(10.0403 -0.00472549 0)
(10.0445 -0.00561005 0)
(10.0485 -0.0065335 0)
(10.0523 -0.0074832 0)
(10.0558 -0.00844555 0)
(10.0591 -0.00940888 0)
(10.0622 -0.0103632 0)
(10.0651 -0.0112912 0)
(10.0002 -0.000903046 0)
(10.0016 -0.00261655 0)
(10.0043 -0.00411703 0)
(10.0081 -0.00536514 0)
(10.0124 -0.0064262 0)
(10.017 -0.00737606 0)
(10.0217 -0.00826099 0)
(10.0265 -0.00910567 0)
(10.0312 -0.00992836 0)
(10.0357 -0.0107431 0)
(10.04 -0.0115574 0)
(10.0442 -0.0123733 0)
(10.0481 -0.0131896 0)
(10.0518 -0.0140031 0)
(10.0553 -0.0148093 0)
(10.0586 -0.015603 0)
(10.0616 -0.0163801 0)
(10.0645 -0.0171287 0)
(10.0002 -0.00170741 0)
(10.0018 -0.00491079 0)
(10.0048 -0.00761564 0)
(10.0089 -0.00974001 0)
(10.0135 -0.0114263 0)
(10.0182 -0.0128233 0)
(10.023 -0.0140138 0)
(10.0279 -0.0150462 0)
(10.0326 -0.0159646 0)
(10.0371 -0.016805 0)
(10.0415 -0.0175937 0)
(10.0456 -0.0183435 0)
(10.0496 -0.0190652 0)
(10.0532 -0.0197624 0)
(10.0567 -0.0204392 0)
(10.06 -0.0210944 0)
(10.063 -0.0217288 0)
(10.0659 -0.0223339 0)
(10.0002 -0.00255456 0)
(10.0022 -0.0072766 0)
(10.0058 -0.0111068 0)
(10.0104 -0.0139623 0)
(10.0153 -0.0161446 0)
(10.0204 -0.0178892 0)
(10.0254 -0.0193057 0)
(10.0304 -0.0204614 0)
(10.0352 -0.0214279 0)
(10.0399 -0.0222659 0)
(10.0443 -0.0230107 0)
(10.0485 -0.023689 0)
(10.0524 -0.024316 0)
(10.0562 -0.0249068 0)
(10.0596 -0.0254675 0)
(10.0629 -0.0260041 0)
(10.066 -0.0265176 0)
(10.0689 -0.0270042 0)
(10.0003 -0.0035131 0)
(10.0028 -0.009862 0)
(10.0072 -0.0147297 0)
(10.0126 -0.0181521 0)
(10.018 -0.0206947 0)
(10.0234 -0.0226924 0)
(10.0288 -0.0242531 0)
(10.034 -0.0254685 0)
(10.039 -0.0264402 0)
(10.0438 -0.0272448 0)
(10.0483 -0.0279291 0)
(10.0526 -0.0285237 0)
(10.0567 -0.0290543 0)
(10.0604 -0.02954 0)
(10.064 -0.0299941 0)
(10.0673 -0.0304235 0)
(10.0704 -0.030833 0)
(10.0733 -0.0312185 0)
(10.0004 -0.00467046 0)
(10.0038 -0.0128071 0)
(10.0094 -0.0185661 0)
(10.0157 -0.0223528 0)
(10.0217 -0.0251394 0)
(10.0275 -0.0273034 0)
(10.0332 -0.0289303 0)
(10.0388 -0.0301418 0)
(10.044 -0.0310778 0)
(10.049 -0.0318259 0)
(10.0537 -0.0324335 0)
(10.0581 -0.0329363 0)
(10.0622 -0.0333675 0)
(10.0661 -0.0337506 0)
(10.0698 -0.0341042 0)
(10.0731 -0.0344368 0)
(10.0763 -0.034755 0)
(10.0793 -0.0350543 0)
(10.0006 -0.00613042 0)
(10.0053 -0.0163027 0)
(10.0125 -0.0226729 0)
(10.0198 -0.0265751 0)
(10.0264 -0.0294916 0)
(10.0328 -0.0317535 0)
(10.0389 -0.0333826 0)
(10.0449 -0.0345465 0)
(10.0504 -0.0354203 0)
(10.0557 -0.0360929 0)
(10.0606 -0.0366099 0)
(10.0652 -0.0370128 0)
(10.0696 -0.0373388 0)
(10.0736 -0.0376205 0)
(10.0774 -0.0378767 0)
(10.0809 -0.0381221 0)
(10.0842 -0.038361 0)
(10.0873 -0.0385897 0)
(10.0009 -0.00801934 0)
(10.0075 -0.0205312 0)
(10.017 -0.0270957 0)
(10.0254 -0.0308596 0)
(10.0327 -0.0337843 0)
(10.0396 -0.0360596 0)
(10.0464 -0.0376409 0)
(10.0529 -0.0387437 0)
(10.0589 -0.0395541 0)
(10.0646 -0.0401493 0)
(10.0699 -0.0405707 0)
(10.0749 -0.0408633 0)
(10.0795 -0.0410746 0)
(10.0838 -0.0412413 0)
(10.0878 -0.0413904 0)
(10.0915 -0.0415381 0)
(10.095 -0.0416932 0)
(10.0982 -0.0418433 0)
(10.0015 -0.0105524 0)
(10.0109 -0.0253928 0)
(10.0234 -0.0317275 0)
(10.0332 -0.0353446 0)
(10.0414 -0.0382317 0)
(10.0495 -0.0403744 0)
(10.0573 -0.0417952 0)
(10.0647 -0.0427765 0)
(10.0715 -0.0435021 0)
(10.0778 -0.0440133 0)
(10.0837 -0.0443411 0)
(10.0892 -0.0445337 0)
(10.0943 -0.0446414 0)
(10.099 -0.0447104 0)
(10.1033 -0.0447701 0)
(10.1072 -0.0448442 0)
(10.1109 -0.044944 0)
(10.1144 -0.0450464 0)
(10.0026 -0.0144877 0)
(10.017 -0.030515 0)
(10.0337 -0.0358685 0)
(10.0463 -0.039699 0)
(10.0569 -0.0429344 0)
(10.0672 -0.0450717 0)
(10.0771 -0.0463024 0)
(10.0861 -0.0470737 0)
(10.0943 -0.0475853 0)
(10.1019 -0.0478681 0)
(10.1089 -0.0479542 0)
(10.1152 -0.0479019 0)
(10.1209 -0.047773 0)
(10.1261 -0.0476189 0)
(10.1307 -0.0474809 0)
(10.1348 -0.0473866 0)
(10.1386 -0.0473483 0)
(10.1419 -0.0473138 0)
(10.0062 -0.0222846 0)
(10.0347 -0.037688 0)
(10.0605 -0.0396603 0)
(10.0808 -0.0424937 0)
(10.098 -0.0460923 0)
(10.1141 -0.0487765 0)
(10.1284 -0.0504747 0)
(10.1407 -0.0516276 0)
(10.1513 -0.0524125 0)
(10.1604 -0.0528487 0)
(10.168 -0.0529747 0)
(10.1743 -0.0528686 0)
(10.1792 -0.0526195 0)
(10.183 -0.0522956 0)
(10.1858 -0.0519857 0)
(10.1876 -0.0517545 0)
(10.1888 -0.0516191 0)
(10.1893 -0.0516169 0)
(10.0424 -0.0339216 0)
(10.1242 -0.0594124 0)
(10.1786 -0.0611075 0)
(10.2113 -0.0598143 0)
(10.2322 -0.0591687 0)
(10.245 -0.0583329 0)
(10.2503 -0.0572291 0)
(10.249 -0.0561397 0)
(10.2423 -0.0550972 0)
(10.2315 -0.054008 0)
(10.2174 -0.05283 0)
(10.2004 -0.0515827 0)
(10.1813 -0.0503122 0)
(10.1604 -0.0490898 0)
(10.1384 -0.0479855 0)
(10.1158 -0.0471047 0)
(10.0932 -0.046489 0)
(10.071 -0.0465128 0)
(9.8884 -0.0267777 0)
(9.69253 -0.0517707 0)
(9.49196 -0.0598034 0)
(9.29248 -0.0618804 0)
(9.10414 -0.0618721 0)
(8.93046 -0.0603146 0)
(8.77034 -0.057793 0)
(8.62216 -0.0548515 0)
(8.4853 -0.0517418 0)
(8.35951 -0.048529 0)
(8.24425 -0.0452828 0)
(8.13886 -0.0420717 0)
(8.0426 -0.0389446 0)
(7.95476 -0.0359562 0)
(7.87453 -0.0332277 0)
(7.80055 -0.0309467 0)
(7.73144 -0.0291384 0)
(7.66701 -0.028099 0)
(-0.00345589 0.00960368 0)
(-0.0159828 0.0157085 0)
(-0.0329543 0.0170938 0)
(-0.0516072 0.0146458 0)
(-0.0678763 0.00754434 0)
(-0.0730724 -0.003763 0)
(-0.0588447 -0.018575 -6.63626e-19)
(-0.0296832 -0.0355954 7.85609e-19)
(0.0110905 -0.0499554 0)
(0.0594337 -0.0582018 5.52974e-19)
(0.1125 -0.0605951 0)
(0.166584 -0.0587857 0)
(0.217857 -0.0540279 0)
(0.2639 -0.0473506 -2.26112e-19)
(0.303462 -0.039529 0)
(0.335955 -0.0310937 0)
(0.361104 -0.022352 1.81082e-19)
(0.378746 -0.0134219 0)
(0.388806 -0.00420812 0)
(0.391062 0.00551567 0)
(0.384344 0.0156531 -1.75449e-19)
(0.369151 0.0256604 0)
(0.345894 0.0347708 -1.89431e-19)
(0.315042 0.0421832 0)
(0.277432 0.0471273 0)
(0.234401 0.0488328 -2.54842e-19)
(0.187819 0.0466376 0)
(0.140072 0.0401713 3.68449e-19)
(0.0939896 0.0296038 0)
(0.0527349 0.0160945 -6.51175e-19)
(0.0195779 0.00257809 0)
(-0.00320924 -0.00630744 0)
(-0.017685 -0.00806262 0)
(-0.02669 -0.0049181 0)
(-0.032198 -0.000403571 0)
(-0.036552 0.00248067 9.47884e-19)
(-0.0407366 0.00223917 0)
(-0.0420083 -0.00148229 -1.84433e-18)
(-0.0354451 -0.00828687 0)
(-0.0188311 -0.0171232 2.13417e-18)
(0.00728481 -0.026039 0)
(0.0402366 -0.0319665 0)
(0.0755861 -0.032588 -1.09412e-18)
(0.108347 -0.0282257 0)
(0.134048 -0.0206488 -8.05107e-19)
(0.150158 -0.0119718 7.65763e-19)
(0.156591 -0.00384048 0)
(0.154286 0.00186206 7.68983e-19)
(0.147681 0.00379182 7.92918e-19)
(0.141287 0.00346615 0)
(0.138311 0.00119862 0)
(0.146107 -0.0102761 0)
(0.156096 -0.0273354 0)
(0.159548 -0.0455614 0)
(0.141148 -0.0519071 -7.75817e-19)
(0.0949876 -0.0345084 0)
(0.00995418 0.00680041 9.23606e-19)
(-0.127663 0.0545304 0)
(-0.282367 0.0899837 0)
(-0.450626 0.114325 -2.48978e-19)
(-0.625478 0.128506 0)
(-0.799946 0.133715 1.60252e-19)
(-0.968607 0.131383 0)
(-1.12748 0.124086 0)
(-1.27408 0.114158 0)
(-1.40741 0.103085 -1.04446e-19)
(-1.52742 0.0919945 0)
(-1.63497 0.0815304 0)
(-1.73107 0.0720422 -8.96967e-20)
(-1.81696 0.0636853 0)
(-1.89395 0.0564595 -8.39911e-20)
(-1.96323 0.0502894 0)
(-2.02594 0.0450511 0)
(-2.08301 0.0406122 0)
(-2.13528 0.0368422 7.66961e-20)
(-2.18342 0.0336222 0)
(-2.22798 0.030849 0)
(-2.26943 0.0284388 7.28962e-20)
(-2.30813 0.0263208 7.17934e-20)
(-2.34438 0.0244382 0)
(-2.3784 0.0227444 6.97479e-20)
(-2.4104 0.0212045 0)
(-2.44053 0.0197878 1.35709e-19)
(-2.46889 0.0184731 0)
(-2.4956 0.0172396 1.32126e-19)
(-2.52073 0.016074 0)
(-2.54434 0.0149614 -1.28676e-19)
(-2.56648 0.0138922 0)
(-2.58718 0.0128546 0)
(-2.60648 0.0118394 0)
(-2.62438 0.0108361 1.21987e-19)
(-2.64089 0.00983603 0)
(-2.65601 0.00882845 -1.1868e-19)
(-2.66972 0.00780398 0)
(-2.68201 0.00675361 1.15371e-19)
(-2.69284 0.00567099 1.13712e-19)
(-2.70215 0.00455525 1.12049e-19)
(-2.70991 0.00341704 0)
(-2.71605 0.00229541 0)
(-2.72051 0.00126433 0)
(-2.72322 0.000397408 0)
(-2.72448 -0.000322219 0)
(-2.72452 -0.000978188 0)
(-2.72331 -0.00161724 0)
(-2.72088 -0.00224553 0)
(-2.71723 -0.0028682 -9.61945e-20)
(-2.71235 -0.00348439 -9.42502e-20)
(-2.70623 -0.00409532 0)
(-2.69888 -0.00469954 0)
(-2.69029 -0.00529772 0)
(-2.68046 -0.00588845 -8.60086e-20)
(-2.66939 -0.00647221 0)
(-2.65708 -0.00704777 0)
(-2.64354 -0.00761543 0)
(-2.62875 -0.0081742 0)
(-2.61274 -0.00872422 7.45149e-20)
(-2.5955 -0.00926474 0)
(-2.57705 -0.00979577 0)
(-2.55738 -0.0103167 -6.68867e-20)
(-2.53651 -0.0108274 6.42093e-20)
(-2.51446 -0.0113272 0)
(-2.49122 -0.0118152 5.86387e-20)
(-2.46682 -0.0122898 0)
(-2.44128 -0.0127478 -5.27644e-20)
(-2.4146 -0.0131828 0)
(-2.3868 -0.0135836 0)
(-2.35792 -0.013924 0)
(-2.32799 -0.0141767 0)
(-2.29706 -0.0142933 0)
(-2.26517 -0.0142506 6.61912e-20)
(-2.2323 -0.0143549 5.89982e-20)
(-2.1984 -0.0146945 0)
(-2.16351 -0.0150316 0)
(-2.12765 -0.0153479 0)
(-2.09088 -0.0156517 -2.80356e-20)
(-2.05321 -0.0159423 0)
(-2.01468 -0.0162204 0)
(-1.97531 -0.0164867 0)
(-1.93514 -0.0167409 7.04831e-21)
(-1.89418 -0.0169836 -1.65579e-20)
(-1.85247 -0.0172157 0)
(-1.81004 -0.0174372 0)
(-1.76693 -0.0176496 -4.71094e-20)
(-1.72315 -0.0178523 -5.80288e-20)
(-1.67873 -0.0180471 0)
(-1.63371 -0.0182336 0)
(-1.58811 -0.0184133 9.32938e-20)
(-1.54196 -0.0185821 -1.05974e-19)
(-1.49528 -0.0187475 0)
(-1.44811 -0.018899 0)
(-1.40044 -0.0190475 -1.4718e-19)
(-1.35235 -0.0191832 0)
(-1.30383 -0.0193177 0)
(-1.25495 -0.0194415 -1.94008e-19)
(-1.20568 -0.0195686 0)
(-1.1561 -0.0196893 -2.28949e-19)
(-1.10618 -0.019819 0)
(-1.05598 -0.0199471 0)
(-1.00545 -0.0200889 0)
(-0.954649 -0.020235 3.10123e-19)
(-0.90353 -0.0203935 0)
(-0.852121 -0.0205648 0)
(-0.800407 -0.020746 0)
(-0.748395 -0.0209408 0)
(-0.696085 -0.0211508 0)
(-0.643473 -0.0213795 0)
(-0.590553 -0.0216304 5.06953e-19)
(-0.537311 -0.0219073 5.43622e-19)
(-0.483733 -0.0222123 0)
(-0.429801 -0.0225456 0)
(-0.375509 -0.0229042 0)
(-0.320865 -0.0232808 -7.24904e-19)
(-0.26591 -0.0236703 0)
(-0.210723 -0.0240764 1.68951e-18)
(-0.155474 -0.0244427 -1.83013e-18)
(-0.10047 -0.0246414 -1.98794e-18)
(-0.0461356 -0.0245091 2.16579e-18)
(0.00454845 -0.0232899 -2.27503e-18)
(0.0615695 -0.0210695 2.24763e-18)
(0.0747604 -0.00991463 0)
(-1.28527e-05 0.0253697 0)
(-0.0065681 0.0442348 0)
(-0.0152105 0.0472308 1.97536e-18)
(-0.019399 0.0395333 0)
(-0.0091518 0.0188888 -2.33542e-18)
(0.0222326 -0.019632 -1.63199e-18)
(0.0644026 -0.0702116 -4.68023e-19)
(0.114797 -0.116087 -3.15369e-19)
(0.169097 -0.14799 0)
(0.22314 -0.163781 -1.9349e-19)
(0.27387 -0.165462 0)
(0.319458 -0.157 0)
(0.359262 -0.142258 2.71958e-19)
(0.393268 -0.123955 1.2749e-19)
(0.421605 -0.103961 -2.44964e-19)
(0.444563 -0.0834296 -2.38408e-19)
(0.462497 -0.0629557 -1.17261e-19)
(0.475769 -0.0427835 0)
(0.484688 -0.0228936 0)
(0.489829 -0.00311629 0)
(0.49198 0.0167246 -1.20792e-19)
(0.490739 0.0364914 0)
(0.48555 0.0558533 3.72804e-19)
(0.475685 0.0743677 0)
(0.460289 0.0913155 0)
(0.438545 0.105674 1.37912e-19)
(0.40983 0.116132 0)
(0.373964 0.121227 -1.5818e-19)
(0.331382 0.119679 -3.50923e-19)
(0.283246 0.110839 2.0039e-19)
(0.231561 0.0952538 0)
(0.179166 0.0749415 0)
(0.129351 0.0526786 0)
(0.0863172 0.0314117 -1.01201e-18)
(0.054211 0.0140445 -1.36061e-18)
(0.0352265 0.00167008 -8.80445e-19)
(0.0289883 -0.00890545 0)
(0.0368876 -0.0218725 1.80238e-18)
(0.0541946 -0.0393929 0)
(0.0798773 -0.0607386 -9.67861e-19)
(0.111175 -0.0794394 0)
(0.142246 -0.0873277 0)
(0.167319 -0.0819484 4.95267e-19)
(0.184216 -0.0663451 0)
(0.192326 -0.0455308 1.3821e-18)
(0.192478 -0.0240282 -4.84154e-19)
(0.185789 -0.00525893 0)
(0.175119 0.00609025 -5.54983e-19)
(0.162599 0.00652685 -6.05214e-19)
(0.14658 -0.0022482 0)
(0.117585 -0.0133914 0)
(0.0578689 -0.00990984 0)
(-0.0654396 0.0356708 0)
(-0.236871 0.106754 0)
(-0.422004 0.174585 2.42473e-19)
(-0.612215 0.235608 3.52912e-19)
(-0.801371 0.286952 -1.37796e-19)
(-0.985836 0.322978 0)
(-1.15888 0.34078 1.97858e-19)
(-1.31764 0.342701 -8.90353e-20)
(-1.45923 0.332244 0)
(-1.58291 0.312863 -7.44443e-20)
(-1.68932 0.288022 0)
(-1.78005 0.260632 0)
(-1.85735 0.233005 -1.31216e-19)
(-1.92355 0.206715 6.3173e-20)
(-1.98085 0.182713 -1.23989e-19)
(-2.03112 0.161412 1.21167e-19)
(-2.07588 0.142874 5.91118e-20)
(-2.11632 0.126959 0)
(-2.15332 0.113405 5.70898e-20)
(-2.18754 0.101904 0)
(-2.21944 0.0921441 0)
(-2.24937 0.0838294 0)
(-2.27755 0.0767001 5.37983e-20)
(-2.30417 0.0705349 0)
(-2.32935 0.0651482 1.04606e-19)
(-2.35319 0.0603904 -1.54822e-19)
(-2.37576 0.0561378 -5.094e-20)
(-2.39711 0.0522944 0)
(-2.4173 0.0487812 -4.96213e-20)
(-2.43634 0.0455385 0)
(-2.45427 0.0425158 -9.66792e-20)
(-2.47111 0.0396763 0)
(-2.48687 0.0369869 -9.41608e-20)
(-2.50157 0.0344248 1.85723e-19)
(-2.51521 0.0319677 9.16647e-20)
(-2.5278 0.0296002 0)
(-2.53935 0.0273065 0)
(-2.54986 0.0250738 0)
(-2.55932 0.0228905 -8.66653e-20)
(-2.56774 0.0207469 0)
(-2.57511 0.0186326 8.41329e-20)
(-2.58145 0.0165392 0)
(-2.58678 0.0144576 -2.44715e-19)
(-2.5911 0.01238 -8.027e-20)
(-2.59445 0.0102983 -7.89636e-20)
(-2.59688 0.00820702 0)
(-2.59845 0.0061194 0)
(-2.59927 0.00408601 0)
(-2.59941 0.0021807 0)
(-2.59864 0.000411878 0)
(-2.59673 -0.00128076 -1.41584e-19)
(-2.59365 -0.00293776 -1.38678e-19)
(-2.58939 -0.00456748 0)
(-2.58393 -0.006176 6.62731e-20)
(-2.57725 -0.0077626 6.47398e-20)
(-2.56937 -0.00932805 0)
(-2.56027 -0.0108702 1.2343e-19)
(-2.54995 -0.012389 0)
(-2.53841 -0.0138821 -5.86176e-20)
(-2.52564 -0.0153493 0)
(-2.51165 -0.0167884 0)
(-2.49644 -0.018199 1.06805e-19)
(-2.48001 -0.0195793 0)
(-2.46237 -0.0209285 -4.96762e-20)
(-2.44352 -0.0222452 0)
(-2.42347 -0.0235287 0)
(-2.40223 -0.0247777 -4.45135e-20)
(-2.37981 -0.0259916 -4.21567e-20)
(-2.35621 -0.0271692 0)
(-2.33145 -0.02831 3.86634e-20)
(-2.30554 -0.0294133 0)
(-2.2785 -0.0304785 -3.45785e-20)
(-2.25035 -0.0315056 -6.44302e-20)
(-2.22109 -0.0324957 0)
(-2.19075 -0.0334524 0)
(-2.15933 -0.0343842 0)
(-2.12685 -0.0352995 0)
(-2.09329 -0.0361944 -4.1539e-20)
(-2.05869 -0.0370519 -1.11659e-19)
(-2.02311 -0.0378456 0)
(-1.98659 -0.0385722 0)
(-1.94913 -0.0392461 0)
(-1.91074 -0.0398776 1.70642e-20)
(-1.87147 -0.0404696 0)
(-1.83133 -0.0410201 0)
(-1.79036 -0.0415277 -3.97204e-21)
(-1.74858 -0.0419943 2.74409e-21)
(-1.70602 -0.0424209 9.70583e-21)
(-1.6627 -0.0428088 0)
(-1.61867 -0.0431591 0)
(-1.57394 -0.043474 2.69649e-20)
(-1.52856 -0.043754 -3.14078e-20)
(-1.48253 -0.0440014 0)
(-1.43591 -0.0442163 0)
(-1.3887 -0.0444025 -5.1496e-20)
(-1.34094 -0.0445556 1.72162e-19)
(-1.29266 -0.0446843 0)
(-1.24387 -0.0447796 0)
(-1.1946 -0.0448469 7.79045e-20)
(-1.14489 -0.0448816 0)
(-1.09474 -0.0448896 1.82089e-19)
(-1.04422 -0.0448684 -9.74065e-20)
(-0.993316 -0.0448277 0)
(-0.942083 -0.0447663 1.13909e-19)
(-0.890511 -0.0446957 2.41299e-19)
(-0.83864 -0.0446146 0)
(-0.786447 -0.0445337 0)
(-0.733967 -0.044455 -1.45344e-19)
(-0.681169 -0.0443759 0)
(-0.628073 -0.0443048 3.22295e-19)
(-0.574666 -0.0442344 0)
(-0.520953 -0.0441678 0)
(-0.46693 -0.0441063 0)
(-0.412596 -0.0440534 0)
(-0.357942 -0.0440137 -2.07097e-19)
(-0.302957 -0.0439911 -2.16733e-19)
(-0.247624 -0.0439878 0)
(-0.191928 -0.0440021 0)
(-0.135858 -0.0440269 0)
(-0.0794199 -0.0440455 2.57677e-19)
(-0.0226446 -0.0440272 0)
(0.0344029 -0.0439152 -5.46799e-19)
(0.0916175 -0.043638 5.47839e-19)
(0.148733 -0.0430674 5.48957e-19)
(0.205664 -0.041998 5.47008e-19)
(0.260288 -0.0400037 5.53037e-19)
(0.31802 -0.0361176 5.55458e-19)
(0.35337 -0.0242231 0)
(0.000972447 0.0273757 0)
(0.00194907 0.0500613 0)
(0.00622655 0.0475549 -2.14437e-18)
(0.02329 0.0191705 -1.7108e-18)
(0.0624192 -0.042831 1.03305e-18)
(0.118967 -0.121741 6.31054e-19)
(0.181092 -0.192012 -3.28124e-22)
(0.239178 -0.238758 0)
(0.288832 -0.259589 0)
(0.329219 -0.259252 0)
(0.36136 -0.244388 0)
(0.386906 -0.220875 0)
(0.407384 -0.193113 -6.18858e-19)
(0.423875 -0.16388 0)
(0.437101 -0.134703 1.92218e-19)
(0.447515 -0.106335 1.89088e-19)
(0.455414 -0.0790736 0)
(0.460999 -0.0529696 0)
(0.464441 -0.0279731 0)
(0.465872 -0.00396304 0)
(0.465658 0.0193038 1.9504e-19)
(0.464099 0.0421997 0)
(0.461519 0.064997 -2.00636e-19)
(0.458086 0.0877291 0)
(0.453675 0.110097 0)
(0.447775 0.131403 0)
(0.439473 0.150512 -4.65776e-19)
(0.427477 0.16587 0)
(0.410346 0.175675 2.58302e-19)
(0.386847 0.17821 -5.53896e-19)
(0.356494 0.172305 0)
(0.32005 0.157822 0)
(0.27979 0.13573 0)
(0.239425 0.107911 4.47685e-19)
(0.203315 0.0767764 5.30772e-19)
(0.175489 0.0444077 0)
(0.159189 0.0112036 0)
(0.154534 -0.0236537 -1.46181e-18)
(0.161411 -0.0600348 -1.26688e-18)
(0.175364 -0.0934891 1.03523e-18)
(0.18808 -0.112915 0)
(0.192252 -0.111068 0)
(0.186787 -0.0921684 0)
(0.172889 -0.0634178 0)
(0.151696 -0.0326951 -7.54192e-19)
(0.124621 -0.00559658 -8.32488e-19)
(0.0915588 0.0186411 9.71878e-19)
(0.0479791 0.0383139 0)
(-0.0259994 0.0552356 0)
(-0.14652 0.100113 0)
(-0.3045 0.169238 0)
(-0.485622 0.246506 -3.76494e-19)
(-0.675942 0.323631 0)
(-0.86408 0.393186 0)
(-1.04008 0.448539 -1.93842e-19)
(-1.19877 0.488916 -1.68145e-19)
(-1.33417 0.512624 0)
(-1.44494 0.518543 2.77018e-19)
(-1.53361 0.507936 -1.2721e-19)
(-1.60378 0.484024 1.1954e-19)
(-1.65967 0.450752 0)
(-1.70542 0.412058 0)
(-1.74455 0.371388 0)
(-1.77975 0.331449 0)
(-1.81283 0.294087 9.79552e-20)
(-1.84483 0.260351 1.92011e-19)
(-1.87624 0.230651 9.28941e-20)
(-1.90723 0.204952 -9.073e-20)
(-1.93775 0.18295 0)
(-1.96772 0.164221 1.74264e-19)
(-1.99698 0.148299 1.7075e-19)
(-2.02543 0.134732 1.67496e-19)
(-2.05297 0.123105 -1.64433e-19)
(-2.07953 0.113061 0)
(-2.10507 0.104303 -2.38251e-19)
(-2.12958 0.0965868 0)
(-2.15302 0.0897129 7.68121e-20)
(-2.17542 0.0835188 7.57123e-20)
(-2.19676 0.0778749 0)
(-2.21706 0.07268 0)
(-2.23632 0.0678526 1.44488e-19)
(-2.25456 0.0633288 0)
(-2.27179 0.0590567 1.40169e-19)
(-2.28801 0.0549957 0)
(-2.30324 0.0511117 -1.35969e-19)
(-2.31747 0.0473785 -2.67901e-19)
(-2.33072 0.0437729 0)
(-2.34299 0.0402768 0)
(-2.35427 0.036874 0)
(-2.36458 0.0335503 -1.25735e-19)
(-2.37392 0.0302944 0)
(-2.38227 0.027097 -1.21675e-19)
(-2.38965 0.0239511 0)
(-2.39606 0.0208522 0)
(-2.4015 0.0177988 2.31148e-19)
(-2.40598 0.0147933 0)
(-2.4095 0.0118418 1.11479e-19)
(-2.41207 0.00895364 0)
(-2.41368 0.00613706 1.07361e-19)
(-2.41431 0.0033881 0)
(-2.4139 0.000676282 0)
(-2.41239 -0.00202578 0)
(-2.40977 -0.00471263 2.95754e-19)
(-2.40601 -0.00737088 9.626e-20)
(-2.4011 -0.00999827 0)
(-2.39503 -0.0125934 0)
(-2.38779 -0.015155 0)
(-2.37936 -0.0176811 0)
(-2.36976 -0.0201698 -8.46049e-20)
(-2.35897 -0.0226191 1.6479e-19)
(-2.34699 -0.0250269 7.97467e-20)
(-2.33382 -0.027391 -1.5501e-19)
(-2.31946 -0.0297094 -1.50027e-19)
(-2.30391 -0.0319801 -7.22299e-20)
(-2.28718 -0.034201 0)
(-2.26926 -0.0363704 -1.34693e-19)
(-2.25016 -0.0384862 0)
(-2.22989 -0.0405469 1.24141e-19)
(-2.20846 -0.0425509 5.90559e-20)
(-2.18587 -0.0444965 0)
(-2.16214 -0.0463822 -1.07806e-19)
(-2.13727 -0.0482064 -5.07492e-20)
(-2.11128 -0.0499675 0)
(-2.08418 -0.0516638 -4.58132e-20)
(-2.05598 -0.0532934 1.27198e-19)
(-2.02671 -0.0548546 0)
(-1.99637 -0.056346 0)
(-1.96498 -0.057768 0)
(-1.93255 -0.0591222 0)
(-1.8991 -0.0604146 5.50585e-20)
(-1.86465 -0.0616578 4.792e-20)
(-1.82924 -0.0628441 0)
(-1.79291 -0.0639553 0)
(-1.75565 -0.0649907 0)
(-1.71749 -0.0659566 0)
(-1.67846 -0.0668562 0)
(-1.63859 -0.0676876 0)
(-1.59789 -0.0684496 2.47263e-21)
(-1.5564 -0.0691434 -1.05572e-21)
(-1.51414 -0.0697708 0)
(-1.47114 -0.0703334 0)
(-1.42743 -0.0708332 -2.3813e-20)
(-1.38304 -0.0712723 0)
(-1.338 -0.0716526 3.89686e-20)
(-1.29234 -0.0719765 4.49639e-20)
(-1.24608 -0.0722462 0)
(-1.19925 -0.0724644 0)
(-1.15188 -0.0726312 -6.78084e-20)
(-1.10399 -0.0727505 -1.47993e-19)
(-1.05561 -0.0728204 0)
(-1.00675 -0.0728397 0)
(-0.957444 -0.0728096 0)
(-0.907725 -0.0727295 -1.05129e-19)
(-0.857608 -0.0726051 1.12773e-19)
(-0.807132 -0.0724403 0)
(-0.756305 -0.0722446 2.53992e-19)
(-0.705158 -0.0720235 1.33559e-19)
(-0.653691 -0.0717869 -2.85204e-19)
(-0.601923 -0.0715394 0)
(-0.549848 -0.0712922 0)
(-0.49747 -0.0710403 -3.32662e-19)
(-0.444787 -0.0707923 -1.75545e-19)
(-0.391796 -0.0705412 0)
(-0.338496 -0.0702888 0)
(-0.284884 -0.0700371 0)
(-0.230958 -0.0697902 0)
(-0.176708 -0.0695539 -4.29822e-19)
(-0.122122 -0.0693326 0)
(-0.0671855 -0.0691285 0)
(-0.0118816 -0.0689379 0)
(0.0438013 -0.0687481 0)
(0.0998655 -0.0685349 0)
(0.156296 -0.0682583 0)
(0.213044 -0.0678469 -5.09394e-19)
(0.270025 -0.0672047 0)
(0.327037 -0.0661743 0)
(0.384093 -0.0645057 -1.05888e-18)
(0.439684 -0.0617461 5.35306e-19)
(0.497844 -0.0569491 -5.46909e-19)
(0.543378 -0.0450579 5.59016e-19)
(-0.00124119 0.026715 0)
(0.000686084 0.0390164 4.73094e-18)
(0.0186668 0.00644417 0)
(0.0670278 -0.0791125 9.28326e-19)
(0.136059 -0.183756 0)
(0.206421 -0.270297 0)
(0.264754 -0.321556 -2.98723e-19)
(0.307137 -0.338679 0)
(0.335701 -0.330987 0)
(0.354519 -0.308477 0)
(0.367293 -0.278506 0)
(0.376563 -0.245508 0)
(0.383797 -0.211837 6.93698e-19)
(0.389702 -0.178632 3.37223e-19)
(0.394544 -0.146396 -3.31031e-19)
(0.398372 -0.115334 0)
(0.401156 -0.0855089 0)
(0.402861 -0.0569134 0)
(0.403475 -0.0295112 0)
(0.403011 -0.00324723 0)
(0.401563 0.0219884 3.44947e-19)
(0.399256 0.0463468 3.47957e-19)
(0.396326 0.0699875 -3.53416e-19)
(0.393088 0.0930634 3.61444e-19)
(0.389846 0.115621 0)
(0.386786 0.137506 0)
(0.383884 0.158287 4.06349e-19)
(0.380776 0.177132 0)
(0.376665 0.192745 0)
(0.370349 0.203394 4.80692e-19)
(0.360481 0.207102 5.1223e-19)
(0.346054 0.202044 5.50147e-19)
(0.326913 0.186995 0)
(0.304086 0.161709 0)
(0.279737 0.127181 -7.48119e-19)
(0.256918 0.0853056 0)
(0.238599 0.0385647 0)
(0.226389 -0.0106329 1.05156e-18)
(0.21886 -0.0593491 -9.22946e-19)
(0.208135 -0.0939988 7.72367e-19)
(0.188127 -0.102032 0)
(0.15776 -0.0854259 0)
(0.117887 -0.0540761 1.3862e-18)
(0.0693322 -0.014279 0)
(0.0115739 0.0300085 1.73288e-18)
(-0.0664959 0.075947 2.34464e-18)
(-0.172593 0.131495 -1.78536e-18)
(-0.304077 0.201021 8.93327e-19)
(-0.460616 0.279352 0)
(-0.633286 0.36306 0)
(-0.808915 0.444546 4.41598e-19)
(-0.975923 0.516056 1.85556e-19)
(-1.12513 0.571423 0)
(-1.25124 0.608262 0)
(-1.35345 0.62731 1.30704e-19)
(-1.43272 0.630487 2.43212e-19)
(-1.49086 0.619737 0)
(-1.53194 0.597067 -2.10875e-19)
(-1.56084 0.564933 2.01552e-19)
(-1.58225 0.526348 -1.91546e-19)
(-1.60014 0.484302 0)
(-1.61731 0.441383 0)