/*--------------------------------*- C++ -*----------------------------------*\
  =========                 |
  \\      /  F ield         | OpenFOAM: The Open Source CFD Toolbox
   \\    /   O peration     | Website:  https://openfoam.org
    \\  /    A nd           | Version:  8
     \\/     M anipulation  |
\*---------------------------------------------------------------------------*/
FoamFile
{
    version     2.0;
    format      ascii;
    class       volScalarField;
    location    "3600";
    object      nuTilda;
}
// * * * * * * * * * * * * * * * * * * * * * * * * * * * * * * * * * * * * * //

dimensions      [0 2 -1 0 0 0 0];

internalField   nonuniform List<scalar> 
12225
(
0.0122671
0.00158833
0.000666932
0.000412201
0.000298001
0.000234418
0.000192049
0.000186517
0.000141364
0.000110263
9.73199e-05
9.07189e-05
8.20027e-05
7.63417e-05
7.17067e-05
7.0172e-05
6.81327e-05
7.40045e-05
0.0323823
0.00744533
0.00330642
0.00204338
0.00146818
0.00114477
0.000936743
0.000800566
0.000680242
0.000578059
0.000507246
0.00045356
0.000411866
0.000380371
0.00035202
0.000329993
0.000313754
0.00029588
0.0490123
0.01515
0.00728196
0.00457856
0.00330642
0.00258059
0.00211241
0.00178924
0.00154196
0.00134781
0.00119795
0.00107898
0.000982389
0.000902873
0.000836437
0.000781445
0.000736159
0.000687884
0.063054
0.0237783
0.0122894
0.00788815
0.00573398
0.004485
0.00367415
0.00310736
0.00268476
0.00235811
0.00210119
0.00189468
0.00172542
0.00158464
0.0014663
0.00136623
0.00128167
0.00119814
0.074932
0.0328517
0.0181452
0.0119262
0.00874549
0.00686413
0.00563081
0.00476256
0.0041175
0.00362032
0.00322735
0.00290996
0.00264904
0.00243149
0.00224806
0.00209196
0.00195835
0.00183637
0.0849536
0.0420208
0.0246655
0.0166359
0.0123325
0.00972587
0.0079954
0.00676785
0.00585346
0.00514771
0.00458846
0.00413589
0.00376337
0.00345242
0.00318986
0.002966
0.00277364
0.00260477
0.0933822
0.0510219
0.0316642
0.0219415
0.016474
0.0130717
0.0107779
0.00913552
0.00790571
0.00695341
0.00619691
0.00558368
0.00507838
0.00465634
0.00429978
0.00399563
0.00373417
0.00350821
0.0993794
0.0583363
0.0378386
0.0268568
0.0204171
0.0163053
0.0134892
0.011453
0.00991891
0.00872629
0.00777635
0.00700498
0.00636867
0.00583686
0.00538741
0.00500399
0.00467453
0.00439128
0.104023
0.0645454
0.0433804
0.0314239
0.0241571
0.0194092
0.0161097
0.0137018
0.0118766
0.0104521
0.00931443
0.00838904
0.00762486
0.00698575
0.00644545
0.0059845
0.00558859
0.00524878
0.108368
0.0708939
0.0493756
0.0365496
0.0284517
0.0230231
0.0191863
0.0163547
0.0141926
0.0124968
0.011138
0.0100304
0.00911434
0.0083476
0.0076991
0.00714579
0.00667069
0.00626298
0.112368
0.0772557
0.0557282
0.0421918
0.0332976
0.0271652
0.0227467
0.0194432
0.0168984
0.0148903
0.0132749
0.0119544
0.0108605
0.00994379
0.00916797
0.00850586
0.00793736
0.00744915
0.115994
0.0834975
0.0623053
0.0482611
0.0386474
0.0318167
0.026789
0.0229739
0.0200046
0.0176452
0.0157378
0.0141736
0.0128749
0.011785
0.0108618
0.0100736
0.00939671
0.00881464
0.119234
0.0894856
0.0689377
0.0546109
0.0443919
0.0369007
0.0312597
0.0269088
0.0234836
0.02074
0.0185096
0.0166735
0.0151449
0.01386
0.0127704
0.0118396
0.0110397
0.0103508
0.122086
0.095084
0.075415
0.0610223
0.0503361
0.0422534
0.0360231
0.0311353
0.0272402
0.024093
0.021519
0.0193909
0.017614
0.0161174
0.0148466
0.01376
0.0128257
0.0120196
0.124546
0.100135
0.0814619
0.0671725
0.056158
0.047577
0.0408126
0.0354174
0.031066
0.0275196
0.0246012
0.0221777
0.0201481
0.0184349
0.0169782
0.0157314
0.0146583
0.0137311
0.126578
0.104396
0.0866605
0.0725515
0.0613228
0.0523526
0.0451453
0.0393148
0.0345631
0.0306611
0.0274325
0.0247409
0.0224806
0.020569
0.0189413
0.0175468
0.0163454
0.0153061
0.128011
0.107322
0.0902141
0.0762353
0.0648743
0.0556509
0.0481493
0.0420254
0.0370012
0.0328553
0.0294126
0.0265352
0.0241143
0.0220643
0.0203172
0.0188191
0.0175275
0.0164083
0.128006
0.107313
0.0902048
0.0762269
0.0648674
0.0556454
0.048145
0.0420222
0.0369988
0.0328537
0.0294117
0.0265349
0.0241147
0.0220652
0.0203185
0.0188206
0.0175287
0.0164083
0.126509
0.104255
0.0864922
0.0723807
0.0611613
0.052205
0.0450128
0.0391967
0.0344584
0.0305686
0.0273506
0.0246684
0.0224163
0.0205118
0.0188903
0.0175006
0.0163024
0.0152631
0.124267
0.0995604
0.0807712
0.0664676
0.0554886
0.0469631
0.0402594
0.0349228
0.0306248
0.0271258
0.0242488
0.0218611
0.0198626
0.0181762
0.0167426
0.0155152
0.0144575
0.0135405
0.12136
0.0936399
0.0737261
0.0593348
0.0487592
0.0408249
0.0347467
0.0300003
0.0262308
0.0231928
0.0207127
0.018665
0.0169572
0.0155198
0.0142999
0.0132567
0.0123583
0.0115798
0.117686
0.0865903
0.0656967
0.0514791
0.0415374
0.0343608
0.0290184
0.0249322
0.0217348
0.0191848
0.0171184
0.0154211
0.0140106
0.0128263
0.0118229
0.0109657
0.010228
0.00958895
0.11305
0.0784122
0.056921
0.0432687
0.0342296
0.0279652
0.0234365
0.0200435
0.0174263
0.0153597
0.0136966
0.0123369
0.0112106
0.0102671
0.00946866
0.00878719
0.00820102
0.00769347
0.107169
0.0691009
0.0476372
0.035029
0.0271566
0.021922
0.0182437
0.0155401
0.0134817
0.0118706
0.0105816
0.00953198
0.00866488
0.00793965
0.00732671
0.00680378
0.00635412
0.00596495
0.0996761
0.0587036
0.0381279
0.0270699
0.0205782
0.016433
0.0135949
0.0115438
0.00999923
0.00879909
0.00784342
0.00706756
0.00642794
0.00589354
0.00544235
0.00505737
0.00472638
0.00444013
0.0901097
0.0473665
0.0287363
0.0196847
0.0146976
0.0116312
0.00957853
0.00811529
0.00702332
0.00617995
0.00551059
0.00496792
0.00452125
0.00414798
0.0038335
0.00356469
0.00333345
0.00313391
0.0779076
0.0353826
0.0198606
0.0131383
0.00966107
0.00759298
0.00623353
0.00527431
0.00456401
0.00401884
0.00358703
0.00323602
0.00294756
0.00270531
0.00250294
0.00232861
0.00217798
0.00204899
0.06238
0.0232554
0.0119461
0.00765494
0.00556339
0.00435258
0.00356727
0.00301643
0.00261313
0.00230799
0.00206674
0.001867
0.00170321
0.00156266
0.00144888
0.00134779
0.00125931
0.00118383
0.0426105
0.0117794
0.00546931
0.00341388
0.00246077
0.00192015
0.0015729
0.00132905
0.0011597
0.00103885
0.00094457
0.000858163
0.000786195
0.00072144
0.000667015
0.000616966
0.00057792
0.00053339
0.0168348
0.0025599
0.00110031
0.000684192
0.000495179
0.000389151
0.00032166
0.000270752
0.0002809
0.000338969
0.000384516
0.000373912
0.000344024
0.000314315
0.000286158
0.000252613
0.000249679
0.000182558
3.78124e-06
1.43222e-05
2.60293e-05
3.85375e-05
4.60108e-05
4.96619e-05
5.01547e-05
4.78125e-05
4.46221e-05
3.95533e-05
3.42188e-05
2.94475e-05
2.67701e-05
2.74477e-05
2.96318e-05
3.14816e-05
3.13387e-05
2.85146e-05
2.38723e-05
2.02113e-05
2.0824e-05
2.64233e-05
3.93421e-05
6.39037e-05
8.72005e-05
0.000100613
0.000113335
0.000124343
0.000134329
0.000142832
0.000150423
0.000157042
0.000162904
0.000168059
0.00017259
0.000176617
0.000180204
0.000183423
0.00018632
0.000188931
0.00019128
0.000193386
0.000195264
0.000196927
0.000198386
0.000199654
0.00020074
0.000201648
0.00020238
0.000202805
0.000203296
0.000203379
0.000203438
0.000203323
0.000203045
0.000202631
0.000202075
0.000201383
0.000200555
0.000199593
0.000198501
0.00019728
0.000195933
0.000194463
0.000192873
0.000191166
0.000189343
0.000187408
0.000185363
0.000183212
0.000180958
0.000178604
0.000176152
0.000173606
0.000170967
0.000168238
0.000165421
0.000162517
0.000159529
0.000156458
0.000153309
0.000150083
0.000146778
0.000143381
0.000139873
0.00013624
0.000132495
0.000128677
0.000124801
0.000120796
0.000116565
0.000112132
0.000107608
0.000102987
9.83963e-05
9.44184e-05
9.15973e-05
8.98379e-05
8.85249e-05
8.73194e-05
8.61363e-05
8.49574e-05
8.37815e-05
8.26091e-05
8.14411e-05
8.02784e-05
7.91225e-05
7.79775e-05
7.68644e-05
7.59096e-05
7.49757e-05
7.40477e-05
7.31278e-05
7.22162e-05
7.13132e-05
7.04191e-05
6.95344e-05
6.86594e-05
6.77944e-05
6.69395e-05
6.60949e-05
6.52609e-05
6.44378e-05
6.3626e-05
6.28255e-05
6.20362e-05
6.1259e-05
6.05195e-05
5.98423e-05
5.91738e-05
5.85105e-05
5.78605e-05
5.72286e-05
5.6602e-05
5.59802e-05
5.53664e-05
5.47616e-05
5.41665e-05
5.35811e-05
5.30053e-05
5.2439e-05
5.1882e-05
5.13341e-05
5.07953e-05
5.02655e-05
4.97444e-05
4.92321e-05
4.87283e-05
4.82331e-05
4.77463e-05
4.72679e-05
4.67978e-05
4.63359e-05
4.58824e-05
4.5437e-05
4.5e-05
4.45712e-05
4.41509e-05
4.37392e-05
4.33361e-05
4.2942e-05
4.2557e-05
4.21814e-05
4.18154e-05
4.14593e-05
4.1113e-05
4.07767e-05
4.04501e-05
4.01327e-05
3.98238e-05
3.95215e-05
3.92259e-05
3.89281e-05
3.86414e-05
3.83124e-05
3.80567e-05
3.75489e-05
3.73541e-05
3.63033e-05
3.4909e-05
5.89797e-06
4.05882e-05
9.24648e-05
0.000153705
0.000192549
0.000214553
0.000223345
0.000221917
0.000214073
0.000198515
0.000179499
0.000161544
0.000152476
0.000157003
0.000169318
0.000177333
0.000179531
0.000180675
0.000185629
0.000194338
0.000208075
0.00022451
0.000240374
0.000256184
0.000267065
0.000276644
0.000285193
0.00029769
0.000316338
0.000330002
0.000342515
0.00035326
0.00036304
0.000372012
0.000379809
0.000386933
0.000393569
0.000399939
0.000406171
0.000412331
0.000418413
0.000424375
0.000430165
0.000435741
0.000441075
0.000446151
0.000450953
0.000455469
0.0004597
0.000463646
0.000467345
0.000470763
0.000473939
0.000476861
0.000479535
0.000481962
0.000484141
0.000486074
0.000487762
0.000489204
0.000490401
0.000491354
0.000492065
0.000492539
0.000492786
0.000492811
0.000492608
0.000492173
0.000491524
0.000490664
0.000489598
0.000488334
0.000486877
0.000485236
0.000483415
0.000481424
0.00047927
0.000476958
0.000474499
0.000471898
0.000469166
0.00046631
0.000463338
0.000460257
0.000457071
0.000453786
0.000450412
0.000446968
0.000443469
0.000439916
0.000436293
0.000432607
0.000428889
0.000425123
0.000421267
0.000417315
0.000413248
0.000409088
0.000404892
0.00040068
0.000396463
0.000392242
0.000388022
0.000383806
0.000379598
0.000375401
0.000371217
0.00036705
0.0003629
0.000358763
0.000354651
0.000350568
0.000346516
0.000342497
0.000338513
0.000334565
0.000330655
0.000326784
0.000322955
0.000319167
0.000315422
0.00031172
0.000308063
0.000304453
0.000300889
0.000297372
0.000293901
0.000290475
0.000287093
0.000283758
0.000280468
0.000277231
0.000274049
0.000270906
0.0002678
0.000264738
0.000261722
0.000258753
0.000255831
0.000252955
0.000250126
0.000247341
0.000244602
0.000241907
0.000239255
0.000236647
0.000234081
0.000231557
0.000229075
0.000226634
0.000224234
0.000221874
0.000219555
0.000217276
0.000215037
0.000212838
0.00021068
0.000208563
0.000206488
0.000204455
0.000202467
0.000200523
0.000198626
0.000196778
0.000194979
0.000193231
0.000191534
0.000189889
0.000188296
0.000186751
0.000185251
0.000183796
0.00018236
0.000180997
0.000179512
0.000178389
0.000176293
0.00017597
0.000172991
0.000172128
1.28766e-05
7.4066e-05
0.000174304
0.000251872
0.000303653
0.000333359
0.000344209
0.000341391
0.000328793
0.000309923
0.000290642
0.000278289
0.0002761
0.000282576
0.000292641
0.000303194
0.000315664
0.000332279
0.000353513
0.000378313
0.000405387
0.000433476
0.000471394
0.00051751
0.000562959
0.000606958
0.000649937
0.000693508
0.000732771
0.000764009
0.00078898
0.000808777
0.000824472
0.000836925
0.000846918
0.000855225
0.000862547
0.000869526
0.000876699
0.000884422
0.000892802
0.000901717
0.000910926
0.000920194
0.000929344
0.000938255
0.000946852
0.000955087
0.000962923
0.000970332
0.000977292
0.000983774
0.000989774
0.000995285
0.00100031
0.00100484
0.00100887
0.00101242
0.00101547
0.00101803
0.0010201
0.00102168
0.00102276
0.0010233
0.00102346
0.00102318
0.00102238
0.00102114
0.00101945
0.00101734
0.0010148
0.00101186
0.00100853
0.00100481
0.00100074
0.000996308
0.000991544
0.000986461
0.000981071
0.000975391
0.000969435
0.00096322
0.000956759
0.00095007
0.000943165
0.00093606
0.000928767
0.000921303
0.000913686
0.000905926
0.000898033
0.000890014
0.000881887
0.000873659
0.000865333
0.000856921
0.000848438
0.000839897
0.000831315
0.000822706
0.00081408
0.000805446
0.000796813
0.000788187
0.000779576
0.000770987
0.000762427
0.000753901
0.000745415
0.000736975
0.000728586
0.000720253
0.000711982
0.000703776
0.000695639
0.000687574
0.000679585
0.000671674
0.000663843
0.000656097
0.000648435
0.00064086
0.000633374
0.00062598
0.000618677
0.000611467
0.00060435
0.000597326
0.000590396
0.000583561
0.000576822
0.000570178
0.000563627
0.000557165
0.000550789
0.000544503
0.000538309
0.000532206
0.000526195
0.000520276
0.000514448
0.000508709
0.000503058
0.000497496
0.000492019
0.000486628
0.000481321
0.000476097
0.000470955
0.000465894
0.000460912
0.000456009
0.000451183
0.000446434
0.00044176
0.00043716
0.000432633
0.000428177
0.000423793
0.000419477
0.00041523
0.000411049
0.000406933
0.000402879
0.000398885
0.000394947
0.000391062
0.000387224
0.000383427
0.000379662
0.000375917
0.000372178
0.000368421
0.000364628
0.000360726
0.000356747
0.000352328
0.000348026
0.000341568
0.000330416
2.17714e-05
0.000106433
0.000220238
0.000312833
0.000375511
0.000412494
0.000427921
0.000428308
0.000418389
0.000405119
0.000397051
0.000396224
0.000405351
0.000422393
0.000444952
0.000472505
0.000505656
0.000544774
0.000589058
0.000651106
0.000724808
0.000804471
0.000888635
0.000959233
0.00102162
0.00107771
0.00112809
0.00117298
0.00121223
0.0012461
0.00127533
0.00130066
0.00132277
0.00134231
0.00135984
0.00137586
0.00139078
0.00140494
0.0014186
0.00143195
0.00144511
0.00145816
0.00147112
0.00148397
0.00149666
0.00150912
0.00152125
0.00153295
0.00154414
0.00155473
0.00156469
0.00157396
0.00158253
0.00159039
0.00159753
0.00160393
0.00160961
0.00161454
0.00161874
0.0016222
0.00162493
0.0016269
0.00162806
0.0016285
0.00162837
0.00162746
0.00162583
0.00162351
0.00162052
0.00161686
0.00161256
0.00160765
0.00160213
0.00159603
0.00158937
0.00158218
0.00157447
0.00156628
0.00155762
0.00154851
0.00153898
0.00152905
0.00151875
0.0015081
0.00149712
0.00148583
0.00147426
0.00146242
0.00145035
0.00143805
0.00142556
0.00141288
0.00140003
0.00138703
0.0013739
0.00136066
0.00134731
0.00133389
0.0013204
0.00130687
0.00129331
0.00127974
0.00126618
0.00125262
0.00123909
0.00122559
0.00121214
0.00119874
0.00118541
0.00117214
0.00115896
0.00114587
0.00113287
0.00111997
0.00110717
0.00109449
0.00108193
0.00106949
0.00105717
0.00104498
0.00103292
0.001021
0.00100921
0.000997569
0.000986065
0.000974704
0.000963487
0.000952414
0.000941487
0.000930706
0.000920073
0.000909585
0.00089924
0.000889036
0.000878969
0.000869043
0.000859257
0.000849612
0.000840109
0.000830745
0.000821521
0.000812435
0.000803485
0.00079467
0.000785987
0.000777436
0.000769015
0.000760721
0.000752554
0.00074451
0.000736589
0.000728788
0.000721106
0.000713541
0.000706091
0.000698754
0.000691529
0.000684413
0.000677404
0.000670501
0.0006637
0.000656999
0.000650396
0.000643886
0.000637466
0.00063113
0.000624874
0.000618688
0.000612564
0.000606489
0.000600447
0.000594417
0.00058837
0.000582267
0.000576046
0.000569651
0.0005629
0.000555738
0.000547517
0.000531419
2.69709e-05
0.000122011
0.000241112
0.000357832
0.000435852
0.000483014
0.000506514
0.000514938
0.000516505
0.000517488
0.000524333
0.000540419
0.000566368
0.000601229
0.000644229
0.000695391
0.000755363
0.000838665
0.000934239
0.00103038
0.00111934
0.0012037
0.00128302
0.0013557
0.00142244
0.00148384
0.00154029
0.00159214
0.00163973
0.00168349
0.00172392
0.00176148
0.00179661
0.00182968
0.00186101
0.00189085
0.00191939
0.00194678
0.0019731
0.00199843
0.00202279
0.00204619
0.00206864
0.0020901
0.00211056
0.00212999
0.00214836
0.00216564
0.00218179
0.00219681
0.00221069
0.00222341
0.002235
0.00224548
0.00225485
0.00226313
0.00227035
0.00227651
0.00228164
0.00228574
0.00228884
0.00229089
0.0022918
0.00229189
0.00229101
0.00228914
0.0022863
0.00228253
0.00227785
0.00227227
0.00226582
0.00225853
0.00225044
0.00224156
0.00223193
0.00222157
0.00221053
0.00219883
0.0021865
0.00217357
0.00216008
0.00214604
0.00213151
0.0021165
0.00210105
0.00208519
0.00206894
0.00205235
0.00203543
0.00201821
0.00200073
0.00198301
0.00196507
0.00194693
0.00192863
0.00191017
0.00189159
0.00187292
0.00185416
0.00183535
0.00181651
0.00179765
0.0017788
0.00175996
0.00174116
0.00172241
0.00170373
0.00168512
0.0016666
0.00164818
0.00162987
0.00161169
0.00159363
0.00157571
0.00155794
0.00154033
0.00152287
0.00150559
0.00148847
0.00147153
0.00145477
0.0014382
0.00142181
0.00140562
0.00138962
0.00137381
0.0013582
0.00134279
0.00132758
0.00131256
0.00129775
0.00128314
0.00126872
0.0012545
0.00124046
0.00122662
0.00121298
0.00119952
0.00118626
0.00117318
0.0011603
0.0011476
0.00113509
0.00112277
0.00111062
0.00109865
0.00108686
0.00107524
0.00106379
0.00105251
0.0010414
0.00103045
0.00101966
0.00100903
0.000998556
0.000988234
0.000978063
0.000968039
0.00095816
0.000948423
0.000938824
0.00092936
0.000920028
0.000910822
0.000901738
0.000892769
0.000883908
0.000875145
0.00086647
0.000857867
0.000849317
0.000840796
0.000832269
0.000823693
0.000815
0.000806121
0.000796889
0.000787159
0.000777202
0.000757417
3.07976e-05
0.000135317
0.000261502
0.000392462
0.000488735
0.00055034
0.000588058
0.000611445
0.000629151
0.000648424
0.000674503
0.000710039
0.000755774
0.000811986
0.000879083
0.000969505
0.00107457
0.00117624
0.00127542
0.00137089
0.00146157
0.00154755
0.00162878
0.00170523
0.00177718
0.00184499
0.001909
0.00196955
0.00202695
0.00208156
0.00213368
0.0021836
0.00223158
0.00227782
0.00232249
0.0023657
0.00240755
0.00244808
0.00248734
0.00252532
0.00256203
0.00259745
0.00263154
0.00266427
0.00269561
0.00272551
0.00275394
0.00278085
0.0028062
0.00282997
0.00285213
0.00287265
0.00289151
0.00290872
0.00292425
0.00293812
0.00295032
0.00296086
0.00296975
0.00297701
0.00298267
0.00298675
0.00298918
0.00299008
0.00298961
0.00298764
0.0029843
0.0029796
0.0029736
0.00296634
0.0029579
0.0029483
0.00293762
0.00292589
0.00291317
0.00289951
0.00288495
0.00286953
0.00285331
0.00283632
0.00281861
0.00280021
0.00278118
0.00276155
0.00274136
0.00272065
0.00269947
0.00267784
0.00265581
0.00263341
0.00261068
0.00258765
0.00256435
0.00254083
0.00251709
0.00249318
0.00246913
0.00244496
0.0024207
0.00239637
0.00237202
0.00234764
0.00232328
0.00229895
0.00227466
0.00225045
0.00222631
0.00220228
0.00217837
0.00215459
0.00213095
0.00210747
0.00208416
0.00206103
0.00203809
0.00201534
0.0019928
0.00197048
0.00194837
0.00192649
0.00190484
0.00188343
0.00186225
0.00184132
0.00182063
0.0018002
0.00178001
0.00176007
0.00174039
0.00172096
0.00170178
0.00168286
0.00166418
0.00164575
0.00162757
0.00160963
0.00159194
0.00157449
0.00155728
0.00154031
0.00152358
0.00150709
0.00149083
0.0014748
0.001459
0.00144343
0.00142808
0.00141294
0.00139803
0.00138332
0.00136882
0.00135453
0.00134044
0.00132655
0.00131286
0.00129936
0.00128604
0.00127292
0.00125997
0.0012472
0.00123461
0.00122219
0.00120993
0.00119783
0.00118589
0.00117409
0.00116243
0.00115091
0.00113949
0.00112818
0.00111694
0.00110576
0.00109459
0.00108339
0.00107209
0.00106062
0.00104881
0.0010366
0.00102442
0.00100196
3.23478e-05
0.0001425
0.000273966
0.000409847
0.000527784
0.000609002
0.000665053
0.000706969
0.000743959
0.000783268
0.000829948
0.000886947
0.000955892
0.00104816
0.0011551
0.00126166
0.00136774
0.00147108
0.00157113
0.00166748
0.00175986
0.00184829
0.00193284
0.00201369
0.00209108
0.00216527
0.00223654
0.00230517
0.0023714
0.00243547
0.00249759
0.00255795
0.00261668
0.0026739
0.00272971
0.00278415
0.00283727
0.00288907
0.00293954
0.00298868
0.00303645
0.00308281
0.00312772
0.00317112
0.00321298
0.00325323
0.00329182
0.0033287
0.00336383
0.00339714
0.00342861
0.00345819
0.00348584
0.00351154
0.00353527
0.00355699
0.0035767
0.00359438
0.00361003
0.00362366
0.00363525
0.00364483
0.00365241
0.00365803
0.00366168
0.0036633
0.00366321
0.00366123
0.00365745
0.00365193
0.00364473
0.00363589
0.00362547
0.00361354
0.00360016
0.00358539
0.0035693
0.00355196
0.00353343
0.00351378
0.00349308
0.00347139
0.00344878
0.00342532
0.00340108
0.0033761
0.00335045
0.0033242
0.0032974
0.00327009
0.00324234
0.00321418
0.00318568
0.00315686
0.00312778
0.00309847
0.00306897
0.00303932
0.00300956
0.00297971
0.00294981
0.00291989
0.00288998
0.00286009
0.00283027
0.00280053
0.00277089
0.00274137
0.00271199
0.00268277
0.00265373
0.00262487
0.00259622
0.00256779
0.00253958
0.00251162
0.0024839
0.00245644
0.00242925
0.00240233
0.00237568
0.00234933
0.00232326
0.00229748
0.002272
0.00224683
0.00222195
0.00219737
0.0021731
0.00214914
0.00212547
0.00210211
0.00207906
0.0020563
0.00203384
0.00201167
0.0019898
0.00196822
0.00194693
0.00192593
0.00190522
0.00188479
0.00186465
0.00184478
0.00182518
0.00180586
0.0017868
0.001768
0.00174946
0.00173118
0.00171315
0.00169536
0.00167782
0.00166052
0.00164345
0.00162661
0.00161001
0.00159362
0.00157745
0.0015615
0.00154576
0.00153022
0.00151489
0.00149975
0.00148479
0.00147002
0.00145542
0.00144098
0.00142668
0.00141251
0.00139845
0.00138447
0.00137053
0.00135658
0.00134256
0.00132839
0.00131392
0.00129916
0.00128416
0.00125991
3.27956e-05
0.000144125
0.000275311
0.000409431
0.000539337
0.000642644
0.000719734
0.000781083
0.000836813
0.000894607
0.000962152
0.00105405
0.00116363
0.00128532
0.00140087
0.00151211
0.00161993
0.00172449
0.00182573
0.00192359
0.00201808
0.00210928
0.00219733
0.00228242
0.00236477
0.0024446
0.00252213
0.00259759
0.00267115
0.00274298
0.00281324
0.00288204
0.00294947
0.0030156
0.00308046
0.00314407
0.00320644
0.00326755
0.00332738
0.00338587
0.00344299
0.00349868
0.00355288
0.00360553
0.00365657
0.00370592
0.00375352
0.00379931
0.00384323
0.00388522
0.00392522
0.00396319
0.00399907
0.00403283
0.00406442
0.00409382
0.004121
0.00414593
0.0041686
0.004189
0.00420713
0.00422298
0.00423656
0.00424789
0.00425697
0.00426384
0.00426857
0.00427102
0.00427145
0.00426981
0.00426614
0.00426049
0.00425293
0.0042435
0.00423227
0.0042193
0.00420465
0.00418839
0.0041706
0.00415133
0.00413066
0.00410867
0.00408542
0.00406099
0.00403546
0.00400888
0.00398133
0.00395289
0.00392362
0.00389359
0.00386286
0.0038315
0.00379957
0.00376712
0.00373423
0.00370093
0.00366729
0.00363335
0.00359917
0.0035648
0.00353027
0.00349563
0.00346093
0.00342619
0.00339146
0.00335676
0.00332213
0.00328759
0.00325317
0.0032189
0.0031848
0.00315089
0.00311718
0.0030837
0.00305047
0.00301749
0.00298478
0.00295235
0.00292022
0.00288839
0.00285687
0.00282567
0.00279479
0.00276425
0.00273404
0.00270417
0.00267464
0.00264546
0.00261663
0.00258814
0.00256
0.00253221
0.00250476
0.00247766
0.0024509
0.00242449
0.00239841
0.00237267
0.00234726
0.00232219
0.00229745
0.00227304
0.00224895
0.00222518
0.00220173
0.0021786
0.00215577
0.00213324
0.00211102
0.00208909
0.00206746
0.00204611
0.00202504
0.00200425
0.00198374
0.00196349
0.00194352
0.0019238
0.00190434
0.00188513
0.00186616
0.00184744
0.00182896
0.0018107
0.00179267
0.00177485
0.00175723
0.0017398
0.00172256
0.00170547
0.00168852
0.00167167
0.00165489
0.00163813
0.00162132
0.00160439
0.00158719
0.00156979
0.00155186
0.00152572
3.22375e-05
0.000141196
0.000268904
0.000398016
0.000521853
0.000633964
0.000727738
0.000808816
0.000891784
0.00098705
0.00109623
0.00122087
0.00135724
0.00148473
0.00160501
0.00172002
0.00183072
0.00193748
0.00204062
0.0021405
0.00223732
0.00233128
0.00242259
0.00251145
0.00259807
0.00268264
0.00276537
0.00284641
0.00292593
0.00300406
0.0030809
0.00315652
0.003231
0.00330435
0.0033766
0.00344773
0.00351773
0.00358655
0.00365416
0.00372048
0.00378547
0.00384904
0.00391112
0.00397164
0.00403052
0.00408768
0.00414304
0.00419653
0.00424808
0.00429761
0.00434507
0.00439038
0.0044335
0.00447437
0.00451295
0.0045492
0.00458308
0.00461456
0.00464362
0.00467025
0.00469443
0.00471615
0.00473543
0.00475226
0.00476666
0.00477865
0.00478826
0.00479549
0.00480042
0.00480299
0.00480338
0.00480156
0.0047976
0.00479154
0.00478343
0.00477335
0.00476135
0.0047475
0.00473186
0.0047145
0.00469549
0.0046749
0.00465281
0.00462929
0.0046044
0.00457823
0.00455084
0.00452232
0.00449272
0.00446212
0.0044306
0.00439821
0.00436504
0.00433113
0.00429656
0.00426139
0.00422568
0.0041895
0.00415289
0.00411591
0.00407863
0.00404108
0.00400332
0.0039654
0.00392736
0.00388924
0.00385108
0.00381291
0.00377478
0.00373672
0.00369875
0.00366091
0.00362322
0.0035857
0.00354839
0.00351129
0.00347444
0.00343784
0.00340152
0.00336548
0.00332975
0.00329433
0.00325924
0.00322448
0.00319006
0.00315599
0.00312227
0.00308892
0.00305593
0.0030233
0.00299104
0.00295916
0.00292765
0.0028965
0.00286573
0.00283533
0.0028053
0.00277563
0.00274633
0.0027174
0.00268883
0.00266062
0.00263277
0.00260527
0.00257813
0.00255133
0.00252487
0.00249876
0.00247297
0.00244752
0.0024224
0.00239759
0.00237311
0.00234894
0.00232507
0.00230151
0.00227825
0.00225529
0.00223261
0.00221022
0.00218811
0.00216627
0.00214471
0.0021234
0.00210235
0.00208155
0.00206098
0.00204063
0.00202049
0.00200054
0.00198075
0.00196109
0.00194152
0.001922
0.00190244
0.00188279
0.0018629
0.00184284
0.0018221
0.00179377
3.08682e-05
0.00013511
0.00025811
0.000383393
0.000505344
0.000621408
0.000732044
0.000840997
0.000955816
0.00108164
0.00121969
0.00136943
0.00151171
0.00164368
0.00176793
0.00188634
0.00200006
0.0021097
0.00221566
0.00231814
0.00241754
0.00251424
0.00260854
0.0027007
0.00279094
0.00287946
0.00296645
0.00305206
0.00313644
0.00321968
0.00330186
0.00338306
0.0034633
0.00354259
0.00362094
0.0036983
0.00377465
0.00384993
0.00392407
0.003997
0.00406864
0.00413891
0.00420772
0.00427497
0.00434058
0.00440446
0.00446651
0.00452665
0.0045848
0.00464088
0.00469481
0.00474653
0.00479597
0.00484307
0.00488777
0.00493004
0.00496983
0.0050071
0.00504183
0.005074
0.0051036
0.00513061
0.00515503
0.00517687
0.00519613
0.00521283
0.005227
0.00523865
0.00524783
0.00525455
0.00525887
0.0052608
0.00526046
0.00525785
0.00525304
0.00524607
0.00523702
0.00522594
0.0052129
0.00519796
0.0051812
0.00516268
0.00514248
0.00512066
0.0050973
0.00507247
0.00504625
0.0050187
0.0049899
0.00495993
0.00492884
0.00489672
0.00486362
0.00482963
0.00479479
0.00475919
0.00472288
0.00468593
0.00464839
0.00461033
0.00457181
0.00453288
0.0044936
0.00445402
0.00441418
0.00437413
0.00433392
0.00429359
0.00425319
0.00421274
0.00417229
0.00413188
0.00409152
0.00405127
0.00401113
0.00397115
0.00393134
0.00389172
0.00385233
0.00381317
0.00377427
0.00373565
0.00369731
0.00365927
0.00362155
0.00358415
0.00354709
0.00351037
0.003474
0.00343799
0.00340234
0.00336706
0.00333214
0.0032976
0.00326343
0.00322964
0.00319622
0.00316319
0.00313052
0.00309824
0.00306633
0.0030348
0.00300364
0.00297285
0.00294243
0.00291238
0.00288268
0.00285335
0.00282438
0.00279576
0.00276748
0.00273955
0.00271197
0.00268472
0.0026578
0.00263121
0.00260495
0.002579
0.00255338
0.00252806
0.00250305
0.00247835
0.00245393
0.00242981
0.00240596
0.00238239
0.00235908
0.00233602
0.00231319
0.00229057
0.00226814
0.00224586
0.00222369
0.00220158
0.00217947
0.00215727
0.00213487
0.00211229
0.00208899
0.00205833
2.93174e-05
0.000128791
0.000248238
0.00037247
0.000497093
0.000621009
0.000745654
0.000874973
0.00101223
0.00115947
0.00131685
0.00147861
0.0016264
0.00176283
0.00189092
0.00201268
0.00212936
0.0022418
0.00235053
0.00245594
0.00255832
0.00265788
0.00275505
0.00285018
0.00294356
0.00303544
0.00312599
0.0032154
0.00330378
0.00339124
0.00347785
0.00356366
0.00364869
0.00373294
0.00381638
0.00389898
0.00398069
0.00406143
0.00414112
0.00421968
0.00429702
0.00437303
0.00444761
0.00452067
0.00459209
0.00466178
0.00472963
0.00479555
0.00485946
0.00492124
0.00498084
0.00503816
0.00509314
0.00514571
0.00519581
0.00524339
0.0052884
0.00533082
0.00537059
0.00540771
0.00544214
0.00547389
0.00550294
0.0055293
0.00555298
0.00557398
0.00559233
0.00560805
0.00562117
0.00563173
0.00563976
0.0056453
0.00564841
0.00564913
0.00564753
0.00564365
0.00563756
0.00562931
0.00561897
0.00560661
0.00559228
0.00557607
0.00555804
0.00553826
0.0055168
0.00549374
0.00546915
0.0054431
0.00541566
0.00538691
0.00535692
0.00532574
0.00529346
0.00526015
0.00522586
0.00519067
0.00515464
0.00511783
0.00508031
0.00504214
0.00500338
0.00496408
0.00492431
0.00488412
0.00484355
0.00480266
0.0047615
0.0047201
0.00467853
0.00463681
0.00459499
0.00455311
0.00451119
0.00446929
0.00442742
0.00438562
0.00434392
0.00430235
0.00426093
0.00421967
0.00417862
0.00413778
0.00409718
0.00405682
0.00401674
0.00397693
0.00393742
0.00389822
0.00385933
0.00382077
0.00378255
0.00374467
0.00370714
0.00366996
0.00363313
0.00359667
0.00356058
0.00352485
0.00348949
0.0034545
0.00341988
0.00338564
0.00335176
0.00331826
0.00328513
0.00325237
0.00321998
0.00318795
0.00315629
0.00312499
0.00309404
0.00306345
0.00303321
0.00300332
0.00297378
0.00294458
0.00291572
0.00288719
0.002859
0.00283113
0.00280358
0.00277636
0.00274945
0.00272284
0.00269653
0.00267052
0.00264478
0.00261931
0.00259409
0.00256911
0.00254433
0.00251972
0.00249524
0.00247084
0.00244645
0.002422
0.00239737
0.00237257
0.00234706
0.00231425
2.76234e-05
0.000122193
0.000238216
0.000361768
0.000489211
0.00061992
0.00075615
0.000899681
0.00105219
0.00121417
0.00138614
0.00155208
0.00170385
0.00184415
0.00197575
0.00210062
0.00222011
0.00233516
0.00244643
0.0025544
0.00265948
0.00276195
0.00286209
0.00296009
0.00305638
0.00315123
0.0032449
0.00333756
0.00342936
0.00352041
0.00361078
0.0037005
0.0037896
0.00387806
0.00396586
0.00405293
0.00413922
0.00422465
0.00430911
0.00439252
0.00447477
0.00455574
0.00463533
0.00471341
0.00478988
0.00486463
0.00493754
0.00500851
0.00507743
0.00514422
0.00520878
0.00527102
0.00533088
0.00538827
0.00544314
0.00549543
0.00554509
0.00559207
0.00563635
0.00567789
0.00571667
0.00575269
0.00578593
0.00581639
0.00584408
0.00586902
0.00589121
0.00591069
0.00592748
0.00594162
0.00595313
0.00596207
0.00596848
0.0059724
0.00597389
0.00597302
0.00596985
0.00596442
0.0059568
0.00594705
0.00593524
0.00592144
0.00590572
0.00588814
0.00586879
0.00584773
0.00582503
0.00580078
0.00577503
0.00574786
0.00571934
0.00568953
0.00565852
0.00562636
0.00559312
0.00555887
0.00552368
0.0054876
0.00545071
0.00541306
0.00537472
0.00533574
0.00529618
0.0052561
0.00521554
0.00517456
0.00513321
0.00509154
0.00504959
0.00500741
0.00496503
0.0049225
0.00487986
0.00483715
0.00479439
0.00475162
0.00470887
0.00466618
0.00462357
0.00458106
0.00453868
0.00449646
0.00445441
0.00441255
0.00437091
0.0043295
0.00428834
0.00424744
0.00420681
0.00416646
0.00412642
0.00408668