/*--------------------------------*- C++ -*----------------------------------*\
| =========                 |                                                 |
| \\      /  F ield         | OpenFOAM: The Open Source CFD Toolbox           |
|  \\    /   O peration     | Version:  v2012                                 |
|   \\  /    A nd           | Website:  www.openfoam.com                      |
|    \\/     M anipulation  |                                                 |
\*---------------------------------------------------------------------------*/
FoamFile
{
    version     2.0;
    format      ascii;
    class       volScalarField;
    location    "3600";
    object      nuTilda;
}
// * * * * * * * * * * * * * * * * * * * * * * * * * * * * * * * * * * * * * //

dimensions      [0 2 -1 0 0 0 0];


internalField   nonuniform List<scalar> 
12225
(
0.0122671
0.00158833
0.000666932
0.0004122
0.000298016
0.000234158
0.000195366
0.000157557
0.000177093
0.000222703
0.00023039
0.000221272
0.000203463
0.000178139
0.000172627
0.000158585
0.000147171
0.000136882
0.0323823
0.00744532
0.00330641
0.00204337
0.00146819
0.00114457
0.000939066
0.000785446
0.000691133
0.000627802
0.000570646
0.000520035
0.000476783
0.000437429
0.000407122
0.000374779
0.000350013
0.000324453
0.0490123
0.01515
0.00728196
0.00457856
0.00330642
0.00258052
0.00211335
0.00178198
0.0015469
0.00137269
0.0012317
0.00111557
0.00101869
0.000936509
0.000867165
0.000804841
0.000754189
0.000701717
0.063054
0.0237783
0.0122894
0.00788815
0.00573398
0.00448498
0.00367443
0.00310422
0.00268721
0.00237002
0.00211798
0.00191325
0.00174412
0.00160235
0.00148258
0.00137879
0.00129128
0.00120476
0.074932
0.0328517
0.0181452
0.0119262
0.00874549
0.00686413
0.00563087
0.00476131
0.0041187
0.00362573
0.00323518
0.00291878
0.00265804
0.0024401
0.00225603
0.0020984
0.00196343
0.0018399
0.0849536
0.0420208
0.0246655
0.0166359
0.0123325
0.00972587
0.00799541
0.0067674
0.00585404
0.00515005
0.00459191
0.00413984
0.00376744
0.00345637
0.00319355
0.0029691
0.00277616
0.00260661
0.0933822
0.0510219
0.0316642
0.0219415
0.016474
0.0130717
0.0107779
0.00913539
0.00790598
0.00695436
0.00619833
0.00558532
0.0050801
0.00465802
0.00430138
0.00399704
0.00373536
0.00350915
0.0993794
0.0583363
0.0378386
0.0268568
0.0204171
0.0163053
0.0134892
0.011453
0.00991905
0.0087267
0.00777696
0.00700569
0.00636943
0.00583763
0.00538816
0.00500469
0.00467516
0.00439183
0.104023
0.0645454
0.0433804
0.0314239
0.0241571
0.0194092
0.0161097
0.0137018
0.0118767
0.0104523
0.00931473
0.0083894
0.00762524
0.00698615
0.00644586
0.00598491
0.00558899
0.00524916
0.108368
0.0708939
0.0493757
0.0365496
0.0284517
0.0230231
0.0191863
0.0163548
0.0141927
0.0124969
0.0111382
0.0100305
0.00911456
0.00834784
0.00769937
0.00714607
0.00667098
0.00626328
0.112368
0.0772557
0.0557282
0.0421918
0.0332976
0.0271652
0.0227468
0.0194433
0.0168984
0.0148904
0.013275
0.0119546
0.0108606
0.00994396
0.00916816
0.00850607
0.00793759
0.0074494
0.115994
0.0834975
0.0623053
0.0482611
0.0386474
0.0318167
0.026789
0.0229739
0.0200047
0.0176452
0.0157379
0.0141737
0.012875
0.0117851
0.010862
0.0100738
0.0093969
0.00881485
0.119234
0.0894856
0.0689377
0.0546109
0.0443919
0.0369007
0.0312597
0.0269089
0.0234837
0.02074
0.0185097
0.0166735
0.015145
0.0138601
0.0127705
0.0118397
0.0110398
0.010351
0.122086
0.095084
0.075415
0.0610223
0.0503361
0.0422535
0.0360231
0.0311353
0.0272402
0.0240931
0.0215191
0.0193909
0.0176141
0.0161175
0.0148467
0.0137601
0.0128258
0.0120197
0.124546
0.100135
0.0814619
0.0671726
0.056158
0.047577
0.0408126
0.0354174
0.031066
0.0275197
0.0246013
0.0221778
0.0201482
0.018435
0.0169783
0.0157315
0.0146584
0.0137312
0.126578
0.104396
0.0866605
0.0725515
0.0613228
0.0523526
0.0451453
0.0393148
0.0345631
0.0306611
0.0274325
0.024741
0.0224806
0.020569
0.0189413
0.0175468
0.0163455
0.0153062
0.128011
0.107322
0.0902141
0.0762353
0.0648743
0.0556509
0.0481493
0.0420254
0.0370012
0.0328553
0.0294126
0.0265352
0.0241143
0.0220643
0.0203171
0.0188191
0.0175275
0.0164083
0.128006
0.107313
0.0902048
0.0762269
0.0648674
0.0556454
0.048145
0.0420221
0.0369988
0.0328537
0.0294117
0.0265349
0.0241147
0.0220651
0.0203184
0.0188205
0.0175286
0.0164082
0.126509
0.104255
0.0864922
0.0723807
0.0611613
0.052205
0.0450128
0.0391967
0.0344584
0.0305685
0.0273506
0.0246684
0.0224163
0.0205118
0.0188902
0.0175006
0.0163023
0.015263
0.124267
0.0995604
0.0807712
0.0664676
0.0554886
0.0469631
0.0402594
0.0349228
0.0306248
0.0271258
0.0242487
0.0218611
0.0198625
0.0181762
0.0167425
0.0155151
0.0144574
0.0135404
0.12136
0.0936399
0.0737261
0.0593348
0.0487592
0.0408248
0.0347467
0.0300003
0.0262308
0.0231928
0.0207127
0.018665
0.0169572
0.0155197
0.0142998
0.0132566
0.0123582
0.0115797
0.117686
0.0865903
0.0656967
0.0514791
0.0415374
0.0343608
0.0290183
0.0249322
0.0217348
0.0191848
0.0171184
0.0154211
0.0140105
0.0128262
0.0118228
0.0109656
0.0102279
0.00958885
0.11305
0.0784122
0.056921
0.0432687
0.0342296
0.0279652
0.0234365
0.0200435
0.0174263
0.0153598
0.0136967
0.012337
0.0112107
0.0102671
0.00946865
0.00878716
0.00820096
0.00769339
0.107169
0.0691009
0.0476372
0.035029
0.0271566
0.021922
0.0182437
0.0155401
0.0134818
0.0118708
0.0105819
0.00953231
0.00866515
0.00793989
0.00732685
0.00680389
0.00635418
0.00596494
0.0996761
0.0587036
0.0381279
0.0270699
0.0205782
0.0164329
0.0135949
0.0115437
0.00999935
0.00879953
0.00784423
0.00706854
0.00642882
0.0058944
0.00544292
0.00505791
0.00472683
0.00444036
0.0901097
0.0473665
0.0287363
0.0196847
0.0146976
0.0116311
0.0095785
0.00811521
0.00702351
0.00618081
0.00551236
0.00497026
0.00452346
0.00415042
0.00383511
0.0035663
0.00333506
0.00313492
0.0779076
0.0353826
0.0198606
0.0131383
0.00966106
0.00759296
0.0062335
0.00527412
0.00456427
0.0040204
0.00359045
0.00324086
0.00295212
0.00271106
0.00250637
0.00233219
0.00218221
0.00205178
0.06238
0.0232554
0.0119461
0.00765493
0.00556338
0.00435255
0.00356723
0.00301619
0.00261337
0.00231042
0.00207212
0.00187482
0.00171031
0.00157289
0.00145404
0.00135328
0.00126677
0.00118923
0.0426105
0.0117794
0.00546931
0.00341388
0.00246076
0.00192014
0.0015728
0.00132962
0.00115856
0.00104155
0.00095
0.00086536
0.000793016
0.000729822
0.000674456
0.000622356
0.000583613
0.000546062
0.0168348
0.0025599
0.00110031
0.000684193
0.00049518
0.00038916
0.000321436
0.000273103
0.000272254
0.000339099
0.000377454
0.00035587
0.000326999
0.000283216
0.000288708
0.00023359
0.000267265
0.000264299
3.70915e-06
1.38338e-05
2.56108e-05
3.82457e-05
4.60392e-05
4.98351e-05
5.02215e-05
4.7792e-05
4.4583e-05
3.94337e-05
3.40879e-05
2.93599e-05
2.6752e-05
2.7321e-05
2.96403e-05
3.13288e-05
3.10993e-05
2.807e-05
2.2796e-05
1.91798e-05
1.96973e-05
2.60239e-05
3.8957e-05
6.51805e-05
8.76226e-05
0.000101046
0.000113676
0.000124643
0.00013457
0.000143037
0.000150592
0.000157183
0.00016302
0.000168153
0.000172667
0.000176679
0.000180254
0.000183462
0.00018635
0.000188954
0.000191297
0.000193398
0.000195271
0.000196929
0.000198385
0.00019965
0.000200731
0.000201635
0.00020236
0.000202901
0.000203144
0.000203376
0.000203421
0.000203302
0.000203023
0.000202608
0.000202051
0.000201357
0.000200528
0.000199566
0.000198472
0.00019725
0.000195902
0.000194431
0.00019284
0.000191132
0.000189308
0.000187371
0.000185325
0.000183172
0.000180916
0.00017856
0.000176106
0.000173556
0.000170914
0.000168181
0.000165359
0.000162449
0.000159452
0.000156369
0.000153201
0.000149947
0.000146608
0.000143185
0.000139676
0.000136078
0.000132387
0.000128592
0.00012468
0.000120635
0.000116437
0.000112069
0.000107532
0.00010288
9.83247e-05
9.43609e-05
9.15614e-05
8.98187e-05
8.85082e-05
8.73043e-05
8.61211e-05
8.49424e-05
8.37666e-05
8.25943e-05
8.14264e-05
8.02638e-05
7.9108e-05
7.79632e-05
7.68509e-05
7.58997e-05
7.49655e-05
7.40378e-05
7.31181e-05
7.22067e-05
7.13038e-05
7.041e-05
6.95255e-05
6.86507e-05
6.77859e-05
6.69312e-05
6.60868e-05
6.5253e-05
6.44301e-05
6.36185e-05
6.28181e-05
6.20289e-05
6.12519e-05
6.05151e-05
5.98379e-05
5.91694e-05
5.8506e-05
5.78565e-05
5.72252e-05
5.65983e-05
5.59763e-05
5.53624e-05
5.47576e-05
5.41624e-05
5.3577e-05
5.3001e-05
5.24345e-05
5.18772e-05
5.13291e-05
5.079e-05
5.02598e-05
4.97384e-05
4.92259e-05
4.87219e-05
4.82265e-05
4.77395e-05
4.72609e-05
4.67905e-05
4.63285e-05
4.58747e-05
4.54291e-05
4.49919e-05
4.4563e-05
4.41425e-05
4.37306e-05
4.33275e-05
4.29333e-05
4.25482e-05
4.21726e-05
4.18066e-05
4.14505e-05
4.11043e-05
4.07682e-05
4.04417e-05
4.01245e-05
3.98157e-05
3.9514e-05
3.92176e-05
3.89227e-05
3.86293e-05
3.83182e-05
3.8021e-05
3.75917e-05
3.72853e-05
3.63539e-05
3.48353e-05
5.8824e-06
3.99459e-05
9.09072e-05
0.000151933
0.000191214
0.00021358
0.000222532
0.000221116
0.000213148
0.00019749
0.00017839
0.000160492
0.000151696
0.000156438
0.000168614
0.000176131
0.00017803
0.000178819
0.00018379
0.000192721
0.000207751
0.000224938
0.000241182
0.000256478
0.000267378
0.00027684
0.000285421
0.000298251
0.000316697
0.00033032
0.000342764
0.00035347
0.000363223
0.00037215
0.000379921
0.000387024
0.000393645
0.000400004
0.000406228
0.00041238
0.000418456
0.000424411
0.000430194
0.000435764
0.000441093
0.000446164
0.000450962
0.000455474
0.000459701
0.000463651
0.00046733
0.00047076
0.000473931
0.000476852
0.000479525
0.000481949
0.000484128
0.00048606
0.000487746
0.000489187
0.000490383
0.000491335
0.000492046
0.000492519
0.000492764
0.000492788
0.000492584
0.000492149
0.000491499
0.000490637
0.00048957
0.000488304
0.000486846
0.000485203
0.000483381
0.000481387
0.000479229
0.000476915
0.000474451
0.000471846
0.000469108
0.000466244
0.000463263
0.000460175
0.000456987
0.000453709
0.000450348
0.000446913
0.000443411
0.000439848
0.000436231
0.000432564
0.000428846
0.000425072
0.00042122
0.000417267
0.000413197
0.000409038
0.000404841
0.00040063
0.000396412
0.000392192
0.000387972
0.000383757
0.000379549
0.000375352
0.00037117
0.000367003
0.000362853
0.000358717
0.000354605
0.000350523
0.000346472
0.000342454
0.000338471
0.000334524
0.000330615
0.000326745
0.000322917
0.00031913
0.000315385
0.000311685
0.000308029
0.000304419
0.000300856
0.00029734
0.000293869
0.000290444
0.000287062
0.000283727
0.000280437
0.000277202
0.00027402
0.000270877
0.000267771
0.000264708
0.000261692
0.000258722
0.0002558
0.000252923
0.000250093
0.000247307
0.000244567
0.00024187
0.000239217
0.000236607
0.000234041
0.000231516
0.000229033
0.000226591
0.00022419
0.000221829
0.000219509
0.000217229
0.000214989
0.000212789
0.000210631
0.000208513
0.000206437
0.000204404
0.000202415
0.000200472
0.000198575
0.000196727
0.000194929
0.000193182
0.000191487
0.000189845
0.000188253
0.000186712
0.000185215
0.000183763
0.000182337
0.000180965
0.000179525
0.000178312
0.00017647
0.000175938
0.000173186
0.000171873
1.28767e-05
7.44371e-05
0.000173988
0.000251177
0.000302745
0.000332289
0.000342977
0.000340008
0.000327249
0.000308314
0.000289114
0.000277084
0.000275198
0.00028196
0.000292204
0.000302963
0.000315731
0.000332557
0.000353844
0.00037885
0.000405962
0.00043391
0.000472923
0.000518827
0.000564219
0.000608138
0.000651072
0.000694616
0.000733595
0.00076461
0.000789402
0.000809065
0.000824657
0.000837035
0.000846976
0.000855251
0.000862555
0.000869528
0.000876703
0.00088443
0.000892814
0.000901728
0.000910935
0.000920199
0.000929343
0.000938249
0.000946841
0.000955072
0.000962903
0.00097031
0.000977263
0.000983744
0.00098974
0.000995248
0.00100027
0.00100479
0.00100883
0.00101237
0.00101542
0.00101798
0.00102005
0.00102162
0.0010227
0.00102325
0.0010234
0.00102311
0.00102232
0.00102107
0.00101939
0.00101727
0.00101473
0.00101179
0.00100845
0.00100473
0.00100065
0.000996224
0.000991458
0.000986372
0.000980979
0.000975296
0.000969337
0.000963118
0.000956654
0.000949961
0.000943053
0.000935947
0.000928656
0.000921195
0.000913577
0.000905815
0.000897921
0.000889906
0.000881779
0.000873548
0.000865222
0.00085681
0.000848326
0.000839785
0.000831203
0.000822594
0.000813969
0.000805335
0.000796702
0.000788077
0.000779467
0.000770879
0.00076232
0.000753795
0.000745311
0.000736872
0.000728484
0.000720153
0.000711884
0.00070368
0.000695544
0.000687481
0.000679493
0.000671584
0.000663756
0.000656011
0.000648351
0.000640777
0.000633293
0.0006259
0.000618599
0.00061139
0.000604274
0.000597251
0.000590322
0.000583488
0.000576749
0.000570105
0.000563555
0.000557092
0.000550716
0.00054443
0.000538234
0.00053213
0.000526119
0.000520198
0.000514367
0.000508626
0.000502974
0.000497408
0.00049193
0.000486536
0.000481227
0.000476001
0.000470858
0.000465794
0.000460811
0.000455906
0.000451078
0.000446327
0.000441651
0.000437049
0.000432521
0.000428064
0.000423678
0.000419362
0.000415114
0.000410933
0.000406816
0.000402763
0.000398769
0.000394832
0.000390948
0.000387111
0.000383316
0.000379552
0.00037581
0.000372074
0.000368319
0.000364534
0.000360622
0.000356677
0.000352215
0.000348033
0.000341583
0.000330084
2.18286e-05
0.00010651
0.000220174
0.00031247
0.000374804
0.000411449
0.000426583
0.000426792
0.000416785
0.000403594
0.000395851
0.000395294
0.000404794
0.000422119
0.000444915
0.000472699
0.000506061
0.000545281
0.000589532
0.000653187
0.000727137
0.000806972
0.000890736
0.000960923
0.00102304
0.00107889
0.00112907
0.00117376
0.00121282
0.00124653
0.00127563
0.00130086
0.00132289
0.00134237
0.00135987
0.00137586
0.00139076
0.00140491
0.00141857
0.00143191
0.00144507
0.00145812
0.00147108
0.00148393
0.00149662
0.00150907
0.0015212
0.00153289
0.00154408
0.00155467
0.00156462
0.00157388
0.00158245
0.00159031
0.00159744
0.00160385
0.00160952
0.00161445
0.00161865
0.0016221
0.00162482
0.0016268
0.00162795
0.00162839
0.00162826
0.00162735
0.00162572
0.00162339
0.00162039
0.00161673
0.00161243
0.00160751
0.00160199
0.00159589
0.00158923
0.00158203
0.00157432
0.00156613
0.00155746
0.00154835
0.00153882
0.00152889
0.00151859
0.00150793
0.00149695
0.00148566
0.00147408
0.00146225
0.00145017
0.00143787
0.00142537
0.00141269
0.00139985
0.00138685
0.00137372
0.00136047
0.00134712
0.0013337
0.00132021
0.00130668
0.00129313
0.00127956
0.00126599
0.00125244
0.00123891
0.00122541
0.00121196
0.00119856
0.00118523
0.00117197
0.00115879
0.0011457
0.0011327
0.0011198
0.00110701
0.00109433
0.00108177
0.00106933
0.00105702
0.00104483
0.00103278
0.00102086
0.00100907
0.00099743
0.000985928
0.000974569
0.000963353
0.000952282
0.000941356
0.000930576
0.000919943
0.000909456
0.000899111
0.000888906
0.000878838
0.00086891
0.000859123
0.000849477
0.000839971
0.000830605
0.000821378
0.000812289
0.000803336
0.000794517
0.000785831
0.000777277
0.000768852
0.000760556
0.000752385
0.000744339
0.000736415
0.000728612
0.000720927
0.00071336
0.000705908
0.000698569
0.000691342
0.000684224
0.000677214
0.00067031
0.000663508
0.000656808
0.000650204
0.000643695
0.000637276
0.000630942
0.000624687
0.000618503
0.000612382
0.000606309
0.00060027
0.000594244
0.000588199
0.000582102
0.00057588
0.000569506
0.000562703
0.000555731
0.000547308
0.000531127
2.6963e-05
0.000121972
0.000240962
0.000357458
0.000435177
0.000482039
0.000505326
0.00051368
0.000515305
0.000516527
0.000523752
0.000540258
0.000566625
0.000601879
0.000645268
0.000696842
0.000757413
0.000841212
0.000937206
0.00103287
0.00112158
0.00120569
0.00128473
0.00135715
0.00142366
0.00148485
0.00154112
0.0015928
0.00164025
0.00168389
0.00172421
0.00176169
0.00179675
0.00182977
0.00186106
0.00189087
0.00191938
0.00194674
0.00197305
0.00199836
0.00202271
0.0020461
0.00206854
0.00208999
0.00211045
0.00212988
0.00214824
0.00216551
0.00218166
0.00219668
0.00221055
0.00222327
0.00223486
0.00224533
0.00225469
0.00226297
0.00227019
0.00227635
0.00228147
0.00228557
0.00228867
0.00229071
0.00229162
0.00229171
0.00229083
0.00228895
0.00228611
0.00228234
0.00227765
0.00227206
0.00226561
0.00225832
0.00225022
0.00224134
0.00223171
0.00222135
0.0022103
0.0021986
0.00218626
0.00217333
0.00215983
0.0021458
0.00213126
0.00211625
0.0021008
0.00208493
0.00206868
0.00205209
0.00203516
0.00201795
0.00200046
0.00198274
0.0019648
0.00194666
0.00192835
0.0019099
0.00189132
0.00187264
0.00185389
0.00183508
0.00181623
0.00179738
0.00177852
0.00175969
0.00174089
0.00172215
0.00170346
0.00168486
0.00166634
0.00164792
0.00162962
0.00161143
0.00159338
0.00157547
0.0015577
0.00154009
0.00152264
0.00150536
0.00148824
0.00147131
0.00145455
0.00143798
0.0014216
0.00140541
0.00138941
0.0013736
0.001358
0.00134259
0.00132738
0.00131236
0.00129755
0.00128294
0.00126852
0.00125429
0.00124026
0.00122642
0.00121277
0.00119931
0.00118604
0.00117297
0.00116008
0.00114738
0.00113487
0.00112253
0.00111038
0.00109841
0.00108661
0.00107499
0.00106354
0.00105226
0.00104114
0.00103019
0.0010194
0.00100876
0.000998285
0.000987961
0.000977788
0.000967763
0.000957883
0.000948145
0.000938546
0.000929083
0.000919752
0.000910547
0.000901465
0.000892498
0.00088364
0.000874881
0.000866209
0.00085761
0.000849065
0.000840548
0.000832026
0.000823455
0.000814766
0.000805897
0.000796645
0.000787045
0.000776893
0.000757147
3.08065e-05
0.000135316
0.000261411
0.000392205
0.000488198
0.000549578
0.000587178
0.000610588
0.000628473
0.000648065
0.000674552
0.000710522
0.000756681
0.000813302
0.00088094
0.000971791
0.00107714
0.00117873
0.00127778
0.00137301
0.00146345
0.00154921
0.00163021
0.00170645
0.00177822
0.00184585
0.00190971
0.00197012
0.0020274
0.0020819
0.00213393
0.00218378
0.00223169
0.00227788
0.0023225
0.00236567
0.00240748
0.00244798
0.00248721
0.00252517
0.00256186
0.00259726
0.00263134
0.00266406
0.00269538
0.00272528
0.0027537
0.0027806
0.00280595
0.00282971
0.00285187
0.00287238
0.00289125
0.00290845
0.00292398
0.00293785
0.00295005
0.00296059
0.00296948
0.00297674
0.0029824
0.00298647
0.0029889
0.0029898
0.00298933
0.00298736
0.00298402
0.00297931
0.0029733
0.00296605
0.0029576
0.002948
0.00293731
0.00292558
0.00291286
0.00289919
0.00288462
0.00286921
0.00285298
0.00283598
0.00281827
0.00279987
0.00278084
0.0027612
0.00274101
0.0027203
0.00269911
0.00267748
0.00265544
0.00263304
0.00261031
0.00258728
0.00256398
0.00254045
0.00251672
0.00249281
0.00246875
0.00244458
0.00242032
0.002396
0.00237164
0.00234727
0.00232291
0.00229858
0.0022743
0.00225008
0.00222595
0.00220193
0.00217802
0.00215424
0.00213061
0.00210713
0.00208382
0.0020607
0.00203776
0.00201502
0.00199248
0.00197016
0.00194806
0.00192618
0.00190453
0.00188312
0.00186195
0.00184103
0.00182034
0.00179991
0.00177972
0.00175979
0.00174011
0.00172068
0.0017015
0.00168258
0.0016639
0.00164547
0.00162728
0.00160934
0.00159165
0.00157419
0.00155698
0.00154001
0.00152327
0.00150678
0.00149051
0.00147448
0.00145868
0.0014431
0.00142774
0.0014126
0.00139768
0.00138297
0.00136847
0.00135417
0.00134008
0.00132619
0.00131249
0.00129899
0.00128567
0.00127254
0.0012596
0.00124683
0.00123424
0.00122182
0.00120956
0.00119747
0.00118553
0.00117373
0.00116208
0.00115056
0.00113915
0.00112784
0.00111661
0.00110543
0.00109427
0.00108307
0.00107178
0.00106032
0.00104851
0.00103636
0.00102408
0.00100165
3.23486e-05
0.000142485
0.000273873
0.000409611
0.000527349
0.000608423
0.000664438
0.000706454
0.000743678
0.000783335
0.000830434
0.000887877
0.000957394
0.0010501
0.00115734
0.00126393
0.00136996
0.00147318
0.00157307
0.00166922
0.00176141
0.00184964
0.00193401
0.00201469
0.00209192
0.00216596
0.0022371
0.00230561
0.00237174
0.00243571
0.00249775
0.00255803
0.0026167
0.00267386
0.00272962
0.00278402
0.00283709
0.00288885
0.0029393
0.0029884
0.00303615
0.00308248
0.00312737
0.00317076
0.00321261
0.00325284
0.00329143
0.0033283
0.00336341
0.00339672
0.00342819
0.00345776
0.00348541
0.00351111
0.00353483
0.00355655
0.00357626
0.00359394
0.00360959
0.00362322
0.00363481
0.0036444
0.00365197
0.00365759
0.00366124
0.00366286
0.00366277
0.00366078
0.00365701
0.00365149
0.00364428
0.00363544
0.00362502
0.00361309
0.0035997
0.00358493
0.00356884
0.0035515
0.00353297
0.00351331
0.00349261
0.00347092
0.00344831
0.00342485
0.0034006
0.00337562
0.00334998
0.00332372
0.00329691
0.00326961
0.00324185
0.0032137
0.00318519
0.00315637
0.00312729
0.00309798
0.00306848
0.00303884
0.00300907
0.00297922
0.00294932
0.00291941
0.00288949
0.00285962
0.0028298
0.00280006
0.00277042
0.0027409
0.00271153
0.00268232
0.00265328
0.00262443
0.00259578
0.00256735
0.00253915
0.00251119
0.00248348
0.00245602
0.00242884
0.00240192
0.00237528
0.00234893
0.00232287
0.00229709
0.00227162
0.00224644
0.00222157
0.002197
0.00217273
0.00214876
0.0021251
0.00210174
0.00207868
0.00205592
0.00203346
0.00201129
0.00198941
0.00196783
0.00194654
0.00192553
0.00190482
0.00188438
0.00186423
0.00184435
0.00182475
0.00180542
0.00178636
0.00176756
0.00174901
0.00173073
0.00171269
0.0016949
0.00167736
0.00166005
0.00164298
0.00162614
0.00160953
0.00159315
0.00157698
0.00156103
0.00154529
0.00152976
0.00151443
0.00149929
0.00148434
0.00146957
0.00145498
0.00144054
0.00142625
0.00141209
0.00139804
0.00138406
0.00137013
0.00135619
0.00134217
0.00132801
0.00131355
0.00129882
0.00128378
0.00125955
3.27894e-05
0.000144074
0.000275153
0.00040912
0.000538823
0.000642035
0.000719163
0.000780654
0.000836648
0.00089484
0.000963245
0.00105582
0.00116595
0.00128742
0.00140289
0.00151406
0.00162177
0.0017262
0.00182729
0.00192499
0.00201931
0.00211035
0.00219824
0.00228318
0.0023654
0.0024451
0.00252252
0.00259787
0.00267133
0.00274308
0.00281326
0.00288199
0.00294935
0.00301542
0.00308022
0.00314379
0.00320612
0.00326719
0.00332698
0.00338544
0.00344254
0.0034982
0.00355238
0.00360501
0.00365603
0.00370536
0.00375295
0.00379873
0.00384264
0.00388462
0.00392462
0.00396258
0.00399846
0.00403221
0.0040638
0.0040932
0.00412037
0.0041453
0.00416797
0.00418837
0.0042065
0.00422235
0.00423593
0.00424726
0.00425635
0.00426321
0.00426794
0.00427039
0.00427082
0.00426918
0.00426551
0.00425987
0.0042523
0.00424287
0.00423164
0.00421866
0.00420402
0.00418776
0.00416996
0.0041507
0.00413003
0.00410804
0.00408479
0.00406036
0.00403482
0.00400824
0.0039807
0.00395225
0.00392298
0.00389295
0.00386222
0.00383086
0.00379893
0.00376649
0.00373359
0.0037003
0.00366666
0.00363272
0.00359854
0.00356417
0.00352965
0.00349502
0.00346031
0.00342558
0.00339085
0.00335616
0.00332153
0.003287
0.00325259
0.00321832
0.00318423
0.00315032
0.00311662
0.00308315
0.00304992
0.00301695
0.00298425
0.00295183
0.0029197
0.00288787
0.00285636
0.00282516
0.00279429
0.00276375
0.00273355
0.00270368
0.00267416
0.00264498
0.00261615
0.00258766
0.00255952
0.00253173
0.00250429
0.00247718
0.00245042
0.002424
0.00239792
0.00237218
0.00234677
0.00232169
0.00229694
0.00227253
0.00224843
0.00222466
0.0022012
0.00217806
0.00215523
0.0021327
0.00211047
0.00208853
0.00206689
0.00204554
0.00202447
0.00200368
0.00198317
0.00196292
0.00194294
0.00192323
0.00190377
0.00188456
0.0018656
0.00184688
0.0018284
0.00181015
0.00179212
0.00177431
0.0017567
0.00173928
0.00172204
0.00170496
0.00168802
0.00167118
0.00165441
0.00163766
0.00162086
0.00160394
0.00158675
0.00156937
0.00155143
0.0015253
3.22263e-05
0.00014111
0.000268677
0.000397592
0.000521186
0.000633034
0.000726756
0.000808125
0.000891981
0.000987849
0.00109762
0.0012227
0.00135914
0.00148652
0.00160669
0.00172159
0.00183218
0.00193882
0.00204183
0.00214156
0.00223824
0.00233206
0.00242324
0.00251197
0.00259847
0.00268293
0.00276555
0.0028465
0.00292593
0.00300398
0.00308074
0.00315629
0.00323071
0.003304
0.0033762
0.00344728
0.00351723
0.00358602
0.00365359
0.00371988
0.00378484
0.00384838
0.00391044
0.00397094
0.0040298
0.00408695
0.00414229
0.00419577
0.00424731
0.00429683
0.00434428
0.00438959
0.0044327
0.00447357
0.00451214
0.00454838
0.00458226
0.00461374
0.0046428
0.00466942
0.0046936
0.00471533
0.0047346
0.00475144
0.00476584
0.00477783
0.00478743
0.00479467
0.0047996
0.00480217
0.00480255
0.00480074
0.00479678
0.00479071
0.00478261
0.00477253
0.00476053
0.00474668
0.00473104
0.00471368
0.00469467
0.00467408
0.00465199
0.00462847
0.00460358
0.00457741
0.00455003
0.0045215
0.00449191
0.00446131
0.00442979
0.00439741
0.00436423
0.00433033
0.00429576
0.00426059
0.00422489
0.0041887
0.0041521
0.00411513
0.00407785
0.00404031
0.00400256
0.00396464
0.0039266
0.00388849
0.00385033
0.00381218
0.00377405
0.003736
0.00369804
0.0036602
0.00362252
0.00358501
0.00354771
0.00351062
0.00347377
0.00343718
0.00340087
0.00336484
0.00332912
0.00329371
0.00325862
0.00322387
0.00318945
0.00315539
0.00312168
0.00308832
0.00305534
0.00302271
0.00299046
0.00295858
0.00292706
0.00289592
0.00286515
0.00283474
0.00280471
0.00277504
0.00274573
0.0027168
0.00268822
0.00266001
0.00263215
0.00260465
0.0025775
0.00255069
0.00252423
0.00249811
0.00247232
0.00244687
0.00242174
0.00239693
0.00237244
0.00234827
0.0023244
0.00230084
0.00227758
0.00225462
0.00223195
0.00220956
0.00218745
0.00216562
0.00214406
0.00212277
0.00210172
0.00208093
0.00206037
0.00204003
0.0020199
0.00199996
0.00198017
0.00196053
0.00194097
0.00192145
0.00190191
0.00188227
0.00186239
0.00184234
0.0018216
0.00179328
3.08519e-05
0.000135015
0.000257911
0.000383079
0.000504932
0.000620965
0.000731702
0.000841038
0.000956345
0.00108264
0.00122108
0.0013711
0.00151326
0.00164511
0.00176924
0.00188755
0.00200115
0.00211068
0.00221652
0.00231888
0.00241815
0.00251473
0.00260892
0.00270096
0.00279109
0.00287951
0.00296641
0.00305193
0.00313622
0.00321939
0.00330151
0.00338264
0.00346282
0.00354206
0.00362035
0.00369767
0.00377397
0.00384921
0.00392332
0.00399622
0.00406783
0.00413807
0.00420686
0.00427409
0.00433968
0.00440354
0.00446557
0.0045257
0.00458384
0.00463991
0.00469384
0.00474555
0.00479498
0.00484207
0.00488677
0.00492903
0.00496882
0.00500609
0.00504082
0.00507299
0.00510258
0.00512959
0.00515401
0.00517585
0.00519511
0.00521181
0.00522598
0.00523763
0.00524681
0.00525353
0.00525785
0.00525979
0.00525945
0.00525684
0.00525202
0.00524506
0.005236
0.00522493
0.00521189
0.00519695
0.00518019
0.00516167
0.00514147
0.00511965
0.0050963
0.00507147
0.00504525
0.0050177
0.00498891
0.00495894
0.00492785
0.00489573
0.00486264
0.00482865
0.00479382
0.00475822
0.00472191
0.00468497
0.00464744
0.00460939
0.00457087
0.00453195
0.00449267
0.00445309
0.00441326
0.00437322
0.00433302
0.0042927
0.00425231
0.00421187
0.00417143
0.00413103
0.00409068
0.00405043
0.00401031
0.00397033
0.00393053
0.00389093
0.00385155
0.0038124
0.00377351
0.00373489
0.00369657
0.00365854
0.00362082
0.00358343
0.00354638
0.00350966
0.0034733
0.00343729
0.00340164
0.00336636
0.00333145
0.00329691
0.00326274
0.00322895
0.00319553
0.00316249
0.00312982
0.00309753
0.00306562
0.00303408
0.00300292
0.00297212
0.0029417
0.00291164
0.00288195
0.00285261
0.00282363
0.00279501
0.00276673
0.0027388
0.00271121
0.00268396
0.00265704
0.00263045
0.00260419
0.00257825
0.00255263
0.00252732
0.00250232
0.00247761
0.00245321
0.00242909
0.00240526
0.0023817
0.00235839
0.00233534
0.00231252
0.00228991
0.00226749
0.00224522
0.00222306
0.00220097
0.00217886
0.00215667
0.00213428
0.00211172
0.00208842
0.00205777
2.93032e-05
0.000128716
0.000248093
0.000372273
0.000496891
0.000620881
0.000745795
0.000875379
0.00101303
0.00116068
0.00131847
0.00148005
0.00162764
0.00176393
0.0018919
0.00201354
0.00213012
0.00224244
0.00235107
0.00245636
0.00255864
0.00265809
0.00275515
0.00285018
0.00294347
0.00303525
0.00312572
0.00321504
0.00330334
0.00339073
0.00347728
0.00356303
0.003648
0.0037322
0.00381559
0.00389815
0.00397981
0.00406051
0.00414017
0.0042187
0.00429601
0.004372
0.00444656
0.00451959
0.004591
0.00466067
0.00472851
0.00479442
0.00485831
0.00492009
0.00497967
0.00503699
0.00509196
0.00514452
0.00519462
0.00524219
0.0052872
0.00532961
0.00536939
0.0054065
0.00544094
0.00547268
0.00550174
0.00552809
0.00555177
0.00557277
0.00559112
0.00560684
0.00561997
0.00563052
0.00563855
0.0056441
0.00564721
0.00564793
0.00564633
0.00564245
0.00563636
0.00562812
0.00561778
0.00560542
0.0055911
0.00557489
0.00555685
0.00553708
0.00551562
0.00549256
0.00546798
0.00544193
0.0054145
0.00538575
0.00535576
0.00532459
0.00529231
0.005259
0.00522472
0.00518953
0.00515351
0.0051167
0.00507919
0.00504103
0.00500228
0.00496299
0.00492323
0.00488304
0.00484248
0.0048016
0.00476045
0.00471906
0.0046775
0.00463579
0.00459398
0.00455211
0.00451021
0.00446831
0.00442646
0.00438467
0.00434298
0.00430142
0.00426001
0.00421877
0.00417772
0.0041369
0.0040963
0.00405596
0.00401588
0.00397609
0.00393658
0.00389739
0.00385851
0.00381996
0.00378174
0.00374386
0.00370633
0.00366915
0.00363233
0.00359587
0.00355978
0.00352405
0.00348868
0.00345369
0.00341907
0.00338483
0.00335095
0.00331745
0.00328431
0.00325155
0.00321915
0.00318712
0.00315545
0.00312415
0.0030932
0.00306261
0.00303237
0.00300248
0.00297294
0.00294374
0.00291488
0.00288636
0.00285817
0.00283031
0.00280277
0.00277555
0.00274865
0.00272205
0.00269575
0.00266975
0.00264402
0.00261856
0.00259336
0.00256838
0.00254361
0.00251901
0.00249454
0.00247015
0.00244578
0.00242133
0.00239672
0.00237193
0.00234643
0.00231362
2.76156e-05
0.000122127
0.000238107
0.000361653
0.000489142
0.00061997
0.000756393
0.00090019
0.00105297
0.00121524
0.00138747
0.00155321
0.00170478
0.00184493
0.0019764
0.00210116
0.00222055
0.00233549
0.00244665
0.00255453
0.0026595
0.00276187
0.00286192
0.00295983
0.00305602
0.0031508
0.00324438
0.00333697
0.0034287
0.00351968
0.00360998
0.00369965
0.0037887
0.00387711
0.00396486
0.00405189
0.00413815
0.00422353
0.00430797
0.00439135
0.00447357
0.00455452
0.00463408
0.00471215
0.0047886
0.00486333
0.00493623
0.00500718
0.0050761
0.00514288
0.00520743
0.00526966
0.00532951
0.0053869
0.00544176
0.00549405
0.0055437
0.00559068
0.00563496
0.0056765
0.00571528
0.0057513
0.00578454
0.005815
0.00584269
0.00586763
0.00588983
0.00590931
0.0059261
0.00594023
0.00595175
0.00596069
0.0059671
0.00597102
0.00597251
0.00597165
0.00596848
0.00596305
0.00595543
0.00594569
0.00593388
0.00592008
0.00590436
0.00588679
0.00586744
0.00584639
0.0058237
0.00579944
0.0057737
0.00574653
0.00571801
0.00568822
0.00565721
0.00562505
0.00559182
0.00555758
0.00552239
0.00548632
0.00544943
0.00541179
0.00537346
0.00533449
0.00529494
0.00525487
0.00521432
0.00517335
0.00513201
0.00509035
0.00504841
0.00500624
0.00496388
0.00492136
0.00487873
0.00483603
0.00479328
0.00475053
0.00470779