/*--------------------------------*- C++ -*----------------------------------*\
  =========                 |
  \\      /  F ield         | OpenFOAM: The Open Source CFD Toolbox
   \\    /   O peration     | Website:  https://openfoam.org
    \\  /    A nd           | Version:  8
     \\/     M anipulation  |
\*---------------------------------------------------------------------------*/
FoamFile
{
    version     2.0;
    format      ascii;
    class       volScalarField;
    location    "3600";
    object      p;
}
// * * * * * * * * * * * * * * * * * * * * * * * * * * * * * * * * * * * * * //

dimensions      [0 2 -2 0 0 0 0];

internalField   nonuniform List<scalar> 
12225
(
514.676
55.528
2.36369
0.281578
-1.89889
-3.37444
-3.81168
-4.02209
-4.23183
-4.36873
-4.41587
-4.42548
-4.42847
-4.45643
-4.50981
-4.57625
-4.72163
-4.94418
-122.179
0.238781
-2.71853
-0.765217
-2.21659
-3.52503
-3.95275
-4.13685
-4.28053
-4.38452
-4.45944
-4.51776
-4.56869
-4.60106
-4.62199
-4.64753
-4.71414
-4.80815
-200.646
-16.1485
-2.34655
-0.35844
-1.90092
-3.24491
-3.77231
-4.02255
-4.19524
-4.31949
-4.41218
-4.47938
-4.528
-4.55323
-4.56827
-4.58382
-4.61569
-4.59885
-110.616
-10.9742
-2.17725
-0.432148
-1.78785
-3.02893
-3.60142
-3.9086
-4.11787
-4.26366
-4.36603
-4.43671
-4.48542
-4.51399
-4.53132
-4.53914
-4.53809
-4.4694
-61.5729
-8.14597
-3.62271
-1.21015
-2.01537
-2.99848
-3.52937
-3.84914
-4.07165
-4.22633
-4.33396
-4.4086
-4.45996
-4.49107
-4.50634
-4.50372
-4.47751
-4.38735
-45.7309
-8.78541
-5.25892
-2.20049
-2.43012
-3.10127
-3.53673
-3.8337
-4.04968
-4.20351
-4.31256
-4.38928
-4.44172
-4.47263
-4.48418
-4.47342
-4.43333
-4.33878
-35.7948
-9.27667
-6.38071
-3.12494
-2.92214
-3.29023
-3.60414
-3.85503
-4.05045
-4.19563
-4.30162
-4.3774
-4.42901
-4.45874
-4.46766
-4.45305
-4.40906
-4.32199
-27.7782
-8.90745
-6.97418
-3.8032
-3.36221
-3.49906
-3.70112
-3.90061
-4.06997
-4.20223
-4.30199
-4.37474
-4.42465
-4.45349
-4.46182
-4.44751
-4.40652
-4.33177
-21.6903
-8.52041
-7.13488
-4.31107
-3.72951
-3.70667
-3.81696
-3.96531
-4.10561
-4.22188
-4.31294
-4.38101
-4.42846
-4.4564
-4.4651
-4.45313
-4.41813
-4.35713
-16.613
-8.14109
-7.08855
-4.75596
-4.08382
-3.93504
-3.95991
-4.05336
-4.15973
-4.25594
-4.3354
-4.397
-4.44123
-4.46841
-4.47859
-4.4711
-4.44516
-4.40068
-12.6393
-7.68129
-6.90657
-5.10227
-4.40745
-4.17102
-4.12262
-4.16217
-4.23237
-4.30574
-4.37133
-4.42505
-4.46555
-4.49235
-4.50535
-4.5045
-4.49023
-4.46405
-9.69944
-7.14921
-6.62968
-5.32711
-4.67932
-4.39783
-4.29516
-4.28743
-4.32261
-4.37227
-4.42279
-4.46782
-4.50447
-4.53153
-4.5487
-4.55629
-4.55539
-4.5481
-7.6665
-6.60517
-6.30646
-5.43209
-4.88377
-4.59798
-4.46436
-4.42121
-4.4265
-4.45427
-4.49026
-4.52686
-4.56017
-4.58835
-4.61086
-4.62807
-4.64114
-4.65204
-6.37142
-6.11351
-5.98619
-5.44084
-5.01642
-4.75825
-4.61681
-4.55316
-4.53715
-4.54774
-4.57181
-4.60166
-4.63291
-4.66334
-4.6921
-4.71934
-4.74592
-4.77328
-5.62318
-5.72286
-5.70951
-5.39135
-5.08643
-4.87352
-4.7423
-4.67275
-4.64575
-4.64595
-4.6626
-4.6887
-4.71997
-4.75399
-4.78963
-4.82667
-4.86547
-4.90681
-5.24388
-5.46068
-5.5086
-5.32805
-5.11552
-4.94846
-4.83617
-4.77118
-4.7425
-4.73964
-4.75431
-4.78058
-4.81452
-4.85366
-4.89663
-4.94282
-4.99211
-5.04467
-5.10265
-5.34478
-5.41745
-5.29945
-5.13541
-4.99629
-4.89863
-4.84073
-4.81561
-4.81541
-4.83325
-4.86385
-4.90343
-4.94947
-5.00037
-5.05515
-5.11332
-5.17464
-5.14039
-5.40059
-5.47469
-5.34853
-5.1747
-5.02896
-4.92869
-4.87147
-4.84954
-4.85437
-4.87856
-4.91638
-4.96374
-5.01782
-5.07672
-5.13923
-5.20461
-5.27241
-5.39268
-5.65504
-5.69073
-5.47559
-5.22636
-5.03597
-4.91484
-4.85175
-4.83268
-4.84495
-4.87858
-4.9264
-4.98353
-5.04671
-5.11386
-5.18364
-5.25525
-5.32826
-6.00208
-6.13688
-6.04263
-5.63511
-5.24711
-4.98732
-4.84078
-4.77581
-4.76628
-4.79262
-4.84116
-4.90298
-4.97249
-5.04629
-5.12231
-5.19937
-5.27682
-5.35445
-7.2497
-6.88952
-6.49419
-5.76187
-5.18309
-4.85296
-4.69632
-4.64615
-4.66006
-4.71054
-4.78074
-4.86071
-4.94498
-5.03047
-5.11567
-5.19984
-5.28272
-5.36444
-9.64121
-7.9646
-6.98261
-5.7719
-4.97957
-4.61216
-4.48194
-4.47369
-4.52851
-4.61381
-4.71151
-4.8126
-4.91259
-5.00977
-5.10358
-5.19411
-5.28164
-5.36666
-13.9824
-9.39108
-7.4032
-5.56957
-4.59479
-4.26424
-4.2151
-4.27973
-4.39186
-4.51929
-4.64735
-4.76975
-4.88469
-4.992
-5.09277
-5.18822
-5.27912
-5.36647
-20.89
-10.954
-7.55422
-5.05729
-4.01592
-3.83591
-3.93005
-4.0942
-4.2723
-4.44312
-4.59961
-4.74078
-4.86764
-4.98224
-5.08744
-5.18576
-5.2785
-5.36679
-29.7366
-11.9494
-7.03357
-4.12618
-3.26413
-3.37807
-3.67117
-3.94696
-4.18929
-4.3973
-4.57586
-4.73001
-4.8644
-4.98252
-5.0893
-5.18849
-5.28138
-5.36926
-43.1065
-12.614
-5.47285
-2.72903
-2.41335
-2.96355
-3.48441
-3.86256
-4.15385
-4.38616
-4.5779
-4.73796
-4.87418
-4.99121
-5.09663
-5.1954
-5.28728
-5.37408
-84.5995
-17.3735
-3.66416
-1.26552
-1.69612
-2.72195
-3.43634
-3.87014
-4.17373
-4.41086
-4.60699
-4.76796
-4.89984
-5.00753
-5.10558
-5.20246
-5.29213
-5.37702
-177.886
-26.8497
-3.68022
-0.770299
-1.5352
-2.84319
-3.61425
-4.01545
-4.27135
-4.46745
-4.65137
-4.81607
-4.95318
-5.04865
-5.13327
-5.22472
-5.30346
-5.3806
-154.79
-9.62735
-3.27246
-1.06838
-1.84321
-3.221
-3.91385
-4.22522
-4.4178
-4.55932
-4.70266
-4.8542
-5.00735
-5.11867
-5.20602
-5.30228
-5.37566
-5.44116
428.057
66.6054
7.05589
1.59933
-0.915709
-2.85705
-3.65313
-3.9949
-4.31056
-4.57744
-4.70762
-4.75649
-4.80047
-4.90902
-5.03872
-5.1316
-5.23735
-5.34149
-8.5255
-8.51267
-8.50204
-8.54341
-8.63645
-8.74014
-8.82006
-8.86007
-8.86372
-8.84606
-8.81864
-8.79006
-8.76839
-8.75959
-8.7646
-8.77724
-8.78846
-8.79359
-8.79282
-8.79075
-8.79524
-8.82795
-8.91817
-9.08953
-9.34254
-9.66031
-10.0315
-10.4453
-10.8863
-11.3383
-11.7863
-12.2183
-12.625
-12.9998
-13.3384
-13.6384
-13.8987
-14.1195
-14.3012
-14.445
-14.5522
-14.624
-14.6619
-14.6673
-14.6413
-14.5854
-14.5012
-14.391
-14.2561
-14.0942
-13.9028
-13.6831
-13.4379
-13.1689
-12.8773
-12.5643
-12.2308
-11.8779
-11.5066
-11.1179
-10.713
-10.2929
-9.85885
-9.41192
-8.95331
-8.48421
-8.00582
-7.51934
-7.02597
-6.52688
-6.02325
-5.51621
-5.00687
-4.49632
-3.9856
-3.47571
-2.96761
-2.46221
-1.96037
-1.4629
-0.970557
-0.48404
-0.00399692
0.46898
0.934356
1.39165
1.84043
2.28033
2.71103
3.13228
3.54387
3.94562
4.33736
4.71907
5.09098
5.45311
5.80499
6.14623
6.47682
6.79699
7.10698
7.407
7.69724
7.97787
8.24908
8.51107
8.76405
9.00824
9.24386
9.47111
9.69022
9.90143
10.105
10.3012
10.4902
10.6722
10.8476
11.0166
11.1793
11.3361
11.4871
11.6326
11.7728
11.9078
12.038
12.1634
12.2843
12.4009
12.5134
12.6218
12.7264
12.8276
12.9255
13.0202
13.1117
13.2
13.2853
13.3678
13.4476
13.5247
13.5995
13.6718
13.7419
13.8097
13.8755
13.9393
14.0011
14.0611
14.1193
14.1757
14.2305
14.2836
14.3352
14.3852
14.4336
14.4807
14.5263
14.5704
14.6132
14.6547
14.6947
14.7335
14.7709
14.8071
14.8419
14.8755
14.9079
14.9392
14.9693
14.9985
15.0268
15.0546
15.082
15.1097
15.1384
15.1692
15.2046
15.2462
15.3041
15.3645
-8.58295
-8.61421
-8.68816
-8.78176
-8.88523
-8.97743
-9.03868
-9.06306
-9.04601
-8.98555
-8.89579
-8.79897
-8.71735
-8.66607
-8.64401
-8.64081
-8.65037
-8.67581
-8.7111
-8.73133
-8.75567
-8.83363
-8.99339
-9.23295
-9.53983
-9.91081
-10.3366
-10.7967
-11.2696
-11.7374
-12.1875
-12.6107
-13.0005
-13.353
-13.6665
-13.9407
-14.1761
-14.3736
-14.5344
-14.6597
-14.7507
-14.8084
-14.8338
-14.8279
-14.7914
-14.725
-14.6292
-14.5038
-14.3496
-14.1696
-13.9675
-13.7436
-13.4969
-13.2276
-12.9364
-12.624
-12.2912
-11.9391
-11.5686
-11.1807
-10.7765
-10.357
-9.92354
-9.47714
-9.01897
-8.55024
-8.07213
-7.58585
-7.0926
-6.59355
-6.08987
-5.5827
-5.07315
-4.56231
-4.05121
-3.54088
-3.03225
-2.52625
-2.02375
-1.52554
-1.0324
-0.545022
-0.064065
0.409875
0.876254
1.33458
1.78441
2.22536
2.65706
3.07923
3.49159
3.8939
4.28595
4.66763
5.03902
5.40032
5.75175
6.09332
6.42489
6.74634
7.05773
7.35917
7.65081
7.93284
8.20542
8.46876
8.72305
8.96852
9.20539
9.43391
9.65429
9.86676
10.0715
10.2689
10.4591
10.6423
10.8188
10.9889
11.1527
11.3105
11.4626
11.609
11.7502
11.8862
12.0174
12.1439
12.2659
12.3836
12.4971
12.6067
12.7124
12.8143
12.9123
13.0071
13.0987
13.1872
13.2728
13.3555
13.4356
13.5131
13.5881
13.6607
13.7311
13.7993
13.8654
13.9294
13.9916
14.0518
14.1103
14.167
14.222
14.2754
14.3272
14.3774
14.4261
14.4734
14.5192
14.5636
14.6065
14.6482
14.6884
14.7273
14.7649
14.8012
14.8363
14.87
14.9026
14.9339
14.9642
14.9935
15.022
15.0498
15.0774
15.1051
15.1339
15.1646
15.1994
15.2389
15.2926
15.3424
-8.70997
-8.7918
-8.90977
-9.01559
-9.09849
-9.15233
-9.17295
-9.15913
-9.10955
-9.02646
-8.91893
-8.80355
-8.70379
-8.63924
-8.61049
-8.60567
-8.62468
-8.6814
-8.785
-8.93205
-9.12239
-9.36314
-9.65717
-9.9963
-10.3684
-10.7641
-11.1735
-11.5848
-11.9873
-12.3739
-12.7399
-13.0814
-13.3958
-13.6814
-13.9371
-14.1626
-14.3575
-14.5221
-14.6564
-14.7608
-14.8356
-14.8814
-14.8985
-14.8872
-14.8482
-14.7817
-14.6882
-14.5677
-14.4201
-14.2464
-14.0481
-13.8261
-13.581
-13.3134
-13.0239
-12.7133
-12.3824
-12.0321
-11.6634
-11.2771
-10.8745
-10.4565
-10.0243
-9.57911
-9.12198
-8.65414
-8.17678
-7.69111
-7.19831
-6.69957
-6.19606
-5.68892
-5.17927
-4.6682
-4.15675
-3.64594
-3.13674
-2.63005
-2.12676
-1.62768
-1.13357
-0.64515
-0.163076
0.31205
0.779679
1.23932
1.69052
2.13291
2.56613
2.9899
3.40399
3.80819
4.20235
4.58639
4.96027
5.32401
5.67764
6.02116
6.35455
6.67781
6.991
7.29425
7.5877
7.87151
8.14586
8.41094
8.66696
8.91412
9.15266
9.3828
9.60477
9.81879
10.0251
10.224
10.4156
10.6002
10.7781
10.9495
11.1146
11.2737
11.427
11.5747
11.717
11.8541
11.9863
12.1136
12.2364
12.3548
12.469
12.5792
12.6855
12.788
12.8871
12.9829
13.0755
13.165
13.2515
13.3351
13.416
13.4943
13.57
13.6434
13.7144
13.7832
13.8499
13.9145
13.9772
14.038
14.0969
14.1541
14.2096
14.2634
14.3156
14.3662
14.4153
14.4629
14.509
14.5537
14.597
14.6389
14.6794
14.7186
14.7564
14.793
14.8282
14.8622
14.8949
14.9265
14.9569
14.9863
15.0149
15.0428
15.0704
15.0981
15.1266
15.1567
15.1902
15.2268
15.2742
15.3077
-8.74939
-8.84683
-8.9481
-9.03462
-9.09906
-9.13876
-9.15122
-9.13381
-9.08655
-9.01443
-8.9287
-8.84615
-8.78494
-8.75796
-8.77008
-8.82338
-8.92177
-9.06887
-9.26531
-9.50608
-9.78234
-10.0869
-10.4138
-10.7566
-11.11
-11.4688
-11.8275
-12.1812
-12.5251
-12.8551
-13.168
-13.4611
-13.7322
-13.9797
-14.2023
-14.3991
-14.5695
-14.7131
-14.8297
-14.9192
-14.9817
-15.0172
-15.0259
-15.0078
-14.9632
-14.8921
-14.795
-14.6721
-14.5238
-14.351
-14.1541
-13.9337
-13.6902
-13.4242
-13.1364
-12.8275
-12.4982
-12.1495
-11.7823
-11.3975
-10.9962
-10.5793
-10.1482
-9.70383
-9.2474
-8.7801
-8.30314
-7.8177
-7.32497
-6.82614
-6.32239
-5.81486
-5.30467
-4.79292
-4.28067
-3.76892
-3.25865
-2.75078
-2.2462
-1.74573
-1.25014
-0.760141
-0.276411
0.200446
0.669875
1.13138
1.5845
2.02886
2.4641
2.88994
3.30614
3.71251
4.10889
4.49522
4.87142
5.23748
5.59336
5.93905
6.27455
6.59989
6.91517
7.22048
7.51598
7.80182
8.07818
8.34524
8.6032
8.85229
9.09271
9.32468
9.54845
9.76422
9.97225
10.1728
10.3661
10.5523
10.7318
10.9047
11.0713
11.2318
11.3864
11.5354
11.679
11.8173
11.9507
12.0792
12.2032
12.3227
12.4379
12.5492
12.6565
12.7601
12.8603
12.9571
13.0507
13.1411
13.2285
13.3129
13.3946
13.4737
13.5502
13.6242
13.6959
13.7654
13.8327
13.898
13.9612
14.0226
14.082
14.1397
14.1957
14.2499
14.3026
14.3536
14.4031
14.4511
14.4976
14.5427
14.5863
14.6285
14.6694
14.7088
14.747
14.7837
14.8192
14.8534
14.8863
14.918
14.9486
14.9781
15.0067
15.0346
15.062
15.0894
15.1172
15.1462
15.1775
15.21
15.2494
15.268
-8.53752
-8.62244
-8.72253
-8.81963
-8.89698
-8.94971
-8.97679
-8.97906
-8.96099
-8.93087
-8.90078
-8.88472
-8.89546
-8.94258
-9.03228
-9.16768
-9.3489
-9.57136
-9.82662
-10.1066
-10.4059
-10.7202
-11.0452
-11.376
-11.708
-12.0377
-12.3616
-12.6766
-12.9799
-13.2692
-13.5425
-13.7979
-14.0341
-14.25
-14.4443
-14.6164
-14.7656
-14.8911
-14.9927
-15.0698
-15.1223
-15.1499
-15.1525
-15.1299
-15.0822
-15.0093
-14.9113
-14.7883
-14.6407
-14.4689
-14.2732
-14.0541
-13.812
-13.5475
-13.2612
-12.9537
-12.626
-12.2787
-11.9127
-11.5291
-11.1289
-10.7131
-10.2827
-9.83905
-9.38317
-8.91628
-8.43957
-7.95423
-7.46145
-6.96243
-6.45833
-5.95032
-5.43951
-4.927
-4.41386
-3.90111
-3.38971
-2.88061
-2.37468
-1.87277
-1.37563
-0.884009
-0.398565
0.0800846
0.55138
1.01482
1.46994
1.91636
2.35372
2.78174
3.20016
3.60878
4.00746
4.39609
4.7746
5.14294
5.50108
5.84901
6.18674
6.51431
6.83181
7.13933
7.43703
7.72505
8.00356
8.27275
8.53282
8.78397
9.02644
9.26044
9.48618
9.7039
9.91384
10.1162
10.3113
10.4993
10.6805
10.8551
11.0233
11.1854
11.3416
11.4921
11.6371
11.7769
11.9116
12.0415
12.1668
12.2876
12.4041
12.5166
12.6251
12.7299
12.8311
12.9289
13.0234
13.1148
13.2031
13.2885
13.371
13.4509
13.5282
13.603
13.6755
13.7457
13.8137
13.8796
13.9435
14.0054
14.0655
14.1237
14.1802
14.235
14.2881
14.3397
14.3896
14.4381
14.485
14.5304
14.5745
14.617
14.6582
14.698
14.7365
14.7735
14.8093
14.8437
14.8768
14.9087
14.9394
14.9689
14.9975
15.0252
15.0524
15.0792
15.1061
15.1334
15.1619
15.1898
15.2213
15.2275
-8.11757
-8.20597
-8.3269
-8.44959
-8.55482
-8.63524
-8.69355
-8.73563
-8.76911
-8.80377
-8.85057
-8.9198
-9.01952
-9.15451
-9.327
-9.53599
-9.7768
-10.0439
-10.3318
-10.635
-10.948
-11.2659
-11.5849
-11.9014
-12.2127
-12.5166
-12.8113
-13.095
-13.3664
-13.6242
-13.8671
-14.094
-14.3039
-14.4958
-14.6687
-14.8218
-14.9544
-15.0658
-15.1553
-15.2225
-15.2668
-15.2878
-15.2852
-15.2587
-15.2082
-15.1335
-15.0345
-14.9113
-14.764
-14.5928
-14.3981
-14.1801
-13.9393
-13.6761
-13.3912
-13.0852
-12.7589
-12.4129
-12.0483
-11.666
-11.2669
-10.852
-10.4226
-9.97965
-9.52437
-9.05793
-8.58152
-8.09632
-7.60354
-7.10437
-6.59997
-6.0915
-5.5801
-5.06687
-4.55287
-4.03913
-3.52663
-3.01631
-2.50906
-2.00571
-1.50705
-1.01381
-0.526659
-0.046222
0.426937
0.892309
1.34944
1.79792
2.23741
2.6676
3.08824
3.49913
3.9001
4.29103
4.67185
5.0425
5.40293
5.75315
6.09316
6.42301
6.74279
7.05259
7.35255
7.64282
7.92358
8.19499
8.45726
8.71058
8.95517
9.19125
9.41904
9.63878
9.85069
10.055
10.252
10.4419
10.6249
10.8013
10.9713
11.1351
11.2929
11.445
11.5917
11.733
11.8692
12.0006
12.1273
12.2495
12.3673
12.481
12.5908
12.6968
12.7992
12.8981
12.9937
13.0861
13.1754
13.2617
13.3452
13.426
13.5042
13.5799
13.6531
13.7241
13.7929
13.8595
13.9241
13.9867
14.0474
14.1063
14.1634
14.2188
14.2725
14.3245
14.375
14.4239
14.4713
14.5172
14.5617
14.6046
14.6462
14.6864
14.7251
14.7625
14.7985
14.8332
14.8665
14.8986
14.9294
14.9589
14.9874
15.0149
15.0416
15.0676
15.0933
15.1187
15.1441
15.1671
15.1914
15.1869
-7.65256
-7.75124
-7.89329
-8.04209
-8.18003
-8.29866
-8.40155
-8.49805
-8.59754
-8.70895
-8.83991
-8.99529
-9.17785
-9.38803
-9.62414
-9.88406
-10.1648
-10.4618
-10.7696
-11.0832
-11.3984
-11.7117
-12.0203
-12.3222
-12.6157
-12.8997
-13.1731
-13.4349
-13.6843
-13.9205
-14.1425
-14.3496
-14.541
-14.7157
-14.873
-15.012
-15.1321
-15.2325
-15.3125
-15.3714
-15.4088
-15.4241
-15.4168
-15.3867
-15.3333
-15.2565
-15.1561
-15.032
-14.8844
-14.7132
-14.5188
-14.3014
-14.0613
-13.7991
-13.5152
-13.2104
-12.8852
-12.5404
-12.177
-11.7958
-11.3979
-10.9842
-10.5557
-10.1137
-9.6593
-9.1936
-8.71781
-8.23312
-7.74073
-7.2418
-6.73753
-6.22905
-5.71751
-5.204
-4.68958
-4.1753
-3.66212
-3.151
-2.64282
-2.13843
-1.63861
-1.14409
-0.655562
-0.173643
0.301096
0.768139
1.22703
1.67735
2.11875
2.55092
2.9736
3.38658
3.78969
4.1828
4.56581
4.93866
5.3013
5.65374
5.99598
6.32808
6.65011
6.96216
7.26438
7.55689
7.83987
8.1135
8.37796
8.63345
8.8802
9.1184
9.34829
9.5701
9.78406
9.9904
10.1894
10.3812
10.5661
10.7443
10.9161
11.0817
11.2413
11.3951
11.5434
11.6863
11.8241
11.957
12.0852
12.2088
12.3281
12.4432
12.5542
12.6615
12.7651
12.8652
12.9619
13.0554
13.1458
13.2332
13.3177
13.3995
13.4786
13.5552
13.6293
13.7011
13.7707
13.8382
13.9035
13.9668
14.0283
14.0878
14.1456
14.2015
14.2558
14.3085
14.3595
14.4089
14.4568
14.5032
14.5481
14.5916
14.6336
14.6741
14.7132
14.751
14.7873
14.8222
14.8557
14.8879
14.9188
14.9483
14.9767
15.0038
15.0299
15.0551
15.0793
15.1025
15.1247
15.1428
15.1605
15.1467
-7.29691
-7.39039
-7.54242
-7.70815
-7.87498
-8.03595
-8.19055
-8.34666
-8.51252
-8.69394
-8.89497
-9.11682
-9.35805
-9.61782
-9.89552
-10.1889
-10.4941
-10.8068
-11.1229
-11.4386
-11.7511
-12.058
-12.3577
-12.6486
-12.9298
-13.2004
-13.4597
-13.7071
-13.942
-14.1638
-14.3718
-14.5655
-14.744
-14.9068
-15.0529
-15.1818
-15.2927
-15.3848
-15.4575
-15.5101
-15.5419
-15.5524
-15.5411
-15.5076
-15.4514
-15.3724
-15.2703
-15.1449
-14.9963
-14.8245
-14.6296
-14.412
-14.172
-13.9099
-13.6263
-13.3218
-12.9972
-12.653
-12.2903
-11.9098
-11.5126
-11.0997
-10.6721
-10.2309
-9.77731
-9.3124
-8.83737
-8.35341
-7.86169
-7.36339
-6.85967
-6.35168
-5.84053
-5.32733
-4.81313
-4.29896
-3.78579
-3.27456
-2.76616
-2.26143
-1.76115
-1.26605
-0.776829
-0.294098
0.181569
0.649652
1.10969
1.56126
2.00402
2.43764
2.86186
3.27645
3.68125
4.0761
4.4609
4.83559
5.20011
5.55447
5.89867
6.23275
6.5568
6.8709
7.17518
7.46977
7.75484
8.03056
8.2971
8.55469
8.8035
9.04377
9.27571
9.49955
9.71552
9.92384
10.1248
10.3185
10.5053
10.6854
10.859
11.0264
11.1877
11.3433
11.4932
11.6378
11.7772
11.9117
12.0414
12.1665
12.2872
12.4036
12.5161
12.6247
12.7296
12.8309
12.9288
13.0235
13.115
13.2034
13.289
13.3718
13.4519
13.5294
13.6045
13.6772
13.7476
13.8159
13.882
13.9461
14.0083
14.0686
14.127
14.1836
14.2386
14.2918
14.3434
14.3934
14.4419
14.4888
14.5342
14.5781
14.6205
14.6615
14.701
14.739
14.7757
14.8109
14.8446
14.8769
14.9078
14.9374
14.9655
14.9922
15.0177
15.0417
15.0644
15.0853
15.1041
15.1175
15.1292
15.1072
-7.10659
-7.1927
-7.34681
-7.51918
-7.70257
-7.89487
-8.09266
-8.29793
-8.51523
-8.747
-8.99355
-9.25482
-9.53077
-9.821
-10.1236
-10.4354
-10.7527
-11.0721
-11.3906
-11.7055
-12.0148
-12.3168
-12.6101
-12.8938
-13.1669
-13.429
-13.6794
-13.9177
-14.1434
-14.3561
-14.5552
-14.7402
-14.9104
-15.0652
-15.204
-15.326
-15.4304
-15.5167
-15.584
-15.6318
-15.6594
-15.6661
-15.6515
-15.615
-15.5563
-15.4751
-15.3711
-15.2441
-15.0942
-14.9213
-14.7256
-14.5072
-14.2666
-14.0041
-13.7203
-13.4156
-13.0909
-12.7468
-12.3843
-12.0041
-11.6072
-11.1947
-10.7676
-10.327
-9.87394
-9.40969
-8.93536
-8.45213
-7.96114
-7.46359
-6.96062
-6.45337
-5.94294
-5.43043
-4.91688
-4.4033
-3.89067
-3.37991
-2.8719
-2.36747
-1.8674
-1.37243
-0.883215
-0.400392
0.0754734
0.543864
1.00432
1.45641
1.89979
2.33414
2.75918
3.17471
3.58052
3.97648
4.36248
4.73844
5.10431
5.46008
5.80576
6.14138
6.46702
6.78276
7.08873
7.38506
7.67189
7.9494
8.21776
8.47718
8.72784
8.96996
9.20375
9.42944
9.64726
9.85742
10.0602
10.2557
10.4443
10.6262
10.8016
10.9706
11.1337
11.2909
11.4425
11.5887
11.7297
11.8657
11.9968
12.1234
12.2455
12.3634
12.4773
12.5872
12.6933
12.7959
12.895
12.9908
13.0835
13.173
13.2597
13.3435
13.4246
13.5031
13.5791
13.6527
13.724
13.7931
13.8601
13.925
13.9879
14.0489
14.108
14.1654
14.221
14.2748
14.3271
14.3777
14.4267
14.4741
14.52
14.5644
14.6073
14.6487
14.6886
14.727
14.764
14.7994
14.8334
14.8658
14.8968
14.9262
14.9541
14.9804
15.005
15.028
15.0489
15.0674
15.0829
15.0917
15.098
15.069
-7.07871
-7.16555
-7.31325
-7.48203
-7.66877
-7.87333
-8.09255
-8.32446
-8.56928
-8.82762
-9.099
-9.38256
-9.67804
-9.9843
-10.2986
-10.6181
-10.9397
-11.2608
-11.5789
-11.8921
-12.1985
-12.4969
-12.786
-13.0652
-13.3336
-13.5908
-13.8362
-14.0695
-14.2902
-14.4978
-14.6919
-14.872
-15.0374
-15.1875
-15.3218
-15.4395
-15.5399
-15.6223
-15.6861
-15.7305
-15.7549
-15.7588
-15.7415
-15.7027
-15.6418
-15.5585
-15.4527
-15.3241
-15.1727
-14.9985
-14.8016
-14.5822
-14.3407
-14.0774
-13.793
-13.4879
-13.1628
-12.8185
-12.4558
-12.0757
-11.679
-11.2667
-10.84
-10.3998
-9.9474
-9.48382
-9.01024
-8.52782
-8.03773
-7.54111
-7.03911
-6.53285
-6.02345
-5.51195
-4.99942
-4.48684
-3.97517
-3.46534
-2.95821
-2.45461
-1.9553
-1.46101
-0.972412
-0.490112
-0.0146744
0.453389
0.913616
1.3656
1.80898
2.24343
2.6687
3.08454
3.49077
3.88725
4.27385
4.6505
5.01716
5.37379
5.72042
6.05708
6.38382
6.70075
7.00796
7.30559
7.59379
7.8727
8.14252
8.40342
8.65561
8.89928
9.13464
9.36192
9.58134
9.79311
9.99747
10.1946
10.3849
10.5683
10.7453
10.916
11.0806
11.2394
11.3925
11.5402
11.6826
11.8201
11.9527
12.0807
12.2042
12.3234
12.4386
12.5498
12.6572
12.761
12.8613
12.9582
13.052
13.1426
13.2303
13.3151
13.3972
13.4767
13.5537
13.6282
13.7004
13.7703
13.8381
13.9038
13.9675
14.0292
14.0891
14.1471
14.2034
14.2579
14.3107
14.3619
14.4115
14.4595
14.5059
14.5508
14.5942
14.636
14.6763
14.7151
14.7524
14.7881
14.8223
14.8548
14.8858
14.9151
14.9427
14.9684
14.9923
15.014
15.0332
15.0492
15.0615
15.0661
15.0674
15.0323
-7.18963
-7.26799
-7.39893
-7.55482
-7.73346
-7.93456
-8.1554
-8.3934
-8.64692
-8.91463
-9.19487
-9.48651
-9.78862
-10.0992
-10.4159
-10.736
-11.057
-11.3767
-11.6929
-12.0038
-12.3079
-12.6039
-12.8908
-13.1678
-13.4341
-13.6893
-13.9328
-14.1642
-14.383
-14.5887
-14.7809
-14.9589
-15.1223
-15.2703
-15.4024
-15.5179
-15.6162
-15.6964
-15.758
-15.8003
-15.8226
-15.8244
-15.8051
-15.7643
-15.7016
-15.6166
-15.5091
-15.3789
-15.226
-15.0504
-14.8523
-14.6318
-14.3893
-14.1253
-13.8401
-13.5345
-13.209
-12.8645
-12.5017
-12.1216
-11.7252
-11.3133
-10.8871
-10.4476
-9.99597
-9.53331
-9.06076
-8.57948
-8.09062
-7.59531
-7.09468
-6.58986
-6.08192
-5.57193
-5.06091
-4.54984
-4.03968
-3.53132
-3.02562
-2.5234
-2.0254
-1.53235
-1.0449
-0.563666
-0.0891984
0.377993
0.837452
1.28877
1.73159
2.1656
2.59052
3.00614
3.41225
3.80871
4.19541
4.57225
4.9392
5.29623
5.64335
5.98059
6.30801
6.62569
6.93375
7.23229
7.52147
7.80144
8.07236
8.33443
8.58782
8.83274
9.0694
9.298
9.51876
9.73191
9.93766
10.1362
10.3279
10.5128
10.6911
10.8633
11.0293
11.1895
11.344
11.4931
11.6369
11.7757
11.9097
12.039
12.1638
12.2843
12.4007
12.5131
12.6217
12.7266
12.8281
12.9261
13.021
13.1127
13.2014
13.2872
13.3703
13.4507
13.5286
13.604
13.677
13.7478
13.8164
13.8829
13.9473
14.0098
14.0704
14.1291
14.186
14.2412
14.2946
14.3464
14.3966
14.4451
14.4921
14.5375
14.5813
14.6236
14.6643
14.7035
14.7411
14.7771
14.8114
14.8441
14.8751
14.9042
14.9315
14.9567
14.9797
15.0001
15.0176
15.0312
15.0403
15.041
15.0378
14.9975
-7.36613
-7.4307
-7.54161
-7.68005
-7.84387
-8.03261
-8.24392
-8.47512
-8.72376
-8.98751
-9.26415
-9.55248
-9.85131
-10.1584
-10.4714
-10.7878
-11.1053
-11.4218
-11.7353
-12.044
-12.3465
-12.6415
-12.9279
-13.2047
-13.4712
-13.7268
-13.9709
-14.2029
-14.4223
-14.6285
-14.821
-14.9993
-15.1627
-15.3106
-15.4423
-15.5573
-15.6547
-15.7341
-15.7946
-15.8356
-15.8567
-15.8571
-15.8363
-15.794
-15.7298
-15.6433
-15.5343
-15.4027
-15.2484
-15.0716
-14.8724
-14.6509
-14.4075
-14.1428
-13.8571
-13.5511
-13.2255
-12.881
-12.5184
-12.1387
-11.7429
-11.3318
-10.9065
-10.4682
-10.0179
-9.55664
-9.08568
-8.60611
-8.11906
-7.62566
-7.12703
-6.62425
-6.1184
-5.61052
-5.10163
-4.59269
-4.08464
-3.57837
-3.07472
-2.57448
-2.07841
-1.58721
-1.10153
-0.621958
-0.149059
0.316674
0.774788
1.22488
1.66659
2.09962
2.52368
2.93855
3.34405
3.74002
4.12634
4.50293
4.86974
5.22674
5.57394
5.91137
6.23909
6.55717
6.86571
7.16483
7.45467
7.73537
8.00711
8.27005
8.52438
8.77029
9.00799
9.23768
9.45957
9.67388
9.88082
10.0806
10.2735
10.4596
10.6393
10.8127
10.98
11.1414
11.2972
11.4476
11.5927
11.7328
11.868
11.9985
12.1245
12.2462
12.3638
12.4774
12.5871
12.6931
12.7957
12.8948
12.9907
13.0834
13.1731
13.2599
13.3439
13.4252
13.504
13.5803
13.6542
13.7258
13.7952
13.8624
13.9276
13.9908
14.0521
14.1115
14.1691
14.2249
14.279
14.3313
14.3821
14.4312
14.4787
14.5246
14.5689
14.6116
14.6528
14.6923
14.7303
14.7665
14.8011
14.8339
14.8648
14.8938
14.9207
14.9454
14.9675
14.9867
15.0024
15.0137
15.0198
15.0169
15.0096
14.9649
-7.54004
-7.59152
-7.68409
-7.80468
-7.95131
-8.12345
-8.31904
-8.5357
-8.77097
-9.0223
-9.28766
-9.56593
-9.85573
-10.1548
-10.4608
-10.7712
-11.0839
-11.3967
-11.7075
-12.0147
-12.3166
-12.6119
-12.8993
-13.1778
-13.4464
-13.7044
-13.9511
-14.1856
-14.4075
-14.6162
-14.8109
-14.991
-15.156
-15.3052
-15.4378
-15.5534
-15.6512
-15.7305
-15.7907
-15.8312
-15.8515
-15.851
-15.8292
-15.7858
-15.7204
-15.6326
-15.5225
-15.3897
-15.2344
-15.0567
-14.8566
-14.6344
-14.3906
-14.1255
-13.8397
-13.5338
-13.2085
-12.8646
-12.5028
-12.1242
-11.7295
-11.3198
-10.8962
-10.4597
-10.0113
-9.55231
-9.08367
-8.60656
-8.12208
-7.63136
-7.13549
-6.63554
-6.13256
-5.62759
-5.1216
-4.61556
-4.11039
-3.60696
-3.10609
-2.60857
-2.11513
-1.62646
-1.14321
-0.66596
-0.195261
0.268398
0.724572
1.17286
1.61291
2.04441
2.46709
2.88073
3.28513
3.68014
4.06564
4.44155
4.80781
5.16439
5.5113
5.84856
6.17623
6.49437
6.80309
7.10249
7.3927
7.67387
7.94616
8.20973
8.46476
8.71145
8.94998
9.18055
9.40338
9.61867
9.82663
10.0275
10.2214
10.4087
10.5895
10.764
10.9325
11.0951
11.2521
11.4036
11.5499
11.6911
11.8275
11.9592
12.0864
12.2092
12.3279
12.4426
12.5534
12.6605
12.7641
12.8642
12.9611
13.0548
13.1454
13.2332
13.3181
13.4003
13.48
13.5571
13.6318
13.7043
13.7744
13.8424
13.9084
13.9723
14.0343
14.0944
14.1526
14.209
14.2637
14.3167
14.368
14.4177
14.4657
14.5122
14.557
14.6002
14.6417
14.6817
14.7199
14.7565
14.7912
14.8242
14.8551
14.8839
14.9105
14.9346
14.9558
14.9738
14.9878
14.9969
15.0003
14.994
14.9831
14.9345
-7.66684
-7.70902
-7.7862
-7.89015
-8.01938
-8.17345
-8.3506
-8.54888
-8.76628
-9.0006
-9.25044
-9.51509
-9.79311
-10.0822
-10.38
-10.6839
-10.9917
-11.3012
-11.6103
-11.9171
-12.2198
-12.5169
-12.8069
-13.0888
-13.3612
-13.6233
-13.8741
-14.1129
-14.3388
-14.5511
-14.7492
-14.9324
-15.1
-15.2513
-15.3857
-15.5026
-15.6012
-15.681
-15.7415
-15.7819
-15.8018
-15.8007
-15.7782
-15.734
-15.6677
-15.5791
-15.468
-15.3345
-15.1786
-15.0003
-14.7998
-14.5776
-14.3338
-14.069
-13.7838
-13.4787
-13.1544
-12.8118
-12.4516
-12.0748
-11.6822
-11.2749
-10.8539
-10.4201
-9.97477
-9.51887
-9.05354
-8.57987
-8.09895
-7.61189
-7.11974
-6.62357
-6.1244
-5.62325
-5.12108
-4.61882
-4.11738
-3.61761
-3.12035
-2.62634
-2.1363
-1.65091
-1.1708
-0.69657
-0.228738
0.232207
0.685825
1.13172
1.56954
1.99897
2.41975
2.83165
3.23448
3.62808
4.01234
4.38715
4.75247
5.10827
5.45453
5.79129
6.11859
6.4365
6.7451
7.04451
7.33484
7.61623
7.88884
8.15282
8.40835
8.65561
8.89479
9.12609
9.34969
9.56581
9.77465
9.97643
10.1713
10.3596
10.5414
10.717
10.8865
11.0502
11.2083
11.3609
11.5083
11.6506
11.7881
11.9209
12.0492
12.1731
12.2928
12.4086
12.5204
12.6286
12.7332
12.8343
12.9321
13.0268
13.1184
13.207
13.2929
13.376
13.4565
13.5345
13.61
13.6832
13.7542
13.8229
13.8896
13.9542
14.0169
14.0777
14.1366
14.1937
14.249
14.3026
14.3545
14.4047
14.4533
14.5002
14.5455
14.5892
14.6312
14.6716
14.7102
14.747
14.782
14.815
14.846
14.8747
14.901
14.9245
14.9449
14.9616
14.9741
14.9811
14.9819
14.9726
14.9583
14.9066
-7.72229
-7.76054
-7.82614
-7.91513
-8.02734
-8.16274
-8.32028
-8.49863
-8.69624
-8.91156
-9.1441
-9.39374
-9.65915
-9.93795
-10.2276
-10.5255
-10.8292
-11.1365
-11.445
-11.7527
-12.0576
-12.358
-12.6521
-12.9386
-13.2161
-13.4835
-13.7397
-13.9836
-14.2144
-14.4313
-14.6336
-14.8204
-14.9911
-15.145
-15.2816
-15.4
-15.4999
-15.5804
-15.6413
-15.6818
-15.7016
-15.7002
-15.6774
-15.6326
-15.5658
-15.4767
-15.3654
-15.2317
-15.0757
-14.8975
-14.6974
-14.4758
-14.2329
-13.9693
-13.6855
-13.3822
-13.0601
-12.7199
-12.3624
-11.9885
-11.5992
-11.1954
-10.7781
-10.3483
-9.90708
-9.45551
-8.99464
-8.52556
-8.04934
-7.56705
-7.07973
-6.58842
-6.09413
-5.59782
-5.10047
-4.60297
-4.10621
-3.61102
-3.11822
-2.62856
-2.14275
-1.66143
-1.18522
-0.714721
-0.250442
0.207133
0.657567
1.10047
1.53549
1.96231
2.38068
2.79035
3.19114
3.5829
3.96549
4.33882
4.70283
5.05748
5.40277
5.73872
6.06536
6.38276
6.69099
6.99016
7.28037
7.56177
7.8345
8.09871
8.35456
8.60223
8.8419
9.07376
9.29801
9.51483
9.72443
9.92702
10.1228
10.3119
10.4947
10.6712
10.8417
11.0064
11.1655
11.3192
11.4676
11.611
11.7496
11.8834
12.0127
12.1377
12.2585
12.3752
12.4881
12.5973
12.7028
12.8049
12.9037
12.9993
13.0918
13.1814
13.2681
13.3521
13.4334
13.5122
13.5886
13.6626
13.7343
13.8038
13.8712
13.9366
14
14.0614
14.121
14.1787
14.2346
14.2889
14.3414
14.3922
14.4413
14.4888
14.5346
14.5788
14.6212
14.662
14.701
14.7381
14.7733
14.8065
14.8375
14.8661
14.8921
14.9151
14.9347
14.9504
14.9613
14.9664
14.9648
14.9529
14.9356
14.8813
-7.70789
-7.74258
-7.7994
-7.87455
-7.96955
-8.08525
-8.22165
-8.37838
-8.55467
-8.74981
-8.96425
-9.19848
-9.4513
-9.72023
-10.0026
-10.2956
-10.5968
-10.9034
-11.213
-11.5233
-11.8319
-12.1369
-12.4364
-12.7287
-13.0122
-13.2856
-13.5477
-13.7972
-14.0333
-14.255
-14.4615
-14.652
-14.8258
-14.9823
-15.1209
-15.241
-15.3419
-15.4233
-15.4847
-15.5255
-15.5454
-15.5441
-15.5211
-15.4764
-15.4096
-15.3208
-15.2097
-15.0766
-14.9213
-14.7442
-14.5455
-14.3255
-14.0847
-13.8234
-13.5424
-13.2421
-12.9234
-12.5869
-12.2334
-11.8639
-11.4792
-11.0802
-10.668
-10.2436
-9.80784
-9.36192
-8.90685
-8.44366
-7.97342
-7.49715
-7.01588
-6.5306
-6.04232
-5.55198
-5.06051
-4.5688
-4.07772
-3.58808
-3.10066
-2.61623
-2.13547
-1.65903
-1.18751
-0.721466
-0.261429
0.192121
0.638749
1.07807
1.50972
1.93341
2.34885
2.75583
3.15414
3.54363
3.92416
4.29563
4.65799
5.01118
5.3552
5.69004
6.01576
6.33239
6.64002
6.93873
7.22863
7.50985
7.78252
8.04678
8.3028
8.55074
8.79077
9.02308
9.24785
9.46527
9.67554
9.87884
10.0754
10.2653
10.4489
10.6264
10.7978
10.9635
11.1236
11.2782
11.4277
11.5721
11.7116
11.8465
11.9768
12.1028
12.2246
12.3424
12.4562
12.5664
12.6729
12.776
12.8757
12.9722
13.0657
13.1561
13.2437
13.3285
13.4107
13.4904
13.5675
13.6423
13.7148
13.7851
13.8532
13.9193
13.9834
14.0455
14.1057
14.1641
14.2207
14.2755
14.3286
14.38
14.4298
14.4778
14.5241
14.5688
14.6118
14.653
14.6923
14.7298
14.7653
14.7987
14.8297
14.8583
14.884
14.9066
14.9255
14.9401
14.9497
14.953
14.9493
14.9349
14.9149
14.8585
-7.64418
-7.66988
-7.71599
-7.77461
-7.84936
-7.94224
-8.05446
-8.18692
-8.33985
-8.51351
-8.7093
-8.92826
-9.1692
-9.42942
-9.70596
-9.99584
-10.2961
-10.6038
-10.9161
-11.2303
-11.5439
-11.8546
-12.1602
-12.4588
-12.7486
-13.0282
-13.2961
-13.5511
-13.7921
-14.0183
-14.2286
-14.4225
-14.5991
-14.7579
-14.8983
-15.0198
-15.1218
-15.2041
-15.2661
-15.3075
-15.3279
-15.327
-15.3046