/*--------------------------------*- C++ -*----------------------------------*\
| =========                 |                                                 |
| \\      /  F ield         | OpenFOAM: The Open Source CFD Toolbox           |
|  \\    /   O peration     | Version:  v2012                                 |
|   \\  /    A nd           | Website:  www.openfoam.com                      |
|    \\/     M anipulation  |                                                 |
\*---------------------------------------------------------------------------*/
FoamFile
{
    version     2.0;
    format      ascii;
    class       surfaceScalarField;
    location    "3600";
    object      phi;
}
// * * * * * * * * * * * * * * * * * * * * * * * * * * * * * * * * * * * * * //

dimensions      [0 3 -1 0 0 0 0];
oriented        oriented;


internalField   nonuniform List<scalar> 
24170
(
3.92539e-06
-7.91497e-07
3.76461e-06
1.60756e-07
3.63337e-06
1.31208e-07
3.43319e-06
2.00139e-07
3.28008e-06
1.53079e-07
3.18942e-06
9.06287e-08
3.12906e-06
6.0244e-08
3.08117e-06
4.76017e-08
3.04128e-06
3.94582e-08
3.00439e-06
3.63474e-08
2.96979e-06
3.40846e-08
2.93779e-06
3.15301e-08
2.90851e-06
2.89089e-08
2.88201e-06
2.62197e-08
2.85826e-06
2.35476e-08
2.83869e-06
1.95129e-08
2.83064e-06
8.15035e-09
-9.32562e-09
2.84009e-06
3.58444e-06
-9.19498e-07
3.80423e-06
-5.90406e-08
3.7428e-06
1.92621e-07
3.69054e-06
2.52364e-07
3.63725e-06
2.06337e-07
3.58984e-06
1.37983e-07
3.55258e-06
9.73811e-08
3.52379e-06
7.61685e-08
3.50039e-06
6.25251e-08
3.48091e-06
5.53796e-08
3.46384e-06
5.06746e-08
3.44835e-06
4.655e-08
3.43405e-06
4.27862e-08
3.42059e-06
3.9331e-08
3.40798e-06
3.58884e-08
3.39619e-06
3.11231e-08
3.38453e-06
1.97643e-08
3.91896e-09
3.37101e-06
3.68518e-06
-7.92482e-07
3.83638e-06
-2.1025e-07
3.91492e-06
1.14076e-07
3.94499e-06
2.22289e-07
3.94406e-06
2.07264e-07
3.92721e-06
1.54825e-07
3.9078e-06
1.16802e-07
3.89027e-06
9.37473e-08
3.87466e-06
7.82321e-08
3.86142e-06
6.8749e-08
3.84986e-06
6.23525e-08
3.83926e-06
5.72301e-08
3.8293e-06
5.27861e-08
3.81988e-06
4.8735e-08
3.81116e-06
4.45519e-08
3.80305e-06
3.91506e-08
3.79319e-06
2.95267e-08
1.76563e-08
3.77917e-06
4.05359e-06
-6.41511e-07
4.11459e-06
-2.71264e-07
4.20798e-06
2.06788e-08
4.26634e-06
1.63917e-07
4.29068e-06
1.82906e-07
4.29272e-06
1.52752e-07
4.28601e-06
1.2349e-07
4.27703e-06
1.02744e-07
4.26759e-06
8.77557e-08
4.25883e-06
7.76287e-08
4.25083e-06
7.04462e-08
4.24331e-06
6.47983e-08
4.23611e-06
5.99951e-08
4.22913e-06
5.56598e-08
4.22235e-06
5.12437e-08
4.21537e-06
4.60155e-08
4.20614e-06
3.86137e-08
3.04443e-08
4.19308e-06
4.50491e-06
-5.09115e-07
4.51536e-06
-2.81712e-07
4.58528e-06
-4.92447e-08
4.64664e-06
1.02555e-07
4.68256e-06
1.46983e-07
4.6968e-06
1.38519e-07
4.69972e-06
1.20606e-07
4.69774e-06
1.04793e-07
4.69352e-06
9.20965e-08
4.6886e-06
8.26897e-08
4.68358e-06
7.56128e-08
4.67853e-06
6.99702e-08
4.67341e-06
6.51945e-08
4.66816e-06
6.09357e-08
4.66263e-06
5.67573e-08
4.65632e-06
5.22686e-08
4.64779e-06
4.70412e-08
4.22007e-08
4.63586e-06
5.00014e-06
-3.94665e-07
4.98614e-06
-2.67712e-07
5.03068e-06
-9.37947e-08
5.08505e-06
4.81776e-08
5.12452e-06
1.07495e-07
5.14606e-06
1.16959e-07
5.15605e-06
1.1062e-07
5.15976e-06
1.01114e-07
5.16001e-06
9.19239e-08
5.15853e-06
8.42733e-08
5.15617e-06
7.80729e-08
5.15326e-06
7.29603e-08
5.14989e-06
6.86071e-08
5.14604e-06
6.47803e-08
5.14154e-06
6.12184e-08
5.13595e-06
5.77992e-08
5.12834e-06
5.45634e-08
5.24247e-08
5.11794e-06
5.54382e-06
-2.97477e-07
5.51664e-06
-2.40535e-07
5.54055e-06
-1.17698e-07
5.58387e-06
4.85445e-09
5.62165e-06
6.97181e-08
5.64656e-06
9.20488e-08
5.66123e-06
9.59832e-08
5.6693e-06
9.30847e-08
5.67327e-06
8.80203e-08
5.6748e-06
8.28221e-08
5.67484e-06
7.81121e-08
5.67386e-06
7.40033e-08
5.67207e-06
7.04418e-08
5.66951e-06
6.73592e-08
5.66604e-06
6.46785e-08
5.66135e-06
6.24544e-08
5.65492e-06
6.0922e-08
6.08437e-08
5.64643e-06
4.34788e-06
-2.39245e-07
4.32251e-06
-2.15171e-07
4.33078e-06
-1.25968e-07
4.35419e-06
-1.85604e-08
4.3784e-06
4.54989e-08
4.39647e-06
7.39664e-08
4.40846e-06
8.39939e-08
4.41604e-06
8.55201e-08
4.42063e-06
8.34624e-08
4.42326e-06
8.02365e-08
4.42457e-06
7.68452e-08
4.42493e-06
7.36771e-08
4.42454e-06
7.0862e-08
4.42345e-06
6.84551e-08
4.42162e-06
6.6496e-08
4.41892e-06
6.51279e-08
4.41518e-06
6.46494e-08
6.56226e-08
4.41033e-06
5.08622e-06
-1.85603e-07
5.05777e-06
-1.86727e-07
5.0584e-06
-1.26595e-07
5.07686e-06
-3.70277e-08
5.09918e-06
2.31834e-08
5.11774e-06
5.54061e-08
5.13129e-06
7.04547e-08
5.14065e-06
7.61745e-08
5.14691e-06
7.72305e-08
5.15097e-06
7.62031e-08
5.15347e-06
7.43713e-08
5.1548e-06
7.23594e-08
5.15521e-06
7.04735e-08
5.15477e-06
6.8891e-08
5.1535e-06
6.77563e-08
5.15134e-06
6.72727e-08
5.14822e-06
6.77267e-08
6.95807e-08
5.14425e-06
5.94839e-06
-1.38197e-07
5.91832e-06
-1.56659e-07
5.91161e-06
-1.19886e-07
5.924e-06
-4.94271e-08
5.94286e-06
4.31963e-09
5.9606e-06
3.76691e-08
5.97484e-06
5.62142e-08
5.98552e-06
6.55025e-08
5.99324e-06
6.95204e-08
5.9987e-06
7.07602e-08
6.00245e-06
7.06357e-08
6.00488e-06
6.99411e-08
6.00623e-06
6.91252e-08
6.00664e-06
6.84836e-08
6.00616e-06
6.82332e-08
6.00482e-06
6.86049e-08
6.00267e-06
6.98713e-08
7.23091e-08
5.99991e-06
6.95439e-06
-9.83178e-08
6.92401e-06
-1.26288e-07
6.91113e-06
-1.07006e-07
6.9168e-06
-5.51007e-08
6.93088e-06
-9.75781e-09
6.94637e-06
2.21758e-08
6.96019e-06
4.23976e-08
6.97145e-06
5.42484e-08
6.98022e-06
6.07612e-08
6.98688e-06
6.41079e-08
6.99183e-06
6.5686e-08
6.99541e-06
6.63625e-08
6.99784e-06
6.66948e-08
6.99929e-06
6.70366e-08
6.99985e-06
6.76677e-08
6.99965e-06
6.88198e-08
6.9988e-06
7.06978e-08
7.35094e-08
6.99759e-06
8.12719e-06
-6.6493e-08
8.09793e-06
-9.70316e-08
8.08056e-06
-8.96338e-08
8.07955e-06
-5.40981e-08
8.08794e-06
-1.81443e-08
8.09987e-06
1.02465e-08
8.11202e-06
3.02511e-08
8.1229e-06
4.33726e-08
8.13206e-06
5.16012e-08
8.13954e-06
5.66375e-08
8.14551e-06
5.97091e-08
8.15021e-06
6.16735e-08
8.1538e-06
6.30925e-08
8.15646e-06
6.43787e-08
8.15833e-06
6.58044e-08
8.15955e-06
6.7595e-08
8.16035e-06
6.99132e-08
7.28586e-08
8.16097e-06
9.49368e-06
-4.24452e-08
9.4668e-06
-7.01546e-08
9.44683e-06
-6.96684e-08
9.43991e-06
-4.71762e-08
9.44229e-06
-2.05312e-08
9.44967e-06
2.87054e-09
9.45898e-06
2.09501e-08
9.46843e-06
3.39198e-08
9.47719e-06
4.28497e-08
9.48493e-06
4.88972e-08
9.49161e-06
5.30382e-08
9.49728e-06
5.59976e-08
9.50206e-06
5.832e-08
9.50606e-06
6.03693e-08
9.50944e-06
6.24273e-08
9.51236e-06
6.46668e-08
9.51505e-06
6.72244e-08
7.01367e-08
9.51776e-06
1.10854e-05
-2.51662e-08
1.10618e-05
-4.65157e-08
1.1041e-05
-4.88374e-08
1.10294e-05
-3.55999e-08
1.10261e-05
-1.72367e-08
1.10284e-05
5.1486e-10
1.1034e-05
1.53581e-08
1.10411e-05
2.68237e-08
1.10487e-05
3.53116e-08
1.10561e-05
4.1503e-08
1.1063e-05
4.6066e-08
1.10695e-05
4.95627e-08
1.10754e-05
5.24176e-08
1.10808e-05
5.49511e-08
1.10858e-05
5.73775e-08
1.10907e-05
5.98502e-08
1.10954e-05
6.24411e-08
6.51857e-08
1.11004e-05
1.29396e-05
-1.31262e-08
1.29194e-05
-2.62922e-08
1.28988e-05
-2.82828e-08
1.28839e-05
-2.07363e-08
1.28758e-05
-9.06432e-09
1.28732e-05
3.0548e-09
1.28748e-05
1.38246e-08
1.2879e-05
2.26453e-08
1.28847e-05
2.95716e-08
1.28913e-05
3.49399e-08
1.28982e-05
3.91483e-08
1.29052e-05
4.25608e-08
1.29121e-05
4.54693e-08
1.2919e-05
4.80926e-08
1.29258e-05
5.05797e-08
1.29326e-05
5.30243e-08
1.29395e-05
5.54697e-08
5.79193e-08
1.29468e-05
1.50998e-05
-4.49032e-09
1.50822e-05
-8.69035e-09
1.50621e-05
-8.14397e-09
1.50448e-05
-3.50671e-09
1.50327e-05
3.04329e-09
1.50259e-05
9.84972e-09
1.50237e-05
1.605e-08
1.5025e-05
2.13261e-08
1.50289e-05
2.56887e-08
1.50346e-05
2.9292e-08
1.50414e-05
3.23334e-08
1.50489e-05
3.49933e-08
1.5057e-05
3.74157e-08
1.50654e-05
3.9703e-08
1.5074e-05
4.19183e-08
1.5083e-05
4.40921e-08
1.50922e-05
4.62275e-08
4.83055e-08
1.51018e-05
1.76171e-05
2.88595e-09
1.75999e-05
8.50651e-09
1.75787e-05
1.29963e-08
1.7559e-05
1.62322e-08
1.75436e-05
1.84058e-08
1.75336e-05
1.98758e-08
1.75287e-05
2.09461e-08
1.75282e-05
2.18685e-08
1.75311e-05
2.27882e-08
1.75366e-05
2.3812e-08
1.75439e-05
2.49771e-08
1.75526e-05
2.63048e-08
1.75622e-05
2.77783e-08
1.75726e-05
2.9378e-08
1.75834e-05
3.10636e-08
1.75947e-05
3.27988e-08
1.76064e-05
3.45339e-08
3.62272e-08
1.76185e-05
1.78181e-05
1.09942e-08
1.77994e-05
2.71889e-08
1.77768e-05
3.55909e-08
1.7756e-05
3.70084e-08
1.77402e-05
3.42683e-08
1.77302e-05
2.98696e-08
1.77257e-05
2.54125e-08
1.77259e-05
2.16683e-08
1.77298e-05
1.89512e-08
1.77363e-05
1.72514e-08
1.77449e-05
1.64656e-08
1.77547e-05
1.64118e-08
1.77656e-05
1.69316e-08
1.77771e-05
1.78583e-08
1.77891e-05
1.90701e-08
1.78015e-05
2.04436e-08
1.78141e-05
2.19007e-08
2.33532e-08
1.7827e-05
1.58702e-05
2.21275e-08
1.58478e-05
4.95558e-08
1.58233e-05
6.00952e-08
1.58032e-05
5.71893e-08
1.57899e-05
4.75528e-08
1.57834e-05
3.63086e-08
1.57827e-05
2.61248e-08
1.57863e-05
1.80652e-08
1.5793e-05
1.2268e-08
1.58018e-05
8.50097e-09
1.58119e-05
6.36411e-09
1.58229e-05
5.47587e-09
1.58343e-05
5.48919e-09
1.5846e-05
6.13504e-09
1.58579e-05
7.18873e-09
1.58699e-05
8.49351e-09
1.58818e-05
9.91382e-09
1.13681e-08
1.58938e-05
1.41313e-05
3.95341e-08
1.41021e-05
7.86814e-08
1.40745e-05
8.77511e-08
1.40557e-05
7.59913e-08
1.40469e-05
5.63615e-08
1.40462e-05
3.69884e-08
1.40512e-05
2.11528e-08
1.40597e-05
9.52609e-09
1.40703e-05
1.69562e-09
1.40819e-05
-3.12021e-09
1.4094e-05
-5.69198e-09
1.41062e-05
-6.67101e-09
1.41182e-05
-6.55157e-09
1.41301e-05
-5.72047e-09
1.41417e-05
-4.44079e-09
1.41531e-05
-2.91851e-09
1.41643e-05
-1.28242e-09
3.61818e-10
1.41753e-05
1.25772e-05
6.73517e-08
1.25392e-05
1.16716e-07
1.25091e-05
1.17855e-07
1.24942e-05
9.08462e-08
1.24928e-05
5.7767e-08
1.25002e-05
2.96359e-08
1.25122e-05
9.10087e-09
1.25263e-05
-4.54293e-09
1.25409e-05
-1.28569e-08
1.25552e-05
-1.73722e-08
1.25688e-05
-1.93133e-08
1.25817e-05
-1.95596e-08
1.25939e-05
-1.87464e-08
1.26055e-05
-1.72763e-08
1.26165e-05
-1.54611e-08
1.26271e-05
-1.34755e-08
1.26372e-05
-1.14594e-08
-9.48301e-09
1.26471e-05
1.11862e-05
1.10913e-07
1.11384e-05
1.64551e-07
1.11088e-05
1.47488e-07
1.11022e-05
9.74431e-08
1.11117e-05
4.82689e-08
1.1129e-05
1.2372e-08
1.11486e-05
-1.05001e-08
1.11678e-05
-2.37287e-08
1.11855e-05
-3.05143e-08
1.12013e-05
-3.32395e-08
1.12156e-05
-3.35057e-08
1.12283e-05
-3.2329e-08
1.124e-05
-3.03378e-08
1.12506e-05
-2.79361e-08
1.12606e-05
-2.53656e-08
1.12699e-05
-2.28058e-08
1.12787e-05
-2.032e-08
-1.79676e-08
1.12872e-05
9.93908e-06
1.7645e-07
9.88248e-06
2.21147e-07
9.85874e-06
1.71235e-07
9.86595e-06
9.02356e-08
9.88964e-06
2.45963e-08
9.91762e-06
-1.55992e-08
9.94395e-06
-3.6792e-08
9.9667e-06
-4.64291e-08
9.98575e-06
-4.95072e-08
1.00016e-05
-4.91356e-08
1.00151e-05
-4.69562e-08
1.00267e-05
-4.39187e-08
1.00369e-05
-4.048e-08
1.0046e-05
-3.70052e-08
1.00543e-05
-3.36504e-08
1.00621e-05
-3.0504e-08
1.00693e-05
-2.7584e-08
-2.48864e-08
1.00762e-05
8.81963e-06
2.69915e-07
8.75785e-06
2.82934e-07
8.74788e-06
1.812e-07
8.77483e-06
6.32851e-08
8.81462e-06
-1.51798e-08
8.85217e-06
-5.31232e-08
8.88271e-06
-6.72699e-08
8.90631e-06
-6.99625e-08
8.92434e-06
-6.75664e-08
8.93839e-06
-6.31209e-08
8.94964e-06
-5.81551e-08
8.95902e-06
-5.3095e-08
8.96697e-06
-4.83824e-08
8.97396e-06
-4.39262e-08
8.98022e-06
-3.98757e-08
8.98601e-06
-3.62612e-08
8.99144e-06
-3.30166e-08
-3.00885e-08
8.99661e-06
7.81391e-06
3.96675e-07
7.7539e-06
3.42936e-07
7.76868e-06
1.66418e-07
7.82055e-06
1.14212e-08
7.87571e-06
-7.03296e-08
7.91918e-06
-9.65681e-08
7.94974e-06
-9.78252e-08
7.97064e-06
-9.07779e-08
7.98501e-06
-8.17426e-08
7.99521e-06
-7.32452e-08
8.00297e-06
-6.57418e-08
8.00907e-06
-5.92195e-08
8.01419e-06
-5.33383e-08
8.01855e-06
-4.82001e-08
8.02238e-06
-4.36487e-08
8.02593e-06
-3.98266e-08
8.02931e-06
-3.64642e-08
-3.33853e-08
8.03259e-06
6.90424e-06
5.66768e-07
6.86137e-06
3.85802e-07
6.91717e-06
1.10613e-07
6.99676e-06
-6.81769e-08
7.06257e-06
-1.36148e-07
7.10537e-06
-1.39363e-07
7.13034e-06
-1.22676e-07
7.14451e-06
-1.04911e-07
7.15244e-06
-8.96602e-08
7.15708e-06
-7.77343e-08
7.1601e-06
-6.86492e-08
7.1623e-06
-6.11526e-08
7.16392e-06
-5.49215e-08
7.16525e-06
-4.95292e-08
7.16627e-06
-4.47118e-08
7.16729e-06
-4.09141e-08
7.16846e-06
-3.76304e-08
-3.4642e-08
7.16959e-06
6.07162e-06
7.97663e-07
6.08525e-06
3.7216e-07
6.19865e-06
-2.79176e-09
6.29991e-06
-1.69439e-07
6.3653e-06
-2.01541e-07
6.3976e-06
-1.71644e-07
6.41008e-06
-1.35269e-07
6.41333e-06
-1.0786e-07
6.41232e-06
-8.86996e-08
6.40988e-06
-7.52822e-08
6.40735e-06
-6.60716e-08
6.40485e-06
-5.87088e-08
6.40236e-06
-5.26086e-08
6.40013e-06
-4.72094e-08
6.39789e-06
-4.25022e-08
6.39605e-06
-3.91167e-08
6.39464e-06
-3.63198e-08
-3.32685e-08
6.39335e-06
5.35805e-06
1.05451e-06
5.50649e-06
2.23712e-07
5.64777e-06
-1.44089e-07
5.73566e-06
-2.57336e-07
5.7765e-06
-2.42398e-07
5.7833e-06
-1.78553e-07
5.77504e-06
-1.26875e-07
5.76264e-06
-9.55334e-08
5.75014e-06
-7.63723e-08
5.73923e-06
-6.46345e-08
5.73033e-06
-5.73426e-08
5.72236e-06
-5.10215e-08
5.71479e-06
-4.52799e-08
5.70785e-06
-4.0447e-08
5.7015e-06
-3.62002e-08
5.69609e-06
-3.3755e-08
5.69176e-06
-3.19229e-08
-2.85981e-08
5.68709e-06
5.04576e-06
1.01105e-06
5.36491e-06
-9.54586e-08
5.35253e-06
-1.31738e-07
5.33288e-06
-2.37717e-07
5.29605e-06
-2.05631e-07
5.25015e-06
-1.3274e-07
5.20834e-06
-8.50766e-08
5.17427e-06
-6.16071e-08
5.14686e-06
-4.93135e-08
5.12477e-06
-4.29505e-08
5.10679e-06
-3.97264e-08
5.09093e-06
-3.56503e-08
5.07609e-06
-3.0944e-08
5.06247e-06
-2.70778e-08
5.05038e-06
-2.42104e-08
5.04003e-06
-2.34322e-08
5.03132e-06
-2.31625e-08
-2.00867e-08
5.02287e-06
5.4676e-06
5.37214e-06
5.2404e-06
5.00268e-06
4.79703e-06
4.66429e-06
4.57919e-06
4.51753e-06
4.46815e-06
4.42513e-06
4.38531e-06
4.34955e-06
4.31854e-06
4.29144e-06
4.26722e-06
4.2438e-06
4.22065e-06
4.20059e-06
2.47893e-08
-2.48028e-08
2.38677e-07
-2.13871e-07
4.90015e-07
-2.51372e-07
7.0932e-07
-2.19307e-07
8.76003e-07
-1.66713e-07
9.86111e-07
-1.10109e-07
1.04064e-06
-5.45578e-08
1.04191e-06
-1.26295e-09
9.95265e-07
4.66182e-08
9.11075e-07
8.42174e-08
8.04642e-07
1.06424e-07
6.95383e-07
1.09325e-07
6.0295e-07
9.25003e-08
5.36826e-07
6.60575e-08
4.85334e-07
5.16029e-08
4.24028e-07
6.09769e-08
3.36268e-07
8.7879e-08
2.07858e-07
1.28321e-07
3.14771e-08
1.76535e-07
-2.13998e-07
2.45795e-07
-5.18984e-07
3.05053e-07
-8.60256e-07
3.41421e-07
-1.22379e-06
3.63519e-07
-1.60035e-06
3.76574e-07
-1.98113e-06
3.80735e-07
-2.35604e-06
3.74889e-07
-2.71712e-06
3.61051e-07
-3.05917e-06
3.42035e-07
-3.37842e-06
3.19231e-07
-3.67255e-06
2.94122e-07
-3.94076e-06
2.68192e-07
-4.18336e-06
2.42601e-07
-4.40141e-06
2.18045e-07
-4.59639e-06
1.94973e-07
-4.77e-06
1.73606e-07
-4.92402e-06
1.54024e-07
-5.0602e-06
1.36183e-07
-5.18017e-06
1.19967e-07
-5.28538e-06
1.05215e-07
-5.37713e-06
9.17456e-08
-5.45651e-06
7.9378e-08
-5.52444e-06
6.79411e-08
-5.58172e-06
5.72796e-08
-5.62898e-06
4.72611e-08
-5.66676e-06
3.77767e-08
-5.6955e-06
2.87406e-08
-5.71558e-06
2.00813e-08
-5.72735e-06
1.17704e-08
-5.73129e-06
3.94364e-09
-5.72826e-06
-3.02746e-09
-5.71936e-06
-8.90411e-09
-5.70535e-06
-1.40104e-08
-5.68662e-06
-1.87312e-08
-5.66342e-06
-2.31941e-08
-5.63593e-06
-2.74878e-08
-5.60429e-06
-3.16393e-08
-5.56863e-06
-3.56635e-08
-5.52906e-06
-3.95667e-08
-5.48571e-06
-4.335e-08
-5.4387e-06
-4.70123e-08
-5.38815e-06
-5.05509e-08
-5.33419e-06
-5.39624e-08
-5.27694e-06
-5.72434e-08
-5.21655e-06
-6.03904e-08
-5.15315e-06
-6.34011e-08
-5.08688e-06
-6.62723e-08
-5.01788e-06
-6.90006e-08
-4.9463e-06
-7.15836e-08
-4.87228e-06
-7.40197e-08
-4.79597e-06
-7.63077e-08
-4.71752e-06
-7.84468e-08
-4.63708e-06
-8.04368e-08
-4.55481e-06
-8.22777e-08
-4.47084e-06
-8.39706e-08
-4.38532e-06
-8.55163e-08
-4.2984e-06
-8.69167e-08
-4.21023e-06
-8.81738e-08
-4.12094e-06
-8.92903e-08
-4.03067e-06
-9.02689e-08
-3.93956e-06
-9.11133e-08
-3.84773e-06
-9.1827e-08
-3.75532e-06
-9.24147e-08
-3.66243e-06
-9.28807e-08
-3.5692e-06
-9.32313e-08
-3.47573e-06
-9.34722e-08
-3.38212e-06
-9.36116e-08
-3.28846e-06
-9.36575e-08
-3.19484e-06
-9.36214e-08
-3.10132e-06
-9.35158e-08
-3.00796e-06
-9.33558e-08
-2.91479e-06
-9.31628e-08
-2.82182e-06
-9.29615e-08
-2.72905e-06
-9.27694e-08
-2.63648e-06
-9.25657e-08
-2.54422e-06
-9.22635e-08
-2.45246e-06
-9.17625e-08
-2.36148e-06
-9.09777e-08
-2.27155e-06
-8.99299e-08
-2.18277e-06
-8.87762e-08
-2.09515e-06
-8.76222e-08
-2.00869e-06
-8.64662e-08
-1.92339e-06
-8.52931e-08
-1.83929e-06
-8.40949e-08
-1.75642e-06
-8.28716e-08
-1.67479e-06
-8.1625e-08
-1.59443e-06
-8.03595e-08
-1.51535e-06
-7.90784e-08
-1.43757e-06
-7.77849e-08
-1.36109e-06
-7.64762e-08
-1.28595e-06
-7.51319e-08
-1.21218e-06
-7.37642e-08
-1.13978e-06
-7.24016e-08
-1.06874e-06
-7.10378e-08
-9.99061e-07
-6.96748e-08
-9.30744e-07
-6.83129e-08
-8.63786e-07
-6.69545e-08
-7.98181e-07
-6.56009e-08
-7.33922e-07
-6.42557e-08
-6.70998e-07
-6.29199e-08
-6.094e-07
-6.15935e-08
-5.49119e-07
-6.02769e-08
-4.90141e-07
-5.89731e-08
-4.32448e-07
-5.76881e-08
-3.76015e-07
-5.64275e-08
-3.20823e-07
-5.51867e-08
-2.66855e-07
-5.39625e-08
-2.14091e-07
-5.27591e-08
-1.62511e-07
-5.15748e-08
-1.12108e-07
-5.03982e-08
-6.28756e-08
-4.923e-08
-1.49428e-08
-4.79333e-08
3.18458e-08
-4.67909e-08
7.77985e-08
-4.59532e-08
1.22789e-07
-4.49882e-08
1.66719e-07
-4.39277e-08
2.09584e-07
-4.28628e-08
2.51399e-07
-4.18172e-08
2.92197e-07
-4.08016e-08
3.32014e-07
-3.9818e-08
3.70881e-07
-3.88635e-08
4.08823e-07
-3.79369e-08
4.45867e-07
-3.70362e-08
4.82034e-07
-3.6162e-08
5.17351e-07
-3.53125e-08
5.5184e-07
-3.44886e-08
5.85528e-07
-3.36889e-08
6.18434e-07
-3.29154e-08
6.50587e-07
-3.2166e-08
6.82013e-07
-3.14417e-08
7.12741e-07
-3.07406e-08
7.42792e-07
-3.00633e-08
7.72193e-07
-2.94088e-08
8.00964e-07
-2.87784e-08
8.29132e-07
-2.81713e-08
8.56718e-07
-2.75884e-08
8.83747e-07
-2.70289e-08
9.1024e-07
-2.64935e-08
9.36223e-07
-2.59812e-08
9.61716e-07
-2.54923e-08
9.86743e-07
-2.50252e-08
1.01132e-06
-2.45794e-08
1.03548e-06
-2.41523e-08
1.05922e-06
-2.37418e-08
1.08256e-06
-2.33433e-08
1.10551e-06
-2.29518e-08
1.12806e-06
-2.25584e-08
1.15021e-06
-2.21526e-08
1.17192e-06
-2.17179e-08
1.19314e-06
-2.12331e-08
1.2138e-06
-2.06661e-08
1.23376e-06
-1.99739e-08
1.25284e-06
-1.90912e-08
1.27074e-06
-1.79221e-08
1.28705e-06
-1.63201e-08
1.30105e-06
-1.40133e-08
1.31162e-06
-1.05826e-08
1.31612e-06
-4.51724e-09
1.30919e-06
6.91539e-09
1.27954e-06
2.96299e-08
7.24629e-08
1.20707e-06
2.53723e-07
-2.78533e-07
4.88958e-07
-4.49104e-07
6.38122e-07
-4.00549e-07
7.22294e-07
-3.0348e-07
7.61256e-07
-2.05688e-07
7.66625e-07
-1.15478e-07
7.45123e-07
-3.30687e-08
7.02443e-07
4.14174e-08
6.41551e-07
1.07501e-07
5.62404e-07
1.63373e-07
4.64209e-07
2.04618e-07
3.45272e-07
2.28266e-07
1.99343e-07
2.38457e-07
1.46288e-08
2.50711e-07
-2.19261e-07
2.85497e-07
-5.06576e-07
3.48217e-07
-8.45285e-07
4.26589e-07
-1.22418e-06
5.07235e-07
-1.62935e-06
5.81736e-07
-2.02969e-06
6.46197e-07
-2.41752e-06
6.92911e-07
-2.7924e-06
7.16329e-07
-3.14725e-06
7.18364e-07
-3.47396e-06
7.0329e-07
-3.76772e-06
6.74479e-07
-4.02771e-06
6.34874e-07
-4.25449e-06
5.87821e-07
-4.44944e-06
5.36981e-07
-4.61552e-06
4.85302e-07
-4.75623e-06
4.34824e-07
-4.87493e-06
3.86889e-07
-4.97478e-06
3.42446e-07
-5.05864e-06
3.01901e-07
-5.129e-06
2.65332e-07
-5.18797e-06
2.32571e-07
-5.23726e-06
2.03315e-07
-5.27827e-06
1.77195e-07
-5.31212e-06
1.53819e-07
-5.33971e-06
1.32809e-07
-5.36178e-06
1.13814e-07
-5.37893e-06
9.65256e-08
-5.39166e-06
8.06795e-08
-5.40044e-06
6.60554e-08
-5.40565e-06
5.24732e-08
-5.40766e-06
3.9787e-08
-5.4068e-06
2.78832e-08
-5.40341e-06
1.6685e-08
-5.39779e-06
6.15843e-09
-5.39011e-06
-3.74075e-09
-5.37993e-06
-1.32064e-08
-5.36636e-06
-2.24723e-08
-5.3488e-06
-3.1566e-08
-5.32711e-06
-4.04265e-08
-5.30125e-06
-4.90462e-08
-5.27131e-06
-5.74327e-08
-5.23736e-06
-6.55921e-08
-5.19949e-06
-7.35273e-08
-5.15782e-06
-8.12376e-08
-5.11245e-06
-8.87195e-08
-5.0635e-06
-9.59675e-08
-5.01107e-06
-1.02975e-07
-4.9553e-06
-1.09733e-07
-4.89631e-06
-1.16235e-07
-4.83423e-06
-1.22474e-07
-4.76918e-06
-1.28444e-07
-4.70131e-06
-1.3414e-07
-4.63076e-06
-1.39554e-07
-4.55766e-06
-1.4468e-07
-4.48217e-06
-1.49517e-07
-4.40441e-06
-1.54062e-07
-4.32455e-06
-1.58312e-07
-4.24272e-06
-1.62268e-07
-4.15906e-06
-1.6593e-07
-4.07374e-06
-1.69298e-07
-3.98688e-06
-1.72377e-07
-3.89863e-06
-1.75168e-07
-3.80912e-06
-1.77676e-07
-3.71851e-06
-1.79906e-07
-3.62691e-06
-1.81864e-07
-3.53447e-06
-1.83557e-07
-3.4413e-06
-1.84993e-07
-3.34754e-06
-1.86179e-07
-3.25329e-06
-1.87125e-07
-3.15868e-06
-1.87841e-07
-3.06382e-06
-1.88338e-07
-2.9688e-06
-1.88627e-07
-2.87374e-06
-1.88721e-07
-2.77872e-06
-1.88633e-07
-2.68386e-06
-1.88375e-07
-2.58925e-06
-1.8796e-07
-2.49501e-06
-1.87399e-07
-2.40127e-06
-1.867e-07
-2.30818e-06
-1.85857e-07
-2.2159e-06
-1.84842e-07
-2.12455e-06
-1.83611e-07
-2.03418e-06
-1.82135e-07
-1.94475e-06
-1.80411e-07
-1.8562e-06
-1.78481e-07
-1.76856e-06
-1.76422e-07
-1.68189e-06
-1.74286e-07
-1.59627e-06
-1.72087e-07
-1.51174e-06
-1.69826e-07
-1.42833e-06
-1.67504e-07
-1.34607e-06
-1.65126e-07
-1.265e-06
-1.62695e-07
-1.18514e-06
-1.60218e-07
-1.10652e-06
-1.57701e-07
-1.02915e-06
-1.55146e-07
-9.53071e-07
-1.52556e-07
-8.7827e-07
-1.49931e-07
-8.04748e-07
-1.47284e-07
-7.32518e-07
-1.44629e-07
-6.61585e-07
-1.41969e-07
-5.91949e-07
-1.39308e-07
-5.2361e-07
-1.36649e-07
-4.56567e-07
-1.33995e-07
-3.90816e-07
-1.31349e-07
-3.26352e-07
-1.28717e-07
-2.63163e-07
-1.26105e-07
-2.01241e-07
-1.23513e-07
-1.40576e-07
-1.20939e-07
-8.11563e-08
-1.18389e-07
-2.29759e-08
-1.15865e-07
3.39797e-08
-1.1338e-07
8.9739e-08
-1.10943e-07
1.44318e-07
-1.08539e-07
1.97728e-07
-1.06166e-07
2.49985e-07
-1.03829e-07
3.01114e-07
-1.01526e-07
3.51146e-07
-9.92617e-08
4.00245e-07
-9.7034e-08
4.48369e-07
-9.49175e-08
4.95302e-07
-9.28872e-08
5.41126e-07
-9.08121e-08
5.85913e-07
-8.87133e-08
6.29692e-07
-8.66434e-08
6.72493e-07
-8.46209e-08
7.14341e-07
-8.26525e-08
7.5526e-07
-8.07383e-08
7.95274e-07
-7.88768e-08
8.34405e-07
-7.7066e-08
8.72676e-07
-7.53048e-08
9.10108e-07
-7.35929e-08
9.46725e-07
-7.1929e-08
9.82549e-07
-7.03134e-08
1.0176e-06
-6.8746e-08
1.05191e-06
-6.72268e-08
1.08548e-06
-6.57554e-08
1.11836e-06
-6.4331e-08
1.15057e-06
-6.29528e-08
1.18212e-06
-6.16205e-08
1.21304e-06
-6.03339e-08
1.24335e-06
-5.9094e-08
1.27308e-06
-5.79e-08
1.30224e-06
-5.67528e-08
1.33087e-06
-5.56516e-08
1.35897e-06
-5.45967e-08
1.38658e-06
-5.35867e-08
1.41371e-06
-5.26212e-08
1.44039e-06
-5.16977e-08
1.46662e-06
-5.08143e-08
1.49244e-06
-4.99666e-08
1.51785e-06
-4.91493e-08
1.54286e-06
-4.83544e-08
1.56747e-06
-4.75709e-08
1.5917e-06
-4.67839e-08
1.61551e-06
-4.59715e-08
1.63889e-06
-4.51051e-08
1.66179e-06
-4.41427e-08
1.68414e-06
-4.30279e-08
1.70584e-06
-4.16778e-08
1.72671e-06
-3.99754e-08
1.74652e-06
-3.77427e-08
1.7649e-06
-3.4711e-08
1.78129e-06
-3.04186e-08
1.79481e-06
-2.41095e-08
1.80448e-06
-1.42044e-08
1.80929e-06
2.09126e-09
1.80736e-06
3.15552e-08
8.82081e-08
1.79161e-06
2.45037e-07
-5.23572e-07
3.40224e-07
-5.44289e-07
3.55981e-07
-4.16312e-07
3.44617e-07
-2.92113e-07
3.16575e-07
-1.77655e-07
2.72118e-07
-7.10171e-08
2.10505e-07
2.85342e-08
1.30723e-07
1.21202e-07
3.16615e-08
2.06555e-07
-8.88634e-08
2.83896e-07
-2.36694e-07
3.52446e-07
-4.22483e-07
4.14042e-07
-6.59585e-07
4.75559e-07
-9.54484e-07
5.45584e-07
-1.29638e-06
6.27382e-07
-1.66335e-06
7.15176e-07
-2.03478e-06
7.98026e-07
-2.3942e-06
8.66664e-07
-2.72828e-06
9.1584e-07
-3.02563e-06
9.43568e-07
-3.28187e-06
9.49166e-07
-3.49901e-06
9.3348e-07
-3.68049e-06
8.99852e-07
-3.83011e-06
8.52911e-07
-3.95253e-06
7.96889e-07
-4.05311e-06
7.35455e-07
-4.13716e-06
6.71869e-07
-4.20904e-06
6.08857e-07
-4.27216e-06
5.48415e-07
-4.3291e-06
4.91769e-07
-4.38173e-06
4.39512e-07
-4.43115e-06
3.91866e-07
-4.47799e-06
3.48741e-07
-4.52251e-06
3.09852e-07
-4.56475e-06
2.74808e-07
-4.6046e-06
2.4317e-07
-4.64191e-06
2.145e-07
-4.67647e-06
1.88384e-07
-4.70811e-06
1.64448e-07
-4.73666e-06
1.42363e-07
-4.76198e-06
1.21848e-07
-4.78397e-06
1.02667e-07
-4.80254e-06
8.46242e-08
-4.81762e-06
6.75544e-08
-4.82915e-06
5.13192e-08
-4.83706e-06
3.58002e-08
-4.84127e-06
2.08964e-08
-4.84163e-06
6.51431e-09
-4.83792e-06
-7.45268e-09
-4.83001e-06
-2.11183e-08
-4.81794e-06
-3.45405e-08
-4.8018e-06
-4.77063e-08
-4.78163e-06
-6.05938e-08
-4.75748e-06
-7.31944e-08
-4.72941e-06
-8.55013e-08
-4.69749e-06
-9.75086e-08
-4.66181e-06
-1.0921e-07
-4.62245e-06
-1.20595e-07
-4.57952e-06
-1.31655e-07
-4.53311e-06
-1.42377e-07
-4.48333e-06
-1.52751e-07
-4.4303e-06
-1.62761e-07
-4.37414e-06
-1.72395e-07
-4.31497e-06
-1.81643e-07
-4.25292e-06
-1.90496e-07
-4.18812e-06
-1.98944e-07
-4.1207e-06
-2.06975e-07
-4.05079e-06
-2.14584e-07
-3.97855e-06
-2.21764e-07
-3.9041e-06
-2.28512e-07
-3.82758e-06
-2.34825e-07
-3.74915e-06
-2.40702e-07
-3.66894e-06
-2.46143e-07
-3.58708e-06
-2.51151e-07
-3.50373e-06
-2.55727e-07
-3.41902e-06
-2.59877e-07
-3.33309e-06
-2.63607e-07
-3.24607e-06
-2.66925e-07
-3.1581e-06
-2.69837e-07
-3.0693e-06
-2.72355e-07
-2.97981e-06
-2.74488e-07
-2.88974e-06
-2.76249e-07
-2.79921e-06
-2.7765e-07
-2.70835e-06
-2.78703e-07
-2.61726e-06
-2.79425e-07
-2.52606e-06
-2.79828e-07
-2.43485e-06
-2.79928e-07
-2.34375e-06
-2.79741e-07
-2.25284e-06
-2.79279e-07
-2.16224e-06
-2.78557e-07
-2.07205e-06
-2.77585e-07
-1.98238e-06
-2.7637e-07
-1.89332e-06
-2.7491e-07
-1.80497e-06
-2.73192e-07
-1.71738e-06
-2.71202e-07
-1.63058e-06
-2.68937e-07
-1.54458e-06
-2.66414e-07
-1.45939e-06
-2.6367e-07
-1.37507e-06
-2.60749e-07
-1.29167e-06
-2.57687e-07
-1.20925e-06
-2.54504e-07
-1.12786e-06
-2.5121e-07
-1.04755e-06
-2.47818e-07
-9.68341e-07
-2.44335e-07
-8.90264e-07
-2.40771e-07
-8.13347e-07
-2.37134e-07
-7.37612e-07
-2.33434e-07
-6.6308e-07
-2.29678e-07
-5.89763e-07
-2.25872e-07
-5.17667e-07
-2.22025e-07
-4.46802e-07
-2.18149e-07
-3.77176e-07
-2.14253e-07
-3.08796e-07
-2.10347e-07
-2.41665e-07
-2.06438e-07
-1.75781e-07
-2.02532e-07
-1.11143e-07
-1.98631e-07
-4.77468e-08
-1.94744e-07
1.44133e-08
-1.90876e-07
7.53419e-08
-1.87032e-07
1.35047e-07
-1.83217e-07
1.93543e-07
-1.79433e-07
2.5084e-07
-1.75685e-07
3.06956e-07
-1.71979e-07
3.61901e-07
-1.68323e-07
4.1568e-07
-1.6472e-07
4.68311e-07
-1.61168e-07
5.19813e-07
-1.57667e-07
5.70205e-07
-1.54219e-07
6.19509e-07
-1.50829e-07
6.67755e-07
-1.47507e-07
7.14985e-07
-1.44265e-07
7.61179e-07
-1.41112e-07
8.06305e-07
-1.38012e-07
8.50414e-07
-1.34919e-07
8.93549e-07
-1.31846e-07
9.3573e-07
-1.28824e-07
9.76978e-07
-1.25869e-07
1.01731e-06
-1.22986e-07
1.05675e-06
-1.20176e-07
1.09531e-06
-1.17439e-07
1.13303e-06
-1.14773e-07
1.1699e-06
-1.12179e-07
1.20597e-06
-1.09657e-07
1.24125e-06
-1.07204e-07
1.27576e-06
-1.04822e-07
1.30952e-06
-1.0251e-07
1.34256e-06
-1.00269e-07
1.3749e-06
-9.80975e-08
1.40656e-06
-9.5995e-08
1.43756e-06
-9.39603e-08
1.46793e-06
-9.19936e-08
1.49769e-06
-9.00945e-08
1.52685e-06
-8.82639e-08
1.55545e-06
-8.65014e-08
1.58351e-06
-8.48074e-08
1.61104e-06
-8.31812e-08
1.63806e-06
-8.16229e-08
1.66461e-06
-8.01305e-08
1.69069e-06
-7.87033e-08
1.71633e-06
-7.7338e-08
1.74155e-06
-7.60312e-08
1.76636e-06
-7.47768e-08
1.79077e-06
-7.35674e-08
1.81481e-06
-7.23914e-08
1.83847e-06
-7.12335e-08
1.86176e-06
-7.0072e-08
1.88466e-06
-6.8877e-08
1.90716e-06
-6.76076e-08
1.92922e-06
-6.62062e-08
1.95078e-06
-6.45931e-08
1.97175e-06
-6.26546e-08
1.992e-06
-6.02285e-08
2.01133e-06
-5.7073e-08
2.02944e-06
-5.28254e-08
2.0459e-06
-4.68933e-08
2.06013e-06
-3.83375e-08
2.07132e-06
-2.54033e-08
2.07862e-06
-5.21657e-09
2.08248e-06
2.7692e-08
8.57008e-08
2.08498e-06
9.2346e-08
-6.15918e-07
6.09125e-08
-5.1285e-07
1.18827e-08
-3.67286e-07
-4.57658e-08
-2.34458e-07
-1.15834e-07
-1.07591e-07
-2.01784e-07
1.49373e-08
-3.06633e-07
1.33379e-07
-4.32794e-07
2.47363e-07
-5.82869e-07
3.56628e-07
-7.60261e-07
4.61283e-07
-9.69729e-07
5.61914e-07
-1.21551e-06
6.59814e-07
-1.4961e-06
7.56146e-07
-1.80042e-06
8.49891e-07
-2.10965e-06
9.36613e-07
-2.40438e-06
1.0099e-06
-2.67043e-06
1.06408e-06
-2.89978e-06
1.09602e-06
-3.08927e-06
1.10535e-06
-3.23952e-06
1.09382e-06
-3.3548e-06
1.06446e-06
-3.44193e-06
1.02062e-06
-3.50817e-06
9.66093e-07
-3.55997e-06
9.0471e-07
-3.60274e-06
8.3966e-07
-3.64085e-06
7.73563e-07
-3.67749e-06
7.08506e-07
-3.71465e-06
6.46015e-07
-3.7533e-06
5.87072e-07
-3.79372e-06
5.32181e-07
-3.83569e-06
4.81488e-07
-3.87874e-06
4.34908e-07
-3.9222e-06
3.92205e-07
-3.9654e-06
3.53057e-07
-4.0077e-06
3.17102e-07
-4.0485e-06
2.83971e-07
-4.08731e-06
2.53308e-07
-4.1237e-06
2.24783e-07
-4.15736e-06
1.98099e-07
-4.18799e-06
1.72993e-07
-4.21537e-06
1.49235e-07
-4.23934e-06
1.26632e-07
-4.25973e-06
1.05018e-07
-4.27643e-06
8.42528e-08
-4.28933e-06
6.42169e-08
-4.29833e-06
4.48099e-08
-4.30338e-06
2.5946e-08
-4.30442e-06
7.54888e-09
-4.30142e-06
-1.04548e-08
-4.29441e-06
-2.81254e-08
-4.28346e-06
-4.54902e-08
-4.26862e-06
-6.25456e-08
-4.24993e-06
-7.92786e-08
-4.22745e-06
-9.56765e-08
-4.20123e-06
-1.11726e-07
-4.17132e-06
-1.27411e-07
-4.13781e-06
-1.42718e-07
-4.10078e-06
-1.57628e-07
-4.06031e-06
-1.72125e-07
-4.0165e-06
-1.8619e-07
-3.96944e-06
-1.99805e-07
-3.91925e-06
-2.12951e-07
-3.86604e-06
-2.25608e-07
-3.80992e-06
-2.37761e-07
-3.75102e-06
-2.49398e-07
-3.68946e-06
-2.60506e-07
-3.62536e-06
-2.7107e-07
-3.55887e-06
-2.8108e-07
-3.4901e-06
-2.9053e-07
-3.4192e-06
-2.99412e-07
-3.3463e-06
-3.07724e-07
-3.27154e-06
-3.15463e-07
-3.19505e-06
-3.2263e-07
-3.11698e-06
-3.29226e-07
-3.03745e-06
-3.35257e-07
-2.9566e-06
-3.40726e-07
-2.87456e-06
-3.45642e-07
-2.79147e-06
-3.50015e-07
-2.70746e-06
-3.53854e-07
-2.62264e-06
-3.57171e-07
-2.53715e-06
-3.59981e-07
-2.4511e-06
-3.62298e-07
-2.36461e-06
-3.64137e-07
-2.2778e-06
-3.65516e-07
-2.19077e-06
-3.6645e-07
-2.10364e-06
-3.66959e-07
-2.01651e-06
-3.6706e-07
-1.92948e-06
-3.6677e-07
-1.84265e-06
-3.66107e-07
-1.75612e-06
-3.65087e-07
-1.66998e-06
-3.63723e-07
-1.58432e-06
-3.62026e-07
-1.49922e-06
-3.60004e-07
-1.41476e-06
-3.57657e-07
-1.33097e-06
-3.54988e-07
-1.2479e-06
-3.52008e-07
-1.16558e-06
-3.48735e-07
-1.08405e-06
-3.45202e-07
-1.00336e-06
-3.41444e-07
-9.23554e-07
-3.37492e-07
-8.4469e-07
-3.33367e-07
-7.66812e-07
-3.29089e-07
-6.89956e-07
-3.24673e-07
-6.14156e-07
-3.20134e-07
-5.3944e-07
-3.15485e-07
-4.65835e-07
-3.10739e-07