/*--------------------------------*- C++ -*----------------------------------*\
| =========                 |                                                 |
| \\      /  F ield         | OpenFOAM: The Open Source CFD Toolbox           |
|  \\    /   O peration     | Version:  v2012                                 |
|   \\  /    A nd           | Website:  www.openfoam.com                      |
|    \\/     M anipulation  |                                                 |
\*---------------------------------------------------------------------------*/
FoamFile
{
    version     2.0;
    format      ascii;
    class       volVectorField;
    location    "3600";
    object      U;
}
// * * * * * * * * * * * * * * * * * * * * * * * * * * * * * * * * * * * * * //

dimensions      [0 1 -1 0 0 0 0];


internalField   nonuniform List<vector> 
12225
(
(9.2745 -4.73371 0)
(13.1094 -1.71343 0)
(12.4776 -0.395207 0)
(11.2768 -0.042217 0)
(10.6311 0.0141951 0)
(10.2977 -0.000763603 0)
(10.0739 -0.00391877 0)
(9.90481 -0.0203135 0)
(9.76616 -0.0504216 0)
(9.64459 -0.0475119 0)
(9.53099 -0.036189 0)
(9.42438 -0.0319855 0)
(9.32645 -0.0298332 0)
(9.23708 -0.0228156 0)
(9.15582 -0.00732964 0)
(9.09 0.00369802 0)
(9.02944 0.0111801 0)
(9.0526 0.0225082 0)
(10.2592 0.0928025 0)
(10.7814 0.199338 0)
(10.9593 0.245651 0)
(10.7468 0.229138 0)
(10.5874 0.172972 0)
(10.4521 0.1153 0)
(10.329 0.0819186 0)
(10.2315 0.0693062 0)
(10.1585 0.0651929 0)
(10.0982 0.0585602 0)
(10.0454 0.0524912 0)
(9.99829 0.0501584 0)
(9.95534 0.0496565 0)
(9.91567 0.0484383 0)
(9.87804 0.0444692 0)
(9.84336 0.0388832 0)
(9.80719 0.0218716 0)
(9.77521 -0.00113136 0)
(9.87768 -0.24504 0)
(9.74284 0.00579097 0)
(10.1971 0.125739 0)
(10.3244 0.179358 0)
(10.3563 0.161544 0)
(10.3308 0.119982 0)
(10.2777 0.0911665 0)
(10.2263 0.0753194 0)
(10.183 0.0658043 0)
(10.1459 0.0605232 0)
(10.1137 0.0572621 0)
(10.0848 0.0545506 0)
(10.0578 0.0518399 0)
(10.0325 0.0488119 0)
(10.0086 0.0451727 0)
(9.98665 0.0401542 0)
(9.96303 0.0290437 0)
(9.93556 0.0102911 0)
(9.83416 -0.443933 0)
(9.57654 -0.163148 0)
(9.91602 0.0336637 0)
(10.0932 0.134216 0)
(10.1892 0.145463 0)
(10.2166 0.12072 0)
(10.2052 0.098499 0)
(10.1835 0.0839092 0)
(10.161 0.0740817 0)
(10.1394 0.068329 0)
(10.1196 0.0646187 0)
(10.1012 0.061631 0)
(10.0836 0.058969 0)
(10.0668 0.0565188 0)
(10.0505 0.0537681 0)
(10.0343 0.0495773 0)
(10.0156 0.0412419 0)
(9.99136 0.0295456 0)
(9.87825 -0.387477 0)
(9.61653 -0.19615 0)
(9.81622 -0.0186782 0)
(9.96134 0.0916029 0)
(10.0698 0.122184 0)
(10.1218 0.113643 0)
(10.1356 0.0996206 0)
(10.134 0.0883512 0)
(10.1264 0.0799024 0)
(10.1162 0.0742817 0)
(10.1055 0.0704506 0)
(10.0946 0.0675877 0)
(10.0836 0.0652573 0)
(10.0724 0.0631915 0)
(10.0609 0.0608668 0)
(10.0483 0.0575949 0)
(10.033 0.0522415 0)
(10.0121 0.0461664 0)
(9.91439 -0.288041 0)
(9.68303 -0.18518 0)
(9.78716 -0.0532163 0)
(9.88916 0.050988 0)
(9.98794 0.0936683 0)
(10.0476 0.0992253 0)
(10.0753 0.0940565 0)
(10.0866 0.0874164 0)
(10.0896 0.0814423 0)
(10.088 0.0769735 0)
(10.084 0.0737688 0)
(10.0788 0.0714139 0)
(10.0726 0.0695815 0)
(10.0656 0.068035 0)
(10.0575 0.0664363 0)
(10.0479 0.0645049 0)
(10.0354 0.0620476 0)
(10.0183 0.0604062 0)
(9.93763 -0.214042 0)
(9.74855 -0.167539 0)
(9.79243 -0.0752227 0)
(9.85608 0.0162119 0)
(9.93594 0.064415 0)
(9.99283 0.0806131 0)
(10.0262 0.0836326 0)
(10.045 0.0821273 0)
(10.0549 0.0793399 0)
(10.0593 0.0767484 0)
(10.0605 0.0747156 0)
(10.0595 0.0732178 0)
(10.057 0.0721383 0)
(10.0532 0.0713782 0)
(10.0479 0.0708129 0)
(10.0408 0.0704567 0)
(10.0312 0.0705691 0)
(10.0182 0.0723382 0)
(9.95263 -0.167336 0)
(9.79947 -0.149683 0)
(9.81178 -0.084654 0)
(9.84959 -0.00622968 0)
(9.91141 0.0419065 0)
(9.96109 0.0638737 0)
(9.99439 0.0725197 0)
(10.0157 0.0751481 0)
(10.0289 0.0752514 0)
(10.0367 0.0745743 0)
(10.041 0.0738254 0)
(10.0428 0.0732744 0)
(10.0427 0.0730087 0)
(10.041 0.0730736 0)
(10.0377 0.0735052 0)
(10.0327 0.0744775 0)
(10.0255 0.0763991 0)
(10.0158 0.0802401 0)
(9.96406 -0.132091 0)
(9.84003 -0.131994 0)
(9.83337 -0.0877023 0)
(9.85306 -0.0213513 0)
(9.89928 0.0243925 0)
(9.94105 0.0494913 0)
(9.97213 0.0620893 0)
(9.99395 0.067956 0)
(10.0087 0.0704625 0)
(10.0185 0.0715057 0)
(10.0246 0.0720183 0)
(10.0283 0.072454 0)
(10.0299 0.0730423 0)
(10.0298 0.0739378 0)
(10.0282 0.0752939 0)
(10.0249 0.0773798 0)
(10.0198 0.0806547 0)
(10.0129 0.0859111 0)
(9.97418 -0.100207 0)
(9.87757 -0.112396 0)
(9.85857 -0.085379 0)
(9.86388 -0.0323524 0)
(9.89487 0.00890361 0)
(9.92745 0.0351952 0)
(9.95445 0.0506685 0)
(9.9751 0.0593802 0)
(9.99022 0.064242 0)
(10.001 0.0671042 0)
(10.0085 0.0690175 0)
(10.0136 0.0705788 0)
(10.0167 0.0721424 0)
(10.0181 0.0739692 0)
(10.0181 0.0763015 0)
(10.0165 0.0794604 0)
(10.0136 0.0838903 0)
(10.0094 0.090199 0)
(9.98253 -0.0727119 0)
(9.91035 -0.0922027 0)
(9.88507 -0.0782588 0)
(9.88002 -0.0386305 0)
(9.89747 -0.00340544 0)
(9.92045 0.0221273 0)
(9.942 0.0391176 0)
(9.96005 0.0499605 0)
(9.97431 0.0568727 0)
(9.98523 0.0614735 0)
(9.99344 0.0648134 0)
(9.99946 0.0675629 0)
(10.0037 0.0701711 0)
(10.0065 0.0729723 0)
(10.0079 0.07627 0)
(10.0081 0.0803941 0)
(10.0073 0.0857284 0)
(10.0057 0.092703 0)
(9.98894 -0.0502598 0)
(9.93733 -0.0723848 0)
(9.91073 -0.0674641 0)
(9.89917 -0.0400089 0)
(9.90567 -0.011687 0)
(9.91957 0.0113995 0)
(9.935 0.0284509 0)
(9.94938 0.0404567 0)
(9.96174 0.0488503 0)
(9.97193 0.0548929 0)
(9.98013 0.0595201 0)
(9.98662 0.0634025 0)
(9.99167 0.0670215 0)
(9.99547 0.070753 0)
(9.99822 0.0749159 0)
(10.0001 0.0798213 0)
(10.0012 0.0857674 0)
(10.002 0.0930464 0)
(9.99348 -0.0329123 0)
(9.9582 -0.0538182 0)
(9.93368 -0.0543014 0)
(9.91899 -0.0368166 0)
(9.91756 -0.0154964 0)
(9.92367 0.00393392 0)
(9.93303 0.0196877 0)
(9.94321 0.0317514 0)
(9.95293 0.0408428 0)
(9.96166 0.0478104 0)
(9.96924 0.0533953 0)
(9.97572 0.0581877 0)
(9.98119 0.0626471 0)
(9.98578 0.0671393 0)
(9.98963 0.0719678 0)
(9.9929 0.0773913 0)
(9.99579 0.0836424 0)
(9.99856 0.0908792 0)
(9.99643 -0.0202068 0)
(9.97327 -0.0372178 0)
(9.95261 -0.0400652 0)
(9.93731 -0.0298431 0)
(9.9309 -0.014871 0)
(9.93103 0.000300111 0)
(9.93505 0.0136825 0)
(9.94106 0.0247183 0)
(9.94783 0.0335977 0)
(9.95466 0.04079 0)
(9.96118 0.046808 0)
(9.96724 0.0521079 0)
(9.9728 0.0570779 0)
(9.97788 0.0620275 0)
(9.98257 0.0672147 0)
(9.98697 0.0728396 0)
(9.99124 0.0790584 0)
(9.99558 0.0859616 0)
(9.99816 -0.0112922 0)
(9.9833 -0.0229391 0)
(9.96682 -0.0257834 0)
(9.95243 -0.0201107 0)
(9.94344 -0.0102912 0)
(9.93953 0.000606339 0)
(9.93941 0.0109375 0)
(9.94183 0.0200225 0)
(9.94583 0.0277703 0)
(9.95069 0.0343808 0)
(9.95596 0.0401547 0)
(9.96138 0.0454036 0)
(9.96678 0.0504026 0)
(9.97211 0.0553873 0)
(9.97736 0.0605384 0)
(9.9826 0.0659986 0)
(9.98789 0.0718526 0)
(9.99336 0.0781485 0)
(9.99906 -0.00508543 0)
(9.98922 -0.0107896 0)
(9.97612 -0.0119374 0)
(9.96309 -0.00851669 0)
(9.9531 -0.00248388 0)
(9.94686 0.00451047 0)
(9.94399 0.011467 0)
(9.94384 0.0179033 0)
(9.94569 0.0236916 0)
(9.94895 0.0289002 0)
(9.95315 0.0336847 0)
(9.95796 0.0382223 0)
(9.96316 0.0426777 0)
(9.96862 0.0471897 0)
(9.97426 0.0518624 0)
(9.98007 0.0567677 0)
(9.98607 0.0619411 0)
(9.9923 0.0673852 0)
(9.99942 -0.000371691 0)
(9.99181 0.000142036 0)
(9.98042 0.00181118 0)
(9.96821 0.00456104 0)
(9.9579 0.00787195 0)
(9.9506 0.011337 0)
(9.94641 0.0147307 0)
(9.94497 0.0179799 0)
(9.94575 0.0210976 0)
(9.94822 0.0241539 0)
(9.95195 0.0272266 0)
(9.95656 0.0303967 0)
(9.9618 0.0337239 0)
(9.96749 0.037256 0)
(9.97351 0.041015 0)
(9.9798 0.0450091 0)
(9.98632 0.0492225 0)
(9.99306 0.0536267 0)
(9.99935 0.00408072 0)
(9.9911 0.0111604 0)
(9.97897 0.0161113 0)
(9.96616 0.0187036 0)
(9.95552 0.0195681 0)
(9.94818 0.019487 0)
(9.94418 0.019084 0)
(9.9431 0.0187668 0)
(9.94435 0.0187784 0)
(9.94738 0.0192327 0)
(9.95169 0.0201737 0)
(9.95692 0.0215939 0)
(9.96279 0.0234661 0)
(9.96909 0.0257437 0)
(9.97571 0.028379 0)
(9.98255 0.0313128 0)
(9.98957 0.0344919 0)
(9.99672 0.0378502 0)
(9.99882 0.00972614 0)
(9.98675 0.0240332 0)
(9.97122 0.0318235 0)
(9.95642 0.0332612 0)
(9.94558 0.030663 0)
(9.93942 0.0262983 0)
(9.93734 0.0216855 0)
(9.93843 0.0176617 0)
(9.94184 0.0146014 0)
(9.94683 0.012596 0)
(9.95286 0.0115928 0)
(9.95955 0.0114702 0)
(9.96665 0.0120936 0)
(9.97397 0.0133257 0)
(9.98142 0.0150455 0)
(9.98893 0.0171419 0)
(9.99648 0.019521 0)
(10.004 0.0220968 0)
(9.99757 0.0182069 0)
(9.97774 0.0404392 0)
(9.95665 0.0495534 0)
(9.93945 0.0474474 0)
(9.92962 0.039385 0)
(9.92659 0.029605 0)
(9.92848 0.0204401 0)
(9.93355 0.0129114 0)
(9.94052 0.00727953 0)
(9.94851 0.00343736 0)
(9.95697 0.00112139 0)
(9.96559 4.69862e-05 0)
(9.97417 -5.00824e-05 0)
(9.98264 0.000602399 0)
(9.99094 0.00181903 0)
(9.99909 0.0034489 0)
(10.0071 0.00536994 0)
(10.0149 0.0074862 0)
(9.99502 0.031812 0)
(9.96178 0.0621182 0)
(9.93372 0.0695284 0)
(9.91535 0.0600838 0)
(9.90933 0.0439159 0)
(9.9125 0.0276238 0)
(9.92085 0.0139596 0)
(9.93161 0.00359721 0)
(9.9432 -0.00368085 0)
(9.95475 -0.00841796 0)
(9.96586 -0.0111869 0)
(9.97641 -0.0124792 0)
(9.98637 -0.0126895 0)
(9.99579 -0.0121142 0)
(10.0047 -0.0109871 0)
(10.0133 -0.00947665 0)
(10.0215 -0.0077135 0)
(10.0294 -0.00579364 0)
(9.99018 0.0534599 0)
(9.93561 0.0901385 0)
(9.90098 0.0906061 0)
(9.88516 0.0687273 0)
(9.88782 0.0417864 0)
(9.90123 0.0186294 0)
(9.91857 0.00138958 0)
(9.93627 -0.0104186 0)
(9.95284 -0.0179573 0)
(9.96782 -0.0223883 0)
(9.9812 -0.0246488 0)
(9.99318 -0.025416 0)
(10.004 -0.0251717 0)
(10.0139 -0.0242406 0)
(10.023 -0.0228651 0)
(10.0316 -0.0212134 0)
(10.0397 -0.0193953 0)
(10.0473 -0.0174895 0)
(9.9819 0.0862459 0)
(9.89548 0.124246 0)
(9.85818 0.109864 0)
(9.85211 0.0697458 0)
(9.87036 0.0303067 0)
(9.89846 0.00142086 0)
(9.92661 -0.0172215 0)
(9.95137 -0.0283335 0)
(9.97222 -0.0343898 0)
(9.98959 -0.0372572 0)
(10.0041 -0.0381277 0)
(10.0166 -0.0377714 0)
(10.0274 -0.0366332 0)
(10.037 -0.0350556 0)
(10.0456 -0.0332266 0)
(10.0536 -0.0312913 0)
(10.0611 -0.0293107 0)
(10.0681 -0.027335 0)
(9.96925 0.133989 0)
(9.83823 0.163081 0)
(9.80793 0.122573 0)
(9.82313 0.0587731 0)
(9.86516 0.00727466 0)
(9.91144 -0.0240558 0)
(9.95039 -0.0406073 0)
(9.98054 -0.0483612 0)
(10.0035 -0.0511823 0)
(10.0212 -0.0513796 0)
(10.0352 -0.0502473 0)
(10.0466 -0.0483895 0)
(10.0562 -0.0462139 0)
(10.0645 -0.0438724 0)
(10.0719 -0.0415335 0)
(10.0786 -0.0392846 0)
(10.0849 -0.0371423 0)
(10.0908 -0.0351009 0)
(9.94951 0.20714 0)
(9.76128 0.207016 0)
(9.75726 0.123462 0)
(9.81044 0.0319845 0)
(9.88386 -0.0278988 0)
(9.9488 -0.0560342 0)
(9.99533 -0.0660885 0)
(10.0267 -0.0678292 0)
(10.0481 -0.0660176 0)
(10.0631 -0.0629629 0)
(10.0741 -0.0596336 0)
(10.0827 -0.0563172 0)
(10.0896 -0.0531356 0)
(10.0955 -0.0501302 0)
(10.1006 -0.0473392 0)
(10.1051 -0.0448834 0)
(10.1095 -0.0426623 0)
(10.1137 -0.0405869 0)
(9.91094 0.322718 0)
(9.65922 0.254541 0)
(9.71887 0.107393 0)
(9.8333 -0.0119513 0)
(9.94177 -0.0726983 0)
(10.02 -0.0902249 0)
(10.0662 -0.0893643 0)
(10.0918 -0.0833023 0)
(10.1061 -0.0763821 0)
(10.1144 -0.0702762 0)
(10.1195 -0.0651506 0)
(10.1231 -0.0606868 0)
(10.1257 -0.056749 0)
(10.1277 -0.0533161 0)
(10.1292 -0.0502272 0)
(10.1306 -0.0477665 0)
(10.1322 -0.0455992 0)
(10.1338 -0.0435818 0)
(9.84404 0.43511 0)
(9.53797 0.261025 0)
(9.7269 0.0591219 0)
(9.92369 -0.073144 0)
(10.0584 -0.121606 0)
(10.1345 -0.120273 0)
(10.1665 -0.105352 0)
(10.1757 -0.0910775 0)
(10.1758 -0.0798939 0)
(10.1725 -0.07184 0)
(10.1685 -0.0660967 0)
(10.1646 -0.0611002 0)
(10.1606 -0.0566954 0)
(10.1567 -0.0527969 0)
(10.153 -0.0494442 0)
(10.1496 -0.0472101 0)
(10.1472 -0.0454684 0)
(10.145 -0.043511 0)
(9.83598 0.319667 0)
(9.5502 0.091249 0)
(9.91739 -0.0687335 0)
(10.1507 -0.160134 0)
(10.2635 -0.172181 0)
(10.3033 -0.142813 0)
(10.2976 -0.112213 0)
(10.2753 -0.0909677 0)
(10.2515 -0.0771223 0)
(10.2304 -0.068466 0)
(10.2132 -0.0633452 0)
(10.1984 -0.0588123 0)
(10.1848 -0.0541259 0)
(10.1718 -0.049082 0)
(10.1594 -0.0446305 0)
(10.149 -0.0428164 0)
(10.1406 -0.0412109 0)
(10.1325 -0.0380152 0)
(10.2049 -0.0633777 0)
(10.4095 -0.191709 0)
(10.7164 -0.282554 0)
(10.6879 -0.282291 0)
(10.6191 -0.230116 0)
(10.5417 -0.163743 0)
(10.4538 -0.117601 0)
(10.3752 -0.0935931 0)
(10.3137 -0.0804645 0)
(10.2656 -0.0697397 0)
(10.2263 -0.0606591 0)
(10.1921 -0.0564786 0)
(10.1622 -0.0552351 0)
(10.1332 -0.0545284 0)
(10.1071 -0.0531597 0)
(10.0863 -0.0473409 0)
(10.0663 -0.0418331 0)
(10.0485 -0.0401233 0)
(9.41631 4.45107 0)
(12.7294 2.07612 0)
(12.5649 0.621225 0)
(11.5691 0.127667 0)
(10.9311 0.00343221 0)
(10.5863 -0.00225053 0)
(10.3631 0.0138786 0)
(10.2009 0.0311978 0)
(10.0782 0.0445905 0)
(9.97679 0.0437005 0)
(9.88402 0.0327113 0)
(9.79903 0.031339 0)
(9.7221 0.0336579 0)
(9.65789 0.0315166 0)
(9.60334 0.0278391 0)
(9.54805 0.00958544 0)
(9.4969 -0.0104544 0)
(9.44948 -0.0110562 0)
(-0.0249767 0.0909246 0)
(0.137477 -0.182607 0)
(0.325891 -0.304483 0)
(0.525683 -0.313567 0)
(0.702377 -0.270812 0)
(0.831913 -0.210054 0)
(0.907262 -0.145236 -8.60214e-20)
(0.936941 -0.0813027 8.67047e-20)
(0.914913 -0.0190292 0)
(0.853265 0.035645 9.20821e-20)
(0.765407 0.0747743 0)
(0.665805 0.0923579 0)
(0.571996 0.0876049 0)
(0.499535 0.0662767 -1.44156e-19)
(0.449569 0.0373453 0)
(0.405348 0.00993096 0)
(0.344813 -0.00835714 1.89733e-19)
(0.258889 -0.00779316 0)
(0.122963 0.0109483 0)
(-0.0757527 0.111657 0)
(-0.30535 0.206861 -1.39614e-19)
(-0.601414 0.24777 0)
(-0.929366 0.269639 -7.48554e-20)
(-1.26432 0.296741 0)
(-1.60297 0.323519 0)
(-1.94184 0.336041 -4.11463e-20)
(-2.27337 0.335053 0)
(-2.58962 0.325759 3.4458e-20)
(-2.88744 0.309505 0)
(-3.16353 0.288662 -3.12963e-20)
(-3.41697 0.265535 0)
(-3.64743 0.241697 0)
(-3.85562 0.218169 0)
(-4.04265 0.195649 0)
(-4.20997 0.174504 0)
(-4.35914 0.154938 2.82074e-20)
(-4.49172 0.13698 0)
(-4.60922 0.12056 -5.55269e-20)
(-4.71299 0.105547 0)
(-4.80424 0.0917845 5.47274e-20)
(-4.88404 0.0791087 0)
(-4.95326 0.0673694 0)
(-5.01265 0.056439 -5.35032e-20)
(-5.06284 0.0462223 0)
(-5.10432 0.0366605 -5.26098e-20)
(-5.1375 0.0277378 5.21311e-20)
(-5.16278 0.0195 0)
(-5.18053 0.0120948 5.11026e-20)
(-5.19105 0.00578509 5.05499e-20)
(-5.19448 0.00071992 0)
(-5.1921 -0.0032018 0)
(-5.18513 -0.00645486 0)
(-5.1737 -0.0094034 0)
(-5.15813 -0.0121118 0)
(-5.13859 -0.0146787 -4.61238e-20)
(-5.11521 -0.0171172 0)
(-5.0881 -0.019439 4.42567e-20)
(-5.05737 -0.0216528 0)
(-5.02312 -0.0237607 0)
(-4.98545 -0.0257646 -4.10758e-20)
(-4.94447 -0.027665 0)
(-4.90028 -0.0294617 3.86981e-20)
(-4.85299 -0.0311545 0)
(-4.80271 -0.0327434 0)
(-4.74957 -0.0342284 0)
(-4.69368 -0.0356093 -3.33142e-20)
(-4.63516 -0.0368866 0)
(-4.57415 -0.0380613 0)
(-4.51076 -0.0391338 -2.87132e-20)
(-4.44513 -0.0401051 0)
(-4.37738 -0.0409766 -2.53691e-20)
(-4.30766 -0.0417496 0)
(-4.23608 -0.0424258 0)
(-4.16279 -0.0430071 0)
(-4.08791 -0.0434953 1.79854e-20)
(-4.01158 -0.0438927 0)
(-3.93391 -0.0442011 0)
(-3.85505 -0.0444229 1.17979e-20)
(-3.77511 -0.04456 9.60211e-21)
(-3.69421 -0.0446147 0)
(-3.61248 -0.0445893 4.99613e-21)
(-3.53003 -0.0444871 0)
(-3.44697 -0.0443117 1.67582e-22)
(-3.36341 -0.0440689 0)
(-3.27946 -0.0437658 -1.03312e-20)
(-3.1952 -0.0434132 0)
(-3.11072 -0.0430251 2.15837e-20)
(-3.02612 -0.0426222 0)
(-2.94145 -0.0422333 0)
(-2.85677 -0.0419005 0)
(-2.77212 -0.0416855 -4.68008e-20)
(-2.68752 -0.0416697 0)
(-2.60299 -0.0419419 6.10914e-20)
(-2.5185 -0.0425567 0)
(-2.43399 -0.043452 -7.6779e-20)
(-2.34974 -0.0443523 -8.51669e-20)
(-2.26597 -0.0447961 -9.38842e-20)
(-2.18295 -0.0445778 0)
(-2.10084 -0.0439692 0)
(-2.01967 -0.0432705 0)
(-1.93943 -0.0425656 0)
(-1.86014 -0.0418657 0)
(-1.78183 -0.0411714 0)
(-1.70452 -0.0404848 0)
(-1.62824 -0.0398094 0)
(-1.553 -0.0391514 1.93143e-19)
(-1.47882 -0.0385175 2.0749e-19)
(-1.40572 -0.0379134 0)
(-1.33371 -0.0373275 0)
(-1.26282 -0.0367018 0)
(-1.19309 -0.036044 2.74894e-19)
(-1.12452 -0.0354112 0)
(-1.0571 -0.0347965 0)
(-0.990849 -0.034202 0)
(-0.925762 -0.0336291 0)
(-0.86184 -0.03308 -3.91835e-19)
(-0.799081 -0.0325571 0)
(-0.73748 -0.0320638 0)
(-0.677032 -0.0316034 4.90331e-19)
(-0.61773 -0.0311775 -5.30175e-19)
(-0.559566 -0.0307897 0)
(-0.502534 -0.0304508 -6.24167e-19)
(-0.446619 -0.0301852 0)
(-0.391803 -0.0300382 7.43712e-19)
(-0.338065 -0.0300184 0)
(-0.285391 -0.0300861 0)
(-0.233767 -0.0302305 0)
(-0.183163 -0.0304623 0)
(-0.133556 -0.0307977 0)
(-0.0849919 -0.0312558 -2.86114e-18)
(-0.0376951 -0.0317119 -3.29628e-18)
(0.0084135 -0.0313684 0)
(0.0538607 -0.0298279 0)
(0.0986275 -0.0279757 0)
(0.142573 -0.0262632 2.67566e-18)
(0.185604 -0.0247347 0)
(0.2277 -0.0233653 0)
(0.268885 -0.0221312 0)
(0.309194 -0.0210125 2.03472e-18)
(0.348662 -0.0199915 -1.92898e-18)
(0.387314 -0.0190546 0)
(0.425174 -0.01819 0)
(0.462266 -0.0173894 -1.68339e-18)
(0.498611 -0.0166449 -1.61901e-18)
(0.534232 -0.0159508 0)
(0.569152 -0.0153018 0)
(0.603392 -0.0146943 1.46138e-18)
(0.636975 -0.0141238 -1.41805e-18)
(0.669926 -0.0135876 0)
(0.702272 -0.0130824 0)
(0.734036 -0.012606 -1.30818e-18)
(0.765241 -0.0121562 0)
(0.79591 -0.0117317 0)
(0.826064 -0.0113307 -1.221e-18)
(0.855726 -0.0109523 0)
(0.884919 -0.0105948 -1.17211e-18)
(0.913667 -0.0102575 0)
(0.941991 -0.00993906 0)
(0.969913 -0.00963863 0)
(0.997457 -0.00935495 1.09042e-18)
(1.02464 -0.00908713 0)
(1.05149 -0.00883369 0)
(1.07801 -0.00859339 0)
(1.10423 -0.00836424 0)
(1.13016 -0.00814422 0)
(1.15579 -0.00793017 0)
(1.18111 -0.00771852 9.81942e-19)
(1.20612 -0.00750379 9.69056e-19)
(1.23076 -0.00727936 0)
(1.25497 -0.00703526 0)
(1.27864 -0.00675846 0)
(1.30162 -0.00642958 -9.23856e-19)
(1.32365 -0.0060202 0)
(1.34434 -0.00548853 1.81277e-18)
(1.36323 -0.00475496 -1.79951e-18)
(1.37892 -0.00370675 -1.79085e-18)
(1.39147 -0.00195503 1.78921e-18)
(1.39173 0.00138076 -1.79503e-18)
(1.38907 0.00811233 1.8075e-18)
(1.30959 0.019864 0)
(0.0969601 -0.272 0)
(0.333037 -0.681651 0)
(0.513034 -0.705274 1.57249e-19)
(0.610232 -0.56944 0)
(0.660813 -0.406668 -1.11204e-19)
(0.680738 -0.251425 -1.08233e-19)
(0.674211 -0.109653 -5.63713e-20)
(0.643305 0.0181783 -5.62923e-20)
(0.600005 0.127905 0)
(0.54033 0.214112 -6.09645e-20)
(0.463015 0.268951 0)
(0.36798 0.283793 0)
(0.251424 0.256136 1.71537e-19)
(0.102904 0.211583 9.90108e-20)
(-0.0833759 0.208524 -1.84258e-19)
(-0.311085 0.275609 -1.42709e-19)
(-0.590336 0.387244 -5.67774e-20)
(-0.916397 0.515784 0)
(-1.27107 0.642452 0)
(-1.62818 0.75502 0)
(-1.98107 0.841365 -2.83498e-20)
(-2.32688 0.89481 0)
(-2.65652 0.917597 6.88438e-20)
(-2.96265 0.913612 0)
(-3.2414 0.886789 0)
(-3.49102 0.842355 1.98075e-20)
(-3.71035 0.785678 0)
(-3.90028 0.722272 -1.97587e-20)
(-4.06279 0.656303 -4.17886e-20)
(-4.20143 0.590458 2.01705e-20)
(-4.3191 0.526842 0)
(-4.41867 0.467202 0)
(-4.50287 0.412353 0)
(-4.57406 0.362634 -4.42499e-20)
(-4.6343 0.317998 -4.47534e-20)
(-4.68527 0.27817 -2.21847e-20)
(-4.72832 0.242737 0)
(-4.76457 0.211219 4.52895e-20)
(-4.79489 0.183117 0)
(-4.82001 0.157956 -4.58545e-20)
(-4.84049 0.135294 0)
(-4.85683 0.114741 0)
(-4.86946 0.0959575 4.60569e-20)
(-4.87873 0.0786553 0)
(-4.88499 0.0625953 1.38058e-19)
(-4.88856 0.0475849 -4.55714e-20)
(-4.8897 0.0334901 0)
(-4.88867 0.0202833 -4.4899e-20)
(-4.88572 0.00808226 -4.44402e-20)
(-4.88111 -0.00294987 0)
(-4.87393 -0.0128759 0)
(-4.86306 -0.0219922 0)
(-4.84851 -0.0305359 0)
(-4.83018 -0.0386224 0)
(-4.8081 -0.0463208 4.01684e-20)
(-4.78232 -0.0536676 7.90657e-20)
(-4.75293 -0.0606836 -3.83896e-20)
(-4.72001 -0.06738 0)
(-4.68364 -0.0737623 7.3383e-20)
(-4.64392 -0.079833 -3.59145e-20)
(-4.60095 -0.0855929 0)
(-4.55482 -0.0910415 -3.32128e-20)
(-4.50565 -0.0961789 0)
(-4.45355 -0.101006 0)
(-4.39862 -0.105525 -5.97791e-20)
(-4.34098 -0.109736 2.8328e-20)
(-4.28075 -0.113639 -5.4584e-20)
(-4.21806 -0.117236 5.18634e-20)
(-4.15302 -0.120532 2.42336e-20)
(-4.08577 -0.123531 0)
(-4.01643 -0.126239 2.12986e-20)
(-3.94512 -0.12866 0)
(-3.87198 -0.130801 0)
(-3.79714 -0.132671 0)
(-3.72072 -0.134277 1.55682e-20)
(-3.64284 -0.135627 0)
(-3.56364 -0.136731 2.36282e-20)
(-3.48324 -0.137599 -2.97625e-20)
(-3.40176 -0.138241 -7.86963e-21)
(-3.31932 -0.138668 0)
(-3.23603 -0.138891 -4.06622e-21)
(-3.15201 -0.138923 0)
(-3.06736 -0.138774 -1.35926e-22)
(-2.98219 -0.138457 0)
(-2.8966 -0.137983 8.27574e-21)
(-2.8107 -0.137366 -2.39002e-20)
(-2.72456 -0.136616 -1.7135e-20)
(-2.6383 -0.135743 0)
(-2.55198 -0.134755 0)
(-2.46572 -0.133658 0)
(-2.3796 -0.13245 3.63659e-20)
(-2.29373 -0.131124 0)
(-2.20826 -0.12965 -4.6844e-20)
(-2.12334 -0.127974 0)
(-2.0391 -0.126043 1.72467e-19)
(-1.95562 -0.123884 6.38323e-20)
(-1.87289 -0.121599 6.98684e-20)
(-1.79088 -0.119294 0)
(-1.70955 -0.117027 0)
(-1.62896 -0.114793 0)
(-1.54917 -0.112571 0)
(-1.47025 -0.110347 0)
(-1.39222 -0.108116 2.19984e-19)
(-1.31511 -0.105879 2.35494e-19)
(-1.23897 -0.10364 0)
(-1.16382 -0.101401 -1.35036e-19)
(-1.08968 -0.0991655 -1.43827e-19)
(-1.01658 -0.0969349 0)
(-0.944537 -0.0947111 -3.2366e-19)
(-0.873575 -0.0924988 0)
(-0.803684 -0.0903114 1.81665e-19)
(-0.734873 -0.088155 0)
(-0.667153 -0.0860292 0)
(-0.600529 -0.0839369 -4.3525e-19)
(-0.535003 -0.0818791 0)
(-0.470576 -0.0798578 2.45281e-19)
(-0.407247 -0.0778758 0)
(-0.345016 -0.0759391 0)
(-0.283876 -0.074056 2.90313e-19)
(-0.223819 -0.0722246 3.09659e-19)
(-0.164837 -0.0704396 0)
(-0.106925 -0.068704 -3.47047e-19)
(-0.0500882 -0.0670178 0)
(0.00567626 -0.0653722 3.82952e-19)
(0.0604119 -0.0637609 7.65895e-19)
(0.114151 -0.0621958 0)
(0.166893 -0.0606912 0)
(0.218639 -0.0592511 0)
(0.269404 -0.0578737 0)
(0.319221 -0.0565616 7.0895e-19)
(0.368162 -0.0553033 2.09558e-18)
(0.416312 -0.0539188 0)
(0.463574 -0.0522634 0)
(0.509812 -0.0504867 0)
(0.555103 -0.0487404 -6.65345e-19)
(0.599526 -0.0470741 0)
(0.643105 -0.0454957 0)
(0.68586 -0.0440024 1.28738e-18)
(0.727811 -0.042587 6.36676e-19)
(0.768983 -0.0412418 6.32158e-19)
(0.809395 -0.0399603 0)
(0.849068 -0.0387372 0)
(0.888023 -0.0375685 6.15627e-19)
(0.926279 -0.0364506 -6.09393e-19)
(0.963857 -0.0353809 0)
(1.00078 -0.034357 0)
(1.03707 -0.0333772 -5.96552e-19)
(1.07274 -0.0324391 1.77569e-18)
(1.10782 -0.031541 0)
(1.14233 -0.0306808 0)
(1.1763 -0.0298574 5.80114e-19)
(1.20974 -0.0290693 0)
(1.24268 -0.0283159 1.14456e-18)
(1.27514 -0.027596 -5.6836e-19)
(1.30714 -0.0269091 0)
(1.3387 -0.0262538 5.62267e-19)
(1.36985 -0.0256296 1.11727e-18)
(1.4006 -0.025035 0)
(1.43098 -0.0244691 0)
(1.46101 -0.0239302 -5.49465e-19)
(1.49071 -0.0234167 0)
(1.52009 -0.0229262 1.08624e-18)
(1.54917 -0.022456 0)
(1.57796 -0.0220021 0)
(1.60647 -0.0215598 0)
(1.63471 -0.0211222 0)
(1.66266 -0.0206806 -5.28922e-19)
(1.6903 -0.0202229 -5.2616e-19)
(1.7176 -0.0197327 0)
(1.74451 -0.0191874 0)
(1.77092 -0.0185552 0)
(1.7967 -0.0177908 5.16108e-19)
(1.82164 -0.0168265 0)
(1.84542 -0.01556 -1.02487e-18)
(1.86762 -0.0138126 1.02268e-18)
(1.88732 -0.0113016 1.02232e-18)
(1.90405 -0.00728892 1.02351e-18)
(1.91425 -0.000491475 1.02887e-18)
(1.92645 0.0124818 1.0203e-18)
(1.90689 0.0362641 0)
(0.118673 -0.861581 0)
(0.266987 -1.05287 0)
(0.3139 -0.823142 -1.25639e-19)
(0.312971 -0.581193 -1.0816e-19)
(0.295248 -0.370596 1.0064e-19)
(0.263715 -0.185331 1.0092e-19)
(0.217162 -0.0197882 -6.46722e-22)
(0.154884 0.127966 0)
(0.0767285 0.258417 0)
(-0.0185623 0.369079 0)
(-0.134653 0.454317 0)
(-0.279753 0.515054 0)
(-0.466864 0.569242 -2.66021e-19)
(-0.706151 0.64503 0)
(-0.993273 0.758566 6.58678e-20)
(-1.3122 0.900598 5.68404e-20)
(-1.64511 1.04777 0)
(-1.97545 1.18027 0)
(-2.28833 1.28603 0)
(-2.57148 1.35909 0)
(-2.81912 1.3945 3.48299e-20)
(-3.03161 1.39105 0)
(-3.21046 1.35385 -3.2294e-20)
(-3.35869 1.2908 0)
(-3.48064 1.20915 0)
(-3.58089 1.11524 0)
(-3.66422 1.01506 -6.8568e-20)
(-3.73496 0.913883 0)
(-3.79663 0.815787 3.31234e-20)
(-3.85194 0.723513 -7.06949e-20)
(-3.90283 0.638549 0)
(-3.95055 0.561607 0)
(-3.99585 0.492722 0)
(-4.0391 0.431501 3.65618e-20)
(-4.08039 0.377294 3.71458e-20)
(-4.11968 0.329327 0)
(-4.15683 0.286807 0)
(-4.19166 0.248978 -7.77632e-20)
(-4.224 0.215149 -7.81509e-20)
(-4.25369 0.184714 7.83791e-20)
(-4.28058 0.157156 0)
(-4.30456 0.132052 0)
(-4.32554 0.109054 0)
(-4.34344 0.0878819 0)
(-4.35821 0.0683023 -7.69462e-20)
(-4.3698 0.0501171 -7.68448e-20)
(-4.37811 0.0331431 7.61997e-20)
(-4.38304 0.0171794 0)
(-4.38439 0.00196968 0)
(-4.38201 -0.0127728 0)
(-4.37585 -0.0271749 0)
(-4.36596 -0.0411483 -7.10258e-20)
(-4.35241 -0.054605 0)
(-4.33521 -0.0675321 0)
(-4.31442 -0.0799339 -6.69107e-20)
(-4.29009 -0.0918189 -6.48839e-20)
(-4.26228 -0.103195 0)
(-4.23106 -0.114065 1.24395e-19)
(-4.19651 -0.124432 -5.99426e-20)
(-4.15872 -0.134295 5.81649e-20)
(-4.11777 -0.143652 0)
(-4.07376 -0.152501 0)
(-4.02679 -0.160841 0)
(-3.97696 -0.16867 0)
(-3.92438 -0.175992 4.83277e-20)
(-3.86916 -0.182807 9.35842e-20)
(-3.81142 -0.189115 4.39599e-20)
(-3.75127 -0.19492 -4.16866e-20)
(-3.68883 -0.200227 0)
(-3.62423 -0.205043 7.52229e-20)
(-3.55759 -0.209376 7.03372e-20)
(-3.48903 -0.213234 6.5335e-20)
(-3.41868 -0.21663 -6.0217e-20)
(-3.34666 -0.219572 0)
(-3.27309 -0.222076 -7.3775e-20)
(-3.19811 -0.224153 0)
(-3.12183 -0.225819 1.99843e-20)
(-3.04438 -0.227088 1.57594e-20)
(-2.96587 -0.227978 0)
(-2.88643 -0.228503 0)
(-2.80616 -0.228683 1.51257e-20)
(-2.72519 -0.228535 0)
(-2.64361 -0.228076 2.68408e-21)
(-2.56154 -0.227326 0)
(-2.47909 -0.226304 1.0246e-20)
(-2.39634 -0.225029 3.52265e-20)
(-2.31342 -0.223521 0)
(-2.2304 -0.221799 0)
(-2.14738 -0.219881 0)
(-2.06446 -0.217784 4.48467e-20)
(-1.98174 -0.215525 0)
(-1.89932 -0.213113 5.96728e-20)
(-1.81729 -0.210551 0)
(-1.73574 -0.207823 0)
(-1.65474 -0.204903 -1.67607e-19)
(-1.57433 -0.201776 0)
(-1.49452 -0.198457 -9.9598e-20)
(-1.41533 -0.194989 0)
(-1.33677 -0.191429 -1.16888e-19)
(-1.2589 -0.187817 0)
(-1.1818 -0.184169 0)
(-1.1055 -0.180492 0)
(-1.03005 -0.176794 -4.63657e-19)
(-0.95548 -0.17308 -1.65373e-19)
(-0.881826 -0.169358 0)
(-0.809113 -0.165634 0)
(-0.737367 -0.161914 0)
(-0.666608 -0.158203 0)
(-0.596855 -0.154505 2.19215e-19)
(-0.528117 -0.150827 -4.59242e-19)
(-0.460402 -0.147178 -2.43072e-19)
(-0.393722 -0.143566 5.08483e-19)
(-0.328085 -0.139996 5.34308e-19)
(-0.263499 -0.136475 2.81819e-19)
(-0.199964 -0.133005 0)
(-0.137482 -0.129585 6.1717e-19)
(-0.0760547 -0.12622 0)
(-0.0156829 -0.122912 -6.74205e-19)
(0.0436399 -0.119663 -3.45294e-19)
(0.101927 -0.116474 0)
(0.159184 -0.113347 6.9336e-19)
(0.215419 -0.110286 3.48941e-19)
(0.27064 -0.107291 0)
(0.324858 -0.104351 3.48818e-19)
(0.378081 -0.101457 -1.05308e-18)
(0.430318 -0.0986168 0)
(0.481582 -0.0958417 0)
(0.531892 -0.0931339 0)
(0.581263 -0.0904944 0)
(0.629718 -0.0879284 -7.07855e-19)
(0.677293 -0.085443 -7.10339e-19)
(0.724008 -0.0830535 0)
(0.769829 -0.0807445 0)
(0.814741 -0.0784759 0)
(0.8588 -0.0762488 0)
(0.902046 -0.0740802 0)
(0.944496 -0.0719784 0)
(0.986161 -0.0699457 -7.14065e-19)
(1.02706 -0.0679812 -1.09079e-21)
(1.06721 -0.0660832 0)
(1.10663 -0.0642496 0)
(1.14535 -0.0624788 -7.13886e-19)
(1.18337 -0.0607693 0)
(1.22072 -0.0591196 7.14933e-19)
(1.25741 -0.0575285 7.14068e-19)
(1.29348 -0.0559951 0)
(1.32894 -0.0545182 0)
(1.36381 -0.0530966 -7.14607e-19)
(1.39811 -0.0517286 -1.42742e-18)
(1.43186 -0.0504127 0)
(1.46509 -0.0491481 0)
(1.49781 -0.0479336 0)
(1.53006 -0.0467688 -7.1333e-19)
(1.56184 -0.0456525 7.12955e-19)
(1.59318 -0.0445842 0)
(1.6241 -0.0435624 1.42307e-18)
(1.65462 -0.0425866 7.10521e-19)
(1.68477 -0.0416549 -1.42103e-18)
(1.71456 -0.0407661 0)
(1.74402 -0.0399178 0)
(1.77316 -0.0391078 -1.41724e-18)
(1.802 -0.0383324 -7.08335e-19)
(1.83056 -0.0375877 0)
(1.85885 -0.0368677 0)
(1.88688 -0.036165 0)
(1.91465 -0.0354695 0)
(1.94216 -0.0347676 -1.40712e-18)
(1.9694 -0.0340412 0)
(1.99634 -0.0332652 0)
(2.02292 -0.0324056 0)
(2.04908 -0.0314141 0)
(2.07469 -0.0302228 0)
(2.09959 -0.0287302 0)
(2.12352 -0.0267853 -1.39796e-18)
(2.14614 -0.0241355 0)
(2.16678 -0.0203766 0)
(2.18519 -0.0147151 -2.81769e-18)
(2.1986 -0.00582886 1.41891e-18)
(2.21323 0.0089411 -1.41689e-18)
(2.20811 0.0363454 1.41259e-18)
(0.0332852 -1.16464 0)
(0.0682534 -1.02607 3.60261e-19)
(0.0322578 -0.743177 0)
(-0.0125612 -0.502666 1.10882e-19)
(-0.0683876 -0.279735 0)
(-0.136761 -0.069923 0)
(-0.220535 0.127115 -8.26293e-20)
(-0.322095 0.310616 0)
(-0.443574 0.48015 0)
(-0.587609 0.636296 0)
(-0.758076 0.781658 0)
(-0.960181 0.922418 0)
(-1.19637 1.06664 2.03289e-19)
(-1.46072 1.21745 9.20465e-20)
(-1.73857 1.36828 -8.33665e-20)
(-2.01162 1.50571 0)
(-2.2644 1.61607 0)
(-2.48716 1.6903 0)
(-2.67527 1.72502 0)
(-2.82717 1.7218 0)
(-2.94532 1.68438 6.00728e-20)
(-3.03546 1.61768 5.87673e-20)
(-3.10381 1.52861 -5.79321e-20)
(-3.15674 1.42497 5.76504e-20)
(-3.19953 1.31343 0)
(-3.23651 1.19935 0)
(-3.27108 1.08706 5.58462e-20)
(-3.30554 0.979774 0)
(-3.34114 0.879577 0)
(-3.37839 0.787474 5.87017e-20)
(-3.41726 0.703687 6.1506e-20)
(-3.45743 0.62798 6.22151e-20)
(-3.49833 0.559816 0)
(-3.53938 0.498498 0)
(-3.57995 0.443267 -6.40149e-20)
(-3.61949 0.393369 0)
(-3.6575 0.348097 0)
(-3.69358 0.306811 6.42803e-20)
(-3.72738 0.268948 -6.59904e-20)
(-3.75863 0.234025 6.59982e-20)
(-3.7871 0.201629 0)
(-3.81262 0.171412 0)
(-3.83502 0.143078 1.29918e-19)
(-3.85418 0.11638 0)
(-3.87 0.0911065 1.2852e-19)
(-3.88237 0.0670828 1.90872e-19)
(-3.89123 0.0441662 -1.89225e-19)
(-3.8965 0.022237 1.25212e-19)
(-3.89814 0.00117858 0)
(-3.89616 -0.0191243 0)
(-3.89058 -0.0387483 1.19744e-19)
(-3.88146 -0.0577114 5.83403e-20)
(-3.86884 -0.0760099 0)
(-3.85275 -0.093642 0)
(-3.83323 -0.110607 5.48313e-20)
(-3.81032 -0.126904 1.08111e-19)
(-3.78409 -0.142531 0)
(-3.75458 -0.157485 -1.01655e-19)
(-3.72188 -0.171763 9.9824e-20)
(-3.68606 -0.185359 -9.68504e-20)
(-3.6472 -0.198269 0)
(-3.60539 -0.210488 0)
(-3.56072 -0.222008 0)
(-3.5133 -0.232829 0)
(-3.46321 -0.242955 0)
(-3.41058 -0.252385 -7.57672e-20)
(-3.3555 -0.261119 0)
(-3.29809 -0.269161 0)
(-3.23847 -0.276519 0)
(-3.17676 -0.283201 -1.22296e-19)
(-3.11306 -0.289218 -5.65386e-20)
(-3.0475 -0.294582 -5.24355e-20)
(-2.98021 -0.299307 9.77023e-20)
(-2.91129 -0.303408 -4.51917e-20)
(-2.84088 -0.306903 3.96376e-20)
(-2.7691 -0.309809 0)
(-2.69605 -0.312148 -3.07107e-20)
(-2.62186 -0.313939 0)
(-2.54665 -0.315204 0)