/*--------------------------------*- C++ -*----------------------------------*\
  =========                 |
  \\      /  F ield         | OpenFOAM: The Open Source CFD Toolbox
   \\    /   O peration     | Website:  https://openfoam.org
    \\  /    A nd           | Version:  8
     \\/     M anipulation  |
\*---------------------------------------------------------------------------*/
FoamFile
{
    version     2.0;
    format      ascii;
    class       volVectorField;
    location    "3600";
    object      U;
}
// * * * * * * * * * * * * * * * * * * * * * * * * * * * * * * * * * * * * * //

dimensions      [0 1 -1 0 0 0 0];

internalField   nonuniform List<vector> 
12225
(
(9.2745 -4.73371 0)
(13.1094 -1.71343 0)
(12.4778 -0.395198 0)
(11.2771 -0.042204 0)
(10.6314 0.0141385 0)
(10.2979 -9.38698e-05 0)
(10.0776 -0.0165232 0)
(9.91227 -0.0028881 0)
(9.77909 0.0348748 0)
(9.66231 0.0428928 0)
(9.55575 0.024883 0)
(9.45767 0.00214184 0)
(9.36676 -0.0227921 0)
(9.28212 -0.0302257 0)
(9.20232 -0.0217882 0)
(9.13253 -0.0212279 0)
(9.07015 -0.0210402 0)
(9.08961 -0.0276971 0)
(10.2592 0.0928019 0)
(10.7814 0.199339 0)
(10.9594 0.245656 0)
(10.7469 0.229144 0)
(10.5875 0.172969 0)
(10.4527 0.115535 0)
(10.33 0.0823316 0)
(10.2327 0.0647302 0)
(10.155 0.052477 0)
(10.0894 0.0472342 0)
(10.0323 0.0469932 0)
(9.98212 0.0489907 0)
(9.93785 0.0517978 0)
(9.89833 0.0519427 0)
(9.8615 0.0483251 0)
(9.82886 0.0438431 0)
(9.79429 0.0300801 0)
(9.76827 0.0102841 0)
(9.87768 -0.24504 0)
(9.74285 0.00579119 0)
(10.1971 0.125744 0)
(10.3245 0.179364 0)
(10.3564 0.161548 0)
(10.3311 0.120077 0)
(10.2777 0.0904943 0)
(10.2252 0.0746661 0)
(10.1812 0.0658756 0)
(10.1438 0.0600293 0)
(10.1103 0.0562088 0)
(10.0799 0.0536513 0)
(10.052 0.0511365 0)
(10.026 0.0487622 0)
(10.0023 0.0460754 0)
(9.98118 0.0417679 0)
(9.95915 0.0316706 0)
(9.93459 0.0135784 0)
(9.83416 -0.443933 0)
(9.57654 -0.163146 0)
(9.91603 0.0336708 0)
(10.0933 0.134225 0)
(10.1892 0.145473 0)
(10.2168 0.120739 0)
(10.205 0.0978955 0)
(10.1824 0.0839098 0)
(10.1599 0.0756299 0)
(10.1389 0.0697126 0)
(10.119 0.0651348 0)
(10.1001 0.0616377 0)
(10.0821 0.0586134 0)
(10.0648 0.0562294 0)
(10.0483 0.0538549 0)
(10.0325 0.050145 0)
(10.0148 0.0424188 0)
(9.99178 0.0306142 0)
(9.87825 -0.387476 0)
(9.61653 -0.196147 0)
(9.81623 -0.0186699 0)
(9.96136 0.0916133 0)
(10.0698 0.122197 0)
(10.1219 0.113628 0)
(10.1354 0.0992645 0)
(10.1332 0.0884213 0)
(10.1257 0.0809488 0)
(10.1162 0.0753969 0)
(10.1056 0.0711244 0)
(10.0946 0.0678821 0)
(10.0833 0.0652544 0)
(10.0718 0.0631568 0)
(10.0601 0.0610449 0)
(10.0477 0.058107 0)
(10.0328 0.0530817 0)
(10.0125 0.0469043 0)
(9.91439 -0.28804 0)
(9.68304 -0.185176 0)
(9.78717 -0.0532072 0)
(9.88917 0.0509997 0)
(9.98796 0.0936804 0)
(10.0476 0.0992043 0)
(10.0751 0.0938747 0)
(10.0861 0.0875184 0)
(10.0892 0.0821208 0)
(10.0879 0.0777648 0)
(10.0842 0.0743511 0)
(10.0789 0.0717604 0)
(10.0726 0.0697421 0)
(10.0654 0.0681724 0)
(10.0572 0.0667263 0)
(10.0476 0.0650439 0)
(10.0354 0.062784 0)
(10.0185 0.0611717 0)
(9.93763 -0.214041 0)
(9.74856 -0.167535 0)
(9.79244 -0.075215 0)
(9.85608 0.016221 0)
(9.93595 0.0644224 0)
(9.99281 0.0805957 0)
(10.0261 0.0835617 0)
(10.0447 0.0822438 0)
(10.0546 0.0797797 0)
(10.0593 0.0772878 0)
(10.0606 0.0751762 0)
(10.0596 0.0735594 0)
(10.057 0.0723897 0)
(10.053 0.0716358 0)
(10.0477 0.0711913 0)
(10.0407 0.0710167 0)
(10.0312 0.0712791 0)
(10.0182 0.0731533 0)
(9.95263 -0.167334 0)
(9.79947 -0.149676 0)
(9.81177 -0.084641 0)
(9.84959 -0.00620984 0)
(9.9114 0.0419324 0)
(9.96107 0.0638976 0)
(9.99432 0.0725504 0)
(10.0156 0.0752866 0)
(10.0289 0.0755302 0)
(10.0367 0.0749038 0)
(10.041 0.0741481 0)
(10.0427 0.0735821 0)
(10.0425 0.0733236 0)
(10.0408 0.0734492 0)
(10.0375 0.0740065 0)
(10.0325 0.0751371 0)
(10.0254 0.0772057 0)
(10.0157 0.0812055 0)
(9.96406 -0.132089 0)
(9.84003 -0.131988 0)
(9.83337 -0.0876896 0)
(9.85306 -0.0213322 0)
(9.89927 0.0244161 0)
(9.94102 0.0495136 0)
(9.97207 0.0621239 0)
(9.99385 0.0680773 0)
(10.0086 0.0706964 0)
(10.0184 0.071795 0)
(10.0246 0.072318 0)
(10.0282 0.072754 0)
(10.0298 0.073361 0)
(10.0297 0.0743197 0)
(10.028 0.0757879 0)
(10.0248 0.0780086 0)
(10.0197 0.0814118 0)
(10.0129 0.0868088 0)
(9.97418 -0.100205 0)
(9.87757 -0.11239 0)
(9.85857 -0.0853659 0)
(9.86387 -0.0323324 0)
(9.89487 0.00892945 0)
(9.92743 0.0352246 0)
(9.95439 0.0507176 0)
(9.97502 0.0594975 0)
(9.99015 0.0644447 0)
(10.0009 0.0673599 0)
(10.0085 0.0692987 0)
(10.0135 0.0708785 0)
(10.0166 0.0724772 0)
(10.018 0.07437 0)
(10.0179 0.0768027 0)
(10.0164 0.0800773 0)
(10.0136 0.0846189 0)
(10.0095 0.0910442 0)
(9.98253 -0.072709 0)
(9.91035 -0.0921961 0)
(9.88507 -0.0782438 0)
(9.88001 -0.038607 0)
(9.89746 -0.00337335 0)
(9.92043 0.0221696 0)
(9.94196 0.0391851 0)
(9.95999 0.0500818 0)
(9.97425 0.057057 0)
(9.98518 0.0617058 0)
(9.99339 0.0650803 0)
(9.99941 0.0678643 0)
(10.0037 0.0705173 0)
(10.0064 0.0733856 0)
(10.0078 0.0767709 0)
(10.0081 0.080993 0)
(10.0073 0.0864256 0)
(10.0058 0.0935046 0)
(9.98894 -0.0502565 0)
(9.93733 -0.0723779 0)
(9.91073 -0.0674477 0)
(9.89917 -0.0399822 0)
(9.90566 -0.0116491 0)
(9.91955 0.011453 0)
(9.93496 0.0285315 0)
(9.94934 0.0405813 0)
(9.96169 0.0490255 0)
(9.97188 0.0551126 0)
(9.98009 0.0597808 0)
(9.98659 0.063704 0)
(9.99163 0.0673726 0)
(9.99544 0.0711657 0)
(9.9982 0.0754046 0)
(10.0001 0.0803918 0)
(10.0013 0.0864275 0)
(10.0021 0.0937951 0)
(9.99348 -0.0329085 0)
(9.9582 -0.0538107 0)
(9.93368 -0.054283 0)
(9.91898 -0.0367866 0)
(9.91755 -0.0154526 0)
(9.92366 0.00399584 0)
(9.93301 0.0197766 0)
(9.94318 0.0318778 0)
(9.9529 0.0410119 0)
(9.96163 0.0480218 0)
(9.96922 0.0536487 0)
(9.9757 0.058485 0)
(9.98118 0.0629938 0)
(9.98578 0.0675428 0)
(9.98965 0.0724357 0)
(9.99294 0.0779326 0)
(9.99587 0.0842552 0)
(9.99869 0.091575 0)
(9.99643 -0.0202023 0)
(9.97327 -0.0372095 0)
(9.95261 -0.0400448 0)
(9.93731 -0.0298099 0)
(9.93089 -0.0148226 0)
(9.93102 0.000367606 0)
(9.93504 0.0137754 0)
(9.94104 0.024844 0)
(9.94782 0.0337603 0)
(9.95465 0.0409925 0)
(9.96117 0.0470512 0)
(9.96724 0.0523963 0)
(9.97281 0.057413 0)
(9.9779 0.0624165 0)
(9.98261 0.0676607 0)
(9.98704 0.0733479 0)
(9.99135 0.079629 0)
(9.99573 0.086597 0)
(9.99816 -0.0112875 0)
(9.9833 -0.0229301 0)
(9.96682 -0.025762 0)
(9.95243 -0.0200758 0)
(9.94344 -0.0102407 0)
(9.93952 0.000676176 0)
(9.9394 0.0110313 0)
(9.94183 0.0201453 0)
(9.94582 0.0279266 0)
(9.95069 0.0345733 0)
(9.95597 0.040387 0)
(9.96139 0.0456777 0)
(9.96681 0.0507232 0)
(9.97216 0.0557556 0)
(9.97744 0.060959 0)
(9.9827 0.0664699 0)
(9.98803 0.0723777 0)
(9.99354 0.0787229 0)
(9.99906 -0.00508064 0)
(9.98922 -0.0107802 0)
(9.97612 -0.011916 0)
(9.96309 -0.00848168 0)
(9.9531 -0.00243342 0)
(9.94685 0.00458005 0)
(9.94399 0.011559 0)
(9.94384 0.0180222 0)
(9.9457 0.0238405 0)
(9.94896 0.0290823 0)
(9.95317 0.0339031 0)
(9.95799 0.0384796 0)
(9.96321 0.0429765 0)
(9.96868 0.0475312 0)
(9.97435 0.0522479 0)
(9.98019 0.0571962 0)
(9.98623 0.0624117 0)
(9.99249 0.0678966 0)
(9.99942 -0.000366996 0)
(9.9918 0.000152417 0)
(9.98042 0.00183335 0)
(9.96821 0.00459499 0)
(9.9579 0.00792166 0)
(9.95061 0.0114033 0)
(9.94642 0.0148186 0)
(9.94498 0.0180905 0)
(9.94576 0.0212359 0)
(9.94825 0.0243208 0)
(9.95198 0.0274265 0)
(9.95661 0.0306299 0)
(9.96186 0.0339936 0)
(9.96757 0.0375616 0)
(9.97362 0.0413575 0)
(9.97993 0.0453863 0)
(9.98648 0.0496337 0)
(9.99325 0.0540701 0)
(9.99935 0.00408504 0)
(9.9911 0.011174 0)
(9.97897 0.0161346 0)
(9.96616 0.0187383 0)
(9.95552 0.0196148 0)
(9.94819 0.0195487 0)
(9.94419 0.0191621 0)
(9.94311 0.0188651 0)
(9.94438 0.018898 0)
(9.94741 0.0193782 0)
(9.95174 0.0203463 0)
(9.95698 0.021797 0)
(9.96287 0.0236995 0)
(9.96919 0.026009 0)
(9.97583 0.0286741 0)
(9.98269 0.0316382 0)
(9.98974 0.0348434 0)
(9.99692 0.038229 0)
(9.99882 0.00972998 0)
(9.98675 0.0240496 0)
(9.97122 0.0318479 0)
(9.95641 0.0332956 0)
(9.94558 0.0307065 0)
(9.93942 0.0263529 0)
(9.93734 0.0217507 0)
(9.93845 0.0177421 0)
(9.94186 0.0146978 0)
(9.94687 0.0127136 0)
(9.95292 0.0117335 0)
(9.95963 0.0116387 0)
(9.96674 0.0122899 0)
(9.97408 0.0135513 0)
(9.98155 0.0152981 0)
(9.98908 0.0174208 0)
(9.99665 0.0198226 0)
(10.0042 0.0224202 0)
(9.99757 0.0182101 0)
(9.97773 0.0404561 0)
(9.95664 0.0495788 0)
(9.93945 0.0474807 0)
(9.92961 0.0394264 0)
(9.92659 0.0296503 0)
(9.92848 0.0204939 0)
(9.93357 0.0129706 0)
(9.94055 0.00735248 0)
(9.94856 0.00352108 0)
(9.95704 0.0012258 0)
(9.96567 0.000176591 0)
(9.97428 0.00010944 0)
(9.98276 0.000791269 0)
(9.99108 0.00203533 0)
(9.99925 0.00369049 0)
(10.0073 0.00563358 0)
(10.0151 0.00776862 0)
(9.99502 0.0318146 0)
(9.96177 0.0621344 0)
(9.93372 0.0695526 0)
(9.91534 0.0601169 0)
(9.90932 0.0439535 0)
(9.91249 0.0276636 0)
(9.92084 0.0139979 0)
(9.93162 0.0036438 0)
(9.94322 -0.00363769 0)
(9.95479 -0.00836991 0)
(9.96594 -0.011127 0)
(9.97652 -0.0123918 0)
(9.9865 -0.0125693 0)
(9.99594 -0.0119627 0)
(10.0049 -0.0108045 0)
(10.0135 -0.00926777 0)
(10.0217 -0.00747831 0)
(10.0296 -0.00553956 0)
(9.99018 0.0534619 0)
(9.93561 0.0901525 0)
(9.90098 0.0906287 0)
(9.88515 0.0687584 0)
(9.8878 0.0418212 0)
(9.90121 0.0186618 0)
(9.91856 0.00142173 0)
(9.93627 -0.0103908 0)
(9.95285 -0.0179348 0)
(9.96786 -0.0223869 0)
(9.98129 -0.0246441 0)
(9.99332 -0.0253856 0)
(10.0042 -0.0250938 0)
(10.0141 -0.0241269 0)
(10.0232 -0.0227228 0)
(10.0318 -0.0210352 0)
(10.0399 -0.019184 0)
(10.0476 -0.0172495 0)
(9.9819 0.0862472 0)
(9.89548 0.124258 0)
(9.85817 0.109884 0)
(9.85209 0.069775 0)
(9.87033 0.0303399 0)
(9.89842 0.00145191 0)
(9.92658 -0.0171997 0)
(9.95135 -0.0283137 0)
(9.9722 -0.0344109 0)
(9.9896 -0.03732 0)
(10.0042 -0.038197 0)
(10.0167 -0.0377937 0)
(10.0276 -0.0366112 0)
(10.0372 -0.0349942 0)
(10.0459 -0.0331432 0)
(10.0539 -0.0311572 0)
(10.0613 -0.0291195 0)
(10.0684 -0.027099 0)
(9.96925 0.13399 0)
(9.83823 0.163089 0)
(9.80793 0.122591 0)
(9.82311 0.0588008 0)
(9.86513 0.00730971 0)
(9.91139 -0.0240238 0)
(9.95035 -0.0405857 0)
(9.98049 -0.0483634 0)
(10.0034 -0.0512235 0)
(10.0212 -0.0515238 0)
(10.0353 -0.0504012 0)
(10.0469 -0.0485024 0)
(10.0565 -0.0462428 0)
(10.0648 -0.0438785 0)
(10.0722 -0.0415479 0)
(10.0789 -0.0392308 0)
(10.0852 -0.0369728 0)
(10.0911 -0.0348569 0)
(9.94951 0.207141 0)
(9.76128 0.207022 0)
(9.75726 0.123478 0)
(9.81042 0.0320116 0)
(9.88382 -0.0278598 0)
(9.94874 -0.0559925 0)
(9.99527 -0.0660685 0)
(10.0266 -0.0677933 0)
(10.048 -0.065958 0)
(10.063 -0.0631733 0)
(10.0743 -0.0598646 0)
(10.083 -0.0564839 0)
(10.09 -0.0531263 0)
(10.0957 -0.0501446 0)
(10.1009 -0.0474759 0)
(10.1056 -0.0449253 0)
(10.11 -0.0425146 0)
(10.1141 -0.0403481 0)
(9.91094 0.322718 0)
(9.65923 0.254545 0)
(9.71887 0.107407 0)
(9.83329 -0.0119227 0)
(9.94173 -0.0726518 0)
(10.0199 -0.0901609 0)
(10.0662 -0.0893191 0)
(10.0918 -0.0831319 0)
(10.1058 -0.0760202 0)
(10.1141 -0.0695978 0)
(10.1197 -0.0644585 0)
(10.1236 -0.0600998 0)
(10.1261 -0.0563584 0)
(10.1279 -0.0531259 0)
(10.1295 -0.0505758 0)
(10.1313 -0.0482136 0)
(10.1329 -0.0456127 0)
(10.1345 -0.0434954 0)
(9.84404 0.43511 0)
(9.53798 0.261026 0)
(9.7269 0.059135 0)
(9.92367 -0.0731153 0)
(10.0584 -0.121552 0)
(10.1345 -0.120191 0)
(10.1665 -0.105279 0)
(10.1758 -0.0906119 0)
(10.1759 -0.0784649 0)
(10.1726 -0.0703533 0)
(10.1686 -0.0644078 0)
(10.1647 -0.0598217 0)
(10.1606 -0.0555401 0)
(10.1564 -0.0521967 0)
(10.1529 -0.0503123 0)
(10.1506 -0.0482169 0)
(10.1482 -0.0456343 0)
(10.1458 -0.0439154 0)
(9.83598 0.319666 0)
(9.55021 0.0912513 0)
(9.91739 -0.0687253 0)
(10.1507 -0.160112 0)
(10.2634 -0.172136 0)
(10.3032 -0.142727 0)
(10.2978 -0.112095 0)
(10.276 -0.0899505 0)
(10.2516 -0.0753722 0)
(10.2302 -0.0674496 0)
(10.2132 -0.0619132 0)
(10.1986 -0.0575185 0)
(10.1843 -0.0523911 0)
(10.1703 -0.0482341 0)
(10.1594 -0.0467721 0)
(10.1504 -0.043947 0)
(10.1409 -0.0396706 0)
(10.1324 -0.038927 0)
(10.2049 -0.0633775 0)
(10.4095 -0.191706 0)
(10.7164 -0.282558 0)
(10.6879 -0.282287 0)
(10.6191 -0.230103 0)
(10.5417 -0.163669 0)
(10.4545 -0.117043 0)
(10.3763 -0.0924956 0)
(10.3136 -0.0798679 0)
(10.2654 -0.0678547 0)
(10.2261 -0.0589724 0)
(10.1924 -0.0539316 0)
(10.1597 -0.0536937 0)
(10.1305 -0.0530294 0)
(10.1086 -0.047524 0)
(10.0852 -0.0454796 0)
(10.0625 -0.0482518 0)
(10.0457 -0.0447272 0)
(9.41631 4.45107 0)
(12.7294 2.07612 0)
(12.5649 0.621213 0)
(11.569 0.127658 0)
(10.9309 0.00343472 0)
(10.5866 -0.00206751 0)
(10.3638 0.0123127 0)
(10.2021 0.0302295 0)
(10.0796 0.0412445 0)
(9.97712 0.035689 0)
(9.88537 0.0255647 0)
(9.7981 0.020741 0)
(9.72381 0.0274794 0)
(9.66289 0.0262717 0)
(9.60005 0.00145941 0)
(9.54295 -0.00539875 0)
(9.49687 0.00930027 0)
(9.44929 -0.00384015 0)
(-0.0275195 0.0934357 0)
(0.137016 -0.183498 0)
(0.324981 -0.305886 0)
(0.525466 -0.315109 0)
(0.70294 -0.272066 0)
(0.833489 -0.211075 0)
(0.909807 -0.146336 -8.60204e-20)
(0.940387 -0.0824911 8.66445e-20)
(0.919513 -0.0201685 0)
(0.858828 0.0345418 9.18653e-20)
(0.77167 0.0739647 0)
(0.672407 0.0920095 0)
(0.578483 0.0877274 0)
(0.505682 0.0666658 -1.43208e-19)
(0.455732 0.0377116 0)
(0.412391 0.00997463 0)
(0.352863 -0.00897269 1.87935e-19)
(0.262709 -0.00867978 0)
(0.135171 0.0293037 0)
(-0.0448137 0.112944 0)
(-0.300522 0.186488 -1.64818e-19)
(-0.594218 0.235259 0)
(-0.915638 0.266817 -7.62399e-20)
(-1.25189 0.296035 0)
(-1.59132 0.323653 0)
(-1.93106 0.336463 -4.13227e-20)
(-2.26348 0.335615 0)
(-2.58059 0.326492 3.45407e-20)
(-2.87937 0.310355 0)
(-3.15638 0.289555 -3.13416e-20)
(-3.41073 0.266419 0)
(-3.64203 0.242539 0)
(-3.85101 0.218948 0)
(-4.03875 0.196354 0)
(-4.20669 0.175132 0)
(-4.35641 0.15549 2.82298e-20)
(-4.48948 0.137462 0)
(-4.60739 0.120977 -5.5571e-20)
(-4.71152 0.105908 0)
(-4.80309 0.0920963 5.47723e-20)
(-4.88315 0.0793788 0)
(-4.95261 0.0676037 0)
(-5.0122 0.0566432 -5.35502e-20)
(-5.06257 0.0464007 0)
(-5.10421 0.0368167 -5.26585e-20)
(-5.13753 0.0278741 5.21807e-20)
(-5.16293 0.0196174 0)
(-5.18079 0.0121942 5.11538e-20)
(-5.1914 0.00585245 5.06014e-20)
(-5.19493 0.000802593 0)
(-5.19261 -0.00315108 0)
(-5.18569 -0.00644945 0)
(-5.17431 -0.00937195 0)
(-5.15878 -0.0120827 0)
(-5.13928 -0.0146513 -4.61819e-20)
(-5.11594 -0.0170915 0)
(-5.08887 -0.0194144 4.43167e-20)
(-5.05818 -0.0216291 0)
(-5.02396 -0.0237379 0)
(-4.98632 -0.0257425 -4.11386e-20)
(-4.94537 -0.0276434 0)
(-4.90121 -0.0294406 3.87629e-20)
(-4.85395 -0.0311338 0)
(-4.80371 -0.032723 0)
(-4.75059 -0.0342082 0)
(-4.69473 -0.0355892 -3.33834e-20)
(-4.63624 -0.0368665 0)
(-4.57525 -0.038041 0)
(-4.51189 -0.0391133 -2.8786e-20)
(-4.44629 -0.040084 0)
(-4.37857 -0.0409548 -2.54447e-20)
(-4.30887 -0.0417269 0)
(-4.23732 -0.042402 0)
(-4.16405 -0.0429821 0)
(-4.08919 -0.043469 1.80673e-20)
(-4.01288 -0.0438649 0)
(-3.93523 -0.0441719 0)
(-3.85639 -0.0443923 1.18853e-20)
(-3.77647 -0.0445284 9.69146e-21)
(-3.69559 -0.0445828 0)
(-3.61388 -0.0445595 5.08966e-21)
(-3.53144 -0.0444629 0)
(-3.4484 -0.0442989 3.63285e-22)
(-3.36486 -0.0440726 0)
(-3.28091 -0.043787 -1.01268e-20)
(-3.19666 -0.0434447 0)
(-3.11219 -0.0430537 2.13691e-20)
(-3.02759 -0.0426388 0)
(-2.94293 -0.0422435 0)
(-2.85827 -0.0419169 0)
(-2.77363 -0.0417044 -4.65621e-20)
(-2.68905 -0.0416724 0)
(-2.60453 -0.0419261 6.08367e-20)
(-2.52005 -0.0425358 0)
(-2.43555 -0.0434273 -7.6507e-20)
(-2.3513 -0.0443276 -8.48857e-20)
(-2.26754 -0.0447834 -9.35942e-20)
(-2.18452 -0.0445752 0)
(-2.1024 -0.0439703 0)
(-2.02122 -0.0432718 0)
(-1.94098 -0.0425667 0)
(-1.8617 -0.0418664 0)
(-1.78339 -0.0411717 0)
(-1.70607 -0.0404846 0)
(-1.62979 -0.0398087 0)
(-1.55455 -0.0391499 1.92706e-19)
(-1.48037 -0.0385152 2.07026e-19)
(-1.40727 -0.0379099 0)
(-1.33526 -0.0373232 0)
(-1.26438 -0.0366977 0)
(-1.19465 -0.0360398 2.74293e-19)
(-1.12607 -0.0354055 0)
(-1.05866 -0.0347898 0)
(-0.992415 -0.0341939 0)
(-0.927333 -0.0336196 0)
(-0.863417 -0.033069 -3.9093e-19)
(-0.800665 -0.0325444 0)
(-0.739072 -0.0320491 0)
(-0.678633 -0.0315867 4.89105e-19)
(-0.61934 -0.0311585 -5.28801e-19)
(-0.561188 -0.0307682 0)
(-0.504167 -0.0304261 -6.22405e-19)
(-0.448265 -0.0301562 0)
(-0.393464 -0.0300029 7.41375e-19)
(-0.339741 -0.0299772 0)
(-0.287082 -0.0300407 0)
(-0.235474 -0.0301803 0)
(-0.184887 -0.0304071 0)
(-0.135295 -0.0307364 0)
(-0.0867431 -0.0311871 -2.8463e-18)
(-0.0394415 -0.0316414 -3.2769e-18)
(0.00666182 -0.0313435 0)
(0.0520766 -0.0298475 0)
(0.0968144 -0.0279975 0)
(0.140734 -0.0262797 2.68517e-18)
(0.183742 -0.024747 0)
(0.225818 -0.0233737 0)
(0.266985 -0.0221363 0)
(0.307274 -0.021015 2.04016e-18)
(0.346718 -0.0199924 -1.93386e-18)
(0.385343 -0.0190545 0)
(0.423176 -0.0181896 0)
(0.460242 -0.0173887 -1.68704e-18)
(0.496565 -0.0166442 -1.62236e-18)
(0.532168 -0.0159501 0)
(0.567074 -0.015301 0)
(0.601306 -0.0146928 1.46405e-18)
(0.634886 -0.0141218 -1.42056e-18)
(0.667837 -0.013585 0)
(0.700181 -0.0130796 0)
(0.731942 -0.0126034 -1.31026e-18)
(0.763142 -0.0121543 0)
(0.793804 -0.0117305 0)
(0.823951 -0.0113306 -1.22273e-18)
(0.853606 -0.010953 0)
(0.882793 -0.0105967 -1.17364e-18)
(0.911535 -0.0102603 0)
(0.939854 -0.00994281 0)
(0.967775 -0.00964322 0)
(0.995318 -0.00936044 1.09162e-18)
(1.02251 -0.00909333 0)
(1.04936 -0.00884068 0)
(1.0759 -0.00860098 0)
(1.10213 -0.00837248 0)
(1.12807 -0.0081529 0)
(1.15372 -0.00793934 0)
(1.17908 -0.00772791 9.82786e-19)
(1.20411 -0.00751349 9.69862e-19)
(1.22879 -0.00728907 0)
(1.25304 -0.00704513 0)
(1.27676 -0.00676814 0)
(1.29977 -0.00643953 -9.24502e-19)
(1.32185 -0.00602954 0)
(1.34259 -0.00549947 1.81388e-18)
(1.36153 -0.00476228 -1.80051e-18)
(1.37728 -0.00372651 -1.79177e-18)
(1.38987 -0.00195509 1.79007e-18)
(1.39029 0.00132665 -1.79545e-18)
(1.3876 0.00807466 1.80877e-18)
(1.30833 0.0198888 0)
(0.0963162 -0.268973 0)
(0.334071 -0.681261 0)
(0.514178 -0.706517 1.57362e-19)
(0.611819 -0.571344 0)
(0.662816 -0.408896 -1.1114e-19)
(0.683256 -0.253825 -1.08106e-19)
(0.67723 -0.112173 -5.62555e-20)
(0.646857 0.0155852 -5.62007e-20)
(0.60388 0.125404 0)
(0.544685 0.211927 -6.08093e-20)
(0.467875 0.267405 0)
(0.373391 0.283208 0)
(0.257591 0.256439 1.70496e-19)
(0.110262 0.211437 9.82874e-20)
(-0.0747603 0.20628 -1.8447e-19)
(-0.301025 0.271825 -1.43804e-19)
(-0.579 0.383397 -5.71921e-20)
(-0.904927 0.513233 0)
(-1.25851 0.642597 0)
(-1.61661 0.756427 0)
(-1.97223 0.841985 -2.85762e-20)
(-2.31782 0.895555 0)
(-2.64772 0.919042 6.90653e-20)
(-2.95444 0.915464 0)
(-3.23394 0.889029 0)
(-3.48458 0.844864 1.98201e-20)
(-3.70496 0.788299 0)
(-3.89591 0.724864 -1.97623e-20)
(-4.0593 0.65879 -4.17988e-20)
(-4.19869 0.592789 2.01691e-20)
(-4.31698 0.528964 0)
(-4.41708 0.469096 0)
(-4.5017 0.414016 0)
(-4.57323 0.364076 -4.42602e-20)
(-4.63374 0.319238 -4.47665e-20)
(-4.68492 0.279227 -2.21905e-20)
(-4.72815 0.243636 0)
(-4.76454 0.21198 4.53086e-20)
(-4.79498 0.183763 0)
(-4.82018 0.158503 -4.58804e-20)
(-4.84075 0.135759 0)
(-4.85715 0.115138 0)
(-4.86983 0.0962985 4.60908e-20)
(-4.87915 0.0789499 0)
(-4.88545 0.0628519 1.38173e-19)
(-4.88905 0.04781 -4.56113e-20)
(-4.89022 0.0336888 0)
(-4.88921 0.020458 -4.49421e-20)
(-4.88628 0.00823363 -4.44854e-20)
(-4.88169 -0.00282213 0)
(-4.87454 -0.0127651 0)
(-4.86371 -0.0218912 0)
(-4.84921 -0.0304435 0)
(-4.83092 -0.0385367 0)
(-4.80887 -0.0462403 4.02194e-20)
(-4.78313 -0.0535913 7.91692e-20)
(-4.75378 -0.0606108 -3.84421e-20)
(-4.72089 -0.0673102 0)
(-4.68455 -0.0736951 7.34907e-20)
(-4.64487 -0.0797682 -3.5969e-20)
(-4.60193 -0.0855302 0)
(-4.55583 -0.0909809 -3.3269e-20)
(-4.5067 -0.0961201 0)
(-4.45462 -0.100949 0)
(-4.39972 -0.10547 -5.9896e-20)
(-4.34211 -0.109683 2.83874e-20)
(-4.28191 -0.113587 -5.47043e-20)
(-4.21924 -0.117187 5.19855e-20)
(-4.15423 -0.120485 2.42957e-20)
(-4.08701 -0.123486 0)
(-4.01769 -0.126195 2.13627e-20)
(-3.9464 -0.128618 0)
(-3.87329 -0.130762 0)
(-3.79847 -0.132634 0)
(-3.72206 -0.134242 1.56361e-20)
(-3.64421 -0.135594 0)
(-3.56503 -0.136701 2.37693e-20)
(-3.48465 -0.137571 -2.99781e-20)
(-3.40318 -0.138215 -7.94294e-21)
(-3.32075 -0.138645 0)
(-3.23748 -0.13887 -4.14223e-21)
(-3.15347 -0.138903 0)
(-3.06883 -0.138755 -2.93471e-22)
(-2.98368 -0.138438 0)
(-2.8981 -0.137963 8.11268e-21)
(-2.81221 -0.137345 -2.35671e-20)
(-2.72609 -0.136594 -1.6966e-20)
(-2.63984 -0.135722 0)
(-2.55353 -0.134737 0)
(-2.46728 -0.13364 0)
(-2.38117 -0.132433 3.61848e-20)
(-2.29532 -0.131109 0)
(-2.20985 -0.12964 -4.66561e-20)
(-2.12493 -0.127968 0)
(-2.04069 -0.126042 1.71882e-19)
(-1.9572 -0.123887 6.36329e-20)
(-1.87448 -0.121604 6.96644e-20)
(-1.79246 -0.119299 0)
(-1.71113 -0.11703 0)
(-1.63054 -0.114796 0)
(-1.55076 -0.112574 0)
(-1.47183 -0.110349 0)
(-1.3938 -0.108118 2.19495e-19)
(-1.3167 -0.105881 2.34987e-19)
(-1.24056 -0.103641 0)
(-1.1654 -0.101402 -1.34762e-19)
(-1.09126 -0.0991663 -1.43542e-19)
(-1.01816 -0.0969351 0)
(-0.946123 -0.0947107 -3.23039e-19)
(-0.875163 -0.0924976 0)
(-0.805274 -0.0903093 1.81324e-19)
(-0.736467 -0.0881516 0)
(-0.668751 -0.0860247 0)
(-0.602132 -0.0839311 -4.34451e-19)
(-0.536612 -0.0818721 0)
(-0.472191 -0.0798493 2.44832e-19)
(-0.40887 -0.0778659 0)
(-0.346648 -0.0759273 0)
(-0.285518 -0.0740425 2.89768e-19)
(-0.225471 -0.0722095 3.09071e-19)
(-0.166501 -0.070423 0)
(-0.108602 -0.0686858 -3.46364e-19)
(-0.0517789 -0.0669982 0)
(0.0039712 -0.0653517 3.82641e-19)
(0.0586898 -0.0637392 7.66219e-19)
(0.11241 -0.0621722 0)
(0.165133 -0.0606654 0)
(0.21686 -0.0592232 0)
(0.267603 -0.0578434 0)
(0.317398 -0.0565282 7.09264e-19)
(0.366312 -0.0552667 2.09652e-18)
(0.414434 -0.0538889 0)
(0.461675 -0.0522444 0)
(0.507896 -0.050471 0)
(0.553165 -0.0487247 -6.65648e-19)
(0.597565 -0.0470574 0)
(0.641123 -0.0454777 0)
(0.683856 -0.0439829 1.28797e-18)
(0.725786 -0.0425667 6.36965e-19)
(0.766935 -0.0412216 6.3244e-19)
(0.807324 -0.0399409 0)
(0.846973 -0.0387191 0)
(0.885905 -0.037552 6.15893e-19)
(0.924141 -0.0364357 -6.09656e-19)
(0.961702 -0.0353675 0)
(0.998609 -0.0343446 0)
(1.03488 -0.0333651 -5.96796e-19)
(1.07055 -0.0324271 1.77641e-18)
(1.10562 -0.031529 0)
(1.14013 -0.0306692 0)
(1.17409 -0.0298466 5.80327e-19)
(1.20752 -0.0290599 0)
(1.24046 -0.028308 1.14494e-18)
(1.27291 -0.02759 -5.6854e-19)
(1.30491 -0.0269048 0)
(1.33647 -0.0262516 5.62425e-19)
(1.36761 -0.0256292 1.11757e-18)
(1.39836 -0.0250366 0)
(1.42874 -0.0244726 0)
(1.45877 -0.0239357 -5.49588e-19)
(1.48847 -0.0234241 0)
(1.51786 -0.0229356 1.08646e-18)
(1.54695 -0.0224672 0)
(1.57575 -0.0220152 0)
(1.60428 -0.0215746 0)
(1.63253 -0.0211387 0)
(1.6605 -0.0206985 -5.29006e-19)
(1.68817 -0.0202421 -5.26238e-19)
(1.7155 -0.0197531 0)
(1.74244 -0.0192086 0)
(1.76888 -0.0185772 0)
(1.7947 -0.0178133 5.1614e-19)
(1.81968 -0.0168498 0)
(1.8435 -0.0155835 -1.02486e-18)
(1.86574 -0.0138376 1.0226e-18)
(1.88548 -0.0113274 1.02222e-18)
(1.90228 -0.00731225 1.02331e-18)
(1.91249 -0.000521435 1.02847e-18)
(1.92479 0.0124229 1.02036e-18)
(1.90523 0.0361854 0)
(0.116441 -0.859705 0)
(0.269018 -1.05683 0)
(0.316112 -0.826008 -1.26331e-19)
(0.31542 -0.584236 -1.0817e-19)
(0.297989 -0.373771 1.0049e-19)
(0.266781 -0.188643 1.00671e-19)
(0.220599 -0.0231831 -6.44907e-22)
(0.158704 0.12456 0)
(0.0809673 0.255103 0)
(-0.0138453 0.366021 0)
(-0.129291 0.451732 0)
(-0.273435 0.512793 0)
(-0.459193 0.566615 -2.67339e-19)
(-0.697052 0.641348 0)
(-0.983275 0.753903 6.62779e-20)
(-1.30201 0.895869 5.71768e-20)
(-1.63529 1.04398 0)
(-1.96623 1.17799 0)
(-2.27956 1.28538 0)
(-2.56345 1.35909 0)
(-2.81257 1.39483 3.49047e-20)
(-3.0265 1.39239 0)
(-3.20665 1.35643 -3.23473e-20)
(-3.35584 1.29419 0)
(-3.47855 1.21299 0)
(-3.57938 1.11922 0)
(-3.66313 1.01897 -6.85892e-20)
(-3.73417 0.917581 0)
(-3.79604 0.819174 3.31181e-20)
(-3.8515 0.726549 -7.07027e-20)
(-3.90247 0.64122 0)
(-3.95026 0.563924 0)
(-3.99562 0.49471 0)
(-4.03892 0.433195 3.65653e-20)
(-4.08025 0.37873 3.71526e-20)
(-4.11959 0.330541 0)
(-4.15679 0.287834 0)
(-4.19167 0.249847 -7.78023e-20)
(-4.22407 0.215886 -7.81952e-20)
(-4.25381 0.18534 7.84282e-20)
(-4.28075 0.157691 0)
(-4.30479 0.13251 0)
(-4.32582 0.109449 0)
(-4.34377 0.0882231 0)
(-4.35859 0.0685989 -7.70117e-20)
(-4.37022 0.0503767 -7.69136e-20)
(-4.37858 0.0333721 7.62707e-20)
(-4.38355 0.0173842 0)
(-4.38494 0.00215677 0)
(-4.38261 -0.0125968 0)
(-4.37649 -0.0270094 0)
(-4.36664 -0.0409945 -7.1107e-20)
(-4.35313 -0.0544603 0)
(-4.33597 -0.0673954 0)
(-4.31521 -0.0798042 -6.69953e-20)
(-4.29092 -0.0916953 -6.49696e-20)
(-4.26314 -0.103076 0)
(-4.23195 -0.113951 1.24571e-19)
(-4.19744 -0.124322 -6.00315e-20)
(-4.15967 -0.134189 5.82549e-20)
(-4.11876 -0.143549 0)
(-4.07477 -0.152402 0)
(-4.02783 -0.160745 0)
(-3.97803 -0.168577 0)
(-3.92548 -0.175901 4.84232e-20)
(-3.87029 -0.18272 9.37774e-20)
(-3.81258 -0.189031 4.40579e-20)
(-3.75245 -0.194838 -4.17857e-20)
(-3.69004 -0.200148 0)
(-3.62547 -0.204967 7.5426e-20)
(-3.55885 -0.209303 7.05429e-20)
(-3.49031 -0.213165 6.55434e-20)
(-3.41998 -0.216563 -6.04282e-20)
(-3.34798 -0.219509 0)
(-3.27444 -0.222016 -7.41008e-20)
(-3.19947 -0.224096 0)
(-3.12321 -0.225765 2.00959e-20)
(-3.04578 -0.227038 1.58728e-20)
(-2.96729 -0.22793 0)
(-2.88786 -0.228459 0)
(-2.8076 -0.228642 1.53628e-20)
(-2.72664 -0.228496 0)
(-2.64508 -0.228041 2.92842e-21)
(-2.56302 -0.227294 0)
(-2.48058 -0.226275 9.99445e-21)
(-2.39785 -0.225002 3.47167e-20)
(-2.31493 -0.223496 0)
(-2.23192 -0.221775 0)
(-2.14891 -0.219859 0)
(-2.066 -0.217765 4.45791e-20)
(-1.98329 -0.215507 0)
(-1.90087 -0.213097 5.94006e-20)
(-1.81885 -0.210537 0)
(-1.7373 -0.207813 0)
(-1.6563 -0.204896 -1.67047e-19)
(-1.57589 -0.201773 0)
(-1.49608 -0.198457 -9.93097e-20)
(-1.41688 -0.194991 0)
(-1.33833 -0.191433 -1.16589e-19)
(-1.26046 -0.187821 0)
(-1.18336 -0.184173 0)
(-1.10706 -0.180496 0)
(-1.03161 -0.176798 -4.62678e-19)
(-0.95704 -0.173084 -1.65039e-19)
(-0.883387 -0.169361 0)
(-0.810675 -0.165636 0)
(-0.738929 -0.161916 0)
(-0.668171 -0.158204 0)
(-0.598419 -0.154506 2.18832e-19)
(-0.529684 -0.150827 -4.58454e-19)
(-0.461972 -0.147176 -2.42665e-19)
(-0.395295 -0.143562 5.07643e-19)
(-0.329663 -0.139991 5.3344e-19)
(-0.265081 -0.136468 2.81369e-19)
(-0.201552 -0.132996 0)
(-0.139077 -0.129574 6.16204e-19)
(-0.0776576 -0.126207 0)
(-0.0172944 -0.122897 -6.73542e-19)
(0.0420184 -0.119646 -3.45159e-19)
(0.100294 -0.116455 0)
(0.15754 -0.113326 6.93125e-19)
(0.21376 -0.110263 3.48832e-19)
(0.268966 -0.107266 0)
(0.323168 -0.104325 3.48726e-19)
(0.376374 -0.101429 -1.05282e-18)
(0.428593 -0.0985876 0)
(0.479839 -0.0958111 0)
(0.530128 -0.0931021 0)
(0.579478 -0.0904614 0)
(0.627912 -0.0878935 -7.07754e-19)
(0.675464 -0.0854056 -7.10246e-19)
(0.722156 -0.0830125 0)
(0.767956 -0.0807016 0)
(0.812848 -0.0784337 0)
(0.856884 -0.0762074 0)
(0.900108 -0.0740389 0)
(0.942535 -0.0719369 0)
(0.98418 -0.069904 -7.14021e-19)
(1.02506 -0.06794 -1.08878e-21)
(1.06519 -0.0660432 0)
(1.10459 -0.0642117 0)
(1.14328 -0.0624435 -7.13854e-19)
(1.18128 -0.0607367 0)
(1.21861 -0.0590898 7.14902e-19)
(1.25529 -0.0575013 7.14041e-19)
(1.29135 -0.0559699 0)
(1.32679 -0.0544944 0)
(1.36165 -0.0530736 -7.14574e-19)
(1.39595 -0.0517064 -1.42735e-18)
(1.42969 -0.050392 0)
(1.46292 -0.0491291 0)
(1.49563 -0.0479171 0)
(1.52787 -0.0467548 -7.13268e-19)
(1.55965 -0.0456414 7.12886e-19)
(1.59099 -0.0445759 0)
(1.62191 -0.0435572 1.4229e-18)
(1.65243 -0.0425842 7.10428e-19)
(1.68258 -0.0416556 -1.42084e-18)
(1.71237 -0.0407696 0)
(1.74183 -0.0399243 0)
(1.77097 -0.0391171 -1.41703e-18)
(1.79982 -0.0383447 -7.08225e-19)
(1.82839 -0.0376027 0)
(1.85669 -0.0368855 0)
(1.88473 -0.0361855 0)
(1.91252 -0.0354926 0)
(1.94005 -0.0347931 -1.40689e-18)
(1.96731 -0.0340688 0)
(1.99427 -0.0332948 0)
(2.02088 -0.0324368 0)
(2.04706 -0.0314469 0)
(2.07271 -0.0302568 0)
(2.09764 -0.0287656 0)
(2.1216 -0.0268221 -1.39754e-18)
(2.14425 -0.0241744 0)
(2.16492 -0.0204174 0)
(2.18338 -0.0147588 -2.81629e-18)
(2.19682 -0.00588098 1.41817e-18)
(2.21152 0.00887365 -1.41629e-18)
(2.20642 0.0362532 1.41174e-18)
(0.0333219 -1.16607 0)
(0.0696845 -1.02976 3.59939e-19)
(0.0339316 -0.7468 0)
(-0.0105252 -0.506322 1.1088e-19)
(-0.0658602 -0.283602 0)
(-0.133725 -0.0740131 0)
(-0.21697 0.122841 -8.2808e-20)
(-0.317969 0.306223 0)
(-0.438847 0.475693 0)
(-0.58221 0.631806 0)
(-0.751911 0.777099 0)
(-0.953164 0.917674 0)
(-1.1886 1.06164 2.04197e-19)
(-1.45262 1.21241 9.24364e-20)
(-1.73077 1.36374 -8.36883e-20)
(-2.00467 1.50226 0)
(-2.25858 1.61416 0)
(-2.48247 1.69009 0)
(-2.67154 1.72633 0)
(-2.82437 1.72415 0)
(-2.94352 1.6874 6.01631e-20)
(-3.03455 1.62132 5.88465e-20)
(-3.10354 1.53276 -5.79935e-20)
(-3.15684 1.42939 5.7692e-20)
(-3.19984 1.31789 0)
(-3.23686 1.20368 0)
(-3.2714 1.09112 5.58451e-20)
(-3.30578 0.98349 0)
(-3.3413 0.882912 0)
(-3.37846 0.790427 5.86994e-20)
(-3.41727 0.706276 6.15174e-20)
(-3.45738 0.630234 6.22291e-20)
(-3.49827 0.561769 0)
(-3.53931 0.500186 0)
(-3.57989 0.444725 -6.40392e-20)
(-3.61945 0.394628 0)
(-3.6575 0.349185 0)
(-3.69363 0.307752 6.43121e-20)
(-3.72748 0.269766 -6.60322e-20)
(-3.75878 0.234737 6.60427e-20)
(-3.7873 0.20225 0)
(-3.81287 0.171956 0)
(-3.83532 0.143557 1.30018e-19)
(-3.85453 0.116804 0)
(-3.87039 0.091484 1.2863e-19)
(-3.88282 0.0674211 1.91042e-19)
(-3.89172 0.0444713 -1.894e-19)
(-3.89703 0.0225144 1.25332e-19)
(-3.89872 0.00143321 0)
(-3.89677 -0.0188882 0)
(-3.89124 -0.0385278 1.19876e-19)
(-3.88216 -0.0575047 5.8407e-20)
(-3.86957 -0.0758149 0)
(-3.85352 -0.0934571 0)
(-3.83403 -0.110431 5.49008e-20)
(-3.81115 -0.126735 1.08252e-19)
(-3.78495 -0.142369 0)
(-3.75548 -0.157329 -1.01799e-19)
(-3.72281 -0.171613 9.99697e-20)
(-3.68702 -0.185214 -9.69977e-20)
(-3.64819 -0.198128 0)
(-3.60641 -0.210351 0)
(-3.56177 -0.221876 0)
(-3.51437 -0.232701 0)
(-3.46431 -0.242831 0)
(-3.4117 -0.252265 -7.59246e-20)
(-3.35665 -0.261002 0)
(-3.29927 -0.269048 0)
(-3.23967 -0.27641 0)
(-3.17798 -0.283097 -1.22625e-19)
(-3.1143 -0.289118 -5.6705e-20)
(-3.04877 -0.294486 -5.26038e-20)
(-2.9815 -0.299215 9.80426e-20)
(-2.9126 -0.30332 -4.53638e-20)
(-2.84221 -0.30682 3.98118e-20)
(-2.77045 -0.309731 0)
(-2.69742 -0.312074 -3.08892e-20)
(-2.62325 -0.313869 0)
(-2.54805 -0.315139 0)
(-2.47195 -0.315905 0)
(-2.39504 -0.316191 -2.5492e-20)
(-2.31745 -0.316021 8.4861e-21)
(-2.23927 -0.315419 4.76862e-21)