/*--------------------------------*- C++ -*----------------------------------*\
  =========                 |
  \\      /  F ield         | OpenFOAM: The Open Source CFD Toolbox
   \\    /   O peration     | Website:  https://openfoam.org
    \\  /    A nd           | Version:  8
     \\/     M anipulation  |
\*---------------------------------------------------------------------------*/
FoamFile
{
    version     2.0;
    format      ascii;
    class       volScalarField;
    location    "1600";
    object      k;
}
// * * * * * * * * * * * * * * * * * * * * * * * * * * * * * * * * * * * * * //

dimensions      [0 2 -2 0 0 0 0];

internalField   nonuniform List<scalar> 
12225
(
2.35982
2.14205
2.0821
1.96024
1.91182
1.79917
1.79182
1.74659
1.70375
1.17019
3.48089
3.79095
5.28571
3.71769
2.75999
2.32261
1.13396
3.54294
0.502227
0.570648
0.619444
0.690776
0.723954
0.731162
0.774286
0.794317
0.863298
0.829352
0.88802
0.894961
0.956768
0.990396
0.967947
0.992909
0.963095
1.01792
0.388972
0.395083
0.41574
0.423243
0.42744
0.4302
0.434057
0.44343
0.450925
0.450817
0.450891
0.451645
0.454016
0.461101
0.467008
0.473468
0.475351
0.488631
0.37698
0.382927
0.376435
0.381811
0.378649
0.381321
0.383153
0.382809
0.381852
0.377808
0.373839
0.368647
0.36551
0.361994
0.359683
0.358512
0.356543
0.356264
0.373692
0.374816
0.371619
0.37097
0.36931
0.368568
0.36796
0.366496
0.365091
0.361631
0.359194
0.355032
0.352465
0.348629
0.346613
0.343374
0.341999
0.339343
0.373245
0.372383
0.369876
0.368079
0.366288
0.364751
0.363455
0.361712
0.360077
0.357757
0.355782
0.35341
0.351458
0.349431
0.347824
0.346265
0.345086
0.343949
0.373722
0.37172
0.369507
0.367496
0.365594
0.363835
0.362199
0.360494
0.3588
0.356995
0.35527
0.353572
0.351984
0.350532
0.34919
0.347996
0.346879
0.345844
0.373807
0.371617
0.369463
0.367417
0.365504
0.363686
0.361968
0.360287
0.358633
0.356998
0.355411
0.353905
0.352473
0.351153
0.349905
0.348762
0.34767
0.34664
0.37382
0.371588
0.369447
0.367408
0.365481
0.363655
0.361917
0.360248
0.358637
0.357077
0.355577
0.354147
0.35279
0.351516
0.350308
0.349175
0.348096
0.347062
0.373826
0.37157
0.369427
0.367391
0.365462
0.36363
0.361892
0.360233
0.358649
0.357129
0.355678
0.354292
0.352974
0.351724
0.350535
0.349407
0.348333
0.347309
0.373825
0.371562
0.369415
0.367377
0.365444
0.363608
0.361867
0.360211
0.358635
0.357132
0.3557
0.354332
0.353033
0.351793
0.350614
0.349489
0.348418
0.347396
0.373827
0.371557
0.369406
0.367364
0.365427
0.363589
0.361843
0.360184
0.358608
0.357106
0.355677
0.354316
0.35302
0.351784
0.350605
0.349482
0.348409
0.347389
0.373826
0.371554
0.369399
0.367353
0.365416
0.363572
0.361824
0.36016
0.35858
0.357077
0.355645
0.354283
0.352984
0.351749
0.350566
0.349442
0.348367
0.347343
0.373826
0.371552
0.369393
0.367348
0.365404
0.363561
0.361807
0.360142
0.358558
0.357051
0.355617
0.354251
0.352951
0.35171
0.350528
0.349398
0.348323
0.347294
0.373826
0.37155
0.369391
0.367341
0.365397
0.36355
0.361795
0.360127
0.358541
0.357032
0.355594
0.354227
0.352923
0.35168
0.350494
0.349364
0.348284
0.347255
0.373825
0.371549
0.369387
0.367337
0.365391
0.363543
0.361786
0.360117
0.358528
0.357017
0.355578
0.354208
0.352901
0.351657
0.350468
0.349336
0.348254
0.347223
0.373825
0.371548
0.369386
0.367335
0.365387
0.363538
0.36178
0.360109
0.35852
0.357007
0.355567
0.354195
0.352887
0.35164
0.350451
0.349317
0.348233
0.347201
0.373825
0.371545
0.369388
0.367333
0.365389
0.363535
0.36178
0.360105
0.358518
0.357003
0.355563
0.354189
0.352881
0.351633
0.350443
0.349308
0.348224
0.347191
0.373824
0.371548
0.369386
0.367338
0.365387
0.36354
0.361779
0.36011
0.358518
0.357006
0.355564
0.354192
0.352883
0.351636
0.350446
0.34931
0.348227
0.347192
0.373823
0.371547
0.369389
0.367338
0.365393
0.363542
0.361787
0.360114
0.358526
0.357012
0.355573
0.3542
0.352893
0.351645
0.350456
0.349321
0.348238
0.347204
0.373826
0.371548
0.36939
0.367343
0.365398
0.363551
0.361794
0.360125
0.358538
0.357026
0.355587
0.354216
0.352909
0.351663
0.350474
0.34934
0.348258
0.347224
0.373822
0.37155
0.369394
0.367348
0.365406
0.36356
0.361808
0.360142
0.358555
0.357048
0.35561
0.354242
0.352937
0.351693
0.350506
0.349375
0.348295
0.347264
0.373829
0.371552
0.369401
0.36736
0.365421
0.363581
0.361833
0.360174
0.3586
0.3571
0.355673
0.354311
0.353016
0.351779
0.350601
0.349475
0.348404
0.347379
0.373831
0.37155
0.369409
0.367378
0.365463
0.363653
0.361948
0.360335
0.358805
0.357351
0.355963
0.354637
0.353367
0.35215
0.350987
0.349873
0.348813
0.347795
0.373881
0.371526
0.369436
0.367518
0.365789
0.364185
0.362689
0.361269
0.359918
0.358601
0.35731
0.356037
0.354787
0.353565
0.352379
0.351224
0.350131
0.349069
0.373983
0.371618
0.370018
0.368832
0.367986
0.367212
0.366337
0.365401
0.36444
0.363338
0.362109
0.360758
0.359354
0.357913
0.356468
0.35503
0.35371
0.35242
0.37463
0.374977
0.375445
0.377119
0.378758
0.379893
0.379308
0.379245
0.378858
0.377915
0.376391
0.374443
0.372393
0.37018
0.367994
0.365787
0.363949
0.362127
0.384928
0.398169
0.406659
0.416068
0.422512
0.425388
0.425845
0.42576
0.426229
0.425573
0.423522
0.420726
0.417964
0.415168
0.41293
0.410771
0.409408
0.407959
0.447566
0.493476
0.51609
0.549797
0.581364
0.608668
0.628579
0.643357
0.653331
0.660853
0.666172
0.670748
0.674893
0.678996
0.683737
0.688097
0.693792
0.698141
0.952417
1.34771
1.59665
1.66305
1.70955
1.70743
1.70079
1.679
1.65166
1.62271
1.59419
1.56694
1.54155
1.51806
1.4966
1.47702
1.45921
1.44302
1.11769e-08
2.75794e-07
1.38204e-06
5.30969e-06
1.74392e-05
5.24489e-05
0.000129116
0.000242332
0.000372176
0.000488923
0.00057853
0.000605926
0.000589129
0.000539377
0.000424299
0.000320867
0.000252726
0.000196676
0.000146766
0.000100005
6.23134e-05
3.62057e-05
2.05265e-05
1.20954e-05
8.12065e-06
7.84794e-06
1.47234e-05
2.53591e-05
0.000105739
0.000198562
0.000294906
0.000312567
0.000340791
0.000442408
0.000511445
0.000995925
0.00186142
0.00502621
0.0186853
0.0569967
0.106611
0.14296
0.166604
0.175394
0.170645
0.17549
0.177295
0.166098
0.151302
0.166581
0.185177
0.206048
0.156099
0.142781
0.154565
0.161223
0.166279
0.171722
0.176786
0.181875
0.186479
0.191413
0.195878
0.200553
0.204961
0.209463
0.213803
0.218197
0.222475
0.226789
0.231018
0.235266
0.239452
0.243642
0.247785
0.251922
0.256017
0.260098
0.264138
0.268158
0.272134
0.276082
0.279981
0.283844
0.287649
0.291409
0.295102
0.298738
0.302302
0.305799
0.309224
0.312584
0.315886
0.319154
0.322424
0.325633
0.328782
0.331876
0.334913
0.33789
0.340806
0.343655
0.346439
0.349151
0.351793
0.354357
0.356847
0.359252
0.361579
0.363816
0.365971
0.36803
0.370001
0.371872
0.37365
0.375324
0.3769
0.378368
0.379732
0.380986
0.382131
0.383162
0.38408
0.384882
0.385567
0.386132
0.386576
0.386896
0.387088
0.387147
0.387102
0.387001
0.386812
0.386372
0.386041
0.385223
0.384725
0.383598
0.382757
0.381566
0.380364
0.379047
0.377646
0.37615
0.374523
0.372803
0.370989
0.369092
0.367115
0.365062
0.362936
0.360739
0.358476
0.356152
0.353773
0.351339
0.34886
0.34634
0.343788
0.341207
0.338609
0.335996
0.333382
0.330768
0.328171
0.32559
0.323035
0.320495
0.317994
0.315544
0.313099
0.310622
0.308135
0.305605
0.302969
0.300134
0.29686
0.292709
0.287552
0.262578
6.19082e-08
1.73648e-06
1.16364e-05
4.90056e-05
0.000181188
0.000479443
0.00104127
0.00180409
0.00266526
0.00349038
0.00423796
0.00472163
0.00508408
0.00507965
0.00496305
0.00467641
0.00414687
0.00342943
0.00264322
0.00182473
0.00119276
0.000754502
0.000473546
0.000305878
0.000218922
0.00015987
0.000253551
0.000356885
0.00137646
0.00259156
0.00385746
0.00448209
0.00608685
0.0091394
0.0151454
0.027459
0.0503788
0.0753112
0.0980866
0.118734
0.134097
0.14759
0.15754
0.166807
0.174986
0.185504
0.198584
0.206579
0.220162
0.234492
0.251662
0.263246
0.278292
0.292212
0.308476
0.323324
0.337422
0.351501
0.364954
0.378348
0.391257
0.404174
0.416758
0.42934
0.441739
0.45413
0.466437
0.478748
0.491033
0.50334
0.515655
0.528008
0.54039
0.552819
0.565289
0.57781
0.590377
0.602996
0.615659
0.628371
0.641121
0.653911
0.666727
0.679571
0.692424
0.705284
0.71813
0.730953
0.74373
0.756446
0.769076
0.781591
0.793967
0.80618
0.81822
0.830226
0.842196
0.854134
0.86603
0.877881
0.889673
0.901404
0.91306
0.924636
0.936119
0.947504
0.958777
0.969933
0.980958
0.991846
1.00258
1.01316
1.02356
1.03379
1.04382
1.05365
1.06326
1.07264
1.08178
1.09067
1.0993
1.10765
1.11572
1.12349
1.13095
1.13809
1.1449
1.15136
1.15747
1.16322
1.16859
1.1736
1.17822
1.18245
1.18627
1.18967
1.19267
1.19522
1.19736
1.19902
1.20023
1.20087
1.20127
1.20131
1.20083
1.19985
1.19845
1.19661
1.19436
1.19169
1.1886
1.18511
1.18121
1.17691
1.17223
1.16718
1.16176
1.15599
1.14989
1.14348
1.13677
1.12979
1.12255
1.11508
1.1074
1.09953
1.09148
1.08327
1.07494
1.06649
1.05785
1.04897
1.03988
1.03053
1.0208
1.01059
0.999383
0.987133
0.973154
0.924136
1.73441e-07
5.13452e-06
3.91379e-05
0.000169299
0.000593892
0.00140661
0.00270954
0.0042299
0.00573796
0.0071041
0.0081936
0.0089268
0.0093728
0.00935772
0.00916694
0.00876517
0.00810964
0.00730781
0.00637025
0.00538439
0.00426438
0.00321709
0.00224274
0.00161744
0.00113209
0.00112838
0.00165235
0.0030236
0.00859282
0.0166622
0.022425
0.028513
0.0422909
0.0592858
0.076126
0.0951274
0.112627
0.128802
0.144924
0.161216
0.178205
0.197072
0.22023
0.246398
0.274696
0.304375
0.332853
0.362467
0.391564
0.420566
0.446694
0.471956
0.495569
0.518174
0.54001
0.560811
0.580932
0.600424
0.619394
0.637965
0.656161
0.674101
0.691797
0.709334
0.726726
0.744028
0.761254
0.77844
0.795597
0.812748
0.829902
0.847073
0.864265
0.881488
0.898744
0.916037
0.933366
0.950734
0.968136
0.985573
1.00304
1.02053
1.03805
1.05558
1.07312
1.09067
1.10821
1.12574
1.14325
1.16075
1.17822
1.19566
1.21307
1.23045
1.24781
1.26514
1.2824
1.2996
1.31672
1.33375
1.35067
1.36748
1.38416
1.4007
1.41709
1.43331
1.44934
1.46519
1.48082
1.49623
1.51141
1.52633
1.54099
1.55537
1.56945
1.58322
1.59665
1.60975
1.62248
1.63483
1.64679
1.65833
1.66944
1.68012
1.69032
1.70006
1.7093
1.71803
1.72624
1.73392
1.74106
1.74764
1.75365
1.75909
1.76393
1.76817
1.7718
1.77482
1.77721
1.77893
1.77994
1.78035
1.78026
1.77947
1.77803
1.77594
1.77321
1.76986
1.76589
1.76131
1.75612
1.75034
1.74396
1.737
1.72949
1.72142
1.71283
1.70374
1.69416
1.68413
1.67367
1.6628
1.65157
1.64
1.62812
1.61597
1.60356
1.59092
1.57807
1.56505
1.55183
1.5384
1.52476
1.51087
1.49667
1.48207
1.46674
1.45076
1.4339
1.38859
7.17957e-07
2.16209e-05
0.000169884
0.000657959
0.00183695
0.00413904
0.00686663
0.00962163
0.0120519
0.013996
0.0152354
0.0159518
0.0159351
0.0156697
0.015003
0.0140306
0.0128895
0.0116314
0.010305
0.00895942
0.00759656
0.00625281
0.00521177
0.00367394
0.00370794
0.00579315
0.0145184
0.0301059
0.0466079
0.0595297
0.0709959
0.0836042
0.0963192
0.109409
0.125148
0.143496
0.162784
0.184852
0.210043
0.238065
0.26908
0.302541
0.337443
0.373074
0.408813
0.444052
0.478529
0.512196
0.544775
0.576053
0.605939
0.634675
0.662308
0.688964
0.714725
0.739673
0.76393
0.787593
0.810752
0.833491
0.855871
0.877962
0.899814
0.92148
0.942997
0.964404
0.985729
1.007
1.02824
1.04946
1.07069
1.09192
1.11318
1.13447
1.15579
1.17715
1.19854
1.21998
1.24146
1.26298
1.28453
1.30612
1.32774
1.34938
1.37104
1.39271
1.4144
1.43609
1.45778
1.47947
1.50115
1.52281
1.54443
1.56602
1.58756
1.60903
1.63042
1.65172
1.6729
1.69395
1.71485
1.7356
1.75617
1.77655
1.79672
1.81667
1.83638
1.85583
1.875
1.89389
1.91247
1.93072
1.94863
1.96617
1.98334
2.0001
2.01644
2.03235
2.04779
2.06275
2.07721
2.09114
2.10453
2.11736
2.12961
2.14125
2.15228
2.16266
2.17239
2.18145
2.18982
2.19749
2.20445
2.21069
2.21618
2.22092
2.22491
2.22813
2.23058
2.23215
2.23288
2.23297
2.23225
2.23071
2.22837
2.22524
2.22131
2.21661
2.21113
2.20489
2.19789
2.19015
2.18167
2.17248
2.16259
2.15202
2.14079
2.12894
2.11649
2.10348
2.08993
2.07589
2.06138
2.04645
2.03114
2.01549
1.99954
1.98331
1.96684
1.95016
1.93329
1.91622
1.89898
1.88156
1.86393
1.84611
1.82789
1.80952
1.79122
1.75029
2.729e-06
8.13912e-05
0.000594115
0.00216644
0.0057495
0.010559
0.0152591
0.0190954
0.0216652
0.0230413
0.02334
0.0230746
0.0223072
0.0211434
0.019795
0.0183174
0.0167618
0.0151731
0.0136191
0.0121618
0.0107697
0.00911314
0.00835089
0.00931777
0.0164849
0.0338858
0.0600748
0.0804165
0.0917823
0.100268
0.108916
0.120165
0.134548
0.15289
0.174377
0.199224
0.227503
0.25907
0.293273
0.329418
0.366973
0.405205
0.443593
0.481833
0.51965
0.556828
0.593284
0.628905
0.663627
0.697382
0.730189
0.762071
0.793072
0.823256
0.852666
0.881375
0.90945
0.936968
0.964
0.990612
1.01687
1.04282
1.06852
1.09402
1.11936
1.14458
1.1697
1.19476
1.21978
1.24478
1.26977
1.29478
1.3198
1.34486
1.36995
1.39509
1.42026
1.44549
1.47076
1.49608
1.52143
1.54684
1.57227
1.59774
1.62324
1.64876
1.6743
1.69984
1.72538
1.75093
1.77645
1.80195
1.82739
1.85277
1.87807
1.90328
1.92839
1.95337
1.97821
2.00289
2.02738
2.05167
2.07575
2.09958
2.12316
2.14646
2.16946
2.19215
2.2145
2.2365
2.25813
2.27935
2.30017
2.32054
2.34046
2.35989
2.37882
2.39722
2.41507
2.43234
2.44901
2.46506
2.48046
2.49518
2.50921
2.52253
2.5351
2.5469
2.55793
2.56816
2.57757
2.58614
2.59387
2.60073
2.60671
2.61181
2.61602
2.61933
2.62171
2.62305
2.6235
2.6231
2.62176
2.61947
2.61624
2.61207
2.60698
2.60098
2.59407
2.58626
2.57756
2.56799
2.55756
2.54628
2.53419
2.52131
2.50766
2.49327
2.47818
2.46243
2.44606
2.4291
2.41161
2.39362
2.37518
2.35635
2.33716
2.31768
2.29793
2.27796
2.2578
2.23747
2.21701
2.19645
2.17581
2.15517
2.13445
2.11402
2.09421
2.05621
1.00434e-05
0.000283234
0.00192826
0.00660312
0.014533
0.0216274
0.0262938
0.0285362
0.0290698
0.0287508
0.0278482
0.0265515
0.0250952
0.0235458
0.0219421
0.0203022
0.0186229
0.0168559
0.0149219
0.0128849
0.0111466
0.0111772
0.0158924
0.0300945
0.0575346
0.0850954
0.102501
0.111954
0.117882
0.126385
0.139174
0.156568
0.177721
0.203272
0.232299
0.264707
0.299637
0.336439
0.374463
0.413226
0.452384
0.491629
0.530798
0.569784
0.608488
0.646811
0.684687
0.722039
0.75881
0.794941
0.830409
0.865197
0.89931
0.932765
0.965583
0.997801
1.02946
1.06061
1.09131
1.1216
1.15154
1.18118
1.21057
1.23975
1.26876
1.29763
1.32641
1.35512
1.38379
1.41243
1.44106
1.46971
1.49838
1.52708
1.55582
1.58461
1.61345
1.64234
1.67129
1.70028
1.72933
1.75843
1.78757
1.81674
1.84595
1.87519
1.90444
1.9337
1.96295
1.99219
2.02141
2.05058
2.07968
2.1087
2.13762
2.16642
2.1951
2.22362
2.25197
2.28012
2.30806
2.33575
2.36318
2.39033
2.41717
2.44367
2.46983
2.49561
2.52099
2.54596
2.57048
2.59453
2.6181
2.64116
2.66368
2.68563
2.707
2.72775
2.74786
2.76731
2.78605
2.80407
2.82134
2.83783
2.85351
2.86835
2.88234
2.89545
2.90765
2.91892
2.92925
2.93861
2.94699
2.95437
2.96075
2.9661
2.97043
2.97373
2.97595
2.97699
2.97709
2.97613
2.97411
2.97101
2.96685
2.96162
2.95535
2.94804
2.93969
2.93032
2.91994
2.90857
2.89623
2.88293
2.8687
2.85357
2.83757
2.82073
2.8031
2.78472
2.76562
2.74587
2.72551
2.70459
2.68316
2.66129
2.63902
2.61643
2.59355
2.57045
2.54717
2.52375
2.50025
2.47672
2.45325
2.42994
2.40682
2.38429
2.36252
2.32634
3.65207e-05
0.000932938
0.00566548
0.0167151
0.0265304
0.0317358
0.0336752
0.0337825
0.0331674
0.0318275
0.0301537
0.0283462
0.0265
0.0246682
0.022881
0.021186
0.0196998
0.0185814
0.0182409
0.0191823
0.0231086
0.0315474
0.0501351
0.0774992
0.100553
0.11558
0.123095
0.129451
0.13955
0.15493
0.174667
0.199052
0.227349
0.25914
0.293418
0.329641
0.367087
0.405339
0.44409
0.483149
0.522396
0.561743
0.601152
0.640587
0.680002
0.719343
0.758542
0.797521
0.836212
0.87455
0.91248
0.949961
0.986963
1.02347
1.05949
1.09502
1.13007
1.16469
1.1989
1.23274
1.26626
1.29949
1.33247
1.36525
1.39786
1.43034
1.46273
1.49503
1.5273
1.55954
1.59178
1.62403
1.6563
1.68862
1.72098
1.75339
1.78585
1.81838
1.85096
1.8836
1.9163
1.94905
1.98185
2.01469
2.04756
2.08046
2.11338
2.1463
2.17921
2.2121
2.24496
2.27775
2.31046
2.34306
2.37555
2.40791
2.4401
2.47212
2.50393
2.53551
2.56684
2.59788
2.62861
2.65901
2.68904
2.71869
2.74793
2.77673
2.80507
2.83292
2.86025
2.88706
2.91329
2.93894
2.96396
2.98835
3.01206
3.03507
3.05734
3.07886
3.09958
3.11947
3.13851
3.15666
3.1739
3.19018
3.20549
3.21979
3.23307
3.24529
3.25644
3.26649
3.27543
3.28323
3.2899
3.29541
3.29977
3.30296
3.30491
3.30564
3.30525
3.30366
3.30088
3.2969
3.29174
3.28541
3.2779
3.26923
3.25941
3.24846
3.23638
3.2232
3.20894
3.19361
3.17726
3.1599
3.14157
3.12232
3.10218
3.0812
3.05944
3.03694
3.01377
2.98997
2.96562
2.94077
2.9155
2.88987
2.86394
2.83779
2.81146
2.78504
2.75857
2.73216
2.70591
2.67997
2.65442
2.62967
2.60571
2.57018
0.000116056
0.00268818
0.0141534
0.0285034
0.0356637
0.0383526
0.0386656
0.0378475
0.0361028
0.0339865
0.0317509
0.029535
0.0273975
0.0253534
0.0234311
0.0219219
0.0210454
0.0211734
0.0237173
0.0303346
0.0445731
0.0665888
0.0905349
0.109623
0.121915
0.129325
0.137127
0.1496
0.166903
0.18918
0.215648
0.245807
0.278669
0.31354
0.349729
0.386831
0.424518
0.462633
0.501061
0.539772
0.578767
0.618048
0.657623
0.697482
0.737594
0.777903
0.818342
0.85884
0.899318
0.9397
0.979913
1.0199
1.0596
1.09898
1.13802
1.17669
1.215
1.25296
1.29058
1.32789
1.3649
1.40166
1.4382
1.47455
1.51075
1.54682
1.5828
1.61871
1.65459
1.69044
1.72629
1.76216
1.79806
1.834
1.86999
1.90603
1.94214
1.9783
2.01453
2.05082
2.08717
2.12358
2.16003
2.19653
2.23306
2.26961
2.30618
2.34275
2.3793
2.41582
2.4523
2.48871
2.52501
2.5612
2.59724
2.63313
2.66884
2.70433
2.73958
2.77457
2.80926
2.84361
2.87761
2.91122
2.94441
2.97715
3.00941
3.04117
3.07239
3.10306
3.13313
3.16259
3.19141
3.21955
3.24699
3.27371
3.29966
3.32482
3.34916
3.37264
3.39523
3.41689
3.43759
3.4573
3.47598
3.49359
3.51011
3.52551
3.53975
3.55282
3.56468
3.57531
3.5847
3.59282
3.59966
3.60523
3.6095
3.61248
3.61408
3.61439
3.6134
3.61109
3.60746
3.60253
3.59629
3.58876
3.57995
3.56987
3.55854
3.54596
3.53215
3.51714
3.50094
3.48359
3.4651
3.44552
3.42488
3.40323
3.38061
3.35707
3.33268
3.30747
3.28153
3.25491
3.22768
3.19991
3.17168
3.14306
3.11413
3.08497
3.05566
3.02626
2.99688
2.96762
2.93861
2.91002
2.88198
2.85487
2.82856
2.79281
0.000302962
0.00652868
0.0255156
0.0380788
0.0430949
0.044233
0.0433625
0.0413048
0.0387064
0.035968
0.0333461
0.0310309
0.0291914
0.0279278
0.0274503
0.0279123
0.0301343
0.0345469
0.043978
0.0603952
0.0798077
0.0986733
0.114035
0.124446
0.13246
0.142349
0.156603
0.175972
0.199853
0.227718
0.258524
0.291543
0.326036
0.361538
0.397724
0.434398
0.47146
0.508887
0.546703
0.584946
0.623661
0.662885
0.70264
0.742918
0.783687
0.824902
0.866501
0.908411
0.950547
0.992828
1.03517
1.0775
1.11974
1.16184
1.20376
1.24546
1.28691
1.32812
1.36907
1.40978
1.45026
1.49053
1.53062
1.57054
1.61033
1.65002
1.68963
1.72918
1.7687
1.80821
1.84773
1.88726
1.92683
1.96644
2.0061
2.04582
2.0856
2.12544
2.16534
2.2053
2.24532
2.2854
2.32551
2.36567
2.40586
2.44607
2.48628
2.52648
2.56666
2.60681
2.6469
2.6869
2.72678
2.76653
2.80611
2.84551
2.8847
2.92363
2.9623
3.00065
3.03865
3.07627
3.11348
3.15024
3.18651
3.22227
3.25748
3.2921
3.32612
3.35949
3.3922
3.4242
3.45548
3.48599
3.51572
3.54463
3.57268
3.59986
3.62611
3.65141
3.67572
3.69901
3.72123
3.74235
3.76233
3.78113
3.79872
3.81507
3.83014
3.84391
3.85634
3.86742
3.87711
3.88542
3.89231
3.89778
3.90184
3.90446
3.90562
3.90538
3.90367
3.90052
3.89594
3.88994
3.88254
3.87375
3.86357
3.85201
3.83911
3.82486
3.80929
3.79243
3.77428
3.75489
3.73429
3.7125
3.68958
3.66556
3.64049
3.61444
3.58745
3.55959
3.53094
3.50155
3.4715
3.44088
3.40975
3.37821
3.34634
3.31424
3.28199
3.24968
3.21743
3.18535
3.1536
3.12235
3.09177
3.0622
3.03344
2.99685
0.000643859
0.0131044
0.0360279
0.0464594
0.0498473
0.0497714
0.0477825
0.0448482
0.0416036
0.0384832
0.0357627
0.0336257
0.0325473
0.0322632
0.0336688
0.0375797
0.0452813
0.0570685
0.0724012
0.0883149
0.103248
0.115317
0.12481
0.133875
0.145691
0.161625
0.182403
0.207388
0.235666
0.266423
0.298856
0.332447
0.366811
0.401714
0.437056
0.472794
0.508954
0.545588
0.582767
0.620558
0.659028
0.698221
0.738155
0.778829
0.82022
0.862287
0.90497
0.948198
0.991886
1.03595
1.08029
1.12483
1.16949
1.2142
1.25889
1.30352
1.34804
1.39243
1.43667
1.48076
1.52469
1.56848
1.61213
1.65566
1.69909
1.74245
1.78574
1.829
1.87223
1.91547
1.95871
2.00198
2.04528
2.08862
2.13201
2.17546
2.21896
2.26251
2.30612
2.34978
2.39349
2.43724
2.48103
2.52484
2.56868
2.61252
2.65635
2.70016
2.74394
2.78766
2.83132
2.87487
2.91829
2.96154
3.00461
3.04746
3.09006
3.13237
3.17437
3.21601
3.25725
3.29805
3.33837
3.37817
3.41742
3.45607
3.4941
3.53146
3.56812
3.60405
3.63922
3.6736
3.70716
3.73986
3.77168
3.80259
3.83255
3.86154
3.88951
3.91643
3.94226
3.96696
3.9905
4.01283
4.03391
4.05371
4.07218
4.08929
4.10501
4.1193
4.13212
4.14347
4.15331
4.16162
4.16839
4.17362
4.17729
4.17942
4.17999
4.17903
4.17647
4.17234
4.16669
4.15952
4.15085
4.14069
4.12905
4.11595
4.10142
4.08545
4.06809
4.04934
4.02925
4.00782
3.98511
3.96114
3.93595
3.90961
3.88215
3.85363
3.82412
3.79368
3.76239
3.73031
3.69753
3.66413
3.6302
3.59584
3.56112
3.52617
3.49107
3.45593
3.42087
3.38604
3.35159
3.31772
3.28457
3.25251
3.22125
3.18345
0.0011414
0.0216373
0.0453778
0.0544634
0.0567111
0.0556988
0.0528639
0.0493405
0.0458745
0.042958
0.0410988
0.0404787
0.0411748
0.0440918
0.0496033
0.0578849
0.0685403
0.0808427
0.0934799
0.105
0.115003
0.124193
0.134574
0.147867
0.165332
0.187002
0.212383
0.240505
0.270585
0.302004
0.334309
0.367224
0.400607
0.434401
0.468617
0.503302
0.538535
0.5744
0.610988
0.648383
0.686651
0.725833
0.765956
0.807023
0.849017
0.891901
0.935619
0.980102
1.02527
1.07103
1.11729
1.16396
1.21096
1.25819
1.30559
1.35309
1.40063
1.44818
1.49569
1.54316
1.59056
1.63789
1.68515
1.73234
1.77948
1.82657
1.87364
1.92068
1.96771
2.01475
2.0618
2.10888
2.15599
2.20314
2.25032
2.29755
2.34482
2.39212
2.43947
2.48684
2.53424
2.58166
2.6291
2.67654
2.72398
2.7714
2.81879
2.86614
2.91342
2.96064
3.00777
3.05477
3.10161
3.14826
3.19469
3.24087
3.28676
3.33232
3.37751
3.42229
3.46661
3.51043
3.5537
3.59638
3.63842
3.67978
3.72042
3.7603
3.79939
3.83766
3.87505
3.91156
3.94714
3.98177
4.01542
4.04805
4.07964
4.11016
4.13956
4.16782
4.19489
4.22073
4.24531
4.26858
4.2905
4.31103
4.33012
4.34774
4.36386
4.37843
4.39143
4.40282
4.41258
4.42069
4.42714
4.43192
4.43503
4.43648
4.43629
4.43446
4.43085
4.42561
4.41875
4.41028
4.40023
4.3886
4.37542
4.36071
4.34449
4.32677
4.30758
4.28695
4.2649
4.24146
4.21666
4.19056
4.16318
4.13457
4.1048
4.07391
4.04197
4.00906
3.97523
3.94059
3.90519
3.86915
3.83254
3.79547
3.75804
3.72035
3.68252
3.64467
3.60692
3.56943
3.53237
3.49592
3.46023
3.42567
3.39193
3.35276
0.00181136
0.0297557
0.0540836
0.0625189
0.0641849
0.0624858
0.0591324
0.0555376
0.0525678
0.0510453
0.0506748
0.0519453
0.0552234
0.0605584
0.0678364
0.0766301
0.0862222
0.0958827
0.105068
0.113954
0.123516
0.135127
0.149816
0.168323
0.190514
0.215733
0.243225
0.272256
0.302334
0.333113
0.364402
0.396106
0.428221
0.460776
0.493848
0.527523
0.561904
0.597091
0.633184
0.670265
0.708399
0.747631
0.787992
0.829489
0.872109
0.91582
0.96057
1.00629
1.05292
1.10035
1.14849
1.19725
1.24654
1.29627
1.34635
1.3967
1.44726
1.49796
1.54877
1.59964
1.65055
1.70147
1.7524
1.80333
1.85425
1.90517
1.9561
2.00702
2.05796
2.10891
2.15988
2.21086
2.26187
2.31289
2.36393
2.41499
2.46606
2.51713
2.56821
2.61928
2.67034
2.72138
2.7724
2.82338
2.87432
2.9252
2.97602
3.02675
3.07739
3.12793
3.17835
3.22861
3.27868
3.32852
3.3781
3.42739
3.47634
3.52492
3.57307
3.62075
3.66791
3.71449
3.76045
3.80573
3.85028
3.89406
3.93702
3.97912
4.02032
4.06058
4.09987
4.13816
4.17541
4.2116
4.2467
4.28069
4.31353
4.34519
4.37565
4.40486
4.43279
4.45941
4.48466
4.50851
4.53091
4.55183
4.57121
4.58902
4.60523
4.61978
4.63265
4.64381
4.65323
4.66089
4.66677
4.67088
4.6732
4.67376
4.67265
4.66968
4.66488
4.65836
4.65015
4.64026
4.62871
4.61552
4.60072
4.58433
4.56637
4.54687
4.52585
4.50334
4.47936
4.45396
4.42715
4.39899
4.3695
4.33875
4.30678
4.27365
4.23943
4.20419
4.168
4.13095
4.09312
4.0546
4.01549
3.97589
3.93592
3.89568
3.8553
3.8149
3.77462
3.73461
3.69506
3.65615
3.61802
3.58103
3.54487
3.50429
0.00277989
0.0373927
0.0631794
0.0712378
0.0724611
0.0701266
0.0664725
0.0631921
0.0614301
0.0609206
0.0618779
0.0647089
0.069132
0.0749111
0.0816847
0.0890288
0.0966276
0.10453
0.113237
0.123548
0.136305
0.152172
0.171362
0.19363
0.218356
0.244867
0.272614
0.301176
0.330315
0.35989
0.389863
0.420243
0.451096
0.4825
0.514563
0.547386
0.581086
0.615769
0.651532
0.688453
0.7266
0.76602
0.806744
0.848782
0.892124
0.936742
0.982592
1.02961
1.07774
1.12687
1.17692
1.2278
1.2794
1.33163
1.38439
1.43761
1.49119
1.54509
1.59922
1.65355
1.70803
1.76263
1.81733
1.87209
1.92691
1.98178
2.03667
2.0916
2.14654
2.2015
2.25646
2.31143
2.36639
2.42133
2.47626
2.53116
2.58602
2.64083
2.69559
2.75028
2.80491
2.85945
2.9139
2.96826
3.02251
3.07665
3.13066
3.18453
3.23826
3.29183
3.34524
3.39845
3.45142
3.50411
3.55651
3.60856
3.66022
3.71145
3.7622
3.8124
3.86201
3.91097
3.95921
4.00669
4.05334
4.09912
4.14398
4.18785
4.23072
4.27253
4.31326
4.35286
4.39131
4.42858
4.46465
4.49949
4.53309
4.56541
4.59643
4.62611
4.65442
4.68132
4.70677
4.73074
4.75318
4.77405
4.7933
4.8109
4.8268
4.84096
4.85336
4.86395
4.8727
4.8796
4.88463
4.88779
4.88907
4.88858
4.88627
4.88192
4.87576
4.86781
4.8581
4.84666
4.8335
4.81866
4.80217
4.78406
4.76435
4.74306
4.72024
4.69589
4.67006
4.64277
4.61406
4.58396
4.55251
4.51977
4.48578
4.4506
4.4143
4.37694
4.33861
4.29938
4.25934
4.21858
4.17722
4.13534
4.09307
4.05052
4.00781
3.96509
3.92249
3.88018
3.83833
3.79713
3.75672
3.71745
3.67901
3.63711
0.00388095
0.0458418
0.0725709
0.0803234
0.0811468
0.0780994
0.0741761
0.0715065
0.0704537
0.0704014
0.0722023
0.0753603
0.0795917
0.0846644
0.0904305
0.0969477
0.10454
0.113677
0.124947
0.138775
0.155526
0.17509
0.19713
0.221112
0.246498
0.27285
0.299873
0.327374
0.355283
0.383577
0.412306
0.441534
0.471364
0.501895
0.533249
0.565538
0.598878
0.633367
0.669101
0.706154
0.744595
0.784468
0.825802
0.868606
0.912871
0.958576
1.00568
1.05413
1.10385
1.15478
1.20681
1.25986
1.31382
1.36861
1.42412
1.48027
1.53696
1.59412
1.65167
1.70955
1.7677
1.82607
1.88462
1.94332
2.00213
2.06102
2.11998
2.17898
2.238
2.29702
2.35602
2.415
2.47392
2.53277
2.59155
2.65022
2.70878
2.76722
2.82551
2.88366
2.94164
2.99945
3.05708
3.11452
3.17177
3.22881
3.28565
3.34226
3.39865
3.45481
3.51075
3.56642
3.6218
3.67685
3.73154
3.78583
3.83966
3.89301
3.9458
3.99797
4.04948
4.10025
4.15021
4.19932
4.2475
4.2947
4.34086
4.38593
4.42986
4.47262
4.51417
4.55447
4.5935
4.63123
4.66765
4.70273
4.73646
4.76882
4.79978
4.82932
4.85741
4.88401
4.90908
4.93261
4.95453
4.97483
4.99344
5.01034
5.02547
5.0388
5.0503
5.05992
5.06765
5.07344
5.07729
5.0792
5.07918
5.07744
5.07354
5.06769
5.05998
5.05044
5.03909
5.02598
5.01113
4.99458
4.97637
4.95652
4.93507
4.91204
4.88747
4.86138
4.8338
4.80477
4.7743
4.74245
4.70925
4.67473
4.63896
4.60198
4.56387
4.52467
4.48448
4.44337
4.40143
4.35876
4.31545
4.27161
4.22735
4.1828
4.13809
4.09335
4.04873
4.00439
3.96051
3.91728
3.87481
3.83349
3.79296
3.74994
0.0050521
0.0541484
0.0818311
0.0892548
0.0895688
0.0855023
0.0810377
0.0784162
0.0774489
0.0774253
0.079224
0.0821552
0.0861505
0.0912655
0.0977246
0.105825
0.115905
0.12827
0.14315
0.160536
0.180254
0.201896
0.225049
0.2493
0.274336
0.299932
0.32598
0.352426
0.379303
0.406657
0.434579
0.463158
0.492513
0.522749
0.553986
0.586322
0.619863
0.654695
0.690908
0.728567
0.767734
0.80845
0.850742
0.894626
0.9401
0.987147
1.03573
1.08582
1.13734
1.19022
1.24439
1.29976
1.35623
1.4137
1.47208
1.53127
1.59116
1.65167
1.71271
1.77421
1.8361
1.8983
1.96076
2.02343
2.08627
2.14922
2.21224
2.27531
2.33838
2.40143
2.46441
2.5273
2.59006
2.65268
2.71513
2.77737
2.83939
2.90118
2.9627
3.02395
3.08491
3.14558
3.20594
3.26599
3.32572
3.38513
3.44421
3.50296
3.56138
3.61947
3.67725
3.73469
3.79177
3.84843
3.90467
3.96044
4.01569
4.07037
4.12443
4.1778
4.23042
4.28222
4.33313
4.38308
4.432
4.47984
4.52653
4.57202
4.61624
4.65917
4.70076
4.74099
4.77982
4.81725
4.85324
4.8878
4.9209
4.95256
4.98273
5.0114
5.03855
5.06414
5.08816
5.11058
5.13135
5.15045
5.16784
5.18346
5.19729
5.20928
5.21941
5.22763
5.23391
5.23821
5.24053
5.24086
5.23945
5.2359
5.23028
5.22274
5.21332
5.20205
5.18896
5.1741
5.15751
5.13923
5.1193
5.09775
5.07463
5.04995
5.02376
4.99608
4.96693
4.93635
4.90437
4.87102
4.83633
4.80034
4.76309
4.72465
4.68506
4.6444
4.60272
4.56011
4.51666
4.47246
4.4276
4.38219
4.33635
4.2902
4.24387
4.19749
4.15123
4.10523
4.05966
4.01473
3.97053
3.92747
3.88511
3.84127
0.00631582
0.0622753
0.0906342
0.0976997
0.0971541
0.0918165
0.0866126
0.0838226
0.0828085
0.0828453
0.0850598
0.0887253
0.0940347
0.101116
0.110139
0.12127
0.134632
0.15028
0.168067
0.187729
0.208953
0.231399
0.25479
0.278892
0.303565
0.328729
0.354381
0.380542
0.407276
0.434639
0.462732
0.491642
0.521482
0.552343
0.584331
0.617531
0.652043
0.687941
0.725304
0.764193
0.804662
0.84675
0.890489
0.935896
0.98298
1.03173
1.08214
1.13416
1.18775
1.24285
1.29938
1.35726
1.4164
1.4767
1.53805
1.60035
1.66349
1.72738
1.79193
1.85703
1.9226
1.98858
2.05487
2.12142
2.18815
2.25501
2.32194
2.38888
2.45577
2.52258
2.58925
2.65574
2.72199
2.78798
2.85366
2.91901
2.98398
3.04856
3.11273
3.17646
3.23974
3.30257
3.36493
3.42681
3.48822
3.54917
3.60963
3.66963
3.72915
3.78823
3.84689
3.9051
3.96285
4.02012
4.07688
4.13308
4.1887
4.24368
4.29795
4.35147
4.40416
4.45595
4.50676
4.55652
4.60517
4.65263
4.69884
4.74374
4.78727
4.82939
4.87007
4.90927
4.94697
4.98316
5.01781
5.05093
5.08252
5.11262
5.14115
5.16812
5.19351
5.21732
5.23951
5.26008
5.27899
5.29621
5.31171
5.32545
5.3374
5.3475
5.35577
5.36212
5.36653
5.36894
5.36938
5.36805
5.36459
5.35906
5.35158
5.3422
5.33093
5.31784
5.30295
5.28633
5.26801
5.24804
5.22647
5.20334
5.17868
5.15253
5.12492
5.09587
5.06542
5.03359
5.0004
4.96588
4.93006
4.89298
4.85467
4.81517
4.77455
4.73285
4.69015
4.64652
4.60203
4.55679
4.51087
4.46439
4.41745
4.37019
4.32272
4.27519
4.22774
4.18053
4.13372
4.08751
4.04197
3.99756
3.95371
3.90944
0.00779568
0.0695386
0.0983793
0.104999
0.103028
0.0962316
0.0905844
0.0877073
0.0871474
0.0882863
0.0921486
0.0979135
0.105716
0.115561
0.127564
0.141972
0.158896
0.177777
0.198309
0.220219