/*--------------------------------*- C++ -*----------------------------------*\
  =========                 |
  \\      /  F ield         | OpenFOAM: The Open Source CFD Toolbox
   \\    /   O peration     | Website:  https://openfoam.org
    \\  /    A nd           | Version:  8
     \\/     M anipulation  |
\*---------------------------------------------------------------------------*/
FoamFile
{
    version     2.0;
    format      ascii;
    class       surfaceScalarField;
    location    "1600";
    object      phi;
}
// * * * * * * * * * * * * * * * * * * * * * * * * * * * * * * * * * * * * * //

dimensions      [0 3 -1 0 0 0 0];

internalField   nonuniform List<scalar> 
24170
(
3.05361e-06
8.05518e-08
2.95414e-06
9.99795e-08
2.85338e-06
1.0132e-07
2.76491e-06
8.9081e-08
2.69046e-06
7.51155e-08
2.62281e-06
6.81281e-08
2.55957e-06
6.34653e-08
2.50384e-06
5.56628e-08
2.45685e-06
4.68953e-08
2.41801e-06
3.87512e-08
2.38456e-06
3.33606e-08
2.3579e-06
2.65965e-08
2.33454e-06
2.33042e-08
2.31183e-06
2.26715e-08
2.29103e-06
2.07311e-08
2.27184e-06
1.91591e-08
2.25663e-06
1.52014e-08
1.4431e-08
2.24225e-06
3.50058e-06
3.63721e-08
3.54036e-06
6.07799e-08
3.54161e-06
1.00824e-07
3.52628e-06
1.05158e-07
3.50393e-06
9.81725e-08
3.47632e-06
9.62466e-08
3.44975e-06
9.0211e-08
3.42289e-06
8.24602e-08
3.3946e-06
7.51032e-08
3.36771e-06
6.55946e-08
3.34089e-06
6.01611e-08
3.31292e-06
5.45494e-08
3.28501e-06
5.11932e-08
3.2606e-06
4.70543e-08
3.23831e-06
4.29865e-08
3.21667e-06
4.07758e-08
3.19725e-06
3.46561e-08
3.24279e-08
3.17916e-06
3.83096e-06
1.76432e-08
3.82625e-06
6.53753e-08
3.83955e-06
8.74494e-08
3.85213e-06
9.26178e-08
3.85813e-06
9.2262e-08
3.86195e-06
9.247e-08
3.8635e-06
8.86487e-08
3.86204e-06
8.38283e-08
3.85906e-06
7.79901e-08
3.85365e-06
7.09334e-08
3.8469e-06
6.68468e-08
3.83875e-06
6.26515e-08
3.83081e-06
5.911e-08
3.82271e-06
5.51316e-08
3.81375e-06
5.19133e-08
3.8053e-06
4.91757e-08
3.79594e-06
4.39845e-08
4.14251e-08
3.78688e-06
4.2085e-06
1.37215e-08
4.21087e-06
6.3208e-08
4.22063e-06
7.7837e-08
4.23046e-06
8.29171e-08
4.23764e-06
8.51376e-08
4.24402e-06
8.60244e-08
4.24917e-06
8.33312e-08
4.25304e-06
7.97617e-08
4.25603e-06
7.48432e-08
4.25756e-06
6.92825e-08
4.2587e-06
6.56262e-08
4.25915e-06
6.21522e-08
4.25934e-06
5.88843e-08
4.25911e-06
5.5327e-08
4.25852e-06
5.24544e-08
4.258e-06
4.96464e-08
4.25629e-06
4.56552e-08
4.30609e-08
4.25455e-06
4.63703e-06
1.39887e-08
4.64601e-06
5.39806e-08
4.65333e-06
7.03269e-08
4.66014e-06
7.60009e-08
4.66625e-06
7.89657e-08
4.67222e-06
7.9968e-08
4.67747e-06
7.79913e-08
4.68211e-06
7.50256e-08
4.68611e-06
7.07721e-08
4.68916e-06
6.61684e-08
4.69201e-06
6.27268e-08
4.69459e-06
5.95419e-08
4.69701e-06
5.64389e-08
4.69906e-06
5.32389e-08
4.70096e-06
5.05072e-08
4.70282e-06
4.77338e-08
4.70398e-06
4.4444e-08
4.18603e-08
4.70517e-06
5.11507e-06
1.3556e-08
5.12347e-06
4.58506e-08
5.13055e-06
6.34107e-08
5.1367e-06
6.99295e-08
5.14256e-06
7.30797e-08
5.14831e-06
7.40961e-08
5.1535e-06
7.26197e-08
5.15829e-06
7.00649e-08
5.1625e-06
6.64151e-08
5.16603e-06
6.2531e-08
5.16936e-06
5.93093e-08
5.17255e-06
5.62935e-08
5.17561e-06
5.33252e-08
5.17843e-06
5.03753e-08
5.18116e-06
4.7713e-08
5.18381e-06
4.50166e-08
5.18612e-06
4.21108e-08
3.94537e-08
5.18842e-06
5.64187e-06
1.26725e-08
5.64906e-06
3.84528e-08
5.65629e-06
5.60106e-08
5.66262e-06
6.35101e-08
5.66861e-06
6.69952e-08
5.67438e-06
6.82336e-08
5.67965e-06
6.72634e-08
5.68455e-06
6.50883e-08
5.68894e-06
6.1974e-08
5.6928e-06
5.86341e-08
5.69646e-06
5.56152e-08
5.69999e-06
5.27275e-08
5.7034e-06
4.98906e-08
5.70661e-06
4.71206e-08
5.70975e-06
4.45168e-08
5.71281e-06
4.19062e-08
5.71565e-06
3.92088e-08
3.66261e-08
5.71848e-06
4.40701e-06
1.1765e-08
4.41151e-06
3.41545e-08
4.41664e-06
5.10061e-08
4.42132e-06
5.88943e-08
4.42573e-06
6.25675e-08
4.42994e-06
6.39328e-08
4.43383e-06
6.32497e-08
4.43746e-06
6.13547e-08
4.44075e-06
5.8597e-08
4.44372e-06
5.55847e-08
4.44655e-06
5.27274e-08
4.44928e-06
4.99494e-08
4.45191e-06
4.72162e-08
4.45443e-06
4.45568e-08
4.45689e-06
4.20154e-08
4.45927e-06
3.94856e-08
4.46154e-06
3.69363e-08
3.43736e-08
4.46372e-06
5.14088e-06
1.07487e-08
5.1452e-06
2.96475e-08
5.15053e-06
4.55512e-08
5.15567e-06
5.36747e-08
5.16059e-06
5.75712e-08
5.16532e-06
5.91303e-08
5.16972e-06
5.87772e-08
5.17383e-06
5.71994e-08
5.17759e-06
5.48023e-08
5.18104e-06
5.2106e-08
5.1843e-06
4.94314e-08
5.18743e-06
4.67843e-08
5.19045e-06
4.41717e-08
5.19334e-06
4.16254e-08
5.19615e-06
3.91639e-08
5.19887e-06
3.67361e-08
5.20147e-06
3.4296e-08
3.18702e-08
5.20397e-06
5.99694e-06
9.55453e-09
6.00099e-06
2.56067e-08
6.00643e-06
4.01367e-08
6.01196e-06
4.81406e-08
6.0174e-06
5.21007e-08
6.02268e-06
5.38046e-08
6.02765e-06
5.37545e-08
6.03231e-06
5.25005e-08
6.03661e-06
5.04689e-08
6.04058e-06
4.80948e-08
6.04434e-06
4.56426e-08
6.04793e-06
4.31684e-08
6.05136e-06
4.07055e-08
6.05465e-06
3.82964e-08
6.05784e-06
3.59525e-08
6.06091e-06
3.36382e-08
6.06386e-06
3.13539e-08
2.90317e-08
6.06665e-06
6.99554e-06
8.29167e-09
6.9993e-06
2.17251e-08
7.00475e-06
3.46024e-08
7.01063e-06
4.22058e-08
7.01654e-06
4.61345e-08
7.02235e-06
4.79426e-08
7.02791e-06
4.81543e-08
7.03315e-06
4.72302e-08
7.03804e-06
4.55538e-08
7.0426e-06
4.35075e-08
7.0469e-06
4.13091e-08
7.05099e-06
3.90447e-08
7.05489e-06
3.67778e-08
7.05862e-06
3.4537e-08
7.06221e-06
3.23408e-08
7.06567e-06
3.01854e-08
7.06895e-06
2.80349e-08
2.59015e-08
7.07208e-06
8.16033e-06
6.92562e-09
8.16389e-06
1.80858e-08
8.16932e-06
2.91179e-08
8.17545e-06
3.60276e-08
8.18177e-06
3.97689e-08
8.18809e-06
4.15861e-08
8.19423e-06
4.20079e-08
8.20007e-06
4.13632e-08
8.20558e-06
4.00348e-08
8.21076e-06
3.83079e-08
8.21566e-06
3.63888e-08
8.22031e-06
3.43814e-08
8.22472e-06
3.23301e-08
8.22894e-06
3.03039e-08
8.23297e-06
2.82949e-08
8.23682e-06
2.63229e-08
8.24048e-06
2.43745e-08
2.24264e-08
8.24391e-06
9.51906e-06
5.58662e-09
9.52248e-06
1.45909e-08
9.52785e-06
2.36882e-08
9.53418e-06
2.96551e-08
9.54086e-06
3.30412e-08
9.54765e-06
3.47886e-08
9.55435e-06
3.52987e-08
9.56081e-06
3.49095e-08
9.56696e-06
3.38774e-08
9.5728e-06
3.2468e-08
9.57834e-06
3.08495e-08
9.58358e-06
2.91059e-08
9.58857e-06
2.73315e-08
9.59331e-06
2.55329e-08
9.59783e-06
2.37694e-08
9.60211e-06
2.20145e-08
9.60617e-06
2.03075e-08
1.86021e-08
9.60997e-06
1.1104e-05
4.25037e-09
1.11074e-05
1.11352e-08
1.11127e-05
1.82796e-08
1.11192e-05
2.31197e-08
1.11262e-05
2.60029e-08
1.11335e-05
2.75279e-08
1.11407e-05
2.80622e-08
1.11478e-05
2.78301e-08
1.11546e-05
2.70608e-08
1.11611e-05
2.59468e-08
1.11673e-05
2.46226e-08
1.11733e-05
2.31887e-08
1.11788e-05
2.16897e-08
1.11842e-05
2.0186e-08
1.11892e-05
1.86819e-08
1.1194e-05
1.7217e-08
1.11985e-05
1.57685e-08
1.43713e-08
1.12027e-05
1.29529e-05
2.93343e-09
1.29563e-05
7.65049e-09
1.29617e-05
1.28291e-08
1.29683e-05
1.64251e-08
1.29757e-05
1.86093e-08
1.29834e-05
1.98104e-08
1.29912e-05
2.02424e-08
1.29989e-05
2.00975e-08
1.30064e-05
1.9531e-08
1.30137e-05
1.86859e-08
1.30206e-05
1.7664e-08
1.30272e-05
1.65414e-08
1.30335e-05
1.53655e-08
1.30395e-05
1.41764e-08
1.30452e-05
1.29934e-08
1.30505e-05
1.18387e-08
1.30555e-05
1.07124e-08
9.62755e-09
1.30602e-05
1.51098e-05
1.60327e-09
1.51133e-05
4.02039e-09
1.51188e-05
7.25847e-09
1.51257e-05
9.45581e-09
1.51334e-05
1.08176e-08
1.51417e-05
1.15401e-08
1.51501e-05
1.17785e-08
1.51586e-05
1.16366e-08
1.51669e-05
1.12221e-08
1.51749e-05
1.06179e-08
1.51826e-05
9.89399e-09
1.519e-05
9.09968e-09
1.51971e-05
8.27055e-09
1.52038e-05
7.43377e-09
1.52102e-05
6.60635e-09
1.52162e-05
5.80428e-09
1.52218e-05
5.0303e-09
4.29256e-09
1.52271e-05
1.76258e-05
2.15271e-10
1.76296e-05
2.03697e-10
1.76355e-05
1.35215e-09
1.76429e-05
2.06453e-09
1.76513e-05
2.41394e-09
1.76602e-05
2.56113e-09
1.76695e-05
2.50436e-09
1.76788e-05
2.30814e-09
1.7688e-05
1.99771e-09
1.7697e-05
1.6171e-09
1.77056e-05
1.18956e-09
1.7714e-05
7.40858e-10
1.77219e-05
2.8367e-10
1.77295e-05
-1.65704e-10
1.77367e-05
-6.01762e-10
1.77435e-05
-1.0125e-09
1.77499e-05
-1.40177e-09
-1.7608e-09
1.77559e-05
1.78276e-05
-1.11747e-09
1.78314e-05
-3.5082e-09
1.78372e-05
-4.34143e-09
1.78444e-05
-5.15088e-09
1.78526e-05
-5.75346e-09
1.78613e-05
-6.22128e-09
1.78704e-05
-6.56675e-09
1.78796e-05
-6.85131e-09
1.78886e-05
-7.06998e-09
1.78975e-05
-7.25317e-09
1.79061e-05
-7.39657e-09
1.79143e-05
-7.51871e-09
1.79222e-05
-7.61112e-09
1.79297e-05
-7.68863e-09
1.79368e-05
-7.73802e-09
1.79435e-05
-7.77557e-09
1.79499e-05
-7.78668e-09
-7.79179e-09
1.79559e-05
1.58826e-05
-2.37051e-09
1.58863e-05
-6.92462e-09
1.58916e-05
-9.58966e-09
1.58982e-05
-1.16933e-08
1.59056e-05
-1.31813e-08
1.59136e-05
-1.41251e-08
1.59217e-05
-1.47203e-08
1.59299e-05
-1.50414e-08
1.5938e-05
-1.51707e-08
1.59459e-05
-1.51464e-08
1.59535e-05
-1.50286e-08
1.59608e-05
-1.48415e-08
1.59678e-05
-1.46101e-08
1.59744e-05
-1.43446e-08
1.59807e-05
-1.40592e-08
1.59867e-05
-1.37539e-08
1.59923e-05
-1.34461e-08
-1.31258e-08
1.59976e-05
1.415e-05
-3.59238e-09
1.41536e-05
-1.03693e-08
1.41588e-05
-1.4713e-08
1.41651e-05
-1.80236e-08
1.41721e-05
-2.01815e-08
1.41795e-05
-2.15131e-08
1.4187e-05
-2.22851e-08
1.41945e-05
-2.25968e-08
1.42019e-05
-2.25641e-08
1.4209e-05
-2.23191e-08
1.42159e-05
-2.19227e-08
1.42225e-05
-2.14358e-08
1.42287e-05
-2.08844e-08
1.42346e-05
-2.03017e-08
1.42403e-05
-1.96977e-08
1.42456e-05
-1.90906e-08
1.42506e-05
-1.84823e-08
-1.78858e-08
1.42553e-05
1.26063e-05
-4.87833e-09
1.26102e-05
-1.39179e-08
1.26154e-05
-1.9844e-08
1.26216e-05
-2.42041e-08
1.26283e-05
-2.69332e-08
1.26353e-05
-2.85741e-08
1.26424e-05
-2.94103e-08
1.26494e-05
-2.96452e-08
1.26562e-05
-2.94409e-08
1.26627e-05
-2.89186e-08
1.2669e-05
-2.82296e-08
1.26749e-05
-2.74159e-08
1.26805e-05
-2.65569e-08
1.26859e-05
-2.5657e-08
1.26909e-05
-2.47612e-08
1.26957e-05
-2.38609e-08
1.27002e-05
-2.29871e-08
-2.21307e-08
1.27044e-05
1.12312e-05
-6.05919e-09
1.12351e-05
-1.77363e-08
1.12406e-05
-2.52565e-08
1.12468e-05
-3.0431e-08
1.12533e-05
-3.34859e-08
1.126e-05
-3.53135e-08
1.12667e-05
-3.6222e-08
1.12733e-05
-3.63026e-08
1.12796e-05
-3.58096e-08
1.12857e-05
-3.502e-08
1.12914e-05
-3.40041e-08
1.12968e-05
-3.28952e-08
1.13019e-05
-3.16991e-08
1.13067e-05
-3.05072e-08
1.13112e-05
-2.93064e-08
1.13155e-05
-2.81493e-08
1.13195e-05
-2.70146e-08
-2.59293e-08
1.13233e-05
1.00058e-05
-7.2459e-09
1.00102e-05
-2.18721e-08
1.00159e-05
-3.09484e-08
1.00221e-05
-3.66038e-08
1.00284e-05
-3.98768e-08
1.00349e-05
-4.18539e-08
1.00414e-05
-4.26474e-08
1.00476e-05
-4.25068e-08
1.00534e-05
-4.17698e-08
1.0059e-05
-4.06353e-08
1.00642e-05
-3.93188e-08
1.00692e-05
-3.78598e-08
1.00738e-05
-3.6386e-08
1.00782e-05
-3.48894e-08
1.00822e-05
-3.34405e-08
1.00861e-05
-3.20144e-08
1.00897e-05
-3.06592e-08
-2.93506e-08
1.00931e-05
8.91427e-06
-8.11685e-09
8.91886e-06
-2.62796e-08
8.92481e-06
-3.69788e-08
8.93089e-06
-4.27986e-08
8.93715e-06
-4.61777e-08
8.94352e-06
-4.82148e-08
8.94969e-06
-4.88459e-08
8.95554e-06
-4.83658e-08
8.96107e-06
-4.72586e-08
8.96624e-06
-4.58327e-08
8.9711e-06
-4.41781e-08
8.97562e-06
-4.24453e-08
8.97986e-06
-4.0653e-08
8.98383e-06
-3.88969e-08
8.98756e-06
-3.71722e-08
8.99104e-06
-3.55327e-08
8.99433e-06
-3.39523e-08
-3.24487e-08
8.99739e-06
7.9412e-06
-8.68964e-09
7.94687e-06
-3.20516e-08
7.95275e-06
-4.29364e-08
7.95842e-06
-4.85206e-08
7.96457e-06
-5.24169e-08
7.97094e-06
-5.46183e-08
7.97707e-06
-5.49178e-08
7.98281e-06
-5.40609e-08
7.98815e-06
-5.25995e-08
7.99311e-06
-5.07734e-08
7.99769e-06
-4.87735e-08
8.00195e-06
-4.66764e-08
8.00588e-06
-4.45959e-08
8.00955e-06
-4.2547e-08
8.01295e-06
-4.05881e-08
8.01612e-06
-3.87039e-08
8.01907e-06
-3.69242e-08
-3.52301e-08
8.02186e-06
7.07276e-06
-7.0762e-09
7.08017e-06
-3.94943e-08
7.08643e-06
-4.94073e-08
7.09221e-06
-5.44422e-08
7.09865e-06
-5.89218e-08
7.10526e-06
-6.12143e-08
7.11151e-06
-6.1158e-08
7.11731e-06
-5.98069e-08
7.12268e-06
-5.78983e-08
7.12756e-06
-5.56256e-08
7.13199e-06
-5.31776e-08
7.13602e-06
-5.06935e-08
7.13968e-06
-4.82343e-08
7.143e-06
-4.58548e-08
7.14603e-06
-4.35862e-08
7.14879e-06
-4.14534e-08
7.15132e-06
-3.94384e-08
-3.7519e-08
7.15362e-06
6.2986e-06
-3.21851e-09
6.30567e-06
-4.72604e-08
6.31413e-06
-5.78046e-08
6.32256e-06
-6.29773e-08
6.3309e-06
-6.73468e-08
6.33853e-06
-6.88704e-08
6.34524e-06
-6.7812e-08
6.35112e-06
-6.56819e-08
6.35635e-06
-6.3034e-08
6.36089e-06
-6.01166e-08
6.3648e-06
-5.70653e-08
6.36817e-06
-5.40255e-08
6.37106e-06
-5.10809e-08
6.37351e-06
-4.82781e-08
6.37559e-06
-4.56414e-08
6.37735e-06
-4.31866e-08
6.37884e-06
-4.09121e-08
-3.88153e-08
6.38016e-06
5.61795e-06
-6.50286e-09
5.62078e-06
-5.07857e-08
5.63118e-06
-6.83025e-08
5.64368e-06
-7.55725e-08
5.65544e-06
-7.92161e-08
5.66537e-06
-7.8814e-08
5.67308e-06
-7.5517e-08
5.67877e-06
-7.13156e-08
5.68277e-06
-6.69255e-08
5.68528e-06
-6.25472e-08
5.68654e-06
-5.82889e-08
5.68681e-06
-5.42478e-08
5.68626e-06
-5.04822e-08
5.68503e-06
-4.70062e-08
5.68326e-06
-4.38252e-08
5.68106e-06
-4.0953e-08
5.67854e-06
-3.83687e-08
-3.60873e-08
5.67583e-06
5.05398e-06
-5.84031e-08
5.06107e-06
-5.87238e-08
5.07151e-06
-7.89159e-08
5.07801e-06
-8.2189e-08
5.07994e-06
-8.12595e-08
5.07737e-06
-7.62851e-08
5.07082e-06
-6.89472e-08
5.06092e-06
-6.13454e-08
5.0485e-06
-5.43766e-08
5.03424e-06
-4.82056e-08
5.0188e-06
-4.27923e-08
5.00268e-06
-3.80679e-08
4.98623e-06
-3.39729e-08
4.96972e-06
-3.04347e-08
4.95333e-06
-2.73881e-08
4.93723e-06
-2.48127e-08
4.9216e-06
-2.2711e-08
-2.15099e-08
4.90704e-06
4.3981e-06
4.33936e-06
4.26044e-06
4.17823e-06
4.09697e-06
4.02069e-06
3.95175e-06
3.89042e-06
3.83606e-06
3.78786e-06
3.74508e-06
3.70702e-06
3.67306e-06
3.64264e-06
3.61526e-06
3.59045e-06
3.56775e-06
3.54624e-06
-7.77338e-09
7.76068e-09
-2.10914e-08
1.33208e-08
-3.51795e-08
1.40692e-08
-4.64731e-08
1.12949e-08
-4.99988e-08
3.50923e-09
-4.10959e-08
-8.92499e-09
-1.91795e-08
-2.19269e-08
1.26842e-08
-3.18988e-08
5.01269e-08
-3.74506e-08
8.84223e-08
-3.83121e-08
1.23536e-07
-3.51361e-08
1.52708e-07
-2.91722e-08
1.74129e-07
-2.14547e-08
1.86921e-07
-1.27703e-08
1.9056e-07
-3.69376e-09
1.85375e-07
5.22513e-09
1.71999e-07
1.33235e-08
1.52112e-07
1.99517e-08
1.27522e-07
2.45381e-08
1.0097e-07
2.66446e-08
7.4877e-08
2.60348e-08
5.21605e-08
2.28428e-08
3.4534e-08
1.75759e-08
2.37139e-08
1.09851e-08
1.99637e-08
3.67866e-09
2.37754e-08
-3.65738e-09
3.45644e-08
-1.08649e-08
5.21874e-08
-1.75369e-08
7.42385e-08
-2.2154e-08
9.63992e-08
-2.21388e-08
1.13986e-07
-1.76596e-08
1.26107e-07
-1.21045e-08
1.33675e-07
-7.63315e-09
1.39489e-07
-5.73123e-09
1.39954e-07
-5.77203e-10
1.25886e-07
1.4232e-08
8.88589e-08
3.68506e-08
2.51325e-08
6.38734e-08
-6.30683e-08
8.79696e-08
-1.71256e-07
1.0832e-07
-2.97153e-07
1.25712e-07
-4.36635e-07
1.39621e-07
-5.85621e-07
1.48873e-07
-7.39027e-07
1.53444e-07
-8.93464e-07
1.54358e-07
-1.04332e-06
1.49758e-07
-1.18637e-06
1.42999e-07
-1.32095e-06
1.34457e-07
-1.4449e-06
1.23943e-07
-1.55794e-06
1.12957e-07
-1.66217e-06
1.04251e-07
-1.7567e-06
9.44744e-08
-1.84028e-06
8.36234e-08
-1.91573e-06
7.54184e-08
-1.98339e-06
6.77063e-08
-2.0448e-06
6.13849e-08
-2.10083e-06
5.60891e-08
-2.15196e-06
5.1113e-08
-2.19874e-06
4.68326e-08
-2.24199e-06
4.32346e-08
-2.28206e-06
4.01211e-08
-2.31951e-06
3.74219e-08
-2.35455e-06
3.50807e-08
-2.38759e-06
3.30159e-08
-2.41877e-06
3.12007e-08
-2.44836e-06
2.95736e-08
-2.47646e-06
2.8116e-08
-2.50326e-06
2.67833e-08
-2.5288e-06
2.55652e-08
-2.55325e-06
2.44275e-08
-2.57659e-06
2.3366e-08
-2.59896e-06
2.23544e-08
-2.62034e-06
2.13921e-08
-2.64081e-06
2.04583e-08
-2.66035e-06
1.9555e-08
-2.67903e-06
1.86653e-08
-2.69681e-06
1.77926e-08
-2.71374e-06
1.69223e-08
-2.72979e-06
1.60593e-08
-2.74499e-06
1.519e-08
-2.75929e-06
1.43203e-08
-2.77273e-06
1.34366e-08
-2.78526e-06
1.25461e-08
-2.79689e-06
1.16344e-08
-2.80758e-06
1.07096e-08
-2.81734e-06
9.7558e-09
-2.82611e-06
8.77845e-09
-2.83386e-06
7.75951e-09
-2.84054e-06
6.69816e-09
-2.84609e-06
5.58458e-09
-2.85048e-06
4.41176e-09
-2.85366e-06
3.16977e-09
-2.85555e-06
1.86291e-09
-2.8561e-06
5.30618e-10
-2.85541e-06
-7.03708e-10
-2.85361e-06
-1.79022e-09
-2.85078e-06
-2.81232e-09
-2.84693e-06
-3.82412e-09
-2.84205e-06
-4.84681e-09
-2.83612e-06
-5.87999e-09
-2.82915e-06
-6.93301e-09
-2.8211e-06
-7.99663e-09
-2.81198e-06
-9.08105e-09
-2.80176e-06
-1.01737e-08
-2.79044e-06
-1.1287e-08
-2.778e-06
-1.24062e-08
-2.76444e-06
-1.35452e-08
-2.74972e-06
-1.46884e-08
-2.73387e-06
-1.58501e-08
-2.71685e-06
-1.70145e-08
-2.69867e-06
-1.81957e-08
-2.67929e-06
-1.93785e-08
-2.65875e-06
-2.05758e-08
-2.637e-06
-2.17738e-08
-2.61405e-06
-2.29837e-08
-2.5899e-06
-2.41935e-08
-2.56453e-06
-2.54121e-08
-2.53795e-06
-2.66295e-08
-2.51015e-06
-2.78523e-08
-2.48113e-06
-2.90726e-08
-2.4509e-06
-3.02944e-08
-2.41944e-06
-3.1512e-08
-2.38677e-06
-3.27268e-08
-2.35289e-06
-3.39352e-08
-2.31781e-06
-3.51365e-08
-2.28154e-06
-3.63289e-08
-2.24408e-06
-3.75104e-08
-2.20544e-06
-3.86806e-08
-2.16565e-06
-3.98354e-08
-2.12472e-06
-4.09742e-08
-2.08265e-06
-4.20917e-08
-2.03949e-06
-4.31888e-08
-1.99525e-06
-4.42643e-08
-1.94997e-06
-4.5316e-08
-1.90365e-06
-4.63477e-08
-1.85633e-06
-4.73465e-08
-1.80802e-06
-4.83101e-08
-1.75878e-06
-4.92486e-08
-1.70863e-06
-5.01487e-08
-1.65762e-06
-5.10259e-08
-1.60578e-06
-5.18596e-08
-1.55314e-06
-5.26624e-08
-1.49973e-06
-5.34171e-08
-1.44559e-06
-5.41312e-08
-1.39077e-06
-5.47976e-08
-1.3353e-06
-5.54255e-08
-1.27923e-06
-5.60053e-08
-1.22259e-06
-5.65453e-08
-1.16545e-06
-5.70439e-08
-1.10784e-06
-5.75054e-08
-1.04982e-06
-5.79304e-08
-9.91419e-07
-5.83165e-08
-9.3268e-07
-5.86625e-08
-8.73642e-07
-5.8967e-08
-8.1435e-07
-5.92315e-08
-7.54842e-07
-5.94549e-08
-6.95161e-07
-5.96406e-08
-6.35339e-07
-5.97874e-08
-5.75419e-07
-5.98998e-08
-5.15427e-07
-5.99764e-08
-4.55403e-07
-6.00225e-08
-3.9537e-07
-6.00362e-08
-3.35363e-07
-6.00247e-08
-2.75398e-07
-5.9984e-08
-2.15508e-07
-5.99254e-08
-1.55693e-07
-5.98495e-08
-9.59764e-08
-5.97668e-08
-3.63998e-08
-5.9624e-08
2.29838e-08
-5.94453e-08
8.22469e-08
-5.93182e-08
1.41271e-07
-5.90914e-08
1.9988e-07
-5.86708e-08
2.57917e-07
-5.81101e-08
3.15165e-07
-5.73186e-08
3.71232e-07
-5.61449e-08
4.25434e-07
-5.42789e-08
4.7651e-07
-5.11584e-08
5.21698e-07
-4.52642e-08
5.57145e-07
-3.55186e-08
3.74683e-09
5.53337e-07
-3.79842e-09
1.15396e-08
-9.8687e-09
1.94033e-08
-1.14795e-08
1.56505e-08
-9.92622e-10
8.01038e-10
2.46855e-08
-2.21944e-08
6.30382e-08
-4.73013e-08
1.08657e-07
-6.75571e-08
1.55891e-07
-7.9155e-08
2.00215e-07
-8.17813e-08
2.38858e-07
-7.69697e-08
2.70554e-07
-6.68474e-08
2.94815e-07
-5.34351e-08
3.1165e-07
-3.8311e-08
3.21473e-07
-2.25789e-08
3.24765e-07
-7.00974e-09
3.22184e-07
7.8309e-09
3.13955e-07
2.15299e-08
3.00357e-07
3.35963e-08
2.81564e-07
4.33137e-08
2.58409e-07
4.98538e-08
2.32036e-07
5.23951e-08
2.04626e-07
5.03436e-08
1.78605e-07
4.35928e-08
1.57131e-07
3.25929e-08
1.42445e-07
1.83655e-08
1.3671e-07
2.23457e-09
1.39301e-07
-1.34703e-08
1.46746e-07
-2.49051e-08
1.53061e-07
-2.85231e-08
1.52596e-07
-2.16604e-08
1.4124e-07
-6.40949e-09
1.14743e-07
1.44195e-08
6.47208e-08
4.22632e-08
-1.7728e-08
7.67364e-08
-1.33845e-07
1.15469e-07
-2.74879e-07
1.55269e-07
-4.31199e-07
1.93138e-07
-5.94881e-07
2.27556e-07
-7.62764e-07
2.55825e-07
-9.3106e-07
2.76647e-07
-1.09519e-06
2.89823e-07
-1.25052e-06
2.94992e-07
-1.39398e-06
2.92324e-07
-1.52338e-06
2.82843e-07
-1.63722e-06
2.68161e-07
-1.73708e-06
2.49575e-07
-1.82323e-06
2.29115e-07
-1.89726e-06
2.08434e-07
-1.96136e-06
1.88027e-07
-2.01742e-06
1.68971e-07
-2.06512e-06
1.51949e-07
-2.1072e-06
1.36542e-07
-2.14595e-06
1.22376e-07
-2.18089e-06
1.10351e-07
-2.21316e-06
1.00003e-07
-2.24305e-06
9.12658e-08
-2.27078e-06
8.38428e-08
-2.29701e-06
7.73498e-08
-2.32189e-06
7.17288e-08
-2.34554e-06
6.68828e-08
-2.36806e-06
6.26628e-08
-2.3896e-06
5.89569e-08
-2.41019e-06
5.56797e-08
-2.42993e-06
5.27493e-08
-2.44883e-06
5.01091e-08
-2.46697e-06
4.77017e-08
-2.48433e-06
4.54884e-08
-2.50098e-06
4.34287e-08
-2.51691e-06
4.14965e-08
-2.53214e-06
3.96626e-08
-2.54668e-06
3.79098e-08
-2.56055e-06
3.62167e-08
-2.57372e-06
3.45719e-08
-2.58623e-06
3.29596e-08
-2.59804e-06
3.13723e-08
-2.60918e-06
2.97977e-08
-2.61961e-06
2.82314e-08
-2.62936e-06
2.66633e-08
-2.63838e-06
2.50909e-08
-2.6467e-06
2.35056e-08
-2.65428e-06
2.19064e-08
-2.66112e-06
2.02851e-08
-2.66721e-06
1.86423e-08
-2.67254e-06
1.69703e-08
-2.67709e-06
1.52708e-08
-2.68087e-06
1.35364e-08
-2.68386e-06
1.17683e-08
-2.68605e-06
9.96016e-09
-2.68744e-06
8.11192e-09
-2.68806e-06
6.22663e-09
-2.68795e-06
4.3095e-09
-2.68715e-06
2.36927e-09
-2.68573e-06
4.27152e-10
-2.68372e-06
-1.49518e-09
-2.68103e-06
-3.4048e-09
-2.67747e-06
-5.33924e-09
-2.67296e-06
-7.30544e-09
-2.66746e-06
-9.30138e-09
-2.66095e-06
-1.13266e-08
-2.65341e-06
-1.33839e-08
-2.64483e-06
-1.54722e-08
-2.6352e-06
-1.75912e-08
-2.62451e-06
-1.97398e-08
-2.61273e-06
-2.19161e-08
-2.59987e-06
-2.41197e-08
-2.58591e-06
-2.63477e-08
-2.57083e-06
-2.8601e-08
-2.55463e-06
-3.08752e-08
-2.5373e-06
-3.31724e-08
-2.51882e-06
-3.54873e-08
-2.4992e-06
-3.78227e-08
-2.47842e-06
-4.01727e-08
-2.45647e-06
-4.25403e-08
-2.43334e-06
-4.49195e-08
-2.40904e-06
-4.7313e-08
-2.38355e-06
-4.97146e-08
-2.35687e-06
-5.21267e-08
-2.32899e-06
-5.45431e-08
-2.29991e-06
-5.69652e-08
-2.26964e-06
-5.93871e-08
-2.23816e-06
-6.1809e-08
-2.20549e-06
-6.42254e-08
-2.17162e-06
-6.66352e-08
-2.13656e-06
-6.90334e-08
-2.10032e-06
-7.14178e-08
-2.0629e-06
-7.37841e-08
-2.02432e-06
-7.61295e-08
-1.98458e-06
-7.845e-08
-1.94371e-06
-8.07415e-08
-1.90171e-06
-8.29985e-08
-1.8586e-06
-8.52169e-08
-1.81441e-06
-8.73941e-08
-1.76916e-06
-8.95286e-08
-1.72288e-06
-9.16171e-08
-1.6756e-06
-9.36559e-08
-1.62732e-06
-9.56339e-08
-1.57809e-06
-9.7549e-08
-1.52794e-06
-9.94028e-08
-1.4769e-06
-1.01194e-07
-1.42501e-06
-1.02921e-07
-1.37231e-06
-1.04574e-07
-1.31883e-06
-1.06154e-07
-1.2646e-06
-1.07652e-07
-1.20966e-06
-1.09065e-07
-1.15405e-06
-1.10392e-07
-1.0978e-06
-1.11636e-07
-1.04096e-06
-1.12793e-07
-9.83581e-07
-1.13866e-07
-9.25702e-07
-1.1486e-07
-8.67372e-07
-1.15776e-07
-8.08633e-07
-1.16616e-07
-7.49524e-07
-1.17376e-07
-6.90085e-07
-1.18056e-07
-6.30358e-07
-1.18654e-07
-5.70384e-07
-1.1917e-07
-5.10202e-07
-1.19608e-07
-4.49851e-07
-1.19967e-07
-3.89368e-07
-1.20253e-07
-3.2879e-07
-1.20466e-07
-2.68148e-07
-1.20612e-07
-2.07475e-07
-1.20694e-07
-1.46799e-07
-1.20717e-07
-8.61487e-08
-1.20685e-07
-2.55457e-08
-1.20602e-07
3.49915e-08
-1.20481e-07
9.5454e-08
-1.20335e-07
1.55814e-07
-1.20152e-07
2.16081e-07
-1.19921e-07
2.76226e-07
-1.19622e-07
3.36096e-07
-1.19223e-07
3.95614e-07
-1.18646e-07
4.54755e-07
-1.17851e-07
5.13392e-07
-1.16788e-07
5.71334e-07
-1.15305e-07
6.28254e-07
-1.13111e-07
6.83638e-07
-1.09711e-07
7.36503e-07
-1.04073e-07
7.85679e-07
-9.44895e-08
8.27544e-07
-7.74294e-08
-3.24991e-08
8.63748e-07
-2.07301e-10
1.17479e-08
4.45714e-09
1.47513e-08
2.45272e-08
-4.42166e-09
6.4978e-08
-3.96599e-08
1.20177e-07
-7.73935e-08
1.78851e-07
-1.05989e-07
2.32127e-07
-1.20831e-07
2.75597e-07
-1.22636e-07
3.08366e-07
-1.14554e-07
3.31437e-07
-1.00044e-07
3.46486e-07
-8.19027e-08
3.55112e-07
-6.20612e-08
3.58544e-07
-4.17517e-08
3.57704e-07
-2.17246e-08
3.53131e-07
-2.44802e-09
3.45365e-07
1.56231e-08
3.34784e-07
3.21032e-08
3.21826e-07
4.65925e-08
3.06551e-07
5.85797e-08
2.89068e-07
6.7391e-08
2.69312e-07
7.21517e-08
2.47944e-07
7.17953e-08
2.26063e-07
6.5495e-08
2.05788e-07
5.29874e-08
1.88939e-07
3.52387e-08
1.76353e-07
1.49314e-08
1.62223e-07
6.45965e-10
1.35188e-07
2.17961e-09
8.8516e-08
1.80663e-08
2.09765e-08
4.58358e-08
-7.09867e-08
8.54772e-08
-1.89613e-07
1.33005e-07
-3.3074e-07
1.83356e-07
-4.87869e-07
2.33857e-07
-6.53631e-07
2.81208e-07
-8.20407e-07
3.22044e-07
-9.81439e-07
3.54148e-07
-1.13079e-06
3.76919e-07
-1.26514e-06
3.90162e-07
-1.38251e-06
3.94043e-07
-1.48208e-06
3.89395e-07
-1.56443e-06
3.77358e-07
-1.63167e-06
3.59558e-07
-1.68662e-06
3.37792e-07
-1.73217e-06
3.13695e-07
-1.77123e-06
2.88614e-07
-1.80588e-06
2.6375e-07
-1.8375e-06
2.40023e-07
-1.86736e-06
2.1788e-07
-1.89612e-06
1.97712e-07
-1.92381e-06
1.79632e-07
-1.95079e-06
1.63519e-07
-1.97756e-06
1.49153e-07
-2.00379e-06
1.36574e-07
-2.02939e-06
1.25608e-07
-2.05422e-06
1.16096e-07
-2.0782e-06
1.0783e-07
-2.10141e-06
1.00569e-07
-2.12385e-06
9.4176e-08
-2.14551e-06
8.85381e-08
-2.16638e-06
8.35332e-08
-2.18648e-06
7.90575e-08
-2.20583e-06
7.5026e-08
-2.22444e-06
7.13629e-08
-2.24234e-06
6.80068e-08
-2.25954e-06
6.49032e-08
-2.27606e-06
6.20078e-08
-2.29191e-06
5.92812e-08
-2.3071e-06
5.66917e-08
-2.32165e-06
5.42106e-08
-2.33555e-06
5.18154e-08
-2.34882e-06
4.94852e-08
-2.36145e-06
4.72038e-08
-2.37345e-06
4.49557e-08
-2.38481e-06
4.27293e-08
-2.39552e-06
4.05132e-08
-2.40559e-06
3.82989e-08
-2.41501e-06
3.60775e-08
-2.42376e-06
3.38431e-08
-2.43184e-06
3.15885e-08
-2.43924e-06
2.93094e-08
-2.44595e-06
2.70001e-08
-2.45196e-06
2.46577e-08
-2.45726e-06
2.22775e-08
-2.46184e-06
1.98583e-08
-2.4657e-06
1.73966e-08
-2.46882e-06
1.48921e-08
-2.4712e-06
1.23422e-08
-2.47282e-06
9.74821e-09
-2.47369e-06
7.11442e-09
-2.47381e-06
4.44371e-09
-2.4732e-06
1.74483e-09
-2.4718e-06
-9.78749e-10
-2.46958e-06
-3.72545e-09
-2.46647e-06
-6.51253e-09
-2.46245e-06
-9.35596e-09
-2.45748e-06
-1.22556e-08
-2.45155e-06
-1.5208e-08
-2.44464e-06
-1.82093e-08
-2.43674e-06
-2.12604e-08
-2.42782e-06
-2.43568e-08
-2.41789e-06
-2.75e-08
-2.40691e-06
-3.06842e-08
-2.39489e-06
-3.39116e-08
-2.38181e-06
-3.71757e-08
-2.36766e-06
-4.0479e-08
-2.35243e-06
-4.38149e-08
-2.3361e-06
-4.71862e-08
-2.31868e-06
-5.05863e-08
-2.30015e-06
-5.40175e-08
-2.28049e-06
-5.74739e-08
-2.25972e-06
-6.09571e-08
-2.2378e-06
-6.44618e-08
-2.21475e-06
-6.79886e-08
-2.19054e-06
-7.15327e-08
-2.16519e-06
-7.50936e-08
-2.13867e-06
-7.86668e-08
-2.11098e-06
-8.22506e-08
-2.08213e-06
-8.58405e-08
-2.05212e-06
-8.94336e-08
-2.02093e-06
-9.30251e-08
-1.98857e-06
-9.66111e-08
-1.95505e-06
-1.00186e-07
-1.92036e-06
-1.03746e-07
-1.88452e-06
-1.07285e-07
-1.84753e-06
-1.10798e-07
-1.80941e-06
-1.14279e-07
-1.77015e-06
-1.17724e-07
-1.72979e-06
-1.21124e-07
-1.68833e-06
-1.24475e-07
-1.64579e-06
-1.27769e-07
-1.6022e-06
-1.31002e-07
-1.55757e-06
-1.34171e-07
-1.51193e-06
-1.37269e-07
-1.46531e-06
-1.40291e-07
-1.41773e-06
-1.43225e-07
-1.36922e-06
-1.46069e-07
-1.3198e-06
-1.4882e-07
-1.26953e-06
-1.51478e-07
-1.21843e-06
-1.54038e-07
-1.16653e-06
-1.56491e-07
-1.11386e-06
-1.58832e-07
-1.06047e-06
-1.61054e-07
-1.00638e-06
-1.63153e-07
-9.51638e-07
-1.65129e-07
-8.9628e-07
-1.6698e-07
-8.40347e-07
-1.68703e-07
-7.83883e-07
-1.70302e-07
-7.26934e-07
-1.7178e-07
-6.69545e-07
-1.7314e-07
-6.11756e-07
-1.74383e-07
-5.53607e-07
-1.75506e-07
-4.95138e-07
-1.76507e-07
-4.3639e-07
-1.77386e-07
-3.77403e-07
-1.78144e-07
-3.18216e-07
-1.78782e-07
-2.58867e-07
-1.79306e-07
-1.99392e-07
-1.79717e-07
-1.39828e-07
-1.80023e-07
-8.02041e-08
-1.80228e-07
-2.05524e-08
-1.80341e-07
3.91014e-08
-1.80365e-07
9.87284e-08
-1.80309e-07
1.58309e-07
-1.80178e-07
2.17817e-07
-1.79987e-07
2.77227e-07
-1.79742e-07
3.36519e-07
-1.79443e-07
3.95681e-07
-1.7908e-07
4.54678e-07
-1.78619e-07
5.13446e-07
-1.77991e-07
5.71934e-07
-1.77137e-07
6.30088e-07
-1.76007e-07
6.87799e-07
-1.74504e-07
7.44908e-07
-1.72418e-07
8.01163e-07
-1.69374e-07
8.56182e-07
-1.64738e-07
9.09411e-07
-1.57312e-07
9.60182e-07
-1.45269e-07
1.00758e-06
-1.24838e-07
-8.11903e-08
1.05627e-06
3.43736e-10
1.14263e-08
2.07663e-08
-5.65929e-09
7.17369e-08
-5.53701e-08
1.40162e-07
-1.0809e-07
2.06818e-07
-1.44036e-07
2.59669e-07
-1.58845e-07
2.95475e-07
-1.56629e-07
3.16359e-07
-1.43523e-07
3.26346e-07
-1.24535e-07
3.29141e-07
-1.02841e-07
3.27417e-07
-8.01788e-08
3.22802e-07
-5.74389e-08
3.16143e-07
-3.50964e-08
3.07888e-07
-1.34525e-08
2.98237e-07
7.20486e-09
2.87299e-07
2.65887e-08
2.7502e-07
4.43818e-08
2.61479e-07
6.01743e-08
2.46641e-07
7.34187e-08
2.30639e-07
8.3462e-08
2.13236e-07
8.95662e-08
1.94515e-07
9.0622e-08
1.74801e-07
8.52258e-08
1.54937e-07
7.29677e-08
1.30511e-07
5.96408e-08
9.14113e-08
5.41027e-08
3.04643e-08
6.15374e-08
-5.32912e-08
8.59116e-08
-1.6091e-07
1.25633e-07
-2.9172e-07
1.76609e-07
-4.39986e-07
2.33699e-07
-5.98009e-07
2.91013e-07
-7.58422e-07
3.43742e-07
-9.13356e-07
3.88789e-07
-1.05564e-06
4.23468e-07
-1.18058e-06
4.4699e-07
-1.28649e-06
4.60042e-07
-1.37302e-06
4.63456e-07
-1.44129e-06
4.58427e-07
-1.49363e-06
4.46395e-07
-1.53312e-06
4.28876e-07
-1.56314e-06
4.07387e-07
-1.58698e-06
3.8339e-07
-1.60732e-06
3.58131e-07
-1.62622e-06
3.32585e-07
-1.64511e-06
3.07486e-07
-1.66475e-06
2.83387e-07
-1.68543e-06
2.60687e-07
-1.70716e-06
2.39614e-07
-1.72978e-06
2.20319e-07
-1.75297e-06
2.0283e-07
-1.77653e-06
1.87074e-07
-1.8003e-06
1.72922e-07
-1.82401e-06
1.60289e-07
-1.84746e-06
1.49055e-07
-1.87045e-06
1.39091e-07
-1.89287e-06
1.30251e-07
-1.91468e-06
1.22374e-07
-1.93584e-06
1.15334e-07
-1.95632e-06
1.09019e-07
-1.97612e-06
1.03326e-07
-1.99522e-06
9.81614e-08
-2.01365e-06
9.34463e-08
-2.0314e-06
8.91096e-08
-2.04848e-06
8.50906e-08
-2.06491e-06
8.13357e-08
-2.0807e-06
7.77995e-08
-2.09586e-06
7.4442e-08
-2.1104e-06
7.12293e-08
-2.12432e-06
6.81316e-08
-2.13762e-06
6.51237e-08
-2.15032e-06
6.21837e-08
-2.16241e-06
5.92928e-08
-2.17389e-06
5.64346e-08
-2.18475e-06
5.35952e-08
-2.195e-06
5.07624e-08
-2.20463e-06
4.79256e-08
-2.21363e-06
4.50756e-08
-2.22199e-06
4.22045e-08
-2.22971e-06
3.93052e-08
-2.23677e-06
3.63717e-08
-2.24316e-06
3.33985e-08
-2.24888e-06
3.03811e-08
-2.25392e-06
2.73156e-08
-2.25825e-06
2.41991e-08
-2.26188e-06
2.10292e-08
-2.2648e-06
1.78042e-08
-2.26697e-06
1.45228e-08
-2.2684e-06
1.11853e-08
-2.26906e-06
7.79369e-09
-2.26896e-06
4.35011e-09
-2.26807e-06
8.56095e-10
-2.26637e-06
-2.69011e-09
-2.26381e-06
-6.29097e-09
-2.26036e-06
-9.95824e-09
-2.256e-06
-1.36984e-08
-2.25073e-06
-1.75126e-08
-2.24452e-06
-2.13965e-08
-2.23736e-06
-2.53474e-08
-2.22923e-06
-2.9363e-08
-2.22012e-06
-3.34395e-08
-2.21002e-06
-3.75758e-08
-2.19891e-06
-4.17669e-08
-2.18679e-06
-4.6013e-08
-2.17364e-06
-5.03078e-08
-2.15944e-06
-5.46531e-08
-2.1442e-06
-5.90414e-08
-2.1279e-06
-6.34756e-08
-2.11053e-06
-6.79474e-08
-2.09208e-06
-7.24605e-08
-2.07255e-06
-7.70061e-08
-2.05193e-06
-8.15879e-08
-2.0302e-06
-8.61973e-08
-2.00736e-06
-9.08372e-08
-1.9834e-06
-9.54992e-08
-1.95833e-06