/*--------------------------------*- C++ -*----------------------------------*\
| =========                 |                                                 |
| \\      /  F ield         | OpenFOAM: The Open Source CFD Toolbox           |
|  \\    /   O peration     | Version:  v2012                                 |
|   \\  /    A nd           | Website:  www.openfoam.com                      |
|    \\/     M anipulation  |                                                 |
\*---------------------------------------------------------------------------*/
FoamFile
{
    version     2.0;
    format      ascii;
    class       volScalarField;
    location    "4900";
    object      nut;
}
// * * * * * * * * * * * * * * * * * * * * * * * * * * * * * * * * * * * * * //

dimensions      [0 2 -1 0 0 0 0];


internalField   nonuniform List<scalar> 
12225
(
0.0122671
0.00158819
0.000666128
0.000410104
0.00029404
0.000227808
0.000186418
0.000144344
0.000166322
0.000215675
0.000223825
0.000214192
0.000195171
0.000167533
0.000161404
0.000145533
0.000132327
0.000120147
0.0323823
0.00744532
0.00330638
0.00204329
0.00146802
0.00114429
0.00093866
0.000784863
0.000690369
0.000626883
0.000569547
0.000518718
0.000475219
0.000435574
0.000404981
0.000372256
0.000347121
0.000321105
0.0490123
0.01515
0.00728196
0.00457854
0.00330639
0.00258047
0.00211327
0.00178187
0.00154674
0.00137249
0.00123147
0.00111529
0.00101836
0.000936112
0.000866701
0.0008043
0.000753569
0.000701008
0.063054
0.0237783
0.0122894
0.00788814
0.00573397
0.00448496
0.0036744
0.00310418
0.00268715
0.00236996
0.00211791
0.00191316
0.00174402
0.00160223
0.00148243
0.00137861
0.00129107
0.00120453
0.074932
0.0328517
0.0181452
0.0119262
0.00874549
0.00686412
0.00563086
0.00476129
0.00411867
0.00362571
0.00323515
0.00291875
0.002658
0.00244005
0.00225597
0.00209833
0.00196335
0.00183981
0.0849536
0.0420208
0.0246655
0.0166359
0.0123325
0.00972587
0.0079954
0.0067674
0.00585403
0.00515004
0.0045919
0.00413983
0.00376743
0.00345635
0.00319352
0.00296907
0.00277613
0.00260657
0.0933822
0.0510219
0.0316642
0.0219415
0.016474
0.0130717
0.0107779
0.00913539
0.00790598
0.00695436
0.00619832
0.00558532
0.0050801
0.00465802
0.00430137
0.00399702
0.00373535
0.00350913
0.0993794
0.0583363
0.0378386
0.0268568
0.0204171
0.0163053
0.0134892
0.011453
0.00991905
0.0087267
0.00777696
0.00700569
0.00636943
0.00583762
0.00538816
0.00500468
0.00467516
0.00439182
0.104023
0.0645454
0.0433804
0.0314239
0.0241571
0.0194092
0.0161097
0.0137018
0.0118767
0.0104523
0.00931473
0.0083894
0.00762524
0.00698615
0.00644586
0.00598491
0.00558899
0.00524916
0.108368
0.0708939
0.0493757
0.0365496
0.0284517
0.0230231
0.0191863
0.0163548
0.0141927
0.0124969
0.0111382
0.0100306
0.00911457
0.00834784
0.00769937
0.00714607
0.00667098
0.00626328
0.112368
0.0772557
0.0557282
0.0421918
0.0332976
0.0271652
0.0227468
0.0194433
0.0168984
0.0148904
0.013275
0.0119546
0.0108607
0.00994396
0.00916816
0.00850607
0.00793759
0.0074494
0.115994
0.0834975
0.0623053
0.0482611
0.0386474
0.0318167
0.026789
0.0229739
0.0200047
0.0176453
0.0157379
0.0141737
0.012875
0.0117851
0.010862
0.0100738
0.0093969
0.00881485
0.119234
0.0894856
0.0689377
0.0546109
0.0443919
0.0369007
0.0312597
0.0269089
0.0234837
0.02074
0.0185097
0.0166735
0.015145
0.0138601
0.0127705
0.0118397
0.0110398
0.010351
0.122086
0.095084
0.075415
0.0610223
0.0503361
0.0422535
0.0360231
0.0311353
0.0272402
0.0240931
0.0215191
0.0193909
0.0176141
0.0161175
0.0148467
0.0137601
0.0128258
0.0120198
0.124546
0.100135
0.0814619
0.0671726
0.056158
0.047577
0.0408126
0.0354174
0.031066
0.0275197
0.0246013
0.0221778
0.0201482
0.018435
0.0169783
0.0157315
0.0146584
0.0137312
0.126578
0.104396
0.0866605
0.0725515
0.0613228
0.0523526
0.0451453
0.0393148
0.0345631
0.0306611
0.0274325
0.024741
0.0224806
0.020569
0.0189413
0.0175468
0.0163455
0.0153062
0.128011
0.107322
0.0902141
0.0762353
0.0648743
0.0556509
0.0481493
0.0420254
0.0370012
0.0328553
0.0294126
0.0265352
0.0241143
0.0220643
0.0203171
0.0188191
0.0175275
0.0164083
0.128006
0.107313
0.0902048
0.0762269
0.0648674
0.0556454
0.048145
0.0420221
0.0369988
0.0328537
0.0294117
0.0265349
0.0241147
0.0220651
0.0203184
0.0188205
0.0175286
0.0164082
0.126509
0.104255
0.0864922
0.0723807
0.0611613
0.052205
0.0450128
0.0391967
0.0344584
0.0305685
0.0273506
0.0246684
0.0224163
0.0205118
0.0188902
0.0175006
0.0163023
0.015263
0.124267
0.0995604
0.0807712
0.0664676
0.0554886
0.0469631
0.0402594
0.0349228
0.0306248
0.0271258
0.0242487
0.0218611
0.0198625
0.0181762
0.0167425
0.0155151
0.0144574
0.0135404
0.12136
0.0936399
0.0737261
0.0593348
0.0487592
0.0408248
0.0347467
0.0300003
0.0262308
0.0231928
0.0207127
0.018665
0.0169572
0.0155197
0.0142998
0.0132566
0.0123582
0.0115797
0.117686
0.0865903
0.0656967
0.0514791
0.0415374
0.0343608
0.0290183
0.0249322
0.0217348
0.0191848
0.0171184
0.0154211
0.0140105
0.0128262
0.0118228
0.0109656
0.0102279
0.00958885
0.11305
0.0784122
0.056921
0.0432687
0.0342296
0.0279652
0.0234365
0.0200435
0.0174263
0.0153598
0.0136967
0.012337
0.0112107
0.0102671
0.00946865
0.00878716
0.00820096
0.00769338
0.107169
0.0691009
0.0476372
0.035029
0.0271566
0.021922
0.0182437
0.0155401
0.0134818
0.0118708
0.0105819
0.00953233
0.00866517
0.0079399
0.00732685
0.00680389
0.00635418
0.00596494
0.0996761
0.0587036
0.0381279
0.0270699
0.0205782
0.0164329
0.0135949
0.0115437
0.00999935
0.00879954
0.00784424
0.00706856
0.00642884
0.00589442
0.00544294
0.00505792
0.00472683
0.00444035
0.0901097
0.0473665
0.0287363
0.0196847
0.0146976
0.0116311
0.00957849
0.0081152
0.0070235
0.00618081
0.00551237
0.00497029
0.00452349
0.00415045
0.00383512
0.00356631
0.00333505
0.0031349
0.0779076
0.0353826
0.0198606
0.0131383
0.00966105
0.00759295
0.00623348
0.00527409
0.00456424
0.00402037
0.00359044
0.00324087
0.00295214
0.00271107
0.00250637
0.00233216
0.00218216
0.00205171
0.06238
0.0232554
0.0119461
0.00765493
0.00556336
0.00435253
0.00356719
0.00301614
0.0026133
0.00231034
0.00207205
0.00187475
0.00171024
0.00157279
0.00145391
0.00135312
0.00126656
0.00118899
0.0426105
0.0117794
0.0054693
0.00341385
0.0024607
0.00192004
0.00157265
0.00132941
0.00115828
0.0010412
0.000949604
0.000864904
0.000792481
0.000729179
0.000673696
0.000621449
0.000582576
0.000544864
0.0168348
0.00255985
0.00110002
0.000683429
0.000493725
0.00038681
0.000318007
0.000268387
0.000267471
0.00033592
0.000374931
0.000353061
0.000323692
0.000278811
0.000284525
0.00022723
0.000262363
0.000259264
5.28761e-10
1.01555e-07
1.14784e-06
5.16891e-06
9.86092e-06
1.28027e-05
1.31256e-05
1.11689e-05
8.84742e-06
5.7681e-06
3.397e-06
1.93931e-06
1.35885e-06
1.47359e-06
2.01144e-06
2.48089e-06
2.41324e-06
1.63464e-06
7.30154e-07
3.7059e-07
4.11593e-07
1.22163e-06
5.52526e-06
2.8411e-05
5.71874e-05
7.50108e-05
9.13976e-05
0.000105192
0.000117331
0.000127444
0.000136302
0.000143915
0.000150576
0.000156377
0.000161439
0.000165908
0.000169869
0.000173408
0.000176581
0.000179432
0.00018199
0.000184277
0.000186312
0.000188111
0.000189687
0.000191054
0.000192222
0.000193198
0.000193979
0.000194562
0.000194824
0.000195074
0.000195122
0.000194994
0.000194694
0.000194247
0.000193647
0.000192899
0.000192004
0.000190965
0.000189782
0.00018846
0.000186999
0.000185402
0.000183672
0.000181812
0.000179821
0.000177702
0.000175458
0.000173092
0.000170605
0.000167999
0.000165276
0.000162438
0.000159487
0.000156422
0.000153246
0.000149958
0.000146557
0.000143043
0.000139412
0.000135659
0.00013178
0.000127766
0.00012361
0.000119301
0.000114829
0.00011018
0.000105335
0.000100272
9.49614e-05
8.93783e-05
8.35156e-05
7.74417e-05
7.14369e-05
6.61763e-05
6.24478e-05
6.0124e-05
5.83766e-05
5.67719e-05
5.5196e-05
5.36277e-05
5.20657e-05
5.05116e-05
4.89671e-05
4.74344e-05
4.59161e-05
4.44185e-05
4.29702e-05
4.17377e-05
4.05334e-05
3.93439e-05
3.81717e-05
3.70173e-05
3.58817e-05
3.47657e-05
3.367e-05
3.25954e-05
3.15425e-05
3.05116e-05
2.95033e-05
2.85179e-05
2.7556e-05
2.66181e-05
2.57042e-05
2.48142e-05
2.39495e-05
2.314e-05
2.24057e-05
2.16901e-05
2.09894e-05
2.03129e-05
1.96643e-05
1.9029e-05
1.84079e-05
1.78039e-05
1.7218e-05
1.66502e-05
1.61005e-05
1.55685e-05
1.50538e-05
1.45559e-05
1.40744e-05
1.36089e-05
1.3159e-05
1.27243e-05
1.23042e-05
1.18984e-05
1.15067e-05
1.11285e-05
1.07635e-05
1.04116e-05
1.00722e-05
9.74503e-06
9.42984e-06
9.12631e-06
8.83416e-06
8.55315e-06
8.28305e-06
8.02365e-06
7.77476e-06
7.5362e-06
7.3078e-06
7.08936e-06
6.88068e-06
6.68151e-06
6.4915e-06
6.31024e-06
6.13717e-06
5.97156e-06
5.81244e-06
5.65877e-06
5.50844e-06
5.36137e-06
5.20818e-06
5.0645e-06
4.86154e-06
4.71999e-06
4.30593e-06
3.68251e-06
3.34271e-09
6.0377e-06
6.15654e-05
0.000137854
0.000181889
0.000205999
0.000215522
0.000214023
0.000205547
0.00018872
0.000167812
0.000147708
0.000137595
0.000143073
0.000156914
0.000165318
0.000167423
0.000168285
0.000173763
0.000183532
0.000199767
0.00021807
0.00023517
0.000251144
0.000262458
0.000272243
0.000281089
0.000294273
0.000313162
0.000327067
0.00033974
0.000350625
0.000360527
0.000369582
0.000377456
0.000384648
0.000391347
0.000397778
0.000404069
0.000410285
0.00041642
0.000422432
0.000428267
0.000433886
0.00043926
0.000444372
0.000449207
0.000453754
0.000458012
0.00046199
0.000465695
0.000469149
0.000472341
0.000475281
0.000477971
0.000480412
0.000482604
0.000484548
0.000486245
0.000487694
0.000488897
0.000489855
0.00049057
0.000491046
0.000491294
0.000491318
0.000491112
0.000490675
0.000490021
0.000489154
0.000488081
0.000486808
0.000485342
0.00048369
0.000481858
0.000479854
0.000477686
0.00047536
0.000472886
0.000470269
0.000467519
0.000464641
0.000461645
0.000458538
0.000455327
0.000452022
0.000448631
0.000445162
0.000441624
0.000438025
0.000434372
0.000430669
0.000426916
0.000423106
0.000419218
0.000415226
0.000411116
0.000406915
0.000402674
0.000398418
0.000394153
0.000389884
0.000385614
0.000381347
0.000377086
0.000372835
0.000368596
0.000364371
0.000360161
0.000355962
0.000351787
0.00034764
0.000343522
0.000339434
0.00033538
0.00033136
0.000327377
0.00032343
0.000319523
0.000315656
0.00031183
0.000308045
0.000304303
0.000300605
0.000296953
0.000293344
0.00028978
0.000286259
0.000282779
0.000279345
0.000275954
0.000272615
0.000269329
0.000266078
0.000262863
0.000259689
0.000256559
0.000253474
0.000250435
0.00024744
0.000244489
0.000241582
0.000238718
0.000235896
0.000233116
0.000230378
0.000227679
0.000225021
0.000222403
0.000219824
0.000217284
0.000214783
0.00021232
0.000209897
0.000207513
0.000205167
0.000202861
0.000200595
0.000198371
0.000196188
0.000194049
0.000191955
0.000189908
0.000187909
0.00018596
0.000184064
0.00018222
0.000180429
0.000178691
0.000177003
0.000175361
0.000173764
0.000172192
0.000170676
0.000169083
0.000167735
0.000165694
0.000165095
0.000162006
0.000160566
7.63376e-08
3.98472e-05
0.000162905
0.000245619
0.000298882
0.000329073
0.000339959
0.000336942
0.000323946
0.000304603
0.000284904
0.000272509
0.000270562
0.00027754
0.000288082
0.000299119
0.00031218
0.000329342
0.000350994
0.000376357
0.000403788
0.000432002
0.000471309
0.000517484
0.000563081
0.000607157
0.000650215
0.000693862
0.000732921
0.000763992
0.000788825
0.000808517
0.000824132
0.000836526
0.00084648
0.000854764
0.000862077
0.000869058
0.00087624
0.000883975
0.000892366
0.000901289
0.000910504
0.000919777
0.000928929
0.000937842
0.000946442
0.000954678
0.000962516
0.000969928
0.000976887
0.000983373
0.000989373
0.000994886
0.000999908
0.00100444
0.00100848
0.00101202
0.00101508
0.00101764
0.0010197
0.00102128
0.00102236
0.0010229
0.00102306
0.00102277
0.00102198
0.00102073
0.00101904
0.00101692
0.00101438
0.00101144
0.0010081
0.00100438
0.0010003
0.000995867
0.000991099
0.00098601
0.000980616
0.00097493
0.000968969
0.000962748
0.000956281
0.000949583
0.00094267
0.000935557
0.000928259
0.000920789
0.000913162
0.00090539
0.000897487
0.000889463
0.000881327
0.000873087
0.000864752
0.000856332
0.000847838
0.000839287
0.000830695
0.000822075
0.000813439
0.000804794
0.000796149
0.000787512
0.00077889
0.000770289
0.000761716
0.000753177
0.000744678
0.000736224
0.000727821
0.000719475
0.000711189
0.000702967
0.000694814
0.000686733
0.000678727
0.000670798
0.00066295
0.000655185
0.000647504
0.000639909
0.000632403
0.000624987
0.000617663
0.000610431
0.00060329
0.000596243
0.000589289
0.000582429
0.000575664
0.000568995
0.000562418
0.000555928
0.000549524
0.000543209
0.000536985
0.000530853
0.000524812
0.000518862
0.000513002
0.000507232
0.00050155
0.000495955
0.000490446
0.000485021
0.000479681
0.000474422
0.000469244
0.000464147
0.000459129
0.000454189
0.000449327
0.00044454
0.000439829
0.000435192
0.000430627
0.000426134
0.000421711
0.000417358
0.000413073
0.000408853
0.000404698
0.000400604
0.00039657
0.000392592
0.000388665
0.000384785
0.000380945
0.000377136
0.000373345
0.00036956
0.000365752
0.000361912
0.000357943
0.000353937
0.000349404
0.000345154
0.000338582
0.000326884
6.1629e-07
8.21615e-05
0.000213016
0.000308834
0.000372265
0.000409343
0.000424627
0.000424842
0.000414745
0.000401419
0.000393589
0.000393025
0.000402627
0.000420124
0.000443117
0.000471102
0.000504663
0.000544073
0.000588497
0.000652315
0.000726426
0.00080639
0.000890258
0.000960514
0.00102268
0.00107857
0.00112878
0.00117349
0.00121257
0.0012463
0.00127541
0.00130065
0.00132269
0.00134218
0.00135968
0.00137567
0.00139058
0.00140474
0.00141839
0.00143174
0.00144491
0.00145796
0.00147091
0.00148377
0.00149646
0.00150891
0.00152104
0.00153274
0.00154393
0.00155452
0.00156447
0.00157374
0.00158231
0.00159017
0.0015973
0.00160371
0.00160938
0.00161431
0.00161851
0.00162197
0.00162469
0.00162666
0.00162782
0.00162825
0.00162812
0.00162721
0.00162558
0.00162326
0.00162026
0.0016166
0.0016123
0.00160738
0.00160185
0.00159575
0.00158909
0.00158189
0.00157418
0.00156599
0.00155732
0.00154821
0.00153868
0.00152875
0.00151844
0.00150778
0.0014968
0.0014855
0.00147393
0.00146209
0.00145001
0.00143771
0.00142521
0.00141253
0.00139968
0.00138668
0.00137354
0.00136029
0.00134694
0.00133351
0.00132002
0.00130649
0.00129293
0.00127936
0.00126578
0.00125222
0.00123869
0.00122519
0.00121173
0.00119833
0.00118499
0.00117173
0.00115854
0.00114544
0.00113244
0.00111953
0.00110673
0.00109405
0.00108148
0.00106903
0.0010567
0.00104451
0.00103244
0.00102051
0.00100872
0.000997069
0.000985556
0.000974186
0.000962959
0.000951877
0.000940939
0.000930148
0.000919504
0.000909005
0.000898649
0.000888432
0.000878353
0.000868414
0.000858615
0.000848957
0.000839441
0.000830064
0.000820827
0.000811727
0.000802764
0.000793936
0.000785241
0.000776676
0.000768241
0.000759934
0.000751752
0.000743694
0.000735759
0.000727945
0.000720249
0.000712671
0.000705208
0.000697859
0.000690621
0.000683492
0.000676472
0.000669556
0.000662744
0.000656032
0.000649417
0.000642895
0.000636463
0.000630116
0.000623847
0.000617648
0.00061151
0.000605421
0.000599364
0.000593318
0.000587253
0.000581134
0.000574889
0.000568491
0.000561661
0.000554661
0.000546198
0.00052995
1.39967e-06
0.000101867
0.00023493
0.000354661
0.000433284
0.0004805
0.00050393
0.000512332
0.000513967
0.000515195
0.000522452
0.000539031
0.000565504
0.000600879
0.000644392
0.000696081
0.000756755
0.000840662
0.000936744
0.00103249
0.00112126
0.00120542
0.0012845
0.00135694
0.00142347
0.00148468
0.00154097
0.00159266
0.00164011
0.00168376
0.00172409
0.00176158
0.00179665
0.00182967
0.00186096
0.00189077
0.00191929
0.00194666
0.00197297
0.00199828
0.00202263
0.00204602
0.00206846
0.00208992
0.00211038
0.0021298
0.00214817
0.00216544
0.00218159
0.00219661
0.00221048
0.0022232
0.00223479
0.00224526
0.00225463
0.00226291
0.00227012
0.00227628
0.00228141
0.00228551
0.0022886
0.00229065
0.00229156
0.00229165
0.00229077
0.00228888
0.00228605
0.00228227
0.00227758
0.002272
0.00226555
0.00225826
0.00225016
0.00224128
0.00223164
0.00222128
0.00221024
0.00219853
0.0021862
0.00217326
0.00215977
0.00214573
0.00213119
0.00211618
0.00210073
0.00208486
0.00206861
0.00205201
0.00203509
0.00201787
0.00200039
0.00198266
0.00196472
0.00194658
0.00192827
0.00190982
0.00189124
0.00187256
0.0018538
0.00183499
0.00181615
0.00179729
0.00177843
0.0017596
0.0017408
0.00172205
0.00170336
0.00168475
0.00166623
0.00164781
0.0016295
0.00161132
0.00159326
0.00157534
0.00155757
0.00153996
0.0015225
0.00150521
0.00148809
0.00147115
0.00145439
0.00143781
0.00142142
0.00140522
0.00138922
0.0013734
0.00135779
0.00134237
0.00132715
0.00131214
0.00129732
0.0012827
0.00126827
0.00125404
0.00124
0.00122615
0.0012125
0.00119903
0.00118576
0.00117268
0.00115979
0.00114709
0.00113457
0.00112223
0.00111008
0.00109811
0.00108631
0.00107468
0.00106323
0.00105194
0.00104082
0.00102987
0.00101908
0.00100844
0.000997961
0.000987636
0.000977462
0.000967435
0.000957554
0.000947815
0.000938215
0.00092875
0.000919417
0.00091021
0.000901124
0.000892154
0.000883291
0.000874527
0.000865849
0.000857243
0.000848689
0.000840163
0.000831631
0.00082305
0.000814349
0.000805468
0.000796203
0.00078659
0.000776421
0.000756648
2.32597e-06
0.000118227
0.000256262
0.000389874
0.000486688
0.000548389
0.000586139
0.000609629
0.000627567
0.000647209
0.000673756
0.000709798
0.000756034
0.000812732
0.000880442
0.000971369
0.00107678
0.00117843
0.00127752
0.00137278
0.00146326
0.00154903
0.00163006
0.00170632
0.00177809
0.00184575
0.00190961
0.00197003
0.00202732
0.00208183
0.00213386
0.00218372
0.00223164
0.00227782
0.00232244
0.00236562
0.00240743
0.00244794
0.00248717
0.00252513
0.00256182
0.00259722
0.0026313
0.00266402
0.00269535
0.00272525
0.00275366
0.00278057
0.00280592
0.00282968
0.00285183
0.00287235
0.00289122
0.00290842
0.00292395
0.00293782
0.00295002
0.00296055
0.00296945
0.00297671
0.00298236
0.00298644
0.00298887
0.00298977
0.0029893
0.00298733
0.00298398
0.00297928
0.00297327
0.00296602
0.00295757
0.00294797
0.00293728
0.00292555
0.00291283
0.00289916
0.00288459
0.00286917
0.00285295
0.00283595
0.00281824
0.00279984
0.0027808
0.00276117
0.00274098
0.00272027
0.00269908
0.00267745
0.00265541
0.00263301
0.00261028
0.00258725
0.00256395
0.00254042
0.00251668
0.00249277
0.00246872
0.00244455
0.00242029
0.00239596
0.0023716
0.00234723
0.00232287
0.00229854
0.00227425
0.00225004
0.00222591
0.00220188
0.00217797
0.00215419
0.00213055
0.00210707
0.00208376
0.00206063
0.00203769
0.00201495
0.00199241
0.00197008
0.00194797
0.00192609
0.00190444
0.00188302
0.00186185
0.00184091
0.00182022
0.00179978
0.00177959
0.00175965
0.00173997
0.00172053
0.00170135
0.00168242
0.00166374
0.0016453
0.00162711
0.00160917
0.00159147
0.00157401
0.0015568
0.00153983
0.00152309
0.0015066
0.00149033
0.0014743
0.0014585
0.00144292
0.00142757
0.00141243
0.00139751
0.0013828
0.0013683
0.00135401
0.00133992
0.00132603
0.00131234
0.00129884
0.00128553
0.0012724
0.00125946
0.0012467
0.00123411
0.00122169
0.00120944
0.00119734
0.00118541
0.00117361
0.00116196
0.00115044
0.00113902
0.00112771
0.00111648
0.00110529
0.00109413
0.00108293
0.00107163
0.00106015
0.00104834
0.00103618
0.0010239
0.00100145
2.79458e-06
0.000126787
0.000269169
0.000407469
0.00052605
0.000607447
0.000663621
0.00070573
0.000743022
0.000782738
0.000829895
0.000887396
0.000956967
0.00104973
0.00115702
0.00126366
0.00136973
0.00147298
0.00157289
0.00166906
0.00176127
0.00184952
0.00193391
0.0020146
0.00209183
0.00216589
0.00223704
0.00230556
0.00237169
0.00243567
0.00249772
0.002558
0.00261667
0.00267384
0.0027296
0.002784
0.00283707
0.00288884
0.00293928
0.00298839
0.00303614
0.00308248
0.00312737
0.00317076
0.0032126
0.00325284
0.00329142
0.00332829
0.00336341
0.00339672
0.00342818
0.00345776
0.00348541
0.00351111
0.00353483
0.00355655
0.00357626
0.00359394
0.00360959
0.00362321
0.00363481
0.00364439
0.00365197
0.00365759
0.00366124
0.00366285
0.00366277
0.00366078
0.003657
0.00365148
0.00364428
0.00363543
0.00362501
0.00361308
0.0035997
0.00358493
0.00356884
0.00355149
0.00353296
0.00351331
0.0034926
0.00347091
0.00344831
0.00342484
0.00340059
0.00337561
0.00334997
0.00332371
0.0032969
0.0032696
0.00324184
0.00321369
0.00318518
0.00315637
0.00312728
0.00309798
0.00306848
0.00303883
0.00300906
0.00297921
0.00294932
0.0029194
0.00288949
0.00285961
0.00282979
0.00280004
0.00277041
0.00274089
0.00271151
0.0026823
0.00265326
0.0026244
0.00259575
0.00256732
0.00253912
0.00251115
0.00248344
0.00245598
0.00242879
0.00240186
0.00237522
0.00234886
0.00232279
0.00229702
0.00227154
0.00224636
0.00222148
0.0021969
0.00217262
0.00214865
0.00212499
0.00210163
0.00207856
0.0020558
0.00203333
0.00201116
0.00198928
0.0019677
0.00194641
0.00192541
0.00190469
0.00188426
0.00186411
0.00184424
0.00182464
0.00180531
0.00178625
0.00176746
0.00174892
0.00173064
0.00171261
0.00169483
0.00167729
0.00165999
0.00164293
0.0016261
0.00160949
0.00159311
0.00157695
0.00156101
0.00154528
0.00152975
0.00151442
0.00149929
0.00148435
0.00146958
0.00145499
0.00144055
0.00142626
0.0014121
0.00139804
0.00138407
0.00137013
0.00135618
0.00134216
0.001328
0.00131353
0.0012988
0.00128375
0.00125951
2.93959e-06
0.000128667
0.000270495
0.00040698
0.00053758
0.000641158
0.000718463
0.000780058
0.000836123
0.000894373
0.000962822
0.00105545
0.00116563
0.00128715
0.00140266
0.00151386
0.0016216
0.00172605
0.00182716
0.00192487
0.00201921
0.00211026
0.00219816
0.00228312
0.00236534
0.00244505
0.00252248
0.00259783
0.0026713
0.00274306
0.00281325
0.00288198
0.00294935
0.00301541
0.00308022
0.00314379
0.00320612
0.0032672
0.00332699
0.00338546
0.00344255
0.00349822
0.0035524
0.00360503
0.00365604
0.00370538
0.00375297
0.00379875
0.00384266
0.00388464
0.00392464
0.0039626
0.00399848
0.00403223
0.00406382
0.00409322
0.00412039
0.00414532
0.00416799
0.00418839
0.00420652
0.00422237
0.00423595
0.00424728
0.00425636
0.00426323
0.00426796
0.00427041
0.00427084
0.0042692
0.00426553
0.00425988
0.00425232
0.00424289
0.00423165
0.00421868
0.00420403
0.00418777
0.00416998
0.00415071
0.00413004
0.00410805
0.0040848
0.00406037
0.00403483
0.00400825
0.00398071
0.00395227
0.003923
0.00389296
0.00386224
0.00383088
0.00379895
0.0037665
0.00373361
0.00370031
0.00366667
0.00363274
0.00359856
0.00356419
0.00352966
0.00349503
0.00346033
0.00342559
0.00339086
0.00335617
0.00332154
0.00328701
0.0032526
0.00321833
0.00318423
0.00315032
0.00311662
0.00308315
0.00304991
0.00301694
0.00298423
0.0029518
0.00291967
0.00288784
0.00285632
0.00282512
0.00279425
0.0027637
0.00273349
0.00270362
0.00267409
0.00264491
0.00261607
0.00258758
0.00255944
0.00253165
0.0025042
0.00247709
0.00245033
0.00242391
0.00239782
0.00237208
0.00234667
0.0023216
0.00229686
0.00227244
0.00224835
0.00222458
0.00220113
0.002178
0.00215517
0.00213264
0.00211042
0.0020885
0.00206687
0.00204552
0.00202446
0.00200368
0.00198318
0.00196294
0.00194297
0.00192326
0.00190381
0.00188461
0.00186566
0.00184695
0.00182848
0.00181023
0.00179221
0.0017744
0.00175679
0.00173938
0.00172214
0.00170506
0.00168811
0.00167127
0.0016545
0.00163775
0.00162094
0.00160402
0.00158682
0.00156943
0.00155149
0.00152535
2.7554e-06
0.00012516
0.000263801
0.000395333
0.000519865
0.000632141
0.00072608
0.000807573
0.000891509
0.000987447
0.00109728
0.0012224
0.00135889
0.00148631
0.00160651
0.00172144
0.00183205
0.0019387
0.00204172
0.00214147
0.00223816
0.002332
0.00242319
0.00251193
0.00259843
0.00268291
0.00276553
0.00284649
0.00292593
0.00300398
0.00308074
0.00315631
0.00323072
0.00330402
0.00337622
0.00344731
0.00351726
0.00358605
0.00365362
0.00371992
0.00378487
0.00384842
0.00391048
0.00397098
0.00402984
0.00408699
0.00414234
0.00419582
0.00424735
0.00429688
0.00434432
0.00438963
0.00443275
0.00447361
0.00451219
0.00454843
0.00458231
0.00461378
0.00464284
0.00466947
0.00469365
0.00471537
0.00473465
0.00475148
0.00476588
0.00477787
0.00478747
0.00479471
0.00479964
0.00480221
0.00480259
0.00480078
0.00479681
0.00479075
0.00478265
0.00477256
0.00476056
0.00474671
0.00473107
0.00471371
0.0046947
0.00467412
0.00465202
0.0046285
0.00460361
0.00457744
0.00455006
0.00452153
0.00449194
0.00446134
0.00442982
0.00439744
0.00436426
0.00433036
0.00429579
0.00426063
0.00422492
0.00418874
0.00415213
0.00411516
0.00407788
0.00404034
0.00400259
0.00396467
0.00392664
0.00388852
0.00385037
0.00381221
0.00377408
0.00373602
0.00369806
0.00366022
0.00362254
0.00358503
0.00354772
0.00351063
0.00347378
0.00343719
0.00340087
0.00336484
0.00332911
0.00329369
0.0032586
0.00322384
0.00318942
0.00315535
0.00312163
0.00308828
0.00305528
0.00302266
0.0029904
0.00295851
0.002927
0.00289585
0.00286507
0.00283467
0.00280463
0.00277497
0.00274567
0.00271673
0.00268816
0.00265995
0.0026321
0.0026046
0.00257746
0.00255066
0.00252421
0.00249809
0.00247231
0.00244687
0.00242175
0.00239695
0.00237248
0.00234831
0.00232446
0.00230091
0.00227766
0.00225471
0.00223204
0.00220967
0.00218757
0.00216575
0.0021442
0.0021229
0.00210187
0.00208108
0.00206052
0.00204018
0.00202005
0.00200011
0.00198033
0.00196068
0.00194112
0.0019216
0.00190205
0.0018824
0.00186252
0.00184246
0.00182172
0.00179339
2.33912e-06
0.000117868
0.000252634
0.000380647
0.000503524
0.000620028
0.000731022
0.000840512
0.000955922
0.0010823
0.00122079
0.00137085
0.00151306
0.00164494
0.0017691
0.00188743
0.00200104
0.00211059
0.00221644
0.00231881
0.0024181
0.00251469
0.00260888
0.00270094
0.00279108
0.00287951
0.00296641
0.00305194
0.00313624
0.00321941
0.00330153
0.00338267
0.00346285
0.00354209
0.00362039
0.00369771
0.00377402
0.00384926
0.00392337
0.00399627
0.00406789
0.00413813
0.00420692
0.00427415
0.00433974
0.0044036
0.00446564
0.00452577
0.00458391
0.00463998
0.0046939
0.00474561
0.00479504
0.00484214
0.00488684
0.0049291
0.00496888
0.00500616
0.00504089
0.00507306
0.00510265
0.00512966
0.00515408
0.00517591
0.00519517
0.00521188
0.00522604
0.0052377
0.00524687
0.00525359
0.00525791
0.00525985
0.00525951
0.0052569
0.00525208
0.00524511
0.00523606
0.00522498
0.00521194
0.00519701
0.00518025
0.00516173
0.00514152
0.00511971
0.00509635
0.00507152
0.0050453
0.00501775
0.00498896
0.00495899
0.0049279
0.00489578
0.00486269
0.0048287
0.00479387
0.00475827
0.00472197
0.00468502
0.00464749
0.00460944
0.00457092
0.004532
0.00449273
0.00445315
0.00441331
0.00437327
0.00433307
0.00429275
0.00425236
0.00421192
0.00417148
0.00413107
0.00409072
0.00405047
0.00401035
0.00397037
0.00393056
0.00389096
0.00385157
0.00381242
0.00377352
0.0037349
0.00369657
0.00365853
0.00362081
0.00358342
0.00354636
0.00350964
0.00347327
0.00343726
0.00340161
0.00336632
0.00333141
0.00329686
0.00326269
0.0032289
0.00319548
0.00316244
0.00312978
0.00309749
0.00306558
0.00303405
0.00300289
0.0029721
0.00294169
0.00291164
0.00288195
0.00285262
0.00282365
0.00279504
0.00276677
0.00273885
0.00271127
0.00268404
0.00265713
0.00263055
0.0026043
0.00257838
0.00255276
0.00252746
0.00250247
0.00247777
0.00245338
0.00242927
0.00240544
0.00238188
0.00235858
0.00233553
0.00231271
0.0022901
0.00226768
0.00224541
0.00222324
0.00220114
0.00217903
0.00215684
0.00213445
0.00211188
0.00208858
0.00205792
1.92448e-06
0.000110212
0.000242404
0.000369699
0.000495434
0.000619938
0.000745128
0.000874881
0.00101264
0.00116037
0.00131821
0.00147983
0.00162746
0.00176378
0.00189177
0.00201343
0.00213003
0.00224237
0.002351
0.00245631
0.0025586
0.00265806
0.00275513
0.00285017
0.00294347
0.00303526
0.00312573
0.00321506
0.00330337
0.00339077
0.00347732
0.00356307
0.00364805
0.00373225
0.00381565
0.00389821
0.00397988
0.00406058
0.00414025
0.00421878
0.00429609
0.00437207
0.00444664
0.00451967
0.00459108
0.00466075
0.00472859
0.0047945
0.00485839
0.00492017
0.00497976
0.00503707
0.00509205
0.00514461
0.00519471
0.00524228
0.0052873
0.0053297
0.00536948
0.00540659
0.00544103
0.00547277
0.00550182
0.00552818
0.00555186
0.00557286
0.00559121
0.00560693
0.00562005
0.00563061
0.00563864
0.00564418
0.00564729
0.00564801
0.00564641
0.00564253
0.00563644
0.0056282
0.00561786
0.00560549
0.00559117
0.00557496
0.00555693
0.00553715
0.00551569
0.00549264
0.00546805
0.005442
0.00541457
0.00538582
0.00535583
0.00532466
0.00529238
0.00525907
0.00522479
0.0051896
0.00515357
0.00511677
0.00507926
0.0050411
0.00500235
0.00496306
0.0049233
0.00488311
0.00484255
0.00480167
0.00476051
0.00471913
0.00467756
0.00463586
0.00459404
0.00455217
0.00451027
0.00446837
0.00442651
0.00438472
0.00434303
0.00430147
0.00426005
0.00421881
0.00417776
0.00413692
0.00409632
0.00405598
0.00401589
0.00397609
0.00393659
0.00389739
0.0038585
0.00381995
0.00378173
0.00374384
0.00370631
0.00366913
0.00363231
0.00359585
0.00355975
0.00352402
0.00348866
0.00345367
0.00341906
0.00338481
0.00335094
0.00331745
0.00328432
0.00325156
0.00321918
0.00318715
0.0031555
0.0031242
0.00309327
0.00306269
0.00303246
0.00300258
0.00297305
0.00294387
0.00291502
0.00288651
0.00285833
0.00283047
0.00280294
0.00277573
0.00274884
0.00272224
0.00269595
0.00266995
0.00264423
0.00261877
0.00259356
0.00256859
0.00254382
0.00251922
0.00249475
0.00247035
0.00244597
0.00242152
0.00239691
0.00237211
0.0023466
0.00231379
1.53457e-06
0.000102067
0.00023195
0.000358927
0.000487636
0.000619021
0.000755741
0.000899714
0.00105261
0.00121495
0.00138723
0.00155301
0.00170462
0.0018448
0.00197629
0.00210107
0.00222047
0.00233543
0.0024466
0.00255449
0.00265948
0.00276186
0.00286192
0.00295984
0.00305604
0.00315082
0.00324441
0.00333701
0.00342874
0.00351973
0.00361004
0.00369971
0.00378876
0.00387718
0.00396493
0.00405197
0.00413823
0.00422362
0.00430806
0.00439144
0.00447366
0.00455461
0.00463418
0.00471225
0.0047887
0.00486343
0.00493633
0.00500729
0.00507621
0.00514298
0.00520753
0.00526977
0.00532962
0.00538701
0.00544188
0.00549416
0.00554381
0.0055908
0.00563507
0.00567661
0.00571539
0.00575141
0.00578465
0.00581511
0.0058428
0.00586774
0.00588993
0.00590941
0.0059262
0.00594034
0.00595185
0.00596079
0.0059672
0.00597112
0.00597261
0.00597175
0.00596858
0.00596315
0.00595553
0.00594578
0.00593397
0.00592017
0.00590445
0.00588688
0.00586753
0.00584648
0.00582378
0.00579953
0.00577379
0.00574662
0.0057181
0.0056883
0.00565729
0.00562514
0.00559191
0.00555766
0.00552248
0.00548641
0.00544952
0.00541188
0.00537355
0.00533458
0.00529503
0.00525495
0.00521441
0.00517344
0.0051321
0.00509044
0.0050485
0.00500633
0.00496396
0.00492144
0.00487881
0.00483611