/*--------------------------------*- C++ -*----------------------------------*\
  =========                 |
  \\      /  F ield         | OpenFOAM: The Open Source CFD Toolbox
   \\    /   O peration     | Website:  https://openfoam.org
    \\  /    A nd           | Version:  8
     \\/     M anipulation  |
\*---------------------------------------------------------------------------*/
FoamFile
{
    version     2.0;
    format      ascii;
    class       volScalarField;
    location    "4900";
    object      p;
}
// * * * * * * * * * * * * * * * * * * * * * * * * * * * * * * * * * * * * * //

dimensions      [0 2 -2 0 0 0 0];

internalField   nonuniform List<scalar> 
12225
(
514.676
55.5282
2.36384
0.281725
-1.89875
-3.37429
-3.81153
-4.02194
-4.23168
-4.36858
-4.41573
-4.42534
-4.42834
-4.4563
-4.50968
-4.57612
-4.72149
-4.94403
-122.179
0.238929
-2.71838
-0.765071
-2.21644
-3.52488
-3.95261
-4.13671
-4.28039
-4.38438
-4.4593
-4.51762
-4.56855
-4.60093
-4.62186
-4.64739
-4.71401
-4.80801
-200.645
-16.1484
-2.3464
-0.358294
-1.90078
-3.24476
-3.77216
-4.0224
-4.19509
-4.31935
-4.41203
-4.47924
-4.52786
-4.55309
-4.56814
-4.58368
-4.61555
-4.59872
-110.616
-10.974
-2.17711
-0.432002
-1.78771
-3.02878
-3.60127
-3.90845
-4.11772
-4.26352
-4.36589
-4.43656
-4.48528
-4.51386
-4.53118
-4.539
-4.53796
-4.46926
-61.5728
-8.14583
-3.62256
-1.21
-2.01522
-2.99834
-3.52922
-3.84899
-4.0715
-4.22618
-4.33381
-4.40846
-4.45982
-4.49093
-4.50621
-4.50358
-4.47738
-4.38722
-45.7308
-8.78526
-5.25877
-2.20035
-2.42997
-3.10112
-3.53659
-3.83355
-4.04954
-4.20336
-4.31241
-4.38914
-4.44158
-4.4725
-4.48404
-4.47329
-4.4332
-4.33865
-35.7946
-9.27652
-6.38056
-3.12479
-2.92199
-3.29008
-3.60399
-3.85489
-4.0503
-4.19548
-4.30147
-4.37726
-4.42887
-4.4586
-4.46752
-4.45291
-4.40893
-4.32186
-27.7781
-8.9073
-6.97403
-3.80305
-3.36207
-3.49891
-3.70097
-3.90046
-4.06982
-4.20209
-4.30185
-4.3746
-4.42451
-4.45335
-4.46168
-4.44737
-4.40639
-4.33165
-21.6901
-8.52026
-7.13474
-4.31092
-3.72937
-3.70652
-3.81681
-3.96517
-4.10546
-4.22174
-4.3128
-4.38087
-4.42832
-4.45626
-4.46497
-4.453
-4.418
-4.357
-16.6129
-8.14094
-7.0884
-4.75581
-4.08368
-3.93489
-3.95976
-4.05322
-4.15958
-4.25579
-4.33525
-4.39686
-4.44109
-4.46827
-4.47845
-4.47097
-4.44503
-4.40055
-12.6392
-7.68114
-6.90642
-5.10212
-4.40731
-4.17087
-4.12247
-4.16203
-4.23222
-4.30559
-4.37118
-4.42491
-4.46541
-4.49222
-4.50521
-4.50437
-4.4901
-4.46393
-9.69929
-7.14906
-6.62953
-5.32696
-4.67917
-4.39768
-4.29501
-4.28729
-4.32246
-4.37213
-4.42265
-4.46768
-4.50433
-4.53139
-4.54856
-4.55616
-4.55526
-4.54797
-7.66635
-6.60501
-6.3063
-5.43194
-4.88362
-4.59783
-4.46422
-4.42106
-4.42635
-4.45413
-4.49012
-4.52672
-4.56003
-4.58822
-4.61073
-4.62794
-4.64101
-4.65192
-6.37127
-6.11336
-5.98604
-5.44068
-5.01627
-4.7581
-4.61667
-4.55301
-4.53701
-4.5476
-4.57167
-4.60152
-4.63277
-4.66321
-4.69197
-4.71921
-4.7458
-4.77316
-5.62302
-5.7227
-5.70935
-5.3912
-5.08628
-4.87337
-4.74216
-4.6726
-4.64561
-4.64582
-4.66246
-4.68857
-4.71984
-4.75387
-4.78951
-4.82655
-4.86536
-4.90669
-5.24372
-5.46052
-5.50845
-5.3279
-5.11537
-4.94831
-4.83603
-4.77104
-4.74236
-4.7395
-4.75418
-4.78046
-4.8144
-4.85354
-4.89652
-4.94272
-4.99201
-5.04457
-5.10249
-5.34462
-5.41729
-5.29929
-5.13526
-4.99614
-4.89849
-4.84059
-4.81548
-4.81529
-4.83313
-4.86373
-4.90332
-4.94937
-5.00028
-5.05506
-5.11324
-5.17457
-5.14022
-5.40042
-5.47452
-5.34837
-5.17455
-5.02881
-4.92854
-4.87133
-4.8494
-4.85425
-4.87844
-4.91628
-4.96366
-5.01774
-5.07666
-5.13918
-5.20456
-5.27238
-5.39251
-5.65487
-5.69056
-5.47542
-5.22619
-5.0358
-4.91468
-4.8516
-4.83255
-4.84483
-4.87848
-4.92633
-4.98348
-5.04669
-5.11386
-5.18365
-5.25527
-5.32829
-6.0019
-6.1367
-6.04245
-5.63493
-5.24692
-4.98714
-4.8406
-4.77565
-4.76614
-4.79251
-4.84108
-4.90295
-4.9725
-5.04634
-5.1224
-5.19948
-5.27695
-5.35457
-7.24952
-6.88933
-6.494
-5.76167
-5.18289
-4.85275
-4.69612
-4.64597
-4.65989
-4.71042
-4.78068
-4.86073
-4.94507
-5.03064
-5.1159
-5.20011
-5.283
-5.3647
-9.64103
-7.9644
-6.98242
-5.77169
-4.97935
-4.61193
-4.4817
-4.47346
-4.52832
-4.61366
-4.71145
-4.81263
-4.91279
-5.01011
-5.10404
-5.19463
-5.28212
-5.3671
-13.9822
-9.39089
-7.40299
-5.56935
-4.59456
-4.26399
-4.21483
-4.27946
-4.3916
-4.51909
-4.64724
-4.76982
-4.88497
-4.99256
-5.09359
-5.18907
-5.27989
-5.36705
-20.8898
-10.9538
-7.55402
-5.05707
-4.01568
-3.83565
-3.92976
-4.09389
-4.27198
-4.44283
-4.59943
-4.74077
-4.86799
-4.98304
-5.08862
-5.18701
-5.27947
-5.36745
-29.7364
-11.9492
-7.03336
-4.12596
-3.26388
-3.37779
-3.67086
-3.94661
-4.1889
-4.39691
-4.57553
-4.72993
-4.86464
-4.98354
-5.09088
-5.19012
-5.28244
-5.3698
-43.1063
-12.6138
-5.47265
-2.7288
-2.4131
-2.96328
-3.48409
-3.86219
-4.1534
-4.38567
-4.57741
-4.73761
-4.87438
-4.99247
-5.09885
-5.19733
-5.28828
-5.37434
-84.5993
-17.3733
-3.66395
-1.2653
-1.69587
-2.72168
-3.43603
-3.86976
-4.17325
-4.41031
-4.60622
-4.76759
-4.89961
-5.00949
-5.11136
-5.20652
-5.29224
-5.3768
-177.886
-26.8495
-3.68002
-0.770079
-1.53496
-2.84292
-3.61394
-4.01508
-4.27087
-4.46683
-4.65056
-4.81538
-4.95252
-5.05267
-5.14164
-5.22873
-5.30268
-5.37963
-154.79
-9.62714
-3.27226
-1.06816
-1.84297
-3.22074
-3.91355
-4.22485
-4.41729
-4.55874
-4.70171
-4.85355
-5.00548
-5.12048
-5.21543
-5.30413
-5.36901
-5.44068
428.057
66.6056
7.05609
1.59955
-0.915472
-2.85679
-3.65282
-3.99452
-4.31009
-4.57671
-4.70714
-4.75479
-4.80012
-4.90057
-5.01471
-5.11913
-5.24126
-5.3406
-8.52542
-8.51259
-8.50195
-8.54333
-8.63637
-8.74007
-8.82
-8.86001
-8.86366
-8.846
-8.81858
-8.79001
-8.76834
-8.75954
-8.76455
-8.77718
-8.7884
-8.79353
-8.79276
-8.79069
-8.79519
-8.8279
-8.91814
-9.0895
-9.34253
-9.66031
-10.0315
-10.4453
-10.8863
-11.3383
-11.7863
-12.2183
-12.625
-12.9998
-13.3385
-13.6384
-13.8988
-14.1195
-14.3012
-14.4451
-14.5522
-14.6241
-14.662
-14.6673
-14.6413
-14.5854
-14.5012
-14.391
-14.2561
-14.0942
-13.9028
-13.6831
-13.4379
-13.1689
-12.8773
-12.5643
-12.2308
-11.8779
-11.5066
-11.1179
-10.713
-10.2929
-9.85884
-9.4119
-8.95329
-8.48419
-8.0058
-7.51932
-7.02594
-6.52685
-6.02321
-5.51617
-5.00683
-4.49628
-3.98555
-3.47566
-2.96756
-2.46216
-1.96032
-1.46285
-0.970501
-0.48398
-0.00392965
0.46906
0.934448
1.39175
1.84053
2.28043
2.71113
3.13239
3.54399
3.94575
4.33749
4.7192
5.09111
5.45325
5.80513
6.14638
6.47698
6.79716
7.10716
7.40719
7.69743
7.97807
8.24928
8.51128
8.76427
9.00846
9.24409
9.47135
9.69046
9.90168
10.1053
10.3014
10.4904
10.6725
10.8479
11.0169
11.1796
11.3364
11.4874
11.6329
11.773
11.9081
12.0382
12.1637
12.2846
12.4012
12.5136
12.622
12.7266
12.8278
12.9257
13.0204
13.1118
13.2001
13.2855
13.3679
13.4477
13.5249
13.5995
13.6719
13.7419
13.8098
13.8756
13.9393
14.0012
14.0611
14.1193
14.1757
14.2304
14.2835
14.3351
14.385
14.4335
14.4805
14.5261
14.5703
14.6131
14.6545
14.6945
14.7333
14.7707
14.8068
14.8417
14.8753
14.9077
14.9389
14.9691
14.9983
15.0266
15.0543
15.0818
15.1094
15.1381
15.1689
15.2043
15.2459
15.3039
15.3643
-8.58287
-8.61413
-8.68809
-8.78169
-8.88516
-8.97737
-9.03862
-9.063
-9.04595
-8.98549
-8.89573
-8.79891
-8.71729
-8.66601
-8.64395
-8.64075
-8.65031
-8.67576
-8.71104
-8.73128
-8.75562
-8.8336
-8.99336
-9.23294
-9.53983
-9.91082
-10.3366
-10.7967
-11.2696
-11.7374
-12.1876
-12.6107
-13.0005
-13.353
-13.6665
-13.9407
-14.1761
-14.3737
-14.5345
-14.6598
-14.7507
-14.8084
-14.8338
-14.8279
-14.7914
-14.725
-14.6292
-14.5038
-14.3496
-14.1696
-13.9675
-13.7436
-13.4969
-13.2276
-12.9364
-12.624
-12.2912
-11.9391
-11.5686
-11.1807
-10.7765
-10.357
-9.92353
-9.47712
-9.01896
-8.55022
-8.07211
-7.58583
-7.09257
-6.59352
-6.08983
-5.58266
-5.07311
-4.56226
-4.05117
-3.54083
-3.0322
-2.5262
-2.02368
-1.52547
-1.03232
-0.544943
-0.0639843
0.409954
0.876331
1.33466
1.7845
2.22546
2.65717
3.07933
3.49169
3.89402
4.28608
4.66776
5.03915
5.40046
5.75189
6.09347
6.42505
6.74651
7.05791
7.35935
7.651
7.93303
8.20562
8.46897
8.72327
8.96874
9.20562
9.43415
9.65453
9.86701
10.0718
10.2692
10.4594
10.6426
10.8191
10.9892
11.153
11.3108
11.4628
11.6093
11.7504
11.8865
12.0177
12.1442
12.2662
12.3838
12.4974
12.6069
12.7126
12.8145
12.9125
13.0073
13.0988
13.1874
13.2729
13.3556
13.4357
13.5132
13.5882
13.6608
13.7311
13.7993
13.8654
13.9295
13.9916
14.0518
14.1103
14.167
14.222
14.2753
14.3271
14.3773
14.426
14.4732
14.519
14.5634
14.6064
14.648
14.6882
14.7271
14.7647
14.801
14.836
14.8698
14.9023
14.9337
14.964
14.9933
15.0217
15.0496
15.0771
15.1049
15.1336
15.1643
15.1991
15.2387
15.2923
15.3422
-8.7099
-8.79173
-8.9097
-9.01552
-9.09842
-9.15226
-9.17288
-9.15907
-9.10949
-9.0264
-8.91886
-8.80348
-8.70372
-8.63918
-8.61044
-8.60561
-8.62462
-8.68135
-8.78496
-8.93201
-9.12236
-9.36312
-9.65716
-9.9963
-10.3684
-10.7641
-11.1735
-11.5848
-11.9874
-12.374
-12.7399
-13.0814
-13.3958
-13.6814
-13.9372
-14.1626
-14.3576
-14.5221
-14.6564
-14.7608
-14.8357
-14.8814
-14.8985
-14.8873
-14.8482
-14.7818
-14.6883
-14.5677
-14.4201
-14.2464
-14.0481
-13.8261
-13.581
-13.3134
-13.0239
-12.7133
-12.3824
-12.0321
-11.6634
-11.2771
-10.8745
-10.4565
-10.0243
-9.57909
-9.12197
-8.65412
-8.17676
-7.69108
-7.19828
-6.69954
-6.19602
-5.68888
-5.17923
-4.66816
-4.15671
-3.6459
-3.13669
-2.63
-2.1267
-1.62761
-1.1335
-0.645076
-0.163001
0.312125
0.779755
1.2394
1.69061
2.13301
2.56623
2.99001
3.4041
3.80831
4.20248
4.58652
4.96041
5.32415
5.67778
6.02131
6.35471
6.67797
6.99117
7.29443
7.58788
7.8717
8.14606
8.41115
8.66717
8.91435
9.15289
9.38304
9.60501
9.81904
10.0254
10.2242
10.4158
10.6005
10.7784
10.9498
11.1149
11.274
11.4273
11.575
11.7173
11.8544
11.9865
12.1139
12.2366
12.355
12.4692
12.5794
12.6857
12.7883
12.8873
12.9831
13.0757
13.1652
13.2517
13.3353
13.4161
13.4944
13.5701
13.6434
13.7145
13.7833
13.8499
13.9146
13.9772
14.038
14.0969
14.1541
14.2095
14.2633
14.3155
14.3661
14.4151
14.4627
14.5088
14.5535
14.5968
14.6387
14.6792
14.7184
14.7562
14.7928
14.828
14.862
14.8947
14.9262
14.9567
14.9861
15.0147
15.0426
15.0701
15.0978
15.1263
15.1564
15.1899
15.2265
15.2739
15.3075
-8.7493
-8.84675
-8.94802
-9.03454
-9.09898
-9.13868
-9.15114
-9.13373
-9.08647
-9.01436
-8.92863
-8.84608
-8.78488
-8.7579
-8.77003
-8.82333
-8.92173
-9.06884
-9.26529
-9.50606
-9.78233
-10.0869
-10.4138
-10.7566
-11.11
-11.4688
-11.8276
-12.1812
-12.5251
-12.8551
-13.1681
-13.4611
-13.7322
-13.9797
-14.2023
-14.3991
-14.5695
-14.7131
-14.8297
-14.9192
-14.9817
-15.0173
-15.0259
-15.0079
-14.9632
-14.8921
-14.795
-14.6721
-14.5239
-14.351
-14.1541
-13.9337
-13.6902
-13.4242
-13.1364
-12.8275
-12.4982
-12.1495
-11.7823
-11.3975
-10.9961
-10.5793
-10.1482
-9.70381
-9.24738
-8.78008
-8.30312
-7.81767
-7.32494
-6.82611
-6.32236
-5.81482
-5.30463
-4.79288
-4.28062
-3.76887
-3.2586
-2.75073
-2.24614
-1.74567
-1.25007
-0.760071
-0.276339
0.20052
0.669952
1.13146
1.58459
2.02895
2.4642
2.89005
3.30625
3.71262
4.10901
4.49534
4.87155
5.23762
5.59351
5.9392
6.27471
6.60006
6.91534
7.22066
7.51616
7.80201
8.07837
8.34544
8.60342
8.85251
9.09293
9.32492
9.54868
9.76446
9.9725
10.173
10.3663
10.5526
10.7321
10.905
11.0716
11.2321
11.3867
11.5357
11.6793
11.8176
11.9509
12.0795
12.2034
12.3229
12.4382
12.5494
12.6567
12.7603
12.8605
12.9573
13.0508
13.1412
13.2286
13.3131
13.3948
13.4738
13.5503
13.6243
13.696
13.7655
13.8328
13.898
13.9612
14.0226
14.082
14.1397
14.1956
14.2499
14.3025
14.3535
14.403
14.451
14.4975
14.5425
14.5861
14.6283
14.6692
14.7086
14.7467
14.7835
14.819
14.8532
14.8861
14.9178
14.9484
14.9779
15.0065
15.0344
15.0618
15.0891
15.117
15.1459
15.1772
15.2097
15.2491
15.2677
-8.53742
-8.62233
-8.72243
-8.81953
-8.89689
-8.94962
-8.9767
-8.97898
-8.96091
-8.93079
-8.90071
-8.88465
-8.8954
-8.94253
-9.03223
-9.16765
-9.34887
-9.57133
-9.8266
-10.1066
-10.4059
-10.7202
-11.0452
-11.376
-11.708
-12.0377
-12.3616
-12.6766
-12.98
-13.2693
-13.5425
-13.7979
-14.0342
-14.25
-14.4444
-14.6165
-14.7656
-14.8911
-14.9927
-15.0698
-15.1223
-15.1499
-15.1525
-15.1299
-15.0822
-15.0093
-14.9113
-14.7883
-14.6407
-14.4689
-14.2732
-14.0541
-13.812
-13.5475
-13.2612
-12.9538
-12.626
-12.2787
-11.9127
-11.5291
-11.1289
-10.7131
-10.2827
-9.83904
-9.38315
-8.91626
-8.43955
-7.9542
-7.46142
-6.9624
-6.4583
-5.95028
-5.43947
-4.92696
-4.41382
-3.90106
-3.38966
-2.88056
-2.37463
-1.87271
-1.37557
-0.883942
-0.398496
0.0801571
0.551457
1.0149
1.47003
1.91645
2.35382
2.78184
3.20026
3.60889
4.00758
4.39621
4.77472
5.14307
5.50122
5.84916
6.18689
6.51447
6.83197
7.13951
7.43721
7.72524
8.00376
8.27295
8.53303
8.78419
9.02666
9.26067
9.48641
9.70414
9.91408
10.1165
10.3115
10.4996
10.6807
10.8553
11.0235
11.1856
11.3418
11.4923
11.6374
11.7771
11.9119
12.0418
12.1671
12.2879
12.4044
12.5168
12.6253
12.7301
12.8313
12.9291
13.0236
13.115
13.2032
13.2886
13.3711
13.451
13.5283
13.6031
13.6755
13.7457
13.8137
13.8796
13.9435
14.0054
14.0655
14.1237
14.1802
14.2349
14.2881
14.3396
14.3895
14.4379
14.4848
14.5303
14.5743
14.6169
14.658
14.6978
14.7363
14.7733
14.809
14.8435
14.8766
14.9085
14.9391
14.9687
14.9973
15.025
15.0521
15.0789
15.1058
15.1331
15.1617
15.1895
15.2211
15.2272
-8.11745
-8.20585
-8.32679
-8.44948
-8.55472
-8.63514
-8.69345
-8.73554
-8.76902
-8.80368
-8.85049
-8.91974
-9.01946
-9.15446
-9.32696
-9.53595
-9.77678
-10.0438
-10.3318
-10.635
-10.948
-11.2659
-11.5849
-11.9014
-12.2127
-12.5166
-12.8113
-13.095
-13.3665
-13.6242
-13.8671
-14.094
-14.3039
-14.4958
-14.6687
-14.8218
-14.9544
-15.0658
-15.1553
-15.2225
-15.2668
-15.2878
-15.2852
-15.2587
-15.2082
-15.1335
-15.0345
-14.9113
-14.764
-14.5928
-14.3981
-14.1801
-13.9393
-13.6761
-13.3912
-13.0852
-12.7589
-12.4129
-12.0483
-11.666
-11.2669
-10.852
-10.4226
-9.97964
-9.52435
-9.05791
-8.5815
-8.0963
-7.60352
-7.10434
-6.59994
-6.09147
-5.58007
-5.06683
-4.55283
-4.03909
-3.52658
-3.01626
-2.50901
-2.00565
-1.50699
-1.01374
-0.526592
-0.0461521
0.427011
0.892387
1.34952
1.79801
2.2375
2.66769
3.08834
3.49923
3.90021
4.29115
4.67197
5.04262
5.40306
5.75329
6.0933
6.42316
6.74295
7.05276
7.35272
7.643
7.92376
8.19519
8.45746
8.71079
8.95538
9.19147
9.41927
9.63901
9.85093
10.0553
10.2523
10.4421
10.6252
10.8015
10.9715
11.1353
11.2932
11.4453
11.5919
11.7333
11.8695
12.0009
12.1275
12.2497
12.3676
12.4813
12.591
12.697
12.7994
12.8983
12.9939
13.0862
13.1755
13.2619
13.3453
13.4261
13.5043
13.5799
13.6532
13.7242
13.7929
13.8595
13.9241
13.9867
14.0474
14.1063
14.1634
14.2187
14.2724
14.3244
14.3749
14.4238
14.4712
14.5171
14.5615
14.6045
14.646
14.6862
14.7249
14.7623
14.7983
14.833
14.8663
14.8983
14.9291
14.9587
14.9872
15.0147
15.0413
15.0674
15.0931
15.1184
15.1439
15.1669
15.1912
15.1866
-7.65243
-7.75112
-7.89317
-8.04197
-8.17991
-8.29855
-8.40145
-8.49795
-8.59745
-8.70887
-8.83983
-8.99523
-9.1778
-9.38799
-9.62411
-9.88403
-10.1648
-10.4617
-10.7695
-11.0832
-11.3984
-11.7117
-12.0203
-12.3222
-12.6158
-12.8997
-13.1731
-13.4349
-13.6844
-13.9205
-14.1425
-14.3496
-14.541
-14.7157
-14.873
-15.012
-15.1321
-15.2325
-15.3125
-15.3714
-15.4088
-15.4241
-15.4169
-15.3867
-15.3333
-15.2565
-15.1561
-15.032
-14.8844
-14.7133
-14.5188
-14.3014
-14.0613
-13.7991
-13.5152
-13.2104
-12.8852
-12.5404
-12.177
-11.7958
-11.3979
-10.9842
-10.5557
-10.1137
-9.65929
-9.19359
-8.71779
-8.2331
-7.74071
-7.24178
-6.7375
-6.22902
-5.71748
-5.20396
-4.68955
-4.17526
-3.66208
-3.15096
-2.64277
-2.13838
-1.63855
-1.14403
-0.6555
-0.173577
0.301166
0.768213
1.2271
1.67743
2.11883
2.55101
2.97369
3.38668
3.78979
4.18291
4.56592
4.93878
5.30143
5.65387
5.99612
6.32822
6.65026
6.96232
7.26454
7.55707
7.84005
8.11369
8.37815
8.63366
8.8804
9.11862
9.34852
9.57033
9.78429
9.99064
10.1896
10.3814
10.5663
10.7446
10.9164
11.082
11.2415
11.3954
11.5436
11.6866
11.8244
11.9573
12.0854
12.209
12.3283
12.4434
12.5545
12.6617
12.7653
12.8654
12.9621
13.0556
13.146
13.2333
13.3178
13.3996
13.4787
13.5553
13.6294
13.7012
13.7708
13.8382
13.9035
13.9668
14.0282
14.0878
14.1455
14.2015
14.2558
14.3084
14.3594
14.4088
14.4567
14.5031
14.548
14.5914
14.6334
14.6739
14.713
14.7508
14.7871
14.822
14.8555
14.8877
14.9185
14.9481
14.9764
15.0036
15.0297
15.0548
15.0791
15.1022
15.1244
15.1425
15.1603
15.1464
-7.29679
-7.39026
-7.54231
-7.70803
-7.87487
-8.03584
-8.19045
-8.34657
-8.51244
-8.69387
-8.8949
-9.11676
-9.358
-9.61777
-9.89548
-10.1888
-10.4941
-10.8068
-11.1228
-11.4386
-11.7511
-12.058
-12.3577
-12.6486
-12.9298
-13.2004
-13.4597
-13.7071
-13.942
-14.1638
-14.3719
-14.5655
-14.744
-14.9068
-15.053
-15.1819
-15.2927
-15.3848
-15.4575
-15.5101
-15.5419
-15.5524
-15.5411
-15.5076
-15.4515
-15.3724
-15.2703
-15.1449
-14.9963
-14.8245
-14.6296
-14.412
-14.172
-13.9099
-13.6263
-13.3219
-12.9972
-12.653
-12.2903
-11.9098
-11.5126
-11.0997
-10.6721
-10.2309
-9.7773
-9.31239
-8.83736
-8.35339
-7.86167
-7.36337
-6.85965
-6.35165
-5.84051
-5.3273
-4.8131
-4.29892
-3.78575
-3.27452
-2.76612
-2.26138
-1.7611
-1.266
-0.776772
-0.294037
0.181633
0.649721
1.10976
1.56134
2.0041
2.43772
2.86195
3.27655
3.68135
4.0762
4.46101
4.8357
5.20023
5.5546
5.8988
6.23289
6.55695
6.87105
7.17534
7.46994
7.75501
8.03074
8.29729
8.55488
8.80371
9.04398
9.27593
9.49977
9.71575
9.92407
10.125
10.3187
10.5056
10.6857
10.8593
11.0266
11.188
11.3435
11.4935
11.6381
11.7775
11.9119
12.0416
12.1667
12.2874
12.4039
12.5163
12.6249
12.7298
12.8311
12.929
13.0236
13.1151
13.2036
13.2891
13.3719
13.452
13.5295
13.6046
13.6773
13.7477
13.8159
13.882
13.9461
14.0083
14.0685
14.1269
14.1836
14.2385
14.2917
14.3433
14.3933
14.4417
14.4886
14.534
14.5779
14.6203
14.6613
14.7008
14.7388
14.7755
14.8106
14.8444
14.8767
14.9076
14.9371
14.9652
14.992
15.0174
15.0415
15.0642
15.085
15.1038
15.1172
15.1289
15.107
-7.10648
-7.19258
-7.3467
-7.51907
-7.70247
-7.89477
-8.09257
-8.29784
-8.51515
-8.74693
-8.99348
-9.25477
-9.53072
-9.82096
-10.1236
-10.4353
-10.7526
-11.072
-11.3905
-11.7055
-12.0148
-12.3168
-12.6101
-12.8938
-13.1669
-13.429
-13.6794
-13.9177
-14.1434
-14.3561
-14.5552
-14.7402
-14.9104
-15.0653
-15.204
-15.326
-15.4304
-15.5167
-15.5841
-15.6318
-15.6594
-15.6661
-15.6515
-15.615
-15.5564
-15.4751
-15.3711
-15.2442
-15.0942
-14.9213
-14.7256
-14.5072
-14.2666
-14.0041
-13.7203
-13.4156
-13.0909
-12.7468
-12.3843
-12.0041
-11.6072
-11.1947
-10.7676
-10.3269
-9.87394
-9.40968
-8.93535
-8.45211
-7.96113
-7.46357
-6.9606
-6.45335
-5.94292
-5.4304
-4.91685
-4.40327
-3.89063
-3.37987
-2.87186
-2.36743
-1.86736
-1.37238
-0.883164
-0.400337
0.0755319
0.543926
1.00438
1.45648
1.89986
2.33422
2.75927
3.17479
3.58061
3.97658
4.36258
4.73855
5.10443
5.4602
5.80588
6.14151
6.46715
6.78291
7.08888
7.38522
7.67206
7.94957
8.21794
8.47736
8.72803
8.97016
9.20396
9.42966
9.64748
9.85765
10.0604
10.256
10.4446
10.6264
10.8018
10.9709
11.134
11.2912
11.4428
11.5889
11.7299
11.8659
11.9971
12.1237
12.2458
12.3637
12.4775
12.5874
12.6935
12.7961
12.8952
12.991
13.0836
13.1732
13.2598
13.3436
13.4247
13.5032
13.5792
13.6528
13.7241
13.7932
13.8601
13.925
13.9879
14.0489
14.108
14.1653
14.2209
14.2748
14.327
14.3775
14.4265
14.474
14.5199
14.5642
14.6071
14.6485
14.6884
14.7268
14.7637
14.7992
14.8332
14.8656
14.8965
14.926
14.9538
14.9801
15.0048
15.0277
15.0487
15.0671
15.0826
15.0915
15.0977
15.0687
-7.07861
-7.16544
-7.31314
-7.48193
-7.66867
-7.87324
-8.09247
-8.32438
-8.56921
-8.82756
-9.09894
-9.3825
-9.67799
-9.98426
-10.2986
-10.618
-10.9396
-11.2607
-11.5789
-11.8921
-12.1985
-12.4969
-12.786
-13.0652
-13.3336
-13.5908
-13.8362
-14.0695
-14.2902
-14.4978
-14.6919
-14.872
-15.0374
-15.1875
-15.3218
-15.4395
-15.5399
-15.6223
-15.6861
-15.7305
-15.7549
-15.7588
-15.7415
-15.7027
-15.6418
-15.5585
-15.4527
-15.3241
-15.1727
-14.9985
-14.8016
-14.5822
-14.3407
-14.0775
-13.793
-13.4879
-13.1628
-12.8185
-12.4558
-12.0757
-11.679
-11.2667
-10.84
-10.3998
-9.94739
-9.48381
-9.01023
-8.52781
-8.03771
-7.54109
-7.03909
-6.53284
-6.02343
-5.51193
-4.99939
-4.48681
-3.97514
-3.46531
-2.95818
-2.45457
-1.95526
-1.46097
-0.972367
-0.490063
-0.0146227
0.453443
0.913675
1.36566
1.80904
2.2435
2.66877
3.08462
3.49085
3.88733
4.27394
4.6506
5.01726
5.3739
5.72054
6.0572
6.38395
6.70088
7.0081
7.30574
7.59394
7.87287
8.14269
8.40361
8.6558
8.89947
9.13485
9.36214
9.58156
9.79334
9.9977
10.1949
10.3851
10.5686
10.7455
10.9162
11.0808
11.2396
11.3927
11.5404
11.6829
11.8204
11.953
12.0809
12.2044
12.3237
12.4388
12.55
12.6574
12.7612
12.8615
12.9584
13.0521
13.1428
13.2305
13.3153
13.3974
13.4768
13.5538
13.6283
13.7005
13.7704
13.8382
13.9038
13.9675
14.0292
14.0891
14.1471
14.2033
14.2578
14.3106
14.3618
14.4114
14.4593
14.5058
14.5506
14.594
14.6358
14.6761
14.7149
14.7522
14.7879
14.822
14.8546
14.8856
14.9148
14.9424
14.9682
14.992
15.0137
15.033
15.049
15.0612
15.0659
15.0672
15.0321
-7.18953
-7.2679
-7.39884
-7.55473
-7.73338
-7.93448
-8.15532
-8.39333
-8.64685
-8.91457
-9.19481
-9.48646
-9.78857
-10.0992
-10.4158
-10.7359
-11.057
-11.3766
-11.6928
-12.0038
-12.3079
-12.6039
-12.8908
-13.1677
-13.4341
-13.6893
-13.9328
-14.1642
-14.383
-14.5887
-14.7809
-14.9589
-15.1223
-15.2703
-15.4024
-15.518
-15.6162
-15.6964
-15.758
-15.8003
-15.8226
-15.8244
-15.8052
-15.7644
-15.7016
-15.6166
-15.5091
-15.3789
-15.226
-15.0504
-14.8523
-14.6318
-14.3894
-14.1253
-13.8401
-13.5345
-13.209
-12.8645
-12.5017
-12.1217
-11.7252
-11.3133
-10.8871
-10.4476
-9.99597
-9.5333
-9.06076
-8.57948
-8.09061
-7.5953
-7.09467
-6.58984
-6.0819
-5.57191
-5.06089
-4.54982
-4.03966
-3.53129
-3.02559
-2.52337
-2.02537
-1.53232
-1.04486
-0.563625
-0.0891546
0.37804
0.837502
1.28882
1.73165
2.16566
2.59059
3.0062
3.41232
3.80879
4.19549
4.57234
4.9393
5.29633
5.64345
5.9807
6.30813
6.62582
6.93388
7.23243
7.52162
7.8016
8.07253
8.3346
8.588
8.83293
9.0696
9.29821
9.51898
9.73213
9.93789
10.1365
10.3281
10.513
10.6914
10.8635
11.0295
11.1897
11.3442
11.4933
11.6372
11.776
11.9099
12.0392
12.164
12.2845
12.4009
12.5133
12.6219
12.7268
12.8283
12.9263
13.0211
13.1128
13.2015
13.2874
13.3704
13.4508
13.5287
13.6041
13.6771
13.7479
13.8165
13.8829
13.9474
14.0098
14.0704
14.1291
14.186
14.2411
14.2945
14.3463
14.3965
14.445
14.4919
14.5373
14.5811
14.6234
14.6641
14.7033
14.7409
14.7769
14.8112
14.8439
14.8749
14.904
14.9313
14.9565
14.9795
14.9999
15.0174
15.031
15.0401
15.0408
15.0376
14.9973
-7.36605
-7.43062
-7.54153
-7.67997
-7.8438
-8.03254
-8.24385
-8.47506
-8.7237
-8.98745
-9.26409
-9.55243
-9.85126
-10.1584
-10.4713
-10.7877
-11.1053
-11.4218
-11.7352
-12.044
-12.3465
-12.6415
-12.9278
-13.2047
-13.4712
-13.7268
-13.9709
-14.2029
-14.4222
-14.6285
-14.821
-14.9993
-15.1627
-15.3106
-15.4423
-15.5573
-15.6547
-15.7341
-15.7946
-15.8357
-15.8567
-15.8571
-15.8363
-15.794
-15.7298
-15.6433
-15.5343
-15.4027
-15.2485
-15.0716
-14.8724
-14.6509
-14.4076
-14.1428
-13.8571
-13.5511
-13.2255
-12.881
-12.5184
-12.1388
-11.7429
-11.3318
-10.9065
-10.4682
-10.0179
-9.55664
-9.08568
-8.60611
-8.11906
-7.62566
-7.12702
-6.62424
-6.11839
-5.61051
-5.10161
-4.59267
-4.08463
-3.57835
-3.0747
-2.57446
-2.07839
-1.58718
-1.1015
-0.621926
-0.149024
0.316712
0.774829
1.22492
1.66664
2.09967
2.52373
2.93861
3.34411
3.74008
4.12641
4.50301
4.86982
5.22683
5.57404
5.91147
6.2392
6.55728
6.86583
7.16496
7.45481
7.73552
8.00727
8.27022
8.52456
8.77048
9.00819
9.23789
9.45979
9.6741
9.88105
10.0808
10.2737
10.4599
10.6395
10.8129
10.9802
11.1417
11.2975
11.4479
11.593
11.733
11.8682
11.9987
12.1248
12.2465
12.364
12.4776
12.5873
12.6934
12.7959
12.895
12.9908
13.0835
13.1732
13.26
13.344
13.4253
13.5041
13.5804
13.6543
13.7258
13.7952
13.8625
13.9276
13.9908
14.0521
14.1115
14.169
14.2248
14.2789
14.3312
14.382
14.4311
14.4785
14.5244
14.5687
14.6115
14.6526
14.6921
14.73
14.7663
14.8009
14.8336
14.8646
14.8936
14.9205
14.9451
14.9672
14.9864
15.0022
15.0135
15.0196
15.0167
15.0094
14.9646
-7.53996
-7.59145
-7.68402
-7.80461
-7.95124
-8.12338
-8.31897
-8.53563
-8.77091
-9.02224
-9.28761
-9.56588
-9.85568
-10.1548
-10.4607
-10.7712
-11.0839
-11.3966
-11.7075
-12.0147
-12.3166
-12.6119
-12.8993
-13.1778
-13.4464
-13.7044
-13.9511
-14.1856
-14.4075
-14.6162
-14.8109
-14.991
-15.156
-15.3052
-15.4379
-15.5534
-15.6512
-15.7305
-15.7907
-15.8312
-15.8515
-15.851
-15.8293
-15.7858
-15.7204
-15.6327
-15.5225
-15.3898
-15.2345
-15.0567
-14.8566
-14.6345
-14.3906
-14.1255
-13.8397
-13.5339
-13.2086
-12.8646
-12.5028
-12.1242
-11.7295
-11.3198
-10.8962
-10.4597
-10.0114
-9.55231
-9.08367
-8.60656
-8.12209
-7.63136
-7.13549
-6.63554
-6.13256
-5.62758
-5.12159
-4.61555
-4.11038
-3.60694
-3.10608
-2.60855
-2.11511
-1.62644
-1.14319
-0.665937
-0.195235
0.268426
0.724603
1.17289
1.61295
2.04445
2.46714
2.88077
3.28518
3.68019
4.0657
4.44162
4.80788
5.16447
5.51139
5.84865
6.17633
6.49448
6.8032
7.10261
7.39283
7.67401
7.94631
8.20989
8.46493
8.71163
8.95017
9.18075
9.40359
9.61889
9.82686
10.0277
10.2217
10.4089
10.5897
10.7643
10.9327
11.0954
11.2523
11.4039
11.5502
11.6914
11.8278
11.9595
12.0866
12.2095
12.3281
12.4428
12.5536
12.6607
12.7643
12.8644
12.9613
13.055
13.1456
13.2333
13.3182
13.4005
13.4801
13.5572
13.6319
13.7043
13.7745
13.8425
13.9084
13.9723
14.0343
14.0943
14.1525
14.209
14.2637
14.3166
14.3679
14.4176
14.4656
14.512
14.5568
14.6
14.6416
14.6815
14.7197
14.7563
14.791
14.8239
14.8549
14.8837
14.9103
14.9344
14.9556
14.9735
14.9876
14.9967
15
14.9938
14.9828
14.9343
-7.66677
-7.70894
-7.78613
-7.89008
-8.01932
-8.17338
-8.35054
-8.54882
-8.76622
-9.00054
-9.25038
-9.51504
-9.79306
-10.0822
-10.3799
-10.6839
-10.9917
-11.3012
-11.6103
-11.9171
-12.2198
-12.5168
-12.8069
-13.0887
-13.3612
-13.6233
-13.8741
-14.1129
-14.3388
-14.5511
-14.7492
-14.9324
-15.1
-15.2513
-15.3857
-15.5026
-15.6012
-15.6811
-15.7415
-15.7819
-15.8018
-15.8007
-15.7782
-15.734
-15.6677
-15.5791
-15.4681
-15.3346
-15.1786
-15.0003
-14.7999
-14.5776
-14.3338
-14.069
-13.7838
-13.4787
-13.1544
-12.8118
-12.4517
-12.0748
-11.6823
-11.2749
-10.8539
-10.4201
-9.97478
-9.51888
-9.05355
-8.57987
-8.09896
-7.61189
-7.11974
-6.62357
-6.1244
-5.62325
-5.12108
-4.61882
-4.11737
-3.61761
-3.12034
-2.62633
-2.13629
-1.6509
-1.17079
-0.696557
-0.228722
0.232225
0.685845
1.13174
1.56956
1.999
2.41978
2.83169
3.23452
3.62812
4.01238
4.3872
4.75253
5.10833
5.4546
5.79137
6.11868
6.43659
6.7452
7.04462
7.33496
7.61636
7.88898
8.15298
8.40852
8.65579
8.89498
9.12628
9.3499
9.56603
9.77488
9.97666
10.1716
10.3598
10.5417
10.7172
10.8868
11.0505
11.2086
11.3612
11.5086
11.6509
11.7884
11.9212
12.0494
12.1734
12.2931
12.4088
12.5207
12.6288
12.7334
12.8345
12.9323
13.027
13.1186
13.2072
13.293
13.3761
13.4566
13.5346
13.6101
13.6833
13.7542
13.823
13.8896
13.9542
14.0169
14.0776
14.1365
14.1936
14.2489
14.3025
14.3544
14.4046
14.4532
14.5001
14.5454
14.589
14.631
14.6714
14.71
14.7468
14.7818
14.8148
14.8458
14.8745
14.9007
14.9242
14.9446
14.9614
14.9738
14.9809
14.9816
14.9724
14.9581
14.9064
-7.72223
-7.76048
-7.82607
-7.91506
-8.02728
-8.16267
-8.32021
-8.49857
-8.69618
-8.91151
-9.14404
-9.39369
-9.6591
-9.9379
-10.2275
-10.5254
-10.8292
-11.1365
-11.445
-11.7527
-12.0576
-12.3579
-12.6521
-12.9386
-13.2161
-13.4835
-13.7396
-13.9836
-14.2144
-14.4313
-14.6336
-14.8204
-14.9911
-15.145
-15.2816
-15.4
-15.4999
-15.5805
-15.6413
-15.6818
-15.7016
-15.7003
-15.6774
-15.6326
-15.5658
-15.4768
-15.3654
-15.2317
-15.0757
-14.8975
-14.6974
-14.4758
-14.2329
-13.9693
-13.6856
-13.3823
-13.0601
-12.7199
-12.3624
-11.9886
-11.5992
-11.1954
-10.7781
-10.3483
-9.9071
-9.45552
-8.99465
-8.52557
-8.04935
-7.56706
-7.07974
-6.58843
-6.09413
-5.59783
-5.10047
-4.60297
-4.10621
-3.61102
-3.11822
-2.62857
-2.14275
-1.66143
-1.18522
-0.714717
-0.250436
0.20714
0.657576
1.10048
1.5355
1.96233
2.38069
2.79037
3.19117
3.58293
3.96552
4.33886
4.70287
5.05753
5.40283
5.73879
6.06543
6.38284
6.69108
6.99026
7.28049
7.5619
7.83464
8.09885
8.35472
8.6024
8.84208
9.07396
9.29821
9.51505
9.72466
9.92725
10.123
10.3122
10.4949
10.6715
10.842
11.0067
11.1658
11.3195
11.4679
11.6113
11.7498
11.8837
12.013
12.138
12.2587
12.3755
12.4883
12.5975
12.703
12.8051
12.9039
12.9995
13.092
13.1816
13.2683
13.3522
13.4336
13.5123
13.5887
13.6627
13.7344
13.8039
13.8713
13.9366
14
14.0614
14.1209
14.1786
14.2346
14.2888
14.3412
14.392
14.4412
14.4886
14.5344
14.5786
14.6211
14.6618
14.7008
14.7379
14.7731
14.8063
14.8373
14.8659
14.8919
14.9149
14.9345
14.9501
14.9611
14.9662
14.9646
14.9526
14.9353
14.881
-7.70782
-7.74251
-7.79934
-7.87448
-7.96948
-8.08518
-8.22158
-8.37832
-8.55461
-8.74976
-8.96419
-9.19843
-9.45125
-9.72018
-10.0025
-10.2956
-10.5967
-10.9034
-11.213
-11.5232
-11.8319
-12.1369
-12.4364
-12.7287
-13.0122
-13.2856
-13.5476
-13.7972
-14.0333
-14.255
-14.4615
-14.652
-14.8258
-14.9823
-15.1209
-15.241
-15.3419
-15.4234
-15.4847
-15.5255
-15.5454
-15.5441
-15.5211
-15.4764
-15.4096
-15.3208
-15.2097
-15.0766
-14.9213
-14.7442
-14.5455
-14.3256
-14.0847
-13.8235
-13.5424
-13.2421
-12.9234
-12.5869
-12.2334
-11.8639
-11.4792
-11.0803
-10.668
-10.2436
-9.80786
-9.36194
-8.90686
-8.44368
-7.97344
-7.49716
-7.01589
-6.53062
-6.04234
-5.55199
-5.06052
-4.56882
-4.07773
-3.58809
-3.10068
-2.61624
-2.13548
-1.65904
-1.18752
-0.721473
-0.261435
0.192116
0.638746
1.07806
1.50972
1.93341
2.34886
2.75584
3.15416
3.54365
3.92418
4.29566
4.65802
5.01122
5.35524
5.6901
6.01582
6.33247
6.6401
6.93883
7.22874
7.50997
7.78265
8.04692
8.30295
8.55091
8.79095
9.02327
9.24806
9.46549
9.67577
9.87908
10.0756
10.2656
10.4492
10.6266
10.7981
10.9638
11.1238
11.2785
11.428
11.5724
11.7119
11.8468
11.9771
12.1031
12.2249
12.3426
12.4565
12.5666
12.6731
12.7762
12.8759
12.9724
13.0658
13.1563
13.2439
13.3287
13.4109
13.4905
13.5676
13.6424
13.7149
13.7851
13.8533
13.9193
13.9834
14.0455
14.1057
14.1641
14.2206
14.2755
14.3285
14.3799
14.4296
14.4776
14.524
14.5686
14.6116
14.6528
14.6921
14.7296
14.7651
14.7985
14.8295
14.8581
14.8838
14.9063
14.9252
14.9399
14.9494
14.9528
14.9491
14.9347
14.9147
14.8582
-7.64411
-7.66981
-7.71592
-7.77454
-7.84929
-7.94217
-8.0544
-8.18686
-8.33978
-8.51345
-8.70924
-8.9282
-9.16914
-9.42937
-9.70591
-9.99579
-10.296
-10.6037
-10.916
-11.2303
-11.5439
-11.8546
-12.1602
-12.4588
-12.7486
-13.0282
-13.2961
-13.5511
-13.7921
-14.0183
-14.2286
-14.4225
-14.5991
-14.7579
-14.8983
-15.0198
-15.1218
-15.2041
-15.2661
-15.3075
-15.3279
-15.327
-15.3046