/*--------------------------------*- C++ -*----------------------------------*\
  =========                 |
  \\      /  F ield         | OpenFOAM: The Open Source CFD Toolbox
   \\    /   O peration     | Website:  https://openfoam.org
    \\  /    A nd           | Version:  8
     \\/     M anipulation  |
\*---------------------------------------------------------------------------*/
FoamFile
{
    version     2.0;
    format      ascii;
    class       volVectorField;
    location    "4900";
    object      U;
}
// * * * * * * * * * * * * * * * * * * * * * * * * * * * * * * * * * * * * * //

dimensions      [0 1 -1 0 0 0 0];

internalField   nonuniform List<vector> 
12225
(
(9.2745 -4.73371 0)
(13.1094 -1.71343 0)
(12.4778 -0.395198 0)
(11.2771 -0.0422041 0)
(10.6314 0.0141384 0)
(10.2979 -9.3986e-05 0)
(10.0776 -0.0165233 0)
(9.91227 -0.00288831 0)
(9.77909 0.0348743 0)
(9.66231 0.0428923 0)
(9.55574 0.0248828 0)
(9.45767 0.00214192 0)
(9.36675 -0.0227918 0)
(9.28211 -0.0302251 0)
(9.20232 -0.0217876 0)
(9.13253 -0.0212273 0)
(9.07015 -0.0210396 0)
(9.08962 -0.0276947 0)
(10.2592 0.0928019 0)
(10.7814 0.199339 0)
(10.9594 0.245656 0)
(10.7469 0.229143 0)
(10.5875 0.172969 0)
(10.4527 0.115535 0)
(10.33 0.0823314 0)
(10.2327 0.0647298 0)
(10.155 0.0524761 0)
(10.0894 0.0472331 0)
(10.0323 0.0469922 0)
(9.98212 0.04899 0)
(9.93785 0.0517976 0)
(9.89833 0.0519427 0)
(9.8615 0.0483253 0)
(9.82886 0.0438436 0)
(9.79429 0.030081 0)
(9.76827 0.0102863 0)
(9.87768 -0.24504 0)
(9.74285 0.00579114 0)
(10.1971 0.125744 0)
(10.3245 0.179364 0)
(10.3564 0.161548 0)
(10.3311 0.120077 0)
(10.2777 0.090494 0)
(10.2252 0.0746656 0)
(10.1812 0.0658748 0)
(10.1438 0.0600284 0)
(10.1103 0.0562081 0)
(10.0799 0.0536508 0)
(10.052 0.0511364 0)
(10.026 0.0487624 0)
(10.0023 0.0460757 0)
(9.98118 0.0417685 0)
(9.95915 0.0316715 0)
(9.93459 0.0135802 0)
(9.83416 -0.443933 0)
(9.57654 -0.163146 0)
(9.91603 0.0336708 0)
(10.0933 0.134225 0)
(10.1892 0.145473 0)
(10.2168 0.120738 0)
(10.205 0.0978951 0)
(10.1824 0.0839093 0)
(10.1599 0.0756293 0)
(10.1389 0.069712 0)
(10.119 0.0651342 0)
(10.1001 0.0616374 0)
(10.0821 0.0586133 0)
(10.0648 0.0562295 0)
(10.0483 0.0538551 0)
(10.0325 0.0501455 0)
(10.0148 0.0424196 0)
(9.99178 0.0306155 0)
(9.87825 -0.387476 0)
(9.61653 -0.196147 0)
(9.81623 -0.01867 0)
(9.96136 0.0916132 0)
(10.0698 0.122197 0)
(10.1219 0.113628 0)
(10.1354 0.0992642 0)
(10.1332 0.0884209 0)
(10.1257 0.0809483 0)
(10.1162 0.0753964 0)
(10.1056 0.071124 0)
(10.0946 0.0678818 0)
(10.0833 0.0652543 0)
(10.0718 0.0631568 0)
(10.0601 0.061045 0)
(10.0477 0.0581073 0)
(10.0328 0.0530822 0)
(10.0125 0.0469052 0)
(9.91439 -0.28804 0)
(9.68304 -0.185176 0)
(9.78717 -0.0532073 0)
(9.88917 0.0509995 0)
(9.98796 0.0936802 0)
(10.0476 0.099204 0)
(10.0751 0.0938743 0)
(10.0861 0.0875181 0)
(10.0892 0.0821205 0)
(10.0879 0.0777645 0)
(10.0842 0.0743508 0)
(10.0789 0.0717602 0)
(10.0726 0.069742 0)
(10.0654 0.0681723 0)
(10.0572 0.0667263 0)
(10.0476 0.065044 0)
(10.0354 0.0627843 0)
(10.0185 0.0611723 0)
(9.93763 -0.214041 0)
(9.74856 -0.167535 0)
(9.79244 -0.0752152 0)
(9.85608 0.0162208 0)
(9.93595 0.0644222 0)
(9.99281 0.0805954 0)
(10.0261 0.0835613 0)
(10.0447 0.0822435 0)
(10.0546 0.0797794 0)
(10.0593 0.0772875 0)
(10.0606 0.0751759 0)
(10.0596 0.0735592 0)
(10.057 0.0723895 0)
(10.053 0.0716356 0)
(10.0477 0.0711912 0)
(10.0407 0.0710167 0)
(10.0312 0.0712792 0)
(10.0182 0.0731536 0)
(9.95263 -0.167334 0)
(9.79947 -0.149676 0)
(9.81177 -0.0846411 0)
(9.84959 -0.00621003 0)
(9.9114 0.0419322 0)
(9.96107 0.0638973 0)
(9.99432 0.0725501 0)
(10.0156 0.0752863 0)
(10.0288 0.07553 0)
(10.0367 0.0749036 0)
(10.041 0.0741479 0)
(10.0427 0.073582 0)
(10.0425 0.0733234 0)
(10.0408 0.073449 0)
(10.0375 0.0740063 0)
(10.0325 0.075137 0)
(10.0254 0.0772057 0)
(10.0157 0.0812057 0)
(9.96406 -0.132089 0)
(9.84003 -0.131988 0)
(9.83337 -0.0876897 0)
(9.85306 -0.0213324 0)
(9.89927 0.0244159 0)
(9.94102 0.0495132 0)
(9.97207 0.0621235 0)
(9.99385 0.0680769 0)
(10.0086 0.0706961 0)
(10.0184 0.0717947 0)
(10.0246 0.0723178 0)
(10.0282 0.0727538 0)
(10.0298 0.0733608 0)
(10.0297 0.0743194 0)
(10.028 0.0757876 0)
(10.0248 0.0780084 0)
(10.0197 0.0814117 0)
(10.0129 0.0868089 0)
(9.97418 -0.100205 0)
(9.87757 -0.11239 0)
(9.85857 -0.085366 0)
(9.86387 -0.0323326 0)
(9.89487 0.00892918 0)
(9.92743 0.0352243 0)
(9.95439 0.0507173 0)
(9.97502 0.0594972 0)
(9.99014 0.0644443 0)
(10.0009 0.0673596 0)
(10.0085 0.0692984 0)
(10.0135 0.0708782 0)
(10.0166 0.0724769 0)
(10.018 0.0743697 0)
(10.0179 0.0768024 0)
(10.0164 0.080077 0)
(10.0136 0.0846187 0)
(10.0095 0.0910441 0)
(9.98253 -0.0727091 0)
(9.91035 -0.0921962 0)
(9.88507 -0.078244 0)
(9.88001 -0.0386072 0)
(9.89746 -0.00337362 0)
(9.92043 0.0221693 0)
(9.94196 0.0391847 0)
(9.95999 0.0500814 0)
(9.97425 0.0570567 0)
(9.98518 0.0617054 0)
(9.99339 0.06508 0)
(9.99941 0.067864 0)
(10.0037 0.070517 0)
(10.0064 0.0733852 0)
(10.0078 0.0767706 0)
(10.0081 0.0809927 0)
(10.0073 0.0864254 0)
(10.0058 0.0935045 0)
(9.98894 -0.0502566 0)
(9.93733 -0.072378 0)
(9.91073 -0.0674478 0)
(9.89917 -0.0399824 0)
(9.90566 -0.0116493 0)
(9.91955 0.0114527 0)
(9.93496 0.0285312 0)
(9.94934 0.040581 0)
(9.96169 0.0490251 0)
(9.97188 0.0551123 0)
(9.98009 0.0597804 0)
(9.98659 0.0637037 0)
(9.99163 0.0673722 0)
(9.99544 0.0711653 0)
(9.9982 0.0754042 0)
(10.0001 0.0803914 0)
(10.0013 0.0864273 0)
(10.0021 0.093795 0)
(9.99348 -0.0329085 0)
(9.9582 -0.0538108 0)
(9.93368 -0.0542832 0)
(9.91898 -0.0367868 0)
(9.91755 -0.0154528 0)
(9.92366 0.00399557 0)
(9.93301 0.0197763 0)
(9.94318 0.0318775 0)
(9.9529 0.0410115 0)
(9.96163 0.0480215 0)
(9.96922 0.0536483 0)
(9.9757 0.0584847 0)
(9.98118 0.0629935 0)
(9.98578 0.0675425 0)
(9.98965 0.0724354 0)
(9.99294 0.0779323 0)
(9.99587 0.0842551 0)
(9.99869 0.0915749 0)
(9.99643 -0.0202024 0)
(9.97327 -0.0372095 0)
(9.95261 -0.0400449 0)
(9.93731 -0.0298101 0)
(9.93089 -0.0148228 0)
(9.93102 0.00036738 0)
(9.93504 0.0137752 0)
(9.94104 0.0248438 0)
(9.94782 0.03376 0)
(9.95465 0.0409923 0)
(9.96117 0.047051 0)
(9.96724 0.0523961 0)
(9.97281 0.0574128 0)
(9.9779 0.0624163 0)
(9.98261 0.0676606 0)
(9.98704 0.0733478 0)
(9.99135 0.0796289 0)
(9.99573 0.086597 0)
(9.99816 -0.0112875 0)
(9.9833 -0.0229302 0)
(9.96682 -0.0257621 0)
(9.95243 -0.020076 0)
(9.94344 -0.0102409 0)
(9.93952 0.000675974 0)
(9.9394 0.0110311 0)
(9.94183 0.0201451 0)
(9.94582 0.0279264 0)
(9.95069 0.0345731 0)
(9.95597 0.040387 0)
(9.96139 0.0456776 0)
(9.96681 0.0507232 0)
(9.97216 0.0557557 0)
(9.97744 0.0609591 0)
(9.9827 0.06647 0)
(9.98803 0.0723778 0)
(9.99354 0.078723 0)
(9.99906 -0.00508065 0)
(9.98922 -0.0107804 0)
(9.97612 -0.0119162 0)
(9.96309 -0.00848187 0)
(9.9531 -0.00243363 0)
(9.94685 0.00457982 0)
(9.94399 0.0115588 0)
(9.94384 0.018022 0)
(9.9457 0.0238404 0)
(9.94896 0.0290823 0)
(9.95317 0.0339032 0)
(9.95799 0.0384798 0)
(9.96321 0.0429768 0)
(9.96868 0.0475316 0)
(9.97435 0.0522483 0)
(9.98019 0.0571967 0)
(9.98623 0.0624122 0)
(9.99249 0.0678971 0)
(9.99942 -0.000367008 0)
(9.99181 0.000152226 0)
(9.98042 0.00183311 0)
(9.96821 0.0045947 0)
(9.9579 0.00792131 0)
(9.95061 0.011403 0)
(9.94642 0.0148182 0)
(9.94498 0.0180902 0)
(9.94576 0.0212357 0)
(9.94825 0.0243207 0)
(9.95198 0.0274265 0)
(9.95661 0.0306303 0)
(9.96186 0.0339942 0)
(9.96757 0.0375624 0)
(9.97362 0.0413585 0)
(9.97993 0.0453875 0)
(9.98648 0.049635 0)
(9.99325 0.0540712 0)
(9.99935 0.00408502 0)
(9.9911 0.0111737 0)
(9.97897 0.0161342 0)
(9.96616 0.0187378 0)
(9.95552 0.0196142 0)
(9.94819 0.019548 0)
(9.94419 0.0191613 0)
(9.94312 0.0188643 0)
(9.94438 0.0188974 0)
(9.94741 0.0193777 0)
(9.95174 0.0203462 0)
(9.95699 0.0217974 0)
(9.96287 0.0237006 0)
(9.96919 0.0260107 0)
(9.97583 0.0286764 0)
(9.9827 0.0316409 0)
(9.98974 0.0348461 0)
(9.99692 0.0382314 0)
(9.99882 0.00972996 0)
(9.98675 0.0240494 0)
(9.97122 0.0318475 0)
(9.95641 0.033295 0)
(9.94558 0.0307056 0)
(9.93942 0.0263518 0)
(9.93734 0.0217493 0)
(9.93845 0.0177406 0)
(9.94186 0.0146964 0)
(9.94687 0.0127124 0)
(9.95292 0.0117329 0)
(9.95963 0.0116391 0)
(9.96674 0.0122916 0)
(9.97408 0.0135546 0)
(9.98155 0.0153029 0)
(9.98908 0.0174264 0)
(9.99665 0.0198283 0)
(10.0042 0.022425 0)
(9.99757 0.0182101 0)
(9.97773 0.0404558 0)
(9.95664 0.0495784 0)
(9.93945 0.04748 0)
(9.92961 0.0394253 0)
(9.92659 0.0296487 0)
(9.92848 0.0204918 0)
(9.93357 0.0129681 0)
(9.94055 0.00734992 0)
(9.94856 0.00351903 0)
(9.95704 0.00122467 0)
(9.96568 0.000176968 0)
(9.97428 0.000112479 0)
(9.98276 0.000797541 0)
(9.99109 0.00204496 0)
(9.99925 0.00370179 0)
(10.0073 0.00564493 0)
(10.0151 0.00777787 0)
(9.99502 0.0318146 0)
(9.96177 0.0621342 0)
(9.93372 0.0695523 0)
(9.91534 0.0601162 0)
(9.90932 0.0439522 0)
(9.91249 0.0276615 0)
(9.92084 0.0139949 0)
(9.93162 0.00364003 0)
(9.94323 -0.00364171 0)
(9.9548 -0.00837353 0)
(9.96595 -0.0111294 0)
(9.97653 -0.0123911 0)
(9.98651 -0.0125649 0)
(9.99595 -0.0119511 0)
(10.0049 -0.0107858 0)
(10.0135 -0.0092445 0)
(10.0217 -0.00745699 0)
(10.0296 -0.00552251 0)
(9.99018 0.0534619 0)
(9.93561 0.0901523 0)
(9.90098 0.0906284 0)
(9.88515 0.0687577 0)
(9.8878 0.0418198 0)
(9.90121 0.0186594 0)
(9.91856 0.00141786 0)
(9.93627 -0.0103962 0)
(9.95285 -0.0179412 0)
(9.96786 -0.0223935 0)
(9.98129 -0.0246484 0)
(9.99333 -0.0253872 0)
(10.0042 -0.0250883 0)
(10.0141 -0.0241086 0)
(10.0232 -0.0226859 0)
(10.0318 -0.0209903 0)
(10.0399 -0.0191449 0)
(10.0475 -0.0172227 0)
(9.9819 0.0862471 0)
(9.89548 0.124258 0)
(9.85817 0.109884 0)
(9.85209 0.0697745 0)
(9.87033 0.0303387 0)
(9.89842 0.00144934 0)
(9.92658 -0.0172043 0)
(9.95135 -0.028321 0)
(9.9722 -0.0344207 0)
(9.9896 -0.0373306 0)
(10.0043 -0.0382063 0)
(10.0168 -0.0377973 0)
(10.0276 -0.0366098 0)
(10.0372 -0.0349682 0)
(10.0459 -0.0330716 0)
(10.0539 -0.0310688 0)
(10.0613 -0.0290509 0)
(10.0683 -0.02706 0)
(9.96925 0.13399 0)
(9.83823 0.163089 0)
(9.80793 0.122591 0)
(9.82311 0.0588003 0)
(9.86512 0.00730864 0)
(9.91138 -0.0240262 0)
(9.95035 -0.0405906 0)
(9.98048 -0.0483719 0)
(10.0034 -0.0512367 0)
(10.0212 -0.0515393 0)
(10.0354 -0.0504166 0)
(10.0469 -0.0485106 0)
(10.0565 -0.0462494 0)
(10.0649 -0.0438485 0)
(10.0723 -0.0414108 0)
(10.079 -0.0390533 0)
(10.0852 -0.0368649 0)
(10.0911 -0.0348084 0)
(9.94951 0.207141 0)
(9.76128 0.207022 0)
(9.75726 0.123478 0)
(9.81042 0.0320114 0)
(9.88382 -0.0278606 0)
(9.94874 -0.0559945 0)
(9.99526 -0.0660729 0)
(10.0266 -0.0678023 0)
(10.048 -0.0659741 0)
(10.063 -0.0631946 0)
(10.0743 -0.0598869 0)
(10.083 -0.0564935 0)
(10.09 -0.053144 0)
(10.0959 -0.0501199 0)
(10.1011 -0.0472752 0)
(10.1056 -0.0446414 0)
(10.1099 -0.0423612 0)
(10.114 -0.0402918 0)
(9.91094 0.322718 0)
(9.65923 0.254545 0)
(9.71887 0.107407 0)
(9.83329 -0.0119228 0)
(9.94173 -0.0726522 0)
(10.0199 -0.0901623 0)
(10.0662 -0.0893226 0)
(10.0917 -0.0831396 0)
(10.1058 -0.0760396 0)
(10.1141 -0.0696209 0)
(10.1198 -0.0644976 0)
(10.1236 -0.0600789 0)
(10.1262 -0.0563767 0)
(10.1281 -0.0532568 0)
(10.1299 -0.0503076 0)
(10.1313 -0.0475392 0)
(10.1327 -0.0454146 0)
(10.1343 -0.0437093 0)
(9.84404 0.43511 0)
(9.53798 0.261026 0)
(9.7269 0.0591351 0)
(9.92367 -0.0731152 0)
(10.0584 -0.121552 0)
(10.1344 -0.120191 0)
(10.1664 -0.105281 0)
(10.1758 -0.0906187 0)
(10.1759 -0.0784834 0)
(10.1726 -0.0703804 0)
(10.1686 -0.0644386 0)
(10.1647 -0.0597643 0)
(10.1605 -0.0556906 0)
(10.1569 -0.0526448 0)
(10.1537 -0.0498185 0)
(10.1504 -0.0470667 0)
(10.1474 -0.0455495 0)
(10.1458 -0.0445225 0)
(9.83598 0.319666 0)
(9.55021 0.0912513 0)
(9.91739 -0.0687253 0)
(10.1507 -0.160112 0)
(10.2634 -0.172136 0)
(10.3032 -0.142727 0)
(10.2978 -0.112095 0)
(10.276 -0.089956 0)
(10.2516 -0.0753888 0)
(10.2302 -0.0674596 0)
(10.2132 -0.0619472 0)
(10.1984 -0.0574664 0)
(10.1843 -0.0528839 0)
(10.1714 -0.0489135 0)
(10.1601 -0.0449559 0)
(10.1492 -0.0416354 0)
(10.1401 -0.0411323 0)
(10.133 -0.0405925 0)
(10.2049 -0.0633775 0)
(10.4095 -0.191706 0)
(10.7164 -0.282558 0)
(10.6879 -0.282287 0)
(10.6191 -0.230103 0)
(10.5417 -0.163668 0)
(10.4545 -0.117044 0)
(10.3763 -0.0925013 0)
(10.3137 -0.0798693 0)
(10.2654 -0.0678697 0)
(10.2262 -0.0589191 0)
(10.1917 -0.0543243 0)
(10.1604 -0.0537153 0)
(10.1329 -0.0526847 0)
(10.1064 -0.0517451 0)
(10.0823 -0.0506228 0)
(10.065 -0.0449212 0)
(10.047 -0.0399315 0)
(9.41631 4.45107 0)
(12.7294 2.07612 0)
(12.5649 0.621213 0)
(11.569 0.127658 0)
(10.9309 0.00343499 0)
(10.5866 -0.0020673 0)
(10.3638 0.0123108 0)
(10.2022 0.0302358 0)
(10.0795 0.0412057 0)
(9.97727 0.0358133 0)
(9.88482 0.0251219 0)
(9.79873 0.0219467 0)
(9.72289 0.0252792 0)
(9.65533 0.021271 0)
(9.59834 0.0166203 0)
(9.5506 0.0157801 0)
(9.49778 -0.00227272 0)
(9.44717 -0.0272079 0)
(-0.0275148 0.0934296 0)
(0.137022 -0.183517 0)
(0.324992 -0.305903 0)
(0.525481 -0.315122 0)
(0.702957 -0.272075 0)
(0.833505 -0.211082 0)
(0.909823 -0.146342 -8.60165e-20)
(0.940403 -0.0824962 8.66407e-20)
(0.91953 -0.0201734 0)
(0.858845 0.0345368 9.18613e-20)
(0.771688 0.0739595 0)
(0.672427 0.0920042 0)
(0.578505 0.0877227 0)
(0.505705 0.0666622 -1.43198e-19)
(0.455753 0.0377093 0)
(0.412408 0.00997332 0)
(0.352872 -0.00897335 1.87924e-19)
(0.26271 -0.00867889 0)
(0.135162 0.0293085 0)
(-0.0448372 0.112954 0)
(-0.300556 0.186496 -1.64802e-19)
(-0.594259 0.235264 0)
(-0.915684 0.266821 -7.62343e-20)
(-1.25194 0.296041 0)
(-1.59137 0.323657 0)
(-1.93111 0.336465 -4.13208e-20)
(-2.26353 0.335616 0)
(-2.58064 0.326492 3.45395e-20)
(-2.87942 0.310354 0)
(-3.15643 0.289553 -3.13407e-20)
(-3.41078 0.266417 0)
(-3.64208 0.242537 0)
(-3.85105 0.218946 0)
(-4.03879 0.196352 0)
(-4.20673 0.175131 0)
(-4.35645 0.155488 2.82292e-20)
(-4.48951 0.13746 0)
(-4.60743 0.120976 -5.557e-20)
(-4.71155 0.105907 0)
(-4.80312 0.0920951 5.47714e-20)
(-4.88318 0.0793775 0)
(-4.95263 0.0676025 0)
(-5.01223 0.0566421 -5.35495e-20)
(-5.0626 0.0463996 0)
(-5.10423 0.0368157 -5.26578e-20)
(-5.13756 0.0278732 5.218e-20)
(-5.16295 0.0196165 0)
(-5.18082 0.0121934 5.11532e-20)
(-5.19143 0.00585178 5.06008e-20)
(-5.19495 0.000802075 0)
(-5.19264 -0.00315149 0)
(-5.18572 -0.00644982 0)
(-5.17433 -0.00937228 0)
(-5.15881 -0.012083 0)
(-5.13931 -0.0146516 -4.61814e-20)
(-5.11597 -0.0170917 0)
(-5.0889 -0.0194146 4.43162e-20)
(-5.0582 -0.0216293 0)
(-5.02398 -0.023738 0)
(-4.98635 -0.0257427 -4.11382e-20)
(-4.9454 -0.0276436 0)
(-4.90123 -0.0294407 3.87625e-20)
(-4.85397 -0.0311339 0)
(-4.80373 -0.0327232 0)
(-4.75062 -0.0342084 0)
(-4.69475 -0.0355894 -3.33831e-20)
(-4.63627 -0.0368668 0)
(-4.57528 -0.0380414 0)
(-4.51192 -0.0391138 -2.87858e-20)
(-4.44631 -0.040085 0)
(-4.37859 -0.0409566 -2.54445e-20)
(-4.30889 -0.04173 0)
(-4.23734 -0.0424076 0)
(-4.16407 -0.0429913 0)
(-4.08921 -0.0434832 1.80673e-20)
(-4.0129 -0.0438848 0)
(-3.93525 -0.0441951 0)
(-3.8564 -0.044413 1.18851e-20)
(-3.77648 -0.0445331 9.69106e-21)
(-3.6956 -0.0445547 0)
(-3.61389 -0.0444854 5.08925e-21)
(-3.53148 -0.0443469 0)
(-3.44845 -0.0441814 3.63742e-22)
(-3.36493 -0.0440222 0)
(-3.28098 -0.0438682 -1.01296e-20)
(-3.19669 -0.0436441 0)
(-3.11218 -0.0432225 2.13694e-20)
(-3.02757 -0.0426106 0)
(-2.94295 -0.0420577 0)
(-2.85832 -0.041809 0)
(-2.77368 -0.0417934 -4.65709e-20)
(-2.68906 -0.0417646 0)
(-2.60454 -0.041878 6.083e-20)
(-2.52008 -0.0425069 0)
(-2.43558 -0.0434496 -7.65075e-20)
(-2.35132 -0.044321 -8.48835e-20)
(-2.26756 -0.0447803 -9.35934e-20)
(-2.18454 -0.0445745 0)
(-2.10242 -0.0439677 0)
(-2.02124 -0.0432703 0)
(-1.941 -0.0425648 0)
(-1.86171 -0.0418647 0)
(-1.7834 -0.0411701 0)
(-1.70609 -0.0404831 0)
(-1.6298 -0.0398074 0)
(-1.55455 -0.0391487 1.92706e-19)
(-1.48038 -0.0385141 2.07027e-19)
(-1.40727 -0.0379091 0)
(-1.33526 -0.0373226 0)
(-1.26437 -0.0366973 0)
(-1.19464 -0.0360398 2.74298e-19)
(-1.12606 -0.0354058 0)
(-1.05865 -0.0347904 0)
(-0.992394 -0.0341949 0)
(-0.927307 -0.033621 0)
(-0.863386 -0.0330707 -3.90947e-19)
(-0.800628 -0.0325466 0)
(-0.739031 -0.0320518 0)
(-0.678586 -0.0315899 4.89137e-19)
(-0.619287 -0.0311622 -5.28841e-19)
(-0.561129 -0.0307724 0)
(-0.504102 -0.030431 -6.22466e-19)
(-0.448194 -0.0301617 0)
(-0.393387 -0.030009 7.41468e-19)
(-0.339658 -0.029984 0)
(-0.286994 -0.0300481 0)
(-0.23538 -0.0301884 0)
(-0.184787 -0.0304157 0)
(-0.13519 -0.0307456 0)
(-0.086633 -0.031197 -2.84711e-18)
(-0.0393282 -0.0316515 -3.27799e-18)
(0.00677878 -0.0313508 0)
(0.0521992 -0.0298518 0)
(0.0969422 -0.0280015 0)
(0.140866 -0.0262838 2.68438e-18)
(0.183878 -0.0247511 0)
(0.225957 -0.0233777 0)
(0.267126 -0.0221402 0)
(0.307417 -0.0210187 2.03971e-18)
(0.346861 -0.0199959 -1.93346e-18)
(0.385487 -0.0190577 0)
(0.423321 -0.0181926 0)
(0.460387 -0.0173915 -1.68675e-18)
(0.496709 -0.0166467 -1.6221e-18)
(0.53231 -0.0159522 0)
(0.567214 -0.0153028 0)
(0.601444 -0.0146943 1.46386e-18)
(0.635021 -0.014123 -1.42038e-18)
(0.667969 -0.0135858 0)
(0.70031 -0.01308 0)
(0.732067 -0.0126034 -1.31012e-18)
(0.763263 -0.0121539 0)
(0.79392 -0.0117297 0)
(0.824063 -0.0113294 -1.22262e-18)
(0.853713 -0.0109515 0)
(0.882894 -0.0105947 -1.17355e-18)
(0.91163 -0.0102581 0)
(0.939944 -0.00994035 0)
(0.967859 -0.00964056 0)
(0.995396 -0.00935761 1.09156e-18)
(1.02258 -0.00909038 0)
(1.04943 -0.00883763 0)
(1.07596 -0.00859788 0)
(1.10218 -0.00836935 0)
(1.12812 -0.00814977 0)
(1.15376 -0.00793624 0)
(1.17911 -0.00772488 9.82767e-19)
(1.20414 -0.00751054 9.69847e-19)
(1.22881 -0.00728622 0)
(1.25305 -0.00704239 0)
(1.27676 -0.00676553 0)
(1.29978 -0.00643705 -9.24501e-19)
(1.32185 -0.0060272 0)
(1.34258 -0.00549726 1.81389e-18)
(1.36152 -0.0047602 -1.80052e-18)
(1.37726 -0.00372457 -1.79179e-18)
(1.38985 -0.00195314 1.79009e-18)
(1.39026 0.00132863 -1.79547e-18)
(1.38757 0.00807629 1.8088e-18)
(1.3083 0.0198897 0)
(0.0963201 -0.269007 0)
(0.334076 -0.681292 0)
(0.514179 -0.706532 1.57354e-19)
(0.611818 -0.57135 0)
(0.662813 -0.408898 -1.11136e-19)
(0.683253 -0.253824 -1.08102e-19)
(0.677226 -0.112172 -5.62536e-20)
(0.646853 0.015586 -5.61988e-20)
(0.603876 0.125404 0)
(0.544681 0.211925 -6.08073e-20)
(0.46787 0.267401 0)
(0.373386 0.283202 0)
(0.257583 0.256433 1.7049e-19)
(0.11025 0.211435 9.82836e-20)
(-0.0747799 0.206286 -1.8446e-19)
(-0.301053 0.271838 -1.43793e-19)
(-0.579037 0.383414 -5.71882e-20)
(-0.904972 0.513252 0)
(-1.25856 0.642615 0)
(-1.61667 0.756442 0)
(-1.97229 0.841997 -2.85747e-20)
(-2.31788 0.895563 0)
(-2.64777 0.919047 6.90622e-20)
(-2.95449 0.915465 0)
(-3.23399 0.889028 0)
(-3.48463 0.844861 1.98194e-20)
(-3.705 0.788294 0)
(-3.89595 0.724859 -1.97618e-20)
(-4.05934 0.658785 -4.17978e-20)
(-4.19872 0.592784 2.01686e-20)
(-4.31702 0.528958 0)
(-4.41711 0.469091 0)
(-4.50172 0.414011 0)
(-4.57325 0.364072 -4.42594e-20)
(-4.63377 0.319234 -4.47658e-20)
(-4.68495 0.279224 -2.21901e-20)
(-4.72818 0.243632 0)
(-4.76457 0.211977 4.5308e-20)
(-4.795 0.18376 0)
(-4.82021 0.1585 -4.58797e-20)
(-4.84077 0.135757 0)
(-4.85718 0.115136 0)
(-4.86985 0.0962964 4.60902e-20)
(-4.87917 0.0789479 0)
(-4.88548 0.06285 1.38172e-19)
(-4.88907 0.0478082 -4.56107e-20)
(-4.89024 0.0336872 0)
(-4.88923 0.0204564 -4.49416e-20)
(-4.8863 0.00823221 -4.44849e-20)
(-4.88171 -0.0028234 0)
(-4.87456 -0.0127663 0)
(-4.86374 -0.0218923 0)
(-4.84923 -0.0304445 0)
(-4.83094 -0.0385376 0)
(-4.8089 -0.0462412 4.0219e-20)
(-4.78316 -0.0535921 7.91684e-20)
(-4.7538 -0.0606116 -3.84417e-20)
(-4.72091 -0.0673109 0)
(-4.68458 -0.0736958 7.349e-20)
(-4.64489 -0.0797688 -3.59687e-20)
(-4.60195 -0.0855308 0)
(-4.55586 -0.0909814 -3.32687e-20)
(-4.50672 -0.0961206 0)
(-4.45464 -0.10095 0)
(-4.39974 -0.105471 -5.98956e-20)
(-4.34213 -0.109683 2.83872e-20)
(-4.28193 -0.113588 -5.47039e-20)
(-4.21927 -0.117187 5.19852e-20)
(-4.15426 -0.120485 2.42955e-20)
(-4.08703 -0.123486 0)
(-4.01771 -0.126195 2.13625e-20)
(-3.94643 -0.128618 0)
(-3.87331 -0.130762 0)
(-3.79849 -0.132633 0)
(-3.72209 -0.13424 1.56363e-20)
(-3.64423 -0.135592 0)
(-3.56506 -0.136697 2.37694e-20)
(-3.48467 -0.137566 -2.99781e-20)
(-3.40321 -0.138211 -7.94296e-21)
(-3.32079 -0.138643 0)
(-3.23751 -0.138874 -4.14227e-21)
(-3.15349 -0.138914 0)
(-3.06884 -0.138772 -2.93893e-22)
(-2.98367 -0.138454 0)
(-2.8981 -0.137969 8.11341e-21)
(-2.81222 -0.137333 -2.35671e-20)
(-2.72613 -0.136569 -1.69668e-20)
(-2.63989 -0.135704 0)
(-2.55357 -0.134743 0)
(-2.46728 -0.13366 0)
(-2.38117 -0.132438 3.61882e-20)
(-2.29534 -0.131095 0)
(-2.20988 -0.129634 -4.66525e-20)
(-2.12495 -0.127973 0)
(-2.04071 -0.12604 1.71883e-19)
(-1.95722 -0.123884 6.36314e-20)
(-1.8745 -0.121603 6.96637e-20)
(-1.79248 -0.119297 0)
(-1.71115 -0.117029 0)
(-1.63056 -0.114795 0)
(-1.55077 -0.112572 0)
(-1.47184 -0.110348 0)
(-1.39381 -0.108117 2.19494e-19)
(-1.31671 -0.105881 2.34986e-19)
(-1.24056 -0.103641 0)
(-1.16541 -0.101402 -1.34762e-19)
(-1.09127 -0.0991665 -1.43542e-19)
(-1.01816 -0.0969355 0)
(-0.94612 -0.0947115 -3.2304e-19)
(-0.875157 -0.0924987 0)
(-0.805265 -0.0903108 1.81326e-19)
(-0.736454 -0.0881535 0)
(-0.668734 -0.086027 0)
(-0.602111 -0.0839338 -4.34459e-19)
(-0.536586 -0.0818753 0)
(-0.472161 -0.079853 2.44838e-19)
(-0.408835 -0.07787 0)
(-0.346608 -0.0759319 0)
(-0.285473 -0.0740476 2.89778e-19)
(-0.225421 -0.0722151 3.09084e-19)
(-0.166445 -0.070429 0)
(-0.10854 -0.0686923 -3.46382e-19)
(-0.0517117 -0.0670052 0)
(0.00404396 -0.0653591 3.82643e-19)
(0.0587684 -0.0637471 7.66179e-19)
(0.112495 -0.0621805 0)
(0.165223 -0.0606741 0)
(0.216955 -0.0592323 0)
(0.267704 -0.0578528 0)
(0.317503 -0.056538 7.09225e-19)
(0.366422 -0.0552767 2.0964e-18)
(0.414548 -0.0538983 0)
(0.461793 -0.0522529 0)
(0.508016 -0.0504788 0)
(0.553288 -0.0487321 -6.65613e-19)
(0.59769 -0.0470643 0)
(0.641249 -0.0454841 0)
(0.683984 -0.0439888 1.28791e-18)
(0.725915 -0.0425721 6.36936e-19)
(0.767064 -0.0412264 6.32412e-19)
(0.807452 -0.0399451 0)
(0.8471 -0.0387228 0)
(0.886031 -0.0375549 6.1587e-19)
(0.924265 -0.036438 -6.09634e-19)
(0.961824 -0.0353691 0)
(0.998729 -0.0343456 0)
(1.035 -0.0333654 -5.96777e-19)
(1.07066 -0.0324267 1.77635e-18)
(1.10573 -0.0315278 0)
(1.14024 -0.0306674 0)
(1.17419 -0.029844 5.80311e-19)
(1.20763 -0.0290566 0)
(1.24055 -0.0283041 1.14492e-18)
(1.273 -0.0275855 -5.68527e-19)
(1.30499 -0.0268999 0)
(1.33655 -0.0262462 5.62415e-19)
(1.36769 -0.0256235 1.11755e-18)
(1.39843 -0.0250306 0)
(1.42881 -0.0244664 0)
(1.45883 -0.0239293 -5.49583e-19)
(1.48853 -0.0234176 0)
(1.51791 -0.022929 1.08646e-18)
(1.54699 -0.0224605 0)
(1.57579 -0.0220085 0)
(1.60431 -0.021568 0)
(1.63256 -0.0211321 0)
(1.66052 -0.0206921 -5.29009e-19)
(1.68818 -0.0202359 -5.26241e-19)
(1.71551 -0.019747 0)
(1.74244 -0.0192028 0)
(1.76888 -0.0185716 0)
(1.79469 -0.0178079 5.16146e-19)
(1.81967 -0.0168446 0)
(1.84348 -0.0155786 -1.02488e-18)
(1.86572 -0.013833 1.02262e-18)
(1.88545 -0.011323 1.02223e-18)
(1.90225 -0.00730803 1.02333e-18)
(1.91246 -0.000517363 1.02849e-18)
(1.92476 0.0124263 1.02038e-18)
(1.90519 0.0361876 0)
(0.116439 -0.859737 0)
(0.269011 -1.05684 0)
(0.316101 -0.826011 -1.26326e-19)
(0.315407 -0.584236 -1.08166e-19)
(0.297976 -0.373771 1.00487e-19)
(0.266767 -0.188643 1.00668e-19)
(0.220584 -0.023183 -6.44839e-22)
(0.158688 0.12456 0)
(0.0809502 0.255103 0)
(-0.0138646 0.366021 0)
(-0.129314 0.451731 0)
(-0.273463 0.512794 0)
(-0.459227 0.566622 -2.67323e-19)
(-0.697094 0.641362 0)
(-0.983323 0.753923 6.6274e-20)
(-1.30206 0.895892 5.71735e-20)
(-1.63535 1.044 0)
(-1.96628 1.17801 0)
(-2.27962 1.28539 0)
(-2.5635 1.3591 0)
(-2.81261 1.39484 3.49031e-20)
(-3.02655 1.39239 0)
(-3.20669 1.35643 -3.23461e-20)
(-3.35588 1.29418 0)
(-3.47858 1.21298 0)
(-3.5794 1.11921 0)
(-3.66315 1.01896 -6.85876e-20)
(-3.73419 0.917571 0)
(-3.79606 0.819165 3.31174e-20)
(-3.85152 0.726541 -7.07013e-20)
(-3.9025 0.641212 0)
(-3.95029 0.563916 0)
(-3.99564 0.494704 0)
(-4.03894 0.433189 3.65647e-20)
(-4.08028 0.378724 3.7152e-20)
(-4.11961 0.330536 0)
(-4.15681 0.28783 0)
(-4.19169 0.249843 -7.78011e-20)
(-4.22409 0.215882 -7.81941e-20)
(-4.25383 0.185336 7.84271e-20)
(-4.28078 0.157688 0)
(-4.30481 0.132507 0)
(-4.32584 0.109446 0)
(-4.34379 0.0882206 0)
(-4.35861 0.0685967 -7.70107e-20)
(-4.37024 0.0503746 -7.69127e-20)
(-4.3786 0.0333701 7.62698e-20)
(-4.38357 0.0173824 0)
(-4.38497 0.002155 0)
(-4.38263 -0.0125985 0)
(-4.37651 -0.027011 0)
(-4.36667 -0.0409961 -7.11062e-20)
(-4.35315 -0.0544618 0)
(-4.33599 -0.0673969 0)
(-4.31524 -0.0798055 -6.69946e-20)
(-4.29094 -0.0916966 -6.49689e-20)
(-4.26316 -0.103077 0)
(-4.23197 -0.113952 1.2457e-19)
(-4.19746 -0.124323 -6.0031e-20)
(-4.1597 -0.13419 5.82544e-20)
(-4.11878 -0.14355 0)
(-4.0748 -0.152403 0)
(-4.02785 -0.160746 0)
(-3.97805 -0.168578 0)
(-3.9255 -0.175902 4.84229e-20)
(-3.87031 -0.18272 9.37767e-20)
(-3.8126 -0.189031 4.40576e-20)
(-3.75247 -0.194839 -4.17855e-20)
(-3.69006 -0.200148 0)
(-3.62549 -0.204967 7.54256e-20)
(-3.55887 -0.209303 7.05426e-20)
(-3.49033 -0.213165 6.55432e-20)
(-3.42 -0.216563 -6.0428e-20)
(-3.348 -0.21951 0)
(-3.27446 -0.222016 -7.41008e-20)
(-3.19949 -0.224097 0)
(-3.12323 -0.225766 2.00958e-20)
(-3.0458 -0.227038 1.58729e-20)
(-2.96731 -0.227929 0)
(-2.88788 -0.228457 0)
(-2.80763 -0.228638 1.53619e-20)
(-2.72666 -0.228491 0)
(-2.64509 -0.228037 2.92834e-21)
(-2.56303 -0.227295 0)
(-2.48059 -0.226281 9.99311e-21)
(-2.39787 -0.22501 3.47138e-20)
(-2.31496 -0.223498 0)
(-2.23195 -0.221768 0)
(-2.14893 -0.219849 0)
(-2.06602 -0.217762 4.45779e-20)
(-1.9833 -0.215512 0)
(-1.90089 -0.213098 5.94009e-20)
(-1.81887 -0.210533 0)
(-1.73731 -0.207811 0)
(-1.65632 -0.204896 -1.67046e-19)
(-1.57591 -0.201771 0)
(-1.4961 -0.198456 -9.93086e-20)
(-1.4169 -0.19499 0)
(-1.33834 -0.191431 -1.16588e-19)
(-1.26048 -0.18782 0)
(-1.18337 -0.184172 0)
(-1.10707 -0.180496 0)
(-1.03162 -0.176797 -4.62675e-19)
(-0.957047 -0.173083 -1.65038e-19)
(-0.883391 -0.169361 0)
(-0.810677 -0.165637 0)
(-0.738929 -0.161917 0)
(-0.668169 -0.158205 0)
(-0.598415 -0.154508 2.18833e-19)
(-0.529676 -0.150829 -4.58456e-19)
(-0.461961 -0.147179 -2.42666e-19)
(-0.39528 -0.143566 5.07647e-19)
(-0.329645 -0.139995 5.33445e-19)
(-0.265059 -0.136473 2.81373e-19)
(-0.201526 -0.133001 0)
(-0.139047 -0.129581 6.16214e-19)
(-0.0776226 -0.126214 0)
(-0.0172547 -0.122905 -6.73546e-19)
(0.042063 -0.119654 -3.45155e-19)
(0.100344 -0.116464 0)
(0.157594 -0.113336 6.93117e-19)
(0.21382 -0.110273 3.48827e-19)
(0.269031 -0.107276 0)
(0.323238 -0.104336 3.48721e-19)
(0.376449 -0.101441 -1.05281e-18)
(0.428673 -0.0985993 0)
(0.479923 -0.095823 0)
(0.530217 -0.0931141 0)
(0.579571 -0.0904733 0)
(0.628009 -0.0879054 -7.07743e-19)
(0.675564 -0.0854174 -7.10235e-19)
(0.722259 -0.0830242 0)
(0.768061 -0.0807129 0)
(0.812955 -0.0784444 0)
(0.856993 -0.0762174 0)
(0.900218 -0.0740482 0)
(0.942647 -0.0719454 0)
(0.984292 -0.0699117 -7.14013e-19)
(1.02517 -0.0679468 -1.08883e-21)
(1.0653 -0.0660492 0)
(1.1047 -0.0642168 0)
(1.14339 -0.0624477 -7.13849e-19)
(1.18139 -0.06074 0)
(1.21872 -0.0590922 7.14897e-19)
(1.2554 -0.0575027 7.14036e-19)
(1.29145 -0.0559703 0)
(1.32689 -0.0544938 0)
(1.36175 -0.053072 -7.14571e-19)
(1.39604 -0.0517039 -1.42735e-18)
(1.42978 -0.0503884 0)
(1.463 -0.0491246 0)
(1.49572 -0.0479116 0)
(1.52795 -0.0467485 -7.13266e-19)
(1.55972 -0.0456343 7.12885e-19)
(1.59105 -0.0445682 0)
(1.62197 -0.0435489 1.4229e-18)
(1.65249 -0.0425755 7.10429e-19)
(1.68263 -0.0416464 -1.42084e-18)
(1.71242 -0.0407601 0)
(1.74187 -0.0399146 0)
(1.77101 -0.0391073 -1.41704e-18)
(1.79985 -0.0383347 -7.0823e-19)
(1.82842 -0.0375928 0)
(1.85671 -0.0368756 0)
(1.88475 -0.0361756 0)
(1.91253 -0.0354828 0)
(1.94005 -0.0347835 -1.4069e-18)
(1.96731 -0.0340594 0)
(1.99426 -0.0332857 0)
(2.02087 -0.032428 0)
(2.04705 -0.0314384 0)
(2.07269 -0.0302487 0)
(2.09761 -0.028758 0)
(2.12157 -0.0268147 -1.39756e-18)
(2.14422 -0.0241675 0)
(2.16489 -0.0204109 0)
(2.18334 -0.0147527 -2.81633e-18)
(2.19678 -0.00587542 1.41819e-18)
(2.21147 0.00887841 -1.4163e-18)
(2.20638 0.0362567 1.41175e-18)
(0.0333156 -1.16609 0)
(0.0696741 -1.02976 3.59925e-19)
(0.0339184 -0.746801 0)
(-0.0105405 -0.506322 1.10875e-19)
(-0.0658779 -0.2836 0)
(-0.133745 -0.0740102 0)
(-0.216993 0.122845 -8.28039e-20)
(-0.317995 0.306228 0)
(-0.438877 0.475699 0)
(-0.582243 0.631814 0)
(-0.75195 0.777111 0)
(-0.953208 0.917689 0)
(-1.18865 1.06166 2.04187e-19)
(-1.45267 1.21244 9.24318e-20)
(-1.73082 1.36376 -8.36843e-20)
(-2.00472 1.50228 0)
(-2.25863 1.61418 0)
(-2.48252 1.69011 0)
(-2.67158 1.72634 0)
(-2.8244 1.72415 0)
(-2.94355 1.68739 6.01611e-20)
(-3.03457 1.62131 5.88446e-20)
(-3.10357 1.53276 -5.79919e-20)
(-3.15687 1.42938 5.76905e-20)
(-3.19986 1.31788 0)
(-3.23689 1.20367 0)
(-3.27142 1.09111 5.58438e-20)
(-3.3058 0.983479 0)
(-3.34132 0.882902 0)
(-3.37848 0.790417 5.86983e-20)
(-3.41729 0.706268 6.15163e-20)
(-3.4574 0.630226 6.2228e-20)
(-3.49829 0.561762 0)
(-3.53933 0.50018 0)
(-3.57991 0.444719 -6.40382e-20)
(-3.61947 0.394622 0)
(-3.65752 0.34918 0)
(-3.69365 0.307748 6.43112e-20)
(-3.7275 0.269762 -6.60313e-20)
(-3.7588 0.234733 6.60418e-20)
(-3.78732 0.202247 0)
(-3.81289 0.171953 0)
(-3.83534 0.143554 1.30017e-19)
(-3.85455 0.116801 0)
(-3.87042 0.0914813 1.28628e-19)
(-3.88284 0.0674185 1.9104e-19)
(-3.89174 0.0444689 -1.89398e-19)
(-3.89706 0.022512 1.25331e-19)
(-3.89874 0.00143097 0)
(-3.89679 -0.0188903 0)
(-3.89126 -0.0385299 1.19875e-19)
(-3.88218 -0.0575067 5.84064e-20)
(-3.86959 -0.0758168 0)
(-3.85354 -0.0934589 0)
(-3.83405 -0.110432 5.49003e-20)
(-3.81117 -0.126737 1.08251e-19)
(-3.78497 -0.142371 0)
(-3.7555 -0.157331 -1.01798e-19)
(-3.72283 -0.171614 9.99689e-20)
(-3.68704 -0.185215 -9.6997e-20)
(-3.64821 -0.19813 0)
(-3.60643 -0.210352 0)
(-3.56179 -0.221877 0)
(-3.51438 -0.232702 0)
(-3.46433 -0.242831 0)
(-3.41172 -0.252266 -7.59241e-20)
(-3.35667 -0.261003 0)
(-3.29929 -0.269049 0)
(-3.23969 -0.276411 0)
(-3.178 -0.283097 -1.22625e-19)
(-3.11432 -0.289118 -5.67048e-20)
(-3.04879 -0.294486 -5.26037e-20)
(-2.98152 -0.299215 9.80423e-20)
(-2.91262 -0.303321 -4.53637e-20)
(-2.84223 -0.30682 3.98118e-20)
(-2.77046 -0.309731 0)
(-2.69744 -0.312074 -3.08891e-20)
(-2.62327 -0.313869 0)
(-2.54807 -0.315138 0)
(-2.47197 -0.315903 0)
(-2.39506 -0.316188 -2.5491e-20)
(-2.31747 -0.316018 8.4859e-21)
(-2.23929 -0.315417 4.76887e-21)
(-2.16064 -0.31441 -2.97891e-21)
(-2.08161 -0.31302 -2.10012e-20)