/*--------------------------------*- C++ -*----------------------------------*\
  =========                 |
  \\      /  F ield         | OpenFOAM: The Open Source CFD Toolbox
   \\    /   O peration     | Website:  https://openfoam.org
    \\  /    A nd           | Version:  8
     \\/     M anipulation  |
\*---------------------------------------------------------------------------*/
FoamFile
{
    version     2.0;
    format      ascii;
    class       volVectorField;
    location    "4700";
    object      wallShearStress;
}
// * * * * * * * * * * * * * * * * * * * * * * * * * * * * * * * * * * * * * //

dimensions      [0 2 -2 0 0 0 0];

internalField   uniform (0 0 0);

boundaryField
{
    inlet
    {
        type            calculated;
        value           uniform (0 0 0);
    }
    outlet
    {
        type            calculated;
        value           uniform (0 0 0);
    }
    upperWall
    {
        type            calculated;
        value           nonuniform List<vector> 
223
(
(-0.582193 -0.392359 0)
(-0.977814 -0.219377 0)
(-0.939336 -0.0567747 0)
(-0.81071 -0.00585779 0)
(-0.734594 0.00331371 0)
(-0.695452 0.00231544 0)
(-0.670941 0.000424233 0)
(-0.653508 -0.00144879 0)
(-0.640532 -0.00256252 0)
(-0.629821 -0.00218352 0)
(-0.620058 -0.00130529 0)
(-0.610993 -0.00107838 0)
(-0.603033 -0.0013885 0)
(-0.596184 -0.00127385 0)
(-0.590434 -0.0010605 0)
(-0.585075 -0.000334637 0)
(-0.579787 0.00168715 0)
(-0.575194 0.0014147 0)
(-0.571309 0.00162525 0)
(-0.567716 0.00312828 4.27822e-22)
(-0.564342 0.00251106 0)
(-0.561642 0.00175057 0)
(-0.558903 0.00303629 0)
(-0.555755 0.00321356 4.48422e-22)
(-0.552843 0.00331365 0)
(-0.54995 0.00393377 0)
(-0.546937 0.00376721 0)
(-0.544106 0.00348255 -9.38311e-22)
(-0.541329 0.00298066 9.46219e-22)
(-0.538633 0.0025663 9.56665e-22)
(-0.535953 0.00245936 0)
(-0.533232 0.00218855 -9.78654e-22)
(-0.530575 0.00194062 0)
(-0.527935 0.00174268 1.00165e-21)
(-0.525292 0.00157373 1.01373e-21)
(-0.522641 0.00144497 -1.02629e-21)
(-0.519969 0.00134116 0)
(-0.517284 0.00125824 0)
(-0.514579 0.0011939 0)
(-0.51185 0.00114453 0)
(-0.509096 0.00110714 -1.0911e-21)
(-0.506311 0.0010793 0)
(-0.503494 0.00105929 0)
(-0.500643 0.00104581 1.13129e-21)
(-0.497753 0.00103778 0)
(-0.494823 0.00103444 1.15778e-21)
(-0.491847 0.00103492 -1.17077e-21)
(-0.488824 0.00103853 1.18352e-21)
(-0.485748 0.00104491 0)
(-0.482619 0.00105275 0)
(-0.479436 0.00106135 0)
(-0.476199 0.00106965 1.23102e-21)
(-0.472915 0.00107627 -1.24168e-21)
(-0.469594 0.00108157 0)
(-0.466252 0.00108662 0)
(-0.462905 0.00109188 0)
(-0.459561 0.00109644 0)
(-0.456227 0.0010991 0)
(-0.452904 0.00109926 0)
(-0.449586 0.00109684 0)
(-0.446268 0.00109257 0)
(-0.442936 0.00108745 1.29216e-21)
(-0.439582 0.00108261 -1.29193e-21)
(-0.436194 0.001079 0)
(-0.43276 0.00107714 0)
(-0.42927 0.00107731 0)
(-0.425715 0.00107958 -1.27855e-21)
(-0.422088 0.00108376 0)
(-0.41838 0.00108961 0)
(-0.414587 0.00109675 0)
(-0.410704 0.00110483 0)
(-0.406727 0.00111337 0)
(-0.402655 0.00112175 -2.4347e-21)
(-0.398487 0.00112964 0)
(-0.394223 0.00113633 0)
(-0.389868 0.00114136 0)
(-0.385426 0.00114452 0)
(-0.380907 0.00114569 0)
(-0.376322 0.00114476 0)
(-0.371682 0.00114142 0)
(-0.367001 0.00113543 2.0956e-21)
(-0.362288 0.00112657 0)
(-0.357551 0.00111504 0)
(-0.352794 0.00110113 0)
(-0.348021 0.00108531 -1.83992e-21)
(-0.343231 0.00106815 0)
(-0.338421 0.00105028 -1.69048e-21)
(-0.33359 0.00103237 0)
(-0.328731 0.00101532 0)
(-0.323836 0.000999837 0)
(-0.319024 0.000992016 -1.35126e-21)
(-0.316384 0.00100116 0)
(-0.313659 0.00101506 1.18078e-21)
(-0.310854 0.00102969 1.09009e-21)
(-0.307974 0.00104288 0)
(-0.30503 0.00105377 8.96391e-22)
(-0.302032 0.00106258 0)
(-0.298996 0.00106974 0)
(-0.295934 0.00107753 0)
(-0.292862 0.00108345 -4.54933e-22)
(-0.289791 0.00109684 0)
(-0.286739 0.00109571 -2.05426e-22)
(-0.283708 0.00110348 7.34606e-23)
(-0.280727 0.00111267 0)
(-0.277789 0.00111031 0)
(-0.274915 0.00111494 0)
(-0.272098 0.00110246 0)
(-0.269365 0.000991053 0)
(-0.266612 0.000937172 0)
(-0.264169 0.00101051 0)
(-0.261722 0.0013528 1.14445e-21)
(-0.259398 0.00126312 0)
(-0.256982 0.0006972 0)
(-0.254624 0.000571648 0)
(-0.252358 0.000623086 0)
(-0.250307 0.000747112 0)
(-0.248297 0.000864308 0)
(-0.246304 0.00110318 0)
(-0.24444 0.0010186 0)
(-0.242504 0.00129288 0)
(-0.240798 0.00132827 0)
(-0.23899 0.00102806 0)
(-0.237549 0.00117154 0)
(-0.236245 0.000945833 7.099e-21)
(-0.234583 0.000953061 0)
(-0.23315 0.000948794 0)
(-0.231744 0.000745866 0)
(-0.230286 0.000671261 -8.73113e-21)
(-0.228698 0.000822156 0)
(-0.227086 0.000328859 0)
(-0.225059 -0.00032246 -1.011e-20)
(-0.223189 -0.000117798 0)
(-0.221613 0.000160667 1.09452e-20)
(-0.220194 0.00018314 0)
(-0.219031 0.000194277 0)
(-0.217661 0.000371838 0)
(-0.216274 0.000368975 -1.26408e-20)
(-0.215262 0.000382 0)
(-0.214044 0.00055724 1.34527e-20)
(-0.212722 0.000444404 0)
(-0.211843 0.000298711 0)
(-0.210792 0.000386712 0)
(-0.209746 0.000374545 0)
(-0.20889 0.000479288 0)
(-0.207807 0.000550971 0)
(-0.206928 0.000522276 0)
(-0.205735 0.00092141 0)
(-0.205216 0.00104601 0)
(-0.204966 0.000797942 0)
(-0.20453 0.00068242 0)
(-0.204023 0.000699646 1.82997e-20)
(-0.203089 0.000162104 -1.88054e-20)
(-0.201847 -0.000367571 0)
(-0.200885 -0.000193706 0)
(-0.200415 -5.26305e-05 0)
(-0.199693 6.58998e-05 0)
(-0.198695 6.92268e-05 -2.10634e-20)
(-0.198356 0.000136724 2.13249e-20)
(-0.197793 0.000142589 -2.17894e-20)
(-0.19765 0.000139887 0)
(-0.196969 0.000250748 -2.26077e-20)
(-0.196467 0.000355848 -4.59494e-20)
(-0.196045 0.000396275 0)
(-0.195501 0.000345346 -4.759e-20)
(-0.195175 0.000691504 4.8235e-20)
(-0.194831 0.000860571 0)
(-0.194746 0.000707798 0)
(-0.194187 0.000464061 0)
(-0.193913 0.000382174 0)
(-0.193621 0.000482766 0)
(-0.193488 0.000202106 -5.30881e-20)
(-0.193058 0.000218402 0)
(-0.192707 0.000238459 -5.48553e-20)
(-0.192088 -0.000206149 0)
(-0.191175 -0.00033631 0)
(-0.190354 -0.000104867 0)
(-0.18977 3.05082e-05 0)
(-0.188928 0.00016398 0)
(-0.188635 0.000268814 6.07971e-20)
(-0.188005 0.000511851 0)
(-0.187387 0.000655754 0)
(-0.186938 0.000214234 -6.37996e-20)
(-0.185813 1.39806e-06 0)
(-0.184839 0.000237276 0)
(-0.183919 0.000397018 0)
(-0.183294 0.00068712 6.85292e-20)
(-0.182422 0.000737738 0)
(-0.181747 0.000572887 0)
(-0.180401 0.000506125 0)
(-0.178752 0.000587749 0)
(-0.176457 0.00064986 -7.67377e-20)
(-0.174218 0.000600157 0)
(-0.171079 0.000682387 0)
(-0.166973 0.00079136 0)
(-0.162886 0.000974568 8.76194e-20)
(-0.156167 0.00128127 0)
(-0.149145 0.00220505 0)
(-0.123857 0.00219824 -1.07954e-19)
(-0.141565 0.00667803 0)
(-0.169552 0.0131841 1.2555e-17)
(-0.187097 0.0170732 2.35182e-17)
(-0.193266 0.0188676 2.27688e-17)
(-0.196745 0.01965 2.20219e-17)
(-0.200984 0.0203029 2.11403e-17)
(-0.205473 0.0210203 -2.02475e-17)
(-0.209737 0.0215301 -1.95273e-17)
(-0.213919 0.0218783 -6.01853e-36)
(-0.218117 0.022019 -3.66587e-17)
(-0.220234 0.0221797 -1.80753e-17)
(-0.224687 0.0227181 1.02315e-33)
(-0.227506 0.0229018 -1.20371e-35)
(-0.23105 0.0233621 -3.22797e-17)
(-0.235337 0.0239348 -3.06864e-17)
(-0.242338 0.0247791 -2.84667e-17)
(-0.249518 0.0254449 0)
(-0.256861 0.0260683 4.94055e-17)
(-0.263911 0.0266478 2.26468e-17)
(-0.272753 0.0274465 1.20371e-35)
(-0.282656 0.0283573 -3.48629e-17)
(-0.291216 0.0289993 -1.58051e-20)
(-0.300881 0.0295777 -3.00927e-36)
(-0.304436 0.0304166 1.34857e-17)
(-0.332562 0.0321495 -7.62913e-18)
)
;
    }
    lowerWall
    {
        type            calculated;
        value           nonuniform List<vector> 
250
(
(-0.653909 0.466638 0)
(-1.14095 0.204678 0)
(-1.03492 0.0379587 0)
(-0.869573 -0.000935979 0)
(-0.786941 -0.00419162 0)
(-0.746063 -0.00160781 0)
(-0.719878 0.00041618 0)
(-0.700645 -0.000651801 0)
(-0.685088 -0.00405596 0)
(-0.671318 -0.00471226 0)
(-0.658932 -0.00298828 0)
(-0.64772 -0.000864308 0)
(-0.637516 0.001426 0)
(-0.628189 0.00210382 0)
(-0.61932 0.00136788 0)
(-0.611521 0.00135746 0)
(-0.60458 0.0016958 0)
(-0.605068 0.00194301 0)
(-0.00426045 -0.0228579 0)
(-0.00275887 -0.0176425 0)
(-0.000676895 -0.0144932 0)
(0.00194468 -0.0137777 9.02335e-20)
(0.00526917 -0.0151983 -7.86259e-20)
(0.00896207 -0.0208213 6.28555e-20)
(0.0127407 -0.020087 -4.8479e-20)
(0.0256276 -0.0633159 0)
(-0.0840667 -0.144715 0)
(0.000872711 -0.00384068 0)
(-0.00766532 0.00954649 0)
(-0.00851612 0.0328214 0)
(-0.00254947 0.044855 0)
(0.00295329 0.0442615 1.82238e-20)
(0.00618267 0.036063 -1.89673e-20)
(0.00818717 0.024161 0)
(0.00946046 0.0101605 -5.42334e-20)
(0.00943163 -0.00404258 6.11478e-20)
(0.00793324 -0.0174226 0)
(0.00614119 -0.0291952 0)
(0.0043817 -0.0385629 0)
(0.00268715 -0.0451402 0)
(0.000985966 -0.0488797 0)
(-0.000885197 -0.0495149 0)
(-0.00282058 -0.0464084 0)
(-0.00437907 -0.0399029 0)
(-0.00492624 -0.0308269 0)
(0.00132865 -0.00151225 0)
(0.00133801 0.00652723 0)
(-0.0045092 0.00961858 0)
(-0.00959715 0.00975646 0)
(-0.0133831 0.00829948 0)
(-0.0158893 0.00623517 0)
(-0.0172643 0.00409758 1.49588e-21)
(-0.0177829 0.00200605 -1.52749e-21)
(-0.0173314 -7.08453e-06 0)
(-0.0160538 -0.00168635 -1.65324e-21)
(-0.0141883 -0.00283765 0)
(-0.0120503 -0.00329653 0)
(-0.0100505 -0.00303594 -0)
(-0.00855288 -0.00228031 2.57057e-21)
(-0.00761622 -0.00142308 0)
(-0.00693791 -0.000815877 0)
(-0.0061204 -0.000623459 -3.37858e-21)
(-0.00499275 -0.0010005 0)
(-0.00340837 -0.00238601 0)
(-0.000488414 -0.00505766 0)
(0.00436097 -0.00740368 3.03332e-21)
(0.00994591 -0.00889516 0)
(0.0158469 -0.00984997 1.46927e-21)
(0.0218923 -0.0106169 0)
(0.0280981 -0.0112689 -0)
(0.0344085 -0.0115143 8.44769e-22)
(0.0405409 -0.0113546 0)
(0.0491488 -0.0116033 -7.54099e-22)
(0.058939 -0.0117553 -0)
(0.0686331 -0.0115827 7.70757e-22)
(0.078042 -0.0111689 0)
(0.087015 -0.0105841 0)
(0.0954593 -0.00989003 0)
(0.103317 -0.00913655 -0)
(0.110564 -0.00836068 0)
(0.117197 -0.00758951 -8.11207e-22)
(0.12323 -0.00684033 -0)
(0.128686 -0.00612261 1.63319e-21)
(0.133591 -0.00544045 0)
(0.137973 -0.00479414 -1.63506e-21)
(0.141859 -0.00418207 -0)
(0.145271 -0.00360139 -0)
(0.148232 -0.00304948 1.62115e-21)
(0.150758 -0.00252415 0)
(0.152864 -0.00202409 1.60093e-21)
(0.154561 -0.00155027 -1.58761e-21)
(0.155863 -0.00110624 -0)
(0.156782 -0.000698806 -1.555e-21)
(0.157328 -0.000337861 -1.53596e-21)
(0.157514 -3.98283e-05 -0)
(0.157408 0.000194796 0)
(0.157077 0.000391516 0)
(0.156523 0.000568229 0)
(0.155761 0.00073114 -0)
(0.154801 0.000884195 1.37589e-21)
(0.153649 0.00102832 0)
(0.152312 0.00116401 -1.30711e-21)
(0.150799 0.00129167 -0)
(0.149116 0.00141132 -0)
(0.147271 0.00152289 1.19066e-21)
(0.145272 0.00162642 0)
(0.143126 0.00172193 -1.10496e-21)
(0.140842 0.0018093 -0)
(0.138429 0.00188865 0)
(0.135895 0.00195992 -0)
(0.13325 0.00202315 9.16929e-22)
(0.130501 0.0020785 0)
(0.127659 0.00212604 -0)
(0.124733 0.00216597 7.63886e-22)
(0.121732 0.00219839 0)
(0.118665 0.00222355 6.5735e-22)
(0.115542 0.00224181 0)
(0.11237 0.00225315 0)
(0.10916 0.002258 0)
(0.105919 0.00225673 -4.36269e-22)
(0.102657 0.00224959 -0)
(0.0993802 0.00223699 0)
(0.0960978 0.00221928 -2.65673e-22)
(0.0928166 0.00219696 -2.08224e-22)
(0.0895437 0.00217023 -0)
(0.0862856 0.00213909 -9.27451e-23)
(0.0830487 0.00210335 -0)
(0.0798397 0.00206287 4.64115e-23)
(0.0766645 0.00201833 -0)
(0.073529 0.00197164 2.78752e-22)
(0.0704371 0.00192515 0)
(0.0673913 0.00187998 -5.11592e-22)
(0.0643945 0.0018345 -0)
(0.0614501 0.00178529 0)
(0.0585646 0.00173323 -0)
(0.0557408 0.00168634 9.78171e-22)
(0.0529762 0.00164968 0)
(0.0502697 0.00161954 -1.21378e-21)
(0.0476231 0.00159462 0)
(0.045785 0.00160309 1.47547e-21)
(0.0442424 0.00162123 1.63398e-21)
(0.0427034 0.00162582 1.79888e-21)
(0.0411761 0.00161307 0)
(0.0396656 0.00158972 0)
(0.0381719 0.00156402 0)
(0.0366937 0.00153821 0)
(0.0352308 0.00151249 0)
(0.0337837 0.00148687 0)
(0.0323529 0.0014614 0)
(0.0309387 0.00143618 0)
(0.0295418 0.00141136 -3.6916e-21)
(0.0281624 0.00138716 -3.96722e-21)
(0.0268007 0.00136372 0)
(0.0254569 0.00134073 0)
(0.0241314 0.00131667 0)
(0.0228257 0.00129176 -5.26709e-21)
(0.0215396 0.00126757 0)
(0.0202728 0.00124392 0)
(0.0190259 0.00122082 0)
(0.0177986 0.0011984 0)
(0.016591 0.00117667 7.53555e-21)
(0.0154031 0.00115571 0)
(0.014235 0.00113562 0)
(0.0130865 0.0011165 -9.45418e-21)
(0.0119574 0.00109839 1.02317e-20)
(0.0108479 0.00108137 0)
(0.00975776 0.00106575 1.20677e-20)
(0.00868698 0.00105215 0)
(0.00763515 0.00104177 -1.44058e-20)
(0.0066016 0.00103487 0)
(0.00558602 0.00103047 0)
(0.00458831 0.00102825 0)
(0.0036081 0.00102853 0)
(0.00264491 0.00103156 0)
(0.00169921 0.00103728 5.5702e-20)
(0.000772487 0.00104287 6.42097e-20)
(-0.000137283 0.00103019 0)
(-0.00103453 0.000987397 0)
(-0.00191631 0.000935016 0)
(-0.00278259 0.000885525 -5.28956e-20)
(-0.00363328 0.000840606 0)
(-0.00446815 0.000799857 0)
(-0.0052876 0.000762797 0)
(-0.00609223 0.000728921 -4.04197e-20)
(-0.00688255 0.000697776 3.83693e-20)
(-0.00765911 0.000668986 0)
(-0.00842234 0.00064224 0)
(-0.00917271 0.000617296 3.36207e-20)
(-0.00991065 0.000593955 3.23805e-20)
(-0.0106366 0.000572051 0)
(-0.011351 0.000551452 0)
(-0.0120542 0.000532041 -2.93548e-20)
(-0.0127467 0.000513721 2.8527e-20)
(-0.0134288 0.000496416 0)
(-0.0141011 0.000480056 0)
(-0.014764 0.00046457 2.64371e-20)
(-0.0154179 0.000449914 0)
(-0.0160632 0.000436041 0)
(-0.0167004 0.000422909 2.47916e-20)
(-0.01733 0.00041048 0)
(-0.0179523 0.000398717 2.38755e-20)
(-0.018568 0.000387595 0)
(-0.0191774 0.00037708 0)
(-0.019781 0.000367142 0)
(-0.0203792 0.000357753 -2.23595e-20)
(-0.0209726 0.000348868 0)
(-0.0215614 0.000340463 0)
(-0.0221463 0.000332469 0)
(-0.0227272 0.000324822 0)
(-0.0233046 0.000317461 0)
(-0.0238784 0.000310254 0)
(-0.0244485 0.000303057 -2.03861e-20)
(-0.0250145 0.000295679 -2.01557e-20)
(-0.0255755 0.000287858 0)
(-0.0261304 0.000279211 0)
(-0.0266768 0.000269163 0)
(-0.027211 0.000257014 1.93608e-20)
(-0.0277283 0.000241558 0)
(-0.0282203 0.00022132 -3.81354e-20)
(-0.0286772 0.000192254 3.79292e-20)
(-0.0290701 0.000152631 3.78201e-20)
(-0.0294014 7.79171e-05 -3.78585e-20)
(-0.0294833 -3.93694e-05 3.80456e-20)
(-0.0295078 -0.000356536 -3.83978e-20)
(-0.0279734 -0.000616865 0)
(-0.0293459 -0.000516215 -2.43317e-18)
(-0.0327697 -0.00134238 -2.26976e-18)
(-0.0364135 -0.00203338 -3.00927e-36)
(-0.0395341 -0.00257608 -4.06087e-18)
(-0.0424843 -0.00301862 -7.75778e-18)
(-0.0455565 -0.00342184 -3.7196e-18)
(-0.0487796 -0.00381925 3.56797e-18)
(-0.0521099 -0.00429728 -9.0278e-35)
(-0.0556064 -0.00470125 3.00927e-36)
(-0.0592986 -0.00508748 3.15313e-18)
(-0.063247 -0.00549013 3.01798e-18)
(-0.0674455 -0.00582175 6.01853e-36)
(-0.0719293 -0.00623463 0)
(-0.0767414 -0.00669836 0)
(-0.0819306 -0.00719613 -4.64085e-35)
(-0.0875479 -0.00774122 1.29916e-34)
(-0.0936641 -0.00834398 8.42594e-35)
(-0.100333 -0.00900836 -4.15808e-18)
(-0.107696 -0.00972966 -3.81229e-18)
(-0.116757 -0.0106231 1.20371e-35)
(-0.127574 -0.0116266 6.13684e-18)
(-0.138428 -0.0127335 1.03494e-17)
(-0.153652 -0.0139267 0)
(-0.162851 -0.0152937 -5.09811e-18)
(-0.191965 -0.0169814 -2.70834e-35)
)
;
    }
    frontAndBack
    {
        type            empty;
    }
}


// ************************************************************************* //
