/*--------------------------------*- C++ -*----------------------------------*\
  =========                 |
  \\      /  F ield         | OpenFOAM: The Open Source CFD Toolbox
   \\    /   O peration     | Website:  https://openfoam.org
    \\  /    A nd           | Version:  8
     \\/     M anipulation  |
\*---------------------------------------------------------------------------*/
FoamFile
{
    version     2.0;
    format      ascii;
    class       volScalarField;
    location    "4300";
    object      p;
}
// * * * * * * * * * * * * * * * * * * * * * * * * * * * * * * * * * * * * * //

dimensions      [0 2 -2 0 0 0 0];

internalField   nonuniform List<scalar> 
12225
(
514.676
55.5278
2.36342
0.281307
-1.89916
-3.37471
-3.81195
-4.02235
-4.2321
-4.369
-4.41614
-4.42576
-4.42875
-4.45671
-4.51009
-4.57653
-4.72189
-4.9444
-122.179
0.23851
-2.7188
-0.765488
-2.21686
-3.5253
-3.95302
-4.13712
-4.2808
-4.38479
-4.45971
-4.51803
-4.56897
-4.60134
-4.62227
-4.6478
-4.7144
-4.80839
-200.646
-16.1488
-2.34682
-0.358711
-1.90119
-3.24518
-3.77258
-4.02282
-4.1955
-4.31976
-4.41245
-4.47965
-4.52828
-4.5535
-4.56855
-4.58409
-4.61595
-4.59911
-110.617
-10.9745
-2.17752
-0.432419
-1.78812
-3.0292
-3.60168
-3.90886
-4.11813
-4.26393
-4.3663
-4.43698
-4.48569
-4.51427
-4.53159
-4.53941
-4.53836
-4.46966
-61.5732
-8.14624
-3.62298
-1.21042
-2.01564
-2.99875
-3.52964
-3.84941
-4.07191
-4.2266
-4.33423
-4.40888
-4.46024
-4.49135
-4.50662
-4.50399
-4.47779
-4.38763
-45.7312
-8.78568
-5.25919
-2.20076
-2.43039
-3.10154
-3.537
-3.83397
-4.04995
-4.20377
-4.31283
-4.38955
-4.44199
-4.47291
-4.48445
-4.47369
-4.43361
-4.33905
-35.7951
-9.27694
-6.38098
-3.1252
-2.92241
-3.2905
-3.6044
-3.8553
-4.05072
-4.1959
-4.30188
-4.37767
-4.42928
-4.45901
-4.46793
-4.45332
-4.40933
-4.32227
-27.7785
-8.90772
-6.97444
-3.80346
-3.36248
-3.49932
-3.70139
-3.90087
-4.07023
-4.2025
-4.30226
-4.37501
-4.42492
-4.45376
-4.46209
-4.44778
-4.40679
-4.33205
-21.6906
-8.52068
-7.13515
-4.31133
-3.72978
-3.70693
-3.81722
-3.96558
-4.10588
-4.22215
-4.31321
-4.38128
-4.42873
-4.45667
-4.46537
-4.45341
-4.4184
-4.35741
-16.6133
-8.14135
-7.08881
-4.75622
-4.08409
-3.9353
-3.96018
-4.05363
-4.15999
-4.2562
-4.33566
-4.39727
-4.4415
-4.46868
-4.47886
-4.47137
-4.44544
-4.40095
-12.6396
-7.68155
-6.90683
-5.10253
-4.40772
-4.17128
-4.12288
-4.16244
-4.23263
-4.306
-4.37159
-4.42532
-4.46582
-4.49262
-4.50562
-4.50478
-4.4905
-4.46433
-9.6997
-7.14947
-6.62993
-5.32736
-4.67957
-4.39809
-4.29542
-4.28769
-4.32287
-4.37253
-4.42305
-4.46808
-4.50474
-4.5318
-4.54897
-4.55656
-4.55566
-4.54837
-7.66675
-6.60542
-6.30671
-5.43235
-4.88402
-4.59823
-4.46462
-4.42147
-4.42676
-4.45454
-4.49052
-4.52712
-4.56044
-4.58862
-4.61113
-4.62834
-4.64141
-4.65232
-6.37167
-6.11376
-5.98644
-5.44109
-5.01668
-4.7585
-4.61707
-4.55341
-4.53741
-4.548
-4.57208
-4.60192
-4.63318
-4.66361
-4.69237
-4.71961
-4.7462
-4.77355
-5.62343
-5.72311
-5.70976
-5.3916
-5.08668
-4.87377
-4.74256
-4.67301
-4.64601
-4.64622
-4.66286
-4.68897
-4.72024
-4.75426
-4.78991
-4.82694
-4.86575
-4.90709
-5.24412
-5.46092
-5.50885
-5.32829
-5.11577
-4.94871
-4.83643
-4.77144
-4.74276
-4.7399
-4.75457
-4.78085
-4.81479
-4.85394
-4.89692
-4.94311
-4.9924
-5.04496
-5.10288
-5.34502
-5.41769
-5.29969
-5.13566
-4.99654
-4.89888
-4.84098
-4.81587
-4.81568
-4.83353
-4.86412
-4.90372
-4.94977
-5.00067
-5.05546
-5.11363
-5.17496
-5.14061
-5.40082
-5.47491
-5.34876
-5.17494
-5.0292
-4.92893
-4.87172
-4.8498
-4.85464
-4.87883
-4.91667
-4.96405
-5.01813
-5.07704
-5.13957
-5.20495
-5.27276
-5.3929
-5.65526
-5.69095
-5.47581
-5.22658
-5.03619
-4.91507
-4.85199
-4.83294
-4.84522
-4.87887
-4.92671
-4.98386
-5.04707
-5.11425
-5.18404
-5.25566
-5.32867
-6.00228
-6.13708
-6.04284
-5.63531
-5.2473
-4.98752
-4.84098
-4.77604
-4.76652
-4.79289
-4.84147
-4.90333
-4.97288
-5.04672
-5.12278
-5.19987
-5.27733
-5.35495
-7.2499
-6.88972
-6.49438
-5.76206
-5.18327
-4.85313
-4.69651
-4.64635
-4.66028
-4.71081
-4.78106
-4.86111
-4.94545
-5.03102
-5.11628
-5.20049
-5.28338
-5.36507
-9.64141
-7.96479
-6.9828
-5.77207
-4.97973
-4.61232
-4.48209
-4.47384
-4.5287
-4.61404
-4.71183
-4.81301
-4.91317
-5.01049
-5.10442
-5.19501
-5.2825
-5.36747
-13.9826
-9.39127
-7.40337
-5.56974
-4.59494
-4.26437
-4.21521
-4.27984
-4.39198
-4.51947
-4.64762
-4.7702
-4.88535
-4.99294
-5.09396
-5.18945
-5.28026
-5.36742
-20.8902
-10.9542
-7.5544
-5.05745
-4.01606
-3.83603
-3.93014
-4.09426
-4.27236
-4.44321
-4.5998
-4.74115
-4.86836
-4.98341
-5.089
-5.18738
-5.27985
-5.36783
-29.7368
-11.9496
-7.03374
-4.12634
-3.26426
-3.37817
-3.67124
-3.94699
-4.18928
-4.39729
-4.5759
-4.73031
-4.86502
-4.98392
-5.09125
-5.19049
-5.28281
-5.37017
-43.1067
-12.6142
-5.47302
-2.72918
-2.41348
-2.96366
-3.48447
-3.86256
-4.15378
-4.38604
-4.57779
-4.73798
-4.87475
-4.99284
-5.09922
-5.1977
-5.28866
-5.37471
-84.5997
-17.3737
-3.66433
-1.26567
-1.69625
-2.72206
-3.43641
-3.87014
-4.17362
-4.41069
-4.6066
-4.76796
-4.89999
-5.00986
-5.11174
-5.20689
-5.29261
-5.37717
-177.886
-26.8498
-3.6804
-0.770457
-1.53534
-2.8433
-3.61432
-4.01546
-4.27124
-4.46721
-4.65093
-4.81576
-4.95289
-5.05305
-5.14201
-5.2291
-5.30305
-5.38001
-154.791
-9.62752
-3.27263
-1.06854
-1.84335
-3.22112
-3.91393
-4.22523
-4.41767
-4.55911
-4.70208
-4.85393
-5.00585
-5.12085
-5.2158
-5.3045
-5.36939
-5.44105
428.057
66.6053
7.05572
1.59917
-0.915849
-2.85717
-3.6532
-3.9949
-4.31046
-4.57709
-4.70752
-4.75516
-4.80049
-4.90094
-5.01508
-5.1195
-5.24163
-5.34097
-8.52583
-8.513
-8.50236
-8.54373
-8.63677
-8.74047
-8.82039
-8.8604
-8.86405
-8.84638
-8.81897
-8.79039
-8.76872
-8.75991
-8.76492
-8.77756
-8.78877
-8.79391
-8.79314
-8.79107
-8.79557
-8.82827
-8.9185
-9.08985
-9.34287
-9.66064
-10.0318
-10.4456
-10.8866
-11.3387
-11.7866
-12.2186
-12.6253
-13.0001
-13.3388
-13.6387
-13.8991
-14.1198
-14.3015
-14.4454
-14.5525
-14.6244
-14.6623
-14.6676
-14.6416
-14.5857
-14.5015
-14.3913
-14.2564
-14.0945
-13.9031
-13.6834
-13.4383
-13.1692
-12.8776
-12.5646
-12.2311
-11.8782
-11.5069
-11.1182
-10.7133
-10.2932
-9.85915
-9.41221
-8.9536
-8.4845
-8.0061
-7.51962
-7.02625
-6.52716
-6.02352
-5.51647
-5.00713
-4.49658
-3.98585
-3.47596
-2.96786
-2.46245
-1.96061
-1.46314
-0.970793
-0.484274
-0.00422782
0.468754
0.934135
1.39143
1.84022
2.28012
2.71083
3.13208
3.54367
3.94543
4.33717
4.71888
5.0908
5.45293
5.80481
6.14606
6.47665
6.79683
7.10682
7.40685
7.69708
7.97772
8.24893
8.51092
8.7639
9.00809
9.24371
9.47097
9.69008
9.90129
10.1049
10.301
10.49
10.6721
10.8475
11.0164
11.1792
11.336
11.487
11.6324
11.7726
11.9076
12.0378
12.1632
12.2841
12.4007
12.5132
12.6216
12.7262
12.8273
12.9253
13.02
13.1114
13.1997
13.285
13.3675
13.4473
13.5245
13.5992
13.6715
13.7415
13.8094
13.8752
13.939
14.0008
14.0608
14.1189
14.1753
14.2301
14.2832
14.3347
14.3847
14.4332
14.4802
14.5258
14.57
14.6127
14.6542
14.6942
14.733
14.7704
14.8066
14.8414
14.875
14.9075
14.9387
14.9688
14.998
15.0263
15.0541
15.0815
15.1092
15.1379
15.1687
15.2041
15.2457
15.3036
15.3641
-8.58327
-8.61453
-8.68849
-8.78209
-8.88556
-8.97776
-9.03901
-9.06339
-9.04634
-8.98588
-8.89612
-8.79929
-8.71767
-8.66639
-8.64433
-8.64113
-8.65069
-8.67613
-8.71141
-8.73165
-8.75599
-8.83396
-8.99371
-9.23328
-9.54016
-9.91114
-10.3369
-10.7971
-11.2699
-11.7377
-12.1879
-12.611
-13.0008
-13.3533
-13.6668
-13.9411
-14.1764
-14.374
-14.5348
-14.6601
-14.751
-14.8087
-14.8341
-14.8282
-14.7917
-14.7253
-14.6295
-14.5042
-14.3499
-14.1699
-13.9678
-13.7439
-13.4972
-13.2279
-12.9367
-12.6243
-12.2915
-11.9394
-11.5689
-11.181
-10.7768
-10.3573
-9.92384
-9.47742
-9.01926
-8.55052
-8.07241
-7.58613
-7.09287
-6.59382
-6.09014
-5.58296
-5.07341
-4.56256
-4.05147
-3.54113
-3.0325
-2.5265
-2.02399
-1.52578
-1.03263
-0.545251
-0.0642905
0.409652
0.876033
1.33436
1.7842
2.22514
2.65685
3.07902
3.49139
3.8937
4.28576
4.66744
5.03883
5.40014
5.75157
6.09315
6.42472
6.74618
7.05757
7.35901
7.65066
7.93268
8.20527
8.46861
8.7229
8.96837
9.20525
9.43377
9.65415
9.86661
10.0714
10.2688
10.4589
10.6422
10.8187
10.9887
11.1526
11.3104
11.4624
11.6089
11.75
11.886
12.0172
12.1437
12.2657
12.3834
12.4969
12.6065
12.7122
12.814
12.9121
13.0068
13.0984
13.1869
13.2725
13.3552
13.4353
13.5128
13.5878
13.6604
13.7308
13.7989
13.865
13.9291
13.9912
14.0515
14.1099
14.1666
14.2216
14.275
14.3267
14.377
14.4257
14.4729
14.5187
14.5631
14.6061
14.6477
14.6879
14.7268
14.7644
14.8007
14.8358
14.8695
14.9021
14.9334
14.9637
14.993
15.0215
15.0493
15.0769
15.1046
15.1334
15.1641
15.1989
15.2385
15.2921
15.342
-8.7103
-8.79213
-8.9101
-9.01592
-9.09881
-9.15266
-9.17328
-9.15946
-9.10988
-9.02679
-8.91926
-8.80387
-8.70411
-8.63956
-8.61081
-8.60599
-8.625
-8.68172
-8.78533
-8.93238
-9.12271
-9.36347
-9.6575
-9.99663
-10.3687
-10.7644
-11.1738
-11.5851
-11.9877
-12.3743
-12.7402
-13.0817
-13.3961
-13.6817
-13.9375
-14.1629
-14.3579
-14.5224
-14.6567
-14.7611
-14.836
-14.8817
-14.8988
-14.8876
-14.8485
-14.7821
-14.6886
-14.568
-14.4204
-14.2467
-14.0484
-13.8264
-13.5813
-13.3137
-13.0242
-12.7136
-12.3827
-12.0324
-11.6637
-11.2774
-10.8748
-10.4568
-10.0246
-9.5794
-9.12227
-8.65442
-8.17706
-7.69139
-7.19858
-6.69984
-6.19633
-5.68918
-5.17953
-4.66846
-4.15701
-3.6462
-3.13699
-2.6303
-2.127
-1.62792
-1.1338
-0.64538
-0.163303
0.311825
0.779456
1.2391
1.69031
2.13269
2.56592
2.9897
3.40379
3.80799
4.20216
4.5862
4.96009
5.32383
5.67746
6.02099
6.35438
6.67764
6.99084
7.29409
7.58754
7.87135
8.1457
8.41079
8.66681
8.91398
9.15252
9.38266
9.60463
9.81865
10.025
10.2238
10.4154
10.6001
10.778
10.9493
11.1145
11.2736
11.4269
11.5746
11.7169
11.854
11.9861
12.1134
12.2362
12.3546
12.4688
12.579
12.6853
12.7878
12.8869
12.9827
13.0753
13.1648
13.2513
13.3349
13.4157
13.494
13.5697
13.643
13.7141
13.7829
13.8496
13.9142
13.9768
14.0376
14.0965
14.1537
14.2092
14.2629
14.3151
14.3657
14.4148
14.4624
14.5085
14.5532
14.5965
14.6384
14.6789
14.7181
14.756
14.7925
14.8277
14.8617
14.8944
14.926
14.9564
14.9859
15.0144
15.0423
15.0699
15.0976
15.1261
15.1562
15.1897
15.2263
15.2737
15.3073
-8.74972
-8.84716
-8.94843
-9.03495
-9.09939
-9.13909
-9.15155
-9.13414
-9.08687
-9.01476
-8.92903
-8.84647
-8.78527
-8.75828
-8.77041
-8.82371
-8.92209
-9.0692
-9.26564
-9.50641
-9.78267
-10.0872
-10.4141
-10.7569
-11.1103
-11.4691
-11.8279
-12.1815
-12.5254
-12.8554
-13.1684
-13.4615
-13.7326
-13.98
-14.2026
-14.3994
-14.5698
-14.7134
-14.83
-14.9195
-14.982
-15.0176
-15.0263
-15.0082
-14.9635
-14.8924
-14.7953
-14.6724
-14.5242
-14.3513
-14.1544
-13.934
-13.6905
-13.4245
-13.1367
-12.8278
-12.4986
-12.1499
-11.7826
-11.3978
-10.9965
-10.5796
-10.1485
-9.70412
-9.24768
-8.78039
-8.30342
-7.81797
-7.32524
-6.82641
-6.32266
-5.81512
-5.30494
-4.79318
-4.28092
-3.76917
-3.2589
-2.75103
-2.24645
-1.74597
-1.25037
-0.760374
-0.276641
0.200219
0.669651
1.13115
1.58428
2.02864
2.46389
2.88974
3.30594
3.71231
4.1087
4.49502
4.87124
5.2373
5.59318
5.93888
6.27438
6.59973
6.915
7.22032
7.51582
7.80166
8.07802
8.34508
8.60305
8.85214
9.09256
9.32454
9.5483
9.76408
9.97211
10.1726
10.3659
10.5522
10.7317
10.9046
11.0712
11.2316
11.3863
11.5353
11.6788
11.8172
11.9505
12.079
12.203
12.3225
12.4378
12.549
12.6563
12.7599
12.86
12.9568
13.0504
13.1408
13.2282
13.3127
13.3944
13.4734
13.5499
13.6239
13.6956
13.7651
13.8324
13.8976
13.9609
14.0222
14.0817
14.1393
14.1953
14.2495
14.3021
14.3532
14.4027
14.4506
14.4971
14.5422
14.5858
14.628
14.6689
14.7083
14.7465
14.7832
14.8187
14.8529
14.8858
14.9176
14.9481
14.9776
15.0062
15.0341
15.0615
15.0889
15.1168
15.1457
15.177
15.2095
15.2489
15.2675
-8.53785
-8.62276
-8.72286
-8.81996
-8.89731
-8.95004
-8.97712
-8.97939
-8.96132
-8.9312
-8.90111
-8.88505
-8.89579
-8.94291
-9.03261
-9.16801
-9.34923
-9.57169
-9.82695
-10.107
-10.4062
-10.7206
-11.0456
-11.3763
-11.7083
-12.038
-12.3619
-12.6769
-12.9803
-13.2696
-13.5428
-13.7982
-14.0345
-14.2503
-14.4447
-14.6168
-14.7659
-14.8915
-14.993
-15.0701
-15.1226
-15.1503
-15.1528
-15.1303
-15.0825
-15.0096
-14.9116
-14.7886
-14.641
-14.4692
-14.2735
-14.0544
-13.8123
-13.5478
-13.2615
-12.9541
-12.6263
-12.279
-11.913
-11.5294
-11.1292
-10.7134
-10.283
-9.83935
-9.38346
-8.91657
-8.43985
-7.95451
-7.46173
-6.9627
-6.4586
-5.95058
-5.43977
-4.92727
-4.41412
-3.90136
-3.38996
-2.88086
-2.37493
-1.87301
-1.37587
-0.884245
-0.398797
0.0798556
0.551154
1.01459
1.46972
1.91615
2.35351
2.78153
3.19995
3.60858
4.00726
4.3959
4.77441
5.14276
5.5009
5.84884
6.18657
6.51414
6.83164
7.13917
7.43687
7.72489
8.00341
8.2726
8.53267
8.78382
9.02629
9.26029
9.48603
9.70376
9.91369
10.1161
10.3111
10.4992
10.6803
10.8549
11.0231
11.1852
11.3414
11.4919
11.6369
11.7767
11.9115
12.0414
12.1666
12.2874
12.4039
12.5164
12.6249
12.7296
12.8308
12.9287
13.0232
13.1145
13.2028
13.2882
13.3707
13.4506
13.5279
13.6027
13.6752
13.7453
13.8133
13.8792
13.9431
14.005
14.0651
14.1233
14.1798
14.2346
14.2877
14.3392
14.3892
14.4376
14.4845
14.53
14.574
14.6166
14.6577
14.6975
14.736
14.773
14.8088
14.8432
14.8763
14.9082
14.9389
14.9685
14.997
15.0248
15.0519
15.0787
15.1056
15.1329
15.1615
15.1893
15.2209
15.227
-8.11789
-8.20629
-8.32723
-8.44992
-8.55515
-8.63557
-8.69388
-8.73596
-8.76944
-8.8041
-8.8509
-8.92013
-9.01985
-9.15484
-9.32733
-9.53632
-9.77714
-10.0442
-10.3322
-10.6354
-10.9483
-11.2663
-11.5853
-11.9018
-12.2131
-12.517
-12.8116
-13.0954
-13.3668
-13.6245
-13.8674
-14.0944
-14.3042
-14.4961
-14.669
-14.8222
-14.9548
-15.0661
-15.1557
-15.2228
-15.2671
-15.2881
-15.2855
-15.2591
-15.2085
-15.1338
-15.0348
-14.9116
-14.7643
-14.5932
-14.3984
-14.1804
-13.9396
-13.6765
-13.3916
-13.0856
-12.7592
-12.4133
-12.0486
-11.6663
-11.2672
-10.8523
-10.4229
-9.97995
-9.52466
-9.05822
-8.58181
-8.09661
-7.60382
-7.10464
-6.60024
-6.09177
-5.58037
-5.06713
-4.55313
-4.03939
-3.52688
-3.01656
-2.50931
-2.00595
-1.50729
-1.01405
-0.526893
-0.0464533
0.426709
0.892084
1.34922
1.7977
2.23719
2.66739
3.08803
3.49892
3.8999
4.29084
4.67166
5.04231
5.40275
5.75297
6.09298
6.42284
6.74262
7.05242
7.35239
7.64266
7.92342
8.19484
8.4571
8.71043
8.95502
9.1911
9.41889
9.63863
9.85055
10.0549
10.2519
10.4417
10.6248
10.8011
10.9711
11.1349
11.2928
11.4449
11.5915
11.7328
11.8691
12.0004
12.1271
12.2493
12.3671
12.4808
12.5906
12.6966
12.799
12.8979
12.9935
13.0858
13.1751
13.2614
13.3449
13.4257
13.5039
13.5795
13.6528
13.7238
13.7925
13.8592
13.9237
13.9864
14.0471
14.1059
14.163
14.2184
14.272
14.3241
14.3745
14.4235
14.4708
14.5167
14.5612
14.6042
14.6457
14.6859
14.7247
14.762
14.7981
14.8327
14.8661
14.8981
14.9289
14.9585
14.9869
15.0144
15.0411
15.0671
15.0928
15.1182
15.1437
15.1666
15.191
15.1864
-7.65288
-7.75156
-7.89362
-8.04241
-8.18035
-8.29898
-8.40188
-8.49838
-8.59787
-8.70928
-8.84024
-8.99562
-9.17818
-9.38837
-9.62448
-9.8844
-10.1651
-10.4621
-10.7699
-11.0836
-11.3987
-11.712
-12.0206
-12.3225
-12.6161
-12.9001
-13.1735
-13.4353
-13.6847
-13.9208
-14.1429
-14.35
-14.5413
-14.716
-14.8733
-15.0124
-15.1324
-15.2328
-15.3128
-15.3718
-15.4091
-15.4244
-15.4172
-15.387
-15.3336
-15.2568
-15.1564
-15.0324
-14.8847
-14.7136
-14.5191
-14.3017
-14.0617
-13.7994
-13.5156
-13.2107
-12.8855
-12.5407
-12.1773
-11.7961
-11.3982
-10.9845
-10.556
-10.114
-9.6596
-9.19389
-8.7181
-8.23341
-7.74101
-7.24208
-6.7378
-6.22933
-5.71778
-5.20426
-4.68985
-4.17556
-3.66238
-3.15126
-2.64307
-2.13868
-1.63885
-1.14433
-0.655799
-0.173877
0.300865
0.767912
1.2268
1.67713
2.11853
2.5507
2.97339
3.38637
3.78949
4.1826
4.56561
4.93847
5.30112
5.65356
5.9958
6.3279
6.64993
6.96199
7.26421
7.55673
7.83971
8.11334
8.3778
8.6333
8.88005
9.11825
9.34815
9.56996
9.78392
9.99026
10.1892
10.381
10.5659
10.7442
10.916
11.0815
11.2411
11.395
11.5432
11.6862
11.824
11.9569
12.085
12.2086
12.3279
12.443
12.554
12.6613
12.7649
12.865
12.9617
13.0552
13.1456
13.2329
13.3174
13.3992
13.4783
13.5549
13.629
13.7008
13.7704
13.8378
13.9031
13.9665
14.0279
14.0874
14.1452
14.2011
14.2554
14.308
14.3591
14.4085
14.4564
14.5028
14.5477
14.5911
14.6331
14.6736
14.7128
14.7505
14.7868
14.8217
14.8552
14.8874
14.9183
14.9479
14.9762
15.0034
15.0295
15.0546
15.0788
15.102
15.1242
15.1423
15.16
15.1462
-7.29724
-7.39071
-7.54275
-7.70847
-7.8753
-8.03628
-8.19088
-8.34699
-8.51285
-8.69428
-8.89531
-9.11715
-9.35839
-9.61815
-9.89586
-10.1892
-10.4944
-10.8072
-11.1232
-11.4389
-11.7514
-12.0584
-12.358
-12.649
-12.9302
-13.2008
-13.4601
-13.7075
-13.9424
-14.1641
-14.3722
-14.5658
-14.7444
-14.9071
-15.0533
-15.1822
-15.293
-15.3852
-15.4578
-15.5104
-15.5422
-15.5527
-15.5415
-15.5079
-15.4518
-15.3727
-15.2706
-15.1452
-14.9966
-14.8248
-14.6299
-14.4123
-14.1723
-13.9102
-13.6266
-13.3222
-12.9975
-12.6533
-12.2906
-11.9101
-11.5129
-11.1
-10.6724
-10.2312
-9.77761
-9.3127
-8.83766
-8.3537
-7.86197
-7.36367
-6.85995
-6.35195
-5.84081
-5.3276
-4.8134
-4.29922
-3.78605
-3.27482
-2.76641
-2.26168
-1.76139
-1.2663
-0.77707
-0.294335
0.181335
0.649422
1.10946
1.56104
2.0038
2.43742
2.86165
3.27625
3.68104
4.0759
4.46071
4.8354
5.19993
5.55429
5.89849
6.23258
6.55663
6.87073
7.17501
7.46961
7.75468
8.0304
8.29695
8.55453
8.80335
9.04363
9.27557
9.49941
9.71537
9.9237
10.1246
10.3184
10.5052
10.6853
10.8589
11.0262
11.1876
11.3431
11.4931
11.6377
11.7771
11.9115
12.0412
12.1663
12.287
12.4035
12.5159
12.6245
12.7293
12.8307
12.9286
13.0232
13.1147
13.2032
13.2887
13.3715
13.4516
13.5291
13.6042
13.6769
13.7473
13.8155
13.8817
13.9458
14.0079
14.0682
14.1266
14.1832
14.2381
14.2914
14.343
14.393
14.4414
14.4883
14.5337
14.5776
14.62
14.661
14.7005
14.7386
14.7752
14.8104
14.8441
14.8764
14.9074
14.9369
14.965
14.9918
15.0172
15.0413
15.0639
15.0848
15.1036
15.117
15.1287
15.1068
-7.10692
-7.19302
-7.34714
-7.5195
-7.7029
-7.8952
-8.093
-8.29826
-8.51556
-8.74734
-8.99388
-9.25516
-9.53111
-9.82134
-10.124
-10.4357
-10.753
-11.0724
-11.3909
-11.7059
-12.0152
-12.3172
-12.6105
-12.8941
-13.1673
-13.4293
-13.6797
-13.918
-14.1438
-14.3565
-14.5556
-14.7405
-14.9108
-15.0656
-15.2043
-15.3263
-15.4308
-15.517
-15.5844
-15.6321
-15.6597
-15.6664
-15.6518
-15.6153
-15.5567
-15.4754
-15.3714
-15.2445
-15.0945
-14.9216
-14.7259
-14.5076
-14.2669
-14.0044
-13.7206
-13.416
-13.0912
-12.7472
-12.3846
-12.0044
-11.6075
-11.195
-10.7679
-10.3273
-9.87424
-9.40999
-8.93566
-8.45241
-7.96143
-7.46387
-6.9609
-6.45365
-5.94322
-5.4307
-4.91715
-4.40357
-3.89093
-3.38017
-2.87215
-2.36772
-1.86765
-1.37267
-0.883459
-0.400633
0.0752362
0.543631
1.00408
1.45618
1.89957
2.33392
2.75897
3.1745
3.58031
3.97628
4.36228
4.73825
5.10412
5.45989
5.80557
6.1412
6.46684
6.78259
7.08857
7.38489
7.67173
7.94924
8.21761
8.47702
8.72769
8.96981
9.20361
9.4293
9.64712
9.85728
10.06
10.2556
10.4442
10.626
10.8014
10.9705
11.1335
11.2908
11.4423
11.5885
11.7295
11.8655
11.9967
12.1232
12.2454
12.3632
12.4771
12.587
12.6931
12.7957
12.8948
12.9906
13.0832
13.1728
13.2594
13.3432
13.4243
13.5028
13.5788
13.6524
13.7237
13.7928
13.8597
13.9246
13.9875
14.0485
14.1076
14.165
14.2205
14.2744
14.3266
14.3772
14.4262
14.4736
14.5195
14.5639
14.6068
14.6482
14.6881
14.7265
14.7635
14.7989
14.8329
14.8653
14.8963
14.9257
14.9536
14.9799
15.0045
15.0275
15.0485
15.0669
15.0824
15.0913
15.0975
15.0685
-7.07904
-7.16588
-7.31358
-7.48236
-7.6691
-7.87366
-8.09289
-8.3248
-8.56962
-8.82796
-9.09934
-9.3829
-9.67838
-9.98465
-10.299
-10.6184
-10.94
-11.2611
-11.5793
-11.8924
-12.1989
-12.4972
-12.7864
-13.0655
-13.3339
-13.5911
-13.8365
-14.0698
-14.2905
-14.4981
-14.6922
-14.8723
-15.0377
-15.1879
-15.3221
-15.4398
-15.5402
-15.6226
-15.6864
-15.7308
-15.7553
-15.7591
-15.7419
-15.703
-15.6421
-15.5589
-15.453
-15.3244
-15.173
-14.9988
-14.8019
-14.5825
-14.341
-14.0778
-13.7933
-13.4882
-13.1631
-12.8188
-12.4562
-12.076
-11.6793
-11.267
-10.8403
-10.4001
-9.9477
-9.48411
-9.01053
-8.52811
-8.03801
-7.54139
-7.03939
-6.53313
-6.02372
-5.51223
-4.99969
-4.48711
-3.97544
-3.4656
-2.95847
-2.45486
-1.95555
-1.46126
-0.97266
-0.490356
-0.0149152
0.453151
0.913383
1.36537
1.80875
2.24321
2.66848
3.08432
3.49056
3.88704
4.27365
4.65031
5.01696
5.3736
5.72024
6.05689
6.38365
6.70058
7.00779
7.30543
7.59363
7.87255
8.14237
8.40327
8.65546
8.89913
9.1345
9.36179
9.5812
9.79298
9.99734
10.1945
10.3847
10.5682
10.7452
10.9158
11.0805
11.2392
11.3923
11.54
11.6825
11.8199
11.9525
12.0805
12.204
12.3233
12.4384
12.5496
12.657
12.7607
12.861
12.958
13.0517
13.1424
13.23
13.3149
13.397
13.4764
13.5534
13.6279
13.7001
13.77
13.8378
13.9034
13.9671
14.0288
14.0887
14.1467
14.2029
14.2574
14.3103
14.3615
14.411
14.459
14.5054
14.5503
14.5937
14.6355
14.6758
14.7146
14.7519
14.7876
14.8218
14.8543
14.8853
14.9146
14.9422
14.9679
14.9918
15.0135
15.0328
15.0488
15.061
15.0657
15.067
15.0319
-7.18996
-7.26833
-7.39927
-7.55516
-7.7338
-7.9349
-8.15574
-8.39374
-8.64726
-8.91497
-9.19521
-9.48686
-9.78896
-10.0996
-10.4162
-10.7363
-11.0573
-11.377
-11.6932
-12.0041
-12.3082
-12.6042
-12.8911
-13.1681
-13.4345
-13.6897
-13.9332
-14.1646
-14.3834
-14.5891
-14.7812
-14.9593
-15.1226
-15.2707
-15.4028
-15.5183
-15.6165
-15.6967
-15.7583
-15.8006
-15.8229
-15.8247
-15.8055
-15.7647
-15.7019
-15.6169
-15.5094
-15.3792
-15.2263
-15.0508
-14.8526
-14.6321
-14.3897
-14.1256
-13.8404
-13.5348
-13.2093
-12.8648
-12.5021
-12.122
-11.7255
-11.3136
-10.8874
-10.4479
-9.99627
-9.53361
-9.06106
-8.57978
-8.09091
-7.5956
-7.09497
-6.59014
-6.0822
-5.5722
-5.06118
-4.55011
-4.03995
-3.53159
-3.02589
-2.52366
-2.02566
-1.53261
-1.04515
-0.563914
-0.0894433
0.377751
0.837214
1.28854
1.73136
2.16537
2.5903
3.00592
3.41203
3.8085
4.1952
4.57205
4.93901
5.29604
5.64316
5.98041
6.30783
6.62552
6.93358
7.23213
7.52131
7.80128
8.07221
8.33428
8.58768
8.8326
9.06926
9.29787
9.51863
9.73178
9.93753
10.1361
10.3277
10.5126
10.691
10.8631
11.0292
11.1893
11.3438
11.4929
11.6368
11.7756
11.9095
12.0388
12.1636
12.2841
12.4005
12.5129
12.6215
12.7264
12.8279
12.9259
13.0207
13.1124
13.2011
13.2869
13.37
13.4504
13.5283
13.6037
13.6767
13.7475
13.8161
13.8825
13.947
14.0094
14.07
14.1287
14.1856
14.2407
14.2942
14.346
14.3961
14.4447
14.4916
14.537
14.5808
14.6231
14.6638
14.703
14.7406
14.7766
14.8109
14.8436
14.8746
14.9037
14.931
14.9562
14.9792
14.9997
15.0171
15.0308
15.0399
15.0406
15.0374
14.9971
-7.36648
-7.43105
-7.54196
-7.68039
-7.84422
-8.03296
-8.24427
-8.47547
-8.72411
-8.98786
-9.26449
-9.55283
-9.85165
-10.1587
-10.4717
-10.7881
-11.1056
-11.4221
-11.7356
-12.0444
-12.3469
-12.6418
-12.9282
-13.205
-13.4716
-13.7272
-13.9712
-14.2032
-14.4226
-14.6288
-14.8213
-14.9996
-15.163
-15.3109
-15.4426
-15.5576
-15.6551
-15.7344
-15.7949
-15.836
-15.857
-15.8574
-15.8367
-15.7944
-15.7301
-15.6436
-15.5346
-15.403
-15.2488
-15.072
-14.8727
-14.6512
-14.4079
-14.1431
-13.8574
-13.5514
-13.2258
-12.8813
-12.5187
-12.1391
-11.7432
-11.3321
-10.9068
-10.4685
-10.0182
-9.55694
-9.08598
-8.60641
-8.11935
-7.62595
-7.12732
-6.62454
-6.11868
-5.6108
-5.10191
-4.59297
-4.08492
-3.57864
-3.07499
-2.57475
-2.07868
-1.58747
-1.10178
-0.622211
-0.149308
0.316428
0.774546
1.22464
1.66636
2.09939
2.52345
2.93833
3.34383
3.73981
4.12613
4.50273
4.86954
5.22655
5.57375
5.91119
6.23891
6.55699
6.86554
7.16467
7.45451
7.73522
8.00696
8.26991
8.52424
8.77016
9.00786
9.23755
9.45945
9.67376
9.8807
10.0805
10.2734
10.4595
10.6392
10.8125
10.9798
11.1413
11.2971
11.4475
11.5926
11.7326
11.8678
11.9983
12.1244
12.2461
12.3636
12.4772
12.5869
12.6929
12.7955
12.8946
12.9904
13.0831
13.1728
13.2596
13.3436
13.4249
13.5037
13.58
13.6538
13.7254
13.7948
13.8621
13.9272
13.9904
14.0517
14.1111
14.1686
14.2244
14.2785
14.3309
14.3816
14.4307
14.4782
14.5241
14.5684
14.6111
14.6523
14.6918
14.7298
14.766
14.8006
14.8334
14.8643
14.8933
14.9203
14.9449
14.967
14.9862
15.0019
15.0132
15.0194
15.0165
15.0092
14.9644
-7.54038
-7.59187
-7.68444
-7.80502
-7.95166
-8.1238
-8.31938
-8.53605
-8.77132
-9.02265
-9.28801
-9.56628
-9.85608
-10.1552
-10.4611
-10.7716
-11.0843
-11.397
-11.7079
-12.015
-12.317
-12.6122
-12.8996
-13.1781
-13.4468
-13.7048
-13.9514
-14.186
-14.4079
-14.6165
-14.8112
-14.9914
-15.1563
-15.3055
-15.4382
-15.5537
-15.6515
-15.7308
-15.791
-15.8316
-15.8518
-15.8513
-15.8296
-15.7861
-15.7207
-15.633
-15.5228
-15.3901
-15.2348
-15.057
-14.8569
-14.6348
-14.3909
-14.1258
-13.8401
-13.5342
-13.2089
-12.8649
-12.5032
-12.1245
-11.7298
-11.3201
-10.8965
-10.46
-10.0117
-9.55261
-9.08397
-8.60686
-8.12238
-7.63166
-7.13578
-6.63583
-6.13285
-5.62787
-5.12188
-4.61584
-4.11066
-3.60723
-3.10636
-2.60884
-2.11539
-1.62672
-1.14347
-0.666217
-0.195515
0.268148
0.724325
1.17262
1.61267
2.04418
2.46686
2.8805
3.28491
3.67992
4.06543
4.44134
4.80761
5.1642
5.51111
5.84838
6.17605
6.4942
6.80292
7.10233
7.39254
7.67372
7.94601
8.20959
8.46463
8.71132
8.94985
9.18043
9.40326
9.61856
9.82652
10.0274
10.2213
10.4086
10.5894
10.7639
10.9324
11.095
11.252
11.4035
11.5498
11.691
11.8274
11.959
12.0862
12.209
12.3277
12.4424
12.5532
12.6603
12.7638
12.864
12.9608
13.0545
13.1452
13.2329
13.3178
13.4
13.4797
13.5568
13.6315
13.7039
13.7741
13.8421
13.908
13.9719
14.0339
14.0939
14.1522
14.2086
14.2633
14.3163
14.3676
14.4172
14.4653
14.5117
14.5565
14.5997
14.6412
14.6812
14.7194
14.756
14.7907
14.8237
14.8546
14.8835
14.91
14.9341
14.9554
14.9733
14.9874
14.9965
14.9998
14.9936
14.9826
14.9341
-7.66719
-7.70936
-7.78655
-7.8905
-8.01973
-8.1738
-8.35095
-8.54923
-8.76663
-9.00095
-9.25079
-9.51544
-9.79346
-10.0826
-10.3803
-10.6843
-10.9921
-11.3016
-11.6107
-11.9174
-12.2201
-12.5172
-12.8073
-13.0891
-13.3616
-13.6237
-13.8745
-14.1132
-14.3391
-14.5515
-14.7496
-14.9327
-15.1003
-15.2517
-15.3861
-15.5029
-15.6016
-15.6814
-15.7418
-15.7822
-15.8021
-15.8011
-15.7786
-15.7343
-15.668
-15.5794
-15.4684
-15.3349
-15.1789
-15.0006
-14.8002
-14.5779
-14.3341
-14.0693
-13.7841
-13.479
-13.1547
-12.8121
-12.452
-12.0751
-11.6826
-11.2752
-10.8542
-10.4204
-9.97508
-9.51918
-9.05384
-8.58017
-8.09925
-7.61218
-7.12003
-6.62386
-6.12469
-5.62354
-5.12136
-4.6191
-4.11766
-3.61789
-3.12062
-2.62661
-2.13657
-1.65118
-1.17107
-0.696832
-0.228996
0.231952
0.685573
1.13147
1.56929
1.99873
2.41952
2.83142
3.23425
3.62786
4.01212
4.38694
4.75227
5.10807
5.45434
5.7911
6.11841
6.43632
6.74493
7.04435
7.33468
7.61608
7.8887
8.15269
8.40822
8.65549
8.89468
9.12597
9.34958
9.56571
9.77455
9.97633
10.1712
10.3595
10.5413
10.7169
10.8864
11.0501
11.2082
11.3608
11.5082
11.6505
11.788
11.9208
12.049
12.1729
12.2927
12.4084
12.5202
12.6284
12.7329
12.8341
12.9319
13.0265
13.1181
13.2068
13.2926
13.3757
13.4562
13.5341
13.6097
13.6829
13.7538
13.8226
13.8892
13.9538
14.0165
14.0772
14.1361
14.1932
14.2485
14.3021
14.354
14.4042
14.4528
14.4997
14.545
14.5887
14.6307
14.6711
14.7097
14.7465
14.7815
14.8145
14.8455
14.8742
14.9005
14.924
14.9444
14.9612
14.9736
14.9806
14.9814
14.9722
14.9579
14.9062
-7.72264
-7.7609
-7.82649
-7.91548
-8.02769
-8.16309
-8.32063
-8.49898
-8.69659
-8.91192
-9.14445
-9.39409
-9.65951
-9.9383
-10.2279
-10.5258
-10.8296
-11.1369
-11.4454
-11.7531
-12.058
-12.3583
-12.6525
-12.939
-13.2165
-13.4839
-13.74
-13.9839
-14.2148
-14.4317
-14.6339
-14.8207
-14.9914
-15.1454
-15.2819
-15.4004
-15.5002
-15.5808
-15.6416
-15.6821
-15.7019
-15.7006
-15.6777
-15.6329
-15.5661
-15.4771
-15.3657
-15.232
-15.076
-14.8978
-14.6978
-14.4761
-14.2332
-13.9696
-13.6859
-13.3826
-13.0604
-12.7202
-12.3627
-11.9889
-11.5995
-11.1957
-10.7784
-10.3486
-9.90739
-9.45581
-8.99494
-8.52586
-8.04964
-7.56735
-7.08003
-6.58872
-6.09442
-5.59811
-5.10075
-4.60325
-4.10649
-3.6113
-3.1185
-2.62884
-2.14302
-1.6617
-1.18549
-0.714987
-0.250705
0.206873
0.657311
1.10022
1.53524
1.96207
2.38043
2.79011
3.19091
3.58267
3.96527
4.3386
4.70262
5.05728
5.40258
5.73853
6.06518
6.38258
6.69082
6.99
7.28022
7.56163
7.83436
8.09858
8.35443
8.60211
8.84179
9.07366
9.29791
9.51474
9.72434
9.92693
10.1227
10.3118
10.4946
10.6711
10.8416
11.0063
11.1654
11.3191
11.4675
11.6109
11.7494
11.8833
12.0126
12.1375
12.2583
12.3751
12.4879
12.5971
12.7026
12.8047
12.9035
12.9991
13.0916
13.1811
13.2678
13.3518
13.4331
13.5119
13.5882
13.6622
13.7339
13.8035
13.8709
13.9362
13.9995
14.061
14.1205
14.1783
14.2342
14.2884
14.3409
14.3917
14.4408
14.4883
14.5341
14.5783
14.6207
14.6615
14.7005
14.7376
14.7728
14.806
14.837
14.8656
14.8916
14.9146
14.9342
14.9499
14.9608
14.966
14.9644
14.9524
14.9351
14.8808
-7.70824
-7.74293
-7.79975
-7.8749
-7.9699
-8.0856
-8.222
-8.37873
-8.55502
-8.75017
-8.9646
-9.19883
-9.45165
-9.72058
-10.0029
-10.296
-10.5971
-10.9037
-11.2134
-11.5236
-11.8322
-12.1373
-12.4367
-12.729
-13.0125
-13.286
-13.548
-13.7976
-14.0337
-14.2554
-14.4618
-14.6524
-14.8262
-14.9827
-15.1213
-15.2413
-15.3423
-15.4237
-15.485
-15.5258
-15.5458
-15.5444
-15.5215
-15.4767
-15.4099
-15.3211
-15.2101
-15.0769
-14.9217
-14.7446
-14.5458
-14.3259
-14.085
-13.8238
-13.5427
-13.2425
-12.9237
-12.5872
-12.2337
-11.8642
-11.4795
-11.0806
-10.6683
-10.2439
-9.80815
-9.36223
-8.90716
-8.44397
-7.97372
-7.49745
-7.01618
-6.5309
-6.04262
-5.55227
-5.0608
-4.56909
-4.07801
-3.58837
-3.10095
-2.61651
-2.13575
-1.65931
-1.18778
-0.721738
-0.261698
0.191855
0.638487
1.07781
1.50947
1.93316
2.34861
2.75559
3.15391
3.5434
3.92393
4.29542
4.65778
5.01098
5.355
5.68985
6.01558
6.33222
6.63986
6.93858
7.22849
7.50971
7.78239
8.04666
8.30268
8.55063
8.79067
9.02299
9.24776
9.46519
9.67546
9.87876
10.0753
10.2653
10.4489
10.6263
10.7977
10.9634
11.1235
11.2781
11.4276
11.572
11.7115
11.8463
11.9767
12.1027
12.2244
12.3422
12.4561
12.5662
12.6727
12.7758
12.8755
12.972
13.0654
13.1558
13.2434
13.3282
13.4104
13.49
13.5672
13.642
13.7144
13.7847
13.8528
13.9189
13.983
14.0451
14.1053
14.1637
14.2203
14.2751
14.3282
14.3796
14.4293
14.4773
14.5236
14.5683
14.6113
14.6524
14.6918
14.7293
14.7648
14.7982
14.8292
14.8578
14.8835
14.9061
14.925
14.9396
14.9492
14.9526
14.9488
14.9345
14.9145
14.858
-7.64453
-7.67023
-7.71634
-7.77496
-7.84971
-7.94259
-8.05481
-8.18727
-8.3402
-8.51386
-8.70965
-8.92861
-9.16955
-9.42978
-9.70631
-9.99619
-10.2964
-10.6041
-10.9164
-11.2306
-11.5443
-11.8549
-12.1605
-12.4591
-12.749
-13.0285
-13.2964
-13.5514
-13.7925
-14.0186
-14.229
-14.4228
-14.5994
-14.7582
-14.8986
-15.0201
-15.1222
-15.2044
-15.2664
-15.3078
-15.3282
-15.3273
-15.305
-15.2609
-15.1951