/*--------------------------------*- C++ -*----------------------------------*\
| =========                 |                                                 |
| \\      /  F ield         | OpenFOAM: The Open Source CFD Toolbox           |
|  \\    /   O peration     | Version:  v2012                                 |
|   \\  /    A nd           | Website:  www.openfoam.com                      |
|    \\/     M anipulation  |                                                 |
\*---------------------------------------------------------------------------*/
FoamFile
{
    version     2.0;
    format      ascii;
    class       surfaceScalarField;
    location    "4300";
    object      phi;
}
// * * * * * * * * * * * * * * * * * * * * * * * * * * * * * * * * * * * * * //

dimensions      [0 3 -1 0 0 0 0];
oriented        oriented;


internalField   nonuniform List<scalar> 
24170
(
3.92539e-06
-7.91497e-07
3.76461e-06
1.60756e-07
3.63337e-06
1.31208e-07
3.4332e-06
2.00139e-07
3.28008e-06
1.53079e-07
3.18942e-06
9.0627e-08
3.12907e-06
6.02416e-08
3.08118e-06
4.76005e-08
3.0413e-06
3.94601e-08
3.00442e-06
3.63546e-08
2.96982e-06
3.40979e-08
2.93781e-06
3.15483e-08
2.90852e-06
2.89291e-08
2.882e-06
2.62379e-08
2.85824e-06
2.35612e-08
2.83866e-06
1.95191e-08
2.83059e-06
8.16692e-09
-9.30294e-09
2.84003e-06
3.58444e-06
-9.19498e-07
3.80423e-06
-5.90405e-08
3.7428e-06
1.92621e-07
3.69054e-06
2.52364e-07
3.63725e-06
2.06336e-07
3.58984e-06
1.37981e-07
3.55258e-06
9.7377e-08
3.5238e-06
7.61633e-08
3.50041e-06
6.25221e-08
3.48094e-06
5.53831e-08
3.46387e-06
5.06872e-08
3.44837e-06
4.657e-08
3.43408e-06
4.28094e-08
3.42061e-06
3.93523e-08
3.40799e-06
3.59051e-08
3.39619e-06
3.11355e-08
3.38453e-06
1.97846e-08
3.92709e-09
3.37103e-06
3.68518e-06
-7.92482e-07
3.83638e-06
-2.1025e-07
3.91492e-06
1.14076e-07
3.94499e-06
2.22288e-07
3.94406e-06
2.07263e-07
3.92722e-06
1.54822e-07
3.90781e-06
1.16795e-07
3.89028e-06
9.37385e-08
3.87467e-06
7.82261e-08
3.86143e-06
6.87519e-08
3.84987e-06
6.23664e-08
3.83927e-06
5.72519e-08
3.82931e-06
5.28107e-08
3.81989e-06
4.87573e-08
3.81116e-06
4.45695e-08
3.80305e-06
3.91651e-08
3.79321e-06
2.95435e-08
1.76566e-08
3.77921e-06
4.05359e-06
-6.41511e-07
4.11459e-06
-2.71264e-07
4.20798e-06
2.06783e-08
4.26634e-06
1.63916e-07
4.29068e-06
1.82904e-07
4.29272e-06
1.52748e-07
4.28601e-06
1.23482e-07
4.27704e-06
1.02733e-07
4.2676e-06
8.77487e-08
4.25883e-06
7.76314e-08
4.25083e-06
7.04595e-08
4.24331e-06
6.48185e-08
4.23611e-06
6.00172e-08
4.22914e-06
5.56795e-08
4.22236e-06
5.12592e-08
4.21538e-06
4.6028e-08
4.20616e-06
3.8624e-08
3.04389e-08
4.19311e-06
4.50491e-06
-5.09115e-07
4.51536e-06
-2.81713e-07
4.58528e-06
-4.92456e-08
4.64664e-06
1.02553e-07
4.68257e-06
1.4698e-07
4.69681e-06
1.38513e-07
4.69972e-06
1.20596e-07
4.69775e-06
1.04782e-07
4.69352e-06
9.20894e-08
4.6886e-06
8.26914e-08
4.68358e-06
7.56235e-08
4.67853e-06
6.99864e-08
4.67341e-06
6.52121e-08
4.66817e-06
6.09511e-08
4.66264e-06
5.67692e-08
4.65633e-06
5.22771e-08
4.64782e-06
4.70452e-08
4.21909e-08
4.6359e-06
5.00014e-06
-3.94665e-07
4.98614e-06
-2.67712e-07
5.03068e-06
-9.37958e-08
5.08505e-06
4.81756e-08
5.12452e-06
1.07491e-07
5.14606e-06
1.16953e-07
5.15605e-06
1.10611e-07
5.15976e-06
1.01104e-07
5.16001e-06
9.19177e-08
5.15852e-06
8.42744e-08
5.15617e-06
7.8081e-08
5.15326e-06
7.29723e-08
5.14989e-06
6.86197e-08
5.14605e-06
6.47912e-08
5.14155e-06
6.1226e-08
5.13596e-06
5.7803e-08
5.12836e-06
5.45611e-08
5.24123e-08
5.11797e-06
5.54382e-06
-2.97478e-07
5.51664e-06
-2.40536e-07
5.54055e-06
-1.177e-07
5.58387e-06
4.85195e-09
5.62165e-06
6.97141e-08
5.64657e-06
9.20425e-08
5.66123e-06
9.59743e-08
5.6693e-06
9.30755e-08
5.67326e-06
8.80145e-08
5.67479e-06
8.28218e-08
5.67483e-06
7.81167e-08
5.67386e-06
7.40105e-08
5.67208e-06
7.04494e-08
5.66952e-06
6.73652e-08
5.66605e-06
6.46816e-08
5.66137e-06
6.24535e-08
5.65494e-06
6.09151e-08
6.08288e-08
5.64647e-06
4.34788e-06
-2.39245e-07
4.32251e-06
-2.15172e-07
4.33078e-06
-1.2597e-07
4.35419e-06
-1.85631e-08
4.3784e-06
4.54948e-08
4.39647e-06
7.39602e-08
4.40846e-06
8.39856e-08
4.41604e-06
8.55117e-08
4.42063e-06
8.34567e-08
4.42325e-06
8.0235e-08
4.42457e-06
7.68474e-08
4.42493e-06
7.36813e-08
4.42454e-06
7.08664e-08
4.42345e-06
6.84583e-08
4.42163e-06
6.64966e-08
4.41894e-06
6.51248e-08
4.4152e-06
6.46408e-08
6.56072e-08
4.41034e-06
5.08622e-06
-1.85603e-07
5.05777e-06
-1.86728e-07
5.0584e-06
-1.26597e-07
5.07686e-06
-3.70307e-08
5.09918e-06
2.3179e-08
5.11774e-06
5.53999e-08
5.13129e-06
7.04468e-08
5.14065e-06
7.61665e-08
5.1469e-06
7.72246e-08
5.15096e-06
7.62003e-08
5.15347e-06
7.43712e-08
5.15481e-06
7.23607e-08
5.15521e-06
7.04749e-08
5.15478e-06
6.88913e-08
5.15351e-06
6.77544e-08
5.15135e-06
6.72674e-08
5.14824e-06
6.77166e-08
6.95646e-08
5.14427e-06
5.94839e-06
-1.38198e-07
5.91832e-06
-1.5666e-07
5.91161e-06
-1.19888e-07
5.924e-06
-4.94303e-08
5.94286e-06
4.31512e-09
5.9606e-06
3.7663e-08
5.97484e-06
5.62068e-08
5.98552e-06
6.54949e-08
5.99324e-06
6.95143e-08
5.9987e-06
7.07562e-08
6.00245e-06
7.06335e-08
6.00488e-06
6.99398e-08
6.00624e-06
6.91239e-08
6.00665e-06
6.8481e-08
6.00617e-06
6.82286e-08
6.00483e-06
6.85971e-08
6.00268e-06
6.98594e-08
7.22923e-08
5.99992e-06
6.95439e-06
-9.83181e-08
6.92402e-06
-1.2629e-07
6.91113e-06
-1.07009e-07
6.9168e-06
-5.51041e-08
6.93088e-06
-9.76241e-09
6.94637e-06
2.21698e-08
6.96019e-06
4.23905e-08
6.97145e-06
5.42412e-08
6.98022e-06
6.07549e-08
6.98688e-06
6.41029e-08
6.99183e-06
6.5682e-08
6.99541e-06
6.6359e-08
6.99785e-06
6.66907e-08
6.99929e-06
6.70314e-08
6.99986e-06
6.76603e-08
6.99965e-06
6.88097e-08
6.99881e-06
7.0684e-08
7.34922e-08
6.9976e-06
8.12719e-06
-6.64933e-08
8.09793e-06
-9.70332e-08
8.08056e-06
-8.96363e-08
8.07955e-06
-5.41016e-08
8.08794e-06
-1.8149e-08
8.09987e-06
1.02406e-08
8.11202e-06
3.02443e-08
8.1229e-06
4.33655e-08
8.13206e-06
5.15945e-08
8.13954e-06
5.66315e-08
8.14551e-06
5.97035e-08
8.15021e-06
6.16677e-08
8.1538e-06
6.3086e-08
8.15647e-06
6.43707e-08
8.15834e-06
6.57946e-08
8.15956e-06
6.75828e-08
8.16035e-06
6.98982e-08
7.28408e-08
8.16098e-06
9.49368e-06
-4.24455e-08
9.4668e-06
-7.01565e-08
9.44683e-06
-6.9671e-08
9.43991e-06
-4.71798e-08
9.44229e-06
-2.0536e-08
9.44967e-06
2.86463e-09
9.45898e-06
2.09433e-08
9.46843e-06
3.39125e-08
9.47719e-06
4.28424e-08
9.48493e-06
4.889e-08
9.49161e-06
5.30308e-08
9.49728e-06
5.59897e-08
9.50206e-06
5.83113e-08
9.50606e-06
6.03591e-08
9.50945e-06
6.24157e-08
9.51237e-06
6.46531e-08
9.51505e-06
6.72089e-08
7.0119e-08
9.51776e-06
1.10854e-05
-2.51667e-08
1.10618e-05
-4.65176e-08
1.1041e-05
-4.88402e-08
1.10294e-05
-3.56037e-08
1.10261e-05
-1.72416e-08
1.10284e-05
5.08832e-10
1.1034e-05
1.53512e-08
1.10411e-05
2.68161e-08
1.10487e-05
3.53035e-08
1.10561e-05
4.14945e-08
1.1063e-05
4.60571e-08
1.10695e-05
4.95531e-08
1.10754e-05
5.2407e-08
1.10808e-05
5.49396e-08
1.10858e-05
5.73646e-08
1.10907e-05
5.98361e-08
1.10954e-05
6.24253e-08
6.5169e-08
1.11004e-05
1.29396e-05
-1.31267e-08
1.29194e-05
-2.62942e-08
1.28988e-05
-2.82858e-08
1.28839e-05
-2.07403e-08
1.28758e-05
-9.06949e-09
1.28732e-05
3.04852e-09
1.28748e-05
1.38173e-08
1.2879e-05
2.26371e-08
1.28847e-05
2.95627e-08
1.28913e-05
3.49303e-08
1.28982e-05
3.91381e-08
1.29052e-05
4.25499e-08
1.29121e-05
4.54577e-08
1.2919e-05
4.80801e-08
1.29258e-05
5.05664e-08
1.29326e-05
5.30101e-08
1.29395e-05
5.54544e-08
5.79032e-08
1.29468e-05
1.50998e-05
-4.49094e-09
1.50822e-05
-8.6924e-09
1.50621e-05
-8.14709e-09
1.50448e-05
-3.51093e-09
1.50327e-05
3.03794e-09
1.50259e-05
9.84324e-09
1.50237e-05
1.60424e-08
1.5025e-05
2.13175e-08
1.50289e-05
2.56791e-08
1.50346e-05
2.92816e-08
1.50414e-05
3.23223e-08
1.50489e-05
3.49815e-08
1.5057e-05
3.74034e-08
1.50654e-05
3.96903e-08
1.5074e-05
4.19049e-08
1.5083e-05
4.40782e-08
1.50922e-05
4.6213e-08
4.82904e-08
1.51018e-05
1.76171e-05
2.88525e-09
1.75999e-05
8.50454e-09
1.75787e-05
1.29932e-08
1.7559e-05
1.62279e-08
1.75436e-05
1.84005e-08
1.75336e-05
1.98692e-08
1.75287e-05
2.09384e-08
1.75282e-05
2.18594e-08
1.75311e-05
2.27779e-08
1.75366e-05
2.38005e-08
1.75439e-05
2.49649e-08
1.75526e-05
2.6292e-08
1.75622e-05
2.77653e-08
1.75726e-05
2.9365e-08
1.75834e-05
3.10504e-08
1.75947e-05
3.27854e-08
1.76064e-05
3.45201e-08
3.62131e-08
1.76184e-05
1.78181e-05
1.09934e-08
1.77994e-05
2.71872e-08
1.77768e-05
3.5588e-08
1.7756e-05
3.70045e-08
1.77402e-05
3.42632e-08
1.77302e-05
2.98635e-08
1.77257e-05
2.54047e-08
1.77259e-05
2.16591e-08
1.77298e-05
1.89399e-08
1.77363e-05
1.72387e-08
1.77449e-05
1.64514e-08
1.77547e-05
1.63972e-08
1.77656e-05
1.69171e-08
1.77771e-05
1.78443e-08
1.77891e-05
1.90567e-08
1.78015e-05
2.04302e-08
1.78141e-05
2.18873e-08
2.3339e-08
1.7827e-05
1.58702e-05
2.21267e-08
1.58478e-05
4.95542e-08
1.58233e-05
6.00926e-08
1.58032e-05
5.71855e-08
1.57899e-05
4.75482e-08
1.57834e-05
3.63027e-08
1.57827e-05
2.61177e-08
1.57863e-05
1.80556e-08
1.5793e-05
1.22562e-08
1.58018e-05
8.48622e-09
1.58119e-05
6.34765e-09
1.58229e-05
5.45818e-09
1.58343e-05
5.47199e-09
1.5846e-05
6.11911e-09
1.58579e-05
7.17446e-09
1.58699e-05
8.4806e-09
1.58818e-05
9.90052e-09
1.13543e-08
1.58938e-05
1.41313e-05
3.95333e-08
1.41021e-05
7.868e-08
1.40745e-05
8.77485e-08
1.40557e-05
7.5988e-08
1.40469e-05
5.63574e-08
1.40462e-05
3.69836e-08
1.40512e-05
2.11459e-08
1.40597e-05
9.51706e-09
1.40703e-05
1.68302e-09
1.40819e-05
-3.13679e-09
1.4094e-05
-5.71232e-09
1.41062e-05
-6.69348e-09
1.41182e-05
-6.57389e-09
1.41301e-05
-5.74032e-09
1.41417e-05
-4.45688e-09
1.41531e-05
-2.93059e-09
1.41643e-05
-1.2936e-09
3.49026e-10
1.41753e-05
1.25772e-05
6.73509e-08
1.25392e-05
1.16715e-07
1.25091e-05
1.17853e-07
1.24942e-05
9.08432e-08
1.24928e-05
5.77637e-08
1.25002e-05
2.96318e-08
1.25122e-05
9.09581e-09
1.25263e-05
-4.55093e-09
1.25409e-05
-1.287e-08
1.25551e-05
-1.73913e-08
1.25688e-05
-1.9339e-08
1.25817e-05
-1.95892e-08
1.25939e-05
-1.87775e-08
1.26055e-05
-1.73052e-08
1.26165e-05
-1.54804e-08
1.26271e-05
-1.34869e-08
1.26372e-05
-1.14631e-08
-9.48966e-09
1.26471e-05
1.11862e-05
1.10913e-07
1.11384e-05
1.6455e-07
1.11088e-05
1.47486e-07
1.11022e-05
9.7441e-08
1.11117e-05
4.82668e-08
1.1129e-05
1.23701e-08
1.11486e-05
-1.05031e-08
1.11678e-05
-2.37348e-08
1.11855e-05
-3.05264e-08
1.12013e-05
-3.32614e-08
1.12155e-05
-3.35376e-08
1.12283e-05
-3.23693e-08
1.124e-05
-3.03823e-08
1.12506e-05
-2.79782e-08
1.12606e-05
-2.54007e-08
1.12699e-05
-2.28107e-08
1.12787e-05
-2.03099e-08
-1.79545e-08
1.12872e-05
9.93908e-06
1.76449e-07
9.88248e-06
2.21146e-07
9.85874e-06
1.71234e-07
9.86595e-06
9.02339e-08
9.88964e-06
2.45956e-08
9.91762e-06
-1.55988e-08
9.94394e-06
-3.67911e-08
9.96668e-06
-4.64306e-08
9.98573e-06
-4.95165e-08
1.00016e-05
-4.9159e-08
1.00151e-05
-4.69967e-08
1.00267e-05
-4.39721e-08
1.00369e-05
-4.05394e-08
1.0046e-05
-3.70778e-08
1.00544e-05
-3.37027e-08
1.00621e-05
-3.05103e-08
1.00693e-05
-2.75446e-08
-2.48384e-08
1.00762e-05
8.81963e-06
2.69915e-07
8.75785e-06
2.82933e-07
8.74788e-06
1.81199e-07
8.77483e-06
6.32844e-08
8.81461e-06
-1.51791e-08
8.85217e-06
-5.31199e-08
8.88269e-06
-6.72644e-08
8.90629e-06
-6.9958e-08
8.92431e-06
-6.75702e-08
8.93836e-06
-6.31435e-08
8.94961e-06
-5.82032e-08
8.959e-06
-5.31636e-08
8.96697e-06
-4.84608e-08
8.97399e-06
-4.4026e-08
8.9803e-06
-3.99824e-08
8.9861e-06
-3.6273e-08
8.99148e-06
-3.29248e-08
-2.99664e-08
8.99659e-06
7.81391e-06
3.96675e-07
7.7539e-06
3.42935e-07
7.76868e-06
1.66417e-07
7.82055e-06
1.14208e-08
7.87571e-06
-7.03277e-08
7.91917e-06
-9.65625e-08
7.94973e-06
-9.78155e-08
7.97062e-06
-9.07655e-08
7.98498e-06
-8.17351e-08
7.99517e-06
-7.32614e-08
8.00293e-06
-6.57948e-08
8.00904e-06
-5.93091e-08
8.01418e-06
-5.34262e-08
8.01857e-06
-4.83438e-08
8.02251e-06
-4.38369e-08
8.0261e-06
-3.98627e-08
8.02942e-06
-3.62928e-08
-3.31419e-08
8.0326e-06
6.90424e-06
5.66768e-07
6.86137e-06
3.85802e-07
6.91717e-06
1.10612e-07
6.99676e-06
-6.81768e-08
7.06257e-06
-1.36145e-07
7.10536e-06
-1.39356e-07
7.13033e-06
-1.22662e-07
7.1445e-06
-1.04891e-07
7.15241e-06
-8.96378e-08
7.15703e-06
-7.7736e-08
7.16005e-06
-6.86972e-08
7.16227e-06
-6.12606e-08
7.16389e-06
-5.50174e-08
7.16526e-06
-4.96984e-08
7.16643e-06
-4.50326e-08
7.16758e-06
-4.10561e-08
7.16868e-06
-3.73781e-08
-3.42071e-08
7.16965e-06
6.07162e-06
7.97663e-07
6.08525e-06
3.7216e-07
6.19865e-06
-2.79228e-09
6.29991e-06
-1.69439e-07
6.3653e-06
-2.01538e-07
6.3976e-06
-1.71637e-07
6.41008e-06
-1.35256e-07
6.41332e-06
-1.07832e-07
6.4123e-06
-8.86642e-08
6.40985e-06
-7.52659e-08
6.4073e-06
-6.61031e-08
6.40481e-06
-5.88313e-08
6.40233e-06
-5.27017e-08
6.40015e-06
-4.74194e-08
6.39803e-06
-4.2948e-08
6.39644e-06
-3.94849e-08
6.39498e-06
-3.60053e-08
-3.27006e-08
6.39353e-06
5.35805e-06
1.05451e-06
5.50649e-06
2.23712e-07
5.64777e-06
-1.44089e-07
5.73566e-06
-2.57335e-07
5.7765e-06
-2.42396e-07
5.7833e-06
-1.78548e-07
5.77505e-06
-1.26862e-07
5.76264e-06
-9.55069e-08
5.75014e-06
-7.63296e-08
5.73923e-06
-6.46087e-08
5.73031e-06
-5.73538e-08
5.72233e-06
-5.11352e-08
5.71483e-06
-4.54148e-08
5.70796e-06
-4.07112e-08
5.70141e-06
-3.64509e-08
5.69645e-06
-3.45942e-08
5.69212e-06
-3.16584e-08
-2.80196e-08
5.68742e-06
5.04576e-06
1.01105e-06
5.36491e-06
-9.54582e-08
5.35253e-06
-1.31737e-07
5.33288e-06
-2.37715e-07
5.29605e-06
-2.05629e-07
5.25015e-06
-1.32737e-07
5.20834e-06
-8.5066e-08
5.17428e-06
-6.15832e-08
5.14689e-06
-4.92802e-08
5.12481e-06
-4.2937e-08
5.10686e-06
-3.97515e-08
5.091e-06
-3.57574e-08
5.07631e-06
-3.12025e-08
5.06306e-06
-2.7687e-08
5.04989e-06
-2.34058e-08
5.03928e-06
-2.40486e-08
5.0305e-06
-2.28817e-08
-2.06748e-08
5.02318e-06
5.4676e-06
5.37214e-06
5.2404e-06
5.00268e-06
4.79704e-06
4.6643e-06
4.57922e-06
4.51758e-06
4.46823e-06
4.42523e-06
4.38539e-06
4.34952e-06
4.31826e-06
4.29054e-06
4.26712e-06
4.24307e-06
4.22019e-06
4.19954e-06
2.47698e-08
-2.47842e-08
2.38631e-07
-2.13846e-07
4.89956e-07
-2.51359e-07
7.09255e-07
-2.19301e-07
8.75941e-07
-1.66716e-07
9.8606e-07
-1.1012e-07
1.0406e-06
-5.45691e-08
1.04188e-06
-1.27423e-09
9.9525e-07
4.66079e-08
9.1107e-07
8.42117e-08
8.04635e-07
1.06427e-07
6.95366e-07
1.0934e-07
6.0291e-07
9.25261e-08
5.36765e-07
6.60782e-08
4.85287e-07
5.15924e-08
4.24023e-07
6.09284e-08
3.36333e-07
8.78088e-08
2.07985e-07
1.28252e-07
3.16403e-08
1.76491e-07
-2.13821e-07
2.45777e-07
-5.18794e-07
3.05037e-07
-8.60048e-07
3.41403e-07
-1.22357e-06
3.63503e-07
-1.60011e-06
3.7656e-07
-1.98089e-06
3.80729e-07
-2.35579e-06
3.74889e-07
-2.71688e-06
3.61055e-07
-3.05894e-06
3.42042e-07
-3.3782e-06
3.1924e-07
-3.67234e-06
2.94132e-07
-3.94055e-06
2.68202e-07
-4.18316e-06
2.4261e-07
-4.40122e-06
2.18053e-07
-4.59621e-06
1.94981e-07
-4.76982e-06
1.73613e-07
-4.92385e-06
1.5403e-07
-5.06004e-06
1.36188e-07
-5.18001e-06
1.19972e-07
-5.28523e-06
1.05219e-07
-5.37698e-06
9.17492e-08
-5.45636e-06
7.93813e-08
-5.5243e-06
6.79442e-08
-5.58158e-06
5.72827e-08
-5.62884e-06
4.72642e-08
-5.66662e-06
3.77799e-08
-5.69536e-06
2.8744e-08
-5.71545e-06
2.00849e-08
-5.72722e-06
1.17743e-08
-5.73117e-06
3.94755e-09
-5.72814e-06
-3.02381e-09
-5.71924e-06
-8.90075e-09
-5.70523e-06
-1.4007e-08
-5.68651e-06
-1.87277e-08
-5.66331e-06
-2.31905e-08
-5.63583e-06
-2.74841e-08
-5.60419e-06
-3.16354e-08
-5.56853e-06
-3.56594e-08
-5.52897e-06
-3.95625e-08
-5.48562e-06
-4.33458e-08
-5.43862e-06
-4.70079e-08
-5.38807e-06
-5.05466e-08
-5.33411e-06
-5.3958e-08
-5.27687e-06
-5.7239e-08
-5.21649e-06
-6.0386e-08
-5.15309e-06
-6.33968e-08
-5.08682e-06
-6.6268e-08
-5.01782e-06
-6.89964e-08
-4.94624e-06
-7.15794e-08
-4.87223e-06
-7.40157e-08
-4.79593e-06
-7.63038e-08
-4.71748e-06
-7.84431e-08
-4.63705e-06
-8.0433e-08
-4.55478e-06
-8.22742e-08
-4.47081e-06
-8.3967e-08
-4.38529e-06
-8.55129e-08
-4.29838e-06
-8.69132e-08
-4.21021e-06
-8.81703e-08
-4.12092e-06
-8.92866e-08
-4.03066e-06
-9.02653e-08
-3.93955e-06
-9.11096e-08
-3.84773e-06
-9.18235e-08
-3.75532e-06
-9.24113e-08
-3.66244e-06
-9.28781e-08
-3.56921e-06
-9.32294e-08
-3.47574e-06
-9.34715e-08
-3.38213e-06
-9.36117e-08
-3.28847e-06
-9.36588e-08
-3.19485e-06
-9.36229e-08
-3.10133e-06
-9.3517e-08
-3.00797e-06
-9.33569e-08
-2.91481e-06
-9.31635e-08
-2.82185e-06
-9.2962e-08
-2.72908e-06
-9.27701e-08
-2.63651e-06
-9.25666e-08
-2.54425e-06
-9.2265e-08
-2.45248e-06
-9.17641e-08
-2.3615e-06
-9.09798e-08
-2.27157e-06
-8.9932e-08
-2.18279e-06
-8.87788e-08
-2.09517e-06
-8.76248e-08
-2.0087e-06
-8.64691e-08
-1.9234e-06
-8.52959e-08
-1.8393e-06
-8.40981e-08
-1.75643e-06
-8.28748e-08
-1.6748e-06
-8.16285e-08
-1.59444e-06
-8.0363e-08
-1.51536e-06
-7.90823e-08
-1.43757e-06
-7.77888e-08
-1.36109e-06
-7.64805e-08
-1.28596e-06
-7.51361e-08
-1.21219e-06
-7.37687e-08
-1.13979e-06
-7.2406e-08
-1.06874e-06
-7.10425e-08
-9.99067e-07
-6.96793e-08
-9.30751e-07
-6.83177e-08
-8.63794e-07
-6.69591e-08
-7.98191e-07
-6.56058e-08
-7.33933e-07
-6.42604e-08
-6.71011e-07
-6.29249e-08
-6.09416e-07
-6.15985e-08
-5.49137e-07
-6.02821e-08
-4.90163e-07
-5.89785e-08
-4.32473e-07
-5.7694e-08
-3.76043e-07
-5.64344e-08
-3.20854e-07
-5.51947e-08
-2.66888e-07
-5.39721e-08
-2.14123e-07
-5.27702e-08
-1.62542e-07
-5.15884e-08
-1.12134e-07
-5.04141e-08
-6.28913e-08
-4.92479e-08
-1.49429e-08
-4.79503e-08
3.1856e-08
-4.67994e-08
7.78037e-08
-4.59514e-08
1.22779e-07
-4.49832e-08
1.6669e-07
-4.39217e-08
2.09539e-07
-4.2858e-08
2.51345e-07
-4.18102e-08
2.92133e-07
-4.07923e-08
3.31931e-07
-3.98059e-08
3.70767e-07
-3.88511e-08
4.08674e-07
-3.79254e-08
4.45681e-07
-3.70287e-08
4.8182e-07
-3.6157e-08
5.17114e-07
-3.53118e-08
5.51594e-07
-3.44896e-08
5.85283e-07
-3.36929e-08
6.1821e-07
-3.29164e-08
6.50392e-07
-3.2164e-08
6.81851e-07
-3.14331e-08
7.126e-07
-3.0727e-08
7.42665e-07
-3.00447e-08
7.72068e-07
-2.93882e-08
8.00837e-07
-2.87554e-08
8.28992e-07
-2.81482e-08
8.56563e-07
-2.75648e-08
8.8357e-07
-2.70067e-08
9.10041e-07
-2.64724e-08
9.35998e-07
-2.59629e-08
9.61469e-07
-2.54764e-08
9.86473e-07
-2.50133e-08
1.01104e-06
-2.45711e-08
1.03517e-06
-2.41487e-08
1.05891e-06
-2.37423e-08
1.08225e-06
-2.33485e-08
1.1052e-06
-2.29607e-08
1.12777e-06
-2.2571e-08
1.14993e-06
-2.21678e-08
1.17166e-06
-2.17353e-08
1.1929e-06
-2.12516e-08
1.21358e-06
-2.06852e-08
1.23356e-06
-1.99926e-08
1.25266e-06
-1.91093e-08
1.27059e-06
-1.79392e-08
1.28691e-06
-1.63362e-08
1.30093e-06
-1.40287e-08
1.31151e-06
-1.05976e-08
1.31603e-06
-4.53531e-09
1.30912e-06
6.89447e-09
1.27949e-06
2.96105e-08
7.24517e-08
1.20703e-06
2.53699e-07
-2.78491e-07
4.88932e-07
-4.49075e-07
6.38098e-07
-4.00539e-07
7.22279e-07
-3.03483e-07
7.61248e-07
-2.05698e-07
7.6662e-07
-1.15493e-07
7.45124e-07
-3.30858e-08
7.02453e-07
4.13992e-08
6.41568e-07
1.07484e-07
5.62433e-07
1.63358e-07
4.64249e-07
2.04611e-07
3.45329e-07
2.28268e-07
1.99421e-07
2.38463e-07
1.47317e-08
2.50706e-07
-2.19132e-07
2.8546e-07
-5.0643e-07
3.48149e-07
-8.45122e-07
4.26501e-07
-1.224e-06
5.07143e-07
-1.62913e-06
5.81658e-07
-2.02944e-06
6.46141e-07
-2.41725e-06
6.92876e-07
-2.79213e-06
7.16309e-07
-3.14698e-06
7.18356e-07
-3.47371e-06
7.03291e-07
-3.76748e-06
6.74488e-07
-4.02749e-06
6.34889e-07
-4.25429e-06
5.87841e-07
-4.44925e-06
5.37002e-07
-4.61534e-06
4.85323e-07
-4.75606e-06
4.34845e-07
-4.87477e-06
3.86907e-07
-4.97463e-06
3.42463e-07
-5.05849e-06
3.01916e-07
-5.12886e-06
2.65344e-07
-5.18783e-06
2.32582e-07
-5.23712e-06
2.03324e-07
-5.27814e-06
1.77203e-07
-5.31199e-06
1.53826e-07
-5.33958e-06
1.32815e-07
-5.36165e-06
1.13819e-07
-5.3788e-06
9.65303e-08
-5.39154e-06
8.0684e-08
-5.40032e-06
6.60597e-08
-5.40553e-06
5.24775e-08
-5.40754e-06
3.97914e-08
-5.40668e-06
2.78877e-08
-5.40328e-06
1.66897e-08
-5.39767e-06
6.16332e-09
-5.38999e-06
-3.73563e-09
-5.37981e-06
-1.32008e-08
-5.36624e-06
-2.24662e-08
-5.34869e-06
-3.15595e-08
-5.327e-06
-4.04196e-08
-5.30115e-06
-4.90389e-08
-5.27121e-06
-5.7425e-08
-5.23726e-06
-6.55841e-08
-5.1994e-06
-7.35191e-08
-5.15773e-06
-8.12291e-08
-5.11237e-06
-8.87109e-08
-5.06341e-06
-9.59587e-08
-5.011e-06
-1.02966e-07
-4.95523e-06
-1.09724e-07
-4.89624e-06
-1.16226e-07
-4.83416e-06
-1.22465e-07
-4.76912e-06
-1.28436e-07
-4.70126e-06
-1.34132e-07
-4.63071e-06
-1.39545e-07
-4.55762e-06
-1.44672e-07
-4.48213e-06
-1.49509e-07
-4.40437e-06
-1.54054e-07
-4.32451e-06
-1.58305e-07
-4.24269e-06
-1.62261e-07
-4.15904e-06
-1.65923e-07
-4.07371e-06
-1.69292e-07
-3.98686e-06
-1.7237e-07
-3.89861e-06
-1.75161e-07
-3.80911e-06
-1.7767e-07
-3.71849e-06
-1.799e-07
-3.6269e-06
-1.81859e-07
-3.53446e-06
-1.83552e-07
-3.44129e-06
-1.84988e-07
-3.34753e-06
-1.86175e-07
-3.25329e-06
-1.87122e-07
-3.15868e-06
-1.87838e-07
-3.06381e-06
-1.88336e-07
-2.9688e-06
-1.88626e-07
-2.87374e-06
-1.8872e-07
-2.77873e-06
-1.88632e-07
-2.68388e-06
-1.88374e-07
-2.58927e-06
-1.87959e-07
-2.49504e-06
-1.87398e-07
-2.4013e-06
-1.86699e-07
-2.30822e-06
-1.85857e-07
-2.21594e-06
-1.84843e-07
-2.12459e-06
-1.83612e-07
-2.03422e-06
-1.82137e-07
-1.94478e-06
-1.80414e-07
-1.85623e-06
-1.78484e-07
-1.76859e-06
-1.76425e-07
-1.68192e-06
-1.7429e-07
-1.5963e-06
-1.72091e-07
-1.51177e-06
-1.69831e-07
-1.42835e-06
-1.67509e-07
-1.3461e-06
-1.65131e-07
-1.26503e-06
-1.627e-07
-1.18517e-06
-1.60224e-07
-1.10654e-06
-1.57707e-07
-1.02918e-06
-1.55153e-07
-9.53099e-07
-1.52563e-07
-8.78298e-07
-1.49938e-07
-8.04777e-07
-1.47291e-07
-7.32547e-07
-1.44636e-07
-6.61615e-07
-1.41976e-07
-5.9198e-07
-1.39315e-07
-5.23643e-07
-1.36656e-07
-4.56602e-07
-1.34002e-07
-3.90853e-07
-1.31356e-07
-3.26391e-07
-1.28724e-07
-2.63206e-07
-1.26112e-07
-2.01287e-07
-1.23519e-07
-1.40626e-07
-1.20946e-07
-8.12113e-08
-1.18396e-07
-2.30368e-08
-1.15871e-07
3.39117e-08
-1.13386e-07
8.9662e-08
-1.10948e-07
1.44231e-07
-1.08544e-07
1.9763e-07
-1.06171e-07
2.49873e-07
-1.03834e-07
3.00988e-07
-1.01532e-07
3.51006e-07
-9.92656e-08
4.00091e-07
-9.70343e-08
4.48203e-07
-9.49104e-08
4.95125e-07
-9.28739e-08
5.40935e-07
-9.07953e-08
5.85705e-07
-8.86961e-08
6.29471e-07
-8.66249e-08
6.7226e-07
-8.46002e-08
7.14097e-07
-8.26284e-08
7.55e-07
-8.07121e-08
7.94994e-07
-7.88507e-08
8.34102e-07
-7.70427e-08
8.7235e-07
-7.52861e-08
9.09764e-07
-7.35788e-08
9.46366e-07
-7.19201e-08
9.82181e-07
-7.03084e-08
1.01723e-06
-6.87424e-08
1.05155e-06
-6.72212e-08
1.08514e-06
-6.57447e-08
1.11804e-06
-6.43138e-08
1.15026e-06
-6.29299e-08
1.18182e-06
-6.15935e-08
1.21274e-06
-6.03053e-08
1.24306e-06
-5.90642e-08
1.27278e-06
-5.78714e-08
1.30195e-06
-5.67252e-08
1.33056e-06
-5.56272e-08
1.35866e-06
-5.4575e-08
1.38626e-06
-5.35701e-08
1.41339e-06
-5.26089e-08
1.44006e-06
-5.16921e-08
1.46629e-06
-5.08144e-08
1.49211e-06
-4.99741e-08
1.51752e-06
-4.91631e-08
1.54253e-06
-4.83753e-08
1.56716e-06
-4.75974e-08
1.5914e-06
-4.68159e-08
1.61523e-06
-4.60073e-08
1.63863e-06
-4.5144e-08
1.66156e-06
-4.41831e-08
1.68393e-06
-4.3069e-08
1.70565e-06
-4.17184e-08
1.72654e-06
-4.00153e-08
1.74637e-06
-3.77811e-08
1.76477e-06
-3.47485e-08
1.78118e-06
-3.04548e-08
1.79472e-06
-2.41457e-08
1.80441e-06
-1.42406e-08
1.80923e-06
2.05417e-09
1.80731e-06
3.15181e-08
8.81754e-08
1.79158e-06
2.45036e-07
-5.23529e-07
3.40235e-07
-5.44274e-07
3.56001e-07
-4.16311e-07
3.44642e-07
-2.92121e-07
3.16606e-07
-1.7767e-07
2.72155e-07
-7.10387e-08
2.10552e-07
2.85073e-08
1.30784e-07
1.21171e-07
3.1739e-08
2.06521e-07
-8.87622e-08
2.83861e-07
-2.36565e-07
3.52411e-07
-4.22315e-07
4.14007e-07
-6.59371e-07
4.75519e-07
-9.54227e-07
5.45534e-07
-1.29609e-06
6.27319e-07
-1.66306e-06
7.15101e-07
-2.0345e-06
7.97944e-07
-2.39393e-06
8.66584e-07
-2.72803e-06
9.15776e-07
-3.02539e-06
9.43529e-07
-3.28165e-06
9.49149e-07
-3.49881e-06
9.3348e-07
-3.68031e-06
8.99863e-07
-3.82995e-06
8.52929e-07
-3.95238e-06
7.96913e-07
-4.05297e-06
7.35481e-07
-4.13703e-06
6.71896e-07
-4.20891e-06
6.08883e-07
-4.27204e-06
5.4844e-07
-4.32898e-06
4.91791e-07
-4.38161e-06
4.39532e-07
-4.43103e-06
3.91883e-07
-4.47787e-06
3.48755e-07
-4.52239e-06
3.09864e-07
-4.56463e-06
2.74818e-07
-4.60448e-06
2.43178e-07
-4.64179e-06
2.14507e-07
-4.67635e-06
1.8839e-07
-4.70799e-06
1.64454e-07
-4.73654e-06
1.42368e-07
-4.76186e-06
1.21853e-07
-4.78384e-06
1.02672e-07
-4.80241e-06
8.4629e-08
-4.81749e-06
6.75594e-08
-4.82903e-06
5.13244e-08
-4.83694e-06
3.58059e-08
-4.84116e-06
2.09025e-08
-4.84151e-06
6.521e-09
-4.8378e-06
-7.44533e-09
-4.82989e-06
-2.11102e-08
-4.81783e-06
-3.45317e-08
-4.80169e-06
-4.76967e-08
-4.78152e-06
-6.05836e-08
-4.75738e-06
-7.31835e-08
-4.72931e-06
-8.54899e-08
-4.6974e-06
-9.74968e-08
-4.66172e-06
-1.09197e-07
-4.62237e-06
-1.20582e-07
-4.57944e-06
-1.31642e-07
-4.53303e-06
-1.42364e-07
-4.48326e-06
-1.52737e-07
-4.43024e-06
-1.62748e-07
-4.37408e-06
-1.72382e-07
-4.31492e-06
-1.81629e-07
-4.25287e-06
-1.90482e-07
-4.18807e-06
-1.9893e-07
-4.12065e-06
-2.06962e-07
-4.05075e-06
-2.14571e-07
-3.97851e-06
-2.21752e-07
-3.90406e-06
-2.285e-07
-3.82755e-06
-2.34814e-07
-3.74912e-06
-2.40691e-07
-3.66891e-06
-2.46133e-07
-3.58707e-06
-2.5114e-07
-3.50372e-06
-2.55717e-07
-3.41901e-06
-2.59868e-07
-3.33308e-06
-2.63599e-07
-3.24607e-06
-2.66916e-07
-3.1581e-06
-2.6983e-07
-3.0693e-06
-2.72348e-07
-2.97981e-06
-2.74482e-07
-2.88974e-06
-2.76243e-07
-2.79922e-06
-2.77644e-07
-2.70836e-06
-2.78699e-07
-2.61727e-06
-2.7942e-07
-2.52607e-06
-2.79824e-07
-2.43487e-06
-2.79925e-07
-2.34376e-06
-2.79737e-07
-2.25286e-06
-2.79276e-07
-2.16227e-06
-2.78554e-07
-2.07208e-06
-2.77583e-07
-1.98241e-06
-2.76368e-07
-1.89336e-06
-2.74909e-07
-1.80501e-06
-2.73192e-07
-1.71742e-06
-2.71203e-07
-1.63062e-06
-2.68939e-07
-1.54462e-06
-2.66416e-07
-1.45943e-06
-2.63672e-07
-1.3751e-06
-2.60752e-07
-1.2917e-06
-2.57691e-07
-1.20928e-06
-2.54508e-07
-1.1279e-06
-2.51215e-07
-1.04759e-06
-2.47823e-07
-9.68376e-07
-2.4434e-07
-8.903e-07
-2.40777e-07
-8.13384e-07
-2.37141e-07
-7.3765e-07
-2.33441e-07
-6.63118e-07
-2.29685e-07
-5.89802e-07
-2.2588e-07
-5.17708e-07
-2.22033e-07
-4.46843e-07
-2.18157e-07
-3.77219e-07
-2.14261e-07
-3.08841e-07
-2.10355e-07
-2.41712e-07
-2.06446e-07
-1.7583e-07
-2.02539e-07
-1.11195e-07
-1.98638e-07
-4.78025e-08
-1.9475e-07
1.43536e-08
-1.90881e-07
7.52776e-08
-1.87037e-07
1.34977e-07
-1.83221e-07
1.93466e-07
-1.79436e-07
2.50756e-07
-1.75687e-07
3.06862e-07
-1.7198e-07
3.61797e-07
-1.68322e-07
4.15565e-07
-1.64719e-07
4.68184e-07
-1.61165e-07
5.19673e-07
-1.57663e-07
5.70051e-07
-1.54214e-07
6.19341e-07
-1.50824e-07
6.67573e-07
-1.47498e-07
7.14789e-07
-1.44251e-07
7.6097e-07
-1.41092e-07
8.06081e-07
-1.37987e-07
8.50174e-07
-1.34892e-07
8.93293e-07
-1.31818e-07
9.3546e-07
-1.28795e-07
9.76696e-07
-1.25837e-07
1.01702e-06
-1.22951e-07
1.05644e-06
-1.20139e-07
1.09499e-06
-1.17404e-07
1.13268e-06
-1.14743e-07
1.16954e-06
-1.12155e-07
1.20559e-06
-1.09639e-07
1.24086e-06
-1.07193e-07
1.27536e-06
-1.04815e-07
1.30912e-06
-1.02505e-07
1.34217e-06
-1.00261e-07
1.37451e-06
-9.80834e-08
1.40618e-06
-9.59739e-08
1.43719e-06
-9.39339e-08
1.46757e-06
-9.19634e-08
1.49733e-06
-9.00631e-08
1.52651e-06
-8.82322e-08
1.55511e-06
-8.64715e-08
1.58317e-06
-8.47795e-08
1.6107e-06
-8.31575e-08
1.63773e-06
-8.16031e-08
1.66427e-06
-8.01171e-08
1.69036e-06
-7.86958e-08
1.716e-06
-7.73386e-08
1.74122e-06
-7.60393e-08
1.76604e-06
-7.47941e-08
1.79047e-06
-7.3593e-08
1.81452e-06
-7.24259e-08
1.8382e-06
-7.12755e-08
1.8615e-06
-7.01211e-08
1.88442e-06
-6.89315e-08
1.90694e-06
-6.76664e-08
1.92902e-06
-6.62672e-08
1.95061e-06
-6.46553e-08
1.9716e-06
-6.27164e-08
1.99187e-06
-6.02892e-08
2.01122e-06
-5.71316e-08
2.02935e-06
-5.28825e-08
2.04584e-06
-4.69482e-08
2.06008e-06
-3.83915e-08
2.07129e-06
-2.54555e-08
2.07861e-06
-5.26818e-09
2.08248e-06
2.76416e-08
8.56539e-08
2.085e-06
9.23632e-08
-6.15893e-07
6.09417e-08
-5.12847e-07
1.1921e-08
-3.67294e-07
-4.57182e-08
-2.34476e-07
-1.15776e-07
-1.07617e-07
-2.01712e-07
1.49022e-08
-3.06545e-07
1.33336e-07
-4.32685e-07
2.47312e-07
-5.82737e-07
3.5657e-07
-7.60098e-07
4.61219e-07
-9.69533e-07
5.61846e-07
-1.21528e-06
6.59742e-07
-1.49583e-06
7.56074e-07
-1.80013e-06
8.49821e-07
-2.10936e-06
9.36547e-07
-2.40411e-06
1.00984e-06
-2.67018e-06
1.06402e-06
-2.89957e-06
1.09598e-06
-3.0891e-06
1.10531e-06
-3.23936e-06
1.09381e-06
-3.35467e-06
1.06446e-06
-3.44181e-06
1.02063e-06
-3.50806e-06
9.66114e-07
-3.55986e-06
9.04736e-07
-3.60264e-06
8.39688e-07
-3.64075e-06
7.7359e-07
-3.67739e-06
7.08533e-07
-3.71455e-06
6.4604e-07
-3.7532e-06
5.87095e-07
-3.79361e-06
5.32202e-07
-3.83559e-06
4.81506e-07
-3.87863e-06
4.34923e-07
-3.92209e-06
3.92218e-07
-3.96529e-06
3.53068e-07
-4.00758e-06
3.17111e-07
-4.04838e-06
2.83979e-07
-4.08719e-06
2.53315e-07
-4.12359e-06
2.24789e-07
-4.15724e-06
1.98104e-07
-4.18787e-06
1.72997e-07
-4.21526e-06
1.4924e-07
-4.23922e-06
1.26637e-07
-4.25961e-06
1.05023e-07
-4.27631e-06
8.42583e-08
-4.28921e-06
6.42231e-08
-4.29822e-06
4.48167e-08
-4.30327e-06
2.59536e-08
-4.30431e-06
7.55738e-09
-4.30131e-06
-1.04453e-08
-4.2943e-06
-2.8115e-08
-4.28335e-06
-4.54788e-08
-4.26852e-06
-6.25331e-08
-4.24983e-06
-7.92652e-08
-4.22736e-06
-9.56623e-08
-4.20113e-06
-1.11711e-07
-4.17124e-06
-1.27395e-07
-4.13773e-06
-1.42701e-07
-4.1007e-06
-1.57611e-07
-4.06023e-06
-1.72108e-07
-4.01643e-06
-1.86172e-07
-3.96938e-06
-1.99787e-07
-3.91919e-06
-2.12933e-07
-3.86598e-06
-2.2559e-07
-3.80987e-06
-2.37743e-07
-3.75097e-06
-2.4938e-07
-3.68941e-06
-2.60488e-07
-3.62532e-06
-2.71052e-07
-3.55883e-06
-2.81063e-07
-3.49007e-06
-2.90513e-07
-3.41917e-06
-2.99396e-07
-3.34628e-06
-3.07709e-07
-3.27152e-06
-3.15449e-07
-3.19504e-06
-3.22616e-07
-3.11696e-06
-3.29213e-07
-3.03744e-06
-3.35244e-07
-2.95659e-06
-3.40714e-07
-2.87456e-06
-3.45631e-07
-2.79147e-06
-3.50004e-07
-2.70746e-06
-3.53843e-07
-2.62264e-06
-3.57162e-07
-2.53715e-06
-3.59973e-07
-2.45111e-06
-3.6229e-07
-2.36462e-06
-3.6413e-07
-2.27781e-06
-3.65509e-07
-2.19079e-06
-3.66444e-07
-2.10366e-06
-3.66953e-07
-2.01653e-06
-3.67054e-07
-1.9295e-06
-3.66765e-07
-1.84268e-06
-3.66103e-07
-1.75615e-06
-3.65083e-07
-1.67001e-06
-3.6372e-07
-1.58436e-06
-3.62024e-07
-1.49926e-06
-3.60002e-07
-1.4148e-06
-3.57656e-07
-1.33101e-06
-3.54988e-07
-1.24794e-06
-3.52008e-07
-1.16562e-06
-3.48736e-07
-1.08409e-06
-3.45204e-07
-1.0034e-06
-3.41447e-07
-9.23593e-07
-3.37494e-07
-8.4473e-07
-3.3337e-07
-7.66852e-07
-3.29093e-07
-6.89997e-07
-3.24678e-07
-6.14198e-07
-3.20139e-07
-5.39484e-07
-3.15491e-07
-4.6588e-07
-3.10745e-07
-3.93409e-07
-3.05914e-07