/*--------------------------------*- C++ -*----------------------------------*\
| =========                 |                                                 |
| \\      /  F ield         | OpenFOAM: The Open Source CFD Toolbox           |
|  \\    /   O peration     | Version:  v2012                                 |
|   \\  /    A nd           | Website:  www.openfoam.com                      |
|    \\/     M anipulation  |                                                 |
\*---------------------------------------------------------------------------*/
FoamFile
{
    version     2.0;
    format      ascii;
    class       volVectorField;
    location    "4300";
    object      U;
}
// * * * * * * * * * * * * * * * * * * * * * * * * * * * * * * * * * * * * * //

dimensions      [0 1 -1 0 0 0 0];


internalField   nonuniform List<vector> 
12225
(
(9.2745 -4.73371 0)
(13.1094 -1.71343 0)
(12.4776 -0.395207 0)
(11.2768 -0.042217 0)
(10.6311 0.014195 0)
(10.2977 -0.000764129 0)
(10.0739 -0.00391461 0)
(9.90483 -0.0203052 0)
(9.76622 -0.050427 0)
(9.64468 -0.0475385 0)
(9.53109 -0.0362253 0)
(9.42447 -0.0320145 0)
(9.3265 -0.0298414 0)
(9.23708 -0.0227985 0)
(9.15576 -0.00728922 0)
(9.0899 0.00375225 0)
(9.02936 0.011251 0)
(9.05246 0.0225633 0)
(10.2592 0.0928025 0)
(10.7814 0.199339 0)
(10.9593 0.245651 0)
(10.7468 0.229138 0)
(10.5874 0.172972 0)
(10.4521 0.115298 0)
(10.329 0.0819144 0)
(10.2315 0.0693005 0)
(10.1586 0.0651914 0)
(10.0983 0.0585678 0)
(10.0455 0.0525068 0)
(9.99837 0.0501753 0)
(9.95541 0.0496656 0)
(9.91572 0.0484328 0)
(9.87808 0.044449 0)
(9.84337 0.0388506 0)
(9.8072 0.0218495 0)
(9.77524 -0.00116415 0)
(9.87768 -0.24504 0)
(9.74284 0.00579098 0)
(10.1971 0.125738 0)
(10.3244 0.179358 0)
(10.3563 0.161543 0)
(10.3308 0.11998 0)
(10.2777 0.0911615 0)
(10.2264 0.075312 0)
(10.1831 0.0657986 0)
(10.1459 0.060525 0)
(10.1137 0.0572736 0)
(10.0848 0.0545699 0)
(10.0578 0.0518631 0)
(10.0325 0.0488348 0)
(10.0086 0.0451921 0)
(9.98666 0.0401715 0)
(9.96306 0.029066 0)
(9.93562 0.0102961 0)
(9.83416 -0.443933 0)
(9.57654 -0.163148 0)
(9.91602 0.0336635 0)
(10.0932 0.134216 0)
(10.1892 0.145462 0)
(10.2166 0.120717 0)
(10.2052 0.0984927 0)
(10.1835 0.0839004 0)
(10.161 0.0740751 0)
(10.1394 0.0683306 0)
(10.1196 0.0646308 0)
(10.1012 0.0616516 0)
(10.0836 0.0589934 0)
(10.0668 0.0565422 0)
(10.0505 0.0537876 0)
(10.0343 0.0495933 0)
(10.0157 0.0412572 0)
(9.99143 0.0295428 0)
(9.87825 -0.387477 0)
(9.61653 -0.19615 0)
(9.81622 -0.0186787 0)
(9.96134 0.0916019 0)
(10.0698 0.122183 0)
(10.1218 0.11364 0)
(10.1356 0.0996133 0)
(10.134 0.0883418 0)
(10.1264 0.079896 0)
(10.1162 0.0742838 0)
(10.1055 0.0704625 0)
(10.0946 0.0676068 0)
(10.0836 0.0652791 0)
(10.0724 0.0632117 0)
(10.0609 0.0608832 0)
(10.0484 0.0576075 0)
(10.033 0.05225 0)
(10.0122 0.0461575 0)
(9.91439 -0.288041 0)
(9.68303 -0.18518 0)
(9.78716 -0.053217 0)
(9.88916 0.0509867 0)
(9.98794 0.0936659 0)
(10.0476 0.0992209 0)
(10.0753 0.094049 0)
(10.0866 0.0874075 0)
(10.0896 0.0814366 0)
(10.088 0.0769752 0)
(10.084 0.0737784 0)
(10.0788 0.0714287 0)
(10.0726 0.0695979 0)
(10.0656 0.0680501 0)
(10.0575 0.0664482 0)
(10.0479 0.0645129 0)
(10.0354 0.0620494 0)
(10.0184 0.0603934 0)
(9.93763 -0.214042 0)
(9.74855 -0.167539 0)
(9.79243 -0.0752236 0)
(9.85608 0.0162101 0)
(9.93594 0.0644121 0)
(9.99283 0.0806082 0)
(10.0262 0.0836251 0)
(10.045 0.0821191 0)
(10.0549 0.0793346 0)
(10.0593 0.0767487 0)
(10.0605 0.0747216 0)
(10.0595 0.0732274 0)
(10.057 0.072149 0)
(10.0532 0.0713877 0)
(10.0479 0.0708197 0)
(10.0409 0.0704593 0)
(10.0313 0.0705645 0)
(10.0182 0.0723223 0)
(9.95263 -0.167336 0)
(9.79947 -0.149683 0)
(9.81178 -0.084655 0)
(9.84959 -0.00623136 0)
(9.91142 0.0419037 0)
(9.9611 0.0638691 0)
(9.99439 0.072513 0)
(10.0157 0.0751411 0)
(10.0289 0.0752469 0)
(10.0367 0.0745741 0)
(10.041 0.0738293 0)
(10.0428 0.0732807 0)
(10.0427 0.0730155 0)
(10.041 0.073079 0)
(10.0377 0.0735077 0)
(10.0327 0.0744752 0)
(10.0256 0.0763898 0)
(10.0158 0.0802214 0)
(9.96406 -0.132091 0)
(9.84003 -0.131995 0)
(9.83337 -0.0877035 0)
(9.85306 -0.0213533 0)
(9.89928 0.0243893 0)
(9.94105 0.0494865 0)
(9.97213 0.0620828 0)
(9.99395 0.0679493 0)
(10.0087 0.0704577 0)
(10.0184 0.0715041 0)
(10.0246 0.0720197 0)
(10.0283 0.0724572 0)
(10.0299 0.0730458 0)
(10.0298 0.0739401 0)
(10.0282 0.0752936 0)
(10.0249 0.0773753 0)
(10.0199 0.080644 0)
(10.0129 0.0858918 0)
(9.97418 -0.100207 0)
(9.87757 -0.112396 0)
(9.85857 -0.0853804 0)
(9.86388 -0.0323546 0)
(9.89487 0.00890028 0)
(9.92745 0.0351905 0)
(9.95445 0.0506624 0)
(9.9751 0.0593738 0)
(9.99022 0.0642369 0)
(10.001 0.0671012 0)
(10.0085 0.0690166 0)
(10.0136 0.070579 0)
(10.0167 0.0721426 0)
(10.0181 0.0739682 0)
(10.0181 0.0762981 0)
(10.0166 0.079453 0)
(10.0136 0.0838772 0)
(10.0094 0.0901785 0)
(9.98253 -0.072712 0)
(9.91035 -0.0922036 0)
(9.88507 -0.0782603 0)
(9.88002 -0.0386329 0)
(9.89747 -0.00340885 0)
(9.92045 0.0221226 0)
(9.942 0.0391118 0)
(9.96005 0.0499543 0)
(9.97431 0.0568673 0)
(9.98523 0.0614694 0)
(9.99344 0.0648104 0)
(9.99946 0.0675604 0)
(10.0037 0.0701682 0)
(10.0065 0.072968 0)
(10.0079 0.0762633 0)
(10.0081 0.0803837 0)
(10.0073 0.0857129 0)
(10.0058 0.0926815 0)
(9.98894 -0.05026 0)
(9.93733 -0.0723858 0)
(9.91073 -0.0674658 0)
(9.89917 -0.0400114 0)
(9.90567 -0.0116905 0)
(9.91957 0.0113949 0)
(9.935 0.0284453 0)
(9.94938 0.0404508 0)
(9.96174 0.0488446 0)
(9.97192 0.0548878 0)
(9.98013 0.0595154 0)
(9.98662 0.0633977 0)
(9.99167 0.0670158 0)
(9.99548 0.0707457 0)
(9.99822 0.0749062 0)
(10.0001 0.0798082 0)
(10.0013 0.0857498 0)
(10.002 0.0930242 0)
(9.99348 -0.0329125 0)
(9.9582 -0.0538194 0)
(9.93368 -0.0543031 0)
(9.91899 -0.0368192 0)
(9.91756 -0.0154999 0)
(9.92367 0.00392938 0)
(9.93303 0.0196822 0)
(9.94321 0.0317455 0)
(9.95293 0.0408367 0)
(9.96165 0.0478043 0)
(9.96924 0.053389 0)
(9.97572 0.0581808 0)
(9.98119 0.062639 0)
(9.98579 0.0671294 0)
(9.98963 0.0719556 0)
(9.9929 0.077376 0)
(9.99579 0.0836238 0)
(9.99857 0.0908567 0)
(9.99643 -0.020207 0)
(9.97327 -0.0372191 0)
(9.95261 -0.040067 0)
(9.93731 -0.0298458 0)
(9.9309 -0.0148746 0)
(9.93103 0.000295519 0)
(9.93505 0.013677 0)
(9.94106 0.0247121 0)
(9.94783 0.0335909 0)
(9.95466 0.0407828 0)
(9.96118 0.0468001 0)
(9.96724 0.0520991 0)
(9.9728 0.0570678 0)
(9.97788 0.0620156 0)
(9.98257 0.0672008 0)
(9.98697 0.0728233 0)
(9.99124 0.0790394 0)
(9.99558 0.0859398 0)
(9.99816 -0.0112926 0)
(9.9833 -0.0229404 0)
(9.96682 -0.0257854 0)
(9.95243 -0.0201135 0)
(9.94344 -0.010295 0)
(9.93953 0.000601614 0)
(9.93941 0.0109318 0)
(9.94183 0.0200159 0)
(9.94583 0.0277629 0)
(9.95069 0.0343726 0)
(9.95596 0.0401456 0)
(9.96138 0.0453934 0)
(9.96678 0.0503911 0)
(9.97211 0.0553743 0)
(9.97736 0.0605236 0)
(9.98259 0.065982 0)
(9.98789 0.0718337 0)
(9.99336 0.0781278 0)
(9.99906 -0.0050858 0)
(9.98922 -0.010791 0)
(9.97612 -0.0119395 0)
(9.96309 -0.00851964 0)
(9.9531 -0.00248778 0)
(9.94686 0.00450558 0)
(9.94399 0.011461 0)
(9.94384 0.0178964 0)
(9.94569 0.0236837 0)
(9.94895 0.0288912 0)
(9.95315 0.0336747 0)
(9.95796 0.0382112 0)
(9.96316 0.0426655 0)
(9.96861 0.0471761 0)
(9.97426 0.0518475 0)
(9.98007 0.0567513 0)
(9.98607 0.061923 0)
(9.9923 0.0673656 0)
(9.99942 -0.000372114 0)
(9.99181 0.000140697 0)
(9.98042 0.00180905 0)
(9.96821 0.00455801 0)
(9.9579 0.007868 0)
(9.9506 0.011332 0)
(9.94641 0.0147246 0)
(9.94497 0.0179726 0)
(9.94575 0.0210891 0)
(9.94822 0.0241442 0)
(9.95195 0.0272159 0)
(9.95656 0.0303848 0)
(9.9618 0.0337111 0)
(9.96748 0.0372423 0)
(9.97351 0.0410002 0)
(9.97979 0.0449932 0)
(9.98631 0.0492052 0)
(9.99306 0.0536082 0)
(9.99935 0.00408025 0)
(9.9911 0.0111591 0)
(9.97897 0.0161092 0)
(9.96616 0.0187007 0)
(9.95552 0.0195642 0)
(9.94818 0.0194821 0)
(9.94418 0.0190778 0)
(9.9431 0.0187593 0)
(9.94435 0.0187692 0)
(9.94738 0.0192221 0)
(9.95169 0.0201617 0)
(9.95692 0.021581 0)
(9.96279 0.0234525 0)
(9.96909 0.0257296 0)
(9.97571 0.0283644 0)
(9.98255 0.0312972 0)
(9.98956 0.0344753 0)
(9.99672 0.0378323 0)
(9.99882 0.00972564 0)
(9.98675 0.0240321 0)
(9.97122 0.0318216 0)
(9.95642 0.0332584 0)
(9.94558 0.0306594 0)
(9.93942 0.0262936 0)
(9.93733 0.0216794 0)
(9.93843 0.0176538 0)
(9.94183 0.0145915 0)
(9.94682 0.012584 0)
(9.95286 0.011579 0)
(9.95955 0.0114552 0)
(9.96665 0.0120781 0)
(9.97397 0.0133102 0)
(9.98142 0.0150303 0)
(9.98893 0.0171265 0)
(9.99647 0.0195046 0)
(10.004 0.022079 0)
(9.99757 0.0182064 0)
(9.97774 0.0404382 0)
(9.95664 0.0495516 0)
(9.93945 0.0474448 0)
(9.92961 0.0393817 0)
(9.92659 0.0296007 0)
(9.92848 0.0204343 0)
(9.93355 0.0129034 0)
(9.94051 0.00726884 0)
(9.9485 0.0034234 0)
(9.95697 0.00110463 0)
(9.96558 2.81711e-05 0)
(9.97417 -6.93378e-05 0)
(9.98264 0.000583894 0)
(9.99095 0.00180206 0)
(9.99909 0.00343365 0)
(10.0071 0.00535425 0)
(10.0149 0.00746917 0)
(9.99502 0.0318116 0)
(9.96178 0.0621173 0)
(9.93372 0.0695267 0)
(9.91535 0.0600815 0)
(9.90933 0.0439131 0)
(9.9125 0.0276202 0)
(9.92084 0.0139545 0)
(9.93161 0.00358966 0)
(9.94319 -0.00369245 0)
(9.95474 -0.0084343 0)
(9.96586 -0.0112083 0)
(9.97641 -0.0125037 0)
(9.98637 -0.0127156 0)
(9.9958 -0.0121392 0)
(10.0048 -0.011007 0)
(10.0133 -0.00949204 0)
(10.0215 -0.00772457 0)
(10.0294 -0.00580661 0)
(9.99018 0.0534595 0)
(9.93561 0.0901377 0)
(9.90098 0.0906046 0)
(9.88516 0.0687254 0)
(9.88782 0.0417843 0)
(9.90123 0.0186269 0)
(9.91856 0.00138593 0)
(9.93626 -0.0104252 0)
(9.95283 -0.0179691 0)
(9.9678 -0.0224075 0)
(9.98118 -0.0246761 0)
(9.99317 -0.0254497 0)
(10.004 -0.0252086 0)
(10.0139 -0.0242762 0)
(10.0231 -0.0228944 0)
(10.0316 -0.0212255 0)
(10.0397 -0.0193958 0)
(10.0473 -0.0174877 0)
(9.9819 0.0862454 0)
(9.89548 0.124246 0)
(9.85818 0.109863 0)
(9.85211 0.0697445 0)
(9.87036 0.0303056 0)
(9.89845 0.00142009 0)
(9.9266 -0.0172228 0)
(9.95135 -0.0283376 0)
(9.9722 -0.0344005 0)
(9.98956 -0.0372792 0)
(10.0041 -0.038163 0)
(10.0166 -0.0378174 0)
(10.0274 -0.0366848 0)
(10.037 -0.0351119 0)
(10.0457 -0.0332707 0)
(10.0537 -0.0313003 0)
(10.0611 -0.0292884 0)
(10.0681 -0.0273016 0)
(9.96925 0.133988 0)
(9.83823 0.16308 0)
(9.80793 0.122572 0)
(9.82313 0.0587723 0)
(9.86516 0.00727459 0)
(9.91143 -0.0240545 0)
(9.95038 -0.0406051 0)
(9.98053 -0.048361 0)
(10.0035 -0.0511899 0)
(10.0212 -0.051403 0)
(10.0352 -0.0502918 0)
(10.0466 -0.0484517 0)
(10.0562 -0.0462851 0)
(10.0646 -0.0439576 0)
(10.072 -0.0416095 0)
(10.0787 -0.0392938 0)
(10.0849 -0.0370717 0)
(10.0908 -0.0349998 0)
(9.94951 0.20714 0)
(9.76128 0.207016 0)
(9.75726 0.123462 0)
(9.81044 0.0319841 0)
(9.88386 -0.027898 0)
(9.94879 -0.056031 0)
(9.99532 -0.0660827 0)
(10.0267 -0.0678232 0)
(10.0481 -0.0660183 0)
(10.063 -0.0629843 0)
(10.0741 -0.0596867 0)
(10.0826 -0.056401 0)
(10.0896 -0.0532287 0)
(10.0955 -0.050257 0)
(10.1007 -0.0474813 0)
(10.1054 -0.0449002 0)
(10.1097 -0.0425068 0)
(10.1137 -0.0403533 0)
(9.91094 0.322718 0)
(9.65922 0.254541 0)
(9.71887 0.107392 0)
(9.8333 -0.0119515 0)
(9.94177 -0.0726968 0)
(10.02 -0.0902202 0)
(10.0662 -0.0893551 0)
(10.0918 -0.0832896 0)
(10.1061 -0.0763713 0)
(10.1143 -0.0702887 0)
(10.1195 -0.0652052 0)
(10.1231 -0.0607918 0)
(10.1257 -0.0568612 0)
(10.1277 -0.0534933 0)
(10.1294 -0.0504759 0)
(10.131 -0.0478374 0)
(10.1326 -0.0453466 0)
(10.1339 -0.0431598 0)
(9.84404 0.43511 0)
(9.53797 0.261024 0)
(9.7269 0.0591214 0)
(9.92369 -0.073144 0)
(10.0584 -0.121604 0)
(10.1345 -0.120268 0)
(10.1665 -0.105341 0)
(10.1757 -0.0910575 0)
(10.1757 -0.0798682 0)
(10.1724 -0.071833 0)
(10.1684 -0.0661384 0)
(10.1645 -0.0612202 0)
(10.1605 -0.0568164 0)
(10.1567 -0.0530169 0)
(10.1532 -0.0499034 0)
(10.1503 -0.0475547 0)
(10.1478 -0.0450478 0)
(10.1454 -0.042726 0)
(9.83598 0.319666 0)
(9.5502 0.0912488 0)
(9.91739 -0.0687339 0)
(10.1507 -0.160134 0)
(10.2635 -0.172179 0)
(10.3033 -0.142808 0)
(10.2976 -0.112202 0)
(10.2753 -0.0909416 0)
(10.2515 -0.0770851 0)
(10.2304 -0.0684456 0)
(10.2132 -0.0633642 0)
(10.1984 -0.0589305 0)
(10.1847 -0.0541966 0)
(10.1718 -0.0495561 0)
(10.1598 -0.0451631 0)
(10.1495 -0.0421505 0)
(10.141 -0.0396667 0)
(10.133 -0.0379068 0)
(10.2049 -0.0633779 0)
(10.4095 -0.191709 0)
(10.7164 -0.282554 0)
(10.6879 -0.28229 0)
(10.6192 -0.230114 0)
(10.5417 -0.16374 0)
(10.4538 -0.11759 0)
(10.3752 -0.0935696 0)
(10.3138 -0.0804275 0)
(10.2657 -0.069703 0)
(10.2263 -0.0606671 0)
(10.1924 -0.0564658 0)
(10.1621 -0.0557329 0)
(10.1343 -0.0545781 0)
(10.1083 -0.0518938 0)
(10.0843 -0.0474305 0)
(10.0637 -0.0457208 0)
(10.0484 -0.0446065 0)
(9.41631 4.45107 0)
(12.7294 2.07612 0)
(12.5649 0.621225 0)
(11.5691 0.127667 0)
(10.9311 0.00343221 0)
(10.5863 -0.00224968 0)
(10.3631 0.0138834 0)
(10.201 0.0312185 0)
(10.0783 0.0446481 0)
(9.97699 0.043742 0)
(9.88432 0.0328099 0)
(9.79873 0.0310665 0)
(9.72274 0.0345522 0)
(9.65727 0.0311493 0)
(9.59938 0.0254618 0)
(9.54677 -5.09481e-05 0)
(9.49707 -0.00420872 0)
(9.44757 0.00412135 0)
(-0.02499 0.0909279 0)
(0.13745 -0.182581 0)
(0.325846 -0.304466 0)
(0.525627 -0.313546 0)
(0.702319 -0.270811 0)
(0.831862 -0.210081 0)
(0.907221 -0.145261 -8.59839e-20)
(0.936909 -0.0813261 8.66658e-20)
(0.914894 -0.0190514 0)
(0.853257 0.0356269 9.20394e-20)
(0.765404 0.074764 0)
(0.665797 0.0923576 0)
(0.571975 0.0876103 0)
(0.499494 0.0662769 -1.44089e-19)
(0.449524 0.0373299 0)
(0.405327 0.00989744 0)
(0.34484 -0.00839488 1.897e-19)
(0.258967 -0.00780895 0)
(0.12305 0.0109753 0)
(-0.0756126 0.111696 0)
(-0.305157 0.206864 -1.39599e-19)
(-0.601222 0.247751 0)
(-0.929168 0.26961 -7.48403e-20)
(-1.26412 0.296704 0)
(-1.60276 0.323495 0)
(-1.94162 0.336029 -4.11329e-20)
(-2.27315 0.335046 0)
(-2.5894 0.325759 3.44464e-20)
(-2.88724 0.309509 0)
(-3.16333 0.288668 -3.12858e-20)
(-3.41678 0.265542 0)
(-3.64724 0.241704 0)
(-3.85544 0.218177 0)
(-4.04248 0.195656 0)
(-4.20981 0.17451 0)
(-4.35899 0.154943 2.81983e-20)
(-4.49157 0.136985 0)
(-4.60907 0.120564 -5.55089e-20)
(-4.71285 0.105551 0)
(-4.80411 0.0917881 5.47096e-20)
(-4.8839 0.0791122 0)
(-4.95312 0.0673728 0)
(-5.01252 0.0564424 -5.34853e-20)
(-5.06271 0.0462257 0)
(-5.10419 0.0366639 -5.25917e-20)
(-5.13738 0.0277413 5.21129e-20)
(-5.16266 0.0195035 0)
(-5.18042 0.012098 5.10841e-20)
(-5.19093 0.00578789 5.05312e-20)
(-5.19437 0.000722214 0)
(-5.19199 -0.00319979 0)
(-5.18502 -0.00645284 0)
(-5.1736 -0.00940142 0)
(-5.15803 -0.0121097 0)
(-5.1385 -0.0146765 -4.61039e-20)
(-5.11512 -0.017115 0)
(-5.08801 -0.0194367 4.42363e-20)
(-5.05729 -0.0216504 0)
(-5.02304 -0.0237583 0)
(-4.98537 -0.0257621 -4.10545e-20)
(-4.94439 -0.0276624 0)
(-4.90021 -0.029459 3.86762e-20)
(-4.85292 -0.0311518 0)
(-4.80265 -0.0327406 0)
(-4.74951 -0.0342255 0)
(-4.69362 -0.0356062 -3.32908e-20)
(-4.63511 -0.0368834 0)
(-4.5741 -0.0380578 0)
(-4.51071 -0.03913 -2.86884e-20)
(-4.44509 -0.0401009 0)
(-4.37735 -0.0409718 -2.53433e-20)
(-4.30762 -0.041744 0)
(-4.23605 -0.0424194 0)
(-4.16276 -0.0429995 0)
(-4.08789 -0.0434865 1.7957e-20)
(-4.01156 -0.0438823 0)
(-3.93389 -0.0441892 0)
(-3.85503 -0.0444094 1.17673e-20)
(-3.7751 -0.0445453 9.57061e-21)
(-3.6942 -0.0445994 0)
(-3.61248 -0.0445748 4.96266e-21)
(-3.53003 -0.0444747 0)
(-3.44697 -0.0443037 9.57331e-23)
(-3.36342 -0.0440667 0)
(-3.27946 -0.0437709 -1.04093e-20)
(-3.19521 -0.0434254 0)
(-3.11073 -0.0430434 2.16694e-20)
(-3.02613 -0.0426438 0)
(-2.94146 -0.0422555 0)
(-2.85678 -0.041921 0)
(-2.77214 -0.0417028 -4.69051e-20)
(-2.68755 -0.0416835 0)
(-2.60302 -0.0419529 6.12081e-20)
(-2.51852 -0.0425656 0)
(-2.43402 -0.0434596 -7.69095e-20)
(-2.34976 -0.0443587 -8.53044e-20)
(-2.26599 -0.044802 -9.40288e-20)
(-2.18297 -0.0445836 0)
(-2.10086 -0.0439751 0)
(-2.01968 -0.0432765 0)
(-1.93944 -0.0425718 0)
(-1.86015 -0.0418719 0)
(-1.78184 -0.0411778 0)
(-1.70453 -0.0404912 0)
(-1.62824 -0.039816 0)
(-1.553 -0.0391578 1.9336e-19)
(-1.47883 -0.0385241 2.07717e-19)
(-1.40573 -0.0379198 0)
(-1.33372 -0.0373339 0)
(-1.26283 -0.0367079 0)
(-1.1931 -0.03605 2.75169e-19)
(-1.12452 -0.0354169 0)
(-1.05711 -0.0348019 0)
(-0.990855 -0.034207 0)
(-0.925769 -0.0336337 0)
(-0.861847 -0.033084 -3.92183e-19)
(-0.799089 -0.0325606 0)
(-0.73749 -0.0320666 0)
(-0.677044 -0.0316054 4.90731e-19)
(-0.617743 -0.0311787 -5.30592e-19)
(-0.559583 -0.03079 0)
(-0.502553 -0.03045 -6.24618e-19)
(-0.446641 -0.0301832 0)
(-0.391829 -0.030035 7.44189e-19)
(-0.338094 -0.0300141 0)
(-0.285422 -0.0300813 0)
(-0.233799 -0.0302251 0)
(-0.183195 -0.0304568 0)
(-0.133584 -0.0307919 0)
(-0.0850138 -0.0312497 -2.86151e-18)
(-0.0377015 -0.0317041 -3.29604e-18)
(0.00842499 -0.0313633 0)
(0.0538712 -0.0298247 0)
(0.0986256 -0.0279711 0)
(0.142554 -0.0262575 2.67921e-18)
(0.185567 -0.0247289 0)
(0.227651 -0.0233581 0)
(0.268826 -0.0221227 0)
(0.309122 -0.0210029 2.03732e-18)
(0.348564 -0.0199822 -1.9314e-18)
(0.387183 -0.0190459 0)
(0.425007 -0.0181832 0)
(0.462066 -0.0173835 -1.68531e-18)
(0.498386 -0.0166405 -1.6208e-18)
(0.533991 -0.0159468 0)
(0.568907 -0.0152983 0)
(0.603158 -0.0146889 1.46287e-18)
(0.636765 -0.0141169 -1.41947e-18)
(0.669747 -0.0135781 0)
(0.702119 -0.0130714 0)
(0.7339 -0.0125939 -1.30935e-18)
(0.765113 -0.0121444 0)
(0.795781 -0.0117202 0)
(0.825927 -0.0113204 -1.22186e-18)
(0.855575 -0.0109429 0)
(0.88475 -0.0105871 -1.17275e-18)
(0.913474 -0.0102511 0)
(0.941773 -0.00993446 0)
(0.969671 -0.00963552 0)
(0.997191 -0.00935366 1.09067e-18)
(1.02436 -0.00908731 0)
(1.05119 -0.00883551 0)
(1.0777 -0.00859648 0)
(1.10392 -0.0083686 0)
(1.12984 -0.00814943 0)
(1.15547 -0.00793612 0)
(1.18081 -0.00772478 9.81842e-19)
(1.20583 -0.00751025 9.68928e-19)
(1.2305 -0.00728564 0)
(1.25473 -0.00704133 0)
(1.27842 -0.00676411 0)
(1.30142 -0.00643488 -9.23619e-19)
(1.32347 -0.00602511 0)
(1.34418 -0.00549321 1.81218e-18)
(1.36309 -0.00475955 -1.79886e-18)
(1.3788 -0.00371135 -1.79014e-18)
(1.39137 -0.00196062 1.78844e-18)
(1.39164 0.00137396 -1.79423e-18)
(1.38901 0.00810587 1.80665e-18)
(1.30954 0.0198611 0)
(0.0969424 -0.271925 0)
(0.333016 -0.681578 0)
(0.513011 -0.70524 1.5718e-19)
(0.610215 -0.569437 0)
(0.660802 -0.406682 -1.11153e-19)
(0.680732 -0.251446 -1.08183e-19)
(0.674209 -0.109678 -5.63458e-20)
(0.64331 0.0181519 -5.62655e-20)
(0.600015 0.127879 0)
(0.540348 0.214093 -6.0934e-20)
(0.463043 0.268948 0)
(0.36802 0.283815 0)
(0.251482 0.256185 1.71437e-19)
(0.102993 0.21163 9.89472e-20)
(-0.0832584 0.208508 -1.84165e-19)
(-0.310957 0.275522 -1.42656e-19)
(-0.590204 0.387116 -5.67574e-20)
(-0.916254 0.515644 0)
(-1.2709 0.642333 0)
(-1.62797 0.754938 0)
(-1.98082 0.841312 -2.83394e-20)
(-2.32663 0.894774 0)
(-2.65628 0.917573 6.88171e-20)
(-2.96242 0.913603 0)
(-3.24118 0.886791 0)
(-3.49081 0.842368 1.97995e-20)
(-3.71016 0.785698 0)
(-3.9001 0.722295 -1.97509e-20)
(-4.06263 0.656328 -4.17733e-20)
(-4.20128 0.590482 2.01629e-20)
(-4.31895 0.526865 0)
(-4.41853 0.467223 0)
(-4.50273 0.412371 0)
(-4.57393 0.36265 -4.42346e-20)
(-4.63418 0.318012 -4.47381e-20)
(-4.68514 0.278181 -2.2177e-20)
(-4.7282 0.242747 0)
(-4.76445 0.211227 4.52739e-20)
(-4.79478 0.183124 0)
(-4.81989 0.157962 -4.58387e-20)
(-4.84037 0.135299 0)
(-4.85672 0.114746 0)
(-4.86934 0.0959625 4.60408e-20)
(-4.87862 0.0786603 0)
(-4.88488 0.0626004 1.38008e-19)
(-4.88845 0.0475903 -4.55548e-20)
(-4.88959 0.0334957 0)
(-4.88856 0.0202892 -4.48821e-20)
(-4.88561 0.00808818 -4.44232e-20)
(-4.88101 -0.00294395 0)
(-4.87382 -0.0128699 0)
(-4.86296 -0.0219859 0)
(-4.84841 -0.0305295 0)
(-4.83008 -0.0386156 0)
(-4.808 -0.0463138 4.01504e-20)
(-4.78223 -0.0536604 7.90294e-20)
(-4.75284 -0.0606763 -3.83713e-20)
(-4.71992 -0.0673724 0)
(-4.68356 -0.0737547 7.33454e-20)
(-4.64384 -0.0798253 -3.58954e-20)
(-4.60088 -0.0855852 0)
(-4.55476 -0.0910338 -3.31933e-20)
(-4.50559 -0.0961712 0)
(-4.45349 -0.100999 0)
(-4.39856 -0.105518 -5.97384e-20)
(-4.34093 -0.109729 2.83073e-20)
(-4.28071 -0.113632 -5.4542e-20)
(-4.21802 -0.117229 5.18206e-20)
(-4.15298 -0.120526 2.42118e-20)
(-4.08574 -0.123525 0)
(-4.0164 -0.126233 2.1276e-20)
(-3.94509 -0.128655 0)
(-3.87196 -0.130797 0)
(-3.79712 -0.132667 0)
(-3.7207 -0.134273 1.55435e-20)
(-3.64283 -0.135624 0)
(-3.56363 -0.136729 2.35766e-20)
(-3.48323 -0.137597 -2.96832e-20)
(-3.40175 -0.13824 -7.84259e-21)
(-3.31931 -0.138668 0)
(-3.23602 -0.138892 -4.03765e-21)
(-3.152 -0.138923 0)
(-3.06735 -0.138774 -7.51125e-23)
(-2.98219 -0.138457 0)
(-2.8966 -0.137983 8.34107e-21)
(-2.8107 -0.137365 -2.4035e-20)
(-2.72457 -0.136614 -1.72057e-20)
(-2.6383 -0.13574 0)
(-2.55199 -0.134752 0)
(-2.46574 -0.133654 0)
(-2.37962 -0.132447 3.64507e-20)
(-2.29376 -0.131121 0)
(-2.2083 -0.129649 -4.69381e-20)
(-2.12338 -0.127973 0)
(-2.03914 -0.126043 1.72779e-19)
(-1.95565 -0.123885 6.39416e-20)
(-1.87293 -0.121601 6.99829e-20)
(-1.79091 -0.119296 0)
(-1.70958 -0.117029 0)
(-1.62899 -0.114796 0)
(-1.5492 -0.112574 0)
(-1.47027 -0.11035 0)
(-1.39224 -0.108119 2.20277e-19)
(-1.31514 -0.105883 2.358e-19)
(-1.239 -0.103644 0)
(-1.16385 -0.101405 -1.35202e-19)
(-1.0897 -0.0991698 -1.44e-19)
(-1.0166 -0.0969393 0)
(-0.944563 -0.0947157 -3.24036e-19)
(-0.873602 -0.0925035 0)
(-0.803711 -0.0903164 1.8187e-19)
(-0.7349 -0.0881599 0)
(-0.667181 -0.0860343 0)
(-0.600558 -0.0839419 -4.35715e-19)
(-0.535033 -0.0818843 0)
(-0.470607 -0.0798629 2.45535e-19)
(-0.407281 -0.0778809 0)
(-0.345052 -0.0759441 0)
(-0.283915 -0.0740611 2.90601e-19)
(-0.223861 -0.0722298 3.09959e-19)
(-0.164883 -0.070445 0)
(-0.106975 -0.0687097 -3.47374e-19)
(-0.0501441 -0.0670241 0)
(0.00561424 -0.065379 3.83324e-19)
(0.0603419 -0.0637677 7.6668e-19)
(0.114071 -0.0622022 0)
(0.166803 -0.0606972 0)
(0.218537 -0.0592566 0)
(0.269288 -0.0578784 0)
(0.319091 -0.056564 7.09661e-19)
(0.368018 -0.0553016 2.09768e-18)
(0.416155 -0.0539133 0)
(0.463406 -0.0522557 0)
(0.509631 -0.0504777 0)
(0.554907 -0.0487313 -6.65981e-19)
(0.599314 -0.0470647 0)
(0.642881 -0.045485 0)
(0.685624 -0.0439899 1.28856e-18)
(0.727562 -0.0425734 6.37245e-19)
(0.768715 -0.0412287 6.32701e-19)
(0.809105 -0.0399488 0)
(0.848755 -0.0387285 0)
(0.887689 -0.0375622 6.16106e-19)
(0.925927 -0.036447 -6.09857e-19)
(0.963494 -0.035379 0)
(1.00041 -0.0343558 0)
(1.0367 -0.0333741 -5.96945e-19)
(1.07238 -0.0324331 1.7768e-18)
(1.10748 -0.031531 0)
(1.14201 -0.0306678 0)
(1.17599 -0.029842 5.80387e-19)
(1.20944 -0.0290531 0)
(1.24238 -0.0282992 1.14495e-18)
(1.27484 -0.02758 -5.6851e-19)
(1.30684 -0.0268936 0)
(1.33839 -0.02624 5.62334e-19)
(1.36954 -0.0256172 1.11732e-18)
(1.40028 -0.025025 0)
(1.43066 -0.0244613 0)
(1.46068 -0.0239254 -5.49386e-19)
(1.49037 -0.0234146 0)
(1.51975 -0.0229275 1.08597e-18)
(1.54883 -0.0224601 0)
(1.57762 -0.0220093 0)
(1.60615 -0.0215693 0)
(1.63439 -0.0211341 0)
(1.66236 -0.020694 -5.28703e-19)
(1.69002 -0.0202375 -5.25928e-19)
(1.71735 -0.0197477 0)
(1.74427 -0.0192025 0)
(1.77071 -0.01857 0)
(1.79651 -0.017805 5.15823e-19)
(1.82148 -0.01684 0)
(1.84528 -0.015573 -1.02425e-18)
(1.86749 -0.013825 1.02202e-18)
(1.88721 -0.0113139 1.02164e-18)
(1.90397 -0.00730183 1.02279e-18)
(1.91417 -0.000505343 1.02816e-18)
(1.92639 0.0124678 1.01958e-18)
(1.90684 0.0362534 0)
(0.11867 -0.861489 0)
(0.266993 -1.05283 0)
(0.313914 -0.823136 -1.25581e-19)
(0.312991 -0.581204 -1.08109e-19)
(0.295272 -0.370618 1.00592e-19)
(0.263745 -0.185362 1.0087e-19)
(0.217199 -0.0198259 -6.47188e-22)
(0.15493 0.127924 0)
(0.0767876 0.258374 0)
(-0.0184869 0.36904 0)
(-0.134555 0.454286 0)
(-0.279625 0.515029 0)
(-0.466693 0.569208 -2.6591e-19)
(-0.705932 0.644966 0)
(-0.993022 0.758457 6.58398e-20)
(-1.31194 0.900452 5.6816e-20)
(-1.64486 1.0476 0)
(-1.97521 1.1801 0)
(-2.2881 1.28589 0)
(-2.57126 1.359 0)
(-2.81891 1.39445 3.48155e-20)
(-3.03143 1.39104 0)
(-3.21029 1.35385 -3.22806e-20)
(-3.35854 1.29082 0)
(-3.4805 1.20918 0)
(-3.58076 1.11527 0)
(-3.6641 1.0151 -6.85425e-20)
(-3.73485 0.913922 0)
(-3.79651 0.815825 3.31109e-20)
(-3.85184 0.723548 -7.06697e-20)
(-3.90272 0.63858 0)
(-3.95044 0.561634 0)
(-3.99575 0.492745 0)
(-4.03899 0.43152 3.6549e-20)
(-4.08028 0.37731 3.71328e-20)
(-4.11957 0.32934 0)
(-4.15672 0.286819 0)
(-4.19155 0.248988 -7.77368e-20)
(-4.22389 0.215157 -7.81243e-20)
(-4.25358 0.184721 7.83523e-20)
(-4.28047 0.157163 0)
(-4.30445 0.132058 0)
(-4.32543 0.10906 0)
(-4.34333 0.0878878 0)
(-4.3581 0.0683083 -7.69185e-20)
(-4.36969 0.0501234 -7.68168e-20)
(-4.37801 0.0331497 7.61714e-20)
(-4.38293 0.0171865 0)
(-4.38429 0.00197744 0)
(-4.38191 -0.0127642 0)
(-4.37575 -0.0271654 0)
(-4.36587 -0.0411382 -7.09967e-20)
(-4.35231 -0.0545943 0)
(-4.33512 -0.0675209 0)
(-4.31433 -0.0799221 -6.68809e-20)
(-4.29 -0.0918068 -6.48539e-20)
(-4.2622 -0.103182 0)
(-4.23098 -0.114052 1.24334e-19)
(-4.19644 -0.124419 -5.99118e-20)
(-4.15865 -0.134281 5.81338e-20)
(-4.1177 -0.143639 0)
(-4.0737 -0.152488 0)
(-4.02673 -0.160828 0)
(-3.9769 -0.168657 0)
(-3.92433 -0.175979 4.82946e-20)
(-3.86911 -0.182794 9.35171e-20)
(-3.81138 -0.189103 4.3926e-20)
(-3.75123 -0.194908 -4.16521e-20)
(-3.6888 -0.200215 0)
(-3.6242 -0.205032 7.51517e-20)
(-3.55756 -0.209365 7.02648e-20)
(-3.48901 -0.213225 6.52613e-20)
(-3.41866 -0.21662 -6.01419e-20)
(-3.34664 -0.219564 0)
(-3.27308 -0.222067 -7.3658e-20)
(-3.1981 -0.224145 0)
(-3.12182 -0.225811 1.99437e-20)
(-3.04437 -0.227081 1.57179e-20)
(-2.96587 -0.227971 0)
(-2.88642 -0.228497 0)
(-2.80616 -0.228678 1.50368e-20)
(-2.72519 -0.22853 0)
(-2.64361 -0.228071 2.59045e-21)
(-2.56155 -0.227322 0)
(-2.47909 -0.2263 1.03453e-20)
(-2.39636 -0.225026 3.54322e-20)
(-2.31343 -0.223518 0)
(-2.23041 -0.221796 0)
(-2.1474 -0.219878 0)
(-2.06449 -0.217782 4.49665e-20)
(-1.98177 -0.215523 0)
(-1.89935 -0.213112 5.98051e-20)
(-1.81732 -0.21055 0)
(-1.73578 -0.207823 0)
(-1.65478 -0.204904 -1.67913e-19)
(-1.57437 -0.201778 0)
(-1.49456 -0.198459 -9.97645e-20)
(-1.41536 -0.194992 0)
(-1.3368 -0.191432 -1.17067e-19)
(-1.25894 -0.187821 0)
(-1.18183 -0.184173 0)
(-1.10553 -0.180496 0)
(-1.03008 -0.176798 -4.64277e-19)
(-0.955513 -0.173085 -1.65587e-19)
(-0.88186 -0.169363 0)
(-0.809148 -0.165639 0)
(-0.737402 -0.161919 0)
(-0.666645 -0.158209 0)
(-0.596892 -0.154512 2.19469e-19)
(-0.528155 -0.150834 -4.59767e-19)
(-0.460442 -0.147184 -2.43344e-19)
(-0.393762 -0.143572 5.09045e-19)
(-0.328127 -0.140002 5.34889e-19)
(-0.263543 -0.136481 2.82119e-19)
(-0.20001 -0.133011 0)
(-0.137531 -0.129591 6.17812e-19)
(-0.0761065 -0.126226 0)
(-0.0157383 -0.122917 -6.74902e-19)
(0.0435802 -0.119667 -3.45653e-19)
(0.101862 -0.116478 0)
(0.159114 -0.11335 6.94072e-19)
(0.215341 -0.110288 3.49293e-19)
(0.270553 -0.107292 0)
(0.324762 -0.104352 3.4917e-19)
(0.377975 -0.101456 -1.05412e-18)
(0.4302 -0.0986156 0)
(0.481453 -0.0958399 0)
(0.531749 -0.0931317 0)
(0.581106 -0.0904916 0)
(0.629548 -0.0879237 -7.0853e-19)
(0.677108 -0.0854353 -7.10999e-19)
(0.72381 -0.0830416 0)
(0.769616 -0.080729 0)
(0.814513 -0.0784587 0)
(0.858556 -0.0762313 0)
(0.901787 -0.0740617 0)
(0.944223 -0.0719584 0)
(0.985875 -0.0699239 -7.1464e-19)
(1.02676 -0.0679588 -1.08551e-21)
(1.06689 -0.0660617 0)
(1.1063 -0.0642307 0)
(1.14499 -0.0624633 -7.14386e-19)
(1.183 -0.0607572 0)
(1.22033 -0.0591109 7.15386e-19)
(1.25702 -0.0575224 7.14506e-19)
(1.29308 -0.0559895 0)
(1.32854 -0.0545112 0)
(1.36342 -0.0530862 -7.14959e-19)
(1.39773 -0.0517144 -1.42806e-18)
(1.43149 -0.0503956 0)
(1.46472 -0.049129 0)
(1.49746 -0.0479141 0)
(1.5297 -0.0467492 -7.13468e-19)
(1.56149 -0.0456341 7.13044e-19)
(1.59283 -0.044567 0)
(1.62376 -0.0435476 1.42303e-18)
(1.65428 -0.0425739 7.10452e-19)
(1.68443 -0.0416456 -1.42081e-18)
(1.71423 -0.0407598 0)
(1.74368 -0.0399156 0)
(1.77283 -0.0391093 -1.4168e-18)
(1.80168 -0.0383384 -7.08085e-19)
(1.83024 -0.0375975 0)
(1.85854 -0.0368817 0)
(1.88659 -0.0361824 0)
(1.91437 -0.03549 0)
(1.9419 -0.0347904 -1.40641e-18)
(1.96916 -0.0340657 0)
(1.99612 -0.0332905 0)
(2.02273 -0.0324312 0)
(2.04891 -0.0314393 0)
(2.07455 -0.0302475 0)
(2.09947 -0.0287539 0)
(2.12342 -0.0268083 -1.39702e-18)
(2.14606 -0.0241576 0)
(2.16672 -0.0203983 0)
(2.18515 -0.0147365 -2.81561e-18)
(2.19858 -0.00585007 1.41785e-18)
(2.21322 0.00892045 -1.41584e-18)
(2.20811 0.0363265 1.41152e-18)
(0.0332955 -1.16457 0)
(0.0682752 -1.02606 3.60092e-19)
(0.0322881 -0.743183 0)
(-0.0125236 -0.502687 1.10832e-19)
(-0.0683411 -0.279771 0)
(-0.136704 -0.0699716 0)
(-0.220465 0.127054 -8.25939e-20)
(-0.322009 0.310544 0)
(-0.443469 0.480069 0)
(-0.587481 0.636209 0)
(-0.75792 0.781565 0)
(-0.959991 0.922319 0)
(-1.19614 1.06653 2.03205e-19)
(-1.46046 1.21733 9.20086e-20)
(-1.73831 1.36816 -8.33315e-20)
(-2.01136 1.50559 0)
(-2.26417 1.61595 0)
(-2.48696 1.6902 0)
(-2.6751 1.72494 0)
(-2.82702 1.72175 0)
(-2.9452 1.68437 6.00489e-20)
(-3.03534 1.61769 5.87443e-20)
(-3.10371 1.52864 -5.79096e-20)
(-3.15664 1.42501 5.76283e-20)
(-3.19944 1.31347 0)
(-3.23642 1.1994 0)
(-3.27099 1.0871 5.58248e-20)
(-3.30545 0.979815 0)
(-3.34105 0.879614 0)
(-3.3783 0.787507 5.86803e-20)
(-3.41717 0.703715 6.14845e-20)
(-3.45733 0.628004 6.21936e-20)
(-3.49824 0.559836 0)
(-3.53928 0.498515 0)
(-3.57985 0.443281 -6.39931e-20)
(-3.61938 0.393381 0)
(-3.6574 0.348107 0)
(-3.69348 0.306819 6.42582e-20)
(-3.72728 0.268956 -6.59681e-20)
(-3.75853 0.234032 6.59757e-20)
(-3.787 0.201636 0)
(-3.81251 0.171418 0)
(-3.83492 0.143085 1.29872e-19)
(-3.85408 0.116387 0)
(-3.86989 0.0911139 1.28474e-19)
(-3.88227 0.0670909 1.90802e-19)
(-3.89113 0.044175 -1.89154e-19)
(-3.8964 0.0222467 1.25164e-19)
(-3.89804 0.00118927 0)
(-3.89606 -0.0191126 0)
(-3.89049 -0.0387355 1.19696e-19)
(-3.88137 -0.0576977 5.83162e-20)
(-3.86875 -0.0759953 0)
(-3.85267 -0.0936266 0)
(-3.83315 -0.110591 5.48067e-20)
(-3.81024 -0.126887 1.08062e-19)
(-3.78401 -0.142514 0)
(-3.75451 -0.157468 -1.01605e-19)
(-3.72181 -0.171745 9.97731e-20)
(-3.686 -0.185341 -9.67991e-20)
(-3.64714 -0.198251 0)
(-3.60533 -0.210469 0)
(-3.56067 -0.22199 0)
(-3.51324 -0.232811 0)
(-3.46316 -0.242937 0)
(-3.41053 -0.252368 -7.57127e-20)
(-3.35546 -0.261102 0)
(-3.29806 -0.269144 0)
(-3.23844 -0.276503 0)
(-3.17673 -0.283186 -1.22181e-19)
(-3.11303 -0.289203 -5.64803e-20)
(-3.04748 -0.294568 -5.23763e-20)
(-2.98019 -0.299293 9.75818e-20)
(-2.91128 -0.303395 -4.51305e-20)
(-2.84087 -0.306891 3.95752e-20)
(-2.76909 -0.309798 0)
(-2.69604 -0.312137 -3.0646e-20)
(-2.62186 -0.313929 0)
(-2.54665 -0.315195 0)
(-2.47053 -0.315957 0)