/*--------------------------------*- C++ -*----------------------------------*\
  =========                 |
  \\      /  F ield         | OpenFOAM: The Open Source CFD Toolbox
   \\    /   O peration     | Website:  https://openfoam.org
    \\  /    A nd           | Version:  8
     \\/     M anipulation  |
\*---------------------------------------------------------------------------*/
FoamFile
{
    version     2.0;
    format      ascii;
    class       volScalarField;
    location    "1300";
    object      k;
}
// * * * * * * * * * * * * * * * * * * * * * * * * * * * * * * * * * * * * * //

dimensions      [0 2 -2 0 0 0 0];

internalField   nonuniform List<scalar> 
12225
(
0.662889
1.3082
1.59092
1.71395
1.63039
1.59988
2.18088
1.86906
1.42051
3.02889
2.3101
2.60235
2.05808
1.74828
1.59126
1.48604
1.44612
1.36233
0.370385
0.407021
0.496771
0.556179
0.598557
0.598544
0.643869
0.682554
0.717819
0.810578
0.825418
0.848555
0.865929
0.865629
0.866184
0.871613
0.873032
0.894302
0.369443
0.367437
0.377862
0.38766
0.380777
0.382173
0.382605
0.378958
0.37698
0.378691
0.377655
0.377823
0.379806
0.373248
0.377934
0.375525
0.375305
0.378199
0.371695
0.367954
0.368917
0.367541
0.368211
0.366844
0.364048
0.359602
0.355614
0.351136
0.347458
0.343046
0.33946
0.334931
0.331148
0.32749
0.32428
0.32143
0.373648
0.370007
0.368727
0.367498
0.366946
0.365024
0.362835
0.359924
0.357249
0.354086
0.351405
0.348283
0.345613
0.342541
0.339878
0.336972
0.334476
0.331728
0.374001
0.371199
0.369389
0.367879
0.366603
0.364828
0.363005
0.360857
0.358868
0.356634
0.354637
0.352446
0.350502
0.348376
0.346489
0.344416
0.34258
0.340528
0.374017
0.371715
0.369797
0.368067
0.366515
0.364828
0.363182
0.361415
0.35975
0.357996
0.356369
0.354676
0.353124
0.351505
0.350024
0.348451
0.34701
0.345441
0.37398
0.371846
0.369922
0.368124
0.366471
0.364812
0.363225
0.361614
0.360083
0.358536
0.357077
0.355608
0.354238
0.35285
0.351558
0.350225
0.348981
0.347669
0.373957
0.371885
0.369959
0.368134
0.366434
0.364783
0.363217
0.361678
0.360214
0.358772
0.357404
0.356057
0.354786
0.353528
0.352343
0.35115
0.350027
0.34887
0.373946
0.371887
0.369954
0.368117
0.366391
0.36474
0.363176
0.36167
0.360237
0.358851
0.357533
0.356256
0.355045
0.353866
0.352748
0.351648
0.350603
0.349559
0.373939
0.371882
0.36994
0.368096
0.366354
0.364696
0.363125
0.361626
0.360201
0.358836
0.357538
0.356293
0.355107
0.353968
0.352884
0.351834
0.350833
0.349858
0.373937
0.371876
0.369926
0.368077
0.366324
0.364659
0.363079
0.361576
0.360147
0.358785
0.357489
0.356251
0.355072
0.353945
0.35287
0.351841
0.350856
0.349911
0.373934
0.371871
0.369915
0.36806
0.366301
0.36463
0.363043
0.361534
0.360099
0.358732
0.357431
0.35619
0.355008
0.353881
0.352805
0.351778
0.350796
0.349858
0.373933
0.371867
0.369907
0.368049
0.366284
0.364608
0.363015
0.361501
0.36006
0.358689
0.357382
0.356137
0.35495
0.353818
0.352738
0.351707
0.350722
0.349782
0.373933
0.371865
0.369902
0.36804
0.366272
0.364592
0.362995
0.361477
0.360032
0.358656
0.357345
0.356096
0.354905
0.353769
0.352684
0.35165
0.350661
0.349718
0.373932
0.371863
0.369899
0.368034
0.366263
0.364581
0.362981
0.36146
0.360012
0.358633
0.357319
0.356066
0.354872
0.353733
0.352645
0.351607
0.350616
0.34967
0.373932
0.371862
0.369897
0.368031
0.366258
0.364574
0.362973
0.361449
0.359999
0.358618
0.357302
0.356047
0.35485
0.353709
0.35262
0.35158
0.350587
0.349638
0.373932
0.371861
0.369896
0.368029
0.366257
0.364572
0.36297
0.361446
0.359995
0.358612
0.357295
0.356039
0.354842
0.353699
0.352609
0.351568
0.350574
0.349625
0.373932
0.371862
0.369896
0.368031
0.366259
0.364575
0.362973
0.361449
0.359998
0.358616
0.357298
0.356043
0.354845
0.353703
0.352612
0.351572
0.350578
0.349629
0.373933
0.371863
0.369899
0.368034
0.366264
0.36458
0.36298
0.361457
0.360008
0.358627
0.357311
0.356056
0.354859
0.353718
0.352629
0.351589
0.350596
0.349647
0.373933
0.371865
0.369903
0.36804
0.366271
0.36459
0.362992
0.361472
0.360024
0.358646
0.357332
0.35608
0.354885
0.353746
0.352659
0.35162
0.35063
0.349683
0.373934
0.371869
0.369909
0.368049
0.366283
0.364606
0.363012
0.361496
0.360052
0.358678
0.357368
0.356119
0.354928
0.353792
0.352708
0.351672
0.350683
0.349737
0.373936
0.371874
0.369918
0.368063
0.366303
0.364634
0.363049
0.361542
0.360106
0.358738
0.357432
0.356188
0.354998
0.353862
0.352775
0.351735
0.350738
0.349784
0.373938
0.371884
0.369935
0.368094
0.366351
0.364707
0.363143
0.361655
0.360228
0.358862
0.357549
0.356292
0.35508
0.353919
0.352798
0.351723
0.35068
0.349678
0.373943
0.371914
0.369995
0.368204
0.366522
0.364946
0.363421
0.361955
0.360513
0.359112
0.357733
0.356399
0.35509
0.353826
0.352586
0.351388
0.350207
0.34907
0.373949
0.372082
0.370305
0.368692
0.367164
0.365712
0.364223
0.362747
0.361209
0.359657
0.358066
0.356494
0.354914
0.353373
0.351832
0.350338
0.348843
0.347405
0.374026
0.373052
0.371825
0.370684
0.369521
0.368285
0.36681
0.365272
0.363479
0.361527
0.359426
0.357277
0.355093
0.352933
0.350803
0.348717
0.346696
0.344716
0.375227
0.378361
0.379575
0.38039
0.380668
0.380282
0.379153
0.377938
0.375993
0.373511
0.370973
0.368227
0.365822
0.363388
0.361531
0.359631
0.358482
0.357086
0.393952
0.420092
0.441252
0.459197
0.47599
0.48974
0.50168
0.511833
0.521664
0.530312
0.539752
0.548547
0.558927
0.568906
0.580602
0.591864
0.604934
0.615733
0.89449
1.1909
1.38924
1.50272
1.56105
1.57417
1.56593
1.54658
1.51625
1.48331
1.45034
1.41867
1.38913
1.36198
1.33735
1.31512
1.29512
1.27738
1.84827e-08
4.54165e-07
2.31864e-06
9.15686e-06
3.06498e-05
9.37113e-05
0.000243372
0.000483524
0.00078279
0.00109855
0.0013819
0.00160267
0.0017508
0.00180829
0.00178696
0.00171703
0.00158155
0.00135662
0.00115764
0.000986227
0.000823361
0.00066478
0.00051103
0.000368144
0.00024038
0.000141016
7.48721e-05
3.76198e-05
1.90801e-05
1.03548e-05
6.22114e-06
4.80932e-06
4.81254e-06
1.20904e-05
2.37931e-05
0.000161603
0.000325413
0.000736396
0.00111122
0.00121476
0.00111661
0.000894363
0.000745202
0.000733213
0.000806237
0.00109573
0.00146722
0.00295994
0.00676478
0.0208983
0.0539595
0.0924907
0.117211
0.120869
0.095139
0.110985
0.139062
0.150709
0.170858
0.146212
0.163753
0.178304
0.155505
0.176305
0.180626
0.191531
0.198932
0.20784
0.215655
0.223849
0.231593
0.23943
0.247018
0.254617
0.262048
0.269455
0.276737
0.283975
0.291108
0.298185
0.305167
0.312082
0.318906
0.325652
0.332307
0.338875
0.345347
0.35172
0.357988
0.364146
0.370185
0.376094
0.381864
0.387483
0.392941
0.398225
0.403329
0.408252
0.413005
0.417625
0.422182
0.42656
0.430798
0.434891
0.438829
0.442619
0.446245
0.449717
0.453018
0.456157
0.45912
0.461914
0.464528
0.466969
0.469226
0.471305
0.473199
0.474912
0.476441
0.477786
0.478948
0.479926
0.480723
0.481338
0.481775
0.482033
0.482118
0.482074
0.48191
0.481366
0.481007
0.47999
0.479244
0.478175
0.477139
0.475917
0.474537
0.472875
0.471116
0.46919
0.467149
0.464981
0.462697
0.460303
0.457802
0.455205
0.452513
0.449744
0.446906
0.444025
0.441025
0.438046
0.4349
0.431826
0.428569
0.425412
0.422095
0.418865
0.415579
0.412311
0.409039
0.405773
0.402512
0.39926
0.396021
0.3928
0.389606
0.386444
0.383321
0.380241
0.377204
0.374201
0.371225
0.368239
0.365205
0.362028
0.358598
0.354579
0.349332
0.333017
7.9365e-08
2.22492e-06
1.51282e-05
6.64576e-05
0.000246867
0.000753156
0.00173391
0.0031509
0.00479614
0.00648781
0.00803324
0.00930544
0.0102417
0.0108438
0.0111192
0.0110836
0.0109039
0.0105604
0.00996538
0.00914862
0.00811185
0.00690832
0.00558699
0.00425315
0.00295276
0.0019562
0.00124061
0.000766413
0.000464447
0.000283795
0.000179198
0.000138166
8.85844e-05
0.000192509
0.000206803
0.00168479
0.00337436
0.00699468
0.0101764
0.0119367
0.0119005
0.0114739
0.0114795
0.0128335
0.0167336
0.0225073
0.0328535
0.0506066
0.0773602
0.103119
0.12934
0.150321
0.167428
0.180631
0.190417
0.205084
0.220784
0.238715
0.259453
0.274435
0.293658
0.31528
0.332698
0.353859
0.372492
0.392012
0.410627
0.429318
0.447611
0.465812
0.483791
0.501667
0.519402
0.537053
0.554602
0.572081
0.589479
0.606812
0.624069
0.641258
0.658369
0.675404
0.692352
0.709211
0.725969
0.742624
0.759162
0.775576
0.791855
0.807987
0.823959
0.839752
0.855348
0.870725
0.885858
0.900719
0.915279
0.929502
0.943352
0.956786
0.969785
0.982568
0.995058
1.00729
1.01922
1.03086
1.0422
1.05321
1.06389
1.07423
1.08422
1.09384
1.10309
1.11196
1.12043
1.12851
1.13618
1.14344
1.15027
1.15668
1.16266
1.1682
1.17331
1.17797
1.18219
1.18597
1.1893
1.1922
1.19466
1.19665
1.19829
1.1993
1.20002
1.2003
1.20041
1.2002
1.19969
1.19906
1.19798
1.19652
1.19468
1.19249
1.18994
1.18705
1.18383
1.18029
1.17645
1.17232
1.16793
1.16327
1.15838
1.15321
1.14782
1.14216
1.13632
1.13024
1.12399
1.11759
1.11104
1.10437
1.09758
1.09068
1.08368
1.07658
1.0694
1.06213
1.0548
1.04742
1.04001
1.03258
1.02512
1.01764
1.01011
1.00247
0.994675
0.986595
0.978014
0.968611
0.956427
0.92887
2.17901e-07
6.5399e-06
5.00051e-05
0.000241344
0.000715947
0.00204373
0.00412367
0.00654679
0.0089751
0.0111771
0.0130149
0.0144306
0.0154228
0.0160177
0.0162719
0.016236
0.0160517
0.0156883
0.0151462
0.0144698
0.013653
0.0126899
0.01156
0.010268
0.0088246
0.00718337
0.00548606
0.00397055
0.00265746
0.00176684
0.00120315
0.00092293
0.000644996
0.00105222
0.0016727
0.00661019
0.0141147
0.0226247
0.0289043
0.0325497
0.0339965
0.0365594
0.0439845
0.0598654
0.0776389
0.0962409
0.1173
0.139151
0.159441
0.180894
0.201722
0.222746
0.244603
0.269352
0.296134
0.324555
0.353688
0.382773
0.41199
0.440109
0.468582
0.496918
0.523859
0.550742
0.576694
0.602286
0.627323
0.652016
0.676352
0.700423
0.724253
0.747894
0.771367
0.7947
0.817905
0.840997
0.863979
0.886857
0.909627
0.932289
0.954836
0.977264
0.999564
1.02173
1.04375
1.06561
1.0873
1.10882
1.13014
1.15126
1.17216
1.19283
1.21325
1.23341
1.25329
1.27288
1.29216
1.31113
1.32979
1.34812
1.36613
1.38381
1.40113
1.41808
1.43463
1.45078
1.4665
1.48177
1.49659
1.51094
1.52481
1.53817
1.55102
1.56335
1.57514
1.58638
1.59707
1.60719
1.61674
1.62571
1.63409
1.64187
1.64906
1.65566
1.66165
1.66703
1.67182
1.67601
1.6796
1.68258
1.68499
1.68677
1.68801
1.68863
1.68887
1.68865
1.68785
1.68657
1.68476
1.68242
1.67958
1.67623
1.67239
1.66808
1.66331
1.65809
1.65245
1.6464
1.63997
1.63316
1.62601
1.61846
1.6106
1.60237
1.59387
1.58503
1.57594
1.56661
1.55707
1.54733
1.53741
1.52732
1.51708
1.5067
1.49618
1.48554
1.4748
1.46398
1.4531
1.44218
1.43124
1.42026
1.40925
1.39816
1.38696
1.37556
1.36378
1.3514
1.33647
1.31074
8.04023e-07
2.42074e-05
0.000190578
0.000796389
0.00228666
0.00541011
0.00908529
0.0126627
0.0157669
0.0182212
0.0199899
0.0211124
0.0217026
0.0218113
0.0216806
0.0213241
0.0207558
0.0200727
0.0193052
0.0184691
0.0175656
0.0165905
0.0155263
0.0143511
0.013047
0.0115905
0.00999961
0.00833836
0.00677475
0.00523592
0.00412322
0.00301624
0.00311462
0.00463496
0.0115131
0.0259306
0.0404541
0.051964
0.0607051
0.0689031
0.079182
0.0926791
0.108572
0.124265
0.140574
0.158174
0.17873
0.20059
0.224144
0.249993
0.277396
0.306874
0.33803
0.370739
0.404212
0.438167
0.472277
0.506209
0.539783
0.572746
0.605316
0.637336
0.66857
0.699317
0.729479
0.759197
0.788504
0.817477
0.846161
0.874608
0.902857
0.930943
0.958888
0.986711
1.01442
1.04204
1.06954
1.09695
1.12425
1.15143
1.1785
1.20543
1.23221
1.25884
1.2853
1.31157
1.33765
1.36352
1.38917
1.41458
1.43973
1.46463
1.48924
1.51356
1.53758
1.56127
1.58464
1.60767
1.63033
1.65263
1.67453
1.69601
1.71705
1.73764
1.75774
1.77733
1.79641
1.81494
1.83291
1.85031
1.8671
1.88329
1.89884
1.91375
1.92801
1.9416
1.9545
1.96671
1.97822
1.98902
1.9991
2.00846
2.01709
2.02499
2.03216
2.03859
2.04429
2.04926
2.0535
2.05701
2.05981
2.06188
2.06321
2.0638
2.06392
2.06337
2.06211
2.06022
2.05768
2.05452
2.05074
2.04634
2.04136
2.03579
2.02966
2.02298
2.01579
2.00809
1.99991
1.99126
1.98218
1.97264
1.96269
1.95231
1.94156
1.93043
1.91898
1.90722
1.89518
1.88289
1.87037
1.85765
1.84473
1.83163
1.81836
1.80494
1.79139
1.77774
1.76402
1.75024
1.73644
1.72262
1.70878
1.69493
1.68103
1.66707
1.65291
1.63842
1.62194
1.59801
2.76018e-06
8.28061e-05
0.00061932
0.00235496
0.00646379
0.0119706
0.0170831
0.0211631
0.0240515
0.0258514
0.0267792
0.0270352
0.0268863
0.0264419
0.0257331
0.0249013
0.023999
0.0230635
0.0221162
0.0211652
0.0202059
0.0192283
0.0182137
0.0171388
0.015977
0.0146989
0.0133011
0.0118282
0.0103871
0.00888259
0.00741603
0.00772756
0.0114888
0.0236218
0.0441405
0.0638803
0.0803262
0.0932205
0.104182
0.115028
0.126664
0.139315
0.153001
0.168607
0.187421
0.209172
0.233724
0.260856
0.290161
0.321461
0.354287
0.388504
0.42367
0.459502
0.495657
0.531984
0.568329
0.604531
0.640478
0.676062
0.711292
0.746107
0.780457
0.81441
0.847984
0.881226
0.91418
0.946891
0.979398
1.01174
1.04395
1.07604
1.10805
1.13997
1.17182
1.20359
1.23528
1.26689
1.29841
1.32981
1.36109
1.39224
1.42324
1.45406
1.4847
1.51514
1.54537
1.57535
1.60509
1.63456
1.66375
1.69264
1.72122
1.74947
1.77738
1.80493
1.83209
1.85886
1.88521
1.91111
1.93654
1.96149
1.98591
2.0098
2.03312
2.05585
2.07797
2.09945
2.12028
2.14043
2.15987
2.17861
2.1966
2.21384
2.23031
2.246
2.26089
2.27497
2.28823
2.30066
2.31224
2.32299
2.33288
2.34192
2.35011
2.35743
2.3639
2.36951
2.37427
2.37819
2.38126
2.38349
2.38481
2.38533
2.38523
2.38431
2.38258
2.38009
2.37687
2.3729
2.36822
2.36283
2.35676
2.35001
2.3426
2.33456
2.32591
2.31667
2.30687
2.29652
2.28565
2.27426
2.26238
2.25002
2.23721
2.22396
2.21033
2.19634
2.18201
2.16739
2.1525
2.13736
2.12199
2.10641
2.09063
2.07467
2.05856
2.04232
2.02601
2.00963
1.99323
1.97683
1.96045
1.94409
1.92777
1.91151
1.89524
1.87886
1.86101
1.83769
8.81736e-06
0.000257816
0.00183305
0.00648307
0.0144903
0.0214903
0.0264488
0.0294957
0.0310846
0.0316736
0.0315947
0.0311481
0.0303108
0.0292928
0.0281791
0.0270341
0.0259008
0.0248059
0.0237605
0.0227638
0.0218046
0.0208667
0.0199242
0.0189466
0.0179024
0.0167318
0.0153839
0.0138239
0.0122787
0.012197
0.0143421
0.0226867
0.0406553
0.0647782
0.0879032
0.106662
0.120453
0.130624
0.139465
0.148763
0.15947
0.173035
0.189991
0.210236
0.233995
0.26083
0.29017
0.321484
0.354306
0.388382
0.423434
0.459287
0.495735
0.532636
0.569858
0.607318
0.644929
0.682601
0.720249
0.757791
0.795187
0.832395
0.869392
0.906184
0.942779
0.979199
1.01547
1.05162
1.08767
1.12366
1.1596
1.1955
1.23139
1.26725
1.30309
1.3389
1.37467
1.41038
1.44602
1.48157
1.51701
1.55231
1.58746
1.62244
1.65722
1.69178
1.72611
1.76018
1.79397
1.82746
1.86064
1.89349
1.92599
1.95812
1.98985
2.02118
2.05206
2.08249
2.11243
2.14186
2.17074
2.19906
2.22679
2.2539
2.28037
2.30616
2.33125
2.35561
2.37922
2.40205
2.42409
2.4453
2.46567
2.48518
2.50381
2.52154
2.53835
2.55424
2.56919
2.58319
2.59623
2.6083
2.6194
2.62953
2.63867
2.64684
2.65402
2.66023
2.66546
2.66972
2.67302
2.67536
2.67665
2.67707
2.6767
2.67539
2.67317
2.67009
2.66616
2.6614
2.65582
2.64944
2.64228
2.63435
2.62569
2.6163
2.60623
2.59548
2.58408
2.57207
2.55945
2.54626
2.53251
2.51821
2.5034
2.48811
2.47237
2.45622
2.43969
2.42282
2.40564
2.38817
2.37044
2.35247
2.33428
2.31588
2.29731
2.2786
2.2598
2.24093
2.22205
2.20318
2.18436
2.16561
2.14697
2.12849
2.11015
2.09189
2.07254
2.0489
2.8353e-05
0.000775007
0.00497627
0.0151224
0.0246651
0.0307351
0.0340614
0.0356228
0.0360585
0.0358117
0.0350575
0.0339146
0.0325752
0.0311461
0.0297081
0.0283197
0.0270164
0.0258154
0.0247171
0.0237105
0.0227759
0.0218842
0.0209982
0.0200673
0.0191408
0.018299
0.0177403
0.0179398
0.020037
0.0261242
0.0392799
0.0609184
0.085267
0.10806
0.126382
0.139221
0.14807
0.155433
0.163413
0.174224
0.188644
0.206732
0.228531
0.253697
0.281776
0.312045
0.343908
0.37697
0.410987
0.445824
0.48137
0.517551
0.554303
0.591572
0.629312
0.667473
0.705992
0.744795
0.783814
0.822983
0.86225
0.901569
0.94091
0.980257
1.0196
1.05895
1.09831
1.1377
1.17713
1.21662
1.25616
1.29578
1.33547
1.37522
1.41502
1.45486
1.49471
1.53454
1.57434
1.61407
1.6537
1.69321
1.73256
1.77174
1.81072
1.84946
1.88794
1.92615
1.96404
2.00161
2.03883
2.07568
2.11213
2.14817
2.18377
2.2189
2.25354
2.28765
2.3212
2.35418
2.38654
2.41827
2.44932
2.47968
2.50931
2.53817
2.56625
2.59351
2.61992
2.64545
2.67008
2.69378
2.71653
2.7383
2.75909
2.77885
2.79759
2.81528
2.8319
2.84746
2.86193
2.87531
2.8876
2.89879
2.90887
2.91785
2.92572
2.93249
2.93816
2.94273
2.94622
2.94863
2.94985
2.95014
2.94946
2.94774
2.94501
2.9413
2.93664
2.93105
2.92455
2.91715
2.90888
2.89976
2.88982
2.87907
2.86755
2.85528
2.84228
2.82859
2.81424
2.79924
2.78361
2.76739
2.75059
2.73326
2.71542
2.69713
2.67842
2.65933
2.63989
2.62012
2.60007
2.57974
2.55917
2.53837
2.51738
2.49624
2.47499
2.45368
2.43236
2.41107
2.38984
2.36873
2.34779
2.32709
2.30664
2.28641
2.26536
2.24075
8.53391e-05
0.00213538
0.011779
0.0253574
0.0336362
0.0379899
0.0400187
0.0405969
0.040274
0.0392986
0.0378492
0.0361536
0.0343502
0.0325493
0.0308309
0.0292484
0.0278272
0.0265722
0.025472
0.0245077
0.0236551
0.0228865
0.0221311
0.0214495
0.0209785
0.0212122
0.0231074
0.0283972
0.0397065
0.0577697
0.0796973
0.101835
0.122204
0.138632
0.150252
0.158285
0.165257
0.173795
0.185385
0.200704
0.219858
0.242561
0.268398
0.296751
0.326981
0.358517
0.391016
0.424306
0.458312
0.493004
0.528372
0.564412
0.601125
0.638505
0.676534
0.715173
0.754377
0.794094
0.834265
0.874831
0.915737
0.956938
0.998394
1.04008
1.08197
1.12407
1.16636
1.20886
1.25155
1.29445
1.33755
1.38086
1.42434
1.468
1.5118
1.55571
1.59971
1.64374
1.68778
1.73178
1.77571
1.81952
1.86318
1.90667
1.94993
1.99296
2.0357
2.07814
2.12023
2.16196
2.20331
2.24424
2.28473
2.32475
2.36428
2.40328
2.44173
2.47958
2.51682
2.55341
2.58931
2.62449
2.65892
2.69257
2.7254
2.75738
2.78848
2.81866
2.8479
2.87615
2.90339
2.92959
2.95472
2.97877
3.0017
3.0235
3.04415
3.06362
3.08191
3.099
3.11488
3.12955
3.14299
3.15521
3.16619
3.17594
3.18446
3.19175
3.1978
3.20265
3.20628
3.2087
3.20983
3.20993
3.20889
3.20671
3.20342
3.19904
3.19361
3.18714
3.17967
3.17122
3.1618
3.15144
3.14018
3.12803
3.11504
3.10121
3.08659
3.07121
3.05508
3.03825
3.02074
3.00257
2.98377
2.96439
2.94446
2.92403
2.90315
2.88184
2.86014
2.83809
2.81573
2.79306
2.77011
2.74693
2.72354
2.69999
2.67632
2.65259
2.62885
2.60515
2.58153
2.55806
2.53481
2.51186
2.48924
2.46694
2.44401
2.41792
0.000221928
0.00504178
0.0214005
0.0344895
0.0411827
0.0443159
0.0454109
0.0452232
0.0441908
0.0425178
0.0404866
0.0382833
0.0360598
0.0339373
0.0319999
0.0302998
0.0288596
0.0276831
0.0267597
0.0260657
0.025632
0.0255508
0.0259891
0.0272572
0.0298722
0.0347422
0.0435607
0.0572251
0.0743835
0.0934572
0.112629
0.129919
0.144106
0.154897
0.163293
0.171273
0.180908
0.193542
0.209775
0.229588
0.252646
0.278434
0.30639
0.335937
0.366604
0.398087
0.430254
0.463074
0.496564
0.530756
0.56569
0.601404
0.63793
0.675277
0.71344
0.752404
0.792141
0.832609
0.873762
0.915548
0.957916
1.00082
1.04422
1.08809
1.13239
1.17711
1.22223
1.26776
1.31367
1.35996
1.40661
1.45362
1.50095
1.54857
1.59645
1.64454
1.69278
1.74113
1.78954
1.83794
1.88628
1.93452
1.98262
2.03052
2.0782
2.12562
2.17273
2.2195
2.2659
2.31189
2.35745
2.40254
2.44715
2.49123
2.53476
2.5777
2.62002
2.66168
2.70266
2.7429
2.78238
2.82105
2.85889
2.89585
2.93191
2.96702
3.00115
3.03425
3.0663
3.09727
3.1271
3.15578
3.18328
3.20958
3.23463
3.25843
3.28094
3.30216
3.32206
3.34064
3.35787
3.37376
3.38829
3.40147
3.41329
3.42375
3.43284
3.44057
3.44695
3.45198
3.45569
3.45804
3.45903
3.45884
3.45738
3.45467
3.45075
3.44563
3.43936
3.43196
3.42346
3.41388
3.40325
3.39161
3.37898
3.36539
3.35087
3.33546
3.31918
3.30207
3.28415
3.26547
3.24604
3.2259
3.20509
3.18364
3.16162
3.13905
3.11599
3.09248
3.06854
3.04422
3.01955
2.99455
2.96925
2.9437
2.91793
2.89198
2.86592
2.83979
2.81365
2.78755
2.76156
2.73573
2.71015
2.68491
2.66007
2.63561
2.61066
2.58289
0.000493773
0.0101637
0.0310603
0.0426825
0.0481276
0.050384
0.0507568
0.0499124
0.0482017
0.0459437
0.0433835
0.0407351
0.0381741
0.0358381
0.0338204
0.0321785
0.0309368
0.0300758
0.0296541
0.0295594
0.0299925
0.0312344
0.0339176
0.038848
0.0467823
0.0579227
0.0716364
0.0870007
0.103205
0.119098
0.133571
0.145946
0.156299
0.165397
0.174667
0.185613
0.199341
0.216282
0.236381
0.259283
0.28452
0.311597
0.340051
0.369496
0.399678
0.430478
0.461884
0.493937
0.5267
0.560242
0.594634
0.629929
0.666166
0.703377
0.741575
0.78076
0.820918
0.862021
0.904035
0.946919
0.990631
1.03513
1.08037
1.12632
1.17296
1.22025
1.26817
1.31672
1.36585
1.41557
1.46583
1.51662
1.56788
1.61957
1.67164
1.72402
1.77664
1.82944
1.88235
1.93528
1.98817
2.04097
2.09361
2.14606
2.19826
2.25017
2.30175
2.35295
2.40373
2.45405
2.50389
2.55322
2.60199
2.65019
2.69777
2.74468
2.7909
2.83639
2.88111
2.92502
2.96807
3.01023
3.05146
3.09172
3.13097
3.16917
3.20628
3.24226
3.27708
3.31069
3.34305
3.37415
3.40393
3.43239
3.45948
3.48519
3.50948
3.53235
3.55376
3.57372
3.5922
3.6092
3.62472
3.63876
3.6513
3.66235
3.67191
3.67998
3.68656
3.69168
3.69534
3.69752
3.69828
3.69769
3.69572
3.69239
3.68773
3.68179
3.6746
3.66617
3.65656
3.64579
3.63388
3.62088
3.60682
3.59172
3.57564
3.55859
3.54062
3.52174
3.502
3.48143
3.46007
3.43794
3.4151
3.39158
3.36746
3.34276
3.31754
3.29182
3.26566
3.23908
3.21213
3.18482
3.15719
3.12929
3.10116
3.07286
3.04442
3.01592
2.9874
2.95893
2.93057
2.90239
2.87447
2.84693
2.81982
2.79315
2.76611
2.7367
0.000936967
0.017435
0.0394712
0.0501114
0.0548626
0.0565445
0.0563878
0.0549792
0.0527369
0.0499951
0.0470365
0.0441077
0.0414108
0.0391028
0.0372971
0.036079
0.0355513
0.03555
0.036314
0.0380399
0.0410402
0.045636
0.0520748
0.0605334
0.0709225
0.0829775
0.0961357
0.109641
0.122788
0.135046
0.146185
0.156345
0.166172
0.176675
0.188879
0.203513
0.220879
0.240895
0.263255
0.287568
0.313438
0.340508
0.368481
0.397148
0.426406
0.456239
0.486697
0.517856
0.549807
0.582639
0.616431
0.651248
0.687149
0.724175
0.762357
0.80171
0.842233
0.883917
0.926741
0.970676
1.01569
1.06175
1.10882
1.15686
1.20584
1.25573
1.30651
1.35814
1.41059
1.46383
1.51782
1.57251
1.62784
1.68374
1.74013
1.79694
1.85408
1.91146
1.96899
2.02658
2.08414
2.1416
2.1989
2.25598
2.31278
2.36926
2.42536
2.48104
2.53624
2.59093
2.64507
2.69864
2.75159
2.80389
2.8555
2.90636
2.95645
3.00571
3.05412
3.10163
3.14819
3.19375
3.23827
3.28172
3.32405
3.36522
3.4052
3.44392
3.48137
3.51748
3.55224
3.58559
3.61751
3.64797
3.67694
3.70439
3.7303
3.75464
3.7774
3.79856
3.81811
3.83606
3.8524
3.86711
3.88021
3.8917
3.90155
3.9098
3.91643
3.92147
3.92494
3.92683
3.9272
3.92608
3.92346
3.91939
3.91389
3.90701
3.89878
3.88924
3.87842
3.86637
3.8531
3.83867
3.8231
3.80645
3.78874
3.77002
3.7503
3.72964
3.70805
3.68558
3.66226
3.63813
3.61325
3.58768
3.56146
3.53465
3.50729
3.47941
3.45106
3.42226
3.39305
3.36347
3.33355
3.30335
3.27291
3.24229
3.21154
3.18072
3.14987
3.11907
3.08837
3.05785
3.02762
2.99778
2.96839
2.93949
2.9103
2.8791
0.00149352
0.0248597
0.0475389
0.0576693
0.0619315
0.0631667
0.062586
0.0607407
0.0581044
0.0550689
0.0519652
0.049073
0.0466226
0.044791
0.043819
0.0435853
0.044187
0.0457288
0.048358
0.0522265
0.0574584
0.0641156
0.0721505
0.0814239
0.0917083
0.102657
0.113865
0.124961
0.135725
0.146111
0.156323
0.166866
0.178415
0.191594
0.206839
0.224311
0.243925
0.265444
0.288567
0.312998
0.338474
0.364781
0.391762
0.419331
0.447472
0.476225
0.50567
0.535907
0.567038
0.599156
0.632354
0.666709
0.702291
0.739157
0.777349
0.816898
0.857822
0.900125
0.943807
0.988853
1.03524
1.08295
1.13194
1.18218
1.23364
1.28628
1.34006
1.39493
1.45087
1.50783
1.56573
1.62452
1.68411
1.7444
1.80528
1.86667
1.92847
1.99056
2.05283
2.11516
2.17747
2.23966
2.30166
2.3634
2.42483
2.48589
2.5465
2.60662
2.6662
2.72519
2.78357
2.8413
2.89834
2.95464
3.01015
3.06484
3.11865
3.17155
3.22348
3.27442
3.32429
3.37306
3.42067
3.4671
3.51229
3.5562
3.5988
3.64003
3.67986
3.71823
3.7551
3.79045
3.82424
3.85644
3.88703
3.91596
3.94322
3.96877
3.99262
4.01473
4.0351
4.05374
4.07064
4.0858
4.09922
4.11089
4.12082
4.12902
4.13549
4.14025
4.14332
4.14472
4.14452
4.14271
4.13928
4.13431
4.12783
4.11988
4.11049
4.09972
4.08759
4.07414
4.05943
4.04348
4.02635
4.00807
3.98868
3.96824
3.94676
3.92428
3.90084
3.87646
3.85118
3.82506
3.79817
3.77056
3.74229
3.71341
3.68396
3.65398
3.62349
3.59254
3.56115
3.52935
3.49721
3.46478
3.43212
3.39927
3.36628
3.33321
3.30011
3.26704
3.23407
3.20128
3.16878
3.13668
3.10503
3.07391
3.04258
3.00955
0.00222166
0.0314994
0.0549676
0.0651572
0.0692698
0.0702796
0.0694038
0.0672385
0.064371
0.061286
0.05837
0.0559182
0.054163
0.0533611
0.0532918
0.0542359
0.0561668
0.0591344
0.0631707
0.068285
0.0744558
0.0816148
0.0896341
0.0983432
0.107555
0.117097
0.126837
0.136707
0.146755
0.157193
0.168367
0.180683
0.194485
0.209992
0.227263
0.246217
0.266679
0.288437
0.311281
0.335033
0.359545
0.384717
0.41049
0.436853
0.463844
0.491534
0.52002
0.549405
0.5798
0.611306
0.644023
0.678041
0.713442
0.750296
0.788658
0.828568
0.870065
0.91317
0.9579
1.00426
1.05223
1.1018
1.15296
1.20566
1.25987
1.31555
1.37265
1.43111
1.49086
1.55185
1.61398
1.67717
1.74127
1.80616
1.87172
1.93781
2.00434
2.07118
2.1382
2.20527
2.2723
2.33918
2.40583
2.47219
2.53817
2.60369
2.66867
2.73308
2.79686
2.85998
2.9224
2.98408
3.04497
3.10503
3.1642
3.22244
3.27969
3.33591
3.39106
3.44509
3.49795
3.54957
3.59993
3.64896
3.69664
3.74291
3.78775
3.83109
3.8729
3.91313
3.95173
3.98868
4.02395
4.05749
4.08929
4.11932
4.14755
4.17395
4.1985
4.2212
4.24204
4.26102
4.27814
4.29341
4.30682
4.31837
4.32808
4.33594
4.34196
4.34617
4.34859
4.34927
4.34829
4.34557
4.34113
4.33508
4.32745
4.31827
4.30758
4.29543
4.28187
4.26694
4.25068
4.23314
4.21436
4.19439
4.17328
4.15108
4.12781
4.10352
4.07824
4.05196
4.02474
3.99667
3.96781
3.93823
3.90798
3.8771
3.84565
3.81365
3.78114
3.74812
3.71464
3.68074
3.64648
3.61194
3.57716
3.5422
3.5071
3.47191
3.43666
3.40143
3.36629
3.33133
3.29665
3.26236
3.22853
3.19524
3.16182
3.12702
0.0030752
0.0375577
0.062513
0.072908
0.0769293
0.0777708
0.0766604
0.0742439
0.0712279
0.0682761
0.065852
0.0642275
0.063512
0.0634688
0.0644451
0.0663979
0.0692822
0.0730658
0.0777159
0.0831897
0.0894256
0.0963478
0.103872
0.111923
0.120446
0.129412
0.138841
0.14883
0.159535
0.171162
0.183917
0.19797
0.2134
0.230207
0.248312
0.267595
0.287911
0.309129
0.331132
0.353835
0.377181
0.401147
0.425743
0.451006
0.477002
0.503823
0.531576
0.560366
0.590296
0.621474
0.654006
0.68799
0.723521
0.760677
0.799532
0.84015
0.882584
0.92688
0.97307
1.02117
1.07119
1.12312
1.17694
1.23262
1.29012
1.34938
1.41034
1.47291
1.53699
1.60246
1.66922
1.73712
1.80599
1.87567
1.94598
2.01677
2.08794
2.15938
2.23097
2.3026
2.37414
2.44549
2.51659
2.58733
2.65762
2.72734
2.79637
2.86472
2.93236
2.99924
3.06531
3.13053
3.19486
3.25824
3.3206
3.3819
3.4421
3.50114
3.55898
3.61557
3.67086
3.72479
3.77731
3.82839
3.87797
3.92603
3.97252
4.0174
4.06062
4.10212
4.14188
4.17986
4.21604
4.25037
4.28284
4.31342
4.34209
4.36882
4.3936
4.4164
4.43724
4.45611
4.47302
4.48797
4.50096
4.51199
4.52107
4.52821
4.53343
4.53676
4.53824
4.53794
4.53591
4.53198
4.52633
4.51899
4.51001
4.49942
4.48728
4.47362
4.4585
4.44196
4.42406
4.40485
4.38436
4.36266
4.33979
4.31581
4.29075
4.26466
4.23757
4.20944
4.18035
4.1504
4.11967
4.08821
4.05608
4.02332
3.98998
3.95609
3.92168
3.88675
3.85131
3.81545
3.77924
3.74275
3.70602
3.66911
3.63206
3.59491
3.55767
3.52043
3.48327
3.44628
3.40956
3.37322
3.33733
3.30199
3.26658
3.23012
0.00399756
0.0438183
0.0699173
0.0806082
0.0846016
0.0853016
0.0838283
0.0811118
0.0781575
0.0756645
0.0740299
0.0733301
0.0732615
0.0740522
0.0757672
0.0783522
0.0817398
0.0858778
0.0907235
0.0962408
0.102397
0.109172
0.11655
0.124529
0.13313
0.142406
0.152441
0.163326
0.175167
0.188057
0.202041
0.217137
0.23331
0.250494
0.268602
0.287549
0.307257
0.327668
0.348743
0.370469
0.392851
0.415914
0.439711
0.464313
0.48978
0.51621
0.543715
0.572405
0.602393
0.633792
0.666715
0.701271
0.737565
0.775693
0.815744
0.857796
0.901927
0.948199
0.996667
1.04736
1.10028
1.15541
1.21275
1.27224
1.33383
1.39746
1.46302
1.53037
1.59935
1.66978
1.74147
1.81425
1.88794
1.96233
2.03722
2.11241
2.18778
2.2633
2.33894
2.41461
2.49016
2.56548
2.64052
2.71513
2.7892
2.86256
2.93512
3.00692
3.07789
3.14797
3.2171
3.28525
3.35237
3.41839
3.48325
3.54689
3.60928
3.67038
3.73014
3.7885
3.84543
3.90086
3.95475
4.00705
4.05774
4.10677
4.15411
4.19971
4.24354
4.28554
4.32568
4.36392
4.40024
4.43462
4.46703
4.49746
4.52587
4.55226
4.5766
4.5989
4.61914
4.63733
4.65347
4.66756
4.6796
4.68961
4.69758
4.70355
4.70754
4.7096
4.70978
4.70823
4.70471
4.69932
4.69217
4.68329
4.67273
4.66053
4.64673
4.63139
4.61456
4.59629
4.57663
4.55564
4.53336
4.50985
4.48517
4.45937
4.43249
4.40458
4.37569
4.34579
4.31495
4.28327
4.2508
4.21761
4.18375
4.14926
4.11418
4.07857
4.04244
4.00579
3.96859
3.93098
3.89303
3.8548
3.81634
3.77769
3.7389
3.7
3.66099
3.62194
3.58296
3.54414
3.50559
3.46739
3.42961
3.3924
3.35514
3.31723
0.00494281
0.049888
0.0771167
0.088048
0.0919771
0.0924996
0.0906258
0.0877869
0.0851487
0.0833148
0.0824643
0.0822859
0.082839
0.0841953
0.0863941
0.0893686
0.0930613
0.0974343
0.102468
0.108158
0.114507
0.12153
0.129253
0.137716
0.146966
0.157056
0.168035
0.179943
0.192791
0.206572
0.221274
0.236863
0.253272
0.270449
0.288341
0.306918
0.326162
0.346077
0.366666
0.387962
0.410012
0.432896
0.456729
0.481529
0.507302
0.534208
0.562416
0.592017
0.623122
0.655843
0.690297
0.726602
0.764873
0.80521
0.847714
0.892472
0.939571
0.989079
1.04107
1.09557
1.15254
1.21195
1.27375
1.33788
1.40427
1.47284
1.54346
1.61595
1.69009
1.76557
1.84204
1.91938
1.99742
2.07602
2.15494
2.23395
2.31296
2.39203
2.4711
2.55002
2.62866
2.70703
2.78515
2.86276
2.93968
3.01581
3.09115
3.16557
3.23899
3.31133
3.38256
3.45263
3.52148
3.58905
3.65528
3.72013
3.78356
3.84554
3.90604
3.965
4.02239
4.07815
4.13222
4.18458
4.23521
4.28406
4.33112
4.37636
4.41972
4.46114
4.5006
4.53808
4.57355
4.607
4.63842
4.66778
4.69507
4.72026
4.74336
4.76434
4.78322
4.8
4.81468
4.82728
4.8378
4.84625
4.85263
4.85696
4.85928
4.85968
4.85834
4.85501
4.84973
4.84261
4.83372
4.82309
4.81076
4.79679
4.78121
4.76409
4.74548
4.72542
4.70398
4.6812
4.65715
4.63187
4.60543
4.57787
4.54925
4.51962
4.48902
4.45751
4.42514
4.39193
4.35794
4.32322
4.28783
4.25181
4.21521
4.17807
4.14044
4.1023
4.06363
4.02455