/*--------------------------------*- C++ -*----------------------------------*\
  =========                 |
  \\      /  F ield         | OpenFOAM: The Open Source CFD Toolbox
   \\    /   O peration     | Website:  https://openfoam.org
    \\  /    A nd           | Version:  8
     \\/     M anipulation  |
\*---------------------------------------------------------------------------*/
FoamFile
{
    version     2.0;
    format      ascii;
    class       volScalarField;
    location    "1300";
    object      nut;
}
// * * * * * * * * * * * * * * * * * * * * * * * * * * * * * * * * * * * * * //

dimensions      [0 2 -1 0 0 0 0];

internalField   nonuniform List<scalar> 
12225
(
6.48216e-06
1.30132e-05
1.61378e-05
1.77688e-05
1.72606e-05
1.72666e-05
2.39459e-05
2.08847e-05
1.61104e-05
3.48214e-05
2.68877e-05
3.06257e-05
2.44749e-05
2.09876e-05
1.92737e-05
1.81292e-05
1.7766e-05
1.68447e-05
0.000123246
5.05802e-05
4.18703e-05
4.90925e-05
4.26124e-05
3.85898e-05
4.45176e-05
4.16158e-05
4.19528e-05
4.9128e-05
4.70225e-05
5.07131e-05
5.09178e-05
5.09841e-05
4.97829e-05
4.81457e-05
4.69752e-05
4.79039e-05
0.000490037
0.000261061
0.000170777
0.000117246
9.53924e-05
8.15073e-05
7.75828e-05
6.90665e-05
6.44081e-05
6.10876e-05
5.77846e-05
5.59164e-05
5.45366e-05
5.21094e-05
5.13377e-05
5.01186e-05
4.93637e-05
4.87064e-05
0.000765197
0.000550563
0.000433739
0.000376562
0.000316204
0.000268341
0.00024042
0.000212268
0.000194236
0.000177542
0.000166402
0.000154856
0.000147811
0.000138976
0.000133852
0.000127597
0.000124309
0.000119068
0.000926982
0.000812849
0.000720854
0.000671034
0.000630351
0.00056235
0.000514248
0.000466506
0.000434451
0.000401568
0.000380532
0.000356349
0.000341949
0.000323394
0.000313049
0.000298716
0.000291436
0.000279235
0.000959706
0.000916479
0.000881075
0.000828146
0.000824375
0.000784959
0.000748622
0.000706269
0.000675646
0.000640946
0.000617447
0.000589224
0.000571384
0.000548425
0.000534952
0.000515964
0.000505788
0.000488922
0.000945764
0.000936867
0.000924086
0.000910258
0.000901375
0.00089076
0.000874079
0.000850905
0.000832803
0.00080995
0.000793131
0.000771944
0.000757365
0.000738593
0.000726569
0.000709936
0.000699968
0.000684424
0.000938847
0.000937209
0.000934123
0.000930581
0.000924741
0.000920828
0.000914392
0.00090365
0.000894578
0.000882193
0.00087242
0.000859539
0.000850064
0.000837676
0.000829227
0.000817541
0.000810044
0.0007984
0.000937456
0.000936548
0.000935615
0.00093421
0.0009329
0.000930625
0.000928033
0.000923839
0.000919356
0.000913898
0.000908752
0.000902215
0.000896794
0.000889829
0.000884586
0.000877659
0.00087264
0.000865314
0.000937157
0.000936249
0.000935566
0.00093466
0.000934054
0.000932993
0.000931964
0.00093035
0.000928729
0.000926445
0.000924354
0.000921547
0.000918982
0.000915934
0.000913054
0.000909889
0.000906998
0.0009034
0.000937095
0.000936192
0.000935464
0.000934645
0.000934007
0.000933248
0.000932602
0.000931776
0.000931045
0.000930053
0.000929168
0.000928003
0.000926936
0.000925637
0.000924491
0.00092305
0.000921874
0.000920243
0.000937073
0.000936192
0.000935415
0.000934625
0.000933929
0.000933215
0.000932588
0.000931924
0.000931342
0.000930692
0.000930121
0.000929462
0.00092888
0.000928207
0.000927625
0.000926942
0.000926348
0.000925641
0.000937062
0.000936195
0.000935392
0.000934612
0.00093389
0.000933185
0.000932535
0.000931894
0.000931306
0.000930718
0.000930178
0.000929633
0.00092913
0.000928621
0.000928151
0.000927675
0.000927229
0.000926776
0.000937057
0.000936194
0.00093538
0.000934602
0.000933867
0.000933164
0.000932499
0.000931861
0.000931258
0.000930677
0.000930127
0.000929597
0.000929094
0.00092861
0.000928149
0.000927704
0.000927279
0.000926869
0.000937055
0.000936193
0.000935373
0.000934593
0.000933852
0.000933147
0.000932475
0.000931835
0.000931225
0.000930642
0.000930086
0.000929553
0.000929045
0.000928559
0.000928094
0.000927648
0.000927222
0.000926813
0.000937055
0.000936191
0.000935369
0.000934587
0.000933843
0.000933135
0.00093246
0.000931817
0.000931203
0.000930617
0.000930057
0.000929521
0.00092901
0.00092852
0.000928051
0.000927602
0.000927172
0.000926761
0.000937055
0.00093619
0.000935367
0.000934584
0.000933838
0.000933128
0.000932451
0.000931806
0.00093119
0.000930602
0.000930039
0.000929502
0.000928987
0.000928496
0.000928024
0.000927573
0.000927141
0.000926728
0.000937055
0.000936189
0.000935366
0.000934582
0.000933837
0.000933126
0.000932449
0.000931802
0.000931186
0.000930596
0.000930033
0.000929494
0.000928978
0.000928485
0.000928013
0.000927561
0.000927128
0.000926713
0.000937055
0.000936189
0.000935366
0.000934583
0.000933838
0.000933128
0.000932451
0.000931805
0.000931188
0.000930599
0.000930035
0.000929497
0.000928981
0.000928488
0.000928015
0.000927564
0.00092713
0.000926716
0.000937055
0.000936191
0.000935369
0.000934588
0.000933843
0.000933134
0.000932458
0.000931814
0.000931198
0.00093061
0.000930048
0.00092951
0.000928995
0.000928502
0.00092803
0.000927578
0.000927145
0.00092673
0.000937056
0.000936194
0.000935372
0.000934595
0.000933851
0.000933146
0.000932471
0.000931831
0.000931213
0.000930628
0.000930061
0.000929523
0.000929
0.000928503
0.000928019
0.000927558
0.000927108
0.00092668
0.000937062
0.000936199
0.000935377
0.000934607
0.000933864
0.000933164
0.000932481
0.000931838
0.00093119
0.000930578
0.000929946
0.000929353
0.00092873
0.000928148
0.000927531
0.000926959
0.000926345
0.00092578
0.000937136
0.000936188
0.000935386
0.000934624
0.000933863
0.000933094
0.000932297
0.000931448
0.000930497
0.000929504
0.000928345
0.00092722
0.000925876
0.000924626
0.000923172
0.000921862
0.000920318
0.000918965
0.000937762
0.000935989
0.000935354
0.000934371
0.000933109
0.000931497
0.000929455
0.000926817
0.000923928
0.000920321
0.000916522
0.000912543
0.000907944
0.00090376
0.000899036
0.000894886
0.000890099
0.000886043
0.000941973
0.000933733
0.000933651
0.000928991
0.000923915
0.000916825
0.000907053
0.00089683
0.000884585
0.000872778
0.000859683
0.000847818
0.000835051
0.000823936
0.000811972
0.000801876
0.000790725
0.000781679
0.000963618
0.000911035
0.000910176
0.000891974
0.000864464
0.000835599
0.000803283
0.000773852
0.00074346
0.000717216
0.000690796
0.000668824
0.000646669
0.000628752
0.000610219
0.000595616
0.000579872
0.000567892
0.00103154
0.000807085
0.00077839
0.000707916
0.000639526
0.000581407
0.000529331
0.000488472
0.000452073
0.00042381
0.000397805
0.000377793
0.000358588
0.000344019
0.000329276
0.000318322
0.00030657
0.00029808
0.00109644
0.000502893
0.000393602
0.000315369
0.000263752
0.000227352
0.00020036
0.000181381
0.000166333
0.000155205
0.000145852
0.000138773
0.000132493
0.000127708
0.000123162
0.000119733
0.000116243
0.000113658
0.000343678
0.000120581
8.54423e-05
7.14299e-05
6.42565e-05
6.0374e-05
5.83318e-05
5.72661e-05
5.69688e-05
5.71171e-05
5.77023e-05
5.8523e-05
5.96822e-05
6.08912e-05
6.23377e-05
6.38089e-05
6.44101e-05
6.44056e-05
1.23867e-05
1.66281e-05
1.95936e-05
2.14369e-05
2.25301e-05
2.29793e-05
2.3111e-05
2.30663e-05
2.28399e-05
2.25528e-05
2.22438e-05
2.19344e-05
2.16387e-05
2.1363e-05
2.11112e-05
2.08832e-05
2.06789e-05
2.04995e-05
1.61234e-12
1.82056e-10
9.28617e-10
3.66404e-09
1.22531e-08
3.74296e-08
9.71168e-08
1.92769e-07
3.11787e-07
4.37142e-07
5.49371e-07
6.36526e-07
6.94688e-07
7.16799e-07
7.07647e-07
6.79279e-07
6.25057e-07
5.35621e-07
4.56594e-07
3.88588e-07
3.24081e-07
2.6139e-07
2.00725e-07
1.44449e-07
9.42172e-08
5.52119e-08
2.92828e-08
1.46971e-08
7.44589e-09
4.03641e-09
2.42234e-09
1.8705e-09
1.86962e-09
4.69159e-09
9.22201e-09
6.25627e-08
1.25831e-07
2.84412e-07
4.28662e-07
4.68038e-07
4.29697e-07
3.43747e-07
2.86062e-07
2.81108e-07
3.08715e-07
4.19031e-07
5.60376e-07
1.12903e-06
2.57698e-06
7.95053e-06
2.05011e-05
3.50934e-05
4.44132e-05
4.57368e-05
2.99013e-05
3.40157e-05
3.86974e-05
3.86833e-05
4.09713e-05
3.30806e-05
3.51742e-05
3.65881e-05
3.07123e-05
3.36251e-05
3.3355e-05
3.43648e-05
3.47638e-05
3.54492e-05
3.59652e-05
3.65595e-05
3.70926e-05
3.76519e-05
3.81816e-05
3.8722e-05
3.92455e-05
3.97735e-05
4.02911e-05
4.08105e-05
4.13232e-05
4.18364e-05
4.23452e-05
4.28539e-05
4.33596e-05
4.38649e-05
4.43682e-05
4.48708e-05
4.5372e-05
4.58723e-05
4.63714e-05
4.68692e-05
4.73653e-05
4.78594e-05
4.83509e-05
4.88393e-05
4.93244e-05
4.98057e-05
5.02835e-05
5.07587e-05
5.12341e-05
5.17146e-05
5.22083e-05
5.2699e-05
5.31939e-05
5.36936e-05
5.41978e-05
5.47088e-05
5.52253e-05
5.57495e-05
5.62805e-05
5.68203e-05
5.73682e-05
5.79262e-05
5.84939e-05
5.90731e-05
5.96637e-05
6.02674e-05
6.08846e-05
6.15167e-05
6.21645e-05
6.28293e-05
6.35124e-05
6.42149e-05
6.49386e-05
6.56845e-05
6.6455e-05
6.72511e-05
6.80757e-05
6.89368e-05
6.98375e-05
7.07421e-05
7.17355e-05
7.26953e-05
7.37635e-05
7.48544e-05
7.60265e-05
7.72476e-05
7.83404e-05
7.80906e-05
7.78324e-05
7.75595e-05
7.72766e-05
7.69823e-05
7.66781e-05
7.63639e-05
7.60402e-05
7.57076e-05
7.53664e-05
7.50175e-05
7.46612e-05
7.43047e-05
7.39284e-05
7.35658e-05
7.31725e-05
7.28023e-05
7.23957e-05
7.20177e-05
7.16056e-05
7.12152e-05
7.0811e-05
7.04107e-05
7.00083e-05
6.96056e-05
6.92023e-05
6.87989e-05
6.83955e-05
6.79928e-05
6.75912e-05
6.71915e-05
6.67942e-05
6.63996e-05
6.60076e-05
6.56177e-05
6.52291e-05
6.48386e-05
6.44427e-05
6.40333e-05
6.36e-05
6.31134e-05
6.25155e-05
6.09138e-05
6.92341e-12
1.11595e-09
1.51861e-08
8.20781e-08
3.56834e-07
1.2081e-06
2.75056e-06
5.03102e-06
7.79695e-06
1.09476e-05
1.41312e-05
1.70756e-05
1.95719e-05
2.14566e-05
2.2549e-05
2.288e-05
2.25415e-05
2.17424e-05
1.94736e-05
1.6356e-05
1.26148e-05
9.28481e-06
6.5419e-06
4.41493e-06
2.78075e-06
1.71938e-06
1.04843e-06
6.5048e-07
4.07888e-07
2.67038e-07
1.90411e-07
1.74888e-07
1.34984e-07
3.38045e-07
4.12299e-07
3.63406e-06
7.38993e-06
1.50847e-05
2.1016e-05
2.31105e-05
2.18053e-05
1.94699e-05
1.70802e-05
1.60575e-05
1.67799e-05
1.71639e-05
2.02546e-05
2.75348e-05
3.90924e-05
5.0336e-05
6.25236e-05
7.29858e-05
8.2816e-05
9.06515e-05
9.60624e-05
0.00010703
0.000118886
0.000133405
0.000149983
0.000158114
0.000172324
0.000189013
0.000197072
0.000211567
0.000222991
0.000234951
0.000246237
0.000257176
0.000267663
0.000277831
0.000287701
0.000297285
0.000306651
0.000315789
0.000324753
0.00033354
0.000342179
0.000350673
0.000359038
0.00036728
0.000375404
0.000383418
0.000391321
0.000399122
0.000406819
0.000414418
0.000421918
0.000429323
0.000436635
0.000443854
0.000450979
0.000458008
0.000464934
0.000471745
0.000478422
0.000484936
0.000491245
0.000497284
0.00050296
0.000508144
0.000512675
0.000517246
0.000521615
0.000525906
0.000530056
0.000534093
0.000538
0.000541779
0.000545426
0.000548938
0.000552313
0.000555546
0.000558637
0.000561581
0.000564377
0.000567023
0.000569515
0.000571853
0.000574034
0.000576058
0.000577921
0.000579624
0.000581164
0.00058254
0.000583751
0.000584796
0.000585672
0.000586379
0.000586935
0.000587301
0.000587579
0.000587549
0.000587463
0.000587159
0.000586844
0.000586473
0.000586159
0.000585991
0.000585646
0.000585165
0.000584554
0.000583816
0.000582954
0.000581971
0.000580869
0.00057965
0.000578317
0.000576868
0.000575367
0.000573637
0.00057212
0.000570085
0.000568436
0.000566193
0.000564385
0.000562012
0.000559856
0.00055751
0.000555135
0.000552706
0.000550218
0.00054768
0.00054509
0.000542449
0.000539757
0.000537018
0.000534236
0.000531415
0.000528559
0.00052567
0.000522746
0.00051978
0.000516768
0.000513664
0.000510424
0.000506967
0.000503159
0.000498691
0.000492794
0.000476476
1.90086e-11
3.24758e-09
6.11997e-08
3.75192e-07
1.04762e-06
2.99296e-06
6.29741e-06
1.09272e-05
1.66382e-05
2.31246e-05
3.00054e-05
3.68433e-05
4.30054e-05
4.8139e-05
5.20172e-05
5.45713e-05
5.59619e-05
5.62832e-05
5.47782e-05
5.19022e-05
4.72262e-05
4.12975e-05
3.40797e-05
2.68251e-05
2.01677e-05
1.44357e-05
9.80981e-06
6.55083e-06
4.16137e-06
2.77368e-06
1.95256e-06
1.60291e-06
1.25477e-06
2.36157e-06
4.24551e-06
1.71994e-05
3.58285e-05
5.42979e-05
6.37614e-05
6.20904e-05
5.04364e-05
4.09706e-05
3.99826e-05
4.64964e-05
5.38465e-05
6.34392e-05
7.66687e-05
8.91601e-05
0.00010214
0.000119426
0.000138088
0.000159084
0.000182088
0.000208066
0.000236093
0.000267036
0.00029855
0.000330608
0.000361992
0.000390009
0.000418567
0.000447747
0.000472657
0.00049848
0.000522688
0.000545912
0.000568134
0.000589559
0.000610287
0.000630406
0.000650004
0.000669129
0.000687858
0.000706214
0.00072425
0.000741981
0.00075944
0.000776635
0.000793586
0.000810299
0.000826784
0.000843045
0.000859088
0.000874915
0.000890528
0.000905929
0.000921117
0.000936093
0.000950851
0.000965389
0.000979697
0.000993762
0.00100757
0.00102109
0.00103429
0.00104715
0.00105961
0.00107164
0.0010832
0.00109427
0.00110499
0.00111555
0.00112582
0.00113586
0.00114563
0.00115513
0.00116435
0.0011733
0.00118195
0.00119031
0.00119837
0.00120611
0.00121355
0.00122067
0.00122746
0.00123392
0.00124006
0.00124585
0.00125131
0.00125642
0.00126119
0.00126561
0.00126968
0.0012734
0.00127677
0.00127979
0.00128246
0.00128477
0.00128675
0.00128836
0.00128967
0.00129057
0.0012912
0.00129143
0.00129155
0.00129147
0.00129122
0.00129078
0.00129003
0.00128898
0.00128764
0.00128602
0.00128412
0.00128194
0.0012795
0.0012768
0.00127385
0.00127065
0.00126732
0.00126357
0.00125998
0.00125569
0.00125173
0.00124699
0.00124262
0.00123755
0.00123263
0.00122743
0.00122212
0.00121668
0.00121112
0.00120546
0.00119968
0.00119379
0.0011878
0.0011817
0.00117552
0.00116926
0.00116293
0.00115654
0.00115008
0.00114354
0.00113689
0.00113007
0.00112297
0.00111543
0.00110713
0.00109731
0.00108408
0.00105443
7.0139e-11
1.18641e-08
1.87443e-07
8.13325e-07
2.52822e-06
6.98357e-06
1.38196e-05
2.30033e-05
3.38253e-05
4.51891e-05
5.61724e-05
6.62056e-05
7.48078e-05
8.13791e-05
8.63326e-05
8.94897e-05
9.07698e-05
9.05351e-05
8.89188e-05
8.57461e-05
8.11691e-05
7.56021e-05
6.81971e-05
5.93655e-05
4.95915e-05
3.97668e-05
3.06839e-05
2.31087e-05
1.72626e-05
1.25919e-05
9.74854e-06
7.23772e-06
7.88528e-06
1.17191e-05
2.671e-05
4.98693e-05
6.90356e-05
7.85712e-05
7.60122e-05
7.30124e-05
7.30549e-05
7.67607e-05
8.45702e-05
9.57321e-05
0.000110721
0.000122413
0.000141734
0.00016534
0.000191551
0.000224132
0.000259197
0.000298508
0.000340159
0.000384096
0.000428815
0.000474233
0.000519134
0.000563263
0.000605758
0.000646185
0.000685581
0.00072382
0.000759858
0.00079495
0.000828613
0.00086102
0.000892393
0.00092286
0.000952532
0.000981503
0.00100986
0.00103766
0.00106496
0.00109182
0.00111825
0.0011443
0.00116997
0.00119528
0.00122024
0.00124486
0.00126915
0.0012931
0.00131672
0.00134001
0.00136296
0.00138559
0.00140787
0.00142982
0.00145141
0.00147265
0.00149352
0.00151401
0.0015341
0.00155377
0.00157299
0.00159176
0.00161004
0.00162783
0.00164515
0.00166201
0.0016785
0.00169465
0.0017104
0.00172577
0.00174074
0.0017553
0.00176944
0.00178315
0.00179643
0.00180925
0.00182162
0.00183352
0.00184495
0.00185591
0.00186638
0.00187635
0.00188584
0.00189482
0.00190329
0.00191126
0.00191872
0.00192567
0.00193211
0.00193803
0.00194344
0.00194833
0.00195272
0.0019566
0.00195997
0.00196284
0.00196523
0.00196709
0.00196847
0.00196934
0.00196999
0.00197025
0.00197012
0.0019696
0.00196863
0.00196722
0.00196539
0.00196314
0.00196048
0.00195742
0.00195396
0.00195012
0.00194592
0.00194135
0.00193651
0.00193122
0.00192582
0.00191984
0.00191383
0.0019072
0.00190059
0.00189342
0.00188615
0.00187859
0.00187083
0.00186287
0.00185473
0.00184642
0.00183794
0.0018293
0.0018205
0.00181155
0.00180246
0.00179326
0.00178396
0.00177457
0.00176508
0.00175548
0.00174572
0.00173574
0.00172539
0.00171448
0.00170258
0.00168864
0.00167008
0.00163489
2.40784e-10
3.56758e-08
4.20113e-07
1.98375e-06
6.86428e-06
1.64521e-05
3.04327e-05
4.70249e-05
6.42866e-05
8.04852e-05
9.44471e-05
0.000105329
0.00011334
0.000118815
0.000121879
0.000123135
0.000122799
0.000121091
0.000118187
0.000114101
0.00010881
0.000102832
9.54447e-05
8.6747e-05
7.67036e-05
6.56253e-05
5.431e-05
4.40365e-05
3.55081e-05
2.84895e-05
2.24596e-05
2.09654e-05
2.63615e-05
4.39023e-05
6.84197e-05
8.43816e-05
9.22689e-05
9.57893e-05
9.85726e-05
0.000103613
0.000112478
0.000126069
0.000139496
0.000152387
0.000173708
0.000202979
0.000234997
0.000274152
0.000317044
0.00036517
0.000415432
0.000468684
0.000523017
0.000578112
0.000632916
0.000687192
0.000740332
0.000792156
0.000842313
0.000890512
0.000937453
0.000983156
0.00102698
0.00106945
0.00111062
0.0011506
0.00118954
0.00122756
0.00126475
0.00130121
0.001337
0.00137217
0.00140679
0.00144088
0.00147447
0.00150758
0.00154023
0.00157242
0.00160416
0.00163545
0.00166629
0.00169669
0.00172665
0.00175615
0.0017852
0.0018138
0.00184194
0.00186961
0.00189681
0.00192354
0.00194978
0.00197552
0.00200075
0.00202546
0.00204964
0.00207328
0.00209639
0.00211897
0.00214103
0.0021626
0.00218369
0.00220429
0.0022244
0.00224401
0.00226309
0.00228164
0.00229965
0.00231711
0.002334
0.00235032
0.00236605
0.00238119
0.00239574
0.00240968
0.002423
0.00243572
0.0024478
0.00245927
0.0024701
0.00248031
0.00248988
0.00249882
0.00250713
0.0025148
0.00252185
0.00252826
0.00253405
0.00253922
0.00254378
0.00254773
0.00255106
0.0025538
0.00255587
0.00255739
0.00255857
0.00255919
0.00255929
0.00255887
0.0025579
0.00255641
0.00255439
0.00255186
0.00254883
0.00254529
0.00254128
0.00253679
0.00253185
0.00252647
0.0025207
0.00251446
0.00250791
0.00250085
0.00249351
0.00248566
0.00247755
0.00246899
0.00246016
0.002451
0.00244158
0.00243189
0.00242197
0.00241182
0.00240145
0.00239087
0.00238007
0.00236908
0.00235792
0.0023466
0.00233514
0.00232353
0.0023118
0.00229993
0.00228788
0.00227557
0.00226288
0.0022496
0.00223529
0.00221894
0.00219751
0.00216207
7.69183e-10
8.77166e-08
1.05667e-06
5.36281e-06
1.7399e-05
3.65858e-05
5.95204e-05
8.29479e-05
0.000103563
0.000119906
0.000131993
0.000140706
0.000145931
0.00014863
0.000149401
0.000148666
0.000146674
0.000143606
0.000139585
0.00013457
0.000128651
0.000122121
0.000114413
0.000105642
9.44284e-05
7.88767e-05
6.38583e-05
4.98367e-05
3.83265e-05
3.3388e-05
3.43489e-05
4.60093e-05
6.77339e-05
8.96133e-05
0.000105032
0.000114382
0.00012037
0.000126739
0.000137023
0.000153227
0.00016486
0.000178236
0.000201402
0.000230629
0.000266039
0.000308786
0.000355911
0.000408778
0.000464356
0.000523073
0.000583101
0.000644456
0.000705989
0.000767341
0.000827944
0.000887603
0.00094568
0.00100243
0.00105803
0.00111199
0.00116445
0.00121551
0.00126508
0.00131334
0.0013604
0.00140634
0.00145129
0.00149533
0.00153855
0.001581
0.00162276
0.00166387
0.00170435
0.00174425
0.00178358
0.00182235
0.00186056
0.00189823
0.00193534
0.0019719
0.00200791
0.00204336
0.00207826
0.00211259
0.00214636
0.00217956
0.0022122
0.00224426
0.00227575
0.00230665
0.00233697
0.0023667
0.00239584
0.00242437
0.0024523
0.00247963
0.00250636
0.0025325
0.00255806
0.00258304
0.00260743
0.00263125
0.00265447
0.00267708
0.00269908
0.00272044
0.00274117
0.00276126
0.00278068
0.00279944
0.00281751
0.0028349
0.00285161
0.00286762
0.00288293
0.00289754
0.00291144
0.00292463
0.00293711
0.00294889
0.00295995
0.0029703
0.00297994
0.00298888
0.00299712
0.00300465
0.00301149
0.00301765
0.00302316
0.00302793
0.00303204
0.0030355
0.00303819
0.00304032
0.00304198
0.00304301
0.00304343
0.00304325
0.00304248
0.00304111
0.00303917
0.00303666
0.00303359
0.00302996
0.0030258
0.00302111
0.00301591
0.00301022
0.00300407
0.00299742
0.00299035
0.00298278
0.00297481
0.00296635
0.0029575
0.00294822
0.00293857
0.00292856
0.00291823
0.00290759
0.00289667
0.00288547
0.00287401
0.00286228
0.00285031
0.00283809
0.00282567
0.00281305
0.00280025
0.0027873
0.00277418
0.00276091
0.00274744
0.00273372
0.00271964
0.00270502
0.00268946
0.00267206
0.00265009
0.00261659
2.47337e-09
2.25205e-07
2.79992e-06
1.46088e-05
3.79173e-05
6.71564e-05
9.48266e-05
0.000117313
0.000134496
0.000147356
0.000156409
0.00016195
0.000164854
0.000165774
0.000165179
0.000163385
0.000160587
0.000156876
0.000152184
0.00014644
0.000139874
0.000132251
0.000123305
0.000106951
9.14299e-05
7.77617e-05
6.57097e-05
5.72107e-05
5.62087e-05
6.43925e-05
7.79078e-05
0.000102467
0.000120234
0.000133198
0.000142661
0.00015086
0.000161725
0.000178368
0.000188081
0.000200913
0.000223269
0.000251536
0.00028723
0.000329547
0.000378362
0.000432851
0.000490943
0.0005524
0.00061556
0.00068029
0.000745632
0.000811298
0.000876678
0.000941491
0.00100516
0.0010677
0.00112948
0.00118982
0.00124885
0.00130647
0.00136275
0.00141773
0.00147142
0.00152393
0.00157533
0.00162569
0.00167512
0.00172366
0.00177139
0.00181837
0.00186463
0.00191021
0.00195514
0.00199942
0.00204307
0.00208609
0.00212849
0.00217024
0.00221136
0.00225183
0.00229165
0.00233082
0.00236933
0.00240718
0.00244437
0.00248089
0.00251675
0.00255195
0.00258649
0.00262036
0.00265358
0.00268612
0.002718
0.00274922
0.00277977
0.00280965
0.00283886
0.0028674
0.00289525
0.00292245
0.002949
0.00297487
0.00300008
0.00302461
0.00304845
0.00307159
0.00309403
0.00311576
0.00313677
0.00315707
0.00317665
0.0031955
0.00321361
0.00323097
0.00324758
0.00326344
0.00327854
0.00329288
0.00330647
0.0033193
0.00333138
0.00334271
0.00335328
0.00336311
0.0033722
0.00338054
0.00338815
0.00339507
0.00340129
0.0034067
0.00341143
0.00341546
0.00341868
0.00342136
0.00342345
0.00342487
0.00342564
0.00342577
0.00342527
0.00342415
0.00342242
0.00342009
0.00341719
0.00341376
0.00340977
0.00340524
0.00340017
0.00339458
0.00338848
0.00338187
0.00337478
0.00336719
0.00335913
0.00335058
0.00334159
0.00333215
0.00332229
0.00331205
0.00330145
0.0032905
0.00327923
0.00326764
0.00325576
0.00324357
0.0032311
0.00321836
0.00320536
0.00319214
0.00317872
0.0031651
0.00315131
0.00313734
0.00312317
0.00310876
0.00309405
0.00307888
0.00306293
0.00304549
0.00302445
0.00299407
7.44456e-09
5.96201e-07
7.54451e-06
3.11039e-05
6.51179e-05
9.93027e-05
0.000127657
0.000148469
0.000162593
0.000171165
0.000175569
0.000177429
0.000177542
0.000176305
0.000174044
0.000170926
0.000166918
0.000161935
0.000156103
0.000149544
0.000142102
0.000133412
0.000116196
9.97635e-05
8.60978e-05
7.68495e-05
7.41937e-05
7.78951e-05
8.79768e-05
0.000108759
0.00013367
0.000156249
0.000169982
0.00017987
0.000191252
0.000201631
0.000208638
0.000221131
0.000241032
0.000267075
0.000300909
0.000341249
0.00038852
0.000441732
0.000500019
0.00056197
0.00062625
0.000692329
0.00075938
0.000827095
0.000894954
0.000962659
0.00102967
0.00109577
0.00116142
0.00122601
0.00128949
0.00135176
0.00141282
0.00147266
0.0015313
0.00158877
0.00164511
0.00170038
0.00175463
0.00180794
0.00186036
0.00191194
0.00196273
0.00201279
0.00206214
0.0021108
0.0021588
0.00220612
0.00225277
0.00229875
0.00234404
0.00238862
0.0024325
0.00247566
0.00251808
0.00255977
0.00260072
0.00264093
0.0026804
0.00271913
0.00275712
0.00279438
0.00283091
0.00286672
0.00290181
0.00293618
0.00296984
0.00300278
0.00303501
0.00306652
0.00309731
0.00312736
0.0031567
0.00318534
0.00321327
0.0032405
0.00326702
0.00329282
0.00331789
0.00334223
0.00336583
0.00338869
0.00341079
0.00343214
0.00345272
0.00347253
0.00349157
0.00350983
0.00352732
0.00354402
0.00355995
0.0035751
0.00358947
0.00360306
0.00361589
0.00362794
0.00363923
0.00364975
0.00365952
0.00366853
0.00367681
0.00368441
0.00369121
0.00369725
0.0037026
0.00370721
0.00371102
0.00371429
0.0037169
0.00371883
0.00372009
0.0037207
0.00372067
0.00372001
0.00371873
0.00371684
0.00371435
0.00371127
0.00370761
0.00370339
0.00369863
0.00369332
0.00368748
0.00368113
0.00367426
0.00366687
0.00365899
0.00365061
0.00364175
0.00363243
0.00362268
0.00361252
0.00360196
0.00359104
0.00357976
0.00356814
0.00355619
0.00354391
0.00353131
0.00351841
0.00350524
0.00349181
0.00347814
0.00346426
0.00345018
0.00343591
0.00342144
0.00340674
0.00339179
0.00337652
0.00336078
0.0033439
0.00332424
0.00329757
1.93599e-08
1.482e-06
1.67208e-05
5.218e-05
9.30361e-05
0.000127522
0.000153191
0.000170351
0.000181037
0.00018652
0.000188208
0.000187201
0.000184461
0.000180699
0.000176298
0.000171372
0.000165824
0.0001597
0.000152872
0.000145516
0.000137354
0.000125867
0.000114284
0.000107567
0.000102818
9.93423e-05
0.000104451
0.000119436
0.000138885
0.000159791
0.000179509
0.000195907
0.00020771
0.000216502
0.000225716
0.000237671
0.000255545
0.000278929
0.000309624
0.000346902
0.000391002
0.000441063
0.000496745
0.000556938
0.000620508
0.000686282
0.000753441
0.000821532
0.000890091
0.00095882
0.00102741
0.00109521
0.00116264
0.00122955
0.00129555
0.00136055
0.00142452
0.0014874
0.00154919
0.00160989
0.00166951
0.00172808
0.00178563
0.00184222
0.0018979
0.0019527
0.00200668
0.00205987
0.00211233
0.00216409
0.00221519
0.00226563
0.00231544
0.00236459
0.00241305
0.00246081
0.00250787
0.0025542
0.00259977
0.00264458
0.00268859
0.00273181
0.00277424
0.00281587
0.00285672
0.00289685
0.00293617
0.0029747
0.00301244
0.0030494
0.00308558
0.003121
0.00315565
0.00318955
0.00322269
0.00325509
0.00328674
0.00331767
0.00334787
0.00337734
0.00340607
0.00343408
0.00346134
0.00348785
0.00351362
0.00353864
0.0035629
0.00358639
0.00360912
0.00363107
0.00365224
0.00367264
0.00369225
0.00371109
0.00372913
0.0037464
0.00376287
0.00377857
0.00379349
0.00380764
0.00382101
0.00383361
0.00384546
0.00385654
0.00386687
0.00387645
0.00388533
0.00389351
0.00390086
0.0039075
0.00391345
0.00391865
0.00392309
0.00392697
0.00393016
0.00393267
0.00393452
0.00393572
0.00393629
0.00393622
0.00393553
0.00393424
0.00393235
0.00392988
0.00392684
0.00392323
0.00391908
0.00391438
0.00390915
0.0039034
0.00389712
0.00389033
0.00388303
0.00387522
0.00386692
0.00385816
0.00384895
0.00383931
0.00382928
0.00381885
0.00380805
0.00379689
0.00378537
0.0037735
0.00376129
0.00374876
0.00373592
0.0037228
0.00370941
0.0036958
0.00368196
0.00366791
0.00365365
0.00363919
0.00362451
0.00360956
0.00359419
0.00357795
0.00355955
0.0035362
4.30743e-08
3.41948e-06
3.00633e-05
7.60815e-05
0.000120454
0.000153925
0.000175924
0.000189674
0.000196158
0.000197249
0.000194848
0.000190335
0.00018464
0.000178344
0.000171645
0.000164535
0.000157172
0.000149192
0.000141269
0.000133008
0.000124578
0.000116895
0.000111942
0.000112136
0.000118833
0.000131173
0.000147074
0.00016474
0.000182655
0.000199533
0.000213696
0.000224943
0.000236814
0.000250007
0.000266769
0.000287915
0.000315423
0.000349109
0.000389262
0.000435266
0.000486811
0.000543192
0.000603732
0.000667395
0.000733192
0.000800308
0.000868209
0.000936543
0.00100501
0.00107309
0.00114067
0.00120826
0.00127503
0.00134104
0.00140616
0.00147034
0.00153353
0.00159572
0.00165691
0.00171709
0.00177628
0.00183452
0.00189185
0.00194833
0.00200399
0.0020589
0.00211307
0.00216648
0.00221926
0.00227144
0.00232303
0.00237406
0.00242454
0.0024745
0.00252402
0.00257296
0.00262118
0.00266862
0.00271526
0.00276107
0.00280602
0.00285011
0.00289333
0.00293567
0.00297715
0.00301772
0.00305747
0.00309642
0.00313458
0.00317197
0.00320858
0.00324444
0.00327954
0.0033139
0.00334751
0.00338038
0.00341252
0.00344392
0.00347459
0.00350452
0.0035337
0.00356214
0.00358982
0.00361676
0.00364294
0.00366836
0.00369302
0.00371691
0.00374004
0.0037624
0.00378398
0.00380478
0.00382481
0.00384406
0.00386254
0.00388024
0.00389716
0.00391331
0.0039287
0.00394332
0.00395718
0.00397029
0.00398266
0.00399427
0.00400515
0.0040153
0.00402479
0.0040335
0.00404148
0.00404875
0.00405533
0.00406118
0.00406634
0.00407088
0.00407474
0.00407793
0.00408048
0.00408238
0.00408366
0.00408431
0.00408437
0.00408382
0.00408269
0.00408099
0.00407872
0.0040759
0.00407254
0.00406865
0.00406423
0.00405929
0.00405383
0.00404785
0.00404136
0.00403436
0.00402687
0.00401891
0.00401051
0.00400168
0.00399243
0.00398279
0.00397276
0.00396236
0.00395157
0.00394042
0.00392891
0.00391705
0.00390487
0.00389239
0.00387962
0.00386659
0.00385332
0.00383982
0.0038261
0.00381218
0.00379807
0.00378374
0.00376912
0.00375387
0.00373693
0.00371715
8.17364e-08
6.99287e-06
4.43643e-05
9.62675e-05
0.000142145
0.000174619
0.000194794
0.000204316
0.000206377
0.000203559
0.000197751
0.000190265
0.000181896
0.000173036
0.000164375
0.000155785
0.000148036
0.00014118
0.000136021
0.000132206
0.000130646
0.000132198
0.000137276
0.00014606
0.000157965
0.000172173
0.000187575
0.000203177
0.000217559
0.000229979
0.000243113
0.000258112
0.0002749
0.000294834
0.000319657
0.000349894
0.000385997
0.000427613
0.000474478
0.000526075
0.000581958
0.000641502
0.000703992
0.000768579
0.000834503
0.000901185
0.000968228
0.00103534
0.00110192
0.00116842
0.00123451
0.00129998
0.00136466
0.00142847
0.00149135
0.00155329
0.00161428
0.00167434
0.00173346
0.00179168
0.00184895
0.00190535
0.00196097
0.00201586
0.0020701
0.00212375
0.00217696
0.00223001
0.00228256
0.00233459
0.00238611
0.00243711
0.00248761
0.0025376
0.00258699
0.00263576
0.00268389
0.00273128
0.00277795
0.00282384
0.00286891
0.00291313
0.00295649
0.00299899
0.00304064
0.00308147
0.00312151
0.00316076
0.00319923
0.00323693
0.00327386
0.00331005
0.00334548
0.00338017
0.00341413
0.00344734
0.00347982
0.00351156
0.00354256
0.00357282
0.00360234
0.00363111
0.00365914
0.00368642
0.00371294
0.00373871
0.00376373
0.00378799
0.00381149
0.00383422
0.0038562
0.00387741
0.00389786
0.00391754
0.00393646
0.00395462
0.00397202
0.00398866
0.00400455
0.0040197
0.0040341
0.00404778
0.00406072
0.00407294
0.00408443
0.00409525
0.00410535
0.00411473
0.00412341
0.0041314
0.00413871
0.00414532
0.00415127
0.00415658
0.00416122
0.00416521
0.00416857
0.0041713
0.00417341
0.00417492
0.00417583
0.00417617
0.00417593
0.00417513
0.00417378
0.0041719
0.00416948
0.00416655
0.00416309
0.00415913
0.00415465
0.00414965
0.00414414
0.00413813
0.00413163
0.00412467
0.00411726
0.00410942
0.00410117
0.00409252
0.00408347
0.00407404
0.00406421
0.004054
0.00404341
0.00403247
0.00402118
0.00400957
0.00399766
0.00398546
0.00397299
0.00396027
0.00394733
0.00393418
0.00392084
0.00390733
0.0038936
0.00387942
0.00386389
0.00384721
1.30287e-07
1.19954e-05
6.08106e-05
0.000118786
0.000164312
0.000194496
0.000210542
0.000216085
0.000214614
0.000208817
0.000200635
0.000191146
0.000181797
0.000172791
0.0001651
0.00015843
0.000153561
0.000150852
0.000150204
0.000151864
0.000156086
0.000162881
0.000171996
0.000183035
0.000195526
0.000208935
0.000222243
0.000234719
0.000248007
0.000263665
0.00028123
0.000300481
0.00032352
0.000350923
0.000383286