/*--------------------------------*- C++ -*----------------------------------*\
  =========                 |
  \\      /  F ield         | OpenFOAM: The Open Source CFD Toolbox
   \\    /   O peration     | Website:  https://openfoam.org
    \\  /    A nd           | Version:  8
     \\/     M anipulation  |
\*---------------------------------------------------------------------------*/
FoamFile
{
    version     2.0;
    format      ascii;
    class       volScalarField;
    location    "1300";
    object      omega;
}
// * * * * * * * * * * * * * * * * * * * * * * * * * * * * * * * * * * * * * //

dimensions      [0 0 -1 0 0 0 0];

internalField   nonuniform List<scalar> 
12225
(
32582.3
39064.1
39347.4
38850
38706.6
39460.8
32582.3
46623.7
42829.5
32582.3
38637.1
32582.3
42243.4
41123.4
46131.5
42985
46212.4
45096.5
3005.24
8047.03
11864.5
11329.2
14046.5
15510.4
14463.3
16401.3
17110.2
16499.3
17553.7
16732.5
17006.4
16978.4
17399.2
18103.7
18585
18668.6
753.909
1407.47
2212.6
3306.37
3991.69
4688.82
4931.57
5486.86
5852.99
6199.14
6535.57
6756.93
6964.23
7162.78
7361.72
7492.73
7602.85
7764.86
485.75
668.323
850.551
976.045
1164.47
1367.08
1514.21
1694.1
1830.84
1977.76
2088.06
2215.26
2296.58
2409.99
2473.99
2566.59
2608.66
2699.54
403.08
455.198
511.515
547.659
582.128
649.104
705.564
771.53
822.299
881.758
923.458
977.364
1010.71
1059.21
1085.7
1128.07
1147.68
1187.99
389.703
405.027
419.248
444.22
444.704
464.773
484.897
510.934
531.148
556.418
574.359
598.154
613.426
635.229
647.7
667.52
677.32
696.488
395.465
396.764
400.176
404.355
406.618
409.569
415.502
424.742
431.975
441.998
449.319
459.458
466.253
475.911
481.75
490.82
495.751
504.718
398.34
396.759
396.01
395.586
396.296
396.178
397.231
400.17
402.518
406.414
409.295
413.72
416.719
421.225
423.959
428.389
430.818
435.457
398.906
397.081
395.418
394.059
392.79
391.976
391.383
391.495
391.811
392.573
393.291
394.647
395.616
397.299
398.314
400.099
401.112
403.171
399.022
397.21
395.433
393.852
392.259
390.935
389.689
388.746
387.882
387.342
386.793
386.585
386.346
386.344
386.339
386.473
386.553
386.938
399.041
397.228
395.462
393.836
392.239
390.782
389.368
388.104
386.878
385.823
384.794
383.935
383.098
382.405
381.706
381.165
380.565
380.18
399.047
397.222
395.467
393.823
392.24
390.756
389.324
387.989
386.697
385.503
384.347
383.287
382.258
381.321
380.402
379.571
378.752
378.021
399.05
397.215
395.465
393.811
392.232
390.737
389.308
387.956
386.66
385.435
384.261
383.151
382.087
381.082
380.116
379.204
378.327
377.5
399.051
397.211
395.462
393.803
392.223
390.723
389.293
387.935
386.639
385.406
384.229
383.109
382.038
381.019
380.045
379.116
378.227
377.38
399.051
397.21
395.46
393.797
392.216
390.712
389.281
387.919
386.622
385.386
384.207
383.083
382.01
380.987
380.009
379.076
378.185
377.333
399.051
397.209
395.458
393.794
392.211
390.706
389.273
387.909
386.609
385.371
384.19
383.064
381.989
380.964
379.985
379.05
378.156
377.303
399.051
397.208
395.456
393.791
392.208
390.701
389.267
387.902
386.601
385.361
384.179
383.052
381.976
380.949
379.968
379.032
378.137
377.283
399.051
397.207
395.456
393.79
392.207
390.7
389.266
387.899
386.598
385.358
384.175
383.046
381.97
380.942
379.961
379.024
378.129
377.274
399.051
397.208
395.456
393.792
392.208
390.702
389.267
387.902
386.6
385.36
384.177
383.049
381.973
380.945
379.964
379.027
378.132
377.277
399.051
397.208
395.458
393.793
392.211
390.705
389.272
387.907
386.607
385.367
384.185
383.058
381.982
380.955
379.975
379.039
378.145
377.291
399.051
397.209
395.461
393.797
392.216
390.711
389.28
387.916
386.618
385.38
384.203
383.078
382.008
380.985
380.012
379.082
378.197
377.35
399.049
397.211
395.465
393.801
392.223
390.72
389.297
387.938
386.658
385.435
384.289
383.191
382.165
381.181
380.265
379.383
378.566
377.776
399.02
397.221
395.471
393.808
392.245
390.78
389.413
388.151
387.004
385.946
385.021
384.146
383.418
382.708
382.133
381.549
381.105
380.628
398.756
397.316
395.502
393.948
392.613
391.528
390.706
390.212
389.888
389.932
390.115
390.438
391.081
391.608
392.419
393.036
393.979
394.652
396.978
398.308
396.288
396.349
396.706
398.053
400.662
403.594
407.551
411.459
416.123
420.372
425.231
429.434
434.234
438.208
442.894
446.564
388.068
408.417
406.85
413.344
424.731
437.665
453.418
468.755
485.848
501.463
518.339
533.016
548.835
562.024
576.567
588.196
601.587
611.745
362.588
462.221
477.684
523.628
577.804
633.437
692.968
747.785
804.028
853.041
903.521
945.695
990.252
1025.91
1065.38
1095.49
1130.89
1156.45
342.222
752.369
964.364
1206.17
1443.28
1672.66
1892.36
2083.67
2260.48
2406.57
2543.49
2653.44
2761.06
2845.46
2935.41
3003.6
3083.91
3141.76
1146.28
3483.89
5164.33
6428.64
7407.67
8111.77
8600.45
8937.79
9157.02
9284.64
9354.08
9373.19
9365.05
9342.98
9313.81
9275.56
9253.67
9227.46
16112.1
21372.6
23316.9
24375.3
24921
25041.7
24985.9
24848.6
24606.7
24338.8
24066.9
23802.5
23553.2
23321.8
23109.9
22917.1
22742.2
22586
11463.3
2494.65
2496.87
2499.12
2501.38
2503.67
2505.98
2508.3
2510.65
2513.02
2515.42
2517.83
2520.27
2522.73
2525.21
2527.72
2530.25
2532.8
2535.37
2537.97
2540.6
2543.25
2545.92
2548.62
2551.34
2554.09
2556.87
2559.67
2562.5
2565.35
2568.23
2571.14
2574.08
2577.04
2580.04
2583.06
2586.11
2589.19
2592.3
2595.43
2598.6
2601.8
2605.03
2608.29
2611.59
2614.91
2618.27
2621.66
2625.08
2628.54
2632.03
2635.55
2639.11
2642.71
3181.76
3241.83
3224.69
3130.97
2661.21
3228.06
3389.34
2672.76
3314.08
3390.11
3477.17
3569.82
3645.95
3727.25
3800.62
3874.72
3944.38
4013.69
4080.03
4145.62
4209.09
4271.62
4332.53
4392.44
4451.01
4508.57
4564.96
4620.35
4674.66
4727.97
4780.27
4831.57
4881.89
4931.19
4979.5
5026.78
5073.01
5118.14
5162.16
5204.98
5246.58
5286.89
5325.89
5363.61
5400.13
5435.72
5470.85
5504.79
5537.78
5569.83
5600.87
5630.97
5660.03
5688.12
5715.17
5741.22
5766.21
5790.18
5813.08
5834.95
5855.75
5875.49
5894.17
5911.79
5928.35
5943.84
5958.29
5971.67
5984.03
5995.33
6005.62
6014.87
6023.16
6030.72
6037.02
6043.34
6046.57
6051.11
6052.72
6055.1
6056.76
6057.6
6057.37
6055.46
6052.95
6049.42
6045.16
6040.1
6034.28
6027.76
6020.53
6012.67
6004.17
5995.19
5985.79
5975.73
5965.56
5954.48
5943.48
5931.48
5919.81
5907.05
5894.72
5881.68
5868.85
5855.8
5842.72
5829.6
5816.45
5803.29
5790.16
5777.09
5764.15
5751.38
5738.85
5726.56
5714.56
5702.75
5691.1
5679.31
5667.12
5653.76
5638.34
5618.13
5587.93
5467.01
11463.3
1993.75
996.19
809.688
691.827
623.42
630.385
626.293
615.13
592.623
568.476
544.955
523.286
505.381
493.112
484.425
483.724
485.705
511.738
559.342
643.043
744.045
854.031
963.356
1061.86
1137.74
1183.3
1178.23
1138.66
1062.75
941.11
790.027
656.259
569.477
501.585
463.611
456.616
463.695
484.223
516.505
545.764
589.313
672.097
799.223
997.239
1311.32
1622.02
1837.91
1978.91
2048.61
2068.67
2059.59
2021.69
1992.59
1982.22
1916.14
1857.11
1789.4
1729.89
1735.68
1704.11
1668.04
1688.2
1672.56
1670.43
1668.48
1667.61
1669.36
1672.29
1676.6
1681.58
1687.5
1693.79
1700.67
1707.76
1715.18
1722.72
1730.42
1738.17
1745.96
1753.76
1761.54
1769.27
1776.93
1784.5
1791.97
1799.31
1806.51
1813.54
1820.39
1827.05
1833.49
1839.72
1845.75
1851.62
1857.4
1863.18
1869.16
1875.6
1882.9
1891.62
1899.62
1907.65
1915.34
1922.86
1930.12
1937.17
1943.99
1950.57
1956.93
1963.05
1968.95
1974.61
1980.05
1985.26
1990.24
1995
1999.53
2003.84
2007.93
2011.8
2015.45
2018.9
2022.13
2025.17
2028.01
2030.66
2033.15
2035.42
2037.55
2039.38
2041.19
2042.71
2044.24
2045.54
2046.46
2046.7
2046.2
2045.57
2044.75
2043.75
2042.58
2041.23
2039.71
2038.03
2036.21
2034.26
2032.21
2029.88
2027.89
2024.72
2022.87
2019.26
2017.27
2013.38
2011.06
2007.64
2004.6
2001.39
1998.11
1994.81
1991.46
1988.08
1984.67
1981.25
1977.83
1974.41
1971.01
1967.63
1964.3
1961.03
1957.82
1954.66
1951.61
1948.72
1946.07
1943.75
1942.31
1940.83
1949.46
11463.3
2013.78
817.081
643.254
683.403
682.844
654.819
599.129
539.427
483.343
433.751
391.675
358.624
332.738
312.817
297.519
286.833
278.739
276.5
278.79
289.098
307.279
339.204
382.776
437.56
497.612
559.242
606.114
638.603
637
616.189
575.785
514.033
445.559
393.992
384.327
393.95
416.677
453.32
524.231
634.255
785.938
980.14
1159.23
1308.16
1440.07
1529.96
1560.69
1561
1514.7
1460.83
1400.18
1343.32
1294.55
1254.31
1215.4
1184.69
1157.79
1138.12
1128.46
1119.49
1109.82
1108.33
1104.84
1103.32
1103.27
1104.18
1105.94
1108.25
1111.07
1114.23
1117.71
1121.4
1125.3
1129.31
1133.45
1137.65
1141.92
1146.22
1150.55
1154.88
1159.21
1163.52
1167.8
1172.05
1176.26
1180.42
1184.52
1188.56
1192.54
1196.46
1200.32
1204.14
1207.94
1211.74
1215.57
1219.47
1223.48
1227.65
1231.98
1236.33
1240.47
1244.54
1248.46
1252.27
1255.94
1259.49
1262.91
1266.21
1269.37
1272.4
1275.31
1278.09
1280.73
1283.25
1285.64
1287.9
1290.04
1292.04
1293.92
1295.67
1297.3
1298.8
1300.18
1301.44
1302.58
1303.61
1304.51
1305.3
1305.98
1306.53
1307
1307.32
1307.56
1307.64
1307.54
1307.18
1306.62
1305.98
1305.23
1304.38
1303.43
1302.37
1301.21
1299.97
1298.63
1297.21
1295.71
1294.04
1292.49
1290.5
1288.9
1286.7
1284.99
1282.66
1280.78
1278.52
1276.34
1274.07
1271.76
1269.4
1267.01
1264.58
1262.12
1259.63
1257.12
1254.59
1252.06
1249.52
1246.98
1244.46
1241.98
1239.56
1237.23
1235.08
1233.21
1231.82
1231.56
1232.82
1243.08
11463.3
2040.38
1016.72
979.177
904.456
774.691
657.421
550.473
466.128
403.221
355.866
318.891
290.111
268.021
251.129
238.285
228.664
221.712
217.111
215.393
216.407
219.445
227.667
241.741
263.089
291.461
325.891
360.832
392.452
415.815
422.957
416.739
394.992
395.505
431.04
519.971
585.989
643.003
713.334
813.235
946.917
1067.71
1147.02
1215.1
1269.62
1292.13
1261.03
1213.2
1170.16
1115.38
1070.21
1028.03
993.743
965.224
942.624
923.949
909.741
898.708
891.087
886.349
882.923
880.517
879.861
879.7
880.362
881.741
883.584
885.809
888.328
891.091
894.045
897.158
900.394
903.733
907.151
910.635
914.167
917.738
921.336
924.951
928.575
932.2
935.819
939.426
943.015
946.582
950.122
953.633
957.114
960.563
963.985
967.382
970.759
974.124
977.486
980.851
984.226
987.611
990.996
994.354
997.633
1000.8
1003.89
1006.88
1009.76
1012.55
1015.24
1017.83
1020.31
1022.69
1024.97
1027.14
1029.21
1031.17
1033.02
1034.77
1036.41
1037.94
1039.37
1040.68
1041.89
1042.99
1043.99
1044.87
1045.65
1046.33
1046.9
1047.36
1047.72
1047.98
1048.13
1048.18
1048.13
1047.96
1047.68
1047.26
1046.69
1046.01
1045.24
1044.38
1043.42
1042.38
1041.25
1040.04
1038.74
1037.36
1035.91
1034.37
1032.74
1031.09
1029.26
1027.5
1025.53
1023.65
1021.56
1019.55
1017.41
1015.24
1013.02
1010.74
1008.43
1006.08
1003.69
1001.27
998.826
996.353
993.858
991.345
988.822
986.291
983.772
981.281
978.839
976.487
974.288
972.347
970.829
970.258
971.175
977.442
11463.3
2321.07
1474.18
1187.13
941.655
727.599
561.341
450.04
374.129
321.195
283.536
256.674
237.218
222.546
211.137
202.228
195.432
190.464
187.129
185.494
185.699
186.988
190.83
197.573
208.295
223.982
244.911
268.599
292.527
311.172
327.147
357.351
416.142
517.435
607.266
676.468
746.184
822.579
895.97
960.468
1016.37
1064.41
1096.82
1106.44
1078.94
1030.51
994.583
951.501
915.208
880.306
852.818
828.924
810.051
794.833
783.133
774.142
767.668
763.146
760.38
759.183
758.75
758.889
759.956
761.519
763.522
765.887
768.516
771.361
774.378
777.539
780.816
784.19
787.644
791.164
794.739
798.36
802.015
805.698
809.401
813.117
816.839
820.561
824.277
827.983
831.673
835.343
838.989
842.61
846.203
849.768
853.303
856.81
860.29
863.743
867.169
870.566
873.929
877.249
880.513
883.71
886.824
889.848
892.784
895.629
898.382
901.04
903.602
906.066
908.431
910.697
912.861
914.922
916.879
918.73
920.474
922.112
923.64
925.06
926.369
927.568
928.657
929.634
930.5
931.255
931.899
932.432
932.854
933.165
933.364
933.452
933.437
933.312
933.072
932.72
932.253
931.663
930.953
930.136
929.224
928.218
927.118
925.925
924.643
923.275
921.821
920.281
918.66
916.959
915.17
913.324
911.375
909.395
907.308
905.201
902.99
900.758
898.451
896.096
893.69
891.236
888.739
886.202
883.629
881.024
878.388
875.725
873.039
870.334
867.617
864.903
862.199
859.519
856.885
854.331
851.911
849.713
847.872
846.739
846.871
849.967
11463.3
2939.2
1734.74
1208.89
832.823
587.396
444.365
355.594
300.153
264.153
239.367
221.37
207.706
197.085
188.613
181.844
176.587
172.737
170.223
169.159
169.486
170.869
174.143
179.347
187.212
198.923
215.466
237.099
265.716
308.203
363.655
455.19
564.135
653.728
722.3
785.254
838.566
879.736
914.698
948.227
967.304
970.819
943.344
911.579
879.55
844.694
815.287
786.451
763.005
742.5
726.176
712.674
702.186
694.132
688.281
684.222
681.974
680.945
680.745
681.475
682.885
684.811
687.223
689.982
693.016
696.272
699.699
703.267
706.949
710.726
714.584
718.51
722.494
726.527
730.601
734.71
738.845
743
747.168
751.342
755.517
759.686
763.844
767.986
772.107
776.202
780.268
784.301
788.298
792.256
796.175
800.054
803.889
807.68
811.423
815.113
818.744
822.307
825.795
829.201
832.52
835.749
838.885
841.926
844.87
847.714
850.456
853.093
855.625
858.049
860.365
862.57
864.661
866.636
868.495
870.235
871.856
873.356
874.733
875.988
877.12
878.128
879.011
879.77
880.404
880.914
881.299
881.558
881.683
881.699
881.591
881.359
881.002
880.522
879.919
879.192
878.343
877.381
876.313
875.139
873.862
872.483
871.005
869.434
867.768
866.008
864.159
862.221
860.195
858.093
855.904
853.653
851.318
848.928
846.459
843.938
841.352
838.711
836.017
833.273
830.484
827.654
824.788
821.888
818.957
815.997
813.014
810.011
806.997
803.982
800.976
797.993
795.053
792.184
789.432
786.868
784.6
782.876
782.065
783.041
11463.3
3441.34
1777.29
1035.16
650.497
457.664
359.197
303.656
268.1
243.028
224.141
209.414
197.601
187.882
179.853
173.331
168.235
164.559
162.415
161.912
162.831
165.474
170.295
177.692
188.412
203.077
225.217
260.187
314.759
399.413
504.185
594.515
664.29
724.45
772.082
807.844
836.311
859.168
868.844
867.163
844.915
821.876
795.638
769.837
744.726
720.906
700.506
682.422
667.664
655.344
645.586
637.929
632.276
628.335
626.083
625.148
625.06
625.974
627.631
629.928
632.727
635.925
639.457
643.244
647.234
651.384
655.664
660.049
664.522
669.069
673.68
678.345
683.057
687.81
692.596
697.408
702.24
707.084
711.933
716.78
721.619
726.443
731.247
736.025
740.771
745.482
750.151
754.774
759.347
763.868
768.333
772.742
777.09
781.376
785.595
789.743
793.817
797.813
801.727
805.548
809.273
812.897
816.419
819.835
823.143
826.339
829.421
832.384
835.227
837.945
840.532
842.991
845.32
847.518
849.582
851.511
853.303
854.958
856.473
857.848
859.082
860.175
861.126
861.936
862.604
863.13
863.514
863.749
863.837
863.807
863.632
863.316
862.862
862.272
861.546
860.686
859.696
858.581
857.346
855.994
854.526
852.945
851.25
849.434
847.51
845.483
843.355
841.129
838.808
836.399
833.902
831.327
828.67
825.942
823.138
820.269
817.334
814.339
811.288
808.184
805.032
801.839
798.607
795.341
792.042
788.715
785.364
781.994
778.613
775.23
771.858
768.508
765.198
761.953
758.809
755.824
753.083
750.754
749.017
748.395
11463.3
3581.64
1561.26
815.248
516.542
382.567
313.486
273.437
247.699
229.595
215.58
203.764
193.476
184.619
177.144
171.117
166.712
164.092
163.174
163.883
166.465
171.547
179.589
192.721
213.429
243.942
291.009
364.557
451.329
531.172
596.224
651.75
698.603
735.835
765.596
785.023
792.076
785.94
769.13
751.488
730.647
710.803
690.822
671.789
653.937
637.964
624.377
612.867
603.534
596.068
590.39
586.305
583.802
582.699
582.507
583.332
585.02
587.454
590.497
594.048
598.013
602.313
606.885
611.675
616.637
621.74
626.956
632.267
637.657
643.112
648.624
654.185
659.785
665.42
671.083
676.765
682.458
688.155
693.846
699.525
705.183
710.814
716.411
721.967
727.478
732.94
738.344
743.684
748.957
754.159
759.287
764.338
769.31
774.199
779.002
783.715
788.337
792.867
797.295
801.612
805.815
809.901
813.867
817.709
821.426
825.013
828.468
831.786
834.966
838.004
840.898
843.646
846.245
848.693
850.988
853.127
855.11
856.934
858.599
860.102
861.444
862.625
863.643
864.499
865.193
865.725
866.094
866.285
866.329
866.224
865.955
865.528
864.946
864.211
863.324
862.29
861.112
859.794
858.341
856.757
855.043
853.203
851.239
849.156
846.954
844.639
842.214
839.682
837.046
834.312
831.483
828.568
825.566
822.484
819.323
816.088
812.785
809.418
805.99
802.508
798.976
795.399
791.782
788.129
784.444
780.729
776.991
773.235
769.469
765.702
761.946
758.213
754.518
750.882
747.337
743.92
740.675
737.745
735.207
733.243
11463.3
3402.01
1279.87
660.971
442.653
347.516
296.433
265.471
244.099
227.953
215.117
204.504
195.487
187.811
181.51
176.808
174.038
173.344
175.047
179.126
186.613
198.846
217.083
246.345
290.535
349.723
417.046
479.129
535.577
584.871
627.431
663.17
693.783
715.452
723.443
720.63
707.93
693.875
677.515
661.825
646.15
631.279
616.794
603.185
590.813
580.063
571.052
563.672
557.88
553.551
550.6
549.123
548.691
549.204
550.686
553.013
556.076
559.774
564.011
568.702
573.772
579.154
584.792
590.638
596.655
602.811
609.083
615.455
621.904
628.418
634.986
641.595
648.237
654.902
661.59
668.289
674.987
681.675
688.343
694.983
701.587
708.146
714.653
721.1
727.478
733.77
739.987
746.126
752.18
758.146
764.02
769.799
775.481
781.061
786.535
791.899
797.148
802.275
807.276
812.148
816.886
821.488
825.949
830.268
834.441
838.464
842.334
846.047
849.6
852.99
856.214
859.269
862.152
864.862
867.395
869.75
871.925
873.918
875.727
877.352
878.792
880.046
881.116
882.001
882.701
883.216
883.539
883.67
883.639
883.425
883.03
882.457
881.711
880.792
879.706
878.455
877.043
875.476
873.758
871.893
869.884
867.735
865.449
863.03
860.482
857.809
855.015
852.104
849.08
845.947
842.712
839.38
835.956
832.444
828.847
825.172
821.424
817.608
813.729
809.792
805.802
801.766
797.688
793.573
789.424
785.247
781.047
776.831
772.607
768.384
764.172
759.985
755.835
751.741
747.729
743.834
740.102
736.626
733.423
730.413
11463.3
2972.3
1033.16
561.011
399.552
327.329
288.515
263.148
245.729
232.922
222.654
214.018
206.749
200.95
197.036
195.573
196.834
201.591
209.912
222.238
240.753
267.201
302.994
346.437
393.68
441.576
487.077
528.109
565.026
596.884
625.055
648.815
660.007
661.567
654.749
644.679
631.981
619.526
607.255
595.689
584.456
573.641
563.249
553.64
545.12
537.89
531.997
527.405
524.076
522.084
521.301
521.352
522.473
524.502
527.376
531.007
535.312
540.207
545.616
551.468
557.7
564.25
571.065
578.098
585.311
592.672
600.158
607.766
615.454
623.203
631
638.829
646.671
654.504
662.291
670.052
677.803
685.539
693.247
700.916
708.536
716.1
723.6
731.028
738.378
745.652
752.828
759.893
766.841
773.669
780.373
786.951
793.402
799.72
805.902
811.945
817.843
823.593
829.194
834.642
839.933
845.063
850.03
854.831
859.461
863.919
868.2
872.299
876.214
879.941
883.476
886.817
889.962
892.907
895.65
898.19
900.524
902.649
904.565
906.271
907.767
909.052
910.127
910.993
911.65
912.098
912.323
912.352
912.182
911.806
911.23
910.455
909.487
908.328
906.983
905.455
903.75
901.874
899.829
897.623
895.258
892.739
890.07
887.256
884.301
881.21
877.987
874.638
871.166
867.576
863.875
860.07
856.166
852.166
848.077
843.906
839.658
835.34
830.956
826.512
822.012
817.464
812.872
808.243
803.579
798.889
794.177
789.452
784.722
779.994
775.281
770.593
765.942
761.345
756.825
752.412
748.137
744.074
740.208
736.235
11463.3
2493.25
889.706
520.543
385.961
323.816
289.474
269.088
255.537
245.605
237.857
231.822
227.662
225.98
226.902
231.594
240.154
251.806
266.973
287.732
314.133
345.21
379.344
414.441
448.976
481.942
512.518
539.632
564.39
587.21
601.303
605.726
604.483
599.233
590.879
581.641
572.231
563.348
554.83
546.629
538.593
530.798
523.416
516.731
510.97
506.266
502.668
500.181
498.953
498.657
499.332
500.966
503.532
506.959
511.186
516.136
521.738
527.921
534.619
541.77
549.332
557.247
565.444
573.877
582.504
591.28
600.153
609.03
617.986
627.018
636.108
645.236
654.378
663.515
672.647
681.753
690.818
699.84
708.794
717.668
726.457
735.154
743.753
752.246
760.623
768.873
776.983
784.949
792.765
800.428
807.936
815.287
822.48
829.512
836.377
843.073
849.598
855.949
862.123
868.118
873.928
879.55
884.982
890.22
895.261
900.102
904.741
909.171
913.389
917.392
921.176
924.738
928.076
931.188
934.072
936.724
939.144
941.328
943.275
944.986
946.459
947.696
948.698
949.466
950.001
950.295
950.358
950.195
949.804
949.188
948.349
947.293
946.024
944.545
942.863
940.981
938.906
936.642
934.197
931.574
928.779
925.817
922.693
919.413
915.981
912.403
908.684
904.83
900.845
896.735
892.507
888.166
883.719
879.173
874.534
869.81
865.008
860.134
855.193
850.189
845.128
840.017
834.862
829.667
824.44
819.188
813.918
808.639
803.357
798.081
792.821
787.588
782.394
777.254
772.187
767.22
762.375
757.712
753.205
748.36
11463.3
2072.44
781.754
485.49
376.915
324.771
297.261
281.096
270.739
263.719
259.003
256.73
256.455
259.22
265.409
275.107
287.749
303.137
321.949
343.902
368.12
393.635
419.489
444.854
469.033
491.334
512.346
532.387
547.262
554.152
555.854
555.329
551.48
545.972
539.646
533.282
527.087
521.128
515.282
509.502
503.801
498.318
493.257
488.846
485.262
482.606
481.065
480.527
480.889
482.249
484.555
487.778
491.888
496.855
502.648
509.153
516.305
524.04
532.288
540.968
549.955
559.216
568.791
578.655
588.767
599.089
609.587
620.266
631.045
641.878
652.734
663.596
674.415
685.153
695.791
706.311
716.694
726.93
737.036
747.019
756.88
766.618
776.232
785.713
795.047
804.221
813.22
822.035
830.663
839.099
847.344
855.398
863.259
870.924
878.39
885.654
892.715
899.572
906.222
912.663
918.889
924.898
930.686
936.251
941.591
946.702
951.582
956.225
960.629
964.789
968.701
972.364
975.775
978.933
981.834
984.478
986.862
988.984
990.843
992.438
993.77
994.84
995.65
996.202
996.496
996.533
996.313
995.842
995.121
994.155
992.946
991.503
989.828
987.928
985.808
983.473
980.931
978.186
975.246
972.117
968.803
965.312
961.648
957.818
953.829
949.685
945.394
940.961
936.392
931.691
926.867
921.924
916.871
911.716
906.469
901.136
895.724
890.24
884.689
879.075
873.403
867.68
861.911
856.104
850.266
844.408
838.537
832.66
826.785
820.92
815.073
809.256
803.479
797.757
792.109
786.557
781.117
775.839
770.702
765.051
11463.3
1943.77
769.47
484.377
380.451
333.694
309.965
296.769
289.015
284.798
283.186
283.491
286.562
292.456
301.108
312.249
325.553
341.043
358.334
376.814
395.871
414.931
433.438
451.163
468.39
485.091
498.904
507.238
511.369
512.856
512.916
511.179
508.156
504.548
500.707
496.842
492.981
489.119
485.234
481.374
477.644
474.209
471.255
468.964
467.591
467.118
467.566
469.127
471.617
475.024
479.327
484.493
490.466
497.137
504.384
512.349
521.02
530.344
540.258
550.707
561.66
573.069
584.851
596.956
609.34
621.951
634.735
647.665
660.656
673.607
686.449
699.109
711.559
723.781
735.761
747.489
758.969
770.217
781.268
792.152
802.88
813.463
823.907
834.203
844.329
854.26
863.97
873.456
882.712
891.74
900.537
909.105
917.444
925.549
933.42
941.053
948.451
955.613
962.538
969.223
975.663
981.855
987.797
993.487
998.922
1004.1
1009.02
1013.68
1018.07
1022.2
1026.04
1029.61
1032.91
1035.92
1038.65
1041.11
1043.27
1045.16
1046.75
1048.05
1049.08
1049.81
1050.27
1050.44
1050.34
1049.96
1049.3
1048.37
1047.18
1045.72
1044
1042.04
1039.82
1037.37
1034.69
1031.78
1028.66
1025.32
1021.77
1018.03
1014.09
1009.97
1005.67
1001.19
996.551
991.753
986.803
981.708
976.475
971.109
965.617
960.002
954.275
948.449
942.533
936.534
930.458
924.311
918.097
911.822
905.49
899.106
892.676
886.211
879.721
873.216
866.703
860.191
853.685
847.194
840.723
834.284
827.889
821.553
815.294
809.13
803.073
797.165
791.407
784.999
11463.3
1885.88
747
482.611
387.878
345.694
324.924
313.891
308.056
305.556
305.116
307.245
311.915
318.84
327.703
338.188
350.024
362.95
376.596
390.559
404.443
418.201
431.979
445.336
456.729
464.763
470.42
474.299
476.411
477.264
477.423
476.751
475.493
473.932
472.19
470.338
468.409
466.452
464.55
462.852
461.6
460.901
460.727
461.257
462.613
464.766
467.638
471.035
475.331
480.595
486.83
494.011
502.105
511.094
520.994
531.714
543.225
555.449
568.31
581.743
595.691
610.082
624.826
639.854
655.133
670.584
686.062
701.442
716.628
731.562
746.17
760.391
774.179
787.514
800.389
812.806
824.794
836.421
847.791
858.995
870.04
880.951
891.759
902.443
912.959
923.258
933.278
943.039
952.54
961.776
970.747
979.453
987.894
996.068
1003.97
1011.61
1018.98
1026.09
1032.93
1039.51
1045.82
1051.85
1057.61
1063.1
1068.3
1073.23
1077.88
1082.25
1086.32
1090.11
1093.6
1096.8
1099.69
1102.29
1104.59
1106.58
1108.28
1109.67
1110.76
1111.54
1112.03
1112.21
1112.09
1111.68
1110.97
1109.96
1108.67
1107.09
1105.23
1103.1
1100.71
1098.06
1095.15
1091.99
1088.6
1084.97
1081.12
1077.05
1072.77
1068.28
1063.6
1058.73
1053.68
1048.45
1043.06
1037.51
1031.81
1025.96
1019.97
1013.86
1007.62
1001.26
994.798
988.24
981.598
974.876
968.08
961.216
954.288
947.302
940.262
933.173
926.038
918.875
911.694
904.507
897.319
890.137
882.967
875.816
868.688
861.596
854.554
847.578
840.683
833.886
827.197
820.648
814.273
807.152
11463.3
1853.09
744.984
489.228
399.131
359.376
339.853
329.579
324.351
322.28
322.078
324.606
329.304
335.722
343.423
352.082
361.483
371.41
381.619
391.971
402.608
412.765
421.488
428.714
434.674
439.822
443.9
447.123
449.671
451.739
453.498
455.043
456.319
457.37
458.257
459.043
459.789
460.563
461.422
462.384
463.316
464.72
466.885
470.083
474.282
479.446
485.592
492.838
501.12
510.461
520.87
532.302
544.704
558.037
572.273
587.344
603.307
619.934
637.085
654.657
672.553
690.673
708.915
727.17
745.301
763.209
780.838
798.09
814.855
831.026
846.498
861.227
875.193
888.415
900.922
912.709
923.82
934.421
944.789
955.206
965.514
975.765
986.081
996.375
1006.54
1016.52
1026.26
1035.73
1044.93
1053.82
1062.42
1070.72
1078.73
1086.43
1093.83
1100.94
1107.75
1114.27
1120.52
1126.48
1132.16
1137.54
1142.64
1147.44
1151.95
1156.17
1160.1
1163.74
1167.08
1170.11
1172.85
1175.27
1177.38
1179.18
1180.67
1181.86
1182.74
1183.3
1183.54
1183.48
1183.13
1182.44
1181.45
1180.16
1178.56
1176.67
1174.48
1172
1169.24
1166.21
1162.91
1159.35
1155.53
1151.46
1147.15
1142.61
1137.85
1132.86
1127.67
1122.27
1116.69
1110.91
1104.96
1098.83
1092.54
1086.1
1079.51
1072.78
1065.93
1058.95
1051.86
1044.67
1037.41
1030.06
1022.64
1015.14
1007.57
999.939
992.246
984.5
976.708
968.872
960.995
953.101
945.201
937.302
929.409
921.529
913.667
905.83
898.018
890.248
882.539
874.905
867.359
859.918
852.587
845.391
838.405
830.609
11463.3
1830.46
744.524
497.51
409.085
370.356
351.547
341.227
335.758
333.501
333.133
335.199
339.128
344.411
350.623
357.522
364.99
372.921
381.039
388.921
396.409
403.53
410.437
416.901
423.005
428.82
434.313
439.513
444.394
448.922
453.021
456.48
459.653
462.741
465.833
469.013
472.368
475.996
479.994
484.498
489.769
495.94
503.263
512.006
521.871
532.799
544.821
557.99
572.241
587.57
604.096
621.632
639.99
659.033
678.64
698.666
718.893
739.309
759.834
780.375
800.838
821.134
841.181
860.897
880.205
899.034
917.327
935.013
952.005
968.179
983.354
997.591
1010.94
1023.47
1035.26
1046.33
1056.72
1066.47
1075.69
1084.54
1093.11
1101.68
1110.77
1119.96
1129.04
1137.92
1146.6
1154.98
1163.05
1170.78
1178.18
1185.26
1192.01
1198.44
1204.54
1210.32
1215.79
1220.98
1225.89
1230.51
1234.85
1238.89
1242.65
1246.12
1249.3
1252.2
1254.82
1257.16
1259.2
1260.95
1262.41
1263.55
1264.39
1264.93
1265.17
1265.12
1264.79
1264.11
1263.13
1261.86
1260.29
1258.41
1256.23
1253.76
1251
1247.96
1244.64
1241.03
1237.16
1233.02
1228.62
1223.96
1219.06
1213.91
1208.54
1202.95
1197.14
1191.12
1184.91
1178.5
1171.91
1165.14
1158.2
1151.1
1143.85
1136.45
1128.92
1121.25
1113.47
1105.58
1097.57
1089.5
1081.36
1073.15
1064.86
1056.51
1048.08
1039.6
1031.07
1022.49
1013.87
1005.23
996.594
987.954
979.316
970.685
962.065
953.463
944.886
936.342
927.83
919.372
910.988
902.69
894.489
886.398
878.426
870.584
862.994
854.566
11463.3
1818.43
747.456
503.018
415.64
377.905
359.275
348.756
343.091
340.663
340.169
341.926
345.491
350.406
356.223
362.741
369.77
377.148
384.829
392.86
400.865
408.763
416.66
424.513
432.373
440.273
448.226
456.249
464.215
472.109
480
488.034
496.249
504.725
513.552
522.837
532.684
543.21
554.52
566.74
580.014
594.346
609.717
625.897
642.984
661.036
680.086
700.164
721.133
742.797
764.906
787.594
810.628
833.775
856.854
879.721
902.222
924.283
945.806
966.732
987.002
1006.61
1025.53
1043.76
1061.29
1078.12
1094.25
1109.67
1124.38
1138.36
1151.63
1164.08
1175.74
1186.76
1197.24
1207.19
1216.62
1225.38
1233.44
1240.72
1247.67
1254.82
1262.15
1269.33
1276.25
1282.85
1289.12
1295.06
1300.66
1305.93
1310.87
1315.51
1319.83
1323.84
1327.55
1330.97
1334.12
1337.03
1339.71
1342.15
1344.34
1346.28
1347.97
1349.42
1350.63
1351.6
1352.33
1352.82
1353.05
1353.03
1352.78
1352.22
1351.39
1350.31
1348.97
1347.36
1345.49
1343.35
1340.92
1338.22
1335.26
1332.03
1328.53
1324.77
1320.76
1316.49
1311.97
1307.2
1302.18
1296.93
1291.44
1285.71
1279.77
1273.62
1267.25
1260.69
1253.93
1246.98
1239.86
1232.56
1225.09
1217.46
1209.67
1201.75
1193.68
1185.47
1177.15
1168.7
1160.14
1151.47
1142.69
1133.83
1124.88
1115.85
1106.75
1097.57
1088.34
1079.04
1069.7
1060.31
1050.9
1041.46
1032.05
1022.63
1013.23
1003.83
994.443
985.084
975.758
966.476
957.263
948.128
939.079
930.125
921.275
912.544
903.939
895.467
887.285
878.28
11463.3
1808.3
749.82
506.192
419.166
383.42
365.32
355.428
351.144
349.652
350.177
353.235
358.013
364.107
371.447
380.248
389.665
399.574
410.484
422.523
435.171
448.157
461.805
476.13
491.118
506.735
522.959
539.73
557.068
574.984
593.507
612.67
632.398
652.686
673.571
695.137
717.493
740.826
765.077
790.166
815.967
842.343
869.107
896.041
923.122
950.329
977.715
1005.71
1033.74
1061.2
1087.7
1112.83
1136.67
1159.2
1180.45
1200.35
1218.91
1236.09
1251.98
1266.6
1280.06
1292.46
1303.93
1314.49
1324.25
1333.27
1341.62
1349.37
1356.58
1363.38
1369.99
1376.45
1382.74
1388.83
1394.6
1400.03
1404.98
1409.41
1413.6
1417.8
1422.34
1426.89
1430.75
1434.03
1436.89
1439.39
1441.6
1443.53
1445.21
1446.65
1447.84
1448.79
1449.52
1450.03
1450.35
1450.47
1450.42
1450.28
1449.98
1449.53
1448.91
1448.14
1447.21
1446.13
1444.89
1443.5
1441.95
1440.23
1438.33
1436.23
1433.95
1431.46
1428.78
1425.89
1422.81