/*--------------------------------*- C++ -*----------------------------------*\
  =========                 |
  \\      /  F ield         | OpenFOAM: The Open Source CFD Toolbox
   \\    /   O peration     | Website:  https://openfoam.org
    \\  /    A nd           | Version:  8
     \\/     M anipulation  |
\*---------------------------------------------------------------------------*/
FoamFile
{
    version     2.0;
    format      ascii;
    class       surfaceScalarField;
    location    "1300";
    object      phi;
}
// * * * * * * * * * * * * * * * * * * * * * * * * * * * * * * * * * * * * * //

dimensions      [0 3 -1 0 0 0 0];

internalField   nonuniform List<scalar> 
24170
(
2.99513e-06
1.38849e-07
2.85355e-06
1.41663e-07
2.72408e-06
1.29583e-07
2.61046e-06
1.1372e-07
2.51305e-06
9.75764e-08
2.43139e-06
8.18679e-08
2.36273e-06
6.88655e-08
2.30596e-06
5.67336e-08
2.25906e-06
4.68278e-08
2.21863e-06
4.03115e-08
2.18474e-06
3.38642e-08
2.15554e-06
2.91997e-08
2.13056e-06
2.5037e-08
2.10962e-06
2.10019e-08
2.09341e-06
1.62899e-08
2.08109e-06
1.23946e-08
2.07283e-06
8.31762e-09
-4.32276e-10
2.07335e-06
3.52247e-06
7.28749e-08
3.55429e-06
1.10224e-07
3.56763e-06
1.16569e-07
3.56504e-06
1.1658e-07
3.55042e-06
1.12463e-07
3.52867e-06
1.0383e-07
3.501e-06
9.66462e-08
3.4689e-06
8.87742e-08
3.43726e-06
7.83764e-08
3.40626e-06
7.12312e-08
3.37564e-06
6.44392e-08
3.34601e-06
5.87445e-08
3.31744e-06
5.35548e-08
3.28984e-06
4.85339e-08
3.26294e-06
4.31405e-08
3.2381e-06
3.71961e-08
3.21551e-06
3.08894e-08
2.22958e-08
3.19277e-06
3.83244e-06
5.26546e-08
3.85008e-06
9.2497e-08
3.86571e-06
1.00873e-07
3.8789e-06
1.03367e-07
3.88917e-06
1.02239e-07
3.89571e-06
9.73836e-08
3.89997e-06
9.24473e-08
3.90203e-06
8.66772e-08
3.90104e-06
7.92951e-08
3.89844e-06
7.37763e-08
3.89438e-06
6.84896e-08
3.88952e-06
6.36176e-08
3.88422e-06
5.88967e-08
3.87852e-06
5.42758e-08
3.87226e-06
4.94527e-08
3.86555e-06
4.39488e-08
3.85851e-06
3.79725e-08
3.05006e-08
3.85036e-06
4.21654e-06
4.06975e-08
4.2284e-06
8.08348e-08
4.23877e-06
9.06852e-08
4.24821e-06
9.41092e-08
4.25649e-06
9.41147e-08
4.26318e-06
9.08353e-08
4.26913e-06
8.65338e-08
4.2744e-06
8.13763e-08
4.27823e-06
7.53961e-08
4.28147e-06
7.05034e-08
4.28415e-06
6.5778e-08
4.28646e-06
6.12731e-08
4.28849e-06
5.68337e-08
4.2903e-06
5.24368e-08
4.29185e-06
4.78664e-08
4.29295e-06
4.28307e-08
4.29352e-06
3.73877e-08
3.12339e-08
4.29276e-06
4.64578e-06
3.2234e-08
4.65679e-06
6.96824e-08
4.66585e-06
8.15264e-08
4.67404e-06
8.58639e-08
4.68134e-06
8.68002e-08
4.68754e-06
8.46409e-08
4.69313e-06
8.09507e-08
4.69814e-06
7.63322e-08
4.70225e-06
7.12435e-08
4.70602e-06
6.67194e-08
4.7095e-06
6.23011e-08
4.71278e-06
5.79923e-08
4.7159e-06
5.37336e-08
4.71889e-06
4.94767e-08
4.72171e-06
4.50761e-08
4.7242e-06
4.03696e-08
4.7262e-06
3.5402e-08
3.02188e-08
4.72726e-06
5.12099e-06
2.58623e-08
5.13129e-06
5.95868e-08
5.14e-06
7.2994e-08
5.14793e-06
7.8096e-08
5.15512e-06
7.97546e-08
5.1614e-06
7.84602e-08
5.16702e-06
7.53787e-08
5.17203e-06
7.13154e-08
5.17637e-06
6.68968e-08
5.18037e-06
6.26974e-08
5.18412e-06
5.85327e-08
5.18768e-06
5.44003e-08
5.19109e-06
5.02987e-08
5.19434e-06
4.61834e-08
5.19742e-06
4.19681e-08
5.20017e-06
3.75782e-08
5.20248e-06
3.30777e-08
2.85228e-08
5.20411e-06
5.64602e-06
2.08559e-08
5.65534e-06
5.01307e-08
5.66383e-06
6.43997e-08
5.67171e-06
7.01653e-08
5.67901e-06
7.24226e-08
5.68557e-06
7.19044e-08
5.69144e-06
6.94847e-08
5.6967e-06
6.60372e-08
5.70138e-06
6.22061e-08
5.70571e-06
5.83707e-08
5.70975e-06
5.44813e-08
5.71358e-06
5.05751e-08
5.71722e-06
4.66619e-08
5.72067e-06
4.27342e-08
5.72389e-06
3.87464e-08
5.72679e-06
3.4678e-08
5.72925e-06
3.05857e-08
2.65908e-08
5.73121e-06
4.40913e-06
1.78423e-08
4.41516e-06
4.42599e-08
4.42116e-06
5.85311e-08
4.42681e-06
6.46491e-08
4.43212e-06
6.72168e-08
4.43699e-06
6.71143e-08
4.4414e-06
6.51143e-08
4.44538e-06
6.20797e-08
4.44898e-06
5.86107e-08
4.45233e-06
5.5033e-08
4.45545e-06
5.13541e-08
4.45838e-06
4.76305e-08
4.46114e-06
4.38856e-08
4.46374e-06
4.01272e-08
4.46614e-06
3.63275e-08
4.46831e-06
3.25009e-08
4.47019e-06
2.87089e-08
2.49999e-08
4.47173e-06
5.14265e-06
1.50726e-08
5.14859e-06
3.82016e-08
5.15485e-06
5.22057e-08
5.1609e-06
5.85709e-08
5.1667e-06
6.14186e-08
5.1721e-06
6.17072e-08
5.17705e-06
6.01631e-08
5.18156e-06
5.75631e-08
5.1857e-06
5.4482e-08
5.18954e-06
5.11911e-08
5.19314e-06
4.77612e-08
5.1965e-06
4.42535e-08
5.19966e-06
4.0714e-08
5.20262e-06
3.71507e-08
5.20534e-06
3.35875e-08
5.2078e-06
3.00251e-08
5.20995e-06
2.65285e-08
2.31821e-08
5.21178e-06
5.99833e-06
1.25101e-08
6.00409e-06
3.2495e-08
6.01053e-06
4.5826e-08
6.01694e-06
5.22265e-08
6.02319e-06
5.52177e-08
6.02912e-06
5.58193e-08
6.03462e-06
5.469e-08
6.0397e-06
5.25084e-08
6.04439e-06
4.98032e-08
6.04877e-06
4.68172e-08
6.05287e-06
4.36625e-08
6.05671e-06
4.04039e-08
6.06031e-06
3.70946e-08
6.06367e-06
3.3798e-08
6.06676e-06
3.04849e-08
6.06955e-06
2.72313e-08
6.07202e-06
2.40673e-08
2.10326e-08
6.07416e-06
6.99656e-06
1.02389e-08
7.00202e-06
2.69921e-08
7.00858e-06
3.92604e-08
7.0153e-06
4.55178e-08
7.02198e-06
4.85523e-08
7.02841e-06
4.94028e-08
7.03447e-06
4.86444e-08
7.04011e-06
4.68822e-08
7.04539e-06
4.45359e-08
7.05033e-06
4.18845e-08
7.05496e-06
3.90209e-08
7.05929e-06
3.60456e-08
7.06337e-06
3.30422e-08
7.06714e-06
3.0012e-08
7.07062e-06
2.70237e-08
7.07377e-06
2.40853e-08
7.07659e-06
2.1252e-08
1.85536e-08
7.07907e-06
8.16106e-06
8.16522e-09
8.16619e-06
2.18571e-08
8.17277e-06
3.26951e-08
8.17974e-06
3.85499e-08
8.18681e-06
4.14991e-08
8.19373e-06
4.2487e-08
8.20035e-06
4.20592e-08
8.20657e-06
4.06431e-08
8.21244e-06
3.86878e-08
8.21795e-06
3.63552e-08
8.22313e-06
3.38381e-08
8.228e-06
3.11916e-08
8.23254e-06
2.85056e-08
8.23677e-06
2.58103e-08
8.24065e-06
2.31554e-08
8.24419e-06
2.05595e-08
8.24738e-06
1.80772e-08
1.57111e-08
8.25023e-06
9.51958e-06
6.33009e-09
9.52435e-06
1.70883e-08
9.53085e-06
2.61986e-08
9.53803e-06
3.13908e-08
9.54544e-06
3.40999e-08
9.55284e-06
3.51246e-08
9.55999e-06
3.48955e-08
9.56683e-06
3.38373e-08
9.57329e-06
3.21957e-08
9.57942e-06
3.02523e-08
9.58516e-06
2.80714e-08
9.59059e-06
2.58048e-08
9.59564e-06
2.34639e-08
9.60035e-06
2.11445e-08
9.60465e-06
1.88328e-08
9.60861e-06
1.6616e-08
9.61219e-06
1.44788e-08
1.24713e-08
9.61543e-06
1.11044e-05
4.64696e-09
1.11088e-05
1.26078e-08
1.11152e-05
1.97991e-08
1.11225e-05
2.40676e-08
1.11303e-05
2.63799e-08
1.11381e-05
2.72957e-08
1.11458e-05
2.72085e-08
1.11533e-05
2.63866e-08
1.11604e-05
2.50977e-08
1.11671e-05
2.3489e-08
1.11735e-05
2.17084e-08
1.11795e-05
1.98095e-08
1.11851e-05
1.7876e-08
1.11903e-05
1.59237e-08
1.11952e-05
1.4022e-08
1.11995e-05
1.21792e-08
1.12036e-05
1.04362e-08
8.78728e-09
1.12072e-05
1.29532e-05
3.08571e-09
1.29574e-05
8.33386e-09
1.29637e-05
1.34565e-08
1.29711e-05
1.66028e-08
1.29792e-05
1.83201e-08
1.29875e-05
1.90096e-08
1.29958e-05
1.89359e-08
1.30039e-05
1.83104e-08
1.30116e-05
1.73061e-08
1.30191e-05
1.60543e-08
1.30261e-05
1.46541e-08
1.30328e-05
1.31661e-08
1.3039e-05
1.16432e-08
1.30448e-05
1.01218e-08
1.30502e-05
8.63974e-09
1.30551e-05
7.21869e-09
1.30596e-05
5.87744e-09
4.6227e-09
1.30638e-05
1.51099e-05
1.58168e-09
1.51141e-05
4.13135e-09
1.51204e-05
7.11957e-09
1.5128e-05
8.91484e-09
1.51365e-05
9.86962e-09
1.51453e-05
1.01887e-08
1.51542e-05
1.0025e-08
1.5163e-05
9.51739e-09
1.51715e-05
8.76177e-09
1.51797e-05
7.84992e-09
1.51875e-05
6.84003e-09
1.51949e-05
5.78119e-09
1.52018e-05
4.7051e-09
1.52083e-05
3.64271e-09
1.52143e-05
2.61552e-09
1.52199e-05
1.64175e-09
1.5225e-05
7.30231e-10
-1.09856e-10
1.52297e-05
1.7626e-05
6.4977e-11
1.76302e-05
-1.28462e-10
1.76368e-05
5.62703e-10
1.76448e-05
8.10465e-10
1.76539e-05
8.35592e-10
1.76635e-05
6.2817e-10
1.76732e-05
3.00039e-10
1.76829e-05
-1.69953e-10
1.76923e-05
-6.87603e-10
1.77014e-05
-1.27581e-09
1.77101e-05
-1.8662e-09
1.77184e-05
-2.47888e-09
1.77262e-05
-3.06689e-09
1.77334e-05
-3.64381e-09
1.77402e-05
-4.17785e-09
1.77465e-05
-4.67852e-09
1.77524e-05
-5.12797e-09
-5.53149e-09
1.77578e-05
1.78277e-05
-1.39188e-09
1.78318e-05
-4.1782e-09
1.78381e-05
-5.76186e-09
1.78461e-05
-7.01387e-09
1.78548e-05
-7.98496e-09
1.78642e-05
-8.68015e-09
1.78737e-05
-9.25713e-09
1.78833e-05
-9.65584e-09
1.78926e-05
-1.00055e-08
1.79016e-05
-1.02409e-08
1.79101e-05
-1.04634e-08
1.79183e-05
-1.06103e-08
1.79259e-05
-1.07535e-08
1.79332e-05
-1.08399e-08
1.79398e-05
-1.09197e-08
1.79462e-05
-1.09513e-08
1.7952e-05
-1.09731e-08
-1.09493e-08
1.79574e-05
1.58827e-05
-2.77912e-09
1.58866e-05
-8.00119e-09
1.58926e-05
-1.16057e-08
1.58998e-05
-1.42119e-08
1.59079e-05
-1.5962e-08
1.59163e-05
-1.71285e-08
1.59249e-05
-1.78161e-08
1.59334e-05
-1.81982e-08
1.59418e-05
-1.8298e-08
1.59497e-05
-1.82619e-08
1.59574e-05
-1.80826e-08
1.59646e-05
-1.78546e-08
1.59714e-05
-1.75522e-08
1.59778e-05
-1.72386e-08
1.59838e-05
-1.68854e-08
1.59893e-05
-1.65348e-08
1.59945e-05
-1.61606e-08
-1.57895e-08
1.59993e-05
1.41501e-05
-4.21558e-09
1.41541e-05
-1.19264e-08
1.416e-05
-1.74241e-08
1.4167e-05
-2.11648e-08
1.41746e-05
-2.35592e-08
1.41825e-05
-2.50181e-08
1.41905e-05
-2.57929e-08
1.41984e-05
-2.60278e-08
1.4206e-05
-2.59068e-08
1.42133e-05
-2.55279e-08
1.42202e-05
-2.50001e-08
1.42267e-05
-2.43661e-08
1.42328e-05
-2.3681e-08
1.42385e-05
-2.2964e-08
1.42439e-05
-2.22437e-08
1.42489e-05
-2.15223e-08
1.42535e-05
-2.08168e-08
-2.01153e-08
1.42578e-05
1.26066e-05
-5.80784e-09
1.26109e-05
-1.6197e-08
1.2617e-05
-2.34589e-08
1.26239e-05
-2.80952e-08
1.26314e-05
-3.09577e-08
1.2639e-05
-3.26079e-08
1.26465e-05
-3.33385e-08
1.26539e-05
-3.3378e-08
1.2661e-05
-3.29531e-08
1.26677e-05
-3.22272e-08
1.2674e-05
-3.13231e-08
1.268e-05
-3.02987e-08
1.26855e-05
-2.92342e-08
1.26907e-05
-2.81418e-08
1.26955e-05
-2.70733e-08
1.27e-05
-2.60167e-08
1.27042e-05
-2.50043e-08
-2.40138e-08
1.27081e-05
1.12317e-05
-7.65503e-09
1.12365e-05
-2.101e-08
1.12429e-05
-2.98472e-08
1.12499e-05
-3.51358e-08
1.12572e-05
-3.82723e-08
1.12646e-05
-3.99907e-08
1.12719e-05
-4.05724e-08
1.12788e-05
-4.03336e-08
1.12855e-05
-3.95587e-08
1.12917e-05
-3.84572e-08
1.12976e-05
-3.71513e-08
1.1303e-05
-3.57481e-08
1.13081e-05
-3.42932e-08
1.13128e-05
-3.28586e-08
1.13172e-05
-3.14429e-08
1.13212e-05
-3.00928e-08
1.13251e-05
-2.87833e-08
-2.75444e-08
1.13286e-05
1.00069e-05
-9.92007e-09
1.00124e-05
-2.65359e-08
1.00192e-05
-3.66454e-08
1.00263e-05
-4.22535e-08
1.00336e-05
-4.55511e-08
1.00409e-05
-4.72235e-08
1.00479e-05
-4.75654e-08
1.00545e-05
-4.69649e-08
1.00607e-05
-4.57955e-08
1.00666e-05
-4.42882e-08
1.0072e-05
-4.25796e-08
1.00771e-05
-4.07746e-08
1.00817e-05
-3.89533e-08
1.00861e-05
-3.71615e-08
1.009e-05
-3.54393e-08
1.00938e-05
-3.37877e-08
1.00972e-05
-3.22292e-08
-3.07384e-08
1.01004e-05
8.91597e-06
-1.27776e-08
8.92242e-06
-3.30003e-08
8.92962e-06
-4.38579e-08
8.93686e-06
-4.95173e-08
8.94413e-06
-5.28219e-08
8.95125e-06
-5.43428e-08
8.95803e-06
-5.43341e-08
8.9644e-06
-5.33274e-08
8.97033e-06
-5.1732e-08
8.97585e-06
-4.97943e-08
8.98094e-06
-4.76653e-08
8.98564e-06
-4.54604e-08
8.98996e-06
-4.32645e-08
8.99394e-06
-4.11327e-08
8.99761e-06
-3.90967e-08
9.001e-06
-3.7177e-08
9.00416e-06
-3.5368e-08
-3.3667e-08
9.00708e-06
7.9444e-06
-1.65235e-08
7.952e-06
-4.06001e-08
7.95959e-06
-5.14478e-08
7.96696e-06
-5.68854e-08
7.97429e-06
-6.01595e-08
7.98136e-06
-6.14178e-08
7.988e-06
-6.09854e-08
7.99417e-06
-5.95024e-08
7.99989e-06
-5.7444e-08
8.00516e-06
-5.50578e-08
8.00999e-06
-5.24949e-08
8.01442e-06
-4.98825e-08
8.01847e-06
-4.7307e-08
8.02218e-06
-4.48306e-08
8.02558e-06
-4.2493e-08
8.02871e-06
-4.03038e-08
8.03162e-06
-3.8263e-08
-3.63467e-08
8.03431e-06
7.07935e-06
-2.1533e-08
7.08835e-06
-4.96268e-08
7.09646e-06
-5.95725e-08
7.10416e-06
-6.46106e-08
7.11173e-06
-6.77374e-08
7.11893e-06
-6.86277e-08
7.12563e-06
-6.76847e-08
7.13182e-06
-6.56976e-08
7.13751e-06
-6.31329e-08
7.14271e-06
-6.02631e-08
7.14746e-06
-5.72381e-08
7.15177e-06
-5.41887e-08
7.15568e-06
-5.12136e-08
7.15922e-06
-4.83668e-08
7.16244e-06
-4.57048e-08
7.16538e-06
-4.3237e-08
7.16808e-06
-4.09567e-08
-3.88415e-08
7.17059e-06
6.30999e-06
-2.9017e-08
6.32076e-06
-6.04292e-08
6.33008e-06
-6.89054e-08
6.33894e-06
-7.34805e-08
6.34753e-06
-7.63411e-08
6.35557e-06
-7.6679e-08
6.36297e-06
-7.5097e-08
6.36974e-06
-7.24606e-08
6.37588e-06
-6.9285e-08
6.38141e-06
-6.5799e-08
6.38637e-06
-6.21872e-08
6.39076e-06
-5.85853e-08
6.39465e-06
-5.50816e-08
6.39805e-06
-5.17679e-08
6.40103e-06
-4.86829e-08
6.40365e-06
-4.58524e-08
6.40596e-06
-4.32552e-08
-4.08765e-08
6.408e-06
5.62936e-06
-4.34843e-08
5.64458e-06
-7.56963e-08
5.65832e-06
-8.26886e-08
5.67162e-06
-8.68002e-08
5.68405e-06
-8.87905e-08
5.69516e-06
-8.78035e-08
5.70484e-06
-8.47828e-08
5.7131e-06
-8.07246e-08
5.71994e-06
-7.61431e-08
5.72546e-06
-7.13164e-08
5.72972e-06
-6.64542e-08
5.73286e-06
-6.17029e-08
5.73495e-06
-5.71729e-08
5.73612e-06
-5.29372e-08
5.73651e-06
-4.90666e-08
5.73625e-06
-4.55919e-08
5.7355e-06
-4.24903e-08
-3.99519e-08
5.73458e-06
5.05066e-06
-9.18501e-08
5.08525e-06
-1.10354e-07
5.11184e-06
-1.09322e-07
5.13074e-06
-1.05731e-07
5.1419e-06
-9.99738e-08
5.14612e-06
-9.20414e-08
5.14465e-06
-8.33153e-08
5.13865e-06
-7.47304e-08
5.12913e-06
-6.66387e-08
5.11697e-06
-5.91628e-08
5.10286e-06
-5.23495e-08
5.08737e-06
-4.61984e-08
5.07092e-06
-4.07078e-08
5.05385e-06
-3.58653e-08
5.03644e-06
-3.16604e-08
5.01903e-06
-2.81777e-08
5.00199e-06
-2.54386e-08
-2.37317e-08
4.98578e-06
4.3647e-06
4.25434e-06
4.14501e-06
4.03928e-06
3.9393e-06
3.84726e-06
3.76394e-06
3.68921e-06
3.62257e-06
3.56341e-06
3.51106e-06
3.46487e-06
3.42416e-06
3.38829e-06
3.35663e-06
3.32846e-06
3.30302e-06
3.27929e-06
-8.20821e-09
8.2349e-09
-2.22037e-08
1.4028e-08
-3.7469e-08
1.53127e-08
-5.0592e-08
1.31379e-08
-5.63213e-08
5.78378e-09
-4.87607e-08
-7.56963e-09
-2.57057e-08
-2.2998e-08
1.03179e-08
-3.60399e-08
5.52966e-08
-4.49306e-08
1.0432e-07
-4.90389e-08
1.53056e-07
-4.87058e-08
1.98338e-07
-4.52915e-08
2.38216e-07
-3.98589e-08
2.71402e-07
-3.31933e-08
2.97227e-07
-2.58159e-08
3.15253e-07
-1.80291e-08
3.25222e-07
-9.9682e-09
3.26812e-07
-1.58829e-09
3.1981e-07
6.99625e-09
3.04407e-07
1.54103e-08
2.81164e-07
2.32343e-08
2.51087e-07
3.00872e-08
2.15519e-07
3.55601e-08
1.76331e-07
3.91964e-08
1.35778e-07
4.05408e-08
9.65178e-08
3.92636e-08
6.11848e-08
3.5316e-08
3.20326e-08
2.91465e-08
1.02185e-08
2.17854e-08
-4.30526e-09
1.45174e-08
-1.24648e-08
8.1158e-09
-1.466e-08
2.20338e-09
-1.08105e-08
-3.89924e-09
3.52867e-10
-1.11396e-08
2.01896e-08
-1.98755e-08
4.8876e-08
-2.86708e-08
8.26424e-08
-3.37866e-08
1.15444e-07
-3.28198e-08
1.41783e-07
-2.63388e-08
1.58293e-07
-1.65572e-08
1.65009e-07
-6.73003e-09
1.64582e-07
3.58e-10
1.60674e-07
3.89063e-09
1.56773e-07
3.82675e-09
1.55276e-07
1.54238e-09
1.50262e-07
4.90818e-09
1.32622e-07
1.7775e-08
9.37341e-08
3.8723e-08
2.82551e-08
6.56807e-08
-6.14821e-08
8.96394e-08
-1.69396e-07
1.07997e-07
-2.92331e-07
1.2297e-07
-4.2694e-07
1.34596e-07
-5.69213e-07
1.42374e-07
-7.15282e-07
1.46043e-07
-8.61196e-07
1.45999e-07
-1.00368e-06
1.42425e-07
-1.13985e-06
1.36214e-07
-1.26825e-06
1.28337e-07
-1.38774e-06
1.19511e-07
-1.49859e-06
1.10802e-07
-1.59995e-06
1.01357e-07
-1.69258e-06
9.25982e-08
-1.77795e-06
8.53574e-08
-1.85631e-06
7.83424e-08
-1.92845e-06
7.21203e-08
-1.99511e-06
6.66513e-08
-2.05696e-06
6.18252e-08
-2.11456e-06
5.76001e-08
-2.16846e-06
5.38695e-08
-2.21902e-06
5.05715e-08
-2.26667e-06
4.7621e-08
-2.31163e-06
4.49687e-08
-2.35421e-06
4.25449e-08
-2.39452e-06
4.03227e-08
-2.4328e-06
3.82478e-08
-2.46909e-06
3.63073e-08
-2.50357e-06
3.4461e-08
-2.53626e-06
3.27055e-08
-2.56728e-06
3.10109e-08
-2.59664e-06
2.93783e-08
-2.62443e-06
2.77859e-08
-2.65064e-06
2.62359e-08
-2.67535e-06
2.4713e-08
-2.69855e-06
2.3219e-08
-2.72029e-06
2.17442e-08
-2.74057e-06
2.02888e-08
-2.7594e-06
1.88463e-08
-2.77681e-06
1.74165e-08
-2.79279e-06
1.59864e-08
-2.80735e-06
1.45575e-08
-2.82047e-06
1.31163e-08
-2.83214e-06
1.16564e-08
-2.84232e-06
1.01691e-08
-2.85097e-06
8.64457e-09
-2.85805e-06
7.07343e-09
-2.8635e-06
5.44437e-09
-2.86725e-06
3.74242e-09
-2.86923e-06
1.97031e-09
-2.86945e-06
2.03057e-10
-2.86809e-06
-1.36479e-09
-2.86538e-06
-2.73334e-09
-2.86135e-06
-4.04271e-09
-2.85602e-06
-5.33964e-09
-2.8494e-06
-6.63274e-09
-2.84148e-06
-7.93374e-09
-2.83225e-06
-9.234e-09
-2.82172e-06
-1.05428e-08
-2.80987e-06
-1.18486e-08
-2.79671e-06
-1.31606e-08
-2.78224e-06
-1.44668e-08
-2.76645e-06
-1.57758e-08
-2.74936e-06
-1.70761e-08
-2.73097e-06
-1.83751e-08
-2.71128e-06
-1.96626e-08
-2.69031e-06
-2.09442e-08
-2.66806e-06
-2.2212e-08
-2.64456e-06
-2.34689e-08
-2.61981e-06
-2.47101e-08
-2.59383e-06
-2.59355e-08
-2.56665e-06
-2.71435e-08
-2.53827e-06
-2.8331e-08
-2.50873e-06
-2.94994e-08
-2.47804e-06
-3.06431e-08
-2.44623e-06
-3.17665e-08
-2.41333e-06
-3.28619e-08
-2.37936e-06
-3.3936e-08
-2.34435e-06
-3.49768e-08
-2.30833e-06
-3.59939e-08
-2.27134e-06
-3.69729e-08
-2.23342e-06
-3.79268e-08
-2.19458e-06
-3.88435e-08
-2.15487e-06
-3.97163e-08
-2.11433e-06
-4.05357e-08
-2.07304e-06
-4.12923e-08
-2.03106e-06
-4.19748e-08
-1.98849e-06
-4.25922e-08
-1.9452e-06
-4.33125e-08
-1.90115e-06
-4.408e-08
-1.85645e-06
-4.47367e-08
-1.81113e-06
-4.53529e-08
-1.76524e-06
-4.59303e-08
-1.71882e-06
-4.64688e-08
-1.67189e-06
-4.69762e-08
-1.62448e-06
-4.74458e-08
-1.57662e-06
-4.78868e-08
-1.52832e-06
-4.82895e-08
-1.47961e-06
-4.86693e-08
-1.43052e-06
-4.90241e-08
-1.38108e-06
-4.93691e-08
-1.33131e-06
-4.96924e-08
-1.28122e-06
-5.00018e-08
-1.23085e-06
-5.02811e-08
-1.18022e-06
-5.0542e-08
-1.12936e-06
-5.07744e-08
-1.07828e-06
-5.0993e-08
-1.02699e-06
-5.11967e-08
-9.75519e-07
-5.13901e-08
-9.23855e-07
-5.15827e-08
-8.72007e-07
-5.17729e-08
-8.1997e-07
-5.19652e-08
-7.67744e-07
-5.2159e-08
-7.15328e-07
-5.2353e-08
-6.62725e-07
-5.25437e-08
-6.09936e-07
-5.27324e-08
-5.56966e-07
-5.29179e-08
-5.03813e-07
-5.31061e-08
-4.50471e-07
-5.32966e-08
-3.9694e-07
-5.34952e-08
-3.43211e-07
-5.36946e-08
-2.89297e-07
-5.38914e-08
-2.35215e-07
-5.40585e-08
-1.81035e-07
-5.41717e-08
-1.26857e-07
-5.4165e-08
-7.28929e-08
-5.3966e-08
-1.95762e-08
-5.33104e-08
3.24548e-08
-5.20423e-08
8.15051e-08
-4.90502e-08
1.26697e-07
-4.52074e-08
-2.00985e-08
1.46816e-07
-3.41148e-09
1.16951e-08
-9.43094e-09
2.01028e-08
-1.21259e-08
1.81149e-08
-4.49965e-09
5.55251e-09
1.85607e-08
-1.71837e-08
5.60638e-08
-4.50648e-08
1.03693e-07
-7.05822e-08
1.5584e-07
-8.81883e-08
2.07473e-07
-9.6538e-08
2.55266e-07
-9.68349e-08
2.97774e-07
-9.11974e-08
3.3426e-07
-8.17799e-08
3.64647e-07
-7.02353e-08
3.89107e-07
-5.76546e-08
4.07991e-07
-4.4694e-08
4.21672e-07
-3.17101e-08
4.30579e-07
-1.88736e-08
4.35264e-07
-6.2716e-09
4.36126e-07
6.13235e-09
4.3309e-07
1.84499e-08
4.25678e-07
3.06414e-08
4.13306e-07
4.24654e-08
3.9538e-07
5.34816e-08
3.71548e-07
6.30334e-08
3.41797e-07
7.02877e-08
3.06721e-07
7.43398e-08
2.67614e-07
7.44162e-08
2.26614e-07
7.01443e-08
1.86647e-07
6.17347e-08
1.51269e-07
4.98921e-08
1.23918e-07
3.54345e-08
1.07185e-07
1.89399e-08
1.02527e-07
7.20617e-10
1.09769e-07
-1.83664e-08
1.26931e-07
-3.70574e-08
1.49012e-07
-5.07431e-08
1.68895e-07
-5.36724e-08
1.81458e-07
-4.53907e-08
1.84839e-07
-2.97162e-08
1.78887e-07
-1.06337e-08
1.64934e-07
7.2231e-09
1.44633e-07
2.05875e-08
1.13553e-07
3.49787e-08
6.1469e-08
5.58312e-08
-2.08448e-08
8.38882e-08
-1.34695e-07
1.18704e-07
-2.7179e-07
1.54894e-07
-4.22047e-07
1.88953e-07
-5.76792e-07
2.20441e-07
-7.33787e-07
2.46626e-07
-8.91266e-07
2.65485e-07
-1.04574e-06
2.77455e-07
-1.19362e-06
2.82483e-07
-1.33173e-06
2.80521e-07
-1.45807e-06
2.7238e-07
-1.57158e-06
2.59535e-07
-1.67249e-06
2.43321e-07
-1.76155e-06
2.25281e-07
-1.84019e-06
2.06963e-07
-1.90994e-06
1.89246e-07
-1.97185e-06
1.72697e-07
-2.02789e-06
1.5739e-07
-2.07897e-06
1.43664e-07
-2.12547e-06
1.31847e-07
-2.16857e-06
1.2143e-07
-2.2088e-06
1.12342e-07
-2.24659e-06
1.04425e-07
-2.28227e-06
9.74918e-08
-2.31606e-06
9.13892e-08
-2.34818e-06
8.59698e-08
-2.37872e-06
8.11126e-08
-2.40782e-06
7.67073e-08
-2.43553e-06
7.26719e-08
-2.46193e-06
6.89291e-08
-2.48703e-06
6.5425e-08
-2.5109e-06
6.21079e-08
-2.53354e-06
5.8946e-08
-2.55499e-06
5.59041e-08
-2.57525e-06
5.29645e-08
-2.59434e-06
5.01034e-08
-2.61226e-06
4.73111e-08
-2.62905e-06
4.45712e-08
-2.64468e-06
4.18779e-08
-2.65918e-06
3.922e-08
-2.67254e-06
3.65936e-08
-2.68478e-06
3.39906e-08
-2.69589e-06
3.14078e-08
-2.70587e-06
2.88398e-08
-2.71473e-06
2.62796e-08
-2.72246e-06
2.3726e-08
-2.72908e-06
2.11662e-08
-2.73457e-06
1.85985e-08
-2.73893e-06
1.60174e-08
-2.74219e-06
1.34196e-08
-2.74435e-06
1.08031e-08
-2.74545e-06
8.1707e-09
-2.74554e-06
5.52622e-09
-2.74469e-06
2.88552e-09
-2.74301e-06
2.78625e-10
-2.74055e-06
-2.2602e-09
-2.73716e-06
-4.7668e-09
-2.73262e-06
-7.29023e-09
-2.72685e-06
-9.82672e-09
-2.71982e-06
-1.2372e-08
-2.71154e-06
-1.4928e-08
-2.70198e-06
-1.74954e-08
-2.69116e-06
-2.00717e-08
-2.67905e-06
-2.26568e-08
-2.66565e-06
-2.52458e-08
-2.65097e-06
-2.78387e-08
-2.63501e-06
-3.04293e-08
-2.61775e-06
-3.30177e-08
-2.59922e-06
-3.55968e-08
-2.57942e-06
-3.81669e-08
-2.55834e-06
-4.07202e-08
-2.53601e-06
-4.32571e-08
-2.51243e-06
-4.57701e-08
-2.48761e-06
-4.82591e-08
-2.46157e-06
-5.07175e-08
-2.43433e-06
-5.31446e-08
-2.40591e-06
-5.55351e-08
-2.37632e-06
-5.78871e-08
-2.34559e-06
-6.0197e-08
-2.31375e-06
-6.24619e-08
-2.2808e-06
-6.46798e-08
-2.24679e-06
-6.68471e-08
-2.21174e-06
-6.89633e-08
-2.17567e-06
-7.10223e-08
-2.13863e-06
-7.30236e-08
-2.10063e-06
-7.49614e-08
-2.06172e-06
-7.68362e-08
-2.02193e-06
-7.86408e-08
-1.98128e-06
-8.03688e-08
-1.9398e-06
-8.2013e-08
-1.89751e-06
-8.3578e-08
-1.85443e-06
-8.50606e-08
-1.81056e-06
-8.6481e-08
-1.76598e-06
-8.79059e-08
-1.72077e-06
-8.93033e-08
-1.67493e-06
-9.06018e-08
-1.62848e-06
-9.18243e-08
-1.58147e-06
-9.29719e-08
-1.53391e-06
-9.40501e-08
-1.48585e-06
-9.50614e-08
-1.43731e-06
-9.60084e-08
-1.38832e-06
-9.68907e-08
-1.33888e-06
-9.77127e-08
-1.28903e-06
-9.84814e-08
-1.2388e-06
-9.9209e-08
-1.18822e-06
-9.99041e-08
-1.13729e-06
-1.00565e-07
-1.08605e-06
-1.01185e-07
-1.03452e-06
-1.01759e-07
-9.82713e-07
-1.02284e-07
-9.30663e-07
-1.02766e-07
-8.78387e-07
-1.03209e-07
-8.25899e-07
-1.03628e-07
-7.7321e-07
-1.04023e-07
-7.20326e-07
-1.04414e-07
-6.67248e-07
-1.04801e-07
-6.13975e-07
-1.05192e-07
-5.60505e-07
-1.05586e-07
-5.06836e-07
-1.05981e-07
-4.5297e-07
-1.06372e-07
-3.98909e-07
-1.06758e-07
-3.44653e-07
-1.07141e-07
-2.90202e-07
-1.07527e-07
-2.35551e-07
-1.07922e-07
-1.80695e-07
-1.08328e-07
-1.25632e-07
-1.08742e-07
-7.03657e-08
-1.09144e-07
-1.49186e-08
-1.09499e-07
4.06647e-08
-1.09751e-07
9.62952e-08
-1.09797e-07
1.51779e-07
-1.09454e-07
2.06857e-07
-1.08398e-07
2.60869e-07
-1.06067e-07
3.13208e-07
-1.01404e-07
3.6053e-07
-9.25459e-08
-6.52257e-08
4.05657e-07
5.06424e-10
1.12357e-08
4.41154e-09
1.62642e-08
1.94838e-08
3.12797e-09
5.33758e-08
-2.83117e-08
1.04586e-07
-6.8354e-08
1.63407e-07
-1.03882e-07
2.20014e-07
-1.27167e-07
2.68842e-07
-1.37017e-07
3.08317e-07
-1.35997e-07
3.39113e-07
-1.27632e-07
3.62852e-07
-1.14926e-07
3.81045e-07
-9.99732e-08
3.94892e-07
-8.40733e-08
4.05189e-07
-6.79518e-08
4.1249e-07
-5.19888e-08
4.1715e-07
-3.63694e-08
4.19459e-07
-2.11788e-08
4.19651e-07
-6.4619e-09
4.18021e-07
7.76334e-09
4.14934e-07
2.15396e-08
4.10657e-07
3.49169e-08
4.05244e-07
4.78815e-08
3.98425e-07
6.02987e-08
3.89622e-07
7.18391e-08
3.77984e-07
8.19232e-08
3.6262e-07
8.97068e-08
3.42898e-07
9.41332e-08
3.18941e-07
9.41009e-08
2.91909e-07
8.87603e-08
2.64096e-07
7.77027e-08
2.38425e-07
6.10937e-08
2.17699e-07
3.96689e-08
2.03559e-07
1.48513e-08
1.96081e-07
-1.08784e-08
1.91065e-07
-3.20412e-08
1.81119e-07
-4.07865e-08
1.62076e-07
-3.46211e-08
1.33928e-07
-1.72434e-08
9.74711e-08
6.75442e-09
5.08168e-08
3.60088e-08
-1.14957e-08
6.95354e-08
-9.64982e-08
1.05571e-07
-2.06325e-07
1.44797e-07
-3.37845e-07
1.87338e-07
-4.84811e-07
2.3085e-07
-6.38313e-07
2.72189e-07
-7.92073e-07
3.08651e-07
-9.4126e-07
3.38119e-07
-1.08054e-06
3.59715e-07
-1.20708e-06
3.73153e-07
-1.31998e-06
3.78381e-07
-1.41856e-06
3.76041e-07
-1.50307e-06
3.66997e-07
-1.57496e-06
3.52427e-07
-1.63644e-06
3.33868e-07
-1.68977e-06
3.12879e-07
-1.73719e-06
2.90735e-07
-1.78048e-06
2.68574e-07
-1.82088e-06
2.47347e-07
-1.85921e-06
2.27579e-07
-1.89601e-06
2.0949e-07
-1.93179e-06
1.93155e-07
-1.96671e-06
1.78581e-07
-2.00062e-06
1.65749e-07
-2.03363e-06
1.54426e-07
-2.06573e-06
1.4443e-07
-2.09689e-06
1.35581e-07
-2.12711e-06
1.27701e-07
-2.15636e-06
1.2063e-07
-2.18462e-06
1.14226e-07
-2.21189e-06
1.0837e-07
-2.23815e-06
1.02959e-07
-2.26339e-06
9.7908e-08
-2.28761e-06
9.31441e-08
-2.31081e-06
8.86126e-08
-2.33297e-06
8.42654e-08
-2.35409e-06
8.00673e-08
-2.37418e-06
7.59882e-08
-2.39322e-06
7.20067e-08
-2.41122e-06
6.81035e-08
-2.42817e-06
6.42657e-08
-2.44407e-06
6.04808e-08
-2.45893e-06
5.67405e-08
-2.47274e-06
5.30364e-08
-2.4855e-06
4.93627e-08
-2.49722e-06
4.57133e-08
-2.50789e-06
4.20834e-08
-2.51751e-06
3.84674e-08
-2.52609e-06
3.48622e-08
-2.53362e-06
3.12568e-08
-2.54011e-06
2.76522e-08
-2.54555e-06
2.40396e-08
-2.54995e-06
2.04172e-08
-2.55332e-06
1.67827e-08
-2.55565e-06
1.31373e-08
-2.55697e-06
9.48334e-09
-2.55727e-06
5.82607e-09
-2.55656e-06
2.17413e-09
-2.55483e-06
-1.46382e-09
-2.552e-06
-5.09191e-09
-2.54804e-06
-8.74246e-09
-2.5429e-06
-1.24333e-08
-2.53658e-06
-1.61588e-08
-2.52905e-06
-1.99092e-08
-2.52031e-06
-2.36845e-08
-2.51033e-06
-2.74779e-08
-2.49912e-06
-3.12898e-08
-2.48667e-06
-3.5113e-08
-2.47297e-06
-3.89468e-08
-2.45802e-06
-4.27838e-08
-2.44183e-06
-4.66222e-08
-2.42439e-06
-5.04542e-08
-2.4057e-06
-5.42772e-08
-2.38577e-06
-5.80836e-08
-2.36461e-06
-6.18694e-08
-2.34222e-06
-6.56277e-08
-2.31862e-06
-6.93539e-08
-2.29382e-06
-7.30419e-08
-2.26783e-06
-7.66866e-08
-2.24067e-06
-8.02831e-08
-2.21235e-06
-8.38259e-08
-2.18291e-06
-8.73111e-08
-2.15235e-06
-9.07334e-08
-2.12069e-06
-9.40893e-08
-2.08798e-06
-9.73739e-08
-2.05422e-06
-1.00584e-07
-2.01945e-06
-1.03716e-07
-1.98369e-06
-1.06765e-07
-1.94697e-06
-1.09727e-07
-1.90932e-06
-1.12599e-07
-1.87078e-06
-1.15375e-07
-1.83138e-06
-1.1805e-07
-1.79112e-06
-1.20617e-07
-1.75006e-06
-1.23071e-07
-1.70821e-06
-1.25422e-07
-1.6656e-06
-1.27672e-07
-1.62225e-06
-1.29836e-07
-1.57823e-06
-1.31939e-07
-1.53358e-06
-1.33966e-07
-1.48831e-06
-1.35883e-07
-1.44245e-06
-1.37697e-07
-1.39604e-06
-1.39407e-07
-1.34909e-06
-1.41017e-07
-1.30164e-06
-1.42531e-07
-1.25372e-06
-1.43952e-07
-1.20533e-06
-1.45282e-07
-1.15652e-06
-1.46525e-07
-1.10729e-06
-1.47692e-07
-1.05768e-06
-1.48795e-07
-1.00772e-06
-1.49847e-07
-9.57421e-07
-1.50845e-07
-9.06804e-07
-1.51784e-07
-8.55888e-07
-1.52654e-07
-8.04702e-07
-1.53453e-07
-7.53261e-07
-1.54187e-07
-7.01589e-07
-1.54864e-07
-6.49698e-07
-1.55502e-07
-5.97602e-07
-1.56107e-07
-5.45305e-07
-1.56698e-07
-4.92812e-07
-1.57284e-07
-4.4012e-07
-1.57873e-07
-3.87229e-07
-1.58469e-07
-3.34137e-07
-1.59065e-07
-2.80846e-07
-1.59657e-07
-2.27355e-07
-1.60241e-07
-1.73667e-07
-1.60823e-07
-1.1978e-07
-1.61408e-07
-6.56901e-08
-1.62006e-07
-1.13918e-08
-1.6262e-07
4.31188e-08
-1.63246e-07
9.7836e-08
-1.63856e-07
1.52744e-07
-1.644e-07
2.07793e-07
-1.64794e-07
2.62899e-07
-1.64895e-07
3.17921e-07
-1.64469e-07
3.72644e-07
-1.63112e-07
4.26701e-07
-1.60117e-07
4.79652e-07
-1.54348e-07
5.30548e-07
-1.43435e-07
-1.17548e-07
5.82884e-07
-5.18126e-11
1.13405e-08
1.34594e-08
2.81543e-09
5.39449e-08
-3.7301e-08
1.16516e-07
-9.08692e-08
1.8375e-07
-1.35564e-07
2.41473e-07
-1.61603e-07
2.84222e-07
-1.699e-07
3.12951e-07
-1.65748e-07
3.31318e-07
-1.54352e-07
3.42964e-07
-1.39279e-07
3.50582e-07
-1.22534e-07
3.55742e-07
-1.05133e-07
3.59264e-07
-8.7587e-08
3.61475e-07
-7.01617e-08
3.62503e-07
-5.30104e-08
3.62369e-07
-3.62336e-08
3.61102e-07
-1.99058e-08
3.58732e-07
-4.08969e-09
3.55338e-07
1.11602e-08
3.51063e-07
2.58174e-08
3.46125e-07
3.98569e-08
3.40765e-07
5.32448e-08
3.35152e-07
6.5911e-08
3.29305e-07
7.76909e-08
3.22973e-07
8.82543e-08
3.15651e-07
9.70318e-08
3.06601e-07
1.03181e-07
2.95117e-07
1.0559e-07
2.80791e-07
1.03081e-07
2.6379e-07
9.47116e-08
2.45002e-07
7.98753e-08
2.25783e-07
5.89021e-08
2.06624e-07
3.40076e-08
1.84058e-07
1.17036e-08
1.51058e-07
9.6264e-10
1.04913e-07
5.37059e-09
4.67621e-08
2.3538e-08
-2.41646e-08
5.36908e-08
-1.10603e-07
9.31973e-08
-2.13619e-07
1.39022e-07
-3.32118e-07
1.88037e-07
-4.63982e-07
2.37427e-07
-6.04445e-07
2.85258e-07
-7.47075e-07
3.29957e-07
-8.85766e-07
3.69536e-07
-1.01503e-06
4.01437e-07
-1.13082e-06
4.24434e-07
-1.23154e-06
4.38822e-07
-1.31672e-06
4.44882e-07
-1.387e-06
4.43416e-07
-1.44414e-06
4.35519e-07
-1.49038e-06
4.22281e-07
-1.5283e-06
4.04917e-07
-1.56052e-06
3.84655e-07
-1.58935e-06
3.62699e-07
-1.61654e-06
3.40074e-07
-1.64336e-06
3.17559e-07
-1.67057e-06
2.95779e-07
-1.69843e-06
2.7521e-07
-1.72697e-06
2.56119e-07
-1.7561e-06
2.3861e-07
-1.78565e-06
2.22699e-07
-1.81541e-06
2.08343e-07
-1.84513e-06
1.9546e-07
-1.87462e-06
1.83903e-07
-1.90371e-06
1.73517e-07
-1.93229e-06
1.64148e-07
-1.96024e-06
1.55644e-07
-1.98748e-06
1.47867e-07
-2.01396e-06
1.40697e-07
-2.03962e-06
1.34025e-07
-2.06443e-06
1.27757e-07
-2.08834e-06
1.21818e-07
-2.11135e-06
1.16142e-07
-2.13341e-06
1.10676e-07
-2.15453e-06
1.05378e-07
-2.17468e-06
1.00215e-07
-2.19385e-06
9.51598e-08
-2.21204e-06
9.01933e-08
-2.22923e-06
8.52986e-08
-2.24543e-06
8.04637e-08
-2.26062e-06
7.56781e-08
-2.27481e-06
7.09343e-08
-2.288e-06
6.62252e-08
-2.30017e-06
6.15455e-08
-2.31134e-06
5.68898e-08
-2.32151e-06
5.22533e-08
-2.33067e-06
4.76312e-08
-2.33882e-06
4.30157e-08
-2.34597e-06
3.84068e-08
-2.35211e-06
3.37905e-08
-2.35724e-06
2.91677e-08
-2.36135e-06
2.45337e-08
-2.36446e-06
1.98852e-08
-2.36654e-06
1.52221e-08
-2.3676e-06
1.05436e-08
-2.36763e-06
5.85203e-09
-2.36661e-06
1.14801e-09
-2.36451e-06
-3.56895e-09
-2.3613e-06
-8.30954e-09
-2.35696e-06
-1.30922e-08
-2.35147e-06
-1.79248e-08
-2.34484e-06
-2.28037e-08
-2.33703e-06
-2.77205e-08
-2.32805e-06
-3.26727e-08
-2.31789e-06
-3.76522e-08
-2.30652e-06
-4.26576e-08
-2.29396e-06
-4.76798e-08
-2.28019e-06
-5.27173e-08
-2.26522e-06
-5.776e-08
-2.24903e-06
-6.28061e-08
-2.23164e-06
-6.78444e-08
-2.21303e-06
-7.28726e-08
-2.19323e-06
-7.78787e-08
-2.17223e-06
-8.28597e-08
-2.15004e-06
-8.78039e-08
-2.12667e-06