/*--------------------------------*- C++ -*----------------------------------*\
  =========                 |
  \\      /  F ield         | OpenFOAM: The Open Source CFD Toolbox
   \\    /   O peration     | Website:  https://openfoam.org
    \\  /    A nd           | Version:  8
     \\/     M anipulation  |
\*---------------------------------------------------------------------------*/
FoamFile
{
    version     2.0;
    format      ascii;
    class       volScalarField;
    location    "200";
    object      nuTilda;
}
// * * * * * * * * * * * * * * * * * * * * * * * * * * * * * * * * * * * * * //

dimensions      [0 2 -1 0 0 0 0];

internalField   nonuniform List<scalar> 
12225
(
0.0122671
0.00158833
0.000666933
0.000412202
0.000298004
0.000234405
0.000192188
0.000185526
0.000141688
0.000110725
9.74552e-05
9.00232e-05
8.2261e-05
7.65849e-05
7.19474e-05
6.91764e-05
6.80785e-05
7.2631e-05
0.0323823
0.00744533
0.00330642
0.00204338
0.00146818
0.00114482
0.000936457
0.000800318
0.000681859
0.000580641
0.000508308
0.000454776
0.000413602
0.00038281
0.000353796
0.000330674
0.000314724
0.000295424
0.0490123
0.01515
0.00728197
0.00457857
0.00330642
0.00258067
0.00211196
0.00178984
0.00154391
0.00134945
0.00119833
0.00107885
0.000982218
0.000903482
0.000836441
0.000781053
0.000736306
0.000686922
0.063054
0.0237783
0.0122894
0.00788816
0.00573399
0.00448506
0.00367386
0.00310808
0.002686
0.00235841
0.00210022
0.00189307
0.00172368
0.00158333
0.00146483
0.00136489
0.00128093
0.00119702
0.074932
0.0328517
0.0181452
0.0119262
0.0087455
0.00686417
0.0056307
0.00476308
0.00411812
0.00362003
0.00322606
0.00290812
0.00264706
0.00242971
0.00224633
0.00209046
0.0019573
0.0018354
0.0849536
0.0420208
0.0246655
0.0166359
0.0123325
0.00972591
0.00799538
0.00676818
0.00585372
0.00514733
0.00458743
0.00413448
0.00376184
0.003451
0.00318853
0.00296487
0.00277282
0.00260414
0.0933822
0.0510219
0.0316643
0.0219415
0.016474
0.0130717
0.0107779
0.0091357
0.00790581
0.00695315
0.00619628
0.00558284
0.00507748
0.00465548
0.00429901
0.003995
0.00373373
0.00350795
0.0993794
0.0583363
0.0378386
0.0268568
0.0204171
0.0163053
0.0134892
0.0114531
0.00991897
0.00872615
0.00777603
0.00700454
0.00636821
0.00583643
0.00538705
0.00500372
0.00467439
0.00439126
0.104023
0.0645454
0.0433804
0.0314239
0.0241571
0.0194092
0.0161097
0.0137018
0.0118766
0.010452
0.00931429
0.00838885
0.00762466
0.00698558
0.00644533
0.00598445
0.00558862
0.00524889
0.108368
0.0708939
0.0493757
0.0365497
0.0284517
0.0230231
0.0191863
0.0163548
0.0141927
0.0124968
0.011138
0.0100303
0.00911431
0.00834759
0.00769913
0.00714587
0.00667081
0.00626316
0.112368
0.0772557
0.0557282
0.0421918
0.0332976
0.0271653
0.0227468
0.0194433
0.0168984
0.0148904
0.013275
0.0119545
0.0108606
0.00994387
0.00916807
0.00850599
0.00793753
0.00744934
0.115994
0.0834976
0.0623054
0.0482612
0.0386474
0.0318167
0.0267891
0.0229739
0.0200047
0.0176452
0.0157379
0.0141737
0.012875
0.0117851
0.0108619
0.0100738
0.00939688
0.00881482
0.119234
0.0894856
0.0689377
0.0546109
0.0443919
0.0369008
0.0312597
0.0269089
0.0234837
0.02074
0.0185097
0.0166736
0.015145
0.0138601
0.0127706
0.0118397
0.0110398
0.010351
0.122086
0.095084
0.075415
0.0610223
0.0503361
0.0422535
0.0360231
0.0311353
0.0272402
0.0240931
0.0215191
0.0193909
0.0176141
0.0161175
0.0148467
0.0137602
0.0128258
0.0120197
0.124546
0.100135
0.0814619
0.0671726
0.056158
0.047577
0.0408126
0.0354174
0.031066
0.0275197
0.0246013
0.0221778
0.0201482
0.018435
0.0169783
0.0157315
0.0146584
0.0137312
0.126578
0.104396
0.0866605
0.0725515
0.0613228
0.0523526
0.0451454
0.0393148
0.0345631
0.0306611
0.0274325
0.024741
0.0224806
0.020569
0.0189413
0.0175468
0.0163455
0.0153062
0.128011
0.107322
0.0902141
0.0762353
0.0648743
0.0556509
0.0481493
0.0420254
0.0370012
0.0328553
0.0294126
0.0265352
0.0241143
0.0220643
0.0203172
0.0188191
0.0175275
0.0164083
0.128006
0.107313
0.0902048
0.0762269
0.0648674
0.0556454
0.048145
0.0420221
0.0369988
0.0328537
0.0294117
0.0265349
0.0241147
0.0220651
0.0203184
0.0188206
0.0175286
0.0164082
0.126509
0.104255
0.0864922
0.0723807
0.0611613
0.052205
0.0450127
0.0391967
0.0344584
0.0305685
0.0273506
0.0246684
0.0224163
0.0205118
0.0188902
0.0175006
0.0163023
0.0152631
0.124267
0.0995604
0.0807712
0.0664676
0.0554886
0.0469631
0.0402594
0.0349227
0.0306248
0.0271258
0.0242487
0.0218611
0.0198625
0.0181762
0.0167425
0.0155151
0.0144575
0.0135404
0.12136
0.0936399
0.0737261
0.0593347
0.0487592
0.0408248
0.0347466
0.0300003
0.0262308
0.0231928
0.0207127
0.018665
0.0169572
0.0155198
0.0142999
0.0132566
0.0123583
0.0115797
0.117686
0.0865903
0.0656967
0.0514791
0.0415374
0.0343608
0.0290183
0.0249322
0.0217349
0.0191849
0.0171185
0.0154213
0.0140107
0.0128264
0.011823
0.0109657
0.010228
0.00958894
0.11305
0.0784122
0.056921
0.0432687
0.0342296
0.0279652
0.0234365
0.0200435
0.0174264
0.01536
0.013697
0.0123375
0.0112112
0.0102676
0.00946913
0.00878757
0.0082013
0.00769364
0.107169
0.0691009
0.0476371
0.035029
0.0271566
0.021922
0.0182436
0.0155402
0.0134819
0.0118711
0.0105826
0.00953338
0.0086664
0.00794115
0.00732804
0.00680494
0.00635505
0.00596562
0.0996761
0.0587036
0.0381279
0.0270699
0.0205782
0.0164329
0.0135949
0.0115438
0.00999948
0.00880014
0.00784556
0.00707057
0.00643126
0.00589695
0.00544537
0.0050601
0.0047287
0.00444189
0.0901097
0.0473665
0.0287363
0.0196847
0.0146976
0.0116311
0.00957847
0.00811519
0.00702359
0.00618167
0.00551446
0.0049736
0.00452752
0.00415469
0.00383926
0.00357002
0.00333827
0.00313758
0.0779076
0.0353826
0.0198606
0.0131383
0.00966105
0.00759294
0.00623347
0.00527408
0.00456414
0.00402141
0.0035932
0.00324537
0.00295763
0.00271667
0.00251192
0.00233692
0.00218625
0.00205497
0.06238
0.0232554
0.0119461
0.00765493
0.00556337
0.00435254
0.00356722
0.00301607
0.00261295
0.00231129
0.00207477
0.00187926
0.00171572
0.0015776
0.00145899
0.00135665
0.00126941
0.00119041
0.0426105
0.0117794
0.00546931
0.00341388
0.00246076
0.00192013
0.0015729
0.0013287
0.00115895
0.00104184
0.000951044
0.000867085
0.000795598
0.000728454
0.000676912
0.000623006
0.000584319
0.000544516
0.0168348
0.0025599
0.00110031
0.000684193
0.000495181
0.000389144
0.000321683
0.00027074
0.000277824
0.000338901
0.00037673
0.000353877
0.00032993
0.00027124
0.000323618
0.000250708
0.000280991
0.000267914
3.87053e-06
1.36011e-05
2.54959e-05
3.80856e-05
4.59506e-05
5.00526e-05
5.04675e-05
4.85269e-05
4.54962e-05
4.04745e-05
3.50937e-05
3.01918e-05
2.70224e-05
2.73416e-05
2.95286e-05
3.18975e-05
3.1719e-05
2.9869e-05
2.58238e-05
1.94324e-05
2.09112e-05
3.30778e-05
3.65168e-05
5.62194e-05
8.25115e-05
9.75046e-05
0.000110391
0.000121685
0.000131996
0.000140721
0.000148527
0.000155315
0.000161327
0.000166618
0.000171258
0.000175374
0.000179034
0.000182312
0.000185258
0.000187911
0.000190299
0.000192442
0.000194356
0.000196056
0.000197553
0.00019886
0.000199985
0.000200936
0.000201716
0.000202191
0.000202716
0.000202827
0.000203102
0.000203019
0.00020289
0.00020255
0.0002021
0.000201511
0.000200795
0.000199951
0.000198982
0.000197889
0.000196675
0.000195342
0.000193893
0.000192332
0.000190667
0.000188889
0.000187002
0.000185013
0.000182923
0.000180735
0.000178451
0.000176074
0.000173605
0.000171048
0.000168403
0.000165673
0.000162858
0.000159961
0.000156982
0.000153924
0.000150788
0.00014758
0.000144303
0.00014096
0.000137544
0.000134039
0.000130409
0.000126612
0.000122614
0.000118394
0.000113957
0.000109275
0.000104036
0.000102208
9.45974e-05
9.35525e-05
8.99427e-05
8.91167e-05
8.75827e-05
8.6487e-05
8.5262e-05
8.40852e-05
8.28936e-05
8.17096e-05
8.05267e-05
7.93492e-05
7.81786e-05
7.70297e-05
7.59809e-05
7.50315e-05
7.4077e-05
7.3131e-05
7.21921e-05
7.12613e-05
7.03388e-05
6.94252e-05
6.8521e-05
6.76265e-05
6.67422e-05
6.58681e-05
6.5005e-05
6.41529e-05
6.33127e-05
6.24841e-05
6.16675e-05
6.08627e-05
6.00798e-05
5.93794e-05
5.86891e-05
5.80059e-05
5.73345e-05
5.66832e-05
5.60392e-05
5.53974e-05
5.47637e-05
5.41395e-05
5.35258e-05
5.29221e-05
5.23288e-05
5.17454e-05
5.11727e-05
5.06099e-05
5.00575e-05
4.9515e-05
4.89826e-05
4.84598e-05
4.79467e-05
4.7443e-05
4.69485e-05
4.6463e-05
4.59868e-05
4.55198e-05
4.50622e-05
4.46137e-05
4.41746e-05
4.37452e-05
4.33258e-05
4.29167e-05
4.2518e-05
4.21303e-05
4.17542e-05
4.13898e-05
4.10375e-05
4.06972e-05
4.0369e-05
4.00522e-05
3.97461e-05
3.94496e-05
3.91611e-05
3.88785e-05
3.8598e-05
3.83193e-05
3.80238e-05
3.77432e-05
3.7334e-05
3.70608e-05
3.61737e-05
3.46603e-05
5.86141e-06
3.83512e-05
9.06792e-05
0.000151063
0.000190807
0.000214046
0.000224121
0.000223492
0.000216331
0.000201449
0.000182506
0.000163758
0.000152722
0.000155886
0.000168437
0.000177931
0.000180351
0.000180397
0.000183424
0.000191422
0.000204399
0.000219489
0.000237772
0.000253533
0.000264844
0.000274657
0.000282908
0.000293297
0.000312818
0.000326846
0.000339732
0.000350694
0.000360575
0.000369767
0.000377706
0.000384909
0.000391568
0.000397912
0.000404084
0.000410161
0.000416157
0.000422037
0.000427756
0.000433274
0.000438563
0.000443605
0.000448389
0.000452899
0.000457133
0.000461092
0.000464796
0.000468234
0.000471451
0.000474412
0.000477147
0.000479643
0.000481907
0.000483939
0.000485739
0.000487308
0.000488645
0.000489751
0.000490624
0.000491265
0.000491673
0.000491877
0.000491861
0.000491707
0.00049127
0.000490644
0.000489816
0.000488794
0.000487582
0.000486188
0.000484615
0.000482871
0.000480961
0.000478891
0.000476668
0.000474299
0.00047179
0.00046915
0.000466386
0.000463508
0.000460522
0.000457438
0.00045426
0.000450993
0.000447636
0.00044419
0.000440659
0.000437048
0.000433375
0.000429651
0.000425861
0.000422569
0.000417972
0.000414551
0.000410045
0.000406037
0.000401708
0.000397479
0.000393194
0.000388915
0.000384627
0.000380339
0.000376054
0.000371776
0.000367507
0.00036325
0.000359002
0.00035477
0.000350562
0.000346382
0.000342231
0.000338112
0.000334027
0.000329978
0.000325968
0.000321998
0.00031807
0.000314185
0.000310345
0.000306552
0.000302808
0.000299112
0.000295466
0.000291869
0.000288319
0.000284816
0.000281365
0.000277965
0.000274618
0.000271331
0.000268085
0.000264877
0.000261714
0.0002586
0.000255537
0.000252524
0.000249561
0.000246648
0.000243785
0.000240972
0.000238209
0.000235494
0.000232829
0.000230211
0.00022764
0.000225115
0.000222636
0.000220202
0.000217812
0.000215469
0.00021317
0.000210917
0.000208709
0.000206548
0.000204437
0.000202376
0.000200367
0.000198412
0.000196514
0.000194675
0.000192897
0.00019118
0.000189524
0.000187929
0.000186391
0.000184908
0.000183474
0.000182084
0.000180728
0.000179408
0.000178081
0.000176823
0.00017537
0.000174235
0.000172842
0.000170858
1.26747e-05
7.42696e-05
0.000174087
0.000252087
0.000304812
0.000335725
0.000347774
0.000345878
0.000334062
0.000315413
0.000295596
0.000281674
0.00027817
0.000283837
0.00029377
0.000304011
0.000315501
0.00033079
0.000350779
0.000374797
0.000401625
0.000429394
0.00046202
0.000508545
0.000553899
0.000597919
0.000640641
0.0006835
0.000724314
0.000757054
0.000783228
0.00080394
0.000820333
0.000833314
0.000843676
0.000852214
0.000859638
0.000866594
0.00087363
0.000881127
0.000889235
0.000897881
0.000906855
0.000915932
0.00092493
0.000933726
0.000942236
0.000950413
0.000958216
0.000965622
0.00097261
0.000979148
0.000985232
0.000990853
0.000996012
0.00100071
0.00100494
0.00100871
0.00101201
0.00101486
0.00101724
0.00101916
0.00102062
0.00102161
0.00102208
0.00102219
0.00102184
0.00102107
0.00101987
0.00101825
0.00101623
0.0010138
0.00101099
0.00100781
0.00100426
0.00100035
0.000996108
0.000991536
0.000986648
0.000981456
0.000975976
0.000970219
0.0009642
0.000957932
0.000951429
0.000944705
0.00093777
0.000930635
0.000923313
0.000915816
0.000908159
0.000900354
0.000892416
0.00088436
0.000876204
0.000868015
0.00085948
0.000851114
0.000842455
0.000833849
0.000825127
0.000816392
0.000807618
0.000798828
0.000790026
0.000781223
0.000772426
0.000763643
0.00075488
0.000746145
0.000737445
0.000728785
0.000720173
0.000711615
0.000703115
0.000694679
0.000686312
0.000678017
0.000669799
0.000661662
0.000653608
0.000645641
0.000637763
0.000629979
0.00062229
0.000614698
0.000607204
0.000599808
0.000592512
0.000585316
0.000578224
0.000571236
0.000564351
0.000557567
0.000550879
0.000544284
0.000537786
0.000531387
0.000525088
0.000518888
0.000512789
0.000506789
0.000500888
0.000495086
0.000489382
0.000483775
0.000478264
0.000472847
0.000467523
0.000462289
0.000457144
0.000452086
0.000447114
0.000442227
0.000437423
0.000432698
0.00042805
0.000423482
0.000418992
0.000414577
0.000410238
0.000405973
0.000401779
0.000397655
0.000393598
0.000389605
0.000385673
0.000381795
0.000377967
0.00037418
0.000370424
0.000366686
0.000362945
0.000359183
0.000355349
0.000351428
0.00034729
0.000342768
0.000338638
0.000326055
2.15226e-05
0.000105755
0.000219813
0.000313348
0.000377325
0.00041581
0.000432677
0.000433963
0.000424481
0.000410897
0.000401409
0.000399414
0.000407072
0.000423087
0.000444776
0.000471336
0.000503437
0.00054172
0.000585418
0.000639198
0.000711069
0.000789215
0.00087397
0.000947424
0.00101148
0.00106883
0.00112028
0.00116614
0.00120638
0.00124107
0.00127091
0.00129665
0.00131902
0.00133866
0.00135618
0.0013721
0.00138685
0.00140079
0.00141419
0.00142725
0.00144012
0.00145288
0.00146556
0.00147815
0.00149062
0.0015029
0.00151489
0.00152651
0.00153767
0.0015483
0.00155832
0.00156771
0.00157644
0.00158451
0.00159189
0.00159858
0.00160459
0.0016099
0.00161452
0.00161845
0.00162169
0.00162423
0.00162608
0.00162713
0.00162751
0.0016273
0.00162639
0.00162482
0.00162259
0.00161973
0.00161624
0.00161213
0.00160744
0.00160217
0.00159633
0.00158996
0.00158306
0.00157565
0.00156776
0.00155941
0.0015506
0.00154137
0.00153174
0.00152171
0.00151133
0.0015006
0.00148954
0.00147817
0.00146652
0.0014546
0.00144244
0.00143007
0.00141749
0.00140472
0.00139178
0.00137868
0.00136537
0.00135198
0.00133843
0.0013248
0.00131107
0.00129728
0.00128345
0.00126959
0.00125571
0.00124184
0.00122797
0.00121412
0.00120031
0.00118654
0.00117282
0.00115917
0.0011456
0.00113211
0.00111871
0.00110541
0.00109222
0.00107914
0.00106618
0.00105334
0.00104064
0.00102807
0.00101564
0.00100336
0.000991219
0.000979232
0.000967398
0.000955718
0.000944194
0.000932828
0.000921622
0.000910577
0.000899691
0.000888962
0.000878386
0.000867961
0.00085769
0.000847573
0.000837612
0.000827807
0.000818156
0.000808659
0.000799316
0.000790125
0.000781086
0.000772196
0.000763454
0.000754858
0.000746405
0.000738092
0.000729915
0.000721874
0.000713964
0.000706185
0.000698534
0.000691008
0.000683601
0.000676313
0.000669144
0.000662087
0.000655143
0.00064831
0.000641583
0.000634957
0.000628431
0.000621999
0.000615654
0.00060939
0.000603197
0.000597065
0.000590977
0.000584915
0.000578853
0.000572757
0.000566571
0.000560249
0.000553653
0.000546524
0.000540276
0.000523117
2.67708e-05
0.000121146
0.000239915
0.000357681
0.000437375
0.00048621
0.000511008
0.000519961
0.000521185
0.000521191
0.000526258
0.00054029
0.000564108
0.000596838
0.000637554
0.000686139
0.000742542
0.000822438
0.000914803
0.0010154
0.0011062
0.00119184
0.00127259
0.00134681
0.00141484
0.00147731
0.00153466
0.00158724
0.00163541
0.00167958
0.00172024
0.00175787
0.00179294
0.00182584
0.00185691
0.00188641
0.00191457
0.00194155
0.00196745
0.00199235
0.0020163
0.00203932
0.00206141
0.00208256
0.00210277
0.002122
0.00214024
0.00215745
0.00217362
0.00218872
0.00220274
0.00221569
0.00222756
0.00223838
0.00224815
0.0022569
0.00226465
0.0022714
0.00227716
0.00228196
0.00228581
0.00228872
0.00229064
0.00229149
0.00229153
0.00229063
0.00228882
0.00228611
0.00228251
0.00227805
0.00227273
0.00226659
0.00225964
0.00225191
0.00224342
0.0022342
0.00222427
0.00221365
0.00220237
0.00219046
0.00217795
0.00216486
0.00215121
0.00213704
0.00212238
0.00210724
0.00209166
0.00207567
0.00205928
0.00204254
0.00202547
0.00200811
0.00199047
0.00197257
0.00195444
0.00193608
0.00191752
0.00189877
0.00187987
0.00186083
0.00184169
0.00182246
0.00180318
0.00178386
0.00176451
0.00174517
0.00172584
0.00170655
0.00168731
0.00166812
0.00164902
0.00163001
0.0016111
0.00159231
0.00157365
0.00155513
0.00153675
0.00151854
0.00150048
0.00148261
0.00146491
0.0014474
0.00143009
0.00141297
0.00139605
0.00137935
0.00136285
0.00134657
0.0013305
0.00131465
0.00129902
0.00128362
0.00126843
0.00125345
0.00123869
0.00122415
0.00120982
0.0011957
0.00118179
0.0011681
0.00115462
0.00114135
0.00112829
0.00111544
0.0011028
0.00109036
0.00107812
0.00106608
0.00105423
0.00104258
0.00103111
0.00101982
0.00100872
0.000997786
0.000987031
0.000976446
0.000966027
0.000955771
0.000945674
0.000935727
0.000925931
0.000916283
0.000906777
0.000897407
0.000888169
0.000879059
0.000870067
0.000861183
0.000852399
0.000843699
0.000835065
0.000826476
0.000817901
0.000809299
0.000800611
0.000791779
0.000782649
0.000773052
0.000764236
0.000744266
3.05901e-05
0.00013455
0.000260479
0.000391759
0.000489661
0.000552725
0.000591382
0.000614938
0.000631927
0.000649691
0.00067369
0.000706886
0.000750202
0.00080394
0.000867911
0.000955612
0.00105886
0.00116183
0.00126223
0.00135963
0.00145191
0.00153928
0.00162181
0.00169943
0.0017724
0.00184104
0.00190571
0.00196674
0.00202448
0.00207925
0.00213138
0.00218119
0.00222894
0.00227486
0.00231912
0.00236187
0.00240321
0.00244322
0.00248193
0.00251938
0.00255556
0.00259047
0.00262409
0.0026564
0.00268737
0.00271696
0.00274515
0.00277189
0.00279716
0.00282093
0.00284318
0.00286388
0.00288302
0.00290059
0.00291658
0.00293101
0.00294386
0.00295515
0.00296488
0.00297308
0.00297975
0.00298493
0.00298865
0.00299081
0.00299156
0.00299099
0.00298904
0.0029858
0.00298129
0.00297555
0.00296864
0.00296058
0.00295143
0.00294123
0.00293002
0.00291784
0.00290472
0.00289071
0.00287585
0.00286017
0.00284371
0.00282651
0.00280859
0.00279001
0.0027708
0.00275098
0.0027306
0.00270969
0.00268829
0.00266643
0.00264416
0.00262152
0.00259854
0.00257523
0.00255163
0.00252774
0.00250361
0.00247925
0.00245471
0.00243
0.00240517
0.00238023
0.00235523
0.00233018
0.00230511
0.00228005
0.00225501
0.00223002
0.0022051
0.00218026
0.00215552
0.00213091
0.00210643
0.0020821
0.00205794
0.00203396
0.00201017
0.00198659
0.00196322
0.00194007
0.00191716
0.00189449
0.00187207
0.0018499
0.001828
0.00180636
0.00178499
0.00176389
0.00174307
0.00172253
0.00170227
0.00168229
0.00166259
0.00164317
0.00162402
0.00160515
0.00158655
0.00156822
0.00155017
0.00153239
0.00151488
0.00149763
0.00148065
0.00146394
0.00144749
0.00143129
0.00141535
0.00139966
0.00138422
0.00136901
0.00135404
0.0013393
0.00132479
0.0013105
0.00129643
0.00128257
0.00126893
0.00125549
0.00124225
0.0012292
0.00121635
0.00120369
0.0011912
0.00117888
0.00116673
0.00115475
0.00114291
0.00113121
0.00111964
0.00110818
0.00109682
0.00108552
0.00107426
0.00106299
0.00105166
0.00104019
0.00102842
0.00101633
0.00100454
0.000982663
3.21592e-05
0.000141793
0.000273023
0.000409062
0.000528326
0.000610804
0.000667532
0.000709357
0.000745432
0.00078311
0.000827645
0.000882223
0.000948051
0.00103724
0.00114231
0.00124946
0.00135632
0.00146094
0.00156241
0.00166024
0.00175401
0.0018437
0.00192938
0.00201121
0.00208942
0.00216426
0.00223602
0.00230497
0.00237137
0.00243547
0.00249748
0.0025576
0.002616
0.00267281
0.00272812
0.00278202
0.00283455
0.00288573
0.00293558
0.00298409
0.00303124
0.003077
0.00312135
0.00316424
0.00320564
0.00324549
0.00328375
0.00332038
0.00335534
0.00338858
0.00342007
0.00344977
0.00347766
0.0035037
0.00352787
0.00355015
0.00357054
0.00358901
0.00360557
0.00362021
0.00363293
0.00364375
0.00365267
0.00365971
0.0036649
0.00366824
0.00366967
0.00366946
0.00366747
0.00366379
0.00365845
0.00365151
0.003643
0.00363299
0.00362151
0.00360862
0.00359439
0.00357885
0.00356207
0.0035441
0.00352501
0.00350485
0.00348367
0.00346155
0.00343853
0.00341468
0.00339004
0.00336468
0.00333863
0.00331197
0.00328475
0.00325703
0.00322886
0.00320025
0.00317125
0.00314189
0.00311221
0.00308225
0.00305204
0.00302163
0.00299106
0.00296036
0.00292956
0.00289871
0.00286784
0.00283696
0.00280611
0.00277532
0.00274461
0.002714
0.00268351
0.00265317
0.002623
0.00259301
0.00256323
0.00253366
0.00250433
0.00247525
0.00244643
0.00241788
0.00238962
0.00236165
0.00233398
0.00230662
0.00227958
0.00225286
0.00222648
0.00220042
0.0021747
0.00214931
0.00212427
0.00209957
0.0020752
0.00205117
0.00202748
0.00200412
0.0019811
0.0019584
0.00193604
0.00191401
0.00189229
0.00187091
0.00184984
0.0018291
0.00180866
0.00178854
0.00176873
0.00174921
0.00173
0.00171107
0.00169242
0.00167406
0.00165596
0.00163814
0.00162058
0.00160328
0.00158624
0.00156944
0.00155289
0.00153658
0.0015205
0.00150465
0.00148902
0.0014736
0.00145839
0.00144338
0.00142855
0.00141389
0.0013994
0.00138504
0.00137081
0.00135668
0.0013426
0.00132855
0.00131444
0.00130022
0.00128573
0.00127101
0.00125615
0.00123239
3.26643e-05
0.000143712
0.000275038
0.000409689
0.000540673
0.000645085
0.000722631
0.000783865
0.000838757
0.000894968
0.000958836
0.00104754
0.00115452
0.00127558
0.00139163
0.00150385
0.00161282
0.00171869
0.00182128
0.00192047
0.00201621
0.00210853
0.00219758
0.00228352
0.00236655
0.00244691
0.00252481
0.00260048
0.00267411
0.00274587
0.00281593
0.00288442
0.00295143
0.00301706
0.00308135
0.00314435
0.00320606
0.00326648
0.0033256
0.00338339
0.00343982
0.00349484
0.00354841
0.00360047
0.00365097
0.00369985
0.00374706
0.00379254
0.00383624
0.00387811
0.00391809
0.00395615
0.00399224
0.00402632
0.00405835
0.00408832
0.00411619
0.00414194
0.00416556
0.00418703
0.00420634
0.0042235
0.00423851
0.00425136
0.00426209
0.00427069
0.00427718
0.00428165
0.00428396
0.00428433
0.0042827
0.00427914
0.00427368
0.00426638
0.00425726
0.0042464
0.00423383
0.00421961
0.0042038
0.00418645
0.00416763
0.00414739
0.0041258
0.00410292
0.00407882
0.00405355
0.0040272
0.0039998
0.00397144
0.00394218
0.00391209
0.00388124
0.00384968
0.00381747
0.00378465
0.00375127
0.00371739
0.00368306
0.00364834
0.00361327
0.00357791
0.00354231
0.00350652
0.00347059
0.00343455
0.00339844
0.00336231
0.00332619
0.00329011
0.00325411
0.00321821
0.00318245
0.00314686
0.00311145
0.00307625
0.00304129
0.00300658
0.00297214
0.00293799
0.00290414
0.00287062
0.00283742
0.00280456
0.00277206
0.00273992
0.00270814
0.00267675
0.00264573
0.0026151
0.00258486
0.00255501
0.00252555
0.00249648
0.00246781
0.00243953
0.00241163
0.00238413
0.002357
0.00233027
0.00230391
0.00227793
0.00225233
0.00222711
0.00220225
0.00217777
0.00215364
0.00212987
0.00210646
0.00208338
0.00206065
0.00203825
0.00201618
0.00199443
0.00197299
0.00195187
0.00193105
0.00191054
0.00189031
0.00187038
0.00185073
0.00183135
0.00181224
0.0017934
0.00177481
0.00175647
0.00173837
0.0017205
0.00170283
0.00168537
0.00166807
0.00165093
0.00163392
0.00161699
0.00160009
0.00158317
0.00156616
0.0015489
0.00153145
0.00151361
0.00148767
3.21522e-05
0.000141076
0.000269234
0.000399289
0.000524581
0.00063856
0.000733528
0.000813967
0.000892612
0.000984979
0.00109136
0.00121411
0.00134965
0.00147813
0.00159959
0.00171586
0.00182788
0.00193597
0.00204042
0.00214154
0.00223951
0.00233451
0.00242672
0.00251633
0.00260355
0.00268856
0.00277157
0.00285275
0.00293226
0.00301024
0.0030868
0.00316205
0.00323604
0.00330883
0.00338044
0.00345088
0.00352014
0.00358821
0.00365504
0.00372059
0.00378481
0.00384764
0.00390902
0.00396888
0.00402716
0.0040838
0.00413871
0.00419184
0.00424312
0.0042925
0.0043399
0.00438528
0.00442859
0.00446978
0.00450881
0.00454564
0.00458023
0.00461256
0.0046426
0.00467034
0.00469577
0.00471886
0.00473963
0.00475807
0.00477419
0.00478799
0.0047995
0.00480873
0.0048157
0.00482047
0.00482297
0.00482335
0.0048216
0.00481777
0.0048119
0.00480404
0.00479423
0.00478252
0.00476897
0.00475363
0.00473656
0.00471782
0.00469746
0.00467556
0.00465217
0.00462737
0.0046012
0.00457375
0.00454508
0.00451526
0.00448435
0.00445243
0.00441957
0.00438581
0.00435123
0.00431587
0.0042798
0.00424307
0.00420576
0.00416791
0.00412959
0.00409086
0.00405178
0.0040124
0.00397278
0.00393296
0.00389299
0.00385292
0.00381279
0.00377265
0.00373253
0.00369247
0.00365251
0.00361268
0.00357302
0.00353355
0.00349429
0.00345529
0.00341655
0.0033781
0.00333996
0.00330215
0.00326468
0.00322758
0.00319084
0.00315449
0.00311853
0.00308298
0.00304783
0.0030131
0.0029788
0.00294492
0.00291146
0.00287843
0.00284583
0.00281366
0.00278192
0.0027506
0.00271971
0.00268924
0.0026592
0.00262957
0.00260037
0.00257157
0.00254319
0.00251521
0.00248764
0.00246046
0.00243367
0.00240726
0.00238123
0.00235558
0.00233028
0.00230535
0.00228077
0.00225655
0.00223266
0.00220911
0.00218589
0.00216299
0.00214041
0.00211815
0.00209618
0.00207451
0.00205313
0.00203203
0.00201119
0.00199059
0.00197024
0.00195009
0.00193014
0.00191033
0.00189064
0.001871
0.00185135
0.00183162
0.00181168
0.00179156
0.00177092
0.0017426
3.08431e-05
0.000135203
0.000258615
0.000384589
0.00050735
0.00062408
0.000734617
0.000842041
0.000954567
0.00107793
0.00121405
0.00136219
0.00150656
0.00164037
0.00176624
0.00188617
0.00200132
0.00211234
0.0022196
0.0023233
0.0024238
0.00252148
0.00261662
0.00270946
0.00280024
0.00288914
0.00297635
0.00306204
0.00314634
0.00322938
0.00331124
0.00339199
0.00347169
0.00355035
0.00362799
0.0037046
0.00378014
0.00385459
0.00392788
0.00399997
0.00407078
0.00414024
0.00420827
0.0042748
0.00433975
0.00440304
0.00446459
0.00452433
0.00458217
0.00463805
0.00469191
0.00474367
0.00479328
0.00484069
0.00488585
0.0049287
0.00496922
0.00500737
0.00504312
0.00507644
0.00510733
0.00513576
0.00516173
0.00518524
0.00520628
0.00522487
0.00524102
0.00525474
0.00526605
0.00527498
0.00528154
0.00528579
0.00528771
0.00528741
0.0052849
0.00528022
0.00527341
0.00526453
0.00525362
0.00524074
0.00522594
0.00520928
0.00519081
0.00517061
0.00514872
0.00512522
0.00510018
0.00507364
0.00504569
0.00501639
0.00498581
0.00495402
0.00492109
0.00488707
0.00485203
0.00481604
0.00477914
0.00474142
0.00470293
0.00466374
0.00462392
0.00458352
0.00454261
0.00450124
0.00445949
0.00441739
0.00437502
0.00433241
0.00428963
0.00424671
0.00420372
0.00416068
0.00411765
0.00407466
0.00403175
0.00398897
0.00394633
0.00390388
0.00386164
0.00381965
0.00377792
0.00373648
0.00369536
0.00365456
0.00361412
0.00357404
0.00353435
0.00349505
0.00345615
0.00341767
0.00337961
0.00334199
0.0033048
0.00326804
0.00323173
0.00319587
0.00316045
0.00312548
0.00309096
0.00305688
0.00302325
0.00299007
0.00295733
0.00292504
0.00289318
0.00286176
0.00283077
0.00280021
0.00277007
0.00274035
0.00271104
0.00268213
0.00265362
0.0026255
0.00259778
0.00257044
0.00254347
0.00251687
0.00249064
0.00246477
0.00243925
0.00241408
0.00238924
0.00236473
0.00234054
0.00231667
0.00229309
0.00226979
0.00224676
0.00222398
0.00220141
0.00217902
0.00215678
0.00213462
0.00211248
0.00209026
0.00206786
0.00204529
0.00202218
0.00199153
2.93045e-05
0.000128898
0.000248646
0.000373242
0.000498114
0.000621915
0.000745744
0.000874006
0.00100932
0.00115464
0.00131001
0.00147373
0.00162414
0.00176279
0.00189278
0.00201624
0.00213448
0.00224837
0.00235844
0.00246507
0.00256855
0.00266906
0.00276703
0.00286282
0.0029567
0.00304891
0.00313965
0.00322909
0.00331735
0.00340456
0.00349079
0.00357611
0.00366054
0.0037441
0.00382678
0.00390856
0.0039894
0.00406924
0.00414802
0.00422566
0.00430209
0.00437722
0.00445097
0.00452324
0.00459394
0.00466298
0.00473028
0.00479574
0.00485929
0.00492084
0.00498032
0.00503767
0.0050928
0.00514567
0.00519621
0.00524438
0.00529014
0.00533344
0.00537426
0.00541256
0.00544832
0.00548153
0.00551218
0.00554026
0.00556577
0.00558872
0.00560911
0.00562696
0.00564228
0.0056551
0.00566544
0.00567332
0.00567879
0.00568187
0.00568262
0.00568106
0.00567725
0.00567123
0.00566304
0.00565273
0.00564036
0.00562598
0.00560965
0.00559143
0.00557139
0.00554958
0.00552608
0.00550093
0.00547422
0.005446
0.00541635
0.00538533
0.00535301
0.00531945
0.00528472
0.00524889
0.00521201
0.00517415
0.00513539
0.00509578
0.00505539
0.00501429
0.00497255
0.00493022
0.00488736
0.00484404
0.00480032
0.00475625
0.00471189
0.00466728
0.00462248
0.00457755
0.00453252
0.00448745
0.00444236
0.00439732
0.00435235
0.00430749
0.00426278
0.00421825
0.00417392
0.00412983
0.004086
0.00404247
0.00399924
0.00395634
0.00391379
0.0038716
0.0038298
0.00378839
0.00374739
0.0037068
0.00366663
0.0036269
0.00358761
0.00354875
0.00351035
0.00347239
0.00343489
0.00339783
0.00336124
0.0033251
0.00328941
0.00325418
0.0032194
0.00318508
0.0031512
0.00311776
0.00308477
0.00305221
0.00302008
0.00298837
0.00295709
0.00292623
0.00289577
0.00286572
0.00283608
0.00280682
0.00277796
0.00274948
0.00272138
0.00269365
0.00266628
0.00263927
0.00261261
0.00258628
0.00256028
0.00253458
0.00250918
0.00248405
0.00245917
0.00243449
0.00240998
0.00238559
0.00236124
0.00233686
0.00231234
0.00228763
0.00226243
0.00222982
2.7638e-05
0.000122334
0.000238599
0.000362388
0.00048991
0.000620386
0.000755823
0.000898102
0.00104932
0.00120996
0.00138055
0.00154966
0.0017044
0.00184717
0.00198088
0.00210762
0.0022288
0.00234538
0.00245803
0.00256726
0.00267345
0.00277688
0.00287783
0.00297647
0.00307323
0.00316841
0.00326223
0.0033549
0.00344655
0.00353732
0.00362726
0.00371645
0.0038049
0.00389263
0.00397961
0.0040658
0.00415116
0.00423562
0.00431911
0.00440154
0.00448281
0.00456284
0.00464152
0.00471875
0.00479444
0.00486848
0.00494077
0.00501123
0.00507975
0.00514626
0.00521067
0.0052729
0.00533289
0.00539056
0.00544586
0.00549873
0.00554913
0.00559701
0.00564233
0.00568508
0.00572521
0.00576272
0.00579759
0.00582981
0.00585938
0.00588631
0.00591059
0.00593224
0.00595128
0.00596772
0.00598159
0.00599292
0.00600172
0.00600805
0.00601193
0.0060134
0.00601252
0.00600933
0.00600385
0.00599615
0.00598626
0.00597426
0.00596019
0.00594412
0.0059261
0.00590619
0.00588447
0.00586099
0.00583582
0.00580902
0.00578067
0.00575082
0.00571954
0.00568691
0.00565298
0.00561782
0.0055815
0.00554408
0.00550563
0.00546622
0.00542592
0.00538479
0.0053429
0.00530031
0.00525708
0.00521329
0.00516898
0.00512422
0.00507907
0.00503357
0.0049878
0.00494178
0.00489559
0.00484926
0.00480284
0.00475638
0.00470992
0.0046635
0.00461715
0.00457091
0.00452482
0.00447891
0.00443321
0.00438774
0.00434253
0.00429761
0.004253
0.00420871
0.00416477