/*--------------------------------*- C++ -*----------------------------------*\
  =========                 |
  \\      /  F ield         | OpenFOAM: The Open Source CFD Toolbox
   \\    /   O peration     | Website:  https://openfoam.org
    \\  /    A nd           | Version:  8
     \\/     M anipulation  |
\*---------------------------------------------------------------------------*/
FoamFile
{
    version     2.0;
    format      ascii;
    class       volVectorField;
    location    "1900";
    object      U;
}
// * * * * * * * * * * * * * * * * * * * * * * * * * * * * * * * * * * * * * //

dimensions      [0 1 -1 0 0 0 0];

internalField   nonuniform List<vector> 
12225
(
(9.2745 -4.73371 0)
(13.1094 -1.71343 0)
(12.4778 -0.395198 0)
(11.2771 -0.0422043 0)
(10.6314 0.0141381 0)
(10.2979 -9.43426e-05 0)
(10.0776 -0.0165238 0)
(9.91229 -0.00288937 0)
(9.77911 0.0348731 0)
(9.66233 0.0428913 0)
(9.55577 0.0248818 0)
(9.45771 0.00214049 0)
(9.36682 -0.0227956 0)
(9.2822 -0.0302316 0)
(9.20245 -0.0217949 0)
(9.1327 -0.0212471 0)
(9.07046 -0.0210636 0)
(9.08982 -0.0277901 0)
(10.2592 0.0928019 0)
(10.7814 0.199339 0)
(10.9594 0.245656 0)
(10.7469 0.229143 0)
(10.5875 0.172968 0)
(10.4527 0.115534 0)
(10.33 0.0823304 0)
(10.2327 0.0647279 0)
(10.155 0.0524731 0)
(10.0894 0.0472288 0)
(10.0324 0.0469865 0)
(9.98216 0.0489823 0)
(9.9379 0.0517869 0)
(9.89839 0.0519266 0)
(9.86158 0.0483002 0)
(9.82894 0.0437994 0)
(9.7944 0.0300211 0)
(9.76843 0.0101363 0)
(9.87768 -0.24504 0)
(9.74285 0.00579099 0)
(10.1971 0.125743 0)
(10.3245 0.179364 0)
(10.3564 0.161547 0)
(10.3311 0.120076 0)
(10.2777 0.0904921 0)
(10.2252 0.0746626 0)
(10.1813 0.0658705 0)
(10.1438 0.0600226 0)
(10.1103 0.0562003 0)
(10.08 0.0536402 0)
(10.052 0.0511213 0)
(10.0261 0.04874 0)
(10.0023 0.0460422 0)
(9.98127 0.0417138 0)
(9.95926 0.0315855 0)
(9.93471 0.0134171 0)
(9.83416 -0.443933 0)
(9.57654 -0.163147 0)
(9.91603 0.0336702 0)
(10.0933 0.134224 0)
(10.1892 0.145472 0)
(10.2168 0.120736 0)
(10.205 0.0978923 0)
(10.1825 0.0839052 0)
(10.1599 0.0756236 0)
(10.1389 0.0697043 0)
(10.1191 0.0651238 0)
(10.1002 0.0616231 0)
(10.0821 0.058593 0)
(10.0648 0.0562001 0)
(10.0484 0.0538122 0)
(10.0326 0.05008 0)
(10.0149 0.0423217 0)
(9.99187 0.0304604 0)
(9.87825 -0.387476 0)
(9.61653 -0.196147 0)
(9.81623 -0.0186707 0)
(9.96136 0.0916119 0)
(10.0698 0.122195 0)
(10.1219 0.113625 0)
(10.1354 0.0992604 0)
(10.1332 0.0884156 0)
(10.1257 0.0809411 0)
(10.1162 0.0753867 0)
(10.1056 0.0711108 0)
(10.0946 0.0678637 0)
(10.0833 0.065229 0)
(10.0718 0.0631212 0)
(10.0601 0.0609946 0)
(10.0478 0.0580347 0)
(10.0329 0.05298 0)
(10.0125 0.0467601 0)
(9.91439 -0.28804 0)
(9.68304 -0.185176 0)
(9.78717 -0.0532082 0)
(9.88917 0.0509979 0)
(9.98796 0.0936778 0)
(10.0476 0.0992006 0)
(10.0751 0.0938695 0)
(10.0861 0.0875115 0)
(10.0892 0.0821116 0)
(10.0879 0.0777526 0)
(10.0842 0.0743348 0)
(10.079 0.0717384 0)
(10.0726 0.0697123 0)
(10.0654 0.0681316 0)
(10.0572 0.0666705 0)
(10.0476 0.0649676 0)
(10.0354 0.0626819 0)
(10.0185 0.0610371 0)
(9.93763 -0.214041 0)
(9.74856 -0.167536 0)
(9.79244 -0.0752163 0)
(9.85609 0.0162189 0)
(9.93595 0.0644193 0)
(9.99282 0.0805913 0)
(10.0261 0.0835556 0)
(10.0447 0.0822357 0)
(10.0546 0.0797689 0)
(10.0593 0.0772735 0)
(10.0606 0.0751573 0)
(10.0596 0.0735342 0)
(10.0571 0.0723561 0)
(10.0531 0.0715911 0)
(10.0477 0.0711322 0)
(10.0407 0.070939 0)
(10.0312 0.0711794 0)
(10.0183 0.0730285 0)
(9.95263 -0.167334 0)
(9.79947 -0.149677 0)
(9.81177 -0.0846424 0)
(9.84959 -0.0062122 0)
(9.91141 0.0419289 0)
(9.96107 0.0638926 0)
(9.99432 0.0725435 0)
(10.0156 0.0752773 0)
(10.0289 0.0755181 0)
(10.0367 0.0748878 0)
(10.041 0.0741272 0)
(10.0427 0.0735546 0)
(10.0426 0.0732875 0)
(10.0408 0.0734021 0)
(10.0375 0.0739457 0)
(10.0325 0.0750596 0)
(10.0254 0.0771089 0)
(10.0157 0.0810882 0)
(9.96406 -0.132089 0)
(9.84003 -0.131989 0)
(9.83337 -0.0876911 0)
(9.85306 -0.0213348 0)
(9.89927 0.0244122 0)
(9.94103 0.049508 0)
(9.97207 0.0621163 0)
(9.99386 0.0680671 0)
(10.0087 0.0706831 0)
(10.0184 0.0717776 0)
(10.0246 0.0722954 0)
(10.0282 0.0727247 0)
(10.0298 0.0733231 0)
(10.0297 0.0742712 0)
(10.028 0.0757265 0)
(10.0248 0.0779323 0)
(10.0197 0.081319 0)
(10.0129 0.0866989 0)
(9.97418 -0.100205 0)
(9.87757 -0.11239 0)
(9.85857 -0.0853676 0)
(9.86387 -0.0323352 0)
(9.89487 0.00892517 0)
(9.92743 0.0352185 0)
(9.95439 0.0507094 0)
(9.97503 0.0594865 0)
(9.99015 0.0644302 0)
(10.001 0.0673412 0)
(10.0085 0.0692745 0)
(10.0135 0.0708476 0)
(10.0166 0.072438 0)
(10.018 0.0743207 0)
(10.018 0.0767417 0)
(10.0165 0.080003 0)
(10.0136 0.0845306 0)
(10.0095 0.0909417 0)
(9.98253 -0.0727093 0)
(9.91035 -0.092197 0)
(9.88507 -0.0782458 0)
(9.88002 -0.0386101 0)
(9.89746 -0.00337801 0)
(9.92043 0.022163 0)
(9.94196 0.0391761 0)
(9.96 0.0500699 0)
(9.97426 0.0570415 0)
(9.98519 0.0616859 0)
(9.9934 0.065055 0)
(9.99942 0.0678323 0)
(10.0037 0.0704774 0)
(10.0064 0.0733363 0)
(10.0078 0.0767111 0)
(10.0081 0.0809218 0)
(10.0073 0.0863424 0)
(10.0058 0.0934097 0)
(9.98894 -0.0502568 0)
(9.93733 -0.072379 0)
(9.91073 -0.0674498 0)
(9.89917 -0.0399856 0)
(9.90566 -0.0116541 0)
(9.91955 0.0114459 0)
(9.93497 0.0285219 0)
(9.94934 0.0405687 0)
(9.9617 0.0490091 0)
(9.97189 0.0550918 0)
(9.98009 0.0597546 0)
(9.98659 0.0636714 0)
(9.99164 0.0673325 0)
(9.99545 0.0711172 0)
(9.9982 0.0753469 0)
(10.0001 0.0803243 0)
(10.0013 0.0863501 0)
(10.0021 0.093708 0)
(9.99348 -0.0329088 0)
(9.9582 -0.0538119 0)
(9.93368 -0.0542853 0)
(9.91898 -0.0367903 0)
(9.91755 -0.015458 0)
(9.92366 0.00398833 0)
(9.93301 0.0197665 0)
(9.94318 0.0318646 0)
(9.9529 0.0409949 0)
(9.96163 0.0480004 0)
(9.96922 0.0536221 0)
(9.9757 0.0584524 0)
(9.98118 0.0629545 0)
(9.98578 0.067496 0)
(9.98964 0.072381 0)
(9.99293 0.0778696 0)
(9.99586 0.0841841 0)
(9.99868 0.0914959 0)
(9.99643 -0.0202027 0)
(9.97327 -0.0372108 0)
(9.95261 -0.0400473 0)
(9.93731 -0.0298138 0)
(9.9309 -0.0148283 0)
(9.93102 0.000359791 0)
(9.93504 0.013765 0)
(9.94105 0.0248305 0)
(9.94782 0.033743 0)
(9.95465 0.0409711 0)
(9.96117 0.0470248 0)
(9.96724 0.0523644 0)
(9.9728 0.0573752 0)
(9.9779 0.0623722 0)
(9.9826 0.0676097 0)
(9.98703 0.0732901 0)
(9.99134 0.0795644 0)
(9.99571 0.0865261 0)
(9.99816 -0.0112879 0)
(9.9833 -0.0229316 0)
(9.96682 -0.0257646 0)
(9.95243 -0.0200799 0)
(9.94344 -0.0102465 0)
(9.93952 0.000668214 0)
(9.9394 0.0110208 0)
(9.94183 0.0201317 0)
(9.94582 0.0279095 0)
(9.95069 0.0345522 0)
(9.95597 0.0403615 0)
(9.96139 0.0456472 0)
(9.9668 0.0506875 0)
(9.97215 0.0557145 0)
(9.97743 0.0609123 0)
(9.98268 0.0664176 0)
(9.98801 0.07232 0)
(9.99351 0.0786601 0)
(9.99906 -0.00508111 0)
(9.98922 -0.0107818 0)
(9.97612 -0.0119187 0)
(9.96309 -0.0084858 0)
(9.9531 -0.00243924 0)
(9.94685 0.00457215 0)
(9.94399 0.0115486 0)
(9.94384 0.018009 0)
(9.94569 0.023824 0)
(9.94896 0.0290622 0)
(9.95317 0.033879 0)
(9.95799 0.0384513 0)
(9.9632 0.0429438 0)
(9.96867 0.0474939 0)
(9.97434 0.052206 0)
(9.98018 0.05715 0)
(9.98621 0.0623612 0)
(9.99247 0.0678421 0)
(9.99942 -0.00036749 0)
(9.9918 0.000150901 0)
(9.98042 0.00183063 0)
(9.96821 0.00459095 0)
(9.9579 0.00791599 0)
(9.9506 0.0113958 0)
(9.94642 0.0148088 0)
(9.94498 0.0180781 0)
(9.94576 0.0212206 0)
(9.94824 0.0243023 0)
(9.95198 0.0274045 0)
(9.9566 0.0306045 0)
(9.96185 0.0339646 0)
(9.96756 0.0375289 0)
(9.9736 0.0413213 0)
(9.97991 0.0453467 0)
(9.98646 0.0495909 0)
(9.99323 0.0540242 0)
(9.99935 0.00408457 0)
(9.9911 0.0111725 0)
(9.97897 0.0161319 0)
(9.96616 0.0187344 0)
(9.95552 0.0196094 0)
(9.94818 0.0195415 0)
(9.94419 0.019153 0)
(9.94311 0.0188536 0)
(9.94437 0.0188842 0)
(9.94741 0.0193617 0)
(9.95173 0.020327 0)
(9.95698 0.0217748 0)
(9.96286 0.0236746 0)
(9.96918 0.0259814 0)
(9.97581 0.028644 0)
(9.98268 0.0316057 0)
(9.98972 0.0348085 0)
(9.99689 0.0381919 0)
(9.99882 0.00972957 0)
(9.98675 0.0240482 0)
(9.97122 0.0318454 0)
(9.95641 0.0332919 0)
(9.94558 0.0307014 0)
(9.93942 0.0263462 0)
(9.93734 0.021742 0)
(9.93845 0.0177316 0)
(9.94186 0.0146853 0)
(9.94686 0.0126988 0)
(9.95291 0.0117165 0)
(9.95962 0.0116194 0)
(9.96673 0.0122686 0)
(9.97407 0.0135284 0)
(9.98153 0.0152739 0)
(9.98907 0.0173952 0)
(9.99663 0.0197958 0)
(10.0042 0.0223915 0)
(9.99757 0.0182098 0)
(9.97773 0.0404548 0)
(9.95664 0.0495766 0)
(9.93945 0.0474773 0)
(9.92961 0.0394215 0)
(9.92658 0.0296437 0)
(9.92848 0.0204856 0)
(9.93356 0.0129606 0)
(9.94054 0.00734057 0)
(9.94855 0.0035077 0)
(9.95703 0.00121051 0)
(9.96567 0.00015964 0)
(9.97427 9.14764e-05 0)
(9.98275 0.00077318 0)
(9.99107 0.00201796 0)
(9.99923 0.00367317 0)
(10.0072 0.00561649 0)
(10.0151 0.00774978 0)
(9.99502 0.0318144 0)
(9.96177 0.0621333 0)
(9.93371 0.0695507 0)
(9.91534 0.0601137 0)
(9.90932 0.0439488 0)
(9.91249 0.027657 0)
(9.92084 0.0139895 0)
(9.93162 0.0036334 0)
(9.94322 -0.0036494 0)
(9.95479 -0.00838312 0)
(9.96594 -0.0111414 0)
(9.97651 -0.0124067 0)
(9.9865 -0.0125844 0)
(9.99594 -0.0119742 0)
(10.0049 -0.0108121 0)
(10.0135 -0.00927096 0)
(10.0217 -0.00748145 0)
(10.0296 -0.00554294 0)
(9.99018 0.0534617 0)
(9.93561 0.0901516 0)
(9.90098 0.0906271 0)
(9.88514 0.0687556 0)
(9.8878 0.0418169 0)
(9.90121 0.0186555 0)
(9.91855 0.00141305 0)
(9.93626 -0.0104017 0)
(9.95284 -0.0179477 0)
(9.96785 -0.0224015 0)
(9.98128 -0.0246587 0)
(9.99331 -0.025401 0)
(10.0042 -0.025107 0)
(10.0141 -0.0241315 0)
(10.0232 -0.0227121 0)
(10.0318 -0.0210168 0)
(10.0399 -0.0191628 0)
(10.0475 -0.0172306 0)
(9.9819 0.086247 0)
(9.89548 0.124257 0)
(9.85817 0.109883 0)
(9.85209 0.0697728 0)
(9.87033 0.0303362 0)
(9.89842 0.00144608 0)
(9.92657 -0.0172082 0)
(9.95134 -0.0283255 0)
(9.97219 -0.0344258 0)
(9.98959 -0.0373367 0)
(10.0042 -0.0382144 0)
(10.0167 -0.0378102 0)
(10.0276 -0.0366282 0)
(10.0372 -0.0349911 0)
(10.0459 -0.0331016 0)
(10.0539 -0.0310988 0)
(10.0613 -0.0290592 0)
(10.0684 -0.0270456 0)
(9.96925 0.133989 0)
(9.83823 0.163088 0)
(9.80793 0.12259 0)
(9.82311 0.058799 0)
(9.86512 0.00730666 0)
(9.91138 -0.0240288 0)
(9.95034 -0.0405937 0)
(9.98048 -0.0483751 0)
(10.0034 -0.0512401 0)
(10.0212 -0.051543 0)
(10.0353 -0.0504223 0)
(10.0469 -0.0485208 0)
(10.0565 -0.0462699 0)
(10.0649 -0.04387 0)
(10.0723 -0.0414475 0)
(10.079 -0.0390927 0)
(10.0852 -0.036856 0)
(10.0911 -0.0347485 0)
(9.94951 0.20714 0)
(9.76128 0.207022 0)
(9.75726 0.123477 0)
(9.81042 0.0320103 0)
(9.88381 -0.0278622 0)
(9.94873 -0.0559966 0)
(9.99526 -0.0660751 0)
(10.0266 -0.0678042 0)
(10.048 -0.065976 0)
(10.063 -0.0631962 0)
(10.0743 -0.0598887 0)
(10.083 -0.0565029 0)
(10.09 -0.0531658 0)
(10.0959 -0.0501355 0)
(10.101 -0.047293 0)
(10.1057 -0.044685 0)
(10.11 -0.042325 0)
(10.1142 -0.0401835 0)
(9.91094 0.322718 0)
(9.65922 0.254544 0)
(9.71887 0.107406 0)
(9.83329 -0.0119237 0)
(9.94173 -0.0726535 0)
(10.0199 -0.090164 0)
(10.0662 -0.0893241 0)
(10.0917 -0.0831407 0)
(10.1058 -0.076042 0)
(10.1141 -0.0696206 0)
(10.1197 -0.0644981 0)
(10.1235 -0.0600871 0)
(10.1262 -0.0564089 0)
(10.1281 -0.0532136 0)
(10.1298 -0.0501801 0)
(10.1314 -0.0476408 0)
(10.1329 -0.045545 0)
(10.1345 -0.0434727 0)
(9.84404 0.43511 0)
(9.53798 0.261026 0)
(9.7269 0.0591346 0)
(9.92367 -0.0731159 0)
(10.0584 -0.121553 0)
(10.1344 -0.120193 0)
(10.1664 -0.105282 0)
(10.1758 -0.0906199 0)
(10.1759 -0.0784865 0)
(10.1725 -0.0703815 0)
(10.1686 -0.0644354 0)
(10.1646 -0.05977 0)
(10.1605 -0.0556959 0)
(10.1569 -0.0524307 0)
(10.1536 -0.0496347 0)
(10.1504 -0.0474616 0)
(10.1479 -0.0458978 0)
(10.1461 -0.0442758 0)
(9.83598 0.319666 0)
(9.55021 0.0912512 0)
(9.91739 -0.0687256 0)
(10.1507 -0.160112 0)
(10.2634 -0.172136 0)
(10.3032 -0.142727 0)
(10.2978 -0.112096 0)
(10.276 -0.0899573 0)
(10.2516 -0.0753925 0)
(10.2302 -0.0674598 0)
(10.2132 -0.0619311 0)
(10.1983 -0.0574465 0)
(10.1844 -0.0528899 0)
(10.1713 -0.0486374 0)
(10.1597 -0.0448588 0)
(10.1496 -0.0425505 0)
(10.1407 -0.0409455 0)
(10.1325 -0.0390931 0)
(10.2049 -0.0633775 0)
(10.4095 -0.191706 0)
(10.7164 -0.282558 0)
(10.6879 -0.282287 0)
(10.6191 -0.230103 0)
(10.5417 -0.163668 0)
(10.4545 -0.117045 0)
(10.3763 -0.0925016 0)
(10.3136 -0.0798747 0)
(10.2653 -0.0678635 0)
(10.2262 -0.0588618 0)
(10.1916 -0.0543017 0)
(10.1603 -0.0534899 0)
(10.1322 -0.0530895 0)
(10.107 -0.0522579 0)
(10.0851 -0.0483496 0)
(10.0633 -0.0443082 0)
(10.0448 -0.0438598 0)
(9.41631 4.45107 0)
(12.7294 2.07612 0)
(12.5649 0.621212 0)
(11.569 0.127657 0)
(10.9309 0.00343405 0)
(10.5866 -0.00206862 0)
(10.3638 0.0123088 0)
(10.2021 0.0302319 0)
(10.0795 0.0411885 0)
(9.97727 0.0358286 0)
(9.88476 0.0250299 0)
(9.79907 0.0218937 0)
(9.72265 0.0249833 0)
(9.6561 0.022806 0)
(9.59972 0.0197767 0)
(9.54571 0.0110979 0)
(9.49676 -0.0138147 0)
(9.4506 -0.0187991 0)
(-0.0276591 0.0935889 0)
(0.136922 -0.183501 0)
(0.324892 -0.305984 0)
(0.525438 -0.315257 0)
(0.703027 -0.27223 0)
(0.833706 -0.21124 0)
(0.910151 -0.14649 -8.59883e-20)
(0.940834 -0.0826267 8.6603e-20)
(0.920071 -0.0202837 0)
(0.859453 0.0344699 9.18128e-20)
(0.772304 0.0739637 0)
(0.67298 0.0920926 0)
(0.578923 0.0878724 0)
(0.505973 0.0668204 -1.4315e-19)
(0.45598 0.0378029 0)
(0.412768 0.00991411 0)
(0.353518 -0.00929595 1.87787e-19)
(0.263677 -0.009419 0)
(0.136406 0.0281188 0)
(-0.042557 0.112182 0)
(-0.298809 0.186213 -1.65603e-19)
(-0.592429 0.235182 0)
(-0.913749 0.266857 -7.63593e-20)
(-1.25016 0.29593 0)
(-1.58964 0.323614 0)
(-1.92945 0.336502 -4.13428e-20)
(-2.262 0.335681 0)
(-2.57923 0.32659 3.4548e-20)
(-2.87814 0.31047 0)
(-3.15528 0.289677 -3.13439e-20)
(-3.40976 0.26654 0)
(-3.64118 0.242653 0)
(-3.85026 0.219053 0)
(-4.03809 0.196449 0)
(-4.20613 0.175216 0)
(-4.35592 0.155562 2.82288e-20)
(-4.48905 0.137524 0)
(-4.60701 0.12103 -5.55688e-20)
(-4.71119 0.105953 0)
(-4.80279 0.0921344 5.477e-20)
(-4.88289 0.0794109 0)
(-4.95237 0.0676308 0)
(-5.01199 0.056666 -5.3548e-20)
(-5.06238 0.0464199 0)
(-5.10403 0.0368328 -5.26562e-20)
(-5.13737 0.0278876 5.21784e-20)
(-5.16278 0.0196285 0)
(-5.18066 0.0122031 5.11515e-20)
(-5.19127 0.00585903 5.05991e-20)
(-5.19481 0.000807085 0)
(-5.19249 -0.00314799 0)
(-5.18558 -0.00644696 0)
(-5.1742 -0.00936991 0)
(-5.15868 -0.0120811 0)
(-5.13918 -0.01465 -4.61796e-20)
(-5.11584 -0.0170903 0)
(-5.08877 -0.0194135 4.43144e-20)
(-5.05808 -0.0216284 0)
(-5.02386 -0.0237373 0)
(-4.98623 -0.0257421 -4.11363e-20)
(-4.94528 -0.0276432 0)
(-4.90112 -0.0294406 3.87606e-20)
(-4.85386 -0.0311341 0)
(-4.80361 -0.0327236 0)
(-4.7505 -0.0342092 0)
(-4.69464 -0.0355906 -3.3381e-20)
(-4.63615 -0.0368684 0)
(-4.57517 -0.0380435 0)
(-4.51181 -0.0391164 -2.87836e-20)
(-4.4462 -0.0400879 0)
(-4.37848 -0.0409594 -2.54422e-20)
(-4.30878 -0.0417322 0)
(-4.23723 -0.0424078 0)
(-4.16397 -0.0429882 0)
(-4.08911 -0.043475 1.80646e-20)
(-4.0128 -0.0438706 0)
(-3.93515 -0.0441769 0)
(-3.85631 -0.0443965 1.18825e-20)
(-3.77639 -0.0445319 9.68866e-21)
(-3.69551 -0.0445858 0)
(-3.6138 -0.0445613 5.08686e-21)
(-3.53137 -0.0444622 0)
(-3.44833 -0.0442924 3.57792e-22)
(-3.36478 -0.0440572 0)
(-3.28084 -0.0437633 -1.0132e-20)
(-3.19659 -0.0434195 0)
(-3.11213 -0.043039 2.13749e-20)
(-3.02754 -0.0426404 0)
(-2.94288 -0.0422519 0)
(-2.85821 -0.0419156 0)
(-2.77357 -0.0416934 -4.65679e-20)
(-2.68899 -0.0416683 0)
(-2.60447 -0.0419305 6.08436e-20)
(-2.51999 -0.0425361 0)
(-2.43549 -0.0434261 -7.6514e-20)
(-2.35124 -0.0443287 -8.48929e-20)
(-2.26748 -0.0447833 -9.36016e-20)
(-2.18446 -0.0445751 0)
(-2.10234 -0.0439702 0)
(-2.02116 -0.0432719 0)
(-1.94092 -0.042567 0)
(-1.86163 -0.0418669 0)
(-1.78332 -0.0411726 0)
(-1.706 -0.0404857 0)
(-1.62971 -0.0398102 0)
(-1.55447 -0.0391516 1.9272e-19)
(-1.48029 -0.0385172 2.07042e-19)
(-1.40719 -0.0379123 0)
(-1.33518 -0.0373259 0)
(-1.26428 -0.0367007 0)
(-1.19455 -0.0360431 2.74317e-19)
(-1.12597 -0.0354092 0)
(-1.05856 -0.0347938 0)
(-0.992305 -0.0341983 0)
(-0.927218 -0.0336244 0)
(-0.863296 -0.0330742 -3.90976e-19)
(-0.800539 -0.03255 0)
(-0.738941 -0.0320552 0)
(-0.678496 -0.0315931 4.89176e-19)
(-0.619198 -0.0311654 -5.28885e-19)
(-0.561041 -0.0307755 0)
(-0.504015 -0.0304339 -6.22521e-19)
(-0.448108 -0.0301645 0)
(-0.393302 -0.0300117 7.41539e-19)
(-0.339574 -0.0299866 0)
(-0.286912 -0.0300504 0)
(-0.235299 -0.0301904 0)
(-0.184708 -0.0304174 0)
(-0.135113 -0.030747 0)
(-0.0865582 -0.0311982 -2.84752e-18)
(-0.039256 -0.0316522 -3.27851e-18)
(0.0068484 -0.0313495 0)
(0.052266 -0.0298488 0)
(0.0970053 -0.0279982 0)
(0.140925 -0.0262803 2.68407e-18)
(0.183933 -0.0247476 0)
(0.226008 -0.0233743 0)
(0.267172 -0.0221368 0)
(0.307459 -0.0210153 2.03956e-18)
(0.3469 -0.0199925 -1.93333e-18)
(0.385522 -0.0190543 0)
(0.423352 -0.0181892 0)
(0.460414 -0.017388 -1.68667e-18)
(0.496732 -0.0166431 -1.62203e-18)
(0.532331 -0.0159485 0)
(0.567231 -0.0152991 0)
(0.601458 -0.0146905 1.46381e-18)
(0.635032 -0.0141192 -1.42033e-18)
(0.667976 -0.0135821 0)
(0.700315 -0.0130764 0)
(0.732069 -0.0125999 -1.31009e-18)
(0.763262 -0.0121506 0)
(0.793917 -0.0117267 0)
(0.824057 -0.0113266 -1.2226e-18)
(0.853705 -0.010949 0)
(0.882884 -0.0105926 -1.17353e-18)
(0.911618 -0.0102562 0)
(0.93993 -0.00993878 0)
(0.967843 -0.00963925 0)
(0.995379 -0.00935654 1.09155e-18)
(1.02256 -0.00908955 0)
(1.04941 -0.00883699 0)
(1.07594 -0.00859743 0)
(1.10216 -0.00836905 0)
(1.1281 -0.00814962 0)
(1.15374 -0.0079362 0)
(1.17909 -0.00772493 9.82758e-19)
(1.20412 -0.00751066 9.69838e-19)
(1.22879 -0.00728639 0)
(1.25303 -0.00704259 0)
(1.27674 -0.00676573 0)
(1.29976 -0.00643723 -9.24495e-19)
(1.32183 -0.00602735 0)
(1.34257 -0.00549736 1.81388e-18)
(1.3615 -0.00476025 -1.80051e-18)
(1.37725 -0.00372457 -1.79178e-18)
(1.38983 -0.00195315 1.79008e-18)
(1.39025 0.00132855 -1.79546e-18)
(1.38755 0.0080761 1.80878e-18)
(1.30828 0.0198896 0)
(0.0962978 -0.268589 0)
(0.334149 -0.681182 0)
(0.514377 -0.706746 1.57331e-19)
(0.612127 -0.571696 0)
(0.663221 -0.409272 -1.11105e-19)
(0.683751 -0.254191 -1.08063e-19)
(0.67781 -0.112516 -5.62294e-20)
(0.647523 0.01528 -5.61731e-20)
(0.604608 0.125162 0)
(0.545491 0.211779 -6.07697e-20)
(0.468766 0.267394 0)
(0.374391 0.283369 0)
(0.258758 0.256713 1.70375e-19)
(0.11167 0.21152 9.82359e-20)
(-0.0731211 0.205854 -1.84757e-19)
(-0.299168 0.27105 -1.44226e-19)
(-0.577024 0.382557 -5.73452e-20)
(-0.903001 0.512479 0)
(-1.2567 0.642006 0)
(-1.61491 0.756064 0)
(-1.97063 0.841865 -2.85999e-20)
(-2.31617 0.895608 0)
(-2.64617 0.9192 6.90846e-20)
(-2.95305 0.915708 0)
(-3.23271 0.889333 0)
(-3.48352 0.845212 1.98192e-20)
(-3.70405 0.788662 0)
(-3.89515 0.725224 -1.97602e-20)
(-4.05866 0.659134 -4.1795e-20)
(-4.19815 0.59311 2.01663e-20)
(-4.31654 0.529253 0)
(-4.4167 0.469352 0)
(-4.50137 0.414239 0)
(-4.57295 0.364268 -4.42557e-20)
(-4.6335 0.319401 -4.47623e-20)
(-4.6847 0.279365 -2.21882e-20)
(-4.72796 0.243751 0)
(-4.76436 0.212076 4.53047e-20)
(-4.79481 0.183842 0)
(-4.82003 0.158569 -4.5877e-20)
(-4.8406 0.135814 0)
(-4.85701 0.115184 0)
(-4.86969 0.0963365 4.60881e-20)
(-4.87902 0.0789817 0)
(-4.88532 0.0628784 1.38166e-19)
(-4.88892 0.0478322 -4.56089e-20)
(-4.8901 0.0337076 0)
(-4.88908 0.0204736 -4.49399e-20)
(-4.88615 0.00824642 -4.44833e-20)
(-4.88157 -0.00281192 0)
(-4.87442 -0.0127569 0)
(-4.8636 -0.0218843 0)
(-4.84909 -0.0304377 0)
(-4.8308 -0.0385316 0)
(-4.80876 -0.0462358 4.02174e-20)
(-4.78303 -0.0535873 7.91652e-20)
(-4.75367 -0.0606072 -3.84401e-20)
(-4.72078 -0.0673068 0)
(-4.68445 -0.073692 7.34867e-20)
(-4.64476 -0.0797652 -3.5967e-20)
(-4.60183 -0.0855274 0)
(-4.55573 -0.0909781 -3.3267e-20)
(-4.5066 -0.0961174 0)
(-4.45452 -0.100947 0)
(-4.39962 -0.105468 -5.9892e-20)
(-4.34201 -0.10968 2.83854e-20)
(-4.28182 -0.113584 -5.47003e-20)
(-4.21915 -0.117184 5.19814e-20)
(-4.15414 -0.120481 2.42936e-20)
(-4.08692 -0.123482 0)
(-4.0176 -0.126192 2.13606e-20)
(-3.94632 -0.128615 0)
(-3.8732 -0.130758 0)
(-3.79838 -0.13263 0)
(-3.72198 -0.134238 1.5634e-20)
(-3.64413 -0.13559 0)
(-3.56495 -0.136696 2.37649e-20)
(-3.48457 -0.137567 -2.99714e-20)
(-3.40311 -0.138211 -7.94071e-21)
(-3.32068 -0.13864 0)
(-3.23741 -0.138866 -4.13998e-21)
(-3.1534 -0.138899 0)
(-3.06877 -0.138751 -2.88992e-22)
(-2.98361 -0.138435 0)
(-2.89804 -0.137962 8.11706e-21)
(-2.81215 -0.137345 -2.35766e-20)
(-2.72603 -0.136595 -1.69705e-20)
(-2.63977 -0.135722 0)
(-2.55347 -0.134735 0)
(-2.46722 -0.133638 0)
(-2.38111 -0.132432 3.61893e-20)
(-2.29525 -0.131108 0)
(-2.20979 -0.129638 -4.66611e-20)
(-2.12487 -0.127967 0)
(-2.04063 -0.126041 1.71897e-19)
(-1.95714 -0.123886 6.36379e-20)
(-1.87442 -0.121603 6.96695e-20)
(-1.7924 -0.119298 0)
(-1.71107 -0.11703 0)
(-1.63048 -0.114796 0)
(-1.55069 -0.112574 0)
(-1.47176 -0.11035 0)
(-1.39373 -0.10812 2.19508e-19)
(-1.31663 -0.105883 2.35001e-19)
(-1.24049 -0.103644 0)
(-1.16533 -0.101405 -1.3477e-19)
(-1.09119 -0.0991699 -1.4355e-19)
(-1.01808 -0.0969392 0)
(-0.946041 -0.0947153 -3.23058e-19)
(-0.875077 -0.0925027 0)
(-0.805185 -0.0903149 1.81336e-19)
(-0.736373 -0.0881577 0)
(-0.668653 -0.0860313 0)
(-0.60203 -0.0839381 -4.34481e-19)
(-0.536505 -0.0818795 0)
(-0.47208 -0.0798572 2.4485e-19)
(-0.408755 -0.0778741 0)
(-0.346528 -0.0759359 0)
(-0.285393 -0.0740514 2.89793e-19)
(-0.225342 -0.0722187 3.091e-19)
(-0.166367 -0.0704324 0)
(-0.108464 -0.0686954 -3.46399e-19)
(-0.0516364 -0.0670079 0)
(0.00411754 -0.0653614 3.82644e-19)
(0.0588398 -0.063749 7.66147e-19)
(0.112564 -0.0621819 0)
(0.16529 -0.060675 0)
(0.217019 -0.0592327 0)
(0.267765 -0.0578527 0)
(0.317561 -0.0565373 7.092e-19)
(0.366477 -0.0552753 2.09633e-18)
(0.4146 -0.0538959 0)
(0.461841 -0.0522494 0)
(0.508062 -0.0504748 0)
(0.55333 -0.0487276 -6.65593e-19)
(0.597729 -0.0470597 0)
(0.641285 -0.0454793 0)
(0.684017 -0.043984 1.28787e-18)
(0.725945 -0.0425672 6.36917e-19)
(0.767091 -0.0412214 6.32393e-19)
(0.807477 -0.0399401 0)
(0.847123 -0.0387177 0)
(0.886051 -0.0375498 6.15852e-19)
(0.924282 -0.0364328 -6.09617e-19)
(0.961839 -0.0353638 0)
(0.998741 -0.0343402 0)
(1.03501 -0.0333601 -5.96761e-19)
(1.07067 -0.0324215 1.77631e-18)
(1.10574 -0.0315228 0)
(1.14024 -0.0306626 0)
(1.17419 -0.0298396 5.80297e-19)
(1.20762 -0.0290525 0)
(1.24055 -0.0283004 1.14489e-18)
(1.273 -0.0275822 -5.68514e-19)
(1.30499 -0.026897 0)
(1.33654 -0.0262437 5.62403e-19)
(1.36768 -0.0256213 1.11752e-18)
(1.39842 -0.0250288 0)
(1.4288 -0.0244649 0)
(1.45882 -0.0239281 -5.49572e-19)
(1.48851 -0.0234167 0)
(1.51789 -0.0229283 1.08644e-18)
(1.54697 -0.0224601 0)
(1.57577 -0.0220084 0)
(1.60429 -0.021568 0)
(1.63254 -0.0211323 0)
(1.6605 -0.0206925 -5.28999e-19)
(1.68816 -0.0202364 -5.26232e-19)
(1.71549 -0.0197476 0)
(1.74242 -0.0192034 0)
(1.76886 -0.0185723 0)
(1.79467 -0.0178086 5.16139e-19)
(1.81965 -0.0168453 0)
(1.84346 -0.0155793 -1.02486e-18)
(1.8657 -0.0138335 1.0226e-18)
(1.88544 -0.0113235 1.02222e-18)
(1.90223 -0.00730853 1.02331e-18)
(1.91244 -0.000517953 1.02847e-18)
(1.92474 0.0124256 1.02036e-18)
(1.90518 0.036187 0)
(0.116527 -0.859619 0)
(0.269256 -1.05725 0)
(0.316471 -0.826576 -1.26286e-19)
(0.31585 -0.5848 -1.08129e-19)
(0.298483 -0.374311 1.00442e-19)
(0.267342 -0.189158 1.00615e-19)
(0.221234 -0.0236681 -6.46907e-22)
(0.159417 0.124111 0)
(0.0817683 0.254702 0)
(-0.012942 0.365686 0)
(-0.12825 0.451472 0)
(-0.272209 0.512547 0)
(-0.457737 0.566257 -2.67635e-19)
(-0.695394 0.640788 0)
(-0.981533 0.75319 6.63522e-20)
(-1.3003 0.895162 5.72325e-20)
(-1.6337 1.0434 0)
(-1.96481 1.17759 0)
(-2.27834 1.28515 0)
(-2.56241 1.35903 0)
(-2.81165 1.39496 3.49117e-20)
(-3.02572 1.39269 0)
(-3.20601 1.35686 -3.23486e-20)
(-3.35532 1.29469 0)
(-3.47812 1.21353 0)
(-3.57902 1.11978 0)
(-3.66283 1.01952 -6.8583e-20)
(-3.73391 0.918092 0)
(-3.79581 0.819639 3.31131e-20)
(-3.85128 0.726962 -7.06948e-20)
(-3.90227 0.64158 0)
(-3.95007 0.564233 0)
(-3.99543 0.494973 0)
(-4.03873 0.433416 3.65608e-20)
(-4.08007 0.378915 3.71485e-20)
(-4.11941 0.330695 0)
(-4.15661 0.287962 0)
(-4.1915 0.249953 -7.77965e-20)
(-4.2239 0.215974 -7.81898e-20)
(-4.25365 0.185413 7.84231e-20)
(-4.2806 0.157752 0)
(-4.30464 0.132561 0)
(-4.32567 0.109491 0)
(-4.34363 0.0882582 0)
(-4.35845 0.0686283 -7.70076e-20)
(-4.37008 0.0504012 -7.69098e-20)
(-4.37845 0.0333927 7.6267e-20)
(-4.38342 0.0174017 0)
(-4.38482 0.00217174 0)
(-4.38249 -0.0125836 0)
(-4.37637 -0.0269977 0)
(-4.36653 -0.0409843 -7.11036e-20)
(-4.35301 -0.0544513 0)
(-4.33586 -0.0673875 0)
(-4.3151 -0.0797971 -6.69919e-20)
(-4.29081 -0.0916889 -6.49662e-20)
(-4.26303 -0.10307 0)
(-4.23185 -0.113946 1.24564e-19)
(-4.19733 -0.124317 -6.00282e-20)
(-4.15957 -0.134184 5.82516e-20)
(-4.11865 -0.143545 0)
(-4.07468 -0.152398 0)
(-4.02773 -0.160741 0)
(-3.97794 -0.168573 0)
(-3.92538 -0.175897 4.84199e-20)
(-3.8702 -0.182715 9.37707e-20)
(-3.81248 -0.189026 4.40545e-20)
(-3.75236 -0.194834 -4.17824e-20)
(-3.68995 -0.200144 0)
(-3.62538 -0.204963 7.54193e-20)
(-3.55876 -0.209299 7.05362e-20)
(-3.49022 -0.213161 6.55366e-20)
(-3.41989 -0.216559 -6.04214e-20)
(-3.3479 -0.219505 0)
(-3.27435 -0.222011 -7.40906e-20)
(-3.19939 -0.224091 0)
(-3.12313 -0.22576 2.00924e-20)
(-3.0457 -0.227033 1.58694e-20)
(-2.96721 -0.227925 0)
(-2.88778 -0.228454 0)
(-2.80753 -0.228637 1.53555e-20)
(-2.72657 -0.228491 0)
(-2.64501 -0.228036 2.92098e-21)
(-2.56296 -0.227289 0)
(-2.48051 -0.22627 1.00019e-20)
(-2.39778 -0.224998 3.47315e-20)
(-2.31486 -0.223492 0)
(-2.23185 -0.221772 0)
(-2.14885 -0.219856 0)
(-2.06594 -0.217761 4.45864e-20)
(-1.98323 -0.215504 0)
(-1.90081 -0.213095 5.94077e-20)
(-1.81879 -0.210535 0)
(-1.73724 -0.207811 0)
(-1.65624 -0.204894 -1.67061e-19)
(-1.57583 -0.201772 0)
(-1.49602 -0.198456 -9.93167e-20)
(-1.41683 -0.19499 0)
(-1.33827 -0.191433 -1.16596e-19)
(-1.2604 -0.187821 0)
(-1.1833 -0.184174 0)
(-1.107 -0.180498 0)
(-1.03154 -0.1768 -4.62702e-19)
(-0.956975 -0.173087 -1.65047e-19)
(-0.88332 -0.169365 0)
(-0.810606 -0.165641 0)
(-0.738858 -0.161921 0)
(-0.668098 -0.15821 0)
(-0.598343 -0.154513 2.18843e-19)
(-0.529604 -0.150834 -4.58476e-19)
(-0.461889 -0.147184 -2.42677e-19)
(-0.395209 -0.143571 5.07669e-19)
(-0.329573 -0.14 5.33467e-19)
(-0.264988 -0.136478 2.81384e-19)
(-0.201455 -0.133007 0)
(-0.138976 -0.129586 6.16237e-19)
(-0.0775522 -0.126219 0)
(-0.017185 -0.12291 -6.73554e-19)
(0.0421317 -0.119659 -3.45152e-19)
(0.100411 -0.116468 0)
(0.157661 -0.113339 6.93108e-19)
(0.213885 -0.110276 3.48823e-19)
(0.269094 -0.107279 0)
(0.323299 -0.104338 3.48716e-19)
(0.376508 -0.101441 -1.05279e-18)
(0.428729 -0.0985995 0)
(0.479977 -0.0958225 0)
(0.530268 -0.0931128 0)
(0.579619 -0.0904713 0)
(0.628054 -0.0879027 -7.07731e-19)
(0.675607 -0.085414 -7.10223e-19)
(0.722299 -0.0830202 0)
(0.768099 -0.0807083 0)
(0.81299 -0.0784391 0)
(0.857025 -0.0762116 0)
(0.900248 -0.0740421 0)
(0.942674 -0.0719391 0)
(0.984317 -0.0699053 -7.13998e-19)
(1.02519 -0.0679403 -1.08888e-21)
(1.06532 -0.0660426 0)
(1.10472 -0.0642101 0)
(1.1434 -0.0624409 -7.13831e-19)
(1.1814 -0.0607331 0)
(1.21873 -0.0590851 7.1488e-19)
(1.25541 -0.0574956 7.14018e-19)
(1.29146 -0.0559632 0)
(1.3269 -0.0544868 0)
(1.36175 -0.0530652 -7.14553e-19)
(1.39604 -0.0516973 -1.42731e-18)
(1.42978 -0.0503822 0)
(1.463 -0.0491188 0)
(1.49571 -0.0479063 0)
(1.52795 -0.0467437 -7.13249e-19)
(1.55972 -0.04563 7.12868e-19)
(1.59105 -0.0445643 0)
(1.62196 -0.0435455 1.42286e-18)
(1.65248 -0.0425726 7.10412e-19)
(1.68262 -0.0416439 -1.42081e-18)
(1.71241 -0.0407581 0)
(1.74186 -0.0399129 0)
(1.771 -0.039106 -1.417e-18)
(1.79984 -0.0383338 -7.08214e-19)
(1.8284 -0.0375922 0)
(1.8567 -0.0368753 0)
(1.88473 -0.0361756 0)
(1.91252 -0.035483 0)
(1.94004 -0.034784 -1.40687e-18)
(1.96729 -0.0340601 0)
(1.99425 -0.0332865 0)
(2.02085 -0.0324289 0)
(2.04703 -0.0314394 0)
(2.07267 -0.0302496 0)
(2.0976 -0.0287589 0)
(2.12156 -0.0268156 -1.39753e-18)
(2.1442 -0.0241682 0)
(2.16487 -0.0204116 0)
(2.18333 -0.0147534 -2.81629e-18)
(2.19677 -0.00587608 1.41816e-18)
(2.21146 0.00887772 -1.41628e-18)
(2.20636 0.036256 1.41173e-18)
(0.0334421 -1.16641 0)
(0.0699285 -1.03045 3.59791e-19)
(0.0342474 -0.747473 0)
(-0.0101469 -0.506988 1.1086e-19)
(-0.0654069 -0.284273 0)
(-0.133189 -0.0746841 0)
(-0.216344 0.122177 -8.28382e-20)
(-0.317246 0.305574 0)
(-0.438021 0.475063 0)
(-0.581271 0.631193 0)
(-0.75085 0.776489 0)
(-0.951976 0.917043 0)
(-1.18731 1.06098 2.04326e-19)
(-1.45132 1.21176 9.24887e-20)
(-1.72953 1.36316 -8.37275e-20)
(-2.00358 1.50183 0)
(-2.25766 1.6139 0)
(-2.48172 1.69 0)
(-2.67095 1.7264 0)
(-2.82394 1.72437 0)
(-2.94323 1.68776 6.01675e-20)
(-3.03436 1.62182 5.88484e-20)
(-3.10342 1.53335 -5.7993e-20)
(-3.15676 1.43 5.7689e-20)
(-3.19977 1.31851 0)
(-3.23679 1.20428 0)
(-3.27132 1.09168 5.58375e-20)
(-3.30568 0.983995 0)
(-3.34118 0.883361 0)
(-3.37833 0.790821 5.86917e-20)
(-3.41712 0.706619 6.15112e-20)
(-3.45723 0.630529 6.2223e-20)
(-3.49811 0.562022 0)
(-3.53914 0.500402 0)
(-3.57972 0.444908 -6.40339e-20)
(-3.61929 0.394784 0)
(-3.65734 0.349317 0)
(-3.69347 0.307865 6.43072e-20)
(-3.72732 0.269861 -6.60283e-20)
(-3.75862 0.234818 6.6039e-20)
(-3.78715 0.202319 0)
(-3.81272 0.172014 0)
(-3.83518 0.143607 1.30011e-19)
(-3.8544 0.116846 0)
(-3.87026 0.0915202 1.28623e-19)
(-3.88269 0.067452 1.91032e-19)
(-3.8916 0.0444978 -1.8939e-19)
(-3.89691 0.0225371 1.25326e-19)
(-3.8986 0.00145287 0)
(-3.89666 -0.018871 0)
(-3.89112 -0.0385129 1.1987e-19)
(-3.88205 -0.0574916 5.84041e-20)
(-3.86946 -0.0758033 0)
(-3.85341 -0.0934467 0)
(-3.83392 -0.110421 5.48979e-20)
(-3.81105 -0.126727 1.08246e-19)
(-3.78485 -0.142361 0)
(-3.75538 -0.157322 -1.01793e-19)
(-3.72271 -0.171606 9.9964e-20)
(-3.68692 -0.185207 -9.69921e-20)
(-3.64809 -0.198122 0)
(-3.60631 -0.210345 0)
(-3.56167 -0.22187 0)
(-3.51427 -0.232695 0)
(-3.46421 -0.242825 0)
(-3.41161 -0.252259 -7.59191e-20)
(-3.35656 -0.260996 0)
(-3.29918 -0.269043 0)
(-3.23958 -0.276404 0)
(-3.17789 -0.283091 -1.22614e-19)
(-3.11422 -0.289112 -5.66995e-20)
(-3.04868 -0.29448 -5.25983e-20)
(-2.98141 -0.299209 9.80314e-20)
(-2.91252 -0.303314 -4.53581e-20)
(-2.84213 -0.306813 3.98063e-20)
(-2.77036 -0.309724 0)
(-2.69734 -0.312067 -3.08836e-20)
(-2.62317 -0.313862 0)
(-2.54798 -0.315132 0)
(-2.47187 -0.315898 0)
(-2.39497 -0.316184 -2.54804e-20)
(-2.31738 -0.316014 8.48026e-21)
(-2.2392 -0.315413 4.76272e-21)
(-2.16055 -0.314403 -2.99168e-21)
(-2.08153 -0.313011 -2.10215e-20)
(-2.00223 -0.31126 -1.30034e-20)