/*--------------------------------*- C++ -*----------------------------------*\
  =========                 |
  \\      /  F ield         | OpenFOAM: The Open Source CFD Toolbox
   \\    /   O peration     | Website:  https://openfoam.org
    \\  /    A nd           | Version:  8
     \\/     M anipulation  |
\*---------------------------------------------------------------------------*/
FoamFile
{
    version     2.0;
    format      ascii;
    class       volScalarField;
    location    "400";
    object      omega;
}
// * * * * * * * * * * * * * * * * * * * * * * * * * * * * * * * * * * * * * //

dimensions      [0 0 -1 0 0 0 0];

internalField   nonuniform List<scalar> 
12225
(
32582.3
32582.3
39156.4
38681
38502.2
32582.3
32582.3
45435.5
42427.9
40167.5
39590.8
40776.8
40859.2
32582.3
32582.3
32582.3
32582.3
39042.5
1433.22
5268.31
7615.47
9198.98
10761.1
11485.6
11793.6
12698.9
13470.6
14450.1
14394.3
14923.1
14849.3
14545.4
14777.2
14655.7
14510.8
14963.2
586.561
1067.58
1825.43
2442.95
2871.44
3242.38
3545.72
3826.6
4117.42
4431.65
4668.83
4888.48
5009.3
5127.19
5272.46
5403.67
5523.78
5719.34
461.882
526.815
765.03
983.125
1111.02
1233.38
1334.18
1451.5
1550.08
1670.97
1755.2
1853.51
1912.14
1993.29
2046.77
2133.44
2174.73
2267.01
439.221
444.211
514.65
588.891
632.849
681.798
720.16
768.321
806.507
855.443
889.508
933.129
959.896
999.959
1023.72
1064.96
1084.56
1125.14
437.556
435.798
452.785
476.16
494.324
510.056
523.275
542.5
557.629
578.148
592.62
612.343
624.945
644.241
655.803
675.727
685.734
705.222
438.956
436.102
437.181
443.081
448.496
452.409
455.802
462.182
467.127
474.835
480.238
488.373
493.71
502.286
507.641
516.784
521.83
531.017
439.248
436.666
434.735
435.04
435.919
436.529
437.584
438.415
439.621
442.224
443.976
447.142
449.183
452.93
455.257
459.586
461.979
466.64
439.125
436.867
434.776
433.301
432.138
431.186
430.426
429.834
429.611
429.698
429.82
430.268
430.69
431.645
432.35
433.82
434.738
436.685
439.075
436.914
434.841
432.997
431.261
429.711
428.256
426.988
425.812
424.885
423.984
423.351
422.659
422.359
421.88
421.746
421.641
421.84
439.048
436.922
434.873
432.968
431.136
429.44
427.802
426.304
424.85
423.547
422.274
421.161
420.054
419.129
418.189
417.45
416.674
416.128
439.046
436.916
434.878
432.96
431.122
429.395
427.734
426.178
424.676
423.273
421.918
420.658
419.436
418.311
417.217
416.222
415.25
414.375
439.045
436.91
434.876
432.951
431.117
429.377
427.72
426.145
424.644
423.217
421.854
420.558
419.321
418.145
417.023
415.958
414.94
413.976
439.047
436.908
434.875
432.947
431.111
429.368
427.706
426.131
424.625
423.196
421.828
420.53
419.285
418.105
416.974
415.9
414.869
413.89
439.046
436.907
434.875
432.943
431.107
429.36
427.699
426.118
424.612
423.178
421.812
420.509
419.266
418.08
416.949
415.87
414.839
413.854
439.046
436.907
434.873
432.941
431.103
429.354
427.692
426.109
424.602
423.166
421.799
420.494
419.25
418.063
416.93
415.848
414.816
413.829
439.047
436.905
434.871
432.938
431.099
429.351
427.687
426.103
424.595
423.159
421.789
420.484
419.239
418.05
416.917
415.834
414.801
413.812
439.047
436.903
434.87
432.934
431.098
429.347
427.687
426.099
424.595
423.154
421.787
420.478
419.235
418.043
416.911
415.826
414.794
413.804
439.046
436.904
434.868
432.936
431.096
429.35
427.684
426.103
424.592
423.158
421.785
420.482
419.233
418.047
416.91
415.829
414.793
413.807
439.045
436.904
434.87
432.937
431.1
429.351
427.689
426.105
424.599
423.16
421.793
420.486
419.242
418.052
416.92
415.835
414.803
413.814
439.049
436.904
434.873
432.939
431.103
429.356
427.694
426.112
424.606
423.17
421.803
420.498
419.256
418.069
416.94
415.86
414.831
413.849
439.047
436.905
434.876
432.943
431.11
429.361
427.705
426.125
424.629
423.201
421.85
420.56
419.342
418.179
417.082
416.034
415.048
414.104
439.065
436.895
434.879
432.936
431.125
429.386
427.778
426.245
424.843
423.509
422.3
421.15
420.12
419.141
418.282
417.444
416.738
416.024
439.106
436.828
434.877
432.976
431.359
429.86
428.663
427.606
426.885
426.246
425.9
425.594
425.556
425.599
425.725
425.909
426.301
426.547
439.114
436.76
435.391
434.337
434.567
434.942
436.068
437.767
440.343
442.843
446.01
448.896
452.367
455.401
459.008
462.005
465.635
468.472
438.651
442.977
443.008
448.842
457.298
466.836
478.871
490.613
503.874
515.93
529.09
540.546
553.024
563.49
575.107
584.48
595.265
603.541
456.581
483.904
499.781
539.087
582.748
624.65
669.463
710.175
752.581
789.34
827.735
859.626
893.592
920.612
950.551
973.369
1000.04
1019.4
591.516
754.043
873.532
1045.94
1214.49
1365.78
1512.61
1639.93
1764.95
1869.11
1973.72
2056.92
2144.03
2209.81
2283.22
2335.78
2399.09
2442.04
2399.27
2812.88
3539.68
4254.39
4908.84
5460.68
5923.74
6293.33
6608.85
6855.55
7076.01
7242.5
7402.78
7516.8
7639.71
7717.91
7818.09
7871.78
28778.9
26173
25890.1
26039.3
26159.8
26171.3
26066.7
25899.8
25676.2
25447.7
25223.7
25008.9
24807.7
24620
24447
24287.6
24141.1
24006.6
11463.3
2494.65
2496.87
2499.12
2501.38
2503.67
2505.98
2508.3
2510.65
2513.02
2515.42
2517.83
2520.27
2522.73
2525.21
2527.72
2530.25
2532.8
2535.37
2537.97
2540.6
2543.25
2545.92
2548.62
2551.34
2554.09
2556.87
2559.67
2562.5
2565.35
2568.23
2571.14
2574.08
2577.04
2580.04
2583.06
2586.11
2589.19
2592.3
2595.43
2598.6
2601.8
2605.03
2608.29
2611.59
2614.91
2618.27
2621.66
3217.03
3401.42
2632.03
3283.56
3227.53
3269.05
3207.67
3221.91
3314.58
3364.21
3412.38
3467.06
3510.3
3559.8
3603.12
3648.23
3691.01
3733.65
3775.38
3816.55
3857.21
3897.36
3937.1
3976.43
4015.41
4054.01
4092.32
4130.27
4167.95
4205.25
4242.29
4278.94
4315.3
4351.25
4386.86
4422.02
4456.77
4491.04
4524.81
4558.04
4590.69
4622.75
4654.22
4685.06
4715.33
4745.08
4774.47
4803.76
4832.71
4861.02
4888.9
4916.25
4943.11
4969.46
4995.27
5020.55
5045.26
5069.41
5092.97
5115.94
5138.3
5160.05
5181.17
5201.65
5221.47
5240.64
5259.14
5276.96
5294.08
5310.52
5326.22
5341.23
5355.48
5369.02
5381.78
5393.81
5405.03
5415.5
5425.13
5433.96
5441.88
5448.94
5455.77
5461.99
5467.67
5470.92
5476
5476.76
5480.32
5479.34
5480.14
5479.2
5477.77
5475.69
5472.94
5469.27
5464.94
5459.94
5454.3
5447.96
5440.93
5433.22
5424.88
5415.94
5406.42
5396.32
5385.64
5374.41
5362.78
5350.76
5338.47
5325.91
5313.21
5300.37
5287.53
5274.69
5262.03
5249.5
5237.23
5225.02
5213.45
5202.19
5190.68
5179.22
5167.79
5156.12
5143.54
5129.39
5111.45
5085.7
5050.98
4835.4
11463.3
2018.58
997.834
801.478
687.564
642.691
652.978
651.29
640.977
621.369
599.352
578.322
563.167
549.872
548.36
566.409
618.382
711.556
818.436
915.499
992.506
1012.41
988.469
934.804
804.636
680.27
580.239
516.346
497.508
509.078
523.856
597.754
688.704
1001.74
1416.25
1784.58
1994.48
2125.82
2159.02
2168.35
2142.05
2098.03
2043.82
1976.48
1894.71
1812.51
1747.46
1704.97
1688.27
1643.63
1588.97
1591.97
1556.07
1539.86
1518.56
1507.78
1507.12
1505.24
1506.41
1509.36
1512.36
1517.28
1522.25
1528.26
1534.57
1541.38
1548.5
1555.89
1563.48
1571.24
1579.12
1587.08
1595.09
1603.13
1611.17
1619.18
1627.15
1635.06
1642.89
1650.62
1658.23
1665.72
1673.07
1680.26
1687.29
1694.15
1700.84
1707.35
1713.7
1719.92
1726.03
1732.13
1738.31
1744.74
1751.66
1759.39
1767.45
1775.19
1782.89
1790.41
1797.82
1805.08
1812.2
1819.18
1826.01
1832.69
1839.21
1845.58
1851.8
1857.85
1863.73
1869.45
1875
1880.37
1885.57
1890.58
1895.42
1900.07
1904.53
1908.8
1912.87
1916.75
1920.43
1923.9
1927.17
1930.23
1933.09
1935.73
1938.17
1940.41
1942.52
1944.4
1946.06
1947.4
1948.68
1949.48
1950.34
1950.68
1951.08
1951.1
1951.01
1950.74
1950.28
1949.6
1948.72
1947.65
1946.38
1944.92
1943.26
1941.41
1939.4
1937.19
1934.78
1932.2
1929.44
1926.52
1923.46
1920.27
1916.97
1913.57
1910.08
1906.52
1902.91
1899.25
1895.54
1891.83
1888.13
1884.48
1880.92
1877.43
1873.98
1870.58
1867.27
1864.1
1861.08
1858.35
1856.05
1854.87
1854.96
1860.71
11463.3
2029.65
851.317
710.665
748.898
746.933
717.071
658.844
599.796
543.783
494.178
452.338
418.467
392.113
374.427
360.254
360.31
367.065
385.208
419.407
463.555
504.389
529.556
526.748
502.461
460.077
418.775
421.992
466.183
592.236
784.888
1058.59
1277.22
1469.69
1615.56
1682.99
1703.86
1643.11
1578.27
1499.55
1424.8
1352.22
1286.43
1227.51
1177.66
1135.92
1104.22
1080.22
1063.68
1050.56
1034.73
1030.38
1019.99
1017.28
1014.78
1013.86
1014.75
1016.33
1018.62
1021.48
1024.66
1028.3
1032.15
1036.28
1040.58
1045.05
1049.64
1054.32
1059.07
1063.88
1068.73
1073.59
1078.47
1083.34
1088.2
1093.04
1097.85
1102.62
1107.35
1112.02
1116.65
1121.21
1125.72
1130.17
1134.56
1138.9
1143.19
1147.44
1151.67
1155.89
1160.12
1164.41
1168.76
1173.22
1177.81
1182.46
1187.05
1191.55
1195.98
1200.33
1204.6
1208.78
1212.89
1216.9
1220.83
1224.67
1228.41
1232.07
1235.62
1239.08
1242.44
1245.69
1248.84
1251.88
1254.81
1257.64
1260.35
1262.94
1265.42
1267.77
1270.01
1272.12
1274.11
1275.97
1277.7
1279.3
1280.78
1282.12
1283.34
1284.43
1285.4
1286.23
1286.91
1287.44
1287.85
1288.08
1288.2
1288.16
1288.05
1287.71
1287.29
1286.75
1286.08
1285.27
1284.32
1283.24
1282.02
1280.68
1279.2
1277.6
1275.88
1274.02
1272.05
1269.96
1267.75
1265.43
1263.02
1260.51
1257.92
1255.25
1252.51
1249.7
1246.83
1243.92
1240.96
1237.96
1234.95
1231.93
1228.94
1226
1223.1
1220.25
1217.49
1214.85
1212.43
1210.37
1208.88
1208.96
1211.22
1223.1
11463.3
2113.98
1174.71
1103.17
981.32
849.414
731.775
626.679
537.93
466.452
411.673
370.942
341.17
319.719
304.828
294.832
289.07
289.554
293.301
303.585
322.888
348.811
373.883
387.327
400.978
450.152
528.988
680.645
877.766
1077.57
1239.3
1323.76
1390.82
1428.94
1441.46
1343.02
1263.9
1193.71
1126.99
1067.42
1016.38
972.552
936.038
906.11
882.532
864.039
850.345
840.316
833.339
829.037
823.981
822.669
821.425
821.27
822.118
823.636
825.765
828.246
831.048
834.112
837.378
840.829
844.413
848.119
851.917
855.79
859.723
863.701
867.714
871.75
875.802
879.86
883.919
887.973
892.015
896.042
900.049
904.033
907.992
911.923
915.825
919.697
923.539
927.354
931.142
934.907
938.653
942.386
946.112
949.84
953.573
957.319
961.08
964.852
968.622
972.359
976.038
979.653
983.209
986.701
990.127
993.485
996.773
999.99
1003.13
1006.2
1009.19
1012.1
1014.92
1017.66
1020.32
1022.88
1025.35
1027.73
1030.01
1032.2
1034.28
1036.27
1038.15
1039.92
1041.59
1043.14
1044.59
1045.92
1047.14
1048.24
1049.23
1050.09
1050.85
1051.48
1051.99
1052.38
1052.64
1052.78
1052.79
1052.66
1052.42
1052.05
1051.56
1050.93
1050.19
1049.33
1048.35
1047.24
1046.02
1044.67
1043.2
1041.61
1039.91
1038.08
1036.15
1034.11
1031.96
1029.7
1027.34
1024.89
1022.35
1019.73
1017.02
1014.25
1011.41
1008.5
1005.53
1002.52
999.467
996.38
993.272
990.149
987.033
983.944
980.892
977.888
974.959
972.152
969.536
967.25
965.468
965.006
966.447
974.345
11463.3
2595.6
1682.93
1278.73
1006.95
785.895
606.578
481.046
399.469
347.95
314.033
290.621
274.125
262.713
255.037
250.558
249.618
251.138
255.072
263.053
278.226
304.164
348.04
408.494
498.505
648.776
864.493
1041.82
1153.27
1213.92
1250.59
1267.21
1259.41
1173.89
1083.67
1018.98
962.053
913.566
871.475
836.456
807.344
783.496
764.333
749.271
737.82
729.33
723.396
719.407
717.148
716.228
715.796
716.389
717.614
719.392
721.657
724.276
727.182
730.3
733.593
737.03
740.583
744.232
747.958
751.746
755.585
759.464
763.373
767.305
771.254
775.214
779.179
783.145
787.109
791.066
795.013
798.949
802.871
806.776
810.664
814.533
818.384
822.215
826.026
829.82
833.596
837.357
841.104
844.838
848.563
852.277
855.982
859.674
863.349
866.998
870.612
874.182
877.697
881.158
884.561
887.904
891.184
894.4
897.547
900.625
903.63
906.561
909.414
912.186
914.874
917.477
919.991
922.414
924.743
926.976
929.11
931.144
933.075
934.9
936.618
938.226
939.723
941.106
942.373
943.524
944.555
945.466
946.255
946.92
947.461
947.877
948.163
948.321
948.351
948.254
948.018
947.648
947.149
946.518
945.758
944.861
943.84
942.691
941.414
940.012
938.483
936.829
935.05
933.148
931.127
928.987
926.734
924.368
921.894
919.316
916.637
913.864
911.001
908.054
905.029
901.932
898.771
895.559
892.295
888.984
885.633
882.25
878.847
875.427
872.005
868.601
865.228
861.899
858.639
855.488
852.509
849.813
847.547
846.225
846.6
850.753
11463.3
3365.02
1882.97
1258.73
846.222
588.946
456.07
383.03
335.619
302.085
277.528
258.91
245.304
235.872
230.163
227.805
228.501
232.831
243.068
261.346
287.858
332.216
413.7
551.687
757.645
947.848
1059.39
1123.83
1147.23
1160.24
1138.35
1055.4
981.235
913.382
860.972
819.11
783.043
753.031
727.832
707.211
690.451
677.123
666.792
659.062
653.573
649.92
648.045
647.349
647.391
648.416
650.023
652.178
654.763
657.689
660.9
664.328
667.928
671.661
675.5
679.423
683.415
687.46
691.549
695.67
699.818
703.985
708.167
712.358
716.555
720.755
724.954
729.15
733.341
737.523
741.696
745.858
750.008
754.143
758.265
762.371
766.461
770.536
774.594
778.636
782.663
786.673
790.669
794.648
798.61
802.555
806.478
810.377
814.244
818.072
821.859
825.598
829.284
832.914
836.486
839.997
843.443
846.821
850.127
853.358
856.511
859.586
862.576
865.479
868.291
871.008
873.628
876.148
878.565
880.875
883.077
885.167
887.144
889.004
890.745
892.364
893.86
895.23
896.473
897.585
898.565
899.412
900.122
900.695
901.129
901.422
901.564
901.58
901.449
901.171
900.744
900.17
899.451
898.586
897.576
896.419
895.12
893.678
892.093
890.374
888.515
886.52
884.389
882.125
879.732
877.212
874.569
871.808
868.931
865.943
862.85
859.657
856.371
852.997
849.541
846.012
842.416
838.763
835.058
831.307
827.517
823.696
819.86
816.02
812.186
808.368
804.577
800.829
797.145
793.563
790.135
786.951
784.129
781.988
781.145
782.731
11463.3
3713.82
1829.29
1006.34
624.581
459.287
374.521
323.947
290.527
267.087
250.247
238.148
229.163
223.189
220.869
222.364
227.91
236.007
253.314
286.784
345.907
450.104
625.125
813.19
951.501
1030.99
1059.91
1076.41
1057.1
981.179
909.049
847.741
798.094
756.795
724.375
697.304
674.476
655.572
640.02
627.512
617.656
610.141
604.673
600.967
598.966
598.236
598.311
599.39
601.181
603.585
606.465
609.731
613.309
617.132
621.151
625.323
629.614
633.996
638.447
642.953
647.5
652.077
656.677
661.292
665.919
670.553
675.19
679.828
684.464
689.096
693.723
698.342
702.952
707.551
712.14
716.716
721.278
725.827
730.36
734.879
739.382
743.868
748.338
752.791
757.226
761.643
766.04
770.416
774.771
779.1
783.402
787.673
791.91
796.108
800.26
804.362
808.408
812.395
816.319
820.176
823.963
827.674
831.305
834.852
838.309
841.669
844.931
848.093
851.15
854.099
856.938
859.661
862.268
864.753
867.114
869.349
871.455
873.428
875.267
876.969
878.531
879.951
881.227
882.356
883.338
884.168
884.846
885.369
885.735
885.933
885.981
885.878
885.609
885.176
884.578
883.817
882.893
881.806
880.557
879.145
877.574
875.843
873.951
871.883
869.657
867.278
864.75
862.075
859.257
856.301
853.211
849.991
846.646
843.182
839.605
835.92
832.137
828.26
824.298
820.258
816.149
811.979
807.756
803.487
799.18
794.843
790.496
786.142
781.793
777.46
773.154
768.892
764.694
760.592
756.631
752.885
749.447
746.547
744.517
744.286
11463.3
3719.73
1493.89
772.467
525.048
413.691
348.95
309.465
282.333
261.803
246.196
234.863
227.826
224.971
226.611
234.129
249.086
275.128
316.357
388.058
520.238
682.404
827.102
927.19
976.716
996.832
994.52
932.517
863.092
803.914
755.469
716.09
684.317
658.158
636.803
618.853
603.903
591.668
581.84
574.176
568.433
564.396
561.974
560.939
560.807
561.677
563.37
565.781
568.777
572.255
576.124
580.309
584.748
589.388
594.186
599.108
604.125
609.212
614.351
619.529
624.734
629.957
635.191
640.43
645.67
650.908
656.141
661.367
666.586
671.795
676.993
682.178
687.35
692.507
697.649
702.775
707.885
712.977
718.052
723.109
728.148
733.169
738.169
743.149
748.107
753.043
757.955
762.84
767.697
772.524
777.316
782.073
786.79
791.462
796.079
800.637
805.132
809.559
813.913
818.189
822.383
826.489
830.503
834.419
838.232
841.939
845.535
849.015
852.375
855.61
858.718
861.693
864.533
867.234
869.793
872.207
874.471
876.585
878.545
880.348
881.992
883.474
884.791
885.942
886.923
887.734
888.371
888.833
889.109
889.205
889.132
888.878
888.439
887.816
887.008
886.015
884.839
883.479
881.937
880.214
878.31
876.227
873.967
871.533
868.929
866.156
863.22
860.123
856.871
853.469
849.921
846.232
842.409
838.458
834.385
830.199
825.906
821.514
817.033
812.47
807.834
803.135
798.381
793.58
788.742
783.874
778.959
774.031
769.108
764.203
759.328
754.499
749.735
745.064
740.526
736.179
732.096
728.436
725.389
723.537
11463.3
3285.97
1169.82
639.078
458.742
376.867
333.333
302.753
280.018
263.006
250.183
241.517
236.963
236.519
244.242
262.474
296.701
357.519
454.344
580.437
707.453
816.008
884.44
917.237
928.244
895.034
834.514
774.135
727.155
687.926
656.567
630.84
609.675
592.045
577.379
565.147
555.117
547.091
540.881
536.316
533.226
531.639
531.149
531.578
532.942
535.119
537.993
541.466
545.444
549.844
554.594
559.629
564.897
570.35
575.951
581.665
587.467
593.334
599.247
605.193
611.161
617.141
623.126
629.11
635.087
641.054
647.01
652.951
658.879
664.792
670.687
676.562
682.417
688.252
694.065
699.856
705.625
711.371
717.094
722.791
728.46
734.102
739.72
745.315
750.885
756.429
761.944
767.43
772.883
778.3
783.677
789.009
794.29
799.513
804.675
809.769
814.79
819.732
824.591
829.359
834.032
838.604
843.067
847.418
851.649
855.755
859.732
863.574
867.277
870.834
874.243
877.499
880.597
883.535
886.308
888.913
891.348
893.608
895.692
897.596
899.318
900.855
902.204
903.364
904.33
905.102
905.678
906.051
906.214
906.184
905.951
905.513
904.868
904.015
902.955
901.687
900.212
898.531
896.646
894.557
892.267
889.777
887.092
884.213
881.146
877.893
874.461
870.853
867.075
863.133
859.033
854.782
850.386
845.852
841.189
836.405
831.508
826.508
821.414
816.235
810.982
805.664
800.291
794.873
789.419
783.94
778.444
772.944
767.453
761.982
756.544
751.155
745.833
740.604
735.5
730.571
725.871
721.517
717.587
714.361
11463.3
2724.77
982.527
586.496
442.28
373.937
335.953
311.444
293.33
279.743
271.017
268.65
273.341
286.997
312.538
357.554
428.135
518.81
618.71
714.712
789.247
834.19
855.358
855.491
806.062
754.409
707.98
668.214
637.315
611.467
590.326
572.652
557.85
545.44
535.114
526.639
519.862
514.652
510.883
508.5
507.432
507.287
508.127
509.855
512.383
515.621
519.483
523.889
528.763
534.036
539.644
545.533
551.653
557.961
564.422
571.003
577.674
584.414
591.201
598.022
604.866
611.725
618.585
625.44
632.283
639.109
645.914
652.69
659.425
666.128
672.809
679.465
686.096
692.702
699.28
705.831
712.353
718.846
725.311
731.748
738.16
744.544
750.895
757.213
763.496
769.742
775.95
782.117
788.241
794.318
800.344
806.311
812.216
818.053
823.818
829.504
835.104
840.612
846.022
851.327
856.519
861.591
866.537
871.35
876.023
880.55
884.925
889.141
893.194
897.078
900.788
904.32
907.67
910.832
913.805
916.584
919.166
921.548
923.727
925.7
927.466
929.02
930.362
931.487
932.394
933.08
933.545
933.776
933.783
933.564
933.115
932.436
931.525
930.382
929.006
927.398
925.56
923.492
921.195
918.673
915.928
912.962
909.78
906.386
902.784
898.981
894.98
890.789
886.414
881.862
877.14
872.256
867.217
862.032
856.71
851.261
845.695
840.021
834.25
828.393
822.461
816.464
810.414
804.321
798.196
792.05
785.894
779.739
773.598
767.483
761.408
755.387
749.438
743.584
737.854
732.288
726.93
721.864
717.139
712.811
11463.3
2189.65
835.789
537.503
430.364
381.124
353.595
335.237
321.994
314.831
313.028
319.714
338.414
371.973
421.867
486.671
560.472
635.989
702.081
751.069
782.218
794.771
773.829
733.871
691.654
654.747
623.569
597.704
576.677
558.85
543.861
531.164
520.455
511.508
504.163
498.294
493.804
490.604
488.707
487.975
488.126
489.247
491.25
494.055
497.592
501.787
506.57
511.877
517.644
523.81
530.317
537.113
544.152
551.393
558.805
566.356
574.009
581.739
589.524
597.34
605.157
612.955
620.758
628.561
636.358
644.14
651.902
659.641
667.361
675.058
682.725
690.352
697.937
705.478
712.975
720.426
727.831
735.19
742.504
749.771
756.99
764.164
771.293
778.375
785.41
792.398
799.335
806.221
813.052
819.825
826.535
833.176
839.743
846.229
852.629
858.935
865.14
871.236
877.216
883.07
888.791
894.37
899.8
905.072
910.18
915.115
919.871
924.441
928.819
932.999
936.977
940.747
944.305
947.647
950.769
953.667
956.34
958.783
960.994
962.972
964.712
966.214
967.475
968.491
969.262
969.785
970.057
970.076
969.839
969.347
968.6
967.596
966.335
964.816
963.04
961.007
958.719
956.177
953.384
950.343
947.058
943.531
939.769
935.776
931.558
927.121
922.472
917.619
912.568
907.329
901.909
896.317
890.563
884.656
878.606
872.424
866.122
859.71
853.2
846.605
839.935
833.203
826.421
819.601
812.754
805.891
799.026
792.17
785.334
778.533
771.779
765.088
758.475
751.963
745.576
739.347
733.31
727.533
722.031
716.69
11463.3
1974.27
811.779
540.032
445.623
404.561
383.91
372.87
368.464
368.963
378.913
399.536
431.855
474.983
526.369
581.374
633.684
677.185
710.811
730.108
733.605
705.078
673.933
641.707
612.574
587.889
566.963
549.254
534.254
521.35
510.32
500.939
493.062
486.582
481.412
477.482
474.729
473.199
472.708
473.138
474.5
476.742
479.804
483.622
488.135
493.284
499.011
505.26
511.987
519.131
526.63
534.435
542.501
550.777
559.2
567.738
576.398
585.166
594.02
602.938
611.909
620.921
629.95
638.986
648.007
656.999
665.956
674.871
683.739
692.551
701.3
709.986
718.609
727.167
735.657
744.081
752.437
760.725
768.945
777.099
785.185
793.207
801.163
809.056
816.884
824.647
832.344
839.974
847.534
855.021
862.429
869.754
876.989
884.128
891.161
898.083
904.883
911.553
918.083
924.464
930.686
936.74
942.616
948.306
953.8
959.091
964.171
969.033
973.669
978.075
982.245
986.173
989.855
993.287
996.466
999.389
1002.05
1004.46
1006.6
1008.47
1010.08
1011.42
1012.49
1013.28
1013.8
1014.05
1014.02
1013.71
1013.11
1012.23
1011.07
1009.63
1007.91
1005.9
1003.61
1001.05
998.201
995.079
991.684
988.02
984.092
979.905
975.464
970.775
965.846
960.684
955.297
949.693
943.881
937.872
931.673
925.296
918.752
912.05
905.202
898.221
891.118
883.906
876.598
869.207
861.745
854.225
846.661
839.066
831.451
823.829
816.213
808.615
801.048
793.525
786.059
778.664
771.358
764.159
757.089
750.177
743.448
736.958
730.705
724.452
11463.3
1901.73
795.717
547.508
466.158
434.575
422.071
418.309
420.224
430.325
448.784
475.289
508.519
545.803
583.407
617.437
646.323
669.744
679.948
670.577
649.268
624.648
601.074
578.962
559.499
542.621
527.927
515.144
504.038
494.406
486.148
479.184
473.45
468.899
465.487
463.17
462.011
461.789
462.512
464.15
466.666
470.035
474.197
479.086
484.651
490.841
497.602
504.871
512.556
520.636
529.102
537.92
547.051
556.458
566.113
575.981
586.012
596.18
606.462
616.817
627.221
637.65
648.076
658.474
668.837
679.157
689.423
699.624
709.755
719.804
729.767
739.64
749.418
759.099
768.683
778.167
787.551
796.836
806.021
815.11
824.103
833.001
841.808
850.523
859.15
867.689
876.139
884.499
892.769
900.945
909.023
916.997
924.86
932.606
940.224
947.706
955.042
962.222
969.234
976.068
982.711
989.155
995.388
1001.4
1007.18
1012.72
1018.01
1023.05
1027.83
1032.33
1036.56
1040.51
1044.18
1047.56
1050.66
1053.46
1055.96
1058.17
1060.09
1061.7
1063.02
1064.04
1064.76
1065.18
1065.29
1065.11
1064.62
1063.82
1062.71
1061.3
1059.58
1057.55
1055.22
1052.59
1049.65
1046.41
1042.87
1039.04
1034.91
1030.5
1025.81
1020.84
1015.61
1010.12
1004.37
998.379
992.154
985.705
979.041
972.174
965.113
957.872
950.46
942.891
935.177
927.331
919.366
911.296
903.134
894.895
886.592
878.24
869.851
861.44
853.019
844.602
836.202
827.831
819.503
811.23
803.026
794.905
786.882
778.976
771.207
763.598
756.169
748.968
741.985
734.897
11463.3
1867.96
793.793
561.907
490.45
466.308
459.509
459.257
466.751
480.52
499.55
522.299
546.755
570.591
593.054
614.296
626.866
629.354
616.352
602.694
585.354
568.218
552.109
537.162
523.689
511.635
500.895
491.407
483.115
475.977
469.96
465.038
461.19
458.405
456.746
456.11
456.372
457.547
459.598
462.492
466.178
470.565
475.653
481.471
487.997
495.192
503.012
511.414
520.373
529.838
539.746
550.046
560.698
571.675
582.93
594.409
606.059
617.831
629.686
641.606
653.568
665.547
677.517
689.454
701.341
713.162
724.902
736.549
748.09
759.516
770.816
781.985
793.018
803.909
814.658
825.261
835.719
846.033
856.204
866.233
876.125
885.883
895.51
905.009
914.385
923.639
932.774
941.789
950.685
959.461
968.111
976.631
985.013
993.25
1001.33
1009.25
1016.99
1024.54
1031.89
1039.03
1045.95
1052.62
1059.04
1065.21
1071.1
1076.71
1082.04
1087.06
1091.78
1096.19
1100.28
1104.05
1107.5
1110.62
1113.41
1115.87
1118.01
1119.81
1121.28
1122.43
1123.23
1123.73
1123.88
1123.72
1123.23
1122.39
1121.23
1119.75
1117.93
1115.79
1113.32
1110.53
1107.41
1103.97
1100.21
1096.14
1091.75
1087.05
1082.04
1076.74
1071.14
1065.26
1059.11
1052.69
1046
1039.07
1031.9
1024.51
1016.9
1009.08
1001.07
992.886
984.534
976.028
967.382
958.61
949.727
940.747
931.685
922.554
913.371
904.148
894.901
885.644
876.391
867.154
857.946
848.782
839.674
830.635
821.677
812.816
804.066
795.443
786.965
778.655
770.526
762.621
754.929
747.071
11463.3
1837.56
796.101
577.189
512.557
492.235
487.246
488.078
495.486
506.465
519.783
534.7
550.645
567.244
580.112
585.089
581.527
574.487
564.222
553.589
541.832
530.374
519.446
509.215
499.834
491.367
483.859
477.388
471.956
467.402
463.714
460.901
458.953
457.866
457.498
457.936
459.277
461.537
464.703
468.752
473.665
479.441
486.046
493.431
501.561
510.399
519.904
530.03
540.742
552.008
563.75
575.896
588.388
601.162
614.18
627.412
640.817
654.353
667.983
681.675
695.4
709.126
722.827
736.474
750.043
763.514
776.865
790.079
803.141
816.035
828.75
841.277
853.608
865.737
877.66
889.375
900.883
912.183
923.28
934.177
944.878
955.39
965.718
975.869
985.849
995.664
1005.32
1014.81
1024.15
1033.33
1042.35
1051.21
1059.89
1068.4
1076.72
1084.84
1092.75
1100.43
1107.87
1115.05
1121.98
1128.62
1134.96
1141.01
1146.74
1152.14
1157.21
1161.93
1166.3
1170.32
1173.98
1177.28
1180.21
1182.77
1184.97
1186.8
1188.27
1189.36
1190.11
1190.5
1190.5
1190.2
1189.52
1188.48
1187.1
1185.37
1183.29
1180.87
1178.11
1175
1171.55
1167.76
1163.64
1159.19
1154.4
1149.29
1143.86
1138.11
1132.05
1125.69
1119.04
1112.1
1104.88
1097.39
1089.65
1081.66
1073.43
1064.99
1056.33
1047.48
1038.44
1029.23
1019.87
1010.36
1000.73
990.978
981.131
971.201
961.201
951.148
941.056
930.94
920.816
910.696
900.596
890.528
880.505
870.54
860.647
850.839
841.126
831.524
822.047
812.711
803.53
794.524
785.705
777.111
768.734
760.166
11463.3
1827.26
802.232
589.822
527.381
506.646
499.949
498.561
501.555
508.376
517.942
528.893
538.455
542.798
543.312
540.32
537.076
532.344
526.634
520.668
514.404
508.441
502.631
496.968
491.59
486.603
482.041
477.834
473.986
470.893
468.641
467.291
466.835
467.298
468.735
471.124
474.452
478.718
483.91
490.017
497.023
504.921
513.679
523.252
533.592
544.675
556.444
568.821
581.739
595.114
608.907
623.078
637.579
652.362
667.383
682.603
697.981
713.478
729.054
744.673
760.298
775.896
791.434
806.878
822.2
837.371
852.366
867.162
881.738
896.077
910.161
923.98
937.523
950.781
963.752
976.432
988.821
1000.92
1012.74
1024.28
1035.55
1046.55
1057.31
1067.82
1078.1
1088.16
1098.01
1107.64
1117.08
1126.31
1135.34
1144.16
1152.78
1161.17
1169.34
1177.27
1184.94
1192.35
1199.48
1206.31
1212.83
1219.02
1224.88
1230.39
1235.53
1240.31
1244.7
1248.7
1252.31
1255.53
1258.35
1260.76
1262.76
1264.35
1265.57
1266.38
1266.79
1266.77
1266.45
1265.71
1264.57
1263.07
1261.21
1258.97
1256.37
1253.42
1250.11
1246.45
1242.44
1238.08
1233.37
1228.33
1222.95
1217.23
1211.19
1204.82
1198.14
1191.14
1183.83
1176.23
1168.35
1160.18
1151.75
1143.06
1134.12
1124.96
1115.56
1105.97
1096.17
1086.2
1076.06
1065.76
1055.33
1044.77
1034.11
1023.35
1012.5
1001.6
990.642
979.651
968.642
957.628
946.624
935.644
924.701
913.808
902.979
892.225
881.56
870.996
860.545
850.219
840.033
830
820.134
810.454
800.966
791.709
782.674
773.46
11463.3
1814.91
804.562
595.794
532.026
508.341
498.685
495.432
495.209
498.043
500.632
503.354
505.471
507.597
511.202
513.739
515.463
516.108
516.085
514.999
512.975
509.915
506.39
502.935
499.739
496.931
494.602
492.879
491.914
491.7
492.317
493.832
496.272
499.666
504.055
509.425
515.748
523.004
531.174
540.241
550.187
561.002
572.676
585.178
598.396
612.226
626.604
641.494
656.847
672.611
688.736
705.181
721.9
738.852
755.994
773.288
790.694
808.171
825.681
843.184
860.64
878.012
895.261
912.352
929.248
945.918
962.33
978.458
994.275
1009.76
1024.9
1039.67
1054.06
1068.06
1081.67
1094.89
1107.72
1120.16
1132.22
1143.9
1155.23
1166.2
1176.85
1187.17
1197.19
1206.92
1216.38
1225.57
1234.5
1243.19
1251.62
1259.8
1267.73
1275.4
1282.79
1289.91
1296.73
1303.25
1309.44
1315.29
1320.79
1325.92
1330.67
1335.04
1339
1342.55
1345.68
1348.38
1350.64
1352.49
1353.91
1354.88
1355.42
1355.49
1355.22
1354.51
1353.36
1351.8
1349.86
1347.52
1344.79
1341.69
1338.21
1334.37
1330.17
1325.61
1320.7
1315.44
1309.84
1303.91
1297.64
1291.04
1284.12
1276.87
1269.31
1261.44
1253.27
1244.81
1236.06
1227.03
1217.74
1208.18
1198.39
1188.36
1178.11
1167.65
1156.99
1146.15
1135.14
1123.98
1112.68
1101.25
1089.71
1078.07
1066.35
1054.56
1042.71
1030.83
1018.92
1007
995.092
983.198
971.337
959.521
947.765
936.079
924.476
912.968
901.567
890.283
879.128
868.115
857.254
846.56
836.045
825.726
815.606
805.725
796.072
786.281
11463.3
1806.54
804.262
595.274
528.974
501.154
486.509
478.778
475.956
476.784
482.778
490.396
498.686
506.78
513.7
519.496
524.403
528.315
531.376
533.556
535.053
536.244
537.349
538.541
539.974
541.788
544.095
547.039
550.722
555.154
560.386
566.459
573.391
581.21
589.928
599.545
610.038
621.381
633.544
646.498
660.224
674.75
689.975
705.764
722.078
738.858
756.048
773.6
791.469
809.609
827.981
846.544
865.264
884.104
903.029
922.006
940.998
959.968
978.879
997.69
1016.36
1034.86
1053.14
1071.16
1088.88
1106.28
1123.31
1139.94
1156.16
1171.93
1187.24
1202.07
1216.4
1230.24
1243.56
1256.38
1268.7
1280.53
1291.87
1302.73
1313.15
1323.12
1332.68
1341.84
1350.63
1359.06
1367.15
1374.93
1382.39
1389.56
1396.44
1403.02
1409.31
1415.3
1420.98
1426.35
1431.4
1436.1
1440.44
1444.41
1448
1451.19
1453.96
1456.34
1458.3
1459.8
1460.86
1461.46
1461.59
1461.35
1460.65
1459.46
1457.84
1455.78
1453.31
1450.43
1447.13
1443.42
1439.33
1434.86
1430.01