/*--------------------------------*- C++ -*----------------------------------*\
  =========                 |
  \\      /  F ield         | OpenFOAM: The Open Source CFD Toolbox
   \\    /   O peration     | Website:  https://openfoam.org
    \\  /    A nd           | Version:  8
     \\/     M anipulation  |
\*---------------------------------------------------------------------------*/
FoamFile
{
    version     2.0;
    format      ascii;
    class       surfaceScalarField;
    location    "400";
    object      phi;
}
// * * * * * * * * * * * * * * * * * * * * * * * * * * * * * * * * * * * * * //

dimensions      [0 3 -1 0 0 0 0];

internalField   nonuniform List<scalar> 
24170
(
3.05979e-06
7.40378e-08
2.94594e-06
1.13894e-07
2.85541e-06
9.09299e-08
2.77084e-06
8.48522e-08
2.69107e-06
8.00719e-08
2.62112e-06
7.02024e-08
2.56002e-06
6.12828e-08
2.50581e-06
5.39408e-08
2.45912e-06
4.64382e-08
2.41937e-06
3.94871e-08
2.38497e-06
3.43256e-08
2.35457e-06
3.03259e-08
2.32896e-06
2.55243e-08
2.30665e-06
2.22343e-08
2.28603e-06
2.05315e-08
2.26628e-06
1.97067e-08
2.24887e-06
1.73853e-08
1.70065e-08
2.23193e-06
3.50547e-06
2.53268e-08
3.5289e-06
9.22765e-08
3.52825e-06
9.29963e-08
3.51988e-06
9.4214e-08
3.50426e-06
9.64879e-08
3.48224e-06
9.27872e-08
3.45465e-06
8.91606e-08
3.42636e-06
8.2109e-08
3.39729e-06
7.52909e-08
3.36641e-06
7.0107e-08
3.33588e-06
6.46825e-08
3.30654e-06
5.94769e-08
3.2798e-06
5.21086e-08
3.25596e-06
4.58993e-08
3.2344e-06
4.19361e-08
3.21425e-06
3.96914e-08
3.19439e-06
3.71537e-08
3.70798e-08
3.17413e-06
3.81376e-06
2.37761e-08
3.83296e-06
7.2771e-08
3.8459e-06
7.99875e-08
3.85642e-06
8.37921e-08
3.86401e-06
8.90778e-08
3.86733e-06
8.96646e-08
3.86832e-06
8.82674e-08
3.86661e-06
8.37449e-08
3.86208e-06
7.97293e-08
3.85592e-06
7.62365e-08
3.84841e-06
7.22482e-08
3.83987e-06
6.80481e-08
3.83012e-06
6.19032e-08
3.82009e-06
5.59569e-08
3.81034e-06
5.16923e-08
3.80117e-06
4.88412e-08
3.7921e-06
4.62312e-08
4.49128e-08
3.78436e-06
4.20412e-06
2.43248e-08
4.21704e-06
6.07807e-08
4.22634e-06
7.15105e-08
4.23456e-06
7.63139e-08
4.24224e-06
8.20376e-08
4.2482e-06
8.42142e-08
4.25315e-06
8.35935e-08
4.25665e-06
8.03468e-08
4.25901e-06
7.73814e-08
4.26078e-06
7.45172e-08
4.26188e-06
7.11725e-08
4.26246e-06
6.75002e-08
4.26188e-06
6.24879e-08
4.26033e-06
5.75112e-08
4.25848e-06
5.35174e-08
4.25685e-06
5.04405e-08
4.25526e-06
4.78209e-08
4.56077e-08
4.25447e-06
4.63948e-06
2.21927e-08
4.64877e-06
5.10952e-08
4.65591e-06
6.41531e-08
4.66227e-06
6.9863e-08
4.66886e-06
7.54892e-08
4.67485e-06
7.82813e-08
4.68031e-06
7.81647e-08
4.68478e-06
7.58315e-08
4.68861e-06
7.3524e-08
4.69212e-06
7.10217e-08
4.69532e-06
6.80405e-08
4.69823e-06
6.46421e-08
4.70038e-06
6.03904e-08
4.7018e-06
5.61141e-08
4.70287e-06
5.24513e-08
4.70393e-06
4.93688e-08
4.70511e-06
4.66382e-08
4.40543e-08
4.70693e-06
5.11779e-06
1.90234e-08
5.12503e-06
4.43579e-08
5.13155e-06
5.81413e-08
5.13751e-06
6.44039e-08
5.14377e-06
6.96896e-08
5.14978e-06
7.26173e-08
5.15536e-06
7.28166e-08
5.16016e-06
7.11316e-08
5.16453e-06
6.92375e-08
5.16865e-06
6.69664e-08
5.17252e-06
6.42227e-08
5.17615e-06
6.10452e-08
5.17922e-06
5.73273e-08
5.18176e-06
5.35625e-08
5.18399e-06
5.01817e-08
5.18615e-06
4.71671e-08
5.18847e-06
4.43907e-08
4.1388e-08
5.19102e-06
5.644e-06
1.60309e-08
5.65025e-06
3.77112e-08
5.65675e-06
5.13239e-08
5.66278e-06
5.82337e-08
5.669e-06
6.34321e-08
5.67511e-06
6.65251e-08
5.6808e-06
6.71095e-08
5.68589e-06
6.60289e-08
5.69063e-06
6.44807e-08
5.69516e-06
6.24818e-08
5.69943e-06
5.99828e-08
5.70344e-06
5.70784e-08
5.707e-06
5.37745e-08
5.71014e-06
5.0421e-08
5.713e-06
4.72834e-08
5.71578e-06
4.43727e-08
5.71859e-06
4.15228e-08
3.86105e-08
5.72155e-06
4.40796e-06
1.41469e-08
4.41211e-06
3.38214e-08
4.4168e-06
4.68923e-08
4.42127e-06
5.40873e-08
4.42579e-06
5.92049e-08
4.43028e-06
6.2275e-08
4.43451e-06
6.30228e-08
4.43837e-06
6.22628e-08
4.442e-06
6.09172e-08
4.44545e-06
5.9095e-08
4.4487e-06
5.67633e-08
4.45175e-06
5.40447e-08
4.45452e-06
5.09916e-08
4.45704e-06
4.78828e-08
4.45938e-06
4.49018e-08
4.46164e-06
4.20844e-08
4.46389e-06
3.9313e-08
3.64034e-08
4.46608e-06
5.14161e-06
1.24229e-08
5.1458e-06
2.92967e-08
5.15073e-06
4.17354e-08
5.15558e-06
4.91303e-08
5.16053e-06
5.426e-08
5.16548e-06
5.73367e-08
5.1702e-06
5.83352e-08
5.17456e-06
5.7901e-08
5.1787e-06
5.68077e-08
5.18264e-06
5.51798e-08
5.18637e-06
5.30626e-08
5.18986e-06
5.05534e-08
5.19309e-06
4.77656e-08
5.19604e-06
4.48757e-08
5.19881e-06
4.20966e-08
5.20146e-06
3.93819e-08
5.20404e-06
3.66868e-08
3.39746e-08
5.20655e-06
5.99744e-06
1.06882e-08
6.0016e-06
2.51999e-08
6.00669e-06
3.67613e-08
6.01188e-06
4.40743e-08
6.01724e-06
4.90571e-08
6.02264e-06
5.20585e-08
6.02785e-06
5.32227e-08
6.03275e-06
5.3056e-08
6.03744e-06
5.21815e-08
6.04191e-06
5.07428e-08
6.04616e-06
4.88397e-08
6.05015e-06
4.65597e-08
6.05386e-06
4.40121e-08
6.05732e-06
4.14311e-08
6.06053e-06
3.88063e-08
6.06361e-06
3.62869e-08
6.06659e-06
3.37464e-08
3.11923e-08
6.06942e-06
6.99586e-06
9.13966e-09
6.9999e-06
2.10431e-08
7.00507e-06
3.15361e-08
7.01057e-06
3.86067e-08
7.0163e-06
4.33753e-08
7.02215e-06
4.62843e-08
7.02785e-06
4.75606e-08
7.03331e-06
4.76617e-08
7.03856e-06
4.69674e-08
7.04359e-06
4.57495e-08
7.04838e-06
4.40507e-08
7.05289e-06
4.20159e-08
7.05717e-06
3.97972e-08
7.06112e-06
3.74316e-08
7.06486e-06
3.51013e-08
7.06838e-06
3.27379e-08
7.07178e-06
3.04057e-08
2.80343e-08
7.07497e-06
8.16053e-06
7.55506e-09
8.16443e-06
1.71366e-08
8.16964e-06
2.63402e-08
8.1754e-06
3.28902e-08
8.18149e-06
3.73371e-08
8.18776e-06
4.00615e-08
8.19398e-06
4.14151e-08
8.19999e-06
4.16332e-08
8.20583e-06
4.1192e-08
8.21142e-06
4.01285e-08
8.21678e-06
3.87083e-08
8.22188e-06
3.69425e-08
8.2267e-06
3.50157e-08
8.23124e-06
3.29491e-08
8.23549e-06
3.08656e-08
8.23952e-06
2.87398e-08
8.24332e-06
2.66227e-08
2.45172e-08
8.24693e-06
9.51921e-06
6.11268e-09
9.52294e-06
1.34299e-08
9.52814e-06
2.11925e-08
9.53411e-06
2.69799e-08
9.54054e-06
3.09677e-08
9.54725e-06
3.34409e-08
9.55395e-06
3.46984e-08
9.56057e-06
3.50956e-08
9.56695e-06
3.47348e-08
9.57319e-06
3.39607e-08
9.57911e-06
3.27315e-08
9.58486e-06
3.13182e-08
9.59025e-06
2.96353e-08
9.59541e-06
2.79211e-08
9.60017e-06
2.60505e-08
9.60474e-06
2.42349e-08
9.60899e-06
2.23327e-08
2.05245e-08
9.61298e-06
1.11041e-05
4.65892e-09
1.11077e-05
9.83741e-09
1.11129e-05
1.60187e-08
1.11191e-05
2.0822e-08
1.11258e-05
2.42174e-08
1.1133e-05
2.63442e-08
1.11402e-05
2.75057e-08
1.11474e-05
2.78865e-08
1.11545e-05
2.77221e-08
1.11613e-05
2.70912e-08
1.11679e-05
2.61795e-08
1.11742e-05
2.49908e-08
1.11803e-05
2.36758e-08
1.1186e-05
2.21881e-08
1.11914e-05
2.06849e-08
1.11964e-05
1.91035e-08
1.12013e-05
1.75663e-08
1.60157e-08
1.12056e-05
1.2953e-05
3.23768e-09
1.29566e-05
6.22784e-09
1.29617e-05
1.07134e-08
1.29681e-05
1.43888e-08
1.29752e-05
1.70497e-08
1.29828e-05
1.87509e-08
1.29906e-05
1.97122e-08
1.29984e-05
2.00854e-08
1.30062e-05
2.00053e-08
1.30137e-05
1.95726e-08
1.3021e-05
1.88862e-08
1.3028e-05
1.79971e-08
1.30347e-05
1.69663e-08
1.30411e-05
1.58292e-08
1.30471e-05
1.46404e-08
1.30528e-05
1.342e-08
1.30581e-05
1.22076e-08
1.10289e-08
1.30631e-05
1.51099e-05
1.79262e-09
1.51134e-05
2.48433e-09
1.51188e-05
5.27131e-09
1.51254e-05
7.61403e-09
1.5133e-05
9.42211e-09
1.51411e-05
1.05978e-08
1.51495e-05
1.12868e-08
1.51581e-05
1.15779e-08
1.51665e-05
1.1554e-08
1.51748e-05
1.1284e-08
1.51829e-05
1.08266e-08
1.51907e-05
1.02273e-08
1.51981e-05
9.52001e-09
1.52052e-05
8.74134e-09
1.52119e-05
7.91922e-09
1.52182e-05
7.0789e-09
1.52241e-05
6.24115e-09
5.44255e-09
1.52297e-05
1.76259e-05
2.95723e-10
1.76298e-05
-1.33729e-09
1.76354e-05
-4.40067e-10
1.76426e-05
4.51527e-10
1.76508e-05
1.21582e-09
1.76597e-05
1.73432e-09
1.76689e-05
2.07586e-09
1.76783e-05
2.20808e-09
1.76876e-05
2.23291e-09
1.76968e-05
2.09233e-09
1.77058e-05
1.89485e-09
1.77144e-05
1.57828e-09
1.77227e-05
1.23905e-09
1.77306e-05
8.24423e-10
1.77381e-05
4.13439e-10
1.77453e-05
-3.52971e-11
1.77519e-05
-4.5923e-10
-8.74408e-10
1.77583e-05
1.78277e-05
-1.10228e-09
1.78316e-05
-4.90153e-09
1.78372e-05
-5.83517e-09
1.78442e-05
-6.45615e-09
1.78522e-05
-6.74824e-09
1.7861e-05
-6.87034e-09
1.787e-05
-6.94576e-09
1.78792e-05
-6.91083e-09
1.78883e-05
-6.9252e-09
1.78974e-05
-6.85586e-09
1.79061e-05
-6.88115e-09
1.79147e-05
-6.83775e-09
1.79227e-05
-6.89515e-09
1.79306e-05
-6.8888e-09
1.79378e-05
-6.96633e-09
1.79449e-05
-6.9799e-09
1.79514e-05
-7.05865e-09
-7.06289e-09
1.79577e-05
1.58827e-05
-2.40286e-09
1.58865e-05
-8.11034e-09
1.58917e-05
-1.07625e-08
1.58982e-05
-1.26687e-08
1.59055e-05
-1.39064e-08
1.59133e-05
-1.46118e-08
1.59215e-05
-1.4958e-08
1.59296e-05
-1.50775e-08
1.59378e-05
-1.49839e-08
1.59457e-05
-1.48291e-08
1.59536e-05
-1.45529e-08
1.59609e-05
-1.43089e-08
1.59682e-05
-1.39857e-08
1.59749e-05
-1.37226e-08
1.59815e-05
-1.33999e-08
1.59875e-05
-1.31411e-08
1.59934e-05
-1.28286e-08
-1.25729e-08
1.59988e-05
1.41501e-05
-3.63174e-09
1.41537e-05
-1.14379e-08
1.41589e-05
-1.56085e-08
1.41651e-05
-1.87696e-08
1.4172e-05
-2.06775e-08
1.41793e-05
-2.18053e-08
1.41868e-05
-2.23732e-08
1.41944e-05
-2.25123e-08
1.42017e-05
-2.23472e-08
1.4209e-05
-2.19702e-08
1.42159e-05
-2.1497e-08
1.42226e-05
-2.09362e-08
1.42289e-05
-2.03598e-08
1.42351e-05
-1.97512e-08
1.42408e-05
-1.91632e-08
1.42463e-05
-1.8562e-08
1.42514e-05
-1.79953e-08
-1.74175e-08
1.42563e-05
1.26064e-05
-4.97026e-09
1.26102e-05
-1.49055e-08
1.26154e-05
-2.06257e-08
1.26216e-05
-2.47282e-08
1.26282e-05
-2.72733e-08
1.26352e-05
-2.87047e-08
1.26423e-05
-2.93871e-08
1.26493e-05
-2.94639e-08
1.26561e-05
-2.9138e-08
1.26626e-05
-2.85341e-08
1.26689e-05
-2.77947e-08
1.2675e-05
-2.69381e-08
1.26807e-05
-2.60762e-08
1.26862e-05
-2.51645e-08
1.26913e-05
-2.43014e-08
1.26962e-05
-2.34098e-08
1.27008e-05
-2.25838e-08
-2.17536e-08
1.27051e-05
1.12312e-05
-6.13518e-09
1.12352e-05
-1.88104e-08
1.12406e-05
-2.59727e-08
1.12467e-05
-3.0936e-08
1.12532e-05
-3.37288e-08
1.12599e-05
-3.53635e-08
1.12666e-05
-3.60788e-08
1.12732e-05
-3.60347e-08
1.12795e-05
-3.54542e-08
1.12855e-05
-3.45985e-08
1.12913e-05
-3.35432e-08
1.12968e-05
-3.24306e-08
1.1302e-05
-3.1227e-08
1.13068e-05
-3.00714e-08
1.13115e-05
-2.88746e-08
1.13158e-05
-2.77751e-08
1.132e-05
-2.66466e-08
-2.56386e-08
1.13238e-05
1.00058e-05
-7.36701e-09
1.00102e-05
-2.28931e-08
1.00159e-05
-3.16519e-08
1.0022e-05
-3.7013e-08
1.00283e-05
-4.00781e-08
1.00348e-05
-4.18373e-08
1.00412e-05
-4.24792e-08
1.00474e-05
-4.2199e-08
1.00533e-05
-4.13673e-08
1.00589e-05
-4.01956e-08
1.00641e-05
-3.8858e-08
1.00691e-05
-3.74014e-08
1.00738e-05
-3.59466e-08
1.00783e-05
-3.44718e-08
1.00824e-05
-3.30677e-08
1.00864e-05
-3.16648e-08
1.009e-05
-3.0367e-08
-2.90821e-08
1.00936e-05
8.91419e-06
-8.1043e-09
8.91886e-06
-2.74372e-08
8.92477e-06
-3.76944e-08
8.93077e-06
-4.32513e-08
8.93697e-06
-4.63235e-08
8.94329e-06
-4.81629e-08
8.94944e-06
-4.86208e-08
8.95529e-06
-4.80415e-08
8.96082e-06
-4.68767e-08
8.96602e-06
-4.54025e-08
8.97092e-06
-4.37403e-08
8.9755e-06
-4.20151e-08
8.97981e-06
-4.02498e-08
8.98385e-06
-3.85284e-08
8.98767e-06
-3.68347e-08
8.99122e-06
-3.52395e-08
8.9946e-06
-3.36948e-08
-3.22503e-08
8.99773e-06
7.94112e-06
-8.60742e-09
7.94676e-06
-3.3104e-08
7.95259e-06
-4.36128e-08
7.95822e-06
-4.89016e-08
7.96431e-06
-5.2553e-08
7.97064e-06
-5.45384e-08
7.97674e-06
-5.47107e-08
7.98247e-06
-5.37503e-08
7.98783e-06
-5.22279e-08
7.99283e-06
-5.03845e-08
7.99746e-06
-4.838e-08
8.00177e-06
-4.63008e-08
8.00577e-06
-4.42481e-08
8.00952e-06
-4.22288e-08
8.01299e-06
-4.03083e-08
8.01624e-06
-3.84597e-08
8.01927e-06
-3.6719e-08
-3.50676e-08
8.02215e-06
7.07275e-06
-6.9335e-09
7.08005e-06
-4.04541e-08
7.08624e-06
-5.01036e-08
7.09193e-06
-5.48347e-08
7.09831e-06
-5.90317e-08
7.10488e-06
-6.11311e-08
7.11111e-06
-6.09474e-08
7.11692e-06
-5.95207e-08
7.12231e-06
-5.75943e-08
7.12723e-06
-5.52932e-08
7.13172e-06
-5.28489e-08
7.1358e-06
-5.03825e-08
7.13954e-06
-4.79525e-08
7.14293e-06
-4.56023e-08
7.14604e-06
-4.33636e-08
7.14888e-06
-4.12622e-08
7.15148e-06
-3.92751e-08
-3.73952e-08
7.15386e-06
6.29801e-06
-2.48642e-09
6.30565e-06
-4.88799e-08
6.31397e-06
-5.83432e-08
6.32214e-06
-6.31139e-08
6.33035e-06
-6.73926e-08
6.33795e-06
-6.87916e-08
6.34467e-06
-6.76538e-08
6.35057e-06
-6.54816e-08
6.35586e-06
-6.27971e-08
6.36046e-06
-5.98793e-08
6.36445e-06
-5.68303e-08
6.36791e-06
-5.38085e-08
6.37088e-06
-5.08775e-08
6.37341e-06
-4.8097e-08
6.37556e-06
-4.54798e-08
6.37738e-06
-4.30411e-08
6.37894e-06
-4.07842e-08
-3.87268e-08
6.38032e-06
5.61746e-06
-5.26441e-09
5.62075e-06
-5.30184e-08
5.63075e-06
-6.85608e-08
5.6429e-06
-7.54182e-08
5.65448e-06
-7.91541e-08
5.6644e-06
-7.87726e-08
5.67217e-06
-7.54841e-08
5.67796e-06
-7.12712e-08
5.68207e-06
-6.68546e-08
5.68469e-06
-6.24512e-08
5.68604e-06
-5.81672e-08
5.68638e-06
-5.41084e-08
5.68588e-06
-5.03349e-08
5.68469e-06
-4.68635e-08
5.68295e-06
-4.36938e-08
5.6808e-06
-4.08333e-08
5.67833e-06
-3.82674e-08
-3.60071e-08
5.67567e-06
5.05416e-06
-5.73492e-08
5.05969e-06
-5.96245e-08
5.06971e-06
-7.88956e-08
5.07637e-06
-8.22748e-08
5.07862e-06
-8.16038e-08
5.07647e-06
-7.67168e-08
5.07023e-06
-6.93104e-08
5.06051e-06
-6.15613e-08
5.04815e-06
-5.44177e-08
5.03385e-06
-4.81068e-08
5.01831e-06
-4.26044e-08
5.00209e-06
-3.78427e-08
4.98557e-06
-3.37583e-08
4.96903e-06
-3.02636e-08
4.95266e-06
-2.72686e-08
4.93663e-06
-2.47451e-08
4.9211e-06
-2.26853e-08
-2.15078e-08
4.90664e-06
4.39915e-06
4.33949e-06
4.26058e-06
4.17828e-06
4.09667e-06
4.01994e-06
3.95063e-06
3.88908e-06
3.83467e-06
3.78656e-06
3.74397e-06
3.70613e-06
3.67239e-06
3.64214e-06
3.61488e-06
3.59015e-06
3.56747e-06
3.54598e-06
-7.93525e-09
7.9387e-09
-2.13532e-08
1.34169e-08
-3.57081e-08
1.43516e-08
-4.73969e-08
1.16956e-08
-5.15147e-08
4.09648e-09
-4.31798e-08
-8.29867e-09
-2.17831e-08
-2.14358e-08
9.80037e-09
-3.1536e-08
4.69097e-08
-3.7148e-08
8.49728e-08
-3.80328e-08
1.19786e-07
-3.48268e-08
1.48601e-07
-2.88042e-08
1.69622e-07
-2.10121e-08
1.81863e-07
-1.22521e-08
1.85015e-07
-3.11968e-09
1.79181e-07
5.80825e-09
1.65377e-07
1.38403e-08
1.45051e-07
2.02923e-08
1.20495e-07
2.45917e-08
9.41726e-08
2.62906e-08
6.90112e-08
2.5205e-08
4.74351e-08
2.15465e-08
3.15264e-08
1.59535e-08
2.22662e-08
9.22473e-09
2.04127e-08
1.90831e-09
2.57595e-08
-5.37842e-09
3.84669e-08
-1.2663e-08
5.77656e-08
-1.92969e-08
8.10927e-08
-2.32951e-08
1.03363e-07
-2.22374e-08
1.2036e-07
-1.69818e-08
1.31503e-07
-1.11119e-08
1.38183e-07
-6.70484e-09
1.43103e-07
-4.90198e-09
1.41003e-07
1.98436e-09
1.2311e-07
1.79327e-08
8.1761e-08
4.10964e-08
1.45675e-08
6.72285e-08
-7.65089e-08
9.08374e-08
-1.88036e-07
1.11532e-07
-3.17783e-07
1.29648e-07
-4.60789e-07
1.4293e-07
-6.11735e-07
1.50933e-07
-7.66055e-07
1.54214e-07
-9.19256e-07
1.53222e-07
-1.06761e-06
1.48283e-07
-1.20806e-06
1.40457e-07
-1.33962e-06
1.31522e-07
-1.46093e-06
1.21319e-07
-1.57345e-06
1.12519e-07
-1.67497e-06
1.01516e-07
-1.76559e-06
9.06276e-08
-1.84799e-06
8.24059e-08
-1.92219e-06
7.4201e-08
-1.98888e-06
6.6685e-08
-2.04821e-06
5.9335e-08
-2.1022e-06
5.39768e-08
-2.15178e-06
4.95929e-08
-2.19718e-06
4.53792e-08
-2.23902e-06
4.18492e-08
-2.27785e-06
3.88138e-08
-2.31403e-06
3.61984e-08
-2.34797e-06
3.39316e-08
-2.3799e-06
3.19485e-08
-2.41012e-06
3.02047e-08
-2.43876e-06
2.86589e-08
-2.46605e-06
2.72733e-08
-2.49205e-06
2.60256e-08
-2.51695e-06
2.48831e-08
-2.54077e-06
2.38365e-08
-2.56364e-06
2.28577e-08
-2.58557e-06
2.19436e-08
-2.60666e-06
2.10711e-08
-2.62688e-06
2.02423e-08
-2.64634e-06
1.94354e-08
-2.66498e-06
1.86559e-08
-2.68289e-06
1.78844e-08
-2.70001e-06
1.71276e-08
-2.7164e-06
1.63679e-08
-2.73201e-06
1.56123e-08
-2.74689e-06
1.48449e-08
-2.76097e-06
1.40723e-08
-2.77428e-06
1.32807e-08
-2.78677e-06
1.2475e-08
-2.79845e-06
1.16431e-08
-2.80925e-06
1.0787e-08
-2.81918e-06
9.89713e-09
-2.82817e-06
8.97101e-09
-2.83619e-06
7.99794e-09
-2.84318e-06
6.9794e-09
-2.84908e-06
5.89663e-09
-2.85382e-06
4.74675e-09
-2.85734e-06
3.51542e-09
-2.85954e-06
2.19699e-09
-2.86038e-06
8.26063e-10
-2.85991e-06
-4.94572e-10
-2.85827e-06
-1.66856e-09
-2.85556e-06
-2.75801e-09
-2.85175e-06
-3.83688e-09
-2.84686e-06
-4.92856e-09
-2.84085e-06
-6.03365e-09
-2.83372e-06
-7.16041e-09
-2.82543e-06
-8.3021e-09
-2.81598e-06
-9.46438e-09
-2.80535e-06
-1.06402e-08
-2.79353e-06
-1.18339e-08
-2.78049e-06
-1.30392e-08
-2.76624e-06
-1.42593e-08
-2.75075e-06
-1.54888e-08
-2.73403e-06
-1.67302e-08
-2.71606e-06
-1.79788e-08
-2.69683e-06
-1.92367e-08
-2.67634e-06
-2.04994e-08
-2.65458e-06
-2.17692e-08
-2.63155e-06
-2.30412e-08
-2.60726e-06
-2.43184e-08
-2.58168e-06
-2.55951e-08
-2.55484e-06
-2.68755e-08
-2.52671e-06
-2.81522e-08
-2.49731e-06
-2.94313e-08
-2.46664e-06
-3.0703e-08
-2.43471e-06
-3.19759e-08
-2.4015e-06
-3.32373e-08
-2.36704e-06
-3.44985e-08
-2.33133e-06
-3.57444e-08
-2.29438e-06
-3.69884e-08
-2.25619e-06
-3.82127e-08
-2.21679e-06
-3.94319e-08
-2.17617e-06
-4.06272e-08
-2.13436e-06
-4.18125e-08
-2.09136e-06
-4.29672e-08
-2.04721e-06
-4.41077e-08
-2.00195e-06
-4.52225e-08
-1.95561e-06
-4.63291e-08
-1.90819e-06
-4.74025e-08
-1.85972e-06
-4.84547e-08
-1.8102e-06
-4.94671e-08
-1.75968e-06
-5.04454e-08
-1.70821e-06
-5.13947e-08
-1.65585e-06
-5.23026e-08
-1.60261e-06
-5.31765e-08
-1.54853e-06
-5.40119e-08
-1.49364e-06
-5.48004e-08
-1.43801e-06
-5.55415e-08
-1.38167e-06
-5.6239e-08
-1.32469e-06
-5.68927e-08
-1.26713e-06
-5.7512e-08
-1.20902e-06
-5.80861e-08
-1.15042e-06
-5.86162e-08
-1.09138e-06
-5.90887e-08
-1.03193e-06
-5.95074e-08
-9.72144e-07
-5.98669e-08
-9.12066e-07
-6.01766e-08
-8.51744e-07
-6.04288e-08
-7.91234e-07
-6.06339e-08
-7.30577e-07
-6.07838e-08
-6.69827e-07
-6.08908e-08
-6.0902e-07
-6.09457e-08
-5.4821e-07
-6.09633e-08
-4.87423e-07
-6.0935e-08
-4.26709e-07
-6.08741e-08
-3.66087e-07
-6.07744e-08
-3.05602e-07
-6.06492e-08
-2.45267e-07
-6.04872e-08
-1.85117e-07
-6.03125e-08
-1.25137e-07
-6.01258e-08
-6.5353e-08
-5.99351e-08
-5.84903e-09
-5.96362e-08
5.34398e-08
-5.94215e-08
1.12532e-07
-5.9203e-08
1.7118e-07
-5.87567e-08
2.29285e-07
-5.82013e-08
2.86705e-07
-5.7514e-08
3.43225e-07
-5.66065e-08
3.9846e-07
-5.53189e-08
4.51725e-07
-5.3345e-08
5.01754e-07
-5.01011e-08
5.45744e-07
-4.40541e-08
5.79645e-07
-3.39503e-08
5.64366e-09
5.73951e-07
-3.85193e-09
1.17935e-08
-9.92686e-09
1.94791e-08
-1.17716e-08
1.6171e-08
-1.90618e-09
1.83792e-09
2.30168e-08
-2.08606e-08
6.07988e-08
-4.6055e-08
1.05957e-07
-6.66195e-08
1.52909e-07
-7.84645e-08
1.96937e-07
-8.11925e-08
2.35289e-07
-7.63679e-08
2.66627e-07
-6.61666e-08
2.90481e-07
-5.26521e-08
3.06906e-07
-3.74264e-08
3.16253e-07
-2.1604e-08
3.19127e-07
-5.9771e-09
3.16018e-07
8.90442e-09
3.07266e-07
2.26102e-08
2.92954e-07
3.45822e-08
2.73497e-07
4.40644e-08
2.49589e-07
5.01813e-08
2.22724e-07
5.20883e-08
1.95028e-07
4.92184e-08
1.69445e-07
4.15573e-08
1.48966e-07
2.96663e-08
1.36217e-07
1.46744e-08
1.32742e-07
-1.93954e-09
1.37708e-07
-1.76173e-08
1.4648e-07
-2.80744e-08
1.52897e-07
-2.96983e-08
1.51309e-07
-2.06277e-08
1.3808e-07
-3.75008e-09
1.08229e-07
1.87622e-08
5.30043e-08
4.84872e-08
-3.59194e-08
8.40115e-08
-1.56943e-07
1.22966e-07
-3.0093e-07
1.61923e-07
-4.58697e-07
1.98832e-07
-6.2365e-07
2.32197e-07
-7.92073e-07
2.59232e-07
-9.59526e-07
2.78985e-07
-1.12112e-06
2.91217e-07
-1.27348e-06
2.95241e-07
-1.41357e-06
2.90997e-07
-1.5394e-06
2.8e-07
-1.65031e-06
2.64119e-07
-1.74706e-06
2.45008e-07
-1.83089e-06
2.24284e-07
-1.90289e-06
2.0352e-07
-1.96519e-06
1.83612e-07
-2.01793e-06
1.65262e-07
-2.0646e-06
1.48183e-07
-2.10659e-06
1.32615e-07
-2.14355e-06
1.19371e-07
-2.17705e-06
1.07693e-07
-2.20788e-06
9.75117e-08
-2.23716e-06
8.86156e-08
-2.26443e-06
8.12474e-08
-2.28987e-06
7.50365e-08
-2.31408e-06
6.95825e-08
-2.3371e-06
6.48669e-08
-2.35906e-06
6.07729e-08
-2.38005e-06
5.71951e-08
-2.40017e-06
5.40437e-08
-2.41945e-06
5.12426e-08
-2.43798e-06
4.87304e-08
-2.45577e-06
4.64565e-08
-2.47288e-06
4.43767e-08
-2.4893e-06
4.24581e-08
-2.50509e-06
4.06686e-08
-2.52023e-06
3.89858e-08
-2.53477e-06
3.73859e-08
-2.54867e-06
3.5855e-08
-2.56198e-06
3.43734e-08
-2.57467e-06
3.29325e-08
-2.58675e-06
3.15166e-08
-2.59821e-06
3.012e-08
-2.60907e-06
2.87294e-08
-2.61928e-06
2.73415e-08
-2.62887e-06
2.59446e-08
-2.63781e-06
2.45365e-08
-2.64608e-06
2.31071e-08
-2.65368e-06
2.1655e-08
-2.66059e-06
2.01711e-08
-2.66678e-06
1.86541e-08
-2.67226e-06
1.70964e-08
-2.67699e-06
1.54961e-08
-2.68096e-06
1.38476e-08
-2.68415e-06
1.21483e-08
-2.68657e-06
1.03993e-08
-2.68819e-06
8.59152e-09
-2.68903e-06
6.72963e-09
-2.68909e-06
4.81207e-09
-2.68842e-06
2.84544e-09
-2.68708e-06
8.53539e-10
-2.68514e-06
-1.13784e-09
-2.68252e-06
-3.12928e-09
-2.67907e-06
-5.15662e-09
-2.67462e-06
-7.23392e-09
-2.66914e-06
-9.35099e-09
-2.66258e-06
-1.15068e-08
-2.65494e-06
-1.37009e-08
-2.64618e-06
-1.59337e-08
-2.6363e-06
-1.82026e-08
-2.62526e-06
-2.05069e-08
-2.61307e-06
-2.2843e-08
-2.5997e-06
-2.52097e-08
-2.58514e-06
-2.76033e-08
-2.56938e-06
-3.00221e-08
-2.55241e-06
-3.2463e-08
-2.53422e-06
-3.49236e-08
-2.5148e-06
-3.74015e-08
-2.49415e-06
-3.98941e-08
-2.47226e-06
-4.23995e-08
-2.44912e-06
-4.49148e-08
-2.42473e-06
-4.74386e-08
-2.3991e-06
-4.99679e-08
-2.37221e-06
-5.25014e-08
-2.34406e-06
-5.50362e-08
-2.31467e-06
-5.75707e-08
-2.28402e-06
-6.01023e-08
-2.25212e-06
-6.26286e-08
-2.21897e-06
-6.51475e-08
-2.18458e-06
-6.76555e-08
-2.14895e-06
-7.01515e-08
-2.11209e-06
-7.26306e-08
-2.07401e-06
-7.50924e-08
-2.03471e-06
-7.75302e-08
-1.99421e-06
-7.99443e-08
-1.95252e-06
-8.23262e-08
-1.90965e-06
-8.46726e-08
-1.86561e-06
-8.6977e-08
-1.82045e-06
-8.92438e-08
-1.77418e-06
-9.14703e-08
-1.72684e-06
-9.36597e-08
-1.67844e-06
-9.57977e-08
-1.629e-06
-9.78792e-08
-1.57854e-06
-9.98931e-08
-1.5271e-06
-1.01842e-07
-1.47473e-06
-1.0372e-07
-1.42147e-06
-1.05528e-07
-1.36735e-06
-1.07259e-07
-1.31241e-06
-1.08912e-07
-1.25668e-06
-1.10473e-07
-1.20022e-06
-1.11945e-07
-1.14308e-06
-1.13325e-07
-1.08531e-06
-1.1462e-07
-1.02696e-06
-1.15829e-07
-9.68095e-07
-1.16953e-07
-9.08752e-07
-1.17975e-07
-8.48981e-07
-1.18894e-07
-7.88829e-07
-1.19698e-07
-7.28353e-07
-1.20398e-07
-6.67601e-07
-1.20986e-07
-6.06628e-07
-1.21473e-07
-5.45479e-07
-1.21854e-07
-4.84205e-07
-1.22139e-07
-4.22852e-07
-1.22324e-07
-3.61464e-07
-1.22421e-07
-3.00083e-07
-1.2243e-07
-2.38747e-07
-1.22363e-07
-1.77494e-07
-1.22217e-07
-1.16352e-07
-1.22009e-07
-5.53512e-08
-1.2174e-07
5.49226e-09
-1.21422e-07
6.61652e-08
-1.21071e-07
1.26649e-07
-1.20692e-07
1.86903e-07
-1.20267e-07
2.46985e-07
-1.19792e-07
3.06755e-07
-1.19261e-07
3.66085e-07
-1.18598e-07
4.25008e-07
-1.17741e-07
4.83458e-07
-1.16709e-07
5.41316e-07
-1.15428e-07
5.98396e-07
-1.13739e-07
6.54376e-07
-1.1135e-07
7.08743e-07
-1.07759e-07
7.60519e-07
-1.01921e-07
8.08515e-07
-9.20878e-08
8.49208e-07
-7.46737e-08
-2.92454e-08
8.84064e-07
-2.26475e-10
1.20041e-08
4.38595e-09
1.48411e-08
2.37935e-08
-3.26763e-09
6.34463e-08
-3.78099e-08
1.1817e-07
-7.5604e-08
1.76719e-07
-1.0459e-07
2.29836e-07
-1.19752e-07
2.73088e-07
-1.21702e-07
3.05518e-07
-1.13629e-07
3.28217e-07
-9.90584e-08
3.4288e-07
-8.083e-08
3.51136e-07
-6.09023e-08
3.54234e-07
-4.05171e-08
3.53053e-07
-2.04265e-08
3.48194e-07
-1.10421e-09
3.40088e-07
1.69993e-08
3.29233e-07
3.34767e-08
3.15901e-07
4.78993e-08
3.00258e-07
5.9717e-08
2.82217e-07
6.82062e-08
2.619e-07
7.24143e-08
2.39883e-07
7.1211e-08
2.17697e-07
6.3746e-08
1.97461e-07
4.98653e-08
1.81366e-07
3.07682e-08
1.69595e-07
9.79537e-09
1.55144e-07
-3.16172e-09
1.26178e-07
8.82261e-10
7.70755e-08
1.94163e-08
6.04664e-09
5.04169e-08
-9.05687e-08
9.28797e-08
-2.13216e-07
1.41417e-07
-3.56562e-07
1.91832e-07
-5.14381e-07
2.41839e-07
-6.79416e-07
2.87994e-07
-8.44716e-07
3.27244e-07
-1.00367e-06
3.57786e-07
-1.15052e-06
3.7907e-07
-1.28204e-06
3.90757e-07
-1.39623e-06
3.93178e-07
-1.49232e-06
3.87295e-07
-1.57135e-06
3.7424e-07
-1.63592e-06
3.55551e-07
-1.68902e-06
3.33071e-07
-1.73339e-06
3.08475e-07
-1.77156e-06
2.83169e-07
-1.80561e-06
2.58333e-07
-1.83689e-06
2.34797e-07
-1.86631e-06
2.13033e-07
-1.89427e-06
1.93209e-07
-1.92145e-06
1.75366e-07
-1.94828e-06
1.5944e-07
-1.97436e-06
1.45446e-07
-1.99981e-06
1.33139e-07
-2.02467e-06
1.22365e-07
-2.049e-06
1.12947e-07
-2.07254e-06
1.04789e-07
-2.09521e-06
9.77035e-08
-2.1171e-06
9.14694e-08
-2.13821e-06
8.59763e-08
-2.15855e-06
8.11148e-08
-2.17814e-06
7.67871e-08
-2.197e-06
7.29075e-08
-2.21516e-06
6.94023e-08
-2.23264e-06
6.62096e-08
-2.24946e-06
6.32766e-08
-2.26564e-06
6.05586e-08
-2.28119e-06
5.8018e-08
-2.29615e-06
5.56219e-08
-2.31051e-06
5.33439e-08
-2.32428e-06
5.11594e-08
-2.33747e-06
4.90485e-08
-2.35009e-06
4.69932e-08
-2.36214e-06
4.4979e-08
-2.37361e-06
4.29909e-08
-2.38451e-06
4.10183e-08
-2.39484e-06
3.90489e-08
-2.40457e-06
3.70744e-08
-2.41372e-06
3.50846e-08
-2.42226e-06
3.30728e-08
-2.4302e-06
3.10303e-08
-2.4375e-06
2.89514e-08
-2.44417e-06
2.68289e-08
-2.45019e-06
2.46581e-08
-2.45554e-06
2.24329e-08
-2.46021e-06
2.01496e-08
-2.46418e-06
1.78037e-08
-2.46744e-06
1.53942e-08
-2.46997e-06
1.29175e-08
-2.47176e-06
1.03779e-08
-2.4728e-06
7.76921e-09
-2.47309e-06
5.09565e-09
-2.47261e-06
2.36286e-09
-2.47134e-06
-4.21126e-10
-2.46925e-06
-3.25415e-09
-2.46625e-06
-6.14718e-09
-2.46231e-06
-9.12088e-09
-2.4574e-06
-1.21733e-08
-2.45147e-06
-1.52973e-08
-2.44451e-06
-1.84848e-08
-2.4365e-06
-2.17351e-08
-2.4274e-06
-2.50425e-08
-2.41721e-06
-2.84062e-08
-2.4059e-06
-3.18207e-08
-2.39346e-06
-3.5284e-08
-2.37988e-06
-3.87909e-08
-2.36515e-06
-4.23386e-08
-2.34925e-06
-4.59224e-08
-2.33218e-06
-4.95392e-08
-2.31392e-06
-5.31846e-08
-2.29447e-06
-5.68555e-08
-2.27382e-06
-6.0548e-08
-2.25196e-06
-6.42591e-08
-2.2289e-06
-6.79851e-08
-2.20462e-06
-7.17236e-08
-2.17913e-06
-7.54706e-08
-2.15242e-06
-7.92241e-08
-2.12449e-06
-8.29798e-08
-2.09534e-06
-8.67361e-08
-2.06497e-06
-9.04882e-08
-2.03338e-06
-9.42343e-08
-2.00058e-06
-9.79691e-08
-1.96657e-06
-1.01691e-07
-1.93134e-06
-1.05393e-07
-1.89492e-06
-1.09074e-07
-1.8573e-06
-1.12728e-07
-1.8185e-06
-1.16351e-07
-1.77852e-06
-1.19936e-07
-1.73738e-06
-1.23477e-07
-1.69508e-06
-1.26966e-07
-1.65165e-06
-1.30397e-07
-1.60711e-06
-1.3377e-07
-1.56149e-06
-1.37085e-07
-1.51482e-06
-1.40337e-07
-1.46711e-06
-1.43515e-07
-1.41838e-06
-1.46606e-07
-1.36866e-06
-1.496e-07
-1.31798e-06
-1.52498e-07
-1.26639e-06
-1.5529e-07
-1.21392e-06
-1.57975e-07
-1.16062e-06
-1.60546e-07
-1.10651e-06
-1.62995e-07
-1.05164e-06
-1.6531e-07
-9.96059e-07
-1.67492e-07
-9.39812e-07
-1.69537e-07
-8.82953e-07
-1.71449e-07
-8.25538e-07
-1.73227e-07
-7.67617e-07
-1.74869e-07
-7.09236e-07
-1.76362e-07
-6.50441e-07
-1.77697e-07
-5.91285e-07
-1.7887e-07
-5.31817e-07
-1.79881e-07
-4.72091e-07
-1.80733e-07
-4.12155e-07
-1.81429e-07
-3.5206e-07
-1.81972e-07
-2.91851e-07
-1.82367e-07
-2.31577e-07
-1.82621e-07
-1.71278e-07
-1.82739e-07
-1.10998e-07
-1.82731e-07
-5.07681e-08
-1.82607e-07
9.37555e-09
-1.82378e-07
6.94068e-08
-1.82052e-07
1.2929e-07
-1.81637e-07
1.89006e-07
-1.81146e-07
2.48521e-07
-1.80596e-07
3.07816e-07
-1.79992e-07
3.66878e-07
-1.79336e-07
4.25702e-07
-1.78619e-07
4.84228e-07
-1.77793e-07
5.42412e-07
-1.76786e-07
6.00234e-07
-1.7557e-07
6.57635e-07
-1.74116e-07
7.14514e-07
-1.72314e-07
7.70717e-07
-1.69949e-07
8.26001e-07
-1.66642e-07
8.79988e-07
-1.61756e-07
9.32132e-07
-1.54074e-07
9.81775e-07
-1.41738e-07
1.02805e-06
-1.20958e-07
-7.67987e-08
1.0756e-06
7.8181e-11
1.18901e-08
1.97854e-08
-4.89298e-09
6.99198e-08
-5.34413e-08
1.38206e-07
-1.06091e-07
2.04999e-07
-1.42418e-07
2.57959e-07
-1.57542e-07
2.93654e-07
-1.55461e-07
3.14329e-07
-1.42369e-07
3.24031e-07
-1.23341e-07
3.26571e-07
-1.0159e-07
3.24608e-07
-7.88686e-08
3.19779e-07
-5.60695e-08
3.12933e-07
-3.36676e-08
3.04479e-07
-1.19726e-08
2.94658e-07
8.72566e-09
2.83507e-07
2.81425e-08
2.71061e-07
4.59372e-08
2.57267e-07
6.16745e-08
2.42224e-07
7.47712e-08
2.25868e-07
8.45366e-08
2.08128e-07
9.01602e-08
1.88877e-07
9.04264e-08
1.68859e-07
8.37687e-08
1.48774e-07
6.99085e-08
1.23703e-07
5.58551e-08
8.24854e-08
5.09921e-08
1.8413e-08
6.09268e-08
-6.96199e-08
8.89236e-08
-1.81862e-07
1.31669e-07
-3.16044e-07
1.84611e-07
-4.65458e-07
2.42296e-07
-6.23051e-07
2.99022e-07
-7.8178e-07
3.5056e-07
-9.33998e-07
3.9407e-07
-1.07305e-06
4.27041e-07
-1.19479e-06
4.49003e-07
-1.29762e-06
4.60621e-07
-1.38117e-06
4.62636e-07
-1.44675e-06
4.56351e-07
-1.49683e-06
4.43258e-07
-1.5345e-06
4.24963e-07
-1.56321e-06
4.02933e-07
-1.58621e-06
3.7854e-07
-1.60617e-06
3.53008e-07
-1.62499e-06
3.27288e-07
-1.64393e-06
3.02107e-07
-1.66365e-06
2.78044e-07
-1.68434e-06
2.55482e-07
-1.70594e-06
2.34636e-07
-1.72829e-06
2.15553e-07
-1.75119e-06
1.98258e-07
-1.77444e-06
1.82681e-07
-1.79773e-06
1.68738e-07
-1.82089e-06
1.56294e-07
-1.84375e-06
1.45223e-07
-1.8662e-06
1.35389e-07
-1.88808e-06
1.26672e-07
-1.90932e-06
1.1894e-07
-1.9299e-06
1.12047e-07
-1.9498e-06
1.0588e-07
-1.96902e-06
1.0034e-07
-1.98757e-06
9.53369e-08
-2.00546e-06
9.07923e-08
-2.02269e-06
8.66364e-08
-2.03929e-06
8.28088e-08
-2.05526e-06
7.9257e-08
-2.07064e-06
7.59354e-08
-2.08543e-06
7.28052e-08
-2.09964e-06
6.98322e-08
-2.11328e-06
6.69867e-08
-2.12636e-06
6.4243e-08
-2.13889e-06
6.15793e-08
-2.15087e-06
5.89751e-08
-2.16231e-06
5.64133e-08
-2.17319e-06
5.38782e-08
-2.18353e-06
5.1356e-08
-2.19332e-06
4.88337e-08
-2.20255e-06
4.63003e-08
-2.21121e-06
4.37448e-08
-2.21931e-06
4.11578e-08
-2.22681e-06
3.85301e-08
-2.23372e-06
3.58539e-08
-2.24003e-06
3.31213e-08
-2.24571e-06
3.03258e-08
-2.25074e-06
2.74609e-08
-2.25513e-06
2.45214e-08
-2.25884e-06
2.1503e-08
-2.26186e-06
1.84022e-08
-2.26416e-06
1.52197e-08
-2.26574e-06
1.19471e-08
-2.26657e-06
8.5917e-09
-2.26662e-06
5.14696e-09
-2.26588e-06
1.61569e-09
-2.26432e-06
-2.0011e-09
-2.26188e-06
-5.70687e-09
-2.25854e-06
-9.50898e-09
-2.25427e-06
-1.34162e-08
-2.24904e-06
-1.74243e-08
-2.24283e-06
-2.15278e-08
-2.23561e-06
-2.57183e-08
-2.22736e-06
-2.99928e-08
-2.21807e-06
-3.4344e-08
-2.20772e-06
-3.87695e-08
-2.19628e-06
-4.3262e-08
-2.18375e-06
-4.78186e-08
-2.17011e-06
-5.24323e-08
-2.15535e-06
-5.70994e-08
-2.13946e-06
-6.18136e-08
-2.12243e-06
-6.65707e-08
-2.10425e-06
-7.13653e-08
-2.08491e-06
-7.61929e-08
-2.06442e-06
-8.10489e-08
-2.04275e-06
-8.5929e-08
-2.01991e-06
-9.0829e-08
-1.9959e-06
-9.5745e-08
-1.9707e-06
-1.00673e-07