/*--------------------------------*- C++ -*----------------------------------*\
  =========                 |
  \\      /  F ield         | OpenFOAM: The Open Source CFD Toolbox
   \\    /   O peration     | Website:  https://openfoam.org
    \\  /    A nd           | Version:  8
     \\/     M anipulation  |
\*---------------------------------------------------------------------------*/
FoamFile
{
    version     2.0;
    format      ascii;
    class       volVectorField;
    location    "400";
    object      wallShearStress;
}
// * * * * * * * * * * * * * * * * * * * * * * * * * * * * * * * * * * * * * //

dimensions      [0 2 -2 0 0 0 0];

internalField   uniform (0 0 0);

boundaryField
{
    inlet
    {
        type            calculated;
        value           uniform (0 0 0);
    }
    outlet
    {
        type            calculated;
        value           uniform (0 0 0);
    }
    upperWall
    {
        type            calculated;
        value           nonuniform List<vector> 
223
(
(-0.451691 -0.0374349 0)
(-0.518042 -0.0444936 0)
(-0.548106 -0.0326959 0)
(-0.545981 -0.0203047 0)
(-0.540434 -0.0120529 0)
(-0.529345 -0.00673159 0)
(-0.518799 -0.00346547 0)
(-0.50749 -0.00147619 0)
(-0.496566 -0.000277578 0)
(-0.486446 0.00043852 0)
(-0.477238 0.000854304 0)
(-0.468911 0.00108467 0)
(-0.461411 0.00120095 0)
(-0.454646 0.00124798 0)
(-0.448544 0.0012531 0)
(-0.443022 0.00123766 0)
(-0.437998 0.0012137 0)
(-0.433426 0.00123091 0)
(-0.429731 0.00128663 0)
(-0.426771 0.00132962 5.59085e-22)
(-0.423859 0.0013345 0)
(-0.421012 0.00131378 0)
(-0.41823 0.00127562 0)
(-0.415516 0.0012284 5.68379e-22)
(-0.412878 0.00117379 0)
(-0.410317 0.00111847 0)
(-0.407832 0.00106087 0)
(-0.405421 0.001006 -1.15189e-21)
(-0.403084 0.000951289 1.15548e-21)
(-0.400819 0.000900639 1.15907e-21)
(-0.398622 0.000851385 0)
(-0.396491 0.000806443 -1.16624e-21)
(-0.394423 0.000763281 0)
(-0.392416 0.000724234 1.17355e-21)
(-0.390465 0.000687773 1.17729e-21)
(-0.388568 0.0006544 -1.18108e-21)
(-0.386723 0.000623115 0)
(-0.384929 0.000594151 0)
(-0.383181 0.000567753 0)
(-0.381479 0.00054363 0)
(-0.379819 0.000521642 -1.20069e-21)
(-0.3782 0.000501618 0)
(-0.376617 0.000483465 0)
(-0.375071 0.000466928 1.21322e-21)
(-0.373558 0.000451983 0)
(-0.372077 0.000438571 1.22185e-21)
(-0.370624 0.000426596 -1.22623e-21)
(-0.3692 0.000415934 1.23065e-21)
(-0.3678 0.000406024 0)
(-0.366427 0.000397261 0)
(-0.365076 0.000389491 0)
(-0.363745 0.000382867 1.24864e-21)
(-0.362434 0.000376866 -1.25322e-21)
(-0.361141 0.00037179 0)
(-0.359864 0.000367271 0)
(-0.358604 0.000363552 0)
(-0.357356 0.000360504 0)
(-0.356122 0.000357969 0)
(-0.354897 0.000356054 0)
(-0.353684 0.000354631 0)
(-0.352476 0.000353724 0)
(-0.351279 0.000353243 1.29458e-21)
(-0.350084 0.000353075 -1.29905e-21)
(-0.348897 0.000353169 0)
(-0.347711 0.00035367 0)
(-0.346531 0.000354653 0)
(-0.345347 0.000355896 -1.31639e-21)
(-0.344168 0.00035738 0)
(-0.342983 0.000359071 0)
(-0.3418 0.000361028 0)
(-0.340609 0.000363191 0)
(-0.339418 0.00036555 0)
(-0.338219 0.000368042 -2.67902e-21)
(-0.337013 0.000370927 0)
(-0.335802 0.00037395 0)
(-0.334576 0.000377164 0)
(-0.333348 0.000380724 0)
(-0.332095 0.000384632 0)
(-0.330852 0.000388783 0)
(-0.329552 0.000393736 0)
(-0.328307 0.000398207 2.72484e-21)
(-0.326932 0.00040419 0)
(-0.325687 0.000414733 0)
(-0.324235 0.000426004 0)
(-0.322782 0.000415036 -2.73786e-21)
(-0.321489 -0.000206908 0)
(-0.320031 -0.000383503 -2.72225e-21)
(-0.320205 0.00116872 0)
(-0.320037 0.00081859 0)
(-0.317621 -0.000261371 0)
(-0.314893 0.000967319 -2.79789e-21)
(-0.31263 0.00129729 0)
(-0.311249 0.000477099 2.82728e-21)
(-0.31599 0.000182126 2.89724e-21)
(-0.309287 -5.80307e-05 0)
(-0.355605 -0.000360047 3.30955e-21)
(-0.472281 -6.69243e-05 0)
(-0.423848 -0.00183434 0)
(-0.414882 0.00615399 0)
(-0.378577 0.00860428 -3.28354e-21)
(-0.366824 0.00226159 0)
(-0.35187 0.000125533 -3.15613e-21)
(-0.328373 -0.00137382 2.9744e-21)
(-0.314394 -0.00066896 0)
(-0.299449 -3.7583e-05 0)
(-0.298034 -0.00033369 0)
(-0.388293 -0.000873837 0)
(-0.435437 -0.000963234 0)
(-0.450807 0.00343014 0)
(-0.38991 0.00279329 0)
(-0.348153 -0.00116469 -3.19379e-21)
(-0.319456 -0.000887234 0)
(-0.348368 -0.000360076 0)
(-0.346559 0.00060928 0)
(-0.37252 0.00175751 0)
(-0.312667 0.00150541 0)
(-0.289863 7.86285e-05 0)
(-0.360779 -0.00066912 0)
(-0.380697 0.000472911 0)
(-0.405946 0.000563592 0)
(-0.374822 -3.40439e-05 0)
(-0.401145 0.00375483 0)
(-0.340095 0.00352446 0)
(-0.278799 3.46887e-05 -4.49331e-21)
(-0.348817 0.00388647 0)
(-0.301875 0.00383336 0)
(-0.268953 -0.000474489 0)
(-0.33814 0.00355163 5.09236e-21)
(-0.2911 0.00359775 0)
(-0.263987 -0.00112254 0)
(-0.31535 -0.00122977 4.33953e-21)
(-0.337458 -0.00154815 0)
(-0.308502 0.00131756 -4.02225e-21)
(-0.265716 0.00228933 0)
(-0.254393 -0.000486497 0)
(-0.301806 0.00190456 0)
(-0.267458 0.00428768 2.64443e-21)
(-0.250653 0.00327835 0)
(-0.249101 0.000259427 -2.04796e-21)
(-0.246799 -0.00188177 0)
(-0.256608 0.00094746 0)
(-0.243286 0.00100079 0)
(-0.275649 0.000982367 0)
(-0.240459 0.000589187 0)
(-0.268221 -0.00238165 0)
(-0.270547 -0.00184694 0)
(-0.262284 0.00215602 0)
(-0.233464 0.00471612 0)
(-0.232272 0.00253856 0)
(-0.230985 -0.000781523 0)
(-0.246994 -0.00244949 1.44607e-21)
(-0.238776 -0.00249995 -1.87237e-21)
(-0.220279 0.00195833 0)
(-0.220136 0.00609291 0)
(-0.219251 0.00267959 0)
(-0.216891 -0.000588631 0)
(-0.2599 -0.00273137 -4.23373e-21)
(-0.242347 -0.00428669 4.75246e-21)
(-0.209881 -0.00262785 -4.79185e-21)
(-0.202513 -0.000913777 0)
(-0.19954 -0.000242703 -5.64424e-21)
(-0.196175 0.000911467 -1.23158e-20)
(-0.201735 0.00256406 0)
(-0.195924 0.00102159 -1.34969e-20)
(-0.193384 -0.00120254 1.55838e-20)
(-0.1901 0.00144828 0)
(-0.192085 0.00467076 0)
(-0.191998 0.00363564 0)
(-0.191379 -0.000143865 0)
(-0.187089 -0.00266939 0)
(-0.18279 -0.0016996 -2.3359e-20)
(-0.180322 -0.000259117 0)
(-0.178404 0.00165443 -2.47669e-20)
(-0.179259 0.00238845 0)
(-0.178347 0.00118886 0)
(-0.177295 -1.65215e-06 0)
(-0.172357 0.00016224 0)
(-0.172259 -0.000846187 0)
(-0.167902 -0.000535187 3.5686e-20)
(-0.16943 0.00168512 0)
(-0.168657 0.0010358 0)
(-0.166991 0.000510764 -3.707e-20)
(-0.165253 0.000288216 0)
(-0.163177 0.000145796 0)
(-0.16017 -1.04027e-05 0)
(-0.155724 -0.000104153 4.62237e-20)
(-0.149709 2.02159e-05 0)
(-0.142049 0.00032559 0)
(-0.132796 0.000717341 0)
(-0.122321 0.00111635 0)
(-0.11175 0.00133724 -7.61044e-20)
(-0.102121 0.0013169 0)
(-0.0940949 0.00113347 0)
(-0.0873722 0.000946837 0)
(-0.0818172 0.00091354 1.08257e-19)
(-0.0742751 0.001093 0)
(-0.0700126 0.00177973 0)
(-0.0416806 0.0015381 -1.50535e-19)
(-0.0730401 0.000974663 0)
(-0.107375 0.00634103 1.29592e-17)
(-0.130762 0.010724 2.33611e-17)
(-0.143239 0.0133032 2.20214e-17)
(-0.15074 0.0147432 2.1202e-17)
(-0.156543 0.015639 2.0519e-17)
(-0.161158 0.0162711 -1.99357e-17)
(-0.164877 0.0167406 -1.93897e-17)
(-0.167934 0.0171081 -6.01853e-36)
(-0.170908 0.0174107 -3.67733e-17)
(-0.173899 0.0177014 -1.78782e-17)
(-0.177238 0.0179994 5.83798e-34)
(-0.180797 0.0183322 -1.20371e-35)
(-0.184918 0.018698 -3.22688e-17)
(-0.189412 0.0191128 -3.08605e-17)
(-0.194632 0.0195814 -2.93055e-17)
(-0.200339 0.0201103 -4.81482e-35)
(-0.206859 0.0207036 5.12299e-17)
(-0.214151 0.0213766 2.34157e-17)
(-0.222195 0.0221171 2.40741e-35)
(-0.231955 0.0230076 -3.63247e-17)
(-0.241045 0.0238761 -1.19747e-20)
(-0.25681 0.025237 3.00927e-36)
(-0.261277 0.0260357 1.35861e-17)
(-0.291605 0.0279197 -7.63144e-18)
)
;
    }
    lowerWall
    {
        type            calculated;
        value           nonuniform List<vector> 
250
(
(-0.620816 0.0851224 0)
(-0.947181 0.119523 0)
(-0.749324 0.0649545 0)
(-0.680351 0.0367622 0)
(-0.556748 0.0184211 0)
(-0.727366 0.0145176 0)
(-0.877548 0.00858781 0)
(-0.727775 0.00506095 0)
(-0.629796 0.00386257 0)
(-0.544582 0.00101688 0)
(-0.490881 -0.000184474 0)
(-0.484851 -0.000851927 0)
(-0.476464 0.000525769 0)
(-0.578935 0.00243798 0)
(-0.577797 0.00271982 0)
(-0.667834 0.00122554 0)
(-0.655491 -0.00260251 0)
(-0.534905 -0.00245318 0)
(0.00297556 -0.00744983 0)
(0.00307565 -0.0114369 0)
(0.00316643 -0.0152776 0)
(0.00324428 -0.0189241 6.86084e-20)
(0.00329482 -0.0221806 -6.1183e-20)
(0.00362358 -0.0252284 5.5494e-20)
(0.00443606 -0.0253817 -5.09358e-20)
(0.00942778 -0.0453736 0)
(-0.0748947 -0.159572 0)
(0.00021473 -0.000262668 0)
(7.19442e-05 -0.000773377 0)
(1.71526e-05 -0.000908454 0)
(6.53803e-05 -0.000965868 0)
(-9.47958e-06 -0.000782325 1.53031e-19)
(-0.000345448 0.00014445 -1.3527e-19)
(-0.00102194 0.00241889 0)
(-0.00165294 0.00607013 -1.40834e-19)
(-0.00178437 0.0099655 1.11333e-19)
(-0.00141231 0.0130689 0)
(-0.00079155 0.014882 0)
(-0.000148236 0.0152892 0)
(0.000391614 0.0144121 0)
(0.000874133 0.0126186 0)
(0.00136714 0.00990883 0)
(0.0018889 0.0063589 0)
(0.00244469 0.00209334 0)
(0.00285306 -0.00279656 0)
(-0.000136492 -0.000266337 0)
(0.000163867 -0.000427243 0)
(0.0004584 -0.000472117 0)
(0.000751267 -0.000397722 0)
(0.000961583 -0.000176437 -0)
(0.000964368 0.000163827 -0)
(0.000710403 0.000548669 1.53812e-20)
(0.000234664 0.000877732 -1.73471e-20)
(-0.000382072 0.0010745 -0)
(-0.0010469 0.00111697 -1.07173e-20)
(-0.00168673 0.00102454 -0)
(-0.00224141 0.000828725 0)
(-0.00267144 0.000565798 -0)
(-0.00295508 0.000267767 6.39382e-21)
(-0.00308547 -4.48696e-05 0)
(-0.00305088 -0.000346079 0)
(-0.00285919 -0.000601692 -6.53791e-21)
(-0.00253554 -0.000781516 -0)
(-0.00211511 -0.000862327 0)
(-0.00164425 -0.000830994 -0)
(-0.0011791 -0.000692448 1.04832e-20)
(-0.000776454 -0.000475159 0)
(-0.000476872 -0.000226165 1.55299e-20)
(-0.000293982 1.09534e-05 0)
(-0.000224386 0.000226124 0)
(-0.000281888 0.000405652 2.01072e-20)
(-0.000442531 0.000557388 0)
(-0.000713639 0.00069617 -1.41928e-20)
(-0.00109014 0.000789234 0)
(-0.00150795 0.000778601 9.92652e-21)
(-0.00186164 0.000663913 0)
(-0.00209162 0.000513692 0)
(-0.00218766 0.000417151 0)
(-0.00221376 0.000446859 0)
(-0.00222577 0.000550766 0)
(-0.00220025 0.000556778 -7.90456e-21)
(-0.00194898 0.000219459 0)
(-0.00126773 -0.000469867 2.04862e-20)
(5.82781e-05 -0.00118834 0)
(0.00172645 -0.00195819 -9.21161e-21)
(0.00368855 -0.00282177 0)
(0.00600873 -0.00352588 0)
(0.00855762 -0.00395615 3.87526e-21)
(0.0111787 -0.00413807 0)
(0.0137852 -0.0041561 2.94229e-21)
(0.0165799 -0.0041201 -2.63885e-21)
(0.0194983 -0.00403695 -0)
(0.022094 -0.00389612 -2.24731e-21)
(0.0230789 -0.00347624 -1.96914e-21)
(0.025617 -0.00341852 -0)
(0.0283391 -0.00314017 0)
(0.0285079 -0.00258597 0)
(0.0299292 -0.00235261 0)
(0.0313466 -0.00210152 -0)
(0.0328842 -0.00186836 1.5931e-21)
(0.0347504 -0.00163545 0)
(0.0362768 -0.00151143 -1.57349e-21)
(0.0375877 -0.00142116 -0)
(0.0389202 -0.00130584 -0)
(0.0401739 -0.00120819 1.54097e-21)
(0.041326 -0.00112288 0)
(0.042484 -0.00105091 -1.52547e-21)
(0.0435546 -0.00098788 -0)
(0.0446202 -0.000933234 0)
(0.0456348 -0.000885333 -0)
(0.046632 -0.000843079 1.50003e-21)
(0.0475998 -0.000805443 0)
(0.0485473 -0.000771704 -0)
(0.0494748 -0.000741075 1.48272e-21)
(0.0503839 -0.000713133 0)
(0.0512768 -0.000687264 1.47093e-21)
(0.0521538 -0.000663217 0)
(0.0530165 -0.000640435 0)
(0.0538645 -0.000618814 0)
(0.0546991 -0.000597916 -1.4453e-21)
(0.0555195 -0.000577784 -0)
(0.0563269 -0.000557944 0)
(0.0571196 -0.000538379 -1.42345e-21)
(0.0578987 -0.000518858 -1.41556e-21)
(0.0586626 -0.000499378 -0)
(0.0594118 -0.000479506 -1.39874e-21)
(0.0601442 -0.000459356 0)
(0.0608602 -0.000438629 -2.76082e-21)
(0.0615577 -0.000417225 -0)
(0.0622362 -0.000394892 -2.72093e-21)
(0.0628941 -0.000371558 -0)
(0.06353 -0.000346861 2.67745e-21)
(0.0641424 -0.00032067 0)
(0.0647295 -0.000292611 0)
(0.0652893 -0.000262503 0)
(0.0658199 -0.000229978 -2.5788e-21)
(0.0663192 -0.000195054 -0)
(0.0667852 -0.000158053 2.52335e-21)
(0.0672169 -0.00012001 0)
(0.0676127 -8.28244e-05 -2.46436e-21)
(0.067974 -4.92854e-05 -2.43329e-21)
(0.0683019 -2.06417e-05 -2.40058e-21)
(0.0685978 5.8792e-06 0)
(0.0688625 3.23986e-05 0)
(0.0690943 5.90749e-05 0)
(0.069293 8.59959e-05 0)
(0.0694574 0.000113355 0)
(0.0695863 0.000140992 0)
(0.0696794 0.000168982 0)
(0.0697351 0.000197201 0)
(0.0697531 0.000225622 2.03216e-21)
(0.0697325 0.000254212 1.98174e-21)
(0.0696726 0.000283003 0)
(0.0695724 0.000311827 0)
(0.0694317 0.00034074 0)
(0.0692495 0.00036963 1.75827e-21)
(0.0690258 0.000398505 0)
(0.0687597 0.000427303 0)
(0.0684511 0.000456035 0)
(0.0680992 0.000484636 0)
(0.0677042 0.000513097 -1.42576e-21)
(0.0672653 0.000541335 0)
(0.0667828 0.000569445 0)
(0.0662558 0.00059728 1.19511e-21)
(0.0656849 0.000624857 -1.11263e-21)
(0.0650698 0.000652144 0)
(0.0644103 0.00067923 -9.38813e-22)
(0.0637063 0.000705897 0)
(0.0629582 0.000732285 7.52545e-22)
(0.062166 0.0007582 0)
(0.06133 0.000783853 0)
(0.0604498 0.00080892 0)
(0.0595265 0.00083372 0)
(0.0585586 0.000857956 0)
(0.0575477 0.000881881 -2.18818e-22)
(0.0565012 0.000905131 2.33133e-23)
(0.0554156 0.000927866 0)
(0.0542886 0.000949639 0)
(0.0531305 0.000971594 0)
(0.0519173 0.000992278 -1.08496e-21)
(0.0506886 0.00101309 0)
(0.049396 0.00103261 0)
(0.0480907 0.00105147 0)
(0.0467376 0.00106979 -2.32132e-21)
(0.0453606 0.00108702 2.6624e-21)
(0.0439519 0.00110375 0)
(0.0425159 0.00111976 0)
(0.0410533 0.00113487 3.77556e-21)
(0.0395644 0.00114915 4.18e-21)
(0.0380516 0.00116268 0)
(0.0365178 0.00117551 0)
(0.0349647 0.00118775 -5.51021e-21)
(0.0333936 0.00119926 5.99738e-21)
(0.0318067 0.00121002 0)
(0.0302055 0.00121997 0)
(0.0285915 0.00122907 7.61639e-21)
(0.0269677 0.00123733 0)
(0.0253351 0.00124493 0)
(0.0236961 0.00125177 9.52432e-21)
(0.0220523 0.00125806 0)
(0.0204056 0.00126377 1.10013e-20)
(0.0187578 0.00126911 0)
(0.0171105 0.00127404 0)
(0.0154653 0.00127884 0)
(0.0138237 0.00128348 -1.4632e-20)
(0.0121869 0.00128825 0)
(0.010556 0.00129318 0)
(0.00893213 0.00129859 0)
(0.00731623 0.00130482 0)
(0.00570883 0.00131329 0)
(0.00410982 0.00132381 0)
(0.00251953 0.00133551 -2.48918e-20)
(0.000938956 0.00134616 -2.70891e-20)
(-0.000634517 0.00133355 0)
(-0.00219934 0.00129432 0)
(-0.00374975 0.00125116 0)
(-0.00528451 0.0012087 2.39329e-20)
(-0.00680071 0.00116633 0)
(-0.00829331 0.00112236 -4.40751e-20)
(-0.0097551 0.00107336 4.24884e-20)
(-0.0111666 0.00101568 4.10906e-20)
(-0.0125207 0.000932575 -3.98928e-20)
(-0.0136705 0.000823558 3.89307e-20)
(-0.0148839 0.000597551 -3.83263e-20)
(-0.0143669 9.95573e-05 0)
(-0.0167468 0.000287523 -2.37461e-18)
(-0.0204358 -0.000189419 -2.214e-18)
(-0.0241021 -0.00067887 -3.00927e-36)
(-0.0275545 -0.00110199 -3.9239e-18)
(-0.0310638 -0.0015061 -7.42477e-18)
(-0.0347357 -0.00190995 -3.5194e-18)
(-0.0385836 -0.00231953 3.3399e-18)
(-0.04263 -0.00274206 -1.20371e-35)
(-0.0469225 -0.00318502 3.00927e-36)
(-0.0514853 -0.00365275 2.86696e-18)
(-0.0563473 -0.00415021 2.72488e-18)
(-0.0615405 -0.00468087 0)
(-0.0671061 -0.00524973 0)
(-0.0730749 -0.0058608 0)
(-0.079526 -0.00651973 -1.84318e-35)
(-0.0864441 -0.00722998 8.33661e-35)
(-0.0940676 -0.00800375 1.47454e-34)
(-0.102108 -0.00883679 -3.57305e-18)
(-0.111408 -0.00975761 -3.28447e-18)
(-0.120716 -0.0107569 6.01853e-36)
(-0.132564 -0.0118314 5.25315e-18)
(-0.143305 -0.0131428 8.88708e-18)
(-0.160376 -0.0143046 0)
(-0.169055 -0.0161584 -4.3797e-18)
(-0.204773 -0.0171464 -3.61112e-35)
)
;
    }
    frontAndBack
    {
        type            empty;
    }
}


// ************************************************************************* //
