/*--------------------------------*- C++ -*----------------------------------*\
  =========                 |
  \\      /  F ield         | OpenFOAM: The Open Source CFD Toolbox
   \\    /   O peration     | Website:  https://openfoam.org
    \\  /    A nd           | Version:  8
     \\/     M anipulation  |
\*---------------------------------------------------------------------------*/
FoamFile
{
    version     2.0;
    format      ascii;
    class       volScalarField;
    location    "2600";
    object      nut;
}
// * * * * * * * * * * * * * * * * * * * * * * * * * * * * * * * * * * * * * //

dimensions      [0 2 -1 0 0 0 0];

internalField   nonuniform List<scalar> 
12225
(
0.0122671
0.00158819
0.000666129
0.000410105
0.000294025
0.00022806
0.000183261
0.000170806
0.000132697
0.000106845
9.46737e-05
8.80089e-05
7.89863e-05
7.22336e-05
6.77331e-05
6.45093e-05
6.12126e-05
6.46355e-05
0.0323823
0.00744532
0.00330638
0.00204329
0.00146801
0.0011445
0.000936338
0.000799976
0.000679511
0.000577235
0.000506287
0.000452433
0.000410541
0.000378809
0.000350184
0.000327771
0.000311176
0.00029283
0.0490123
0.01515
0.00728196
0.00457855
0.00330639
0.00258054
0.00211233
0.00178913
0.00154181
0.00134762
0.00119772
0.0010787
0.00098206
0.000902486
0.000835984
0.000780918
0.000735558
0.000687191
0.063054
0.0237783
0.0122894
0.00788814
0.00573397
0.00448498
0.00367413
0.00310733
0.00268471
0.00235805
0.00210111
0.00189458
0.00172531
0.00158451
0.00146614
0.00136606
0.00128148
0.00119792
0.074932
0.0328517
0.0181452
0.0119262
0.00874548
0.00686412
0.0056308
0.00476254
0.00411748
0.0036203
0.00322732
0.00290993
0.002649
0.00243144
0.002248
0.00209189
0.00195828
0.00183629
0.0849536
0.0420208
0.0246655
0.0166359
0.0123325
0.00972587
0.00799539
0.00676785
0.00585346
0.0051477
0.00458845
0.00413588
0.00376335
0.00345241
0.00318984
0.00296598
0.00277362
0.00260474
0.0933822
0.0510219
0.0316642
0.0219415
0.016474
0.0130717
0.0107779
0.00913552
0.00790571
0.0069534
0.0061969
0.00558368
0.00507838
0.00465633
0.00429977
0.00399563
0.00373417
0.00350821
0.0993794
0.0583363
0.0378386
0.0268568
0.0204171
0.0163053
0.0134892
0.011453
0.00991891
0.00872629
0.00777636
0.00700498
0.00636867
0.00583686
0.00538742
0.005004
0.00467454
0.00439129
0.104023
0.0645454
0.0433804
0.0314239
0.0241571
0.0194092
0.0161097
0.0137018
0.0118766
0.0104521
0.00931444
0.00838905
0.00762486
0.00698576
0.00644546
0.00598451
0.0055886
0.00524879
0.108368
0.0708939
0.0493756
0.0365496
0.0284517
0.0230231
0.0191863
0.0163547
0.0141926
0.0124968
0.011138
0.0100304
0.00911435
0.00834761
0.00769911
0.00714581
0.0066707
0.006263
0.112368
0.0772557
0.0557282
0.0421918
0.0332976
0.0271652
0.0227468
0.0194432
0.0168984
0.0148903
0.0132749
0.0119544
0.0108605
0.0099438
0.00916798
0.00850587
0.00793738
0.00744917
0.115994
0.0834975
0.0623053
0.0482611
0.0386474
0.0318167
0.026789
0.0229739
0.0200046
0.0176452
0.0157379
0.0141736
0.0128749
0.011785
0.0108618
0.0100736
0.00939672
0.00881466
0.119234
0.0894856
0.0689377
0.0546109
0.0443919
0.0369007
0.0312597
0.0269088
0.0234836
0.02074
0.0185096
0.0166735
0.0151449
0.01386
0.0127704
0.0118396
0.0110397
0.0103508
0.122086
0.095084
0.075415
0.0610223
0.0503361
0.0422534
0.0360231
0.0311353
0.0272402
0.024093
0.021519
0.0193909
0.017614
0.0161174
0.0148466
0.0137601
0.0128257
0.0120196
0.124546
0.100135
0.0814619
0.0671725
0.056158
0.047577
0.0408126
0.0354174
0.031066
0.0275196
0.0246012
0.0221777
0.0201481
0.0184349
0.0169782
0.0157314
0.0146583
0.0137312
0.126578
0.104396
0.0866605
0.0725515
0.0613228
0.0523526
0.0451453
0.0393148
0.0345631
0.0306611
0.0274325
0.0247409
0.0224806
0.020569
0.0189413
0.0175468
0.0163454
0.0153061
0.128011
0.107322
0.0902141
0.0762353
0.0648743
0.0556509
0.0481493
0.0420254
0.0370012
0.0328553
0.0294126
0.0265352
0.0241143
0.0220643
0.0203172
0.0188191
0.0175275
0.0164083
0.128006
0.107313
0.0902048
0.0762269
0.0648674
0.0556454
0.048145
0.0420222
0.0369988
0.0328537
0.0294117
0.0265349
0.0241147
0.0220652
0.0203185
0.0188206
0.0175286
0.0164083
0.126509
0.104255
0.0864922
0.0723807
0.0611613
0.052205
0.0450128
0.0391967
0.0344584
0.0305686
0.0273506
0.0246684
0.0224163
0.0205118
0.0188903
0.0175006
0.0163024
0.0152631
0.124267
0.0995604
0.0807712
0.0664676
0.0554886
0.0469631
0.0402594
0.0349228
0.0306248
0.0271258
0.0242488
0.0218611
0.0198626
0.0181762
0.0167426
0.0155152
0.0144575
0.0135405
0.12136
0.0936399
0.0737261
0.0593348
0.0487592
0.0408249
0.0347467
0.0300003
0.0262308
0.0231928
0.0207127
0.018665
0.0169572
0.0155198
0.0142999
0.0132567
0.0123583
0.0115798
0.117686
0.0865903
0.0656967
0.0514791
0.0415374
0.0343608
0.0290184
0.0249322
0.0217348
0.0191848
0.0171184
0.0154211
0.0140106
0.0128263
0.0118229
0.0109657
0.010228
0.00958894
0.11305
0.0784122
0.056921
0.0432687
0.0342296
0.0279652
0.0234365
0.0200435
0.0174263
0.0153597
0.0136966
0.0123369
0.0112106
0.010267
0.00946865
0.00878719
0.00820101
0.00769346
0.107169
0.0691009
0.0476372
0.035029
0.0271566
0.021922
0.0182437
0.0155401
0.0134817
0.0118705
0.0105815
0.00953196
0.00866486
0.00793966
0.00732667
0.0068038
0.00635412
0.00596496
0.0996761
0.0587036
0.0381279
0.0270699
0.0205782
0.0164329
0.0135949
0.0115438
0.00999922
0.00879907
0.0078434
0.00706755
0.00642789
0.00589359
0.00544223
0.00505741
0.00472637
0.00444015
0.0901097
0.0473665
0.0287363
0.0196847
0.0146976
0.0116312
0.00957852
0.00811528
0.00702331
0.00617993
0.00551056
0.00496793
0.0045211
0.0041482
0.0038331
0.0035647
0.00333338
0.00313399
0.0779076
0.0353826
0.0198606
0.0131383
0.00966107
0.00759298
0.00623352
0.00527429
0.00456399
0.00401882
0.00358697
0.0032361
0.00294713
0.00270611
0.00250178
0.00232844
0.0021776
0.0020492
0.06238
0.0232554
0.0119461
0.00765493
0.00556337
0.00435256
0.00356724
0.00301639
0.00261307
0.00230793
0.00206656
0.00186717
0.00170209
0.00156475
0.00144588
0.0013477
0.00125793
0.0011844
0.0426105
0.0117794
0.0054693
0.00341385
0.00246071
0.00192005
0.00157275
0.00132885
0.00115942
0.00103848
0.000943943
0.000857875
0.000783954
0.000724048
0.000661449
0.000623751
0.000577266
0.000536994
0.0168348
0.00255985
0.00110002
0.000683428
0.000493724
0.000386803
0.000318219
0.000266309
0.0002726
0.000322079
0.000354082
0.000338369
0.000298312
0.00027202
0.000209328
0.000258986
0.00025453
0.000186638
3.99261e-09
5.91082e-07
2.00062e-06
6.28863e-06
1.08017e-05
1.3531e-05
1.32565e-05
1.17921e-05
9.06431e-06
5.94837e-06
3.52433e-06
2.02516e-06
1.40989e-06
1.50283e-06
2.06682e-06
2.56608e-06
2.45464e-06
2.06928e-06
2.54191e-06
8.67447e-06
9.02446e-06
5.5526e-06
6.74565e-06
2.64873e-05
5.67428e-05
7.44143e-05
9.09703e-05
0.000104819
0.000117041
0.000127202
0.000136106
0.000143754
0.000150445
0.000156272
0.000161354
0.00016584
0.000169815
0.000173366
0.000176548
0.000179407
0.000181972
0.000184266
0.000186306
0.000188109
0.00018969
0.000191061
0.000192233
0.000193213
0.000194002
0.000194474
0.000194972
0.000195081
0.000195142
0.000195018
0.000194719
0.000194273
0.000193674
0.000192927
0.000192034
0.000190995
0.000189814
0.000188493
0.000187033
0.000185437
0.000183709
0.000181849
0.000179859
0.000177741
0.000175499
0.000173133
0.000170647
0.000168042
0.00016532
0.000162482
0.00015953
0.000156464
0.000153286
0.000149996
0.000146592
0.000143073
0.000139436
0.000135678
0.000131795
0.00012778
0.000123627
0.000119326
0.000114865
0.000110228
0.000105396
0.000100343
9.50431e-05
8.94683e-05
8.36122e-05
7.75414e-05
7.15309e-05
6.6249e-05
6.24902e-05
6.01487e-05
5.83963e-05
5.67904e-05
5.52142e-05
5.36458e-05
5.20836e-05
5.05292e-05
4.89846e-05
4.74516e-05
4.59331e-05
4.44352e-05
4.29859e-05
4.1749e-05
4.0545e-05
3.93552e-05
3.81827e-05
3.7028e-05
3.58922e-05
3.47759e-05
3.368e-05
3.26051e-05
3.1552e-05
3.0521e-05
2.95124e-05
2.85269e-05
2.75649e-05
2.66269e-05
2.5713e-05
2.4823e-05
2.3958e-05
2.3146e-05
2.24117e-05
2.16961e-05
2.09955e-05
2.03182e-05
1.96689e-05
1.9034e-05
1.8413e-05
1.78091e-05
1.72232e-05
1.66555e-05
1.61059e-05
1.55739e-05
1.50592e-05
1.45612e-05
1.40797e-05
1.36141e-05
1.31641e-05
1.27293e-05
1.23092e-05
1.19035e-05
1.15117e-05
1.11336e-05
1.07688e-05
1.04168e-05
1.00774e-05
9.75023e-06
9.43498e-06
9.13137e-06
8.83911e-06
8.55797e-06
8.28771e-06
8.02812e-06
7.77901e-06
7.54021e-06
7.31154e-06
7.09281e-06
6.88383e-06
6.68434e-06
6.49402e-06
6.31243e-06
6.13905e-06
5.9731e-06
5.81379e-06
5.65953e-06
5.5099e-06
5.35991e-06
5.21417e-06
5.04813e-06
4.89416e-06
4.64778e-06
4.4896e-06
3.59448e-06
1.68139e-07
6.14139e-06
6.38773e-05
0.000139679
0.000183234
0.000207001
0.000216376
0.000214884
0.000206541
0.000189839
0.000169048
0.000148912
0.000138494
0.000143706
0.000157676
0.000166602
0.000169021
0.000170203
0.000175603
0.000185303
0.000200056
0.000217494
0.000234328
0.000250834
0.000262136
0.00027204
0.000280855
0.000293696
0.000312795
0.000326741
0.000339486
0.00035041
0.00036034
0.000369439
0.00037734
0.000384553
0.000391268
0.00039771
0.00040401
0.000410233
0.000416375
0.000422394
0.000428236
0.00043386
0.00043924
0.000444357
0.000449197
0.000453748
0.00045801
0.000461984
0.000465709
0.000469151
0.000472348
0.00047529
0.000477982
0.000480423
0.000482617
0.000484562
0.00048626
0.000487711
0.000488915
0.000489874
0.00049059
0.000491067
0.000491315
0.00049134
0.000491136
0.000490699
0.000490046
0.00048918
0.000488108
0.000486836
0.00048537
0.000483718
0.000481886
0.000479882
0.000477713
0.000475387
0.000472911
0.000470294
0.000467542
0.000464664
0.000461667
0.000458561
0.000455351
0.000452048
0.00044866
0.000445194
0.000441659
0.000438062
0.000434411
0.000430709
0.000426957
0.000423147
0.00041926
0.00041527
0.000411161
0.000406961
0.00040272
0.000398464
0.000394199
0.000389929
0.000385659
0.000381392
0.00037713
0.000372878
0.000368639
0.000364413
0.000360203
0.000356004
0.000351828
0.00034768
0.000343561
0.000339473
0.000335418
0.000331398
0.000327413
0.000323467
0.000319559
0.000315691
0.000311864
0.000308079
0.000304337
0.000300639
0.000296986
0.000293378
0.000289814
0.000286293
0.000282813
0.000279379
0.000275988
0.000272649
0.000269362
0.000266112
0.000262898
0.000259725
0.000256596
0.000253511
0.000250472
0.000247478
0.000244528
0.000241621
0.000238758
0.000235936
0.000233157
0.000230419
0.000227721
0.000225064
0.000222446
0.000219868
0.000217329
0.000214829
0.000212368
0.000209945
0.00020756
0.000205215
0.000202909
0.000200642
0.000198417
0.000196233
0.000194092
0.000191996
0.000189947
0.000187946
0.000185995
0.000184095
0.000182248
0.000180454
0.000178713
0.000177022
0.000175376
0.000173777
0.000172199
0.000170685
0.000169074
0.000167752
0.00016562
0.000164904
0.000162097
0.000160724
7.68516e-07
4.45371e-05
0.000164282
0.000246517
0.000299853
0.000330177
0.000341218
0.000338352
0.000325521
0.000306248
0.000286473
0.000273748
0.000271485
0.000278164
0.000288521
0.00029935
0.000312111
0.000329063
0.000350661
0.000375821
0.000403211
0.000431568
0.000469767
0.000516156
0.000561811
0.000605969
0.000649071
0.000692745
0.000732089
0.000763382
0.000788394
0.000808221
0.000823938
0.000836408
0.000846413
0.000854731
0.000862061
0.000869047
0.000876228
0.000883959
0.000892347
0.000901271
0.000910488
0.000919765
0.000928923
0.000937842
0.000946446
0.000954688
0.000962531
0.000969946
0.000976912
0.000983398
0.000989403
0.000994918
0.000999943
0.00100448
0.00100852
0.00101207
0.00101512
0.00101768
0.00101975
0.00102133
0.00102241
0.00102296
0.00102311
0.00102283
0.00102204
0.00102079
0.00101911
0.00101699
0.00101445
0.00101151
0.00100817
0.00100446
0.00100038
0.000995945
0.000991178
0.00098609
0.000980697
0.000975012
0.000969052
0.000962832
0.000956366
0.00094967
0.000942759
0.000935648
0.000928351
0.000920883
0.000913258
0.000905488
0.000897586
0.000889562
0.000881427
0.000873188
0.000864854
0.000856434
0.00084794
0.000839389
0.000830797
0.000822177
0.00081354
0.000804895
0.000796249
0.000787611
0.000778988
0.000770386
0.000761812
0.000753272
0.000744772
0.000736317
0.000727912
0.000719564
0.000711277
0.000703054
0.0006949
0.000686817
0.00067881
0.00067088
0.000663031
0.000655265
0.000647583
0.000639987
0.000632481
0.000625064
0.00061774
0.000610507
0.000603367
0.00059632
0.000589366
0.000582506
0.000575742
0.000569072
0.000562496
0.000556007
0.000549604
0.000543291
0.000537068
0.000530936
0.000524897
0.000518948
0.000513089
0.00050732
0.000501638
0.000496044
0.000490535
0.000485111
0.000479771
0.000474513
0.000469337
0.000464241
0.000459224
0.000454284
0.000449422
0.000444636
0.000439924
0.000435286
0.00043072
0.000426225
0.000421801
0.000417445
0.000413157
0.000408935
0.000404776
0.00040068
0.000396642
0.00039266
0.000388731
0.000384847
0.000381004
0.000377192
0.000373398
0.00036961
0.000365802
0.000361955
0.000357995
0.000353955
0.000349473
0.00034508
0.00033859
0.000327132
5.06975e-07
8.12845e-05
0.000212965
0.000309199
0.000372985
0.0004104
0.000425977
0.000426369
0.000416359
0.000402956
0.000394797
0.000393958
0.000403183
0.000420393
0.000443146
0.0004709
0.000504251
0.000543561
0.000588017
0.000650232
0.000724092
0.00080388
0.000888147
0.000958813
0.00102125
0.00107737
0.00112779
0.0011727
0.00121197
0.00124585
0.0012751
0.00130043
0.00132255
0.0013421
0.00135963
0.00137566
0.00139058
0.00140475
0.00141841
0.00143176
0.00144493
0.00145798
0.00147094
0.00148379
0.00149649
0.00150895
0.00152108
0.00153279
0.00154398
0.00155458
0.00156453
0.0015738
0.00158238
0.00159024
0.00159738
0.00160379
0.00160946
0.0016144
0.0016186
0.00162206
0.00162478
0.00162676
0.00162792
0.00162836
0.00162823
0.00162732
0.00162569
0.00162337
0.00162038
0.00161672
0.00161242
0.0016075
0.00160198
0.00159588
0.00158922
0.00158203
0.00157432
0.00156613
0.00155746
0.00154836
0.00153883
0.0015289
0.00151859
0.00150794
0.00149695
0.00148566
0.00147409
0.00146225
0.00145018
0.00143788
0.00142538
0.00141269
0.00139985
0.00138685
0.00137371
0.00136046
0.00134711
0.00133368
0.00132019
0.00130666
0.0012931
0.00127953
0.00126595
0.00125239
0.00123885
0.00122535
0.0012119
0.00119849
0.00118515
0.00117188
0.00115869
0.00114559
0.00113259
0.00111968
0.00110688
0.00109419
0.00108162
0.00106917
0.00105684
0.00104465
0.00103258
0.00102065
0.00100886
0.000997203
0.00098569
0.000974319
0.000963092
0.00095201
0.000941073
0.000930282
0.000919638
0.00090914
0.000898785
0.000888569
0.000878492
0.000868554
0.000858757
0.000849101
0.000839586
0.000830211
0.000820975
0.000811877
0.000802914
0.000794087
0.000785392
0.000776828
0.000768394
0.000760087
0.000751906
0.000743849
0.000735914
0.0007281
0.000720404
0.000712824
0.00070536
0.000698008
0.000690768
0.000683637
0.000676613
0.000669694
0.000662877
0.000656161
0.000649541
0.000643015
0.000636578
0.000630225
0.000623951
0.000617748
0.000611606
0.000605513
0.000599452
0.000593402
0.000587335
0.000581211
0.000574968
0.000568549
0.000561772
0.00055458
0.000546338
0.000530148
1.49323e-06
0.000102054
0.000235117
0.000355053
0.000433971
0.000481482
0.000505122
0.000513592
0.000515167
0.000516153
0.000523029
0.000539187
0.000565241
0.000600223
0.000643346
0.000694625
0.000754702
0.000838115
0.000933781
0.00103
0.00111902
0.00120341
0.00128276
0.00135547
0.00142223
0.00148365
0.00154011
0.00159197
0.00163957
0.00168334
0.00172377
0.00176134
0.00179647
0.00182955
0.00186089
0.00189073
0.00191928
0.00194667
0.00197299
0.00199832
0.00202268
0.00204609
0.00206853
0.00209
0.00211047
0.0021299
0.00214827
0.00216555
0.00218171
0.00219673
0.0022106
0.00222333
0.00223492
0.00224539
0.00225476
0.00226305
0.00227027
0.00227643
0.00228156
0.00228566
0.00228876
0.00229081
0.00229173
0.00229181
0.00229094
0.00228906
0.00228623
0.00228246
0.00227777
0.00227219
0.00226574
0.00225846
0.00225036
0.00224148
0.00223185
0.0022215
0.00221045
0.00219875
0.00218642
0.00217349
0.00215999
0.00214596
0.00213143
0.00211642
0.00210096
0.0020851
0.00206886
0.00205226
0.00203534
0.00201812
0.00200064
0.00198291
0.00196497
0.00194683
0.00192853
0.00191007
0.00189149
0.00187281
0.00185405
0.00183524
0.0018164
0.00179754
0.00177868
0.00175984
0.00174104
0.00172229
0.0017036
0.00168499
0.00166647
0.00164805
0.00162973
0.00161154
0.00159348
0.00157556
0.00155779
0.00154017
0.00152271
0.00150542
0.0014883
0.00147136
0.00145459
0.00143801
0.00142162
0.00140542
0.00138942
0.00137361
0.00135799
0.00134258
0.00132736
0.00131234
0.00129752
0.0012829
0.00126848
0.00125425
0.00124021
0.00122636
0.00121271
0.00119925
0.00118598
0.0011729
0.00116001
0.00114731
0.00113479
0.00112246
0.0011103
0.00109833
0.00108653
0.00107491
0.00106345
0.00105217
0.00104105
0.00103009
0.0010193
0.00100866
0.000998178
0.000987849
0.000977671
0.00096764
0.000957754
0.000948009
0.000938403
0.000928932
0.000919592
0.000910378
0.000901286
0.00089231
0.00088344
0.00087467
0.000865986
0.000857374
0.000848816
0.000840285
0.000831749
0.000823163
0.000814459
0.000805568
0.000796325
0.000786581
0.000776612
0.000756792
2.2714e-06
0.000118197
0.000256363
0.000390145
0.000487234
0.000549154
0.000587019
0.000610483
0.00062824
0.000647562
0.000673702
0.00070931
0.000755122
0.000811413
0.000878583
0.00096908
0.00107421
0.00117593
0.00127515
0.00137066
0.00146136
0.00154736
0.00162861
0.00170507
0.00177703
0.00184485
0.00190887
0.00196942
0.00202683
0.00208144
0.00213357
0.00218349
0.00223148
0.00227772
0.00232239
0.00236561
0.00240745
0.00244799
0.00248725
0.00252524
0.00256195
0.00259737
0.00263146
0.00266419
0.00269554
0.00272544
0.00275387
0.00278078
0.00280613
0.00282991
0.00285206
0.00287258
0.00289145
0.00290866
0.00292419
0.00293806
0.00295026
0.0029608
0.00296969
0.00297696
0.00298262
0.0029867
0.00298912
0.00299002
0.00298956
0.00298759
0.00298425
0.00297955
0.00297354
0.00296629
0.00295784
0.00294825
0.00293757
0.00292584
0.00291312
0.00289946
0.00288489
0.00286948
0.00285326
0.00283627
0.00281855
0.00280016
0.00278113
0.0027615
0.00274131
0.0027206
0.00269941
0.00267778
0.00265575
0.00263335
0.00261062
0.00258759
0.00256429
0.00254076
0.00251703
0.00249312
0.00246906
0.00244489
0.00242063
0.00239631
0.00237195
0.00234757
0.00232321
0.00229887
0.00227459
0.00225037
0.00222624
0.00220221
0.00217829
0.00215451
0.00213087
0.00210739
0.00208407
0.00206094
0.00203799
0.00201524
0.0019927
0.00197037
0.00194826
0.00192638
0.00190473
0.00188331
0.00186213
0.0018412
0.00182051
0.00180007
0.00177987
0.00175993
0.00174025
0.00172081
0.00170163
0.0016827
0.00166402
0.00164559
0.0016274
0.00160946
0.00159176
0.00157431
0.0015571
0.00154013
0.0015234
0.0015069
0.00149064
0.00147461
0.00145881
0.00144323
0.00142787
0.00141274
0.00139781
0.00138311
0.00136861
0.00135431
0.00134022
0.00132632
0.00131263
0.00129912
0.0012858
0.00127267
0.00125972
0.00124695
0.00123436
0.00122193
0.00120967
0.00119757
0.00118562
0.00117382
0.00116216
0.00115062
0.00113921
0.00112789
0.00111665
0.00110546
0.00109428
0.00108308
0.00107177
0.0010603
0.00104848
0.00103626
0.00102408
0.0010016
2.80524e-06
0.000126816
0.000269274
0.00040772
0.000526494
0.000608029
0.000664234
0.000706242
0.000743298
0.000782666
0.000829404
0.000886461
0.000955462
0.00104778
0.00115478
0.00126139
0.0013675
0.00147086
0.00157094
0.0016673
0.00175969
0.00184813
0.0019327
0.00201356
0.00209095
0.00216515
0.00223643
0.00230506
0.00237129
0.00243537
0.00249749
0.00255785
0.00261658
0.00267381
0.00272962
0.00278407
0.00283718
0.00288898
0.00293946
0.0029886
0.00303637
0.00308273
0.00312764
0.00317105
0.00321291
0.00325316
0.00329175
0.00332864
0.00336376
0.00339708
0.00342855
0.00345813
0.00348578
0.00351148
0.00353521
0.00355693
0.00357664
0.00359432
0.00360998
0.0036236
0.0036352
0.00364478
0.00365236
0.00365798
0.00366163
0.00366325
0.00366317
0.00366118
0.0036574
0.00365189
0.00364468
0.00363584
0.00362542
0.00361349
0.00360011
0.00358534
0.00356925
0.00355191
0.00353338
0.00351373
0.00349303
0.00347135
0.00344874
0.00342528
0.00340103
0.00337605
0.00335041
0.00332416
0.00329735
0.00327005
0.00324229
0.00321414
0.00318563
0.00315682
0.00312774
0.00309843
0.00306893
0.00303928
0.00300951
0.00297966
0.00294976
0.00291984
0.00288992
0.00286004
0.00283022
0.00280047
0.00277083
0.00274131
0.00271193
0.00268271
0.00265367
0.00262481
0.00259616
0.00256772
0.00253951
0.00251155
0.00248383
0.00245636
0.00242917
0.00240224
0.0023756
0.00234924
0.00232317
0.00229739
0.00227191
0.00224673
0.00222185
0.00219727
0.00217299
0.00214902
0.00212536
0.002102
0.00207894
0.00205618
0.00203371
0.00201154
0.00198967
0.00196809
0.0019468
0.0019258
0.00190508
0.00188465
0.0018645
0.00184463
0.00182503
0.00180571
0.00178665
0.00176785
0.00174931
0.00173103
0.00171299
0.00169521
0.00167766
0.00166036
0.00164329
0.00162645
0.00160984
0.00159345
0.00157728
0.00156133
0.00154559
0.00153005
0.00151471
0.00149957
0.00148462
0.00146984
0.00145524
0.00144079
0.00142649
0.00141232
0.00139826
0.00138427
0.00137033
0.00135638
0.00134235
0.00132818
0.00131371
0.00129895
0.00128394
0.00125969
2.94215e-06
0.000128731
0.000270664
0.000407301
0.000538102
0.00064177
0.000719032
0.000780483
0.000836283
0.000894135
0.00096173
0.00105369
0.00116331
0.00128505
0.00140063
0.0015119
0.00161974
0.00172431
0.00182557
0.00192344
0.00201794
0.00210914
0.0021972
0.0022823
0.00236465
0.00244449
0.00252203
0.00259748
0.00267104
0.00274289
0.00281315
0.00288195
0.00294938
0.00301551
0.00308037
0.00314398
0.00320636
0.00326747
0.00332729
0.00338579
0.00344291
0.0034986
0.00355281
0.00360546
0.00365649
0.00370584
0.00375345
0.00379924
0.00384316
0.00388515
0.00392516
0.00396312
0.00399901
0.00403277
0.00406436
0.00409376
0.00412094
0.00414587
0.00416854
0.00418894
0.00420707
0.00422292
0.0042365
0.00424783
0.00425692
0.00426379
0.00426851
0.00427097
0.0042714
0.00426976
0.00426609
0.00426045
0.00425288
0.00424345
0.00423222
0.00421925
0.0042046
0.00418835
0.00417055
0.00415128
0.00413062
0.00410863
0.00408538
0.00406095
0.00403541
0.00400884
0.00398129
0.00395285
0.00392358
0.00389355
0.00386282
0.00383146
0.00379953
0.00376708
0.00373418
0.00370089
0.00366724
0.00363331
0.00359913
0.00356475
0.00353023
0.00349559
0.00346088
0.00342615
0.00339141
0.00335671
0.00332208
0.00328754
0.00325313
0.00321885
0.00318475
0.00315084
0.00311713
0.00308365
0.00305041
0.00301743
0.00298472
0.00295229
0.00292015
0.00288832
0.0028568
0.0028256
0.00279472
0.00276417
0.00273396
0.00270409
0.00267456
0.00264537
0.00261653
0.00258805
0.0025599
0.00253211
0.00250466
0.00247756
0.0024508
0.00242438
0.0023983
0.00237256
0.00234715
0.00232208
0.00229734
0.00227292
0.00224883
0.00222507
0.00220162
0.00217848
0.00215565
0.00213312
0.0021109
0.00208897
0.00206733
0.00204598
0.00202492
0.00200413
0.00198361
0.00196337
0.00194339
0.00192367
0.00190421
0.001885
0.00186604
0.00184731
0.00182883
0.00181057
0.00179253
0.00177471
0.0017571
0.00173967
0.00172242
0.00170533
0.00168838
0.00167153
0.00165475
0.00163799
0.00162118
0.00160424
0.00158705
0.00156964
0.00155171
0.00152557
2.75913e-06
0.000125265
0.000264039
0.000395764
0.000520537
0.000633071
0.000727058
0.000808258
0.000891309
0.000986648
0.00109589
0.00122058
0.00135699
0.00148451
0.00160482
0.00171984
0.00183056
0.00193733
0.00204048
0.00214036
0.00223719
0.00233116
0.00242247
0.00251134
0.00259796
0.00268254
0.00276526
0.00284631
0.00292583
0.00300396
0.0030808
0.00315643
0.0032309
0.00330426
0.00337651
0.00344764
0.00351764
0.00358646
0.00365407
0.0037204
0.00378538
0.00384895
0.00391104
0.00397156
0.00403044
0.0040876
0.00414296
0.00419646
0.004248
0.00429754
0.00434499
0.00439031
0.00443343
0.0044743
0.00451288
0.00454913
0.00458301
0.00461449
0.00464355
0.00467018
0.00469436
0.00471609
0.00473537
0.0047522
0.0047666
0.00477859
0.0047882
0.00479543
0.00480037
0.00480293
0.00480332
0.00480151
0.00479754
0.00479148
0.00478338
0.0047733
0.0047613
0.00474745
0.00473181
0.00471445
0.00469544
0.00467485
0.00465276
0.00462924
0.00460435
0.00457818
0.0045508
0.00452227
0.00449267
0.00446208
0.00443055
0.00439817
0.00436499
0.00433109
0.00429652
0.00426135
0.00422564
0.00418945
0.00415284
0.00411587
0.00407858
0.00404104
0.00400328
0.00396536
0.00392732
0.00388919
0.00385103
0.00381287
0.00377474
0.00373667
0.0036987
0.00366086
0.00362317
0.00358565
0.00354833
0.00351124
0.00347438
0.00343778
0.00340146
0.00336542
0.00332969
0.00329427
0.00325917
0.00322441
0.00318998
0.00315591
0.00312219
0.00308884
0.00305584
0.00302321
0.00299096
0.00295907
0.00292755
0.00289641
0.00286564
0.00283523
0.0028052
0.00277553
0.00274623
0.0027173
0.00268873
0.00266052
0.00263267
0.00260517
0.00257802
0.00255122
0.00252477
0.00249865
0.00247287
0.00244742
0.00242229
0.00239749
0.002373
0.00234883
0.00232497
0.00230141
0.00227815
0.00225518
0.00223251
0.00221012
0.00218801
0.00216617
0.0021446
0.0021233
0.00210225
0.00208144
0.00206088
0.00204053
0.00202039
0.00200043
0.00198064
0.00196098
0.00194142
0.00192189
0.00190233
0.00188268
0.00186279
0.00184273
0.00182198
0.00179365
2.34414e-06
0.000117986
0.000252843
0.000380967
0.000503938
0.000620471
0.000731361
0.000840468
0.000955392
0.00108129
0.0012194
0.00136918
0.00151149
0.00164349
0.00176775
0.00188618
0.00199991
0.00210956
0.00221552
0.00231801
0.00241741
0.00251412
0.00260843
0.00270059
0.00279083
0.00287935
0.00296634
0.00305196
0.00313633
0.00321958
0.00330177
0.00338296
0.0034632
0.0035425
0.00362084
0.00369821
0.00377456
0.00384983
0.00392398
0.00399691
0.00406855
0.00413882
0.00420763
0.00427488
0.00434049
0.00440437
0.00446642
0.00452657
0.00458472
0.0046408
0.00469473
0.00474645
0.00479589
0.00484299
0.00488769
0.00492996
0.00496975
0.00500702
0.00504176
0.00507393
0.00510353
0.00513054
0.00515496
0.00517679
0.00519606
0.00521276
0.00522693
0.00523858
0.00524776
0.00525448
0.0052588
0.00526074
0.0052604
0.00525779
0.00525297
0.00524601
0.00523695
0.00522588
0.00521284
0.0051979
0.00518114
0.00516262
0.00514242
0.0051206
0.00509724
0.00507241
0.00504619
0.00501864
0.00498985
0.00495987
0.00492879
0.00489666
0.00486357
0.00482957
0.00479474
0.00475914
0.00472283
0.00468588
0.00464834
0.00461029
0.00457177
0.00453284
0.00449355
0.00445397
0.00441413
0.00437408
0.00433387
0.00429354
0.00425314
0.00421269
0.00417224
0.00413183
0.00409147
0.00405121
0.00401108
0.00397109
0.00393128
0.00389166
0.00385227
0.00381311
0.00377421
0.00373558
0.00369724
0.0036592
0.00362148
0.00358408
0.00354701
0.00351029
0.00347392
0.00343791
0.00340226
0.00336697
0.00333205
0.00329751
0.00326334
0.00322955
0.00319613
0.00316309
0.00313043
0.00309815
0.00306624
0.0030347
0.00300354
0.00297275
0.00294233
0.00291228
0.00288259
0.00285326
0.00282428
0.00279566
0.00276739
0.00273946
0.00271187
0.00268462
0.00265771
0.00263112
0.00260486
0.00257891
0.00255329
0.00252797
0.00250296
0.00247826
0.00245384
0.00242972
0.00240588
0.00238231
0.002359
0.00233593
0.0023131
0.00229048
0.00226805
0.00224577
0.0022236
0.00220149
0.00217938
0.00215718
0.00213478
0.0021122
0.0020889
0.00205823
1.92668e-06
0.000110304
0.000242557
0.000369899
0.000495637
0.000620065
0.000744987
0.000874475
0.00101184
0.00115916
0.00131659
0.00147839
0.0016262
0.00176266
0.00189076
0.00201253
0.00212922
0.00224167
0.0023504
0.00245581
0.0025582
0.00265776
0.00275493
0.00285007
0.00294345
0.00303533
0.00312589
0.00321529
0.00330367
0.00339113
0.00347775
0.00356356
0.00364859
0.00373284
0.00381628
0.00389888
0.00398059
0.00406133
0.00414102
0.00421958
0.00429692
0.00437293
0.00444752
0.00452057
0.00459199
0.00466168
0.00472954
0.00479546
0.00485937
0.00492115
0.00498075
0.00503807
0.00509305
0.00514562
0.00519572
0.0052433
0.00528832
0.00533073
0.00537051
0.00540762
0.00544206
0.00547381
0.00550286
0.00552922
0.0055529
0.0055739
0.00559225
0.00560797
0.0056211
0.00563165
0.00563968
0.00564523
0.00564834
0.00564906
0.00564746
0.00564358
0.00563749
0.00562924
0.0056189
0.00560654
0.00559222
0.005576
0.00555797
0.00553819
0.00551673
0.00549367
0.00546908
0.00544304
0.0054156
0.00538685
0.00535685
0.00532568
0.0052934
0.00526009
0.0052258
0.00519061
0.00515458
0.00511777
0.00508025
0.00504208
0.00500332
0.00496403
0.00492426
0.00488406
0.0048435
0.00480261
0.00476144
0.00472005
0.00467847
0.00463676
0.00459493
0.00455305
0.00451114
0.00446923
0.00442736
0.00438556
0.00434386
0.00430229
0.00426086
0.00421961
0.00417855
0.00413771
0.00409711
0.00405675
0.00401666
0.00397686
0.00393735
0.00389814
0.00385925
0.00382069
0.00378247
0.00374459
0.00370705
0.00366987
0.00363305
0.00359658
0.00356049
0.00352476
0.0034894
0.00345441
0.00341979
0.00338555
0.00335167
0.00331817
0.00328504
0.00325228
0.00321989
0.00318786
0.0031562
0.0031249
0.00309395
0.00306336
0.00303313
0.00300324
0.00297369
0.00294449
0.00291563
0.00288711
0.00285891
0.00283105
0.0028035
0.00277628
0.00274936
0.00272276
0.00269645
0.00267044
0.0026447
0.00261923
0.00259402
0.00256903
0.00254425
0.00251964
0.00249516
0.00247076
0.00244637
0.00242192
0.0023973
0.00237249
0.00234698
0.00231417
1.54327e-06
0.000102163
0.000232065
0.000359043
0.000487705
0.000618969
0.000755497
0.000899204
0.00105182
0.00121388
0.0013859
0.00155187
0.00170367
0.00184399
0.0019756
0.00210048
0.00221998
0.00233503
0.0024463
0.00255428
0.00265936
0.00276183
0.00286198
0.00295998
0.00305626
0.00315112
0.00324479
0.00333745
0.00342926
0.0035203
0.00361067
0.00370039
0.00378949
0.00387796
0.00396575
0.00405283
0.00413912
0.00422454
0.00430901
0.00439242
0.00447467
0.00455564
0.00463523
0.00471331
0.00478978
0.00486453
0.00493744
0.00500841
0.00507734
0.00514412
0.00520868
0.00527093
0.00533078
0.00538818
0.00544305
0.00549534
0.00554499
0.00559198
0.00563626
0.0056778
0.00571658
0.0057526
0.00578584
0.0058163
0.00584399
0.00586893
0.00589113
0.00591061
0.0059274
0.00594153
0.00595305
0.00596199
0.00596839
0.00597232
0.00597381
0.00597294
0.00596977
0.00596434
0.00595672
0.00594697
0.00593516
0.00592136
0.00590564
0.00588806
0.00586871
0.00584765
0.00582496
0.0058007
0.00577496
0.00574779
0.00571927
0.00568946
0.00565845
0.00562629
0.00559305
0.0055588
0.00552361
0.00548753
0.00545064
0.005413
0.00537465
0.00533568
0.00529612
0.00525603
0.00521548
0.0051745
0.00513315
0.00509148
0.00504953
0.00500735
0.00496497
0.00492244
0.0048798
0.00483708
0.00479432
0.00475155
0.00470881
0.00466611
0.0046235
0.00458099
0.00453861
0.00449639
0.00445434
0.00441248
0.00437084
0.00432943
0.00428826
0.00424736
0.00420673
0.00416638
0.00412633