/*--------------------------------*- C++ -*----------------------------------*\
  =========                 |
  \\      /  F ield         | OpenFOAM: The Open Source CFD Toolbox
   \\    /   O peration     | Website:  https://openfoam.org
    \\  /    A nd           | Version:  8
     \\/     M anipulation  |
\*---------------------------------------------------------------------------*/
FoamFile
{
    version     2.0;
    format      ascii;
    class       volScalarField;
    location    "2600";
    object      nuTilda;
}
// * * * * * * * * * * * * * * * * * * * * * * * * * * * * * * * * * * * * * //

dimensions      [0 2 -1 0 0 0 0];

internalField   nonuniform List<scalar> 
12225
(
0.0122671
0.00158833
0.000666932
0.000412201
0.000298001
0.000234419
0.000192049
0.000186518
0.000141364
0.000110263
9.73201e-05
9.07193e-05
8.20034e-05
7.63423e-05
7.17077e-05
7.01739e-05
6.8134e-05
7.40041e-05
0.0323823
0.00744533
0.00330642
0.00204338
0.00146818
0.00114477
0.000936743
0.000800567
0.000680243
0.00057806
0.000507247
0.000453561
0.000411868
0.000380373
0.000352023
0.000329997
0.000313758
0.000295893
0.0490123
0.01515
0.00728196
0.00457856
0.00330642
0.00258059
0.00211241
0.00178924
0.00154196
0.00134781
0.00119795
0.00107898
0.000982392
0.000902878
0.000836443
0.000781454
0.00073617
0.000687905
0.063054
0.0237783
0.0122894
0.00788815
0.00573398
0.004485
0.00367415
0.00310736
0.00268476
0.00235811
0.00210119
0.00189468
0.00172543
0.00158465
0.0014663
0.00136624
0.00128169
0.00119816
0.074932
0.0328517
0.0181452
0.0119262
0.00874549
0.00686413
0.00563081
0.00476256
0.0041175
0.00362033
0.00322735
0.00290997
0.00264905
0.0024315
0.00224807
0.00209197
0.00195837
0.0018364
0.0849536
0.0420208
0.0246655
0.0166359
0.0123325
0.00972587
0.0079954
0.00676786
0.00585347
0.00514771
0.00458846
0.0041359
0.00376338
0.00345244
0.00318988
0.00296602
0.00277367
0.00260479
0.0933822
0.0510219
0.0316642
0.0219415
0.016474
0.0130717
0.0107779
0.00913552
0.00790571
0.00695341
0.00619691
0.00558369
0.00507839
0.00465635
0.00429979
0.00399565
0.00373419
0.00350824
0.0993794
0.0583363
0.0378386
0.0268568
0.0204171
0.0163053
0.0134892
0.011453
0.00991892
0.0087263
0.00777636
0.00700499
0.00636868
0.00583687
0.00538743
0.00500401
0.00467456
0.00439131
0.104023
0.0645454
0.0433804
0.0314239
0.0241571
0.0194092
0.0161097
0.0137018
0.0118766
0.0104521
0.00931444
0.00838905
0.00762487
0.00698576
0.00644547
0.00598452
0.00558862
0.00524881
0.108368
0.0708939
0.0493756
0.0365496
0.0284517
0.0230231
0.0191863
0.0163548
0.0141926
0.0124968
0.011138
0.0100304
0.00911435
0.00834761
0.00769912
0.00714581
0.00667071
0.00626301
0.112368
0.0772557
0.0557282
0.0421918
0.0332976
0.0271652
0.0227468
0.0194432
0.0168984
0.0148903
0.0132749
0.0119545
0.0108605
0.0099438
0.00916798
0.00850588
0.00793738
0.00744918
0.115994
0.0834975
0.0623053
0.0482611
0.0386474
0.0318167
0.026789
0.0229739
0.0200046
0.0176452
0.0157379
0.0141736
0.0128749
0.011785
0.0108618
0.0100736
0.00939673
0.00881466
0.119234
0.0894856
0.0689377
0.0546109
0.0443919
0.0369007
0.0312597
0.0269088
0.0234836
0.02074
0.0185097
0.0166735
0.0151449
0.01386
0.0127704
0.0118396
0.0110397
0.0103508
0.122086
0.095084
0.075415
0.0610223
0.0503361
0.0422534
0.0360231
0.0311353
0.0272402
0.024093
0.021519
0.0193909
0.017614
0.0161174
0.0148466
0.0137601
0.0128257
0.0120196
0.124546
0.100135
0.0814619
0.0671725
0.056158
0.047577
0.0408126
0.0354174
0.031066
0.0275196
0.0246012
0.0221777
0.0201481
0.0184349
0.0169782
0.0157314
0.0146583
0.0137312
0.126578
0.104396
0.0866605
0.0725515
0.0613228
0.0523526
0.0451453
0.0393148
0.0345631
0.0306611
0.0274325
0.0247409
0.0224806
0.020569
0.0189413
0.0175468
0.0163454
0.0153061
0.128011
0.107322
0.0902141
0.0762353
0.0648743
0.0556509
0.0481493
0.0420254
0.0370012
0.0328553
0.0294126
0.0265352
0.0241143
0.0220643
0.0203172
0.0188191
0.0175275
0.0164083
0.128006
0.107313
0.0902048
0.0762269
0.0648674
0.0556454
0.048145
0.0420222
0.0369988
0.0328537
0.0294117
0.0265349
0.0241147
0.0220652
0.0203185
0.0188206
0.0175287
0.0164083
0.126509
0.104255
0.0864922
0.0723807
0.0611613
0.052205
0.0450128
0.0391967
0.0344584
0.0305686
0.0273506
0.0246684
0.0224163
0.0205118
0.0188903
0.0175006
0.0163024
0.0152631
0.124267
0.0995604
0.0807712
0.0664676
0.0554886
0.0469631
0.0402594
0.0349228
0.0306248
0.0271258
0.0242488
0.0218611
0.0198626
0.0181762
0.0167426
0.0155152
0.0144575
0.0135405
0.12136
0.0936399
0.0737261
0.0593348
0.0487592
0.0408249
0.0347467
0.0300003
0.0262308
0.0231928
0.0207127
0.018665
0.0169572
0.0155198
0.0142999
0.0132567
0.0123583
0.0115798
0.117686
0.0865903
0.0656967
0.0514791
0.0415374
0.0343608
0.0290184
0.0249322
0.0217348
0.0191848
0.0171184
0.0154211
0.0140106
0.0128263
0.0118229
0.0109657
0.010228
0.00958895
0.11305
0.0784122
0.056921
0.0432687
0.0342296
0.0279652
0.0234365
0.0200435
0.0174263
0.0153597
0.0136966
0.0123369
0.0112106
0.010267
0.00946866
0.0087872
0.00820102
0.00769347
0.107169
0.0691009
0.0476372
0.035029
0.0271566
0.021922
0.0182437
0.0155401
0.0134817
0.0118706
0.0105815
0.00953197
0.00866486
0.00793966
0.00732668
0.0068038
0.00635413
0.00596497
0.0996761
0.0587036
0.0381279
0.0270699
0.0205782
0.0164329
0.0135949
0.0115438
0.00999922
0.00879908
0.00784341
0.00706756
0.0064279
0.0058936
0.00544224
0.00505742
0.00472639
0.00444017
0.0901097
0.0473665
0.0287363
0.0196847
0.0146976
0.0116312
0.00957853
0.00811528
0.00702332
0.00617994
0.00551057
0.00496794
0.00452112
0.00414822
0.00383313
0.00356473
0.00333341
0.00313402
0.0779076
0.0353826
0.0198606
0.0131383
0.00966107
0.00759298
0.00623353
0.00527431
0.00456401
0.00401884
0.00358699
0.00323613
0.00294717
0.00270615
0.00250184
0.0023285
0.00217767
0.00204929
0.06238
0.0232554
0.0119461
0.00765494
0.00556339
0.00435258
0.00356726
0.00301643
0.00261312
0.002308
0.00206665
0.00186728
0.00170222
0.00156491
0.00144606
0.00134791
0.00125816
0.00118466
0.0426105
0.0117794
0.00546931
0.00341388
0.00246077
0.00192015
0.0015729
0.00132905
0.0011597
0.00103887
0.00094447
0.000858536
0.000784754
0.000724993
0.00066252
0.000624995
0.000578547
0.00053849
0.0168348
0.0025599
0.00110031
0.000684192
0.000495179
0.000389152
0.000321659
0.000270754
0.000280886
0.000339002
0.000384475
0.000374337
0.00034184
0.000322356
0.000257151
0.00033064
0.000298004
0.000236258
3.78125e-06
1.4322e-05
2.60289e-05
3.8537e-05
4.60104e-05
4.96617e-05
5.0154e-05
4.78135e-05
4.46232e-05
3.95547e-05
3.42202e-05
2.94489e-05
2.67706e-05
2.74475e-05
2.96315e-05
3.14821e-05
3.13396e-05
2.85165e-05
2.38768e-05
2.02116e-05
2.08213e-05
2.6419e-05
3.93368e-05
6.38855e-05
8.71948e-05
0.000100606
0.000113329
0.000124338
0.000134324
0.000142828
0.00015042
0.000157039
0.000162901
0.000168056
0.000172588
0.000176615
0.000180202
0.000183421
0.000186318
0.000188929
0.000191279
0.000193385
0.000195262
0.000196925
0.000198385
0.000199653
0.000200738
0.000201647
0.000202379
0.000202804
0.000203295
0.000203378
0.000203437
0.000203322
0.000203044
0.00020263
0.000202075
0.000201382
0.000200554
0.000199593
0.0001985
0.000197279
0.000195933
0.000194463
0.000192873
0.000191166
0.000189343
0.000187406
0.000185361
0.000183209
0.000180954
0.000178599
0.000176145
0.000173597
0.000170956
0.000168225
0.000165407
0.000162504
0.000159516
0.000156445
0.000153291
0.000150053
0.000146729
0.000143318
0.000139817
0.000136221
0.000132526
0.000128723
0.0001248
0.000120743
0.000116535
0.000112161
0.00010762
0.000102965
9.8401e-05
9.44186e-05
9.15952e-05
8.98387e-05
8.85243e-05
8.73195e-05
8.61362e-05
8.49574e-05
8.37815e-05
8.26091e-05
8.14411e-05
8.02785e-05
7.91225e-05
7.79775e-05
7.68645e-05
7.59098e-05
7.49759e-05
7.40479e-05
7.3128e-05
7.22164e-05
7.13133e-05
7.04193e-05
6.95346e-05
6.86596e-05
6.77945e-05
6.69396e-05
6.6095e-05
6.5261e-05
6.44379e-05
6.3626e-05
6.28255e-05
6.20361e-05
6.12589e-05
6.05195e-05
5.98423e-05
5.91737e-05
5.85103e-05
5.78603e-05
5.72284e-05
5.66017e-05
5.59798e-05
5.53659e-05
5.47611e-05
5.4166e-05
5.35805e-05
5.30047e-05
5.24383e-05
5.18812e-05
5.13333e-05
5.07945e-05
5.02646e-05
4.97435e-05
4.92311e-05
4.87273e-05
4.82321e-05
4.77453e-05
4.72669e-05
4.67967e-05
4.63349e-05
4.58813e-05
4.5436e-05
4.4999e-05
4.45703e-05
4.415e-05
4.37383e-05
4.33353e-05
4.29412e-05
4.25563e-05
4.21807e-05
4.18148e-05
4.14586e-05
4.11125e-05
4.07762e-05
4.04496e-05
4.01323e-05
3.98235e-05
3.95212e-05
3.92256e-05
3.89279e-05
3.86412e-05
3.83123e-05
3.80566e-05
3.75489e-05
3.7354e-05
3.63033e-05
3.4909e-05
5.89774e-06
4.05871e-05
9.24621e-05
0.000153701
0.000192546
0.000214551
0.000223344
0.000221917
0.000214075
0.000198519
0.000179503
0.000161548
0.000152477
0.000157001
0.000169316
0.000177333
0.000179531
0.000180673
0.000185625
0.000194332
0.000208067
0.000224501
0.000240365
0.000256178
0.00026706
0.000276639
0.000285188
0.000297681
0.000316331
0.000329996
0.000342509
0.000353255
0.000363036
0.000372008
0.000379805
0.000386929
0.000393565
0.000399935
0.000406168
0.000412327
0.00041841
0.000424372
0.000430161
0.000435737
0.000441072
0.000446148
0.00045095
0.000455466
0.000459697
0.000463643
0.000467342
0.00047076
0.000473937
0.000476859
0.000479533
0.000481959
0.000484139
0.000486072
0.00048776
0.000489202
0.000490399
0.000491352
0.000492064
0.000492538
0.000492785
0.000492809
0.000492606
0.000492172
0.000491523
0.000490662
0.000489597
0.000488332
0.000486875
0.000485233
0.000483413
0.000481421
0.000479266
0.000476955
0.000474496
0.000471896
0.000469162
0.000466304
0.000463329
0.000460244
0.000457058
0.00045378
0.000450417
0.000446979
0.000443472
0.000439904
0.000436283
0.000432613
0.000428894
0.000425118
0.000421267
0.000417316
0.000413247
0.000409089
0.000404892
0.000400681
0.000396463
0.000392242
0.000388022
0.000383806
0.000379598
0.000375401
0.000371218
0.000367051
0.0003629
0.000358763
0.000354651
0.000350568
0.000346516
0.000342497
0.000338513
0.000334565
0.000330655
0.000326784
0.000322955
0.000319167
0.000315421
0.00031172
0.000308063
0.000304452
0.000300888
0.000297371
0.0002939
0.000290474
0.000287091
0.000283756
0.000280465
0.000277229
0.000274046
0.000270903
0.000267797
0.000264735
0.000261718
0.000258749
0.000255827
0.000252951
0.000250121
0.000247337
0.000244597
0.000241902
0.00023925
0.000236642
0.000234076
0.000231552
0.00022907
0.000226629
0.000224229
0.000221869
0.00021955
0.000217271
0.000215032
0.000212833
0.000210675
0.000208559
0.000206484
0.000204451
0.000202463
0.00020052
0.000198623
0.000196775
0.000194976
0.000193228
0.000191532
0.000189888
0.000188294
0.00018675
0.00018525
0.000183796
0.000182359
0.000180996
0.000179512
0.000178389
0.000176294
0.00017597
0.000172992
0.000172129
1.2876e-05
7.40632e-05
0.000174299
0.000251867
0.00030365
0.000333358
0.00034421
0.000341394
0.000328799
0.00030993
0.000290649
0.000278294
0.000276102
0.000282576
0.00029264
0.000303193
0.00031566
0.000332273
0.000353505
0.000378304
0.000405378
0.000433467
0.000471372
0.000517489
0.000562938
0.000606939
0.000649917
0.000693488
0.000732755
0.000763995
0.000788968
0.000808768
0.000824464
0.000836919
0.000846912
0.00085522
0.000862541
0.00086952
0.000876693
0.000884416
0.000892796
0.00090171
0.00091092
0.000920188
0.000929337
0.000938249
0.000946846
0.00095508
0.000962917
0.000970326
0.000977287
0.000983768
0.000989768
0.00099528
0.0010003
0.00100483
0.00100887
0.00101241
0.00101547
0.00101803
0.0010201
0.00102167
0.00102276
0.0010233
0.00102346
0.00102317
0.00102238
0.00102114
0.00101945
0.00101734
0.0010148
0.00101186
0.00100852
0.00100481
0.00100073
0.000996305
0.000991542
0.000986458
0.000981068
0.000975388
0.000969433
0.000963217
0.000956757
0.000950066
0.000943161
0.000936056
0.000928766
0.000921305
0.000913686
0.000905924
0.000898029
0.000890014
0.000881887
0.000873657
0.000865332
0.000856921
0.000848437
0.000839896
0.000831315
0.000822706
0.00081408
0.000805446
0.000796812
0.000788187
0.000779576
0.000770987
0.000762427
0.000753901
0.000745415
0.000736975
0.000728586
0.000720253
0.000711982
0.000703776
0.000695639
0.000687574
0.000679584
0.000671672
0.000663842
0.000656095
0.000648433
0.000640858
0.000633372
0.000625977
0.000618674
0.000611463
0.000604345
0.000597321
0.000590391
0.000583556
0.000576815
0.000570171
0.00056362
0.000557157
0.000550781
0.000544495
0.0005383
0.000532197
0.000526186
0.000520267
0.000514438
0.000508699
0.000503048
0.000497486
0.000492009
0.000486618
0.000481311
0.000476087
0.000470945
0.000465884
0.000460902
0.000455999
0.000451174
0.000446424
0.00044175
0.000437151
0.000432624
0.000428169
0.000423785
0.00041947
0.000415223
0.000411042
0.000406926
0.000402873
0.000398879
0.000394942
0.000391057
0.00038722
0.000383423
0.000379659
0.000375914
0.000372176
0.00036842
0.000364627
0.000360725
0.000356747
0.000352327
0.000348026
0.000341568
0.000330417
2.17707e-05
0.00010643
0.000220233
0.000312829
0.000375508
0.000412492
0.000427922
0.000428311
0.000418394
0.000405125
0.000397054
0.000396225
0.00040535
0.000422389
0.000444947
0.000472497
0.000505647
0.000544764
0.000589047
0.000651075
0.000724773
0.000804433
0.0008886
0.000959202
0.00102159
0.00107768
0.00112807
0.00117296
0.00121221
0.00124608
0.00127532
0.00130064
0.00132276
0.0013423
0.00135983
0.00137585
0.00139077
0.00140493
0.00141859
0.00143194
0.0014451
0.00145815
0.00147111
0.00148396
0.00149665
0.00150911
0.00152124
0.00153294
0.00154413
0.00155472
0.00156468
0.00157395
0.00158252
0.00159038
0.00159752
0.00160393
0.0016096
0.00161454
0.00161874
0.0016222
0.00162492
0.0016269
0.00162806
0.00162849
0.00162837
0.00162746
0.00162583
0.00162351
0.00162051
0.00161686
0.00161256
0.00160764
0.00160212
0.00159602
0.00158937
0.00158217
0.00157447
0.00156627
0.00155761
0.0015485
0.00153898
0.00152905
0.00151875
0.0015081
0.00149711
0.00148583
0.00147425
0.00146242
0.00145035
0.00143805
0.00142555
0.00141287
0.00140003
0.00138703
0.0013739
0.00136066
0.00134731
0.00133388
0.0013204
0.00130687
0.00129331
0.00127974
0.00126618
0.00125262
0.00123909
0.00122559
0.00121214
0.00119874
0.00118541
0.00117214
0.00115896
0.00114587
0.00113286
0.00111996
0.00110717
0.00109449
0.00108193
0.00106948
0.00105716
0.00104497
0.00103292
0.00102099
0.00100921
0.000997562
0.000986058
0.000974696
0.000963478
0.000952404
0.000941477
0.000930695
0.000920061
0.000909572
0.000899227
0.000889022
0.000878955
0.000869028
0.000859242
0.000849597
0.000840093
0.000830729
0.000821505
0.000812419
0.000803468
0.000794653
0.000785971
0.00077742
0.000768999
0.000760705
0.000752538
0.000744494
0.000736573
0.000728773
0.000721091
0.000713527
0.000706077
0.000698741
0.000691516
0.0006844
0.000677392
0.000670489
0.000663689
0.000656989
0.000650386
0.000643877
0.000637457
0.000631123
0.000624867
0.000618682
0.000612558
0.000606484
0.000600443
0.000594414
0.000588367
0.000582265
0.000576044
0.00056965
0.000562899
0.000555738
0.000547517
0.00053142
2.697e-05
0.000122007
0.000241107
0.000357826
0.000435847
0.000483011
0.000506513
0.000514938
0.000516505
0.000517486
0.000524328
0.00054041
0.000566354
0.000601212
0.000644207
0.000695364
0.000755329
0.000838623
0.000934191
0.00103034
0.0011193
0.00120366
0.00128298
0.00135566
0.00142241
0.00148381
0.00154026
0.00159211
0.0016397
0.00168347
0.00172389
0.00176145
0.00179659
0.00182966
0.00186099
0.00189083
0.00191938
0.00194676
0.00197308
0.00199841
0.00202277
0.00204617
0.00206862
0.00209008
0.00211055
0.00212998
0.00214835
0.00216562
0.00218178
0.0021968
0.00221067
0.0022234
0.00223499
0.00224546
0.00225483
0.00226312
0.00227033
0.0022765
0.00228163
0.00228573
0.00228883
0.00229088
0.00229179
0.00229188
0.002291
0.00228913
0.0022863
0.00228252
0.00227784
0.00227226
0.00226581
0.00225853
0.00225043
0.00224155
0.00223192
0.00222157
0.00221053
0.00219882
0.00218649
0.00217356
0.00216007
0.00214604
0.0021315
0.0021165
0.00210105
0.00208518
0.00206894
0.00205234
0.00203542
0.00201821
0.00200073
0.001983
0.00196506
0.00194693
0.00192862
0.00191017
0.00189159
0.00187291
0.00185416
0.00183535
0.00181651
0.00179765
0.00177879
0.00175996
0.00174116
0.00172241
0.00170372
0.00168512
0.0016666
0.00164818
0.00162987
0.00161168
0.00159363
0.00157571
0.00155794
0.00154032
0.00152287
0.00150558
0.00148846
0.00147152
0.00145476
0.00143819
0.0014218
0.00140561
0.0013896
0.0013738
0.00135819
0.00134277
0.00132756
0.00131255
0.00129773
0.00128312
0.0012687
0.00125447
0.00124044
0.0012266
0.00121295
0.0011995
0.00118623
0.00117316
0.00116028
0.00114758
0.00113507
0.00112274
0.0011106
0.00109863
0.00108684
0.00107522
0.00106377
0.00105249
0.00104138
0.00103043
0.00101964
0.00100901
0.000998537
0.000988215
0.000978045
0.000968022
0.000958143
0.000948407
0.000938809
0.000929346
0.000920015
0.00091081
0.000901726
0.000892758
0.000883898
0.000875137
0.000866462
0.00085786
0.000849312
0.000840791
0.000832265
0.00082369
0.000814998
0.000806119
0.000796888
0.000787158
0.000777202
0.000757417
3.07968e-05
0.000135314
0.000261496
0.000392455
0.000488728
0.000550333
0.000588052
0.000611439
0.000629143
0.000648412
0.000674487
0.000710019
0.000755748
0.000811955
0.000879046
0.000969461
0.00107452
0.00117619
0.00127537
0.00137085
0.00146153
0.00154751
0.00162874
0.00170519
0.00177714
0.00184495
0.00190897
0.00196951
0.00202692
0.00208152
0.00213364
0.00218357
0.00223155
0.00227779
0.00232246
0.00236567
0.00240752
0.00244805
0.00248731
0.00252529
0.002562
0.00259742
0.00263151
0.00266425
0.00269558
0.00272549
0.00275391
0.00278082
0.00280618
0.00282995
0.00285211
0.00287262
0.00289149
0.0029087
0.00292423
0.0029381
0.0029503
0.00296084
0.00296973
0.002977
0.00298266
0.00298674
0.00298916
0.00299006
0.0029896
0.00298763
0.00298429
0.00297959
0.00297358
0.00296633
0.00295789
0.00294829
0.00293761
0.00292588
0.00291316
0.0028995
0.00288494
0.00286952
0.0028533
0.00283631
0.0028186
0.00280021
0.00278117
0.00276154
0.00274135
0.00272065
0.00269946
0.00267783
0.0026558
0.0026334
0.00261067
0.00258764
0.00256435
0.00254082
0.00251709
0.00249318
0.00246912
0.00244495
0.00242069
0.00239637
0.00237201
0.00234764
0.00232327
0.00229894
0.00227466
0.00225044
0.00222631
0.00220228
0.00217837
0.00215458
0.00213095
0.00210747
0.00208416
0.00206102
0.00203808
0.00201533
0.00199279
0.00197047
0.00194836
0.00192648
0.00190483
0.00188341
0.00186223
0.0018413
0.00182061
0.00180018
0.00177999
0.00176005
0.00174037
0.00172093
0.00170176
0.00168283
0.00166415
0.00164572
0.00162754
0.0016096
0.00159191
0.00157445
0.00155725
0.00154028
0.00152355
0.00150706
0.0014908
0.00147477
0.00145897
0.0014434
0.00142805
0.00141291
0.001398
0.00138329
0.0013688
0.00135451
0.00134042
0.00132653
0.00131283
0.00129933
0.00128602
0.00127289
0.00125995
0.00124718
0.00123459
0.00122217
0.00120991
0.00119782
0.00118587
0.00117408
0.00116242
0.0011509
0.00113948
0.00112817
0.00111693
0.00110575
0.00109458
0.00108338
0.00107208
0.00106061
0.00104881
0.00103659
0.00102442
0.00100196
3.23469e-05
0.000142497
0.000273961
0.000409839
0.000527775
0.000608993
0.000665042
0.000706957
0.000743944
0.000783249
0.000829923
0.000886916
0.000955854
0.00104811
0.00115505
0.00126161
0.00136769
0.00147103
0.00157108
0.00166743
0.00175981
0.00184824
0.0019328
0.00201365
0.00209103
0.00216522
0.0022365
0.00230512
0.00237136
0.00243543
0.00249755
0.0025579
0.00261664
0.00267386
0.00272967
0.00278411
0.00283723
0.00288903
0.0029395
0.00298864
0.00303641
0.00308277
0.00312768
0.00317108
0.00321294
0.00325319
0.00329179
0.00332867
0.00336379
0.00339711
0.00342858
0.00345816
0.00348581
0.00351151
0.00353524
0.00355696
0.00357667
0.00359435
0.00361001
0.00362363
0.00363523
0.00364481
0.00365239
0.00365801
0.00366166
0.00366328
0.00366319
0.00366121
0.00365743
0.00365191
0.00364471
0.00363587
0.00362545
0.00361352
0.00360014
0.00358537
0.00356928
0.00355194
0.00353341
0.00351376
0.00349306
0.00347138
0.00344877
0.00342531
0.00340106
0.00337609
0.00335044
0.00332419
0.00329738
0.00327008
0.00324233
0.00321417
0.00318567
0.00315685
0.00312777
0.00309846
0.00306897
0.00303932
0.00300955
0.0029797
0.0029498
0.00291988
0.00288997
0.00286009
0.00283026
0.00280052
0.00277088
0.00274136
0.00271198
0.00268276
0.00265372
0.00262486
0.00259621
0.00256778
0.00253957
0.0025116
0.00248388
0.00245642
0.00242923
0.00240231
0.00237566
0.0023493
0.00232323
0.00229746
0.00227198
0.0022468
0.00222192
0.00219734
0.00217307
0.0021491
0.00212544
0.00210208
0.00207902
0.00205626
0.0020338
0.00201163
0.00198976
0.00196818
0.00194689
0.00192589
0.00190518
0.00188475
0.00186461
0.00184474
0.00182514
0.00180582
0.00178676
0.00176796
0.00174943
0.00173114
0.00171311
0.00169533
0.00167779
0.00166049
0.00164342
0.00162659
0.00160998
0.00159359
0.00157743
0.00156148
0.00154574
0.0015302
0.00151487
0.00149973
0.00148478
0.00147001
0.00145541
0.00144096
0.00142667
0.0014125
0.00139844
0.00138446
0.00137052
0.00135657
0.00134255
0.00132838
0.00131391
0.00129916
0.00128415
0.00125991
3.27948e-05
0.000144122
0.000275306
0.000409425
0.00053933
0.000642636
0.000719722
0.000781069
0.000836794
0.000894582
0.000962117
0.00105401
0.00116358
0.00128526
0.00140081
0.00151206
0.00161987
0.00172443
0.00182568
0.00192354
0.00201803
0.00210922
0.00219728
0.00228237
0.00236471
0.00244455
0.00252208
0.00259753
0.00267109
0.00274293
0.00281319
0.00288199
0.00294942
0.00301554
0.0030804
0.00314402
0.00320639
0.0032675
0.00332733
0.00338582
0.00344294
0.00349863
0.00355284
0.00360548
0.00365652
0.00370587
0.00375347
0.00379926
0.00384318
0.00388517
0.00392518
0.00396315
0.00399903
0.00403279
0.00406438
0.00409378
0.00412096
0.00414589
0.00416856
0.00418896
0.00420709
0.00422294
0.00423652
0.00424785
0.00425694
0.00426381
0.00426853
0.00427099
0.00427142
0.00426978
0.00426611
0.00426047
0.0042529
0.00424347
0.00423224
0.00421927
0.00420462
0.00418837
0.00417057
0.0041513
0.00413064
0.00410865
0.0040854
0.00406097
0.00403543
0.00400886
0.00398131
0.00395287
0.0039236
0.00389357
0.00386284
0.00383148
0.00379955
0.00376711
0.00373421
0.00370091
0.00366727
0.00363334
0.00359916
0.00356478
0.00353025
0.00349562
0.00346091
0.00342618
0.00339144
0.00335675
0.00332211
0.00328758
0.00325316
0.00321889
0.00318479
0.00315087
0.00311717
0.00308369
0.00305045
0.00301747
0.00298476
0.00295233
0.0029202
0.00288836
0.00285684
0.00282564
0.00279476
0.00276422
0.00273401
0.00270414
0.00267461
0.00264542
0.00261659
0.0025881
0.00255996
0.00253217
0.00250472
0.00247762
0.00245086
0.00242444
0.00239836
0.00237262
0.00234722
0.00232214
0.0022974
0.00227299
0.00224891
0.00222514
0.00220169
0.00217855
0.00215572
0.0021332
0.00211098
0.00208905
0.00206742
0.00204607
0.002025
0.00200422
0.0019837
0.00196346
0.00194348
0.00192377
0.00190431
0.0018851
0.00186614
0.00184742
0.00182893
0.00181068
0.00179265
0.00177483
0.00175721
0.00173979
0.00172254
0.00170546
0.0016885
0.00167166
0.00165488
0.00163812
0.00162131
0.00160438
0.00158719
0.00156979
0.00155186
0.00152572
3.22368e-05
0.000141193
0.0002689
0.000398011
0.000521848
0.000633961
0.000727733
0.000808805
0.000891759
0.000987016
0.00109618
0.00122082
0.00135718
0.00148467
0.00160496
0.00171996
0.00183066
0.00193742
0.00204057
0.00214044
0.00223726
0.00233122
0.00242253
0.0025114
0.00259801
0.00268259
0.00276531
0.00284636
0.00292588
0.003004
0.00308084
0.00315647
0.00323094
0.00330429
0.00337654
0.00344767
0.00351767
0.00358649
0.0036541
0.00372042
0.00378541
0.00384898
0.00391106
0.00397158
0.00403046
0.00408762
0.00414299
0.00419648
0.00424802
0.00429756
0.00434501
0.00439033
0.00443345
0.00447432
0.0045129
0.00454915
0.00458303
0.00461451
0.00464357
0.0046702
0.00469438
0.00471611
0.00473538
0.00475222
0.00476662
0.00477861
0.00478821
0.00479545
0.00480038
0.00480295
0.00480334
0.00480152
0.00479756
0.0047915
0.0047834
0.00477331
0.00476131
0.00474746
0.00473182
0.00471446
0.00469546
0.00467487
0.00465278
0.00462925
0.00460437
0.0045782
0.00455081
0.00452229
0.00449269
0.0044621
0.00443057
0.00439819
0.00436501
0.0043311
0.00429654
0.00426137
0.00422566
0.00418947
0.00415286
0.00411589
0.0040786
0.00404106
0.0040033
0.00396538
0.00392734
0.00388922
0.00385106
0.00381289
0.00377476
0.0037367
0.00369873
0.00366088
0.00362319
0.00358568
0.00354836
0.00351127
0.00347441
0.00343781
0.00340149
0.00336545
0.00332972
0.0032943
0.0032592
0.00322444
0.00319002
0.00315595
0.00312223
0.00308887
0.00305588
0.00302325
0.002991
0.00295911
0.00292759
0.00289645
0.00286568
0.00283528
0.00280524
0.00277558
0.00274628
0.00271735
0.00268878
0.00266057
0.00263272
0.00260522
0.00257808
0.00255128
0.00252482
0.00249871
0.00247293
0.00244748
0.00242235
0.00239755
0.00237307
0.0023489
0.00232503
0.00230147
0.00227822
0.00225525
0.00223258
0.00221019
0.00218808
0.00216625
0.00214468
0.00212338
0.00210233
0.00208153
0.00206096
0.00204061
0.00202048
0.00200052
0.00198074
0.00196108
0.00194151
0.00192199
0.00190243
0.00188278
0.0018629
0.00184283
0.00182209
0.00179376
3.08675e-05
0.000135108
0.000258106
0.000383386
0.000505335
0.000621397
0.000732029
0.000840974
0.000955784
0.00108159
0.00121964
0.00136937
0.00151165
0.00164362
0.00176787
0.00188628
0.002
0.00210964
0.00221559
0.00231807
0.00241748
0.00251418
0.00260848
0.00270064
0.00279087
0.00287939
0.00296638
0.003052
0.00313637
0.00321961
0.0033018
0.00338299
0.00346323
0.00354253
0.00362087
0.00369823
0.00377458
0.00384986
0.003924
0.00399693
0.00406858
0.00413884
0.00420765
0.0042749
0.00434051
0.00440439
0.00446644
0.00452659
0.00458474
0.00464082
0.00469475
0.00474647
0.0047959
0.004843
0.00488771
0.00492998
0.00496976
0.00500704
0.00504177
0.00507395
0.00510354
0.00513055
0.00515497
0.00517681
0.00519607
0.00521278
0.00522694
0.0052386
0.00524777
0.00525449
0.00525881
0.00526075
0.00526041
0.0052578
0.00525298
0.00524602
0.00523697
0.00522589
0.00521285
0.00519791
0.00518115
0.00516263
0.00514243
0.00512061
0.00509725
0.00507243
0.0050462
0.00501866
0.00498986
0.00495989
0.0049288
0.00489668
0.00486359
0.00482959
0.00479476
0.00475915
0.00472285
0.00468589
0.00464836
0.0046103
0.00457178
0.00453285
0.00449357
0.00445399
0.00441415
0.0043741
0.00433389
0.00429356
0.00425316
0.00421271
0.00417226
0.00413185
0.00409149
0.00405124
0.0040111
0.00397111
0.0039313
0.00389169
0.00385229
0.00381314
0.00377424
0.00373561
0.00369727
0.00365923
0.00362151
0.00358411
0.00354704
0.00351032
0.00347395
0.00343794
0.00340229
0.003367
0.00333209
0.00329754
0.00326338
0.00322958
0.00319617
0.00316313
0.00313047
0.00309818
0.00306627
0.00303474
0.00300358
0.00297279
0.00294238
0.00291232
0.00288263
0.0028533
0.00282433
0.00279571
0.00276743
0.00273951
0.00271192
0.00268467
0.00265776
0.00263117
0.00260491
0.00257897
0.00255334
0.00252803
0.00250302
0.00247831
0.0024539
0.00242978
0.00240594
0.00238237
0.00235906
0.002336
0.00231317
0.00229055
0.00226812
0.00224584
0.00222367
0.00220157
0.00217945
0.00215725
0.00213485
0.00211228
0.00208898
0.00205832
2.93167e-05
0.000128788
0.000248233
0.000372461
0.000497081
0.000620992
0.00074563
0.000874942
0.00101219
0.00115943
0.00131679
0.00147855
0.00162634
0.00176277
0.00189086
0.00201261
0.0021293
0.00224174
0.00235047
0.00245587
0.00255826
0.00265781
0.00275498
0.00285011
0.0029435
0.00303537
0.00312592
0.00321533
0.00330371
0.00339117
0.00347778
0.00356359
0.00364862
0.00373286
0.00381631
0.00389891
0.00398061
0.00406135
0.00414104
0.0042196
0.00429694
0.00437295
0.00444753
0.00452059
0.00459201
0.0046617
0.00472956
0.00479548
0.00485938
0.00492117
0.00498076
0.00503809
0.00509306
0.00514563
0.00519573
0.00524332
0.00528833
0.00533074
0.00537052
0.00540764
0.00544207
0.00547382
0.00550287
0.00552923
0.00555291
0.00557391
0.00559226
0.00560798
0.00562111
0.00563166
0.00563969
0.00564524
0.00564835
0.00564907
0.00564747
0.00564359
0.0056375
0.00562925
0.00561891
0.00560655
0.00559223
0.00557601
0.00555798
0.0055382
0.00551675
0.00549369
0.0054691
0.00544305
0.00541561
0.00538686
0.00535687
0.00532569
0.00529342
0.0052601
0.00522581
0.00519062
0.00515459
0.00511779
0.00508027
0.0050421
0.00500334
0.00496404
0.00492427
0.00488408
0.00484351
0.00480262
0.00476146
0.00472007
0.00467849
0.00463677
0.00459495
0.00455307
0.00451116
0.00446925
0.00442738
0.00438558
0.00434388
0.00430231
0.00426088
0.00421963
0.00417857
0.00413773
0.00409713
0.00405677
0.00401669
0.00397688
0.00393737
0.00389816
0.00385928
0.00382072
0.00378249
0.00374461
0.00370708
0.0036699
0.00363307
0.00359661
0.00356052
0.00352479
0.00348943
0.00345444
0.00341982
0.00338558
0.00335171
0.00331821
0.00328508
0.00325232
0.00321993
0.0031879
0.00315624
0.00312493
0.00309399
0.0030634
0.00303316
0.00300328
0.00297373
0.00294454
0.00291568
0.00288715
0.00285896
0.00283109
0.00280355
0.00277632
0.00274941
0.00272281
0.0026965
0.00267049
0.00264475
0.00261929
0.00259407
0.00256909
0.00254431
0.0025197
0.00249522
0.00247082
0.00244643
0.00242198
0.00239736
0.00237256
0.00234705
0.00231424
2.76222e-05
0.000122189
0.000238209
0.000361757
0.000489196
0.000619899
0.000756122
0.000899646
0.00105214
0.00121412
0.00138608
0.00155202
0.00170379
0.00184409
0.00197569
0.00210056
0.00222005
0.0023351
0.00244636
0.00255434
0.00265941
0.00276188
0.00286202
0.00296002
0.0030563
0.00315116
0.00324482
0.00333748
0.00342929
0.00352033
0.0036107
0.00370042
0.00378952
0.00387798
0.00396577
0.00405285
0.00413914
0.00422456
0.00430903
0.00439244
0.00447468
0.00455566
0.00463524
0.00471333
0.0047898
0.00486455
0.00493746
0.00500842
0.00507735
0.00514414
0.0052087
0.00527094
0.0053308
0.00538819
0.00544306
0.00549535
0.005545
0.00559199
0.00563627
0.00567781
0.00571659
0.00575261
0.00578585
0.00581631
0.00584401
0.00586894
0.00589114
0.00591062
0.00592741
0.00594154
0.00595306
0.005962
0.0059684
0.00597233
0.00597382
0.00597295
0.00596978
0.00596435
0.00595673
0.00594698
0.00593517
0.00592137
0.00590565
0.00588807
0.00586872
0.00584766
0.00582497
0.00580071
0.00577497
0.0057478
0.00571928
0.00568947
0.00565846
0.0056263
0.00559306
0.00555882
0.00552362
0.00548755
0.00545065
0.00541301
0.00537467
0.00533569
0.00529613
0.00525605
0.00521549
0.00517452
0.00513317
0.00509149
0.00504954
0.00500736
0.00496498
0.00492246
0.00487982
0.0048371
0.00479434
0.00475157
0.00470882
0.00466613
0.00462352
0.00458101
0.00453863
0.0044964
0.00445435
0.0044125
0.00437086
0.00432945
0.00428828
0.00424738
0.00420675
0.0041664
0.00412635