/*--------------------------------*- C++ -*----------------------------------*\
  =========                 |
  \\      /  F ield         | OpenFOAM: The Open Source CFD Toolbox
   \\    /   O peration     | Website:  https://openfoam.org
    \\  /    A nd           | Version:  8
     \\/     M anipulation  |
\*---------------------------------------------------------------------------*/
FoamFile
{
    version     2.0;
    format      ascii;
    class       volVectorField;
    location    "2600";
    object      wallShearStress;
}
// * * * * * * * * * * * * * * * * * * * * * * * * * * * * * * * * * * * * * //

dimensions      [0 2 -2 0 0 0 0];

internalField   uniform (0 0 0);

boundaryField
{
    inlet
    {
        type            calculated;
        value           uniform (0 0 0);
    }
    outlet
    {
        type            calculated;
        value           uniform (0 0 0);
    }
    upperWall
    {
        type            calculated;
        value           nonuniform List<vector> 
223
(
(-0.582193 -0.392359 0)
(-0.977814 -0.219377 0)
(-0.939335 -0.0567746 0)
(-0.81071 -0.00585779 0)
(-0.734594 0.0033137 0)
(-0.695452 0.0023154 0)
(-0.67094 0.000424198 0)
(-0.653508 -0.00144878 0)
(-0.640532 -0.00256326 0)
(-0.629822 -0.00218345 0)
(-0.620053 -0.00130521 0)
(-0.610971 -0.00110502 0)
(-0.603007 -0.00139224 0)
(-0.596271 -0.00133252 0)
(-0.590313 -0.00085906 0)
(-0.584958 0.000227774 0)
(-0.579887 0.000415546 0)
(-0.575105 0.000643621 0)
(-0.570941 0.00170983 0)
(-0.567285 0.00186311 4.2434e-22)
(-0.564313 0.00164094 0)
(-0.561693 0.0016783 0)
(-0.558982 0.00300203 0)
(-0.555915 0.00398254 4.51307e-22)
(-0.552652 0.00440579 0)
(-0.54955 0.00445141 0)
(-0.546675 0.00385132 0)
(-0.54402 0.00362794 -9.41583e-22)
(-0.541256 0.0033853 9.50894e-22)
(-0.53848 0.00297821 9.60393e-22)
(-0.535795 0.00256194 0)
(-0.533168 0.00220215 -9.81092e-22)
(-0.530561 0.00192716 0)
(-0.527953 0.00171952 1.00328e-21)
(-0.525325 0.00154674 1.01476e-21)
(-0.52268 0.00141734 -1.02681e-21)
(-0.520009 0.00131309 0)
(-0.517322 0.00123114 0)
(-0.514616 0.00116891 0)
(-0.511886 0.00112205 0)
(-0.50913 0.00108737 -1.09131e-21)
(-0.506345 0.00106228 0)
(-0.503527 0.00104479 0)
(-0.500674 0.00103355 1.13162e-21)
(-0.497783 0.00102738 0)
(-0.49485 0.00102546 1.15792e-21)
(-0.491872 0.00102706 -1.17079e-21)
(-0.488846 0.00103151 1.18341e-21)
(-0.485768 0.00103836 0)
(-0.482637 0.00104667 0)
(-0.479451 0.00105563 0)
(-0.476212 0.00106412 1.23055e-21)
(-0.472924 0.001071 -1.24118e-21)
(-0.469601 0.00107644 0)
(-0.466257 0.00108169 0)
(-0.462907 0.00108716 0)
(-0.459562 0.00109203 0)
(-0.456227 0.00109506 0)
(-0.452903 0.00109544 0)
(-0.449584 0.00109334 0)
(-0.446264 0.00108941 0)
(-0.442932 0.00108456 1.29185e-21)
(-0.439577 0.00108004 -1.29166e-21)
(-0.436188 0.00107666 0)
(-0.432754 0.00107506 0)
(-0.429264 0.00107546 0)
(-0.425709 0.00107788 -1.2784e-21)
(-0.422082 0.00108225 0)
(-0.418374 0.00108827 0)
(-0.41458 0.0010956 0)
(-0.410697 0.00110377 0)
(-0.406721 0.00111238 0)
(-0.402649 0.00112096 -2.43456e-21)
(-0.39848 0.00112888 0)
(-0.394217 0.00113565 0)
(-0.389861 0.00114075 0)
(-0.38542 0.00114392 0)
(-0.380901 0.00114515 0)
(-0.376316 0.0011443 0)
(-0.371677 0.00114101 0)
(-0.366996 0.00113501 2.09552e-21)
(-0.362282 0.00112623 0)
(-0.357546 0.00111469 0)
(-0.35279 0.00110081 0)
(-0.348017 0.00108502 -1.83985e-21)
(-0.343227 0.00106789 0)
(-0.338418 0.00105012 -1.69041e-21)
(-0.333586 0.0010322 0)
(-0.328727 0.00101513 0)
(-0.323833 0.000999706 0)
(-0.319022 0.000991914 -1.3512e-21)
(-0.316382 0.00100105 0)
(-0.313658 0.00101496 1.1807e-21)
(-0.310853 0.00102964 1.09001e-21)
(-0.307973 0.00104284 0)
(-0.305028 0.00105372 8.96302e-22)
(-0.302031 0.00106251 0)
(-0.298994 0.00106982 0)
(-0.295933 0.00107699 0)
(-0.292861 0.00108424 -4.5485e-22)
(-0.289793 0.00109361 0)
(-0.286742 0.00110064 -2.05435e-22)
(-0.28372 0.00111147 7.3415e-23)
(-0.280736 0.00110972 0)
(-0.277799 0.00110726 0)
(-0.274921 0.00110694 0)
(-0.272101 0.00108479 0)
(-0.269348 0.00104176 0)
(-0.266634 0.000920557 0)
(-0.264012 0.000816993 0)
(-0.261475 0.000825626 1.15248e-21)
(-0.259222 0.000879592 0)
(-0.256942 0.00100041 0)
(-0.25475 0.00103823 0)
(-0.25273 0.00136896 0)
(-0.250651 0.00139811 0)
(-0.248561 0.000733638 0)
(-0.246393 0.000455477 0)
(-0.244232 0.000510867 0)
(-0.242261 0.00053266 0)
(-0.240484 0.000539035 0)
(-0.238701 0.000665829 0)
(-0.237059 0.000654036 0)
(-0.235369 0.000592629 7.16441e-21)
(-0.233703 0.000695733 0)
(-0.232207 0.000743989 0)
(-0.230533 0.00073865 0)
(-0.22877 0.000633413 -8.81599e-21)
(-0.227473 0.00070042 0)
(-0.225994 0.000745944 0)
(-0.224385 0.000822782 -1.00336e-20)
(-0.222891 0.000842138 0)
(-0.22123 0.00106534 1.08914e-20)
(-0.220204 0.00127348 0)
(-0.219308 0.00112133 0)
(-0.217987 0.00113049 0)
(-0.21698 0.000413674 -1.24882e-20)
(-0.215298 -0.000279544 0)
(-0.21388 -0.000195463 1.35197e-20)
(-0.2128 5.50245e-05 0)
(-0.211624 0.000237245 0)
(-0.2108 0.000215179 0)
(-0.209819 0.000375659 0)
(-0.208883 0.000448264 0)
(-0.207953 0.000523242 0)
(-0.206999 0.000560124 0)
(-0.206163 0.000812039 0)
(-0.205331 0.00100843 0)
(-0.204847 0.000566345 0)
(-0.204412 0.000598306 0)
(-0.203559 0.000704934 1.84057e-20)
(-0.202997 0.000329297 -1.8755e-20)
(-0.202475 6.86217e-05 0)
(-0.20146 0.000340755 0)
(-0.201048 0.000651384 0)
(-0.200455 0.000503586 0)
(-0.200035 0.000142261 -2.07927e-20)
(-0.199604 0.000266177 2.12287e-20)
(-0.19882 0.000472822 -2.16852e-20)
(-0.198426 8.95146e-05 0)
(-0.198007 0.000152957 -2.246e-20)
(-0.197624 0.000270558 -4.56606e-20)
(-0.196697 0.000233817 0)
(-0.196481 0.000333626 -4.72661e-20)
(-0.196396 0.00016458 4.79277e-20)
(-0.195547 0.000230741 0)
(-0.195251 0.000343446 0)
(-0.195155 0.000237746 0)
(-0.194782 0.000226255 0)
(-0.194392 0.0002296 0)
(-0.19402 0.0002806 -5.30147e-20)
(-0.193299 -0.000157924 0)
(-0.192201 -0.000503829 -5.5515e-20)
(-0.191228 -0.000231297 0)
(-0.19101 -0.000100306 0)
(-0.190477 -2.16096e-05 0)
(-0.190024 0.000109037 0)
(-0.18926 0.000182129 0)
(-0.188661 0.000258891 6.0849e-20)
(-0.188015 0.000257912 0)
(-0.187744 0.000550185 0)
(-0.187271 0.000743148 -6.35305e-20)
(-0.186369 0.000622564 0)
(-0.186163 0.000552029 0)
(-0.185295 0.000558617 0)
(-0.183999 0.00057512 6.86804e-20)
(-0.183238 0.000388595 0)
(-0.181662 0.000361309 0)
(-0.180332 0.000415281 0)
(-0.178651 0.000527163 0)
(-0.176752 0.000560167 -7.64445e-20)
(-0.174542 0.000567123 0)
(-0.171283 0.000712677 0)
(-0.167262 0.000798631 0)
(-0.16284 0.000978698 8.76701e-20)
(-0.155504 0.00133071 0)
(-0.14933 0.00223036 0)
(-0.124687 0.00220887 -1.07207e-19)
(-0.141962 0.00668401 0)
(-0.1698 0.0131566 1.25468e-17)
(-0.187238 0.0170427 2.35186e-17)
(-0.193314 0.0188525 2.27479e-17)
(-0.196918 0.0196679 2.19821e-17)
(-0.200926 0.0202813 2.11607e-17)
(-0.205437 0.0209962 -2.0226e-17)
(-0.209669 0.0215133 -1.95223e-17)
(-0.213845 0.0218651 0)
(-0.21807 0.022012 -3.66593e-17)
(-0.220206 0.0221775 -1.80766e-17)
(-0.224675 0.0227201 9.56946e-34)
(-0.227485 0.022904 0)
(-0.231059 0.0233614 -3.22693e-17)
(-0.235446 0.0239473 -3.06556e-17)
(-0.242428 0.0247952 -2.84642e-17)
(-0.24961 0.0254547 -2.40741e-35)
(-0.256919 0.0260717 4.9404e-17)
(-0.263938 0.0266487 2.26472e-17)
(-0.272765 0.0274465 2.40741e-35)
(-0.28266 0.0283564 -3.48628e-17)
(-0.291222 0.0290014 -1.58545e-20)
(-0.300794 0.0295568 0)
(-0.305375 0.0305112 1.34126e-17)
(-0.332963 0.0321993 -7.6256e-18)
)
;
    }
    lowerWall
    {
        type            calculated;
        value           nonuniform List<vector> 
250
(
(-0.653909 0.466638 0)
(-1.14095 0.204678 0)
(-1.03492 0.0379587 0)
(-0.869573 -0.000935917 0)
(-0.786941 -0.00419154 0)
(-0.746063 -0.00160772 0)
(-0.719879 0.000416366 0)
(-0.700647 -0.000651574 0)
(-0.685092 -0.00405581 0)
(-0.671322 -0.00471213 0)
(-0.658938 -0.00298806 0)
(-0.647727 -0.000863939 0)
(-0.637526 0.00142671 0)
(-0.628202 0.00210493 0)
(-0.619339 0.00136903 0)
(-0.611545 0.00136055 0)
(-0.604626 0.00169737 0)
(-0.605092 0.00196265 0)
(-0.00423467 -0.0228262 0)
(-0.00276194 -0.0176277 0)
(-0.000684067 -0.0144675 0)
(0.00194167 -0.0137733 9.0361e-20)
(0.00526044 -0.0151895 -7.87088e-20)
(0.00893803 -0.0208143 6.29155e-20)
(0.0127024 -0.0200062 -4.85241e-20)
(0.0256725 -0.0632612 0)
(-0.0838985 -0.144691 0)
(0.000872918 -0.00384045 0)
(-0.00766489 0.00954537 0)
(-0.00851623 0.03282 0)
(-0.00255005 0.0448546 0)
(0.0029527 0.0442622 1.82213e-20)
(0.00618204 0.0360646 -1.89644e-20)
(0.00818641 0.0241637 0)
(0.00945962 0.0101642 -5.42205e-20)
(0.00943112 -0.00403814 6.11406e-20)
(0.00793304 -0.0174175 0)
(0.00614102 -0.0291895 0)
(0.00438153 -0.0385565 0)
(0.00268695 -0.0451333 0)
(0.000985787 -0.0488722 0)
(-0.000886684 -0.0495069 0)
(-0.00281916 -0.0463903 0)
(-0.00439814 -0.0399033 0)
(-0.00491048 -0.0307405 0)
(0.00132865 -0.00151223 0)
(0.00133811 0.00652691 0)
(-0.00450883 0.00961835 0)
(-0.00959672 0.00975637 0)
(-0.0133827 0.00829953 0)
(-0.015889 0.00623533 0)
(-0.0172641 0.00409781 1.49564e-21)
(-0.0177829 0.00200633 -1.52723e-21)
(-0.0173315 -6.75924e-06 0)
(-0.0160541 -0.00168604 -1.65296e-21)
(-0.0141888 -0.00283741 0)
(-0.0120508 -0.00329644 0)
(-0.010051 -0.00303599 -0)
(-0.00855332 -0.00228042 2.57009e-21)
(-0.00761663 -0.00142314 0)
(-0.00693844 -0.000815837 0)
(-0.00612111 -0.000623272 -3.37778e-21)
(-0.00499364 -0.00100004 0)
(-0.00340958 -0.00238483 0)
(-0.000490658 -0.00505616 0)
(0.00435805 -0.00740273 3.03367e-21)
(0.00994284 -0.00889458 0)
(0.0158438 -0.00984963 1.46925e-21)
(0.0218892 -0.0106164 0)
(0.0280947 -0.0112686 -0)
(0.0344052 -0.0115143 8.44702e-22)
(0.0405378 -0.0113547 0)
(0.0491437 -0.011603 -7.54001e-22)
(0.0589337 -0.0117552 -0)
(0.068628 -0.0115827 7.70664e-22)
(0.0780371 -0.011169 0)
(0.0870101 -0.0105842 0)
(0.0954547 -0.0098902 0)
(0.103312 -0.00913673 -0)
(0.110559 -0.00836094 0)
(0.117193 -0.00758979 -8.11123e-22)
(0.123226 -0.00684053 -0)
(0.128682 -0.00612283 1.63302e-21)
(0.133588 -0.00544066 0)
(0.13797 -0.00479435 -1.6349e-21)
(0.141856 -0.00418221 -0)
(0.145268 -0.00360161 -0)
(0.148229 -0.00304976 1.621e-21)
(0.150755 -0.00252429 0)
(0.152861 -0.00202422 1.60078e-21)
(0.154559 -0.0015504 -1.58747e-21)
(0.155861 -0.00110643 -0)
(0.15678 -0.000699058 -1.55486e-21)
(0.157326 -0.000337951 -1.53583e-21)
(0.157512 -3.98965e-05 -0)
(0.157407 0.000194668 0)
(0.157075 0.000391463 0)
(0.156521 0.000568107 0)
(0.15576 0.000731019 -0)
(0.154799 0.000884148 1.37578e-21)
(0.153647 0.00102827 0)
(0.152311 0.00116403 -1.307e-21)
(0.150798 0.00129162 -0)
(0.149115 0.00141121 -0)
(0.14727 0.00152284 1.19055e-21)
(0.145271 0.00162638 0)
(0.143125 0.00172188 -1.10486e-21)
(0.140842 0.00180926 -0)
(0.138429 0.00188854 0)
(0.135895 0.00195981 -0)
(0.133249 0.00202309 9.1684e-22)
(0.130501 0.00207844 0)
(0.127659 0.00212598 -0)
(0.124733 0.00216592 7.63804e-22)
(0.121732 0.0021984 0)
(0.118665 0.00222358 6.57273e-22)
(0.115541 0.00224177 0)
(0.11237 0.0022532 0)
(0.109159 0.00225817 0)
(0.105918 0.00225689 -4.36198e-22)
(0.102656 0.00224972 -0)
(0.0993795 0.00223704 0)
(0.0960967 0.00221909 -2.65598e-22)
(0.0928155 0.00219621 -2.0815e-22)
(0.0895426 0.00216878 -0)
(0.0862852 0.00213715 -9.26829e-23)
(0.083049 0.00210164 -0)
(0.0798407 0.00206263 4.65472e-23)
(0.0766654 0.00202051 -0)
(0.0735285 0.00197574 2.78964e-22)
(0.0704344 0.00192877 0)
(0.0673877 0.00188017 -5.11642e-22)
(0.064392 0.00183079 -0)
(0.0614505 0.00178154 0)
(0.0585658 0.00173377 -0)
(0.0557399 0.00168917 9.78401e-22)
(0.0529741 0.00164988 0)
(0.0502687 0.00161809 -1.21384e-21)
(0.0476225 0.0015948 0)
(0.0457842 0.00160344 1.4756e-21)
(0.0442418 0.00162101 1.63411e-21)
(0.0427027 0.00162591 1.79903e-21)
(0.0411754 0.00161303 0)
(0.0396649 0.0015897 0)
(0.0381712 0.001564 0)
(0.036693 0.0015382 0)
(0.03523 0.00151251 0)
(0.0337828 0.00148689 0)
(0.0323519 0.0014614 0)
(0.0309378 0.00143617 0)
(0.0295409 0.00141136 -3.69185e-21)
(0.0281614 0.00138719 -3.96751e-21)
(0.0267996 0.00136375 0)
(0.0254557 0.00134075 0)
(0.0241303 0.00131668 0)
(0.0228245 0.00129181 -5.26753e-21)
(0.0215383 0.00126763 0)
(0.0202715 0.00124395 0)
(0.0190245 0.00122088 0)
(0.0177971 0.00119847 0)
(0.0165895 0.00117674 7.53632e-21)
(0.0154016 0.00115579 0)
(0.0142334 0.0011357 0)
(0.0130848 0.00111659 -9.45534e-21)
(0.0119557 0.00109848 1.0233e-20)
(0.0108461 0.00108148 0)
(0.00975593 0.00106586 1.20695e-20)
(0.00868508 0.00105228 0)
(0.00763321 0.00104191 -1.44083e-20)
(0.0065996 0.00103502 0)
(0.00558398 0.00103062 0)
(0.00458625 0.00102841 0)
(0.00360597 0.0010287 0)
(0.00264276 0.00103174 0)
(0.00169703 0.00103747 5.57192e-20)
(0.000770304 0.00104305 6.42323e-20)
(-0.000139482 0.00103031 0)
(-0.00103676 0.000987445 0)
(-0.00191858 0.000935059 0)
(-0.0027849 0.000885571 -5.28822e-20)
(-0.00363561 0.000840648 0)
(-0.00447048 0.000799899 0)
(-0.00528995 0.000762836 0)
(-0.00609457 0.00072896 -4.04124e-20)
(-0.00688491 0.000697815 3.83628e-20)
(-0.00766148 0.000669018 0)
(-0.00842471 0.000642264 0)
(-0.00917508 0.000617314 3.36162e-20)
(-0.00991303 0.000593961 3.23762e-20)
(-0.010639 0.000572047 0)
(-0.0113533 0.000551436 0)
(-0.0120565 0.000532017 -2.93516e-20)
(-0.0127489 0.000513695 2.85242e-20)
(-0.013431 0.000496387 0)
(-0.0141033 0.000480022 0)
(-0.0147661 0.000464541 2.64349e-20)
(-0.0154199 0.000449885 0)
(-0.0160652 0.000436014 0)
(-0.0167023 0.000422881 2.479e-20)
(-0.0173318 0.000410452 0)
(-0.0179542 0.000398694 2.38741e-20)
(-0.0185698 0.000387574 0)
(-0.0191791 0.000377058 0)
(-0.0197826 0.000367121 0)
(-0.0203808 0.000357724 -2.23587e-20)
(-0.020974 0.000348846 0)
(-0.0215629 0.00034044 0)
(-0.0221475 0.000332447 0)
(-0.0227284 0.000324821 0)
(-0.0233058 0.000317463 0)
(-0.0238796 0.000310257 0)
(-0.0244497 0.000303063 -2.03856e-20)
(-0.0250157 0.000295687 -2.01552e-20)
(-0.0255768 0.000287868 0)
(-0.0261316 0.000279206 0)
(-0.0266778 0.000269176 0)
(-0.0272122 0.000257045 1.93604e-20)
(-0.0277296 0.000241556 0)
(-0.0282213 0.000221318 -3.81348e-20)
(-0.0286782 0.000192285 3.79286e-20)
(-0.0290714 0.000152662 3.78193e-20)
(-0.0294027 7.79143e-05 -3.78578e-20)
(-0.0294844 -3.9375e-05 3.80452e-20)
(-0.0295089 -0.000356548 -3.83974e-20)
(-0.0279743 -0.000616873 0)
(-0.029347 -0.000516216 -2.43315e-18)
(-0.0327708 -0.00134245 -2.26974e-18)
(-0.0364145 -0.00203346 -3.00927e-36)
(-0.0395352 -0.00257616 -4.06082e-18)
(-0.0424854 -0.00301869 -7.75771e-18)
(-0.0455579 -0.00342187 -3.71955e-18)
(-0.0487813 -0.00381947 3.56799e-18)
(-0.0521111 -0.00430153 -7.22224e-35)
(-0.0556107 -0.00470334 3.00927e-36)
(-0.0593085 -0.00509518 3.15107e-18)
(-0.063245 -0.00551668 3.01931e-18)
(-0.06745 -0.00585035 0)
(-0.0719409 -0.00624769 0)
(-0.0767562 -0.0066971 0)
(-0.0819456 -0.00718892 -1.34712e-34)
(-0.0875617 -0.00773062 -5.26621e-36)
(-0.0936759 -0.00833273 1.625e-34)
(-0.100343 -0.0089984 -4.1581e-18)
(-0.107703 -0.00972148 -3.81234e-18)
(-0.116767 -0.0106171 1.20371e-35)
(-0.127582 -0.0116221 6.13703e-18)
(-0.138434 -0.0127302 1.03497e-17)
(-0.153658 -0.0139244 1.20371e-35)
(-0.162857 -0.015292 -5.09835e-18)
(-0.19197 -0.0169802 1.50463e-35)
)
;
    }
    frontAndBack
    {
        type            empty;
    }
}


// ************************************************************************* //
