/*--------------------------------*- C++ -*----------------------------------*\
  =========                 |
  \\      /  F ield         | OpenFOAM: The Open Source CFD Toolbox
   \\    /   O peration     | Website:  https://openfoam.org
    \\  /    A nd           | Version:  8
     \\/     M anipulation  |
\*---------------------------------------------------------------------------*/
FoamFile
{
    version     2.0;
    format      ascii;
    class       volScalarField;
    location    "1600";
    object      nuTilda;
}
// * * * * * * * * * * * * * * * * * * * * * * * * * * * * * * * * * * * * * //

dimensions      [0 2 -1 0 0 0 0];

internalField   nonuniform List<scalar> 
12225
(
0.0122671
0.00158833
0.000666932
0.000412201
0.000298001
0.000234419
0.000192049
0.000186518
0.000141364
0.000110263
9.73201e-05
9.07192e-05
8.20033e-05
7.63422e-05
7.17075e-05
7.01735e-05
6.81339e-05
7.40041e-05
0.0323823
0.00744533
0.00330642
0.00204338
0.00146818
0.00114477
0.000936743
0.000800567
0.000680243
0.00057806
0.000507247
0.000453561
0.000411867
0.000380373
0.000352022
0.000329996
0.000313757
0.000295891
0.0490123
0.01515
0.00728196
0.00457856
0.00330642
0.00258059
0.00211241
0.00178924
0.00154196
0.00134781
0.00119795
0.00107898
0.000982391
0.000902877
0.000836442
0.000781452
0.000736168
0.000687901
0.063054
0.0237783
0.0122894
0.00788815
0.00573398
0.004485
0.00367415
0.00310736
0.00268476
0.00235811
0.00210119
0.00189468
0.00172543
0.00158465
0.0014663
0.00136624
0.00128169
0.00119816
0.074932
0.0328517
0.0181452
0.0119262
0.00874549
0.00686413
0.00563081
0.00476256
0.0041175
0.00362033
0.00322735
0.00290997
0.00264905
0.0024315
0.00224807
0.00209197
0.00195837
0.00183639
0.0849536
0.0420208
0.0246655
0.0166359
0.0123325
0.00972587
0.0079954
0.00676786
0.00585346
0.00514771
0.00458846
0.00413589
0.00376337
0.00345243
0.00318987
0.00296601
0.00277366
0.00260479
0.0933822
0.0510219
0.0316642
0.0219415
0.016474
0.0130717
0.0107779
0.00913552
0.00790571
0.00695341
0.00619691
0.00558368
0.00507839
0.00465635
0.00429979
0.00399564
0.00373419
0.00350823
0.0993794
0.0583363
0.0378386
0.0268568
0.0204171
0.0163053
0.0134892
0.011453
0.00991892
0.0087263
0.00777636
0.00700498
0.00636868
0.00583687
0.00538742
0.005004
0.00467455
0.0043913
0.104023
0.0645454
0.0433804
0.0314239
0.0241571
0.0194092
0.0161097
0.0137018
0.0118766
0.0104521
0.00931444
0.00838905
0.00762487
0.00698576
0.00644546
0.00598452
0.00558861
0.0052488
0.108368
0.0708939
0.0493756
0.0365496
0.0284517
0.0230231
0.0191863
0.0163547
0.0141926
0.0124968
0.011138
0.0100304
0.00911435
0.00834761
0.00769912
0.00714581
0.00667071
0.006263
0.112368
0.0772557
0.0557282
0.0421918
0.0332976
0.0271652
0.0227468
0.0194432
0.0168984
0.0148903
0.0132749
0.0119544
0.0108605
0.0099438
0.00916798
0.00850587
0.00793738
0.00744917
0.115994
0.0834975
0.0623053
0.0482611
0.0386474
0.0318167
0.026789
0.0229739
0.0200046
0.0176452
0.0157379
0.0141736
0.0128749
0.011785
0.0108618
0.0100736
0.00939672
0.00881466
0.119234
0.0894856
0.0689377
0.0546109
0.0443919
0.0369007
0.0312597
0.0269088
0.0234836
0.02074
0.0185096
0.0166735
0.0151449
0.01386
0.0127704
0.0118396
0.0110397
0.0103508
0.122086
0.095084
0.075415
0.0610223
0.0503361
0.0422534
0.0360231
0.0311353
0.0272402
0.024093
0.021519
0.0193909
0.017614
0.0161174
0.0148466
0.0137601
0.0128257
0.0120196
0.124546
0.100135
0.0814619
0.0671725
0.056158
0.047577
0.0408126
0.0354174
0.031066
0.0275196
0.0246012
0.0221777
0.0201481
0.0184349
0.0169782
0.0157314
0.0146583
0.0137312
0.126578
0.104396
0.0866605
0.0725515
0.0613228
0.0523526
0.0451453
0.0393148
0.0345631
0.0306611
0.0274325
0.0247409
0.0224806
0.020569
0.0189413
0.0175468
0.0163454
0.0153061
0.128011
0.107322
0.0902141
0.0762353
0.0648743
0.0556509
0.0481493
0.0420254
0.0370012
0.0328553
0.0294126
0.0265352
0.0241143
0.0220643
0.0203172
0.0188191
0.0175275
0.0164083
0.128006
0.107313
0.0902048
0.0762269
0.0648674
0.0556454
0.048145
0.0420222
0.0369988
0.0328537
0.0294117
0.0265349
0.0241147
0.0220652
0.0203185
0.0188206
0.0175287
0.0164083
0.126509
0.104255
0.0864922
0.0723807
0.0611613
0.052205
0.0450128
0.0391967
0.0344584
0.0305686
0.0273506
0.0246684
0.0224163
0.0205118
0.0188903
0.0175006
0.0163024
0.0152631
0.124267
0.0995604
0.0807712
0.0664676
0.0554886
0.0469631
0.0402594
0.0349228
0.0306248
0.0271258
0.0242488
0.0218611
0.0198626
0.0181762
0.0167426
0.0155152
0.0144575
0.0135405
0.12136
0.0936399
0.0737261
0.0593348
0.0487592
0.0408249
0.0347467
0.0300003
0.0262308
0.0231928
0.0207127
0.018665
0.0169572
0.0155198
0.0142999
0.0132567
0.0123583
0.0115798
0.117686
0.0865903
0.0656967
0.0514791
0.0415374
0.0343608
0.0290184
0.0249322
0.0217348
0.0191848
0.0171184
0.0154211
0.0140106
0.0128263
0.0118229
0.0109657
0.010228
0.00958894
0.11305
0.0784122
0.056921
0.0432687
0.0342296
0.0279652
0.0234365
0.0200435
0.0174263
0.0153597
0.0136966
0.0123369
0.0112106
0.010267
0.00946866
0.00878719
0.00820101
0.00769346
0.107169
0.0691009
0.0476372
0.035029
0.0271566
0.021922
0.0182437
0.0155401
0.0134817
0.0118706
0.0105816
0.00953198
0.00866487
0.00793966
0.00732669
0.00680378
0.00635414
0.00596494
0.0996761
0.0587036
0.0381279
0.0270699
0.0205782
0.016433
0.0135949
0.0115438
0.00999923
0.00879909
0.00784342
0.00706757
0.00642791
0.00589358
0.00544229
0.00505736
0.00472648
0.00444008
0.0901097
0.0473665
0.0287363
0.0196847
0.0146976
0.0116312
0.00957853
0.00811528
0.00702332
0.00617995
0.00551058
0.00496796
0.00452114
0.00414819
0.00383325
0.00356453
0.00333387
0.00313381
0.0779076
0.0353826
0.0198606
0.0131383
0.00966107
0.00759298
0.00623353
0.00527431
0.00456401
0.00401886
0.00358699
0.00323617
0.00294715
0.00270614
0.00250209
0.00232783
0.00217924
0.00204886
0.06238
0.0232554
0.0119461
0.00765494
0.00556339
0.00435258
0.00356726
0.00301643
0.00261312
0.00230802
0.00206662
0.00186739
0.00170205
0.00156499
0.00144655
0.00134621
0.00126198
0.00118401
0.0426105
0.0117794
0.00546931
0.00341388
0.00246077
0.00192015
0.0015729
0.00132906
0.00115969
0.0010389
0.000944432
0.000858663
0.000784403
0.000725085
0.000662951
0.000623348
0.000582714
0.000536171
0.0168348
0.0025599
0.00110031
0.000684192
0.000495179
0.000389151
0.000321659
0.000270757
0.000280862
0.000339026
0.000384524
0.000374294
0.000341845
0.000322411
0.000257029
0.000329909
0.000307233
0.000221958
3.78296e-06
1.43244e-05
2.60319e-05
3.85424e-05
4.60194e-05
4.96754e-05
5.01635e-05
4.78395e-05
4.46487e-05
3.95799e-05
3.42411e-05
2.94627e-05
2.67594e-05
2.74193e-05
2.95916e-05
3.14335e-05
3.12809e-05
2.84063e-05
2.36572e-05
1.94766e-05
1.94425e-05
2.6272e-05
3.92506e-05
6.37089e-05
8.71454e-05
0.000100546
0.000113286
0.000124298
0.000134293
0.000142801
0.000150398
0.00015702
0.000162886
0.000168043
0.000172577
0.000176606
0.000180195
0.000183415
0.000186313
0.000188925
0.000191275
0.000193382
0.00019526
0.000196923
0.000198384
0.000199652
0.000200738
0.000201646
0.000202379
0.000202803
0.000203295
0.000203378
0.000203437
0.000203322
0.000203044
0.00020263
0.000202075
0.000201382
0.000200554
0.000199593
0.0001985
0.000197279
0.000195932
0.000194462
0.000192873
0.000191165
0.000189342
0.000187406
0.00018536
0.000183208
0.000180952
0.000178595
0.00017614
0.000173589
0.000170945
0.00016821
0.000165388
0.000162479
0.000159486
0.00015641
0.000153252
0.000150012
0.000146689
0.000143281
0.000139786
0.000136198
0.00013251
0.000128713
0.000124796
0.000120741
0.000116534
0.000112161
0.00010762
0.000102965
9.84012e-05
9.4419e-05
9.15954e-05
8.98389e-05
8.85245e-05
8.73197e-05
8.61364e-05
8.49576e-05
8.37817e-05
8.26094e-05
8.14414e-05
8.02787e-05
7.91228e-05
7.79778e-05
7.68648e-05
7.59101e-05
7.49762e-05
7.40483e-05
7.31284e-05
7.22168e-05
7.13138e-05
7.04198e-05
6.95351e-05
6.86601e-05
6.77951e-05
6.69402e-05
6.60956e-05
6.52616e-05
6.44385e-05
6.36266e-05
6.28261e-05
6.20367e-05
6.12595e-05
6.05201e-05
5.98429e-05
5.91743e-05
5.85109e-05
5.78608e-05
5.72289e-05
5.66022e-05
5.59802e-05
5.53663e-05
5.47614e-05
5.41662e-05
5.35807e-05
5.30048e-05
5.24383e-05
5.18812e-05
5.13332e-05
5.07943e-05
5.02643e-05
4.97431e-05
4.92307e-05
4.87268e-05
4.82315e-05
4.77446e-05
4.72661e-05
4.67959e-05
4.6334e-05
4.58804e-05
4.5435e-05
4.49979e-05
4.45692e-05
4.41489e-05
4.37372e-05
4.33342e-05
4.29401e-05
4.25551e-05
4.21795e-05
4.18136e-05
4.14575e-05
4.11113e-05
4.0775e-05
4.04485e-05
4.01312e-05
3.98224e-05
3.95201e-05
3.92246e-05
3.89268e-05
3.86402e-05
3.83114e-05
3.80557e-05
3.7548e-05
3.73532e-05
3.63025e-05
3.49083e-05
5.8955e-06
4.0585e-05
9.24559e-05
0.000153698
0.000192563
0.000214588
0.0002234
0.000221985
0.000214157
0.000198605
0.000179577
0.000161574
0.000152397
0.000156822
0.00016907
0.000177028
0.000179116
0.0001802
0.000185103
0.000193806
0.000208058
0.000224376
0.000240285
0.000256125
0.000267019
0.000276609
0.000285158
0.000297609
0.000316285
0.000329955
0.000342478
0.000353229
0.000363013
0.00037199
0.000379791
0.000386918
0.000393556
0.000399927
0.000406161
0.000412322
0.000418405
0.000424368
0.000430158
0.000435735
0.00044107
0.000446147
0.000450949
0.000455466
0.000459698
0.000463643
0.000467343
0.000470761
0.000473937
0.00047686
0.000479534
0.00048196
0.00048414
0.000486073
0.000487761
0.000489203
0.0004904
0.000491353
0.000492064
0.000492538
0.000492785
0.00049281
0.000492607
0.000492173
0.000491524
0.000490663
0.000489597
0.000488332
0.000486875
0.000485232
0.000483411
0.000481419
0.000479263
0.000476951
0.000474491
0.000471889
0.000469155
0.000466296
0.000463321
0.000460237
0.000457052
0.000453775
0.000450414
0.000446976
0.000443471
0.000439904
0.000436283
0.000432613
0.000428894
0.000425118
0.000421268
0.000417316
0.000413247
0.000409089
0.000404892
0.000400681
0.000396463
0.000392242
0.000388023
0.000383807
0.000379599
0.000375402
0.000371219
0.000367052
0.000362901
0.000358764
0.000354652
0.00035057
0.000346518
0.000342499
0.000338515
0.000334567
0.000330657
0.000326787
0.000322957
0.000319169
0.000315424
0.000311722
0.000308065
0.000304455
0.000300891
0.000297373
0.000293902
0.000290476
0.000287094
0.000283758
0.000280468
0.000277231
0.000274048
0.000270905
0.000267799
0.000264736
0.00026172
0.00025875
0.000255827
0.000252951
0.000250121
0.000247336
0.000244596
0.000241901
0.000239249
0.00023664
0.000234074
0.000231549
0.000229067
0.000226626
0.000224225
0.000221865
0.000219546
0.000217266
0.000215027
0.000212828
0.00021067
0.000208553
0.000206478
0.000204446
0.000202457
0.000200514
0.000198618
0.000196769
0.000194971
0.000193223
0.000191527
0.000189882
0.000188289
0.000186744
0.000185244
0.00018379
0.000182354
0.000180991
0.000179507
0.000178384
0.000176289
0.000175966
0.000172987
0.000172125
1.2873e-05
7.40523e-05
0.000174297
0.000251896
0.000303707
0.000333441
0.000344314
0.00034151
0.000328918
0.000310029
0.000290696
0.000278248
0.000275982
0.000282396
0.000292433
0.000302972
0.00031543
0.000332057
0.000353326
0.00037819
0.000405325
0.000433404
0.000471172
0.000517313
0.000562774
0.000606786
0.000649773
0.000693348
0.000732652
0.00076392
0.000788916
0.000808732
0.000824441
0.000836905
0.000846904
0.000855216
0.000862539
0.000869519
0.000876691
0.000884414
0.000892793
0.000901708
0.000910917
0.000920186
0.000929336
0.000938248
0.000946845
0.000955081
0.000962917
0.000970327
0.000977288
0.00098377
0.00098977
0.000995282
0.0010003
0.00100483
0.00100887
0.00101242
0.00101547
0.00101803
0.0010201
0.00102167
0.00102276
0.0010233
0.00102346
0.00102317
0.00102238
0.00102114
0.00101945
0.00101734
0.0010148
0.00101186
0.00100852
0.00100481
0.00100073
0.000996306
0.000991542
0.000986458
0.000981068
0.000975388
0.000969432
0.000963216
0.000956756
0.000950065
0.00094316
0.000936055
0.000928765
0.000921304
0.000913686
0.000905924
0.000898029
0.000890014
0.000881887
0.000873657
0.000865332
0.000856921
0.000848438
0.000839897
0.000831315
0.000822706
0.00081408
0.000805447
0.000796813
0.000788188
0.000779577
0.000770989
0.000762429
0.000753903
0.000745417
0.000736977
0.000728588
0.000720256
0.000711985
0.000703779
0.000695642
0.000687577
0.000679588
0.000671677
0.000663846
0.000656099
0.000648438
0.000640863
0.000633377
0.000625982
0.000618679
0.000611468
0.00060435
0.000597326
0.000590396
0.00058356
0.00057682
0.000570175
0.000563624
0.000557161
0.000550784
0.000544498
0.000538302
0.000532199
0.000526187
0.000520267
0.000514437
0.000508698
0.000503046
0.000497483
0.000492005
0.000486614
0.000481306
0.000476081
0.000470939
0.000465877
0.000460894
0.000455991
0.000451165
0.000446415
0.000441741
0.000437141
0.000432614
0.000428159
0.000423774
0.000419459
0.000415213
0.000411032
0.000406916
0.000402863
0.000398869
0.000394932
0.000391048
0.000387211
0.000383415
0.00037965
0.000375906
0.000372169
0.000368413
0.00036462
0.000360718
0.000356741
0.000352322
0.00034802
0.000341562
0.000330411
2.1769e-05
0.000106431
0.000220255
0.00031287
0.000375573
0.000412581
0.000428027
0.000428417
0.000418484
0.000405175
0.000397037
0.000396161
0.000405238
0.000422256
0.000444808
0.00047236
0.000505516
0.000544648
0.000588952
0.000650807
0.000724478
0.000804106
0.000888323
0.000958978
0.0010214
0.00107752
0.00112794
0.00117285
0.00121213
0.00124602
0.00127527
0.00130061
0.00132274
0.00134228
0.00135982
0.00137584
0.00139076
0.00140493
0.00141859
0.00143194
0.0014451
0.00145815
0.00147111
0.00148396
0.00149665
0.00150911
0.00152124
0.00153294
0.00154413
0.00155473
0.00156468
0.00157395
0.00158253
0.00159039
0.00159752
0.00160393
0.0016096
0.00161454
0.00161874
0.0016222
0.00162492
0.0016269
0.00162806
0.0016285
0.00162837
0.00162746
0.00162583
0.00162351
0.00162052
0.00161686
0.00161256
0.00160764
0.00160212
0.00159603
0.00158937
0.00158218
0.00157447
0.00156628
0.00155761
0.00154851
0.00153898
0.00152905
0.00151875
0.0015081
0.00149712
0.00148583
0.00147426
0.00146242
0.00145035
0.00143805
0.00142555
0.00141287
0.00140003
0.00138703
0.0013739
0.00136066
0.00134731
0.00133388
0.0013204
0.00130687
0.00129331
0.00127974
0.00126618
0.00125262
0.00123909
0.00122559
0.00121214
0.00119874
0.00118541
0.00117215
0.00115896
0.00114587
0.00113287
0.00111997
0.00110718
0.0010945
0.00108193
0.00106949
0.00105717
0.00104498
0.00103292
0.001021
0.00100922
0.00099757
0.000986066
0.000974704
0.000963486
0.000952412
0.000941484
0.000930703
0.000920068
0.000909579
0.000899233
0.000889027
0.00087896
0.000869032
0.000859244
0.000849599
0.000840094
0.000830729
0.000821503
0.000812416
0.000803465
0.000794648
0.000785965
0.000777413
0.00076899
0.000760696
0.000752527
0.000744483
0.000736561
0.00072876
0.000721077
0.000713512
0.000706062
0.000698725
0.0006915
0.000684385
0.000677376
0.000670473
0.000663673
0.000656974
0.000650371
0.000643862
0.000637443
0.000631109
0.000624853
0.000618669
0.000612546
0.000606473
0.000600432
0.000594404
0.000588357
0.000582256
0.000576036
0.000569642
0.000562892
0.000555732
0.000547511
0.000531414
2.6969e-05
0.00012201
0.000241124
0.000357865
0.00043591
0.00048309
0.000506594
0.000515004
0.000516543
0.000517479
0.000524268
0.000540303
0.000566209
0.000601036
0.000644004
0.000695131
0.000755043
0.00083829
0.000933812
0.00103002
0.00111901
0.0012034
0.00128275
0.00135547
0.00142224
0.00148367
0.00154015
0.00159202
0.00163963
0.0016834
0.00172384
0.00176142
0.00179656
0.00182964
0.00186098
0.00189082
0.00191937
0.00194675
0.00197308
0.00199841
0.00202277
0.00204618
0.00206862
0.00209009
0.00211055
0.00212998
0.00214835
0.00216563
0.00218179
0.00219681
0.00221068
0.00222341
0.002235
0.00224547
0.00225484
0.00226312
0.00227034
0.00227651
0.00228163
0.00228574
0.00228883
0.00229088
0.0022918
0.00229189
0.00229101
0.00228913
0.0022863
0.00228253
0.00227784
0.00227226
0.00226582
0.00225853
0.00225043
0.00224155
0.00223192
0.00222157
0.00221053
0.00219883
0.0021865
0.00217357
0.00216007
0.00214604
0.00213151
0.0021165
0.00210105
0.00208518
0.00206894
0.00205234
0.00203543
0.00201821
0.00200073
0.00198301
0.00196506
0.00194693
0.00192862
0.00191017
0.00189159
0.00187291
0.00185416
0.00183535
0.00181651
0.00179765
0.0017788
0.00175996
0.00174116
0.00172241
0.00170373
0.00168512
0.0016666
0.00164818
0.00162987
0.00161169
0.00159363
0.00157572
0.00155795
0.00154033
0.00152288
0.00150559
0.00148847
0.00147153
0.00145477
0.0014382
0.00142181
0.00140562
0.00138961
0.00137381
0.0013582
0.00134278
0.00132757
0.00131256
0.00129774
0.00128313
0.00126871
0.00125448
0.00124045
0.00122661
0.00121296
0.0011995
0.00118623
0.00117316
0.00116027
0.00114758
0.00113506
0.00112273
0.00111059
0.00109862
0.00108682
0.0010752
0.00106375
0.00105247
0.00104136
0.00103041
0.00101962
0.00100899
0.000998516
0.000988195
0.000978024
0.000968001
0.000958122
0.000948386
0.000938789
0.000929326
0.000919995
0.000910791
0.000901708
0.000892741
0.000883881
0.000875121
0.000866447
0.000857846
0.000849298
0.000840779
0.000832254
0.00082368
0.000814989
0.000806111
0.000796881
0.000787152
0.000777196
0.000757412
3.07986e-05
0.000135322
0.000261518
0.000392497
0.000488785
0.000550396
0.000588109
0.000611475
0.000629144
0.000648367
0.000674394
0.00070988
0.00075557
0.00081174
0.000878778
0.000969152
0.00107419
0.00117587
0.00127507
0.00137057
0.00146128
0.00154729
0.00162855
0.00170502
0.001777
0.00184483
0.00190886
0.00196942
0.00202684
0.00208146
0.00213359
0.00218353
0.00223152
0.00227776
0.00232244
0.00236565
0.0024075
0.00244804
0.0024873
0.00252529
0.002562
0.00259742
0.00263152
0.00266425
0.00269559
0.0027255
0.00275392
0.00278083
0.00280619
0.00282996
0.00285212
0.00287264
0.0028915
0.00290871
0.00292424
0.00293811
0.00295031
0.00296085
0.00296974
0.00297701
0.00298266
0.00298675
0.00298917
0.00299007
0.00298961
0.00298764
0.0029843
0.00297959
0.00297359
0.00296634
0.00295789
0.0029483
0.00293762
0.00292589
0.00291317
0.00289951
0.00288494
0.00286953
0.0028533
0.00283631
0.0028186
0.00280021
0.00278118
0.00276155
0.00274136
0.00272065
0.00269946
0.00267783
0.0026558
0.0026334
0.00261067
0.00258764
0.00256435
0.00254082
0.00251709
0.00249318
0.00246913
0.00244495
0.00242069
0.00239637
0.00237201
0.00234764
0.00232328
0.00229894
0.00227466
0.00225044
0.00222631
0.00220228
0.00217837
0.00215459
0.00213095
0.00210747
0.00208416
0.00206103
0.00203809
0.00201534
0.0019928
0.00197048
0.00194837
0.00192649
0.00190484
0.00188342
0.00186225
0.00184131
0.00182063
0.00180019
0.00178
0.00176006
0.00174038
0.00172095
0.00170177
0.00168284
0.00166416
0.00164573
0.00162755
0.00160961
0.00159191
0.00157446
0.00155725
0.00154028
0.00152354
0.00150705
0.00149079
0.00147476
0.00145896
0.00144339
0.00142803
0.0014129
0.00139798
0.00138327
0.00136877
0.00135448
0.00134039
0.0013265
0.00131281
0.00129931
0.001286
0.00127287
0.00125992
0.00124716
0.00123457
0.00122215
0.00120989
0.00119779
0.00118585
0.00117406
0.0011624
0.00115088
0.00113946
0.00112815
0.00111692
0.00110574
0.00109457
0.00108337
0.00107207
0.00106061
0.0010488
0.00103659
0.00102442
0.00100195
3.23493e-05
0.000142508
0.000273989
0.00040989
0.000527836
0.000609053
0.000665089
0.000706978
0.000743927
0.000783187
0.000829813
0.000886758
0.000955634
0.00104784
0.00115475
0.00126132
0.0013674
0.00147075
0.00157083
0.00166719
0.0017596
0.00184805
0.00193263
0.0020135
0.0020909
0.00216511
0.0022364
0.00230504
0.00237129
0.00243537
0.0024975
0.00255786
0.0026166
0.00267384
0.00272965
0.0027841
0.00283722
0.00288902
0.0029395
0.00298864
0.00303641
0.00308277
0.00312769
0.0031711
0.00321295
0.00325321
0.0032918
0.00332868
0.00336381
0.00339713
0.00342859
0.00345817
0.00348583
0.00351153
0.00353525
0.00355698
0.00357668
0.00359437
0.00361002
0.00362364
0.00363524
0.00364482
0.0036524
0.00365802
0.00366167
0.00366329
0.00366321
0.00366122
0.00365744
0.00365193
0.00364472
0.00363588
0.00362546
0.00361353
0.00360015
0.00358538
0.00356929
0.00355195
0.00353342
0.00351377
0.00349307
0.00347138
0.00344878
0.00342532
0.00340107
0.00337609
0.00335045
0.00332419
0.00329739
0.00327008
0.00324233
0.00321418
0.00318567
0.00315686
0.00312777
0.00309847
0.00306897
0.00303932
0.00300955
0.0029797
0.0029498
0.00291988
0.00288997
0.00286009
0.00283027
0.00280053
0.00277089
0.00274137
0.00271199
0.00268277
0.00265373
0.00262487
0.00259622
0.00256779
0.00253958
0.00251161
0.0024839
0.00245644
0.00242924
0.00240232
0.00237568
0.00234932
0.00232325
0.00229747
0.00227199
0.00224681
0.00222193
0.00219736
0.00217308
0.00214912
0.00212545
0.00210209
0.00207903
0.00205627
0.00203381
0.00201164
0.00198976
0.00196818
0.00194689
0.00192589
0.00190518
0.00188475
0.0018646
0.00184472
0.00182513
0.0018058
0.00178674
0.00176794
0.0017494
0.00173112
0.00171309
0.0016953
0.00167776
0.00166046
0.00164339
0.00162656
0.00160995
0.00159356
0.0015774
0.00156145
0.00154571
0.00153018
0.00151484
0.0014997
0.00148475
0.00146998
0.00145538
0.00144094
0.00142665
0.00141249
0.00139843
0.00138445
0.00137051
0.00135656
0.00134254
0.00132838
0.00131391
0.00129916
0.00128415
0.00125991
3.27985e-05
0.000144139
0.000275344
0.000409488
0.00053942
0.000642723
0.00071979
0.000781107
0.000836795
0.000894533
0.000961967
0.00105378
0.0011633
0.001285
0.00140055
0.00151181
0.00161963
0.00172421
0.00182546
0.00192335
0.00201785
0.00210907
0.00219714
0.00228224
0.00236461
0.00244445
0.002522
0.00259747
0.00267104
0.00274288
0.00281315
0.00288196
0.0029494
0.00301553
0.00308039
0.00314401
0.00320639
0.0032675
0.00332733
0.00338583
0.00344295
0.00349865
0.00355285
0.0036055
0.00365654
0.00370589
0.00375349
0.00379928
0.00384321
0.0038852
0.0039252
0.00396317
0.00399905
0.00403281
0.0040644
0.0040938
0.00412098
0.00414591
0.00416858
0.00418898
0.00420711
0.00422296
0.00423654
0.00424787
0.00425696
0.00426383
0.00426855
0.00427101
0.00427144
0.00426979
0.00426613
0.00426048
0.00425292
0.00424349
0.00423226
0.00421928
0.00420464
0.00418838
0.00417058
0.00415132
0.00413065
0.00410866
0.00408541
0.00406098
0.00403544
0.00400887
0.00398132
0.00395288
0.00392361
0.00389358
0.00386285
0.00383149
0.00379956
0.00376711
0.00373422
0.00370092
0.00366728
0.00363334
0.00359916
0.00356479
0.00353026
0.00349562
0.00346092
0.00342618
0.00339145
0.00335675
0.00332212
0.00328758
0.00325317
0.0032189
0.0031848
0.00315088
0.00311718
0.0030837
0.00305046
0.00301748
0.00298477
0.00295235
0.00292021
0.00288838
0.00285686
0.00282566
0.00279478
0.00276424
0.00273403
0.00270415
0.00267463
0.00264544
0.00261661
0.00258812
0.00255997
0.00253218
0.00250473
0.00247763
0.00245087
0.00242445
0.00239837
0.00237262
0.00234722
0.00232214
0.0022974
0.00227298
0.00224889
0.00222512
0.00220167
0.00217853
0.0021557
0.00213318
0.00211095
0.00208902
0.00206739
0.00204604
0.00202497
0.00200418
0.00198367
0.00196343
0.00194345
0.00192374
0.00190428
0.00188507
0.00186611
0.00184739
0.00182891
0.00181065
0.00179262
0.0017748
0.00175719
0.00173977
0.00172253
0.00170544
0.00168849
0.00167165
0.00165487
0.00163811
0.00162131
0.00160438
0.00158719
0.00156979
0.00155186
0.00152572
3.22409e-05
0.000141215
0.000268946
0.000398087
0.000521959
0.000634102
0.000727873
0.0008089
0.000891737
0.000986919
0.00109602
0.00122061
0.00135695
0.00148445
0.00160474
0.00171975
0.00183047
0.00193724
0.0020404
0.00214028
0.00223712
0.0023311
0.00242242
0.0025113
0.00259793
0.00268251
0.00276525
0.0028463
0.00292583
0.00300397
0.00308081
0.00315645
0.00323093
0.00330428
0.00337654
0.00344767
0.00351767
0.0035865
0.00365411
0.00372044
0.00378543
0.003849
0.00391108
0.00397161
0.00403049
0.00408765
0.00414301
0.0041965
0.00424805
0.00429759
0.00434504
0.00439036
0.00443348
0.00447435
0.00451293
0.00454918
0.00458306
0.00461454
0.0046436
0.00467023
0.0046944
0.00471613
0.00473541
0.00475224
0.00476664
0.00477863
0.00478824
0.00479547
0.00480041
0.00480297
0.00480336
0.00480155
0.00479758
0.00479152
0.00478342
0.00477333
0.00476133
0.00474748
0.00473184
0.00471448
0.00469547
0.00467489
0.00465279
0.00462927
0.00460438
0.00457821
0.00455083
0.0045223
0.0044927
0.00446211
0.00443058
0.0043982
0.00436502
0.00433112
0.00429655
0.00426138
0.00422567
0.00418948
0.00415287
0.0041159
0.00407861
0.00404107
0.00400331
0.00396539
0.00392735
0.00388923
0.00385107
0.0038129
0.00377477
0.00373671
0.00369874
0.0036609
0.00362321
0.00358569
0.00354838
0.00351128
0.00347443
0.00343783
0.00340151
0.00336547
0.00332974
0.00329432
0.00325923
0.00322446
0.00319004
0.00315597
0.00312225
0.00308889
0.0030559
0.00302327
0.00299101
0.00295913
0.00292761
0.00289647
0.00286569
0.00283529
0.00280525
0.00277558
0.00274628
0.00271735
0.00268877
0.00266056
0.00263271
0.00260521
0.00257806
0.00255126
0.0025248
0.00249868
0.0024729
0.00244745
0.00242232
0.00239752
0.00237304
0.00234886
0.002325
0.00230144
0.00227818
0.00225522
0.00223255
0.00221016
0.00218805
0.00216622
0.00214466
0.00212336
0.00210231
0.00208151
0.00206094
0.0020406
0.00202046
0.00200051
0.00198073
0.00196107
0.00194151
0.00192198
0.00190243
0.00188278
0.0018629
0.00184284
0.0018221
0.00179377
3.0872e-05
0.000135129
0.000258146
0.000383445
0.000505408
0.000621472
0.000732089
0.000840983
0.000955731
0.00108148
0.00121949
0.00136918
0.00151146
0.00164344
0.0017677
0.00188612
0.00199984
0.00210949
0.00221546
0.00231795
0.00241737
0.00251408
0.00260839
0.00270056
0.00279081
0.00287934
0.00296634
0.00305196
0.00313634
0.00321959
0.00330179
0.00338299
0.00346323
0.00354253
0.00362088
0.00369825
0.0037746
0.00384988
0.00392402
0.00399696
0.0040686
0.00413887
0.00420768
0.00427494
0.00434055
0.00440442
0.00446648
0.00452662
0.00458477
0.00464085
0.00469479
0.0047465
0.00479594
0.00484304
0.00488774
0.00493001
0.0049698
0.00500707
0.00504181
0.00507398
0.00510357
0.00513058
0.005155
0.00517684
0.0051961
0.00521281
0.00522697
0.00523863
0.0052478
0.00525452
0.00525884
0.00526078
0.00526044
0.00525783
0.00525301
0.00524605
0.00523699
0.00522592
0.00521287
0.00519794
0.00518118
0.00516266
0.00514245
0.00512063
0.00509727
0.00507245
0.00504622
0.00501868
0.00498988
0.00495991
0.00492882
0.0048967
0.0048636
0.00482961
0.00479477
0.00475917
0.00472286
0.00468591
0.00464837
0.00461032
0.0045718
0.00453287
0.00449359
0.004454
0.00441416
0.00437411
0.00433391
0.00429358
0.00425317
0.00421273
0.00417228
0.00413187
0.00409151
0.00405126
0.00401112
0.00397114
0.00393133
0.00389171
0.00385232
0.00381316
0.00377426
0.00373563
0.00369729
0.00365926
0.00362153
0.00358413
0.00354707
0.00351035
0.00347398
0.00343796
0.00340231
0.00336702
0.00333211
0.00329756
0.00326339
0.0032296
0.00319618
0.00316314
0.00313047
0.00309818
0.00306627
0.00303474
0.00300357
0.00297278
0.00294236
0.00291231
0.00288261
0.00285328
0.0028243
0.00279568
0.00276741
0.00273948
0.00271189
0.00268464
0.00265773
0.00263114
0.00260488
0.00257894
0.00255332
0.002528
0.002503
0.00247829
0.00245388
0.00242976
0.00240592
0.00238235
0.00235905
0.00233599
0.00231316
0.00229055
0.00226812
0.00224584
0.00222367
0.00220157
0.00217946
0.00215726
0.00213486
0.00211229
0.00208899
0.00205833
2.93205e-05
0.000128806
0.000248264
0.000372503
0.000497126
0.000621028
0.000745632
0.000874912
0.00101211
0.0011593
0.00131662
0.00147839
0.00162619
0.00176264
0.00189073
0.00201249
0.00212919
0.00224163
0.00235037
0.00245579
0.00255818
0.00265775
0.00275492
0.00285006
0.00294346
0.00303534
0.0031259
0.00321531
0.0033037
0.00339116
0.00347778
0.0035636
0.00364863
0.00373288
0.00381633
0.00389893
0.00398064
0.00406138
0.00414108
0.00421964
0.00429698
0.00437299
0.00444757
0.00452063
0.00459205
0.00466174
0.0047296
0.00479552
0.00485942
0.00492121
0.00498081
0.00503813
0.00509311
0.00514568
0.00519578
0.00524336
0.00528837
0.00533079
0.00537056
0.00540768
0.00544212
0.00547386
0.00550292
0.00552927
0.00555295
0.00557395
0.0055923
0.00560802
0.00562115
0.0056317
0.00563973
0.00564527
0.00564838
0.00564911
0.0056475
0.00564362
0.00563753
0.00562929
0.00561895
0.00560658
0.00559226
0.00557604
0.00555801
0.00553823
0.00551677
0.00549371
0.00546912
0.00544307
0.00541564
0.00538689
0.00535689
0.00532572
0.00529344
0.00526012
0.00522584
0.00519064
0.00515461
0.00511781
0.00508029
0.00504212
0.00500336
0.00496406
0.00492429
0.0048841
0.00484353
0.00480264
0.00476148
0.00472009
0.00467851
0.00463679
0.00459497
0.00455309
0.00451118
0.00446927
0.00442741
0.00438561
0.00434391
0.00430233
0.00426091
0.00421966
0.0041786
0.00413776
0.00409716
0.0040568
0.00401672
0.00397691
0.0039374
0.00389819
0.00385931
0.00382075
0.00378252
0.00374464
0.0037071
0.00366992
0.00363309
0.00359663
0.00356053
0.0035248
0.00348943
0.00345444
0.00341982
0.00338558
0.0033517
0.0033182
0.00328507
0.0032523
0.00321991
0.00318788
0.00315622
0.00312491
0.00309397
0.00306338
0.00303314
0.00300325
0.00297371
0.00294451
0.00291565
0.00288713
0.00285894
0.00283107
0.00280353
0.00277631
0.0027494
0.00272279
0.00269649
0.00267048
0.00264475
0.00261928
0.00259407
0.00256909
0.00254431
0.0025197
0.00249522
0.00247083
0.00244644
0.00242199
0.00239737
0.00237257
0.00234707
0.00231426
2.76263e-05
0.000122204
0.000238234
0.000361787
0.000489223
0.000619913
0.000756114
0.000899606
0.00105207
0.00121401
0.00138594
0.0015519
0.00170368
0.00184399
0.0019756
0.00210047
0.00221997
0.00233503
0.0024463
0.00255428
0.00265936
0.00276184
0.00286199
0.00296
0.00305629
0.00315115
0.00324482
0.00333749
0.0034293
0.00352035
0.00361072
0.00370045
0.00378955
0.00387802
0.00396581
0.00405289
0.00413918
0.00422461
0.00430908
0.00439249
0.00447473
0.00455571
0.00463529
0.00471338
0.00478985
0.0048646
0.00493751
0.00500848
0.0050774
0.00514419
0.00520875
0.00527099
0.00533085
0.00538824
0.00544311
0.0054954
0.00554505
0.00559204
0.00563632
0.00567786
0.00571664
0.00575266
0.0057859
0.00581636
0.00584405
0.00586899
0.00589118
0.00591066
0.00592745
0.00594159
0.0059531
0.00596204
0.00596844
0.00597237
0.00597386
0.00597299
0.00596982
0.00596439
0.00595677
0.00594702
0.00593521
0.00592141
0.00590568
0.00588811
0.00586876
0.0058477
0.005825
0.00580075
0.005775
0.00574783
0.00571931
0.0056895
0.00565849
0.00562633
0.00559309
0.00555884
0.00552365
0.00548757
0.00545068
0.00541303
0.00537469
0.00533571
0.00529615
0.00525607
0.00521552
0.00517454
0.00513319
0.00509152
0.00504957
0.00500739
0.00496501
0.00492248
0.00487984
0.00483713
0.00479437
0.0047516
0.00470885
0.00466616
0.00462355
0.00458104
0.00453866
0.00449644
0.00445439
0.00441253
0.00437089
0.00432948
0.00428831
0.00424741
0.00420678
0.00416643
0.00412638