/*--------------------------------*- C++ -*----------------------------------*\
  =========                 |
  \\      /  F ield         | OpenFOAM: The Open Source CFD Toolbox
   \\    /   O peration     | Website:  https://openfoam.org
    \\  /    A nd           | Version:  8
     \\/     M anipulation  |
\*---------------------------------------------------------------------------*/
FoamFile
{
    version     2.0;
    format      ascii;
    class       surfaceScalarField;
    location    "1600";
    object      phi;
}
// * * * * * * * * * * * * * * * * * * * * * * * * * * * * * * * * * * * * * //

dimensions      [0 3 -1 0 0 0 0];

internalField   nonuniform List<scalar> 
24170
(
3.92539e-06
-7.91498e-07
3.76465e-06
1.6075e-07
3.63345e-06
1.31208e-07
3.43331e-06
2.00143e-07
3.28028e-06
1.53026e-07
3.18901e-06
9.11896e-08
3.13092e-06
5.81094e-08
3.0861e-06
4.58897e-08
3.04613e-06
4.23208e-08
3.0106e-06
3.8159e-08
2.97877e-06
3.37981e-08
2.94906e-06
3.07654e-08
2.9219e-06
2.73717e-08
2.89645e-06
2.51914e-08
2.87232e-06
2.35927e-08
2.85201e-06
1.94576e-08
2.84107e-06
9.8323e-09
-6.5264e-09
2.84693e-06
3.58445e-06
-9.19499e-07
3.80424e-06
-5.90416e-08
3.74282e-06
1.92628e-07
3.6906e-06
2.52373e-07
3.6373e-06
2.06331e-07
3.59023e-06
1.38278e-07
3.55289e-06
9.55974e-08
3.5231e-06
7.56566e-08
3.49853e-06
6.65652e-08
3.47733e-06
5.92097e-08
3.45872e-06
5.2523e-08
3.44254e-06
4.72572e-08
3.42797e-06
4.23285e-08
3.41468e-06
3.87731e-08
3.40272e-06
3.57111e-08
3.39126e-06
3.10158e-08
3.38044e-06
2.07861e-08
4.63136e-09
3.36951e-06
3.68518e-06
-7.92482e-07
3.83639e-06
-2.10251e-07
3.91494e-06
1.14081e-07
3.94502e-06
2.22291e-07
3.94408e-06
2.07262e-07
3.92749e-06
1.54895e-07
3.90755e-06
1.15611e-07
3.88933e-06
9.36402e-08
3.874e-06
8.1191e-08
3.86057e-06
7.1909e-08
3.84835e-06
6.42477e-08
3.8373e-06
5.8125e-08
3.82693e-06
5.27657e-08
3.81743e-06
4.84562e-08
3.80894e-06
4.44063e-08
3.80102e-06
3.92077e-08
3.79201e-06
3.01361e-08
1.76608e-08
3.77948e-06
4.05359e-06
-6.4151e-07
4.1146e-06
-2.7126e-07
4.20799e-06
2.06904e-08
4.26635e-06
1.6393e-07
4.2907e-06
1.82924e-07
4.29287e-06
1.52745e-07
4.28571e-06
1.22814e-07
4.27632e-06
1.02838e-07
4.26728e-06
8.96793e-08
4.25874e-06
7.98091e-08
4.25057e-06
7.19391e-08
4.24284e-06
6.56214e-08
4.23536e-06
6.02287e-08
4.22826e-06
5.56688e-08
4.22152e-06
5.13179e-08
4.21468e-06
4.62928e-08
4.20603e-06
3.91061e-08
3.05367e-08
4.19354e-06
4.50491e-06
-5.09114e-07
4.51536e-06
-2.81709e-07
4.58529e-06
-4.92357e-08
4.64665e-06
1.02563e-07
4.68259e-06
1.46989e-07
4.69688e-06
1.38469e-07
4.69946e-06
1.20232e-07
4.69723e-06
1.04919e-07
4.69332e-06
9.32468e-08
4.68869e-06
8.40471e-08
4.68368e-06
7.66291e-08
4.67852e-06
7.05916e-08
4.67323e-06
6.5473e-08
4.66785e-06
6.10768e-08
4.6623e-06
5.69651e-08
4.65609e-06
5.26465e-08
4.6479e-06
4.75122e-08
4.24953e-08
4.63614e-06
5.00014e-06
-3.94663e-07
4.98614e-06
-2.67705e-07
5.03069e-06
-9.37807e-08
5.08506e-06
4.81952e-08
5.12454e-06
1.07513e-07
5.14609e-06
1.16935e-07
5.15584e-06
1.10483e-07
5.1594e-06
1.01277e-07
5.15986e-06
9.2598e-08
5.1586e-06
8.50715e-08
5.1563e-06
7.87277e-08
5.15334e-06
7.34233e-08
5.14986e-06
6.89087e-08
5.14591e-06
6.50308e-08
5.14138e-06
6.15433e-08
5.13587e-06
5.82513e-08
5.12841e-06
5.50722e-08
5.29535e-08
5.11809e-06
5.54382e-06
-2.97475e-07
5.51664e-06
-2.4053e-07
5.54055e-06
-1.17688e-07
5.58388e-06
4.86712e-09
5.62166e-06
6.97299e-08
5.64656e-06
9.20403e-08
5.66108e-06
9.59611e-08
5.66907e-06
9.3238e-08
5.67315e-06
8.84131e-08
5.67482e-06
8.32871e-08
5.67492e-06
7.85344e-08
5.67392e-06
7.43537e-08
5.67206e-06
7.0738e-08
5.66942e-06
6.76604e-08
5.66593e-06
6.50544e-08
5.66129e-06
6.29304e-08
5.65495e-06
6.14752e-08
6.14458e-08
5.6465e-06
4.34788e-06
-2.39242e-07
4.32251e-06
-2.15163e-07
4.33078e-06
-1.25953e-07
4.35419e-06
-1.85398e-08
4.3784e-06
4.55211e-08
4.39646e-06
7.39786e-08
4.40841e-06
8.40148e-08
4.41597e-06
8.56637e-08
4.4206e-06
8.37554e-08
4.42325e-06
8.05825e-08
4.42457e-06
7.71777e-08
4.42491e-06
7.39793e-08
4.42448e-06
7.11507e-08
4.42336e-06
6.87735e-08
4.42152e-06
6.68911e-08
4.41886e-06
6.56144e-08
4.41515e-06
6.52008e-08
6.62699e-08
4.41035e-06
5.08621e-06
-1.856e-07
5.05777e-06
-1.86719e-07
5.0584e-06
-1.2658e-07
5.07686e-06
-3.70062e-08
5.09918e-06
2.32088e-08
5.11773e-06
5.54293e-08
5.13124e-06
7.04983e-08
5.14059e-06
7.63059e-08
5.14687e-06
7.74622e-08
5.15095e-06
7.64807e-08
5.15345e-06
7.4656e-08
5.15478e-06
7.26415e-08
5.15515e-06
7.07662e-08
5.15469e-06
6.92267e-08
5.15342e-06
6.81646e-08
5.15128e-06
6.77587e-08
5.14821e-06
6.82868e-08
7.02005e-08
5.14429e-06
5.94839e-06
-1.38194e-07
5.91832e-06
-1.56651e-07
5.91161e-06
-1.19868e-07
5.924e-06
-4.94008e-08
5.94286e-06
4.35304e-09
5.96058e-06
3.77095e-08
5.9748e-06
5.62819e-08
5.98547e-06
6.56348e-08
5.9932e-06
6.97214e-08
5.99868e-06
7.09998e-08
6.00243e-06
7.08941e-08
6.00485e-06
7.02138e-08
6.00619e-06
6.94266e-08
6.00658e-06
6.88296e-08
6.00611e-06
6.86431e-08
6.00479e-06
6.90835e-08
6.00267e-06
7.04027e-08
7.2911e-08
5.99996e-06
6.95439e-06
-9.83134e-08
6.92402e-06
-1.2628e-07
6.91113e-06
-1.06987e-07
6.9168e-06
-5.507e-08
6.93087e-06
-9.71639e-09
6.94635e-06
2.22316e-08
6.96015e-06
4.2483e-08
6.9714e-06
5.43839e-08
6.98018e-06
6.09464e-08
6.98685e-06
6.43293e-08
6.99181e-06
6.59331e-08
6.99538e-06
6.66381e-08
6.99781e-06
6.69989e-08
6.99925e-06
6.73869e-08
6.99982e-06
6.80703e-08
6.99963e-06
6.92756e-08
6.99882e-06
7.12135e-08
7.40715e-08
6.99766e-06
8.12719e-06
-6.64882e-08
8.09793e-06
-9.70227e-08
8.08056e-06
-8.96119e-08
8.07955e-06
-5.40633e-08
8.08793e-06
-1.80956e-08
8.09985e-06
1.03147e-08
8.11198e-06
3.03486e-08
8.12286e-06
4.35093e-08
8.13202e-06
5.17798e-08
8.13951e-06
5.68489e-08
8.14549e-06
5.99529e-08
8.15018e-06
6.19434e-08
8.15378e-06
6.34001e-08
8.15645e-06
6.47212e-08
8.15832e-06
6.61929e-08
8.15957e-06
6.80292e-08
8.16039e-06
7.03923e-08
7.3388e-08
8.16108e-06
9.49368e-06
-4.24392e-08
9.4668e-06
-7.01446e-08
9.44683e-06
-6.96435e-08
9.43991e-06
-4.71365e-08
9.44229e-06
-2.04744e-08
9.44966e-06
2.94702e-09
9.45895e-06
2.10538e-08
9.4684e-06
3.40574e-08
9.47716e-06
4.30204e-08
9.48491e-06
4.91016e-08
9.49159e-06
5.32711e-08
9.49727e-06
5.62654e-08
9.50205e-06
5.86163e-08
9.50607e-06
6.07043e-08
9.50947e-06
6.27966e-08
9.51242e-06
6.50794e-08
9.51514e-06
6.76713e-08
7.06259e-08
9.5179e-06
1.10854e-05
-2.51596e-08
1.10618e-05
-4.65045e-08
1.1041e-05
-4.881e-08
1.10294e-05
-3.55565e-08
1.10261e-05
-1.71764e-08
1.10284e-05
5.96358e-10
1.1034e-05
1.54639e-08
1.10411e-05
2.69576e-08
1.10487e-05
3.54759e-08
1.10561e-05
4.16969e-08
1.1063e-05
4.62914e-08
1.10695e-05
4.98177e-08
1.10754e-05
5.27063e-08
1.10808e-05
5.52714e-08
1.10859e-05
5.77334e-08
1.10907e-05
6.02363e-08
1.10956e-05
6.28607e-08
6.56301e-08
1.11006e-05
1.29396e-05
-1.31192e-08
1.29194e-05
-2.62807e-08
1.28988e-05
-2.82554e-08
1.28839e-05
-2.06926e-08
1.28758e-05
-9.00247e-09
1.28732e-05
3.13627e-09
1.28748e-05
1.39293e-08
1.28789e-05
2.27754e-08
1.28847e-05
2.9729e-08
1.28913e-05
3.5125e-08
1.28982e-05
3.93625e-08
1.29052e-05
4.28046e-08
1.29122e-05
4.57435e-08
1.2919e-05
4.83963e-08
1.29259e-05
5.09123e-08
1.29327e-05
5.33831e-08
1.29397e-05
5.58521e-08
5.83224e-08
1.2947e-05
1.50998e-05
-4.48367e-09
1.50822e-05
-8.67829e-09
1.50621e-05
-8.11715e-09
1.50448e-05
-3.46327e-09
1.50327e-05
3.10293e-09
1.50259e-05
9.93013e-09
1.50237e-05
1.61513e-08
1.5025e-05
2.14516e-08
1.50289e-05
2.58384e-08
1.50346e-05
2.94675e-08
1.50414e-05
3.25349e-08
1.5049e-05
3.52212e-08
1.50571e-05
3.76697e-08
1.50655e-05
3.99818e-08
1.50742e-05
4.22203e-08
1.50832e-05
4.44145e-08
1.50924e-05
4.65671e-08
4.86599e-08
1.51021e-05
1.76171e-05
2.89257e-09
1.75999e-05
8.52074e-09
1.75787e-05
1.3026e-08
1.7559e-05
1.62727e-08
1.75436e-05
1.84658e-08
1.75336e-05
1.99492e-08
1.75287e-05
2.10418e-08
1.75282e-05
2.19813e-08
1.75311e-05
2.29253e-08
1.75366e-05
2.39692e-08
1.7544e-05
2.51589e-08
1.75527e-05
2.65078e-08
1.75624e-05
2.80041e-08
1.75727e-05
2.96233e-08
1.75836e-05
3.1328e-08
1.75949e-05
3.30781e-08
1.76067e-05
3.4827e-08
3.65307e-08
1.76188e-05
1.78181e-05
1.09998e-08
1.77994e-05
2.72104e-08
1.77768e-05
3.56207e-08
1.7756e-05
3.70536e-08
1.77402e-05
3.43196e-08
1.77302e-05
2.99381e-08
1.77257e-05
2.549e-08
1.77259e-05
2.1766e-08
1.77298e-05
1.90612e-08
1.77364e-05
1.73842e-08
1.77449e-05
1.66153e-08
1.77549e-05
1.65842e-08
1.77657e-05
1.71213e-08
1.77773e-05
1.80678e-08
1.77893e-05
1.92931e-08
1.78017e-05
2.06821e-08
1.78144e-05
2.21469e-08
2.36104e-08
1.78273e-05
1.58702e-05
2.2133e-08
1.58478e-05
4.95795e-08
1.58233e-05
6.01293e-08
1.58031e-05
5.72303e-08
1.57899e-05
4.76047e-08
1.57834e-05
3.63641e-08
1.57827e-05
2.61882e-08
1.57864e-05
1.81354e-08
1.57931e-05
1.23522e-08
1.58019e-05
8.59785e-09
1.5812e-05
6.48039e-09
1.5823e-05
5.61135e-09
1.58344e-05
5.64581e-09
1.58462e-05
6.30963e-09
1.58581e-05
7.38061e-09
1.58701e-05
8.69683e-09
1.58821e-05
1.01287e-08
1.1588e-08
1.58941e-05
1.41313e-05
3.95384e-08
1.41021e-05
7.87055e-08
1.40745e-05
8.77855e-08
1.40557e-05
7.6035e-08
1.40469e-05
5.64088e-08
1.40462e-05
3.70337e-08
1.40512e-05
2.1203e-08
1.40597e-05
9.57355e-09
1.40703e-05
1.75208e-09
1.4082e-05
-3.06102e-09
1.40941e-05
-5.61831e-09
1.41063e-05
-6.57604e-09
1.41184e-05
-6.43249e-09
1.41303e-05
-5.57624e-09
1.41419e-05
-4.27839e-09
1.41534e-05
-2.73838e-09
1.41646e-05
-1.09318e-09
5.5997e-10
1.41756e-05
1.25772e-05
6.73553e-08
1.25392e-05
1.16739e-07
1.25091e-05
1.17887e-07
1.24942e-05
9.08883e-08
1.24928e-05
5.78104e-08
1.25002e-05
2.9679e-08
1.25122e-05
9.12633e-09
1.25263e-05
-4.50208e-09
1.25409e-05
-1.28417e-08
1.25552e-05
-1.73555e-08
1.25689e-05
-1.9292e-08
1.25818e-05
-1.95119e-08
1.25941e-05
-1.86672e-08
1.26057e-05
-1.71703e-08
1.26167e-05
-1.53214e-08
1.26273e-05
-1.33182e-08
1.26375e-05
-1.12826e-08
-9.3002e-09
1.26473e-05
1.11862e-05
1.10916e-07
1.11384e-05
1.64569e-07
1.11088e-05
1.47519e-07
1.11022e-05
9.74826e-08
1.11117e-05
4.83106e-08
1.11289e-05
1.23992e-08
1.11486e-05
-1.04632e-08
1.11678e-05
-2.37285e-08
1.11855e-05
-3.05088e-08
1.12014e-05
-3.32909e-08
1.12157e-05
-3.35571e-08
1.12285e-05
-3.23615e-08
1.12402e-05
-3.03124e-08
1.12508e-05
-2.78641e-08
1.12608e-05
-2.52602e-08
1.12701e-05
-2.26581e-08
1.1279e-05
-2.01561e-08
-1.77831e-08
1.12875e-05
9.93908e-06
1.76451e-07
9.88248e-06
2.21162e-07
9.85873e-06
1.71261e-07
9.86593e-06
9.0274e-08
9.8896e-06
2.46372e-08
9.91759e-06
-1.55566e-08
9.94391e-06
-3.67947e-08
9.96668e-06
-4.64075e-08
9.9857e-06
-4.9606e-08
1.00017e-05
-4.92812e-08
1.00152e-05
-4.71178e-08
1.00269e-05
-4.39946e-08
1.00371e-05
-4.05388e-08
1.00463e-05
-3.70064e-08
1.00546e-05
-3.3585e-08
1.00623e-05
-3.03826e-08
1.00696e-05
-2.74228e-08
-2.47068e-08
1.00765e-05
8.81963e-06
2.69916e-07
8.75785e-06
2.82943e-07
8.74788e-06
1.81224e-07
8.77481e-06
6.33216e-08
8.81458e-06
-1.51302e-08
8.85212e-06
-5.30921e-08
8.88268e-06
-6.72276e-08
8.90622e-06
-7.00217e-08
8.92426e-06
-6.76091e-08
8.93841e-06
-6.33583e-08
8.94982e-06
-5.83882e-08
8.95922e-06
-5.33234e-08
8.96723e-06
-4.84792e-08
8.97424e-06
-4.39993e-08
8.98051e-06
-3.9868e-08
8.98628e-06
-3.61529e-08
8.99171e-06
-3.28768e-08
-2.99077e-08
8.99691e-06
7.81391e-06
3.96675e-07
7.75391e-06
3.42942e-07
7.76868e-06
1.66439e-07
7.82053e-06
1.14599e-08
7.87567e-06
-7.02751e-08
7.91912e-06
-9.64913e-08
7.94967e-06
-9.78342e-08
7.97057e-06
-9.06446e-08
7.98483e-06
-8.15783e-08
7.99523e-06
-7.35365e-08
8.00314e-06
-6.60887e-08
8.00935e-06
-5.93898e-08
8.01445e-06
-5.33431e-08
8.01887e-06
-4.82097e-08
8.02273e-06
-4.36639e-08
8.02625e-06
-3.97064e-08
8.02964e-06
-3.63145e-08
-3.3274e-08
8.03299e-06
6.90424e-06
5.66768e-07
6.86137e-06
3.85804e-07
6.91716e-06
1.10633e-07
6.99674e-06
-6.81342e-08
7.06253e-06
-1.36072e-07
7.10529e-06
-1.39269e-07
7.13032e-06
-1.22548e-07
7.14447e-06
-1.04615e-07
7.15207e-06
-8.89836e-08
7.15708e-06
-7.57884e-08
7.16036e-06
-6.66458e-08
7.16266e-06
-5.95252e-08
7.16416e-06
-5.41385e-08
7.16553e-06
-4.9364e-08
7.16667e-06
-4.47284e-08
7.1677e-06
-4.06875e-08
7.16885e-06
-3.76268e-08
-3.49924e-08
7.17016e-06
6.07162e-06
7.97662e-07
6.08526e-06
3.72163e-07
6.19865e-06
-2.77435e-09
6.29989e-06
-1.69399e-07
6.36526e-06
-2.01463e-07
6.39754e-06
-1.71504e-07
6.41011e-06
-1.3522e-07
6.41342e-06
-1.06944e-07
6.41238e-06
-8.57981e-08
6.40988e-06
-7.40091e-08
6.40746e-06
-6.44859e-08
6.40484e-06
-5.75228e-08
6.40233e-06
-5.13151e-08
6.40032e-06
-4.66352e-08
6.39833e-06
-4.24846e-08
6.39639e-06
-3.90632e-08
6.39498e-06
-3.67474e-08
-3.47915e-08
6.39409e-06
5.35805e-06
1.05451e-06
5.50649e-06
2.23716e-07
5.64777e-06
-1.44086e-07
5.73564e-06
-2.57315e-07
5.77646e-06
-2.42348e-07
5.78323e-06
-1.78426e-07
5.77527e-06
-1.26644e-07
5.76328e-06
-9.40006e-08
5.74975e-06
-7.56633e-08
5.7393e-06
-6.39653e-08
5.73028e-06
-5.64911e-08
5.72231e-06
-4.99329e-08
5.71444e-06
-4.45937e-08
5.70775e-06
-4.01875e-08
5.70163e-06
-3.64338e-08
5.69621e-06
-3.35994e-08
5.69186e-06
-3.24443e-08
-3.08819e-08
5.68755e-06
5.04576e-06
1.01105e-06
5.36491e-06
-9.54504e-08
5.35251e-06
-1.31768e-07
5.33284e-06
-2.37747e-07
5.296e-06
-2.05653e-07
5.25016e-06
-1.3259e-07
5.2089e-06
-8.47326e-08
5.17485e-06
-6.08197e-08
5.14635e-06
-4.98301e-08
5.12484e-06
-4.28904e-08
5.10672e-06
-3.93161e-08
5.09045e-06
-3.56307e-08
5.07522e-06
-3.1433e-08
5.06193e-06
-2.75e-08
5.04965e-06
-2.40133e-08
5.03902e-06
-2.26484e-08
5.03089e-06
-2.39353e-08
-2.16467e-08
5.02247e-06
5.4676e-06
5.37214e-06
5.24037e-06
5.0026e-06
4.79694e-06
4.66443e-06
4.57966e-06
4.51835e-06
4.46847e-06
4.4254e-06
4.38574e-06
4.34962e-06
4.31802e-06
4.29054e-06
4.26661e-06
4.24408e-06
4.22041e-06
4.19928e-06
2.29771e-08
-2.29785e-08
2.37039e-07
-2.14067e-07
4.89254e-07
-2.52185e-07
7.09652e-07
-2.20378e-07
8.7751e-07
-1.67839e-07
9.8878e-07
-1.1126e-07
1.04457e-06
-5.57834e-08
1.04711e-06
-2.53861e-09
1.0017e-06
4.54232e-08
9.18466e-07
8.32264e-08
8.12635e-07
1.0584e-07
7.03333e-07
1.0929e-07
6.10378e-07
9.29507e-08
5.43982e-07
6.64123e-08
4.92916e-07
5.10833e-08
4.33976e-07
5.96294e-08
3.48023e-07
8.58151e-08
2.23317e-07
1.25451e-07
4.54326e-08
1.77472e-07
-1.99771e-07
2.4458e-07
-5.02269e-07
3.02245e-07
-8.43303e-07
3.40785e-07
-1.20772e-06
3.64424e-07
-1.58518e-06
3.77465e-07
-1.96687e-06
3.81731e-07
-2.34283e-06
3.75973e-07
-2.705e-06
3.62193e-07
-3.04822e-06
3.43233e-07
-3.36866e-06
3.20454e-07
-3.66398e-06
2.95323e-07
-3.93331e-06
2.69331e-07
-4.17696e-06
2.43653e-07
-4.39595e-06
2.18999e-07
-4.59178e-06
1.95825e-07
-4.76613e-06
1.74357e-07
-4.92081e-06
1.54679e-07
-5.05756e-06
1.36752e-07
-5.17802e-06
1.20458e-07
-5.28366e-06
1.05637e-07
-5.37577e-06
9.2109e-08
-5.45546e-06
7.96914e-08
-5.52367e-06
6.82118e-08
-5.58119e-06
5.75148e-08
-5.62865e-06
4.74662e-08
-5.66661e-06
3.7957e-08
-5.69551e-06
2.88998e-08
-5.71573e-06
2.02231e-08
-5.72763e-06
1.18969e-08
-5.73168e-06
4.04905e-09
-5.72875e-06
-2.93278e-09
-5.71992e-06
-8.83312e-09
-5.70595e-06
-1.39607e-08
-5.68728e-06
-1.86778e-08
-5.66413e-06
-2.31458e-08
-5.63669e-06
-2.74427e-08
-5.60509e-06
-3.15968e-08
-5.56947e-06
-3.56228e-08
-5.52994e-06
-3.95277e-08
-5.48663e-06
-4.33124e-08
-5.43965e-06
-4.6976e-08
-5.38914e-06
-5.05157e-08
-5.33521e-06
-5.39283e-08
-5.278e-06
-5.72102e-08
-5.21764e-06
-6.03582e-08
-5.15427e-06
-6.33698e-08
-5.08803e-06
-6.62419e-08
-5.01906e-06
-6.89711e-08
-4.9475e-06
-7.15551e-08
-4.87351e-06
-7.39921e-08
-4.79723e-06
-7.62811e-08
-4.71881e-06
-7.84212e-08
-4.6384e-06
-8.04121e-08
-4.55614e-06
-8.2254e-08
-4.4722e-06
-8.39477e-08
-4.3867e-06
-8.54942e-08
-4.29981e-06
-8.68954e-08
-4.21165e-06
-8.81532e-08
-4.12238e-06
-8.92703e-08
-4.03213e-06
-9.02496e-08
-3.94104e-06
-9.10948e-08
-3.84923e-06
-9.18096e-08
-3.75683e-06
-9.23985e-08
-3.66396e-06
-9.28664e-08
-3.57074e-06
-9.32189e-08
-3.47728e-06
-9.34621e-08
-3.38368e-06
-9.36032e-08
-3.29002e-06
-9.3651e-08
-3.19641e-06
-9.36156e-08
-3.1029e-06
-9.351e-08
-3.00955e-06
-9.33498e-08
-2.91639e-06
-9.31558e-08
-2.82344e-06
-9.29533e-08
-2.73068e-06
-9.27605e-08
-2.63812e-06
-9.25568e-08
-2.54586e-06
-9.22574e-08
-2.4541e-06
-9.17608e-08
-2.36312e-06
-9.09816e-08
-2.27318e-06
-8.9937e-08
-2.1844e-06
-8.87839e-08
-2.09677e-06
-8.76293e-08
-2.0103e-06
-8.64734e-08
-1.925e-06
-8.53001e-08
-1.8409e-06
-8.41023e-08
-1.75802e-06
-8.28789e-08
-1.67639e-06
-8.16325e-08
-1.59602e-06
-8.03669e-08
-1.51694e-06
-7.90859e-08
-1.43915e-06
-7.77921e-08
-1.36266e-06
-7.64835e-08
-1.28752e-06
-7.51394e-08
-1.21375e-06
-7.37718e-08
-1.14135e-06
-7.24085e-08
-1.0703e-06
-7.10444e-08
-1.00062e-06
-6.96808e-08
-9.32306e-07
-6.83186e-08
-8.65348e-07
-6.69595e-08
-7.99745e-07
-6.56055e-08
-7.35487e-07
-6.42594e-08
-6.72565e-07
-6.29231e-08
-6.10971e-07
-6.15961e-08
-5.50694e-07
-6.02789e-08
-4.91721e-07
-5.89744e-08
-4.34035e-07
-5.76886e-08
-3.7761e-07
-5.64271e-08
-3.22426e-07
-5.51858e-08
-2.68467e-07
-5.39612e-08
-2.15712e-07
-5.27574e-08
-1.64141e-07
-5.15734e-08
-1.13745e-07
-5.03975e-08
-6.45185e-08
-4.92296e-08
-1.65821e-08
-4.79393e-08
3.01967e-08
-4.67819e-08
7.61256e-08
-4.59315e-08
1.21097e-07
-4.49738e-08
1.65009e-07
-4.39134e-08
2.07856e-07
-4.28491e-08
2.49656e-07
-4.18022e-08
2.90439e-07
-4.07851e-08
3.30237e-07
-3.97999e-08
3.69081e-07
-3.8845e-08
4.06998e-07
-3.79186e-08
4.44017e-07
-3.70192e-08
4.80162e-07
-3.61459e-08
5.1546e-07
-3.5298e-08
5.49934e-07
-3.44749e-08
5.83609e-07
-3.36763e-08
6.1651e-07
-3.29021e-08
6.48661e-07
-3.21521e-08
6.80086e-07
-3.14263e-08
7.10809e-07
-3.07245e-08
7.40854e-07
-3.00468e-08
7.70246e-07
-2.93931e-08
7.99009e-07
-2.87635e-08
8.27166e-07
-2.81579e-08
8.54742e-07
-2.75765e-08
8.81761e-07
-2.70191e-08
9.08246e-07
-2.64857e-08
9.34222e-07
-2.59758e-08
9.59711e-07
-2.54891e-08
9.84736e-07
-2.50247e-08
1.00932e-06
-2.45813e-08
1.03348e-06
-2.4157e-08
1.05723e-06
-2.37491e-08
1.08058e-06
-2.33535e-08
1.10355e-06
-2.29645e-08
1.12612e-06
-2.25739e-08
1.14829e-06
-2.21704e-08
1.17003e-06
-2.17383e-08
1.19129e-06
-2.12553e-08
1.21198e-06
-2.06905e-08
1.23198e-06
-1.99995e-08
1.2511e-06
-1.91187e-08
1.26905e-06
-1.79505e-08
1.2854e-06
-1.63508e-08
1.29944e-06
-1.40443e-08
1.31006e-06
-1.06207e-08
1.31463e-06
-4.55631e-09
1.30778e-06
6.85877e-09
1.27823e-06
2.95385e-08
7.23302e-08
1.2059e-06
2.54225e-07
-2.77225e-07
4.90247e-07
-4.50086e-07
6.39967e-07
-4.01901e-07
7.24719e-07
-3.05129e-07
7.64341e-07
-2.07452e-07
7.70386e-07
-1.17309e-07
7.49546e-07
-3.49378e-08
7.0745e-07
3.95504e-08
6.47173e-07
1.05705e-07
5.68635e-07
1.61756e-07
4.71125e-07
2.03356e-07
3.52998e-07
2.27405e-07
2.08247e-07
2.37709e-07
2.53249e-08
2.49351e-07
-2.06632e-07
2.83049e-07
-4.92106e-07
3.45195e-07
-8.30018e-07
4.23814e-07
-1.20996e-06
5.0541e-07
-1.61395e-06
5.81419e-07
-2.01552e-06
6.46094e-07
-2.40557e-06
6.92252e-07
-2.78111e-06
7.16311e-07
-3.13617e-06
7.19481e-07
-3.46378e-06
7.05078e-07
-3.75873e-06
6.76687e-07
-4.02005e-06
6.37303e-07
-4.24817e-06
5.90308e-07
-4.44433e-06
5.39402e-07
-4.61146e-06
4.87579e-07
-4.75305e-06
4.36917e-07
-4.87248e-06
3.88765e-07
-4.97293e-06
3.44101e-07
-5.05727e-06
3.0334e-07
-5.12801e-06
2.66571e-07
-5.18729e-06
2.3363e-07
-5.23682e-06
2.04217e-07
-5.27803e-06
1.7796e-07
-5.31204e-06
1.54468e-07
-5.33977e-06
1.3336e-07
-5.36194e-06
1.14283e-07
-5.37917e-06
9.69254e-08
-5.39198e-06
8.1022e-08
-5.40082e-06
6.63501e-08
-5.40608e-06
5.27279e-08
-5.40813e-06
4.00085e-08
-5.40731e-06
2.80766e-08
-5.40394e-06
1.68544e-08
-5.39835e-06
6.30706e-09
-5.39069e-06
-3.60956e-09
-5.38054e-06
-1.30849e-08
-5.36702e-06
-2.23595e-08
-5.34951e-06
-3.14627e-08
-5.32786e-06
-4.03287e-08
-5.30206e-06
-4.89539e-08
-5.27215e-06
-5.73452e-08
-5.23824e-06
-6.55088e-08
-5.20042e-06
-7.34474e-08
-5.15878e-06
-8.11607e-08
-5.11345e-06
-8.86453e-08
-5.06453e-06
-9.58956e-08
-5.01214e-06
-1.02905e-07
-4.9564e-06
-1.09665e-07
-4.89745e-06
-1.16169e-07
-4.83539e-06
-1.2241e-07
-4.77038e-06
-1.28382e-07
-4.70254e-06
-1.3408e-07
-4.63202e-06
-1.39495e-07
-4.55895e-06
-1.44623e-07
-4.48348e-06
-1.49462e-07
-4.40575e-06
-1.54008e-07
-4.32592e-06
-1.58261e-07
-4.24411e-06
-1.62219e-07
-4.16048e-06
-1.65882e-07
-4.07517e-06
-1.69253e-07
-3.98834e-06
-1.72333e-07
-3.9001e-06
-1.75126e-07
-3.81062e-06
-1.77636e-07
-3.72002e-06
-1.79869e-07
-3.62844e-06
-1.81829e-07
-3.53601e-06
-1.83524e-07
-3.44286e-06
-1.84962e-07
-3.34911e-06
-1.86151e-07
-3.25488e-06
-1.87099e-07
-3.16028e-06
-1.87818e-07
-3.06542e-06
-1.88317e-07
-2.97042e-06
-1.88609e-07
-2.87536e-06
-1.88704e-07
-2.78036e-06
-1.88618e-07
-2.68551e-06
-1.88361e-07
-2.59091e-06
-1.87947e-07
-2.49668e-06
-1.87387e-07
-2.40294e-06
-1.86689e-07
-2.30986e-06
-1.85849e-07
-2.21758e-06
-1.84837e-07
-2.12622e-06
-1.83609e-07
-2.03585e-06
-1.82138e-07
-1.94641e-06
-1.80418e-07
-1.85786e-06
-1.7849e-07
-1.77021e-06
-1.76432e-07
-1.68354e-06
-1.74297e-07
-1.59792e-06
-1.72099e-07
-1.51338e-06
-1.69838e-07
-1.42997e-06
-1.67517e-07
-1.34771e-06
-1.65138e-07
-1.26663e-06
-1.62708e-07
-1.18677e-06
-1.60232e-07
-1.10814e-06
-1.57714e-07
-1.03077e-06
-1.55159e-07
-9.54687e-07
-1.52569e-07
-8.79883e-07
-1.49944e-07
-8.06359e-07
-1.47297e-07
-7.34128e-07
-1.44641e-07
-6.63193e-07
-1.4198e-07
-5.93557e-07
-1.39318e-07
-5.25219e-07
-1.36658e-07
-4.58177e-07
-1.34002e-07
-3.92428e-07
-1.31356e-07
-3.27966e-07
-1.28722e-07
-2.64782e-07
-1.26108e-07
-2.02865e-07
-1.23515e-07
-1.42205e-07
-1.20939e-07
-8.27929e-08
-1.18388e-07
-2.46205e-08
-1.15862e-07
3.23258e-08
-1.13375e-07
8.80739e-08
-1.10935e-07
1.42641e-07
-1.0853e-07
1.96038e-07
-1.06155e-07
2.48279e-07
-1.03816e-07
2.99392e-07
-1.01512e-07
3.49406e-07
-9.92449e-08
3.9848e-07
-9.7014e-08
4.46586e-07
-9.48893e-08
4.93508e-07
-9.28547e-08
5.39314e-07
-9.0781e-08
5.84083e-07
-8.86823e-08
6.27844e-07
-8.66112e-08
6.70627e-07
-8.45869e-08
7.12458e-07
-8.26164e-08
7.53358e-07
-8.07007e-08
7.93351e-07
-7.88388e-08
8.3246e-07
-7.70288e-08
8.7071e-07
-7.52692e-08
9.08123e-07
-7.35591e-08
9.44722e-07
-7.18973e-08
9.8053e-07
-7.02833e-08
1.01557e-06
-6.87169e-08
1.04986e-06
-6.71977e-08
1.08344e-06
-6.57256e-08
1.11631e-06
-6.43004e-08
1.14851e-06
-6.29221e-08
1.18005e-06
-6.15906e-08
1.21096e-06
-6.0306e-08
1.24127e-06
-5.90683e-08
1.27099e-06
-5.78774e-08
1.30014e-06
-5.67334e-08
1.32876e-06
-5.5636e-08
1.35686e-06
-5.45847e-08
1.38446e-06
-5.35789e-08
1.41159e-06
-5.26174e-08
1.43826e-06
-5.16983e-08
1.4645e-06
-5.08192e-08
1.49032e-06
-4.99759e-08
1.51574e-06
-4.91631e-08
1.54076e-06
-4.83728e-08
1.56539e-06
-4.7594e-08
1.58963e-06
-4.68112e-08
1.61346e-06
-4.60033e-08
1.63686e-06
-4.51407e-08
1.65979e-06
-4.41823e-08
1.68217e-06
-4.30706e-08
1.7039e-06
-4.1724e-08
1.7248e-06
-4.00243e-08
1.74465e-06
-3.77949e-08
1.76306e-06
-3.47664e-08
1.77949e-06
-3.0478e-08
1.79305e-06
-2.41773e-08
1.80277e-06
-1.42705e-08
1.80763e-06
1.99999e-09
1.80575e-06
3.14258e-08
8.80327e-08
1.79004e-06
2.46182e-07
-5.23428e-07
3.42676e-07
-5.46584e-07
3.59065e-07
-4.18288e-07
3.48095e-07
-2.94149e-07
3.20466e-07
-1.79817e-07
2.76462e-07
-7.33031e-08
2.15371e-07
2.61559e-08
1.36146e-07
1.18772e-07
3.77294e-08
2.04124e-07
-8.20319e-08
2.81514e-07
-2.2883e-07
3.50155e-07
-4.13175e-07
4.11749e-07
-6.48498e-07
4.7303e-07
-9.41814e-07
5.42671e-07
-1.28305e-06
6.24279e-07
-1.65025e-06
7.124e-07
-2.02253e-06
7.9609e-07
-2.38299e-06
8.65858e-07
-2.71771e-06
9.16125e-07
-3.01611e-06
9.44489e-07
-3.27434e-06
9.50478e-07
-3.49338e-06
9.35361e-07
-3.67623e-06
9.02327e-07
-3.82691e-06
8.55763e-07
-3.95015e-06
7.99929e-07
-4.05135e-06
7.38511e-07
-4.13586e-06
6.74816e-07
-4.20807e-06
6.11606e-07
-4.2714e-06
5.50919e-07
-4.3285e-06
4.94011e-07
-4.38123e-06
4.41492e-07
-4.43072e-06
3.93597e-07
-4.47762e-06
3.50243e-07
-4.5222e-06
3.1115e-07
-4.5645e-06
2.75925e-07
-4.60441e-06
2.44132e-07
-4.64178e-06
2.15328e-07
-4.67641e-06
1.89098e-07
-4.70812e-06
1.65065e-07
-4.73673e-06
1.42897e-07
-4.76212e-06
1.22313e-07
-4.78417e-06
1.03073e-07
-4.8028e-06
8.49794e-08
-4.81794e-06
6.78671e-08
-4.82953e-06
5.1596e-08
-4.8375e-06
3.60468e-08
-4.84176e-06
2.11176e-08
-4.84217e-06
6.71459e-09
-4.83851e-06
-7.26907e-09
-4.83065e-06
-2.09477e-08
-4.81862e-06
-3.43811e-08
-4.80253e-06
-4.7557e-08
-4.78241e-06
-6.04531e-08
-4.7583e-06
-7.30609e-08
-4.73027e-06
-8.53741e-08
-4.69839e-06
-9.73869e-08
-4.66275e-06
-1.09092e-07
-4.62343e-06
-1.20482e-07
-4.58053e-06
-1.31546e-07
-4.53415e-06
-1.42271e-07
-4.48441e-06
-1.52648e-07
-4.43141e-06
-1.62661e-07
-4.37528e-06
-1.72298e-07
-4.31614e-06
-1.81548e-07
-4.25412e-06
-1.90403e-07
-4.18935e-06
-1.98854e-07
-4.12196e-06
-2.06888e-07
-4.05208e-06
-2.14499e-07
-3.97986e-06
-2.21682e-07
-3.90544e-06
-2.28433e-07
-3.82895e-06
-2.34749e-07
-3.75054e-06
-2.40629e-07
-3.67035e-06
-2.46073e-07
-3.58852e-06
-2.51083e-07
-3.50519e-06
-2.55663e-07
-3.4205e-06
-2.59816e-07
-3.33458e-06
-2.6355e-07
-3.24758e-06
-2.6687e-07
-3.15962e-06
-2.69786e-07
-3.07084e-06
-2.72307e-07
-2.98136e-06
-2.74444e-07
-2.8913e-06
-2.76208e-07
-2.80079e-06
-2.77612e-07
-2.70993e-06
-2.7867e-07
-2.61886e-06
-2.79394e-07
-2.52767e-06
-2.798e-07
-2.43647e-06
-2.79904e-07
-2.34537e-06
-2.79719e-07
-2.25447e-06
-2.7926e-07
-2.16387e-06
-2.7854e-07
-2.07369e-06
-2.77571e-07
-1.98402e-06
-2.76359e-07
-1.89497e-06
-2.74902e-07
-1.80661e-06
-2.73188e-07
-1.71902e-06
-2.71202e-07
-1.63222e-06
-2.68941e-07
-1.54621e-06
-2.66422e-07
-1.46102e-06
-2.6368e-07
-1.37669e-06
-2.60761e-07
-1.29329e-06
-2.57701e-07
-1.21087e-06
-2.54518e-07
-1.12948e-06
-2.51226e-07
-1.04917e-06
-2.47834e-07
-9.69953e-07
-2.44352e-07
-8.91873e-07
-2.40788e-07
-8.14953e-07
-2.37152e-07
-7.39215e-07
-2.33452e-07
-6.6468e-07
-2.29695e-07
-5.9136e-07
-2.25889e-07
-5.19262e-07
-2.22042e-07
-4.48395e-07
-2.18164e-07
-3.78768e-07
-2.14268e-07
-3.10388e-07
-2.1036e-07
-2.43257e-07
-2.0645e-07
-1.77374e-07
-2.02541e-07
-1.12738e-07
-1.98639e-07
-4.93445e-08
-1.94749e-07
1.2812e-08
-1.90879e-07
7.3736e-08
-1.87033e-07
1.33436e-07
-1.83215e-07
1.91924e-07
-1.79428e-07
2.49213e-07
-1.75678e-07
3.05319e-07
-1.71968e-07
3.60252e-07
-1.68309e-07
4.1402e-07
-1.64703e-07
4.66638e-07
-1.61148e-07
5.18125e-07
-1.57643e-07
5.68502e-07
-1.54193e-07
6.1779e-07
-1.508e-07
6.66018e-07
-1.47474e-07
7.1323e-07
-1.44226e-07
7.59407e-07
-1.41067e-07
8.04517e-07
-1.37965e-07
8.48608e-07
-1.34872e-07
8.91723e-07
-1.31798e-07
9.33887e-07
-1.28775e-07
9.75117e-07
-1.25817e-07
1.01543e-06
-1.22932e-07
1.05485e-06
-1.20121e-07
1.0934e-06
-1.17384e-07
1.13109e-06
-1.1472e-07
1.16795e-06
-1.12129e-07
1.204e-06
-1.09608e-07
1.23926e-06
-1.07159e-07
1.27375e-06
-1.04779e-07
1.3075e-06
-1.02468e-07
1.34053e-06
-1.00227e-07
1.37286e-06
-9.80553e-08
1.40451e-06
-9.59524e-08
1.43551e-06
-9.39184e-08
1.46587e-06
-9.19533e-08
1.49562e-06
-9.00571e-08
1.52478e-06
-8.82298e-08
1.55338e-06
-8.64715e-08
1.58142e-06
-8.47819e-08
1.60895e-06
-8.31608e-08
1.63597e-06
-8.16074e-08
1.66251e-06
-8.01207e-08
1.68859e-06
-7.8699e-08
1.71424e-06
-7.73395e-08
1.73946e-06
-7.60386e-08
1.76427e-06
-7.47904e-08
1.78869e-06
-7.35873e-08
1.81274e-06
-7.24177e-08
1.83641e-06
-7.12662e-08
1.85971e-06
-7.0111e-08
1.88263e-06
-6.89223e-08
1.90515e-06
-6.76588e-08
1.92723e-06
-6.62631e-08
1.94882e-06
-6.4655e-08
1.96981e-06
-6.27216e-08
1.99009e-06
-6.02998e-08
2.00944e-06
-5.71492e-08
2.02758e-06
-5.29065e-08
2.04409e-06
-4.69809e-08
2.05834e-06
-3.84328e-08
2.06957e-06
-2.55023e-08
2.07692e-06
-5.34587e-09
2.08082e-06
2.7525e-08
8.54943e-08
2.08336e-06
9.39502e-08
-6.17387e-07
6.27079e-08
-5.15353e-07
1.42968e-08
-3.69868e-07
-4.27154e-08
-2.37129e-07
-1.12125e-07
-1.10401e-07
-1.97401e-07
1.19777e-08
-3.01529e-07
1.30286e-07
-4.26925e-07
2.44168e-07
-5.76165e-07
3.53363e-07
-7.52631e-07
4.57981e-07
-9.61084e-07
5.58605e-07
-1.20586e-06
6.56525e-07
-1.48579e-06
7.52954e-07
-1.79011e-06
8.46987e-07
-2.10012e-06
9.34284e-07
-2.39615e-06
1.00842e-06
-2.66369e-06
1.06361e-06
-2.89443e-06
1.09658e-06
-3.08511e-06
1.1068e-06
-3.23654e-06
1.09592e-06
-3.35305e-06
1.06699e-06
-3.44118e-06
1.0235e-06
-3.50805e-06
9.69204e-07
-3.5602e-06
9.07912e-07
-3.6031e-06
8.42838e-07
-3.64121e-06
7.76621e-07
-3.67777e-06
7.11376e-07
-3.71482e-06
6.48655e-07
-3.75336e-06
5.89463e-07
-3.79368e-06
5.34324e-07
-3.83558e-06
4.83393e-07
-3.87857e-06
4.36591e-07
-3.92201e-06
3.93686e-07
-3.96522e-06
3.54357e-07
-4.00754e-06
3.18242e-07
-4.04838e-06
2.8497e-07
-4.08723e-06
2.54184e-07
-4.12369e-06
2.25553e-07
-4.1574e-06
1.98776e-07
-4.18809e-06
1.73589e-07
-4.21554e-06
1.49762e-07
-4.23957e-06
1.27099e-07
-4.26002e-06
1.05434e-07
-4.27678e-06
8.46243e-08
-4.28973e-06
6.45507e-08
-4.2988e-06
4.51114e-08
-4.3039e-06
2.62202e-08
-4.30499e-06
7.80012e-09
-4.30203e-06
-1.02226e-08
-4.29507e-06
-2.79091e-08
-4.28416e-06
-4.52875e-08
-4.26937e-06
-6.23546e-08
-4.25072e-06
-7.90977e-08
-4.22828e-06
-9.55043e-08
-4.20209e-06
-1.11561e-07
-4.17223e-06
-1.27253e-07
-4.13875e-06
-1.42565e-07
-4.10175e-06
-1.57481e-07
-4.06132e-06
-1.71982e-07
-4.01754e-06
-1.86051e-07
-3.97052e-06
-1.9967e-07
-3.92036e-06
-2.12819e-07
-3.86718e-06
-2.2548e-07
-3.81109e-06
-2.37636e-07
-3.75221e-06
-2.49277e-07
-3.69068e-06
-2.60388e-07
-3.62661e-06
-2.70955e-07
-3.56014e-06
-2.80969e-07
-3.4914e-06
-2.90422e-07
-3.42053e-06
-2.99308e-07
-3.34765e-06
-3.07624e-07
-3.27291e-06
-3.15367e-07
-3.19645e-06
-3.22538e-07
-3.11839e-06
-3.29138e-07
-3.03889e-06
-3.35173e-07
-2.95806e-06
-3.40646e-07
-2.87604e-06
-3.45567e-07
-2.79296e-06
-3.49944e-07
-2.70896e-06
-3.53787e-07
-2.62416e-06
-3.5711e-07
-2.53868e-06
-3.59924e-07
-2.45264e-06
-3.62246e-07
-2.36617e-06
-3.6409e-07
-2.27936e-06
-3.65472e-07
-2.19235e-06
-3.66411e-07
-2.10522e-06
-3.66924e-07
-2.0181e-06
-3.67029e-07
-1.93107e-06
-3.66743e-07
-1.84425e-06
-3.66084e-07
-1.75772e-06
-3.65067e-07
-1.67158e-06
-3.63707e-07
-1.58593e-06
-3.62015e-07
-1.50083e-06
-3.59996e-07
-1.41637e-06
-3.57654e-07
-1.33258e-06
-3.54989e-07
-1.24951e-06
-3.52013e-07
-1.16719e-06
-3.48744e-07
-1.08565e-06
-3.45214e-07
-1.00496e-06
-3.41459e-07
-9.25149e-07
-3.37508e-07
-8.46283e-07
-3.33385e-07
-7.68401e-07
-3.29108e-07
-6.91542e-07
-3.24693e-07
-6.15739e-07
-3.20155e-07
-5.41021e-07
-3.15507e-07
-4.67413e-07
-3.1076e-07
-3.94937e-07
-3.05928e-07
-3.23611e-07
-3.01021e-07
-2.53449e-07
-2.96051e-07
-1.84461e-07
-2.91031e-07
-1.16655e-07
-2.8597e-07
-5.00415e-08
-2.80882e-07
1.53756e-08
-2.75778e-07
7.95912e-08