/*--------------------------------*- C++ -*----------------------------------*\
  =========                 |
  \\      /  F ield         | OpenFOAM: The Open Source CFD Toolbox
   \\    /   O peration     | Website:  https://openfoam.org
    \\  /    A nd           | Version:  8
     \\/     M anipulation  |
\*---------------------------------------------------------------------------*/
FoamFile
{
    version     2.0;
    format      ascii;
    class       volVectorField;
    location    "1600";
    object      wallShearStress;
}
// * * * * * * * * * * * * * * * * * * * * * * * * * * * * * * * * * * * * * //

dimensions      [0 2 -2 0 0 0 0];

internalField   uniform (0 0 0);

boundaryField
{
    inlet
    {
        type            calculated;
        value           uniform (0 0 0);
    }
    outlet
    {
        type            calculated;
        value           uniform (0 0 0);
    }
    upperWall
    {
        type            calculated;
        value           nonuniform List<vector> 
223
(
(-0.582193 -0.392359 0)
(-0.977814 -0.219377 0)
(-0.939335 -0.0567746 0)
(-0.81071 -0.00585788 0)
(-0.734594 0.00331366 0)
(-0.695452 0.00231537 0)
(-0.67094 0.000424077 0)
(-0.653508 -0.00144908 0)
(-0.640533 -0.00256382 0)
(-0.629819 -0.00218244 0)
(-0.620063 -0.00131141 0)
(-0.610955 -0.00108354 0)
(-0.603068 -0.00141058 0)
(-0.596128 -0.00113888 0)
(-0.590229 -0.000828766 0)
(-0.585438 -0.000755752 0)
(-0.580234 0.000753758 0)
(-0.574816 0.002749 0)
(-0.570786 0.00183735 0)
(-0.567966 0.00149055 4.23044e-22)
(-0.564783 0.00318187 0)
(-0.561363 0.00293715 0)
(-0.558327 0.00230469 0)
(-0.555556 0.0022221 4.46154e-22)
(-0.552844 0.00233298 0)
(-0.550125 0.00330497 0)
(-0.547032 0.00386686 0)
(-0.544025 0.0035881 -9.37904e-22)
(-0.541248 0.00309879 9.47549e-22)
(-0.538553 0.00299716 9.58455e-22)
(-0.535798 0.00267234 0)
(-0.533139 0.00233828 -9.79394e-22)
(-0.530509 0.00205427 0)
(-0.527888 0.00182862 1.00236e-21)
(-0.525259 0.00163864 1.01438e-21)
(-0.522618 0.00149377 -1.02691e-21)
(-0.519957 0.00137763 0)
(-0.517279 0.0012859 0)
(-0.51458 0.00121507 0)
(-0.511856 0.00116085 0)
(-0.509104 0.00111968 -1.09131e-21)
(-0.506321 0.00108891 0)
(-0.503506 0.00106667 0)
(-0.500655 0.0010515 1.1313e-21)
(-0.497766 0.0010422 0)
(-0.494835 0.0010379 1.15771e-21)
(-0.491858 0.00103766 -1.17067e-21)
(-0.488834 0.0010406 1.18339e-21)
(-0.485759 0.00104659 0)
(-0.482629 0.00105417 0)
(-0.479444 0.00106242 0)
(-0.476207 0.00107046 1.23085e-21)
(-0.472921 0.00107698 -1.24151e-21)
(-0.4696 0.00108214 0)
(-0.466257 0.00108708 0)
(-0.462908 0.00109219 0)
(-0.459564 0.00109668 0)
(-0.45623 0.00109934 0)
(-0.452906 0.00109939 0)
(-0.449588 0.00109692 0)
(-0.446269 0.00109262 0)
(-0.442937 0.00108742 1.29205e-21)
(-0.439583 0.00108261 -1.29183e-21)
(-0.436194 0.00107898 0)
(-0.43276 0.00107705 0)
(-0.42927 0.00107721 0)
(-0.425715 0.00107947 -1.27846e-21)
(-0.422088 0.00108365 0)
(-0.41838 0.0010895 0)
(-0.414587 0.00109664 0)
(-0.410704 0.00110472 0)
(-0.406727 0.00111326 0)
(-0.402655 0.0011217 -2.43456e-21)
(-0.398486 0.00112954 0)
(-0.394223 0.0011362 0)
(-0.389868 0.00114128 0)
(-0.385426 0.00114445 0)
(-0.380907 0.00114564 0)
(-0.376322 0.00114472 0)
(-0.371682 0.00114134 0)
(-0.367001 0.00113536 2.09555e-21)
(-0.362288 0.0011266 0)
(-0.357551 0.00111503 0)
(-0.352795 0.00110109 0)
(-0.348022 0.00108531 -1.83993e-21)
(-0.343231 0.00106812 0)
(-0.338423 0.00105028 -1.69051e-21)
(-0.333591 0.00103241 0)
(-0.328732 0.00101529 0)
(-0.323838 0.000999806 0)
(-0.319025 0.000992019 -1.35136e-21)
(-0.316385 0.00100113 0)
(-0.313661 0.00101502 1.18092e-21)
(-0.310856 0.0010297 1.09024e-21)
(-0.307976 0.00104286 0)
(-0.305031 0.00105378 8.96584e-22)
(-0.302034 0.00106243 0)
(-0.298997 0.00107019 0)
(-0.295936 0.00107629 0)
(-0.292863 0.00108643 -4.55228e-22)
(-0.289795 0.00109023 0)
(-0.28674 0.00110356 -2.05875e-22)
(-0.283715 0.00110576 7.39033e-23)
(-0.280726 0.00110879 0)
(-0.277795 0.00112393 0)
(-0.274919 0.00110171 0)
(-0.272106 0.00110726 0)
(-0.26937 0.00110724 0)
(-0.266683 0.0010927 0)
(-0.264086 0.000966562 0)
(-0.261519 0.000781908 1.15111e-21)
(-0.259181 0.00073877 0)
(-0.256793 0.000827302 0)
(-0.254754 0.000934209 0)
(-0.252655 0.000822483 0)
(-0.250696 0.000722723 0)
(-0.248669 0.000729825 0)
(-0.246723 0.000758055 0)
(-0.244691 0.000805131 0)
(-0.242923 0.000769552 0)
(-0.241127 0.000697391 0)
(-0.239337 0.000671213 0)
(-0.237356 0.00078771 0)
(-0.235469 0.000726236 7.17026e-21)
(-0.233907 0.000585291 0)
(-0.232218 0.000720447 0)
(-0.230592 0.000666984 0)
(-0.229103 0.00054307 -8.77798e-21)
(-0.227348 0.000607721 0)
(-0.225666 0.000767963 0)
(-0.224337 0.000765246 -1.00371e-20)
(-0.222791 0.0010298 0)
(-0.221543 0.00125965 1.08053e-20)
(-0.220084 0.000940216 0)
(-0.218921 0.0010084 0)
(-0.217922 0.00104953 0)
(-0.216981 0.000666722 -1.24627e-20)
(-0.215823 0.000393032 0)
(-0.21468 0.000270848 1.34069e-20)
(-0.213194 0.000586838 0)
(-0.212366 0.000858231 0)
(-0.21147 0.00073479 0)
(-0.210548 0.000439411 0)
(-0.209524 0.000405113 0)
(-0.208735 0.000647227 0)
(-0.207768 0.000600861 0)
(-0.207036 -3.68616e-05 0)
(-0.205736 -0.000511791 0)
(-0.20458 -0.00012955 0)
(-0.203604 1.18007e-05 0)
(-0.203032 0.000204397 1.84454e-20)
(-0.20232 0.000380669 -1.88661e-20)
(-0.201537 0.000581212 0)
(-0.20152 0.000874125 0)
(-0.200891 0.000815719 0)
(-0.200567 8.45375e-05 0)
(-0.199444 -0.000468639 -2.10554e-20)
(-0.198513 -0.000226132 2.14973e-20)
(-0.198236 -2.1884e-05 -2.17368e-20)
(-0.19757 8.60291e-05 0)
(-0.197029 0.000113433 -2.25851e-20)
(-0.196542 0.000230569 -4.59809e-20)
(-0.196049 0.000224156 0)
(-0.195932 0.000324338 -4.73056e-20)
(-0.195407 0.000529029 4.82711e-20)
(-0.194841 0.000681986 0)
(-0.194671 0.000345384 0)
(-0.193727 -0.000198855 0)
(-0.19325 -0.000105443 0)
(-0.19283 7.98902e-05 0)
(-0.192422 0.000207834 -5.36186e-20)
(-0.192123 0.000172978 0)
(-0.192032 0.000165197 -5.50621e-20)
(-0.191188 0.000251234 0)
(-0.190744 0.000327274 0)
(-0.190197 0.000363866 0)
(-0.189655 0.000598142 0)
(-0.188945 0.00076706 0)
(-0.188546 0.000633442 6.06597e-20)
(-0.188216 0.000538643 0)
(-0.188006 7.26328e-05 0)
(-0.186903 -0.000215245 -6.43357e-20)
(-0.185457 -1.4923e-05 0)
(-0.184725 0.000123527 0)
(-0.184036 0.000245891 0)
(-0.182634 0.000272301 6.9313e-20)
(-0.18168 0.000299284 0)
(-0.18047 0.000328729 0)
(-0.179232 0.000390628 0)
(-0.177098 0.000461175 0)
(-0.174978 0.000519054 -7.71646e-20)
(-0.172265 0.000599126 0)
(-0.16958 0.000664505 0)
(-0.16616 0.000871053 0)
(-0.161025 0.00113391 8.87884e-20)
(-0.153792 0.00132995 0)
(-0.147695 0.00228125 0)
(-0.122544 0.00235099 -1.08194e-19)
(-0.140576 0.00686899 0)
(-0.168964 0.0134739 1.24995e-17)
(-0.186418 0.0172479 2.35794e-17)
(-0.192937 0.0189437 2.27165e-17)
(-0.196901 0.019755 2.19037e-17)
(-0.200847 0.0203735 2.11754e-17)
(-0.20533 0.0210472 -2.02395e-17)
(-0.209567 0.0215403 -1.95274e-17)
(-0.213777 0.0218824 -1.80556e-35)
(-0.218033 0.0220252 -3.66624e-17)
(-0.220189 0.0221875 -1.80769e-17)
(-0.224673 0.0227258 7.22224e-34)
(-0.227509 0.0229082 -1.20371e-35)
(-0.231058 0.0233669 -3.22784e-17)
(-0.235346 0.0239379 -3.0685e-17)
(-0.242344 0.0247808 -2.84654e-17)
(-0.249522 0.0254457 -2.40741e-35)
(-0.256864 0.0260686 4.94034e-17)
(-0.263912 0.0266479 2.2646e-17)
(-0.272753 0.0274466 0)
(-0.282657 0.0283574 -3.48619e-17)
(-0.291216 0.0289995 -1.58066e-20)
(-0.300881 0.0295777 3.00927e-36)
(-0.304436 0.0304166 1.34852e-17)
(-0.332561 0.0321495 -7.62901e-18)
)
;
    }
    lowerWall
    {
        type            calculated;
        value           nonuniform List<vector> 
250
(
(-0.653909 0.466638 0)
(-1.14095 0.204678 0)
(-1.03492 0.0379587 0)
(-0.869573 -0.000935989 0)
(-0.786941 -0.00419162 0)
(-0.746063 -0.00160782 0)
(-0.719878 0.000416161 0)
(-0.700645 -0.000651817 0)
(-0.685088 -0.00405595 0)
(-0.671318 -0.00471223 0)
(-0.658933 -0.00298824 0)
(-0.64772 -0.000864269 0)
(-0.637516 0.00142603 0)
(-0.628189 0.00210385 0)
(-0.61932 0.00136789 0)
(-0.611521 0.00135746 0)
(-0.60458 0.00169585 0)
(-0.605069 0.00194279 0)
(-0.00426038 -0.0228581 0)
(-0.00275881 -0.0176428 0)
(-0.000676809 -0.0144936 0)
(0.00194478 -0.0137782 9.02206e-20)
(0.0052693 -0.0151989 -7.86138e-20)
(0.00896228 -0.0208219 6.28452e-20)
(0.012741 -0.0200883 -4.84706e-20)
(0.0256271 -0.0633167 0)
(-0.0840683 -0.144716 0)
(0.000872369 -0.00384027 0)
(-0.00766523 0.00954679 0)
(-0.008516 0.0328213 0)
(-0.00254934 0.044855 0)
(0.00295339 0.0442611 1.8222e-20)
(0.00618272 0.0360629 -1.89655e-20)
(0.00818721 0.024161 0)
(0.00946044 0.0101606 -5.42281e-20)
(0.00943162 -0.00404235 6.11425e-20)
(0.00793322 -0.0174223 0)
(0.00614117 -0.0291947 0)
(0.00438169 -0.0385621 0)
(0.0026872 -0.0451394 0)
(0.000986031 -0.0488793 0)
(-0.000885117 -0.0495145 0)
(-0.00282052 -0.0464084 0)
(-0.004379 -0.0399025 0)
(-0.00492613 -0.030827 0)
(0.00132861 -0.00151195 0)
(0.00133784 0.00652708 0)
(-0.0045092 0.00961842 0)
(-0.00959707 0.00975631 0)
(-0.013383 0.00829939 0)
(-0.0158892 0.00623509 0)
(-0.0172642 0.00409753 1.49571e-21)
(-0.0177828 0.00200601 -1.52732e-21)
(-0.0173313 -7.09633e-06 0)
(-0.0160537 -0.00168634 -1.65307e-21)
(-0.0141882 -0.00283761 0)
(-0.0120502 -0.00329647 0)
(-0.0100505 -0.00303586 -0)
(-0.00855291 -0.00228023 2.57028e-21)
(-0.0076163 -0.00142299 0)
(-0.00693807 -0.000815791 0)
(-0.0061206 -0.000623382 -3.37816e-21)
(-0.00499299 -0.00100043 0)
(-0.00340861 -0.00238591 0)
(-0.000488707 -0.00505753 0)
(0.00436064 -0.00740363 3.03307e-21)
(0.00994561 -0.00889515 0)
(0.0158466 -0.00984998 1.46913e-21)
(0.0218921 -0.0106169 0)
(0.0280977 -0.011269 -0)
(0.0344083 -0.0115144 8.4469e-22)
(0.0405407 -0.0113546 0)
(0.0491485 -0.0116033 -7.54035e-22)
(0.0589387 -0.0117553 -0)
(0.0686327 -0.0115827 7.70698e-22)
(0.0780417 -0.0111689 0)
(0.0870147 -0.0105841 0)
(0.0954592 -0.00989012 0)
(0.103317 -0.00913658 -0)
(0.110564 -0.00836071 0)
(0.117197 -0.00758954 -8.11153e-22)
(0.12323 -0.00684037 -0)
(0.128686 -0.00612264 1.63308e-21)
(0.133591 -0.00544045 0)
(0.137973 -0.00479416 -1.63496e-21)
(0.141859 -0.00418209 -0)
(0.145271 -0.00360149 -0)
(0.148232 -0.00304949 1.62105e-21)
(0.150758 -0.00252409 0)
(0.152864 -0.0020241 1.60084e-21)
(0.154561 -0.00155029 -1.58752e-21)
(0.155863 -0.00110625 -0)
(0.156782 -0.00069881 -1.55491e-21)
(0.157328 -0.000337865 -1.53588e-21)
(0.157514 -3.98313e-05 -0)
(0.157408 0.000194792 0)
(0.157077 0.000391512 0)
(0.156523 0.000568223 0)
(0.155761 0.000731132 -0)
(0.154801 0.000884187 1.37582e-21)
(0.153649 0.00102831 0)
(0.152312 0.00116399 -1.30703e-21)
(0.150799 0.00129164 -0)
(0.149116 0.0014113 -0)
(0.147271 0.00152286 1.19059e-21)
(0.145272 0.00162638 0)
(0.143126 0.00172188 -1.10489e-21)
(0.140842 0.0018093 -0)
(0.138429 0.00188858 0)
(0.135895 0.00195977 -0)
(0.13325 0.00202303 9.16867e-22)
(0.130501 0.00207837 0)
(0.127659 0.00212588 -0)
(0.124733 0.00216581 7.63828e-22)
(0.121732 0.00219827 0)
(0.118665 0.00222344 6.57299e-22)
(0.115541 0.00224163 0)
(0.11237 0.00225308 0)
(0.10916 0.00225802 0)
(0.105919 0.00225683 -4.36225e-22)
(0.102656 0.00224976 -0)
(0.09938 0.00223711 0)
(0.0960972 0.00221922 -2.65623e-22)
(0.092816 0.00219641 -2.08174e-22)
(0.089543 0.00216901 -0)
(0.0862855 0.00213738 -9.27041e-23)
(0.0830494 0.00210185 -0)
(0.0798411 0.00206279 4.65049e-23)
(0.0766658 0.00202065 -0)
(0.0735287 0.00197579 2.78918e-22)
(0.0704347 0.00192875 0)
(0.0673881 0.00188018 -5.11593e-22)
(0.0643923 0.0018308 -0)
(0.0614509 0.00178157 0)
(0.0585662 0.00173381 -0)
(0.0557402 0.00168921 9.78346e-22)
(0.0529744 0.00164991 0)
(0.050269 0.00161808 -1.21378e-21)
(0.047623 0.00159482 0)
(0.0457844 0.00160348 1.47553e-21)
(0.0442419 0.00162101 1.63403e-21)
(0.0427029 0.00162592 1.79895e-21)
(0.0411755 0.00161303 0)
(0.0396651 0.00158971 0)
(0.0381714 0.00156401 0)
(0.0366932 0.0015382 0)
(0.0352302 0.00151248 0)
(0.0337832 0.00148688 0)
(0.0323521 0.00146142 0)
(0.030938 0.00143616 0)
(0.029541 0.00141135 -3.69169e-21)
(0.0281616 0.00138715 -3.96734e-21)
(0.0268 0.00136371 0)
(0.0254561 0.00134072 0)
(0.0241307 0.00131669 0)
(0.0228247 0.00129178 -5.26728e-21)
(0.0215386 0.00126757 0)
(0.0202719 0.00124391 0)
(0.0190249 0.00122083 0)
(0.0177976 0.00119841 0)
(0.0165899 0.00117668 7.53591e-21)
(0.015402 0.00115572 0)
(0.0142339 0.00113564 0)
(0.0130853 0.00111652 -9.45476e-21)
(0.0119563 0.0010984 1.02323e-20)
(0.0108467 0.00108139 0)
(0.00975652 0.00106578 1.20687e-20)
(0.0086857 0.00105219 0)
(0.00763385 0.00104181 -1.44072e-20)
(0.00660026 0.00103493 0)
(0.00558464 0.00103052 0)
(0.00458693 0.00102831 0)
(0.00360668 0.0010286 0)
(0.00264346 0.00103164 0)
(0.00169774 0.00103736 5.57123e-20)
(0.000771007 0.00104295 6.42234e-20)
(-0.000138785 0.00103023 0)
(-0.00103605 0.000987395 0)
(-0.00191786 0.000935014 0)
(-0.00278417 0.000885528 -5.28862e-20)
(-0.00363486 0.000840614 0)
(-0.00446973 0.000799875 0)
(-0.0052892 0.00076282 0)
(-0.00609384 0.000728949 -4.04141e-20)
(-0.00688418 0.000697805 3.83644e-20)
(-0.00766072 0.000669013 0)
(-0.00842395 0.000642269 0)
(-0.00917432 0.000617325 3.3617e-20)
(-0.00991227 0.000593982 3.2377e-20)
(-0.0106382 0.000572073 0)
(-0.0113526 0.000551467 0)
(-0.0120558 0.000532053 -2.9352e-20)
(-0.0127482 0.000513732 2.85244e-20)
(-0.0134304 0.00049642 0)
(-0.0141027 0.000480053 0)
(-0.0147655 0.000464567 2.64351e-20)
(-0.0154193 0.000449906 0)
(-0.0160646 0.00043603 0)
(-0.0167018 0.000422894 2.479e-20)
(-0.0173313 0.00041046 0)
(-0.0179536 0.000398695 2.38741e-20)
(-0.0185692 0.000387573 0)
(-0.0191785 0.000377053 0)
(-0.019782 0.000367114 0)
(-0.0203802 0.00035772 -2.23585e-20)
(-0.0209734 0.000348841 0)
(-0.0215623 0.000340427 0)
(-0.0221469 0.000332432 0)
(-0.0227278 0.000324785 0)
(-0.023305 0.000317424 0)
(-0.0238788 0.000310216 0)
(-0.0244487 0.000303019 -2.03856e-20)
(-0.0250147 0.000295657 -2.01553e-20)
(-0.0255757 0.000287835 0)
(-0.0261306 0.00027917 0)
(-0.0266768 0.000269121 0)
(-0.027211 0.000256988 1.93606e-20)
(-0.0277283 0.000241515 0)
(-0.0282201 0.000221277 -3.81352e-20)
(-0.028677 0.000192228 3.7929e-20)
(-0.0290699 0.000152607 3.78199e-20)
(-0.0294012 7.78774e-05 -3.78585e-20)
(-0.0294829 -3.94087e-05 3.80454e-20)
(-0.0295074 -0.000356568 -3.83978e-20)
(-0.0279728 -0.00061687 0)
(-0.0293455 -0.000516195 -2.43317e-18)
(-0.032769 -0.00134237 -2.26976e-18)
(-0.0364126 -0.00203334 0)
(-0.0395332 -0.00257599 -4.06085e-18)
(-0.0424834 -0.00301853 -7.75773e-18)
(-0.0455556 -0.00342154 -3.71955e-18)
(-0.0487793 -0.00381884 3.56801e-18)
(-0.052114 -0.00429949 -7.22224e-35)
(-0.0555996 -0.00475699 0)
(-0.0592931 -0.00507333 3.15025e-18)
(-0.0632326 -0.00539678 3.02991e-18)
(-0.067423 -0.00581866 3.00927e-36)
(-0.0719136 -0.00626993 0)
(-0.0767342 -0.00671435 0)
(-0.0819298 -0.00720132 -5.18628e-35)
(-0.0875489 -0.00774185 4.5139e-35)
(-0.0936651 -0.00834273 7.52316e-35)
(-0.100334 -0.00900682 -4.15791e-18)
(-0.107696 -0.00972828 -3.81218e-18)
(-0.116757 -0.0106221 6.01853e-36)
(-0.127572 -0.011626 6.1366e-18)
(-0.138426 -0.0127332 1.03489e-17)
(-0.15365 -0.0139267 6.01853e-36)
(-0.162849 -0.0152938 -5.09781e-18)
(-0.191963 -0.0169816 1.50463e-35)
)
;
    }
    frontAndBack
    {
        type            empty;
    }
}


// ************************************************************************* //
