/*--------------------------------*- C++ -*----------------------------------*\
  =========                 |
  \\      /  F ield         | OpenFOAM: The Open Source CFD Toolbox
   \\    /   O peration     | Website:  https://openfoam.org
    \\  /    A nd           | Version:  8
     \\/     M anipulation  |
\*---------------------------------------------------------------------------*/
FoamFile
{
    version     2.0;
    format      ascii;
    class       volVectorField;
    location    "1600";
    object      wallShearStress;
}
// * * * * * * * * * * * * * * * * * * * * * * * * * * * * * * * * * * * * * //

dimensions      [0 2 -2 0 0 0 0];

internalField   uniform (0 0 0);

boundaryField
{
    inlet
    {
        type            calculated;
        value           uniform (0 0 0);
    }
    outlet
    {
        type            calculated;
        value           uniform (0 0 0);
    }
    upperWall
    {
        type            calculated;
        value           nonuniform List<vector> 
223
(
(-0.582193 -0.392359 0)
(-0.977814 -0.219377 0)
(-0.939335 -0.0567745 0)
(-0.81071 -0.00585778 0)
(-0.734593 0.00331375 0)
(-0.695451 0.00231586 0)
(-0.670933 0.000424362 0)
(-0.653501 -0.00144968 0)
(-0.640532 -0.00256319 0)
(-0.629823 -0.00218575 0)
(-0.620065 -0.00130404 0)
(-0.611001 -0.00107912 0)
(-0.603028 -0.0013675 0)
(-0.596148 -0.00130732 0)
(-0.590387 -0.00129632 0)
(-0.585464 -0.000694572 0)
(-0.580103 0.00106332 0)
(-0.574719 0.00180529 0)
(-0.570636 0.00256708 0)
(-0.567489 0.00273559 4.25351e-22)
(-0.564607 0.00185457 0)
(-0.562232 0.00277613 0)
(-0.55921 0.00372337 0)
(-0.556139 0.0040258 4.49604e-22)
(-0.553074 0.00408968 0)
(-0.55005 0.00361354 0)
(-0.547104 0.00319055 0)
(-0.544247 0.00284807 -9.3329e-22)
(-0.541493 0.0023286 9.43295e-22)
(-0.53884 0.00233408 9.55032e-22)
(-0.53608 0.00217181 0)
(-0.533384 0.00196461 -9.76876e-22)
(-0.530721 0.00176758 0)
(-0.528071 0.00160591 9.99502e-22)
(-0.525411 0.00146903 1.01137e-21)
(-0.522739 0.001362 -1.02384e-21)
(-0.520052 0.00127374 0)
(-0.517352 0.00120307 0)
(-0.514636 0.00114831 0)
(-0.511898 0.00110652 0)
(-0.509136 0.00107514 -1.09014e-21)
(-0.506346 0.00105222 0)
(-0.503524 0.00103619 0)
(-0.500668 0.0010259 1.1307e-21)
(-0.497775 0.00102051 0)
(-0.494841 0.00101922 1.15719e-21)
(-0.491862 0.00102144 -1.17018e-21)
(-0.488836 0.00102659 1.18294e-21)
(-0.48576 0.00103419 0)
(-0.482629 0.00104334 0)
(-0.479444 0.00105302 0)
(-0.476205 0.00106209 1.23054e-21)
(-0.47292 0.00106961 -1.24123e-21)
(-0.469598 0.00107572 0)
(-0.466256 0.00108143 0)
(-0.462907 0.00108721 0)
(-0.459563 0.00109237 0)
(-0.456229 0.00109568 0)
(-0.452905 0.00109628 0)
(-0.449587 0.00109431 0)
(-0.446268 0.00109044 0)
(-0.442936 0.00108563 1.29191e-21)
(-0.439582 0.00108117 -1.29171e-21)
(-0.436193 0.00107785 0)
(-0.432759 0.00107619 0)
(-0.429269 0.00107658 0)
(-0.425715 0.00107903 -1.2784e-21)
(-0.422087 0.00108337 0)
(-0.418379 0.00108936 0)
(-0.414586 0.00109666 0)
(-0.410702 0.00110478 0)
(-0.406726 0.00111334 0)
(-0.402654 0.00112187 -2.43452e-21)
(-0.398485 0.00112975 0)
(-0.394222 0.00113646 0)
(-0.389867 0.00114149 0)
(-0.385425 0.00114465 0)
(-0.380906 0.00114582 0)
(-0.376321 0.00114484 0)
(-0.371681 0.00114152 0)
(-0.367 0.00113551 2.09547e-21)
(-0.362287 0.00112664 0)
(-0.35755 0.00111508 0)
(-0.352794 0.00110112 0)
(-0.348021 0.00108528 -1.8398e-21)
(-0.343231 0.00106815 0)
(-0.338421 0.00105026 -1.69036e-21)
(-0.33359 0.00103234 0)
(-0.328731 0.00101528 0)
(-0.323836 0.000999752 0)
(-0.319025 0.000991963 -1.35113e-21)
(-0.316384 0.00100111 0)
(-0.31366 0.00101496 1.18063e-21)
(-0.310855 0.00102964 1.08994e-21)
(-0.307975 0.00104281 0)
(-0.30503 0.00105373 8.96223e-22)
(-0.302033 0.00106242 0)
(-0.298996 0.00107005 0)
(-0.295935 0.00107657 0)
(-0.292862 0.0010857 -4.54739e-22)
(-0.289794 0.0010916 0)
(-0.28674 0.00110503 -2.053e-22)
(-0.283714 0.00110616 7.32603e-23)
(-0.280724 0.0011114 0)
(-0.277792 0.00110666 0)
(-0.274906 0.00110291 0)
(-0.272102 0.00110435 0)
(-0.269362 0.00109074 0)
(-0.266714 0.00109945 0)
(-0.264184 0.00123611 0)
(-0.261764 0.00116944 1.14389e-21)
(-0.259341 0.00135696 0)
(-0.257153 0.0014611 0)
(-0.254985 0.000749685 0)
(-0.252659 0.000325396 0)
(-0.250509 0.000363061 0)
(-0.248456 0.000530619 0)
(-0.246435 0.000614038 0)
(-0.244523 0.000659273 0)
(-0.242598 0.000752127 0)
(-0.240737 0.000625376 0)
(-0.23876 0.000519831 0)
(-0.236919 0.000640844 0)
(-0.235115 0.000715427 7.19715e-21)
(-0.2336 0.000611206 0)
(-0.232017 0.000583099 0)
(-0.230438 0.0006503 0)
(-0.228722 0.000638912 -8.80565e-21)
(-0.227438 0.000682604 0)
(-0.225783 0.000697507 0)
(-0.22417 0.00061446 -1.00518e-20)
(-0.22303 0.000593041 0)
(-0.221506 0.000571326 1.08987e-20)
(-0.220189 0.000587111 0)
(-0.218826 0.000625489 0)
(-0.217374 0.000565753 0)
(-0.216067 0.000422309 -1.25843e-20)
(-0.215098 0.000404984 0)
(-0.213832 0.000607879 1.34246e-20)
(-0.212573 0.000530044 0)
(-0.211762 0.000405423 0)
(-0.210676 0.000464013 0)
(-0.209464 0.00046888 0)
(-0.208584 0.000466691 0)
(-0.20771 0.000409674 0)
(-0.206794 0.000518841 0)
(-0.205958 0.000521135 0)
(-0.205355 0.000448109 0)
(-0.204622 0.000883997 0)
(-0.203867 0.000853371 0)
(-0.203303 0.000747159 1.83739e-20)
(-0.202455 0.0009387 -1.88313e-20)
(-0.202021 0.000163742 0)
(-0.201074 -0.000331686 0)
(-0.200154 -7.27388e-05 0)
(-0.199594 2.98398e-05 0)
(-0.198819 8.52306e-05 -2.10255e-20)
(-0.198035 0.000215037 2.14569e-20)
(-0.197788 0.000267357 -2.17433e-20)
(-0.197428 0.000339235 0)
(-0.196857 0.000713507 -2.25475e-20)
(-0.196436 0.000847994 -4.58783e-20)
(-0.196221 0.00063885 0)
(-0.19634 0.000515994 -4.71757e-20)
(-0.196043 0.000293781 4.8136e-20)
(-0.19543 0.000302209 0)
(-0.195183 0.000432795 0)
(-0.194868 0.000365788 0)
(-0.194153 0.000289909 0)
(-0.193883 9.62687e-05 0)
(-0.193425 0.000195344 -5.33238e-20)
(-0.193174 0.000344207 0)
(-0.193031 0.000172402 -5.46746e-20)
(-0.192204 0.000244575 0)
(-0.191922 0.000305547 0)
(-0.191721 0.000256356 0)
(-0.190826 -0.000129317 0)
(-0.189555 -0.000416952 0)
(-0.188515 -0.000176746 6.13097e-20)
(-0.18804 -1.45151e-05 0)
(-0.187315 9.73367e-05 0)
(-0.186504 0.000119965 -6.41527e-20)
(-0.185835 0.00020344 0)
(-0.184743 0.00028062 0)
(-0.184146 0.000266451 0)
(-0.183399 0.000331637 6.86454e-20)
(-0.181781 0.000382979 0)
(-0.18028 0.000389766 0)
(-0.17855 0.000471257 0)
(-0.177067 0.000622583 0)
(-0.175115 0.000839117 -7.68333e-20)
(-0.172697 0.00099272 0)
(-0.170389 0.00103098 0)
(-0.166487 0.000976786 0)
(-0.162406 0.00104684 8.776e-20)
(-0.155784 0.00140032 0)
(-0.148871 0.00232988 0)
(-0.123898 0.00224975 -1.07676e-19)
(-0.141634 0.00668638 6.01853e-36)
(-0.169714 0.0132166 1.25359e-17)
(-0.186972 0.0170672 2.35845e-17)
(-0.193492 0.0188591 2.2707e-17)
(-0.196922 0.0196782 2.19994e-17)
(-0.201027 0.0203145 2.11623e-17)
(-0.205543 0.0210125 -2.02463e-17)
(-0.209782 0.0214962 -1.95198e-17)
(-0.214035 0.021858 -6.01853e-36)
(-0.217619 0.0219855 -3.68351e-17)
(-0.219902 0.0221729 -1.80898e-17)
(-0.224562 0.0227129 1.02315e-33)
(-0.227453 0.0229054 -1.20371e-35)
(-0.23107 0.0233669 -3.22708e-17)
(-0.235467 0.0239527 -3.06557e-17)
(-0.242447 0.0247991 -2.8464e-17)
(-0.249632 0.0254575 -2.40741e-35)
(-0.256938 0.0260739 4.94007e-17)
(-0.263956 0.0266503 2.26457e-17)
(-0.272781 0.0274479 2.40741e-35)
(-0.282674 0.0283576 -3.48603e-17)
(-0.291234 0.0290025 -1.58565e-20)
(-0.300803 0.0295578 -3.00927e-36)
(-0.305385 0.0305121 1.34121e-17)
(-0.332969 0.0322001 -7.62501e-18)
)
;
    }
    lowerWall
    {
        type            calculated;
        value           nonuniform List<vector> 
250
(
(-0.653909 0.466638 0)
(-1.14095 0.204678 0)
(-1.03492 0.0379587 0)
(-0.869573 -0.000935938 0)
(-0.786941 -0.00419156 0)
(-0.746063 -0.00160775 0)
(-0.719879 0.000416318 0)
(-0.700647 -0.00065162 0)
(-0.685091 -0.00405581 0)
(-0.67132 -0.00471209 0)
(-0.658936 -0.00298807 0)
(-0.647724 -0.000864057 0)
(-0.637522 0.00142649 0)
(-0.628199 0.00210456 0)
(-0.619335 0.00136856 0)
(-0.61154 0.00135982 0)
(-0.604618 0.00169638 0)
(-0.605084 0.00196088 0)
(-0.00423817 -0.0229279 0)
(-0.00277706 -0.0177654 0)
(-0.000720427 -0.0145868 0)
(0.00189183 -0.0138599 9.00052e-20)
(0.00521469 -0.0152389 -7.85315e-20)
(0.00890409 -0.0208386 6.28327e-20)
(0.0126738 -0.0200195 -4.84933e-20)
(0.0256473 -0.0632513 0)
(-0.0838848 -0.144686 0)
(0.000880964 -0.0038455 0)
(-0.00766481 0.00953189 0)
(-0.00852264 0.0328187 0)
(-0.00255776 0.0448694 0)
(0.00294786 0.0442901 1.82185e-20)
(0.00617892 0.0360977 -1.89578e-20)
(0.00818371 0.0242008 0)
(0.00945721 0.0102022 -5.41623e-20)
(0.00943184 -0.00400138 6.11395e-20)
(0.00793608 -0.0173824 0)
(0.00614425 -0.0291572 0)
(0.00438451 -0.0385285 0)
(0.00268974 -0.0451099 0)
(0.000988874 -0.048854 0)
(-0.000882174 -0.0494956 0)
(-0.00281711 -0.0463959 0)
(-0.00437471 -0.0399043 0)
(-0.00490474 -0.0308412 0)
(0.00132973 -0.00151706 0)
(0.00134194 0.00652782 0)
(-0.00450645 0.00962158 0)
(-0.00959634 0.00976129 0)
(-0.0133848 0.00830505 0)
(-0.0158936 0.00624076 0)
(-0.017271 0.00410268 1.49511e-21)
(-0.0177916 0.00201057 -1.52656e-21)
(-0.0173422 -3.29951e-06 0)
(-0.0160662 -0.0016842 -1.65214e-21)
(-0.0142012 -0.00283794 0)
(-0.012062 -0.00329963 0)
(-0.0100592 -0.003041 -0)
(-0.00855784 -0.00228509 2.56931e-21)
(-0.00761904 -0.00142476 0)
(-0.00694137 -0.00081215 0)
(-0.00612662 -0.000612465 -3.37547e-21)
(-0.0050031 -0.000979741 0)
(-0.00343035 -0.00235084 0)
(-0.000536229 -0.00503696 0)
(0.00432478 -0.0073998 3.047e-21)
(0.00991151 -0.00889251 0)
(0.0158136 -0.00985138 1.47127e-21)
(0.0218624 -0.0106158 0)
(0.0280673 -0.0112688 -0)
(0.0343795 -0.0115164 8.45092e-22)
(0.0405145 -0.0113576 0)
(0.0491072 -0.0116035 -7.53978e-22)
(0.0588988 -0.0117569 -0)
(0.0685952 -0.0115853 7.70637e-22)
(0.078007 -0.0111723 0)
(0.0869831 -0.0105877 0)
(0.0954307 -0.00989381 0)
(0.103292 -0.00914019 -0)
(0.110541 -0.00836409 0)
(0.117177 -0.00759272 -8.11114e-22)
(0.123213 -0.00684315 -0)
(0.128671 -0.00612509 1.63302e-21)
(0.133578 -0.00544264 0)
(0.137962 -0.004796 -1.6349e-21)
(0.141849 -0.00418362 -0)
(0.145263 -0.00360286 -0)
(0.148225 -0.00305073 1.62101e-21)
(0.150751 -0.00252514 0)
(0.152858 -0.00202496 1.60079e-21)
(0.154557 -0.00155105 -1.58749e-21)
(0.155859 -0.00110692 -0)
(0.156778 -0.000699325 -1.55487e-21)
(0.157325 -0.000338287 -1.53584e-21)
(0.157511 -4.00938e-05 -0)
(0.157406 0.00019459 0)
(0.157074 0.000391335 0)
(0.15652 0.000568067 0)
(0.155759 0.000730994 -0)
(0.154799 0.00088413 1.37579e-21)
(0.153647 0.00102826 0)
(0.152311 0.00116396 -1.30701e-21)
(0.150798 0.00129162 -0)
(0.149115 0.00141122 -0)
(0.14727 0.00152279 1.19056e-21)
(0.145271 0.00162646 0)
(0.143125 0.00172191 -1.10486e-21)
(0.140841 0.00180928 -0)
(0.138428 0.00188864 0)
(0.135894 0.00195985 -0)
(0.133249 0.00202314 9.16839e-22)
(0.1305 0.0020785 0)
(0.127658 0.00212605 -0)
(0.124732 0.002166 7.63797e-22)
(0.121731 0.00219844 0)
(0.118664 0.00222364 6.57263e-22)
(0.115541 0.00224194 0)
(0.112369 0.0022534 0)
(0.109159 0.00225826 0)
(0.105918 0.00225704 -4.36184e-22)
(0.102656 0.0022499 -0)
(0.0993792 0.00223717 0)
(0.0960964 0.00221918 -2.65585e-22)
(0.0928151 0.00219622 -2.08137e-22)
(0.0895425 0.00216878 -0)
(0.0862848 0.00213709 -9.26706e-23)
(0.083049 0.00210149 -0)
(0.0798407 0.00206248 4.65674e-23)
(0.0766654 0.00202034 -0)
(0.0735286 0.00197553 2.7898e-22)
(0.0704346 0.00192862 0)
(0.0673878 0.0018801 -5.11661e-22)
(0.064392 0.00183072 -0)
(0.0614506 0.00178151 0)
(0.0585659 0.00173373 -0)
(0.0557401 0.00168918 9.78424e-22)
(0.0529741 0.00164993 0)
(0.0502688 0.00161807 -1.21386e-21)
(0.0476228 0.00159479 0)
(0.0457844 0.00160346 1.47562e-21)
(0.0442419 0.00162102 1.63413e-21)
(0.0427029 0.00162593 1.79905e-21)
(0.0411755 0.00161305 0)
(0.0396651 0.00158973 0)
(0.0381714 0.00156403 0)
(0.0366932 0.00153823 0)
(0.0352302 0.00151251 0)
(0.0337832 0.00148692 0)
(0.0323521 0.00146146 0)
(0.030938 0.00143621 0)
(0.029541 0.00141139 -3.69183e-21)
(0.0281616 0.0013872 -3.96747e-21)
(0.0268 0.00136377 0)
(0.0254561 0.00134079 0)
(0.0241307 0.00131675 0)
(0.0228247 0.00129188 -5.26745e-21)
(0.0215385 0.00126765 0)
(0.0202719 0.00124398 0)
(0.0190248 0.00122093 0)
(0.0177974 0.00119851 0)
(0.0165898 0.00117678 7.53612e-21)
(0.0154019 0.00115583 0)
(0.0142337 0.00113575 0)
(0.0130851 0.00111663 -9.45505e-21)
(0.011956 0.00109853 1.02327e-20)
(0.0108463 0.00108152 0)
(0.00975614 0.0010659 1.20692e-20)
(0.00868527 0.00105232 0)
(0.00763336 0.00104195 -1.44078e-20)
(0.00659974 0.00103507 0)
(0.00558406 0.00103067 0)
(0.00458629 0.00102846 0)
(0.00360599 0.00102875 0)
(0.00264272 0.00103179 0)
(0.00169695 0.00103752 5.57176e-20)
(0.000770177 0.00104311 6.42307e-20)
(-0.000139657 0.00103036 0)
(-0.00103698 0.000987495 0)
(-0.00191884 0.000935104 0)
(-0.00278521 0.000885608 -5.28799e-20)
(-0.00363594 0.000840686 0)
(-0.00447088 0.000799936 0)
(-0.00529039 0.000762869 0)
(-0.00609505 0.00072899 -4.04104e-20)
(-0.00688543 0.000697845 3.83608e-20)
(-0.00766203 0.000669045 0)
(-0.0084253 0.000642288 0)
(-0.00917572 0.000617334 3.36144e-20)
(-0.00991368 0.000593979 3.23746e-20)
(-0.0106396 0.000572062 0)
(-0.011354 0.000551451 0)
(-0.0120572 0.00053203 -2.93502e-20)
(-0.0127496 0.000513699 2.85228e-20)
(-0.0134318 0.000496387 0)
(-0.014104 0.000480017 0)
(-0.0147668 0.000464526 2.64337e-20)
(-0.0154206 0.000449865 0)
(-0.0160659 0.000435988 0)
(-0.016703 0.000422853 2.4789e-20)
(-0.0173325 0.000410419 0)
(-0.0179548 0.000398656 2.38732e-20)
(-0.0185703 0.000387532 0)
(-0.0191796 0.000377017 0)
(-0.0197831 0.000367078 0)
(-0.0203813 0.000357677 -2.23579e-20)
(-0.0209745 0.000348803 0)
(-0.0215633 0.000340397 0)
(-0.0221479 0.000332403 0)
(-0.0227289 0.000324756 0)
(-0.023306 0.000317395 0)
(-0.0238798 0.000310187 0)
(-0.0244497 0.00030299 -2.03853e-20)
(-0.0250157 0.00029563 -2.01551e-20)
(-0.0255768 0.000287791 0)
(-0.0261314 0.000279128 0)
(-0.0266776 0.000269096 0)
(-0.0272118 0.000256965 1.93604e-20)
(-0.0277291 0.000241493 0)
(-0.0282209 0.000221241 -3.81348e-20)
(-0.0286776 0.000192193 3.79286e-20)
(-0.0290705 0.00015259 3.78195e-20)
(-0.0294018 7.78447e-05 -3.7858e-20)
(-0.0294833 -3.94417e-05 3.8045e-20)
(-0.0295078 -0.000356585 -3.83974e-20)
(-0.0279732 -0.000616884 0)
(-0.0293459 -0.000516206 -2.43315e-18)
(-0.0327695 -0.00134239 -2.26974e-18)
(-0.036413 -0.00203335 -3.00927e-36)
(-0.0395336 -0.00257605 -4.06082e-18)
(-0.0424836 -0.00301856 -7.75773e-18)
(-0.045556 -0.00342171 -3.71953e-18)
(-0.0487804 -0.00381819 3.56822e-18)
(-0.0521105 -0.00430655 -6.01853e-35)
(-0.0556008 -0.00472093 0)
(-0.0593099 -0.00503536 3.1503e-18)
(-0.0632245 -0.0054295 3.03377e-18)
(-0.0674241 -0.00582696 3.00927e-36)
(-0.0719105 -0.0062367 0)
(-0.0767239 -0.00669887 0)
(-0.081914 -0.00720456 1.07675e-35)
(-0.0875332 -0.00775128 9.65786e-35)
(-0.0936517 -0.00835281 1.89584e-34)
(-0.100323 -0.00901576 -4.15815e-18)
(-0.107687 -0.00973571 -3.81219e-18)
(-0.116746 -0.0106274 6.01853e-36)
(-0.127564 -0.0116301 6.13655e-18)
(-0.138419 -0.0127362 1.0349e-17)
(-0.153644 -0.013929 -6.01853e-36)
(-0.162844 -0.0152955 -5.09792e-18)
(-0.191959 -0.0169829 -1.50463e-35)
)
;
    }
    frontAndBack
    {
        type            empty;
    }
}


// ************************************************************************* //
