/*--------------------------------*- C++ -*----------------------------------*\
  =========                 |
  \\      /  F ield         | OpenFOAM: The Open Source CFD Toolbox
   \\    /   O peration     | Website:  https://openfoam.org
    \\  /    A nd           | Version:  8
     \\/     M anipulation  |
\*---------------------------------------------------------------------------*/
FoamFile
{
    version     2.0;
    format      ascii;
    class       volScalarField;
    location    "2400";
    object      nut;
}
// * * * * * * * * * * * * * * * * * * * * * * * * * * * * * * * * * * * * * //

dimensions      [0 2 -1 0 0 0 0];

internalField   nonuniform List<scalar> 
12225
(
0.0122671
0.00158819
0.000666129
0.000410105
0.000294025
0.00022806
0.000183261
0.000170805
0.000132697
0.000106844
9.46735e-05
8.80085e-05
7.89856e-05
7.2233e-05
6.77318e-05
6.4507e-05
6.12103e-05
6.46337e-05
0.0323823
0.00744532
0.00330638
0.00204329
0.00146801
0.0011445
0.000936338
0.000799975
0.000679511
0.000577234
0.000506286
0.000452432
0.00041054
0.000378806
0.000350182
0.000327767
0.000311172
0.000292818
0.0490123
0.01515
0.00728196
0.00457854
0.00330639
0.00258054
0.00211233
0.00178913
0.00154181
0.00134762
0.00119772
0.0010787
0.000982056
0.000902481
0.000835978
0.000780909
0.000735546
0.00068717
0.063054
0.0237783
0.0122894
0.00788814
0.00573397
0.00448498
0.00367412
0.00310733
0.00268471
0.00235805
0.00210111
0.00189458
0.00172531
0.00158451
0.00146613
0.00136604
0.00128146
0.00119789
0.074932
0.0328517
0.0181452
0.0119262
0.00874548
0.00686412
0.0056308
0.00476254
0.00411748
0.00362029
0.00322731
0.00290992
0.00264899
0.00243143
0.00224799
0.00209188
0.00195826
0.00183626
0.0849536
0.0420208
0.0246655
0.0166359
0.0123325
0.00972587
0.00799539
0.00676785
0.00585345
0.00514769
0.00458844
0.00413587
0.00376334
0.00345239
0.00318983
0.00296596
0.0027736
0.00260471
0.0933822
0.0510219
0.0316642
0.0219415
0.016474
0.0130717
0.0107778
0.00913551
0.0079057
0.0069534
0.0061969
0.00558367
0.00507837
0.00465632
0.00429976
0.00399561
0.00373414
0.00350818
0.0993794
0.0583363
0.0378386
0.0268568
0.0204171
0.0163053
0.0134891
0.011453
0.00991891
0.00872629
0.00777635
0.00700497
0.00636866
0.00583685
0.0053874
0.00500398
0.00467452
0.00439126
0.104023
0.0645454
0.0433804
0.0314239
0.0241571
0.0194092
0.0161097
0.0137018
0.0118766
0.0104521
0.00931443
0.00838904
0.00762485
0.00698574
0.00644544
0.00598449
0.00558858
0.00524877
0.108368
0.0708939
0.0493756
0.0365496
0.0284517
0.0230231
0.0191863
0.0163547
0.0141926
0.0124968
0.011138
0.0100303
0.00911434
0.00834759
0.0076991
0.00714579
0.00667068
0.00626297
0.112368
0.0772557
0.0557282
0.0421918
0.0332976
0.0271652
0.0227467
0.0194432
0.0168984
0.0148903
0.0132749
0.0119544
0.0108605
0.00994379
0.00916796
0.00850586
0.00793736
0.00744915
0.115994
0.0834975
0.0623053
0.0482611
0.0386474
0.0318167
0.026789
0.0229739
0.0200046
0.0176452
0.0157378
0.0141736
0.0128749
0.011785
0.0108618
0.0100736
0.00939671
0.00881464
0.119234
0.0894856
0.0689377
0.0546109
0.0443919
0.0369007
0.0312597
0.0269088
0.0234836
0.02074
0.0185096
0.0166735
0.0151449
0.01386
0.0127704
0.0118396
0.0110397
0.0103508
0.122086
0.095084
0.075415
0.0610223
0.0503361
0.0422534
0.0360231
0.0311353
0.0272402
0.024093
0.021519
0.0193909
0.017614
0.0161174
0.0148466
0.01376
0.0128257
0.0120196
0.124546
0.100135
0.0814619
0.0671725
0.056158
0.047577
0.0408126
0.0354174
0.031066
0.0275196
0.0246012
0.0221777
0.0201481
0.0184349
0.0169782
0.0157314
0.0146583
0.0137311
0.126578
0.104396
0.0866605
0.0725515
0.0613228
0.0523526
0.0451453
0.0393148
0.0345631
0.0306611
0.0274325
0.0247409
0.0224806
0.020569
0.0189413
0.0175468
0.0163454
0.0153061
0.128011
0.107322
0.0902141
0.0762353
0.0648743
0.0556509
0.0481493
0.0420254
0.0370012
0.0328553
0.0294126
0.0265352
0.0241143
0.0220643
0.0203172
0.0188191
0.0175275
0.0164083
0.128006
0.107313
0.0902048
0.0762269
0.0648674
0.0556454
0.048145
0.0420222
0.0369988
0.0328537
0.0294117
0.0265349
0.0241147
0.0220652
0.0203185
0.0188206
0.0175287
0.0164083
0.126509
0.104255
0.0864922
0.0723807
0.0611613
0.052205
0.0450128
0.0391967
0.0344584
0.0305686
0.0273506
0.0246684
0.0224163
0.0205118
0.0188903
0.0175006
0.0163024
0.0152631
0.124267
0.0995604
0.0807712
0.0664676
0.0554886
0.0469631
0.0402594
0.0349228
0.0306248
0.0271258
0.0242488
0.0218611
0.0198626
0.0181762
0.0167426
0.0155152
0.0144575
0.0135405
0.12136
0.0936399
0.0737261
0.0593348
0.0487592
0.0408249
0.0347467
0.0300003
0.0262308
0.0231928
0.0207127
0.018665
0.0169572
0.0155198
0.0142999
0.0132567
0.0123583
0.0115798
0.117686
0.0865903
0.0656967
0.0514791
0.0415374
0.0343608
0.0290184
0.0249322
0.0217348
0.0191848
0.0171184
0.0154211
0.0140106
0.0128263
0.0118229
0.0109657
0.010228
0.00958895
0.11305
0.0784122
0.056921
0.0432687
0.0342296
0.0279652
0.0234365
0.0200435
0.0174263
0.0153597
0.0136966
0.0123369
0.0112106
0.010267
0.00946866
0.00878719
0.00820101
0.00769346
0.107169
0.0691009
0.0476372
0.035029
0.0271566
0.021922
0.0182437
0.0155401
0.0134817
0.0118706
0.0105816
0.00953197
0.00866487
0.00793965
0.0073267
0.00680377
0.00635411
0.00596494
0.0996761
0.0587036
0.0381279
0.0270699
0.0205782
0.016433
0.0135949
0.0115438
0.00999923
0.00879908
0.00784341
0.00706755
0.00642793
0.00589353
0.00544234
0.00505736
0.00472636
0.00444011
0.0901097
0.0473665
0.0287363
0.0196847
0.0146976
0.0116312
0.00957853
0.00811528
0.00702332
0.00617994
0.00551058
0.0049679
0.00452123
0.00414796
0.00383348
0.00356466
0.00333342
0.00313388
0.0779076
0.0353826
0.0198606
0.0131383
0.00966107
0.00759298
0.00623352
0.0052743
0.004564
0.00401882
0.00358701
0.00323599
0.00294752
0.00270526
0.00250288
0.00232854
0.0021779
0.00204891
0.06238
0.0232554
0.0119461
0.00765493
0.00556337
0.00435256
0.00356724
0.00301639
0.00261307
0.00230792
0.00206665
0.00186689
0.00170308
0.00156251
0.0014487
0.00134759
0.00125907
0.00118357
0.0426105
0.0117794
0.0054693
0.00341385
0.00246071
0.00192005
0.00157275
0.00132885
0.00115943
0.00103846
0.000944042
0.000857504
0.000785386
0.00072053
0.000665877
0.000615683
0.000576586
0.000531896
0.0168348
0.00255985
0.00110002
0.000683428
0.000493724
0.000386803
0.000318219
0.000266307
0.000272613
0.00032205
0.000354121
0.00033789
0.000300244
0.000268116
0.000240464
0.000205925
0.000197281
0.000141055
3.99281e-09
5.91117e-07
2.00076e-06
6.28902e-06
1.08021e-05
1.35313e-05
1.32566e-05
1.17918e-05
9.06386e-06
5.9479e-06
3.52396e-06
2.02494e-06
1.40988e-06
1.50288e-06
2.06701e-06
2.56597e-06
2.45444e-06
2.06912e-06
2.54271e-06
8.67646e-06
9.02504e-06
5.55395e-06
6.75084e-06
2.65083e-05
5.67508e-05
7.44237e-05
9.09776e-05
0.000104826
0.000117046
0.000127207
0.000136111
0.000143758
0.000150448
0.000156275
0.000161357
0.000165843
0.000169818
0.000173368
0.000176551
0.00017941
0.000181974
0.000184268
0.000186308
0.000188111
0.000189691
0.000191062
0.000192234
0.000193215
0.000194004
0.000194476
0.000194973
0.000195082
0.000195144
0.000195019
0.00019472
0.000194274
0.000193675
0.000192928
0.000192035
0.000190996
0.000189815
0.000188494
0.000187034
0.000185438
0.00018371
0.00018185
0.000179861
0.000177743
0.000175501
0.000173137
0.000170652
0.000168048
0.000165328
0.000162492
0.000159543
0.00015648
0.000153303
0.000150013
0.000146609
0.000143087
0.000139448
0.000135688
0.000131803
0.000127788
0.000123636
0.000119334
0.000114871
0.00011023
0.000105397
0.000100346
9.50468e-05
8.94697e-05
8.36129e-05
7.75437e-05
7.15325e-05
6.62502e-05
6.2491e-05
6.01491e-05
5.83965e-05
5.67906e-05
5.52143e-05
5.36459e-05
5.20837e-05
5.05293e-05
4.89846e-05
4.74516e-05
4.59331e-05
4.44351e-05
4.29858e-05
4.17488e-05
4.05447e-05
3.93549e-05
3.81824e-05
3.70277e-05
3.58919e-05
3.47756e-05
3.36796e-05
3.26048e-05
3.15517e-05
3.05206e-05
2.95121e-05
2.85266e-05
2.75646e-05
2.66267e-05
2.57128e-05
2.48228e-05
2.39579e-05
2.31457e-05
2.24115e-05
2.16959e-05
2.09954e-05
2.03181e-05
1.96688e-05
1.90339e-05
1.8413e-05
1.78092e-05
1.72233e-05
1.66557e-05
1.61061e-05
1.55742e-05
1.50595e-05
1.45616e-05
1.40801e-05
1.36145e-05
1.31646e-05
1.27297e-05
1.23096e-05
1.19039e-05
1.15122e-05
1.11341e-05
1.07692e-05
1.04172e-05
1.00778e-05
9.7506e-06
9.43533e-06
9.13169e-06
8.83941e-06
8.55824e-06
8.28795e-06
8.02834e-06
7.7792e-06
7.54037e-06
7.31167e-06
7.09292e-06
6.88391e-06
6.68439e-06
6.49404e-06
6.31243e-06
6.13902e-06
5.97304e-06
5.81371e-06
5.65943e-06
5.50977e-06
5.35977e-06
5.21401e-06
5.04796e-06
4.89396e-06
4.64758e-06
4.48938e-06
3.59429e-06
1.6816e-07
6.14208e-06
6.38808e-05
0.000139683
0.000183238
0.000207003
0.000216377
0.000214885
0.00020654
0.000189836
0.000169044
0.000148908
0.000138495
0.000143709
0.000157679
0.000166602
0.000169021
0.000170204
0.000175608
0.000185309
0.000200064
0.000217503
0.000234337
0.00025084
0.000262141
0.000272045
0.00028086
0.000293705
0.000312802
0.000326748
0.000339491
0.000350416
0.000360345
0.000369444
0.000377344
0.000384557
0.000391272
0.000397714
0.000404014
0.000410237
0.000416379
0.000422398
0.00042824
0.000433864
0.000439243
0.00044436
0.0004492
0.000453751
0.000458013
0.000461987
0.000465712
0.000469154
0.000472351
0.000475293
0.000477984
0.000480426
0.000482619
0.000484565
0.000486262
0.000487713
0.000488917
0.000489876
0.000490592
0.000491069
0.000491317
0.000491342
0.000491138
0.000490701
0.000490048
0.000489182
0.00048811
0.000486838
0.000485373
0.000483721
0.00048189
0.000479887
0.000477719
0.000475393
0.000472917
0.000470299
0.000467547
0.000464668
0.000461671
0.000458564
0.000455355
0.000452052
0.000448663
0.000445196
0.00044166
0.000438064
0.000434413
0.00043071
0.000426957
0.000423148
0.000419261
0.000415271
0.000411162
0.000406962
0.000402721
0.000398464
0.000394199
0.00038993
0.000385659
0.000381392
0.00037713
0.000372878
0.000368638
0.000364413
0.000360202
0.000356003
0.000351828
0.000347679
0.00034356
0.000339472
0.000335417
0.000331397
0.000327413
0.000323466
0.000319558
0.000315691
0.000311864
0.000308079
0.000304337
0.000300639
0.000296986
0.000293378
0.000289814
0.000286293
0.000282814
0.00027938
0.000275989
0.00027265
0.000269363
0.000266114
0.000262899
0.000259727
0.000256598
0.000253514
0.000250475
0.000247481
0.000244531
0.000241625
0.000238761
0.00023594
0.00023316
0.000230422
0.000227725
0.000225068
0.00022245
0.000219872
0.000217333
0.000214833
0.000212371
0.000209948
0.000207563
0.000205218
0.000202911
0.000200645
0.000198419
0.000196235
0.000194094
0.000191998
0.000189949
0.000187947
0.000185996
0.000184096
0.000182249
0.000180455
0.000178713
0.000177021
0.000175376
0.000173776
0.000172198
0.000170684
0.000169073
0.00016775
0.000165618
0.000164902
0.000162095
0.000160722
7.68572e-07
4.45405e-05
0.000164287
0.000246522
0.000299857
0.000330179
0.000341217
0.000338349
0.000325517
0.000306242
0.000286467
0.000273744
0.000271484
0.000278164
0.000288521
0.000299352
0.000312114
0.000329068
0.000350668
0.00037583
0.00040322
0.000431576
0.00046979
0.000516177
0.000561832
0.000605989
0.000649092
0.000692765
0.000732106
0.000763397
0.000788406
0.000808232
0.000823947
0.000836416
0.000846421
0.000854737
0.000862067
0.000869054
0.000876235
0.000883966
0.000892354
0.000901278
0.000910496
0.000919772
0.00092893
0.000937849
0.000946453
0.000954695
0.000962537
0.000969953
0.000976918
0.000983405
0.000989409
0.000994924
0.000999949
0.00100448
0.00100852
0.00101207
0.00101513
0.00101769
0.00101976
0.00102133
0.00102242
0.00102296
0.00102312
0.00102283
0.00102204
0.0010208
0.00101911
0.00101699
0.00101446
0.00101151
0.00100818
0.00100446
0.00100038
0.000995949
0.000991182
0.000986094
0.000980701
0.000975016
0.000969056
0.000962835
0.000956369
0.000949673
0.000942762
0.000935651
0.000928354
0.000920886
0.00091326
0.00090549
0.000897588
0.000889565
0.000881429
0.000873191
0.000864856
0.000856436
0.000847942
0.000839391
0.000830798
0.000822178
0.000813541
0.000804896
0.00079625
0.000787612
0.000778988
0.000770386
0.000761812
0.000753272
0.000744771
0.000736316
0.000727912
0.000719564
0.000711276
0.000703054
0.000694899
0.000686817
0.000678809
0.00067088
0.000663031
0.000655265
0.000647583
0.000639988
0.000632482
0.000625066
0.000617741
0.000610509
0.000603369
0.000596322
0.000589369
0.00058251
0.000575745
0.000569076
0.0005625
0.000556011
0.000549609
0.000543296
0.000537074
0.000530943
0.000524903
0.000518954
0.000513096
0.000507327
0.000501645
0.000496051
0.000490542
0.000485119
0.000479778
0.00047452
0.000469344
0.000464248
0.00045923
0.000454291
0.000449428
0.000444642
0.00043993
0.000435291
0.000430725
0.00042623
0.000421806
0.00041745
0.000413161
0.000408938
0.000404779
0.000400682
0.000396645
0.000392663
0.000388733
0.000384849
0.000381005
0.000377193
0.000373399
0.00036961
0.000365802
0.000361955
0.000357995
0.000353955
0.000349473
0.000345079
0.000338588
0.00032713
5.07058e-07
8.12886e-05
0.00021297
0.000309205
0.000372989
0.000410401
0.000425976
0.000426366
0.000416355
0.000402951
0.000394794
0.000393957
0.000403184
0.000420396
0.000443151
0.000470906
0.00050426
0.00054357
0.000588028
0.000650263
0.000724128
0.000803919
0.000888183
0.000958845
0.00102128
0.0010774
0.00112781
0.00117272
0.00121199
0.00124587
0.00127511
0.00130045
0.00132257
0.00134211
0.00135965
0.00137567
0.00139059
0.00140476
0.00141842
0.00143177
0.00144494
0.00145799
0.00147095
0.00148381
0.0014965
0.00150896
0.00152109
0.0015328
0.00154399
0.00155459
0.00156454
0.00157381
0.00158239
0.00159025
0.00159739
0.0016038
0.00160947
0.00161441
0.00161861
0.00162207
0.00162479
0.00162677
0.00162793
0.00162836
0.00162824
0.00162733
0.0016257
0.00162338
0.00162038
0.00161673
0.00161243
0.00160751
0.00160199
0.00159589
0.00158923
0.00158204
0.00157433
0.00156613
0.00155747
0.00154836
0.00153883
0.0015289
0.0015186
0.00150794
0.00149696
0.00148567
0.00147409
0.00146226
0.00145018
0.00143788
0.00142538
0.0014127
0.00139985
0.00138685
0.00137372
0.00136047
0.00134712
0.00133369
0.00132019
0.00130666
0.0012931
0.00127953
0.00126595
0.00125239
0.00123886
0.00122535
0.0012119
0.00119849
0.00118515
0.00117188
0.00115869
0.00114559
0.00113259
0.00111968
0.00110688
0.00109419
0.00108162
0.00106917
0.00105685
0.00104465
0.00103258
0.00102065
0.00100886
0.000997207
0.000985694
0.000974324
0.000963098
0.000952016
0.00094108
0.00093029
0.000919646
0.000909149
0.000898794
0.000888579
0.000878502
0.000868565
0.000858768
0.000849112
0.000839597
0.000830223
0.000820987
0.000811889
0.000802926
0.000794099
0.000785404
0.00077684
0.000768406
0.000760099
0.000751917
0.00074386
0.000735925
0.00072811
0.000720413
0.000712834
0.000705369
0.000698017
0.000690776
0.000683645
0.00067662
0.000669701
0.000662883
0.000656166
0.000649546
0.000643019
0.000636582
0.000630229
0.000623955
0.000617751
0.000611608
0.000605515
0.000599454
0.000593404
0.000587336
0.000581212
0.000574968
0.000568549
0.000561772
0.00055458
0.000546338
0.000530147
1.4934e-06
0.000102058
0.000235123
0.00035506
0.000433977
0.000481486
0.000505123
0.000513593
0.000515167
0.000516154
0.000523034
0.000539196
0.000565253
0.00060024
0.000643367
0.000694651
0.000754736
0.000838156
0.000933829
0.00103005
0.00111906
0.00120345
0.0012828
0.0013555
0.00142226
0.00148368
0.00154014
0.001592
0.0016396
0.00168336
0.0017238
0.00176136
0.0017965
0.00182958
0.00186091
0.00189075
0.0019193
0.00194669
0.00197301
0.00199834
0.0020227
0.00204611
0.00206855
0.00209002
0.00211048
0.00212992
0.00214829
0.00216556
0.00218172
0.00219674
0.00221061
0.00222334
0.00223493
0.00224541
0.00225478
0.00226306
0.00227028
0.00227644
0.00228157
0.00228567
0.00228877
0.00229082
0.00229174
0.00229182
0.00229095
0.00228907
0.00228624
0.00228247
0.00227778
0.0022722
0.00226575
0.00225846
0.00225037
0.00224149
0.00223186
0.0022215
0.00221046
0.00219876
0.00218643
0.0021735
0.00216
0.00214597
0.00213143
0.00211642
0.00210097
0.00208511
0.00206886
0.00205226
0.00203534
0.00201813
0.00200065
0.00198292
0.00196498
0.00194684
0.00192853
0.00191008
0.0018915
0.00187281
0.00185406
0.00183525
0.0018164
0.00179754
0.00177868
0.00175985
0.00174104
0.00172229
0.0017036
0.00168499
0.00166647
0.00164805
0.00162974
0.00161155
0.00159349
0.00157557
0.00155779
0.00154018
0.00152272
0.00150543
0.00148831
0.00147136
0.0014546
0.00143802
0.00142163
0.00140543
0.00138943
0.00137362
0.001358
0.00134259
0.00132737
0.00131235
0.00129753
0.00128291
0.00126849
0.00125426
0.00124022
0.00122638
0.00121273
0.00119927
0.001186
0.00117292
0.00116003
0.00114733
0.00113481
0.00112248
0.00111032
0.00109835
0.00108655
0.00107492
0.00106347
0.00105218
0.00104106
0.00103011
0.00101931
0.00100867
0.00099819
0.000987861
0.000977682
0.000967651
0.000957764
0.000948019
0.000938412
0.00092894
0.000919599
0.000910385
0.000901293
0.000892315
0.000883445
0.000874674
0.00086599
0.000857378
0.000848819
0.000840288
0.000831751
0.000823165
0.000814461
0.00080557
0.000796326
0.000786582
0.000776613
0.000756793
2.27164e-06
0.000118201
0.000256368
0.000390152
0.000487242
0.000549161
0.000587025
0.00061049
0.000628248
0.000647573
0.000673717
0.000709329
0.000755147
0.000811443
0.00087862
0.000969123
0.00107426
0.00117598
0.0012752
0.0013707
0.00146141
0.0015474
0.00162865
0.00170511
0.00177707
0.00184489
0.0019089
0.00196945
0.00202687
0.00208148
0.0021336
0.00218353
0.00223151
0.00227775
0.00232242
0.00236564
0.00240748
0.00244802
0.00248728
0.00252527
0.00256198
0.00259739
0.00263149
0.00266422
0.00269556
0.00272547
0.00275389
0.0027808
0.00280616
0.00282993
0.00285208
0.0028726
0.00289147
0.00290868
0.00292421
0.00293808
0.00295028
0.00296082
0.00296971
0.00297698
0.00298263
0.00298671
0.00298914
0.00299004
0.00298957
0.0029876
0.00298426
0.00297956
0.00297356
0.00296631
0.00295786
0.00294827
0.00293758
0.00292585
0.00291313
0.00289947
0.00288491
0.00286949
0.00285327
0.00283628
0.00281856
0.00280017
0.00278114
0.00276151
0.00274132
0.00272061
0.00269942
0.00267779
0.00265576
0.00263336
0.00261063
0.0025876
0.0025643
0.00254077
0.00251704
0.00249313
0.00246907
0.0024449
0.00242064
0.00239631
0.00237195
0.00234758
0.00232321
0.00229888
0.00227459
0.00225037
0.00222624
0.00220221
0.0021783
0.00215451
0.00213087
0.00210739
0.00208408
0.00206094
0.002038
0.00201525
0.00199271
0.00197038
0.00194827
0.00192639
0.00190474
0.00188332
0.00186214
0.00184121
0.00182052
0.00180008
0.00177989
0.00175995
0.00174027
0.00172083
0.00170165
0.00168272
0.00166405
0.00164561
0.00162743
0.00160949
0.00159179
0.00157433
0.00155712
0.00154015
0.00152342
0.00150692
0.00149066
0.00147463
0.00145883
0.00144325
0.00142789
0.00141276
0.00139784
0.00138313
0.00136862
0.00135433
0.00134024
0.00132634
0.00131264
0.00129914
0.00128582
0.00127269
0.00125974
0.00124697
0.00123437
0.00122194
0.00120968
0.00119758
0.00118563
0.00117383
0.00116217
0.00115063
0.00113921
0.00112789
0.00111665
0.00110546
0.00109429
0.00108308
0.00107178
0.0010603
0.00104848
0.00103627
0.00102409
0.0010016
2.8055e-06
0.00012682
0.000269279
0.000407727
0.000526502
0.000608039
0.000664245
0.000706254
0.000743313
0.000782685
0.000829428
0.000886491
0.000955499
0.00104783
0.00115483
0.00126144
0.00136755
0.00147091
0.00157099
0.00166735
0.00175974
0.00184818
0.00193275
0.0020136
0.00209099
0.00216519
0.00223647
0.0023051
0.00237133
0.00243541
0.00249754
0.00255789
0.00261663
0.00267385
0.00272966
0.00278411
0.00283722
0.00288902
0.0029395
0.00298864
0.00303641
0.00308277
0.00312768
0.00317109
0.00321294
0.0032532
0.00329179
0.00332867
0.0033638
0.00339711
0.00342858
0.00345816
0.00348581
0.00351151
0.00353524
0.00355696
0.00357667
0.00359435
0.00361001
0.00362363
0.00363523
0.00364481
0.00365239
0.003658
0.00366166
0.00366327
0.00366319
0.0036612
0.00365743
0.00365191
0.0036447
0.00363586
0.00362544
0.00361351
0.00360013
0.00358536
0.00356927
0.00355193
0.0035334
0.00351375
0.00349305
0.00347136
0.00344876
0.0034253
0.00340105
0.00337607
0.00335042
0.00332417
0.00329736
0.00327006
0.0032423
0.00321415
0.00318564
0.00315683
0.00312775
0.00309844
0.00306894
0.00303929
0.00300952
0.00297967
0.00294977
0.00291985
0.00288993
0.00286005
0.00283023
0.00280048
0.00277084
0.00274132
0.00271194
0.00268272
0.00265367
0.00262482
0.00259617
0.00256773
0.00253952
0.00251156
0.00248384
0.00245638
0.00242918
0.00240226
0.00237562
0.00234926
0.00232319
0.00229741
0.00227193
0.00224675
0.00222187
0.00219729
0.00217302
0.00214905
0.00212539
0.00210203
0.00207897
0.00205621
0.00203374
0.00201157
0.0019897
0.00196812
0.00194683
0.00192583
0.00190511
0.00188468
0.00186453
0.00184466
0.00182506
0.00180574
0.00178668
0.00176788
0.00174934
0.00173105
0.00171302
0.00169523
0.00167768
0.00166038
0.00164331
0.00162647
0.00160986
0.00159347
0.0015773
0.00156135
0.0015456
0.00153006
0.00151473
0.00149958
0.00148463
0.00146985
0.00145525
0.0014408
0.0014265
0.00141233
0.00139827
0.00138428
0.00137034
0.00135638
0.00134236
0.00132819
0.00131371
0.00129896
0.00128394
0.00125969
2.9424e-06
0.000128735
0.000270669
0.000407307
0.000538109
0.000641779
0.000719044
0.000780497
0.000836302
0.00089416
0.000961765
0.00105373
0.00116337
0.0012851
0.00140068
0.00151196
0.00161979
0.00172437
0.00182562
0.0019235
0.00201799
0.0021092
0.00219725
0.00228235
0.0023647
0.00244454
0.00252208
0.00259753
0.0026711
0.00274294
0.0028132
0.002882
0.00294943
0.00301556
0.00308042
0.00314403
0.00320641
0.00326752
0.00332734
0.00338584
0.00344296
0.00349865
0.00355286
0.00360551
0.00365654
0.00370589
0.00375349
0.00379929
0.00384321
0.0038852
0.0039252
0.00396317
0.00399905
0.00403281
0.0040644
0.0040938
0.00412098
0.00414591
0.00416858
0.00418898
0.00420711
0.00422296
0.00423654
0.00424787
0.00425696
0.00426382
0.00426855
0.004271
0.00427143
0.00426979
0.00426612
0.00426048
0.00425291
0.00424348
0.00423225
0.00421928
0.00420463
0.00418837
0.00417058
0.00415131
0.00413064
0.00410865
0.0040854
0.00406097
0.00403544
0.00400886
0.00398131
0.00395287
0.0039236
0.00389357
0.00386284
0.00383148
0.00379955
0.0037671
0.0037342
0.0037009
0.00366726
0.00363332
0.00359914
0.00356477
0.00353024
0.0034956
0.0034609
0.00342616
0.00339143
0.00335673
0.00332209
0.00328756
0.00325314
0.00321887
0.00318476
0.00315085
0.00311714
0.00308366
0.00305043
0.00301745
0.00298474
0.00295231
0.00292017
0.00288834
0.00285682
0.00282562
0.00279474
0.0027642
0.00273399
0.00270412
0.00267459
0.0026454
0.00261657
0.00258808
0.00255994
0.00253215
0.0025047
0.0024776
0.00245084
0.00242442
0.00239834
0.0023726
0.00234719
0.00232212
0.00229738
0.00227296
0.00224887
0.0022251
0.00220165
0.00217851
0.00215568
0.00213316
0.00211093
0.002089
0.00206736
0.00204601
0.00202494
0.00200415
0.00198364
0.00196339
0.00194341
0.00192369
0.00190423
0.00188502
0.00186605
0.00184733
0.00182884
0.00181059
0.00179255
0.00177473
0.00175711
0.00173968
0.00172243
0.00170534
0.00168839
0.00167154
0.00165476
0.001638
0.00162119
0.00160425
0.00158706
0.00156965
0.00155172
0.00152558
2.75936e-06
0.000125268
0.000264043
0.000395769
0.000520542
0.000633075
0.000727063
0.00080827
0.000891334
0.000986683
0.00109593
0.00122063
0.00135704
0.00148457
0.00160487
0.0017199
0.00183062
0.00193739
0.00204054
0.00214042
0.00223724
0.00233122
0.00242253
0.0025114
0.00259802
0.00268259
0.00276532
0.00284637
0.00292589
0.00300402
0.00308086
0.00315649
0.00323096
0.00330432
0.00337657
0.0034477
0.0035177
0.00358652
0.00365413
0.00372046
0.00378544
0.00384901
0.0039111
0.00397162
0.0040305
0.00408766
0.00414302
0.00419651
0.00424806
0.00429759
0.00434505
0.00439037
0.00443348
0.00447436
0.00451294
0.00454918
0.00458306
0.00461454
0.0046436
0.00467023
0.00469441
0.00471614
0.00473541
0.00475225
0.00476665
0.00477864
0.00478824
0.00479548
0.00480041
0.00480298
0.00480336
0.00480155
0.00479758
0.00479152
0.00478342
0.00477334
0.00476134
0.00474748
0.00473184
0.00471448
0.00469547
0.00467489
0.0046528
0.00462927
0.00460439
0.00457821
0.00455083
0.0045223
0.0044927
0.00446211
0.00443058
0.0043982
0.00436502
0.00433111
0.00429654
0.00426137
0.00422566
0.00418948
0.00415287
0.00411589
0.0040786
0.00404106
0.0040033
0.00396538
0.00392733
0.00388921
0.00385105
0.00381289
0.00377476
0.00373669
0.00369872
0.00366088
0.00362318
0.00358567
0.00354835
0.00351126
0.0034744
0.00343781
0.00340148
0.00336545
0.00332971
0.00329429
0.0032592
0.00322444
0.00319002
0.00315595
0.00312223
0.00308887
0.00305588
0.00302325
0.002991
0.00295911
0.0029276
0.00289645
0.00286568
0.00283528
0.00280524
0.00277558
0.00274628
0.00271734
0.00268877
0.00266056
0.00263271
0.00260521
0.00257806
0.00255126
0.00252481
0.00249869
0.00247291
0.00244745
0.00242233
0.00239752
0.00237304
0.00234886
0.002325
0.00230144
0.00227817
0.00225521
0.00223253
0.00221014
0.00218803
0.00216619
0.00214463
0.00212332
0.00210227
0.00208146
0.00206089
0.00204055
0.0020204
0.00200045
0.00198066
0.001961
0.00194143
0.0019219
0.00190235
0.00188269
0.00186281
0.00184274
0.001822
0.00179367
2.34433e-06
0.000117989
0.000252847
0.000380973
0.000503946
0.000620482
0.000731377
0.000840491
0.000955424
0.00108133
0.00121945
0.00136924
0.00151155
0.00164354
0.00176781
0.00188624
0.00199997
0.00210962
0.00221558
0.00231807
0.00241748
0.00251418
0.00260849
0.00270065
0.00279089
0.00287941
0.00296641
0.00305202
0.0031364
0.00321964
0.00330183
0.00338303
0.00346327
0.00354257
0.00362091
0.00369828
0.00377462
0.0038499
0.00392404
0.00399698
0.00406862
0.00413889
0.0042077
0.00427495
0.00434056
0.00440444
0.00446649
0.00452663
0.00458479
0.00464086
0.0046948
0.00474652
0.00479595
0.00484305
0.00488776
0.00493002
0.00496981
0.00500709
0.00504182
0.00507399
0.00510359
0.00513059
0.00515502
0.00517685
0.00519611
0.00521282
0.00522698
0.00523864
0.00524781
0.00525453
0.00525885
0.00526079
0.00526045
0.00525784
0.00525302
0.00524606
0.005237
0.00522593
0.00521288
0.00519795
0.00518119
0.00516267
0.00514246
0.00512064
0.00509728
0.00507246
0.00504623
0.00501869
0.00498989
0.00495991
0.00492883
0.0048967
0.00486361
0.00482961
0.00479478
0.00475917
0.00472286
0.00468591
0.00464837
0.00461032
0.0045718
0.00453287
0.00449358
0.004454
0.00441416
0.00437411
0.0043339
0.00429357
0.00425317
0.00421272
0.00417227
0.00413185
0.0040915
0.00405124
0.00401111
0.00397112
0.00393131
0.00389169
0.0038523
0.00381314
0.00377424
0.00373562
0.00369728
0.00365924
0.00362152
0.00358412
0.00354706
0.00351033
0.00347396
0.00343795
0.0034023
0.00336702
0.0033321
0.00329756
0.00326339
0.0032296
0.00319618
0.00316314
0.00313048
0.00309819
0.00306628
0.00303475
0.00300359
0.0029728
0.00294238
0.00291232
0.00288263
0.0028533
0.00282432
0.0027957
0.00276743
0.0027395
0.00271191
0.00268466
0.00265774
0.00263115
0.00260489
0.00257894
0.00255332
0.002528
0.00250299
0.00247828
0.00245387
0.00242974
0.0024059
0.00238233
0.00235902
0.00233596
0.00231312
0.0022905
0.00226807
0.00224579
0.00222362
0.00220151
0.0021794
0.0021572
0.0021348
0.00211222
0.00208892
0.00205826
1.92686e-06
0.000110307
0.000242563
0.000369908
0.000495649
0.000620082
0.000745011
0.000874505
0.00101188
0.00115921
0.00131664
0.00147845
0.00162626
0.00176272
0.00189082
0.00201259
0.00212928
0.00224173
0.00235046
0.00245588
0.00255827
0.00265783
0.002755
0.00285014
0.00294352
0.0030354
0.00312596
0.00321536
0.00330374
0.00339121
0.00347782
0.00356363
0.00364866
0.00373291
0.00381636
0.00389896
0.00398066
0.0040614
0.0041411
0.00421966
0.004297
0.00437301
0.00444759
0.00452065
0.00459207
0.00466176
0.00472961
0.00479554
0.00485944
0.00492123
0.00498082
0.00503815
0.00509312
0.00514569
0.00519579
0.00524338
0.00528839
0.0053308
0.00537058
0.00540769
0.00544213
0.00547388
0.00550293
0.00552929
0.00555297
0.00557397
0.00559232
0.00560804
0.00562116
0.00563172
0.00563975
0.00564529
0.0056484
0.00564912
0.00564752
0.00564364
0.00563755
0.0056293
0.00561896
0.0056066
0.00559227
0.00557606
0.00555803
0.00553825
0.00551679
0.00549373
0.00546914
0.00544309
0.00541565
0.0053869
0.0053569
0.00532573
0.00529345
0.00526014
0.00522585
0.00519065
0.00515462
0.00511782
0.0050803
0.00504213
0.00500336
0.00496407
0.0049243
0.0048841
0.00484353
0.00480264
0.00476148
0.00472009
0.00467851
0.00463679
0.00459497
0.00455309
0.00451117
0.00446927
0.0044274
0.0043856
0.0043439
0.00430233
0.0042609
0.00421965
0.00417859
0.00413775
0.00409715
0.00405679
0.00401671
0.0039769
0.00393739
0.00389819
0.0038593
0.00382074
0.00378252
0.00374464
0.0037071
0.00366992
0.0036331
0.00359664
0.00356054
0.00352481
0.00348945
0.00345446
0.00341984
0.0033856
0.00335172
0.00331822
0.00328509
0.00325233
0.00321994
0.00318791
0.00315624
0.00312494
0.00309399
0.0030634
0.00303317
0.00300328
0.00297373
0.00294453
0.00291567
0.00288714
0.00285895
0.00283108
0.00280354
0.00277631
0.0027494
0.00272279
0.00269648
0.00267047
0.00264473
0.00261926
0.00259404
0.00256906
0.00254428
0.00251967
0.00249519
0.00247079
0.0024464
0.00242194
0.00239732
0.00237252
0.00234701
0.0023142
1.54347e-06
0.000102167
0.000232072
0.000359054
0.00048772
0.00061899
0.000755524
0.000899239
0.00105186
0.00121393
0.00138595
0.00155193
0.00170373
0.00184405
0.00197566
0.00210054
0.00222004
0.00233509
0.00244637
0.00255435
0.00265942
0.0027619
0.00286205
0.00296005
0.00305634
0.00315119
0.00324486
0.00333753
0.00342933
0.00352038
0.00361075
0.00370047
0.00378957
0.00387804
0.00396583
0.00405291
0.0041392
0.00422462
0.00430909
0.0043925
0.00447475
0.00455572
0.00463531
0.0047134
0.00478987
0.00486461
0.00493752
0.00500849
0.00507742
0.00514421
0.00520877
0.00527101
0.00533087
0.00538826
0.00544313
0.00549542
0.00554507
0.00559206
0.00563633
0.00567788
0.00571666
0.00575268
0.00578592
0.00581638
0.00584407
0.00586901
0.0058912
0.00591068
0.00592747
0.00594161
0.00595312
0.00596206
0.00596847
0.00597239
0.00597388
0.00597301
0.00596984
0.00596441
0.00595679
0.00594704
0.00593523
0.00592143
0.00590571
0.00588813
0.00586878
0.00584772
0.00582502
0.00580077
0.00577502
0.00574785
0.00571933
0.00568952
0.00565851
0.00562635
0.00559311
0.00555886
0.00552366
0.00548759
0.0054507
0.00541305
0.0053747
0.00533573
0.00529617
0.00525608
0.00521553
0.00517455
0.0051332
0.00509153
0.00504958
0.00500739
0.00496501
0.00492249
0.00487985
0.00483713
0.00479437
0.0047516
0.00470885
0.00466616
0.00462354
0.00458104
0.00453866
0.00449643
0.00445438
0.00441253
0.00437089
0.00432948
0.00428831
0.00424741
0.00420678
0.00416644
0.00412639
0.00408665
0.00404722