/*--------------------------------*- C++ -*----------------------------------*\
| =========                 |                                                 |
| \\      /  F ield         | OpenFOAM: The Open Source CFD Toolbox           |
|  \\    /   O peration     | Version:  v2012                                 |
|   \\  /    A nd           | Website:  www.openfoam.com                      |
|    \\/     M anipulation  |                                                 |
\*---------------------------------------------------------------------------*/
FoamFile
{
    version     2.0;
    format      ascii;
    class       volScalarField;
    location    "2400";
    object      p;
}
// * * * * * * * * * * * * * * * * * * * * * * * * * * * * * * * * * * * * * //

dimensions      [0 2 -2 0 0 0 0];


internalField   nonuniform List<scalar> 
12225
(
514.682
55.534
2.36987
0.28817
-1.89188
-3.36761
-3.80902
-4.01204
-4.22128
-4.37372
-4.41832
-4.42014
-4.41997
-4.44818
-4.49738
-4.56859
-4.72523
-4.94128
-122.173
0.244671
-2.71241
-0.758678
-2.20963
-3.5182
-3.94484
-4.13123
-4.26984
-4.36114
-4.43287
-4.49364
-4.55014
-4.58969
-4.62222
-4.65623
-4.73264
-4.85739
-200.64
-16.1427
-2.3405
-0.351981
-1.89406
-3.23794
-3.76337
-4.018
-4.18994
-4.30598
-4.39966
-4.46946
-4.52076
-4.5498
-4.57234
-4.59256
-4.6308
-4.6283
-110.611
-10.9685
-2.17129
-0.425794
-1.78111
-3.02188
-3.59294
-3.90474
-4.11782
-4.26246
-4.36609
-4.43654
-4.48457
-4.51401
-4.53488
-4.54558
-4.54806
-4.48348
-61.5674
-8.14031
-3.61682
-1.2039
-2.00874
-2.9915
-3.5217
-3.8458
-4.07313
-4.22884
-4.33714
-4.41087
-4.4611
-4.49241
-4.50978
-4.50936
-4.48497
-4.39581
-45.7254
-8.77981
-5.25312
-2.19437
-2.42366
-3.09451
-3.52993
-3.83058
-4.05059
-4.20572
-4.31546
-4.39179
-4.44364
-4.4748
-4.48777
-4.47852
-4.4392
-4.34455
-35.7893
-9.2711
-6.37498
-3.11894
-2.91586
-3.28377
-3.59804
-3.8519
-4.05044
-4.19696
-4.30381
-4.37969
-4.43114
-4.46115
-4.47102
-4.45729
-4.41348
-4.32575
-27.7728
-8.90195
-6.96855
-3.7974
-3.35622
-3.49301
-3.69559
-3.89743
-4.06919
-4.20272
-4.30343
-4.37652
-4.42656
-4.45574
-4.46476
-4.45099
-4.40992
-4.33444
-21.6849
-8.51496
-7.12937
-4.30546
-3.72381
-3.70106
-3.81195
-3.96209
-4.10417
-4.22156
-4.31357
-4.38218
-4.42998
-4.45834
-4.46758
-4.45596
-4.42082
-4.35908
-16.6076
-8.13571
-7.08315
-4.75055
-4.07842
-3.92983
-3.95531
-4.05008
-4.15775
-4.25491
-4.33526
-4.39751
-4.44221
-4.46982
-4.48041
-4.47313
-4.447
-4.40189
-12.634
-7.67596
-6.90127
-5.09702
-4.40229
-4.16612
-4.11827
-4.1588
-4.22997
-4.30415
-4.37052
-4.42489
-4.46588
-4.49308
-4.50637
-4.50561
-4.49116
-4.46445
-9.6941
-7.14392
-6.62446
-5.32198
-4.67434
-4.39313
-4.29094
-4.28393
-4.31985
-4.37018
-4.42136
-4.46696
-4.50407
-4.53145
-4.54882
-4.55645
-4.55536
-4.54767
-7.6612
-6.59992
-6.30129
-5.42705
-4.8789
-4.59337
-4.46016
-4.41754
-4.42338
-4.4517
-4.48821
-4.52529
-4.55896
-4.58742
-4.61005
-4.62726
-4.64016
-4.65075
-6.36612
-6.10827
-5.98105
-5.43582
-5.01158
-4.75364
-4.61252
-4.54925
-4.53366
-4.54465
-4.56914
-4.59933
-4.63088
-4.66149
-4.69036
-4.71755
-4.74401
-4.77109
-5.61787
-5.71761
-5.70434
-5.3863
-5.08154
-4.86882
-4.73784
-4.66856
-4.64185
-4.64234
-4.65926
-4.68561
-4.71707
-4.75122
-4.78691
-4.8239
-4.86258
-4.90373
-5.23853
-5.45539
-5.50339
-5.32294
-5.11052
-4.9436
-4.83148
-4.76666
-4.73815
-4.73546
-4.75028
-4.7767
-4.81073
-4.84994
-4.89291
-4.93906
-4.98824
-5.04066
-5.09725
-5.33944
-5.41217
-5.29424
-5.13029
-4.99124
-4.89367
-4.83583
-4.81079
-4.81065
-4.82854
-4.85917
-4.89876
-4.94481
-4.99567
-5.05041
-5.10849
-5.16973
-5.13487
-5.39516
-5.46931
-5.34322
-5.16942
-5.02375
-4.92348
-4.86629
-4.84433
-4.84914
-4.87327
-4.91106
-4.95834
-5.01238
-5.0712
-5.13366
-5.19895
-5.26672
-5.38702
-5.64947
-5.68524
-5.47016
-5.22101
-5.03067
-4.90958
-4.84647
-4.82735
-4.83952
-4.87303
-4.92071
-4.97771
-5.04076
-5.10781
-5.17748
-5.24905
-5.322
-5.99622
-6.13115
-6.037
-5.62959
-5.24172
-4.98207
-4.83564
-4.77069
-4.7611
-4.78732
-4.83567
-4.89726
-4.96653
-5.04012
-5.11596
-5.1929
-5.27025
-5.34786
-7.24371
-6.88367
-6.48842
-5.75627
-5.17771
-4.84787
-4.69142
-4.64139
-4.65527
-4.70565
-4.7756
-4.85524
-4.93915
-5.02429
-5.10923
-5.19321
-5.27598
-5.35765
-9.63513
-7.95864
-6.97676
-5.76623
-4.97426
-4.60727
-4.47745
-4.46936
-4.52431
-4.60953
-4.70696
-4.80758
-4.90705
-5.00377
-5.0972
-5.18748
-5.27487
-5.35984
-13.9763
-9.38509
-7.39728
-5.5639
-4.58958
-4.25964
-4.21095
-4.27596
-4.38825
-4.51578
-4.6435
-4.76532
-4.87947
-4.9862
-5.08654
-5.18163
-5.27239
-5.3597
-20.8839
-10.948
-7.54829
-5.05161
-4.01081
-3.83152
-3.92638
-4.09089
-4.26947
-4.44039
-4.59644
-4.73667
-4.86263
-4.97663
-5.08132
-5.17911
-5.27168
-5.36
-29.7306
-11.9435
-7.02763
-4.12053
-3.25907
-3.37389
-3.66776
-3.94422
-4.18693
-4.39529
-4.57312
-4.72615
-4.85912
-4.97693
-5.0833
-5.18174
-5.2744
-5.36229
-43.1007
-12.6081
-5.46694
-2.72338
-2.40832
-2.95943
-3.48132
-3.85985
-4.15135
-4.38477
-4.5757
-4.73415
-4.86817
-4.98538
-5.09087
-5.18875
-5.28082
-5.36736
-84.5937
-17.3677
-3.65826
-1.25987
-1.69106
-2.71782
-3.43326
-3.86715
-4.17008
-4.40574
-4.601
-4.76177
-4.89208
-5.00241
-5.10132
-5.19694
-5.28913
-5.37394
-177.88
-26.8439
-3.67435
-0.764655
-1.53011
-2.83898
-3.61128
-4.01171
-4.2637
-4.45827
-4.6416
-4.80857
-4.94282
-5.04702
-5.12993
-5.21457
-5.30426
-5.38642
-154.785
-9.62158
-3.26663
-1.06276
-1.83812
-3.21674
-3.91071
-4.22089
-4.41034
-4.54921
-4.69082
-4.84567
-4.99445
-5.11892
-5.20479
-5.28014
-5.36319
-5.44619
428.063
66.6112
7.06167
1.6049
-0.910661
-2.85278
-3.64897
-3.99147
-4.31029
-4.58424
-4.71546
-4.75594
-4.80482
-4.89613
-5.02633
-5.14152
-5.2251
-5.30717
-8.50402
-8.49122
-8.48118
-8.52312
-8.61602
-8.71897
-8.79787
-8.83677
-8.83951
-8.82136
-8.79379
-8.7653
-8.7439
-8.73541
-8.74055
-8.75292
-8.7637
-8.76853
-8.77003
-8.77479
-8.786
-8.81914
-8.90977
-9.08381
-9.33879
-9.65807
-10.0304
-10.4449
-10.8859
-11.3375
-11.7846
-12.2154
-12.6208
-12.9942
-13.3314
-13.63
-13.889
-14.1085
-14.2892
-14.432
-14.5383
-14.6093
-14.6465
-14.6512
-14.6247
-14.5682
-14.4836
-14.3731
-14.2378
-14.0756
-13.8838
-13.6638
-13.4184
-13.1491
-12.8573
-12.5441
-12.2104
-11.8573
-11.4859
-11.0971
-10.6921
-10.2719
-9.83774
-9.39073
-8.93205
-8.4629
-7.98447
-7.49796
-7.00457
-6.50548
-6.00185
-5.49483
-4.98553
-4.47502
-3.96436
-3.45454
-2.94653
-2.44123
-1.9395
-1.44215
-0.94994
-0.463567
0.0163233
0.489141
0.954351
1.41147
1.86008
2.2998
2.73032
3.15138
3.56277
3.96433
4.35586
4.73737
5.10908
5.47101
5.82268
6.1637
6.49408
6.81404
7.12382
7.42364
7.71367
7.9941
8.26511
8.52691
8.77969
9.02369
9.25912
9.48619
9.70512
9.91615
10.1195
10.3155
10.5044
10.6863
10.8615
11.0303
11.1929
11.3495
11.5004
11.6457
11.7857
11.9206
12.0506
12.1759
12.2967
12.4132
12.5255
12.6338
12.7383
12.8393
12.9372
13.0318
13.1231
13.2113
13.2965
13.3788
13.4585
13.5356
13.6101
13.6824
13.7523
13.8201
13.8858
13.9494
14.0111
14.071
14.1291
14.1854
14.24
14.2931
14.3445
14.3944
14.4428
14.4897
14.5352
14.5793
14.622
14.6634
14.7034
14.7421
14.7794
14.8155
14.8503
14.8839
14.9163
14.9475
14.9776
15.0068
15.0351
15.0628
15.0902
15.1179
15.1466
15.1774
15.2128
15.2545
15.3125
15.373
-8.56196
-8.59327
-8.66736
-8.76084
-8.86378
-8.95519
-9.01552
-9.03897
-9.02092
-8.95952
-8.86932
-8.77274
-8.69196
-8.64174
-8.62036
-8.61755
-8.62764
-8.6543
-8.69311
-8.71465
-8.73707
-8.81708
-8.98265
-9.2263
-9.53602
-9.90924
-10.3362
-10.7967
-11.2691
-11.736
-12.1849
-12.6067
-12.995
-13.346
-13.6582
-13.9311
-14.1653
-14.3617
-14.5216
-14.646
-14.7361
-14.7931
-14.8179
-14.8114
-14.7744
-14.7076
-14.6113
-14.4856
-14.331
-14.1507
-13.9484
-13.7242
-13.4773
-13.2078
-12.9164
-12.6038
-12.2709
-11.9186
-11.5479
-11.1599
-10.7556
-10.336
-9.90244
-9.45596
-8.99773
-8.52894
-8.05079
-7.56449
-7.07122
-6.57217
-6.0685
-5.56135
-5.05184
-4.54104
-4.03001
-3.51974
-3.0112
-2.50529
-2.00289
-1.5048
-1.01178
-0.524535
-0.0437218
0.430065
0.89628
1.35443
1.80409
2.24484
2.67636
3.09832
3.51048
3.91259
4.30444
4.6859
5.05708
5.41819
5.76941
6.11078
6.44215
6.7634
7.07458
7.37581
7.66725
7.94908
8.22146
8.4846
8.7387
8.98398
9.22067
9.449
9.6692
9.88148
10.0861
10.2833
10.4733
10.6564
10.8327
11.0026
11.1663
11.3239
11.4758
11.6222
11.7631
11.899
12.0301
12.1565
12.2783
12.3959
12.5093
12.6187
12.7243
12.826
12.924
13.0186
13.1101
13.1985
13.2839
13.3665
13.4465
13.5239
13.5987
13.6713
13.7415
13.8096
13.8756
13.9395
14.0016
14.0617
14.12
14.1766
14.2316
14.2848
14.3365
14.3866
14.4353
14.4824
14.5281
14.5724
14.6153
14.6569
14.6971
14.7359
14.7735
14.8097
14.8447
14.8784
14.9109
14.9422
14.9725
15.0018
15.0302
15.058
15.0856
15.1133
15.1421
15.1728
15.2076
15.2472
15.3009
15.3508
-8.68924
-8.77083
-8.88846
-8.99375
-9.07594
-9.12901
-9.14887
-9.13426
-9.08388
-9.00012
-8.89225
-8.77713
-8.6784
-8.61524
-8.58757
-8.58368
-8.60422
-8.66384
-8.77179
-8.92175
-9.11247
-9.3543
-9.65035
-9.99101
-10.3642
-10.7606
-11.1702
-11.5811
-11.983
-12.3687
-12.7337
-13.0741
-13.3875
-13.6721
-13.9269
-14.1514
-14.3454
-14.5091
-14.6427
-14.7464
-14.8206
-14.8658
-14.8823
-14.8706
-14.8311
-14.7642
-14.6703
-14.5494
-14.4015
-14.2275
-14.0289
-13.8067
-13.5614
-13.2936
-13.0039
-12.6931
-12.3621
-12.0116
-11.6427
-11.2564
-10.8536
-10.4355
-10.0033
-9.55795
-9.10076
-8.63286
-8.15546
-7.66976
-7.17694
-6.6782
-6.1747
-5.66758
-5.15796
-4.64694
-4.13555
-3.62481
-3.11569
-2.60909
-2.1059
-1.60693
-1.11295
-0.624663
-0.142732
0.33224
0.799707
1.25917
1.7102
2.1524
2.58543
3.00901
3.4229
3.8269
4.22085
4.60469
4.97836
5.3419
5.69532
6.03864
6.37182
6.69487
7.00786
7.3109
7.60415
7.88776
8.16191
8.42679
8.68262
8.92959
9.16794
9.3979
9.61969
9.83353
10.0397
10.2383
10.4298
10.6143
10.792
10.9632
11.1282
11.2872
11.4403
11.5878
11.73
11.867
11.9989
12.1261
12.2488
12.367
12.4811
12.5912
12.6974
12.7998
12.8987
12.9944
13.0869
13.1763
13.2627
13.3462
13.4269
13.5051
13.5807
13.6539
13.7248
13.7935
13.8601
13.9246
13.9872
14.0478
14.1067
14.1637
14.2191
14.2728
14.3249
14.3754
14.4244
14.4719
14.5179
14.5626
14.6058
14.6476
14.6881
14.7272
14.765
14.8014
14.8366
14.8706
14.9033
14.9348
14.9652
14.9946
15.0231
15.051
15.0786
15.1063
15.1348
15.1649
15.1984
15.2351
15.2825
15.3161
-8.72692
-8.8239
-8.92483
-9.01106
-9.07511
-9.11434
-9.12627
-9.10833
-9.06061
-8.98827
-8.90274
-8.82096
-8.76105
-8.73566
-8.74944
-8.80454
-8.90493
-9.05438
-9.25346
-9.49653
-9.77424
-10.0796
-10.4071
-10.7503
-11.1039
-11.4627
-11.8213
-12.1746
-12.5179
-12.8473
-13.1595
-13.4518
-13.7222
-13.9689
-14.1907
-14.3867
-14.5564
-14.6993
-14.8153
-14.9042
-14.9662
-15.0012
-15.0094
-14.9909
-14.9458
-14.8744
-14.7769
-14.6537
-14.5052
-14.3321
-14.1349
-13.9143
-13.6706
-13.4044
-13.1164
-12.8073
-12.4779
-12.1291
-11.7617
-11.3767
-10.9753
-10.5584
-10.1271
-9.68268
-9.22619
-8.75884
-8.28183
-7.79636
-7.30361
-6.80478
-6.30104
-5.79353
-5.28337
-4.77167
-4.25947
-3.74779
-3.2376
-2.72982
-2.22534
-1.72498
-1.22951
-0.739648
-0.256061
0.220644
0.689912
1.15124
1.60419
2.04836
2.48342
2.90907
3.32507
3.73123
4.12741
4.51353
4.88953
5.25538
5.61106
5.95654
6.29183
6.61697
6.93204
7.23715
7.53244
7.81808
8.09424
8.3611
8.61888
8.86777
9.108
9.33979
9.56337
9.77896
9.98682
10.1872
10.3803
10.5664
10.7457
10.9185
11.0849
11.2452
11.3997
11.5485
11.692
11.8302
11.9634
12.0918
12.2156
12.3349
12.4501
12.5612
12.6684
12.7719
12.8719
12.9686
13.0621
13.1523
13.2396
13.324
13.4055
13.4845
13.5608
13.6348
13.7064
13.7757
13.8429
13.9081
13.9712
14.0324
14.0918
14.1494
14.2052
14.2594
14.3119
14.3628
14.4122
14.4601
14.5065
14.5515
14.5951
14.6372
14.678
14.7174
14.7555
14.7922
14.8276
14.8618
14.8947
14.9263
14.9569
14.9864
15.015
15.0428
15.0702
15.0976
15.1254
15.1544
15.1857
15.2182
15.2576
15.2763
-8.51317
-8.59796
-8.69804
-8.79504
-8.87219
-8.92463
-8.95143
-8.9535
-8.93543
-8.90565
-8.87632
-8.86143
-8.87371
-8.92262
-9.01426
-9.15166
-9.33477
-9.55889
-9.81551
-10.0966
-10.3967
-10.7116
-11.0371
-11.368
-11.7001
-12.0296
-12.3532
-12.6678
-12.9707
-13.2595
-13.5321
-13.787
-14.0226
-14.2378
-14.4316
-14.6031
-14.7516
-14.8766
-14.9777
-15.0543
-15.1064
-15.1335
-15.1357
-15.1127
-15.0646
-14.9914
-14.8931
-14.7699
-14.622
-14.4499
-14.254
-14.0346
-13.7924
-13.5277
-13.2412
-12.9336
-12.6056
-12.2582
-11.8921
-11.5084
-11.108
-10.6921
-10.2617
-9.81793
-9.36198
-8.89503
-8.41828
-7.9329
-7.4401
-6.94108
-6.43699
-5.92899
-5.41821
-4.90575
-4.39266
-3.87997
-3.36866
-2.85964
-2.35382
-1.85201
-1.355
-0.863509
-0.378207
0.100292
0.571428
1.0347
1.48965
1.93588
2.37306
2.80088
3.2191
3.62752
4.026
4.41442
4.79272
5.16086
5.5188
5.86652
6.20404
6.5314
6.84869
7.15601
7.45351
7.74132
8.01964
8.28863
8.54851
8.79947
9.04174
9.27556
9.50111
9.71866
9.92841
10.1306
10.3255
10.5134
10.6944
10.8688
11.0369
11.1988
11.3548
11.5052
11.6501
11.7897
11.9243
12.0541
12.1792
12.2999
12.4163
12.5286
12.637
12.7416
12.8427
12.9404
13.0348
13.1261
13.2142
13.2995
13.3819
13.4617
13.5388
13.6136
13.6859
13.756
13.8239
13.8896
13.9534
14.0153
14.0752
14.1333
14.1897
14.2444
14.2974
14.3489
14.3987
14.4471
14.4939
14.5393
14.5832
14.6257
14.6669
14.7066
14.745
14.782
14.8177
14.8521
14.8851
14.917
14.9477
14.9772
15.0057
15.0335
15.0606
15.0873
15.1142
15.1416
15.1701
15.198
15.2296
15.2357
-8.0925
-8.18099
-8.30208
-8.42485
-8.53006
-8.61042
-8.66877
-8.71108
-8.74506
-8.78055
-8.82853
-8.89921
-9.00055
-9.13726
-9.31145
-9.522
-9.76419
-10.0324
-10.3213
-10.6252
-10.9385
-11.2566
-11.5757
-11.8921
-12.2033
-12.5069
-12.8012
-13.0846
-13.3556
-13.6129
-13.8553
-14.0818
-14.2912
-14.4825
-14.655
-14.8076
-14.9398
-15.0507
-15.1398
-15.2065
-15.2504
-15.271
-15.2681
-15.2413
-15.1905
-15.1154
-15.0162
-14.8927
-14.7452
-14.5738
-14.3788
-14.1606
-13.9196
-13.6563
-13.3712
-13.0651
-12.7385
-12.3925
-12.0277
-11.6452
-11.246
-10.8311
-10.4016
-9.95854
-9.50318
-9.03669
-8.56023
-8.07501
-7.58221
-7.08302
-6.57862
-6.07018
-5.55881
-5.04561
-4.53167
-4.01799
-3.50557
-2.99534
-2.48819
-1.98495
-1.48641
-0.993297
-0.506289
-0.0260029
0.446997
0.912202
1.36916
1.81746
2.25676
2.68675
3.1072
3.51788
3.91865
4.30939
4.69
5.06043
5.42066
5.77067
6.11047
6.44012
6.75969
7.06929
7.36904
7.65911
7.93967
8.21088
8.47295
8.72608
8.97048
9.20637
9.43398
9.65354
9.86528
10.0694
10.2663
10.456
10.6388
10.815
10.9848
11.1485
11.3062
11.4582
11.6046
11.7458
11.8819
12.0131
12.1397
12.2617
12.3794
12.493
12.6027
12.7085
12.8108
12.9096
13.0051
13.0973
13.1865
13.2727
13.3561
13.4368
13.5148
13.5904
13.6635
13.7344
13.803
13.8696
13.934
13.9965
14.0571
14.1159
14.1729
14.2282
14.2817
14.3337
14.3841
14.4329
14.4802
14.526
14.5704
14.6133
14.6548
14.6949
14.7336
14.771
14.8069
14.8416
14.8749
14.9069
14.9376
14.9672
14.9957
15.0231
15.0498
15.0758
15.1015
15.1269
15.1523
15.1753
15.1996
15.1951
-7.62851
-7.72727
-7.8695
-8.01846
-8.15655
-8.27539
-8.37867
-8.47579
-8.57617
-8.68872
-8.82099
-8.97778
-9.16173
-9.37326
-9.61061
-9.87161
-10.1533
-10.4509
-10.7592
-11.0732
-11.3884
-11.7016
-12.0101
-12.3118
-12.6051
-12.8888
-13.1618
-13.4233
-13.6723
-13.9081
-14.1297
-14.3364
-14.5273
-14.7016
-14.8585
-14.9972
-15.1168
-15.2168
-15.2965
-15.3551
-15.3921
-15.4071
-15.3995
-15.3691
-15.3154
-15.2383
-15.1377
-15.0134
-14.8655
-14.6941
-14.4995
-14.2819
-14.0416
-13.7792
-13.4952
-13.1901
-12.8648
-12.5199
-12.1564
-11.7751
-11.377
-10.9632
-10.5347
-10.0926
-9.63812
-9.17236
-8.69652
-8.2118
-7.71938
-7.22045
-6.71618
-6.20772
-5.6962
-5.18273
-4.66837
-4.15415
-3.64105
-3.13002
-2.62194
-2.11765
-1.61795
-1.12357
-0.635178
-0.153408
0.321172
0.788049
1.24676
1.6969
2.13812
2.57009
2.99258
3.40536
3.80827
4.20117
4.58397
4.95661
5.31905
5.67128
6.01331
6.3452
6.66702
6.97888
7.28089
7.5732
7.85598
8.12941
8.39367
8.64897
8.89553
9.13354
9.36325
9.58488
9.79866
10.0048
10.2036
10.3953
10.58
10.7581
10.9297
11.0951
11.2546
11.4082
11.5564
11.6992
11.8368
11.9696
12.0976
12.2211
12.3402
12.4551
12.5661
12.6732
12.7767
12.8767
12.9733
13.0667
13.1569
13.2442
13.3286
13.4102
13.4892
13.5657
13.6397
13.7114
13.7809
13.8482
13.9134
13.9766
14.038
14.0974
14.155
14.2109
14.2651
14.3176
14.3686
14.4179
14.4657
14.5121
14.5569
14.6002
14.6422
14.6827
14.7217
14.7594
14.7957
14.8306
14.8641
14.8962
14.927
14.9566
14.9849
15.0121
15.0381
15.0633
15.0875
15.1107
15.1329
15.151
15.1687
15.1548
-7.27535
-7.36866
-7.52086
-7.68681
-7.85392
-8.01532
-8.17057
-8.32753
-8.49437
-8.67688
-8.87906
-9.102
-9.34423
-9.60492
-9.88346
-10.1775
-10.4832
-10.7963
-11.1125
-11.4282
-11.7406
-12.0474
-12.3468
-12.6375
-12.9183
-13.1886
-13.4476
-13.6946
-13.9291
-14.1506
-14.3582
-14.5515
-14.7297
-14.892
-15.0379
-15.1664
-15.277
-15.3688
-15.4411
-15.4934
-15.5249
-15.5351
-15.5236
-15.4898
-15.4334
-15.3541
-15.2517
-15.1261
-14.9773
-14.8053
-14.6102
-14.3925
-14.1522
-13.89
-13.6062
-13.3016
-12.9768
-12.6325
-12.2697
-11.8891
-11.4918
-11.0788
-10.6511
-10.2098
-9.75611
-9.29115
-8.81607
-8.33207
-7.84033
-7.34202
-6.8383
-6.33033
-5.81921
-5.30605
-4.7919
-4.27779
-3.7647
-3.25356
-2.74525
-2.24063
-1.74047
-1.24551
-0.756425
-0.273843
0.201666
0.669583
1.12944
1.58084
2.02341
2.45684
2.88086
3.29526
3.69985
4.09449
4.47909
4.85357
5.21789
5.57203
5.91602
6.2499
6.57374
6.88763
7.19171
7.4861
7.77097
8.04648
8.31284
8.57022
8.81885
9.05893
9.29069
9.51434
9.73013
9.93828
10.139
10.3326
10.5192
10.6992
10.8726
11.0398
11.201
11.3564
11.5062
11.6506
11.7899
11.9242
12.0537
12.1787
12.2993
12.4156
12.5279
12.6364
12.7411
12.8424
12.9401
13.0347
13.126
13.2144
13.2998
13.3825
13.4625
13.5399
13.6148
13.6874
13.7577
13.8259
13.8919
13.9559
14.018
14.0781
14.1364
14.193
14.2478
14.301
14.3525
14.4024
14.4508
14.4976
14.5429
14.5867
14.6291
14.67
14.7095
14.7475
14.7841
14.8192
14.8529
14.8852
14.9161
14.9456
14.9737
15.0005
15.0259
15.0499
15.0726
15.0934
15.1123
15.1257
15.1373
15.1154
-7.08774
-7.17388
-7.3282
-7.50078
-7.68448
-7.87722
-8.07564
-8.28172
-8.49991
-8.73254
-8.9799
-9.24196
-9.51863
-9.80948
-10.1126
-10.4247
-10.7422
-11.0616
-11.3801
-11.6949
-12.004
-12.3058
-12.5988
-12.8821
-13.1549
-13.4166
-13.6666
-13.9046
-14.13
-14.3423
-14.5411
-14.7257
-14.8956
-15.0501
-15.1885
-15.3101
-15.4143
-15.5003
-15.5673
-15.6148
-15.6421
-15.6486
-15.6337
-15.597
-15.5381
-15.4567
-15.3524
-15.2253
-15.0751
-14.902
-14.7061
-14.4876
-14.2468
-13.9842
-13.7002
-13.3954
-13.0705
-12.7263
-12.3636
-11.9833
-11.5863
-11.1737
-10.7465
-10.3058
-9.85272
-9.38841
-8.91404
-8.43077
-7.93976
-7.4422
-6.93923
-6.43199
-5.9216
-5.40912
-4.89562
-4.38211
-3.86955
-3.35888
-2.85097
-2.34665
-1.8467
-1.35186
-0.862788
-0.380114
0.0955934
0.563818
1.0241
1.47601
1.91921
2.35336
2.77821
3.19353
3.59914
3.9949
4.38069
4.75644
5.12211
5.47767
5.82313
6.15855
6.48398
6.79952
7.10528
7.4014
7.68804
7.96535
8.23352
8.49273
8.7432
8.98514
9.21875
9.44425
9.66188
9.87187
10.0744
10.2698
10.4582
10.64
10.8152
10.9841
11.147
11.304
11.4555
11.6015
11.7423
11.8782
12.0092
12.1356
12.2576
12.3754
12.4891
12.5988
12.7049
12.8073
12.9063
13.002
13.0945
13.184
13.2705
13.3541
13.4351
13.5135
13.5894
13.6629
13.7341
13.8031
13.8699
13.9347
13.9976
14.0584
14.1175
14.1747
14.2302
14.284
14.3361
14.3866
14.4355
14.4829
14.5287
14.573
14.6159
14.6572
14.697
14.7354
14.7723
14.8077
14.8417
14.8741
14.905
14.9344
14.9623
14.9886
15.0132
15.0361
15.0571
15.0755
15.091
15.0999
15.1061
15.0771
-7.06273
-7.14978
-7.29757
-7.46651
-7.65352
-7.85844
-8.0781
-8.31055
-8.556
-8.81499
-9.08696
-9.37106
-9.66702
-9.97364
-10.2882
-10.6078
-10.9294
-11.2504
-11.5684
-11.8813
-12.1875
-12.4855
-12.7743
-13.0531
-13.3212
-13.578
-13.823
-14.056
-14.2763
-14.4836
-14.6773
-14.8571
-15.0222
-15.172
-15.306
-15.4234
-15.5235
-15.6056
-15.6691
-15.7133
-15.7375
-15.7411
-15.7236
-15.6845
-15.6234
-15.54
-15.4339
-15.3052
-15.1535
-14.9791
-14.7821
-14.5625
-14.3209
-14.0575
-13.7728
-13.4676
-13.1424
-12.798
-12.4352
-12.0549
-11.6581
-11.2457
-10.8189
-10.3787
-9.92615
-9.46251
-8.98888
-8.50643
-8.01631
-7.51969
-7.01769
-6.51145
-6.00207
-5.49062
-4.97813
-4.46562
-3.95403
-3.44429
-2.93726
-2.43376
-1.93458
-1.44042
-0.951961
-0.469811
0.00546789
0.473365
0.933419
1.38522
1.82842
2.26268
2.68775
3.10339
3.50942
3.90568
4.29208
4.66853
5.03497
5.3914
5.73782
6.07427
6.40081
6.71753
7.02453
7.32196
7.60995
7.88867
8.15829
8.419
8.67099
8.91447
9.14966
9.37675
9.59599
9.80758
10.0118
10.2088
10.3988
10.5821
10.7589
10.9294
11.0939
11.2525
11.4055
11.553
11.6953
11.8326
11.9651
12.0929
12.2163
12.3354
12.4504
12.5614
12.6687
12.7724
12.8725
12.9694
13.063
13.1535
13.2411
13.3258
13.4078
13.4871
13.5639
13.6383
13.7104
13.7803
13.8479
13.9135
13.9771
14.0387
14.0985
14.1564
14.2126
14.267
14.3197
14.3708
14.4203
14.4682
14.5146
14.5594
14.6027
14.6445
14.6847
14.7235
14.7607
14.7964
14.8305
14.8631
14.894
14.9233
14.9509
14.9766
15.0005
15.0222
15.0414
15.0574
15.0696
15.0743
15.0755
15.0404
-7.17628
-7.25465
-7.38556
-7.54154
-7.72037
-7.92172
-8.14287
-8.38125
-8.63519
-8.90332
-9.18393
-9.4759
-9.77827
-10.0891
-10.4058
-10.7258
-11.0468
-11.3663
-11.6823
-11.9929
-12.2967
-12.5923
-12.8789
-13.1555
-13.4214
-13.6763
-13.9194
-14.1504
-14.3689
-14.5743
-14.7661
-14.9438
-15.1068
-15.2546
-15.3864
-15.5016
-15.5996
-15.6796
-15.7409
-15.783
-15.8051
-15.8066
-15.7871
-15.7461
-15.6832
-15.598
-15.4903
-15.3599
-15.2068
-15.0311
-14.8328
-14.6121
-14.3695
-14.1052
-13.8199
-13.5141
-13.1885
-12.8439
-12.481
-12.1008
-11.7042
-11.2923
-10.8659
-10.4264
-9.97468
-9.51197
-9.03937
-8.55806
-8.06917
-7.57385
-7.07323
-6.56842
-6.06051
-5.55056
-5.03959
-4.5286
-4.01851
-3.51024
-3.00464
-2.50253
-2.00466
-1.51174
-1.02443
-0.543344
-0.0690355
0.397989
0.857275
1.30841
1.75105
2.18487
2.60959
3.025
3.43091
3.82717
4.21366
4.5903
4.95704
5.31386
5.66077
5.9978
6.32501
6.64249
6.95034
7.24868
7.53766
7.81743
8.08816
8.35003
8.60323
8.84796
9.08443
9.31285
9.53343
9.7464
9.95197
10.1504
10.3418
10.5266
10.7048
10.8767
11.0426
11.2026
11.357
11.5059
11.6496
11.7882
11.922
12.0512
12.1759
12.2962
12.4125
12.5247
12.6332
12.738
12.8393
12.9373
13.0319
13.1235
13.2121
13.2978
13.3808
13.4611
13.5388
13.6141
13.687
13.7577
13.8262
13.8926
13.9569
14.0193
14.0798
14.1384
14.1952
14.2503
14.3036
14.3553
14.4054
14.4539
14.5007
14.5461
14.5898
14.6321
14.6727
14.7119
14.7494
14.7854
14.8197
14.8524
14.8833
14.9124
14.9397
14.9649
14.9879
15.0083
15.0258
15.0394
15.0485
15.0492
15.046
15.0056
-7.35431
-7.41883
-7.5297
-7.66819
-7.83214
-8.02106
-8.2326
-8.46406
-8.71296
-8.97696
-9.25382
-9.54235
-9.84129
-10.1484
-10.4614
-10.7777
-11.0951
-11.4113
-11.7246
-12.033
-12.3352
-12.6298
-12.9158
-13.1922
-13.4584
-13.7136
-13.9573
-14.1889
-14.408
-14.6139
-14.8061
-14.984
-15.1471
-15.2947
-15.4262
-15.5408
-15.638
-15.7171
-15.7774
-15.8182
-15.839
-15.8392
-15.8183
-15.7757
-15.7113
-15.6246
-15.5154
-15.3836
-15.2292
-15.0522
-14.8528
-14.6311
-14.3876
-14.1227
-13.8369
-13.5307
-13.205
-12.8603
-12.4977
-12.1179
-11.7219
-11.3107
-10.8854
-10.4469
-9.99654
-9.53527
-9.06426
-8.58465
-8.09758
-7.60418
-7.10555
-6.60279
-6.09697
-5.58913
-5.08029
-4.57142
-4.06345
-3.55727
-3.05372
-2.55359
-2.05765
-1.56658
-1.08104
-0.601619
-0.128878
0.336687
0.794627
1.24454
1.68607
2.1189
2.54277
2.95744
3.36273
3.7585
4.14461
4.52099
4.8876
5.24439
5.59138
5.9286
6.25611
6.57398
6.88232
7.18124
7.47088
7.75139
8.02292
8.28567
8.53981
8.78553
9.02304
9.25255
9.47426
9.68839
9.89515
10.0948
10.2875
10.4734
10.6529
10.8261
10.9933
11.1546
11.3102
11.4604
11.6054
11.7453
11.8803
12.0107
12.1366
12.2581
12.3756
12.489
12.5986
12.7045
12.8069
12.9059
13.0016
13.0942
13.1838
13.2704
13.3543
13.4355
13.5142
13.5903
13.6641
13.7356
13.8049
13.8721
13.9372
14.0003
14.0614
14.1207
14.1782
14.2339
14.2879
14.3402
14.3909
14.4399
14.4873
14.5331
14.5774
14.6201
14.6612
14.7007
14.7386
14.7748
14.8093
14.8421
14.873
14.902
14.9289
14.9536
14.9757
14.9948
15.0106
15.0219
15.028
15.025
15.0177
14.9729
-7.52879
-7.58024
-7.6728
-7.79343
-7.94017
-8.11245
-8.3082
-8.52504
-8.76047
-9.01195
-9.27745
-9.55584
-9.84569
-10.1448
-10.4507
-10.761
-11.0735
-11.3861
-11.6967
-12.0036
-12.3052
-12.6001
-12.8871
-13.1653
-13.4336
-13.6912
-13.9374
-14.1717
-14.3932
-14.6015
-14.7959
-14.9757
-15.1404
-15.2892
-15.4216
-15.5369
-15.6344
-15.7135
-15.7735
-15.8138
-15.8338
-15.8331
-15.8111
-15.7675
-15.7018
-15.6139
-15.5035
-15.3706
-15.2152
-15.0372
-14.8369
-14.6146
-14.3706
-14.1054
-13.8195
-13.5134
-13.188
-12.8439
-12.482
-12.1032
-11.7085
-11.2987
-10.875
-10.4384
-9.98999
-9.53089
-9.06221
-8.58507
-8.10057
-7.60985
-7.11398
-6.61405
-6.1111
-5.60617
-5.10024
-4.59427
-4.08917
-3.58583
-3.08507
-2.58766
-2.09434
-1.60581
-1.1227
-0.645607
-0.175068
0.288424
0.744424
1.19253
1.6324
2.0637
2.48619
2.89963
3.30382
3.69863
4.08393
4.45963
4.82568
5.18206
5.52876
5.86581
6.19327
6.51121
6.81972
7.11892
7.40893
7.6899
7.96199
8.22537
8.48021
8.72671
8.96505
9.19544
9.41809
9.6332
9.84098
10.0417
10.2354
10.4225
10.6031
10.7775
10.9458
11.1083
11.2651
11.4164
11.5626
11.7037
11.8399
11.9714
12.0984
12.2211
12.3396
12.4542
12.5648
12.6718
12.7752
12.8753
12.972
13.0656
13.1561
13.2437
13.3285
13.4106
13.4901
13.5671
13.6418
13.7141
13.7841
13.8521
13.9179
13.9817
14.0436
14.1036
14.1617
14.2181
14.2727
14.3256
14.3768
14.4264
14.4743
14.5207
14.5654
14.6086
14.6501
14.69
14.7282
14.7647
14.7995
14.8323
14.8633
14.8921
14.9187
14.9428
14.964
14.9819
14.996
15.0051
15.0084
15.0021
14.9911
14.9426
-7.65547
-7.69767
-7.77486
-7.87885
-8.00817
-8.16235
-8.33963
-8.53805
-8.75557
-8.98999
-9.23994
-9.50469
-9.78277
-10.0719
-10.3696
-10.6734
-10.9811
-11.2905
-11.5993
-11.9058
-12.2082
-12.505
-12.7947
-13.0762
-13.3483
-13.61
-13.8605
-14.0989
-14.3245
-14.5365
-14.7342
-14.9171
-15.0844
-15.2354
-15.3695
-15.4861
-15.5845
-15.6641
-15.7242
-15.7644
-15.7841
-15.7828
-15.7601
-15.7156
-15.6491
-15.5603
-15.4491
-15.3154
-15.1593
-14.9808
-14.7802
-14.5577
-14.3138
-14.0488
-13.7634
-13.4582
-13.1338
-12.7911
-12.4308
-12.0538
-11.6612
-11.2538
-10.8326
-10.3988
-9.95337
-9.49742
-9.03205
-8.55834
-8.07741
-7.59034
-7.0982
-6.60205
-6.10292
-5.60181
-5.09969
-4.59751
-4.09615
-3.59648
-3.09932
-2.60542
-2.1155
-1.63025
-1.15029
-0.67621
-0.208537
0.25224
0.705683
1.1514
1.58903
2.01827
2.43886
2.85056
3.25319
3.64658
4.03063
4.40524
4.77036
5.12594
5.472
5.80855
6.13565
6.45335
6.76175
7.06096
7.35109
7.63229
7.9047
8.16849
8.42383
8.6709
8.90989
9.141
9.36442
9.58036
9.78903
9.99062
10.1854
10.3734
10.5551
10.7305
10.8998
11.0634
11.2213
11.3737
11.521
11.6632
11.8005
11.9331
12.0612
12.185
12.3046
12.4201
12.5319
12.6399
12.7443
12.8453
12.943
13.0375
13.129
13.2175
13.3032
13.3862
13.4666
13.5444
13.6199
13.693
13.7638
13.8325
13.8991
13.9636
14.0262
14.0868
14.1456
14.2026
14.2579
14.3114
14.3632
14.4133
14.4618
14.5087
14.554
14.5976
14.6395
14.6798
14.7184
14.7552
14.7902
14.8232
14.8541
14.8829
14.9091
14.9326
14.953
14.9698
14.9822
14.9892
14.99
14.9807
14.9664
14.9147
-7.71042
-7.74862
-7.81419
-7.90323
-8.01553
-8.15104
-8.30871
-8.48719
-8.68492
-8.90036
-9.13302
-9.38279
-9.6483
-9.92715
-10.2168
-10.5146
-10.8183
-11.1255
-11.4338
-11.7413
-12.046
-12.346
-12.6399
-12.926
-13.2032
-13.4703
-13.7261
-13.9697
-14.2002
-14.4168
-14.6187
-14.8052
-14.9756
-15.1292
-15.2654
-15.3836
-15.4831
-15.5635
-15.624
-15.6643
-15.6839
-15.6823
-15.6592
-15.6142
-15.5472
-15.458
-15.3464
-15.2125
-15.0563
-14.8779
-14.6777
-14.4559
-14.2128
-13.9491
-13.6652
-13.3617
-13.0395
-12.6991
-12.3415
-11.9675
-11.5781
-11.1742
-10.7568
-10.3269
-9.88565
-9.43402
-8.97311
-8.504
-8.02777
-7.54548
-7.05817
-6.56688
-6.07262
-5.57637
-5.07907
-4.58164
-4.08497
-3.58988
-3.09718
-2.60764
-2.12195
-1.64077
-1.16471
-0.694359
-0.23024
0.227166
0.677427
1.12015
1.55498
1.98162
2.39979
2.80926
3.20986
3.60141
3.98379
4.35692
4.72072
5.07517
5.42026
5.756
6.08244
6.39963
6.70766
7.00663
7.29665
7.57785
7.85038
8.1144
8.37006
8.61754
8.85703
9.08871
9.31277
9.52941
9.73883
9.94124
10.1368
10.3258
10.5084
10.6847
10.8551
11.0196
11.1785
11.332
11.4803
11.6235
11.7619
11.8956
12.0247
12.1495
12.2702
12.3868
12.4995
12.6085
12.7139
12.8159
12.9145
13.01
13.1024
13.1918
13.2784
13.3622
13.4435
13.5221
13.5984
13.6723
13.7439
13.8134
13.8807
13.9459
14.0092
14.0705
14.13
14.1876
14.2435
14.2976
14.35
14.4008
14.4498
14.4972
14.543
14.5871
14.6295
14.6702
14.7092
14.7463
14.7815
14.8147
14.8457
14.8743
14.9002
14.9232
14.9429
14.9585
14.9695
14.9746
14.9729
14.961
14.9436
14.8893
-7.69551
-7.72967
-7.78642
-7.86166
-7.95678
-8.0726
-8.20913
-8.366
-8.54243
-8.73772
-8.95234
-9.18676
-9.43974
-9.7088
-9.99122
-10.2843
-10.5855
-10.892
-11.2015
-11.5116
-11.8201
-12.1249
-12.4241
-12.7161
-12.9994
-13.2725
-13.5342
-13.7834
-14.0192
-14.2406
-14.4467
-14.6369
-14.8104
-14.9666
-15.1048
-15.2246
-15.3253
-15.4064
-15.4675
-15.5081
-15.5277
-15.5261
-15.503
-15.458
-15.391
-15.3019
-15.1907
-15.0573
-14.9019
-14.7246
-14.5258
-14.3056
-14.0646
-13.8032
-13.522
-13.2216
-12.9027
-12.566
-12.2125
-11.8428
-11.458
-11.059
-10.6467
-10.2221
-9.78637
-9.34041
-8.88529
-8.42209
-7.95183
-7.47556
-6.9943
-6.50906
-6.02081
-5.53052
-5.03911
-4.54748
-4.05648
-3.56694
-3.07963
-2.59531
-2.11468
-1.63838
-1.167
-0.701112
-0.241236
0.212147
0.658602
1.09774
1.52921
1.95271
2.36796
2.77474
3.17286
3.56214
3.94247
4.31374
4.6759
5.02888
5.3727
5.70734
6.03286
6.34929
6.65672
6.95523
7.24493
7.52595
7.79843
8.0625
8.31833
8.56608
8.80593
9.03805
9.26264
9.47988
9.68997
9.89309
10.0894
10.2792
10.4627
10.6399
10.8112
10.9767
11.1366
11.2911
11.4403
11.5846
11.7239
11.8586
11.9888
12.1146
12.2363
12.3539
12.4676
12.5776
12.684
12.7869
12.8865
12.9829
13.0761
13.1665
13.2539
13.3386
13.4207
13.5002
13.5773
13.652
13.7244
13.7946
13.8626
13.9286
13.9926
14.0546
14.1147
14.173
14.2295
14.2843
14.3373
14.3886
14.4382
14.4862
14.5325
14.5771
14.62
14.6611
14.7005
14.738
14.7734
14.8068
14.8379
14.8664
14.8921
14.9147
14.9336
14.9482
14.9578
14.9612
14.9574
14.943
14.923
14.8665
-7.63083
-7.6559
-7.702
-7.76069
-7.8355
-7.92845
-8.04079
-8.17339
-8.32647
-8.50032
-8.69637
-8.9156
-9.15679
-9.41724
-9.69397
-9.98398
-10.2843
-10.592
-10.9043
-11.2185
-11.532
-11.8425