/*--------------------------------*- C++ -*----------------------------------*\
  =========                 |
  \\      /  F ield         | OpenFOAM: The Open Source CFD Toolbox
   \\    /   O peration     | Website:  https://openfoam.org
    \\  /    A nd           | Version:  8
     \\/     M anipulation  |
\*---------------------------------------------------------------------------*/
FoamFile
{
    version     2.0;
    format      ascii;
    class       volScalarField;
    location    "2400";
    object      p;
}
// * * * * * * * * * * * * * * * * * * * * * * * * * * * * * * * * * * * * * //

dimensions      [0 2 -2 0 0 0 0];

internalField   nonuniform List<scalar> 
12225
(
514.676
55.5278
2.36343
0.28132
-1.89915
-3.3747
-3.81193
-4.02234
-4.23209
-4.36899
-4.41614
-4.42575
-4.42874
-4.45669
-4.51006
-4.5765
-4.72187
-4.9444
-122.179
0.238523
-2.71879
-0.765475
-2.21684
-3.52529
-3.95301
-4.13711
-4.2808
-4.38479
-4.45971
-4.51802
-4.56896
-4.60132
-4.62225
-4.64777
-4.71438
-4.80838
-200.646
-16.1488
-2.3468
-0.358698
-1.90118
-3.24516
-3.77257
-4.02281
-4.1955
-4.31976
-4.41244
-4.47964
-4.52826
-4.55349
-4.56853
-4.58406
-4.61593
-4.59909
-110.617
-10.9744
-2.17751
-0.432406
-1.78811
-3.02918
-3.60167
-3.90886
-4.11813
-4.26392
-4.36629
-4.43697
-4.48568
-4.51425
-4.53157
-4.53939
-4.53833
-4.46963
-61.5732
-8.14623
-3.62297
-1.21041
-2.01563
-2.99874
-3.52963
-3.8494
-4.07191
-4.22659
-4.33422
-4.40887
-4.46022
-4.49133
-4.5066
-4.50397
-4.47776
-4.3876
-45.7312
-8.78567
-5.25918
-2.20075
-2.43038
-3.10153
-3.53699
-3.83396
-4.04994
-4.20376
-4.31282
-4.38954
-4.44197
-4.47289
-4.48443
-4.47367
-4.43358
-4.33902
-35.795
-9.27693
-6.38097
-3.12519
-2.9224
-3.29049
-3.60439
-3.85529
-4.05071
-4.19589
-4.30187
-4.37766
-4.42926
-4.45899
-4.46791
-4.4533
-4.4093
-4.32224
-27.7785
-8.90771
-6.97443
-3.80345
-3.36247
-3.49931
-3.70138
-3.90086
-4.07022
-4.20249
-4.30225
-4.375
-4.42491
-4.45374
-4.46207
-4.44776
-4.40676
-4.33202
-21.6905
-8.52067
-7.13514
-4.31133
-3.72977
-3.70693
-3.81721
-3.96557
-4.10587
-4.22214
-4.3132
-4.38126
-4.42872
-4.45666
-4.46535
-4.45338
-4.41837
-4.35737
-16.6133
-8.14135
-7.0888
-4.75622
-4.08408
-3.93529
-3.96017
-4.05362
-4.15999
-4.25619
-4.33565
-4.39726
-4.44148
-4.46866
-4.47884
-4.47135
-4.44541
-4.40092
-12.6396
-7.68155
-6.90683
-5.10252
-4.40771
-4.17128
-4.12287
-4.16243
-4.23263
-4.30599
-4.37158
-4.4253
-4.4658
-4.49261
-4.5056
-4.50475
-4.49048
-4.4643
-9.6997
-7.14947
-6.62994
-5.32736
-4.67957
-4.39808
-4.29541
-4.28769
-4.32287
-4.37253
-4.42305
-4.46807
-4.50473
-4.53178
-4.54895
-4.55654
-4.55564
-4.54834
-7.66676
-6.60543
-6.30671
-5.43235
-4.88402
-4.59823
-4.46462
-4.42147
-4.42675
-4.45453
-4.49051
-4.52711
-4.56042
-4.5886
-4.61111
-4.62832
-4.64139
-4.65229
-6.37168
-6.11377
-5.98645
-5.44109
-5.01668
-4.7585
-4.61707
-4.55341
-4.5374
-4.54799
-4.57207
-4.60191
-4.63316
-4.66359
-4.69235
-4.71959
-4.74617
-4.77352
-5.62344
-5.72312
-5.70977
-5.39161
-5.08669
-4.87378
-4.74256
-4.673
-4.646
-4.64621
-4.66285
-4.68895
-4.72022
-4.75424
-4.78988
-4.82692
-4.86572
-4.90705
-5.24414
-5.46093
-5.50886
-5.32831
-5.11578
-4.94871
-4.83643
-4.77144
-4.74275
-4.73989
-4.75456
-4.78083
-4.81477
-4.85391
-4.89689
-4.94307
-4.99236
-5.04492
-5.10291
-5.34504
-5.41771
-5.29971
-5.13567
-4.99655
-4.89889
-4.84098
-4.81587
-4.81567
-4.83351
-4.8641
-4.90368
-4.94973
-5.00062
-5.0554
-5.11357
-5.17489
-5.14065
-5.40085
-5.47495
-5.34879
-5.17496
-5.02922
-4.92895
-4.87173
-4.84979
-4.85463
-4.87881
-4.91663
-4.96399
-5.01807
-5.07697
-5.13948
-5.20485
-5.27266
-5.39294
-5.6553
-5.69099
-5.47585
-5.22662
-5.03623
-4.91509
-4.85201
-4.83294
-4.8452
-4.87883
-4.92666
-4.98378
-5.04696
-5.11411
-5.18389
-5.2555
-5.3285
-6.00234
-6.13714
-6.04289
-5.63537
-5.24736
-4.98758
-4.84103
-4.77607
-4.76653
-4.79287
-4.84141
-4.90323
-4.97274
-5.04654
-5.12256
-5.19962
-5.27707
-5.3547
-7.24996
-6.88978
-6.49445
-5.76213
-5.18335
-4.85322
-4.69658
-4.64641
-4.66031
-4.7108
-4.78099
-4.86097
-4.94524
-5.03072
-5.11592
-5.20009
-5.28297
-5.36469
-9.64147
-7.96486
-6.98287
-5.77216
-4.97983
-4.61242
-4.4822
-4.47395
-4.52877
-4.61407
-4.71177
-4.81285
-4.91285
-5.01002
-5.10383
-5.19436
-5.28188
-5.36691
-13.9827
-9.39134
-7.40346
-5.56983
-4.59505
-4.2645
-4.21535
-4.27998
-4.39212
-4.51955
-4.6476
-4.77001
-4.88495
-4.99225
-5.09302
-5.18847
-5.27937
-5.36671
-20.8902
-10.9543
-7.55448
-5.05755
-4.01618
-3.83617
-3.9303
-4.09446
-4.27256
-4.44338
-4.59987
-4.74104
-4.8679
-4.98249
-5.08769
-5.18601
-5.27874
-5.36704
-29.7369
-11.9497
-7.03383
-4.12644
-3.26438
-3.37832
-3.67143
-3.94722
-4.18955
-4.39756
-4.57612
-4.73027
-4.86465
-4.98277
-5.08955
-5.18873
-5.28163
-5.3695
-43.1068
-12.6143
-5.47311
-2.72929
-2.4136
-2.96381
-3.48466
-3.86281
-4.1541
-4.38642
-4.57816
-4.73821
-4.87443
-4.99146
-5.09688
-5.19564
-5.28753
-5.37432
-84.5998
-17.3738
-3.66442
-1.26578
-1.69637
-2.72221
-3.4366
-3.8704
-4.17398
-4.41112
-4.60724
-4.76821
-4.90009
-5.00777
-5.10583
-5.20271
-5.29238
-5.37727
-177.886
-26.8499
-3.68048
-0.770558
-1.53546
-2.84344
-3.6145
-4.0157
-4.27161
-4.4677
-4.65162
-4.81632
-4.95343
-5.04889
-5.13351
-5.22497
-5.30371
-5.38085
-154.791
-9.6276
-3.27272
-1.06864
-1.84347
-3.22126
-3.9141
-4.22547
-4.41805
-4.55957
-4.7029
-4.85444
-5.0076
-5.11892
-5.20626
-5.30253
-5.37591
-5.44141
428.057
66.6052
7.05563
1.59907
-0.915964
-2.85731
-3.65338
-3.99515
-4.3108
-4.57768
-4.70787
-4.75673
-4.80072
-4.90926
-5.03897
-5.13184
-5.2376
-5.34174
-8.52573
-8.5129
-8.50226
-8.54364
-8.63667
-8.74037
-8.82029
-8.8603
-8.86395
-8.84628
-8.81886
-8.79029
-8.76862
-8.75981
-8.76482
-8.77746
-8.78868
-8.79381
-8.79304
-8.79098
-8.79547
-8.82817
-8.9184
-9.08975
-9.34276
-9.66054
-10.0317
-10.4455
-10.8865
-11.3385
-11.7865
-12.2185
-12.6252
-13
-13.3387
-13.6386
-13.899
-14.1197
-14.3014
-14.4453
-14.5524
-14.6243
-14.6621
-14.6675
-14.6415
-14.5856
-14.5014
-14.3912
-14.2563
-14.0944
-13.903
-13.6833
-13.4381
-13.1691
-12.8775
-12.5645
-12.231
-11.8781
-11.5068
-11.1181
-10.7132
-10.2931
-9.85904
-9.4121
-8.95349
-8.48439
-8.006
-7.51951
-7.02614
-6.52705
-6.02341
-5.51637
-5.00703
-4.49647
-3.98575
-3.47586
-2.96775
-2.46235
-1.96051
-1.46304
-0.970689
-0.48417
-0.00412432
0.468855
0.934233
1.39153
1.84031
2.28022
2.71092
3.13217
3.54377
3.94552
4.33726
4.71897
5.09088
5.45301
5.8049
6.14614
6.47673
6.7969
7.1069
7.40692
7.69716
7.97779
8.249
8.51099
8.76397
9.00816
9.24377
9.47102
9.69013
9.90134
10.1049
10.3011
10.4901
10.6721
10.8475
11.0165
11.1792
11.336
11.487
11.6325
11.7726
11.9077
12.0378
12.1633
12.2842
12.4008
12.5132
12.6217
12.7263
12.8274
12.9254
13.0201
13.1115
13.1998
13.2852
13.3676
13.4474
13.5246
13.5993
13.6716
13.7417
13.8096
13.8754
13.9391
14.001
14.061
14.1191
14.1756
14.2303
14.2834
14.335
14.385
14.4334
14.4805
14.526
14.5702
14.613
14.6544
14.6945
14.7333
14.7707
14.8068
14.8417
14.8753
14.9077
14.939
14.9691
14.9983
15.0266
15.0543
15.0818
15.1095
15.1382
15.169
15.2044
15.246
15.3039
15.3643
-8.58318
-8.61443
-8.68839
-8.78199
-8.88545
-8.97766
-9.0389
-9.06329
-9.04623
-8.98578
-8.89602
-8.79919
-8.71757
-8.66629
-8.64423
-8.64103
-8.65059
-8.67604
-8.71132
-8.73156
-8.7559
-8.83386
-8.99361
-9.23318
-9.54006
-9.91104
-10.3368
-10.7969
-11.2698
-11.7376
-12.1878
-12.6109
-13.0007
-13.3532
-13.6667
-13.9409
-14.1763
-14.3739
-14.5347
-14.66
-14.7509
-14.8086
-14.834
-14.8281
-14.7916
-14.7252
-14.6294
-14.504
-14.3498
-14.1698
-13.9677
-13.7438
-13.4971
-13.2278
-12.9366
-12.6242
-12.2914
-11.9393
-11.5688
-11.1809
-10.7766
-10.3572
-9.92373
-9.47732
-9.01915
-8.55041
-8.0723
-7.58602
-7.09277
-6.59371
-6.09003
-5.58286
-5.0733
-4.56246
-4.05136
-3.54102
-3.0324
-2.5264
-2.02389
-1.52568
-1.03253
-0.545154
-0.0641936
0.409749
0.876131
1.33446
1.78429
2.22524
2.65695
3.07911
3.49148
3.8938
4.28585
4.66753
5.03892
5.40023
5.75166
6.09323
6.4248
6.74626
7.05765
7.35909
7.65073
7.93276
8.20534
8.46867
8.72297
8.96844
9.20531
9.43383
9.6542
9.86667
10.0715
10.2688
10.459
10.6422
10.8187
10.9888
11.1526
11.3104
11.4625
11.6089
11.7501
11.8861
12.0173
12.1438
12.2658
12.3835
12.497
12.6065
12.7123
12.8141
12.9122
13.0069
13.0985
13.187
13.2726
13.3554
13.4354
13.5129
13.5879
13.6606
13.7309
13.7991
13.8652
13.9293
13.9914
14.0517
14.1101
14.1668
14.2218
14.2752
14.327
14.3772
14.4259
14.4732
14.519
14.5633
14.6063
14.6479
14.6882
14.7271
14.7647
14.801
14.836
14.8698
14.9023
14.9337
14.964
14.9933
15.0217
15.0496
15.0771
15.1049
15.1336
15.1643
15.1992
15.2387
15.2924
15.3422
-8.7102
-8.79203
-8.90999
-9.01582
-9.09871
-9.15255
-9.17318
-9.15936
-9.10978
-9.02669
-8.91915
-8.80377
-8.70401
-8.63946
-8.61072
-8.60589
-8.6249
-8.68162
-8.78523
-8.93227
-9.12261
-9.36336
-9.6574
-9.99652
-10.3686
-10.7643
-11.1737
-11.585
-11.9876
-12.3742
-12.7401
-13.0816
-13.396
-13.6816
-13.9374
-14.1628
-14.3578
-14.5223
-14.6566
-14.761
-14.8359
-14.8816
-14.8987
-14.8875
-14.8484
-14.7819
-14.6885
-14.5679
-14.4203
-14.2466
-14.0483
-13.8263
-13.5812
-13.3136
-13.0241
-12.7135
-12.3826
-12.0323
-11.6635
-11.2773
-10.8747
-10.4567
-10.0245
-9.57929
-9.12216
-8.65432
-8.17696
-7.69128
-7.19848
-6.69974
-6.19622
-5.68908
-5.17943
-4.66835
-4.15691
-3.64609
-3.13689
-2.6302
-2.1269
-1.62782
-1.13371
-0.645282
-0.163205
0.311923
0.779555
1.2392
1.6904
2.13279
2.56601
2.98979
3.40388
3.80808
4.20225
4.58629
4.96018
5.32392
5.67755
6.02107
6.35446
6.67772
6.99092
7.29417
7.58762
7.87143
8.14578
8.41086
8.66688
8.91404
9.15258
9.38272
9.60469
9.81871
10.025
10.2239
10.4155
10.6001
10.778
10.9494
11.1145
11.2736
11.4269
11.5746
11.7169
11.854
11.9862
12.1135
12.2363
12.3547
12.4689
12.579
12.6853
12.7879
12.887
12.9828
13.0754
13.1649
13.2514
13.335
13.4159
13.4941
13.5699
13.6432
13.7142
13.783
13.8497
13.9144
13.977
14.0378
14.0968
14.1539
14.2094
14.2632
14.3154
14.366
14.4151
14.4626
14.5088
14.5535
14.5968
14.6387
14.6792
14.7184
14.7562
14.7928
14.828
14.862
14.8947
14.9262
14.9567
14.9861
15.0147
15.0426
15.0702
15.0979
15.1264
15.1565
15.19
15.2266
15.2739
15.3075
-8.74962
-8.84706
-8.94833
-9.03485
-9.09929
-9.13899
-9.15144
-9.13404
-9.08677
-9.01466
-8.92892
-8.84637
-8.78516
-8.75818
-8.7703
-8.82361
-8.92199
-9.0691
-9.26554
-9.5063
-9.78257
-10.0871
-10.414
-10.7568
-11.1102
-11.469
-11.8278
-12.1814
-12.5253
-12.8553
-13.1683
-13.4613
-13.7324
-13.9799
-14.2025
-14.3993
-14.5697
-14.7133
-14.8299
-14.9194
-14.9819
-15.0175
-15.0261
-15.0081
-14.9634
-14.8923
-14.7952
-14.6723
-14.5241
-14.3512
-14.1543
-13.9339
-13.6904
-13.4244
-13.1366
-12.8277
-12.4984
-12.1497
-11.7825
-11.3977
-10.9963
-10.5795
-10.1484
-9.70401
-9.24758
-8.78028
-8.30331
-7.81787
-7.32514
-6.82631
-6.32255
-5.81502
-5.30483
-4.79308
-4.28082
-3.76907
-3.2588
-2.75093
-2.24635
-1.74587
-1.25027
-0.760276
-0.276542
0.200318
0.669749
1.13125
1.58438
2.02874
2.46398
2.88983
3.30603
3.7124
4.10879
4.49511
4.87132
5.23738
5.59327
5.93896
6.27446
6.59981
6.91508
7.2204
7.5159
7.80174
8.07809
8.34515
8.60312
8.8522
9.09262
9.3246
9.54836
9.76414
9.97217
10.1727
10.366
10.5522
10.7317
10.9046
11.0712
11.2317
11.3863
11.5353
11.6789
11.8172
11.9506
12.0791
12.203
12.3226
12.4378
12.549
12.6564
12.76
12.8601
12.9569
13.0505
13.1409
13.2283
13.3128
13.3945
13.4735
13.55
13.6241
13.6958
13.7653
13.8326
13.8978
13.9611
14.0224
14.0819
14.1395
14.1955
14.2497
14.3024
14.3534
14.4029
14.4509
14.4974
14.5424
14.5861
14.6283
14.6691
14.7086
14.7467
14.7835
14.819
14.8532
14.8861
14.9178
14.9484
14.9779
15.0065
15.0344
15.0618
15.0892
15.117
15.1459
15.1773
15.2098
15.2491
15.2677
-8.53775
-8.62266
-8.72276
-8.81986
-8.89721
-8.94993
-8.97702
-8.97929
-8.96121
-8.93109
-8.90101
-8.88494
-8.89568
-8.9428
-9.0325
-9.16791
-9.34913
-9.57158
-9.82684
-10.1069
-10.4061
-10.7204
-11.0455
-11.3762
-11.7082
-12.0379
-12.3618
-12.6768
-12.9802
-13.2695
-13.5427
-13.7981
-14.0344
-14.2502
-14.4446
-14.6167
-14.7658
-14.8913
-14.9929
-15.07
-15.1225
-15.1501
-15.1527
-15.1301
-15.0824
-15.0095
-14.9115
-14.7885
-14.6409
-14.4691
-14.2734
-14.0543
-13.8122
-13.5477
-13.2614
-12.9539
-12.6262
-12.2789
-11.9129
-11.5293
-11.1291
-10.7133
-10.2829
-9.83924
-9.38335
-8.91646
-8.43975
-7.9544
-7.46162
-6.96259
-6.4585
-5.95048
-5.43967
-4.92716
-4.41402
-3.90126
-3.38986
-2.88076
-2.37483
-1.87291
-1.37577
-0.884145
-0.398698
0.0799544
0.551253
1.01469
1.46982
1.91624
2.35361
2.78162
3.20005
3.60867
4.00736
4.39599
4.7745
5.14284
5.50099
5.84892
6.18665
6.51422
6.83172
7.13925
7.43695
7.72497
8.00348
8.27267
8.53274
8.78389
9.02636
9.26035
9.4861
9.70382
9.91375
10.1161
10.3112
10.4992
10.6804
10.855
11.0232
11.1853
11.3415
11.492
11.637
11.7768
11.9115
12.0414
12.1667
12.2875
12.404
12.5165
12.625
12.7297
12.8309
12.9288
13.0233
13.1147
13.203
13.2883
13.3709
13.4507
13.528
13.6029
13.6753
13.7455
13.8135
13.8794
13.9433
14.0052
14.0653
14.1235
14.18
14.2348
14.2879
14.3395
14.3894
14.4378
14.4848
14.5302
14.5742
14.6168
14.658
14.6978
14.7362
14.7733
14.809
14.8435
14.8766
14.9085
14.9392
14.9687
14.9973
15.025
15.0521
15.0789
15.1058
15.1331
15.1617
15.1895
15.2211
15.2272
-8.1178
-8.2062
-8.32713
-8.44982
-8.55505
-8.63547
-8.69378
-8.73586
-8.76934
-8.80399
-8.85079
-8.92003
-9.01974
-9.15474
-9.32722
-9.53621
-9.77703
-10.0441
-10.332
-10.6353
-10.9482
-11.2662
-11.5851
-11.9017
-12.213
-12.5169
-12.8115
-13.0953
-13.3667
-13.6244
-13.8673
-14.0942
-14.3041
-14.496
-14.6689
-14.822
-14.9546
-15.066
-15.1555
-15.2227
-15.267
-15.288
-15.2854
-15.2589
-15.2084
-15.1337
-15.0347
-14.9115
-14.7642
-14.593
-14.3983
-14.1803
-13.9395
-13.6763
-13.3914
-13.0854
-12.7591
-12.4131
-12.0485
-11.6662
-11.267
-10.8522
-10.4228
-9.97984
-9.52455
-9.05811
-8.5817
-8.0965
-7.60372
-7.10454
-6.60013
-6.09167
-5.58027
-5.06703
-4.55303
-4.03928
-3.52678
-3.01646
-2.5092
-2.00585
-1.50719
-1.01395
-0.526793
-0.0463541
0.426808
0.892182
1.34931
1.7978
2.23729
2.66748
3.08812
3.49901
3.89999
4.29093
4.67175
5.0424
5.40283
5.75305
6.09306
6.42292
6.7427
7.0525
7.35246
7.64274
7.92349
8.19491
8.45717
8.71049
8.95508
9.19116
9.41895
9.63869
9.85061
10.0549
10.2519
10.4418
10.6248
10.8012
10.9712
11.135
11.2928
11.4449
11.5916
11.7329
11.8691
12.0005
12.1272
12.2493
12.3672
12.4809
12.5907
12.6967
12.799
12.898
12.9936
13.0859
13.1752
13.2616
13.3451
13.4259
13.504
13.5797
13.653
13.724
13.7927
13.8594
13.9239
13.9866
14.0473
14.1061
14.1632
14.2186
14.2723
14.3243
14.3748
14.4237
14.4711
14.517
14.5614
14.6044
14.646
14.6862
14.7249
14.7623
14.7983
14.833
14.8663
14.8984
14.9291
14.9587
14.9872
15.0147
15.0414
15.0674
15.0931
15.1184
15.1439
15.1669
15.1912
15.1867
-7.65279
-7.75147
-7.89352
-8.04231
-8.18025
-8.29889
-8.40178
-8.49828
-8.59777
-8.70918
-8.84013
-8.99552
-9.17808
-9.38826
-9.62437
-9.88429
-10.165
-10.462
-10.7698
-11.0834
-11.3986
-11.7119
-12.0205
-12.3224
-12.616
-12.9
-13.1733
-13.4352
-13.6846
-13.9207
-14.1427
-14.3498
-14.5412
-14.7159
-14.8732
-15.0122
-15.1323
-15.2327
-15.3127
-15.3716
-15.409
-15.4243
-15.4171
-15.3869
-15.3335
-15.2567
-15.1563
-15.0322
-14.8846
-14.7135
-14.519
-14.3016
-14.0615
-13.7993
-13.5154
-13.2105
-12.8853
-12.5406
-12.1772
-11.796
-11.3981
-10.9843
-10.5559
-10.1139
-9.65949
-9.19378
-8.71799
-8.2333
-7.7409
-7.24197
-6.7377
-6.22922
-5.71767
-5.20416
-4.68974
-4.17545
-3.66228
-3.15115
-2.64297
-2.13857
-1.63875
-1.14423
-0.655699
-0.173777
0.300965
0.76801
1.2269
1.67722
2.11862
2.5508
2.97348
3.38647
3.78958
4.18269
4.5657
4.93856
5.30121
5.65364
5.99588
6.32799
6.65001
6.96207
7.26429
7.55681
7.83979
8.11341
8.37787
8.63337
8.88011
9.11832
9.34821
9.57002
9.78397
9.99031
10.1893
10.3811
10.566
10.7442
10.916
11.0816
11.2412
11.395
11.5433
11.6862
11.824
11.9569
12.0851
12.2087
12.3279
12.443
12.5541
12.6614
12.765
12.8651
12.9618
13.0553
13.1457
13.2331
13.3176
13.3993
13.4784
13.555
13.6292
13.701
13.7706
13.838
13.9033
13.9667
14.0281
14.0876
14.1454
14.2014
14.2556
14.3083
14.3593
14.4087
14.4566
14.503
14.5479
14.5914
14.6333
14.6739
14.713
14.7507
14.7871
14.822
14.8555
14.8877
14.9186
14.9481
14.9765
15.0036
15.0297
15.0548
15.0791
15.1023
15.1245
15.1426
15.1603
15.1464
-7.29715
-7.39062
-7.54266
-7.70838
-7.87521
-8.03618
-8.19078
-8.34689
-8.51275
-8.69417
-8.8952
-9.11705
-9.35828
-9.61804
-9.89575
-10.1891
-10.4943
-10.8071
-11.1231
-11.4388
-11.7513
-12.0583
-12.3579
-12.6489
-12.9301
-13.2007
-13.46
-13.7074
-13.9423
-14.164
-14.3721
-14.5657
-14.7442
-14.907
-15.0532
-15.1821
-15.2929
-15.3851
-15.4577
-15.5103
-15.5421
-15.5526
-15.5413
-15.5078
-15.4517
-15.3726
-15.2705
-15.1451
-14.9965
-14.8247
-14.6298
-14.4122
-14.1722
-13.9101
-13.6265
-13.322
-12.9974
-12.6532
-12.2905
-11.91
-11.5128
-11.0999
-10.6723
-10.2311
-9.7775
-9.31258
-8.83755
-8.35359
-7.86186
-7.36356
-6.85984
-6.35184
-5.8407
-5.3275
-4.81329
-4.29912
-3.78594
-3.27471
-2.76631
-2.26157
-1.76129
-1.2662
-0.776968
-0.294234
0.181436
0.649521
1.10956
1.56114
2.0039
2.43752
2.86174
3.27634
3.68114
4.07599
4.4608
4.83549
5.20001
5.55437
5.89857
6.23266
6.55671
6.87081
7.17509
7.46968
7.75475
8.03047
8.29702
8.5546
8.80342
9.04369
9.27563
9.49946
9.71543
9.92375
10.1247
10.3184
10.5052
10.6853
10.8589
11.0263
11.1876
11.3432
11.4931
11.6377
11.7771
11.9116
12.0412
12.1663
12.287
12.4035
12.516
12.6246
12.7294
12.8308
12.9287
13.0233
13.1148
13.2033
13.2888
13.3716
13.4517
13.5293
13.6043
13.677
13.7475
13.8157
13.8819
13.946
14.0081
14.0684
14.1268
14.1834
14.2384
14.2916
14.3432
14.3932
14.4417
14.4886
14.534
14.5779
14.6203
14.6612
14.7008
14.7388
14.7754
14.8106
14.8444
14.8767
14.9076
14.9371
14.9653
14.992
15.0174
15.0415
15.0642
15.085
15.1039
15.1173
15.129
15.107
-7.10683
-7.19293
-7.34705
-7.51941
-7.7028
-7.8951
-8.0929
-8.29816
-8.51546
-8.74723
-8.99378
-9.25506
-9.531
-9.82123
-10.1239
-10.4356
-10.7529
-11.0723
-11.3908
-11.7058
-12.0151
-12.3171
-12.6104
-12.894
-13.1672
-13.4292
-13.6796
-13.9179
-14.1437
-14.3564
-14.5555
-14.7404
-14.9106
-15.0655
-15.2042
-15.3262
-15.4306
-15.5169
-15.5843
-15.632
-15.6596
-15.6663
-15.6517
-15.6152
-15.5566
-15.4753
-15.3713
-15.2443
-15.0944
-14.9215
-14.7258
-14.5074
-14.2668
-14.0043
-13.7205
-13.4158
-13.0911
-12.747
-12.3845
-12.0043
-11.6074
-11.1949
-10.7678
-10.3271
-9.87413
-9.40987
-8.93554
-8.4523
-7.96132
-7.46376
-6.96079
-6.45353
-5.94311
-5.43059
-4.91704
-4.40346
-3.89082
-3.38006
-2.87205
-2.36762
-1.86755
-1.37257
-0.883356
-0.40053
0.0753379
0.543731
1.00419
1.45628
1.89967
2.33402
2.75907
3.17459
3.58041
3.97637
4.36238
4.73834
5.10421
5.45998
5.80566
6.14128
6.46692
6.78267
7.08864
7.38497
7.6718
7.94931
8.21767
8.47709
8.72775
8.96987
9.20367
9.42936
9.64717
9.85733
10.0601
10.2556
10.4442
10.6261
10.8015
10.9706
11.1336
11.2908
11.4424
11.5886
11.7296
11.8656
11.9967
12.1233
12.2454
12.3633
12.4771
12.587
12.6932
12.7958
12.8949
12.9907
13.0833
13.1729
13.2595
13.3433
13.4244
13.5029
13.579
13.6526
13.7239
13.793
13.8599
13.9248
13.9877
14.0487
14.1079
14.1652
14.2208
14.2746
14.3269
14.3774
14.4264
14.4739
14.5198
14.5642
14.6071
14.6485
14.6884
14.7268
14.7637
14.7992
14.8332
14.8656
14.8966
14.926
14.9538
14.9801
15.0048
15.0277
15.0487
15.0671
15.0826
15.0915
15.0978
15.0688
-7.07895
-7.16578
-7.31348
-7.48227
-7.669
-7.87356
-8.09279
-8.32469
-8.56951
-8.82786
-9.09924
-9.38279
-9.67827
-9.98454
-10.2989
-10.6183
-10.9399
-11.261
-11.5792
-11.8923
-12.1988
-12.4971
-12.7863
-13.0654
-13.3338
-13.591
-13.8364
-14.0697
-14.2904
-14.498
-14.6921
-14.8722
-15.0376
-15.1878
-15.322
-15.4397
-15.5401
-15.6225
-15.6863
-15.7307
-15.7551
-15.759
-15.7417
-15.7029
-15.642
-15.5587
-15.4529
-15.3243
-15.1729
-14.9987
-14.8018
-14.5824
-14.3409
-14.0776
-13.7932
-13.4881
-13.163
-12.8187
-12.456
-12.0759
-11.6792
-11.2669
-10.8402
-10.4
-9.94758
-9.484
-9.01042
-8.528
-8.0379
-7.54128
-7.03928
-6.53302
-6.02361
-5.51212
-4.99958
-4.487
-3.97533
-3.4655
-2.95837
-2.45476
-1.95545
-1.46116
-0.972555
-0.490252
-0.014812
0.453254
0.913484
1.36547
1.80885
2.24331
2.66858
3.08442
3.49065
3.88713
4.27374
4.6504
5.01705
5.37369
5.72032
6.05697
6.38372
6.70065
7.00787
7.3055
7.59369
7.87261
8.14243
8.40333
8.65552
8.89919
9.13456
9.36184
9.58125
9.79303
9.99738
10.1946
10.3848
10.5682
10.7452
10.9159
11.0805
11.2393
11.3924
11.5401
11.6826
11.82
11.9526
12.0806
12.2041
12.3233
12.4385
12.5496
12.6571
12.7608
12.8611
12.9581
13.0518
13.1425
13.2302
13.315
13.3971
13.4766
13.5535
13.628
13.7002
13.7702
13.838
13.9037
13.9673
14.0291
14.0889
14.1469
14.2032
14.2577
14.3105
14.3617
14.4113
14.4593
14.5057
14.5506
14.5939
14.6358
14.6761
14.7149
14.7521
14.7879
14.822
14.8546
14.8856
14.9149
14.9424
14.9682
14.9921
15.0138
15.033
15.049
15.0612
15.0659
15.0672
15.0321
-7.18986
-7.26823
-7.39917
-7.55506
-7.7337
-7.9348
-8.15563
-8.39364
-8.64715
-8.91486
-9.1951
-9.48675
-9.78885
-10.0995
-10.4161
-10.7362
-11.0572
-11.3769
-11.6931
-12.004
-12.3081
-12.6041
-12.891
-13.168
-13.4343
-13.6895
-13.9331
-14.1645
-14.3832
-14.589
-14.7811
-14.9591
-15.1225
-15.2705
-15.4027
-15.5182
-15.6164
-15.6966
-15.7582
-15.8005
-15.8228
-15.8246
-15.8054
-15.7646
-15.7018
-15.6168
-15.5093
-15.3791
-15.2262
-15.0506
-14.8525
-14.632
-14.3895
-14.1255
-13.8403
-13.5347
-13.2092
-12.8647
-12.5019
-12.1218
-11.7254
-11.3135
-10.8873
-10.4478
-9.99615
-9.53349
-9.06094
-8.57966
-8.09079
-7.59548
-7.09486
-6.59003
-6.08208
-5.57209
-5.06107
-4.55
-4.03984
-3.53148
-3.02578
-2.52355
-2.02555
-1.5325
-1.04505
-0.563808
-0.0893383
0.377855
0.837317
1.28864
1.73146
2.16547
2.5904
3.00601
3.41213
3.80859
4.19529
4.57214
4.93909
5.29612
5.64324
5.98048
6.30791
6.62559
6.93365
7.2322
7.52138
7.80134
8.07227
8.33434
8.58773
8.83265
9.06931
9.29791
9.51868
9.73182
9.93757
10.1362
10.3278
10.5127
10.6911
10.8632
11.0292
11.1894
11.3439
11.493
11.6368
11.7756
11.9096
12.0389
12.1637
12.2842
12.4006
12.513
12.6216
12.7265
12.828
12.926
13.0208
13.1125
13.2012
13.2871
13.3701
13.4506
13.5284
13.6038
13.6769
13.7477
13.8163
13.8827
13.9472
14.0096
14.0702
14.1289
14.1858
14.241
14.2944
14.3462
14.3964
14.4449
14.4919
14.5373
14.5811
14.6234
14.6641
14.7033
14.7409
14.7769
14.8112
14.8439
14.8749
14.904
14.9313
14.9565
14.9795
14.9999
15.0174
15.031
15.0401
15.0408
15.0376
14.9973
-7.36638
-7.43095
-7.54186
-7.68029
-7.84412
-8.03286
-8.24416
-8.47536
-8.724
-8.98775
-9.26438
-9.55272
-9.85154
-10.1586
-10.4716
-10.788
-11.1055
-11.422
-11.7355
-12.0443
-12.3468
-12.6417
-12.9281
-13.2049
-13.4715
-13.7271
-13.9711
-14.2031
-14.4225
-14.6287
-14.8212
-14.9995
-15.1629
-15.3108
-15.4425
-15.5575
-15.655
-15.7343
-15.7948
-15.8359
-15.8569
-15.8573
-15.8365
-15.7942
-15.73
-15.6435
-15.5345
-15.4029
-15.2487
-15.0718
-14.8726
-14.6511
-14.4078
-14.143
-13.8573
-13.5513
-13.2257
-12.8812
-12.5186
-12.1389
-11.7431
-11.332
-10.9067
-10.4684
-10.018
-9.55683
-9.08586
-8.60629
-8.11924
-7.62584
-7.1272
-6.62442
-6.11857
-5.61069
-5.10179
-4.59285
-4.0848
-3.57853
-3.07488
-2.57464
-2.07856
-1.58736
-1.10167
-0.622103
-0.149201
0.316534
0.77465
1.22475
1.66646
2.09949
2.52355
2.93843
3.34393
3.7399
4.12622
4.50282
4.86963
5.22663
5.57383
5.91126
6.23898
6.55706
6.8656
7.16473
7.45457
7.73528
8.00701
8.26996
8.52429
8.7702
9.0079
9.23759
9.45949
9.6738
9.88074
10.0805
10.2734
10.4595
10.6392
10.8126
10.9799
11.1413
11.2971
11.4475
11.5926
11.7327
11.8679
11.9984
12.1244
12.2461
12.3637
12.4772
12.587
12.693
12.7956
12.8947
12.9905
13.0832
13.1729
13.2597
13.3438
13.4251
13.5039
13.5801
13.654
13.7256
13.795
13.8623
13.9275
13.9907
14.0519
14.1113
14.1689
14.2247
14.2788
14.3311
14.3819
14.431
14.4785
14.5244
14.5687
14.6114
14.6526
14.6921
14.73
14.7663
14.8009
14.8336
14.8646
14.8936
14.9205
14.9452
14.9673
14.9865
15.0022
15.0135
15.0196
15.0167
15.0094
14.9647
-7.54028
-7.59177
-7.68434
-7.80492
-7.95155
-8.12369
-8.31928
-8.53594
-8.77121
-9.02254
-9.2879
-9.56617
-9.85597
-10.1551
-10.461
-10.7715
-11.0841
-11.3969
-11.7077
-12.0149
-12.3168
-12.6121
-12.8995
-13.178
-13.4467
-13.7047
-13.9513
-14.1859
-14.4078
-14.6164
-14.8111
-14.9912
-15.1562
-15.3054
-15.4381
-15.5536
-15.6514
-15.7307
-15.7909
-15.8314
-15.8517
-15.8512
-15.8294
-15.786
-15.7206
-15.6328
-15.5227
-15.3899
-15.2347
-15.0569
-14.8568
-14.6346
-14.3908
-14.1257
-13.8399
-13.534
-13.2087
-12.8648
-12.503
-12.1243
-11.7297
-11.32
-10.8964
-10.4599
-10.0115
-9.55249
-9.08385
-8.60674
-8.12226
-7.63154
-7.13566
-6.63571
-6.13273
-5.62776
-5.12177
-4.61573
-4.11055
-3.60712
-3.10625
-2.60872
-2.11528
-1.62661
-1.14336
-0.666108
-0.195406
0.268255
0.724432
1.17272
1.61278
2.04428
2.46696
2.8806
3.285
3.68001
4.06552
4.44143
4.80769
5.16428
5.51119
5.84845
6.17612
6.49426
6.80298
7.10238
7.3926
7.67377
7.94606
8.20963
8.46467
8.71135
8.94989
9.18046
9.40329
9.61859
9.82655
10.0274
10.2213
10.4086
10.5894
10.7639
10.9324
11.095
11.252
11.4035
11.5498
11.6911
11.8274
11.9591
12.0863
12.2091
12.3278
12.4424
12.5533
12.6604
12.7639
12.8641
12.9609
13.0546
13.1453
13.233
13.318
13.4002
13.4798
13.557
13.6317
13.7041
13.7743
13.8423
13.9082
13.9721
14.0341
14.0942
14.1524
14.2088
14.2635
14.3165
14.3678
14.4175
14.4655
14.5119
14.5568
14.6
14.6415
14.6815
14.7197
14.7563
14.791
14.8239
14.8549
14.8837
14.9103
14.9344
14.9556
14.9736
14.9876
14.9967
15.0001
14.9938
14.9828
14.9343
-7.66708
-7.70926
-7.78645
-7.8904
-8.01963
-8.17369
-8.35085
-8.54913
-8.76652
-9.00084
-9.25068
-9.51533
-9.79335
-10.0825
-10.3802
-10.6841
-10.992
-11.3015
-11.6106
-11.9173
-12.22
-12.5171
-12.8072
-13.089
-13.3614
-13.6235
-13.8744
-14.1131
-14.339
-14.5514
-14.7494
-14.9326
-15.1002
-15.2515
-15.386
-15.5028
-15.6014
-15.6813
-15.7417
-15.7821
-15.802
-15.8009
-15.7784
-15.7342
-15.6679
-15.5793
-15.4682
-15.3348
-15.1788
-15.0005
-14.8
-14.5778
-14.334
-14.0692
-13.784
-13.4789
-13.1546
-12.812
-12.4518
-12.075
-11.6824
-11.2751
-10.8541
-10.4203
-9.97495
-9.51906
-9.05372
-8.58005
-8.09913
-7.61206
-7.11991
-6.62374
-6.12457
-5.62342
-5.12124
-4.61898
-4.11754
-3.61777
-3.12051
-2.6265
-2.13645
-1.65106
-1.17096
-0.69672
-0.228886
0.232062
0.685681
1.13158
1.5694
1.99883
2.41962
2.83152
3.23435
3.62795
4.01221
4.38703
4.75235
5.10814
5.45441
5.79117
6.11847
6.43638
6.74499
7.0444
7.33473
7.61613
7.88874
8.15272
8.40826
8.65552
8.8947
9.126
9.34961
9.56573
9.77457
9.97635
10.1713
10.3595
10.5413
10.7169
10.8864
11.0501
11.2082
11.3608
11.5082
11.6506
11.788
11.9208
12.0491
12.173
12.2927
12.4085
12.5203
12.6285
12.733
12.8342
12.932
13.0267
13.1183
13.2069
13.2927
13.3759
13.4563
13.5343
13.6099
13.6831
13.754
13.8228
13.8894
13.9541
14.0167
14.0775
14.1364
14.1935
14.2488
14.3024
14.3543
14.4045
14.4531
14.5
14.5453
14.589
14.631
14.6713
14.71
14.7468
14.7818
14.8148
14.8458
14.8745
14.9007
14.9243
14.9447
14.9614
14.9739
14.9809
14.9817
14.9724
14.9581
14.9064
-7.72254
-7.76079
-7.82638
-7.91537
-8.02759
-8.16299
-8.32053
-8.49888
-8.69648
-8.91181
-9.14434
-9.39398
-9.6594
-9.93819
-10.2278
-10.5257
-10.8295
-11.1368
-11.4453
-11.753
-12.0579
-12.3582
-12.6524
-12.9388
-13.2164
-13.4837
-13.7399
-13.9838
-14.2147
-14.4316
-14.6338
-14.8206
-14.9913
-15.1453
-15.2818
-15.4003
-15.5001
-15.5807
-15.6415
-15.682
-15.7018
-15.7005
-15.6776
-15.6328
-15.566
-15.477
-15.3656
-15.2319
-15.0759
-14.8977
-14.6976
-14.476
-14.2331
-13.9695
-13.6857
-13.3824
-13.0603
-12.7201
-12.3626
-11.9887
-11.5994
-11.1956
-10.7783
-10.3485
-9.90727
-9.45569
-8.99482
-8.52574
-8.04952
-7.56723
-7.07991
-6.5886
-6.0943
-5.59799
-5.10063
-4.60313
-4.10637
-3.61118
-3.11838
-2.62872
-2.14291
-1.66158
-1.18538
-0.714873
-0.250592
0.206984
0.65742
1.10032
1.53534
1.96217
2.38054
2.79021
3.19101
3.58276
3.96535
4.33869
4.7027
5.05735
5.40265
5.73859
6.06524
6.38264
6.69087
6.99004
7.28026
7.56167
7.83439
8.0986
8.35446
8.60213
8.84181
9.07367
9.29792
9.51475
9.72435
9.92694
10.1227
10.3119
10.4946
10.6711
10.8417
11.0064
11.1655
11.3191
11.4676
11.611
11.7495
11.8833
12.0126
12.1376
12.2584
12.3751
12.488
12.5971
12.7027
12.8048
12.9036
12.9992
13.0917
13.1813
13.268
13.352
13.4333
13.5121
13.5884
13.6624
13.7342
13.8037
13.8711
13.9364
13.9998
14.0612
14.1208
14.1785
14.2345
14.2887
14.3411
14.392
14.4411
14.4886
14.5344
14.5785
14.621
14.6618
14.7008
14.7379
14.7731
14.8063
14.8373
14.8659
14.8919
14.9149
14.9345
14.9502
14.9611
14.9662
14.9646
14.9527
14.9354
14.881
-7.70814
-7.74282
-7.79965
-7.8748
-7.9698
-8.0855
-8.2219
-8.37863
-8.55492
-8.75006
-8.9645
-9.19873
-9.45154
-9.72047
-10.0028
-10.2959
-10.597
-10.9036
-11.2133
-11.5235
-11.8321
-12.1371
-12.4366
-12.7289
-13.0124
-13.2858
-13.5479
-13.7975
-14.0336
-14.2553
-14.4617
-14.6522
-14.8261
-14.9826
-15.1211
-15.2412
-15.3422
-15.4236
-15.4849
-15.5257
-15.5456
-15.5443
-15.5213
-15.4766
-15.4098
-15.321
-15.2099
-15.0768
-14.9215
-14.7444
-14.5457
-14.3257
-14.0849
-13.8236
-13.5426
-13.2423
-12.9236
-12.5871
-12.2336
-11.8641
-11.4794
-11.0804
-10.6682
-10.2437
-9.80802
-9.3621
-8.90703
-8.44384
-7.9736
-7.49732
-7.01605
-6.53078
-6.04249
-5.55215
-5.06068
-4.56897
-4.07789
-3.58824
-3.10083
-2.61639
-2.13563
-1.65919
-1.18767
-0.721622
-0.261584
0.191968
0.638598
1.07792
1.50957
1.93326
2.34871
2.75569
3.154
3.54349
3.92402
4.2955
4.65785
5.01105
5.35506
5.68991
6.01563
6.33227
6.6399
6.93861
7.22852
7.50974
7.78241
8.04667
8.3027
8.55064
8.79068
9.02299
9.24777
9.46519
9.67546
9.87876
10.0753
10.2653
10.4489
10.6263
10.7978
10.9634
11.1235
11.2782
11.4276
11.572
11.7115
11.8464
11.9767
12.1027
12.2245
12.3423
12.4561
12.5663
12.6728
12.7759
12.8756
12.9721
13.0655
13.156
13.2436
13.3284
13.4106
13.4902
13.5674
13.6422
13.7147
13.7849
13.8531
13.9191
13.9832
14.0453
14.1055
14.1639
14.2205
14.2753
14.3284
14.3798
14.4295
14.4776
14.5239
14.5686
14.6115
14.6527
14.6921
14.7296
14.7651
14.7985
14.8295
14.8581
14.8838
14.9064
14.9253
14.9399
14.9495
14.9528
14.9491
14.9347
14.9147
14.8583
-7.64443
-7.67013
-7.71624
-7.77486
-7.84961
-7.94249
-8.05471
-8.18717
-8.34009
-8.51376
-8.70955
-8.92851
-9.16944
-9.42967
-9.70621
-9.99608
-10.2963
-10.604
-10.9163
-11.2305
-11.5441
-11.8548
-12.1604
-12.459
-12.7489
-13.0284
-13.2963
-13.5513
-13.7924
-14.0185
-14.2289
-14.4227
-14.5993
-14.7581
-14.8985
-15.02
-15.1221
-15.2043
-15.2663
-15.3077
-15.3281
-15.3272
-15.3048
-15.2608
-15.1949
-15.1072
-14.9975