/*--------------------------------*- C++ -*----------------------------------*\
  =========                 |
  \\      /  F ield         | OpenFOAM: The Open Source CFD Toolbox
   \\    /   O peration     | Website:  https://openfoam.org
    \\  /    A nd           | Version:  8
     \\/     M anipulation  |
\*---------------------------------------------------------------------------*/
FoamFile
{
    version     2.0;
    format      ascii;
    class       surfaceScalarField;
    location    "2400";
    object      phi;
}
// * * * * * * * * * * * * * * * * * * * * * * * * * * * * * * * * * * * * * //

dimensions      [0 3 -1 0 0 0 0];

internalField   nonuniform List<scalar> 
24170
(
3.92539e-06
-7.91498e-07
3.76465e-06
1.6075e-07
3.63345e-06
1.31209e-07
3.43331e-06
2.00144e-07
3.28028e-06
1.53027e-07
3.18901e-06
9.11908e-08
3.13091e-06
5.81108e-08
3.08609e-06
4.58912e-08
3.04613e-06
4.23228e-08
3.01059e-06
3.81616e-08
2.97876e-06
3.38014e-08
2.94904e-06
3.07696e-08
2.92187e-06
2.73776e-08
2.89642e-06
2.52001e-08
2.87227e-06
2.36057e-08
2.85193e-06
1.94844e-08
2.84097e-06
9.85762e-09
-6.37622e-09
2.84668e-06
3.58445e-06
-9.19499e-07
3.80424e-06
-5.90412e-08
3.74282e-06
1.92629e-07
3.6906e-06
2.52375e-07
3.63729e-06
2.06333e-07
3.59023e-06
1.3828e-07
3.55289e-06
9.56001e-08
3.52309e-06
7.56599e-08
3.49853e-06
6.65693e-08
3.47732e-06
5.92144e-08
3.45871e-06
5.25285e-08
3.44252e-06
4.72641e-08
3.42795e-06
4.23377e-08
3.41466e-06
3.87866e-08
3.40269e-06
3.57308e-08
3.39122e-06
3.10531e-08
3.38036e-06
2.0843e-08
4.78194e-09
3.36944e-06
3.68518e-06
-7.92482e-07
3.83639e-06
-2.1025e-07
3.91494e-06
1.14082e-07
3.94502e-06
2.22293e-07
3.94408e-06
2.07265e-07
3.92749e-06
1.54898e-07
3.90755e-06
1.15615e-07
3.88932e-06
9.36449e-08
3.874e-06
8.11966e-08
3.86056e-06
7.19157e-08
3.84834e-06
6.42558e-08
3.83728e-06
5.81352e-08
3.82691e-06
5.27793e-08
3.8174e-06
4.84756e-08
3.80891e-06
4.44345e-08
3.80097e-06
3.92547e-08
3.79195e-06
3.02088e-08
1.77987e-08
3.77944e-06
4.05359e-06
-6.4151e-07
4.1146e-06
-2.71259e-07
4.20799e-06
2.06919e-08
4.26635e-06
1.63933e-07
4.29069e-06
1.82927e-07
4.29287e-06
1.52749e-07
4.28571e-06
1.22819e-07
4.27631e-06
1.02844e-07
4.26727e-06
8.96867e-08
4.25873e-06
7.98179e-08
4.25056e-06
7.19499e-08
4.24283e-06
6.56351e-08
4.23534e-06
6.02469e-08
4.22823e-06
5.5694e-08
4.22149e-06
5.13536e-08
4.21464e-06
4.63469e-08
4.20599e-06
3.91856e-08
3.06614e-08
4.19351e-06
4.50491e-06
-5.09114e-07
4.51536e-06
-2.81708e-07
4.58529e-06
-4.92339e-08
4.64665e-06
1.02566e-07
4.68258e-06
1.46993e-07
4.69688e-06
1.38474e-07
4.69946e-06
1.20238e-07
4.69723e-06
1.04926e-07
4.69331e-06
9.32558e-08
4.68868e-06
8.4058e-08
4.68366e-06
7.66426e-08
4.67851e-06
7.06089e-08
4.67321e-06
6.54954e-08
4.66783e-06
6.1107e-08
4.66227e-06
5.70065e-08
4.65606e-06
5.2705e-08
4.64786e-06
4.75929e-08
4.26072e-08
4.63612e-06
5.00014e-06
-3.94663e-07
4.98614e-06
-2.67704e-07
5.03069e-06
-9.37786e-08
5.08506e-06
4.81984e-08
5.12454e-06
1.07517e-07
5.14608e-06
1.16941e-07
5.15584e-06
1.1049e-07
5.1594e-06
1.01286e-07
5.15985e-06
9.26088e-08
5.15859e-06
8.50847e-08
5.15629e-06
7.8744e-08
5.15333e-06
7.34438e-08
5.14984e-06
6.8935e-08
5.14589e-06
6.50651e-08
5.14136e-06
6.15885e-08
5.13584e-06
5.83115e-08
5.12839e-06
5.51507e-08
5.30535e-08
5.11808e-06
5.54382e-06
-2.97475e-07
5.51664e-06
-2.40529e-07
5.54055e-06
-1.17685e-07
5.58388e-06
4.87083e-09
5.62166e-06
6.9735e-08
5.64656e-06
9.20469e-08
5.66107e-06
9.59693e-08
5.66906e-06
9.32482e-08
5.67315e-06
8.84255e-08
5.67481e-06
8.33023e-08
5.6749e-06
7.85531e-08
5.6739e-06
7.43769e-08
5.67204e-06
7.07673e-08
5.6694e-06
6.76975e-08
5.66591e-06
6.51016e-08
5.66127e-06
6.29902e-08
5.65494e-06
6.15494e-08
6.15345e-08
5.6465e-06
4.34788e-06
-2.39242e-07
4.32251e-06
-2.15162e-07
4.33078e-06
-1.25951e-07
4.35419e-06
-1.85358e-08
4.3784e-06
4.55266e-08
4.39646e-06
7.39857e-08
4.40841e-06
8.40237e-08
4.41597e-06
8.56747e-08
4.42059e-06
8.37689e-08
4.42325e-06
8.0599e-08
4.42456e-06
7.7198e-08
4.4249e-06
7.40042e-08
4.42446e-06
7.11817e-08
4.42334e-06
6.8812e-08
4.42151e-06
6.69388e-08
4.41884e-06
6.56731e-08
4.41514e-06
6.52711e-08
6.63513e-08
4.41035e-06
5.08621e-06
-1.85599e-07
5.05777e-06
-1.86718e-07
5.0584e-06
-1.26577e-07
5.07686e-06
-3.70018e-08
5.09918e-06
2.32147e-08
5.11773e-06
5.5437e-08
5.13124e-06
7.0508e-08
5.14059e-06
7.63178e-08
5.14686e-06
7.74768e-08
5.15094e-06
7.64985e-08
5.15344e-06
7.46776e-08
5.15477e-06
7.26678e-08
5.15514e-06
7.07984e-08
5.15468e-06
6.9266e-08
5.15341e-06
6.8212e-08
5.15128e-06
6.78154e-08
5.14821e-06
6.83527e-08
7.02743e-08
5.14429e-06
5.94839e-06
-1.38193e-07
5.91832e-06
-1.56649e-07
5.91161e-06
-1.19865e-07
5.924e-06
-4.93962e-08
5.94286e-06
4.3594e-09
5.96058e-06
3.77177e-08
5.97479e-06
5.62922e-08
5.98546e-06
6.56476e-08
5.9932e-06
6.9737e-08
5.99867e-06
7.10186e-08
6.00242e-06
7.09169e-08
6.00484e-06
7.02412e-08
6.00618e-06
6.94596e-08
6.00657e-06
6.88689e-08
6.0061e-06
6.86895e-08
6.00478e-06
6.91373e-08
6.00267e-06
7.04634e-08
7.29773e-08
5.99997e-06
6.95439e-06
-9.83129e-08
6.92401e-06
-1.26278e-07
6.91113e-06
-1.06984e-07
6.9168e-06
-5.50651e-08
6.93087e-06
-9.70964e-09
6.94635e-06
2.22403e-08
6.96015e-06
4.24939e-08
6.9714e-06
5.43974e-08
6.98017e-06
6.09628e-08
6.98684e-06
6.4349e-08
6.9918e-06
6.59566e-08
6.99537e-06
6.66661e-08
6.9978e-06
6.7032e-08
6.99924e-06
6.74256e-08
6.99982e-06
6.81148e-08
6.99963e-06
6.93259e-08
6.99883e-06
7.12689e-08
7.41305e-08
6.99768e-06
8.12719e-06
-6.64876e-08
8.09793e-06
-9.70207e-08
8.08056e-06
-8.96084e-08
8.07955e-06
-5.4058e-08
8.08793e-06
-1.80885e-08
8.09985e-06
1.03238e-08
8.11198e-06
3.036e-08
8.12286e-06
4.35233e-08
8.13202e-06
5.17967e-08
8.1395e-06
5.68691e-08
8.14548e-06
5.99769e-08
8.15018e-06
6.19714e-08
8.15378e-06
6.34327e-08
8.15644e-06
6.47584e-08
8.15832e-06
6.62348e-08
8.15958e-06
6.80755e-08
8.1604e-06
7.04422e-08
7.34401e-08
8.16109e-06
9.49368e-06
-4.24386e-08
9.4668e-06
-7.01425e-08
9.44683e-06
-6.96398e-08
9.43991e-06
-4.71311e-08
9.44229e-06
-2.04671e-08
9.44965e-06
2.95641e-09
9.45895e-06
2.10655e-08
9.4684e-06
3.40717e-08
9.47716e-06
4.30375e-08
9.48491e-06
4.9122e-08
9.49159e-06
5.32949e-08
9.49727e-06
5.62929e-08
9.50205e-06
5.86476e-08
9.50607e-06
6.07395e-08
9.50947e-06
6.28354e-08
9.51242e-06
6.51213e-08
9.51515e-06
6.77156e-08
7.06715e-08
9.51792e-06
1.10854e-05
-2.51589e-08
1.10618e-05
-4.65023e-08
1.1041e-05
-4.88062e-08
1.10294e-05
-3.5551e-08
1.10261e-05
-1.71689e-08
1.10284e-05
6.05847e-10
1.1034e-05
1.54757e-08
1.10411e-05
2.69719e-08
1.10487e-05
3.54929e-08
1.10561e-05
4.17169e-08
1.1063e-05
4.63144e-08
1.10695e-05
4.9844e-08
1.10754e-05
5.27358e-08
1.10808e-05
5.53039e-08
1.10859e-05
5.77686e-08
1.10908e-05
6.02737e-08
1.10956e-05
6.28996e-08
6.56695e-08
1.11006e-05
1.29396e-05
-1.31185e-08
1.29194e-05
-2.62783e-08
1.28988e-05
-2.82514e-08
1.28839e-05
-2.0687e-08
1.28758e-05
-8.995e-09
1.28732e-05
3.14576e-09
1.28748e-05
1.3941e-08
1.28789e-05
2.27894e-08
1.28847e-05
2.97455e-08
1.28913e-05
3.51442e-08
1.28982e-05
3.93844e-08
1.29052e-05
4.28291e-08
1.29122e-05
4.57706e-08
1.29191e-05
4.84258e-08
1.29259e-05
5.09437e-08
1.29327e-05
5.3416e-08
1.29398e-05
5.58859e-08
5.83562e-08
1.29471e-05
1.50998e-05
-4.48296e-09
1.50822e-05
-8.67569e-09
1.50621e-05
-8.11305e-09
1.50448e-05
-3.45757e-09
1.50327e-05
3.1104e-09
1.50259e-05
9.93946e-09
1.50237e-05
1.61626e-08
1.5025e-05
2.14651e-08
1.50289e-05
2.58541e-08
1.50346e-05
2.94855e-08
1.50414e-05
3.25552e-08
1.5049e-05
3.52437e-08
1.50571e-05
3.76943e-08
1.50655e-05
4.00082e-08
1.50742e-05
4.2248e-08
1.50832e-05
4.44431e-08
1.50925e-05
4.6596e-08
4.86885e-08
1.51021e-05
1.76171e-05
2.89325e-09
1.75999e-05
8.52346e-09
1.75787e-05
1.30302e-08
1.7559e-05
1.62784e-08
1.75436e-05
1.84731e-08
1.75336e-05
1.99583e-08
1.75287e-05
2.10528e-08
1.75282e-05
2.19941e-08
1.75311e-05
2.29402e-08
1.75366e-05
2.39859e-08
1.7544e-05
2.51778e-08
1.75527e-05
2.65283e-08
1.75624e-05
2.80264e-08
1.75727e-05
2.96465e-08
1.75836e-05
3.13523e-08
1.7595e-05
3.31027e-08
1.76067e-05
3.48516e-08
3.65547e-08
1.76188e-05
1.78181e-05
1.10004e-08
1.77994e-05
2.72129e-08
1.77768e-05
3.56246e-08
1.7756e-05
3.7059e-08
1.77402e-05
3.43266e-08
1.77302e-05
2.99469e-08
1.77257e-05
2.55004e-08
1.7726e-05
2.17784e-08
1.77298e-05
1.90752e-08
1.77364e-05
1.74004e-08
1.77449e-05
1.66327e-08
1.77549e-05
1.66037e-08
1.77658e-05
1.71415e-08
1.77773e-05
1.80892e-08
1.77894e-05
1.93145e-08
1.78017e-05
2.07038e-08
1.78144e-05
2.21679e-08
2.36305e-08
1.78274e-05
1.58702e-05
2.21335e-08
1.58478e-05
4.95816e-08
1.58233e-05
6.01327e-08
1.58032e-05
5.7235e-08
1.57899e-05
4.76111e-08
1.57834e-05
3.63721e-08
1.57827e-05
2.61983e-08
1.57864e-05
1.8147e-08
1.57931e-05
1.23658e-08
1.58019e-05
8.61282e-09
1.5812e-05
6.4976e-09
1.5823e-05
5.62937e-09
1.58345e-05
5.66543e-09
1.58462e-05
6.32907e-09
1.58581e-05
7.40026e-09
1.58701e-05
8.71582e-09
1.58821e-05
1.01469e-08
1.16049e-08
1.58942e-05
1.41313e-05
3.95387e-08
1.41021e-05
7.87071e-08
1.40745e-05
8.77881e-08
1.40557e-05
7.60389e-08
1.40469e-05
5.6414e-08
1.40462e-05
3.70407e-08
1.40512e-05
2.12114e-08
1.40597e-05
9.58383e-09
1.40704e-05
1.76408e-09
1.4082e-05
-3.04742e-09
1.40941e-05
-5.60311e-09
1.41063e-05
-6.55888e-09
1.41184e-05
-6.41428e-09
1.41303e-05
-5.55879e-09
1.41419e-05
-4.26215e-09
1.41534e-05
-2.72292e-09
1.41646e-05
-1.07857e-09
5.73287e-10
1.41756e-05
1.25772e-05
6.73556e-08
1.25392e-05
1.1674e-07
1.25091e-05
1.17889e-07
1.24942e-05
9.08914e-08
1.24928e-05
5.78147e-08
1.25002e-05
2.96844e-08
1.25122e-05
9.13341e-09
1.25264e-05
-4.49349e-09
1.25409e-05
-1.28322e-08
1.25552e-05
-1.73442e-08
1.25689e-05
-1.92793e-08
1.25819e-05
-1.94971e-08
1.25941e-05
-1.86514e-08
1.26057e-05
-1.71572e-08
1.26167e-05
-1.53139e-08
1.26273e-05
-1.33121e-08
1.26375e-05
-1.12742e-08
-9.29216e-09
1.26473e-05
1.11862e-05
1.10916e-07
1.11384e-05
1.6457e-07
1.11088e-05
1.47521e-07
1.11022e-05
9.74852e-08
1.11117e-05
4.8314e-08
1.11289e-05
1.24037e-08
1.11486e-05
-1.04578e-08
1.11678e-05
-2.3722e-08
1.11855e-05
-3.05011e-08
1.12014e-05
-3.3283e-08
1.12157e-05
-3.35493e-08
1.12285e-05
-3.235e-08
1.12402e-05
-3.02992e-08
1.12508e-05
-2.78596e-08
1.12608e-05
-2.52736e-08
1.12701e-05
-2.2672e-08
1.1279e-05
-2.01604e-08
-1.77791e-08
1.12875e-05
9.93908e-06
1.76452e-07
9.88248e-06
2.21163e-07
9.85873e-06
1.71263e-07
9.86593e-06
9.02761e-08
9.88961e-06
2.464e-08
9.9176e-06
-1.55532e-08
9.94392e-06
-3.67905e-08
9.96668e-06
-4.64024e-08
9.98571e-06
-4.96007e-08
1.00017e-05
-4.92774e-08
1.00152e-05
-4.71137e-08
1.00269e-05
-4.39948e-08
1.00371e-05
-4.05221e-08
1.00462e-05
-3.70134e-08
1.00546e-05
-3.36405e-08
1.00623e-05
-3.04397e-08
1.00696e-05
-2.74401e-08
-2.47041e-08
1.00765e-05
8.81963e-06
2.69916e-07
8.75785e-06
2.82944e-07
8.74788e-06
1.81226e-07
8.77481e-06
6.33234e-08
8.81458e-06
-1.51279e-08
8.85212e-06
-5.30894e-08
8.88269e-06
-6.72243e-08
8.90623e-06
-7.00183e-08
8.92427e-06
-6.76051e-08
8.93842e-06
-6.33576e-08
8.94983e-06
-5.83938e-08
8.95924e-06
-5.33296e-08
8.96721e-06
-4.84654e-08
8.97418e-06
-4.40017e-08
8.98049e-06
-3.99934e-08
8.98632e-06
-3.62913e-08
8.99174e-06
-3.29042e-08
-2.98866e-08
8.99691e-06
7.81391e-06
3.96675e-07
7.75391e-06
3.42943e-07
7.76868e-06
1.6644e-07
7.82054e-06
1.14614e-08
7.87567e-06
-7.02732e-08
7.91913e-06
-9.64891e-08
7.94967e-06
-9.78323e-08
7.97057e-06
-9.06422e-08
7.98484e-06
-8.15746e-08
7.99524e-06
-7.35378e-08
8.00315e-06
-6.60955e-08
8.00936e-06
-5.9435e-08
8.01442e-06
-5.33072e-08
8.01874e-06
-4.81901e-08
8.02269e-06
-4.38819e-08
8.02632e-06
-3.99548e-08
8.02969e-06
-3.63284e-08
-3.31995e-08
8.03296e-06
6.90424e-06
5.66768e-07
6.86137e-06
3.85805e-07
6.91717e-06
1.10634e-07
6.99674e-06
-6.81329e-08
7.06253e-06
-1.36071e-07
7.10529e-06
-1.39267e-07
7.13032e-06
-1.22546e-07
7.14448e-06
-1.04615e-07
7.15208e-06
-8.89771e-08
7.15709e-06
-7.57952e-08
7.16036e-06
-6.66444e-08
7.16269e-06
-5.96185e-08
7.16412e-06
-5.41359e-08
7.16536e-06
-4.91607e-08
7.16661e-06
-4.52163e-08
7.16779e-06
-4.16568e-08
7.16889e-06
-3.77464e-08
-3.46627e-08
7.1701e-06
6.07162e-06
7.97662e-07
6.08526e-06
3.72164e-07
6.19865e-06
-2.77339e-09
6.2999e-06
-1.69398e-07
6.36526e-06
-2.01462e-07
6.39754e-06
-1.71504e-07
6.41011e-06
-1.3522e-07
6.41343e-06
-1.06944e-07
6.41239e-06
-8.57932e-08
6.40989e-06
-7.401e-08
6.40746e-06
-6.45121e-08
6.40486e-06
-5.76828e-08
6.40233e-06
-5.11089e-08
6.39997e-06
-4.64765e-08
6.39809e-06
-4.37499e-08
6.39676e-06
-4.01712e-08
6.39514e-06
-3.64414e-08
-3.40948e-08
6.3939e-06
5.35805e-06
1.05451e-06
5.50649e-06
2.23716e-07
5.64777e-06
-1.44085e-07
5.73564e-06
-2.57314e-07
5.77646e-06
-2.42347e-07
5.78324e-06
-1.78425e-07
5.77528e-06
-1.26644e-07
5.76328e-06
-9.40042e-08
5.74975e-06
-7.56527e-08
5.73931e-06
-6.4011e-08
5.73029e-06
-5.65024e-08
5.72239e-06
-5.00022e-08
5.71428e-06
-4.41828e-08
5.70724e-06
-3.97259e-08
5.70186e-06
-3.77854e-08
5.69671e-06
-3.54017e-08
5.6917e-06
-3.14644e-08
-2.96527e-08
5.68737e-06
5.04576e-06
1.01105e-06
5.36491e-06
-9.54497e-08
5.35251e-06
-1.31766e-07
5.33285e-06
-2.37745e-07
5.296e-06
-2.05651e-07
5.25016e-06
-1.32589e-07
5.20891e-06
-8.4732e-08
5.17485e-06
-6.08211e-08
5.14634e-06
-4.98272e-08
5.12483e-06
-4.29547e-08
5.10676e-06
-3.93123e-08
5.09059e-06
-3.55899e-08
5.07487e-06
-3.02689e-08
5.06152e-06
-2.66321e-08
5.05062e-06
-2.70198e-08
5.0397e-06
-2.44148e-08
5.02919e-06
-2.02437e-08
-2.11067e-08
5.0213e-06
5.4676e-06
5.37215e-06
5.24037e-06
5.00261e-06
4.79694e-06
4.66444e-06
4.57967e-06
4.51835e-06
4.46847e-06
4.42535e-06
4.38573e-06
4.34971e-06
4.31933e-06
4.29269e-06
4.26567e-06
4.24143e-06
4.22142e-06
4.20064e-06
2.31265e-08
-2.31233e-08
2.37199e-07
-2.14072e-07
4.8932e-07
-2.52088e-07
7.09584e-07
-2.20241e-07
8.77297e-07
-1.67693e-07
9.88425e-07
-1.11117e-07
1.04409e-06
-5.56502e-08
1.04651e-06
-2.4204e-09
1.001e-06
4.55138e-08
9.17727e-07
8.32683e-08
8.11926e-07
1.05811e-07
7.02737e-07
1.09175e-07
6.09955e-07
9.27795e-08
5.43669e-07
6.62969e-08
4.92528e-07
5.1161e-08
4.33351e-07
5.98807e-08
3.47045e-07
8.61679e-08
2.21946e-07
1.25872e-07
4.36426e-08
1.77889e-07
-2.01821e-07
2.44835e-07
-5.04356e-07
3.0228e-07
-8.45345e-07
3.40739e-07
-1.20968e-06
3.64347e-07
-1.58708e-06
3.77406e-07
-1.96868e-06
3.8164e-07
-2.34451e-06
3.75851e-07
-2.70654e-06
3.62057e-07
-3.04962e-06
3.43087e-07
-3.36991e-06
3.20305e-07
-3.66508e-06
2.95177e-07
-3.93427e-06
2.69193e-07
-4.17779e-06
2.43527e-07
-4.39667e-06
2.18885e-07
-4.59239e-06
1.95724e-07
-4.76666e-06
1.74269e-07
-4.92126e-06
1.54602e-07
-5.05795e-06
1.36686e-07
-5.17835e-06
1.20402e-07
-5.28394e-06
1.0559e-07
-5.37601e-06
9.20687e-08
-5.45566e-06
7.96574e-08
-5.52385e-06
6.8183e-08
-5.58134e-06
5.74904e-08
-5.62878e-06
4.74456e-08
-5.66672e-06
3.79395e-08
-5.69561e-06
2.88848e-08
-5.71582e-06
2.02103e-08
-5.7277e-06
1.18861e-08
-5.73174e-06
4.04017e-09
-5.7288e-06
-2.93947e-09
-5.71997e-06
-8.838e-09
-5.706e-06
-1.39647e-08
-5.68732e-06
-1.8681e-08
-5.66417e-06
-2.31485e-08
-5.63673e-06
-2.7445e-08
-5.60513e-06
-3.15988e-08
-5.5695e-06
-3.56246e-08
-5.52997e-06
-3.95293e-08
-5.48666e-06
-4.33138e-08
-5.43968e-06
-4.69772e-08
-5.38917e-06
-5.05168e-08
-5.33524e-06
-5.39293e-08
-5.27803e-06
-5.72111e-08
-5.21767e-06
-6.0359e-08
-5.1543e-06
-6.33705e-08
-5.08805e-06
-6.62426e-08
-5.01908e-06
-6.89716e-08
-4.94753e-06
-7.15555e-08
-4.87353e-06
-7.39924e-08
-4.79725e-06
-7.62813e-08
-4.71883e-06
-7.84213e-08
-4.63842e-06
-8.0412e-08
-4.55617e-06
-8.22539e-08
-4.47222e-06
-8.39476e-08
-4.38672e-06
-8.54942e-08
-4.29983e-06
-8.68955e-08
-4.21168e-06
-8.81536e-08
-4.1224e-06
-8.92709e-08
-4.03215e-06
-9.02506e-08
-3.94106e-06
-9.10961e-08
-3.84925e-06
-9.18111e-08
-3.75685e-06
-9.24002e-08
-3.66398e-06
-9.2868e-08
-3.57076e-06
-9.32205e-08
-3.4773e-06
-9.34636e-08
-3.38369e-06
-9.36049e-08
-3.29004e-06
-9.36526e-08
-3.19642e-06
-9.3617e-08
-3.10291e-06
-9.35107e-08
-3.00956e-06
-9.33503e-08
-2.91641e-06
-9.31565e-08
-2.82346e-06
-9.29542e-08
-2.7307e-06
-9.27609e-08
-2.63814e-06
-9.25571e-08
-2.54588e-06
-9.22577e-08
-2.45412e-06
-9.17609e-08
-2.36314e-06
-9.09815e-08
-2.2732e-06
-8.99367e-08
-2.18442e-06
-8.87833e-08
-2.09679e-06
-8.76284e-08
-2.01032e-06
-8.64722e-08
-1.92502e-06
-8.52986e-08
-1.84092e-06
-8.41005e-08
-1.75805e-06
-8.28768e-08
-1.67642e-06
-8.16301e-08
-1.59605e-06
-8.0364e-08
-1.51697e-06
-7.90826e-08
-1.43918e-06
-7.77884e-08
-1.3627e-06
-7.64794e-08
-1.28757e-06
-7.51349e-08
-1.2138e-06
-7.37668e-08
-1.1414e-06
-7.24031e-08
-1.07036e-06
-7.10385e-08
-1.00068e-06
-6.96745e-08
-9.3237e-07
-6.83118e-08
-8.65417e-07
-6.69522e-08
-7.99818e-07
-6.55978e-08
-7.35565e-07
-6.42513e-08
-6.72649e-07
-6.29146e-08
-6.1106e-07
-6.15871e-08
-5.50788e-07
-6.02696e-08
-4.91821e-07
-5.89647e-08
-4.3414e-07
-5.76786e-08
-3.7772e-07
-5.64168e-08
-3.22542e-07
-5.51752e-08
-2.68588e-07
-5.39504e-08
-2.15838e-07
-5.27463e-08
-1.64272e-07
-5.15623e-08
-1.13881e-07
-5.03864e-08
-6.46581e-08
-4.92185e-08
-1.67242e-08
-4.79288e-08
3.00514e-08
-4.67702e-08
7.59756e-08
-4.59191e-08
1.20943e-07
-4.49627e-08
1.64851e-07
-4.39032e-08
2.07696e-07
-4.28398e-08
2.49494e-07
-4.17936e-08
2.90276e-07
-4.07772e-08
3.30073e-07
-3.97927e-08
3.68916e-07
-3.88386e-08
4.06834e-07
-3.79132e-08
4.43852e-07
-3.70148e-08
4.79999e-07
-3.61426e-08
5.15298e-07
-3.52957e-08
5.49775e-07
-3.44736e-08
5.83454e-07
-3.36759e-08
6.16359e-07
-3.29024e-08
6.48514e-07
-3.2153e-08
6.79944e-07
-3.14277e-08
7.10673e-07
-3.07264e-08
7.40724e-07
-3.0049e-08
7.70122e-07
-2.93957e-08
7.9889e-07
-2.87665e-08
8.27054e-07
-2.81612e-08
8.54636e-07
-2.75802e-08
8.81661e-07
-2.7023e-08
9.08152e-07
-2.64898e-08
9.34134e-07
-2.59802e-08
9.5963e-07
-2.54937e-08
9.84661e-07
-2.50294e-08
1.00925e-06
-2.45862e-08
1.03341e-06
-2.4162e-08
1.05717e-06
-2.37542e-08
1.08053e-06
-2.33587e-08
1.1035e-06
-2.29698e-08
1.12608e-06
-2.25792e-08
1.14825e-06
-2.21758e-08
1.17e-06
-2.17436e-08
1.19126e-06
-2.12605e-08
1.21195e-06
-2.06956e-08
1.23196e-06
-2.00044e-08
1.25108e-06
-1.91234e-08
1.26904e-06
-1.79549e-08
1.28539e-06
-1.6355e-08
1.29944e-06
-1.40481e-08
1.31007e-06
-1.06242e-08
1.31464e-06
-4.55954e-09
1.30779e-06
6.85597e-09
1.27825e-06
2.95366e-08
7.23296e-08
1.20592e-06
2.54182e-07
-2.77325e-07
4.90082e-07
-4.49968e-07
6.39668e-07
-4.0167e-07
7.24301e-07
-3.04871e-07
7.63815e-07
-2.07198e-07
7.69761e-07
-1.17067e-07
7.48828e-07
-3.47116e-08
7.06644e-07
3.97551e-08
6.46283e-07
1.0588e-07
5.67654e-07
1.61887e-07
4.70039e-07
2.03432e-07
3.51769e-07
2.27434e-07
2.06807e-07
2.37748e-07
2.36106e-08
2.4951e-07
-2.08606e-07
2.83385e-07
-4.94247e-07
3.45616e-07
-8.32207e-07
4.24217e-07
-1.21206e-06
5.05745e-07
-1.61588e-06
5.81663e-07
-2.01732e-06
6.46221e-07
-2.40734e-06
6.92253e-07
-2.78282e-06
7.16202e-07
-3.13776e-06
7.1929e-07
-3.46518e-06
7.04834e-07
-3.75994e-06
6.76407e-07
-4.02109e-06
6.37e-07
-4.24903e-06
5.90002e-07
-4.44504e-06
5.39106e-07
-4.61204e-06
4.87303e-07
-4.75352e-06
4.36664e-07
-4.87287e-06
3.8854e-07
-4.97324e-06
3.43904e-07
-5.05753e-06
3.03171e-07
-5.12823e-06
2.66426e-07
-5.18747e-06
2.33508e-07
-5.23698e-06
2.04113e-07
-5.27816e-06
1.77874e-07
-5.31216e-06
1.54396e-07
-5.33987e-06
1.33299e-07
-5.36203e-06
1.14232e-07
-5.37926e-06
9.68833e-08
-5.39206e-06
8.09867e-08
-5.40089e-06
6.63206e-08
-5.40615e-06
5.27032e-08
-5.4082e-06
3.99877e-08
-5.40737e-06
2.80591e-08
-5.404e-06
1.68398e-08
-5.39841e-06
6.29482e-09
-5.39075e-06
-3.61978e-09
-5.38059e-06
-1.30937e-08
-5.36706e-06
-2.23672e-08
-5.34956e-06
-3.14694e-08
-5.32791e-06
-4.03345e-08
-5.3021e-06
-4.8959e-08
-5.27219e-06
-5.73496e-08
-5.23828e-06
-6.55126e-08
-5.20045e-06
-7.34509e-08
-5.15882e-06
-8.11637e-08
-5.11348e-06
-8.8648e-08
-5.06456e-06
-9.5898e-08
-5.01217e-06
-1.02907e-07
-4.95643e-06
-1.09667e-07
-4.89747e-06
-1.16171e-07
-4.83542e-06
-1.22411e-07
-4.77041e-06
-1.28384e-07
-4.70257e-06
-1.34081e-07
-4.63204e-06
-1.39496e-07
-4.55897e-06
-1.44625e-07
-4.4835e-06
-1.49463e-07
-4.40578e-06
-1.54009e-07
-4.32594e-06
-1.58262e-07
-4.24413e-06
-1.6222e-07
-4.1605e-06
-1.65883e-07
-4.07519e-06
-1.69254e-07
-3.98835e-06
-1.72334e-07
-3.90012e-06
-1.75127e-07
-3.81064e-06
-1.77638e-07
-3.72004e-06
-1.7987e-07
-3.62846e-06
-1.81831e-07
-3.53603e-06
-1.83526e-07
-3.44288e-06
-1.84964e-07
-3.34912e-06
-1.86152e-07
-3.25489e-06
-1.87101e-07
-3.16029e-06
-1.8782e-07
-3.06544e-06
-1.88319e-07
-2.97043e-06
-1.8861e-07
-2.87538e-06
-1.88706e-07
-2.78038e-06
-1.88619e-07
-2.68553e-06
-1.88362e-07
-2.59093e-06
-1.87948e-07
-2.4967e-06
-1.87388e-07
-2.40296e-06
-1.86691e-07
-2.30988e-06
-1.8585e-07
-2.2176e-06
-1.84837e-07
-2.12624e-06
-1.8361e-07
-2.03587e-06
-1.82138e-07
-1.94643e-06
-1.80417e-07
-1.85788e-06
-1.78489e-07
-1.77023e-06
-1.76431e-07
-1.68356e-06
-1.74296e-07
-1.59794e-06
-1.72097e-07
-1.5134e-06
-1.69836e-07
-1.42999e-06
-1.67514e-07
-1.34773e-06
-1.65134e-07
-1.26666e-06
-1.62703e-07
-1.1868e-06
-1.60226e-07
-1.10817e-06
-1.57708e-07
-1.03081e-06
-1.55153e-07
-9.54725e-07
-1.52562e-07
-8.79924e-07
-1.49936e-07
-8.06403e-07
-1.47287e-07
-7.34175e-07
-1.44631e-07
-6.63245e-07
-1.41969e-07
-5.93612e-07
-1.39306e-07
-5.25278e-07
-1.36645e-07
-4.58241e-07
-1.33989e-07
-3.92496e-07
-1.31342e-07
-3.28039e-07
-1.28707e-07
-2.6486e-07
-1.26093e-07
-2.02947e-07
-1.23498e-07
-1.42293e-07
-1.20923e-07
-8.28855e-08
-1.18371e-07
-2.4718e-08
-1.15844e-07
3.22234e-08
-1.13356e-07
8.79666e-08
-1.10917e-07
1.42529e-07
-1.08511e-07
1.95921e-07
-1.06136e-07
2.48158e-07
-1.03797e-07
2.99267e-07
-1.01493e-07
3.49277e-07
-9.92267e-08
3.98346e-07
-9.69961e-08
4.46449e-07
-9.48711e-08
4.93369e-07
-9.28369e-08
5.39172e-07
-9.07644e-08
5.83938e-07
-8.86669e-08
6.27697e-07
-8.6597e-08
6.70479e-07
-8.45739e-08
7.12309e-07
-8.26044e-08
7.53208e-07
-8.069e-08
7.93201e-07
-7.88294e-08
8.32311e-07
-7.70209e-08
8.70561e-07
-7.52631e-08
9.07975e-07
-7.35546e-08
9.44575e-07
-7.18945e-08
9.80386e-07
-7.02822e-08
1.01543e-06
-6.87173e-08
1.04973e-06
-6.71994e-08
1.0833e-06
-6.57284e-08
1.11618e-06
-6.43042e-08
1.14838e-06
-6.29267e-08
1.17993e-06
-6.1596e-08
1.21085e-06
-6.03122e-08
1.24116e-06
-5.90752e-08
1.27088e-06
-5.78849e-08
1.30005e-06
-5.67415e-08
1.32867e-06
-5.56445e-08
1.35677e-06
-5.45937e-08
1.38438e-06
-5.35882e-08
1.41152e-06
-5.2627e-08
1.4382e-06
-5.17082e-08
1.46444e-06
-5.08293e-08
1.49027e-06
-4.99863e-08
1.51569e-06
-4.91736e-08
1.54071e-06
-4.83834e-08
1.56535e-06
-4.76046e-08
1.58959e-06
-4.68219e-08
1.61343e-06
-4.60139e-08
1.63684e-06
-4.51511e-08
1.65977e-06
-4.41925e-08
1.68216e-06
-4.30804e-08
1.70389e-06
-4.17334e-08
1.7248e-06
-4.00332e-08
1.74465e-06
-3.78032e-08
1.76306e-06
-3.47741e-08
1.7795e-06
-3.0485e-08
1.79306e-06
-2.41836e-08
1.80278e-06
-1.4276e-08
1.80765e-06
1.99543e-09
1.80577e-06
3.14224e-08
8.80308e-08
1.79006e-06
2.4601e-07
-5.23356e-07
3.42327e-07
-5.46289e-07
3.58615e-07
-4.17956e-07
3.47571e-07
-2.93818e-07
3.19869e-07
-1.7949e-07
2.75785e-07
-7.29827e-08
2.14608e-07
2.64675e-08
1.35287e-07
1.19071e-07
3.67621e-08
2.04406e-07
-8.31313e-08
2.81776e-07
-2.30097e-07
3.50398e-07
-4.14656e-07
4.11993e-07
-6.50218e-07
4.73308e-07
-9.43705e-07
5.43001e-07
-1.28496e-06
6.24633e-07
-1.65205e-06
7.12715e-07
-2.02416e-06
7.96321e-07
-2.38441e-06
8.65989e-07
-2.71892e-06
9.16159e-07
-3.01715e-06
9.44431e-07
-3.27521e-06
9.5032e-07
-3.49411e-06
9.35102e-07
-3.67681e-06
9.02001e-07
-3.82737e-06
8.554e-07
-3.95051e-06
7.9955e-07
-4.05165e-06
7.38135e-07
-4.1361e-06
6.74456e-07
-4.20827e-06
6.11273e-07
-4.27158e-06
5.50618e-07
-4.32866e-06
4.93743e-07
-4.38138e-06
4.41258e-07
-4.43087e-06
3.93394e-07
-4.47776e-06
3.50068e-07
-4.52234e-06
3.11e-07
-4.56463e-06
2.75798e-07
-4.60454e-06
2.44023e-07
-4.6419e-06
2.15236e-07
-4.67652e-06
1.8902e-07
-4.70822e-06
1.64998e-07
-4.73683e-06
1.42841e-07
-4.76221e-06
1.22265e-07
-4.78426e-06
1.03032e-07
-4.80288e-06
8.49445e-08
-4.81801e-06
6.78373e-08
-4.8296e-06
5.15705e-08
-4.83756e-06
3.6025e-08
-4.84182e-06
2.1099e-08
-4.84222e-06
6.69854e-09
-4.83856e-06
-7.28297e-09
-4.8307e-06
-2.09598e-08
-4.81867e-06
-3.43917e-08
-4.80257e-06
-4.75663e-08
-4.78245e-06
-6.04612e-08
-4.75834e-06
-7.3068e-08
-4.73031e-06
-8.53804e-08
-4.69843e-06
-9.73924e-08
-4.66278e-06
-1.09097e-07
-4.62346e-06
-1.20486e-07
-4.58056e-06
-1.31549e-07
-4.53418e-06
-1.42275e-07
-4.48444e-06
-1.52651e-07
-4.43144e-06
-1.62664e-07
-4.37531e-06
-1.72301e-07
-4.31617e-06
-1.8155e-07
-4.25415e-06
-1.90406e-07
-4.18937e-06
-1.98856e-07
-4.12198e-06
-2.0689e-07
-4.0521e-06
-2.14501e-07
-3.97988e-06
-2.21684e-07
-3.90546e-06
-2.28435e-07
-3.82897e-06
-2.34751e-07
-3.75056e-06
-2.40631e-07
-3.67037e-06
-2.46075e-07
-3.58853e-06
-2.51085e-07
-3.5052e-06
-2.55665e-07
-3.42051e-06
-2.59818e-07
-3.3346e-06
-2.63551e-07
-3.2476e-06
-2.66872e-07
-3.15964e-06
-2.69788e-07
-3.07086e-06
-2.72309e-07
-2.98137e-06
-2.74446e-07
-2.89132e-06
-2.7621e-07
-2.8008e-06
-2.77614e-07
-2.70995e-06
-2.78671e-07
-2.61888e-06
-2.79396e-07
-2.52768e-06
-2.79802e-07
-2.43648e-06
-2.79905e-07
-2.34538e-06
-2.7972e-07
-2.25448e-06
-2.79261e-07
-2.16389e-06
-2.78542e-07
-2.07371e-06
-2.77572e-07
-1.98404e-06
-2.7636e-07
-1.89499e-06
-2.74903e-07
-1.80663e-06
-2.73189e-07
-1.71904e-06
-2.71203e-07
-1.63224e-06
-2.68942e-07
-1.54623e-06
-2.66422e-07
-1.46104e-06
-2.63679e-07
-1.37672e-06
-2.6076e-07
-1.29331e-06
-2.57699e-07
-1.21089e-06
-2.54515e-07
-1.12951e-06
-2.51223e-07
-1.04919e-06
-2.4783e-07
-9.69979e-07
-2.44346e-07
-8.91901e-07
-2.40782e-07
-8.14982e-07
-2.37145e-07
-7.39246e-07
-2.33444e-07
-6.64713e-07
-2.29686e-07
-5.91396e-07
-2.25879e-07
-5.19301e-07
-2.2203e-07
-4.48436e-07
-2.18152e-07
-3.78813e-07
-2.14254e-07
-3.10436e-07
-2.10346e-07
-2.43308e-07
-2.06434e-07
-1.77429e-07
-2.02524e-07
-1.12797e-07
-1.98621e-07
-4.94076e-08
-1.9473e-07
1.27447e-08
-1.90859e-07
7.36644e-08
-1.87012e-07
1.3336e-07
-1.83193e-07
1.91843e-07
-1.79406e-07
2.49128e-07
-1.75655e-07
3.05229e-07
-1.71945e-07
3.60158e-07
-1.68285e-07
4.13922e-07
-1.64679e-07
4.66535e-07
-1.61124e-07
5.18019e-07
-1.57619e-07
5.68392e-07
-1.54169e-07
6.17676e-07
-1.50777e-07
6.65901e-07
-1.47451e-07
7.1311e-07
-1.44204e-07
7.59285e-07
-1.41045e-07
8.04392e-07
-1.37943e-07
8.4848e-07
-1.34852e-07
8.91594e-07
-1.3178e-07
9.33756e-07
-1.28758e-07
9.74985e-07
-1.25802e-07
1.0153e-06
-1.22918e-07
1.05472e-06
-1.20109e-07
1.09326e-06
-1.17373e-07
1.13096e-06
-1.14712e-07
1.16782e-06
-1.12122e-07
1.20387e-06
-1.09604e-07
1.23913e-06
-1.07157e-07
1.27363e-06
-1.04779e-07
1.30738e-06
-1.0247e-07
1.34041e-06
-1.00231e-07
1.37275e-06
-9.80607e-08
1.4044e-06
-9.59591e-08
1.4354e-06
-9.39263e-08
1.46577e-06
-9.19623e-08
1.49553e-06
-9.00672e-08
1.52469e-06
-8.82409e-08
1.55329e-06
-8.64835e-08
1.58135e-06
-8.47947e-08
1.60888e-06
-8.31742e-08
1.6359e-06
-8.16214e-08
1.66245e-06
-8.01351e-08
1.68854e-06
-7.87137e-08
1.71418e-06
-7.73546e-08
1.73941e-06
-7.60538e-08
1.76423e-06
-7.48058e-08
1.78866e-06
-7.36027e-08
1.81271e-06
-7.24332e-08
1.83639e-06
-7.12816e-08
1.85969e-06
-7.01263e-08
1.88262e-06
-6.89374e-08
1.90514e-06
-6.76735e-08
1.92722e-06
-6.62773e-08
1.94881e-06
-6.46688e-08
1.96981e-06
-6.27347e-08
1.99009e-06
-6.03122e-08
2.00945e-06
-5.71609e-08
2.02759e-06
-5.29172e-08
2.0441e-06
-4.69907e-08
2.05836e-06
-3.84415e-08
2.06959e-06
-2.551e-08
2.07694e-06
-5.35233e-09
2.08084e-06
2.75199e-08
8.5491e-08
2.08338e-06
9.37376e-08
-6.17103e-07
6.23948e-08
-5.14959e-07
1.39118e-08
-3.69465e-07
-4.3179e-08
-2.3672e-07
-1.12676e-07
-1.09988e-07
-1.98047e-07
1.23924e-08
-3.02277e-07
1.30699e-07
-4.27782e-07
2.44575e-07
-5.77138e-07
3.53761e-07
-7.53728e-07
4.58366e-07
-9.6231e-07
5.58978e-07
-1.2072e-06
6.56884e-07
-1.48719e-06
7.53292e-07
-1.79147e-06
8.47284e-07
-2.10136e-06
9.34512e-07
-2.39722e-06
1.00856e-06
-2.66456e-06
1.06365e-06
-2.89511e-06
1.09653e-06
-3.08561e-06
1.10665e-06
-3.23687e-06
1.09569e-06
-3.35325e-06
1.0667e-06
-3.44128e-06
1.02315e-06
-3.5081e-06
9.68824e-07
-3.56022e-06
9.07521e-07
-3.60312e-06
8.42452e-07
-3.64123e-06
7.76251e-07
-3.67781e-06
7.11031e-07
-3.71487e-06
6.4834e-07
-3.75343e-06
5.8918e-07
-3.79376e-06
5.34072e-07
-3.83568e-06
4.83171e-07
-3.87868e-06
4.36396e-07
-3.92213e-06
3.93516e-07
-3.96533e-06
3.54209e-07
-4.00765e-06
3.18114e-07
-4.04849e-06
2.84859e-07
-4.08734e-06
2.54088e-07
-4.12379e-06
2.2547e-07
-4.15749e-06
1.98704e-07
-4.18818e-06
1.73527e-07
-4.21562e-06
1.49709e-07
-4.23964e-06
1.27053e-07
-4.26009e-06
1.05394e-07
-4.27685e-06
8.45897e-08
-4.2898e-06
6.45208e-08
-4.29886e-06
4.50855e-08
-4.30396e-06
2.61977e-08
-4.30504e-06
7.78056e-09
-4.30208e-06
-1.02396e-08
-4.29512e-06
-2.7924e-08
-4.28421e-06
-4.53005e-08
-4.26941e-06
-6.2366e-08
-4.25076e-06
-7.91078e-08
-4.22832e-06
-9.55132e-08
-4.20213e-06
-1.11569e-07
-4.17226e-06
-1.2726e-07
-4.13879e-06
-1.42572e-07
-4.10179e-06
-1.57486e-07
-4.06135e-06
-1.71987e-07
-4.01757e-06
-1.86056e-07
-3.97054e-06
-1.99674e-07
-3.92038e-06
-2.12823e-07
-3.8672e-06
-2.25483e-07
-3.81111e-06
-2.37639e-07
-3.75224e-06
-2.4928e-07
-3.6907e-06
-2.60391e-07
-3.62664e-06
-2.70958e-07
-3.56017e-06
-2.80972e-07
-3.49143e-06
-2.90425e-07
-3.42055e-06
-2.99311e-07
-3.34767e-06
-3.07626e-07
-3.27294e-06
-3.15369e-07
-3.19647e-06
-3.2254e-07
-3.11841e-06
-3.29141e-07
-3.0389e-06
-3.35175e-07
-2.95807e-06
-3.40648e-07
-2.87606e-06
-3.45569e-07
-2.79298e-06
-3.49946e-07
-2.70898e-06
-3.53789e-07
-2.62418e-06
-3.57112e-07
-2.5387e-06
-3.59926e-07
-2.45266e-06
-3.62248e-07
-2.36618e-06
-3.64092e-07
-2.27938e-06
-3.65474e-07
-2.19236e-06
-3.66413e-07
-2.10524e-06
-3.66926e-07
-2.01812e-06
-3.67031e-07
-1.93109e-06
-3.66745e-07
-1.84427e-06
-3.66086e-07
-1.75774e-06
-3.65069e-07
-1.6716e-06
-3.63709e-07
-1.58595e-06
-3.62016e-07
-1.50085e-06
-3.59997e-07
-1.41639e-06
-3.57655e-07
-1.3326e-06
-3.5499e-07
-1.24953e-06
-3.52013e-07
-1.16721e-06
-3.48743e-07
-1.08567e-06
-3.45213e-07
-1.00498e-06
-3.41457e-07
-9.25171e-07
-3.37505e-07
-8.46305e-07
-3.33381e-07
-7.68424e-07
-3.29103e-07
-6.91566e-07
-3.24688e-07
-6.15765e-07
-3.20148e-07
-5.41048e-07
-3.15499e-07
-4.67441e-07
-3.10751e-07
-3.94967e-07
-3.05918e-07
-3.23643e-07
-3.0101e-07
-2.53483e-07
-2.96039e-07
-1.84497e-07
-2.91016e-07
-1.16695e-07
-2.85954e-07
-5.00834e-08
-2.80865e-07
1.53307e-08
-2.75759e-07
7.95431e-08
-2.70646e-07
1.42552e-07