/*--------------------------------*- C++ -*----------------------------------*\
  =========                 |
  \\      /  F ield         | OpenFOAM: The Open Source CFD Toolbox
   \\    /   O peration     | Website:  https://openfoam.org
    \\  /    A nd           | Version:  8
     \\/     M anipulation  |
\*---------------------------------------------------------------------------*/
FoamFile
{
    version     2.0;
    format      ascii;
    class       volVectorField;
    location    "100";
    object      U;
}
// * * * * * * * * * * * * * * * * * * * * * * * * * * * * * * * * * * * * * //

dimensions      [0 1 -1 0 0 0 0];

internalField   nonuniform List<vector> 
12225
(
(9.85174 -0.900707 0)
(9.65339 -0.750041 0)
(9.43298 -0.433305 0)
(9.19256 -0.223127 0)
(8.96661 -0.1062 0)
(8.76822 -0.0453198 0)
(8.59651 -0.0146256 0)
(8.45111 0.00103301 0)
(8.32695 0.00874604 0)
(8.22244 0.0126976 0)
(8.13241 0.0145539 0)
(8.05461 0.0156068 0)
(7.98556 0.0161893 0)
(7.92354 0.0166651 0)
(7.86485 0.0172681 0)
(7.81148 0.0188031 0)
(7.7358 0.0219374 0)
(7.72739 0.0315486 0)
(10.0563 0.237273 0)
(10.1254 0.341983 0)
(10.1231 0.27368 0)
(10.0867 0.194729 0)
(10.0423 0.140058 0)
(9.99334 0.104664 0)
(9.93821 0.0816583 0)
(9.8767 0.0661513 0)
(9.8126 0.0554063 0)
(9.74728 0.0475207 0)
(9.68304 0.0416148 0)
(9.62039 0.0371272 0)
(9.56026 0.0337127 0)
(9.50282 0.0314357 0)
(9.44725 0.029906 0)
(9.39674 0.0316719 0)
(9.3413 0.031849 0)
(9.31483 0.0574137 0)
(10.0031 0.0593613 0)
(10.0294 0.0556847 0)
(10.0555 0.0312778 0)
(10.0706 0.0304109 0)
(10.078 0.0391545 0)
(10.0792 0.045963 0)
(10.0741 0.0494185 0)
(10.0627 0.0508312 0)
(10.0471 0.0510813 0)
(10.028 0.0506744 0)
(10.0067 0.0499516 0)
(9.98342 0.0491872 0)
(9.95893 0.0485542 0)
(9.93356 0.0483764 0)
(9.90723 0.0486559 0)
(9.8813 0.0511259 0)
(9.85402 0.0542907 0)
(9.83241 0.0678895 0)
(9.99736 0.0106426 0)
(10.0097 0.0260412 0)
(10.0341 0.0372949 0)
(10.0522 0.0492123 0)
(10.0644 0.057171 0)
(10.0737 0.0600453 0)
(10.08 0.0601929 0)
(10.0831 0.0594387 0)
(10.0836 0.058428 0)
(10.0822 0.0573562 0)
(10.079 0.0563191 0)
(10.0745 0.0554775 0)
(10.0686 0.0549038 0)
(10.0619 0.0548801 0)
(10.0541 0.0554797 0)
(10.0462 0.0578713 0)
(10.0382 0.0614046 0)
(10.033 0.0697763 0)
(9.9993 0.0069819 0)
(10.0085 0.031938 0)
(10.0269 0.0449266 0)
(10.0413 0.0510738 0)
(10.0521 0.0546751 0)
(10.0621 0.0562434 0)
(10.0709 0.0565603 0)
(10.0777 0.056387 0)
(10.0829 0.0560242 0)
(10.0867 0.0555822 0)
(10.0894 0.055145 0)
(10.0912 0.0548567 0)
(10.0921 0.0548183 0)
(10.0923 0.0552623 0)
(10.092 0.0563226 0)
(10.0917 0.0586471 0)
(10.092 0.0619705 0)
(10.0943 0.0671969 0)
(10.0004 0.0091809 0)
(10.0081 0.0312202 0)
(10.0221 0.0413558 0)
(10.0342 0.0457967 0)
(10.0441 0.0494161 0)
(10.0536 0.0518873 0)
(10.0624 0.0530699 0)
(10.0699 0.0535167 0)
(10.0763 0.0536292 0)
(10.0817 0.0535854 0)
(10.0864 0.0535005 0)
(10.0903 0.0535137 0)
(10.0937 0.0537412 0)
(10.0966 0.0543624 0)
(10.0993 0.0555042 0)
(10.1021 0.0574749 0)
(10.1056 0.0601043 0)
(10.1107 0.0633231 0)
(10.0005 0.00885793 0)
(10.0068 0.026542 0)
(10.0182 0.0361424 0)
(10.0291 0.0413042 0)
(10.0383 0.0454149 0)
(10.0471 0.0482618 0)
(10.0554 0.0497535 0)
(10.0629 0.0504491 0)
(10.0694 0.0507875 0)
(10.0753 0.0509578 0)
(10.0805 0.0510734 0)
(10.0853 0.0512552 0)
(10.0897 0.0516131 0)
(10.0938 0.052274 0)
(10.0978 0.0533254 0)
(10.102 0.0548771 0)
(10.1069 0.0567692 0)
(10.1128 0.0586658 0)
(10.0004 0.00782522 0)
(10.0057 0.0230012 0)
(10.0155 0.032629 0)
(10.0255 0.0381894 0)
(10.0342 0.0422548 0)
(10.0424 0.0450807 0)
(10.0503 0.0466942 0)
(10.0575 0.0475557 0)
(10.064 0.048053 0)
(10.0699 0.0483665 0)
(10.0754 0.048606 0)
(10.0804 0.0488802 0)
(10.0851 0.0492867 0)
(10.0897 0.0499147 0)
(10.0942 0.0508136 0)
(10.099 0.0519984 0)
(10.1043 0.0533106 0)
(10.1104 0.0544076 0)
(10.0004 0.00697157 0)
(10.0049 0.0204482 0)
(10.0134 0.0297237 0)
(10.0225 0.0353232 0)
(10.0308 0.0392989 0)
(10.0386 0.0421213 0)
(10.0461 0.0438512 0)
(10.0531 0.0448521 0)
(10.0595 0.04547 0)
(10.0654 0.0458843 0)
(10.0709 0.0462038 0)
(10.076 0.0465274 0)
(10.081 0.0469388 0)
(10.0857 0.0475006 0)
(10.0906 0.0482338 0)
(10.0956 0.0491076 0)
(10.101 0.0499715 0)
(10.107 0.0505317 0)
(10.0004 0.00617683 0)
(10.0042 0.0180229 0)
(10.0115 0.0266551 0)
(10.0197 0.0321561 0)
(10.0274 0.036043 0)
(10.0348 0.0388506 0)
(10.0419 0.0406714 0)
(10.0486 0.041788 0)
(10.0549 0.0425054 0)
(10.0607 0.0430007 0)
(10.0662 0.0433791 0)
(10.0714 0.0437269 0)
(10.0764 0.0441128 0)
(10.0814 0.0445783 0)
(10.0863 0.0451218 0)
(10.0914 0.0456911 0)
(10.0968 0.0461522 0)
(10.1026 0.0462786 0)
(10.0003 0.00539199 0)
(10.0036 0.0156299 0)
(10.0097 0.0234717 0)
(10.017 0.0287687 0)
(10.0241 0.0325294 0)
(10.031 0.0352713 0)
(10.0378 0.0371306 0)
(10.0442 0.0383279 0)
(10.0503 0.0391189 0)
(10.056 0.0396715 0)
(10.0614 0.0400842 0)
(10.0666 0.0404296 0)
(10.0717 0.0407616 0)
(10.0767 0.0411049 0)
(10.0817 0.0414459 0)
(10.0868 0.0417272 0)
(10.092 0.0418429 0)
(10.0974 0.0416321 0)
(10.0003 0.00460804 0)
(10.003 0.0132977 0)
(10.0081 0.0202451 0)
(10.0145 0.0251977 0)
(10.021 0.0287588 0)
(10.0274 0.0313736 0)
(10.0338 0.0332108 0)
(10.0399 0.0344441 0)
(10.0457 0.0352763 0)
(10.0513 0.0358562 0)
(10.0567 0.0362745 0)
(10.0618 0.0365908 0)
(10.0668 0.0368457 0)
(10.0718 0.037052 0)
(10.0767 0.0371941 0)
(10.0817 0.0372218 0)
(10.0867 0.0370609 0)
(10.0918 0.0366069 0)
(10.0003 0.00383684 0)
(10.0025 0.0110473 0)
(10.0068 0.0170143 0)
(10.0123 0.0214707 0)
(10.0182 0.0247388 0)
(10.0241 0.0271593 0)
(10.03 0.028905 0)
(10.0358 0.0301162 0)
(10.0414 0.0309452 0)
(10.0468 0.0315154 0)
(10.052 0.0319068 0)
(10.0571 0.0321692 0)
(10.062 0.0323304 0)
(10.0669 0.0323989 0)
(10.0717 0.0323602 0)
(10.0765 0.0321813 0)
(10.0812 0.0318146 0)
(10.086 0.0312001 0)
(10.0002 0.00308601 0)
(10.0021 0.00887406 0)
(10.0057 0.013796 0)
(10.0104 0.0176166 0)
(10.0157 0.0204841 0)
(10.0211 0.0226303 0)
(10.0266 0.0242059 0)
(10.032 0.0253238 0)
(10.0374 0.0260939 0)
(10.0425 0.0266113 0)
(10.0476 0.0269422 0)
(10.0525 0.0271273 0)
(10.0573 0.0271868 0)
(10.0621 0.0271261 0)
(10.0667 0.0269373 0)
(10.0712 0.0266025 0)
(10.0757 0.0260984 0)
(10.0801 0.0253912 0)
(10.0002 0.00235493 0)
(10.0018 0.00675965 0)
(10.0048 0.010588 0)
(10.0089 0.0136518 0)
(10.0136 0.0160032 0)
(10.0185 0.0177822 0)
(10.0236 0.0191017 0)
(10.0287 0.0200469 0)
(10.0337 0.0206947 0)
(10.0387 0.021112 0)
(10.0436 0.0213489 0)
(10.0483 0.0214366 0)
(10.0529 0.0213914 0)
(10.0575 0.0212175 0)
(10.0619 0.0209142 0)
(10.0662 0.0204739 0)
(10.0704 0.0198916 0)
(10.0744 0.0191482 0)
(10.0002 0.00163537 0)
(10.0015 0.0046723 0)
(10.0041 0.00736118 0)
(10.0077 0.00956167 0)
(10.0119 0.0112803 0)
(10.0164 0.0125907 0)
(10.0211 0.0135634 0)
(10.0259 0.0142549 0)
(10.0307 0.0147142 0)
(10.0354 0.0149832 0)
(10.04 0.0150943 0)
(10.0446 0.0150693 0)
(10.049 0.0149206 0)
(10.0533 0.0146533 0)
(10.0575 0.0142696 0)
(10.0616 0.0137695 0)
(10.0655 0.0131563 0)
(10.0692 0.0124202 0)
(10.0001 0.000909595 0)
(10.0013 0.00256072 0)
(10.0036 0.0040531 0)
(10.0069 0.00529074 0)
(10.0107 0.0062643 0)
(10.0149 0.00700266 0)
(10.0193 0.00753848 0)
(10.0238 0.00789797 0)
(10.0283 0.00810557 0)
(10.0328 0.00818054 0)
(10.0373 0.00813901 0)
(10.0416 0.00799129 0)
(10.0458 0.0077452 0)
(10.0499 0.00740423 0)
(10.0539 0.0069717 0)
(10.0577 0.00644954 0)
(10.0613 0.00584402 0)
(10.0648 0.00514798 0)
(10.0001 0.000193092 0)
(10.0012 0.000477311 0)
(10.0034 0.000764131 0)
(10.0065 0.00100304 0)
(10.0102 0.00118256 0)
(10.0142 0.00130192 0)
(10.0184 0.00135798 0)
(10.0228 0.00135046 0)
(10.0271 0.00127923 0)
(10.0315 0.00114557 0)
(10.0357 0.000947962 0)
(10.0399 0.000686739 0)
(10.0439 0.000360924 0)
(10.0478 -2.80207e-05 0)
(10.0516 -0.000480295 0)
(10.0552 -0.000993507 0)
(10.0587 -0.00156398 0)
(10.0619 -0.00219761 0)
(10.0001 -0.000471094 0)
(10.0013 -0.00145398 0)
(10.0035 -0.00229648 0)
(10.0066 -0.00299711 0)
(10.0103 -0.00355943 0)
(10.0143 -0.00401407 0)
(10.0185 -0.00439808 0)
(10.0228 -0.00473847 0)
(10.0271 -0.0050554 0)
(10.0314 -0.00536668 0)
(10.0356 -0.00568823 0)
(10.0397 -0.00603173 0)
(10.0436 -0.00640496 0)
(10.0474 -0.0068125 0)
(10.051 -0.00725726 0)
(10.0545 -0.00774064 0)
(10.0578 -0.00826024 0)
(10.0609 -0.00882392 0)
(10.0001 -0.00108305 0)
(10.0013 -0.00324148 0)
(10.0037 -0.00513474 0)
(10.007 -0.00668597 0)
(10.0109 -0.00789398 0)
(10.015 -0.0088357 0)
(10.0194 -0.00958456 0)
(10.0237 -0.0101893 0)
(10.0281 -0.0106898 0)
(10.0324 -0.0111257 0)
(10.0366 -0.0115269 0)
(10.0406 -0.011916 0)
(10.0445 -0.0123056 0)
(10.0482 -0.0127065 0)
(10.0518 -0.0131244 0)
(10.0551 -0.0135644 0)
(10.0584 -0.0140257 0)
(10.0614 -0.0145172 0)
(10.0002 -0.00166269 0)
(10.0014 -0.00497116 0)
(10.004 -0.00789813 0)
(10.0077 -0.0102235 0)
(10.0119 -0.0119719 0)
(10.0163 -0.0133119 0)
(10.0208 -0.0143558 0)
(10.0254 -0.0151602 0)
(10.0299 -0.0157858 0)
(10.0342 -0.0162938 0)
(10.0384 -0.016733 0)
(10.0424 -0.0171319 0)
(10.0463 -0.0175121 0)
(10.05 -0.0178853 0)
(10.0535 -0.0182635 0)
(10.0569 -0.0186509 0)
(10.06 -0.0190515 0)
(10.063 -0.0194715 0)
(10.0002 -0.00220279 0)
(10.0015 -0.00668374 0)
(10.0045 -0.0106881 0)
(10.0087 -0.0137276 0)
(10.0133 -0.0159087 0)
(10.0181 -0.0175494 0)
(10.0228 -0.0188011 0)
(10.0276 -0.0197318 0)
(10.0322 -0.0204262 0)
(10.0366 -0.0209668 0)
(10.0409 -0.0214104 0)
(10.045 -0.0217931 0)
(10.0488 -0.0221404 0)
(10.0525 -0.0224711 0)
(10.056 -0.0227973 0)
(10.0593 -0.0231275 0)
(10.0625 -0.0234633 0)
(10.0654 -0.0238139 0)
(10.0001 -0.00268589 0)
(10.0015 -0.00841658 0)
(10.005 -0.0135042 0)
(10.0099 -0.0171709 0)
(10.0151 -0.0197521 0)
(10.0201 -0.0216647 0)
(10.0252 -0.023041 0)
(10.0302 -0.0239955 0)
(10.035 -0.0246799 0)
(10.0395 -0.0252029 0)
(10.0439 -0.0256193 0)
(10.048 -0.0259647 0)
(10.0519 -0.0262663 0)
(10.0556 -0.0265466 0)
(10.059 -0.0268187 0)
(10.0623 -0.0270912 0)
(10.0654 -0.0273664 0)
(10.0684 -0.0276514 0)
(10 -0.00306413 0)
(10.0014 -0.0105019 0)
(10.0055 -0.0164964 0)
(10.0112 -0.0203516 0)
(10.0169 -0.0232261 0)
(10.0224 -0.0254932 0)
(10.0278 -0.0270437 0)
(10.0331 -0.0280104 0)
(10.0381 -0.0286467 0)
(10.0427 -0.0291073 0)
(10.0472 -0.0294554 0)
(10.0513 -0.0297283 0)
(10.0553 -0.0299582 0)
(10.059 -0.0301676 0)
(10.0625 -0.0303711 0)
(10.0657 -0.0305752 0)
(10.0688 -0.0307827 0)
(10.0717 -0.0309962 0)
(9.99981 -0.00274996 0)
(10.001 -0.0133862 0)
(10.0061 -0.020718 0)
(10.0126 -0.0241213 0)
(10.0186 -0.026624 0)
(10.0246 -0.0288795 0)
(10.0306 -0.0305113 0)
(10.0363 -0.0315466 0)
(10.0416 -0.0322223 0)
(10.0465 -0.0326854 0)
(10.0511 -0.0330016 0)
(10.0553 -0.0332195 0)
(10.0593 -0.0333803 0)
(10.0629 -0.0335119 0)
(10.0663 -0.0336325 0)
(10.0694 -0.0337521 0)
(10.0723 -0.0338727 0)
(10.0749 -0.033998 0)
(9.99853 0.00015847 0)
(9.99831 -0.0138482 0)
(10.0058 -0.0247425 0)
(10.0142 -0.0296211 0)
(10.0211 -0.0320451 0)
(10.0277 -0.0335021 0)
(10.0345 -0.034342 0)
(10.0408 -0.0348627 0)
(10.0464 -0.035239 0)
(10.0514 -0.0355085 0)
(10.0559 -0.0356799 0)
(10.06 -0.035779 0)
(10.0635 -0.0358351 0)
(10.0667 -0.0358668 0)
(10.0695 -0.035891 0)
(10.0719 -0.0359168 0)
(10.0741 -0.0359454 0)
(10.076 -0.0359742 0)
(9.99503 0.00204888 0)
(9.99237 -0.0067113 0)
(10.0041 -0.0182259 0)
(10.0171 -0.0292681 0)
(10.027 -0.036914 0)
(10.0353 -0.0404821 0)
(10.0426 -0.0415206 0)
(10.0488 -0.0415508 0)
(10.0537 -0.0412478 0)
(10.0577 -0.0408034 0)
(10.0609 -0.040297 0)
(10.0633 -0.0397847 0)
(10.065 -0.0393001 0)
(10.0661 -0.0388553 0)
(10.0667 -0.0384606 0)
(10.0669 -0.0381176 0)
(10.0667 -0.0378219 0)
(10.0663 -0.037542 0)
(9.99445 -0.0269523 0)
(9.99761 -0.0202454 0)
(10.0115 -0.00241308 0)
(10.0263 -0.00193991 0)
(10.0388 -0.0109398 0)
(10.0486 -0.0195218 0)
(10.055 -0.0254408 0)
(10.0581 -0.0294022 0)
(10.0587 -0.032035 0)
(10.0573 -0.0336778 0)
(10.0545 -0.0346094 0)
(10.0504 -0.0350743 0)
(10.0455 -0.0352429 0)
(10.0398 -0.0352282 0)
(10.0336 -0.0351152 0)
(10.027 -0.0349611 0)
(10.0202 -0.0348238 0)
(10.0133 -0.0346492 0)
(10.0234 -0.168331 0)
(10.0675 -0.267755 0)
(10.0786 -0.232358 0)
(10.0721 -0.176456 0)
(10.0639 -0.133692 0)
(10.0548 -0.103796 0)
(10.0415 -0.0828085 0)
(10.0236 -0.0681529 0)
(10.0026 -0.0578986 0)
(9.97976 -0.0505068 0)
(9.95593 -0.0449864 0)
(9.93165 -0.0407382 0)
(9.90739 -0.0373971 0)
(9.88343 -0.0347084 0)
(9.86 -0.0325155 0)
(9.83723 -0.0307348 0)
(9.81541 -0.0293334 0)
(9.79451 -0.0285849 0)
(9.94528 0.650405 0)
(9.89252 0.581571 0)
(9.80531 0.36778 0)
(9.68425 0.213316 0)
(9.55867 0.119113 0)
(9.44281 0.0645811 0)
(9.33911 0.0334266 0)
(9.24677 0.0154713 0)
(9.16479 0.00497195 0)
(9.09223 -0.00126139 0)
(9.0277 -0.00498341 0)
(8.97002 -0.00723432 0)
(8.9181 -0.00859571 0)
(8.87118 -0.00944092 0)
(8.82845 -0.00995857 0)
(8.78939 -0.010321 0)
(8.75315 -0.0106553 0)
(8.71939 -0.0113209 0)
(0.0128792 -0.0186006 0)
(0.0340275 -0.0267823 0)
(0.0508185 -0.0243422 0)
(0.0664934 -0.0178363 0)
(0.0767508 -0.00961841 0)
(0.0807301 -0.00123016 0)
(0.0790581 0.00617118 -1.08918e-19)
(0.0724603 0.0117759 1.04177e-19)
(0.0619064 0.0152381 0)
(0.0507496 0.0163575 1.28291e-19)
(0.0409618 0.0146365 0)
(0.010849 0.0166765 0)
(-0.0099048 0.0274193 0)
(-0.0255326 0.0370896 -1.51504e-19)
(-0.0467958 0.0368424 0)
(-0.0807372 0.0189315 0)
(-0.103107 0.0157999 3.15934e-19)
(-0.133971 0.0190026 0)
(-0.171086 0.0259825 0)
(-0.212592 0.0347033 0)
(-0.257447 0.0436377 -1.64875e-19)
(-0.305904 0.0517689 0)
(-0.358952 0.0566229 -1.31778e-19)
(-0.415271 0.0583185 0)
(-0.472846 0.0598672 0)
(-0.532263 0.0614301 -1.02677e-19)
(-0.593239 0.0627263 0)
(-0.655486 0.0636351 8.89345e-20)
(-0.718568 0.0640932 0)
(-0.782019 0.0640965 -7.83724e-20)
(-0.8454 0.0636515 0)
(-0.90829 0.0628025 0)
(-0.970328 0.061583 0)
(-1.03119 0.0600575 0)
(-1.09064 0.0582738 0)
(-1.14845 0.0563039 5.88393e-20)
(-1.2045 0.0541929 0)
(-1.25869 0.0520055 -1.09655e-19)
(-1.31097 0.0497756 0)
(-1.36133 0.0475533 1.03128e-19)
(-1.40978 0.0453549 0)
(-1.45637 0.0432182 0)
(-1.50116 0.0411453 -9.53379e-20)
(-1.54421 0.0391599 0)
(-1.58563 0.0372559 -9.11007e-20)
(-1.62547 0.0354516 8.9198e-20)
(-1.66383 0.0337334 0)
(-1.70079 0.0321135 8.57253e-20)
(-1.73643 0.0305747 8.41264e-20)
(-1.77082 0.0291304 0)
(-1.80403 0.0277597 0)
(-1.83615 0.0264725 0)
(-1.86724 0.0252481 0)
(-1.89736 0.0241002 0)
(-1.92658 0.0230072 -7.58271e-20)
(-1.95494 0.0219827 0)
(-1.98252 0.0210072 7.33715e-20)
(-2.00935 0.0200975 0)
(-2.03549 0.0192335 0)
(-2.06098 0.0184339 -6.98423e-20)
(-2.08588 0.0176775 0)
(-2.11022 0.0169852 6.7553e-20)
(-2.13406 0.0163353 0)
(-2.15745 0.0157505 0)
(-2.18044 0.0152084 0)
(-2.20308 0.0147337 -6.30506e-20)
(-2.22543 0.0143036 0)
(-2.24753 0.0139443 0)
(-2.26944 0.0136318 -5.97024e-20)
(-2.29122 0.0133935 0)
(-2.31291 0.0132032 -5.74782e-20)
(-2.33457 0.0130882 0)
(-2.35627 0.0130211 0)
(-2.37806 0.0130304 0)
(-2.39999 0.0130889 5.30609e-20)
(-2.42212 0.0132317 0)
(-2.44451 0.0134426 0)
(-2.46722 0.0137361 4.98061e-20)
(-2.49031 0.0140392 4.87386e-20)
(-2.51382 0.014396 0)
(-2.53779 0.0148526 4.66392e-20)
(-2.56225 0.0153964 0)
(-2.58726 0.0159344 8.91968e-20)
(-2.6128 0.0165214 0)
(-2.63889 0.0171471 8.52669e-20)
(-2.66554 0.0177933 0)
(-2.69272 0.0184374 -8.15302e-20)
(-2.72041 0.0190845 0)
(-2.74854 0.0197104 0)
(-2.77709 0.0202793 0)
(-2.80601 0.0207575 7.4768e-20)
(-2.83521 0.021132 0)
(-2.86459 0.0213763 -7.17573e-20)
(-2.89403 0.0214822 0)
(-2.92339 0.0214416 6.9004e-20)
(-2.95252 0.0212572 6.77272e-20)
(-2.98122 0.0209318 6.65201e-20)
(-3.00931 0.0204591 0)
(-3.03656 0.0197987 0)
(-3.06273 0.0188059 0)
(-3.08739 0.0169689 0)
(-3.11007 0.015528 0)
(-3.1309 0.015855 0)
(-3.14979 0.0145464 0)
(-3.16569 0.0118784 0)
(-3.17831 0.0111821 -5.87887e-20)
(-3.18775 0.0106474 -5.82501e-20)
(-3.19337 0.00847288 0)
(-3.19554 0.00675264 0)
(-3.19418 0.00553918 0)
(-3.18918 0.00427401 -5.57671e-20)
(-3.18044 0.00241544 0)
(-3.16737 -8.58903e-05 0)
(-3.14995 -0.00219678 0)
(-3.12794 -0.00438038 0)
(-3.1012 -0.00664882 5.14055e-20)
(-3.06953 -0.0089373 0)
(-3.03285 -0.0108901 0)
(-2.99115 -0.013609 -4.69331e-20)
(-2.94394 -0.0165779 4.49224e-20)
(-2.89138 -0.0191388 0)
(-2.83339 -0.0221531 3.99129e-20)
(-2.7699 -0.0252358 0)
(-2.70094 -0.0284256 -3.32298e-20)
(-2.62648 -0.0317443 0)
(-2.54661 -0.0351423 0)
(-2.46143 -0.0385975 0)
(-2.37108 -0.0420941 0)
(-2.27573 -0.0455877 0)
(-2.17561 -0.0490589 -3.09464e-21)
(-2.07098 -0.0524598 -2.04814e-20)
(-1.96216 -0.055769 0)
(-1.84948 -0.0589479 0)
(-1.73332 -0.0619754 0)
(-1.61407 -0.0648277 1.13093e-19)
(-1.49214 -0.0674833 0)
(-1.36794 -0.069937 0)
(-1.2419 -0.0722001 0)
(-1.11445 -0.0742718 2.55825e-19)
(-0.985992 -0.07616 -3.02482e-19)
(-0.856965 -0.077896 0)
(-0.72777 -0.079513 0)
(-0.598766 -0.0810284 -4.80989e-19)
(-0.470414 -0.0823956 -5.57762e-19)
(-0.34275 -0.0836583 0)
(-0.21656 -0.0850234 0)
(-0.0901839 -0.0852673 8.18966e-19)
(0.0390676 -0.0829747 -8.04449e-19)
(0.167254 -0.0792221 0)
(0.292467 -0.0751884 0)
(0.414372 -0.0712156 -7.11637e-19)
(0.532553 -0.0673785 0)
(0.646795 -0.0636949 0)
(0.756995 -0.060163 -6.54491e-19)
(0.863107 -0.0568007 0)
(0.965163 -0.0536294 -6.26719e-19)
(1.06319 -0.0506087 0)
(1.15726 -0.0477105 0)
(1.2475 -0.0449776 0)
(1.33396 -0.0424081 5.85047e-19)
(1.41676 -0.0399729 0)
(1.49599 -0.0376535 0)
(1.57177 -0.0354567 0)
(1.64422 -0.0333791 0)
(1.71343 -0.0314067 0)
(1.77951 -0.0295322 0)
(1.84253 -0.0277492 5.37242e-19)
(1.90261 -0.0260548 5.32131e-19)
(1.95983 -0.0244473 0)
(2.01423 -0.0229037 0)
(2.06587 -0.0214122 0)
(2.11469 -0.0199525 -5.15232e-19)
(2.16057 -0.0184784 0)
(2.20325 -0.0169315 1.01854e-18)
(2.24222 -0.0152317 -1.01455e-18)
(2.27626 -0.0131549 -1.01231e-18)
(2.3042 -0.010176 1.01397e-18)
(2.31779 -0.00462055 -1.02083e-18)
(2.31703 0.00890007 1.03545e-18)
(2.21 0.0284524 0)
(0.0116124 -0.0695618 0)
(0.028764 -0.0671285 0)
(0.0353152 -0.0501956 2.21931e-19)
(0.0392715 -0.0333998 0)
(0.0392923 -0.0169654 -1.3994e-19)
(0.035437 -0.00125681 -1.26608e-19)
(0.028099 0.0132931 -5.97026e-20)
(0.0172617 0.0264407 -5.91692e-20)
(0.00278583 0.0382924 0)
(-0.0152177 0.0493605 -6.81658e-20)
(-0.0398422 0.0594405 0)
(-0.071306 0.065449 0)
(-0.101275 0.0708983 1.3598e-19)
(-0.132058 0.0785661 6.60661e-20)
(-0.169721 0.0862414 -1.3874e-19)
(-0.213734 0.0915043 -1.37843e-19)
(-0.261799 0.0983877 -6.5676e-20)
(-0.311717 0.107536 0)
(-0.362952 0.118155 0)
(-0.415423 0.128822 0)
(-0.469265 0.138158 -4.83024e-20)
(-0.524811 0.14587 0)
(-0.582641 0.152182 1.29737e-19)
(-0.642463 0.156819 0)
(-0.70321 0.160064 0)
(-0.764272 0.162293 3.77389e-20)
(-0.825191 0.163467 0)
(-0.885544 0.163536 -3.46528e-20)
(-0.944969 0.162488 -6.63064e-20)
(-1.00318 0.160398 3.20249e-20)
(-1.05994 0.157375 0)
(-1.11509 0.153567 0)
(-1.16852 0.149118 0)
(-1.22015 0.144185 -5.56521e-20)
(-1.26996 0.138907 -5.40171e-20)
(-1.31795 0.133424 -2.6365e-20)
(-1.36413 0.127846 0)
(-1.40855 0.122279 5.00581e-20)
(-1.45127 0.116794 0)
(-1.49237 0.11146 -4.77716e-20)
(-1.5319 0.106312 0)
(-1.56996 0.101391 0)
(-1.60661 0.0967024 4.48981e-20)
(-1.64195 0.0922657 0)
(-1.67604 0.0880726 1.29469e-19)
(-1.70896 0.0841308 -4.25126e-20)
(-1.74079 0.0804227 0)
(-1.77158 0.0769492 -4.11181e-20)
(-1.80141 0.0736883 -4.04661e-20)
(-1.83033 0.07064 0)
(-1.85839 0.06778 0)
(-1.88565 0.0651073 0)
(-1.91215 0.062598 0)
(-1.93796 0.0602546 0)
(-1.96311 0.0580541 3.69606e-20)
(-1.98765 0.0560002 7.26641e-20)
(-2.01163 0.0540726 -3.58889e-20)
(-2.03509 0.0522801 0)
(-2.05806 0.050603 6.95434e-20)
(-2.08058 0.0490529 -3.41958e-20)
(-2.1027 0.0476104 0)
(-2.12446 0.0462886 -3.32992e-20)
(-2.14589 0.0450679 0)
(-2.16705 0.0439636 0)
(-2.18796 0.0429559 -6.34603e-20)
(-2.20868 0.0420623 3.12628e-20)
(-2.22925 0.0412626 -6.14409e-20)
(-2.24972 0.0405762 6.04302e-20)
(-2.27012 0.0399818 2.97405e-20)
(-2.2905 0.0394996 0)
(-2.3109 0.0391067 2.87277e-20)
(-2.33138 0.0388231 0)
(-2.35196 0.0386237 0)
(-2.3727 0.0385291 0)
(-2.39364 0.038513 2.66445e-20)
(-2.41481 0.0385961 0)
(-2.43624 0.0387515 5.13806e-20)
(-2.45798 0.0389965 -7.56523e-20)
(-2.48004 0.0392956 -2.47717e-20)
(-2.50244 0.0396553 0)
(-2.5252 0.0400437 -2.38307e-20)
(-2.54833 0.0404743 0)
(-2.5718 0.040911 -4.58403e-20)
(-2.59562 0.0413502 0)
(-2.61975 0.0417592 -4.40941e-20)
(-2.64416 0.0421376 8.60823e-20)
(-2.66881 0.0424597 4.24428e-20)
(-2.69364 0.0427258 0)
(-2.71856 0.0429206 0)
(-2.74348 0.0430157 0)
(-2.76831 0.0429743 -3.9487e-20)
(-2.79292 0.0427682 0)
(-2.81721 0.0423693 3.81855e-20)
(-2.84103 0.0417549 0)
(-2.86424 0.0408987 -1.10296e-19)
(-2.88669 0.0397855 -3.64586e-20)
(-2.90818 0.0384012 -3.59443e-20)
(-2.92854 0.0367369 0)
(-2.94755 0.0347809 0)
(-2.96502 0.0325207 0)
(-2.98086 0.0299444 0)
(-2.995 0.0270211 0)
(-3.00705 0.0237634 -6.64442e-20)
(-3.01684 0.0202289 -6.59371e-20)
(-3.02458 0.0163387 0)
(-3.03011 0.0121327 3.27706e-20)
(-3.03315 0.00777358 3.25594e-20)
(-3.0339 0.00335376 0)
(-3.03166 -0.00109737 6.35703e-20)
(-3.02598 -0.00581444 0)
(-3.01653 -0.0107759 -3.09926e-20)
(-3.00298 -0.0158134 0)
(-2.98536 -0.0209823 0)
(-2.96342 -0.0264022 6.06056e-20)
(-2.93689 -0.0319811 0)
(-2.90562 -0.0377395 -2.94596e-20)
(-2.86937 -0.0435041 0)
(-2.82798 -0.0493508 0)
(-2.78131 -0.0553054 -2.72093e-20)
(-2.72938 -0.0612403 -2.62461e-20)
(-2.67195 -0.067166 0)
(-2.60895 -0.073084 2.39911e-20)
(-2.5404 -0.078956 0)
(-2.46623 -0.0847536 -2.0935e-20)
(-2.38645 -0.0903834 -3.74984e-20)
(-2.30115 -0.095859 0)
(-2.21041 -0.101122 0)
(-2.11439 -0.106151 0)
(-2.01327 -0.110891 0)
(-1.90727 -0.11532 -8.54663e-21)
(-1.79668 -0.11939 -6.56275e-21)
(-1.68182 -0.123079 0)
(-1.56305 -0.126347 0)
(-1.44075 -0.129178 0)
(-1.31535 -0.13155 -3.59574e-20)
(-1.18727 -0.13346 0)
(-1.05697 -0.134914 0)
(-0.924905 -0.135923 1.36403e-19)
(-0.791521 -0.136504 7.81603e-20)
(-0.657269 -0.136683 9.8064e-20)
(-0.52259 -0.136503 0)
(-0.387883 -0.136014 0)
(-0.253543 -0.135308 1.43627e-19)
(-0.119555 -0.13449 -1.5134e-19)
(0.0143399 -0.133721 0)
(0.147151 -0.133168 0)
(0.277057 -0.131922 -1.83466e-19)
(0.403098 -0.128962 5.65629e-19)
(0.525396 -0.124725 0)
(0.644526 -0.119928 0)
(0.760568 -0.114911 2.09687e-19)
(0.87335 -0.109833 0)
(0.982722 -0.104776 4.36205e-19)
(1.08859 -0.0997984 -2.20762e-19)
(1.19089 -0.0949351 0)
(1.28962 -0.0902202 2.33864e-19)
(1.38478 -0.0856651 4.71391e-19)
(1.47642 -0.0812821 0)
(1.56457 -0.0770798 0)
(1.64927 -0.0730493 -2.46986e-19)
(1.7306 -0.0691859 0)
(1.80867 -0.0654941 5.01123e-19)
(1.88356 -0.0619794 0)
(1.95535 -0.0586297 0)
(2.02412 -0.0554224 0)
(2.08998 -0.0523572 0)
(2.15299 -0.0494315 -2.61228e-19)
(2.21324 -0.0466345 -2.62657e-19)
(2.27079 -0.0439541 0)
(2.32571 -0.0413628 0)
(2.37799 -0.0388218 0)
(2.42761 -0.0362797 2.67617e-19)
(2.47443 -0.033647 0)
(2.5182 -0.0308028 -5.40214e-19)
(2.5585 -0.0275035 5.43231e-19)
(2.59437 -0.0233531 5.46693e-19)
(2.62493 -0.017179 5.49741e-19)
(2.64571 -0.00659584 5.58492e-19)
(2.66665 0.0151773 5.62794e-19)
(2.65897 0.0550194 0)
(0.00283567 -0.0980875 0)
(0.00970275 -0.0789161 0)
(0.00695566 -0.0512058 -1.68468e-19)
(0.00202843 -0.0262706 -1.24284e-19)
(-0.00603523 -0.00305392 1.03374e-19)
(-0.0171001 0.0188456 9.10656e-20)
(-0.0310175 0.0395271 1.3144e-22)
(-0.0478679 0.0591133 0)
(-0.0678236 0.0777878 0)
(-0.0910685 0.0956578 0)
(-0.118071 0.112283 0)
(-0.148822 0.126903 0)
(-0.182642 0.140323 -2.21579e-19)
(-0.219555 0.153825 0)
(-0.26012 0.167012 7.11167e-20)
(-0.304219 0.179218 6.91272e-20)
(-0.351389 0.191574 0)
(-0.400608 0.204136 0)
(-0.450956 0.216399 0)
(-0.501807 0.227729 0)
(-0.553077 0.237655 5.48828e-20)
(-0.605031 0.245996 0)
(-0.657589 0.252509 -5.04786e-20)
(-0.710402 0.257045 0)
(-0.7632 0.259678 0)
(-0.815705 0.260526 0)
(-0.867625 0.259668 -8.6524e-20)
(-0.918701 0.257209 0)
(-0.968756 0.253291 4.03591e-20)
(-1.01767 0.248096 -7.7834e-20)
(-1.06538 0.241828 0)
(-1.11181 0.234703 0)
(-1.15695 0.226932 0)
(-1.20079 0.218712 3.45376e-20)
(-1.24333 0.210219 3.36145e-20)
(-1.28457 0.201613 0)
(-1.32455 0.193027 0)
(-1.36327 0.184572 -6.2244e-20)
(-1.40078 0.176332 -6.08659e-20)
(-1.43711 0.168372 5.9579e-20)
(-1.47228 0.160736 0)
(-1.50634 0.153453 0)
(-1.53932 0.146535 0)
(-1.57128 0.13999 0)
(-1.60224 0.133814 -5.43906e-20)
(-1.63225 0.127998 -5.33185e-20)
(-1.66135 0.12253 5.2456e-20)
(-1.68958 0.117396 0)
(-1.71699 0.112577 0)
(-1.74361 0.10806 0)
(-1.76948 0.103822 0)
(-1.79465 0.0998516 -4.86126e-20)
(-1.81915 0.0961291 0)
(-1.84301 0.0926434 0)
(-1.86628 0.0893778 -4.65539e-20)
(-1.88899 0.0863241 -4.599e-20)
(-1.91118 0.0834691 0)
(-1.93288 0.0808083 8.91896e-20)
(-1.95412 0.0783312 -4.40353e-20)
(-1.97495 0.0760359 4.33946e-20)
(-1.99539 0.0739133 0)
(-2.01548 0.0719634 0)
(-2.03525 0.0701781 0)
(-2.05475 0.0685588 0)
(-2.07401 0.0670983 4.02277e-20)
(-2.09306 0.0657993 7.90929e-20)
(-2.11195 0.0646548 3.89669e-20)
(-2.13071 0.063668 -3.83368e-20)
(-2.14939 0.0628315 0)
(-2.16801 0.062148 7.40617e-20)
(-2.18663 0.0616086 7.28033e-20)
(-2.20528 0.0612151 7.15459e-20)
(-2.224 0.0609572 -7.02915e-20)
(-2.24282 0.060836 0)
(-2.26178 0.0608401 -1.01759e-19)
(-2.28091 0.0609692 0)
(-2.30024 0.0612087 3.2593e-20)
(-2.31979 0.0615502 3.21398e-20)
(-2.33959 0.0619658 0)
(-2.35966 0.0624407 0)
(-2.38 0.0629563 6.0554e-20)
(-2.40062 0.063497 0)
(-2.42151 0.0640274 5.82663e-20)
(-2.44267 0.0645255 0)
(-2.46406 0.0649634 -5.60703e-20)
(-2.48567 0.0653161 -1.10311e-19)
(-2.50746 0.0655554 0)
(-2.52936 0.0656609 0)
(-2.55131 0.0656068 0)
(-2.57324 0.0653562 -5.11263e-20)
(-2.59505 0.0648689 0)
(-2.61666 0.0641099 -4.941e-20)
(-2.63797 0.0630494 0)
(-2.65886 0.0616592 0)
(-2.67922 0.0599134 9.47497e-20)
(-2.6989 0.0577936 0)
(-2.71776 0.0552833 4.58801e-20)
(-2.73564 0.0523702 0)
(-2.75238 0.0490351 4.47936e-20)
(-2.76782 0.04526 0)
(-2.78184 0.0410276 0)
(-2.79428 0.0364167 0)
(-2.80486 0.0315141 1.29906e-19)
(-2.8134 0.0261773 4.32467e-20)
(-2.81987 0.0203363 0)
(-2.82397 0.0142141 0)
(-2.82546 0.00781287 0)
(-2.82407 0.000985481 0)
(-2.81956 -0.00620976 -4.17278e-20)
(-2.81165 -0.0137779 8.21736e-20)
(-2.80005 -0.021701 4.10035e-20)
(-2.78447 -0.0299002 -8.08308e-20)
(-2.76489 -0.0384007 -7.99181e-20)
(-2.74098 -0.0471848 -3.95865e-20)
(-2.71256 -0.0562177 0)
(-2.67944 -0.0654731 -7.62382e-20)
(-2.64139 -0.074837 0)
(-2.59833 -0.0842691 7.27078e-20)
(-2.55003 -0.0938435 3.51704e-20)
(-2.49645 -0.103445 0)
(-2.43743 -0.112995 -6.50244e-20)
(-2.37291 -0.122478 -3.05493e-20)
(-2.30285 -0.131848 0)
(-2.22719 -0.141051 -2.71447e-20)
(-2.14599 -0.149994 7.22812e-20)
(-2.05929 -0.158624 0)
(-1.96721 -0.166873 0)
(-1.8699 -0.174679 0)
(-1.76755 -0.18197 0)
(-1.6604 -0.188686 1.45395e-20)
(-1.54875 -0.194766 3.40739e-21)
(-1.43294 -0.200159 0)
(-1.31332 -0.204813 0)
(-1.19032 -0.208698 0)
(-1.06435 -0.211784 0)
(-0.935879 -0.214063 0)
(-0.805358 -0.215543 0)
(-0.673261 -0.216245 -7.98897e-20)
(-0.540051 -0.216201 -3.6929e-21)
(-0.406176 -0.215449 0)
(-0.272073 -0.214065 0)
(-0.138083 -0.212173 -1.35978e-19)
(-0.00442629 -0.20992 0)
(0.128264 -0.207258 1.64979e-19)
(0.259182 -0.204017 1.71915e-19)
(0.387783 -0.200208 0)
(0.513503 -0.1959 0)
(0.635938 -0.190943 -2.06675e-19)
(0.755079 -0.185245 -4.25534e-19)
(0.871051 -0.17899 0)
(0.983829 -0.172397 0)
(1.09331 -0.165623 0)
(1.19938 -0.158775 -2.51299e-19)
(1.302 -0.151937 2.59031e-19)
(1.40112 -0.145174 0)
(1.49673 -0.13854 5.41298e-19)
(1.58887 -0.132059 2.74811e-19)
(1.67756 -0.125756 -5.66934e-19)
(1.76284 -0.119657 0)
(1.8448 -0.113777 0)
(1.92352 -0.108113 -5.99514e-19)
(1.9991 -0.10267 -3.06372e-19)
(2.07162 -0.097453 0)
(2.14116 -0.0924502 0)
(2.20782 -0.0876432 0)
(2.27169 -0.0830294 0)
(2.33284 -0.0786076 -6.48205e-19)
(2.39136 -0.0743629 0)
(2.44732 -0.0702735 0)
(2.50076 -0.0663023 0)
(2.55169 -0.0623914 0)
(2.60007 -0.0584561 0)
(2.64581 -0.0543727 0)
(2.68868 -0.0499526 -6.88523e-19)
(2.72835 -0.0448547 0)
(2.76409 -0.0385017 0)
(2.79541 -0.029586 -1.41927e-18)
(2.81954 -0.0159718 7.18254e-19)
(2.84175 0.00806764 -7.30542e-19)
(2.85051 0.0523765 7.44858e-19)
(-0.00725346 -0.0996216 0)
(-0.00990697 -0.0678164 4.66492e-19)
(-0.0201305 -0.0345118 0)
(-0.0324058 -0.00434826 9.89536e-20)
(-0.0468702 0.0238537 0)
(-0.0634652 0.0506935 0)
(-0.08221 0.0764496 -6.43175e-20)
(-0.103198 0.101271 0)
(-0.126543 0.125227 0)
(-0.152343 0.148256 0)
(-0.180722 0.170101 0)
(-0.211817 0.190509 0)
(-0.245632 0.209755 2.08002e-19)
(-0.282068 0.22822 1.01334e-19)
(-0.320971 0.245782 -9.87113e-20)
(-0.362134 0.262198 0)
(-0.405265 0.277606 0)
(-0.44987 0.292005 0)
(-0.495421 0.305207 0)
(-0.541495 0.316944 0)
(-0.587811 0.326966 7.99108e-20)
(-0.634173 0.335032 7.6973e-20)
(-0.680409 0.340895 -7.41629e-20)
(-0.726354 0.344417 7.14811e-20)
(-0.771882 0.34564 0)
(-0.816873 0.344694 0)
(-0.861215 0.341747 6.42518e-20)
(-0.904819 0.337004 0)
(-0.947618 0.330701 0)
(-0.989564 0.32308 5.82766e-20)
(-1.03062 0.314384 5.64946e-20)
(-1.07078 0.304851 5.48719e-20)
(-1.11001 0.294702 0)
(-1.1483 0.284144 0)
(-1.18565 0.273361 -5.06116e-20)
(-1.22206 0.262513 0)
(-1.25753 0.251737 0)
(-1.29206 0.241144 4.72232e-20)
(-1.32565 0.230818 -4.60865e-20)
(-1.35832 0.220829 4.51459e-20)
(-1.39006 0.211221 0)
(-1.4209 0.202026 0)
(-1.45085 0.193262 8.54189e-20)
(-1.47993 0.184937 0)
(-1.50816 0.177049 8.25141e-20)
(-1.53557 0.169592 1.21805e-19)
(-1.56218 0.162553 -1.19868e-19)
(-1.58802 0.155918 7.86376e-20)
(-1.61312 0.14967 0)
(-1.6375 0.14379 0)
(-1.66121 0.13826 7.51783e-20)
(-1.68426 0.133062 3.70879e-20)
(-1.70668 0.128178 0)
(-1.72851 0.123593 0)
(-1.74978 0.119291 3.55223e-20)
(-1.77052 0.115259 6.99724e-20)
(-1.79075 0.111486 0)
(-1.81051 0.107962 -6.80569e-20)
(-1.82982 0.104679 6.70273e-20)
(-1.84873 0.10163 -6.60597e-20)
(-1.86725 0.09881 0)
(-1.88542 0.0962135 0)
(-1.90327 0.093836 0)
(-1.92083 0.091675 0)
(-1.93814 0.0897265 0)
(-1.95524 0.0879888 -6.03403e-20)
(-1.97215 0.0864583 0)
(-1.98892 0.0851334 0)
(-2.00557 0.0840098 0)
(-2.02216 0.0830846 -1.12923e-19)
(-2.0387 0.0823519 -5.55325e-20)
(-2.05525 0.0818073 -5.45725e-20)
(-2.07183 0.0814429 1.07144e-19)
(-2.08848 0.0812523 -5.2565e-20)
(-2.10523 0.0812256 5.1713e-20)
(-2.12212 0.0813531 0)
(-2.13917 0.0816199 -4.98354e-20)
(-2.15641 0.0820088 0)
(-2.17385 0.0824955 0)
(-2.19153 0.0830557 0)