/*--------------------------------*- C++ -*----------------------------------*\
  =========                 |
  \\      /  F ield         | OpenFOAM: The Open Source CFD Toolbox
   \\    /   O peration     | Website:  https://openfoam.org
    \\  /    A nd           | Version:  8
     \\/     M anipulation  |
\*---------------------------------------------------------------------------*/
FoamFile
{
    version     2.0;
    format      ascii;
    class       volScalarField;
    location    "5000";
    object      nut;
}
// * * * * * * * * * * * * * * * * * * * * * * * * * * * * * * * * * * * * * //

dimensions      [0 2 -1 0 0 0 0];

internalField   nonuniform List<scalar> 
12225
(
0.0122671
0.00158819
0.000666129
0.000410105
0.000294025
0.00022806
0.000183261
0.000170805
0.000132697
0.000106844
9.46734e-05
8.80085e-05
7.89855e-05
7.22329e-05
6.77318e-05
6.4507e-05
6.12106e-05
6.46334e-05
0.0323823
0.00744532
0.00330638
0.00204329
0.00146801
0.0011445
0.000936338
0.000799975
0.000679511
0.000577234
0.000506286
0.000452432
0.00041054
0.000378806
0.000350181
0.000327767
0.000311172
0.000292818
0.0490123
0.01515
0.00728196
0.00457854
0.00330639
0.00258054
0.00211233
0.00178913
0.00154181
0.00134762
0.00119772
0.0010787
0.000982056
0.000902481
0.000835978
0.000780909
0.000735546
0.00068717
0.063054
0.0237783
0.0122894
0.00788814
0.00573397
0.00448498
0.00367412
0.00310733
0.00268471
0.00235805
0.00210111
0.00189458
0.0017253
0.00158451
0.00146613
0.00136604
0.00128146
0.00119789
0.074932
0.0328517
0.0181452
0.0119262
0.00874548
0.00686412
0.0056308
0.00476254
0.00411748
0.00362029
0.00322731
0.00290992
0.00264899
0.00243143
0.00224799
0.00209188
0.00195826
0.00183626
0.0849536
0.0420208
0.0246655
0.0166359
0.0123325
0.00972587
0.00799539
0.00676785
0.00585345
0.00514769
0.00458844
0.00413587
0.00376334
0.00345239
0.00318983
0.00296596
0.0027736
0.00260471
0.0933822
0.0510219
0.0316642
0.0219415
0.016474
0.0130717
0.0107778
0.00913551
0.0079057
0.0069534
0.0061969
0.00558367
0.00507837
0.00465632
0.00429976
0.00399561
0.00373414
0.00350818
0.0993794
0.0583363
0.0378386
0.0268568
0.0204171
0.0163053
0.0134891
0.011453
0.00991891
0.00872629
0.00777635
0.00700497
0.00636866
0.00583685
0.0053874
0.00500397
0.00467452
0.00439126
0.104023
0.0645454
0.0433804
0.0314239
0.0241571
0.0194092
0.0161097
0.0137018
0.0118766
0.0104521
0.00931443
0.00838904
0.00762485
0.00698574
0.00644544
0.00598449
0.00558858
0.00524877
0.108368
0.0708939
0.0493756
0.0365496
0.0284517
0.0230231
0.0191863
0.0163547
0.0141926
0.0124968
0.011138
0.0100303
0.00911434
0.00834759
0.0076991
0.00714579
0.00667068
0.00626297
0.112368
0.0772557
0.0557282
0.0421918
0.0332976
0.0271652
0.0227467
0.0194432
0.0168984
0.0148903
0.0132749
0.0119544
0.0108605
0.00994378
0.00916796
0.00850586
0.00793736
0.00744915
0.115994
0.0834975
0.0623053
0.0482611
0.0386474
0.0318167
0.026789
0.0229739
0.0200046
0.0176452
0.0157378
0.0141736
0.0128749
0.011785
0.0108618
0.0100736
0.00939671
0.00881464
0.119234
0.0894856
0.0689377
0.0546109
0.0443919
0.0369007
0.0312597
0.0269088
0.0234836
0.02074
0.0185096
0.0166735
0.0151449
0.01386
0.0127704
0.0118396
0.0110397
0.0103508
0.122086
0.095084
0.075415
0.0610223
0.0503361
0.0422534
0.0360231
0.0311353
0.0272402
0.024093
0.021519
0.0193909
0.017614
0.0161174
0.0148466
0.01376
0.0128257
0.0120196
0.124546
0.100135
0.0814619
0.0671725
0.056158
0.047577
0.0408126
0.0354174
0.031066
0.0275196
0.0246012
0.0221777
0.0201481
0.0184349
0.0169782
0.0157314
0.0146583
0.0137311
0.126578
0.104396
0.0866605
0.0725515
0.0613228
0.0523526
0.0451453
0.0393148
0.0345631
0.0306611
0.0274325
0.0247409
0.0224806
0.020569
0.0189413
0.0175468
0.0163454
0.0153061
0.128011
0.107322
0.0902141
0.0762353
0.0648743
0.0556509
0.0481493
0.0420254
0.0370012
0.0328553
0.0294126
0.0265352
0.0241143
0.0220643
0.0203172
0.0188191
0.0175275
0.0164083
0.128006
0.107313
0.0902048
0.0762269
0.0648674
0.0556454
0.048145
0.0420222
0.0369988
0.0328537
0.0294117
0.0265349
0.0241147
0.0220652
0.0203185
0.0188206
0.0175287
0.0164083
0.126509
0.104255
0.0864922
0.0723807
0.0611613
0.052205
0.0450128
0.0391967
0.0344584
0.0305686
0.0273506
0.0246684
0.0224163
0.0205118
0.0188903
0.0175006
0.0163024
0.0152631
0.124267
0.0995604
0.0807712
0.0664676
0.0554886
0.0469631
0.0402594
0.0349228
0.0306248
0.0271258
0.0242488
0.0218611
0.0198626
0.0181762
0.0167426
0.0155152
0.0144575
0.0135405
0.12136
0.0936399
0.0737261
0.0593348
0.0487592
0.0408249
0.0347467
0.0300003
0.0262308
0.0231928
0.0207127
0.018665
0.0169572
0.0155198
0.0142999
0.0132567
0.0123583
0.0115798
0.117686
0.0865903
0.0656967
0.0514791
0.0415374
0.0343608
0.0290184
0.0249322
0.0217348
0.0191848
0.0171184
0.0154211
0.0140106
0.0128263
0.0118229
0.0109657
0.010228
0.00958895
0.11305
0.0784122
0.056921
0.0432687
0.0342296
0.0279652
0.0234365
0.0200435
0.0174263
0.0153597
0.0136966
0.0123369
0.0112106
0.0102671
0.00946866
0.00878719
0.00820102
0.00769347
0.107169
0.0691009
0.0476372
0.035029
0.0271566
0.021922
0.0182437
0.0155401
0.0134817
0.0118706
0.0105816
0.00953197
0.00866487
0.00793966
0.0073267
0.00680378
0.00635414
0.00596496
0.0996761
0.0587036
0.0381279
0.0270699
0.0205782
0.016433
0.0135949
0.0115438
0.00999922
0.00879908
0.00784341
0.00706756
0.0064279
0.00589357
0.00544229
0.00505735
0.00472643
0.0044401
0.0901097
0.0473665
0.0287363
0.0196847
0.0146976
0.0116312
0.00957853
0.00811528
0.00702332
0.00617994
0.00551057
0.00496794
0.00452113
0.00414814
0.00383327
0.00356449
0.00333362
0.00313375
0.0779076
0.0353826
0.0198606
0.0131383
0.00966107
0.00759298
0.00623352
0.0052743
0.00456399
0.00401883
0.00358696
0.00323611
0.00294716
0.00270595
0.00250224
0.00232763
0.00217848
0.0020484
0.06238
0.0232554
0.0119461
0.00765493
0.00556337
0.00435256
0.00356724
0.00301639
0.00261307
0.00230795
0.00206655
0.0018672
0.00170215
0.00156423
0.0014475
0.00134474
0.00126039
0.00118252
0.0426105
0.0117794
0.0054693
0.00341385
0.00246071
0.00192006
0.00157275
0.00132885
0.00115942
0.00103848
0.000943996
0.000857688
0.000784566
0.00072153
0.000667714
0.000612246
0.000581833
0.000534457
0.0168348
0.00255985
0.00110002
0.000683428
0.000493724
0.000386804
0.000318219
0.000266311
0.000272592
0.000322003
0.000354531
0.000337128
0.000302624
0.000261593
0.000237796
0.000182353
0.000233464
0.000194365
3.99496e-09
5.91182e-07
2.00095e-06
6.28955e-06
1.08028e-05
1.3532e-05
1.32572e-05
1.17922e-05
9.06426e-06
5.9483e-06
3.52431e-06
2.02525e-06
1.41018e-06
1.50318e-06
2.06732e-06
2.56616e-06
2.45455e-06
2.0692e-06
2.54289e-06
8.67679e-06
9.02516e-06
5.5544e-06
6.75236e-06
2.65147e-05
5.67532e-05
7.44266e-05
9.09799e-05
0.000104828
0.000117048
0.000127209
0.000136113
0.000143759
0.00015045
0.000156276
0.000161358
0.000165844
0.000169819
0.000173369
0.000176552
0.00017941
0.000181975
0.000184268
0.000186309
0.000188112
0.000189692
0.000191063
0.000192235
0.000193215
0.000194004
0.000194476
0.000194974
0.000195083
0.000195144
0.000195019
0.000194721
0.000194275
0.000193676
0.000192929
0.000192035
0.000190997
0.000189816
0.000188494
0.000187034
0.000185438
0.00018371
0.00018185
0.000179861
0.000177743
0.0001755
0.000173135
0.000170648
0.000168043
0.000165321
0.000162482
0.000159529
0.000156462
0.000153282
0.000149987
0.000146579
0.000143056
0.000139416
0.000135657
0.000131775
0.000127765
0.000123618
0.000119322
0.000114864
0.000110227
0.000105395
0.000100345
9.50468e-05
8.94706e-05
8.36134e-05
7.75441e-05
7.15334e-05
6.62508e-05
6.24916e-05
6.01495e-05
5.83969e-05
5.6791e-05
5.52148e-05
5.36464e-05
5.20842e-05
5.05298e-05
4.89852e-05
4.74522e-05
4.59337e-05
4.44357e-05
4.29865e-05
4.17495e-05
4.05454e-05
3.93556e-05
3.81831e-05
3.70285e-05
3.58926e-05
3.47764e-05
3.36804e-05
3.26056e-05
3.15525e-05
3.05215e-05
2.95129e-05
2.85274e-05
2.75654e-05
2.66274e-05
2.57135e-05
2.48235e-05
2.39585e-05
2.31464e-05
2.24121e-05
2.16965e-05
2.09959e-05
2.03186e-05
1.96693e-05
1.90343e-05
1.84133e-05
1.78094e-05
1.72235e-05
1.66558e-05
1.61061e-05
1.55741e-05
1.50593e-05
1.45614e-05
1.40798e-05
1.36142e-05
1.31641e-05
1.27293e-05
1.23091e-05
1.19034e-05
1.15116e-05
1.11335e-05
1.07686e-05
1.04166e-05
1.00772e-05
9.74997e-06
9.4347e-06
9.13105e-06
8.83878e-06
8.55761e-06
8.28733e-06
8.02773e-06
7.77861e-06
7.5398e-06
7.31111e-06
7.09239e-06
6.8834e-06
6.68391e-06
6.49358e-06
6.312e-06
6.13862e-06
5.97266e-06
5.81337e-06
5.65911e-06
5.50948e-06
5.35951e-06
5.21377e-06
5.04775e-06
4.89378e-06
4.64743e-06
4.48924e-06
3.59422e-06
1.68189e-07
6.1428e-06
6.38842e-05
0.000139688
0.000183243
0.000207007
0.000216381
0.000214888
0.000206543
0.00018984
0.000169049
0.000148915
0.000138503
0.000143717
0.000157685
0.000166606
0.000169023
0.000170207
0.000175611
0.000185313
0.000200068
0.000217507
0.000234341
0.000250843
0.000262143
0.000272047
0.000280862
0.000293709
0.000312805
0.000326751
0.000339494
0.000350418
0.000360347
0.000369446
0.000377346
0.000384559
0.000391274
0.000397715
0.000404015
0.000410238
0.000416381
0.000422399
0.000428241
0.000433865
0.000439245
0.000444362
0.000449202
0.000453752
0.000458014
0.000461988
0.000465713
0.000469155
0.000472352
0.000475294
0.000477985
0.000480427
0.00048262
0.000484565
0.000486263
0.000487714
0.000488918
0.000489877
0.000490593
0.000491069
0.000491318
0.000491342
0.000491138
0.000490701
0.000490048
0.000489183
0.00048811
0.000486838
0.000485372
0.00048372
0.000481888
0.000479883
0.000477714
0.000475387
0.00047291
0.000470291
0.000467538
0.000464659
0.000461663
0.000458556
0.000455349
0.000452048
0.00044866
0.000445195
0.00044166
0.000438063
0.000434413
0.000430711
0.000426958
0.000423148
0.000419262
0.000415272
0.000411163
0.000406963
0.000402722
0.000398465
0.0003942
0.000389931
0.000385661
0.000381393
0.000377132
0.00037288
0.00036864
0.000364415
0.000360204
0.000356005
0.00035183
0.000347682
0.000343563
0.000339475
0.00033542
0.0003314
0.000327415
0.000323469
0.000319561
0.000315694
0.000311867
0.000308082
0.000304339
0.000300641
0.000296989
0.00029338
0.000289816
0.000286295
0.000282816
0.000279382
0.00027599
0.000272651
0.000269364
0.000266114
0.0002629
0.000259727
0.000256597
0.000253513
0.000250474
0.000247479
0.000244529
0.000241622
0.000238759
0.000235937
0.000233157
0.000230419
0.000227721
0.000225064
0.000222446
0.000219868
0.000217328
0.000214828
0.000212366
0.000209943
0.000207558
0.000205213
0.000202906
0.00020064
0.000198414
0.00019623
0.000194089
0.000191993
0.000189943
0.000187942
0.000185991
0.000184091
0.000182244
0.00018045
0.000178709
0.000177017
0.000175372
0.000173773
0.000172195
0.00017068
0.00016907
0.000167748
0.000165616
0.000164899
0.000162093
0.00016072
7.68625e-07
4.45427e-05
0.00016429
0.000246525
0.000299859
0.000330181
0.000341219
0.000338351
0.000325519
0.000306245
0.000286471
0.000273749
0.000271489
0.000278169
0.000288525
0.000299354
0.000312117
0.000329071
0.000350672
0.000375834
0.000403224
0.00043158
0.000469797
0.000516184
0.000561839
0.000605995
0.000649098
0.000692771
0.000732111
0.000763401
0.00078841
0.000808235
0.00082395
0.000836418
0.000846423
0.000854739
0.000862069
0.000869055
0.000876236
0.000883968
0.000892356
0.00090128
0.000910498
0.000919775
0.000928932
0.000937851
0.000946455
0.000954697
0.000962539
0.000969955
0.00097692
0.000983406
0.000989411
0.000994926
0.000999951
0.00100448
0.00100852
0.00101207
0.00101513
0.00101769
0.00101976
0.00102134
0.00102242
0.00102296
0.00102312
0.00102284
0.00102204
0.0010208
0.00101911
0.00101699
0.00101446
0.00101151
0.00100818
0.00100446
0.00100038
0.000995949
0.000991182
0.000986094
0.0009807
0.000975016
0.000969055
0.000962835
0.000956368
0.000949673
0.000942762
0.000935651
0.000928354
0.000920887
0.000913261
0.000905491
0.000897589
0.000889566
0.000881431
0.000873192
0.000864858
0.000856437
0.000847944
0.000839393
0.000830801
0.000822181
0.000813544
0.000804898
0.000796253
0.000787615
0.000778991
0.000770389
0.000761815
0.000753276
0.000744775
0.00073632
0.000727916
0.000719568
0.000711281
0.000703058
0.000694904
0.000686822
0.000678814
0.000670885
0.000663036
0.000655269
0.000647588
0.000639992
0.000632486
0.00062507
0.000617745
0.000610512
0.000603372
0.000596325
0.000589371
0.000582511
0.000575746
0.000569077
0.0005625
0.000556011
0.000549608
0.000543294
0.000537071
0.00053094
0.000524899
0.00051895
0.000513091
0.000507321
0.000501639
0.000496044
0.000490535
0.000485111
0.00047977
0.000474512
0.000469335
0.000464239
0.000459221
0.000454282
0.000449419
0.000444632
0.00043992
0.000435281
0.000430715
0.00042622
0.000421796
0.00041744
0.000413151
0.000408929
0.00040477
0.000400674
0.000396636
0.000392655
0.000388725
0.000384842
0.000380998
0.000377186
0.000373393
0.000369605
0.000365797
0.00036195
0.000357991
0.000353951
0.000349469
0.000345076
0.000338586
0.000327127
5.07106e-07
8.12907e-05
0.000212972
0.000309207
0.000372991
0.000410403
0.000425977
0.000426368
0.000416357
0.000402954
0.000394798
0.000393961
0.000403188
0.000420399
0.000443155
0.00047091
0.000504263
0.000543574
0.000588032
0.000650273
0.000724138
0.000803931
0.000888193
0.000958854
0.00102128
0.00107741
0.00112782
0.00117273
0.00121199
0.00124588
0.00127512
0.00130045
0.00132257
0.00134211
0.00135965
0.00137567
0.0013906
0.00140476
0.00141842
0.00143178
0.00144494
0.00145799
0.00147095
0.00148381
0.0014965
0.00150896
0.0015211
0.0015328
0.00154399
0.00155459
0.00156454
0.00157382
0.00158239
0.00159025
0.00159739
0.0016038
0.00160947
0.00161441
0.00161861
0.00162207
0.00162479
0.00162677
0.00162793
0.00162837
0.00162824
0.00162733
0.0016257
0.00162338
0.00162039
0.00161673
0.00161243
0.00160751
0.00160199
0.00159589
0.00158923
0.00158204
0.00157433
0.00156614
0.00155747
0.00154836
0.00153883
0.0015289
0.0015186
0.00150795
0.00149696
0.00148567
0.0014741
0.00146226
0.00145018
0.00143788
0.00142538
0.0014127
0.00139985
0.00138685
0.00137372
0.00136047
0.00134712
0.00133369
0.0013202
0.00130666
0.0012931
0.00127953
0.00126596
0.0012524
0.00123886
0.00122536
0.0012119
0.0011985
0.00118516
0.00117189
0.0011587
0.0011456
0.00113259
0.00111969
0.00110689
0.0010942
0.00108163
0.00106918
0.00105685
0.00104466
0.00103259
0.00102066
0.00100887
0.000997211
0.000985698
0.000974328
0.000963101
0.000952019
0.000941082
0.000930291
0.000919646
0.000909148
0.000898792
0.000888576
0.000878499
0.00086856
0.000858763
0.000849106
0.00083959
0.000830215
0.000820978
0.000811879
0.000802916
0.000794087
0.000785392
0.000776827
0.000768392
0.000760085
0.000751903
0.000743845
0.00073591
0.000728095
0.000720398
0.000712818
0.000705353
0.000698001
0.00069076
0.000683629
0.000676605
0.000669685
0.000662869
0.000656152
0.000649532
0.000643006
0.000636569
0.000630217
0.000623943
0.00061774
0.000611598
0.000605505
0.000599445
0.000593396
0.000587328
0.000581206
0.000574962
0.000568544
0.000561767
0.000554576
0.000546334
0.000530144
1.49349e-06
0.00010206
0.000235126
0.000355062
0.000433978
0.000481487
0.000505124
0.000513594
0.000515169
0.000516157
0.000523038
0.0005392
0.000565258
0.000600245
0.000643374
0.000694659
0.000754746
0.000838167
0.000933842
0.00103006
0.00111907
0.00120346
0.00128281
0.00135551
0.00142227
0.00148368
0.00154015
0.001592
0.0016396
0.00168337
0.0017238
0.00176137
0.0017965
0.00182958
0.00186092
0.00189076
0.0019193
0.00194669
0.00197302
0.00199834
0.00202271
0.00204611
0.00206856
0.00209002
0.00211049
0.00212992
0.00214829
0.00216557
0.00218172
0.00219674
0.00221062
0.00222334
0.00223494
0.00224541
0.00225478
0.00226306
0.00227028
0.00227644
0.00228157
0.00228568
0.00228877
0.00229082
0.00229174
0.00229183
0.00229095
0.00228907
0.00228624
0.00228247
0.00227778
0.0022722
0.00226575
0.00225847
0.00225037
0.00224149
0.00223186
0.00222151
0.00221046
0.00219876
0.00218643
0.0021735
0.00216
0.00214597
0.00213144
0.00211643
0.00210097
0.00208511
0.00206886
0.00205227
0.00203535
0.00201813
0.00200065
0.00198292
0.00196498
0.00194684
0.00192854
0.00191008
0.0018915
0.00187282
0.00185406
0.00183525
0.00181641
0.00179755
0.00177869
0.00175985
0.00174105
0.0017223
0.00170361
0.001685
0.00166648
0.00164806
0.00162974
0.00161155
0.0015935
0.00157558
0.0015578
0.00154018
0.00152272
0.00150543
0.00148831
0.00147137
0.00145461
0.00143803
0.00142164
0.00140544
0.00138943
0.00137362
0.001358
0.00134259
0.00132737
0.00131235
0.00129753
0.00128291
0.00126849
0.00125426
0.00124022
0.00122637
0.00121272
0.00119925
0.00118598
0.0011729
0.00116001
0.00114731
0.00113479
0.00112246
0.0011103
0.00109833
0.00108653
0.0010749
0.00106345
0.00105216
0.00104104
0.00103009
0.00101929
0.00100865
0.000998168
0.000987839
0.00097766
0.000967629
0.000957742
0.000947998
0.000938392
0.000928921
0.000919581
0.000910367
0.000901275
0.000892299
0.00088343
0.00087466
0.000865977
0.000857365
0.000848807
0.000840277
0.000831742
0.000823156
0.000814454
0.000805563
0.00079632
0.000786577
0.000776609
0.000756789
2.27174e-06
0.000118203
0.00025637
0.000390154
0.000487243
0.000549161
0.000587026
0.00061049
0.00062825
0.000647575
0.00067372
0.000709334
0.000755152
0.000811449
0.000878628
0.000969133
0.00107427
0.00117599
0.00127521
0.00137071
0.00146141
0.00154741
0.00162865
0.00170511
0.00177707
0.00184489
0.00190891
0.00196946
0.00202687
0.00208148
0.0021336
0.00218353
0.00223152
0.00227776
0.00232243
0.00236564
0.00240749
0.00244803
0.00248728
0.00252527
0.00256198
0.0025974
0.00263149
0.00266423
0.00269557
0.00272547
0.0027539
0.00278081
0.00280616
0.00282993
0.00285209
0.00287261
0.00289147
0.00290868
0.00292422
0.00293808
0.00295028
0.00296082
0.00296972
0.00297698
0.00298264
0.00298672
0.00298914
0.00299004
0.00298958
0.00298761
0.00298427
0.00297956
0.00297356
0.00296631
0.00295786
0.00294827
0.00293758
0.00292586
0.00291314
0.00289947
0.00288491
0.00286949
0.00285327
0.00283628
0.00281857
0.00280017
0.00278114
0.00276151
0.00274132
0.00272061
0.00269942
0.0026778
0.00265576
0.00263336
0.00261063
0.0025876
0.00256431
0.00254078
0.00251704
0.00249313
0.00246908
0.00244491
0.00242064
0.00239632
0.00237196
0.00234759
0.00232322
0.00229889
0.0022746
0.00225038
0.00222625
0.00220222
0.0021783
0.00215452
0.00213088
0.0021074
0.00208409
0.00206095
0.00203801
0.00201526
0.00199272
0.00197039
0.00194828
0.0019264
0.00190474
0.00188333
0.00186215
0.00184121
0.00182052
0.00180008
0.00177989
0.00175995
0.00174026
0.00172083
0.00170165
0.00168272
0.00166404
0.0016456
0.00162742
0.00160947
0.00159177
0.00157432
0.00155711
0.00154013
0.0015234
0.0015069
0.00149064
0.00147461
0.0014588
0.00144323
0.00142787
0.00141273
0.00139781
0.0013831
0.0013686
0.0013543
0.00134021
0.00132631
0.00131261
0.00129911
0.00128579
0.00127266
0.00125971
0.00124694
0.00123434
0.00122192
0.00120966
0.00119755
0.00118561
0.00117381
0.00116215
0.00115061
0.0011392
0.00112788
0.00111664
0.00110545
0.00109428
0.00108307
0.00107177
0.00106029
0.00104848
0.00103626
0.00102408
0.0010016
2.80559e-06
0.000126821
0.000269281
0.000407728
0.000526502
0.000608038
0.000664244
0.000706254
0.000743313
0.000782686
0.00082943
0.000886495
0.000955505
0.00104784
0.00115484
0.00126145
0.00136756
0.00147092
0.00157099
0.00166735
0.00175975
0.00184818
0.00193275
0.00201361
0.002091
0.00216519
0.00223647
0.0023051
0.00237134
0.00243541
0.00249754
0.00255789
0.00261663
0.00267386
0.00272967
0.00278411
0.00283723
0.00288903
0.00293951
0.00298864
0.00303641
0.00308277
0.00312768
0.00317109
0.00321295
0.0032532
0.00329179
0.00332867
0.0033638
0.00339712
0.00342858
0.00345816
0.00348582
0.00351152
0.00353524
0.00355696
0.00357667
0.00359436
0.00361001
0.00362363
0.00363523
0.00364481
0.00365239
0.00365801
0.00366166
0.00366328
0.00366319
0.0036612
0.00365743
0.00365191
0.0036447
0.00363586
0.00362545
0.00361352
0.00360013
0.00358537
0.00356928
0.00355193
0.0035334
0.00351375
0.00349305
0.00347137
0.00344876
0.0034253
0.00340105
0.00337607
0.00335043
0.00332418
0.00329737
0.00327006
0.00324231
0.00321416
0.00318565
0.00315683
0.00312775
0.00309844
0.00306894
0.00303929
0.00300953
0.00297968
0.00294978
0.00291986
0.00288994
0.00286006
0.00283024
0.00280049
0.00277085
0.00274133
0.00271195
0.00268273
0.00265369
0.00262483
0.00259618
0.00256774
0.00253953
0.00251157
0.00248385
0.00245639
0.00242919
0.00240227
0.00237562
0.00234926
0.00232319
0.00229741
0.00227193
0.00224675
0.00222187
0.00219729
0.00217302
0.00214905
0.00212538
0.00210202
0.00207896
0.00205619
0.00203373
0.00201156
0.00198968
0.0019681
0.00194681
0.0019258
0.00190509
0.00188466
0.00186451
0.00184463
0.00182503
0.00180571
0.00178664
0.00176784
0.0017493
0.00173102
0.00171298
0.00169519
0.00167765
0.00166034
0.00164327
0.00162644
0.00160983
0.00159344
0.00157727
0.00156132
0.00154557
0.00153004
0.0015147
0.00149956
0.0014846
0.00146983
0.00145522
0.00144078
0.00142648
0.00141231
0.00139825
0.00138427
0.00137032
0.00135637
0.00134235
0.00132818
0.0013137
0.00129895
0.00128394
0.00125969
2.94246e-06
0.000128735
0.000270669
0.000407306
0.000538107
0.000641776
0.000719041
0.000780495
0.0008363
0.000894159
0.000961768
0.00105374
0.00116337
0.00128511
0.00140069
0.00151196
0.00161979
0.00172437
0.00182563
0.0019235
0.00201799
0.0021092
0.00219726
0.00228235
0.0023647
0.00244454
0.00252208
0.00259753
0.0026711
0.00274294
0.0028132
0.002882
0.00294943
0.00301556
0.00308042
0.00314404
0.00320641
0.00326752
0.00332735
0.00338584
0.00344296
0.00349866
0.00355286
0.00360551
0.00365654
0.00370589
0.00375349
0.00379929
0.00384321
0.0038852
0.0039252
0.00396317
0.00399905
0.00403281
0.0040644
0.0040938
0.00412098
0.00414591
0.00416858
0.00418898
0.00420711
0.00422296
0.00423654
0.00424787
0.00425696
0.00426383
0.00426855
0.004271
0.00427144
0.00426979
0.00426612
0.00426048
0.00425292
0.00424349
0.00423225
0.00421928
0.00420463
0.00418838
0.00417058
0.00415131
0.00413065
0.00410866
0.00408541
0.00406098
0.00403544
0.00400886
0.00398132
0.00395288
0.00392361
0.00389357
0.00386285
0.00383148
0.00379955
0.00376711
0.00373421
0.00370091
0.00366727
0.00363333
0.00359915
0.00356478
0.00353025
0.00349561
0.00346091
0.00342617
0.00339144
0.00335674
0.0033221
0.00328757
0.00325315
0.00321888
0.00318477
0.00315086
0.00311715
0.00308368
0.00305044
0.00301746
0.00298475
0.00295232
0.00292018
0.00288835
0.00285683
0.00282562
0.00279475
0.0027642
0.00273399
0.00270411
0.00267458
0.0026454
0.00261656
0.00258807
0.00255993
0.00253213
0.00250468
0.00247758
0.00245082
0.0024244
0.00239831
0.00237257
0.00234716
0.00232209
0.00229735
0.00227293
0.00224884
0.00222507
0.00220162
0.00217848
0.00215564
0.00213312
0.00211089
0.00208896
0.00206732
0.00204597
0.0020249
0.00200411
0.0019836
0.00196335
0.00194337
0.00192366
0.00190419
0.00188498
0.00186602
0.0018473
0.00182881
0.00181056
0.00179252
0.0017747
0.00175709
0.00173966
0.00172241
0.00170533
0.00168837
0.00167153
0.00165475
0.00163799
0.00162118
0.00160425
0.00158705
0.00156965
0.00155171
0.00152557
2.75939e-06
0.000125268
0.000264043
0.000395767
0.000520538
0.000633069
0.000727057
0.000808264
0.000891332
0.000986683
0.00109593
0.00122064
0.00135705
0.00148457
0.00160488
0.0017199
0.00183062
0.00193739
0.00204054
0.00214042
0.00223724
0.00233122
0.00242253
0.0025114
0.00259802
0.00268259
0.00276532
0.00284637
0.00292589
0.00300402
0.00308086
0.00315649
0.00323096
0.00330432
0.00337657
0.0034477
0.0035177
0.00358653
0.00365413
0.00372046
0.00378544
0.00384901
0.0039111
0.00397162
0.0040305
0.00408766
0.00414302
0.00419651
0.00424806
0.0042976
0.00434505
0.00439037
0.00443349
0.00447436
0.00451294
0.00454918
0.00458306
0.00461454
0.00464361
0.00467023
0.00469441
0.00471614
0.00473542
0.00475225
0.00476665
0.00477864
0.00478825
0.00479548
0.00480041
0.00480298
0.00480337
0.00480155
0.00479759
0.00479153
0.00478342
0.00477334
0.00476134
0.00474749
0.00473185
0.00471449
0.00469548
0.00467489
0.0046528
0.00462928
0.00460439
0.00457822
0.00455083
0.00452231
0.00449271
0.00446211
0.00443059
0.0043982
0.00436503
0.00433112
0.00429655
0.00426138
0.00422567
0.00418948
0.00415287
0.0041159
0.00407861
0.00404107
0.00400331
0.00396539
0.00392735
0.00388922
0.00385106
0.0038129
0.00377477
0.0037367
0.00369873
0.00366089
0.0036232
0.00358568
0.00354837
0.00351127
0.00347441
0.00343782
0.00340149
0.00336546
0.00332972
0.0032943
0.0032592
0.00322444
0.00319002
0.00315595
0.00312223
0.00308887
0.00305587
0.00302324
0.00299099
0.0029591
0.00292758
0.00289643
0.00286566
0.00283525
0.00280522
0.00277555
0.00274625
0.00271731
0.00268874
0.00266053
0.00263268
0.00260518
0.00257803
0.00255123
0.00252477
0.00249865
0.00247287
0.00244741
0.00242229
0.00239748
0.00237299
0.00234882
0.00232495
0.00230139
0.00227813
0.00225517
0.00223249
0.0022101
0.00218799
0.00216616
0.00214459
0.00212329
0.00210224
0.00208144
0.00206087
0.00204052
0.00202038
0.00200043
0.00198064
0.00196099
0.00194142
0.00192189
0.00190234
0.00188269
0.0018628
0.00184274
0.00182199
0.00179367
2.34433e-06
0.000117988
0.000252846
0.000380971
0.000503943
0.000620478
0.000731373
0.000840488
0.000955423
0.00108133
0.00121945
0.00136924
0.00151155
0.00164354
0.00176781
0.00188624
0.00199996
0.00210962
0.00221558
0.00231807
0.00241747
0.00251418
0.00260849
0.00270065
0.00279089
0.00287941
0.00296641
0.00305202
0.0031364
0.00321964
0.00330183
0.00338303
0.00346327
0.00354257
0.00362091
0.00369828
0.00377462
0.0038499
0.00392404
0.00399698
0.00406862
0.00413889
0.0042077
0.00427495
0.00434056
0.00440444
0.00446649
0.00452663
0.00458479
0.00464087
0.0046948
0.00474652
0.00479595
0.00484305
0.00488776
0.00493002
0.00496981
0.00500709
0.00504182
0.00507399
0.00510359
0.0051306
0.00515502
0.00517685
0.00519612
0.00521282
0.00522699
0.00523864
0.00524782
0.00525454
0.00525886
0.00526079
0.00526045
0.00525784
0.00525303
0.00524606
0.00523701
0.00522593
0.00521289
0.00519795
0.00518119
0.00516267
0.00514247
0.00512065
0.00509729
0.00507246
0.00504624
0.00501869
0.00498989
0.00495992
0.00492883
0.00489671
0.00486361
0.00482962
0.00479478
0.00475918
0.00472287
0.00468592
0.00464838
0.00461033
0.00457181
0.00453288
0.00449359
0.00445401
0.00441417
0.00437412
0.00433391
0.00429358
0.00425318
0.00421273
0.00417228
0.00413187
0.00409151
0.00405125
0.00401112
0.00397113
0.00393132
0.0038917
0.00385231
0.00381315
0.00377425
0.00373562
0.00369728
0.00365924
0.00362152
0.00358412
0.00354705
0.00351033
0.00347396
0.00343794
0.00340229
0.003367
0.00333209
0.00329754
0.00326337
0.00322958
0.00319616
0.00316312
0.00313045
0.00309816
0.00306625
0.00303472
0.00300356
0.00297276
0.00294234
0.00291229
0.00288259
0.00285326
0.00282428
0.00279566
0.00276738
0.00273946
0.00271187
0.00268462
0.0026577
0.00263111
0.00260485
0.00257891
0.00255328
0.00252796
0.00250296
0.00247825
0.00245384
0.00242972
0.00240587
0.0023823
0.002359
0.00233593
0.00231311
0.00229049
0.00226806
0.00224578
0.00222361
0.0022015
0.00217939
0.00215719
0.00213479
0.00211222
0.00208891
0.00205826
1.92685e-06
0.000110307
0.000242562
0.000369906
0.000495647
0.000620079
0.000745008
0.000874503
0.00101188
0.00115921
0.00131664
0.00147845
0.00162626
0.00176271
0.00189082
0.00201258
0.00212928
0.00224172
0.00235046
0.00245587
0.00255826
0.00265782
0.002755
0.00285013
0.00294352
0.00303539
0.00312595
0.00321536
0.00330374
0.00339121
0.00347782
0.00356363
0.00364866
0.00373291
0.00381636
0.00389896
0.00398066
0.0040614
0.0041411
0.00421966
0.004297
0.00437301
0.00444759
0.00452065
0.00459207
0.00466176
0.00472961
0.00479554
0.00485944
0.00492123
0.00498082
0.00503815
0.00509312
0.00514569
0.00519579
0.00524338
0.00528839
0.0053308
0.00537058
0.0054077
0.00544213
0.00547388
0.00550293
0.00552929
0.00555297
0.00557397
0.00559232
0.00560804
0.00562116
0.00563172
0.00563975
0.00564529
0.0056484
0.00564913
0.00564752
0.00564364
0.00563755
0.00562931
0.00561897
0.0056066
0.00559228
0.00557606
0.00555803
0.00553825
0.00551679
0.00549373
0.00546914
0.00544309
0.00541566
0.00538691
0.00535691
0.00532574
0.00529346
0.00526014
0.00522585
0.00519066
0.00515463
0.00511782
0.0050803
0.00504213
0.00500337
0.00496408
0.00492431
0.00488411
0.00484354
0.00480265
0.00476149
0.0047201
0.00467852
0.0046368
0.00459498
0.0045531
0.00451118
0.00446928
0.00442741
0.00438561
0.00434391
0.00430234
0.00426091
0.00421966
0.0041786
0.00413776
0.00409715
0.0040568
0.00401671
0.0039769
0.00393739
0.00389819
0.0038593
0.00382074
0.00378251
0.00374462
0.00370709
0.00366991
0.00363308
0.00359662
0.00356052
0.00352479
0.00348942
0.00345443
0.00341981
0.00338557
0.00335169
0.00331819
0.00328506
0.0032523
0.0032199
0.00318787
0.00315621
0.0031249
0.00309396
0.00306336
0.00303313
0.00300324
0.00297369
0.00294449
0.00291563
0.00288711
0.00285891
0.00283105
0.0028035
0.00277628
0.00274937
0.00272276
0.00269646
0.00267044
0.00264471
0.00261924
0.00259403
0.00256904
0.00254426
0.00251966
0.00249518
0.00247078
0.00244639
0.00242194
0.00239732
0.00237252
0.00234701
0.0023142
1.54343e-06
0.000102166
0.000232071
0.000359052
0.000487718
0.000618987
0.000755521
0.000899236
0.00105186
0.00121393
0.00138595
0.00155193
0.00170372
0.00184404
0.00197565
0.00210054
0.00222004
0.00233509
0.00244636
0.00255434
0.00265942
0.0027619
0.00286204
0.00296005
0.00305633
0.00315119
0.00324486
0.00333753
0.00342933
0.00352038
0.00361075
0.00370047
0.00378957
0.00387804
0.00396583
0.00405291
0.0041392
0.00422462
0.00430909
0.0043925
0.00447475
0.00455572
0.00463531
0.0047134
0.00478987
0.00486461
0.00493752
0.00500849
0.00507742
0.00514421
0.00520877
0.00527101
0.00533087
0.00538826
0.00544313
0.00549542
0.00554507
0.00559206
0.00563634
0.00567788
0.00571666
0.00575268
0.00578592
0.00581638
0.00584407
0.00586901
0.00589121
0.00591068
0.00592748
0.00594161
0.00595312
0.00596206
0.00596847
0.00597239
0.00597388
0.00597301
0.00596985
0.00596441
0.00595679
0.00594704
0.00593523
0.00592143
0.00590571
0.00588813
0.00586878
0.00584772
0.00582503
0.00580077
0.00577502
0.00574785
0.00571933
0.00568953
0.00565851
0.00562635
0.00559311
0.00555887
0.00552367
0.00548759
0.0054507
0.00541305
0.00537471
0.00533573
0.00529617
0.00525609
0.00521553
0.00517456
0.00513321
0.00509154
0.00504959
0.0050074
0.00496502
0.0049225
0.00487986
0.00483714
0.00479438
0.00475161
0.00470886
0.00466617
0.00462355
0.00458104
0.00453866
0.00449644
0.00445439
0.00441253
0.00437089
0.00432948
0.00428831
0.00424741
0.00420678
0.00416643