/*--------------------------------*- C++ -*----------------------------------*\
  =========                 |
  \\      /  F ield         | OpenFOAM: The Open Source CFD Toolbox
   \\    /   O peration     | Website:  https://openfoam.org
    \\  /    A nd           | Version:  8
     \\/     M anipulation  |
\*---------------------------------------------------------------------------*/
FoamFile
{
    version     2.0;
    format      ascii;
    class       volScalarField;
    location    "5000";
    object      p;
}
// * * * * * * * * * * * * * * * * * * * * * * * * * * * * * * * * * * * * * //

dimensions      [0 2 -2 0 0 0 0];

internalField   nonuniform List<scalar> 
12225
(
514.676
55.528
2.36369
0.281577
-1.89889
-3.37444
-3.81167
-4.02207
-4.23181
-4.36871
-4.41585
-4.42546
-4.42846
-4.45642
-4.50982
-4.57629
-4.72171
-4.94434
-122.179
0.238781
-2.71853
-0.765217
-2.21659
-3.52503
-3.95275
-4.13684
-4.28052
-4.3845
-4.45942
-4.51774
-4.56868
-4.60106
-4.622
-4.64756
-4.71422
-4.80829
-200.646
-16.1485
-2.34655
-0.358439
-1.90092
-3.2449
-3.7723
-4.02254
-4.19522
-4.31947
-4.41215
-4.47936
-4.52799
-4.55322
-4.56828
-4.58385
-4.61576
-4.59898
-110.616
-10.9742
-2.17725
-0.432146
-1.78785
-3.02892
-3.60141
-3.90858
-4.11785
-4.26364
-4.36601
-4.43669
-4.4854
-4.51398
-4.53133
-4.53917
-4.53816
-4.4695
-61.5729
-8.14597
-3.62271
-1.21014
-2.01536
-2.99848
-3.52936
-3.84913
-4.07163
-4.22631
-4.33394
-4.40858
-4.45995
-4.49106
-4.50635
-4.50375
-4.47757
-4.38744
-45.7309
-8.78541
-5.25892
-2.20049
-2.43011
-3.10126
-3.53672
-3.83368
-4.04966
-4.20348
-4.31253
-4.38926
-4.4417
-4.47263
-4.48419
-4.47345
-4.43338
-4.33884
-35.7948
-9.27666
-6.3807
-3.12493
-2.92213
-3.29021
-3.60412
-3.85502
-4.05043
-4.19561
-4.30159
-4.37738
-4.42899
-4.45873
-4.46766
-4.45307
-4.40909
-4.32204
-27.7782
-8.90743
-6.97416
-3.80318
-3.3622
-3.49904
-3.7011
-3.90059
-4.06994
-4.20221
-4.30197
-4.37472
-4.42463
-4.45347
-4.46182
-4.44752
-4.40654
-4.3318
-21.6903
-8.52039
-7.13486
-4.31105
-3.72949
-3.70665
-3.81693
-3.96529
-4.10559
-4.22185
-4.31292
-4.38098
-4.42844
-4.45639
-4.4651
-4.45314
-4.41814
-4.35715
-16.613
-8.14107
-7.08852
-4.75593
-4.0838
-3.93501
-3.95988
-4.05333
-4.1597
-4.2559
-4.33536
-4.39697
-4.4412
-4.46839
-4.47857
-4.47109
-4.44517
-4.40068
-12.6393
-7.68126
-6.90654
-5.10223
-4.40742
-4.17099
-4.12258
-4.16214
-4.23233
-4.3057
-4.37129
-4.42501
-4.46552
-4.49233
-4.50533
-4.50449
-4.49022
-4.46404
-9.6994
-7.14917
-6.62963
-5.32706
-4.67927
-4.39778
-4.29511
-4.28739
-4.32257
-4.37222
-4.42274
-4.46777
-4.50443
-4.53149
-4.54866
-4.55626
-4.55536
-4.54807
-7.66645
-6.60511
-6.3064
-5.43204
-4.88371
-4.59793
-4.46431
-4.42116
-4.42644
-4.45422
-4.4902
-4.5268
-4.56011
-4.5883
-4.61081
-4.62802
-4.64109
-4.652
-6.37136
-6.11345
-5.98613
-5.44077
-5.01636
-4.75818
-4.61675
-4.55309
-4.53708
-4.54767
-4.57174
-4.60158
-4.63283
-4.66326
-4.69203
-4.71927
-4.74585
-4.77321
-5.62311
-5.72279
-5.70943
-5.39128
-5.08636
-4.87344
-4.74222
-4.67266
-4.64566
-4.64586
-4.6625
-4.6886
-4.71987
-4.75389
-4.78953
-4.82657
-4.86538
-4.90671
-5.24379
-5.46059
-5.50851
-5.32796
-5.11543
-4.94836
-4.83607
-4.77107
-4.74238
-4.73951
-4.75418
-4.78044
-4.81438
-4.85352
-4.8965
-4.94269
-4.99198
-5.04455
-5.10254
-5.34467
-5.41734
-5.29933
-5.1353
-4.99617
-4.8985
-4.84059
-4.81546
-4.81526
-4.83309
-4.86367
-4.90325
-4.94929
-5.00019
-5.05498
-5.11316
-5.17449
-5.14025
-5.40045
-5.47455
-5.34839
-5.17456
-5.02881
-4.92853
-4.8713
-4.84935
-4.85418
-4.87836
-4.91618
-4.96353
-5.01761
-5.07651
-5.13904
-5.20443
-5.27225
-5.39252
-5.65488
-5.69057
-5.47542
-5.22617
-5.03577
-4.91463
-4.85154
-4.83246
-4.84472
-4.87835
-4.92618
-4.98331
-5.0465
-5.11368
-5.18347
-5.25511
-5.32814
-6.00189
-6.13669
-6.04244
-5.63491
-5.24689
-4.98709
-4.84053
-4.77556
-4.76602
-4.79236
-4.84091
-4.90274
-4.97227
-5.04611
-5.12217
-5.19928
-5.27678
-5.35445
-7.2495
-6.88932
-6.49398
-5.76165
-5.18284
-4.85269
-4.69604
-4.64585
-4.65975
-4.71023
-4.78044
-4.86046
-4.94476
-5.03033
-5.11561
-5.19988
-5.28285
-5.36465
-9.64101
-7.96439
-6.98239
-5.77165
-4.9793
-4.61186
-4.48161
-4.47334
-4.52815
-4.61344
-4.71117
-4.81228
-4.91237
-5.00967
-5.10368
-5.19437
-5.28208
-5.36724
-13.9822
-9.39087
-7.40297
-5.56932
-4.5945
-4.26392
-4.21474
-4.27934
-4.39145
-4.51888
-4.64693
-4.76939
-4.88441
-4.99198
-5.09307
-5.18884
-5.28005
-5.36763
-20.8898
-10.9538
-7.55399
-5.05702
-4.01562
-3.83557
-3.92967
-4.09379
-4.27186
-4.44266
-4.59914
-4.74034
-4.86728
-4.98226
-5.08799
-5.18671
-5.27997
-5.36874
-29.7364
-11.9492
-7.03333
-4.12591
-3.26382
-3.37772
-3.67078
-3.94653
-4.18882
-4.39681
-4.57533
-4.72952
-4.86387
-4.98254
-5.08998
-5.18966
-5.28336
-5.3721
-43.1063
-12.6138
-5.47261
-2.72875
-2.41303
-2.96319
-3.48401
-3.86211
-4.15335
-4.38566
-4.5773
-4.73745
-4.87343
-4.99112
-5.09748
-5.19654
-5.28982
-5.37763
-84.5993
-17.3733
-3.66392
-1.26524
-1.6958
-2.72159
-3.43594
-3.86969
-4.17322
-4.41037
-4.6063
-4.76759
-4.89873
-5.00794
-5.10757
-5.20437
-5.29698
-5.38327
-177.886
-26.8494
-3.67998
-0.770021
-1.53489
-2.84283
-3.61385
-4.01501
-4.27083
-4.46698
-4.65056
-4.81595
-4.95114
-5.05204
-5.13689
-5.22314
-5.3108
-5.3924
-154.79
-9.62711
-3.27222
-1.0681
-1.84289
-3.22065
-3.91345
-4.22478
-4.41726
-4.55889
-4.70172
-4.85434
-5.00362
-5.12321
-5.21293
-5.293
-5.37381
-5.457
428.057
66.6057
7.05613
1.59961
-0.915391
-2.8567
-3.65273
-3.99445
-4.3101
-4.5767
-4.70763
-4.75425
-4.80211
-4.89795
-5.02142
-5.13032
-5.21858
-5.30107
-8.52548
-8.51264
-8.50201
-8.54339
-8.63643
-8.74013
-8.82006
-8.86007
-8.86373
-8.84606
-8.81865
-8.79008
-8.76841
-8.75961
-8.76461
-8.77725
-8.78847
-8.7936
-8.79283
-8.79077
-8.79526
-8.82798
-8.91821
-9.08958
-9.3426
-9.66038
-10.0315
-10.4453
-10.8864
-11.3384
-11.7864
-12.2184
-12.6251
-12.9999
-13.3385
-13.6385
-13.8988
-14.1196
-14.3013
-14.4452
-14.5523
-14.6241
-14.662
-14.6674
-14.6414
-14.5855
-14.5013
-14.3911
-14.2562
-14.0943
-13.9029
-13.6832
-13.438
-13.169
-12.8774
-12.5644
-12.2309
-11.878
-11.5067
-11.118
-10.7131
-10.2931
-9.85897
-9.41204
-8.95343
-8.48433
-8.00594
-7.51947
-7.02609
-6.52701
-6.02337
-5.51633
-5.00699
-4.49644
-3.98572
-3.47583
-2.96773
-2.46233
-1.96049
-1.46302
-0.970677
-0.48416
-0.00411625
0.468861
0.934238
1.39153
1.84032
2.28022
2.71092
3.13217
3.54377
3.94552
4.33726
4.71896
5.09088
5.45301
5.80489
6.14613
6.47672
6.7969
7.10689
7.40692
7.69715
7.97779
8.249
8.51099
8.76398
9.00817
9.24379
9.47104
9.69015
9.90137
10.1049
10.3011
10.4901
10.6722
10.8476
11.0165
11.1793
11.336
11.4871
11.6325
11.7727
11.9077
12.0379
12.1633
12.2842
12.4008
12.5133
12.6217
12.7263
12.8274
12.9254
13.0201
13.1115
13.1998
13.2851
13.3676
13.4474
13.5245
13.5992
13.6716
13.7416
13.8095
13.8753
13.939
14.0009
14.0608
14.119
14.1754
14.2302
14.2833
14.3348
14.3848
14.4333
14.4803
14.5258
14.57
14.6128
14.6542
14.6943
14.733
14.7705
14.8066
14.8415
14.8751
14.9075
14.9387
14.9689
14.998
15.0264
15.0541
15.0815
15.1092
15.1379
15.1687
15.2041
15.2457
15.3036
15.3641
-8.58293
-8.61419
-8.68814
-8.78175
-8.88522
-8.97742
-9.03867
-9.06306
-9.04601
-8.98556
-8.8958
-8.79898
-8.71736
-8.66608
-8.64402
-8.64082
-8.65038
-8.67582
-8.71111
-8.73135
-8.75569
-8.83367
-8.99343
-9.23301
-9.5399
-9.91089
-10.3367
-10.7968
-11.2697
-11.7375
-12.1876
-12.6108
-13.0006
-13.3531
-13.6666
-13.9408
-14.1762
-14.3737
-14.5345
-14.6598
-14.7508
-14.8085
-14.8339
-14.828
-14.7915
-14.7251
-14.6293
-14.5039
-14.3497
-14.1697
-13.9676
-13.7437
-13.497
-13.2277
-12.9365
-12.6241
-12.2913
-11.9392
-11.5687
-11.1808
-10.7766
-10.3572
-9.92366
-9.47726
-9.0191
-8.55036
-8.07225
-7.58598
-7.09272
-6.59367
-6.08999
-5.58282
-5.07327
-4.56243
-4.05134
-3.541
-3.03238
-2.52638
-2.02387
-1.52566
-1.03252
-0.545141
-0.0641832
0.409758
0.876139
1.33447
1.7843
2.22524
2.65695
3.07912
3.49148
3.8938
4.28585
4.66753
5.03891
5.40022
5.75165
6.09322
6.42479
6.74625
7.05764
7.35908
7.65073
7.93276
8.20534
8.46868
8.72298
8.96845
9.20532
9.43384
9.65422
9.86669
10.0715
10.2689
10.459
10.6423
10.8188
10.9888
11.1527
11.3105
11.4625
11.609
11.7501
11.8861
12.0173
12.1438
12.2658
12.3835
12.497
12.6066
12.7123
12.8141
12.9122
13.0069
13.0985
13.187
13.2726
13.3553
13.4354
13.5128
13.5878
13.6605
13.7308
13.799
13.8651
13.9292
13.9913
14.0515
14.11
14.1667
14.2217
14.275
14.3268
14.377
14.4257
14.473
14.5188
14.5631
14.6061
14.6477
14.688
14.7269
14.7645
14.8008
14.8358
14.8696
14.9021
14.9335
14.9637
14.993
15.0215
15.0493
15.0769
15.1047
15.1334
15.1641
15.1989
15.2385
15.2921
15.342
-8.70995
-8.79178
-8.90975
-9.01557
-9.09847
-9.15231
-9.17294
-9.15912
-9.10954
-9.02646
-8.91893
-8.80355
-8.70379
-8.63925
-8.6105
-8.60568
-8.62469
-8.68142
-8.78503
-8.93208
-9.12243
-9.36319
-9.65724
-9.99637
-10.3684
-10.7641
-11.1736
-11.5849
-11.9874
-12.374
-12.74
-13.0815
-13.3959
-13.6815
-13.9373
-14.1627
-14.3576
-14.5222
-14.6565
-14.7609
-14.8357
-14.8815
-14.8986
-14.8873
-14.8483
-14.7818
-14.6883
-14.5678
-14.4202
-14.2465
-14.0482
-13.8262
-13.5811
-13.3135
-13.024
-12.7134
-12.3825
-12.0322
-11.6635
-11.2772
-10.8746
-10.4566
-10.0245
-9.57923
-9.12211
-8.65426
-8.17691
-7.69123
-7.19843
-6.69969
-6.19618
-5.68904
-5.17939
-4.66832
-4.15688
-3.64607
-3.13686
-2.63018
-2.12688
-1.6278
-1.13369
-0.64527
-0.163194
0.311933
0.779563
1.2392
1.69041
2.13279
2.56602
2.98979
3.40388
3.80808
4.20225
4.58629
4.96017
5.32391
5.67754
6.02106
6.35445
6.67771
6.99091
7.29416
7.58761
7.87142
8.14578
8.41086
8.66688
8.91405
9.15259
9.38274
9.6047
9.81873
10.025
10.2239
10.4155
10.6002
10.778
10.9494
11.1146
11.2737
11.427
11.5747
11.717
11.8541
11.9862
12.1135
12.2363
12.3547
12.4689
12.579
12.6854
12.7879
12.887
12.9828
13.0754
13.1649
13.2513
13.335
13.4158
13.4941
13.5698
13.6431
13.7141
13.7829
13.8496
13.9143
13.9769
14.0377
14.0966
14.1538
14.2092
14.263
14.3152
14.3658
14.4149
14.4625
14.5086
14.5533
14.5966
14.6384
14.679
14.7181
14.756
14.7925
14.8278
14.8617
14.8945
14.926
14.9564
14.9859
15.0144
15.0423
15.0699
15.0976
15.1261
15.1562
15.1897
15.2263
15.2737
15.3073
-8.74935
-8.84679
-8.94806
-9.03459
-9.09903
-9.13873
-9.15119
-9.13379
-9.08652
-9.01442
-8.92869
-8.84614
-8.78494
-8.75797
-8.77009
-8.8234
-8.92179
-9.06891
-9.26536
-9.50613
-9.7824
-10.087
-10.4139
-10.7567
-11.1101
-11.4689
-11.8276
-12.1813
-12.5252
-12.8552
-13.1681
-13.4612
-13.7323
-13.9798
-14.2024
-14.3992
-14.5696
-14.7132
-14.8298
-14.9193
-14.9818
-15.0173
-15.026
-15.0079
-14.9633
-14.8922
-14.7951
-14.6722
-14.524
-14.3511
-14.1542
-13.9338
-13.6903
-13.4243
-13.1365
-12.8276
-12.4984
-12.1497
-11.7824
-11.3976
-10.9963
-10.5795
-10.1483
-9.70395
-9.24752
-8.78023
-8.30326
-7.81782
-7.32509
-6.82627
-6.32251
-5.81498
-5.3048
-4.79305
-4.28079
-3.76904
-3.25877
-2.75091
-2.24633
-1.74585
-1.25026
-0.760263
-0.276531
0.200327
0.669757
1.13126
1.58438
2.02874
2.46399
2.88983
3.30603
3.7124
4.10879
4.49511
4.87132
5.23738
5.59326
5.93895
6.27445
6.5998
6.91507
7.22039
7.51589
7.80173
8.07809
8.34516
8.60313
8.85221
9.09263
9.32461
9.54838
9.76415
9.97219
10.1727
10.366
10.5523
10.7317
10.9047
11.0712
11.2317
11.3864
11.5354
11.6789
11.8173
11.9506
12.0791
12.2031
12.3226
12.4378
12.5491
12.6564
12.76
12.8601
12.9569
13.0505
13.1409
13.2283
13.3128
13.3944
13.4735
13.55
13.624
13.6957
13.7652
13.8325
13.8977
13.9609
14.0223
14.0817
14.1394
14.1953
14.2496
14.3022
14.3532
14.4027
14.4507
14.4972
14.5422
14.5859
14.6281
14.6689
14.7084
14.7465
14.7833
14.8188
14.8529
14.8859
14.9176
14.9481
14.9777
15.0063
15.0341
15.0616
15.0889
15.1168
15.1457
15.177
15.2095
15.2489
15.2675
-8.53746
-8.62238
-8.72248
-8.81958
-8.89693
-8.94966
-8.97675
-8.97903
-8.96096
-8.93084
-8.90077
-8.88471
-8.89546
-8.94259
-9.03229
-9.16771
-9.34894
-9.5714
-9.82667
-10.1067
-10.4059
-10.7203
-11.0453
-11.376
-11.7081
-12.0378
-12.3617
-12.6767
-12.98
-13.2693
-13.5425
-13.798
-14.0342
-14.2501
-14.4444
-14.6165
-14.7657
-14.8912
-14.9928
-15.0699
-15.1224
-15.15
-15.1526
-15.13
-15.0823
-15.0094
-14.9114
-14.7884
-14.6408
-14.469
-14.2733
-14.0542
-13.8121
-13.5476
-13.2613
-12.9539
-12.6261
-12.2788
-11.9128
-11.5293
-11.129
-10.7132
-10.2829
-9.83918
-9.38329
-8.91641
-8.43969
-7.95435
-7.46158
-6.96255
-6.45846
-5.95044
-5.43964
-4.92713
-4.41399
-3.90123
-3.38984
-2.88074
-2.37481
-1.87289
-1.37576
-0.884133
-0.398688
0.0799634
0.55126
1.0147
1.46983
1.91624
2.35361
2.78163
3.20005
3.60867
4.00735
4.39598
4.77449
5.14283
5.50098
5.84891
6.18664
6.51421
6.83171
7.13924
7.43694
7.72496
8.00348
8.27267
8.53274
8.7839
9.02636
9.26036
9.48611
9.70383
9.91377
10.1162
10.3112
10.4992
10.6804
10.855
11.0232
11.1853
11.3415
11.492
11.637
11.7768
11.9115
12.0415
12.1667
12.2875
12.404
12.5165
12.625
12.7297
12.8309
12.9288
13.0233
13.1146
13.2029
13.2883
13.3708
13.4507
13.528
13.6028
13.6752
13.7454
13.8134
13.8793
13.9432
14.0051
14.0652
14.1234
14.1799
14.2347
14.2878
14.3393
14.3892
14.4377
14.4846
14.53
14.574
14.6166
14.6578
14.6976
14.736
14.7731
14.8088
14.8432
14.8763
14.9082
14.9389
14.9685
14.997
15.0248
15.0519
15.0787
15.1056
15.1329
15.1615
15.1893
15.2209
15.227
-8.11749
-8.2059
-8.32683
-8.44953
-8.55476
-8.63519
-8.6935
-8.73559
-8.76907
-8.80374
-8.85055
-8.91979
-9.01951
-9.15452
-9.32702
-9.53602
-9.77684
-10.0439
-10.3319
-10.6351
-10.948
-11.266
-11.585
-11.9015
-12.2128
-12.5167
-12.8114
-13.0951
-13.3665
-13.6243
-13.8672
-14.0941
-14.304
-14.4958
-14.6688
-14.8219
-14.9545
-15.0659
-15.1554
-15.2226
-15.2669
-15.2879
-15.2853
-15.2588
-15.2083
-15.1336
-15.0346
-14.9114
-14.7641
-14.5929
-14.3982
-14.1802
-13.9394
-13.6763
-13.3914
-13.0854
-12.759
-12.4131
-12.0484
-11.6661
-11.267
-10.8522
-10.4227
-9.97978
-9.52449
-9.05806
-8.58165
-8.09645
-7.60367
-7.1045
-6.6001
-6.09163
-5.58023
-5.067
-4.553
-4.03926
-3.52676
-3.01644
-2.50919
-2.00584
-1.50718
-1.01393
-0.526783
-0.0463455
0.426815
0.892188
1.34932
1.7978
2.23729
2.66748
3.08812
3.49901
3.89998
4.29092
4.67174
5.04239
5.40282
5.75304
6.09305
6.42291
6.74269
7.05249
7.35246
7.64273
7.92349
8.19491
8.45717
8.7105
8.95509
9.19117
9.41896
9.6387
9.85062
10.055
10.2519
10.4418
10.6248
10.8012
10.9712
11.135
11.2928
11.445
11.5916
11.7329
11.8692
12.0005
12.1272
12.2494
12.3672
12.4809
12.5907
12.6967
12.799
12.898
12.9935
13.0859
13.1752
13.2615
13.345
13.4258
13.504
13.5796
13.6529
13.7239
13.7926
13.8592
13.9238
13.9864
14.0471
14.106
14.1631
14.2184
14.2721
14.3242
14.3746
14.4235
14.4709
14.5168
14.5612
14.6042
14.6458
14.6859
14.7247
14.7621
14.7981
14.8327
14.8661
14.8981
14.9289
14.9585
14.987
15.0144
15.0411
15.0672
15.0928
15.1182
15.1437
15.1666
15.191
15.1864
-7.65248
-7.75116
-7.89322
-8.04202
-8.17996
-8.2986
-8.4015
-8.498
-8.5975
-8.70892
-8.83989
-8.99528
-9.17785
-9.38804
-9.62416
-9.88409
-10.1648
-10.4618
-10.7696
-11.0833
-11.3985
-11.7117
-12.0203
-12.3222
-12.6158
-12.8998
-13.1732
-13.435
-13.6844
-13.9206
-14.1426
-14.3497
-14.541
-14.7158
-14.8731
-15.0121
-15.1322
-15.2326
-15.3126
-15.3715
-15.4089
-15.4242
-15.4169
-15.3868
-15.3334
-15.2566
-15.1562
-15.0321
-14.8845
-14.7134
-14.5189
-14.3015
-14.0615
-13.7992
-13.5153
-13.2105
-12.8853
-12.5405
-12.1771
-11.796
-11.398
-10.9843
-10.5559
-10.1139
-9.65943
-9.19373
-8.71794
-8.23325
-7.74086
-7.24193
-6.73766
-6.22918
-5.71764
-5.20413
-4.68971
-4.17543
-3.66225
-3.15113
-2.64295
-2.13856
-1.63874
-1.14422
-0.655689
-0.173769
0.300971
0.768015
1.2269
1.67722
2.11863
2.5508
2.97348
3.38646
3.78957
4.18268
4.56569
4.93855
5.30119
5.65363
5.99587
6.32798
6.65001
6.96207
7.26428
7.5568
7.83978
8.11341
8.37787
8.63337
8.88012
9.11832
9.34822
9.57003
9.78399
9.99033
10.1893
10.3811
10.566
10.7443
10.916
11.0816
11.2412
11.395
11.5433
11.6863
11.8241
11.9569
12.0851
12.2087
12.328
12.443
12.5541
12.6614
12.765
12.8651
12.9618
13.0553
13.1456
13.233
13.3175
13.3993
13.4784
13.5549
13.6291
13.7009
13.7705
13.8379
13.9032
13.9666
14.028
14.0875
14.1452
14.2012
14.2555
14.3081
14.3591
14.4086
14.4565
14.5028
14.5477
14.5912
14.6331
14.6737
14.7128
14.7505
14.7868
14.8217
14.8553
14.8875
14.9183
14.9479
14.9762
15.0034
15.0295
15.0546
15.0789
15.102
15.1242
15.1423
15.1601
15.1462
-7.29684
-7.39031
-7.54235
-7.70808
-7.87491
-8.03589
-8.1905
-8.34661
-8.51248
-8.69391
-8.89495
-9.11681
-9.35805
-9.61783
-9.89554
-10.1889
-10.4941
-10.8069
-11.1229
-11.4386
-11.7511
-12.0581
-12.3577
-12.6487
-12.9299
-13.2005
-13.4598
-13.7072
-13.9421
-14.1639
-14.3719
-14.5656
-14.7441
-14.9068
-15.053
-15.1819
-15.2928
-15.3849
-15.4576
-15.5102
-15.542
-15.5525
-15.5412
-15.5077
-15.4515
-15.3725
-15.2704
-15.145
-14.9964
-14.8246
-14.6297
-14.4121
-14.1721
-13.91
-13.6264
-13.322
-12.9973
-12.6532
-12.2904
-11.91
-11.5128
-11.0998
-10.6722
-10.2311
-9.77744
-9.31253
-8.8375
-8.35354
-7.86182
-7.36352
-6.8598
-6.35181
-5.84067
-5.32747
-4.81327
-4.29909
-3.78592
-3.27469
-2.76629
-2.26156
-1.76128
-1.26619
-0.776959
-0.294226
0.181441
0.649525
1.10956
1.56114
2.00389
2.43752
2.86174
3.27634
3.68113
4.07598
4.46079
4.83547
5.2
5.55436
5.89856
6.23265
6.5567
6.8708
7.17508
7.46968
7.75475
8.03047
8.29702
8.5546
8.80342
9.04369
9.27564
9.49948
9.71544
9.92377
10.1247
10.3184
10.5052
10.6853
10.859
11.0263
11.1877
11.3432
11.4932
11.6377
11.7772
11.9116
12.0413
12.1664
12.2871
12.4035
12.516
12.6246
12.7294
12.8308
12.9287
13.0233
13.1148
13.2033
13.2888
13.3716
13.4517
13.5292
13.6043
13.677
13.7474
13.8156
13.8818
13.9459
14.008
14.0682
14.1267
14.1833
14.2382
14.2914
14.343
14.393
14.4415
14.4884
14.5338
14.5777
14.6201
14.661
14.7005
14.7386
14.7752
14.8104
14.8441
14.8765
14.9074
14.9369
14.965
14.9918
15.0172
15.0413
15.0639
15.0848
15.1036
15.117
15.1287
15.1068
-7.10652
-7.19263
-7.34675
-7.51911
-7.70251
-7.89482
-8.09262
-8.29789
-8.51519
-8.74698
-8.99353
-9.25482
-9.53077
-9.82101
-10.1236
-10.4354
-10.7527
-11.0721
-11.3906
-11.7056
-12.0149
-12.3169
-12.6102
-12.8938
-13.167
-13.429
-13.6795
-13.9178
-14.1435
-14.3562
-14.5553
-14.7403
-14.9105
-15.0653
-15.2041
-15.326
-15.4305
-15.5168
-15.5841
-15.6319
-15.6595
-15.6662
-15.6516
-15.6151
-15.5564
-15.4752
-15.3712
-15.2442
-15.0943
-14.9214
-14.7257
-14.5073
-14.2667
-14.0042
-13.7204
-13.4157
-13.091
-12.747
-12.3844
-12.0042
-11.6073
-11.1948
-10.7677
-10.3271
-9.87407
-9.40982
-8.93549
-8.45226
-7.96127
-7.46372
-6.96075
-6.4535
-5.94308
-5.43057
-4.91701
-4.40344
-3.8908
-3.38004
-2.87203
-2.3676
-1.86754
-1.37256
-0.883348
-0.400523
0.0753428
0.543735
1.00419
1.45628
1.89966
2.33401
2.75906
3.17458
3.5804
3.97636
4.36237
4.73833
5.1042
5.45997
5.80565
6.14127
6.46691
6.78266
7.08863
7.38496
7.6718
7.94931
8.21768
8.47709
8.72776
8.96988
9.20368
9.42937
9.64718
9.85735
10.0601
10.2556
10.4442
10.6261
10.8015
10.9706
11.1336
11.2908
11.4424
11.5886
11.7296
11.8656
11.9968
12.1233
12.2455
12.3633
12.4771
12.587
12.6932
12.7958
12.8949
12.9907
13.0833
13.1729
13.2595
13.3433
13.4244
13.5029
13.5789
13.6525
13.7238
13.7929
13.8598
13.9247
13.9876
14.0486
14.1077
14.165
14.2206
14.2745
14.3267
14.3773
14.4263
14.4737
14.5196
14.564
14.6069
14.6482
14.6881
14.7266
14.7635
14.799
14.8329
14.8654
14.8963
14.9257
14.9536
14.9799
15.0046
15.0275
15.0485
15.0669
15.0824
15.0913
15.0975
15.0685
-7.07865
-7.16549
-7.31319
-7.48198
-7.66871
-7.87328
-8.09251
-8.32442
-8.56925
-8.8276
-9.09899
-9.38255
-9.67804
-9.98431
-10.2987
-10.6181
-10.9397
-11.2608
-11.579
-11.8921
-12.1986
-12.4969
-12.7861
-13.0652
-13.3337
-13.5908
-13.8363
-14.0696
-14.2902
-14.4979
-14.692
-14.872
-15.0374
-15.1876
-15.3219
-15.4396
-15.54
-15.6224
-15.6861
-15.7306
-15.755
-15.7589
-15.7416
-15.7027
-15.6419
-15.5586
-15.4528
-15.3242
-15.1728
-14.9986
-14.8017
-14.5823
-14.3408
-14.0776
-13.7931
-13.488
-13.1629
-12.8186
-12.456
-12.0758
-11.6791
-11.2668
-10.8401
-10.4
-9.94753
-9.48394
-9.01037
-8.52795
-8.03786
-7.54124
-7.03924
-6.53299
-6.02358
-5.51209
-4.99955
-4.48697
-3.97531
-3.46548
-2.95835
-2.45474
-1.95544
-1.46115
-0.972547
-0.490246
-0.0148078
0.453256
0.913485
1.36547
1.80885
2.24331
2.66857
3.08441
3.49065
3.88712
4.27373
4.65038
5.01704
5.37368
5.72031
6.05697
6.38372
6.70065
7.00786
7.3055
7.59369
7.87261
8.14243
8.40334
8.65553
8.8992
9.13457
9.36185
9.58127
9.79305
9.99741
10.1946
10.3848
10.5683
10.7452
10.9159
11.0805
11.2393
11.3924
11.5401
11.6826
11.82
11.9526
12.0806
12.2041
12.3233
12.4385
12.5497
12.6571
12.7608
12.8611
12.9581
13.0518
13.1425
13.2301
13.315
13.397
13.4765
13.5534
13.628
13.7001
13.7701
13.8379
13.9035
13.9672
14.0289
14.0888
14.1468
14.203
14.2575
14.3104
14.3615
14.4111
14.4591
14.5055
14.5504
14.5937
14.6356
14.6759
14.7147
14.7519
14.7876
14.8218
14.8544
14.8853
14.9146
14.9422
14.968
14.9918
15.0135
15.0328
15.0488
15.061
15.0657
15.067
15.0319
-7.18957
-7.26794
-7.39888
-7.55477
-7.73342
-7.93452
-8.15536
-8.39337
-8.64689
-8.91461
-9.19485
-9.4865
-9.78861
-10.0992
-10.4159
-10.736
-11.057
-11.3767
-11.6929
-12.0038
-12.3079
-12.6039
-12.8908
-13.1678
-13.4342
-13.6894
-13.9329
-14.1643
-14.3831
-14.5888
-14.7809
-14.959
-15.1223
-15.2704
-15.4025
-15.518
-15.6162
-15.6965
-15.7581
-15.8004
-15.8227
-15.8245
-15.8052
-15.7644
-15.7017
-15.6167
-15.5092
-15.379
-15.2261
-15.0505
-14.8524
-14.6319
-14.3895
-14.1254
-13.8402
-13.5346
-13.2091
-12.8646
-12.5019
-12.1218
-11.7253
-11.3134
-10.8872
-10.4477
-9.9961
-9.53344
-9.06089
-8.57961
-8.09075
-7.59544
-7.09482
-6.58999
-6.08205
-5.57206
-5.06104
-4.54998
-4.03982
-3.53146
-3.02576
-2.52354
-2.02554
-1.53249
-1.04504
-0.563803
-0.089335
0.377857
0.837317
1.28864
1.73146
2.16547
2.59039
3.00601
3.41212
3.80858
4.19528
4.57213
4.93908
5.29612
5.64324
5.98048
6.3079
6.62559
6.93365
7.2322
7.52138
7.80135
8.07228
8.33434
8.58774
8.83267
9.06932
9.29793
9.5187
9.73185
9.9376
10.1362
10.3278
10.5127
10.6911
10.8632
11.0292
11.1894
11.3439
11.493
11.6369
11.7757
11.9096
12.0389
12.1637
12.2842
12.4006
12.513
12.6216
12.7265
12.8279
12.926
13.0208
13.1125
13.2012
13.287
13.3701
13.4505
13.5284
13.6038
13.6768
13.7476
13.8162
13.8826
13.9471
14.0095
14.0701
14.1288
14.1857
14.2408
14.2943
14.3461
14.3962
14.4447
14.4917
14.5371
14.5809
14.6232
14.6639
14.703
14.7406
14.7766
14.811
14.8437
14.8746
14.9038
14.931
14.9562
14.9792
14.9997
15.0172
15.0308
15.0399
15.0406
15.0374
14.9971
-7.36609
-7.43066
-7.54157
-7.68001
-7.84383
-8.03258
-8.24389
-8.47509
-8.72374
-8.98749
-9.26413
-9.55247
-9.8513
-10.1584
-10.4714
-10.7878
-11.1053
-11.4218
-11.7353
-12.044
-12.3466
-12.6415
-12.9279
-13.2047
-13.4713
-13.7269
-13.9709
-14.2029
-14.4223
-14.6285
-14.8211
-14.9993
-15.1627
-15.3106
-15.4424
-15.5573
-15.6548
-15.7341
-15.7947
-15.8357
-15.8567
-15.8571
-15.8364
-15.7941
-15.7299
-15.6433
-15.5344
-15.4028
-15.2485
-15.0717
-14.8725
-14.651
-14.4077
-14.1429
-13.8572
-13.5512
-13.2256
-12.8811
-12.5185
-12.1389
-11.743
-11.3319
-10.9067
-10.4683
-10.018
-9.55677
-9.08581
-8.60624
-8.11919
-7.6258
-7.12716
-6.62439
-6.11854
-5.61066
-5.10177
-4.59283
-4.08478
-3.57851
-3.07486
-2.57462
-2.07855
-1.58735
-1.10167
-0.622099
-0.149199
0.316534
0.774649
1.22474
1.66646
2.09948
2.52355
2.93842
3.34392
3.73989
4.12621
4.50281
4.86962
5.22662
5.57383
5.91126
6.23898
6.55706
6.8656
7.16473
7.45457
7.73528
8.00702
8.26997
8.5243
8.77022
9.00792
9.23761
9.45951
9.67382
9.88076
10.0806
10.2734
10.4596
10.6392
10.8126
10.9799
11.1414
11.2972
11.4475
11.5926
11.7327
11.8679
11.9984
12.1244
12.2461
12.3637
12.4773
12.587
12.693
12.7955
12.8947
12.9905
13.0832
13.1729
13.2597
13.3437
13.425
13.5038
13.5801
13.6539
13.7255
13.7949
13.8622
13.9273
13.9905
14.0518
14.1112
14.1687
14.2245
14.2786
14.331
14.3817
14.4308
14.4783
14.5242
14.5685
14.6112
14.6523
14.6919
14.7298
14.7661
14.8006
14.8334
14.8644
14.8934
14.9203
14.9449
14.967
14.9862
15.0019
15.0133
15.0194
15.0165
15.0092
14.9644
-7.54
-7.59148
-7.68405
-7.80464
-7.95127
-8.12341
-8.319
-8.53566
-8.77094
-9.02227
-9.28763
-9.56591
-9.85571
-10.1548
-10.4608
-10.7712
-11.0839
-11.3967
-11.7075
-12.0147
-12.3166
-12.6119
-12.8993
-13.1778
-13.4465
-13.7045
-13.9511
-14.1857
-14.4076
-14.6162
-14.8109
-14.9911
-15.1561
-15.3052
-15.4379
-15.5535
-15.6512
-15.7305
-15.7908
-15.8313
-15.8516
-15.8511
-15.8293
-15.7859
-15.7204
-15.6327
-15.5226
-15.3898
-15.2345
-15.0568
-14.8567
-14.6345
-14.3907
-14.1256
-13.8398
-13.534
-13.2087
-12.8647
-12.503
-12.1243
-11.7296
-11.3199
-10.8963
-10.4598
-10.0115
-9.55244
-9.0838
-8.60669
-8.12222
-7.6315
-7.13563
-6.63568
-6.13271
-5.62773
-5.12174
-4.6157
-4.11053
-3.6071
-3.10624
-2.60871
-2.11527
-1.6266
-1.14335
-0.666104
-0.195405
0.268255
0.72443
1.17272
1.61277
2.04427
2.46695
2.88059
3.28499
3.68001
4.06551
4.44142
4.80769
5.16427
5.51118
5.84845
6.17612
6.49427
6.80298
7.10239
7.39261
7.67378
7.94607
8.20965
8.46468
8.71137
8.94991
9.18049
9.40332
9.61861
9.82658
10.0274
10.2214
10.4086
10.5894
10.764
10.9324
11.0951
11.252
11.4036
11.5499
11.6911
11.8275
11.9591
12.0863
12.2091
12.3278
12.4425
12.5533
12.6604
12.7639
12.8641
12.9609
13.0546
13.1453
13.233
13.3179
13.4001
13.4798
13.5569
13.6316
13.704
13.7742
13.8422
13.9081
13.972
14.034
14.094
14.1523
14.2087
14.2634
14.3164
14.3677
14.4173
14.4653
14.5118
14.5565
14.5997
14.6413
14.6812
14.7195
14.756
14.7908
14.8237
14.8546
14.8835
14.9101
14.9341
14.9554
14.9733
14.9874
14.9965
14.9998
14.9936
14.9826
14.9341
-7.66679
-7.70897
-7.78616
-7.8901
-8.01934
-8.1734
-8.35056
-8.54884
-8.76624
-9.00056
-9.2504
-9.51506
-9.79308
-10.0822
-10.3799
-10.6839
-10.9917
-11.3012
-11.6103
-11.9171
-12.2198
-12.5169
-12.8069
-13.0888
-13.3612
-13.6233
-13.8742
-14.1129
-14.3388
-14.5512
-14.7493
-14.9325
-15.1
-15.2514
-15.3858
-15.5026
-15.6013
-15.6811
-15.7415
-15.7819
-15.8019
-15.8008
-15.7783
-15.7341
-15.6677
-15.5791
-15.4681
-15.3346
-15.1787
-15.0004
-14.7999
-14.5777
-14.3339
-14.0691
-13.7839
-13.4788
-13.1545
-12.8119
-12.4518
-12.0749
-11.6824
-11.275
-10.854
-10.4203
-9.9749
-9.51901
-9.05367
-8.58
-8.09909
-7.61203
-7.11988
-6.62371
-6.12455
-5.62339
-5.12122
-4.61896
-4.11752
-3.61776
-3.1205
-2.62649
-2.13644
-1.65106
-1.17095
-0.696718
-0.228885
0.23206
0.685679
1.13157
1.56939
1.99883
2.41961
2.83151
3.23434
3.62795
4.0122
4.38702
4.75234
5.10814
5.45441
5.79117
6.11848
6.43639
6.745
7.04441
7.33474
7.61614
7.88875
8.15274
8.40828
8.65554
8.89473
9.12603
9.34964
9.56576
9.77461
9.97638
10.1713
10.3595
10.5414
10.7169
10.8865
11.0502
11.2082
11.3609
11.5083
11.6506
11.7881
11.9208
12.0491
12.173
12.2928
12.4085
12.5203
12.6285
12.733
12.8342
12.932
13.0266
13.1182
13.2069
13.2927
13.3758
13.4563
13.5342
13.6098
13.683
13.7539
13.8227
13.8893
13.954
14.0166
14.0774
14.1362
14.1933
14.2486
14.3022
14.3541
14.4043
14.4529
14.4998
14.5451
14.5888
14.6308
14.6711
14.7097
14.7466
14.7815
14.8146
14.8455
14.8742
14.9005
14.924
14.9444
14.9612
14.9736
14.9806
14.9814
14.9722
14.9579
14.9062
-7.72222
-7.76048
-7.82607
-7.91506
-8.02727
-8.16267
-8.32022
-8.49857
-8.69619
-8.91151
-9.14405
-9.3937
-9.65912
-9.93792
-10.2275
-10.5254
-10.8292
-11.1365
-11.445
-11.7527
-12.0576
-12.358
-12.6521
-12.9386
-13.2162
-13.4835
-13.7397
-13.9836
-14.2145
-14.4314
-14.6336
-14.8204
-14.9912
-15.1451
-15.2816
-15.4001
-15.4999
-15.5805
-15.6413
-15.6819
-15.7017
-15.7003
-15.6774
-15.6327
-15.5659
-15.4768
-15.3655
-15.2318
-15.0757
-14.8976
-14.6975
-14.4759
-14.233
-13.9694
-13.6857
-13.3824
-13.0602
-12.72
-12.3625
-11.9887
-11.5993
-11.1955
-10.7782
-10.3484
-9.90722
-9.45564
-8.99477
-8.5257
-8.04948
-7.56719
-7.07987
-6.58857
-6.09427
-5.59797
-5.10061
-4.60311
-4.10635
-3.61117
-3.11837
-2.62871
-2.1429
-1.66158
-1.18538
-0.714871
-0.250592
0.206983
0.657418
1.10032
1.53534
1.96216
2.38053
2.79021
3.191
3.58276
3.96535
4.33868
4.7027
5.05736
5.40265
5.7386
6.06525
6.38265
6.69088
6.99006
7.28028
7.56169
7.83442
8.09863
8.35449
8.60216
8.84184
9.07371
9.29796
9.51479
9.72439
9.92698
10.1227
10.3119
10.4946
10.6712
10.8417
11.0064
11.1655
11.3192
11.4676
11.611
11.7495
11.8834
12.0127
12.1376
12.2584
12.3751
12.488
12.5972
12.7027
12.8048
12.9036
12.9992
13.0917
13.1812
13.2679
13.3519
13.4332
13.512
13.5884
13.6624
13.7341
13.8036
13.871
13.9363
13.9997
14.0611
14.1206
14.1784
14.2343
14.2885
14.341
14.3918
14.4409
14.4884
14.5342
14.5783
14.6208
14.6615
14.7005
14.7377
14.7729
14.8061
14.8371
14.8657
14.8916
14.9146
14.9343
14.9499
14.9609
14.966
14.9644
14.9524
14.9351
14.8808
-7.70776
-7.74245
-7.79928
-7.87444
-7.96945
-8.08516
-8.22156
-8.37831
-8.5546
-8.74975
-8.96419
-9.19843
-9.45125
-9.72019
-10.0025
-10.2956
-10.5967
-10.9034
-11.213
-11.5232
-11.8319
-12.1369
-12.4364
-12.7287
-13.0122
-13.2856
-13.5477
-13.7973
-14.0334
-14.2551
-14.4615
-14.6521
-14.8259
-14.9824
-15.121
-15.241
-15.342
-15.4234
-15.4847
-15.5256
-15.5455
-15.5441
-15.5212
-15.4765
-15.4097
-15.3208
-15.2098
-15.0766
-14.9214
-14.7443
-14.5456
-14.3256
-14.0848
-13.8235
-13.5425
-13.2422
-12.9235
-12.587
-12.2335
-11.864
-11.4793
-11.0804
-10.6682
-10.2437
-9.80797
-9.36206
-8.90698
-8.4438
-7.97356
-7.49729
-7.01602
-6.53075
-6.04247
-5.55213
-5.06066
-4.56895
-4.07787
-3.58823
-3.10082
-2.61638
-2.13562
-1.65919
-1.18766
-0.721621
-0.261584
0.191967
0.638595
1.07791
1.50957
1.93326
2.3487
2.75568
3.154
3.54349
3.92402
4.2955
4.65786
5.01105
5.35507
5.68993
6.01565
6.33228
6.63992
6.93863
7.22854
7.50977
7.78244
8.04671
8.30273
8.55068
8.79072
9.02303
9.24781
9.46523
9.6755
9.87881
10.0754
10.2653
10.4489
10.6264
10.7978
10.9635
11.1235
11.2782
11.4276
11.572
11.7116
11.8464
11.9768
12.1027
12.2245
12.3423
12.4562
12.5663
12.6728
12.7759
12.8756
12.9721
13.0655
13.156
13.2435
13.3284
13.4105
13.4902
13.5673
13.6421
13.7146
13.7848
13.853
13.919
13.9831
14.0452
14.1054
14.1638
14.2204
14.2752
14.3283
14.3797
14.4294
14.4774
14.5237
14.5684
14.6113
14.6525
14.6919
14.7294
14.7649
14.7982
14.8293
14.8578
14.8836
14.9061
14.925
14.9396
14.9492
14.9526
14.9488
14.9345
14.9145
14.858
-7.64386
-7.66964
-7.71582
-7.77447
-7.84923
-7.94213
-8.05436
-8.18683
-8.33977
-8.51344
-8.70924
-8.9282
-9.16914
-9.42938
-9.70592
-9.9958
-10.296
-10.6037
-10.916
-11.2303
-11.5439
-11.8546
-12.1602
-12.4588
-12.7486
-13.0282
-13.2961
-13.5511
-13.7922
-14.0183
-14.2287
-14.4225
-14.5991
-14.7579
-14.8983
-15.0198
-15.1219
-15.2042
-15.2662
-15.3075
-15.3279