/*--------------------------------*- C++ -*----------------------------------*\
  =========                 |
  \\      /  F ield         | OpenFOAM: The Open Source CFD Toolbox
   \\    /   O peration     | Website:  https://openfoam.org
    \\  /    A nd           | Version:  8
     \\/     M anipulation  |
\*---------------------------------------------------------------------------*/
FoamFile
{
    version     2.0;
    format      ascii;
    class       volScalarField;
    location    "400";
    object      k;
}
// * * * * * * * * * * * * * * * * * * * * * * * * * * * * * * * * * * * * * //

dimensions      [0 2 -2 0 0 0 0];

internalField   nonuniform List<scalar> 
12225
(
0.581861
0.615488
0.613469
0.597787
0.567141
0.534826
0.505718
0.48208
0.4638
0.449149
0.438808
0.4309
0.426449
0.42317
0.422328
0.42214
0.424666
0.424633
0.875776
0.947966
0.896181
0.805342
0.747207
0.715614
0.698317
0.695191
0.697163
0.702217
0.711361
0.721275
0.733783
0.743759
0.758042
0.765968
0.784443
0.786461
0.646302
0.740062
0.744462
0.729942
0.700877
0.67636
0.656418
0.642425
0.632691
0.62648
0.62278
0.621844
0.622514
0.623726
0.627396
0.629771
0.63519
0.63964
0.578041
0.621443
0.638604
0.641302
0.637653
0.629507
0.619502
0.610052
0.601581
0.594301
0.58818
0.583099
0.579276
0.575969
0.573816
0.572038
0.570819
0.570668
0.557339
0.576818
0.58866
0.594153
0.594847
0.593508
0.590229
0.58556
0.580582
0.575574
0.570843
0.566313
0.562289
0.558525
0.555203
0.552275
0.549515
0.54738
0.551348
0.557867
0.564768
0.568915
0.570633
0.570494
0.569633
0.567736
0.565079
0.562063
0.558951
0.555747
0.552646
0.54961
0.54671
0.543993
0.541358
0.539008
0.549327
0.550351
0.553029
0.555188
0.556451
0.556499
0.556176
0.555331
0.553854
0.552028
0.550014
0.547842
0.545623
0.543372
0.541139
0.538959
0.536806
0.534784
0.548823
0.547978
0.548299
0.54894
0.549394
0.54928
0.548909
0.548185
0.547123
0.545794
0.544296
0.542657
0.540946
0.539182
0.537401
0.53563
0.533861
0.532168
0.548755
0.546988
0.546056
0.545608
0.545318
0.544855
0.544262
0.543499
0.542554
0.541441
0.540204
0.538864
0.537459
0.536005
0.534528
0.533046
0.531556
0.530119
0.548787
0.546622
0.544942
0.543676
0.542693
0.541784
0.540886
0.539955
0.538966
0.537905
0.536784
0.535607
0.534392
0.533148
0.531888
0.530626
0.529355
0.528128
0.548816
0.546539
0.544511
0.542753
0.54125
0.539912
0.538681
0.537512
0.536374
0.535245
0.534117
0.532984
0.531849
0.530713
0.529579
0.528456
0.527333
0.526252
0.548825
0.546536
0.544393
0.542413
0.540612
0.53897
0.537459
0.536053
0.534728
0.533465
0.53225
0.531073
0.529928
0.528811
0.527719
0.526654
0.525606
0.524604
0.548826
0.546541
0.544372
0.542323
0.540399
0.538599
0.536917
0.535341
0.533859
0.532461
0.531135
0.529872
0.528665
0.527508
0.526396
0.525327
0.524291
0.523306
0.548825
0.54654
0.544368
0.542303
0.540344
0.538488
0.536732
0.53507
0.533498
0.532009
0.530597
0.529257
0.527982
0.526768
0.52561
0.524504
0.523444
0.522438
0.548824
0.546539
0.544365
0.542297
0.540329
0.538459
0.536679
0.534988
0.533379
0.531849
0.530394
0.529009
0.52769
0.526434
0.525237
0.524095
0.523005
0.521967
0.548823
0.546537
0.544361
0.542292
0.540322
0.538447
0.536662
0.534962
0.533342
0.531799
0.530328
0.528926
0.527588
0.526312
0.525095
0.523933
0.522823
0.521765
0.548823
0.546536
0.544359
0.542288
0.540317
0.53844
0.536653
0.53495
0.533327
0.53178
0.530304
0.528896
0.527553
0.52627
0.525045
0.523876
0.522758
0.52169
0.548823
0.546535
0.544358
0.542286
0.540314
0.538437
0.536648
0.534945
0.533321
0.531772
0.530296
0.528887
0.527542
0.526258
0.525033
0.523862
0.522743
0.521675
0.548823
0.546535
0.544358
0.542286
0.540314
0.538436
0.536649
0.534946
0.533325
0.531779
0.530307
0.528902
0.527563
0.526286
0.525067
0.523904
0.522794
0.521733
0.548823
0.546535
0.544358
0.542287
0.540317
0.538444
0.536665
0.534974
0.533367
0.531841
0.53039
0.529009
0.527696
0.526445
0.525253
0.524115
0.52303
0.521992
0.548823
0.546535
0.544359
0.542294
0.540342
0.5385
0.536764
0.535128
0.533585
0.532127
0.530745
0.529434
0.528187
0.526997
0.525861
0.524773
0.523732
0.522729
0.548821
0.54653
0.544373
0.542363
0.540511
0.538807
0.537232
0.535766
0.534392
0.533091
0.53185
0.53066
0.529512
0.528401
0.527324
0.526277
0.525262
0.524268
0.548802
0.546542
0.544534
0.542797
0.541327
0.540023
0.538825
0.537696
0.536597
0.535506
0.534414
0.533316
0.532214
0.531109
0.530006
0.528908
0.527823
0.526742
0.548729
0.54681
0.545471
0.544642
0.544104
0.543507
0.542849
0.542104
0.541211
0.540189
0.539061
0.537853
0.536585
0.535278
0.53395
0.532612
0.531281
0.529952
0.548715
0.548484
0.5491
0.550287
0.551155
0.551152
0.550893
0.550227
0.549063
0.547635
0.54602
0.544287
0.542481
0.540642
0.538798
0.536968
0.535172
0.533408
0.549961
0.554314
0.560238
0.564028
0.565625
0.565472
0.564617
0.562814
0.560402
0.557728
0.554918
0.552077
0.549256
0.546506
0.543845
0.541293
0.538861
0.53654
0.55501
0.5761
0.587999
0.59244
0.591729
0.58923
0.584577
0.57949
0.574279
0.569225
0.564408
0.55992
0.555746
0.551916
0.548394
0.545179
0.54225
0.539567
0.584042
0.639565
0.650443
0.645261
0.633106
0.619342
0.60684
0.596012
0.586716
0.578861
0.572153
0.566532
0.561738
0.557749
0.554356
0.551549
0.549204
0.547232
0.694993
0.757577
0.736919
0.693541
0.657352
0.631482
0.613239
0.60052
0.591511
0.585281
0.580849
0.577936
0.575935
0.574855
0.574248
0.57431
0.574564
0.575209
0.554995
0.575272
0.575429
0.570334
0.558613
0.542676
0.526528
0.511371
0.497417
0.485006
0.47389
0.464194
0.455581
0.448131
0.441529
0.435837
0.430817
0.426474
0.000487522
0.00289855
0.00543553
0.00766215
0.00976434
0.0121679
0.0150088
0.0184776
0.0226835
0.0276199
0.0331803
0.0392249
0.0456062
0.0522008
0.0588999
0.065618
0.0722799
0.0788235
0.0851929
0.0913364
0.09721
0.102765
0.107964
0.11276
0.117128
0.121036
0.124499
0.127523
0.130189
0.132206
0.134068
0.137355
0.139673
0.142007
0.143893
0.148004
0.149428
0.149448
0.148478
0.145043
0.142305
0.139028
0.149007
0.156671
0.163081
0.17129
0.178729
0.186878
0.194918
0.20327
0.211702
0.220336
0.229101
0.238037
0.247115
0.256355
0.265741
0.275283
0.284969
0.294808
0.304787
0.314913
0.325174
0.335576
0.346104
0.356765
0.367542
0.378442
0.389446
0.40056
0.411766
0.423067
0.434444
0.4459
0.457415
0.468991
0.480608
0.492266
0.503945
0.515643
0.527341
0.539035
0.550707
0.56235
0.573946
0.585485
0.596951
0.60833
0.619604
0.630756
0.641764
0.652608
0.663265
0.673716
0.683943
0.69395
0.703775
0.713462
0.722895
0.732125
0.741121
0.749883
0.758397
0.766652
0.774639
0.782345
0.789764
0.796883
0.803696
0.81019
0.816363
0.822201
0.827703
0.832856
0.837662
0.842108
0.846197
0.849919
0.853276
0.85626
0.858877
0.861118
0.86299
0.864488
0.86562
0.866381
0.866781
0.866814
0.866544
0.865824
0.864805
0.863353
0.86155
0.859507
0.857173
0.854445
0.851422
0.848085
0.844449
0.840519
0.836303
0.831809
0.827052
0.822035
0.816767
0.811259
0.805523
0.799568
0.793408
0.78705
0.780509
0.773788
0.7669
0.75985
0.752651
0.74531
0.73784
0.730248
0.722548
0.714747
0.706866
0.69892
0.69096
0.683212
0.677526
0.67397
0.670627
0.667283
0.663917
0.660532
0.657127
0.653704
0.650256
0.646767
0.643203
0.639485
0.635455
0.630679
0.624155
0.599844
0.00254091
0.0108602
0.0165943
0.0208511
0.0246032
0.0282818
0.0322519
0.0367323
0.0418187
0.0475017
0.0537026
0.0603133
0.0672199
0.0743204
0.0815271
0.0887673
0.0959802
0.103115
0.110128
0.116982
0.123644
0.130084
0.136277
0.142197
0.14783
0.153167
0.158224
0.163036
0.167698
0.172353
0.17727
0.182716
0.188848
0.195907
0.203453
0.210174
0.21686
0.224118
0.232492
0.243161
0.252553
0.264923
0.279094
0.290794
0.302732
0.315459
0.328463
0.341863
0.355564
0.369598
0.38394
0.398597
0.413563
0.428841
0.444429
0.460329
0.476541
0.493066
0.509902
0.527052
0.544513
0.562284
0.580362
0.598746
0.617431
0.636414
0.655688
0.675249
0.695088
0.7152
0.735573
0.756201
0.77707
0.798171
0.819491
0.841017
0.862734
0.884628
0.906683
0.928882
0.951209
0.973644
0.996168
1.01876
1.0414
1.06407
1.08675
1.1094
1.132
1.15454
1.17696
1.19925
1.22137
1.24327
1.26491
1.28623
1.30716
1.32767
1.34793
1.36789
1.38755
1.40687
1.42584
1.44444
1.46264
1.48042
1.49776
1.51464
1.53103
1.54692
1.56228
1.57711
1.59137
1.60506
1.61815
1.63064
1.64251
1.65375
1.66434
1.67428
1.68356
1.69217
1.7001
1.70735
1.71393
1.71982
1.72503
1.72956
1.73342
1.73659
1.73911
1.74082
1.74177
1.7422
1.74214
1.74131
1.73985
1.73776
1.73505
1.73173
1.72782
1.72333
1.71826
1.71263
1.70646
1.69976
1.69255
1.68485
1.67668
1.66805
1.65899
1.64951
1.63962
1.62934
1.6187
1.6077
1.59637
1.58472
1.57278
1.56056
1.5481
1.5354
1.52252
1.50953
1.49682
1.48442
1.47197
1.45942
1.4468
1.43412
1.4214
1.40864
1.39585
1.38303
1.37016
1.3572
1.34397
1.33042
1.315
1.28097
0.00550931
0.0189753
0.0267061
0.0324416
0.0375376
0.0425281
0.0477171
0.0532861
0.0593181
0.0658177
0.0727343
0.0799901
0.0875003
0.0951862
0.10298
0.110827
0.118682
0.126512
0.134289
0.141996
0.14962
0.157153
0.164597
0.171955
0.179247
0.186502
0.193786
0.201199
0.208887
0.217026
0.225832
0.235478
0.245992
0.257185
0.268642
0.280339
0.292186
0.304739
0.318174
0.332662
0.347321
0.362763
0.378612
0.394508
0.410718
0.427373
0.444428
0.461879
0.47971
0.497921
0.516508
0.535471
0.554807
0.574516
0.594599
0.615056
0.635885
0.657088
0.678661
0.700606
0.722919
0.745598
0.768639
0.792038
0.815791
0.839892
0.864333
0.889107
0.914205
0.939618
0.965335
0.991343
1.01763
1.04418
1.07099
1.09802
1.12528
1.15273
1.18037
1.20816
1.23609
1.26414
1.29229
1.3205
1.34876
1.37704
1.40531
1.43354
1.46171
1.48978
1.51772
1.54551
1.5731
1.60048
1.6276
1.65445
1.68099
1.70722
1.73313
1.75867
1.78382
1.80855
1.83283
1.85663
1.87993
1.90269
1.92488
1.94648
1.96747
1.9878
2.00747
2.02644
2.0447
2.06221
2.07896
2.09494
2.11012
2.12448
2.13802
2.15072
2.16256
2.17355
2.18367
2.19292
2.20128
2.20878
2.21539
2.22113
2.22599
2.22998
2.23308
2.23528
2.23649
2.23695
2.23671
2.23557
2.23359
2.23081
2.22723
2.22287
2.21775
2.21187
2.20525
2.19792
2.18988
2.18116
2.17178
2.16177
2.15114
2.13993
2.12815
2.11582
2.10297
2.08962
2.07579
2.06151
2.04679
2.03167
2.01617
2.00032
1.98415
1.96768
1.95097
1.93408
1.91723
1.90045
1.88361
1.86666
1.84962
1.83251
1.81536
1.79819
1.78102
1.76388
1.74677
1.72971
1.71264
1.69562
1.67727
1.64769
0.00898549
0.0267635
0.0363614
0.0433665
0.0494994
0.0554037
0.0614121
0.0677127
0.0743964
0.0814828
0.0889413
0.0967146
0.104736
0.112942
0.121278
0.129702
0.138182
0.146698
0.155239
0.163802
0.172394
0.181026
0.189723
0.198513
0.207438
0.216552
0.225926
0.235646
0.245823
0.256576
0.268024
0.280247
0.293231
0.306855
0.320978
0.335545
0.350536
0.366115
0.382376
0.399333
0.416792
0.434743
0.453094
0.471788
0.490846
0.510315
0.530202
0.550512
0.571244
0.592398
0.613974
0.635975
0.6584
0.68125
0.704526
0.72823
0.752361
0.776919
0.801905
0.827316
0.853152
0.879409
0.906085
0.933175
0.960674
0.988577
1.01687
1.04556
1.07462
1.10406
1.13384
1.16397
1.19443
1.2252
1.25626
1.28761
1.31921
1.35105
1.3831
1.41535
1.44777
1.48032
1.513
1.54576
1.57859
1.61144
1.64429
1.67712
1.70988
1.74254
1.77507
1.80744
1.83962
1.87158
1.90327
1.93468
1.96577
1.99651
2.02686
2.05678
2.08625
2.11523
2.14368
2.17156
2.19885
2.2255
2.25148
2.27677
2.30132
2.32511
2.34811
2.37028
2.39161
2.41206
2.43161
2.45024
2.46792
2.48465
2.50039
2.51514
2.52889
2.54161
2.55331
2.56398
2.57361
2.58219
2.58974
2.59625
2.60173
2.60617
2.60957
2.61191
2.61311
2.61344
2.61283
2.61122
2.60862
2.60507
2.60059
2.59518
2.58887
2.58167
2.57361
2.56471
2.55497
2.54444
2.53313
2.52107
2.5083
2.49483
2.48069
2.46591
2.45052
2.43454
2.418
2.40093
2.38336
2.36531
2.34682
2.32792
2.30865
2.28904
2.26914
2.24902
2.22881
2.20856
2.18821
2.16776
2.14721
2.1266
2.10595
2.08532
2.06472
2.04422
2.02386
2.00371
1.98381
1.9643
1.944
1.91679
0.0125273
0.0341048
0.0454278
0.0535996
0.0606458
0.0673063
0.0739548
0.0808008
0.0879539
0.0954547
0.103296
0.111441
0.119843
0.128452
0.137226
0.146133
0.155153
0.164274
0.173499
0.182835
0.192303
0.201926
0.211741
0.221788
0.232118
0.242786
0.253857
0.265396
0.277478
0.290172
0.303537
0.317608
0.332372
0.347779
0.363771
0.380306
0.397371
0.415001
0.433232
0.452056
0.471414
0.491272
0.511592
0.532348
0.553537
0.575174
0.597268
0.619826
0.64285
0.666345
0.690313
0.714757
0.739681
0.765086
0.790976
0.81735
0.844213
0.871563
0.899402
0.92773
0.956546
0.985848
1.01563
1.0459
1.07664
1.10784
1.13951
1.17163
1.2042
1.23719
1.27061
1.30443
1.33863
1.37321
1.40814
1.44341
1.47898
1.51484
1.55097
1.58733
1.62389
1.66064
1.69754
1.73455
1.77165
1.8088
1.84597
1.88311
1.92021
1.95721
1.99408
2.03079
2.06729
2.10355
2.13954
2.1752
2.21051
2.24542
2.27988
2.31387
2.34733
2.38023
2.41252
2.44417
2.47513
2.50537
2.53484
2.56351
2.59134
2.6183
2.64434
2.66945
2.69358
2.71671
2.7388
2.75984
2.77979
2.79864
2.81637
2.83296
2.84839
2.86265
2.87574
2.88763
2.89834
2.90786
2.91618
2.92332
2.92927
2.93403
2.9376
2.93997
2.94106
2.94115
2.94013
2.93796
2.93469
2.93033
2.9249
2.91842
2.91091
2.9024
2.8929
2.88245
2.87105
2.85875
2.84558
2.83155
2.81671
2.80108
2.78469
2.76758
2.74978
2.73131
2.71221
2.69251
2.67225
2.65146
2.63017
2.60842
2.58625
2.56371
2.54083
2.5177
2.4944
2.47098
2.44745
2.42379
2.40003
2.37623
2.3524
2.32862
2.30493
2.28141
2.25813
2.23523
2.21282
2.19105
2.16894
2.14227
0.0159297
0.0408049
0.0536773
0.0629091
0.0707722
0.078087
0.0852669
0.0925452
0.100052
0.107851
0.115958
0.124359
0.133025
0.141922
0.151021
0.1603
0.169748
0.179362
0.189151
0.199132
0.20933
0.219777
0.230515
0.241586
0.25304
0.264926
0.277299
0.290206
0.303696
0.31781
0.332578
0.348018
0.364126
0.380883
0.39826
0.416232
0.434782
0.453909
0.473615
0.493894
0.514727
0.536098
0.557988
0.580385
0.603284
0.626686
0.650596
0.675022
0.699968
0.725439
0.751442
0.777979
0.805057
0.832679
0.86085
0.889572
0.918849
0.948683
0.979076
1.01003
1.04154
1.07362
1.10625
1.13943
1.17317
1.20745
1.24227
1.27761
1.31348
1.34985
1.38671
1.42406
1.46186
1.5001
1.53876
1.57781
1.61724
1.65701
1.69711
1.73749
1.77812
1.81898
1.86003
1.90123
1.94254
1.98393
2.02536
2.06679
2.10817
2.14946
2.19062
2.23161
2.27238
2.31289
2.35309
2.39293
2.43237
2.47136
2.50986
2.54781
2.58517
2.6219
2.65795
2.69327
2.72782
2.76155
2.79441
2.82637
2.85739
2.88742
2.91642
2.94436
2.9712
2.9969
3.02145
3.04479
3.06692
3.0878
3.10742
3.12574
3.14277
3.15847
3.17285
3.18589
3.19759
3.20794
3.21695
3.22463
3.23096
3.23596
3.23963
3.24193
3.24286
3.24264
3.24113
3.23836
3.23435
3.22912
3.22269
3.21509
3.20635
3.19649
3.18553
3.1735
3.16043
3.14636
3.1313
3.11531
3.09841
3.08063
3.06202
3.0426
3.02242
3.0015
2.97989
2.95761
2.93472
2.91124
2.88722
2.8627
2.83771
2.81231
2.78655
2.76049
2.7342
2.70775
2.68116
2.65443
2.62761
2.60074
2.57389
2.5471
2.52046
2.49406
2.46802
2.4425
2.41765
2.39365
2.36964
2.34232
0.0190587
0.0467319
0.0609522
0.0711167
0.0796967
0.0875773
0.095205
0.102834
0.110613
0.118627
0.126913
0.135479
0.144313
0.153399
0.16272
0.172264
0.182028
0.192017
0.202244
0.212731
0.223507
0.234606
0.246068
0.257935
0.270252
0.283062
0.296406
0.310322
0.324842
0.339993
0.355793
0.372253
0.389372
0.407143
0.425552
0.444585
0.464229
0.484475
0.505319
0.526756
0.548781
0.571385
0.594562
0.618308
0.642617
0.667492
0.692937
0.718956
0.745557
0.772746
0.800531
0.828917
0.857912
0.887521
0.917751
0.948607
0.980093
1.01222
1.04498
1.07838
1.11242
1.14711
1.18244
1.21841
1.25502
1.29225
1.33012
1.36859
1.40767
1.44734
1.48759
1.52839
1.56974
1.6116
1.65396
1.69678
1.74005
1.78373
1.82778
1.87218
1.91689
1.96188
2.00709
2.05249
2.09804
2.14369
2.18941
2.23513
2.28081
2.32641
2.37188
2.41716
2.4622
2.50695
2.55136
2.59537
2.63894
2.682
2.7245
2.7664
2.80765
2.84818
2.88795
2.92691
2.96501
3.00219
3.03841
3.07362
3.10778
3.14083
3.17274
3.20346
3.23295
3.26118
3.28811
3.31371
3.33795
3.3608
3.38223
3.40223
3.42078
3.43786
3.45346
3.46757
3.48019
3.49131
3.50094
3.50907
3.51572
3.52088
3.52458
3.52675
3.52748
3.52685
3.5248
3.52136
3.51655
3.5104
3.50292
3.49416
3.48414
3.47288
3.46042
3.44678
3.43201
3.41613
3.39919
3.38121
3.36224
3.34231
3.32147
3.29975
3.27719
3.25384
3.22972
3.2049
3.17939
3.15326
3.12654
3.09927
3.0715
3.04329
3.01468
2.98574
2.95654
2.92713
2.89755
2.86783
2.83803
2.80819
2.77838
2.74868
2.71917
2.68998
2.66124
2.63314
2.60586
2.57958
2.55348
2.52474
0.0218199
0.0518037
0.0671555
0.0781092
0.0872965
0.0956536
0.103652
0.111562
0.119549
0.127714
0.136113
0.144772
0.1537
0.162893
0.172348
0.182064
0.192043
0.202297
0.212842
0.223704
0.234911
0.246497
0.258499
0.270956
0.283906
0.297385
0.311428
0.326064
0.341317
0.357207
0.373746
0.390944
0.408802
0.42732
0.446492
0.466311
0.48677
0.507865
0.529591
0.551947
0.574931
0.598543
0.622782
0.647647
0.67314
0.699264
0.726022
0.753424
0.781475
0.810185
0.839562
0.869615
0.900354
0.931785
0.963918
0.996761
1.03032
1.0646
1.09961
1.13535
1.17182
1.20903
1.24698
1.28566
1.32508
1.36522
1.40608
1.44765
1.48992
1.53287
1.57649
1.62075
1.66565
1.71114
1.75721
1.80383
1.85095
1.89856
1.94662
1.99507
2.04389
2.09303
2.14245
2.19209
2.24191
2.29186
2.34189
2.39194
2.44195
2.49188
2.54167
2.59125
2.64057
2.68956
2.73818
2.78635
2.83403
2.88114
2.92764
2.97347
3.01856
3.06287
3.10632
3.14888
3.19048
3.23107
3.27059
3.309
3.34623
3.38225
3.41699
3.45043
3.48251
3.51319
3.54244
3.57022
3.59649
3.62123
3.64441
3.666
3.686
3.70437
3.72111
3.73622
3.74967
3.76148
3.77165
3.78017
3.78705
3.79231
3.79597
3.79795
3.79838
3.79729
3.79464
3.79048
3.78481
3.77768
3.76911
3.75913
3.74778
3.73509
3.7211
3.70583
3.68933
3.67162
3.65277
3.63279
3.61175
3.58966
3.56659
3.54258
3.51766
3.49188
3.46529
3.43793
3.40984
3.38108
3.35169
3.32172
3.29122
3.26023
3.22882
3.19705
3.16499
3.13269
3.10019
3.06756
3.03484
3.0021
2.96941
2.93686
2.90455
2.87262
2.84122
2.81056
2.78084
2.7522
2.72389
2.69347
0.0241569
0.0559895
0.0722498
0.08384
0.0935176
0.102257
0.110549
0.118675
0.126812
0.135074
0.143533
0.152231
0.161192
0.170426
0.179943
0.189748
0.199854
0.210274
0.221029
0.232142
0.243644
0.255566
0.267942
0.280806
0.294191
0.308127
0.322644
0.337766
0.353512
0.369901
0.386944
0.404651
0.423026
0.442073
0.461792
0.482183
0.503245
0.524978
0.547382
0.570459
0.594212
0.618644
0.643758
0.669561
0.696057
0.723253
0.751155
0.779773
0.809116
0.839196
0.870024
0.901611
0.933968
0.967106
1.00103
1.03577
1.07131
1.10767
1.14485
1.18287
1.22172
1.26141
1.30194
1.34331
1.38552
1.42855
1.47241
1.51708
1.56254
1.60879
1.65581
1.70356
1.75203
1.80119
1.85101
1.90146
1.95249
2.00407
2.05616
2.10871
2.16168
2.21501
2.26866
2.32257
2.37668
2.43094
2.48529
2.53967
2.59402
2.64827
2.70235
2.75621
2.80978
2.86298
2.91577
2.96805
3.01979
3.07089
3.12132
3.17099
3.21986
3.26785
3.31491
3.36097
3.40598
3.44987
3.49259
3.53408
3.57429
3.61315
3.65063
3.68667
3.72122
3.75424
3.78569
3.81553
3.84373
3.87024
3.89506
3.91814
3.93947
3.95903
3.97681
3.9928
4.007
4.0194
4.03
4.03882
4.04586
4.05112
4.05465
4.05638
4.05644
4.05482
4.05151
4.04656
4.03998
4.03182
4.02211
4.01089
3.99818
3.98403
3.96848
3.95155
3.93331
3.91378
3.89301
3.87104
3.84793
3.82371
3.79843
3.77214
3.74489
3.71672
3.68769
3.65784
3.62722
3.59588
3.56388
3.53126
3.49808
3.46439
3.43024
3.39571
3.36086
3.32575
3.29043
3.25496
3.21941
3.18385
3.14836
3.11303
3.078
3.04339
3.00938
2.97619
2.944
2.91296
2.88235
2.85019
0.0260404
0.059296
0.0762472
0.0883209
0.0983691
0.107395
0.115902
0.124178
0.132409
0.140719
0.149192
0.157882
0.166825
0.176046
0.185561
0.195387
0.20554
0.21604
0.226908
0.238168
0.249848
0.261976
0.274583
0.287698
0.30135
0.315565
0.33037
0.345786
0.361832
0.378526
0.395881
0.413908
0.432616
0.452012
0.472103
0.492893
0.514386
0.536589
0.559506
0.583144
0.607509
0.632611
0.658457
0.685056
0.712417
0.740552
0.76947
0.799185
0.829709
0.861055
0.893238
0.926271
0.960169
0.994945
1.03061
1.06718
1.10466
1.14307
1.18241
1.22269
1.26391
1.30609
1.34921
1.39329
1.4383
1.48426
1.53115
1.57896
1.62767
1.67726
1.72772
1.77901
1.83111
1.88398
1.93759
1.99191
2.04688
2.10247
2.15862
2.21529
2.27242
2.32995
2.38783
2.44599
2.50438
2.56293
2.62157
2.68023
2.73885
2.79735
2.85566
2.91371
2.97142
3.02873
3.08556
3.14185
3.1975
3.25247
3.30667
3.36005
3.41253
3.46404
3.51453
3.56393
3.61217
3.65918
3.70492
3.74931
3.79231
3.83384
3.87387
3.91232
3.94917
3.98435
4.01782
4.04955
4.0795
4.10763
4.13392
4.15833
4.18084
4.20144
4.22012
4.23687
4.25167
4.26453
4.27546
4.28446
4.29154
4.29672
4.30001
4.30143
4.30103
4.29882
4.29478
4.28898
4.28144
4.27221
4.26133
4.24882
4.23474
4.21912
4.202
4.18343
4.16345
4.1421
4.11944
4.09551
4.07036
4.04404
4.0166
3.98809
3.95857
3.92808
3.89667
3.86441
3.83133
3.7975
3.76297
3.7278
3.69203
3.65572
3.61895
3.58176
3.54422
3.5064
3.46837
3.43018
3.39191
3.35364
3.31545
3.27746
3.23978
3.20258
3.16603
3.13033
3.09569
3.06223
3.02928
2.99517
0.0274666
0.0617617
0.0792009
0.0916104
0.101911
0.111128
0.119769
0.128129
0.136399
0.144709
0.15315
0.161789
0.170673
0.179835
0.189303
0.199098
0.20924
0.219749
0.230648
0.241961
0.253712
0.265929
0.278638
0.291867
0.30564
0.319984
0.334922
0.350476
0.366665
0.383508
0.401021
0.419217
0.438111
0.457715
0.478039
0.499094
0.52089
0.543438
0.566748
0.59083
0.615696
0.641359
0.667832
0.69513
0.723268
0.752259
0.782118
0.812861
0.844506
0.877069
0.910568
0.945019
0.980439
1.01684
1.05425
1.09267
1.13211
1.17259
1.21412
1.25671
1.30035
1.34507
1.39085
1.43769
1.48559
1.53454
1.58454
1.63556
1.68758
1.74059
1.79455
1.84944
1.90522
1.96186
2.01931
2.07752
2.13646
2.19606
2.25627
2.31704
2.37831
2.44
2.50205
2.56441
2.62699
2.68972
2.75253
2.81535
2.87809
2.94068
3.00305
3.06511
3.12678
3.18799
3.24866
3.3087
3.36805
3.42663
3.48436
3.54118
3.59701
3.65178
3.70543
3.75788
3.80907
3.85893
3.9074
3.95442
3.99992
4.04385
4.08615
4.12676
4.16563
4.20272
4.23797
4.27134
4.30281
4.33232
4.35985
4.38538
4.40888
4.43033
4.44971
4.46703
4.48228
4.49545
4.50656
4.51561
4.52261
4.52758
4.53054
4.53153
4.53061
4.52772
4.52289
4.51618
4.50765
4.49732
4.48523
4.47143
4.45597
4.43888
4.42021
4.40001
4.37832
4.3552
4.3307
4.30486
4.27775
4.2494
4.21988
4.18924
4.15754
4.12482
4.09116
4.05659
4.02117
3.98497
3.94804
3.91044
3.87222
3.83344
3.79417
3.75446
3.71438
3.67401
3.63341
3.59265
3.55181
3.51096
3.47022
3.42968
3.38949
3.3498
3.31079
3.27267
3.23563
3.19978
3.1645
3.12839
0.0284522
0.0634496
0.0811915
0.0938004
0.104242
0.113556
0.122253
0.13063
0.138881
0.147143
0.155516
0.164073
0.172867
0.181938
0.191317
0.201031
0.211103
0.221555
0.232408
0.243686
0.255414
0.267618
0.280321
0.293549
0.307326
0.321677
0.336626
0.352195
0.368405
0.385278
0.402833
0.421089
0.440064
0.459775
0.480239
0.501474
0.523493
0.546314
0.56995
0.594414
0.619725
0.645899
0.672956
0.700917
0.729801
0.759627
0.790417
0.822191
0.85497
0.888774
0.923625
0.959542
0.996543
1.03465
1.07387
1.11422
1.15573
1.19839
1.24222
1.28723
1.33342
1.38079
1.42935
1.47908
1.52999
1.58206
1.63528
1.68961
1.74505
1.80156
1.85912
1.91767
1.97719
2.03762
2.09893
2.16105
2.22393
2.28751
2.35173
2.41652
2.48182
2.54755
2.61365
2.68002
2.74661
2.81332
2.88008
2.94681
3.01342
3.07983
3.14596
3.21172
3.27702
3.34179
3.40594
3.46939
3.53206
3.59387
3.65475
3.71461
3.7734
3.83102
3.88742
3.94252
3.99626
4.04856
4.09937
4.14862
4.19624
4.24218
4.28638
4.32877
4.36931
4.40795
4.44464
4.47934
4.512
4.5426
4.57109
4.59746
4.62168
4.64373
4.6636
4.68127
4.69676
4.71005
4.72116
4.73009
4.73687
4.7415
4.74403
4.74447
4.74295
4.73931
4.73362
4.72597
4.71639
4.70494
4.69165
4.67656
4.65973
4.6412
4.62102
4.59924
4.57592
4.5511
4.52483
4.49718
4.4682
4.43794
4.40646
4.37382
4.34008
4.30528
4.2695
4.23279
4.1952
4.1568
4.11764
4.07779
4.03729
3.99622
3.95463
3.9126
3.87018
3.82744
3.78446
3.74132
3.69809
3.65486
3.61173
3.56883
3.52628
3.48425
3.44291
3.40248
3.36312
3.32497
3.28743
3.24935
0.0290448
0.0644456
0.0823198
0.0950026
0.105482
0.114804
0.123481
0.131815
0.139999
0.148174
0.156442
0.16488
0.173547
0.182486
0.191735
0.201322
0.211276
0.221619
0.232378
0.243578
0.255233
0.267366
0.28
0.293159
0.306869
0.321154
0.336039
0.351549
0.367708
0.384539
0.402067
0.420315
0.439304
0.45906
0.479603
0.500957
0.523146
0.546196
0.570142
0.595002
0.620787
0.647505
0.675179
0.703843
0.733526
0.764257
0.796062
0.828966
0.862994
0.898171
0.93452
0.972061
1.01081
1.0508
1.09203
1.13452
1.17828
1.22333
1.26968
1.31732
1.36626
1.4165
1.46804
1.52087
1.57497
1.63032
1.68691
1.74471
1.80369
1.8638
1.92502
1.98729
2.05057
2.1148
2.17993
2.24589
2.31263
2.38007
2.44815
2.51679
2.58591
2.65544
2.7253
2.7954
2.86567
2.93601
3.00634
3.07658
3.14664
3.21642
3.28584
3.35482
3.42326
3.49108
3.5582
3.62452
3.68997
3.75446
3.81793
3.88028
3.94146
4.00138
4.05997
4.11717
4.17291
4.22711
4.27972
4.33067
4.3799
4.42734
4.47294
4.51664
4.55839
4.59814
4.63584
4.67144
4.70491
4.73621
4.76531
4.79218
4.8168
4.83915
4.85922
4.87699
4.89247
4.90567
4.91658
4.92522
4.93161
4.93577
4.93772
4.93754
4.93534
4.93084
4.92425
4.91562
4.90499
4.89241
4.87792
4.86158
4.84342
4.82351
4.8019
4.77863
4.75376
4.72734
4.69944
4.67011
4.63941
4.6074
4.57412
4.53966
4.50405
4.46738
4.42968
4.39103
4.35148
4.3111
4.26994
4.22806
4.18553
4.1424
4.09874
4.05461
4.01009
3.96523
3.92012
3.87483
3.82944
3.78406
3.73877
3.69371
3.649
3.60482
3.56134
3.51875
3.47723
3.4369
3.39723
3.3573
0.0292237
0.0647777
0.0826433
0.0952993
0.105733
0.114998
0.123605
0.131857
0.139955
0.14804
0.15621
0.164542
0.173097
0.18192
0.19105
0.200516
0.210346
0.220563
0.231189
0.242244
0.253754
0.265739
0.278224
0.291237
0.304804
0.318952
0.333711
0.349107
0.365169
0.381927
0.39941
0.417648
0.43667
0.456506
0.477186
0.498741
0.521202
0.544592
0.568931
0.594246
0.620579
0.647942
0.676367
0.705893
0.736564
0.768408
0.801456
0.835737
0.871283
0.908121
0.946274
0.985762
1.0266
1.06881
1.1124
1.15738
1.20376
1.25154
1.30074
1.35135
1.40337
1.45679
1.5116
1.56778
1.62531
1.68417
1.74432
1.80572
1.86834
1.93214
1.99705
2.06303
2.13002
2.19796
2.26677
2.3364
2.40677
2.4778
2.54943
2.62156
2.69411
2.76701
2.84017
2.91349
2.98691
3.06031
3.13362
3.20675
3.27961
3.3521
3.42413
3.49563
3.56649
3.63664
3.70598
3.77443
3.84192
3.90835
3.97365
4.03775
4.10058
4.16205
4.22211
4.28068
4.3377
4.39311
4.44683
4.49881
4.54899
4.59731
4.6437
4.68811
4.7305
4.7708
4.80898
4.84499
4.87879
4.91034
4.93962
4.9666
4.99125
5.01355
5.0335
5.05108
5.06629
5.07914
5.08964
5.0978
5.10363
5.10715
5.10841
5.10756
5.10453
5.09914
5.09162
5.08199
5.07031
5.05663
5.04099
5.02345
5.00405
4.98286
4.95991
4.93528
4.90901
4.88116
4.85179
4.82097
4.78874
4.75518
4.72033
4.68427
4.64705
4.60873
4.56938
4.52906
4.48782
4.44574
4.40286
4.35925
4.31496
4.27007
4.22463
4.17871
4.13237
4.08569
4.03873
3.99159
3.94434
3.89707
3.8499
3.80294
3.75634
3.71024
3.66483
3.6203
3.5768
3.53449
3.49286
3.45127
0.0291664
0.0647034
0.082488
0.095071
0.105427
0.114603
0.123107
0.131242
0.139203
0.147132
0.155132
0.163284
0.171651
0.180283
0.189218
0.198488
0.208118
0.218134
0.22856
0.239417
0.250734
0.262538
0.274856
0.287715
0.301143
0.315172
0.329833
0.345161
0.36119
0.377958
0.395502
0.413858
0.433061
0.453144
0.474145
0.496101
0.519059
0.543044
0.568082
0.594193
0.621381
0.649739
0.679312
0.710129
0.742217
0.775616
0.810363
0.8465
0.884073
0.923106
0.963617
1.00562
1.04912
1.09413
1.14065
1.18869
1.23823
1.28928
1.34184
1.3959
1.45143
1.50843
1.56687
1.62671
1.68793
1.75049
1.81435
1.87945
1.94575
2.01318
2.08169
2.15122
2.22169
2.29304
2.36519
2.43807
2.5116
2.5857
2.66029
2.73528
2.81059
2.88614
2.96183
3.03759
3.11331
3.18891
3.26431
3.33941
3.41413
3.48838
3.56206
3.63509
3.70739
3.77887
3.84945
3.91904
3.98757
4.05496
4.12112
4.186
4.24952
4.31162
4.37222
4.43126
4.48868
4.54442
4.59841
4.65061
4.70095
4.74937
4.79582
4.84024
4.88258
4.9228
4.96084
4.99668
5.03026
5.06155
5.09053
5.11717
5.14143
5.16331
5.18278
5.19984
5.2145
5.22676
5.23662
5.2441
5.2492
5.25195
5.25241
5.25085
5.24689
5.24059
5.23212
5.22152
5.20884
5.19412
5.17742
5.15878
5.13827
5.11593
5.09182
5.066
5.03853
5.00946
4.97885
4.94677
4.91327
4.87843
4.84229
4.80492
4.76639
4.72675
4.68606
4.64439
4.6018
4.55835
4.51409
4.4691
4.42342
4.37712
4.33026
4.28289
4.2351
4.18695
4.13851
4.08985
4.04108
3.99227
3.94354
3.89501
3.84681
3.79909
3.75203
3.70582
3.6606
3.61653
3.57318
3.53016
0.0290038
0.0644158
0.082004
0.0944106
0.104584
0.113568
0.121872
0.129798
0.137548
0.145265
0.153061
0.161015
0.169187
0.177624
0.186365
0.195441
0.204882
0.214712
0.22496
0.235652
0.246818
0.258489
0.270696
0.283476
0.296865
0.310901
0.325619
0.341058
0.357262
0.374274
0.392144
0.410929
0.43066
0.451376
0.473114
0.495903
0.519742
0.544705
0.570861
0.598271
0.627013
0.657118
0.688621
0.721554
0.755948
0.791835
0.829245
0.868207
0.908738
0.95088
0.994684
1.04014
1.08724
1.13595
1.18626
1.23816
1.29163
1.34666
1.40322
1.46128
1.52082
1.58181
1.64419
1.70793
1.77298
1.83929
1.9068
1.97544
2.04517
2.1159
2.18758
2.26013
2.33349
2.40757
2.4823
2.5576
2.6334
2.70961
2.78615
2.86294
2.9399
3.01694
3.09399
3.17094
3.24773
3.32427
3.40046
3.47624
3.55151
3.62619
3.7002
3.77346
3.84589
3.9174
3.98792
4.05737
4.12569
4.19279
4.2586
4.32306
4.38611
4.44767
4.5077
4.56613
4.62289
4.67794
4.73123
4.78269
4.83227
4.87992
4.92558
4.9692
5.01073
5.05014
5.08737
5.12238
5.15514
5.18562
5.21378
5.23959
5.26304
5.28408
5.30271
5.31894
5.33277
5.34419
5.35321
5.35983
5.36406
5.36593
5.36559
5.36321
5.35828
5.3511
5.34173
5.33023
5.31663
5.301
5.28338
5.26382
5.24237
5.2191
5.19405
5.16729
5.13887
5.10886
5.07731
5.04429
5.00985
4.97406
4.93697
4.89866
4.85919
4.8186
4.77697
4.73435
4.69081
4.64641
4.60119
4.55523
4.50858
4.46129
4.41343
4.36505
4.31623
4.26702
4.21751
4.16776
4.11787
4.06792
4.01801
3.96828
3.91884
3.86985
3.82148
3.7739
3.72726
3.68174
3.63694
3.59278
0.0286702
0.0638314
0.0811455
0.0933093
0.103242
0.111986
0.120052
0.127747
0.135275
0.142778
0.150365
0.158114
0.166088
0.174335
0.182895
0.191804
0.201094
0.2108
0.220953
0.231587
0.242737
0.254439
0.266735
0.279669
0.293294
0.307676
0.322847
0.338852
0.35574
0.373552
0.392313
0.41204
0.432841
0.454791
0.477954
0.502394
0.528195
0.555402
0.584065
0.614238
0.645979
0.679323
0.7143
0.750939
0.789258
0.829267
0.870975
0.914384
0.959499
1.00633
1.05487
1.10517
1.15716
1.21077
1.26595
1.32267
1.3809
1.44058
1.50167
1.56414
1.62793
1.69298
1.75925
1.82667