/*--------------------------------*- C++ -*----------------------------------*\
  =========                 |
  \\      /  F ield         | OpenFOAM: The Open Source CFD Toolbox
   \\    /   O peration     | Website:  https://openfoam.org
    \\  /    A nd           | Version:  8
     \\/     M anipulation  |
\*---------------------------------------------------------------------------*/
FoamFile
{
    version     2.0;
    format      ascii;
    class       volScalarField;
    location    "400";
    object      p;
}
// * * * * * * * * * * * * * * * * * * * * * * * * * * * * * * * * * * * * * //

dimensions      [0 2 -2 0 0 0 0];

internalField   nonuniform List<scalar> 
12225
(
2.15278
-2.2815
-4.25267
-4.76824
-5.01623
-5.22823
-5.37804
-5.47731
-5.55453
-5.62373
-5.68692
-5.74383
-5.79526
-5.84185
-5.88457
-5.91582
-5.95612
-5.89304
-4.93693
-5.60761
-5.63048
-5.36176
-5.2859
-5.35159
-5.43495
-5.50359
-5.56597
-5.62672
-5.68423
-5.73705
-5.78562
-5.83022
-5.87177
-5.90541
-5.94497
-5.96495
-5.66617
-4.97206
-4.97945
-5.03436
-5.12941
-5.26414
-5.38159
-5.46957
-5.54265
-5.60915
-5.67001
-5.72536
-5.7762
-5.82294
-5.86693
-5.90508
-5.9504
-5.98646
-5.13794
-4.63924
-4.88533
-5.07772
-5.17987
-5.29095
-5.39489
-5.47716
-5.54676
-5.61089
-5.67044
-5.7253
-5.77611
-5.82328
-5.86814
-5.90958
-5.95573
-6.00019
-4.95164
-4.7573
-4.98799
-5.14206
-5.21401
-5.30432
-5.39961
-5.47923
-5.54738
-5.61037
-5.66922
-5.72374
-5.77452
-5.82212
-5.86782
-5.91166
-5.95844
-6.00724
-4.97951
-4.90145
-5.04532
-5.16274
-5.23163
-5.31601
-5.40591
-5.48318
-5.55008
-5.61198
-5.67001
-5.72408
-5.77474
-5.82268
-5.86902
-5.91434
-5.96151
-6.01116
-5.02517
-4.98155
-5.07468
-5.17892
-5.2523
-5.33186
-5.41511
-5.48907
-5.55437
-5.615
-5.67205
-5.72553
-5.77598
-5.82407
-5.87075
-5.91673
-5.96373
-6.01244
-5.05538
-5.0288
-5.10275
-5.19816
-5.27123
-5.34594
-5.42362
-5.49463
-5.55845
-5.61794
-5.67408
-5.727
-5.77716
-5.82519
-5.87188
-5.91788
-5.9643
-6.01161
-5.08139
-5.06873
-5.13081
-5.21637
-5.28725
-5.35802
-5.43126
-5.49972
-5.56218
-5.62062
-5.67594
-5.72832
-5.77816
-5.82602
-5.87255
-5.91829
-5.96399
-6.00985
-5.1118
-5.11041
-5.16177
-5.23649
-5.30417
-5.37107
-5.43984
-5.50545
-5.56627
-5.62347
-5.67783
-5.72954
-5.77892
-5.82642
-5.87256
-5.91777
-5.96247
-6.0067
-5.14606
-5.15174
-5.1945
-5.25899
-5.32245
-5.3853
-5.44952
-5.51193
-5.57075
-5.62648
-5.67967
-5.7305
-5.7792
-5.82612
-5.87161
-5.91598
-5.95944
-6.00189
-5.18294
-5.1922
-5.22848
-5.28385
-5.34219
-5.40075
-5.46042
-5.51931
-5.57577
-5.62972
-5.68147
-5.73116
-5.77892
-5.82496
-5.86952
-5.91275
-5.95476
-5.99538
-5.22113
-5.23165
-5.26294
-5.31044
-5.36317
-5.41723
-5.47247
-5.52766
-5.5814
-5.63326
-5.68329
-5.73155
-5.77805
-5.82292
-5.86624
-5.9081
-5.9485
-5.98728
-5.25909
-5.26951
-5.29674
-5.33767
-5.3848
-5.43432
-5.4853
-5.53676
-5.58755
-5.63706
-5.68512
-5.73166
-5.77663
-5.82003
-5.86187
-5.90216
-5.94087
-5.97785
-5.29498
-5.30464
-5.32847
-5.36405
-5.40604
-5.45117
-5.49816
-5.54603
-5.59382
-5.64084
-5.68675
-5.73137
-5.7746
-5.81633
-5.85653
-5.89515
-5.93215
-5.96741
-5.3265
-5.33522
-5.35624
-5.3876
-5.42524
-5.46645
-5.50987
-5.5545
-5.59944
-5.64399
-5.68773
-5.73039
-5.77178
-5.81178
-5.85029
-5.88725
-5.9226
-5.95628
-5.35072
-5.35858
-5.37741
-5.40564
-5.43997
-5.4781
-5.51866
-5.56064
-5.60318
-5.64558
-5.68735
-5.72819
-5.76786
-5.80621
-5.84313
-5.87855
-5.91243
-5.94471
-5.3628
-5.37004
-5.38746
-5.41389
-5.44643
-5.48289
-5.52184
-5.56229
-5.60336
-5.64437
-5.68481
-5.72434
-5.76275
-5.79986
-5.83557
-5.8698
-5.90254
-5.93375
-5.36172
-5.36851
-5.38515
-5.41107
-5.44352
-5.47995
-5.51877
-5.559
-5.59979
-5.64041
-5.68037
-5.71934
-5.75712
-5.79356
-5.82857
-5.8621
-5.89413
-5.92466
-5.3513
-5.35739
-5.37334
-5.3998
-5.43366
-5.47141
-5.51127
-5.55237
-5.59383
-5.63488
-5.67502
-5.71401
-5.75168
-5.78789
-5.8226
-5.85579
-5.88744
-5.91759
-5.33508
-5.33939
-5.35416
-5.38238
-5.4191
-5.45914
-5.50091
-5.54379
-5.58667
-5.62868
-5.66944
-5.70882
-5.74669
-5.78297
-5.81763
-5.85068
-5.88215
-5.91209
-5.31645
-5.31587
-5.32837
-5.36056
-5.40178
-5.44463
-5.48894
-5.53433
-5.57914
-5.62243
-5.66406
-5.70404
-5.74228
-5.77875
-5.81348
-5.84651
-5.8779
-5.90773
-5.29931
-5.2878
-5.29602
-5.33524
-5.38259
-5.42881
-5.47643
-5.52489
-5.5718
-5.61643
-5.65903
-5.69968
-5.73834
-5.77503
-5.80986
-5.84292
-5.87428
-5.90405
-5.28649
-5.25604
-5.26057
-5.30905
-5.36125
-5.41109
-5.46359
-5.51582
-5.56476
-5.61064
-5.65421
-5.69555
-5.7346
-5.7715
-5.80644
-5.83954
-5.87093
-5.90068
-5.27508
-5.20766
-5.22641
-5.2907
-5.34124
-5.39196
-5.45009
-5.50661
-5.5576
-5.60474
-5.64935
-5.69144
-5.73094
-5.7681
-5.80319
-5.83639
-5.86784
-5.89767
-5.28062
-5.0948
-5.16421
-5.2733
-5.32613
-5.37662
-5.43895
-5.49853
-5.55092
-5.59912
-5.6447
-5.68751
-5.72749
-5.76497
-5.80026
-5.83361
-5.86516
-5.89506
-5.45173
-4.95636
-5.03276
-5.20055
-5.28649
-5.35716
-5.43014
-5.49369
-5.54766
-5.59698
-5.64332
-5.68654
-5.72675
-5.76439
-5.79982
-5.83327
-5.86496
-5.89508
-5.96115
-5.21085
-5.07286
-5.11977
-5.19815
-5.29922
-5.39444
-5.46962
-5.53107
-5.58589
-5.63592
-5.68135
-5.72284
-5.76123
-5.79707
-5.83074
-5.86266
-5.89319
-5.5596
-5.94048
-5.8478
-5.56235
-5.43115
-5.43948
-5.48467
-5.52804
-5.57071
-5.61519
-5.65923
-5.70084
-5.73975
-5.7763
-5.81069
-5.84301
-5.87362
-5.90491
0.986813
-2.44223
-4.25737
-4.79611
-5.0353
-5.23356
-5.37498
-5.46499
-5.53108
-5.58825
-5.6396
-5.68562
-5.72742
-5.76606
-5.80202
-5.83526
-5.86525
-5.89026
-6.7874
-6.78743
-6.78779
-6.78852
-6.78946
-6.79055
-6.79178
-6.79321
-6.79485
-6.79679
-6.79905
-6.8017
-6.80479
-6.80836
-6.81246
-6.81715
-6.82246
-6.82845
-6.83517
-6.84266
-6.85096
-6.86012
-6.8702
-6.88121
-6.89325
-6.90632
-6.92053
-6.93584
-6.95237
-6.97002
-6.98905
-7.00961
-7.03108
-7.05122
-7.06961
-7.09186
-7.1194
-7.14863
-7.17625
-7.20219
-7.23519
-7.26647
-7.2878
-7.31202
-7.34041
-7.36968
-7.39991
-7.43076
-7.46204
-7.4936
-7.5253
-7.55702
-7.58864
-7.62006
-7.65116
-7.68185
-7.71201
-7.74153
-7.77028
-7.79817
-7.82503
-7.85078
-7.87523
-7.89827
-7.91973
-7.93946
-7.95729
-7.97307
-7.98659
-7.99771
-8.00621
-8.01192
-8.01465
-8.0142
-8.01037
-8.00296
-7.99177
-7.9766
-7.95725
-7.93352
-7.90521
-7.87213
-7.8341
-7.79092
-7.74242
-7.68842
-7.62874
-7.56322
-7.49173
-7.41414
-7.3303
-7.24011
-7.14349
-7.04038
-6.9308
-6.81476
-6.69213
-6.56242
-6.42551
-6.28161
-6.13079
-5.97309
-5.80857
-5.63724
-5.4592
-5.27449
-5.08323
-4.8855
-4.68146
-4.47123
-4.25498
-4.03288
-3.80512
-3.5719
-3.33345
-3.09
-2.84179
-2.58907
-2.33212
-2.07119
-1.8066
-1.5386
-1.2675
-0.993594
-0.717185
-0.438563
-0.158036
0.124103
0.407552
0.692039
0.9773
1.26306
1.549
1.83485
2.12038
2.40533
2.68949
2.97259
3.25439
3.53466
3.81321
4.08984
4.36438
4.63663
4.90643
5.17361
5.43804
5.69954
5.95796
6.21317
6.46504
6.71346
6.95833
7.19953
7.43697
7.67055
7.90018
8.12577
8.34725
8.56453
8.77756
8.98627
9.1906
9.39052
9.58615
9.77727
9.96355
10.1449
10.3215
10.4931
10.6598
10.8216
10.9785
11.1304
11.2776
11.4203
11.5595
11.6965
11.8416
11.9914
-6.78638
-6.78664
-6.78712
-6.78779
-6.78846
-6.78904
-6.78962
-6.79037
-6.7914
-6.79276
-6.79451
-6.79667
-6.79928
-6.80237
-6.80597
-6.81013
-6.81487
-6.82026
-6.82632
-6.83311
-6.84067
-6.84903
-6.85825
-6.86834
-6.87937
-6.89129
-6.90418
-6.91791
-6.93251
-6.94784
-6.96394
-6.98047
-6.99723
-7.01569
-7.03933
-7.06502
-7.08777
-7.10923
-7.13154
-7.15902
-7.18275
-7.20777
-7.24574
-7.2837
-7.3162
-7.34788
-7.37935
-7.41085
-7.44241
-7.47404
-7.50569
-7.53729
-7.56875
-7.6
-7.63093
-7.66146
-7.69147
-7.72086
-7.74952
-7.77733
-7.80416
-7.8299
-7.85439
-7.8775
-7.89907
-7.91896
-7.93699
-7.95301
-7.96682
-7.97827
-7.98716
-7.99331
-7.99652
-7.9966
-7.99335
-7.98658
-7.97608
-7.96165
-7.94309
-7.9202
-7.89279
-7.86066
-7.82363
-7.78151
-7.73413
-7.6813
-7.62286
-7.55864
-7.48853
-7.41236
-7.33001
-7.24136
-7.14629
-7.0447
-6.93644
-6.82133
-6.69925
-6.57039
-6.43485
-6.29253
-6.14336
-5.98734
-5.8245
-5.65489
-5.47853
-5.29553
-5.10595
-4.90991
-4.70752
-4.49893
-4.28429
-4.06378
-3.83756
-3.60586
-3.36889
-3.12686
-2.88003
-2.62865
-2.37297
-2.11327
-1.84984
-1.58294
-1.31289
-1.03997
-0.764471
-0.486702
-0.206962
0.0744516
0.357241
0.641134
0.925859
1.21114
1.49668
1.78218
2.06741
2.35214
2.63613
2.91911
3.20085
3.48112
3.75971
4.03645
4.31114
4.5836
4.85365
5.12113
5.38591
5.6478
5.90666
6.16234
6.41472
6.6637
6.90915
7.15098
7.38908
7.62335
7.8537
8.08005
8.30231
8.52042
8.7343
8.94393
9.14925
9.35019
9.54633
9.73752
9.92391
10.1055
10.2822
10.4541
10.6211
10.7833
10.9405
11.093
11.2409
11.3845
11.5253
11.6639
11.8121
11.9575
-6.78279
-6.78366
-6.78489
-6.78598
-6.78667
-6.7871
-6.78747
-6.78798
-6.78875
-6.78987
-6.79139
-6.79335
-6.79577
-6.7987
-6.80215
-6.80616
-6.81077
-6.81603
-6.82197
-6.82862
-6.83605
-6.84427
-6.85334
-6.86326
-6.87409
-6.88582
-6.8985
-6.9121
-6.92672
-6.94237
-6.95914
-6.97694
-6.99564
-7.0157
-7.03795
-7.0619
-7.08598
-7.11016
-7.13511
-7.16165
-7.18745
-7.21309
-7.24219
-7.27261
-7.30285
-7.33342
-7.3642
-7.39514
-7.42617
-7.45727
-7.48837
-7.51942
-7.55034
-7.58105
-7.61147
-7.64151
-7.67106
-7.70003
-7.72831
-7.75578
-7.78231
-7.80779
-7.83208
-7.85503
-7.87649
-7.89632
-7.91435
-7.93041
-7.94434
-7.95595
-7.96507
-7.9715
-7.97506
-7.97554
-7.97277
-7.96653
-7.95663
-7.94288
-7.92505
-7.90297
-7.87643
-7.84524
-7.80922
-7.76817
-7.72192
-7.67029
-7.6131
-7.55022
-7.48148
-7.40676
-7.3259
-7.2388
-7.14533
-7.04539
-6.93885
-6.82557
-6.70545
-6.57853
-6.44488
-6.30446
-6.15722
-6.00318
-5.84233
-5.67472
-5.50038
-5.31941
-5.13185
-4.93784
-4.73747
-4.5309
-4.31824
-4.0997
-3.87543
-3.64564
-3.41054
-3.17036
-2.92532
-2.67569
-2.42171
-2.16366
-1.90181
-1.63645
-1.36787
-1.09635
-0.822201
-0.545714
-0.267188
0.0130753
0.294784
0.577658
0.86143
1.14582
1.43052
1.71527
1.99981
2.28391
2.56732
2.84979
3.13108
3.41096
3.68923
3.96569
4.24016
4.51244
4.78237
5.04978
5.31453
5.57645
5.83537
6.09117
6.34371
6.59288
6.83856
7.08065
7.31904
7.55363
7.78434
8.01106
8.23371
8.45222
8.66649
8.87645
9.08203
9.28321
9.47989
9.67199
9.85943
10.0421
10.2199
10.3929
10.561
10.7242
10.8826
11.0363
11.1856
11.3309
11.4738
11.6142
11.765
11.8995
-6.77686
-6.77847
-6.78087
-6.78286
-6.78412
-6.78495
-6.78561
-6.78631
-6.78718
-6.78834
-6.78987
-6.79181
-6.79422
-6.79712
-6.80055
-6.80455
-6.80914
-6.81438
-6.82029
-6.82691
-6.83429
-6.84244
-6.85143
-6.86126
-6.87199
-6.88361
-6.89618
-6.9097
-6.92422
-6.93978
-6.95641
-6.97415
-6.99301
-7.01315
-7.03463
-7.05735
-7.08097
-7.10538
-7.13065
-7.15676
-7.18341
-7.21061
-7.2387
-7.26746
-7.29672
-7.32642
-7.35646
-7.38673
-7.41718
-7.44774
-7.47833
-7.5089
-7.53937
-7.56966
-7.59969
-7.62937
-7.6586
-7.68728
-7.7153
-7.74256
-7.76893
-7.79428
-7.81848
-7.84138
-7.86285
-7.88272
-7.90083
-7.91703
-7.93114
-7.94297
-7.95236
-7.95911
-7.96303
-7.96393
-7.96162
-7.95589
-7.94654
-7.93338
-7.91621
-7.89482
-7.86903
-7.83863
-7.80343
-7.76326
-7.71792
-7.66725
-7.61107
-7.54922
-7.48155
-7.40793
-7.3282
-7.24225
-7.14995
-7.05119
-6.94586
-6.83385
-6.71511
-6.58964
-6.45744
-6.31847
-6.17271
-6.02015
-5.86081
-5.69471
-5.5219
-5.34245
-5.15643
-4.96394
-4.76509
-4.56002
-4.34886
-4.13179
-3.90898
-3.68063
-3.44694
-3.20813
-2.96444
-2.71612
-2.46341
-2.2066
-1.94594
-1.68173
-1.41425
-1.1438
-0.870657
-0.595135
-0.317525
-0.0381315
0.242759
0.524867
0.80792
1.09162
1.37569
1.65986
1.94388
2.2275
2.51047
2.79254
3.07348
3.35306
3.63107
3.90732
4.18161
4.45376
4.72359
4.99095
5.25567
5.51759
5.77656
6.03243
6.28508
6.5344
6.78025
7.02253
7.26114
7.49597
7.72692
7.95389
8.17682
8.39563
8.61023
8.82054
9.02648
9.22801
9.42511
9.61777
9.80583
9.98914
10.1676
10.3413
10.5101
10.6741
10.8333
10.9878
11.138
11.2842
11.4281
11.5685
11.7179
11.8394
-6.76996
-6.77236
-6.77615
-6.77931
-6.78139
-6.78283
-6.78401
-6.78512
-6.78634
-6.78778
-6.78954
-6.7917
-6.7943
-6.79738
-6.80099
-6.80515
-6.80992
-6.81532
-6.82141
-6.82819
-6.83575
-6.84407
-6.85323
-6.86324
-6.87415
-6.88596
-6.89873
-6.91246
-6.9272
-6.94297
-6.95979
-6.9777
-6.99673
-7.01694
-7.03831
-7.06074
-7.08406
-7.1082
-7.13315
-7.15884
-7.18521
-7.21231
-7.24009
-7.26842
-7.29718
-7.32633
-7.3558
-7.38555
-7.41549
-7.44558
-7.47573
-7.5059
-7.53599
-7.56593
-7.59564
-7.62504
-7.65401
-7.68248
-7.71032
-7.73742
-7.76367
-7.78894
-7.81309
-7.83599
-7.85748
-7.87741
-7.89562
-7.91194
-7.92621
-7.93825
-7.94786
-7.95488
-7.9591
-7.96033
-7.95838
-7.95304
-7.94412
-7.93141
-7.91473
-7.89385
-7.8686
-7.83878
-7.80418
-7.76463
-7.71995
-7.66996
-7.61448
-7.55336
-7.48644
-7.41359
-7.33465
-7.2495
-7.15802
-7.0601
-6.95565
-6.84457
-6.7268
-6.60232
-6.4711
-6.33311
-6.18835
-6.03679
-5.87846
-5.71336
-5.54157
-5.36312
-5.17811
-4.98662
-4.78878
-4.58468
-4.37451
-4.15839
-3.93654
-3.70911
-3.47633
-3.23841
-2.9956
-2.74812
-2.49625
-2.24023
-1.98035
-1.71688
-1.45012
-1.18035
-0.907877
-0.632984
-0.355981
-0.0771609
0.203186
0.484789
0.767357
1.05059
1.33422
1.618
1.90167
2.18496
2.46763
2.74942
3.03012
3.30949
3.58733
3.86343
4.1376
4.40966
4.67944
4.94676
5.21148
5.47342
5.73244
5.98839
6.24115
6.4906
6.73661
6.97907
7.21786
7.4529
7.68409
7.91133
8.13454
8.35364
8.56854
8.77917
8.98544
9.18727
9.38464
9.57752
9.76581
9.9494
10.1282
10.3022
10.4714
10.6357
10.7953
10.9502
11.1008
11.2473
11.391
11.53
11.6763
11.7859
-6.76352
-6.76668
-6.77181
-6.77613
-6.77908
-6.78123
-6.78301
-6.78466
-6.78635
-6.78822
-6.79037
-6.79289
-6.79584
-6.79926
-6.80321
-6.80771
-6.81281
-6.81855
-6.82497
-6.8321
-6.84
-6.84867
-6.85819
-6.86855
-6.87983
-6.89201
-6.90514
-6.91924
-6.93433
-6.95044
-6.96756
-6.98573
-7.00493
-7.02519
-7.04648
-7.06872
-7.09184
-7.11576
-7.14043
-7.16581
-7.19184
-7.21853
-7.24582
-7.27365
-7.30193
-7.3306
-7.35961
-7.38892
-7.41845
-7.44815
-7.47795
-7.50779
-7.53759
-7.56727
-7.59675
-7.62594
-7.65474
-7.68307
-7.7108
-7.73783
-7.76404
-7.78929
-7.81345
-7.83639
-7.85795
-7.87798
-7.89632
-7.9128
-7.92724
-7.93948
-7.94932
-7.95657
-7.96106
-7.96258
-7.96093
-7.95591
-7.94733
-7.93499
-7.91867
-7.89819
-7.87335
-7.84394
-7.80978
-7.77068
-7.72646
-7.67694
-7.62194
-7.56132
-7.49492
-7.42257
-7.34417
-7.25956
-7.16863
-7.07128
-6.96742
-6.85695
-6.73982
-6.61599
-6.48541
-6.34807
-6.20394
-6.05302
-5.89533
-5.73088
-5.55973
-5.38192
-5.19754
-5.00669
-4.80946
-4.60599
-4.39642
-4.18092
-3.95964
-3.7328
-3.50059
-3.26323
-3.02096
-2.77402
-2.52266
-2.26715
-2.00777
-1.74478
-1.47848
-1.20917
-0.937128
-0.662661
-0.386071
-0.10765
0.17232
0.453557
0.735761
1.01864
1.30194
1.58542
1.8688
2.15181
2.43422
2.71577
2.99624
3.27542
3.55308
3.82902
4.10306
4.375
4.64469
4.91194
5.1766
5.43851
5.69751
5.95348
6.20628
6.45579
6.70187
6.94442
7.18334
7.41852
7.64987
7.87729
8.10068
8.31998
8.53509
8.74593
8.95241
9.15446
9.35201
9.54503
9.73347
9.91723
10.0962
10.2705
10.4399
10.6044
10.7642
10.9193
11.07
11.2163
11.3594
11.4965
11.6396
11.7385
-6.75862
-6.76249
-6.76873
-6.77405
-6.77783
-6.7807
-6.78311
-6.78533
-6.78755
-6.7899
-6.79252
-6.79549
-6.79887
-6.80273
-6.8071
-6.81202
-6.81756
-6.82372
-6.83058
-6.83814
-6.84647
-6.85557
-6.86552
-6.87631
-6.88799
-6.90057
-6.91409
-6.92855
-6.94397
-6.96037
-6.97772
-6.99607
-7.01537
-7.03564
-7.05683
-7.0789
-7.10181
-7.12549
-7.14991
-7.17502
-7.20078
-7.22714
-7.25408
-7.28154
-7.30945
-7.33777
-7.36644
-7.39542
-7.42465
-7.45408
-7.48363
-7.51324
-7.54284
-7.57236
-7.6017
-7.63078
-7.65951
-7.68778
-7.71549
-7.74253
-7.76876
-7.79407
-7.81831
-7.84135
-7.86303
-7.8832
-7.9017
-7.91835
-7.93299
-7.94543
-7.95549
-7.96297
-7.96769
-7.96946
-7.96806
-7.96331
-7.955
-7.94292
-7.92689
-7.90668
-7.88212
-7.853
-7.81913
-7.78032
-7.7364
-7.68717
-7.63248
-7.57216
-7.50606
-7.43403
-7.35593
-7.27164
-7.18104
-7.08403
-6.9805
-6.8704
-6.75363
-6.63017
-6.49996
-6.36299
-6.21923
-6.06868
-5.91134
-5.74726
-5.57647
-5.39903
-5.215
-5.0245
-4.82762
-4.6245
-4.41527
-4.2001
-3.97915
-3.75264
-3.52075
-3.28371
-3.04175
-2.79512
-2.54406
-2.28885
-2.02976
-1.76707
-1.50106
-1.23204
-0.960282
-0.686105
-0.409797
-0.131658
0.148039
0.42899
0.710902
0.993496
1.27652
1.55974
1.84287
2.12563
2.40778
2.68909
2.96933
3.2483
3.52575
3.80151
4.07537
4.34716
4.6167
4.88382
5.14837
5.41017
5.66909
5.92499
6.17775
6.42723
6.67331
6.91588
7.15483
7.39005
7.62146
7.84896
8.07245
8.29186
8.50708
8.71805
8.92467
9.12685
9.32454
9.5177
9.70626
9.89016
10.0693
10.2437
10.4132
10.578
10.7379
10.893
11.0436
11.1895
11.3316
11.4666
11.6068
11.6965
-6.75603
-6.76044
-6.76749
-6.7736
-6.77809
-6.7816
-6.78461
-6.78739
-6.79012
-6.79298
-6.79608
-6.79951
-6.80335
-6.80766
-6.81248
-6.81786
-6.82384
-6.83046
-6.83776
-6.84577
-6.85454
-6.86408
-6.87445
-6.88565
-6.89773
-6.91068
-6.92454
-6.93931
-6.95499
-6.97161
-6.98914
-7.0076
-7.02695
-7.0472
-7.06831
-7.09025
-7.11298
-7.13647
-7.16067
-7.18554
-7.21106
-7.23717
-7.26385
-7.29104
-7.3187
-7.34678
-7.37523
-7.40401
-7.43305
-7.46231
-7.49172
-7.52121
-7.55072
-7.58017
-7.60947
-7.63854
-7.66728
-7.69559
-7.72336
-7.75048
-7.77681
-7.80224
-7.82662
-7.8498
-7.87165
-7.89199
-7.91067
-7.92752
-7.94235
-7.95499
-7.96525
-7.97294
-7.97787
-7.97984
-7.97865
-7.97409
-7.96597
-7.95409
-7.93823
-7.91821
-7.89382
-7.86486
-7.83115
-7.79249
-7.74871
-7.69963
-7.64508
-7.58489
-7.51893
-7.44702
-7.36905
-7.28489
-7.19442
-7.09753
-6.99415
-6.88419
-6.76757
-6.64426
-6.5142
-6.37738
-6.23376
-6.08336
-5.92617
-5.76223
-5.59158
-5.41428
-5.2304
-5.04003
-4.84329
-4.64031
-4.43121
-4.21618
-3.99537
-3.76899
-3.53723
-3.30033
-3.05851
-2.81202
-2.56111
-2.30605
-2.04711
-1.78458
-1.51874
-1.24988
-0.978308
-0.704315
-0.428202
-0.150258
0.129229
0.409952
0.691626
0.973981
1.25678
1.53977
1.82264
2.10516
2.38706
2.66814
2.94814
3.22687
3.5041
3.77964
4.05329
4.32489
4.59424
4.86117
5.12554
5.38719
5.64597
5.90175
6.1544
6.40379
6.6498
6.89231
7.13122
7.36643
7.59783
7.82534
8.04886
8.26831
8.48359
8.69463
8.90132
9.1036
9.30139
9.49465
9.68331
9.86731
10.0466
10.2211
10.3907
10.5555
10.7155
10.8705
11.0208
11.1661
11.3072
11.44
11.5776
11.6594
-6.7561
-6.76086
-6.76842
-6.77507
-6.7801
-6.78415
-6.78767
-6.79094
-6.79415
-6.79746
-6.801
-6.80486
-6.80913
-6.81386
-6.8191
-6.8249
-6.8313
-6.83833
-6.84605
-6.85447
-6.86364
-6.87357
-6.88431
-6.89586
-6.90826
-6.92151
-6.93563
-6.95063
-6.96651
-6.98328
-7.00092
-7.01944
-7.03881
-7.05903
-7.08007
-7.1019
-7.1245
-7.14783
-7.17186
-7.19656
-7.2219
-7.24784
-7.27435
-7.30137
-7.32888
-7.35682
-7.38515
-7.41383
-7.44279
-7.47199
-7.50136
-7.53084
-7.56036
-7.58984
-7.6192
-7.64834
-7.67717
-7.7056
-7.73349
-7.76075
-7.78724
-7.81284
-7.8374
-7.86077
-7.88281
-7.90335
-7.92222
-7.93926
-7.95428
-7.96711
-7.97755
-7.98541
-7.9905
-7.99261
-7.99156
-7.98713
-7.97913
-7.96734
-7.95157
-7.93162
-7.90729
-7.87838
-7.84471
-7.80608
-7.76231
-7.71323
-7.65867
-7.59847
-7.53247
-7.46054
-7.38253
-7.29833
-7.20782
-7.1109
-7.00749
-6.89749
-6.78085
-6.65751
-6.52743
-6.39057
-6.24694
-6.0965
-5.93929
-5.77532
-5.60466
-5.42732
-5.24343
-5.05304
-4.85629
-4.65328
-4.44418
-4.22912
-4.00832
-3.78192
-3.55018
-3.31328
-3.07148
-2.82501
-2.57414
-2.31913
-2.06025
-1.79779
-1.53203
-1.26327
-0.991811
-0.71794
-0.441967
-0.164171
0.115137
0.395664
0.677131
0.959271
1.24185
1.52461
1.80725
2.08951
2.37116
2.65197
2.93173
3.2102
3.48717
3.76246
4.03587
4.30722
4.57634
4.84306
5.10721
5.36866
5.62725
5.88286
6.13535
6.3846
6.63048
6.87288
7.1117
7.34683
7.57818
7.80565
8.02915
8.24859
8.46389
8.67495
8.88169
9.08403
9.28189
9.47521
9.66395
9.84803
10.0274
10.2019
10.3716
10.5365
10.6964
10.8513
11.0012
11.1458
11.2856
11.4163
11.5515
11.6266
-6.75885
-6.76378
-6.77155
-6.77851
-6.78391
-6.78835
-6.79228
-6.79594
-6.79954
-6.80323
-6.80714
-6.81136
-6.81599
-6.82107
-6.82667
-6.83282
-6.83956
-6.84694
-6.85499
-6.86373
-6.87321
-6.88343
-6.89444
-6.90624
-6.91887
-6.93232
-6.94662
-6.96176
-6.97776
-6.99461
-7.01231
-7.03085
-7.05021
-7.0704
-7.09137
-7.11313
-7.13563
-7.15886
-7.18279
-7.20738
-7.23262
-7.25847
-7.28489
-7.31185
-7.3393
-7.36721
-7.39552
-7.42419
-7.45317
-7.48241
-7.51184
-7.5414
-7.57102
-7.60062
-7.6301
-7.65939
-7.68839
-7.71698
-7.74506
-7.77251
-7.7992
-7.825
-7.84976
-7.87333
-7.89556
-7.91629
-7.93535
-7.95256
-7.96775
-7.98072
-7.99129
-7.99927
-8.00445
-8.00665
-8.00566
-8.00127
-7.99329
-7.98151
-7.96572
-7.94574
-7.92135
-7.89238
-7.85861
-7.81988
-7.77599
-7.72678
-7.67207
-7.61172
-7.54557
-7.47346
-7.39528
-7.3109
-7.22022
-7.12313
-7.01953
-6.90937
-6.79256
-6.66905
-6.53881
-6.40179
-6.25799
-6.10741
-5.95005
-5.78594
-5.61512
-5.43765
-5.25361
-5.0631
-4.86621
-4.66309
-4.45387
-4.23871
-4.01779
-3.79132
-3.55949
-3.32252
-3.08067
-2.83416
-2.58326
-2.32823
-2.06936
-1.80692
-1.54121
-1.27251
-1.00113
-0.727359
-0.451499
-0.173846
0.105294
0.385635
0.666897
0.94882
1.23117
1.51369
1.79606
2.07805
2.35942
2.63995
2.91942
3.19759
3.47428
3.74928
4.0224
4.29347
4.56231
4.82875
5.09264
5.35384
5.6122
5.86759
6.11987
6.36893
6.61463
6.85687
7.09555
7.33057
7.56181
7.7892
8.01264
8.23204
8.44731
8.65837
8.86512
9.06748
9.26538
9.45876
9.64755
9.83168
10.0111
10.1857
10.3554
10.5202
10.68
10.8346
10.9841
11.1279
11.2665
11.3952
11.5281
11.5976
-6.76412
-6.76905
-6.77678
-6.78381
-6.7894
-6.79409
-6.79829
-6.80223
-6.80611
-6.81008
-6.81426
-6.81876
-6.82364
-6.82898
-6.83482
-6.84121
-6.84819
-6.85579
-6.86405
-6.87299
-6.88265
-6.89304
-6.90421
-6.91615
-6.9289
-6.94246
-6.95684
-6.97206
-6.98811
-7.00499
-7.0227
-7.04124
-7.06059
-7.08074
-7.10168
-7.12339
-7.14584
-7.16903
-7.19291
-7.21748
-7.24269
-7.26852
-7.29494
-7.32192
-7.34941
-7.37736
-7.40575
-7.43451
-7.4636
-7.49296
-7.52253
-7.55225
-7.58204
-7.61182
-7.64149
-7.67098
-7.70018
-7.72898
-7.75727
-7.78493
-7.81183
-7.83783
-7.86278
-7.88654
-7.90894
-7.92983
-7.94903
-7.96636
-7.98165
-7.9947
-8.00533
-8.01334
-8.01854
-8.02073
-8.0197
-8.01525
-8.00718
-7.99529
-7.97938
-7.95924
-7.93469
-7.90552
-7.87154
-7.83258
-7.78846
-7.73899
-7.68402
-7.6234
-7.55696
-7.48457
-7.4061
-7.32143
-7.23046
-7.13308
-7.0292
-6.91876
-6.80167
-6.6779
-6.54739
-6.41013
-6.26608
-6.11525
-5.95765
-5.79331
-5.62227
-5.44459
-5.26034
-5.06963
-4.87255
-4.66925
-4.45985
-4.24454
-4.02347
-3.79686
-3.5649
-3.32784
-3.08589
-2.83932
-2.58836
-2.33332
-2.07443
-1.81201
-1.54633
-1.2777
-1.0064
-0.732742
-0.45701
-0.17952
0.0994367
0.379572
0.660604
0.942279
1.22437
1.50661
1.78868
2.07036
2.35141
2.63162
2.91074
3.18858
3.46492
3.73959
4.01237
4.28311
4.55161
4.81773
5.08131
5.34221
5.60028
5.8554
6.10743
6.35624
6.60172
6.84377
7.08226
7.31711
7.54822
7.77549
7.99883
8.21816
8.43337
8.64439
8.85112
9.05349
9.25141
9.44482
9.63364
9.81781
9.99724
10.1719
10.3416
10.5063
10.6659
10.8203
10.9692
11.1122
11.2495
11.3762
11.5072
11.572
-6.77157
-6.77636
-6.78385
-6.79075
-6.79636
-6.80114
-6.80547
-6.80957
-6.81361
-6.81774
-6.82207
-6.82671
-6.83173
-6.83718
-6.84314
-6.84962
-6.85669
-6.86437
-6.8727
-6.88171
-6.89144
-6.90189
-6.9131
-6.92509
-6.93787
-6.95145
-6.96585
-6.98108
-6.99713
-7.014
-7.0317
-7.05022
-7.06955
-7.08968
-7.1106
-7.1323
-7.15475
-7.17794
-7.20185
-7.22645
-7.25171
-7.2776
-7.30409
-7.33114
-7.35872
-7.38679
-7.41532
-7.44424
-7.47351
-7.50307
-7.53285
-7.56278
-7.59278
-7.62277
-7.65266
-7.68237
-7.71177
-7.74078
-7.76927
-7.79712
-7.82419
-7.85035
-7.87545
-7.89934
-7.92185
-7.94281
-7.96207
-7.97944
-7.99473
-8.00776
-8.01834
-8.02628
-8.03138
-8.03343
-8.03225
-8.02762
-8.01935
-8.00723
-7.99107
-7.97066
-7.94581
-7.91633
-7.88203
-7.84274
-7.79826
-7.74843
-7.6931
-7.63209
-7.56528
-7.4925
-7.41365
-7.32861
-7.23727
-7.13952
-7.03529
-6.92449
-6.80707
-6.68296
-6.55213
-6.41455
-6.2702
-6.11908
-5.96121
-5.7966
-5.6253
-5.44737
-5.26289
-5.07195
-4.87466
-4.67115
-4.46157
-4.24608
-4.02486
-3.79811
-3.56604
-3.32888
-3.08685
-2.84022
-2.58924
-2.33418
-2.07532
-1.81294
-1.54733
-1.27879
-1.00761
-0.734099
-0.458544
-0.181252
0.097485
0.377373
0.658128
0.939507
1.22129
1.50319
1.7849
2.06621
2.34688
2.6267
2.90542
3.18286
3.4588
3.73306
4.00545
4.27578
4.54389
4.80963
5.07285
5.33339
5.59113
5.84592
6.09764
6.34616
6.59137
6.83317
7.07143
7.30608
7.53701
7.76413
7.98734
8.20655
8.42168
8.63264
8.83933
9.04168
9.2396
9.43303
9.62187
9.80606
9.98551
10.1601
10.3298
10.4944
10.6538
10.8079
10.9563
11.0983
11.2344
11.3594
11.4884
11.5495
-6.78083
-6.78537
-6.79245
-6.79907
-6.80454
-6.80927
-6.81359
-6.81769
-6.82174
-6.82587
-6.8302
-6.83483
-6.83982
-6.84523
-6.85114
-6.85758
-6.8646
-6.87223
-6.88052
-6.88948
-6.89915
-6.90956
-6.92072
-6.93266
-6.94539
-6.95893
-6.97329
-6.98847
-7.00448
-7.02132
-7.03899
-7.05748
-7.0768
-7.09693
-7.11786
-7.13958
-7.16207
-7.18531
-7.20927
-7.23394
-7.25927
-7.28526
-7.31186
-7.33905
-7.36678
-7.39504
-7.42376
-7.45289
-7.48238
-7.51216
-7.54216
-7.5723
-7.60251
-7.6327
-7.66279
-7.69266
-7.72224
-7.75139
-7.78001
-7.80798
-7.83514
-7.86137
-7.88651
-7.91041
-7.93291
-7.95384
-7.97302
-7.99029
-8.00546
-8.01833
-8.02873
-8.03645
-8.04131
-8.0431
-8.04163
-8.03669
-8.02808
-8.01561
-7.99908
-7.97828
-7.95303
-7.92313
-7.88841
-7.84868
-7.80376
-7.75348
-7.6977
-7.63624
-7.56898
-7.49576
-7.41648
-7.33101
-7.23924
-7.14109
-7.03646
-6.92528
-6.80749
-6.68302
-6.55186
-6.41395
-6.2693
-6.11788
-5.95973
-5.79485
-5.62331
-5.44515
-5.26045
-5.0693
-4.87183
-4.66814
-4.45841
-4.24278
-4.02145
-3.79459
-3.56245
-3.32522
-3.08317
-2.83652
-2.58557
-2.33055
-2.07176
-1.80947
-1.544
-1.27561
-1.00462
-0.731326
-0.456024
-0.178998
0.0994483
0.379008
0.659401
0.940417
1.22182
1.50329
1.78456
2.06542
2.34564
2.62498
2.90324
3.1802
3.45568
3.72946
4.00138
4.27124
4.5389
4.8042
5.06699
5.32712
5.58446
5.83887
6.09023
6.33841
6.58331
6.8248
7.06281
7.29721
7.52793
7.75485
7.9779
8.19698
8.412
8.62287
8.82951
9.03182
9.22974
9.42316
9.61202
9.79622
9.97567
10.1503
10.3199
10.4844
10.6436
10.7972
10.945
11.0863
11.2211
11.3444
11.4716
11.5298
-6.7915
-6.79573
-6.80229
-6.8085
-6.81368
-6.8182
-6.82233
-6.82626
-6.83013
-6.83409
-6.83824
-6.84267
-6.84747
-6.85271
-6.85843
-6.86468
-6.87153
-6.87898
-6.8871
-6.8959
-6.90543
-6.91569
-6.92673
-6.93854
-6.95116
-6.9646
-6.97886
-6.99396
-7.00991
-7.0267
-7.04434
-7.06282
-7.08213
-7.10227
-7.12321
-7.14495
-7.16748
-7.19076
-7.21479
-7.23954
-7.26498
-7.29109
-7.31784
-7.3452
-7.37313
-7.40157
-7.43048
-7.45981
-7.48949
-7.51945
-7.54961
-7.57991
-7.61025
-7.64055
-7.67072
-7.70066
-7.73028
-7.75945
-7.78807
-7.816
-7.8431
-7.86924
-7.89426
-7.91801
-7.94033
-7.96105
-7.98
-7.997
-8.01187
-8.02443
-8.03448
-8.04184
-8.04631
-8.04769
-8.04579
-8.04041
-8.03135
-8.01842
-8.00141
-7.98013
-7.9544
-7.92401
-7.88879
-7.84856
-7.80315
-7.75239
-7.69611
-7.63418
-7.56645
-7.49278
-7.41305
-7.32714
-7.23496
-7.1364
-7.03139
-6.91984
-6.8017
-6.67691
-6.54543
-6.40723
-6.2623
-6.11064
-5.95225
-5.78716
-5.61541
-5.43706
-5.2522
-5.0609
-4.86329
-4.6595
-4.44967
-4.23397
-4.01258
-3.78571
-3.55356
-3.31636
-3.07436
-2.8278
-2.57694
-2.32206
-2.06344
-1.80135
-1.5361
-1.26797
-0.997281
-0.724312
-0.449349
-0.172681
0.105368
0.38449
0.664424
0.944992
1.22592
1.50685
1.78759
2.06791
2.34758
2.62637
2.90407
3.18048
3.45539
3.72863
3.99999
4.26932
4.53645
4.80124
5.06353
5.32319
5.58007
5.83404
6.08499
6.33278
6.57731
6.81847
7.05616
7.29028
7.52074
7.74744
7.9703
8.18922
8.40411
8.61488
8.82144
9.02371
9.22159
9.41501
9.60387
9.78808
9.96753
10.1421
10.3117
10.476
10.635
10.7882
10.9355
11.0758
11.2094
11.3312
11.4566
11.5127
-6.80327
-6.80716
-6.81315
-6.81883
-6.82358
-6.8277
-6.83145
-6.83499
-6.83849
-6.84207
-6.84584
-6.84992
-6.85437
-6.85926
-6.86465
-6.87059
-6.87713
-6.8843
-6.89215
-6.90071
-6.90999
-6.92004
-6.93087
-6.94251
-6.95497
-6.96826
-6.9824
-6.99738
-7.01322
-7.02992
-7.04748
-7.0659
-7.08517
-7.10528
-7.12621
-7.14795
-7.17049
-7.19382
-7.21792
-7.24276
-7.26833
-7.29457
-7.32144
-7.34892
-7.37695
-7.40549
-7.43448
-7.46387
-7.4936
-7.5236
-7.55378
-7.58406
-7.61436
-7.64458
-7.67464
-7.70445
-7.73391
-7.76291
-7.79132
-7.81901
-7.84585
-7.8717
-7.8964
-7.9198
-7.94175
-7.96207
-7.9806
-7.99716
-8.01157
-8.02366
-8.03322
-8.04008
-8.04404
-8.04491
-8.04249
-8.03658
-8.02699
-8.01352
-7.99598
-7.97417
-7.9479
-7.91699
-7.88126
-7.84052
-7.7946
-7.74334
-7.68659
-7.6242
-7.55602
-7.48192
-7.40178
-7.31548
-7.22292
-7.12401
-7.01866
-6.90681
-6.78838
-6.66333
-6.53161
-6.3932
-6.24808
-6.09625
-5.9377
-5.77248
-5.60062
-5.42219
-5.23725
-5.04592
-4.84827
-4.64448
-4.43466
-4.21901
-3.99769
-3.77091
-3.53888
-3.30184
-3.06
-2.81365
-2.56302
-2.30842
-2.05009
-1.78833
-1.52344
-1.25571
-0.985449
-0.71292
-0.438409
-0.162237
0.115279
0.393833
0.673201
0.953213
1.23352
1.51381
1.7939
2.07358
2.3526
2.63074
2.90779
3.18355
3.45782
3.73041
4.00114
4.26986
4.53639
4.80059
5.06233
5.32144
5.5778
5.83128
6.08175
6.3291
6.57321
6.81399
7.05133
7.28513
7.51531
7.74176
7.9644
8.18313
8.39787
8.60852
8.81499
9.0172
9.21505
9.40846
9.59732
9.78153
9.96098
10.1355
10.305
10.4692
10.628
10.7808
10.9274
11.0669
11.1994
11.3198
11.4433
11.4981
-6.81599
-6.81957
-6.825
-6.83008
-6.83422
-6.83773
-6.84084
-6.84376
-6.84663
-6.8496
-6.85279
-6.8563
-6.86021
-6.8646
-6.86951
-6.87501
-6.88113
-6.88792
-6.89541
-6.90362
-6.91259
-6.92234
-6.9329
-6.94427
-6.95649
-6.96955
-6.98348
-6.99828
-7.01395
-7.03049
-7.04789
-7.06617
-7.08532
-7.10533
-7.1262
-7.1479
-7.17041
-7.19373
-7.21781
-7.24263
-7.26816
-7.29435
-7.32116
-7.34855
-7.37648
-7.40489
-7.43372
-7.46293
-7.49246
-7.52224
-7.5522
-7.58224
-7.61226
-7.64217
-7.67188
-7.70132
-7.73039
-7.75897
-7.78694
-7.81416
-7.84051
-7.86584
-7.89002
-7.91287
-7.93426
-7.95401
-7.97196
-7.98794
-8.00176
-8.01325
-8.02223
-8.0285
-8.03187
-8.03216
-8.02916
-8.02269
-8.01254
-7.99852
-7.98045
-7.95812
-7.93134
-7.89994
-7.86372
-7.82251
-7.77615
-7.72447
-7.66732
-7.60454
-7.536
-7.46156
-7.3811
-7.2945
-7.20167
-7.10251
-6.99694
-6.88489
-6.7663
-6.6411
-6.50927
-6.37077
-6.22558
-6.07371
-5.91515
-5.74993
-5.5781
-5.39972
-5.21486
-5.02361
-4.82609
-4.62243
-4.41279
-4.19733
-3.97623
-3.7497
-3.51795
-3.28121
-3.03971
-2.79373
-2.54351
-2.28933
-2.03146
-1.7702
-1.50585
-1.23869
-0.968985
-0.697032
-0.423138
-0.147621
0.129209
0.40705
0.685739
0.965054