/*--------------------------------*- C++ -*----------------------------------*\
  =========                 |
  \\      /  F ield         | OpenFOAM: The Open Source CFD Toolbox
   \\    /   O peration     | Website:  https://openfoam.org
    \\  /    A nd           | Version:  8
     \\/     M anipulation  |
\*---------------------------------------------------------------------------*/
FoamFile
{
    version     2.0;
    format      ascii;
    class       volVectorField;
    location    "400";
    object      U;
}
// * * * * * * * * * * * * * * * * * * * * * * * * * * * * * * * * * * * * * //

dimensions      [0 1 -1 0 0 0 0];

internalField   nonuniform List<vector> 
12225
(
(9.85756 -1.6835 0)
(9.82062 -1.29576 0)
(9.69953 -0.672878 0)
(9.49342 -0.306548 0)
(9.27608 -0.128514 0)
(9.07952 -0.0484155 0)
(8.90816 -0.0139631 0)
(8.76118 0.000812828 0)
(8.63455 0.00714232 0)
(8.52495 0.00988548 0)
(8.42904 0.0110336 0)
(8.34483 0.0115226 0)
(8.26995 0.0117229 0)
(8.20326 0.0118364 0)
(8.14214 0.0120418 0)
(8.08908 0.0120557 0)
(8.02443 0.0154862 0)
(8.01519 0.00716613 0)
(10.086 0.372735 0)
(10.1304 0.494019 0)
(10.0985 0.347289 0)
(10.0533 0.21825 0)
(10.0141 0.143018 0)
(9.97402 0.101262 0)
(9.92652 0.0775159 0)
(9.87206 0.0633197 0)
(9.81491 0.0542791 0)
(9.75779 0.0480546 0)
(9.70193 0.0434149 0)
(9.64781 0.0397181 0)
(9.59583 0.0366613 0)
(9.5463 0.0342011 0)
(9.49869 0.0319882 0)
(9.45506 0.0316703 0)
(9.40967 0.0287049 0)
(9.38319 0.0423132 0)
(9.98947 0.0700261 0)
(9.99403 0.0554024 0)
(10.0182 0.0206598 0)
(10.0335 0.022964 0)
(10.0416 0.036755 0)
(10.044 0.0458732 0)
(10.0397 0.0498599 0)
(10.029 0.0511533 0)
(10.0139 0.0510776 0)
(9.99592 0.0502308 0)
(9.97613 0.0489917 0)
(9.95501 0.0476232 0)
(9.93319 0.0462849 0)
(9.911 0.045148 0)
(9.88857 0.0441024 0)
(9.86679 0.0440466 0)
(9.8446 0.0436131 0)
(9.82577 0.0477051 0)
(9.98684 -0.00706397 0)
(9.98129 0.00797371 0)
(10.0048 0.0246015 0)
(10.0237 0.0417286 0)
(10.0358 0.0527752 0)
(10.0452 0.0568959 0)
(10.0515 0.057542 0)
(10.0543 0.0571116 0)
(10.0543 0.056326 0)
(10.0524 0.0553444 0)
(10.0488 0.0542709 0)
(10.0439 0.0532038 0)
(10.038 0.0521888 0)
(10.0314 0.0513416 0)
(10.0241 0.0506065 0)
(10.0167 0.0505313 0)
(10.0091 0.050337 0)
(10.0024 0.0518621 0)
(9.9936 -0.00747467 0)
(9.99027 0.019981 0)
(10.0057 0.0368668 0)
(10.0191 0.0452138 0)
(10.0291 0.0506734 0)
(10.039 0.053513 0)
(10.0478 0.0545557 0)
(10.0545 0.0548246 0)
(10.0594 0.0547262 0)
(10.0629 0.0543722 0)
(10.0654 0.0538493 0)
(10.0669 0.0532523 0)
(10.0676 0.052642 0)
(10.0676 0.0521239 0)
(10.0672 0.0516986 0)
(10.0665 0.051653 0)
(10.0658 0.0516205 0)
(10.0654 0.0521939 0)
(9.99727 0.000512994 0)
(9.99586 0.02288 0)
(10.0061 0.0348005 0)
(10.0165 0.0405875 0)
(10.0255 0.0457522 0)
(10.0347 0.049375 0)
(10.0435 0.0512015 0)
(10.0509 0.0520205 0)
(10.0571 0.0523485 0)
(10.0624 0.0523642 0)
(10.067 0.052168 0)
(10.0709 0.0518573 0)
(10.0742 0.0515028 0)
(10.077 0.0511875 0)
(10.0795 0.0509306 0)
(10.0818 0.0508613 0)
(10.0841 0.0508062 0)
(10.0866 0.05084 0)
(9.99857 0.00333688 0)
(9.99846 0.0199434 0)
(10.0064 0.0305167 0)
(10.0154 0.0367116 0)
(10.0235 0.0420265 0)
(10.0319 0.0458187 0)
(10.04 0.047895 0)
(10.0473 0.0489565 0)
(10.0537 0.0495085 0)
(10.0595 0.0497356 0)
(10.0648 0.0497344 0)
(10.0696 0.0495962 0)
(10.0739 0.049391 0)
(10.0779 0.0491804 0)
(10.0816 0.0489856 0)
(10.0852 0.0488526 0)
(10.0888 0.0486832 0)
(10.0925 0.0484028 0)
(9.99911 0.00375443 0)
(9.99972 0.0174487 0)
(10.0065 0.0276861 0)
(10.0146 0.0340594 0)
(10.0222 0.039112 0)
(10.03 0.0427624 0)
(10.0376 0.0449192 0)
(10.0446 0.0461251 0)
(10.051 0.0468137 0)
(10.0568 0.0471635 0)
(10.0622 0.0472725 0)
(10.0672 0.0472279 0)
(10.0719 0.0470958 0)
(10.0763 0.0469247 0)
(10.0805 0.0467327 0)
(10.0845 0.0465308 0)
(10.0886 0.0462513 0)
(10.0927 0.0458035 0)
(9.99949 0.00390531 0)
(10.0005 0.0158413 0)
(10.0065 0.0254304 0)
(10.0139 0.0316545 0)
(10.0211 0.0364457 0)
(10.0284 0.0399718 0)
(10.0356 0.0421809 0)
(10.0423 0.0434916 0)
(10.0486 0.0442772 0)
(10.0544 0.0447117 0)
(10.0598 0.0448955 0)
(10.0649 0.0449117 0)
(10.0697 0.0448222 0)
(10.0743 0.0446672 0)
(10.0786 0.0444613 0)
(10.0829 0.0442016 0)
(10.0871 0.0438357 0)
(10.0914 0.0432866 0)
(9.99979 0.00396283 0)
(10.0012 0.0143567 0)
(10.0063 0.0230491 0)
(10.0131 0.0289869 0)
(10.0198 0.0335155 0)
(10.0266 0.0369012 0)
(10.0335 0.0391284 0)
(10.04 0.0405138 0)
(10.0461 0.0413739 0)
(10.0518 0.0418757 0)
(10.0571 0.0421179 0)
(10.0622 0.0421788 0)
(10.0671 0.0421153 0)
(10.0717 0.0419618 0)
(10.0762 0.0417303 0)
(10.0806 0.0414122 0)
(10.0848 0.0409689 0)
(10.089 0.0403464 0)
(9.99999 0.00385042 0)
(10.0015 0.0128008 0)
(10.006 0.0205221 0)
(10.012 0.026093 0)
(10.0183 0.03033 0)
(10.0248 0.0335322 0)
(10.0312 0.0357296 0)
(10.0374 0.0371539 0)
(10.0433 0.0380637 0)
(10.0489 0.0386138 0)
(10.0542 0.0388989 0)
(10.0593 0.0389902 0)
(10.0641 0.0389399 0)
(10.0688 0.0387781 0)
(10.0733 0.0385159 0)
(10.0776 0.0381452 0)
(10.0818 0.0376409 0)
(10.086 0.0369723 0)
(10.0001 0.00356369 0)
(10.0017 0.0111845 0)
(10.0056 0.0179027 0)
(10.0109 0.0229997 0)
(10.0167 0.0268903 0)
(10.0227 0.029853 0)
(10.0287 0.0319604 0)
(10.0347 0.033378 0)
(10.0404 0.0343056 0)
(10.0458 0.0348809 0)
(10.051 0.0351906 0)
(10.056 0.0352991 0)
(10.0608 0.0352521 0)
(10.0654 0.0350779 0)
(10.0699 0.0347868 0)
(10.0742 0.0343767 0)
(10.0783 0.033833 0)
(10.0823 0.0331469 0)
(10.0001 0.00314501 0)
(10.0017 0.00953149 0)
(10.0051 0.0152266 0)
(10.0098 0.0197295 0)
(10.015 0.0232046 0)
(10.0206 0.0258693 0)
(10.0262 0.0278169 0)
(10.0318 0.0291679 0)
(10.0372 0.03007 0)
(10.0425 0.0306379 0)
(10.0476 0.0309485 0)
(10.0525 0.0310572 0)
(10.0572 0.0310045 0)
(10.0617 0.0308155 0)
(10.066 0.0305033 0)
(10.0703 0.0300695 0)
(10.0743 0.0295122 0)
(10.0782 0.0288335 0)
(10.0002 0.00263867 0)
(10.0016 0.00784354 0)
(10.0045 0.012506 0)
(10.0086 0.0163091 0)
(10.0134 0.0192895 0)
(10.0184 0.0215908 0)
(10.0236 0.0233044 0)
(10.0289 0.0245199 0)
(10.034 0.0253424 0)
(10.0391 0.0258613 0)
(10.044 0.0261416 0)
(10.0487 0.026229 0)
(10.0533 0.0261589 0)
(10.0577 0.0259532 0)
(10.0619 0.0256267 0)
(10.066 0.0251861 0)
(10.0699 0.0246358 0)
(10.0737 0.0239878 0)
(10.0001 0.00207818 0)
(10.0014 0.00611741 0)
(10.004 0.00973962 0)
(10.0076 0.0127566 0)
(10.0119 0.0151567 0)
(10.0165 0.0170216 0)
(10.0213 0.0184243 0)
(10.0261 0.0194311 0)
(10.031 0.0201133 0)
(10.0358 0.0205364 0)
(10.0405 0.0207501 0)
(10.045 0.0207921 0)
(10.0494 0.0206897 0)
(10.0537 0.020464 0)
(10.0578 0.020128 0)
(10.0617 0.019693 0)
(10.0654 0.0191654 0)
(10.069 0.0185627 0)
(10.0001 0.00148377 0)
(10.0013 0.00434641 0)
(10.0035 0.00690889 0)
(10.0067 0.00906554 0)
(10.0106 0.0107967 0)
(10.0148 0.0121445 0)
(10.0192 0.0131579 0)
(10.0237 0.0138813 0)
(10.0283 0.0143604 0)
(10.0328 0.0146377 0)
(10.0373 0.0147482 0)
(10.0416 0.0147187 0)
(10.0459 0.0145699 0)
(10.0499 0.0143181 0)
(10.0538 0.0139757 0)
(10.0576 0.013553 0)
(10.0612 0.0130585 0)
(10.0646 0.0125086 0)
(10.0001 0.000862639 0)
(10.0011 0.00251463 0)
(10.0032 0.00397585 0)
(10.0061 0.00519643 0)
(10.0096 0.0061671 0)
(10.0134 0.00691112 0)
(10.0176 0.00745384 0)
(10.0218 0.00781993 0)
(10.0262 0.0080325 0)
(10.0305 0.00811476 0)
(10.0347 0.0080849 0)
(10.0389 0.00795885 0)
(10.0429 0.00774831 0)
(10.0468 0.00746424 0)
(10.0505 0.00711478 0)
(10.0541 0.00670832 0)
(10.0576 0.00625127 0)
(10.0609 0.00575782 0)
(10.0001 0.000250336 0)
(10.0011 0.000709536 0)
(10.0029 0.00106911 0)
(10.0057 0.00132534 0)
(10.009 0.0014946 0)
(10.0127 0.00159176 0)
(10.0166 0.0016232 0)
(10.0207 0.00159297 0)
(10.0249 0.00150676 0)
(10.0291 0.00136792 0)
(10.0332 0.00118008 0)
(10.0372 0.000945265 0)
(10.0411 0.000667169 0)
(10.0448 0.00034814 0)
(10.0485 -7.67761e-06 0)
(10.0519 -0.00039736 0)
(10.0552 -0.000816391 0)
(10.0584 -0.00125588 0)
(10.0001 -0.000292641 0)
(10.001 -0.000909293 0)
(10.0028 -0.00157862 0)
(10.0055 -0.00224008 0)
(10.0088 -0.00283271 0)
(10.0124 -0.00334719 0)
(10.0164 -0.0037982 0)
(10.0205 -0.00419893 0)
(10.0246 -0.00456144 0)
(10.0287 -0.00490047 0)
(10.0327 -0.00522881 0)
(10.0367 -0.0055564 0)
(10.0405 -0.00588949 0)
(10.0442 -0.00623272 0)
(10.0477 -0.00658828 0)
(10.0511 -0.00695721 0)
(10.0544 -0.00733905 0)
(10.0574 -0.00772827 0)
(10.0001 -0.000736779 0)
(10.0009 -0.00229526 0)
(10.0027 -0.0039332 0)
(10.0054 -0.00545587 0)
(10.0088 -0.00674023 0)
(10.0126 -0.00780015 0)
(10.0166 -0.00867473 0)
(10.0207 -0.00938912 0)
(10.0249 -0.00997533 0)
(10.029 -0.010469 0)
(10.0331 -0.0109009 0)
(10.037 -0.0112913 0)
(10.0408 -0.0116565 0)
(10.0444 -0.0120068 0)
(10.0479 -0.012351 0)
(10.0513 -0.012693 0)
(10.0545 -0.0130363 0)
(10.0575 -0.0133779 0)
(10.0001 -0.0010486 0)
(10.0007 -0.00345777 0)
(10.0024 -0.00609535 0)
(10.0052 -0.00845616 0)
(10.0088 -0.0103626 0)
(10.0128 -0.0119064 0)
(10.017 -0.0131482 0)
(10.0213 -0.0141178 0)
(10.0255 -0.0148709 0)
(10.0297 -0.0154721 0)
(10.0338 -0.0159679 0)
(10.0377 -0.0163909 0)
(10.0415 -0.0167638 0)
(10.0451 -0.0171052 0)
(10.0486 -0.0174261 0)
(10.0519 -0.0177356 0)
(10.0551 -0.0180376 0)
(10.058 -0.0183332 0)
(9.99996 -0.00113491 0)
(10.0002 -0.00433587 0)
(10.0017 -0.00810792 0)
(10.0048 -0.0113149 0)
(10.0087 -0.0137882 0)
(10.0129 -0.0157625 0)
(10.0173 -0.0173081 0)
(10.0217 -0.0184641 0)
(10.0261 -0.0193274 0)
(10.0304 -0.0199917 0)
(10.0345 -0.0205177 0)
(10.0385 -0.020946 0)
(10.0423 -0.0213079 0)
(10.0459 -0.0216263 0)
(10.0494 -0.0219166 0)
(10.0527 -0.0221885 0)
(10.0558 -0.0224485 0)
(10.0588 -0.0226978 0)
(9.99973 -0.000881264 0)
(9.99903 -0.00491226 0)
(10.0004 -0.00993931 0)
(10.0038 -0.0139467 0)
(10.008 -0.0169985 0)
(10.0125 -0.0194235 0)
(10.0171 -0.0212284 0)
(10.0219 -0.022501 0)
(10.0265 -0.0234191 0)
(10.0309 -0.0241088 0)
(10.0351 -0.0246366 0)
(10.0392 -0.0250486 0)
(10.043 -0.0253834 0)
(10.0467 -0.0256675 0)
(10.0502 -0.0259186 0)
(10.0535 -0.026147 0)
(10.0566 -0.0263602 0)
(10.0595 -0.0265601 0)
(9.99932 -9.24865e-05 0)
(9.99699 -0.00565259 0)
(9.99796 -0.0119347 0)
(10.0019 -0.0163276 0)
(10.0065 -0.0198938 0)
(10.0114 -0.022855 0)
(10.0165 -0.0249416 0)
(10.0217 -0.0263064 0)
(10.0266 -0.0272476 0)
(10.0313 -0.027931 0)
(10.0358 -0.0284295 0)
(10.0399 -0.0287972 0)
(10.0439 -0.0290792 0)
(10.0476 -0.0293067 0)
(10.0511 -0.0294981 0)
(10.0543 -0.0296651 0)
(10.0574 -0.0298146 0)
(10.0602 -0.0299494 0)
(9.99838 0.00271492 0)
(9.99302 -0.00660055 0)
(9.99411 -0.0150606 0)
(9.99883 -0.0194137 0)
(10.004 -0.0230595 0)
(10.0098 -0.0263016 0)
(10.0159 -0.0285445 0)
(10.0218 -0.0299512 0)
(10.0273 -0.0308833 0)
(10.0323 -0.0315222 0)
(10.0369 -0.0319485 0)
(10.0412 -0.0322279 0)
(10.0451 -0.0324147 0)
(10.0487 -0.0325438 0)
(10.052 -0.0326366 0)
(10.055 -0.0327059 0)
(10.0577 -0.0327597 0)
(10.0602 -0.0328001 0)
(9.9948 0.0117063 0)
(9.98398 -0.00243605 0)
(9.98788 -0.0165722 0)
(9.99562 -0.0235016 0)
(10.0024 -0.027854 0)
(10.0094 -0.030862 0)
(10.0168 -0.0326564 0)
(10.0235 -0.0337168 0)
(10.0294 -0.0343984 0)
(10.0345 -0.0348206 0)
(10.039 -0.0350448 0)
(10.0429 -0.0351345 0)
(10.0463 -0.0351424 0)
(10.0492 -0.0351006 0)
(10.0516 -0.0350297 0)
(10.0537 -0.0349423 0)
(10.0555 -0.0348463 0)
(10.057 -0.0347405 0)
(9.98614 0.0192847 0)
(9.96851 0.0104576 0)
(9.97865 -0.00620113 0)
(9.99325 -0.0211737 0)
(10.0041 -0.031326 0)
(10.0135 -0.0362498 0)
(10.0219 -0.0380358 0)
(10.0287 -0.0385814 0)
(10.0339 -0.0386637 0)
(10.0378 -0.0384885 0)
(10.0407 -0.03816 0)
(10.0426 -0.0377638 0)
(10.0438 -0.0373541 0)
(10.0443 -0.0369526 0)
(10.0442 -0.0365736 0)
(10.0438 -0.0362201 0)
(10.043 -0.0358934 0)
(10.0419 -0.0355668 0)
(9.9825 -0.0284729 0)
(9.9667 -0.0158102 0)
(9.97838 0.00539109 0)
(9.99623 0.00151365 0)
(10.0118 -0.0124035 0)
(10.0242 -0.0231851 0)
(10.0324 -0.0293759 0)
(10.0362 -0.0328175 0)
(10.0366 -0.0346583 0)
(10.0348 -0.0354384 0)
(10.0312 -0.0355418 0)
(10.0263 -0.035265 0)
(10.0205 -0.0347998 0)
(10.0141 -0.0342528 0)
(10.0073 -0.0336929 0)
(10.0003 -0.0331593 0)
(9.99322 -0.0326916 0)
(9.98608 -0.0321974 0)
(10.0402 -0.268434 0)
(10.0649 -0.380249 0)
(10.0585 -0.290525 0)
(10.0477 -0.195517 0)
(10.0441 -0.134753 0)
(10.0408 -0.0978082 0)
(10.031 -0.0747362 0)
(10.0144 -0.0602455 0)
(9.99348 -0.0510036 0)
(9.9705 -0.0448362 0)
(9.94671 -0.0404948 0)
(9.92285 -0.0372892 0)
(9.8994 -0.0348292 0)
(9.87665 -0.0328691 0)
(9.85478 -0.0312724 0)
(9.83383 -0.0299709 0)
(9.81402 -0.028963 0)
(9.79541 -0.0285146 0)
(9.95041 1.23574 0)
(10.0232 1.00364 0)
(10.0066 0.565907 0)
(9.90338 0.285763 0)
(9.77701 0.135888 0)
(9.65834 0.0612752 0)
(9.55346 0.0253949 0)
(9.46198 0.00835173 0)
(9.38258 0.00027768 0)
(9.31348 -0.0035132 0)
(9.25266 -0.0052513 0)
(9.19854 -0.00602461 0)
(9.14984 -0.00635482 0)
(9.10572 -0.00649967 0)
(9.06539 -0.00657154 0)
(9.02832 -0.00666361 0)
(8.99377 -0.00682975 0)
(8.96121 -0.00746318 0)
(0.00450901 -0.010517 0)
(0.015956 -0.0172566 0)
(0.0262355 -0.0153182 0)
(0.0329818 -0.00949738 0)
(0.0352656 -0.00256623 0)
(0.0327519 0.00381464 0)
(0.0265049 0.00878489 -3.79884e-19)
(0.0173763 0.0122268 3.56304e-19)
(0.00607548 0.0144202 0)
(-0.00685255 0.0157705 2.92462e-19)
(-0.0210692 0.0166634 0)
(-0.0364023 0.0173732 0)
(-0.0527483 0.0180354 0)
(-0.070051 0.0187056 -1.60725e-19)
(-0.0882749 0.0193903 0)
(-0.107392 0.0200843 0)
(-0.127371 0.0207731 1.17531e-19)
(-0.148185 0.0214475 0)
(-0.169798 0.0221009 0)
(-0.192174 0.0227232 0)
(-0.215271 0.0233134 -8.73172e-20)
(-0.239047 0.023865 0)
(-0.263459 0.0243911 -7.81437e-20)
(-0.288459 0.0248807 0)
(-0.314016 0.0253525 0)
(-0.340079 0.0257836 -6.88372e-20)
(-0.36665 0.0261761 0)
(-0.393704 0.0265054 6.49244e-20)
(-0.421271 0.026834 0)
(-0.449404 0.0273866 -6.2482e-20)
(-0.478394 0.0283726 0)
(-0.50871 0.0301035 0)
(-0.54045 0.0330887 0)
(-0.572699 0.0316315 0)
(-0.605295 0.0241633 0)
(-0.63622 0.0266784 5.50119e-20)
(-0.668829 0.0418271 0)
(-0.706261 0.0595318 -1.02451e-19)
(-0.745951 0.0827494 0)
(-0.789901 0.0676359 1.30506e-19)
(-0.836161 0.0422691 0)
(-0.874537 0.0417415 0)
(-0.915875 0.0255099 -1.2619e-19)
(-0.953368 0.0261064 0)
(-0.991499 0.0349068 -1.19213e-19)
(-1.03342 0.0357701 1.15744e-19)
(-1.07516 0.0359834 0)
(-1.11704 0.0358992 1.09224e-19)
(-1.15896 0.0357466 1.06239e-19)
(-1.20087 0.0355059 0)
(-1.24271 0.035208 0)
(-1.28442 0.0348656 0)
(-1.32595 0.0344947 0)
(-1.3673 0.0341042 0)
(-1.40843 0.0336997 -9.17538e-20)
(-1.44932 0.0332849 0)
(-1.48995 0.0328604 8.79517e-20)
(-1.53032 0.0324275 0)
(-1.5704 0.0319846 0)
(-1.61018 0.031532 -8.29398e-20)
(-1.64962 0.0310673 0)
(-1.68873 0.0305905 7.99761e-20)
(-1.72745 0.0300988 0)
(-1.76579 0.0295923 0)
(-1.80369 0.0290683 0)
(-1.84114 0.028527 -7.47525e-20)
(-1.8781 0.0279659 0)
(-1.91454 0.0273853 0)
(-1.95042 0.0267834 -7.13142e-20)
(-1.98571 0.0261605 0)
(-2.02036 0.0255151 -6.91965e-20)
(-2.05435 0.024848 0)
(-2.08762 0.0241581 0)
(-2.12015 0.0234462 0)
(-2.15188 0.0227119 6.52764e-20)
(-2.18278 0.0219558 0)
(-2.21281 0.0211781 0)
(-2.24192 0.0203793 6.25336e-20)
(-2.27007 0.0195597 6.16453e-20)
(-2.29722 0.01872 0)
(-2.32332 0.0178605 5.98944e-20)
(-2.34835 0.0169819 0)
(-2.37225 0.0160844 1.16331e-19)
(-2.395 0.0151682 0)
(-2.41653 0.014233 1.1289e-19)
(-2.43682 0.0132779 0)
(-2.45583 0.0123007 -1.09439e-19)
(-2.47351 0.0112986 0)
(-2.48982 0.0102667 0)
(-2.50472 0.00920057 0)
(-2.51815 0.00809351 1.0241e-19)
(-2.53006 0.00693816 0)
(-2.54037 0.00572829 -9.87952e-20)
(-2.54902 0.00446292 0)
(-2.55592 0.00315647 9.51036e-20)
(-2.56099 0.00185984 9.32287e-20)
(-2.56412 0.000669589 9.13212e-20)
(-2.56534 -0.000348666 0)
(-2.5651 -0.00126154 0)
(-2.56332 -0.0021496 0)
(-2.56006 -0.00302545 0)
(-2.55529 -0.00389572 0)
(-2.54902 -0.00476105 0)
(-2.54124 -0.00562125 0)
(-2.53195 -0.00647577 0)
(-2.52113 -0.00732347 -7.17054e-20)
(-2.5088 -0.00816376 -6.92294e-20)
(-2.49494 -0.00899521 0)
(-2.47956 -0.00981734 0)
(-2.46267 -0.0106286 0)
(-2.44428 -0.0114285 -5.86111e-20)
(-2.42439 -0.0122155 0)
(-2.40301 -0.0129894 0)
(-2.38016 -0.0137482 0)
(-2.35586 -0.0144921 0)
(-2.33012 -0.015219 4.3534e-20)
(-2.30296 -0.0159294 0)
(-2.27441 -0.016621 0)
(-2.24449 -0.0172946 -3.33969e-20)
(-2.21323 -0.0179477 2.98197e-20)
(-2.18065 -0.0185816 0)
(-2.14679 -0.0191937 2.23505e-20)
(-2.11167 -0.0197856 0)
(-2.07533 -0.0203547 -1.44415e-20)
(-2.03781 -0.0209032 0)
(-1.99915 -0.0214287 0)
(-1.95936 -0.0219339 0)
(-1.91851 -0.0224162 0)
(-1.87662 -0.0228793 0)
(-1.83372 -0.0233206 -2.43993e-20)
(-1.78986 -0.0237402 -3.42144e-20)
(-1.74507 -0.024138 0)
(-1.6994 -0.0245174 0)
(-1.65288 -0.0248791 0)
(-1.60555 -0.0252233 7.65546e-20)
(-1.55745 -0.0255477 0)
(-1.50861 -0.0258563 0)
(-1.45908 -0.0261493 0)
(-1.40889 -0.0264303 1.24546e-19)
(-1.35807 -0.0266985 -1.37566e-19)
(-1.30666 -0.026954 0)
(-1.25468 -0.027195 0)
(-1.20218 -0.0274224 -1.79463e-19)
(-1.1492 -0.0276376 -1.94479e-19)
(-1.09577 -0.0278413 0)
(-1.04192 -0.028035 0)
(-0.987705 -0.0282199 2.43246e-19)
(-0.933142 -0.0283998 -2.60911e-19)
(-0.878268 -0.0285782 0)
(-0.823103 -0.0287593 0)
(-0.767661 -0.0289449 -3.18924e-19)
(-0.711958 -0.029134 0)
(-0.656015 -0.0293273 0)
(-0.599852 -0.0295245 -3.85968e-19)
(-0.54349 -0.0297279 0)
(-0.486945 -0.0299377 -4.36921e-19)
(-0.430236 -0.0301562 0)
(-0.373377 -0.030383 0)
(-0.316387 -0.0306191 0)
(-0.25928 -0.0308637 5.58575e-19)
(-0.202074 -0.0311231 0)
(-0.144784 -0.0314155 0)
(-0.0874372 -0.0317364 0)
(-0.0300719 -0.0320028 0)
(0.0272051 -0.0317499 0)
(0.084404 -0.0309778 0)
(0.141611 -0.0301856 6.97962e-19)
(0.198795 -0.0294498 6.81925e-19)
(0.255962 -0.0287651 0)
(0.313128 -0.0281187 0)
(0.370296 -0.0274985 0)
(0.427441 -0.0268892 -6.27546e-19)
(0.484507 -0.0262711 0)
(0.541369 -0.0256125 1.20995e-18)
(0.597841 -0.0248564 -1.18957e-18)
(0.653339 -0.0238937 -1.17099e-18)
(0.707575 -0.0224616 1.15502e-18)
(0.755935 -0.0199364 -1.14351e-18)
(0.803952 -0.0149112 1.14263e-18)
(0.801536 0.00174316 0)
(0.00470099 -0.0324282 0)
(0.0107813 -0.0336016 0)
(0.0111313 -0.021432 4.73002e-19)
(0.00845181 -0.00804119 0)
(0.00329495 0.00473325 -3.1847e-19)
(-0.00399402 0.0160005 -2.87687e-19)
(-0.0134211 0.0252891 -1.31654e-19)
(-0.0248946 0.0325758 -1.21555e-19)
(-0.0382933 0.0381493 0)
(-0.0534237 0.0424365 -1.03438e-19)
(-0.0700634 0.0458584 0)
(-0.0880332 0.0487419 0)
(-0.107207 0.0512973 1.62726e-19)
(-0.127493 0.0536401 7.56242e-20)
(-0.148827 0.0558267 -1.40973e-19)
(-0.171168 0.0578802 -1.32071e-19)
(-0.194486 0.0598083 -6.21981e-20)
(-0.218764 0.061613 0)
(-0.243991 0.0632937 0)
(-0.270162 0.0648507 0)
(-0.297278 0.0662844 -5.07651e-20)
(-0.325349 0.0675991 0)
(-0.354398 0.0688018 1.41229e-19)
(-0.384459 0.0699038 0)
(-0.415581 0.0709258 0)
(-0.447832 0.0719035 4.3217e-20)
(-0.481289 0.0728951 0)
(-0.516046 0.0739802 -4.16506e-20)
(-0.552218 0.0752132 -8.22629e-20)
(-0.589861 0.0766451 4.09549e-20)
(-0.628927 0.0782829 0)
(-0.669142 0.0800929 0)
(-0.709737 0.0819944 0)
(-0.751419 0.0835833 -8.09943e-20)
(-0.794673 0.0847908 -7.91633e-20)
(-0.840121 0.0856161 -3.91434e-20)
(-0.885254 0.0867113 0)
(-0.928071 0.0878614 7.37656e-20)
(-0.968327 0.0891308 0)
(-1.00987 0.0893734 -7.48236e-20)
(-1.04991 0.0898784 0)
(-1.09129 0.0916689 0)
(-1.13277 0.0919246 6.78163e-20)
(-1.17462 0.0921984 0)
(-1.21563 0.0924163 1.93641e-19)
(-1.25488 0.0921404 -6.31501e-20)
(-1.29354 0.0915459 0)
(-1.33171 0.0907361 -6.04863e-20)
(-1.36943 0.0897776 -5.9265e-20)
(-1.40674 0.0887191 0)
(-1.44367 0.087589 0)
(-1.48025 0.0864105 0)
(-1.51648 0.0851979 0)
(-1.55236 0.0839619 0)
(-1.5879 0.0827072 5.30998e-20)
(-1.62308 0.0814372 1.04178e-19)
(-1.6579 0.0801514 -5.13885e-20)
(-1.69235 0.0788497 0)
(-1.72641 0.0775289 9.93414e-20)
(-1.76007 0.0761876 -4.87883e-20)
(-1.7933 0.0748216 0)
(-1.8261 0.0734294 -4.76302e-20)
(-1.85843 0.072007 0)
(-1.89027 0.0705528 0)
(-1.9216 0.0690634 -9.10356e-20)
(-1.95239 0.0675377 4.50147e-20)
(-1.98262 0.0659729 -8.85595e-20)
(-2.01225 0.0643683 8.73619e-20)
(-2.04126 0.0627219 4.32091e-20)
(-2.06961 0.0610337 0)
(-2.09727 0.0593024 4.20583e-20)
(-2.12422 0.0575286 0)
(-2.15042 0.0557118 0)
(-2.17583 0.0538532 0)
(-2.20043 0.051953 3.96519e-20)
(-2.22418 0.0500125 0)
(-2.24705 0.0480329 7.73398e-20)
(-2.26901 0.0460157 -1.14485e-19)
(-2.29002 0.0439623 -3.76766e-20)
(-2.31005 0.0418745 0)
(-2.32907 0.0397538 -3.65951e-20)
(-2.34705 0.0376022 0)
(-2.36395 0.0354212 -7.10086e-20)
(-2.37975 0.0332129 0)
(-2.39442 0.0309792 -6.87953e-20)
(-2.40793 0.0287219 1.35185e-19)
(-2.42024 0.0264418 6.65381e-20)
(-2.43134 0.0241393 0)
(-2.4412 0.0218135 0)
(-2.4498 0.0194638 0)
(-2.45713 0.017089 -6.18469e-20)
(-2.46316 0.0146865 0)
(-2.46791 0.0122533 5.93956e-20)
(-2.4714 0.00978748 0)
(-2.47366 0.00729432 -1.70679e-19)
(-2.47478 0.00480463 -5.55797e-20)
(-2.47485 0.00239302 -5.42428e-20)
(-2.4739 0.000128062 0)
(-2.47156 -0.00202941 0)
(-2.4678 -0.00414373 0)
(-2.4626 -0.00622691 0)
(-2.45592 -0.00828588 0)
(-2.44777 -0.0103209 -9.15836e-20)
(-2.43813 -0.0123305 -8.85624e-20)
(-2.427 -0.0143129 0)
(-2.41438 -0.0162654 4.09965e-20)
(-2.40026 -0.0181859 3.93846e-20)
(-2.38464 -0.0200716 0)
(-2.36753 -0.0219205 7.25814e-20)
(-2.34893 -0.0237297 0)
(-2.32885 -0.0254974 -3.31308e-20)
(-2.3073 -0.0272209 0)
(-2.28428 -0.0288986 0)
(-2.25982 -0.0305279 5.50701e-20)
(-2.23393 -0.0321075 0)
(-2.20662 -0.033635 -2.34967e-20)
(-2.17792 -0.0351095 0)
(-2.14786 -0.0365286 0)
(-2.11644 -0.0378922 -1.83481e-20)
(-2.08371 -0.0391976 -1.56287e-20)
(-2.04969 -0.0404454 0)
(-2.0144 -0.0416331 1.229e-20)
(-1.97788 -0.0427615 0)
(-1.94017 -0.0438284 -8.10305e-21)
(-1.90129 -0.0448355 -1.10977e-20)
(-1.86128 -0.0457811 0)
(-1.82019 -0.0466679 0)
(-1.77804 -0.0474957 0)
(-1.73487 -0.0482673 0)
(-1.69072 -0.0489827 1.20617e-20)
(-1.64562 -0.049644 4.81355e-20)
(-1.59962 -0.0502474 0)
(-1.55275 -0.0507918 0)
(-1.50504 -0.0512846 0)
(-1.45654 -0.0517335 -3.55314e-20)
(-1.40727 -0.0521329 0)
(-1.35729 -0.0524827 0)
(-1.30661 -0.0527861 9.81888e-20)
(-1.25529 -0.0530481 5.3004e-20)
(-1.20335 -0.05327 6.00103e-20)
(-1.15083 -0.0534523 0)
(-1.09775 -0.0535936 0)
(-1.04416 -0.0536945 7.51356e-20)
(-0.99008 -0.0537568 -7.81537e-20)
(-0.935549 -0.0537826 0)
(-0.880594 -0.053774 0)
(-0.825245 -0.0537331 -9.58195e-20)
(-0.769533 -0.0536633 3.01165e-19)
(-0.713489 -0.0535703 0)
(-0.657137 -0.053459 0)
(-0.600501 -0.0533335 1.1721e-19)
(-0.5436 -0.0531932 0)
(-0.486454 -0.0530392 2.54251e-19)
(-0.429084 -0.0528712 -1.31622e-19)
(-0.371509 -0.0526918 0)
(-0.313747 -0.0525018 1.45055e-19)
(-0.255814 -0.0523034 2.99414e-19)
(-0.197726 -0.0520965 0)
(-0.139499 -0.0518824 0)
(-0.0811486 -0.0516596 -1.68284e-19)
(-0.0226923 -0.0514276 0)
(0.0358462 -0.0511773 3.53184e-19)
(0.094466 -0.0509096 0)
(0.153206 -0.0506153 0)
(0.212056 -0.0501612 0)
(0.270929 -0.0495371 0)
(0.329811 -0.0488932 -1.85593e-19)
(0.388726 -0.0482762 -1.8716e-19)
(0.447676 -0.0476877 0)
(0.506658 -0.0471167 0)
(0.565661 -0.046547 0)
(0.624654 -0.0459562 1.92562e-19)
(0.683574 -0.0453102 0)
(0.742298 -0.0445518 -3.89588e-19)
(0.800631 -0.0435724 3.91685e-19)
(0.858091 -0.0421691 3.93803e-19)
(0.914287 -0.0398359 3.93217e-19)
(0.966404 -0.0356355 3.99203e-19)
(1.01749 -0.0264545 4.02015e-19)
(1.04588 -0.00392153 0)
(0.000347372 -0.0411944 0)
(-0.00173811 -0.0289357 0)
(-0.00782594 -0.0102222 -3.20124e-19)
(-0.0159076 0.00714241 -2.31519e-19)
(-0.0255209 0.0228488 1.90644e-19)
(-0.0363524 0.036815 1.68238e-19)
(-0.0483839 0.0489427 5.00102e-23)
(-0.0617083 0.0592177 0)
(-0.0764103 0.0677846 0)
(-0.0925145 0.0749193 0)
(-0.109985 0.0809468 0)
(-0.128753 0.0861673 0)
(-0.148738 0.0908193 -3.22158e-19)
(-0.169871 0.0950705 0)
(-0.192093 0.0990291 9.689e-20)
(-0.215366 0.102761 9.23419e-20)
(-0.239665 0.106306 0)
(-0.264977 0.109688 0)
(-0.291297 0.112928 0)
(-0.31863 0.116043 0)
(-0.346986 0.119053 7.55436e-20)
(-0.376379 0.121982 0)
(-0.406832 0.124862 -7.1039e-20)
(-0.438368 0.127731 0)
(-0.47101 0.130633 0)
(-0.504774 0.133616 0)
(-0.539666 0.136728 -1.29918e-19)
(-0.575651 0.14001 0)
(-0.612632 0.143466 6.30403e-20)
(-0.65046 0.147034 -1.24327e-19)
(-0.688933 0.15056 0)
(-0.727753 0.153798 0)
(-0.766553 0.156397 0)
(-0.805272 0.157865 5.77734e-20)
(-0.8441 0.158381 5.61673e-20)
(-0.883187 0.159129 0)
(-0.921523 0.159988 0)
(-0.958383 0.160955 -1.04295e-19)
(-0.993821 0.161456 -1.02271e-19)
(-1.02886 0.160392 1.00773e-19)
(-1.06381 0.15786 0)
(-1.09862 0.155063 0)
(-1.13359 0.151832 0)
(-1.16886 0.149399 0)
(-1.20361 0.147523 -8.91603e-20)
(-1.2376 0.145564 -8.72018e-20)
(-1.27117 0.143582 8.54321e-20)
(-1.30441 0.141589 0)
(-1.33737 0.139583 0)
(-1.37007 0.137563 0)
(-1.40253 0.135528 0)
(-1.43475 0.133479 -7.78137e-20)
(-1.46673 0.131417 0)
(-1.49849 0.129343 0)
(-1.53001 0.127256 -7.39842e-20)
(-1.56128 0.125154 -7.29558e-20)
(-1.5923 0.123032 0)
(-1.62305 0.120886 1.41123e-19)
(-1.65351 0.118713 -6.96498e-20)
(-1.68366 0.116507 6.86156e-20)
(-1.71349 0.114263 0)
(-1.74298 0.111977 0)
(-1.7721 0.109645 0)
(-1.80082 0.107263 0)
(-1.82913 0.104827 6.38389e-20)
(-1.85699 0.102335 1.25604e-19)
(-1.88438 0.0997835 6.20719e-20)
(-1.91126 0.0971714 -6.12117e-20)
(-1.93761 0.094497 0)
(-1.96339 0.0917595 1.18792e-19)
(-1.98858 0.0889583 1.17149e-19)
(-2.01314 0.0860939 1.15523e-19)
(-2.03704 0.0831665 -1.13912e-19)
(-2.06025 0.0801774 0)
(-2.08272 0.0771278 -1.66195e-19)
(-2.10444 0.0740197 0)
(-2.12536 0.070855 5.36794e-20)
(-2.14545 0.0676363 5.30863e-20)
(-2.16468 0.064366 0)
(-2.18302 0.061047 0)
(-2.20043 0.0576823 1.01237e-19)
(-2.21689 0.0542748 0)
(-2.23235 0.0508277 9.8039e-20)
(-2.24679 0.0473443 0)
(-2.26018 0.043828 -9.4796e-20)
(-2.2725 0.0402823 -1.86391e-19)
(-2.28371 0.0367104 0)
(-2.29379 0.0331153 0)
(-2.30272 0.0295004 0)
(-2.31049 0.0258702 -8.63987e-20)
(-2.31707 0.0222304 0)
(-2.32246 0.0185886 -8.28946e-20)
(-2.32665 0.0149555 0)
(-2.32963 0.0113466 0)
(-2.33143 0.00778236 1.54882e-19)
(-2.33201 0.00428291 0)
(-2.33135 0.000849098 7.36431e-20)
(-2.32939 -0.00254951 0)
(-2.32606 -0.00592809 6.96857e-20)
(-2.32136 -0.0092775 0)
(-2.31525 -0.0125937 0)
(-2.30772 -0.015874 0)
(-2.29876 -0.0191148 1.84082e-19)
(-2.28836 -0.0223125 5.90731e-20)
(-2.27652 -0.0254629 0)
(-2.26323 -0.0285624 0)
(-2.24849 -0.0316064 0)
(-2.23229 -0.0345914 0)
(-2.21465 -0.0375129 -4.78181e-20)
(-2.19556 -0.0403676 9.15808e-20)
(-2.17504 -0.0431513 4.30986e-20)
(-2.15308 -0.0458607 -8.20862e-20)
(-2.12971 -0.048492 -7.72474e-20)
(-2.10494 -0.0510425 -3.57917e-20)
(-2.07877 -0.0535086 0)
(-2.05124 -0.055888 -6.23769e-20)
(-2.02235 -0.0581778 0)
(-1.99214 -0.060376 5.21827e-20)
(-1.96061 -0.0624802 2.30463e-20)
(-1.92781 -0.0644889 0)
(-1.89375 -0.0664004 -3.65085e-20)
(-1.85847 -0.0682135 -1.50995e-20)
(-1.82199 -0.0699271 0)
(-1.78435 -0.0715405 -1.07361e-20)
(-1.74558 -0.0730534 2.19686e-20)
(-1.70571 -0.0744661 0)
(-1.66478 -0.0757799 0)
(-1.62283 -0.0769966 0)
(-1.57989 -0.078119 0)
(-1.53599 -0.0791493 -1.25978e-20)
(-1.49118 -0.0800885 -1.93444e-20)
(-1.44548 -0.0809354 0)
(-1.39893 -0.0816899 0)
(-1.35157 -0.0823583 0)
(-1.30344 -0.0829483 0)
(-1.25456 -0.0834588 0)
(-1.20497 -0.0838893 0)
(-1.15472 -0.084244 -5.87341e-20)
(-1.10382 -0.0845282 -1.24823e-21)
(-1.05232 -0.0847446 0)
(-1.00025 -0.0848946 0)
(-0.947639 -0.0849784 -7.99329e-20)
(-0.894516 -0.0849972 0)
(-0.840912 -0.0849536 9.23624e-20)
(-0.786857 -0.0848504 9.66479e-20)
(-0.732378 -0.0846905 0)
(-0.677504 -0.0844771 0)
(-0.622262 -0.0842153 -1.14553e-19)
(-0.566681 -0.0839117 -2.37592e-19)
(-0.510789 -0.0835728 0)
(-0.45461 -0.0832032 0)
(-0.398164 -0.0828039 0)
(-0.341473 -0.0823766 -1.42107e-19)
(-0.284556 -0.0819219 1.47589e-19)
(-0.227432 -0.0814425 0)
(-0.170119 -0.0809401 3.14476e-19)
(-0.112632 -0.0804167 1.61403e-19)
(-0.0549886 -0.079873 -3.3624e-19)
(0.00279591 -0.0793108 0)
(0.0607068 -0.07873 0)
(0.118736 -0.078131 -3.59232e-19)
(0.176876 -0.0775107 -1.83751e-19)
(0.235114 -0.0768728 0)
(0.293459 -0.076218 0)
(0.351923 -0.0755394 0)
(0.410489 -0.0748388 0)
(0.469142 -0.0741365 -3.92442e-19)
(0.527877 -0.0734513 0)
(0.586678 -0.0727818 0)
(0.645533 -0.0721157 0)
(0.704423 -0.0714321 0)
(0.763311 -0.0707002 0)
(0.822134 -0.0698694 0)
(0.880777 -0.0688549 -4.25666e-19)
(0.939059 -0.0675014 0)
(0.996582 -0.0655183 0)
(1.05306 -0.0622903 -8.78459e-19)
(1.10661 -0.0566329 4.43156e-19)
(1.16018 -0.0457162 -4.51949e-19)
(1.2015 -0.0224614 4.61089e-19)
(-0.00463173 -0.0334349 0)
(-0.0124914 -0.0118681 9.02173e-19)
(-0.0226187 0.0103287 0)
(-0.0343383 0.0298452 1.75887e-19)
(-0.0470914 0.0473354 0)
(-0.0605394 0.063045 0)
(-0.0747187 0.0770357 -1.16557e-19)
(-0.0897636 0.0893459 0)
(-0.105797 0.100079 0)
(-0.122906 0.109421 0)
(-0.14113 0.117606 0)
(-0.160474 0.124876 0)
(-0.180915 0.131448 3.36925e-19)
(-0.202419 0.137492 1.61098e-19)
(-0.224953 0.143136 -1.54342e-19)
(-0.248488 0.148468 0)
(-0.273001 0.153551 0)
(-0.298478 0.158426 0)
(-0.324906 0.163127 0)
(-0.352276 0.16768 0)
(-0.380579 0.172111 1.24392e-19)
(-0.4098 0.176445 1.20822e-19)
(-0.439921 0.180707 -1.17564e-19)
(-0.470909 0.184919 1.14596e-19)
(-0.502715 0.189098 0)
(-0.535268 0.193246 0)
(-0.568467 0.19734 1.07103e-19)
(-0.602175 0.201317 0)
(-0.636223 0.205072 0)
(-0.670427 0.208466 1.00945e-19)
(-0.704602 0.211326 9.88962e-20)
(-0.738583 0.213478 9.67276e-20)
(-0.77225 0.214769 0)
(-0.805595 0.215119 0)
(-0.838681 0.214741 -8.91416e-20)
(-0.871492 0.214113 0)
(-0.903787 0.213382 0)
(-0.935406 0.212497 8.22925e-20)
(-0.966421 0.211182 -8.04965e-20)
(-0.997097 0.209155 7.88147e-20)
(-1.02767 0.206545 0)
(-1.05823 0.203618 0)
(-1.08883 0.200466 1.47295e-19)
(-1.11941 0.197505 0)
(-1.14976 0.194737 1.41174e-19)
(-1.17984 0.191994 2.07509e-19)
(-1.20972 0.189267 -2.03437e-19)
(-1.23943 0.186558 1.33019e-19)
(-1.269 0.183867 0)
(-1.29843 0.181189 0)
(-1.32771 0.178516 1.25946e-19)
(-1.35686 0.175844 6.19461e-20)
(-1.38585 0.173166 0)
(-1.4147 0.170476 0)
(-1.44338 0.167768 5.89544e-20)
(-1.47189 0.165038 1.15929e-19)
(-1.50021 0.162276 0)
(-1.52833 0.159478 -1.12521e-19)
(-1.55623 0.156636 1.10705e-19)
(-1.58388 0.153744 -1.09066e-19)
(-1.61128 0.150796 0)
(-1.63838 0.147785 0)
(-1.66518 0.144706 0)
(-1.69164 0.141554 0)
(-1.71773 0.138326 0)
(-1.74344 0.135017 -1.00162e-19)
(-1.76873 0.131624 0)
(-1.79357 0.128145 0)
(-1.81792 0.124579 0)