/*--------------------------------*- C++ -*----------------------------------*\
  =========                 |
  \\      /  F ield         | OpenFOAM: The Open Source CFD Toolbox
   \\    /   O peration     | Website:  https://openfoam.org
    \\  /    A nd           | Version:  8
     \\/     M anipulation  |
\*---------------------------------------------------------------------------*/
FoamFile
{
    version     2.0;
    format      ascii;
    class       volVectorField;
    location    "400";
    object      wallShearStress;
}
// * * * * * * * * * * * * * * * * * * * * * * * * * * * * * * * * * * * * * //

dimensions      [0 2 -2 0 0 0 0];

internalField   uniform (0 0 0);

boundaryField
{
    inlet
    {
        type            calculated;
        value           uniform (0 0 0);
    }
    outlet
    {
        type            calculated;
        value           uniform (0 0 0);
    }
    upperWall
    {
        type            calculated;
        value           nonuniform List<vector> 
223
(
(-0.439493 -0.0738906 0)
(-0.452037 -0.0601741 0)
(-0.451523 -0.0335844 0)
(-0.445967 -0.0165517 0)
(-0.439599 -0.00752407 0)
(-0.43387 -0.00309001 0)
(-0.42895 -0.000992159 0)
(-0.424737 -2.17062e-05 0)
(-0.421121 0.000416113 0)
(-0.417993 0.000604607 0)
(-0.415251 0.000677697 0)
(-0.412815 0.000699212 0)
(-0.410627 0.000698775 0)
(-0.408646 0.000690808 0)
(-0.406835 0.000681437 0)
(-0.405172 0.000676561 0)
(-0.403625 0.000679872 0)
(-0.402172 0.000724583 0)
(-0.401075 0.000806803 0)
(-0.400321 0.000872824 3.60831e-22)
(-0.399576 0.000901804 0)
(-0.398853 0.000905679 0)
(-0.398151 0.000894504 0)
(-0.397472 0.000875104 3.72112e-22)
(-0.396818 0.00085182 0)
(-0.39619 0.000827462 0)
(-0.395585 0.000803812 0)
(-0.395001 0.000781713 -7.6538e-22)
(-0.394438 0.000761746 7.70633e-22)
(-0.393893 0.000743931 7.75884e-22)
(-0.393365 0.000728268 0)
(-0.392853 0.000714597 -7.86392e-22)
(-0.392356 0.000702674 0)
(-0.391872 0.000692307 7.96899e-22)
(-0.391401 0.000683344 8.02151e-22)
(-0.390942 0.000675625 -8.07408e-22)
(-0.390495 0.000669011 0)
(-0.390057 0.000663278 0)
(-0.38963 0.000658352 0)
(-0.389213 0.000654126 0)
(-0.388804 0.00065036 -8.33722e-22)
(-0.388404 0.00064715 0)
(-0.388012 0.00064431 0)
(-0.387627 0.0006417 8.49539e-22)
(-0.38725 0.000639387 0)
(-0.386879 0.000637344 8.60098e-22)
(-0.386515 0.000635379 -8.65382e-22)
(-0.386157 0.000633493 8.70665e-22)
(-0.385804 0.000631742 0)
(-0.385457 0.000630165 0)
(-0.385115 0.000628659 0)
(-0.384777 0.000627167 8.91829e-22)
(-0.384443 0.000625789 -8.97123e-22)
(-0.384114 0.000624386 0)
(-0.383787 0.000622995 0)
(-0.383464 0.0006216 0)
(-0.383143 0.000620112 0)
(-0.382826 0.000618522 0)
(-0.382511 0.000616982 0)
(-0.382197 0.000615343 0)
(-0.381885 0.000613654 0)
(-0.381574 0.000611948 9.44577e-22)
(-0.381265 0.000610171 -9.49787e-22)
(-0.380957 0.000608502 0)
(-0.380648 0.000606784 0)
(-0.38034 0.000605225 0)
(-0.380031 0.00060368 -9.70316e-22)
(-0.379723 0.000602325 0)
(-0.379412 0.000601083 0)
(-0.379101 0.000599918 0)
(-0.378787 0.000598947 0)
(-0.378472 0.000598029 0)
(-0.378153 0.000597382 -1.99929e-21)
(-0.377832 0.000596838 0)
(-0.377506 0.000596688 0)
(-0.377176 0.000596621 0)
(-0.376842 0.00059709 0)
(-0.376501 0.000597742 0)
(-0.376154 0.000598852 0)
(-0.3758 0.000600335 0)
(-0.375437 0.000601804 2.06717e-21)
(-0.375066 0.000603711 0)
(-0.374684 0.000605536 0)
(-0.374291 0.000607773 0)
(-0.373885 0.000609939 -2.09409e-21)
(-0.373466 0.000612206 0)
(-0.373032 0.000614551 -2.1052e-21)
(-0.372581 0.000616821 0)
(-0.372113 0.000619231 0)
(-0.371627 0.000621565 0)
(-0.37112 0.000624276 -2.12135e-21)
(-0.370594 0.000627208 0)
(-0.370047 0.000630569 2.12581e-21)
(-0.36948 0.000634068 2.12704e-21)
(-0.36889 0.00063848 0)
(-0.368278 0.000642979 2.12723e-21)
(-0.367641 0.000648422 0)
(-0.366982 0.000653888 0)
(-0.366299 0.000659463 0)
(-0.365593 0.000666054 -2.11657e-21)
(-0.364863 0.000672029 0)
(-0.364108 0.000679139 -2.10486e-21)
(-0.363328 0.00068581 2.09716e-21)
(-0.362521 0.000693518 0)
(-0.361689 0.000700795 0)
(-0.360831 0.000707231 0)
(-0.359949 0.000715259 0)
(-0.359042 0.000722185 0)
(-0.358108 0.000730576 0)
(-0.357146 0.000740746 0)
(-0.356155 0.000749409 -1.98324e-21)
(-0.355136 0.00075583 0)
(-0.354093 0.000763406 0)
(-0.353024 0.000770843 0)
(-0.351929 0.000779342 0)
(-0.350806 0.000787906 0)
(-0.349656 0.000795701 0)
(-0.348474 0.000804259 0)
(-0.347259 0.000811374 0)
(-0.346012 0.000819219 0)
(-0.344728 0.0008271 0)
(-0.34342 0.000822636 0)
(-0.342084 0.000841099 0)
(-0.3407 0.000884897 -3.07177e-21)
(-0.339265 0.000885731 0)
(-0.337793 0.000858446 0)
(-0.336273 0.000840731 0)
(-0.334718 0.000835168 2.63044e-21)
(-0.333122 0.000835472 0)
(-0.331488 0.00083749 0)
(-0.32983 0.000841148 2.24126e-21)
(-0.32815 0.000847302 0)
(-0.326454 0.00085372 -1.95125e-21)
(-0.324742 0.000859829 0)
(-0.323011 0.000865651 0)
(-0.321263 0.000868252 0)
(-0.319497 0.000871601 1.29529e-21)
(-0.317717 0.000872162 0)
(-0.315916 0.00086484 -9.27145e-22)
(-0.314092 0.000858124 0)
(-0.312252 0.000853346 0)
(-0.310395 0.000849302 0)
(-0.308517 0.000843896 0)
(-0.30663 0.000838551 0)
(-0.304732 0.000834103 0)
(-0.302818 0.000835671 0)
(-0.300895 0.000826955 0)
(-0.298949 0.000822476 0)
(-0.296997 0.000815243 0)
(-0.295019 0.000806531 0)
(-0.29304 0.000803993 1.84362e-21)
(-0.291039 0.000794811 -2.11893e-21)
(-0.289035 0.0007912 0)
(-0.287017 0.000781503 0)
(-0.28499 0.000772032 0)
(-0.282956 0.000762636 0)
(-0.280914 0.000753993 -3.59959e-21)
(-0.278867 0.000745636 3.91737e-21)
(-0.27681 0.000737077 -4.24258e-21)
(-0.274749 0.000728524 0)
(-0.272681 0.000720079 -4.91544e-21)
(-0.270613 0.000711107 -1.0527e-20)
(-0.268541 0.000702372 0)
(-0.266474 0.000693764 -1.19648e-20)
(-0.264404 0.000685862 1.27064e-20)
(-0.262342 0.000677741 0)
(-0.260275 0.000670034 0)
(-0.258216 0.00066201 0)
(-0.256149 0.000654612 0)
(-0.254091 0.000647144 0)
(-0.252022 0.000640527 -1.75066e-20)
(-0.249961 0.000633882 0)
(-0.247886 0.000628245 -1.92511e-20)
(-0.245812 0.000622363 0)
(-0.243723 0.000617733 0)
(-0.241636 0.000612936 0)
(-0.239531 0.000609855 0)
(-0.237422 0.000606696 0)
(-0.235289 0.000605459 2.50009e-20)
(-0.233145 0.000604148 0)
(-0.23097 0.000605209 0)
(-0.228772 0.00060669 -2.82322e-20)
(-0.226528 0.000611204 0)
(-0.224241 0.000616423 0)
(-0.221889 0.000625347 0)
(-0.219469 0.000635545 3.30636e-20)
(-0.216958 0.000650687 0)
(-0.214344 0.000668363 0)
(-0.211596 0.00069275 0)
(-0.208688 0.000721904 0)
(-0.205581 0.000761229 -4.04464e-20)
(-0.202216 0.00081031 0)
(-0.198542 0.00087837 0)
(-0.194363 0.000970277 0)
(-0.189781 0.00111943 4.85628e-20)
(-0.183453 0.00134447 0)
(-0.177756 0.00204274 0)
(-0.158365 0.00237882 -5.99629e-20)
(-0.166334 0.0093204 9.0278e-36)
(-0.190303 0.0157788 6.98759e-18)
(-0.206422 0.0189657 1.29904e-17)
(-0.215061 0.0207194 1.25402e-17)
(-0.222175 0.0218998 1.21624e-17)
(-0.229102 0.0228735 1.17431e-17)
(-0.23539 0.0237164 -1.13745e-17)
(-0.24116 0.0244646 -1.1044e-17)
(-0.246568 0.0251358 0)
(-0.251819 0.0257561 -2.0827e-17)
(-0.257091 0.0263464 -1.00985e-17)
(-0.262475 0.0269268 4.9051e-34)
(-0.268097 0.0275119 0)
(-0.27407 0.0281214 -1.81633e-17)
(-0.280502 0.0287655 -1.73825e-17)
(-0.287492 0.0294583 -1.65197e-17)
(-0.295171 0.0302118 0)
(-0.303646 0.0310407 2.89763e-17)
(-0.313168 0.0319683 1.32768e-17)
(-0.323629 0.0329926 6.01853e-36)
(-0.335822 0.0341707 -2.07222e-17)
(-0.348364 0.0354299 -8.30749e-21)
(-0.365851 0.037032 0)
(-0.377318 0.0384913 7.73944e-18)
(-0.407588 0.0407261 -4.7671e-18)
)
;
    }
    lowerWall
    {
        type            calculated;
        value           nonuniform List<vector> 
250
(
(-0.619707 0.142572 0)
(-0.630077 0.109907 0)
(-0.622381 0.0565044 0)
(-0.607784 0.0250762 0)
(-0.592937 0.00991041 0)
(-0.57988 0.00317104 0)
(-0.568701 0.000333265 0)
(-0.559212 -0.00083453 0)
(-0.551082 -0.00129608 0)
(-0.544066 -0.00146498 0)
(-0.537935 -0.00150838 0)
(-0.532557 -0.00150449 0)
(-0.527776 -0.00148324 0)
(-0.523521 -0.00146407 0)
(-0.519619 -0.00144958 0)
(-0.516253 -0.0014837 0)
(-0.512075 -0.00161195 0)
(-0.510668 -0.00157522 0)
(0.000633381 -0.0148541 0)
(0.000808257 -0.0156825 0)
(0.00109421 -0.0166675 0)
(0.00159327 -0.0178896 6.3507e-20)
(0.00274071 -0.0197012 -4.92662e-20)
(0.00255038 -0.0220543 5.8412e-20)
(0.00503453 -0.0237345 -4.75721e-20)
(0.00971771 -0.0478711 0)
(-0.0703755 -0.130956 0)
(-0.000353915 0.000357467 0)
(-0.000327515 0.00124589 0)
(-2.0494e-05 0.00160055 0)
(0.000314372 0.00130425 0)
(0.000562779 0.000549727 7.40848e-20)
(0.000724642 -0.00050317 -6.78461e-20)
(0.000809691 -0.00174032 0)
(0.000844977 -0.00307965 -1.03315e-19)
(0.000844136 -0.00445563 9.30162e-20)
(0.000816495 -0.00581805 0)
(0.0007696 -0.00712919 0)
(0.000710056 -0.0083618 0)
(0.00064417 -0.00949884 0)
(0.000577685 -0.0105313 0)
(0.000519702 -0.0114651 0)
(0.000481378 -0.0123232 0)
(0.000476294 -0.0131463 0)
(0.000526305 -0.0140113 0)
(0.000183105 0.00037634 0)
(-0.000236285 0.000542326 0)
(-0.000535617 0.000466631 0)
(-0.000700801 0.000279517 0)
(-0.000745763 5.91264e-05 0)
(-0.000682838 -0.000143157 0)
(-0.000545217 -0.000299944 6.72701e-21)
(-0.000358324 -0.000410811 -6.31367e-21)
(-0.000139277 -0.000484361 -0)
(0.000101527 -0.000532494 -5.18938e-21)
(0.000359437 -0.000566602 -0)
(0.000633743 -0.000594596 0)
(0.000924611 -0.000620383 -0)
(0.00123222 -0.000645688 2.86123e-21)
(0.00155649 -0.000670842 0)
(0.00189713 -0.000695755 0)
(0.00225364 -0.0007201 -2.09795e-21)
(0.00262551 -0.000743641 -0)
(0.00301212 -0.000766182 0)
(0.00341281 -0.00078746 -0)
(0.00382683 -0.000807429 1.56441e-21)
(0.00425334 -0.000825941 0)
(0.00469163 -0.000843286 1.4026e-21)
(0.00514082 -0.000859276 0)
(0.00560049 -0.000874353 -0)
(0.00606988 -0.000888151 1.23877e-21)
(0.00654904 -0.000900862 0)
(0.00703708 -0.000912042 -1.17025e-21)
(0.00753269 -0.000923579 -0)
(0.00803576 -0.00094214 1.12798e-21)
(0.00855095 -0.000974777 0)
(0.00908459 -0.00102792 0)
(0.00968279 -0.00110691 0)
(0.0103438 -0.00107428 -0)
(0.0109355 -0.000889487 0)
(0.0114566 -0.000958052 -1.01131e-21)
(0.0119878 -0.00136003 -0)
(0.0126183 -0.00182324 1.89803e-21)
(0.0135471 -0.00241136 0)
(0.014561 -0.00205278 -2.38452e-21)
(0.0152503 -0.0014082 -0)
(0.0158862 -0.00137031 -0)
(0.0168461 -0.000986085 2.32509e-21)
(0.0177078 -0.00100263 0)
(0.0187138 -0.00125885 2.27929e-21)
(0.0199555 -0.00132 -2.25725e-21)
(0.0211243 -0.0013446 -0)
(0.0223445 -0.00136398 -2.20623e-21)
(0.0235784 -0.00137973 -2.18267e-21)
(0.0248464 -0.00139259 -0)
(0.0261356 -0.00140263 0)
(0.0274505 -0.00141049 0)
(0.0287865 -0.00141668 0)
(0.0301453 -0.0014216 -0)
(0.0315244 -0.00142522 2.07427e-21)
(0.0329238 -0.00142777 0)
(0.0343422 -0.00142934 -2.04749e-21)
(0.0357797 -0.00142994 -0)
(0.0372346 -0.00142942 -0)
(0.0387068 -0.00142777 2.01346e-21)
(0.0401943 -0.00142497 0)
(0.0416972 -0.00142092 -1.99396e-21)
(0.0432131 -0.0014155 -0)
(0.044742 -0.00140872 0)
(0.0462813 -0.00140032 -0)
(0.0478305 -0.00139043 1.96007e-21)
(0.0493871 -0.00137881 0)
(0.0509502 -0.00136546 -0)
(0.0525173 -0.00135027 1.93726e-21)
(0.0540871 -0.0013332 0)
(0.0556567 -0.0013142 1.92247e-21)
(0.0572251 -0.00129324 0)
(0.0587889 -0.00127023 0)
(0.060347 -0.00124521 0)
(0.0618959 -0.00121806 -1.89202e-21)
(0.063434 -0.00118891 -0)
(0.0649584 -0.00115762 0)
(0.0664667 -0.00112422 -1.86683e-21)
(0.0679559 -0.00108875 -1.85773e-21)
(0.0694238 -0.00105116 -0)
(0.070867 -0.00101158 -1.83812e-21)
(0.0722839 -0.000969976 0)
(0.0736706 -0.00092634 -3.63267e-21)
(0.0750253 -0.00088063 -0)
(0.076344 -0.000832826 -3.58396e-21)
(0.0776246 -0.000783064 -0)
(0.078864 -0.00073108 3.52931e-21)
(0.0800591 -0.000676756 0)
(0.0812066 -0.000619934 0)
(0.0823035 -0.000560309 0)
(0.0833457 -0.000497525 -3.39895e-21)
(0.0843297 -0.00043114 -0)
(0.0852506 -0.000360814 3.32184e-21)
(0.0861044 -0.000286443 0)
(0.0868858 -0.000208569 -3.23634e-21)
(0.0875908 -0.000129425 -3.19053e-21)
(0.0882165 -5.41018e-05 -3.14241e-21)
(0.0887667 1.11944e-05 0)
(0.0892514 6.99919e-05 0)
(0.0896695 0.000128088 0)
(0.0900203 0.000185748 0)
(0.0903024 0.000243522 0)
(0.0905148 0.000301298 0)
(0.0906563 0.000359086 0)
(0.090726 0.000416882 0)
(0.0907225 0.000474489 2.57072e-21)
(0.0906458 0.000531845 2.49073e-21)
(0.0904945 0.0005889 0)
(0.0902684 0.000645439 0)
(0.0899674 0.000701353 0)
(0.0895914 0.000756638 2.13388e-21)
(0.08914 0.000811184 0)
(0.0886136 0.000864848 0)
(0.0880124 0.000917448 0)
(0.0873375 0.000969017 0)
(0.0865888 0.00101942 -1.59933e-21)
(0.0857675 0.00106856 0)
(0.0848746 0.00111629 0)
(0.0839113 0.00116263 1.22818e-21)
(0.0828789 0.00120743 -1.09571e-21)
(0.0817788 0.00125069 0)
(0.0806126 0.00129226 -8.1729e-22)
(0.0793819 0.00133221 0)
(0.0780886 0.00137029 5.20551e-22)
(0.0767352 0.00140661 0)
(0.0753236 0.00144117 0)
(0.0738552 0.00147398 0)
(0.0723333 0.00150483 0)
(0.0707613 0.00153415 0)
(0.0691364 0.00156154 9.68945e-22)
(0.0674662 0.00158714 1.33899e-21)
(0.0657484 0.00161082 0)
(0.0639884 0.00163281 0)
(0.0621915 0.0016533 0)
(0.0603583 0.0016722 -2.92788e-21)
(0.0584883 0.00168937 0)
(0.0565863 0.00170504 0)
(0.0546545 0.00171921 0)
(0.0526953 0.00173217 -4.70789e-21)
(0.0507109 0.00174385 5.1862e-21)
(0.0487037 0.00175429 0)
(0.0466756 0.00176337 0)
(0.0446297 0.0017711 6.71101e-21)
(0.0425684 0.00177762 7.25212e-21)
(0.0404938 0.00178303 0)
(0.0384081 0.00178731 0)
(0.0363143 0.0017906 -8.99028e-21)
(0.0342141 0.00179317 9.61296e-21)
(0.0321098 0.00179519 0)
(0.030003 0.00179696 0)
(0.0278952 0.00179858 1.16339e-20)
(0.0257877 0.0018 0)
(0.0236821 0.00180124 0)
(0.0215799 0.00180228 1.39282e-20)
(0.0194826 0.00180327 0)
(0.0173916 0.00180422 1.56463e-20)
(0.0153083 0.00180525 0)
(0.0132339 0.00180635 0)
(0.0111696 0.00180758 0)
(0.00911656 0.0018089 -1.9676e-20)
(0.00707618 0.00181061 0)
(0.00504942 0.00181355 0)
(0.00303727 0.00181747 0)
(0.00103942 0.00181853 0)
(-0.000941635 0.00179762 0)
(-0.00290932 0.00175557 0)
(-0.00486826 0.00171315 -2.39991e-20)
(-0.00681949 0.00167338 -2.34082e-20)
(-0.00876349 0.00163613 0)
(-0.0107007 0.00160079 0)
(-0.0126313 0.0015667 0)
(-0.0145542 0.00153299 2.13928e-20)
(-0.0164674 0.00149851 0)
(-0.0183667 0.00146147 -4.10978e-20)
(-0.0202453 0.00141811 4.03293e-20)
(-0.0220831 0.00136328 3.96197e-20)
(-0.0238694 0.00127485 -3.89914e-20)
(-0.0254452 0.00113982 3.84943e-20)
(-0.0270092 0.000781952 -3.83059e-20)
(-0.0266034 5.04016e-05 0)
(-0.0290229 5.22095e-06 -2.43498e-18)
(-0.0337462 -0.000862685 -2.30685e-18)
(-0.0383402 -0.00155729 0)
(-0.042558 -0.00210248 -4.20487e-18)
(-0.046863 -0.00260438 -8.04979e-18)
(-0.0513924 -0.00309772 -3.85349e-18)
(-0.0561477 -0.00359506 3.68882e-18)
(-0.061149 -0.0041096 -4.21297e-35)
(-0.0664326 -0.00465002 -3.00927e-36)
(-0.0720234 -0.00522125 3.22365e-18)
(-0.077943 -0.00582676 3.0739e-18)
(-0.0842125 -0.00646989 3.00927e-36)
(-0.0908555 -0.00715332 0)
(-0.097892 -0.00787995 0)
(-0.105359 -0.00865159 -4.7443e-35)
(-0.113268 -0.0094735 -7.22694e-35)
(-0.121702 -0.0103431 1.26389e-34)
(-0.13061 -0.0112785 -3.97604e-18)
(-0.140292 -0.012253 -3.62264e-18)
(-0.150227 -0.0133372 6.01853e-36)
(-0.162042 -0.0144147 5.6858e-18)
(-0.172291 -0.0157279 9.39281e-18)
(-0.189484 -0.0168492 0)
(-0.19637 -0.0186632 -4.43871e-18)
(-0.230343 -0.0192899 -3.00927e-36)
)
;
    }
    frontAndBack
    {
        type            empty;
    }
}


// ************************************************************************* //
