/*--------------------------------*- C++ -*----------------------------------*\
  =========                 |
  \\      /  F ield         | OpenFOAM: The Open Source CFD Toolbox
   \\    /   O peration     | Website:  https://openfoam.org
    \\  /    A nd           | Version:  8
     \\/     M anipulation  |
\*---------------------------------------------------------------------------*/
FoamFile
{
    version     2.0;
    format      ascii;
    class       surfaceScalarField;
    location    "2700";
    object      phi;
}
// * * * * * * * * * * * * * * * * * * * * * * * * * * * * * * * * * * * * * //

dimensions      [0 3 -1 0 0 0 0];

internalField   nonuniform List<scalar> 
24170
(
3.92539e-06
-7.91498e-07
3.76465e-06
1.6075e-07
3.63345e-06
1.31209e-07
3.43331e-06
2.00143e-07
3.28028e-06
1.53027e-07
3.18901e-06
9.11904e-08
3.13092e-06
5.81106e-08
3.08609e-06
4.58913e-08
3.04613e-06
4.2323e-08
3.01059e-06
3.81616e-08
2.97876e-06
3.3801e-08
2.94904e-06
3.07687e-08
2.92188e-06
2.7376e-08
2.89642e-06
2.51976e-08
2.87228e-06
2.36018e-08
2.85194e-06
1.94777e-08
2.84098e-06
9.85075e-09
-6.38815e-09
2.8467e-06
3.58445e-06
-9.19499e-07
3.80424e-06
-5.90415e-08
3.74282e-06
1.92629e-07
3.6906e-06
2.52374e-07
3.63729e-06
2.06332e-07
3.59023e-06
1.38279e-07
3.55289e-06
9.55992e-08
3.52309e-06
7.5659e-08
3.49853e-06
6.65685e-08
3.47732e-06
5.92138e-08
3.45871e-06
5.25279e-08
3.44253e-06
4.72631e-08
3.42795e-06
4.23359e-08
3.41466e-06
3.87835e-08
3.40269e-06
3.57258e-08
3.39122e-06
3.10446e-08
3.38037e-06
2.08311e-08
4.76267e-09
3.36944e-06
3.68518e-06
-7.92482e-07
3.83639e-06
-2.10251e-07
3.91494e-06
1.14082e-07
3.94502e-06
2.22292e-07
3.94408e-06
2.07264e-07
3.92749e-06
1.54897e-07
3.90755e-06
1.15614e-07
3.88932e-06
9.36438e-08
3.874e-06
8.11956e-08
3.86056e-06
7.19148e-08
3.84834e-06
6.42547e-08
3.83729e-06
5.81336e-08
3.82692e-06
5.27767e-08
3.81741e-06
4.84713e-08
3.80891e-06
4.44278e-08
3.80098e-06
3.92443e-08
3.79196e-06
3.01941e-08
1.77771e-08
3.77944e-06
4.05359e-06
-6.4151e-07
4.1146e-06
-2.7126e-07
4.20799e-06
2.06911e-08
4.26635e-06
1.63932e-07
4.2907e-06
1.82926e-07
4.29287e-06
1.52748e-07
4.28571e-06
1.22818e-07
4.27631e-06
1.02842e-07
4.26727e-06
8.96851e-08
4.25874e-06
7.98163e-08
4.25056e-06
7.19481e-08
4.24283e-06
6.56326e-08
4.23535e-06
6.02431e-08
4.22824e-06
5.56884e-08
4.22149e-06
5.13454e-08
4.21464e-06
4.6335e-08
4.20599e-06
3.91696e-08
3.06393e-08
4.19351e-06
4.50491e-06
-5.09114e-07
4.51536e-06
-2.81708e-07
4.58529e-06
-4.92348e-08
4.64665e-06
1.02565e-07
4.68258e-06
1.46992e-07
4.69688e-06
1.38472e-07
4.69946e-06
1.20236e-07
4.69723e-06
1.04925e-07
4.69331e-06
9.3254e-08
4.68868e-06
8.4056e-08
4.68367e-06
7.66402e-08
4.67851e-06
7.06055e-08
4.67321e-06
6.54907e-08
4.66783e-06
6.11003e-08
4.66227e-06
5.69971e-08
4.65606e-06
5.26923e-08
4.64787e-06
4.75764e-08
4.25859e-08
4.63612e-06
5.00014e-06
-3.94663e-07
4.98614e-06
-2.67704e-07
5.03069e-06
-9.37797e-08
5.08506e-06
4.81971e-08
5.12454e-06
1.07516e-07
5.14609e-06
1.16939e-07
5.15584e-06
1.10488e-07
5.1594e-06
1.01284e-07
5.15985e-06
9.26064e-08
5.15859e-06
8.50819e-08
5.15629e-06
7.87407e-08
5.15333e-06
7.34395e-08
5.14984e-06
6.89293e-08
5.14589e-06
6.50575e-08
5.14136e-06
6.15784e-08
5.13584e-06
5.82985e-08
5.12839e-06
5.51344e-08
5.30336e-08
5.11808e-06
5.54382e-06
-2.97475e-07
5.51664e-06
-2.4053e-07
5.54055e-06
-1.17686e-07
5.58388e-06
4.86944e-09
5.62166e-06
6.97333e-08
5.64656e-06
9.2045e-08
5.66107e-06
9.59671e-08
5.66906e-06
9.32457e-08
5.67315e-06
8.84227e-08
5.67482e-06
8.32991e-08
5.67491e-06
7.85492e-08
5.67391e-06
7.4372e-08
5.67204e-06
7.07609e-08
5.66941e-06
6.76894e-08
5.66591e-06
6.50913e-08
5.66127e-06
6.29774e-08
5.65494e-06
6.15338e-08
6.15164e-08
5.6465e-06
4.34788e-06
-2.39242e-07
4.32251e-06
-2.15163e-07
4.33078e-06
-1.25952e-07
4.35419e-06
-1.85373e-08
4.3784e-06
4.55248e-08
4.39646e-06
7.39836e-08
4.40841e-06
8.40213e-08
4.41597e-06
8.5672e-08
4.42059e-06
8.37657e-08
4.42325e-06
8.05953e-08
4.42456e-06
7.71936e-08
4.4249e-06
7.39988e-08
4.42447e-06
7.11749e-08
4.42335e-06
6.88035e-08
4.42151e-06
6.69283e-08
4.41885e-06
6.56604e-08
4.41514e-06
6.52563e-08
6.63344e-08
4.41035e-06
5.08621e-06
-1.856e-07
5.05777e-06
-1.86719e-07
5.0584e-06
-1.26579e-07
5.07686e-06
-3.70034e-08
5.09918e-06
2.32128e-08
5.11773e-06
5.54348e-08
5.13124e-06
7.05054e-08
5.14059e-06
7.63148e-08
5.14686e-06
7.74734e-08
5.15094e-06
7.64945e-08
5.15345e-06
7.46729e-08
5.15477e-06
7.2662e-08
5.15514e-06
7.07913e-08
5.15468e-06
6.92573e-08
5.15341e-06
6.82016e-08
5.15128e-06
6.78031e-08
5.14821e-06
6.83386e-08
7.02588e-08
5.14429e-06
5.94839e-06
-1.38194e-07
5.91832e-06
-1.5665e-07
5.91161e-06
-1.19867e-07
5.924e-06
-4.93979e-08
5.94286e-06
4.35729e-09
5.96058e-06
3.77152e-08
5.9748e-06
5.62894e-08
5.98546e-06
6.56444e-08
5.9932e-06
6.97333e-08
5.99867e-06
7.10143e-08
6.00243e-06
7.09118e-08
6.00485e-06
7.02352e-08
6.00618e-06
6.94523e-08
6.00658e-06
6.88602e-08
6.0061e-06
6.86794e-08
6.00478e-06
6.91257e-08
6.00267e-06
7.04505e-08
7.29633e-08
5.99997e-06
6.95439e-06
-9.83132e-08
6.92402e-06
-1.26279e-07
6.91113e-06
-1.06985e-07
6.9168e-06
-5.5067e-08
6.93087e-06
-9.71191e-09
6.94635e-06
2.22377e-08
6.96015e-06
4.24909e-08
6.9714e-06
5.43939e-08
6.98017e-06
6.09588e-08
6.98684e-06
6.43444e-08
6.9918e-06
6.59512e-08
6.99538e-06
6.66598e-08
6.9978e-06
6.70247e-08
6.99924e-06
6.74171e-08
6.99982e-06
6.81051e-08
6.99963e-06
6.9315e-08
6.99883e-06
7.1257e-08
7.4118e-08
6.99767e-06
8.12719e-06
-6.6488e-08
8.09793e-06
-9.70218e-08
8.08056e-06
-8.961e-08
8.07955e-06
-5.40601e-08
8.08793e-06
-1.8091e-08
8.09985e-06
1.03209e-08
8.11198e-06
3.03568e-08
8.12286e-06
4.35196e-08
8.13202e-06
5.17925e-08
8.1395e-06
5.68643e-08
8.14548e-06
5.99714e-08
8.15018e-06
6.19651e-08
8.15378e-06
6.34255e-08
8.15644e-06
6.47503e-08
8.15832e-06
6.62258e-08
8.15957e-06
6.80656e-08
8.1604e-06
7.04317e-08
7.34292e-08
8.16109e-06
9.49368e-06
-4.2439e-08
9.4668e-06
-7.01436e-08
9.44683e-06
-6.96415e-08
9.43991e-06
-4.71333e-08
9.44229e-06
-2.04697e-08
9.44965e-06
2.95341e-09
9.45895e-06
2.10621e-08
9.4684e-06
3.40679e-08
9.47716e-06
4.30333e-08
9.48491e-06
4.91171e-08
9.49159e-06
5.32895e-08
9.49727e-06
5.62868e-08
9.50205e-06
5.86408e-08
9.50607e-06
6.0732e-08
9.50947e-06
6.28273e-08
9.51242e-06
6.51126e-08
9.51515e-06
6.77064e-08
7.06621e-08
9.51792e-06
1.10854e-05
-2.51594e-08
1.10618e-05
-4.65035e-08
1.1041e-05
-4.88081e-08
1.10294e-05
-3.55534e-08
1.10261e-05
-1.71717e-08
1.10284e-05
6.02693e-10
1.1034e-05
1.54722e-08
1.10411e-05
2.6968e-08
1.10487e-05
3.54886e-08
1.10561e-05
4.17122e-08
1.1063e-05
4.63092e-08
1.10695e-05
4.98383e-08
1.10754e-05
5.27296e-08
1.10808e-05
5.52972e-08
1.10859e-05
5.77615e-08
1.10908e-05
6.02663e-08
1.10956e-05
6.28919e-08
6.56617e-08
1.11006e-05
1.29396e-05
-1.31191e-08
1.29194e-05
-2.62796e-08
1.28988e-05
-2.82535e-08
1.28839e-05
-2.06895e-08
1.28758e-05
-8.99793e-09
1.28732e-05
3.14249e-09
1.28748e-05
1.39374e-08
1.28789e-05
2.27855e-08
1.28847e-05
2.97413e-08
1.28913e-05
3.51396e-08
1.28982e-05
3.93795e-08
1.29052e-05
4.28239e-08
1.29122e-05
4.57651e-08
1.29191e-05
4.84201e-08
1.29259e-05
5.09378e-08
1.29327e-05
5.341e-08
1.29397e-05
5.58797e-08
5.835e-08
1.29471e-05
1.50998e-05
-4.48355e-09
1.50822e-05
-8.67712e-09
1.50621e-05
-8.1152e-09
1.50448e-05
-3.46028e-09
1.50327e-05
3.1073e-09
1.50259e-05
9.93598e-09
1.50237e-05
1.61589e-08
1.5025e-05
2.1461e-08
1.50289e-05
2.58498e-08
1.50346e-05
2.9481e-08
1.50414e-05
3.25506e-08
1.5049e-05
3.52391e-08
1.50571e-05
3.76896e-08
1.50655e-05
4.00036e-08
1.50742e-05
4.22434e-08
1.50832e-05
4.44385e-08
1.50925e-05
4.65916e-08
4.86841e-08
1.51021e-05
1.76171e-05
2.89261e-09
1.75999e-05
8.52189e-09
1.75787e-05
1.30278e-08
1.7559e-05
1.62755e-08
1.75436e-05
1.84696e-08
1.75336e-05
1.99545e-08
1.75287e-05
2.10486e-08
1.75282e-05
2.19898e-08
1.75311e-05
2.29356e-08
1.75366e-05
2.39814e-08
1.7544e-05
2.51733e-08
1.75527e-05
2.65241e-08
1.75624e-05
2.80226e-08
1.75727e-05
2.96433e-08
1.75836e-05
3.13495e-08
1.7595e-05
3.31001e-08
1.76067e-05
3.48493e-08
3.65524e-08
1.76188e-05
1.78181e-05
1.09998e-08
1.77994e-05
2.72111e-08
1.77768e-05
3.5622e-08
1.7756e-05
3.70556e-08
1.77402e-05
3.43228e-08
1.77302e-05
2.99424e-08
1.77257e-05
2.54958e-08
1.7726e-05
2.17732e-08
1.77298e-05
1.90701e-08
1.77364e-05
1.73952e-08
1.7745e-05
1.66281e-08
1.77549e-05
1.65997e-08
1.77658e-05
1.71386e-08
1.77773e-05
1.80876e-08
1.77894e-05
1.93138e-08
1.78017e-05
2.07039e-08
1.78144e-05
2.21681e-08
2.3631e-08
1.78274e-05
1.58702e-05
2.21329e-08
1.58478e-05
4.95799e-08
1.58233e-05
6.01299e-08
1.58032e-05
5.72315e-08
1.57899e-05
4.76066e-08
1.57834e-05
3.63671e-08
1.57827e-05
2.61922e-08
1.57864e-05
1.81411e-08
1.57931e-05
1.23595e-08
1.58019e-05
8.60697e-09
1.5812e-05
6.4923e-09
1.5823e-05
5.62555e-09
1.58345e-05
5.66332e-09
1.58462e-05
6.32929e-09
1.58581e-05
7.40257e-09
1.58701e-05
8.7191e-09
1.58821e-05
1.0151e-08
1.16083e-08
1.58942e-05
1.41313e-05
3.95382e-08
1.41021e-05
7.87054e-08
1.40745e-05
8.77855e-08
1.40557e-05
7.60352e-08
1.40469e-05
5.64093e-08
1.40462e-05
3.70345e-08
1.40512e-05
2.12046e-08
1.40597e-05
9.57603e-09
1.40704e-05
1.7567e-09
1.4082e-05
-3.054e-09
1.40941e-05
-5.6082e-09
1.41063e-05
-6.56338e-09
1.41184e-05
-6.41503e-09
1.41303e-05
-5.55614e-09
1.41419e-05
-4.25567e-09
1.41534e-05
-2.71447e-09
1.41646e-05
-1.06969e-09
5.82199e-10
1.41756e-05
1.25772e-05
6.73551e-08
1.25392e-05
1.16738e-07
1.25091e-05
1.17887e-07
1.24942e-05
9.08879e-08
1.24928e-05
5.78096e-08
1.25002e-05
2.96776e-08
1.25122e-05
9.12454e-09
1.25264e-05
-4.50315e-09
1.25409e-05
-1.28421e-08
1.25552e-05
-1.73528e-08
1.25689e-05
-1.92877e-08
1.25819e-05
-1.95004e-08
1.25941e-05
-1.8655e-08
1.26057e-05
-1.71518e-08
1.26167e-05
-1.5302e-08
1.26273e-05
-1.32968e-08
1.26375e-05
-1.1259e-08
-9.27654e-09
1.26473e-05
1.11862e-05
1.10916e-07
1.11384e-05
1.64569e-07
1.11088e-05
1.47519e-07
1.11022e-05
9.74818e-08
1.11117e-05
4.83089e-08
1.11289e-05
1.23962e-08
1.11486e-05
-1.0468e-08
1.11678e-05
-2.37353e-08
1.11855e-05
-3.05153e-08
1.12014e-05
-3.32969e-08
1.12157e-05
-3.35585e-08
1.12285e-05
-3.23642e-08
1.12402e-05
-3.03061e-08
1.12509e-05
-2.78541e-08
1.12608e-05
-2.52498e-08
1.12701e-05
-2.26473e-08
1.1279e-05
-2.01381e-08
-1.77538e-08
1.12875e-05
9.93908e-06
1.76451e-07
9.88248e-06
2.21162e-07
9.85873e-06
1.71261e-07
9.86593e-06
9.02732e-08
9.8896e-06
2.46353e-08
9.91759e-06
-1.55606e-08
9.94392e-06
-3.68017e-08
9.96669e-06
-4.6418e-08
9.98572e-06
-4.96205e-08
1.00017e-05
-4.92965e-08
1.00152e-05
-4.71361e-08
1.00269e-05
-4.40052e-08
1.00371e-05
-4.0547e-08
1.00463e-05
-3.70049e-08
1.00546e-05
-3.35864e-08
1.00623e-05
-3.03945e-08
1.00696e-05
-2.74095e-08
-2.46674e-08
1.00765e-05
8.81963e-06
2.69916e-07
8.75785e-06
2.82943e-07
8.74788e-06
1.81224e-07
8.77481e-06
6.33211e-08
8.81458e-06
-1.51319e-08
8.85212e-06
-5.30961e-08
8.88268e-06
-6.72359e-08
8.90623e-06
-7.00353e-08
8.92428e-06
-6.763e-08
8.93843e-06
-6.33851e-08
8.94985e-06
-5.84166e-08
8.95925e-06
-5.33561e-08
8.96726e-06
-4.85029e-08
8.97425e-06
-4.39946e-08
8.98052e-06
-3.98791e-08
8.98633e-06
-3.62156e-08
8.99176e-06
-3.28928e-08
-2.98414e-08
8.99694e-06
7.81391e-06
3.96675e-07
7.75391e-06
3.42943e-07
7.76868e-06
1.66439e-07
7.82053e-06
1.14597e-08
7.87566e-06
-7.02762e-08
7.91912e-06
-9.64947e-08
7.94967e-06
-9.78409e-08
7.97057e-06
-9.06596e-08
7.98484e-06
-8.1605e-08
7.99525e-06
-7.35711e-08
8.00316e-06
-6.61397e-08
8.00938e-06
-5.943e-08
8.01448e-06
-5.33881e-08
8.01887e-06
-4.8226e-08
8.02271e-06
-4.37165e-08
8.02631e-06
-3.98822e-08
8.02975e-06
-3.63902e-08
-3.31754e-08
8.03305e-06
6.90424e-06
5.66768e-07
6.86137e-06
3.85804e-07
6.91716e-06
1.10634e-07
6.99674e-06
-6.81339e-08
7.06253e-06
-1.36072e-07
7.10529e-06
-1.39271e-07
7.13031e-06
-1.22554e-07
7.14447e-06
-1.04626e-07
7.15207e-06
-8.90143e-08
7.15709e-06
-7.58297e-08
7.16038e-06
-6.67105e-08
7.16268e-06
-5.95864e-08
7.16419e-06
-5.42522e-08
7.16552e-06
-4.9397e-08
7.16662e-06
-4.48236e-08
7.16777e-06
-4.13884e-08
7.16899e-06
-3.82227e-08
-3.49231e-08
7.17024e-06
6.07162e-06
7.97662e-07
6.08526e-06
3.72164e-07
6.19865e-06
-2.77368e-09
6.29989e-06
-1.69398e-07
6.36526e-06
-2.01463e-07
6.39754e-06
-1.71505e-07
6.4101e-06
-1.3522e-07
6.41342e-06
-1.06958e-07
6.41239e-06
-8.58234e-08
6.40988e-06
-7.40522e-08
6.40748e-06
-6.45712e-08
6.40485e-06
-5.75887e-08
6.40237e-06
-5.14753e-08
6.40029e-06
-4.67238e-08
6.39807e-06
-4.29333e-08
6.39643e-06
-4.03482e-08
6.39532e-06
-3.74166e-08
-3.44305e-08
6.39422e-06
5.35805e-06
1.05451e-06
5.50649e-06
2.23716e-07
5.64777e-06
-1.44085e-07
5.73564e-06
-2.57314e-07
5.77646e-06
-2.42346e-07
5.78324e-06
-1.78423e-07
5.77527e-06
-1.26645e-07
5.76327e-06
-9.4011e-08
5.74975e-06
-7.56809e-08
5.7393e-06
-6.39937e-08
5.73029e-06
-5.65835e-08
5.7223e-06
-4.9963e-08
5.71448e-06
-4.48275e-08
5.7076e-06
-4.01943e-08
5.70137e-06
-3.63847e-08
5.69635e-06
-3.49815e-08
5.69207e-06
-3.3336e-08
-3.05753e-08
5.68766e-06
5.04576e-06
1.01105e-06
5.36491e-06
-9.545e-08
5.35251e-06
-1.31767e-07
5.33284e-06
-2.37745e-07
5.296e-06
-2.0565e-07
5.25017e-06
-1.32586e-07
5.20891e-06
-8.47347e-08
5.17485e-06
-6.08262e-08
5.14637e-06
-4.9833e-08
5.12485e-06
-4.29028e-08
5.10671e-06
-3.93805e-08
5.09044e-06
-3.56122e-08
5.07524e-06
-3.15945e-08
5.06163e-06
-2.67538e-08
5.0496e-06
-2.38208e-08
5.03948e-06
-2.45971e-08
5.03016e-06
-2.3643e-08
-2.13327e-08
5.02221e-06
5.4676e-06
5.37215e-06
5.24037e-06
5.00261e-06
4.79694e-06
4.66444e-06
4.57967e-06
4.51835e-06
4.46847e-06
4.4254e-06
4.38568e-06
4.3496e-06
4.31792e-06
4.29128e-06
4.26755e-06
4.24306e-06
4.21981e-06
4.1991e-06
2.31275e-08
-2.31272e-08
2.37197e-07
-2.14073e-07
4.89317e-07
-2.52089e-07
7.09579e-07
-2.20242e-07
8.77293e-07
-1.67694e-07
9.88419e-07
-1.11117e-07
1.04408e-06
-5.56503e-08
1.0465e-06
-2.42044e-09
1.001e-06
4.55137e-08
9.17718e-07
8.32679e-08
8.11918e-07
1.0581e-07
7.02729e-07
1.09174e-07
6.09949e-07
9.27769e-08
5.43666e-07
6.62937e-08
4.92527e-07
5.11586e-08
4.3335e-07
5.98798e-08
3.47044e-07
8.61682e-08
2.21942e-07
1.25874e-07
4.36346e-08
1.77892e-07
-2.01835e-07
2.4484e-07
-5.04373e-07
3.02284e-07
-8.45365e-07
3.40742e-07
-1.20971e-06
3.64349e-07
-1.5871e-06
3.77408e-07
-1.9687e-06
3.81641e-07
-2.34453e-06
3.75851e-07
-2.70657e-06
3.62057e-07
-3.04964e-06
3.43087e-07
-3.36993e-06
3.20304e-07
-3.6651e-06
2.95176e-07
-3.93429e-06
2.69192e-07
-4.17781e-06
2.43526e-07
-4.39669e-06
2.18884e-07
-4.59242e-06
1.95723e-07
-4.76668e-06
1.74268e-07
-4.92128e-06
1.54602e-07
-5.05797e-06
1.36685e-07
-5.17837e-06
1.20401e-07
-5.28396e-06
1.05589e-07
-5.37602e-06
9.20678e-08
-5.45568e-06
7.96564e-08
-5.52386e-06
6.8182e-08
-5.58135e-06
5.74893e-08
-5.6288e-06
4.74444e-08
-5.66673e-06
3.79381e-08
-5.69562e-06
2.88834e-08
-5.71583e-06
2.02088e-08
-5.72771e-06
1.18845e-08
-5.73175e-06
4.03844e-09
-5.72881e-06
-2.94109e-09
-5.71997e-06
-8.83952e-09
-5.706e-06
-1.39662e-08
-5.68732e-06
-1.86826e-08
-5.66417e-06
-2.31502e-08
-5.63672e-06
-2.74468e-08
-5.60512e-06
-3.16007e-08
-5.5695e-06
-3.56266e-08
-5.52996e-06
-3.95313e-08
-5.48665e-06
-4.3316e-08
-5.43967e-06
-4.69794e-08
-5.38915e-06
-5.05192e-08
-5.33522e-06
-5.39317e-08
-5.278e-06
-5.72136e-08
-5.21764e-06
-6.03615e-08
-5.15427e-06
-6.33732e-08
-5.08802e-06
-6.62453e-08
-5.01905e-06
-6.89744e-08
-4.94749e-06
-7.15584e-08
-4.8735e-06
-7.39954e-08
-4.79721e-06
-7.62844e-08
-4.71879e-06
-7.84244e-08
-4.63837e-06
-8.04153e-08
-4.55611e-06
-8.22572e-08
-4.47216e-06
-8.39508e-08
-4.38667e-06
-8.54972e-08
-4.29977e-06
-8.68982e-08
-4.21161e-06
-8.81557e-08
-4.12234e-06
-8.92726e-08
-4.03209e-06
-9.02516e-08
-3.94099e-06
-9.10965e-08
-3.84918e-06
-9.18111e-08
-3.75678e-06
-9.23998e-08
-3.66391e-06
-9.28677e-08
-3.57069e-06
-9.32202e-08
-3.47723e-06
-9.34634e-08
-3.38362e-06
-9.36046e-08
-3.28997e-06
-9.36524e-08
-3.19636e-06
-9.36169e-08
-3.10284e-06
-9.35113e-08
-3.00949e-06
-9.33509e-08
-2.91634e-06
-9.31568e-08
-2.82338e-06
-9.29542e-08
-2.73062e-06
-9.27611e-08
-2.63807e-06
-9.25573e-08
-2.54581e-06
-9.22575e-08
-2.45405e-06
-9.17604e-08
-2.36307e-06
-9.09808e-08
-2.27313e-06
-8.99358e-08
-2.18435e-06
-8.87823e-08
-2.09672e-06
-8.76275e-08
-2.01025e-06
-8.64712e-08
-1.92496e-06
-8.52976e-08
-1.84086e-06
-8.40994e-08
-1.75798e-06
-8.28757e-08
-1.67635e-06
-8.16289e-08
-1.59599e-06
-8.03629e-08
-1.51691e-06
-7.90815e-08
-1.43912e-06
-7.77873e-08
-1.36264e-06
-7.64783e-08
-1.28751e-06
-7.51338e-08
-1.21374e-06
-7.37658e-08
-1.14134e-06
-7.24022e-08
-1.0703e-06
-7.10377e-08
-1.00062e-06
-6.96737e-08
-9.32311e-07
-6.83112e-08
-8.65358e-07
-6.69517e-08
-7.99759e-07
-6.55974e-08
-7.35506e-07
-6.4251e-08
-6.7259e-07
-6.29145e-08
-6.11001e-07
-6.15871e-08
-5.50729e-07
-6.02697e-08
-4.91762e-07
-5.89649e-08
-4.3408e-07
-5.76789e-08
-3.7766e-07
-5.64172e-08
-3.22481e-07
-5.51757e-08
-2.68527e-07
-5.39509e-08
-2.15776e-07
-5.27469e-08
-1.64209e-07
-5.15628e-08
-1.13817e-07
-5.03868e-08
-6.45936e-08
-4.92188e-08
-1.66594e-08
-4.79287e-08
3.01168e-08
-4.67705e-08
7.60419e-08
-4.59197e-08
1.2101e-07
-4.49629e-08
1.64918e-07
-4.39032e-08
2.07763e-07
-4.28398e-08
2.49561e-07
-4.17936e-08
2.90343e-07
-4.07772e-08
3.3014e-07
-3.97927e-08
3.68983e-07
-3.88386e-08
4.069e-07
-3.79131e-08
4.43918e-07
-3.70147e-08
4.80064e-07
-3.61424e-08
5.15363e-07
-3.52955e-08
5.49839e-07
-3.44735e-08
5.83516e-07
-3.3676e-08
6.1642e-07
-3.29028e-08
6.48575e-07
-3.21537e-08
6.80003e-07
-3.14286e-08
7.10731e-07
-3.07275e-08
7.40781e-07
-3.00502e-08
7.70178e-07
-2.93969e-08
7.98945e-07
-2.87676e-08
8.27108e-07
-2.81623e-08
8.54689e-07
-2.75811e-08
8.81713e-07
-2.70238e-08
9.08204e-07
-2.64905e-08
9.34185e-07
-2.59807e-08
9.59679e-07
-2.5494e-08
9.8471e-07
-2.50296e-08
1.0093e-06
-2.45862e-08
1.03346e-06
-2.41619e-08
1.05721e-06
-2.3754e-08
1.08057e-06
-2.33584e-08
1.10354e-06
-2.29693e-08
1.12612e-06
-2.25786e-08
1.1483e-06
-2.21751e-08
1.17004e-06
-2.17428e-08
1.1913e-06
-2.12598e-08
1.212e-06
-2.06948e-08
1.232e-06
-2.00037e-08
1.25112e-06
-1.91228e-08
1.26908e-06
-1.79544e-08
1.28543e-06
-1.63545e-08
1.29948e-06
-1.40478e-08
1.31011e-06
-1.06238e-08
1.31467e-06
-4.5591e-09
1.30782e-06
6.85668e-09
1.27828e-06
2.95381e-08
7.23324e-08
1.20595e-06
2.54179e-07
-2.77327e-07
4.9008e-07
-4.4997e-07
6.39666e-07
-4.01672e-07
7.24299e-07
-3.04873e-07
7.63813e-07
-2.07199e-07
7.69759e-07
-1.17067e-07
7.48826e-07
-3.47118e-08
7.06641e-07
3.9755e-08
6.4628e-07
1.0588e-07
5.6765e-07
1.61887e-07
4.70035e-07
2.03431e-07
3.51763e-07
2.27433e-07
2.068e-07
2.37747e-07
2.36005e-08
2.49509e-07
-2.08619e-07
2.83386e-07
-4.94264e-07
3.45619e-07
-8.32228e-07
4.24221e-07
-1.21209e-06
5.0575e-07
-1.61591e-06
5.81668e-07
-2.01735e-06
6.46225e-07
-2.40737e-06
6.92257e-07
-2.78284e-06
7.16205e-07
-3.13779e-06
7.19291e-07
-3.46521e-06
7.04835e-07
-3.75997e-06
6.76407e-07
-4.02111e-06
6.36999e-07
-4.24905e-06
5.9e-07
-4.44506e-06
5.39104e-07
-4.61206e-06
4.873e-07
-4.75354e-06
4.36662e-07
-4.87288e-06
3.88538e-07
-4.97326e-06
3.43902e-07
-5.05754e-06
3.03168e-07
-5.12824e-06
2.66424e-07
-5.18748e-06
2.33506e-07
-5.23699e-06
2.04112e-07
-5.27817e-06
1.77872e-07
-5.31217e-06
1.54394e-07
-5.33988e-06
1.33298e-07
-5.36204e-06
1.14231e-07
-5.37926e-06
9.68816e-08
-5.39207e-06
8.0985e-08
-5.4009e-06
6.63188e-08
-5.40615e-06
5.27013e-08
-5.4082e-06
3.99857e-08
-5.40738e-06
2.80571e-08
-5.404e-06
1.68376e-08
-5.39841e-06
6.29256e-09
-5.39075e-06
-3.62215e-09
-5.3806e-06
-1.30963e-08
-5.36707e-06
-2.237e-08
-5.34956e-06
-3.14723e-08
-5.3279e-06
-4.03377e-08
-5.30209e-06
-4.89623e-08
-5.27219e-06
-5.73532e-08
-5.23827e-06
-6.55164e-08
-5.20044e-06
-7.34548e-08
-5.15881e-06
-8.11678e-08
-5.11347e-06
-8.86522e-08
-5.06455e-06
-9.59024e-08
-5.01215e-06
-1.02912e-07
-4.95641e-06
-1.09672e-07
-4.89745e-06
-1.16176e-07
-4.8354e-06
-1.22416e-07
-4.77038e-06
-1.28389e-07
-4.70254e-06
-1.34086e-07
-4.63201e-06
-1.39501e-07
-4.55894e-06
-1.4463e-07
-4.48347e-06
-1.49468e-07
-4.40574e-06
-1.54015e-07
-4.32589e-06
-1.58267e-07
-4.24408e-06
-1.62225e-07
-4.16045e-06
-1.65888e-07
-4.07515e-06
-1.69259e-07
-3.9883e-06
-1.72339e-07
-3.90007e-06
-1.75131e-07
-3.81059e-06
-1.77641e-07
-3.71998e-06
-1.79873e-07
-3.6284e-06
-1.81833e-07
-3.53597e-06
-1.83528e-07
-3.44282e-06
-1.84966e-07
-3.34906e-06
-1.86154e-07
-3.25483e-06
-1.87102e-07
-3.16023e-06
-1.87821e-07
-3.06537e-06
-1.8832e-07
-2.97037e-06
-1.88611e-07
-2.87531e-06
-1.88707e-07
-2.78031e-06
-1.8862e-07
-2.68546e-06
-1.88363e-07
-2.59086e-06
-1.87949e-07
-2.49663e-06
-1.87389e-07
-2.40289e-06
-1.86691e-07
-2.3098e-06
-1.8585e-07
-2.21752e-06
-1.84837e-07
-2.12617e-06
-1.83609e-07
-2.0358e-06
-1.82137e-07
-1.94636e-06
-1.80416e-07
-1.85781e-06
-1.78488e-07
-1.77016e-06
-1.76429e-07
-1.6835e-06
-1.74294e-07
-1.59787e-06
-1.72095e-07
-1.51334e-06
-1.69834e-07
-1.42992e-06
-1.67512e-07
-1.34767e-06
-1.65132e-07
-1.26659e-06
-1.62701e-07
-1.18673e-06
-1.60224e-07
-1.10811e-06
-1.57706e-07
-1.03075e-06
-1.55151e-07
-9.54664e-07
-1.5256e-07
-8.79864e-07
-1.49934e-07
-8.06343e-07
-1.47286e-07
-7.34116e-07
-1.44629e-07
-6.63186e-07
-1.41968e-07
-5.93554e-07
-1.39305e-07
-5.2522e-07
-1.36644e-07
-4.58183e-07
-1.33988e-07
-3.92438e-07
-1.31341e-07
-3.27982e-07
-1.28707e-07
-2.64802e-07
-1.26093e-07
-2.0289e-07
-1.23499e-07
-1.42235e-07
-1.20923e-07
-8.28277e-08
-1.18371e-07
-2.466e-08
-1.15845e-07
3.22817e-08
-1.13357e-07
8.80252e-08
-1.10917e-07
1.42588e-07
-1.08512e-07
1.9598e-07
-1.06137e-07
2.48218e-07
-1.03798e-07
2.99327e-07
-1.01494e-07
3.49338e-07
-9.92275e-08
3.98408e-07
-9.69969e-08
4.46512e-07
-9.48721e-08
4.93432e-07
-9.28378e-08
5.39236e-07
-9.07652e-08
5.84002e-07
-8.86675e-08
6.27762e-07
-8.65975e-08
6.70545e-07
-8.45743e-08
7.12374e-07
-8.26048e-08
7.53274e-07
-8.06904e-08
7.93267e-07
-7.88297e-08
8.32377e-07
-7.70212e-08
8.70628e-07
-7.52632e-08
9.08042e-07
-7.35547e-08
9.44642e-07
-7.18946e-08
9.80452e-07
-7.02824e-08
1.01549e-06
-6.87177e-08
1.04979e-06
-6.72001e-08
1.08337e-06
-6.57294e-08
1.11625e-06
-6.43055e-08
1.14845e-06
-6.29282e-08
1.17999e-06
-6.15977e-08
1.21091e-06
-6.03139e-08
1.24122e-06
-5.90768e-08
1.27094e-06
-5.78865e-08
1.30011e-06
-5.67429e-08
1.32873e-06
-5.56457e-08
1.35683e-06
-5.45946e-08
1.38444e-06
-5.3589e-08
1.41158e-06
-5.26275e-08
1.43826e-06
-5.17085e-08
1.4645e-06
-5.08294e-08
1.49032e-06
-4.99861e-08
1.51574e-06
-4.91732e-08
1.54077e-06
-4.83828e-08
1.5654e-06
-4.76038e-08
1.58965e-06
-4.68209e-08
1.61349e-06
-4.60128e-08
1.63689e-06
-4.515e-08
1.65983e-06
-4.41913e-08
1.68221e-06
-4.30793e-08
1.70394e-06
-4.17323e-08
1.72485e-06
-4.00323e-08
1.7447e-06
-3.78025e-08
1.76312e-06
-3.47735e-08
1.77955e-06
-3.04845e-08
1.79311e-06
-2.41831e-08
1.80283e-06
-1.42754e-08
1.8077e-06
1.99634e-09
1.80581e-06
3.14242e-08
8.80343e-08
1.7901e-06
2.4601e-07
-5.23358e-07
3.42327e-07
-5.46292e-07
3.58616e-07
-4.17959e-07
3.47572e-07
-2.93819e-07
3.1987e-07
-1.79491e-07
2.75786e-07
-7.29831e-08
2.14609e-07
2.64675e-08
1.35287e-07
1.19071e-07
3.67609e-08
2.04407e-07
-8.3134e-08
2.81777e-07
-2.30102e-07
3.50399e-07
-4.14663e-07
4.11994e-07
-6.50229e-07
4.7331e-07
-9.4372e-07
5.43004e-07
-1.28497e-06
6.24637e-07
-1.65207e-06
7.1272e-07
-2.02418e-06
7.96326e-07
-2.38444e-06
8.65994e-07
-2.71895e-06
9.16163e-07
-3.01717e-06
9.44434e-07
-3.27524e-06
9.50322e-07
-3.49413e-06
9.35103e-07
-3.67683e-06
9.02001e-07
-3.82739e-06
8.55399e-07
-3.95053e-06
7.99548e-07
-4.05166e-06
7.38132e-07
-4.13611e-06
6.74453e-07
-4.20828e-06
6.1127e-07
-4.27159e-06
5.50615e-07
-4.32867e-06
4.93741e-07
-4.38139e-06
4.41255e-07
-4.43088e-06
3.93391e-07
-4.47777e-06
3.50066e-07
-4.52235e-06
3.10998e-07
-4.56464e-06
2.75796e-07
-4.60455e-06
2.44021e-07
-4.64191e-06
2.15234e-07
-4.67653e-06
1.89018e-07
-4.70823e-06
1.64996e-07
-4.73684e-06
1.42839e-07
-4.76222e-06
1.22263e-07
-4.78426e-06
1.0303e-07
-4.80289e-06
8.49423e-08
-4.81802e-06
6.7835e-08
-4.8296e-06
5.1568e-08
-4.83757e-06
3.60223e-08
-4.84183e-06
2.10961e-08
-4.84223e-06
6.6954e-09
-4.83856e-06
-7.28637e-09
-4.8307e-06
-2.09635e-08
-4.81867e-06
-3.43957e-08
-4.80257e-06
-4.75706e-08
-4.78245e-06
-6.04658e-08
-4.75833e-06
-7.30729e-08
-4.7303e-06
-8.53856e-08
-4.69842e-06
-9.73979e-08
-4.66277e-06
-1.09103e-07
-4.62345e-06
-1.20492e-07
-4.58054e-06
-1.31556e-07
-4.53416e-06
-1.42281e-07
-4.48442e-06
-1.52657e-07
-4.43142e-06
-1.62671e-07
-4.37529e-06
-1.72308e-07
-4.31615e-06
-1.81558e-07
-4.25412e-06
-1.90413e-07
-4.18934e-06
-1.98863e-07
-4.12195e-06
-2.06897e-07
-4.05207e-06
-2.14509e-07
-3.97985e-06
-2.21691e-07
-3.90542e-06
-2.28442e-07
-3.82893e-06
-2.34758e-07
-3.75051e-06
-2.40638e-07
-3.67032e-06
-2.46082e-07
-3.58849e-06
-2.51092e-07
-3.50516e-06
-2.55671e-07
-3.42046e-06
-2.59824e-07
-3.33455e-06
-2.63557e-07
-3.24754e-06
-2.66877e-07
-3.15958e-06
-2.69793e-07
-3.0708e-06
-2.72313e-07
-2.98132e-06
-2.7445e-07
-2.89126e-06
-2.76214e-07
-2.80074e-06
-2.77617e-07
-2.70989e-06
-2.78674e-07
-2.61881e-06
-2.79398e-07
-2.52762e-06
-2.79804e-07
-2.43642e-06
-2.79907e-07
-2.34532e-06
-2.79722e-07
-2.25442e-06
-2.79263e-07
-2.16382e-06
-2.78543e-07
-2.07364e-06
-2.77573e-07
-1.98397e-06
-2.7636e-07
-1.89492e-06
-2.74903e-07
-1.80656e-06
-2.73188e-07
-1.71897e-06
-2.71202e-07
-1.63217e-06
-2.6894e-07
-1.54617e-06
-2.6642e-07
-1.46098e-06
-2.63677e-07
-1.37665e-06
-2.60758e-07
-1.29325e-06
-2.57696e-07
-1.21083e-06
-2.54513e-07
-1.12944e-06
-2.5122e-07
-1.04913e-06
-2.47827e-07
-9.69917e-07
-2.44344e-07
-8.91839e-07
-2.40779e-07
-8.14921e-07
-2.37142e-07
-7.39186e-07
-2.33441e-07
-6.64654e-07
-2.29683e-07
-5.91337e-07
-2.25876e-07
-5.19243e-07
-2.22028e-07
-4.4838e-07
-2.18149e-07
-3.78756e-07
-2.14252e-07
-3.1038e-07
-2.10344e-07
-2.43253e-07
-2.06432e-07
-1.77374e-07
-2.02523e-07
-1.12742e-07
-1.9862e-07
-4.93532e-08
-1.94729e-07
1.27988e-08
-1.90858e-07
7.37184e-08
-1.87012e-07
1.33414e-07
-1.83193e-07
1.91897e-07
-1.79406e-07
2.49182e-07
-1.75655e-07
3.05284e-07
-1.71946e-07
3.60213e-07
-1.68286e-07
4.13977e-07
-1.6468e-07
4.66591e-07
-1.61125e-07
5.18075e-07
-1.57621e-07
5.68448e-07
-1.54171e-07
6.17733e-07
-1.50778e-07
6.65958e-07
-1.47452e-07
7.13168e-07
-1.44205e-07
7.59343e-07
-1.41047e-07
8.04452e-07
-1.37945e-07
8.48541e-07
-1.34853e-07
8.91655e-07
-1.31781e-07
9.33817e-07
-1.28759e-07
9.75047e-07
-1.25803e-07
1.01536e-06
-1.22919e-07
1.05478e-06
-1.2011e-07
1.09333e-06
-1.17374e-07
1.13102e-06
-1.14713e-07
1.16788e-06
-1.12123e-07
1.20393e-06
-1.09605e-07
1.2392e-06
-1.07157e-07
1.27369e-06
-1.0478e-07
1.30745e-06
-1.02471e-07
1.34048e-06
-1.00232e-07
1.37281e-06
-9.80621e-08
1.40447e-06
-9.59607e-08
1.43547e-06
-9.39281e-08
1.46583e-06
-9.19642e-08
1.49559e-06
-9.00691e-08
1.52476e-06
-8.82427e-08
1.55335e-06
-8.64851e-08
1.58141e-06
-8.4796e-08
1.60894e-06
-8.31753e-08
1.63597e-06
-8.16222e-08
1.66251e-06
-8.01357e-08
1.6886e-06
-7.8714e-08
1.71425e-06
-7.73546e-08
1.73947e-06
-7.60536e-08
1.76429e-06
-7.48054e-08
1.78872e-06
-7.3602e-08
1.81277e-06
-7.24322e-08
1.83645e-06
-7.12804e-08
1.85975e-06
-7.01249e-08
1.88267e-06
-6.89359e-08
1.9052e-06
-6.76719e-08
1.92728e-06
-6.62758e-08
1.94887e-06
-6.46673e-08
1.96987e-06
-6.27333e-08
1.99015e-06
-6.03111e-08
2.00951e-06
-5.71599e-08
2.02765e-06
-5.29164e-08
2.04416e-06
-4.699e-08
2.05841e-06
-3.84409e-08
2.06965e-06
-2.55092e-08
2.07699e-06
-5.35106e-09
2.08089e-06
2.75223e-08
8.54949e-08
2.08344e-06
9.37387e-08
-6.17107e-07
6.23965e-08
-5.14963e-07
1.39137e-08
-3.69468e-07
-4.31771e-08
-2.36721e-07
-1.12674e-07
-1.09989e-07
-1.98046e-07
1.23924e-08
-3.02277e-07
1.307e-07
-4.27783e-07
2.44576e-07
-5.7714e-07
3.53762e-07
-7.53732e-07
4.58369e-07
-9.62317e-07
5.58981e-07
-1.20721e-06
6.56888e-07
-1.4872e-06
7.53297e-07
-1.79149e-06
8.4729e-07
-2.10138e-06
9.34518e-07
-2.39724e-06
1.00857e-06
-2.66457e-06
1.06366e-06
-2.89513e-06
1.09653e-06
-3.08562e-06
1.10665e-06
-3.23688e-06
1.09569e-06
-3.35326e-06
1.0667e-06
-3.4413e-06
1.02315e-06
-3.50811e-06
9.68822e-07
-3.56023e-06
9.07519e-07
-3.60313e-06
8.4245e-07
-3.64124e-06
7.76248e-07
-3.67782e-06
7.11028e-07
-3.71488e-06
6.48337e-07
-3.75344e-06
5.89177e-07
-3.79377e-06
5.34069e-07
-3.83568e-06
4.83168e-07
-3.87869e-06
4.36394e-07
-3.92213e-06
3.93514e-07
-3.96534e-06
3.54207e-07
-4.00766e-06
3.18112e-07
-4.04849e-06
2.84857e-07
-4.08735e-06
2.54086e-07
-4.1238e-06
2.25468e-07
-4.1575e-06
1.98702e-07
-4.18819e-06
1.73525e-07
-4.21563e-06
1.49706e-07
-4.23965e-06
1.27051e-07
-4.2601e-06
1.05391e-07
-4.27685e-06
8.45869e-08
-4.2898e-06
6.45177e-08
-4.29886e-06
4.50821e-08
-4.30396e-06
2.6194e-08
-4.30504e-06
7.77655e-09
-4.30208e-06
-1.0244e-08
-4.29512e-06
-2.79288e-08
-4.28421e-06
-4.53057e-08
-4.26941e-06
-6.23716e-08
-4.25076e-06
-7.91138e-08
-4.22831e-06
-9.55196e-08
-4.20212e-06
-1.11576e-07
-4.17225e-06
-1.27267e-07
-4.13878e-06
-1.42579e-07
-4.10178e-06
-1.57494e-07
-4.06134e-06
-1.71995e-07
-4.01755e-06
-1.86064e-07
-3.97053e-06
-1.99683e-07
-3.92037e-06
-2.12832e-07
-3.86718e-06
-2.25493e-07
-3.81109e-06
-2.37649e-07
-3.75221e-06
-2.49289e-07
-3.69068e-06
-2.604e-07
-3.62661e-06
-2.70967e-07
-3.56013e-06
-2.80981e-07
-3.49139e-06
-2.90434e-07
-3.42051e-06
-2.9932e-07
-3.34763e-06
-3.07636e-07
-3.27289e-06
-3.15378e-07
-3.19643e-06
-3.22549e-07
-3.11837e-06
-3.29149e-07
-3.03886e-06
-3.35183e-07
-2.95802e-06
-3.40656e-07
-2.876e-06
-3.45576e-07
-2.79293e-06
-3.49953e-07
-2.70893e-06
-3.53796e-07
-2.62412e-06
-3.57118e-07
-2.53864e-06
-3.59932e-07
-2.4526e-06
-3.62253e-07
-2.36612e-06
-3.64096e-07
-2.27932e-06
-3.65478e-07
-2.1923e-06
-3.66417e-07
-2.10518e-06
-3.66929e-07
-2.01805e-06
-3.67033e-07
-1.93103e-06
-3.66747e-07
-1.8442e-06
-3.66087e-07
-1.75767e-06
-3.6507e-07
-1.67154e-06
-3.6371e-07
-1.58588e-06
-3.62016e-07
-1.50079e-06
-3.59997e-07
-1.41632e-06
-3.57654e-07
-1.33253e-06
-3.54989e-07
-1.24946e-06
-3.52011e-07
-1.16714e-06
-3.48741e-07
-1.08561e-06
-3.45211e-07
-1.00491e-06
-3.41454e-07
-9.25108e-07
-3.37502e-07
-8.46243e-07
-3.33378e-07
-7.68363e-07
-3.291e-07
-6.91506e-07
-3.24684e-07
-6.15705e-07
-3.20145e-07
-5.40989e-07
-3.15495e-07
-4.67383e-07
-3.10748e-07
-3.9491e-07
-3.05914e-07
-3.23587e-07
-3.01006e-07
-2.53428e-07
-2.96035e-07
-1.84442e-07
-2.91013e-07
-1.1664e-07
-2.85951e-07
-5.00299e-08
-2.80862e-07
1.53836e-08
-2.75757e-07
7.95955e-08
-2.70644e-07
1.42604e-07