/*--------------------------------*- C++ -*----------------------------------*\
  =========                 |
  \\      /  F ield         | OpenFOAM: The Open Source CFD Toolbox
   \\    /   O peration     | Website:  https://openfoam.org
    \\  /    A nd           | Version:  8
     \\/     M anipulation  |
\*---------------------------------------------------------------------------*/
FoamFile
{
    version     2.0;
    format      ascii;
    class       volVectorField;
    location    "2700";
    object      wallShearStress;
}
// * * * * * * * * * * * * * * * * * * * * * * * * * * * * * * * * * * * * * //

dimensions      [0 2 -2 0 0 0 0];

internalField   uniform (0 0 0);

boundaryField
{
    inlet
    {
        type            calculated;
        value           uniform (0 0 0);
    }
    outlet
    {
        type            calculated;
        value           uniform (0 0 0);
    }
    upperWall
    {
        type            calculated;
        value           nonuniform List<vector> 
223
(
(-0.582193 -0.392359 0)
(-0.977814 -0.219377 0)
(-0.939335 -0.0567746 0)
(-0.81071 -0.00585779 0)
(-0.734594 0.00331368 0)
(-0.695452 0.00231538 0)
(-0.670941 0.00042419 0)
(-0.653508 -0.00144915 0)
(-0.640532 -0.00256177 0)
(-0.629832 -0.00218857 0)
(-0.620048 -0.00128652 0)
(-0.611044 -0.00107876 0)
(-0.602885 -0.00118787 0)
(-0.596267 -0.00146471 0)
(-0.591002 -0.00119316 0)
(-0.58514 0.00094088 0)
(-0.579694 0.00184747 0)
(-0.574789 0.00131142 0)
(-0.570797 0.0018881 0)
(-0.567676 0.00307628 4.30124e-22)
(-0.564438 0.00273212 0)
(-0.561533 0.00245917 0)
(-0.5589 0.0024039 0)
(-0.556062 0.00237578 4.47283e-22)
(-0.553321 0.00319041 0)
(-0.550325 0.00322046 0)
(-0.547375 0.0035313 0)
(-0.544297 0.00351654 -9.33573e-22)
(-0.541337 0.00302275 9.41676e-22)
(-0.538578 0.00260487 9.51444e-22)
(-0.535876 0.00228134 0)
(-0.533203 0.0019893 -9.73598e-22)
(-0.530559 0.00175287 0)
(-0.527923 0.00157251 9.97545e-22)
(-0.525279 0.00142724 1.00998e-21)
(-0.522624 0.00131644 -1.02272e-21)
(-0.519951 0.00122857 0)
(-0.517264 0.00115995 0)
(-0.514557 0.00110789 0)
(-0.511827 0.00106916 0)
(-0.50907 0.00104085 -1.08827e-21)
(-0.506284 0.00102113 0)
(-0.503467 0.00100837 0)
(-0.500614 0.0010013 1.12917e-21)
(-0.497725 0.000999211 0)
(-0.494794 0.00100122 1.15625e-21)
(-0.491819 0.00100653 -1.16954e-21)
(-0.488797 0.00101452 1.18256e-21)
(-0.485723 0.00102486 0)
(-0.482596 0.00103627 0)
(-0.479413 0.00104783 0)
(-0.476178 0.00105859 1.23074e-21)
(-0.472896 0.00106747 -1.24147e-21)
(-0.469576 0.00107472 0)
(-0.466236 0.0010813 0)
(-0.462889 0.00108776 0)
(-0.459547 0.00109336 0)
(-0.456214 0.00109698 0)
(-0.452891 0.00109776 0)
(-0.449575 0.00109589 0)
(-0.446257 0.00109209 0)
(-0.442926 0.00108731 1.29205e-21)
(-0.439572 0.00108278 -1.29182e-21)
(-0.436184 0.00107938 0)
(-0.432751 0.00107772 0)
(-0.429261 0.00107794 0)
(-0.425708 0.00108027 -1.27843e-21)
(-0.42208 0.00108453 0)
(-0.418372 0.00109034 0)
(-0.41458 0.00109746 0)
(-0.410697 0.00110551 0)
(-0.40672 0.00111401 0)
(-0.402648 0.00112244 -2.43443e-21)
(-0.39848 0.00113024 0)
(-0.394217 0.00113688 0)
(-0.389861 0.00114185 0)
(-0.38542 0.00114492 0)
(-0.380901 0.0011461 0)
(-0.376316 0.00114514 0)
(-0.371676 0.00114172 0)
(-0.366995 0.00113569 2.09532e-21)
(-0.362282 0.00112685 0)
(-0.357545 0.00111529 0)
(-0.352789 0.00110136 0)
(-0.348016 0.00108551 -1.83965e-21)
(-0.343226 0.0010683 0)
(-0.338417 0.00105044 -1.69021e-21)
(-0.333585 0.00103255 0)
(-0.328726 0.00101545 0)
(-0.323831 0.000999914 0)
(-0.319022 0.000992127 -1.351e-21)
(-0.316381 0.00100126 0)
(-0.313657 0.00101515 1.18051e-21)
(-0.310851 0.00102977 1.08981e-21)
(-0.307972 0.00104294 0)
(-0.305027 0.00105385 8.96095e-22)
(-0.30203 0.00106256 0)
(-0.298993 0.00106996 0)
(-0.295932 0.00107699 0)
(-0.292859 0.00108465 -4.54625e-22)
(-0.289791 0.00109258 0)
(-0.286738 0.00110441 -2.05209e-22)
(-0.283715 0.00110485 7.31591e-23)
(-0.280728 0.00110936 0)
(-0.277795 0.00111545 0)
(-0.274919 0.00110634 0)
(-0.272116 0.00111792 0)
(-0.269362 0.00111395 0)
(-0.266699 0.00099425 0)
(-0.264125 0.000829094 0)
(-0.261592 0.000915041 1.15237e-21)
(-0.259391 0.00103981 0)
(-0.257093 0.00134079 0)
(-0.255021 0.00137633 0)
(-0.252894 0.000732168 0)
(-0.250626 0.000479862 0)
(-0.248619 0.00069655 0)
(-0.246504 0.000802372 0)
(-0.244368 0.00096541 0)
(-0.242423 0.000915096 0)
(-0.240342 0.00124373 0)
(-0.238687 0.00122727 0)
(-0.236873 0.00041999 0)
(-0.235056 0.000254762 7.21992e-21)
(-0.233393 0.000340004 0)
(-0.231812 0.000442581 0)
(-0.229973 0.000516887 0)
(-0.228602 0.000505471 -8.80631e-21)
(-0.227142 0.000410891 0)
(-0.225532 0.00040678 0)
(-0.224207 0.000513503 -1.00362e-20)
(-0.222859 0.000624086 0)
(-0.221487 0.000667079 1.0889e-20)
(-0.219919 0.000547622 0)
(-0.218919 0.000496632 0)
(-0.217668 0.000514424 0)
(-0.216328 0.000496905 -1.25878e-20)
(-0.214965 0.000466551 0)
(-0.214113 0.000480234 1.33758e-20)
(-0.212927 0.000512965 0)
(-0.211803 0.000368912 0)
(-0.210889 0.000391919 0)
(-0.209772 0.000524015 0)
(-0.208847 0.000480851 0)
(-0.207884 0.000430382 0)
(-0.207033 0.000358468 0)
(-0.205929 0.000312912 0)
(-0.205232 0.000409981 0)
(-0.204506 0.000405966 0)
(-0.203798 0.000353834 0)
(-0.202839 0.000360625 1.85228e-20)
(-0.202201 0.000370442 -1.88744e-20)
(-0.201514 0.000350051 0)
(-0.200954 0.00032411 0)
(-0.200068 0.00035462 0)
(-0.199549 0.000298799 0)
(-0.199135 0.000278454 -2.09077e-20)
(-0.198418 0.000249875 2.13747e-20)
(-0.197871 0.000277257 -2.17146e-20)
(-0.197309 0.000346641 0)
(-0.197051 0.000321284 -2.25432e-20)
(-0.196274 0.000250893 -4.60881e-20)
(-0.195949 0.000284946 0)
(-0.195223 0.00029876 -4.77702e-20)
(-0.194758 0.000170063 4.84612e-20)
(-0.194766 0.000222743 0)
(-0.194232 0.000301262 0)
(-0.193806 0.000246272 0)
(-0.193384 0.000194733 0)
(-0.193056 0.000223315 0)
(-0.192579 0.000292672 -5.34891e-20)
(-0.192374 0.000309853 0)
(-0.191511 0.000324786 -5.54148e-20)
(-0.191183 0.000294076 0)
(-0.190967 0.00046396 0)
(-0.19046 0.000768386 0)
(-0.189979 0.000887711 0)
(-0.189934 0.00032193 0)
(-0.188794 -0.000166597 6.12033e-20)
(-0.187839 1.16797e-05 0)
(-0.187613 0.00015888 0)
(-0.186674 0.000348419 -6.41194e-20)
(-0.185794 0.000620931 0)
(-0.185228 0.000708626 0)
(-0.184569 0.000559516 0)
(-0.184184 0.000495169 6.82318e-20)
(-0.182661 0.00043975 0)
(-0.181629 0.000481942 0)
(-0.180433 0.000557218 0)
(-0.178577 0.000182783 0)
(-0.175673 -1.13292e-05 -7.76251e-20)
(-0.172612 0.000337593 0)
(-0.169564 0.00052033 0)
(-0.166387 0.000885665 0)
(-0.16202 0.00137675 8.80221e-20)
(-0.15542 0.00161342 0)
(-0.148841 0.00239955 0)
(-0.123834 0.00229039 -1.0772e-19)
(-0.141601 0.00669808 0)
(-0.169665 0.0132022 1.25476e-17)
(-0.187079 0.0170624 2.35283e-17)
(-0.193631 0.0188754 2.26758e-17)
(-0.197305 0.0197213 2.1933e-17)
(-0.201005 0.0203192 2.12028e-17)
(-0.205444 0.0210095 -2.02505e-17)
(-0.209643 0.0215234 -1.95316e-17)
(-0.213829 0.0218729 0)
(-0.218071 0.0220185 -3.6666e-17)
(-0.220219 0.0221824 -1.80784e-17)
(-0.224694 0.0227228 1.03519e-33)
(-0.227507 0.0229059 0)
(-0.231081 0.0233629 -3.22694e-17)
(-0.235467 0.0239488 -3.0655e-17)
(-0.242444 0.0247965 -2.84638e-17)
(-0.249623 0.0254556 -2.40741e-35)
(-0.256929 0.0260725 4.94029e-17)
(-0.263946 0.0266493 2.26468e-17)
(-0.272771 0.027447 1.20371e-35)
(-0.282665 0.0283568 -3.48624e-17)
(-0.291227 0.0290019 -1.58541e-20)
(-0.300798 0.0295572 -3.00927e-36)
(-0.305379 0.0305116 1.34128e-17)
(-0.332966 0.0321996 -7.62534e-18)
)
;
    }
    lowerWall
    {
        type            calculated;
        value           nonuniform List<vector> 
250
(
(-0.653909 0.466638 0)
(-1.14095 0.204678 0)
(-1.03492 0.0379587 0)
(-0.869573 -0.000935958 0)
(-0.786941 -0.00419158 0)
(-0.746063 -0.00160778 0)
(-0.719879 0.00041624 0)
(-0.700646 -0.000651718 0)
(-0.685089 -0.00405591 0)
(-0.671318 -0.00471224 0)
(-0.658933 -0.00298825 0)
(-0.64772 -0.000864265 0)
(-0.637517 0.00142611 0)
(-0.628191 0.00210395 0)
(-0.619323 0.00136803 0)
(-0.611524 0.00135792 0)
(-0.604586 0.0016962 0)
(-0.605071 0.00194398 0)
(-0.00423456 -0.0228299 0)
(-0.00275621 -0.0176457 0)
(-0.000681247 -0.0144976 0)
(0.00193754 -0.0138048 9.02204e-20)
(0.00525951 -0.0152201 -7.86107e-20)
(0.00895565 -0.0208375 6.28308e-20)
(0.012735 -0.0200931 -4.84588e-20)
(0.0256293 -0.0633177 0)
(-0.0840555 -0.144718 0)
(0.000872503 -0.00384023 0)
(-0.0076651 0.0095464 0)
(-0.00851603 0.032821 0)
(-0.00254952 0.044855 0)
(0.00295323 0.0442615 1.82216e-20)
(0.00618259 0.0360633 -1.8965e-20)
(0.00818709 0.0241615 0)
(0.00946038 0.0101612 -5.42254e-20)
(0.00943161 -0.00404174 6.11402e-20)
(0.00793327 -0.0174217 0)
(0.00614119 -0.0291941 0)
(0.00438169 -0.0385614 0)
(0.00268701 -0.0451383 0)
(0.000985934 -0.0488768 0)
(-0.000886967 -0.0495118 0)
(-0.00281941 -0.0463947 0)
(-0.00439773 -0.0399059 0)
(-0.00491411 -0.0307465 0)
(0.00132863 -0.00151197 0)
(0.00133787 0.00652702 0)
(-0.0045091 0.00961836 0)
(-0.00959696 0.00975628 0)
(-0.0133829 0.00829936 0)
(-0.0158891 0.00623508 0)
(-0.017264 0.0040975 1.4957e-21)
(-0.0177827 0.002006 -1.5273e-21)
(-0.0173311 -7.13061e-06 0)
(-0.0160535 -0.00168637 -1.65305e-21)
(-0.014188 -0.00283765 0)
(-0.0120499 -0.0032965 0)
(-0.0100502 -0.00303586 -0)
(-0.00855265 -0.00228019 2.57032e-21)
(-0.00761606 -0.00142294 0)
(-0.00693784 -0.000815735 0)
(-0.00612038 -0.000623332 -3.37823e-21)
(-0.00499281 -0.00100042 0)
(-0.00340844 -0.00238601 0)
(-0.000488443 -0.0050577 0)
(0.00436099 -0.00740374 3.03293e-21)
(0.00994595 -0.0088952 0)
(0.015847 -0.00985004 1.46908e-21)
(0.0218924 -0.010617 0)
(0.0280982 -0.011269 -0)
(0.0344087 -0.0115143 8.44674e-22)
(0.0405411 -0.0113546 0)
(0.0491491 -0.0116033 -7.54025e-22)
(0.0589393 -0.0117553 -0)
(0.0686335 -0.0115827 7.70688e-22)
(0.0780425 -0.011169 0)
(0.0870154 -0.0105841 0)
(0.0954597 -0.00989008 0)
(0.103318 -0.00913661 -0)
(0.110564 -0.0083607 0)
(0.117197 -0.0075896 -8.11144e-22)
(0.123231 -0.00684042 -0)
(0.128686 -0.00612265 1.63307e-21)
(0.133592 -0.00544039 0)
(0.137974 -0.00479414 -1.63494e-21)
(0.14186 -0.00418207 -0)
(0.145272 -0.00360139 -0)
(0.148233 -0.00304946 1.62103e-21)
(0.150758 -0.00252406 0)
(0.152864 -0.00202406 1.60081e-21)
(0.154562 -0.00155024 -1.5875e-21)
(0.155864 -0.0011062 -0)
(0.156782 -0.000698762 -1.55488e-21)
(0.157328 -0.000337747 -1.53585e-21)
(0.157514 -3.97173e-05 -0)
(0.157408 0.000194761 0)
(0.157077 0.000391556 0)
(0.156523 0.000568342 0)
(0.155761 0.000731184 -0)
(0.1548 0.000884243 1.37578e-21)
(0.153648 0.00102837 0)
(0.152312 0.00116413 -1.307e-21)
(0.150799 0.00129179 -0)
(0.149116 0.00141139 -0)
(0.147271 0.00152296 1.19054e-21)
(0.145271 0.00162655 0)
(0.143125 0.00172207 -1.10484e-21)
(0.140842 0.00180939 -0)
(0.138428 0.00188874 0)
(0.135894 0.00196008 -0)
(0.133248 0.00202331 9.16811e-22)
(0.1305 0.00207862 0)
(0.127658 0.00212618 -0)
(0.124732 0.00216613 7.63764e-22)
(0.121731 0.00219864 0)
(0.118664 0.00222389 6.57228e-22)
(0.11554 0.0022421 0)
(0.112368 0.00225349 0)
(0.109158 0.00225846 0)
(0.105917 0.00225722 -4.36141e-22)
(0.102654 0.00225005 -0)
(0.0993775 0.00223723 0)
(0.0960949 0.0022192 -2.65538e-22)
(0.0928135 0.00219628 -2.0809e-22)
(0.0895407 0.0021687 -0)
(0.0862832 0.00213698 -9.26243e-23)
(0.0830471 0.00210141 -0)
(0.0798388 0.00206236 4.66604e-23)
(0.0766635 0.00202023 -0)
(0.0735268 0.00197546 2.79074e-22)
(0.0704329 0.00192858 0)
(0.067386 0.00188007 -5.11755e-22)
(0.0643903 0.0018307 -0)
(0.0614488 0.0017815 0)
(0.0585642 0.00173376 -0)
(0.0557382 0.00168918 9.78519e-22)
(0.0529725 0.00164989 0)
(0.0502672 0.00161807 -1.21395e-21)
(0.0476212 0.00159481 0)
(0.0457832 0.0016035 1.47573e-21)
(0.0442408 0.00162099 1.63424e-21)
(0.0427019 0.00162589 1.79916e-21)
(0.0411746 0.00161302 0)
(0.0396641 0.00158969 0)
(0.0381704 0.00156399 0)
(0.0366922 0.00153815 0)
(0.0352295 0.00151246 0)
(0.0337822 0.00148686 0)
(0.0323514 0.00146133 0)
(0.0309374 0.0014361 0)
(0.0295405 0.00141131 -3.69196e-21)
(0.028161 0.00138711 -3.9676e-21)
(0.0267994 0.00136367 0)
(0.0254555 0.00134065 0)
(0.0241303 0.00131659 0)
(0.0228245 0.00129173 -5.26754e-21)
(0.0215383 0.00126752 0)
(0.0202717 0.00124383 0)
(0.0190248 0.00122076 0)
(0.0177975 0.00119834 0)
(0.0165899 0.00117661 7.53616e-21)
(0.0154021 0.00115565 0)
(0.014234 0.00113556 0)
(0.0130855 0.00111644 -9.45495e-21)
(0.0119565 0.00109833 1.02325e-20)
(0.0108469 0.00108131 0)
(0.00975683 0.00106569 1.20688e-20)
(0.00868607 0.0010521 0)
(0.00763425 0.00104172 -1.44071e-20)
(0.00660073 0.00103483 0)
(0.00558514 0.00103042 0)
(0.00458746 0.0010282 0)
(0.00360726 0.00102849 0)
(0.00264407 0.00103153 0)
(0.00169836 0.00103725 5.5709e-20)
(0.000771638 0.00104283 6.42187e-20)
(-0.000138143 0.00103013 0)
(-0.0010354 0.00098732 0)
(-0.00191718 0.000934937 0)
(-0.00278348 0.000885456 -5.28921e-20)
(-0.00363417 0.000840543 0)
(-0.00446906 0.000799804 0)
(-0.00528853 0.000762746 0)
(-0.00609316 0.00072888 -4.04173e-20)
(-0.00688352 0.000697743 3.83671e-20)
(-0.0076601 0.000668956 0)
(-0.00842335 0.000642214 0)
(-0.00917376 0.000617278 3.3619e-20)
(-0.00991173 0.00059394 3.23786e-20)
(-0.0106377 0.000572041 0)
(-0.0113521 0.000551446 0)
(-0.0120553 0.00053204 -2.93532e-20)
(-0.0127478 0.000513727 2.85256e-20)
(-0.01343 0.000496427 0)
(-0.0141024 0.000480068 0)
(-0.0147653 0.000464589 2.64357e-20)
(-0.0154192 0.000449939 0)
(-0.0160645 0.000436067 0)
(-0.0167018 0.000422934 2.47904e-20)
(-0.0173313 0.000410501 0)
(-0.0179537 0.000398742 2.38743e-20)
(-0.0185694 0.000387617 0)
(-0.0191788 0.000377098 0)
(-0.0197824 0.000367158 0)
(-0.0203807 0.000357767 -2.23585e-20)
(-0.020974 0.000348879 0)
(-0.0215629 0.000340472 0)
(-0.0221477 0.000332476 0)
(-0.0227286 0.000324827 0)
(-0.023306 0.000317465 0)
(-0.0238798 0.000310255 0)
(-0.0244499 0.000303057 -2.03852e-20)
(-0.0250159 0.000295677 -2.01549e-20)
(-0.025577 0.000287854 0)
(-0.0261318 0.000279189 0)
(-0.026678 0.000269156 0)
(-0.0272124 0.000257022 1.93601e-20)
(-0.0277298 0.000241531 0)
(-0.0282215 0.000221293 -3.81344e-20)
(-0.0286785 0.000192258 3.79279e-20)
(-0.0290716 0.000152618 3.78191e-20)
(-0.0294027 7.78688e-05 -3.78576e-20)
(-0.0294844 -3.93915e-05 3.80448e-20)
(-0.0295091 -0.000356566 -3.8397e-20)
(-0.0279745 -0.00061692 0)
(-0.029347 -0.000516266 -2.43313e-18)
(-0.0327708 -0.0013425 -2.26972e-18)
(-0.0364143 -0.0020335 -3.00927e-36)
(-0.0395352 -0.00257622 -4.0608e-18)
(-0.0424852 -0.00301876 -7.75771e-18)
(-0.0455579 -0.00342173 -3.71953e-18)
(-0.0487809 -0.00381915 3.56806e-18)
(-0.0521177 -0.00430361 -6.62038e-35)
(-0.0555963 -0.00475829 6.01853e-36)
(-0.059294 -0.00507365 3.14917e-18)
(-0.0632369 -0.00540147 3.02852e-18)
(-0.0674251 -0.00580455 6.01853e-36)
(-0.071905 -0.00624849 0)
(-0.0767198 -0.00670966 0)
(-0.0819146 -0.00720504 1.83377e-35)
(-0.0875365 -0.00774687 -1.3711e-34)
(-0.0936562 -0.00834727 3.91205e-35)
(-0.100327 -0.00901062 -4.15798e-18)
(-0.107691 -0.00973137 -3.8122e-18)
(-0.116753 -0.0106244 6.01853e-36)
(-0.12757 -0.0116279 6.13665e-18)
(-0.138425 -0.0127347 1.03491e-17)
(-0.153651 -0.0139279 0)
(-0.162851 -0.0152948 -5.09804e-18)
(-0.191965 -0.0169826 -2.40741e-35)
)
;
    }
    frontAndBack
    {
        type            empty;
    }
}


// ************************************************************************* //
