/*--------------------------------*- C++ -*----------------------------------*\
  =========                 |
  \\      /  F ield         | OpenFOAM: The Open Source CFD Toolbox
   \\    /   O peration     | Website:  https://openfoam.org
    \\  /    A nd           | Version:  8
     \\/     M anipulation  |
\*---------------------------------------------------------------------------*/
FoamFile
{
    version     2.0;
    format      ascii;
    class       volScalarField;
    location    "500";
    object      nut;
}
// * * * * * * * * * * * * * * * * * * * * * * * * * * * * * * * * * * * * * //

dimensions      [0 2 -1 0 0 0 0];

internalField   nonuniform List<scalar> 
12225
(
5.54723e-06
1.71069e-05
2.28917e-05
3.38471e-05
3.56241e-05
2.89783e-05
2.13533e-05
1.94122e-05
1.83955e-05
1.56594e-05
3.16533e-05
2.50754e-05
2.77642e-05
2.70375e-05
3.18108e-05
3.44209e-05
3.52092e-05
3.24271e-05
0.000246129
6.38526e-05
4.71204e-05
5.01956e-05
5.01019e-05
4.91812e-05
3.50531e-05
3.4666e-05
3.58645e-05
3.79085e-05
4.47713e-05
4.54824e-05
4.35345e-05
4.6047e-05
4.56058e-05
4.90816e-05
5.1469e-05
5.13671e-05
0.000870569
0.000433241
0.000203223
0.000134079
9.93514e-05
8.5341e-05
7.39297e-05
6.50873e-05
6.15086e-05
5.84893e-05
5.7106e-05
5.48249e-05
5.17755e-05
5.06182e-05
4.83892e-05
4.83267e-05
4.81567e-05
4.84857e-05
0.000898184
0.000797985
0.000573946
0.000417501
0.000323413
0.000267593
0.000236034
0.000207637
0.000190727
0.000175242
0.000164782
0.000153228
0.000145013
0.000136375
0.00013107
0.000125353
0.000122729
0.000117229
0.000869596
0.000864881
0.000795159
0.000705322
0.00061565
0.000541903
0.000496433
0.000452327
0.000422928
0.000392234
0.000371816
0.000348145
0.000332916
0.00031471
0.000304183
0.000290625
0.000284016
0.000272609
0.000854557
0.000855371
0.000846081
0.000816769
0.000775556
0.000730536
0.000699324
0.000664792
0.00064009
0.000610515
0.000589509
0.000563577
0.000546141
0.000524446
0.000511259
0.00049363
0.00048437
0.000469145
0.000850064
0.000853767
0.000851852
0.000845092
0.000831565
0.000813755
0.000800036
0.000783076
0.000770449
0.000753204
0.000739938
0.000722144
0.000709216
0.000692522
0.000681538
0.000666726
0.000658085
0.000644682
0.00085086
0.000851342
0.000850651
0.000849627
0.000845022
0.000838044
0.000831629
0.000824292
0.00081809
0.000809928
0.000802885
0.000792965
0.000785209
0.00077491
0.000767584
0.000757766
0.00075147
0.000741937
0.000851276
0.000850834
0.000850083
0.000849369
0.000847856
0.000845314
0.000842683
0.000839756
0.000836782
0.000833133
0.000829476
0.000825263
0.000821086
0.000815814
0.000811488
0.00080601
0.000801909
0.000796246
0.000851496
0.000850673
0.000849967
0.000849171
0.000848387
0.000847282
0.000846209
0.00084495
0.000843804
0.000842271
0.000840818
0.000838885
0.000837103
0.000834768
0.000832711
0.000830227
0.000828072
0.00082533
0.000851549
0.000850665
0.000849913
0.000849115
0.000848423
0.000847642
0.000846959
0.000846189
0.000845542
0.000844743
0.000844044
0.000843141
0.000842342
0.000841319
0.000840439
0.000839327
0.000838433
0.000837223
0.000851549
0.000850674
0.000849886
0.000849099
0.000848391
0.000847673
0.000847029
0.000846369
0.000845785
0.00084517
0.00084462
0.000844024
0.000843488
0.000842897
0.00084237
0.000841785
0.000841268
0.000840687
0.000851542
0.000850677
0.00084987
0.000849091
0.000848364
0.000847659
0.000847001
0.000846362
0.000845766
0.000845184
0.000844639
0.000844105
0.000843603
0.000843109
0.000842644
0.000842185
0.000841752
0.000841324
0.000851539
0.000850676
0.000849861
0.000849082
0.000848346
0.000847641
0.000846975
0.000846336
0.000845731
0.00084515
0.000844598
0.000844068
0.000843565
0.00084308
0.000842619
0.000842175
0.000841751
0.000841344
0.000851538
0.000850675
0.000849855
0.000849075
0.000848334
0.000847627
0.000846955
0.000846315
0.000845704
0.000845121
0.000844564
0.000844032
0.000843523
0.000843037
0.000842572
0.000842126
0.0008417
0.000841292
0.000851537
0.000850673
0.000849851
0.00084907
0.000848326
0.000847618
0.000846943
0.0008463
0.000845687
0.000845101
0.000844542
0.000844007
0.000843495
0.000843006
0.000842538
0.000842091
0.000841662
0.000841252
0.000851538
0.000850676
0.000849855
0.000849074
0.00084833
0.000847622
0.000846947
0.000846303
0.000845688
0.000845102
0.000844541
0.000844005
0.000843492
0.000843001
0.000842532
0.000842083
0.000841652
0.000841241
0.000851538
0.000850676
0.000849854
0.000849073
0.000848329
0.00084762
0.000846944
0.0008463
0.000845684
0.000845097
0.000844535
0.000843998
0.000843484
0.000842993
0.000842522
0.000842072
0.000841641
0.000841229
0.000851537
0.000850672
0.00084985
0.000849067
0.000848322
0.000847612
0.000846936
0.00084629
0.000845674
0.000845086
0.000844524
0.000843986
0.000843472
0.00084298
0.000842509
0.000842059
0.000841628
0.000841214
0.000851537
0.000850674
0.000849852
0.00084907
0.000848326
0.000847617
0.000846941
0.000846297
0.000845681
0.000845094
0.000844532
0.000843995
0.000843481
0.000842989
0.000842518
0.000842068
0.000841636
0.000841223
0.000851537
0.000850676
0.000849855
0.000849076
0.000848333
0.000847627
0.000846952
0.000846311
0.000845695
0.000845109
0.000844543
0.000844003
0.00084348
0.000842981
0.000842497
0.000842038
0.000841593
0.000841172
0.000851535
0.000850681
0.000849863
0.000849083
0.000848348
0.00084764
0.000846963
0.000846322
0.000845684
0.000845076
0.000844454
0.000843854
0.00084323
0.000842639
0.00084203
0.000841471
0.000840894
0.000840373
0.00085152
0.000850697
0.000849895
0.000849092
0.00084838
0.00084757
0.000846826
0.00084605
0.000845166
0.000844285
0.000843244
0.000842139
0.000840834
0.000839571
0.000838181
0.000836936
0.000835554
0.000834394
0.000851451
0.000850836
0.000850039
0.00084907
0.000847987
0.00084627
0.000844575
0.000842579
0.000839927
0.000837658
0.000834405
0.000830714
0.000826286
0.000822009
0.000817524
0.000813466
0.000809138
0.000805686
0.00085168
0.000851412
0.000849987
0.000847275
0.000841744
0.00083475
0.00082667
0.000818859
0.000809573
0.000799542
0.000788281
0.000776788
0.000764645
0.000753907
0.000742896
0.000733661
0.000724008
0.000716768
0.000850323
0.000847879
0.00084125
0.000821131
0.000794175
0.000769247
0.000742557
0.00071882
0.000693428
0.000670597
0.00064644
0.00062555
0.000604245
0.00058715
0.00056992
0.000556807
0.000543096
0.000533053
0.000833378
0.000827819
0.000754398
0.000674543
0.000606045
0.00055287
0.000506022
0.000469558
0.000435966
0.000409805
0.000384653
0.000364995
0.000345789
0.000331144
0.000316502
0.000305692
0.000294463
0.000286456
0.000715646
0.000570739
0.00041515
0.000318229
0.0002618
0.000225144
0.000198701
0.00018011
0.000164828
0.000153935
0.000143998
0.000136646
0.000129836
0.000124651
0.000119784
0.000115956
0.000112402
0.000109695
0.000296642
0.000123442
9.36441e-05
7.25246e-05
6.43321e-05
6.04057e-05
5.83375e-05
5.72466e-05
5.66864e-05
5.65844e-05
5.67539e-05
5.73051e-05
5.82978e-05
5.93696e-05
6.0803e-05
6.23525e-05
6.32227e-05
6.33997e-05
1.05518e-05
1.5312e-05
1.89317e-05
2.11555e-05
2.24305e-05
2.29107e-05
2.30642e-05
2.30503e-05
2.28286e-05
2.25419e-05
2.2231e-05
2.19174e-05
2.16162e-05
2.13353e-05
2.10789e-05
2.08479e-05
2.06416e-05
2.04617e-05
1.64456e-12
1.85602e-10
9.44099e-10
3.71176e-09
1.23714e-08
3.76732e-08
9.75809e-08
1.92771e-07
3.10753e-07
4.34579e-07
5.44945e-07
6.30107e-07
6.86388e-07
7.05983e-07
6.95713e-07
6.65263e-07
6.10781e-07
5.18277e-07
4.41962e-07
3.75686e-07
3.12408e-07
2.5075e-07
1.91198e-07
1.36057e-07
8.75316e-08
5.05659e-08
2.65674e-08
1.33482e-08
6.83348e-09
3.7656e-09
2.33569e-09
1.83536e-09
2.50997e-09
5.56095e-09
1.30969e-08
7.25078e-08
1.63607e-07
3.32258e-07
4.70064e-07
4.79288e-07
4.36162e-07
3.45509e-07
2.91407e-07
2.92722e-07
3.23243e-07
4.42726e-07
6.10426e-07
1.28894e-06
2.99821e-06
9.45246e-06
2.27788e-05
3.7335e-05
4.63832e-05
4.76848e-05
3.2436e-05
3.37526e-05
3.4445e-05
4.02087e-05
4.07504e-05
3.3118e-05
3.4757e-05
3.60668e-05
3.11607e-05
3.3223e-05
3.36135e-05
3.42373e-05
3.4831e-05
3.54327e-05
3.59798e-05
3.65664e-05
3.71018e-05
3.76619e-05
3.81928e-05
3.87332e-05
3.92583e-05
3.97859e-05
4.03049e-05
4.08237e-05
4.13372e-05
4.18499e-05
4.23589e-05
4.28669e-05
4.33723e-05
4.38769e-05
4.43795e-05
4.48812e-05
4.53814e-05
4.58806e-05
4.63784e-05
4.6875e-05
4.73698e-05
4.78625e-05
4.83526e-05
4.88398e-05
4.93236e-05
4.98038e-05
5.02805e-05
5.07547e-05
5.12292e-05
5.1709e-05
5.22022e-05
5.26919e-05
5.31861e-05
5.36847e-05
5.41884e-05
5.46981e-05
5.52138e-05
5.57364e-05
5.62661e-05
5.68038e-05
5.73498e-05
5.7905e-05
5.84699e-05
5.90454e-05
5.96321e-05
6.02311e-05
6.0843e-05
6.14691e-05
6.21102e-05
6.27676e-05
6.34423e-05
6.4136e-05
6.48494e-05
6.55845e-05
6.6342e-05
6.71238e-05
6.79302e-05
6.87649e-05
6.96497e-05
7.05762e-05
7.15133e-05
7.25132e-05
7.35393e-05
7.46322e-05
7.57848e-05
7.7002e-05
7.82669e-05
7.81947e-05
7.79452e-05
7.76807e-05
7.7405e-05
7.71174e-05
7.68185e-05
7.65093e-05
7.61897e-05
7.58611e-05
7.55253e-05
7.51744e-05
7.48293e-05
7.44576e-05
7.41e-05
7.37111e-05
7.33417e-05
7.29373e-05
7.25586e-05
7.21455e-05
7.17464e-05
7.13386e-05
7.09274e-05
7.05156e-05
7.01012e-05
6.96859e-05
6.92695e-05
6.88523e-05
6.84351e-05
6.8018e-05
6.76023e-05
6.71881e-05
6.67767e-05
6.63679e-05
6.59623e-05
6.55588e-05
6.51574e-05
6.47542e-05
6.43465e-05
6.39255e-05
6.34821e-05
6.29845e-05
6.2376e-05
6.07476e-05
7.11306e-12
1.14562e-09
1.55299e-08
8.35742e-08
3.61479e-07
1.21e-06
2.76505e-06
5.03725e-06
7.79081e-06
1.09236e-05
1.40813e-05
1.69997e-05
1.94574e-05
2.13158e-05
2.23595e-05
2.26576e-05
2.22733e-05
2.15277e-05
1.90559e-05
1.58846e-05
1.21843e-05
8.92021e-06
6.26126e-06
4.19001e-06
2.63187e-06
1.61864e-06
9.91314e-07
6.14884e-07
3.8792e-07
2.57816e-07
1.90972e-07
1.73404e-07
1.90811e-07
3.79128e-07
6.87865e-07
4.21535e-06
9.29872e-06
1.72283e-05
2.24371e-05
2.36008e-05
2.20263e-05
1.93383e-05
1.67469e-05
1.60436e-05
1.66229e-05
1.7237e-05
2.11065e-05
2.93828e-05
4.01507e-05
5.13203e-05
6.27041e-05
7.24829e-05
8.10514e-05
8.83147e-05
9.53948e-05
0.000108131
0.00012004
0.000134413
0.000150635
0.000160988
0.000175392
0.00019068
0.000198784
0.000212928
0.000224478
0.000236153
0.000247439
0.00025815
0.000268635
0.000278674
0.000288498
0.000297999
0.00030731
0.000316386
0.000325297
0.00033403
0.000342621
0.000351069
0.000359391
0.00036759
0.000375674
0.000383647
0.000391513
0.000399275
0.000406935
0.000414496
0.00042196
0.000429328
0.0004366
0.000443778
0.000450859
0.00045784
0.000464714
0.000471469
0.000478088
0.000484541
0.000490788
0.000496764
0.000502377
0.000507497
0.000511963
0.000516492
0.000520812
0.000525056
0.000529161
0.000533153
0.000537017
0.000540756
0.000544364
0.000547841
0.000551184
0.000554391
0.00055746
0.000560387
0.000563173
0.000565814
0.000568309
0.000570657
0.000572856
0.000574905
0.000576802
0.000578548
0.000580139
0.000581577
0.000582858
0.000583981
0.000584943
0.000585738
0.000586359
0.000586835
0.000587144
0.000587319
0.000587211
0.00058709
0.00058681
0.000586545
0.00058632
0.000586222
0.000585983
0.000585602
0.000585086
0.000584438
0.00058366
0.000582753
0.000581717
0.000580547
0.000579225
0.000578019
0.000576337
0.000575003
0.000573059
0.000571534
0.000569361
0.000567659
0.000565322
0.000563226
0.000560932
0.000558542
0.000556123
0.000553611
0.000551046
0.000548418
0.000545732
0.000542987
0.000540186
0.000537333
0.000534434
0.000531493
0.000528516
0.000525505
0.00052246
0.000519372
0.000516244
0.000513021
0.000509668
0.0005061
0.000502185
0.000497607
0.000491602
0.000475122
1.91572e-11
3.27713e-09
6.16874e-08
3.74161e-07
1.05541e-06
2.99099e-06
6.29507e-06
1.09179e-05
1.66187e-05
2.30822e-05
2.99294e-05
3.67165e-05
4.28195e-05
4.78897e-05
5.1671e-05
5.41598e-05
5.5447e-05
5.57307e-05
5.4044e-05
5.10882e-05
4.63128e-05
4.02476e-05
3.30367e-05
2.58679e-05
1.936e-05
1.37689e-05
9.34977e-06
6.21733e-06
3.96348e-06
2.65352e-06
1.90408e-06
1.59085e-06
1.2967e-06
2.7635e-06
5.79103e-06
2.0711e-05
4.18826e-05
5.86482e-05
6.55676e-05
6.18215e-05
4.82351e-05
4.06011e-05
4.17279e-05
4.82544e-05
5.56182e-05
6.57175e-05
7.81333e-05
9.06129e-05
0.000103952
0.000121403
0.000140322
0.000161792
0.000184952
0.000210486
0.000239195
0.000270233
0.000302295
0.000334279
0.000365351
0.000394134
0.000423251
0.000450536
0.000475846
0.00050143
0.0005251
0.000548159
0.000570102
0.000591341
0.000611917
0.000631864
0.000651333
0.00067032
0.000688931
0.000707172
0.000725103
0.000742734
0.000760098
0.000777204
0.00079407
0.000810701
0.000827108
0.000843293
0.000859262
0.000875017
0.000890558
0.000905887
0.000921003
0.000935904
0.000950585
0.000965042
0.000979263
0.000993237
0.00100695
0.00102037
0.00103347
0.00104622
0.00105857
0.00107049
0.00108193
0.00109289
0.00110351
0.00111397
0.00112413
0.00113406
0.00114372
0.00115312
0.00116224
0.00117109
0.00117965
0.00118792
0.0011959
0.00120358
0.00121096
0.00121803
0.00122479
0.00123124
0.00123736
0.00124317
0.00124865
0.00125381
0.00125864
0.00126315
0.00126732
0.00127116
0.00127467
0.00127784
0.00128067
0.00128315
0.0012853
0.00128712
0.00128861
0.00128978
0.00129061
0.00129113
0.00129136
0.0012915
0.00129146
0.00129124
0.00129071
0.00128987
0.00128874
0.00128731
0.00128559
0.00128358
0.0012813
0.00127874
0.00127592
0.00127297
0.00126953
0.00126617
0.00126221
0.0012584
0.00125393
0.0012497
0.00124476
0.00123996
0.00123484
0.00122954
0.00122411
0.00121852
0.0012128
0.00120694
0.00120096
0.00119486
0.00118865
0.00118232
0.0011759
0.0011694
0.00116282
0.00115619
0.00114949
0.0011427
0.00113582
0.00112877
0.00112145
0.00111368
0.00110518
0.00109515
0.00108172
0.00105177
7.05691e-11
1.19309e-08
1.88418e-07
8.00565e-07
2.55021e-06
6.97917e-06
1.3814e-05
2.29826e-05
3.3772e-05
4.50775e-05
5.59864e-05
6.59272e-05
7.44301e-05
8.08754e-05
8.57158e-05
8.8751e-05
8.99104e-05
8.95636e-05
8.78398e-05
8.45205e-05
7.98269e-05
7.41466e-05
6.66315e-05
5.77142e-05
4.79787e-05
3.82561e-05
2.94508e-05
2.21206e-05
1.65583e-05
1.21163e-05
9.38894e-06
7.28573e-06
8.3935e-06
1.41411e-05
3.14436e-05
5.56161e-05
7.33099e-05
7.94525e-05
7.62388e-05
7.36265e-05
7.42604e-05
7.86036e-05
8.69483e-05
9.87686e-05
0.000112319
0.000124942
0.000146034
0.000168142
0.000196039
0.000228498
0.000264351
0.000303853
0.000345626
0.000389468
0.000434591
0.000480097
0.000525027
0.000568802
0.000610924
0.000651406
0.000690682
0.000727972
0.000763758
0.0007986
0.000831767
0.000863938
0.000895019
0.000925253
0.000954705
0.000983467
0.00101163
0.00103925
0.0010664
0.00109309
0.00111938
0.00114528
0.00117082
0.001196
0.00122085
0.00124536
0.00126953
0.00129338
0.0013169
0.00134009
0.00136295
0.00138548
0.00140767
0.00142951
0.00145101
0.00147214
0.0014929
0.00151327
0.00153324
0.00155278
0.00157188
0.00159051
0.00160865
0.00162631
0.00164348
0.0016602
0.00167655
0.00169255
0.00170816
0.00172339
0.00173822
0.00175264
0.00176664
0.00178023
0.00179338
0.00180609
0.00181836
0.00183017
0.00184153
0.00185242
0.00186285
0.0018728
0.00188228
0.00189128
0.0018998
0.00190783
0.00191538
0.00192244
0.00192901
0.00193509
0.00194068
0.00194578
0.00195038
0.00195449
0.00195811
0.00196125
0.00196391
0.0019661
0.00196782
0.00196902
0.00196987
0.00197042
0.00197059
0.00197037
0.00196969
0.00196857
0.00196701
0.00196502
0.0019626
0.00195977
0.00195652
0.00195288
0.00194887
0.00194452
0.00193971
0.00193467
0.00192912
0.00192338
0.00191711
0.00191071
0.00190373
0.00189663
0.00188918
0.00188146
0.00187352
0.00186535
0.00185698
0.00184841
0.00183965
0.0018307
0.00182159
0.00181232
0.0018029
0.00179336
0.00178372
0.00177399
0.00176417
0.00175423
0.00174415
0.00173385
0.0017232
0.00171198
0.0016998
0.00168558
0.00166674
0.0016312
2.40681e-10
3.56623e-08
4.19301e-07
1.99079e-06
6.86911e-06
1.64578e-05
3.04271e-05
4.69786e-05
6.4173e-05
8.03232e-05
9.42803e-05
0.000105224
0.000113321
0.000118842
0.000121839
0.00012289
0.000122299
0.000120332
0.00011719
0.000112834
0.000107348
0.00010122
9.36731e-05
8.48094e-05
7.46579e-05
6.35345e-05
5.23828e-05
4.2382e-05
3.42291e-05
2.7315e-05
2.21567e-05
2.14623e-05
2.89168e-05
4.9146e-05
7.27707e-05
8.70551e-05
9.38137e-05
9.68866e-05
9.98947e-05
0.000105626
0.000115398
0.000130059
0.000141293
0.000155281
0.000178588
0.000207532
0.000241074
0.000279836
0.000324228
0.000372191
0.000423089
0.00047625
0.000530524
0.000585429
0.000640213
0.000694307
0.000747253
0.000798738
0.000848317
0.000896386
0.000942996
0.000988008
0.00103145
0.00107357
0.00111434
0.00115402
0.00119266
0.00123041
0.00126735
0.00130356
0.00133913
0.00137409
0.00140851
0.00144241
0.00147582
0.00150877
0.00154126
0.0015733
0.0016049
0.00163605
0.00166677
0.00169705
0.00172689
0.00175628
0.00178522
0.00181371
0.00184174
0.00186931
0.0018964
0.00192301
0.00194913
0.00197474
0.00199985
0.00202442
0.00204847
0.00207197
0.00209493
0.00211736
0.00213928
0.0021607
0.00218163
0.00220209
0.00222205
0.0022415
0.00226043
0.00227884
0.00229671
0.00231403
0.0023308
0.002347
0.00236264
0.00237769
0.00239216
0.00240604
0.00241933
0.00243202
0.00244412
0.00245561
0.00246649
0.00247677
0.00248644
0.00249551
0.00250396
0.00251181
0.00251905
0.00252568
0.00253171
0.00253713
0.00254196
0.0025462
0.00254984
0.00255291
0.00255538
0.0025572
0.00255865
0.0025596
0.00256003
0.00255993
0.00255928
0.00255809
0.00255637
0.00255412
0.00255135
0.00254806
0.00254427
0.00253999
0.00253526
0.00253006
0.00252438
0.0025183
0.00251171
0.00250475
0.00249728
0.00248948
0.00248116
0.00247253
0.00246352
0.00245418
0.00244453
0.00243459
0.00242439
0.00241394
0.00240324
0.00239231
0.00238115
0.00236979
0.00235824
0.00234653
0.00233468
0.00232269
0.00231057
0.00229831
0.00228587
0.0022732
0.00226015
0.00224652
0.00223188
0.0022152
0.00219346
0.00215764
7.69923e-10
8.77744e-08
1.05855e-06
5.37399e-06
1.74204e-05
3.66082e-05
5.95517e-05
8.27929e-05
0.000102985
0.000118922
0.000130789
0.000139438
0.00014473
0.000147565
0.000148445
0.000147744
0.000145713
0.000142549
0.000138389
0.000133179
0.0001271
0.000120403
0.000112527
0.000103571
9.22581e-05
7.65792e-05
6.14441e-05
4.74995e-05
3.64174e-05
3.23702e-05
3.49067e-05
4.89916e-05
7.22034e-05
9.32254e-05
0.000107362
0.000115911
0.000121711
0.000128646
0.000140085
0.000157584
0.000166577
0.000181329
0.000206014
0.000235773
0.000272674
0.000315689
0.0003639
0.000416797
0.000473164
0.000531768
0.000591999
0.000653126
0.000714436
0.000775502
0.000835854
0.000895188
0.000952995
0.00100933
0.00106455
0.00111812
0.00117018
0.00122073
0.0012699
0.00131778
0.00136447
0.00141009
0.00145472
0.00149847
0.0015414
0.0015836
0.00162511
0.00166598
0.00170625
0.00174594
0.00178507
0.00182365
0.00186169
0.00189919
0.00193615
0.00197257
0.00200844
0.00204376
0.00207853
0.00211275
0.00214641
0.0021795
0.00221202
0.00224398
0.00227535
0.00230615
0.00233635
0.00236596
0.00239498
0.00242338
0.00245118
0.00247838
0.00250497
0.00253098
0.0025564
0.00258124
0.00260551
0.00262919
0.00265227
0.00267475
0.00269662
0.00271786
0.00273847
0.00275844
0.00277776
0.00279643
0.00281443
0.00283175
0.0028484
0.00286437
0.00287966
0.00289426
0.00290818
0.00292141
0.00293394
0.00294579
0.00295695
0.00296742
0.00297721
0.00298631
0.00299473
0.00300246
0.00300952
0.00301591
0.00302166
0.00302673
0.00303112
0.00303489
0.00303795
0.00304032
0.00304227
0.00304361
0.00304433
0.00304446
0.00304398
0.0030429
0.00304124
0.00303898
0.00303616
0.00303276
0.00302881
0.00302431
0.0030193
0.00301376
0.00300771
0.00300116
0.0029941
0.00298656
0.00297852
0.00297002
0.00296103
0.00295162
0.0029418
0.00293159
0.00292103
0.00291013
0.00289892
0.0028874
0.0028756
0.00286352
0.00285116
0.00283856
0.00282574
0.00281272
0.00279951
0.00278615
0.00277263
0.00275895
0.00274509
0.00273098
0.00271653
0.00270154
0.00268563
0.00266789
0.00264558
0.00261171
2.47747e-09
2.25495e-07
2.80532e-06
1.46408e-05
3.79762e-05
6.71891e-05
9.4678e-05
0.00011714
0.00013424
0.000146987
0.000155881
0.000161293
0.000164117
0.000165003
0.000164384
0.000162545
0.000159668
0.000155839
0.000151008
0.000145092
0.000138354
0.000130531
0.000121376
0.000105
8.95852e-05
7.59842e-05
6.41041e-05
5.63104e-05
5.67015e-05
6.61048e-05
8.03918e-05
0.000106055
0.000122616
0.000134995
0.000144105
0.000152547
0.000164374
0.000181284
0.000189195
0.000203957
0.000227563
0.000256493
0.000293535
0.000336648
0.000386507
0.000441364
0.000500017
0.000561555
0.000624985
0.000689602
0.000754875
0.000820276
0.000885368
0.000949872
0.00101315
0.00107533
0.00113688
0.0011968
0.00125543
0.00131265
0.00136852
0.00142306
0.00147637
0.0015285
0.00157955
0.00162958
0.00167869
0.00172693
0.00177437
0.00182107
0.00186707
0.00191241
0.0019571
0.00200116
0.0020446
0.00208743
0.00212964
0.00217122
0.00221218
0.0022525
0.00229218
0.00233122
0.00236961
0.00240734
0.00244442
0.00248083
0.00251659
0.00255169
0.00258613
0.0026199
0.00265301
0.00268545
0.00271723
0.00274834
0.00277878
0.00280855
0.00283765
0.00286607
0.00289382
0.00292092
0.00294736
0.00297314
0.00299825
0.00302268
0.00304643
0.00306949
0.00309186
0.00311351
0.00313446
0.00315469
0.00317421
0.00319302
0.0032111
0.00322844
0.00324504
0.00326091
0.00327603
0.00329041
0.00330405
0.00331695
0.00332911
0.00334053
0.00335122
0.00336118
0.00337041
0.00337891
0.0033867
0.00339377
0.00340021
0.00340586
0.00341082
0.00341512
0.00341864
0.00342149
0.00342383
0.00342551
0.00342654
0.00342692
0.00342667
0.00342579
0.00342429
0.00342218
0.00341948
0.00341624
0.00341244
0.00340807
0.00340314
0.00339767
0.00339166
0.00338513
0.00337806
0.00337047
0.00336235
0.00335374
0.00334463
0.00333506
0.00332505
0.00331462
0.0033038
0.00329261
0.00328106
0.00326918
0.00325697
0.00324445
0.00323162
0.0032185
0.00320513
0.00319153
0.00317771
0.0031637
0.00314952
0.00313515
0.0031206
0.00310581
0.00309072
0.00307519
0.00305889
0.00304111
0.00301973
0.00298899
7.45939e-09
5.97313e-07
7.5654e-06
3.11572e-05
6.52082e-05
9.91096e-05
0.000127222
0.00014799
0.000162253
0.000170909
0.000175274
0.000177038
0.000177082
0.000175791
0.000173475
0.000170282
0.000166167
0.000161048
0.000155043
0.000148283
0.000140592
0.000131559
0.000114105
9.7354e-05
8.3599e-05
7.4727e-05
7.2922e-05
7.71644e-05
8.86436e-05
0.000110361
0.000135527
0.00015807
0.000171403
0.000181424
0.000193345
0.000201865
0.000209616
0.00022334
0.000244439
0.000271606
0.000306517
0.000347746
0.00039607
0.000449978
0.000508874
0.000571071
0.00063558
0.000701691
0.00076877
0.000836354
0.000904042
0.000971493
0.00103814
0.00110392
0.00116933
0.00123355
0.0012967
0.00135859
0.00141928
0.00147873
0.00153699
0.00159407
0.00165004
0.00170495
0.00175887
0.00181184
0.00186394
0.00191522
0.00196572
0.0020155
0.00206459
0.002113
0.00216075
0.00220785
0.00225428
0.00230005
0.00234515
0.00238957
0.00243328
0.00247629
0.00251858
0.00256014
0.00260097
0.00264107
0.00268043
0.00271906
0.00275696
0.00279413
0.00283057
0.0028663
0.0029013
0.00293559
0.00296916
0.00300202
0.00303417
0.0030656
0.00309631
0.00312629
0.00315555
0.00318413
0.003212
0.00323917
0.00326564
0.00329139
0.00331642
0.00334072
0.00336429
0.00338712
0.0034092
0.00343053
0.0034511
0.0034709
0.00348994
0.00350821
0.00352571
0.00354244
0.00355839
0.00357357
0.00358799
0.00360163
0.00361451
0.00362663
0.00363799
0.0036486
0.00365846
0.00366757
0.00367594
0.00368363
0.00369062
0.0036968
0.0037023
0.00370711
0.00371112
0.0037145
0.00371729
0.00371941
0.00372086
0.00372166
0.00372181
0.00372133
0.00372022
0.00371849
0.00371617
0.00371324
0.00370973
0.00370564
0.00370099
0.00369579
0.00369002
0.00368372
0.00367687
0.00366949
0.00366157
0.00365313
0.00364418
0.00363475
0.00362486
0.00361453
0.00360379
0.00359266
0.00358114
0.00356926
0.00355703
0.00354444
0.00353153
0.0035183
0.00350478
0.003491
0.00347698
0.00346274
0.0034483
0.00343366
0.00341883
0.00340378
0.00338848
0.00337282
0.00335674
0.00333953
0.00331954
0.00329252
1.93955e-08
1.4854e-06
1.6746e-05
5.21978e-05
9.2773e-05
0.000127099
0.000152824
0.000170049
0.000180791
0.000186314
0.000188013
0.00018701
0.000184258
0.000180467
0.000176015
0.000171002
0.000165357
0.000159111
0.000152193
0.000144769
0.000136602
0.000125148
0.000113261
0.000106593
0.000101224
9.77406e-05
0.000103425
0.000119196
0.00013923
0.00016051
0.000180283
0.000196447
0.0002078
0.000216772
0.000226364
0.000239263
0.000257919
0.000282491
0.000314256
0.000352517
0.000397514
0.000448369
0.000504791
0.00056547
0.000629366
0.000695279
0.000762522
0.000830605
0.000899109
0.000967704
0.00103601
0.00110356
0.00117082
0.00123742
0.00130312
0.0013678
0.00143143
0.00149396
0.0015554
0.00161574
0.001675
0.00173321
0.00179042
0.00184667
0.00190202
0.0019565
0.00201017
0.00206307
0.00211524
0.00216673
0.00221756
0.00226775
0.00231731
0.00236624
0.00241448
0.00246204
0.00250891
0.00255507
0.00260048
0.00264513
0.00268901
0.00273211
0.00277442
0.00281594
0.0028567
0.00289674
0.00293598
0.00297443
0.00301209
0.00304898
0.0030851
0.00312045
0.00315504
0.00318888
0.00322197
0.00325432
0.00328593
0.00331683
0.00334699
0.00337644
0.00340516
0.00343315
0.00346041
0.00348694
0.00351271
0.00353775
0.00356202
0.00358554
0.0036083
0.00363028
0.00365149
0.00367193
0.00369158
0.00371044
0.00372853
0.00374583
0.00376234
0.00377807
0.00379303
0.0038072
0.00382061
0.00383325
0.00384512
0.00385624
0.0038666
0.00387621
0.00388509
0.00389331
0.00390075
0.00390745
0.00391345
0.00391877
0.00392328
0.00392721
0.00393049
0.0039331
0.00393506
0.00393637
0.00393704
0.00393708
0.00393651
0.00393533
0.00393355
0.00393118
0.00392824
0.00392473
0.00392066
0.00391604
0.00391087
0.00390516
0.00389891
0.00389212
0.0038848
0.00387695
0.00386859
0.00385975
0.00385044
0.00384069
0.00383051
0.00381992
0.00380894
0.00379757
0.00378582
0.0037737
0.00376123
0.00374842
0.00373529
0.00372187
0.00370818
0.00369425
0.00368009
0.00366571
0.00365113
0.00363634
0.00362133
0.00360604
0.00359035
0.00357379
0.00355506
0.00353138
4.31408e-08
3.42712e-06
3.00674e-05
7.58581e-05
0.000120129
0.000153879
0.000175847
0.000189599
0.000196118
0.000197244
0.000194872
0.000190378
0.000184686
0.000178367
0.000171631
0.00016441
0.000156924
0.000148721
0.000140596
0.000132058
0.000123456
0.000115738
0.000110842
0.000111132
0.00011788
0.000130376
0.000146557
0.000164427
0.000182575
0.000199523
0.000213558
0.000225131
0.000237412
0.000251001
0.000268393
0.000290474
0.000318882
0.000353553
0.000394575
0.000441368
0.000493625
0.000550629
0.000611676
0.000675667
0.000741657
0.000808857
0.00087678
0.000945071
0.00101344
0.00108133
0.00114881
0.00121615
0.00128269
0.00134843
0.00141327
0.00147714
0.00154002
0.00160188
0.00166274
0.00172258
0.00178144
0.00183935
0.00189636
0.00195253
0.00200789
0.00206249
0.00211635
0.00216949
0.002222
0.00227391
0.00232525
0.00237604
0.00242629
0.00247604
0.00252538
0.00257411
0.00262214
0.0026694
0.00271587
0.00276153
0.00280634
0.00285031
0.00289341
0.00293565
0.00297703
0.00301752
0.00305719
0.00309607
0.00313417
0.0031715
0.00320807
0.00324388
0.00327894
0.00331327
0.00334685
0.0033797
0.00341183
0.00344323
0.00347391
0.00350385
0.00353306
0.00356153
0.00358927
0.00361626
0.0036425
0.00366799
0.00369273
0.00371671
0.00373992
0.00376236
0.00378402
0.00380491
0.00382502
0.00384434
0.00386289
0.00388064
0.00389762
0.00391381
0.00392922
0.00394387
0.00395774
0.00397086
0.00398321
0.00399481
0.00400567
0.00401578
0.00402519
0.0040339
0.00404185
0.00404909
0.00405564
0.00406149
0.00406661
0.00407113
0.00407499
0.00407819
0.00408075
0.00408268
0.00408398
0.00408468
0.00408477
0.00408428
0.0040832
0.00408156
0.00407935
0.00407659
0.00407329
0.00406946
0.00406509
0.00406019
0.00405475
0.00404879
0.0040423
0.00403529
0.00402778
0.00401979
0.00401133
0.00400243
0.0039931
0.00398335
0.0039732
0.00396264
0.0039517
0.00394036
0.00392865
0.00391658
0.00390417
0.00389144
0.00387842
0.00386513
0.00385159
0.0038378
0.0038238
0.00380958
0.00379516
0.00378053
0.00376559
0.00375002
0.00373276
0.00371265
8.18569e-08
7.0022e-06
4.47926e-05
9.7145e-05
0.000142797
0.00017506
0.000195092
0.000204509
0.000206556
0.000203759
0.000197974
0.000190493
0.000182108
0.000173159
0.000164407
0.000155584
0.000147554
0.00014044
0.000134871
0.000130713
0.000128915
0.000130421
0.00013565
0.000144662
0.000156872
0.000171351
0.000186956
0.000202653
0.00021709
0.000229758
0.000243383
0.000258726
0.000275967
0.000296518
0.000322085
0.000353143
0.000390027
0.000432405
0.000479954
0.000532177
0.000588623
0.000648648
0.000711506
0.000776332
0.000842392
0.000909132
0.000976181
0.00104316
0.00110963
0.00117608
0.00124199
0.00130724
0.00137168
0.00143522
0.00149783
0.00155947
0.00162017
0.00167991
0.00173873
0.00179663
0.00185358
0.00190967
0.00196501
0.00201963
0.0020736
0.00212701
0.00218001
0.0022328
0.0022851
0.00233689
0.00238816
0.00243894
0.00248922
0.002539
0.00258818
0.00263676
0.0026847
0.00273193
0.00277843
0.00282418
0.00286911
0.00291321
0.00295645
0.00299885
0.00304041
0.00308117
0.00312114
0.00316032
0.00319873
0.00323638
0.00327327
0.00330942
0.00334483
0.0033795
0.00341344
0.00344666
0.00347914
0.00351091
0.00354194
0.00357225
0.00360183
0.00363068
0.0036588
0.00368617
0.00371281
0.0037387
0.00376385
0.00378824
0.00381188
0.00383476
0.00385687
0.00387822
0.00389879
0.00391859
0.00393762
0.00395586
0.00397333
0.00399003
0.00400596
0.00402113
0.00403554
0.00404919
0.0040621
0.00407426
0.00408569
0.00409639
0.0041064
0.00411569
0.00412425
0.00413212
0.00413931
0.00414581
0.00415164
0.00415685
0.00416139
0.0041653
0.00416858
0.00417125
0.00417331
0.00417479
0.00417568
0.004176
0.00417577
0.00417498
0.00417366
0.00417181
0.00416943
0.00416653
0.00416312
0.0041592
0.00415475
0.00414979
0.00414431
0.00413832
0.00413183
0.00412488
0.00411747
0.00410962
0.00410134
0.00409264
0.00408354
0.00407402
0.0040641
0.00405377
0.00404305
0.00403196
0.00402051
0.00400872
0.00399661
0.0039842
0.00397151
0.00395855
0.00394535
0.00393194
0.00391832
0.00390452
0.00389049
0.003876
0.00386014
0.00384312
1.30673e-07
1.19511e-05
6.03468e-05
0.000118261
0.000164121
0.000194504
0.000210677
0.000216309
0.000214904
0.000209147
0.000200988
0.00019147
0.000182023
0.000172919
0.000165005
0.00015813
0.000152945
0.000150015
0.000149171
0.000150662
0.000154752
0.000161473
0.000170618
0.000181792
0.00019448
0.000208053
0.000221469
0.000234136
0.000247765
0.000263866
0.000281752
0.000301528
0.000325121
0.000353153
0.000386181
0.000424178
0.000466955
0.000514128