/*--------------------------------*- C++ -*----------------------------------*\
| =========                 |                                                 |
| \\      /  F ield         | OpenFOAM: The Open Source CFD Toolbox           |
|  \\    /   O peration     | Version:  v2012                                 |
|   \\  /    A nd           | Website:  www.openfoam.com                      |
|    \\/     M anipulation  |                                                 |
\*---------------------------------------------------------------------------*/
FoamFile
{
    version     2.0;
    format      ascii;
    class       volScalarField;
    location    "500";
    object      nut;
}
// * * * * * * * * * * * * * * * * * * * * * * * * * * * * * * * * * * * * * //

dimensions      [0 2 -1 0 0 0 0];


internalField   nonuniform List<scalar> 
12225
(
5.31262e-06
8.14056e-06
1.00333e-05
1.11556e-05
1.16646e-05
1.18335e-05
1.18672e-05
1.17393e-05
1.15645e-05
1.13826e-05
1.1206e-05
1.10365e-05
1.08926e-05
1.07462e-05
1.06488e-05
1.05151e-05
1.04762e-05
1.03503e-05
0.000115807
5.6685e-05
4.21375e-05
3.63299e-05
3.35379e-05
3.24922e-05
3.21566e-05
3.26071e-05
3.32127e-05
3.29983e-05
3.26077e-05
3.27882e-05
3.26925e-05
3.30988e-05
3.31722e-05
3.37417e-05
3.39743e-05
3.47397e-05
0.000529882
0.000300835
0.000209678
0.000160499
0.000133279
0.000113878
0.000102268
9.24892e-05
8.60304e-05
7.8932e-05
7.42181e-05
6.91847e-05
6.60282e-05
6.25092e-05
6.04834e-05
5.7962e-05
5.67085e-05
5.49336e-05
0.000777729
0.00066904
0.000541856
0.000441494
0.000380416
0.0003277
0.000295689
0.000264421
0.000245037
0.000222926
0.000209267
0.000193294
0.000183923
0.000172201
0.00016577
0.000156945
0.0001526
0.000145522
0.00083807
0.000815311
0.000768968
0.000696706
0.000643292
0.000584804
0.000545343
0.000502081
0.000473731
0.000441114
0.000420134
0.000395103
0.000379851
0.000360612
0.00034973
0.000334583
0.000327036
0.000314241
0.000850693
0.000843833
0.000835103
0.000811425
0.000788715
0.000754982
0.000729012
0.000695925
0.000671546
0.000642041
0.000621222
0.000596369
0.00057993
0.000559645
0.000547288
0.000530531
0.000521532
0.000506896
0.000851595
0.000850346
0.000848375
0.000842495
0.000836312
0.000824985
0.000814801
0.000799056
0.000785999
0.000768514
0.000754831
0.000737952
0.00072575
0.00071081
0.000700899
0.000687858
0.000680148
0.000668311
0.000851632
0.000850622
0.000850111
0.000848083
0.000846236
0.000842214
0.000837865
0.000832174
0.000825984
0.000817413
0.000809789
0.00080016
0.000792609
0.00078342
0.000776771
0.000768368
0.000762863
0.000754807
0.000851629
0.000850603
0.000850108
0.000849014
0.000848277
0.000846685
0.000845245
0.0008426
0.000840347
0.000836673
0.000832871
0.000828344
0.000824126
0.000819178
0.000815165
0.000810485
0.000806868
0.000802378
0.000851597
0.000850641
0.000849974
0.000849107
0.000848494
0.000847591
0.000846915
0.000845783
0.00084477
0.000843285
0.00084179
0.000839796
0.00083799
0.000835726
0.000833876
0.000831549
0.00082986
0.000827483
0.000851566
0.000850669
0.000849911
0.000849104
0.000848433
0.000847686
0.000847078
0.000846357
0.000845725
0.000844937
0.000844221
0.000843302
0.000842497
0.00084149
0.000840662
0.000839623
0.000838824
0.00083778
0.00085155
0.000850676
0.000849884
0.000849096
0.000848386
0.000847671
0.000847034
0.000846385
0.0008458
0.000845187
0.000844631
0.000844032
0.00084349
0.000842905
0.000842383
0.00084182
0.000841322
0.000840782
0.000851542
0.000850677
0.000849868
0.000849088
0.000848358
0.000847653
0.000846994
0.000846356
0.000845759
0.000845177
0.00084463
0.000844096
0.000843593
0.0008431
0.000842635
0.000842181
0.000841752
0.000841332
0.000851539
0.000850676
0.000849859
0.00084908
0.000848342
0.000847637
0.000846968
0.000846329
0.000845722
0.000845142
0.000844589
0.00084406
0.000843556
0.000843072
0.000842611
0.000842169
0.000841746
0.000841341
0.000851538
0.000850674
0.000849854
0.000849073
0.000848331
0.000847623
0.00084695
0.000846308
0.000845697
0.000845113
0.000844556
0.000844023
0.000843515
0.000843029
0.000842564
0.000842119
0.000841693
0.000841286
0.000851537
0.000850673
0.000849851
0.000849068
0.000848324
0.000847614
0.000846939
0.000846294
0.00084568
0.000845093
0.000844533
0.000843998
0.000843486
0.000842997
0.000842529
0.000842081
0.000841653
0.000841242
0.000851538
0.000850676
0.000849855
0.000849073
0.000848328
0.000847618
0.000846942
0.000846296
0.000845681
0.000845092
0.000844531
0.000843994
0.00084348
0.000842989
0.000842519
0.00084207
0.000841639
0.000841227
0.000851538
0.000850676
0.000849854
0.000849071
0.000848326
0.000847616
0.000846938
0.000846292
0.000845675
0.000845085
0.000844522
0.000843984
0.000843469
0.000842976
0.000842505
0.000842055
0.000841623
0.00084121
0.000851537
0.000850672
0.000849849
0.000849065
0.000848318
0.000847606
0.000846927
0.00084628
0.000845661
0.000845071
0.000844507
0.000843967
0.000843451
0.000842958
0.000842486
0.000842035
0.000841602
0.000841188
0.000851537
0.000850673
0.00084985
0.000849067
0.00084832
0.000847609
0.00084693
0.000846283
0.000845664
0.000845074
0.00084451
0.00084397
0.000843454
0.000842961
0.000842488
0.000842036
0.000841603
0.000841188
0.000851537
0.000850675
0.000849852
0.000849071
0.000848324
0.000847616
0.000846937
0.000846291
0.000845671
0.000845082
0.000844514
0.000843974
0.000843452
0.000842956
0.000842474
0.000842016
0.000841571
0.000841146
0.000851537
0.00085068
0.000849854
0.000849079
0.00084833
0.000847627
0.000846942
0.000846292
0.000845648
0.000845039
0.000844432
0.000843858
0.000843279
0.000842731
0.000842168
0.000841637
0.000841086
0.000840571
0.000851552
0.000850699
0.000849838
0.000849079
0.000848303
0.000847587
0.000846809
0.000846017
0.000845144
0.00084428
0.00084336
0.000842463
0.000841489
0.000840535
0.000839462
0.000838453
0.0008373
0.000836261
0.00085177
0.000850803
0.000849559
0.000848676
0.000847551
0.000846357
0.000844748
0.000842811
0.000840401
0.000837959
0.000835345
0.000832716
0.000829967
0.000826997
0.000823928
0.000820949
0.000817622
0.000814686
0.000853794
0.000851275
0.000846343
0.00084208
0.000838811
0.000832854
0.000828286
0.000821397
0.000812835
0.000804906
0.000796379
0.00078872
0.000780306
0.0007727
0.000764245
0.000756835
0.000748582
0.000741698
0.00085603
0.000841363
0.000816861
0.000798984
0.000791053
0.000775744
0.000754383
0.000733649
0.000711813
0.000693214
0.00067435
0.000658492
0.000641964
0.000628097
0.000613366
0.0006013
0.000588275
0.000578034
0.000863892
0.000789145
0.00070351
0.000639496
0.000621645
0.000585201
0.000545906
0.00051309
0.000482382
0.000458538
0.000435841
0.000418292
0.000400741
0.000387223
0.000373154
0.000362541
0.000351084
0.000342731
0.000926728
0.000554303
0.000418539
0.00035258
0.000303579
0.000268572
0.000240698
0.00022047
0.00020343
0.000190994
0.000179819
0.000171707
0.000163897
0.000158337
0.000152619
0.000148682
0.000144362
0.000141474
0.00038739
0.000153064
0.000109646
8.71546e-05
7.47656e-05
6.75103e-05
6.28568e-05
5.99114e-05
5.78762e-05
5.66455e-05
5.58337e-05
5.55236e-05
5.53947e-05
5.56196e-05
5.58777e-05
5.57255e-05
5.5144e-05
5.45738e-05
6.25235e-06
8.11212e-06
9.64608e-06
1.08731e-05
1.17921e-05
1.24718e-05
1.29422e-05
1.32815e-05
1.35266e-05
1.36933e-05
1.37855e-05
1.38386e-05
1.38555e-05
1.38384e-05
1.37882e-05
1.37345e-05
1.36804e-05
1.36269e-05
3.72522e-10
1.35537e-08
3.48402e-08
6.75234e-08
1.07666e-07
1.55187e-07
2.34442e-07
3.65529e-07
5.60164e-07
8.11938e-07
1.08192e-06
1.35475e-06
1.60711e-06
1.82827e-06
2.01551e-06
2.16611e-06
2.27985e-06
2.35678e-06
2.40125e-06
2.39849e-06
2.37428e-06
2.33615e-06
2.24609e-06
2.10075e-06
1.89308e-06
1.61642e-06
1.27479e-06
8.89111e-07
5.1058e-07
2.18912e-07
6.37675e-08
1.77258e-08
1.38814e-08
1.51475e-08
1.74539e-08
2.06336e-08
2.42168e-08
2.70255e-08
3.16705e-08
4.95548e-08
1.25379e-07
2.84922e-07
5.22863e-07
7.23496e-07
8.44791e-07
8.40127e-07
7.97073e-07
7.15896e-07
6.24007e-07
5.48309e-07
5.46541e-07
6.43734e-07
8.42593e-07
9.1249e-07
1.08606e-06
1.42466e-06
2.83149e-06
7.71595e-06
1.32232e-05
1.80826e-05
2.22251e-05
2.51957e-05
2.66196e-05
2.78712e-05
2.90256e-05
3.01472e-05
3.12307e-05
3.22006e-05
3.31348e-05
3.40034e-05
3.48426e-05
3.56394e-05
3.6413e-05
3.71582e-05
3.78856e-05
3.85929e-05
3.92852e-05
3.99627e-05
4.063e-05
4.12852e-05
4.19327e-05
4.25706e-05
4.3202e-05
4.38256e-05
4.44435e-05
4.50549e-05
4.56608e-05
4.62608e-05
4.68555e-05
4.74443e-05
4.80275e-05
4.86045e-05
4.91752e-05
4.9739e-05
5.02958e-05
5.08454e-05
5.13883e-05
5.19255e-05
5.24597e-05
5.29952e-05
5.35385e-05
5.40828e-05
5.4625e-05
5.51697e-05
5.57163e-05
5.62661e-05
5.68192e-05
5.73761e-05
5.79372e-05
5.85031e-05
5.90743e-05
5.96514e-05
6.02349e-05
6.08255e-05
6.1424e-05
6.2031e-05
6.26475e-05
6.32742e-05
6.39123e-05
6.45627e-05
6.52267e-05
6.59055e-05
6.66007e-05
6.73138e-05
6.80469e-05
6.88021e-05
6.95844e-05
7.03935e-05
7.12163e-05
7.20722e-05
7.21091e-05
7.18771e-05
7.16237e-05
7.13518e-05
7.10651e-05
7.07617e-05
7.04379e-05
7.00971e-05
6.97399e-05
6.93662e-05
6.89767e-05
6.85715e-05
6.81512e-05
6.77162e-05
6.72669e-05
6.68038e-05
6.63278e-05
6.58374e-05
6.53424e-05
6.48208e-05
6.43048e-05
6.37578e-05
6.32216e-05
6.26519e-05
6.20985e-05
6.15094e-05
6.09425e-05
6.03375e-05
5.97597e-05
5.91448e-05
5.8548e-05
5.79342e-05
5.73207e-05
5.67017e-05
5.60794e-05
5.54541e-05
5.48266e-05
5.41976e-05
5.35676e-05
5.29367e-05
5.23046e-05
5.16702e-05
5.10323e-05
5.03887e-05
4.97346e-05
4.90629e-05
4.83693e-05
4.76949e-05
4.71597e-05
4.53304e-05
1.81686e-09
7.01062e-09
4.50406e-08
1.36494e-07
3.9722e-07
1.36606e-06
3.17418e-06
5.82567e-06
9.23826e-06
1.26505e-05
1.64171e-05
2.09054e-05
2.4403e-05
2.73055e-05
2.94722e-05
3.07809e-05
3.12227e-05
3.10696e-05
3.03156e-05
2.80982e-05
2.52928e-05
2.10932e-05
1.68587e-05
1.30556e-05
9.89479e-06
7.27608e-06
5.25442e-06
3.71686e-06
2.49951e-06
1.60554e-06
9.69393e-07
5.69266e-07
3.51557e-07
2.35092e-07
1.74261e-07
1.4384e-07
1.46837e-07
2.46229e-07
6.63047e-07
1.35581e-06
4.80946e-06
1.02958e-05
1.72364e-05
2.17456e-05
2.34714e-05
2.23013e-05
2.06365e-05
1.62865e-05
1.25709e-05
1.13015e-05
1.20404e-05
1.20536e-05
1.14931e-05
1.2535e-05
1.55594e-05
2.05002e-05
2.77754e-05
3.79116e-05
4.74542e-05
5.87314e-05
7.12386e-05
8.49748e-05
9.97657e-05
0.000115197
0.000131148
0.000147146
0.000163044
0.000178501
0.000193426
0.000207665
0.000221207
0.000234042
0.00024604
0.000257695
0.000268568
0.000279142
0.000289278
0.0002989
0.000308278
0.000317312
0.000326124
0.000334688
0.000343061
0.000351244
0.000359262
0.000367125
0.000374846
0.000382432
0.000389892
0.000397229
0.000404449
0.000411549
0.000418527
0.000425375
0.000432076
0.000438607
0.000444929
0.000450986
0.000456694
0.000461938
0.000466566
0.000470956
0.000475273
0.000479444
0.000483505
0.000487437
0.000491245
0.000494924
0.000498473
0.000501888
0.000505168
0.00050831
0.000511312
0.000514173
0.000516889
0.00051946
0.000521884
0.00052416
0.000526285
0.00052826
0.000530083
0.000531754
0.000533273
0.00053464
0.000535859
0.000536932
0.000537869
0.000538704
0.000539437
0.000540144
0.00054093
0.000541574
0.000542078
0.000542381
0.000542594
0.000542727
0.000542706
0.000542527
0.000542227
0.000541799
0.000541248
0.000540575
0.000539782
0.00053887
0.000537838
0.000536685
0.000535398
0.000534174
0.000532534
0.000531247
0.000529344
0.00052788
0.000525767
0.000524135
0.000521837
0.000520057
0.000517609
0.000515707
0.000513154
0.000511089
0.000508588
0.000506219
0.000503766
0.000501282
0.000498762
0.000496211
0.000493637
0.000491045
0.000488441
0.000485827
0.000483197
0.000480544
0.000477851
0.000475103
0.000472225
0.000469136
0.000465684
0.000461397
0.000455333
0.000438738
2.17046e-09
5.72387e-09
6.45789e-08
3.65439e-07
1.09394e-06
2.9828e-06
6.62788e-06
1.15187e-05
1.77169e-05
2.48999e-05
3.27347e-05
4.08514e-05
4.89099e-05
5.61109e-05
6.20953e-05
6.67481e-05
6.98811e-05
7.19603e-05
7.25076e-05
7.18532e-05
6.93778e-05
6.51137e-05
5.95676e-05
5.19645e-05
4.33537e-05
3.48417e-05
2.67073e-05
1.97447e-05
1.41366e-05
9.85951e-06
6.71459e-06
4.3145e-06
2.77801e-06
1.83708e-06
1.31225e-06
1.06367e-06
9.47915e-07
8.60257e-07
3.06568e-06
6.13056e-06
1.78728e-05
3.55952e-05
4.95063e-05
5.75389e-05
6.04321e-05
5.57974e-05
4.66161e-05
3.26948e-05
2.63443e-05
2.68194e-05
2.99568e-05
3.55572e-05
4.26129e-05
5.47593e-05
7.06512e-05
8.68837e-05
0.000106978
0.00013002
0.000158156
0.00019
0.000225117
0.000261932
0.000299956
0.000337654
0.000374657
0.000410024
0.000443668
0.000475279
0.000504974
0.000532815
0.000558868
0.000583616
0.000606801
0.000629224
0.000650603
0.000671052
0.000690796
0.000709867
0.000728424
0.000746465
0.000764087
0.000781302
0.000798163
0.000814686
0.000830899
0.000846816
0.00086245
0.000877812
0.000892907
0.000907735
0.000922296
0.00093658
0.000950575
0.000964262
0.000977613
0.000990597
0.00100317
0.0010153
0.00102693
0.00103806
0.00104877
0.00105925
0.00106949
0.00107946
0.00108917
0.00109861
0.00110777
0.00111665
0.00112524
0.00113354
0.00114154
0.00114923
0.00115662
0.00116369
0.00117045
0.00117689
0.00118301
0.00118879
0.00119425
0.00119938
0.00120418
0.00120865
0.00121279
0.0012166
0.00122008
0.00122325
0.00122613
0.00122873
0.00123106
0.00123317
0.00123506
0.00123663
0.00123787
0.00123867
0.00123918
0.00123963
0.00123961
0.00123931
0.0012387
0.00123779
0.00123661
0.00123514
0.00123339
0.00123137
0.00122909
0.00122654
0.00122376
0.00122081
0.00121743
0.00121413
0.00121022
0.0012065
0.00120212
0.001198
0.00119319
0.00118873
0.00118356
0.00117881
0.00117337
0.00116833
0.0011628
0.00115735
0.00115175
0.00114608
0.00114032
0.0011345
0.00112861
0.00112269
0.00111673
0.00111075
0.00110474
0.00109868
0.00109253
0.00108625
0.00107971
0.00107274
0.00106503
0.00105563
0.00104254
0.00101292
2.18525e-09
1.35863e-08
1.91988e-07
8.67625e-07
2.54473e-06
6.89844e-06
1.39406e-05
2.34886e-05
3.52114e-05
4.81476e-05
6.12831e-05
7.40611e-05
8.55283e-05
9.51942e-05
0.000102528
0.000108173
0.000111893
0.000113756
0.00011408
0.00011301
0.000110597
0.000106424
0.00010137
9.42904e-05
8.57346e-05
7.5338e-05
6.37481e-05
5.17623e-05
4.0474e-05
3.08369e-05
2.2962e-05
1.68946e-05
1.2107e-05
8.74027e-06
6.29891e-06
4.90873e-06
4.23508e-06
4.21399e-06
1.16367e-05
2.31201e-05
4.64098e-05
6.33148e-05
7.27023e-05
7.51152e-05
6.59828e-05
5.38117e-05
5.06915e-05
5.37476e-05
5.77075e-05
6.44303e-05
7.62202e-05
9.37226e-05
0.00011081
0.000136582
0.000164033
0.000199038
0.000239962
0.000286378
0.000337279
0.000390943
0.00044612
0.000501243
0.000555522
0.000607867
0.000658016
0.00070553
0.000750475
0.000792905
0.000832807
0.000870636
0.000906514
0.000941045
0.000973819
0.00100541
0.00103582
0.00106523
0.00109376
0.00112151
0.00114857
0.00117499
0.00120084
0.00122614
0.00125095
0.00127528
0.00129915
0.00132259
0.0013456
0.00136819
0.00139037
0.00141213
0.00143348
0.00145439
0.00147487
0.00149489
0.00151443
0.00153348
0.00155202
0.00157005
0.00158756
0.00160457
0.00162118
0.00163742
0.00165328
0.00166873
0.00168378
0.00169842
0.00171263
0.0017264
0.00173974
0.00175263
0.00176506
0.00177704
0.00178854
0.00179958
0.00181013
0.0018202
0.00182978
0.00183888
0.00184748
0.00185558
0.0018632
0.00187031
0.00187694
0.00188308
0.00188873
0.00189392
0.00189864
0.00190293
0.00190677
0.00191017
0.00191314
0.00191562
0.00191759
0.00191898
0.00192003
0.00192073
0.00192087
0.00192055
0.00191978
0.00191858
0.00191694
0.00191488
0.00191241
0.00190953
0.00190625
0.00190258
0.00189857
0.00189419
0.00188939
0.00188436
0.00187882
0.00187313
0.0018669
0.00186058
0.00185372
0.00184685
0.00183946
0.00183212
0.00182428
0.00181654
0.00180842
0.00180024
0.00179188
0.00178338
0.00177475
0.001766
0.00175716
0.00174825
0.00173928
0.00173027
0.00172121
0.00171207
0.00170281
0.00169336
0.00168358
0.00167324
0.00166197
0.00164854
0.00163036
0.00159555
2.8945e-09
4.27518e-08
4.39787e-07
1.86553e-06
6.51528e-06
1.60681e-05
3.02174e-05
4.79946e-05
6.74702e-05
8.67445e-05
0.000104402
0.000119128
0.00013025
0.000138859
0.000144852
0.000148591
0.000150542
0.000150908
0.000149901
0.000147697
0.000144428
0.000139794
0.000134372
0.000127672
0.000119736
0.000110064
9.87642e-05
8.60315e-05
7.23118e-05
5.8854e-05
4.68482e-05
3.67757e-05
2.85855e-05
2.21532e-05
1.8167e-05
1.43696e-05
1.48151e-05
1.98497e-05
3.71495e-05
6.38099e-05
8.65972e-05
9.53303e-05
9.02188e-05
8.41482e-05
8.16462e-05
8.25154e-05
8.69525e-05
9.5663e-05
0.000110345
0.000128017
0.000147374
0.000177242
0.000212389
0.000256036
0.000304678
0.000361276
0.000421607
0.00048576
0.000551796
0.000618542
0.000684831
0.00074974
0.000812703
0.000873212
0.000931158
0.000986456
0.00103877
0.00108877
0.00113686
0.00118256
0.00122641
0.0012686
0.00130921
0.00134849
0.00138655
0.00142352
0.0014595
0.0014946
0.00152888
0.00156239
0.00159519
0.00162733
0.00165882
0.0016897
0.00171999
0.0017497
0.00177884
0.00180744
0.00183548
0.00186297
0.00188991
0.00191629
0.00194212
0.00196738
0.00199206
0.00201617
0.00203971
0.00206268
0.0020851
0.00210699
0.00212838
0.00214926
0.00216964
0.00218949
0.00220882
0.0022276
0.00224583
0.0022635
0.00228061
0.00229713
0.00231308
0.00232843
0.00234319
0.00235735
0.0023709
0.00238384
0.00239616
0.00240786
0.00241895
0.00242941
0.00243926
0.00244849
0.0024571
0.00246511
0.00247251
0.00247932
0.00248554
0.00249119
0.00249628
0.00250074
0.00250465
0.00250796
0.00251061
0.0025126
0.0025142
0.00251523
0.00251564
0.00251548
0.00251477
0.0025135
0.00251171
0.00250939
0.00250655
0.00250321
0.00249937
0.00249506
0.00249029
0.00248506
0.00247936
0.00247325
0.00246666
0.0024597
0.00245225
0.00244448
0.00243624
0.00242776
0.00241884
0.00240974
0.00240025
0.00239062
0.00238068
0.00237057
0.00236023
0.00234971
0.002339
0.00232813
0.00231712
0.00230601
0.0022948
0.0022835
0.00227212
0.00226063
0.00224901
0.00223717
0.00222498
0.00221222
0.00219849
0.00218265
0.0021617
0.00212685
2.41139e-09
9.95702e-08
1.01051e-06
4.86644e-06
1.64819e-05
3.57054e-05
5.97796e-05
8.60634e-05
0.000110563
0.000130737
0.000146225
0.000158027
0.000166518
0.000172152
0.00017561
0.000177328
0.000177649
0.000176803
0.000174934
0.000172134
0.000168431
0.000163618
0.000158092
0.000151649
0.000143898
0.000134778
0.000124151
0.00011201
9.84979e-05
8.34462e-05
6.77051e-05
5.38321e-05
4.27723e-05
3.39629e-05
2.90459e-05
2.87975e-05
3.62467e-05
5.74424e-05
8.4838e-05
0.000101915
0.00010903
0.00011017
0.000109457
0.000110499
0.000115686
0.000126718
0.000143698
0.000155425
0.00017936
0.000210026
0.000248802
0.000296431
0.000350632
0.000412301
0.000477967
0.000548285
0.00062032
0.000693977
0.00076775
0.000840904
0.000912699
0.00098263
0.00105043
0.0011156
0.00117819
0.0012388
0.00129687
0.00135264
0.00140636
0.00145803
0.00150792
0.00155616
0.00160289
0.00164826
0.00169237
0.00173534
0.00177725
0.00181818
0.00185818
0.00189731
0.00193562
0.00197312
0.00200987
0.00204587
0.00208116
0.00211575
0.00214965
0.00218287
0.00221542
0.00224731
0.00227854
0.00230912
0.00233904
0.00236831
0.00239692
0.00242488
0.00245221
0.0024789
0.00250499
0.00253046
0.00255533
0.00257959
0.00260323
0.00262625
0.00264863
0.00267038
0.00269147
0.00271191
0.00273167
0.00275077
0.00276919
0.00278692
0.00280397
0.00282032
0.00283597
0.00285093
0.00286518
0.00287872
0.00289156
0.0029037
0.00291513
0.00292587
0.00293591
0.00294526
0.00295393
0.00296192
0.00296924
0.00297593
0.00298196
0.00298725
0.00299191
0.00299592
0.00299917
0.00300173
0.00300384
0.00300528
0.00300604
0.00300618
0.00300569
0.00300459
0.0030029
0.00300062
0.00299776
0.00299434
0.00299036
0.00298585
0.00298081
0.00297525
0.00296918
0.00296261
0.00295554
0.002948
0.00293995
0.00293148
0.00292254
0.00291323
0.00290351
0.00289346
0.00288306
0.00287239
0.00286141
0.00285018
0.00283869
0.00282696
0.002815
0.00280283
0.00279049
0.002778
0.00276538
0.00275264
0.00273979
0.00272682
0.0027137
0.00270036
0.00268668
0.00267248
0.00265739
0.00264044
0.00261892
0.0025861
6.08327e-09
2.54376e-07
2.64049e-06
1.34297e-05
3.63035e-05
6.7064e-05
9.91187e-05
0.000126057
0.0001472
0.000163021
0.000175186
0.000183503
0.000189017
0.000192368
0.000194086
0.000194559
0.000194025
0.000192619
0.000190406
0.000187433
0.000183627
0.00017884
0.000173406
0.000167002
0.000159358
0.000145886
0.000129551
0.000114067
9.90736e-05
8.40312e-05
6.89105e-05
5.49753e-05
4.41792e-05
4.00959e-05
4.37041e-05
6.0562e-05
8.7173e-05
0.000110117
0.00012509
0.000132716
0.000135381
0.000137496
0.000143496
0.000156083
0.000168956
0.000180869
0.000205031
0.000235915
0.000275486
0.000323007
0.000378865
0.000442108
0.000510522
0.00058333
0.000658443
0.000735669
0.000813434
0.000891346
0.000968524
0.00104448
0.00111886
0.00119091
0.00126087
0.00132939
0.0013953
0.00145911
0.00152077
0.00158039
0.00163809
0.00169397
0.00174817
0.00180081
0.001852
0.00190184
0.00195043
0.00199785
0.00204416
0.00208941
0.00213367
0.00217696
0.00221932
0.00226079
0.00230139
0.00234115
0.00238007
0.0024182
0.00245553
0.00249208
0.00252788
0.00256291
0.00259721
0.00263076
0.00266359
0.00269569
0.00272707
0.00275774
0.0027877
0.00281694
0.00284547
0.00287331
0.00290046
0.00292692
0.00295268
0.00297775
0.0030021
0.00302574
0.00304866
0.00307085
0.00309231
0.00311304
0.00313302
0.00315226
0.00317076
0.0031885
0.0032055
0.00322174
0.00323724
0.00325201
0.00326602
0.00327928
0.00329178
0.00330355
0.00331457
0.00332485
0.0033344
0.00334323
0.00335134
0.00335879
0.00336549
0.00337143
0.00337669
0.00338126
0.00338502
0.00338811
0.00339066
0.00339251
0.0033937
0.00339424
0.00339413
0.00339338
0.003392
0.00339001
0.00338741
0.00338422
0.00338045
0.00337611
0.00337121
0.00336576
0.00335976
0.00335323
0.00334617
0.00333859
0.0033305
0.00332192
0.00331287
0.00330337
0.00329345
0.00328315
0.00327247
0.00326146
0.00325012
0.00323847
0.00322653
0.0032143
0.0032018
0.00318905
0.00317609
0.00316293
0.00314961
0.00313615
0.00312254
0.00310879
0.00309489
0.00308078
0.00306636
0.00305152
0.00303596
0.0030189
0.00299825
0.00296849
5.34966e-08
7.14226e-07
6.97585e-06
3.00333e-05
6.59418e-05
0.000104063
0.000136408
0.000161445
0.000179498
0.000192065
0.000199456
0.000203458
0.00020524
0.000205616
0.000205099
0.000204004
0.000202513
0.00020064
0.000198236
0.000195062
0.000190994
0.000185971
0.000180067
0.000172875
0.000155693
0.00013918
0.000124131
0.000110115
9.70114e-05
8.47213e-05
7.42122e-05
6.82641e-05
7.04685e-05
8.13267e-05
9.5261e-05
0.000122502
0.00014699
0.000157447
0.000163482
0.000167553
0.000173975
0.000186123
0.0001933
0.000204894
0.000226416
0.000255848
0.000294278
0.000340201
0.000394354
0.000455796
0.000523861
0.000596778
0.000672771
0.000750983
0.000830328
0.000910334
0.000990156
0.00106937
0.00114752
0.00122383
0.00129837
0.0013719
0.0014432
0.00151267
0.0015801
0.00164561
0.00170924
0.00177106
0.00183115
0.0018896
0.0019465
0.00200195
0.00205603
0.00210882
0.00216039
0.00221079
0.00226007
0.00230826
0.0023554
0.00240152
0.00244665
0.0024908
0.002534
0.00257627
0.00261764
0.00265812
0.00269773
0.00273648
0.0027744
0.0028115
0.0028478
0.0028833
0.00291801
0.00295195
0.00298513
0.00301753
0.00304918
0.00308004
0.00311014
0.00313951
0.00316813
0.00319603
0.00322319
0.0032496
0.00327526
0.00330017
0.00332433
0.00334772
0.00337034
0.0033922
0.00341328
0.00343358
0.0034531
0.00347185
0.00348981
0.003507
0.0035234
0.00353903
0.00355387
0.00356794
0.00358124
0.00359377
0.00360553
0.00361654
0.00362679
0.0036363
0.00364508
0.0036532
0.00366049
0.00366704
0.00367289
0.00367804
0.00368236
0.00368606
0.00368913
0.0036915
0.00369318
0.00369418
0.00369452
0.00369421
0.00369326
0.00369168
0.00368948
0.00368668
0.00368328
0.00367929
0.00367472
0.00366959
0.0036639
0.00365765
0.00365085
0.00364352
0.00363565
0.00362727
0.00361839
0.00360905
0.00359926
0.00358905
0.00357844
0.00356746
0.00355613
0.00354445
0.00353243
0.00352009
0.00350745
0.00349453
0.00348136
0.00346796
0.00345435
0.00344057
0.00342662
0.00341251
0.00339823
0.00338377
0.00336918
0.00335428
0.00333884
0.00332225
0.0033029
0.00327674
1.96976e-07
1.76689e-06
1.62699e-05
5.25659e-05
9.65489e-05
0.000134859
0.000164326
0.000185961
0.000200282
0.000208546
0.000212864
0.000214311
0.000213885
0.000212375
0.000210317
0.000208004
0.000205513
0.000202762
0.00019952
0.000195754
0.000191289
0.000185941
0.000179481
0.000161805
0.000145485
0.000130619
0.00011649
0.000103817
9.39784e-05
8.98745e-05
9.1218e-05
9.26214e-05
0.000105545
0.000128548
0.000155119
0.000178583
0.000196932
0.000205278
0.000211651
0.000214469
0.000216952
0.000227124
0.000245456
0.000272093
0.000307466
0.000350723
0.000401752
0.000459614
0.00052423
0.000594493
0.000669132
0.000746546
0.0008256
0.000905637
0.000986007
0.00106626
0.00114588
0.00122432
0.00130116
0.00137714
0.00145147
0.0015242
0.00159512
0.00166431
0.00173175
0.00179749
0.00186158
0.00192407
0.00198502
0.0020445
0.0021026
0.00215937
0.0022149
0.00226923
0.00232242
0.0023745
0.00242547
0.00247537
0.00252422
0.00257203
0.00261881
0.00266457
0.00270932
0.0027531
0.00279591
0.00283778
0.00287875
0.00291887
0.0029581
0.00299645
0.00303394
0.00307057
0.00310638
0.00314137
0.00317554
0.00320892
0.0032415
0.0032733
0.00330433
0.0033346
0.0033641
0.00339284
0.00342081
0.00344801
0.00347444
0.0035001
0.00352497
0.00354907
0.00357237
0.0035949
0.00361663
0.00363757
0.00365773
0.00367709
0.00369566
0.00371345
0.00373044
0.00374665
0.00376208
0.00377673
0.0037906
0.0038037
0.00381604
0.00382762
0.00383844
0.00384851
0.00385788
0.00386655
0.00387439
0.00388153
0.00388796
0.00389369
0.0038986
0.00390293
0.00390659
0.00390956
0.00391184
0.00391346
0.00391443
0.00391475
0.00391444
0.0039135
0.00391195
0.0039098
0.00390705
0.00390372
0.00389982
0.00389535
0.00389032
0.00388473
0.00387858
0.00387189
0.00386466
0.00385691
0.00384865
0.00383991
0.00383071
0.00382108
0.00381103
0.00380058
0.00378974
0.00377854
0.00376697
0.00375505
0.00374279
0.00373022
0.00371737
0.00370425
0.0036909
0.00367733
0.00366356
0.00364961
0.00363548
0.00362117
0.00360665
0.00359188
0.00357671
0.00356067
0.00354249
0.00351945
4.17082e-07
3.89511e-06
3.02689e-05
7.86436e-05
0.000126666
0.000164791
0.000191518
0.000208067
0.000217825
0.000222064
0.000222291
0.000220123
0.000216716
0.000212833
0.000208914
0.000205135
0.000201435
0.000197683
0.000193534
0.00018903
0.000183785
0.000177962
0.0001665
0.000152265
0.000140388
0.000131253
0.000125971
0.000123329
0.00011605
0.000114772
0.000123501
0.000140343
0.000160908
0.000182362
0.000201873
0.000217062
0.000226433
0.000232103
0.000237502
0.000246844
0.000262756
0.000285934
0.000317626
0.000357209
0.00040424
0.000457906
0.000517798
0.000583285
0.000653828
0.000728256
0.000805303
0.000883828
0.000963081
0.00104256
0.00112181
0.00120051
0.00127775
0.00135411
0.00142939
0.00150321
0.00157547
0.00164616
0.00171524
0.00178275
0.00184873
0.00191323
0.00197632
0.00203804
0.00209844
0.00215751
0.0022154
0.00227215
0.00232782
0.00238244
0.00243607
0.00248877
0.00254066
0.00259162
0.00264154
0.00269038
0.00273814
0.00278483
0.00283045
0.00287502
0.00291856
0.00296109
0.00300264
0.0030432
0.00308284
0.0031216
0.00315951
0.00319658
0.00323283
0.00326828
0.00330292
0.00333678
0.00336986
0.00340218
0.00343372
0.00346449
0.00349449
0.00352371
0.00355216
0.00357983
0.00360672
0.00363283
0.00365816
0.0036827
0.00370646
0.00372943
0.00375162
0.00377301
0.00379361
0.00381343
0.00383247
0.00385072
0.00386818
0.00388487
0.00390079
0.00391593
0.00393031
0.00394393
0.00395679
0.0039689
0.00398026
0.00399089
0.00400086
0.00401004
0.00401849
0.00402624
0.0040333
0.00403965
0.00404526
0.00405027
0.0040546
0.00405826
0.00406126
0.00406361
0.00406532
0.0040664
0.00406687
0.00406672
0.00406598
0.00406465
0.00406274
0.00406026
0.00405721
0.00405361
0.00404945
0.00404474
0.00403947
0.00403366
0.00402732
0.00402044
0.00401307
0.0040052
0.00399687
0.0039881
0.00397889
0.00396928
0.00395925
0.00394884
0.00393803
0.00392685
0.0039153
0.00390342
0.00389121
0.00387872
0.00386595
0.00385294
0.00383969
0.00382623
0.00381257
0.00379873
0.0037847
0.00377047
0.00375595
0.00374079
0.00372398
0.00370435
6.35666e-07
7.61502e-06
4.64341e-05
0.000101231
0.000150207
0.000187049
0.000211358
0.000224714
0.000229867
0.000229658
0.000226188
0.000220934
0.00021491
0.000208759
0.000202785
0.000197138
0.000191375
0.000185755
0.000179899
0.000173717
0.000167257
0.000159983
0.000151827
0.000143157
0.000135154
0.000129341
0.000127734
0.00013154
0.000140913
0.000154985
0.000171283
0.000188803
0.000206146
0.000221722
0.000233782
0.000242776
0.000252078
0.000262552
0.000277854
0.000298436
0.00032656
0.000362054
0.000404752
0.000453823
0.000508679
0.00056875
0.000633645
0.000702815
0.000775519
0.000850693
0.00092731
0.00100456
0.0010819
0.00115895
0.00123499
0.00131
0.0013843
0.00145717
0.00152871
0.00159882
0.00166747
0.00173465
0.0018003
0.00186456
0.00192755
0.00198934
0.00205
0.00210964
0.00216842
0.00222659
0.0022838
0.00234003
0.00239529
0.0024496
0.00250301
0.00255554
0.00260714
0.00265781
0.00270754
0.00275627
0.002804
0.00285072
0.00289641
0.00294107
0.00298471
0.00302736
0.00306907
0.00310987
0.00314979
0.00318883
0.00322704
0.00326442
0.00330098
0.00333676
0.00337174
0.00340595
0.00343938
0.00347204
0.00350394
0.00353507
0.00356543
0.00359502
0.00362384
0.00365189
0.00367916
0.00370566
0.00373139
0.00375633
0.0037805
0.0038039
0.00382651
0.00384834
0.0038694
0.00388968
0.00390918
0.00392791
0.00394588
0.00396308
0.00397952
0.0039952
0.00401013
0.00402431
0.00403775
0.00405045
0.00406243
0.00407371
0.00408427
0.00409412
0.00410325
0.00411169
0.00411946
0.00412654
0.00413295
0.00413873
0.00414385
0.00414832
0.00415214
0.00415534
0.00415792
0.00415989
0.00416126
0.00416204
0.00416224
0.00416187
0.00416094
0.00415946
0.00415742
0.00415484
0.00415172
0.00414806
0.00414386
0.0041391
0.00413382
0.00412801
0.0041217
0.00411491
0.00410765
0.00409993
0.00409179
0.00408321
0.00407423
0.00406482
0.00405501
0.00404479
0.0040342
0.00402323
0.00401193
0.0040003
0.00398836
0.00397615
0.00396367
0.00395094
0.00393799
0.00392485
0.00391152
0.00389802
0.0038843
0.00387012
0.0038546
0.00383792
7.98172e-07
1.32187e-05
6.39912e-05
0.000125505
0.00017553
0.000209487
0.000228857
0.000237304
0.000238338
0.000234655
0.000228221
0.000220421
0.000212158
0.000204021
0.000195879
0.000188392
0.000181207
0.000174375
0.000168326
0.000162655