/*--------------------------------*- C++ -*----------------------------------*\
  =========                 |
  \\      /  F ield         | OpenFOAM: The Open Source CFD Toolbox
   \\    /   O peration     | Website:  https://openfoam.org
    \\  /    A nd           | Version:  8
     \\/     M anipulation  |
\*---------------------------------------------------------------------------*/
FoamFile
{
    version     2.0;
    format      ascii;
    class       volScalarField;
    location    "500";
    object      p;
}
// * * * * * * * * * * * * * * * * * * * * * * * * * * * * * * * * * * * * * //

dimensions      [0 2 -2 0 0 0 0];

internalField   nonuniform List<scalar> 
12225
(
-4.1385
-5.05014
-5.44275
-5.56991
-5.70507
-5.85813
-5.99033
-6.09224
-6.17354
-6.24552
-6.31539
-6.38437
-6.45079
-6.51999
-6.59531
-6.67091
-6.75357
-6.84335
-4.42147
-5.07601
-5.40895
-5.53422
-5.66745
-5.81797
-5.95119
-6.05777
-6.14049
-6.21698
-6.29197
-6.36008
-6.42802
-6.50133
-6.57747
-6.65209
-6.7231
-6.78032
-4.65075
-5.079
-5.3932
-5.54375
-5.68044
-5.8258
-5.95358
-6.05626
-6.13956
-6.2175
-6.29178
-6.36025
-6.42854
-6.49933
-6.56975
-6.63625
-6.69645
-6.74184
-4.80235
-5.10797
-5.40313
-5.5616
-5.68984
-5.8235
-5.94441
-6.04455
-6.12861
-6.20612
-6.27939
-6.34831
-6.41614
-6.48416
-6.55033
-6.61213
-6.66745
-6.71084
-4.9238
-5.15699
-5.4205
-5.57724
-5.69892
-5.82438
-5.9408
-6.03925
-6.12317
-6.1999
-6.27237
-6.34099
-6.40748
-6.47257
-6.53513
-6.59313
-6.64457
-6.68582
-5.0366
-5.21162
-5.43772
-5.5904
-5.70864
-5.82747
-5.93906
-6.03502
-6.11797
-6.19382
-6.26534
-6.33301
-6.3978
-6.46018
-6.51942
-6.57389
-6.62197
-6.66143
-5.14206
-5.26954
-5.45876
-5.60423
-5.71873
-5.83073
-5.93688
-6.03006
-6.11186
-6.18682
-6.25725
-6.3237
-6.38674
-6.44666
-6.50293
-6.55439
-6.59986
-6.6381
-5.22404
-5.32089
-5.48143
-5.61777
-5.72799
-5.83407
-5.93534
-6.02588
-6.10637
-6.18026
-6.24949
-6.31461
-6.37603
-6.43394
-6.48795
-6.53722
-6.58096
-6.61833
-5.29077
-5.36707
-5.5042
-5.63109
-5.737
-5.83782
-5.93458
-6.02251
-6.10152
-6.17418
-6.24214
-6.30594
-6.36585
-6.42202
-6.47417
-6.52172
-6.56414
-6.60086
-5.3572
-5.4168
-5.53142
-5.64716
-5.74775
-5.84286
-5.9346
-6.01935
-6.09639
-6.16744
-6.23383
-6.29605
-6.35429
-6.40865
-6.45896
-6.50484
-6.54599
-6.58205
-5.42235
-5.46871
-5.56283
-5.66616
-5.76028
-5.84932
-5.93557
-6.01655
-6.0911
-6.16013
-6.22465
-6.28505
-6.34147
-6.39396
-6.44244
-6.4867
-6.52663
-6.56202
-5.4852
-5.52123
-5.59756
-5.68789
-5.77448
-5.85714
-5.9376
-6.01427
-6.0858
-6.15241
-6.21475
-6.27311
-6.32756
-6.37814
-6.42483
-6.46754
-6.50628
-6.54096
-5.54443
-5.57263
-5.63415
-5.71175
-5.79004
-5.86611
-5.94064
-6.01258
-6.0806
-6.14442
-6.2043
-6.26041
-6.31279
-6.36145
-6.40639
-6.44761
-6.48521
-6.51916
-5.59857
-5.62088
-5.67056
-5.73649
-5.80627
-5.87567
-5.94431
-6.01135
-6.07553
-6.13625
-6.19347
-6.2472
-6.29745
-6.34419
-6.38744
-6.42726
-6.46377
-6.49698
-5.64558
-5.66356
-5.70417
-5.76015
-5.82189
-5.88487
-5.94793
-6.01016
-6.07041
-6.12793
-6.1824
-6.23373
-6.28185
-6.32674
-6.36841
-6.40693
-6.44241
-6.47493
-5.68271
-5.69764
-5.7317
-5.77994
-5.83485
-5.89218
-5.95032
-6.00824
-6.06484
-6.1193
-6.17116
-6.22022
-6.26638
-6.30957
-6.34981
-6.38716
-6.42174
-6.45363
-5.70601
-5.71902
-5.74895
-5.79206
-5.84214
-5.89526
-5.94969
-6.00429
-6.058
-6.10998
-6.1597
-6.20689
-6.25142
-6.29322
-6.3323
-6.36871
-6.40255
-6.43394
-5.70928
-5.72167
-5.75028
-5.79165
-5.83989
-5.89127
-5.94406
-5.99712
-6.04944
-6.10014
-6.1487
-6.19485
-6.23844
-6.27942
-6.3178
-6.35364
-6.38704
-6.41813
-5.69223
-5.70533
-5.73545
-5.77853
-5.82812
-5.88041
-5.93384
-5.9874
-6.04001
-6.09084
-6.13939
-6.18544
-6.22888
-6.26967
-6.30785
-6.34352
-6.37678
-6.40778
-5.66008
-5.67506
-5.7092
-5.75687
-5.81024
-5.8654
-5.9212
-5.97675
-6.03093
-6.08289
-6.13226
-6.17888
-6.2227
-6.26373
-6.30205
-6.33779
-6.37109
-6.40214
-5.61603
-5.63423
-5.6751
-5.72999
-5.7889
-5.84823
-5.90762
-5.96624
-6.02281
-6.07655
-6.12723
-6.17482
-6.21933
-6.26083
-6.29945
-6.33538
-6.3688
-6.39992
-5.5619
-5.58519
-5.63609
-5.7006
-5.76611
-5.83039
-5.89423
-5.95665
-6.01611
-6.07197
-6.12426
-6.17304
-6.21838
-6.26043
-6.29939
-6.33552
-6.36904
-6.40023
-5.49857
-5.5298
-5.59484
-5.67088
-5.74329
-5.81296
-5.88193
-5.94855
-6.01108
-6.06921
-6.12321
-6.17327
-6.21948
-6.26207
-6.30134
-6.33761
-6.37117
-6.40235
-5.42617
-5.46991
-5.55414
-5.64255
-5.72125
-5.79663
-5.87129
-5.94228
-6.0078
-6.06814
-6.12386
-6.17514
-6.22216
-6.26522
-6.30472
-6.34106
-6.37459
-6.40572
-5.34415
-5.40738
-5.51691
-5.61708
-5.70052
-5.78168
-5.86234
-5.93762
-6.00599
-6.06846
-6.12581
-6.17823
-6.22592
-6.26929
-6.30884
-6.34506
-6.3784
-6.40934
-5.25247
-5.34396
-5.48457
-5.59494
-5.68172
-5.76838
-5.85456
-5.93357
-6.00447
-6.06899
-6.12798
-6.18159
-6.23002
-6.27377
-6.31341
-6.34955
-6.38273
-6.41362
-5.15294
-5.28323
-5.45419
-5.57121
-5.66254
-5.75632
-5.84803
-5.9302
-6.00321
-6.06942
-6.1297
-6.18414
-6.23303
-6.2769
-6.3164
-6.35228
-6.38518
-6.41588
-5.03189
-5.23707
-5.42927
-5.54143
-5.63775
-5.7423
-5.84211
-5.92936
-6.00615
-6.07543
-6.13798
-6.1939
-6.24359
-6.2877
-6.32691
-6.36221
-6.39471
-6.42583
-4.83999
-5.21261
-5.43689
-5.5328
-5.62469
-5.73342
-5.83642
-5.92513
-6.00327
-6.07409
-6.13814
-6.1953
-6.24587
-6.29042
-6.32948
-6.3637
-6.39435
-6.42276
-4.57344
-5.13731
-5.42664
-5.53285
-5.6325
-5.74967
-5.85814
-5.9495
-6.02891
-6.1005
-6.16507
-6.22254
-6.27317
-6.31745
-6.35575
-6.38767
-6.41398
-6.43518
-7.36719
-7.3673
-7.36734
-7.36731
-7.367
-7.36578
-7.36327
-7.35994
-7.35678
-7.35478
-7.35493
-7.3574
-7.36169
-7.36702
-7.37263
-7.37784
-7.38211
-7.38502
-7.38656
-7.38711
-7.38692
-7.38621
-7.38521
-7.38422
-7.38345
-7.38302
-7.38284
-7.38275
-7.38256
-7.38218
-7.38165
-7.38096
-7.38005
-7.37885
-7.37747
-7.37623
-7.37583
-7.37691
-7.37943
-7.38263
-7.38556
-7.38779
-7.38958
-7.39136
-7.39363
-7.39684
-7.40048
-7.40352
-7.40583
-7.4098
-7.41933
-7.43812
-7.46575
-7.50082
-7.5433
-7.59435
-7.65347
-7.71866
-7.78849
-7.86097
-7.93397
-8.00557
-8.07478
-8.14074
-8.20245
-8.25959
-8.31203
-8.35971
-8.40269
-8.44106
-8.4749
-8.50429
-8.52931
-8.54998
-8.56634
-8.57838
-8.58609
-8.58944
-8.58838
-8.58287
-8.57285
-8.55827
-8.53908
-8.5152
-8.48657
-8.45314
-8.41484
-8.37161
-8.3234
-8.27015
-8.21181
-8.14832
-8.07964
-8.00572
-7.92652
-7.84198
-7.75208
-7.65688
-7.55649
-7.45088
-7.3396
-7.22247
-7.09966
-6.97126
-6.8373
-6.69781
-6.55281
-6.40233
-6.24641
-6.0851
-5.91845
-5.74654
-5.56944
-5.38724
-5.20003
-5.00792
-4.81103
-4.60947
-4.40337
-4.19288
-3.97812
-3.75925
-3.53643
-3.30981
-3.07957
-2.84588
-2.60892
-2.36889
-2.12595
-1.88031
-1.63217
-1.38175
-1.12931
-0.875067
-0.619259
-0.362173
-0.10401
0.155301
0.415654
0.676662
0.938082
1.19969
1.46127
1.72262
1.98352
2.24377
2.50318
2.76153
3.01864
3.27434
3.52843
3.78076
4.03113
4.27939
4.52537
4.76891
5.00987
5.24814
5.48358
5.71609
5.94555
6.17186
6.39491
6.61459
6.8308
7.04343
7.25238
7.45757
7.65889
7.85627
8.0496
8.2388
8.42376
8.60439
8.78059
8.95232
9.11999
9.28343
9.44574
9.59845
-7.36841
-7.36859
-7.36895
-7.36932
-7.3693
-7.36847
-7.36654
-7.36409
-7.36235
-7.36226
-7.3641
-7.36771
-7.37257
-7.37803
-7.38348
-7.38841
-7.39246
-7.39545
-7.39717
-7.39743
-7.39634
-7.39425
-7.39159
-7.38885
-7.38644
-7.38464
-7.38344
-7.38266
-7.38204
-7.38145
-7.38088
-7.38033
-7.37971
-7.37893
-7.37801
-7.37742
-7.37792
-7.37995
-7.38313
-7.3864
-7.3886
-7.38947
-7.38948
-7.38864
-7.38737
-7.38738
-7.39103
-7.39777
-7.40416
-7.41135
-7.42273
-7.43922
-7.46249
-7.49574
-7.54115
-7.59728
-7.66151
-7.73179
-7.8055
-7.88007
-7.95349
-8.02477
-8.09267
-8.15598
-8.21477
-8.26903
-8.31875
-8.36403
-8.40493
-8.44155
-8.47396
-8.50222
-8.52635
-8.54636
-8.56224
-8.57397
-8.58149
-8.58476
-8.58372
-8.57831
-8.56847
-8.55412
-8.5352
-8.51166
-8.48341
-8.4504
-8.41257
-8.36986
-8.32221
-8.26956
-8.21186
-8.14907
-8.08112
-8.00798
-7.92958
-7.84586
-7.75677
-7.66223
-7.56211
-7.45633
-7.34509
-7.22854
-7.10653
-6.979
-6.84594
-6.70735
-6.56325
-6.41367
-6.25865
-6.09824
-5.93249
-5.76146
-5.58524
-5.4039
-5.21756
-5.02629
-4.83023
-4.62948
-4.42419
-4.21447
-4.00048
-3.78235
-3.56025
-3.33434
-3.10477
-2.87174
-2.63542
-2.39598
-2.15362
-1.90852
-1.66087
-1.41093
-1.15889
-0.904964
-0.649285
-0.392005
-0.133378
0.126127
0.386295
0.647103
0.908338
1.16979
1.43124
1.69248
1.95331
2.21352
2.4729
2.73126
2.9884
3.24416
3.49835
3.75079
4.00131
4.24974
4.49592
4.73968
4.98088
5.2194
5.45511
5.6879
5.91766
6.14428
6.36766
6.58768
6.80423
7.01723
7.22655
7.43213
7.63385
7.83165
8.02543
8.21509
8.4006
8.58188
8.75884
8.93144
9.09985
9.26361
9.42798
9.58005
-7.36971
-7.3697
-7.36973
-7.36981
-7.36988
-7.36991
-7.37014
-7.37106
-7.37316
-7.37657
-7.38108
-7.38635
-7.39193
-7.3974
-7.40238
-7.40658
-7.4098
-7.41193
-7.4129
-7.41264
-7.41118
-7.40868
-7.4053
-7.40126
-7.39681
-7.39224
-7.38785
-7.38389
-7.38057
-7.37796
-7.37599
-7.37442
-7.373
-7.3718
-7.37136
-7.37241
-7.37544
-7.38002
-7.38459
-7.38729
-7.38701
-7.38491
-7.38313
-7.38294
-7.38378
-7.3859
-7.39187
-7.40253
-7.41726
-7.43688
-7.46215
-7.49318
-7.53038
-7.57435
-7.62512
-7.68152
-7.74195
-7.80504
-7.86938
-7.93363
-7.99679
-8.05823
-8.11725
-8.17319
-8.22583
-8.27499
-8.32056
-8.36249
-8.40073
-8.43527
-8.46607
-8.4931
-8.51632
-8.53569
-8.55115
-8.56262
-8.57004
-8.57333
-8.57241
-8.56721
-8.55764
-8.54364
-8.52513
-8.50204
-8.4743
-8.44184
-8.40461
-8.36253
-8.31556
-8.26362
-8.20668
-8.14467
-8.07754
-8.00524
-7.92772
-7.84493
-7.75684
-7.66338
-7.56445
-7.45993
-7.3499
-7.23444
-7.11351
-6.98709
-6.85515
-6.7177
-6.57475
-6.42633
-6.27247
-6.11321
-5.94861
-5.77873
-5.60365
-5.42346
-5.23823
-5.04809
-4.85313
-4.65347
-4.44924
-4.24058
-4.02762
-3.81051
-3.5894
-3.36445
-3.13583
-2.9037
-2.66826
-2.42967
-2.18812
-1.94379
-1.6969
-1.44767
-1.19632
-0.943041
-0.688013
-0.43138
-0.173377
0.0856169
0.345369
0.605776
0.866639
1.12775
1.3889
1.64988
1.91048
2.17049
2.42971
2.68794
2.94499
3.20068
3.45484
3.70729
3.95785
4.20636
4.45263
4.69652
4.93787
5.17655
5.41244
5.64542
5.87538
6.10221
6.32579
6.54603
6.76281
6.97604
7.18559
7.3914
7.59335
7.79137
7.98538
8.17528
8.36097
8.54239
8.71957
8.89251
9.06176
9.22623
9.39336
9.54139
-7.37086
-7.37058
-7.37021
-7.37023
-7.37142
-7.37417
-7.37828
-7.38337
-7.38911
-7.39518
-7.4013
-7.4072
-7.41267
-7.41752
-7.42158
-7.42472
-7.42684
-7.42788
-7.4278
-7.42659
-7.42426
-7.42089
-7.41656
-7.41136
-7.40539
-7.39881
-7.39179
-7.38466
-7.37776
-7.37148
-7.36605
-7.3617
-7.35871
-7.3576
-7.35911
-7.3634
-7.36923
-7.3745
-7.37787
-7.37908
-7.37882
-7.37876
-7.38035
-7.38424
-7.39099
-7.40138
-7.41625
-7.43614
-7.46114
-7.49095
-7.5251
-7.56329
-7.60526
-7.65079
-7.69967
-7.75149
-7.80564
-7.8614
-7.91797
-7.97455
-8.03043
-8.08505
-8.1379
-8.18852
-8.23661
-8.28194
-8.32432
-8.36362
-8.39974
-8.43258
-8.46205
-8.48806
-8.51053
-8.52937
-8.54447
-8.55575
-8.5631
-8.56643
-8.56565
-8.56065
-8.55136
-8.53769
-8.51956
-8.49689
-8.46962
-8.43767
-8.40098
-8.35949
-8.31313
-8.26185
-8.2056
-8.14431
-8.07792
-8.00639
-7.92966
-7.84767
-7.76038
-7.66774
-7.56967
-7.46614
-7.35715
-7.24272
-7.12282
-6.99744
-6.86655
-6.73016
-6.58828
-6.44093
-6.28813
-6.12995
-5.96642
-5.79762
-5.6236
-5.44447
-5.26029
-5.07119
-4.87725
-4.67861
-4.47539
-4.26772
-4.05573
-3.83957
-3.6194
-3.39537
-3.16764
-2.93638
-2.70178
-2.46401
-2.22323
-1.97966
-1.7335
-1.48495
-1.23425
-0.981597
-0.727158
-0.471125
-0.213734
0.0447388
0.304065
0.564082
0.824587
1.08537
1.34623
1.60695
1.86732
2.12714
2.38619
2.64429
2.90124
3.15687
3.41099
3.66344
3.91403
4.16258
4.40894
4.65293
4.8944
5.13323
5.36928
5.60242
5.83256
6.05957
6.28334
6.50378
6.72076
6.93418
7.14393
7.34992
7.55205
7.75025
7.94442
8.1345
8.32041
8.50209
8.67959
8.85287
9.02264
9.1872
9.35509
9.49689
-7.37319
-7.37259
-7.37221
-7.37368
-7.37796
-7.38432
-7.39168
-7.39933
-7.40682
-7.41383
-7.42021
-7.42589
-7.43082
-7.43494
-7.43816
-7.44041
-7.44161
-7.44172
-7.44071
-7.43857
-7.43529
-7.43092
-7.4255
-7.41909
-7.41175
-7.40357
-7.39462
-7.38516
-7.3755
-7.36618
-7.35783
-7.35128
-7.34752
-7.34749
-7.35093
-7.3559
-7.36078
-7.36491
-7.36822
-7.37123
-7.37477
-7.3799
-7.38758
-7.39883
-7.41445
-7.43457
-7.4587
-7.48635
-7.51728
-7.55115
-7.58773
-7.62697
-7.66877
-7.71304
-7.75957
-7.80801
-7.85792
-7.9088
-7.96011
-8.01129
-8.06186
-8.1114
-8.15952
-8.20587
-8.25019
-8.29223
-8.33182
-8.36877
-8.40294
-8.43419
-8.4624
-8.48742
-8.50913
-8.5274
-8.54211
-8.55313
-8.56035
-8.56364
-8.5629
-8.55801
-8.54889
-8.53544
-8.51757
-8.49521
-8.46827
-8.4367
-8.40042
-8.35938
-8.3135
-8.26274
-8.20704
-8.14632
-8.08055
-8.00966
-7.9336
-7.85231
-7.76574
-7.67384
-7.57655
-7.47384
-7.36571
-7.25213
-7.13309
-7.00856
-6.87854
-6.74302
-6.602
-6.45552
-6.30361
-6.1463
-5.98364
-5.8157
-5.64255
-5.46426
-5.28094
-5.09267
-4.89957
-4.70175
-4.49933
-4.29246
-4.08126
-3.86588
-3.64646
-3.42317
-3.19616
-2.96561
-2.73168
-2.49456
-2.25442
-2.01146
-1.76588
-1.51791
-1.26774
-1.01557
-0.761586
-0.506004
-0.249052
0.0090174
0.267996
0.527693
0.787907
1.04843
1.30905
1.56955
1.82974
2.08939
2.34831
2.6063
2.86317
3.11874
3.37284
3.62529
3.8759
4.12451
4.37093
4.615
4.85659
5.09554
5.33172
5.56502
5.79531
6.02249
6.24644
6.46705
6.68421
6.89781
7.10775
7.31394
7.51627
7.71467
7.90905
8.09934
8.28547
8.46739
8.64512
8.81855
8.98837
9.15232
9.3197
9.45472
-7.37749
-7.37658
-7.37714
-7.3817
-7.38923
-7.39776
-7.40638
-7.41463
-7.42221
-7.42903
-7.43511
-7.44042
-7.44491
-7.44851
-7.45115
-7.45276
-7.45329
-7.45271
-7.45099
-7.44813
-7.44413
-7.43901
-7.43281
-7.4255
-7.4171
-7.40772
-7.39748
-7.38661
-7.37551
-7.36489
-7.35558
-7.34891
-7.34582
-7.346
-7.34797
-7.35065
-7.35405
-7.35856
-7.36448
-7.37169
-7.38055
-7.39232
-7.40794
-7.4274
-7.4504
-7.47655
-7.50554
-7.53699
-7.57071
-7.6065
-7.64423
-7.68381
-7.72513
-7.76805
-7.81238
-7.85787
-7.90421
-7.95107
-7.99811
-8.04495
-8.09127
-8.13676
-8.18111
-8.22404
-8.2653
-8.30467
-8.34195
-8.37694
-8.40948
-8.43938
-8.4665
-8.49065
-8.51169
-8.52946
-8.5438
-8.55457
-8.56162
-8.56483
-8.56407
-8.55922
-8.55019
-8.53686
-8.51915
-8.49698
-8.47027
-8.43894
-8.40295
-8.36221
-8.31668
-8.26629
-8.21098
-8.1507
-8.08539
-8.01499
-7.93945
-7.85871
-7.77271
-7.6814
-7.58473
-7.48267
-7.3752
-7.26228
-7.1439
-7.02003
-6.89067
-6.75581
-6.61546
-6.46964
-6.31839
-6.16173
-5.99973
-5.83244
-5.65993
-5.48229
-5.29959
-5.11195
-4.91947
-4.72226
-4.52045
-4.31417
-4.10356
-3.88876
-3.66991
-3.44718
-3.22071
-2.99069
-2.75728
-2.52065
-2.28098
-2.03848
-1.79336
-1.54581
-1.29604
-1.04425
-0.790611
-0.53537
-0.278747
-0.0209796
0.237728
0.497178
0.757166
1.01748
1.27791
1.53824
1.79827
2.05779
2.31659
2.57449
2.83128
3.08681
3.34088
3.59332
3.84395
4.09258
4.33904
4.58317
4.82483
5.06386
5.30014
5.53355
5.76396
5.99127
6.21535
6.4361
6.65341
6.86716
7.07726
7.2836
7.48609
7.68465
7.8792
8.06964
8.25592
8.43797
8.61576
8.78913
8.95869
9.12167
9.28825
9.41666
-7.38279
-7.38236
-7.38517
-7.39247
-7.40133
-7.41012
-7.41848
-7.42629
-7.43347
-7.44
-7.44583
-7.45086
-7.45504
-7.45828
-7.46053
-7.46171
-7.4618
-7.46076
-7.45858
-7.45525
-7.4508
-7.44523
-7.43847
-7.43045
-7.42132
-7.41128
-7.40054
-7.3894
-7.37835
-7.36822
-7.36017
-7.35492
-7.35185
-7.3501
-7.34975
-7.35129
-7.35533
-7.36169
-7.3703
-7.38188
-7.3969
-7.41529
-7.43683
-7.46126
-7.48833
-7.51769
-7.54913
-7.58249
-7.6176
-7.65428
-7.69238
-7.73176
-7.77229
-7.81384
-7.85626
-7.89937
-7.94297
-7.98683
-8.03073
-8.07441
-8.11762
-8.16013
-8.20168
-8.24204
-8.28099
-8.31832
-8.35382
-8.3873
-8.41857
-8.44742
-8.47368
-8.49716
-8.51767
-8.53502
-8.54906
-8.5596
-8.5665
-8.56961
-8.56879
-8.56393
-8.5549
-8.54162
-8.52398
-8.50189
-8.47529
-8.44409
-8.40825
-8.36769
-8.32236
-8.27221
-8.21716
-8.15717
-8.09218
-8.02213
-7.94696
-7.86661
-7.78103
-7.69015
-7.59395
-7.49236
-7.38537
-7.27293
-7.15503
-7.03164
-6.90276
-6.76837
-6.62849
-6.48314
-6.33235
-6.17615
-6.0146
-5.84776
-5.6757
-5.4985
-5.31625
-5.12904
-4.93699
-4.7402
-4.53882
-4.33296
-4.12277
-3.90837
-3.68993
-3.46759
-3.24152
-3.01187
-2.77883
-2.54254
-2.30323
-2.06107
-1.81627
-1.56904
-1.31957
-1.06804
-0.814669
-0.559684
-0.303313
-0.0457699
0.212732
0.471996
0.731808
0.991961
1.25224
1.51243
1.77234
2.03174
2.29045
2.54826
2.80499
3.06046
3.31451
3.56694
3.81756
4.0662
4.31267
4.55683
4.79852
5.0376
5.27393
5.5074
5.7379
5.9653
6.18948
6.41034
6.62775
6.84161
7.0518
7.25825
7.46085
7.65951
7.85416
8.0447
8.23105
8.41312
8.59087
8.76402
8.93314
9.09505
9.26085
9.38311
-7.38689
-7.38777
-7.39323
-7.40158
-7.41009
-7.41824
-7.42605
-7.43344
-7.44035
-7.44667
-7.45231
-7.45717
-7.46116
-7.4642
-7.46623
-7.46719
-7.46705
-7.46578
-7.46337
-7.45983
-7.45516
-7.44929
-7.44213
-7.43385
-7.4247
-7.41482
-7.40445
-7.39407
-7.38447
-7.37635
-7.37
-7.36479
-7.36029
-7.35729
-7.35663
-7.35862
-7.36379
-7.37259
-7.38498
-7.40085
-7.41987
-7.44183
-7.46646
-7.49346
-7.52262
-7.55368
-7.58647
-7.62079
-7.65649
-7.6934
-7.73138
-7.7703
-7.81003
-7.85046
-7.89146
-7.93287
-7.97457
-8.01638
-8.05812
-8.09962
-8.14067
-8.18109
-8.22067
-8.25922
-8.29653
-8.33241
-8.36665
-8.39906
-8.42942
-8.45754
-8.48319
-8.50619
-8.52632
-8.54339
-8.5572
-8.56757
-8.57434
-8.57734
-8.57644
-8.57152
-8.56245
-8.54913
-8.53147
-8.50937
-8.48277
-8.45159
-8.41578
-8.37528
-8.33003
-8.27998
-8.22507
-8.16524
-8.10043
-8.03059
-7.95566
-7.87557
-7.79027
-7.6997
-7.6038
-7.50254
-7.39586
-7.28375
-7.16617
-7.0431
-6.91453
-6.78045
-6.64087
-6.49582
-6.34532
-6.18941
-6.02814
-5.86159
-5.68981
-5.51288
-5.3309
-5.14397
-4.95219
-4.75568
-4.55457
-4.34898
-4.13906
-3.92494
-3.70678
-3.4847
-3.25889
-3.02951
-2.7967
-2.56066
-2.32158
-2.07967
-1.83511
-1.58809
-1.33883
-1.0875
-0.834321
-0.57953
-0.323345
-0.065971
0.192377
0.451497
0.711173
0.971199
1.23136
1.49144
1.75124
2.01054
2.26916
2.52689
2.78356
3.03899
3.29301
3.54542
3.79603
4.04465
4.29111
4.53526
4.77696
5.01605
5.25242
5.48593
5.71648
5.94395
6.1682
6.38913
6.6066
6.82052
7.03078
7.23729
7.43996
7.6387
7.83342
8.024
8.21037
8.3924
8.57001
8.74287
8.91148
9.07231
9.2374
9.35411
-7.38807
-7.39063
-7.39764
-7.40567
-7.4135
-7.42115
-7.42862
-7.43579
-7.44255
-7.44878
-7.45437
-7.4592
-7.46316
-7.46618
-7.4682
-7.46915
-7.46901
-7.46775
-7.46536
-7.46183
-7.45711
-7.45115
-7.44404
-7.43604
-7.42733
-7.41819
-7.40905
-7.40042
-7.39267
-7.38579
-7.37956
-7.3739
-7.36925
-7.36663
-7.36687
-7.37051
-7.37792
-7.38911
-7.40375
-7.4217
-7.44264
-7.46629
-7.49238
-7.52065
-7.55085
-7.58276
-7.61618
-7.65094
-7.68685
-7.72378
-7.76158
-7.80012
-7.83928
-7.87894
-7.91898
-7.9593
-7.99976
-8.04024
-8.08059
-8.12066
-8.16032
-8.19938
-8.23769
-8.27507
-8.31133
-8.34628
-8.37974
-8.41148
-8.44129
-8.46895
-8.49426
-8.51697
-8.53689
-8.55379
-8.56746
-8.57771
-8.58436
-8.58725
-8.58625
-8.58122
-8.57205
-8.55863
-8.54087
-8.51867
-8.49197
-8.4607
-8.42481
-8.38425
-8.33898
-8.28893
-8.23404
-8.17426
-8.10953
-8.03979
-7.96498
-7.88503
-7.79989
-7.70949
-7.61377
-7.51268
-7.4062
-7.29427
-7.17687
-7.05398
-6.92558
-6.79167
-6.65226
-6.50736
-6.35701
-6.20125
-6.04014
-5.87373
-5.70209
-5.52531
-5.34347
-5.15669
-4.96504
-4.76869
-4.56773
-4.36231
-4.15255
-3.9386
-3.72059
-3.49869
-3.27305
-3.04382
-2.81117
-2.57529
-2.33637
-2.09462
-1.85022
-1.60336
-1.35423
-1.10304
-0.850009
-0.595365
-0.339312
-0.0820667
0.176168
0.435173
0.694743
0.95466
1.21472
1.4747
1.7344
1.99361
2.25215
2.50981
2.76641
3.02178
3.27577
3.52815
3.77873
4.02732
4.27376
4.51788
4.75956
4.99865
5.23502
5.46855
5.69913
5.92664
6.15094
6.37189
6.5894
6.80335
7.01365
7.2202
7.4229
7.62168
7.81644
8.00703
8.19337
8.37531
8.55274
8.72525
8.8933
9.05308
9.21751
9.32938
-7.38478
-7.38872
-7.39589
-7.40337
-7.41088
-7.41836
-7.42573
-7.43288
-7.4397
-7.44604
-7.45177
-7.45677
-7.46093
-7.46416
-7.46638
-7.46753
-7.46757
-7.46646
-7.4642
-7.46078
-7.45617
-7.45041
-7.44371
-7.43633
-7.42855
-7.42069
-7.41299
-7.40553
-7.3984
-7.39171
-7.38563
-7.38054
-7.37708
-7.37602
-7.37792
-7.38317
-7.39197
-7.40435
-7.4201
-7.43904
-7.4609
-7.48537
-7.51217
-7.54105
-7.57177
-7.60411
-7.63786
-7.67285
-7.70891
-7.74588
-7.78361
-7.82196
-7.86082
-7.90007
-7.9396
-7.97931
-8.01909
-8.05882
-8.09838
-8.13767
-8.17653
-8.21485
-8.25246
-8.2892
-8.32491
-8.3594
-8.39247
-8.42391
-8.45347
-8.48094
-8.50609
-8.52869
-8.54851
-8.56531
-8.5789
-8.58905
-8.5956
-8.59838
-8.59726
-8.5921
-8.58279
-8.56922
-8.5513
-8.52893
-8.50204
-8.47059
-8.43452
-8.39382
-8.34842
-8.29827
-8.24331
-8.18348
-8.11872
-8.04898
-7.97419
-7.89428
-7.80919
-7.71885
-7.6232
-7.52219
-7.41578
-7.30393
-7.18661
-7.06379
-6.93545
-6.80159
-6.66223
-6.51738
-6.36707
-6.21136
-6.05028
-5.88391
-5.71232
-5.53558
-5.35379
-5.16704
-4.97545
-4.77915
-4.57826
-4.37292
-4.16325
-3.94939
-3.73148
-3.50967
-3.28413
-3.055
-2.82244
-2.58666
-2.34785
-2.10621
-1.86191
-1.61516
-1.36613
-1.11505
-0.862126
-0.607592
-0.351644
-0.0944972
0.163641
0.422551
0.682026
0.941846
1.2018
1.46168
1.72129
1.9804
2.23885
2.49642
2.75295
3.00827
3.26221
3.51457
3.76511
4.01365
4.26003
4.50411
4.74574
4.9848
5.22115
5.45467
5.68526
5.9128
6.13712
6.3581
6.57561
6.78957
6.99987
7.20643
7.40916
7.60796
7.80273
7.99331
8.17958
8.36139
8.5386
8.71072
8.8782
9.03698
9.20077
9.30852
-7.37505
-7.37964
-7.38652
-7.394
-7.40171
-7.4094
-7.41696
-7.42433
-7.43141
-7.43806
-7.44414
-7.44949
-7.45399
-7.45754
-7.46005
-7.46148
-7.46177
-7.46091
-7.4589
-7.45574
-7.45152
-7.44636
-7.44045
-7.43398
-7.42712
-7.42003
-7.41287
-7.40577
-7.39889
-7.39254
-7.38715
-7.38317
-7.38104
-7.38133
-7.38453
-7.39096
-7.40078
-7.41401
-7.43052
-7.45011
-7.47251
-7.49745
-7.52467
-7.55393
-7.585
-7.61765
-7.65171
-7.68696
-7.72324
-7.76038
-7.79821
-7.83661
-7.87547
-7.91465
-7.95405
-7.99356
-8.0331
-8.07256
-8.11183
-8.15083
-8.18941
-8.22745
-8.26481
-8.30134
-8.33687
-8.37122
-8.40418
-8.43556
-8.4651
-8.49258
-8.51775
-8.54037
-8.56019
-8.57699
-8.59053
-8.60061
-8.60707
-8.60973
-8.60846
-8.60313
-8.59363
-8.57986
-8.56171
-8.5391
-8.51195
-8.48022
-8.4439
-8.40295
-8.35735
-8.30702
-8.2519
-8.19194
-8.12708
-8.05726
-7.98242
-7.90247
-7.81735
-7.72698
-7.63132
-7.5303
-7.42389
-7.31204
-7.19472
-7.07188
-6.94353
-6.80965
-6.67026
-6.52538
-6.37504
-6.21929
-6.05819
-5.89179
-5.72017
-5.54341
-5.3616
-5.17483
-4.98323
-4.78692
-4.58606
-4.38075
-4.17113
-3.95731
-3.73946
-3.51772
-3.29224
-3.06317
-2.83068
-2.59496
-2.35623
-2.11466
-1.87046
-1.62379
-1.37486
-1.12386
-0.871042
-0.616602
-0.360755
-0.1037
0.154339
0.413155
0.672527
0.932248
1.1921
1.45188
1.71137
1.97039
2.22874
2.48622
2.74267
2.99791
3.25183
3.50415
3.75462
4.00309
4.24939
4.4934
4.73497
4.97398
5.21029
5.44379
5.67438
5.90194
6.12627
6.34724
6.56474
6.77869
6.98898
7.19554
7.39826
7.59708
7.79185
7.98239
8.16858
8.35023
8.52717
8.69888
8.86579
9.02363
9.18679
9.29115
-7.35734
-7.36193
-7.36899
-7.37725
-7.38568
-7.39385
-7.40179
-7.40951
-7.41701
-7.42415
-7.43073
-7.43657
-7.44151
-7.44547
-7.44838
-7.45019
-7.45087
-7.45043
-7.44887
-7.44624
-7.44261
-7.43809
-7.43281
-7.42691
-7.42053
-7.41381
-7.40689
-7.40003
-7.39354
-7.38779
-7.38311
-7.37996
-7.37883
-7.38021
-7.38448
-7.39191
-7.40263
-7.41664
-7.4338
-7.45393
-7.47678
-7.50212
-7.52972
-7.55935
-7.5908
-7.62385
-7.65829
-7.69393
-7.73057
-7.76805
-7.80621
-7.84492
-7.88405
-7.92348
-7.96308
-8.00274
-8.04238
-8.0819
-8.12122
-8.16024
-8.19884
-8.23692
-8.27434
-8.31096
-8.3466
-8.38108
-8.41419
-8.44572
-8.47543
-8.50307
-8.52836
-8.55108
-8.57097
-8.58778
-8.60127
-8.61124
-8.61752
-8.61998
-8.61849
-8.61294
-8.6032
-8.58918
-8.57075
-8.54783
-8.52034
-8.48824
-8.45158
-8.41035
-8.3645
-8.31396
-8.25864
-8.1985
-8.1335
-8.06356
-7.98862
-7.9086
-7.8234
-7.73297
-7.63725
-7.53618
-7.42972
-7.31783
-7.20046
-7.07758
-6.94917
-6.81523
-6.67577
-6.53083
-6.38043
-6.22462
-6.06346
-5.89701
-5.72533
-5.54852
-5.36667
-5.17985
-4.98821
-4.79189
-4.59104
-4.38576
-4.17618
-3.96242
-3.74462
-3.52293
-3.29752
-3.06852
-2.83609
-2.60043
-2.36178
-2.1203
-1.87619
-1.62962
-1.38079
-1.1299
-0.877194
-0.622862
-0.367117
-0.110167
0.147766
0.406473
0.665734
0.925341
1.18508
1.44474
1.70412
1.96302
2.22126
2.47865
2.73499
2.99017
3.24407
3.49638
3.74676
3.99512
4.24133
4.48524
4.72674
4.96568
5.20194
5.4354
5.66599
5.89357
6.11791
6.33885
6.55632
6.77023
6.98051
7.18705
7.38977
7.5886
7.78337
7.97386
8.15993
8.3414
8.51807
8.68937
8.85571
9.01267
9.17517
9.27688
-7.33128
-7.33571
-7.3437
-7.35338
-7.36281
-7.37156
-7.37993
-7.38818
-7.39638
-7.4043
-7.41163
-7.41812
-7.42363
-7.4281
-7.4315
-7.43382
-7.43504
-7.43514
-7.43413
-7.43205
-7.42896
-7.42494
-7.42008
-7.41451
-7.40835
-7.40178
-7.39506
-7.38847
-7.38231
-7.37695
-7.37281
-7.37038
-7.37011
-7.37242
-7.37764
-7.38598
-7.39752
-7.41223
-7.42997
-7.4506
-7.4739
-7.49967
-7.5277
-7.55779
-7.58974
-7.62334
-7.65835
-7.69456
-7.73176
-7.76979
-7.80848
-7.84769
-7.88728
-7.92712
-7.96709
-8.0071
-8.04706
-8.08688
-8.12647
-8.16573
-8.20458
-8.24293
-8.28063
-8.31755
-8.35352
-8.38834
-8.42179
-8.45363
-8.48357
-8.51134
-8.53669
-8.5594
-8.57925
-8.59596
-8.60926
-8.61895
-8.62493
-8.6271
-8.62535
-8.61956
-8.60961
-8.59535
-8.57666
-8.55342
-8.52553
-8.49296
-8.45587
-8.41436
-8.3683
-8.31754
-8.26202
-8.2017
-8.13655
-8.06651
-7.99149
-7.91139
-7.82612
-7.73562
-7.63982
-7.53871
-7.43221
-7.32029
-7.20289
-7.07997
-6.9515
-6.8175
-6.67798
-6.53298
-6.38253
-6.22668
-6.06548
-5.89899
-5.72728
-5.55045
-5.36858
-5.18175
-4.99008
-4.79377
-4.59295
-4.38773
-4.17821
-3.96452
-3.7468
-3.52521
-3.29989
-3.07101
-2.83869
-2.60314
-2.3646
-2.12327
-1.87929
-1.63286
-1.38417
-1.13344
-0.880872
-0.626687
-0.37108
-0.114278
0.143512
0.402068
0.661181
0.920632
1.18022
1.43972
1.69896
1.95772
2.21582
2.47307
2.72929
2.98439
3.23838
3.49073
3.741
3.98923
4.23531
4.47913
4.72054
4.9594
5.19561
5.42904
5.65966
5.8873
6.11164
6.33254
6.54996
6.76384
6.97408
7.18061
7.38332
7.58217
7.77695
7.96736
8.15331
8.33459
8.51098
8.68185
8.84765
9.00379
9.16558
9.26532
-7.2981
-7.30286
-7.31237
-7.32385
-7.33439
-7.34388
-7.35302
-7.36198
-7.37088
-7.37972
-7.38814
-7.39565
-7.40186
-7.40682
-7.41073
-7.41362
-7.41541
-7.41607
-7.41559
-7.41399
-7.41131
-7.40759
-7.40294
-7.39748
-7.39139
-7.38488
-7.3782
-7.37167
-7.36565
-7.36059
-7.35691
-7.3551
-7.35555
-7.35866
-7.36466
-7.37374
-7.38593
-7.40122
-7.41949
-7.44062
-7.46442
-7.49071
-7.51928
-7.54995
-7.58251
-7.61674
-7.6524
-7.68926
-7.72714
-7.76583
-7.80518
-7.845
-7.88516
-7.92552
-7.96598
-8.00645
-8.04683
-8.08705
-8.12703
-8.16668
-8.2059
-8.2446
-8.28266
-8.31993
-8.35624
-8.39137
-8.42507
-8.45708
-8.48708
-8.51476
-8.53992
-8.56241
-8.58202
-8.59845
-8.6113
-8.62041
-8.6259
-8.62777
-8.62585
-8.61999
-8.61004
-8.59575
-8.57696
-8.55354
-8.52528
-8.49216
-8.45462
-8.41288
-8.36666
-8.3157
-8.25994
-8.1994
-8.13409
-8.06393
-7.98883
-7.90865
-7.82328
-7.73267
-7.63679
-7.5356
-7.42906
-7.31712
-7.19969
-7.07672
-6.9482
-6.81413
-6.67456
-6.5295
-6.37902
-6.22314
-6.06191
-5.8954
-5.72367
-5.54683
-5.36498
-5.17823
-4.98669
-4.79047
-4.5897
-4.38451
-4.17501
-3.96135
-3.74368
-3.52216
-3.29696
-3.06824
-2.83617
-2.60092
-2.36266
-2.12158
-1.87785
-1.63166
-1.38321
-1.13275
-0.880445
-0.626522
-0.371184
-0.114656
0.142854
0.401124
0.659945
0.9191
1.17838
1.43759
1.69652
1.95498
2.21279
2.46974
2.72566
2.98051
3.23442
3.48673
3.73682
3.98486
4.23079
4.47448
4.71578
4.95456
5.1907
5.42409
5.65479
5.88262
6.10702
6.32787
6.54525
6.75909
6.96931
7.17583
7.37855
7.57749
7.77231
7.96265
8.14846
8.32954
8.50563
8.6761
8.84137
8.99674
9.15777
9.2562
-7.26082
-7.26647
-7.27803
-7.29172
-7.30342
-7.3132
-7.32275
-7.33279
-7.34298
-7.35297
-7.36246
-7.371
-7.37803
-7.38354
-7.38794
-7.39137
-7.39371
-7.39488
-7.39485
-7.39359
-7.39114
-7.38755
-7.38294
-7.37742
-7.37119
-7.36449
-7.35764
-7.35101
-7.34502
-7.34012
-7.33675
-7.33535
-7.33628
-7.33989
-7.34638
-7.3559
-7.3685
-7.38418
-7.40285
-7.42439
-7.44864
-7.47543
-7.50458
-7.53588
-7.56911
-7.60401
-7.64036
-7.67792
-7.71651
-7.75591
-7.79593
-7.83639
-7.87715
-7.91808
-7.95906
-7.99999
-8.04078
-8.08133
-8.12159
-8.16147
-8.20089
-8.23974
-8.27793
-8.3153
-8.35167
-8.38683
-8.4205
-8.45238
-8.48208
-8.50921
-8.53368
-8.55557
-8.57474
-8.59073
-8.60273
-8.61068
-8.61529
-8.61678
-8.61486
-8.60925
-8.59963
-8.58568
-8.56712
-8.54392
-8.51613
-8.4838
-8.44692
-8.40541
-8.35913
-8.30799
-8.25199
-8.19121
-8.12568
-8.05533
-7.98003
-7.89966
-7.81411
-7.72331
-7.62726
-7.52593
-7.41927
-7.30721
-7.18967
-7.06658
-6.93793
-6.80373
-6.66402
-6.51885
-6.36825
-6.21226
-6.05094
-5.88433
-5.71252
-5.53561
-5.35374
-5.16703
-4.97557
-4.77942
-4.57868
-4.37348
-4.16398
-3.95034
-3.73271
-3.51125
-3.28616
-3.0576
-2.82578
-2.59084
-2.35288
-2.11207
-1.86861
-1.6227
-1.37456
-1.12441
-0.87243
-0.618829
-0.363837
-0.107657
0.149484
0.407381
0.66581
0.924567
1.18344
1.44222
1.70072
1.95873
2.21607
2.47252
2.72789
2.982
3.23472
3.48593
3.73544
3.98309
4.22869
4.47209
4.71313
4.95166
5.18755
5.42072
5.65133
5.87921
6.10363
6.3244
6.54171
6.75552
6.96573
7.17225
7.375
7.57412
7.7691
7.95939
8.14506
8.32595
8.50178
8.67185
8.83662
8.99127
9.15151
9.24926
-7.22305
-7.22994
-7.244
-7.25962
-7.27165
-7.28189
-7.29255
-7.30374
-7.31502
-7.32609
-7.33664
-7.34614
-7.35398
-7.36015
-7.36516
-7.36919
-7.37208
-7.37371
-7.37403
-7.373
-7.37063
-7.36698
-7.36216
-7.35632
-7.34969
-7.34257
-7.33531
-7.32832
-7.32204
-7.31694
-7.31343
-7.31195
-7.31283
-7.3164
-7.32285
-7.33237
-7.34498
-7.36073
-7.37951
-7.40127
-7.42585
-7.45311
-7.48284
-7.51483
-7.54879
-7.58445
-7.62157
-7.65991
-7.69926
-7.73939
-7.78009
-7.82117
-7.86245
-7.9038
-7.94509
-7.98623
-8.02712
-8.06769
-8.10788
-8.14762
-8.18685
-8.22548
-8.26341
-8.3005
-8.3366
-8.3715
-8.40492
-8.43647
-8.46552
-8.49127
-8.51388
-8.53419
-8.55253
-8.56853
-8.58146
-8.59074
-8.59618
-8.59793
-8.59612
-8.59063
-8.58112
-8.56724
-8.5487
-8.52558
-8.49822
-8.46667
-8.43042
-8.38908
-8.34275
-8.29147
-8.23533
-8.17443
-8.10875
-8.03823
-7.96278
-7.88228
-7.79662
-7.70575
-7.60966
-7.50831
-7.40163
-7.28955
-7.17199
-7.04888
-6.92021
-6.78599
-6.64628
-6.50109
-6.35046
-6.19445
-6.03311
-5.86648
-5.69466
-5.51777