/*--------------------------------*- C++ -*----------------------------------*\
  =========                 |
  \\      /  F ield         | OpenFOAM: The Open Source CFD Toolbox
   \\    /   O peration     | Website:  https://openfoam.org
    \\  /    A nd           | Version:  8
     \\/     M anipulation  |
\*---------------------------------------------------------------------------*/
FoamFile
{
    version     2.0;
    format      ascii;
    class       surfaceScalarField;
    location    "500";
    object      phi;
}
// * * * * * * * * * * * * * * * * * * * * * * * * * * * * * * * * * * * * * //

dimensions      [0 3 -1 0 0 0 0];

internalField   nonuniform List<scalar> 
24170
(
2.99934e-06
1.34541e-07
2.85272e-06
1.46613e-07
2.72415e-06
1.28584e-07
2.60965e-06
1.14521e-07
2.51079e-06
9.89935e-08
2.4266e-06
8.43693e-08
2.35632e-06
7.04225e-08
2.29951e-06
5.6857e-08
2.25317e-06
4.63558e-08
2.21474e-06
3.84427e-08
2.18105e-06
3.36521e-08
2.15051e-06
3.05097e-08
2.12347e-06
2.70005e-08
2.10121e-06
2.22252e-08
2.08471e-06
1.64639e-08
2.07281e-06
1.18695e-08
2.067e-06
5.77969e-09
-2.28257e-09
2.06928e-06
3.51478e-06
7.62417e-08
3.54719e-06
1.14491e-07
3.56247e-06
1.13575e-07
3.56418e-06
1.13029e-07
3.55067e-06
1.12694e-07
3.52495e-06
1.10184e-07
3.49483e-06
1.00536e-07
3.46284e-06
8.87901e-08
3.43021e-06
7.89546e-08
3.39978e-06
6.88809e-08
3.37134e-06
6.21026e-08
3.34444e-06
5.74545e-08
3.3189e-06
5.25721e-08
3.29432e-06
4.68442e-08
3.27025e-06
4.05547e-08
3.24742e-06
3.47143e-08
3.2255e-06
2.77064e-08
2.14521e-08
3.20176e-06
3.8333e-06
5.51289e-08
3.85272e-06
9.50114e-08
3.86696e-06
9.92917e-08
3.87923e-06
1.00746e-07
3.88961e-06
1.02354e-07
3.89811e-06
1.01762e-07
3.90305e-06
9.5665e-08
3.90436e-06
8.75153e-08
3.90338e-06
7.99658e-08
3.90009e-06
7.21819e-08
3.89588e-06
6.63083e-08
3.89149e-06
6.1848e-08
3.88664e-06
5.74121e-08
3.88109e-06
5.238e-08
3.87471e-06
4.69124e-08
3.8679e-06
4.15121e-08
3.86005e-06
3.55531e-08
2.99098e-08
3.85161e-06
4.21645e-06
4.32662e-08
4.23073e-06
8.09524e-08
4.24051e-06
8.96876e-08
4.24863e-06
9.27705e-08
4.25639e-06
9.46931e-08
4.26426e-06
9.39184e-08
4.27091e-06
8.89801e-08
4.27606e-06
8.23166e-08
4.28026e-06
7.57486e-08
4.28317e-06
6.92798e-08
4.2855e-06
6.39984e-08
4.28774e-06
5.96439e-08
4.28978e-06
5.54127e-08
4.2914e-06
5.07888e-08
4.29252e-06
4.58159e-08
4.2932e-06
4.08502e-08
4.2931e-06
3.56683e-08
3.0698e-08
4.29232e-06
4.64607e-06
3.45094e-08
4.65789e-06
6.90364e-08
4.66679e-06
8.07319e-08
4.67425e-06
8.52769e-08
4.68129e-06
8.76532e-08
4.68822e-06
8.70051e-08
4.6943e-06
8.29268e-08
4.69938e-06
7.72704e-08
4.70374e-06
7.1414e-08
4.7073e-06
6.57266e-08
4.71049e-06
6.08105e-08
4.71361e-06
5.65198e-08
4.71665e-06
5.23654e-08
4.71946e-06
4.79678e-08
4.72193e-06
4.33454e-08
4.72404e-06
3.87255e-08
4.72564e-06
3.40757e-08
2.96472e-08
4.72673e-06
5.12163e-06
2.74878e-08
5.13173e-06
5.90787e-08
5.14028e-06
7.22911e-08
5.14783e-06
7.78141e-08
5.15499e-06
8.05348e-08
5.16182e-06
8.01769e-08
5.16785e-06
7.68665e-08
5.17302e-06
7.2077e-08
5.1775e-06
6.69202e-08
5.18135e-06
6.18711e-08
5.18487e-06
5.73037e-08
5.18828e-06
5.31387e-08
5.19158e-06
4.90848e-08
5.19468e-06
4.48909e-08
5.19747e-06
4.0575e-08
5.19993e-06
3.6279e-08
5.20199e-06
3.20507e-08
2.80051e-08
5.20364e-06
5.64657e-06
2.19153e-08
5.65549e-06
5.00575e-08
5.66377e-06
6.39385e-08
5.67141e-06
7.01358e-08
5.67879e-06
7.31354e-08
5.68578e-06
7.31916e-08
5.69202e-06
7.06324e-08
5.69747e-06
6.66416e-08
5.70225e-06
6.21573e-08
5.70646e-06
5.76634e-08
5.71033e-06
5.34377e-08
5.71402e-06
4.94533e-08
5.71755e-06
4.55507e-08
5.72085e-06
4.15862e-08
5.72385e-06
3.75763e-08
5.72652e-06
3.36122e-08
5.72882e-06
2.97499e-08
2.60761e-08
5.73078e-06
4.40935e-06
1.86636e-08
4.41518e-06
4.42979e-08
4.42106e-06
5.81116e-08
4.42661e-06
6.46282e-08
4.43198e-06
6.77796e-08
4.43706e-06
6.81015e-08
4.44167e-06
6.60099e-08
4.44577e-06
6.25383e-08
4.44941e-06
5.85116e-08
4.45268e-06
5.43914e-08
4.4557e-06
5.04199e-08
4.45855e-06
4.66059e-08
4.46125e-06
4.28519e-08
4.46377e-06
3.90722e-08
4.46607e-06
3.5286e-08
4.46812e-06
3.15628e-08
4.46992e-06
2.79594e-08
2.45452e-08
4.47147e-06
5.1428e-06
1.57199e-08
5.14858e-06
3.84223e-08
5.15472e-06
5.19173e-08
5.16069e-06
5.86215e-08
5.16656e-06
6.18923e-08
5.17216e-06
6.24885e-08
5.17731e-06
6.08687e-08
5.18194e-06
5.7916e-08
5.18611e-06
5.43557e-08
5.18988e-06
5.06206e-08
5.19337e-06
4.6933e-08
5.19665e-06
4.33294e-08
5.19974e-06
3.97691e-08
5.2026e-06
3.62074e-08
5.20521e-06
3.26724e-08
5.20756e-06
2.92121e-08
5.20965e-06
2.58841e-08
2.27362e-08
5.21147e-06
5.99843e-06
1.30582e-08
6.00406e-06
3.27827e-08
6.01039e-06
4.55939e-08
6.01674e-06
5.2278e-08
6.02308e-06
5.55593e-08
6.02919e-06
5.63758e-08
6.03488e-06
5.51873e-08
6.04007e-06
5.27303e-08
6.0448e-06
4.96402e-08
6.04911e-06
4.63067e-08
6.05311e-06
4.29343e-08
6.05685e-06
3.9587e-08
6.06036e-06
3.62639e-08
6.0636e-06
3.29602e-08
6.06657e-06
2.9697e-08
6.06925e-06
2.65293e-08
6.07165e-06
2.34893e-08
2.06296e-08
6.07378e-06
6.99662e-06
1.07079e-08
7.002e-06
2.7343e-08
7.00845e-06
3.91113e-08
7.01513e-06
4.55802e-08
7.02189e-06
4.87916e-08
7.0285e-06
4.97705e-08
7.03472e-06
4.8966e-08
7.04048e-06
4.69829e-08
7.04578e-06
4.43534e-08
7.05066e-06
4.14324e-08
7.05519e-06
3.8405e-08
7.05943e-06
3.53561e-08
7.06338e-06
3.23135e-08
7.06703e-06
2.92973e-08
7.07039e-06
2.63427e-08
7.07343e-06
2.34784e-08
7.07618e-06
2.0755e-08
1.81804e-08
7.07863e-06
8.16111e-06
8.59152e-09
8.16618e-06
2.2236e-08
8.17267e-06
3.26041e-08
8.17962e-06
3.86138e-08
8.18676e-06
4.16506e-08
8.19383e-06
4.27077e-08
8.20059e-06
4.22218e-08
8.20692e-06
4.06602e-08
8.2128e-06
3.84791e-08
8.21827e-06
3.59705e-08
8.22336e-06
3.33176e-08
8.22811e-06
3.06033e-08
8.23254e-06
2.78889e-08
8.23664e-06
2.51981e-08
8.2404e-06
2.25737e-08
8.24384e-06
2.00449e-08
8.24695e-06
1.76399e-08
1.53886e-08
8.24977e-06
9.51961e-06
6.70235e-09
9.52435e-06
1.74644e-08
9.53079e-06
2.61495e-08
9.53796e-06
3.14415e-08
9.54543e-06
3.41762e-08
9.55293e-06
3.52172e-08
9.56021e-06
3.49513e-08
9.56712e-06
3.37628e-08
9.57361e-06
3.19909e-08
9.57969e-06
2.98988e-08
9.58537e-06
2.76346e-08
9.59068e-06
2.53031e-08
9.59562e-06
2.29467e-08
9.6002e-06
2.06261e-08
9.60441e-06
1.83572e-08
9.60827e-06
1.61894e-08
9.61179e-06
1.41238e-08
1.22024e-08
9.61498e-06
1.11044e-05
4.97001e-09
1.11089e-05
1.29864e-08
1.11152e-05
1.97913e-08
1.11225e-05
2.41141e-08
1.11303e-05
2.64015e-08
1.11382e-05
2.73075e-08
1.1146e-05
2.71692e-08
1.11535e-05
2.62701e-08
1.11606e-05
2.48741e-08
1.11674e-05
2.31812e-08
1.11737e-05
2.13284e-08
1.11796e-05
1.93953e-08
1.11851e-05
1.7448e-08
1.11902e-05
1.55173e-08
1.11949e-05
1.36477e-08
1.11992e-05
1.18522e-08
1.12032e-05
1.01624e-08
8.5824e-09
1.12068e-05
1.29532e-05
3.35767e-09
1.29575e-05
8.72349e-09
1.29637e-05
1.35118e-08
1.29712e-05
1.66553e-08
1.29792e-05
1.83188e-08
1.29876e-05
1.89704e-08
1.29959e-05
1.88482e-08
1.3004e-05
1.816e-08
1.30118e-05
1.70883e-08
1.30192e-05
1.57796e-08
1.30262e-05
1.43379e-08
1.30328e-05
1.28328e-08
1.30389e-05
1.13123e-08
1.30446e-05
9.81234e-09
1.30499e-05
8.36018e-09
1.30548e-05
6.97694e-09
1.30593e-05
5.67613e-09
4.47525e-09
1.30634e-05
1.511e-05
1.8042e-09
1.51141e-05
4.54261e-09
1.51204e-05
7.22659e-09
1.51281e-05
8.98729e-09
1.51365e-05
9.86304e-09
1.51454e-05
1.01269e-08
1.51543e-05
9.91582e-09
1.51631e-05
9.3583e-09
1.51716e-05
8.56095e-09
1.51798e-05
7.61533e-09
1.51875e-05
6.58655e-09
1.51949e-05
5.5226e-09
1.52017e-05
4.45591e-09
1.52081e-05
3.41257e-09
1.52141e-05
2.41092e-09
1.52196e-05
1.46617e-09
1.52247e-05
5.86209e-10
-2.13536e-10
1.52294e-05
1.7626e-05
2.31186e-10
1.76303e-05
2.61586e-10
1.76368e-05
6.9661e-10
1.76449e-05
8.88953e-10
1.7654e-05
8.1825e-10
1.76635e-05
5.63805e-10
1.76733e-05
1.79885e-10
1.76829e-05
-3.18422e-10
1.76924e-05
-8.72026e-10
1.77014e-05
-1.47074e-09
1.77101e-05
-2.07355e-09
1.77183e-05
-2.67787e-09
1.7726e-05
-3.2577e-09
1.77333e-05
-3.81315e-09
1.774e-05
-4.3275e-09
1.77463e-05
-4.80158e-09
1.77521e-05
-5.2265e-09
-5.59642e-09
1.77575e-05
1.78277e-05
-1.28495e-09
1.78319e-05
-3.87161e-09
1.78382e-05
-5.6377e-09
1.78461e-05
-6.9708e-09
1.78549e-05
-8.00791e-09
1.78643e-05
-8.76847e-09
1.78738e-05
-9.36841e-09
1.78833e-05
-9.8105e-09
1.78926e-05
-1.01645e-08
1.79015e-05
-1.04211e-08
1.79101e-05
-1.06322e-08
1.79182e-05
-1.0781e-08
1.79258e-05
-1.09018e-08
1.7933e-05
-1.09771e-08
1.79397e-05
-1.10302e-08
1.7946e-05
-1.10448e-08
1.79517e-05
-1.10398e-08
-1.09935e-08
1.79572e-05
1.58828e-05
-2.71822e-09
1.58867e-05
-7.77657e-09
1.58926e-05
-1.15203e-08
1.58998e-05
-1.42023e-08
1.59079e-05
-1.60239e-08
1.59163e-05
-1.72241e-08
1.59249e-05
-1.79498e-08
1.59334e-05
-1.8342e-08
1.59418e-05
-1.84616e-08
1.59497e-05
-1.84191e-08
1.59574e-05
-1.82418e-08
1.59646e-05
-1.79951e-08
1.59714e-05
-1.76822e-08
1.59777e-05
-1.73434e-08
1.59837e-05
-1.6973e-08
1.59892e-05
-1.65959e-08
1.59944e-05
-1.62035e-08
-1.58048e-08
1.59992e-05
1.41501e-05
-4.18763e-09
1.41541e-05
-1.17544e-08
1.416e-05
-1.73616e-08
1.4167e-05
-2.11853e-08
1.41746e-05
-2.36458e-08
1.41825e-05
-2.51428e-08
1.41905e-05
-2.59379e-08
1.41984e-05
-2.61884e-08
1.4206e-05
-2.6067e-08
1.42133e-05
-2.56867e-08
1.42201e-05
-2.51458e-08
1.42267e-05
-2.44974e-08
1.42328e-05
-2.37904e-08
1.42385e-05
-2.30516e-08
1.42438e-05
-2.23055e-08
1.42488e-05
-2.15607e-08
1.42534e-05
-2.08309e-08
-2.01068e-08
1.42577e-05
1.26066e-05
-5.79722e-09
1.26109e-05
-1.60458e-08
1.2617e-05
-2.34061e-08
1.26239e-05
-2.8153e-08
1.26314e-05
-3.10687e-08
1.2639e-05
-3.2752e-08
1.26465e-05
-3.35002e-08
1.26539e-05
-3.35509e-08
1.2661e-05
-3.31252e-08
1.26677e-05
-3.23903e-08
1.2674e-05
-3.1468e-08
1.26799e-05
-3.04247e-08
1.26855e-05
-2.93321e-08
1.26906e-05
-2.82147e-08
1.26954e-05
-2.71145e-08
1.26999e-05
-2.60324e-08
1.27041e-05
-2.49922e-08
-2.3978e-08
1.27079e-05
1.12317e-05
-7.6622e-09
1.12365e-05
-2.08513e-08
1.12428e-05
-2.97933e-08
1.12499e-05
-3.51933e-08
1.12572e-05
-3.84045e-08
1.12646e-05
-4.01524e-08
1.12719e-05
-4.07568e-08
1.12788e-05
-4.0519e-08
1.12854e-05
-3.97384e-08
1.12917e-05
-3.8625e-08
1.12975e-05
-3.73009e-08
1.1303e-05
-3.587e-08
1.1308e-05
-3.43863e-08
1.13127e-05
-3.29147e-08
1.13171e-05
-3.14676e-08
1.13211e-05
-3.00811e-08
1.13249e-05
-2.87467e-08
-2.74763e-08
1.13284e-05
1.00069e-05
-9.933e-09
1.00124e-05
-2.63578e-08
1.00192e-05
-3.6597e-08
1.00263e-05
-4.23545e-08
1.00336e-05
-4.56932e-08
1.00408e-05
-4.73918e-08
1.00478e-05
-4.77422e-08
1.00544e-05
-4.71543e-08
1.00607e-05
-4.5982e-08
1.00665e-05
-4.44584e-08
1.00719e-05
-4.27287e-08
1.0077e-05
-4.08934e-08
1.00816e-05
-3.90359e-08
1.00859e-05
-3.72047e-08
1.00899e-05
-3.54404e-08
1.00936e-05
-3.37518e-08
1.0097e-05
-3.21591e-08
-3.06389e-08
1.01001e-05
8.91601e-06
-1.28562e-08
8.92235e-06
-3.27199e-08
8.92954e-06
-4.38007e-08
8.93679e-06
-4.95984e-08
8.94406e-06
-5.29766e-08
8.95117e-06
-5.45132e-08
8.95794e-06
-5.45216e-08
8.96429e-06
-5.35118e-08
8.97023e-06
-5.19113e-08
8.97573e-06
-4.99642e-08
8.98082e-06
-4.7813e-08
8.9855e-06
-4.55767e-08
8.98981e-06
-4.3339e-08
8.99377e-06
-4.11615e-08
8.99741e-06
-3.90794e-08
9.00078e-06
-3.71161e-08
9.0039e-06
-3.52728e-08
-3.35354e-08
9.00679e-06
7.94454e-06
-1.67287e-08
7.95188e-06
-4.00699e-08
7.95946e-06
-5.13853e-08
7.96685e-06
-5.70044e-08
7.97419e-06
-6.03121e-08
7.98126e-06
-6.15844e-08
7.98789e-06
-6.11577e-08
7.99407e-06
-5.96912e-08
7.99979e-06
-5.76335e-08
8.00506e-06
-5.52341e-08
8.0099e-06
-5.26492e-08
8.01432e-06
-5.00006e-08
8.01837e-06
-4.73809e-08
8.02206e-06
-4.48546e-08
8.02545e-06
-4.24656e-08
8.02857e-06
-4.023e-08
8.03145e-06
-3.81531e-08
-3.61976e-08
8.03412e-06
7.0795e-06
-2.19032e-08
7.08818e-06
-4.8748e-08
7.09633e-06
-5.95389e-08
7.10409e-06
-6.47531e-08
7.11169e-06
-6.79173e-08
7.11892e-06
-6.88137e-08
7.12563e-06
-6.78821e-08
7.13184e-06
-6.59041e-08
7.13755e-06
-6.33374e-08
7.14278e-06
-6.04611e-08
7.14755e-06
-5.74121e-08
7.15187e-06
-5.43247e-08
7.15579e-06
-5.12995e-08
7.15934e-06
-4.83998e-08
7.16256e-06
-4.56826e-08
7.1655e-06
-4.31649e-08
7.16819e-06
-4.08482e-08
-3.86893e-08
7.17069e-06
6.30956e-06
-2.89539e-08
6.32073e-06
-5.99132e-08
6.33019e-06
-6.89809e-08
6.33916e-06
-7.3724e-08
6.34783e-06
-7.65789e-08
6.35591e-06
-7.68927e-08
6.36333e-06
-7.53054e-08
6.37012e-06
-7.26765e-08
6.37628e-06
-6.95131e-08
6.38185e-06
-6.60229e-08
6.38683e-06
-6.23928e-08
6.39126e-06
-5.87554e-08
6.39518e-06
-5.52059e-08
6.39861e-06
-5.18363e-08
6.40163e-06
-4.86943e-08
6.40428e-06
-4.58126e-08
6.40661e-06
-4.31782e-08
-4.0749e-08
6.40867e-06
5.62921e-06
-4.32612e-08
5.6454e-06
-7.60871e-08
5.65935e-06
-8.29096e-08
5.67277e-06
-8.71331e-08
5.68524e-06
-8.90428e-08
5.69631e-06
-8.79582e-08
5.70593e-06
-8.49148e-08
5.71414e-06
-8.08814e-08
5.72098e-06
-7.63504e-08
5.72652e-06
-7.15698e-08
5.73086e-06
-6.67324e-08
5.7341e-06
-6.19826e-08
5.73632e-06
-5.74259e-08
5.73763e-06
-5.31433e-08
5.73815e-06
-4.92127e-08
5.73802e-06
-4.56775e-08
5.73736e-06
-4.25201e-08
-3.99121e-08
5.73653e-06
5.05123e-06
-9.21831e-08
5.08711e-06
-1.11946e-07
5.11406e-06
-1.09837e-07
5.13268e-06
-1.05738e-07
5.14326e-06
-9.96164e-08
5.14705e-06
-9.1738e-08
5.14536e-06
-8.32124e-08
5.13934e-06
-7.48522e-08
5.12997e-06
-6.6981e-08
5.11808e-06
-5.96782e-08
5.10431e-06
-5.29585e-08
5.08913e-06
-4.68023e-08
5.07295e-06
-4.12334e-08
5.05607e-06
-3.62681e-08
5.03878e-06
-3.19173e-08
5.02138e-06
-2.82801e-08
5.00426e-06
-2.53993e-08
-2.35715e-08
4.98793e-06
4.36437e-06
4.25242e-06
4.14259e-06
4.03685e-06
3.93724e-06
3.8455e-06
3.76229e-06
3.68744e-06
3.62045e-06
3.56078e-06
3.50782e-06
3.46102e-06
3.41979e-06
3.38352e-06
3.3516e-06
3.32332e-06
3.29792e-06
3.27435e-06
-8.26175e-09
8.2619e-09
-2.23993e-08
1.41427e-08
-3.77571e-08
1.53615e-08
-5.08873e-08
1.31342e-08
-5.66098e-08
5.73187e-09
-4.89603e-08
-7.65716e-09
-2.58885e-08
-2.30572e-08
1.01117e-08
-3.60163e-08
5.49382e-08
-4.48111e-08
1.03754e-07
-4.88271e-08
1.52178e-07
-4.84078e-08
1.97095e-07
-4.49194e-08
2.36534e-07
-3.94242e-08
2.69241e-07
-3.27037e-08
2.94533e-07
-2.52749e-08
3.11971e-07
-1.74344e-08
3.21308e-07
-9.31705e-09
3.22179e-07
-8.73384e-10
3.14446e-07
7.75608e-09
2.98279e-07
1.61574e-08
2.74397e-07
2.39089e-08
2.43767e-07
3.06171e-08
2.07924e-07
3.58668e-08
1.68733e-07
3.91869e-08
1.28636e-07
4.01263e-08
9.02671e-08
3.83785e-08
5.63355e-08
3.3969e-08
2.88826e-08
2.74734e-08
8.89882e-09
2.00361e-08
-4.01368e-09
1.29222e-08
-1.06361e-08
6.68654e-09
-1.14629e-08
7.93354e-10
-5.8699e-09
-5.52935e-09
7.22381e-09
-1.31625e-08
2.96776e-08
-2.24021e-08
6.06617e-08
-3.10198e-08
9.56588e-08
-3.49655e-08
1.28173e-07
-3.24988e-08
1.53013e-07
-2.4832e-08
1.6755e-07
-1.45079e-08
1.72496e-07
-4.97129e-09
1.70968e-07
1.52128e-09
1.66376e-07
4.54986e-09
1.62328e-07
3.9832e-09
1.60047e-07
2.21753e-09
1.52295e-07
7.58934e-09
1.30356e-07
2.19019e-08
8.60371e-08
4.40177e-08
1.56255e-08
7.04356e-08
-7.74911e-08
9.28605e-08
-1.87924e-07
1.10471e-07
-3.13306e-07
1.25301e-07
-4.49849e-07
1.3657e-07
-5.93279e-07
1.43448e-07
-7.38729e-07
1.45464e-07
-8.8375e-07
1.45066e-07
-1.02551e-06
1.41747e-07
-1.16046e-06
1.34988e-07
-1.28706e-06
1.26567e-07
-1.40467e-06
1.17642e-07
-1.5137e-06
1.08999e-07
-1.61319e-06
9.95148e-08
-1.70419e-06
9.09621e-08
-1.78796e-06
8.37995e-08
-1.86483e-06
7.68304e-08
-1.9356e-06
7.0795e-08
-2.00106e-06
6.54285e-08
-2.06179e-06
6.07362e-08
-2.11842e-06
5.66091e-08
-2.1714e-06
5.29745e-08
-2.22117e-06
4.9755e-08
-2.26806e-06
4.68801e-08
-2.31237e-06
4.42882e-08
-2.35431e-06
4.19252e-08
-2.39408e-06
3.9751e-08
-2.43183e-06
3.77259e-08
-2.46767e-06
3.58249e-08
-2.50171e-06
3.40196e-08
-2.53402e-06
3.22967e-08
-2.56467e-06
3.06352e-08
-2.59371e-06
2.90293e-08
-2.62119e-06
2.74633e-08
-2.64713e-06
2.59356e-08
-2.67157e-06
2.44342e-08
-2.69454e-06
2.29595e-08
-2.71605e-06
2.15019e-08
-2.73612e-06
2.00614e-08
-2.75476e-06
1.86301e-08
-2.77197e-06
1.72075e-08
-2.78776e-06
1.5784e-08
-2.80214e-06
1.43586e-08
-2.81509e-06
1.29215e-08
-2.82658e-06
1.14673e-08
-2.8366e-06
9.98758e-09
-2.84509e-06
8.47382e-09
-2.85203e-06
6.91639e-09
-2.85735e-06
5.30393e-09
-2.86099e-06
3.62252e-09
-2.86288e-06
1.87365e-09
-2.86303e-06
1.34256e-10
-2.86165e-06
-1.40196e-09
-2.85893e-06
-2.73758e-09
-2.85492e-06
-4.0207e-09
-2.84965e-06
-5.28692e-09
-2.84311e-06
-6.55074e-09
-2.83531e-06
-7.81616e-09
-2.82624e-06
-9.08259e-09
-2.81591e-06
-1.03509e-08
-2.8043e-06
-1.16186e-08
-2.79143e-06
-1.28863e-08
-2.77729e-06
-1.41513e-08
-2.76189e-06
-1.54137e-08
-2.74523e-06
-1.66711e-08
-2.72732e-06
-1.79233e-08
-2.70817e-06
-1.91681e-08
-2.68778e-06
-2.04051e-08
-2.66616e-06
-2.16321e-08
-2.64333e-06
-2.28491e-08
-2.61929e-06
-2.40536e-08
-2.59407e-06
-2.52465e-08
-2.56766e-06
-2.64245e-08
-2.5401e-06
-2.75893e-08
-2.51138e-06
-2.87369e-08
-2.48154e-06
-2.987e-08
-2.45058e-06
-3.09836e-08
-2.41852e-06
-3.20818e-08
-2.38538e-06
-3.31582e-08
-2.35119e-06
-3.42174e-08
-2.31596e-06
-3.52466e-08
-2.27971e-06
-3.62535e-08
-2.24248e-06
-3.72316e-08
-2.20428e-06
-3.81875e-08
-2.16516e-06
-3.91133e-08
-2.12517e-06
-3.99976e-08
-2.08435e-06
-4.0826e-08
-2.04276e-06
-4.15941e-08
-2.00046e-06
-4.22733e-08
-1.95739e-06
-4.30454e-08
-1.91348e-06
-4.38866e-08
-1.86883e-06
-4.46361e-08
-1.82348e-06
-4.53381e-08
-1.77747e-06
-4.60056e-08
-1.73081e-06
-4.66306e-08
-1.68355e-06
-4.72256e-08
-1.6357e-06
-4.77834e-08
-1.58732e-06
-4.83155e-08
-1.53841e-06
-4.8818e-08
-1.48902e-06
-4.92918e-08
-1.43917e-06
-4.9745e-08
-1.3889e-06
-5.01676e-08
-1.33823e-06
-5.05696e-08
-1.28721e-06
-5.09369e-08
-1.23585e-06
-5.12787e-08
-1.18419e-06
-5.15814e-08
-1.13225e-06
-5.18605e-08
-1.08007e-06
-5.21123e-08
-1.02768e-06
-5.23391e-08
-9.75069e-07
-5.25531e-08
-9.22271e-07
-5.27547e-08
-8.69285e-07
-5.29451e-08
-8.16125e-07
-5.31314e-08
-7.62791e-07
-5.33078e-08
-7.093e-07
-5.34778e-08
-6.55653e-07
-5.36338e-08
-6.01872e-07
-5.3782e-08
-5.47955e-07
-5.39174e-08
-4.93921e-07
-5.40505e-08
-4.39759e-07
-5.41783e-08
-3.85485e-07
-5.43083e-08
-3.31086e-07
-5.44335e-08
-2.76589e-07
-5.45517e-08
-2.22014e-07
-5.46314e-08
-1.67438e-07
-5.46531e-08
-1.12958e-07
-5.45569e-08
-5.87923e-08
-5.42613e-08
-5.39848e-09
-5.34872e-08
4.66317e-08
-5.21355e-08
9.55406e-08
-4.90002e-08
1.40317e-07
-4.4865e-08
-1.94649e-08
1.59716e-07
-3.49503e-09
1.17578e-08
-9.67432e-09
2.03288e-08
-1.25434e-08
1.8238e-08
-4.94751e-09
5.54357e-09
1.81155e-08
-1.732e-08
5.56969e-08
-4.52448e-08
1.03299e-07
-7.06512e-08
1.55343e-07
-8.80684e-08
2.06766e-07
-9.62275e-08
2.54299e-07
-9.63651e-08
2.96503e-07
-9.0604e-08
3.32674e-07
-8.10913e-08
3.62726e-07
-6.94687e-08
3.86843e-07
-5.68194e-08
4.05371e-07
-4.37934e-08
4.18681e-07
-3.07421e-08
4.27211e-07
-1.78365e-08
4.31505e-07
-5.16751e-09
4.31966e-07
7.3073e-09
4.28429e-07
1.9692e-08
4.2043e-07
3.19222e-08
4.0732e-07
4.37219e-08
3.88584e-07
5.46161e-08
3.6386e-07
6.39091e-08
3.33261e-07
7.07384e-08
2.97453e-07
7.41928e-08
2.57907e-07
7.35308e-08
2.16924e-07
6.84647e-08
1.77687e-07
5.93027e-08
1.43816e-07
4.67918e-08
1.18823e-07
3.17239e-08
1.04964e-07
1.4618e-08
1.0347e-07
-3.99404e-09
1.1365e-07
-2.3395e-08
1.3304e-07
-4.17691e-08
1.55658e-07
-5.36619e-08
1.74435e-07
-5.37329e-08
1.85034e-07
-4.30859e-08
1.86235e-07
-2.60335e-08
1.78248e-07
-6.49765e-09
1.62745e-07
1.05156e-08
1.40605e-07
2.3662e-08
1.05451e-07
3.96408e-08
4.74344e-08
6.19411e-08
-4.15632e-08
9.11195e-08
-1.60209e-07
1.26123e-07
-2.99843e-07
1.61468e-07
-4.50779e-07
1.94869e-07
-6.05748e-07
2.25366e-07
-7.62944e-07
2.49999e-07
-9.19935e-07
2.67446e-07
-1.07282e-06
2.78164e-07
-1.21831e-06
2.82058e-07
-1.35382e-06
2.7897e-07
-1.47792e-06
2.69571e-07
-1.58877e-06
2.55921e-07
-1.68672e-06
2.397e-07
-1.77334e-06
2.2161e-07
-1.84994e-06
2.03162e-07
-1.91786e-06
1.85569e-07
-1.97819e-06
1.69321e-07
-2.03299e-06
1.54316e-07
-2.08296e-06
1.40924e-07
-2.12853e-06
1.29368e-07
-2.17088e-06
1.19175e-07
-2.21041e-06
1.1032e-07
-2.24758e-06
1.02595e-07
-2.28269e-06
9.58386e-08
-2.31597e-06
8.9884e-08
-2.3476e-06
8.4597e-08
-2.37771e-06
7.9854e-08
-2.4064e-06
7.55521e-08
-2.43373e-06
7.16071e-08
-2.45977e-06
6.79484e-08
-2.48455e-06
6.45186e-08
-2.50811e-06
6.12719e-08
-2.53047e-06
5.81727e-08
-2.55166e-06
5.51904e-08
-2.57167e-06
5.23039e-08
-2.59054e-06
4.94927e-08
-2.60827e-06
4.67446e-08
-2.62486e-06
4.40457e-08
-2.64032e-06
4.1389e-08
-2.65465e-06
3.87644e-08
-2.66787e-06
3.61678e-08
-2.67996e-06
3.35913e-08
-2.69094e-06
3.10313e-08
-2.7008e-06
2.8482e-08
-2.70953e-06
2.59379e-08
-2.71715e-06
2.33967e-08
-2.72366e-06
2.08501e-08
-2.72905e-06
1.82953e-08
-2.73333e-06
1.57293e-08
-2.73651e-06
1.31492e-08
-2.73861e-06
1.05546e-08
-2.73966e-06
7.94735e-09
-2.7397e-06
5.33208e-09
-2.73881e-06
2.72279e-09
-2.7371e-06
1.49833e-10
-2.73462e-06
-2.35302e-09
-2.73122e-06
-4.81936e-09
-2.72667e-06
-7.29795e-09
-2.72092e-06
-9.78456e-09
-2.71394e-06
-1.2275e-08
-2.70573e-06
-1.47714e-08
-2.69629e-06
-1.72737e-08
-2.6856e-06
-1.97806e-08
-2.67367e-06
-2.22906e-08
-2.66049e-06
-2.48015e-08
-2.64608e-06
-2.73113e-08
-2.63042e-06
-2.98174e-08
-2.61353e-06
-3.23175e-08
-2.5954e-06
-3.4809e-08
-2.57604e-06
-3.72893e-08
-2.55546e-06
-3.9756e-08
-2.53367e-06
-4.22062e-08
-2.51068e-06
-4.46379e-08
-2.48649e-06
-4.70483e-08
-2.46113e-06
-4.94357e-08
-2.43459e-06
-5.17977e-08
-2.4069e-06
-5.41331e-08
-2.37806e-06
-5.64392e-08
-2.3481e-06
-5.87147e-08
-2.31703e-06
-6.09573e-08
-2.28487e-06
-6.3165e-08
-2.25163e-06
-6.53361e-08
-2.21734e-06
-6.74676e-08
-2.18201e-06
-6.95569e-08
-2.14567e-06
-7.15979e-08
-2.10834e-06
-7.3588e-08
-2.07004e-06
-7.55262e-08
-2.03081e-06
-7.7414e-08
-1.99067e-06
-7.92479e-08
-1.94965e-06
-8.10198e-08
-1.90777e-06
-8.27222e-08
-1.86501e-06
-8.43508e-08
-1.82136e-06
-8.59104e-08
-1.7769e-06
-8.74767e-08
-1.73175e-06
-8.90288e-08
-1.68588e-06
-9.04975e-08
-1.63933e-06
-9.18899e-08
-1.59211e-06
-9.32119e-08
-1.54426e-06
-9.44609e-08
-1.49581e-06
-9.56447e-08
-1.4468e-06
-9.67626e-08
-1.39724e-06
-9.78214e-08
-1.34717e-06
-9.88243e-08
-1.29663e-06
-9.97716e-08
-1.24563e-06
-1.00671e-07
-1.19422e-06
-1.01518e-07
-1.14241e-06
-1.02315e-07
-1.09024e-06
-1.03051e-07
-1.03774e-06
-1.03727e-07
-9.84939e-07
-1.04337e-07
-9.31866e-07
-1.04889e-07
-8.78547e-07
-1.05392e-07
-8.25005e-07
-1.05845e-07
-7.71259e-07
-1.06269e-07
-7.17321e-07
-1.06666e-07
-6.63201e-07
-1.07044e-07
-6.08908e-07
-1.07407e-07
-5.54447e-07
-1.07758e-07
-4.99826e-07
-1.0809e-07
-4.45055e-07
-1.08403e-07
-3.90144e-07
-1.08694e-07
-3.35099e-07
-1.08969e-07
-2.79929e-07
-1.09232e-07
-2.24631e-07
-1.09493e-07
-1.69212e-07
-1.09751e-07
-1.13668e-07
-1.10007e-07
-5.80121e-08
-1.10243e-07
-2.26385e-09
-1.10422e-07
5.35288e-08
-1.10493e-07
1.09266e-07
-1.10347e-07
1.64742e-07
-1.09794e-07
2.19712e-07
-1.08518e-07
2.73469e-07
-1.05956e-07
3.25411e-07
-1.01005e-07
3.72284e-07
-9.17985e-08
-6.40056e-08
4.16773e-07
4.11148e-10
1.135e-08
4.2188e-09
1.65278e-08
1.92594e-08
3.20508e-09
5.32467e-08
-2.84423e-08
1.04479e-07
-6.85483e-08
1.63191e-07
-1.0396e-07
2.19572e-07
-1.27029e-07
2.68154e-07
-1.36655e-07
3.07378e-07
-1.35448e-07
3.37952e-07
-1.26943e-07
3.6148e-07
-1.14129e-07
3.79477e-07
-9.90899e-08
3.93126e-07
-8.31142e-08
4.03226e-07
-6.69212e-08
4.10323e-07
-5.08867e-08
4.14775e-07
-3.51951e-08
4.16873e-07
-1.99306e-08
4.16846e-07
-5.14251e-09
4.15005e-07
9.15328e-09
4.11696e-07
2.29986e-08
4.07188e-07
3.64366e-08
4.0147e-07
4.94354e-08
3.94258e-07
6.1836e-08
3.84893e-07
7.32702e-08
3.72527e-07
8.31121e-08
3.56248e-07
9.04682e-08
3.35543e-07
9.4244e-08
3.10674e-07
9.33343e-08
2.83063e-07
8.6921e-08
2.55182e-07
7.46674e-08
2.30099e-07
5.68175e-08
2.10448e-07
3.42432e-08
1.97929e-07
8.52496e-09
1.91699e-07
-1.71987e-08
1.86403e-07
-3.6477e-08
1.74627e-07
-4.18986e-08
1.53469e-07
-3.2578e-08
1.23569e-07
-1.31803e-08
8.52605e-08
1.22772e-08
3.58609e-08
4.29261e-08
-3.091e-08
7.72793e-08
-1.2098e-07
1.13736e-07
-2.34836e-07
1.53478e-07
-3.68945e-07
1.96033e-07
-5.16695e-07
2.38846e-07
-6.69656e-07
2.79051e-07
-8.22146e-07
3.13931e-07
-9.69054e-07
3.41737e-07
-1.10549e-06
3.61779e-07
-1.22911e-06
3.73583e-07
-1.33897e-06
3.7729e-07
-1.43447e-06
3.73643e-07
-1.51601e-06
3.63595e-07
-1.58533e-06
3.48288e-07
-1.64494e-06
3.29173e-07
-1.6969e-06
3.07889e-07
-1.74303e-06
2.85825e-07
-1.78529e-06
2.6387e-07
-1.82498e-06
2.42846e-07
-1.86276e-06
2.23359e-07
-1.89906e-06
2.05612e-07
-1.93437e-06
1.89627e-07
-1.96884e-06
1.75393e-07
-2.00232e-06
1.6285e-07
-2.03493e-06
1.51779e-07
-2.06662e-06
1.42012e-07
-2.0974e-06
1.33363e-07
-2.12723e-06
1.25661e-07
-2.15609e-06
1.18746e-07
-2.18399e-06
1.12483e-07
-2.2109e-06
1.06755e-07
-2.23682e-06
1.01461e-07
-2.26174e-06
9.65171e-08
-2.28565e-06
9.18535e-08
-2.30856e-06
8.74151e-08
-2.33046e-06
8.31556e-08
-2.35134e-06
7.90392e-08
-2.37119e-06
7.50367e-08
-2.39002e-06
7.11259e-08
-2.40783e-06
6.72882e-08
-2.4246e-06
6.351e-08
-2.44034e-06
5.97794e-08
-2.45504e-06
5.6088e-08
-2.46871e-06
5.24277e-08
-2.48134e-06
4.87928e-08
-2.49293e-06
4.51773e-08
-2.50348e-06
4.15767e-08
-2.51299e-06
3.79856e-08
-2.52145e-06
3.44007e-08
-2.52888e-06
3.08149e-08
-2.53526e-06
2.72272e-08
-2.54062e-06
2.36326e-08
-2.54493e-06
2.00294e-08
-2.54821e-06
1.64174e-08
-2.55046e-06
1.27983e-08
-2.5517e-06
9.17515e-09
-2.55193e-06
5.55306e-09
-2.55116e-06
1.94023e-09
-2.54936e-06
-1.6542e-09
-2.54649e-06
-5.23419e-09
-2.54249e-06
-8.82959e-09
-2.53734e-06
-1.24584e-08
-2.53102e-06
-1.61125e-08
-2.52351e-06
-1.97847e-08
-2.51482e-06
-2.34723e-08
-2.50493e-06
-2.71714e-08
-2.49384e-06
-3.08796e-08
-2.48154e-06
-3.45933e-08
-2.46804e-06
-3.83095e-08
-2.45334e-06
-4.20245e-08
-2.43743e-06
-4.57349e-08
-2.42031e-06
-4.94369e-08
-2.402e-06
-5.3127e-08
-2.38249e-06
-5.6801e-08
-2.3618e-06
-6.04553e-08
-2.33993e-06
-6.40858e-08
-2.31689e-06
-6.7689e-08
-2.29268e-06
-7.12612e-08
-2.26733e-06
-7.47997e-08
-2.24083e-06
-7.83011e-08
-2.21322e-06
-8.17633e-08
-2.18448e-06
-8.51828e-08
-2.15465e-06
-8.85577e-08
-2.12374e-06
-9.18841e-08
-2.09176e-06
-9.51596e-08
-2.05873e-06
-9.83801e-08
-2.02466e-06
-1.01543e-07
-1.98959e-06
-1.04642e-07
-1.95352e-06
-1.07673e-07
-1.91648e-06
-1.1063e-07
-1.8785e-06
-1.13512e-07
-1.83959e-06
-1.16319e-07
-1.79979e-06
-1.19048e-07
-1.75913e-06
-1.21693e-07
-1.71761e-06
-1.24248e-07
-1.67525e-06
-1.26712e-07
-1.63207e-06
-1.29092e-07
-1.58812e-06
-1.31418e-07
-1.54346e-06
-1.33679e-07
-1.49812e-06
-1.35844e-07
-1.4521e-06
-1.37909e-07
-1.40544e-06
-1.39872e-07
-1.35816e-06
-1.41734e-07
-1.31029e-06
-1.43498e-07
-1.26187e-06
-1.45167e-07
-1.21291e-06
-1.46746e-07
-1.16346e-06
-1.48241e-07
-1.11354e-06
-1.49654e-07
-1.06319e-06
-1.50991e-07
-1.01242e-06
-1.52254e-07
-9.61263e-07
-1.53438e-07
-9.09751e-07
-1.54536e-07
-8.57911e-07
-1.55541e-07
-8.05772e-07
-1.56453e-07
-7.53365e-07
-1.57274e-07
-7.00714e-07
-1.58022e-07
-6.47842e-07
-1.58698e-07
-5.94768e-07
-1.59325e-07
-5.41507e-07
-1.59911e-07
-4.88068e-07
-1.60468e-07
-4.3446e-07
-1.61003e-07
-3.80688e-07
-1.61517e-07
-3.26762e-07
-1.62006e-07
-2.72687e-07
-1.62466e-07
-2.18476e-07
-1.62897e-07
-1.64133e-07
-1.63302e-07
-1.09664e-07
-1.63694e-07
-5.50685e-08
-1.64081e-07
-3.45442e-10
-1.64469e-07
5.45074e-08
-1.64853e-07
1.09474e-07
-1.65208e-07
1.64536e-07
-1.6548e-07
2.19636e-07
-1.65594e-07
2.74691e-07
-1.654e-07
3.2956e-07
-1.64666e-07
3.84031e-07
-1.62991e-07
4.37728e-07
-1.59658e-07
4.90225e-07
-1.53506e-07
5.40603e-07
-1.4218e-07
-1.15747e-07
5.92346e-07
-8.66227e-11
1.14442e-08
1.34483e-08
3.00055e-09
5.40205e-08
-3.7359e-08
1.16597e-07
-9.1018e-08
1.83656e-07
-1.35604e-07
2.41116e-07
-1.61423e-07
2.83589e-07
-1.69499e-07
3.12102e-07
-1.6517e-07
3.30296e-07
-1.53641e-07
3.41815e-07
-1.38464e-07
3.49317e-07
-1.21629e-07
3.54371e-07
-1.04146e-07
3.57776e-07
-8.65194e-08
3.59869e-07
-6.90156e-08
3.60766e-07
-5.17853e-08
3.60498e-07
-3.49303e-08
3.59091e-07
-1.85246e-08
3.56579e-07
-2.63464e-09
3.53042e-07
1.26878e-08
3.48625e-07
2.74107e-08
3.43554e-07
4.15061e-08
3.38052e-07
5.49313e-08
3.32285e-07
6.76036e-08
3.26214e-07
7.93333e-08
3.19566e-07
8.97621e-08
3.11761e-07
9.82661e-08
3.02073e-07
1.03935e-07
2.89789e-07
1.05603e-07
2.74643e-07
1.0207e-07
2.56866e-07
9.24179e-08
2.37567e-07
7.61129e-08
2.18038e-07
5.37315e-08
1.98359e-07
2.81988e-08
1.7383e-07
7.2955e-09
1.37764e-07
-4.08542e-10
8.86396e-08
7.21408e-09
2.77652e-08
2.8304e-08
-4.63046e-08
6.09032e-08
-1.36121e-07
1.02102e-07
-2.42005e-07
1.48825e-07
-3.62561e-07
1.97841e-07
-4.95419e-07
2.46597e-07
-6.35384e-07
2.93443e-07
-7.76348e-07
3.3699e-07
-9.12479e-07
3.7497e-07
-1.03844e-06
4.04997e-07
-1.15082e-06
4.26293e-07
-1.24819e-06
4.39088e-07
-1.33012e-06
4.43687e-07
-1.39751e-06
4.40954e-07
-1.45222e-06
4.3198e-07
-1.49653e-06
4.17941e-07
-1.53301e-06
4.00065e-07
-1.56425e-06
3.79515e-07
-1.5925e-06
3.57421e-07
-1.61942e-06
3.34804e-07
-1.64605e-06
3.12457e-07
-1.67311e-06
2.90923e-07
-1.70088e-06
2.70617e-07
-1.72933e-06
2.5181e-07
-1.75832e-06
2.34598e-07
-1.78767e-06
2.18982e-07
-1.81719e-06
2.04909e-07
-1.84662e-06
1.92283e-07
-1.8758e-06
1.80957e-07
-1.90457e-06
1.70779e-07
-1.93281e-06
1.61597e-07
-1.96042e-06
1.53264e-07
-1.98732e-06
1.45644e-07
-2.01347e-06
1.38619e-07
-2.0388e-06
1.32083e-07
-2.06329e-06
1.25943e-07
-2.08691e-06
1.20125e-07
-2.10963e-06
1.14565e-07
-2.13144e-06
1.09209e-07
-2.15231e-06
1.04016e-07
-2.17223e-06
9.89525e-08
-2.1912e-06
9.39914e-08
-2.20919e-06
8.91122e-08
-2.22621e-06
8.42984e-08
-2.24224e-06
7.95373e-08
-2.25728e-06
7.48187e-08
-2.27133e-06
7.01347e-08
-2.28439e-06
6.54786e-08
-2.29644e-06
6.08452e-08
-2.3075e-06
5.62294e-08
-2.31755e-06
5.16268e-08
-2.3266e-06
4.70331e-08
-2.33465e-06
4.24423e-08
-2.34169e-06
3.78537e-08
-2.34773e-06
3.3258e-08
-2.35276e-06
2.86554e-08
-2.35678e-06
2.40425e-08
-2.35979e-06
1.94186e-08
-2.36179e-06
1.47842e-08
-2.36276e-06
1.01401e-08
-2.3627e-06
5.48815e-09
-2.36159e-06
8.3e-10
-2.35942e-06
-3.83469e-09
-2.35615e-06
-8.51513e-09
-2.35175e-06
-1.32282e-08
-2.34624e-06
-1.79814e-08
-2.33959e-06
-2.27692e-08
-2.3318e-06
-2.75847e-08
-2.32285e-06
-3.24233e-08
-2.31275e-06
-3.72793e-08
-2.30149e-06
-4.2149e-08
-2.28906e-06
-4.70269e-08
-2.27546e-06
-5.19092e-08
-2.2607e-06
-5.67905e-08
-2.24477e-06
-6.16668e-08
-2.22768e-06
-6.65328e-08
-2.20943e-06
-7.13839e-08
-2.19002e-06
-7.62147e-08
-2.16946e-06
-8.10203e-08
-2.14776e-06
-8.57954e-08
-2.12492e-06
-9.05351e-08