/*--------------------------------*- C++ -*----------------------------------*\
| =========                 |                                                 |
| \\      /  F ield         | OpenFOAM: The Open Source CFD Toolbox           |
|  \\    /   O peration     | Version:  v2012                                 |
|   \\  /    A nd           | Website:  www.openfoam.com                      |
|    \\/     M anipulation  |                                                 |
\*---------------------------------------------------------------------------*/
FoamFile
{
    version     2.0;
    format      ascii;
    class       volVectorField;
    location    "500";
    object      U;
}
// * * * * * * * * * * * * * * * * * * * * * * * * * * * * * * * * * * * * * //

dimensions      [0 1 -1 0 0 0 0];


internalField   nonuniform List<vector> 
12225
(
(9.77199 0.043834 0)
(9.33631 0.0793532 0)
(8.91329 0.0854046 0)
(8.51665 0.0821327 0)
(8.16181 0.0753414 0)
(7.85136 0.0669351 0)
(7.58087 0.0580538 0)
(7.34655 0.0494019 0)
(7.1448 0.0416661 0)
(6.96995 0.0352051 0)
(6.81745 0.0297789 0)
(6.68537 0.0251139 0)
(6.57081 0.0209397 0)
(6.47296 0.0171238 0)
(6.39023 0.0134168 0)
(6.32279 0.0093686 0)
(6.27337 0.0051104 0)
(6.23744 -0.00648985 0)
(10.077 0.0576546 0)
(10.2224 0.0916255 0)
(10.2996 0.0911612 0)
(10.3224 0.0879843 0)
(10.3123 0.0854732 0)
(10.2799 0.0821929 0)
(10.2303 0.0781283 0)
(10.1683 0.0737657 0)
(10.0987 0.0693652 0)
(10.0261 0.0651102 0)
(9.9536 0.0611129 0)
(9.88194 0.0571788 0)
(9.81266 0.0532048 0)
(9.74596 0.0490383 0)
(9.68311 0.0445034 0)
(9.62384 0.0390477 0)
(9.57011 0.0318544 0)
(9.51595 0.0195361 0)
(10.0193 0.0424839 0)
(10.0767 0.0654164 0)
(10.125 0.0682516 0)
(10.1602 0.07229 0)
(10.1893 0.0763381 0)
(10.214 0.0780477 0)
(10.2325 0.0777248 0)
(10.245 0.0762774 0)
(10.2518 0.074237 0)
(10.2544 0.0718767 0)
(10.2534 0.069194 0)
(10.2498 0.0661998 0)
(10.2441 0.062879 0)
(10.2368 0.0591626 0)
(10.2284 0.0548553 0)
(10.2191 0.0493851 0)
(10.209 0.0422813 0)
(10.1952 0.0310844 0)
(10.0084 0.0309416 0)
(10.0422 0.0552892 0)
(10.073 0.0624574 0)
(10.0952 0.067464 0)
(10.1144 0.0710586 0)
(10.1326 0.0723428 0)
(10.1491 0.0719588 0)
(10.1633 0.0707582 0)
(10.1755 0.0691242 0)
(10.186 0.0671806 0)
(10.1951 0.064957 0)
(10.203 0.0624661 0)
(10.2099 0.0596559 0)
(10.2159 0.056421 0)
(10.2212 0.0525548 0)
(10.2256 0.0476493 0)
(10.2288 0.0414389 0)
(10.2295 0.0333347 0)
(10.0048 0.0238355 0)
(10.029 0.0486176 0)
(10.0532 0.0572773 0)
(10.0711 0.0621034 0)
(10.0862 0.0655327 0)
(10.1008 0.0670744 0)
(10.1144 0.0671113 0)
(10.1265 0.0662979 0)
(10.1374 0.0649885 0)
(10.1473 0.0633127 0)
(10.1564 0.061327 0)
(10.1648 0.0590293 0)
(10.1726 0.0563699 0)
(10.1799 0.0532509 0)
(10.1867 0.049521 0)
(10.1928 0.0449409 0)
(10.1978 0.0394319 0)
(10.2011 0.0330059 0)
(10.0031 0.0189452 0)
(10.0211 0.041987 0)
(10.0412 0.0514159 0)
(10.057 0.0565873 0)
(10.0704 0.0602905 0)
(10.0833 0.0621996 0)
(10.0955 0.0625733 0)
(10.1064 0.0620096 0)
(10.1163 0.0608888 0)
(10.1255 0.0593565 0)
(10.134 0.0574752 0)
(10.142 0.0552488 0)
(10.1496 0.0526491 0)
(10.1567 0.0496037 0)
(10.1633 0.0460178 0)
(10.1692 0.0417687 0)
(10.1741 0.0368704 0)
(10.1778 0.0314848 0)
(10.0021 0.0152176 0)
(10.0156 0.0358894 0)
(10.0323 0.0457094 0)
(10.0465 0.0512206 0)
(10.0589 0.0550735 0)
(10.0707 0.0572057 0)
(10.0819 0.0578322 0)
(10.0922 0.0574869 0)
(10.1015 0.0565417 0)
(10.1102 0.0551453 0)
(10.1183 0.0533661 0)
(10.1259 0.0512217 0)
(10.1331 0.0487046 0)
(10.1398 0.0457708 0)
(10.146 0.0423728 0)
(10.1516 0.0384667 0)
(10.1563 0.0341156 0)
(10.16 0.029516 0)
(10.0016 0.0125863 0)
(10.0121 0.0312352 0)
(10.0264 0.0411329 0)
(10.0394 0.0467726 0)
(10.0509 0.0506268 0)
(10.062 0.0528568 0)
(10.0725 0.0536484 0)
(10.0823 0.0534695 0)
(10.0912 0.0526638 0)
(10.0996 0.0513793 0)
(10.1074 0.0496898 0)
(10.1147 0.0476257 0)
(10.1216 0.0451959 0)
(10.1281 0.0423814 0)
(10.134 0.0391683 0)
(10.1392 0.035558 0)
(10.1437 0.0316322 0)
(10.1474 0.0275716 0)
(10.0012 0.0106232 0)
(10.0097 0.0274315 0)
(10.0221 0.0371528 0)
(10.034 0.0428356 0)
(10.0448 0.0466669 0)
(10.0552 0.0489447 0)
(10.0651 0.0498505 0)
(10.0744 0.0497966 0)
(10.0831 0.0491004 0)
(10.0911 0.0479098 0)
(10.0987 0.0463019 0)
(10.1058 0.0443178 0)
(10.1124 0.0419788 0)
(10.1186 0.0392864 0)
(10.1242 0.0362493 0)
(10.1293 0.032896 0)
(10.1336 0.0293125 0)
(10.1372 0.0256607 0)
(10.0009 0.00889758 0)
(10.0077 0.0237136 0)
(10.0182 0.0330021 0)
(10.029 0.0386238 0)
(10.039 0.0423773 0)
(10.0487 0.0446617 0)
(10.058 0.045656 0)
(10.0668 0.0457095 0)
(10.0751 0.0451136 0)
(10.0828 0.0440166 0)
(10.0901 0.0424985 0)
(10.0969 0.0406096 0)
(10.1032 0.0383825 0)
(10.1091 0.0358371 0)
(10.1145 0.0329999 0)
(10.1193 0.0299169 0)
(10.1235 0.0266711 0)
(10.127 0.023401 0)
(10.0007 0.0073659 0)
(10.006 0.0201221 0)
(10.0148 0.0287412 0)
(10.0244 0.0341696 0)
(10.0336 0.037773 0)
(10.0425 0.0400068 0)
(10.0513 0.0410524 0)
(10.0596 0.0411926 0)
(10.0674 0.0406855 0)
(10.0747 0.0396797 0)
(10.0816 0.038259 0)
(10.0881 0.0364802 0)
(10.0941 0.0343863 0)
(10.0997 0.0320119 0)
(10.1048 0.0293963 0)
(10.1094 0.0265938 0)
(10.1134 0.0236795 0)
(10.1169 0.0207673 0)
(10.0005 0.00600099 0)
(10.0047 0.0167058 0)
(10.0119 0.0244293 0)
(10.0203 0.0295054 0)
(10.0287 0.0328759 0)
(10.0369 0.0349917 0)
(10.0449 0.0360377 0)
(10.0527 0.0362361 0)
(10.06 0.0358053 0)
(10.067 0.0348888 0)
(10.0735 0.0335731 0)
(10.0796 0.03192 0)
(10.0853 0.0299801 0)
(10.0906 0.027798 0)
(10.0954 0.0254205 0)
(10.0997 0.0229031 0)
(10.1035 0.0203103 0)
(10.1069 0.0177329 0)
(10.0004 0.00478224 0)
(10.0037 0.0134965 0)
(10.0096 0.0201303 0)
(10.0168 0.0246781 0)
(10.0243 0.0277179 0)
(10.0318 0.0296378 0)
(10.0392 0.0306195 0)
(10.0463 0.0308355 0)
(10.0532 0.0304619 0)
(10.0597 0.0296296 0)
(10.0658 0.028425 0)
(10.0716 0.0269119 0)
(10.0769 0.0251447 0)
(10.0819 0.0231725 0)
(10.0864 0.0210443 0)
(10.0905 0.0188123 0)
(10.0942 0.0165295 0)
(10.0975 0.0142677 0)
(10.0003 0.00368388 0)
(10.0029 0.0104947 0)
(10.0077 0.0158957 0)
(10.0139 0.0197403 0)
(10.0205 0.0223357 0)
(10.0272 0.0239728 0)
(10.034 0.0248145 0)
(10.0406 0.0249947 0)
(10.0469 0.0246487 0)
(10.053 0.0238884 0)
(10.0587 0.0227947 0)
(10.0641 0.02143 0)
(10.0691 0.0198474 0)
(10.0738 0.0180961 0)
(10.078 0.0162223 0)
(10.0819 0.014272 0)
(10.0854 0.0122878 0)
(10.0886 0.0103257 0)
(10.0003 0.00267768 0)
(10.0023 0.00767351 0)
(10.0063 0.0117491 0)
(10.0115 0.0147339 0)
(10.0173 0.016762 0)
(10.0234 0.0180219 0)
(10.0294 0.018642 0)
(10.0355 0.0187229 0)
(10.0413 0.0183639 0)
(10.047 0.0176533 0)
(10.0523 0.016661 0)
(10.0574 0.0154428 0)
(10.0621 0.0140471 0)
(10.0664 0.0125179 0)
(10.0705 0.0108957 0)
(10.0742 0.00921879 0)
(10.0775 0.0075201 0)
(10.0806 0.00584338 0)
(10.0002 0.00173369 0)
(10.0019 0.00498124 0)
(10.0052 0.00767057 0)
(10.0097 0.00966406 0)
(10.0148 0.0110019 0)
(10.0202 0.0117857 0)
(10.0257 0.0120997 0)
(10.0312 0.0120127 0)
(10.0367 0.0115915 0)
(10.0419 0.0108988 0)
(10.0469 0.00998818 0)
(10.0516 0.0089046 0)
(10.056 0.00768742 0)
(10.0601 0.00637233 0)
(10.064 0.00499175 0)
(10.0675 0.00357534 0)
(10.0707 0.00214751 0)
(10.0737 0.000742172 0)
(10.0002 0.000815637 0)
(10.0016 0.00233667 0)
(10.0045 0.00358725 0)
(10.0084 0.00448174 0)
(10.013 0.00501666 0)
(10.0179 0.00522735 0)
(10.023 0.00515237 0)
(10.0281 0.00482763 0)
(10.0331 0.00428993 0)
(10.038 0.00357553 0)
(10.0426 0.00271811 0)
(10.0471 0.00174742 0)
(10.0512 0.000690894 0)
(10.0552 -0.000426765 0)
(10.0588 -0.00158256 0)
(10.0622 -0.00275604 0)
(10.0654 -0.0039304 0)
(10.0683 -0.00508069 0)
(10.0002 -7.37864e-05 0)
(10.0015 -0.00023168 0)
(10.0042 -0.000405014 0)
(10.0079 -0.000627997 0)
(10.0122 -0.000928975 0)
(10.0168 -0.00132658 0)
(10.0216 -0.00182613 0)
(10.0265 -0.00242334 0)
(10.0312 -0.00310985 0)
(10.0359 -0.00387495 0)
(10.0403 -0.00470654 0)
(10.0445 -0.00559101 0)
(10.0486 -0.00651489 0)
(10.0523 -0.00746434 0)
(10.0559 -0.00842684 0)
(10.0592 -0.00938975 0)
(10.0623 -0.0103439 0)
(10.0651 -0.011271 0)
(10.0002 -0.000906392 0)
(10.0016 -0.00263097 0)
(10.0043 -0.00411843 0)
(10.0081 -0.00535963 0)
(10.0124 -0.00641587 0)
(10.017 -0.00736291 0)
(10.0217 -0.00824658 0)
(10.0265 -0.00909116 0)
(10.0312 -0.00991424 0)
(10.0357 -0.0107295 0)
(10.0401 -0.0115445 0)
(10.0442 -0.012361 0)
(10.0482 -0.0131776 0)
(10.0519 -0.0139911 0)
(10.0554 -0.0147972 0)
(10.0586 -0.0155906 0)
(10.0617 -0.016367 0)
(10.0645 -0.0171144 0)
(10.0002 -0.00171338 0)
(10.0018 -0.0049357 0)
(10.0048 -0.00762064 0)
(10.0089 -0.00973632 0)
(10.0135 -0.0114172 0)
(10.0182 -0.0128118 0)
(10.023 -0.014002 0)
(10.0279 -0.015035 0)
(10.0326 -0.0159541 0)
(10.0371 -0.0167963 0)
(10.0415 -0.0175857 0)
(10.0456 -0.0183369 0)
(10.0496 -0.0190585 0)
(10.0533 -0.0197563 0)
(10.0567 -0.0204325 0)
(10.06 -0.0210876 0)
(10.063 -0.0217209 0)
(10.0659 -0.0223243 0)
(10.0002 -0.00256415 0)
(10.0022 -0.00731825 0)
(10.0058 -0.0111168 0)
(10.0104 -0.0139608 0)
(10.0153 -0.0161344 0)
(10.0203 -0.0178774 0)
(10.0254 -0.0192943 0)
(10.0304 -0.0204521 0)
(10.0352 -0.0214214 0)
(10.0399 -0.0222603 0)
(10.0443 -0.0230072 0)
(10.0485 -0.0236856 0)
(10.0525 -0.024314 0)
(10.0562 -0.0249044 0)
(10.0597 -0.0254657 0)
(10.063 -0.0260011 0)
(10.066 -0.0265142 0)
(10.0689 -0.026998 0)
(10.0003 -0.00352789 0)
(10.0028 -0.00992507 0)
(10.0072 -0.0147413 0)
(10.0126 -0.0181446 0)
(10.018 -0.0206812 0)
(10.0234 -0.0226784 0)
(10.0288 -0.0242428 0)
(10.034 -0.0254613 0)
(10.039 -0.0264357 0)
(10.0438 -0.0272428 0)
(10.0483 -0.0279283 0)
(10.0526 -0.0285241 0)
(10.0567 -0.0290553 0)
(10.0604 -0.0295416 0)
(10.064 -0.0299954 0)
(10.0673 -0.0304246 0)
(10.0704 -0.0308328 0)
(10.0733 -0.0312164 0)
(10.0004 -0.0046915 0)
(10.0038 -0.012893 0)
(10.0094 -0.0185682 0)
(10.0157 -0.0223297 0)
(10.0217 -0.025114 0)
(10.0275 -0.0272837 0)
(10.0332 -0.0289184 0)
(10.0387 -0.0301371 0)
(10.044 -0.0310778 0)
(10.049 -0.0318286 0)
(10.0537 -0.0324377 0)
(10.0581 -0.0329418 0)
(10.0623 -0.0333732 0)
(10.0662 -0.033757 0)
(10.0698 -0.0341099 0)
(10.0732 -0.0344421 0)
(10.0764 -0.0347588 0)
(10.0794 -0.035056 0)
(10.0006 -0.00617104 0)
(10.0053 -0.0163572 0)
(10.0125 -0.0226351 0)
(10.0198 -0.0265156 0)
(10.0264 -0.0294514 0)
(10.0327 -0.0317311 0)
(10.0389 -0.0333765 0)
(10.0448 -0.0345511 0)
(10.0504 -0.0354302 0)
(10.0557 -0.036106 0)
(10.0606 -0.0366245 0)
(10.0653 -0.0370275 0)
(10.0696 -0.0373535 0)
(10.0737 -0.0376335 0)
(10.0774 -0.0378887 0)
(10.081 -0.0381318 0)
(10.0843 -0.0383691 0)
(10.0874 -0.0385945 0)
(10.001 -0.00810985 0)
(10.0077 -0.0204256 0)
(10.0169 -0.0270075 0)
(10.0253 -0.0307702 0)
(10.0326 -0.0337482 0)
(10.0396 -0.0360546 0)
(10.0465 -0.0376587 0)
(10.053 -0.0387713 0)
(10.059 -0.0395842 0)
(10.0647 -0.0401803 0)
(10.07 -0.0406005 0)
(10.075 -0.0408918 0)
(10.0796 -0.0410994 0)
(10.0839 -0.0412623 0)
(10.0879 -0.0414072 0)
(10.0916 -0.0415521 0)
(10.0951 -0.0417035 0)
(10.0983 -0.04185 0)
(10.0016 -0.0107717 0)
(10.0113 -0.0250812 0)
(10.0232 -0.031683 0)
(10.0332 -0.0353118 0)
(10.0415 -0.038261 0)
(10.0496 -0.0404315 0)
(10.0575 -0.0418608 0)
(10.0649 -0.0428421 0)
(10.0717 -0.0435584 0)
(10.0781 -0.0440633 0)
(10.084 -0.0443856 0)
(10.0895 -0.044573 0)
(10.0945 -0.0446754 0)
(10.0992 -0.0447366 0)
(10.1035 -0.0447912 0)
(10.1074 -0.0448609 0)
(10.1111 -0.0449569 0)
(10.1145 -0.0450542 0)
(10.0029 -0.0148976 0)
(10.0174 -0.0301802 0)
(10.0337 -0.036076 0)
(10.0466 -0.0398597 0)
(10.0574 -0.0430991 0)
(10.0677 -0.0452282 0)
(10.0776 -0.0464417 0)
(10.0866 -0.0471909 0)
(10.0948 -0.0476785 0)
(10.1023 -0.0479432 0)
(10.1092 -0.0480162 0)
(10.1156 -0.0479542 0)
(10.1212 -0.0478146 0)
(10.1264 -0.0476509 0)
(10.1309 -0.0475055 0)
(10.1351 -0.0474063 0)
(10.1388 -0.0473648 0)
(10.1421 -0.0473243 0)
(10.0075 -0.0229093 0)
(10.0348 -0.0378645 0)
(10.0615 -0.0403223 0)
(10.0817 -0.043057 0)
(10.0989 -0.0465851 0)
(10.1147 -0.0491816 0)
(10.129 -0.0507892 0)
(10.1412 -0.051865 0)
(10.1517 -0.0525926 0)
(10.1607 -0.052982 0)
(10.1683 -0.0530753 0)
(10.1746 -0.0529434 0)
(10.1796 -0.0526713 0)
(10.1833 -0.0523319 0)
(10.1861 -0.0520086 0)
(10.1879 -0.0517688 0)
(10.189 -0.0516271 0)
(10.1895 -0.0516159 0)
(10.0378 -0.0340958 0)
(10.1202 -0.0589147 0)
(10.1751 -0.0606391 0)
(10.2083 -0.0594166 0)
(10.2298 -0.0588256 0)
(10.243 -0.058046 0)
(10.2486 -0.0569853 0)
(10.2475 -0.0559302 0)
(10.2412 -0.0549175 0)
(10.2306 -0.05385 0)
(10.2166 -0.0526883 0)
(10.1998 -0.0514509 0)
(10.1807 -0.0501889 0)
(10.16 -0.0489733 0)
(10.138 -0.0478732 0)
(10.1155 -0.0469956 0)
(10.0929 -0.0463851 0)
(10.0708 -0.046409 0)
(9.89373 -0.0265648 0)
(9.6954 -0.051554 0)
(9.49509 -0.0592358 0)
(9.29448 -0.0615833 0)
(9.10559 -0.0615623 0)
(8.93141 -0.0600285 0)
(8.77092 -0.0575289 0)
(8.62245 -0.0546141 0)
(8.48535 -0.0515345 0)
(8.35937 -0.0483481 0)
(8.24395 -0.0451244 0)
(8.13844 -0.0419302 0)
(8.04209 -0.0388178 0)
(7.95419 -0.0358427 0)
(7.87391 -0.0331253 0)
(7.79991 -0.0308512 0)
(7.73079 -0.0290492 0)
(7.66637 -0.0280164 0)
(-0.00346551 0.00962377 0)
(-0.0160192 0.0157292 0)
(-0.03303 0.0171001 0)
(-0.051715 0.0146332 0)
(-0.067987 0.00751289 0)
(-0.0731274 -0.00381151 0)
(-0.0588294 -0.0186481 -6.62333e-19)
(-0.0296059 -0.0356797 7.84666e-19)
(0.0112211 -0.0500336 0)
(0.0596171 -0.0582597 5.50852e-19)
(0.112725 -0.0606308 0)
(0.16683 -0.0588009 0)
(0.218103 -0.0540237 0)
(0.264131 -0.0473289 -2.25509e-19)
(0.303665 -0.0394921 0)
(0.336122 -0.0310446 0)
(0.361224 -0.0222906 1.80688e-19)
(0.378814 -0.0133494 0)
(0.388812 -0.0041193 0)
(0.390984 0.00561904 0)
(0.384179 0.0157664 -1.75151e-19)
(0.368891 0.0257777 0)
(0.345535 0.0348855 -1.89196e-19)
(0.314583 0.0422869 0)
(0.276879 0.0472096 0)
(0.233766 0.04888 -2.54818e-19)
(0.187122 0.046635 0)
(0.139346 0.0401039 3.68936e-19)
(0.0932792 0.0294615 0)
(0.0521014 0.015887 -6.5353e-19)
(0.0191002 0.00236393 0)
(-0.00350207 -0.00643445 0)
(-0.0178731 -0.00808526 0)
(-0.0267837 -0.00487308 0)
(-0.0322209 -0.000342971 0)
(-0.0365413 0.00251271 9.45287e-19)
(-0.0406985 0.00220841 0)
(-0.0418709 -0.0015986 -1.83969e-18)
(-0.0351072 -0.00850423 0)
(-0.0182196 -0.0174463 2.136e-18)
(0.00815828 -0.0264083 0)
(0.0413218 -0.0322763 0)
(0.0767858 -0.0327884 -1.08456e-18)
(0.10954 -0.0283178 0)
(0.135134 -0.0206674 -8.00418e-19)
(0.151096 -0.0119556 7.61938e-19)
(0.157375 -0.00381839 0)
(0.154931 0.00185698 7.65656e-19)
(0.148253 0.00377601 7.89584e-19)
(0.141797 0.00348858 0)
(0.138851 0.00116072 0)
(0.146695 -0.0104309 0)
(0.156535 -0.0275297 0)
(0.159606 -0.0456772 0)
(0.140619 -0.0516608 -7.75369e-19)
(0.0939118 -0.0338078 0)
(0.00777946 0.00775879 9.17579e-19)
(-0.130324 0.055246 0)
(-0.285143 0.0904472 0)
(-0.453476 0.114585 -2.47371e-19)
(-0.628245 0.128595 0)
(-0.802534 0.133663 1.59574e-19)
(-0.970947 0.131237 0)
(-1.12953 0.123895 0)
(-1.27585 0.113951 0)
(-1.40889 0.102885 -1.04176e-19)
(-1.52865 0.0918128 0)
(-1.63599 0.0813746 0)
(-1.7319 0.0719136 -8.95001e-20)
(-1.81764 0.0635834 0)
(-1.89451 0.0563811 -8.38162e-20)
(-1.9637 0.0502314 0)
(-2.02633 0.0450097 0)
(-2.08335 0.0405841 0)
(-2.13558 0.0368243 7.65435e-20)
(-2.18369 0.0336114 0)
(-2.22823 0.0308434 0)
(-2.26966 0.028436 7.27546e-20)
(-2.30835 0.0263198 7.16553e-20)
(-2.34458 0.0244371 0)
(-2.3786 0.0227429 6.96169e-20)
(-2.41059 0.0212011 0)
(-2.4407 0.0197828 1.35462e-19)
(-2.46905 0.0184652 0)
(-2.49574 0.0172295 1.31892e-19)
(-2.52085 0.0160605 0)
(-2.54444 0.0149452 -1.28456e-19)
(-2.56655 0.0138723 0)
(-2.58722 0.0128315 0)
(-2.60649 0.0118134 0)
(-2.62435 0.0108078 1.21791e-19)
(-2.64082 0.00980565 0)
(-2.65591 0.0087969 -1.18495e-19)
(-2.66958 0.00777196 0)
(-2.68183 0.00672215 1.15195e-19)
(-2.69262 0.00564084 1.1354e-19)
(-2.70189 0.00452697 1.11879e-19)
(-2.70961 0.00339103 0)
(-2.7157 0.00227164 0)
(-2.72012 0.00124351 0)
(-2.7228 0.000380692 0)
(-2.72404 -0.00033546 0)
(-2.72405 -0.000989825 0)
(-2.72283 -0.00162695 0)
(-2.72038 -0.00225373 0)
(-2.71672 -0.00287457 -9.60247e-20)
(-2.71183 -0.00348929 -9.40791e-20)
(-2.70571 -0.00409851 0)
(-2.69835 -0.00470142 0)
(-2.68977 -0.00529815 0)
(-2.67994 -0.00588785 -8.58332e-20)
(-2.66888 -0.00647054 0)
(-2.65658 -0.00704542 0)
(-2.64304 -0.00761244 0)
(-2.62827 -0.00817088 0)
(-2.61228 -0.00872065 7.4338e-20)
(-2.59506 -0.00926113 0)
(-2.57662 -0.00979217 0)
(-2.55698 -0.0103132 -6.67102e-20)
(-2.53613 -0.010824 6.40328e-20)
(-2.5141 -0.0113238 0)
(-2.49089 -0.0118118 5.8462e-20)
(-2.46652 -0.0122864 0)
(-2.441 -0.0127443 -5.25863e-20)
(-2.41436 -0.0131794 0)
(-2.3866 -0.0135797 0)
(-2.35776 -0.0139194 0)
(-2.32787 -0.0141716 0)
(-2.29698 -0.0142881 0)
(-2.26515 -0.0142451 6.58175e-20)
(-2.23234 -0.0143435 5.86211e-20)
(-2.19851 -0.0146766 0)
(-2.16368 -0.0150107 0)
(-2.1279 -0.0153228 0)
(-2.09121 -0.0156219 -2.76533e-20)
(-2.05363 -0.0159072 0)
(-2.0152 -0.0161797 0)
(-1.97593 -0.0164406 0)
(-1.93586 -0.0166899 7.40696e-21)
(-1.89501 -0.0169279 -1.69039e-20)
(-1.85342 -0.0171551 0)
(-1.81112 -0.0173718 0)
(-1.76812 -0.0175784 -4.73973e-20)
(-1.72446 -0.0177761 -5.82904e-20)
(-1.68017 -0.0179653 0)
(-1.63527 -0.0181474 0)
(-1.58979 -0.0183227 9.34612e-20)
(-1.54374 -0.0184896 -1.06105e-19)
(-1.49716 -0.0186537 0)
(-1.45008 -0.0188056 0)
(-1.4025 -0.0189568 -1.47192e-19)
(-1.35449 -0.0190963 0)
(-1.30603 -0.0192364 0)
(-1.2572 -0.0193665 -1.93899e-19)
(-1.20797 -0.0195015 0)
(-1.15843 -0.0196307 -2.28769e-19)
(-1.10851 -0.0197703 0)
(-1.0583 -0.0199086 0)
(-1.00774 -0.0200617 0)
(-0.956895 -0.0202189 3.09858e-19)
(-0.90571 -0.0203895 0)
(-0.854217 -0.0205729 0)
(-0.802403 -0.0207664 0)
(-0.750273 -0.0209736 0)
(-0.697828 -0.0211959 0)
(-0.645067 -0.0214366 0)
(-0.591983 -0.0216996 5.06974e-19)
(-0.538565 -0.0219882 5.43762e-19)
(-0.484797 -0.0223046 0)
(-0.430666 -0.0226487 0)
(-0.376165 -0.0230178 0)
(-0.321306 -0.0234044 -7.25863e-19)
(-0.26613 -0.0238037 0)
(-0.210722 -0.0242179 1.69285e-18)
(-0.155249 -0.0245911 -1.83441e-18)
(-0.100024 -0.0247957 -1.99336e-18)
(-0.0454648 -0.0246664 2.17261e-18)
(0.00543649 -0.0234293 -2.27884e-18)
(0.062687 -0.0211778 2.24766e-18)
(0.0760385 -0.00998393 0)
(-1.7852e-05 0.02542 0)
(-0.00657952 0.044306 0)
(-0.0152514 0.0472799 1.97064e-18)
(-0.019433 0.0395424 0)
(-0.00912831 0.0188298 -2.32874e-18)
(0.0223184 -0.0198059 -1.62528e-18)
(0.0645559 -0.0704538 -4.66273e-19)
(0.115005 -0.116329 -3.14304e-19)
(0.169343 -0.14819 0)
(0.223403 -0.16392 -1.92949e-19)
(0.27413 -0.165536 0)
(0.319701 -0.157018 0)
(0.359481 -0.142232 2.71344e-19)
(0.393459 -0.123895 1.27219e-19)
(0.421768 -0.103873 -2.44471e-19)
(0.444694 -0.0833214 -2.37948e-19)
(0.462598 -0.0628274 -1.17043e-19)
(0.475836 -0.0426388 0)
(0.48472 -0.0227314 0)
(0.489839 -0.00292629 0)
(0.491956 0.0169386 -1.20583e-19)
(0.490673 0.0367253 0)
(0.48543 0.0561034 3.72175e-19)
(0.475496 0.0746259 0)
(0.460015 0.091571 0)
(0.438168 0.105909 1.37729e-19)
(0.409333 0.116325 0)
(0.373338 0.12135 -1.58064e-19)
(0.330622 0.119703 -3.50832e-19)
(0.282364 0.110745 2.00473e-19)
(0.230585 0.0950401 0)
(0.178143 0.0746285 0)
(0.128337 0.0522914 0)
(0.0854041 0.0309908 -1.01715e-18)
(0.0534979 0.0136484 -1.36906e-18)
(0.0347827 0.00133158 -8.85878e-19)
(0.0288414 -0.0092403 0)
(0.037047 -0.0222685 1.79639e-18)
(0.054606 -0.0399235 0)
(0.0805111 -0.0613885 -9.60776e-19)
(0.111925 -0.0800098 0)
(0.142961 -0.0876276 0)
(0.167911 -0.0819598 4.92716e-19)
(0.184653 -0.0661387 0)
(0.192608 -0.0452124 1.37877e-18)
(0.192607 -0.0236759 -4.83311e-19)
(0.185783 -0.00496857 0)
(0.175049 0.00623163 -5.54411e-19)
(0.162448 0.00652361 -6.04771e-19)
(0.146219 -0.00226578 0)
(0.116772 -0.0132612 0)
(0.0560174 -0.00920804 0)
(-0.068705 0.0371459 0)
(-0.240412 0.108161 0)
(-0.425577 0.175779 2.40362e-19)
(-0.615663 0.236596 3.5051e-19)
(-0.804656 0.287639 -1.37035e-19)
(-0.988829 0.323295 0)
(-1.16152 0.340767 1.97113e-19)
(-1.31991 0.342439 -8.87479e-20)
(-1.46111 0.33181 0)
(-1.58444 0.312332 -7.42519e-20)
(-1.69053 0.287455 0)
(-1.781 0.260077 0)
(-1.85809 0.232492 -1.30938e-19)
(-1.92413 0.206264 6.30439e-20)
(-1.9813 0.182328 -1.2374e-19)
(-2.03148 0.161094 1.20926e-19)
(-2.07617 0.142616 5.8996e-20)
(-2.11656 0.126754 0)
(-2.15353 0.113245 5.69784e-20)
(-2.18773 0.101781 0)
(-2.21961 0.0920501 0)
(-2.24952 0.0837584 0)
(-2.27768 0.0766465 5.36934e-20)
(-2.30429 0.0704939 0)
(-2.32946 0.0651164 1.04405e-19)
(-2.35329 0.0603645 -1.54527e-19)
(-2.37585 0.0561159 -5.08445e-20)
(-2.39719 0.0522739 0)
(-2.41736 0.0487614 -4.95306e-20)
(-2.43639 0.0455174 0)
(-2.4543 0.0424935 -9.65079e-20)
(-2.47112 0.0396512 0)
(-2.48686 0.0369596 -9.39998e-20)
(-2.50154 0.0343939 1.85411e-19)
(-2.51516 0.0319337 9.15133e-20)
(-2.52773 0.0295619 0)
(-2.53925 0.0272641 0)
(-2.54972 0.0250276 0)
(-2.55916 0.0228411 -8.65309e-20)
(-2.56755 0.0206946 0)
(-2.5749 0.0185786 8.40065e-20)
(-2.58122 0.0164844 0)
(-2.58652 0.0144034 -2.44357e-19)
(-2.59082 0.0123275 -8.01528e-20)
(-2.59415 0.0102484 -7.88485e-20)
(-2.59655 0.00816057 0)
(-2.59811 0.00607715 0)
(-2.59891 0.0040491 0)
(-2.59903 0.00215012 0)
(-2.59825 0.000386784 0)
(-2.59632 -0.00130214 -1.41359e-19)
(-2.59323 -0.00295525 -1.38453e-19)
(-2.58895 -0.00458157 0)
(-2.58348 -0.00618641 6.61587e-20)
(-2.5768 -0.00776974 6.46247e-20)
(-2.56891 -0.00933168 0)
(-2.55981 -0.0108708 1.23198e-19)
(-2.5495 -0.0123863 0)
(-2.53796 -0.0138767 -5.85006e-20)
(-2.5252 -0.015341 0)
(-2.51123 -0.0167778 0)
(-2.49603 -0.018186 1.06571e-19)
(-2.47962 -0.0195641 0)
(-2.462 -0.0209113 -4.95599e-20)
(-2.44317 -0.0222261 0)
(-2.42314 -0.0235078 0)
(-2.40192 -0.024755 -4.43987e-20)
(-2.37952 -0.025967 -4.20426e-20)
(-2.35595 -0.0271427 0)
(-2.33122 -0.0282813 3.85502e-20)
(-2.30534 -0.0293821 0)
(-2.27833 -0.0304446 -3.44657e-20)
(-2.25021 -0.0314687 -6.42038e-20)
(-2.22099 -0.0324553 0)
(-2.19069 -0.0334082 0)
(-2.15931 -0.0343356 0)
(-2.12687 -0.0352461 0)
(-2.09337 -0.0361355 -4.13061e-20)
(-2.05882 -0.0369875 -1.10957e-19)
(-2.02331 -0.037776 0)
(-1.98685 -0.0384977 0)
(-1.94945 -0.0391664 0)
(-1.91115 -0.039792 1.68287e-20)
(-1.87196 -0.0403778 0)
(-1.83191 -0.0409224 0)
(-1.79103 -0.0414252 -3.51567e-21)
(-1.74935 -0.041888 2.96924e-21)
(-1.7069 -0.0423124 9.91861e-21)
(-1.66369 -0.042699 0)
(-1.61977 -0.0430487 0)
(-1.57516 -0.0433625 2.71437e-20)
(-1.52988 -0.0436423 -3.15808e-20)
(-1.48397 -0.0438892 0)
(-1.43745 -0.0441052 0)
(-1.39034 -0.0442923 -5.16067e-20)
(-1.34268 -0.0444465 1.72448e-19)
(-1.29447 -0.0445803 0)
(-1.24576 -0.0446811 0)
(-1.19656 -0.0447585 7.7931e-20)
(-1.1469 -0.0448034 0)
(-1.0968 -0.0448251 1.82068e-19)
(-1.04631 -0.0448171 -9.73842e-20)
(-0.995422 -0.0447923 0)
(-0.944194 -0.0447463 1.13843e-19)
(-0.8926 -0.0446934 2.41138e-19)
(-0.840699 -0.0446289 0)
(-0.78845 -0.0445656 0)
(-0.735901 -0.0445041 -1.45242e-19)
(-0.683013 -0.0444418 0)
(-0.629808 -0.0443872 3.221e-19)
(-0.576276 -0.044332 0)
(-0.52242 -0.0442798 0)
(-0.46824 -0.0442316 0)
(-0.413733 -0.0441911 0)
(-0.358893 -0.0441625 -2.07105e-19)
(-0.30371 -0.0441501 -2.1678e-19)
(-0.248168 -0.0441556 0)
(-0.192254 -0.0441774 0)
(-0.13596 -0.0442081 0)
(-0.0792905 -0.0442311 2.57947e-19)
(-0.022281 -0.0442156 0)
(0.0350082 -0.044106 -5.47246e-19)
(0.092469 -0.0438306 5.48343e-19)
(0.149827 -0.0432605 5.49517e-19)
(0.206993 -0.0421893 5.47602e-19)
(0.261836 -0.0401847 5.5373e-19)
(0.319755 -0.0362721 5.56214e-19)
(0.355258 -0.0243244 0)
(0.000970193 0.0274322 0)
(0.00195289 0.0501188 0)
(0.00624112 0.0475748 -2.13973e-18)
(0.0233552 0.0190963 -1.70534e-18)
(0.0625806 -0.0430545 1.02904e-18)
(0.119208 -0.12207 6.28718e-19)
(0.181362 -0.19235 -3.27974e-22)
(0.23944 -0.239032 0)
(0.289066 -0.259768 0)
(0.329415 -0.259336 0)
(0.361517 -0.244394 0)
(0.387027 -0.220822 0)
(0.407474 -0.193018 -6.17632e-19)
(0.42394 -0.163757 0)
(0.437143 -0.134558 1.91862e-19)
(0.447537 -0.106173 1.88741e-19)
(0.455417 -0.0788961 0)
(0.460982 -0.052776 0)
(0.464406 -0.0277633 0)
(0.465816 -0.00373369 0)
(0.465586 0.0195567 1.94696e-19)
(0.464013 0.042479 0)
(0.46142 0.0653038 -2.00302e-19)
(0.457971 0.0880618 0)
(0.453539 0.11045 0)
(0.447607 0.131765 0)
(0.439254 0.150863 -4.65121e-19)
(0.427184 0.166185 0)
(0.409949 0.175924 2.58012e-19)
(0.386321 0.178359 -5.53415e-19)
(0.355824 0.172327 0)
(0.319239 0.157701 0)
(0.278868 0.135457 0)
(0.238446 0.107488 4.48333e-19)
(0.202357 0.0762226 5.31975e-19)
(0.174645 0.043744 0)
(0.15855 0.01042 0)
(0.154143 -0.0245569 -1.45949e-18)
(0.161269 -0.0610437 -1.2628e-18)
(0.175325 -0.0944292 1.03051e-18)
(0.18793 -0.113499 0)
(0.191895 -0.111212 0)
(0.186241 -0.0919698 0)
(0.172184 -0.0630079 0)
(0.150868 -0.0322217 -7.53793e-19)
(0.123663 -0.00506721 -8.33823e-19)
(0.0904026 0.0192249 9.74863e-19)
(0.0463496 0.0388707 0)
(-0.0286437 0.0561085 0)
(-0.149958 0.101677 0)
(-0.308376 0.170942 0)
(-0.489592 0.248111 -3.73378e-19)
(-0.679775 0.325028 0)
(-0.867572 0.394249 0)
(-1.04314 0.449249 -1.92974e-19)
(-1.20131 0.489296 -1.67484e-19)
(-1.33615 0.51265 0)
(-1.44642 0.51824 2.76198e-19)
(-1.53468 0.507373 -1.26864e-19)
(-1.60452 0.483286 1.1924e-19)
(-1.6602 0.449923 0)
(-1.7058 0.411209 0)
(-1.74483 0.370576 0)
(-1.77998 0.33071 0)
(-1.81303 0.293439 9.77574e-20)
(-1.84502 0.259802 1.91625e-19)
(-1.87642 0.230196 9.27113e-20)
(-1.9074 0.204583 -9.05525e-20)
(-1.93792 0.182656 0)
(-1.96787 0.163989 1.73921e-19)
(-1.99713 0.148117 1.70413e-19)
(-2.02557 0.134591 1.67166e-19)
(-2.0531 0.122997 -1.64113e-19)
(-2.07966 0.112977 0)
(-2.1052 0.104238 -2.37792e-19)
(-2.1297 0.0965347 0)
(-2.15314 0.0896698 7.66643e-20)
(-2.17553 0.0834811 7.55702e-20)
(-2.19687 0.0778402 0)
(-2.21716 0.0726458 0)
(-2.23642 0.0678176 1.44224e-19)
(-2.25465 0.0632914 0)
(-2.27187 0.0590162 1.39922e-19)
(-2.28808 0.0549512 0)
(-2.30328 0.0510632 -1.35738e-19)
(-2.3175 0.0473254 -2.67455e-19)
(-2.33073 0.0437153 0)
(-2.34297 0.0402144 0)
(-2.35424 0.0368068 0)
(-2.36452 0.0334791 -1.2554e-19)
(-2.37383 0.03022 0)
(-2.38216 0.0270204 -1.21494e-19)
(-2.38951 0.0238734 0)
(-2.3959 0.0207748 0)
(-2.40131 0.0177233 2.30816e-19)
(-2.40577 0.0147212 0)
(-2.40926 0.0117742 1.11321e-19)
(-2.41181 0.00889128 0)
(-2.4134 0.00608051 1.07206e-19)
(-2.414 0.00333743 0)
(-2.41357 0.000631041 0)
(-2.41204 -0.00206566 0)
(-2.4094 -0.00474647 2.95293e-19)
(-2.40563 -0.0073986 9.61056e-20)
(-2.40071 -0.0100198 0)
(-2.39462 -0.0126088 0)
(-2.38738 -0.0151644 0)
(-2.37895 -0.0176847 0)
(-2.36935 -0.0201679 -8.44478e-20)
(-2.35857 -0.0226119 1.64476e-19)
(-2.3466 -0.0250148 7.95892e-20)
(-2.33344 -0.0273744 -1.54695e-19)
(-2.31909 -0.0296887 -1.49712e-19)
(-2.30356 -0.0319557 -7.20736e-20)
(-2.28684 -0.0341733 0)
(-2.26894 -0.0363396 -1.34383e-19)
(-2.24987 -0.0384527 0)
(-2.22962 -0.0405108 1.23836e-19)
(-2.20821 -0.0425122 5.8905e-20)
(-2.18565 -0.0444553 0)
(-2.16194 -0.0463382 -1.07509e-19)
(-2.13709 -0.0481594 -5.06017e-20)
(-2.11113 -0.0499172 0)
(-2.08406 -0.0516096 -4.56674e-20)
(-2.0559 -0.0532349 1.26761e-19)
(-2.02665 -0.0547911 0)
(-1.99635 -0.0562768 0)
(-1.965 -0.0576924 0)
(-1.93262 -0.0590396 0)
(-1.89921 -0.0603239 5.47642e-20)
(-1.86482 -0.0615583 4.76243e-20)
(-1.82947 -0.0627355 0)
(-1.79319 -0.0638383 0)
(-1.756 -0.0648652 0)
(-1.71792 -0.0658223 0)
(-1.67897 -0.0667125 0)
(-1.63918 -0.067535 0)
(-1.59857 -0.0682895 2.18884e-21)
(-1.55717 -0.0689774 -1.05218e-21)
(-1.51501 -0.0696009 0)
(-1.47212 -0.0701611 0)
(-1.42851 -0.0706595 -2.4062e-20)
(-1.38423 -0.0710978 0)
(-1.33929 -0.0714783 3.918e-20)
(-1.29373 -0.0718032 4.51632e-20)
(-1.24757 -0.0720751 0)
(-1.20083 -0.0722978 0)
(-1.15354 -0.0724691 -6.79387e-20)
(-1.10573 -0.0725975 -1.48217e-19)
(-1.0574 -0.0726791 0)
(-1.0086 -0.0727144 0)
(-0.959338 -0.0727024 0)
(-0.909647 -0.0726434 -1.05141e-19)
(-0.859547 -0.0725412 1.12769e-19)
(-0.80907 -0.0724009 0)
(-0.758228 -0.0722304 2.53921e-19)
(-0.707046 -0.072036 1.33507e-19)
(-0.655529 -0.0718265 -2.85081e-19)
(-0.603691 -0.0716056 0)
(-0.55153 -0.0713857 0)
(-0.499048 -0.0711593 -3.3251e-19)
(-0.446242 -0.0709364 -1.75475e-19)
(-0.393112 -0.0707084 0)
(-0.339657 -0.0704775 0)
(-0.285877 -0.0702454 0)
(-0.231769 -0.0700165 0)
(-0.177325 -0.069796 -4.29875e-19)
(-0.122536 -0.0695888 0)
(-0.0673869 -0.0693966 0)
(-0.0118632 -0.0692157 0)
(0.0440459 -0.0690332 0)
(0.10034 -0.0688251 0)
(0.157001 -0.0685513 0)
(0.213977 -0.0681401 -5.0989e-19)
(0.271182 -0.0674949 0)
(0.328407 -0.066458 0)
(0.385668 -0.0647783 -1.06035e-18)
(0.441448 -0.0620007 5.36124e-19)
(0.499769 -0.057171 -5.47841e-19)
(0.545451 -0.0452214 5.60057e-19)
(-0.00124398 0.0267663 0)
(0.00069597 0.0389903 4.72089e-18)
(0.018741 0.0063192 0)
(0.067211 -0.0794115 9.24621e-19)
(0.136319 -0.184167 0)
(0.206691 -0.27069 0)
(0.26498 -0.321848 -2.9789e-19)
(0.307298 -0.338848 0)
(0.3358 -0.331048 0)
(0.354569 -0.308457 0)
(0.367308 -0.278431 0)
(0.376555 -0.245396 0)
(0.383771 -0.211699 6.92221e-19)
(0.389661 -0.178473 3.36492e-19)
(0.39449 -0.146221 -3.30301e-19)
(0.398305 -0.115142 0)
(0.401075 -0.0853011 0)
(0.402767 -0.056689 0)
(0.403368 -0.0292694 0)
(0.402891 -0.00298699 0)
(0.401432 0.0222681 3.44193e-19)
(0.399116 0.0466474 3.47238e-19)
(0.39618 0.0703105 -3.52749e-19)
(0.39294 0.0934091 3.60803e-19)
(0.389697 0.11599 0)
(0.386637 0.137896 0)
(0.383731 0.158689 4.05767e-19)
(0.380611 0.177533 0)
(0.376472 0.193121 0)
(0.370103 0.203714 4.8013e-19)
(0.360157 0.207328 5.11692e-19)
(0.34563 0.202136 5.49687e-19)
(0.326379 0.186913 0)
(0.303449 0.161423 0)
(0.279029 0.126679 -7.48517e-19)
(0.25619 0.084592 0)
(0.237915 0.0376542 0)
(0.225791 -0.0117091 1.04938e-18)
(0.218271 -0.0604327 -9.20096e-19)
(0.207353 -0.0947564 7.69828e-19)
(0.187067 -0.10225 0)
(0.156445 -0.0851915 0)
(0.11632 -0.0535248 1.38762e-18)
(0.0675346 -0.0134616 0)
(0.00943101 0.0309975 1.72737e-18)
(-0.0693042 0.0771568 2.32133e-18)
(-0.17591 0.133082 -1.76744e-18)
(-0.307823 0.202792 8.85345e-19)
(-0.464659 0.28114 0)
(-0.637274 0.364746 0)
(-0.812618 0.44598 4.39069e-19)
(-0.979127 0.517118 1.84638e-19)
(-1.12776 0.572055 0)
(-1.25328 0.608489 0)
(-1.35495 0.627198 1.30289e-19)
(-1.43374 0.63009 2.42505e-19)
(-1.49148 0.619116 0)
(-1.53227 0.596273 -2.10333e-19)
(-1.56098 0.564032 2.01071e-19)
(-1.5823 0.525402 -1.91107e-19)
(-1.60014 0.483366 0)
(-1.61732 0.440497 0)
(-1.63556 0.398767 0)