/*--------------------------------*- C++ -*----------------------------------*\
  =========                 |
  \\      /  F ield         | OpenFOAM: The Open Source CFD Toolbox
   \\    /   O peration     | Website:  https://openfoam.org
    \\  /    A nd           | Version:  8
     \\/     M anipulation  |
\*---------------------------------------------------------------------------*/
FoamFile
{
    version     2.0;
    format      ascii;
    class       volVectorField;
    location    "500";
    object      U;
}
// * * * * * * * * * * * * * * * * * * * * * * * * * * * * * * * * * * * * * //

dimensions      [0 1 -1 0 0 0 0];

internalField   nonuniform List<vector> 
12225
(
(9.75813 0.0470838 0)
(9.32684 0.0891793 0)
(8.90106 0.0929031 0)
(8.50467 0.0837654 0)
(8.15793 0.0818849 0)
(7.86945 0.0881347 0)
(7.62202 0.0737107 0)
(7.41997 0.0525089 0)
(7.25807 0.0371173 0)
(7.12473 0.017976 0)
(7.01115 0.0113119 0)
(6.91025 0.011267 0)
(6.81661 0.0098876 0)
(6.7365 0.00531911 0)
(6.6735 -0.00143124 0)
(6.63263 -0.00278031 0)
(6.59666 -0.00351076 0)
(6.59057 -0.00379464 0)
(10.0805 0.0561574 0)
(10.2277 0.0890848 0)
(10.2988 0.0863669 0)
(10.3207 0.0841107 0)
(10.3043 0.078938 0)
(10.2438 0.0710999 0)
(10.1537 0.0663864 0)
(10.0692 0.062709 0)
(9.97066 0.0593651 0)
(9.87813 0.0567204 0)
(9.79551 0.0526376 0)
(9.71442 0.0483641 0)
(9.63925 0.0438806 0)
(9.56617 0.0402589 0)
(9.49651 0.0370156 0)
(9.42802 0.0315122 0)
(9.36298 0.0232212 0)
(9.29813 0.0152358 0)
(10.0255 0.0418752 0)
(10.0784 0.0671015 0)
(10.1284 0.0699544 0)
(10.1616 0.0743976 0)
(10.1908 0.079925 0)
(10.2162 0.0831742 0)
(10.2336 0.0815386 0)
(10.2422 0.0773691 0)
(10.242 0.0728944 0)
(10.2356 0.0685139 0)
(10.2255 0.0661842 0)
(10.2141 0.0651014 0)
(10.202 0.0636395 0)
(10.1886 0.0600789 0)
(10.1731 0.0548503 0)
(10.1553 0.0501259 0)
(10.1365 0.0438764 0)
(10.1142 0.0361846 0)
(10.0107 0.0320554 0)
(10.043 0.0567455 0)
(10.0759 0.064063 0)
(10.0965 0.0689241 0)
(10.1142 0.0731654 0)
(10.1328 0.0754939 0)
(10.1504 0.0740109 0)
(10.1646 0.0707997 0)
(10.1756 0.0677173 0)
(10.1838 0.0642568 0)
(10.1898 0.0617355 0)
(10.1952 0.0600433 0)
(10.2003 0.0582226 0)
(10.2049 0.0556191 0)
(10.2081 0.0521675 0)
(10.2102 0.0483185 0)
(10.2109 0.0436616 0)
(10.21 0.0388929 0)
(10.0049 0.0243164 0)
(10.0296 0.0491342 0)
(10.0552 0.0586053 0)
(10.0728 0.0637367 0)
(10.0875 0.0677075 0)
(10.1024 0.0697709 0)
(10.1167 0.0690144 0)
(10.1288 0.066789 0)
(10.1388 0.0642371 0)
(10.1472 0.0614459 0)
(10.1544 0.0592139 0)
(10.1611 0.0574478 0)
(10.1678 0.0555372 0)
(10.1742 0.0530337 0)
(10.1799 0.0499267 0)
(10.1849 0.0464572 0)
(10.1889 0.0424803 0)
(10.1919 0.0383932 0)
(10.0031 0.0190888 0)
(10.0215 0.0417576 0)
(10.0423 0.0523868 0)
(10.0585 0.058207 0)
(10.0722 0.0624842 0)
(10.0858 0.0646883 0)
(10.0985 0.0644177 0)
(10.1095 0.0627258 0)
(10.1188 0.0605292 0)
(10.1268 0.0581598 0)
(10.134 0.0560824 0)
(10.1407 0.0542289 0)
(10.1473 0.0522377 0)
(10.1536 0.0497936 0)
(10.1594 0.0468833 0)
(10.1645 0.0436479 0)
(10.169 0.040086 0)
(10.1726 0.0364205 0)
(10.0021 0.0154162 0)
(10.0158 0.0354282 0)
(10.0329 0.0463372 0)
(10.0477 0.0525903 0)
(10.0607 0.0570051 0)
(10.0733 0.0593463 0)
(10.0851 0.0594951 0)
(10.0955 0.0582932 0)
(10.1045 0.0564991 0)
(10.1124 0.0544926 0)
(10.1195 0.0525784 0)
(10.1261 0.0507248 0)
(10.1326 0.0487222 0)
(10.1387 0.0463673 0)
(10.1443 0.0436506 0)
(10.1493 0.0406632 0)
(10.1537 0.0374562 0)
(10.1575 0.0341646 0)
(10.0015 0.0127742 0)
(10.0123 0.0309412 0)
(10.027 0.0417524 0)
(10.0406 0.0480669 0)
(10.0528 0.0523388 0)
(10.0646 0.0546458 0)
(10.0756 0.0550483 0)
(10.0855 0.0542252 0)
(10.0943 0.0527897 0)
(10.102 0.0510917 0)
(10.1091 0.0493465 0)
(10.1158 0.0475491 0)
(10.1221 0.0455798 0)
(10.128 0.0433152 0)
(10.1335 0.0407539 0)
(10.1385 0.0379633 0)
(10.1429 0.0350066 0)
(10.1467 0.0319815 0)
(10.0012 0.0107733 0)
(10.0098 0.0270035 0)
(10.0224 0.037543 0)
(10.0349 0.0438808 0)
(10.0464 0.048121 0)
(10.0575 0.050507 0)
(10.068 0.0511359 0)
(10.0775 0.0505837 0)
(10.086 0.0493839 0)
(10.0937 0.0478687 0)
(10.1007 0.0462284 0)
(10.1073 0.0444829 0)
(10.1135 0.0425624 0)
(10.1193 0.0403919 0)
(10.1247 0.0379795 0)
(10.1295 0.0353781 0)
(10.1338 0.0326497 0)
(10.1377 0.0298691 0)
(10.0009 0.00901771 0)
(10.0077 0.023204 0)
(10.0184 0.0332211 0)
(10.0297 0.039445 0)
(10.0403 0.0435605 0)
(10.0506 0.0459556 0)
(10.0605 0.0467648 0)
(10.0696 0.0464573 0)
(10.0779 0.0454909 0)
(10.0854 0.0441656 0)
(10.0923 0.0426501 0)
(10.0987 0.0409849 0)
(10.1048 0.0391424 0)
(10.1104 0.0370887 0)
(10.1156 0.034837 0)
(10.1204 0.0324341 0)
(10.1246 0.0299317 0)
(10.1284 0.0273938 0)
(10.0007 0.00745897 0)
(10.006 0.0195776 0)
(10.015 0.0288197 0)
(10.0249 0.0347731 0)
(10.0347 0.0386728 0)
(10.0442 0.0410086 0)
(10.0534 0.0419413 0)
(10.062 0.0418439 0)
(10.0699 0.0410954 0)
(10.0772 0.0399596 0)
(10.0839 0.0385839 0)
(10.0902 0.0370236 0)
(10.096 0.0352841 0)
(10.1015 0.0333639 0)
(10.1065 0.0312828 0)
(10.1111 0.0290823 0)
(10.1152 0.0268084 0)
(10.119 0.0245049 0)
(10.0005 0.00606823 0)
(10.0047 0.0161255 0)
(10.012 0.0243586 0)
(10.0208 0.029876 0)
(10.0296 0.033482 0)
(10.0383 0.0356925 0)
(10.0468 0.0366875 0)
(10.0549 0.0367508 0)
(10.0624 0.0361914 0)
(10.0693 0.0352305 0)
(10.0758 0.0340011 0)
(10.0818 0.0325658 0)
(10.0874 0.0309554 0)
(10.0927 0.029185 0)
(10.0975 0.0272877 0)
(10.1019 0.0252938 0)
(10.1059 0.0232483 0)
(10.1096 0.0211808 0)
(10.0004 0.00481722 0)
(10.0037 0.0129 0)
(10.0097 0.0199192 0)
(10.0172 0.0248129 0)
(10.0251 0.0280281 0)
(10.033 0.0300351 0)
(10.0408 0.0310113 0)
(10.0483 0.0311739 0)
(10.0553 0.0307615 0)
(10.0619 0.0299558 0)
(10.0681 0.0288737 0)
(10.0739 0.0275827 0)
(10.0793 0.0261215 0)
(10.0843 0.0245237 0)
(10.0889 0.0228173 0)
(10.0932 0.0210418 0)
(10.097 0.0192192 0)
(10.1006 0.0173957 0)
(10.0003 0.00368332 0)
(10.0029 0.00988443 0)
(10.0078 0.0155423 0)
(10.0142 0.0196297 0)
(10.0212 0.0223433 0)
(10.0284 0.0240545 0)
(10.0355 0.0249195 0)
(10.0424 0.0251073 0)
(10.049 0.0247882 0)
(10.0552 0.0241098 0)
(10.0611 0.0231687 0)
(10.0666 0.0220304 0)
(10.0717 0.0207364 0)
(10.0765 0.019325 0)
(10.081 0.0178242 0)
(10.085 0.016269 0)
(10.0888 0.0146802 0)
(10.0922 0.0130936 0)
(10.0003 0.00263285 0)
(10.0023 0.00703555 0)
(10.0064 0.011235 0)
(10.0119 0.0143582 0)
(10.018 0.0164442 0)
(10.0245 0.017755 0)
(10.0309 0.0184135 0)
(10.0373 0.0185382 0)
(10.0435 0.0182524 0)
(10.0493 0.0176616 0)
(10.0549 0.016845 0)
(10.0601 0.0158563 0)
(10.0651 0.0147381 0)
(10.0696 0.0135194 0)
(10.0739 0.0122348 0)
(10.0778 0.0109044 0)
(10.0814 0.00955651 0)
(10.0848 0.00821095 0)
(10.0002 0.00163597 0)
(10.002 0.00428428 0)
(10.0054 0.00696252 0)
(10.0101 0.00898329 0)
(10.0156 0.0103084 0)
(10.0214 0.0111087 0)
(10.0273 0.011456 0)
(10.0332 0.0114301 0)
(10.039 0.0111078 0)
(10.0445 0.0105595 0)
(10.0498 0.00984 0)
(10.0548 0.00899048 0)
(10.0595 0.00804255 0)
(10.0639 0.00702291 0)
(10.068 0.0059547 0)
(10.0718 0.00485866 0)
(10.0753 0.00375082 0)
(10.0785 0.00265586 0)
(10.0002 0.000648473 0)
(10.0017 0.00153511 0)
(10.0048 0.00263023 0)
(10.009 0.00341832 0)
(10.014 0.00385776 0)
(10.0193 0.00402773 0)
(10.0249 0.00396441 0)
(10.0304 0.0036967 0)
(10.0358 0.00327059 0)
(10.0411 0.00271331 0)
(10.0462 0.00206086 0)
(10.0509 0.00133042 0)
(10.0555 0.000546228 0)
(10.0597 -0.000279825 0)
(10.0637 -0.00112929 0)
(10.0674 -0.00199209 0)
(10.0708 -0.00285562 0)
(10.074 -0.00370214 0)
(10.0002 -0.000330714 0)
(10.0017 -0.00118443 0)
(10.0046 -0.00169004 0)
(10.0087 -0.00217056 0)
(10.0134 -0.00267767 0)
(10.0186 -0.00318634 0)
(10.0239 -0.00371875 0)
(10.0293 -0.00427084 0)
(10.0346 -0.0048479 0)
(10.0397 -0.00544139 0)
(10.0447 -0.00605555 0)
(10.0493 -0.0066806 0)
(10.0538 -0.00731908 0)
(10.0579 -0.00796062 0)
(10.0618 -0.00860633 0)
(10.0654 -0.00924546 0)
(10.0688 -0.00988032 0)
(10.072 -0.010491 0)
(10.0002 -0.00126688 0)
(10.0018 -0.00378816 0)
(10.0048 -0.00580357 0)
(10.0091 -0.00747249 0)
(10.014 -0.00885602 0)
(10.0193 -0.00999663 0)
(10.0247 -0.0109593 0)
(10.0301 -0.0117785 0)
(10.0354 -0.0124885 0)
(10.0406 -0.0131172 0)
(10.0455 -0.0136888 0)
(10.0502 -0.014218 0)
(10.0546 -0.014717 0)
(10.0587 -0.0151927 0)
(10.0626 -0.0156505 0)
(10.0662 -0.0160923 0)
(10.0696 -0.0165214 0)
(10.0727 -0.0169272 0)
(10.0002 -0.00218629 0)
(10.002 -0.00634968 0)
(10.0055 -0.00977026 0)
(10.0102 -0.0124963 0)
(10.0155 -0.0146264 0)
(10.021 -0.0162984 0)
(10.0267 -0.0176074 0)
(10.0323 -0.0186286 0)
(10.0378 -0.0194211 0)
(10.0431 -0.0200524 0)
(10.0481 -0.0205597 0)
(10.0528 -0.020984 0)
(10.0573 -0.0213414 0)
(10.0615 -0.0216588 0)
(10.0654 -0.0219419 0)
(10.069 -0.0222059 0)
(10.0724 -0.022452 0)
(10.0756 -0.0226785 0)
(10.0003 -0.0031586 0)
(10.0025 -0.0090353 0)
(10.0066 -0.0137994 0)
(10.0119 -0.0174431 0)
(10.0178 -0.0201962 0)
(10.0238 -0.0222904 0)
(10.0299 -0.0238614 0)
(10.0358 -0.0250037 0)
(10.0416 -0.0258262 0)
(10.0471 -0.0264106 0)
(10.0522 -0.0268299 0)
(10.0571 -0.0271227 0)
(10.0617 -0.0273353 0)
(10.0659 -0.0274859 0)
(10.0699 -0.0276049 0)
(10.0735 -0.0276955 0)
(10.077 -0.0277783 0)
(10.0801 -0.0278389 0)
(10.0004 -0.00425214 0)
(10.0031 -0.0119835 0)
(10.0082 -0.0180186 0)
(10.0145 -0.0224265 0)
(10.0211 -0.0256748 0)
(10.0276 -0.0280928 0)
(10.0342 -0.0298298 0)
(10.0405 -0.0310187 0)
(10.0466 -0.0318049 0)
(10.0524 -0.0323042 0)
(10.0577 -0.0325972 0)
(10.0628 -0.0327432 0)
(10.0674 -0.0327897 0)
(10.0718 -0.0327742 0)
(10.0758 -0.0327217 0)
(10.0796 -0.0326518 0)
(10.083 -0.0325749 0)
(10.0862 -0.0324905 0)
(10.0005 -0.00554899 0)
(10.0042 -0.0153165 0)
(10.0105 -0.0224924 0)
(10.0179 -0.0274837 0)
(10.0253 -0.0311097 0)
(10.0325 -0.0337592 0)
(10.0396 -0.0355719 0)
(10.0465 -0.0367307 0)
(10.053 -0.0374267 0)
(10.059 -0.0378009 0)
(10.0646 -0.0379407 0)
(10.0699 -0.0379189 0)
(10.0747 -0.037788 0)
(10.0792 -0.0375981 0)
(10.0833 -0.0373753 0)
(10.0871 -0.0371456 0)
(10.0906 -0.0369194 0)
(10.0939 -0.0366948 0)
(10.0007 -0.0071601 0)
(10.0057 -0.0191453 0)
(10.0138 -0.0272441 0)
(10.0225 -0.0325966 0)
(10.0307 -0.0365054 0)
(10.0387 -0.0393143 0)
(10.0465 -0.0411308 0)
(10.0539 -0.0421981 0)
(10.0608 -0.0427591 0)
(10.0672 -0.0429714 0)
(10.0732 -0.0429309 0)
(10.0787 -0.0427164 0)
(10.0837 -0.0423961 0)
(10.0883 -0.0420199 0)
(10.0926 -0.0416279 0)
(10.0965 -0.0412413 0)
(10.1002 -0.0408793 0)
(10.1035 -0.0405274 0)
(10.001 -0.00919723 0)
(10.0082 -0.0235571 0)
(10.0184 -0.0323431 0)
(10.0285 -0.0378458 0)
(10.0377 -0.0419134 0)
(10.0466 -0.0447849 0)
(10.0553 -0.0465377 0)
(10.0634 -0.0474765 0)
(10.0709 -0.047877 0)
(10.0778 -0.0479034 0)
(10.0842 -0.047657 0)
(10.09 -0.0472289 0)
(10.0954 -0.0466937 0)
(10.1002 -0.0461136 0)
(10.1047 -0.0455335 0)
(10.1088 -0.044983 0)
(10.1125 -0.0444758 0)
(10.116 -0.0439931 0)
(10.0016 -0.0118278 0)
(10.0118 -0.0286468 0)
(10.025 -0.0379011 0)
(10.037 -0.0434876 0)
(10.0476 -0.047586 0)
(10.0579 -0.0503144 0)
(10.0678 -0.0518373 0)
(10.077 -0.0525582 0)
(10.0854 -0.0527481 0)
(10.0932 -0.052577 0)
(10.1002 -0.0521348 0)
(10.1066 -0.0515149 0)
(10.1125 -0.0507956 0)
(10.1177 -0.0500389 0)
(10.1225 -0.0493028 0)
(10.1268 -0.0486146 0)
(10.1308 -0.0479912 0)
(10.1345 -0.0473978 0)
(10.0029 -0.0166902 0)
(10.018 -0.0348261 0)
(10.0365 -0.0433353 0)
(10.0517 -0.0491423 0)
(10.0652 -0.0535696 0)
(10.0783 -0.0562184 0)
(10.0907 -0.057436 0)
(10.1021 -0.0577922 0)
(10.1123 -0.0576133 0)
(10.1216 -0.0570628 0)
(10.13 -0.0562485 0)
(10.1374 -0.0552755 0)
(10.1441 -0.0542268 0)
(10.1499 -0.0531788 0)
(10.155 -0.0521932 0)
(10.1595 -0.0513073 0)
(10.1634 -0.0505237 0)
(10.1668 -0.049779 0)
(10.0101 -0.0238684 0)
(10.0371 -0.0429069 0)
(10.0676 -0.0486412 0)
(10.0921 -0.0539212 0)
(10.1144 -0.0589166 0)
(10.1353 -0.0621775 0)
(10.154 -0.063838 0)
(10.17 -0.064475 0)
(10.1833 -0.0644341 0)
(10.1943 -0.0638496 0)
(10.2031 -0.0628674 0)
(10.2098 -0.0616043 0)
(10.2147 -0.0601817 0)
(10.2178 -0.0587075 0)
(10.2194 -0.0572736 0)
(10.2197 -0.0559833 0)
(10.2189 -0.0548826 0)
(10.2173 -0.0540285 0)
(10.0425 -0.0343141 0)
(10.1351 -0.0630802 0)
(10.2031 -0.0677732 0)
(10.2472 -0.069593 0)
(10.2743 -0.0708553 0)
(10.2882 -0.0708273 0)
(10.2902 -0.0696664 0)
(10.2821 -0.0678903 0)
(10.2662 -0.0657924 0)
(10.2446 -0.063458 0)
(10.2187 -0.0609542 0)
(10.1897 -0.0583569 0)
(10.1581 -0.0557325 0)
(10.125 -0.0531611 0)
(10.0907 -0.0507455 0)
(10.0559 -0.0485697 0)
(10.0212 -0.046664 0)
(9.9875 -0.0454865 0)
(9.88627 -0.0337935 0)
(9.66789 -0.0671026 0)
(9.42525 -0.0791809 0)
(9.1784 -0.0819753 0)
(8.94401 -0.0803598 0)
(8.72862 -0.0761001 0)
(8.53267 -0.0704912 0)
(8.35546 -0.0643093 0)
(8.19635 -0.0580159 0)
(8.05437 -0.0519135 0)
(7.92816 -0.0461249 0)
(7.81641 -0.0406768 0)
(7.71787 -0.0356099 0)
(7.63112 -0.0309611 0)
(7.55485 -0.0267464 0)
(7.48776 -0.0230784 0)
(7.42778 -0.0200866 0)
(7.37413 -0.0181215 0)
(-0.00280755 0.00763144 0)
(-0.0128901 0.0126605 0)
(-0.0266746 0.0136966 0)
(-0.0411191 0.0115662 0)
(-0.0515101 0.00564944 0)
(-0.0502676 -0.00401666 0)
(-0.0341895 -0.0170333 -8.09048e-19)
(-0.00668166 -0.0305011 9.16146e-19)
(0.0289788 -0.040486 0)
(0.0698593 -0.0452942 5.24811e-19)
(0.113005 -0.0455849 0)
(0.154988 -0.0425554 0)
(0.193072 -0.0372708 0)
(0.225612 -0.0305466 -2.58438e-19)
(0.251743 -0.0229435 0)
(0.271052 -0.0148215 0)
(0.2832 -0.00638017 2.24148e-19)
(0.288426 0.00245866 0)
(0.285497 0.0115566 0)
(0.274756 0.0203991 0)
(0.256861 0.0282166 -2.41645e-19)
(0.232484 0.0342055 0)
(0.202606 0.0376342 -2.87668e-19)
(0.168695 0.0378791 0)
(0.132671 0.0345325 0)
(0.0968785 0.0276449 -4.74698e-19)
(0.0638658 0.018039 0)
(0.0360441 0.00762541 7.98219e-19)
(0.0149937 -0.000864045 0)
(0.000789785 -0.00567636 -1.32838e-18)
(-0.00787496 -0.00790744 0)
(-0.0117675 -0.00962793 0)
(-0.00921071 -0.0120488 0)
(-0.000420944 -0.0160533 0)
(0.016038 -0.0219857 0)
(0.0402057 -0.0282452 7.71131e-19)
(0.0699887 -0.0321793 0)
(0.10076 -0.0315838 -9.33185e-19)
(0.127376 -0.0264841 0)
(0.145919 -0.0186002 7.60135e-19)
(0.155159 -0.0105356 0)
(0.15651 -0.00433464 0)
(0.152964 -0.00117366 -7.57749e-19)
(0.148489 -0.0020662 0)
(0.145799 -0.00757946 -7.86622e-19)
(0.142163 -0.016649 7.93049e-19)
(0.130852 -0.0231722 0)
(0.104586 -0.0172165 8.8415e-19)
(0.0588735 0.00245755 1.05774e-18)
(-0.021352 0.0196987 0)
(-0.120267 0.03863 0)
(-0.227282 0.0629885 0)
(-0.34572 0.0856711 0)
(-0.473254 0.101992 0)
(-0.606122 0.109698 -1.7917e-19)
(-0.739851 0.115131 0)
(-0.870611 0.115698 1.41683e-19)
(-0.998218 0.109618 0)
(-1.1187 0.101282 0)
(-1.23091 0.0933776 -1.12915e-19)
(-1.33496 0.0868836 0)
(-1.43116 0.0772714 1.01986e-19)
(-1.51908 0.0693986 0)
(-1.59987 0.0640943 0)
(-1.67449 0.0580527 0)
(-1.74319 0.0531347 -8.81109e-20)
(-1.80683 0.0487191 0)
(-1.86598 0.0449008 0)
(-1.92122 0.0415581 -8.19283e-20)
(-1.97299 0.0386271 0)
(-2.02173 0.0360556 -7.87733e-20)
(-2.06778 0.0337695 0)
(-2.1114 0.0317277 0)
(-2.15283 0.0298789 0)
(-2.19226 0.0281938 7.37503e-20)
(-2.22983 0.0266381 0)
(-2.26567 0.0251926 0)
(-2.29988 0.0238345 7.06512e-20)
(-2.33253 0.022553 6.96985e-20)
(-2.36367 0.0213321 0)
(-2.39338 0.0201665 6.78784e-20)
(-2.42167 0.0190444 0)
(-2.4486 0.0179635 1.32288e-19)
(-2.47417 0.0169145 0)
(-2.49843 0.0158963 1.28934e-19)
(-2.52138 0.0149013 0)
(-2.54304 0.0139278 -1.25653e-19)
(-2.56342 0.0129696 0)
(-2.58252 0.0120239 0)
(-2.60034 0.011083 0)
(-2.61689 0.0101437 1.1917e-19)
(-2.63216 0.00919694 0)
(-2.64613 0.00823647 -1.15921e-19)
(-2.65877 0.00725413 0)
(-2.67004 0.00624246 1.12645e-19)
(-2.67991 0.00519539 1.10996e-19)
(-2.68832 0.00411172 1.0934e-19)
(-2.69523 0.00300495 0)
(-2.70057 0.00192164 0)
(-2.70428 0.00094853 0)
(-2.7063 0.000155032 0)
(-2.70713 -0.000523403 0)
(-2.70675 -0.00117393 0)
(-2.70518 -0.00181038 0)
(-2.70243 -0.00244003 0)
(-2.69849 -0.0030643 -9.34085e-20)
(-2.69337 -0.00368306 -9.14509e-20)
(-2.68704 -0.00429655 0)
(-2.67952 -0.00490396 0)
(-2.67079 -0.00550524 0)
(-2.66085 -0.00609967 -8.31514e-20)
(-2.6497 -0.00668701 0)
(-2.63735 -0.00726672 0)
(-2.62379 -0.00783847 0)
(-2.60902 -0.00840186 0)
(-2.59305 -0.00895658 7.15784e-20)
(-2.57588 -0.0095023 0)
(-2.55752 -0.0100389 0)
(-2.53797 -0.0105659 -6.39039e-20)
(-2.51724 -0.0110836 6.12121e-20)
(-2.49534 -0.0115914 0)
(-2.47228 -0.0120898 5.56151e-20)
(-2.44806 -0.0125779 0)
(-2.4227 -0.0130571 -4.97174e-20)
(-2.39621 -0.0135264 0)
(-2.3686 -0.013988 0)
(-2.33989 -0.014441 0)
(-2.31008 -0.0148869 0)
(-2.27919 -0.0153143 0)
(-2.24724 -0.0157288 5.99987e-20)
(-2.21424 -0.0161289 5.27649e-20)
(-2.18023 -0.0165178 0)
(-2.14522 -0.0168813 0)
(-2.10925 -0.017183 0)
(-2.07236 -0.0173676 -2.16657e-20)
(-2.03462 -0.0173489 0)
(-1.99608 -0.0170982 0)
(-1.95671 -0.0170925 0)
(-1.91643 -0.0174122 1.33743e-20)
(-1.87529 -0.0176916 -2.28652e-20)
(-1.83333 -0.0179566 0)
(-1.7906 -0.0182092 0)
(-1.7471 -0.0184477 -5.33868e-20)
(-1.70287 -0.018678 -6.43079e-20)
(-1.65794 -0.0188983 0)
(-1.61232 -0.0191145 0)
(-1.56605 -0.0193253 9.96335e-20)
(-1.51916 -0.0195295 -1.12359e-19)
(-1.47166 -0.0197338 0)
(-1.42359 -0.0199297 0)
(-1.37496 -0.0201266 -1.53781e-19)
(-1.32583 -0.0203135 0)
(-1.27619 -0.0205006 0)
(-1.22609 -0.0206771 -2.01006e-19)
(-1.17554 -0.0208564 0)
(-1.12459 -0.0210317 -2.36337e-19)
(-1.07324 -0.0212077 0)
(-1.0215 -0.0213912 0)
(-0.969407 -0.0215797 0)
(-0.916947 -0.0217763 3.18744e-19)
(-0.864131 -0.0219831 0)
(-0.810959 -0.022199 0)
(-0.757438 -0.0224253 0)
(-0.703573 -0.022661 0)
(-0.649372 -0.022909 0)
(-0.594843 -0.0231697 0)
(-0.539989 -0.0234485 5.19621e-19)
(-0.48481 -0.0237464 5.57131e-19)
(-0.429303 -0.0240675 0)
(-0.373465 -0.0244114 0)
(-0.317295 -0.0247779 0)
(-0.260815 -0.0251609 -7.42587e-19)
(-0.204063 -0.0255768 0)
(-0.14712 -0.0259944 1.73013e-18)
(-0.0901551 -0.0263448 -1.87368e-18)
(-0.0336231 -0.0264778 -2.03471e-18)
(0.0224855 -0.0257321 2.08532e-18)
(0.0747311 -0.0236692 -2.01292e-18)
(0.132077 -0.0210376 1.95254e-18)
(0.148366 -0.00935857 0)
(-0.000315 0.0205241 0)
(-0.00583126 0.0359123 0)
(-0.0124224 0.0369125 2.14184e-18)
(-0.0126899 0.0272151 0)
(0.00160513 0.00494738 -2.22708e-18)
(0.0313977 -0.0322839 -1.41371e-18)
(0.0705928 -0.0736526 -4.46704e-19)
(0.115173 -0.107295 -3.19555e-19)
(0.161192 -0.12776 0)
(0.205251 -0.134821 -2.09633e-19)
(0.245197 -0.13116 0)
(0.280099 -0.120164 0)
(0.309641 -0.104701 3.13291e-19)
(0.333842 -0.0868392 1.49345e-19)
(0.352928 -0.0679117 -2.91405e-19)
(0.367217 -0.0486765 -2.8826e-19)
(0.377087 -0.0295165 -1.44263e-19)
(0.382717 -0.0105718 0)
(0.385135 0.00818266 0)
(0.384169 0.0265329 0)
(0.379419 0.0441076 -1.52763e-19)
(0.370373 0.0603318 0)
(0.356469 0.0744272 4.90157e-19)
(0.337252 0.0853731 0)
(0.312548 0.0920218 0)
(0.282671 0.0932917 2.00101e-19)
(0.248611 0.0885069 0)
(0.212136 0.0778488 -2.55787e-19)
(0.175706 0.0625094 -6.02072e-19)
(0.142314 0.0443259 3.61661e-19)
(0.115148 0.0248454 0)
(0.0974736 0.00480812 0)
(0.0905357 -0.0157277 0)
(0.0954239 -0.0359968 -9.98485e-19)
(0.110085 -0.0560979 -8.28293e-19)
(0.130273 -0.0723923 -3.40667e-19)
(0.149627 -0.077428 0)
(0.162922 -0.0693201 5.01532e-19)
(0.168223 -0.0519733 0)
(0.165411 -0.0310579 -5.02139e-19)
(0.155311 -0.0132961 0)
(0.138767 -0.00174696 0)
(0.114691 0.00543044 6.49218e-19)
(0.076495 0.0126181 0)
(0.0131486 0.0277595 2.40623e-18)
(-0.0857676 0.0611015 -5.73589e-19)
(-0.207458 0.104093 0)
(-0.339043 0.148488 -2.54107e-19)
(-0.476724 0.190122 -1.91241e-19)
(-0.620137 0.224248 0)
(-0.764076 0.249848 0)
(-0.905593 0.267226 0)
(-1.04232 0.276408 0)
(-1.17134 0.277354 0)
(-1.29123 0.270934 8.28607e-20)
(-1.39873 0.259477 1.56125e-19)
(-1.4945 0.244898 -7.36364e-20)
(-1.57957 0.227652 0)
(-1.65468 0.209466 1.36605e-19)
(-1.7212 0.191525 -6.62556e-20)
(-1.78056 0.174411 0)
(-1.83445 0.15851 -6.24081e-20)
(-1.88326 0.144039 0)
(-1.92822 0.131355 0)
(-1.96975 0.120112 -1.17441e-19)
(-2.00864 0.110298 5.76074e-20)
(-2.04527 0.101738 -1.13366e-19)
(-2.07995 0.094274 1.11545e-19)
(-2.11293 0.0877324 5.49239e-20)
(-2.14438 0.0819696 0)
(-2.17445 0.0768479 5.33673e-20)
(-2.20323 0.072257 0)
(-2.23079 0.0680987 0)
(-2.25719 0.0642948 0)
(-2.28248 0.0607808 5.0505e-20)
(-2.30667 0.0575037 0)
(-2.32981 0.0544238 9.85715e-20)
(-2.3519 0.0515052 -1.46067e-19)
(-2.37296 0.0487248 -4.81176e-20)
(-2.39299 0.0460581 0)
(-2.41201 0.0434925 -4.69334e-20)
(-2.43003 0.0410108 0)
(-2.44703 0.0386065 -9.15369e-20)
(-2.46304 0.0362671 0)
(-2.47805 0.0339888 -8.92232e-20)
(-2.49205 0.031762 1.76017e-19)
(-2.50506 0.0295837 8.69063e-20)
(-2.51706 0.0274463 0)
(-2.52805 0.025346 0)
(-2.53804 0.0232769 0)
(-2.54702 0.0212336 -8.22026e-20)
(-2.55499 0.0192103 0)
(-2.56195 0.0172026 7.97933e-20)
(-2.56791 0.0152048 0)
(-2.57286 0.013212 -2.32024e-19)
(-2.57684 0.0112181 -7.60896e-20)
(-2.57988 0.00921598 -7.48314e-20)
(-2.58202 0.00720264 0)
(-2.58334 0.00519815 0)
(-2.58395 0.00326706 0)
(-2.58392 0.00148381 0)
(-2.58282 -0.000186161 0)
(-2.58062 -0.00181139 -1.33824e-19)
(-2.57729 -0.0034064 -1.31007e-19)
(-2.5728 -0.00498019 0)
(-2.56715 -0.00653477 6.2524e-20)
(-2.56032 -0.00807001 6.10346e-20)
(-2.55233 -0.0095857 0)
(-2.54315 -0.0110804 1.16198e-19)
(-2.53278 -0.0125535 0)
(-2.52123 -0.0140034 -5.50912e-20)
(-2.50849 -0.0154292 0)
(-2.49456 -0.0168295 0)
(-2.47943 -0.0182033 1.00019e-19)
(-2.46312 -0.0195494 0)
(-2.44562 -0.0208667 -4.63748e-20)
(-2.42695 -0.0221542 0)
(-2.40709 -0.023411 0)
(-2.38607 -0.0246366 -4.13602e-20)
(-2.36388 -0.0258302 -3.90551e-20)
(-2.34054 -0.0269912 0)
(-2.31605 -0.0281194 3.56696e-20)
(-2.29042 -0.0292137 0)
(-2.26367 -0.0302744 -3.17006e-20)
(-2.2358 -0.0313001 -5.87989e-20)
(-2.20682 -0.0322913 0)
(-2.17676 -0.0332456 0)
(-2.14562 -0.0341636 0)
(-2.11343 -0.0350417 0)
(-2.08019 -0.0358814 -3.6599e-20)
(-2.04592 -0.0366819 -9.73129e-20)
(-2.01065 -0.0374458 0)
(-1.9744 -0.0381737 0)
(-1.93721 -0.0388689 0)
(-1.89907 -0.0395394 1.29009e-20)
(-1.85998 -0.0402013 0)
(-1.81993 -0.0408501 0)
(-1.77894 -0.0414756 3.36271e-21)
(-1.73712 -0.0420372 6.2431e-21)
(-1.69449 -0.0425348 1.30189e-20)
(-1.65107 -0.0429842 0)
(-1.60687 -0.0433937 0)
(-1.56191 -0.043761 2.97306e-20)
(-1.51622 -0.0440934 -3.39936e-20)
(-1.46982 -0.0443894 0)
(-1.42275 -0.0446549 0)
(-1.37502 -0.0448922 -5.35038e-20)
(-1.32667 -0.0451005 1.77614e-19)
(-1.27771 -0.0452874 0)
(-1.22818 -0.0454473 0)
(-1.1781 -0.0455852 7.91417e-20)
(-1.12749 -0.045694 0)
(-1.07637 -0.0457775 1.83775e-19)
(-1.02479 -0.0458306 -9.80464e-20)
(-0.972748 -0.0458607 0)
(-0.920296 -0.045872 1.14183e-19)
(-0.867432 -0.0458622 2.415e-19)
(-0.814186 -0.0458446 0)
(-0.760567 -0.0458196 0)
(-0.706581 -0.0457907 -1.44905e-19)
(-0.652234 -0.0457614 0)
(-0.597527 -0.0457313 3.20694e-19)
(-0.542464 -0.0456998 0)
(-0.48705 -0.0456656 0)
(-0.431292 -0.0456299 0)
(-0.375195 -0.0455942 0)
(-0.318761 -0.0455627 -2.05473e-19)
(-0.261989 -0.0455391 -2.14938e-19)
(-0.204877 -0.0455252 0)
(-0.147419 -0.0455213 0)
(-0.0896158 -0.0455215 0)
(-0.0314875 -0.0455087 2.55157e-19)
(0.0269546 -0.04545 0)
(0.0856434 -0.045298 -5.23793e-19)
(0.144435 -0.0449887 5.25309e-19)
(0.203034 -0.0443812 5.2686e-19)
(0.261343 -0.0430487 5.25272e-19)
(0.317031 -0.04058 5.31499e-19)
(0.375122 -0.036175 5.3379e-19)
(0.411417 -0.023196 0)
(0.000268245 0.0232934 0)
(0.000781811 0.0401841 0)
(0.00668343 0.032497 -2.29655e-18)
(0.0271482 -0.00168142 -1.60075e-18)
(0.0670183 -0.0619038 9.50577e-19)
(0.118456 -0.127737 6.19204e-19)
(0.171102 -0.179521 -3.68787e-22)
(0.218102 -0.208901 0)
(0.256902 -0.216906 0)
(0.287553 -0.208794 0)
(0.311288 -0.190354 0)
(0.329557 -0.166263 0)
(0.343564 -0.139685 -7.1253e-19)
(0.354158 -0.112491 0)
(0.361904 -0.0856804 2.27646e-19)
(0.367174 -0.0597227 2.27254e-19)
(0.370235 -0.0347996 0)
(0.371281 -0.010987 0)
(0.370576 0.0117466 0)
(0.368439 0.0335703 0)
(0.365127 0.0546071 2.4241e-19)
(0.360799 0.0747572 0)
(0.35534 0.0936084 -2.60283e-19)
(0.348325 0.110359 0)
(0.339036 0.123835 0)
(0.326611 0.132583 0)
(0.310298 0.135111 -6.55441e-19)
(0.289878 0.13027 0)
(0.266043 0.117654 3.92025e-19)
(0.240574 0.0977318 -8.784e-19)
(0.216161 0.0717162 0)
(0.195813 0.0410839 0)
(0.18186 0.00751428 0)
(0.174362 -0.0279332 6.25013e-19)
(0.170829 -0.0605688 5.40289e-19)
(0.164046 -0.0789064 0)
(0.148552 -0.075478 0)
(0.125272 -0.0554193 -7.55431e-19)
(0.0947625 -0.0263672 -7.86964e-19)
(0.0570954 0.0074448 8.95731e-19)
(0.00883092 0.0409005 0)
(-0.0616438 0.0729317 0)
(-0.155967 0.113377 0)
(-0.269083 0.163389 0)
(-0.397664 0.217776 -3.81306e-19)
(-0.535725 0.272734 -3.04748e-19)
(-0.675962 0.32368 2.51977e-19)
(-0.81282 0.366605 0)
(-0.942403 0.400278 0)
(-1.06128 0.423316 0)
(-1.168 0.435157 0)
(-1.26195 0.436509 -1.42376e-19)
(-1.34286 0.428399 0)
(-1.41187 0.412169 0)
(-1.47101 0.389713 -1.19308e-19)
(-1.52223 0.363377 -1.12827e-19)
(-1.56754 0.33529 0)
(-1.60859 0.306846 2.1129e-19)
(-1.64682 0.279341 -1.01456e-19)
(-1.68315 0.253827 9.8554e-20)
(-1.71808 0.230713 0)
(-1.75201 0.209996 0)
(-1.78518 0.19174 0)
(-1.81759 0.175875 0)
(-1.8492 0.162014 8.77943e-20)
(-1.88007 0.149943 1.72353e-19)
(-1.91015 0.139387 8.45336e-20)
(-1.93943 0.130112 -8.30503e-20)
(-1.9679 0.121893 0)
(-1.99553 0.11455 1.60517e-19)
(-2.02232 0.107924 1.57929e-19)
(-2.04825 0.101887 1.55453e-19)
(-2.07331 0.0963279 -1.53074e-19)
(-2.09751 0.0911611 0)
(-2.12083 0.086316 -2.2292e-19)
(-2.14327 0.0817358 0)
(-2.16482 0.0773766 7.20637e-20)
(-2.18547 0.0732019 7.12018e-20)
(-2.20523 0.0691852 0)
(-2.22408 0.0653029 0)
(-2.24202 0.061539 1.36283e-19)
(-2.25905 0.0578781 0)
(-2.27517 0.0543103 1.32432e-19)
(-2.29036 0.050825 0)
(-2.30463 0.0474157 -1.28632e-19)
(-2.31798 0.0440743 -2.53576e-19)
(-2.33039 0.0407958 0)
(-2.34187 0.0375737 0)
(-2.35242 0.034403 0)
(-2.36202 0.0312786 -1.19178e-19)
(-2.37069 0.0281961 0)
(-2.37842 0.0251519 -1.15365e-19)
(-2.38521 0.022144 0)
(-2.39106 0.0191724 0)
(-2.39597 0.0162393 2.19146e-19)
(-2.39994 0.0133497 0)
(-2.40299 0.0105116 1.05665e-19)
(-2.40512 0.00773573 0)
(-2.40632 0.00503103 1.01691e-19)
(-2.40656 0.00238923 0)
(-2.40577 -0.000229434 0)
(-2.40392 -0.00284231 0)
(-2.40098 -0.00543358 2.79709e-19)
(-2.39694 -0.00799754 9.09917e-20)
(-2.39178 -0.0105334 0)
(-2.3855 -0.0130397 0)
(-2.37808 -0.0155153 0)
(-2.36952 -0.0179583 0)
(-2.35981 -0.020367 -7.97353e-20)
(-2.34895 -0.0227395 1.55203e-19)
(-2.33693 -0.0250738 7.50336e-20)
(-2.32375 -0.027368 -1.45733e-19)
(-2.30942 -0.0296202 -1.40904e-19)
(-2.29393 -0.0318285 -6.77506e-20)
(-2.27727 -0.0339908 0)
(-2.25947 -0.0361055 -1.26035e-19)
(-2.24051 -0.038171 0)
(-2.2204 -0.0401856 1.15799e-19)
(-2.19915 -0.0421486 5.4974e-20)
(-2.17677 -0.0440588 0)
(-2.15325 -0.0459155 -9.99533e-20)
(-2.12862 -0.0477176 -4.69182e-20)
(-2.10287 -0.0494648 0)
(-2.07602 -0.0511559 -4.21321e-20)
(-2.04808 -0.0527902 1.16474e-19)
(-2.01906 -0.0543667 0)
(-1.98897 -0.0558843 0)
(-1.95782 -0.0573413 0)
(-1.92564 -0.058735 0)
(-1.89242 -0.0600636 4.88642e-20)
(-1.8582 -0.0613274 4.19672e-20)
(-1.82299 -0.0625282 0)
(-1.78682 -0.063665 0)
(-1.74971 -0.0647345 0)
(-1.71166 -0.0657339 0)
(-1.67269 -0.0666671 0)
(-1.6328 -0.0675434 0)
(-1.59203 -0.0683842 -2.10516e-21)
(-1.55044 -0.0691771 -1.0252e-21)
(-1.50806 -0.0699001 0)
(-1.46489 -0.0705547 0)
(-1.42096 -0.0711433 -2.76409e-20)
(-1.37628 -0.0716669 0)
(-1.33088 -0.0721302 4.23866e-20)
(-1.28479 -0.0725355 4.82231e-20)
(-1.23804 -0.0728873 0)
(-1.19064 -0.0731895 0)
(-1.14262 -0.0734446 -7.05091e-20)
(-1.09401 -0.073657 -1.53099e-19)
(-1.04483 -0.0738279 0)
(-0.995113 -0.0739552 0)
(-0.944865 -0.0740378 0)
(-0.894123 -0.0740714 -1.0705e-19)
(-0.842904 -0.0740585 1.14561e-19)
(-0.791243 -0.0740006 0)
(-0.739158 -0.0739088 2.57084e-19)
(-0.686671 -0.0737817 1.35016e-19)
(-0.633801 -0.0736335 -2.87891e-19)
(-0.580559 -0.0734679 0)
(-0.526954 -0.0732904 0)
(-0.472991 -0.0731052 -3.34946e-19)
(-0.418673 -0.0729127 -1.76651e-19)
(-0.364002 -0.072711 0)
(-0.308983 -0.0724983 0)
(-0.253621 -0.0722752 0)
(-0.197921 -0.0720438 0)
(-0.141884 -0.0718083 -4.3182e-19)
(-0.0855088 -0.0715731 0)
(-0.028792 -0.0713414 0)
(0.0282773 -0.0711124 0)
(0.0856998 -0.070875 0)
(0.14346 -0.0706063 0)
(0.201528 -0.0702567 0)
(0.259833 -0.0697601 -5.05298e-19)
(0.31828 -0.0690311 0)
(0.376637 -0.0678971 0)
(0.434874 -0.0660386 -1.0512e-18)
(0.491412 -0.062926 5.31483e-19)
(0.550091 -0.0575248 -5.4294e-19)
(0.596227 -0.0444302 5.54744e-19)
(-0.00118354 0.0234176 0)
(0.00210861 0.0266747 4.97791e-18)
(0.0242393 -0.0161311 0)
(0.0724549 -0.0999577 8.47549e-19)
(0.133382 -0.187676 0)
(0.190734 -0.250883 0)
(0.235424 -0.281219 -3.2076e-19)
(0.266315 -0.283858 0)
(0.286247 -0.268292 0)
(0.298847 -0.242823 0)
(0.306986 -0.212887 0)
(0.312471 -0.181494 0)
(0.31627 -0.150147 8.04619e-19)
(0.318831 -0.119537 3.95959e-19)
(0.320311 -0.0899646 -3.93675e-19)
(0.320753 -0.0615655 0)
(0.32017 -0.0343988 0)
(0.318577 -0.00850661 0)
(0.316033 0.0161052 0)
(0.312627 0.0394623 0)
(0.308513 0.0616021 4.26873e-19)
(0.30391 0.08252 4.38769e-19)
(0.29902 0.102104 -4.55416e-19)
(0.293936 0.120002 4.78019e-19)
(0.28853 0.135527 0)
(0.282424 0.147582 0)
(0.274993 0.154664 5.81114e-19)
(0.265489 0.155041 0)
(0.253366 0.14716 0)
(0.238567 0.130003 7.55036e-19)
(0.221853 0.103498 8.46484e-19)
(0.204464 0.0688907 9.61714e-19)
(0.187642 0.0286037 0)
(0.16933 -0.0116354 0)
(0.142146 -0.0378969 -9.27689e-19)
(0.102828 -0.0388655 0)
(0.0536817 -0.017598 0)
(-0.00533953 0.0188134 7.43907e-19)
(-0.0780736 0.0655657 -6.41731e-19)
(-0.166292 0.121171 5.17554e-19)
(-0.268806 0.182539 0)
(-0.384621 0.245357 0)
(-0.509443 0.308453 5.6451e-19)
(-0.637882 0.370569 0)
(-0.764736 0.427458 4.09321e-19)
(-0.884823 0.474442 5.40595e-19)
(-0.993661 0.509888 -4.83284e-19)
(-1.08944 0.533616 2.93183e-19)
(-1.17134 0.545621 0)
(-1.23935 0.546595 0)
(-1.29503 0.537747 2.33824e-19)
(-1.34022 0.520697 1.09096e-19)
(-1.37717 0.49725 0)
(-1.40831 0.469197 0)
(-1.43588 0.438398 9.39878e-20)
(-1.46168 0.406671 1.81905e-19)
(-1.4869 0.375381 0)
(-1.51232 0.345376 -1.67834e-19)
(-1.53835 0.317328 1.63525e-19)
(-1.56512 0.291657 -1.58643e-19)
(-1.5925 0.268453 0)
(-1.62037 0.247648 0)
(-1.64853 0.229135 0)
(-1.67676 0.21275 0)
(-1.70489 0.198231 0)
(-1.73277 0.185347 -1.37009e-19)
(-1.76025 0.173862 0)
(-1.78725 0.163566 0)
(-1.81369 0.154266 0)