/*--------------------------------*- C++ -*----------------------------------*\
  =========                 |
  \\      /  F ield         | OpenFOAM: The Open Source CFD Toolbox
   \\    /   O peration     | Website:  https://openfoam.org
    \\  /    A nd           | Version:  8
     \\/     M anipulation  |
\*---------------------------------------------------------------------------*/
FoamFile
{
    version     2.0;
    format      ascii;
    class       volScalarField;
    location    "1500";
    object      p;
}
// * * * * * * * * * * * * * * * * * * * * * * * * * * * * * * * * * * * * * //

dimensions      [0 2 -2 0 0 0 0];

internalField   nonuniform List<scalar> 
12225
(
-1.60466
-3.83173
-4.94184
-5.25061
-5.41357
-5.58608
-5.73026
-5.83982
-5.92107
-5.98891
-6.06353
-6.11843
-6.17633
-6.24085
-6.30228
-6.34569
-6.41035
-6.39852
-4.60406
-5.44651
-5.72481
-5.65327
-5.61946
-5.65593
-5.72401
-5.80848
-5.90201
-5.98438
-6.04429
-6.10127
-6.15868
-6.2116
-6.26535
-6.3342
-6.40568
-6.49735
-4.88292
-5.00776
-5.18349
-5.28664
-5.38721
-5.50731
-5.63731
-5.76589
-5.87721
-5.96081
-6.02118
-6.08286
-6.14389
-6.19837
-6.25405
-6.32311
-6.40137
-6.48729
-4.90681
-4.89425
-5.17956
-5.37561
-5.48326
-5.58535
-5.69608
-5.80236
-5.89228
-5.9626
-6.02002
-6.07968
-6.14031
-6.19851
-6.25865
-6.32587
-6.39841
-6.47023
-4.9547
-4.99589
-5.26031
-5.42773
-5.50881
-5.59413
-5.69459
-5.79231
-5.87727
-5.94865
-6.01157
-6.07431
-6.13712
-6.1981
-6.25922
-6.32346
-6.39074
-6.45739
-5.03048
-5.09289
-5.28979
-5.43213
-5.51514
-5.60188
-5.70007
-5.79418
-5.8769
-5.94892
-6.01394
-6.07695
-6.13906
-6.1997
-6.26009
-6.32204
-6.38556
-6.44818
-5.1066
-5.16112
-5.30977
-5.44115
-5.53067
-5.6171
-5.7101
-5.79915
-5.87878
-5.94992
-6.01514
-6.07767
-6.13883
-6.19888
-6.25853
-6.31856
-6.37869
-6.437
-5.16546
-5.21134
-5.33439
-5.45606
-5.54594
-5.6297
-5.71778
-5.80288
-5.88026
-5.95045
-6.0154
-6.07741
-6.13781
-6.19711
-6.25572
-6.31387
-6.37116
-6.4261
-5.21431
-5.25503
-5.35976
-5.47088
-5.55891
-5.64021
-5.72433
-5.80621
-5.88169
-5.9509
-6.01535
-6.07679
-6.13641
-6.1948
-6.2522
-6.30856
-6.36347
-6.41571
-5.26519
-5.30106
-5.38872
-5.48809
-5.57301
-5.65165
-5.7317
-5.81013
-5.88343
-5.95135
-6.01497
-6.07561
-6.13425
-6.19142
-6.24728
-6.30167
-6.35417
-6.40387
-5.31736
-5.34839
-5.42096
-5.50849
-5.58893
-5.66431
-5.74008
-5.81475
-5.88552
-5.95179
-6.01426
-6.07385
-6.13127
-6.18697
-6.24106
-6.29333
-6.34348
-6.39066
-5.36984
-5.39599
-5.45588
-5.53202
-5.6067
-5.67812
-5.74946
-5.82017
-5.88804
-5.95231
-6.01326
-6.07149
-6.12749
-6.18152
-6.23367
-6.28378
-6.33152
-6.3764
-5.421
-5.44283
-5.49233
-5.55795
-5.62603
-5.69288
-5.75979
-5.82636
-5.89108
-5.95296
-6.01205
-6.06863
-6.12294
-6.17517
-6.22528
-6.27318
-6.31864
-6.36129
-5.46929
-5.48745
-5.52859
-5.58498
-5.64623
-5.70819
-5.77063
-5.83316
-5.89449
-5.95375
-6.01067
-6.0653
-6.11775
-6.16799
-6.21605
-6.26177
-6.30511
-6.34573
-5.51259
-5.52784
-5.56249
-5.61117
-5.66608
-5.72312
-5.78132
-5.83994
-5.89793
-5.95442
-6.00899
-6.06151
-6.11191
-6.16015
-6.20616
-6.24988
-6.29124
-6.33012
-5.54826
-5.56137
-5.59121
-5.63399
-5.68352
-5.73621
-5.79059
-5.84574
-5.90065
-5.95448
-6.00672
-6.05711
-6.1055
-6.1518
-6.19592
-6.23784
-6.27751
-6.31487
-5.57262
-5.58432
-5.61103
-5.64986
-5.69562
-5.74506
-5.79652
-5.849
-5.90144
-5.95308
-6.00332
-6.05186
-6.0985
-6.14313
-6.18567
-6.22609
-6.26438
-6.30052
-5.57975
-5.5908
-5.61642
-5.65372
-5.69815
-5.74623
-5.79653
-5.84772
-5.89901
-5.94941
-5.99852
-6.04589
-6.09142
-6.13494
-6.17642
-6.21583
-6.25318
-6.2885
-5.56856
-5.58001
-5.60629
-5.64478
-5.69026
-5.73942
-5.7903
-5.84203
-5.89348
-5.944
-5.99291
-6.04005
-6.08517
-6.12826
-6.16925
-6.20816
-6.24503
-6.27992
-5.54402
-5.55628
-5.58479
-5.62643
-5.67531
-5.72714
-5.78023
-5.83362
-5.88649
-5.9379
-5.98746
-6.03492
-6.08024
-6.12334
-6.16426
-6.20302
-6.23971
-6.27441
-5.50931
-5.52295
-5.55495
-5.60194
-5.65592
-5.71174
-5.768
-5.82414
-5.87912
-5.93205
-5.98263
-6.0308
-6.0766
-6.12
-6.16107
-6.19988
-6.23656
-6.27123
-5.46752
-5.48208
-5.51884
-5.57378
-5.6346
-5.69496
-5.75495
-5.81452
-5.87218
-5.92698
-5.97883
-6.02795
-6.07436
-6.11817
-6.15943
-6.19836
-6.23505
-6.2697
-5.42052
-5.43506
-5.47765
-5.54368
-5.61301
-5.67847
-5.7427
-5.80595
-5.8663
-5.92293
-5.97615
-6.02628
-6.07342
-6.11765
-6.15919
-6.19825
-6.23503
-6.26972
-5.37087
-5.3836
-5.43438
-5.51309
-5.59018
-5.66149
-5.7317
-5.79956
-5.86254
-5.92071
-5.97506
-6.02599
-6.0736
-6.11806
-6.15966
-6.19869
-6.23539
-6.26995
-5.31816
-5.32389
-5.39663
-5.49117
-5.5691
-5.64257
-5.71921
-5.79279
-5.85913
-5.91941
-5.97536
-6.02746
-6.07577
-6.12057
-6.16228
-6.2013
-6.23793
-6.27253
-5.27083
-5.23036
-5.35105
-5.48255
-5.5636
-5.63455
-5.71203
-5.78675
-5.85366
-5.91453
-5.97117
-6.0239
-6.07267
-6.11783
-6.1598
-6.19904
-6.23584
-6.2705
-5.2879
-5.1076
-5.2449
-5.42572
-5.54228
-5.63588
-5.72485
-5.80355
-5.87146
-5.93221
-5.98804
-6.03944
-6.08666
-6.13028
-6.17078
-6.20861
-6.24422
-6.2783
-5.41322
-5.18254
-5.19279
-5.2783
-5.38579
-5.50905
-5.62671
-5.72645
-5.8112
-5.88593
-5.95286
-6.01269
-6.06641
-6.11502
-6.1593
-6.19994
-6.2377
-6.27351
-5.13074
-5.70588
-5.84941
-5.75498
-5.70744
-5.74049
-5.79739
-5.8517
-5.90373
-5.95563
-6.00623
-6.05402
-6.09874
-6.14054
-6.17955
-6.21583
-6.24981
-6.28296
-2.10505
-3.83597
-4.8461
-5.17458
-5.34775
-5.51748
-5.6597
-5.76565
-5.84973
-5.92236
-5.98659
-6.04335
-6.09399
-6.13969
-6.18118
-6.2187
-6.2523
-6.28056
-7.45417
-7.45426
-7.45428
-7.45421
-7.45383
-7.45267
-7.4505
-7.44779
-7.44528
-7.44364
-7.44339
-7.44441
-7.44613
-7.44797
-7.44944
-7.45036
-7.45077
-7.45086
-7.45075
-7.45057
-7.45038
-7.4502
-7.44997
-7.44964
-7.4492
-7.44864
-7.44795
-7.4473
-7.44701
-7.44745
-7.44872
-7.45042
-7.45227
-7.45427
-7.45688
-7.45992
-7.4623
-7.46342
-7.46534
-7.47179
-7.48641
-7.50874
-7.53853
-7.5772
-7.62488
-7.6813
-7.74548
-7.81454
-7.88632
-7.95849
-8.02834
-8.09477
-8.15709
-8.21429
-8.26552
-8.3105
-8.34994
-8.38419
-8.41335
-8.43765
-8.45741
-8.4729
-8.48439
-8.49209
-8.4962
-8.49687
-8.49423
-8.48839
-8.47942
-8.46737
-8.4523
-8.43421
-8.41312
-8.38902
-8.36192
-8.33176
-8.29853
-8.26216
-8.22262
-8.17983
-8.13372
-8.08425
-8.0313
-7.97482
-7.91469
-7.85083
-7.78307
-7.71131
-7.63539
-7.55525
-7.47086
-7.38215
-7.28908
-7.19163
-7.0897
-6.98284
-6.87069
-6.75322
-6.63043
-6.50231
-6.36878
-6.22978
-6.08527
-5.9352
-5.77955
-5.61828
-5.45139
-5.2789
-5.10082
-4.91719
-4.72805
-4.53348
-4.33355
-4.12835
-3.91799
-3.70259
-3.48229
-3.25722
-3.02756
-2.79346
-2.55511
-2.31269
-2.06642
-1.81647
-1.56309
-1.30648
-1.04687
-0.784498
-0.519596
-0.252365
0.0169709
0.288199
0.561061
0.835304
1.11068
1.38698
1.664
1.9415
2.21924
2.49697
2.77449
3.05158
3.32807
3.60371
3.8783
4.1516
4.42343
4.69353
4.96166
5.22759
5.49116
5.75218
6.01048
6.26587
6.51818
6.76724
7.01288
7.25493
7.49326
7.72771
7.95814
8.18442
8.40641
8.62399
8.83705
9.04547
9.24914
9.44795
9.64192
9.83115
10.0154
10.1945
10.3684
10.5371
10.7008
10.8597
11.0149
11.1668
11.3232
11.475
-7.45527
-7.45542
-7.4557
-7.4559
-7.4557
-7.45475
-7.45292
-7.45074
-7.44914
-7.44867
-7.44939
-7.45096
-7.45289
-7.45466
-7.45589
-7.45637
-7.45604
-7.45502
-7.45363
-7.45219
-7.45094
-7.44997
-7.4492
-7.44853
-7.44789
-7.44731
-7.44696
-7.44695
-7.44753
-7.449
-7.45095
-7.45235
-7.45224
-7.45046
-7.44913
-7.45105
-7.45629
-7.46164
-7.46783
-7.47731
-7.49092
-7.51148
-7.54339
-7.5876
-7.64341
-7.70862
-7.77952
-7.85348
-7.92762
-7.99924
-8.06745
-8.1311
-8.18898
-8.24082
-8.28746
-8.32935
-8.36585
-8.3969
-8.42307
-8.44479
-8.46236
-8.47602
-8.48599
-8.49245
-8.49556
-8.49542
-8.49214
-8.48579
-8.47644
-8.4641
-8.44881
-8.43059
-8.40942
-8.38531
-8.35823
-8.32814
-8.29502
-8.25881
-8.21946
-8.17691
-8.13107
-8.0819
-8.0293
-7.97321
-7.91352
-7.85014
-7.78293
-7.71177
-7.6365
-7.55708
-7.47343
-7.38545
-7.29298
-7.19581
-7.09374
-6.98678
-6.87497
-6.75815
-6.63612
-6.5088
-6.37611
-6.23797
-6.09433
-5.94515
-5.7904
-5.63004
-5.46408
-5.29252
-5.11537
-4.93267
-4.74447
-4.55083
-4.35182
-4.14755
-3.9381
-3.72361
-3.50419
-3.28
-3.05119
-2.81793
-2.5804
-2.33878
-2.09327
-1.84408
-1.59142
-1.3355
-1.07656
-0.814824
-0.550524
-0.283871
-0.015082
0.255624
0.527995
0.80178
1.07673
1.35264
1.62929
1.90645
2.18388
2.46134
2.73862
3.01553
3.29186
3.56737
3.84187
4.11514
4.38695
4.65707
4.92525
5.19127
5.45497
5.71616
5.97466
6.2303
6.48289
6.73227
6.97826
7.22071
7.45947
7.69439
7.92533
8.15214
8.37471
8.5929
8.80664
9.01584
9.22036
9.42008
9.61475
9.80411
9.98825
10.1673
10.3412
10.5101
10.6742
10.8337
10.9898
11.1427
11.3013
11.4506
-7.45658
-7.45653
-7.45649
-7.45647
-7.45648
-7.45656
-7.45698
-7.45806
-7.45995
-7.46252
-7.46542
-7.46822
-7.47052
-7.47198
-7.47236
-7.4716
-7.46974
-7.46686
-7.46317
-7.45896
-7.45455
-7.45028
-7.44646
-7.44332
-7.44101
-7.43966
-7.43954
-7.44072
-7.44279
-7.44502
-7.44633
-7.44703
-7.44812
-7.44893
-7.45031
-7.45565
-7.46614
-7.48154
-7.50268
-7.52983
-7.56286
-7.60228
-7.6486
-7.70114
-7.75868
-7.81965
-7.88201
-7.94434
-8.00534
-8.06391
-8.11945
-8.17145
-8.21935
-8.26295
-8.30245
-8.33803
-8.36956
-8.39697
-8.42039
-8.43997
-8.45588
-8.46828
-8.47728
-8.48302
-8.48558
-8.48506
-8.48152
-8.475
-8.46556
-8.45321
-8.43797
-8.41984
-8.39881
-8.37487
-8.348
-8.31816
-8.28532
-8.24943
-8.21042
-8.16825
-8.12284
-8.07411
-8.022
-7.96641
-7.90727
-7.84446
-7.77789
-7.7074
-7.63287
-7.55423
-7.47143
-7.38436
-7.29289
-7.1968
-7.09589
-6.99006
-6.8793
-6.76351
-6.64257
-6.51637
-6.38483
-6.24787
-6.10545
-5.9575
-5.80399
-5.64489
-5.4802
-5.30993
-5.13407
-4.95267
-4.76576
-4.57342
-4.37571
-4.17273
-3.96456
-3.75134
-3.53318
-3.31025
-3.08266
-2.85062
-2.61427
-2.37382
-2.12945
-1.88137
-1.62979
-1.37494
-1.11702
-0.856283
-0.592938
-0.327212
-0.0593143
0.210525
0.482065
0.755051
1.02924
1.30443
1.58038
1.85688
2.13367
2.41055
2.68729
2.9637
3.23957
3.51467
3.78879
4.06172
4.33323
4.60308
4.87105
5.1369
5.40047
5.66158
5.92004
6.17567
6.4283
6.67774
6.92385
7.16644
7.40538
7.6405
7.87167
8.09874
8.32158
8.54007
8.75405
8.96338
9.16799
9.36782
9.56276
9.75274
9.93772
10.1177
10.2926
10.4625
10.6277
10.7885
10.9462
11.1002
11.2607
11.4029
-7.45796
-7.4576
-7.45718
-7.45742
-7.45923
-7.46278
-7.46752
-7.47274
-7.4779
-7.48258
-7.4865
-7.48943
-7.49116
-7.49158
-7.49063
-7.48832
-7.4846
-7.47957
-7.4734
-7.46635
-7.45872
-7.45092
-7.44343
-7.43692
-7.43215
-7.42964
-7.42984
-7.43238
-7.43554
-7.43795
-7.43996
-7.44304
-7.44852
-7.45725
-7.47069
-7.48954
-7.51373
-7.54301
-7.57709
-7.61524
-7.65672
-7.70108
-7.74796
-7.79706
-7.84803
-7.9003
-7.95308
-8.0056
-8.05712
-8.10696
-8.15456
-8.19944
-8.24121
-8.27964
-8.31462
-8.34615
-8.3742
-8.39875
-8.41984
-8.43754
-8.45193
-8.46311
-8.47116
-8.47614
-8.47814
-8.47719
-8.47335
-8.46664
-8.45709
-8.4447
-8.42949
-8.41145
-8.39055
-8.3668
-8.34015
-8.31058
-8.27804
-8.24249
-8.20386
-8.16211
-8.11715
-8.06892
-8.01734
-7.96232
-7.90377
-7.84161
-7.7757
-7.70593
-7.63215
-7.55431
-7.47232
-7.38607
-7.29542
-7.20021
-7.10027
-6.9955
-6.8858
-6.77108
-6.65123
-6.52615
-6.39575
-6.25996
-6.11872
-5.97197
-5.81967
-5.6618
-5.49834
-5.3293
-5.15468
-4.97452
-4.78885
-4.59775
-4.40127
-4.19951
-3.99256
-3.78054
-3.56357
-3.3418
-3.11538
-2.88447
-2.64924
-2.40989
-2.16659
-1.91957
-1.66901
-1.41516
-1.15821
-0.898411
-0.635973
-0.371124
-0.104075
0.16494
0.43568
0.707898
0.981358
1.25583
1.53111
1.80695
2.08312
2.35942
2.63562
2.91154
3.18694
3.46162
3.73534
4.00791
4.2791
4.54866
4.81637
5.08202
5.34543
5.60641
5.86479
6.12038
6.373
6.62248
6.86865
7.11134
7.35039
7.58566
7.81698
8.04424
8.26728
8.48598
8.70021
8.90985
9.1148
9.31498
9.51037
9.70096
9.88664
10.0673
10.243
10.4137
10.5798
10.7414
10.8999
11.0537
11.2136
11.3463
-7.46094
-7.46014
-7.45997
-7.46266
-7.46854
-7.47602
-7.48368
-7.49083
-7.49704
-7.50199
-7.50553
-7.50766
-7.50836
-7.50762
-7.50542
-7.50174
-7.49655
-7.48994
-7.48204
-7.47304
-7.4632
-7.45296
-7.44304
-7.43456
-7.42889
-7.42686
-7.42766
-7.42907
-7.43093
-7.43473
-7.44182
-7.4531
-7.46949
-7.49135
-7.51819
-7.54886
-7.58256
-7.61881
-7.6571
-7.69706
-7.73854
-7.78151
-7.82588
-7.87148
-7.918
-7.96499
-8.01192
-8.05827
-8.10349
-8.14711
-8.18872
-8.22799
-8.26463
-8.29848
-8.32943
-8.35741
-8.38235
-8.40425
-8.42311
-8.43895
-8.45181
-8.46173
-8.46875
-8.47291
-8.47425
-8.47279
-8.46856
-8.46156
-8.45181
-8.4393
-8.42403
-8.40599
-8.38515
-8.3615
-8.335
-8.30561
-8.2733
-8.23801
-8.1997
-8.15829
-8.11372
-8.06591
-8.0148
-7.96028
-7.90228
-7.84069
-7.77541
-7.70629
-7.63322
-7.5561
-7.47489
-7.38945
-7.29961
-7.20525
-7.1062
-7.00235
-6.89359
-6.77981
-6.66091
-6.5368
-6.40738
-6.27259
-6.13235
-5.98661
-5.83532
-5.67846
-5.51602
-5.34799
-5.17438
-4.99522
-4.81057
-4.62045
-4.42496
-4.22417
-4.01819
-3.80712
-3.59111
-3.37027
-3.14477
-2.91475
-2.68042
-2.44192
-2.19949
-1.95329
-1.70356
-1.45049
-1.19433
-0.935284
-0.673584
-0.40944
-0.143087
0.125253
0.395331
0.66691
0.939752
1.21363
1.48832
1.7636
2.03924
2.31503
2.59078
2.86626
3.14125
3.41554
3.68892
3.96116
4.23205
4.50134
4.76881
5.03427
5.29753
5.5584
5.8167
6.07224
6.32486
6.57435
6.82057
7.06334
7.30251
7.53792
7.76943
7.99689
8.22016
8.43912
8.65364
8.86361
9.06893
9.2695
9.46528
9.65624
9.84231
10.0234
10.1995
10.3706
10.537
10.6988
10.8571
11.0098
11.1675
11.2903
-7.46585
-7.46504
-7.46673
-7.47333
-7.48231
-7.49128
-7.49947
-7.50647
-7.51206
-7.51624
-7.51906
-7.52048
-7.52049
-7.51903
-7.5161
-7.51165
-7.5057
-7.49829
-7.48951
-7.47956
-7.46878
-7.45779
-7.44766
-7.44016
-7.43614
-7.4343
-7.43368
-7.43508
-7.44012
-7.45036
-7.4667
-7.48871
-7.5154
-7.54575
-7.5789
-7.61419
-7.65112
-7.68936
-7.72868
-7.76889
-7.80992
-7.85164
-7.89393
-7.93658
-7.97935
-8.02194
-8.06401
-8.10523
-8.14526
-8.18377
-8.22048
-8.25517
-8.28761
-8.31767
-8.34521
-8.37016
-8.39246
-8.41206
-8.42895
-8.44312
-8.45457
-8.46331
-8.46935
-8.47271
-8.47339
-8.4714
-8.46675
-8.45943
-8.44944
-8.43677
-8.42139
-8.4033
-8.38246
-8.35885
-8.33244
-8.30318
-8.27104
-8.23597
-8.1979
-8.15678
-8.11255
-8.06511
-8.01441
-7.96034
-7.90283
-7.84176
-7.77703
-7.70852
-7.63607
-7.55964
-7.47913
-7.39441
-7.30532
-7.21172
-7.11345
-7.01039
-6.90242
-6.78944
-6.67134
-6.54804
-6.41943
-6.28544
-6.14601
-6.00107
-5.85058
-5.69452
-5.53286
-5.3656
-5.19276
-5.01436
-4.83045
-4.64107
-4.44631
-4.24624
-4.04097
-3.8306
-3.61527
-3.3951
-3.17026
-2.9409
-2.70721
-2.46935
-2.22753
-1.98195
-1.73281
-1.48034
-1.22476
-0.966278
-0.70513
-0.441528
-0.175708
0.092101
0.361653
0.632719
0.905055
1.17844
1.45264
1.72744
2.00263
2.278
2.55334
2.82843
3.10305
3.37699
3.65005
3.92198
4.19257
4.46158
4.72881
4.99406
5.25715
5.51788
5.77607
6.03153
6.28409
6.53356
6.77979
7.02259
7.26183
7.49733
7.72896
7.95655
8.17999
8.39913
8.61386
8.82406
9.02962
9.23046
9.42651
9.61771
9.80399
9.98529
10.1616
10.3328
10.4993
10.6609
10.8186
10.9695
11.1247
11.238
-7.47091
-7.47124
-7.47623
-7.48529
-7.49468
-7.50311
-7.51041
-7.51654
-7.52151
-7.52526
-7.52772
-7.5288
-7.52847
-7.52669
-7.52343
-7.51866
-7.51245
-7.50488
-7.49608
-7.48633
-7.4762
-7.46671
-7.45906
-7.45373
-7.45019
-7.44832
-7.44944
-7.45539
-7.46762
-7.48616
-7.50997
-7.53784
-7.56887
-7.60234
-7.63762
-7.67429
-7.71208
-7.75072
-7.79001
-7.82974
-7.86976
-7.90992
-7.95007
-7.99007
-8.02974
-8.06887
-8.10725
-8.14463
-8.18079
-8.2155
-8.24856
-8.27977
-8.30899
-8.33607
-8.36092
-8.38345
-8.40359
-8.42129
-8.43653
-8.44927
-8.45949
-8.4672
-8.47237
-8.47499
-8.47507
-8.47259
-8.46754
-8.4599
-8.44966
-8.43679
-8.42128
-8.4031
-8.38223
-8.35862
-8.33226
-8.30309
-8.27107
-8.23616
-8.19829
-8.15741
-8.11345
-8.06634
-8.01599
-7.96232
-7.90524
-7.84465
-7.78042
-7.71244
-7.64058
-7.56474
-7.48487
-7.40079
-7.31237
-7.21942
-7.12182
-7.01942
-6.91212
-6.79979
-6.68236
-6.5597
-6.43174
-6.29838
-6.15957
-6.01524
-5.86535
-5.70986
-5.54877
-5.38207
-5.20976
-5.0319
-4.84849
-4.65962
-4.46534
-4.26576
-4.06095
-3.85105
-3.63616
-3.41645
-3.19203
-2.96312
-2.72983
-2.49241
-2.25099
-2.00583
-1.7571
-1.50504
-1.24986
-0.991792
-0.731035
-0.467835
-0.202413
0.0649827
0.334127
0.604778
0.876702
1.14967
1.42346
1.69787
1.97266
2.24767
2.52265
2.79739
3.07168
3.34531
3.61805
3.88968
4.15998
4.42871
4.69569
4.96072
5.2236
5.48416
5.7422
5.99754
6.25
6.49941
6.74559
6.98838
7.22761
7.46313
7.6948
7.92246
8.14597
8.36522
8.58006
8.79039
8.99609
9.19708
9.39328
9.58462
9.77103
9.95242
10.1288
10.3
10.4663
10.6274
10.7841
10.9331
11.086
11.1904
-7.47375
-7.47607
-7.4838
-7.49298
-7.50131
-7.50874
-7.51536
-7.52109
-7.52581
-7.5294
-7.53174
-7.53274
-7.53236
-7.53057
-7.52736
-7.52276
-7.51684
-7.50974
-7.50172
-7.49328
-7.4852
-7.4782
-7.4726
-7.46853
-7.46666
-7.46813
-7.47468
-7.48729
-7.5056
-7.52864
-7.55553
-7.58553
-7.61798
-7.65237
-7.68823
-7.72518
-7.76294
-7.80124
-7.83989
-7.87868
-7.91748
-7.95613
-7.99452
-8.03248
-8.06987
-8.10651
-8.14225
-8.1769
-8.21029
-8.24226
-8.27264
-8.30129
-8.32809
-8.35294
-8.37572
-8.39638
-8.41484
-8.43106
-8.44499
-8.45659
-8.46583
-8.47269
-8.47713
-8.47915
-8.47872
-8.47581
-8.4704
-8.46247
-8.452
-8.43895
-8.4233
-8.40502
-8.38408
-8.36045
-8.33409
-8.30496
-8.27302
-8.23823
-8.20052
-8.15983
-8.11611
-8.06926
-8.01923
-7.9659
-7.9092
-7.84903
-7.78525
-7.71776
-7.64639
-7.57111
-7.49179
-7.4083
-7.32043
-7.22805
-7.131
-7.02915
-6.92239
-6.81061
-6.69368
-6.57153
-6.44405
-6.31117
-6.1728
-6.0289
-5.87942
-5.72432
-5.5636
-5.39725
-5.22528
-5.04772
-4.86462
-4.67604
-4.48204
-4.28272
-4.07817
-3.86852
-3.65388
-3.4344
-3.21023
-2.98154
-2.7485
-2.51131
-2.27014
-2.02521
-1.77673
-1.52493
-1.27001
-1.0122
-0.751715
-0.488794
-0.223668
0.0434207
0.31225
0.582572
0.854156
1.12678
1.40022
1.67428
1.94875
2.22342
2.49808
2.77251
3.04649
3.31982
3.59226
3.86359
4.13358
4.40204
4.66875
4.93354
5.19622
5.45659
5.71446
5.96965
6.22198
6.47128
6.71737
6.96009
7.19927
7.43476
7.66641
7.89407
8.11761
8.33689
8.55179
8.76218
8.96796
9.16903
9.36531
9.55671
9.74315
9.92455
10.1008
10.2719
10.4379
10.5983
10.7539
10.9008
11.0515
11.1481
-7.47257
-7.47691
-7.48526
-7.49341
-7.50089
-7.50785
-7.51423
-7.5199
-7.52469
-7.52841
-7.53094
-7.53216
-7.53203
-7.53051
-7.52762
-7.52344
-7.51811
-7.51191
-7.5053
-7.49885
-7.49293
-7.48789
-7.48427
-7.48288
-7.48492
-7.49165
-7.50355
-7.52033
-7.54144
-7.56634
-7.59443
-7.62517
-7.65803
-7.69255
-7.72834
-7.76504
-7.80239
-7.84014
-7.87808
-7.91604
-7.95385
-7.99138
-8.02847
-8.06498
-8.10075
-8.13566
-8.16957
-8.20233
-8.2338
-8.26384
-8.29235
-8.3192
-8.34429
-8.36753
-8.38885
-8.40816
-8.42542
-8.44056
-8.45354
-8.4643
-8.47283
-8.47906
-8.48298
-8.48454
-8.48371
-8.48047
-8.47479
-8.46662
-8.45595
-8.44273
-8.42694
-8.40855
-8.38753
-8.36385
-8.33746
-8.30835
-8.27645
-8.24173
-8.20412
-8.16359
-8.12004
-8.07342
-8.02365
-7.97063
-7.91427
-7.85447
-7.7911
-7.72403
-7.65313
-7.57831
-7.4995
-7.4165
-7.32911
-7.2372
-7.14059
-7.03919
-6.93285
-6.82148
-6.70495
-6.58316
-6.45602
-6.32346
-6.18538
-6.04175
-5.8925
-5.73762
-5.57709
-5.4109
-5.23909
-5.06165
-4.87868
-4.69018
-4.49628
-4.29703
-4.09256
-3.88296
-3.6684
-3.44898
-3.22489
-2.99626
-2.76331
-2.52618
-2.28512
-2.04028
-1.79193
-1.54025
-1.28548
-1.02781
-0.767499
-0.504761
-0.239851
0.0270161
0.295595
0.565652
0.836954
1.10928
1.38243
1.65618
1.93037
2.20474
2.4791
2.75322
3.02691
3.29993
3.57207
3.84309
4.1128
4.38097
4.64743
4.91197
5.17442
5.43458
5.69226
5.94727
6.19945
6.4486
6.69456
6.93717
7.17626
7.41168
7.64327
7.87089
8.0944
8.31367
8.52857
8.73897
8.94478
9.14587
9.34217
9.53357
9.71998
9.90129
10.0774
10.2483
10.4137
10.5734
10.7278
10.8727
11.0213
11.1111
-7.46482
-7.47032
-7.47806
-7.48563
-7.49299
-7.50001
-7.5066
-7.51257
-7.51773
-7.52185
-7.52477
-7.5264
-7.52668
-7.52557
-7.52312
-7.51955
-7.51517
-7.51033
-7.50533
-7.50051
-7.49636
-7.49351
-7.49274
-7.49514
-7.50153
-7.51213
-7.52691
-7.54576
-7.56833
-7.59419
-7.62288
-7.65391
-7.68684
-7.72127
-7.75685
-7.79326
-7.83024
-7.86755
-7.905
-7.9424
-7.97958
-8.01636
-8.0526
-8.08816
-8.1229
-8.15671
-8.18944
-8.22099
-8.25123
-8.28005
-8.30735
-8.33305
-8.35705
-8.37928
-8.39966
-8.41813
-8.43462
-8.44909
-8.46147
-8.47173
-8.47981
-8.48566
-8.48924
-8.49051
-8.48943
-8.48597
-8.48008
-8.47173
-8.46089
-8.44753
-8.43161
-8.41312
-8.392
-8.36825
-8.34182
-8.31268
-8.28079
-8.24611
-8.20858
-8.16814
-8.12475
-8.07831
-8.02876
-7.976
-7.91994
-7.86046
-7.79745
-7.73076
-7.66026
-7.58587
-7.50747
-7.42488
-7.33789
-7.24635
-7.15011
-7.04905
-6.94304
-6.83196
-6.7157
-6.59416
-6.46724
-6.33485
-6.19692
-6.0534
-5.90424
-5.74942
-5.58891
-5.42274
-5.2509
-5.07344
-4.8904
-4.70185
-4.50787
-4.30854
-4.10398
-3.89431
-3.67965
-3.46016
-3.23598
-3.00729
-2.77428
-2.53712
-2.29602
-2.05119
-1.80284
-1.55119
-1.29646
-1.03886
-0.778644
-0.51603
-0.251263
0.0154343
0.283815
0.553648
0.824706
1.09677
1.36965
1.64314
1.91705
2.19113
2.4652
2.73904
3.01243
3.28515
3.55697
3.82768
4.09708
4.36496
4.63115
4.89543
5.15764
5.41756
5.67503
5.92984
6.18182
6.4308
6.67661
6.91907
7.15804
7.39334
7.62484
7.85237
8.07581
8.29501
8.50986
8.72023
8.926
9.12707
9.32332
9.51466
9.70097
9.88214
10.058
10.2285
10.3934
10.5522
10.7053
10.8483
10.9951
11.079
-7.44791
-7.45354
-7.46109
-7.4692
-7.47717
-7.48473
-7.49182
-7.49834
-7.50404
-7.50869
-7.51213
-7.51425
-7.51497
-7.5144
-7.51267
-7.51
-7.50664
-7.5029
-7.49918
-7.49593
-7.49375
-7.49342
-7.49578
-7.50134
-7.51042
-7.52321
-7.53978
-7.56003
-7.58364
-7.61022
-7.63936
-7.67065
-7.70369
-7.73813
-7.77366
-7.80996
-7.84681
-7.88395
-7.92121
-7.95835
-7.99521
-8.03162
-8.06743
-8.10251
-8.13672
-8.16995
-8.20207
-8.23297
-8.26256
-8.29074
-8.31743
-8.34254
-8.36599
-8.38772
-8.40766
-8.42574
-8.44189
-8.45605
-8.46818
-8.47821
-8.48609
-8.49178
-8.49523
-8.49638
-8.49519
-8.49162
-8.48563
-8.47718
-8.46623
-8.45276
-8.43674
-8.41814
-8.39693
-8.37308
-8.34657
-8.31737
-8.28545
-8.25076
-8.21326
-8.1729
-8.1296
-8.08331
-8.03394
-7.98139
-7.92558
-7.86638
-7.80367
-7.73731
-7.66717
-7.59311
-7.51509
-7.43283
-7.34617
-7.25491
-7.15896
-7.05815
-6.95237
-6.84149
-6.7254
-6.60398
-6.47715
-6.34482
-6.20691
-6.06337
-5.91417
-5.75926
-5.59865
-5.43234
-5.26034
-5.08271
-4.89947
-4.71073
-4.51653
-4.31701
-4.11223
-3.90236
-3.68749
-3.46781
-3.24344
-3.0146
-2.78142
-2.54415
-2.30293
-2.05802
-1.8096
-1.55793
-1.30318
-1.04561
-0.78543
-0.522904
-0.258245
0.00829944
0.276502
0.546126
0.816952
1.08878
1.36141
1.63465
1.90828
2.18208
2.45585
2.72939
3.00247
3.27487
3.54637
3.81677
4.08585
4.35344
4.61933
4.88335
5.14529
5.40497
5.66219
5.91679
6.16856
6.41735
6.66297
6.90527
7.14408
7.37924
7.6106
7.83802
8.06135
8.28046
8.49522
8.70551
8.9112
9.11219
9.30835
9.49958
9.68574
9.86671
10.0423
10.2124
10.3766
10.5345
10.6864
10.8274
10.9724
11.0515
-7.42044
-7.42582
-7.43437
-7.44402
-7.45311
-7.46142
-7.46917
-7.47632
-7.48267
-7.48798
-7.49206
-7.49477
-7.49614
-7.49624
-7.49522
-7.49332
-7.49082
-7.48809
-7.48557
-7.48385
-7.48365
-7.48556
-7.49003
-7.49749
-7.50835
-7.5228
-7.54084
-7.5623
-7.58686
-7.61416
-7.64385
-7.67553
-7.70888
-7.74356
-7.77927
-7.81574
-7.85272
-7.88998
-7.92731
-7.96449
-8.00135
-8.03773
-8.07349
-8.10848
-8.14257
-8.17566
-8.20763
-8.23838
-8.26783
-8.29587
-8.32243
-8.34742
-8.37078
-8.39244
-8.41234
-8.43041
-8.44658
-8.4608
-8.473
-8.48311
-8.49108
-8.49685
-8.50037
-8.50159
-8.50044
-8.49688
-8.49088
-8.48239
-8.47138
-8.45782
-8.44169
-8.42296
-8.40162
-8.37764
-8.35101
-8.32171
-8.2897
-8.25496
-8.21743
-8.17708
-8.13383
-8.08763
-8.03839
-7.98601
-7.9304
-7.87144
-7.809
-7.74293
-7.67305
-7.59933
-7.52158
-7.43961
-7.35319
-7.26217
-7.16641
-7.06578
-6.96015
-6.84937
-6.73335
-6.61196
-6.48512
-6.35273
-6.21473
-6.07107
-5.9217
-5.7666
-5.60577
-5.4392
-5.26694
-5.08902
-4.90549
-4.71643
-4.52193
-4.32209
-4.11701
-3.90683
-3.69169
-3.47173
-3.24712
-3.01803
-2.78464
-2.54717
-2.3058
-2.06076
-1.81225
-1.56049
-1.30571
-1.04813
-0.787982
-0.525524
-0.260972
0.00542589
0.273443
0.542852
0.813436
1.08501
1.35738
1.63035
1.90368
2.17717
2.45062
2.72383
2.99657
3.26862
3.53977
3.80982
4.07857
4.34584
4.61143
4.87516
5.13681
5.39622
5.65319
5.90754
6.15908
6.40766
6.65307
6.89518
7.13381
7.3688
7.60001
7.82728
8.05048
8.26947
8.48411
8.69429
8.89987
9.10074
9.29678
9.48785
9.67383
9.85454
10.0298
10.1994
10.363
10.5199
10.6705
10.8098
10.9531
11.0283
-7.38265
-7.38851
-7.39909
-7.41093
-7.42138
-7.43048
-7.43888
-7.44675
-7.45388
-7.45996
-7.46477
-7.4682
-7.47027
-7.47102
-7.47064
-7.46937
-7.46755
-7.46562
-7.46415
-7.4637
-7.4648
-7.46799
-7.47385
-7.48282
-7.49524
-7.51118
-7.53056
-7.55317
-7.57869
-7.6068
-7.63716
-7.66942
-7.70327
-7.73839
-7.77452
-7.81137
-7.84872
-7.88632
-7.92395
-7.96143
-7.99859
-8.03526
-8.07128
-8.10651
-8.14083
-8.17413
-8.20631
-8.23728
-8.26694
-8.29523
-8.32205
-8.34735
-8.37103
-8.39303
-8.41329
-8.43174
-8.44831
-8.46294
-8.47553
-8.48601
-8.49432
-8.50039
-8.50416
-8.50556
-8.50455
-8.50108
-8.4951
-8.48659
-8.47551
-8.46185
-8.44558
-8.4267
-8.40519
-8.38104
-8.35424
-8.32478
-8.29263
-8.25778
-8.22018
-8.17978
-8.13654
-8.09038
-8.04123
-7.98898
-7.93353
-7.87477
-7.81254
-7.74669
-7.67708
-7.60359
-7.52608
-7.44433
-7.35809
-7.26724
-7.17161
-7.07109
-6.96551
-6.85478
-6.73874
-6.6173
-6.49036
-6.35784
-6.21966
-6.07578
-5.92616
-5.77078
-5.60964
-5.44274
-5.27013
-5.09183
-4.90794
-4.71849
-4.52362
-4.32338
-4.11795
-3.9074
-3.69192
-3.47162
-3.24672
-3.01734
-2.78372
-2.54601
-2.30448
-2.05927
-1.81067
-1.55883
-1.30402
-1.04644
-0.786359
-0.523991
-0.259589
0.00662781
0.274419
0.54357
0.813886
1.08518
1.35726
1.6299
1.90288
2.17601
2.44911
2.72195
2.99431
3.26597
3.53674
3.80642
4.07482
4.34174
4.60701
4.87041
5.13176
5.39088
5.64757
5.90165
6.15295
6.40127
6.64647
6.88836
7.12679
7.36159
7.59262
7.81973
8.04277
8.26161
8.47611
8.68615
8.8916
9.09233
9.28821
9.47911
9.66486
9.84528
10.0202
10.1892
10.3521
10.5081
10.6575
10.7951
10.9367
11.0089
-7.33734
-7.34462
-7.35792
-7.37233
-7.38417
-7.39401
-7.40311
-7.41183
-7.41983
-7.42674
-7.43234
-7.43648
-7.43912
-7.44032
-7.44027
-7.43928
-7.43779
-7.43628
-7.43526
-7.4353
-7.43708
-7.44125
-7.44832
-7.45867
-7.47249
-7.48976
-7.51034
-7.53399
-7.56044
-7.58936
-7.62046
-7.6534
-7.68789
-7.72363
-7.76036
-7.79779
-7.83567
-7.87378
-7.91191
-7.94988
-7.98751
-8.02463
-8.0611
-8.0968
-8.13161
-8.16542
-8.19812
-8.22963
-8.25987
-8.28875
-8.31622
-8.3422
-8.3666
-8.38935
-8.41035
-8.42953
-8.4468
-8.46207
-8.47528
-8.48632
-8.49512
-8.50161
-8.50572
-8.50739
-8.50658
-8.50323
-8.49731
-8.48878
-8.47763
-8.46385
-8.44741
-8.42833
-8.4066
-8.38223
-8.35521
-8.32554
-8.2932
-8.25818
-8.22045
-8.17997
-8.13668
-8.09052
-8.04141
-7.98925
-7.93393
-7.87531
-7.81327
-7.74761
-7.6782
-7.60491
-7.5276
-7.44601
-7.35992
-7.26918
-7.17364
-7.07316
-6.9676
-6.85683
-6.74072
-6.61916
-6.49206
-6.35934
-6.22091
-6.07675
-5.92682
-5.77109
-5.60957
-5.44229
-5.26925
-5.09053
-4.90619
-4.71632
-4.52101
-4.32036
-4.11451
-3.90358
-3.68773
-3.46709
-3.24186
-3.01221
-2.77833
-2.54042
-2.29872
-2.05341
-1.80471
-1.55284
-1.29803
-1.04051
-0.780528
-0.518317
-0.254119
0.0118459
0.279348
0.548182
0.818178
1.08914
1.36086
1.63309
1.90567
2.17839
2.45106
2.72346
2.99538
3.2666
3.53694
3.80621
4.07421
4.34075
4.60564
4.86869
5.1297
5.38849
5.64488
5.89867
6.14968
6.39775
6.6427
6.88435
7.12256
7.35716
7.58799
7.81491
8.03778
8.25645
8.4708
8.68068
8.88598
9.08655
9.28226
9.47295
9.65845
9.83857
10.013
10.1816
10.3438
10.4988
10.647
10.7831
10.923
10.993
-7.28963
-7.29867
-7.31518
-7.33241
-7.3457
-7.35628
-7.36611
-7.37568
-7.38457
-7.39226
-7.3985
-7.40304
-7.40582
-7.40694
-7.40668
-7.40537
-7.40348
-7.40155
-7.40028
-7.40041
-7.40263
-7.40754
-7.41558
-7.427
-7.4419
-7.46021
-7.48177
-7.50634
-7.53365
-7.56337
-7.59521
-7.62885
-7.66402
-7.70042
-7.73777
-7.77579
-7.81428
-7.853
-7.89174
-7.93031
-7.96854
-8.00627
-8.04338
-8.07974
-8.11526
-8.14982
-8.18333
-8.2157
-8.24684
-8.27668
-8.30511
-8.33205
-8.35742
-8.38113
-8.40308
-8.42318
-8.44132
-8.45741
-8.47137
-8.48309
-8.4925
-8.49951
-8.50404
-8.50604
-8.50546
-8.50224
-8.49637
-8.48782
-8.47657
-8.46262
-8.44597
-8.42664
-8.40464
-8.37998
-8.35268
-8.32273
-8.29015
-8.25492
-8.21701
-8.17639
-8.13302
-8.08682
-8.03772
-7.98561
-7.93038
-7.87189
-7.81
-7.74452
-7.67527
-7.60214
-7.525
-7.44353
-7.35756
-7.26688
-7.1714
-7.07092
-6.96534
-6.85448
-6.73826
-6.61654
-6.48924
-6.35626
-6.21755
-6.07307
-5.92278
-5.76667
-5.60474
-5.43704
-5.26355
-5.08439
-4.89958
-4.70928
-4.51352
-4.31245
-4.10617
-3.89487
-3.67865
-3.4577
-3.23216
-3.00228
-2.76819
-2.53014
-2.28831
-2.04294
-1.79421
-1.54238
-1.28765
-1.03028
-0.770482
-0.508525
-0.24462
0.0209991
0.288124
0.556577
0.826178
1.09673
1.36796
1.63972
1.9118
2.18404
2.45621
2.7281
2.99951
3.27024
3.54009
3.80889
4.07644
4.34256
4.60703
4.86969
5.13033
5.38877
5.64481
5.89828
6.14899
6.39677
6.64145
6.88285
7.12082
7.35519
7.58581
7.81253
8.0352
8.2537
8.46787
8.67759
8.88272
9.08312
9.27863
9.46911
9.65435
9.83414
10.0082
10.1762
10.3377
10.4918
10.6388
10.7735
10.9117
10.9802
-7.24631
-7.25715
-7.27704
-7.29722
-7.31195
-7.32327
-7.33382
-7.34421
-7.3538
-7.3619
-7.36817
-7.37235
-7.37442
-7.3745
-7.37291
-7.37014
-7.36685
-7.36379
-7.36179
-7.36161
-7.3639
-7.36918
-7.37777
-7.38983
-7.4054
-7.4244
-7.44664
-7.47188
-7.49982
-7.53019
-7.56267
-7.59696
-7.63275
-7.66974
-7.70768
-7.74632
-7.78543
-7.82478
-7.86418
-7.90342
-7.94235
-7.98081
-8.01869
-8.05586
-8.09224
-8.12771
-8.16219
-8.19557
-8.22776
-8.25866
-8.28817
-8.3162
-8.34265
-8.36744
-8.39044
-8.41158
-8.43072
-8.44776
-8.46258
-8.47508
-8.48516
-8.49274
-8.49773
-8.50008
-8.49973
-8.49665
-8.49081
-8.4822
-8.47081
-8.45665
-8.43974
-8.4201
-8.39777
-8.37277
-8.34515
-8.31489
-8.28203
-8.24653
-8.20842
-8.16764
-8.12416
-8.0779
-8.02879
-7.97671
-7.92157
-7.8632
-7.80143
-7.73611
-7.66699
-7.59403
-7.517
-7.43567
-7.34976
-7.25915
-7.16368
-7.06319
-6.95753
-6.84659
-6.73022
-6.60832
-6.48079
-6.34755
-6.20855
-6.06373
-5.91309
-5.7566
-5.59428
-5.42614
-5.25223
-5.07262
-4.8874
-4.69667
-4.50051
-4.29904
-4.0924
-3.88076
-3.66424
-3.44302
-3.21726
-2.98719
-2.75298
-2.51486
-2.273
-2.02765
-1.779
-1.5273