/*--------------------------------*- C++ -*----------------------------------*\
  =========                 |
  \\      /  F ield         | OpenFOAM: The Open Source CFD Toolbox
   \\    /   O peration     | Website:  https://openfoam.org
    \\  /    A nd           | Version:  8
     \\/     M anipulation  |
\*---------------------------------------------------------------------------*/
FoamFile
{
    version     2.0;
    format      ascii;
    class       volScalarField;
    location    "1200";
    object      nut;
}
// * * * * * * * * * * * * * * * * * * * * * * * * * * * * * * * * * * * * * //

dimensions      [0 2 -1 0 0 0 0];

internalField   nonuniform List<scalar> 
12225
(
3.81987e-06
1.14124e-05
1.65292e-05
1.2526e-05
3.11728e-05
2.49002e-05
1.95991e-05
2.97226e-05
2.92713e-05
3.50967e-05
3.89031e-05
3.34759e-05
3.34053e-05
2.60378e-05
2.05918e-05
2.88646e-05
2.77298e-05
3.20259e-05
7.9681e-05
2.56902e-05
3.33646e-05
2.58986e-05
3.56558e-05
3.65383e-05
3.33819e-05
4.38369e-05
4.01074e-05
4.84285e-05
4.84536e-05
4.97387e-05
4.99039e-05
4.61756e-05
4.57463e-05
4.82115e-05
4.88389e-05
4.96174e-05
0.000313599
0.000161799
0.000102427
7.03251e-05
5.72497e-05
5.05183e-05
4.43701e-05
4.23496e-05
4.03237e-05
3.83253e-05
3.72118e-05
3.64537e-05
3.57292e-05
3.51073e-05
3.40936e-05
3.38606e-05
3.35802e-05
3.41457e-05
0.000431198
0.000388689
0.000308262
0.00025277
0.000208615
0.000175025
0.000151812
0.000132168
0.000118596
0.000105526
9.8701e-05
9.11654e-05
8.68252e-05
8.15768e-05
7.85076e-05
7.40466e-05
7.16824e-05
6.80079e-05
0.000452775
0.000447386
0.000427402
0.000406935
0.000381948
0.000347519
0.000323503
0.00029524
0.000275994
0.000252787
0.000240376
0.000224297
0.000216143
0.00020407
0.000197928
0.000187466
0.000182196
0.000173209
0.000454004
0.00045396
0.000449385
0.000446125
0.000440751
0.000429059
0.000419944
0.000405195
0.000395648
0.000380459
0.000371777
0.000358604
0.000351519
0.000340141
0.000334024
0.000323682
0.000318116
0.000308497
0.000454282
0.000453625
0.000453449
0.000452188
0.000451572
0.000449106
0.000446526
0.0004426
0.000439374
0.000434305
0.000430817
0.000425641
0.000422195
0.000417113
0.000413706
0.000408516
0.00040509
0.000399675
0.000454246
0.000453616
0.000453444
0.000452816
0.0004525
0.000451688
0.00045099
0.000449724
0.000448652
0.000447128
0.000445631
0.000443955
0.000442311
0.000440482
0.000438793
0.000436848
0.000435021
0.000432718
0.000454211
0.000453654
0.000453353
0.000452859
0.000452561
0.000452068
0.000451729
0.000451174
0.000450767
0.00045014
0.000449684
0.000448998
0.00044847
0.000447659
0.000447093
0.000446165
0.000445547
0.00044449
0.000454185
0.000453678
0.000453309
0.000452857
0.000452524
0.000452108
0.000451802
0.000451409
0.000451125
0.000450745
0.000450479
0.000450111
0.00044985
0.000449468
0.000449193
0.000448793
0.00044849
0.000448074
0.000454167
0.00045369
0.000453284
0.000452857
0.000452492
0.000452106
0.000451776
0.000451426
0.000451126
0.000450808
0.000450536
0.000450245
0.000449993
0.000449723
0.000449484
0.00044923
0.000448998
0.000448757
0.000454158
0.000453695
0.000453269
0.000452854
0.000452471
0.000452096
0.000451749
0.00045141
0.000451095
0.000450788
0.000450501
0.000450222
0.000449959
0.000449705
0.000449463
0.00044923
0.000449007
0.000448794
0.000454154
0.000453695
0.000453262
0.000452848
0.000452458
0.000452084
0.00045173
0.000451392
0.000451071
0.000450763
0.00045047
0.00045019
0.000449923
0.000449667
0.000449422
0.000449189
0.000448965
0.000448751
0.000454154
0.000453694
0.000453258
0.000452843
0.00045245
0.000452074
0.000451718
0.000451377
0.000451054
0.000450744
0.00045045
0.000450167
0.000449898
0.00044964
0.000449394
0.000449158
0.000448932
0.000448716
0.000454154
0.000453695
0.000453261
0.000452846
0.000452454
0.000452078
0.000451723
0.000451383
0.000451061
0.000450751
0.000450458
0.000450175
0.000449907
0.000449648
0.000449404
0.000449167
0.000448943
0.000448725
0.000454165
0.000453724
0.000453309
0.000452909
0.000452534
0.000452171
0.000451831
0.000451501
0.000451193
0.000450892
0.000450611
0.000450335
0.000450079
0.000449826
0.000449593
0.000449359
0.000449147
0.000448931
0.000454192
0.000453804
0.000453435
0.000453081
0.000452745
0.000452422
0.000452115
0.00045182
0.000451539
0.000451269
0.000451011
0.000450763
0.000450525
0.000450298
0.000450079
0.00044987
0.000449668
0.000449476
0.000454191
0.000453805
0.000453433
0.000453081
0.000452742
0.000452421
0.000452111
0.000451818
0.000451534
0.000451265
0.000451004
0.000450758
0.000450517
0.000450291
0.000450069
0.000449862
0.000449657
0.000449467
0.000454163
0.000453723
0.000453303
0.000452904
0.000452524
0.000452163
0.000451818
0.00045149
0.000451175
0.000450876
0.000450587
0.000450314
0.00045005
0.000449801
0.000449558
0.00044933
0.000449108
0.0004489
0.000454153
0.000453694
0.000453257
0.000452842
0.000452446
0.00045207
0.000451711
0.00045137
0.000451043
0.000450732
0.000450433
0.000450149
0.000449877
0.000449617
0.000449367
0.00044913
0.000448901
0.000448683
0.000454153
0.000453693
0.000453255
0.000452838
0.000452442
0.000452065
0.000451704
0.000451362
0.000451034
0.000450722
0.000450423
0.000450137
0.000449864
0.000449603
0.000449353
0.000449113
0.000448884
0.000448665
0.000454152
0.000453696
0.000453255
0.000452844
0.000452445
0.000452071
0.00045171
0.00045137
0.000451042
0.000450732
0.000450432
0.000450148
0.000449874
0.000449613
0.000449361
0.000449122
0.00044889
0.000448668
0.000454145
0.000453707
0.00045325
0.000452856
0.000452443
0.000452085
0.000451709
0.000451382
0.000451035
0.00045073
0.000450406
0.000450119
0.000449813
0.000449539
0.000449246
0.000448981
0.000448695
0.000448434
0.000454142
0.000453732
0.000453212
0.000452876
0.000452394
0.000452054
0.000451571
0.000451218
0.000450707
0.000450302
0.000449728
0.000449273
0.000448639
0.000448127
0.000447434
0.000446862
0.000446111
0.00044548
0.000454303
0.000453605
0.000452895
0.000452602
0.000451677
0.000450851
0.000449373
0.000448254
0.000446243
0.000444457
0.000442263
0.000440143
0.000437497
0.000435248
0.000432279
0.000429909
0.000426836
0.000424395
0.000454969
0.000450867
0.000448651
0.000447129
0.000442541
0.000435892
0.000427615
0.000420995
0.000411457
0.000403516
0.000393358
0.000385304
0.00037561
0.000368165
0.000359311
0.000352646
0.000344635
0.000338741
0.000453025
0.000422019
0.000412071
0.000401904
0.000369223
0.000342087
0.000313643
0.000291438
0.000269184
0.000252515
0.000235878
0.000223792
0.000211393
0.000202576
0.000193113
0.000186522
0.000179062
0.000173994
0.000459095
0.000284806
0.000256222
0.000209438
0.000160747
0.000131895
0.000112252
9.93225e-05
8.94913e-05
8.25635e-05
7.68944e-05
7.28086e-05
6.91482e-05
6.65956e-05
6.41554e-05
6.24955e-05
6.07899e-05
5.96415e-05
5.44829e-05
6.72047e-05
5.70788e-05
4.80332e-05
4.4709e-05
4.29362e-05
4.2468e-05
4.22153e-05
4.26397e-05
4.29857e-05
4.38613e-05
4.4555e-05
4.57252e-05
4.6665e-05
4.80467e-05
4.91858e-05
5.06474e-05
5.07877e-05
4.09395e-06
9.96258e-06
1.58239e-05
1.91817e-05
2.1008e-05
2.20647e-05
2.23969e-05
2.25123e-05
2.24584e-05
2.22213e-05
2.19319e-05
2.16243e-05
2.13182e-05
2.10266e-05
2.07539e-05
2.05062e-05
2.02789e-05
2.00783e-05
1.55542e-12
1.76425e-10
8.96469e-10
3.51393e-09
1.17064e-08
3.54472e-08
9.2347e-08
1.82819e-07
2.95394e-07
4.1351e-07
5.1916e-07
6.00481e-07
6.545e-07
6.73258e-07
6.63731e-07
6.35336e-07
5.8314e-07
4.96138e-07
4.221e-07
3.58579e-07
2.98472e-07
2.40236e-07
1.83965e-07
1.31871e-07
8.56635e-08
5.008e-08
2.6607e-08
1.34619e-08
6.89722e-09
3.77025e-09
2.30213e-09
1.74042e-09
2.26105e-09
4.41808e-09
8.04629e-09
5.56268e-08
1.25201e-07
2.79566e-07
4.2392e-07
4.68087e-07
4.31421e-07
3.47028e-07
2.87899e-07
2.75276e-07
2.95456e-07
3.84406e-07
4.98709e-07
9.50934e-07
2.06961e-06
5.9822e-06
1.6725e-05
3.15378e-05
4.30911e-05
4.85042e-05
4.80494e-05
4.31467e-05
3.41281e-05
3.2913e-05
3.73661e-05
3.72577e-05
3.11119e-05
3.31884e-05
3.15178e-05
3.16222e-05
3.32291e-05
3.34707e-05
3.42156e-05
3.47194e-05
3.53214e-05
3.58586e-05
3.6413e-05
3.6952e-05
3.74828e-05
3.80135e-05
3.85326e-05
3.90529e-05
3.95648e-05
4.00763e-05
4.05825e-05
4.10873e-05
4.15887e-05
4.20885e-05
4.25858e-05
4.30818e-05
4.35757e-05
4.40684e-05
4.45592e-05
4.50488e-05
4.55367e-05
4.60232e-05
4.65079e-05
4.69905e-05
4.74709e-05
4.79487e-05
4.84233e-05
4.88947e-05
4.93624e-05
4.98271e-05
5.02905e-05
5.0756e-05
5.12297e-05
5.17116e-05
5.21919e-05
5.2677e-05
5.3167e-05
5.36619e-05
5.41631e-05
5.46699e-05
5.51839e-05
5.57046e-05
5.62334e-05
5.677e-05
5.73158e-05
5.78708e-05
5.84363e-05
5.90126e-05
5.96007e-05
6.02017e-05
6.08163e-05
6.14459e-05
6.20912e-05
6.27541e-05
6.34351e-05
6.41365e-05
6.48586e-05
6.56038e-05
6.63715e-05
6.7163e-05
6.79801e-05
6.88538e-05
6.97632e-05
7.07203e-05
7.16944e-05
7.27238e-05
7.38044e-05
7.49542e-05
7.61668e-05
7.743e-05
7.7379e-05
7.71324e-05
7.68703e-05
7.65974e-05
7.63125e-05
7.60168e-05
7.57104e-05
7.53938e-05
7.50673e-05
7.47306e-05
7.4384e-05
7.40286e-05
7.36642e-05
7.32891e-05
7.29104e-05
7.25176e-05
7.21253e-05
7.17211e-05
7.13164e-05
7.09046e-05
7.04903e-05
7.00714e-05
6.96508e-05
6.92288e-05
6.88056e-05
6.83822e-05
6.79582e-05
6.75353e-05
6.71132e-05
6.66937e-05
6.62764e-05
6.5863e-05
6.54527e-05
6.50463e-05
6.46418e-05
6.42381e-05
6.38303e-05
6.34113e-05
6.29703e-05
6.24783e-05
6.18822e-05
6.03307e-05
7.2905e-12
1.18717e-09
1.6045e-08
8.48614e-08
3.71883e-07
1.16091e-06
2.68029e-06
4.88334e-06
7.56225e-06
1.06126e-05
1.36925e-05
1.65434e-05
1.89571e-05
2.07567e-05
2.18209e-05
2.2125e-05
2.17246e-05
2.10919e-05
1.84642e-05
1.55292e-05
1.19699e-05
8.79926e-06
6.19277e-06
4.16787e-06
2.62616e-06
1.62303e-06
9.93177e-07
6.16934e-07
3.88487e-07
2.54896e-07
1.86205e-07
1.60358e-07
1.8211e-07
3.05253e-07
3.60369e-07
3.34895e-06
7.37936e-06
1.51118e-05
2.10488e-05
2.32221e-05
2.18977e-05
1.96343e-05
1.71278e-05
1.58184e-05
1.63029e-05
1.64467e-05
1.87362e-05
2.49519e-05
3.58855e-05
4.61776e-05
5.77272e-05
6.78352e-05
7.74722e-05
8.59688e-05
9.55428e-05
0.000105774
0.0001142
0.000128123
0.000141521
0.000156639
0.000165474
0.000180643
0.000191856
0.000205428
0.000217444
0.000228969
0.000240217
0.000250925
0.000261264
0.00027127
0.000280981
0.000290408
0.000299621
0.000308601
0.000317415
0.000326047
0.00033454
0.000342887
0.000351112
0.000359214
0.000367206
0.00037509
0.00038287
0.000390552
0.000398137
0.000405629
0.000413028
0.000420336
0.00042755
0.000434672
0.000441699
0.000448628
0.000455454
0.000462168
0.000468758
0.000475202
0.000481467
0.000487504
0.000493238
0.000498563
0.000503339
0.000507696
0.00051207
0.000516255
0.000520357
0.000524322
0.000528175
0.000531899
0.000535501
0.000538975
0.000542322
0.000545538
0.000548623
0.000551574
0.000554392
0.000557073
0.000559618
0.000562024
0.000564292
0.000566419
0.000568404
0.000570247
0.000571948
0.000573503
0.000574912
0.000576174
0.000577286
0.000578244
0.000579043
0.000579676
0.000580169
0.00058053
0.000580697
0.000580749
0.000580545
0.000580331
0.000580112
0.000579933
0.000579846
0.00057965
0.000579311
0.000578838
0.000578232
0.000577497
0.000576634
0.000575646
0.000574532
0.000573284
0.000571913
0.000570457
0.000568779
0.000567172
0.000565187
0.00056335
0.000561169
0.000559053
0.000556743
0.000554407
0.000551949
0.000549442
0.000546851
0.000544211
0.000541502
0.000538744
0.000535927
0.000533064
0.000530153
0.000527206
0.000524224
0.000521214
0.000518175
0.000515106
0.000511996
0.000508827
0.000505534
0.000502041
0.000498225
0.00049378
0.000487987
0.000472155
1.78902e-11
3.03386e-09
5.68197e-08
3.31729e-07
1.17616e-06
2.88206e-06
6.12989e-06
1.066e-05
1.62683e-05
2.26453e-05
2.94286e-05
3.61305e-05
4.21654e-05
4.718e-05
5.09796e-05
5.34612e-05
5.47693e-05
5.50861e-05
5.34108e-05
5.0546e-05
4.58534e-05
3.99872e-05
3.29073e-05
2.58652e-05
1.94036e-05
1.38788e-05
9.43293e-06
6.30022e-06
4.00922e-06
2.66548e-06
1.89934e-06
1.51861e-06
1.29005e-06
2.13846e-06
3.91754e-06
1.72092e-05
3.58211e-05
5.44971e-05
6.42323e-05
6.28566e-05
5.15664e-05
4.14032e-05
3.96554e-05
4.54772e-05
5.23157e-05
6.11182e-05
7.32755e-05
8.54586e-05
9.77744e-05
0.000114045
0.000132303
0.000153003
0.0001762
0.000201628
0.000229867
0.00025953
0.000289079
0.000320652
0.000350566
0.00038076
0.000407472
0.000435659
0.000459954
0.000486531
0.000509879
0.000532929
0.000554793
0.000575923
0.000596336
0.000616158
0.000635447
0.000654273
0.000672701
0.00069076
0.000708504
0.000725947
0.000743125
0.000760046
0.000776732
0.000793189
0.000809429
0.000825455
0.000841273
0.000856887
0.000872298
0.000887506
0.00090251
0.000917308
0.000931894
0.000946262
0.000960403
0.000974306
0.000987955
0.00100133
0.00101441
0.00102716
0.00103954
0.0010515
0.00106302
0.00107406
0.00108466
0.00109498
0.00110511
0.00111494
0.00112455
0.00113387
0.00114294
0.00115173
0.00116025
0.00116849
0.00117644
0.00118412
0.0011915
0.00119859
0.00120539
0.0012119
0.0012181
0.00122401
0.00122961
0.00123491
0.00123991
0.0012446
0.00124898
0.00125306
0.00125682
0.00126027
0.0012634
0.00126621
0.0012687
0.00127086
0.00127272
0.00127427
0.0012755
0.00127644
0.00127699
0.00127733
0.00127758
0.00127764
0.00127751
0.00127708
0.00127635
0.00127531
0.00127397
0.00127234
0.00127042
0.00126822
0.00126573
0.00126296
0.00125991
0.00125663
0.00125294
0.00124921
0.00124491
0.00124065
0.0012359
0.0012311
0.00122597
0.00122072
0.00121525
0.00120966
0.00120389
0.00119801
0.00119199
0.00118586
0.00117962
0.00117327
0.00116683
0.00116032
0.00115374
0.00114711
0.00114043
0.00113369
0.00112687
0.00111992
0.00111274
0.00110514
0.00109685
0.00108712
0.00107412
0.00104543
6.81855e-11
1.15348e-08
1.81951e-07
7.8265e-07
2.47469e-06
6.79875e-06
1.34998e-05
2.25246e-05
3.31824e-05
4.4374e-05
5.51767e-05
6.50513e-05
7.35092e-05
7.99589e-05
8.48002e-05
8.78691e-05
8.90889e-05
8.88188e-05
8.71806e-05
8.39584e-05
7.93904e-05
7.38493e-05
6.64828e-05
5.77698e-05
4.816e-05
3.85735e-05
2.97324e-05
2.23861e-05
1.67509e-05
1.21861e-05
9.47693e-06
7.01503e-06
7.6206e-06
1.15175e-05
2.60307e-05
4.9458e-05
6.86836e-05
7.95261e-05
7.68167e-05
7.33809e-05
7.28598e-05
7.58509e-05
8.2948e-05
9.33934e-05
0.000107796
0.000118996
0.000136513
0.000159437
0.000184182
0.00021563
0.000249702
0.000288023
0.000328793
0.000371804
0.000416164
0.000460672
0.000504522
0.000548031
0.000589684
0.000630277
0.000668653
0.000706073
0.000741298
0.000776424
0.000809312
0.000841346
0.000872238
0.000902259
0.000931474
0.000959996
0.000987899
0.00101526
0.00104212
0.00106854
0.00109455
0.00112017
0.00114544
0.00117036
0.00119494
0.0012192
0.00124314
0.00126677
0.00129008
0.00131307
0.00133576
0.00135812
0.00138016
0.00140188
0.00142325
0.00144428
0.00146495
0.00148524
0.00150514
0.00152463
0.00154369
0.00156229
0.00158042
0.00159806
0.00161521
0.00163188
0.00164812
0.001664
0.00167952
0.00169463
0.00170936
0.00172369
0.00173761
0.00175111
0.0017642
0.00177686
0.0017891
0.0018009
0.00181226
0.00182319
0.00183367
0.00184371
0.0018533
0.00186244
0.00187113
0.00187936
0.00188715
0.00189447
0.00190134
0.00190775
0.00191371
0.0019192
0.00192422
0.00192878
0.00193287
0.0019365
0.00193966
0.00194237
0.00194465
0.00194645
0.00194774
0.00194871
0.00194941
0.0019497
0.00194959
0.00194905
0.00194805
0.00194662
0.00194475
0.00194245
0.00193972
0.00193657
0.00193301
0.00192902
0.00192463
0.00191986
0.0019146
0.00190908
0.00190299
0.00189668
0.00188988
0.00188283
0.00187541
0.00186774
0.00185978
0.00185159
0.00184318
0.00183457
0.00182577
0.00181679
0.00180765
0.00179835
0.00178891
0.00177937
0.00176972
0.00176
0.0017502
0.00174033
0.00173035
0.00172018
0.00170971
0.00169872
0.00168682
0.00167296
0.00165475
0.00162069
2.31544e-10
3.43008e-08
4.05109e-07
1.94251e-06
6.6838e-06
1.60741e-05
2.98453e-05
4.62112e-05
6.32451e-05
7.9223e-05
9.29821e-05
0.000103637
0.000111444
0.00011677
0.000119734
0.000120926
0.000120553
0.000118834
0.000115941
0.000111889
0.000106643
0.000100716
9.33701e-05
8.47684e-05
7.48536e-05
6.39685e-05
5.28787e-05
4.28523e-05
3.45496e-05
2.79292e-05
2.21331e-05
2.07101e-05
2.57296e-05
4.29187e-05
6.76317e-05
8.38192e-05
9.18108e-05
9.52996e-05
9.77932e-05
0.000102331
0.000110548
0.000123291
0.000136301
0.000148553
0.000168348
0.000196594
0.000226728
0.000264715
0.000305938
0.000352893
0.000401883
0.000453994
0.000507251
0.000561387
0.000615471
0.000668825
0.000721046
0.000772094
0.000821467
0.000869057
0.000915194
0.000960112
0.00100313
0.00104516
0.00108562
0.00112504
0.00116339
0.00120082
0.00123744
0.00127332
0.00130853
0.00134315
0.00137721
0.00141075
0.00144381
0.00147641
0.00150856
0.00154027
0.00157155
0.00160241
0.00163284
0.00166286
0.00169245
0.00172161
0.00175035
0.00177865
0.00180652
0.00183394
0.0018609
0.0018874
0.00191342
0.00193895
0.00196398
0.00198849
0.00201248
0.00203592
0.00205883
0.00208119
0.00210303
0.00212434
0.00214516
0.0021655
0.00218534
0.00220468
0.00222351
0.00224181
0.00225959
0.00227684
0.00229354
0.0023097
0.00232531
0.00234036
0.00235485
0.00236878
0.00238215
0.00239496
0.0024072
0.00241886
0.00242996
0.00244049
0.00245045
0.00245983
0.00246864
0.00247688
0.00248455
0.00249164
0.00249816
0.00250411
0.00250949
0.00251429
0.00251854
0.00252218
0.0025253
0.00252785
0.00252977
0.00253134
0.00253243
0.00253298
0.00253301
0.00253249
0.00253144
0.00252984
0.00252771
0.00252506
0.00252188
0.00251818
0.00251398
0.00250926
0.00250404
0.00249833
0.00249209
0.00248541
0.00247818
0.00247054
0.00246241
0.00245389
0.00244495
0.00243567
0.00242603
0.0024161
0.00240588
0.0023954
0.00238467
0.00237371
0.00236253
0.00235115
0.00233958
0.00232787
0.00231603
0.00230407
0.00229201
0.00227983
0.00226751
0.00225499
0.00224214
0.00222876
0.00221443
0.0021981
0.00217703
0.00214268
7.39931e-10
8.4894e-08
1.02847e-06
5.22166e-06
1.70044e-05
3.58725e-05
5.85505e-05
8.16923e-05
0.000102038
0.000118141
0.000130018
0.000138554
0.000143638
0.000146221
0.000146905
0.000146112
0.000144094
0.000141029
0.000137041
0.000132095
0.000126232
0.00011977
0.000112149
0.00010346
9.29155e-05
7.75398e-05
6.26938e-05
4.8804e-05
3.71467e-05
3.18009e-05
3.27301e-05
4.38711e-05
6.54195e-05
8.75864e-05
0.000103365
0.000112933
0.000118857
0.000124832
0.000134468
0.000149753
0.000161386
0.000173965
0.000195758
0.00022393
0.000257569
0.000298853
0.000344149
0.000395691
0.000449711
0.00050719
0.000565913
0.000626079
0.000686482
0.000746802
0.000806475
0.000865147
0.00092231
0.000978168
0.00103286
0.00108602
0.00113764
0.00118788
0.00123664
0.00128422
0.00133054
0.0013758
0.00142005
0.00146341
0.00150594
0.00154773
0.00158883
0.00162928
0.00166913
0.00170841
0.00174714
0.00178532
0.00182298
0.00186011
0.00189672
0.00193281
0.00196837
0.0020034
0.00203791
0.00207188
0.00210532
0.00213822
0.00217058
0.00220238
0.00223363
0.00226431
0.00229441
0.00232394
0.00235287
0.00238121
0.00240895
0.00243607
0.00246259
0.00248851
0.00251385
0.00253859
0.00256275
0.00258633
0.00260931
0.00263169
0.00265346
0.00267462
0.00269515
0.00271506
0.00273433
0.00275297
0.00277096
0.0027883
0.00280499
0.00282103
0.00283641
0.00285115
0.00286523
0.00287866
0.00289143
0.00290355
0.00291501
0.00292583
0.00293599
0.0029455
0.00295437
0.00296258
0.00297016
0.00297709
0.00298339
0.00298909
0.00299407
0.00299843
0.00300221
0.00300531
0.00300776
0.00300981
0.00301125
0.00301208
0.00301232
0.00301196
0.003011
0.00300945
0.00300731
0.0030046
0.00300131
0.00299743
0.002993
0.002988
0.00298245
0.00297635
0.00296968
0.00296249
0.00295473
0.00294648
0.0029377
0.00292846
0.00291877
0.00290866
0.00289816
0.00288729
0.00287609
0.00286458
0.00285277
0.00284068
0.00282833
0.00281573
0.0028029
0.00278989
0.0027767
0.00276337
0.00274991
0.00273631
0.00272256
0.0027086
0.00269433
0.00267957
0.00266397
0.00264657
0.00262486
0.00259239
2.36824e-09
2.17689e-07
2.72074e-06
1.42585e-05
3.71985e-05
6.60717e-05
9.33041e-05
0.000115463
0.000132409
0.000145125
0.000154097
0.000159544
0.000162362
0.000163208
0.000162557
0.00016073
0.000157924
0.000154236
0.000149611
0.000143972
0.000137499
0.000130032
0.000121253
0.000105345
8.9981e-05
7.64892e-05
6.44907e-05
5.5715e-05
5.40485e-05
6.13636e-05
7.42325e-05
9.83018e-05
0.000117549
0.000130739
0.000140253
0.000148242
0.000158473
0.000174213
0.00018449
0.000196301
0.000217411
0.000244663
0.000278752
0.000319585
0.000366589
0.000419522
0.000475985
0.000536072
0.000597792
0.000661239
0.000725296
0.000789752
0.000853979
0.0009177
0.000980348
0.00104187
0.00110259
0.001162
0.00122008
0.00127681
0.0013322
0.0013863
0.00143915
0.00149086
0.00154146
0.00159105
0.00163971
0.0016875
0.00173449
0.00178073
0.00182628
0.00187115
0.00191539
0.00195901
0.00200202
0.00204442
0.00208622
0.00212742
0.00216801
0.00220799
0.00224735
0.00228608
0.0023242
0.00236168
0.00239854
0.00243476
0.00247034
0.00250529
0.0025396
0.00257326
0.00260627
0.00263864
0.00267034
0.00270138
0.00273176
0.00276148
0.00279052
0.00281889
0.00284658
0.0028736
0.00289997
0.00292567
0.0029507
0.00297507
0.00299875
0.00302175
0.00304406
0.00306567
0.00308659
0.00310681
0.00312633
0.00314516
0.00316329
0.0031807
0.00319741
0.00321341
0.0032287
0.00324328
0.00325715
0.00327032
0.00328278
0.00329453
0.00330559
0.00331595
0.00332561
0.00333458
0.00334286
0.00335045
0.0033574
0.0033637
0.0033692
0.00337409
0.00337835
0.00338186
0.00338476
0.00338716
0.0033889
0.00339
0.00339048
0.00339032
0.00338954
0.00338814
0.00338614
0.00338354
0.00338037
0.00337664
0.00337233
0.00336743
0.00336196
0.00335592
0.00334929
0.00334211
0.00333435
0.00332605
0.00331722
0.00330788
0.00329806
0.00328778
0.00327708
0.00326597
0.00325449
0.00324266
0.00323048
0.00321799
0.00320518
0.00319209
0.00317874
0.00316515
0.00315135
0.00313738
0.00312324
0.00310894
0.00309448
0.00307981
0.00306488
0.00304952
0.00303347
0.00301595
0.00299501
0.00296548
7.09584e-09
5.7494e-07
7.31683e-06
3.04075e-05
6.3956e-05
9.77485e-05
0.000125869
0.000146525
0.000160539
0.000169034
0.000173351
0.000175148
0.000175197
0.000173896
0.000171584
0.00016844
0.000164448
0.000159521
0.000153762
0.00014728
0.00013994
0.000131339
0.000114229
9.76021e-05
8.37845e-05
7.40007e-05
7.06708e-05
7.49024e-05
8.38457e-05
0.000103714
0.000128816
0.000151669
0.000166649
0.000176413
0.000187323
0.000198094
0.000204674
0.000216261
0.000235164
0.000260104
0.000292551
0.000331491
0.000377076
0.000428665
0.000485267
0.00054571
0.000608501
0.00067321
0.000738903
0.000805336
0.000871938
0.00093843
0.00100434
0.00106932
0.00113381
0.00119736
0.0012598
0.00132107
0.00138115
0.00144004
0.00149776
0.00155432
0.00160978
0.00166419
0.00171761
0.00177009
0.0018217
0.00187249
0.00192251
0.0019718
0.0020204
0.00206834
0.00211562
0.00216226
0.00220825
0.00225359
0.00229827
0.00234228
0.00238562
0.00242828
0.00247023
0.00251149
0.00255204
0.00259189
0.00263103
0.00266946
0.00270718
0.0027442
0.00278052
0.00281613
0.00285104
0.00288525
0.00291876
0.00295156
0.00298366
0.00301506
0.00304574
0.00307569
0.00310492
0.00313344
0.00316127
0.0031884
0.00321482
0.00324052
0.00326551
0.00328978
0.00331331
0.00333612
0.00335818
0.00337951
0.0034001
0.00341993
0.00343902
0.00345737
0.00347496
0.00349181
0.00350792
0.00352328
0.0035379
0.00355178
0.00356493
0.00357735
0.00358904
0.00360001
0.00361026
0.00361979
0.00362861
0.00363674
0.00364422
0.00365098
0.00365698
0.00366235
0.00366706
0.003671
0.00367438
0.00367718
0.00367932
0.00368081
0.00368167
0.00368189
0.00368149
0.00368048
0.00367885
0.00367663
0.00367381
0.0036704
0.00366639
0.0036618
0.00365662
0.00365086
0.00364451
0.0036376
0.0036301
0.00362205
0.00361345
0.00360432
0.0035947
0.00358459
0.00357404
0.00356305
0.00355166
0.00353987
0.00352772
0.00351521
0.00350235
0.00348916
0.00347568
0.00346193
0.00344793
0.00343371
0.0034193
0.00340471
0.00338994
0.00337496
0.00335975
0.0033442
0.00332811
0.00331096
0.00329123
0.00326514
1.83996e-08
1.42702e-06
1.6255e-05
5.11373e-05
9.1472e-05
0.000125624
0.000151234
0.000168374
0.000179086
0.00018458
0.000186266
0.000185248
0.000182484
0.000178691
0.000174268
0.00016933
0.000163822
0.000157756
0.00015108
0.00014391
0.000136032
0.000124492
0.000112216
0.000104923
0.000101236
9.6532e-05
9.99294e-05
0.000114108
0.000133393
0.00015442
0.000174497
0.000191298
0.000203546
0.000212362
0.000221367
0.000232603
0.000249718
0.000271977
0.000301469
0.000337415
0.00038003
0.000428546
0.000482586
0.000541198
0.00060323
0.000667571
0.000733341
0.000800106
0.00086737
0.000934848
0.00100222
0.00106887
0.00113509
0.0012009
0.00126578
0.00132972
0.00139264
0.0014545
0.0015153
0.00157502
0.00163369
0.00169134
0.001748
0.00180371
0.00185853
0.00191249
0.00196565
0.00201804
0.00206972
0.00212071
0.00217105
0.00222076
0.00226985
0.00231831
0.00236611
0.00241324
0.00245969
0.00250544
0.00255047
0.00259477
0.00263831
0.0026811
0.00272312
0.00276438
0.0028049
0.0028447
0.00288376
0.00292206
0.00295959
0.00299637
0.0030324
0.00306768
0.00310222
0.00313601
0.00316908
0.00320141
0.003233
0.00326387
0.00329403
0.00332346
0.00335218
0.00338016
0.00340741
0.00343393
0.0034597
0.00348473
0.003509
0.00353252
0.00355528
0.00357728
0.00359851
0.00361898
0.00363868
0.00365761
0.00367577
0.00369317
0.00370981
0.00372569
0.00374081
0.00375518
0.00376881
0.00378169
0.00379384
0.00380526
0.00381595
0.00382591
0.00383517
0.00384373
0.00385166
0.00385881
0.00386527
0.00387108
0.00387622
0.00388062
0.00388448
0.00388771
0.00389031
0.00389226
0.0038936
0.00389432
0.00389443
0.00389394
0.00389285
0.00389118
0.00388893
0.00388609
0.00388269
0.00387871
0.00387416
0.00386903
0.00386334
0.00385708
0.00385025
0.00384286
0.00383492
0.00382646
0.00381749
0.00380804
0.00379811
0.00378774
0.00377693
0.00376572
0.0037541
0.00374208
0.00372969
0.00371695
0.00370386
0.00369047
0.00367679
0.00366286
0.0036487
0.00363432
0.00361974
0.00360495
0.00358995
0.00357466
0.00355897
0.00354239
0.00352374
0.00350057
4.08692e-08
3.29124e-06
2.93057e-05
7.47162e-05
0.000118762
0.000152189
0.000174144
0.000187934
0.000194513
0.00019571
0.000193406
0.000188962
0.000183303
0.000177003
0.000170327
0.000163147
0.000155833
0.000147836
0.000139898
0.000131741
0.000123205
0.000115314
0.000109819
0.000109053
0.000114662
0.000126091
0.000141724
0.000159113
0.000177125
0.000194307
0.000208859
0.000220146
0.000231833
0.00024471
0.000260852
0.00028105
0.000307496
0.000339941
0.000378786
0.000423387
0.000473449
0.000528308
0.000587315
0.000649504
0.000713887
0.000779651
0.000846239
0.0009133
0.000980521
0.00104743
0.00111382
0.00118021
0.00124584
0.00131075
0.00137479
0.0014379
0.00150006
0.00156123
0.00162142
0.00168063
0.00173888
0.00179619
0.00185263
0.00190823
0.00196304
0.00201712
0.00207048
0.00212312
0.00217513
0.00222656
0.00227742
0.00232773
0.0023775
0.00242676
0.00247557
0.00252388
0.0025715
0.00261837
0.00266447
0.00270978
0.00275427
0.00279792
0.00284074
0.00288272
0.00292387
0.00296416
0.00300362
0.00304231
0.00308024
0.00311742
0.00315387
0.00318958
0.00322457
0.00325884
0.00329238
0.00332521
0.00335733
0.00338874
0.00341943
0.0034494
0.00347864
0.00350715
0.00353492
0.00356194
0.00358822
0.00361375
0.00363851
0.00366252
0.00368576
0.00370823
0.00372993
0.00375085
0.003771
0.00379038
0.00380898
0.00382681
0.00384387
0.00386017
0.00387571
0.0038905
0.00390454
0.00391784
0.0039304
0.00394223
0.00395333
0.00396372
0.0039734
0.00398242
0.00399075
0.00399835
0.00400529
0.00401157
0.00401719
0.00402213
0.00402651
0.00403026
0.00403339
0.00403591
0.00403783
0.00403916
0.0040399
0.00404007
0.00403966
0.0040387
0.00403717
0.0040351
0.00403247
0.0040293
0.00402558
0.0040213
0.00401648
0.0040111
0.00400517
0.00399869
0.00399167
0.00398413
0.00397609
0.00396755
0.00395855
0.00394908
0.00393916
0.00392881
0.00391804
0.00390684
0.00389523
0.00388324
0.00387087
0.00385816
0.00384513
0.0038318
0.00381821
0.00380436
0.00379028
0.00377598
0.00376146
0.00374671
0.00373163
0.0037159
0.00369853
0.00367863
7.75715e-08
6.74063e-06
4.34589e-05
9.48718e-05
0.000140464
0.000172936
0.000193209
0.000202905
0.000205181
0.00020258
0.000196958
0.0001896
0.000181328
0.000172427
0.000163774
0.000154953
0.000146898
0.000139806
0.000134115
0.000129759
0.000127522
0.000128398
0.000132921
0.00014121
0.000152787
0.000166785
0.000182102
0.000197683
0.000212249
0.000224763
0.000237694
0.000252422
0.000268764
0.000288014
0.000311925
0.000341082
0.00037602
0.000416384
0.000461945
0.000512176
0.000566648
0.000624766
0.000685846
0.000749068
0.000813676
0.000879083
0.000944883
0.00101081
0.00107624
0.00114152
0.00120647
0.00127082
0.0013344
0.00139713
0.00145896
0.00151985
0.00157981
0.00163885
0.00169699
0.00175424
0.00181059
0.00186606
0.00192079
0.00197483
0.00202823
0.00208107
0.00213348
0.0021857
0.00223752
0.00228884
0.00233967
0.00239002
0.00243987
0.00248923
0.00253803
0.00258621
0.00263377
0.00268062
0.00272674
0.00277211
0.0028167
0.00286046
0.00290339
0.00294548
0.00298675
0.00302721
0.00306692
0.00310586
0.00314404
0.00318149
0.00321822
0.00325422
0.00328951
0.0033241
0.00335799
0.00339118
0.00342366
0.00345544
0.00348652
0.00351688
0.00354653
0.00357546
0.00360365
0.00363111
0.00365783
0.0036838
0.00370902
0.00373348
0.00375718
0.00378011
0.00380228
0.00382367
0.00384429
0.00386413
0.0038832
0.00390149
0.00391902
0.00393578
0.00395179
0.00396705
0.00398156
0.00399533
0.00400837
0.00402069
0.00403229
0.00404318
0.00405337
0.0040629
0.00407174
0.00407988
0.00408737
0.00409422
0.00410043
0.00410601
0.004111
0.00411538
0.00411916
0.00412235
0.00412497
0.00412703
0.00412853
0.00412948
0.00412988
0.00412976
0.0041291
0.00412793
0.00412623
0.00412401
0.00412127
0.00411801
0.00411422
0.00410989
0.00410502
0.00409962
0.0040937
0.00408727
0.00408034
0.00407292
0.00406503
0.00405667
0.00404786
0.00403859
0.00402887
0.00401871
0.00400812
0.0039971
0.00398568
0.00397388
0.00396172
0.00394923
0.00393643
0.00392334
0.00390997
0.00389636
0.00388253
0.00386847
0.00385414
0.00383932
0.00382314
0.00380602
1.23987e-07
1.16122e-05
5.96605e-05
0.000117226
0.00016252
0.000192893
0.000209185
0.000215032
0.000213883
0.00020837
0.000200424
0.000191075
0.000181658
0.000172594
0.000164534
0.000157594
0.000152089
0.000148858
0.000147666
0.000148733
0.00015233
0.000158525
0.000167153
0.000177864
0.000190154
0.000203495
0.000216807
0.000229281
0.000242319
0.000257639
0.000274852
0.000293589
0.000315914
0.000342443
0.000373803
0.000410053
0.000451069