/*--------------------------------*- C++ -*----------------------------------*\
  =========                 |
  \\      /  F ield         | OpenFOAM: The Open Source CFD Toolbox
   \\    /   O peration     | Website:  https://openfoam.org
    \\  /    A nd           | Version:  8
     \\/     M anipulation  |
\*---------------------------------------------------------------------------*/
FoamFile
{
    version     2.0;
    format      ascii;
    class       volScalarField;
    location    "1200";
    object      omega;
}
// * * * * * * * * * * * * * * * * * * * * * * * * * * * * * * * * * * * * * //

dimensions      [0 0 -1 0 0 0 0];

internalField   nonuniform List<scalar> 
12225
(
32582.3
40604.1
39354.3
38418.5
32582.3
44301.8
41985.6
32582.3
32582.3
32582.3
32582.3
32582.3
32582.3
44917.4
40112.7
32582.3
32582.3
32582.3
2555.29
9428.09
11250.6
14523.7
13944.6
15928.1
17292
15610.5
17473.5
15185.2
15298.2
15433.7
16679.6
18318.9
18017.9
17558.5
17214.6
17567.6
636.733
1239.41
2093.08
3109.55
3939.1
4640.4
5372.71
5776.8
6208.07
6627.39
6902.7
7167
7402.08
7640.59
7796.09
7873.2
7997.1
8079.7
462.439
510.233
646.043
790.615
960.181
1148.06
1322.99
1517.82
1685.83
1887.66
2005.91
2155.99
2243.74
2369.78
2439.56
2572.33
2638.7
2773.6
440.7
442.551
461.515
483.158
513.346
562.451
602.407
657.447
700.672
761.514
797.393
850.012
877.603
924.254
947.765
994.969
1018.17
1064.99
439.358
436.46
438.519
439.443
442.857
452.839
460.873
475.595
485.262
502.562
512.428
529.093
537.728
553.412
561.356
576.845
584.62
600.305
438.967
436.88
434.612
433.425
431.872
432.111
432.694
434.614
436.062
439.393
441.329
445.043
447.11
450.947
453.117
457.286
459.626
464.301
438.955
436.888
434.592
432.804
430.901
429.539
428.229
427.524
426.768
426.502
426.319
426.359
426.447
426.752
426.986
427.507
427.972
428.95
438.966
436.846
434.654
432.747
430.798
429.13
427.444
426.051
424.626
423.489
422.283
421.364
420.368
419.696
418.853
418.404
417.716
417.492
438.982
436.813
434.667
432.719
430.787
429.042
427.306
425.749
424.186
422.802
421.395
420.163
418.901
417.821
416.703
415.764
414.788
413.979
438.993
436.794
434.67
432.693
430.779
428.998
427.272
425.664
424.103
422.648
421.233
419.915
418.632
417.437
416.277
415.197
414.151
413.176
438.999
436.782
434.668
432.673
430.769
428.969
427.249
425.622
424.065
422.591
421.18
419.841
418.558
417.341
416.175
415.068
414.006
412.999
439
436.777
434.663
432.661
430.756
428.95
427.228
425.594
424.036
422.555
421.141
419.797
418.511
417.288
416.119
415.006
413.94
412.925
439.001
436.774
434.659
432.653
430.746
428.934
427.211
425.571
424.011
422.525
421.109
419.76
418.472
417.245
416.074
414.956
413.888
412.868
438.999
436.77
434.651
432.64
430.728
428.912
427.183
425.54
423.974
422.485
421.063
419.71
418.417
417.187
416.009
414.889
413.815
412.794
438.988
436.74
434.601
432.575
430.644
428.814
427.067
425.413
423.83
422.331
420.895
419.534
418.227
416.99
415.799
414.675
413.587
412.564
438.963
436.662
434.479
432.408
430.44
428.572
426.796
425.107
423.5
421.97
420.513
419.126
417.802
416.541
415.337
414.19
413.094
412.049
438.962
436.663
434.479
432.408
430.44
428.572
426.795
425.106
423.499
421.969
420.511
419.123
417.8
416.537
415.334
414.185
413.09
412.043
438.991
436.74
434.606
432.574
430.648
428.813
427.072
425.411
423.834
422.327
420.895
419.526
418.225
416.979
415.796
414.66
413.583
412.547
439
436.77
434.65
432.638
430.725
428.907
427.177
425.53
423.963
422.469
421.046
419.689
418.394
417.16
415.981
414.856
413.782
412.757
439.002
436.772
434.657
432.647
430.737
428.921
427.194
425.551
423.986
422.496
421.076
419.721
418.43
417.198
416.022
414.9
413.829
412.805
439.003
436.773
434.662
432.651
430.746
428.929
427.207
425.563
424.004
422.513
421.098
419.744
418.458
417.228
416.058
414.938
413.874
412.854
439.011
436.768
434.676
432.651
430.763
428.937
427.233
425.583
424.045
422.556
421.169
419.826
418.576
417.367
416.242
415.155
414.145
413.169
439.015
436.754
434.722
432.651
430.83
428.994
427.398
425.787
424.417
423.04
421.908
420.745
419.827
418.863
418.134
417.348
416.787
416.161
438.874
436.888
435.024
432.923
431.532
430.199
429.593
428.78
428.913
428.939
429.448
429.98
431.105
431.912
433.502
434.547
436.363
437.581
438.304
439.44
439.04
438.246
440.651
445.465
452.257
457.721
466.669
474.287
484.94
493.531
504.691
513.299
524.31
532.512
543.152
550.783
440.199
468.631
478.177
489.053
531.375
572.868
624.105
670.903
725.147
771.644
824.18
866.607
914.81
951.588
994.832
1025.99
1064.67
1090.87
432.069
692.717
782.601
971.156
1283.02
1581.81
1878.92
2137.95
2387.15
2595.34
2794.64
2954.53
3110.34
3229.88
3351.64
3439.9
3537.08
3603.28
3556.58
3086.16
4233.65
5701.12
6836.11
7751.61
8433.87
8942.6
9311.7
9577.21
9751.7
9872.5
9937.34
9977.85
9983.92
9980.09
9964.17
9944.79
16112.1
19422.9
21711.2
23283.4
24133.9
24584.2
24628.7
24567.4
24403.7
24159.2
23892.4
23623
23361.7
23115.3
22885.8
22676.1
22482.9
22309.7
11463.3
2494.65
2496.87
2499.12
2501.38
2503.67
2505.98
2508.3
2510.65
2513.02
2515.42
2517.83
2520.27
2522.73
2525.21
2527.72
2530.25
2532.8
2535.37
2537.97
2540.6
2543.25
2545.92
2548.62
2551.34
2554.09
2556.87
2559.67
2562.5
2565.35
2568.23
2571.14
2574.08
2577.04
2580.04
2583.06
2586.11
2589.19
2592.3
2595.43
2598.6
2601.8
2605.03
2608.29
2611.59
2614.91
2618.27
2621.66
2625.08
2628.54
2632.03
2635.55
2639.11
2642.71
2646.33
2650
3154.13
3275.38
3173.03
2665.03
3255.63
3319.11
3450.03
3267.37
3427.79
3498.52
3583.08
3658.43
3734.46
3806.04
3876.11
3944.35
4010.35
4075.31
4138.31
4200.31
4260.79
4320.22
4378.41
4435.55
4491.59
4546.62
4600.62
4653.64
4705.67
4756.74
4806.81
4855.9
4903.99
4951.07
4997.12
5042.11
5085.99
5128.75
5170.32
5210.68
5249.78
5287.61
5324.22
5359.75
5394.55
5428.71
5461.74
5493.9
5525.15
5555.46
5584.87
5613.31
5640.85
5667.41
5693.04
5717.69
5741.39
5764.1
5785.85
5806.61
5826.38
5845.18
5862.97
5879.79
5895.6
5910.44
5924.25
5937.1
5948.89
5959.71
5969.43
5978.08
5985.59
5993.11
5999.94
6004.78
6009.31
6012.37
6015.15
6017.37
6018.83
6019.08
6017.51
6015.39
6012.12
6008.11
6003.22
5997.57
5991.14
5983.97
5976.05
5967.39
5958.03
5947.91
5937.14
5925.75
5913.68
5901.19
5888.06
5874.65
5860.78
5846.67
5832.25
5817.6
5802.87
5788.06
5773.25
5758.44
5743.71
5729.06
5714.6
5700.36
5686.44
5672.85
5659.66
5646.8
5634.22
5621.73
5608.95
5595.2
5579.49
5559.26
5529.78
5415.05
11463.3
1992.74
992.071
803.289
684.533
618.571
625.065
620.805
609.075
586.381
562.397
538.881
517.551
500.067
488.187
479.908
480.446
479.269
515.569
561.814
645.077
745.755
855.152
963.615
1060.4
1135.28
1175.94
1169.37
1125.88
1046.14
922.108
768.364
640.019
559.212
493.904
457.486
451.141
458.564
479.198
512.012
541.619
584.125
661.471
784.895
965.882
1262.05
1576.71
1804.24
1950
2028.63
2053.36
2051.18
2009.07
1967.51
1914.1
1865.96
1852.72
1788.08
1745.24
1691.95
1707.8
1671.57
1668.04
1651.13
1647.86
1645.03
1644.35
1645.8
1648.93
1653.01
1658.07
1663.93
1670.25
1677.15
1684.28
1691.75
1699.33
1707.09
1714.9
1722.76
1730.62
1738.46
1746.25
1753.98
1761.61
1769.13
1776.51
1783.75
1790.83
1797.74
1804.47
1811
1817.34
1823.48
1829.46
1835.3
1841.1
1846.98
1853.16
1859.96
1867.83
1876.42
1884.38
1892.35
1900.01
1907.51
1914.77
1921.83
1928.67
1935.3
1941.71
1947.9
1953.87
1959.62
1965.15
1970.46
1975.55
1980.42
1985.06
1989.49
1993.69
1997.67
2001.43
2004.98
2008.3
2011.41
2014.31
2017.01
2019.55
2021.96
2024.14
2026.08
2027.88
2029.48
2030.99
2032.31
2033.3
2033.66
2033.25
2032.55
2031.64
2030.53
2029.23
2027.74
2026.06
2024.2
2022.17
2019.98
2017.6
2014.93
2012.42
2009.12
2006.53
2002.95
2000.02
1996.44
1993.1
1989.47
1985.88
1982.15
1978.43
1974.63
1970.85
1967.03
1963.23
1959.43
1955.66
1951.94
1948.27
1944.68
1941.18
1937.78
1934.49
1931.32
1928.35
1925.66
1923.31
1921.81
1920.24
1928.8
11463.3
2006.89
813.087
638.26
675.691
675.276
646.962
591.519
532.061
476.392
427.138
385.851
353.407
327.985
308.429
293.433
283.041
274.873
273.495
275.868
286.669
305.249
337.512
381.187
436.007
495.791
556.782
603.252
633.874
631.817
609.69
568.686
506.904
438.037
387.673
378.423
388.176
410.682
444.846
511.911
617.324
762.552
951.696
1129.38
1276.79
1405.52
1514.25
1542.86
1545.42
1505.02
1452.64
1393.38
1335.11
1284.06
1237.31
1199.32
1172.1
1144.57
1126.79
1110.4
1104.9
1095.48
1095.02
1088.83
1088.62
1088.14
1089.2
1090.89
1093.25
1096.05
1099.25
1102.76
1106.48
1110.41
1114.47
1118.64
1122.88
1127.19
1131.52
1135.88
1140.24
1144.6
1148.94
1153.25
1157.52
1161.75
1165.93
1170.06
1174.13
1178.14
1182.1
1186
1189.86
1193.69
1197.51
1201.35
1205.23
1209.21
1213.33
1217.6
1222
1226.33
1230.49
1234.57
1238.52
1242.36
1246.08
1249.67
1253.14
1256.49
1259.72
1262.82
1265.79
1268.63
1271.35
1273.93
1276.39
1278.71
1280.91
1282.97
1284.9
1286.7
1288.37
1289.91
1291.31
1292.59
1293.75
1294.78
1295.7
1296.5
1297.18
1297.72
1298.15
1298.46
1298.65
1298.69
1298.54
1298.15
1297.52
1296.78
1295.91
1294.94
1293.84
1292.64
1291.33
1289.91
1288.38
1286.75
1285.01
1283.13
1281.28
1279.13
1277.18
1274.87
1272.73
1270.36
1268.03
1265.58
1263.12
1260.59
1258.04
1255.45
1252.84
1250.22
1247.58
1244.95
1242.31
1239.69
1237.09
1234.52
1232
1229.53
1227.15
1224.89
1222.83
1221.08
1219.8
1219.61
1220.86
1230.82
11463.3
2039.88
1012.78
971.256
893.946
765.634
649.409
543.346
459.758
397.544
350.857
314.355
285.976
264.211
247.579
234.944
225.481
218.629
214.11
212.566
213.646
216.757
225.129
239.274
260.714
289.008
323.448
358.209
389.632
412.644
418.836
412.464
390.592
389.624
424.66
510.785
575.442
629.553
696.676
792.118
922.242
1043.74
1123.04
1190.62
1249.4
1271.5
1250.16
1200.86
1160.92
1106.89
1061.8
1019.29
984.244
954.941
930.929
912.263
898.328
886.994
879.474
873.703
870.762
868.5
868.272
867.515
868.515
869.803
871.681
873.907
876.449
879.23
882.211
885.348
888.611
891.976
895.419
898.926
902.479
906.068
909.681
913.308
916.942
920.575
924.2
927.812
931.406
934.977
938.523
942.042
945.533
948.997
952.435
955.848
959.242
962.624
966.001
969.381
972.77
976.174
979.589
983
986.368
989.649
992.834
995.934
998.938
1001.85
1004.66
1007.38
1009.99
1012.51
1014.92
1017.23
1019.44
1021.54
1023.53
1025.42
1027.19
1028.86
1030.42
1031.86
1033.2
1034.42
1035.53
1036.53
1037.42
1038.2
1038.87
1039.44
1039.89
1040.24
1040.48
1040.62
1040.64
1040.56
1040.35
1040.02
1039.55
1038.93
1038.18
1037.32
1036.36
1035.3
1034.15
1032.89
1031.55
1030.11
1028.57
1026.95
1025.24
1023.43
1021.58
1019.6
1017.63
1015.51
1013.4
1011.18
1008.94
1006.63
1004.28
1001.89
999.473
997.021
994.548
992.055
989.551
987.038
984.522
982.009
979.507
977.025
974.575
972.172
969.844
967.628
965.586
963.82
962.474
962.055
963.018
969.13
11463.3
2320.12
1461.48
1174.25
931.428
719.643
554.31
443.984
368.958
316.718
279.603
253.24
234.143
219.724
208.483
199.67
192.936
187.993
184.659
183.003
183.178
184.441
188.303
195.007
205.695
221.271
242.073
265.604
289.511
308.632
323.648
352.09
406.8
507.292
595.962
662.561
729.506
803.372
875.484
939.721
995.388
1043.25
1078.66
1089.33
1066.93
1018.46
985.665
942.101
906.912
871.687
844.154
819.935
800.755
785.223
773.112
764.032
757.502
752.847
750.012
748.671
748.272
748.446
749.629
751.065
753.131
755.476
758.116
760.968
764
767.174
770.467
773.856
777.324
780.857
784.441
788.068
791.726
795.409
799.107
802.816
806.528
810.237
813.94
817.632
821.309
824.967
828.604
832.218
835.809
839.374
842.914
846.428
849.918
853.384
856.827
860.246
863.639
866.998
870.312
873.572
876.76
879.865
882.883
885.817
888.66
891.412
894.07
896.632
899.097
901.463
903.73
905.894
907.956
909.912
911.763
913.506
915.141
916.666
918.082
919.386
920.579
921.659
922.628
923.485
924.23
924.863
925.384
925.794
926.092
926.279
926.352
926.333
926.188
925.926
925.545
925.044
924.417
923.665
922.796
921.822
920.746
919.569
918.293
916.918
915.447
913.884
912.228
910.482
908.647
906.726
904.737
902.655
900.525
898.307
896.042
893.706
891.321
888.882
886.398
883.872
881.312
878.72
876.105
873.47
870.821
868.16
865.494
862.828
860.169
857.527
854.917
852.358
849.869
847.481
845.246
843.247
841.603
840.671
840.904
843.976
11463.3
2922.61
1718.44
1196.21
824.111
580.846
438.564
350.742
296.032
260.573
236.204
218.531
205.117
194.672
186.321
179.622
174.393
170.534
167.982
166.841
167.112
168.429
171.627
176.781
184.477
195.958
212.166
233.2
260.428
300.387
355.139
442.81
551.018
640.594
707.131
768.26
820.904
861.839
896.648
929.838
951.22
956.188
931.811
900.323
870.228
835.553
807.095
778.008
754.837
734.124
717.735
704.061
693.419
685.202
679.176
675.032
672.676
671.565
671.324
671.978
673.366
675.279
677.697
680.414
683.448
686.693
690.118
693.686
697.37
701.15
705.01
708.936
712.918
716.947
721.012
725.108
729.226
733.36
737.503
741.649
745.793
749.93
754.056
758.166
762.256
766.324
770.367
774.381
778.364
782.315
786.231
790.111
793.952
797.754
801.514
805.227
808.89
812.493
816.027
819.487
822.865
826.156
829.357
832.466
835.479
838.394
841.209
843.921
846.528
849.028
851.419
853.703
855.874
857.932
859.876
861.703
863.413
865.005
866.476
867.827
869.057
870.165
871.152
872.016
872.759
873.379
873.877
874.252
874.503
874.622
874.641
874.541
874.306
873.945
873.458
872.844
872.103
871.237
870.25
869.149
867.937
866.614
865.182
863.642
861.998
860.256
858.412
856.471
854.434
852.306
850.096
847.8
845.432
842.985
840.471
837.89
835.251
832.556
829.812
827.023
824.196
821.336
818.451
815.544
812.62
809.684
806.742
803.798
800.861
797.941
795.05
792.204
789.424
786.737
784.184
781.832
779.774
778.255
777.6
778.613
11463.3
3417.04
1760.93
1024.9
643.186
451.986
355.035
300.236
265.115
240.266
221.561
207.016
195.349
185.736
177.771
171.267
166.153
162.419
160.173
159.523
160.305
162.732
167.327
174.447
184.952
199.161
220.22
253.111
304.52
385.137
489.934
581.873
650.498
709.37
756.396
791.832
819.977
843.467
854.073
854.495
834.239
811.375
786.394
760.914
736.525
712.801
692.644
674.471
659.759
647.341
637.513
629.751
623.985
619.929
617.55
616.522
616.371
617.188
618.776
621.007
623.756
626.916
630.417
634.168
638.135
642.265
646.529
650.901
655.362
659.896
664.493
669.141
673.834
678.562
683.319
688.099
692.892
697.694
702.497
707.296
712.084
716.857
721.61
726.338
731.038
735.706
740.339
744.932
749.482
753.987
758.444
762.848
767.199
771.492
775.724
779.891
783.99
788.016
791.965
795.829
799.599
803.271
806.842
810.308
813.667
816.915
820.05
823.069
825.969
828.748
831.401
833.924
836.319
838.587
840.724
842.732
844.607
846.349
847.957
849.43
850.767
851.968
853.033
853.961
854.754
855.41
855.929
856.313
856.552
856.648
856.64
856.485
856.187
855.751
855.178
854.467
853.62
852.638
851.526
850.288
848.926
847.441
845.836
844.11
842.262
840.291
838.208
836.016
833.719
831.32
828.826
826.241
823.57
820.815
817.983
815.077
812.107
809.075
805.99
802.856
799.681
796.47
793.23
789.968
786.688
783.394
780.093
776.792
773.498
770.221
766.973
763.769
760.628
757.572
754.636
751.872
749.349
747.243
745.707
745.179
11463.3
3558.08
1549.81
808.406
511.257
378.366
309.834
270.192
244.754
226.923
213.139
201.48
191.316
182.537
175.088
169.026
164.523
161.749
160.645
161.13
163.391
168.013
175.525
187.658
206.95
236.05
280.453
349.63
436.247
518.352
583.491
638.505
684.674
721.574
751.053
771.358
779.319
774.829
758.996
741.864
721.699
702.11
682.653
663.856
646.274
630.354
616.83
605.289
595.937
588.404
582.654
578.482
575.847
574.638
574.375
575.091
576.684
579.023
581.981
585.454
589.351
593.591
598.111
602.852
607.774
612.841
618.025
623.307
628.667
634.093
639.573
645.098
650.66
656.251
661.865
667.494
673.129
678.762
684.388
689.997
695.585
701.146
706.674
712.165
717.614
723.019
728.374
733.674
738.916
744.094
749.207
754.25
759.22
764.112
768.925
773.653
778.293
782.845
787.302
791.654
795.893
800.017
804.02
807.901
811.657
815.283
818.779
822.14
825.364
828.448
831.391
834.191
836.847
839.357
841.719
843.934
845.999
847.914
849.677
851.287
852.743
854.047
855.197
856.192
857.035
857.723
858.258
858.64
858.854
858.923
858.856
858.628
858.244
857.706
857.015
856.173
855.18
854.04
852.755
851.328
849.763
848.061
846.225
844.256
842.155
839.931
837.583
835.114
832.53
829.834
827.032
824.13
821.132
818.042
814.866
811.611
808.284
804.892
801.441
797.937
794.388
790.8
787.182
783.539
779.877
776.2
772.516
768.832
765.157
761.499
757.872
754.288
750.765
747.323
743.989
740.807
737.826
735.149
732.841
731.03
11463.3
3385.51
1272.49
655.517
438.601
344.118
293.2
262.449
241.297
225.357
212.702
202.222
193.286
185.62
179.248
174.391
171.363
170.34
171.571
175.095
181.735
192.82
209.662
236.244
277.913
335.199
402.351
466.147
523.251
572.831
615.164
650.581
680.797
703.155
711.921
710.476
698.272
684.94
668.924
653.476
638.08
623.428
609.211
595.761
583.505
572.786
563.783
556.372
550.535
546.139
543.101
541.518
541.008
541.405
542.78
544.994
547.946
551.537
555.672
560.268
565.249
570.55
576.116
581.896
587.853
593.956
600.178
606.5
612.902
619.368
625.884
632.44
639.024
645.627
652.244
658.869
665.488
672.093
678.676
685.228
691.743
698.214
704.637
711.004
717.308
723.537
729.695
735.783
741.796
747.732
753.585
759.351
765.026
770.606
776.085
781.46
786.724
791.873
796.899
801.797
806.563
811.192
815.681
820.027
824.227
828.277
832.175
835.918
839.503
842.928
846.191
849.289
852.222
854.988
857.587
860.017
862.277
864.367
866.284
868.029
869.601
870.999
872.223
873.274
874.152
874.857
875.389
875.746
875.915
875.931
875.778
875.45
874.949
874.277
873.435
872.425
871.248
869.907
868.406
866.746
864.931
862.964
860.848
858.584
856.177
853.631
850.948
848.132
845.187
842.118
838.931
835.634
832.23
828.724
825.125
821.44
817.676
813.842
809.944
805.99
801.986
797.941
793.864
789.76
785.635
781.495
777.349
773.206
769.072
764.959
760.878
756.842
752.867
748.969
745.173
741.512
738.025
734.802
731.847
729.032
11463.3
2963.01
1027.89
556.495
395.542
323.554
285.157
260.073
242.869
230.224
220.075
211.499
204.213
198.304
194.104
192.294
192.94
196.967
204.362
215.575
232.598
257.418
291.634
334.414
381.364
429.477
475.346
516.823
553.855
585.597
613.455
637.759
649.773
651.889
645.631
636.152
623.712
611.501
599.367
587.955
576.906
566.27
556.045
546.54
538.076
530.856
524.946
520.313
516.923
514.832
513.966
513.926
514.933
516.838
519.586
523.089
527.266
532.036
537.324
543.059
549.181
555.63
562.351
569.297
576.431
583.717
591.133
598.669
606.288
613.968
621.693
629.446
637.211
644.966
652.679
660.346
667.996
675.626
683.227
690.787
698.3
705.758
713.156
720.488
727.749
734.939
742.05
749.062
755.971
762.77
769.456
776.024
782.471
788.792
794.983
801.038
806.953
812.722
818.343
823.811
829.123
834.274
839.259
844.077
848.722
853.195
857.491
861.607
865.543
869.294
872.859
876.235
879.422
882.419
885.226
887.841
890.265
892.495
894.532
896.374
898.022
899.474
900.732
901.796
902.665
903.34
903.823
904.103
904.19
904.095
903.809
903.331
902.662
901.804
900.757
899.525
898.108
896.511
894.735
892.785
890.663
888.373
885.918
883.301
880.527
877.599
874.52
871.297
867.931
864.429
860.798
857.045
853.175
849.195
845.113
840.939
836.682
832.349
827.949
823.488
818.975
814.418
809.825
805.204
800.562
795.906
791.246
786.59
781.948
777.33
772.746
768.209
763.734
759.336
755.034
750.858
746.834
743.033
739.432
735.687
11463.3
2488.55
883.836
515.655
381.9
320.073
286.021
265.838
252.43
242.587
234.866
228.774
224.399
222.443
222.791
226.804
234.597
245.456
259.609
279.199
304.563
334.91
368.684
403.781
438.43
471.546
502.232
529.427
554.021
576.981
591.776
596.686
595.843
590.946
582.879
573.846
564.545
555.773
547.365
539.3
531.414
523.758
516.485
509.864
504.126
499.412
495.776
493.215
491.894
491.525
492.089
493.602
496.033
499.318
503.4
508.203
513.659
519.697
526.254
533.269
540.698
548.492
556.574
564.899
573.425
582.107
590.893
599.697
608.563
617.5
626.49
635.515
644.55
653.575
662.585
671.569
680.507
689.4
698.227
706.978
715.646
724.228
732.718
741.111
749.4
757.576
765.626
773.546
781.33
788.973
796.472
803.823
811.022
818.065
824.947
831.663
838.208
844.579
850.773
856.786
862.613
868.25
873.693
878.938
883.983
888.826
893.466
897.9
902.125
906.14
909.943
913.531
916.904
920.062
923.005
925.733
928.246
930.542
932.623
934.487
936.135
937.566
938.78
939.779
940.563
941.132
941.485
941.619
941.543
941.259
940.766
940.062
939.15
938.031
936.706
935.177
933.448
931.521
929.399
927.087
924.587
921.903
919.04
916
912.79
909.412
905.872
902.175
898.324
894.325
890.187
885.915
881.517
877.003
872.381
867.661
862.853
857.967
853.01
847.989
842.913
837.79
832.63
827.441
822.23
817.007
811.784
806.568
801.371
796.201
791.069
785.987
780.968
776.027
771.181
766.454
761.866
757.475
753.249
748.659
11463.3
2068.77
776.415
480.7
372.97
320.905
293.581
277.542
267.255
260.241
255.418
252.9
252.349
254.523
260.108
269.153
281.161
295.861
313.953
335.303
359.112
384.41
410.197
435.58
459.842
482.122
503.024
522.992
538.338
545.718
547.652
547.337
543.693
538.339
532.13
525.856
519.741
513.878
508.143
502.485
496.903
491.518
486.523
482.139
478.543
475.846
474.217
473.606
473.856
475.098
477.267
480.341
484.291
489.083
494.712
501.056
508.047
515.626
523.724
532.264
541.132
550.26
559.705
569.443
579.433
589.635
600.012
610.56
621.213
631.917
642.637
653.351
664.027
674.619
685.107
695.476
705.712
715.802
725.764
735.608
745.338
754.954
764.456
773.839
783.092
792.204
801.161
809.952
818.569
827.01
835.271
843.35
851.242
858.943
866.447
873.75
880.846
887.735
894.413
900.876
907.121
913.143
918.938
924.502
929.835
934.935
939.801
944.432
948.827
952.984
956.901
960.578
964.013
967.208
970.163
972.878
975.356
977.595
979.597
981.361
982.888
984.178
985.231
986.048
986.631
986.977
987.093
986.97
986.618
986.039
985.234
984.202
982.945
981.465
979.763
977.842
975.706
973.357
970.798
968.035
965.071
961.909
958.554
955.012
951.286
947.382
943.305
939.06
934.653
930.089
925.376
920.52
915.531
910.421
905.2
899.878
894.465
888.97
883.402
877.77
872.079
866.342
860.564
854.756
848.929
843.094
837.262
831.443
825.648
819.884
814.162
808.495
802.893
797.37
791.944
786.635
781.459
776.462
771.623
766.248
11463.3
1939.06
763.843
479.285
375.638
329.428
305.927
292.824
285.084
280.764
279.017
278.974
281.602
287.026
295.19
305.849
318.692
333.721
350.635
368.841
387.728
406.696
425.168
442.778
459.83
476.6
490.594
499.406
503.722
505.228
505.343
503.715
500.782
497.248
493.479
489.689
485.912
482.142
478.354
474.584
470.928
467.54
464.598
462.281
460.829
460.283
460.596
462
464.339
467.589
471.727
476.725
482.537
489.075
496.15
503.938
512.437
521.595
531.354
541.655
552.462
563.738
575.392
587.371
599.625
612.103
624.744
637.509
650.34
663.125
675.792
688.276
700.535
712.56
724.34
735.87
747.155
758.218
769.095
779.821
790.406
800.86
811.192
821.396
831.458
841.355
851.061
860.565
869.857
878.934
887.795
896.438
904.856
913.045
920.999
928.712
936.18
943.402
950.377
957.102
963.572
969.785
975.735
981.422
986.842
991.999
996.891
1001.52
1005.88
1009.98
1013.82
1017.38
1020.69
1023.72
1026.5
1029.01
1031.27
1033.27
1035.01
1036.5
1037.73
1038.71
1039.43
1039.9
1040.12
1040.09
1039.81
1039.28
1038.5
1037.49
1036.23
1034.73
1033
1031.03
1028.83
1026.39
1023.73
1020.85
1017.74
1014.42
1010.89
1007.15
1003.2
999.063
994.73
990.212
985.513
980.64
975.599
970.396
965.037
959.527
953.882
948.115
942.236
936.256
930.183
924.027
917.797
911.502
905.149
898.748
892.305
885.834
879.347
872.858
866.378
859.918
853.486
847.092
840.744
834.454
828.233
822.096
816.059
810.142
804.355
798.739
793.292
787.177
11463.3
1880.72
741.039
477.351
383.137
341.203
320.544
309.556
303.673
301.063
300.493
302.255
306.598
313.166
321.684
331.844
343.379
356.041
369.48
383.292
397.074
410.682
424.268
437.649
449.237
457.412
463.174
467.034
469.169
470.035
470.208
469.581
468.372
466.863
465.181
463.391
461.527
459.629
457.77
456.086
454.797
454.026
453.781
454.183
455.395
457.402
460.135
463.428
467.532
472.582
478.594
485.553
493.429
502.196
511.898
522.439
533.79
545.88
558.631
571.974
585.847
600.176
614.862
629.824
645.011
660.365
675.729
690.977
705.991
720.72
735.098
749.064
762.58
775.63
788.214
800.339
812.052
823.423
834.555
845.561
856.436
867.199
877.885
888.483
898.955
909.257
919.336
929.18
938.783
948.144
957.26
966.123
974.728
983.068
991.136
998.925
1006.43
1013.66
1020.6
1027.25
1033.62
1039.7
1045.48
1050.97
1056.16
1061.06
1065.66
1069.98
1074.01
1077.75
1081.21
1084.38
1087.26
1089.86
1092.19
1094.24
1096.02
1097.54
1098.78
1099.74
1100.44
1100.88
1101.03
1100.93
1100.57
1099.94
1099.05
1097.92
1096.53
1094.89
1093.01
1090.88
1088.5
1085.88
1083.02
1079.92
1076.59
1073.03
1069.24
1065.24
1061.01
1056.58
1051.93
1047.09
1042.05
1036.82
1031.4
1025.81
1020.05
1014.13
1008.05
1001.81
995.447
988.964
982.371
975.677
968.89
962.021
955.078
948.072
941.01
933.903
926.751
919.576
912.394
905.216
898.055
890.92
883.82
876.762
869.758
862.813
855.944
849.165
842.494
835.947
829.534
823.285
817.235
810.415
11463.3
1847.01
738.765
483.674
394.04
354.542
335.153
324.954
319.711
317.564
317.257
319.469
323.925
330.094
337.564
346.008
355.218
364.978
375.052
385.243
395.71
405.884
414.657
421.89
427.817
432.917
436.97
440.15
442.665
444.702
446.439
447.968
449.256
450.324
451.229
452.028
452.778
453.54
454.369
455.287
456.187
457.44
459.384
462.259
466.169
471.028
476.845
483.729
491.658
500.644
510.708
521.823
533.945
547.04
561.1
576.054
591.949
608.59
625.818
643.514
661.566
679.859
698.27
716.674
734.929
752.893
770.51
787.68
804.292
820.245
835.446
849.837
863.412
876.213
888.283
899.612
910.315
920.537
930.501
940.624
950.689
960.73
970.878
981.072
991.21
1001.21
1011.03
1020.63
1029.99
1039.09
1047.92
1056.49
1064.77
1072.76
1080.46
1087.84
1094.91
1101.66
1108.1
1114.23
1120.05
1125.54
1130.71
1135.56
1140.09
1144.29
1148.19
1151.77
1155.05
1158.03
1160.71
1163.09
1165.16
1166.95
1168.44
1169.66
1170.61
1171.29
1171.68
1171.78
1171.63
1171.2
1170.49
1169.51
1168.27
1166.76
1165
1162.99
1160.73
1158.22
1155.47
1152.46
1149.22
1145.73
1142
1138.03
1133.83
1129.4
1124.75
1119.88
1114.8
1109.5
1104
1098.3
1092.41
1086.32
1080.06
1073.62
1067.02
1060.26
1053.36
1046.34
1039.2
1031.95
1024.58
1017.12
1009.57
1001.94
994.236
986.472
978.658
970.805
962.909
955.001
947.095
939.203
931.334
923.498
915.704
907.958
900.272
892.649
885.11
877.673
870.352
863.164
856.114
849.224
842.573
835.081
11463.3
1824.6
738.284
491.77
403.756
365.313
346.668
336.479
331.022
328.712
328.265
330.071
333.826
338.933
344.979
351.707
359.001
366.759
374.784
382.558
389.984
396.979
403.801
410.165
416.162
421.868
427.259
432.366
437.177
441.652
445.729
449.208
452.365
455.432
458.497
461.635
464.927
468.459
472.322
476.635
481.621
487.421
494.231
502.322
511.64
521.973
533.366
545.88
559.502
574.237
590.19
607.283
625.328
644.196
663.773
683.92
704.421
725.224
746.237
767.337
788.399
809.293
829.902
850.111
869.813
888.914
907.341
925.023
941.884
957.837
972.748
986.55
999.343
1011.28
1022.46
1032.98
1042.86
1052.12
1060.86
1069.28
1077.44
1085.61
1094.34
1103.32
1112.31
1121.19
1129.93
1138.46
1146.74
1154.76
1162.51
1169.98
1177.17
1184.05
1190.62
1196.87
1202.77
1208.35
1213.59
1218.52
1223.11
1227.38
1231.3
1234.89
1238.15
1241.07
1243.68
1245.98
1247.97
1249.65
1251.05
1252.14
1252.93
1253.43
1253.64
1253.57
1253.28
1252.7
1251.85
1250.73
1249.36
1247.73
1245.83
1243.68
1241.28
1238.63
1235.74
1232.61
1229.25
1225.64
1221.8
1217.73
1213.42
1208.88
1204.11
1199.11
1193.9
1188.47
1182.83
1176.98
1170.93
1164.67
1158.22
1151.58
1144.75
1137.75
1130.57
1123.22
1115.72
1108.07
1100.28
1092.4
1084.4
1076.29
1068.08
1059.78
1051.38
1042.91
1034.37
1025.78
1017.15
1008.49
999.828
991.173
982.531
973.909
965.316
956.76
948.252
939.802
931.42
923.107
914.892
906.79
898.816
890.982
883.293
875.76
868.512
860.385
11463.3
1812.68
741.013
496.964
410.128
372.734
354.286
343.911
338.264
335.803
335.247
336.787
340.194
344.925
350.578
356.921
363.785
371.001
378.481
386.338
394.214
401.946
409.68
417.358
425.037
432.755
440.526
448.377
456.216
463.993
471.78
479.71
487.834
496.213
504.932
514.078
523.744
534.026
545.018
556.821
569.559
583.248
597.871
613.295
629.469
646.516
664.477
683.408
703.31
724.042
745.4
767.436
790.107
813.177
836.469
859.826
883.08
906.106
928.776
950.957
972.539
993.428
1013.55
1032.85
1051.27
1068.77
1085.33
1100.95
1115.64
1129.4
1142.28
1154.31
1165.31
1175.57
1185.25
1194.48
1203.21
1211.3
1218.74
1225.35
1231.65
1238.09
1244.91
1251.76
1258.5
1265.08
1271.46
1277.62
1283.55
1289.23
1294.67
1299.87
1304.8
1309.46
1313.83
1317.88
1321.63
1325.06
1328.2
1331.05
1333.6
1335.83
1337.76
1339.37
1340.68
1341.69
1342.42
1342.88
1343.04
1342.94
1342.62
1342
1341.12
1339.98
1338.59
1336.97
1335.14
1333.06
1330.76
1328.22
1325.46
1322.47
1319.26
1315.82
1312.17
1308.3
1304.22
1299.93
1295.43
1290.72
1285.79
1280.66
1275.32
1269.77
1264.01
1258.05
1251.9
1245.55
1239.01
1232.28
1225.36
1218.26
1210.98
1203.52
1195.88
1188.08
1180.11
1171.99
1163.72
1155.3
1146.74
1138.06
1129.26
1120.35
1111.33
1102.22
1093.02
1083.75
1074.42
1065.03
1055.61
1046.16
1036.73
1027.32
1017.91
1008.54
999.192
989.888
980.639
971.456
962.352
953.356
944.476
935.722
927.102
918.63
910.31
902.145
894.307
885.592
11463.3
1803.25
743.283
500.06
413.439
378.11
360.217
350.476
346.171
344.658
345.067
347.934
352.493
358.334
365.386
373.831
383.029
392.603
403.087
414.705
427.057
439.654
452.895
466.803
481.374
496.577
512.399
528.8
545.789
563.403
581.673
600.629
620.208
640.374
661.152
682.582
704.737
727.738
751.569
776.116
801.232
826.744
852.487
878.247
903.932
929.566
955.204
981.069
1007.43
1033.58
1059.13
1083.77
1107.46
1130.29
1152.25
1173.32
1193.42
1212.49
1230.49
1247.4
1263.21
1277.92
1291.53
1304.07
1315.52
1325.9
1335.22
1343.58
1351.05
1357.71
1363.8
1369.56
1375.04
1380.2
1384.97
1389.36
1393.37
1396.78
1399.89
1402.95
1406.46
1410.23
1413.56
1416.54
1419.24
1421.74
1424.11
1426.35
1428.47
1430.46
1432.31
1434
1435.5
1436.81
1437.91
1438.79
1439.45
1439.89
1440.13
1440.15
1439.95
1439.48
1438.78
1437.86
1436.71
1435.34
1433.77
1432
1430.02
1427.84
1425.47
1422.9
1420.13
1417.18
1414.05
1410.74
1407.27
1403.63
1399.81
1395.81