/*--------------------------------*- C++ -*----------------------------------*\
  =========                 |
  \\      /  F ield         | OpenFOAM: The Open Source CFD Toolbox
   \\    /   O peration     | Website:  https://openfoam.org
    \\  /    A nd           | Version:  8
     \\/     M anipulation  |
\*---------------------------------------------------------------------------*/
FoamFile
{
    version     2.0;
    format      ascii;
    class       volScalarField;
    location    "1200";
    object      p;
}
// * * * * * * * * * * * * * * * * * * * * * * * * * * * * * * * * * * * * * //

dimensions      [0 2 -2 0 0 0 0];

internalField   nonuniform List<scalar> 
12225
(
-4.23928
-5.12039
-5.51727
-5.65437
-5.79302
-5.94864
-6.08
-6.17904
-6.26369
-6.3417
-6.4123
-6.4788
-6.54416
-6.60323
-6.66032
-6.72341
-6.80142
-6.89064
-4.5045
-5.14152
-5.47679
-5.61556
-5.75394
-5.90635
-6.03784
-6.14384
-6.23607
-6.31761
-6.39077
-6.45537
-6.51451
-6.5741
-6.63543
-6.70121
-6.77149
-6.83046
-4.70533
-5.13543
-5.45854
-5.62403
-5.76622
-5.91338
-6.04254
-6.14874
-6.23948
-6.3186
-6.38882
-6.45129
-6.50963
-6.56833
-6.62804
-6.68918
-6.74907
-6.79501
-4.85137
-5.16262
-5.46945
-5.64173
-5.77449
-5.90992
-6.03326
-6.13661
-6.22491
-6.30269
-6.37256
-6.4358
-6.49513
-6.55369
-6.61195
-6.66918
-6.72276
-6.7648
-4.97817
-5.21192
-5.48507
-5.65424
-5.78053
-5.90835
-6.02786
-6.12944
-6.2165
-6.29372
-6.36355
-6.4271
-6.48646
-6.54386
-6.59965
-6.65283
-6.70147
-6.74075
-5.09553
-5.2682
-5.50087
-5.66473
-5.78795
-5.90919
-6.02376
-6.1227
-6.20806
-6.2842
-6.35337
-6.41655
-6.47529
-6.53121
-6.58458
-6.63458
-6.67977
-6.7173
-5.2027
-5.32815
-5.52187
-5.67711
-5.79653
-5.91044
-6.01903
-6.11489
-6.19855
-6.27359
-6.34199
-6.40466
-6.46273
-6.51735
-6.56875
-6.61632
-6.65907
-6.69549
-5.2851
-5.38118
-5.54501
-5.68973
-5.80468
-5.91238
-6.01564
-6.10851
-6.19048
-6.26429
-6.33176
-6.39373
-6.45102
-6.50449
-6.55432
-6.60012
-6.64126
-6.67677
-5.3523
-5.42865
-5.56829
-5.70217
-5.81257
-5.91493
-6.01334
-6.10325
-6.18349
-6.25603
-6.3225
-6.38365
-6.44014
-6.49255
-6.54108
-6.5855
-6.62543
-6.66029
-5.41921
-5.47943
-5.59605
-5.71737
-5.82211
-5.91881
-6.01188
-6.09825
-6.1763
-6.24723
-6.3124
-6.37248
-6.42792
-6.47916
-6.52636
-6.56947
-6.6083
-6.6425
-5.48488
-5.53213
-5.62795
-5.73557
-5.83339
-5.92407
-6.01144
-6.09369
-6.16906
-6.238
-6.30154
-6.36024
-6.41442
-6.46434
-6.51023
-6.55208
-6.58989
-6.62351
-5.54826
-5.58527
-5.66309
-5.75664
-5.84635
-5.93066
-6.0121
-6.08973
-6.16191
-6.22846
-6.29004
-6.34707
-6.39975
-6.44828
-6.49283
-6.5335
-6.57038
-6.60345
-5.60799
-5.6371
-5.69995
-5.77993
-5.86073
-5.93835
-6.01375
-6.08644
-6.15494
-6.21875
-6.27805
-6.33316
-6.38415
-6.43121
-6.47442
-6.514
-6.55
-6.58254
-5.66253
-5.68562
-5.73645
-5.80415
-5.87587
-5.94663
-6.01607
-6.08367
-6.14822
-6.20894
-6.26577
-6.31873
-6.36796
-6.41345
-6.45541
-6.49389
-6.52913
-6.56112
-5.70979
-5.72841
-5.76998
-5.82729
-5.89048
-5.95457
-6.01834
-6.08103
-6.14156
-6.19911
-6.25332
-6.30412
-6.3515
-6.3955
-6.4362
-6.47371
-6.50817
-6.53971
-5.74701
-5.76243
-5.79727
-5.84649
-5.90246
-5.96066
-6.01939
-6.0777
-6.13455
-6.18908
-6.24081
-6.28956
-6.33522
-6.37782
-6.41738
-6.454
-6.48779
-6.51891
-5.77023
-5.78362
-5.81412
-5.85792
-5.90874
-5.96251
-6.01743
-6.07238
-6.12635
-6.17846
-6.22819
-6.27526
-6.31955
-6.361
-6.39965
-6.43557
-6.46885
-6.49966
-5.77327
-5.78597
-5.81493
-5.85674
-5.90546
-5.95733
-6.01049
-6.06393
-6.11652
-6.16748
-6.21617
-6.26241
-6.30594
-6.34683
-6.38498
-6.42057
-6.4536
-6.48431
-5.75602
-5.76934
-5.79963
-5.84288
-5.89276
-5.94536
-5.99914
-6.05302
-6.10602
-6.15718
-6.20605
-6.25231
-6.29593
-6.33678
-6.37498
-6.41054
-6.44366
-6.4744
-5.72384
-5.73894
-5.77297
-5.82055
-5.87401
-5.92937
-5.98541
-6.04133
-6.09594
-6.14839
-6.19819
-6.24522
-6.28936
-6.33066
-6.36915
-6.405
-6.43829
-6.46926
-5.68003
-5.69818
-5.73856
-5.79303
-5.85182
-5.91118
-5.97075
-6.02977
-6.08691
-6.14126
-6.19253
-6.24068
-6.2857
-6.32764
-6.36662
-6.40281
-6.43638
-6.46757
-5.62647
-5.64945
-5.6993
-5.76298
-5.82811
-5.89221
-5.95618
-6.01912
-6.07931
-6.13593
-6.18897
-6.23846
-6.28451
-6.32716
-6.36667
-6.4032
-6.43707
-6.46846
-5.56419
-5.59463
-5.65786
-5.73262
-5.80427
-5.87346
-5.94255
-6.0099
-6.07336
-6.13242
-6.18736
-6.23835
-6.28544
-6.32884
-6.3688
-6.40567
-6.43969
-6.47122
-5.49338
-5.53552
-5.61696
-5.70354
-5.78098
-5.85562
-5.93055
-6.00253
-6.06919
-6.13064
-6.18749
-6.23993
-6.28804
-6.3321
-6.37249
-6.40959
-6.44378
-6.47543
-5.41363
-5.47403
-5.57961
-5.67704
-5.75848
-5.83884
-5.92024
-5.997
-6.0668
-6.13064
-6.18939
-6.24318
-6.29214
-6.33664
-6.37717
-6.41424
-6.44827
-6.47973
-5.32423
-5.41194
-5.54771
-5.65401
-5.7378
-5.82375
-5.91128
-5.9922
-6.06484
-6.13105
-6.1918
-6.24711
-6.2971
-6.34226
-6.38314
-6.42033
-6.45438
-6.48597
-5.22454
-5.35322
-5.51926
-5.63069
-5.71805
-5.81127
-5.90463
-5.98875
-6.06343
-6.13131
-6.19329
-6.24935
-6.29973
-6.34496
-6.3857
-6.42259
-6.45639
-6.48796
-5.10871
-5.31109
-5.49505
-5.5993
-5.69128
-5.79565
-5.89749
-5.98686
-6.06567
-6.13711
-6.20182
-6.25972
-6.3112
-6.35692
-6.39757
-6.43386
-6.46709
-6.49923
-4.94533
-5.30171
-5.50813
-5.59059
-5.67706
-5.78535
-5.88993
-5.98013
-6.05985
-6.1327
-6.19888
-6.25807
-6.31056
-6.35698
-6.39784
-6.43353
-6.46512
-6.49394
-4.68864
-5.23281
-5.49895
-5.5875
-5.68169
-5.79988
-5.91088
-6.0045
-6.08595
-6.15959
-6.22602
-6.28513
-6.33733
-6.3833
-6.42342
-6.45767
-6.48589
-6.50757
-7.39723
-7.39734
-7.39738
-7.39735
-7.39702
-7.39581
-7.39336
-7.39016
-7.38713
-7.38524
-7.38543
-7.38788
-7.39211
-7.39736
-7.4029
-7.40807
-7.41233
-7.41527
-7.41689
-7.41749
-7.41736
-7.41668
-7.4157
-7.41469
-7.41389
-7.41342
-7.41321
-7.41311
-7.41294
-7.41259
-7.41207
-7.4114
-7.41054
-7.40941
-7.40806
-7.40676
-7.40609
-7.40672
-7.40882
-7.4118
-7.41477
-7.41715
-7.41903
-7.42081
-7.42289
-7.42574
-7.42926
-7.43245
-7.43477
-7.43758
-7.44423
-7.45887
-7.48251
-7.51422
-7.55375
-7.60187
-7.65839
-7.7216
-7.78936
-7.85987
-7.93151
-8.00236
-8.07097
-8.13652
-8.19827
-8.25563
-8.30839
-8.35648
-8.39993
-8.43882
-8.47326
-8.50334
-8.52915
-8.55075
-8.5682
-8.5815
-8.59066
-8.59567
-8.5965
-8.59311
-8.58545
-8.57344
-8.55701
-8.53609
-8.51059
-8.48044
-8.44558
-8.40594
-8.36146
-8.31208
-8.2577
-8.19825
-8.13365
-8.06383
-7.98872
-7.90827
-7.82244
-7.73125
-7.63483
-7.53329
-7.42646
-7.31394
-7.19571
-7.07198
-6.94283
-6.80831
-6.66846
-6.52331
-6.37292
-6.21734
-6.05662
-5.89083
-5.72003
-5.5443
-5.36372
-5.17837
-4.98833
-4.79371
-4.59459
-4.39109
-4.18331
-3.97136
-3.75536
-3.53545
-3.31174
-3.08439
-2.85354
-2.61932
-2.38189
-2.14144
-1.89816
-1.65225
-1.40392
-1.15334
-0.900732
-0.646378
-0.390599
-0.133559
0.124831
0.384448
0.644887
0.90588
1.16714
1.42845
1.68954
1.95017
2.21004
2.46897
2.72672
2.98309
3.23785
3.49077
3.74163
3.99022
4.23635
4.47984
4.72053
4.95827
5.19293
5.42439
5.65253
5.87727
6.09849
6.31611
6.53003
6.74019
6.94649
7.14887
7.34728
7.54166
7.73195
7.9181
8.10005
8.27776
8.45117
8.62029
8.78532
8.94627
9.10616
9.25652
-7.39841
-7.39859
-7.39892
-7.39926
-7.39921
-7.39839
-7.39653
-7.39419
-7.39255
-7.39251
-7.39435
-7.39792
-7.40272
-7.40811
-7.41349
-7.41839
-7.42244
-7.42545
-7.42724
-7.42761
-7.42665
-7.42468
-7.42212
-7.41943
-7.41702
-7.41517
-7.41393
-7.41311
-7.41248
-7.41188
-7.41132
-7.41077
-7.41017
-7.40944
-7.40851
-7.40777
-7.40791
-7.40946
-7.41228
-7.4155
-7.41797
-7.41916
-7.41946
-7.41902
-7.41785
-7.41725
-7.41948
-7.42554
-7.43197
-7.43791
-7.44695
-7.46103
-7.48145
-7.51108
-7.55227
-7.60459
-7.66565
-7.73291
-7.80423
-7.87736
-7.94994
-8.02045
-8.0881
-8.15184
-8.21097
-8.26557
-8.31565
-8.3613
-8.40262
-8.4397
-8.47264
-8.5015
-8.52634
-8.54721
-8.5641
-8.57702
-8.58594
-8.59082
-8.59163
-8.5883
-8.58077
-8.56897
-8.55282
-8.53223
-8.50712
-8.4774
-8.44301
-8.40388
-8.35994
-8.31113
-8.25736
-8.19857
-8.13466
-8.06557
-7.99124
-7.91161
-7.82661
-7.7362
-7.64031
-7.53885
-7.43182
-7.31949
-7.20191
-7.07895
-6.95062
-6.81693
-6.67791
-6.53359
-6.38404
-6.22929
-6.0694
-5.90443
-5.73447
-5.55956
-5.37979
-5.19525
-5.00602
-4.81219
-4.61387
-4.41114
-4.20413
-3.99293
-3.77767
-3.55849
-3.33549
-3.10884
-2.87867
-2.64511
-2.40832
-2.16848
-1.92578
-1.68042
-1.43259
-1.18247
-0.930207
-0.675996
-0.420032
-0.162602
0.0958903
0.355272
0.615476
0.876239
1.13731
1.39846
1.65943
1.91996
2.17979
2.4387
2.69648
2.95292
3.20778
3.46084
3.71186
3.96066
4.20702
4.45077
4.69174
4.92978
5.16476
5.39655
5.62503
5.85012
6.07171
6.28971
6.50402
6.71457
6.92128
7.12408
7.32291
7.51772
7.70846
7.89507
8.07753
8.25583
8.42995
8.59987
8.76591
8.92745
9.08935
9.23905
-7.39968
-7.39968
-7.3997
-7.39976
-7.39982
-7.39985
-7.40008
-7.40101
-7.40309
-7.40646
-7.41091
-7.4161
-7.4216
-7.42701
-7.43195
-7.43614
-7.43938
-7.44156
-7.44261
-7.44248
-7.44117
-7.43883
-7.43562
-7.43174
-7.42744
-7.42298
-7.41867
-7.41476
-7.41144
-7.40881
-7.40682
-7.40525
-7.40384
-7.4026
-7.40195
-7.40253
-7.40493
-7.40903
-7.41357
-7.41677
-7.41724
-7.4155
-7.4135
-7.41294
-7.41355
-7.4149
-7.41921
-7.42829
-7.44134
-7.45858
-7.48116
-7.50946
-7.54397
-7.58518
-7.63317
-7.68703
-7.74529
-7.80653
-7.86944
-7.93274
-7.99527
-8.05617
-8.11492
-8.17092
-8.22369
-8.27302
-8.3188
-8.36096
-8.39947
-8.43433
-8.46551
-8.49302
-8.51684
-8.53694
-8.55329
-8.56584
-8.57456
-8.57937
-8.58022
-8.57703
-8.56972
-8.55823
-8.54245
-8.52231
-8.49771
-8.46856
-8.43478
-8.3963
-8.35305
-8.30495
-8.25193
-8.1939
-8.13078
-8.06252
-7.98903
-7.91028
-7.82622
-7.73683
-7.64204
-7.54175
-7.43593
-7.32469
-7.20811
-7.08617
-6.95887
-6.82622
-6.68826
-6.54501
-6.39652
-6.24285
-6.08404
-5.92015
-5.75126
-5.57743
-5.39874
-5.21527
-5.02711
-4.83434
-4.63707
-4.43539
-4.22942
-4.01924
-3.805
-3.5868
-3.36479
-3.13909
-2.90984
-2.67719
-2.44129
-2.2023
-1.96042
-1.71586
-1.46879
-1.21939
-0.967845
-0.714338
-0.459057
-0.202263
0.0557078
0.314645
0.574418
0.834778
1.09549
1.35632
1.61701
1.87731
2.13695
2.39573
2.65342
2.90982
3.16468
3.41777
3.66887
3.91778
4.16429
4.40823
4.6494
4.88768
5.1229
5.35495
5.5837
5.80907
6.03093
6.24921
6.46382
6.67465
6.88164
7.08473
7.28383
7.47891
7.66992
7.8568
8.03953
8.21806
8.39242
8.56265
8.72933
8.89128
9.05586
9.20164
-7.40082
-7.40055
-7.40019
-7.40021
-7.40137
-7.40405
-7.40805
-7.41303
-7.41865
-7.42461
-7.43062
-7.43644
-7.44184
-7.44665
-7.4507
-7.45386
-7.45604
-7.45716
-7.45721
-7.45615
-7.454
-7.45083
-7.44672
-7.44177
-7.43606
-7.42973
-7.42297
-7.41605
-7.40932
-7.40313
-7.39773
-7.39334
-7.39016
-7.38865
-7.3895
-7.39305
-7.39844
-7.4038
-7.40752
-7.40914
-7.4091
-7.40873
-7.40964
-7.41268
-7.41821
-7.42696
-7.43985
-7.45763
-7.48044
-7.50797
-7.53987
-7.57587
-7.61581
-7.65947
-7.70661
-7.75678
-7.80941
-7.86384
-7.91934
-7.97511
-8.03042
-8.08463
-8.13722
-8.18774
-8.23583
-8.28121
-8.32368
-8.36309
-8.39936
-8.43239
-8.46212
-8.48848
-8.51141
-8.53085
-8.54673
-8.55897
-8.56752
-8.57227
-8.57317
-8.57011
-8.56303
-8.55182
-8.5364
-8.51668
-8.49256
-8.46394
-8.43074
-8.39288
-8.35028
-8.30286
-8.25054
-8.19324
-8.13088
-8.06337
-7.99066
-7.91269
-7.82941
-7.74079
-7.6468
-7.54737
-7.44249
-7.33223
-7.2166
-7.09561
-6.96926
-6.83758
-6.70058
-6.55831
-6.41081
-6.25812
-6.10031
-5.93742
-5.76953
-5.59671
-5.41903
-5.23657
-5.04941
-4.85765
-4.66138
-4.4607
-4.25571
-4.04651
-3.83324
-3.616
-3.39492
-3.17013
-2.94178
-2.71001
-2.47496
-2.2368
-1.99572
-1.75193
-1.50559
-1.25689
-1.00602
-0.753163
-0.498533
-0.242371
0.0150664
0.273556
0.532911
0.792888
1.05326
1.31378
1.57421
1.83428
2.09376
2.35241
2.61002
2.86637
3.12122
3.37435
3.62552
3.87454
4.12118
4.36528
4.60665
4.84513
5.08058
5.31287
5.54188
5.7675
5.98963
6.20817
6.42304
6.63415
6.8414
7.04474
7.24409
7.43939
7.63062
7.81772
8.00067
8.17945
8.35411
8.52465
8.69174
8.85366
9.01905
9.15878
-7.4031
-7.40253
-7.40216
-7.40358
-7.40775
-7.41394
-7.42111
-7.42859
-7.43592
-7.4428
-7.44908
-7.45469
-7.45958
-7.46368
-7.46692
-7.46922
-7.4705
-7.47073
-7.46987
-7.46791
-7.46485
-7.46072
-7.45558
-7.44947
-7.44247
-7.43463
-7.42605
-7.41692
-7.40756
-7.39844
-7.39014
-7.38341
-7.37917
-7.37836
-7.38108
-7.38568
-7.39047
-7.39465
-7.39797
-7.40077
-7.40376
-7.40801
-7.41452
-7.42419
-7.43784
-7.4559
-7.47812
-7.50389
-7.53298
-7.56509
-7.59995
-7.63752
-7.67774
-7.72052
-7.76569
-7.8129
-7.86172
-7.91168
-7.96223
-8.01284
-8.06299
-8.11222
-8.16013
-8.20637
-8.25063
-8.29265
-8.33222
-8.36919
-8.40339
-8.43471
-8.46304
-8.48827
-8.5103
-8.52904
-8.54439
-8.55625
-8.56455
-8.56917
-8.57002
-8.56701
-8.56005
-8.54904
-8.53388
-8.51447
-8.49073
-8.46253
-8.42979
-8.39243
-8.35036
-8.3035
-8.25177
-8.19507
-8.13333
-8.06647
-7.99442
-7.91712
-7.83452
-7.74659
-7.65329
-7.55458
-7.45047
-7.34098
-7.22611
-7.10588
-6.9803
-6.84938
-6.71316
-6.57167
-6.42496
-6.27307
-6.11606
-5.95399
-5.78691
-5.61491
-5.43805
-5.25642
-5.07009
-4.87916
-4.68371
-4.48385
-4.27968
-4.0713
-3.85882
-3.64238
-3.42207
-3.19805
-2.97044
-2.73939
-2.50504
-2.26757
-2.02716
-1.78399
-1.53825
-1.29012
-1.03978
-0.787424
-0.533282
-0.277579
-0.0205553
0.237579
0.496597
0.756283
1.01639
1.27668
1.53689
1.79681
2.05616
2.31473
2.57231
2.82864
3.08351
3.33668
3.58793
3.83704
4.08382
4.32806
4.56959
4.80826
5.04391
5.27641
5.50564
5.73149
5.95385
6.17264
6.38774
6.59908
6.80656
7.01012
7.2097
7.40524
7.59669
7.78402
7.96718
8.14618
8.32104
8.49171
8.65884
8.82019
8.98518
9.11829
-7.4073
-7.40642
-7.40696
-7.41138
-7.41871
-7.42703
-7.43545
-7.44352
-7.45095
-7.45766
-7.46366
-7.46891
-7.47338
-7.47698
-7.47966
-7.48134
-7.48197
-7.48153
-7.47999
-7.47733
-7.47357
-7.46872
-7.46282
-7.45585
-7.44783
-7.43883
-7.429
-7.41852
-7.40774
-7.39727
-7.38792
-7.38084
-7.37711
-7.37673
-7.37839
-7.38086
-7.38395
-7.38795
-7.39314
-7.39954
-7.40737
-7.41768
-7.43151
-7.44908
-7.4702
-7.49449
-7.52171
-7.55151
-7.58361
-7.61789
-7.6542
-7.69245
-7.73254
-7.77435
-7.8177
-7.86233
-7.90795
-7.95423
-8.0008
-8.0473
-8.09337
-8.13866
-8.18287
-8.2257
-8.26688
-8.30616
-8.34335
-8.37825
-8.4107
-8.44053
-8.46762
-8.49183
-8.51304
-8.53111
-8.54595
-8.55742
-8.56544
-8.56988
-8.57064
-8.56762
-8.56072
-8.54983
-8.53485
-8.51567
-8.49221
-8.46433
-8.43196
-8.39499
-8.35334
-8.30692
-8.25564
-8.19942
-8.13816
-8.07179
-8.00024
-7.92346
-7.84139
-7.75398
-7.66121
-7.56306
-7.45951
-7.35057
-7.23626
-7.11658
-6.99155
-6.86119
-6.72554
-6.58462
-6.43849
-6.28719
-6.13078
-5.96931
-5.80286
-5.63148
-5.45525
-5.27425
-5.08856
-4.89826
-4.70346
-4.50425
-4.30071
-4.09298
-3.88113
-3.66531
-3.44562
-3.2222
-2.99517
-2.76468
-2.53089
-2.29395
-2.05406
-1.81139
-1.5661
-1.31841
-1.06847
-0.816491
-0.56271
-0.307341
-0.050615
0.207251
0.46603
0.725501
0.985418
1.24554
1.50562
1.76542
2.02471
2.28324
2.5408
2.79715
3.05205
3.30527
3.55659
3.8058
4.05268
4.29704
4.5387
4.77751
5.01332
5.24599
5.47539
5.70142
5.92397
6.14293
6.35822
6.56974
6.77741
6.98115
7.1809
7.37661
7.56822
7.75569
7.93899
8.11808
8.29299
8.46358
8.63044
8.79088
8.95518
9.08179
-7.41249
-7.41207
-7.41477
-7.42186
-7.4305
-7.43908
-7.44727
-7.45492
-7.46198
-7.46841
-7.47416
-7.47916
-7.48333
-7.48659
-7.48889
-7.49016
-7.49036
-7.48947
-7.48748
-7.48436
-7.48016
-7.47487
-7.46843
-7.46077
-7.45202
-7.44235
-7.43199
-7.42117
-7.41034
-7.40021
-7.39189
-7.38622
-7.38285
-7.38091
-7.38026
-7.38124
-7.38444
-7.38985
-7.39735
-7.40749
-7.42086
-7.43751
-7.45725
-7.47988
-7.50517
-7.53283
-7.56264
-7.59445
-7.62811
-7.66347
-7.70037
-7.73869
-7.77829
-7.81906
-7.86082
-7.9034
-7.9466
-7.99016
-8.03386
-8.07741
-8.12054
-8.16299
-8.20449
-8.2448
-8.28366
-8.32087
-8.3562
-8.38948
-8.42052
-8.44916
-8.47522
-8.49857
-8.51905
-8.53654
-8.5509
-8.56201
-8.56974
-8.57398
-8.57462
-8.57154
-8.56464
-8.55382
-8.53895
-8.51995
-8.49668
-8.46905
-8.43694
-8.40027
-8.35893
-8.31284
-8.26191
-8.20603
-8.14512
-8.0791
-8.00791
-7.93148
-7.84977
-7.76273
-7.67032
-7.57253
-7.46934
-7.36077
-7.24681
-7.12749
-7.00282
-6.87283
-6.73755
-6.59701
-6.45127
-6.30036
-6.14436
-5.98331
-5.81729
-5.64635
-5.47058
-5.29003
-5.10482
-4.915
-4.72069
-4.52195
-4.31892
-4.11166
-3.90031
-3.68496
-3.46574
-3.24277
-3.0162
-2.78614
-2.55277
-2.31624
-2.07675
-1.83445
-1.58951
-1.34213
-1.09249
-0.840796
-0.587277
-0.33215
-0.0756309
0.182044
0.440667
0.699992
0.95979
1.21981
1.47981
1.73956
1.99881
2.25734
2.51491
2.77129
3.02623
3.27952
3.53091
3.78019
4.02716
4.27161
4.51338
4.75229
4.98821
5.22099
5.45052
5.67668
5.89937
6.11847
6.33388
6.54552
6.75331
6.95716
7.15701
7.35281
7.54451
7.73205
7.91539
8.09447
8.2693
8.43964
8.60606
8.76546
8.92906
9.04962
-7.41653
-7.41736
-7.42262
-7.43074
-7.43906
-7.44703
-7.45468
-7.46194
-7.46874
-7.47498
-7.48056
-7.48539
-7.48938
-7.49245
-7.49454
-7.49559
-7.49557
-7.49446
-7.49223
-7.48891
-7.48449
-7.4789
-7.47206
-7.46411
-7.4553
-7.44574
-7.43565
-7.42546
-7.41586
-7.4076
-7.40108
-7.39577
-7.39117
-7.38782
-7.38658
-7.38774
-7.3917
-7.39901
-7.40982
-7.42398
-7.44127
-7.46144
-7.48428
-7.50952
-7.53695
-7.56637
-7.5976
-7.63048
-7.66487
-7.70062
-7.73759
-7.77566
-7.81471
-7.85463
-7.89525
-7.93644
-7.97802
-8.01981
-8.06162
-8.10321
-8.14439
-8.18491
-8.22455
-8.2631
-8.30034
-8.33606
-8.37006
-8.40215
-8.43213
-8.45984
-8.4851
-8.50775
-8.52765
-8.54463
-8.55857
-8.56933
-8.57679
-8.58082
-8.58131
-8.57815
-8.57122
-8.56041
-8.54561
-8.52671
-8.50358
-8.47612
-8.44421
-8.40774
-8.36663
-8.32077
-8.27006
-8.21442
-8.15374
-8.08794
-8.01698
-7.94077
-7.85927
-7.77243
-7.68022
-7.58262
-7.47963
-7.37124
-7.25747
-7.13833
-7.01384
-6.88404
-6.74895
-6.60862
-6.46309
-6.31243
-6.15667
-5.99589
-5.83014
-5.65949
-5.48402
-5.3038
-5.11891
-4.92944
-4.73547
-4.5371
-4.33443
-4.12754
-3.91656
-3.70157
-3.48271
-3.26009
-3.03385
-2.80411
-2.57106
-2.33486
-2.09566
-1.85363
-1.60895
-1.36181
-1.11238
-0.860893
-0.60756
-0.352598
-0.0962247
0.16133
0.419848
0.679087
0.93881
1.19877
1.45874
1.71848
1.97774
2.23629
2.49389
2.75031
3.00532
3.25868
3.51014
3.75949
4.00652
4.25104
4.49288
4.73188
4.96788
5.20075
5.43038
5.65664
5.87943
6.09863
6.31413
6.52584
6.73369
6.9376
7.13751
7.33335
7.52508
7.71263
7.89595
8.07495
8.2496
8.41961
8.5855
8.74383
8.90678
9.02186
-7.41768
-7.42013
-7.42691
-7.43473
-7.44239
-7.44989
-7.45722
-7.46427
-7.47093
-7.4771
-7.48264
-7.48744
-7.49141
-7.49447
-7.49654
-7.49758
-7.49757
-7.49646
-7.49425
-7.49093
-7.48646
-7.48078
-7.47396
-7.46624
-7.45781
-7.4489
-7.43992
-7.43134
-7.42357
-7.41667
-7.41043
-7.40471
-7.39981
-7.3966
-7.39593
-7.39836
-7.40428
-7.41381
-7.42674
-7.44287
-7.46196
-7.48375
-7.50799
-7.53445
-7.56291
-7.59319
-7.6251
-7.65848
-7.69318
-7.72907
-7.76603
-7.80392
-7.84263
-7.88202
-7.92198
-7.96236
-8.00301
-8.04377
-8.08446
-8.1249
-8.16489
-8.20424
-8.24275
-8.2802
-8.31642
-8.35118
-8.3843
-8.41558
-8.44483
-8.47188
-8.49654
-8.51865
-8.53806
-8.55463
-8.5682
-8.57864
-8.58582
-8.58963
-8.58996
-8.58668
-8.57968
-8.56885
-8.55407
-8.53522
-8.51217
-8.48482
-8.45303
-8.41671
-8.37574
-8.33003
-8.27947
-8.22396
-8.16341
-8.09773
-8.02687
-7.95075
-7.86933
-7.78255
-7.6904
-7.59284
-7.48988
-7.38151
-7.26777
-7.14866
-7.0242
-6.89444
-6.7594
-6.61914
-6.47369
-6.32313
-6.16748
-6.00684
-5.84124
-5.67077
-5.49548
-5.31547
-5.13079
-4.94156
-4.74784
-4.54974
-4.34733
-4.14072
-3.93001
-3.7153
-3.4967
-3.27434
-3.04834
-2.81886
-2.58604
-2.35008
-2.1111
-1.86927
-1.62478
-1.3778
-1.12853
-0.877183
-0.623979
-0.369121
-0.112843
0.144644
0.403097
0.662292
0.921977
1.18192
1.44189
1.70163
1.96092
2.21951
2.47715
2.73363
2.9887
3.24213
3.49366
3.74306
3.99015
4.23473
4.47662
4.71567
4.95173
5.18466
5.41435
5.64069
5.86355
6.0828
6.29834
6.51008
6.71795
6.92188
7.12179
7.31763
7.50935
7.69687
7.88011
8.05897
8.23338
8.40299
8.5683
8.72559
8.88792
8.99821
-7.41438
-7.41817
-7.42514
-7.43246
-7.43982
-7.44717
-7.45441
-7.46146
-7.46818
-7.47444
-7.48013
-7.48511
-7.48928
-7.49254
-7.49482
-7.49606
-7.49622
-7.49527
-7.49319
-7.48998
-7.48561
-7.48012
-7.47368
-7.46655
-7.45899
-7.45129
-7.44373
-7.43638
-7.42932
-7.42268
-7.41654
-7.41119
-7.40722
-7.40533
-7.40612
-7.40999
-7.41718
-7.42778
-7.44166
-7.45864
-7.4785
-7.50098
-7.52582
-7.5528
-7.58171
-7.61237
-7.64459
-7.67823
-7.71313
-7.74917
-7.78621
-7.82411
-7.86274
-7.902
-7.94174
-7.98184
-8.02214
-8.06248
-8.10271
-8.14265
-8.18212
-8.22093
-8.2589
-8.29582
-8.3315
-8.36576
-8.3984
-8.42921
-8.458
-8.48459
-8.5088
-8.53048
-8.54947
-8.56564
-8.57884
-8.58895
-8.59586
-8.59944
-8.59959
-8.59618
-8.5891
-8.57823
-8.56344
-8.54462
-8.52163
-8.49433
-8.46262
-8.42638
-8.3855
-8.33987
-8.28938
-8.23393
-8.17341
-8.10775
-8.03688
-7.96073
-7.87926
-7.79243
-7.70019
-7.60254
-7.49948
-7.39102
-7.27718
-7.15797
-7.03343
-6.90359
-6.76849
-6.62818
-6.4827
-6.33213
-6.17651
-6.0159
-5.85037
-5.67997
-5.50478
-5.32488
-5.14035
-4.95128
-4.75774
-4.55982
-4.35762
-4.15122
-3.94071
-3.72622
-3.50782
-3.28566
-3.05985
-2.83055
-2.59793
-2.36214
-2.12333
-1.88165
-1.6373
-1.39045
-1.14129
-0.890046
-0.636926
-0.382141
-0.125917
0.131527
0.38995
0.649119
0.908793
1.16873
1.42871
1.68848
1.9478
2.20643
2.46412
2.72066
2.97581
3.22932
3.4809
3.73035
3.97747
4.22208
4.46401
4.70309
4.93918
5.17215
5.40188
5.62827
5.85117
6.07045
6.286
6.49774
6.7056
6.90951
7.10939
7.3052
7.49688
7.68434
7.86746
8.04613
8.22025
8.38942
8.55413
8.7104
8.87211
8.97832
-7.40476
-7.4092
-7.41592
-7.42325
-7.43082
-7.43838
-7.44583
-7.45309
-7.46007
-7.46664
-7.47266
-7.47799
-7.4825
-7.48608
-7.48865
-7.49017
-7.4906
-7.4899
-7.48808
-7.48515
-7.48117
-7.47626
-7.4706
-7.46438
-7.45776
-7.45089
-7.44393
-7.437
-7.43023
-7.42385
-7.41826
-7.41385
-7.41105
-7.41036
-7.41229
-7.41718
-7.42524
-7.43653
-7.45098
-7.46843
-7.48866
-7.51144
-7.53653
-7.56373
-7.59285
-7.62372
-7.65617
-7.69005
-7.72521
-7.7615
-7.79878
-7.83692
-7.8758
-7.91529
-7.95524
-7.99551
-8.03596
-8.07643
-8.11675
-8.15675
-8.19624
-8.23504
-8.27294
-8.30976
-8.3453
-8.37937
-8.41178
-8.44232
-8.47082
-8.4971
-8.52097
-8.54228
-8.56089
-8.57668
-8.58951
-8.59929
-8.6059
-8.60924
-8.60919
-8.60563
-8.59846
-8.58754
-8.57274
-8.55392
-8.53096
-8.5037
-8.47202
-8.43581
-8.39495
-8.34934
-8.29885
-8.24338
-8.18281
-8.11708
-8.04611
-7.96985
-7.88824
-7.80125
-7.70883
-7.61099
-7.50773
-7.39908
-7.28503
-7.16564
-7.04093
-6.91092
-6.77568
-6.63524
-6.48966
-6.33901
-6.18334
-6.02271
-5.85719
-5.68682
-5.51168
-5.33183
-5.1474
-4.95843
-4.76504
-4.56728
-4.36524
-4.15901
-3.94869
-3.73436
-3.51615
-3.29414
-3.06849
-2.83935
-2.6069
-2.37125
-2.13258
-1.89103
-1.6468
-1.40005
-1.15098
-0.89982
-0.646766
-0.392041
-0.135855
0.12155
0.379952
0.639104
0.898776
1.15873
1.41873
1.67853
1.93789
2.19656
2.4543
2.7109
2.96614
3.21972
3.47134
3.72081
3.96795
4.21257
4.4545
4.69359
4.92969
5.16267
5.39241
5.61883
5.84177
6.06104
6.27657
6.48828
6.6961
6.89996
7.0998
7.29555
7.48716
7.67452
7.8575
8.03594
8.20975
8.37845
8.54255
8.69785
8.85893
8.96177
-7.38734
-7.39182
-7.39872
-7.40682
-7.41511
-7.42315
-7.43096
-7.43856
-7.44595
-7.45299
-7.45951
-7.46532
-7.47026
-7.47425
-7.47723
-7.47914
-7.47997
-7.4797
-7.47836
-7.47596
-7.4726
-7.46837
-7.4634
-7.45781
-7.45175
-7.44533
-7.43868
-7.43201
-7.4256
-7.41976
-7.41481
-7.41112
-7.40918
-7.40942
-7.41227
-7.41799
-7.42677
-7.43864
-7.45353
-7.47129
-7.49173
-7.51466
-7.53988
-7.56722
-7.59651
-7.62759
-7.66031
-7.6945
-7.73001
-7.76671
-7.80445
-7.84311
-7.88256
-7.92265
-7.96321
-8.00408
-8.0451
-8.08611
-8.12694
-8.16739
-8.20728
-8.24641
-8.2846
-8.32163
-8.35731
-8.39144
-8.42382
-8.45427
-8.4826
-8.50863
-8.53218
-8.55312
-8.57133
-8.5867
-8.59911
-8.60848
-8.61473
-8.61776
-8.61746
-8.61373
-8.60645
-8.59547
-8.58065
-8.56185
-8.5389
-8.51164
-8.47993
-8.4437
-8.40284
-8.35721
-8.30669
-8.25115
-8.19049
-8.12464
-8.05352
-7.97709
-7.89529
-7.80807
-7.71541
-7.61732
-7.5138
-7.40488
-7.2906
-7.17097
-7.04603
-6.91582
-6.78039
-6.63979
-6.49408
-6.34333
-6.18759
-6.02693
-5.86139
-5.69104
-5.51591
-5.33612
-5.15176
-4.96292
-4.76965
-4.57204
-4.37016
-4.1641
-3.95395
-3.7398
-3.52175
-3.2999
-3.07442
-2.84545
-2.61316
-2.37767
-2.13914
-1.89773
-1.65362
-1.40698
-1.15802
-0.906941
-0.653958
-0.399287
-0.143146
0.114226
0.372601
0.631741
0.891412
1.15138
1.4114
1.67123
1.93063
2.18934
2.44713
2.70379
2.95915
3.21283
3.46446
3.71392
3.96105
4.20566
4.44759
4.68666
4.92276
5.15573
5.38547
5.61193
5.83489
6.05414
6.26962
6.48127
6.68903
6.89282
7.09259
7.28827
7.47981
7.66708
7.84988
8.02807
8.20154
8.36976
8.53324
8.68764
8.84804
8.94821
-7.36182
-7.36616
-7.37396
-7.38344
-7.39271
-7.40131
-7.40953
-7.41764
-7.42571
-7.43351
-7.44075
-7.4472
-7.4527
-7.45721
-7.4607
-7.46314
-7.46451
-7.46482
-7.46405
-7.46226
-7.45949
-7.45584
-7.45138
-7.44622
-7.44048
-7.43431
-7.42792
-7.42157
-7.41552
-7.41007
-7.4056
-7.40255
-7.40134
-7.40239
-7.40602
-7.41247
-7.42185
-7.43418
-7.44939
-7.46735
-7.4879
-7.51091
-7.53622
-7.56368
-7.59317
-7.62453
-7.65761
-7.69225
-7.72829
-7.7656
-7.80403
-7.84344
-7.8837
-7.92463
-7.96606
-8.00783
-8.04976
-8.09165
-8.13331
-8.17453
-8.2151
-8.25484
-8.29354
-8.331
-8.367
-8.40134
-8.43384
-8.46428
-8.49244
-8.51814
-8.54123
-8.56162
-8.57924
-8.59401
-8.60582
-8.61463
-8.62039
-8.62305
-8.62249
-8.6186
-8.61125
-8.60028
-8.58551
-8.56675
-8.54383
-8.51653
-8.48472
-8.44842
-8.40755
-8.36194
-8.3114
-8.25579
-8.19502
-8.12903
-8.05776
-7.98116
-7.89916
-7.81171
-7.71879
-7.62041
-7.51662
-7.40744
-7.29291
-7.17305
-7.0479
-6.91748
-6.78186
-6.6411
-6.49527
-6.34444
-6.18865
-6.02798
-5.86247
-5.69216
-5.5171
-5.33739
-5.15314
-4.96443
-4.77131
-4.57387
-4.37217
-4.16631
-3.95635
-3.74241
-3.52456
-3.30294
-3.07766
-2.84891
-2.61681
-2.38152
-2.14316
-1.90193
-1.65798
-1.41148
-1.16265
-0.911686
-0.658803
-0.404211
-0.148147
0.109166
0.367487
0.62659
0.886237
1.14619
1.40621
1.66605
1.92545
2.18416
2.44197
2.69868
2.95421
3.20806
3.45973
3.70916
3.95626
4.20084
4.44274
4.68179
4.91786
5.15082
5.38056
5.60708
5.8301
6.04931
6.26471
6.47629
6.68396
6.88768
7.08737
7.28297
7.47444
7.6616
7.84421
8.02213
8.19524
8.36297
8.52585
8.67939
8.83906
8.93725
-7.3294
-7.33404
-7.34331
-7.35454
-7.36489
-7.3742
-7.38317
-7.39197
-7.40071
-7.40939
-7.41769
-7.42512
-7.43134
-7.43634
-7.44034
-7.44335
-7.44532
-7.44622
-7.44604
-7.4448
-7.44253
-7.43929
-7.43516
-7.43025
-7.42471
-7.41874
-7.41253
-7.40634
-7.4005
-7.39538
-7.39137
-7.38889
-7.38834
-7.39005
-7.39432
-7.4013
-7.41109
-7.42369
-7.43907
-7.45712
-7.47774
-7.5008
-7.52618
-7.55377
-7.58345
-7.61509
-7.64854
-7.68367
-7.72031
-7.75835
-7.79762
-7.83798
-7.87924
-7.92123
-7.96377
-8.00668
-8.04974
-8.09273
-8.13544
-8.17762
-8.21906
-8.25953
-8.29881
-8.33671
-8.373
-8.40749
-8.43995
-8.47017
-8.49793
-8.52301
-8.54532
-8.56487
-8.58166
-8.59564
-8.60663
-8.61459
-8.61969
-8.62195
-8.6212
-8.61731
-8.61011
-8.59938
-8.58485
-8.56629
-8.54348
-8.5161
-8.48412
-8.44776
-8.40699
-8.36145
-8.3109
-8.25521
-8.1943
-8.12817
-8.05675
-7.97999
-7.89778
-7.81006
-7.71684
-7.61815
-7.51405
-7.40458
-7.28979
-7.16969
-7.04431
-6.91367
-6.77785
-6.63693
-6.49098
-6.34007
-6.18426
-6.0236
-5.85815
-5.68793
-5.51302
-5.33348
-5.14939
-4.96082
-4.76785
-4.57057
-4.36904
-4.16338
-3.95365
-3.73994
-3.52237
-3.30106
-3.07612
-2.84769
-2.61589
-2.38088
-2.1428
-1.90183
-1.65813
-1.41188
-1.16329
-0.912548
-0.659872
-0.40548
-0.149609
0.107515
0.365659
0.624594
0.884086
1.1439
1.40377
1.66346
1.92271
2.18128
2.43892
2.69549
2.95103
3.20497
3.45661
3.70598
3.95301
4.19754
4.43939
4.6784
4.91443
5.14734
5.37707
5.60373
5.82691
6.04611
6.26143
6.47293
6.68053
6.88418
7.08379
7.27932
7.47077
7.65786
7.84027
8.01791
8.19064
8.35789
8.52019
8.67291
8.83178
8.92864
-7.29301
-7.29852
-7.30976
-7.32314
-7.33462
-7.34421
-7.35356
-7.36338
-7.37337
-7.38316
-7.39249
-7.40093
-7.40794
-7.41349
-7.41795
-7.42151
-7.42405
-7.4255
-7.42583
-7.42502
-7.4231
-7.42013
-7.4162
-7.41142
-7.40594
-7.39997
-7.39377
-7.38766
-7.38199
-7.37714
-7.37351
-7.37147
-7.37138
-7.37351
-7.37811
-7.38532
-7.39522
-7.40782
-7.42313
-7.44107
-7.46155
-7.48451
-7.50985
-7.53748
-7.5673
-7.59918
-7.63299
-7.6686
-7.7059
-7.74474
-7.78494
-7.82635
-7.86876
-7.91199
-7.95581
-7.99999
-8.04427
-8.0884
-8.13212
-8.17517
-8.21731
-8.2583
-8.29793
-8.33599
-8.37227
-8.40656
-8.43866
-8.46832
-8.4953
-8.5193
-8.54029
-8.55852
-8.57423
-8.5873
-8.59722
-8.60385
-8.60783
-8.60949
-8.60861
-8.60493
-8.59819
-8.58804
-8.57409
-8.55606
-8.53381
-8.50727
-8.47633
-8.44082
-8.40053
-8.35525
-8.30479
-8.24906
-8.18806
-8.12179
-8.05018
-7.97316
-7.89064
-7.80257
-7.70893
-7.60983
-7.50531
-7.39545
-7.28027
-7.15981
-7.03407
-6.9031
-6.76698
-6.6258
-6.47964
-6.32856
-6.17264
-6.01191
-5.84643
-5.67625
-5.50143
-5.32201
-5.13805
-4.94959
-4.75675
-4.55959
-4.35823
-4.15273
-3.94321
-3.72973
-3.51244
-3.29143
-3.06683
-2.83873
-2.60726
-2.37255
-2.13479
-1.89411
-1.6507
-1.40475
-1.15646
-0.906013
-0.653613
-0.399502
-0.143905
0.11294
0.37081
0.62947
0.888688
1.14822
1.40781
1.6672
1.92614
2.18436
2.44159
2.69761
2.9522
3.20518
3.45635
3.70545
3.95225
4.19655
4.43819
4.677
4.91281
5.14551
5.37504
5.60164
5.82489
6.04405
6.25928
6.47069
6.67822
6.8818
7.08135
7.27682
7.46831
7.65544
7.8377
8.01505
8.18743
8.35421
8.51595
8.6679
8.82593
8.92209
-7.25617
-7.26287
-7.27653
-7.29181
-7.30362
-7.31365
-7.32406
-7.33498
-7.346
-7.3568
-7.36712
-7.37649
-7.38427
-7.39043
-7.39548
-7.39963
-7.40273
-7.40468
-7.40543
-7.40496
-7.40327
-7.40041
-7.39648
-7.39161
-7.38599
-7.37987
-7.37354
-7.36733
-7.36163
-7.35679
-7.35321
-7.3512
-7.3511
-7.35316
-7.3576
-7.36455
-7.3741
-7.38629
-7.40113
-7.41861
-7.43868
-7.46132
-7.48647
-7.51407
-7.54399
-7.57612
-7.61034
-7.64654
-7.68459
-7.72433
-7.76557
-7.80808
-7.85167
-7.89609
-7.94109
-7.98639
-8.0317
-8.07673
-8.12117
-8.16477
-8.20726
-8.24841
-8.288
-8.32583
-8.36171
-8.39547
-8.42692
-8.4558
-8.48174
-8.50409
-8.52274
-8.53855
-8.55252
-8.56485
-8.57507
-8.58264
-8.58728
-8.58903
-8.58812
-8.58454
-8.57801
-8.56817
-8.55457
-8.53691
-8.51518
-8.48952
-8.45968
-8.42507
-8.38532
-8.34036
-8.2901
-8.23451
-8.17359
-8.10729
-8.03557
-7.95836
-7.87562
-7.78727
-7.69335
-7.59395
-7.48913
-7.37896
-7.26347
-7.1427
-7.01669
-6.88546
-6.74912
-6.60776
-6.46147