/*--------------------------------*- C++ -*----------------------------------*\
  =========                 |
  \\      /  F ield         | OpenFOAM: The Open Source CFD Toolbox
   \\    /   O peration     | Website:  https://openfoam.org
    \\  /    A nd           | Version:  8
     \\/     M anipulation  |
\*---------------------------------------------------------------------------*/
FoamFile
{
    version     2.0;
    format      ascii;
    class       surfaceScalarField;
    location    "1200";
    object      phi;
}
// * * * * * * * * * * * * * * * * * * * * * * * * * * * * * * * * * * * * * //

dimensions      [0 3 -1 0 0 0 0];

internalField   nonuniform List<scalar> 
24170
(
2.99179e-06
1.4212e-07
2.84214e-06
1.49708e-07
2.71021e-06
1.31967e-07
2.59384e-06
1.16398e-07
2.49293e-06
1.00951e-07
2.40789e-06
8.50871e-08
2.33915e-06
6.87564e-08
2.28229e-06
5.6832e-08
2.23267e-06
4.95975e-08
2.19028e-06
4.23689e-08
2.15431e-06
3.59564e-08
2.12412e-06
3.01899e-08
2.1001e-06
2.40189e-08
2.08175e-06
1.83466e-08
2.06811e-06
1.36496e-08
2.05703e-06
1.10764e-08
2.05053e-06
6.48751e-09
-1.39889e-09
2.05191e-06
3.52332e-06
7.52695e-08
3.56031e-06
1.12837e-07
3.5788e-06
1.13577e-07
3.58078e-06
1.14505e-07
3.56764e-06
1.14177e-07
3.54491e-06
1.07872e-07
3.51612e-06
9.75731e-08
3.48427e-06
8.86557e-08
3.45258e-06
8.12575e-08
3.42015e-06
7.47768e-08
3.38817e-06
6.79256e-08
3.358e-06
6.0351e-08
3.32696e-06
5.50526e-08
3.29637e-06
4.89368e-08
3.26857e-06
4.14504e-08
3.24387e-06
3.57683e-08
3.22129e-06
2.90492e-08
2.25786e-08
3.19731e-06
3.83278e-06
5.47003e-08
3.85213e-06
9.35063e-08
3.86829e-06
9.74116e-08
3.88284e-06
9.99566e-08
3.89575e-06
1.01291e-07
3.90587e-06
9.77796e-08
3.91211e-06
9.13484e-08
3.91527e-06
8.54807e-08
3.9163e-06
8.02223e-08
3.91563e-06
7.54405e-08
3.91337e-06
7.0175e-08
3.90945e-06
6.4275e-08
3.90492e-06
5.95828e-08
3.89954e-06
5.43174e-08
3.89282e-06
4.81655e-08
3.88587e-06
4.272e-08
3.87806e-06
3.68499e-08
3.11037e-08
3.86953e-06
4.21596e-06
4.33162e-08
4.22901e-06
8.05282e-08
4.23862e-06
8.78669e-08
4.2474e-06
9.12292e-08
4.25603e-06
9.27185e-08
4.2638e-06
9.00631e-08
4.27021e-06
8.49593e-08
4.27576e-06
7.99286e-08
4.28074e-06
7.52351e-08
4.28535e-06
7.08267e-08
4.28943e-06
6.60886e-08
4.2927e-06
6.10045e-08
4.29584e-06
5.6436e-08
4.29861e-06
5.15518e-08
4.30054e-06
4.62329e-08
4.30203e-06
4.12206e-08
4.30279e-06
3.6081e-08
3.11979e-08
4.30269e-06
4.64604e-06
3.45934e-08
4.65715e-06
6.94215e-08
4.66556e-06
7.94359e-08
4.67315e-06
8.36308e-08
4.68046e-06
8.5413e-08
4.68698e-06
8.35565e-08
4.69246e-06
7.94824e-08
4.69732e-06
7.50659e-08
4.70182e-06
7.07332e-08
4.70615e-06
6.65019e-08
4.71021e-06
6.20324e-08
4.71386e-06
5.7354e-08
4.71742e-06
5.28714e-08
4.72074e-06
4.82312e-08
4.72356e-06
4.3408e-08
4.72604e-06
3.8741e-08
4.72801e-06
3.41048e-08
2.97747e-08
4.72945e-06
5.12161e-06
2.75886e-08
5.13164e-06
5.94466e-08
5.13981e-06
7.13144e-08
5.14727e-06
7.62226e-08
5.15444e-06
7.82888e-08
5.16085e-06
7.71906e-08
5.16634e-06
7.40145e-08
5.17124e-06
7.01814e-08
5.17576e-06
6.62169e-08
5.18006e-06
6.22061e-08
5.1841e-06
5.79964e-08
5.18783e-06
5.36269e-08
5.19139e-06
4.9307e-08
5.1947e-06
4.49155e-08
5.19763e-06
4.04748e-08
5.20021e-06
3.6145e-08
5.20239e-06
3.19235e-08
2.79761e-08
5.20418e-06
5.64653e-06
2.20716e-08
5.65571e-06
5.02635e-08
5.6638e-06
6.32014e-08
5.67126e-06
6.87455e-08
5.67849e-06
7.1069e-08
5.68504e-06
7.06467e-08
5.6908e-06
6.82541e-08
5.696e-06
6.49904e-08
5.7008e-06
6.14182e-08
5.70532e-06
5.76874e-08
5.70956e-06
5.37606e-08
5.71349e-06
4.96937e-08
5.71719e-06
4.56094e-08
5.7206e-06
4.15029e-08
5.72366e-06
3.74091e-08
5.72638e-06
3.34206e-08
5.72873e-06
2.95676e-08
2.59696e-08
5.73074e-06
4.40933e-06
1.88607e-08
4.41534e-06
4.42973e-08
4.42115e-06
5.74202e-08
4.42658e-06
6.33606e-08
4.43181e-06
6.58822e-08
4.43664e-06
6.58519e-08
4.44098e-06
6.39305e-08
4.44494e-06
6.10564e-08
4.44859e-06
5.77749e-08
4.45201e-06
5.42757e-08
4.45521e-06
5.05688e-08
4.45818e-06
4.67237e-08
4.46094e-06
4.2841e-08
4.46349e-06
3.89513e-08
4.46579e-06
3.51004e-08
4.46785e-06
3.13576e-08
4.46965e-06
2.77603e-08
2.44034e-08
4.47122e-06
5.14279e-06
1.59379e-08
5.14878e-06
3.82995e-08
5.15492e-06
5.12658e-08
5.16078e-06
5.74936e-08
5.16647e-06
6.0198e-08
5.1718e-06
6.05285e-08
5.17667e-06
5.90723e-08
5.18113e-06
5.65991e-08
5.18528e-06
5.36397e-08
5.18916e-06
5.04012e-08
5.19278e-06
4.69465e-08
5.19615e-06
4.33516e-08
5.19928e-06
3.97073e-08
5.20216e-06
3.6067e-08
5.20477e-06
3.24842e-08
5.20711e-06
2.90091e-08
5.20919e-06
2.56837e-08
2.2586e-08
5.21101e-06
5.99844e-06
1.32852e-08
6.00428e-06
3.24822e-08
6.01066e-06
4.49064e-08
6.01692e-06
5.12559e-08
6.02306e-06
5.40818e-08
6.0289e-06
5.47116e-08
6.03431e-06
5.36779e-08
6.03931e-06
5.1606e-08
6.04398e-06
4.89794e-08
6.04836e-06
4.60325e-08
6.05245e-06
4.28576e-08
6.05626e-06
3.95425e-08
6.05979e-06
3.6173e-08
6.06303e-06
3.2822e-08
6.06598e-06
2.95244e-08
6.06864e-06
2.63478e-08
6.07102e-06
2.33085e-08
2.04871e-08
6.07312e-06
6.99665e-06
1.09069e-08
7.00222e-06
2.69162e-08
7.00874e-06
3.83886e-08
7.01536e-06
4.46454e-08
7.02192e-06
4.75256e-08
7.02827e-06
4.83799e-08
7.03423e-06
4.77179e-08
7.03981e-06
4.60356e-08
7.04504e-06
4.3758e-08
7.04995e-06
4.11283e-08
7.05454e-06
3.82663e-08
7.05882e-06
3.52636e-08
7.06279e-06
3.22141e-08
7.06643e-06
2.91718e-08
7.06976e-06
2.62018e-08
7.07276e-06
2.33336e-08
7.07547e-06
2.061e-08
1.80696e-08
7.07788e-06
8.16116e-06
8.75453e-09
8.16639e-06
2.16975e-08
8.17294e-06
3.18392e-08
8.17985e-06
3.77389e-08
8.18681e-06
4.05673e-08
8.19365e-06
4.15541e-08
8.20018e-06
4.11899e-08
8.20635e-06
3.98624e-08
8.21218e-06
3.79427e-08
8.21765e-06
3.56518e-08
8.22278e-06
3.31348e-08
8.22757e-06
3.04809e-08
8.23201e-06
2.77813e-08
8.2361e-06
2.50893e-08
8.23983e-06
2.24638e-08
8.24323e-06
1.99375e-08
8.24629e-06
1.75368e-08
1.5312e-08
8.24906e-06
9.51967e-06
6.81481e-09
9.52454e-06
1.68362e-08
9.53102e-06
2.536e-08
9.53815e-06
3.06139e-08
9.54547e-06
3.32457e-08
9.55278e-06
3.42577e-08
9.55987e-06
3.40942e-08
9.56666e-06
3.30846e-08
9.57309e-06
3.15022e-08
9.57917e-06
2.95742e-08
9.58488e-06
2.74194e-08
9.59022e-06
2.51531e-08
9.59518e-06
2.28258e-08
9.59976e-06
2.05226e-08
9.60395e-06
1.82616e-08
9.60779e-06
1.61057e-08
9.61127e-06
1.40492e-08
1.21539e-08
9.61442e-06
1.11045e-05
5.03576e-09
1.1109e-05
1.23063e-08
1.11154e-05
1.90006e-08
1.11227e-05
2.33328e-08
1.11303e-05
2.55891e-08
1.11381e-05
2.65019e-08
1.11457e-05
2.64486e-08
1.11531e-05
2.56805e-08
1.11602e-05
2.44251e-08
1.11669e-05
2.28511e-08
1.11733e-05
2.10894e-08
1.11792e-05
1.92153e-08
1.11847e-05
1.73072e-08
1.11898e-05
1.53996e-08
1.11946e-05
1.35498e-08
1.11989e-05
1.17727e-08
1.12028e-05
1.00977e-08
8.5462e-09
1.12064e-05
1.29533e-05
3.38345e-09
1.29576e-05
8.02361e-09
1.29638e-05
1.27493e-08
1.29712e-05
1.59217e-08
1.29792e-05
1.76035e-08
1.29874e-05
1.82826e-08
1.29956e-05
1.82307e-08
1.30037e-05
1.76394e-08
1.30114e-05
1.66679e-08
1.30188e-05
1.54474e-08
1.30258e-05
1.40763e-08
1.30324e-05
1.26237e-08
1.30386e-05
1.11421e-08
1.30443e-05
9.67134e-09
1.30496e-05
8.24481e-09
1.30545e-05
6.88538e-09
1.3059e-05
5.60545e-09
4.43302e-09
1.30631e-05
1.511e-05
1.80202e-09
1.51142e-05
3.86033e-09
1.51204e-05
6.51169e-09
1.5128e-05
8.31272e-09
1.51364e-05
9.22958e-09
1.51451e-05
9.53021e-09
1.5154e-05
9.37841e-09
1.51628e-05
8.88786e-09
1.51713e-05
8.16162e-09
1.51794e-05
7.27773e-09
1.51872e-05
6.30362e-09
1.51945e-05
5.28296e-09
1.52014e-05
4.25353e-09
1.52079e-05
3.2409e-09
1.52138e-05
2.26836e-09
1.52194e-05
1.3505e-09
1.52245e-05
4.95476e-10
-2.7456e-10
1.52292e-05
1.7626e-05
2.15541e-10
1.76303e-05
-3.76142e-10
1.76367e-05
4.94153e-11
1.76448e-05
2.9152e-10
1.76537e-05
2.61395e-10
1.76632e-05
4.73243e-11
1.76729e-05
-2.97409e-10
1.76825e-05
-7.48924e-10
1.7692e-05
-1.25977e-09
1.77011e-05
-1.81442e-09
1.77097e-05
-2.37973e-09
1.7718e-05
-2.9475e-09
1.77257e-05
-3.4958e-09
1.7733e-05
-4.01996e-09
1.77398e-05
-4.50566e-09
1.77461e-05
-4.95029e-09
1.77519e-05
-5.34879e-09
-5.68739e-09
1.77573e-05
1.78277e-05
-1.29696e-09
1.78318e-05
-4.44694e-09
1.78381e-05
-6.1912e-09
1.78459e-05
-7.48164e-09
1.78546e-05
-8.47658e-09
1.78639e-05
-9.2159e-09
1.78734e-05
-9.79051e-09
1.78829e-05
-1.02135e-08
1.78921e-05
-1.05426e-08
1.79011e-05
-1.07749e-08
1.79097e-05
-1.09588e-08
1.79178e-05
-1.10808e-08
1.79255e-05
-1.11735e-08
1.79327e-05
-1.12202e-08
1.79394e-05
-1.12437e-08
1.79457e-05
-1.12287e-08
1.79516e-05
-1.11936e-08
-1.11153e-08
1.7957e-05
1.58828e-05
-2.71302e-09
1.58866e-05
-8.26302e-09
1.58924e-05
-1.19694e-08
1.58996e-05
-1.45952e-08
1.59075e-05
-1.63982e-08
1.59159e-05
-1.75912e-08
1.59245e-05
-1.83238e-08
1.59329e-05
-1.87166e-08
1.59413e-05
-1.8835e-08
1.59493e-05
-1.87823e-08
1.59569e-05
-1.85905e-08
1.59641e-05
-1.83245e-08
1.5971e-05
-1.79882e-08
1.59774e-05
-1.76234e-08
1.59834e-05
-1.72238e-08
1.59889e-05
-1.6816e-08
1.59941e-05
-1.63913e-08
-1.59585e-08
1.5999e-05
1.41501e-05
-4.14807e-09
1.4154e-05
-1.21356e-08
1.41597e-05
-1.76764e-08
1.41666e-05
-2.1451e-08
1.41741e-05
-2.38977e-08
1.4182e-05
-2.54208e-08
1.41899e-05
-2.62497e-08
1.41978e-05
-2.65364e-08
1.42054e-05
-2.64353e-08
1.42127e-05
-2.60604e-08
1.42196e-05
-2.55177e-08
1.42261e-05
-2.48565e-08
1.42323e-05
-2.41328e-08
1.4238e-05
-2.33684e-08
1.42434e-05
-2.25948e-08
1.42484e-05
-2.18173e-08
1.4253e-05
-2.10533e-08
-2.02936e-08
1.42574e-05
1.26066e-05
-5.70891e-09
1.26108e-05
-1.62929e-08
1.26167e-05
-2.35607e-08
1.26235e-05
-2.82363e-08
1.26307e-05
-3.11712e-08
1.26383e-05
-3.29183e-08
1.26458e-05
-3.37527e-08
1.26531e-05
-3.38672e-08
1.26602e-05
-3.34815e-08
1.26669e-05
-3.27734e-08
1.26733e-05
-3.18587e-08
1.26792e-05
-3.08136e-08
1.26848e-05
-2.97046e-08
1.269e-05
-2.85658e-08
1.26948e-05
-2.74356e-08
1.26993e-05
-2.63204e-08
1.27035e-05
-2.52413e-08
-2.41898e-08
1.27074e-05
1.12316e-05
-7.49306e-09
1.12362e-05
-2.09373e-08
1.12424e-05
-2.97443e-08
1.12492e-05
-3.50707e-08
1.12564e-05
-3.83122e-08
1.12637e-05
-4.01882e-08
1.12709e-05
-4.09241e-08
1.12778e-05
-4.0792e-08
1.12844e-05
-4.00813e-08
1.12906e-05
-3.90054e-08
1.12965e-05
-3.77026e-08
1.13019e-05
-3.62727e-08
1.1307e-05
-3.47793e-08
1.13117e-05
-3.32853e-08
1.13161e-05
-3.18089e-08
1.13202e-05
-3.03861e-08
1.1324e-05
-2.90099e-08
-2.76998e-08
1.13275e-05
1.00068e-05
-9.65146e-09
1.00121e-05
-2.62502e-08
1.00186e-05
-3.6277e-08
1.00255e-05
-4.1911e-08
1.00325e-05
-4.53576e-08
1.00396e-05
-4.72673e-08
1.00465e-05
-4.78205e-08
1.00531e-05
-4.73638e-08
1.00593e-05
-4.62785e-08
1.00651e-05
-4.4816e-08
1.00705e-05
-4.31166e-08
1.00755e-05
-4.12914e-08
1.00802e-05
-3.94259e-08
1.00845e-05
-3.75756e-08
1.00884e-05
-3.57819e-08
1.00921e-05
-3.40573e-08
1.00955e-05
-3.2421e-08
-3.08584e-08
1.00987e-05
8.91582e-06
-1.23694e-08
8.92198e-06
-3.24326e-08
8.9288e-06
-4.31065e-08
8.93564e-06
-4.87699e-08
8.9426e-06
-5.23211e-08
8.94951e-06
-5.41754e-08
8.95613e-06
-5.44362e-08
8.96237e-06
-5.36056e-08
8.96822e-06
-5.21301e-08
8.97366e-06
-5.02592e-08
8.97871e-06
-4.81547e-08
8.98335e-06
-4.59385e-08
8.98764e-06
-4.37042e-08
8.99158e-06
-4.15159e-08
8.99521e-06
-3.94114e-08
8.99857e-06
-3.74144e-08
9.00169e-06
-3.55293e-08
-3.3756e-08
9.00458e-06
7.94418e-06
-1.58899e-08
7.95143e-06
-3.96887e-08
7.95841e-06
-5.01016e-08
7.9652e-06
-5.55598e-08
7.9721e-06
-5.92344e-08
7.97887e-06
-6.09498e-08
7.98528e-06
-6.08531e-08
7.99128e-06
-5.96088e-08
7.99687e-06
-5.77156e-08
8.00204e-06
-5.54335e-08
8.0068e-06
-5.29196e-08
8.01118e-06
-5.03132e-08
8.01519e-06
-4.77155e-08
8.01887e-06
-4.51953e-08
8.02226e-06
-4.27955e-08
8.02539e-06
-4.05375e-08
8.02829e-06
-3.84266e-08
-3.64371e-08
8.03098e-06
7.07891e-06
-2.04744e-08
7.08745e-06
-4.82469e-08
7.0946e-06
-5.72763e-08
7.10149e-06
-6.2468e-08
7.10851e-06
-6.62584e-08
7.11532e-06
-6.777e-08
7.12174e-06
-6.72729e-08
7.12773e-06
-6.56079e-08
7.13331e-06
-6.32975e-08
7.13846e-06
-6.05892e-08
7.1432e-06
-5.76608e-08
7.14755e-06
-5.46604e-08
7.15153e-06
-5.16979e-08
7.15518e-06
-4.88414e-08
7.15853e-06
-4.61435e-08
7.16162e-06
-4.36259e-08
7.1645e-06
-4.12961e-08
-3.91226e-08
7.16719e-06
6.30904e-06
-2.70092e-08
6.31901e-06
-5.82386e-08
6.32711e-06
-6.53955e-08
6.3351e-06
-7.04624e-08
6.34315e-06
-7.43302e-08
6.3509e-06
-7.55236e-08
6.35819e-06
-7.45708e-08
6.36502e-06
-7.24453e-08
6.37139e-06
-6.96682e-08
6.37727e-06
-6.64806e-08
6.38269e-06
-6.30743e-08
6.38763e-06
-5.96128e-08
6.39215e-06
-5.62042e-08
6.39624e-06
-5.2937e-08
6.39996e-06
-4.98598e-08
6.40336e-06
-4.70211e-08
6.40647e-06
-4.44022e-08
-4.19672e-08
6.40932e-06
5.62782e-06
-3.99331e-08
5.6419e-06
-7.2356e-08
5.65535e-06
-7.88762e-08
5.66897e-06
-8.41074e-08
5.68227e-06
-8.76475e-08
5.69474e-06
-8.79983e-08
5.70617e-06
-8.60064e-08
5.71648e-06
-8.27693e-08
5.72561e-06
-7.87984e-08
5.7335e-06
-7.4385e-08
5.7402e-06
-6.97763e-08
5.74576e-06
-6.51666e-08
5.75024e-06
-6.06902e-08
5.75375e-06
-5.64391e-08
5.75636e-06
-5.24779e-08
5.75824e-06
-4.88966e-08
5.75951e-06
-4.56687e-08
-4.30002e-08
5.76055e-06
5.05562e-06
-9.3248e-08
5.0926e-06
-1.09392e-07
5.12293e-06
-1.09241e-07
5.14631e-06
-1.07512e-07
5.16212e-06
-1.0347e-07
5.17072e-06
-9.66175e-08
5.17306e-06
-8.83474e-08
5.17018e-06
-7.99077e-08
5.16314e-06
-7.17666e-08
5.15287e-06
-6.41152e-08
5.14016e-06
-5.7071e-08
5.12567e-06
-5.06752e-08
5.10991e-06
-4.49316e-08
5.09328e-06
-3.98174e-08
5.07612e-06
-3.531e-08
5.05867e-06
-3.14489e-08
5.04129e-06
-2.8284e-08
-2.62052e-08
5.02449e-06
4.3633e-06
4.2539e-06
4.14466e-06
4.03715e-06
3.93368e-06
3.83706e-06
3.74871e-06
3.6688e-06
3.59703e-06
3.53291e-06
3.47584e-06
3.42517e-06
3.38024e-06
3.34042e-06
3.30511e-06
3.27366e-06
3.24538e-06
3.21917e-06
-8.05258e-09
8.04772e-09
-2.19063e-08
1.38423e-08
-3.69315e-08
1.50173e-08
-4.97291e-08
1.27869e-08
-5.52223e-08
5.48648e-09
-4.75722e-08
-7.66055e-09
-2.48275e-08
-2.27501e-08
1.06625e-08
-3.55008e-08
5.48549e-08
-4.41963e-08
1.03035e-07
-4.81883e-08
1.50858e-07
-4.78252e-08
1.95284e-07
-4.44323e-08
2.3434e-07
-3.90581e-08
2.66806e-07
-3.24707e-08
2.91989e-07
-2.5184e-08
3.09474e-07
-1.74899e-08
3.18996e-07
-9.52465e-09
3.20229e-07
-1.24037e-09
3.12988e-07
7.23802e-09
2.97453e-07
1.55227e-08
2.74247e-07
2.32018e-08
2.44335e-07
2.98931e-08
2.09135e-07
3.51937e-08
1.70463e-07
3.86466e-08
1.30652e-07
3.98055e-08
9.22729e-08
3.83467e-08
5.80203e-08
3.42458e-08
2.99891e-08
2.79945e-08
9.29842e-09
2.0685e-08
-4.36369e-09
1.36239e-08
-1.18332e-08
7.46378e-09
-1.3618e-08
1.73878e-09
-9.41053e-09
-4.21212e-09
1.89118e-09
-1.13612e-08
2.19424e-08
-2.00488e-08
5.07833e-08
-2.88951e-08
8.48837e-08
-3.40942e-08
1.18007e-07
-3.31641e-08
1.44737e-07
-2.6725e-08
1.61734e-07
-1.70324e-08
1.68942e-07
-7.21796e-09
1.68923e-07
-2.40809e-11
1.65116e-07
3.78444e-09
1.60842e-07
4.2216e-09
1.58679e-07
2.15049e-09
1.54217e-07
4.39076e-09
1.38382e-07
1.58478e-08
1.0317e-07
3.514e-08
4.24898e-08
6.07201e-08
-4.2441e-08
8.48824e-08
-1.46312e-07
1.03911e-07
-2.66195e-07
1.19858e-07
-3.98929e-07
1.32768e-07
-5.40148e-07
1.41202e-07
-6.84333e-07
1.4421e-07
-8.28106e-07
1.43764e-07
-9.69211e-07
1.41129e-07
-1.10524e-06
1.36022e-07
-1.23347e-06
1.28254e-07
-1.35225e-06
1.18774e-07
-1.46211e-06
1.09871e-07
-1.56343e-06
1.01319e-07
-1.65643e-06
9.30024e-08
-1.7415e-06
8.50614e-08
-1.81934e-06
7.78506e-08
-1.89117e-06
7.18204e-08
-1.95754e-06
6.63735e-08
-2.01911e-06
6.15622e-08
-2.07644e-06
5.73294e-08
-2.13005e-06
5.36077e-08
-2.18037e-06
5.03122e-08
-2.22775e-06
4.73787e-08
-2.2725e-06
4.47429e-08
-2.31486e-06
4.23507e-08
-2.35502e-06
4.01588e-08
-2.39315e-06
3.81274e-08
-2.42939e-06
3.62285e-08
-2.46383e-06
3.44349e-08
-2.49656e-06
3.27285e-08
-2.52766e-06
3.10911e-08
-2.55717e-06
2.95119e-08
-2.58515e-06
2.79784e-08
-2.61164e-06
2.64842e-08
-2.63666e-06
2.50197e-08
-2.66025e-06
2.35809e-08
-2.68241e-06
2.21582e-08
-2.70316e-06
2.07491e-08
-2.72252e-06
1.93447e-08
-2.74046e-06
1.79436e-08
-2.75701e-06
1.65404e-08
-2.77215e-06
1.51327e-08
-2.78588e-06
1.37149e-08
-2.79817e-06
1.22829e-08
-2.80902e-06
1.08296e-08
-2.81838e-06
9.34835e-09
-2.82622e-06
7.82864e-09
-2.83249e-06
6.26198e-09
-2.83714e-06
4.63421e-09
-2.84008e-06
2.93777e-09
-2.84128e-06
1.1995e-09
-2.84083e-06
-4.56376e-10
-2.83893e-06
-1.89695e-09
-2.83574e-06
-3.18856e-09
-2.83129e-06
-4.4462e-09
-2.8256e-06
-5.69058e-09
-2.81866e-06
-6.93053e-09
-2.81049e-06
-8.16939e-09
-2.80109e-06
-9.40483e-09
-2.79045e-06
-1.06391e-08
-2.77859e-06
-1.18686e-08
-2.7655e-06
-1.30956e-08
-2.75119e-06
-1.43164e-08
-2.73568e-06
-1.55333e-08
-2.71895e-06
-1.67429e-08
-2.70102e-06
-1.79471e-08
-2.68191e-06
-1.91433e-08
-2.6616e-06
-2.03323e-08
-2.64012e-06
-2.15129e-08
-2.61747e-06
-2.26847e-08
-2.59366e-06
-2.38483e-08
-2.56869e-06
-2.50014e-08
-2.54259e-06
-2.61465e-08
-2.51534e-06
-2.72795e-08
-2.48698e-06
-2.84049e-08
-2.4575e-06
-2.95162e-08
-2.42691e-06
-3.0619e-08
-2.39523e-06
-3.17044e-08
-2.36248e-06
-3.27799e-08
-2.32865e-06
-3.38365e-08
-2.29378e-06
-3.48789e-08
-2.25788e-06
-3.58981e-08
-2.22097e-06
-3.69063e-08
-2.18307e-06
-3.78947e-08
-2.14422e-06
-3.88577e-08
-2.10443e-06
-3.97802e-08
-2.06378e-06
-4.06576e-08
-2.02229e-06
-4.14736e-08
-1.98005e-06
-4.22168e-08
-1.93698e-06
-4.30475e-08
-1.89301e-06
-4.39467e-08
-1.84823e-06
-4.47488e-08
-1.80269e-06
-4.55071e-08
-1.75642e-06
-4.62253e-08
-1.70946e-06
-4.69091e-08
-1.66186e-06
-4.75626e-08
-1.61363e-06
-4.81879e-08
-1.56483e-06
-4.87916e-08
-1.51548e-06
-4.93652e-08
-1.4656e-06
-4.9905e-08
-1.41524e-06
-5.04033e-08
-1.36443e-06
-5.08591e-08
-1.31322e-06
-5.12686e-08
-1.26165e-06
-5.16366e-08
-1.20976e-06
-5.19587e-08
-1.15758e-06
-5.22404e-08
-1.10517e-06
-5.24845e-08
-1.05255e-06
-5.2694e-08
-9.99753e-07
-5.28768e-08
-9.46792e-07
-5.30354e-08
-8.93695e-07
-5.31774e-08
-8.40467e-07
-5.33034e-08
-7.87128e-07
-5.34182e-08
-7.33683e-07
-5.35183e-08
-6.80154e-07
-5.36054e-08
-6.26546e-07
-5.36756e-08
-5.72881e-07
-5.3734e-08
-5.19163e-07
-5.3779e-08
-4.65406e-07
-5.38193e-08
-4.11608e-07
-5.38527e-08
-3.57781e-07
-5.38826e-08
-3.03929e-07
-5.39012e-08
-2.50086e-07
-5.38929e-08
-1.96309e-07
-5.38196e-08
-1.4271e-07
-5.3641e-08
-8.94741e-08
-5.32697e-08
-3.7033e-08
-5.24717e-08
1.3994e-08
-5.10499e-08
6.19472e-08
-4.79747e-08
1.0626e-07
-4.43311e-08
-2.05199e-08
1.26763e-07
-3.47296e-09
1.15121e-08
-9.50031e-09
1.98479e-08
-1.22322e-08
1.77325e-08
-4.70425e-09
5.23758e-09
1.79777e-08
-1.72069e-08
5.50019e-08
-4.46958e-08
1.01985e-07
-6.97373e-08
1.53435e-07
-8.69576e-08
2.04311e-07
-9.50748e-08
2.51403e-07
-9.52849e-08
2.93253e-07
-8.96778e-08
3.29182e-07
-8.03655e-08
3.59089e-07
-6.89669e-08
3.83164e-07
-5.65488e-08
4.01732e-07
-4.3754e-08
4.15168e-07
-3.09301e-08
4.23889e-07
-1.82479e-08
4.28436e-07
-5.79357e-09
4.29197e-07
6.47481e-09
4.26051e-07
1.86604e-08
4.18533e-07
3.0716e-08
4.06025e-07
4.23887e-08
3.8798e-07
5.32332e-08
3.64023e-07
6.25885e-08
3.34198e-07
6.96243e-08
2.99081e-07
7.3445e-08
2.60022e-07
7.32967e-08
2.19156e-07
6.88386e-08
1.79518e-07
6.0315e-08
1.44672e-07
4.84367e-08
1.18124e-07
3.40019e-08
1.02246e-07
1.75671e-08
9.85524e-08
-5.31168e-10
1.06541e-07
-1.94035e-08
1.24408e-07
-3.79216e-08
1.47019e-07
-5.15466e-08
1.6742e-07
-5.4498e-08
1.80432e-07
-4.62081e-08
1.84352e-07
-3.06487e-08
1.79086e-07
-1.17986e-08
1.65824e-07
6.03521e-09
1.46437e-07
1.93128e-08
1.17171e-07
3.30491e-08
6.84052e-08
5.29267e-08
-9.07522e-09
7.96285e-08
-1.17805e-07
1.13081e-07
-2.50607e-07
1.48651e-07
-3.97813e-07
1.82337e-07
-5.50832e-07
2.13743e-07
-7.06437e-07
2.40483e-07
-8.62651e-07
2.6013e-07
-1.01568e-06
2.72885e-07
-1.16174e-06
2.78829e-07
-1.29825e-06
2.77717e-07
-1.42393e-06
2.69894e-07
-1.53744e-06
2.57267e-07
-1.63816e-06
2.41858e-07
-1.72689e-06
2.24753e-07
-1.8054e-06
2.06772e-07
-1.87552e-06
1.88887e-07
-1.93794e-06
1.72294e-07
-1.99392e-06
1.57299e-07
-2.04469e-06
1.43777e-07
-2.09136e-06
1.31735e-07
-2.13463e-06
1.21113e-07
-2.1748e-06
1.1199e-07
-2.21247e-06
1.04046e-07
-2.24801e-06
9.70986e-08
-2.28167e-06
9.09898e-08
-2.31365e-06
8.55791e-08
-2.34408e-06
8.07414e-08
-2.37307e-06
7.63722e-08
-2.40072e-06
7.23826e-08
-2.42707e-06
6.86995e-08
-2.45218e-06
6.52641e-08
-2.47608e-06
6.20275e-08
-2.49881e-06
5.89515e-08
-2.52039e-06
5.60042e-08
-2.54082e-06
5.31613e-08
-2.56014e-06
5.04018e-08
-2.57834e-06
4.77101e-08
-2.59543e-06
4.50722e-08
-2.61143e-06
4.24776e-08
-2.62633e-06
3.99162e-08
-2.64013e-06
3.73804e-08
-2.65284e-06
3.48614e-08
-2.66445e-06
3.23534e-08
-2.67495e-06
2.98493e-08
-2.68436e-06
2.73446e-08
-2.69266e-06
2.48363e-08
-2.69985e-06
2.23195e-08
-2.70594e-06
1.97921e-08
-2.71092e-06
1.72516e-08
-2.71479e-06
1.46962e-08
-2.71758e-06
1.21251e-08
-2.7193e-06
9.53803e-09
-2.71998e-06
6.93829e-09
-2.71969e-06
4.33347e-09
-2.7185e-06
1.74545e-09
-2.71651e-06
-7.90888e-10
-2.71371e-06
-3.26149e-09
-2.70989e-06
-5.70952e-09
-2.70491e-06
-8.1659e-09
-2.69874e-06
-1.06215e-08
-2.69135e-06
-1.30741e-08
-2.68275e-06
-1.55253e-08
-2.67295e-06
-1.79744e-08
-2.66193e-06
-2.04198e-08
-2.64971e-06
-2.2861e-08
-2.63629e-06
-2.52954e-08
-2.62167e-06
-2.77231e-08
-2.60585e-06
-3.01411e-08
-2.58885e-06
-3.25498e-08
-2.57066e-06
-3.49464e-08
-2.55129e-06
-3.73312e-08
-2.53075e-06
-3.97014e-08
-2.50905e-06
-4.20575e-08
-2.48618e-06
-4.43971e-08
-2.46217e-06
-4.67206e-08
-2.43702e-06
-4.90264e-08
-2.41074e-06
-5.13146e-08
-2.38333e-06
-5.3584e-08
-2.3548e-06
-5.58336e-08
-2.32517e-06
-5.80633e-08
-2.29444e-06
-6.02703e-08
-2.26263e-06
-6.24541e-08
-2.22974e-06
-6.46101e-08
-2.1958e-06
-6.67383e-08
-2.16081e-06
-6.88343e-08
-2.1248e-06
-7.0897e-08
-2.08777e-06
-7.29225e-08
-2.04976e-06
-7.49143e-08
-2.01078e-06
-7.68673e-08
-1.97087e-06
-7.87764e-08
-1.93002e-06
-8.0629e-08
-1.88825e-06
-8.24232e-08
-1.84557e-06
-8.41514e-08
-1.80195e-06
-8.58248e-08
-1.75747e-06
-8.75044e-08
-1.71224e-06
-8.91703e-08
-1.66622e-06
-9.07467e-08
-1.61946e-06
-9.22489e-08
-1.57198e-06
-9.36775e-08
-1.52382e-06
-9.50397e-08
-1.47502e-06
-9.63368e-08
-1.42562e-06
-9.75778e-08
-1.37565e-06
-9.87617e-08
-1.32514e-06
-9.98869e-08
-1.27413e-06
-1.00939e-07
-1.22265e-06
-1.01916e-07
-1.17074e-06
-1.02806e-07
-1.11844e-06
-1.03613e-07
-1.06579e-06
-1.0433e-07
-1.01284e-06
-1.04964e-07
-9.59616e-07
-1.05513e-07
-9.06165e-07
-1.0599e-07
-8.52516e-07
-1.06397e-07
-7.987e-07
-1.06751e-07
-7.44735e-07
-1.07056e-07
-6.90646e-07
-1.07326e-07
-6.36442e-07
-1.07564e-07
-5.8214e-07
-1.07779e-07
-5.27747e-07
-1.07967e-07
-4.7328e-07
-1.08128e-07
-4.18748e-07
-1.08259e-07
-3.64166e-07
-1.08367e-07
-3.0954e-07
-1.08451e-07
-2.5488e-07
-1.08524e-07
-2.00185e-07
-1.08588e-07
-1.45465e-07
-1.08642e-07
-9.07238e-08
-1.08679e-07
-3.59811e-08
-1.08669e-07
1.87233e-08
-1.08554e-07
7.32971e-08
-1.08241e-07
1.2756e-07
-1.07554e-07
1.81246e-07
-1.06174e-07
2.338e-07
-1.03616e-07
2.84687e-07
-9.88704e-08
3.30686e-07
-9.03368e-08
-6.43908e-08
3.74555e-07
3.28311e-10
1.11746e-08
4.14056e-09
1.60147e-08
1.89749e-08
2.88426e-09
5.24248e-08
-2.82233e-08
1.02913e-07
-6.77001e-08
1.60846e-07
-1.02634e-07
2.16571e-07
-1.25466e-07
2.64676e-07
-1.35066e-07
3.03575e-07
-1.33976e-07
3.33962e-07
-1.25675e-07
3.57398e-07
-1.13117e-07
3.75386e-07
-9.83562e-08
3.89082e-07
-8.26648e-08
3.99283e-07
-6.67526e-08
4.06518e-07
-5.09915e-08
4.11149e-07
-3.55642e-08
4.13453e-07
-2.0554e-08
4.13662e-07
-6.00687e-09
4.12073e-07
8.06181e-09
4.09034e-07
2.16938e-08
4.04811e-07
3.49368e-08
3.9942e-07
4.7771e-08
3.92592e-07
6.00571e-08
3.83711e-07
7.14596e-08
3.71935e-07
8.13952e-08
3.56349e-07
8.90179e-08
3.36364e-07
9.32749e-08
3.12115e-07
9.3073e-08
2.84849e-07
8.75718e-08
2.56895e-07
7.63712e-08
2.3125e-07
5.96357e-08
2.10687e-07
3.81022e-08
1.96937e-07
1.3203e-08
1.89971e-07
-1.247e-08
1.85565e-07
-3.35272e-08
1.76343e-07
-4.23497e-08
1.58273e-07
-3.64338e-08
1.31326e-07
-1.92825e-08
9.63809e-08
4.29766e-09
5.17504e-08
3.28106e-08
-7.65305e-09
6.54391e-08
-8.88105e-08
1.00456e-07
-1.94276e-07
1.38512e-07
-3.21364e-07
1.80009e-07
-4.64495e-07
2.22758e-07
-6.15108e-07
2.6369e-07
-7.66685e-07
3.00229e-07
-9.14494e-07
3.30144e-07
-1.05318e-06
3.52436e-07
-1.17947e-06
3.66766e-07
-1.29223e-06
3.72897e-07
-1.39078e-06
3.7143e-07
-1.47522e-06
3.6327e-07
-1.54702e-06
3.49518e-07
-1.60867e-06
3.31542e-07
-1.66242e-06
3.11017e-07
-1.71e-06
2.89437e-07
-1.75302e-06
2.67781e-07
-1.79305e-06
2.46801e-07
-1.83123e-06
2.27068e-07
-1.86794e-06
2.09004e-07
-1.90338e-06
1.92739e-07
-1.9378e-06
1.78194e-07
-1.97136e-06
1.65294e-07
-2.00412e-06
1.53868e-07
-2.03594e-06
1.43811e-07
-2.06682e-06
1.3493e-07
-2.09676e-06
1.27036e-07
-2.12574e-06
1.19969e-07
-2.15375e-06
1.13589e-07
-2.18079e-06
1.07776e-07
-2.20684e-06
1.02426e-07
-2.23192e-06
9.74532e-08
-2.25601e-06
9.2786e-08
-2.27911e-06
8.83652e-08
-2.30123e-06
8.41433e-08
-2.32236e-06
8.00812e-08
-2.34251e-06
7.61477e-08
-2.36167e-06
7.23172e-08
-2.37984e-06
6.8569e-08
-2.39702e-06
6.4886e-08
-2.4132e-06
6.12543e-08
-2.42839e-06
5.76621e-08
-2.44257e-06
5.40992e-08
-2.45575e-06
5.0557e-08
-2.46792e-06
4.70274e-08
-2.47907e-06
4.35038e-08
-2.4892e-06
3.99794e-08
-2.49831e-06
3.64506e-08
-2.50639e-06
3.29124e-08
-2.51344e-06
2.93629e-08
-2.51945e-06
2.57998e-08
-2.52443e-06
2.22218e-08
-2.52837e-06
1.86303e-08
-2.53128e-06
1.50261e-08
-2.53316e-06
1.14132e-08
-2.53403e-06
7.79556e-09
-2.53388e-06
4.18151e-09
-2.53272e-06
5.81623e-10
-2.53051e-06
-2.99581e-09
-2.52721e-06
-6.56165e-09
-2.52278e-06
-1.0142e-08
-2.5172e-06
-1.37439e-08
-2.51046e-06
-1.73571e-08
-2.50255e-06
-2.09748e-08
-2.49348e-06
-2.45949e-08
-2.48324e-06
-2.82131e-08
-2.47183e-06
-3.18282e-08
-2.45926e-06
-3.54366e-08
-2.44552e-06
-3.90371e-08
-2.43062e-06
-4.26269e-08
-2.41456e-06
-4.62049e-08
-2.39735e-06
-4.97686e-08
-2.37899e-06
-5.33168e-08
-2.35949e-06
-5.68474e-08
-2.33884e-06
-6.03585e-08
-2.31707e-06
-6.38488e-08
-2.29416e-06
-6.73164e-08
-2.27014e-06
-7.07608e-08
-2.24501e-06
-7.41802e-08
-2.21877e-06
-7.75747e-08
-2.19143e-06
-8.0942e-08
-2.163e-06
-8.42821e-08
-2.13349e-06
-8.75919e-08
-2.10291e-06
-9.08705e-08
-2.07127e-06
-9.41134e-08
-2.03857e-06
-9.73185e-08
-2.00484e-06
-1.00481e-07
-1.97008e-06
-1.03598e-07
-1.93431e-06
-1.06665e-07
-1.89756e-06
-1.0968e-07
-1.85983e-06
-1.12641e-07
-1.82115e-06
-1.15546e-07
-1.78154e-06
-1.18387e-07
-1.74102e-06
-1.21155e-07
-1.69959e-06
-1.23845e-07
-1.65728e-06
-1.26458e-07
-1.6141e-06
-1.29e-07
-1.5701e-06
-1.31492e-07
-1.52534e-06
-1.33918e-07
-1.47983e-06
-1.36244e-07
-1.43359e-06
-1.38469e-07
-1.38666e-06
-1.40591e-07
-1.33906e-06
-1.42614e-07
-1.29084e-06
-1.4454e-07
-1.24203e-06
-1.46375e-07
-1.19267e-06
-1.48119e-07
-1.14279e-06
-1.49768e-07
-1.09243e-06
-1.51311e-07
-1.04162e-06
-1.52739e-07
-9.90395e-07
-1.54046e-07
-9.38793e-07
-1.55228e-07
-8.8686e-07
-1.56281e-07
-8.34632e-07
-1.57207e-07
-7.82151e-07
-1.58011e-07
-7.2945e-07
-1.58706e-07
-6.76564e-07
-1.593e-07
-6.23518e-07
-1.59811e-07
-5.70338e-07
-1.60252e-07
-5.17041e-07
-1.60637e-07
-4.63642e-07
-1.60976e-07
-4.10155e-07
-1.61279e-07
-3.56588e-07
-1.61545e-07
-3.02953e-07
-1.61772e-07
-2.49263e-07
-1.61959e-07
-1.95526e-07
-1.62112e-07
-1.4175e-07
-1.62235e-07
-8.79393e-08
-1.62341e-07
-3.40926e-08
-1.6244e-07
1.97914e-08
-1.62531e-07
7.37056e-08
-1.62597e-07
1.27629e-07
-1.62596e-07
1.81523e-07
-1.62452e-07
2.35313e-07
-1.62034e-07
2.88877e-07
-1.61121e-07
3.42032e-07
-1.59333e-07
3.94463e-07
-1.5605e-07
4.45783e-07
-1.50194e-07
4.95085e-07
-1.39644e-07
-1.15008e-07
5.45696e-07
-3.40397e-11
1.12005e-08
1.33999e-08
2.5639e-09
5.32519e-08
-3.69759e-08
1.14796e-07
-8.97733e-08
1.80906e-07
-1.33813e-07
2.37698e-07
-1.5943e-07
2.79789e-07
-1.67558e-07
3.08139e-07
-1.63419e-07
3.2631e-07
-1.5215e-07
3.37895e-07
-1.37264e-07
3.45509e-07
-1.20733e-07
3.50704e-07
-1.03555e-07
3.54268e-07
-8.62303e-08
3.56534e-07
-6.90214e-08
3.57619e-07
-5.20783e-08
3.57553e-07
-3.55006e-08
3.56359e-07
-1.93613e-08
3.54072e-07
-3.72333e-09
3.50771e-07
1.13609e-08
3.46596e-07
2.5864e-08
3.41769e-07
3.97616e-08
3.36517e-07
5.30175e-08
3.31011e-07
6.55595e-08
3.25243e-07
7.72196e-08
3.18962e-07
8.76719e-08
3.11627e-07
9.63421e-08
3.02515e-07
1.02381e-07
2.90897e-07
1.04676e-07
2.76427e-07
1.02034e-07
2.59271e-07
9.3508e-08
2.40397e-07
7.84977e-08
2.21129e-07
5.73425e-08
2.0206e-07
3.22579e-08
1.79862e-07
9.69758e-09
1.47626e-07
-1.29829e-09
1.02546e-07
2.70688e-09
4.6028e-08
2.00849e-08
-2.25073e-08
4.92407e-08
-1.05882e-07
8.76749e-08
-2.05387e-07
1.32313e-07
-3.20141e-07
1.80196e-07
-4.48305e-07
2.28619e-07
-5.85496e-07
2.75706e-07
-7.25495e-07
3.20006e-07
-8.62358e-07
3.59623e-07
-9.90659e-07
3.9199e-07
-1.10613e-06
4.15706e-07
-1.20697e-06
4.30978e-07
-1.29253e-06
4.38002e-07
-1.36324e-06
4.37477e-07
-1.42079e-06
4.30444e-07
-1.46737e-06
4.18012e-07
-1.50551e-06
4.01414e-07
-1.53783e-06
3.8183e-07
-1.56668e-06
3.60396e-07
-1.59384e-06
3.38182e-07
-1.62045e-06
3.16046e-07
-1.64725e-06
2.94575e-07
-1.67464e-06
2.74195e-07
-1.70277e-06
2.55192e-07
-1.73149e-06
2.3773e-07
-1.7606e-06
2.21843e-07
-1.78989e-06
2.07485e-07
-1.81917e-06
1.94571e-07
-1.84826e-06
1.82965e-07
-1.87699e-06
1.7254e-07
-1.90521e-06
1.6315e-07
-1.93282e-06
1.54645e-07
-1.95974e-06
1.46889e-07
-1.98592e-06
1.39761e-07
-2.0113e-06
1.33155e-07
-2.03585e-06
1.26978e-07
-2.05955e-06
1.21152e-07
-2.08238e-06
1.15612e-07
-2.10432e-06
1.10303e-07
-2.12536e-06
1.0518e-07
-2.14548e-06
1.00207e-07
-2.16469e-06
9.53543e-08
-2.18298e-06
9.05977e-08
-2.20033e-06
8.59169e-08
-2.21674e-06
8.12953e-08
-2.2322e-06
7.67189e-08
-2.24672e-06
7.21757e-08
-2.26028e-06
6.76557e-08
-2.27287e-06
6.315e-08
-2.2845e-06
5.86509e-08
-2.29515e-06
5.41516e-08
-2.30481e-06
4.96463e-08
-2.3135e-06
4.51297e-08
-2.32118e-06
4.05993e-08
-2.32788e-06
3.60509e-08
-2.33356e-06
3.14834e-08
-2.33824e-06
2.68957e-08
-2.34191e-06
2.22894e-08
-2.34455e-06
1.76656e-08
-2.34617e-06
1.30278e-08
-2.34676e-06
8.37861e-09
-2.3463e-06
3.72331e-09
-2.34479e-06
-9.34436e-10
-2.34219e-06
-5.59419e-09
-2.33849e-06
-1.02654e-08
-2.33367e-06
-1.49599e-08
-2.32773e-06
-1.96786e-08
-2.32067e-06
-2.44134e-08
-2.31248e-06
-2.91572e-08
-2.30317e-06
-3.39054e-08
-2.29273e-06
-3.86531e-08
-2.28116e-06
-4.33973e-08
-2.26846e-06
-4.81337e-08
-2.25464e-06
-5.28606e-08
-2.2397e-06
-5.75743e-08
-2.22363e-06
-6.22737e-08
-2.20645e-06
-6.69554e-08
-2.18816e-06
-7.16183e-08
-2.16876e-06
-7.6259e-08
-2.14825e-06
-8.08758e-08