/*--------------------------------*- C++ -*----------------------------------*\
  =========                 |
  \\      /  F ield         | OpenFOAM: The Open Source CFD Toolbox
   \\    /   O peration     | Website:  https://openfoam.org
    \\  /    A nd           | Version:  8
     \\/     M anipulation  |
\*---------------------------------------------------------------------------*/
FoamFile
{
    version     2.0;
    format      ascii;
    class       volScalarField;
    location    "1100";
    object      p;
}
// * * * * * * * * * * * * * * * * * * * * * * * * * * * * * * * * * * * * * //

dimensions      [0 2 -2 0 0 0 0];

internalField   nonuniform List<scalar> 
12225
(
-4.19101
-5.07698
-5.46986
-5.60147
-5.74204
-5.89595
-6.02388
-6.12561
-6.21544
-6.29974
-6.37638
-6.44198
-6.49998
-6.56178
-6.62877
-6.70094
-6.78776
-6.88102
-4.45161
-5.10064
-5.43323
-5.56314
-5.70514
-5.86004
-5.99124
-6.09507
-6.18297
-6.26648
-6.34418
-6.41372
-6.47648
-6.53691
-6.60402
-6.67714
-6.75169
-6.81488
-4.65907
-5.10047
-5.41696
-5.57311
-5.71706
-5.86664
-5.99488
-6.0964
-6.18236
-6.26432
-6.34116
-6.4104
-6.47296
-6.5325
-6.5959
-6.66204
-6.72635
-6.77825
-4.81057
-5.12784
-5.42707
-5.59125
-5.72559
-5.8636
-5.98568
-6.08525
-6.17129
-6.25223
-6.32782
-6.39637
-6.45889
-6.51854
-6.5795
-6.64099
-6.69912
-6.74681
-4.94168
-5.17828
-5.44547
-5.60751
-5.7346
-5.86416
-5.98203
-6.08065
-6.16646
-6.24593
-6.31984
-6.38734
-6.44951
-6.50865
-6.56713
-6.62436
-6.67743
-6.72168
-5.061
-5.23569
-5.46457
-5.62193
-5.7448
-5.86704
-5.98012
-6.07678
-6.1614
-6.2392
-6.31148
-6.37795
-6.43947
-6.49758
-6.55368
-6.60731
-6.65651
-6.69837
-5.16903
-5.2959
-5.48734
-5.63696
-5.75535
-5.87006
-5.97763
-6.07178
-6.15498
-6.23131
-6.30216
-6.36757
-6.42819
-6.48509
-6.53908
-6.58984
-6.63615
-6.67623
-5.25215
-5.34894
-5.51137
-5.65132
-5.76485
-5.87316
-5.97576
-6.06733
-6.149
-6.22393
-6.29345
-6.35778
-6.41742
-6.47315
-6.52549
-6.57421
-6.61854
-6.65734
-5.31984
-5.39647
-5.53523
-5.66521
-5.77397
-5.87669
-5.97468
-6.06362
-6.14365
-6.21715
-6.28535
-6.34859
-6.40724
-6.46187
-6.51281
-6.55993
-6.60276
-6.64054
-5.38732
-5.44747
-5.56347
-5.68176
-5.78477
-5.88152
-5.97438
-6.06008
-6.13801
-6.20974
-6.27638
-6.33827
-6.3957
-6.44904
-6.49853
-6.5441
-6.58553
-6.62238
-5.45365
-5.50053
-5.5958
-5.70119
-5.79734
-5.88781
-5.97508
-6.05693
-6.13225
-6.20187
-6.26665
-6.32692
-6.38288
-6.43477
-6.48275
-6.52684
-6.56698
-6.60292
-5.51764
-5.55414
-5.63142
-5.72336
-5.81161
-5.89552
-5.9769
-6.05434
-6.12654
-6.19367
-6.25629
-6.31467
-6.36894
-6.41923
-6.46567
-6.50832
-6.54723
-6.58232
-5.57799
-5.60654
-5.66884
-5.74767
-5.82729
-5.90442
-5.97976
-6.05239
-6.121
-6.18528
-6.24545
-6.3017
-6.35408
-6.40266
-6.44755
-6.48882
-6.52657
-6.56081
-5.63313
-5.65572
-5.70602
-5.77287
-5.84369
-5.91398
-5.98333
-6.05095
-6.11564
-6.17679
-6.23431
-6.28824
-6.33861
-6.38542
-6.42875
-6.46868
-6.50535
-6.53877
-5.68106
-5.69925
-5.74033
-5.79701
-5.85954
-5.92323
-5.98688
-6.04962
-6.11032
-6.16821
-6.22298
-6.27456
-6.32287
-6.36792
-6.40973
-6.4484
-6.48403
-6.51673
-5.71902
-5.73411
-5.76854
-5.81729
-5.87278
-5.93066
-5.98928
-6.04762
-6.1046
-6.1594
-6.21156
-6.26087
-6.30725
-6.35063
-6.39105
-6.42856
-6.46328
-6.49531
-5.74311
-5.75623
-5.78642
-5.8299
-5.88039
-5.93393
-5.98873
-6.04368
-6.0977
-6.14997
-6.19996
-6.24739
-6.29213
-6.33413
-6.37338
-6.40994
-6.44391
-6.47541
-5.74704
-5.75951
-5.78831
-5.82995
-5.8785
-5.93019
-5.98325
-6.0366
-6.08916
-6.1401
-6.18887
-6.23522
-6.279
-6.32015
-6.35867
-6.39464
-6.42815
-6.45933
-5.73045
-5.74362
-5.77391
-5.81721
-5.86706
-5.91958
-5.97324
-6.02699
-6.07979
-6.1308
-6.17952
-6.22571
-6.26929
-6.31021
-6.34851
-6.38428
-6.41763
-6.4487
-5.6986
-5.71365
-5.74795
-5.79585
-5.84946
-5.90483
-5.96079
-6.01647
-6.07078
-6.12287
-6.17234
-6.21906
-6.26297
-6.30409
-6.3425
-6.37832
-6.41168
-6.44279
-5.65471
-5.67303
-5.71408
-5.76923
-5.82839
-5.8879
-5.94739
-6.00609
-6.06274
-6.11654
-6.16727
-6.21491
-6.25946
-6.30101
-6.33969
-6.37568
-6.40914
-6.44032
-5.60068
-5.62413
-5.67525
-5.74007
-5.80587
-5.87028
-5.93418
-5.99664
-6.05612
-6.11199
-6.16425
-6.21302
-6.25835
-6.30041
-6.3394
-6.37557
-6.40914
-6.44038
-5.53731
-5.56883
-5.63418
-5.71065
-5.78335
-5.85308
-5.92204
-5.98867
-6.05119
-6.10925
-6.16318
-6.21315
-6.2593
-6.30185
-6.34111
-6.3774
-6.411
-6.44224
-5.46475
-5.50895
-5.59365
-5.68264
-5.76164
-5.837
-5.9116
-5.98257
-6.04803
-6.10826
-6.16384
-6.21499
-6.26188
-6.30485
-6.34429
-6.38061
-6.41417
-6.44536
-5.38209
-5.44639
-5.55664
-5.65755
-5.74125
-5.82235
-5.90297
-5.97824
-6.04652
-6.10882
-6.16597
-6.21819
-6.26569
-6.3089
-6.34833
-6.38449
-6.41783
-6.44881
-5.28898
-5.38316
-5.52478
-5.63593
-5.72288
-5.80948
-5.89567
-5.97467
-6.04544
-6.10975
-6.16848
-6.22181
-6.26998
-6.3135
-6.35297
-6.389
-6.42213
-6.45305
-5.1871
-5.32369
-5.49585
-5.6133
-5.70443
-5.79795
-5.88955
-5.97165
-6.04448
-6.11042
-6.17037
-6.22448
-6.27304
-6.31664
-6.35592
-6.39165
-6.42449
-6.4552
-5.07007
-5.27989
-5.47283
-5.5849
-5.68062
-5.7846
-5.88406
-5.97101
-6.04748
-6.11637
-6.1785
-6.234
-6.28332
-6.32711
-6.36605
-6.40118
-6.43359
-6.46472
-4.89076
-5.25705
-5.48103
-5.57638
-5.6676
-5.77584
-5.87853
-5.96696
-6.04477
-6.11516
-6.17872
-6.23534
-6.28541
-6.32952
-6.36821
-6.40216
-6.43264
-6.461
-4.62429
-5.18234
-5.47112
-5.57621
-5.67497
-5.79176
-5.90013
-5.99142
-6.07063
-6.14183
-6.20582
-6.26261
-6.31254
-6.35616
-6.39389
-6.42542
-6.45148
-6.47251
-7.40993
-7.41004
-7.41009
-7.41008
-7.40978
-7.40857
-7.40605
-7.40271
-7.39952
-7.3975
-7.39762
-7.40008
-7.40437
-7.40973
-7.41538
-7.42065
-7.42499
-7.42797
-7.42959
-7.43019
-7.43005
-7.42939
-7.42844
-7.42748
-7.42675
-7.42634
-7.42617
-7.42608
-7.42588
-7.4255
-7.42496
-7.42427
-7.42338
-7.42219
-7.42081
-7.41952
-7.41898
-7.41986
-7.42222
-7.42534
-7.42824
-7.43039
-7.43197
-7.43347
-7.43537
-7.43824
-7.44183
-7.44503
-7.44732
-7.45041
-7.45782
-7.47366
-7.49851
-7.53173
-7.57342
-7.62365
-7.68193
-7.74701
-7.81691
-7.8896
-7.96292
-8.03493
-8.10461
-8.17097
-8.23305
-8.29042
-8.34298
-8.39065
-8.43353
-8.47167
-8.50523
-8.53426
-8.55891
-8.57921
-8.59525
-8.60704
-8.61462
-8.61796
-8.61706
-8.61189
-8.60239
-8.58854
-8.57027
-8.54755
-8.52029
-8.48846
-8.45194
-8.41062
-8.36437
-8.31312
-8.25688
-8.1956
-8.12922
-8.05767
-7.98085
-7.89868
-7.8111
-7.71814
-7.61986
-7.51616
-7.40655
-7.29082
-7.16913
-7.04157
-6.90816
-6.76893
-6.62387
-6.47304
-6.31646
-6.15418
-5.98628
-5.81282
-5.6339
-5.44963
-5.2601
-5.06546
-4.86582
-4.66135
-4.45218
-4.23848
-4.02042
-3.79818
-3.57193
-3.34187
-3.10819
-2.87109
-2.63077
-2.38742
-2.1413
-1.89261
-1.64163
-1.38853
-1.13356
-0.876952
-0.619017
-0.360092
-0.100392
0.160198
0.421535
0.683239
0.944988
1.20652
1.46758
1.72795
1.98741
2.24574
2.50273
2.75824
3.01207
3.26408
3.51407
3.76186
4.00728
4.25017
4.49041
4.72788
4.96246
5.19408
5.42266
5.64814
5.87047
6.08961
6.3055
6.51812
6.72741
6.93333
7.13586
7.33496
7.53059
7.72271
7.91129
8.09627
8.27759
8.45518
8.62897
8.79893
8.96536
9.12811
9.29025
9.44305
-7.41114
-7.41133
-7.41169
-7.41207
-7.41206
-7.41123
-7.40931
-7.40685
-7.40509
-7.40498
-7.40681
-7.41042
-7.4153
-7.42078
-7.42627
-7.43126
-7.43538
-7.43843
-7.44022
-7.44056
-7.43955
-7.43751
-7.43489
-7.43217
-7.42977
-7.42796
-7.42676
-7.42598
-7.42536
-7.42476
-7.42418
-7.42362
-7.423
-7.42224
-7.42132
-7.42067
-7.42105
-7.42293
-7.42603
-7.42931
-7.43158
-7.43244
-7.43236
-7.43144
-7.42986
-7.42917
-7.43177
-7.43823
-7.44481
-7.45115
-7.46084
-7.47566
-7.49731
-7.52905
-7.57251
-7.62712
-7.69071
-7.76056
-7.83422
-7.90907
-7.98293
-8.05473
-8.12316
-8.18694
-8.24604
-8.30049
-8.35028
-8.39547
-8.43618
-8.4725
-8.50453
-8.53235
-8.55603
-8.57559
-8.59107
-8.60247
-8.60978
-8.61298
-8.61203
-8.60689
-8.59751
-8.58384
-8.56581
-8.54338
-8.51647
-8.48504
-8.44898
-8.40818
-8.3625
-8.31191
-8.25637
-8.19585
-8.13027
-8.05956
-7.98363
-7.90236
-7.81566
-7.72336
-7.62534
-7.52145
-7.41189
-7.29677
-7.17593
-7.0493
-6.91685
-6.77858
-6.6345
-6.48463
-6.32901
-6.16769
-6.00074
-5.82822
-5.65023
-5.46687
-5.27824
-5.08448
-4.88571
-4.68209
-4.47375
-4.26086
-4.04359
-3.82211
-3.5966
-3.36726
-3.13427
-2.89783
-2.65814
-2.4154
-2.16984
-1.92169
-1.67119
-1.41853
-1.16392
-0.907558
-0.649674
-0.390505
-0.130351
0.130391
0.391566
0.653107
0.914718
1.17614
1.43712
1.69746
1.95691
2.21528
2.47235
2.72795
2.98193
3.2341
3.48428
3.73229
3.97796
4.22112
4.46166
4.69943
4.93434
5.16629
5.39521
5.62104
5.84372
6.0632
6.27945
6.49241
6.70206
6.90835
7.11123
7.31069
7.50668
7.69918
7.88814
8.07352
8.25529
8.43343
8.60788
8.7786
8.94584
9.10895
9.27309
9.42518
-7.41245
-7.41244
-7.41247
-7.41255
-7.41263
-7.41266
-7.41288
-7.41379
-7.41589
-7.41929
-7.42381
-7.42909
-7.43469
-7.44019
-7.44522
-7.44947
-7.45275
-7.45494
-7.45596
-7.45577
-7.45438
-7.45193
-7.44861
-7.44462
-7.44021
-7.43567
-7.43128
-7.42732
-7.42397
-7.42133
-7.41934
-7.41777
-7.41635
-7.41514
-7.41464
-7.41556
-7.41845
-7.42299
-7.42769
-7.43068
-7.43064
-7.42843
-7.42614
-7.42539
-7.42583
-7.42727
-7.43213
-7.44192
-7.4558
-7.47416
-7.49803
-7.52776
-7.56392
-7.60703
-7.65687
-7.71252
-7.77265
-7.83567
-7.90015
-7.96471
-8.02824
-8.09002
-8.14935
-8.20555
-8.25831
-8.3075
-8.35298
-8.3947
-8.43263
-8.46675
-8.49707
-8.52356
-8.54623
-8.56505
-8.58001
-8.59105
-8.59816
-8.60128
-8.60036
-8.59535
-8.58617
-8.57277
-8.55509
-8.53305
-8.50661
-8.47568
-8.44019
-8.40001
-8.35503
-8.30518
-8.25044
-8.19076
-8.12606
-8.05627
-7.98129
-7.90104
-7.81541
-7.72428
-7.6275
-7.52493
-7.41662
-7.30265
-7.18297
-7.05751
-6.92626
-6.7892
-6.64634
-6.4977
-6.3433
-6.1832
-6.01746
-5.84615
-5.66936
-5.48718
-5.29972
-5.10712
-4.90949
-4.70698
-4.49973
-4.28792
-4.0717
-3.85125
-3.62674
-3.39837
-3.16632
-2.93079
-2.69198
-2.45009
-2.20533
-1.95795
-1.70817
-1.4562
-1.20223
-0.9465
-0.689235
-0.430675
-0.171081
0.0892175
0.35004
0.611237
0.872541
1.13369
1.39445
1.65461
1.91393
2.17221
2.42923
2.68484
2.93885
3.19109
3.44137
3.68951
3.93533
4.17869
4.41944
4.65745
4.89261
5.12483
5.35402
5.58011
5.80305
6.02279
6.23929
6.4525
6.66239
6.8689
7.072
7.27166
7.46784
7.6605
7.84962
8.03516
8.21706
8.39527
8.56983
8.74077
8.90864
9.07225
9.23906
9.38705
-7.41358
-7.4133
-7.41293
-7.41295
-7.41414
-7.41688
-7.42099
-7.42608
-7.43183
-7.43792
-7.44405
-7.44998
-7.45548
-7.46036
-7.46446
-7.46765
-7.46981
-7.4709
-7.47087
-7.46972
-7.46744
-7.46412
-7.45984
-7.4547
-7.44879
-7.44225
-7.43528
-7.42817
-7.42127
-7.41497
-7.40951
-7.40511
-7.40204
-7.40079
-7.40213
-7.4063
-7.4122
-7.41775
-7.42137
-7.42267
-7.42228
-7.42175
-7.4227
-7.42593
-7.43191
-7.44139
-7.4552
-7.47405
-7.49804
-7.52685
-7.56007
-7.59746
-7.63885
-7.68398
-7.73253
-7.7841
-7.83814
-7.89391
-7.95059
-8.00737
-8.0635
-8.11834
-8.17136
-8.22208
-8.27017
-8.31539
-8.35756
-8.39654
-8.43222
-8.46454
-8.49341
-8.51877
-8.54057
-8.55874
-8.57323
-8.58398
-8.59091
-8.59397
-8.59309
-8.58819
-8.57921
-8.56608
-8.54872
-8.52707
-8.50106
-8.47062
-8.43566
-8.39609
-8.35176
-8.30264
-8.24866
-8.18978
-8.12591
-8.05698
-7.98287
-7.90348
-7.81872
-7.72847
-7.63264
-7.53114
-7.42395
-7.31109
-7.19252
-7.06818
-6.93805
-6.80212
-6.6604
-6.51288
-6.35962
-6.20065
-6.03603
-5.86584
-5.69015
-5.50907
-5.32269
-5.13115
-4.93457
-4.73309
-4.52686
-4.31605
-4.1008
-3.88131
-3.65774
-3.43027
-3.19911
-2.96444
-2.72645
-2.48536
-2.24137
-1.99473
-1.74564
-1.49432
-1.24097
-0.985832
-0.72914
-0.471147
-0.212092
0.0477654
0.308237
0.569101
0.830105
1.09099
1.35154
1.61153
1.87072
2.12891
2.38589
2.6415
2.89554
3.14784
3.39821
3.64647
3.89244
4.13597
4.37691
4.61514
4.85053
5.08298
5.31241
5.53875
5.76194
5.98192
6.19865
6.41208
6.62218
6.8289
7.03219
7.23201
7.42833
7.62112
7.81035
7.99599
8.178
8.35636
8.53111
8.70225
8.87045
9.03396
9.20146
9.34318
-7.41589
-7.4153
-7.41492
-7.41637
-7.42065
-7.42701
-7.43437
-7.44205
-7.44956
-7.45659
-7.463
-7.4687
-7.47367
-7.47782
-7.48108
-7.48335
-7.48459
-7.48474
-7.48377
-7.48166
-7.47843
-7.4741
-7.46873
-7.46237
-7.4551
-7.44697
-7.43809
-7.42866
-7.41903
-7.4097
-7.40129
-7.39461
-7.39066
-7.39039
-7.39374
-7.39882
-7.40388
-7.40816
-7.41145
-7.41422
-7.41729
-7.42182
-7.42882
-7.43923
-7.45386
-7.47304
-7.4964
-7.52334
-7.55361
-7.58688
-7.6229
-7.66166
-7.70311
-7.74713
-7.79351
-7.84188
-7.89182
-7.9428
-7.99425
-8.04561
-8.09637
-8.14606
-8.19426
-8.24061
-8.28483
-8.32666
-8.36591
-8.40241
-8.43602
-8.46662
-8.49409
-8.51832
-8.53921
-8.55669
-8.57064
-8.581
-8.58767
-8.59057
-8.58962
-8.58474
-8.57585
-8.56288
-8.54574
-8.52437
-8.49869
-8.46863
-8.43412
-8.39503
-8.35127
-8.30274
-8.24943
-8.19125
-8.12811
-8.05993
-7.98659
-7.90801
-7.82404
-7.73462
-7.63964
-7.53906
-7.43282
-7.32091
-7.20326
-7.07986
-6.95066
-6.81567
-6.67486
-6.52828
-6.37593
-6.21787
-6.05415
-5.88485
-5.71004
-5.52982
-5.3443
-5.15359
-4.95784
-4.75717
-4.55174
-4.34171
-4.12724
-3.90849
-3.68566
-3.45891
-3.22844
-2.99444
-2.75711
-2.51665
-2.27328
-2.02721
-1.77867
-1.52785
-1.27499
-1.02031
-0.764061
-0.506475
-0.247802
0.0117388
0.271921
0.532527
0.793285
1.05398
1.31435
1.5742
1.83329
2.09142
2.34838
2.60399
2.85807
3.11043
3.36087
3.60923
3.85531
4.09898
4.34008
4.57847
4.81404
5.04668
5.2763
5.50284
5.72622
5.9464
6.16333
6.37695
6.58722
6.7941
6.99755
7.19753
7.394
7.58693
7.77629
7.96205
8.14419
8.32267
8.49754
8.6687
8.83683
8.99965
9.16657
9.3015
-7.42018
-7.41927
-7.41982
-7.42437
-7.43191
-7.44045
-7.4491
-7.45738
-7.46498
-7.47184
-7.47794
-7.48328
-7.48779
-7.49142
-7.49408
-7.49571
-7.49627
-7.49571
-7.49402
-7.49119
-7.48722
-7.48214
-7.47597
-7.46871
-7.46036
-7.45103
-7.44086
-7.43004
-7.41896
-7.4083
-7.39888
-7.39199
-7.38868
-7.38879
-7.39085
-7.3936
-7.39692
-7.4012
-7.40673
-7.41352
-7.42186
-7.43291
-7.44769
-7.46635
-7.48862
-7.5141
-7.54252
-7.5735
-7.60679
-7.64221
-7.67963
-7.71898
-7.76014
-7.80299
-7.84733
-7.89289
-7.93938
-7.98642
-8.03365
-8.08069
-8.12718
-8.17277
-8.21715
-8.26
-8.30106
-8.34011
-8.37693
-8.41135
-8.44318
-8.47227
-8.49849
-8.52169
-8.54174
-8.55853
-8.57195
-8.58189
-8.58825
-8.59093
-8.58984
-8.5849
-8.57603
-8.56312
-8.54612
-8.52493
-8.49949
-8.46972
-8.43554
-8.39684
-8.35351
-8.3055
-8.25272
-8.19513
-8.13261
-8.06507
-7.99239
-7.91445
-7.83117
-7.74245
-7.6482
-7.54836
-7.44288
-7.33172
-7.21482
-7.09215
-6.96368
-6.8294
-6.6893
-6.54341
-6.39175
-6.23436
-6.0713
-5.90265
-5.72848
-5.54888
-5.36397
-5.17387
-4.97871
-4.77862
-4.57376
-4.36428
-4.15035
-3.93215
-3.70984
-3.48361
-3.25364
-3.02012
-2.78327
-2.54326
-2.30033
-2.05468
-1.80653
-1.55608
-1.30358
-1.04924
-0.793299
-0.536007
-0.277595
-0.0182831
0.24169
0.502096
0.76268
1.02322
1.28347
1.54322
1.80224
2.06032
2.31727
2.57289
2.827
3.07939
3.32989
3.57831
3.82448
4.06823
4.30943
4.54792
4.7836
5.01636
5.2461
5.47277
5.69627
5.91658
6.13362
6.34736
6.55775
6.76474
6.96829
7.16836
7.36492
7.55793
7.74736
7.93318
8.11536
8.29386
8.4687
8.6397
8.80747
8.96927
9.13537
9.26367
-7.42548
-7.42505
-7.42785
-7.43516
-7.44404
-7.45285
-7.46125
-7.46908
-7.4763
-7.48285
-7.4887
-7.49375
-7.49795
-7.50121
-7.50347
-7.50466
-7.50476
-7.50374
-7.50157
-7.49826
-7.49382
-7.48827
-7.48154
-7.47357
-7.46449
-7.45449
-7.44379
-7.43267
-7.4216
-7.41136
-7.40313
-7.39772
-7.39465
-7.39294
-7.39249
-7.39376
-7.3974
-7.40334
-7.41148
-7.42243
-7.43676
-7.45447
-7.47535
-7.49917
-7.52569
-7.55458
-7.58562
-7.61865
-7.65349
-7.68999
-7.72797
-7.76731
-7.80788
-7.84954
-7.89212
-7.93545
-7.9793
-8.02343
-8.06759
-8.1115
-8.15489
-8.19749
-8.23903
-8.27925
-8.31793
-8.35484
-8.38977
-8.42252
-8.45292
-8.48079
-8.50596
-8.52827
-8.54759
-8.56376
-8.57667
-8.5862
-8.59222
-8.59465
-8.59338
-8.58831
-8.57937
-8.56647
-8.54951
-8.52842
-8.50313
-8.47355
-8.43962
-8.40121
-8.35824
-8.3106
-8.25828
-8.20117
-8.13916
-8.07212
-7.99998
-7.92258
-7.83985
-7.75169
-7.65803
-7.55877
-7.45388
-7.34329
-7.22696
-7.10483
-6.9769
-6.84313
-6.70354
-6.55813
-6.40694
-6.25001
-6.0874
-5.91917
-5.74541
-5.56623
-5.38171
-5.192
-4.99721
-4.79749
-4.59299
-4.38388
-4.1703
-3.95245
-3.73048
-3.50459
-3.27495
-3.04176
-2.80521
-2.56551
-2.32287
-2.0775
-1.82961
-1.57942
-1.32716
-1.07305
-0.817331
-0.560244
-0.302005
-0.0428588
0.216972
0.477232
0.737702
0.99813
1.2583
1.51798
1.77695
2.035
2.29194
2.54757
2.80169
3.05411
3.30464
3.5531
3.79931
4.04311
4.28435
4.52288
4.75861
4.99141
5.22121
5.44792
5.67148
5.89184
6.10894
6.32273
6.53316
6.74018
6.94376
7.14385
7.34043
7.53345
7.7229
7.90871
8.09086
8.26928
8.44397
8.61467
8.78194
8.94262
9.10792
9.23009
-7.4296
-7.43047
-7.43594
-7.44431
-7.45286
-7.46104
-7.46887
-7.47629
-7.48322
-7.48956
-7.49522
-7.50009
-7.50409
-7.50714
-7.50918
-7.51014
-7.51
-7.50873
-7.50632
-7.50278
-7.49812
-7.49226
-7.48512
-7.47686
-7.46774
-7.45788
-7.44752
-7.4371
-7.42738
-7.41914
-7.41271
-7.40752
-7.40299
-7.39976
-7.39876
-7.40034
-7.40494
-7.41309
-7.42486
-7.4401
-7.45854
-7.47993
-7.50404
-7.53057
-7.5593
-7.59002
-7.62253
-7.65666
-7.69224
-7.72911
-7.76713
-7.80617
-7.84611
-7.8868
-7.92812
-7.9699
-8.01197
-8.05416
-8.09625
-8.13804
-8.17932
-8.21984
-8.2594
-8.29777
-8.33474
-8.3701
-8.40364
-8.43516
-8.46448
-8.4914
-8.51574
-8.53734
-8.55603
-8.57168
-8.58413
-8.59325
-8.59894
-8.60109
-8.59959
-8.59435
-8.58529
-8.57231
-8.55533
-8.53426
-8.50904
-8.47957
-8.4458
-8.40761
-8.36488
-8.31758
-8.2656
-8.20887
-8.14725
-8.08063
-8.00889
-7.93193
-7.84963
-7.76193
-7.6687
-7.5699
-7.46544
-7.35527
-7.23934
-7.1176
-6.99002
-6.8566
-6.71733
-6.57223
-6.42133
-6.26466
-6.1023
-5.93432
-5.76079
-5.58183
-5.39752
-5.20801
-5.01342
-4.8139
-4.60959
-4.40067
-4.18729
-3.96963
-3.74786
-3.52216
-3.29271
-3.05971
-2.82335
-2.58383
-2.34137
-2.09617
-1.84844
-1.59841
-1.34631
-1.09235
-0.836768
-0.579807
-0.321682
-0.0626426
0.197085
0.457252
0.717638
0.977998
1.23811
1.49774
1.75668
2.01473
2.27167
2.5273
2.78143
3.03386
3.2844
3.53288
3.77911
4.02291
4.26415
4.50269
4.73841
4.97121
5.20101
5.42772
5.65129
5.87165
6.08876
6.30254
6.51295
6.71995
6.92349
7.12355
7.32009
7.51308
7.70248
7.88823
8.07029
8.24858
8.42303
8.59336
8.76005
8.91961
9.08419
9.20084
-7.43083
-7.43339
-7.44042
-7.44848
-7.45634
-7.46402
-7.47151
-7.4787
-7.48548
-7.49173
-7.49733
-7.50216
-7.50613
-7.50915
-7.51116
-7.5121
-7.51195
-7.51068
-7.50828
-7.50474
-7.50002
-7.49406
-7.48695
-7.47895
-7.47025
-7.46108
-7.45189
-7.44317
-7.43533
-7.42839
-7.42211
-7.41637
-7.4115
-7.40848
-7.40821
-7.41127
-7.41803
-7.42858
-7.44263
-7.45999
-7.48039
-7.50353
-7.52917
-7.55704
-7.5869
-7.61856
-7.65181
-7.68648
-7.7224
-7.75942
-7.7974
-7.83622
-7.87574
-7.91582
-7.95635
-7.99718
-8.03818
-8.07917
-8.11999
-8.16046
-8.20039
-8.23961
-8.2779
-8.31507
-8.35093
-8.38527
-8.41788
-8.44856
-8.47712
-8.50336
-8.52709
-8.54813
-8.56632
-8.58151
-8.59354
-8.60229
-8.60763
-8.60947
-8.6077
-8.60225
-8.59301
-8.57989
-8.56282
-8.5417
-8.51647
-8.48705
-8.45336
-8.41531
-8.37279
-8.32571
-8.27402
-8.21759
-8.15627
-8.08997
-8.01855
-7.94193
-7.85996
-7.77259
-7.67969
-7.58122
-7.47705
-7.36717
-7.25149
-7.13
-7.00264
-6.86942
-6.73032
-6.58537
-6.43459
-6.27805
-6.11579
-5.94789
-5.77444
-5.59554
-5.4113
-5.22184
-5.0273
-4.82782
-4.62358
-4.41471
-4.2014
-3.98381
-3.76213
-3.53651
-3.30715
-3.07423
-2.83796
-2.59852
-2.35615
-2.11103
-1.86339
-1.61346
-1.36145
-1.10757
-0.852074
-0.59518
-0.337133
-0.0781541
0.181498
0.441612
0.701935
0.962251
1.22231
1.48192
1.74084
1.99887
2.2558
2.51143
2.76555
3.01797
3.26852
3.517
3.7632
4.00699
4.24819
4.48669
4.72237
4.95513
5.18487
5.41154
5.63505
5.85538
6.07245
6.28617
6.49652
6.70344
6.90691
7.10689
7.30336
7.49627
7.6856
7.87126
8.05318
8.23128
8.40546
8.57536
8.74144
8.89993
9.06383
9.17567
-7.42761
-7.43156
-7.43875
-7.44626
-7.4538
-7.4613
-7.46869
-7.47586
-7.48269
-7.48904
-7.49478
-7.49978
-7.50394
-7.50717
-7.50937
-7.51051
-7.51053
-7.50941
-7.50714
-7.50369
-7.49907
-7.4933
-7.48657
-7.47916
-7.47134
-7.46342
-7.45566
-7.44814
-7.44093
-7.43415
-7.42791
-7.42255
-7.41871
-7.41715
-7.41848
-7.42312
-7.43128
-7.44302
-7.45816
-7.47652
-7.49783
-7.52182
-7.5482
-7.57673
-7.60717
-7.63932
-7.67299
-7.70798
-7.74415
-7.78134
-7.8194
-7.85818
-7.89756
-7.93741
-7.97761
-8.01802
-8.0585
-8.09891
-8.13909
-8.1789
-8.21815
-8.25668
-8.29431
-8.33083
-8.36608
-8.39985
-8.43193
-8.46212
-8.4902
-8.51597
-8.53924
-8.55984
-8.5776
-8.59235
-8.60397
-8.61233
-8.61731
-8.61881
-8.61676
-8.61105
-8.60159
-8.5883
-8.57109
-8.54987
-8.52457
-8.49514
-8.46149
-8.42354
-8.38114
-8.33426
-8.28277
-8.22656
-8.16549
-8.09941
-8.02825
-7.95186
-7.87015
-7.78301
-7.69034
-7.59207
-7.48811
-7.3784
-7.26288
-7.14151
-7.01425
-6.8811
-6.74205
-6.59713
-6.44636
-6.28981
-6.12752
-5.95959
-5.7861
-5.60714
-5.42284
-5.23333
-5.03873
-4.8392
-4.6349
-4.426
-4.21267
-3.99507
-3.77338
-3.54776
-3.31841
-3.08551
-2.84924
-2.60982
-2.36747
-2.12239
-1.87479
-1.62491
-1.37295
-1.11911
-0.863658
-0.606806
-0.348801
-0.0898724
0.169735
0.429803
0.690086
0.950359
1.21039
1.46996
1.72886
1.98688
2.24379
2.49939
2.75349
3.00589
3.25643
3.5049
3.75107
3.99479
4.23592
4.47434
4.70993
4.94261
5.17226
5.39884
5.62228
5.84254
6.05952
6.27316
6.4834
6.69021
6.89356
7.09344
7.28979
7.48261
7.67183
7.85736
8.03912
8.21699
8.39086
8.56029
8.72575
8.8832
9.04645
9.15422
-7.41795
-7.42255
-7.42945
-7.43696
-7.4447
-7.45241
-7.45999
-7.46738
-7.47447
-7.48113
-7.48722
-7.49258
-7.49709
-7.50063
-7.50314
-7.50455
-7.50483
-7.50395
-7.50191
-7.49874
-7.49448
-7.48927
-7.48331
-7.4768
-7.46988
-7.46273
-7.4555
-7.44831
-7.44129
-7.43474
-7.42906
-7.4247
-7.42212
-7.42186
-7.42445
-7.43022
-7.43937
-7.45193
-7.46779
-7.48678
-7.50863
-7.53309
-7.5599
-7.58882
-7.61964
-7.65216
-7.68618
-7.72153
-7.75802
-7.79551
-7.83381
-7.87281
-7.91237
-7.95235
-7.99262
-8.03305
-8.07351
-8.11385
-8.15394
-8.19361
-8.23272
-8.27108
-8.3085
-8.34482
-8.37983
-8.41335
-8.44517
-8.47508
-8.50287
-8.52833
-8.55126
-8.5715
-8.58887
-8.60323
-8.61443
-8.62237
-8.62696
-8.62811
-8.62572
-8.61972
-8.61002
-8.59652
-8.57912
-8.55775
-8.53234
-8.50283
-8.46918
-8.43128
-8.38901
-8.34223
-8.29092
-8.23486
-8.17396
-8.10806
-8.03708
-7.96087
-7.87935
-7.79236
-7.69986
-7.60171
-7.49787
-7.38824
-7.2728
-7.15146
-7.02423
-6.89105
-6.75197
-6.60698
-6.45613
-6.29948
-6.13709
-5.96904
-5.79542
-5.61633
-5.4319
-5.24225
-5.04752
-4.84787
-4.64345
-4.43447
-4.22106
-4.0034
-3.78166
-3.55601
-3.32661
-3.09367
-2.85737
-2.61794
-2.37558
-2.13051
-1.88293
-1.63309
-1.38115
-1.12734
-0.871913
-0.615104
-0.357133
-0.098258
0.161313
0.421329
0.681574
0.9418
1.2018
1.46134
1.72022
1.9782
2.23508
2.49064
2.74469
2.99705
3.24757
3.496
3.7421
3.98572
4.22675
4.46505
4.70052
4.93307
5.1626
5.38906
5.61238
5.83255
6.04944
6.26295
6.47305
6.67972
6.88294
7.08268
7.27891
7.47161
7.66072
7.84611
8.02768
8.20529
8.37882
8.54778
8.71262
8.86911
9.03171
9.13613
-7.40029
-7.40488
-7.41197
-7.42026
-7.42872
-7.43693
-7.44489
-7.45264
-7.46016
-7.46732
-7.47392
-7.47978
-7.48473
-7.48869
-7.49161
-7.49341
-7.49408
-7.49362
-7.49203
-7.48936
-7.4857
-7.48113
-7.47579
-7.46983
-7.46337
-7.45656
-7.44953
-7.4425
-7.43578
-7.42973
-7.42469
-7.42108
-7.41942
-7.42018
-7.42378
-7.4305
-7.44051
-7.4538
-7.47028
-7.48977
-7.51204
-7.53688
-7.56404
-7.59334
-7.62455
-7.65749
-7.69195
-7.72774
-7.7647
-7.80265
-7.84144
-7.88093
-7.92097
-7.96143
-8.00215
-8.04299
-8.08381
-8.12447
-8.16484
-8.20475
-8.24405
-8.28257
-8.32013
-8.35655
-8.39163
-8.42516
-8.45694
-8.48675
-8.51439
-8.53962
-8.56227
-8.58216
-8.59914
-8.61306
-8.62379
-8.63123
-8.63535
-8.63605
-8.63327
-8.62693
-8.61694
-8.6032
-8.58559
-8.56401
-8.53842
-8.50879
-8.47512
-8.43728
-8.39508
-8.34847
-8.29726
-8.24136
-8.18058
-8.11484
-8.044
-7.96795
-7.88656
-7.79972
-7.70731
-7.60925
-7.50548
-7.39591
-7.28048
-7.15914
-7.03186
-6.89862
-6.75945
-6.61435
-6.46338
-6.30659
-6.14406
-5.97585
-5.80206
-5.62281
-5.43821
-5.2484
-5.0535
-4.85369
-4.64915
-4.44006
-4.22657
-4.00885
-3.78704
-3.56134
-3.3319
-3.09892
-2.86258
-2.62313
-2.38077
-2.13572
-1.88818
-1.63836
-1.38645
-1.13269
-0.877298
-0.620534
-0.362616
-0.103792
0.155725
0.415689
0.675879
0.936058
1.19601
1.45551
1.71434
1.97228
2.22911
2.4846
2.73859
2.99088
3.24138
3.4898
3.73581
3.9793
4.22017
4.45833
4.69365
4.92605
5.15543
5.38174
5.60493
5.825
6.04178
6.25514
6.46508
6.67159
6.87464
7.07423
7.27032
7.4629
7.65189
7.83712
8.01848
8.19583
8.369
8.53748
8.70171
8.85729
9.01922
9.12102
-7.37423
-7.37868
-7.3867
-7.39642
-7.4059
-7.41468
-7.42309
-7.43138
-7.43962
-7.44757
-7.45493
-7.46145
-7.46699
-7.47148
-7.4749
-7.47723
-7.47844
-7.47852
-7.47749
-7.47538
-7.47224
-7.46817
-7.46325
-7.45759
-7.45132
-7.44461
-7.43771
-7.43088
-7.42443
-7.41869
-7.4141
-7.41113
-7.41024
-7.41187
-7.41635
-7.42392
-7.43468
-7.44863
-7.46564
-7.48557
-7.50823
-7.53344
-7.56099
-7.59072
-7.62241
-7.65589
-7.69095
-7.72739
-7.765
-7.80363
-7.84312
-7.88332
-7.92407
-7.96521
-8.00661
-8.0481
-8.08957
-8.13084
-8.17177
-8.21219
-8.25195
-8.29088
-8.32882
-8.36555
-8.40088
-8.4346
-8.4665
-8.49633
-8.52383
-8.54878
-8.571
-8.59037
-8.60679
-8.62009
-8.63014
-8.63692
-8.64043
-8.64063
-8.63743
-8.63076
-8.62054
-8.6066
-8.58881
-8.56704
-8.54121
-8.5114
-8.47769
-8.43994
-8.3979
-8.3514
-8.30034
-8.24457
-8.18392
-8.11835
-8.04767
-7.97181
-7.89055
-7.80383
-7.71151
-7.61355
-7.50983
-7.40032
-7.28491
-7.16357
-7.03624
-6.90294
-6.76366
-6.61846
-6.46737
-6.31045
-6.14778
-5.97942
-5.80548
-5.62607
-5.44133
-5.25137
-5.05633
-4.85638
-4.65174
-4.44257
-4.22902
-4.01124
-3.7894
-3.56367
-3.33423
-3.10124
-2.86491
-2.62548
-2.38317
-2.13817
-1.8907
-1.64094
-1.3891
-1.1354
-0.880107
-0.623423
-0.365608
-0.106868
0.152546
0.412422
0.672512
0.932608
1.19247
1.4519
1.71064
1.96849
2.22521
2.48061
2.73447
2.98668
3.23721
3.48568
3.73159
3.97492
4.21562
4.45361
4.68876
4.92098
5.1502
5.37635
5.59941
5.81942
6.03611
6.2493
6.45905
6.66538
6.86827
7.06771
7.26365
7.45612
7.64499
7.83006
8.01121
8.18827
8.36109
8.52909
8.69274
8.84748
9.00869
9.10856
-7.34103
-7.34581
-7.35536
-7.3669
-7.37749
-7.38702
-7.39621
-7.40523
-7.4142
-7.42309
-7.43156
-7.43911
-7.44537
-7.45038
-7.45432
-7.45722
-7.45902
-7.45968
-7.45919
-7.45755
-7.45483
-7.45105
-7.44631
-7.44073
-7.4345
-7.4278
-7.42089
-7.41405
-7.40766
-7.40214
-7.39794
-7.3955
-7.39527
-7.39762
-7.40282
-7.41107
-7.42242
-7.43687
-7.45433
-7.47469
-7.49776
-7.5234
-7.55141
-7.58164
-7.61389
-7.64799
-7.6837
-7.72084
-7.75922
-7.79866
-7.83899
-7.88004
-7.92165
-7.96364
-8.00588
-8.04821
-8.09048
-8.13253
-8.17419
-8.21529
-8.25565
-8.29511
-8.33347
-8.37054
-8.40612
-8.43997
-8.47187
-8.50153
-8.52869
-8.55307
-8.57456
-8.59315
-8.60877
-8.62124
-8.6303
-8.6361
-8.63888
-8.6386
-8.63512
-8.62833
-8.61811
-8.60423
-8.58647
-8.56467
-8.53866
-8.5086
-8.47482
-8.43719
-8.39531
-8.34897
-8.298
-8.24231
-8.1818
-8.11637
-8.0459
-7.97018
-7.88907
-7.80242
-7.71018
-7.61227
-7.50863
-7.39916
-7.28378
-7.16242
-7.03504
-6.90165
-6.76227
-6.61695
-6.46575
-6.30871
-6.14591
-5.97741
-5.80332
-5.62377
-5.43889
-5.24883
-5.05373
-4.85375
-4.64905
-4.4398
-4.22615
-4.00828
-3.78638
-3.56063
-3.33121
-3.09831
-2.86211
-2.62284
-2.38069
-2.13587
-1.88857
-1.63897
-1.3873
-1.1338
-0.878713
-0.622249
-0.364654
-0.106143
0.153041
0.412679
0.672536
0.932396
1.19203
1.45122
1.70972
1.9673
2.22376
2.47887
2.73245
2.98437
3.23478
3.4832
3.72894
3.97204
4.21254
4.45031
4.68527
4.91731
5.14635
5.37232
5.59528
5.81533
6.03201
6.24503
6.45459
6.66074
6.86347
7.06276
7.25858
7.45098
7.63979
7.82471
8.00562
8.18241
8.35487
8.5224
8.68548
8.83943
8.99987
9.09848
-7.30374
-7.30943
-7.32103
-7.33478
-7.34654
-7.35636
-7.36597
-7.37608
-7.38636
-7.39643
-7.406
-7.41462
-7.42172
-7.4273
-7.43174
-7.4352
-7.43756
-7.43873
-7.43869
-7.4374
-7.4349
-7.43124
-7.42652
-7.42086
-7.41444
-7.40751
-7.40036
-7.39337
-7.38694
-7.38152
-7.37755
-7.37547
-7.37565
-7.37845
-7.38408
-7.39271
-7.40439
-7.41914
-7.43688
-7.45753
-7.48093
-7.50694
-7.5354
-7.56615
-7.59899
-7.63371
-7.6701
-7.70798
-7.74716
-7.78746
-7.82868
-7.87065
-7.91319
-7.95613
-7.9993
-8.04253
-8.08563
-8.12842
-8.17073
-8.21236
-8.25316
-8.29293
-8.33148
-8.36863
-8.40416
-8.43784
-8.46942
-8.49861
-8.52504
-8.54831
-8.56852
-8.58596
-8.60061
-8.6121
-8.61974
-8.62396
-8.62569
-8.62486
-8.62125
-8.61464
-8.60478
-8.59134
-8.57406
-8.55282
-8.52768
-8.49863
-8.46557
-8.42832
-8.38667
-8.34042
-8.28957
-8.23395
-8.17356
-8.10824
-8.03789
-7.96224
-7.88119
-7.79455
-7.70233
-7.6044
-7.50074
-7.39123
-7.2758
-7.15434
-7.02683
-6.89327
-6.75373
-6.60822
-6.45682
-6.29958
-6.13657
-5.96786
-5.79356
-5.6138
-5.42873
-5.23852
-5.04331
-4.84326
-4.63847
-4.4291
-4.21533
-3.99735
-3.77537
-3.54959
-3.32019
-3.08738
-2.85133
-2.61223
-2.37027
-2.12567
-1.87857
-1.62919
-1.37776
-1.12454
-0.869718
-0.613558
-0.356259
-0.0980732
0.16079
0.420084
0.679602
0.939106
1.19838
1.45719
1.71529
1.97246
2.22848
2.48311
2.73615
2.9874
3.23671
3.48396
3.729
3.97166
4.21176
4.44917
4.68377
4.91546
5.14415
5.36978
5.59247
5.81243
6.02903
6.24183
6.45119
6.65717
6.85975
7.05892
7.25464
7.44707
7.63593
7.82075
8.00145
8.17796
8.35009
8.51719
8.67974
8.83295
8.99259
9.09058
-7.26601
-7.27293
-7.28704
-7.30272
-7.3148
-7.32509
-7.33582
-7.3471
-7.35849
-7.36966
-7.38032
-7.38994
-7.39788
-7.40413
-7.4092
-7.41327
-7.41619
-7.41783
-7.41815
-7.41708
-7.41466
-7.41092
-7.40596
-7.39995
-7.3931
-7.38569
-7.37809
-7.37068
-7.36392
-7.35824
-7.3541
-7.35189
-7.35198
-7.35469
-7.36024
-7.36878
-7.38038
-7.39508
-7.41281
-7.43352
-7.45708
-7.48338
-7.51226
-7.54354
-7.57699
-7.61239
-7.64953
-7.68823
-7.72828
-7.76948
-7.81163
-7.85451
-7.89793
-7.9417
-7.98564
-8.02954
-8.07322
-8.11645
-8.15908
-8.20091
-8.24178
-8.28148
-8.31985
-8.3567
-8.39183
-8.42503
-8.45605
-8.48454
-8.50989
-8.5312
-8.5489
-8.56425
-8.57764
-8.58882
-8.59721
-8.60242
-8.60442
-8.60343
-8.59967
-8.59303
-8.58324
-8.56995
-8.55288
-8.53206
-8.50775
-8.47969
-8.44731
-8.41038
-8.36889
-8.32287
-8.27218
-8.2168
-8.1566
-8.09147
-8.02124
-7.94574
-7.86479
-7.7783
-7.68618
-7.58838
-7.48479
-7.37533
-7.25992
-7.13846
-7.01092
-6.87733
-6.73773
-6.59215
-6.44066
-6.28331
-6.12018
-5.95134