/*--------------------------------*- C++ -*----------------------------------*\
  =========                 |
  \\      /  F ield         | OpenFOAM: The Open Source CFD Toolbox
   \\    /   O peration     | Website:  https://openfoam.org
    \\  /    A nd           | Version:  8
     \\/     M anipulation  |
\*---------------------------------------------------------------------------*/
FoamFile
{
    version     2.0;
    format      ascii;
    class       volScalarField;
    location    "1100";
    object      nut;
}
// * * * * * * * * * * * * * * * * * * * * * * * * * * * * * * * * * * * * * //

dimensions      [0 2 -1 0 0 0 0];

internalField   nonuniform List<scalar> 
12225
(
2.86502e-06
1.7096e-05
2.03141e-05
1.62458e-05
1.71525e-05
1.76224e-05
1.43757e-05
3.36367e-05
2.89244e-05
1.89076e-05
1.82367e-05
1.74411e-05
2.56705e-05
3.79381e-05
3.0691e-05
2.08871e-05
1.89998e-05
1.81976e-05
5.6894e-05
3.82576e-05
2.80554e-05
2.28192e-05
2.36063e-05
2.42411e-05
2.71492e-05
3.68165e-05
3.33259e-05
3.2965e-05
3.24826e-05
3.43923e-05
3.80832e-05
4.38288e-05
4.68368e-05
4.68618e-05
5.02082e-05
4.83976e-05
0.000232772
0.000178119
0.000111455
7.37059e-05
5.5566e-05
4.68578e-05
4.22605e-05
4.06894e-05
3.77205e-05
3.58572e-05
3.48953e-05
3.44332e-05
3.42825e-05
3.40592e-05
3.43541e-05
3.45587e-05
3.4931e-05
3.49389e-05
0.000398151
0.000382345
0.000326182
0.000268117
0.000213498
0.000173119
0.0001496
0.000131582
0.000119854
0.000106457
9.87888e-05
9.14199e-05
8.69925e-05
8.13335e-05
7.77896e-05
7.32502e-05
7.09817e-05
6.73514e-05
0.000447397
0.00044299
0.000434923
0.000413751
0.000386418
0.000343919
0.000316453
0.000288541
0.000272952
0.000252153
0.000240589
0.000224922
0.000216433
0.000203565
0.00019635
0.000185532
0.000180257
0.000171251
0.000453579
0.000452886
0.000450936
0.000447329
0.000442254
0.000427194
0.000412659
0.000396977
0.000387831
0.000375236
0.000367868
0.000356618
0.000350234
0.000339173
0.000332772
0.000322136
0.000316435
0.000306702
0.000454153
0.000453708
0.000453369
0.0004532
0.000452331
0.000449334
0.000444732
0.000439761
0.000434806
0.000430413
0.000425764
0.000422299
0.000419534
0.000415616
0.000412394
0.000407402
0.00040397
0.000398504
0.000454201
0.000453685
0.000453383
0.000453033
0.000452774
0.000451864
0.000450537
0.000448999
0.000447223
0.000445724
0.000443955
0.000442389
0.000440925
0.000438966
0.000437241
0.000435818
0.000434111
0.000431966
0.000454197
0.000453678
0.000453342
0.000452891
0.000452621
0.000452124
0.00045165
0.000451015
0.000450434
0.000449753
0.00044926
0.000448561
0.000448061
0.000447249
0.000446679
0.000445797
0.000445205
0.000444151
0.000454184
0.000453682
0.000453312
0.000452859
0.000452536
0.000452117
0.000451798
0.000451383
0.000451075
0.00045067
0.000450395
0.000450015
0.000449752
0.000449367
0.000449089
0.000448687
0.000448384
0.00044796
0.000454169
0.000453691
0.000453287
0.000452856
0.000452494
0.000452105
0.000451777
0.000451421
0.000451121
0.000450796
0.000450522
0.000450227
0.000449973
0.000449701
0.000449461
0.000449205
0.000448973
0.000448728
0.00045416
0.000453696
0.000453271
0.000452854
0.000452471
0.000452095
0.000451749
0.000451409
0.000451094
0.000450785
0.000450498
0.000450218
0.000449955
0.0004497
0.000449458
0.000449225
0.000449002
0.000448788
0.000454155
0.000453696
0.000453262
0.000452848
0.000452457
0.000452084
0.00045173
0.000451391
0.000451069
0.000450762
0.000450469
0.000450188
0.000449921
0.000449665
0.000449421
0.000449187
0.000448963
0.00044875
0.000454154
0.000453694
0.000453258
0.000452843
0.00045245
0.000452074
0.000451718
0.000451377
0.000451053
0.000450743
0.000450449
0.000450166
0.000449897
0.000449639
0.000449393
0.000449157
0.000448932
0.000448716
0.000454155
0.000453696
0.000453261
0.000452846
0.000452454
0.000452079
0.000451724
0.000451383
0.00045106
0.00045075
0.000450457
0.000450174
0.000449906
0.000449648
0.000449403
0.000449166
0.000448942
0.000448726
0.000454165
0.000453724
0.000453309
0.000452909
0.000452534
0.000452171
0.000451832
0.000451501
0.000451193
0.000450891
0.000450611
0.000450334
0.000450079
0.000449825
0.000449593
0.000449359
0.000449147
0.000448931
0.000454192
0.000453805
0.000453435
0.000453082
0.000452745
0.000452422
0.000452115
0.00045182
0.000451538
0.000451268
0.00045101
0.000450762
0.000450525
0.000450297
0.000450079
0.000449869
0.000449669
0.000449476
0.000454191
0.000453805
0.000453434
0.000453081
0.000452742
0.000452421
0.000452111
0.000451817
0.000451533
0.000451264
0.000451004
0.000450757
0.000450517
0.000450291
0.00045007
0.000449862
0.000449658
0.000449467
0.000454163
0.000453724
0.000453303
0.000452905
0.000452524
0.000452163
0.000451817
0.000451489
0.000451174
0.000450875
0.000450587
0.000450314
0.00045005
0.0004498
0.000449558
0.000449331
0.000449108
0.0004489
0.000454153
0.000453695
0.000453257
0.000452842
0.000452446
0.00045207
0.00045171
0.000451369
0.000451042
0.000450731
0.000450432
0.000450149
0.000449876
0.000449617
0.000449367
0.00044913
0.000448901
0.000448684
0.000454153
0.000453693
0.000453255
0.000452839
0.000452442
0.000452065
0.000451704
0.000451361
0.000451034
0.000450721
0.000450422
0.000450137
0.000449863
0.000449602
0.000449352
0.000449113
0.000448884
0.000448665
0.000454151
0.000453696
0.000453256
0.000452844
0.000452445
0.000452071
0.00045171
0.00045137
0.000451042
0.000450732
0.000450432
0.000450148
0.000449873
0.000449613
0.000449361
0.00044912
0.000448888
0.000448667
0.000454143
0.000453708
0.00045325
0.000452858
0.000452443
0.000452084
0.000451707
0.000451381
0.000451035
0.000450733
0.000450409
0.000450123
0.000449814
0.000449539
0.000449242
0.000448974
0.000448685
0.000448423
0.000454124
0.000453745
0.000453214
0.000452878
0.000452387
0.000452037
0.000451556
0.00045121
0.000450716
0.000450317
0.000449756
0.000449308
0.000448667
0.000448142
0.000447429
0.000446834
0.000446066
0.00044542
0.000454203
0.000453757
0.000452963
0.000452584
0.00045164
0.000450733
0.000449316
0.000448189
0.000446291
0.000444414
0.000442439
0.000440302
0.000437687
0.000435373
0.000432339
0.000429864
0.000426722
0.000424221
0.00045508
0.000452959
0.00044963
0.000446934
0.000442693
0.00043584
0.000427418
0.000420981
0.000411758
0.000404045
0.000394011
0.000385909
0.000376085
0.000368434
0.000359399
0.000352553
0.000344449
0.000338468
0.000453557
0.000440105
0.000423656
0.000403634
0.000370785
0.000343072
0.000314381
0.000292172
0.000270019
0.000253362
0.000236676
0.000224424
0.000211855
0.000202831
0.000193216
0.000186473
0.000178941
0.000173798
0.000460557
0.000336764
0.000278457
0.000212205
0.000160624
0.000131583
0.000112135
9.93899e-05
8.96479e-05
8.27433e-05
7.70309e-05
7.28697e-05
6.91975e-05
6.65774e-05
6.411e-05
6.2402e-05
6.06729e-05
5.95e-05
5.46339e-05
6.75933e-05
5.74925e-05
4.82827e-05
4.48766e-05
4.30405e-05
4.25235e-05
4.22354e-05
4.26264e-05
4.29469e-05
4.37861e-05
4.44631e-05
4.56077e-05
4.65476e-05
4.79276e-05
4.90875e-05
5.05717e-05
5.07445e-05
4.21829e-06
1.0017e-05
1.57449e-05
1.91008e-05
2.096e-05
2.20378e-05
2.23786e-05
2.24998e-05
2.24513e-05
2.22166e-05
2.19283e-05
2.16213e-05
2.13153e-05
2.10237e-05
2.0751e-05
2.05033e-05
2.02761e-05
2.00756e-05
1.52037e-12
1.72385e-10
8.78281e-10
3.45675e-09
1.15474e-08
3.52957e-08
9.14635e-08
1.8114e-07
2.92917e-07
4.10447e-07
5.15706e-07
5.97131e-07
6.51239e-07
6.70827e-07
6.61599e-07
6.33876e-07
5.81544e-07
4.95552e-07
4.21538e-07
3.58037e-07
2.9807e-07
2.39907e-07
1.83772e-07
1.31756e-07
8.56518e-08
5.01055e-08
2.6634e-08
1.34628e-08
6.88132e-09
3.75293e-09
2.26577e-09
1.75264e-09
1.7737e-09
4.32389e-09
7.98059e-09
5.95193e-08
1.14996e-07
2.67485e-07
4.06664e-07
4.48544e-07
4.12529e-07
3.3185e-07
2.76167e-07
2.68201e-07
2.91897e-07
3.84392e-07
5.0082e-07
9.62113e-07
2.10023e-06
5.92102e-06
1.58421e-05
2.87037e-05
3.89236e-05
4.46639e-05
4.2174e-05
3.06155e-05
3.10436e-05
3.37864e-05
3.08032e-05
3.09012e-05
3.06494e-05
3.29928e-05
3.1582e-05
3.16242e-05
3.32281e-05
3.3454e-05
3.42271e-05
3.47114e-05
3.53307e-05
3.58531e-05
3.64235e-05
3.69478e-05
3.74914e-05
3.80114e-05
3.8538e-05
3.90519e-05
3.95669e-05
4.00749e-05
4.05817e-05
4.10845e-05
4.15854e-05
4.20837e-05
4.25804e-05
4.30753e-05
4.35688e-05
4.40611e-05
4.45523e-05
4.50421e-05
4.55312e-05
4.60187e-05
4.65049e-05
4.69893e-05
4.74717e-05
4.79519e-05
4.8429e-05
4.89028e-05
4.93731e-05
4.98403e-05
5.03061e-05
5.07739e-05
5.12505e-05
5.17326e-05
5.22142e-05
5.26996e-05
5.31899e-05
5.36845e-05
5.41852e-05
5.46912e-05
5.5204e-05
5.57233e-05
5.62502e-05
5.6785e-05
5.73285e-05
5.78812e-05
5.84441e-05
5.90178e-05
5.96032e-05
6.02014e-05
6.0813e-05
6.14396e-05
6.20817e-05
6.27413e-05
6.34188e-05
6.41165e-05
6.48347e-05
6.55758e-05
6.63399e-05
6.71292e-05
6.79442e-05
6.88089e-05
6.97107e-05
7.06525e-05
7.16146e-05
7.26422e-05
7.3709e-05
7.48435e-05
7.6042e-05
7.72901e-05
7.72892e-05
7.70458e-05
7.67871e-05
7.65178e-05
7.62365e-05
7.59448e-05
7.56424e-05
7.53302e-05
7.50082e-05
7.46769e-05
7.43363e-05
7.39898e-05
7.36276e-05
7.32692e-05
7.28856e-05
7.25132e-05
7.21176e-05
7.17292e-05
7.1327e-05
7.09257e-05
7.05183e-05
7.01086e-05
6.96959e-05
6.92817e-05
6.8866e-05
6.84496e-05
6.80325e-05
6.76158e-05
6.71996e-05
6.67853e-05
6.63728e-05
6.59635e-05
6.55568e-05
6.51533e-05
6.47512e-05
6.43494e-05
6.39433e-05
6.35256e-05
6.30851e-05
6.25941e-05
6.19987e-05
6.04579e-05
7.00039e-12
1.13101e-09
1.53829e-08
8.26697e-08
3.54507e-07
1.18285e-06
2.67185e-06
4.85834e-06
7.52184e-06
1.05603e-05
1.3631e-05
1.64799e-05
1.88904e-05
2.0707e-05
2.17624e-05
2.20756e-05
2.17118e-05
2.09585e-05
1.86882e-05
1.55931e-05
1.19982e-05
8.81687e-06
6.2077e-06
4.17712e-06
2.63071e-06
1.62497e-06
9.92412e-07
6.15456e-07
3.86152e-07
2.53299e-07
1.81749e-07
1.67591e-07
1.32158e-07
3.23024e-07
3.4877e-07
3.56279e-06
6.9758e-06
1.45335e-05
2.03875e-05
2.25501e-05
2.12656e-05
1.9123e-05
1.68967e-05
1.57907e-05
1.63897e-05
1.6415e-05
1.87359e-05
2.50339e-05
3.5932e-05
4.59004e-05
5.68186e-05
6.61378e-05
7.5705e-05
8.61602e-05
9.66953e-05
0.000103516
0.000115659
0.000128365
0.000140574
0.000151227
0.000166034
0.000181813
0.000191811
0.000205865
0.00021774
0.000229285
0.000240534
0.000251203
0.000261552
0.000271574
0.000281258
0.000290717
0.000299903
0.00030891
0.000317709
0.000326359
0.000334847
0.000343205
0.000351428
0.000359535
0.000367525
0.000375407
0.000383181
0.000390855
0.000398426
0.000405901
0.000413278
0.000420559
0.000427741
0.000434827
0.000441809
0.000448693
0.000455469
0.000462133
0.000468669
0.000475058
0.000481268
0.000487249
0.000492926
0.000498188
0.000502885
0.000507233
0.000511579
0.000515747
0.000519833
0.000523784
0.000527626
0.000531342
0.000534938
0.000538408
0.000541752
0.000544966
0.000548051
0.000551002
0.00055382
0.000556501
0.000559045
0.000561449
0.000563713
0.000565834
0.000567813
0.000569646
0.000571335
0.000572877
0.000574273
0.000575519
0.000576616
0.000577561
0.000578343
0.000578954
0.000579421
0.000579762
0.000579894
0.000579955
0.00057974
0.000579511
0.000579255
0.000579041
0.00057895
0.000578749
0.000578408
0.000577934
0.000577331
0.000576603
0.000575749
0.000574774
0.000573676
0.000572452
0.000571135
0.000569618
0.000568236
0.000566371
0.000564792
0.000562711
0.000560808
0.000558639
0.000556464
0.000554173
0.000551806
0.000549371
0.000546863
0.000544297
0.000541667
0.000538982
0.000536238
0.000533444
0.000530599
0.000527714
0.000524788
0.000521831
0.00051884
0.000515813
0.000512738
0.000509606
0.000506344
0.00050288
0.000499087
0.000494668
0.000488895
0.00047312
1.88541e-11
3.24277e-09
6.10996e-08
3.70632e-07
1.02756e-06
2.91154e-06
6.11348e-06
1.06199e-05
1.62021e-05
2.25489e-05
2.92947e-05
3.59694e-05
4.19861e-05
4.6995e-05
5.07788e-05
5.32529e-05
5.45676e-05
5.48784e-05
5.33296e-05
5.04715e-05
4.58582e-05
3.99702e-05
3.29107e-05
2.58749e-05
1.94183e-05
1.38831e-05
9.42698e-06
6.28865e-06
3.9879e-06
2.65301e-06
1.87256e-06
1.53335e-06
1.20147e-06
2.27454e-06
3.93462e-06
1.67841e-05
3.47304e-05
5.29708e-05
6.25905e-05
6.12444e-05
5.0192e-05
4.05054e-05
3.91059e-05
4.50614e-05
5.20159e-05
6.0995e-05
7.33309e-05
8.5489e-05
9.77174e-05
0.000113766
0.00013156
0.000151814
0.000175055
0.000201163
0.000229156
0.000257173
0.000289606
0.000320478
0.000350387
0.000379202
0.000408217
0.000435992
0.000460624
0.000487042
0.000510559
0.000533522
0.000555419
0.000576517
0.000596929
0.000616744
0.000636017
0.00065485
0.000673261
0.000691328
0.000709062
0.000726511
0.000743683
0.000760606
0.000777285
0.000793736
0.000809963
0.000825973
0.000841768
0.000857353
0.000872727
0.000887893
0.000902846
0.000917586
0.000932107
0.000946403
0.000960464
0.000974283
0.000987843
0.00100113
0.00101411
0.00102677
0.00103905
0.00105093
0.00106235
0.0010733
0.00108382
0.0010941
0.00110417
0.00111397
0.00112354
0.00113284
0.00114189
0.00115067
0.00115919
0.00116742
0.00117538
0.00118306
0.00119045
0.00119756
0.00120436
0.00121088
0.00121709
0.00122299
0.0012286
0.00123389
0.00123887
0.00124354
0.0012479
0.00125194
0.00125567
0.00125907
0.00126215
0.00126491
0.00126734
0.00126944
0.00127124
0.00127273
0.00127389
0.00127479
0.00127529
0.00127558
0.00127572
0.00127574
0.00127557
0.00127512
0.00127436
0.00127331
0.00127197
0.00127034
0.00126843
0.00126625
0.00126379
0.00126107
0.00125809
0.00125482
0.00125144
0.00124753
0.00124368
0.00123926
0.00123485
0.00123007
0.00122517
0.00122005
0.00121476
0.00120931
0.00120371
0.00119799
0.00119213
0.00118615
0.00118006
0.00117386
0.00116755
0.00116117
0.00115471
0.00114818
0.0011416
0.00113495
0.00112821
0.00112133
0.0011142
0.00110667
0.00109843
0.00108875
0.0010758
0.00104721
6.74086e-11
1.14121e-08
1.81429e-07
7.91872e-07
2.45408e-06
6.7778e-06
1.34466e-05
2.24264e-05
3.30317e-05
4.41677e-05
5.49176e-05
6.47467e-05
7.31828e-05
7.96274e-05
8.44544e-05
8.75313e-05
8.87596e-05
8.84991e-05
8.68805e-05
8.37272e-05
7.91806e-05
7.36761e-05
6.63744e-05
5.77016e-05
4.81303e-05
3.85485e-05
2.97131e-05
2.23564e-05
1.67071e-05
1.21468e-05
9.42829e-06
6.94676e-06
7.54072e-06
1.12528e-05
2.53584e-05
4.8281e-05
6.71975e-05
7.75386e-05
7.49769e-05
7.18282e-05
7.16235e-05
7.49113e-05
8.22348e-05
9.28915e-05
0.000107455
0.000118696
0.000136662
0.000159432
0.00018419
0.000215449
0.000249282
0.000287541
0.000328583
0.000372005
0.000416359
0.000460754
0.000505486
0.000548579
0.000590237
0.000630562
0.000669589
0.000706829
0.000742274
0.00077728
0.000810248
0.00084222
0.000873101
0.00090309
0.000932286
0.000960787
0.000988671
0.00101602
0.00104287
0.00106928
0.00109528
0.00112091
0.00114617
0.00117109
0.00119567
0.00121992
0.00124384
0.00126745
0.00129074
0.0013137
0.00133634
0.00135865
0.00138063
0.00140227
0.00142356
0.00144449
0.00146506
0.00148524
0.00150502
0.00152439
0.00154332
0.00156179
0.0015798
0.00159732
0.00161435
0.00163091
0.00164706
0.00166286
0.0016783
0.00169336
0.00170805
0.00172234
0.00173623
0.00174972
0.00176281
0.00177547
0.00178771
0.00179953
0.00181091
0.00182185
0.00183235
0.0018424
0.001852
0.00186115
0.00186983
0.00187806
0.00188582
0.00189312
0.00189995
0.00190631
0.00191221
0.00191763
0.00192258
0.00192706
0.00193106
0.0019346
0.00193768
0.0019403
0.00194247
0.00194422
0.00194542
0.0019463
0.00194688
0.00194712
0.00194696
0.00194637
0.00194535
0.0019439
0.00194202
0.00193972
0.001937
0.00193388
0.00193036
0.00192645
0.00192214
0.00191745
0.00191242
0.0019069
0.00190114
0.00189486
0.00188836
0.00188145
0.00187427
0.0018668
0.00185906
0.00185109
0.00184289
0.0018345
0.00182591
0.00181714
0.00180819
0.00179908
0.00178983
0.00178045
0.00177096
0.00176138
0.00175172
0.00174197
0.00173209
0.00172202
0.00171163
0.00170072
0.00168889
0.00167512
0.00165694
0.00162301
2.29619e-10
3.4198e-08
4.06902e-07
1.92089e-06
6.6548e-06
1.59955e-05
2.96968e-05
4.59882e-05
6.29503e-05
7.89067e-05
9.27373e-05
0.000103616
0.000111663
0.000117201
0.000120248
0.000121395
0.00012092
0.00011908
0.000116076
0.000111902
0.000106575
0.000100617
9.33186e-05
8.47083e-05
7.48115e-05
6.39293e-05
5.28425e-05
4.27962e-05
3.44685e-05
2.77472e-05
2.19254e-05
2.05512e-05
2.54142e-05
4.2142e-05
6.64063e-05
8.23912e-05
9.03043e-05
9.37981e-05
9.64249e-05
0.000101145
0.000109552
0.000122506
0.000135753
0.000148172
0.00016826
0.000196555
0.000226973
0.000264913
0.000306198
0.000353096
0.000402065
0.000454302
0.000507811
0.000562177
0.000616332
0.000669798
0.000722259
0.000773194
0.000822489
0.000870151
0.000916381
0.000961195
0.00100433
0.00104624
0.00108671
0.00112607
0.00116439
0.00120178
0.00123836
0.00127421
0.0013094
0.00134399
0.00137803
0.00141157
0.00144462
0.00147721
0.00150936
0.00154107
0.00157236
0.00160321
0.00163364
0.00166364
0.00169321
0.00172234
0.00175103
0.00177928
0.00180708
0.00183442
0.00186129
0.00188769
0.00191359
0.001939
0.00196389
0.00198826
0.0020121
0.0020354
0.00205816
0.00208039
0.00210209
0.00212329
0.002144
0.00216424
0.002184
0.00220327
0.00222205
0.00224032
0.00225807
0.0022753
0.002292
0.00230817
0.00232379
0.00233886
0.00235338
0.00236733
0.00238072
0.00239355
0.0024058
0.00241748
0.00242858
0.0024391
0.00244903
0.00245839
0.00246716
0.00247534
0.00248295
0.00248997
0.0024964
0.00250226
0.00250754
0.00251225
0.0025164
0.00251997
0.00252299
0.00252545
0.00252728
0.00252873
0.00252971
0.0025302
0.00253017
0.00252961
0.00252852
0.0025269
0.00252476
0.00252211
0.00251894
0.00251527
0.00251111
0.00250647
0.00250134
0.00249574
0.00248967
0.0024831
0.00247611
0.00246861
0.00246073
0.0024524
0.0024437
0.00243464
0.00242525
0.00241555
0.00240556
0.00239531
0.00238481
0.00237407
0.00236311
0.00235194
0.00234058
0.00232905
0.00231738
0.00230558
0.00229367
0.00228162
0.00226942
0.002257
0.00224426
0.00223096
0.00221671
0.00220048
0.00217946
0.00214523
7.31047e-10
8.42159e-08
1.02119e-06
5.19134e-06
1.69109e-05
3.5693e-05
5.82966e-05
8.12359e-05
0.000101225
0.000117041
0.000128818
0.000137454
0.000142767
0.000145651
0.000146608
0.000146013
0.00014411
0.000141094
0.000137106
0.000132106
0.000126208
0.000119723
0.00011212
0.000103426
9.31375e-05
7.77517e-05
6.29034e-05
4.90707e-05
3.75318e-05
3.22265e-05
3.29304e-05
4.36986e-05
6.47899e-05
8.6657e-05
0.000102177
0.000111598
0.000117553
0.000123645
0.000133404
0.000148835
0.000160688
0.000173455
0.000195504
0.000223807
0.000257698
0.000299112
0.00034461
0.000396179
0.00045028
0.000507791
0.000566589
0.000626911
0.000687494
0.000747955
0.000807697
0.00086644
0.000923761
0.000979527
0.00103418
0.00108736
0.00113898
0.00118915
0.00123792
0.00128542
0.0013317
0.00137689
0.00142109
0.00146439
0.00150688
0.00154862
0.00158967
0.00163009
0.00166992
0.00170918
0.00174789
0.00178608
0.00182373
0.00186087
0.00189748
0.00193357
0.00196913
0.00200416
0.00203866
0.00207261
0.00210601
0.00213886
0.00217115
0.00220288
0.00223403
0.00226461
0.0022946
0.002324
0.00235279
0.00238099
0.00240857
0.00243555
0.00246192
0.0024877
0.0025129
0.00253752
0.00256157
0.00258504
0.00260794
0.00263025
0.00265197
0.00267309
0.0026936
0.0027135
0.00273277
0.00275142
0.00276943
0.0027868
0.00280352
0.00281959
0.00283502
0.00284978
0.00286389
0.00287734
0.00289012
0.00290225
0.00291371
0.0029245
0.00293463
0.00294411
0.00295292
0.00296107
0.00296858
0.00297543
0.00298164
0.00298724
0.00299218
0.00299646
0.00300016
0.00300318
0.00300553
0.00300747
0.00300882
0.00300959
0.00300977
0.00300936
0.00300836
0.00300678
0.00300463
0.00300191
0.00299862
0.00299477
0.00299038
0.00298544
0.00297996
0.00297396
0.00296743
0.00296036
0.00295279
0.00294469
0.00293611
0.00292706
0.00291758
0.00290768
0.00289739
0.00288675
0.00287577
0.00286447
0.00285288
0.00284101
0.00282886
0.00281646
0.00280383
0.00279099
0.00277797
0.0027648
0.00275148
0.00273801
0.00272438
0.00271053
0.00269637
0.0026817
0.00266618
0.00264889
0.00262726
0.00259488
2.33736e-09
2.15372e-07
2.70153e-06
1.41643e-05
3.69852e-05
6.57305e-05
9.28488e-05
0.000115081
0.000132051
0.00014474
0.000153648
0.000159072
0.000161927
0.000162864
0.000162323
0.000160596
0.000157865
0.00015422
0.000149601
0.000143937
0.000137446
0.000129944
0.000121126
0.000105693
9.02889e-05
7.6702e-05
6.46661e-05
5.59774e-05
5.442e-05
6.17445e-05
7.42553e-05
9.7975e-05
0.000116551
0.000129601
0.000139058
0.000147053
0.000157394
0.000173292
0.000183667
0.000195653
0.000217016
0.000244435
0.000278755
0.000319774
0.000366994
0.000420074
0.000476689
0.000536845
0.000598648
0.000662166
0.000726321
0.000790904
0.000855246
0.000919042
0.000981766
0.00104328
0.00110406
0.00116346
0.00122152
0.00127822
0.00133357
0.00138761
0.00144042
0.00149205
0.00154259
0.00159211
0.00164069
0.00168841
0.00173533
0.00178151
0.001827
0.00187183
0.00191603
0.00195962
0.00200261
0.00204501
0.00208681
0.00212801
0.00216861
0.0022086
0.00224797
0.00228671
0.00232483
0.0023623
0.00239914
0.00243532
0.00247086
0.00250575
0.00253998
0.00257355
0.00260646
0.00263871
0.00267029
0.00270119
0.00273143
0.002761
0.00278991
0.00281814
0.0028457
0.0028726
0.00289885
0.00292446
0.00294941
0.00297371
0.00299734
0.0030203
0.00304259
0.0030642
0.00308513
0.00310537
0.00312491
0.00314378
0.00316195
0.00317941
0.00319617
0.00321221
0.00322755
0.00324217
0.00325607
0.00326926
0.00328173
0.00329349
0.00330454
0.00331488
0.00332452
0.00333345
0.00334168
0.00334923
0.0033561
0.00336234
0.00336782
0.00337265
0.00337685
0.00338029
0.0033831
0.00338541
0.00338708
0.00338812
0.00338854
0.00338833
0.00338751
0.00338608
0.00338405
0.00338144
0.00337829
0.00337456
0.00337027
0.00336541
0.00335998
0.003354
0.00334746
0.00334037
0.00333273
0.00332456
0.00331587
0.00330668
0.00329701
0.0032869
0.00327637
0.00326544
0.00325414
0.00324248
0.00323048
0.00321817
0.00320554
0.00319262
0.00317943
0.003166
0.00315235
0.00313852
0.00312451
0.00311034
0.00309599
0.00308143
0.0030666
0.00305134
0.00303538
0.00301796
0.00299711
0.00296767
7.00066e-09
5.68904e-07
7.25572e-06
3.02171e-05
6.35831e-05
9.70716e-05
0.000124969
0.000145636
0.000159862
0.00016852
0.000172891
0.000174704
0.000174802
0.000173577
0.000171346
0.000168273
0.000164328
0.000159423
0.000153675
0.000147199
0.000139876
0.000131323
0.000115167
9.86926e-05
8.50435e-05
7.53198e-05
7.18863e-05
7.53005e-05
8.41683e-05
0.000103977
0.000128749
0.000151278
0.000165403
0.000175184
0.000186225
0.000197152
0.00020381
0.000215578
0.000234655
0.000259771
0.000292439
0.00033157
0.000377367
0.000429148
0.000485938
0.000546523
0.000609439
0.000674232
0.000740004
0.000806513
0.000873195
0.000939767
0.00100574
0.00107076
0.00113529
0.00119886
0.00126131
0.00132256
0.00138261
0.00144145
0.00149911
0.0015556
0.00161099
0.00166532
0.00171865
0.00177105
0.00182256
0.00187326
0.00192319
0.0019724
0.00202092
0.00206879
0.00211601
0.00216261
0.00220857
0.00225389
0.00229857
0.00234259
0.00238595
0.00242862
0.0024706
0.00251188
0.00255246
0.00259232
0.00263147
0.00266989
0.00270759
0.00274458
0.00278085
0.0028164
0.00285124
0.00288536
0.00291876
0.00295146
0.00298344
0.00301471
0.00304526
0.00307509
0.00310419
0.00313261
0.00316033
0.00318737
0.00321371
0.00323935
0.00326428
0.00328851
0.00331203
0.00333482
0.0033569
0.00337825
0.00339887
0.00341875
0.00343789
0.00345629
0.00347395
0.00349086
0.00350703
0.00352245
0.00353713
0.00355107
0.00356426
0.00357671
0.00358843
0.00359941
0.00360966
0.00361919
0.003628
0.0036361
0.00364355
0.0036503
0.00365629
0.00366162
0.0036663
0.0036702
0.00367351
0.00367624
0.00367832
0.00367976
0.00368056
0.00368073
0.00368028
0.00367922
0.00367755
0.00367529
0.00367244
0.00366899
0.00366497
0.00366037
0.00365519
0.00364945
0.00364314
0.00363627
0.00362883
0.00362085
0.00361233
0.00360329
0.00359377
0.00358377
0.00357333
0.00356246
0.00355119
0.00353953
0.00352751
0.00351513
0.0035024
0.00348936
0.003476
0.00346238
0.0034485
0.00343441
0.00342011
0.00340563
0.00339096
0.00337609
0.00336098
0.00334552
0.00332953
0.00331249
0.00329286
0.00326687
1.81441e-08
1.41142e-06
1.61169e-05
5.07725e-05
9.08969e-05
0.000124959
0.000150454
0.000167563
0.000178298
0.000183847
0.000185592
0.00018464
0.000181953
0.000178243
0.000173894
0.000169024
0.000163552
0.00015751
0.000150809
0.000143606
0.000135623
0.000124959
0.000112746
0.00010572
0.00010131
9.72313e-05
0.000101169
0.00011521
0.000134115
0.000154721
0.000174432
0.000190946
0.000202955
0.000211644
0.000220591
0.000231922
0.00024916
0.000271594
0.000301263
0.000337395
0.00038021
0.000428919
0.000483154
0.000541949
0.000604142
0.000668615
0.000734497
0.000801346
0.000868679
0.000936215
0.00100364
0.00107032
0.00113659
0.00120243
0.00126733
0.00133126
0.00139416
0.00145599
0.00151673
0.0015764
0.001635
0.00169256
0.00174913
0.00180475
0.00185946
0.00191331
0.00196635
0.00201862
0.00207018
0.00212106
0.00217129
0.00222091
0.00226991
0.0023183
0.00236605
0.00241315
0.00245959
0.00250534
0.00255039
0.00259472
0.0026383
0.00268114
0.0027232
0.00276451
0.00280507
0.00284491
0.00288399
0.00292229
0.00295982
0.00299658
0.00303257
0.0030678
0.00310228
0.00313601
0.00316899
0.00320122
0.00323272
0.0032635
0.00329355
0.00332289
0.00335151
0.00337941
0.00340658
0.00343303
0.00345875
0.00348374
0.00350798
0.00353149
0.00355426
0.00357627
0.00359754
0.00361805
0.00363781
0.0036568
0.00367504
0.00369252
0.00370924
0.0037252
0.00374041
0.00375486
0.00376856
0.00378151
0.00379371
0.00380518
0.00381591
0.00382591
0.00383519
0.00384376
0.0038517
0.00385888
0.00386535
0.00387116
0.0038763
0.00388068
0.00388449
0.00388768
0.00389023
0.00389214
0.00389342
0.00389408
0.00389414
0.00389358
0.00389244
0.0038907
0.00388838
0.00388549
0.00388202
0.00387799
0.00387339
0.00386823
0.00386251
0.00385623
0.00384939
0.003842
0.00383407
0.00382563
0.00381669
0.00380726
0.00379738
0.00378706
0.00377632
0.00376516
0.00375362
0.00374168
0.00372938
0.00371672
0.00370373
0.00369043
0.00367684
0.00366301
0.00364894
0.00363466
0.00362018
0.00360549
0.00359059
0.00357541
0.00355982
0.00354336
0.00352483
0.00350179
4.02895e-08
3.25386e-06
2.90587e-05
7.40655e-05
0.000117786
0.000151254
0.000173191
0.000186958
0.000193546
0.000194762
0.000192498
0.00018812
0.000182547
0.00017635
0.000169745
0.000162683
0.000155411
0.000147487
0.000139677
0.000131624
0.000123159
0.000115369
0.000109991
0.000109516
0.000115505
0.000127246
0.000142828
0.000160076
0.000177721
0.000194507
0.000208725
0.000219803
0.000231361
0.000244172
0.000260349
0.000280672
0.000307264
0.000339877
0.000378892
0.000423672
0.000473916
0.000528957
0.000588143
0.000650499
0.000715027
0.00078091
0.000847593
0.000914724
0.000981997
0.00104893
0.00111534
0.00118177
0.00124743
0.00131234
0.00137637
0.00143945
0.00150157
0.00156269
0.00162282
0.00168196
0.00174012
0.00179735
0.00185368
0.00190916
0.00196385
0.00201779
0.002071
0.00212349
0.00217535
0.00222662
0.00227734
0.00232751
0.00237717
0.00242634
0.0024751
0.00252334
0.00257093
0.00261778
0.00266389
0.00270923
0.00275376
0.00279748
0.00284036
0.00288241
0.00292362
0.00296397
0.0030035
0.00304225
0.00308024
0.00311746
0.00315394
0.00318967
0.00322466
0.00325891
0.00329243
0.00332522
0.00335729
0.00338864
0.00341926
0.00344916
0.00347832
0.00350676
0.00353445
0.00356142
0.00358764
0.00361311
0.00363785
0.00366183
0.00368506
0.00370754
0.00372927
0.00375023
0.00377043
0.00378988
0.00380856
0.00382647
0.00384363
0.00386003
0.00387567
0.00389056
0.0039047
0.00391809
0.00393075
0.00394266
0.00395384
0.0039643
0.00397404
0.00398311
0.0039915
0.00399916
0.00400614
0.00401245
0.00401809
0.00402304
0.0040274
0.00403113
0.00403423
0.00403671
0.00403858
0.00403985
0.00404053
0.00404062
0.00404013
0.00403907
0.00403746
0.00403528
0.00403255
0.00402928
0.00402546
0.00402109
0.00401617
0.00401071
0.00400469
0.00399813
0.00399105
0.00398345
0.00397536
0.00396679
0.00395775
0.00394826
0.00393834
0.00392799
0.00391722
0.00390605
0.00389448
0.00388252
0.00387021
0.00385756
0.00384459
0.00383133
0.00381781
0.00380405
0.00379006
0.00377586
0.00376145
0.00374681
0.00373186
0.00371625
0.00369901
0.00367927
7.64975e-08
6.66337e-06
4.33964e-05
9.4921e-05
0.000140155
0.000172276
0.000192321
0.000201836
0.000204023
0.000201399
0.000195813
0.000188546
0.000180382
0.000171678
0.000163162
0.000154598
0.000146822
0.000139952
0.000134619
0.000130615
0.000128766
0.000129935
0.000134579
0.000142824
0.000154217
0.000167989
0.000183071
0.000198408
0.000212646
0.000224837
0.000237575
0.00025218
0.000268471
0.000287745
0.000311751
0.00034104
0.000376125
0.000416641
0.000462356
0.000512745
0.000567379
0.000625661
0.000686898
0.000750265
0.000814995
0.000880498
0.000946371
0.00101234
0.00107779
0.0011431
0.00120808
0.00127243
0.001336
0.00139871
0.0014605
0.00152135
0.00158127
0.00164026
0.00169833
0.0017555
0.00181175
0.00186714
0.00192176
0.00197568
0.00202895
0.00208164
0.0021339
0.00218597
0.0022376
0.00228872
0.00233936
0.00238951
0.00243919
0.0024884
0.00253705
0.00258512
0.0026326
0.00267939
0.0027255
0.00277089
0.00281551
0.00285934
0.00290235
0.00294453
0.00298591
0.00302649
0.00306631
0.00310537
0.00314368
0.00318124
0.00321807
0.00325417
0.00328954
0.00332419
0.00335813
0.00339134
0.00342384
0.00345562
0.00348668
0.00351701
0.00354661
0.00357548
0.00360362
0.00363102
0.00365768
0.0036836
0.00370877
0.0037332
0.00375687
0.0037798
0.00380197
0.00382338
0.00384404
0.00386394
0.00388308
0.00390146
0.00391909
0.00393596
0.00395208
0.00396746
0.00398209
0.00399598
0.00400914
0.00402157
0.00403328
0.00404427
0.00405456
0.00406419
0.00407311
0.00408135
0.00408891
0.00409582
0.00410208
0.00410769
0.0041127
0.00411707
0.00412084
0.004124
0.00412658
0.00412857
0.00413
0.00413086
0.00413116
0.00413093
0.00413015
0.00412883
0.00412699
0.00412463
0.00412174
0.00411832
0.00411438
0.00410989
0.00410488
0.00409933
0.00409327
0.0040867
0.00407964
0.00407211
0.00406412
0.00405567
0.00404678
0.00403745
0.00402769
0.00401749
0.00400688
0.00399586
0.00398445
0.00397268
0.00396056
0.00394811
0.00393537
0.00392235
0.00390908
0.00389557
0.00388185
0.00386791
0.00385372
0.00383905
0.00382302
0.00380609
1.2245e-07
1.14687e-05
5.88414e-05
0.00011598
0.000161386
0.000191698
0.00020791
0.000213673
0.000212474
0.00020698
0.000199103
0.0001899
0.000180767
0.000171946
0.000164269
0.000157591
0.000152505
0.000149577
0.000148658
0.000149978
0.0001538
0.000160159
0.000168827
0.000179411
0.000191471
0.000204534
0.00021758
0.000229799
0.000242623
0.000257791
0.000274893
0.000293559
0.000315908
0.000342506
0.000373972
0.000410338