/*--------------------------------*- C++ -*----------------------------------*\
  =========                 |
  \\      /  F ield         | OpenFOAM: The Open Source CFD Toolbox
   \\    /   O peration     | Website:  https://openfoam.org
    \\  /    A nd           | Version:  8
     \\/     M anipulation  |
\*---------------------------------------------------------------------------*/
FoamFile
{
    version     2.0;
    format      ascii;
    class       volVectorField;
    location    "1100";
    object      wallShearStress;
}
// * * * * * * * * * * * * * * * * * * * * * * * * * * * * * * * * * * * * * //

dimensions      [0 2 -2 0 0 0 0];

internalField   uniform (0 0 0);

boundaryField
{
    inlet
    {
        type            calculated;
        value           uniform (0 0 0);
    }
    outlet
    {
        type            calculated;
        value           uniform (0 0 0);
    }
    upperWall
    {
        type            calculated;
        value           nonuniform List<vector> 
223
(
(-0.443838 0.00274335 0)
(-0.434056 0.00489798 0)
(-0.462662 0.00630849 0)
(-0.484297 0.00719609 0)
(-0.487113 0.00747663 0)
(-0.482198 0.0073431 0)
(-0.471505 0.0069173 0)
(-0.460039 0.00638541 0)
(-0.448377 0.00580481 0)
(-0.436434 0.00520953 0)
(-0.425229 0.00464001 0)
(-0.41492 0.00411077 0)
(-0.405565 0.00362722 0)
(-0.397146 0.0031901 0)
(-0.389607 0.00279933 0)
(-0.382889 0.00245739 0)
(-0.376864 0.00216697 0)
(-0.371507 0.00198091 0)
(-0.367224 0.0018677 0)
(-0.363864 0.0017903 5.74136e-22)
(-0.360588 0.00169666 0)
(-0.357407 0.00159405 0)
(-0.354318 0.00148831 0)
(-0.351325 0.00138193 5.87448e-22)
(-0.348433 0.00127734 0)
(-0.345644 0.00117509 0)
(-0.34296 0.00107668 0)
(-0.340378 0.00098208 -1.19794e-21)
(-0.337901 0.000891906 1.20334e-21)
(-0.335525 0.000805794 1.20862e-21)
(-0.333252 0.000724162 0)
(-0.331079 0.000646679 -1.21884e-21)
(-0.329006 0.000573724 0)
(-0.327029 0.000504718 1.22866e-21)
(-0.325148 0.000440018 1.23344e-21)
(-0.323359 0.000379452 -1.23814e-21)
(-0.321661 0.000322964 0)
(-0.32005 0.000270663 0)
(-0.318524 0.000222342 0)
(-0.317077 0.000177846 0)
(-0.315711 0.000137317 -1.26073e-21)
(-0.314416 0.000100467 0)
(-0.313196 6.7242e-05 0)
(-0.312038 3.75121e-05 1.27378e-21)
(-0.310949 1.12134e-05 0)
(-0.309915 -1.18317e-05 1.28238e-21)
(-0.308941 -3.17501e-05 -1.28667e-21)
(-0.308016 -4.84233e-05 1.29096e-21)
(-0.307144 -6.20372e-05 0)
(-0.306311 -7.2643e-05 0)
(-0.305523 -8.04148e-05 0)
(-0.304769 -8.54911e-05 1.30834e-21)
(-0.304048 -8.81985e-05 -1.31276e-21)
(-0.303358 -8.84844e-05 0)
(-0.302689 -8.67527e-05 0)
(-0.30205 -8.31154e-05 0)
(-0.30142 -7.76749e-05 0)
(-0.300819 -7.06107e-05 0)
(-0.300213 -6.20448e-05 0)
(-0.299639 -5.20209e-05 0)
(-0.299042 -4.04512e-05 0)
(-0.298488 -2.68302e-05 1.35448e-21)
(-0.297866 -1.42045e-05 -1.35921e-21)
(-0.297361 -5.82156e-05 0)
(-0.296693 -2.51459e-05 0)
(-0.29654 0.000204046 0)
(-0.301428 0.000395635 -1.40774e-21)
(-0.296051 0.000394168 0)
(-0.298838 0.000275111 0)
(-0.302894 0.000122589 0)
(-0.295585 3.32456e-05 0)
(-0.310325 -4.84879e-05 0)
(-0.295479 -0.000110833 -2.85545e-21)
(-0.354217 0.000238684 0)
(-0.337104 0.000300746 0)
(-0.32523 7.25253e-05 0)
(-0.310472 0.000334647 0)
(-0.311025 0.000444703 0)
(-0.298829 0.000114607 0)
(-0.300875 -4.16913e-06 0)
(-0.294642 0.000327896 2.93859e-21)
(-0.294373 0.000491739 0)
(-0.294147 0.000341855 0)
(-0.29517 0.000188843 0)
(-0.296949 0.000123958 -3.05551e-21)
(-0.293759 0.000131305 0)
(-0.293638 -3.11818e-06 -3.05748e-21)
(-0.323992 0.000129762 0)
(-0.315807 0.000922763 0)
(-0.292808 0.000886655 0)
(-0.301214 0.000351909 -3.17086e-21)
(-0.302793 0.00038426 0)
(-0.292016 0.000434511 3.12505e-21)
(-0.291701 0.000185369 3.14054e-21)
(-0.325436 0.0002684 0)
(-0.30977 0.000373522 3.35649e-21)
(-0.302395 0.00021326 0)
(-0.295024 0.000168605 0)
(-0.290267 0.000284591 0)
(-0.289882 0.000221859 -3.2091e-21)
(-0.315603 0.000516024 0)
(-0.30051 0.000602861 -3.32862e-21)
(-0.28978 0.000371045 3.22165e-21)
(-0.28825 0.000419648 0)
(-0.287898 0.000371973 0)
(-0.287554 0.000160458 0)
(-0.309893 0.000381923 0)
(-0.293706 0.000565038 0)
(-0.286271 0.00014773 0)
(-0.338216 0.000775566 0)
(-0.31038 0.000938185 -3.41414e-21)
(-0.303348 0.000452234 0)
(-0.284248 6.529e-05 0)
(-0.315359 0.000237929 0)
(-0.292824 0.00043586 0)
(-0.282653 5.76266e-05 0)
(-0.298528 6.03765e-05 0)
(-0.343622 0.000789747 0)
(-0.316334 0.00129654 0)
(-0.279898 0.000915447 0)
(-0.279148 0.000946006 0)
(-0.278056 0.00075275 0)
(-0.2773 0.000147577 0)
(-0.316217 0.000141989 -6.55299e-21)
(-0.328533 -3.41973e-05 0)
(-0.321861 0.000376137 0)
(-0.291342 0.00111538 0)
(-0.271778 0.00123796 5.37937e-21)
(-0.270299 0.00118826 0)
(-0.268894 0.000641694 0)
(-0.26805 0.000190173 5.11408e-21)
(-0.287473 0.000848188 0)
(-0.265704 0.00091665 -4.84189e-21)
(-0.293856 0.00100006 0)
(-0.263477 0.000809089 0)
(-0.294082 0.000817511 0)
(-0.261098 0.000671356 4.24074e-21)
(-0.289999 0.000695257 0)
(-0.258465 0.000624841 -3.933e-21)
(-0.283367 0.000659479 0)
(-0.255541 0.000634876 0)
(-0.275181 0.00062011 0)
(-0.252293 0.00108859 0)
(-0.250579 0.000517672 0)
(-0.251851 0.000544052 0)
(-0.247248 0.000575154 0)
(-0.248821 0.000573024 0)
(-0.243698 0.00167259 0)
(-0.241705 0.00196445 0)
(-0.24014 0.00107677 0)
(-0.238024 0.000400005 -1.41745e-21)
(-0.24056 0.000331422 1.17944e-21)
(-0.251898 0.000274777 0)
(-0.254098 0.000976433 0)
(-0.227997 0.000706054 0)
(-0.225051 0.000311059 0)
(-0.228181 0.00067232 -4.44573e-22)
(-0.231072 0.000264533 8.21465e-22)
(-0.222539 0.000554033 -1.17032e-21)
(-0.238451 0.00209963 0)
(-0.215672 0.00239675 -1.82183e-21)
(-0.214713 0.00189787 -4.4542e-21)
(-0.21383 0.000414688 0)
(-0.210859 3.10368e-05 -6.52066e-21)
(-0.224235 0.00118808 7.77227e-21)
(-0.207648 0.000161078 0)
(-0.204207 -0.00093299 0)
(-0.200178 -0.000371527 0)
(-0.197286 0.000628102 0)
(-0.195058 0.00061799 0)
(-0.192519 0.00102877 -1.34417e-20)
(-0.192301 0.00194627 0)
(-0.19939 0.00102652 -1.58489e-20)
(-0.188439 -2.41003e-05 0)
(-0.186413 0.00113432 0)
(-0.186682 0.00202202 0)
(-0.185749 0.00140083 0)
(-0.182934 0.000732145 0)
(-0.18067 0.000851107 2.29152e-20)
(-0.188122 0.00114973 0)
(-0.179311 0.000942238 0)
(-0.177553 0.000575658 -2.62899e-20)
(-0.173843 8.51422e-05 0)
(-0.168232 -0.000235438 0)
(-0.161124 -0.000261196 0)
(-0.153315 -2.82391e-05 3.80079e-20)
(-0.144805 0.000379124 0)
(-0.135331 0.000786909 0)
(-0.124771 0.00118792 0)
(-0.113545 0.00147156 0)
(-0.102715 0.00154214 -6.58396e-20)
(-0.0928534 0.00141415 0)
(-0.0845354 0.00117958 0)
(-0.0771992 0.000991096 0)
(-0.0711025 0.000950251 9.86848e-20)
(-0.0629056 0.00105999 0)
(-0.0591889 0.00158987 0)
(-0.0319481 0.00141232 -1.41427e-19)
(-0.0629789 0.000290649 6.01853e-36)
(-0.095446 0.00537241 1.20863e-17)
(-0.117803 0.0096024 2.17357e-17)
(-0.129699 0.0120592 2.04649e-17)
(-0.136763 0.0133945 1.96813e-17)
(-0.142138 0.0142156 1.90451e-17)
(-0.146372 0.014801 -1.85065e-17)
(-0.149573 0.0152277 -1.80077e-17)
(-0.152015 0.0155383 -6.01853e-36)
(-0.154312 0.0157742 -3.42899e-17)
(-0.156617 0.0160041 -1.67095e-17)
(-0.15906 0.0162264 9.38891e-34)
(-0.161617 0.016464 0)
(-0.164631 0.0167155 -3.05806e-17)
(-0.168103 0.0170185 -2.9378e-17)
(-0.172254 0.0173694 -2.80319e-17)
(-0.177057 0.0177933 2.40741e-35)
(-0.182633 0.0182814 4.93682e-17)
(-0.189058 0.0188569 2.26225e-17)
(-0.196221 0.0195028 2.40741e-35)
(-0.204779 0.0202723 -3.52195e-17)
(-0.21311 0.021054 -1.23184e-20)
(-0.226241 0.0221859 -3.00927e-36)
(-0.230895 0.0229196 1.32473e-17)
(-0.255469 0.0244545 -6.91515e-18)
)
;
    }
    lowerWall
    {
        type            calculated;
        value           nonuniform List<vector> 
250
(
(-0.623935 -0.00608026 0)
(-0.59487 -0.0105731 0)
(-0.589374 -0.0130169 0)
(-0.538067 -0.0113668 0)
(-0.515092 -0.00911365 0)
(-0.495755 -0.00729529 0)
(-0.480354 -0.00478657 0)
(-0.572168 -0.00568272 0)
(-0.52224 -0.00623635 0)
(-0.447469 -0.0046051 0)
(-0.440099 -0.00249862 0)
(-0.434574 -0.000520451 0)
(-0.460403 0.000243821 0)
(-0.53119 -0.000416221 0)
(-0.483195 -0.000906088 0)
(-0.420967 -0.000183 0)
(-0.419403 5.67864e-05 0)
(-0.418547 0.000649312 0)
(0.00203922 -1.66194e-05 0)
(0.00227847 -0.00286334 0)
(0.00254174 -0.00582348 0)
(0.00285471 -0.00897099 1.17736e-19)
(0.00315256 -0.012042 -9.99782e-20)
(0.00342366 -0.0158769 8.8737e-20)
(0.00284207 -0.0160989 -7.98916e-20)
(0.00698123 -0.0345898 0)
(-0.0516638 -0.116075 0)
(0.00021781 -0.000265562 0)
(6.38727e-05 -0.0007677 0)
(-1.67512e-06 -0.000859648 0)
(5.3473e-05 -0.000863056 0)
(2.65844e-05 -0.000824268 1.53919e-19)
(-0.000143918 -0.000264363 -1.49664e-19)
(-0.000564129 0.00114193 0)
(-0.00113833 0.00375914 -1.73377e-19)
(-0.00150704 0.00709004 1.33038e-19)
(-0.00146332 0.0102416 0)
(-0.00109063 0.0125749 0)
(-0.000576397 0.0138043 0)
(-7.85326e-05 0.0138968 0)
(0.000315496 0.0130322 0)
(0.000641125 0.0114888 0)
(0.000957074 0.00931223 0)
(0.00130272 0.00653931 0)
(0.00169578 0.00321102 0)
(-0.00013814 -0.00026972 0)
(0.000165088 -0.000435602 0)
(0.000467774 -0.000485937 0)
(0.000778281 -0.000417678 0)
(0.00102436 -0.000190216 -0)
(0.00106674 0.00018671 -0)
(0.000824379 0.00063998 1.45899e-20)
(0.000322903 0.001066 -1.63526e-20)
(-0.000372531 0.00137685 0)
(-0.00117073 0.00153305 -9.32459e-21)
(-0.00199283 0.00154661 0)
(-0.00277618 0.0014476 0)
(-0.00347671 0.00127124 0)
(-0.00406989 0.00104742 4.60557e-21)
(-0.00454441 0.000796565 0)
(-0.00489595 0.000530134 0)
(-0.00512193 0.000256388 -3.99742e-21)
(-0.00522657 -3.04185e-05 -0)
(-0.00518546 -0.000327441 0)
(-0.00499728 -0.00061369 -0)
(-0.00467093 -0.000869456 4.30634e-21)
(-0.00421804 -0.00107505 -0)
(-0.0036565 -0.00120976 5.10578e-21)
(-0.00301335 -0.00125462 0)
(-0.00232606 -0.00119553 -0)
(-0.00164312 -0.00102952 8.32592e-21)
(-0.00102154 -0.000772543 0)
(-0.000518332 -0.000469079 -1.38863e-20)
(-0.000166107 -0.000191557 0)
(5.39612e-05 -2.7415e-06 2.3482e-20)
(0.000194214 0.000106947 0)
(0.000275857 0.000197741 0)
(0.000271425 0.000306364 0)
(0.000166166 0.000453622 0)
(-7.13351e-05 0.000650978 0)
(-0.000470148 0.000859999 -1.54529e-20)
(-0.0010131 0.00100491 0)
(-0.00161604 0.00101238 1.81122e-20)
(-0.00216283 0.000869582 0)
(-0.00255721 0.000622067 -1.42711e-20)
(-0.002758 0.000352764 0)
(-0.00279106 0.000133588 0)
(-0.00270959 1.14329e-05 1.40201e-20)
(-0.00258826 9.84688e-06 0)
(-0.00249405 0.000125604 1.45306e-20)
(-0.00243824 0.000309093 -1.46304e-20)
(-0.00237228 0.000435591 0)
(-0.00217897 0.000275272 -1.57732e-20)
(-0.00160076 -0.000336016 -1.8201e-20)
(-0.000406514 -0.00107217 0)
(0.00128409 -0.001674 0)
(0.00316106 -0.00230436 0)
(0.00531672 -0.00284695 0)
(0.00765185 -0.00322398 0)
(0.010054 -0.0035736 3.51863e-21)
(0.0125299 -0.00382652 0)
(0.0150331 -0.00382814 -2.71915e-21)
(0.0174191 -0.00365968 -0)
(0.0196364 -0.0034301 -0)
(0.0217224 -0.00322421 2.13445e-21)
(0.0236811 -0.0029549 0)
(0.0261041 -0.00272383 -1.96735e-21)
(0.0277171 -0.00249484 -0)
(0.0296964 -0.00228564 0)
(0.0321292 -0.0021245 -0)
(0.0339526 -0.00197555 1.79923e-21)
(0.0359273 -0.0018501 0)
(0.0377095 -0.00173116 -0)
(0.0394833 -0.00162789 1.75229e-21)
(0.0411568 -0.00153505 0)
(0.0428004 -0.00145289 1.72931e-21)
(0.0443759 -0.00137901 0)
(0.0459188 -0.00131235 0)
(0.0474114 -0.00125131 0)
(0.048871 -0.00119495 -1.69586e-21)
(0.0502902 -0.00114224 -0)
(0.0516768 -0.00109243 0)
(0.053028 -0.00104494 -1.67561e-21)
(0.0543471 -0.000999189 -1.66918e-21)
(0.0556327 -0.00095484 -0)
(0.056886 -0.000911544 -1.6562e-21)
(0.0581064 -0.000869104 0)
(0.0592939 -0.00082731 -3.28532e-21)
(0.060448 -0.000786005 -0)
(0.0615685 -0.000745041 -3.25602e-21)
(0.0626542 -0.000704265 -0)
(0.0637047 -0.000663668 3.22355e-21)
(0.0647191 -0.000623095 0)
(0.0656965 -0.000582502 0)
(0.0666359 -0.000541681 0)
(0.067536 -0.000500659 -3.1461e-21)
(0.0683956 -0.00045905 -0)
(0.0692131 -0.000416753 3.09983e-21)
(0.0699872 -0.000373325 0)
(0.0707152 -0.000328528 -3.04781e-21)
(0.071396 -0.000281987 -3.0195e-21)
(0.0720264 -0.000233322 -2.98966e-21)
(0.0726047 -0.000182716 -0)
(0.0731287 -0.000130957 0)
(0.0735979 -8.05149e-05 0)
(0.0740141 -3.5767e-05 0)
(0.0743818 9.98476e-07 0)
(0.0747065 3.4072e-05 0)
(0.074988 6.64864e-05 0)
(0.0752267 9.85072e-05 0)
(0.0754212 0.000130311 2.65054e-21)
(0.0755718 0.000161988 2.60403e-21)
(0.0756776 0.000193412 0)
(0.0757389 0.000224731 0)
(0.0757544 0.000255813 0)
(0.0757245 0.000286701 2.39921e-21)
(0.0756487 0.000317284 0)
(0.0755268 0.000347657 0)
(0.0753583 0.000377737 0)
(0.0751433 0.000407429 0)
(0.0748823 0.000436758 -2.09898e-21)
(0.0745745 0.000465797 0)
(0.0742201 0.000494368 0)
(0.0738196 0.000522433 1.89355e-21)
(0.0733732 0.000550123 -1.8206e-21)
(0.0728807 0.000577291 0)
(0.0723428 0.000603955 -1.66773e-21)
(0.0717596 0.00063009 0)
(0.0711315 0.000655718 1.50522e-21)
(0.0704589 0.000680714 0)
(0.0697424 0.000705228 0)
(0.0689823 0.000729189 0)
(0.0681786 0.000752769 0)
(0.067332 0.000775739 0)
(0.0664516 0.000798049 -1.9108e-21)
(0.065532 0.000819313 -1.70808e-21)
(0.0645743 0.000840155 0)
(0.063571 0.000860138 0)
(0.0625386 0.000879001 0)
(0.0614662 0.000895269 8.35109e-22)
(0.0603639 0.000906552 0)
(0.0592316 0.000909461 0)
(0.0580701 0.000903334 0)
(0.0568733 0.000905667 -1.46286e-22)
(0.0556456 0.000920688 4.1112e-22)
(0.0543838 0.000934428 0)
(0.053095 0.000947179 0)
(0.051779 0.000959026 1.25949e-21)
(0.0504387 0.000970222 1.56174e-21)
(0.0490747 0.000980798 0)
(0.0476889 0.000990888 0)
(0.0462824 0.00100044 -2.53445e-21)
(0.044857 0.00100953 2.88266e-21)
(0.0434136 0.0010181 0)
(0.0419541 0.00102608 0)
(0.0404785 0.00103335 4.00884e-21)
(0.0389906 0.00104017 0)
(0.037488 0.00104607 0)
(0.0359779 0.00105159 5.27505e-21)
(0.0344563 0.00105637 0)
(0.0329297 0.00106082 6.21146e-21)
(0.0313957 0.00106489 0)
(0.0298577 0.00106874 0)
(0.0283155 0.00107244 0)
(0.0267706 0.00107612 -8.35884e-21)
(0.0252234 0.00107988 0)
(0.0236746 0.00108372 0)
(0.0221245 0.00108764 0)
(0.0205737 0.00109165 0)
(0.0190228 0.00109574 0)
(0.0174725 0.00109999 0)
(0.015923 0.00110449 -1.34132e-20)
(0.0143749 0.00110939 -1.43338e-20)
(0.0128284 0.00111476 0)
(0.0112835 0.00112065 0)
(0.00974019 0.00112702 0)
(0.00819886 0.00113356 1.88015e-20)
(0.00666038 0.00113983 0)
(0.0051267 0.00114556 -4.33653e-20)
(0.0036014 0.00114842 4.66924e-20)
(0.0020926 0.00114383 5.03773e-20)
(0.000606702 0.00111872 -5.42075e-20)
(-0.000772685 0.0010608 5.49361e-20)
(-0.00229806 0.000898326 -5.28529e-20)
(-0.00267337 0.000524912 0)
(-0.00461553 0.00114122 -3.14461e-18)
(-0.00763798 0.000924684 -2.84559e-18)
(-0.0106303 0.000590755 3.00927e-36)
(-0.0137283 0.000276347 -4.83035e-18)
(-0.0170329 -5.46604e-05 -8.9746e-18)
(-0.0205474 -0.000404328 -4.18393e-18)
(-0.024284 -0.000774127 3.91139e-18)
(-0.0282649 -0.00116751 -4.21297e-35)
(-0.0325137 -0.00158803 6.01853e-36)
(-0.0370529 -0.0020381 3.22801e-18)
(-0.0418978 -0.00252564 3.03243e-18)
(-0.0470703 -0.00301003 9.0278e-36)
(-0.0525779 -0.00351203 0)
(-0.0584752 -0.00408973 0)
(-0.0648252 -0.00473324 3.00927e-36)
(-0.071634 -0.00543242 1.78205e-35)
(-0.0790392 -0.00618681 -9.0278e-36)
(-0.0869225 -0.00700245 -3.7356e-18)
(-0.0958099 -0.00788777 -3.40013e-18)
(-0.10483 -0.00884887 1.20371e-35)
(-0.116306 -0.00990622 5.3412e-18)
(-0.125793 -0.0110642 8.85439e-18)
(-0.143138 -0.0122939 -6.01853e-36)
(-0.150525 -0.0137948 -4.26045e-18)
(-0.18497 -0.0161185 -9.0278e-36)
)
;
    }
    frontAndBack
    {
        type            empty;
    }
}


// ************************************************************************* //
