/*--------------------------------*- C++ -*----------------------------------*\
| =========                 |                                                 |
| \\      /  F ield         | OpenFOAM: The Open Source CFD Toolbox           |
|  \\    /   O peration     | Version:  v2012                                 |
|   \\  /    A nd           | Website:  www.openfoam.com                      |
|    \\/     M anipulation  |                                                 |
\*---------------------------------------------------------------------------*/
FoamFile
{
    version     2.0;
    format      ascii;
    class       volScalarField;
    location    "600";
    object      nut;
}
// * * * * * * * * * * * * * * * * * * * * * * * * * * * * * * * * * * * * * //

dimensions      [0 2 -1 0 0 0 0];


internalField   nonuniform List<scalar> 
12225
(
0.0122671
0.00158819
0.000666128
0.000410104
0.00029404
0.000227808
0.000186418
0.000144349
0.000166378
0.000215719
0.000223841
0.000214197
0.000195171
0.000167533
0.000161397
0.000145523
0.000132309
0.000120107
0.0323823
0.00744532
0.00330638
0.00204329
0.00146802
0.00114429
0.000938661
0.000784868
0.000690388
0.000626899
0.000569552
0.000518718
0.000475216
0.000435569
0.000404975
0.000372249
0.000347116
0.000321085
0.0490123
0.01515
0.00728196
0.00457854
0.00330639
0.00258047
0.00211327
0.00178187
0.00154675
0.0013725
0.00123147
0.00111529
0.00101835
0.000936104
0.000866692
0.00080429
0.000753561
0.000700987
0.063054
0.0237783
0.0122894
0.00788815
0.00573397
0.00448497
0.0036744
0.00310419
0.00268716
0.00236996
0.0021179
0.00191315
0.00174401
0.00160222
0.00148242
0.0013786
0.00129106
0.00120451
0.074932
0.0328517
0.0181452
0.0119262
0.00874549
0.00686412
0.00563086
0.00476129
0.00411868
0.00362571
0.00323515
0.00291874
0.00265799
0.00244004
0.00225596
0.00209832
0.00196334
0.00183979
0.0849536
0.0420208
0.0246655
0.0166359
0.0123325
0.00972587
0.0079954
0.0067674
0.00585403
0.00515004
0.0045919
0.00413982
0.00376742
0.00345634
0.00319351
0.00296906
0.00277611
0.00260655
0.0933822
0.0510219
0.0316642
0.0219415
0.016474
0.0130717
0.0107779
0.00913539
0.00790598
0.00695436
0.00619832
0.00558531
0.00508009
0.00465801
0.00430136
0.00399701
0.00373533
0.00350912
0.0993794
0.0583363
0.0378386
0.0268568
0.0204171
0.0163053
0.0134892
0.011453
0.00991905
0.0087267
0.00777696
0.00700569
0.00636943
0.00583762
0.00538815
0.00500467
0.00467515
0.00439181
0.104023
0.0645454
0.0433804
0.0314239
0.0241571
0.0194092
0.0161097
0.0137018
0.0118767
0.0104523
0.00931473
0.00838939
0.00762524
0.00698615
0.00644585
0.0059849
0.00558898
0.00524915
0.108368
0.0708939
0.0493757
0.0365496
0.0284517
0.0230231
0.0191863
0.0163548
0.0141927
0.0124969
0.0111382
0.0100305
0.00911456
0.00834784
0.00769936
0.00714606
0.00667097
0.00626327
0.112368
0.0772557
0.0557282
0.0421918
0.0332976
0.0271652
0.0227468
0.0194433
0.0168984
0.0148904
0.013275
0.0119546
0.0108606
0.00994396
0.00916815
0.00850606
0.00793758
0.00744939
0.115994
0.0834975
0.0623053
0.0482611
0.0386474
0.0318167
0.026789
0.0229739
0.0200047
0.0176452
0.0157379
0.0141737
0.012875
0.0117851
0.010862
0.0100738
0.00939689
0.00881484
0.119234
0.0894856
0.0689377
0.0546109
0.0443919
0.0369007
0.0312597
0.0269089
0.0234837
0.02074
0.0185097
0.0166735
0.015145
0.0138601
0.0127705
0.0118397
0.0110398
0.010351
0.122086
0.095084
0.075415
0.0610223
0.0503361
0.0422535
0.0360231
0.0311353
0.0272402
0.0240931
0.0215191
0.0193909
0.0176141
0.0161175
0.0148467
0.0137601
0.0128258
0.0120197
0.124546
0.100135
0.0814619
0.0671726
0.056158
0.047577
0.0408126
0.0354174
0.031066
0.0275197
0.0246013
0.0221778
0.0201482
0.018435
0.0169783
0.0157315
0.0146584
0.0137312
0.126578
0.104396
0.0866605
0.0725515
0.0613228
0.0523526
0.0451453
0.0393148
0.0345631
0.0306611
0.0274325
0.024741
0.0224806
0.020569
0.0189413
0.0175468
0.0163455
0.0153062
0.128011
0.107322
0.0902141
0.0762353
0.0648743
0.0556509
0.0481493
0.0420254
0.0370012
0.0328553
0.0294126
0.0265352
0.0241143
0.0220643
0.0203171
0.0188191
0.0175275
0.0164083
0.128006
0.107313
0.0902048
0.0762269
0.0648674
0.0556454
0.048145
0.0420221
0.0369988
0.0328537
0.0294117
0.0265349
0.0241147
0.0220651
0.0203184
0.0188205
0.0175286
0.0164082
0.126509
0.104255
0.0864922
0.0723807
0.0611613
0.052205
0.0450128
0.0391967
0.0344584
0.0305685
0.0273506
0.0246684
0.0224163
0.0205118
0.0188902
0.0175006
0.0163023
0.015263
0.124267
0.0995604
0.0807712
0.0664676
0.0554886
0.0469631
0.0402594
0.0349227
0.0306248
0.0271258
0.0242487
0.0218611
0.0198625
0.0181762
0.0167425
0.0155151
0.0144574
0.0135404
0.12136
0.0936399
0.0737261
0.0593348
0.0487592
0.0408248
0.0347467
0.0300003
0.0262308
0.0231928
0.0207127
0.018665
0.0169572
0.0155197
0.0142998
0.0132566
0.0123582
0.0115797
0.117686
0.0865903
0.0656967
0.0514791
0.0415374
0.0343608
0.0290183
0.0249322
0.0217348
0.0191848
0.0171184
0.0154211
0.0140105
0.0128262
0.0118228
0.0109656
0.0102279
0.00958885
0.11305
0.0784122
0.056921
0.0432687
0.0342296
0.0279652
0.0234365
0.0200435
0.0174263
0.0153598
0.0136967
0.012337
0.0112107
0.0102671
0.00946864
0.00878715
0.00820095
0.00769338
0.107169
0.0691009
0.0476372
0.035029
0.0271566
0.021922
0.0182437
0.0155401
0.0134818
0.0118708
0.0105819
0.00953231
0.00866515
0.00793988
0.00732684
0.00680388
0.00635416
0.00596492
0.0996761
0.0587036
0.0381279
0.0270699
0.0205782
0.0164329
0.0135949
0.0115437
0.00999935
0.00879953
0.00784422
0.00706853
0.00642881
0.00589439
0.00544291
0.00505789
0.00472679
0.00444033
0.0901097
0.0473665
0.0287363
0.0196847
0.0146976
0.0116311
0.0095785
0.0081152
0.00702351
0.00618081
0.00551235
0.00497025
0.00452344
0.0041504
0.00383508
0.00356626
0.00333497
0.00313484
0.0779076
0.0353826
0.0198606
0.0131383
0.00966106
0.00759295
0.00623349
0.0052741
0.00456425
0.00402038
0.00359042
0.00324083
0.00295207
0.00271103
0.00250629
0.00233208
0.00218192
0.00205158
0.06238
0.0232554
0.0119461
0.00765493
0.00556337
0.00435254
0.0035672
0.00301615
0.00261332
0.00231035
0.00207203
0.00187476
0.00171009
0.00157294
0.00145364
0.00135309
0.00126569
0.00118857
0.0426105
0.0117794
0.0054693
0.00341385
0.0024607
0.00192004
0.00157266
0.00132942
0.0011583
0.00104124
0.000949554
0.000865044
0.000791962
0.00073038
0.00067139
0.000622267
0.000577665
0.000541806
0.0168348
0.00255985
0.00110002
0.000683429
0.000493725
0.000386811
0.000318009
0.000268388
0.000267502
0.000336072
0.000374741
0.000353796
0.000321201
0.000287141
0.000257286
0.000236323
0.000194636
0.000236371
5.28639e-10
1.01682e-07
1.14944e-06
5.17485e-06
9.87013e-06
1.28107e-05
1.31389e-05
1.11654e-05
8.84314e-06
5.76312e-06
3.39279e-06
1.93667e-06
1.35817e-06
1.47354e-06
2.01197e-06
2.4779e-06
2.40917e-06
1.62973e-06
7.24207e-07
3.70441e-07
4.13776e-07
1.22789e-06
5.54833e-06
2.86273e-05
5.72643e-05
7.51051e-05
9.14714e-05
0.000105261
0.000117388
0.000127497
0.000136348
0.000143957
0.000150614
0.000156412
0.000161471
0.000165938
0.000169897
0.000173435
0.000176606
0.000179456
0.000182013
0.000184299
0.000186333
0.000188131
0.000189707
0.000191073
0.000192241
0.000193215
0.000193996
0.000194578
0.00019484
0.000195086
0.000195136
0.000195007
0.000194707
0.000194259
0.000193658
0.000192909
0.000192014
0.000190973
0.00018979
0.000188467
0.000187005
0.000185407
0.000183677
0.000181815
0.000179823
0.000177703
0.000175459
0.000173091
0.000170603
0.000167996
0.000165271
0.000162431
0.000159476
0.000156406
0.000153223
0.000149925
0.000146511
0.00014298
0.00013933
0.000135559
0.000131663
0.000127638
0.00012348
0.000119178
0.000114722
0.000110092
0.000105266
0.000100218
9.49172e-05
8.9338e-05
8.34757e-05
7.7401e-05
7.13982e-05
6.61468e-05
6.24322e-05
6.01163e-05
5.83708e-05
5.6766e-05
5.51897e-05
5.36209e-05
5.20585e-05
5.05038e-05
4.89589e-05
4.74259e-05
4.59072e-05
4.44094e-05
4.29612e-05
4.17304e-05
4.05256e-05
3.9336e-05
3.81636e-05
3.70091e-05
3.58735e-05
3.47574e-05
3.36618e-05
3.25872e-05
3.15344e-05
3.05038e-05
2.94956e-05
2.85105e-05
2.7549e-05
2.66116e-05
2.56982e-05
2.48088e-05
2.39445e-05
2.31364e-05
2.24026e-05
2.16874e-05
2.0987e-05
2.03103e-05
1.96615e-05
1.90266e-05
1.8406e-05
1.78026e-05
1.72171e-05
1.66499e-05
1.61007e-05
1.55691e-05
1.50548e-05
1.45572e-05
1.4076e-05
1.36108e-05
1.3161e-05
1.27265e-05
1.23066e-05
1.19011e-05
1.15096e-05
1.11317e-05
1.07669e-05
1.04151e-05
1.00757e-05
9.7486e-06
9.43338e-06
9.12977e-06
8.83753e-06
8.55638e-06
8.28612e-06
8.02653e-06
7.77745e-06
7.53867e-06
7.31006e-06
7.09139e-06
6.88251e-06
6.68312e-06
6.49293e-06
6.31147e-06
6.13823e-06
5.97245e-06
5.81319e-06
5.65938e-06
5.50892e-06
5.36173e-06
5.20842e-06
5.06467e-06
4.86148e-06
4.71978e-06
4.30546e-06
3.68226e-06
3.35022e-09
6.04642e-06
6.16199e-05
0.000137926
0.000181956
0.000206055
0.00021556
0.000214045
0.000205546
0.000188698
0.000167775
0.000147675
0.000137595
0.000143102
0.000156935
0.000165315
0.000167422
0.000168312
0.00017383
0.000183614
0.000199871
0.000218178
0.000235285
0.00025122
0.000262529
0.000272304
0.000281156
0.000294396
0.000313256
0.000327157
0.000339821
0.000350701
0.000360601
0.00036965
0.000377521
0.00038471
0.000391409
0.00039784
0.000404131
0.000410348
0.000416483
0.000422495
0.000428331
0.000433949
0.000439322
0.000444434
0.000449269
0.000453815
0.000458073
0.00046205
0.000465754
0.000469207
0.000472399
0.000475339
0.000478028
0.000480468
0.000482659
0.000484603
0.000486299
0.000487747
0.00048895
0.000489907
0.000490621
0.000491095
0.000491342
0.000491365
0.000491158
0.000490719
0.000490064
0.000489196
0.000488121
0.000486847
0.000485379
0.000483724
0.000481889
0.000479882
0.000477709
0.000475379
0.000472898
0.000470276
0.000467518
0.000464635
0.000461634
0.000458524
0.000455313
0.00045201
0.000448623
0.000445159
0.000441625
0.000438029
0.000434378
0.000430675
0.000426921
0.000423109
0.000419218
0.000415224
0.000411111
0.000406908
0.000402666
0.000398407
0.000394141
0.000389871
0.000385599
0.000381331
0.000377068
0.000372815
0.000368575
0.000364349
0.000360138
0.000355938
0.000351762
0.000347614
0.000343495
0.000339407
0.000335352
0.000331332
0.000327348
0.000323402
0.000319495
0.000315628
0.000311802
0.000308018
0.000304277
0.00030058
0.000296928
0.000293321
0.000289758
0.000286239
0.000282761
0.000279328
0.000275938
0.0002726
0.000269315
0.000266066
0.000262853
0.000259682
0.000256555
0.000253473
0.000250435
0.000247443
0.000244494
0.000241589
0.000238727
0.000235907
0.000233129
0.000230392
0.000227695
0.000225039
0.000222422
0.000219845
0.000217306
0.000214806
0.000212345
0.000209922
0.000207538
0.000205192
0.000202886
0.00020062
0.000198395
0.000196211
0.000194071
0.000191976
0.000189928
0.000187928
0.000185979
0.000184082
0.000182237
0.000180447
0.000178708
0.000177021
0.000175379
0.000173783
0.000172212
0.000170696
0.000169103
0.000167757
0.000165711
0.000165116
0.00016204
0.000160582
7.65051e-08
3.98941e-05
0.000162981
0.000245686
0.000298935
0.000329106
0.000339968
0.000336929
0.000323909
0.000304551
0.000284853
0.000272484
0.000270561
0.000277557
0.000288106
0.000299157
0.000312243
0.000329434
0.000351108
0.000376486
0.000403915
0.000432126
0.000471591
0.000517747
0.000563341
0.000607413
0.000650469
0.000694115
0.000733137
0.000764178
0.000788986
0.000808659
0.000824257
0.000836639
0.000846585
0.000854864
0.000862175
0.000869157
0.000876342
0.000884082
0.000892478
0.000901405
0.000910622
0.000919896
0.000929049
0.000937963
0.000946561
0.000954798
0.000962635
0.000970047
0.000977004
0.000983489
0.000989488
0.000995
0.00100002
0.00100455
0.00100859
0.00101213
0.00101518
0.00101774
0.00101981
0.00102138
0.00102246
0.001023
0.00102315
0.00102286
0.00102207
0.00102082
0.00101913
0.001017
0.00101446
0.00101151
0.00100817
0.00100445
0.00100037
0.000995929
0.000991156
0.000986063
0.000980664
0.000974973
0.000969007
0.00096278
0.000956308
0.000949607
0.000942691
0.000935576
0.000928275
0.000920804
0.000913175
0.000905402
0.000897496
0.000889469
0.000881329
0.000873086
0.000864748
0.000856323
0.000847826
0.000839272
0.000830676
0.000822053
0.000813414
0.000804766
0.000796118
0.000787478
0.000778853
0.000770249
0.000761674
0.000753133
0.000744632
0.000736176
0.000727771
0.000719423
0.000711136
0.000702914
0.00069476
0.000686678
0.000678671
0.000670743
0.000662895
0.000655131
0.000647451
0.000639857
0.000632353
0.000624939
0.000617617
0.000610388
0.00060325
0.000596206
0.000589255
0.000582399
0.000575638
0.000568971
0.000562398
0.000555912
0.000549513
0.000543202
0.000536983
0.000530855
0.000524818
0.000518873
0.000513017
0.00050725
0.000501571
0.000495979
0.000490473
0.000485051
0.000479712
0.000474456
0.000469281
0.000464185
0.000459169
0.00045423
0.000449368
0.000444582
0.00043987
0.000435232
0.000430666
0.000426172
0.000421747
0.000417392
0.000413103
0.000408881
0.000404723
0.000400627
0.00039659
0.000392609
0.00038868
0.000384797
0.000380954
0.000377143
0.00037335
0.000369562
0.000365753
0.000361911
0.000357939
0.000353932
0.000349396
0.000345144
0.00033858
0.000326875
6.17319e-07
8.22144e-05
0.000213086
0.000308907
0.000372324
0.000409379
0.000424636
0.000424831
0.000414719
0.000401395
0.00039359
0.000393048
0.000402681
0.000420203
0.000443217
0.000471225
0.00050481
0.000544238
0.000588674
0.000652716
0.000726873
0.000806877
0.000890701
0.000960916
0.00102305
0.00107892
0.00112911
0.00117379
0.00121285
0.00124655
0.00127565
0.00130087
0.0013229
0.00134238
0.00135987
0.00137586
0.00139077
0.00140492
0.00141857
0.00143192
0.00144509
0.00145814
0.0014711
0.00148395
0.00149664
0.0015091
0.00152123
0.00153293
0.00154411
0.0015547
0.00156465
0.00157392
0.00158249
0.00159035
0.00159748
0.00160388
0.00160955
0.00161448
0.00161867
0.00162213
0.00162485
0.00162682
0.00162797
0.0016284
0.00162827
0.00162735
0.00162572
0.00162339
0.00162039
0.00161672
0.00161242
0.00160749
0.00160196
0.00159586
0.00158919
0.00158199
0.00157427
0.00156607
0.0015574
0.00154828
0.00153874
0.00152881
0.0015185
0.00150783
0.00149684
0.00148554
0.00147396
0.00146212
0.00145003
0.00143773
0.00142522
0.00141253
0.00139968
0.00138667
0.00137353
0.00136028
0.00134692
0.00133348
0.00131999
0.00130645
0.00129289
0.00127931
0.00126573
0.00125217
0.00123863
0.00122513
0.00121167
0.00119826
0.00118492
0.00117165
0.00115846
0.00114536
0.00113235
0.00111945
0.00110665
0.00109396
0.00108139
0.00106895
0.00105662
0.00104443
0.00103237
0.00102044
0.00100865
0.000996998
0.00098549
0.000974124
0.000962902
0.000951824
0.000940893
0.000930107
0.000919468
0.000908975
0.000898625
0.000888415
0.000878342
0.00086841
0.000858618
0.000848967
0.000839456
0.000830086
0.000820854
0.00081176
0.000802801
0.000793977
0.000785285
0.000776724
0.000768292
0.000759987
0.000751808
0.000743752
0.000735818
0.000728005
0.000720309
0.00071273
0.000705266
0.000697915
0.000690674
0.000683543
0.000676519
0.0006696
0.000662784
0.000656067
0.000649448
0.000642922
0.000636486
0.000630133
0.00062386
0.000617657
0.000611515
0.000605422
0.000599361
0.000593311
0.000587242
0.00058112
0.00057487
0.000568469
0.000561634
0.000554631
0.000546171
0.000529917
1.40189e-06
0.000101924
0.000235016
0.000354753
0.000433364
0.000480561
0.000503975
0.000512371
0.000514011
0.000515262
0.000522559
0.000539183
0.000565704
0.000601128
0.000644692
0.000696439
0.000757202
0.00084119
0.000937349
0.00103305
0.0011218
0.00120594
0.00128499
0.00135741
0.00142392
0.00148512
0.00154138
0.00159306
0.00164049
0.00168413
0.00172444
0.00176192
0.00179698
0.00183
0.00186128
0.00189109
0.0019196
0.00194696
0.00197327
0.00199858
0.00202292
0.00204631
0.00206875
0.0020902
0.00211066
0.00213008
0.00214844
0.00216571
0.00218186
0.00219687
0.00221074
0.00222346
0.00223504
0.00224551
0.00225487
0.00226315
0.00227036
0.00227651
0.00228164
0.00228573
0.00228882
0.00229086
0.00229177
0.00229185
0.00229096
0.00228908
0.00228624
0.00228246
0.00227776
0.00227217
0.00226571
0.00225842
0.00225031
0.00224142
0.00223178
0.00222141
0.00221036
0.00219865
0.0021863
0.00217336
0.00215986
0.00214581
0.00213127
0.00211625
0.00210078
0.00208491
0.00206866
0.00205205
0.00203512
0.00201789
0.0020004
0.00198267
0.00196472
0.00194657
0.00192825
0.00190979
0.0018912
0.00187252
0.00185375
0.00183494
0.00181609
0.00179722
0.00177836
0.00175952
0.00174071
0.00172196
0.00170327
0.00168466
0.00166613
0.00164771
0.0016294
0.00161121
0.00159315
0.00157523
0.00155746
0.00153984
0.00152239
0.0015051
0.00148798
0.00147104
0.00145428
0.00143771
0.00142132
0.00140513
0.00138913
0.00137332
0.00135772
0.00134231
0.0013271
0.00131209
0.00129727
0.00128266
0.00126825
0.00125402
0.00123999
0.00122615
0.00121251
0.00119905
0.00118579
0.00117272
0.00115983
0.00114713
0.00113462
0.00112229
0.00111014
0.00109817
0.00108638
0.00107476
0.0010633
0.00105202
0.0010409
0.00102995
0.00101915
0.00100852
0.000998035
0.000987706
0.000977528
0.000967497
0.000957611
0.000947867
0.000938261
0.000928791
0.000919451
0.000910238
0.000901146
0.00089217
0.000883301
0.000874531
0.000865847
0.000857235
0.000848676
0.000840144
0.000831606
0.00082302
0.000814313
0.000805427
0.000796156
0.000786537
0.000776367
0.000756587
2.32889e-06
0.00011828
0.000256341
0.000389975
0.000486791
0.000548489
0.000586239
0.000609742
0.000627706
0.000647389
0.000673989
0.000710087
0.000756382
0.000813141
0.000880933
0.000971933
0.0010774
0.00117906
0.00127815
0.0013734
0.00146386
0.00154962
0.00163063
0.00170687
0.00177863
0.00184627
0.00191012
0.00197052
0.00202781
0.00208231
0.00213433
0.00218418
0.00223209
0.00227827
0.00232289
0.00236606
0.00240787
0.00244837
0.0024876
0.00252556
0.00256224
0.00259764
0.00263171
0.00266443
0.00269576
0.00272564
0.00275406
0.00278096
0.0028063
0.00283006
0.00285221
0.00287272
0.00289158
0.00290877
0.0029243
0.00293816
0.00295035
0.00296088
0.00296976
0.00297702
0.00298267
0.00298674
0.00298915
0.00299004
0.00298957
0.00298759
0.00298423
0.00297952
0.0029735
0.00296624
0.00295778
0.00294817
0.00293747
0.00292573
0.002913
0.00289932
0.00288475
0.00286932
0.00285308
0.00283607
0.00281835
0.00279994
0.0027809
0.00276125
0.00274105
0.00272033
0.00269912
0.00267748
0.00265544
0.00263303
0.00261029
0.00258725
0.00256394
0.0025404
0.00251665
0.00249274
0.00246867
0.00244449
0.00242022
0.00239589
0.00237152
0.00234714
0.00232277
0.00229843
0.00227414
0.00224992
0.00222579
0.00220176
0.00217784
0.00215406
0.00213042
0.00210694
0.00208362
0.00206049
0.00203755
0.0020148
0.00199226
0.00196994
0.00194784
0.00192596
0.00190431
0.0018829
0.00186173
0.0018408
0.00182012
0.00179969
0.00177951
0.00175958
0.0017399
0.00172047
0.0017013
0.00168238
0.00166371
0.00164529
0.00162711
0.00160918
0.00159149
0.00157404
0.00155684
0.00153988
0.00152315
0.00150666
0.00149041
0.00147438
0.00145858
0.00144301
0.00142766
0.00141252
0.00139761
0.0013829
0.0013684
0.00135411
0.00134002
0.00132612
0.00131243
0.00129892
0.0012856
0.00127247
0.00125953
0.00124675
0.00123416
0.00122173
0.00120947
0.00119737
0.00118542
0.00117363
0.00116196
0.00115043
0.00113901
0.00112769
0.00111645
0.00110526
0.00109408
0.00108288
0.00107157
0.00106009
0.00104827
0.0010361
0.00102381
0.00100136
2.79769e-06
0.000126836
0.000269243
0.000407567
0.000526165
0.000607576
0.000663769
0.000705908
0.000743243
0.000783014
0.000830236
0.000887807
0.00095747
0.00105031
0.00115766
0.00126432
0.0013704
0.00147366
0.00157357
0.00166973
0.00176192
0.00185016
0.00193454
0.00201522
0.00209245
0.00216649
0.00223764
0.00230614
0.00237227
0.00243625
0.00249829
0.00255857
0.00261723
0.0026744
0.00273015
0.00278455
0.00283763
0.00288939
0.00293983
0.00298894
0.00303668
0.00308301
0.0031279
0.00317129
0.00321312
0.00325336
0.00329194
0.00332881
0.00336392
0.00339722
0.00342868
0.00345824
0.00348589
0.00351158
0.00353529
0.00355701
0.00357671
0.00359438
0.00361002
0.00362363
0.00363522
0.00364479
0.00365236
0.00365797
0.0036616
0.00366321
0.00366311
0.00366111
0.00365732
0.00365179
0.00364457
0.00363571
0.00362528
0.00361333
0.00359993
0.00358515
0.00356904
0.00355168
0.00353314
0.00351347
0.00349275
0.00347105
0.00344843
0.00342495
0.00340068
0.00337569
0.00335003
0.00332376
0.00329694
0.00326962
0.00324185
0.00321369
0.00318517
0.00315634
0.00312725
0.00309793
0.00306842
0.00303876
0.00300898
0.00297912
0.00294921
0.00291929
0.00288937
0.00285948
0.00282965
0.0027999
0.00277026
0.00274074
0.00271136
0.00268213
0.00265309
0.00262423
0.00259558
0.00256715
0.00253895
0.00251098
0.00248327
0.00245581
0.00242862
0.00240171
0.00237507
0.00234872
0.00232266
0.00229689
0.00227142
0.00224624
0.00222137
0.00219681
0.00217255
0.00214859
0.00212494
0.00210159
0.00207854
0.00205579
0.00203333
0.00201118
0.00198931
0.00196774
0.00194646
0.00192547
0.00190476
0.00188434
0.0018642
0.00184433
0.00182474
0.00180542
0.00178636
0.00176757
0.00174903
0.00173075
0.00171272
0.00169493
0.00167739
0.00166009
0.00164302
0.00162618
0.00160957
0.00159319
0.00157702
0.00156107
0.00154532
0.00152979
0.00151445
0.00149931
0.00148436
0.00146958
0.00145498
0.00144053
0.00142624
0.00141206
0.001398
0.00138401
0.00137007
0.00135611
0.00134208
0.00132791
0.00131343
0.00129869
0.00128363
0.00125939
2.94231e-06
0.000128707
0.000270552
0.000407052
0.000537661
0.000641267
0.000718613
0.000780254
0.000836377
0.000894702
0.000963301
0.00105605
0.00116633
0.00128785
0.00140336
0.00151457
0.00162231
0.00172676
0.00182787
0.00192558
0.00201991
0.00211096
0.00219886
0.00228381
0.00236602
0.00244573
0.00252315
0.0025985
0.00267197
0.00274372
0.00281391
0.00288264
0.00295
0.00301607
0.00308088
0.00314445
0.00320677
0.00326785
0.00332764
0.0033861
0.00344319
0.00349886
0.00355303
0.00360566
0.00365667
0.00370601
0.00375359
0.00379937
0.00384328
0.00388525
0.00392524
0.0039632
0.00399907
0.00403282
0.0040644
0.00409379
0.00412095
0.00414587
0.00416853
0.00418892
0.00420704
0.00422288
0.00423645
0.00424776
0.00425684
0.00426369
0.0042684
0.00427084
0.00427126
0.0042696
0.00426591
0.00426025
0.00425267
0.00424323
0.00423198
0.00421898
0.00420432
0.00418804
0.00417023
0.00415094
0.00413026
0.00410825
0.00408498
0.00406054
0.00403498
0.00400838
0.00398082
0.00395236
0.00392307
0.00389302
0.00386228
0.0038309
0.00379896
0.0037665
0.00373358
0.00370027
0.00366662
0.00363267
0.00359848
0.00356409
0.00352956
0.00349491
0.0034602
0.00342546
0.00339072
0.00335601
0.00332138
0.00328684
0.00325242
0.00321815
0.00318404
0.00315013
0.00311643
0.00308295
0.00304972
0.00301674
0.00298404
0.00295161
0.00291949
0.00288766
0.00285615
0.00282496
0.00279409
0.00276355
0.00273335
0.00270349
0.00267398
0.00264481
0.00261598
0.00258751
0.00255938
0.0025316
0.00250417
0.00247708
0.00245033
0.00242392
0.00239785
0.00237212
0.00234673
0.00232167
0.00229694
0.00227253
0.00224845
0.00222469
0.00220124
0.00217811
0.00215529
0.00213277
0.00211054
0.00208862
0.00206698
0.00204564
0.00202457
0.00200378
0.00198327
0.00196303
0.00194305
0.00192333
0.00190387
0.00188466
0.0018657
0.00184698
0.0018285
0.00181024
0.00179221
0.00177438
0.00175677
0.00173934
0.00172209
0.001705
0.00168805
0.0016712
0.00165441
0.00163765
0.00162083
0.0016039
0.0015867
0.0015693
0.00155134
0.00152519
2.75747e-06
0.00012519
0.00026384
0.000395376
0.000519904
0.000632173
0.00072614
0.000807718
0.000891832
0.000987896
0.00109785
0.00122307
0.0013596
0.00148703
0.00160724
0.00172218
0.00183279
0.00193945
0.00204247
0.00214222
0.00223891
0.00233274
0.00242393
0.00251267
0.00259917
0.00268364
0.00276627
0.00284722
0.00292666
0.00300471
0.00308148
0.00315704
0.00323145
0.00330475
0.00337695
0.00344804
0.003518
0.00358678
0.00365435
0.00372065
0.0037856
0.00384915
0.00391121
0.0039717
0.00403056
0.0040877
0.00414305
0.00419652
0.00424806
0.00429758
0.00434502
0.00439032
0.00443343
0.00447429
0.00451286
0.00454909
0.00458296
0.00461443
0.00464348
0.00467009
0.00469426
0.00471597
0.00473524
0.00475206
0.00476645
0.00477842
0.00478801
0.00479523
0.00480015
0.0048027
0.00480307
0.00480124
0.00479726
0.00479118
0.00478306
0.00477295
0.00476094
0.00474706
0.0047314
0.00471403
0.004695
0.00467439
0.00465228
0.00462873
0.00460383
0.00457764
0.00455023
0.00452169
0.00449207
0.00446146
0.00442992
0.00439752
0.00436432
0.0043304
0.00429581
0.00426063
0.00422491
0.00418871
0.00415209
0.0041151
0.0040778
0.00404025
0.00400248
0.00396455
0.0039265
0.00388838
0.00385021
0.00381204
0.00377391
0.00373584
0.00369788
0.00366003
0.00362234
0.00358483
0.00354752
0.00351043
0.00347358
0.00343699
0.00340067
0.00336465
0.00332892
0.00329351
0.00325843
0.00322368
0.00318927
0.00315521
0.00312151
0.00308816
0.00305518
0.00302257
0.00299033
0.00295846
0.00292696
0.00289583
0.00286507
0.00283468
0.00280466
0.00277501
0.00274572
0.0027168
0.00268824
0.00266004
0.0026322
0.00260471
0.00257757
0.00255078
0.00252433
0.00249821
0.00247244
0.00244699
0.00242187
0.00239707
0.00237258
0.00234841
0.00232455
0.00230099
0.00227773
0.00225477
0.00223209
0.00220971
0.0021876
0.00216576
0.0021442
0.0021229
0.00210185
0.00208104
0.00206048
0.00204013
0.00201999
0.00200003
0.00198024
0.00196058
0.00194101
0.00192148
0.00190192
0.00188226
0.00186236
0.0018423
0.00182154
0.0017932
2.34067e-06
0.000117895
0.000252676
0.000380707
0.000503606
0.000620145
0.000731196
0.00084079
0.000956319
0.00108281
0.0012214
0.00137155
0.00151377
0.00164566
0.00176984
0.00188818
0.00200181
0.00211135
0.00221721
0.00231959
0.00241888
0.00251547
0.00260967
0.00270172
0.00279186
0.00288029
0.00296719
0.00305273
0.00313703
0.0032202
0.00330232
0.00338346
0.00346365
0.00354289
0.00362119
0.00369851
0.00377482
0.00385006
0.00392417
0.00399707
0.00406868
0.00413893
0.00420771
0.00427494
0.00434053
0.00440439
0.00446642
0.00452655
0.00458469
0.00464075
0.00469467
0.00474638
0.0047958
0.00484289
0.00488758
0.00492984
0.00496961
0.00500688
0.0050416
0.00507376
0.00510334
0.00513034
0.00515475
0.00517657
0.00519582
0.00521251
0.00522666
0.0052383
0.00524746
0.00525416
0.00525847
0.00526038
0.00526003
0.0052574
0.00525256
0.00524558
0.00523651
0.00522541
0.00521235
0.00519739
0.00518061
0.00516207
0.00514185
0.00512001
0.00509663
0.00507178
0.00504554
0.00501797
0.00498916
0.00495916
0.00492806
0.00489592
0.00486281
0.00482879
0.00479394
0.00475833
0.004722
0.00468503
0.00464749
0.00460942
0.00457089
0.00453195
0.00449266
0.00445306
0.00441321
0.00437316
0.00433295
0.00429262
0.00425221
0.00421176
0.00417131
0.0041309
0.00409055
0.00405029
0.00401016
0.00397018
0.00393037
0.00389077
0.00385138
0.00381223
0.00377334
0.00373473
0.0036964
0.00365837
0.00362066
0.00358328
0.00354623
0.00350952
0.00347317
0.00343717
0.00340154
0.00336627
0.00333137
0.00329684
0.00326269
0.00322891
0.00319551
0.00316249
0.00312984
0.00309757
0.00306567
0.00303415
0.003003
0.00297222
0.0029418
0.00291176
0.00288207
0.00285275
0.00282378
0.00279516
0.00276689
0.00273896
0.00271138
0.00268413
0.00265722
0.00263063
0.00260437
0.00257843
0.00255281
0.00252749
0.00250249
0.00247778
0.00245337
0.00242925
0.00240541
0.00238184
0.00235853
0.00233546
0.00231263
0.00229001
0.00226757
0.00224529
0.00222312
0.00220101
0.00217888
0.00215668
0.00213427
0.00211169
0.00208838
0.00205771
1.92594e-06
0.000110242
0.000242455
0.000369779
0.000495553
0.000620113
0.000745392
0.000875231
0.0010131
0.00116093
0.00131888
0.00148052
0.00162817
0.00176451
0.00189251
0.00201419
0.00213079
0.00224315
0.00235179
0.00245711
0.0025594
0.00265886
0.00275594
0.00285099
0.00294429
0.00303608
0.00312656
0.00321589
0.00330421
0.0033916
0.00347816
0.00356391
0.00364889
0.0037331
0.0038165
0.00389906
0.00398073
0.00406143
0.0041411
0.00421963
0.00429694
0.00437293
0.00444749
0.00452052
0.00459193
0.0046616
0.00472944
0.00479535
0.00485923
0.00492101
0.00498059
0.0050379
0.00509287
0.00514542
0.00519551
0.00524308
0.00528809
0.00533049
0.00537025
0.00540736
0.00544178
0.00547352
0.00550256
0.0055289
0.00555257
0.00557355
0.00559189
0.0056076
0.0056207
0.00563124
0.00563926
0.00564478
0.00564787
0.00564858
0.00564696
0.00564306
0.00563695
0.00562868
0.00561833
0.00560594
0.0055916
0.00557536
0.00555731
0.00553751
0.00551603
0.00549295
0.00546834
0.00544228
0.00541482
0.00538605
0.00535604
0.00532485
0.00529255
0.00525922
0.00522491
0.00518971
0.00515366
0.00511684
0.00507931
0.00504113
0.00500235
0.00496305
0.00492327
0.00488307
0.00484249
0.0048016
0.00476043
0.00471903
0.00467745
0.00463573
0.00459391
0.00455203
0.00451012
0.00446822
0.00442635
0.00438456
0.00434287
0.0043013
0.00425988
0.00421864
0.0041776
0.00413677
0.00409618
0.00405583
0.00401576
0.00397597
0.00393648
0.00389729
0.00385842
0.00381988
0.00378167
0.0037438
0.00370629
0.00366912
0.00363232
0.00359587
0.00355979
0.00352408
0.00348873
0.00345375
0.00341915
0.00338492
0.00335106
0.00331757
0.00328444
0.00325169
0.00321931
0.00318729
0.00315563
0.00312433
0.00309339
0.0030628
0.00303257
0.00300268
0.00297314
0.00294395
0.00291509
0.00288656
0.00285837
0.00283051
0.00280297
0.00277574
0.00274883
0.00272223
0.00269592
0.00266991
0.00264417
0.0026187
0.00259348
0.0025685
0.00254371
0.0025191
0.00249461
0.00247021
0.00244581
0.00242135
0.00239672
0.00237191
0.0023464
0.00231357
1.53572e-06
0.000102099
0.000232007
0.00035902
0.000487779
0.000619228
0.000756026
0.00090009
0.00105308
0.00121551
0.00138788
0.00155368
0.00170532
0.00184551
0.00197702
0.00210182
0.00222123
0.0023362
0.00244739
0.00255529
0.00266028
0.00276268
0.00286274
0.00296067
0.00305688
0.00315166
0.00324526
0.00333786
0.0034296
0.0035206
0.00361091
0.00370059
0.00378964
0.00387806
0.00396582
0.00405286
0.00413911
0.00422451
0.00430895
0.00439233
0.00447456
0.00455551
0.00463507
0.00471314
0.0047896
0.00486433
0.00493722
0.00500818
0.00507709
0.00514386
0.00520841
0.00527065
0.00533049
0.00538787
0.00544273
0.00549501
0.00554466
0.00559163
0.0056359
0.00567743
0.0057162
0.0057522
0.00578543
0.00581588
0.00584356
0.00586848
0.00589067
0.00591013
0.00592691
0.00594103
0.00595253
0.00596145
0.00596784
0.00597174
0.00597321
0.00597233
0.00596914
0.00596369
0.00595605
0.00594628
0.00593445
0.00592063
0.00590489
0.0058873
0.00586792
0.00584685
0.00582413
0.00579986
0.00577409
0.0057469
0.00571836
0.00568854
0.00565751
0.00562533
0.00559208
0.00555781
0.00552261
0.00548652
0.00544961
0.00541195
0.0053736
0.00533461
0.00529504
0.00525495
0.00521439
0.00517341
0.00513206
0.00509038
0.00504843
0.00500624
0.00496387
0.00492134