/*--------------------------------*- C++ -*----------------------------------*\
  =========                 |
  \\      /  F ield         | OpenFOAM: The Open Source CFD Toolbox
   \\    /   O peration     | Website:  https://openfoam.org
    \\  /    A nd           | Version:  8
     \\/     M anipulation  |
\*---------------------------------------------------------------------------*/
FoamFile
{
    version     2.0;
    format      ascii;
    class       volScalarField;
    location    "600";
    object      nuTilda;
}
// * * * * * * * * * * * * * * * * * * * * * * * * * * * * * * * * * * * * * //

dimensions      [0 2 -1 0 0 0 0];

internalField   nonuniform List<scalar> 
12225
(
0.0122671
0.00158833
0.000666932
0.000412201
0.000298001
0.000234418
0.000192049
0.000186517
0.000141364
0.000110263
9.732e-05
9.0719e-05
8.20029e-05
7.63419e-05
7.1707e-05
7.01725e-05
6.8133e-05
7.40044e-05
0.0323823
0.00744533
0.00330642
0.00204338
0.00146818
0.00114477
0.000936743
0.000800566
0.000680243
0.000578059
0.000507246
0.00045356
0.000411866
0.000380371
0.000352021
0.000329994
0.000313755
0.000295884
0.0490123
0.01515
0.00728196
0.00457856
0.00330642
0.00258059
0.00211241
0.00178924
0.00154196
0.00134781
0.00119795
0.00107898
0.000982389
0.000902874
0.000836439
0.000781448
0.000736162
0.00068789
0.063054
0.0237783
0.0122894
0.00788815
0.00573398
0.004485
0.00367415
0.00310736
0.00268476
0.00235811
0.00210119
0.00189468
0.00172542
0.00158465
0.0014663
0.00136623
0.00128168
0.00119815
0.074932
0.0328517
0.0181452
0.0119262
0.00874549
0.00686413
0.00563081
0.00476256
0.0041175
0.00362032
0.00322735
0.00290996
0.00264904
0.00243149
0.00224806
0.00209196
0.00195836
0.00183638
0.0849536
0.0420208
0.0246655
0.0166359
0.0123325
0.00972587
0.0079954
0.00676785
0.00585346
0.00514771
0.00458846
0.00413589
0.00376337
0.00345243
0.00318986
0.002966
0.00277365
0.00260477
0.0933822
0.0510219
0.0316642
0.0219415
0.016474
0.0130717
0.0107779
0.00913552
0.00790571
0.00695341
0.00619691
0.00558368
0.00507838
0.00465634
0.00429978
0.00399563
0.00373417
0.00350822
0.0993794
0.0583363
0.0378386
0.0268568
0.0204171
0.0163053
0.0134892
0.011453
0.00991891
0.00872629
0.00777636
0.00700498
0.00636867
0.00583686
0.00538742
0.00500399
0.00467454
0.00439129
0.104023
0.0645454
0.0433804
0.0314239
0.0241571
0.0194092
0.0161097
0.0137018
0.0118766
0.0104521
0.00931443
0.00838904
0.00762486
0.00698575
0.00644545
0.00598451
0.0055886
0.00524879
0.108368
0.0708939
0.0493756
0.0365496
0.0284517
0.0230231
0.0191863
0.0163547
0.0141926
0.0124968
0.011138
0.0100304
0.00911434
0.0083476
0.00769911
0.0071458
0.00667069
0.00626299
0.112368
0.0772557
0.0557282
0.0421918
0.0332976
0.0271652
0.0227467
0.0194432
0.0168984
0.0148903
0.0132749
0.0119544
0.0108605
0.00994379
0.00916797
0.00850586
0.00793737
0.00744916
0.115994
0.0834975
0.0623053
0.0482611
0.0386474
0.0318167
0.026789
0.0229739
0.0200046
0.0176452
0.0157378
0.0141736
0.0128749
0.011785
0.0108618
0.0100736
0.00939671
0.00881465
0.119234
0.0894856
0.0689377
0.0546109
0.0443919
0.0369007
0.0312597
0.0269088
0.0234836
0.02074
0.0185096
0.0166735
0.0151449
0.01386
0.0127704
0.0118396
0.0110397
0.0103508
0.122086
0.095084
0.075415
0.0610223
0.0503361
0.0422534
0.0360231
0.0311353
0.0272402
0.024093
0.021519
0.0193909
0.017614
0.0161174
0.0148466
0.01376
0.0128257
0.0120196
0.124546
0.100135
0.0814619
0.0671725
0.056158
0.047577
0.0408126
0.0354174
0.031066
0.0275196
0.0246012
0.0221777
0.0201481
0.0184349
0.0169782
0.0157314
0.0146583
0.0137311
0.126578
0.104396
0.0866605
0.0725515
0.0613228
0.0523526
0.0451453
0.0393148
0.0345631
0.0306611
0.0274325
0.0247409
0.0224806
0.020569
0.0189413
0.0175468
0.0163454
0.0153061
0.128011
0.107322
0.0902141
0.0762353
0.0648743
0.0556509
0.0481493
0.0420254
0.0370012
0.0328553
0.0294126
0.0265352
0.0241143
0.0220643
0.0203172
0.0188191
0.0175275
0.0164083
0.128006
0.107313
0.0902048
0.0762269
0.0648674
0.0556454
0.048145
0.0420222
0.0369988
0.0328537
0.0294117
0.0265349
0.0241147
0.0220652
0.0203185
0.0188206
0.0175287
0.0164083
0.126509
0.104255
0.0864922
0.0723807
0.0611613
0.052205
0.0450128
0.0391967
0.0344584
0.0305686
0.0273506
0.0246684
0.0224163
0.0205118
0.0188903
0.0175006
0.0163024
0.0152631
0.124267
0.0995604
0.0807712
0.0664676
0.0554886
0.0469631
0.0402594
0.0349228
0.0306248
0.0271258
0.0242488
0.0218611
0.0198626
0.0181762
0.0167426
0.0155152
0.0144575
0.0135405
0.12136
0.0936399
0.0737261
0.0593348
0.0487592
0.0408249
0.0347467
0.0300003
0.0262308
0.0231928
0.0207127
0.018665
0.0169572
0.0155198
0.0142999
0.0132567
0.0123583
0.0115798
0.117686
0.0865903
0.0656967
0.0514791
0.0415374
0.0343608
0.0290184
0.0249322
0.0217348
0.0191848
0.0171184
0.0154211
0.0140106
0.0128263
0.0118229
0.0109657
0.010228
0.00958895
0.11305
0.0784122
0.056921
0.0432687
0.0342296
0.0279652
0.0234365
0.0200435
0.0174263
0.0153597
0.0136966
0.0123369
0.0112106
0.0102671
0.00946866
0.00878719
0.00820102
0.00769347
0.107169
0.0691009
0.0476372
0.035029
0.0271566
0.021922
0.0182437
0.0155401
0.0134817
0.0118706
0.0105816
0.00953198
0.00866487
0.00793966
0.0073267
0.00680379
0.00635414
0.00596496
0.0996761
0.0587036
0.0381279
0.0270699
0.0205782
0.016433
0.0135949
0.0115438
0.00999923
0.00879909
0.00784342
0.00706757
0.00642791
0.00589358
0.00544231
0.00505735
0.00472645
0.00444009
0.0901097
0.0473665
0.0287363
0.0196847
0.0146976
0.0116312
0.00957853
0.00811528
0.00702332
0.00617995
0.00551058
0.00496795
0.00452115
0.00414815
0.00383332
0.00356447
0.00333371
0.00313366
0.0779076
0.0353826
0.0198606
0.0131383
0.00966107
0.00759298
0.00623353
0.00527431
0.00456401
0.00401886
0.003587
0.00323615
0.00294721
0.00270597
0.00250239
0.00232752
0.00217883
0.00204806
0.06238
0.0232554
0.0119461
0.00765494
0.00556339
0.00435258
0.00356727
0.00301643
0.00261312
0.00230802
0.00206664
0.0018673
0.00170232
0.00156432
0.00144789
0.00134455
0.00126122
0.00118187
0.0426105
0.0117794
0.00546931
0.00341388
0.00246077
0.00192015
0.0015729
0.00132906
0.00115969
0.00103887
0.000944525
0.00085835
0.000785389
0.000722457
0.000668877
0.000613398
0.000582872
0.000536042
0.0168348
0.0025599
0.00110031
0.000684192
0.000495179
0.000389152
0.00032166
0.000270755
0.000280879
0.000338934
0.000384936
0.000372987
0.000345871
0.00031045
0.00029158
0.00023233
0.000304221
0.000264632
3.78134e-06
1.4323e-05
2.60308e-05
3.85396e-05
4.6013e-05
4.96637e-05
5.01571e-05
4.78125e-05
4.46219e-05
3.95526e-05
3.42177e-05
2.94463e-05
2.67696e-05
2.74481e-05
2.96322e-05
3.14816e-05
3.13385e-05
2.85135e-05
2.38687e-05
2.02116e-05
2.08272e-05
2.64283e-05
3.93484e-05
6.39253e-05
8.72077e-05
0.000100622
0.000113343
0.000124351
0.000134336
0.000142839
0.00015043
0.000157049
0.00016291
0.000168065
0.000172597
0.000176623
0.00018021
0.000183429
0.000186326
0.000188937
0.000191286
0.000193393
0.00019527
0.000196933
0.000198393
0.000199661
0.000200746
0.000201655
0.000202387
0.000202811
0.000203302
0.000203385
0.000203445
0.000203329
0.000203051
0.000202637
0.000202081
0.000201389
0.00020056
0.000199599
0.000198506
0.000197285
0.000195938
0.000194468
0.000192878
0.00019117
0.000189347
0.00018741
0.000185364
0.000183211
0.000180955
0.000178597
0.000176141
0.000173589
0.000170944
0.000168209
0.000165385
0.000162476
0.000159483
0.000156408
0.000153252
0.000150015
0.000146695
0.00014329
0.000139797
0.000136209
0.000132521
0.000128721
0.0001248
0.000120743
0.000116534
0.000112159
0.000107617
0.000102961
9.83968e-05
9.44153e-05
9.15936e-05
8.98381e-05
8.8524e-05
8.73192e-05
8.61358e-05
8.4957e-05
8.3781e-05
8.26086e-05
8.14406e-05
8.02779e-05
7.91219e-05
7.79769e-05
7.68638e-05
7.59095e-05
7.49755e-05
7.40476e-05
7.31277e-05
7.2216e-05
7.1313e-05
7.04189e-05
6.95342e-05
6.86592e-05
6.77942e-05
6.69393e-05
6.60947e-05
6.52607e-05
6.44376e-05
6.36258e-05
6.28253e-05
6.20359e-05
6.12588e-05
6.05197e-05
5.98425e-05
5.91739e-05
5.85106e-05
5.78606e-05
5.72288e-05
5.66021e-05
5.59801e-05
5.53663e-05
5.47615e-05
5.41663e-05
5.35809e-05
5.3005e-05
5.24386e-05
5.18815e-05
5.13336e-05
5.07947e-05
5.02648e-05
4.97436e-05
4.92312e-05
4.87274e-05
4.82321e-05
4.77452e-05
4.72667e-05
4.67965e-05
4.63346e-05
4.58809e-05
4.54355e-05
4.49984e-05
4.45696e-05
4.41492e-05
4.37374e-05
4.33344e-05
4.29402e-05
4.25552e-05
4.21796e-05
4.18136e-05
4.14574e-05
4.11111e-05
4.07748e-05
4.04483e-05
4.01309e-05
3.9822e-05
3.95197e-05
3.92242e-05
3.89264e-05
3.86398e-05
3.83109e-05
3.80554e-05
3.75476e-05
3.73528e-05
3.63022e-05
3.49079e-05
5.89843e-06
4.0591e-05
9.24709e-05
0.000153715
0.000192559
0.000214562
0.000223352
0.000221923
0.000214076
0.000198516
0.000179497
0.000161542
0.000152477
0.000157007
0.000169323
0.000177337
0.000179536
0.000180681
0.000185639
0.000194349
0.000208089
0.000224524
0.000240389
0.000256196
0.000267076
0.000276655
0.000285205
0.000297705
0.000316352
0.000330015
0.000342528
0.000353273
0.000363053
0.000372024
0.000379821
0.000386945
0.000393581
0.000399951
0.000406184
0.000412343
0.000418426
0.000424388
0.000430178
0.000435753
0.000441088
0.000446164
0.000450966
0.000455482
0.000459714
0.000463659
0.000467358
0.000470776
0.000473952
0.000476875
0.000479549
0.000481975
0.000484154
0.000486088
0.000487775
0.000489217
0.000490413
0.000491366
0.000492078
0.000492552
0.000492798
0.000492823
0.000492619
0.000492185
0.000491535
0.000490674
0.000489608
0.000488342
0.000486885
0.000485242
0.00048342
0.000481427
0.000479271
0.000476958
0.000474497
0.000471896
0.000469162
0.000466303
0.000463328
0.000460244
0.000457059
0.000453782
0.000450421
0.000446982
0.000443475
0.000439908
0.000436286
0.000432615
0.000428896
0.00042512
0.000421269
0.000417316
0.000413247
0.000409089
0.000404892
0.00040068
0.000396462
0.000392241
0.000388021
0.000383805
0.000379597
0.0003754
0.000371216
0.000367049
0.000362899
0.000358762
0.00035465
0.000350567
0.000346515
0.000342496
0.000338512
0.000334564
0.000330654
0.000326783
0.000322954
0.000319166
0.00031542
0.000311719
0.000308062
0.000304452
0.000300888
0.000297371
0.0002939
0.000290474
0.000287091
0.000283756
0.000280466
0.000277229
0.000274047
0.000270903
0.000267798
0.000264736
0.000261719
0.00025875
0.000255827
0.000252952
0.000250122
0.000247337
0.000244598
0.000241902
0.00023925
0.000236642
0.000234075
0.000231551
0.000229069
0.000226627
0.000224227
0.000221867
0.000219547
0.000217268
0.000215028
0.000212829
0.000210671
0.000208554
0.000206478
0.000204446
0.000202457
0.000200514
0.000198617
0.000196768
0.000194969
0.000193221
0.000191525
0.00018988
0.000188287
0.000186742
0.000185242
0.000183788
0.000182352
0.000180989
0.000179505
0.000178382
0.000176286
0.000175963
0.000172985
0.000172123
1.28775e-05
7.40711e-05
0.000174314
0.000251882
0.000303663
0.000333367
0.000344214
0.000341394
0.000328793
0.000309921
0.000290639
0.000278289
0.000276102
0.000282582
0.000292648
0.000303203
0.000315675
0.000332292
0.000353529
0.00037833
0.000405405
0.000433494
0.000471426
0.000517541
0.00056299
0.00060699
0.000649969
0.000693541
0.000732802
0.000764038
0.000789007
0.000808804
0.000824498
0.000836951
0.000846943
0.00085525
0.000862571
0.00086955
0.000876724
0.000884447
0.000892828
0.000901743
0.000910952
0.000920221
0.00092937
0.000938282
0.000946879
0.000955114
0.00096295
0.000970359
0.00097732
0.000983801
0.000989801
0.000995312
0.00100033
0.00100486
0.0010089
0.00101245
0.0010155
0.00101806
0.00102013
0.0010217
0.00102278
0.00102333
0.00102348
0.0010232
0.00102241
0.00102116
0.00101948
0.00101736
0.00101482
0.00101188
0.00100854
0.00100483
0.00100075
0.000996322
0.000991558
0.000986473
0.000981082
0.0009754
0.000969444
0.000963227
0.000956765
0.000950074
0.000943168
0.000936063
0.000928772
0.00092131
0.000913691
0.000905928
0.000898032
0.000890016
0.000881889
0.000873658
0.000865332
0.00085692
0.000848436
0.000839894
0.000831312
0.000822703
0.000814076
0.000805442
0.000796809
0.000788183
0.000779572
0.000770983
0.000762422
0.000753896
0.00074541
0.00073697
0.000728581
0.000720249
0.000711978
0.000703772
0.000695634
0.00068757
0.00067958
0.000671669
0.000663839
0.000656092
0.00064843
0.000640855
0.00063337
0.000625975
0.000618672
0.000611462
0.000604344
0.00059732
0.000590391
0.000583556
0.000576816
0.000570171
0.000563621
0.000557158
0.000550782
0.000544496
0.000538301
0.000532198
0.000526187
0.000520267
0.000514438
0.000508699
0.000503048
0.000497485
0.000492008
0.000486616
0.000481308
0.000476084
0.000470941
0.000465879
0.000460897
0.000455993
0.000451167
0.000446417
0.000441742
0.000437141
0.000432614
0.000428158
0.000423773
0.000419457
0.00041521
0.000411028
0.000406912
0.000402858
0.000398863
0.000394926
0.00039104
0.000387203
0.000383406
0.000379641
0.000375896
0.000372157
0.000368401
0.000364608
0.000360705
0.000356727
0.000352308
0.000348006
0.000341548
0.000330398
2.17728e-05
0.000106439
0.000220248
0.000312845
0.000375522
0.000412502
0.000427926
0.000428311
0.00041839
0.00040512
0.000397054
0.000396229
0.000405361
0.000422406
0.000444968
0.000472523
0.000505677
0.000544797
0.000589082
0.000651151
0.000724857
0.000804526
0.000888688
0.000959283
0.00102167
0.00107775
0.00112814
0.00117302
0.00121227
0.00124614
0.00127537
0.0013007
0.00132281
0.00134235
0.00135988
0.0013759
0.00139082
0.00140498
0.00141864
0.00143199
0.00144515
0.0014582
0.00147116
0.00148401
0.0014967
0.00150916
0.00152129
0.00153299
0.00154418
0.00155478
0.00156473
0.001574
0.00158257
0.00159043
0.00159757
0.00160398
0.00160965
0.00161459
0.00161878
0.00162225
0.00162497
0.00162694
0.0016281
0.00162854
0.00162841
0.0016275
0.00162587
0.00162355
0.00162055
0.00161689
0.00161259
0.00160767
0.00160215
0.00159605
0.00158939
0.0015822
0.00157449
0.0015663
0.00155763
0.00154852
0.00153899
0.00152907
0.00151876
0.00150811
0.00149713
0.00148584
0.00147426
0.00146243
0.00145035
0.00143805
0.00142556
0.00141287
0.00140003
0.00138703
0.0013739
0.00136065
0.0013473
0.00133388
0.00132039
0.00130686
0.0012933
0.00127974
0.00126617
0.00125261
0.00123908
0.00122558
0.00121213
0.00119873
0.0011854
0.00117213
0.00115895
0.00114586
0.00113286
0.00111996
0.00110716
0.00109448
0.00108192
0.00106948
0.00105716
0.00104497
0.00103291
0.00102099
0.0010092
0.000997559
0.000986055
0.000974693
0.000963476
0.000952403
0.000941476
0.000930695
0.000920061
0.000909573
0.000899228
0.000889022
0.000878956
0.000869029
0.000859242
0.000849597
0.000840093
0.000830729
0.000821504
0.000812417
0.000803466
0.00079465
0.000785967
0.000777415
0.000768993
0.000760699
0.00075253
0.000744486
0.000736563
0.000728762
0.000721079
0.000713513
0.000706062
0.000698725
0.000691499
0.000684382
0.000677373
0.000670468
0.000663667
0.000656966
0.000650362
0.000643852
0.000637432
0.000631096
0.00062484
0.000618654
0.00061253
0.000606455
0.000600413
0.000594384
0.000588336
0.000582234
0.000576013
0.000569618
0.000562867
0.000555706
0.000547486
0.000531389
2.69725e-05
0.000122017
0.000241124
0.000357846
0.000435865
0.000483026
0.000506523
0.000514947
0.000516513
0.000517498
0.000524347
0.000540439
0.000566393
0.00060126
0.000644266
0.000695434
0.000755415
0.000838724
0.000934307
0.00103045
0.00111941
0.00120376
0.00128308
0.00135576
0.0014225
0.0014839
0.00154035
0.00159219
0.00163978
0.00168355
0.00172397
0.00176153
0.00179666
0.00182974
0.00186107
0.00189091
0.00191945
0.00194683
0.00197316
0.00199849
0.00202285
0.00204625
0.00206869
0.00209016
0.00211062
0.00213005
0.00214842
0.0021657
0.00218185
0.00219687
0.00221075
0.00222347
0.00223507
0.00224554
0.00225491
0.00226319
0.0022704
0.00227657
0.00228169
0.0022858
0.00228889
0.00229094
0.00229186
0.00229194
0.00229106
0.00228918
0.00228635
0.00228258
0.00227789
0.00227231
0.00226586
0.00225857
0.00225047
0.00224159
0.00223196
0.0022216
0.00221056
0.00219885
0.00218652
0.00217359
0.00216009
0.00214606
0.00213152
0.00211651
0.00210106
0.00208519
0.00206895
0.00205235
0.00203543
0.00201821
0.00200073
0.001983
0.00196506
0.00194692
0.00192861
0.00191016
0.00189158
0.0018729
0.00185415
0.00183534
0.00181649
0.00179763
0.00177878
0.00175994
0.00174114
0.00172239
0.00170371
0.0016851
0.00166658
0.00164816
0.00162985
0.00161167
0.00159361
0.0015757
0.00155793
0.00154031
0.00152286
0.00150557
0.00148845
0.00147151
0.00145475
0.00143818
0.00142179
0.0014056
0.0013896
0.00137379
0.00135818
0.00134277
0.00132756
0.00131254
0.00129773
0.00128312
0.0012687
0.00125447
0.00124044
0.0012266
0.00121295
0.0011995
0.00118623
0.00117316
0.00116027
0.00114758
0.00113507
0.00112274
0.00111059
0.00109862
0.00108683
0.00107521
0.00106376
0.00105248
0.00104136
0.00103041
0.00101962
0.00100899
0.000998515
0.000988192
0.000978019
0.000967995
0.000958115
0.000948377
0.000938778
0.000929314
0.000919981
0.000910774
0.00090169
0.000892721
0.00088386
0.000875097
0.000866422
0.000857819
0.00084927
0.000840748
0.000832222
0.000823646
0.000814954
0.000806075
0.000796844
0.000787114
0.000777158
0.000757373
3.07992e-05
0.000135324
0.000261514
0.000392479
0.000488752
0.000550356
0.000588074
0.000611462
0.00062917
0.000648447
0.000674532
0.000710074
0.000755815
0.000812034
0.00087914
0.000969569
0.00107464
0.00117631
0.00127549
0.00137097
0.00146165
0.00154762
0.00162885
0.0017053
0.00177725
0.00184506
0.00190907
0.00196961
0.00202702
0.00208162
0.00213374
0.00218367
0.00223165
0.00227789
0.00232255
0.00236577
0.00240761
0.00244815
0.00248741
0.00252539
0.0025621
0.00259752
0.00263161
0.00266434
0.00269568
0.00272559
0.00275401
0.00278092
0.00280628
0.00283005
0.0028522
0.00287272
0.00289159
0.00290879
0.00292433
0.00293819
0.00295039
0.00296093
0.00296982
0.00297709
0.00298274
0.00298682
0.00298925
0.00299014
0.00298968
0.0029877
0.00298436
0.00297966
0.00297365
0.0029664
0.00295794
0.00294835
0.00293766
0.00292593
0.00291321
0.00289954
0.00288498
0.00286956
0.00285333
0.00283634
0.00281862
0.00280023
0.00278119
0.00276156
0.00274137
0.00272066
0.00269947
0.00267783
0.0026558
0.0026334
0.00261067
0.00258764
0.00256434
0.00254081
0.00251707
0.00249316
0.00246911
0.00244493
0.00242067
0.00239635
0.00237199
0.00234762
0.00232325
0.00229892
0.00227463
0.00225042
0.00222629
0.00220226
0.00217834
0.00215456
0.00213093
0.00210745
0.00208413
0.002061
0.00203806
0.00201531
0.00199278
0.00197045
0.00194834
0.00192646
0.00190481
0.0018834
0.00186222
0.00184129
0.00182061
0.00180017
0.00177998
0.00176005
0.00174036
0.00172093
0.00170175
0.00168283
0.00166415
0.00164572
0.00162754
0.0016096
0.0015919
0.00157445
0.00155724
0.00154028
0.00152355
0.00150705
0.00149079
0.00147476
0.00145896
0.00144339
0.00142803
0.0014129
0.00139798
0.00138327
0.00136877
0.00135448
0.00134039
0.0013265
0.0013128
0.0012993
0.00128599
0.00127286
0.00125991
0.00124714
0.00123455
0.00122213
0.00120987
0.00119777
0.00118583
0.00117403
0.00116237
0.00115084
0.00113943
0.00112812
0.00111688
0.00110569
0.00109453
0.00108333
0.00107203
0.00106056
0.00104875
0.00103654
0.00102437
0.0010019
3.23493e-05
0.000142507
0.000273978
0.000409864
0.000527803
0.000609023
0.000665075
0.000706995
0.000743988
0.000783303
0.000829989
0.000886996
0.00095595
0.00104822
0.00115517
0.00126174
0.00136782
0.00147116
0.00157121
0.00166756
0.00175994
0.00184836
0.00193292
0.00201377
0.00209115
0.00216534
0.00223662
0.00230524
0.00237147
0.00243554
0.00249767
0.00255802
0.00261675
0.00267398
0.00272979
0.00278423
0.00283735
0.00288914
0.00293962
0.00298876
0.00303653
0.00308289
0.0031278
0.0031712
0.00321306
0.00325331
0.00329191
0.00332879
0.00336391
0.00339723
0.0034287
0.00345827
0.00348593
0.00351163
0.00353535
0.00355707
0.00357678
0.00359446
0.00361012
0.00362374
0.00363533
0.00364491
0.00365249
0.0036581
0.00366175
0.00366337
0.00366328
0.00366129
0.00365751
0.00365199
0.00364478
0.00363594
0.00362552
0.00361358
0.00360019
0.00358542
0.00356933
0.00355198
0.00353345
0.0035138
0.00349309
0.0034714
0.00344879
0.00342533
0.00340107
0.00337609
0.00335045
0.00332419
0.00329738
0.00327007
0.00324232
0.00321416
0.00318565
0.00315684
0.00312775
0.00309844
0.00306894
0.00303929
0.00300952
0.00297967
0.00294977
0.00291985
0.00288994
0.00286005
0.00283023
0.00280049
0.00277085
0.00274133
0.00271195
0.00268273
0.00265369
0.00262483
0.00259618
0.00256775
0.00253954
0.00251158
0.00248386
0.0024564
0.00242921
0.00240229
0.00237565
0.00234929
0.00232322
0.00229745
0.00227197
0.00224679
0.00222191
0.00219734
0.00217306
0.0021491
0.00212544
0.00210208
0.00207902
0.00205626
0.0020338
0.00201163
0.00198976
0.00196818
0.00194689
0.00192589
0.00190518
0.00188475
0.0018646
0.00184473
0.00182513
0.0018058
0.00178674
0.00176794
0.0017494
0.00173112
0.00171309
0.0016953
0.00167776
0.00166045
0.00164338
0.00162655
0.00160994
0.00159355
0.00157738
0.00156143
0.00154569
0.00153015
0.00151481
0.00149967
0.00148472
0.00146994
0.00145534
0.0014409
0.0014266
0.00141244
0.00139837
0.00138439
0.00137045
0.0013565
0.00134248
0.00132831
0.00131384
0.00129909
0.00128408
0.00125984
3.2797e-05
0.000144131
0.000275322
0.000409446
0.000539355
0.000642665
0.000719759
0.000781112
0.000836847
0.000894649
0.000962208
0.00105412
0.00116371
0.0012854
0.00140095
0.0015122
0.00162001
0.00172457
0.00182581
0.00192368
0.00201816
0.00210936
0.00219741
0.0022825
0.00236485
0.00244468
0.00252221
0.00259767
0.00267123
0.00274306
0.00281332
0.00288212
0.00294955
0.00301568
0.00308054
0.00314415
0.00320652
0.00326764
0.00332746
0.00338596
0.00344308
0.00349877
0.00355297
0.00360562
0.00365665
0.00370601
0.00375361
0.0037994
0.00384332
0.00388531
0.00392532
0.00396328
0.00399917
0.00403292
0.00406452
0.00409391
0.00412109
0.00414602
0.00416869
0.00418909
0.00420721
0.00422306
0.00423664
0.00424797
0.00425705
0.00426392
0.00426864
0.00427109
0.00427152
0.00426987
0.00426619
0.00426055
0.00425298
0.00424354
0.00423231
0.00421933
0.00420468
0.00418841
0.00417061
0.00415134
0.00413067
0.00410868
0.00408542
0.00406099
0.00403545
0.00400886
0.00398132
0.00395287
0.0039236
0.00389356
0.00386283
0.00383147
0.00379953
0.00376708
0.00373418
0.00370088
0.00366724
0.0036333
0.00359912
0.00356474
0.00353022
0.00349558
0.00346088
0.00342614
0.0033914
0.00335671
0.00332207
0.00328754
0.00325312
0.00321885
0.00318475
0.00315084
0.00311713
0.00308365
0.00305042
0.00301744
0.00298473
0.00295231
0.00292017
0.00288834
0.00285682
0.00282562
0.00279475
0.0027642
0.002734
0.00270413
0.0026746
0.00264542
0.00261658
0.0025881
0.00255996
0.00253216
0.00250472
0.00247762
0.00245086
0.00242444
0.00239836
0.00237262
0.00234721
0.00232214
0.0022974
0.00227299
0.0022489
0.00222513
0.00220168
0.00217854
0.00215571
0.00213318
0.00211095
0.00208902
0.00206738
0.00204603
0.00202497
0.00200418
0.00198366
0.00196341
0.00194343
0.00192372
0.00190425
0.00188504
0.00186608
0.00184736
0.00182887
0.00181061
0.00179258
0.00177476
0.00175714
0.00173971
0.00172247
0.00170538
0.00168842
0.00167158
0.0016548
0.00163804
0.00162123
0.0016043
0.0015871
0.0015697
0.00155177
0.00152564
3.22387e-05
0.000141201
0.000268913
0.000398028
0.000521867
0.000633979
0.000727756
0.000808842
0.000891826
0.000987104
0.00109629
0.00122095
0.00135732
0.00148481
0.0016051
0.0017201
0.00183081
0.00193757
0.00204071
0.00214058
0.0022374
0.00233137
0.00242268
0.00251154
0.00259815
0.00268273
0.00276545
0.0028465
0.00292602
0.00300414
0.00308098
0.00315661
0.00323108
0.00330444
0.00337668
0.00344782
0.00351781
0.00358664
0.00365424
0.00372057
0.00378556
0.00384913
0.00391121
0.00397173
0.00403061
0.00408777
0.00414314
0.00419663
0.00424818
0.00429771
0.00434517
0.00439048
0.0044336
0.00447447
0.00451305
0.0045493
0.00458317
0.00461465
0.00464371
0.00467034
0.00469452
0.00471624
0.00473551
0.00475234
0.00476674
0.00477873
0.00478833
0.00479556
0.00480049
0.00480305
0.00480343
0.00480161
0.00479764
0.00479157
0.00478347
0.00477338
0.00476137
0.00474751
0.00473187
0.0047145
0.00469549
0.0046749
0.0046528
0.00462927
0.00460438
0.0045782
0.00455081
0.00452228
0.00449268
0.00446208
0.00443055
0.00439817
0.00436498
0.00433108
0.0042965
0.00426133
0.00422562
0.00418943
0.00415282
0.00411585
0.00407856
0.00404101
0.00400326
0.00396534
0.00392729
0.00388917
0.00385101
0.00381285
0.00377472
0.00373666
0.00369869
0.00366085
0.00362316
0.00358564
0.00354833
0.00351124
0.00347438
0.00343779
0.00340147
0.00336543
0.0033297
0.00329428
0.00325919
0.00322443
0.00319001
0.00315594
0.00312223
0.00308887
0.00305588
0.00302325
0.002991
0.00295911
0.0029276
0.00289646
0.00286568
0.00283528
0.00280525
0.00277558
0.00274628
0.00271735
0.00268878
0.00266057
0.00263271
0.00260522
0.00257807
0.00255127
0.00252481
0.00249869
0.0024729
0.00244745
0.00242232
0.00239752
0.00237303
0.00234885
0.00232499
0.00230142
0.00227816
0.00225519
0.00223252
0.00221013
0.00218801
0.00216618
0.00214461
0.0021233
0.00210225
0.00208145
0.00206088
0.00204053
0.00202039
0.00200044
0.00198065
0.00196099
0.00194142
0.00192189
0.00190234
0.00188269
0.0018628
0.00184274
0.00182199
0.00179367
3.08693e-05
0.000135115
0.000258119
0.000383406
0.00050536
0.000621429
0.000732072
0.000841035
0.000955866
0.0010817
0.00121976
0.00136951
0.00151179
0.00164376
0.00176801
0.00188643
0.00200014
0.00210979
0.00221574
0.00231822
0.00241763
0.00251433
0.00260863
0.00270078
0.00279102
0.00287954
0.00296653
0.00305215
0.00313652
0.00321976
0.00330195
0.00338314
0.00346338
0.00354268
0.00362102
0.00369839
0.00377474
0.00385001
0.00392416
0.00399709
0.00406873
0.004139
0.00420781
0.00427507
0.00434068
0.00440455
0.00446661
0.00452675
0.0045849
0.00464098
0.00469491
0.00474663
0.00479607
0.00484317
0.00488787
0.00493014
0.00496992
0.0050072
0.00504193
0.0050741
0.00510369
0.0051307
0.00515511
0.00517695
0.00519621
0.00521291
0.00522707
0.00523872
0.00524789
0.0052546
0.00525892
0.00526085
0.0052605
0.00525788
0.00525306
0.00524609
0.00523703
0.00522595
0.0052129
0.00519796
0.00518119
0.00516266
0.00514245
0.00512063
0.00509726
0.00507243
0.0050462
0.00501865
0.00498985
0.00495987
0.00492878
0.00489665
0.00486356
0.00482956
0.00479472
0.00475911
0.0047228
0.00468585
0.00464831
0.00461026
0.00457173
0.00453281
0.00449352
0.00445394
0.0044141
0.00437405
0.00433385
0.00429352
0.00425311
0.00421267
0.00417223
0.00413181
0.00409146
0.0040512
0.00401107
0.00397109
0.00393128
0.00389167
0.00385228
0.00381312
0.00377422
0.0037356
0.00369726
0.00365923
0.00362151
0.00358411
0.00354705
0.00351033
0.00347396
0.00343795
0.0034023
0.00336702
0.0033321
0.00329756
0.00326339
0.0032296
0.00319618
0.00316314
0.00313048
0.00309819
0.00306628
0.00303475
0.00300359
0.0029728
0.00294237
0.00291232
0.00288262
0.00285329
0.00282431
0.00279569
0.00276741
0.00273948
0.00271189
0.00268463
0.00265771
0.00263112
0.00260486
0.00257891
0.00255328
0.00252797
0.00250295
0.00247824
0.00245383
0.0024297
0.00240586
0.00238229
0.00235897
0.00233591
0.00231308
0.00229046
0.00226802
0.00224574
0.00222357
0.00220146
0.00217935
0.00215715
0.00213475
0.00211217
0.00208887
0.00205821
2.93185e-05
0.000128796
0.000248247
0.000372484
0.000497113
0.000621035
0.000745689
0.000875018
0.00101228
0.00115954
0.00131693
0.00147869
0.00162648
0.00176292
0.00189101
0.00201276
0.00212945
0.00224189
0.00235062
0.00245602
0.00255841
0.00265796
0.00275513
0.00285026
0.00294365
0.00303552
0.00312608
0.00321548
0.00330386
0.00339132
0.00347793
0.00356374
0.00364877
0.00373302
0.00381646
0.00389907
0.00398077
0.00406151
0.00414121
0.00421977
0.00429711
0.00437312
0.0044477
0.00452076
0.00459218
0.00466187
0.00472973
0.00479565
0.00485955
0.00492134
0.00498094
0.00503826
0.00509324
0.00514581
0.00519591
0.00524349
0.0052885
0.00533091
0.00537069
0.0054078
0.00544223
0.00547398
0.00550303
0.00552938
0.00555305
0.00557405
0.0055924
0.00560811
0.00562123
0.00563178
0.0056398
0.00564534
0.00564844
0.00564916
0.00564755
0.00564366
0.00563756
0.00562931
0.00561897
0.00560659
0.00559226
0.00557604
0.005558
0.00553822
0.00551675
0.00549369
0.00546909
0.00544304
0.0054156
0.00538684
0.00535684
0.00532566
0.00529338
0.00526006
0.00522577
0.00519058
0.00515454
0.00511774
0.00508022
0.00504205
0.00500329
0.00496399
0.00492422
0.00488403
0.00484346
0.00480257
0.00476141
0.00472002
0.00467845
0.00463673
0.00459491
0.00455303
0.00451112
0.00446922
0.00442736
0.00438556
0.00434387
0.00430229
0.00426087
0.00421963
0.00417857
0.00413774
0.00409713
0.00405678
0.0040167
0.0039769
0.00393739
0.00389819
0.0038593
0.00382074
0.00378252
0.00374464
0.00370711
0.00366993
0.00363311
0.00359664
0.00356055
0.00352482
0.00348946
0.00345447
0.00341985
0.0033856
0.00335173
0.00331822
0.00328509
0.00325233
0.00321993
0.0031879
0.00315623
0.00312492
0.00309398
0.00306338
0.00303314
0.00300325
0.0029737
0.0029445
0.00291563
0.0028871
0.0028589
0.00283103
0.00280349
0.00277626
0.00274934
0.00272273
0.00269642
0.0026704
0.00264467
0.0026192
0.00259398
0.00256899
0.00254421
0.00251959
0.00249511
0.00247071
0.00244632
0.00242187
0.00239724
0.00237244
0.00234693
0.00231412
2.76246e-05
0.000122198
0.000238225
0.000361782
0.000489232
0.000619948
0.000756187
0.000899728
0.00105224
0.00121424
0.00138622
0.00155216
0.00170393
0.00184423
0.00197583
0.00210071
0.0022202
0.00233525
0.00244651
0.00255449
0.00265956
0.00276203
0.00286217
0.00296017
0.00305646
0.00315131
0.00324498
0.00333764
0.00342944
0.00352049
0.00361085
0.00370058
0.00378968
0.00387814
0.00396594
0.00405301
0.0041393
0.00422473
0.0043092
0.00439261
0.00447485
0.00455583
0.00463542
0.0047135
0.00478998
0.00486472
0.00493763
0.0050086
0.00507753
0.00514432
0.00520888
0.00527112
0.00533098
0.00538837
0.00544324
0.00549553
0.00554518
0.00559216
0.00563644
0.00567798
0.00571676
0.00575277
0.00578601
0.00581647
0.00584416
0.00586909
0.00589128
0.00591075
0.00592754
0.00594166
0.00595317
0.0059621
0.0059685
0.00597242
0.0059739
0.00597302
0.00596985
0.00596441
0.00595678
0.00594702
0.00593521
0.0059214
0.00590567
0.00588809
0.00586873
0.00584766
0.00582496
0.0058007
0.00577495
0.00574777
0.00571924
0.00568944
0.00565842
0.00562626
0.00559302
0.00555877
0.00552357
0.00548749
0.0054506
0.00541295
0.00537461
0.00533563
0.00529608
0.00525599
0.00521544
0.00517447
0.00513312
0.00509145
0.0050495
0.00500732
0.00496495
0.00492243
0.00487979
0.00483708
0.00479432
0.00475156
0.00470882
0.00466613
0.00462352
0.00458101
0.00453864
0.00449642
0.00445437
0.00441252
0.00437089
0.00432948
0.00428832
0.00424742
0.00420679