/*--------------------------------*- C++ -*----------------------------------*\
  =========                 |
  \\      /  F ield         | OpenFOAM: The Open Source CFD Toolbox
   \\    /   O peration     | Website:  https://openfoam.org
    \\  /    A nd           | Version:  8
     \\/     M anipulation  |
\*---------------------------------------------------------------------------*/
FoamFile
{
    version     2.0;
    format      ascii;
    class       volVectorField;
    location    "600";
    object      U;
}
// * * * * * * * * * * * * * * * * * * * * * * * * * * * * * * * * * * * * * //

dimensions      [0 1 -1 0 0 0 0];

internalField   nonuniform List<vector> 
12225
(
(9.2745 -4.73371 0)
(13.1094 -1.71343 0)
(12.4778 -0.395198 0)
(11.2771 -0.0422047 0)
(10.6314 0.0141377 0)
(10.2979 -9.48713e-05 0)
(10.0776 -0.0165244 0)
(9.91228 -0.00288935 0)
(9.7791 0.0348737 0)
(9.66232 0.0428918 0)
(9.55576 0.0248822 0)
(9.45769 0.00214092 0)
(9.36678 -0.0227937 0)
(9.28215 -0.0302277 0)
(9.20237 -0.0217898 0)
(9.13259 -0.0212343 0)
(9.07028 -0.0210431 0)
(9.08967 -0.0277413 0)
(10.2592 0.0928019 0)
(10.7814 0.199338 0)
(10.9594 0.245655 0)
(10.7469 0.229143 0)
(10.5875 0.172968 0)
(10.4527 0.115534 0)
(10.33 0.08233 0)
(10.2327 0.0647285 0)
(10.155 0.0524752 0)
(10.0894 0.0472323 0)
(10.0324 0.046991 0)
(9.98214 0.0489881 0)
(9.93787 0.0517945 0)
(9.89835 0.0519378 0)
(9.86154 0.0483175 0)
(9.82889 0.0438278 0)
(9.79434 0.03006 0)
(9.76834 0.0102188 0)
(9.87768 -0.24504 0)
(9.74285 0.00579081 0)
(10.1971 0.125743 0)
(10.3245 0.179363 0)
(10.3564 0.161547 0)
(10.3311 0.120075 0)
(10.2777 0.0904921 0)
(10.2252 0.0746637 0)
(10.1812 0.065873 0)
(10.1438 0.0600265 0)
(10.1103 0.0562056 0)
(10.0799 0.0536474 0)
(10.052 0.0511316 0)
(10.026 0.0487551 0)
(10.0023 0.0460647 0)
(9.98121 0.0417488 0)
(9.95919 0.0316388 0)
(9.93463 0.0135089 0)
(9.83416 -0.443933 0)
(9.57654 -0.163147 0)
(9.91603 0.03367 0)
(10.0933 0.134224 0)
(10.1892 0.145472 0)
(10.2168 0.120737 0)
(10.205 0.0978929 0)
(10.1824 0.0839069 0)
(10.1599 0.0756268 0)
(10.1389 0.069709 0)
(10.119 0.0651305 0)
(10.1002 0.0616325 0)
(10.0821 0.0586065 0)
(10.0648 0.0562198 0)
(10.0483 0.0538407 0)
(10.0326 0.0501218 0)
(10.0148 0.0423819 0)
(9.99181 0.0305496 0)
(9.87825 -0.387476 0)
(9.61653 -0.196147 0)
(9.81623 -0.0186708 0)
(9.96136 0.0916119 0)
(10.0698 0.122195 0)
(10.1219 0.113626 0)
(10.1354 0.0992617 0)
(10.1332 0.088418 0)
(10.1257 0.080945 0)
(10.1162 0.0753925 0)
(10.1056 0.0711191 0)
(10.0946 0.0678755 0)
(10.0833 0.0652458 0)
(10.0718 0.0631449 0)
(10.0601 0.0610279 0)
(10.0478 0.0580812 0)
(10.0329 0.0530435 0)
(10.0125 0.0468463 0)
(9.91439 -0.28804 0)
(9.68304 -0.185176 0)
(9.78717 -0.0532082 0)
(9.88917 0.0509981 0)
(9.98796 0.0936783 0)
(10.0476 0.0992017 0)
(10.0751 0.0938715 0)
(10.0861 0.0875147 0)
(10.0892 0.0821165 0)
(10.0879 0.0777597 0)
(10.0842 0.0743449 0)
(10.0789 0.0717526 0)
(10.0726 0.0697319 0)
(10.0654 0.0681587 0)
(10.0572 0.0667073 0)
(10.0476 0.065017 0)
(10.0354 0.0627467 0)
(10.0185 0.0611207 0)
(9.93763 -0.214041 0)
(9.74856 -0.167536 0)
(9.79244 -0.0752162 0)
(9.85608 0.0162193 0)
(9.93595 0.0644202 0)
(9.99281 0.0805929 0)
(10.0261 0.0835583 0)
(10.0447 0.0822398 0)
(10.0546 0.0797749 0)
(10.0593 0.077282 0)
(10.0606 0.0751691 0)
(10.0596 0.0735505 0)
(10.057 0.0723783 0)
(10.0531 0.0716208 0)
(10.0477 0.0711714 0)
(10.0407 0.0709899 0)
(10.0312 0.0712441 0)
(10.0182 0.073109 0)
(9.95263 -0.167334 0)
(9.79947 -0.149677 0)
(9.81177 -0.0846422 0)
(9.84959 -0.00621159 0)
(9.91141 0.0419301 0)
(9.96107 0.0638947 0)
(9.99432 0.0725468 0)
(10.0156 0.0752823 0)
(10.0289 0.0755251 0)
(10.0367 0.0748976 0)
(10.041 0.0741405 0)
(10.0427 0.0735726 0)
(10.0425 0.0733116 0)
(10.0408 0.0734337 0)
(10.0375 0.0739865 0)
(10.0325 0.0751114 0)
(10.0254 0.0771734 0)
(10.0157 0.0811666 0)
(9.96406 -0.132089 0)
(9.84003 -0.131989 0)
(9.83337 -0.0876908 0)
(9.85306 -0.0213341 0)
(9.89927 0.0244137 0)
(9.94102 0.0495105 0)
(9.97207 0.0621202 0)
(9.99385 0.0680728 0)
(10.0086 0.070691 0)
(10.0184 0.0717884 0)
(10.0246 0.07231 0)
(10.0282 0.072744 0)
(10.0298 0.0733485 0)
(10.0297 0.0743039 0)
(10.028 0.075768 0)
(10.0248 0.0779839 0)
(10.0197 0.0813819 0)
(10.0129 0.0867742 0)
(9.97418 -0.100205 0)
(9.87757 -0.11239 0)
(9.85857 -0.0853672 0)
(9.86387 -0.0323343 0)
(9.89487 0.00892696 0)
(9.92743 0.0352214 0)
(9.95439 0.0507138 0)
(9.97502 0.0594928 0)
(9.99015 0.064439 0)
(10.0009 0.067353 0)
(10.0085 0.0692902 0)
(10.0135 0.0708681 0)
(10.0166 0.0724644 0)
(10.018 0.0743542 0)
(10.0179 0.0767834 0)
(10.0164 0.080054 0)
(10.0136 0.0845918 0)
(10.0095 0.0910139 0)
(9.98253 -0.0727093 0)
(9.91035 -0.0921969 0)
(9.88507 -0.0782452 0)
(9.88001 -0.0386089 0)
(9.89746 -0.00337591 0)
(9.92043 0.0221664 0)
(9.94196 0.0391811 0)
(9.95999 0.0500769 0)
(9.97425 0.0570511 0)
(9.98518 0.0616986 0)
(9.99339 0.0650716 0)
(9.99941 0.0678538 0)
(10.0037 0.0705045 0)
(10.0064 0.0733701 0)
(10.0078 0.0767525 0)
(10.0081 0.0809716 0)
(10.0073 0.0864013 0)
(10.0058 0.0934783 0)
(9.98894 -0.0502568 0)
(9.93733 -0.0723788 0)
(9.91073 -0.0674491 0)
(9.89917 -0.0399842 0)
(9.90566 -0.0116517 0)
(9.91955 0.0114497 0)
(9.93497 0.0285274 0)
(9.94934 0.0405763 0)
(9.96169 0.0490194 0)
(9.97188 0.0551053 0)
(9.98009 0.059772 0)
(9.98659 0.0636935 0)
(9.99163 0.06736 0)
(9.99544 0.0711508 0)
(9.99819 0.0753873 0)
(10.0001 0.0803722 0)
(10.0013 0.0864061 0)
(10.0021 0.0937726 0)
(9.99348 -0.0329088 0)
(9.9582 -0.0538116 0)
(9.93368 -0.0542845 0)
(9.91898 -0.0367887 0)
(9.91755 -0.0154553 0)
(9.92366 0.00399246 0)
(9.93301 0.0197724 0)
(9.94318 0.0318727 0)
(9.9529 0.0410057 0)
(9.96163 0.0480144 0)
(9.96922 0.0536398 0)
(9.9757 0.0584746 0)
(9.98118 0.0629816 0)
(9.98578 0.0675288 0)
(9.98964 0.0724199 0)
(9.99294 0.0779151 0)
(9.99586 0.0842366 0)
(9.99868 0.0915559 0)
(9.99643 -0.0202027 0)
(9.97327 -0.0372104 0)
(9.95261 -0.0400464 0)
(9.93731 -0.029812 0)
(9.9309 -0.0148253 0)
(9.93102 0.000364175 0)
(9.93504 0.0137712 0)
(9.94104 0.0248389 0)
(9.94782 0.0337541 0)
(9.95464 0.0409852 0)
(9.96117 0.0470425 0)
(9.96724 0.0523862 0)
(9.9728 0.0574015 0)
(9.9779 0.0624035 0)
(9.98261 0.0676464 0)
(9.98704 0.0733326 0)
(9.99135 0.079613 0)
(9.99572 0.0865811 0)
(9.99816 -0.0112878 0)
(9.9833 -0.0229311 0)
(9.96682 -0.0257636 0)
(9.95243 -0.020078 0)
(9.94344 -0.0102435 0)
(9.93952 0.000672743 0)
(9.9394 0.0110271 0)
(9.94183 0.0201402 0)
(9.94582 0.0279205 0)
(9.95069 0.0345661 0)
(9.95597 0.0403786 0)
(9.96139 0.0456681 0)
(9.96681 0.0507124 0)
(9.97215 0.0557438 0)
(9.97743 0.0609463 0)
(9.98269 0.0664566 0)
(9.98802 0.0723641 0)
(9.99353 0.0787098 0)
(9.99906 -0.005081 0)
(9.98922 -0.0107813 0)
(9.97612 -0.0119176 0)
(9.96309 -0.00848384 0)
(9.9531 -0.00243613 0)
(9.94685 0.00457669 0)
(9.94399 0.0115549 0)
(9.94384 0.0180173 0)
(9.94569 0.0238347 0)
(9.94896 0.0290755 0)
(9.95317 0.0338953 0)
(9.95799 0.0384708 0)
(9.96321 0.0429668 0)
(9.96868 0.0475206 0)
(9.97435 0.0522367 0)
(9.98019 0.0571848 0)
(9.98622 0.0624004 0)
(9.99248 0.067886 0)
(9.99942 -0.000367365 0)
(9.9918 0.000151367 0)
(9.98042 0.00183173 0)
(9.96821 0.00459291 0)
(9.9579 0.00791904 0)
(9.95061 0.0114002 0)
(9.94642 0.0148148 0)
(9.94498 0.0180861 0)
(9.94576 0.0212306 0)
(9.94825 0.0243147 0)
(9.95198 0.0274195 0)
(9.9566 0.0306221 0)
(9.96186 0.033985 0)
(9.96757 0.0375525 0)
(9.97361 0.0413481 0)
(9.97993 0.0453769 0)
(9.98648 0.0496246 0)
(9.99325 0.0540617 0)
(9.99935 0.00408469 0)
(9.9911 0.011173 0)
(9.97897 0.016133 0)
(9.96616 0.0187363 0)
(9.95552 0.0196124 0)
(9.94819 0.0195458 0)
(9.94419 0.0191588 0)
(9.94311 0.0188611 0)
(9.94437 0.0188935 0)
(9.94741 0.0193729 0)
(9.95174 0.0203403 0)
(9.95698 0.0217903 0)
(9.96286 0.0236922 0)
(9.96919 0.0260014 0)
(9.97582 0.0286664 0)
(9.98269 0.0316308 0)
(9.98973 0.0348365 0)
(9.99691 0.0382229 0)
(9.99882 0.00972968 0)
(9.98675 0.0240487 0)
(9.97122 0.0318465 0)
(9.95641 0.0332938 0)
(9.94558 0.0307042 0)
(9.93942 0.0263503 0)
(9.93734 0.0217475 0)
(9.93845 0.0177387 0)
(9.94186 0.014694 0)
(9.94686 0.0127091 0)
(9.95291 0.0117284 0)
(9.95962 0.0116328 0)
(9.96673 0.0122835 0)
(9.97407 0.0135449 0)
(9.98154 0.0152921 0)
(9.98908 0.0174154 0)
(9.99664 0.0198183 0)
(10.0042 0.0224165 0)
(9.99757 0.0182099 0)
(9.97773 0.0404552 0)
(9.95664 0.0495776 0)
(9.93945 0.047479 0)
(9.92961 0.0394243 0)
(9.92658 0.0296478 0)
(9.92848 0.020491 0)
(9.93357 0.0129675 0)
(9.94054 0.00734908 0)
(9.94855 0.00351763 0)
(9.95704 0.00122159 0)
(9.96567 0.000171588 0)
(9.97427 0.00010406 0)
(9.98276 0.000786393 0)
(9.99108 0.00203218 0)
(9.99925 0.00368878 0)
(10.0073 0.00563402 0)
(10.0151 0.00776951 0)
(9.99502 0.0318145 0)
(9.96177 0.0621337 0)
(9.93372 0.0695516 0)
(9.91534 0.0601154 0)
(9.90932 0.0439516 0)
(9.91249 0.0276611 0)
(9.92084 0.0139951 0)
(9.93162 0.00364065 0)
(9.94322 -0.00364044 0)
(9.95479 -0.0083727 0)
(9.96594 -0.0111301 0)
(9.97651 -0.0123952 0)
(9.9865 -0.0125733 0)
(9.99594 -0.0119637 0)
(10.0049 -0.0108018 0)
(10.0135 -0.00925952 0)
(10.0217 -0.0074686 0)
(10.0296 -0.00552768 0)
(9.99018 0.0534618 0)
(9.93561 0.0901519 0)
(9.90098 0.0906279 0)
(9.88515 0.0687572 0)
(9.8878 0.0418195 0)
(9.90121 0.0186595 0)
(9.91856 0.0014188 0)
(9.93626 -0.0103939 0)
(9.95285 -0.0179376 0)
(9.96785 -0.0223893 0)
(9.98128 -0.0246453 0)
(9.99331 -0.0253877 0)
(10.0042 -0.0250956 0)
(10.0141 -0.024123 0)
(10.0232 -0.0227049 0)
(10.0318 -0.0210101 0)
(10.0399 -0.019154 0)
(10.0476 -0.0172196 0)
(9.9819 0.0862471 0)
(9.89548 0.124257 0)
(9.85817 0.109884 0)
(9.85209 0.0697741 0)
(9.87033 0.0303386 0)
(9.89842 0.0014499 0)
(9.92658 -0.0172024 0)
(9.95134 -0.028317 0)
(9.9722 -0.0344141 0)
(9.98959 -0.0373216 0)
(10.0042 -0.0381967 0)
(10.0167 -0.0377921 0)
(10.0276 -0.0366144 0)
(10.0372 -0.0349828 0)
(10.0459 -0.033098 0)
(10.0539 -0.0310979 0)
(10.0614 -0.0290551 0)
(10.0684 -0.0270371 0)
(9.96925 0.133989 0)
(9.83823 0.163089 0)
(9.80793 0.122591 0)
(9.82311 0.0588001 0)
(9.86512 0.00730869 0)
(9.91138 -0.0240253 0)
(9.95035 -0.040588 0)
(9.98048 -0.0483662 0)
(10.0034 -0.0512269 0)
(10.0212 -0.0515243 0)
(10.0353 -0.0503986 0)
(10.0469 -0.0484951 0)
(10.0565 -0.0462497 0)
(10.0648 -0.0438629 0)
(10.0722 -0.0414497 0)
(10.079 -0.0391012 0)
(10.0852 -0.036857 0)
(10.0911 -0.0347382 0)
(9.94951 0.20714 0)
(9.76128 0.207022 0)
(9.75726 0.123478 0)
(9.81042 0.0320111 0)
(9.88382 -0.0278605 0)
(9.94874 -0.0559937 0)
(9.99526 -0.0660699 0)
(10.0266 -0.0677955 0)
(10.048 -0.0659618 0)
(10.063 -0.0631736 0)
(10.0743 -0.0598577 0)
(10.083 -0.0564641 0)
(10.09 -0.0531409 0)
(10.0959 -0.05013 0)
(10.101 -0.0473015 0)
(10.1057 -0.0447107 0)
(10.1101 -0.0423294 0)
(10.1142 -0.0401603 0)
(9.91094 0.322718 0)
(9.65923 0.254544 0)
(9.71887 0.107407 0)
(9.83329 -0.011923 0)
(9.94173 -0.0726523 0)
(10.0199 -0.0901617 0)
(10.0662 -0.0893196 0)
(10.0917 -0.0831323 0)
(10.1058 -0.0760263 0)
(10.1141 -0.0695954 0)
(10.1197 -0.0644568 0)
(10.1235 -0.06004 0)
(10.1261 -0.0563699 0)
(10.1281 -0.0532024 0)
(10.1298 -0.050221 0)
(10.1314 -0.0476628 0)
(10.133 -0.0454735 0)
(10.1346 -0.0434391 0)
(9.84404 0.43511 0)
(9.53798 0.261026 0)
(9.7269 0.0591349 0)
(9.92367 -0.0731155 0)
(10.0584 -0.121552 0)
(10.1344 -0.120191 0)
(10.1664 -0.105278 0)
(10.1758 -0.0906118 0)
(10.1759 -0.078472 0)
(10.1726 -0.0703524 0)
(10.1686 -0.0643952 0)
(10.1646 -0.0597051 0)
(10.1605 -0.0556535 0)
(10.1568 -0.0523937 0)
(10.1535 -0.0495743 0)
(10.1504 -0.0475091 0)
(10.148 -0.0459398 0)
(10.146 -0.0443081 0)
(9.83598 0.319666 0)
(9.55021 0.0912513 0)
(9.91739 -0.0687254 0)
(10.1507 -0.160112 0)
(10.2634 -0.172136 0)
(10.3032 -0.142726 0)
(10.2978 -0.112093 0)
(10.276 -0.0899512 0)
(10.2517 -0.0753799 0)
(10.2302 -0.0674366 0)
(10.2132 -0.061886 0)
(10.1983 -0.057402 0)
(10.1843 -0.0528261 0)
(10.1712 -0.0485889 0)
(10.1596 -0.044729 0)
(10.1495 -0.0424401 0)
(10.1407 -0.0410078 0)
(10.1327 -0.0393342 0)
(10.2049 -0.0633775 0)
(10.4095 -0.191706 0)
(10.7164 -0.282558 0)
(10.6879 -0.282287 0)
(10.6191 -0.230103 0)
(10.5417 -0.163667 0)
(10.4546 -0.117043 0)
(10.3763 -0.0924972 0)
(10.3137 -0.0798636 0)
(10.2654 -0.0678457 0)
(10.2262 -0.0588371 0)
(10.1917 -0.0542718 0)
(10.1603 -0.0535373 0)
(10.1321 -0.0528921 0)
(10.107 -0.0522737 0)
(10.0849 -0.0483678 0)
(10.0627 -0.0436154 0)
(10.0449 -0.0424248 0)
(9.41631 4.45107 0)
(12.7294 2.07612 0)
(12.5649 0.621212 0)
(11.569 0.127657 0)
(10.9309 0.00343438 0)
(10.5866 -0.00206798 0)
(10.3638 0.01231 0)
(10.2022 0.0302367 0)
(10.0796 0.0411948 0)
(9.97732 0.0358408 0)
(9.88485 0.025035 0)
(9.79907 0.0219128 0)
(9.72263 0.0248965 0)
(9.65612 0.0230033 0)
(9.59952 0.0193333 0)
(9.54585 0.0101658 0)
(9.49807 -0.0127223 0)
(9.4498 -0.0197219 0)
(-0.027513 0.0934318 0)
(0.137033 -0.183521 0)
(0.325012 -0.305912 0)
(0.525507 -0.315129 0)
(0.702986 -0.272079 0)
(0.833533 -0.211081 0)
(0.909846 -0.146337 -8.60144e-20)
(0.94042 -0.0824874 8.66397e-20)
(0.919534 -0.0201597 0)
(0.858837 0.0345533 9.18615e-20)
(0.771668 0.0739753 0)
(0.672398 0.0920157 0)
(0.578473 0.0877277 0)
(0.505676 0.0666609 -1.43206e-19)
(0.455729 0.0377041 0)
(0.412385 0.00996728 0)
(0.352845 -0.0089764 1.87937e-19)
(0.262676 -0.00867177 0)
(0.135121 0.0293353 0)
(-0.0448944 0.112985 0)
(-0.300628 0.186516 -1.64774e-19)
(-0.594343 0.235277 0)
(-0.915782 0.266831 -7.62262e-20)
(-1.25204 0.296059 0)
(-1.59148 0.323671 0)
(-1.93123 0.336473 -4.13186e-20)
(-2.26365 0.335622 0)
(-2.58077 0.326496 3.45383e-20)
(-2.87954 0.310356 0)
(-3.15655 0.289554 -3.13401e-20)
(-3.4109 0.266417 0)
(-3.6422 0.242536 0)
(-3.85117 0.218946 0)
(-4.03891 0.196352 0)
(-4.20685 0.17513 0)
(-4.35657 0.155488 2.82291e-20)
(-4.48964 0.137461 0)
(-4.60755 0.120976 -5.55699e-20)
(-4.71168 0.105908 0)
(-4.80325 0.0920958 5.47715e-20)
(-4.88331 0.0793783 0)
(-4.95276 0.0676033 0)
(-5.01236 0.0566428 -5.35496e-20)
(-5.06273 0.0464002 0)
(-5.10436 0.0368161 -5.2658e-20)
(-5.13768 0.0278735 5.21803e-20)
(-5.16308 0.0196166 0)
(-5.18095 0.0121933 5.11535e-20)
(-5.19156 0.00585165 5.06011e-20)
(-5.19508 0.000801877 0)
(-5.19276 -0.0031518 0)
(-5.18585 -0.00645034 0)
(-5.17446 -0.009373 0)
(-5.15894 -0.0120839 0)
(-5.13943 -0.0146527 -4.61817e-20)
(-5.11609 -0.0170931 0)
(-5.08902 -0.0194163 4.43165e-20)
(-5.05832 -0.0216313 0)
(-5.0241 -0.0237403 0)
(-4.98646 -0.0257453 -4.11384e-20)
(-4.9455 -0.0276466 0)
(-4.90134 -0.0294442 3.87627e-20)
(-4.85407 -0.0311378 0)
(-4.80382 -0.0327276 0)
(-4.75071 -0.0342134 0)
(-4.69484 -0.035595 -3.33829e-20)
(-4.63634 -0.036873 0)
(-4.57535 -0.0380484 0)
(-4.51198 -0.0391214 -2.87853e-20)
(-4.44637 -0.040093 0)
(-4.37864 -0.0409645 -2.54437e-20)
(-4.30893 -0.0417372 0)
(-4.23737 -0.0424127 0)
(-4.16409 -0.0429926 0)
(-4.08923 -0.0434789 1.80656e-20)
(-4.01291 -0.0438736 0)
(-3.93525 -0.0441792 0)
(-3.8564 -0.044398 1.1883e-20)
(-3.77647 -0.0445329 9.68899e-21)
(-3.69558 -0.0445869 0)
(-3.61386 -0.0445631 5.08678e-21)
(-3.53142 -0.0444651 0)
(-3.44837 -0.044297 3.56587e-22)
(-3.36482 -0.0440635 0)
(-3.28086 -0.043771 -1.01345e-20)
(-3.1966 -0.0434283 0)
(-3.11213 -0.0430479 2.13789e-20)
(-3.02753 -0.0426486 0)
(-2.94286 -0.042259 0)
(-2.85818 -0.0419218 0)
(-2.77353 -0.0416992 -4.65753e-20)
(-2.68894 -0.041674 0)
(-2.60442 -0.0419363 6.08534e-20)
(-2.51992 -0.042542 0)
(-2.43542 -0.0434323 -7.65265e-20)
(-2.35116 -0.0443347 -8.49069e-20)
(-2.26739 -0.0447885 -9.3617e-20)
(-2.18436 -0.0445795 0)
(-2.10224 -0.0439742 0)
(-2.02105 -0.0432757 0)
(-1.94081 -0.0425707 0)
(-1.86151 -0.0418704 0)
(-1.78319 -0.041176 0)
(-1.70588 -0.040489 0)
(-1.62958 -0.0398133 0)
(-1.55434 -0.0391546 1.92753e-19)
(-1.48016 -0.0385201 2.07078e-19)
(-1.40705 -0.0379151 0)
(-1.33504 -0.0373286 0)
(-1.26414 -0.0367032 0)
(-1.19441 -0.0360455 2.74368e-19)
(-1.12583 -0.0354114 0)
(-1.05841 -0.0347959 0)
(-0.992161 -0.0342003 0)
(-0.927074 -0.0336263 0)
(-0.863153 -0.0330759 -3.91056e-19)
(-0.800396 -0.0325516 0)
(-0.738799 -0.0320567 0)
(-0.678355 -0.0315946 4.89284e-19)
(-0.619058 -0.0311668 -5.29005e-19)
(-0.560902 -0.0307768 0)
(-0.503877 -0.0304352 -6.22673e-19)
(-0.447971 -0.0301659 0)
(-0.393166 -0.0300135 7.41737e-19)
(-0.33944 -0.0299887 0)
(-0.286779 -0.0300528 0)
(-0.235167 -0.0301931 0)
(-0.184577 -0.0304205 0)
(-0.134983 -0.0307507 0)
(-0.0864293 -0.0312025 -2.84865e-18)
(-0.039129 -0.0316567 -3.27994e-18)
(0.00697461 -0.0313507 0)
(0.0523934 -0.0298467 0)
(0.0971339 -0.0279961 0)
(0.141055 -0.026279 2.68341e-18)
(0.184064 -0.0247468 0)
(0.22614 -0.0233739 0)
(0.267307 -0.0221368 0)
(0.307596 -0.0210157 2.03919e-18)
(0.347039 -0.0199932 -1.933e-18)
(0.385664 -0.0190553 0)
(0.423497 -0.0181904 0)
(0.460562 -0.0173894 -1.68641e-18)
(0.496884 -0.0166448 -1.62179e-18)
(0.532486 -0.0159504 0)
(0.56739 -0.0153012 0)
(0.601619 -0.0146929 1.46361e-18)
(0.635197 -0.0141218 -1.42015e-18)
(0.668144 -0.0135848 0)
(0.700485 -0.0130792 0)
(0.732242 -0.0126028 -1.30992e-18)
(0.763438 -0.0121535 0)
(0.794096 -0.0117295 0)
(0.824238 -0.0113294 -1.22246e-18)
(0.853889 -0.0109517 0)
(0.88307 -0.0105951 -1.1734e-18)
(0.911806 -0.0102585 0)
(0.940119 -0.00994093 0)
(0.968033 -0.00964122 0)
(0.99557 -0.00935833 1.09144e-18)
(1.02275 -0.00909115 0)
(1.0496 -0.00883842 0)
(1.07613 -0.00859869 0)
(1.10235 -0.00837015 0)
(1.12829 -0.00815057 0)
(1.15393 -0.00793701 0)
(1.17928 -0.00772561 9.82684e-19)
(1.20431 -0.00751122 9.69769e-19)
(1.22898 -0.00728684 0)
(1.25322 -0.00704294 0)
(1.27693 -0.00676599 0)
(1.29994 -0.00643742 -9.24439e-19)
(1.32201 -0.00602746 0)
(1.34274 -0.00549741 1.81378e-18)
(1.36168 -0.00476023 -1.80042e-18)
(1.37742 -0.00372449 -1.79169e-18)
(1.39 -0.00195283 1.79e-18)
(1.39041 0.00132931 -1.79537e-18)
(1.38771 0.00807783 1.8087e-18)
(1.30843 0.0198915 0)
(0.0963265 -0.269029 0)
(0.33409 -0.681325 0)
(0.514201 -0.706557 1.57347e-19)
(0.611841 -0.571364 0)
(0.662835 -0.408901 -1.11133e-19)
(0.683271 -0.253818 -1.081e-19)
(0.677239 -0.112157 -5.6253e-20)
(0.64686 0.0156106 -5.6198e-20)
(0.603878 0.125435 0)
(0.544677 0.211959 -6.08071e-20)
(0.46786 0.267432 0)
(0.373369 0.283224 0)
(0.257558 0.256442 1.70496e-19)
(0.110214 0.211438 9.82878e-20)
(-0.0748281 0.206302 -1.84455e-19)
(-0.301118 0.271871 -1.43782e-19)
(-0.579121 0.383459 -5.71839e-20)
(-0.905072 0.513303 0)
(-1.25867 0.642667 0)
(-1.61678 0.756489 0)
(-1.97241 0.842036 -2.85733e-20)
(-2.318 0.895594 0)
(-2.6479 0.91907 6.90595e-20)
(-2.95462 0.915481 0)
(-3.23412 0.889037 0)
(-3.48475 0.844864 1.9819e-20)
(-3.70513 0.788294 0)
(-3.89607 0.724856 -1.97615e-20)
(-4.05945 0.658781 -4.17974e-20)
(-4.19884 0.592779 2.01685e-20)
(-4.31713 0.528954 0)
(-4.41723 0.469087 0)
(-4.50184 0.414008 0)
(-4.57337 0.36407 -4.42593e-20)
(-4.63388 0.319232 -4.47657e-20)
(-4.68506 0.279223 -2.21901e-20)
(-4.72829 0.243633 0)
(-4.76468 0.211978 4.5308e-20)
(-4.79512 0.183761 0)
(-4.82033 0.158502 -4.58798e-20)
(-4.84089 0.135758 0)
(-4.8573 0.115138 0)
(-4.86997 0.0962982 4.60904e-20)
(-4.8793 0.0789496 0)
(-4.8856 0.0628515 1.38172e-19)
(-4.88919 0.0478094 -4.5611e-20)
(-4.89037 0.033688 0)
(-4.88935 0.0204569 -4.49419e-20)
(-4.88642 0.00823223 -4.44852e-20)
(-4.88183 -0.00282383 0)
(-4.87469 -0.0127672 0)
(-4.86386 -0.0218937 0)
(-4.84935 -0.0304464 0)
(-4.83106 -0.0385401 0)
(-4.80901 -0.0462443 4.02193e-20)
(-4.78327 -0.0535958 7.9169e-20)
(-4.75392 -0.0606159 -3.8442e-20)
(-4.72102 -0.0673158 0)
(-4.68468 -0.0737013 7.34905e-20)
(-4.64499 -0.079775 -3.59689e-20)
(-4.60205 -0.0855376 0)
(-4.55595 -0.0909888 -3.32688e-20)
(-4.50681 -0.0961286 0)
(-4.45473 -0.100958 0)
(-4.39982 -0.10548 -5.98955e-20)
(-4.34221 -0.109693 2.83871e-20)
(-4.282 -0.113598 -5.47036e-20)
(-4.21933 -0.117197 5.19846e-20)
(-4.15431 -0.120496 2.42951e-20)
(-4.08708 -0.123497 0)
(-4.01775 -0.126207 2.13619e-20)
(-3.94646 -0.12863 0)
(-3.87334 -0.130774 0)
(-3.79851 -0.132646 0)
(-3.7221 -0.134254 1.56349e-20)
(-3.64424 -0.135606 0)
(-3.56505 -0.136713 2.37662e-20)
(-3.48466 -0.137583 -2.99729e-20)
(-3.40319 -0.138228 -7.94106e-21)
(-3.32075 -0.138657 0)
(-3.23746 -0.138883 -4.13998e-21)
(-3.15344 -0.138915 0)
(-3.0688 -0.138768 -2.88193e-22)
(-2.98364 -0.138451 0)
(-2.89805 -0.137978 8.11881e-21)
(-2.81215 -0.13736 -2.35807e-20)
(-2.72602 -0.136609 -1.69733e-20)
(-2.63975 -0.135736 0)
(-2.55345 -0.134749 0)
(-2.46718 -0.133652 0)
(-2.38106 -0.132446 3.61946e-20)
(-2.2952 -0.131121 0)
(-2.20973 -0.129651 -4.6668e-20)
(-2.1248 -0.127979 0)
(-2.04055 -0.126052 1.71923e-19)
(-1.95706 -0.123896 6.36475e-20)
(-1.87433 -0.121613 6.968e-20)
(-1.7923 -0.119307 0)
(-1.71097 -0.117039 0)
(-1.63037 -0.114804 0)
(-1.55057 -0.112582 0)
(-1.47164 -0.110357 0)
(-1.3936 -0.108126 2.19542e-19)
(-1.31649 -0.105889 2.35037e-19)
(-1.24035 -0.103649 0)
(-1.16519 -0.10141 -1.34791e-19)
(-1.09104 -0.0991743 -1.43573e-19)
(-1.01793 -0.0969431 0)
(-0.94589 -0.0947188 -3.2311e-19)
(-0.874924 -0.0925057 0)
(-0.80503 -0.0903175 1.81365e-19)
(-0.736217 -0.0881599 0)
(-0.668496 -0.0860332 0)
(-0.601872 -0.0839396 -4.34553e-19)
(-0.536346 -0.0818807 0)
(-0.471921 -0.0798581 2.44892e-19)
(-0.408595 -0.0778747 0)
(-0.346368 -0.0759363 0)
(-0.285234 -0.0740516 2.89844e-19)
(-0.225183 -0.0722188 3.09155e-19)
(-0.166209 -0.0704323 0)
(-0.108306 -0.0686952 -3.46463e-19)
(-0.0514792 -0.0670077 0)
(0.00427418 -0.0653611 3.82673e-19)
(0.0589961 -0.0637487 7.66115e-19)
(0.11272 -0.0621818 0)
(0.165446 -0.0606751 0)
(0.217175 -0.059233 0)
(0.267921 -0.0578533 0)
(0.317717 -0.0565383 7.09176e-19)
(0.366634 -0.0552767 2.09626e-18)
(0.414758 -0.0538972 0)
(0.462 -0.0522502 0)
(0.508221 -0.0504757 0)
(0.55349 -0.048729 -6.65572e-19)
(0.597891 -0.0470615 0)
(0.641448 -0.0454816 0)
(0.684182 -0.0439867 1.28783e-18)
(0.726112 -0.0425702 6.36897e-19)
(0.76726 -0.0412248 6.32373e-19)
(0.807648 -0.0399438 0)
(0.847297 -0.0387216 0)
(0.886228 -0.037554 6.15832e-19)
(0.924463 -0.0364373 -6.09597e-19)
(0.962023 -0.0353686 0)
(0.998928 -0.0343453 0)
(1.0352 -0.0333653 -5.96742e-19)
(1.07086 -0.0324269 1.77625e-18)
(1.10593 -0.0315284 0)
(1.14044 -0.0306682 0)
(1.17439 -0.0298452 5.80278e-19)
(1.20783 -0.029058 0)
(1.24076 -0.0283058 1.14485e-18)
(1.27321 -0.0275873 -5.68497e-19)
(1.3052 -0.0269018 0)
(1.33675 -0.0262482 5.62387e-19)
(1.36789 -0.0256255 1.1175e-18)
(1.39864 -0.0250327 0)
(1.42901 -0.0244684 0)
(1.45903 -0.0239313 -5.4956e-19)
(1.48873 -0.0234195 0)
(1.51811 -0.0229308 1.08642e-18)
(1.54719 -0.0224623 0)
(1.57599 -0.0220102 0)
(1.60451 -0.0215695 0)
(1.63275 -0.0211335 0)
(1.66071 -0.0206933 -5.28994e-19)
(1.68837 -0.0202369 -5.26227e-19)
(1.7157 -0.0197479 0)
(1.74263 -0.0192035 0)
(1.76906 -0.0185721 0)
(1.79487 -0.0178082 5.16137e-19)
(1.81985 -0.0168447 0)
(1.84366 -0.0155784 -1.02486e-18)
(1.86589 -0.0138324 1.0226e-18)
(1.88562 -0.0113222 1.02222e-18)
(1.90242 -0.00730675 1.02331e-18)
(1.91262 -0.00051543 1.02847e-18)
(1.92492 0.0124295 1.02036e-18)
(1.90535 0.036192 0)
(0.116444 -0.859785 0)
(0.269019 -1.05688 0)
(0.316109 -0.826034 -1.26322e-19)
(0.315412 -0.584245 -1.08163e-19)
(0.297978 -0.373766 1.00485e-19)
(0.266765 -0.188627 1.00667e-19)
(0.220578 -0.0231568 -6.44866e-22)
(0.158677 0.124595 0)
(0.0809341 0.255144 0)
(-0.0138857 0.366066 0)
(-0.129341 0.451775 0)
(-0.273499 0.512833 0)
(-0.459278 0.566661 -2.67313e-19)
(-0.697162 0.641408 0)
(-0.983409 0.75398 6.62704e-20)
(-1.30216 0.895957 5.71704e-20)
(-1.63545 1.04407 0)
(-1.9664 1.17808 0)
(-2.27973 1.28545 0)
(-2.56361 1.35915 0)
(-2.81272 1.39488 3.49019e-20)
(-3.02665 1.39242 0)
(-3.20679 1.35645 -3.23452e-20)
(-3.35597 1.29419 0)
(-3.47867 1.21298 0)
(-3.57949 1.11921 0)
(-3.66324 1.01896 -6.85868e-20)
(-3.73428 0.917566 0)
(-3.79615 0.819159 3.31172e-20)
(-3.85161 0.726535 -7.07009e-20)
(-3.90259 0.641208 0)
(-3.95038 0.563913 0)
(-3.99574 0.494702 0)
(-4.03904 0.433188 3.65646e-20)
(-4.08037 0.378725 3.7152e-20)
(-4.11971 0.330538 0)
(-4.15691 0.287832 0)
(-4.1918 0.249845 -7.78012e-20)
(-4.22419 0.215885 -7.81942e-20)
(-4.25394 0.185339 7.84273e-20)
(-4.28088 0.157691 0)
(-4.30492 0.13251 0)
(-4.32595 0.109449 0)
(-4.3439 0.0882232 0)
(-4.35872 0.0685989 -7.70111e-20)
(-4.37035 0.0503765 -7.69131e-20)
(-4.37871 0.0333716 7.62703e-20)
(-4.38368 0.0173833 0)
(-4.38508 0.00215529 0)
(-4.38274 -0.0125989 0)
(-4.37662 -0.0270123 0)
(-4.36678 -0.0409982 -7.11068e-20)
(-4.35326 -0.0544648 0)
(-4.3361 -0.0674008 0)
(-4.31534 -0.0798104 -6.69951e-20)
(-4.29104 -0.0917025 -6.49694e-20)
(-4.26326 -0.103084 0)
(-4.23208 -0.11396 1.2457e-19)
(-4.19756 -0.124332 -6.00314e-20)
(-4.15979 -0.1342 5.82548e-20)
(-4.11887 -0.143562 0)
(-4.07489 -0.152415 0)
(-4.02794 -0.160759 0)
(-3.97813 -0.168592 0)
(-3.92558 -0.175917 4.84228e-20)
(-3.87038 -0.182737 9.37765e-20)
(-3.81266 -0.189048 4.40572e-20)
(-3.75253 -0.194857 -4.1785e-20)
(-3.69012 -0.200167 0)
(-3.62553 -0.204987 7.54242e-20)
(-3.55891 -0.209324 7.05408e-20)
(-3.49036 -0.213186 6.5541e-20)
(-3.42003 -0.216585 -6.04254e-20)
(-3.34802 -0.219531 0)
(-3.27447 -0.222038 -7.40952e-20)
(-3.1995 -0.224118 0)
(-3.12323 -0.225787 2.00936e-20)
(-3.04578 -0.22706 1.58702e-20)
(-2.96728 -0.227952 0)
(-2.88785 -0.228481 0)
(-2.80759 -0.228664 1.53558e-20)
(-2.72661 -0.228518 0)
(-2.64504 -0.228063 2.92018e-21)
(-2.56298 -0.227315 0)
(-2.48053 -0.226296 1.00041e-20)
(-2.39778 -0.225023 3.47375e-20)
(-2.31486 -0.223517 0)
(-2.23184 -0.221796 0)
(-2.14882 -0.219879 0)
(-2.06591 -0.217785 4.45927e-20)
(-1.98319 -0.215527 0)
(-1.90076 -0.213117 5.94161e-20)
(-1.81872 -0.210556 0)
(-1.73717 -0.207831 0)
(-1.65616 -0.204913 -1.67085e-19)
(-1.57575 -0.20179 0)
(-1.49593 -0.198473 -9.9331e-20)
(-1.41672 -0.195006 0)
(-1.33816 -0.191447 -1.16613e-19)
(-1.26029 -0.187835 0)
(-1.18318 -0.184187 0)
(-1.10687 -0.18051 0)
(-1.03141 -0.176811 -4.62768e-19)
(-0.956839 -0.173097 -1.65071e-19)
(-0.883179 -0.169374 0)
(-0.810461 -0.165649 0)
(-0.738709 -0.161929 0)
(-0.667946 -0.158217 0)
(-0.598188 -0.154519 2.18874e-19)
(-0.529447 -0.150839 -4.58541e-19)
(-0.46173 -0.147189 -2.42711e-19)
(-0.395047 -0.143575 5.07741e-19)
(-0.32941 -0.140003 5.33543e-19)
(-0.264824 -0.136481 2.81424e-19)
(-0.20129 -0.133009 0)
(-0.13881 -0.129587 6.16325e-19)
(-0.0773858 -0.12622 0)
(-0.0170183 -0.12291 -6.73611e-19)
(0.0422988 -0.119659 -3.4516e-19)
(0.100579 -0.116468 0)
(0.157828 -0.113339 6.93123e-19)
(0.214052 -0.110276 3.4883e-19)
(0.269262 -0.107278 0)
(0.323467 -0.104337 3.48723e-19)
(0.376676 -0.101441 -1.05281e-18)
(0.428897 -0.0985989 0)
(0.480145 -0.0958221 0)
(0.530436 -0.0931127 0)
(0.579788 -0.0904716 0)
(0.628224 -0.0879034 -7.0774e-19)
(0.675777 -0.0854152 -7.10231e-19)
(0.722471 -0.083022 0)
(0.768271 -0.0807107 0)
(0.813163 -0.078442 0)
(0.8572 -0.076215 0)
(0.900424 -0.074046 0)
(0.942852 -0.0719434 0)
(0.984496 -0.0699101 -7.14002e-19)
(1.02537 -0.0679455 -1.08887e-21)
(1.0655 -0.0660482 0)
(1.1049 -0.0642161 0)
(1.14359 -0.0624472 -7.13834e-19)
(1.18159 -0.0607397 0)
(1.21892 -0.0590921 7.14882e-19)
(1.2556 -0.0575029 7.14021e-19)
(1.29166 -0.0559708 0)
(1.3271 -0.0544945 0)
(1.36196 -0.0530731 -7.14555e-19)
(1.39625 -0.0517054 -1.42731e-18)
(1.42999 -0.0503903 0)
(1.46321 -0.0491268 0)
(1.49593 -0.0479141 0)
(1.52816 -0.0467512 -7.13252e-19)
(1.55993 -0.0456372 7.12872e-19)
(1.59127 -0.0445711 0)
(1.62218 -0.0435519 1.42287e-18)
(1.6527 -0.0425784 7.10418e-19)
(1.68284 -0.0416493 -1.42082e-18)
(1.71263 -0.0407629 0)
(1.74208 -0.0399172 0)
(1.77122 -0.0391097 -1.41702e-18)
(1.80006 -0.038337 -7.08225e-19)
(1.82862 -0.0375949 0)
(1.85691 -0.0368775 0)
(1.88495 -0.0361773 0)
(1.91273 -0.0354843 0)
(1.94025 -0.0347847 -1.4069e-18)
(1.9675 -0.0340604 0)
(1.99446 -0.0332864 0)
(2.02106 -0.0324284 0)
(2.04724 -0.0314385 0)
(2.07287 -0.0302484 0)
(2.0978 -0.0287573 0)
(2.12175 -0.0268137 -1.39758e-18)
(2.1444 -0.024166 0)
(2.16506 -0.020409 0)
(2.18351 -0.0147502 -2.81638e-18)
(2.19695 -0.00587219 1.41821e-18)
(2.21163 0.00888302 -1.41632e-18)
(2.20653 0.0362629 1.41177e-18)
(0.0333143 -1.16614 0)
(0.0696723 -1.0298 3.59912e-19)
(0.0339133 -0.746817 0)
(-0.0105489 -0.506324 1.10872e-19)
(-0.0658904 -0.283588 0)
(-0.133763 -0.0739857 0)
(-0.217016 0.122881 -8.28014e-20)
(-0.318025 0.306275 0)
(-0.438913 0.475754 0)
(-0.582288 0.631875 0)
(-0.752004 0.777175 0)
(-0.953273 0.917758 0)
(-1.18872 1.06173 2.04178e-19)
(-1.45276 1.21252 9.24275e-20)
(-1.73092 1.36384 -8.36805e-20)
(-2.00482 1.50236 0)
(-2.25873 1.61425 0)
(-2.48261 1.69016 0)
(-2.67167 1.72639 0)
(-2.82449 1.72419 0)
(-2.94363 1.68742 6.01594e-20)
(-3.03465 1.62133 5.88432e-20)
(-3.10364 1.53276 -5.79906e-20)
(-3.15693 1.42938 5.76895e-20)
(-3.19993 1.31788 0)
(-3.23695 1.20367 0)
(-3.27149 1.09111 5.58433e-20)
(-3.30587 0.983476 0)
(-3.34139 0.882899 0)
(-3.37856 0.790415 5.8698e-20)
(-3.41737 0.706267 6.15161e-20)
(-3.45748 0.630227 6.22278e-20)
(-3.49837 0.561764 0)
(-3.53941 0.500182 0)
(-3.58 0.444722 -6.40382e-20)
(-3.61956 0.394626 0)
(-3.65761 0.349184 0)
(-3.69373 0.307752 6.43113e-20)
(-3.72759 0.269766 -6.60314e-20)
(-3.75889 0.234738 6.60419e-20)
(-3.78741 0.202251 0)
(-3.81298 0.171957 0)
(-3.83543 0.143559 1.30017e-19)
(-3.85465 0.116805 0)
(-3.87051 0.0914848 1.28629e-19)
(-3.88294 0.0674214 1.91041e-19)
(-3.89184 0.0444711 -1.89399e-19)
(-3.89715 0.0225135 1.25332e-19)
(-3.89884 0.0014316 0)
(-3.89689 -0.0188906 0)
(-3.89136 -0.0385313 1.19876e-19)
(-3.88228 -0.0575093 5.84069e-20)
(-3.86969 -0.0758205 0)
(-3.85364 -0.0934639 0)
(-3.83415 -0.110439 5.49007e-20)
(-3.81127 -0.126745 1.08252e-19)
(-3.78506 -0.14238 0)
(-3.75559 -0.157342 -1.01799e-19)
(-3.72292 -0.171626 9.99696e-20)
(-3.68713 -0.185229 -9.69976e-20)
(-3.64829 -0.198145 0)
(-3.60651 -0.210369 0)
(-3.56186 -0.221895 0)
(-3.51446 -0.232721 0)
(-3.4644 -0.242852 0)
(-3.41179 -0.252288 -7.59239e-20)
(-3.35673 -0.261027 0)
(-3.29934 -0.269074 0)
(-3.23974 -0.276437 0)
(-3.17804 -0.283124 -1.22622e-19)
(-3.11436 -0.289146 -5.67033e-20)
(-3.04882 -0.294515 -5.26018e-20)
(-2.98154 -0.299244 9.80382e-20)
(-2.91264 -0.303351 -4.53613e-20)
(-2.84224 -0.30685 3.98089e-20)
(-2.77046 -0.309762 0)
(-2.69743 -0.312105 -3.08855e-20)
(-2.62325 -0.3139 0)
(-2.54805 -0.31517 0)
(-2.47193 -0.315936 0)
(-2.39502 -0.316222 -2.54812e-20)
(-2.31742 -0.316052 8.48034e-21)
(-2.23923 -0.31545 4.76255e-21)
(-2.16057 -0.31444 -2.99349e-21)