/*--------------------------------*- C++ -*----------------------------------*\
  =========                 |
  \\      /  F ield         | OpenFOAM: The Open Source CFD Toolbox
   \\    /   O peration     | Website:  https://openfoam.org
    \\  /    A nd           | Version:  8
     \\/     M anipulation  |
\*---------------------------------------------------------------------------*/
FoamFile
{
    version     2.0;
    format      ascii;
    class       volScalarField;
    location    "2000";
    object      omega;
}
// * * * * * * * * * * * * * * * * * * * * * * * * * * * * * * * * * * * * * //

dimensions      [0 0 -1 0 0 0 0];

internalField   nonuniform List<scalar> 
12225
(
32582.3
32582.3
44213.7
47929.5
47454.2
52856.8
53356.3
45730.6
39412.4
45393.4
44176.5
47802
49854.2
48655.2
43462.6
32582.3
32582.3
32582.3
2387.95
7234.08
11797.6
14819.1
15808.3
15967
21869.4
19256.5
17791.3
17618.2
16938.6
17383.1
17186.1
19473.8
18191.8
16618
16527.8
15929.2
635.765
1231.25
2034.2
2899.47
3680.45
4255.2
5126.79
5654.25
5966.37
6495.33
6696.03
7047.95
7161.99
7345.84
7424.85
7467.93
7616.6
7687.74
498.068
599.427
771.49
965.609
1137.91
1334.88
1531.76
1735.57
1884.41
2072
2190.12
2326.64
2405.01
2496.36
2546.81
2624.04
2662.73
2746.6
497.941
509.587
550.051
602.521
645.201
702.672
758.287
826.189
878.513
943.216
987.507
1041.41
1073.92
1118.25
1142.03
1181.74
1200.18
1239.92
497.516
497.352
503.511
516.268
530.856
544.216
558.836
581.55
599.503
623.529
640.258
662.417
676.254
696.496
707.917
727.078
736.512
755.245
498.243
495.761
494.156
494.979
497.113
499.737
503.115
507.316
512.055
519.792
525.06
533.126
538.166
546.308
551.028
559.289
563.563
571.867
498.425
495.77
493.198
491.306
489.986
488.916
488.776
488.915
489.388
490.994
492.237
494.695
496.205
499.08
500.766
504.031
505.824
509.432
498.493
495.71
493.02
490.563
488.306
486.289
484.532
483.233
482.037
481.414
480.799
480.583
480.48
480.58
480.758
481.222
481.584
482.532
498.508
495.682
492.962
490.429
487.98
485.738
483.578
481.693
479.876
478.343
476.856
475.621
474.401
473.473
472.469
471.838
471.017
470.67
498.514
495.667
492.94
490.389
487.931
485.64
483.426
481.385
479.408
477.605
475.846
474.26
472.693
471.31
469.925
468.733
467.521
466.502
498.515
495.658
492.933
490.367
487.916
485.607
483.396
481.316
479.32
477.446
475.644
473.954
472.324
470.799
469.327
467.954
466.629
465.394
498.518
495.651
492.929
490.354
487.905
485.585
483.377
481.283
479.288
477.395
475.588
473.874
472.235
470.68
469.192
467.779
466.427
465.144
498.518
495.648
492.925
490.345
487.895
485.57
483.36
481.261
479.263
477.364
475.555
473.834
472.193
470.629
469.138
467.716
466.359
465.065
498.517
495.646
492.922
490.339
487.887
485.559
483.346
481.244
479.244
477.341
475.529
473.804
472.16
470.593
469.098
467.674
466.314
465.017
498.516
495.643
492.917
490.33
487.875
485.544
483.328
481.222
479.218
477.312
475.496
473.768
472.12
470.55
469.052
467.625
466.261
464.963
498.508
495.619
492.88
490.282
487.816
485.474
483.25
481.135
479.125
477.211
475.39
473.656
472.003
470.429
468.927
467.495
466.129
464.826
498.508
495.62
492.88
490.282
487.815
485.473
483.248
481.133
479.122
477.208
475.386
473.651
471.998
470.423
468.921
467.488
466.122
464.817
498.517
495.643
492.917
490.329
487.873
485.54
483.323
481.214
479.209
477.3
475.484
473.753
472.104
470.531
469.033
467.602
466.239
464.936
498.517
495.645
492.921
490.335
487.882
485.551
483.336
481.23
479.227
477.32
475.505
473.777
472.13
470.56
469.063
467.636
466.274
464.973
498.518
495.646
492.923
490.339
487.887
485.558
483.345
481.241
479.239
477.335
475.523
473.799
472.159
470.596
469.109
467.688
466.335
465.041
498.518
495.648
492.923
490.347
487.896
485.574
483.361
481.261
479.262
477.374
475.584
473.899
472.319
470.817
469.414
468.057
466.784
465.54
498.521
495.657
492.89
490.397
487.916
485.668
483.436
481.408
479.466
477.692
476.062
474.705
473.561
472.547
471.707
470.821
470.07
469.208
498.594
495.607
492.78
490.714
488.233
486.55
484.478
483.113
481.757
480.199
479.759
480.216
481.456
482.977
484.739
486.113
487.694
488.731
498.997
494.76
493
492.745
492.822
493.485
494.984
495.823
497.836
500.964
506.142
514.098
522.426
531.245
540.054
547.536
555.294
561.179
498.289
490.766
498.915
513.05
525.033
536.77
547.27
558.16
569.666
590.269
611.661
638.263
664.873
690.987
716.102
736.617
758.113
772.03
479.113
504.441
554.399
633.242
690.194
742.851
783.348
835.14
883.231
949.065
1013
1088.33
1156.4
1226
1283.17
1334.73
1379.11
1413.52
397.389
712.836
1026.05
1378.96
1623.05
1824.69
2001.67
2180.4
2349.5
2527.68
2709.9
2876.4
3052.29
3183.95
3314.15
3394.28
3488.42
3534.53
547.894
3338.69
5365.11
6741.19
7684.6
8319.8
8739.64
9030.24
9226.97
9355.16
9454.58
9504.07
9487.9
9488.72
9475.42
9456.39
9428.31
9425.94
16112.1
21156.4
23493
24541.9
25007.4
25074.8
25007.3
24841.2
24593.5
24323.6
24050.3
23782.2
23527.2
23289.7
23068.7
22866.8
22681.9
22514.9
11463.3
2494.65
2496.87
2499.12
2501.38
2503.67
2505.98
2508.3
2510.65
2513.02
2515.42
2517.83
2520.27
2522.73
2525.21
2527.72
2530.25
2532.8
2535.37
2537.97
2540.6
2543.25
2545.92
2548.62
2551.34
2554.09
2556.87
2559.67
2562.5
2565.35
2568.23
2571.14
2574.08
2577.04
2580.04
2583.06
2586.11
2589.19
2592.3
2595.43
2598.6
2601.8
2605.03
2608.29
2611.59
2614.91
2618.27
2621.66
2625.08
2628.54
2632.03
2635.55
2639.11
2642.71
3122.76
3134.89
3166.07
3356.55
3291.35
2665.03
2668.88
3138.41
3297.34
3395.97
3476.32
3569.01
3646.3
3725.91
3800.14
3873.34
3943.24
4012.11
4078.45
4143.76
4207.15
4269.48
4330.27
4390.02
4448.45
4505.87
4562.1
4617.35
4671.49
4724.68
4776.8
4827.96
4878.07
4927.19
4975.26
5022.29
5068.25
5113.1
5156.78
5199.28
5240.54
5280.52
5319.2
5356.61
5392.89
5428.28
5463.23
5496.89
5529.73
5561.58
5592.5
5622.45
5651.45
5679.46
5706.51
5732.54
5757.59
5781.62
5804.65
5826.65
5847.62
5867.57
5886.49
5904.37
5921.21
5937.03
5951.79
5965.54
5978.22
5989.89
6000.49
6010.07
6018.56
6026.16
6033.42
6038.86
6044.35
6047.29
6050.53
6052.75
6054.68
6055.72
6055.58
6053.67
6051.15
6047.56
6043.21
6038.03
6032.09
6025.41
6018.02
6009.97
6001.32
5991.99
5982.36
5971.68
5961.02
5949.22
5937.62
5924.81
5912.18
5898.97
5885.59
5872.01
5858.3
5844.5
5830.68
5816.85
5803.06
5789.3
5775.63
5762.08
5748.72
5735.59
5722.77
5710.26
5698.09
5686.18
5674.5
5662.73
5650.61
5637.37
5622.13
5602.18
5572.42
5452.94
11463.3
1992.56
998.61
812.913
695.173
624.047
631.171
627.216
616.001
593.28
569.016
545.274
523.529
505.531
493.3
484.594
484.01
486.193
512.151
561.859
647.096
749.37
859.998
969.726
1067.05
1142.84
1182.63
1176
1132.3
1051.21
926.818
773.103
645.737
562.948
497.143
461.256
456.432
464.316
485.78
517.602
547.638
586.721
682.926
810.551
1003.2
1311.95
1623.98
1841.73
1983.33
2054.08
2074.15
2064.78
2023.86
1988.97
1967.42
1897.72
1837.81
1794.16
1725.76
1680.34
1677.11
1692.64
1679.21
1673.54
1667.9
1666.54
1665.66
1667.2
1670.3
1674.5
1679.54
1685.41
1691.72
1698.58
1705.67
1713.07
1720.59
1728.25
1735.97
1743.73
1751.48
1759.21
1766.88
1774.47
1781.97
1789.35
1796.59
1803.68
1810.6
1817.35
1823.92
1830.28
1836.45
1842.45
1848.3
1854.09
1859.92
1866
1872.62
1880.23
1889.09
1897.05
1905.14
1912.85
1920.42
1927.74
1934.85
1941.73
1948.39
1954.82
1961.02
1967
1972.75
1978.27
1983.57
1988.63
1993.48
1998.09
2002.48
2006.64
2010.58
2014.3
2017.79
2021.07
2024.14
2027
2029.67
2032.17
2034.5
2036.57
2038.5
2040.17
2041.8
2043.26
2044.54
2045.45
2045.71
2045.2
2044.48
2043.57
2042.48
2041.21
2039.76
2038.14
2036.38
2034.51
2032.33
2030.51
2027.28
2025.54
2021.94
2019.94
2016.13
2013.66
2010.35
2007.14
2003.88
2000.51
1997.11
1993.66
1990.18
1986.68
1983.15
1979.62
1976.09
1972.57
1969.07
1965.6
1962.18
1958.81
1955.53
1952.32
1949.17
1946.16
1943.33
1940.75
1938.51
1937.15
1935.75
1944.46
11463.3
2009.4
814.068
642.318
682.169
683.32
655.825
600.124
540.177
483.834
434.031
391.884
358.813
332.902
312.995
297.698
287.077
278.943
276.844
279.204
289.835
308.755
341.407
385.878
441.221
502.238
563.279
610.48
639.611
637.177
614.034
571.589
509.105
440.882
391.138
384.493
395.409
418.452
454.445
524.249
632.672
784.533
983.37
1163.97
1312.92
1445.09
1533.78
1564.23
1564.05
1516.54
1462.93
1401.85
1344.81
1294.83
1250.18
1209.99
1178
1154.32
1134.91
1122.61
1116.4
1110.81
1105.98
1103.83
1101.92
1101.91
1102.8
1104.55
1106.89
1109.69
1112.86
1116.33
1120.02
1123.91
1127.91
1132.03
1136.22
1140.46
1144.74
1149.03
1153.33
1157.62
1161.89
1166.14
1170.34
1174.51
1178.62
1182.68
1186.68
1190.63
1194.53
1198.38
1202.2
1206.01
1209.83
1213.69
1217.64
1221.72
1225.96
1230.36
1234.74
1238.91
1243.02
1246.97
1250.82
1254.54
1258.14
1261.61
1264.95
1268.17
1271.26
1274.22
1277.04
1279.74
1282.31
1284.74
1287.04
1289.22
1291.26
1293.16
1294.94
1296.59
1298.11
1299.5
1300.76
1301.9
1302.93
1303.83
1304.61
1305.27
1305.81
1306.23
1306.56
1306.75
1306.8
1306.65
1306.25
1305.65
1304.94
1304.12
1303.2
1302.17
1301.04
1299.81
1298.48
1297.06
1295.53
1293.97
1292.11
1290.47
1288.4
1286.63
1284.4
1282.47
1280.26
1278.06
1275.81
1273.5
1271.15
1268.75
1266.32
1263.87
1261.38
1258.88
1256.35
1253.82
1251.28
1248.74
1246.21
1243.69
1241.2
1238.76
1236.38
1234.11
1232.03
1230.24
1228.93
1228.74
1230.07
1240.33
11463.3
2037.79
1013.65
980.491
905.007
775.91
658.717
551.428
466.813
403.719
356.253
319.209
290.405
268.327
251.48
238.661
229.051
222.089
217.469
215.779
216.897
220.007
228.436
242.869
264.621
293.579
328.253
363.684
394.91
418.231
423.339
417.092
393.931
395.961
435.097
524.441
588.463
644.278
714.243
814.813
949.663
1070.23
1150.47
1218.8
1272.23
1293.92
1260.55
1213.92
1169.43
1114.93
1069.44
1027.15
992.733
963.861
940.194
921.532
907.349
896.971
889.516
884.434
881.507
879.76
878.701
878.624
879.277
880.656
882.502
884.727
887.251
890.014
892.968
896.079
899.311
902.643
906.052
909.524
913.041
916.594
920.17
923.762
927.36
930.958
934.548
938.126
941.687
945.226
948.741
952.23
955.694
959.134
962.551
965.948
969.331
972.709
976.088
979.478
982.882
986.299
989.718
993.103
996.405
999.601
1002.72
1005.73
1008.65
1011.47
1014.19
1016.81
1019.32
1021.74
1024.05
1026.25
1028.35
1030.33
1032.21
1033.98
1035.65
1037.2
1038.64
1039.97
1041.18
1042.29
1043.29
1044.18
1044.96
1045.63
1046.19
1046.65
1047
1047.24
1047.38
1047.41
1047.34
1047.15
1046.84
1046.38
1045.78
1045.06
1044.24
1043.33
1042.32
1041.22
1040.04
1038.77
1037.41
1035.96
1034.43
1032.82
1031.1
1029.36
1027.48
1025.62
1023.61
1021.63
1019.53
1017.4
1015.22
1012.99
1010.71
1008.4
1006.04
1003.66
1001.25
998.813
996.357
993.883
991.396
988.9
986.401
983.905
981.427
978.985
976.602
974.317
972.192
970.331
968.894
968.408
969.375
975.662
11463.3
2309.48
1472.52
1188.51
943.396
729.12
562.54
450.873
374.763
321.475
283.435
256.193
236.475
221.651
210.27
201.52
194.941
190.168
186.992
185.527
185.869
187.19
191.152
197.998
208.924
224.93
246.135
270.168
294.319
313.454
329.286
354.152
421.269
524.476
611.799
679.133
748.423
824.509
897.608
962.093
1018.22
1066.53
1098.04
1107.05
1077.74
1030.34
993.581
951.017
914.049
879.408
851.71
827.828
808.889
793.573
781.642
772.756
766.356
761.976
759.358
758.039
757.718
757.998
759.033
760.596
762.604
764.968
767.6
770.448
773.47
776.633
779.912
783.286
786.738
790.255
793.823
797.434
801.076
804.743
808.428
812.122
815.821
819.519
823.211
826.892
830.559
834.208
837.837
841.443
845.026
848.586
852.121
855.631
859.117
862.58
866.019
869.433
872.814
876.153
879.437
882.651
885.782
888.824
891.78
894.644
897.416
900.093
902.673
905.155
907.537
909.817
911.996
914.071
916.04
917.902
919.656
921.302
922.838
924.263
925.577
926.78
927.87
928.848
929.714
930.469
931.111
931.641
932.06
932.366
932.56
932.639
932.62
932.484
932.235
931.868
931.383
930.774
930.04
929.197
928.254
927.215
926.078
924.847
923.523
922.111
920.611
919.02
917.346
915.586
913.739
911.83
909.833
907.789
905.658
903.489
901.247
898.952
896.604
894.207
891.763
889.278
886.754
884.197
881.612
879
876.366
873.713
871.043
868.361
865.676
863
860.343
857.717
855.145
852.66
850.314
848.194
846.432
845.387
845.574
848.707
11463.3
2932.23
1736.67
1211.3
834.852
588.743
445.427
356.554
301.323
265.529
240.767
222.594
208.657
197.72
188.996
182.055
176.698
172.796
170.268
169.227
169.583
170.959
174.294
179.581
187.483
199.279
215.878
237.47
265.799
308.031
364.555
456.203
567.748
656.969
724.752
787.029
839.805
880.671
915.581
949.258
967.673
970.666
942.553
911.164
878.717
844.186
814.47
785.752
762.079
741.653
725.246
711.747
701.233
693.156
687.271
683.284
680.985
680.05
679.876
680.605
682.051
684.001
686.411
689.168
692.207
695.466
698.899
702.473
706.161
709.944
713.806
717.735
721.719
725.75
729.819
733.918
738.04
742.179
746.327
750.48
754.632
758.778
762.912
767.031
771.131
775.208
779.259
783.28
787.27
791.226
795.147
799.03
802.872
806.671
810.425
814.128
817.772
821.348
824.849
828.268
831.599
834.838
837.985
841.035
843.986
846.836
849.583
852.224
854.756
857.18
859.495
861.697
863.784
865.756
867.61
869.347
870.963
872.458
873.832
875.083
876.212
877.217
878.099
878.858
879.493
880.004
880.391
880.653
880.78
880.799
880.697
880.467
880.112
879.631
879.026
878.294
877.437
876.465
875.381
874.19
872.892
871.489
869.983
868.38
866.68
864.883
862.994
861.012
858.941
856.791
854.56
852.26
849.884
847.446
844.94
842.374
839.751
837.074
834.348
831.577
828.767
825.921
823.045
820.143
817.216
814.268
811.304
808.328
805.348
802.374
799.417
796.49
793.613
790.813
788.135
785.649
783.46
781.817
781.075
782.093
11463.3
3442.58
1781.05
1038.11
652.219
458.574
359.015
303.148
267.612
242.855
224.275
209.685
197.905
188.134
180.023
173.415
168.255
164.52
162.31
161.736
162.596
165.146
169.932
177.318
188.197
202.856
224.583
258.894
313.167
398.259
505.577
596.655
666.177
725.969
773.246
808.737
837.112
859.619
869.1
866.762
844.321
821.614
795.194
769.472
744.216
720.424
699.886
681.793
666.954
654.633
644.836
637.167
631.491
627.532
625.278
624.371
624.275
625.211
626.878
629.176
631.984
635.189
638.723
642.514
646.51
650.668
654.957
659.353
663.835
668.391
673.009
677.678
682.392
687.143
691.923
696.725
701.543
706.369
711.197
716.021
720.836
725.635
730.414
735.169
739.894
744.586
749.241
753.854
758.421
762.941
767.41
771.824
776.179
780.473
784.701
788.86
792.945
796.952
800.875
804.703
808.433
812.061
815.583
818.997
822.301
825.49
828.562
831.514
834.343
837.046
839.617
842.06
844.372
846.553
848.602
850.516
852.295
853.938
855.443
856.81
858.039
859.129
860.08
860.892
861.565
862.099
862.494
862.742
862.839
862.824
862.665
862.364
861.925
861.349
860.635
859.785
858.802
857.691
856.456
855.099
853.624
852.031
850.321
848.491
846.545
844.49
842.332
840.072
837.714
835.265
832.729
830.111
827.414
824.644
821.801
818.891
815.919
812.889
809.806
806.676
803.503
800.293
797.052
793.783
790.488
787.173
783.841
780.498
777.151
773.81
770.487
767.194
763.947
760.772
757.703
754.797
752.136
749.888
748.228
747.657
11463.3
3585.78
1565.72
817.17
516.854
382.701
313.794
273.718
247.893
229.627
215.562
203.794
193.498
184.58
177.015
170.871
166.332
163.573
162.565
163.157
165.551
170.341
178.242
190.934
211.033
241.442
287.622
359.642
449.216
532.268
597.796
652.963
699.462
736.612
766.378
785.471
792.283
785.914
769.032
751.394
730.523
710.711
690.621
671.541
653.587
637.561
623.892
612.34
602.955
595.458
589.748
585.641
583.116
582.002
581.808
582.644
584.33
586.767
589.812
593.365
597.334
601.639
606.218
611.015
615.988
621.103
626.333
631.658
637.061
642.528
648.05
653.616
659.219
664.852
670.508
676.179
681.857
687.533
693.201
698.854
704.486
710.089
715.66
721.191
726.68
732.124
737.513
742.844
748.111
753.313
758.446
763.503
768.482
773.379
778.19
782.911
787.542
792.079
796.51
800.828
805.029
809.109
813.066
816.895
820.596
824.163
827.595
830.888
834.04
837.049
839.913
842.631
845.2
847.62
849.888
852.004
853.965
855.772
857.422
858.915
860.251
861.429
862.45
863.313
864.018
864.565
864.954
865.17
865.234
865.155
864.915
864.518
863.966
863.259
862.401
861.392
860.236
858.937
857.498
855.922
854.213
852.372
850.403
848.309
846.094
843.759
841.31
838.749
836.082
833.312
830.447
827.492
824.45
821.326
818.124
814.849
811.507
808.104
804.644
801.133
797.576
793.981
790.353
786.696
783.012
779.308
775.587
771.857
768.124
764.399
760.691
757.015
753.383
749.818
746.348
743.017
739.855
737.008
734.552
732.653
11463.3
3408.14
1282.77
661.791
443.293
347.76
296.54
265.533
244.125
227.887
214.952
204.196
195.039
187.193
180.693
175.757
172.707
171.703
172.976
176.654
183.401
194.699
212.252
239.845
283.283
342.905
412.225
477.648
535.725
585.719
628.24
663.879
694.5
716.07
723.974
721.021
708.328
694.143
677.711
661.961
646.218
631.28
616.694
603.001
590.539
579.716
570.629
563.192
557.352
552.989
550.008
548.51
548.066
548.574
550.051
552.377
555.438
559.137
563.376
568.071
573.146
578.536
584.184
590.044
596.076
602.25
608.541
614.93
621.397
627.925
634.504
641.12
647.764
654.427
661.109
667.794
674.473
681.138
687.781
694.392
700.966
707.495
713.974
720.396
726.75
733.023
739.227
745.357
751.408
757.377
763.258
769.046
774.736
780.324
785.806
791.176
796.429
801.557
806.557
811.422
816.15
820.736
825.177
829.47
833.613
837.602
841.434
845.106
848.616
851.961
855.139
858.149
860.988
863.657
866.152
868.473
870.619
872.587
874.378
875.99
877.423
878.678
879.754
880.651
881.369
881.909
882.266
882.429
882.432
882.259
881.908
881.381
880.681
879.808
878.766
877.557
876.184
874.651
872.962
871.119
869.127
866.989
864.708
862.288
859.734
857.048
854.235
851.3
848.247
845.081
841.81
838.439
834.973
831.418
827.777
824.059
820.269
816.413
812.498
808.529
804.511
800.453
796.36
792.237
788.088
783.918
779.733
775.541
771.349
767.166
763.003
758.873
754.787
750.764
746.829
743.018
739.371
735.981
732.864
729.928
11463.3
2976.39
1033.74
562.25
400.586
327.767
288.764
263.155
245.533
232.528
222.061
213.187
205.637
199.499
195.082
193.126
193.666
197.672
205.184
216.808
234.336
260.042
295.52
340.089
389.007
438.679
485.65
527.832
565.31
597.428
625.693
649.541
660.716
662.289
655.461
645.284
632.488
619.907
607.538
595.884
584.564
573.658
563.168
553.466
544.855
537.545
531.582
526.935
523.561
521.534
520.732
520.772
521.881
523.904
526.774
530.404
534.71
539.61
545.025
550.886
557.129
563.693
570.525
577.577
584.811
592.195
599.706
607.335
615.042
622.807
630.615
638.449
646.291
654.117
661.889
669.634
677.363
685.073
692.752
700.389
707.978
715.512
722.984
730.388
737.719
744.977
752.143
759.204
766.153
772.988
779.704
786.295
792.757
799.084
805.274
811.321
817.22
822.967
828.559
833.993
839.264
844.367
849.3
854.061
858.645
863.051
867.275
871.315
875.168
878.83
882.302
885.58
888.663
891.551
894.243
896.736
899.03
901.123
903.015
904.705
906.194
907.481
908.567
909.452
910.136
910.619
910.89
910.961
910.842
910.524
910.008
909.298
908.394
907.3
906.018
904.55
902.902
901.076
899.076
896.907
894.572
892.076
889.423
886.617
883.663
880.566
877.33
873.96
870.461
866.84
863.103
859.257
855.308
851.262
847.126
842.908
838.614
834.251
829.826
825.345
820.813
816.239
811.628
806.986
802.318
797.632
792.933
788.229
783.529
778.841
774.176
769.544
764.959
760.434
755.993
751.665
747.478
743.505
739.73
735.841
11463.3
2496.15
887.502
518.914
385.52
323.525
289.175
268.718
255.004
244.84
236.812
230.422
225.764
223.633
223.857
227.824
235.763
246.969
261.662
282.029
308.493
340.097
375.123
411.397
447.02
480.881
512.11
539.671
564.689
587.775
602.065
606.558
605.326
600.028
591.586
582.224
572.697
563.701
555.089
546.798
538.672
530.784
523.305
516.526
510.678
505.899
502.236
499.693
498.425
498.108
498.769
500.392
502.951
506.376
510.605
515.561
521.172
527.367
534.08
541.25
548.836
556.776
564.999
573.459
582.112
590.914
599.804
608.704
617.681
626.729
635.828
644.958
654.094
663.218
672.332
681.413
690.448
699.435
708.352
717.19
725.945
734.612
743.185
751.658
760.021
768.262
776.371
784.342
792.169
799.848
807.377
814.751
821.963
829.009
835.886
842.588
849.113
855.457
861.617
867.589
873.367
878.948
884.33
889.509
894.484
899.253
903.811
908.158
912.29
916.206
919.903
923.38
926.636
929.671
932.485
935.075
937.441
939.581
941.497
943.187
944.652
945.892
946.909
947.702
948.272
948.615
948.729
948.625
948.303
947.762
947.005
946.032
944.848
943.455
941.856
940.054
938.054
935.86
933.476
930.907
928.158
925.232
922.135
918.873
915.45
911.873
908.146
904.275
900.267
896.126
891.86
887.477
882.984
878.388
873.699
868.923
864.07
859.147
854.159
849.113
844.015
838.873
833.693
828.482
823.247
817.995
812.735
807.474
802.221
796.983
791.771
786.595
781.467
776.401
771.416
766.535
761.782
757.214
752.803
748.052
11463.3
2079.01
787.578
487.999
377.904
324.915
297.044
280.615
270.011
262.708
257.639
254.904
254.273
256.464
262.168
271.474
283.865
299.038
317.893
340.105
364.842
391.002
417.518
443.502
468.256
490.962
512.238
532.574
547.866
554.919
556.669
556.14
552.247
546.653
540.226
533.753
527.46
521.409
515.477
509.611
503.821
498.245
493.09
488.588
484.919
482.189
480.581
480.004
480.333
481.674
483.967
487.185
491.296
496.271
502.081
508.608
515.787
523.552
531.832
540.544
549.557
558.856
568.474
578.38
588.534
598.895
609.43
620.135
630.93
641.77
652.621
663.467
674.259
684.959
695.553
706.022
716.351
726.534
736.591
746.53
756.355
766.066
775.661
785.131
794.464
803.645
812.66
821.499
830.155
838.628
846.914
855.008
862.906
870.6
878.087
885.365
892.43
899.28
905.912
912.321
918.504
924.456
930.175
935.659
940.908
945.92
950.692
955.223
959.511
963.553
967.35
970.899
974.202
977.257
980.065
982.626
984.937
987
988.815
990.382
991.702
992.774
993.601
994.183
994.52
994.612
994.458
994.062
993.428
992.556
991.449
990.111
988.544
986.751
984.736
982.503
980.057
977.402
974.544
971.486
968.234
964.794
961.171
957.371
953.4
949.265
944.972
940.527
935.937
931.207
926.347
921.361
916.259
911.053
905.751
900.362
894.895
889.357
883.754
878.093
872.378
866.619
860.821
854.992
849.143
843.281
837.416
831.556
825.707
819.879
814.08
808.32
802.61
796.964
791.4
785.938
780.594
775.416
770.383
764.832
11463.3
1943.46
769.73
484.563
380.127
333.404
309.553
296.164
288.192
283.667
281.809
281.749
284.465
290.046
298.478
309.493
322.788
338.389
355.867
374.636
394.144
413.633
432.526
450.528
467.964
485.019
499.15
507.831
512.043
513.55
513.608
511.824
508.746
505.064
501.145
497.199
493.26
489.316
485.348
481.398
477.572
474.038
470.985
468.597
467.129
466.594
466.972
468.483
470.948
474.345
478.649
483.827
489.822
496.523
503.805
511.815
520.539
529.922
539.903
550.423
561.457
572.944
584.804
596.985
609.437
622.104
634.93
647.883
660.874
673.805
686.605
699.201
711.572
723.704
735.585
747.212
758.593
769.752
780.729
791.554
802.24
812.797
823.232
833.532
843.676
853.639
863.396
872.937
882.256
891.353
900.225
908.868
917.275
925.438
933.354
941.021
948.437
955.599
962.507
969.156
975.543
981.664
987.517
993.102
998.419
1003.47
1008.25
1012.76
1017
1020.96
1024.66
1028.08
1031.23
1034.11
1036.72
1039.06
1041.13
1042.94
1044.47
1045.73
1046.74
1047.47
1047.94
1048.14
1048.08
1047.77
1047.19
1046.35
1045.26
1043.92
1042.32
1040.48
1038.4
1036.08
1033.53
1030.74
1027.74
1024.51
1021.06
1017.41
1013.55
1009.5
1005.25
1000.82
996.214
991.433
986.489
981.389
976.14
970.748
965.222
959.563
953.788
947.909
941.937
935.879
929.743
923.538
917.268
910.941
904.561
898.137
891.674
885.184
878.677
872.165
865.656
859.158
852.677
846.221
839.798
833.417
827.091
820.834
814.661
808.591
802.635
796.832
791.183
784.881
11463.3
1884.5
746.705
482.492
387.741
345.418
324.502
313.297
307.251
304.555
303.978
305.843
310.336
317.12
325.919
336.407
348.319
361.379
375.215
389.426
403.577
417.52
431.429
445.088
456.858
465.089
470.874
474.784
476.91
477.775
477.929
477.215
475.92
474.304
472.5
470.574
468.562
466.511
464.5
462.675
461.269
460.428
460.153
460.567
461.832
463.926
466.769
470.162
474.442
479.702
485.948
493.158
501.296
510.348
520.329
531.151
542.781
555.14
568.148
581.737
595.849
610.399
625.295
640.461
655.859
671.396
686.925
702.312
717.464
732.321
746.814
760.883
774.495
787.635
800.306
812.513
824.311
835.777
847.021
858.134
869.118
880.002
890.808
901.513
912.07
922.432
932.543
942.406
952.019
961.378
970.479
979.316
987.879
996.162
1004.16
1011.87
1019.29
1026.42
1033.26
1039.81
1046.06
1052.02
1057.67
1063.03
1068.09
1072.85
1077.32
1081.5
1085.38
1088.97
1092.26
1095.26
1097.98
1100.4
1102.54
1104.4
1105.98
1107.27
1108.28
1109
1109.45
1109.6
1109.49
1109.11
1108.43
1107.49
1106.28
1104.81
1103.07
1101.08
1098.83
1096.32
1093.56
1090.56
1087.31
1083.83
1080.12
1076.18
1072.03
1067.66
1063.07
1058.29
1053.31
1048.15
1042.8
1037.28
1031.59
1025.74
1019.75
1013.62
1007.35
1000.95
994.438
987.827
981.128
974.346
967.489
960.563
953.576
946.534
939.444
932.311
925.139
917.947
910.747
903.55
896.363
889.194
882.048
874.933
867.853
860.821
853.849
846.954
840.149
833.45
826.865
820.426
814.165
807.153
11463.3
1851.27
744.419
489.062
399.015
359.166
339.548
329.148
323.788
321.597
321.312
323.664
328.281
334.648
342.35
351.047
360.532
370.574
380.929
391.377
402.091
412.48
421.427
428.788
434.823
440.039
444.174
447.431
449.998
452.068
453.812
455.314
456.537
457.513
458.309
458.987
459.611
460.252
460.975
461.809
462.653
463.891
465.873
468.85
472.917
477.987
484.06
491.258
499.525
508.884
519.343
530.859
543.378
556.866
571.294
586.598
602.832
619.753
637.217
655.112
673.33
691.76
710.285
728.786
747.111
765.156
782.854
800.097
816.773
832.777
848.005
862.434
876.064
888.931
901.069
912.44
923.205
933.519
943.67
953.922
964.12
974.326
984.637
994.958
1005.18
1015.24
1025.09
1034.7
1044.05
1053.12
1061.91
1070.42
1078.63
1086.52
1094.1
1101.35
1108.28
1114.89
1121.18
1127.16
1132.8
1138.13
1143.12
1147.79
1152.14
1156.18
1159.9
1163.31
1166.41
1169.21
1171.69
1173.88
1175.76
1177.34
1178.62
1179.64
1180.37
1180.8
1180.92
1180.78
1180.36
1179.62
1178.61
1177.33
1175.77
1173.93
1171.83
1169.46
1166.83
1163.94
1160.8
1157.39
1153.74
1149.84
1145.7
1141.33
1136.73
1131.9
1126.85
1121.59
1116.12
1110.46
1104.59
1098.55
1092.32
1085.92
1079.36
1072.65
1065.79
1058.8
1051.69
1044.48
1037.17
1029.78
1022.3
1014.74
1007.11
999.417
991.664
983.861
976.016
968.135
960.218
952.294
944.373
936.463
928.571
920.702
912.864
905.064
897.302
889.594
881.957
874.406
866.953
859.612
852.389
845.306
838.436
830.753
11463.3
1828.23
743.843
497.307
409.05
370.285
351.437
341.05
335.499
333.157
332.732
334.669
338.559
343.827
350.055
356.986
364.506
372.501
380.762
388.747
396.372
403.552
410.544
417.064
423.212
429.061
434.58
439.793
444.671
449.178
453.25
456.676
459.757
462.718
465.658
468.659
471.814
475.22
478.984
483.235
488.218
494.094
501.074
509.441
519.121
529.901
541.815
554.923
569.172
584.568
601.235
618.974
637.599
656.976
676.975
697.447
718.163
739.106
760.179
781.27
802.268
823.064
843.556
863.647
883.243
902.262
920.638
938.293
955.14
971.072
985.877
999.663
1012.52
1024.56
1035.85
1046.46
1056.41
1065.72
1074.56
1083.07
1091.39
1099.83
1108.82
1117.96
1127.05
1135.98
1144.73
1153.25
1161.49
1169.45
1177.11
1184.48
1191.54
1198.26
1204.65
1210.69
1216.38
1221.75
1226.78
1231.49
1235.86
1239.88
1243.57
1246.92
1249.94
1252.65
1255.04
1257.12
1258.89
1260.37
1261.54
1262.4
1262.97
1263.24
1263.21
1262.96
1262.41
1261.57
1260.45
1259.06
1257.39
1255.45
1253.25
1250.78
1248.05
1245.06
1241.82
1238.32
1234.57
1230.57
1226.33
1221.84
1217.11
1212.15
1206.96
1201.55
1195.92
1190.07
1184.02
1177.76
1171.31
1164.67
1157.84
1150.83
1143.65
1136.32
1128.83
1121.19
1113.42
1105.53
1097.51
1089.42
1081.25
1072.99
1064.65
1056.24
1047.76
1039.22
1030.63
1021.99
1013.32
1004.64
995.962
987.291
978.632
969.99
961.372
952.784
944.233
935.727
927.267
918.873
910.563
902.351
894.244
886.257
878.393
870.666
863.194
854.879
11463.3
1814.87
746.26
502.728
415.69
377.972
359.345
348.787
343.083
340.6
340.069
341.735
345.278
350.185
356.033
362.598
369.688
377.149
384.873
393.003
401.082
409.035
416.998
424.901
432.806
440.737
448.712
456.729
464.647
472.462
480.239
488.096
496.094
504.293
512.792
521.692
531.11
541.164
551.975
563.674
576.412
590.236
605.142
620.996
637.739
655.503
674.333
694.27
715.22
736.993
759.325
782.362
805.867
829.589
853.346
876.966
900.29
923.211
945.622
967.422
988.543
1008.93
1028.55
1047.37
1065.36
1082.51
1098.81
1114.25
1128.82
1142.54
1155.44
1167.42
1178.53
1188.97
1198.85
1208.27
1217.1
1225.27
1232.74
1239.5
1245.99
1252.81
1259.85
1266.81
1273.61
1280.19
1286.52
1292.61
1298.43
1303.98
1309.28
1314.29
1319.02
1323.43
1327.53
1331.3
1334.77
1337.93
1340.8
1343.37
1345.63
1347.57
1349.21
1350.54
1351.58
1352.35
1352.84
1353.03
1352.96
1352.67
1352.07
1351.21
1350.09
1348.73
1347.11
1345.26
1343.17
1340.84
1338.26
1335.43
1332.37
1329.08
1325.55
1321.79
1317.81
1313.59
1309.15
1304.49
1299.6
1294.49
1289.16
1283.61
1277.85
1271.87
1265.7
1259.32
1252.74
1245.98
1239.02
1231.88
1224.55
1217.06
1209.39
1201.56
1193.57
1185.43
1177.15
1168.74
1160.19
1151.53
1142.74
1133.86
1124.88
1115.82
1106.67
1097.45
1088.15
1078.81
1069.41
1059.97
1050.51
1041.03
1031.58
1022.14
1012.72
1003.31
993.933
984.591
975.295
966.054
956.894
947.824
938.852
929.984
921.231
912.604
904.109
895.751
887.688
878.793
11463.3
1802.88
747.97
505.858
419.259
383.666
365.629
355.757
351.487
349.985
350.489
353.529
358.314
364.423
371.835
380.715
390.19
400.185
411.178
423.338
436.013
449.094
462.846
477.276
492.364
508.046
524.298
541.014
558.242
575.941
594.152
612.873
632.075
651.704
671.828
692.504
713.87
736.093
759.232
783.228
807.995
833.426
859.369
885.647
912.167
938.954
966.047
993.794
1021.93
1049.74
1076.79
1102.67
1127.38
1150.96
1173.34
1194.49
1214.35
1232.89
1250.12
1266.1
1280.87
1294.5
1307.03
1318.55
1329.08
1338.68
1347.41
1355.33
1362.52
1369.07
1375.36
1381.38
1387.13
1392.54
1397.57
1402.2
1406.3
1409.91
1413.33
1416.84
1420.76
1424.71
1428.08
1431.03
1433.69
1436.13
1438.41
1440.53
1442.49
1444.28
1445.9
1447.32
1448.54
1449.54
1450.31
1450.87
1451.21
1451.33
1451.26
1450.96
1450.42
1449.65
1448.65
1447.44
1446.02
1444.41
1442.59
1440.57
1438.35
1435.94
1433.33
1430.53
1427.54
1424.36