/*--------------------------------*- C++ -*----------------------------------*\
  =========                 |
  \\      /  F ield         | OpenFOAM: The Open Source CFD Toolbox
   \\    /   O peration     | Website:  https://openfoam.org
    \\  /    A nd           | Version:  8
     \\/     M anipulation  |
\*---------------------------------------------------------------------------*/
FoamFile
{
    version     2.0;
    format      ascii;
    class       volScalarField;
    location    "2000";
    object      p;
}
// * * * * * * * * * * * * * * * * * * * * * * * * * * * * * * * * * * * * * //

dimensions      [0 2 -2 0 0 0 0];

internalField   nonuniform List<scalar> 
12225
(
-4.19143
-5.07571
-5.46346
-5.59323
-5.73195
-5.8839
-6.01115
-6.11226
-6.20112
-6.28622
-6.3646
-6.43586
-6.49981
-6.56382
-6.6292
-6.69624
-6.77994
-6.87224
-4.45849
-5.09959
-5.42654
-5.55376
-5.69151
-5.84112
-5.97215
-6.07947
-6.16858
-6.25579
-6.3406
-6.41253
-6.4761
-6.53894
-6.60775
-6.67781
-6.74986
-6.81507
-4.66634
-5.10101
-5.41128
-5.56243
-5.70168
-5.84653
-5.9745
-6.08076
-6.17126
-6.25789
-6.33956
-6.40871
-6.4706
-6.53231
-6.5985
-6.66497
-6.72831
-6.78033
-4.8144
-5.12903
-5.42235
-5.58053
-5.71028
-5.84468
-5.96705
-6.07098
-6.16118
-6.24566
-6.32421
-6.39297
-6.45591
-6.51794
-6.58157
-6.64372
-6.70116
-6.74867
-4.9423
-5.17782
-5.44029
-5.59701
-5.72006
-5.84687
-5.9651
-6.06703
-6.15616
-6.23846
-6.31478
-6.38335
-6.44663
-6.50775
-6.56819
-6.62609
-6.67897
-6.72302
-5.05944
-5.2334
-5.45859
-5.61166
-5.73119
-5.85141
-5.9648
-6.06387
-6.15115
-6.23136
-6.30579
-6.37364
-6.43636
-6.49597
-6.5535
-6.60784
-6.65707
-6.69859
-5.16624
-5.2924
-5.48097
-5.62711
-5.74277
-5.856
-5.96384
-6.05973
-6.14504
-6.22339
-6.29607
-6.36285
-6.4246
-6.48267
-6.53774
-6.58912
-6.63547
-6.67523
-5.24874
-5.34478
-5.50493
-5.64208
-5.75337
-5.86051
-5.96327
-6.05611
-6.13943
-6.21603
-6.28709
-6.35265
-6.4133
-6.46998
-6.52314
-6.57235
-6.61674
-6.65528
-5.316
-5.39184
-5.52879
-5.65652
-5.76345
-5.86522
-5.96329
-6.05314
-6.13446
-6.20932
-6.27882
-6.34313
-6.40264
-6.45802
-6.50958
-6.55706
-6.59996
-6.63759
-5.38296
-5.44242
-5.55702
-5.67358
-5.77515
-5.87114
-5.96401
-6.05035
-6.12926
-6.20207
-6.26975
-6.33253
-6.39066
-6.44458
-6.4945
-6.54033
-6.58181
-6.61854
-5.44878
-5.49509
-5.58933
-5.69341
-5.78847
-5.87836
-5.96561
-6.04791
-6.12395
-6.1944
-6.25998
-6.32095
-6.37747
-6.42978
-6.47806
-6.52231
-6.56247
-6.59832
-5.51222
-5.54833
-5.62489
-5.71589
-5.80335
-5.88684
-5.9682
-6.04594
-6.11867
-6.1864
-6.24961
-6.30852
-6.36321
-6.41381
-6.46046
-6.50321
-6.54212
-6.57711
-5.57214
-5.60041
-5.66223
-5.74041
-5.8195
-5.89635
-5.97167
-6.04451
-6.11347
-6.17818
-6.23878
-6.29542
-6.34811
-6.39692
-6.44194
-6.48325
-6.52097
-6.55512
-5.62688
-5.6493
-5.6993
-5.76575
-5.83623
-5.90634
-5.97569
-6.04345
-6.1084
-6.16983
-6.22765
-6.28187
-6.33245
-6.37942
-6.42283
-6.46277
-6.49937
-6.53272
-5.67449
-5.69259
-5.7335
-5.78995
-5.85229
-5.9159
-5.97957
-6.04241
-6.10329
-6.16138
-6.21637
-6.26812
-6.31659
-6.36173
-6.40359
-6.44224
-6.47782
-6.51042
-5.71217
-5.72722
-5.76158
-5.81025
-5.86568
-5.92355
-5.98222
-6.04065
-6.09776
-6.1527
-6.20501
-6.25445
-6.30092
-6.34437
-6.38481
-6.4223
-6.45697
-6.48892
-5.73598
-5.74912
-5.77934
-5.82285
-5.87339
-5.92699
-5.98187
-6.03691
-6.09105
-6.14343
-6.19353
-6.24106
-6.28588
-6.32792
-6.36719
-6.40375
-6.43769
-6.46914
-5.7396
-5.75213
-5.78105
-5.82282
-5.8715
-5.92333
-5.97652
-6.03
-6.08268
-6.13374
-6.18263
-6.22908
-6.27293
-6.31415
-6.35272
-6.38871
-6.42221
-6.45337
-5.72267
-5.73592
-5.76639
-5.8099
-5.85996
-5.91269
-5.96653
-6.02045
-6.07342
-6.12458
-6.17346
-6.21979
-6.26349
-6.30451
-6.3429
-6.37872
-6.41209
-6.44317
-5.69043
-5.70559
-5.74011
-5.78829
-5.84217
-5.89778
-5.95396
-6.00988
-6.06441
-6.11673
-6.16642
-6.21335
-6.25744
-6.29873
-6.33726
-6.37317
-6.40659
-6.43772
-5.64613
-5.66456
-5.70589
-5.76137
-5.82086
-5.88064
-5.94039
-5.99936
-6.05629
-6.11039
-6.16143
-6.20936
-6.25419
-6.29598
-6.33484
-6.37097
-6.40452
-6.43574
-5.59166
-5.61523
-5.66668
-5.73192
-5.79808
-5.8628
-5.92696
-5.98971
-6.04953
-6.10577
-6.15843
-6.20758
-6.2533
-6.29568
-6.33494
-6.3713
-6.40499
-6.43629
-5.52792
-5.55949
-5.62523
-5.7022
-5.77533
-5.84536
-5.91458
-5.98152
-6.0444
-6.10291
-6.15731
-6.20779
-6.25442
-6.29741
-6.33703
-6.37359
-6.40735
-6.43865
-5.45504
-5.49919
-5.58437
-5.67402
-5.75348
-5.82912
-5.90393
-5.97518
-6.04101
-6.1017
-6.15782
-6.20957
-6.25707
-6.3006
-6.34051
-6.3772
-6.41098
-6.44225
-5.37256
-5.43605
-5.54695
-5.64882
-5.73308
-5.81439
-5.89515
-5.97062
-6.0392
-6.10194
-6.15967
-6.21255
-6.26077
-6.30467
-6.34471
-6.38135
-6.415
-6.44612
-5.27988
-5.37169
-5.51417
-5.62683
-5.71456
-5.80139
-5.88772
-5.96689
-6.03795
-6.10267
-6.16202
-6.21609
-6.26508
-6.30943
-6.34964
-6.38627
-6.41983
-6.45098
-5.17659
-5.31
-5.48329
-5.60293
-5.69549
-5.7897
-5.88181
-5.96432
-6.03757
-6.10399
-6.16456
-6.21935
-6.26867
-6.31301
-6.353
-6.38929
-6.4225
-6.4534
-5.05346
-5.26517
-5.45963
-5.57327
-5.67015
-5.77513
-5.87561
-5.96357
-6.04097
-6.11075
-6.17374
-6.23006
-6.28013
-6.32463
-6.36424
-6.39987
-6.43258
-6.46379
-4.86967
-5.2432
-5.46982
-5.56617
-5.65769
-5.76643
-5.86988
-5.95922
-6.03786
-6.10913
-6.17357
-6.23109
-6.282
-6.32691
-6.36643
-6.40115
-6.43226
-6.46098
-4.60501
-5.16694
-5.45861
-5.56585
-5.66558
-5.78299
-5.89208
-5.98404
-6.06376
-6.13555
-6.20033
-6.25808
-6.30888
-6.35332
-6.39197
-6.4246
-6.45174
-6.4736
-7.39888
-7.39899
-7.39905
-7.39905
-7.39876
-7.39753
-7.39497
-7.39158
-7.38834
-7.38628
-7.38639
-7.38885
-7.39318
-7.39857
-7.40426
-7.40956
-7.41392
-7.41692
-7.41853
-7.41911
-7.41895
-7.41824
-7.41723
-7.41622
-7.41544
-7.41498
-7.4148
-7.4147
-7.41451
-7.41414
-7.41361
-7.41292
-7.41203
-7.41084
-7.40945
-7.40811
-7.40749
-7.40827
-7.41055
-7.41362
-7.41652
-7.41873
-7.42041
-7.422
-7.42394
-7.42678
-7.43024
-7.43324
-7.4354
-7.43868
-7.44687
-7.46411
-7.49049
-7.52468
-7.5664
-7.61671
-7.67553
-7.74118
-7.81158
-7.88492
-7.95909
-8.03203
-8.10262
-8.16993
-8.23294
-8.29126
-8.34477
-8.3934
-8.4372
-8.47627
-8.51071
-8.54061
-8.56605
-8.58709
-8.60376
-8.61608
-8.62402
-8.62759
-8.62673
-8.6214
-8.61155
-8.59711
-8.578
-8.55416
-8.52552
-8.492
-8.45354
-8.41011
-8.36165
-8.30812
-8.24942
-8.18546
-8.11619
-8.04154
-7.96148
-7.87597
-7.785
-7.68867
-7.58711
-7.48029
-7.36776
-7.24938
-7.12537
-6.99582
-6.86077
-6.72025
-6.5743
-6.42295
-6.26626
-6.10427
-5.93703
-5.76462
-5.5871
-5.40457
-5.21709
-5.02479
-4.82775
-4.6261
-4.41995
-4.20943
-3.99467
-3.77583
-3.55305
-3.3265
-3.09633
-2.86274
-2.62589
-2.38598
-2.14321
-1.89779
-1.64992
-1.39984
-1.14778
-0.893987
-0.638698
-0.382228
-0.124805
0.133668
0.393093
0.653056
0.913298
1.17358
1.43368
1.69337
1.95245
2.21071
2.46796
2.72402
2.97871
3.23185
3.48328
3.73285
3.98037
4.22572
4.46873
4.70928
4.94727
5.18257
5.4151
5.64478
5.87152
6.09524
6.31585
6.53329
6.74746
6.95827
7.16566
7.36954
7.56984
7.76648
7.95936
8.14841
8.33351
8.51458
8.6915
8.86423
9.03307
9.1979
9.36175
9.51599
-7.4001
-7.4003
-7.40067
-7.40106
-7.40106
-7.40022
-7.39827
-7.39576
-7.39397
-7.39384
-7.39567
-7.3993
-7.40421
-7.40973
-7.41525
-7.42027
-7.42441
-7.42748
-7.42928
-7.42961
-7.42857
-7.42649
-7.42382
-7.42103
-7.41857
-7.4167
-7.41546
-7.41465
-7.41401
-7.41341
-7.41283
-7.41227
-7.41166
-7.41089
-7.40994
-7.40923
-7.40951
-7.41129
-7.41431
-7.41756
-7.41986
-7.42078
-7.42077
-7.4199
-7.41836
-7.41771
-7.42036
-7.42673
-7.4332
-7.43985
-7.45026
-7.46575
-7.48777
-7.51959
-7.56365
-7.61924
-7.68362
-7.75422
-7.82872
-7.90453
-7.97931
-8.05197
-8.12124
-8.1859
-8.24591
-8.3013
-8.35202
-8.39816
-8.43981
-8.47707
-8.51002
-8.53873
-8.56324
-8.58357
-8.59973
-8.6117
-8.61944
-8.62292
-8.62208
-8.61685
-8.60717
-8.59297
-8.57417
-8.5507
-8.52247
-8.4894
-8.45145
-8.40855
-8.36066
-8.30773
-8.24968
-8.18642
-8.11789
-8.04403
-7.96478
-7.88009
-7.78993
-7.69423
-7.59291
-7.48588
-7.37341
-7.25564
-7.13243
-7.00374
-6.86956
-6.72993
-6.58487
-6.43442
-6.27862
-6.11751
-5.95116
-5.77963
-5.60299
-5.42133
-5.23472
-5.04326
-4.84706
-4.64623
-4.44089
-4.23116
-4.01718
-3.79909
-3.57705
-3.3512
-3.12172
-2.88879
-2.65257
-2.41327
-2.17107
-1.92617
-1.67879
-1.42917
-1.1775
-0.923997
-0.668824
-0.412153
-0.154236
0.104453
0.363701
0.623489
0.883574
1.14373
1.40373
1.66336
1.92241
2.18066
2.43794
2.69405
2.94881
3.20206
3.45362
3.70334
3.95105
4.19659
4.43983
4.68063
4.91886
5.15444
5.38725
5.61721
5.84424
6.06826
6.28919
6.50694
6.72144
6.93259
7.14032
7.34456
7.54522
7.74223
7.93551
8.12498
8.31057
8.49223
8.66986
8.84341
9.01306
9.17824
9.34414
9.49771
-7.40141
-7.40141
-7.40145
-7.40153
-7.40162
-7.40164
-7.40185
-7.40275
-7.40484
-7.40825
-7.41279
-7.41809
-7.42372
-7.42926
-7.43432
-7.43859
-7.44189
-7.4441
-7.44513
-7.44494
-7.44354
-7.44108
-7.43772
-7.43368
-7.42922
-7.42462
-7.42017
-7.41615
-7.41276
-7.41008
-7.40807
-7.40648
-7.40505
-7.4038
-7.40322
-7.40403
-7.40679
-7.41124
-7.41591
-7.41893
-7.41894
-7.4168
-7.4146
-7.41392
-7.41437
-7.41584
-7.4208
-7.43068
-7.44477
-7.46357
-7.48799
-7.51818
-7.55464
-7.598
-7.64842
-7.70487
-7.76571
-7.82942
-7.89465
-7.96003
-8.02441
-8.08704
-8.14723
-8.20431
-8.25799
-8.30812
-8.35455
-8.39723
-8.43612
-8.4712
-8.50246
-8.52988
-8.55342
-8.57305
-8.58873
-8.6004
-8.608
-8.61146
-8.61072
-8.60568
-8.59628
-8.58244
-8.56406
-8.54107
-8.51338
-8.48092
-8.4436
-8.40137
-8.35419
-8.302
-8.2447
-8.18224
-8.11454
-8.04153
-7.96317
-7.87942
-7.79026
-7.69566
-7.59552
-7.48977
-7.37848
-7.26178
-7.13963
-7.01203
-6.87896
-6.74045
-6.59651
-6.4472
-6.29254
-6.13258
-5.96737
-5.79699
-5.6215
-5.44097
-5.25549
-5.06516
-4.87007
-4.67034
-4.46608
-4.25742
-4.04449
-3.82742
-3.60638
-3.38151
-3.15298
-2.92095
-2.68562
-2.44716
-2.20577
-1.96165
-1.71501
-1.46608
-1.21507
-0.962192
-0.70764
-0.451587
-0.194265
0.0639463
0.322817
0.582242
0.841994
1.10185
1.3616
1.62101
1.87988
2.13799
2.39516
2.6512
2.90592
3.15916
3.41074
3.66051
3.9083
4.15395
4.39732
4.63827
4.87668
5.11243
5.34543
5.57559
5.80281
6.02703
6.24816
6.46611
6.6808
6.89215
7.10007
7.3045
7.50534
7.70252
7.89598
8.08563
8.27137
8.45313
8.63092
8.80474
8.97512
9.14092
9.30955
9.45908
-7.40254
-7.40226
-7.40189
-7.40191
-7.4031
-7.40585
-7.40997
-7.41508
-7.42085
-7.42696
-7.43312
-7.43908
-7.44461
-7.44952
-7.45366
-7.45687
-7.45906
-7.46016
-7.46016
-7.459
-7.45673
-7.4534
-7.4491
-7.44394
-7.43799
-7.43141
-7.42438
-7.4172
-7.41023
-7.40385
-7.39832
-7.39386
-7.3907
-7.38934
-7.39054
-7.39456
-7.40036
-7.40589
-7.40955
-7.41095
-7.41067
-7.41022
-7.41122
-7.41446
-7.42046
-7.43
-7.44398
-7.46307
-7.48742
-7.51667
-7.55035
-7.58816
-7.62991
-7.6754
-7.72444
-7.77658
-7.83122
-7.88763
-7.94503
-8.00259
-8.05954
-8.11524
-8.16912
-8.22075
-8.26978
-8.31596
-8.3591
-8.39907
-8.43575
-8.46905
-8.4989
-8.52522
-8.54793
-8.56697
-8.58223
-8.59366
-8.60114
-8.60461
-8.60396
-8.59912
-8.58998
-8.57646
-8.55848
-8.53594
-8.50876
-8.47684
-8.44011
-8.39851
-8.35199
-8.30047
-8.24389
-8.18215
-8.1152
-8.04297
-7.9654
-7.88245
-7.79409
-7.70029
-7.60101
-7.49622
-7.38596
-7.27026
-7.14911
-7.02251
-6.89046
-6.75298
-6.6101
-6.46183
-6.30823
-6.14933
-5.9852
-5.81588
-5.64146
-5.46199
-5.27758
-5.0883
-4.89426
-4.69557
-4.49233
-4.28467
-4.07273
-3.85664
-3.63655
-3.41261
-3.18498
-2.95383
-2.71934
-2.4817
-2.24108
-1.9977
-1.75178
-1.50352
-1.25314
-1.00086
-0.746876
-0.491392
-0.234644
0.0230865
0.281577
0.540651
0.800085
1.05966
1.31916
1.57836
1.83705
2.09503
2.35209
2.60805
2.86273
3.11596
3.36755
3.61736
3.86521
4.11095
4.35444
4.59552
4.83407
5.06998
5.30315
5.53348
5.76088
5.98527
6.20657
6.4247
6.63956
6.85108
7.05916
7.26373
7.46471
7.66203
7.85561
8.04538
8.23126
8.41322
8.59126
8.76534
8.93616
9.10196
9.27134
9.41466
-7.40486
-7.40426
-7.40387
-7.40533
-7.40962
-7.416
-7.4234
-7.4311
-7.43865
-7.44571
-7.45215
-7.45789
-7.46289
-7.46707
-7.47036
-7.47267
-7.47394
-7.47411
-7.47316
-7.47106
-7.46783
-7.46351
-7.45813
-7.45175
-7.44444
-7.43628
-7.42734
-7.41784
-7.40811
-7.39867
-7.39013
-7.38331
-7.37919
-7.37874
-7.38192
-7.3869
-7.39194
-7.39625
-7.39963
-7.40249
-7.40565
-7.41024
-7.41726
-7.4277
-7.44242
-7.46174
-7.4853
-7.51251
-7.54312
-7.57676
-7.61319
-7.65234
-7.69417
-7.73862
-7.78547
-7.83438
-7.88491
-7.93653
-7.98868
-8.0408
-8.09237
-8.14291
-8.19199
-8.23927
-8.28444
-8.32725
-8.36751
-8.40504
-8.43969
-8.47133
-8.49983
-8.52507
-8.54694
-8.56533
-8.58013
-8.59123
-8.59852
-8.6019
-8.60126
-8.5965
-8.58752
-8.57423
-8.55653
-8.53432
-8.50751
-8.47602
-8.43975
-8.39865
-8.35263
-8.30167
-8.24565
-8.18451
-8.11817
-8.04657
-7.96966
-7.88739
-7.79974
-7.70666
-7.60812
-7.50412
-7.39467
-7.27978
-7.15945
-7.03366
-6.90245
-6.7658
-6.62376
-6.47635
-6.3236
-6.16557
-6.00231
-5.83386
-5.66031
-5.48172
-5.29816
-5.10975
-4.91656
-4.71871
-4.51631
-4.30948
-4.09835
-3.88305
-3.66373
-3.44054
-3.21364
-2.98321
-2.7494
-2.51241
-2.27242
-2.02965
-1.7843
-1.53658
-1.28671
-1.0349
-0.78135
-0.526284
-0.26994
-0.012568
0.245615
0.504407
0.763588
1.02294
1.28224
1.54127
1.79982
2.05768
2.31466
2.57056
2.82521
3.07842
3.33002
3.57986
3.82777
4.07358
4.31715
4.55833
4.797
5.03304
5.26635
5.49682
5.72437
5.94892
6.17037
6.38866
6.60367
6.81534
7.02358
7.2283
7.42944
7.62691
7.82065
8.01058
8.19663
8.37877
8.55698
8.73117
8.90198
9.06714
9.23599
9.37256
-7.40918
-7.40826
-7.4088
-7.41337
-7.42093
-7.42951
-7.43819
-7.4465
-7.45414
-7.46103
-7.46717
-7.47255
-7.4771
-7.48076
-7.48346
-7.48512
-7.48571
-7.48518
-7.48351
-7.48069
-7.47672
-7.47164
-7.46547
-7.45819
-7.44982
-7.44045
-7.43021
-7.4193
-7.40811
-7.39729
-7.3877
-7.38059
-7.37706
-7.37699
-7.37892
-7.38162
-7.38494
-7.38926
-7.39485
-7.40169
-7.41008
-7.4212
-7.43605
-7.4548
-7.47719
-7.50283
-7.53147
-7.56271
-7.59629
-7.63205
-7.66983
-7.70955
-7.75112
-7.79441
-7.83923
-7.88534
-7.93242
-7.9801
-8.02803
-8.07583
-8.12313
-8.16958
-8.21486
-8.25866
-8.30072
-8.34079
-8.37867
-8.41416
-8.44709
-8.47729
-8.5046
-8.52888
-8.54998
-8.56778
-8.58212
-8.59289
-8.59996
-8.6032
-8.60251
-8.59777
-8.58887
-8.57571
-8.55819
-8.5362
-8.50966
-8.47847
-8.44254
-8.40179
-8.35617
-8.3056
-8.25001
-8.18931
-8.12342
-8.0523
-7.97588
-7.89413
-7.807
-7.71448
-7.61651
-7.51311
-7.40426
-7.28997
-7.17023
-7.04506
-6.91446
-6.77844
-6.63703
-6.49026
-6.33816
-6.18078
-6.01817
-5.85039
-5.6775
-5.49957
-5.31667
-5.12891
-4.93638
-4.73917
-4.53741
-4.33121
-4.12069
-3.906
-3.68726
-3.46465
-3.23831
-3.0084
-2.77511
-2.53861
-2.29909
-2.05677
-1.81186
-1.56455
-1.31506
-1.0636
-0.810365
-0.555609
-0.299555
-0.0424421
0.21551
0.474091
0.733081
0.99226
1.25141
1.5103
1.76874
2.02651
2.28341
2.53926
2.79387
3.04706
3.29866
3.54852
3.79645
4.0423
4.28592
4.52716
4.76589
5.00201
5.2354
5.46597
5.69362
5.91826
6.13983
6.35822
6.57335
6.78513
6.99349
7.19833
7.39958
7.59717
7.79102
7.98106
8.16722
8.34943
8.52768
8.70176
8.87228
9.03646
9.20453
9.33451
-7.41452
-7.41408
-7.41688
-7.42422
-7.43313
-7.44198
-7.45041
-7.45828
-7.46553
-7.47212
-7.478
-7.4831
-7.48734
-7.49064
-7.49293
-7.49416
-7.49429
-7.49329
-7.49115
-7.48785
-7.48342
-7.47787
-7.47113
-7.46315
-7.45403
-7.44398
-7.4332
-7.42197
-7.41075
-7.40032
-7.39186
-7.38623
-7.38298
-7.38113
-7.38059
-7.38181
-7.38542
-7.39135
-7.3995
-7.41049
-7.42487
-7.44265
-7.46362
-7.48755
-7.51421
-7.54328
-7.57452
-7.6078
-7.64291
-7.67971
-7.71803
-7.75773
-7.79869
-7.84079
-7.88386
-7.92773
-7.97219
-8.01698
-8.06185
-8.10654
-8.15076
-8.19424
-8.23672
-8.27794
-8.31766
-8.35565
-8.39169
-8.42559
-8.45715
-8.4862
-8.51255
-8.53603
-8.55649
-8.57376
-8.5877
-8.59815
-8.60499
-8.60808
-8.60729
-8.60252
-8.59363
-8.58053
-8.56311
-8.54127
-8.51489
-8.4839
-8.44818
-8.40768
-8.36231
-8.31201
-8.2567
-8.19629
-8.13071
-8.05991
-7.98382
-7.90242
-7.81565
-7.7235
-7.62592
-7.52291
-7.41446
-7.30058
-7.18125
-7.0565
-6.92631
-6.79073
-6.64975
-6.50342
-6.35178
-6.19486
-6.03271
-5.86539
-5.69298
-5.51551
-5.3331
-5.14581
-4.95375
-4.75701
-4.55571
-4.34996
-4.1399
-3.92564
-3.70734
-3.48514
-3.2592
-3.02967
-2.79675
-2.5606
-2.32142
-2.07943
-1.83482
-1.5878
-1.33858
-1.08736
-0.834366
-0.579831
-0.323986
-0.0670598
0.190725
0.449154
0.708006
0.967059
1.22609
1.48489
1.74323
2.00092
2.25776
2.51356
2.76813
3.02129
3.27288
3.52273
3.77066
4.01651
4.26014
4.50139
4.74015
4.97629
5.20971
5.44031
5.66801
5.89272
6.11435
6.33281
6.548
6.75985
6.96827
7.17317
7.37449
7.57214
7.76606
7.95615
8.14235
8.32454
8.5027
8.67655
8.84661
9.00973
9.17703
9.3009
-7.41868
-7.41955
-7.42504
-7.43345
-7.44202
-7.45024
-7.4581
-7.46556
-7.47253
-7.47891
-7.48461
-7.48952
-7.49356
-7.49665
-7.49872
-7.49972
-7.49961
-7.49836
-7.49597
-7.49245
-7.48779
-7.48193
-7.47479
-7.46651
-7.45734
-7.44741
-7.43694
-7.42637
-7.41646
-7.40801
-7.40141
-7.39606
-7.39141
-7.38806
-7.38695
-7.38843
-7.39295
-7.40105
-7.41281
-7.42806
-7.44653
-7.46799
-7.49217
-7.51881
-7.54768
-7.57856
-7.61126
-7.64561
-7.68144
-7.71859
-7.75692
-7.79631
-7.83663
-7.87777
-7.91958
-7.96192
-8.00461
-8.04748
-8.09032
-8.13292
-8.17506
-8.21652
-8.25708
-8.2965
-8.33457
-8.37107
-8.4058
-8.43854
-8.46911
-8.49729
-8.52291
-8.54578
-8.56572
-8.58257
-8.59616
-8.60633
-8.61295
-8.61587
-8.61497
-8.61011
-8.60119
-8.58809
-8.5707
-8.54891
-8.52262
-8.49172
-8.45612
-8.41575
-8.37052
-8.32037
-8.26521
-8.20496
-8.13955
-8.06892
-7.99303
-7.91182
-7.82526
-7.73331
-7.63595
-7.53316
-7.42494
-7.31129
-7.1922
-7.06768
-6.93774
-6.80241
-6.6617
-6.51565
-6.36428
-6.20765
-6.04581
-5.8788
-5.70669
-5.52955
-5.34745
-5.16049
-4.96874
-4.77233
-4.57135
-4.36592
-4.15617
-3.94222
-3.72422
-3.5023
-3.27664
-3.04738
-2.8147
-2.57878
-2.33984
-2.09808
-1.85368
-1.60686
-1.35782
-1.10677
-0.85393
-0.599549
-0.343848
-0.0870506
0.170618
0.42894
0.687692
0.946653
1.2056
1.46432
1.72259
1.98022
2.237
2.49275
2.74727
3.0004
3.25197
3.5018
3.74971
3.99554
4.23914
4.48037
4.7191
4.95523
5.18865
5.41926
5.64697
5.8717
6.09336
6.31184
6.52705
6.73892
6.94736
7.15229
7.35363
7.55132
7.74526
7.93537
8.12154
8.30367
8.48167
8.6552
8.82474
8.98679
9.15339
9.27177
-7.41997
-7.42253
-7.42959
-7.43769
-7.44557
-7.45329
-7.46081
-7.46804
-7.47486
-7.48115
-7.48679
-7.49166
-7.49567
-7.49873
-7.50077
-7.50175
-7.50163
-7.50038
-7.498
-7.49447
-7.48976
-7.4838
-7.47668
-7.46864
-7.45987
-7.45059
-7.44126
-7.43238
-7.42437
-7.41728
-7.41088
-7.40502
-7.40002
-7.39685
-7.39643
-7.39936
-7.40601
-7.41647
-7.43047
-7.44781
-7.46821
-7.49138
-7.51708
-7.54503
-7.575
-7.6068
-7.64021
-7.67507
-7.71121
-7.74849
-7.78677
-7.82594
-7.86585
-7.90638
-7.94742
-7.98883
-8.03047
-8.07218
-8.11379
-8.15512
-8.19598
-8.23619
-8.27554
-8.31383
-8.35086
-8.38643
-8.42031
-8.4523
-8.4822
-8.50981
-8.53492
-8.55734
-8.5769
-8.59342
-8.60672
-8.61664
-8.62304
-8.62578
-8.62474
-8.61977
-8.61077
-8.59762
-8.58019
-8.55839
-8.53209
-8.5012
-8.46563
-8.42529
-8.3801
-8.33
-8.27488
-8.21468
-8.14932
-8.07875
-8.00291
-7.92176
-7.83526
-7.74337
-7.64608
-7.54335
-7.4352
-7.32162
-7.20262
-7.07819
-6.94836
-6.81313
-6.67255
-6.52663
-6.37541
-6.21894
-6.05726
-5.89044
-5.71851
-5.54156
-5.35966
-5.17289
-4.98135
-4.78515
-4.58437
-4.37916
-4.16961
-3.95587
-3.73805
-3.51633
-3.29084
-3.06175
-2.82923
-2.59347
-2.35468
-2.11306
-1.8688
-1.6221
-1.37318
-1.12223
-0.869501
-0.615223
-0.359615
-0.102905
0.154684
0.412931
0.67161
0.930499
1.18938
1.44803
1.70624
1.9638
2.22053
2.47622
2.73069
2.98377
3.2353
3.4851
3.73297
3.97875
4.2223
4.46347
4.70216
4.93824
5.17162
5.4022
5.62989
5.85462
6.07627
6.29475
6.50995
6.7218
6.93023
7.13515
7.33649
7.53418
7.72813
7.91821
8.10433
8.28635
8.46414
8.63731
8.8063
8.96731
9.13327
9.24686
-7.41681
-7.42077
-7.42799
-7.43553
-7.44309
-7.45063
-7.45806
-7.46526
-7.47212
-7.47851
-7.48429
-7.48934
-7.49354
-7.4968
-7.49905
-7.50022
-7.50027
-7.49918
-7.49692
-7.49349
-7.48887
-7.48309
-7.47632
-7.46885
-7.46093
-7.45289
-7.445
-7.43735
-7.43001
-7.4231
-7.41673
-7.41123
-7.40723
-7.4055
-7.40666
-7.41113
-7.41914
-7.43076
-7.44582
-7.46412
-7.4854
-7.50938
-7.53578
-7.56435
-7.59486
-7.62711
-7.6609
-7.69606
-7.73242
-7.76985
-7.8082
-7.84733
-7.88711
-7.92742
-7.96815
-8.00917
-8.05034
-8.09152
-8.13255
-8.17327
-8.21352
-8.25312
-8.29188
-8.32961
-8.36612
-8.40121
-8.43465
-8.46625
-8.49577
-8.52302
-8.54779
-8.56989
-8.58915
-8.60537
-8.61841
-8.62808
-8.63427
-8.63682
-8.63561
-8.63052
-8.62141
-8.60817
-8.59067
-8.5688
-8.54245
-8.51151
-8.47588
-8.4355
-8.39027
-8.34011
-8.28495
-8.2247
-8.15928
-8.08865
-8.01275
-7.93154
-7.84497
-7.75301
-7.65564
-7.55286
-7.44465
-7.33103
-7.21198
-7.08753
-6.95768
-6.82245
-6.68188
-6.53598
-6.38481
-6.22839
-6.06679
-5.90004
-5.7282
-5.55135
-5.36955
-5.18289
-4.99147
-4.79539
-4.59475
-4.38967
-4.18025
-3.96663
-3.74895
-3.52734
-3.30196
-3.07297
-2.84054
-2.60488
-2.36619
-2.12466
-1.88049
-1.63387
-1.38502
-1.13414
-0.881481
-0.62727
-0.371726
-0.115077
0.142455
0.400644
0.659264
0.918092
1.17691
1.43549
1.69363
1.95113
2.20779
2.46341
2.71781
2.97083
3.22232
3.47208
3.71989
3.9656
4.20906
4.45015
4.68875
4.92476
5.15807
5.38859
5.61624
5.84094
6.06257
6.28101
6.49617
6.70798
6.91637
7.12127
7.32259
7.52026
7.71419
7.90423
8.09026
8.27213
8.44968
8.62245
8.79088
8.9509
9.11625
9.22577
-7.4072
-7.41182
-7.41875
-7.42627
-7.43404
-7.44178
-7.44939
-7.45681
-7.46394
-7.47064
-7.47677
-7.48217
-7.48672
-7.4903
-7.49286
-7.49431
-7.49462
-7.49376
-7.49174
-7.48857
-7.4843
-7.47906
-7.47304
-7.46646
-7.45946
-7.45219
-7.44484
-7.43753
-7.43038
-7.42367
-7.41784
-7.4133
-7.41053
-7.41008
-7.41246
-7.41805
-7.42703
-7.43944
-7.45518
-7.47407
-7.49585
-7.52025
-7.54703
-7.57595
-7.6068
-7.63937
-7.67348
-7.70895
-7.74562
-7.78332
-7.8219
-7.86124
-7.90121
-7.94167
-7.98251
-8.02359
-8.06479
-8.10595
-8.14695
-8.18763
-8.22782
-8.26733
-8.30598
-8.34359
-8.37997
-8.4149
-8.44818
-8.47961
-8.50895
-8.536
-8.56056
-8.58244
-8.60145
-8.61742
-8.6302
-8.63963
-8.64559
-8.64794
-8.64656
-8.6413
-8.63206
-8.6187
-8.6011
-8.57913
-8.55268
-8.52162
-8.48588
-8.44537
-8.40001
-8.34974
-8.29443
-8.23404
-8.16848
-8.09771
-8.02165
-7.94028
-7.85354
-7.76141
-7.66387
-7.56093
-7.45257
-7.33881
-7.21964
-7.09507
-6.96512
-6.82981
-6.68917
-6.54323
-6.39202
-6.2356
-6.074
-5.90727
-5.73547
-5.55865
-5.3769
-5.19028
-4.99893
-4.80293
-4.60239
-4.39739
-4.18807
-3.97454
-3.75694
-3.53541
-3.31011
-3.08118
-2.84881
-2.61321
-2.3746
-2.13313
-1.88902
-1.64246
-1.39366
-1.14284
-0.890241
-0.636086
-0.3806
-0.124006
0.133469
0.391598
0.650156
0.908918
1.16766
1.42618
1.68425
1.94167
2.19825
2.45379
2.70812
2.96106
3.21249
3.4622
3.70993
3.95553
4.19887
4.43985
4.67834
4.91425
5.14746
5.3779
5.60549
5.83016
6.05175
6.27013
6.48523
6.69699
6.90532
7.11017
7.31145
7.50911
7.70301
7.89299
8.07891
8.2606
8.43789
8.61025
8.77811
8.9372
9.10195
9.20814
-7.38956
-7.39418
-7.40128
-7.40959
-7.41807
-7.4263
-7.43429
-7.44207
-7.44962
-7.45681
-7.46345
-7.46935
-7.47435
-7.47835
-7.48131
-7.48315
-7.48386
-7.48342
-7.48184
-7.47917
-7.47549
-7.47088
-7.46549
-7.45945
-7.45291
-7.44598
-7.43883
-7.43165
-7.42477
-7.41855
-7.41332
-7.4095
-7.40762
-7.40816
-7.41154
-7.41806
-7.42786
-7.44098
-7.4573
-7.47665
-7.49881
-7.52354
-7.55063
-7.57987
-7.61106
-7.644
-7.6785
-7.71438
-7.75148
-7.78962
-7.82867
-7.86849
-7.90896
-7.94993
-7.99125
-8.03279
-8.07441
-8.11597
-8.15733
-8.19833
-8.23881
-8.27858
-8.31747
-8.35529
-8.39183
-8.42689
-8.46024
-8.49168
-8.52099
-8.54794
-8.57234
-8.59401
-8.61278
-8.62848
-8.64096
-8.65008
-8.65574
-8.65782
-8.6562
-8.65076
-8.64136
-8.62787
-8.61014
-8.58804
-8.56144
-8.5302
-8.49426
-8.45358
-8.40807
-8.35761
-8.30213
-8.24154
-8.17579
-8.10481
-8.02855
-7.94695
-7.85999
-7.76763
-7.66987
-7.5667
-7.45814
-7.34419
-7.22485
-7.10013
-6.97004
-6.83461
-6.69386
-6.54784
-6.39658
-6.24013
-6.07852
-5.91179
-5.74
-5.56321
-5.38148
-5.1949
-5.00359
-4.80766
-4.60719
-4.40229
-4.19306
-3.97961
-3.7621
-3.54066
-3.31543
-3.08657
-2.85426
-2.61873
-2.38018
-2.13879
-1.89475
-1.64826
-1.39952
-1.14876
-0.896231
-0.64214
-0.386717
-0.130186
0.127223
0.385284
0.64377
0.902457
1.16112
1.41955
1.67754
1.93487
2.19136
2.4468
2.70103
2.95388
3.20528
3.45495
3.70257
3.94803
4.19124
4.43207
4.67043
4.90621
5.13932
5.36966
5.59718
5.82181
6.04336
6.26166
6.47668
6.68836
6.89663
7.10142
7.30266
7.50029
7.69417
7.88408
8.06988
8.25138
8.42839
8.60033
8.76764
8.92587
9.08998
9.19356
-7.36348
-7.36795
-7.37598
-7.38572
-7.3952
-7.40401
-7.41243
-7.42075
-7.429
-7.43698
-7.44437
-7.45093
-7.45651
-7.46104
-7.46451
-7.46687
-7.46812
-7.46823
-7.46721
-7.46509
-7.46194
-7.45782
-7.45285
-7.44711
-7.44075
-7.43391
-7.42687
-7.41987
-7.41323
-7.40729
-7.40248
-7.39927
-7.39814
-7.39953
-7.40377
-7.41112
-7.42166
-7.4354
-7.45222
-7.47198
-7.49447
-7.51953
-7.54696
-7.57657
-7.60817
-7.6416
-7.67665
-7.71312
-7.75083
-7.78963
-7.82936
-7.86988
-7.91106
-7.95274
-7.99478
-8.03704
-8.07938
-8.12164
-8.16366
-8.20527
-8.24632
-8.28662
-8.326
-8.36425
-8.40116
-8.43652
-8.4701
-8.50166
-8.53095
-8.55773
-8.58184
-8.60314
-8.62151
-8.63677
-8.64877
-8.65741
-8.66267
-8.66442
-8.66256
-8.65694
-8.64743
-8.63385
-8.61603
-8.59382
-8.56705
-8.53554
-8.49932
-8.45846
-8.41279
-8.36218
-8.30651
-8.24572
-8.17977
-8.10858
-8.03211
-7.95029
-7.86309
-7.77047
-7.67247
-7.56907
-7.46031
-7.34617
-7.22667
-7.10179
-6.97156
-6.83601
-6.69517
-6.54909
-6.3978
-6.24133
-6.07973
-5.91304
-5.74129
-5.56456
-5.38288
-5.19638
-5.00513
-4.80927
-4.6089
-4.40412
-4.195
-3.98169
-3.76429
-3.54298
-3.31788
-3.08915
-2.85693
-2.62151
-2.38306
-2.14178
-1.89785
-1.65146
-1.40282
-1.15217
-0.899743
-0.645755
-0.390431
-0.134002
0.123303
0.381256
0.639631
0.898204
1.15676
1.41507
1.67293
1.93014
2.18649
2.4418
2.69589
2.94863
3.20007
3.44978
3.69728
3.94257
4.18561
4.42629
4.66451
4.90016
5.13314
5.36338
5.59085
5.81549
6.037
6.25522
6.47014
6.68173
6.88993
7.09467
7.29587
7.49349
7.68734
7.87717
8.06284
8.24414
8.42086
8.59239
8.75916
8.91659
9.08002
9.18168
-7.33022
-7.33501
-7.34457
-7.35611
-7.3667
-7.37623
-7.38543
-7.39446
-7.40344
-7.41235
-7.42083
-7.4284
-7.4347
-7.43974
-7.44373
-7.44667
-7.44851
-7.44919
-7.44872
-7.44709
-7.44435
-7.44053
-7.43574
-7.43008
-7.42374
-7.4169
-7.40983
-7.4028
-7.39621
-7.39046
-7.38601
-7.38331
-7.38282
-7.38491
-7.38986
-7.39786
-7.40897
-7.42319
-7.44042
-7.46055
-7.48342
-7.50886
-7.53668
-7.56673
-7.59884
-7.63281
-7.66845
-7.70557
-7.74399
-7.78356
-7.82411
-7.86549
-7.90754
-7.9501
-7.99304
-8.0362
-8.07944
-8.12257
-8.16544
-8.20785
-8.24963
-8.29058
-8.33051
-8.36923
-8.4065
-8.44211
-8.47579
-8.50728
-8.53632
-8.56263
-8.58614
-8.60681
-8.62457
-8.63921
-8.65045
-8.65832
-8.66301
-8.66446
-8.66246
-8.65685
-8.64746
-8.634
-8.61627
-8.59408
-8.56717
-8.53531
-8.49877
-8.4578
-8.41207
-8.36131
-8.30543
-8.24442
-8.17824
-8.10686
-8.03018
-7.94812
-7.86064
-7.76773
-7.66943
-7.56578
-7.45679
-7.34246
-7.22278
-7.09774
-6.96736
-6.83167
-6.69074
-6.54459
-6.39328
-6.23683
-6.07526
-5.90862
-5.73694
-5.5603
-5.37877
-5.19244
-5.00136
-4.80565
-4.6054
-4.4007
-4.19168
-3.97845
-3.76116
-3.53997
-3.31503
-3.08651
-2.85457
-2.61942
-2.38121
-2.14015
-1.89642
-1.65024
-1.4018
-1.15137
-0.899165
-0.645396
-0.390296
-0.134098
0.12297
0.380679
0.638804
0.89712
1.15541
1.41345
1.67104
1.92796
2.18403
2.43904
2.69282
2.94527
3.19659
3.44625
3.69355
3.93861
4.18144
4.42194
4.65999
4.89549
5.12834
5.35847
5.58593
5.81069
6.03225
6.25037
6.46519
6.67671
6.88484
7.08954
7.29071
7.48838
7.68226
7.87202
8.05754
8.23863
8.41507
8.58619
8.75245
8.90913
9.07183
9.17223
-7.29281
-7.29851
-7.31012
-7.32386
-7.33561
-7.34543
-7.35503
-7.36513
-7.37541
-7.38547
-7.39504
-7.40366
-7.41078
-7.41638
-7.42087
-7.42436
-7.42677
-7.42798
-7.42798
-7.42671
-7.42421
-7.42052
-7.41574
-7.41
-7.40347
-7.39638
-7.38906
-7.38186
-7.3752
-7.36952
-7.36528
-7.36292
-7.36284
-7.36536
-7.37071
-7.37907
-7.39049
-7.40498
-7.42246
-7.44285
-7.46599
-7.49175
-7.51995
-7.55045
-7.58307
-7.61759
-7.65383
-7.69162
-7.7308
-7.77118
-7.8126
-7.8549
-7.89791
-7.94146
-7.9854
-8.02955
-8.07373
-8.11773
-8.16137
-8.20446
-8.2468
-8.28819
-8.32844
-8.36735
-8.40469
-8.44021
-8.47367
-8.50477
-8.53316
-8.55847
-8.58082
-8.6005
-8.61746
-8.63135
-8.64143
-8.64793
-8.65169
-8.65272
-8.65074
-8.64544
-8.63649
-8.62351
-8.60618
-8.58436
-8.55803
-8.52711
-8.49147
-8.45097
-8.4054
-8.35462
-8.29859
-8.23738
-8.17097
-8.09931
-8.02232
-7.93992
-7.85205
-7.75875
-7.66005
-7.55603
-7.44668
-7.33204
-7.21206
-7.08674
-6.95609
-6.82018
-6.67906
-6.53277
-6.38135
-6.22482
-6.06322
-5.89656
-5.7249
-5.54832
-5.3669
-5.18071
-4.9898
-4.79421
-4.59406
-4.38943
-4.18049
-3.96734
-3.75015
-3.52907
-3.30429
-3.07599
-2.84435
-2.60949
-2.37155
-2.13073
-1.88724
-1.6413
-1.39314
-1.14299
-0.891062
-0.63758
-0.382781
-0.126893
0.129851
0.387223
0.644997
0.902951
1.16086
1.41851
1.67568
1.93218
2.18779
2.44231
2.69554
2.94732
3.19749
3.44596
3.69258
3.9372
4.17965
4.41979
4.65752
4.89271
5.12526
5.35511
5.58239
5.80714
6.02868
6.24667
6.46138
6.67282
6.88091
7.08558
7.28676
7.48456
7.67859
7.86832
8.05369
8.23459
8.41076
8.5815
8.74728
8.90326
9.06519
9.16496
-7.25495
-7.26188
-7.276
-7.29167
-7.30373
-7.314
-7.3247
-7.33596
-7.34731
-7.35844
-7.36906
-7.37865
-7.38658
-7.39284
-7.39795
-7.40207
-7.40506
-7.40677
-7.40715
-7.40613
-7.40375
-7.4
-7.39501
-7.38891
-7.38195
-7.37438
-7.36658
-7.35894
-7.35191
-7.34596
-7.34152
-7.33902
-7.33881
-7.34123
-7.34648
-7.35473
-7.36605
-7.38046
-7.3979
-7.4183
-7.44154
-7.46752
-7.49607
-7.52703
-7.56017
-7.5953
-7.63221
-7.67075
-7.71074
-7.752
-7.79433
-7.83754
-7.88146
-7.92591
-7.97069
-8.01562
-8.06048
-8.10506
-8.14916
-8.19258
-8.23512
-8.27658
-8.31676
-8.35547
-8.3925
-8.42764
-8.46063
-8.49111
-8.5185
-8.54195
-8.56191
-8.57962
-8.59542
-8.60906
-8.61991
-8.62752
-8.63178
-8.63286
-8.63089
-8.62571
-8.61695
-8.6042
-8.58706
-8.5655
-8.53973
-8.5098
-8.4751
-8.4351
-8.38975
-8.33904
-8.28303
-8.22177
-8.15524
-8.08338
-8.00615
-7.92347
-7.83532
-7.74172
-7.64275
-7.53846
-7.42887
-7.31397
-7.19377
-7.06824
-6.93743
-6.80139
-6.66017
-6.51382
-6.36237
-6.20584
-6.04426
-5.87767
-5.70609
-5.52962
-5.34833