/*--------------------------------*- C++ -*----------------------------------*\
  =========                 |
  \\      /  F ield         | OpenFOAM: The Open Source CFD Toolbox
   \\    /   O peration     | Website:  https://openfoam.org
    \\  /    A nd           | Version:  8
     \\/     M anipulation  |
\*---------------------------------------------------------------------------*/
FoamFile
{
    version     2.0;
    format      ascii;
    class       surfaceScalarField;
    location    "2000";
    object      phi;
}
// * * * * * * * * * * * * * * * * * * * * * * * * * * * * * * * * * * * * * //

dimensions      [0 3 -1 0 0 0 0];

internalField   nonuniform List<scalar> 
24170
(
3.00055e-06
1.33281e-07
2.85382e-06
1.46475e-07
2.72239e-06
1.3118e-07
2.60843e-06
1.13836e-07
2.5111e-06
9.72223e-08
2.42963e-06
8.13867e-08
2.36285e-06
6.67034e-08
2.30796e-06
5.49943e-08
2.26104e-06
4.69742e-08
2.22096e-06
4.01724e-08
2.18674e-06
3.42636e-08
2.15714e-06
2.96765e-08
2.133e-06
2.41723e-08
2.11458e-06
1.84205e-08
2.10156e-06
1.29831e-08
2.09168e-06
9.81931e-09
2.08512e-06
6.47618e-09
1.39836e-09
2.08363e-06
3.51416e-06
7.5482e-08
3.54526e-06
1.14792e-07
3.55685e-06
1.18982e-07
3.55215e-06
1.17988e-07
3.53405e-06
1.14805e-07
3.50662e-06
1.0838e-07
3.47682e-06
9.62137e-08
3.44831e-06
8.34687e-08
3.41921e-06
7.60667e-08
3.38895e-06
7.04513e-08
3.35877e-06
6.44266e-08
3.32912e-06
5.93346e-08
3.30081e-06
5.24913e-08
3.27501e-06
4.42706e-08
3.25163e-06
3.64079e-08
3.23064e-06
3.08642e-08
3.21116e-06
2.59904e-08
2.16347e-08
3.19099e-06
3.83235e-06
5.52959e-08
3.85037e-06
9.67358e-08
3.86589e-06
1.03448e-07
3.87883e-06
1.05067e-07
3.8889e-06
1.04772e-07
3.89623e-06
1.01058e-07
3.89981e-06
9.26668e-08
3.90006e-06
8.33e-08
3.89909e-06
7.71077e-08
3.89711e-06
7.24929e-08
3.89386e-06
6.77022e-08
3.89005e-06
6.31956e-08
3.88512e-06
5.74385e-08
3.87877e-06
5.06284e-08
3.87111e-06
4.40529e-08
3.8632e-06
3.8756e-08
3.85504e-06
3.41112e-08
2.95853e-08
3.84704e-06
4.21617e-06
4.36352e-08
4.22879e-06
8.37258e-08
4.2393e-06
9.25714e-08
4.24868e-06
9.53364e-08
4.25717e-06
9.59533e-08
4.26486e-06
9.3056e-08
4.27085e-06
8.64735e-08
4.275e-06
7.90657e-08
4.27862e-06
7.34745e-08
4.28209e-06
6.8997e-08
4.28521e-06
6.45685e-08
4.28825e-06
6.01459e-08
4.29074e-06
5.49661e-08
4.29224e-06
4.91475e-08
4.29277e-06
4.35551e-08
4.29284e-06
3.87097e-08
4.29257e-06
3.44103e-08
3.03583e-08
4.29187e-06
4.64598e-06
3.49296e-08
4.65678e-06
7.30016e-08
4.66587e-06
8.35283e-08
4.67409e-06
8.72125e-08
4.68175e-06
8.83587e-08
4.68873e-06
8.61265e-08
4.69444e-06
8.08011e-08
4.69888e-06
7.46817e-08
4.70286e-06
6.95395e-08
4.70673e-06
6.51483e-08
4.71048e-06
6.08383e-08
4.7142e-06
5.64575e-08
4.71757e-06
5.16058e-08
4.7203e-06
4.6429e-08
4.7224e-06
4.14558e-08
4.72411e-06
3.69912e-08
4.72557e-06
3.29576e-08
2.91707e-08
4.72664e-06
5.12146e-06
2.80281e-08
5.13123e-06
6.2912e-08
5.13984e-06
7.46311e-08
5.14775e-06
7.90482e-08
5.15526e-06
8.05814e-08
5.16212e-06
7.90411e-08
5.16789e-06
7.48591e-08
5.17264e-06
6.98357e-08
5.1769e-06
6.521e-08
5.18099e-06
6.1021e-08
5.18493e-06
5.68715e-08
5.18876e-06
5.26299e-08
5.19227e-06
4.81059e-08
5.19528e-06
4.34441e-08
5.19781e-06
3.89644e-08
5.19999e-06
3.4848e-08
5.20189e-06
3.1052e-08
2.76376e-08
5.20353e-06
5.64644e-06
2.25824e-08
5.65537e-06
5.40886e-08
5.66374e-06
6.63664e-08
5.67155e-06
7.13307e-08
5.67905e-06
7.31344e-08
5.68597e-06
7.21514e-08
5.69197e-06
6.88969e-08
5.6971e-06
6.47197e-08
5.70174e-06
6.05878e-08
5.70613e-06
5.66361e-08
5.71032e-06
5.26967e-08
5.7143e-06
4.86548e-08
5.71797e-06
4.44715e-08
5.72118e-06
4.024e-08
5.72399e-06
3.61802e-08
5.72645e-06
3.23945e-08
5.72866e-06
2.88985e-08
2.5671e-08
5.73055e-06
4.40931e-06
1.93801e-08
4.41518e-06
4.79819e-08
4.42112e-06
6.02488e-08
4.4267e-06
6.55618e-08
4.43206e-06
6.7606e-08
4.43705e-06
6.69986e-08
4.44151e-06
6.43286e-08
4.44544e-06
6.07024e-08
4.44903e-06
5.69507e-08
4.45239e-06
5.32366e-08
4.45557e-06
4.95041e-08
4.45856e-06
4.56694e-08
4.4613e-06
4.17378e-08
4.46376e-06
3.77913e-08
4.46595e-06
3.40086e-08
4.46791e-06
3.04539e-08
4.46966e-06
2.71444e-08
2.41613e-08
4.47121e-06
5.14279e-06
1.64166e-08
5.14867e-06
4.22319e-08
5.1549e-06
5.40876e-08
5.16091e-06
5.95875e-08
5.16674e-06
6.17845e-08
5.17221e-06
6.15245e-08
5.17717e-06
5.93578e-08
5.18163e-06
5.62391e-08
5.18572e-06
5.28462e-08
5.18955e-06
4.94012e-08
5.19315e-06
4.58934e-08
5.19654e-06
4.23036e-08
5.19964e-06
3.86451e-08
5.20245e-06
3.50164e-08
5.20497e-06
3.15046e-08
5.20724e-06
2.82169e-08
5.20928e-06
2.51433e-08
2.23289e-08
5.21108e-06
5.99847e-06
1.37705e-08
6.00424e-06
3.63756e-08
6.01069e-06
4.75345e-08
6.0171e-06
5.30936e-08
6.02337e-06
5.54182e-08
6.02934e-06
5.5484e-08
6.03482e-06
5.38184e-08
6.03982e-06
5.12023e-08
6.04443e-06
4.81979e-08
6.04876e-06
4.50599e-08
6.05282e-06
4.18222e-08
6.05662e-06
3.8514e-08
6.06012e-06
3.51743e-08
6.06329e-06
3.18332e-08
6.06618e-06
2.86607e-08
6.06879e-06
2.56212e-08
6.07113e-06
2.27908e-08
2.0219e-08
6.07322e-06
6.99667e-06
1.13377e-08
7.00227e-06
3.08123e-08
7.00887e-06
4.0927e-08
7.01561e-06
4.63172e-08
7.02231e-06
4.86854e-08
7.02875e-06
4.8994e-08
7.03476e-06
4.77769e-08
7.04032e-06
4.56057e-08
7.04549e-06
4.30128e-08
7.05033e-06
4.01953e-08
7.05488e-06
3.72797e-08
7.05913e-06
3.42864e-08
7.06302e-06
3.12463e-08
7.0666e-06
2.82771e-08
7.06985e-06
2.53844e-08
7.07283e-06
2.26696e-08
7.07549e-06
2.00977e-08
1.78005e-08
7.0779e-06
8.16119e-06
9.19952e-09
8.16652e-06
2.54528e-08
8.17318e-06
3.42368e-08
8.1802e-06
3.92672e-08
8.18728e-06
4.15753e-08
8.19418e-06
4.20571e-08
8.20073e-06
4.11879e-08
8.20688e-06
3.9478e-08
8.21261e-06
3.72443e-08
8.21802e-06
3.48167e-08
8.22308e-06
3.22159e-08
8.22779e-06
2.95686e-08
8.23213e-06
2.68766e-08
8.23612e-06
2.42546e-08
8.23979e-06
2.17092e-08
8.24313e-06
1.93123e-08
8.24618e-06
1.70492e-08
1.5017e-08
8.24891e-06
9.51967e-06
7.22797e-09
9.52476e-06
2.03413e-08
9.53139e-06
2.75717e-08
9.53862e-06
3.19958e-08
9.54603e-06
3.41159e-08
9.55337e-06
3.46647e-08
9.56048e-06
3.41016e-08
9.56719e-06
3.27248e-08
9.57356e-06
3.09284e-08
9.57953e-06
2.88242e-08
9.58516e-06
2.66279e-08
9.59036e-06
2.43035e-08
9.59521e-06
2.20292e-08
9.59964e-06
1.97438e-08
9.60378e-06
1.76092e-08
9.60752e-06
1.55297e-08
9.61098e-06
1.36303e-08
1.18834e-08
9.61412e-06
1.11045e-05
5.44322e-09
1.11093e-05
1.55242e-08
1.11159e-05
2.10217e-08
1.11232e-05
2.46042e-08
1.1131e-05
2.63687e-08
1.11387e-05
2.68662e-08
1.11464e-05
2.64562e-08
1.11537e-05
2.5416e-08
1.11607e-05
2.39433e-08
1.11673e-05
2.22505e-08
1.11735e-05
2.03981e-08
1.11793e-05
1.85135e-08
1.11846e-05
1.65988e-08
1.11897e-05
1.47708e-08
1.11942e-05
1.29841e-08
1.11985e-05
1.13227e-08
1.12024e-05
9.7387e-09
8.34539e-09
1.1206e-05
1.29533e-05
3.77535e-09
1.29579e-05
1.09555e-08
1.29644e-05
1.46266e-08
1.29719e-05
1.71066e-08
1.298e-05
1.83381e-08
1.29882e-05
1.86378e-08
1.29964e-05
1.82815e-08
1.30043e-05
1.74526e-08
1.3012e-05
1.63077e-08
1.30192e-05
1.49751e-08
1.30261e-05
1.35358e-08
1.30325e-05
1.20612e-08
1.30385e-05
1.05954e-08
1.30441e-05
9.17663e-09
1.30493e-05
7.81737e-09
1.30541e-05
6.53833e-09
1.30586e-05
5.34197e-09
4.27498e-09
1.30626e-05
1.51101e-05
2.17541e-09
1.51146e-05
6.52378e-09
1.51211e-05
8.20831e-09
1.51288e-05
9.42015e-09
1.51373e-05
9.92768e-09
1.5146e-05
9.8865e-09
1.51548e-05
9.47414e-09
1.51635e-05
8.7835e-09
1.51718e-05
7.91904e-09
1.51799e-05
6.9433e-09
1.51875e-05
5.91963e-09
1.51947e-05
4.88322e-09
1.52014e-05
3.86951e-09
1.52077e-05
2.89402e-09
1.52136e-05
1.97189e-09
1.5219e-05
1.11038e-09
1.52241e-05
3.16401e-10
-3.84559e-10
1.52287e-05
1.76261e-05
5.48419e-10
1.76307e-05
1.89649e-09
1.76375e-05
1.47728e-09
1.76457e-05
1.25116e-09
1.76547e-05
8.57485e-10
1.76642e-05
4.00593e-10
1.76738e-05
-1.80188e-10
1.76834e-05
-7.53859e-10
1.76927e-05
-1.3947e-09
1.77016e-05
-1.99279e-09
1.77101e-05
-2.61274e-09
1.77182e-05
-3.17256e-09
1.77258e-05
-3.72449e-09
1.77329e-05
-4.21218e-09
1.77396e-05
-4.67517e-09
1.77457e-05
-5.07486e-09
1.77515e-05
-5.44063e-09
-5.73167e-09
1.77569e-05
1.78278e-05
-1.03224e-09
1.78322e-05
-2.71435e-09
1.78388e-05
-5.11586e-09
1.78467e-05
-6.80264e-09
1.78556e-05
-7.99845e-09
1.78648e-05
-8.96552e-09
1.78744e-05
-9.62537e-09
1.78837e-05
-1.01913e-08
1.78929e-05
-1.05368e-08
1.79017e-05
-1.08546e-08
1.79102e-05
-1.10188e-08
1.79181e-05
-1.11848e-08
1.79257e-05
-1.12383e-08
1.79327e-05
-1.13018e-08
1.79394e-05
-1.12816e-08
1.79455e-05
-1.12719e-08
1.79514e-05
-1.11955e-08
-1.11161e-08
1.79567e-05
1.58828e-05
-2.52354e-09
1.5887e-05
-7.03581e-09
1.58931e-05
-1.13039e-08
1.59004e-05
-1.41971e-08
1.59084e-05
-1.61581e-08
1.59169e-05
-1.74142e-08
1.59254e-05
-1.82323e-08
1.59339e-05
-1.86182e-08
1.5942e-05
-1.87959e-08
1.595e-05
-1.87211e-08
1.59574e-05
-1.85697e-08
1.59646e-05
-1.82741e-08
1.59712e-05
-1.79637e-08
1.59776e-05
-1.75681e-08
1.59834e-05
-1.7185e-08
1.5989e-05
-1.67489e-08
1.59941e-05
-1.63358e-08
-1.58793e-08
1.59989e-05
1.41501e-05
-4.03727e-09
1.41544e-05
-1.1339e-08
1.41604e-05
-1.73826e-08
1.41675e-05
-2.13464e-08
1.41751e-05
-2.38659e-08
1.4183e-05
-2.54044e-08
1.4191e-05
-2.6197e-08
1.41987e-05
-2.64672e-08
1.42063e-05
-2.63229e-08
1.42134e-05
-2.59457e-08
1.42203e-05
-2.53819e-08
1.42267e-05
-2.47255e-08
1.42327e-05
-2.39922e-08
1.42384e-05
-2.32359e-08
1.42437e-05
-2.24558e-08
1.42486e-05
-2.16878e-08
1.42532e-05
-2.09188e-08
-2.01734e-08
1.42574e-05
1.26067e-05
-5.66888e-09
1.26111e-05
-1.58419e-08
1.26173e-05
-2.35972e-08
1.26244e-05
-2.84489e-08
1.26318e-05
-3.13657e-08
1.26394e-05
-3.3038e-08
1.26469e-05
-3.3767e-08
1.26542e-05
-3.37956e-08
1.26612e-05
-3.3347e-08
1.26678e-05
-3.26004e-08
1.26741e-05
-3.1651e-08
1.26799e-05
-3.06086e-08
1.26854e-05
-2.94843e-08
1.26905e-05
-2.83653e-08
1.26953e-05
-2.72262e-08
1.26997e-05
-2.61351e-08
1.27039e-05
-2.50529e-08
-2.40248e-08
1.27077e-05
1.12317e-05
-7.55019e-09
1.12366e-05
-2.07941e-08
1.12432e-05
-3.01345e-08
1.12503e-05
-3.55664e-08
1.12576e-05
-3.87339e-08
1.1265e-05
-4.04312e-08
1.12722e-05
-4.09978e-08
1.12791e-05
-4.07184e-08
1.12856e-05
-3.99107e-08
1.12918e-05
-3.87757e-08
1.12975e-05
-3.74513e-08
1.13029e-05
-3.5999e-08
1.13079e-05
-3.45228e-08
1.13126e-05
-3.30195e-08
1.13169e-05
-3.15763e-08
1.13209e-05
-3.01462e-08
1.13246e-05
-2.88072e-08
-2.7491e-08
1.13281e-05
1.00069e-05
-9.82281e-09
1.00125e-05
-2.64132e-08
1.00195e-05
-3.7059e-08
1.00267e-05
-4.28041e-08
1.0034e-05
-4.60206e-08
1.00412e-05
-4.76269e-08
1.00481e-05
-4.79027e-08
1.00546e-05
-4.72683e-08
1.00608e-05
-4.60758e-08
1.00665e-05
-4.45399e-08
1.00718e-05
-4.28098e-08
1.00768e-05
-4.09809e-08
1.00814e-05
-3.91236e-08
1.00856e-05
-3.72955e-08
1.00896e-05
-3.55084e-08
1.00932e-05
-3.38124e-08
1.00966e-05
-3.21781e-08
-3.06488e-08
1.00997e-05
8.91598e-06
-1.27069e-08
8.92252e-06
-3.29293e-08
8.92987e-06
-4.43917e-08
8.93718e-06
-5.0071e-08
8.94442e-06
-5.32596e-08
8.95145e-06
-5.46509e-08
8.9581e-06
-5.45675e-08
8.96433e-06
-5.34931e-08
8.97014e-06
-5.18797e-08
8.97552e-06
-4.99432e-08
8.9805e-06
-4.78076e-08
8.98508e-06
-4.55908e-08
8.98931e-06
-4.3366e-08
8.9932e-06
-4.11967e-08
8.99678e-06
-3.91162e-08
9.00009e-06
-3.71296e-08
9.00314e-06
-3.52595e-08
-3.34839e-08
9.00599e-06
7.94442e-06
-1.64521e-08
7.95207e-06
-4.05412e-08
7.95978e-06
-5.20588e-08
7.96714e-06
-5.74414e-08
7.97438e-06
-6.04742e-08
7.9813e-06
-6.15647e-08
7.9878e-06
-6.1022e-08
7.99382e-06
-5.95211e-08
7.9994e-06
-5.74782e-08
8.00455e-06
-5.50953e-08
8.00926e-06
-5.25338e-08
8.01357e-06
-4.99057e-08
8.01751e-06
-4.73175e-08
8.02111e-06
-4.4816e-08
8.02442e-06
-4.24314e-08
8.02746e-06
-4.01879e-08
8.03027e-06
-3.80808e-08
-3.6093e-08
8.03285e-06
7.0793e-06
-2.14114e-08
7.08832e-06
-4.95199e-08
7.09647e-06
-6.01887e-08
7.10407e-06
-6.50043e-08
7.11149e-06
-6.78854e-08
7.11857e-06
-6.86194e-08
7.12516e-06
-6.76234e-08
7.13127e-06
-6.56086e-08
7.13689e-06
-6.30913e-08
7.14202e-06
-6.02284e-08
7.14667e-06
-5.71885e-08
7.15087e-06
-5.41251e-08
7.15467e-06
-5.11294e-08
7.15813e-06
-4.82819e-08
7.16129e-06
-4.56022e-08
7.16419e-06
-4.30966e-08
7.16686e-06
-4.07681e-08
-3.8589e-08
7.16933e-06
6.3097e-06
-2.85865e-08
6.32054e-06
-6.03663e-08
6.32982e-06
-6.93881e-08
6.33858e-06
-7.37502e-08
6.34714e-06
-7.64216e-08
6.35523e-06
-7.66895e-08
6.36271e-06
-7.50744e-08
6.36955e-06
-7.2473e-08
6.37577e-06
-6.92835e-08
6.38133e-06
-6.57899e-08
6.38628e-06
-6.21468e-08
6.39069e-06
-5.85307e-08
6.39461e-06
-5.50679e-08
6.39812e-06
-5.17903e-08
6.40126e-06
-4.87521e-08
6.40409e-06
-4.59398e-08
6.40664e-06
-4.33274e-08
-4.09027e-08
6.40893e-06
5.62901e-06
-4.2694e-08
5.64477e-06
-7.60938e-08
5.65875e-06
-8.32876e-08
5.67242e-06
-8.73703e-08
5.68529e-06
-8.92651e-08
5.69678e-06
-8.81455e-08
5.70673e-06
-8.50301e-08
5.71519e-06
-8.09223e-08
5.72228e-06
-7.63395e-08
5.72809e-06
-7.15789e-08
5.73274e-06
-6.67999e-08
5.73637e-06
-6.21757e-08
5.73907e-06
-5.77796e-08
5.74094e-06
-5.36573e-08
5.74205e-06
-4.98703e-08
5.74253e-06
-4.64309e-08
5.74248e-06
-4.32841e-08
-4.06776e-08
5.74223e-06
5.05212e-06
-9.25045e-08
5.09001e-06
-1.1393e-07
5.1186e-06
-1.11792e-07
5.13816e-06
-1.06881e-07
5.14893e-06
-9.99939e-08
5.15239e-06
-9.15735e-08
5.15012e-06
-8.27521e-08
5.14349e-06
-7.42695e-08
5.13358e-06
-6.63957e-08
5.12123e-06
-5.92119e-08
5.1071e-06
-5.26671e-08
5.09159e-06
-4.66763e-08
5.07508e-06
-4.12836e-08
5.058e-06
-3.65798e-08
5.04063e-06
-3.25048e-08
5.02328e-06
-2.90898e-08
5.00633e-06
-2.63378e-08
-2.45193e-08
4.99016e-06
4.36405e-06
4.25013e-06
4.13834e-06
4.03146e-06
3.93147e-06
3.8399e-06
3.75715e-06
3.68289e-06
3.61649e-06
3.55728e-06
3.50461e-06
3.45793e-06
3.41665e-06
3.38007e-06
3.34756e-06
3.31847e-06
3.29213e-06
3.26761e-06
-8.34985e-09
8.31749e-09
-2.25834e-08
1.41849e-08
-3.81503e-08
1.55043e-08
-5.15425e-08
1.33571e-08
-5.76438e-08
6.02313e-09
-5.0266e-08
-7.37982e-09
-2.74574e-08
-2.29007e-08
8.61361e-09
-3.60504e-08
5.35769e-08
-4.50529e-08
1.02849e-07
-4.92426e-08
1.51714e-07
-4.89351e-08
1.97244e-07
-4.55042e-08
2.37228e-07
-4.00363e-08
2.70564e-07
-3.33178e-08
2.9641e-07
-2.58829e-08
3.14452e-07
-1.80311e-08
3.24333e-07
-9.90306e-09
3.25784e-07
-1.44835e-09
3.18564e-07
7.20601e-09
3.02894e-07
1.56662e-08
2.7938e-07
2.35032e-08
2.49051e-07
3.03279e-08
2.13313e-07
3.57241e-08
1.74097e-07
3.92304e-08
1.33689e-07
4.03882e-08
9.48347e-08
3.88869e-08
6.01028e-08
3.47099e-08
3.17673e-08
2.83782e-08
1.0769e-08
2.09681e-08
-2.95135e-09
1.37517e-08
-1.0421e-08
7.43847e-09
-1.20316e-08
1.63048e-09
-7.63743e-09
-4.44184e-09
4.13141e-09
-1.17415e-08
2.47878e-08
-2.07221e-08
5.44979e-08
-2.96542e-08
8.9062e-08
-3.46302e-08
1.22451e-07
-3.33097e-08
1.48854e-07
-2.64525e-08
1.65291e-07
-1.63548e-08
1.71618e-07
-6.34593e-09
1.70827e-07
8.50106e-10
1.66258e-07
4.57882e-09
1.61565e-07
4.70553e-09
1.59175e-07
2.39357e-09
1.53632e-07
5.48792e-09
1.35474e-07
1.81909e-08
9.63527e-08
3.8968e-08
3.07828e-08
6.56373e-08
-5.89151e-08
8.95648e-08
-1.67133e-07
1.08257e-07
-2.90854e-07
1.23704e-07
-4.26556e-07
1.35727e-07
-5.70363e-07
1.4383e-07
-7.17569e-07
1.4722e-07
-8.63834e-07
1.46272e-07
-1.00624e-06
1.42416e-07
-1.14307e-06
1.36821e-07
-1.27225e-06
1.29189e-07
-1.39217e-06
1.19912e-07
-1.50252e-06
1.10345e-07
-1.60363e-06
1.01107e-07
-1.69639e-06
9.27597e-08
-1.78167e-06
8.52724e-08
-1.8599e-06
7.82305e-08
-1.93186e-06
7.19483e-08
-1.99832e-06
6.64637e-08
-2.05995e-06
6.16242e-08
-2.11734e-06
5.73874e-08
-2.171e-06
5.36556e-08
-2.22136e-06
5.03525e-08
-2.26877e-06
4.7405e-08
-2.31353e-06
4.47512e-08
-2.35588e-06
4.23359e-08
-2.396e-06
4.01161e-08
-2.43407e-06
3.80524e-08
-2.47019e-06
3.61177e-08
-2.50449e-06
3.42842e-08
-2.53703e-06
3.25362e-08
-2.5679e-06
3.08532e-08
-2.59713e-06
2.92283e-08
-2.62479e-06
2.76451e-08
-2.65089e-06
2.61025e-08
-2.67549e-06
2.45858e-08
-2.69858e-06
2.3097e-08
-2.72021e-06
2.16213e-08
-2.74037e-06
2.01608e-08
-2.75909e-06
1.87021e-08
-2.77633e-06
1.72479e-08
-2.79211e-06
1.57904e-08
-2.80644e-06
1.43299e-08
-2.81932e-06
1.2857e-08
-2.83071e-06
1.13685e-08
-2.84058e-06
9.85502e-09
-2.84891e-06
8.30871e-09
-2.85563e-06
6.71923e-09
-2.8607e-06
5.07256e-09
-2.86405e-06
3.35759e-09
-2.86562e-06
1.5796e-09
-2.86544e-06
-1.58526e-10
-2.86375e-06
-1.67615e-09
-2.86072e-06
-3.00408e-09
-2.85642e-06
-4.29775e-09
-2.85083e-06
-5.57065e-09
-2.84398e-06
-6.84526e-09
-2.83586e-06
-8.11461e-09
-2.82647e-06
-9.38763e-09
-2.81581e-06
-1.06557e-08
-2.8039e-06
-1.19258e-08
-2.79072e-06
-1.31898e-08
-2.77628e-06
-1.44535e-08
-2.76059e-06
-1.57101e-08
-2.74366e-06
-1.69637e-08
-2.72547e-06
-1.82092e-08
-2.70606e-06
-1.94487e-08
-2.68542e-06
-2.06791e-08
-2.66355e-06
-2.19003e-08
-2.64048e-06
-2.31117e-08
-2.61621e-06
-2.43109e-08
-2.59075e-06
-2.54997e-08
-2.56412e-06
-2.66735e-08
-2.53633e-06
-2.78364e-08
-2.50738e-06
-2.89811e-08
-2.47731e-06
-3.01136e-08
-2.44612e-06
-3.12247e-08
-2.41383e-06
-3.23221e-08
-2.38046e-06
-3.33951e-08
-2.34604e-06
-3.44519e-08
-2.31057e-06
-3.54777e-08
-2.2741e-06
-3.64856e-08
-2.23663e-06
-3.74626e-08
-2.19821e-06
-3.84151e-08
-2.15886e-06
-3.93331e-08
-2.11866e-06
-4.02068e-08
-2.07764e-06
-4.10244e-08
-2.03587e-06
-4.1782e-08
-1.9934e-06
-4.24485e-08
-1.95016e-06
-4.32189e-08
-1.90609e-06
-4.405e-08
-1.86131e-06
-4.47679e-08
-1.81586e-06
-4.54422e-08
-1.76977e-06
-4.6078e-08
-1.72307e-06
-4.6675e-08
-1.67581e-06
-4.72384e-08
-1.62802e-06
-4.77675e-08
-1.57972e-06
-4.82658e-08
-1.53096e-06
-4.87328e-08
-1.48176e-06
-4.91743e-08
-1.43216e-06
-4.95796e-08
-1.38219e-06
-4.99602e-08
-1.33188e-06
-5.03041e-08
-1.28125e-06
-5.06195e-08
-1.23035e-06
-5.08966e-08
-1.17921e-06
-5.11414e-08
-1.12784e-06
-5.13593e-08
-1.0763e-06
-5.15467e-08
-1.02458e-06
-5.17166e-08
-9.72703e-07
-5.18696e-08
-9.20685e-07
-5.20135e-08
-8.68527e-07
-5.21515e-08
-8.16233e-07
-5.2288e-08
-7.63802e-07
-5.24227e-08
-7.11238e-07
-5.25561e-08
-6.58543e-07
-5.26848e-08
-6.05724e-07
-5.28109e-08
-5.5278e-07
-5.2934e-08
-4.99713e-07
-5.30597e-08
-4.46514e-07
-5.31895e-08
-3.93182e-07
-5.33271e-08
-3.39705e-07
-5.34687e-08
-2.86095e-07
-5.36076e-08
-2.32369e-07
-5.37207e-08
-1.78591e-07
-5.37804e-08
-1.24863e-07
-5.37261e-08
-7.13936e-08
-5.34749e-08
-1.86306e-08
-5.27642e-08
3.28058e-08
-5.14447e-08
8.12163e-08
-4.84133e-08
1.25801e-07
-4.45924e-08
-1.97331e-08
1.45537e-07
-3.53667e-09
1.17923e-08
-9.8306e-09
2.03933e-08
-1.28485e-08
1.83833e-08
-5.40752e-09
5.8302e-09
1.73664e-08
-1.68807e-08
5.48395e-08
-4.48781e-08
1.02463e-07
-7.05918e-08
1.54814e-07
-8.83999e-08
2.06595e-07
-9.68797e-08
2.54584e-07
-9.72246e-08
2.97189e-07
-9.15752e-08
3.33799e-07
-8.2109e-08
3.64232e-07
-7.04974e-08
3.88756e-07
-5.78391e-08
4.07645e-07
-4.47952e-08
4.21337e-07
-3.1725e-08
4.30218e-07
-1.88009e-08
4.34876e-07
-6.11293e-09
4.35689e-07
6.37937e-09
4.32557e-07
1.87879e-08
4.24985e-07
3.10625e-08
4.12362e-07
4.29437e-08
3.94101e-07
5.39714e-08
3.69862e-07
6.3467e-08
3.3966e-07
7.05768e-08
3.04165e-07
7.43904e-08
2.64718e-07
7.41421e-08
2.23608e-07
6.95023e-08
1.83832e-07
6.07284e-08
1.4904e-07
4.85602e-08
1.22629e-07
3.38244e-08
1.07173e-07
1.70979e-08
1.03919e-07
-1.22663e-09
1.12563e-07
-2.03693e-08
1.3088e-07
-3.90857e-08
1.53771e-07
-5.25088e-08
1.73888e-07
-5.47872e-08
1.86412e-07
-4.57776e-08
1.89482e-07
-2.95477e-08
1.83257e-07
-1.00635e-08
1.68927e-07
7.96296e-09
1.48488e-07
2.13542e-08
1.17103e-07
3.59177e-08
6.49818e-08
5.68412e-08
-1.73175e-08
8.46407e-08
-1.31241e-07
1.19349e-07
-2.68871e-07
1.55792e-07
-4.20046e-07
1.90096e-07
-5.76123e-07
2.21703e-07
-7.34543e-07
2.47959e-07
-8.93185e-07
2.66898e-07
-1.04843e-06
2.78953e-07
-1.19679e-06
2.84086e-07
-1.33507e-06
2.82125e-07
-1.46141e-06
2.73568e-07
-1.57511e-06
2.59974e-07
-1.67618e-06
2.4348e-07
-1.76503e-06
2.25664e-07
-1.84317e-06
2.07329e-07
-1.91257e-06
1.89308e-07
-1.97461e-06
1.72377e-07
-2.03047e-06
1.56958e-07
-2.08112e-06
1.43406e-07
-2.1274e-06
1.31553e-07
-2.1703e-06
1.2112e-07
-2.21035e-06
1.12003e-07
-2.24796e-06
1.04066e-07
-2.28346e-06
9.71193e-08
-2.31708e-06
9.10061e-08
-2.34901e-06
8.55807e-08
-2.37938e-06
8.07193e-08
-2.4083e-06
7.63165e-08
-2.43583e-06
7.22844e-08
-2.46206e-06
6.85506e-08
-2.487e-06
6.50569e-08
-2.51072e-06
6.17553e-08
-2.53322e-06
5.86087e-08
-2.55453e-06
5.55855e-08
-2.57466e-06
5.2663e-08
-2.59363e-06
4.98199e-08
-2.61145e-06
4.70426e-08
-2.62813e-06
4.43161e-08
-2.64366e-06
4.16327e-08
-2.65806e-06
3.89805e-08
-2.67132e-06
3.6355e-08
-2.68345e-06
3.37454e-08
-2.69444e-06
3.1148e-08
-2.7043e-06
2.85546e-08
-2.71301e-06
2.59614e-08
-2.72057e-06
2.33679e-08
-2.72702e-06
2.0769e-08
-2.73234e-06
1.81612e-08
-2.73653e-06
1.55437e-08
-2.7396e-06
1.29136e-08
-2.74158e-06
1.02731e-08
-2.74248e-06
7.62228e-09
-2.74237e-06
4.9678e-09
-2.74133e-06
2.32376e-09
-2.73946e-06
-2.76165e-10
-2.7368e-06
-2.80306e-09
-2.73317e-06
-5.29789e-09
-2.72835e-06
-7.8055e-09
-2.72232e-06
-1.03164e-08
-2.71506e-06
-1.28257e-08
-2.70656e-06
-1.53378e-08
-2.69682e-06
-1.78499e-08
-2.68584e-06
-2.03635e-08
-2.67362e-06
-2.28746e-08
-2.66017e-06
-2.53842e-08
-2.64548e-06
-2.7888e-08
-2.62956e-06
-3.03869e-08
-2.61241e-06
-3.28764e-08
-2.59403e-06
-3.53572e-08
-2.57444e-06
-3.78249e-08
-2.55363e-06
-4.02796e-08
-2.53162e-06
-4.27172e-08
-2.50841e-06
-4.51374e-08
-2.48401e-06
-4.7537e-08
-2.45844e-06
-4.99151e-08
-2.4317e-06
-5.22695e-08
-2.40381e-06
-5.45985e-08
-2.37477e-06
-5.69006e-08
-2.34461e-06
-5.91726e-08
-2.31333e-06
-6.14136e-08
-2.28096e-06
-6.3619e-08
-2.24752e-06
-6.57884e-08
-2.21302e-06
-6.79163e-08
-2.17748e-06
-7.00026e-08
-2.14093e-06
-7.20399e-08
-2.10339e-06
-7.40282e-08
-2.06489e-06
-7.59622e-08
-2.02545e-06
-7.7842e-08
-1.98512e-06
-7.96606e-08
-1.94392e-06
-8.14133e-08
-1.90186e-06
-8.30956e-08
-1.85893e-06
-8.47051e-08
-1.81513e-06
-8.62425e-08
-1.77055e-06
-8.77856e-08
-1.72528e-06
-8.93025e-08
-1.67932e-06
-9.07201e-08
-1.63271e-06
-9.20565e-08
-1.58546e-06
-9.33188e-08
-1.53761e-06
-9.45076e-08
-1.48921e-06
-9.5628e-08
-1.44028e-06
-9.66805e-08
-1.39085e-06
-9.76705e-08
-1.34097e-06
-9.85967e-08
-1.29067e-06
-9.94674e-08
-1.23997e-06
-1.00274e-07
-1.1889e-06
-1.01025e-07
-1.13749e-06
-1.01711e-07
-1.08577e-06
-1.02336e-07
-1.03377e-06
-1.02893e-07
-9.81528e-07
-1.03385e-07
-9.29066e-07
-1.03821e-07
-8.76412e-07
-1.04202e-07
-8.23585e-07
-1.04543e-07
-7.70601e-07
-1.04853e-07
-7.1747e-07
-1.05142e-07
-6.64196e-07
-1.05422e-07
-6.10784e-07
-1.05696e-07
-5.57232e-07
-1.0597e-07
-5.03542e-07
-1.06241e-07
-4.49715e-07
-1.06506e-07
-3.95754e-07
-1.06765e-07
-3.4166e-07
-1.07022e-07
-2.8743e-07
-1.07283e-07
-2.33059e-07
-1.07555e-07
-1.78541e-07
-1.0784e-07
-1.2387e-07
-1.08136e-07
-6.90478e-08
-1.08427e-07
-1.40951e-08
-1.08671e-07
4.0942e-08
-1.08817e-07
9.59773e-08
-1.08761e-07
1.50825e-07
-1.08324e-07
2.05237e-07
-1.07179e-07
2.58574e-07
-1.04786e-07
3.10249e-07
-1.00093e-07
3.56954e-07
-9.13026e-08
-6.42512e-08
4.01471e-07
4.61084e-10
1.12693e-08
4.06531e-09
1.66926e-08
1.89173e-08
3.41554e-09
5.27438e-08
-2.80449e-08
1.03946e-07
-6.81394e-08
1.62926e-07
-1.03867e-07
2.19693e-07
-1.27394e-07
2.6871e-07
-1.37416e-07
3.0827e-07
-1.36467e-07
3.3915e-07
-1.28102e-07
3.62905e-07
-1.15354e-07
3.81137e-07
-1.0034e-07
3.94984e-07
-8.43666e-08
4.05307e-07
-6.81644e-08
4.12606e-07
-5.2115e-08
4.17281e-07
-3.64067e-08
4.19585e-07
-2.11249e-08
4.19779e-07
-6.31851e-09
4.18142e-07
7.99765e-09
4.15049e-07
2.18672e-08
4.10756e-07
3.53383e-08
4.05297e-07
4.83883e-08
3.9838e-07
6.08719e-08
3.89394e-07
7.2442e-08
3.77459e-07
8.2496e-08
3.61677e-07
9.0164e-08
3.41441e-07
9.43631e-08
3.16961e-07
9.398e-08
2.89509e-07
8.81668e-08
2.61516e-07
7.65516e-08
2.35983e-07
5.93426e-08
2.15734e-07
3.73449e-08
2.02416e-07
1.20647e-08
1.95885e-07
-1.38344e-08
1.91503e-07
-3.4734e-08
1.81808e-07
-4.27974e-08
1.62844e-07
-3.585e-08
1.3487e-07
-1.77725e-08
9.85232e-08
6.75918e-09
5.20169e-08
3.64806e-08
-1.03338e-08
7.02781e-08
-9.53242e-08
1.06344e-07
-2.05175e-07
1.45744e-07
-3.36913e-07
1.88561e-07
-4.84574e-07
2.32284e-07
-6.39062e-07
2.7381e-07
-7.93732e-07
3.10446e-07
-9.43663e-07
3.40004e-07
-1.08356e-06
3.61594e-07
-1.21053e-06
3.74908e-07
-1.32359e-06
3.79958e-07
-1.42209e-06
3.77454e-07
-1.50628e-06
3.6828e-07
-1.57767e-06
3.53518e-07
-1.6387e-06
3.34604e-07
-1.69194e-06
3.13211e-07
-1.73934e-06
2.90873e-07
-1.78239e-06
2.68713e-07
-1.82248e-06
2.47409e-07
-1.86064e-06
2.27461e-07
-1.89749e-06
2.09222e-07
-1.93332e-06
1.92784e-07
-1.96813e-06
1.78214e-07
-2.00195e-06
1.65361e-07
-2.03484e-06
1.54009e-07
-2.06682e-06
1.43979e-07
-2.09785e-06
1.35099e-07
-2.12793e-06
1.27192e-07
-2.15702e-06
1.20099e-07
-2.18513e-06
1.1368e-07
-2.21223e-06
1.07815e-07
-2.23832e-06
1.02402e-07
-2.26339e-06
9.73554e-08
-2.28745e-06
9.26039e-08
-2.31049e-06
8.80899e-08
-2.33251e-06
8.37663e-08
-2.3535e-06
7.95954e-08
-2.37347e-06
7.55466e-08
-2.3924e-06
7.15956e-08
-2.41031e-06
6.77225e-08
-2.42718e-06
6.39116e-08
-2.44302e-06
6.01494e-08
-2.45782e-06
5.6426e-08
-2.47157e-06
5.27314e-08
-2.48427e-06
4.90588e-08
-2.49593e-06
4.54001e-08
-2.50654e-06
4.175e-08
-2.51609e-06
3.81016e-08
-2.52457e-06
3.44523e-08
-2.532e-06
3.07988e-08
-2.53837e-06
2.71397e-08
-2.54369e-06
2.34734e-08
-2.54796e-06
1.97978e-08
-2.55117e-06
1.61158e-08
-2.55333e-06
1.24297e-08
-2.55445e-06
8.74342e-09
-2.55454e-06
5.06285e-09
-2.5536e-06
1.39522e-09
-2.55162e-06
-2.24899e-09
-2.54853e-06
-5.87859e-09
-2.5443e-06
-9.52149e-09
-2.5389e-06
-1.3194e-08
-2.53232e-06
-1.6882e-08
-2.52456e-06
-2.05819e-08
-2.5156e-06
-2.4288e-08
-2.50545e-06
-2.8e-08
-2.4941e-06
-3.17127e-08
-2.48155e-06
-3.54262e-08
-2.4678e-06
-3.91356e-08
-2.45285e-06
-4.28405e-08
-2.43671e-06
-4.65364e-08
-2.41938e-06
-5.02223e-08
-2.40085e-06
-5.38942e-08
-2.38114e-06
-5.75499e-08
-2.36026e-06
-6.11858e-08
-2.33819e-06
-6.47987e-08
-2.31497e-06
-6.83857e-08
-2.29058e-06
-7.19435e-08
-2.26505e-06
-7.54702e-08
-2.23838e-06
-7.89622e-08
-2.21058e-06
-8.24179e-08
-2.18167e-06
-8.58333e-08
-2.15166e-06
-8.92061e-08
-2.12056e-06
-9.25315e-08
-2.08839e-06
-9.58066e-08
-2.05517e-06
-9.90262e-08
-2.02092e-06
-1.02187e-07
-1.98565e-06
-1.05283e-07
-1.94939e-06
-1.0831e-07
-1.91216e-06
-1.11262e-07
-1.87398e-06
-1.14136e-07
-1.83489e-06
-1.16929e-07
-1.79492e-06
-1.19636e-07
-1.75408e-06
-1.22253e-07
-1.71241e-06
-1.24778e-07
-1.6699e-06
-1.2721e-07
-1.62659e-06
-1.29553e-07
-1.58253e-06
-1.31834e-07
-1.53779e-06
-1.34037e-07
-1.49238e-06
-1.36128e-07
-1.44632e-06
-1.3811e-07
-1.39965e-06
-1.39984e-07
-1.3524e-06
-1.41752e-07
-1.3046e-06
-1.43418e-07
-1.25628e-06
-1.44983e-07
-1.20749e-06
-1.46452e-07
-1.15824e-06
-1.47827e-07
-1.10859e-06
-1.49114e-07
-1.05854e-06
-1.50311e-07
-1.00814e-06
-1.51422e-07
-9.57401e-07
-1.52445e-07
-9.06359e-07
-1.53375e-07
-8.5504e-07
-1.54211e-07
-8.03474e-07
-1.54949e-07
-7.5169e-07
-1.55603e-07
-6.99711e-07
-1.56179e-07
-6.47559e-07
-1.56694e-07
-5.95247e-07
-1.57163e-07
-5.42786e-07
-1.57601e-07
-4.90183e-07
-1.58022e-07
-4.37439e-07
-1.58438e-07
-3.84554e-07
-1.58852e-07
-3.3153e-07
-1.59263e-07
-2.78365e-07
-1.59667e-07
-2.25064e-07
-1.60064e-07
-1.71624e-07
-1.60459e-07
-1.18043e-07
-1.60862e-07
-6.43147e-08
-1.6128e-07
-1.04319e-08
-1.61721e-07
4.36123e-08
-1.62177e-07
9.78142e-08
-1.62626e-07
1.52162e-07
-1.63016e-07
2.06612e-07
-1.63265e-07
2.61086e-07
-1.63232e-07
3.1545e-07
-1.62687e-07
3.69501e-07
-1.61228e-07
4.22886e-07
-1.5817e-07
4.7518e-07
-1.52386e-07
5.25443e-07
-1.41564e-07
-1.15938e-07
5.77133e-07
-1.73964e-10
1.13694e-08
1.29902e-08
3.44197e-09
5.34009e-08
-3.70751e-08
1.16101e-07
-9.07665e-08
1.8357e-07
-1.35644e-07
2.41601e-07
-1.61902e-07
2.8454e-07
-1.70357e-07
3.13399e-07
-1.66273e-07
3.31791e-07
-1.54882e-07
3.43471e-07
-1.3978e-07
3.5108e-07
-1.22985e-07
3.56262e-07
-1.05522e-07
3.59777e-07
-8.7904e-08
3.62007e-07
-7.0399e-08
3.6303e-07
-5.31615e-08
3.62909e-07
-3.62953e-08
3.61635e-07
-1.98759e-08
3.59271e-07
-3.97003e-09
3.55871e-07
1.13718e-08
3.516e-07
2.61197e-08
3.46665e-07
4.02477e-08
3.41317e-07
5.37163e-08
3.35715e-07
6.64507e-08
3.29861e-07
7.8276e-08
3.2348e-07
8.88556e-08
3.16031e-07
9.75959e-08
3.06758e-07
1.03617e-07
2.94946e-07
1.05775e-07
2.80247e-07
1.02849e-07
2.62879e-07
9.39031e-08
2.43839e-07
7.83608e-08
2.2456e-07
5.66094e-08
2.05503e-07
3.10915e-08
1.82938e-07
8.72551e-09
1.49692e-07
-1.52371e-09
1.03374e-07
3.53152e-09
4.51714e-08
2.23134e-08
-2.5705e-08
5.31094e-08
-1.12183e-07
9.32085e-08
-2.15235e-07
1.39529e-07
-3.33881e-07
1.88905e-07
-4.6608e-07
2.38533e-07
-6.06942e-07
2.86593e-07
-7.4995e-07
3.31556e-07
-8.88997e-07
3.7132e-07
-1.01851e-06
4.03311e-07
-1.13442e-06
4.26345e-07
-1.2351e-06
4.40673e-07
-1.32009e-06
4.46569e-07
-1.39007e-06
4.44881e-07
-1.44686e-06
4.3675e-07
-1.49273e-06
4.23319e-07
-1.53024e-06
4.058e-07
-1.56209e-06
3.85368e-07
-1.59068e-06
3.63195e-07
-1.61783e-06
3.40357e-07
-1.64467e-06
3.17706e-07
-1.67181e-06
2.95856e-07
-1.69961e-06
2.75202e-07
-1.72815e-06
2.55995e-07
-1.75732e-06
2.38383e-07
-1.78692e-06
2.22379e-07
-1.81667e-06
2.07962e-07
-1.84634e-06
1.95024e-07
-1.87574e-06
1.83411e-07
-1.90473e-06
1.7297e-07
-1.93319e-06
1.63549e-07
-1.961e-06
1.55001e-07
-1.98809e-06
1.4719e-07
-2.01441e-06
1.39993e-07
-2.0399e-06
1.33304e-07
-2.06453e-06
1.27032e-07
-2.08828e-06
1.21099e-07
-2.11112e-06
1.1544e-07
-2.13303e-06
1.10001e-07
-2.15401e-06
1.04738e-07
-2.17404e-06
9.96166e-08
-2.1931e-06
9.46078e-08
-2.2112e-06
8.96885e-08
-2.22832e-06
8.48398e-08
-2.24446e-06
8.00467e-08
-2.25961e-06
7.52965e-08
-2.27376e-06
7.05789e-08
-2.28692e-06
6.58852e-08
-2.29907e-06
6.12081e-08
-2.31021e-06
5.65409e-08
-2.32034e-06
5.18779e-08
-2.32946e-06
4.72139e-08
-2.33755e-06
4.25443e-08
-2.34461e-06
3.78696e-08
-2.35066e-06
3.31841e-08
-2.35568e-06
2.84887e-08
-2.35967e-06
2.3781e-08
-2.36262e-06
1.90639e-08
-2.36453e-06
1.43387e-08
-2.36539e-06
9.60796e-09
-2.3652e-06
4.87379e-09
-2.36393e-06
1.38079e-10
-2.36157e-06
-4.59903e-09
-2.35809e-06
-9.34796e-09
-2.35348e-06
-1.41229e-08
-2.34773e-06
-1.89304e-08
-2.34084e-06
-2.37605e-08
-2.33281e-06
-2.86091e-08
-2.32362e-06
-3.34686e-08
-2.31328e-06
-3.83376e-08
-2.30178e-06
-4.32092e-08
-2.28913e-06
-4.80832e-08
-2.27531e-06
-5.29529e-08
-2.26034e-06
-5.78182e-08
-2.24421e-06
-6.26728e-08
-2.22693e-06
-6.75162e-08
-2.20849e-06
-7.2342e-08
-2.1889e-06
-7.71486e-08
-2.16817e-06
-8.19299e-08
-2.1463e-06
-8.66827e-08
-2.1233e-06