/*--------------------------------*- C++ -*----------------------------------*\
  =========                 |
  \\      /  F ield         | OpenFOAM: The Open Source CFD Toolbox
   \\    /   O peration     | Website:  https://openfoam.org
    \\  /    A nd           | Version:  8
     \\/     M anipulation  |
\*---------------------------------------------------------------------------*/
FoamFile
{
    version     2.0;
    format      ascii;
    class       volScalarField;
    location    "800";
    object      k;
}
// * * * * * * * * * * * * * * * * * * * * * * * * * * * * * * * * * * * * * //

dimensions      [0 2 -2 0 0 0 0];

internalField   nonuniform List<scalar> 
12225
(
0.888099
1.78517
2.26056
2.28592
2.23849
2.21927
1.97919
1.93037
1.73793
1.66177
1.6064
1.5806
1.54804
1.52045
1.51337
1.87254
0.982734
3.72327
0.428176
0.71085
0.928743
0.977492
0.979318
0.952333
0.966894
0.964408
0.913005
0.894574
0.874238
0.928031
0.974897
0.925657
0.914437
0.984136
0.961764
1.02192
0.405001
0.467842
0.477646
0.485671
0.525578
0.512953
0.504006
0.499624
0.485531
0.485849
0.48123
0.482393
0.484737
0.487287
0.490372
0.49964
0.505076
0.510692
0.383128
0.39877
0.397168
0.39658
0.398927
0.397907
0.40092
0.397643
0.393114
0.390186
0.386854
0.384646
0.382636
0.380815
0.379479
0.378575
0.377543
0.377756
0.37664
0.378304
0.377534
0.376241
0.373534
0.373791
0.372782
0.37137
0.369321
0.367522
0.365714
0.363917
0.362094
0.360328
0.358445
0.356913
0.355024
0.353609
0.374315
0.372533
0.370825
0.369064
0.367565
0.366139
0.364898
0.363492
0.362055
0.36059
0.359198
0.357741
0.356305
0.35484
0.353359
0.351927
0.350432
0.349021
0.373983
0.371754
0.369726
0.367757
0.365968
0.364249
0.362693
0.361134
0.359674
0.358232
0.356886
0.355531
0.354236
0.352933
0.351665
0.350411
0.349161
0.347951
0.373884
0.371643
0.369546
0.367528
0.365645
0.363835
0.362159
0.360535
0.359018
0.357549
0.356177
0.354833
0.35356
0.35231
0.35111
0.349934
0.348792
0.347677
0.373861
0.371577
0.369455
0.36743
0.365524
0.363698
0.361985
0.360341
0.358792
0.357307
0.355908
0.35456
0.353284
0.35205
0.350872
0.349733
0.348634
0.347578
0.373837
0.371576
0.369441
0.367408
0.365484
0.363651
0.36192
0.360266
0.358701
0.357207
0.355792
0.354439
0.353154
0.351928
0.350754
0.34963
0.348554
0.347521
0.37384
0.371564
0.369419
0.367384
0.365453
0.363619
0.361879
0.360225
0.358652
0.357155
0.355732
0.354374
0.353089
0.351856
0.350686
0.349564
0.348494
0.347471
0.373829
0.37156
0.36941
0.36737
0.365434
0.363595
0.361854
0.360192
0.358618
0.357115
0.355688
0.35433
0.353036
0.351805
0.350628
0.349506
0.348434
0.347414
0.373831
0.371557
0.369402
0.367359
0.365419
0.363582
0.361829
0.360171
0.358586
0.357085
0.355651
0.354292
0.352993
0.351759
0.350575
0.349452
0.348376
0.347352
0.373827
0.371552
0.369396
0.367348
0.365409
0.363565
0.361815
0.360147
0.358566
0.357056
0.355624
0.354257
0.352959
0.351715
0.350533
0.349401
0.348327
0.347296
0.373826
0.371551
0.369389
0.367343
0.365399
0.363554
0.3618
0.360132
0.358545
0.357036
0.355599
0.354231
0.352926
0.351683
0.350496
0.349365
0.348284
0.347256
0.373826
0.371547
0.369388
0.367337
0.365393
0.363546
0.36179
0.36012
0.358531
0.35702
0.35558
0.354209
0.352902
0.351657
0.350468
0.349336
0.348253
0.347223
0.373825
0.371548
0.369388
0.367336
0.365391
0.36354
0.361784
0.360112
0.358522
0.357009
0.355568
0.354195
0.352887
0.35164
0.35045
0.349316
0.348232
0.347201
0.373823
0.371552
0.369387
0.367341
0.365387
0.363543
0.361779
0.360112
0.358516
0.357007
0.355561
0.354191
0.352879
0.351634
0.350441
0.349309
0.348222
0.347191
0.373826
0.37155
0.369393
0.367338
0.365394
0.363539
0.361786
0.360109
0.358523
0.357005
0.355567
0.35419
0.352884
0.351633
0.350446
0.349307
0.348226
0.347189
0.373827
0.371551
0.369391
0.367342
0.365394
0.363547
0.361787
0.360119
0.358527
0.357016
0.355572
0.354202
0.352891
0.351645
0.350454
0.34932
0.348235
0.347203
0.373825
0.371551
0.369392
0.367344
0.365399
0.363552
0.361797
0.360127
0.358539
0.357027
0.355587
0.354216
0.352908
0.351662
0.350473
0.349339
0.348256
0.347222
0.373829
0.371552
0.369394
0.367347
0.365406
0.363561
0.361809
0.360141
0.358556
0.357045
0.355609
0.354239
0.352936
0.351689
0.350506
0.349371
0.348294
0.34726
0.373825
0.371555
0.369399
0.367358
0.365418
0.363578
0.361829
0.360169
0.358591
0.357089
0.355661
0.3543
0.353004
0.35177
0.350592
0.34947
0.348397
0.347374
0.373837
0.371554
0.369408
0.367381
0.365465
0.36365
0.361933
0.360305
0.358762
0.357298
0.355906
0.354579
0.353315
0.352107
0.350955
0.34985
0.348798
0.347783
0.373848
0.371537
0.369457
0.367569
0.365803
0.364158
0.362597
0.36112
0.359708
0.358353
0.357051
0.355793
0.354581
0.353406
0.352275
0.351173
0.350117
0.349082
0.373874
0.37151
0.369988
0.368938
0.368
0.36702
0.365971
0.364849
0.363656
0.362439
0.361199
0.359948
0.358695
0.35744
0.356207
0.354975
0.353794
0.352601
0.373795
0.373125
0.374676
0.377309
0.378833
0.37903
0.378885
0.378022
0.376743
0.375329
0.373829
0.372242
0.370657
0.369003
0.367428
0.3658
0.364338
0.36279
0.377758
0.388591
0.407906
0.419482
0.423207
0.424782
0.4247
0.423448
0.421421
0.419482
0.417633
0.415807
0.414246
0.412631
0.411455
0.410178
0.409459
0.408703
0.372872
0.460851
0.517513
0.560906
0.589992
0.609452
0.622411
0.633177
0.641767
0.649816
0.656889
0.663648
0.66999
0.6759
0.681991
0.687272
0.693389
0.697977
0.61671
1.16575
1.49452
1.62516
1.68759
1.6977
1.69108
1.67394
1.64793
1.61974
1.5917
1.56482
1.53974
1.51656
1.49537
1.47603
1.4584
1.44236
1.11363e-08
2.73872e-07
1.36868e-06
5.24405e-06
1.71588e-05
5.14371e-05
0.000127076
0.000238652
0.000365836
0.000480726
0.000566226
0.000591282
0.000575273
0.000515322
0.00040587
0.0003062
0.000240074
0.000185934
0.000137164
9.23908e-05
5.69186e-05
3.2881e-05
1.86619e-05
1.10734e-05
7.64171e-06
7.53655e-06
1.69824e-05
3.08797e-05
0.000103335
0.000213606
0.000285738
0.000296257
0.000343295
0.000450705
0.00053302
0.00114052
0.00233605
0.00638571
0.0234031
0.0544388
0.076025
0.0656925
0.0870405
0.0980446
0.110976
0.125363
0.159056
0.168761
0.151039
0.165719
0.183521
0.20365
0.155164
0.142184
0.153923
0.160512
0.166034
0.170983
0.176187
0.180993
0.185636
0.190464
0.194832
0.199498
0.203799
0.208285
0.21256
0.216921
0.221167
0.225446
0.229661
0.233885
0.238069
0.24225
0.246403
0.250545
0.254665
0.258766
0.262847
0.266902
0.270936
0.274936
0.278912
0.282845
0.286749
0.2906
0.294414
0.298165
0.301868
0.305501
0.309074
0.312578
0.316023
0.319415
0.32278
0.326158
0.329449
0.332693
0.335877
0.339002
0.342063
0.34506
0.347983
0.350836
0.353606
0.356299
0.358899
0.361416
0.36383
0.366153
0.368366
0.37048
0.372478
0.374368
0.376137
0.377791
0.379321
0.380728
0.382011
0.383166
0.384196
0.385094
0.38587
0.386511
0.387036
0.387426
0.387708
0.387863
0.387926
0.387919
0.387718
0.387422
0.387054
0.386227
0.385875
0.384783
0.384241
0.382954
0.38203
0.380792
0.379525
0.378192
0.376762
0.375273
0.373662
0.371924
0.370123
0.368272
0.366375
0.364447
0.362473
0.360455
0.358387
0.356278
0.354132
0.351969
0.349757
0.347509
0.345219
0.342896
0.340538
0.338154
0.335745
0.333321
0.330889
0.328455
0.326021
0.323587
0.321146
0.318745
0.316348
0.313884
0.311382
0.308812
0.306114
0.303194
0.299825
0.295518
0.29026
0.264853
6.04945e-08
1.69194e-06
1.13207e-05
4.77047e-05
0.000175174
0.000467328
0.00102381
0.0017803
0.00262935
0.00344937
0.00417569
0.00465813
0.00499081
0.00498109
0.00484777
0.00455757
0.00400748
0.00328872
0.00249494
0.00170575
0.0011046
0.000695172
0.000436059
0.000281761
0.00020796
0.000144833
0.000281827
0.000434143
0.00136996
0.00277249
0.00375123
0.00440278
0.00631316
0.00975178
0.016892
0.0311915
0.0571655
0.0808851
0.104152
0.122485
0.134732
0.145044
0.155564
0.16345
0.172575
0.185516
0.195055
0.207372
0.222985
0.235967
0.250872
0.265382
0.278398
0.293621
0.308809
0.324039
0.33748
0.351767
0.36472
0.378141
0.390772
0.403577
0.415986
0.428427
0.440686
0.452945
0.465131
0.477327
0.489511
0.501724
0.51396
0.526242
0.538569
0.550955
0.563398
0.575906
0.588477
0.601115
0.613817
0.626582
0.639408
0.652289
0.665225
0.678203
0.691223
0.704268
0.717337
0.730406
0.743469
0.756499
0.769483
0.782396
0.795212
0.807902
0.820434
0.832794
0.845167
0.857497
0.869805
0.882071
0.894294
0.906456
0.918553
0.930565
0.942487
0.954298
0.965991
0.977544
0.988949
1.00018
1.01124
1.02209
1.03273
1.04314
1.0533
1.0632
1.07283
1.08216
1.09118
1.09989
1.10827
1.11631
1.12399
1.13132
1.13828
1.14488
1.15109
1.15693
1.16239
1.16747
1.17217
1.17648
1.18041
1.18395
1.18716
1.18995
1.19243
1.19448
1.1962
1.1975
1.19816
1.19882
1.19894
1.19886
1.1984
1.19736
1.196
1.1943
1.19231
1.19002
1.18742
1.18449
1.18123
1.17764
1.17372
1.1695
1.16493
1.16001
1.15475
1.14916
1.14323
1.13699
1.13043
1.12357
1.11644
1.10905
1.1014
1.09352
1.08541
1.07712
1.06857
1.0597
1.05053
1.04101
1.03105
1.02052
1.00894
0.996195
0.981876
0.932149
1.65038e-07
4.87238e-06
3.70162e-05
0.000162885
0.00057015
0.00136097
0.00264202
0.00413596
0.00562166
0.00696461
0.00802979
0.00875067
0.00915974
0.00913731
0.00893386
0.00853147
0.00787502
0.00707342
0.00614956
0.00515807
0.00405018
0.00301847
0.00208947
0.00149209
0.00107179
0.00103276
0.00185834
0.00345842
0.00941101
0.0167465
0.0221173
0.029317
0.0449719
0.0614726
0.0794782
0.0988441
0.115616
0.132214
0.148332
0.16445
0.180672
0.196887
0.220072
0.246111
0.27495
0.304637
0.335928
0.366614
0.393479
0.421669
0.448148
0.473056
0.496209
0.518529
0.539932
0.560494
0.580249
0.599543
0.618224
0.636605
0.654579
0.672342
0.689863
0.707247
0.724499
0.741676
0.758793
0.775884
0.792963
0.810052
0.82716
0.844302
0.861484
0.878715
0.895998
0.913337
0.930732
0.948185
0.965694
0.983257
1.00087
1.01853
1.03624
1.05398
1.07175
1.08955
1.10737
1.1252
1.14304
1.16088
1.17871
1.19653
1.21435
1.23216
1.24997
1.26778
1.28557
1.30332
1.32102
1.33866
1.35623
1.3737
1.39107
1.40831
1.42541
1.44234
1.4591
1.47566
1.49199
1.50808
1.52389
1.53941
1.55461
1.56946
1.58395
1.59804
1.61171
1.62494
1.6377
1.64998
1.66175
1.67301
1.68372
1.69388
1.70347
1.7125
1.72094
1.72881
1.73609
1.7428
1.74892
1.75447
1.75944
1.76385
1.76771
1.77102
1.77378
1.77599
1.77766
1.77873
1.77919
1.77929
1.77876
1.7777
1.77611
1.77395
1.77128
1.76811
1.76448
1.7604
1.75584
1.7508
1.74526
1.73923
1.7327
1.72567
1.71814
1.7101
1.70156
1.69254
1.68303
1.67307
1.66265
1.65182
1.64058
1.62897
1.617
1.60469
1.59206
1.57914
1.56593
1.55241
1.53858
1.52441
1.50983
1.49477
1.4789
1.4623
1.44496
1.39874
6.74776e-07
2.03093e-05
0.000159389
0.000630861
0.00175604
0.00400093
0.00666895
0.00936629
0.0117471
0.0136393
0.0148488
0.0155108
0.0154784
0.015213
0.0145145
0.0135531
0.0124266
0.0111903
0.00989332
0.00858091
0.0072492
0.00596564
0.00494705
0.00341102
0.00368556
0.00626637
0.0158795
0.0311331
0.0463029
0.0583032
0.0698113
0.0828957
0.0958454
0.110205
0.126939
0.145804
0.164931
0.187803
0.21271
0.240948
0.271602
0.305653
0.340587
0.37614
0.411834
0.447008
0.481408
0.514575
0.54644
0.577319
0.606859
0.635136
0.662345
0.688618
0.714011
0.738643
0.762598
0.785999
0.808905
0.831422
0.853592
0.875496
0.897176
0.918687
0.940066
0.961351
0.982572
1.00376
1.02492
1.04609
1.06728
1.08851
1.10977
1.13108
1.15245
1.17387
1.19535
1.2169
1.2385
1.26017
1.28188
1.30365
1.32547
1.34733
1.36922
1.39115
1.4131
1.43508
1.45708
1.47908
1.5011
1.52312
1.54515
1.56717
1.58919
1.61118
1.63313
1.65503
1.67686
1.69861
1.72026
1.7418
1.7632
1.78445
1.80553
1.82641
1.84708
1.86749
1.88764
1.90749
1.927
1.94616
1.96492
1.98325
2.00113
2.01851
2.03537
2.05167
2.06738
2.08248
2.09694
2.11072
2.12382
2.1362
2.14786
2.15877
2.16894
2.17835
2.18701
2.19493
2.20209
2.20851
2.21419
2.21916
2.22341
2.22696
2.22981
2.23197
2.23343
2.23413
2.23424
2.23369
2.23243
2.2305
2.22788
2.22459
2.22065
2.21608
2.21091
2.20513
2.19876
2.19176
2.18416
2.17592
2.16707
2.15758
2.14747
2.13674
2.1254
2.11346
2.10093
2.08784
2.0742
2.06004
2.0454
2.0303
2.01478
1.99886
1.98258
1.96597
1.94905
1.93183
1.91432
1.89652
1.87844
1.86006
1.84121
1.82215
1.80325
1.76136
2.55478e-06
7.62697e-05
0.0005584
0.00205979
0.00550391
0.0101894
0.014782
0.0185387
0.0210619
0.0224156
0.0227003
0.0224348
0.0216907
0.0205399
0.0191974
0.0177286
0.016184
0.0146129
0.0130798
0.0116489
0.0102534
0.00866672
0.00812578
0.00963603
0.0179336
0.0362219
0.0607234
0.078454
0.0884473
0.0967177
0.106129
0.118648
0.134535
0.154224
0.17638
0.201981
0.230653
0.262718
0.296939
0.333266
0.370736
0.408971
0.447097
0.48504
0.522513
0.559338
0.595381
0.630525
0.664771
0.698094
0.730476
0.761926
0.792526
0.822332
0.851393
0.879781
0.90756
0.934809
0.961591
0.987977
1.01402
1.03979
1.06532
1.09066
1.11586
1.14096
1.16598
1.19095
1.2159
1.24085
1.26582
1.29081
1.31585
1.34094
1.36609
1.39131
1.41658
1.44193
1.46734
1.49282
1.51836
1.54395
1.5696
1.59529
1.62103
1.6468
1.6726
1.69841
1.72425
1.75009
1.77593
1.80176
1.82758
1.85338
1.87914
1.90486
1.93051
1.95609
1.98159
2.00698
2.03225
2.05738
2.08236
2.10716
2.13176
2.15614
2.18027
2.20413
2.22767
2.25088
2.2737
2.29611
2.31807
2.33954
2.36047
2.38084
2.40058
2.41968
2.43808
2.45575
2.47265
2.48875
2.50403
2.51845
2.532
2.54465
2.55641
2.56725
2.57718
2.5862
2.59431
2.60151
2.60782
2.61325
2.61782
2.62153
2.62439
2.6264
2.62752
2.62785
2.62744
2.62619
2.6241
2.62122
2.61752
2.61304
2.60778
2.60178
2.59504
2.58758
2.57939
2.57048
2.56084
2.55046
2.53936
2.52753
2.51498
2.50171
2.48773
2.47306
2.45772
2.44173
2.42511
2.4079
2.39014
2.37187
2.35312
2.33393
2.31436
2.29443
2.2742
2.25368
2.23291
2.21193
2.19078
2.16953
2.14813
2.12696
2.10643
2.06753
9.28927e-06
0.000263172
0.00181098
0.00624951
0.0139425
0.0208891
0.0255136
0.0277844
0.0283794
0.0280982
0.0272661
0.0259961
0.0245466
0.0229928
0.0213781
0.0197277
0.0180404
0.0162765
0.0143639
0.0123757
0.0106985
0.0110532
0.0163781
0.0314882
0.0591282
0.0842583
0.0994404
0.1074
0.113507
0.12321
0.137604
0.156563
0.179041
0.205582
0.23534
0.268245
0.30343
0.340372
0.378346
0.417024
0.455959
0.494947
0.533769
0.572383
0.610683
0.648595
0.68604
0.722951
0.759288
0.794992
0.830046
0.864433
0.898167
0.931264
0.963749
0.995656
1.02703
1.05791
1.08836
1.11843
1.14817
1.17762
1.20684
1.23586
1.26473
1.29349
1.32216
1.35078
1.37938
1.40797
1.43658
1.46523
1.49392
1.52266
1.55147
1.58036
1.60931
1.63834
1.66745
1.69663
1.72588
1.75519
1.78455
1.81397
1.84343
1.87292
1.90244
1.93197
1.9615
1.99103
2.02053
2.05001
2.07946
2.10885
2.13818
2.16744
2.19661
2.22568
2.25464
2.28347
2.31216
2.34069
2.36903
2.39717
2.42509
2.45276
2.48016
2.50724
2.53399
2.56036
2.58631
2.6118
2.63679
2.66124
2.68509
2.7083
2.73082
2.7526
2.7736
2.79376
2.81305
2.83141
2.84883
2.86525
2.88065
2.89501
2.90831
2.92055
2.9317
2.94178
2.95079
2.95871
2.96559
2.97142
2.97622
2.98
2.98278
2.98454
2.98525
2.98514
2.98405
2.98198
2.97896
2.97501
2.97014
2.96436
2.95769
2.95016
2.94178
2.93256
2.92251
2.91163
2.89992
2.88739
2.87404
2.85987
2.84489
2.82911
2.81255
2.79521
2.77714
2.75834
2.73886
2.71872
2.69798
2.67668
2.65486
2.63257
2.60988
2.58683
2.56348
2.53986
2.51604
2.49208
2.46807
2.44413
2.4203
2.397
2.37447
2.33741
3.34955e-05
0.000861993
0.00531108
0.0159134
0.0255866
0.0308257
0.0328443
0.0330353
0.032477
0.0312109
0.0295856
0.0278076
0.0259732
0.0241378
0.0223353
0.0206202
0.0191101
0.0179796
0.0176719
0.0186768
0.022676
0.0313007
0.0510087
0.0777038
0.0988541
0.111896
0.118445
0.125245
0.136744
0.153663
0.174946
0.200624
0.229905
0.262328
0.296988
0.333369
0.370825
0.408986
0.447548
0.486356
0.525287
0.564292
0.603331
0.642381
0.6814
0.720338
0.759127
0.797691
0.835969
0.873901
0.911436
0.948535
0.985175
1.02134
1.05703
1.09225
1.12703
1.16138
1.19535
1.22897
1.26227
1.29531
1.32811
1.36073
1.3932
1.42555
1.45781
1.49003
1.52222
1.55441
1.58662
1.61886
1.65116
1.68353
1.71597
1.74849
1.78109
1.81378
1.84655
1.87941
1.91234
1.94533
1.97839
2.01151
2.04466
2.07784
2.11103
2.14423
2.17742
2.21058
2.2437
2.27676
2.30976
2.34268
2.37551
2.40823
2.44083
2.4733
2.50563
2.5378
2.56979
2.60159
2.63319
2.66455
2.69567
2.72651
2.75704
2.78724
2.81707
2.84648
2.87546
2.90393
2.93186
2.9592
2.9859
3.01189
3.03712
3.06154
3.08509
3.10772
3.12936
3.14997
3.16951
3.18792
3.20517
3.22123
3.23607
3.24969
3.26205
3.27316
3.28303
3.29165
3.29903
3.3052
3.31017
3.31396
3.31658
3.31798
3.31829
3.31754
3.31566
3.31267
3.30859
3.30346
3.29728
3.29009
3.28189
3.27271
3.26258
3.25151
3.2395
3.22657
3.21273
3.19797
3.18232
3.16577
3.14834
3.13004
3.11089
3.0909
3.07011
3.04855
3.02624
3.00324
2.97958
2.95533
2.93053
2.90524
2.87953
2.85346
2.82709
2.80049
2.77373
2.74691
2.72013
2.69356
2.66731
2.64178
2.61703
2.58064
0.00010614
0.0024787
0.0133021
0.0274264
0.0346482
0.0374328
0.0378415
0.0371018
0.0354517
0.0333972
0.0312015
0.0290028
0.0268651
0.0248098
0.0228695
0.021274
0.0203255
0.0202854
0.0226753
0.0297848
0.0446867
0.0668288
0.0897281
0.107413
0.118167
0.12508
0.133584
0.147342
0.166117
0.189777
0.217443
0.248423
0.281803
0.316923
0.353182
0.390215
0.42774
0.465614
0.503759
0.54216
0.580818
0.619748
0.658959
0.698445
0.738175
0.778093
0.818137
0.858237
0.898317
0.938307
0.978137
1.01775
1.05709
1.09614
1.13485
1.17322
1.21124
1.24893
1.2863
1.32336
1.36015
1.39671
1.43305
1.46922
1.50524
1.54116
1.57701
1.61281
1.64858
1.68437
1.72018
1.75603
1.79195
1.82795
1.86402
1.90019
1.93646
1.97282
2.00928
2.04583
2.08246
2.11916
2.15594
2.19276
2.22962
2.2665
2.30339
2.34026
2.3771
2.41389
2.45061
2.48724
2.52378
2.56021
2.5965
2.63265
2.66863
2.70445
2.74008
2.77551
2.81073
2.84572
2.88046
2.91494
2.94914
2.98303
3.01659
3.04978
3.08257
3.11492
3.14679
3.17814
3.20891
3.23904
3.26848
3.29717
3.32504
3.35203
3.37808
3.40312
3.42708
3.44991
3.47154
3.49192
3.511
3.52874
3.54511
3.56008
3.57362
3.58574
3.59643
3.6057
3.61355
3.62001
3.62509
3.62881
3.63117
3.63217
3.63196
3.63045
3.62767
3.62364
3.61839
3.61195
3.60434
3.5956
3.58574
3.57481
3.56281
3.54978
3.53572
3.52065
3.50459
3.48755
3.46953
3.45056
3.43064
3.40979
3.38804
3.3654
3.34191
3.3176
3.29251
3.26668
3.24017
3.21302
3.1853
3.15708
3.12842
3.09941
3.0701
3.04059
3.01096
2.98133
2.95184
2.92266
2.89394
2.86608
2.83897
2.80238
0.000277783
0.0060358
0.0243072
0.0368572
0.0419658
0.0432193
0.0424626
0.0405232
0.0380127
0.0353336
0.0327355
0.0304016
0.0284962
0.027102
0.0265306
0.0267818
0.0287859
0.0334816
0.0435839
0.0599496
0.0790866
0.0972451
0.111505
0.121
0.128842
0.139506
0.154925
0.175607
0.20072
0.229553
0.261041
0.294432
0.329081
0.364573
0.40063
0.437098
0.473904
0.511047
0.548557
0.586479
0.624859
0.663739
0.703139
0.743052
0.783447
0.824283
0.865496
0.907016
0.948764
0.99066
1.03262
1.07458
1.11646
1.15822
1.19981
1.24119
1.28234
1.32325
1.36393
1.40437
1.4446
1.48462
1.52447
1.56417
1.60376
1.64325
1.68268
1.72207
1.76146
1.80086
1.8403
1.8798
1.91937
1.95902
1.99878
2.03863
2.0786
2.11867
2.15885
2.19913
2.2395
2.27996
2.32048
2.36105
2.40165
2.44226
2.48287
2.52344
2.56396
2.60439
2.64472
2.68492
2.725
2.76491
2.80464
2.84418
2.8835
2.9226
2.96146
3.00007
3.03841
3.07648
3.11426
3.15172
3.18886
3.22566
3.26208
3.2981
3.33369
3.36882
3.40343
3.43748
3.47092
3.50369
3.53573
3.56697
3.59735
3.62679
3.65522
3.68257
3.70875
3.73371
3.75736
3.77964
3.8005
3.81987
3.83771
3.85399
3.86867
3.88174
3.89321
3.90306
3.91132
3.918
3.92311
3.92667
3.92869
3.92924
3.92836
3.926
3.9222
3.91701
3.91047
3.9026
3.89344
3.88303
3.8714
3.85858
3.84461
3.82951
3.81331
3.79602
3.77766
3.75826
3.73783
3.71639
3.69395
3.67054
3.64618
3.6209
3.59473
3.56771
3.53988
3.51127
3.48196
3.45199
3.42143
3.39035
3.35883
3.32695
3.2948
3.26246
3.23004
3.19767
3.1655
3.13374
3.10252
3.07225
3.04272
3.00532
0.000593416
0.0121874
0.0346572
0.0451278
0.0486093
0.0486512
0.046786
0.0439591
0.0407954
0.0377195
0.0350046
0.0328161
0.0316318
0.0312965
0.032639
0.0366407
0.0445338
0.0565212
0.071549
0.0871265
0.101431
0.11276
0.121737
0.130926
0.143418
0.160461
0.182348
0.208352
0.237406
0.26867
0.301372
0.335037
0.369337
0.40409
0.439216
0.474702
0.510584
0.546924
0.583794
0.621267
0.659409
0.698264
0.737849
0.778165
0.81919
0.860884
0.903188
0.946032
0.989336
1.03301
1.07698
1.12115
1.16544
1.20979
1.25413
1.29841
1.3426
1.38667
1.43059
1.47436
1.51799
1.56147
1.60482
1.64806
1.69121
1.73429
1.77733
1.82035
1.86338
1.90644
1.94955
1.99272
2.03598
2.07935
2.12282
2.1664
2.21011
2.25394
2.29788
2.34193
2.38608
2.43032
2.47462
2.51897
2.56334
2.60772
2.65207
2.69636
2.74057
2.78466
2.8286
2.87237
2.91595
2.95932
3.00246
3.04533
3.08792
3.13022
3.17221
3.21389
3.25523
3.29623
3.33687
3.37715
3.41705
3.45655
3.49563
3.53426
3.57243
3.61009
3.6472
3.68372
3.7196
3.75477
3.78918
3.82275
3.85542
3.8871
3.91771
3.94718
3.97541
4.00234
4.02786
4.05192
4.07443
4.09532
4.11453
4.13202
4.14775
4.16169
4.17384
4.18421
4.19279
4.1996
4.20464
4.20795
4.20956
4.20952
4.20788
4.20455
4.19963
4.19316
4.1852
4.17577
4.16493
4.15273
4.13921
4.1244
4.10834
4.09108
4.07263
4.05303
4.03231
4.01049
3.9876
3.96365
3.93868
3.9127
3.88574
3.85784
3.82902
3.79933
3.7688
3.7375
3.70547
3.67276
3.63946
3.60563
3.57135
3.53672
3.50182
3.46676
3.43165
3.39664
3.36188
3.32757
3.29387
3.26117
3.22919
3.19063
0.00106056
0.0204154
0.0437354
0.0529125
0.0552718
0.0543882
0.0516779
0.0482501
0.0448404
0.0419387
0.0400644
0.0394108
0.040065
0.0429565
0.0484693
0.0567883
0.0674477
0.0796345
0.0919265
0.102982
0.112521
0.121516
0.132164
0.146109
0.164494
0.187114
0.213279
0.241999
0.272447
0.304044
0.336374
0.36921
0.402439
0.436031
0.470009
0.504435
0.53939
0.574967
0.611255
0.648341
0.68629
0.725143
0.764927
0.805646
0.847283
0.889803
0.933151
0.977258
1.02204
1.06742
1.1133
1.1596
1.20621
1.25306
1.30009
1.34721
1.39437
1.44154
1.48868
1.53576
1.58277
1.62971
1.67657
1.72336
1.7701
1.81681
1.86349
1.91018
1.95688
2.00363
2.05045
2.09734
2.14433
2.19143
2.23865
2.286
2.33348
2.38108
2.42882
2.47666
2.52461
2.57265
2.62075
2.6689
2.71705
2.76519
2.81328
2.86129
2.90918
2.9569
3.00442
3.05171
3.09875
3.14551
3.19196
3.23807
3.28382
3.3292
3.37418
3.41875
3.46291
3.50664
3.54994
3.59279
3.63519
3.67712
3.71857
3.75952
3.79995
3.83982
3.87911
3.91777
3.95574
3.99298
4.02942
4.06498
4.09961
4.13321
4.1657
4.197
4.227
4.25563
4.28279
4.30838
4.33233
4.35456
4.37497
4.39351
4.41013
4.42481
4.43752
4.44827
4.45706
4.46389
4.46877
4.47172
4.47278
4.47209
4.46956
4.46515
4.45898
4.45112
4.44161
4.43051
4.41788
4.40377
4.38823
4.37133
4.35309
4.33357
4.3128
4.29083
4.26769
4.24342
4.21804
4.19157
4.16406
4.13553
4.10601
4.07552
4.04412
4.01183
3.97871
3.9448
3.91015
3.87484
3.83892
3.80247
3.76558
3.72834
3.69084
3.65319
3.61553
3.57798
3.54073
3.50397
3.46785
3.43274
3.39836
3.35848
0.00166942
0.028334
0.0523266
0.0607842
0.0625238
0.0609484
0.0577109
0.0541884
0.0512399
0.0496957
0.0493076
0.0505484
0.0538426
0.0592109
0.0665041
0.0752569
0.0847101
0.094114
0.102978
0.111633
0.121186
0.13312
0.148411
0.167659
0.190593
0.216422
0.244341
0.273641
0.303835
0.334619
0.365826
0.397395
0.429329
0.461678
0.494519
0.527948
0.562069
0.596987
0.6328
0.669592
0.707426
0.746351
0.786394
0.827564
0.869848
0.913215
0.957614
1.00298
1.04923
1.09629
1.14406
1.19244
1.24134
1.29067
1.34034
1.39027
1.4404
1.49066
1.541
1.59139
1.64179
1.69219
1.74258
1.79296
1.84332
1.89368
1.94404
1.99443
2.04485
2.09533
2.14588
2.19652
2.24727
2.29813
2.34911
2.40022
2.45147
2.50285
2.55436
2.60598
2.65771
2.70952
2.76138
2.81328
2.86517
2.91702
2.9688
3.02045
3.07194
3.1232
3.17421
3.22492
3.2753
3.32532
3.37494
3.42412
3.47285
3.5211
3.56884
3.61608
3.66279
3.70897
3.75462
3.79972
3.84428
3.88829
3.93173
3.9746
4.01687
4.05854
4.09956
4.1399
4.17951
4.21835
4.25636
4.29347
4.3296
4.36467
4.3986
4.4313
4.46267
4.49261
4.52102
4.54782
4.57289
4.59615
4.6175
4.63685
4.65414
4.66934
4.68242
4.69338
4.70222
4.70893
4.71351
4.71597
4.71637
4.71493
4.71134
4.70573
4.69821
4.68883
4.67767
4.66479
4.65026
4.63414
4.61651
4.59742
4.57693
4.55509
4.53196
4.50759
4.48201
4.45527
4.42741
4.39846
4.36845
4.33742
4.30541
4.27243
4.23855
4.20379
4.16819
4.13182
4.09472
4.05696
4.0186
3.97971
3.94039
3.90072
3.86081
3.82077
3.78073
3.74083
3.70124
3.66216
3.62372
3.58631
3.54961
3.50841
0.00259294
0.0357253
0.0611805
0.0692603
0.0705524
0.0683617
0.0648363
0.0616281
0.0598786
0.0593696
0.0603257
0.0631747
0.0676161
0.0733897
0.0801038
0.0873157
0.0947242
0.102441
0.111061
0.121485
0.134537
0.150922
0.170686
0.193507
0.218682
0.245511
0.273447
0.302094
0.33123
0.360741
0.390603
0.420843
0.451528
0.482747
0.514607
0.547219
0.580697
0.615151
0.650674
0.687348
0.725239
0.764395
0.804845
0.8466
0.88965
0.933967
0.979506
1.02621
1.07399
1.12278
1.17247
1.22297
1.27418
1.32599
1.37831
1.43107
1.48416
1.53752
1.59109
1.64482
1.69865
1.75256
1.80652
1.86052
1.91455
1.9686
2.02268
2.0768
2.13096
2.18518
2.23947
2.29385
2.34832
2.4029
2.45761
2.51243
2.56739
2.62246
2.67766
2.73297
2.78837
2.84383
2.89934
2.95486
3.01035
3.06577
3.12107
3.1762
3.23112
3.28575
3.34005
3.39396
3.44746
3.5005
3.55304
3.60503
3.65644
3.70725
3.75745
3.807
3.8559
3.90415
3.95174
3.99867
4.04493
4.09054
4.13548
4.17975
4.22334
4.26624
4.30843
4.34988
4.39055
4.4304
4.46937
4.50741
4.54445
4.5804
4.61519
4.64872
4.68089
4.71161
4.74078
4.76829
4.79404
4.81792
4.83982
4.85963
4.87728
4.89271
4.90591
4.91684
4.92552
4.93192
4.93604
4.93784
4.93752
4.93512
4.93034
4.92341
4.91441
4.90342
4.8905
4.87575
4.85924
4.84105
4.82126
4.79994
4.77715
4.75298
4.72748
4.7007
4.67271
4.64355
4.61327
4.5819
4.54949
4.51608
4.48169
4.44637
4.41016
4.37309
4.33522
4.29659
4.25725
4.21726
4.17669
4.13561
4.0941
4.05226
4.01019
3.96799
3.92581
3.88378
3.84206
3.80086
3.7603
3.72075
3.68188
3.63948
0.00364475
0.0439716
0.0703658
0.0781193
0.0790127
0.0761477
0.0723871
0.0698184
0.0688068
0.0687731
0.0706054
0.0737667
0.077968
0.0829633
0.0886047
0.0949777
0.102465
0.111583
0.12298
0.137076
0.154203
0.174202
0.196634
0.220946
0.246569
0.273069
0.300159
0.327671
0.355542
0.383771
0.412407
0.441528
0.471234
0.501633
0.532845
0.564988
0.598175
0.632507
0.668075
0.704961
0.743225
0.782914
0.824053
0.866652
0.9107
0.956176
1.00304
1.05123
1.10067
1.1513
1.20301
1.25571
1.3093
1.36367
1.41872
1.47436
1.53049
1.58703
1.64389
1.70101
1.75833
1.8158
1.87337
1.93103
1.98874
2.04649
2.10428
2.1621
2.21997
2.27788
2.33584
2.39387
2.45197
2.51016
2.56844
2.62683
2.68532
2.74391
2.8026
2.86137
2.92021
2.97909
3.03799
3.09686
3.15567
3.21436
3.27289
3.33119
3.38921
3.44688
3.50412
3.56088
3.61712
3.67278
3.72782
3.7822
3.83586
3.88879
3.94095
3.99233
4.04292
4.09271
4.14169
4.18987
4.23726
4.28385
4.32966
4.37469
4.41893
4.46238
4.50504
4.54688
4.58787
4.62799
4.66719
4.70541
4.74261
4.7787
4.81362
4.84726
4.87953
4.91035
4.9396
4.9672
4.99303
5.01698
5.03893
5.05874
5.07633
5.09162
5.10457
5.11517
5.12342
5.12929
5.13274
5.13372
5.13259
5.12897
5.12287
5.11449
5.10391
5.09121
5.07646
5.05977
5.04123
5.02093
4.99896
4.97541
4.95035
4.92387
4.89605
4.86694
4.83662
4.80514
4.77256
4.73892
4.70426
4.66864
4.63208
4.59463
4.55632
4.5172
4.4773
4.43669
4.39539
4.35347
4.311
4.26803
4.22466
4.18096
4.13703
4.093
4.04898
4.00511
3.96156
3.91851
3.87607
3.83463
3.79382
3.75044
0.00477095
0.0520962
0.079425
0.0868378
0.0872332
0.0833983
0.079143
0.0766593
0.0757494
0.0757436
0.0775567
0.0804182
0.0843056
0.0892866
0.0956196
0.103638
0.113722
0.126178
0.141264
0.158916
0.17893
0.200861
0.224254
0.248692
0.273853
0.299528
0.325615
0.35208
0.378954
0.406296
0.434195
0.462748
0.492071
0.522276
0.553478
0.585781
0.619284
0.654079
0.690249
0.727864
0.766977
0.807631
0.849851
0.89365
0.939023
0.985953
1.03441
1.08433
1.13567
1.18834
1.24226
1.29734
1.35347
1.41054
1.46845
1.52709
1.58635
1.64614
1.70636
1.76692
1.82774
1.88877
1.94994
2.01122
2.07256
2.13394
2.19535
2.25676
2.31819
2.37962
2.44107
2.50253
2.56402
2.62555
2.68712
2.74875
2.81043
2.87217
2.93397
2.9958
3.05766
3.11952
3.18134
3.24309
3.30473
3.36619
3.42742
3.48835
3.54893
3.60906
3.66867
3.72769
3.78607
3.84375
3.90067
3.95679
4.01205
4.06643
4.11989
4.17241
4.22399
4.2746
4.32425
4.37294
4.4207
4.46751
4.5134
4.55837
4.60245
4.64561
4.68789
4.72925
4.7697
4.80921
4.84774
4.88527
4.92173
4.95709
4.99126
5.02415
5.05568
5.08576
5.1143
5.14122
5.1664
5.18974
5.2111
5.23034
5.24733
5.26199
5.27428
5.28417
5.29167
5.29675
5.29932
5.29937
5.29713
5.29207
5.28454
5.27461
5.26235
5.24787
5.23124
5.21259
5.19202
5.16963
5.14551
5.11978
5.09253
5.06384
5.03381
5.00252
4.97003
4.93641
4.90174
4.86604
4.82939
4.79182
4.75337
4.71408
4.67399
4.63314
4.59157
4.54933
4.50645
4.46298
4.41899
4.37453
4.32968
4.28452
4.23914
4.19366
4.14819
4.10286
4.05783
4.01328
3.9693
3.9263
3.88383
3.83979
0.00599348
0.0601058
0.0880494
0.0950262
0.0946087
0.0895251
0.0845558
0.0818914
0.0809199
0.0809385
0.0830938
0.0866566
0.0918485
0.098816
0.107755
0.11886
0.132256
0.148006
0.165949
0.18579
0.207198
0.229813
0.253346
0.277574
0.302358
0.327631
0.35339
0.379664
0.406512
0.433997
0.462214
0.491257
0.521232
0.552235
0.584365
0.617715
0.652373
0.68842
0.725926
0.764954
0.805551
0.847756
0.891593
0.937083
0.984227
1.03302
1.08343
1.13544
1.18897
1.24398
1.30036
1.35803
1.41688
1.47681
1.53768
1.59939
1.66183
1.72487
1.78841
1.85235
1.9166
1.98107
2.04569
2.1104
2.17515
2.23991
2.30464
2.36933
2.43396
2.49854
2.56304
2.62749
2.69188
2.75623
2.82055
2.88483
2.9491
3.01336
3.07759
3.14179
3.20595
3.27004
3.33403
3.39788
3.46154
3.52495
3.58805
3.65076
3.71303
3.77475
3.83583
3.89621
3.95582
4.0146
4.07248
4.12941
4.18533
4.24022
4.29403
4.34674
4.39835
4.44883
4.4982
4.54645
4.5936
4.63966
4.68466
4.7286
4.77152
4.81341
4.8543
4.89419
4.93308
4.97097
5.00783
5.04364
5.07837
5.11201
5.14445
5.17562
5.20545
5.23386
5.26078
5.28613
5.30982
5.33175
5.35178
5.36976
5.38553
5.39902
5.41013
5.41886
5.42525
5.42926
5.43071
5.42976
5.42596
5.41939
5.41029
5.3987
5.3847
5.36839
5.34989
5.3293
5.30675
5.28235
5.25621
5.22844
5.19915
5.16845
5.13643
5.10318
5.06879
5.03333
4.99686
4.95945
4.92115
4.882
4.84204
4.80132
4.75987
4.71773
4.67493
4.63151
4.58751
4.54297
4.49794
4.45248
4.40664
4.36051
4.31416
4.2677
4.22124
4.17491
4.12884
4.08322
4.0381
3.99395
3.95017
3.90589
0.00740988
0.0673579
0.0956593
0.102139
0.100293
0.0937721
0.0883029
0.0855515
0.0848953
0.085999
0.0897343
0.0953475
0.103006
0.112738
0.124647
0.138964
0.155859
0.174715