/*--------------------------------*- C++ -*----------------------------------*\
  =========                 |
  \\      /  F ield         | OpenFOAM: The Open Source CFD Toolbox
   \\    /   O peration     | Website:  https://openfoam.org
    \\  /    A nd           | Version:  8
     \\/     M anipulation  |
\*---------------------------------------------------------------------------*/
FoamFile
{
    version     2.0;
    format      ascii;
    class       surfaceScalarField;
    location    "800";
    object      phi;
}
// * * * * * * * * * * * * * * * * * * * * * * * * * * * * * * * * * * * * * //

dimensions      [0 3 -1 0 0 0 0];

internalField   nonuniform List<scalar> 
24170
(
3.05204e-06
8.17897e-08
2.93524e-06
1.16824e-07
2.83311e-06
1.01865e-07
2.74996e-06
8.24815e-08
2.67138e-06
7.72161e-08
2.59789e-06
7.19968e-08
2.53742e-06
5.93111e-08
2.48925e-06
4.83789e-08
2.44599e-06
4.35908e-08
2.4072e-06
3.91299e-08
2.37296e-06
3.43419e-08
2.34166e-06
3.13749e-08
2.3125e-06
2.91735e-08
2.28661e-06
2.59234e-08
2.26565e-06
2.09222e-08
2.24922e-06
1.64122e-08
2.23768e-06
1.14996e-08
9.75647e-09
2.22793e-06
3.50517e-06
3.26414e-08
3.4979e-06
1.21589e-07
3.48087e-06
1.16589e-07
3.46267e-06
9.84946e-08
3.44713e-06
9.05722e-08
3.42963e-06
8.77562e-08
3.40643e-06
8.17811e-08
3.38505e-06
7.01006e-08
3.36339e-06
6.58095e-08
3.33848e-06
6.45249e-08
3.31175e-06
6.13237e-08
3.28557e-06
5.77452e-08
3.25983e-06
5.50241e-08
3.23429e-06
5.15317e-08
3.21041e-06
4.48203e-08
3.1889e-06
3.79252e-08
3.17097e-06
2.94541e-08
2.57582e-08
3.15493e-06
3.8185e-06
2.62819e-08
3.83157e-06
1.08959e-07
3.84138e-06
1.07086e-07
3.8469e-06
9.28787e-08
3.85029e-06
8.66631e-08
3.85197e-06
8.53814e-08
3.85157e-06
8.19111e-08
3.84822e-06
7.36888e-08
3.84384e-06
7.04947e-08
3.83877e-06
6.98591e-08
3.8326e-06
6.75818e-08
3.8258e-06
6.46247e-08
3.81866e-06
6.22053e-08
3.8113e-06
5.8923e-08
3.80309e-06
5.30028e-08
3.7942e-06
4.67777e-08
3.78413e-06
3.95077e-08
3.55168e-08
3.7744e-06
4.2051e-06
2.54835e-08
4.21936e-06
9.27776e-08
4.22982e-06
9.49855e-08
4.23614e-06
8.5116e-08
4.24093e-06
8.07564e-08
4.24531e-06
8.03897e-08
4.24924e-06
7.80719e-08
4.25114e-06
7.23639e-08
4.25253e-06
6.97995e-08
4.25404e-06
6.88977e-08
4.25535e-06
6.67001e-08
4.25636e-06
6.39711e-08
4.25717e-06
6.16943e-08
4.25783e-06
5.84767e-08
4.25765e-06
5.33152e-08
4.25667e-06
4.78531e-08
4.2542e-06
4.20539e-08
3.80502e-08
4.25166e-06
4.63912e-06
2.35869e-08
4.65153e-06
8.1075e-08
4.66063e-06
8.63457e-08
4.66621e-06
7.97716e-08
4.6707e-06
7.61196e-08
4.67533e-06
7.56675e-08
4.6799e-06
7.3537e-08
4.68318e-06
6.92761e-08
4.68612e-06
6.70218e-08
4.68931e-06
6.5786e-08
4.69242e-06
6.36193e-08
4.69534e-06
6.10754e-08
4.69832e-06
5.87541e-08
4.70126e-06
5.55631e-08
4.70355e-06
5.10315e-08
4.70514e-06
4.62543e-08
4.70571e-06
4.14699e-08
3.7653e-08
4.70628e-06
5.11724e-06
2.08237e-08
5.128e-06
6.89578e-08
5.13651e-06
7.66634e-08
5.14209e-06
7.32312e-08
5.1467e-06
7.08561e-08
5.1515e-06
7.06736e-08
5.15622e-06
6.90415e-08
5.16003e-06
6.59396e-08
5.1636e-06
6.39135e-08
5.16737e-06
6.24197e-08
5.17108e-06
6.02669e-08
5.17468e-06
5.78146e-08
5.17837e-06
5.53642e-08
5.18197e-06
5.21971e-08
5.18502e-06
4.81496e-08
5.18748e-06
4.3925e-08
5.18932e-06
3.98006e-08
3.60305e-08
5.191e-06
5.64362e-06
1.82185e-08
5.65326e-06
6.00509e-08
5.66166e-06
6.88466e-08
5.66752e-06
6.75979e-08
5.67241e-06
6.6063e-08
5.67741e-06
6.57428e-08
5.68227e-06
6.43266e-08
5.68645e-06
6.18885e-08
5.69045e-06
5.99561e-08
5.69458e-06
5.82725e-08
5.69866e-06
5.61912e-08
5.70266e-06
5.385e-08
5.7067e-06
5.13844e-08
5.71059e-06
4.83715e-08
5.714e-06
4.47812e-08
5.71691e-06
4.10656e-08
5.71936e-06
3.74063e-08
3.39239e-08
5.72159e-06
4.40795e-06
1.64345e-08
4.41384e-06
5.33728e-08
4.41953e-06
6.25148e-08
4.42389e-06
6.26701e-08
4.42767e-06
6.1954e-08
4.4315e-06
6.18424e-08
4.43524e-06
6.07546e-08
4.43861e-06
5.873e-08
4.44183e-06
5.69228e-08
4.44505e-06
5.52063e-08
4.44822e-06
5.31931e-08
4.45132e-06
5.09321e-08
4.45439e-06
4.84859e-08
4.45731e-06
4.5583e-08
4.45993e-06
4.22657e-08
4.46224e-06
3.88376e-08
4.46426e-06
3.54584e-08
3.22223e-08
4.46611e-06
5.14179e-06
1.44458e-08
5.14775e-06
4.80781e-08
5.15373e-06
5.68997e-08
5.1586e-06
5.80185e-08
5.1629e-06
5.77582e-08
5.16719e-06
5.76825e-08
5.17135e-06
5.67149e-08
5.17518e-06
5.49635e-08
5.17885e-06
5.32426e-08
5.1825e-06
5.1555e-08
5.1861e-06
4.96374e-08
5.18962e-06
4.74873e-08
5.19307e-06
4.51279e-08
5.19633e-06
4.24165e-08
5.1993e-06
3.93769e-08
5.20195e-06
3.62508e-08
5.20435e-06
3.31597e-08
3.01155e-08
5.20651e-06
5.99785e-06
1.25651e-08
6.0038e-06
4.19799e-08
6.01004e-06
5.04745e-08
6.01539e-06
5.24905e-08
6.02023e-06
5.2825e-08
6.02501e-06
5.28989e-08
6.02961e-06
5.21192e-08
6.03391e-06
5.06669e-08
6.03805e-06
4.90772e-08
6.04216e-06
4.74582e-08
6.0462e-06
4.56238e-08
6.05017e-06
4.35954e-08
6.05403e-06
4.13756e-08
6.05765e-06
3.8816e-08
6.061e-06
3.60732e-08
6.06404e-06
3.32492e-08
6.0668e-06
3.04345e-08
2.76879e-08
6.06933e-06
6.99628e-06
1.0474e-08
7.00225e-06
3.63264e-08
7.00867e-06
4.42226e-08
7.01448e-06
4.67554e-08
7.01986e-06
4.75157e-08
7.02514e-06
4.7675e-08
7.03022e-06
4.70839e-08
7.03503e-06
4.58229e-08
7.03969e-06
4.44235e-08
7.04429e-06
4.28638e-08
7.04882e-06
4.11631e-08
7.05326e-06
3.92705e-08
7.05752e-06
3.71207e-08
7.06157e-06
3.48051e-08
7.06531e-06
3.23243e-08
7.06874e-06
2.97994e-08
7.07192e-06
2.73113e-08
2.48177e-08
7.07481e-06
8.161e-06
8.65194e-09
8.16683e-06
3.06225e-08
8.17337e-06
3.77748e-08
8.1796e-06
4.05777e-08
8.18553e-06
4.16436e-08
8.19133e-06
4.19341e-08
8.1969e-06
4.1388e-08
8.2023e-06
4.04489e-08
8.2075e-06
3.91176e-08
8.21266e-06
3.77467e-08
8.2177e-06
3.61316e-08
8.2226e-06
3.43603e-08
8.22732e-06
3.24141e-08
8.23178e-06
3.03121e-08
8.23594e-06
2.81121e-08
8.23983e-06
2.59254e-08
8.24339e-06
2.37187e-08
2.15849e-08
8.2467e-06
9.51954e-06
6.80432e-09
9.52526e-06
2.50259e-08
9.53185e-06
3.1248e-08
9.53847e-06
3.40184e-08
9.54494e-06
3.52514e-08
9.55122e-06
3.54958e-08
9.55743e-06
3.5195e-08
9.56337e-06
3.42936e-08
9.56926e-06
3.3249e-08
9.57495e-06
3.19144e-08
9.58056e-06
3.05053e-08
9.58596e-06
2.88958e-08
9.59115e-06
2.71757e-08
9.59606e-06
2.53349e-08
9.60072e-06
2.3485e-08
9.60503e-06
2.16021e-08
9.60907e-06
1.97449e-08
1.7919e-08
9.61274e-06
1.11044e-05
5.1629e-09
1.11099e-05
1.96884e-08
1.11165e-05
2.47614e-08
1.11235e-05
2.72169e-08
1.11304e-05
2.8267e-08
1.11373e-05
2.85668e-08
1.1144e-05
2.82276e-08
1.11507e-05
2.75606e-08
1.11572e-05
2.65934e-08
1.11636e-05
2.54921e-08
1.11698e-05
2.42323e-08
1.11758e-05
2.28711e-08
1.11815e-05
2.14152e-08
1.11869e-05
1.99155e-08
1.11921e-05
1.83774e-08
1.11969e-05
1.68432e-08
1.12014e-05
1.5312e-08
1.38395e-08
1.12055e-05
1.29532e-05
3.60574e-09
1.29585e-05
1.4607e-08
1.29651e-05
1.83955e-08
1.29723e-05
2.00814e-08
1.29798e-05
2.08805e-08
1.29872e-05
2.09777e-08
1.29947e-05
2.06727e-08
1.30021e-05
2.00872e-08
1.30093e-05
1.92963e-08
1.30164e-05
1.83777e-08
1.30233e-05
1.73503e-08
1.30299e-05
1.62615e-08
1.30363e-05
1.51077e-08
1.30423e-05
1.39308e-08
1.3048e-05
1.27311e-08
1.30534e-05
1.15432e-08
1.30584e-05
1.03617e-08
9.24959e-09
1.30631e-05
1.511e-05
2.13125e-09
1.51151e-05
9.7614e-09
1.51217e-05
1.1874e-08
1.51293e-05
1.26866e-08
1.51372e-05
1.29073e-08
1.51454e-05
1.27635e-08
1.51536e-05
1.23933e-08
1.51618e-05
1.18592e-08
1.51699e-05
1.12223e-08
1.51779e-05
1.05056e-08
1.51855e-05
9.73818e-09
1.51929e-05
8.93213e-09
1.52e-05
8.10274e-09
1.52068e-05
7.26301e-09
1.52131e-05
6.42345e-09
1.52191e-05
5.59847e-09
1.52248e-05
4.79065e-09
4.04665e-09
1.523e-05
1.76259e-05
6.69498e-10
1.76309e-05
4.75406e-09
1.76378e-05
4.98639e-09
1.76458e-05
4.66811e-09
1.76545e-05
4.14913e-09
1.76636e-05
3.68633e-09
1.76728e-05
3.12016e-09
1.76821e-05
2.64459e-09
1.76912e-05
2.10869e-09
1.77001e-05
1.64545e-09
1.77088e-05
1.13895e-09
1.77171e-05
6.82519e-10
1.7725e-05
1.97118e-10
1.77326e-05
-2.47698e-10
1.77398e-05
-7.03572e-10
1.77465e-05
-1.11975e-09
1.77529e-05
-1.53197e-09
-1.87569e-09
1.77589e-05
1.78275e-05
-7.00667e-10
1.7832e-05
-1.0492e-10
1.78386e-05
-1.70865e-09
1.78463e-05
-3.31265e-09
1.7855e-05
-4.46772e-09
1.78638e-05
-5.45226e-09
1.78732e-05
-6.07087e-09
1.78823e-05
-6.63467e-09
1.78915e-05
-6.93677e-09
1.79003e-05
-7.24481e-09
1.7909e-05
-7.38417e-09
1.79171e-05
-7.56102e-09
1.79251e-05
-7.62827e-09
1.79325e-05
-7.73718e-09
1.79397e-05
-7.76959e-09
1.79463e-05
-7.83605e-09
1.79527e-05
-7.84106e-09
-7.84552e-09
1.79586e-05
1.58825e-05
-1.93489e-09
1.58864e-05
-4.39405e-09
1.58923e-05
-7.89477e-09
1.58994e-05
-1.05555e-08
1.59071e-05
-1.24684e-08
1.59154e-05
-1.36895e-08
1.59236e-05
-1.45247e-08
1.59321e-05
-1.49361e-08
1.59401e-05
-1.51632e-08
1.59482e-05
-1.51345e-08
1.59557e-05
-1.50517e-08
1.59632e-05
-1.48275e-08
1.59701e-05
-1.46115e-08
1.59768e-05
-1.43137e-08
1.5983e-05
-1.40452e-08
1.5989e-05
-1.37241e-08
1.59945e-05
-1.34369e-08
-1.30838e-08
1.59998e-05
1.41497e-05
-3.12276e-09
1.41534e-05
-8.3585e-09
1.4159e-05
-1.37197e-08
1.41658e-05
-1.74659e-08
1.41731e-05
-1.99531e-08
1.41808e-05
-2.14824e-08
1.41885e-05
-2.2315e-08
1.41962e-05
-2.26707e-08
1.42037e-05
-2.2634e-08
1.42109e-05
-2.23728e-08
1.42178e-05
-2.19339e-08
1.42244e-05
-2.14178e-08
1.42307e-05
-2.08305e-08
1.42366e-05
-2.0232e-08
1.42422e-05
-1.96093e-08
1.42474e-05
-1.90032e-08
1.42525e-05
-1.83869e-08
-1.77777e-08
1.42571e-05
1.26061e-05
-4.22645e-09
1.26097e-05
-1.21952e-08
1.26153e-05
-1.94819e-08
1.26219e-05
-2.42498e-08
1.2629e-05
-2.71665e-08
1.26363e-05
-2.88568e-08
1.26436e-05
-2.96867e-08
1.26508e-05
-2.987e-08
1.26577e-05
-2.95709e-08
1.26643e-05
-2.89942e-08
1.26706e-05
-2.82266e-08
1.26766e-05
-2.73845e-08
1.26822e-05
-2.64645e-08
1.26875e-05
-2.55551e-08
1.26925e-05
-2.46206e-08
1.26973e-05
-2.37314e-08
1.27017e-05
-2.2838e-08
-2.19734e-08
1.27059e-05
1.12307e-05
-5.32293e-09
1.12344e-05
-1.59224e-08
1.12403e-05
-2.5335e-08
1.12469e-05
-3.08801e-08
1.12538e-05
-3.41642e-08
1.12609e-05
-3.59674e-08
1.12678e-05
-3.67234e-08
1.12745e-05
-3.66275e-08
1.12809e-05
-3.60148e-08
1.1287e-05
-3.50925e-08
1.12928e-05
-3.40064e-08
1.12982e-05
-3.2802e-08
1.13033e-05
-3.15877e-08
1.13081e-05
-3.03422e-08
1.13125e-05
-2.91571e-08
1.13168e-05
-2.79689e-08
1.13208e-05
-2.68614e-08
-2.57333e-08
1.13246e-05
1.00055e-05
-6.16505e-09
1.00092e-05
-1.98512e-08
1.00154e-05
-3.16107e-08
1.00221e-05
-3.77372e-08
1.00289e-05
-4.09823e-08
1.00357e-05
-4.28055e-08
1.00423e-05
-4.33558e-08
1.00486e-05
-4.29878e-08
1.00545e-05
-4.20326e-08
1.00601e-05
-4.07427e-08
1.00654e-05
-3.92965e-08
1.00703e-05
-3.77722e-08
1.0075e-05
-3.62289e-08
1.00793e-05
-3.47169e-08
1.00834e-05
-3.32362e-08
1.00872e-05
-3.18307e-08
1.00908e-05
-3.04613e-08
-2.91687e-08
1.00942e-05
8.91366e-06
-6.96222e-09
8.91767e-06
-2.38493e-08
8.92416e-06
-3.79909e-08
8.93088e-06
-4.42364e-08
8.93753e-06
-4.77421e-08
8.94415e-06
-4.95026e-08
8.95045e-06
-4.98024e-08
8.95638e-06
-4.89671e-08
8.96195e-06
-4.75968e-08
8.96715e-06
-4.59987e-08
8.97201e-06
-4.42075e-08
8.97655e-06
-4.2362e-08
8.98079e-06
-4.05049e-08
8.98476e-06
-3.87069e-08
8.98846e-06
-3.69815e-08
8.99194e-06
-3.53308e-08
8.99519e-06
-3.37613e-08
-3.22426e-08
8.99827e-06
7.94073e-06
-6.9427e-09
7.94556e-06
-2.8829e-08
7.95206e-06
-4.45612e-08
7.9584e-06
-5.0777e-08
7.965e-06
-5.42821e-08
7.97155e-06
-5.61099e-08
7.97777e-06
-5.59867e-08
7.98353e-06
-5.47752e-08
7.98886e-06
-5.30413e-08
7.99383e-06
-5.09982e-08
7.99843e-06
-4.88461e-08
8.0027e-06
-4.66392e-08
8.00664e-06
-4.44853e-08
8.0103e-06
-4.24035e-08
8.01369e-06
-4.04204e-08
8.01686e-06
-3.85299e-08
8.01981e-06
-3.67466e-08
-3.50567e-08
8.02258e-06
7.07166e-06
-4.38363e-09
7.07924e-06
-3.63273e-08
7.08616e-06
-5.1256e-08
7.09259e-06
-5.69747e-08
7.0993e-06
-6.10247e-08
7.10597e-06
-6.27814e-08
7.1122e-06
-6.2309e-08
7.11797e-06
-6.05854e-08
7.1233e-06
-5.83411e-08
7.12817e-06
-5.59034e-08
7.13262e-06
-5.33098e-08
7.13665e-06
-5.0719e-08
7.14032e-06
-4.81808e-08
7.14365e-06
-4.57701e-08
7.14669e-06
-4.34818e-08
7.14946e-06
-4.13331e-08
7.15199e-06
-3.93113e-08
-3.73862e-08
7.15427e-06
6.29479e-06
3.43623e-09
6.30627e-06
-4.74294e-08
6.31508e-06
-6.01693e-08
6.32352e-06
-6.5483e-08
6.33187e-06
-6.92502e-08
6.33935e-06
-7.02349e-08
6.34593e-06
-6.88434e-08
6.35175e-06
-6.63918e-08
6.35689e-06
-6.35345e-08
6.36141e-06
-6.04236e-08
6.36534e-06
-5.72532e-08
6.36874e-06
-5.41127e-08
6.37165e-06
-5.11145e-08
6.37413e-06
-4.82672e-08
6.37622e-06
-4.56058e-08
6.37799e-06
-4.31308e-08
6.37948e-06
-4.08403e-08
-3.87257e-08
6.38078e-06
5.61059e-06
7.875e-09
5.62394e-06
-6.01957e-08
5.63407e-06
-7.00363e-08
5.64521e-06
-7.64927e-08
5.65657e-06
-8.04529e-08
5.66615e-06
-7.97334e-08
5.67367e-06
-7.63207e-08
5.6793e-06
-7.19873e-08
5.68324e-06
-6.74534e-08
5.68576e-06
-6.29329e-08
5.68708e-06
-5.8558e-08
5.68738e-06
-5.4424e-08
5.68684e-06
-5.0585e-08
5.68561e-06
-4.70533e-08
5.68383e-06
-4.38326e-08
5.68161e-06
-4.09357e-08
5.67907e-06
-3.83321e-08
-3.60291e-08
5.67634e-06
5.04359e-06
-3.32385e-08
5.06552e-06
-8.132e-08
5.07454e-06
-7.86768e-08
5.07886e-06
-8.06398e-08
5.08055e-06
-8.19615e-08
5.07805e-06
-7.71383e-08
5.0716e-06
-6.98043e-08
5.06178e-06
-6.21061e-08
5.04933e-06
-5.49733e-08
5.03502e-06
-4.86142e-08
5.01951e-06
-4.30316e-08
5.00326e-06
-3.81827e-08
4.98668e-06
-3.40015e-08
4.97004e-06
-3.04137e-08
4.95354e-06
-2.73536e-08
4.93737e-06
-2.47832e-08
4.9217e-06
-2.26901e-08
-2.15108e-08
4.90715e-06
4.42335e-06
4.34207e-06
4.26341e-06
4.18279e-06
4.10084e-06
4.02371e-06
3.95391e-06
3.89181e-06
3.83684e-06
3.78823e-06
3.74519e-06
3.70701e-06
3.67301e-06
3.64259e-06
3.61524e-06
3.59045e-06
3.56775e-06
3.54623e-06
-7.90092e-09
7.89853e-09
-2.13835e-08
1.34796e-08
-3.56536e-08
1.4262e-08
-4.71191e-08
1.14803e-08
-5.08854e-08
3.75762e-09
-4.21939e-08
-8.66502e-09
-2.05273e-08
-2.16684e-08
1.10798e-08
-3.15957e-08
4.81693e-08
-3.70831e-08
8.60567e-08
-3.78979e-08
1.20741e-07
-3.46772e-08
1.49406e-07
-2.86847e-08
1.70368e-07
-2.09583e-08
1.82645e-07
-1.2295e-08
1.85918e-07
-3.27554e-09
1.80367e-07
5.53778e-09
1.66883e-07
1.34764e-08
1.4699e-07
1.98848e-08
1.2277e-07
2.42064e-08
9.67528e-08
2.60134e-08
7.16182e-08
2.51134e-08
4.99312e-08
2.16851e-08
3.36043e-08
1.62928e-08
2.39189e-08
9.68565e-09
2.14308e-08
2.43328e-09
2.62168e-08
-4.78625e-09
3.80684e-08
-1.19113e-08
5.64227e-08
-1.83655e-08
7.87147e-08
-2.23432e-08
1.00241e-07
-2.15417e-08
1.16911e-07
-1.66965e-08
1.28201e-07
-1.12723e-08
1.3543e-07
-7.17024e-09
1.40852e-07
-5.41474e-09
1.38867e-07
2.22832e-09
1.19433e-07
1.92231e-08
7.58288e-08
4.39535e-08
3.72143e-09
7.17766e-08
-9.06642e-08
9.45515e-08
-2.0407e-07
1.13261e-07
-3.32912e-07
1.28853e-07
-4.73832e-07
1.40912e-07
-6.22928e-07
1.49068e-07
-7.75094e-07
1.52171e-07
-9.25486e-07
1.50377e-07
-1.0723e-06
1.46785e-07
-1.21342e-06
1.41128e-07
-1.34425e-06
1.30785e-07
-1.46474e-06
1.20512e-07
-1.57512e-06
1.10339e-07
-1.67633e-06
1.01239e-07
-1.76803e-06
9.16846e-08
-1.84907e-06
8.10623e-08
-1.92207e-06
7.29935e-08
-1.98761e-06
6.55523e-08
-2.04697e-06
5.93592e-08
-2.10116e-06
5.42076e-08
-2.15058e-06
4.94209e-08
-2.19583e-06
4.52597e-08
-2.2376e-06
4.17784e-08
-2.27636e-06
3.87762e-08
-2.31255e-06
3.61898e-08
-2.34648e-06
3.39395e-08
-2.37844e-06
3.19696e-08
-2.40867e-06
3.0237e-08
-2.43736e-06
2.86928e-08
-2.46466e-06
2.731e-08
-2.49071e-06
2.6053e-08
-2.5156e-06
2.49038e-08
-2.53943e-06
2.38365e-08
-2.56226e-06
2.28398e-08
-2.58415e-06
2.18946e-08
-2.60513e-06
2.09938e-08
-2.62525e-06
2.01224e-08
-2.64451e-06
1.92769e-08
-2.66294e-06
1.84452e-08
-2.68055e-06
1.76259e-08
-2.69735e-06
1.68101e-08
-2.71333e-06
1.59971e-08
-2.7285e-06
1.5181e-08
-2.74285e-06
1.436e-08
-2.75637e-06
1.35303e-08
-2.76905e-06
1.26875e-08
-2.78086e-06
1.18301e-08
-2.79181e-06
1.09514e-08
-2.80184e-06
1.00533e-08
-2.81096e-06
9.12659e-09
-2.81913e-06
8.17417e-09
-2.82633e-06
7.18931e-09
-2.83252e-06
6.16035e-09
-2.83763e-06
5.09032e-09
-2.84161e-06
3.96407e-09
-2.84439e-06
2.76928e-09
-2.8459e-06
1.50352e-09
-2.84612e-06
2.1168e-10
-2.84516e-06
-9.70031e-10
-2.84317e-06
-2.01287e-09
-2.84018e-06
-3.01547e-09
-2.83619e-06
-4.01943e-09
-2.83118e-06
-5.04092e-09
-2.82514e-06
-6.08001e-09
-2.81804e-06
-7.14555e-09
-2.80985e-06
-8.22927e-09
-2.80055e-06
-9.34259e-09
-2.79011e-06
-1.04725e-08
-2.77852e-06
-1.16334e-08
-2.76573e-06
-1.28085e-08
-2.75174e-06
-1.40143e-08
-2.7365e-06
-1.52316e-08
-2.72003e-06
-1.64773e-08
-2.70227e-06
-1.77313e-08
-2.68324e-06
-1.90094e-08
-2.6629e-06
-2.02924e-08
-2.64126e-06
-2.15931e-08
-2.61829e-06
-2.28954e-08
-2.59401e-06
-2.42072e-08
-2.5684e-06
-2.55173e-08
-2.54147e-06
-2.68273e-08
-2.51324e-06
-2.81327e-08
-2.48369e-06
-2.94279e-08
-2.45287e-06
-3.07156e-08
-2.42077e-06
-3.19831e-08
-2.38743e-06
-3.32401e-08
-2.35285e-06
-3.44679e-08
-2.31708e-06
-3.56825e-08
-2.28013e-06
-3.68621e-08
-2.24205e-06
-3.80287e-08
-2.20283e-06
-3.9157e-08
-2.16255e-06
-4.02676e-08
-2.12121e-06
-4.13342e-08
-2.07888e-06
-4.23801e-08
-2.03555e-06
-4.33886e-08
-1.99125e-06
-4.437e-08
-1.94599e-06
-4.53134e-08
-1.89982e-06
-4.62397e-08
-1.85278e-06
-4.71185e-08
-1.80492e-06
-4.79672e-08
-1.75624e-06
-4.87959e-08
-1.70678e-06
-4.95982e-08
-1.65656e-06
-5.03938e-08
-1.60558e-06
-5.1153e-08
-1.5539e-06
-5.18875e-08
-1.5015e-06
-5.25708e-08
-1.44845e-06
-5.32241e-08
-1.39475e-06
-5.3817e-08
-1.34045e-06
-5.43851e-08
-1.2855e-06
-5.48884e-08
-1.22999e-06
-5.53691e-08
-1.17394e-06
-5.58196e-08
-1.11743e-06
-5.62706e-08
-1.06046e-06
-5.67181e-08
-1.00305e-06
-5.71588e-08
-9.45212e-07
-5.75774e-08
-8.86991e-07
-5.79751e-08
-8.28407e-07
-5.83444e-08
-7.69503e-07
-5.86872e-08
-7.10299e-07
-5.89992e-08
-6.50839e-07
-5.92816e-08
-5.9114e-07
-5.95325e-08
-5.31248e-07
-5.97504e-08
-4.71181e-07
-5.99371e-08
-4.10981e-07
-6.0089e-08
-3.50671e-07
-6.02108e-08
-2.90287e-07
-6.02987e-08
-2.2985e-07
-6.03639e-08
-1.69387e-07
-6.04002e-08
-1.08916e-07
-6.04226e-08
-4.84687e-08
-6.04025e-08
1.18466e-08
-6.02834e-08
7.21077e-08
-6.02263e-08
1.32256e-07
-6.01297e-08
1.92064e-07
-5.97853e-08
2.5135e-07
-5.92781e-08
3.09884e-07
-5.852e-08
3.67246e-07
-5.73627e-08
4.22746e-07
-5.54939e-08
4.75088e-07
-5.23508e-08
5.21495e-07
-4.64086e-08
5.58074e-07
-3.65883e-08
3.08861e-09
5.55001e-07
-3.88892e-09
1.17844e-08
-1.00565e-08
1.96281e-08
-1.19158e-08
1.61033e-08
-1.98192e-09
1.56259e-09
2.30218e-08
-2.12571e-08
6.07782e-08
-4.64027e-08
1.05863e-07
-6.67548e-08
1.52638e-07
-7.83675e-08
1.96498e-07
-8.09401e-08
2.34648e-07
-7.60551e-08
2.65849e-07
-6.58761e-08
2.89599e-07
-5.24451e-08
3.05986e-07
-3.73449e-08
3.15362e-07
-2.16799e-08
3.18312e-07
-6.22752e-09
3.15388e-07
8.45461e-09
3.06903e-07
2.19549e-08
2.93033e-07
3.37519e-08
2.74112e-07
4.31193e-08
2.509e-07
4.92197e-08
2.2476e-07
5.12409e-08
1.97814e-07
4.86287e-08
1.72736e-07
4.13479e-08
1.52485e-07
2.99353e-08
1.39388e-07
1.54922e-08
1.3517e-07
-5.68731e-10
1.38946e-07
-1.57319e-08
1.46619e-07
-2.60434e-08
1.52157e-07
-2.79226e-08
1.50063e-07
-1.94525e-08
1.36428e-07
-3.0873e-09
1.05865e-07
1.9303e-08
4.94475e-08
4.93005e-08
-4.12939e-08
8.53247e-08
-1.63905e-07
1.24915e-07
-3.08988e-07
1.64249e-07
-4.66337e-07
2.01331e-07
-6.29094e-07
2.34472e-07
-7.95024e-07
2.60491e-07
-9.60697e-07
2.78917e-07
-1.12162e-06
2.89786e-07
-1.27362e-06
2.92925e-07
-1.4133e-06
2.88755e-07
-1.53927e-06
2.78155e-07
-1.65128e-06
2.62387e-07
-1.7483e-06
2.43801e-07
-1.83097e-06
2.23787e-07
-1.9029e-06
2.02695e-07
-1.96482e-06
1.82426e-07
-2.01845e-06
1.63951e-07
-2.06441e-06
1.47194e-07
-2.10485e-06
1.32115e-07
-2.14218e-06
1.18394e-07
-2.17591e-06
1.06726e-07
-2.20709e-06
9.67317e-08
-2.236e-06
8.82767e-08
-2.26289e-06
8.11022e-08
-2.28831e-06
7.4847e-08
-2.31247e-06
6.94275e-08
-2.33545e-06
6.4761e-08
-2.35737e-06
6.07074e-08
-2.37833e-06
5.71595e-08
-2.39842e-06
5.40273e-08
-2.41768e-06
5.12369e-08
-2.43616e-06
4.87287e-08
-2.45392e-06
4.64498e-08
-2.47096e-06
4.43593e-08
-2.48732e-06
4.24198e-08
-2.50301e-06
4.06034e-08
-2.51806e-06
3.88832e-08
-2.53245e-06
3.72402e-08
-2.5462e-06
3.56544e-08
-2.55931e-06
3.41133e-08
-2.57178e-06
3.26017e-08
-2.58361e-06
3.1111e-08
-2.59478e-06
2.96299e-08
-2.6053e-06
2.81528e-08
-2.61515e-06
2.66714e-08
-2.62433e-06
2.5182e-08
-2.63281e-06
2.36785e-08
-2.6406e-06
2.21579e-08
-2.64768e-06
2.06162e-08
-2.65403e-06
1.90498e-08
-2.65965e-06
1.74564e-08
-2.66453e-06
1.58323e-08
-2.66864e-06
1.41771e-08
-2.67199e-06
1.24873e-08
-2.67457e-06
1.07641e-08
-2.6764e-06
9.00293e-09
-2.67747e-06
7.21005e-09
-2.67778e-06
5.3817e-09
-2.67735e-06
3.52438e-09
-2.67623e-06
1.64536e-09
-2.6745e-06
-2.35927e-10
-2.67219e-06
-2.09726e-09
-2.66921e-06
-3.95617e-09
-2.66538e-06
-5.85353e-09
-2.66062e-06
-7.79227e-09
-2.6549e-06
-9.77118e-09
-2.64817e-06
-1.17903e-08
-2.64043e-06
-1.38541e-08
-2.63165e-06
-1.59623e-08
-2.62179e-06
-1.81171e-08
-2.61085e-06
-2.03185e-08
-2.59879e-06
-2.25661e-08
-2.58558e-06
-2.48605e-08
-2.57121e-06
-2.71984e-08
-2.55566e-06
-2.95814e-08
-2.5389e-06
-3.2003e-08
-2.5209e-06
-3.44653e-08
-2.50166e-06
-3.6959e-08
-2.48116e-06
-3.94865e-08
-2.45939e-06
-4.2036e-08
-2.43633e-06
-4.46098e-08
-2.41198e-06
-4.71945e-08
-2.38634e-06
-4.97916e-08
-2.3594e-06
-5.23877e-08
-2.33118e-06
-5.49827e-08
-2.30167e-06
-5.75643e-08
-2.27089e-06
-6.01302e-08
-2.23885e-06
-6.26709e-08
-2.20557e-06
-6.51816e-08
-2.17107e-06
-6.76562e-08
-2.13539e-06
-7.00875e-08
-2.09853e-06
-7.24745e-08
-2.06053e-06
-7.48092e-08
-2.02142e-06
-7.70959e-08
-1.98122e-06
-7.93246e-08
-1.93997e-06
-8.14999e-08
-1.8977e-06
-8.36121e-08
-1.85445e-06
-8.56681e-08
-1.81022e-06
-8.76592e-08
-1.76504e-06
-8.95937e-08
-1.71892e-06
-9.14627e-08
-1.67193e-06
-9.32783e-08
-1.62407e-06
-9.50229e-08
-1.57539e-06
-9.6712e-08
-1.52591e-06
-9.83488e-08
-1.47566e-06
-9.99467e-08
-1.42465e-06
-1.01502e-07
-1.37291e-06
-1.03009e-07
-1.32046e-06
-1.0445e-07
-1.26732e-06
-1.0582e-07
-1.21352e-06
-1.07118e-07
-1.15906e-06
-1.08341e-07
-1.10397e-06
-1.09487e-07
-1.04826e-06
-1.10555e-07
-9.9195e-07
-1.11556e-07
-9.35105e-07
-1.12517e-07
-8.77765e-07
-1.13452e-07
-8.19958e-07
-1.14375e-07
-7.61699e-07
-1.15263e-07
-7.03012e-07
-1.16115e-07
-6.43928e-07
-1.16913e-07
-5.84477e-07
-1.17659e-07
-5.24694e-07
-1.18345e-07
-4.64606e-07
-1.18972e-07
-4.04252e-07
-1.19536e-07
-3.43659e-07
-1.20035e-07
-2.82866e-07
-1.20469e-07
-2.21898e-07
-1.20835e-07
-1.60796e-07
-1.21137e-07
-9.95852e-08
-1.21372e-07
-3.83045e-08
-1.21544e-07
2.30229e-08
-1.21658e-07
8.43763e-08
-1.21735e-07
1.45732e-07
-1.21762e-07
2.07064e-07
-1.21729e-07
2.68379e-07
-1.21594e-07
3.29496e-07
-1.21346e-07
3.90273e-07
-1.20912e-07
4.50693e-07
-1.20215e-07
5.1062e-07
-1.19215e-07
5.6985e-07
-1.17765e-07
6.28044e-07
-1.15572e-07
6.84673e-07
-1.1214e-07
7.38734e-07
-1.06432e-07
7.89041e-07
-9.67348e-08
8.31899e-07
-7.94663e-08
-3.40578e-08
8.69042e-07
-2.74301e-10
1.20539e-08
4.30628e-09
1.50271e-08
2.36814e-08
-3.27935e-09
6.32133e-08
-3.79655e-08
1.17657e-07
-7.57013e-08
1.75762e-07
-1.04502e-07
2.28483e-07
-1.19473e-07
2.71413e-07
-1.21298e-07
3.0366e-07
-1.13184e-07
3.26246e-07
-9.86447e-08
3.40874e-07
-8.05008e-08
3.49117e-07
-6.06955e-08
3.52236e-07
-4.04615e-08
3.511e-07
-2.05489e-08
3.46299e-07
-1.42755e-09
3.38307e-07
1.64447e-08
3.27576e-07
3.26822e-08
3.14451e-07
4.68765e-08
2.9906e-07
5.85034e-08
2.81407e-07
6.68729e-08
2.61568e-07
7.10717e-08
2.40189e-07
7.00096e-08
2.18627e-07
6.28992e-08
1.98945e-07
4.96182e-08
1.83008e-07
3.14071e-08
1.70983e-07
1.14575e-08
1.55889e-07
-6.70852e-10
1.26333e-07
3.51395e-09
7.6674e-08
2.16962e-08
4.88018e-09
5.23307e-08
-9.29362e-08
9.47034e-08
-2.17154e-07
1.43511e-07
-3.62124e-07
1.94272e-07
-5.21225e-07
2.44405e-07
-6.86657e-07
2.90353e-07
-8.51536e-07
3.29091e-07
-1.00905e-06
3.58837e-07
-1.15388e-06
3.79281e-07
-1.28354e-06
3.9015e-07
-1.39655e-06
3.91925e-07
-1.49231e-06
3.85557e-07
-1.57156e-06
3.72193e-07
-1.63623e-06
3.53439e-07
-1.68912e-06
3.31061e-07
-1.73337e-06
3.06646e-07
-1.77121e-06
2.81644e-07
-1.80453e-06
2.57107e-07
-1.83546e-06
2.33612e-07
-1.86486e-06
2.11822e-07
-1.89299e-06
1.92071e-07
-1.92015e-06
1.74341e-07
-1.94662e-06
1.58583e-07
-1.97284e-06
1.4461e-07
-1.9985e-06
1.32384e-07
-2.02351e-06
1.21742e-07
-2.04775e-06
1.12511e-07
-2.07114e-06
1.045e-07
-2.09376e-06
9.74729e-08
-2.11563e-06
9.12937e-08
-2.13672e-06
8.58544e-08
-2.15704e-06
8.10378e-08
-2.17662e-06
7.67443e-08
-2.19548e-06
7.28883e-08
-2.21364e-06
6.93971e-08
-2.23111e-06
6.62093e-08
-2.24793e-06
6.32713e-08
-2.26411e-06
6.05387e-08
-2.27965e-06
5.79725e-08
-2.29459e-06
5.55405e-08
-2.30891e-06
5.3214e-08
-2.32264e-06
5.09697e-08
-2.33577e-06
4.87866e-08
-2.3483e-06
4.66477e-08
-2.36023e-06
4.45372e-08
-2.37155e-06
4.24431e-08
-2.38227e-06
4.03537e-08
-2.39237e-06
3.82603e-08
-2.40184e-06
3.61546e-08
-2.41068e-06
3.40306e-08
-2.41888e-06
3.18826e-08
-2.42642e-06
2.97061e-08
-2.4333e-06
2.74973e-08
-2.4395e-06
2.5253e-08
-2.445e-06
2.29708e-08
-2.44982e-06
2.06485e-08
-2.45392e-06
1.82853e-08
-2.4573e-06
1.58801e-08
-2.45997e-06
1.34328e-08
-2.46192e-06
1.09458e-08
-2.46314e-06
8.41647e-09
-2.46363e-06
5.85515e-09
-2.46337e-06
3.26151e-09
-2.46236e-06
6.4149e-10
-2.4606e-06
-2.00164e-09
-2.45802e-06
-4.6712e-09
-2.45459e-06
-7.39037e-09
-2.45028e-06
-1.01781e-08
-2.44505e-06
-1.30347e-08
-2.43888e-06
-1.59575e-08
-2.43174e-06
-1.89458e-08
-2.42362e-06
-2.20024e-08
-2.41448e-06
-2.51259e-08
-2.4043e-06
-2.83206e-08
-2.39306e-06
-3.15832e-08
-2.38073e-06
-3.49179e-08
-2.36729e-06
-3.8319e-08
-2.35272e-06
-4.179e-08
-2.33699e-06
-4.53229e-08
-2.32008e-06
-4.89197e-08
-2.30197e-06
-5.25707e-08
-2.28265e-06
-5.62754e-08
-2.2621e-06
-6.00229e-08
-2.24031e-06
-6.381e-08
-2.21726e-06
-6.76253e-08
-2.19296e-06
-7.14628e-08
-2.16739e-06
-7.53114e-08
-2.14057e-06
-7.91622e-08
-2.1125e-06
-8.30052e-08
-2.08318e-06
-8.68296e-08
-2.05262e-06
-9.06266e-08
-2.02084e-06
-9.43846e-08
-1.98787e-06
-9.80963e-08
-1.95371e-06
-1.01751e-07
-1.91841e-06
-1.05342e-07
-1.88197e-06
-1.08862e-07
-1.84443e-06
-1.12307e-07
-1.80581e-06
-1.15673e-07
-1.76615e-06
-1.18958e-07
-1.72547e-06
-1.22159e-07
-1.68381e-06
-1.25275e-07
-1.64119e-06
-1.28305e-07
-1.59763e-06
-1.31246e-07
-1.55314e-06
-1.34099e-07
-1.50776e-06
-1.36862e-07
-1.46151e-06
-1.39539e-07
-1.41444e-06
-1.42128e-07
-1.36655e-06
-1.44636e-07
-1.31788e-06
-1.4707e-07
-1.26845e-06
-1.49439e-07
-1.21828e-06
-1.51744e-07
-1.1674e-06
-1.53976e-07
-1.11581e-06
-1.5612e-07
-1.06354e-06
-1.58169e-07
-1.01061e-06
-1.60123e-07
-9.57028e-07
-1.6198e-07
-9.02807e-07
-1.63733e-07
-8.47963e-07
-1.65382e-07
-7.92532e-07
-1.6694e-07
-7.36555e-07
-1.6843e-07
-6.80076e-07
-1.69877e-07
-6.23119e-07
-1.71279e-07
-5.6571e-07
-1.72628e-07
-5.07869e-07
-1.73908e-07
-4.4963e-07
-1.75112e-07
-3.91022e-07
-1.76228e-07
-3.3208e-07
-1.77256e-07
-2.72835e-07
-1.78188e-07
-2.13324e-07
-1.79025e-07
-1.53579e-07
-1.79759e-07
-9.36361e-08
-1.80396e-07
-3.3528e-08
-1.80928e-07
2.67093e-08
-1.81362e-07
8.70451e-08
-1.81695e-07
1.47448e-07
-1.81935e-07
2.07887e-07
-1.82085e-07
2.68323e-07
-1.82156e-07
3.28718e-07
-1.82143e-07
3.89044e-07
-1.82039e-07
4.49261e-07
-1.81796e-07
5.0929e-07
-1.81357e-07
5.69048e-07
-1.80654e-07
6.28477e-07
-1.79627e-07
6.87459e-07
-1.78182e-07
7.45824e-07
-1.76111e-07
8.03308e-07
-1.7304e-07
8.59519e-07
-1.68334e-07
9.13884e-07
-1.60785e-07
9.65722e-07
-1.48559e-07
1.01409e-06
-1.27827e-07
-8.36741e-08
1.06373e-06
2.13355e-10
1.1837e-08
1.98707e-08
-4.64375e-09
6.97252e-08
-5.31305e-08
1.37473e-07
-1.05715e-07
2.03724e-07
-1.41947e-07
2.56237e-07
-1.57015e-07
2.91694e-07
-1.54924e-07
3.12251e-07
-1.41857e-07
3.21951e-07
-1.2288e-07
3.24504e-07
-1.01201e-07
3.22577e-07
-7.85716e-08
3.17767e-07
-5.58883e-08
3.10935e-07
-3.36286e-08
3.02485e-07
-1.21004e-08
2.92659e-07
8.40127e-09
2.81517e-07
2.75858e-08
2.69068e-07
4.51305e-08
2.55327e-07
6.06177e-08
2.40334e-07
7.34933e-08
2.24106e-07
8.31047e-08
2.06504e-07
8.86685e-08
1.8756e-07
8.89626e-08
1.67928e-07
8.2523e-08
1.48196e-07
6.93562e-08
1.22729e-07
5.68536e-08
8.09041e-08
5.32793e-08
1.64854e-08
6.37217e-08
-7.17531e-08
9.17412e-08
-1.84596e-07
1.34521e-07
-3.1989e-07
1.87612e-07
-4.70653e-07
2.45458e-07
-6.29363e-07
3.02206e-07
-7.88539e-07
3.53445e-07
-9.40419e-07
3.96263e-07
-1.07835e-06
4.28278e-07
-1.19857e-06
4.49286e-07
-1.29979e-06
4.60051e-07
-1.38193e-06
4.61406e-07
-1.44649e-06
4.54712e-07
-1.49594e-06
4.41371e-07
-1.5333e-06
4.22929e-07
-1.56192e-06
4.00829e-07
-1.58493e-06
3.76467e-07
-1.6049e-06
3.51033e-07
-1.6237e-06
3.25464e-07
-1.64256e-06
3.00498e-07
-1.66209e-06
2.76645e-07
-1.68271e-06
2.54225e-07
-1.70436e-06
2.33476e-07
-1.7268e-06
2.14504e-07
-1.74977e-06
1.97306e-07
-1.77303e-06
1.81838e-07
-1.79641e-06
1.67983e-07
-1.81966e-06
1.55635e-07
-1.84259e-06
1.44672e-07
-1.86504e-06
1.34958e-07
-1.88689e-06
1.26352e-07
-1.90812e-06
1.187e-07
-1.9287e-06
1.11873e-07
-1.94861e-06
1.05765e-07
-1.96784e-06
1.00275e-07
-1.98641e-06
9.53133e-08
-2.00432e-06
9.07995e-08
-2.02158e-06
8.66644e-08
-2.03822e-06
8.2847e-08
-2.05424e-06
7.92941e-08
-2.06966e-06
7.59595e-08
-2.08448e-06
7.28026e-08
-2.09873e-06
6.97885e-08
-2.1124e-06
6.68868e-08
-2.1255e-06
6.40712e-08
-2.13802e-06
6.13185e-08
-2.14998e-06
5.86093e-08
-2.16137e-06
5.59261e-08
-2.17217e-06
5.32544e-08
-2.1824e-06
5.05814e-08
-2.19203e-06
4.78966e-08
-2.20106e-06
4.51909e-08
-2.20948e-06
4.24569e-08
-2.21728e-06
3.96883e-08
-2.22445e-06
3.68802e-08
-2.23097e-06
3.40284e-08
-2.23685e-06
3.11299e-08
-2.24205e-06
2.81823e-08
-2.24658e-06
2.51838e-08
-2.25043e-06
2.21336e-08
-2.25357e-06
1.90311e-08
-2.25602e-06
1.58768e-08
-2.25775e-06
1.26691e-08
-2.25876e-06
9.41489e-09
-2.25902e-06
6.10985e-09
-2.25852e-06
2.76015e-09
-2.25724e-06
-6.34939e-10
-2.25516e-06
-4.07985e-09
-2.25224e-06
-7.58262e-09
-2.24847e-06
-1.11609e-08
-2.24383e-06
-1.48249e-08
-2.2383e-06
-1.85782e-08
-2.23185e-06
-2.24192e-08
-2.22447e-06
-2.63492e-08
-2.21612e-06
-3.03694e-08
-2.20679e-06
-3.44804e-08
-2.19644e-06
-3.8685e-08
-2.18507e-06
-4.29814e-08
-2.17263e-06
-4.73725e-08
-2.15912e-06
-5.1853e-08
-2.14449e-06
-5.64259e-08
-2.12875e-06
-6.10815e-08
-2.11185e-06
-6.5822e-08
-2.09379e-06
-7.06338e-08
-2.07454e-06
-7.55173e-08
-2.0541e-06
-8.04559e-08
-2.03244e-06
-8.54478e-08
-2.00957e-06
-9.04743e-08
-1.98547e-06
-9.55308e-08
-1.96015e-06
-1.00598e-07
-1.93361e-06
-1.05669e-07