/*--------------------------------*- C++ -*----------------------------------*\
  =========                 |
  \\      /  F ield         | OpenFOAM: The Open Source CFD Toolbox
   \\    /   O peration     | Website:  https://openfoam.org
    \\  /    A nd           | Version:  8
     \\/     M anipulation  |
\*---------------------------------------------------------------------------*/
FoamFile
{
    version     2.0;
    format      ascii;
    class       volVectorField;
    location    "800";
    object      U;
}
// * * * * * * * * * * * * * * * * * * * * * * * * * * * * * * * * * * * * * //

dimensions      [0 1 -1 0 0 0 0];

internalField   nonuniform List<vector> 
12225
(
(9.84511 -0.741736 0)
(9.53196 -0.552025 0)
(9.21439 -0.263526 0)
(8.89788 -0.220076 0)
(8.66113 -0.156653 0)
(8.39354 -0.109742 0)
(8.18147 -0.0578376 0)
(8.01913 -0.0866835 0)
(7.87166 -0.0709505 0)
(7.73962 -0.0279911 0)
(7.6249 -0.0164168 0)
(7.52348 -0.0100106 0)
(7.42332 0.0183368 0)
(7.33519 0.0337574 0)
(7.25883 0.00845992 0)
(7.20242 -0.0170904 0)
(7.1486 -0.0258011 0)
(7.12485 -0.0375467 0)
(10.0613 0.193822 0)
(10.1715 0.319705 0)
(10.0935 0.259938 0)
(10.0521 0.228299 0)
(9.9852 0.181035 0)
(9.96064 0.141457 0)
(9.88605 0.104618 0)
(9.82117 0.101608 0)
(9.76814 0.0838545 0)
(9.69755 0.0580066 0)
(9.62091 0.0505173 0)
(9.54337 0.0463645 0)
(9.47097 0.0306131 0)
(9.39463 0.0249329 0)
(9.31964 0.0376155 0)
(9.25728 0.0466785 0)
(9.19403 0.0424869 0)
(9.14757 0.0446497 0)
(10.0046 0.0639558 0)
(10.0351 0.0732513 0)
(10.0625 0.0395182 0)
(10.087 0.0224547 0)
(10.0944 0.0303802 0)
(10.1032 0.0453953 0)
(10.106 0.0520811 0)
(10.0998 0.0500048 0)
(10.0896 0.0567385 0)
(10.0772 0.0652685 0)
(10.0636 0.0663309 0)
(10.0445 0.0661453 0)
(10.0263 0.0687563 0)
(10.0085 0.0659096 0)
(9.98791 0.0555995 0)
(9.96502 0.0477191 0)
(9.93867 0.0410013 0)
(9.91035 0.0389922 0)
(9.99842 0.0173685 0)
(10.0153 0.049624 0)
(10.0463 0.0570258 0)
(10.0699 0.0612275 0)
(10.0807 0.0659561 0)
(10.0912 0.0708028 0)
(10.1024 0.0720147 0)
(10.1094 0.0683431 0)
(10.1125 0.0675896 0)
(10.1161 0.0688701 0)
(10.1199 0.0685913 0)
(10.122 0.0679535 0)
(10.1239 0.0683373 0)
(10.1264 0.0675448 0)
(10.1272 0.0632518 0)
(10.1256 0.0575819 0)
(10.1208 0.0510518 0)
(10.1138 0.0468146 0)
(10.0001 0.0118405 0)
(10.0144 0.0536096 0)
(10.0401 0.0630263 0)
(10.0579 0.0616541 0)
(10.0671 0.0604445 0)
(10.0763 0.0615478 0)
(10.0871 0.0617205 0)
(10.0959 0.0599153 0)
(10.1021 0.0600998 0)
(10.1088 0.0614944 0)
(10.1157 0.0621242 0)
(10.1219 0.0623121 0)
(10.1281 0.0625694 0)
(10.135 0.0617695 0)
(10.1408 0.0590352 0)
(10.1448 0.0555467 0)
(10.1468 0.0513997 0)
(10.1476 0.0482674 0)
(10.001 0.0133566 0)
(10.0136 0.0503267 0)
(10.0343 0.056994 0)
(10.0492 0.0549417 0)
(10.0581 0.0543804 0)
(10.0669 0.0562915 0)
(10.0768 0.0573065 0)
(10.0854 0.0568645 0)
(10.0923 0.057467 0)
(10.0995 0.0586243 0)
(10.1069 0.0590895 0)
(10.1139 0.0591366 0)
(10.121 0.0590878 0)
(10.1283 0.058105 0)
(10.1349 0.0557901 0)
(10.1403 0.0529131 0)
(10.1443 0.0497017 0)
(10.1474 0.046895 0)
(10.0009 0.0125013 0)
(10.0116 0.0434657 0)
(10.0288 0.05026 0)
(10.0423 0.0502605 0)
(10.0513 0.050794 0)
(10.0597 0.0526893 0)
(10.0688 0.0536772 0)
(10.077 0.0536312 0)
(10.0841 0.0541355 0)
(10.0913 0.054936 0)
(10.0986 0.0552541 0)
(10.1057 0.0552108 0)
(10.1128 0.0549565 0)
(10.12 0.0539353 0)
(10.1265 0.0519697 0)
(10.1321 0.0495564 0)
(10.1368 0.0469114 0)
(10.1407 0.0442772 0)
(10.0008 0.0109894 0)
(10.0096 0.0366314 0)
(10.0236 0.0443441 0)
(10.0357 0.0461595 0)
(10.0446 0.0475746 0)
(10.053 0.0495448 0)
(10.0618 0.0506935 0)
(10.07 0.0510004 0)
(10.0774 0.0514835 0)
(10.0847 0.0520317 0)
(10.092 0.0522208 0)
(10.0991 0.0520826 0)
(10.1061 0.0516639 0)
(10.1129 0.0505957 0)
(10.1192 0.0488232 0)
(10.1249 0.0466718 0)
(10.1297 0.0443112 0)
(10.134 0.0418658 0)
(10.0008 0.00973726 0)
(10.0085 0.0332242 0)
(10.0206 0.0408156 0)
(10.0318 0.0430776 0)
(10.0406 0.044533 0)
(10.0488 0.0462851 0)
(10.0571 0.0473768 0)
(10.065 0.0477805 0)
(10.0723 0.0482371 0)
(10.0794 0.0486985 0)
(10.0865 0.0488658 0)
(10.0934 0.0487174 0)
(10.1002 0.0482542 0)
(10.1067 0.0472426 0)
(10.1128 0.0456526 0)
(10.1183 0.0437294 0)
(10.1232 0.0416138 0)
(10.1275 0.0393719 0)
(10.0007 0.00849968 0)
(10.0076 0.0296489 0)
(10.018 0.0368064 0)
(10.0282 0.0394591 0)
(10.0367 0.0410856 0)
(10.0446 0.0427426 0)
(10.0525 0.0438026 0)
(10.06 0.0442926 0)
(10.067 0.0447 0)
(10.0739 0.045066 0)
(10.0807 0.0451749 0)
(10.0874 0.0449968 0)
(10.0939 0.0445164 0)
(10.1002 0.0435503 0)
(10.106 0.0421452 0)
(10.1114 0.0404471 0)
(10.1162 0.0385614 0)
(10.1205 0.0365107 0)
(10.0006 0.00725305 0)
(10.0065 0.0257551 0)
(10.0154 0.0324053 0)
(10.0246 0.0353797 0)
(10.0327 0.0372406 0)
(10.0403 0.0388442 0)
(10.0477 0.0398962 0)
(10.0548 0.0404273 0)
(10.0616 0.0408144 0)
(10.0682 0.0410752 0)
(10.0747 0.0411182 0)
(10.0812 0.0409013 0)
(10.0874 0.0403632 0)
(10.0934 0.0394373 0)
(10.0989 0.0381786 0)
(10.1041 0.0366742 0)
(10.1088 0.0349956 0)
(10.1131 0.0331596 0)
(10.0005 0.00602246 0)
(10.0055 0.0220035 0)
(10.013 0.0280236 0)
(10.0212 0.0310927 0)
(10.0288 0.0330627 0)
(10.036 0.0345885 0)
(10.0429 0.0355585 0)
(10.0497 0.0361212 0)
(10.0562 0.0364394 0)
(10.0626 0.0366287 0)
(10.0688 0.0365882 0)
(10.0749 0.0363128 0)
(10.0808 0.0357181 0)
(10.0865 0.034851 0)
(10.0918 0.0337009 0)
(10.0967 0.0323784 0)
(10.1013 0.0308993 0)
(10.1055 0.0292786 0)
(10.0004 0.00487077 0)
(10.0044 0.0182726 0)
(10.0108 0.0235594 0)
(10.018 0.0265228 0)
(10.0251 0.028483 0)
(10.0318 0.0298639 0)
(10.0383 0.0307576 0)
(10.0448 0.0312725 0)
(10.051 0.0315424 0)
(10.0571 0.0316304 0)
(10.0631 0.0315213 0)
(10.0689 0.0311664 0)
(10.0744 0.0305853 0)
(10.0798 0.0297495 0)
(10.0848 0.0287392 0)
(10.0895 0.0275826 0)
(10.0939 0.0262857 0)
(10.098 0.0248978 0)
(10.0003 0.00377473 0)
(10.0036 0.014668 0)
(10.009 0.0190925 0)
(10.0153 0.0217367 0)
(10.0217 0.0234932 0)
(10.0279 0.024678 0)
(10.0341 0.0254485 0)
(10.0402 0.0258534 0)
(10.0461 0.0260615 0)
(10.0519 0.0260439 0)
(10.0576 0.0258702 0)
(10.0631 0.025483 0)
(10.0684 0.0249138 0)
(10.0734 0.0241658 0)
(10.0782 0.0232912 0)
(10.0827 0.0222875 0)
(10.0869 0.0211793 0)
(10.0908 0.0200051 0)
(10.0002 0.00276798 0)
(10.0029 0.011239 0)
(10.0074 0.0146919 0)
(10.0129 0.0167616 0)
(10.0187 0.0181463 0)
(10.0245 0.0190578 0)
(10.0303 0.0195922 0)
(10.036 0.0198904 0)
(10.0417 0.0199564 0)
(10.0473 0.0198773 0)
(10.0527 0.0196239 0)
(10.0579 0.0192374 0)
(10.0629 0.0186985 0)
(10.0677 0.018052 0)
(10.0723 0.0172857 0)
(10.0766 0.0164379 0)
(10.0805 0.0154959 0)
(10.0843 0.0145328 0)
(10.0002 0.0018099 0)
(10.0024 0.00797992 0)
(10.0062 0.0102976 0)
(10.011 0.0115941 0)
(10.0162 0.0124512 0)
(10.0216 0.0129512 0)
(10.0271 0.01322 0)
(10.0325 0.0133014 0)
(10.038 0.0132357 0)
(10.0433 0.0130466 0)
(10.0485 0.0127445 0)
(10.0535 0.0123439 0)
(10.0583 0.0118461 0)
(10.0629 0.0112682 0)
(10.0672 0.0106112 0)
(10.0713 0.00989653 0)
(10.0751 0.00912043 0)
(10.0788 0.00834753 0)
(10.0001 0.000879903 0)
(10.002 0.00476477 0)
(10.0053 0.00574452 0)
(10.0096 0.00614412 0)
(10.0144 0.00627884 0)
(10.0195 0.00630071 0)
(10.0247 0.00617767 0)
(10.03 0.00600695 0)
(10.0352 0.0057402 0)
(10.0404 0.00544126 0)
(10.0454 0.00506395 0)
(10.0502 0.00465519 0)
(10.0548 0.00417853 0)
(10.0592 0.00367267 0)
(10.0634 0.00311217 0)
(10.0674 0.00253192 0)
(10.0711 0.00191177 0)
(10.0747 0.00132051 0)
(10.0001 -1.20484e-05 0)
(10.0017 0.00154055 0)
(10.0048 0.00114188 0)
(10.0088 0.000501273 0)
(10.0135 -0.000101938 0)
(10.0185 -0.000676134 0)
(10.0236 -0.00118994 0)
(10.0288 -0.00168835 0)
(10.034 -0.00213386 0)
(10.0391 -0.00258312 0)
(10.044 -0.00300227 0)
(10.0487 -0.00344415 0)
(10.0532 -0.00387183 0)
(10.0576 -0.00432873 0)
(10.0617 -0.00477739 0)
(10.0655 -0.0052525 0)
(10.0692 -0.00571679 0)
(10.0727 -0.00616754 0)
(10.0001 -0.000833546 0)
(10.0016 -0.00145398 0)
(10.0047 -0.0032355 0)
(10.0088 -0.0048798 0)
(10.0136 -0.00622483 0)
(10.0187 -0.00734824 0)
(10.0239 -0.00825305 0)
(10.0292 -0.00901793 0)
(10.0344 -0.00963823 0)
(10.0395 -0.0101806 0)
(10.0445 -0.0106423 0)
(10.0492 -0.0110702 0)
(10.0537 -0.01146 0)
(10.058 -0.0118389 0)
(10.0621 -0.0122017 0)
(10.0659 -0.0125612 0)
(10.0695 -0.0129123 0)
(10.073 -0.0132267 0)
(10.0001 -0.00159959 0)
(10.0016 -0.00415293 0)
(10.005 -0.00732295 0)
(10.0094 -0.00989148 0)
(10.0145 -0.0119494 0)
(10.0199 -0.0135294 0)
(10.0254 -0.0147813 0)
(10.0308 -0.0157306 0)
(10.0362 -0.0164844 0)
(10.0414 -0.0170511 0)
(10.0464 -0.0175274 0)
(10.0512 -0.0179002 0)
(10.0558 -0.0182411 0)
(10.0601 -0.0185255 0)
(10.0641 -0.0188038 0)
(10.068 -0.0190492 0)
(10.0716 -0.0192959 0)
(10.0751 -0.0194912 0)
(10.0001 -0.00232506 0)
(10.0018 -0.00671873 0)
(10.0055 -0.0112672 0)
(10.0105 -0.0147465 0)
(10.0161 -0.0173806 0)
(10.0219 -0.0193799 0)
(10.0277 -0.0208797 0)
(10.0334 -0.0219999 0)
(10.039 -0.0227876 0)
(10.0444 -0.0233695 0)
(10.0495 -0.0237782 0)
(10.0544 -0.0241062 0)
(10.059 -0.0243389 0)
(10.0634 -0.0245507 0)
(10.0675 -0.0247063 0)
(10.0713 -0.0248698 0)
(10.0749 -0.0249918 0)
(10.0784 -0.0251049 0)
(10.0001 -0.00302181 0)
(10.0019 -0.00917903 0)
(10.0062 -0.0152146 0)
(10.0119 -0.0195351 0)
(10.0182 -0.0226764 0)
(10.0245 -0.0249717 0)
(10.0307 -0.026662 0)
(10.0368 -0.0278399 0)
(10.0427 -0.028634 0)
(10.0483 -0.0291691 0)
(10.0535 -0.02952 0)
(10.0585 -0.0297471 0)
(10.0632 -0.0298927 0)
(10.0676 -0.0299827 0)
(10.0717 -0.0300479 0)
(10.0756 -0.0300873 0)
(10.0793 -0.0301266 0)
(10.0828 -0.0301184 0)
(10 -0.00366246 0)
(10.0021 -0.0116616 0)
(10.007 -0.0192205 0)
(10.0138 -0.0243056 0)
(10.0208 -0.0278863 0)
(10.0276 -0.0304652 0)
(10.0343 -0.032228 0)
(10.0408 -0.0333639 0)
(10.0469 -0.0340748 0)
(10.0527 -0.0344979 0)
(10.0582 -0.0347514 0)
(10.0633 -0.0348656 0)
(10.068 -0.034914 0)
(10.0725 -0.0349006 0)
(10.0767 -0.0348732 0)
(10.0806 -0.0348223 0)
(10.0843 -0.0347746 0)
(10.0879 -0.0346972 0)
(9.99989 -0.00425532 0)
(10.0021 -0.0144874 0)
(10.008 -0.023387 0)
(10.0159 -0.0287215 0)
(10.0237 -0.0326678 0)
(10.0311 -0.0356336 0)
(10.0383 -0.0375807 0)
(10.0452 -0.03867 0)
(10.0517 -0.0392445 0)
(10.0578 -0.0395328 0)
(10.0634 -0.0396134 0)
(10.0687 -0.0395771 0)
(10.0736 -0.0394576 0)
(10.0782 -0.0393153 0)
(10.0825 -0.039154 0)
(10.0865 -0.039004 0)
(10.0903 -0.0388461 0)
(10.0939 -0.0386911 0)
(9.99963 -0.00416133 0)
(10.002 -0.0183041 0)
(10.0092 -0.0290882 0)
(10.0182 -0.0338333 0)
(10.0266 -0.0371721 0)
(10.0347 -0.040041 0)
(10.0427 -0.0420472 0)
(10.0504 -0.0432362 0)
(10.0574 -0.0438966 0)
(10.0639 -0.0442149 0)
(10.0699 -0.0442901 0)
(10.0755 -0.044197 0)
(10.0806 -0.0440109 0)
(10.0854 -0.0437781 0)
(10.0899 -0.0435302 0)
(10.094 -0.0432729 0)
(10.0978 -0.0430265 0)
(10.1015 -0.0427697 0)
(9.99819 -0.00148619 0)
(9.99964 -0.0200541 0)
(10.0102 -0.0351778 0)
(10.0214 -0.0416733 0)
(10.031 -0.0446317 0)
(10.0399 -0.0461927 0)
(10.049 -0.0468571 0)
(10.0577 -0.0470836 0)
(10.0656 -0.0471274 0)
(10.0728 -0.047059 0)
(10.0793 -0.0468789 0)
(10.0853 -0.0466347 0)
(10.0908 -0.0463567 0)
(10.0957 -0.0460829 0)
(10.1002 -0.0458163 0)
(10.1043 -0.04556 0)
(10.108 -0.0453191 0)
(10.1114 -0.0450732 0)
(9.9946 0.000559305 0)
(9.99401 -0.0117919 0)
(10.0103 -0.0279922 0)
(10.0265 -0.0427706 0)
(10.0407 -0.0534629 0)
(10.0527 -0.0589439 0)
(10.0638 -0.060758 0)
(10.0737 -0.060769 0)
(10.0824 -0.0600226 0)
(10.09 -0.0589008 0)
(10.0967 -0.0575857 0)
(10.1025 -0.0562256 0)
(10.1075 -0.0549158 0)
(10.1118 -0.0537042 0)
(10.1154 -0.0526065 0)
(10.1184 -0.0516276 0)
(10.121 -0.0507627 0)
(10.1232 -0.0499723 0)
(9.99646 -0.0282031 0)
(10.0019 -0.0185889 0)
(10.024 0.00576338 0)
(10.0428 0.00807421 0)
(10.0643 -0.00258847 0)
(10.0831 -0.0144646 0)
(10.0987 -0.0239699 0)
(10.1105 -0.0312287 0)
(10.1189 -0.0366464 0)
(10.1245 -0.0405237 0)
(10.1279 -0.0431877 0)
(10.1292 -0.04493 0)
(10.129 -0.0460315 0)
(10.1273 -0.0466622 0)
(10.1246 -0.0469707 0)
(10.121 -0.0470814 0)
(10.1167 -0.0470754 0)
(10.1119 -0.0470154 0)
(10.0527 -0.228918 0)
(10.0948 -0.35924 0)
(10.1471 -0.330735 0)
(10.1516 -0.272348 0)
(10.1557 -0.219936 0)
(10.1551 -0.178654 0)
(10.1469 -0.146952 0)
(10.1305 -0.122853 0)
(10.1078 -0.104661 0)
(10.0807 -0.0907329 0)
(10.0507 -0.0799072 0)
(10.0187 -0.0713656 0)
(9.98577 -0.0645472 0)
(9.95242 -0.0590387 0)
(9.91922 -0.0545626 0)
(9.88649 -0.0509347 0)
(9.85458 -0.0480139 0)
(9.82397 -0.046038 0)
(9.92774 0.786292 0)
(9.82704 0.700807 0)
(9.66923 0.483536 0)
(9.48804 0.310736 0)
(9.29361 0.192824 0)
(9.1125 0.118624 0)
(8.94781 0.0718425 0)
(8.79999 0.0422736 0)
(8.66866 0.0235555 0)
(8.55267 0.0115904 0)
(8.45014 0.00394268 0)
(8.35935 -0.000924055 0)
(8.27858 -0.00398091 0)
(8.20655 -0.00586491 0)
(8.1419 -0.00699218 0)
(8.08364 -0.00766737 0)
(8.03045 -0.00808744 0)
(7.98204 -0.00874295 0)
(-0.00269683 0.00721365 0)
(-0.0123711 0.0119124 0)
(-0.0255307 0.0127394 0)
(-0.0386703 0.0106821 0)
(-0.0469478 0.00543901 0)
(-0.0438797 -0.00280557 0)
(-0.0283875 -0.0134758 -8.79348e-19)
(-0.0037461 -0.0235151 9.84194e-19)
(0.0265488 -0.0296921 0)
(0.0594188 -0.0309814 6.05616e-19)
(0.0918209 -0.0281791 0)
(0.12051 -0.0224253 0)
(0.143145 -0.0147727 0)
(0.15834 -0.00606277 -3.61282e-19)
(0.165708 0.00308858 0)
(0.164832 0.0118236 0)
(0.156152 0.0191451 3.67311e-19)
(0.140947 0.024101 0)
(0.120851 0.0259175 0)
(0.0978831 0.0242273 0)
(0.0744332 0.0192871 -5.77134e-19)
(0.0529909 0.0120884 0)
(0.0357093 0.00415166 -8.41373e-19)
(0.0240422 -0.00318833 0)
(0.018413 -0.00943755 0)
(0.0199369 -0.0141482 -1.09344e-18)
(0.0278372 -0.017761 0)
(0.041729 -0.0210632 7.87971e-19)
(0.0603618 -0.0235627 0)
(0.0804515 -0.0235675 -5.57795e-19)
(0.0979162 -0.0207344 0)
(0.110875 -0.0169953 0)
(0.119248 -0.0151785 0)
(0.124851 -0.0182817 0)
(0.126911 -0.024867 0)
(0.119458 -0.029077 4.3486e-19)
(0.0950132 -0.0197281 0)
(0.0506702 0.000705395 -1.11731e-18)
(-0.0339088 0.0159774 0)
(-0.133046 0.0380952 4.87371e-19)
(-0.241611 0.0658107 0)
(-0.362638 0.0923567 0)
(-0.493874 0.113246 -1.95306e-19)
(-0.630814 0.124652 0)
(-0.769783 0.128001 -1.46262e-19)
(-0.90534 0.131 1.31049e-19)
(-1.03523 0.129898 0)
(-1.16008 0.11593 1.14765e-19)
(-1.27543 0.104712 1.07813e-19)
(-1.38029 0.0956416 0)
(-1.47714 0.0902833 0)
(-1.5649 0.0809397 0)
(-1.64472 0.0664404 0)
(-1.71552 0.0585827 0)
(-1.7794 0.0517361 -8.53063e-20)
(-1.83719 0.0472095 0)
(-1.88982 0.0438244 8.14458e-20)
(-1.93827 0.0395713 0)
(-1.98273 0.0356866 0)
(-2.0237 0.0326571 -7.73101e-20)
(-2.06184 0.0300481 0)
(-2.0975 0.0278357 7.51031e-20)
(-2.13104 0.0259176 0)
(-2.16272 0.0242524 0)
(-2.19277 0.0228043 0)
(-2.22138 0.0215225 -7.13935e-20)
(-2.24872 0.0203887 0)
(-2.27491 0.0193669 0)
(-2.30004 0.0184442 -6.8959e-20)
(-2.32422 0.0175963 0)
(-2.3475 0.0168145 -6.7429e-20)
(-2.36994 0.016082 0)
(-2.39159 0.0153934 0)
(-2.41246 0.014736 0)
(-2.43259 0.0141074 6.44934e-20)
(-2.452 0.0134978 0)
(-2.47069 0.0129061 0)
(-2.48867 0.012325 6.2342e-20)
(-2.50595 0.0117538 6.16266e-20)
(-2.52252 0.0111872 0)
(-2.53837 0.0106244 6.01909e-20)
(-2.5535 0.0100618 0)
(-2.5679 0.00949738 1.17482e-19)
(-2.58155 0.00892894 0)
(-2.59444 0.00835177 1.1454e-19)
(-2.60654 0.00776364 0)
(-2.61783 0.00715604 -1.11548e-19)
(-2.62828 0.00652591 0)
(-2.63788 0.00586553 0)
(-2.6466 0.00516636 0)
(-2.65437 0.00443077 1.05388e-19)
(-2.66113 0.00365546 0)
(-2.66684 0.00285109 -1.02209e-19)
(-2.67144 0.00205022 0)
(-2.67486 0.00131348 9.89709e-20)
(-2.67703 0.000702868 9.7301e-20)
(-2.67825 0.000187603 9.55977e-20)
(-2.67857 -0.000302389 0)
(-2.67796 -0.000788489 0)
(-2.67642 -0.00127863 0)
(-2.67393 -0.00177346 0)
(-2.67047 -0.00227739 0)
(-2.666 -0.00278696 0)
(-2.6605 -0.00330795 0)
(-2.65394 -0.00383438 0)
(-2.6463 -0.00437362 -7.86759e-20)
(-2.63755 -0.00491766 -7.65785e-20)
(-2.62766 -0.00547498 0)
(-2.6166 -0.00603608 0)
(-2.60436 -0.00660978 0)
(-2.5909 -0.00718584 -6.76153e-20)
(-2.57622 -0.00777258 0)
(-2.56028 -0.00835997 0)
(-2.54308 -0.00895486 0)
(-2.5246 -0.0095484 0)
(-2.50483 -0.0101452 5.48198e-20)
(-2.48376 -0.0107386 0)
(-2.4614 -0.0113302 0)
(-2.43773 -0.0119164 -4.60845e-20)
(-2.41277 -0.0124955 4.29707e-20)
(-2.38651 -0.0130674 0)
(-2.35898 -0.0136274 3.6416e-20)
(-2.33018 -0.0141788 0)
(-2.30013 -0.0147141 -2.9401e-20)
(-2.26884 -0.0152398 0)
(-2.23635 -0.0157462 0)
(-2.20266 -0.0162418 0)
(-2.16781 -0.0167141 0)
(-2.13182 -0.0171719 0)
(-2.09472 -0.0176031 1.062e-20)
(-2.05653 -0.0180233 1.62363e-21)
(-2.01729 -0.018425 0)
(-1.977 -0.0188105 0)
(-1.93567 -0.019171 0)
(-1.89333 -0.0195394 3.75355e-20)
(-1.85001 -0.0198714 0)
(-1.80576 -0.0201909 0)
(-1.76058 -0.0205141 0)
(-1.71451 -0.0208165 8.24557e-20)
(-1.66756 -0.0211285 -9.47362e-20)
(-1.61975 -0.0214213 0)
(-1.57108 -0.0217072 0)
(-1.52158 -0.0219763 -1.34557e-19)
(-1.47127 -0.0222342 -1.48946e-19)
(-1.42018 -0.0224738 0)
(-1.36832 -0.0227134 0)
(-1.31567 -0.0229442 1.96196e-19)
(-1.26228 -0.0231836 -2.13514e-19)
(-1.20819 -0.0234313 0)
(-1.15344 -0.0237009 0)
(-1.09806 -0.023989 -2.71162e-19)
(-1.04206 -0.0242942 0)
(-0.985459 -0.0246109 0)
(-0.92827 -0.0249408 -3.39452e-19)
(-0.870524 -0.0252814 0)
(-0.812247 -0.0256341 -3.92689e-19)
(-0.75347 -0.0259979 0)
(-0.694217 -0.0263754 0)
(-0.634517 -0.0267661 0)
(-0.574397 -0.0271713 5.24871e-19)
(-0.513884 -0.0275922 0)
(-0.453006 -0.0280304 0)
(-0.391791 -0.0284893 0)
(-0.330267 -0.0289756 0)
(-0.268459 -0.0295127 0)
(-0.20638 -0.0301226 0)
(-0.14406 -0.0307964 9.03793e-19)
(-0.0815434 -0.0314835 9.85187e-19)
(-0.0189323 -0.0319458 0)
(0.0438381 -0.0315891 0)
(0.106819 -0.0306231 0)
(0.169827 -0.0296129 -9.63058e-19)
(0.232664 -0.028611 0)
(0.295094 -0.0275743 1.7749e-18)
(0.356838 -0.0264346 -1.71283e-18)
(0.417137 -0.0250717 -1.6592e-18)
(0.475842 -0.0232569 1.61485e-18)
(0.527419 -0.0204058 -1.58232e-18)
(0.581958 -0.0165651 1.56644e-18)
(0.58321 -0.000636068 0)
(-0.000626865 0.0200527 0)
(-0.00643172 0.0345194 0)
(-0.0128236 0.0342538 2.20808e-18)
(-0.0110709 0.0232048 0)
(0.00595719 0.000397228 -2.22005e-18)
(0.0362949 -0.0343117 -1.39303e-18)
(0.0742903 -0.06903 -4.64314e-19)
(0.115434 -0.0942516 -3.47639e-19)
(0.155786 -0.106334 0)
(0.192311 -0.105895 -2.46538e-19)
(0.223189 -0.0957885 0)
(0.247685 -0.0792619 0)
(0.265628 -0.0590762 4.12152e-19)
(0.277191 -0.0372892 2.0494e-19)
(0.282715 -0.0153938 -4.17915e-19)
(0.282885 0.00564441 -4.19876e-19)
(0.278035 0.0249566 -2.10717e-19)
(0.268246 0.0415227 0)
(0.253659 0.0541871 0)
(0.234717 0.0617535 0)
(0.212347 0.0632657 -2.61635e-19)
(0.188155 0.0583769 0)
(0.16438 0.0476151 9.81522e-19)
(0.14363 0.0323303 0)
(0.128646 0.0141444 0)
(0.120682 -0.00556155 4.57336e-19)
(0.121099 -0.0251517 0)
(0.127858 -0.0421357 -3.91711e-19)
(0.134949 -0.052221 -7.22564e-19)
(0.13657 -0.051358 3.49056e-19)
(0.130105 -0.0421225 0)
(0.112007 -0.0292102 0)
(0.0776842 -0.0104167 0)
(0.0167851 0.0150224 -9.25592e-19)
(-0.0867459 0.0558489 -6.33576e-19)
(-0.21172 0.107718 -1.87752e-19)
(-0.34712 0.161627 0)
(-0.49087 0.211306 1.88692e-19)
(-0.641235 0.251758 0)
(-0.791552 0.28282 -1.25514e-19)
(-0.939645 0.303461 0)
(-1.08244 0.313766 0)
(-1.21539 0.314895 8.87787e-20)
(-1.33637 0.307766 0)
(-1.4452 0.293301 2.34784e-19)
(-1.54 0.274579 -7.404e-20)
(-1.622 0.253688 0)
(-1.69313 0.231408 -6.91316e-20)
(-1.75377 0.2091 -6.70321e-20)
(-1.807 0.188009 0)
(-1.85263 0.167987 0)
(-1.89321 0.15029 0)
(-1.9294 0.134488 0)
(-1.96271 0.120619 0)
(-1.99343 0.108459 5.95806e-20)
(-2.022 0.0979092 1.17525e-19)
(-2.04885 0.0889047 -5.78546e-20)
(-2.07409 0.0812542 0)
(-2.0981 0.074712 1.12791e-19)
(-2.12108 0.0690886 -5.56969e-20)
(-2.14309 0.0642403 0)
(-2.16423 0.0600301 -5.43776e-20)
(-2.18458 0.056349 0)
(-2.20419 0.0531025 0)
(-2.22312 0.0502168 -1.0503e-19)
(-2.24139 0.0476254 5.19622e-20)
(-2.25905 0.0452787 -1.02693e-19)
(-2.27611 0.0431302 1.0155e-19)
(-2.29259 0.0411471 5.02505e-20)
(-2.30851 0.0392963 0)
(-2.32386 0.0375566 4.91344e-20)
(-2.33867 0.0359037 0)
(-2.35292 0.0343246 0)
(-2.36661 0.0328009 0)
(-2.37975 0.0313248 4.68516e-20)
(-2.39233 0.0298826 0)
(-2.40434 0.0284699 9.15674e-20)
(-2.41577 0.0270769 -1.35716e-19)
(-2.42662 0.0257009 -4.46984e-20)
(-2.43687 0.0243347 0)
(-2.44651 0.0229758 -4.3565e-20)
(-2.45553 0.0216197 0)
(-2.46391 0.0202629 -8.48213e-20)
(-2.47164 0.0189043 0)
(-2.47872 0.0175402 -8.24628e-20)
(-2.48512 0.016172 1.62495e-19)
(-2.49084 0.0147948 8.00505e-20)
(-2.49588 0.0134099 0)
(-2.50024 0.012011 0)
(-2.5039 0.0105947 0)
(-2.50688 0.00915711 -7.50553e-20)
(-2.50918 0.00769122 0)
(-2.51082 0.00619253 7.24668e-20)
(-2.51186 0.00467304 0)
(-2.51237 0.0031758 -2.0946e-19)
(-2.51241 0.00176229 -6.84206e-20)
(-2.5117 0.000421228 -6.70189e-20)
(-2.51016 -0.000898819 0)
(-2.50773 -0.00221783 0)
(-2.50439 -0.00354295 0)
(-2.50011 -0.00487717 0)
(-2.49486 -0.0062233 0)
(-2.48862 -0.00757934 -1.16511e-19)
(-2.48137 -0.00894895 -1.1342e-19)
(-2.47307 -0.0103271 0)
(-2.4637 -0.0117187 5.34325e-20)
(-2.45324 -0.0131162 5.17995e-20)
(-2.44165 -0.0145259 0)
(-2.42892 -0.0159376 9.71701e-20)
(-2.41501 -0.0173585 0)
(-2.39991 -0.0187767 -4.52843e-20)
(-2.3836 -0.0201993 0)
(-2.36606 -0.0216138 0)
(-2.34727 -0.0230264 7.93059e-20)
(-2.32722 -0.024425 0)
(-2.30591 -0.025814 -3.55806e-20)
(-2.28331 -0.0271832 0)
(-2.25944 -0.0285342 0)
(-2.2343 -0.0298598 -2.99543e-20)
(-2.20787 -0.0311585 -2.72872e-20)
(-2.18019 -0.0324268 0)
(-2.15124 -0.0336597 2.34472e-20)
(-2.12106 -0.0348579 0)
(-2.08965 -0.0360138 -1.88593e-20)
(-2.05703 -0.0371324 -3.23171e-20)
(-2.02323 -0.0382051 0)
(-1.98826 -0.0392411 0)
(-1.95215 -0.0402292 0)
(-1.91492 -0.0411777 0)
(-1.87661 -0.0420758 -6.29896e-21)
(-1.83723 -0.0429341 -4.39607e-21)
(-1.7968 -0.0437454 0)
(-1.75533 -0.0445181 0)
(-1.71284 -0.0452466 0)
(-1.66937 -0.045936 -2.13761e-20)
(-1.62493 -0.0465787 0)
(-1.57955 -0.0471849 0)
(-1.53326 -0.0477565 7.63655e-20)
(-1.48607 -0.0483055 4.3363e-20)
(-1.43801 -0.0488287 5.1286e-20)
(-1.38909 -0.0493214 0)
(-1.33933 -0.0497764 0)
(-1.28873 -0.0501878 7.03352e-20)
(-1.23733 -0.0505629 -7.50157e-20)
(-1.18513 -0.0508953 0)
(-1.13214 -0.0511912 0)
(-1.07836 -0.0514411 -9.72062e-20)
(-1.02381 -0.0516613 3.10749e-19)
(-0.968542 -0.0518618 0)
(-0.912593 -0.0520559 0)
(-0.855993 -0.0522489 1.26137e-19)
(-0.798756 -0.0524323 0)
(-0.740898 -0.0526022 2.80922e-19)
(-0.68244 -0.0527535 -1.47334e-19)
(-0.623409 -0.052886 0)
(-0.563833 -0.0529985 1.65894e-19)
(-0.50374 -0.0530913 3.46657e-19)
(-0.443157 -0.0531646 0)
(-0.382114 -0.0532184 0)
(-0.320638 -0.0532537 -2.01375e-19)
(-0.25876 -0.0532713 0)
(-0.196509 -0.0532742 4.38837e-19)
(-0.133912 -0.0532639 0)
(-0.071002 -0.0532422 0)
(-0.00780983 -0.0532026 0)
(0.0556522 -0.0531388 0)
(0.119371 -0.0530598 -2.54507e-19)
(0.183322 -0.0529733 -2.55367e-19)
(0.2475 -0.0528034 0)
(0.311829 -0.0523528 0)
(0.376127 -0.0516415 0)
(0.440311 -0.0508268 2.57861e-19)
(0.504326 -0.0499142 0)
(0.567995 -0.0488445 -5.17617e-19)
(0.631073 -0.0474982 5.18666e-19)
(0.693004 -0.0456769 5.20029e-19)
(0.753516 -0.0429186 5.18782e-19)
(0.809463 -0.0385747 5.25667e-19)
(0.866076 -0.030929 5.29352e-19)
(0.895951 -0.00999308 0)
(-0.000148028 0.0241763 0)
(-4.76662e-05 0.0391422 0)
(0.00784506 0.0274268 -2.28843e-18)
(0.033865 -0.012443 -1.4906e-18)
(0.0781815 -0.0726319 8.88993e-19)
(0.130551 -0.130616 6.09925e-19)
(0.180981 -0.170519 -4.73217e-22)
(0.223712 -0.187603 0)
(0.25687 -0.184571 0)
(0.280887 -0.166983 0)
(0.297126 -0.140382 0)
(0.307118 -0.109131 0)
(0.3121 -0.0762456 -9.48733e-19)
(0.313013 -0.0436325 0)
(0.310529 -0.0124481 3.33182e-19)
(0.3049 0.0164603 3.33784e-19)
(0.296675 0.0423784 0)
(0.286206 0.0646302 0)
(0.273685 0.0823688 0)
(0.259142 0.0945133 0)
(0.242528 0.0997908 4.07756e-19)
(0.224071 0.0970229 0)
(0.204604 0.0855917 -4.94331e-19)
(0.185814 0.0658463 0)
(0.169681 0.0397466 0)
(0.157904 0.0101605 0)
(0.147661 -0.0174354 -1.4026e-18)
(0.129981 -0.0330621 0)
(0.0944034 -0.0297191 6.48969e-19)
(0.0408276 -0.00445941 -1.41866e-18)
(-0.0311786 0.0404539 0)
(-0.134349 0.0980469 0)
(-0.256396 0.164143 0)
(-0.393075 0.234008 2.05833e-19)
(-0.541708 0.30276 1.60304e-19)
(-0.692487 0.365135 0)
(-0.838967 0.416612 0)
(-0.976332 0.456405 -1.93505e-19)
(-1.10091 0.482548 -1.73034e-19)
(-1.21099 0.494906 1.57799e-19)
(-1.30568 0.494434 0)
(-1.38511 0.482458 0)
(-1.45029 0.461073 0)
(-1.50359 0.432852 0)
(-1.5478 0.400284 -1.1588e-19)
(-1.58529 0.365823 -1.12436e-19)
(-1.61816 0.331397 1.08187e-19)
(-1.648 0.297918 0)
(-1.67616 0.266835 0)
(-1.70319 0.238816 0)
(-1.7293 0.21391 0)
(-1.75479 0.191924 -9.33687e-20)
(-1.77991 0.172545 0)
(-1.80465 0.155866 0)
(-1.82894 0.14154 -8.77861e-20)
(-1.85263 0.12933 -8.6169e-20)
(-1.87563 0.11893 0)
(-1.89792 0.109906 1.67089e-19)
(-1.91954 0.102064 -8.23412e-20)
(-1.94052 0.0952507 8.12017e-20)
(-1.96083 0.0892858 0)
(-1.98048 0.0840232 0)
(-1.99951 0.0793421 0)
(-2.01793 0.0751425 0)
(-2.03575 0.0713427 7.61007e-20)
(-2.053 0.0678724 1.50157e-19)
(-2.06968 0.0646754 7.42337e-20)
(-2.08583 0.0617027 -7.33224e-20)
(-2.10144 0.0589156 0)
(-2.11653 0.0562794 1.42899e-19)
(-2.1311 0.0537675 1.41134e-19)
(-2.14515 0.0513554 1.3938e-19)
(-2.15869 0.0490245 -1.37635e-19)
(-2.17171 0.0467572 0)
(-2.18421 0.0445409 -2.01306e-19)
(-2.19619 0.0423628 0)
(-2.20763 0.0402148 6.52786e-20)
(-2.21853 0.038088 6.45257e-20)
(-2.22889 0.0359771 0)
(-2.23868 0.0338762 0)
(-2.2479 0.0317814 1.23655e-19)
(-2.25653 0.0296886 0)
(-2.26458 0.0275945 1.20075e-19)
(-2.27201 0.025497 0)
(-2.27883 0.0233939 -1.16433e-19)
(-2.28502 0.0212854 -2.29209e-19)
(-2.29057 0.0191708 0)
(-2.29548 0.0170521 0)
(-2.29975 0.0149306 0)
(-2.30336 0.0128091 -1.07019e-19)
(-2.30631 0.0106945 0)
(-2.30859 0.008592 -1.03123e-19)
(-2.31019 0.00650912 0)
(-2.31111 0.00445117 0)
(-2.31131 0.0024127 1.94046e-19)
(-2.31075 0.000363691 0)
(-2.30939 -0.00171657 9.28312e-20)
(-2.30718 -0.00381947 0)
(-2.30412 -0.00593965 8.85228e-20)
(-2.30017 -0.0080758 0)
(-2.29531 -0.0102301 0)
(-2.2895 -0.0124011 0)
(-2.28273 -0.0145912 2.38725e-19)
(-2.27497 -0.016798 7.71827e-20)
(-2.26619 -0.0190229 0)
(-2.25636 -0.0212625 0)
(-2.24546 -0.0235172 0)
(-2.23347 -0.0257827 0)
(-2.22035 -0.0280578 -6.52508e-20)
(-2.2061 -0.0303378 1.26018e-19)
(-2.19067 -0.0326195 6.02517e-20)
(-2.17406 -0.0348981 -1.15943e-19)
(-2.15624 -0.0371684 -1.10791e-19)
(-2.13721 -0.0394258 -5.247e-20)
(-2.11695 -0.0416637 0)
(-2.09545 -0.0438774 -9.48427e-20)
(-2.07271 -0.0460594 0)
(-2.04871 -0.0482055 8.37718e-20)
(-2.02348 -0.050308 3.86502e-20)
(-1.997 -0.0523627 0)
(-1.9693 -0.0543627 -6.64756e-20)
(-1.94037 -0.0563044 -2.98137e-20)
(-1.91023 -0.0581819 0)
(-1.87891 -0.0599923 -2.46572e-20)
(-1.84642 -0.0617324 6.27196e-20)
(-1.81277 -0.0634006 0)
(-1.778 -0.0649969 0)
(-1.74212 -0.0665196 0)
(-1.70516 -0.0679696 0)
(-1.66715 -0.0693455 9.91283e-21)
(-1.6281 -0.0706491 2.14214e-21)
(-1.58802 -0.0718789 0)
(-1.54694 -0.0730392 0)
(-1.50487 -0.0741283 0)
(-1.46183 -0.075152 0)
(-1.41786 -0.0761062 0)
(-1.37297 -0.0769982 0)
(-1.32718 -0.0778331 -4.59349e-20)
(-1.28051 -0.0786205 -1.23868e-21)
(-1.23297 -0.0793598 0)
(-1.1846 -0.0800477 0)
(-1.13538 -0.0806745 -7.2926e-20)
(-1.08535 -0.081238 0)
(-1.03451 -0.0817398 8.84831e-20)
(-0.982875 -0.0821783 9.43706e-20)
(-0.930444 -0.0825533 0)
(-0.877228 -0.0828659 0)
(-0.823247 -0.0831248 -1.17445e-19)
(-0.768539 -0.0833464 -2.46869e-19)
(-0.713142 -0.0835435 0)
(-0.657086 -0.0837203 0)
(-0.600386 -0.0838694 0)
(-0.543062 -0.0839848 -1.54511e-19)
(-0.485135 -0.0840616 1.62066e-19)
(-0.426633 -0.0840968 0)
(-0.367584 -0.0840897 3.51841e-19)
(-0.308016 -0.084038 1.822e-19)
(-0.247958 -0.0839431 -3.82862e-19)
(-0.187442 -0.0838028 0)
(-0.126497 -0.0836196 0)
(-0.0651547 -0.0833916 -4.30404e-19)
(-0.00344664 -0.0831225 -2.23824e-19)
(0.0585986 -0.0828108 0)
(0.120955 -0.0824622 0)
(0.183594 -0.0820726 0)
(0.246483 -0.0816388 0)
(0.309585 -0.081163 -4.83488e-19)
(0.372871 -0.0806541 0)
(0.436316 -0.0800872 0)
(0.499862 -0.0794351 0)
(0.563415 -0.0786716 0)
(0.626913 -0.0777734 0)
(0.690278 -0.0767054 0)
(0.753359 -0.0753804 -5.23917e-19)
(0.815956 -0.0736371 0)
(0.877654 -0.0712009 0)
(0.938271 -0.0675325 -1.0829e-18)
(0.995851 -0.0617893 5.47163e-19)
(1.05425 -0.0521882 -5.58834e-19)
(1.09808 -0.0306567 5.75933e-19)
(-0.00150947 0.0257017 0)
(0.00378499 0.0225216 4.80942e-18)
(0.0343873 -0.0352046 0)
(0.0898465 -0.124321 7.4886e-19)
(0.152475 -0.20344 0)
(0.206782 -0.250676 0)
(0.245874 -0.264008 -3.39578e-19)
(0.270048 -0.25144 0)
(0.282708 -0.222872 0)
(0.287574 -0.186208 0)
(0.287538 -0.146524 0)
(0.284444 -0.106612 0)
(0.279304 -0.0678765 1.11178e-18)
(0.272627 -0.0310367 5.758e-19)
(0.264589 0.00345434 -5.96922e-19)
(0.255441 0.035082 0)
(0.245126 0.063388 0)
(0.233627 0.0878097 0)
(0.220979 0.107601 0)
(0.207243 0.121794 0)
(0.192353 0.129045 7.68985e-19)
(0.176211 0.127576 8.51838e-19)
(0.159136 0.116248 -9.59774e-19)
(0.141979 0.0950266 1.09676e-18)
(0.123732 0.0658723 0)
(0.0963177 0.0353769 0)
(0.0469707 0.0252462 1.27247e-18)
(-0.0209093 0.0502924 0)
(-0.109185 0.100652 0)
(-0.221249 0.168694 5.19615e-19)
(-0.35128 0.249011 3.97147e-19)
(-0.492316 0.333372 3.1426e-19)
(-0.636738 0.414277 0)
(-0.778493 0.486362 0)
(-0.910443 0.544063 -1.90224e-19)
(-1.02731 0.585765 0)
(-1.1276 0.611552 0)
(-1.21059 0.622099 1.37957e-19)
(-1.2768 0.618972 -1.30412e-19)
(-1.32822 0.604026 1.21828e-19)
(-1.36735 0.579649 0)
(-1.39714 0.548184 0)
(-1.42062 0.512108 2.01942e-19)
(-1.44041 0.473696 0)
(-1.45849 0.434796 1.83196e-19)
(-1.47624 0.396913 2.62467e-19)
(-1.49448 0.360996 -2.52547e-19)
(-1.5136 0.327555 1.62975e-19)
(-1.53374 0.297006 0)
(-1.55477 0.269489 0)
(-1.57644 0.244914 1.49264e-19)
(-1.59853 0.223122 7.26183e-20)
(-1.62084 0.203843 0)
(-1.64316 0.186906 0)
(-1.66532 0.172074 6.8376e-20)
(-1.68714 0.159105 1.34524e-19)
(-1.70851 0.147749 0)
(-1.72935 0.137747 -1.30132e-19)
(-1.74964 0.128908 1.28213e-19)
(-1.76937 0.121073 -1.26341e-19)
(-1.78852 0.114093 0)
(-1.8071 0.107836 0)
(-1.8251 0.102189 0)
(-1.84255 0.0970578 0)
(-1.85944 0.0923588 0)
(-1.87581 0.0880222 -1.16576e-19)
(-1.89165 0.0839883 0)
(-1.90698 0.0802061 0)
(-1.9218 0.0766326 0)
(-1.93613 0.0732306 -2.21363e-19)
(-1.94997 0.0699693 -1.09304e-19)
(-1.96332 0.0668219 -1.07891e-19)