/*--------------------------------*- C++ -*----------------------------------*\
  =========                 |
  \\      /  F ield         | OpenFOAM: The Open Source CFD Toolbox
   \\    /   O peration     | Website:  https://openfoam.org
    \\  /    A nd           | Version:  8
     \\/     M anipulation  |
\*---------------------------------------------------------------------------*/
FoamFile
{
    version     2.0;
    format      ascii;
    class       volVectorField;
    location    "800";
    object      wallShearStress;
}
// * * * * * * * * * * * * * * * * * * * * * * * * * * * * * * * * * * * * * //

dimensions      [0 2 -2 0 0 0 0];

internalField   uniform (0 0 0);

boundaryField
{
    inlet
    {
        type            calculated;
        value           uniform (0 0 0);
    }
    outlet
    {
        type            calculated;
        value           uniform (0 0 0);
    }
    upperWall
    {
        type            calculated;
        value           nonuniform List<vector> 
223
(
(-0.440843 -0.0465286 0)
(-0.491295 -0.0459758 0)
(-0.534129 -0.0345531 0)
(-0.541642 -0.0224594 0)
(-0.538229 -0.0136658 0)
(-0.528708 -0.00801435 0)
(-0.518144 -0.00446017 0)
(-0.50738 -0.00224514 0)
(-0.496598 -0.000878816 0)
(-0.486523 -3.82252e-05 0)
(-0.477306 0.000472403 0)
(-0.468945 0.000775424 0)
(-0.461405 0.000946867 0)
(-0.454613 0.00103615 0)
(-0.448494 0.00107518 0)
(-0.44297 0.00108799 0)
(-0.437948 0.00108682 0)
(-0.433395 0.00112515 0)
(-0.429709 0.00119446 0)
(-0.426765 0.00125395 5.27443e-22)
(-0.423865 0.00127162 0)
(-0.421026 0.00126222 0)
(-0.418244 0.00123593 0)
(-0.415527 0.00119765 5.40209e-22)
(-0.412877 0.00115311 0)
(-0.410299 0.00110341 0)
(-0.407794 0.0010528 0)
(-0.405362 0.00100088 -1.10423e-21)
(-0.403002 0.00095036 1.11007e-21)
(-0.400714 0.000900042 1.11586e-21)
(-0.398497 0.000852328 0)
(-0.396349 0.000806412 -1.12732e-21)
(-0.394266 0.000763588 0)
(-0.392248 0.000723021 1.13863e-21)
(-0.39029 0.000685394 1.14424e-21)
(-0.38839 0.000650253 -1.14982e-21)
(-0.386546 0.000618181 0)
(-0.384754 0.000588812 0)
(-0.38301 0.000561763 0)
(-0.381313 0.000537141 0)
(-0.37966 0.000514717 -1.17758e-21)
(-0.378047 0.000494394 0)
(-0.376474 0.000476037 0)
(-0.374937 0.000459533 1.1941e-21)
(-0.373433 0.000444744 0)
(-0.37196 0.000431441 1.20508e-21)
(-0.370518 0.000419544 -1.21057e-21)
(-0.369103 0.000408987 1.21605e-21)
(-0.367714 0.000399761 0)
(-0.366348 0.000391549 0)
(-0.365004 0.000384338 0)
(-0.363681 0.000377966 1.23786e-21)
(-0.362377 0.000372544 -1.24325e-21)
(-0.36109 0.000367838 0)
(-0.359819 0.000363829 0)
(-0.358563 0.000360337 0)
(-0.357321 0.000357591 0)
(-0.35609 0.000355445 0)
(-0.35487 0.000353752 0)
(-0.353659 0.000352518 0)
(-0.352457 0.000351769 0)
(-0.351261 0.000351479 1.29016e-21)
(-0.350071 0.00035158 -1.29511e-21)
(-0.348885 0.000352127 0)
(-0.347702 0.00035298 0)
(-0.346521 0.000354103 0)
(-0.345339 0.000355479 -1.31402e-21)
(-0.344159 0.000357142 0)
(-0.342975 0.000359006 0)
(-0.34179 0.000361182 0)
(-0.340599 0.000363516 0)
(-0.339406 0.000366015 0)
(-0.338205 0.000368695 -2.67702e-21)
(-0.336998 0.000371622 0)
(-0.335781 0.000374935 0)
(-0.334557 0.000378298 0)
(-0.333314 0.000382142 0)
(-0.332079 0.000385743 0)
(-0.330788 0.000390613 0)
(-0.329561 0.000394388 0)
(-0.328192 0.000400982 2.72049e-21)
(-0.326953 0.000405349 0)
(-0.325625 0.000409973 0)
(-0.323971 0.000432214 0)
(-0.322718 0.000377213 -2.72573e-21)
(-0.321168 0.000596095 0)
(-0.321211 0.000140307 -2.72536e-21)
(-0.411331 0.00439476 0)
(-0.384823 0.00438596 0)
(-0.374335 -0.000530293 0)
(-0.357298 -0.00113205 -3.07554e-21)
(-0.346294 -0.00104858 0)
(-0.336952 -0.000471226 3.02983e-21)
(-0.32207 0.000188483 2.95229e-21)
(-0.315682 -6.78058e-05 0)
(-0.315684 -0.000486434 2.96763e-21)
(-0.306432 1.74152e-05 0)
(-0.323169 -8.16743e-06 0)
(-0.303876 -0.000322869 0)
(-0.420051 0.00058004 -4.09653e-21)
(-0.379942 -0.000722893 0)
(-0.391488 0.00523601 -3.85221e-21)
(-0.358726 0.0077583 3.28439e-21)
(-0.334667 0.00369031 0)
(-0.321737 0.00085224 0)
(-0.329323 -0.00163298 0)
(-0.316176 -0.000318894 0)
(-0.306877 -0.000468941 0)
(-0.295278 -0.000226992 0)
(-0.294085 -2.39153e-05 0)
(-0.295061 -1.29496e-05 -2.72956e-21)
(-0.291658 -0.000191812 0)
(-0.358977 -0.00125799 0)
(-0.38017 -0.00140765 0)
(-0.38252 -0.000847273 0)
(-0.382976 -0.000436921 0)
(-0.360566 -7.81222e-06 0)
(-0.400132 0.00339985 0)
(-0.34853 0.00756919 0)
(-0.317586 0.00781272 0)
(-0.284095 0.00252281 0)
(-0.292754 -0.00168039 0)
(-0.278676 -0.00144908 0)
(-0.32495 -0.00141427 -5.25706e-21)
(-0.355028 -0.00198221 0)
(-0.353601 0.00256196 0)
(-0.3046 0.00550228 0)
(-0.274071 0.00437728 3.93802e-21)
(-0.269084 0.00148012 0)
(-0.26728 -0.00206963 0)
(-0.303838 -0.00261094 4.11547e-21)
(-0.33338 0.000183894 0)
(-0.294318 0.00383263 -3.63056e-21)
(-0.261154 0.00373125 0)
(-0.259568 0.00341267 0)
(-0.257997 0.00187518 0)
(-0.256323 -0.00202035 2.50329e-21)
(-0.25384 -0.00287477 0)
(-0.301961 -0.00285152 -2.60688e-21)
(-0.277953 0.000275824 0)
(-0.247459 0.000924878 0)
(-0.273961 -0.00143448 0)
(-0.304581 -0.00149423 0)
(-0.269048 0.00109344 0)
(-0.239019 0.00141255 0)
(-0.265831 0.00149493 0)
(-0.235632 0.000968358 0)
(-0.256346 -0.00158102 0)
(-0.253491 0.0012527 0)
(-0.228995 0.00219217 0)
(-0.227501 -0.0001039 1.08447e-21)
(-0.229893 0.000811425 -1.51725e-21)
(-0.223998 0.000926996 0)
(-0.228552 0.000139385 0)
(-0.220459 -0.000209546 0)
(-0.217274 -0.00155584 0)
(-0.21386 -0.000980263 -3.59639e-21)
(-0.210685 -0.000652913 3.99267e-21)
(-0.207263 -0.000519545 -4.49822e-21)
(-0.203195 0.0023503 0)
(-0.204165 0.00263159 -4.99947e-21)
(-0.201204 0.00110418 -1.17059e-20)
(-0.216851 0.000765979 0)
(-0.219764 -0.00121343 -1.50872e-20)
(-0.19541 0.00208234 1.50964e-20)
(-0.196634 0.00429998 0)
(-0.196121 0.00111268 0)
(-0.19323 6.17844e-05 0)
(-0.209362 0.00150224 0)
(-0.212723 8.91576e-07 0)
(-0.186289 -0.00091864 -2.21651e-20)
(-0.183063 0.000840412 0)
(-0.193552 0.00198702 -2.51636e-20)
(-0.192709 0.000872847 0)
(-0.177629 0.000274386 0)
(-0.180482 -0.000694952 0)
(-0.172419 -0.00145131 0)
(-0.168912 -0.000449148 0)
(-0.164932 -0.000391055 3.43922e-20)
(-0.160649 -2.91388e-05 0)
(-0.15923 0.0014541 0)
(-0.160962 0.00193095 -3.76731e-20)
(-0.161684 0.00124302 0)
(-0.16062 0.000667626 0)
(-0.157843 0.000290944 0)
(-0.152926 0.000126822 4.66407e-20)
(-0.145733 0.000193856 0)
(-0.136448 0.000510086 0)
(-0.126014 0.000892179 0)
(-0.115503 0.00115833 0)
(-0.106185 0.00118278 -7.85667e-20)
(-0.0982863 0.00104985 0)
(-0.0920853 0.000854082 0)
(-0.0865462 0.000775287 0)
(-0.0815972 0.000844013 1.07528e-19)
(-0.0740994 0.00107968 0)
(-0.0698912 0.00179292 0)
(-0.0414718 0.00155797 -1.49985e-19)
(-0.0724251 0.000983472 6.01853e-36)
(-0.106352 0.00631683 1.29557e-17)
(-0.129488 0.0106468 2.33784e-17)
(-0.14178 0.0132001 2.20621e-17)
(-0.149231 0.0146096 2.12523e-17)
(-0.154956 0.0155018 2.05858e-17)
(-0.159595 0.0161218 -2.00074e-17)
(-0.163235 0.0165915 -1.94745e-17)
(-0.166405 0.0169499 -6.01853e-36)
(-0.169386 0.0172639 -3.69554e-17)
(-0.172497 0.0175586 -1.79776e-17)
(-0.175771 0.0178663 4.87501e-34)
(-0.179459 0.0181942 -1.20371e-35)
(-0.183595 0.01857 -3.24703e-17)
(-0.188258 0.0189907 -3.10724e-17)
(-0.193501 0.0194702 -2.94942e-17)
(-0.199366 0.0200067 -4.81482e-35)
(-0.205952 0.0206098 5.15636e-17)
(-0.213398 0.0212951 2.35764e-17)
(-0.221536 0.022045 1.20371e-35)
(-0.231439 0.0229512 -3.65608e-17)
(-0.240649 0.0238281 -1.20003e-20)
(-0.256536 0.0252065 0)
(-0.261098 0.02601 1.36817e-17)
(-0.291753 0.0279201 -7.68482e-18)
)
;
    }
    lowerWall
    {
        type            calculated;
        value           nonuniform List<vector> 
250
(
(-0.624224 0.0617899 0)
(-0.609894 0.0455887 0)
(-0.644033 0.0229283 0)
(-0.623902 0.0191197 0)
(-0.60231 0.0131514 0)
(-0.581695 0.00879245 0)
(-0.541575 0.00406241 0)
(-0.525477 0.00668394 0)
(-0.502616 0.00522253 0)
(-0.494176 0.00163283 0)
(-0.486694 0.000713471 0)
(-0.48031 0.000187124 0)
(-0.473968 -0.00220625 0)
(-0.468063 -0.00346015 0)
(-0.462963 -0.00121317 0)
(-0.466172 0.00104155 0)
(-0.456088 0.00188426 0)
(-0.605621 0.00389536 0)
(0.00295676 -0.00710646 0)
(0.00307068 -0.01106 0)
(0.00319802 -0.0149025 0)
(0.00331898 -0.0185807 6.87975e-20)
(0.00336773 -0.0219337 -6.05029e-20)
(0.00367465 -0.0248188 5.40964e-20)
(0.00517318 -0.0244939 -4.86229e-20)
(0.0121058 -0.0451753 0)
(-0.0667755 -0.158338 0)
(0.000216326 -0.000258397 0)
(8.15401e-05 -0.000770318 0)
(2.40896e-05 -0.00091127 0)
(6.43503e-05 -0.000966704 0)
(-1.26887e-05 -0.00077748 1.53954e-19)
(-0.000342314 0.000144513 -1.36244e-19)
(-0.00100453 0.00238845 0)
(-0.00162798 0.00599484 -1.42308e-19)
(-0.00176626 0.00985847 1.12474e-19)
(-0.00140714 0.0129529 0)
(-0.000795068 0.0147759 0)
(-0.000154736 0.0152036 0)
(0.000383663 0.0143504 0)
(0.00086051 0.0125926 0)
(0.00134571 0.00993214 0)
(0.00185635 0.00644644 0)
(0.00240101 0.00226106 0)
(0.00281059 -0.00251902 0)
(-0.000133288 -0.000264583 0)
(0.000166332 -0.00042331 0)
(0.000462306 -0.000463407 0)
(0.000750805 -0.000383786 0)
(0.000953805 -0.000160227 -0)
(0.000948491 0.000178737 -0)
(0.000689751 0.000559759 1.55549e-20)
(0.000212121 0.00088365 -1.74151e-20)
(-0.000403417 0.00107618 -0)
(-0.00106601 0.00111657 -1.07199e-20)
(-0.00170272 0.00102336 -0)
(-0.00225412 0.000828285 0)
(-0.00268158 0.00056759 -0)
(-0.00296446 0.000272767 6.41133e-21)
(-0.00309586 -3.59027e-05 0)
(-0.00306525 -0.000333391 0)
(-0.00287979 -0.000586606 -6.5366e-21)
(-0.00256426 -0.000766539 -0)
(-0.0021527 -0.000851071 0)
(-0.00168955 -0.000827728 -0)
(-0.00122832 -0.0007005 1.02926e-20)
(-0.000823317 -0.000494713 0)
(-0.000515278 -0.000252524 1.50143e-20)
(-0.000321627 -1.52269e-05 0)
(-0.000242755 0.00020337 0)
(-0.000291333 0.000386201 1.95357e-20)
(-0.00044412 0.000535905 0)
(-0.000701768 0.000668964 -1.40891e-20)
(-0.00106104 0.000759116 0)
(-0.00146184 0.000752172 9.98201e-21)
(-0.00180357 0.000647657 0)
(-0.00202906 0.000512187 0)
(-0.0021297 0.000431775 0)
(-0.00217007 0.000474698 0)
(-0.00220089 0.000568867 0)
(-0.0021838 0.00054259 -7.82056e-21)
(-0.00192199 0.000143709 0)
(-0.0011663 -0.000628346 2.01357e-20)
(0.000345979 -0.00124842 0)
(0.00204691 -0.00188529 -8.83075e-21)
(0.00397681 -0.00264575 0)
(0.00621196 -0.00338105 0)
(0.00869018 -0.0039487 3.59259e-21)
(0.0112892 -0.00425057 0)
(0.0138649 -0.00431733 2.70886e-21)
(0.0163546 -0.00434159 -2.43258e-21)
(0.0195258 -0.00441853 -0)
(0.0224599 -0.00408843 -2.26129e-21)
(0.0235864 -0.00354116 -2.03111e-21)
(0.0264298 -0.00335048 -0)
(0.0294489 -0.00325889 0)
(0.0325792 -0.00304863 0)
(0.0307281 -0.00229857 0)
(0.031272 -0.00198409 -0)
(0.0330646 -0.00179479 1.60561e-21)
(0.0346882 -0.0016587 0)
(0.0361639 -0.00155085 -1.57656e-21)
(0.0375318 -0.00142062 -0)
(0.0388475 -0.00130065 -0)
(0.0400717 -0.0012043 1.54503e-21)
(0.041239 -0.00112112 0)
(0.042383 -0.00105043 -1.53014e-21)
(0.0434525 -0.000988053 -0)
(0.0445182 -0.000934201 0)
(0.0455251 -0.000886533 -0)
(0.046525 -0.00084458 1.50548e-21)
(0.0474853 -0.000807003 0)
(0.0484342 -0.00077304 -0)
(0.0493552 -0.000742076 1.48864e-21)
(0.0502633 -0.000713535 0)
(0.0511502 -0.00068688 1.47737e-21)
(0.0520235 -0.000661769 0)
(0.0528794 -0.000637812 0)
(0.0537211 -0.000614668 0)
(0.0545468 -0.000592313 -1.45297e-21)
(0.0553582 -0.000570322 -0)
(0.0561539 -0.000548629 0)
(0.0569343 -0.000527078 -1.43211e-21)
(0.057699 -0.000505574 -1.42453e-21)
(0.0584471 -0.000483879 -0)
(0.0591785 -0.000462024 -1.40825e-21)
(0.0598918 -0.000439901 0)
(0.0605873 -0.000417375 -2.78066e-21)
(0.0612627 -0.000394374 -0)
(0.0619186 -0.000370722 -2.74116e-21)
(0.0625521 -0.000346299 -0)
(0.0631638 -0.000320843 2.69779e-21)
(0.0637505 -0.000294289 0)
(0.064313 -0.000266392 0)
(0.0648483 -0.000236615 0)
(0.0653552 -0.000204911 -2.59854e-21)
(0.0658314 -0.000171295 -0)
(0.0662761 -0.00013612 2.54241e-21)
(0.0666878 -0.000100352 0)
(0.0670664 -6.59989e-05 -2.48251e-21)
(0.0674136 -3.6676e-05 -2.45074e-21)
(0.0677293 -1.188e-05 -2.4175e-21)
(0.0680178 1.2057e-05 0)
(0.0682764 3.60476e-05 0)
(0.0685053 6.03124e-05 0)
(0.0687032 8.49467e-05 0)
(0.0688693 0.000110173 0)
(0.0690018 0.000135866 0)
(0.0691002 0.000162176 0)
(0.0691627 0.000188888 0)
(0.0691889 0.000216252 2.05227e-21)
(0.0691768 0.000244015 2.0032e-21)
(0.0691261 0.000272465 0)
(0.0690348 0.000301181 0)
(0.068903 0.000330503 0)
(0.0687283 0.000360017 1.78626e-21)
(0.0685116 0.00039001 0)
(0.0682504 0.00042011 0)
(0.0679453 0.000450478 0)
(0.0675949 0.00048082 0)
(0.0671994 0.000511254 -1.46088e-21)
(0.0667579 0.000541454 0)
(0.0662709 0.000571503 0)
(0.0657378 0.000601225 1.23158e-21)
(0.065159 0.00063051 -1.14888e-21)
(0.0645348 0.000659312 0)
(0.0638655 0.000687411 -9.73545e-22)
(0.0631521 0.000714962 0)
(0.0623944 0.00074164 7.84492e-22)
(0.0615942 0.000767619 0)
(0.0607517 0.000792563 0)
(0.0598689 0.000816796 0)
(0.0589458 0.000839777 0)
(0.0579856 0.000861888 0)
(0.0569905 0.000882708 -2.59667e-22)
(0.0559542 0.000902655 -1.45284e-23)
(0.0548838 0.000921609 0)
(0.0537812 0.000939772 0)
(0.0526255 0.000956343 0)
(0.0514693 0.000973379 -1.05116e-21)
(0.0502477 0.000987993 0)
(0.0490315 0.00100247 0)
(0.0477534 0.00101607 0)
(0.0464716 0.00102905 -2.26629e-21)
(0.0451528 0.00104186 2.59661e-21)
(0.0438119 0.00105377 0)
(0.0424475 0.00106518 0)
(0.0410594 0.00107563 3.66249e-21)
(0.0396502 0.00108537 4.04552e-21)
(0.0382186 0.00109411 0)
(0.036765 0.00110263 0)
(0.0352922 0.00111059 -5.29406e-21)
(0.0338024 0.00111846 5.7487e-21)
(0.0322971 0.00112626 0)
(0.030778 0.00113454 0)
(0.0292459 0.00114322 7.25264e-21)
(0.0277013 0.00115229 0)
(0.0261448 0.00116154 0)
(0.0245775 0.001171 9.01734e-21)
(0.0230006 0.00118055 0)
(0.0214155 0.00119029 1.03827e-20)
(0.0198225 0.00120012 0)
(0.018223 0.00121016 0)
(0.0166178 0.00122039 0)
(0.0150082 0.00123086 -1.37413e-20)
(0.0133951 0.00124161 0)
(0.0117797 0.0012527 0)
(0.0101629 0.00126425 0)
(0.00854604 0.00127651 0)
(0.00692994 0.00129032 0)
(0.005315 0.00130643 0)
(0.00370192 0.00132445 -2.32254e-20)
(0.00209119 0.00134249 -2.52482e-20)
(0.000483826 0.00135267 0)
(-0.00112029 0.00133527 0)
(-0.00271888 0.00129703 0)
(-0.00430738 0.0012566 2.44188e-20)
(-0.00588245 0.00121574 0)
(-0.00743796 0.00117281 -4.47483e-20)
(-0.00896602 0.00112451 4.30497e-20)
(-0.0104461 0.00106704 4.15588e-20)
(-0.011871 0.000983676 -4.02828e-20)
(-0.0130917 0.00087429 3.92569e-20)
(-0.0143826 0.000648156 -3.85955e-20)
(-0.0139425 0.000139541 0)
(-0.0163719 0.000341235 -2.38645e-18)
(-0.020112 -0.00013218 -2.22248e-18)
(-0.0238377 -0.000621078 0)
(-0.0273563 -0.00104721 -3.93173e-18)
(-0.0309353 -0.00145806 -7.43489e-18)
(-0.0346766 -0.00187051 -3.52248e-18)
(-0.0385917 -0.00228857 3.34156e-18)
(-0.0427095 -0.00272006 -3.00927e-35)
(-0.0470642 -0.00317132 3.00927e-36)
(-0.0516863 -0.00364779 2.86733e-18)
(-0.0566027 -0.0041531 2.72533e-18)
(-0.0618507 -0.00469206 6.01853e-36)
(-0.0674652 -0.0052681 0)
(-0.0734864 -0.00588629 0)
(-0.0799853 -0.00655212 -3.71926e-35)
(-0.0869496 -0.00726893 -2.35099e-36)
(-0.0946224 -0.00804963 4.5139e-35)
(-0.102702 -0.00888808 -3.57893e-18)
(-0.112056 -0.00981651 -3.29094e-18)
(-0.121367 -0.0108165 1.20371e-35)
(-0.133338 -0.0119075 5.26847e-18)
(-0.143814 -0.0131917 8.88939e-18)
(-0.161313 -0.0143993 6.01853e-36)
(-0.169572 -0.0162126 -4.38253e-18)
(-0.205598 -0.0172277 -1.20371e-35)
)
;
    }
    frontAndBack
    {
        type            empty;
    }
}


// ************************************************************************* //
