/*--------------------------------*- C++ -*----------------------------------*\
  =========                 |
  \\      /  F ield         | OpenFOAM: The Open Source CFD Toolbox
   \\    /   O peration     | Website:  https://openfoam.org
    \\  /    A nd           | Version:  8
     \\/     M anipulation  |
\*---------------------------------------------------------------------------*/
FoamFile
{
    version     2.0;
    format      ascii;
    class       volScalarField;
    location    "800";
    object      nut;
}
// * * * * * * * * * * * * * * * * * * * * * * * * * * * * * * * * * * * * * //

dimensions      [0 2 -1 0 0 0 0];

internalField   nonuniform List<scalar> 
12225
(
1.98172e-05
1.98606e-05
1.94314e-05
2.10675e-05
1.9126e-05
2.12816e-05
1.50663e-05
2.77704e-05
2.27679e-05
2.19821e-05
1.79535e-05
1.87241e-05
1.77657e-05
1.72782e-05
1.72645e-05
1.96928e-05
1.74716e-05
1.76625e-05
3.06361e-06
3.24623e-06
8.47809e-06
1.18663e-05
1.31643e-05
1.74386e-05
1.78293e-05
2.12552e-05
2.50096e-05
3.22394e-05
3.551e-05
4.11866e-05
4.04693e-05
4.51434e-05
4.71645e-05
5.00814e-05
5.90228e-05
5.29378e-05
1.84872e-05
1.28222e-05
1.0225e-05
1.00938e-05
1.86632e-05
3.37375e-05
5.036e-05
6.25155e-05
6.1865e-05
6.74246e-05
7.25126e-05
7.41741e-05
7.09212e-05
7.27017e-05
7.18045e-05
7.1293e-05
7.25912e-05
6.92948e-05
7.33461e-05
2.25288e-05
1.90369e-05
2.67483e-05
4.81667e-05
8.57984e-05
0.000135454
0.000184342
0.000166142
0.000193972
0.000208291
0.000206754
0.000201221
0.000192859
0.000187281
0.000178494
0.00017377
0.000165703
0.000243242
6.13831e-05
5.76127e-05
7.80581e-05
0.000125527
0.000197328
0.000312534
0.000297506
0.00034307
0.000401496
0.000436195
0.00043647
0.000429083
0.000410983
0.000399101
0.000380311
0.00037039
0.000353773
0.000634199
0.000230765
0.000196731
0.000232939
0.0003109
0.000415293
0.000574975
0.000527387
0.00059386
0.000666015
0.000706393
0.000706393
0.000696565
0.000673039
0.000656046
0.00063075
0.000616353
0.000593637
0.00102076
0.00070962
0.000580383
0.000571096
0.000629143
0.000720845
0.000871238
0.000808102
0.000864888
0.000922613
0.000950842
0.000947586
0.000936299
0.0009137
0.000895692
0.000870741
0.000854681
0.000831463
0.00116214
0.00103177
0.000914947
0.000872871
0.000891165
0.00095239
0.00104379
0.00101292
0.00102419
0.00106853
0.00108879
0.00108555
0.001076
0.00105821
0.00104313
0.00102275
0.00100867
0.000988836
0.00122163
0.00117503
0.00112305
0.00108455
0.00106423
0.00109881
0.0011372
0.001163
0.00113956
0.00115884
0.0011677
0.00116494
0.00115839
0.00114641
0.00113567
0.00112104
0.00111044
0.00109534
0.0012444
0.00123372
0.001211
0.00120984
0.00118831
0.00119529
0.00120615
0.00121231
0.00121611
0.00120684
0.00120579
0.00120716
0.00120492
0.00119935
0.0011933
0.00118482
0.0011781
0.00116861
0.00124944
0.00124526
0.00124064
0.00123848
0.00123476
0.0012333
0.00123382
0.00123427
0.00123438
0.00123324
0.00123168
0.00122991
0.00122791
0.00122514
0.00122171
0.00121865
0.00121478
0.00121
0.00124906
0.00124748
0.00124577
0.0012444
0.00124302
0.00124181
0.00124098
0.00124019
0.00123949
0.00123859
0.00123767
0.00123655
0.00123544
0.00123404
0.00123264
0.00123085
0.00122924
0.00122712
0.00124894
0.00124766
0.00124643
0.00124525
0.00124416
0.0012431
0.00124215
0.00124122
0.00124037
0.00123951
0.0012387
0.00123786
0.00123707
0.0012362
0.00123539
0.00123446
0.00123361
0.00123262
0.00124893
0.00124766
0.00124646
0.00124532
0.00124424
0.00124321
0.00124223
0.0012413
0.00124041
0.00123956
0.00123876
0.00123797
0.00123723
0.0012365
0.0012358
0.00123511
0.00123445
0.00123379
0.00124892
0.00124766
0.00124646
0.00124531
0.00124423
0.00124319
0.00124221
0.00124127
0.00124038
0.00123952
0.00123871
0.00123793
0.00123718
0.00123647
0.00123579
0.00123513
0.0012345
0.0012339
0.00124892
0.00124766
0.00124645
0.00124531
0.00124422
0.00124318
0.00124219
0.00124125
0.00124035
0.00123949
0.00123867
0.00123789
0.00123714
0.00123642
0.00123574
0.00123508
0.00123445
0.00123385
0.00124892
0.00124765
0.00124645
0.0012453
0.00124421
0.00124317
0.00124218
0.00124123
0.00124033
0.00123947
0.00123865
0.00123786
0.00123711
0.00123639
0.0012357
0.00123504
0.00123441
0.00123381
0.00124892
0.00124765
0.00124645
0.0012453
0.00124421
0.00124317
0.00124217
0.00124123
0.00124032
0.00123946
0.00123864
0.00123785
0.0012371
0.00123637
0.00123568
0.00123503
0.00123439
0.00123379
0.00124892
0.00124765
0.00124645
0.0012453
0.00124421
0.00124317
0.00124218
0.00124123
0.00124033
0.00123947
0.00123864
0.00123785
0.0012371
0.00123638
0.00123569
0.00123503
0.00123439
0.00123379
0.00124892
0.00124766
0.00124645
0.00124531
0.00124422
0.00124318
0.00124219
0.00124124
0.00124033
0.00123947
0.00123864
0.00123785
0.00123708
0.00123636
0.00123565
0.00123499
0.00123434
0.00123373
0.00124892
0.00124766
0.00124646
0.00124531
0.00124423
0.0012432
0.0012422
0.00124123
0.00124026
0.00123935
0.00123841
0.00123757
0.00123669
0.00123592
0.0012351
0.00123438
0.0012336
0.00123292
0.00124888
0.00124768
0.00124645
0.0012453
0.00124431
0.00124322
0.0012421
0.00124083
0.0012394
0.00123794
0.00123631
0.00123492
0.00123335
0.00123216
0.00123063
0.00122953
0.00122809
0.00122692
0.00124861
0.00124775
0.00124633
0.00124516
0.0012443
0.00124259
0.00124039
0.00123701
0.00123281
0.00122819
0.00122317
0.00121896
0.00121432
0.00121121
0.0012056
0.00120237
0.0011992
0.00119412
0.00124657
0.00124806
0.00124528
0.00124272
0.00124032
0.0012342
0.00122609
0.00121312
0.00119892
0.00118309
0.00116809
0.00115538
0.00114259
0.00113218
0.00112021
0.00111041
0.00110182
0.0010986
0.00123339
0.00124744
0.00123547
0.00122007
0.00120921
0.00118841
0.00115666
0.00111821
0.00108474
0.00104558
0.00102023
0.000991411
0.000973251
0.000949077
0.000937297
0.00091407
0.000907148
0.000900055
0.0011582
0.00122792
0.00118082
0.00113519
0.00109022
0.00102841
0.000953439
0.000885321
0.000833391
0.000779491
0.000748953
0.000714857
0.000696044
0.00067043
0.000659317
0.000636874
0.000630233
0.000623934
0.000762643
0.00110558
0.00097971
0.000889483
0.000774789
0.00067953
0.000593917
0.000530064
0.000484877
0.000444062
0.000421858
0.000397995
0.000385824
0.000369444
0.000360794
0.000348121
0.000343931
0.000338315
0.000291389
0.000648229
0.000510945
0.000416736
0.000333819
0.000280352
0.000240484
0.000213951
0.000194186
0.000181142
0.000171476
0.000164771
0.000160046
0.000156084
0.000152858
0.000151828
0.000149344
0.000148635
9.28339e-05
0.000110654
0.000106428
9.50754e-05
8.53053e-05
7.95644e-05
7.56081e-05
7.28977e-05
7.21062e-05
7.14309e-05
7.16448e-05
7.18201e-05
7.30807e-05
7.47583e-05
7.69084e-05
7.89487e-05
7.99168e-05
8.0129e-05
1.30107e-05
1.69579e-05
1.99592e-05
2.17946e-05
2.28982e-05
2.32531e-05
2.33776e-05
2.33223e-05
2.30834e-05
2.27925e-05
2.24839e-05
2.21814e-05
2.19004e-05
2.16478e-05
2.1423e-05
2.1228e-05
2.10567e-05
2.09105e-05
1.84443e-12
2.07883e-10
1.05281e-09
4.11087e-09
1.36003e-08
4.09181e-08
1.05523e-07
2.07253e-07
3.32816e-07
4.6377e-07
5.80619e-07
6.70295e-07
7.29758e-07
7.51818e-07
7.42262e-07
7.12432e-07
6.56495e-07
5.63561e-07
4.81341e-07
4.10378e-07
3.42819e-07
2.77168e-07
2.13234e-07
1.53865e-07
1.00492e-07
5.88177e-08
3.09908e-08
1.5392e-08
7.70435e-09
4.13403e-09
2.47951e-09
1.87075e-09
2.07643e-09
4.25688e-09
9.46418e-09
6.50519e-08
1.34123e-07
2.94123e-07
4.45035e-07
4.90988e-07
4.55542e-07
3.74408e-07
3.14579e-07
3.14443e-07
3.43275e-07
4.54384e-07
6.04726e-07
1.23725e-06
2.80194e-06
8.51669e-06
2.05679e-05
3.27735e-05
3.80687e-05
2.70273e-05
3.15319e-05
3.41733e-05
4.03187e-05
4.08476e-05
3.32524e-05
3.47391e-05
3.60968e-05
3.10091e-05
3.31664e-05
3.35239e-05
3.42024e-05
3.48013e-05
3.54252e-05
3.5992e-05
3.65898e-05
3.71433e-05
3.77142e-05
3.82594e-05
3.88102e-05
3.93477e-05
3.98845e-05
4.0415e-05
4.0942e-05
4.14664e-05
4.19866e-05
4.25061e-05
4.30214e-05
4.35373e-05
4.40493e-05
4.45622e-05
4.50719e-05
4.55823e-05
4.60897e-05
4.65971e-05
4.71025e-05
4.76076e-05
4.81108e-05
4.86112e-05
4.91079e-05
4.96016e-05
5.00915e-05
5.05783e-05
5.10627e-05
5.15472e-05
5.20369e-05
5.25394e-05
5.3042e-05
5.35475e-05
5.40581e-05
5.45738e-05
5.50958e-05
5.56238e-05
5.61591e-05
5.67013e-05
5.72519e-05
5.78106e-05
5.83788e-05
5.89565e-05
5.9545e-05
6.01448e-05
6.07569e-05
6.13822e-05
6.20216e-05
6.26766e-05
6.33476e-05
6.40368e-05
6.47445e-05
6.54734e-05
6.62233e-05
6.69977e-05
6.77959e-05
6.86214e-05
6.94725e-05
7.03644e-05
7.13086e-05
7.22681e-05
7.3287e-05
7.43355e-05
7.54494e-05
7.66262e-05
7.7865e-05
7.91522e-05
7.90603e-05
7.88073e-05
7.85385e-05
7.82592e-05
7.79664e-05
7.76627e-05
7.73469e-05
7.70218e-05
7.66898e-05
7.63382e-05
7.5993e-05
7.5619e-05
7.52592e-05
7.48658e-05
7.44924e-05
7.40806e-05
7.36953e-05
7.32672e-05
7.28673e-05
7.24393e-05
7.20163e-05
7.15913e-05
7.11611e-05
7.0732e-05
7.03004e-05
6.98698e-05
6.94379e-05
6.90077e-05
6.85773e-05
6.815e-05
6.7724e-05
6.73026e-05
6.6884e-05
6.64711e-05
6.60615e-05
6.56576e-05
6.52548e-05
6.48533e-05
6.44457e-05
6.40287e-05
6.35884e-05
6.30951e-05
6.24939e-05
6.08171e-05
7.79469e-12
1.26545e-09
1.69333e-08
8.95085e-08
3.88948e-07
1.25463e-06
2.87458e-06
5.21166e-06
8.06088e-06
1.12782e-05
1.45226e-05
1.75039e-05
2.00407e-05
2.19322e-05
2.30748e-05
2.34229e-05
2.30754e-05
2.22423e-05
1.99213e-05
1.67497e-05
1.2929e-05
9.53426e-06
6.72315e-06
4.55456e-06
2.86882e-06
1.77523e-06
1.07947e-06
6.69688e-07
4.15118e-07
2.72562e-07
1.95429e-07
1.70909e-07
1.60609e-07
2.90999e-07
3.88082e-07
3.7628e-06
7.51754e-06
1.52776e-05
2.12447e-05
2.3524e-05
2.24431e-05
2.0445e-05
1.83344e-05
1.73215e-05
1.74595e-05
1.75105e-05
2.08882e-05
2.85717e-05
3.93534e-05
4.99168e-05
6.06599e-05
6.98432e-05
7.901e-05
8.65664e-05
9.83906e-05
0.00010978
0.000124307
0.000138422
0.000149191
0.000164397
0.000179286
0.000189743
0.000204128
0.000216474
0.000228794
0.000240713
0.000252274
0.000263326
0.000273942
0.000284273
0.000294246
0.000303994
0.00031347
0.000322763
0.000331849
0.000340782
0.000349552
0.000358192
0.000366693
0.00037508
0.000383344
0.000391503
0.000399548
0.000407495
0.000415335
0.000423081
0.000430723
0.00043827
0.00044571
0.000453049
0.000460275
0.000467388
0.00047437
0.00048121
0.00048788
0.000494342
0.000500535
0.000506366
0.000511707
0.00051639
0.000520997
0.000525459
0.000529803
0.000534024
0.000538118
0.000542085
0.000545921
0.000549625
0.000553195
0.000556628
0.000559923
0.000563077
0.000566089
0.000568958
0.000571681
0.000574257
0.000576686
0.000578965
0.000581093
0.000583069
0.000584891
0.000586558
0.000588068
0.000589419
0.00059061
0.000591639
0.000592501
0.000593191
0.000593718
0.000594077
0.000594291
0.000594218
0.000594108
0.000593867
0.000593636
0.000593426
0.000593318
0.000593082
0.000592698
0.000592175
0.000591511
0.000590709
0.000589763
0.00058869
0.000587411
0.000586359
0.000584684
0.000583419
0.000581483
0.000580008
0.000577821
0.000576131
0.000573704
0.000571798
0.000569296
0.000566903
0.000564438
0.000561831
0.000559191
0.000556477
0.000553705
0.00055088
0.000548001
0.000545075
0.000542101
0.000539089
0.000536041
0.000532968
0.000529872
0.000526759
0.000523625
0.000520478
0.000517279
0.000514006
0.000510603
0.000506999
0.000503053
0.000498443
0.000492431
0.000475599
1.94469e-11
3.31619e-09
6.23471e-08
3.65232e-07
1.1719e-06
3.06151e-06
6.47874e-06
1.12231e-05
1.70571e-05
2.36717e-05
3.06674e-05
3.76368e-05
4.391e-05
4.91175e-05
5.30789e-05
5.5682e-05
5.70762e-05
5.73631e-05
5.58106e-05
5.28804e-05
4.8099e-05
4.21016e-05
3.47645e-05
2.74068e-05
2.06164e-05
1.47976e-05
1.00497e-05
6.72415e-06
4.25904e-06
2.83033e-06
1.98706e-06
1.58788e-06
1.34985e-06
2.14868e-06
3.94125e-06
1.72304e-05
3.54663e-05
5.39799e-05
6.35299e-05
6.20428e-05
5.0685e-05
4.19803e-05
4.19266e-05
4.84106e-05
5.56639e-05
6.54963e-05
7.87759e-05
9.13277e-05
0.00010461
0.000122119
0.000141074
0.000162769
0.000186517
0.000213682
0.00024441
0.000275948
0.000309002
0.000340821
0.000371312
0.000401435
0.000431475
0.000458158
0.000485629
0.000510816
0.000535168
0.000558753
0.000581296
0.000602949
0.000623932
0.000644318
0.000664157
0.000683555
0.00070253
0.000721156
0.000739446
0.000757445
0.000775163
0.000792625
0.000809838
0.000826817
0.000843564
0.000860088
0.000876389
0.000892472
0.000908333
0.000923975
0.00093939
0.000954576
0.000969521
0.000984219
0.000998653
0.00101281
0.00102665
0.00104017
0.00105332
0.00106607
0.00107837
0.00109018
0.00110148
0.0011124
0.00112311
0.00113355
0.00114373
0.00115364
0.00116327
0.00117263
0.00118169
0.00119047
0.00119896
0.00120714
0.00121502
0.00122259
0.00122986
0.00123681
0.00124344
0.00124976
0.00125576
0.00126143
0.00126678
0.0012718
0.00127649
0.00128085
0.00128487
0.00128855
0.0012919
0.0012949
0.00129756
0.00129986
0.00130183
0.00130345
0.00130475
0.00130569
0.0013063
0.00130663
0.00130687
0.00130687
0.00130669
0.00130619
0.00130537
0.00130423
0.00130279
0.00130103
0.00129898
0.00129669
0.00129394
0.00129132
0.00128789
0.00128477
0.00128077
0.00127717
0.00127262
0.00126853
0.00126346
0.00125884
0.0012535
0.00124814
0.00124261
0.00123685
0.00123097
0.00122494
0.00121878
0.00121251
0.00120613
0.00119965
0.00119307
0.00118642
0.00117969
0.00117292
0.00116611
0.00115927
0.0011524
0.00114549
0.00113849
0.00113135
0.00112395
0.00111614
0.00110759
0.00109751
0.00108406
0.00105346
7.43622e-11
1.25926e-08
1.98685e-07
8.02746e-07
2.6626e-06
7.19359e-06
1.42093e-05
2.36295e-05
3.47092e-05
4.63206e-05
5.7533e-05
6.77671e-05
7.6507e-05
8.31386e-05
8.81324e-05
9.12624e-05
9.2501e-05
9.22053e-05
9.05155e-05
8.72517e-05
8.25721e-05
7.69058e-05
6.93739e-05
6.04376e-05
5.04977e-05
4.05576e-05
3.12996e-05
2.36015e-05
1.7618e-05
1.28258e-05
9.91544e-06
7.31328e-06
7.87833e-06
1.16744e-05
2.60634e-05
4.9453e-05
6.89019e-05
7.85896e-05
7.65217e-05
7.41846e-05
7.47785e-05
7.88546e-05
8.69862e-05
9.8671e-05
0.000113695
0.000126083
0.000146787
0.000170203
0.000197871
0.000231072
0.000267405
0.000307951
0.000351018
0.000396255
0.000442488
0.000488657
0.000534594
0.000579058
0.000621893
0.000663319
0.000703507
0.000741278
0.000778026
0.000813474
0.000847467
0.000880317
0.000912077
0.000942917
0.00097297
0.00100232
0.00103105
0.00105923
0.00108691
0.00111414
0.00114094
0.00116736
0.0011934
0.00121908
0.0012444
0.00126939
0.00129403
0.00131834
0.00134231
0.00136594
0.00138922
0.00141216
0.00143473
0.00145694
0.00147877
0.0015002
0.00152123
0.00154183
0.00156198
0.00158167
0.00160086
0.00161955
0.00163773
0.0016554
0.00167259
0.00168936
0.00170578
0.00172179
0.0017374
0.0017526
0.00176738
0.00178173
0.00179565
0.00180913
0.00182216
0.00183473
0.00184685
0.00185851
0.00186969
0.00188041
0.00189065
0.00190042
0.0019097
0.00191851
0.00192683
0.00193467
0.00194201
0.00194887
0.00195523
0.00196109
0.00196646
0.00197133
0.00197569
0.00197956
0.00198293
0.00198579
0.00198818
0.00199008
0.00199144
0.00199244
0.00199313
0.0019934
0.00199325
0.00199263
0.00199155
0.00199
0.00198801
0.00198556
0.00198268
0.00197941
0.00197561
0.00197163
0.00196696
0.00196221
0.00195673
0.00195123
0.00194497
0.00193873
0.00193172
0.00192472
0.00191715
0.00190934
0.00190127
0.00189291
0.00188434
0.00187555
0.00186657
0.00185741
0.00184809
0.00183861
0.001829
0.00181926
0.00180942
0.00179951
0.00178954
0.00177953
0.00176947
0.00175935
0.00174912
0.00173871
0.00172798
0.00171671
0.0017045
0.00169021
0.00167139
0.00163513
2.51766e-10
3.73076e-08
4.3082e-07
2.0681e-06
7.08255e-06
1.69698e-05
3.1328e-05
4.83086e-05
6.59237e-05
8.24018e-05
9.65469e-05
0.000107401
0.000115371
0.000120769
0.000123784
0.000125004
0.000124639
0.000122892
0.000119944
0.000115815
0.000110456
0.000104402
9.68961e-05
8.81058e-05
7.79256e-05
6.67219e-05
5.52354e-05
4.48242e-05
3.6139e-05
2.89538e-05
2.26561e-05
2.12255e-05
2.61917e-05
4.35647e-05
6.84169e-05
8.47729e-05
9.30053e-05
9.6922e-05
0.000100155
0.000105681
0.000115195
0.000129691
0.000143086
0.000156808
0.000179827
0.000209684
0.000243391
0.000283257
0.000327912
0.000377007
0.000428812
0.000483311
0.000538931
0.000595126
0.000651052
0.000706196
0.00076024
0.000812737
0.00086329
0.000912391
0.000959959
0.00100592
0.00105032
0.00109332
0.00113498
0.00117548
0.00121491
0.00125342
0.0012911
0.00132803
0.00136429
0.00139993
0.00143501
0.00146955
0.0015036
0.00153715
0.00157024
0.00160287
0.00163505
0.00166677
0.00169803
0.00172885
0.0017592
0.0017891
0.00181852
0.00184747
0.00187594
0.00190391
0.00193138
0.00195833
0.00198476
0.00201064
0.00203597
0.00206073
0.00208493
0.00210855
0.00213162
0.00215414
0.00217613
0.00219761
0.00221859
0.00223906
0.002259
0.0022784
0.00229726
0.00231556
0.00233331
0.00235049
0.00236709
0.00238311
0.00239854
0.00241338
0.00242763
0.00244128
0.00245433
0.00246678
0.00247863
0.00248987
0.0025005
0.00251052
0.00251994
0.00252874
0.00253693
0.00254451
0.00255147
0.00255782
0.00256356
0.00256869
0.00257323
0.00257711
0.00258044
0.00258313
0.00258516
0.0025868
0.00258792
0.00258849
0.0025885
0.00258794
0.00258681
0.00258513
0.00258289
0.00258011
0.0025768
0.00257297
0.00256859
0.0025638
0.00255839
0.00255264
0.00254626
0.00253956
0.00253223
0.00252461
0.00251637
0.00250784
0.00249881
0.00248941
0.00247966
0.00246957
0.00245919
0.00244854
0.00243764
0.00242651
0.00241516
0.00240361
0.00239187
0.00237997
0.00236793
0.00235578
0.00234353
0.0023312
0.0023188
0.00230632
0.00229372
0.00228093
0.00226781
0.00225413
0.0022395
0.00222278
0.00220107
0.00216466
8.08737e-10
9.14303e-08
1.09795e-06
5.55437e-06
1.79766e-05
3.76803e-05
6.11009e-05
8.49416e-05
0.000105802
0.000122231
0.000134329
0.000142961
0.000148089
0.00015069
0.000151374
0.000150567
0.000148523
0.000145419
0.000141375
0.000136354
0.000130389
0.000123813
0.000116043
0.000107184
9.58965e-05
8.00626e-05
6.47261e-05
5.03663e-05
3.86673e-05
3.32658e-05
3.39967e-05
4.57824e-05
6.767e-05
8.99913e-05
0.000105848
0.00011559
0.000121943
0.000128783
0.000139803
0.000157091
0.000168691
0.0001831
0.000207828
0.000238034
0.00027526
0.000319185
0.000368009
0.000421994
0.000479169
0.000539064
0.000600527
0.000663086
0.000725781
0.000788174
0.000849787
0.000910357
0.000969334
0.0010269
0.00108322
0.00113788
0.00119102
0.00124265
0.00129287
0.00134176
0.00138941
0.00143596
0.00148148
0.00152609
0.00156986
0.00161287
0.00165516
0.0016968
0.0017378
0.00177821
0.00181804
0.0018573
0.001896
0.00193414
0.00197172
0.00200874
0.0020452
0.00208109
0.00211641
0.00215116
0.00218532
0.0022189
0.00225188
0.00228425
0.00231602
0.00234718
0.00237771
0.0024076
0.00243686
0.00246548
0.00249346
0.00252081
0.00254753
0.00257364
0.00259914
0.00262403
0.00264831
0.00267197
0.00269501
0.00271741
0.00273916
0.00276026
0.00278071
0.00280049
0.0028196
0.00283802
0.00285577
0.00287282
0.0028892
0.00290488
0.00291987
0.00293417
0.00294778
0.0029607
0.00297293
0.00298447
0.00299531
0.00300547
0.00301494
0.00302372
0.00303182
0.00303923
0.00304596
0.00305205
0.00305741
0.00306209
0.00306614
0.00306945
0.00307205
0.00307423
0.00307576
0.00307666
0.00307693
0.00307657
0.00307558
0.00307398
0.00307178
0.00306898
0.00306559
0.00306162
0.00305707
0.003052
0.00304633
0.00304018
0.00303344
0.00302622
0.00301844
0.0030102
0.00300139
0.00299214
0.0029824
0.00297223
0.00296164
0.00295068
0.00293936
0.00292773
0.0029158
0.00290359
0.00289111
0.00287839
0.00286544
0.00285228
0.00283894
0.00282546
0.00281185
0.00279814
0.00278433
0.00277042
0.00275639
0.00274217
0.00272764
0.00271261
0.00269671
0.00267896
0.00265665
0.00262241
2.61788e-09
2.35175e-07
2.90715e-06
1.51277e-05
3.90457e-05
6.88603e-05
9.68627e-05
0.000119496
0.000136736
0.000149622
0.000158645
0.000164068
0.000166861
0.000167682
0.000167012
0.000165172
0.00016236
0.000158658
0.000153984
0.000148263
0.000141676
0.000134045
0.000125063
0.000108506
9.28061e-05
7.89565e-05
6.65235e-05
5.74261e-05
5.57894e-05
6.38649e-05
7.69961e-05
0.000101952
0.000121236
0.000134525
0.000144311
0.000152991
0.000164621
0.000182252
0.000191632
0.000206096
0.000229697
0.000258985
0.000296412
0.00034017
0.000390758
0.000446619
0.00050623
0.000568946
0.00063353
0.00069952
0.00076618
0.000833037
0.000899552
0.000965438
0.00103008
0.00109357
0.00115633
0.00121752
0.00127735
0.00133576
0.0013928
0.00144849
0.00150289
0.0015561
0.00160817
0.0016592
0.00170926
0.00175843
0.00180677
0.00185434
0.00190118
0.00194733
0.0019928
0.00203762
0.0020818
0.00212533
0.00216822
0.00221046
0.00225205
0.00229299
0.00233326
0.00237286
0.0024118
0.00245005
0.00248763
0.00252452
0.00256073
0.00259625
0.00263107
0.0026652
0.00269864
0.00273137
0.0027634
0.00279473
0.00282535
0.00285526
0.00288447
0.00291297
0.00294077
0.00296789
0.00299432
0.00302004
0.00304507
0.00306939
0.00309299
0.00311586
0.00313802
0.00315944
0.00318013
0.00320009
0.00321933
0.00323782
0.00325557
0.00327257
0.00328882
0.00330433
0.00331909
0.00333311
0.00334638
0.00335891
0.00337071
0.00338177
0.00339209
0.00340169
0.00341055
0.00341868
0.00342612
0.00343289
0.00343884
0.0034441
0.00344869
0.00345248
0.00345558
0.00345817
0.00346006
0.00346129
0.00346185
0.00346174
0.00346099
0.0034596
0.00345757
0.00345493
0.00345169
0.00344791
0.00344354
0.0034386
0.00343308
0.00342701
0.00342037
0.0034132
0.00340546
0.00339721
0.0033884
0.00337909
0.00336927
0.00335899
0.00334826
0.00333712
0.00332559
0.0033137
0.00330148
0.00328894
0.00327609
0.00326296
0.00324955
0.0032359
0.00322204
0.00320799
0.00319378
0.00317944
0.00316497
0.00315039
0.00313567
0.00312078
0.00310563
0.00309007
0.00307382
0.0030561
0.00303478
0.00300379
7.93156e-09
6.25091e-07
7.87401e-06
3.21188e-05
6.68864e-05
0.000101602
0.000130218
0.000151086
0.000165125
0.000173555
0.00017781
0.000179612
0.000179618
0.000178271
0.000175921
0.000172749
0.000168725
0.000163758
0.000157975
0.000151431
0.000143967
0.000135187
0.000117768
0.000100781
8.67902e-05
7.70704e-05
7.40882e-05
7.78702e-05
8.7564e-05
0.00010816
0.000133668
0.00015694
0.0001717
0.000182135
0.000194229
0.000204532
0.00021221
0.000225915
0.000246975
0.000274354
0.000309609
0.00035142
0.000400434
0.000455221
0.000515111
0.000578432
0.000644097
0.000711474
0.000779867
0.000848862
0.000917989
0.000986896
0.00105501
0.00112219
0.00118892
0.00125447
0.00131892
0.0013821
0.00144404
0.00150472
0.00156417
0.00162243
0.00167954
0.00173555
0.00179052
0.00184453
0.00189763
0.00194987
0.0020013
0.00205198
0.00210193
0.00215118
0.00219974
0.0022476
0.00229478
0.00234126
0.00238704
0.0024321
0.00247643
0.00252003
0.00256288
0.00260499
0.00264634
0.00268693
0.00272677
0.00276584
0.00280417
0.00284173
0.00287855
0.00291462
0.00294993
0.0029845
0.00301832
0.0030514
0.00308372
0.00311529
0.00314608
0.00317613
0.00320545
0.00323403
0.00326188
0.00328899
0.00331535
0.00334097
0.00336582
0.00338992
0.00341325
0.00343581
0.00345759
0.00347859
0.00349881
0.00351825
0.00353691
0.00355478
0.00357187
0.00358818
0.00360371
0.00361847
0.00363247
0.00364569
0.00365816
0.00366986
0.00368081
0.00369101
0.00370047
0.00370917
0.00371721
0.00372451
0.003731
0.0037368
0.0037419
0.00374619
0.00374983
0.00375288
0.00375523
0.0037569
0.0037579
0.00375824
0.00375793
0.00375697
0.00375538
0.00375317
0.00375035
0.00374693
0.00374291
0.00373831
0.00373313
0.00372738
0.00372106
0.00371419
0.00370676
0.00369877
0.00369024
0.00368119
0.00367161
0.00366155
0.00365103
0.00364007
0.0036287
0.00361693
0.00360481
0.00359233
0.00357951
0.00356637
0.00355293
0.00353921
0.00352524
0.00351105
0.00349666
0.0034821
0.0034674
0.00345255
0.00343757
0.00342243
0.00340714
0.00339163
0.00337564
0.00335854
0.00333868
0.00331154
2.07085e-08
1.5598e-06
1.73962e-05
5.37468e-05
9.52429e-05
0.000130072
0.000155916
0.00017312
0.000183805
0.000189184
0.000190709
0.000189503
0.000186595
0.0001827
0.000178205
0.000173225
0.000167671
0.000161566
0.000154786
0.00014752
0.000139402
0.000128297
0.000115775
0.000108319
0.000103556
9.92959e-05
0.000103715
0.000119063
0.000138889
0.000160283
0.000180594
0.000197537
0.000209743
0.000219178
0.000229019
0.000242058
0.00026084
0.00028557
0.000317622
0.000356372
0.000402009
0.000453666
0.000511005
0.000572726
0.000637754
0.000704874
0.000773372
0.00084277
0.000912634
0.000982634
0.00105241
0.00112139
0.00119001
0.00125798
0.00132503
0.00139105
0.00145599
0.00151982
0.00158252
0.00164409
0.00170455
0.00176394
0.0018223
0.00187966
0.00193608
0.00199161
0.00204629
0.00210016
0.00215328
0.00220568
0.00225739
0.00230843
0.0023588
0.00240849
0.00245746
0.00250572
0.00255324
0.00260001
0.00264601
0.00269122
0.00273562
0.00277921
0.002822
0.00286398
0.00290519
0.00294562
0.00298524
0.00302405
0.00306204
0.00309924
0.00313563
0.00317124
0.00320607
0.0032401
0.00327336
0.00330585
0.00333758
0.00336855
0.00339877
0.00342822
0.00345691
0.00348483
0.00351198
0.00353836
0.00356395
0.00358875
0.00361277
0.00363599
0.00365842
0.00368004
0.00370086
0.00372088
0.0037401
0.00375852
0.00377614
0.00379297
0.00380901
0.00382427
0.00383875
0.00385246
0.00386539
0.00387757
0.00388899
0.00389966
0.00390958
0.00391877
0.0039273
0.00393504
0.00394204
0.00394833
0.00395393
0.00395873
0.00396292
0.00396647
0.00396933
0.00397153
0.00397307
0.00397396
0.00397422
0.00397384
0.00397285
0.00397125
0.00396905
0.00396627
0.0039629
0.00395896
0.00395446
0.00394939
0.00394377
0.0039376
0.00393087
0.0039236
0.00391578
0.00390743
0.00389856
0.0038892
0.00387938
0.0038691
0.00385839
0.00384728
0.00383578
0.0038239
0.00381165
0.00379905
0.00378612
0.00377287
0.00375934
0.00374555
0.00373154
0.00371732
0.00370291
0.00368835
0.00367362
0.00365875
0.00364371
0.00362845
0.00361284
0.00359642
0.00357786
0.00355413
4.61521e-08
3.60626e-06
3.12174e-05
7.82084e-05
0.000123178
0.00015691
0.00017906
0.000192802
0.000199151
0.000200083
0.000197522
0.000192857
0.000187018
0.000180585
0.000173754
0.000166493
0.000159015
0.000150953
0.00014298
0.00013468
0.000126208
0.00011851
0.000113438
0.000113295
0.000119473
0.000131493
0.000147581
0.000165413
0.000183691
0.000200993
0.000215534
0.000227393
0.000239978
0.000253842
0.000271525
0.000293838
0.000322567
0.00035767
0.000399264
0.000446778
0.000499874
0.000557824
0.000619909
0.000685022
0.0007522
0.000820639
0.000889843
0.000959456
0.00102918
0.00109847
0.00116728
0.00123599
0.00130388
0.00137096
0.00143713
0.00150231
0.00156648
0.00162962
0.00169171
0.00175278
0.00181283
0.0018719
0.00193004
0.00198731
0.00204374
0.00209938
0.00215426
0.00220838
0.00226184
0.00231467
0.00236689
0.00241853
0.00246959
0.00252011
0.00257019
0.0026196
0.00266825
0.00271609
0.0027631
0.00280925
0.00285453
0.00289892
0.00294243
0.00298504
0.00302677
0.00306759
0.00310758
0.00314676
0.00318514
0.00322274
0.00325957
0.00329562
0.0033309
0.00336542
0.00339918
0.00343219
0.00346445
0.00349595
0.00352668
0.00355665
0.00358585
0.00361426
0.0036419
0.00366875
0.00369482
0.00372009
0.00374456
0.00376824
0.00379111
0.00381317
0.00383442
0.00385487
0.00387451
0.00389334
0.00391137
0.00392861
0.00394506
0.00396073
0.00397563
0.00398975
0.00400311
0.00401572
0.00402758
0.00403869
0.00404907
0.00405876
0.00406775
0.00407598
0.0040835
0.00409032
0.00409646
0.00410184
0.00410663
0.00411076
0.00411422
0.00411704
0.00411923
0.00412079
0.00412174
0.00412208
0.00412183
0.00412099
0.00411958
0.00411761
0.00411507
0.00411199
0.00410836
0.00410419
0.00409948
0.00409424
0.00408845
0.00408213
0.00407527
0.00406789
0.00406
0.00405162
0.00404277
0.00403347
0.00402373
0.00401357
0.00400301
0.00399204
0.00398069
0.00396895
0.00395686
0.00394442
0.00393166
0.00391862
0.00390531
0.00389176
0.003878
0.00386404
0.0038499
0.00383561
0.00382117
0.00380656
0.00379172
0.00377629
0.00375922
0.00373913
8.747e-08
7.35799e-06
4.57794e-05
9.85585e-05
0.000145062
0.000177913
0.000198193
0.000207701
0.000209698
0.000206795
0.000200895
0.000193317
0.000184849
0.000175881
0.000167107
0.000158336
0.000150414
0.000143416
0.000137944
0.000133852
0.000132053
0.000133434
0.000138419
0.000147155
0.000159128
0.000173455
0.000189025
0.000204816
0.000219468
0.000232251
0.000246026
0.000261641
0.000279235
0.000300106
0.000326061
0.000357564
0.000394999
0.00043803
0.000486335
0.000539408
0.000596785
0.000657814
0.000721745
0.000787704
0.000854947
0.000922909
0.000991211
0.00105952
0.00112729
0.001195
0.00126221
0.00132877
0.00139451
0.00145934
0.00152323
0.00158614
0.00164807
0.00170904
0.00176906
0.00182815
0.00188625
0.00194347
0.00199991
0.00205561
0.00211064
0.00216508
0.00221912
0.0022729
0.00232617
0.00237889
0.00243106
0.00248269
0.00253379
0.00258433
0.00263421
0.00268345
0.00273197
0.00277973
0.00282672
0.0028729
0.00291822
0.00296267
0.00300624
0.00304894
0.00309078
0.00313181
0.00317203
0.00321145
0.00325009
0.00328796
0.00332507
0.00336143
0.00339703
0.0034319
0.00346601
0.00349939
0.00353202
0.0035639
0.00359503
0.0036254
0.003655
0.00368384
0.00371189
0.00373917
0.00376566
0.00379137
0.00381628
0.0038404
0.00386371
0.00388621
0.00390791
0.0039288
0.00394889
0.00396817
0.00398665
0.00400434
0.00402125
0.00403739
0.00405275
0.00406736
0.00408121
0.00409432
0.00410669
0.00411832
0.00412925
0.0041395
0.00414903
0.00415785
0.00416598
0.00417343
0.0041802
0.00418629
0.00419177
0.00419658
0.00420076
0.00420432
0.00420726
0.00420961
0.00421138
0.00421256
0.00421318
0.00421325
0.00421276
0.00421174
0.00421019
0.00420811
0.00420551
0.0042024
0.00419877
0.00419462
0.00418995
0.00418476
0.00417904
0.00417281
0.00416608
0.00415887
0.00415119
0.00414306
0.0041345
0.00412551
0.0041161
0.00410628
0.00409604
0.0040854
0.00407438
0.00406298
0.00405124
0.00403918
0.00402682
0.00401419
0.0040013
0.00398818
0.00397486
0.00396136
0.00394772
0.00393395
0.00392001
0.00390566
0.00389
0.00387303
1.39001e-07
1.25187e-05
6.25376e-05
0.000121495
0.000167632
0.000198105
0.000214291
0.000219885
0.000218432
0.000212644
0.000204446
0.000194946
0.000185592
0.000176552
0.000168747
0.000161921
0.000156789
0.000153862
0.000153009
0.000154442
0.000158416
0.000164963
0.000173906
0.000184904
0.000197466
0.000211
0.000224454
0.000237126
0.000250819
0.000267092
0.000285269
0.000305377
0.000329391
0.000357896
0.000391476
0.000430097
0.000473577
0.000521519
0.000573548
0.000629245
0.000688158
0.000749713
0.000813253
0.000878094
0.000943655
0.00100951
0.00107502
0.00114029
0.00120527
0.00126963
0.00133327
0.00139608
0.00145798
0.00151882
0.00157857
0.00163739
0.0016953
0.00175237
0.00180868
0.00186438
0.00191981
0.00197479
0.00202914
0.00208284
0.00213595
0.0021885
0.00224049