/*--------------------------------*- C++ -*----------------------------------*\
  =========                 |
  \\      /  F ield         | OpenFOAM: The Open Source CFD Toolbox
   \\    /   O peration     | Website:  https://openfoam.org
    \\  /    A nd           | Version:  8
     \\/     M anipulation  |
\*---------------------------------------------------------------------------*/
FoamFile
{
    version     2.0;
    format      ascii;
    class       volVectorField;
    location    "800";
    object      U;
}
// * * * * * * * * * * * * * * * * * * * * * * * * * * * * * * * * * * * * * //

dimensions      [0 1 -1 0 0 0 0];

internalField   nonuniform List<vector> 
12225
(
(9.75207 0.058721 0)
(9.31081 0.091251 0)
(8.88433 0.104067 0)
(8.45593 0.105481 0)
(8.08011 0.0870638 0)
(7.76751 0.0632303 0)
(7.52749 0.0419786 0)
(7.32077 0.0455657 0)
(7.15664 0.0434676 0)
(7.03061 0.0239295 0)
(6.93378 0.0205579 0)
(6.85587 0.030982 0)
(6.79593 0.0228097 0)
(6.75565 0.00824921 0)
(6.72145 0.00138053 0)
(6.69782 -0.00926829 0)
(6.68705 -0.00231539 0)
(6.69262 -0.00527622 0)
(10.1051 0.0509746 0)
(10.2676 0.084391 0)
(10.378 0.0876722 0)
(10.4025 0.086541 0)
(10.3824 0.0857235 0)
(10.3323 0.0812213 0)
(10.2578 0.0760775 0)
(10.1769 0.0676698 0)
(10.0661 0.0592094 0)
(9.96358 0.0544647 0)
(9.86306 0.0478561 0)
(9.76346 0.040117 0)
(9.65546 0.0366108 0)
(9.56527 0.0354018 0)
(9.47911 0.03244 0)
(9.40643 0.029143 0)
(9.33832 0.0227185 0)
(9.27325 0.0166458 0)
(10.0033 0.0431705 0)
(10.0573 0.0649985 0)
(10.1013 0.072027 0)
(10.1458 0.0792145 0)
(10.1856 0.0827829 0)
(10.2163 0.083028 0)
(10.2339 0.0811731 0)
(10.2422 0.0793186 0)
(10.2425 0.0756637 0)
(10.2353 0.0706025 0)
(10.2219 0.0668674 0)
(10.2063 0.0638567 0)
(10.1872 0.0587765 0)
(10.1653 0.053284 0)
(10.1416 0.0490899 0)
(10.1178 0.0445054 0)
(10.0938 0.0402082 0)
(10.0696 0.0331218 0)
(10.0025 0.0293536 0)
(10.0347 0.0532667 0)
(10.0562 0.0620762 0)
(10.0789 0.069788 0)
(10.1006 0.0731763 0)
(10.1221 0.0732107 0)
(10.1408 0.0720904 0)
(10.1563 0.0713948 0)
(10.1691 0.0694741 0)
(10.1785 0.0661916 0)
(10.1847 0.0635801 0)
(10.1896 0.0616153 0)
(10.1933 0.0584411 0)
(10.1951 0.054556 0)
(10.1951 0.0507709 0)
(10.1941 0.0467193 0)
(10.1926 0.0428358 0)
(10.19 0.0373368 0)
(10.0026 0.0229961 0)
(10.025 0.0504845 0)
(10.0467 0.0586738 0)
(10.0647 0.0641276 0)
(10.0803 0.0669753 0)
(10.0955 0.0676084 0)
(10.1097 0.0672418 0)
(10.1225 0.066776 0)
(10.1339 0.06538 0)
(10.1437 0.0630701 0)
(10.1519 0.0609424 0)
(10.1594 0.0590065 0)
(10.1663 0.0563164 0)
(10.1719 0.0530344 0)
(10.1764 0.0495976 0)
(10.1802 0.0459788 0)
(10.1835 0.0422447 0)
(10.1857 0.0376147 0)
(10.0026 0.0183891 0)
(10.0183 0.0451734 0)
(10.0392 0.0529154 0)
(10.0553 0.0577994 0)
(10.069 0.0611058 0)
(10.0821 0.0625652 0)
(10.0943 0.0627496 0)
(10.1053 0.0623638 0)
(10.1154 0.0612053 0)
(10.1244 0.0594144 0)
(10.1325 0.0575322 0)
(10.1401 0.0555613 0)
(10.147 0.0530715 0)
(10.1532 0.0501426 0)
(10.1585 0.0470206 0)
(10.1633 0.0437192 0)
(10.1674 0.0401924 0)
(10.1707 0.0362206 0)
(10.0026 0.0149508 0)
(10.0142 0.0389627 0)
(10.0325 0.0475406 0)
(10.047 0.0526675 0)
(10.0597 0.0561802 0)
(10.0717 0.0579312 0)
(10.083 0.0583197 0)
(10.0932 0.0579612 0)
(10.1025 0.0569561 0)
(10.111 0.055461 0)
(10.1188 0.053745 0)
(10.126 0.0518139 0)
(10.1328 0.0494971 0)
(10.1388 0.0468431 0)
(10.1442 0.0439865 0)
(10.1491 0.0409448 0)
(10.1534 0.0376996 0)
(10.157 0.03424 0)
(10.0021 0.0125506 0)
(10.0117 0.0335566 0)
(10.0272 0.0426373 0)
(10.0405 0.0478849 0)
(10.0523 0.0515045 0)
(10.0636 0.0534901 0)
(10.0744 0.0541354 0)
(10.0842 0.0539258 0)
(10.0932 0.0531067 0)
(10.1014 0.051836 0)
(10.109 0.0502613 0)
(10.1161 0.0484033 0)
(10.1226 0.0462285 0)
(10.1285 0.0437772 0)
(10.1339 0.0411305 0)
(10.1387 0.0383047 0)
(10.143 0.0353118 0)
(10.1466 0.032211 0)
(10.0015 0.0107499 0)
(10.0096 0.0298486 0)
(10.023 0.0388552 0)
(10.0353 0.0441274 0)
(10.0465 0.0476959 0)
(10.0572 0.0496965 0)
(10.0674 0.050422 0)
(10.0769 0.0503039 0)
(10.0855 0.0496002 0)
(10.0936 0.0484604 0)
(10.101 0.0470021 0)
(10.1079 0.0452545 0)
(10.1142 0.0432165 0)
(10.1201 0.0409264 0)
(10.1253 0.0384479 0)
(10.1301 0.0358108 0)
(10.1343 0.0330395 0)
(10.138 0.0302101 0)
(10.001 0.00911618 0)
(10.0077 0.0259211 0)
(10.0191 0.0346694 0)
(10.0303 0.0399052 0)
(10.0407 0.0433509 0)
(10.0508 0.0453524 0)
(10.0604 0.046168 0)
(10.0694 0.0461668 0)
(10.0777 0.0455955 0)
(10.0855 0.0445998 0)
(10.0927 0.0432723 0)
(10.0994 0.041655 0)
(10.1056 0.039769 0)
(10.1113 0.0376503 0)
(10.1165 0.0353581 0)
(10.1212 0.0329222 0)
(10.1254 0.0303827 0)
(10.1291 0.0278125 0)
(10.0007 0.00763313 0)
(10.0061 0.0219582 0)
(10.0157 0.0301083 0)
(10.0257 0.0352017 0)
(10.0353 0.038558 0)
(10.0445 0.0405576 0)
(10.0535 0.0414571 0)
(10.062 0.0415611 0)
(10.07 0.0411115 0)
(10.0774 0.0402449 0)
(10.0843 0.039048 0)
(10.0908 0.0375682 0)
(10.0968 0.035839 0)
(10.1024 0.0339016 0)
(10.1074 0.0318072 0)
(10.1121 0.0295877 0)
(10.1162 0.0272867 0)
(10.1199 0.0249789 0)
(10.0006 0.00627761 0)
(10.0049 0.0182252 0)
(10.0127 0.0254771 0)
(10.0215 0.0302485 0)
(10.0302 0.0334187 0)
(10.0387 0.0353548 0)
(10.047 0.0362952 0)
(10.0549 0.0364865 0)
(10.0624 0.0361377 0)
(10.0695 0.0353892 0)
(10.0761 0.0343161 0)
(10.0823 0.0329762 0)
(10.0881 0.0314051 0)
(10.0934 0.0296576 0)
(10.0983 0.0277638 0)
(10.1028 0.0257737 0)
(10.1068 0.0237147 0)
(10.1105 0.0216647 0)
(10.0004 0.00502973 0)
(10.004 0.0147434 0)
(10.0103 0.0208963 0)
(10.0178 0.0251582 0)
(10.0256 0.0280238 0)
(10.0334 0.0298036 0)
(10.041 0.0307148 0)
(10.0484 0.0309461 0)
(10.0554 0.0306739 0)
(10.062 0.0300217 0)
(10.0683 0.0290676 0)
(10.0742 0.027863 0)
(10.0797 0.0264603 0)
(10.0848 0.0248967 0)
(10.0895 0.0232189 0)
(10.0938 0.0214535 0)
(10.0977 0.0196452 0)
(10.1013 0.0178404 0)
(10.0003 0.00387392 0)
(10.0032 0.0114812 0)
(10.0083 0.0164065 0)
(10.0148 0.0199789 0)
(10.0217 0.0224121 0)
(10.0287 0.0239336 0)
(10.0357 0.0247306 0)
(10.0425 0.0249411 0)
(10.049 0.0247083 0)
(10.0553 0.0241294 0)
(10.0612 0.023283 0)
(10.0667 0.0222151 0)
(10.0719 0.0209789 0)
(10.0768 0.019608 0)
(10.0813 0.0181445 0)
(10.0854 0.0166109 0)
(10.0892 0.0150456 0)
(10.0927 0.0134888 0)
(10.0003 0.00279889 0)
(10.0026 0.00839446 0)
(10.0068 0.0120078 0)
(10.0124 0.0147243 0)
(10.0185 0.016591 0)
(10.0248 0.0177458 0)
(10.0311 0.0183331 0)
(10.0374 0.0184566 0)
(10.0435 0.0182113 0)
(10.0494 0.017683 0)
(10.0549 0.0169263 0)
(10.0602 0.0159941 0)
(10.0651 0.0149198 0)
(10.0697 0.0137464 0)
(10.074 0.0124924 0)
(10.0779 0.0111934 0)
(10.0816 0.00986429 0)
(10.085 0.00855328 0)
(10.0002 0.0017791 0)
(10.0021 0.0054249 0)
(10.0057 0.00765206 0)
(10.0105 0.00936485 0)
(10.016 0.0105274 0)
(10.0217 0.0112008 0)
(10.0275 0.0114836 0)
(10.0333 0.0114401 0)
(10.039 0.0111338 0)
(10.0445 0.0106184 0)
(10.0498 0.00993691 0)
(10.0548 0.00912514 0)
(10.0594 0.0082126 0)
(10.0638 0.00722542 0)
(10.0679 0.0061844 0)
(10.0717 0.00511035 0)
(10.0753 0.00402082 0)
(10.0785 0.00294595 0)
(10.0002 0.000775321 0)
(10.0019 0.00247197 0)
(10.005 0.00322669 0)
(10.0093 0.00380563 0)
(10.0143 0.00412711 0)
(10.0196 0.00420905 0)
(10.025 0.00408823 0)
(10.0305 0.00380527 0)
(10.0359 0.0033773 0)
(10.0411 0.00284071 0)
(10.0461 0.00220669 0)
(10.0509 0.00150336 0)
(10.0554 0.000738647 0)
(10.0596 -6.5042e-05 0)
(10.0635 -0.000901196 0)
(10.0672 -0.00175118 0)
(10.0707 -0.00260814 0)
(10.0739 -0.00344696 0)
(10.0002 -0.000216147 0)
(10.0018 -0.000455406 0)
(10.0048 -0.00118986 0)
(10.0089 -0.00180204 0)
(10.0137 -0.00237219 0)
(10.0188 -0.00294109 0)
(10.0241 -0.00350326 0)
(10.0294 -0.00407247 0)
(10.0346 -0.00464425 0)
(10.0397 -0.00523255 0)
(10.0446 -0.00582953 0)
(10.0492 -0.00644582 0)
(10.0536 -0.00706977 0)
(10.0577 -0.00770871 0)
(10.0616 -0.00834918 0)
(10.0652 -0.00899557 0)
(10.0686 -0.00963302 0)
(10.0717 -0.0102568 0)
(10.0002 -0.00116511 0)
(10.0018 -0.00324018 0)
(10.005 -0.00539367 0)
(10.0093 -0.00712947 0)
(10.0142 -0.00853603 0)
(10.0194 -0.00970667 0)
(10.0248 -0.0106796 0)
(10.0301 -0.0115006 0)
(10.0354 -0.012202 0)
(10.0405 -0.0128215 0)
(10.0454 -0.0133818 0)
(10.05 -0.0139049 0)
(10.0544 -0.0144015 0)
(10.0585 -0.0148827 0)
(10.0623 -0.0153519 0)
(10.0659 -0.0158127 0)
(10.0693 -0.0162632 0)
(10.0724 -0.0166966 0)
(10.0002 -0.0021002 0)
(10.0021 -0.00593315 0)
(10.0056 -0.00943004 0)
(10.0103 -0.0121693 0)
(10.0156 -0.0143071 0)
(10.0212 -0.0159822 0)
(10.0268 -0.0172897 0)
(10.0324 -0.0182925 0)
(10.0378 -0.0190722 0)
(10.043 -0.0196823 0)
(10.048 -0.0201814 0)
(10.0527 -0.0205954 0)
(10.0571 -0.0209615 0)
(10.0613 -0.0212882 0)
(10.0651 -0.0215985 0)
(10.0687 -0.0218908 0)
(10.0721 -0.0221775 0)
(10.0753 -0.0224468 0)
(10.0003 -0.0030886 0)
(10.0025 -0.00871246 0)
(10.0067 -0.0134985 0)
(10.0121 -0.017129 0)
(10.018 -0.0198777 0)
(10.024 -0.0219715 0)
(10.03 -0.0235228 0)
(10.036 -0.0246419 0)
(10.0417 -0.0254308 0)
(10.0471 -0.0259926 0)
(10.0522 -0.0263876 0)
(10.0571 -0.0266784 0)
(10.0616 -0.0268913 0)
(10.0658 -0.0270671 0)
(10.0697 -0.0272117 0)
(10.0733 -0.0273516 0)
(10.0767 -0.0274796 0)
(10.0799 -0.027607 0)
(10.0004 -0.00420313 0)
(10.0032 -0.0117245 0)
(10.0084 -0.0177337 0)
(10.0147 -0.0221145 0)
(10.0213 -0.0253653 0)
(10.0279 -0.0277814 0)
(10.0344 -0.0294961 0)
(10.0408 -0.0306479 0)
(10.0469 -0.0313933 0)
(10.0526 -0.0318524 0)
(10.0579 -0.0321138 0)
(10.0629 -0.0322447 0)
(10.0675 -0.0322954 0)
(10.0718 -0.0322999 0)
(10.0758 -0.0322851 0)
(10.0794 -0.0322637 0)
(10.0829 -0.0322494 0)
(10.0861 -0.0322347 0)
(10.0005 -0.00553653 0)
(10.0043 -0.0151106 0)
(10.0108 -0.0222124 0)
(10.0182 -0.027174 0)
(10.0256 -0.0308256 0)
(10.0329 -0.0334816 0)
(10.0401 -0.0352696 0)
(10.047 -0.0363776 0)
(10.0535 -0.0370123 0)
(10.0594 -0.0373176 0)
(10.065 -0.0374019 0)
(10.0701 -0.0373439 0)
(10.0748 -0.0372076 0)
(10.0792 -0.0370287 0)
(10.0832 -0.0368441 0)
(10.0869 -0.0366674 0)
(10.0903 -0.0365141 0)
(10.0935 -0.0363763 0)
(10.0007 -0.00722154 0)
(10.006 -0.0189898 0)
(10.0142 -0.0269938 0)
(10.0229 -0.0323399 0)
(10.0313 -0.0362972 0)
(10.0394 -0.0391047 0)
(10.0472 -0.0408668 0)
(10.0546 -0.0418437 0)
(10.0615 -0.0422991 0)
(10.0677 -0.0423955 0)
(10.0735 -0.0422584 0)
(10.0787 -0.0419827 0)
(10.0835 -0.0416391 0)
(10.0879 -0.0412777 0)
(10.092 -0.0409286 0)
(10.0957 -0.0406148 0)
(10.0992 -0.0403434 0)
(10.1025 -0.0401095 0)
(10.0012 -0.00942519 0)
(10.0087 -0.0234603 0)
(10.019 -0.0321865 0)
(10.0292 -0.0377245 0)
(10.0386 -0.0418368 0)
(10.0476 -0.044639 0)
(10.0562 -0.0462507 0)
(10.0642 -0.0470179 0)
(10.0714 -0.0472476 0)
(10.078 -0.0471054 0)
(10.084 -0.0467293 0)
(10.0895 -0.0462226 0)
(10.0945 -0.0456718 0)
(10.099 -0.0451251 0)
(10.1032 -0.0446219 0)
(10.107 -0.0441746 0)
(10.1106 -0.0438006 0)
(10.114 -0.0434759 0)
(10.0018 -0.0124018 0)
(10.0128 -0.0284764 0)
(10.0259 -0.0377894 0)
(10.038 -0.0434403 0)
(10.0486 -0.0475105 0)
(10.0588 -0.0500828 0)
(10.0684 -0.0514014 0)
(10.0773 -0.0518964 0)
(10.0852 -0.0518846 0)
(10.0925 -0.0515126 0)
(10.0991 -0.0509136 0)
(10.105 -0.0502012 0)
(10.1104 -0.0494595 0)
(10.1152 -0.0487532 0)
(10.1196 -0.0481118 0)
(10.1236 -0.0475532 0)
(10.1273 -0.047091 0)
(10.1307 -0.046692 0)
(10.003 -0.0168265 0)
(10.0197 -0.0341474 0)
(10.0371 -0.0432729 0)
(10.0524 -0.0490559 0)
(10.0656 -0.0533306 0)
(10.0782 -0.0557717 0)
(10.0899 -0.0567909 0)
(10.1006 -0.0569378 0)
(10.1102 -0.0565608 0)
(10.1188 -0.0558191 0)
(10.1264 -0.0548498 0)
(10.1332 -0.0537859 0)
(10.139 -0.0527271 0)
(10.1441 -0.0517418 0)
(10.1484 -0.0508672 0)
(10.152 -0.0501153 0)
(10.1551 -0.0494812 0)
(10.1576 -0.0489122 0)
(10.0071 -0.0256965 0)
(10.0356 -0.0434744 0)
(10.0646 -0.0497604 0)
(10.0878 -0.0546847 0)
(10.1087 -0.0592228 0)
(10.128 -0.0620371 0)
(10.1453 -0.063327 0)
(10.1598 -0.0636305 0)
(10.1717 -0.0632517 0)
(10.1811 -0.0623611 0)
(10.188 -0.0610849 0)
(10.1927 -0.0595767 0)
(10.1953 -0.0579765 0)
(10.196 -0.0563946 0)
(10.195 -0.0549259 0)
(10.1926 -0.0536549 0)
(10.1891 -0.0526153 0)
(10.1847 -0.0517915 0)
(10.0253 -0.0341348 0)
(10.1073 -0.0598118 0)
(10.1709 -0.0662894 0)
(10.2098 -0.0681169 0)
(10.2345 -0.0691959 0)
(10.2467 -0.0689429 0)
(10.2475 -0.0675409 0)
(10.2381 -0.0654648 0)
(10.2209 -0.0629782 0)
(10.1979 -0.0602091 0)
(10.1705 -0.057269 0)
(10.1396 -0.0543061 0)
(10.106 -0.051419 0)
(10.0708 -0.0487106 0)
(10.0346 -0.0462762 0)
(9.99843 -0.0441713 0)
(9.96317 -0.0424416 0)
(9.92981 -0.0414839 0)
(9.9171 -0.0296935 0)
(9.69617 -0.0635863 0)
(9.46295 -0.0744104 0)
(9.22287 -0.0774277 0)
(8.99386 -0.0759401 0)
(8.78375 -0.0716945 0)
(8.59314 -0.066056 0)
(8.42206 -0.0597729 0)
(8.26973 -0.0534144 0)
(8.13511 -0.0472143 0)
(8.0171 -0.0412595 0)
(7.9143 -0.035659 0)
(7.82524 -0.030539 0)
(7.74809 -0.0259868 0)
(7.68116 -0.0220653 0)
(7.62258 -0.0189216 0)
(7.56989 -0.0165903 0)
(7.52232 -0.0153269 0)
(-0.002863 0.0079158 0)
(-0.0133903 0.0130725 0)
(-0.027681 0.014099 0)
(-0.0426441 0.01187 0)
(-0.0533417 0.00575324 0)
(-0.0519392 -0.00421082 0)
(-0.0353462 -0.0176901 -7.82205e-19)
(-0.00709992 -0.0316553 8.81668e-19)
(0.0296103 -0.0419953 0)
(0.0717843 -0.0469588 4.94155e-19)
(0.116232 -0.0472635 0)
(0.159466 -0.0441616 0)
(0.198716 -0.0387666 0)
(0.232309 -0.031915 -2.40923e-19)
(0.259394 -0.0241902 0)
(0.279554 -0.0159532 0)
(0.292466 -0.00740147 2.08073e-19)
(0.298331 0.00153917 0)
(0.296039 0.0107809 0)
(0.285743 0.0198524 0)
(0.268077 0.0280068 -2.22985e-19)
(0.243674 0.0344458 0)
(0.213461 0.0384325 -2.64099e-19)
(0.178833 0.0393191 0)
(0.141649 0.0366374 0)
(0.104209 0.0303024 -4.33219e-19)
(0.0690738 0.0209157 0)
(0.0388104 0.0101051 7.35377e-19)
(0.0154029 0.000611727 0)
(-0.000625054 -0.00520452 -1.26514e-18)
(-0.0107542 -0.00798825 0)
(-0.0159698 -0.00996381 0)
(-0.0151393 -0.0123714 0)
(-0.00772807 -0.0160935 0)
(0.00715393 -0.0215703 0)
(0.0297313 -0.0276782 8.53138e-19)
(0.0586957 -0.0322021 0)
(0.0899195 -0.0326446 -9.72644e-19)
(0.118287 -0.0284862 0)
(0.139392 -0.0210694 7.56861e-19)
(0.151265 -0.0129794 0)
(0.155092 -0.0064242 0)
(0.153501 -0.00267292 -7.3597e-19)
(0.150158 -0.00274876 0)
(0.148013 -0.00765752 -7.56406e-19)
(0.145224 -0.016784 7.60487e-19)
(0.135245 -0.024451 0)
(0.110618 -0.0201967 8.33789e-19)
(0.0662085 -0.00076395 9.84525e-19)
(-0.0114485 0.0174714 0)
(-0.111945 0.0371709 0)
(-0.220939 0.0611807 0)
(-0.34205 0.0854039 0)
(-0.47197 0.106846 0)
(-0.607439 0.118427 -1.68877e-19)
(-0.745777 0.120064 0)
(-0.881388 0.116397 1.35199e-19)
(-1.0114 0.109489 0)
(-1.13444 0.102833 0)
(-1.24924 0.0967369 -1.06291e-19)
(-1.35589 0.0864523 0)
(-1.45393 0.0777374 9.59854e-20)
(-1.54362 0.0718701 0)
(-1.62647 0.0651953 0)
(-1.70256 0.0594008 0)
(-1.77269 0.0542417 -8.32153e-20)
(-1.8376 0.0497415 0)
(-1.89789 0.0458138 0)
(-1.95416 0.0423878 -7.75596e-20)
(-2.00688 0.0393919 0)
(-2.05649 0.036757 -7.4679e-20)
(-2.10332 0.0344177 0)
(-2.14767 0.0323272 0)
(-2.18977 0.0304313 0)
(-2.2298 0.0287045 7.00813e-20)
(-2.26793 0.0271034 0)
(-2.30427 0.0256178 0)
(-2.33892 0.0242134 6.7228e-20)
(-2.37196 0.02289 6.63475e-20)
(-2.40344 0.0216195 0)
(-2.43342 0.020408 6.46596e-20)
(-2.46193 0.0192312 0)
(-2.48902 0.0180993 1.26086e-19)
(-2.5147 0.0169899 0)
(-2.53899 0.0159146 1.2294e-19)
(-2.56192 0.014852 0)
(-2.5835 0.0138135 -1.19833e-19)
(-2.60371 0.0127805 0)
(-2.62255 0.0117594 0)
(-2.63999 0.0107425 0)
(-2.65607 0.00972836 1.13609e-19)
(-2.67079 0.00870336 0)
(-2.68414 0.00766535 -1.10454e-19)
(-2.69606 0.00660166 0)
(-2.70652 0.00550852 1.07235e-19)
(-2.71546 0.00437803 1.05595e-19)
(-2.72283 0.00321952 1.03934e-19)
(-2.72857 0.00206804 0)
(-2.73262 0.00100807 0)
(-2.73491 0.000132216 0)
(-2.73587 -0.000597477 0)
(-2.73556 -0.00127816 0)
(-2.73402 -0.00193987 0)
(-2.73126 -0.0025888 0)
(-2.72728 -0.00322987 0)
(-2.72208 -0.00386132 -8.73331e-20)
(-2.71565 -0.00448571 -8.52684e-20)
(-2.70801 -0.00510072 0)
(-2.69913 -0.00570832 0)
(-2.68904 -0.00630666 0)
(-2.67772 -0.00689701 -7.65441e-20)
(-2.66518 -0.00747838 0)
(-2.65142 -0.00805107 0)
(-2.63644 -0.0086153 0)
(-2.62025 -0.00917019 0)
(-2.60286 -0.00971745 6.45124e-20)
(-2.58426 -0.0102547 0)
(-2.56446 -0.0107853 0)
(-2.54347 -0.0113051 -5.66187e-20)
(-2.5213 -0.0118191 5.38621e-20)
(-2.49795 -0.0123216 0)
(-2.47342 -0.012819 4.81452e-20)
(-2.44774 -0.0133043 0)
(-2.4209 -0.0137854 -4.21361e-20)
(-2.39292 -0.0142543 0)
(-2.3638 -0.0147206 0)
(-2.33357 -0.0151751 0)
(-2.30223 -0.0156233 0)
(-2.26981 -0.0160544 0)
(-2.2363 -0.016476 4.41353e-20)
(-2.20174 -0.0168793 3.67594e-20)
(-2.16614 -0.0172588 0)
(-2.12955 -0.0175712 0)
(-2.09204 -0.0177735 0)
(-2.05367 -0.0177698 -4.95393e-21)
(-2.01448 -0.017539 0)
(-1.97443 -0.0175408 0)
(-1.93341 -0.0178774 0)
(-1.89151 -0.0181745 3.11991e-20)
(-1.84878 -0.0184607 -4.10586e-20)
(-1.80528 -0.0187321 0)
(-1.76102 -0.0189963 0)
(-1.71601 -0.0192468 -7.2939e-20)
(-1.67029 -0.019492 -8.44108e-20)
(-1.62387 -0.0197287 0)
(-1.5768 -0.0199569 0)
(-1.52909 -0.0201828 1.21695e-19)
(-1.48079 -0.0203984 -1.35188e-19)
(-1.4319 -0.0206088 0)
(-1.38249 -0.0208053 0)
(-1.33255 -0.0209962 -1.79223e-19)
(-1.28218 -0.0211723 0)
(-1.23135 -0.0213432 0)
(-1.18015 -0.0214995 -2.29604e-19)
(-1.12857 -0.0216502 0)
(-1.07666 -0.0217992 -2.67364e-19)
(-1.02445 -0.0219396 0)
(-0.971958 -0.0220848 0)
(-0.919197 -0.0222302 0)
(-0.866181 -0.0223818 3.55534e-19)
(-0.812917 -0.022538 0)
(-0.759413 -0.0227027 0)
(-0.705675 -0.022873 0)
(-0.651714 -0.0230536 0)
(-0.597534 -0.0232434 0)
(-0.543142 -0.0234494 0)
(-0.488537 -0.0236719 5.70653e-19)
(-0.433712 -0.0239179 6.10867e-19)
(-0.378657 -0.0241876 0)
(-0.323361 -0.0244847 0)
(-0.26782 -0.0248077 0)
(-0.212038 -0.0251772 -8.10139e-19)
(-0.156046 -0.025579 0)
(-0.0999343 -0.0259657 1.88468e-18)
(-0.0439144 -0.0262371 -2.04016e-18)
(0.0115825 -0.0259184 -2.12005e-18)
(0.06659 -0.0246834 2.07061e-18)
(0.117402 -0.022528 -1.99529e-18)
(0.173087 -0.0198828 1.94089e-18)
(0.187392 -0.00789775 0)
(-0.00027253 0.0211976 0)
(-0.00609137 0.0370339 0)
(-0.0130128 0.0380249 2.01832e-18)
(-0.0134273 0.0280374 0)
(0.0012542 0.00513117 -2.08857e-18)
(0.0319252 -0.0333952 -1.30632e-18)
(0.0722703 -0.0760755 -4.11941e-19)
(0.118071 -0.110664 -2.94584e-19)
(0.165252 -0.131603 0)
(0.21035 -0.138739 -1.93422e-19)
(0.251197 -0.134906 0)
(0.286888 -0.123615 0)
(0.317122 -0.10782 2.89295e-19)
(0.341935 -0.0896255 1.37847e-19)
(0.361564 -0.0703854 -2.68842e-19)
(0.376329 -0.0508709 -2.65749e-19)
(0.386626 -0.0314531 -1.32864e-19)
(0.392636 -0.012254 0)
(0.395376 0.00675388 0)
(0.39477 0.0254084 0)
(0.390435 0.0433659 -1.40483e-19)
(0.381855 0.0600852 0)
(0.368449 0.0748276 4.49058e-19)
(0.349698 0.0865946 0)
(0.325345 0.0942394 0)
(0.295571 0.0966235 1.81327e-19)
(0.261218 0.0929392 0)
(0.223909 0.0831572 -2.29195e-19)
(0.186008 0.0682929 -5.36701e-19)
(0.150511 0.0501654 3.21484e-19)
(0.120636 0.0304715 0)
(0.0997956 0.0101491 0)
(0.0895585 -0.0109151 0)
(0.09161 -0.0317015 -9.72642e-19)
(0.104253 -0.052121 -8.20178e-19)
(0.123977 -0.0699556 -3.39312e-19)
(0.14464 -0.0781878 0)
(0.160107 -0.0732571 4.86861e-19)
(0.167622 -0.0578137 0)
(0.166703 -0.0372828 -4.68438e-19)
(0.158004 -0.0185471 0)
(0.142203 -0.00608358 0)
(0.118943 0.00147561 5.9592e-19)
(0.0823927 0.00918517 0)
(0.0225581 0.0241321 2.27635e-18)
(-0.0743486 0.0569816 -5.66025e-19)
(-0.197844 0.101356 0)
(-0.332128 0.147264 -2.43607e-19)
(-0.472763 0.190962 -1.81669e-19)
(-0.619253 0.227282 0)
(-0.76677 0.254711 0)
(-0.912142 0.273236 0)
(-1.05319 0.282556 0)
(-1.18566 0.283779 0)
(-1.30728 0.278281 7.717e-20)
(-1.41732 0.266812 1.45737e-19)
(-1.51555 0.251278 -6.88224e-20)
(-1.60242 0.23343 0)
(-1.67904 0.214607 1.27716e-19)
(-1.74671 0.196069 -6.20598e-20)
(-1.80761 0.178345 0)
(-1.86214 0.161832 -5.84933e-20)
(-1.91188 0.147153 0)
(-1.95741 0.134011 0)
(-1.99965 0.122482 -1.10484e-19)
(-2.03916 0.112408 5.42425e-20)
(-2.07635 0.103635 -1.06841e-19)
(-2.11156 0.0959773 1.05211e-19)
(-2.14502 0.089277 5.18471e-20)
(-2.17692 0.0833648 0)
(-2.20739 0.0781186 5.04526e-20)
(-2.23654 0.0734053 0)
(-2.26443 0.0691428 0)
(-2.29112 0.0652333 0)
(-2.31667 0.0616273 4.78556e-20)
(-2.34109 0.0582545 0)
(-2.3644 0.0550891 9.34901e-20)
(-2.38664 0.0520794 -1.38595e-19)
(-2.4078 0.0492159 -4.56748e-20)
(-2.4279 0.0464588 0)
(-2.44694 0.0438093 -4.45784e-20)
(-2.46492 0.0412352 0)
(-2.48186 0.0387439 -8.69854e-20)
(-2.49774 0.0363075 0)
(-2.51258 0.0339355 -8.48118e-20)
(-2.52636 0.0316014 1.67325e-19)
(-2.53909 0.0293149 8.26127e-20)
(-2.55075 0.0270552 0)
(-2.56134 0.0248289 0)
(-2.57085 0.0226335 0)
(-2.57931 0.0204662 -7.80813e-20)
(-2.58673 0.0183212 0)
(-2.59311 0.0161969 7.57341e-20)
(-2.59846 0.0140848 0)
(-2.60277 0.0119823 -2.19981e-19)
(-2.6061 0.00987837 -7.20683e-20)
(-2.60847 0.00776951 -7.08047e-20)
(-2.60997 0.00566637 0)
(-2.61069 0.00362509 0)
(-2.61072 0.0017265 0)
(-2.60973 -3.99416e-05 0)
(-2.6076 -0.00174273 0)
(-2.60429 -0.00340803 -1.25267e-19)
(-2.59981 -0.00504362 -1.22327e-19)
(-2.59413 -0.00665497 0)
(-2.58727 -0.00824049 5.80345e-20)
(-2.5792 -0.00980233 5.64779e-20)
(-2.56993 -0.0113376 0)
(-2.55947 -0.0128479 1.06849e-19)
(-2.5478 -0.0143304 0)
(-2.53492 -0.0157861 -5.03035e-20)
(-2.52085 -0.017213 0)
(-2.50557 -0.0186112 0)
(-2.4891 -0.01998 9.00887e-20)
(-2.47143 -0.0213186 0)
(-2.45257 -0.022628 -4.13123e-20)
(-2.43253 -0.023906 0)
(-2.4113 -0.0251552 0)
(-2.38889 -0.0263719 -3.62204e-20)
(-2.36531 -0.0275599 -3.38724e-20)
(-2.34057 -0.0287137 0)
(-2.31467 -0.0298386 3.04687e-20)
(-2.28761 -0.0309274 0)
(-2.25942 -0.0319871 -2.64745e-20)
(-2.23011 -0.0330086 -4.83076e-20)
(-2.19967 -0.0339998 0)
(-2.16813 -0.0349502 0)
(-2.13551 -0.0358686 0)
(-2.10181 -0.0367438 0)
(-2.06705 -0.0375846 -2.60047e-20)
(-2.03124 -0.0383805 -6.55164e-20)
(-1.99442 -0.0391414 0)
(-1.95663 -0.0398639 0)
(-1.91787 -0.0405695 0)
(-1.87815 -0.0412656 2.15439e-21)
(-1.83744 -0.041954 0)
(-1.79577 -0.0426072 0)
(-1.75322 -0.0431959 2.51444e-20)
(-1.70984 -0.0437091 1.71792e-20)
(-1.66566 -0.0441769 2.41164e-20)
(-1.62069 -0.0445995 0)
(-1.57496 -0.0449854 0)
(-1.52849 -0.0453267 4.12017e-20)
(-1.4813 -0.0456317 -4.55419e-20)
(-1.43343 -0.0459011 0)
(-1.38491 -0.0461381 0)
(-1.33577 -0.046346 -6.57046e-20)
(-1.28603 -0.0465241 2.148e-19)
(-1.23573 -0.046671 0)
(-1.1849 -0.0467843 0)
(-1.13357 -0.0468646 9.22936e-20)
(-1.08179 -0.0469089 0)
(-1.02956 -0.0469195 2.11048e-19)
(-0.976954 -0.0468969 -1.11916e-19)
(-0.923968 -0.0468409 0)
(-0.87066 -0.0467651 1.28703e-19)
(-0.817044 -0.0466631 2.7103e-19)
(-0.763144 -0.0465496 0)
(-0.708979 -0.0464251 0)
(-0.654559 -0.0462965 -1.60544e-19)
(-0.599891 -0.0461644 0)
(-0.544982 -0.0460326 3.5297e-19)
(-0.489836 -0.045898 0)
(-0.43446 -0.0457642 0)
(-0.378857 -0.0456299 0)
(-0.32303 -0.0455022 0)
(-0.266977 -0.045383 -2.2278e-19)
(-0.210691 -0.045279 -2.32432e-19)
(-0.154161 -0.0451912 0)
(-0.0973741 -0.045121 0)
(-0.0403289 -0.0450564 0)
(0.0169664 -0.044978 2.69337e-19)
(0.0744883 -0.0448536 0)
(0.132171 -0.044645 -5.42841e-19)
(0.189919 -0.0442639 5.43643e-19)
(0.247431 -0.0434517 5.44503e-19)
(0.304569 -0.041879 5.42407e-19)
(0.358985 -0.0392768 5.4795e-19)
(0.415761 -0.0347102 5.49911e-19)
(0.450573 -0.0212099 0)
(0.000352476 0.0240084 0)
(0.000671059 0.0416248 0)
(0.00658241 0.0337478 -2.14905e-18)
(0.0275191 -0.00149547 -1.48985e-18)
(0.0685373 -0.0636314 8.81101e-19)
(0.121337 -0.131497 5.72602e-19)
(0.175154 -0.184653 -3.75261e-22)
(0.223054 -0.214599 0)
(0.262497 -0.222574 0)
(0.293618 -0.214109 0)
(0.317724 -0.195189 0)
(0.33631 -0.170599 0)
(0.350606 -0.143555 -6.59994e-19)
(0.361474 -0.11594 0)
(0.369477 -0.0887531 2.10574e-19)
(0.374984 -0.0624587 2.10049e-19)
(0.378262 -0.0372295 0)
(0.379502 -0.0131248 0)
(0.378961 0.00989355 0)
(0.376971 0.032003 0)
(0.373801 0.0533618 2.23685e-19)
(0.369637 0.0739176 0)
(0.364415 0.0933102 -2.39499e-19)
(0.357749 0.110788 0)
(0.348949 0.12522 0)
(0.337134 0.135154 0)
(0.321472 0.139056 -5.98102e-19)
(0.301573 0.13566 0)
(0.277924 0.124403 3.54405e-19)
(0.252091 0.105603 -7.90106e-19)
(0.226642 0.0803648 0)
(0.204599 0.050097 0)
(0.188695 0.0165491 0)
(0.179231 -0.0191074 5.90883e-19)
(0.175214 -0.053381 5.21331e-19)
(0.170058 -0.0764483 0)
(0.156512 -0.0785278 0)
(0.134155 -0.0619847 -7.18691e-19)
(0.103952 -0.0345179 -7.40142e-19)
(0.0661392 -0.000977075 8.21191e-19)
(0.0185749 0.0338245 0)
(-0.049728 0.0670512 0)
(-0.144537 0.107678 0)
(-0.259154 0.159102 0)
(-0.389965 0.215702 -3.64891e-19)
(-0.531202 0.272794 -2.89384e-19)
(-0.675092 0.326376 2.37598e-19)
(-0.815837 0.371615 0)
(-0.949287 0.407083 0)
(-1.07169 0.431758 0)
(-1.18137 0.444797 0)
(-1.27773 0.446714 -1.3298e-19)
(-1.36064 0.438587 0)
(-1.43111 0.422107 0)
(-1.4911 0.399273 -1.11118e-19)
(-1.54298 0.372186 -1.05137e-19)
(-1.58888 0.342996 0)
(-1.63066 0.313626 1.97336e-19)
(-1.66957 0.285439 -9.48076e-20)
(-1.70647 0.259258 9.21827e-20)
(-1.74204 0.235393 0)
(-1.77667 0.214096 0)
(-1.81046 0.195506 0)
(-1.84341 0.179229 0)
(-1.87559 0.165044 8.25664e-20)
(-1.90698 0.152674 1.62245e-19)
(-1.93757 0.141856 7.96351e-20)
(-1.96733 0.132345 -7.83019e-20)
(-1.99624 0.123921 0)
(-2.0243 0.116388 1.51571e-19)
(-2.05147 0.109591 1.4923e-19)
(-2.07776 0.10339 1.46983e-19)
(-2.10315 0.0976804 -1.44819e-19)
(-2.12764 0.092368 0)
(-2.15123 0.0873853 -2.11117e-19)
(-2.1739 0.0826696 0)
(-2.19566 0.0781801 6.83034e-20)
(-2.21648 0.0738745 6.75167e-20)
(-2.23638 0.0697293 0)
(-2.25534 0.0657156 0)
(-2.27335 0.0618206 1.2934e-19)
(-2.29041 0.0580238 0)
(-2.30651 0.0543191 1.25741e-19)
(-2.32165 0.0506906 0)
(-2.33583 0.0471356 -1.22169e-19)
(-2.34903 0.04364 -2.40852e-19)
(-2.36125 0.0402021 0)
(-2.37249 0.0368116 0)
(-2.38273 0.0334678 0)
(-2.39197 0.0301712 -1.13153e-19)
(-2.40023 0.0269206 0)
(-2.40751 0.023716 -1.09472e-19)
(-2.41381 0.0205563 0)
(-2.41913 0.0174445 0)
(-2.42346 0.0143846 2.07594e-19)
(-2.42682 0.0113835 0)
(-2.4292 0.00845055 9.99232e-20)
(-2.43061 0.00559513 0)
(-2.43101 0.00281439 9.58469e-20)
(-2.43037 7.28866e-05 0)
(-2.42862 -0.0026527 0)
(-2.42575 -0.00535273 0)
(-2.42176 -0.00801751 2.61492e-19)
(-2.41662 -0.0106458 8.4829e-20)
(-2.41034 -0.0132359 0)
(-2.4029 -0.0157873 0)
(-2.3943 -0.0182987 0)
(-2.38455 -0.0207692 0)
(-2.37362 -0.0231977 -7.3189e-20)
(-2.36154 -0.0255828 1.42002e-19)
(-2.34828 -0.0279234 6.83494e-20)
(-2.33385 -0.0302179 -1.32269e-19)
(-2.31826 -0.0324656 -1.27328e-19)
(-2.3015 -0.0346651 -6.09014e-20)
(-2.28357 -0.0368162 0)
(-2.26448 -0.038918 -1.12204e-19)
(-2.24424 -0.0409707 0)
(-2.22283 -0.0429733 1.01869e-19)
(-2.20027 -0.044926 4.79851e-20)
(-2.17657 -0.0468275 0)
(-2.15172 -0.0486773 -8.59734e-20)
(-2.12574 -0.0504742 -3.99205e-20)
(-2.09864 -0.0522173 0)
(-2.07041 -0.0539057 -3.51755e-20)
(-2.04108 -0.0555381 9.56022e-20)
(-2.01065 -0.0571136 0)
(-1.97914 -0.0586304 0)
(-1.94655 -0.0600871 0)
(-1.91291 -0.0614798 0)
(-1.87822 -0.0628061 3.51549e-20)
(-1.8425 -0.064064 2.82627e-20)
(-1.80578 -0.0652544 0)
(-1.76809 -0.066374 0)
(-1.72945 -0.0674269 0)
(-1.68986 -0.0684152 0)
(-1.64933 -0.0693448 0)
(-1.60788 -0.0702289 0)
(-1.56558 -0.0710591 -1.568e-20)
(-1.52247 -0.0718107 -1.07348e-21)
(-1.47855 -0.0724925 0)
(-1.43387 -0.0731047 0)
(-1.38843 -0.0736506 -4.1299e-20)
(-1.34226 -0.0741282 0)
(-1.29539 -0.0745424 5.62598e-20)
(-1.24786 -0.0748958 6.2141e-20)
(-1.19968 -0.075193 0)
(-1.1509 -0.075436 0)
(-1.10154 -0.0756286 -8.48805e-20)
(-1.05164 -0.0757656 -1.82014e-19)
(-1.00122 -0.0758501 0)
(-0.950317 -0.0758758 0)
(-0.898954 -0.0758458 0)
(-0.847174 -0.0757547 -1.22223e-19)
(-0.794999 -0.0756105 1.29903e-19)
(-0.742468 -0.07541 0)
(-0.68961 -0.0751702 2.8831e-19)
(-0.63645 -0.0748892 1.50738e-19)
(-0.583011 -0.0745816 -3.19731e-19)
(-0.529309 -0.0742525 0)
(-0.475355 -0.0739101 0)
(-0.421158 -0.0735577 -3.67532e-19)
(-0.36672 -0.0731986 -1.93071e-19)
(-0.312047 -0.0728306 0)
(-0.257142 -0.0724558 0)
(-0.202007 -0.0720747 0)
(-0.146644 -0.0716935 0)
(-0.0910488 -0.0713165 -4.65e-19)
(-0.0352129 -0.0709514 0)
(0.0208762 -0.0706005 0)
(0.0772301 -0.0702626 0)
(0.133859 -0.0699225 0)
(0.190762 -0.06955 0)
(0.247915 -0.0691025 0)
(0.30526 -0.0685289 -5.275e-19)
(0.362722 -0.0677246 0)
(0.420068 -0.0665008 0)
(0.477261 -0.0645294 -1.09142e-18)
(0.532717 -0.0612797 5.51028e-19)
(0.590308 -0.0556683 -5.619e-19)
(0.6353 -0.0420417 5.73722e-19)
(-0.00113118 0.0240927 0)
(0.00189086 0.0281353 4.69768e-18)
(0.0246449 -0.0164626 0)
(0.0741709 -0.102761 7.85588e-19)
(0.136552 -0.192788 0)
(0.195036 -0.257378 0)
(0.240376 -0.288111 -2.97243e-19)
(0.271578 -0.290516 0)
(0.291652 -0.274451 0)
(0.304348 -0.248435 0)
(0.312591 -0.217984 0)
(0.318205 -0.186122 0)
(0.322155 -0.154346 7.45296e-19)
(0.324878 -0.123336 3.66655e-19)
(0.326524 -0.0933892 -3.64325e-19)
(0.327123 -0.0646352 0)
(0.326683 -0.0371276 0)
(0.325211 -0.0108997 0)
(0.322768 0.0140379 0)
(0.319443 0.0377205 0)
(0.315386 0.0602001 3.94414e-19)
(0.310822 0.0814919 4.04946e-19)
(0.305976 0.101517 -4.19676e-19)
(0.300972 0.119975 4.39789e-19)
(0.295728 0.136232 0)
(0.289912 0.149253 0)
(0.282924 0.157576 5.32031e-19)
(0.27399 0.159459 0)
(0.262483 0.153279 0)
(0.248169 0.137853 6.84413e-19)
(0.231668 0.112904 7.63139e-19)
(0.2141 0.0794129 8.63823e-19)
(0.196882 0.0396689 0)
(0.179371 -0.00180316 0)
(0.154692 -0.0330826 -8.9578e-19)
(0.117225 -0.0405068 0)
(0.0683215 -0.0237119 0)
(0.00915375 0.0107521 7.16088e-19)
(-0.0634439 0.05704 -6.36502e-19)
(-0.152516 0.113077 5.05432e-19)
(-0.256536 0.176115 0)
(-0.374604 0.241452 0)
(-0.502838 0.307125 5.37343e-19)
(-0.635121 0.371682 0)
(-0.765814 0.431349 3.84934e-19)
(-0.889758 0.480899 5.06908e-19)
(-1.00217 0.518326 -4.52255e-19)
(-1.10092 0.543644 2.73761e-19)
(-1.18528 0.556741 0)
(-1.25521 0.558395 0)
(-1.31222 0.549814 2.18094e-19)
(-1.35829 0.532561 1.01728e-19)
(-1.39579 0.50855 0)
(-1.42729 0.479858 0)
(-1.4551 0.448443 8.75923e-20)
(-1.48105 0.415919 1.69745e-19)
(-1.5065 0.383681 0)
(-1.53226 0.352835 -1.56771e-19)
(-1.55871 0.324063 1.52935e-19)
(-1.58591 0.297709 -1.48497e-19)
(-1.6138 0.273862 0)
(-1.64222 0.252515 0)
(-1.67093 0.233584 0)
(-1.69971 0.2168 0)
(-1.72837 0.201923 0)
(-1.75675 0.188712 -1.28943e-19)
(-1.78473 0.176933 0)
(-1.81219 0.166369 0)
(-1.83907 0.156824 0)
(-1.86529 0.148127 -2.40259e-19)