/*--------------------------------*- C++ -*----------------------------------*\
  =========                 |
  \\      /  F ield         | OpenFOAM: The Open Source CFD Toolbox
   \\    /   O peration     | Website:  https://openfoam.org
    \\  /    A nd           | Version:  8
     \\/     M anipulation  |
\*---------------------------------------------------------------------------*/
FoamFile
{
    version     2.0;
    format      ascii;
    class       volVectorField;
    location    "800";
    object      wallShearStress;
}
// * * * * * * * * * * * * * * * * * * * * * * * * * * * * * * * * * * * * * //

dimensions      [0 2 -2 0 0 0 0];

internalField   uniform (0 0 0);

boundaryField
{
    inlet
    {
        type            calculated;
        value           uniform (0 0 0);
    }
    outlet
    {
        type            calculated;
        value           uniform (0 0 0);
    }
    upperWall
    {
        type            calculated;
        value           nonuniform List<vector> 
223
(
(-0.443991 0.0029722 0)
(-0.470822 0.00545042 0)
(-0.497222 0.00687255 0)
(-0.503721 0.00738757 0)
(-0.500194 0.00738197 0)
(-0.490088 0.0070434 0)
(-0.47821 0.00655031 0)
(-0.466166 0.00598497 0)
(-0.45366 0.00538296 0)
(-0.441868 0.00479269 0)
(-0.431041 0.00423581 0)
(-0.421244 0.00372145 0)
(-0.412483 0.0032543 0)
(-0.404693 0.00283543 0)
(-0.397796 0.00246452 0)
(-0.391693 0.00215256 0)
(-0.386241 0.00190381 0)
(-0.381396 0.00175517 0)
(-0.377523 0.0016825 0)
(-0.374456 0.00163715 6.01465e-22)
(-0.371459 0.00157096 0)
(-0.368539 0.001495 0)
(-0.365693 0.00141378 0)
(-0.362922 0.00133143 6.11667e-22)
(-0.36023 0.00124802 0)
(-0.35762 0.00116677 0)
(-0.355092 0.0010866 0)
(-0.352649 0.00100952 -1.24151e-21)
(-0.35029 0.000934429 1.24588e-21)
(-0.348017 0.000862882 1.25022e-21)
(-0.345828 0.000793826 0)
(-0.343723 0.000728633 -1.25877e-21)
(-0.3417 0.000666338 0)
(-0.339758 0.000607824 1.26722e-21)
(-0.337895 0.000552253 1.27143e-21)
(-0.336109 0.000499952 -1.27562e-21)
(-0.334398 0.000450344 0)
(-0.332761 0.000403236 0)
(-0.331198 0.000358855 0)
(-0.329707 0.000317099 0)
(-0.328285 0.00027777 -1.29627e-21)
(-0.326932 0.000241039 0)
(-0.325645 0.00020696 0)
(-0.324423 0.000175635 1.30856e-21)
(-0.32326 0.000147125 0)
(-0.322158 0.000121531 1.31675e-21)
(-0.321108 9.90067e-05 -1.32084e-21)
(-0.320111 7.95035e-05 1.32494e-21)
(-0.319158 6.30361e-05 0)
(-0.31825 4.98436e-05 0)
(-0.317376 3.96416e-05 0)
(-0.316539 3.24219e-05 1.34148e-21)
(-0.315726 2.77841e-05 -1.34566e-21)
(-0.314943 2.56871e-05 0)
(-0.314175 2.57551e-05 0)
(-0.31343 2.78554e-05 0)
(-0.312692 3.16105e-05 0)
(-0.311974 3.69403e-05 0)
(-0.311254 4.35161e-05 0)
(-0.31055 5.1067e-05 0)
(-0.309838 5.95581e-05 0)
(-0.309142 6.86971e-05 1.38492e-21)
(-0.30843 7.81987e-05 -1.3894e-21)
(-0.307737 8.78279e-05 0)
(-0.30702 9.81861e-05 0)
(-0.306321 0.000109134 0)
(-0.305604 0.000120085 -1.40744e-21)
(-0.304881 0.000130955 0)
(-0.304157 0.000138845 0)
(-0.30343 0.000152015 0)
(-0.302631 0.00045333 0)
(-0.304162 0.000639359 0)
(-0.312775 0.000507945 -2.9731e-21)
(-0.312665 0.000386205 0)
(-0.311298 0.000356897 0)
(-0.306558 0.000376041 0)
(-0.304035 0.000389257 0)
(-0.301908 0.000607248 0)
(-0.300946 0.000541384 0)
(-0.299521 0.000343515 0)
(-0.298985 0.000356725 3.04853e-21)
(-0.298749 0.00019708 0)
(-0.298796 2.57627e-05 0)
(-0.299248 -4.27259e-06 0)
(-0.298464 5.75743e-05 -3.11241e-21)
(-0.298275 0.000207883 0)
(-0.298123 -2.33702e-05 -3.10532e-21)
(-0.325811 0.000311866 0)
(-0.315433 0.000853825 0)
(-0.307881 0.00105829 0)
(-0.304426 0.00114561 -3.12865e-21)
(-0.318847 0.000638625 0)
(-0.304046 0.000718557 3.14981e-21)
(-0.313808 0.00131205 3.25029e-21)
(-0.333005 0.00142564 0)
(-0.313717 0.000526679 3.27293e-21)
(-0.318443 -0.000207326 0)
(-0.301192 7.83672e-05 0)
(-0.295055 0.000226542 0)
(-0.293922 0.000169397 -3.20181e-21)
(-0.293597 4.68192e-05 0)
(-0.293426 -0.000251414 -3.22961e-21)
(-0.293353 -0.000503639 3.23101e-21)
(-0.318553 -7.4504e-05 0)
(-0.312184 0.000552578 0)
(-0.292203 0.000841319 0)
(-0.306684 0.00135053 0)
(-0.290825 0.00093207 0)
(-0.290402 0.000831866 0)
(-0.289652 0.00066636 0)
(-0.289249 0.000344604 -3.15538e-21)
(-0.28865 0.000296515 0)
(-0.2892 -0.000218681 0)
(-0.287721 -0.000354508 0)
(-0.311279 -0.000194036 0)
(-0.322092 -0.000269977 0)
(-0.312173 -0.000195875 0)
(-0.335335 -5.62159e-05 0)
(-0.334709 0.000758623 0)
(-0.303199 0.000968232 0)
(-0.282832 0.000246339 0)
(-0.325175 0.000731095 0)
(-0.304656 0.00128302 0)
(-0.280473 0.0010225 -5.70476e-21)
(-0.279487 0.000750217 0)
(-0.278419 0.00079595 0)
(-0.277157 0.000622718 0)
(-0.276219 0.00010201 5.41548e-21)
(-0.286037 -0.000104338 0)
(-0.302359 0.000495528 0)
(-0.281043 0.00116968 5.25256e-21)
(-0.271435 0.0010493 0)
(-0.270049 0.00056513 -4.84204e-21)
(-0.287985 0.000978026 0)
(-0.267624 0.00092306 0)
(-0.297635 0.000942957 0)
(-0.265428 0.000745379 4.21131e-21)
(-0.29728 0.000756977 0)
(-0.263033 0.000646273 -3.88463e-21)
(-0.292288 0.000677857 0)
(-0.260337 0.000613228 0)
(-0.284948 0.000774369 0)
(-0.257268 0.00120163 0)
(-0.255546 0.000458571 0)
(-0.265929 -0.000110068 0)
(-0.2668 0.000423782 0)
(-0.250176 0.000598176 0)
(-0.253187 0.000665458 0)
(-0.246555 0.00173676 0)
(-0.244979 0.00200167 0)
(-0.24331 0.00121803 -1.27689e-21)
(-0.241497 0.000174269 1.01989e-21)
(-0.241038 0.000450052 0)
(-0.237061 0.00184521 0)
(-0.235625 0.00202515 0)
(-0.234144 0.000589165 0)
(-0.232009 -3.25894e-05 -5.26174e-22)
(-0.245484 0.000351282 9.30798e-22)
(-0.25003 -0.000455346 -1.37245e-21)
(-0.233074 -0.000850128 0)
(-0.220426 -0.000256601 -2.08368e-21)
(-0.217485 0.000208194 -5.05352e-21)
(-0.214222 0.000852031 0)
(-0.212741 0.00108405 -6.63357e-21)
(-0.210562 0.000212246 7.55002e-21)
(-0.207411 0.000602599 0)
(-0.219582 0.00216545 0)
(-0.206748 0.00189469 0)
(-0.20599 0.000406001 0)
(-0.203211 0.000696404 0)
(-0.220167 0.00248661 -1.40662e-20)
(-0.203041 0.00181335 0)
(-0.201393 0.000693919 -1.51198e-20)
(-0.198646 0.000450768 0)
(-0.196546 0.000203701 0)
(-0.191129 0.000519055 0)
(-0.18941 0.000817629 0)
(-0.186956 0.000384065 0)
(-0.185267 0.000944363 2.32309e-20)
(-0.185116 0.0014694 0)
(-0.185594 0.00119716 0)
(-0.181699 0.00057936 -2.69141e-20)
(-0.177004 0.000283829 0)
(-0.17269 0.000474124 0)
(-0.169022 0.000461716 0)
(-0.165079 0.000223023 3.54757e-20)
(-0.16007 -3.04656e-05 0)
(-0.153571 -6.59788e-06 0)
(-0.145623 0.000335194 0)
(-0.135979 0.00078818 0)
(-0.124759 0.0012878 -5.78311e-20)
(-0.112549 0.00163657 0)
(-0.100677 0.00174099 0)
(-0.0895393 0.00161613 0)
(-0.0802139 0.00143748 9.34765e-20)
(-0.0697784 0.00135655 0)
(-0.0645752 0.00178198 0)
(-0.0356799 0.00148394 -1.38506e-19)
(-0.0678885 0.000470291 6.01853e-36)
(-0.10195 0.00577766 1.18402e-17)
(-0.125324 0.0101887 2.1231e-17)
(-0.137785 0.0127754 1.99432e-17)
(-0.145144 0.0142002 1.91689e-17)
(-0.150644 0.0150747 1.85498e-17)
(-0.154926 0.0156905 -1.80318e-17)
(-0.15797 0.0161266 -1.75527e-17)
(-0.160267 0.0164226 -6.01853e-36)
(-0.162366 0.0166514 -3.35247e-17)
(-0.164428 0.0168552 -1.63828e-17)
(-0.16656 0.017051 4.57408e-34)
(-0.168965 0.0172539 -1.20371e-35)
(-0.171828 0.0174923 -3.01553e-17)
(-0.175287 0.0177811 -2.90286e-17)
(-0.179393 0.0181348 -2.77196e-17)
(-0.184242 0.018555 2.40741e-35)
(-0.189826 0.0190498 4.89457e-17)
(-0.196314 0.0196266 2.24749e-17)
(-0.203512 0.020278 0)
(-0.212192 0.0210555 -3.50956e-17)
(-0.220505 0.0218369 -1.23694e-20)
(-0.234068 0.0229966 3.00927e-36)
(-0.238416 0.0237251 1.32076e-17)
(-0.264117 0.0252942 -7.09725e-18)
)
;
    }
    lowerWall
    {
        type            calculated;
        value           nonuniform List<vector> 
250
(
(-0.622873 -0.00584499 0)
(-0.594343 -0.00937192 0)
(-0.632962 -0.0108346 0)
(-0.697383 -0.011322 0)
(-0.678426 -0.00997988 0)
(-0.617374 -0.007983 0)
(-0.626547 -0.00837661 0)
(-0.556581 -0.0075607 0)
(-0.472891 -0.0048535 0)
(-0.45652 -0.00298614 0)
(-0.499267 -0.00215355 0)
(-0.539997 -0.00211011 0)
(-0.480775 -0.00149438 0)
(-0.468034 -0.00101773 0)
(-0.506938 -0.00109038 0)
(-0.511722 -0.00077884 0)
(-0.513636 -0.000319888 0)
(-0.511644 -0.000298567 0)
(0.00214883 0.000176328 0)
(0.00239239 -0.00266274 0)
(0.00266132 -0.00560894 0)
(0.00302159 -0.00874475 1.13868e-19)
(0.00344195 -0.0118833 -9.55733e-20)
(0.00369916 -0.0157169 8.43978e-20)
(0.00356114 -0.0152712 -7.55113e-20)
(0.0101256 -0.0350286 0)
(-0.0456453 -0.111469 0)
(0.000220779 -0.000275862 0)
(5.71052e-05 -0.00078917 0)
(-8.92737e-06 -0.000875662 0)
(5.43049e-05 -0.000876582 0)
(3.13237e-05 -0.000845455 1.53914e-19)
(-0.000144612 -0.000278806 -1.4996e-19)
(-0.000580573 0.00115839 0)
(-0.00117526 0.00385518 -1.72695e-19)
(-0.00154891 0.00728624 1.32303e-19)
(-0.00149098 0.0105188 0)
(-0.00109637 0.0128976 0)
(-0.000562633 0.0141396 0)
(-5.16324e-05 0.0142203 0)
(0.000354032 0.0133368 0)
(0.000691543 0.0117664 0)
(0.00102202 0.00955903 0)
(0.00138465 0.00675312 0)
(0.00179457 0.00340021 0)
(-0.000143812 -0.000277229 0)
(0.00016745 -0.000447061 0)
(0.000476012 -0.000500053 0)
(0.000796087 -0.00043105 0)
(0.00104984 -0.000197158 -0)
(0.00109409 0.000190243 -0)
(0.000845557 0.000655356 1.45676e-20)
(0.000331479 0.00109164 -1.64716e-20)
(-0.000379629 0.001408 0)
(-0.00119331 0.00156558 -9.43909e-21)
(-0.00203136 0.00157813 0)
(-0.00282932 0.00147564 0)
(-0.00354222 0.00129455 0)
(-0.00414518 0.00106545 4.66002e-21)
(-0.004627 0.000809158 0)
(-0.00498337 0.000537336 0)
(-0.00521196 0.000258353 -4.04883e-21)
(-0.00531724 -3.412e-05 -0)
(-0.00527346 -0.000336932 0)
(-0.00508016 -0.000628217 -0)
(-0.00474649 -0.000888072 4.36726e-21)
(-0.0042846 -0.00109611 -0)
(-0.00371291 -0.00123118 5.18333e-21)
(-0.00305957 -0.00127383 0)
(-0.00236299 -0.00120986 -0)
(-0.00167348 -0.00103661 8.45877e-21)
(-0.00104926 -0.000771608 0)
(-0.000547892 -0.000462046 -1.40674e-20)
(-0.000199474 -0.000182574 0)
(1.7967e-05 5.70082e-06 2.38872e-20)
(0.000156264 0.000115377 0)
(0.000234469 0.000209454 0)
(0.000219101 0.000322421 0)
(0.000102114 0.000475426 0)
(-0.000153506 0.000680133 0)
(-0.000575043 0.000891947 -1.46152e-20)
(-0.00113934 0.00103016 0)
(-0.00175394 0.00102225 1.75028e-20)
(-0.00229889 0.000861234 0)
(-0.00267881 0.000598719 -1.40404e-20)
(-0.00285866 0.000321272 0)
(-0.00286872 0.000101446 0)
(-0.00276709 -1.79941e-05 1.39062e-20)
(-0.00262614 -1.21113e-05 0)
(-0.00251518 0.000114758 1.44859e-20)
(-0.00244349 0.000305451 -1.46227e-20)
(-0.00235634 0.000412976 0)
(-0.00211399 0.00020384 -1.60205e-20)
(-0.00146323 -0.000464133 -1.87883e-20)
(-0.000113938 -0.00116167 0)
(0.00164378 -0.00176133 0)
(0.00353579 -0.00242383 0)
(0.00570238 -0.00310259 0)
(0.00815674 -0.00364692 -0)
(0.010843 -0.00393039 3.54313e-21)
(0.013324 -0.00390873 0)
(0.0159344 -0.00382064 -2.85206e-21)
(0.0180391 -0.00358755 -0)
(0.0203885 -0.00340589 -0)
(0.0223104 -0.00318866 2.15697e-21)
(0.0242739 -0.00295291 0)
(0.0264784 -0.00273562 -1.96087e-21)
(0.0286265 -0.00249962 -0)
(0.0310528 -0.00231027 0)
(0.0331219 -0.00215554 -0)
(0.0352006 -0.00201 1.84922e-21)
(0.0370903 -0.00187588 0)
(0.0389698 -0.00175835 -0)
(0.0407336 -0.00165253 1.79849e-21)
(0.0424651 -0.00155958 0)
(0.0441192 -0.00147612 1.77634e-21)
(0.0457373 -0.00140166 0)
(0.047299 -0.00133393 0)
(0.0488253 -0.00127215 0)
(0.050307 -0.00121481 -1.74329e-21)
(0.0517544 -0.00116124 -0)
(0.0531634 -0.00111048 0)
(0.0545391 -0.00106196 -1.72252e-21)
(0.0558787 -0.00101525 -1.71574e-21)
(0.0571859 -0.000969787 -0)
(0.0584573 -0.000925312 -1.70203e-21)
(0.0596959 -0.000881573 0)
(0.0608987 -0.000838402 -3.37535e-21)
(0.0620677 -0.000795465 -0)
(0.0631999 -0.000752859 -3.34449e-21)
(0.064297 -0.000710038 -0)
(0.0653553 -0.000667221 3.31057e-21)
(0.0663762 -0.000623949 0)
(0.0673563 -0.000580189 0)
(0.0682953 -0.000536044 0)
(0.069192 -0.000491471 -3.23073e-21)
(0.0700449 -0.000445988 -0)
(0.070852 -0.000399447 3.1838e-21)
(0.0716116 -0.000351371 0)
(0.0723205 -0.000301685 -3.13132e-21)
(0.0729772 -0.000250082 -3.10284e-21)
(0.0735786 -0.000196445 -3.07284e-21)
(0.0741229 -0.00014154 0)
(0.0746096 -8.7353e-05 0)
(0.0750401 -3.84157e-05 0)
(0.0754203 1.94577e-06 0)
(0.0757549 3.74261e-05 0)
(0.0760449 7.22108e-05 0)
(0.0762899 0.000106009 0)
(0.0764899 0.000139588 0)
(0.0766446 0.000172524 2.72256e-21)
(0.076754 0.000205352 2.67339e-21)
(0.076817 0.000237414 0)
(0.0768351 0.000269309 0)
(0.0768062 0.000300567 0)
(0.0767318 0.000331556 2.45573e-21)
(0.0766106 0.000361818 0)
(0.0764439 0.000391823 0)
(0.0762305 0.000421163 0)
(0.0759712 0.000450252 0)
(0.0756655 0.000478641 -2.13647e-21)
(0.0753142 0.000506737 0)
(0.0749166 0.000534238 0)
(0.0744737 0.000561359 1.91957e-21)
(0.0739852 0.000588039 -1.84293e-21)
(0.073451 0.000614243 0)
(0.0728722 0.000640001 -1.68294e-21)
(0.0722483 0.00066534 0)
(0.0715799 0.000690304 1.51368e-21)
(0.0708666 0.000714722 0)
(0.0701093 0.000738875 0)
(0.0693072 0.000762504 0)
(0.0684605 0.000786029 0)
(0.0675726 0.000808968 0)
(0.0666526 0.000831471 -1.89018e-21)
(0.0656925 0.000852837 -1.6813e-21)
(0.0646902 0.000873555 0)
(0.0636451 0.000892941 0)
(0.0625673 0.000910208 0)
(0.061454 0.000922712 7.82623e-22)
(0.0603107 0.000927337 0)
(0.0591351 0.000922351 0)
(0.0579212 0.000925639 0)
(0.0566747 0.000941523 -2.29605e-22)
(0.0553939 0.00095651 5.03371e-22)
(0.0540839 0.000970309 0)
(0.0527459 0.000983408 0)
(0.0513812 0.000995553 1.382e-21)
(0.0499918 0.001007 1.69559e-21)
(0.0485796 0.00101761 0)
(0.047147 0.00102763 0)
(0.0456947 0.0010368 -2.70577e-21)
(0.0442264 0.00104548 3.06732e-21)
(0.0427398 0.00105314 0)
(0.0412417 0.00106025 0)
(0.039728 0.00106626 4.23775e-21)
(0.0382062 0.0010717 0)
(0.0366718 0.00107599 0)
(0.0351328 0.00107972 5.55385e-21)
(0.0335846 0.0010824 0)
(0.0320343 0.00108458 6.52733e-21)
(0.0304801 0.00108629 0)
(0.0289245 0.00108757 0)
(0.0273682 0.0010887 0)
(0.025812 0.00108971 -8.75808e-21)
(0.0242569 0.00109082 0)
(0.022703 0.00109202 0)
(0.0211509 0.00109345 0)
(0.0196007 0.00109502 0)
(0.0180528 0.00109693 0)
(0.0165075 0.00109919 0)
(0.0149651 0.00110205 -1.40127e-20)
(0.0134252 0.0011056 -1.49729e-20)
(0.0118879 0.00111007 0)
(0.0103526 0.00111544 0)
(0.0088191 0.00112172 0)
(0.00728734 0.00112866 1.9658e-20)
(0.00575783 0.00113656 0)
(0.004232 0.00114432 -4.54158e-20)
(0.00271372 0.00114884 4.89603e-20)
(0.00121231 0.00114497 5.29057e-20)
(-0.000269383 0.00110851 -5.48841e-20)
(-0.00163734 0.00103794 5.36022e-20)
(-0.00315268 0.000871328 -5.1682e-20)
(-0.00347962 0.000482609 0)
(-0.00544726 0.00107986 -3.08392e-18)
(-0.00854996 0.000853526 -2.79643e-18)
(-0.0116261 0.000507269 -3.00927e-36)
(-0.0147912 0.000183273 -4.76042e-18)
(-0.0181644 -0.000155949 -8.85521e-18)
(-0.0217523 -0.000513772 -4.13283e-18)
(-0.0255658 -0.000891405 3.86749e-18)
(-0.0296266 -0.00129291 -4.81482e-35)
(-0.0339614 -0.00172169 6.01853e-36)
(-0.0385858 -0.00218164 3.20077e-18)
(-0.0435187 -0.00267164 3.0098e-18)
(-0.0487761 -0.00315832 3.00927e-36)
(-0.0543687 -0.00367436 0)
(-0.0603568 -0.00426911 0)
(-0.0667928 -0.00492486 -5.16747e-35)
(-0.0736856 -0.00563419 -6.44171e-36)
(-0.0811813 -0.00639901 8.42594e-35)
(-0.0891428 -0.00722451 -3.73394e-18)
(-0.0981274 -0.00812078 -3.4025e-18)
(-0.10722 -0.00909141 1.20371e-35)
(-0.118787 -0.0101583 5.3568e-18)
(-0.128386 -0.0113298 8.89389e-18)
(-0.145795 -0.0125637 -6.01853e-36)
(-0.153278 -0.014078 -4.28949e-18)
(-0.187841 -0.0164275 1.20371e-35)
)
;
    }
    frontAndBack
    {
        type            empty;
    }
}


// ************************************************************************* //
