/*--------------------------------*- C++ -*----------------------------------*\
  =========                 |
  \\      /  F ield         | OpenFOAM: The Open Source CFD Toolbox
   \\    /   O peration     | Website:  https://openfoam.org
    \\  /    A nd           | Version:  8
     \\/     M anipulation  |
\*---------------------------------------------------------------------------*/
FoamFile
{
    version     2.0;
    format      ascii;
    class       volVectorField;
    location    "800";
    object      wallShearStress;
}
// * * * * * * * * * * * * * * * * * * * * * * * * * * * * * * * * * * * * * //

dimensions      [0 2 -2 0 0 0 0];

internalField   uniform (0 0 0);

boundaryField
{
    inlet
    {
        type            calculated;
        value           uniform (0 0 0);
    }
    outlet
    {
        type            calculated;
        value           uniform (0 0 0);
    }
    upperWall
    {
        type            calculated;
        value           nonuniform List<vector> 
223
(
(-0.454566 0.00265447 0)
(-0.491809 0.00542505 0)
(-0.510041 0.00664594 0)
(-0.512508 0.00711842 0)
(-0.507386 0.00707977 0)
(-0.496351 0.00670397 0)
(-0.484524 0.00618775 0)
(-0.472484 0.00560315 0)
(-0.460251 0.00500157 0)
(-0.448852 0.00441686 0)
(-0.438478 0.00386019 0)
(-0.429206 0.00334245 0)
(-0.42104 0.00287481 0)
(-0.4139 0.00246402 0)
(-0.407663 0.00211411 0)
(-0.402216 0.00183874 0)
(-0.397359 0.00163495 0)
(-0.393052 0.00153622 0)
(-0.389578 0.001516 0)
(-0.386782 0.00151343 5.33319e-22)
(-0.384003 0.00148661 0)
(-0.381252 0.0014454 0)
(-0.378533 0.00139572 0)
(-0.375847 0.00134111 5.45085e-22)
(-0.37321 0.00128434 0)
(-0.37061 0.00122518 0)
(-0.368082 0.00116564 0)
(-0.365596 0.00110151 -1.11088e-21)
(-0.363212 0.0010346 1.11592e-21)
(-0.36089 0.000967633 1.12099e-21)
(-0.358671 0.000907997 0)
(-0.356513 0.000861566 -1.13104e-21)
(-0.354414 0.000816942 0)
(-0.352367 0.000766891 1.14139e-21)
(-0.350402 0.000713279 1.14654e-21)
(-0.348523 0.000657849 -1.15167e-21)
(-0.34674 0.000602751 0)
(-0.345044 0.000549575 0)
(-0.343439 0.000499411 0)
(-0.341909 0.000452833 0)
(-0.340458 0.000410022 -1.1765e-21)
(-0.339072 0.000370909 0)
(-0.337754 0.000335396 0)
(-0.336493 0.00030322 1.19062e-21)
(-0.335291 0.000274349 0)
(-0.334139 0.000248691 1.19984e-21)
(-0.333039 0.000226036 -1.20441e-21)
(-0.331982 0.000206341 1.20897e-21)
(-0.330968 0.000189724 0)
(-0.329988 0.000176334 0)
(-0.329042 0.000166102 0)
(-0.328119 0.000158735 1.22721e-21)
(-0.32722 0.000153869 -1.23181e-21)
(-0.326337 0.000150894 0)
(-0.325472 0.000149365 0)
(-0.324619 0.00014907 0)
(-0.323778 0.000149554 0)
(-0.322947 0.000150465 0)
(-0.322127 0.000151759 0)
(-0.321317 0.000153473 0)
(-0.320517 0.000155512 0)
(-0.319727 0.000157898 1.27419e-21)
(-0.318943 0.000160552 -1.27902e-21)
(-0.318172 0.000163182 0)
(-0.317401 0.000165986 0)
(-0.316645 0.000169032 0)
(-0.315885 0.000171771 -1.29845e-21)
(-0.315136 0.000174803 0)
(-0.31439 0.00017821 0)
(-0.313634 0.000182308 0)
(-0.312906 0.000186518 0)
(-0.312132 0.000191618 0)
(-0.311401 0.000197273 -2.65341e-21)
(-0.310629 0.000202489 0)
(-0.309865 0.000212771 0)
(-0.309058 0.000225577 0)
(-0.308306 0.000216328 0)
(-0.307313 0.000207703 0)
(-0.306697 0.000235102 0)
(-0.306482 0.000223999 0)
(-0.3212 0.000204843 2.8627e-21)
(-0.364353 0.000223414 0)
(-0.382479 0.000233707 0)
(-0.393576 0.000692861 0)
(-0.367079 0.000802114 -3.29421e-21)
(-0.347534 0.000400692 0)
(-0.327421 0.000517895 -2.97457e-21)
(-0.321327 0.000728265 0)
(-0.310336 0.000488805 0)
(-0.305858 0.000429542 0)
(-0.303389 8.92751e-05 -2.80689e-21)
(-0.327873 0.0006419 0)
(-0.336229 0.00183356 3.11158e-21)
(-0.318374 0.00136389 2.95438e-21)
(-0.326766 0.000711504 0)
(-0.310807 0.0011625 2.93487e-21)
(-0.333844 0.00186344 0)
(-0.315282 0.00111732 0)
(-0.322545 0.000487559 0)
(-0.320037 -8.06637e-05 -3.15372e-21)
(-0.310138 -0.000514445 0)
(-0.298187 -0.000409249 -2.99908e-21)
(-0.297931 -0.000399201 3.00803e-21)
(-0.329721 0.000161799 0)
(-0.312845 0.000478255 0)
(-0.296658 -0.000175242 0)
(-0.347126 0.00053297 0)
(-0.322867 0.00108571 0)
(-0.305952 0.000805944 0)
(-0.295581 0.000662139 0)
(-0.293584 4.98299e-05 -2.98703e-21)
(-0.327027 -0.000330897 0)
(-0.336071 -0.000234538 0)
(-0.327817 -9.19062e-05 0)
(-0.353209 2.68373e-05 0)
(-0.361027 0.000221736 0)
(-0.36429 0.000393128 0)
(-0.362885 0.000878853 0)
(-0.3094 0.000557881 0)
(-0.324802 0.000202111 0)
(-0.32771 0.000761767 0)
(-0.354061 0.000705604 0)
(-0.349972 0.00020865 0)
(-0.347547 0.000324691 -6.50868e-21)
(-0.344261 0.00087549 0)
(-0.312783 0.00177496 0)
(-0.281953 0.00154242 0)
(-0.280784 0.000453502 4.78857e-21)
(-0.304196 -4.55525e-05 0)
(-0.300002 -1.84232e-05 0)
(-0.308776 0.000689419 4.96465e-21)
(-0.286688 0.00131131 0)
(-0.275303 0.00137177 -4.11896e-21)
(-0.273915 0.000960441 0)
(-0.272767 0.00096317 0)
(-0.271583 0.00141606 0)
(-0.270452 0.00138114 3.49057e-21)
(-0.268955 0.000788602 0)
(-0.267703 0.000600028 -3.21426e-21)
(-0.266408 0.000487732 0)
(-0.279714 0.000472287 0)
(-0.263799 0.00044935 0)
(-0.285086 0.000457457 0)
(-0.260949 0.000532626 0)
(-0.283922 -0.000213899 0)
(-0.275719 0.000283146 0)
(-0.256133 0.000544302 0)
(-0.263943 0.00067212 0)
(-0.252816 0.000715705 0)
(-0.256139 0.000827553 0)
(-0.249379 0.00114433 -5.88466e-22)
(-0.247547 0.00104094 3.02034e-22)
(-0.245486 0.000500209 0)
(-0.242534 -0.000355236 0)
(-0.239827 -2.71959e-05 0)
(-0.237148 0.00127178 0)
(-0.236891 0.00142648 -1.24292e-21)
(-0.234667 0.000979226 1.66172e-21)
(-0.248696 0.00105222 -2.15545e-21)
(-0.254305 0.00045831 0)
(-0.246895 0.00113077 -3.06872e-21)
(-0.227022 0.00181333 -6.37903e-21)
(-0.225381 0.000908073 0)
(-0.223031 0.000321323 -8.17473e-21)
(-0.239575 0.0016139 9.73521e-21)
(-0.220478 0.00237616 0)
(-0.22016 0.000925118 0)
(-0.21714 -0.000254775 0)
(-0.215072 -0.000383766 0)
(-0.211342 -0.000316205 0)
(-0.20842 0.000953567 -1.50618e-20)
(-0.219967 0.00168504 0)
(-0.222683 0.000804542 -1.81634e-20)
(-0.206789 -0.000147044 0)
(-0.199723 0.000459184 0)
(-0.197803 0.00115798 0)
(-0.195694 0.00101517 0)
(-0.192761 0.000526724 0)
(-0.188574 0.000424631 2.5414e-20)
(-0.185694 0.000741726 0)
(-0.183362 0.000744856 0)
(-0.181884 0.00122894 -2.94423e-20)
(-0.183141 0.00173158 0)
(-0.185631 0.00123375 0)
(-0.183752 0.000352769 0)
(-0.179759 -4.26916e-05 3.46814e-20)
(-0.17604 0.00022895 0)
(-0.173442 0.000415925 0)
(-0.170396 0.000324538 0)
(-0.165688 0.00023356 0)
(-0.15844 0.000242211 -4.75337e-20)
(-0.147519 0.000595823 0)
(-0.133425 0.00123818 0)
(-0.116918 0.0018487 0)
(-0.100675 0.00222904 8.35435e-20)
(-0.0834051 0.00220194 0)
(-0.0729898 0.00246126 0)
(-0.0401302 0.00176579 -1.36516e-19)
(-0.0726919 0.000787565 0)
(-0.108543 0.00623332 1.17933e-17)
(-0.13324 0.010818 2.10292e-17)
(-0.146409 0.0135486 1.96972e-17)
(-0.154172 0.0150816 1.88976e-17)
(-0.159931 0.0160115 1.82708e-17)
(-0.164374 0.0166689 -1.77467e-17)
(-0.167469 0.0171166 -1.72696e-17)
(-0.169691 0.0174201 -6.01853e-36)
(-0.171669 0.0176385 -3.30239e-17)
(-0.173483 0.017823 -1.61632e-17)
(-0.175406 0.0179826 9.08798e-34)
(-0.17759 0.0181642 -1.20371e-35)
(-0.180303 0.0183755 -2.98684e-17)
(-0.183639 0.018654 -2.87653e-17)
(-0.187673 0.0189915 -2.75004e-17)
(-0.192471 0.0194111 0)
(-0.198006 0.0198973 4.86141e-17)
(-0.204484 0.0204764 2.23252e-17)
(-0.211601 0.0211201 2.40741e-35)
(-0.220345 0.0219033 -3.49191e-17)
(-0.228472 0.0226736 -1.22734e-20)
(-0.242365 0.0238514 3.00927e-36)
(-0.24615 0.0245574 1.31479e-17)
(-0.272767 0.0261289 -7.27086e-18)
)
;
    }
    lowerWall
    {
        type            calculated;
        value           nonuniform List<vector> 
250
(
(-0.652026 -0.00731663 0)
(-0.618656 -0.0100628 0)
(-0.581008 -0.011075 0)
(-0.565708 -0.0114141 0)
(-0.515587 -0.00911326 0)
(-0.512729 -0.00703953 0)
(-0.480323 -0.00477174 0)
(-0.529949 -0.00557365 0)
(-0.4756 -0.00473192 0)
(-0.458309 -0.0027706 0)
(-0.442537 -0.00230131 0)
(-0.43754 -0.00308969 0)
(-0.433587 -0.00228379 0)
(-0.431021 -0.000967982 0)
(-0.428854 -0.000332196 0)
(-0.427425 0.000656126 0)
(-0.42678 0.00017734 0)
(-0.42654 0.000269298 0)
(0.00214433 8.1936e-05 0)
(0.00239657 -0.00284947 0)
(0.00267315 -0.00588339 0)
(0.00303583 -0.009109 1.13239e-19)
(0.00348634 -0.012334 -9.44144e-20)
(0.00398958 -0.0163388 8.22132e-20)
(0.00379573 -0.0169967 -7.23922e-20)
(0.00837945 -0.0371626 0)
(-0.0508528 -0.107236 0)
(0.000230147 -0.000285807 0)
(6.10967e-05 -0.000816599 0)
(-9.2732e-06 -0.00090502 0)
(5.34912e-05 -0.000903383 0)
(2.9601e-05 -0.000866184 1.51641e-19)
(-0.00015091 -0.000284336 -1.472e-19)
(-0.000606235 0.00120185 0)
(-0.00122163 0.00399537 -1.66175e-19)
(-0.00159766 0.00752278 1.26541e-19)
(-0.0015258 0.01082 0)
(-0.00111351 0.0132263 0)
(-0.000566455 0.0144631 0)
(-4.95824e-05 0.0145168 0)
(0.000356895 0.0135975 0)
(0.000693073 0.0119827 0)
(0.00102019 0.00972291 0)
(0.00137843 0.00685465 0)
(0.00178415 0.00341293 0)
(-0.000147965 -0.000288563 0)
(0.000178141 -0.000463034 0)
(0.000500012 -0.000513763 0)
(0.000830664 -0.000437917 0)
(0.00109061 -0.000192638 -0)
(0.00113224 0.000208398 -0)
(0.00087372 0.0006875 1.38344e-20)
(0.000344037 0.00113566 -1.55971e-20)
(-0.000387874 0.00145994 0)
(-0.00122524 0.0016197 -8.73946e-21)
(-0.00208505 0.00162977 0)
(-0.00290245 0.00152291 0)
(-0.00363231 0.00133664 0)
(-0.00424976 0.00110224 4.26634e-21)
(-0.00474386 0.0008409 0)
(-0.00511047 0.000564287 0)
(-0.00534742 0.000280578 -3.6967e-21)
(-0.00545904 -1.63098e-05 -0)
(-0.00542091 -0.000324522 0)
(-0.00523024 -0.000623259 -0)
(-0.0048957 -0.000892285 3.98039e-21)
(-0.00442872 -0.0011112 -0)
(-0.00384714 -0.00125858 4.72176e-21)
(-0.00317804 -0.0013143 0)
(-0.00245911 -0.00126277 -0)
(-0.00173979 -0.00109868 7.75214e-21)
(-0.00107896 -0.000835447 0)
(-0.000538606 -0.000515323 -1.31622e-20)
(-0.000159213 -0.000214549 0)
(7.60613e-05 -7.2486e-06 2.26591e-20)
(0.000228247 0.000114374 0)
(0.000318823 0.000216613 0)
(0.00031679 0.000336629 0)
(0.000206133 0.00049418 0)
(-4.41172e-05 0.000698219 0)
(-0.000457294 0.000911222 -1.53218e-20)
(-0.00101945 0.00105948 0)
(-0.00164377 0.00106557 1.74806e-20)
(-0.00221068 0.000916517 0)
(-0.00261911 0.00066006 -1.3623e-20)
(-0.00282792 0.000384732 0)
(-0.00286801 0.000164805 0)
(-0.0027952 4.17623e-05 1.32805e-20)
(-0.0026777 4.11478e-05 0)
(-0.00258007 0.000161991 1.36692e-20)
(-0.00251368 0.000347253 -1.37554e-20)
(-0.00242431 0.000436224 0)
(-0.00215855 0.000183942 -1.51134e-20)
(-0.00144597 -0.000513472 -1.78632e-20)
(-3.89488e-05 -0.00119256 0)
(0.00174888 -0.00179794 0)
(0.00370179 -0.00246033 0)
(0.00592281 -0.00312877 0)
(0.00836985 -0.00370178 -0)
(0.0109646 -0.0040108 3.12957e-21)
(0.0135851 -0.00404434 0)
(0.0162081 -0.00393667 -2.5297e-21)
(0.0192863 -0.00384272 -0)
(0.0207673 -0.00345991 -0)
(0.0234706 -0.0033213 2.03089e-21)
(0.0264024 -0.00309703 0)
(0.0270798 -0.00267562 -1.81592e-21)
(0.0299633 -0.00256931 -0)
(0.0321505 -0.00237838 0)
(0.0343368 -0.00221252 -0)
(0.0364003 -0.00205931 1.7311e-21)
(0.0383897 -0.00192315 0)
(0.0402787 -0.00180093 -0)
(0.0421141 -0.00169328 1.6903e-21)
(0.0438688 -0.0015971 0)
(0.045578 -0.00151174 1.67202e-21)
(0.0472259 -0.00143462 0)
(0.0488323 -0.00136495 0)
(0.0503908 -0.00130069 0)
(0.05191 -0.00124133 -1.6453e-21)
(0.0533893 -0.00118539 -0)
(0.0548309 -0.00113251 0)
(0.0562361 -0.00108165 -1.62823e-21)
(0.0576045 -0.00103271 -1.6225e-21)
(0.0589377 -0.000984856 -0)
(0.0602339 -0.000938264 -1.61054e-21)
(0.0614951 -0.000892223 0)
(0.0627188 -0.000847022 -3.19494e-21)
(0.0639067 -0.000801883 -0)
(0.0650557 -0.000757318 -3.16565e-21)
(0.0661676 -0.000712635 -0)
(0.0672396 -0.000668025 3.13229e-21)
(0.0682713 -0.000622859 0)
(0.0692604 -0.000577343 0)
(0.0702059 -0.000531432 0)
(0.071107 -0.000485241 -3.05075e-21)
(0.0719626 -0.000438086 -0)
(0.0727704 -0.000389643 3.00173e-21)
(0.0735283 -0.000339391 0)
(0.0742335 -0.000287212 -2.94629e-21)
(0.0748837 -0.000232749 -2.91599e-21)
(0.0754764 -0.00017637 -2.88399e-21)
(0.0760096 -0.00011936 0)
(0.0764835 -6.48781e-05 0)
(0.076901 -1.86077e-05 0)
(0.0772689 2.02108e-05 0)
(0.0775894 5.68787e-05 0)
(0.077863 9.27168e-05 0)
(0.0780891 0.00012811 0)
(0.0782678 0.000163268 0)
(0.0783981 0.000198147 2.51123e-21)
(0.0784799 0.00023274 2.45949e-21)
(0.0785128 0.000267022 0)
(0.0784964 0.000301012 0)
(0.0784307 0.000334574 0)
(0.0783153 0.000367827 2.23156e-21)
(0.0781501 0.000400629 0)
(0.0779352 0.000433019 0)
(0.0776704 0.000464948 0)
(0.0773559 0.000496326 0)
(0.0769922 0.000527287 -1.8985e-21)
(0.0765789 0.000557722 0)
(0.0761165 0.000587672 0)
(0.0756052 0.00061696 1.67188e-21)
(0.0750457 0.000645812 -1.59165e-21)
(0.0744379 0.000674027 0)
(0.0737824 0.000701736 -1.42387e-21)
(0.0730797 0.000728683 0)
(0.0723306 0.00075522 1.24593e-21)
(0.0715349 0.000780968 0)
(0.0706936 0.000806272 0)
(0.0698063 0.000830739 0)
(0.0688789 0.000854647 0)
(0.0679158 0.000877641 0)
(0.0669017 0.000899786 -1.29114e-21)
(0.0658539 0.00092086 -1.06986e-21)
(0.0647606 0.000940441 0)
(0.0636355 0.000956763 0)
(0.062478 0.000968057 0)
(0.061289 0.000970606 1.17313e-22)
(0.0600694 0.000963874 0)
(0.0588135 0.000966553 0)
(0.0575248 0.000982394 0)
(0.0562025 0.000995928 -9.57862e-22)
(0.0548532 0.00100845 1.24912e-21)
(0.0534778 0.00101991 0)
(0.0520782 0.0010308 0)
(0.050655 0.00104076 2.18403e-21)
(0.049211 0.00105016 2.51785e-21)
(0.0477475 0.00105884 0)
(0.0462644 0.00106677 0)
(0.0447662 0.00107429 -3.59337e-21)
(0.0432504 0.001081 3.97896e-21)
(0.0417229 0.0010872 0)
(0.0401806 0.00109242 0)
(0.0386302 0.00109709 5.22551e-21)
(0.0370683 0.00110074 0)
(0.0355021 0.00110398 0)
(0.033927 0.00110619 6.6298e-21)
(0.0323508 0.00110807 0)
(0.03077 0.00110949 7.66956e-21)
(0.0291891 0.00111039 0)
(0.0276084 0.00111133 0)
(0.0260283 0.00111213 0)
(0.0244502 0.00111307 -1.0063e-20)
(0.0228742 0.00111409 0)
(0.021301 0.00111537 0)
(0.0197307 0.00111677 0)
(0.0181639 0.00111849 0)
(0.0166009 0.00112051 0)
(0.015042 0.00112309 0)
(0.0134872 0.0011263 -1.57779e-20)
(0.0119365 0.00113041 -1.68349e-20)
(0.0103894 0.00113543 0)
(0.00884558 0.0011415 0)
(0.00730478 0.0011485 0)
(0.00576694 0.00115712 2.20486e-20)
(0.00423231 0.0011666 0)
(0.00270296 0.00117483 -5.09826e-20)
(0.00118318 0.00117745 5.50173e-20)
(-0.000315789 0.00115797 5.69883e-20)
(-0.0017926 0.00109814 -5.54659e-20)
(-0.0031437 0.00101617 5.32245e-20)
(-0.00463128 0.000842952 -5.14822e-20)
(-0.0048973 0.000433632 0)
(-0.00687904 0.000975665 -3.08735e-18)
(-0.0100589 0.000734007 -2.81132e-18)
(-0.0132121 0.000371296 0)
(-0.0164149 3.4418e-05 -4.81208e-18)
(-0.0198111 -0.000312644 -8.96972e-18)
(-0.0234176 -0.000675516 -4.19328e-18)
(-0.0272449 -0.0010568 3.92929e-18)
(-0.0313151 -0.00146076 -4.21297e-35)
(-0.035657 -0.00189176 6.01853e-36)
(-0.0402871 -0.00235428 3.26013e-18)
(-0.0452256 -0.00283345 3.06752e-18)
(-0.050481 -0.00331565 3.00927e-36)
(-0.0560892 -0.00384456 0)
(-0.0620893 -0.0044455 0)
(-0.0685474 -0.00510393 -8.84912e-35)
(-0.0754554 -0.00581509 -5.00761e-35)
(-0.0829707 -0.00658168 6.01853e-36)
(-0.0909434 -0.00740838 -3.80125e-18)
(-0.0999599 -0.00830723 -3.46218e-18)
(-0.109057 -0.00927889 6.01853e-36)
(-0.120676 -0.0103491 5.44499e-18)
(-0.130266 -0.011522 9.03616e-18)
(-0.147802 -0.0127611 1.20371e-35)
(-0.155173 -0.0142762 -4.35618e-18)
(-0.19003 -0.0166273 -3.31019e-35)
)
;
    }
    frontAndBack
    {
        type            empty;
    }
}


// ************************************************************************* //
