/*--------------------------------*- C++ -*----------------------------------*\
  =========                 |
  \\      /  F ield         | OpenFOAM: The Open Source CFD Toolbox
   \\    /   O peration     | Website:  https://openfoam.org
    \\  /    A nd           | Version:  8
     \\/     M anipulation  |
\*---------------------------------------------------------------------------*/
FoamFile
{
    version     2.0;
    format      ascii;
    class       surfaceScalarField;
    location    "400";
    object      phi;
}
// * * * * * * * * * * * * * * * * * * * * * * * * * * * * * * * * * * * * * //

dimensions      [0 3 -1 0 0 0 0];

internalField   nonuniform List<scalar> 
24170
(
3.02554e-06
1.0835e-07
2.9074e-06
1.18143e-07
2.80591e-06
1.0149e-07
2.71817e-06
8.77362e-08
2.64334e-06
7.48323e-08
2.58164e-06
6.16966e-08
2.53226e-06
4.93856e-08
2.49333e-06
3.89317e-08
2.46258e-06
3.07497e-08
2.43812e-06
2.44519e-08
2.4183e-06
1.98265e-08
2.40185e-06
1.64524e-08
2.38783e-06
1.40121e-08
2.3756e-06
1.22329e-08
2.36479e-06
1.08078e-08
2.35482e-06
9.96981e-09
2.34627e-06
8.55595e-09
9.99481e-09
2.33627e-06
3.50878e-06
5.6014e-08
3.52869e-06
9.82329e-08
3.53221e-06
9.79707e-08
3.52403e-06
9.59155e-08
3.50682e-06
9.2041e-08
3.48371e-06
8.481e-08
3.45679e-06
7.62994e-08
3.42771e-06
6.80186e-08
3.398e-06
6.04594e-08
3.36861e-06
5.38361e-08
3.34037e-06
4.80702e-08
3.31362e-06
4.31967e-08
3.28864e-06
3.89922e-08
3.26543e-06
3.54422e-08
3.24403e-06
3.22075e-08
3.22432e-06
2.968e-08
3.20643e-06
2.64543e-08
2.49715e-08
3.19145e-06
3.82786e-06
4.03486e-08
3.84343e-06
8.26617e-08
3.85613e-06
8.52666e-08
3.86604e-06
8.60078e-08
3.87238e-06
8.57026e-08
3.87498e-06
8.22085e-08
3.87421e-06
7.70698e-08
3.8706e-06
7.16329e-08
3.86465e-06
6.64113e-08
3.8569e-06
6.15762e-08
3.84784e-06
5.71384e-08
3.83787e-06
5.31585e-08
3.82734e-06
4.95217e-08
3.81655e-06
4.62371e-08
3.80566e-06
4.30968e-08
3.79506e-06
4.02775e-08
3.78444e-06
3.70772e-08
3.42959e-08
3.77511e-06
4.21197e-06
3.294e-08
4.22358e-06
7.10494e-08
4.23242e-06
7.64301e-08
4.24061e-06
7.78085e-08
4.24788e-06
7.84385e-08
4.25369e-06
7.63925e-08
4.25813e-06
7.26342e-08
4.26133e-06
6.84308e-08
4.26345e-06
6.42963e-08
4.26464e-06
6.03859e-08
4.26505e-06
5.67306e-08
4.26483e-06
5.33731e-08
4.2641e-06
5.02512e-08
4.26299e-06
4.73492e-08
4.26154e-06
4.45403e-08
4.25996e-06
4.18594e-08
4.25803e-06
3.90141e-08
3.61286e-08
4.25619e-06
4.64327e-06
2.69747e-08
4.65327e-06
6.10521e-08
4.66024e-06
6.94587e-08
4.66659e-06
7.14609e-08
4.67267e-06
7.23576e-08
4.67806e-06
7.0999e-08
4.68275e-06
6.79432e-08
4.68683e-06
6.43516e-08
4.69036e-06
6.07681e-08
4.69341e-06
5.73381e-08
4.69604e-06
5.40953e-08
4.69835e-06
5.10666e-08
4.70038e-06
4.82199e-08
4.7022e-06
4.55262e-08
4.70384e-06
4.29047e-08
4.70536e-06
4.0339e-08
4.70668e-06
3.76955e-08
3.49651e-08
4.70784e-06
5.11966e-06
2.19074e-08
5.12848e-06
5.22379e-08
5.13519e-06
6.27472e-08
5.1411e-06
6.55456e-08
5.14679e-06
6.66677e-08
5.15191e-06
6.58799e-08
5.15642e-06
6.34365e-08
5.16044e-06
6.03264e-08
5.16408e-06
5.71295e-08
5.1674e-06
5.40161e-08
5.17047e-06
5.10318e-08
5.17333e-06
4.82027e-08
5.17603e-06
4.55183e-08
5.17861e-06
4.29498e-08
5.18107e-06
4.04444e-08
5.18344e-06
3.79708e-08
5.18567e-06
3.54621e-08
3.29015e-08
5.18773e-06
5.64508e-06
1.78322e-08
5.65292e-06
4.44008e-08
5.65976e-06
5.59089e-08
5.66572e-06
5.95793e-08
5.6714e-06
6.09955e-08
5.67655e-06
6.07232e-08
5.6811e-06
5.88848e-08
5.68518e-06
5.62552e-08
5.68888e-06
5.34203e-08
5.69231e-06
5.05909e-08
5.69551e-06
4.78288e-08
5.69855e-06
4.5167e-08
5.70146e-06
4.26109e-08
5.70426e-06
4.01432e-08
5.70698e-06
3.77297e-08
5.7096e-06
3.53432e-08
5.71212e-06
3.29493e-08
3.05424e-08
5.71448e-06
4.40854e-06
1.54053e-08
4.41361e-06
3.9332e-08
4.41853e-06
5.09821e-08
4.42289e-06
5.52247e-08
4.42699e-06
5.68955e-08
4.43078e-06
5.69316e-08
4.43418e-06
5.54835e-08
4.43724e-06
5.31957e-08
4.44004e-06
5.0626e-08
4.44262e-06
4.80052e-08
4.44504e-06
4.5408e-08
4.44734e-06
4.28734e-08
4.44953e-06
4.04165e-08
4.45164e-06
3.8029e-08
4.45369e-06
3.56884e-08
4.45565e-06
3.33746e-08
4.45754e-06
3.10665e-08
2.87667e-08
4.45931e-06
5.14211e-06
1.31523e-08
5.14712e-06
3.43254e-08
5.15233e-06
4.57737e-08
5.15706e-06
5.04873e-08
5.16155e-06
5.24066e-08
5.16576e-06
5.27224e-08
5.16959e-06
5.16565e-08
5.17306e-06
4.97271e-08
5.17624e-06
4.74439e-08
5.17919e-06
4.50525e-08
5.18196e-06
4.26415e-08
5.18457e-06
4.02558e-08
5.18707e-06
3.79187e-08
5.18947e-06
3.5632e-08
5.19177e-06
3.33843e-08
5.19398e-06
3.11638e-08
5.19609e-06
2.89593e-08
2.67812e-08
5.19808e-06
5.99787e-06
1.10792e-08
6.00272e-06
2.94728e-08
6.00812e-06
4.03698e-08
6.01322e-06
4.53852e-08
6.0181e-06
4.75263e-08
6.02274e-06
4.80852e-08
6.02702e-06
4.73756e-08
6.03094e-06
4.58077e-08
6.03456e-06
4.38253e-08
6.03793e-06
4.16803e-08
6.0411e-06
3.94752e-08
6.04409e-06
3.72609e-08
6.04694e-06
3.50675e-08
6.04967e-06
3.29066e-08
6.05228e-06
3.07766e-08
6.05477e-06
2.86747e-08
6.05713e-06
2.65966e-08
2.45582e-08
6.05935e-06
6.99616e-06
9.19028e-09
7.00078e-06
2.48478e-08
7.00629e-06
3.48603e-08
7.01172e-06
3.99554e-08
7.01698e-06
4.22649e-08
7.02204e-06
4.30227e-08
7.02679e-06
4.26241e-08
7.0312e-06
4.14028e-08
7.0353e-06
3.97276e-08
7.03914e-06
3.78423e-08
7.04275e-06
3.58609e-08
7.04617e-06
3.38405e-08
7.04942e-06
3.18167e-08
7.05252e-06
2.9809e-08
7.05547e-06
2.78251e-08
7.05827e-06
2.58693e-08
7.06093e-06
2.39429e-08
2.20653e-08
7.06342e-06
8.16073e-06
7.47751e-09
8.16508e-06
2.04902e-08
8.1706e-06
2.93418e-08
8.1763e-06
3.42598e-08
8.18192e-06
3.66425e-08
8.1874e-06
3.75413e-08
8.19263e-06
3.73943e-08
8.19755e-06
3.64866e-08
8.20216e-06
3.51141e-08
8.20651e-06
3.3497e-08
8.21061e-06
3.17549e-08
8.2145e-06
2.99504e-08
8.2182e-06
2.8123e-08
8.22171e-06
2.6298e-08
8.22504e-06
2.449e-08
8.2282e-06
2.27093e-08
8.23118e-06
2.09608e-08
1.92665e-08
8.23398e-06
9.51928e-06
5.92235e-09
9.52336e-06
1.64081e-08
9.52881e-06
2.38944e-08
9.5347e-06
2.83714e-08
9.54066e-06
3.06877e-08
9.54655e-06
3.16511e-08
9.55225e-06
3.16855e-08
9.5577e-06
3.10429e-08
9.56286e-06
2.99544e-08
9.56775e-06
2.86071e-08
9.57239e-06
2.71165e-08
9.57679e-06
2.55482e-08
9.58097e-06
2.39435e-08
9.58493e-06
2.2331e-08
9.58869e-06
2.07295e-08
9.59225e-06
1.91533e-08
9.5956e-06
1.76099e-08
1.61219e-08
9.59875e-06
1.11041e-05
4.49883e-09
1.1108e-05
1.25783e-08
1.11133e-05
1.85604e-08
1.11193e-05
2.23526e-08
1.11256e-05
2.44323e-08
1.11319e-05
2.53608e-08
1.1138e-05
2.54973e-08
1.1144e-05
2.50586e-08
1.11498e-05
2.42226e-08
1.11552e-05
2.31378e-08
1.11604e-05
2.19067e-08
1.11654e-05
2.0592e-08
1.11701e-05
1.92345e-08
1.11746e-05
1.7863e-08
1.11788e-05
1.64982e-08
1.11828e-05
1.51558e-08
1.11866e-05
1.38446e-08
1.25868e-08
1.11901e-05
1.2953e-05
3.17444e-09
1.29566e-05
8.94496e-09
1.29618e-05
1.3329e-08
1.29679e-05
1.62287e-08
1.29745e-05
1.78908e-08
1.29812e-05
1.86656e-08
1.29879e-05
1.88168e-08
1.29944e-05
1.85144e-08
1.30007e-05
1.78898e-08
1.30068e-05
1.70522e-08
1.30126e-05
1.60829e-08
1.30182e-05
1.50359e-08
1.30235e-05
1.39475e-08
1.30285e-05
1.28439e-08
1.30333e-05
1.17445e-08
1.30378e-05
1.06645e-08
1.3042e-05
9.61247e-09
8.6087e-09
1.3046e-05
1.51097e-05
1.90761e-09
1.51132e-05
5.41273e-09
1.51185e-05
8.11782e-09
1.51247e-05
9.95206e-09
1.51316e-05
1.10249e-08
1.51387e-05
1.15201e-08
1.5146e-05
1.15957e-08
1.51531e-05
1.13628e-08
1.51601e-05
1.09064e-08
1.51669e-05
1.02969e-08
1.51734e-05
9.58893e-09
1.51796e-05
8.82165e-09
1.51855e-05
8.02269e-09
1.51911e-05
7.21246e-09
1.51965e-05
6.40637e-09
1.52015e-05
5.61691e-09
1.52063e-05
4.85071e-09
4.12524e-09
1.52108e-05
1.76257e-05
6.40484e-10
1.76293e-05
1.82396e-09
1.76347e-05
2.73935e-09
1.76413e-05
3.35272e-09
1.76486e-05
3.68558e-09
1.76564e-05
3.78686e-09
1.76642e-05
3.70705e-09
1.76721e-05
3.48877e-09
1.76799e-05
3.16788e-09
1.76874e-05
2.77433e-09
1.76946e-05
2.33239e-09
1.77016e-05
1.86085e-09
1.77082e-05
1.3744e-09
1.77146e-05
8.84638e-10
1.77206e-05
4.00785e-10
1.77263e-05
-6.9239e-11
1.77316e-05
-5.21721e-10
-9.43262e-10
1.77367e-05
1.78274e-05
-5.63594e-10
1.78308e-05
-1.60545e-09
1.7836e-05
-2.42092e-09
1.78424e-05
-3.0071e-09
1.78495e-05
-3.41702e-09
1.7857e-05
-3.72309e-09
1.78646e-05
-3.97599e-09
1.78723e-05
-4.19845e-09
1.78799e-05
-4.4018e-09
1.78873e-05
-4.59467e-09
1.78944e-05
-4.78321e-09
1.79012e-05
-4.96922e-09
1.79077e-05
-5.1522e-09
1.7914e-05
-5.33018e-09
1.79199e-05
-5.50108e-09
1.79255e-05
-5.66167e-09
1.79307e-05
-5.81116e-09
-5.93972e-09
1.79357e-05
1.58825e-05
-1.68841e-09
1.58856e-05
-4.7828e-09
1.58904e-05
-7.15951e-09
1.58962e-05
-8.78232e-09
1.59025e-05
-9.80302e-09
1.59092e-05
-1.04309e-08
1.59161e-05
-1.08089e-08
1.59229e-05
-1.1011e-08
1.59296e-05
-1.10884e-08
1.59361e-05
-1.10867e-08
1.59423e-05
-1.10389e-08
1.59483e-05
-1.09643e-08
1.5954e-05
-1.08736e-08
1.59595e-05
-1.07732e-08
1.59646e-05
-1.06671e-08
1.59695e-05
-1.05566e-08
1.59742e-05
-1.04434e-08
-1.03205e-08
1.59786e-05
1.41498e-05
-2.82678e-09
1.4153e-05
-7.95865e-09
1.41576e-05
-1.18027e-08
1.41631e-05
-1.4302e-08
1.41691e-05
-1.57786e-08
1.41753e-05
-1.66214e-08
1.41816e-05
-1.70553e-08
1.41877e-05
-1.71889e-08
1.41938e-05
-1.71107e-08
1.41996e-05
-1.69016e-08
1.42051e-05
-1.66182e-08
1.42105e-05
-1.62928e-08
1.42155e-05
-1.59447e-08
1.42204e-05
-1.55869e-08
1.42249e-05
-1.52277e-08
1.42292e-05
-1.48712e-08
1.42333e-05
-1.45204e-08
-1.41699e-08
1.42372e-05
1.26062e-05
-4.05162e-09
1.26096e-05
-1.13239e-08
1.26144e-05
-1.65653e-08
1.26198e-05
-1.97464e-08
1.26256e-05
-2.15074e-08
1.26314e-05
-2.24592e-08
1.26372e-05
-2.28712e-08
1.26429e-05
-2.28716e-08
1.26484e-05
-2.25947e-08
1.26536e-05
-2.21585e-08
1.26586e-05
-2.16353e-08
1.26634e-05
-2.10645e-08
1.26679e-05
-2.04718e-08
1.26722e-05
-1.98749e-08
1.26763e-05
-1.9285e-08
1.26801e-05
-1.87075e-08
1.26838e-05
-1.81467e-08
-1.75997e-08
1.26872e-05
1.12312e-05
-5.43042e-09
1.12349e-05
-1.50535e-08
1.12399e-05
-2.16001e-08
1.12454e-05
-2.5189e-08
1.12509e-05
-2.70502e-08
1.12565e-05
-2.80266e-08
1.1262e-05
-2.83471e-08
1.12672e-05
-2.81492e-08
1.12723e-05
-2.76294e-08
1.12771e-05
-2.6942e-08
1.12816e-05
-2.61674e-08
1.12859e-05
-2.53485e-08
1.12899e-05
-2.45162e-08
1.12937e-05
-2.36918e-08
1.12973e-05
-2.28873e-08
1.13007e-05
-2.21077e-08
1.1304e-05
-2.13542e-08
-2.06216e-08
1.1307e-05
1.00062e-05
-7.0367e-09
1.00105e-05
-1.93081e-08
1.00159e-05
-2.70049e-08
1.00213e-05
-3.06534e-08
1.00267e-05
-3.24341e-08
1.0032e-05
-3.33455e-08
1.00372e-05
-3.34937e-08
1.00421e-05
-3.30442e-08
1.00467e-05
-3.2262e-08
1.00511e-05
-3.13196e-08
1.00552e-05
-3.02938e-08
1.00591e-05
-2.923e-08
1.00628e-05
-2.81642e-08
1.00662e-05
-2.7121e-08
1.00694e-05
-2.61133e-08
1.00724e-05
-2.51459e-08
1.00753e-05
-2.42222e-08
-2.33408e-08
1.0078e-05
8.91505e-06
-8.98928e-09
8.92e-06
-2.42557e-08
8.92571e-06
-3.27194e-08
8.93116e-06
-3.60985e-08
8.93646e-06
-3.77345e-08
8.9416e-06
-3.84871e-08
8.94644e-06
-3.83332e-08
8.95095e-06
-3.75531e-08
8.95517e-06
-3.64822e-08
8.95913e-06
-3.52825e-08
8.96285e-06
-3.40148e-08
8.96634e-06
-3.27227e-08
8.96962e-06
-3.14441e-08
8.97271e-06
-3.02037e-08
8.97561e-06
-2.90138e-08
8.97834e-06
-2.78779e-08
8.98091e-06
-2.67941e-08
-2.57491e-08
8.98332e-06
7.94308e-06
-1.14046e-08
7.94911e-06
-3.02841e-08
7.9549e-06
-3.85065e-08
7.96009e-06
-4.12935e-08
7.96526e-06
-4.29021e-08
7.97027e-06
-4.34965e-08
7.97492e-06
-4.29801e-08
7.9792e-06
-4.18339e-08
7.98317e-06
-4.0452e-08
7.98686e-06
-3.89761e-08
7.9903e-06
-3.74568e-08
7.99352e-06
-3.59378e-08
7.99653e-06
-3.44544e-08
7.99935e-06
-3.30287e-08
8.00201e-06
-3.16708e-08
8.00451e-06
-3.03828e-08
8.00689e-06
-2.9166e-08
-2.80114e-08
8.00915e-06
7.07693e-06
-1.40051e-08
7.08466e-06
-3.80168e-08
7.0906e-06
-4.44439e-08
7.0956e-06
-4.62905e-08
7.10058e-06
-4.78817e-08
7.10538e-06
-4.82955e-08
7.10987e-06
-4.74713e-08
7.11409e-06
-4.60562e-08
7.11807e-06
-4.44306e-08
7.1218e-06
-4.27043e-08
7.12527e-06
-4.09332e-08
7.1285e-06
-3.9171e-08
7.13151e-06
-3.7457e-08
7.13429e-06
-3.58144e-08
7.13688e-06
-3.42563e-08
7.13928e-06
-3.27851e-08
7.14151e-06
-3.13972e-08
-3.00696e-08
7.14357e-06
6.30494e-06
-1.64323e-08
6.31415e-06
-4.72231e-08
6.32118e-06
-5.148e-08
6.32761e-06
-5.27191e-08
6.33382e-06
-5.40954e-08
6.3395e-06
-5.39673e-08
6.3446e-06
-5.25757e-08
6.34924e-06
-5.06974e-08
6.35346e-06
-4.86475e-08
6.35725e-06
-4.64938e-08
6.36061e-06
-4.4298e-08
6.36356e-06
-4.21225e-08
6.36612e-06
-4.00148e-08
6.36831e-06
-3.80047e-08
6.37017e-06
-3.61117e-08
6.37172e-06
-3.43436e-08
6.37303e-06
-3.26991e-08
-3.11564e-08
6.37411e-06
5.62245e-06
-2.39819e-08
5.63355e-06
-5.83245e-08
5.64396e-06
-6.18905e-08
5.65411e-06
-6.28641e-08
5.66319e-06
-6.3179e-08
5.67062e-06
-6.13929e-08
5.67632e-06
-5.82807e-08
5.68046e-06
-5.48328e-08
5.68319e-06
-5.13836e-08
5.6847e-06
-4.80006e-08
5.68514e-06
-4.47426e-08
5.68467e-06
-4.16537e-08
5.68342e-06
-3.87636e-08
5.68151e-06
-3.6094e-08
5.67905e-06
-3.36548e-08
5.67617e-06
-3.14552e-08
5.67296e-06
-2.94957e-08
-2.77879e-08
5.66959e-06
5.04624e-06
-6.79164e-08
5.06875e-06
-8.08343e-08
5.08151e-06
-7.46475e-08
5.08659e-06
-6.79467e-08
5.08606e-06
-6.26488e-08
5.08134e-06
-5.66721e-08
5.07344e-06
-5.03813e-08
5.06311e-06
-4.45067e-08
5.05099e-06
-3.92621e-08
5.03759e-06
-3.45995e-08
5.02332e-06
-3.04746e-08
5.00852e-06
-2.68491e-08
4.99345e-06
-2.37004e-08
4.97835e-06
-2.09922e-08
4.96338e-06
-1.86869e-08
4.94871e-06
-1.67769e-08
4.93447e-06
-1.52589e-08
-1.45845e-08
4.92126e-06
4.38863e-06
4.3078e-06
4.23315e-06
4.1652e-06
4.10256e-06
4.04588e-06
3.9955e-06
3.951e-06
3.91173e-06
3.87713e-06
3.84666e-06
3.81981e-06
3.79611e-06
3.77512e-06
3.75643e-06
3.73965e-06
3.72439e-06
3.70981e-06
9.8808e-09
-9.85481e-09
2.27818e-08
-1.2845e-08
3.27096e-08
-9.89828e-09
3.81333e-08
-5.38231e-09
3.87388e-08
-5.8479e-10
3.49529e-08
3.81688e-09
2.75243e-08
7.44415e-09
1.72953e-08
1.02502e-08
4.95801e-09
1.23499e-08
-8.99366e-09
1.39655e-08
-2.42757e-08
1.52899e-08
-4.0696e-08
1.64312e-08
-5.81468e-08
1.74567e-08
-7.65511e-08
1.84186e-08
-9.58812e-08
1.93348e-08
-1.16076e-07
2.0216e-08
-1.37133e-07
2.10608e-08
-1.58981e-07
2.1875e-08
-1.81637e-07
2.26596e-08
-2.05028e-07
2.34195e-08
-2.29181e-07
2.41587e-08
-2.54038e-07
2.48791e-08
-2.79614e-07
2.55854e-08
-3.05864e-07
2.62652e-08
-3.32776e-07
2.69202e-08
-3.60288e-07
2.75307e-08
-3.8842e-07
2.8133e-08
-4.17169e-07
2.87761e-08
-4.46758e-07
2.95792e-08
-4.77275e-07
3.05467e-08
-5.07623e-07
3.03338e-08
-5.36343e-07
2.87362e-08
-5.65972e-07
2.9618e-08
-5.98859e-07
3.28754e-08
-6.33991e-07
3.51289e-08
-6.70803e-07
3.67887e-08
-7.08969e-07
3.81706e-08
-7.48379e-07
3.94033e-08
-7.90201e-07
4.18288e-08
-8.36211e-07
4.60209e-08
-8.89525e-07
5.33196e-08
-9.37235e-07
4.77235e-08
-9.73795e-07
3.65617e-08
-1.01323e-06
3.94406e-08
-1.05543e-06
4.2204e-08
-1.09893e-06
4.34989e-08
-1.14253e-06
4.35933e-08
-1.18633e-06
4.38004e-08
-1.23022e-06
4.38873e-08
-1.27409e-06
4.38689e-08
-1.31786e-06
4.37652e-08
-1.36147e-06
4.3607e-08
-1.40488e-06
4.34085e-08
-1.44807e-06
4.31823e-08
-1.49101e-06
4.29337e-08
-1.53368e-06
4.26676e-08
-1.57607e-06
4.23854e-08
-1.61816e-06
4.20882e-08
-1.65994e-06
4.17753e-08
-1.70139e-06
4.14459e-08
-1.7425e-06
4.10981e-08
-1.78323e-06
4.07306e-08
-1.82358e-06
4.03408e-08
-1.86351e-06
3.9927e-08
-1.903e-06
3.94867e-08
-1.94202e-06
3.9018e-08
-1.98054e-06
3.85185e-08
-2.01853e-06
3.79865e-08
-2.05595e-06
3.74198e-08
-2.09277e-06
3.6817e-08
-2.12895e-06
3.6176e-08
-2.16445e-06
3.54958e-08
-2.19923e-06
3.47748e-08
-2.23325e-06
3.40121e-08
-2.26646e-06
3.32066e-08
-2.29882e-06
3.23578e-08
-2.33029e-06
3.14649e-08
-2.36082e-06
3.05278e-08
-2.39037e-06
2.9546e-08
-2.4189e-06
2.85196e-08
-2.44635e-06
2.74484e-08
-2.47268e-06
2.63331e-08
-2.49786e-06
2.51734e-08
-2.52183e-06
2.39699e-08
-2.54456e-06
2.27228e-08
-2.566e-06
2.14322e-08
-2.5861e-06
2.00993e-08
-2.60483e-06
1.87235e-08
-2.62213e-06
1.73054e-08
-2.63798e-06
1.58441e-08
-2.65232e-06
1.43356e-08
-2.66509e-06
1.27762e-08
-2.67626e-06
1.11614e-08
-2.68575e-06
9.48588e-09
-2.6935e-06
7.74154e-09
-2.69943e-06
5.91349e-09
-2.70342e-06
3.9851e-09
-2.70539e-06
1.9602e-09
-2.70533e-06
-7.58997e-11
-2.70342e-06
-1.91987e-09
-2.69986e-06
-3.57011e-09
-2.69469e-06
-5.18131e-09
-2.68792e-06
-6.78015e-09
-2.67954e-06
-8.38211e-09
-2.66956e-06
-9.98724e-09
-2.65797e-06
-1.15971e-08
-2.64476e-06
-1.32085e-08
-2.62994e-06
-1.48217e-08
-2.61351e-06
-1.64327e-08
-2.59547e-06
-1.80418e-08
-2.57582e-06
-1.96451e-08
-2.55458e-06
-2.12427e-08
-2.53175e-06
-2.28306e-08
-2.50734e-06
-2.44092e-08
-2.48136e-06
-2.59744e-08
-2.45383e-06
-2.75265e-08
-2.42476e-06
-2.90616e-08
-2.39418e-06
-3.05799e-08
-2.36209e-06
-3.20775e-08
-2.32853e-06
-3.35543e-08
-2.29351e-06
-3.50068e-08
-2.25706e-06
-3.64346e-08
-2.21922e-06
-3.78341e-08
-2.18e-06
-3.92049e-08
-2.13944e-06
-4.05437e-08
-2.09758e-06
-4.18497e-08
-2.05444e-06
-4.312e-08
-2.01007e-06
-4.43542e-08
-1.96451e-06
-4.55514e-08
-1.91778e-06
-4.67103e-08
-1.86994e-06
-4.7828e-08
-1.82102e-06
-4.89011e-08
-1.77108e-06
-4.992e-08
-1.72018e-06
-5.08888e-08
-1.66835e-06
-5.18156e-08
-1.61563e-06
-5.26926e-08
-1.5621e-06
-5.35146e-08
-1.5078e-06
-5.42795e-08
-1.4528e-06
-5.49863e-08
-1.39714e-06
-5.5633e-08
-1.34089e-06
-5.62222e-08
-1.28411e-06
-5.67546e-08
-1.22686e-06
-5.72351e-08
-1.16919e-06
-5.76603e-08
-1.11116e-06
-5.80327e-08
-1.05283e-06
-5.83474e-08
-9.94242e-07
-5.86069e-08
-9.35463e-07
-5.88078e-08
-8.76543e-07
-5.89515e-08
-8.1754e-07
-5.90368e-08
-7.58506e-07
-5.90653e-08
-6.99496e-07
-5.90416e-08
-6.40555e-07
-5.89692e-08
-5.81728e-07
-5.88532e-08
-5.23054e-07
-5.86964e-08
-4.6457e-07
-5.85031e-08
-4.06307e-07
-5.82762e-08
-3.48297e-07
-5.80201e-08
-2.90566e-07
-5.77363e-08
-2.33138e-07
-5.74287e-08
-1.76036e-07
-5.70982e-08
-1.19278e-07
-5.67504e-08
-6.28852e-08
-5.63822e-08
-6.95779e-09
-5.59128e-08
4.85117e-08
-5.54525e-08
1.03554e-07
-5.50226e-08
1.58119e-07
-5.45439e-08
2.1225e-07
-5.41065e-08
2.65992e-07
-5.37187e-08
3.19385e-07
-5.33659e-08
3.72439e-07
-5.30277e-08
4.25147e-07
-5.26778e-08
4.77448e-07
-5.22739e-08
5.29223e-07
-5.17435e-08
5.80201e-07
-5.09502e-08
6.2984e-07
-4.96075e-08
6.76945e-07
-4.70771e-08
7.18579e-07
-4.16062e-08
7.4769e-07
-2.9087e-08
1.28057e-08
7.34902e-07
8.89154e-09
-1.87186e-08
1.298e-08
-1.68909e-08
1.24132e-08
-9.31161e-09
8.69989e-09
-1.64675e-09
2.52931e-09
5.59787e-09
-5.83484e-09
1.21966e-08
-1.6365e-08
1.79825e-08
-2.89917e-08
2.28877e-08
-4.35998e-08
2.69636e-08
-5.99764e-08
3.03497e-08
-7.78996e-08
3.32168e-08
-9.71835e-08
3.57211e-08
-1.17707e-07
3.79832e-08
-1.39367e-07
4.00859e-08
-1.62108e-07
4.20797e-08
-1.85879e-07
4.39954e-08
-2.10665e-07
4.58508e-08
-2.36442e-07
4.76618e-08
-2.63218e-07
4.94405e-08
-2.90993e-07
5.12027e-08
-3.19794e-07
5.29639e-08
-3.4965e-07
5.47419e-08
-3.80612e-07
5.65529e-08
-4.12749e-07
5.84087e-08
-4.46144e-07
6.03198e-08
-4.80895e-07
6.22914e-08
-5.17092e-07
6.43325e-08
-5.54725e-07
6.64235e-08
-5.93625e-07
6.84765e-08
-6.33428e-07
7.03624e-08
-6.74892e-07
7.179e-08
-7.19189e-07
7.30375e-08
-7.64424e-07
7.4843e-08
-8.08586e-07
7.70277e-08
-8.52578e-07
7.91112e-08
-8.96755e-07
8.0952e-08
-9.41497e-07
8.29074e-08
-9.86956e-07
8.48576e-08
-1.03194e-06
8.68125e-08
-1.07495e-06
8.90301e-08
-1.11216e-06
9.05342e-08
-1.15301e-06
8.85788e-08
-1.20154e-06
8.50891e-08
-1.24663e-06
8.45326e-08
-1.2892e-06
8.47735e-08
-1.33052e-06
8.48194e-08
-1.37143e-06
8.45009e-08
-1.41173e-06
8.41008e-08
-1.45151e-06
8.36615e-08
-1.49082e-06
8.318e-08
-1.52972e-06
8.26583e-08
-1.56822e-06
8.21026e-08
-1.60633e-06
8.15184e-08
-1.64406e-06
8.091e-08
-1.68141e-06
8.02792e-08
-1.71837e-06
7.96264e-08
-1.75494e-06
7.89506e-08
-1.7911e-06
7.82498e-08
-1.82685e-06
7.75211e-08
-1.86217e-06
7.67611e-08
-1.89704e-06
7.59661e-08
-1.93145e-06
7.51323e-08
-1.96536e-06
7.42555e-08
-1.99877e-06
7.33318e-08
-2.03164e-06
7.23572e-08
-2.06395e-06
7.13281e-08
-2.09568e-06
7.02407e-08
-2.12679e-06
6.90917e-08
-2.15725e-06
6.7878e-08
-2.18703e-06
6.65967e-08
-2.2161e-06
6.52451e-08
-2.24443e-06
6.38212e-08
-2.27198e-06
6.23226e-08
-2.29872e-06
6.07481e-08
-2.32461e-06
5.90958e-08
-2.34962e-06
5.73652e-08
-2.37371e-06
5.55551e-08
-2.39686e-06
5.36653e-08
-2.41901e-06
5.16956e-08
-2.44014e-06
4.9646e-08
-2.46021e-06
4.75169e-08
-2.47918e-06
4.53087e-08
-2.49704e-06
4.30222e-08
-2.51373e-06
4.06582e-08
-2.52922e-06
3.82177e-08
-2.5435e-06
3.57017e-08
-2.55651e-06
3.31119e-08
-2.56824e-06
3.04492e-08
-2.57865e-06
2.7716e-08
-2.58772e-06
2.49117e-08
-2.59542e-06
2.20368e-08
-2.60174e-06
1.90914e-08
-2.60666e-06
1.60766e-08
-2.61017e-06
1.29957e-08
-2.61229e-06
9.85201e-09
-2.61304e-06
6.65395e-09
-2.61249e-06
3.42289e-09
-2.61074e-06
2.02639e-10
-2.60786e-06
-2.96225e-09
-2.60369e-06
-6.09177e-09
-2.59804e-06
-9.2293e-09
-2.59085e-06
-1.23785e-08
-2.5821e-06
-1.55385e-08
-2.57177e-06
-1.87111e-08
-2.55987e-06
-2.18945e-08
-2.54638e-06
-2.50864e-08
-2.53131e-06
-2.82831e-08
-2.51465e-06
-3.14814e-08
-2.49641e-06
-3.46774e-08
-2.47658e-06
-3.78674e-08
-2.45518e-06
-4.10476e-08
-2.43221e-06
-4.42145e-08
-2.40768e-06
-4.7364e-08
-2.38159e-06
-5.04929e-08
-2.35396e-06
-5.35971e-08
-2.32481e-06
-5.66733e-08
-2.29416e-06
-5.97175e-08
-2.262e-06
-6.27265e-08
-2.22838e-06
-6.56961e-08
-2.19331e-06
-6.86232e-08
-2.1568e-06
-7.15033e-08
-2.1189e-06
-7.43332e-08
-2.07962e-06
-7.71083e-08
-2.03899e-06
-7.98253e-08
-1.99704e-06
-8.24795e-08
-1.95382e-06
-8.50676e-08
-1.90934e-06
-8.75851e-08
-1.86366e-06
-9.00299e-08
-1.8168e-06
-9.23991e-08
-1.76881e-06
-9.46912e-08
-1.71973e-06
-9.69013e-08
-1.6696e-06
-9.90206e-08
-1.61847e-06
-1.01036e-07
-1.5664e-06
-1.02953e-07
-1.51342e-06
-1.0478e-07
-1.4596e-06
-1.06507e-07
-1.40498e-06
-1.08124e-07
-1.34962e-06
-1.09627e-07
-1.29358e-06
-1.11015e-07
-1.23692e-06
-1.12283e-07
-1.17969e-06
-1.13435e-07
-1.12196e-06
-1.14472e-07
-1.06378e-06
-1.15398e-07
-1.00523e-06
-1.16211e-07
-9.46349e-07
-1.16912e-07
-8.87203e-07
-1.175e-07
-8.27846e-07
-1.17976e-07
-7.68331e-07
-1.18338e-07
-7.08712e-07
-1.18588e-07
-6.49041e-07
-1.18726e-07
-5.89368e-07
-1.18756e-07
-5.29744e-07
-1.18684e-07
-4.70212e-07
-1.18517e-07
-4.10816e-07
-1.18264e-07
-3.51593e-07
-1.17932e-07
-2.92576e-07
-1.17529e-07
-2.33798e-07
-1.17063e-07
-1.75283e-07
-1.1654e-07
-1.17056e-07
-1.15967e-07
-5.9134e-08
-1.1535e-07
-1.53887e-09
-1.14691e-07
5.5718e-08
-1.14002e-07
1.12632e-07
-1.1329e-07
1.69258e-07
-1.12529e-07
2.25555e-07
-1.11739e-07
2.8147e-07
-1.10925e-07
3.37053e-07
-1.10113e-07
3.92324e-07
-1.09362e-07
4.47302e-07
-1.0868e-07
5.02002e-07
-1.08047e-07
5.56424e-07
-1.07431e-07
6.10548e-07
-1.0678e-07
6.64307e-07
-1.06012e-07
7.17572e-07
-1.04984e-07
7.70077e-07
-1.03433e-07
8.2134e-07
-1.00846e-07
8.70371e-07
-9.60851e-08
9.15629e-07
-8.68406e-08
9.5365e-07
-6.70878e-08
-1.89512e-08
9.85424e-07
1.35186e-09
-2.00494e-08
-3.16787e-09
-1.23426e-08
-1.05e-08
-1.96625e-09
-1.9575e-08
7.44132e-09
-3.00197e-08
1.60497e-08
-4.17267e-08
2.39125e-08
-5.47457e-08
3.10062e-08
-6.91596e-08
3.73079e-08
-8.50366e-08
4.28439e-08
-1.02379e-07
4.76963e-08
-1.21143e-07
5.19837e-08
-1.41252e-07
5.58337e-08
-1.62627e-07
5.93608e-08
-1.85194e-07
6.26563e-08
-2.08897e-07
6.57869e-08
-2.33698e-07
6.87999e-08
-2.59572e-07
7.1729e-08
-2.86507e-07
7.46011e-08
-3.14502e-07
7.74397e-08
-3.43563e-07
8.02678e-08
-3.73706e-07
8.31103e-08
-4.04952e-07
8.5993e-08
-4.37337e-07
8.89411e-08
-4.70895e-07
9.19725e-08
-5.05669e-07
9.50962e-08
-5.4167e-07
9.82993e-08
-5.78876e-07
1.0154e-07
-6.1718e-07
1.04734e-07
-6.56462e-07
1.07758e-07
-6.96565e-07
1.1047e-07
-7.37527e-07
1.12748e-07
-7.79142e-07
1.14652e-07
-8.20772e-07
1.16467e-07
-8.6185e-07
1.18102e-07
-9.02375e-07
1.19629e-07
-9.4248e-07
1.21051e-07
-9.82006e-07
1.22428e-07
-1.02092e-06
1.23767e-07
-1.05889e-06
1.24783e-07
-1.09535e-06
1.25484e-07
-1.13034e-06
1.25523e-07
-1.1663e-06
1.24545e-07
-1.20423e-06
1.23013e-07
-1.2417e-06
1.22006e-07
-1.2783e-06
1.21371e-07
-1.3142e-06
1.20722e-07
-1.3497e-06
1.19998e-07
-1.38485e-06
1.19245e-07
-1.41966e-06
1.18473e-07
-1.45417e-06
1.17681e-07
-1.48838e-06
1.16869e-07
-1.52231e-06
1.16036e-07
-1.55598e-06
1.15181e-07
-1.58937e-06
1.14303e-07
-1.6225e-06
1.13398e-07
-1.65534e-06
1.12465e-07
-1.68789e-06
1.11499e-07
-1.72013e-06
1.10495e-07
-1.75206e-06
1.09449e-07
-1.78366e-06
1.08355e-07
-1.8149e-06
1.07208e-07
-1.84577e-06
1.06001e-07
-1.87625e-06
1.0473e-07
-1.90631e-06
1.03388e-07
-1.93592e-06
1.0197e-07
-1.96507e-06
1.00472e-07
-1.99372e-06
9.88872e-08
-2.02184e-06
9.72122e-08
-2.0494e-06
9.54423e-08
-2.07638e-06
9.35738e-08
-2.10274e-06
9.16029e-08
-2.12845e-06
8.95266e-08
-2.15347e-06
8.73422e-08
-2.17777e-06
8.50472e-08
-2.20132e-06
8.26399e-08
-2.22408e-06
8.01189e-08
-2.24601e-06
7.74829e-08
-2.26707e-06
7.47316e-08
-2.28724e-06
7.18646e-08
-2.30648e-06
6.88822e-08
-2.32475e-06
6.57848e-08
-2.34202e-06
6.25735e-08
-2.35825e-06
5.92494e-08
-2.3734e-06
5.5814e-08
-2.38746e-06
5.22693e-08
-2.40038e-06
4.86174e-08
-2.41213e-06
4.4861e-08
-2.42268e-06
4.1003e-08
-2.43201e-06
3.70466e-08
-2.4401e-06
3.29954e-08
-2.44691e-06
2.88519e-08
-2.45245e-06
2.46204e-08
-2.45668e-06
2.03069e-08
-2.45961e-06
1.59192e-08
-2.46123e-06
1.14674e-08
-2.46155e-06
6.96562e-09
-2.46057e-06
2.4336e-09
-2.45826e-06
-2.10482e-09
-2.45459e-06
-6.643e-09
-2.44948e-06
-1.12044e-08
-2.44291e-06
-1.58079e-08
-2.43485e-06
-2.04464e-08
-2.42527e-06
-2.51143e-08
-2.41418e-06
-2.98056e-08
-2.40156e-06
-3.4516e-08
-2.38741e-06
-3.92395e-08
-2.37173e-06
-4.39713e-08
-2.3545e-06
-4.87051e-08
-2.33575e-06
-5.34362e-08
-2.31545e-06
-5.81582e-08
-2.29364e-06
-6.28663e-08
-2.2703e-06
-6.75542e-08
-2.24544e-06
-7.22172e-08
-2.21908e-06
-7.6849e-08
-2.19124e-06
-8.1445e-08
-2.16191e-06
-8.59991e-08
-2.13112e-06
-9.05065e-08
-2.09888e-06
-9.49613e-08
-2.06521e-06
-9.93585e-08
-2.03014e-06
-1.03692e-07
-1.99368e-06
-1.07957e-07
-1.95586e-06
-1.12147e-07
-1.91671e-06
-1.16257e-07
-1.87625e-06
-1.2028e-07
-1.83451e-06
-1.2421e-07
-1.79153e-06
-1.28042e-07
-1.74734e-06
-1.3177e-07
-1.70198e-06
-1.35388e-07
-1.65548e-06
-1.38893e-07
-1.60788e-06
-1.42281e-07
-1.55923e-06
-1.45547e-07
-1.50956e-06
-1.48678e-07
-1.45893e-06
-1.5166e-07
-1.40739e-06
-1.54494e-07
-1.35497e-06
-1.57188e-07
-1.30174e-06
-1.59732e-07
-1.24774e-06
-1.62113e-07
-1.19304e-06
-1.64325e-07
-1.13768e-06
-1.66365e-07
-1.08172e-06
-1.68229e-07
-1.02523e-06
-1.69918e-07
-9.68256e-07
-1.71435e-07
-9.10866e-07
-1.72781e-07
-8.53118e-07
-1.73958e-07
-7.95068e-07
-1.74965e-07
-7.36772e-07
-1.75803e-07
-6.78284e-07
-1.76473e-07
-6.19657e-07
-1.76976e-07
-5.60941e-07
-1.77314e-07
-5.02186e-07
-1.7749e-07
-4.4344e-07
-1.7751e-07
-3.84747e-07
-1.77382e-07
-3.26153e-07
-1.77117e-07
-2.67695e-07
-1.76726e-07
-2.0941e-07
-1.76221e-07
-1.51328e-07
-1.75613e-07
-9.34777e-08
-1.74914e-07
-3.58815e-08
-1.74136e-07
2.14416e-08
-1.73289e-07
7.84736e-08
-1.72381e-07
1.35206e-07
-1.71422e-07
1.91632e-07
-1.70426e-07
2.47753e-07
-1.69408e-07
3.03596e-07
-1.68369e-07
3.59172e-07
-1.67313e-07
4.14486e-07
-1.66237e-07
4.69552e-07
-1.65176e-07
5.24371e-07
-1.64178e-07
5.7895e-07
-1.63256e-07
6.33292e-07
-1.62386e-07
6.8739e-07
-1.61527e-07
7.41219e-07
-1.60605e-07
7.94713e-07
-1.59503e-07
8.47748e-07
-1.58017e-07
9.00099e-07
-1.5578e-07
9.51373e-07
-1.52117e-07
1.00095e-06
-1.45655e-07
1.04796e-06
-1.33854e-07
1.09187e-06
-1.10998e-07
-6.42925e-08
1.13722e-06
-6.05872e-09
-1.39738e-08
-1.64529e-08
-1.92874e-09
-2.82987e-08
9.88836e-09
-4.10131e-08
2.01649e-08
-5.44776e-08
2.95192e-08
-6.87042e-08
3.81453e-08
-8.3784e-08
4.60894e-08
-9.98288e-08
5.33571e-08
-1.16949e-07
5.99663e-08
-1.35216e-07
6.59663e-08
-1.54664e-07
7.1434e-08
-1.75289e-07
7.64614e-08
-1.97066e-07
8.11405e-08
-2.19961e-07
8.55529e-08
-2.43936e-07
8.97655e-08
-2.68964e-07
9.38304e-08
-2.95019e-07
9.77878e-08
-3.22084e-07
1.01669e-07
-3.50143e-07
1.05502e-07
-3.79181e-07
1.09311e-07
-4.09185e-07
1.13118e-07
-4.4013e-07
1.16944e-07
-4.71991e-07
1.20805e-07
-5.04718e-07
1.24706e-07
-5.38259e-07
1.28639e-07
-5.7252e-07
1.32566e-07
-6.07399e-07
1.3642e-07
-6.42759e-07
1.40099e-07
-6.78479e-07
1.43478e-07
-7.14442e-07
1.46434e-07
-7.50586e-07
1.48891e-07
-7.86809e-07
1.50875e-07
-8.22861e-07
1.52517e-07
-8.58629e-07
1.5387e-07
-8.94006e-07
1.55003e-07
-9.2891e-07
1.55953e-07
-9.63233e-07
1.56749e-07
-9.96851e-07
1.57383e-07
-1.02981e-06
1.57736e-07
-1.06209e-06
1.57767e-07
-1.09396e-06
1.57397e-07
-1.12601e-06
1.5659e-07
-1.1585e-06
1.55501e-07
-1.19093e-06
1.54431e-07
-1.22302e-06
1.53462e-07
-1.25482e-06
1.52524e-07
-1.2864e-06
1.51577e-07
-1.31778e-06
1.50622e-07
-1.34897e-06
1.49658e-07
-1.37997e-06
1.4868e-07
-1.41078e-06
1.47686e-07
-1.44142e-06
1.46671e-07
-1.47187e-06
1.45633e-07
-1.50214e-06
1.44565e-07
-1.5322e-06
1.43464e-07
-1.56206e-06
1.42324e-07
-1.5917e-06
1.41137e-07
-1.62111e-06
1.39899e-07
-1.65026e-06
1.38601e-07
-1.67915e-06
1.37238e-07
-1.70774e-06
1.358e-07
-1.73602e-06
1.34283e-07
-1.76397e-06
1.32677e-07
-1.79156e-06
1.30977e-07
-1.81877e-06
1.29176e-07
-1.84557e-06
1.27266e-07
-1.87192e-06
1.25243e-07
-1.89781e-06
1.23099e-07
-1.9232e-06
1.20831e-07
-1.94806e-06
1.18432e-07
-1.97236e-06
1.15899e-07
-1.99606e-06
1.13227e-07
-2.01913e-06
1.10414e-07
-2.04154e-06
1.07455e-07
-2.06325e-06
1.04349e-07
-2.08423e-06
1.01094e-07
-2.10444e-06
9.76888e-08
-2.12384e-06
9.41325e-08
-2.1424e-06
9.04247e-08
-2.16009e-06
8.6566e-08
-2.17686e-06
8.25571e-08
-2.19269e-06
7.83995e-08
-2.20754e-06
7.40948e-08
-2.22137e-06
6.96455e-08
-2.23415e-06
6.50542e-08
-2.24586e-06
6.03244e-08
-2.25646e-06
5.54599e-08
-2.26593e-06
5.04652e-08
-2.27423e-06
4.53455e-08
-2.28134e-06
4.01056e-08
-2.28724e-06
3.47515e-08
-2.29191e-06
2.92896e-08
-2.29534e-06
2.3728e-08
-2.2975e-06
1.80768e-08
-2.29838e-06
1.23473e-08
-2.29798e-06
6.55279e-09
-2.29626e-06
7.07655e-10
-2.29319e-06
-5.17649e-09
-2.28874e-06
-1.11001e-08
-2.28287e-06
-1.70745e-08
-2.27558e-06
-2.31058e-08
-2.26684e-06
-2.91868e-08
-2.25665e-06
-3.53099e-08
-2.24499e-06
-4.14665e-08
-2.23186e-06
-4.76494e-08
-2.21725e-06
-5.38504e-08
-2.20116e-06
-6.00628e-08
-2.18359e-06
-6.62784e-08
-2.16454e-06
-7.24904e-08
-2.144e-06
-7.86908e-08
-2.122e-06
-8.48731e-08
-2.09852e-06
-9.10291e-08
-2.07359e-06
-9.71524e-08
-2.0472e-06
-1.03235e-07
-2.01937e-06
-1.09271e-07
-1.99012e-06
-1.15251e-07