/*--------------------------------*- C++ -*----------------------------------*\
  =========                 |
  \\      /  F ield         | OpenFOAM: The Open Source CFD Toolbox
   \\    /   O peration     | Website:  https://openfoam.org
    \\  /    A nd           | Version:  8
     \\/     M anipulation  |
\*---------------------------------------------------------------------------*/
FoamFile
{
    version     2.0;
    format      ascii;
    class       volVectorField;
    location    "3300";
    object      U;
}
// * * * * * * * * * * * * * * * * * * * * * * * * * * * * * * * * * * * * * //

dimensions      [0 1 -1 0 0 0 0];

internalField   nonuniform List<vector> 
12225
(
(9.2745 -4.73371 0)
(13.1094 -1.71343 0)
(12.4778 -0.395198 0)
(11.2771 -0.0422043 0)
(10.6314 0.0141381 0)
(10.2979 -9.43646e-05 0)
(10.0776 -0.0165239 0)
(9.91229 -0.0028892 0)
(9.77911 0.0348739 0)
(9.66233 0.0428927 0)
(9.55577 0.0248833 0)
(9.45772 0.0021418 0)
(9.36682 -0.0227948 0)
(9.28221 -0.0302311 0)
(9.20246 -0.0217941 0)
(9.13273 -0.021247 0)
(9.07052 -0.0210613 0)
(9.08983 -0.0278225 0)
(10.2592 0.0928019 0)
(10.7814 0.199339 0)
(10.9594 0.245656 0)
(10.7469 0.229143 0)
(10.5875 0.172968 0)
(10.4527 0.115534 0)
(10.33 0.0823304 0)
(10.2327 0.0647284 0)
(10.155 0.0524744 0)
(10.0894 0.0472307 0)
(10.0324 0.0469884 0)
(9.98216 0.048984 0)
(9.9379 0.0517883 0)
(9.89839 0.0519278 0)
(9.86159 0.0483014 0)
(9.82896 0.0437989 0)
(9.79444 0.0300177 0)
(9.76847 0.0100972 0)
(9.87768 -0.24504 0)
(9.74285 0.00579099 0)
(10.1971 0.125743 0)
(10.3245 0.179364 0)
(10.3564 0.161547 0)
(10.3311 0.120076 0)
(10.2777 0.0904922 0)
(10.2252 0.0746631 0)
(10.1813 0.0658716 0)
(10.1438 0.0600242 0)
(10.1103 0.0562021 0)
(10.08 0.0536419 0)
(10.052 0.051123 0)
(10.0261 0.0487415 0)
(10.0024 0.0460436 0)
(9.98128 0.0417132 0)
(9.95929 0.0315799 0)
(9.93474 0.013389 0)
(9.83416 -0.443933 0)
(9.57654 -0.163147 0)
(9.91603 0.0336702 0)
(10.0933 0.134224 0)
(10.1892 0.145472 0)
(10.2168 0.120737 0)
(10.205 0.0978925 0)
(10.1825 0.0839056 0)
(10.1599 0.0756245 0)
(10.1389 0.0697055 0)
(10.1191 0.0651253 0)
(10.1002 0.0616247 0)
(10.0821 0.0585947 0)
(10.0649 0.0562018 0)
(10.0484 0.0538137 0)
(10.0326 0.0500794 0)
(10.0149 0.042316 0)
(9.99189 0.0304405 0)
(9.87825 -0.387476 0)
(9.61653 -0.196147 0)
(9.81623 -0.0186707 0)
(9.96136 0.0916119 0)
(10.0698 0.122195 0)
(10.1219 0.113625 0)
(10.1354 0.0992606 0)
(10.1332 0.088416 0)
(10.1257 0.0809417 0)
(10.1162 0.0753877 0)
(10.1056 0.0711121 0)
(10.0946 0.0678651 0)
(10.0833 0.0652307 0)
(10.0719 0.0631229 0)
(10.0601 0.060996 0)
(10.0478 0.0580341 0)
(10.0329 0.0529751 0)
(10.0125 0.046747 0)
(9.91439 -0.28804 0)
(9.68304 -0.185176 0)
(9.78717 -0.0532082 0)
(9.88917 0.050998 0)
(9.98796 0.0936779 0)
(10.0476 0.0992007 0)
(10.0751 0.0938697 0)
(10.0861 0.0875118 0)
(10.0892 0.0821121 0)
(10.0879 0.0777534 0)
(10.0842 0.0743359 0)
(10.079 0.0717398 0)
(10.0726 0.0697139 0)
(10.0654 0.0681332 0)
(10.0572 0.0666717 0)
(10.0476 0.0649673 0)
(10.0354 0.0626785 0)
(10.0186 0.0610292 0)
(9.93763 -0.214041 0)
(9.74856 -0.167536 0)
(9.79244 -0.0752162 0)
(9.85609 0.016219 0)
(9.93595 0.0644194 0)
(9.99282 0.0805914 0)
(10.0261 0.0835558 0)
(10.0447 0.082236 0)
(10.0546 0.0797694 0)
(10.0593 0.0772742 0)
(10.0606 0.0751583 0)
(10.0596 0.0735355 0)
(10.0571 0.0723577 0)
(10.0531 0.0715926 0)
(10.0477 0.0711333 0)
(10.0407 0.0709391 0)
(10.0312 0.0711775 0)
(10.0183 0.0730244 0)
(9.95263 -0.167334 0)
(9.79947 -0.149677 0)
(9.81177 -0.0846423 0)
(9.84959 -0.00621216 0)
(9.91141 0.0419289 0)
(9.96107 0.0638927 0)
(9.99432 0.0725437 0)
(10.0156 0.0752776 0)
(10.0289 0.0755185 0)
(10.0367 0.0748885 0)
(10.041 0.0741281 0)
(10.0427 0.0735558 0)
(10.0426 0.0732889 0)
(10.0408 0.0734036 0)
(10.0375 0.0739469 0)
(10.0325 0.0750602 0)
(10.0254 0.0771086 0)
(10.0157 0.0810871 0)
(9.96406 -0.132089 0)
(9.84003 -0.131989 0)
(9.83337 -0.0876911 0)
(9.85306 -0.0213348 0)
(9.89927 0.0244123 0)
(9.94103 0.0495081 0)
(9.97207 0.0621165 0)
(9.99386 0.0680675 0)
(10.0087 0.0706836 0)
(10.0184 0.0717784 0)
(10.0246 0.0722964 0)
(10.0282 0.0727259 0)
(10.0298 0.0733246 0)
(10.0297 0.0742727 0)
(10.028 0.0757279 0)
(10.0248 0.0779333 0)
(10.0198 0.0813194 0)
(10.0129 0.0866992 0)
(9.97418 -0.100205 0)
(9.87757 -0.11239 0)
(9.85857 -0.0853675 0)
(9.86387 -0.0323352 0)
(9.89487 0.00892527 0)
(9.92743 0.0352187 0)
(9.95439 0.0507096 0)
(9.97503 0.0594868 0)
(9.99015 0.0644308 0)
(10.001 0.0673419 0)
(10.0085 0.0692756 0)
(10.0135 0.0708489 0)
(10.0166 0.0724395 0)
(10.018 0.0743223 0)
(10.018 0.0767433 0)
(10.0165 0.0800044 0)
(10.0136 0.0845319 0)
(10.0095 0.0909434 0)
(9.98253 -0.0727093 0)
(9.91035 -0.0921969 0)
(9.88507 -0.0782456 0)
(9.88002 -0.03861 0)
(9.89746 -0.00337791 0)
(9.92043 0.0221632 0)
(9.94196 0.0391763 0)
(9.96 0.0500703 0)
(9.97426 0.0570421 0)
(9.98519 0.0616867 0)
(9.9934 0.065056 0)
(9.99942 0.0678336 0)
(10.0037 0.0704789 0)
(10.0064 0.073338 0)
(10.0078 0.0767129 0)
(10.0081 0.0809236 0)
(10.0073 0.0863445 0)
(10.0058 0.0934124 0)
(9.98894 -0.0502568 0)
(9.93733 -0.0723788 0)
(9.91073 -0.0674497 0)
(9.89917 -0.0399855 0)
(9.90566 -0.011654 0)
(9.91955 0.0114461 0)
(9.93497 0.0285222 0)
(9.94934 0.0405691 0)
(9.9617 0.0490098 0)
(9.97189 0.0550926 0)
(9.9801 0.0597557 0)
(9.98659 0.0636728 0)
(9.99164 0.0673341 0)
(9.99545 0.0711191 0)
(9.9982 0.075349 0)
(10.0001 0.0803266 0)
(10.0013 0.0863528 0)
(10.0021 0.0937114 0)
(9.99348 -0.0329088 0)
(9.9582 -0.0538117 0)
(9.93368 -0.0542851 0)
(9.91898 -0.0367901 0)
(9.91755 -0.0154578 0)
(9.92366 0.00398858 0)
(9.93301 0.0197668 0)
(9.94318 0.0318651 0)
(9.9529 0.0409956 0)
(9.96163 0.0480014 0)
(9.96922 0.0536233 0)
(9.9757 0.0584539 0)
(9.98118 0.0629562 0)
(9.98578 0.0674981 0)
(9.98964 0.0723833 0)
(9.99294 0.0778723 0)
(9.99586 0.0841872 0)
(9.99868 0.0914997 0)
(9.99643 -0.0202027 0)
(9.97327 -0.0372106 0)
(9.95261 -0.0400471 0)
(9.93731 -0.0298136 0)
(9.9309 -0.014828 0)
(9.93102 0.000360138 0)
(9.93504 0.0137655 0)
(9.94105 0.0248312 0)
(9.94782 0.033744 0)
(9.95465 0.0409722 0)
(9.96117 0.0470263 0)
(9.96724 0.0523662 0)
(9.97281 0.0573772 0)
(9.9779 0.0623745 0)
(9.98261 0.0676123 0)
(9.98704 0.073293 0)
(9.99134 0.0795677 0)
(9.99571 0.0865298 0)
(9.99816 -0.0112878 0)
(9.9833 -0.0229313 0)
(9.96682 -0.0257643 0)
(9.95243 -0.0200796 0)
(9.94344 -0.0102462 0)
(9.93953 0.000668673 0)
(9.9394 0.0110214 0)
(9.94183 0.0201326 0)
(9.94582 0.0279106 0)
(9.95069 0.0345536 0)
(9.95597 0.0403632 0)
(9.96139 0.0456492 0)
(9.9668 0.0506898 0)
(9.97215 0.055717 0)
(9.97743 0.0609151 0)
(9.98269 0.0664207 0)
(9.98801 0.0723233 0)
(9.99352 0.0786636 0)
(9.99906 -0.00508101 0)
(9.98922 -0.0107814 0)
(9.97612 -0.0119183 0)
(9.96309 -0.00848541 0)
(9.9531 -0.00243881 0)
(9.94685 0.0045727 0)
(9.94399 0.0115493 0)
(9.94384 0.01801 0)
(9.9457 0.0238253 0)
(9.94896 0.0290638 0)
(9.95317 0.0338809 0)
(9.95799 0.0384535 0)
(9.9632 0.0429462 0)
(9.96868 0.0474966 0)
(9.97434 0.052209 0)
(9.98018 0.057153 0)
(9.98621 0.0623644 0)
(9.99247 0.0678453 0)
(9.99942 -0.000367366 0)
(9.99181 0.000151259 0)
(9.98042 0.00183106 0)
(9.96821 0.00459136 0)
(9.9579 0.00791642 0)
(9.95061 0.0113963 0)
(9.94642 0.0148094 0)
(9.94498 0.018079 0)
(9.94576 0.0212217 0)
(9.94825 0.0243037 0)
(9.95198 0.0274063 0)
(9.9566 0.0306067 0)
(9.96186 0.033967 0)
(9.96756 0.0375316 0)
(9.9736 0.0413242 0)
(9.97992 0.0453497 0)
(9.98646 0.0495938 0)
(9.99323 0.0540269 0)
(9.99935 0.00408469 0)
(9.9911 0.0111728 0)
(9.97897 0.0161323 0)
(9.96616 0.0187347 0)
(9.95552 0.0196097 0)
(9.94819 0.0195419 0)
(9.94419 0.0191534 0)
(9.94311 0.0188542 0)
(9.94437 0.018885 0)
(9.94741 0.0193628 0)
(9.95174 0.0203285 0)
(9.95698 0.0217768 0)
(9.96286 0.0236769 0)
(9.96918 0.0259841 0)
(9.97582 0.0286468 0)
(9.98268 0.0316084 0)
(9.98972 0.0348111 0)
(9.9969 0.038194 0)
(9.99882 0.00972966 0)
(9.98675 0.0240485 0)
(9.97122 0.0318457 0)
(9.95641 0.0332921 0)
(9.94558 0.0307015 0)
(9.93942 0.0263463 0)
(9.93734 0.0217422 0)
(9.93845 0.0177318 0)
(9.94186 0.0146858 0)
(9.94686 0.0126997 0)
(9.95291 0.0117178 0)
(9.95962 0.0116214 0)
(9.96673 0.0122711 0)
(9.97407 0.0135313 0)
(9.98154 0.0152767 0)
(9.98907 0.0173978 0)
(9.99663 0.0197977 0)
(10.0042 0.0223929 0)
(9.99757 0.0182099 0)
(9.97773 0.040455 0)
(9.95664 0.0495768 0)
(9.93945 0.0474773 0)
(9.92961 0.0394215 0)
(9.92659 0.0296437 0)
(9.92848 0.0204855 0)
(9.93357 0.0129606 0)
(9.94055 0.00734107 0)
(9.94855 0.0035086 0)
(9.95704 0.00121226 0)
(9.96567 0.000161771 0)
(9.97427 9.43486e-05 0)
(9.98275 0.000775921 0)
(9.99108 0.00202009 0)
(9.99924 0.0036744 0)
(10.0072 0.00561619 0)
(10.0151 0.00774901 0)
(9.99502 0.0318144 0)
(9.96177 0.0621334 0)
(9.93372 0.0695507 0)
(9.91534 0.0601137 0)
(9.90932 0.0439487 0)
(9.91249 0.0276569 0)
(9.92084 0.0139893 0)
(9.93162 0.0036336 0)
(9.94322 -0.00364884 0)
(9.95479 -0.00838144 0)
(9.96594 -0.0111392 0)
(9.97652 -0.0124036 0)
(9.9865 -0.0125823 0)
(9.99594 -0.0119733 0)
(10.0049 -0.0108131 0)
(10.0135 -0.00927583 0)
(10.0217 -0.00748791 0)
(10.0296 -0.00555066 0)
(9.99018 0.0534617 0)
(9.93561 0.0901516 0)
(9.90098 0.090627 0)
(9.88515 0.0687554 0)
(9.8878 0.0418166 0)
(9.90121 0.0186551 0)
(9.91856 0.00141275 0)
(9.93626 -0.0104017 0)
(9.95285 -0.0179467 0)
(9.96786 -0.0223989 0)
(9.98129 -0.0246551 0)
(9.99332 -0.025398 0)
(10.0042 -0.0251061 0)
(10.0141 -0.0241342 0)
(10.0232 -0.0227218 0)
(10.0318 -0.021034 0)
(10.0399 -0.0191856 0)
(10.0475 -0.0172515 0)
(9.9819 0.086247 0)
(9.89548 0.124257 0)
(9.85817 0.109883 0)
(9.85209 0.0697724 0)
(9.87033 0.0303357 0)
(9.89842 0.00144546 0)
(9.92658 -0.0172089 0)
(9.95135 -0.0283258 0)
(9.9722 -0.0344249 0)
(9.9896 -0.0373335 0)
(10.0042 -0.0382099 0)
(10.0167 -0.0378049 0)
(10.0276 -0.0366291 0)
(10.0372 -0.0349976 0)
(10.0459 -0.0331226 0)
(10.0538 -0.0311408 0)
(10.0613 -0.0291131 0)
(10.0684 -0.0270919 0)
(9.96925 0.133989 0)
(9.83823 0.163088 0)
(9.80793 0.12259 0)
(9.82311 0.0587986 0)
(9.86512 0.00730604 0)
(9.91138 -0.0240297 0)
(9.95035 -0.0405947 0)
(9.98049 -0.0483759 0)
(10.0034 -0.0512399 0)
(10.0212 -0.0515396 0)
(10.0353 -0.0504162 0)
(10.0469 -0.0485136 0)
(10.0565 -0.0462677 0)
(10.0648 -0.0438794 0)
(10.0722 -0.0414822 0)
(10.0789 -0.0391876 0)
(10.0852 -0.0369706 0)
(10.0911 -0.0348389 0)
(9.94951 0.20714 0)
(9.76128 0.207022 0)
(9.75726 0.123477 0)
(9.81042 0.0320098 0)
(9.88382 -0.0278628 0)
(9.94874 -0.0559975 0)
(9.99526 -0.0660763 0)
(10.0266 -0.0678058 0)
(10.048 -0.0659769 0)
(10.063 -0.0631927 0)
(10.0743 -0.0598838 0)
(10.083 -0.0564832 0)
(10.09 -0.05317 0)
(10.0959 -0.0501519 0)
(10.1009 -0.0473608 0)
(10.1056 -0.0448691 0)
(10.11 -0.0425327 0)
(10.1142 -0.0403202 0)
(9.91094 0.322718 0)
(9.65923 0.254544 0)
(9.71887 0.107406 0)
(9.83329 -0.011924 0)
(9.94173 -0.072654 0)
(10.0199 -0.0901647 0)
(10.0662 -0.0893252 0)
(10.0917 -0.0831422 0)
(10.1058 -0.0760436 0)
(10.1141 -0.0696178 0)
(10.1198 -0.0644932 0)
(10.1235 -0.0600681 0)
(10.1261 -0.0564257 0)
(10.1281 -0.053244 0)
(10.1297 -0.0503036 0)
(10.1312 -0.0479675 0)
(10.1329 -0.0458281 0)
(10.1346 -0.0435821 0)
(9.84404 0.43511 0)
(9.53798 0.261026 0)
(9.7269 0.0591345 0)
(9.92367 -0.0731161 0)
(10.0584 -0.121553 0)
(10.1344 -0.120193 0)
(10.1665 -0.105282 0)
(10.1758 -0.0906213 0)
(10.1759 -0.0784887 0)
(10.1726 -0.0703761 0)
(10.1686 -0.0644484 0)
(10.1646 -0.0597387 0)
(10.1605 -0.0557757 0)
(10.1568 -0.0524269 0)
(10.1532 -0.0495573 0)
(10.1501 -0.0479367 0)
(10.148 -0.0462976 0)
(10.1463 -0.0441485 0)
(9.83598 0.319666 0)
(9.55021 0.0912511 0)
(9.91739 -0.0687257 0)
(10.1507 -0.160112 0)
(10.2634 -0.172136 0)
(10.3032 -0.142727 0)
(10.2978 -0.112096 0)
(10.276 -0.089959 0)
(10.2517 -0.0753932 0)
(10.2302 -0.0674541 0)
(10.2133 -0.0619537 0)
(10.1982 -0.0574137 0)
(10.1844 -0.0529773 0)
(10.1713 -0.0484477 0)
(10.1591 -0.044655 0)
(10.1492 -0.0436773 0)
(10.1413 -0.0421227 0)
(10.1333 -0.0389761 0)
(10.2049 -0.0633775 0)
(10.4095 -0.191706 0)
(10.7164 -0.282558 0)
(10.6879 -0.282287 0)
(10.6191 -0.230103 0)
(10.5417 -0.163668 0)
(10.4546 -0.117044 0)
(10.3763 -0.0925025 0)
(10.3137 -0.0798665 0)
(10.2654 -0.0678728 0)
(10.2263 -0.0588278 0)
(10.1915 -0.0542837 0)
(10.1607 -0.0532068 0)
(10.1314 -0.0531523 0)
(10.1054 -0.052417 0)
(10.0854 -0.0465023 0)
(10.0648 -0.0431173 0)
(10.0459 -0.0450367 0)
(9.41631 4.45107 0)
(12.7294 2.07612 0)
(12.5649 0.621213 0)
(11.569 0.127658 0)
(10.9309 0.00343536 0)
(10.5866 -0.00206658 0)
(10.3638 0.0123109 0)
(10.2022 0.0302382 0)
(10.0796 0.0411799 0)
(9.97741 0.03591 0)
(9.88472 0.0247585 0)
(9.79941 0.0219518 0)
(9.72139 0.0224429 0)
(9.65698 0.0247036 0)
(9.60369 0.0217468 0)
(9.54697 -0.00283138 0)
(9.49417 -0.0132233 0)
(9.44691 -0.00369317 0)
(-0.0275238 0.0934355 0)
(0.137006 -0.1835 0)
(0.324965 -0.305887 0)
(0.525447 -0.31511 0)
(0.702921 -0.272068 0)
(0.833471 -0.211079 0)
(0.909794 -0.146343 -8.6017e-20)
(0.94038 -0.0825008 8.66404e-20)
(0.919516 -0.020181 0)
(0.85884 0.0345278 9.18601e-20)
(0.77169 0.0739516 0)
(0.672433 0.0919997 0)
(0.57851 0.0877222 0)
(0.505706 0.0666647 -1.43195e-19)
(0.455751 0.0377133 0)
(0.412408 0.00997719 0)
(0.352881 -0.00897147 1.87919e-19)
(0.262731 -0.00868481 0)
(0.135199 0.029286 0)
(-0.0447733 0.112924 0)
(-0.300472 0.186476 -1.64828e-19)
(-0.594161 0.235251 0)
(-0.915571 0.266811 -7.62417e-20)
(-1.25182 0.296023 0)
(-1.59124 0.323644 0)
(-1.93097 0.336457 -4.13225e-20)
(-2.26339 0.33561 0)
(-2.58051 0.326489 3.45402e-20)
(-2.87928 0.310353 0)
(-3.15629 0.289554 -3.1341e-20)
(-3.41064 0.266418 0)
(-3.64194 0.242538 0)
(-3.85091 0.218947 0)
(-4.03865 0.196353 0)
(-4.2066 0.175131 0)
(-4.35632 0.155489 2.8229e-20)
(-4.48938 0.137461 0)
(-4.60729 0.120976 -5.55694e-20)
(-4.71142 0.105907 0)
(-4.80299 0.0920948 5.47707e-20)
(-4.88305 0.0793772 0)
(-4.9525 0.0676022 0)
(-5.0121 0.0566418 -5.35486e-20)
(-5.06247 0.0463994 0)
(-5.1041 0.0368156 -5.26569e-20)
(-5.13742 0.0278732 5.2179e-20)
(-5.16282 0.0196167 0)
(-5.18069 0.0121936 5.11521e-20)
(-5.19129 0.00585198 5.05997e-20)
(-5.19482 0.000802276 0)
(-5.1925 -0.00315126 0)
(-5.18558 -0.00644948 0)
(-5.1742 -0.00937186 0)
(-5.15868 -0.0120825 0)
(-5.13918 -0.014651 -4.61801e-20)
(-5.11584 -0.017091 0)
(-5.08877 -0.0194138 4.43148e-20)
(-5.05807 -0.0216284 0)
(-5.02386 -0.023737 0)
(-4.98622 -0.0257415 -4.11367e-20)
(-4.94527 -0.0276422 0)
(-4.90111 -0.0294392 3.87611e-20)
(-4.85386 -0.0311323 0)
(-4.80361 -0.0327213 0)
(-4.7505 -0.0342064 0)
(-4.69464 -0.0355872 -3.33816e-20)
(-4.63616 -0.0368643 0)
(-4.57517 -0.0380386 0)
(-4.51181 -0.0391106 -2.87843e-20)
(-4.44621 -0.0400811 0)
(-4.3785 -0.0409516 -2.5443e-20)
(-4.3088 -0.0417235 0)
(-4.23725 -0.0423984 0)
(-4.16399 -0.0429782 0)
(-4.08913 -0.043465 1.80657e-20)
(-4.01282 -0.043861 0)
(-3.93518 -0.0441687 0)
(-3.85634 -0.0443902 1.18838e-20)
(-3.77642 -0.0445284 9.69008e-21)
(-3.69555 -0.0445856 0)
(-3.61384 -0.0445648 5.08831e-21)
(-3.53141 -0.0444692 0)
(-3.44837 -0.0443023 3.60606e-22)
(-3.36483 -0.0440691 0)
(-3.28088 -0.0437759 -1.01292e-20)
(-3.19664 -0.0434315 0)
(-3.11217 -0.0430489 2.13718e-20)
(-3.02758 -0.0426475 0)
(-2.94292 -0.042256 0)
(-2.85825 -0.0419175 0)
(-2.77362 -0.0416941 -4.65639e-20)
(-2.68904 -0.0416683 0)
(-2.60452 -0.0419299 6.08393e-20)
(-2.52004 -0.0425349 0)
(-2.43555 -0.0434247 -7.65093e-20)
(-2.3513 -0.0443274 -8.48881e-20)
(-2.26754 -0.0447824 -9.35966e-20)
(-2.18452 -0.0445745 0)
(-2.1024 -0.0439696 0)
(-2.02123 -0.0432713 0)
(-1.94099 -0.0425663 0)
(-1.8617 -0.041866 0)
(-1.78339 -0.0411715 0)
(-1.70608 -0.0404845 0)
(-1.62979 -0.0398088 0)
(-1.55455 -0.0391501 1.9271e-19)
(-1.48037 -0.0385155 2.07031e-19)
(-1.40727 -0.0379104 0)
(-1.33526 -0.0373238 0)
(-1.26437 -0.0366985 0)
(-1.19464 -0.0360408 2.743e-19)
(-1.12606 -0.0354067 0)
(-1.05865 -0.0347911 0)
(-0.992399 -0.0341954 0)
(-0.927314 -0.0336213 0)
(-0.863394 -0.0330709 -3.90945e-19)
(-0.800638 -0.0325466 0)
(-0.739042 -0.0320515 0)
(-0.678598 -0.0315893 4.89131e-19)
(-0.619301 -0.0311614 -5.28833e-19)
(-0.561145 -0.0307714 0)
(-0.504119 -0.0304296 -6.22452e-19)
(-0.448213 -0.03016 0)
(-0.393407 -0.030007 7.41445e-19)
(-0.339679 -0.0299817 0)
(-0.287016 -0.0300455 0)
(-0.235403 -0.0301855 0)
(-0.184811 -0.0304126 0)
(-0.135215 -0.0307423 0)
(-0.086659 -0.0311934 -2.84691e-18)
(-0.0393541 -0.0316479 -3.27772e-18)
(0.00675285 -0.0313477 0)
(0.0521725 -0.0298494 0)
(0.0969146 -0.0279991 0)
(0.140838 -0.0262813 2.68457e-18)
(0.183849 -0.0247486 0)
(0.225928 -0.0233753 0)
(0.267097 -0.0221379 0)
(0.307388 -0.0210165 2.03981e-18)
(0.346833 -0.0199938 -1.93354e-18)
(0.385459 -0.0190558 0)
(0.423293 -0.0181908 0)
(0.46036 -0.0173898 -1.6868e-18)
(0.496683 -0.0166451 -1.62215e-18)
(0.532286 -0.0159507 0)
(0.567191 -0.0153015 0)
(0.601422 -0.0146931 1.46389e-18)
(0.635001 -0.0141218 -1.42041e-18)
(0.667951 -0.0135848 0)
(0.700294 -0.0130791 0)
(0.732053 -0.0126026 -1.31014e-18)
(0.76325 -0.0121533 0)
(0.793909 -0.0117293 0)
(0.824052 -0.0113291 -1.22263e-18)
(0.853704 -0.0109513 0)
(0.882886 -0.0105948 -1.17355e-18)
(0.911623 -0.0102582 0)
(0.939937 -0.00994061 0)
(0.967852 -0.00964091 0)
(0.99539 -0.00935804 1.09156e-18)
(1.02257 -0.00909088 0)
(1.04942 -0.00883816 0)
(1.07595 -0.00859845 0)
(1.10218 -0.00836992 0)
(1.12812 -0.00815036 0)
(1.15376 -0.0079368 0)
(1.17911 -0.00772543 9.82761e-19)
(1.20414 -0.00751105 9.69841e-19)
(1.22881 -0.0072867 0)
(1.25305 -0.00704283 0)
(1.27677 -0.00676594 0)
(1.29978 -0.00643741 -9.24499e-19)
(1.32185 -0.00602753 0)
(1.34259 -0.00549754 1.81389e-18)
(1.36153 -0.00476046 -1.80052e-18)
(1.37727 -0.00372479 -1.7918e-18)
(1.38985 -0.00195341 1.7901e-18)
(1.39027 0.00132829 -1.79548e-18)
(1.38757 0.00807604 1.8088e-18)
(1.3083 0.0198897 0)
(0.0963114 -0.268955 0)
(0.33406 -0.681242 0)
(0.514164 -0.706507 1.57358e-19)
(0.611805 -0.571343 0)
(0.662804 -0.408903 -1.11136e-19)
(0.683247 -0.253837 -1.08102e-19)
(0.677225 -0.112192 -5.62529e-20)
(0.646857 0.0155613 -5.61982e-20)
(0.603883 0.125377 0)
(0.544693 0.211899 -6.0806e-20)
(0.467887 0.267381 0)
(0.373408 0.28319 0)
(0.257613 0.256432 1.70483e-19)
(0.110292 0.211434 9.82792e-20)
(-0.0747231 0.206268 -1.84464e-19)
(-0.300977 0.271801 -1.43804e-19)
(-0.578938 0.383365 -5.71924e-20)
(-0.904853 0.513197 0)
(-1.25843 0.642561 0)
(-1.61653 0.756394 0)
(-1.97214 0.841958 -2.85759e-20)
(-2.31772 0.895533 0)
(-2.64762 0.919026 6.90642e-20)
(-2.95434 0.915453 0)
(-3.23384 0.889022 0)
(-3.48448 0.84486 1.98196e-20)
(-3.70486 0.788296 0)
(-3.89581 0.724863 -1.97618e-20)
(-4.0592 0.65879 -4.17977e-20)
(-4.19859 0.592789 2.01685e-20)
(-4.31688 0.528963 0)
(-4.41698 0.469095 0)
(-4.50159 0.414015 0)
(-4.57312 0.364075 -4.42589e-20)
(-4.63363 0.319236 -4.47652e-20)
(-4.68481 0.279225 -2.21898e-20)
(-4.72804 0.243633 0)
(-4.76443 0.211977 4.53073e-20)
(-4.79487 0.18376 0)
(-4.82008 0.1585 -4.5879e-20)
(-4.84064 0.135756 0)
(-4.85704 0.115135 0)
(-4.86972 0.0962957 4.60894e-20)
(-4.87904 0.0789473 0)
(-4.88534 0.0628495 1.38169e-19)
(-4.88894 0.0478079 -4.56098e-20)
(-4.89011 0.0336871 0)
(-4.8891 0.0204566 -4.49406e-20)
(-4.88617 0.00823261 -4.44839e-20)
(-4.88158 -0.00282278 0)
(-4.87443 -0.0127654 0)
(-4.8636 -0.0218911 0)
(-4.8491 -0.0304431 0)
(-4.83081 -0.0385359 0)
(-4.80876 -0.0462392 4.02178e-20)
(-4.78303 -0.0535899 7.91659e-20)
(-4.75367 -0.0606091 -3.84404e-20)
(-4.72078 -0.0673081 0)
(-4.68445 -0.0736927 7.34874e-20)
(-4.64476 -0.0797655 -3.59674e-20)
(-4.60183 -0.0855272 0)
(-4.55574 -0.0909775 -3.32674e-20)
(-4.5066 -0.0961165 0)
(-4.45453 -0.100945 0)
(-4.39963 -0.105466 -5.98929e-20)
(-4.34202 -0.109678 2.83859e-20)
(-4.28182 -0.113583 -5.47012e-20)
(-4.21916 -0.117182 5.19824e-20)
(-4.15415 -0.12048 2.42942e-20)
(-4.08693 -0.123481 0)
(-4.01761 -0.12619 2.13612e-20)
(-3.94633 -0.128613 0)
(-3.87322 -0.130757 0)
(-3.7984 -0.132629 0)
(-3.722 -0.134237 1.56347e-20)
(-3.64415 -0.13559 0)
(-3.56498 -0.136696 2.37667e-20)
(-3.4846 -0.137566 -2.99744e-20)
(-3.40314 -0.138211 -7.94174e-21)
(-3.32071 -0.13864 0)
(-3.23744 -0.138865 -4.14108e-21)
(-3.15343 -0.138897 0)
(-3.0688 -0.138749 -2.91275e-22)
(-2.98365 -0.138433 0)
(-2.89808 -0.137959 8.11468e-21)
(-2.81219 -0.137342 -2.35712e-20)
(-2.72607 -0.136592 -1.6968e-20)
(-2.63981 -0.135719 0)
(-2.55352 -0.134732 0)
(-2.46727 -0.133636 0)
(-2.38116 -0.13243 3.61863e-20)
(-2.29531 -0.131106 0)
(-2.20985 -0.129636 -4.66581e-20)
(-2.12493 -0.127965 0)
(-2.04069 -0.12604 1.71888e-19)
(-1.9572 -0.123885 6.36348e-20)
(-1.87448 -0.121602 6.96663e-20)
(-1.79246 -0.119297 0)
(-1.71113 -0.117029 0)
(-1.63054 -0.114795 0)
(-1.55076 -0.112573 0)
(-1.47183 -0.110348 0)
(-1.3938 -0.108118 2.195e-19)
(-1.3167 -0.105881 2.34992e-19)
(-1.24056 -0.103642 0)
(-1.1654 -0.101403 -1.34765e-19)
(-1.09126 -0.0991672 -1.43545e-19)
(-1.01816 -0.0969363 0)
(-0.94612 -0.0947123 -3.23046e-19)
(-0.875158 -0.0924995 0)
(-0.805267 -0.0903115 1.81329e-19)
(-0.736457 -0.0881541 0)
(-0.668739 -0.0860276 0)
(-0.602118 -0.0839343 -4.34462e-19)
(-0.536594 -0.0818756 0)
(-0.472171 -0.0798532 2.44839e-19)
(-0.408847 -0.07787 0)
(-0.346621 -0.0759317 0)
(-0.285487 -0.0740472 2.89778e-19)
(-0.225436 -0.0722145 3.09083e-19)
(-0.166462 -0.0704282 0)
(-0.108559 -0.0686912 -3.46379e-19)
(-0.0517316 -0.0670039 0)
(0.00402278 -0.0653575 3.82646e-19)
(0.0587458 -0.0637452 7.66198e-19)
(0.112471 -0.0621783 0)
(0.165198 -0.0606716 0)
(0.216929 -0.0592295 0)
(0.267677 -0.0578498 0)
(0.317475 -0.0565347 7.09241e-19)
(0.366393 -0.0552732 2.09645e-18)
(0.414519 -0.0538948 0)
(0.461763 -0.0522494 0)
(0.507987 -0.0504755 0)
(0.553259 -0.0487289 -6.65625e-19)
(0.597661 -0.0470614 0)
(0.641221 -0.0454813 0)
(0.683956 -0.0439863 1.28793e-18)
(0.725888 -0.0425697 6.36944e-19)
(0.767038 -0.0412243 6.32419e-19)
(0.807427 -0.0399432 0)
(0.847077 -0.0387211 0)
(0.886009 -0.0375536 6.15874e-19)
(0.924244 -0.0364369 -6.09638e-19)
(0.961804 -0.0353682 0)
(0.998711 -0.0343449 0)
(1.03498 -0.033365 -5.9678e-19)
(1.07065 -0.0324264 1.77636e-18)
(1.10572 -0.0315277 0)
(1.14023 -0.0306674 0)
(1.17418 -0.0298443 5.80312e-19)
(1.20762 -0.0290571 0)
(1.24055 -0.0283048 1.14491e-18)
(1.273 -0.0275864 -5.68527e-19)
(1.30499 -0.0269008 0)
(1.33655 -0.0262473 5.62414e-19)
(1.36769 -0.0256247 1.11754e-18)
(1.39843 -0.0250319 0)
(1.42881 -0.0244677 0)
(1.45883 -0.0239307 -5.4958e-19)
(1.48853 -0.023419 0)
(1.51791 -0.0229304 1.08645e-18)
(1.54699 -0.022462 0)
(1.57579 -0.02201 0)
(1.60431 -0.0215694 0)
(1.63256 -0.0211336 0)
(1.66053 -0.0206936 -5.29006e-19)
(1.68819 -0.0202373 -5.26239e-19)
(1.71552 -0.0197484 0)
(1.74245 -0.0192042 0)
(1.76889 -0.018573 0)
(1.7947 -0.0178093 5.16147e-19)
(1.81968 -0.016846 0)
(1.84349 -0.0155799 -1.02488e-18)
(1.86573 -0.0138342 1.02262e-18)
(1.88546 -0.0113242 1.02224e-18)
(1.90226 -0.0073093 1.02333e-18)
(1.91247 -0.000518686 1.0285e-18)
(1.92477 0.0124251 1.02039e-18)
(1.9052 0.0361869 0)
(0.11644 -0.859673 0)
(0.269015 -1.05681 0)
(0.316111 -0.826005 -1.26327e-19)
(0.315421 -0.584243 -1.08166e-19)
(0.297993 -0.373786 1.00485e-19)
(0.266788 -0.188665 1.00665e-19)
(0.22061 -0.0232113 -6.44911e-22)
(0.158718 0.124527 0)
(0.080986 0.255067 0)
(-0.0138226 0.365984 0)
(-0.129264 0.451698 0)
(-0.2734 0.512762 0)
(-0.459147 0.566586 -2.67333e-19)
(-0.696993 0.641314 0)
(-0.983203 0.75386 6.62772e-20)
(-1.30192 0.895821 5.71762e-20)
(-1.6352 1.04393 0)
(-1.96613 1.17794 0)
(-2.27947 1.28533 0)
(-2.56336 1.35905 0)
(-2.81247 1.3948 3.49039e-20)
(-3.02641 1.39237 0)
(-3.20656 1.35641 -3.23465e-20)
(-3.35575 1.29418 0)
(-3.47846 1.21298 0)
(-3.57929 1.11922 0)
(-3.66304 1.01897 -6.85873e-20)
(-3.73408 0.91758 0)
(-3.79595 0.819173 3.31172e-20)
(-3.85141 0.726548 -7.07006e-20)
(-3.90238 0.641218 0)
(-3.95017 0.563921 0)
(-3.99553 0.494707 0)
(-4.03882 0.433191 3.65642e-20)
(-4.08016 0.378726 3.71515e-20)
(-4.11949 0.330537 0)
(-4.15669 0.28783 0)
(-4.19157 0.249842 -7.77999e-20)
(-4.22397 0.215881 -7.81928e-20)
(-4.25371 0.185335 7.84257e-20)
(-4.28065 0.157687 0)
(-4.30468 0.132506 0)
(-4.32571 0.109445 0)
(-4.34367 0.0882196 0)
(-4.35848 0.0685959 -7.70091e-20)
(-4.37011 0.050374 -7.6911e-20)
(-4.37847 0.0333698 7.6268e-20)
(-4.38344 0.0173824 0)
(-4.38484 0.00215537 0)
(-4.3825 -0.0125977 0)
(-4.37638 -0.0270097 0)
(-4.36654 -0.0409943 -7.11042e-20)
(-4.35302 -0.0544596 0)
(-4.33586 -0.0673941 0)
(-4.31511 -0.0798023 -6.69925e-20)
(-4.29081 -0.0916929 -6.49668e-20)
(-4.26303 -0.103073 0)
(-4.23185 -0.113948 1.24565e-19)
(-4.19733 -0.124318 -6.00288e-20)
(-4.15957 -0.134184 5.82522e-20)
(-4.11866 -0.143544 0)
(-4.07468 -0.152396 0)
(-4.02774 -0.160739 0)
(-3.97794 -0.168571 0)
(-3.92539 -0.175895 4.84206e-20)
(-3.8702 -0.182712 9.37721e-20)
(-3.81249 -0.189023 4.40553e-20)
(-3.75237 -0.19483 -4.17832e-20)
(-3.68996 -0.20014 0)
(-3.62539 -0.204959 7.54211e-20)
(-3.55878 -0.209295 7.05381e-20)
(-3.49024 -0.213156 6.55387e-20)
(-3.41991 -0.216555 -6.04236e-20)
(-3.34792 -0.219501 0)
(-3.27438 -0.222007 -7.40943e-20)
(-3.19942 -0.224087 0)
(-3.12316 -0.225756 2.00938e-20)
(-3.04573 -0.227029 1.58708e-20)
(-2.96724 -0.227922 0)
(-2.88781 -0.228451 0)
(-2.80756 -0.228634 1.53592e-20)
(-2.72661 -0.228489 0)
(-2.64505 -0.228033 2.92495e-21)
(-2.56299 -0.227286 0)
(-2.48055 -0.226267 9.99776e-21)
(-2.39782 -0.224995 3.47231e-20)
(-2.31491 -0.223489 0)
(-2.2319 -0.221769 0)
(-2.14889 -0.219853 0)
(-2.06599 -0.217759 4.4582e-20)
(-1.98328 -0.215501 0)
(-1.90086 -0.213092 5.94034e-20)
(-1.81884 -0.210533 0)
(-1.73729 -0.207808 0)
(-1.6563 -0.204892 -1.67052e-19)
(-1.57589 -0.201769 0)
(-1.49608 -0.198454 -9.93125e-20)
(-1.41688 -0.194988 0)
(-1.33833 -0.19143 -1.16592e-19)
(-1.26046 -0.187819 0)
(-1.18336 -0.184171 0)
(-1.10706 -0.180495 0)
(-1.03161 -0.176797 -4.62688e-19)
(-0.957041 -0.173084 -1.65042e-19)
(-0.883387 -0.169362 0)
(-0.810674 -0.165637 0)
(-0.738928 -0.161917 0)
(-0.668169 -0.158206 0)
(-0.598416 -0.154508 2.18837e-19)
(-0.529679 -0.15083 -4.58463e-19)
(-0.461966 -0.147179 -2.4267e-19)
(-0.395286 -0.143566 5.07654e-19)
(-0.329652 -0.139995 5.33451e-19)
(-0.265068 -0.136473 2.81375e-19)
(-0.201536 -0.133001 0)
(-0.139059 -0.12958 6.16218e-19)
(-0.0776357 -0.126214 0)
(-0.0172692 -0.122904 -6.73552e-19)
(0.042047 -0.119653 -3.45161e-19)
(0.100327 -0.116463 0)
(0.157576 -0.113334 6.93127e-19)
(0.2138 -0.110271 3.48832e-19)
(0.26901 -0.107274 0)
(0.323216 -0.104333 3.48726e-19)
(0.376426 -0.101438 -1.05282e-18)
(0.428648 -0.0985963 0)
(0.479898 -0.0958197 0)
(0.53019 -0.0931106 0)
(0.579544 -0.0904698 0)
(0.627981 -0.0879017 -7.07751e-19)
(0.675536 -0.0854136 -7.10243e-19)
(0.722232 -0.0830203 0)
(0.768034 -0.080709 0)
(0.812928 -0.0784406 0)
(0.856967 -0.0762138 0)
(0.900192 -0.0740449 0)
(0.942622 -0.0719424 0)
(0.984268 -0.0699089 -7.14017e-19)
(1.02515 -0.0679444 -1.08879e-21)
(1.06528 -0.0660471 0)
(1.10468 -0.064215 0)
(1.14337 -0.0624462 -7.1385e-19)
(1.18137 -0.0607389 0)
(1.2187 -0.0590913 7.14898e-19)
(1.25538 -0.0575022 7.14037e-19)
(1.29144 -0.0559701 0)
(1.32688 -0.0544938 0)
(1.36174 -0.0530722 -7.1457e-19)
(1.39603 -0.0517043 -1.42734e-18)
(1.42977 -0.0503891 0)
(1.463 -0.0491255 0)
(1.49571 -0.0479128 0)
(1.52795 -0.0467499 -7.13264e-19)
(1.55972 -0.0456359 7.12882e-19)
(1.59105 -0.0445698 0)
(1.62197 -0.0435507 1.42289e-18)
(1.65249 -0.0425774 7.10425e-19)
(1.68263 -0.0416484 -1.42083e-18)
(1.71242 -0.0407621 0)
(1.74188 -0.0399167 0)
(1.77102 -0.0391093 -1.41703e-18)
(1.79986 -0.0383368 -7.08225e-19)
(1.82842 -0.0375949 0)
(1.85672 -0.0368777 0)
(1.88476 -0.0361778 0)
(1.91254 -0.0354849 0)
(1.94006 -0.0347856 -1.4069e-18)
(1.96732 -0.0340616 0)
(1.99427 -0.0332878 0)
(2.02088 -0.0324301 0)
(2.04706 -0.0314405 0)
(2.0727 -0.0302507 0)
(2.09763 -0.0287599 0)
(2.12158 -0.0268166 -1.39757e-18)
(2.14423 -0.0241693 0)
(2.1649 -0.0204127 0)
(2.18336 -0.0147545 -2.81636e-18)
(2.19679 -0.0058771 1.4182e-18)
(2.21149 0.00887694 -1.41632e-18)
(2.20639 0.0362556 1.41177e-18)
(0.0333262 -1.16604 0)
(0.0696897 -1.02975 3.59928e-19)
(0.0339407 -0.746804 0)
(-0.0105128 -0.506335 1.10876e-19)
(-0.0658439 -0.283624 0)
(-0.133704 -0.0740435 0)
(-0.216945 0.122803 -8.28057e-20)
(-0.317938 0.30618 0)
(-0.43881 0.475645 0)
(-0.582165 0.631755 0)
(-0.751859 0.777047 0)
(-0.953102 0.917619 0)
(-1.18852 1.06158 2.04194e-19)
(-1.45254 1.21235 9.24348e-20)
(-1.73068 1.36367 -8.36869e-20)
(-2.00458 1.5022 0)
(-2.25849 1.61411 0)
(-2.48238 1.69005 0)
(-2.67145 1.72629 0)
(-2.82429 1.72412 0)
(-2.94344 1.68737 6.01617e-20)
(-3.03447 1.6213 5.8845e-20)
(-3.10347 1.53275 -5.7992e-20)
(-3.15677 1.42938 5.76904e-20)
(-3.19976 1.31788 0)
(-3.23679 1.20368 0)
(-3.27132 1.09112 5.58434e-20)
(-3.3057 0.983486 0)
(-3.34122 0.882908 0)
(-3.37838 0.790422 5.86976e-20)
(-3.41718 0.706271 6.15156e-20)
(-3.4573 0.630229 6.22272e-20)
(-3.49818 0.561763 0)
(-3.53922 0.50018 0)
(-3.5798 0.444718 -6.40372e-20)
(-3.61936 0.394621 0)
(-3.65741 0.349178 0)
(-3.69353 0.307746 6.43101e-20)
(-3.72738 0.269759 -6.60301e-20)
(-3.75868 0.23473 6.60405e-20)
(-3.7872 0.202244 0)
(-3.81277 0.17195 0)
(-3.83522 0.143552 1.30014e-19)
(-3.85443 0.116799 0)
(-3.87029 0.0914796 1.28625e-19)
(-3.88271 0.0674173 1.91035e-19)
(-3.89162 0.0444681 -1.89393e-19)
(-3.89693 0.0225118 1.25328e-19)
(-3.89862 0.00143126 0)
(-3.89667 -0.0188894 0)
(-3.89113 -0.0385284 1.19871e-19)
(-3.88205 -0.0575046 5.84047e-20)
(-3.86947 -0.0758139 0)
(-3.85341 -0.0934553 0)
(-3.83393 -0.110428 5.48984e-20)
(-3.81105 -0.126732 1.08247e-19)
(-3.78485 -0.142365 0)
(-3.75538 -0.157325 -1.01794e-19)
(-3.72271 -0.171607 9.99649e-20)
(-3.68692 -0.185207 -9.6993e-20)
(-3.64809 -0.198121 0)
(-3.60631 -0.210343 0)
(-3.56167 -0.221867 0)
(-3.51428 -0.232692 0)
(-3.46422 -0.242821 0)
(-3.41162 -0.252255 -7.59203e-20)
(-3.35657 -0.260992 0)
(-3.29919 -0.269037 0)
(-3.2396 -0.276399 0)
(-3.17791 -0.283085 -1.22617e-19)
(-3.11423 -0.289106 -5.67011e-20)
(-3.0487 -0.294474 -5.26e-20)
(-2.98143 -0.299203 9.8035e-20)
(-2.91254 -0.303308 -4.53601e-20)
(-2.84216 -0.306807 3.98083e-20)
(-2.77039 -0.309719 0)
(-2.69737 -0.312062 -3.08858e-20)
(-2.6232 -0.313857 0)
(-2.54801 -0.315127 0)
(-2.4719 -0.315893 0)
(-2.395 -0.31618 -2.54862e-20)
(-2.31741 -0.31601 8.48325e-21)
(-2.23924 -0.315409 4.76579e-21)
(-2.16059 -0.3144 -2.98531e-21)