/*--------------------------------*- C++ -*----------------------------------*\
| =========                 |                                                 |
| \\      /  F ield         | OpenFOAM: The Open Source CFD Toolbox           |
|  \\    /   O peration     | Version:  v2012                                 |
|   \\  /    A nd           | Website:  www.openfoam.com                      |
|    \\/     M anipulation  |                                                 |
\*---------------------------------------------------------------------------*/
FoamFile
{
    version     2.0;
    format      ascii;
    class       volScalarField;
    location    "1300";
    object      k;
}
// * * * * * * * * * * * * * * * * * * * * * * * * * * * * * * * * * * * * * //

dimensions      [0 2 -2 0 0 0 0];


internalField   nonuniform List<scalar> 
12225
(
0.541978
0.817729
0.988711
1.0766
1.10276
1.09696
1.07984
1.04977
1.01765
0.986896
0.958412
0.932206
0.909625
0.888203
0.87208
0.854185
0.845265
0.829335
0.376845
0.389435
0.402647
0.418173
0.431968
0.447946
0.463534
0.483271
0.502844
0.527164
0.544118
0.566777
0.581405
0.602305
0.614551
0.633579
0.643071
0.659805
0.373181
0.37333
0.371936
0.369386
0.365356
0.360062
0.354989
0.349839
0.345615
0.342163
0.339131
0.336773
0.334688
0.333337
0.332087
0.331658
0.330969
0.331218
0.373479
0.371724
0.370038
0.367421
0.364828
0.361189
0.357794
0.353563
0.349758
0.345338
0.34145
0.337112
0.333393
0.329329
0.325906
0.322316
0.319295
0.316232
0.373762
0.37157
0.369744
0.367457
0.36537
0.362767
0.360385
0.357525
0.354901
0.35186
0.349093
0.34594
0.343139
0.340075
0.337454
0.334605
0.332281
0.329676
0.373857
0.371584
0.369636
0.367532
0.365626
0.363505
0.36155
0.35938
0.357344
0.355105
0.353003
0.350724
0.348616
0.34638
0.344386
0.342279
0.34048
0.338526
0.373864
0.371591
0.369556
0.367519
0.365653
0.36375
0.361978
0.360147
0.358409
0.356599
0.354868
0.353073
0.351373
0.349629
0.34802
0.346377
0.344906
0.343376
0.373854
0.371586
0.369505
0.367482
0.365607
0.36377
0.362048
0.360344
0.358723
0.357097
0.355537
0.353968
0.352468
0.350966
0.349555
0.348144
0.346849
0.345535
0.373845
0.37158
0.369472
0.36745
0.365558
0.363739
0.36203
0.360375
0.358803
0.357267
0.355796
0.354349
0.352963
0.3516
0.350307
0.349035
0.347847
0.346665
0.373837
0.371573
0.369447
0.367421
0.365514
0.363695
0.361979
0.360339
0.358783
0.357287
0.355859
0.354479
0.35316
0.351881
0.350663
0.349481
0.348363
0.347272
0.373832
0.371567
0.369429
0.367399
0.365479
0.363655
0.361928
0.360286
0.358727
0.35724
0.355825
0.35447
0.353178
0.351939
0.350757
0.349622
0.34854
0.347501
0.373829
0.371561
0.369416
0.367381
0.365453
0.363623
0.361887
0.360238
0.358672
0.357181
0.355764
0.354412
0.353125
0.351896
0.350724
0.349605
0.348535
0.347514
0.373828
0.371557
0.369406
0.367367
0.365433
0.363598
0.361856
0.360201
0.358628
0.357131
0.355707
0.354352
0.35306
0.351829
0.350655
0.349536
0.348467
0.347448
0.373827
0.371554
0.369399
0.367357
0.365419
0.363579
0.361832
0.360172
0.358594
0.357092
0.355663
0.354302
0.353005
0.35177
0.350591
0.349468
0.348394
0.347371
0.373826
0.371552
0.369395
0.367349
0.365408
0.363565
0.361814
0.36015
0.358568
0.357062
0.355629
0.354263
0.352962
0.351723
0.35054
0.349412
0.348335
0.347308
0.373825
0.37155
0.369392
0.367344
0.365401
0.363555
0.361802
0.360135
0.358549
0.35704
0.355603
0.354235
0.352931
0.351687
0.350502
0.349371
0.348291
0.347261
0.373825
0.371549
0.36939
0.367341
0.365396
0.363549
0.361793
0.360124
0.358536
0.357025
0.355586
0.354215
0.352909
0.351663
0.350475
0.349342
0.34826
0.347228
0.373825
0.371549
0.369389
0.36734
0.365394
0.363546
0.36179
0.360119
0.35853
0.357018
0.355577
0.354205
0.352897
0.35165
0.350461
0.349326
0.348243
0.347209
0.373825
0.371549
0.36939
0.367341
0.365395
0.363547
0.36179
0.360119
0.35853
0.357017
0.355576
0.354203
0.352895
0.351647
0.350457
0.349322
0.348239
0.347205
0.373825
0.37155
0.369391
0.367343
0.365398
0.36355
0.361794
0.360124
0.358535
0.357022
0.355581
0.354209
0.352901
0.351653
0.350464
0.349329
0.348246
0.347212
0.373826
0.371551
0.369394
0.367347
0.365403
0.363557
0.361801
0.360132
0.358544
0.357033
0.355593
0.354221
0.352913
0.351667
0.350477
0.349343
0.34826
0.347226
0.373826
0.371553
0.369398
0.367353
0.365411
0.363566
0.361813
0.360146
0.358559
0.357048
0.355608
0.354236
0.352927
0.35168
0.350489
0.349353
0.348268
0.347232
0.373826
0.371557
0.369404
0.367362
0.365422
0.363581
0.361829
0.360162
0.358571
0.357055
0.355607
0.354226
0.352907
0.351649
0.350445
0.349296
0.348194
0.347141
0.373825
0.371565
0.369414
0.367371
0.365429
0.363587
0.361827
0.360146
0.358529
0.35698
0.355492
0.354069
0.352704
0.351401
0.350148
0.348948
0.347787
0.346677
0.37382
0.371583
0.369414
0.367346
0.365377
0.363516
0.361709
0.359964
0.358252
0.356597
0.354988
0.353447
0.351956
0.350533
0.349151
0.347826
0.346524
0.345278
0.373802
0.371589
0.369326
0.367161
0.36511
0.363198
0.36126
0.359341
0.35739
0.355488
0.353606
0.351806
0.350047
0.348371
0.346722
0.345143
0.343567
0.342061
0.373668
0.371535
0.36908
0.366771
0.364561
0.362531
0.360272
0.35798
0.355527
0.353132
0.35071
0.348411
0.346146
0.344002
0.341888
0.339871
0.337864
0.335954
0.37322
0.371964
0.369447
0.367404
0.365031
0.362704
0.35983
0.356951
0.353745
0.350732
0.347694
0.344943
0.342357
0.340008
0.337921
0.335951
0.334303
0.332621
0.375017
0.378141
0.38041
0.38406
0.387557
0.391741
0.395818
0.400493
0.405303
0.410805
0.416616
0.422996
0.429935
0.437101
0.445058
0.452695
0.460774
0.467714
0.448154
0.580681
0.685439
0.76539
0.822442
0.862126
0.886933
0.902575
0.91177
0.915912
0.915315
0.912399
0.90749
0.900764
0.892258
0.883884
0.875785
0.868024
4.23491e-06
3.35524e-05
8.63816e-05
0.000167759
0.000268123
0.000386964
0.000584609
0.000913172
0.00140413
0.00204593
0.00274173
0.00345136
0.00411553
0.00470308
0.00520642
0.00561405
0.00592782
0.00613979
0.00627132
0.00627526
0.00621037
0.00611567
0.00588537
0.00550555
0.00495995
0.00423237
0.00333583
0.00232731
0.00134
0.000578185
0.000169915
4.64256e-05
3.58383e-05
3.91042e-05
4.51268e-05
5.34303e-05
6.28735e-05
7.02877e-05
8.1431e-05
0.000125393
0.00031542
0.000714842
0.00133486
0.00186914
0.00220829
0.00220377
0.00209642
0.00189124
0.00165006
0.00145285
0.00144845
0.00170617
0.00224649
0.00243496
0.00290635
0.00382525
0.00766963
0.0223235
0.041211
0.0600167
0.077737
0.0943875
0.109969
0.12472
0.138768
0.152352
0.16543
0.177606
0.189285
0.200325
0.210955
0.22113
0.230984
0.240513
0.249797
0.258837
0.267676
0.276324
0.28482
0.29315
0.301351
0.309405
0.317338
0.325135
0.332811
0.340354
0.347771
0.355051
0.362194
0.369191
0.376036
0.382719
0.389231
0.39556
0.401696
0.40763
0.413356
0.418874
0.424195
0.429349
0.434396
0.43927
0.443963
0.448485
0.452827
0.456989
0.460963
0.464748
0.468338
0.471731
0.474923
0.47791
0.48069
0.48326
0.485619
0.487764
0.489695
0.491409
0.492908
0.494189
0.495256
0.496107
0.496747
0.497176
0.497399
0.497416
0.497278
0.496926
0.496284
0.495502
0.494377
0.493065
0.491514
0.489761
0.487844
0.485747
0.483427
0.480921
0.478238
0.475377
0.472348
0.469154
0.465802
0.462295
0.458643
0.454852
0.45094
0.446878
0.442741
0.438408
0.43405
0.42949
0.424937
0.420185
0.415479
0.410576
0.405762
0.400749
0.395861
0.390793
0.385802
0.380744
0.375688
0.370616
0.365539
0.360466
0.355403
0.35036
0.345339
0.340344
0.335371
0.330411
0.32545
0.32047
0.315422
0.310241
0.304884
0.299736
0.29594
0.280176
2.06588e-05
1.38874e-05
4.70134e-05
0.000120657
0.000305587
0.000883378
0.00208664
0.00392813
0.00617054
0.00849715
0.0106801
0.0126142
0.0141181
0.0151691
0.0158186
0.0160784
0.016028
0.0158127
0.0154219
0.0148549
0.0140946
0.0131308
0.0119937
0.0106645
0.00923771
0.00764913
0.00611719
0.00467094
0.0033234
0.00216401
0.00128806
0.000719514
0.000396306
0.000224789
0.000138896
9.92943e-05
8.97164e-05
0.000128836
0.000306463
0.000579117
0.00207835
0.00444753
0.00772577
0.0101991
0.011494
0.0114371
0.0109274
0.00964387
0.00833602
0.0084179
0.00977213
0.0134177
0.0174218
0.023765
0.0334555
0.0470463
0.0664039
0.0927931
0.117041
0.143771
0.16981
0.19669
0.223458
0.250325
0.276927
0.30309
0.328621
0.35337
0.37735
0.400498
0.422893
0.444561
0.465601
0.48609
0.506075
0.525636
0.544822
0.563671
0.582262
0.600589
0.618708
0.636617
0.654344
0.67189
0.689267
0.706473
0.723511
0.740377
0.757065
0.773568
0.789876
0.805975
0.821847
0.837475
0.852834
0.867899
0.882639
0.897022
0.911012
0.924576
0.937696
0.950538
0.963107
0.975395
0.987396
0.999096
1.01049
1.02155
1.03229
1.04268
1.05272
1.0624
1.07171
1.08064
1.08918
1.09733
1.10507
1.11241
1.11933
1.12584
1.13193
1.13759
1.14283
1.14765
1.15204
1.15602
1.1596
1.16278
1.1656
1.1681
1.17032
1.17209
1.17343
1.17421
1.17467
1.17485
1.17457
1.17382
1.17269
1.17116
1.16926
1.16697
1.16432
1.16131
1.15795
1.15425
1.15024
1.14592
1.14126
1.13633
1.13106
1.12556
1.11974
1.11372
1.10742
1.10097
1.09428
1.08748
1.08049
1.07342
1.0662
1.05891
1.05152
1.04405
1.03652
1.02893
1.02132
1.01369
1.00608
0.998476
0.990891
0.983309
0.975709
0.968053
0.960258
0.952197
0.943676
0.934407
0.922621
0.895508
2.46206e-05
1.15834e-05
5.29677e-05
0.000230656
0.000731154
0.00218286
0.00475049
0.00779037
0.010887
0.013768
0.0162656
0.0182897
0.0198183
0.0208796
0.0215102
0.0217969
0.0217675
0.0215884
0.0212342
0.0206973
0.0200306
0.01923
0.0182899
0.0171925
0.0158991
0.0144545
0.0127276
0.010801
0.00879913
0.00680612
0.00499028
0.00334937
0.00213813
0.00136666
0.000895979
0.000642291
0.000494882
0.000385722
0.00114068
0.00207771
0.00622519
0.0128094
0.0189283
0.0231175
0.025282
0.0261029
0.0265039
0.0270223
0.0291173
0.0354565
0.0471172
0.0648271
0.0807732
0.101934
0.126082
0.153333
0.183924
0.21534
0.250299
0.286769
0.324446
0.362709
0.400888
0.438481
0.475055
0.510328
0.544182
0.576596
0.607654
0.637467
0.666192
0.693978
0.720945
0.747231
0.772921
0.79811
0.822877
0.847276
0.871353
0.895139
0.918663
0.941941
0.964988
0.987809
1.01041
1.03279
1.05495
1.07689
1.09859
1.12005
1.14126
1.16221
1.18289
1.20328
1.22338
1.24317
1.26264
1.28178
1.3006
1.31908
1.33725
1.35507
1.37253
1.38962
1.4063
1.42258
1.43843
1.45383
1.46878
1.48326
1.49725
1.51075
1.52374
1.53622
1.54816
1.55956
1.57041
1.5807
1.59044
1.5996
1.60819
1.6162
1.62363
1.63047
1.63674
1.64243
1.64754
1.65207
1.65603
1.65943
1.66226
1.66449
1.66613
1.66706
1.66748
1.66753
1.66689
1.66566
1.66389
1.66157
1.65872
1.65535
1.65147
1.6471
1.64224
1.63691
1.63112
1.6249
1.61822
1.61116
1.60366
1.5958
1.58753
1.57896
1.57001
1.56082
1.55131
1.54162
1.53167
1.52158
1.51129
1.50088
1.49033
1.47966
1.46889
1.45805
1.44715
1.43622
1.42529
1.41438
1.4035
1.39264
1.3818
1.37094
1.36002
1.34895
1.33755
1.32557
1.31113
1.28613
2.47622e-05
2.70781e-05
0.000182488
0.00084591
0.00241728
0.00597979
0.0103894
0.0147804
0.0187302
0.022007
0.0245239
0.0263016
0.0273877
0.0279445
0.028013
0.0278685
0.0274943
0.0269193
0.0262351
0.0254688
0.0246381
0.0237407
0.0227716
0.0217133
0.0205404
0.0192322
0.0177481
0.0160578
0.0141632
0.0121296
0.0100391
0.00805732
0.00614634
0.00453581
0.00322443
0.00241385
0.00191804
0.00173635
0.00424995
0.0090297
0.0212531
0.0329934
0.041366
0.046435
0.049152
0.0518664
0.0591046
0.0730379
0.0889862
0.105348
0.123032
0.140972
0.162289
0.189491
0.219972
0.255396
0.293767
0.334505
0.377
0.420101
0.463363
0.506249
0.548395
0.589539
0.6295
0.668183
0.705572
0.741714
0.776692
0.81061
0.843593
0.875755
0.907184
0.938001
0.968276
0.998088
1.02749
1.05654
1.08526
1.11368
1.14182
1.1697
1.19733
1.2247
1.25182
1.2787
1.30531
1.33167
1.35776
1.38357
1.4091
1.43433
1.45926
1.48388
1.50817
1.53213
1.55574
1.57899
1.60189
1.6244
1.64651
1.66819
1.68944
1.71021
1.7305
1.75028
1.76953
1.78825
1.80639
1.82396
1.84094
1.85731
1.87305
1.88815
1.9026
1.91639
1.92951
1.94194
1.95368
1.96473
1.97506
1.98469
1.99361
2.0018
2.00928
2.01604
2.02208
2.02739
2.03199
2.03586
2.03901
2.04144
2.04312
2.04399
2.04429
2.04398
2.0429
2.04112
2.03866
2.03555
2.03178
2.02738
2.02236
2.01673
2.01052
2.00373
1.99638
1.98849
1.98007
1.97116
1.96173
1.95186
1.94151
1.93076
1.91958
1.90807
1.8962
1.88407
1.87163
1.859
1.84614
1.8331
1.8199
1.80655
1.79306
1.77948
1.76582
1.75213
1.73842
1.72474
1.71109
1.69749
1.68394
1.67044
1.65696
1.64346
1.62982
1.61587
1.59997
1.57688
3.29322e-05
9.21945e-05
0.000634118
0.00238038
0.00678148
0.0132075
0.0193713
0.0245598
0.028481
0.0311389
0.0327229
0.033481
0.0335772
0.0333648
0.0328426
0.0321001
0.031255
0.0303558
0.0294349
0.0285099
0.0275862
0.0266564
0.0257062
0.0247155
0.0236598
0.0225106
0.0212375
0.0198085
0.0181885
0.0163713
0.0143993
0.0123784
0.0104068
0.0085346
0.00720866
0.00564926
0.00569784
0.0077421
0.0169399
0.0354722
0.0546936
0.0691092
0.0787656
0.0862376
0.094999
0.106136
0.118883
0.131894
0.145969
0.162123
0.182511
0.208097
0.238827
0.274642
0.313768
0.355698
0.398949
0.443118
0.487636
0.532122
0.576384
0.620241
0.663543
0.706163
0.747996
0.788974
0.829059
0.868263
0.906614
0.94416
0.98097
1.01711
1.05266
1.08768
1.12223
1.15636
1.19012
1.22353
1.25663
1.28943
1.32195
1.35419
1.38615
1.41785
1.44927
1.48042
1.51129
1.54186
1.57213
1.60209
1.63173
1.66105
1.69002
1.71864
1.74689
1.77476
1.80224
1.82931
1.85594
1.88212
1.90782
1.93302
1.95769
1.98182
2.00537
2.02833
2.05068
2.07238
2.09342
2.11379
2.13345
2.1524
2.17062
2.18809
2.20479
2.22072
2.23586
2.2502
2.26372
2.27642
2.2883
2.29934
2.30954
2.3189
2.32742
2.33509
2.3419
2.34787
2.35298
2.35724
2.36066
2.36324
2.36492
2.3657
2.36584
2.36517
2.36365
2.36133
2.35822
2.35434
2.34971
2.34434
2.33825
2.33146
2.32398
2.31583
2.30704
2.29762
2.28758
2.27697
2.26578
2.25406
2.2418
2.22906
2.21584
2.20221
2.18818
2.17381
2.15911
2.14415
2.12894
2.11351
2.09788
2.08207
2.06611
2.05002
2.03384
2.01761
2.00137
1.98514
1.96896
1.95285
1.93683
1.9209
1.90509
1.88938
1.8737
1.85795
1.84073
1.8183
2.75839e-05
0.00028022
0.00185327
0.00649898
0.0156049
0.0240086
0.0303951
0.0346385
0.0370796
0.0382299
0.0385007
0.0382658
0.0376236
0.0366797
0.035596
0.0344519
0.0333053
0.0321944
0.0311399
0.0301485
0.0292146
0.0283227
0.0274514
0.026575
0.0256626
0.024681
0.0235986
0.0223901
0.0210329
0.0195124
0.0178435
0.0160934
0.0143634
0.0124421
0.0111973
0.0117812
0.0166685
0.0314541
0.0566462
0.0810256
0.100616
0.114325
0.123832
0.131699
0.139818
0.149012
0.159809
0.17322
0.192084
0.215795
0.245267
0.279691
0.31807
0.359174
0.401746
0.445245
0.489142
0.533294
0.577547
0.621843
0.666137
0.710365
0.754441
0.798269
0.841746
0.884791
0.927334
0.96934
1.01079
1.0517
1.09209
1.132
1.17145
1.21049
1.24915
1.28746
1.32545
1.36313
1.40051
1.43762
1.47444
1.51099
1.54726
1.58324
1.61893
1.65432
1.6894
1.72415
1.75858
1.79266
1.82639
1.85974
1.89272
1.92529
1.95745
1.98917
2.02044
2.05123
2.08152
2.11128
2.14049
2.16912
2.19715
2.22455
2.2513
2.27736
2.30271
2.32733
2.3512
2.37429
2.39657
2.41804
2.43866
2.45842
2.47732
2.49531
2.51241
2.52858
2.54382
2.55813
2.57148
2.58388
2.59531
2.60578
2.61528
2.6238
2.63135
2.63793
2.64353
2.64816
2.65182
2.65453
2.6562
2.65689
2.65683
2.65581
2.65385
2.65098
2.64723
2.6426
2.63711
2.63079
2.62365
2.61572
2.60701
2.59755
2.58735
2.57643
2.56483
2.55258
2.53968
2.52617
2.51206
2.4974
2.48221
2.46654
2.45042
2.43391
2.41703
2.39984
2.38236
2.36462
2.34666
2.32848
2.31013
2.29164
2.27303
2.25436
2.23567
2.21699
2.19837
2.17985
2.16143
2.14317
2.12509
2.10721
2.08951
2.07191
2.05325
2.03052
6.79298e-05
0.000891817
0.00511107
0.0159258
0.0273421
0.0351699
0.0397393
0.0420717
0.042992
0.0429792
0.0424755
0.0414325
0.0401225
0.0386762
0.037191
0.0357402
0.0343739
0.0331213
0.0319926
0.0309837
0.0300783
0.0292518
0.0284754
0.0277141
0.0269294
0.0260774
0.0251164
0.0240188
0.0227568
0.0212956
0.0195983
0.0177081
0.0158601
0.0156943
0.0186904
0.0296991
0.051904
0.0804537
0.107777
0.129353
0.143491
0.151409
0.156429
0.161618
0.168677
0.179445
0.195498
0.216728
0.243727
0.275687
0.311955
0.35117
0.392182
0.434156
0.476637
0.519466
0.562556
0.605927
0.6496
0.693601
0.737932
0.782559
0.827417
0.872411
0.917433
0.962393
1.00721
1.05181
1.09617
1.14024
1.18403
1.22752
1.27074
1.31368
1.35637
1.3988
1.44098
1.48292
1.5246
1.56603
1.6072
1.64809
1.6887
1.72902
1.76903
1.80872
1.84808
1.88708
1.92572
1.96398
2.00184
2.03928
2.0763
2.11287
2.14897
2.18457
2.21966
2.25421
2.28818
2.32155
2.3543
2.3864
2.41781
2.4485
2.47846
2.50764
2.53602
2.56358
2.59028
2.6161
2.64101
2.66499
2.68803
2.71009
2.73116
2.75123
2.77027
2.78827
2.80522
2.82111
2.83592
2.84965
2.8623
2.87385
2.88431
2.89368
2.90194
2.9091
2.91517
2.92014
2.92403
2.92684
2.9285
2.9291
2.92878
2.92741
2.92499
2.92156
2.91713
2.91174
2.90539
2.8981
2.88991
2.88083
2.87088
2.86009
2.84849
2.83609
2.82293
2.80903
2.79442
2.77913
2.76319
2.74662
2.72947
2.71179
2.69361
2.67498
2.65594
2.63654
2.61682
2.5968
2.57653
2.55603
2.53532
2.51444
2.49343
2.47235
2.45124
2.43014
2.40911
2.38818
2.36739
2.3468
2.32644
2.30637
2.28659
2.26705
2.24671
2.22302
0.000602812
0.00268125
0.0122481
0.0280393
0.0382999
0.043896
0.0466671
0.0477114
0.0476347
0.0468849
0.0454994
0.0437968
0.0419343
0.0400384
0.0382057
0.0365041
0.0349739
0.0336313
0.032472
0.0314766
0.030616
0.0298548
0.0291522
0.0284624
0.0277231
0.0269043
0.0260052
0.0250583
0.0241038
0.0233017
0.0230044
0.0238663
0.027245
0.0348838
0.0504381
0.0759395
0.104016
0.129918
0.150237
0.162698
0.168884
0.172122
0.175825
0.183311
0.195911
0.214027
0.237743
0.266501
0.299683
0.336159
0.374883
0.414845
0.455451
0.496444
0.53777
0.579461
0.621582
0.664211
0.707417
0.751248
0.795723
0.840811
0.886445
0.932547
0.979023
1.02578
1.07272
1.11976
1.16686
1.21394
1.26099
1.30797
1.35486
1.40166
1.44834
1.49488
1.54128
1.58751
1.63355
1.67938
1.72496
1.77029
1.81534
1.86009
1.90453
1.94862
1.99235
2.0357
2.07865
2.12117
2.16326
2.20488
2.24603
2.28667
2.32678
2.36634
2.40532
2.44369
2.48141
2.51847
2.55481
2.59043
2.62527
2.65931
2.69252
2.72487
2.75631
2.78683
2.8164
2.84497
2.87253
2.89904
2.92449
2.94886
2.97211
2.99424
3.01522
3.03504
3.05368
3.07113
3.08738
3.10243
3.11626
3.12887
3.14026
3.15043
3.15937
3.16709
3.17359
3.17887
3.18295
3.18583
3.18743
3.18791
3.18731
3.18554
3.18262
3.17859
3.17347
3.16726
3.16001
3.15174
3.14246
3.1322
3.12099
3.10886
3.09582
3.08192
3.06718
3.05162
3.03529
3.01822
3.00042
2.98194
2.96283
2.94312
2.92288
2.90214
2.88094
2.85935
2.83739
2.8151
2.79253
2.76969
2.74663
2.72338
2.69998
2.67649
2.65297
2.62946
2.60601
2.58268
2.5595
2.53655
2.51388
2.49157
2.46962
2.44801
2.4258
2.40066
0.00223887
0.00648305
0.0234222
0.0388339
0.0470023
0.050989
0.0525889
0.0526733
0.0518393
0.0502089
0.048143
0.0458458
0.0434851
0.0411941
0.0390698
0.0371734
0.0355325
0.0341469
0.0329941
0.032039
0.0312377
0.0305408
0.029897
0.029233
0.0285204
0.0277345
0.0269351
0.0262798
0.025951
0.0267241
0.0297571
0.0369383
0.0508924
0.0719469
0.0972547
0.122404
0.144926
0.162211
0.172802
0.178017
0.18108
0.185984
0.195109
0.209655
0.229714
0.254876
0.28446
0.317574
0.353319
0.39076
0.429165
0.468072
0.507327
0.546941
0.587002
0.627614
0.668884
0.710914
0.753788
0.797556
0.842228
0.887786
0.934186
0.981358
1.02922
1.07768
1.12664
1.17603
1.22576
1.27576
1.32599
1.3764
1.42694
1.47757
1.52825
1.57895
1.62962
1.68022
1.7307
1.78103
1.83114
1.88102
1.93063
1.97992
2.02889
2.07749
2.12571
2.17351
2.22087
2.26776
2.31416
2.36005
2.40541
2.4502
2.49441
2.53799
2.58093
2.62318
2.66472
2.7055
2.7455
2.78467
2.82298
2.8604
2.89689
2.93241
2.96693
3.00042
3.03284
3.06416
3.09435
3.12338
3.15122
3.17786
3.20326
3.22741
3.25029
3.27188
3.29217
3.31113
3.32877
3.34507
3.36003
3.37364
3.3859
3.39681
3.40637
3.41458
3.42144
3.42697
3.43117
3.43406
3.43556
3.43584
3.43489
3.43266
3.4292
3.42451
3.41862
3.41157
3.40337
3.39404
3.38363
3.37216
3.35965
3.34614
3.33165
3.31622
3.29987
3.28264
3.26456
3.24568
3.22601
3.20561
3.18452
3.16279
3.14047
3.11762
3.09428
3.07049
3.0463
3.02175
2.99688
2.97172
2.94631
2.92068
2.8949
2.86902
2.84308
2.81716
2.7913
2.76555
2.73998
2.71465
2.68964
2.66502
2.64082
2.61704
2.5928
2.5659
0.00477506
0.0125849
0.0346763
0.0483039
0.0547963
0.0576219
0.0582855
0.0575771
0.0558851
0.0535518
0.0508499
0.0480005
0.0451883
0.0425562
0.0402006
0.038173
0.036485
0.0351207
0.0340426
0.0332003
0.0325516
0.0320449
0.0316611
0.0314268
0.0314369
0.0317745
0.0328284
0.0348074
0.0383483
0.0446886
0.0558077
0.0718112
0.091332
0.112648
0.133643
0.151928
0.16598
0.175388
0.18127
0.186282
0.193379
0.204707
0.221132
0.242571
0.268431
0.297933
0.330269
0.36466
0.400423
0.436996
0.47404
0.511432
0.549212
0.587492
0.626404
0.66608
0.706644
0.748205
0.790842
0.834604
0.879517
0.925577
0.972752
1.02099
1.07021
1.12035
1.1713
1.22298
1.27532
1.32822
1.38162
1.43546
1.48966
1.54417
1.59891
1.65383
1.70886
1.76391
1.81894
1.87386
1.92862
1.98316
2.03742
2.09137
2.14498
2.19819
2.25099
2.30333
2.35518
2.40651
2.4573
2.50752
2.55714
2.60615
2.65449
2.70215
2.74907
2.79524
2.8406
2.88513
2.92878
2.97151
3.01328
3.05405
3.09379
3.13245
3.17001
3.20641
3.24164
3.27564
3.30839
3.33986
3.37002
3.39885
3.42632
3.45241
3.47709
3.50036
3.52219
3.54257
3.56149
3.57894
3.59492
3.60943
3.62245
3.634
3.64407
3.65266
3.65979
3.66546
3.66969
3.67248
3.67379
3.67378
3.67239
3.66963
3.66552
3.66009
3.65337
3.64539
3.63617
3.62574
3.61414
3.60139
3.58753
3.5726
3.55661
3.53961
3.52162
3.50269
3.48285
3.46213
3.44058
3.41823
3.39515
3.3714
3.34702
3.32206
3.29658
3.27061
3.2442
3.2174
3.19024
3.16276
3.13501
3.10703
3.07887
3.05061
3.02228
2.99395
2.96568
2.93753
2.90955
2.88183
2.85444
2.82748
2.80098
2.77495
2.74859
2.72
0.00731794
0.0206382
0.0447503
0.0566644
0.0620798
0.0641076
0.0640646
0.0626271
0.0602488
0.0572801
0.0540138
0.0506979
0.0475323
0.0446649
0.0421866
0.0401375
0.0385129
0.0372848
0.0363985
0.0357771
0.0354625
0.0353272
0.0354388
0.0359905
0.0372405
0.0397065
0.0440421
0.0509427
0.0609173
0.0740076
0.0892623
0.10598
0.123284
0.13983
0.154327
0.165967
0.174855
0.182038
0.189469
0.199207
0.212801
0.230818
0.253072
0.27897
0.307795
0.338862
0.37157
0.405414
0.440001
0.475071
0.510528
0.546405
0.582818
0.619912
0.657836
0.696735
0.736736
0.777942
0.820439
0.864289
0.909529
0.956166
1.00419
1.05355
1.10419
1.15605
1.20904
1.26308
1.31807
1.37393
1.43057
1.48791
1.54586
1.60432
1.66322
1.72244
1.7819
1.84152
1.90118
1.9608
2.02029
2.07957
2.13859
2.19727
2.25558
2.31347
2.3709
2.42783
2.48421
2.54001
2.5952
2.64977
2.70367
2.75688
2.80936
2.86105
2.91194
2.96197
3.01111
3.05932
3.10655
3.15276
3.19789
3.24192
3.2848
3.32649
3.36695
3.40615
3.44404
3.48059
3.51575
3.54951
3.58183
3.61268
3.64205
3.6699
3.69623
3.721
3.74421
3.76583
3.78586
3.80429
3.82113
3.83636
3.84998
3.862
3.87243
3.88125
3.88849
3.89415
3.89826
3.90082
3.90183
3.90139
3.89944
3.89602
3.89116
3.88489
3.87724
3.86824
3.85792
3.8463
3.83344
3.81935
3.80409
3.78767
3.77015
3.75155
3.7319
3.71124
3.68961
3.66704
3.64359
3.6193
3.59424
3.56847
3.54204
3.515
3.4874
3.45928
3.43069
3.40167
3.37225
3.34248
3.31242
3.28212
3.25163
3.22102
3.19034
3.15964
3.12899
3.09844
3.06807
3.03796
3.0082
2.97887
2.95004
2.92173
2.89317
2.86273
0.0092227
0.0293358
0.053583
0.0647801
0.0695387
0.070926
0.070274
0.0682189
0.0652551
0.0617741
0.0581014
0.054504
0.0511878
0.0482975
0.045915
0.0440739
0.0427521
0.0419489
0.0416326
0.0416403
0.0421679
0.0433407
0.0453698
0.0485329
0.0531332
0.0594337
0.0676142
0.077673
0.0894435
0.102515
0.116221
0.129879
0.142839
0.154546
0.1648
0.173874
0.182684
0.192545
0.204803
0.220347
0.239493
0.262021
0.287432
0.315147
0.344633
0.375445
0.407229
0.439717
0.472731
0.506197
0.540138
0.574656
0.609892
0.646005
0.683152
0.721468
0.761085
0.802115
0.84465
0.888761
0.934498
0.981886
1.03092
1.08158
1.13382
1.18756
1.24276
1.2993
1.3571
1.41607
1.47609
1.53708
1.59892
1.66148
1.72464
1.78829
1.85229
1.91654
1.98092
2.0453
2.10958
2.17365
2.23744
2.30088
2.3639
2.42646
2.48851
2.54998
2.61084
2.67105
2.73059
2.78942
2.84751
2.90483
2.96131
3.01693
3.07164
3.12539
3.17815
3.22986
3.28049
3.32998
3.37828
3.42535
3.47114
3.51563
3.55876
3.6005
3.64081
3.67964
3.71697
3.75275
3.78696
3.81957
3.85057
3.87992
3.90762
3.93363
3.95794
3.98054
4.00143
4.02059
4.03803
4.05374
4.06773
4.07999
4.09054
4.09938
4.10652
4.11198
4.11577
4.11792
4.11845
4.11741
4.11475
4.11053
4.10478
4.09754
4.08884
4.07871
4.06718
4.05429
4.04008
4.02459
4.00785
3.98991
3.97081
3.95058
3.92925
3.90685
3.88343
3.85901
3.83367
3.80746
3.78045
3.7527
3.72426
3.69518
3.66552
3.63531
3.60459
3.5734
3.54178
3.50979
3.47748
3.44492
3.41217
3.37929
3.34631
3.31331
3.28033
3.24745
3.21473
3.18227
3.15016
3.11849
3.08733
3.05673
3.02596
2.99361
0.010338
0.0370023
0.061886
0.0728274
0.0772079
0.0781967
0.077064
0.0745045
0.0711017
0.0673145
0.0635056
0.0599491
0.0568352
0.0542888
0.0523868
0.051206
0.0507284
0.0507252
0.0514192
0.0528294
0.0550619
0.058235
0.0624802
0.0679057
0.0745662
0.082453
0.0914806
0.10147
0.112131
0.123107
0.134032
0.144643
0.154828
0.164658
0.174499
0.185028
0.197063
0.211327
0.228278
0.248011
0.270326
0.294846
0.321153
0.348863
0.377665
0.407323
0.437667
0.468589
0.500049
0.532068
0.564733
0.598173
0.632534
0.667973
0.704646
0.742698
0.782258
0.823431
0.866318
0.911003
0.957548
1.00599
1.05634
1.1086
1.16273
1.21868
1.27639
1.33576
1.39668
1.45905
1.52275
1.58764
1.6536
1.72047
1.78806
1.85623
1.92483
1.99373
2.06278
2.13187
2.20087
2.26966
2.33814
2.40623
2.47386
2.54097
2.60748
2.67334
2.7385
2.80294
2.86661
2.92949
2.99155
3.05272
3.11297
3.17224
3.23048
3.28765
3.34371
3.39861
3.45229
3.50471
3.55582
3.60556
3.65389
3.70079
3.7462
3.79009
3.83242
3.87314
3.91221
3.94961
3.98531
4.01928
4.05151
4.08197
4.11064
4.13751
4.16256
4.18577
4.20714
4.22668
4.24438
4.26024
4.27427
4.28647
4.29684
4.30541
4.31217
4.31716
4.32039
4.3219
4.32171
4.31988
4.3163
4.31109
4.3043
4.29593
4.28604
4.27466
4.26181
4.24755
4.23191
4.21493
4.19667
4.17715
4.15643
4.13454
4.11153
4.08741
4.0622
4.03596
4.00876
3.98068
3.95177
3.92211
3.89173
3.8607
3.82907
3.79685
3.76411
3.73084
3.69711
3.66299
3.62855
3.59384
3.55894
3.52388
3.48873
3.45352
3.41831
3.38318
3.3482
3.31346
3.27908
3.24514
3.2117
3.17884
3.14589
3.11166
0.0110098
0.0436992
0.0701139
0.0811296
0.0852544
0.0859433
0.0843782
0.0813951
0.0777072
0.0738664
0.0702662
0.0671562
0.0646776
0.0628849
0.0619398
0.0616662
0.0620595
0.0632273
0.0651784
0.067944
0.0715482
0.0760242
0.0813883
0.0876124
0.0946347
0.102365
0.110683
0.11945
0.128532
0.137838
0.147322
0.157045
0.167188
0.17808
0.190149
0.203826
0.219443
0.237168
0.256984
0.278717
0.30211
0.326882
0.352783
0.379614
0.407227
0.435527
0.464467
0.494044
0.524295
0.5553
0.587161
0.620003
0.653973
0.689228
0.725923
0.764207
0.804218
0.846059
0.889829
0.935629
0.983534
1.0336
1.08584
1.14027
1.19687
1.25559
1.31637
1.37909
1.44364
1.50987
1.57763
1.64675
1.71707
1.78841
1.86053
1.93321
2.00628
2.07961
2.15309
2.2266
2.30001
2.37322
2.4461
2.51856
2.59053
2.66188
2.7325
2.80238
2.87148
2.93976
3.00718
3.07371
3.1393
3.20389
3.26744
3.32987
3.39115
3.45123
3.51006
3.5676
3.62379
3.67859
3.73192
3.78376
3.83406
3.88277
3.92988
3.97533
4.01908
4.0611
4.10135
4.1398
4.17641
4.21118
4.24408
4.2751
4.30421
4.33141
4.35668
4.38001
4.4014
4.42084
4.43835
4.45392
4.46757
4.4793
4.48913
4.49705
4.5031
4.50729
4.50965
4.51022
4.5091
4.50616
4.50144
4.49505
4.487
4.47734
4.46611
4.45333
4.43904
4.4233
4.40614
4.38761
4.36776
4.34663
4.32426
4.30072
4.27603
4.25022
4.22328
4.19526
4.16629
4.13642
4.10572
4.07425
4.04205
4.00917
3.97568
3.9416
3.90697
3.87176
3.83606
3.79996
3.76354
3.72684
3.68994
3.65287
3.61569
3.57843
3.54113
3.50388
3.46677
3.4299
3.39336
3.35725
3.32164
3.28662
3.25157
3.21556
0.0112895
0.0505058
0.0781387
0.0893755
0.0933829
0.0938756
0.0919086
0.0884761
0.084561
0.0808942
0.0778566
0.0755811
0.0740954
0.073405
0.0732708
0.0738791
0.0752586
0.0773737
0.0802057
0.083744
0.0879779
0.0928887
0.0984391
0.104584
0.111278
0.118478
0.126158
0.134313
0.142975
0.152212
0.162146
0.17296
0.184872
0.198104
0.212844
0.229208
0.247215
0.266801
0.287838
0.310158
0.333578
0.357951
0.38316
0.409121
0.435795
0.463175
0.491286
0.520178
0.549927
0.580627
0.612397
0.645373
0.679707
0.71556
0.753103
0.792519
0.833903
0.877293
0.922825
0.970637
1.02081
1.0734
1.12844
1.18593
1.24585
1.30817
1.37279
1.4396
1.50842
1.57908
1.65135
1.72501
1.79987
1.87567
1.95212
2.02897
2.106
2.18313
2.26032
2.33752
2.41466
2.49163
2.56828
2.64452
2.72021
2.7952
2.86935
2.94271
3.01519
3.08673
3.15729
3.22682
3.29527
3.3626
3.42873
3.49361
3.55718
3.6194
3.68023
3.73961
3.79751
3.85387
3.90863
3.96175
4.01319
4.06291
4.11088
4.15708
4.20147
4.244
4.28463
4.32334
4.36011
4.39492
4.42776
4.45862
4.48748
4.51433
4.53916
4.56196
4.58273
4.60148
4.61823
4.63296
4.64571
4.65647
4.66526
4.67209
4.67698
4.67997
4.68109
4.68043
4.67798
4.67361
4.66749
4.65964
4.65012
4.63895
4.62617
4.61183
4.59595
4.5786
4.55981
4.53963
4.51811
4.4953
4.47124
4.446
4.41961
4.39212
4.36352
4.33386
4.30325
4.27174
4.23939
4.20624
4.17237
4.13781
4.10262
4.06684
4.03051
3.99355
3.95609
3.91823
3.88003
3.84156
3.80287
3.764
3.72499
3.68587
3.64668
3.60751
3.56846
3.52964
3.49113
3.45302
3.41539
3.37835
3.34133
3.30372
0.0113195
0.0569939
0.0858539
0.0973109
0.101185
0.10141
0.0989511
0.0952754
0.0915776
0.088489
0.0862273
0.0848823
0.084331
0.0842843
0.0849168
0.0862656
0.0882944
0.0909663
0.0942521
0.0981309
0.102585
0.107601
0.113171
0.119297
0.125998
0.133309
0.14129
0.150008
0.159569
0.170092
0.181704
0.194528
0.208651
0.224125
0.24096
0.25912
0.278533
0.299109
0.320749
0.343326
0.366753
0.390986
0.415996
0.441785
0.468382
0.495833
0.524201
0.553564
0.584019
0.615675
0.648654
0.683092
0.71914
0.756965
0.796725
0.838568
0.882597
0.928926
0.977679
1.02894
1.08276
1.13917
1.19818
1.25977
1.32393
1.39058
1.45964
1.53098
1.60442
1.67971
1.75655
1.83452
1.91336
1.99283
2.07278
2.15298
2.23319
2.31339
2.3936
2.47374
2.55374
2.63343
2.71274
2.79173
2.87015
2.9478
3.02466
3.10059
3.17549
3.2493
3.32195
3.39342
3.46367
3.53261
3.6002
3.66636
3.73104
3.79422
3.85585
3.9159
3.97433
4.03107
4.08607
4.1393
4.1907
4.24028
4.288
4.33383
4.37776
4.41972
4.45969
4.49763
4.53355
4.56743
4.59927
4.62905
4.65677
4.68242
4.70599
4.72748
4.7469
4.76425
4.77955
4.79281
4.80404
4.81327
4.82049
4.82572
4.82899