/*--------------------------------*- C++ -*----------------------------------*\
  =========                 |
  \\      /  F ield         | OpenFOAM: The Open Source CFD Toolbox
   \\    /   O peration     | Website:  https://openfoam.org
    \\  /    A nd           | Version:  8
     \\/     M anipulation  |
\*---------------------------------------------------------------------------*/
FoamFile
{
    version     2.0;
    format      ascii;
    class       volScalarField;
    location    "1300";
    object      p;
}
// * * * * * * * * * * * * * * * * * * * * * * * * * * * * * * * * * * * * * //

dimensions      [0 2 -2 0 0 0 0];

internalField   nonuniform List<scalar> 
12225
(
-4.17733
-5.0654
-5.4589
-5.58875
-5.72475
-5.87802
-6.00435
-6.10079
-6.18555
-6.26797
-6.34446
-6.41451
-6.48227
-6.54977
-6.61765
-6.68682
-6.76696
-6.85908
-4.44101
-5.08863
-5.42093
-5.55044
-5.68564
-5.84145
-5.97184
-6.07021
-6.15786
-6.2399
-6.31816
-6.39244
-6.45983
-6.5228
-6.59087
-6.66502
-6.73802
-6.79949
-4.65362
-5.08953
-5.4043
-5.55896
-5.69782
-5.84748
-5.9748
-6.0739
-6.16101
-6.24218
-6.31965
-6.3922
-6.45767
-6.51908
-6.58374
-6.65064
-6.71343
-6.763
-4.80406
-5.11826
-5.41465
-5.57656
-5.70709
-5.84435
-5.96577
-6.06412
-6.15071
-6.23131
-6.30747
-6.37833
-6.44312
-6.50439
-6.56638
-6.62808
-6.68524
-6.73145
-4.93289
-5.16886
-5.43325
-5.59261
-5.7165
-5.84479
-5.96205
-6.05992
-6.14588
-6.22529
-6.29976
-6.36901
-6.43302
-6.49351
-6.55279
-6.61025
-6.6629
-6.70617
-5.05068
-5.22544
-5.45209
-5.60673
-5.72688
-5.84775
-5.96022
-6.05632
-6.14092
-6.21879
-6.29164
-6.35945
-6.42243
-6.48167
-6.53849
-6.5924
-6.64135
-6.68238
-5.15802
-5.28477
-5.47442
-5.62142
-5.7375
-5.85097
-5.95792
-6.05159
-6.13468
-6.21115
-6.28256
-6.34906
-6.41086
-6.4687
-6.52329
-6.57426
-6.62031
-6.65966
-5.24069
-5.33704
-5.49799
-5.63554
-5.74704
-5.8542
-5.95614
-6.04724
-6.12879
-6.20392
-6.27401
-6.33927
-6.39991
-6.45644
-6.50926
-6.55811
-6.60219
-6.64034
-5.30788
-5.38391
-5.52145
-5.6493
-5.75621
-5.85781
-5.95512
-6.04361
-6.12351
-6.19723
-6.26599
-6.33006
-6.38956
-6.44485
-6.49619
-6.54339
-6.58598
-6.62321
-5.37476
-5.43425
-5.54925
-5.66574
-5.76709
-5.86277
-5.95494
-6.0402
-6.118
-6.18995
-6.2571
-6.31969
-6.37782
-6.4317
-6.48149
-6.52711
-6.56834
-6.60472
-5.44039
-5.48669
-5.58113
-5.68503
-5.77972
-5.8692
-5.95581
-6.03725
-6.11245
-6.18225
-6.24745
-6.30828
-6.36479
-6.41709
-6.4653
-6.50941
-6.54938
-6.58495
-5.50367
-5.53966
-5.61626
-5.70702
-5.79404
-5.87706
-5.95785
-6.03492
-6.107
-6.17425
-6.23719
-6.29598
-6.35065
-6.40124
-6.44785
-6.49051
-6.5293
-6.56411
-5.56328
-5.59145
-5.65319
-5.7311
-5.80973
-5.8861
-5.96093
-6.03324
-6.10172
-6.16607
-6.22647
-6.28299
-6.33564
-6.38443
-6.42943
-6.47071
-6.50839
-6.54246
-5.61775
-5.64004
-5.68989
-5.75606
-5.82611
-5.89576
-5.96468
-6.03203
-6.09661
-6.15777
-6.21542
-6.26954
-6.32007
-6.36702
-6.41044
-6.45038
-6.48701
-6.52034
-5.66503
-5.683
-5.72374
-5.77992
-5.84187
-5.90507
-5.96837
-6.03088
-6.09146
-6.14934
-6.20418
-6.25585
-6.30428
-6.34942
-6.39129
-6.42998
-6.46562
-6.49826
-5.70239
-5.71732
-5.75148
-5.79987
-5.85496
-5.91247
-5.97081
-6.02896
-6.08584
-6.14061
-6.19279
-6.24217
-6.28862
-6.33207
-6.37254
-6.41009
-6.44483
-6.47685
-5.72589
-5.73888
-5.76888
-5.81212
-5.86233
-5.91561
-5.97021
-6.02501
-6.07895
-6.13119
-6.18119
-6.22867
-6.27347
-6.31553
-6.35484
-6.39146
-6.42548
-6.45701
-5.72926
-5.74164
-5.7703
-5.81177
-5.86012
-5.91164
-5.96457
-6.01783
-6.07034
-6.12128
-6.17008
-6.21648
-6.26032
-6.30155
-6.34014
-6.3762
-6.40978
-6.44103
-5.71224
-5.72532
-5.7555
-5.79867
-5.84837
-5.90079
-5.95438
-6.0081
-6.0609
-6.11193
-6.1607
-6.20696
-6.25062
-6.29163
-6.33004
-6.3659
-6.39936
-6.43053
-5.68005
-5.69502
-5.72923
-5.77701
-5.83051
-5.88581
-5.94177
-5.99748
-6.05183
-6.10398
-6.15352
-6.20033
-6.24434
-6.28557
-6.32408
-6.36003
-6.39352
-6.42475
-5.63592
-5.65412
-5.69509
-5.75013
-5.80919
-5.86869
-5.92824
-5.98702
-6.04376
-6.09766
-6.14849
-6.19623
-6.2409
-6.28256
-6.32136
-6.35748
-6.39109
-6.42241
-5.58164
-5.60497
-5.65602
-5.72072
-5.78643
-5.85091
-5.91493
-5.97752
-6.03713
-6.09313
-6.14552
-6.19441
-6.23987
-6.28205
-6.32118
-6.35748
-6.39122
-6.42261
-5.51817
-5.54943
-5.61467
-5.69097
-5.76364
-5.83354
-5.90271
-5.96952
-6.03219
-6.09042
-6.14449
-6.1946
-6.24087
-6.28355
-6.32294
-6.35939
-6.39317
-6.42459
-5.44551
-5.48932
-5.57385
-5.6626
-5.74161
-5.81726
-5.89216
-5.96337
-6.02904
-6.08946
-6.14519
-6.19646
-6.24346
-6.28653
-6.3261
-6.36257
-6.39631
-6.42769
-5.36325
-5.42644
-5.53643
-5.63707
-5.72087
-5.80232
-5.88326
-5.95881
-6.02735
-6.08989
-6.14723
-6.19956
-6.24716
-6.29045
-6.32998
-6.36628
-6.39979
-6.43097
-5.27062
-5.36248
-5.50383
-5.61484
-5.70197
-5.78891
-5.87539
-5.95468
-6.02577
-6.09037
-6.14935
-6.20286
-6.25116
-6.29481
-6.3344
-6.37059
-6.40395
-6.43513
-5.16695
-5.30115
-5.47319
-5.591
-5.68272
-5.77675
-5.86876
-5.95121
-6.02437
-6.09062
-6.15083
-6.20515
-6.25388
-6.29765
-6.3371
-6.37303
-6.40615
-6.43727
-5.04191
-5.25454
-5.44822
-5.56137
-5.65819
-5.76302
-5.86312
-5.95058
-6.02745
-6.09665
-6.15902
-6.21469
-6.26415
-6.30807
-6.34717
-6.38248
-6.41515
-6.44671
-4.85503
-5.23021
-5.45603
-5.5528
-5.64516
-5.75422
-5.85754
-5.94651
-6.02475
-6.09548
-6.15925
-6.21601
-6.26615
-6.31028
-6.34898
-6.38296
-6.41353
-6.44205
-4.59901
-5.15601
-5.44619
-5.55275
-5.65264
-5.77024
-5.87919
-5.97099
-6.05063
-6.12218
-6.18638
-6.24328
-6.29323
-6.33678
-6.37438
-6.4058
-6.43183
-6.45283
-7.39148
-7.39158
-7.39162
-7.3916
-7.3913
-7.39011
-7.38762
-7.38432
-7.38116
-7.37917
-7.37931
-7.3818
-7.38611
-7.39149
-7.39718
-7.40249
-7.40687
-7.40993
-7.41162
-7.4123
-7.41224
-7.41162
-7.41068
-7.4097
-7.40891
-7.4084
-7.40813
-7.40797
-7.40774
-7.40736
-7.40682
-7.40611
-7.40519
-7.40396
-7.40252
-7.40112
-7.4004
-7.40098
-7.40291
-7.40555
-7.40802
-7.40992
-7.41146
-7.41309
-7.41524
-7.41842
-7.42219
-7.42547
-7.42788
-7.43162
-7.44059
-7.45881
-7.48609
-7.52081
-7.56253
-7.61249
-7.67085
-7.73614
-7.80664
-7.88011
-7.95421
-8.02698
-8.09731
-8.1643
-8.22695
-8.2849
-8.338
-8.38618
-8.42949
-8.46799
-8.50179
-8.53096
-8.55558
-8.5757
-8.59138
-8.60262
-8.60946
-8.61185
-8.60984
-8.60335
-8.59241
-8.57694
-8.55696
-8.53241
-8.50324
-8.4694
-8.4308
-8.38736
-8.339
-8.28564
-8.22727
-8.16385
-8.09536
-8.02178
-7.94303
-7.85904
-7.76973
-7.67511
-7.57518
-7.46981
-7.35854
-7.24122
-7.11803
-6.98902
-6.85421
-6.71361
-6.56724
-6.41515
-6.25739
-6.09402
-5.92515
-5.75085
-5.57126
-5.3865
-5.19672
-5.00206
-4.8027
-4.59879
-4.39052
-4.17806
-3.96161
-3.74134
-3.51744
-3.29011
-3.05952
-2.82588
-2.58936
-2.35018
-2.1085
-1.8645
-1.61834
-1.37024
-1.12042
-0.869111
-0.616511
-0.362872
-0.10835
0.147145
0.403522
0.6604
0.917595
1.17491
1.43219
1.68922
1.94586
2.20189
2.45718
2.71151
2.9647
3.21659
3.46702
3.71585
3.96293
4.20809
4.4512
4.69211
4.93069
5.16683
5.40042
5.63135
5.85951
6.08481
6.30715
6.52641
6.74249
6.95529
7.16471
7.37065
7.57301
7.7717
7.96662
8.15765
8.3447
8.52764
8.70638
8.88084
9.05133
9.21771
9.38306
9.53865
-7.39267
-7.39285
-7.39321
-7.39358
-7.39357
-7.39276
-7.39086
-7.38843
-7.3867
-7.38662
-7.38848
-7.39211
-7.39702
-7.40254
-7.40806
-7.41309
-7.41726
-7.42037
-7.42223
-7.42264
-7.42169
-7.41972
-7.41715
-7.41445
-7.41204
-7.41018
-7.40891
-7.40805
-7.40736
-7.40671
-7.40609
-7.40546
-7.40476
-7.40392
-7.40289
-7.40208
-7.40221
-7.4037
-7.40631
-7.4091
-7.41098
-7.41162
-7.41149
-7.41064
-7.40927
-7.409
-7.41222
-7.41903
-7.42576
-7.43288
-7.44386
-7.45982
-7.48221
-7.51424
-7.55857
-7.61452
-7.67934
-7.75044
-7.82489
-7.90027
-7.97466
-8.04696
-8.11587
-8.18018
-8.23986
-8.29491
-8.34526
-8.39101
-8.4322
-8.46894
-8.50127
-8.52927
-8.55297
-8.57239
-8.58754
-8.59842
-8.60502
-8.60729
-8.60524
-8.5988
-8.58796
-8.57267
-8.55291
-8.52863
-8.49979
-8.46634
-8.4282
-8.38528
-8.3375
-8.2848
-8.22712
-8.16445
-8.09677
-8.02401
-7.94612
-7.86297
-7.77445
-7.68042
-7.58071
-7.47521
-7.36413
-7.24754
-7.12525
-6.99719
-6.86334
-6.72371
-6.57831
-6.42718
-6.27037
-6.10794
-5.93997
-5.76658
-5.58787
-5.40397
-5.21502
-5.02118
-4.8226
-4.61945
-4.41192
-4.20018
-3.98442
-3.76481
-3.54156
-3.31485
-3.08486
-2.85178
-2.61582
-2.37716
-2.13598
-1.89243
-1.64671
-1.39901
-1.14954
-0.898481
-0.645976
-0.392124
-0.137122
0.118578
0.374771
0.631467
0.888489
1.14567
1.40283
1.65978
1.91634
2.17234
2.42761
2.68194
2.93517
3.18711
3.43762
3.68656
3.93376
4.17908
4.42236
4.66347
4.90227
5.13864
5.37247
5.60365
5.83208
6.05765
6.28027
6.49984
6.71623
6.92936
7.13911
7.3454
7.54812
7.74719
7.94251
8.13397
8.32151
8.50506
8.68451
8.8598
9.0311
9.19786
9.36526
9.52019
-7.39396
-7.39395
-7.39398
-7.39405
-7.39413
-7.39417
-7.3944
-7.39534
-7.39746
-7.40089
-7.40543
-7.41073
-7.41636
-7.4219
-7.42696
-7.43126
-7.43459
-7.43683
-7.43792
-7.43779
-7.43647
-7.43409
-7.43082
-7.42688
-7.42249
-7.41795
-7.41354
-7.40954
-7.40614
-7.40343
-7.40134
-7.39967
-7.39815
-7.39684
-7.39623
-7.39697
-7.39953
-7.40359
-7.40774
-7.4102
-7.40975
-7.40738
-7.40522
-7.40475
-7.40546
-7.4073
-7.41281
-7.42322
-7.43778
-7.45708
-7.48192
-7.51239
-7.54899
-7.59239
-7.64288
-7.69948
-7.76053
-7.82445
-7.88967
-7.95486
-8.01901
-8.08142
-8.14138
-8.19824
-8.25169
-8.30157
-8.34773
-8.3901
-8.42861
-8.46323
-8.49394
-8.52069
-8.54345
-8.5622
-8.57688
-8.58746
-8.59389
-8.59612
-8.59411
-8.58781
-8.57717
-8.56215
-8.5427
-8.51879
-8.49037
-8.45739
-8.41979
-8.37748
-8.33038
-8.2784
-8.22151
-8.15969
-8.09288
-8.02105
-7.94411
-7.86197
-7.77452
-7.68164
-7.58318
-7.47902
-7.36921
-7.25378
-7.13266
-7.0058
-6.87317
-6.73476
-6.59058
-6.44066
-6.28505
-6.12381
-5.95703
-5.78479
-5.60722
-5.42444
-5.23658
-5.04381
-4.84627
-4.64414
-4.4376
-4.22683
-4.012
-3.79332
-3.57095
-3.3451
-3.11595
-2.88369
-2.64851
-2.41061
-2.17014
-1.92729
-1.68224
-1.43518
-1.18632
-0.935858
-0.683943
-0.43069
-0.176287
0.0789172
0.334707
0.591019
0.847684
1.10454
1.36141
1.6181
1.87443
2.13024
2.38534
2.63954
2.89266
3.14453
3.395
3.64392
3.89114
4.13651
4.37986
4.62107
4.85999
5.09649
5.33046
5.5618
5.79039
6.01613
6.23892
6.45866
6.67523
6.88854
7.09847
7.30494
7.50783
7.70707
7.90256
8.09421
8.2819
8.46555
8.64517
8.82074
8.9928
9.1602
9.33036
9.48126
-7.39509
-7.39481
-7.39444
-7.39446
-7.39564
-7.39838
-7.40249
-7.40759
-7.41335
-7.41946
-7.42562
-7.43157
-7.43709
-7.44201
-7.44615
-7.44938
-7.45159
-7.45273
-7.45277
-7.45168
-7.44947
-7.44622
-7.44202
-7.43694
-7.43109
-7.42459
-7.41765
-7.41055
-7.40366
-7.39734
-7.39185
-7.3874
-7.38428
-7.38297
-7.38418
-7.38807
-7.39347
-7.39838
-7.40144
-7.40234
-7.40173
-7.40123
-7.40238
-7.40591
-7.41228
-7.42224
-7.43663
-7.45613
-7.48083
-7.51037
-7.54425
-7.58217
-7.62393
-7.66939
-7.7184
-7.77056
-7.82527
-7.88174
-7.93913
-7.99662
-8.05347
-8.10905
-8.16283
-8.21434
-8.26324
-8.30927
-8.35223
-8.39196
-8.42834
-8.46125
-8.4906
-8.51631
-8.53828
-8.55645
-8.57073
-8.58104
-8.58733
-8.58952
-8.58756
-8.58137
-8.57092
-8.55613
-8.53697
-8.51338
-8.48534
-8.45279
-8.41567
-8.37391
-8.32741
-8.27612
-8.21995
-8.1589
-8.09291
-8.02193
-7.94585
-7.86459
-7.77803
-7.68606
-7.58857
-7.4855
-7.37682
-7.26252
-7.14252
-7.01679
-6.8853
-6.74802
-6.60497
-6.45617
-6.30168
-6.14153
-5.97583
-5.80466
-5.62813
-5.44637
-5.25951
-5.06771
-4.87112
-4.66992
-4.46429
-4.2544
-4.04044
-3.8226
-3.60106
-3.37602
-3.14766
-2.91616
-2.68173
-2.44454
-2.20477
-1.96259
-1.71819
-1.47176
-1.22351
-0.973616
-0.722244
-0.46955
-0.215733
0.0389628
0.294335
0.550266
0.80658
1.06312
1.31969
1.57612
1.83222
2.08783
2.34275
2.59681
2.84981
3.10159
3.352
3.6009
3.84813
4.09352
4.33694
4.57822
4.81723
5.05385
5.28794
5.51941
5.74814
5.97403
6.19697
6.41686
6.63359
6.84705
7.05713
7.26374
7.46677
7.66613
7.86175
8.05352
8.24136
8.42522
8.6051
8.78095
8.95346
9.12088
9.2918
9.4365
-7.3974
-7.39681
-7.39642
-7.39787
-7.40213
-7.40848
-7.41584
-7.42352
-7.43104
-7.43808
-7.4445
-7.45023
-7.45522
-7.4594
-7.46269
-7.46501
-7.4663
-7.46651
-7.46561
-7.46358
-7.46043
-7.45619
-7.45091
-7.44465
-7.43747
-7.42942
-7.42062
-7.41128
-7.40172
-7.39247
-7.38412
-7.3775
-7.37357
-7.37323
-7.3763
-7.38088
-7.38537
-7.38911
-7.39204
-7.39461
-7.39764
-7.40225
-7.40942
-7.42012
-7.43515
-7.45475
-7.4785
-7.50586
-7.53657
-7.57028
-7.60674
-7.6459
-7.6877
-7.7321
-7.77892
-7.82781
-7.87833
-7.92994
-7.98208
-8.03417
-8.08571
-8.13622
-8.18529
-8.23255
-8.2777
-8.32047
-8.36064
-8.39802
-8.43244
-8.46375
-8.49181
-8.51648
-8.53764
-8.55517
-8.56897
-8.57893
-8.58497
-8.58701
-8.58496
-8.57877
-8.56836
-8.55368
-8.53467
-8.51129
-8.4835
-8.45124
-8.41448
-8.37314
-8.32714
-8.27637
-8.22081
-8.16041
-8.09513
-8.02489
-7.94959
-7.86913
-7.78339
-7.69228
-7.59569
-7.49356
-7.38585
-7.2725
-7.15346
-7.02868
-6.89812
-6.76178
-6.61965
-6.47176
-6.31815
-6.15888
-5.99403
-5.82368
-5.64797
-5.46698
-5.2809
-5.08984
-4.89399
-4.6935
-4.48856
-4.27935
-4.06606
-3.84888
-3.62799
-3.40357
-3.17583
-2.94495
-2.71111
-2.4745
-2.23529
-1.99366
-1.74979
-1.50389
-1.25614
-1.00672
-0.755788
-0.503534
-0.25015
0.00413646
0.259158
0.514754
0.770776
1.02703
1.28335
1.53955
1.79546
2.05088
2.30565
2.55957
2.81246
3.06416
3.31452
3.5634
3.81062
4.05604
4.2995
4.54084
4.77993
5.01664
5.25084
5.48243
5.71129
5.93731
6.1604
6.38043
6.5973
6.81091
7.02114
7.2279
7.43109
7.63062
7.8264
8.01834
8.20636
8.39041
8.57048
8.74644
8.91896
9.08574
9.25615
9.39409
-7.40168
-7.40077
-7.40131
-7.40585
-7.41336
-7.42189
-7.43053
-7.4388
-7.4464
-7.45326
-7.45937
-7.46472
-7.46926
-7.47291
-7.47561
-7.4773
-7.47791
-7.47742
-7.47581
-7.47307
-7.4692
-7.46424
-7.4582
-7.45106
-7.44283
-7.43363
-7.42359
-7.4129
-7.40197
-7.39145
-7.38219
-7.37542
-7.37211
-7.37197
-7.37356
-7.37582
-7.37877
-7.38279
-7.38817
-7.39486
-7.40316
-7.4143
-7.42926
-7.44811
-7.47058
-7.49628
-7.52491
-7.55611
-7.58965
-7.62534
-7.66303
-7.70266
-7.74413
-7.78732
-7.83206
-7.87811
-7.92514
-7.97281
-8.02074
-8.06856
-8.11591
-8.16243
-8.2078
-8.2517
-8.29385
-8.33398
-8.37188
-8.40732
-8.44011
-8.47006
-8.49699
-8.52074
-8.54114
-8.55807
-8.57137
-8.58094
-8.58667
-8.58847
-8.58625
-8.57993
-8.56946
-8.55476
-8.53578
-8.51247
-8.4848
-8.45272
-8.41618
-8.37513
-8.32946
-8.27913
-8.22404
-8.16418
-8.09948
-8.02986
-7.95522
-7.87543
-7.7904
-7.70002
-7.60419
-7.50285
-7.39593
-7.28336
-7.16508
-7.04105
-6.91123
-6.7756
-6.63416
-6.48695
-6.33399
-6.17534
-6.0111
-5.84133
-5.66617
-5.48574
-5.30017
-5.10962
-4.91425
-4.71424
-4.50977
-4.30102
-4.08819
-3.87146
-3.65102
-3.42706
-3.19977
-2.96933
-2.73594
-2.49976
-2.26097
-2.01976
-1.77631
-1.53082
-1.28347
-1.03443
-0.783856
-0.531959
-0.278928
-0.0249718
0.22975
0.485073
0.740838
0.996855
1.25296
1.50896
1.76468
2.01994
2.27455
2.52833
2.78111
3.03273
3.28304
3.53188
3.77909
4.02451
4.26798
4.50935
4.74848
4.98524
5.21952
5.45118
5.68013
5.90625
6.12944
6.34958
6.56658
6.7803
6.99066
7.19755
7.40087
7.60053
7.79643
7.9885
8.17664
8.36078
8.54088
8.71676
8.889
9.05482
9.22444
9.35579
-7.40696
-7.40652
-7.40929
-7.41658
-7.42543
-7.43423
-7.44261
-7.45043
-7.45764
-7.46419
-7.47004
-7.47511
-7.47932
-7.48261
-7.48491
-7.48617
-7.48633
-7.48539
-7.48332
-7.48012
-7.47581
-7.4704
-7.4638
-7.45597
-7.44703
-7.4372
-7.42668
-7.41574
-7.40487
-7.39485
-7.38681
-7.38143
-7.37812
-7.37604
-7.37528
-7.37633
-7.37984
-7.38565
-7.39368
-7.40461
-7.41896
-7.43669
-7.4576
-7.48146
-7.50802
-7.53696
-7.56806
-7.60117
-7.63611
-7.67272
-7.71084
-7.75035
-7.79113
-7.83306
-7.87601
-7.91978
-7.96418
-8.00896
-8.05387
-8.09865
-8.143
-8.18667
-8.22935
-8.27079
-8.31073
-8.34891
-8.3851
-8.41907
-8.4506
-8.47948
-8.50551
-8.5285
-8.54826
-8.56464
-8.57748
-8.58665
-8.59203
-8.59352
-8.59104
-8.58451
-8.57385
-8.55901
-8.53994
-8.51659
-8.48891
-8.45688
-8.42045
-8.37955
-8.33414
-8.28408
-8.22937
-8.16993
-8.1057
-8.03658
-7.96247
-7.88324
-7.79879
-7.70901
-7.61382
-7.51311
-7.40682
-7.29485
-7.17717
-7.05371
-6.92443
-6.78932
-6.64837
-6.50161
-6.34908
-6.19084
-6.02696
-5.85756
-5.68272
-5.5026
-5.31732
-5.12706
-4.93195
-4.73222
-4.52801
-4.31953
-4.10697
-3.89052
-3.67036
-3.4467
-3.2197
-2.98957
-2.75649
-2.52061
-2.28213
-2.04124
-1.79811
-1.55294
-1.30591
-1.05716
-0.806891
-0.555293
-0.302565
-0.0488788
0.205583
0.460681
0.716218
0.972035
1.22794
1.48376
1.73932
1.99442
2.24888
2.50253
2.7552
3.00673
3.25697
3.50577
3.75295
3.99834
4.2418
4.48316
4.7223
4.95908
5.19338
5.42508
5.65408
5.88027
6.10354
6.32376
6.54083
6.75463
6.96507
7.17204
7.37544
7.57518
7.77117
7.96331
8.1515
8.33564
8.51568
8.69133
8.86312
9.02788
9.19674
9.32199
-7.41103
-7.41189
-7.41733
-7.42567
-7.43418
-7.44235
-7.45015
-7.45756
-7.46447
-7.4708
-7.47646
-7.48134
-7.48536
-7.48844
-7.49052
-7.49155
-7.49149
-7.49031
-7.48801
-7.4846
-7.48008
-7.47436
-7.46736
-7.45927
-7.45032
-7.44066
-7.43052
-7.42035
-7.41089
-7.40284
-7.39644
-7.39107
-7.3863
-7.38292
-7.38184
-7.38335
-7.38795
-7.3961
-7.40784
-7.42303
-7.44139
-7.4627
-7.48671
-7.51314
-7.54178
-7.57241
-7.60484
-7.6389
-7.67442
-7.71127
-7.7493
-7.7884
-7.82846
-7.86937
-7.91099
-7.9532
-7.99583
-8.03871
-8.08163
-8.12439
-8.16677
-8.20852
-8.24941
-8.2892
-8.32764
-8.36449
-8.39951
-8.43247
-8.46313
-8.49126
-8.51664
-8.53905
-8.5583
-8.57422
-8.58663
-8.5954
-8.6004
-8.60154
-8.59872
-8.59188
-8.58095
-8.56587
-8.54658
-8.52306
-8.49526
-8.46315
-8.42671
-8.38588
-8.34056
-8.29073
-8.23627
-8.17714
-8.11327
-8.04455
-7.97087
-7.8921
-7.80813
-7.71885
-7.62416
-7.52395
-7.41814
-7.30665
-7.18941
-7.06635
-6.93745
-6.80268
-6.66204
-6.51555
-6.36326
-6.20522
-6.04153
-5.87227
-5.69757
-5.51757
-5.33239
-5.14221
-4.9472
-4.74755
-4.54343
-4.33506
-4.12262
-3.9063
-3.68629
-3.46278
-3.23596
-3.00602
-2.77314
-2.53747
-2.29921
-2.05855
-1.81567
-1.57075
-1.32396
-1.07546
-0.825443
-0.574105
-0.321632
-0.0681841
0.186062
0.440951
0.696291
0.95192
1.20765
1.46331
1.7187
1.97364
2.22796
2.48148
2.73403
2.98548
3.23565
3.4844
3.73152
3.97687
4.22028
4.46161
4.70072
4.93749
5.17179
5.40351
5.63253
5.85876
6.08207
6.30234
6.51946
6.73331
6.94379
7.15081
7.35427
7.55406
7.7501
7.94227
8.13047
8.31456
8.49446
8.66981
8.8411
9.00479
9.17296
9.29271
-7.41221
-7.41475
-7.42175
-7.42977
-7.4376
-7.44525
-7.45271
-7.45987
-7.46663
-7.47287
-7.47846
-7.4833
-7.48728
-7.49034
-7.49239
-7.4934
-7.49333
-7.49216
-7.48987
-7.48647
-7.48189
-7.47608
-7.46914
-7.46133
-7.45284
-7.4439
-7.43496
-7.42649
-7.41883
-7.41196
-7.40564
-7.3998
-7.39488
-7.39189
-7.3917
-7.39483
-7.40166
-7.4122
-7.42618
-7.44343
-7.46368
-7.48666
-7.5121
-7.53975
-7.56939
-7.60081
-7.63383
-7.66827
-7.70398
-7.74082
-7.77869
-7.81745
-7.857
-7.89723
-7.93803
-7.97928
-8.02085
-8.06259
-8.10433
-8.1459
-8.1871
-8.22773
-8.26758
-8.30641
-8.344
-8.38009
-8.41446
-8.44684
-8.47699
-8.50466
-8.52961
-8.55163
-8.57051
-8.58604
-8.59807
-8.60644
-8.61103
-8.61176
-8.60853
-8.60129
-8.58998
-8.57455
-8.55494
-8.53112
-8.50308
-8.47079
-8.43423
-8.39336
-8.34811
-8.29836
-8.24408
-8.18519
-8.12158
-8.05318
-7.97983
-7.90144
-7.81785
-7.72898
-7.63467
-7.53486
-7.42941
-7.31827
-7.20133
-7.07856
-6.94989
-6.81532
-6.67483
-6.52846
-6.37624
-6.21825
-6.05457
-5.8853
-5.71058
-5.53052
-5.34529
-5.15504
-4.95998
-4.76025
-4.5561
-4.34769
-4.13525
-3.91894
-3.69897
-3.47553
-3.2488
-3.01896
-2.7862
-2.55067
-2.31257
-2.07208
-1.82938
-1.58466
-1.33807
-1.08978
-0.839986
-0.588881
-0.336622
-0.0833909
0.170669
0.425358
0.680524
0.935971
1.19154
1.44703
1.70226
1.95704
2.21121
2.46459
2.71704
2.96838
3.21848
3.46715
3.71421
3.95949
4.20284
4.44411
4.68317
4.9199
5.15418
5.38589
5.61492
5.84117
6.06451
6.2848
6.50194
6.71581
6.92631
7.13336
7.33684
7.53667
7.73273
7.92491
8.11307
8.29707
8.47678
8.65179
8.82254
8.9852
9.15274
9.26769
-7.40896
-7.41288
-7.42004
-7.42752
-7.43501
-7.44248
-7.44983
-7.45696
-7.46376
-7.47008
-7.47581
-7.48081
-7.48498
-7.48822
-7.49047
-7.49167
-7.49177
-7.49075
-7.48859
-7.48528
-7.4808
-7.4752
-7.46867
-7.46147
-7.45388
-7.44621
-7.43867
-7.43133
-7.42426
-7.41756
-7.41138
-7.40612
-7.4024
-7.401
-7.40248
-7.40722
-7.41543
-7.42715
-7.44221
-7.46042
-7.48152
-7.50525
-7.53132
-7.5595
-7.58956
-7.62132
-7.65457
-7.68917
-7.72496
-7.76181
-7.7996
-7.8382
-7.87751
-7.91743
-7.95785
-7.99867
-8.03976
-8.08099
-8.12221
-8.16327
-8.20399
-8.24417
-8.28361
-8.32209
-8.35937
-8.39521
-8.42936
-8.46155
-8.49151
-8.51898
-8.54371
-8.56547
-8.58404
-8.59923
-8.61086
-8.6188
-8.62294
-8.62319
-8.61949
-8.61177
-8.6
-8.58412
-8.56409
-8.53989
-8.51151
-8.47894
-8.44219
-8.40121
-8.3559
-8.30623
-8.25204
-8.1933
-8.1299
-8.06173
-7.98866
-7.91055
-7.82728
-7.73872
-7.64473
-7.54521
-7.44004
-7.32914
-7.21241
-7.08981
-6.96126
-6.82676
-6.68631
-6.53993
-6.38766
-6.22958
-6.06579
-5.89638
-5.7215
-5.54127
-5.35585
-5.16542
-4.97017
-4.77028
-4.56597
-4.35745
-4.14491
-3.92854
-3.70853
-3.48508
-3.25837
-3.02858
-2.79589
-2.56045
-2.32246
-2.08211
-1.83956
-1.595
-1.34859
-1.10049
-0.850905
-0.600012
-0.347957
-0.0949169
0.158953
0.413458
0.668442
0.923715
1.1791
1.43442
1.68947
1.94408
2.19809
2.45133
2.70364
2.95487
3.20488
3.45349
3.70046
3.94565
4.18891
4.4301
4.66909
4.90576
5.13999
5.37167
5.60069
5.82695
6.0503
6.27059
6.48773
6.70159
6.9121
7.11915
7.32265
7.5225
7.71858
7.91074
8.09884
8.28271
8.4622
8.63683
8.80702
8.96871
9.13564
9.24654
-7.39933
-7.40391
-7.41078
-7.41823
-7.42591
-7.43357
-7.4411
-7.44844
-7.45549
-7.46211
-7.46816
-7.4735
-7.47799
-7.48155
-7.48408
-7.48554
-7.48589
-7.4851
-7.48318
-7.48014
-7.47604
-7.47102
-7.46527
-7.45899
-7.4523
-7.44537
-7.43836
-7.43137
-7.42456
-7.41821
-7.41275
-7.40862
-7.40627
-7.40624
-7.40902
-7.41493
-7.42413
-7.43666
-7.45242
-7.4712
-7.49276
-7.51685
-7.54322
-7.57164
-7.60191
-7.63384
-7.66726
-7.702
-7.73792
-7.77487
-7.81273
-7.85139
-7.89075
-7.9307
-7.97115
-8.01198
-8.05308
-8.09434
-8.1356
-8.17672
-8.21753
-8.25781
-8.29736
-8.33596
-8.37337
-8.40934
-8.4436
-8.47588
-8.50589
-8.53336
-8.55801
-8.57961
-8.59795
-8.61281
-8.62403
-8.6315
-8.63511
-8.63481
-8.63054
-8.62226
-8.60993
-8.59352
-8.57298
-8.54829
-8.51947
-8.48655
-8.44953
-8.40838
-8.36303
-8.31331
-8.25919
-8.20055
-8.1373
-8.06931
-7.99647
-7.91861
-7.83561
-7.7473
-7.65357
-7.55427
-7.44931
-7.33858
-7.22199
-7.09947
-6.97096
-6.83645
-6.69593
-6.54945
-6.39703
-6.23878
-6.07477
-5.90514
-5.72999
-5.54951
-5.36381
-5.17312
-4.9776
-4.77749
-4.57297
-4.36428
-4.15159
-3.93513
-3.71504
-3.49156
-3.26484
-3.03507
-2.80242
-2.56707
-2.32917
-2.08892
-1.84651
-1.60211
-1.35588
-1.10798
-0.858607
-0.607914
-0.356072
-0.103221
0.15044
0.40476
0.659544
0.914632
1.16982
1.42495
1.67981
1.93424
2.18808
2.44116
2.69333
2.94443
3.19436
3.44289
3.68976
3.93484
4.17798
4.41907
4.65796
4.89456
5.12872
5.36035
5.58935
5.81561
6.03897
6.25925
6.47637
6.69022
6.90072
7.10776
7.31126
7.51112
7.7072
7.89933
8.08735
8.27108
8.45032
8.62455
8.79419
8.95496
9.12129
9.22887
-7.38177
-7.38635
-7.39338
-7.4016
-7.40998
-7.41812
-7.42602
-7.4337
-7.44116
-7.44825
-7.4548
-7.46061
-7.46553
-7.46947
-7.47239
-7.47422
-7.47494
-7.47456
-7.47309
-7.47056
-7.46706
-7.46269
-7.45757
-7.45184
-7.44564
-7.43909
-7.43234
-7.4256
-7.41921
-7.41349
-7.4088
-7.40554
-7.40421
-7.40527
-7.40911
-7.416
-7.42607
-7.43933
-7.45565
-7.47486
-7.49675
-7.52108
-7.54765
-7.57626
-7.60671
-7.63883
-7.67245
-7.7074
-7.74353
-7.78072
-7.81884
-7.8578
-7.89749
-7.93781
-7.97864
-8.01986
-8.06137
-8.10305
-8.14476
-8.18634
-8.22762
-8.2684
-8.30846
-8.34757
-8.38547
-8.42189
-8.45655
-8.48916
-8.51941
-8.54701
-8.57167
-8.59315
-8.61123
-8.62572
-8.63645
-8.64331
-8.64626
-8.64525
-8.64029
-8.63134
-8.61838
-8.60136
-8.58022
-8.55494
-8.52558
-8.49224
-8.45494
-8.41363
-8.36816
-8.31848
-8.26438
-8.20582
-8.14269
-8.07488
-8.00225
-7.92464
-7.84187
-7.7538
-7.66028
-7.56118
-7.45639
-7.3458
-7.22931
-7.10683
-6.97832
-6.84374
-6.70311
-6.55646
-6.40386
-6.24537
-6.08111
-5.9112
-5.73576
-5.55495
-5.36894
-5.17794
-4.98214
-4.78177
-4.57704
-4.36817
-4.15535
-3.93878
-3.71862
-3.49509
-3.26837
-3.03863
-2.80603
-2.57075
-2.33295
-2.09282
-1.85055
-1.60634
-1.36032
-1.11265
-0.863503
-0.613037
-0.361412
-0.108781
0.144665
0.398768
0.653342
0.908214
1.16319
1.4181
1.67275
1.92698
2.18064
2.43355
2.68556
2.93653
3.18639
3.43486
3.6816
3.92653
4.16954
4.4105
4.64928
4.88578
5.11987
5.35144
5.58041
5.80669
6.03005
6.2503
6.46739
6.68121
6.89169
7.09872
7.30222
7.50209
7.69818
7.89028
8.0782
8.26176
8.44075
8.61458
8.78368
8.9436
9.1093
9.21427
-7.35587
-7.36029
-7.36824
-7.37787
-7.38726
-7.39596
-7.40429
-7.4125
-7.42064
-7.42851
-7.43578
-7.44222
-7.44769
-7.45213
-7.45553
-7.45785
-7.4591
-7.45925
-7.45831
-7.45634
-7.45337
-7.4495
-7.44482
-7.43945
-7.43349
-7.42714
-7.42062
-7.41422
-7.40822
-7.40295
-7.39884
-7.39634
-7.3959
-7.39791
-7.4027
-7.41047
-7.42131
-7.43519
-7.45199
-7.47156
-7.49372
-7.51827
-7.54503
-7.57385
-7.60453
-7.63693
-7.67085
-7.70614
-7.74264
-7.78022
-7.81877
-7.8582
-7.8984
-7.93926
-7.98067
-8.02254
-8.06474
-8.10716
-8.14963
-8.192
-8.23408
-8.27568
-8.31656
-8.35646
-8.39512
-8.43224
-8.46752
-8.50062
-8.53119
-8.55888
-8.58342
-8.60459
-8.62222
-8.63613
-8.64613
-8.65216
-8.65424
-8.6524
-8.64666
-8.63702
-8.62343
-8.60581
-8.58407
-8.55816
-8.5282
-8.4944
-8.45682
-8.41537
-8.3699
-8.32019
-8.26615
-8.20767
-8.14467
-8.07707
-8.00467
-7.92733
-7.84481
-7.75699
-7.66368
-7.5648
-7.46018
-7.34974
-7.23335
-7.11093
-6.9824
-6.84776
-6.70702
-6.56021
-6.40742
-6.2487
-6.0842
-5.91401
-5.73828
-5.55714
-5.37084
-5.17954
-4.98349
-4.78288
-4.57797
-4.36894
-4.15601
-3.93934
-3.71913
-3.49558
-3.26888
-3.03918
-2.80667
-2.57152
-2.33387
-2.09392
-1.85189
-1.60793
-1.36216
-1.11477
-0.865899
-0.615714
-0.364346
-0.111994
0.141197
0.39503
0.649349
0.903954
1.15867
1.41332
1.66772
1.92173
2.17516
2.42787
2.67969
2.9305
3.18038
3.42886
3.67547
3.92023
4.16308
4.4039
4.64258
4.87897
5.11299
5.3445
5.57346
5.79979
6.02318
6.24339
6.46043
6.67422
6.88468
7.0917
7.29519
7.49509
7.6912
7.88325
8.07107
8.25445
8.43317
8.60661
8.77518
8.93432
9.09935
9.2024
-7.32282
-7.32755
-7.33702
-7.34846
-7.35896
-7.3684
-7.37751
-7.38643
-7.39527
-7.40404
-7.41238
-7.41981
-7.42598
-7.43089
-7.43477
-7.43765
-7.43945
-7.44015
-7.43974
-7.43824
-7.43569
-7.43215
-7.4277
-7.42248
-7.41665
-7.41043
-7.40403
-7.39777
-7.39199
-7.38711
-7.38354
-7.38172
-7.38205
-7.38489
-7.39047
-7.39896
-7.41041
-7.42477
-7.44197
-7.46186
-7.48429
-7.50908
-7.53609
-7.56514
-7.59609
-7.62876
-7.66299
-7.69861
-7.73551
-7.77355
-7.81263
-7.85263
-7.89345
-7.93499
-7.97716
-8.01984
-8.06293
-8.10629
-8.14975
-8.19314
-8.23624
-8.27883
-8.32065
-8.36145
-8.40091
-8.43872
-8.47454
-8.50799
-8.53867
-8.5662
-8.59031
-8.61085
-8.62774
-8.64077
-8.64971
-8.65456
-8.65557
-8.65288
-8.64646
-8.6363
-8.62231
-8.60433
-8.5822
-8.5558
-8.52527
-8.49103
-8.4532
-8.41162
-8.36607
-8.31638
-8.26232
-8.20388
-8.14102
-8.07361
-8.00148
-7.9244
-7.84214
-7.75452
-7.66144
-7.56275
-7.45833
-7.34806
-7.23179
-7.10942
-6.98089
-6.84618
-6.70532
-6.55837
-6.40539
-6.24648
-6.08173
-5.91128
-5.73528
-5.55391
-5.36738
-5.17588
-4.97963
-4.77885
-4.57376
-4.36455
-4.15143
-3.9346
-3.71428
-3.49066
-3.26395
-3.03432
-2.80196
-2.56705
-2.32975
-2.09022
-1.84859
-1.60501
-1.35963
-1.11264
-0.864174
-0.614383
-0.363419
-0.111471
0.141311
0.394742
0.648648
0.90284
1.15714
1.41138
1.66538
1.919
2.17206
2.42439
2.67584
2.92631
3.17605
3.42447
3.67086
3.9154
4.15806
4.39872
4.63725
4.87354
5.10746
5.33891
5.5679
5.79441
6.0179
6.23808
6.45507
6.66884
6.87928
7.08631
7.28982
7.48978
7.68596
7.87799
8.06569
8.24889
8.42735
8.60039
8.76847
8.92686
9.09117
9.19296
-7.2856
-7.29123
-7.30276
-7.3164
-7.32807
-7.33783
-7.34734
-7.35732
-7.36745
-7.37736
-7.38676
-7.39521
-7.40216
-7.40761
-7.41196
-7.41535
-7.41769
-7.41888
-7.41891
-7.41776
-7.41546
-7.41208
-7.40771
-7.40249
-7.3966
-7.39028
-7.38381
-7.37757
-7.37193
-7.36733
-7.36418
-7.36289
-7.36379
-7.3672
-7.37331
-7.38225
-7.39406
-7.40872
-7.42614
-7.44622
-7.46882
-7.49378
-7.52096
-7.55021
-7.58138
-7.61428
-7.64876
-7.68469
-7.72197
-7.76046
-7.80005
-7.84066
-7.88217
-7.92448
-7.96749
-8.0111
-8.05514
-8.09946
-8.14388
-8.18821
-8.2322
-8.27562
-8.31819
-8.35964
-8.39964
-8.43784
-8.47389
-8.50738
-8.53782
-8.56469
-8.58781
-8.60727
-8.62312
-8.635
-8.64244
-8.64555
-8.64511
-8.6415
-8.63459
-8.62423
-8.61022
-8.59232
-8.57033
-8.54425
-8.51429
-8.48054
-8.443
-8.40153
-8.35601
-8.30621
-8.25214
-8.1937
-8.13094
-8.06367
-7.99173
-7.91482
-7.83276
-7.74533
-7.65243
-7.55391
-7.44966
-7.3395
-7.22332
-7.10098
-6.9724
-6.83759
-6.69659
-6.54946
-6.39625
-6.23708
-6.07203
-5.90127
-5.72494
-5.54329
-5.35647
-5.16473
-4.96824
-4.76725
-4.56193
-4.3525
-4.13915
-3.92214
-3.70167
-3.47797
-3.25123
-3.02165
-2.78944
-2.55478
-2.31784
-2.07874
-1.83754
-1.59437
-1.34944
-1.1029
-0.854897
-0.605566
-0.355099
-0.103633
0.148642
0.401573
0.65496
0.908634
1.16241
1.41611
1.66959
1.92267
2.17519
2.42697
2.6778
2.92755
3.17607
3.42329
3.66903
3.91313
4.15542
4.39576
4.63401
4.87003
5.10369
5.3349
5.56375
5.79031
6.01384
6.23394
6.45088
6.66462
6.87506
7.08211
7.28566
7.4858
7.68216
7.87419
8.06179
8.24482
8.42302
8.5957
8.76331
8.92101
9.08455
9.18573
-7.24781
-7.25468
-7.26872
-7.28432
-7.29635
-7.30657
-7.31719
-7.32832
-7.33953
-7.3505
-7.36093
-7.37033
-7.37806
-7.38413
-7.38906
-7.39302
-7.39588
-7.39752
-7.39789
-7.39697
-7.39477
-7.39136
-7.38684
-7.38137
-7.37518
-7.36856
-7.36182
-7.35537
-7.34961
-7.34498
-7.34188
-7.34067
-7.34167
-7.34517
-7.35134
-7.3603
-7.37209
-7.3867
-7.40406
-7.42408
-7.44665
-7.47165
-7.49893
-7.52833
-7.55968
-7.5928
-7.62755
-7.66382
-7.70149
-7.74045
-7.78058
-7.82176
-7.86389
-7.90686
-7.95056
-7.99487
-8.03962
-8.08464
-8.12972
-8.17466
-8.21921
-8.26312
-8.30609
-8.34783
-8.38802
-8.42631
-8.46232
-8.49559
-8.52535
-8.55077
-8.57176
-8.58915
-8.60363
-8.61509
-8.62295
-8.62677
-8.62653
-8.62259
-8.61524
-8.60448
-8.59015
-8.57199
-8.54988
-8.52398
-8.49449
-8.46114
-8.42379
-8.38236
-8.33674
-8.28694
-8.23287
-8.17457
-8.11195
-8.04488
-7.97313
-7.89649
-7.81468
-7.72756
-7.63497
-7.53677
-7.43279
-7.32289
-7.20691
-7.08472
-6.95625
-6.82151
-6.68053
-6.53334
-6.38005
-6.22073
-6.05551
-5.88453