/*--------------------------------*- C++ -*----------------------------------*\
| =========                 |                                                 |
| \\      /  F ield         | OpenFOAM: The Open Source CFD Toolbox           |
|  \\    /   O peration     | Version:  v2012                                 |
|   \\  /    A nd           | Website:  www.openfoam.com                      |
|    \\/     M anipulation  |                                                 |
\*---------------------------------------------------------------------------*/
FoamFile
{
    version     2.0;
    format      ascii;
    class       volScalarField;
    location    "1300";
    object      p;
}
// * * * * * * * * * * * * * * * * * * * * * * * * * * * * * * * * * * * * * //

dimensions      [0 2 -2 0 0 0 0];


internalField   nonuniform List<scalar> 
12225
(
-4.41224
-5.2931
-5.67954
-5.79422
-5.91269
-6.0574
-6.18827
-6.29602
-6.38828
-6.4729
-6.55495
-6.63515
-6.71409
-6.79368
-6.87648
-6.96686
-7.06783
-7.1904
-4.69558
-5.34722
-5.67147
-5.78165
-5.89679
-6.03723
-6.16596
-6.27351
-6.36741
-6.45466
-6.53819
-6.61889
-6.69773
-6.7766
-6.85767
-6.94405
-7.03406
-7.12457
-4.9104
-5.34453
-5.64652
-5.78072
-5.90142
-6.03828
-6.16407
-6.27002
-6.36332
-6.45019
-6.5325
-6.61149
-6.68832
-6.76457
-6.84152
-6.92022
-6.99599
-7.05848
-5.05722
-5.36941
-5.65527
-5.79986
-5.91535
-6.04225
-6.16187
-6.26469
-6.35608
-6.44121
-6.52197
-6.59941
-6.67453
-6.74827
-6.82115
-6.89268
-6.95793
-7.00882
-5.18119
-5.4163
-5.67181
-5.81658
-5.92768
-6.04717
-6.16203
-6.2624
-6.35206
-6.43554
-6.51475
-6.59041
-6.66328
-6.73387
-6.80218
-6.86703
-6.92448
-6.96878
-5.2952
-5.46889
-5.68775
-5.83025
-5.93955
-6.05306
-6.16305
-6.26066
-6.34834
-6.43001
-6.50736
-6.5809
-6.65117
-6.71839
-6.78225
-6.8414
-6.89289
-6.93268
-5.39958
-5.52486
-5.70785
-5.84485
-5.95179
-6.05905
-6.16357
-6.258
-6.34346
-6.42313
-6.4984
-6.56967
-6.63724
-6.70115
-6.76093
-6.81533
-6.86229
-6.89929
-5.48015
-5.57489
-5.73009
-5.85917
-5.96279
-6.06452
-6.16407
-6.25538
-6.33864
-6.41632
-6.48958
-6.55873
-6.62391
-6.68506
-6.74167
-6.79273
-6.8368
-6.87222
-5.54566
-5.62005
-5.75255
-5.87311
-5.97314
-6.06991
-6.16486
-6.25313
-6.33419
-6.40988
-6.48117
-6.5483
-6.6113
-6.67005
-6.72407
-6.77256
-6.81454
-6.84893
-5.61087
-5.66878
-5.7794
-5.8897
-5.98512
-6.0765
-6.16634
-6.25099
-6.32939
-6.40266
-6.47163
-6.53644
-6.59703
-6.65324
-6.70467
-6.75074
-6.79086
-6.82439
-5.67493
-5.71976
-5.81045
-5.90913
-5.99875
-6.08436
-6.16865
-6.2491
-6.32431
-6.39476
-6.46104
-6.52322
-6.5812
-6.63478
-6.68367
-6.7275
-6.76597
-6.79876
-5.73681
-5.77151
-5.84492
-5.93128
-6.01393
-6.09343
-6.17183
-6.24754
-6.31904
-6.38626
-6.4495
-6.50879
-6.56398
-6.6149
-6.66134
-6.7031
-6.74009
-6.77219
-5.79539
-5.82241
-5.88141
-5.95558
-6.03036
-6.10343
-6.17574
-6.24628
-6.3136
-6.3772
-6.43713
-6.49332
-6.54562
-6.59388
-6.63798
-6.67782
-6.71346
-6.74488
-5.84927
-5.87054
-5.918
-5.98086
-6.04739
-6.11383
-6.18002
-6.24516
-6.30794
-6.36764
-6.42404
-6.47701
-6.5264
-6.57206
-6.61393
-6.65201
-6.68638
-6.71711
-5.89665
-5.91368
-5.95222
-6.00529
-6.06384
-6.12372
-6.18396
-6.24372
-6.30186
-6.35753
-6.41035
-6.4601
-6.50662
-6.5498
-6.58959
-6.62603
-6.65922
-6.68926
-5.93509
-5.94908
-5.98105
-6.0263
-6.07782
-6.13168
-6.18647
-6.24123
-6.29492
-6.3467
-6.39607
-6.44276
-6.4866
-6.52749
-6.56539
-6.60034
-6.63244
-6.6618
-5.96112
-5.9731
-6.00071
-6.04045
-6.0866
-6.1356
-6.18589
-6.23646
-6.28634
-6.33472
-6.38106
-6.42507
-6.46657
-6.50548
-6.54175
-6.57543
-6.6066
-6.63535
-5.96904
-5.98018
-6.00597
-6.04323
-6.08665
-6.13288
-6.18045
-6.2284
-6.2758
-6.32187
-6.36611
-6.40825
-6.4481
-6.4856
-6.52072
-6.55349
-6.584
-6.61233
-5.95836
-5.96991
-5.99649
-6.03443
-6.07797
-6.12381
-6.1707
-6.21785
-6.26435
-6.30947
-6.35275
-6.39396
-6.43299
-6.46975
-6.50426
-6.53655
-6.56671
-6.59485
-5.93385
-5.9469
-5.97664
-6.01793
-6.06378
-6.11095
-6.1587
-6.20643
-6.25322
-6.29837
-6.34152
-6.38253
-6.4213
-6.45782
-6.49209
-6.52421
-6.55425
-6.58235
-5.89853
-5.91441
-5.9499
-5.99695
-6.04662
-6.09619
-6.14582
-6.19507
-6.24292
-6.2887
-6.33224
-6.37347
-6.41236
-6.44891
-6.48317
-6.51527
-6.54531
-6.57345
-5.85406
-5.87462
-5.91907
-5.97407
-6.02838
-6.08087
-6.13309
-6.18448
-6.2338
-6.28055
-6.32478
-6.3665
-6.40569
-6.44241
-6.47677
-6.50891
-6.539
-6.56721
-5.80109
-5.82924
-5.88672
-5.9514
-6.01035
-6.06599
-6.12128
-6.17513
-6.22606
-6.27393
-6.319
-6.36134
-6.40094
-6.43788
-6.47234
-6.50454
-6.53465
-6.56291
-5.73947
-5.77992
-5.85551
-5.93051
-5.99324
-6.05212
-6.11091
-6.16729
-6.21976
-6.26874
-6.31471
-6.35772
-6.39772
-6.43487
-6.4694
-6.5016
-6.53169
-6.55997
-5.66834
-5.72841
-5.82825
-5.91273
-5.97745
-6.03947
-6.10198
-6.16078
-6.21465
-6.26471
-6.31161
-6.35527
-6.39564
-6.43291
-6.46742
-6.49949
-6.52943
-6.55761
-5.587
-5.67632
-5.80621
-5.89839
-5.96354
-6.0284
-6.09417
-6.15482
-6.20979
-6.2609
-6.30877
-6.35317
-6.39398
-6.43147
-6.46599
-6.49796
-6.5278
-6.55606
-5.49598
-5.6276
-5.78706
-5.88305
-5.94948
-6.0186
-6.08761
-6.1496
-6.20532
-6.25726
-6.30588
-6.35077
-6.39181
-6.42928
-6.46356
-6.49515
-6.52457
-6.55258
-5.38699
-5.5958
-5.77493
-5.8623
-5.92941
-6.00555
-6.07973
-6.14452
-6.20243
-6.25652
-6.307
-6.35327
-6.39522
-6.43316
-6.46754
-6.49899
-6.5283
-6.5571
-5.21439
-5.58795
-5.7987
-5.86621
-5.92452
-6.00112
-6.07561
-6.13957
-6.19716
-6.25168
-6.30283
-6.34964
-6.39194
-6.42988
-6.46369
-6.49402
-6.52207
-6.54907
-4.9536
-5.51388
-5.7901
-5.86522
-5.9277
-6.01023
-6.08842
-6.15393
-6.21262
-6.26827
-6.32042
-6.36793
-6.41053
-6.44821
-6.4805
-6.50791
-6.53216
-6.5525
-7.55597
-7.55612
-7.55622
-7.55634
-7.55633
-7.55535
-7.55233
-7.54743
-7.54216
-7.53795
-7.53641
-7.53847
-7.54386
-7.55164
-7.56074
-7.57015
-7.57897
-7.58648
-7.59209
-7.5955
-7.59697
-7.59702
-7.59596
-7.59403
-7.59165
-7.58927
-7.58733
-7.58606
-7.58549
-7.58539
-7.58537
-7.58515
-7.58467
-7.58403
-7.58336
-7.58275
-7.58214
-7.58124
-7.57969
-7.57738
-7.57477
-7.57262
-7.57187
-7.573
-7.57545
-7.57818
-7.5804
-7.58192
-7.58301
-7.58418
-7.58567
-7.58782
-7.59237
-7.59886
-7.60345
-7.60289
-7.59804
-7.59402
-7.59864
-7.61783
-7.65454
-7.70875
-7.77807
-7.85893
-7.94706
-8.03799
-8.12768
-8.21313
-8.29245
-8.36453
-8.42884
-8.48528
-8.53399
-8.57529
-8.60951
-8.63701
-8.65812
-8.67312
-8.68224
-8.68568
-8.68358
-8.67605
-8.66318
-8.64501
-8.62158
-8.5929
-8.55898
-8.51979
-8.47533
-8.42557
-8.37048
-8.31002
-8.24416
-8.17286
-8.09609
-8.01382
-7.92604
-7.83278
-7.73415
-7.63015
-7.52046
-7.40479
-7.28326
-7.156
-7.02306
-6.88447
-6.74027
-6.59049
-6.43518
-6.27438
-6.10817
-5.93662
-5.7598
-5.57782
-5.39077
-5.19877
-5.00195
-4.80042
-4.59434
-4.38385
-4.16911
-3.95028
-3.72753
-3.50104
-3.27101
-3.03763
-2.8011
-2.56165
-2.31956
-2.07504
-1.82809
-1.5788
-1.32748
-1.07442
-0.819868
-0.564023
-0.307115
-0.0493689
0.208996
0.467765
0.726719
0.985648
1.24434
1.5026
1.76023
2.01703
2.27281
2.52741
2.78064
3.03234
3.28232
3.53044
3.77652
4.02043
4.26202
4.50116
4.73776
4.9717
5.2029
5.43128
5.65676
5.87925
6.09869
6.31499
6.52808
6.7379
6.94437
7.14744
7.34705
7.54312
7.73561
7.92442
8.10947
8.29069
8.468
8.64137
8.8109
8.97654
9.1413
9.29592
-7.55756
-7.55783
-7.55845
-7.55932
-7.55982
-7.55925
-7.55694
-7.55316
-7.54957
-7.54798
-7.54922
-7.55333
-7.55988
-7.56807
-7.577
-7.58588
-7.59405
-7.60105
-7.6066
-7.6105
-7.61247
-7.61229
-7.61019
-7.60661
-7.60214
-7.59746
-7.59321
-7.58989
-7.58768
-7.58633
-7.58538
-7.58441
-7.58348
-7.58295
-7.58288
-7.58296
-7.58291
-7.58241
-7.58116
-7.57914
-7.57694
-7.57551
-7.57561
-7.57732
-7.57984
-7.5821
-7.58353
-7.58377
-7.58334
-7.58375
-7.58382
-7.58177
-7.57974
-7.58276
-7.59367
-7.60364
-7.60511
-7.60443
-7.61311
-7.63792
-7.68174
-7.74359
-7.82003
-7.90599
-7.99616
-8.08612
-8.17252
-8.25322
-8.32705
-8.39346
-8.45237
-8.50393
-8.54842
-8.58615
-8.61745
-8.6426
-8.66185
-8.67541
-8.68345
-8.6861
-8.68344
-8.67556
-8.66248
-8.64424
-8.62086
-8.59232
-8.55862
-8.51974
-8.47566
-8.42634
-8.37175
-8.31186
-8.24662
-8.17599
-8.09993
-8.01839
-7.93131
-7.83863
-7.74024
-7.63606
-7.52622
-7.41092
-7.29008
-7.16361
-7.0315
-6.89375
-6.75039
-6.60145
-6.44698
-6.28702
-6.12164
-5.95091
-5.77491
-5.59374
-5.40749
-5.21628
-5.02022
-4.81946
-4.61411
-4.40434
-4.1903
-3.97214
-3.75004
-3.52418
-3.29472
-3.06186
-2.82577
-2.58663
-2.34462
-2.09996
-1.85302
-1.60402
-1.35306
-1.10035
-0.846118
-0.590566
-0.333921
-0.0764097
0.18175
0.440342
0.699149
0.957958
1.21656
1.47476
1.73235
1.98914
2.24494
2.49957
2.75287
3.00465
3.25476
3.50301
3.74926
3.99335
4.23514
4.47451
4.71133
4.94552
5.17697
5.40561
5.63135
5.85412
6.07384
6.29043
6.50382
6.71395
6.92073
7.12411
7.32404
7.52045
7.71328
7.90247
8.08793
8.26966
8.44761
8.62172
8.79226
8.95857
9.12534
9.27936
-7.55917
-7.55921
-7.55939
-7.5597
-7.56005
-7.56014
-7.56004
-7.56043
-7.56217
-7.56579
-7.57128
-7.5783
-7.58637
-7.59491
-7.60337
-7.61126
-7.61821
-7.62394
-7.62829
-7.63114
-7.63243
-7.63209
-7.6302
-7.62696
-7.62256
-7.61726
-7.61136
-7.60522
-7.59922
-7.59373
-7.58905
-7.58543
-7.58302
-7.58178
-7.58129
-7.58098
-7.58042
-7.57947
-7.57811
-7.57664
-7.57587
-7.57665
-7.57918
-7.58268
-7.58574
-7.58724
-7.58665
-7.58307
-7.57751
-7.57294
-7.57313
-7.57705
-7.57991
-7.5857
-7.60017
-7.62128
-7.6452
-7.67234
-7.70664
-7.75067
-7.80465
-7.86728
-7.93641
-8.00944
-8.08379
-8.15723
-8.22801
-8.29487
-8.35697
-8.41378
-8.46502
-8.51058
-8.55043
-8.58464
-8.6133
-8.63652
-8.65438
-8.66698
-8.6744
-8.67667
-8.67386
-8.66598
-8.65305
-8.63507
-8.61204
-8.58393
-8.55073
-8.51242
-8.46895
-8.4203
-8.36643
-8.30729
-8.24285
-8.17306
-8.09788
-8.01726
-7.93118
-7.83957
-7.74235
-7.63942
-7.53081
-7.41662
-7.29685
-7.17147
-7.04047
-6.90385
-6.76163
-6.61383
-6.4605
-6.30169
-6.13745
-5.96785
-5.79299
-5.61293
-5.4278
-5.23768
-5.04271
-4.843
-4.6387
-4.42996
-4.21691
-3.99973
-3.77858
-3.55363
-3.32507
-3.09308
-2.85785
-2.61957
-2.37842
-2.1346
-1.88839
-1.64004
-1.38969
-1.13757
-0.883886
-0.628847
-0.372679
-0.115603
0.142163
0.4004
0.658892
0.917425
1.17579
1.43379
1.69121
1.94787
2.20358
2.45816
2.71143
2.96321
3.21335
3.46167
3.70802
3.95223
4.19417
4.4337
4.67071
4.90509
5.13675
5.36559
5.59154
5.81452
6.03445
6.25126
6.46487
6.67519
6.88218
7.08575
7.28586
7.48244
7.67545
7.8648
8.05046
8.23232
8.41039
8.5847
8.75573
8.92224
9.0916
9.24187
-7.56017
-7.55988
-7.55948
-7.5594
-7.56048
-7.56338
-7.56806
-7.57418
-7.58138
-7.58937
-7.59781
-7.60638
-7.61483
-7.62288
-7.6303
-7.63685
-7.64234
-7.64664
-7.64962
-7.65125
-7.65149
-7.65032
-7.64779
-7.64402
-7.63911
-7.63319
-7.62638
-7.61884
-7.61076
-7.60243
-7.59426
-7.58673
-7.58026
-7.5751
-7.57118
-7.56822
-7.5659
-7.56412
-7.56332
-7.5644
-7.56792
-7.57332
-7.57913
-7.58375
-7.58528
-7.58346
-7.57959
-7.57554
-7.573
-7.5727
-7.57742
-7.58889
-7.6054
-7.62607
-7.65219
-7.68393
-7.72033
-7.76028
-7.80396
-7.85194
-7.90442
-7.96108
-8.02108
-8.08323
-8.14617
-8.20853
-8.26913
-8.32698
-8.38131
-8.43157
-8.4774
-8.51854
-8.55485
-8.58628
-8.61279
-8.63436
-8.65101
-8.66275
-8.66957
-8.67149
-8.66851
-8.66062
-8.6478
-8.63005
-8.60733
-8.57962
-8.54689
-8.5091
-8.46621
-8.4182
-8.36501
-8.30659
-8.24291
-8.17391
-8.09954
-8.01975
-7.9345
-7.84373
-7.7474
-7.64546
-7.53791
-7.42478
-7.30607
-7.18176
-7.05183
-6.91629
-6.77516
-6.62846
-6.47623
-6.31851
-6.15537
-5.98688
-5.8131
-5.63413
-5.45006
-5.261
-5.06708
-4.8684
-4.66511
-4.45736
-4.24529
-4.02905
-3.80882
-3.58478
-3.35709
-3.12594
-2.89152
-2.65403
-2.41367
-2.17062
-1.92514
-1.67744
-1.42771
-1.17616
-0.923012
-0.668474
-0.412776
-0.156132
0.101241
0.359124
0.6173
0.875554
1.13368
1.39147
1.64873
1.90525
2.16086
2.41537
2.6686
2.92038
3.17054
3.41892
3.66535
3.90967
4.15173
4.39142
4.62859
4.86315
5.095
5.32403
5.55018
5.77336
5.9935
6.21051
6.42431
6.63484
6.84201
7.04575
7.24602
7.44275
7.63588
7.82535
8.01113
8.19315
8.37144
8.54595
8.71727
8.88361
9.05367
9.198
-7.56231
-7.56174
-7.56119
-7.56229
-7.56673
-7.57425
-7.58357
-7.59369
-7.60395
-7.61389
-7.62329
-7.63205
-7.64012
-7.64742
-7.65386
-7.6593
-7.66363
-7.66676
-7.66862
-7.66917
-7.66839
-7.66626
-7.66281
-7.65812
-7.65222
-7.64521
-7.63716
-7.62818
-7.61838
-7.6079
-7.5969
-7.5857
-7.5748
-7.56478
-7.55617
-7.54941
-7.54482
-7.54291
-7.54442
-7.54972
-7.55747
-7.56511
-7.5708
-7.57416
-7.57529
-7.57493
-7.57448
-7.57549
-7.58024
-7.58974
-7.60478
-7.62619
-7.65355
-7.68541
-7.72043
-7.75791
-7.79754
-7.8394
-7.88384
-7.93108
-7.98112
-8.03363
-8.08802
-8.14348
-8.19912
-8.25403
-8.30739
-8.35851
-8.40677
-8.45171
-8.49297
-8.53028
-8.56344
-8.5923
-8.61674
-8.63669
-8.65208
-8.66287
-8.669
-8.67044
-8.66716
-8.65911
-8.64627
-8.62859
-8.60604
-8.57858
-8.54617
-8.50876
-8.46632
-8.4188
-8.36615
-8.30832
-8.24526
-8.17691
-8.10323
-8.02416
-7.93965
-7.84965
-7.75412
-7.65302
-7.54635
-7.4341
-7.31627
-7.19283
-7.06378
-6.92913
-6.7889
-6.64309
-6.49176
-6.33494
-6.1727
-6.00509
-5.83219
-5.6541
-5.4709
-5.2827
-5.08962
-4.89178
-4.68931
-4.48236
-4.27107
-4.0556
-3.83612
-3.61279
-3.3858
-3.15533
-2.92157
-2.68471
-2.44495
-2.2025
-1.95759
-1.7104
-1.46117
-1.2101
-0.957382
-0.703254
-0.447941
-0.19165
0.0654005
0.322991
0.580903
0.838926
1.09685
1.35447
1.61158
1.86799
2.12352
2.37797
2.63116
2.88293
3.13311
3.38152
3.62801
3.87241
4.11458
4.35438
4.59168
4.82639
5.05839
5.28759
5.51391
5.73726
5.95758
6.17476
6.38874
6.59943
6.80677
7.01068
7.21112
7.40801
7.6013
7.79093
7.97686
8.15903
8.33746
8.51203
8.68332
8.84901
9.01859
9.15634
-7.56686
-7.5658
-7.56598
-7.57068
-7.57965
-7.59067
-7.60234
-7.61386
-7.62473
-7.6348
-7.64407
-7.65255
-7.66019
-7.66693
-7.67268
-7.67734
-7.68084
-7.68312
-7.68412
-7.68381
-7.68218
-7.67923
-7.67497
-7.66943
-7.66265
-7.65465
-7.64544
-7.63508
-7.6237
-7.61137
-7.59821
-7.58442
-7.57045
-7.557
-7.54498
-7.53559
-7.53001
-7.52912
-7.53289
-7.53921
-7.54587
-7.55177
-7.55654
-7.56055
-7.56448
-7.56946
-7.57636
-7.58641
-7.60124
-7.62148
-7.64673
-7.67631
-7.70932
-7.74524
-7.78337
-7.8233
-7.86475
-7.90772
-7.95231
-7.99855
-8.04631
-8.09535
-8.14526
-8.19552
-8.24557
-8.29481
-8.34267
-8.3886
-8.43214
-8.47289
-8.51049
-8.54466
-8.57517
-8.60182
-8.62445
-8.64293
-8.65714
-8.667
-8.67243
-8.67334
-8.66968
-8.66139
-8.64842
-8.6307
-8.6082
-8.58086
-8.54863
-8.51147
-8.46933
-8.42215
-8.3699
-8.3125
-8.24991
-8.18207
-8.10893
-8.03041
-7.94649
-7.8571
-7.7622
-7.66176
-7.55576
-7.44418
-7.32702
-7.20426
-7.07589
-6.94192
-6.80236
-6.65723
-6.50657
-6.35043
-6.18885
-6.02191
-5.84967
-5.67223
-5.48968
-5.30211
-5.10966
-4.91243
-4.71057
-4.50421
-4.2935
-4.07859
-3.85966
-3.63687
-3.4104
-3.18043
-2.94715
-2.71076
-2.47145
-2.22944
-1.98494
-1.73815
-1.48929
-1.23856
-0.98618
-0.732366
-0.477344
-0.221323
0.0354771
0.292839
0.550545
0.808383
1.06614
1.32362
1.58062
1.83693
2.09238
2.34677
2.59992
2.85167
3.10185
3.35028
3.5968
3.84124
4.08347
4.32333
4.56072
4.79551
5.02761
5.25693
5.48336
5.70684
5.92728
6.14458
6.35868
6.56951
6.77697
6.98101
7.18157
7.37858
7.57198
7.76172
7.94773
8.12996
8.30838
8.48282
8.65381
8.81858
8.98742
9.11873
-7.57314
-7.57236
-7.57502
-7.58379
-7.59541
-7.60744
-7.61921
-7.63041
-7.6409
-7.65068
-7.6597
-7.6679
-7.6752
-7.68152
-7.68678
-7.69089
-7.6938
-7.69546
-7.69583
-7.69489
-7.69264
-7.68906
-7.68417
-7.678
-7.67048
-7.66158
-7.6514
-7.64004
-7.62757
-7.61405
-7.59957
-7.58438
-7.56904
-7.55444
-7.54166
-7.53231
-7.52765
-7.52713
-7.5289
-7.53179
-7.53553
-7.54019
-7.54603
-7.55329
-7.5622
-7.57383
-7.58916
-7.60863
-7.63224
-7.65963
-7.69038
-7.72399
-7.75987
-7.79774
-7.83731
-7.87833
-7.92053
-7.96377
-8.00797
-8.05305
-8.0989
-8.14532
-8.19203
-8.23868
-8.28486
-8.33016
-8.37415
-8.4164
-8.45653
-8.49418
-8.52901
-8.56076
-8.58918
-8.61404
-8.63516
-8.65238
-8.66556
-8.67457
-8.67931
-8.67969
-8.67562
-8.66703
-8.65384
-8.636
-8.61344
-8.58611
-8.55394
-8.5169
-8.47493
-8.42798
-8.37598
-8.31888
-8.25662
-8.18914
-8.11637
-8.03827
-7.95477
-7.86582
-7.77138
-7.67142
-7.5659
-7.45482
-7.33814
-7.21586
-7.08797
-6.95447
-6.81539
-6.67074
-6.52055
-6.36487
-6.20376
-6.03728
-5.8655
-5.6885
-5.50639
-5.31927
-5.12724
-4.93043
-4.72898
-4.52303
-4.31272
-4.0982
-3.87965
-3.65723
-3.43111
-3.20149
-2.96855
-2.73249
-2.4935
-2.2518
-2.00759
-1.76109
-1.5125
-1.26202
-1.00987
-0.756286
-0.501476
-0.245655
0.0109588
0.268147
0.525695
0.783388
1.04102
1.29838
1.55527
1.8115
2.06687
2.3212
2.57432
2.82604
3.0762
3.32463
3.57114
3.81559
4.05783
4.29772
4.53514
4.76997
5.00211
5.23148
5.45798
5.68153
5.90204
6.11942
6.33359
6.54448
6.75201
6.95612
7.15675
7.35382
7.54729
7.73706
7.92309
8.10528
8.28359
8.45776
8.6283
8.79204
8.96018
9.08549
-7.57882
-7.57949
-7.58585
-7.59682
-7.60856
-7.62002
-7.63111
-7.64175
-7.65187
-7.66137
-7.67015
-7.67811
-7.68515
-7.69116
-7.69608
-7.69983
-7.70237
-7.70364
-7.70361
-7.70228
-7.69962
-7.69565
-7.69038
-7.68368
-7.67547
-7.66591
-7.65518
-7.64332
-7.63035
-7.61639
-7.60171
-7.58657
-7.57156
-7.55774
-7.54656
-7.53906
-7.53448
-7.53124
-7.52921
-7.5292
-7.53184
-7.53707
-7.54481
-7.55573
-7.57036
-7.58867
-7.61048
-7.63551
-7.66372
-7.69472
-7.7282
-7.76386
-7.80136
-7.84044
-7.88081
-7.92225
-7.96458
-8.00765
-8.05135
-8.09557
-8.14015
-8.1849
-8.22959
-8.27394
-8.31767
-8.36042
-8.40185
-8.44163
-8.47941
-8.51488
-8.54774
-8.57772
-8.60456
-8.62805
-8.64799
-8.66419
-8.6765
-8.68477
-8.6889
-8.68876
-8.68427
-8.67534
-8.66189
-8.64385
-8.62114
-8.59372
-8.56153
-8.5245
-8.48259
-8.43574
-8.38388
-8.32695
-8.26489
-8.19763
-8.12511
-8.04727
-7.96406
-7.87541
-7.78128
-7.68163
-7.57643
-7.46566
-7.34929
-7.22732
-7.09974
-6.96655
-6.82777
-6.68341
-6.53352
-6.37814
-6.21731
-6.05112
-5.87962
-5.7029
-5.52107
-5.33421
-5.14244
-4.9459
-4.74471
-4.53901
-4.32894
-4.11467
-3.89636
-3.67417
-3.44828
-3.21889
-2.98617
-2.75032
-2.51155
-2.27006
-2.02605
-1.77974
-1.53133
-1.28103
-1.02904
-0.775617
-0.520957
-0.265281
-0.00880587
0.248252
0.505677
0.763257
1.02078
1.27805
1.53485
1.791
2.04631
2.30058
2.55364
2.80533
3.05546
3.30386
3.55036
3.79478
4.03699
4.27686
4.51426
4.74909
4.98125
5.21063
5.43716
5.66074
5.88128
6.09869
6.31289
6.5238
6.73136
6.93549
7.13614
7.33325
7.52673
7.7165
7.90249
8.08459
8.26272
8.43656
8.60657
8.76928
8.93679
9.05669
-7.58209
-7.58492
-7.59401
-7.60506
-7.61595
-7.62667
-7.6372
-7.64745
-7.65729
-7.66658
-7.6752
-7.68301
-7.6899
-7.69577
-7.70053
-7.70412
-7.70648
-7.70758
-7.70738
-7.70587
-7.70306
-7.69894
-7.69339
-7.68628
-7.67776
-7.66807
-7.65731
-7.64554
-7.63279
-7.61923
-7.60519
-7.59121
-7.57809
-7.56665
-7.55744
-7.55002
-7.54325
-7.53734
-7.5334
-7.53227
-7.53474
-7.54136
-7.5521
-7.56678
-7.5851
-7.60677
-7.63164
-7.65941
-7.68988
-7.72273
-7.75769
-7.7945
-7.83289
-7.8726
-7.91342
-7.95514
-7.99759
-8.04064
-8.08414
-8.12792
-8.17183
-8.21567
-8.25925
-8.30232
-8.34462
-8.38587
-8.42577
-8.46402
-8.50034
-8.53442
-8.56598
-8.59476
-8.62051
-8.64301
-8.66205
-8.67746
-8.68907
-8.69672
-8.70029
-8.69967
-8.69477
-8.68548
-8.67173
-8.65343
-8.63052
-8.60293
-8.57061
-8.53351
-8.49156
-8.44472
-8.3929
-8.33605
-8.27408
-8.20694
-8.13455
-8.05685
-7.97379
-7.88531
-7.79135
-7.69187
-7.58684
-7.47623
-7.36004
-7.23823
-7.11081
-6.97778
-6.83915
-6.69494
-6.5452
-6.38996
-6.22929
-6.06323
-5.89188
-5.7153
-5.5336
-5.34688
-5.15525
-4.95884
-4.75778
-4.55221
-4.34228
-4.12813
-3.90995
-3.68789
-3.46213
-3.23287
-3.00027
-2.76455
-2.52591
-2.28455
-2.04067
-1.79449
-1.5462
-1.29601
-1.04414
-0.790829
-0.536281
-0.280713
-0.0243429
0.232613
0.489939
0.747423
1.00486
1.26204
1.51876
1.77483
2.03006
2.28427
2.53727
2.78891
3.039
3.28736
3.5338
3.77816
4.02032
4.26014
4.4975
4.7323
4.96442
5.19378
5.42031
5.6439
5.86443
6.08183
6.29601
6.50691
6.71445
6.91858
7.11923
7.31633
7.5098
7.69953
7.88545
8.06742
8.24534
8.4188
8.58826
8.74997
8.91691
9.03209
-7.58161
-7.58645
-7.5961
-7.6063
-7.6165
-7.62674
-7.63694
-7.64697
-7.65668
-7.66592
-7.67453
-7.68237
-7.6893
-7.69523
-7.70007
-7.70375
-7.7062
-7.70738
-7.70727
-7.70583
-7.70306
-7.69889
-7.69323
-7.68613
-7.67782
-7.66842
-7.65803
-7.64671
-7.63463
-7.62212
-7.60959
-7.59762
-7.58669
-7.57665
-7.56734
-7.55859
-7.55043
-7.54368
-7.53961
-7.53914
-7.54288
-7.55091
-7.56299
-7.57895
-7.59858
-7.62161
-7.64782
-7.67687
-7.70844
-7.74223
-7.77798
-7.81545
-7.85439
-7.89457
-7.93581
-7.9779
-8.02068
-8.06396
-8.10758
-8.15137
-8.19515
-8.23874
-8.28194
-8.3245
-8.36619
-8.40675
-8.44592
-8.48343
-8.519
-8.55233
-8.58314
-8.61119
-8.63622
-8.65804
-8.67643
-8.69122
-8.70224
-8.70936
-8.71244
-8.71139
-8.70609
-8.69645
-8.68238
-8.6638
-8.64064
-8.61283
-8.58032
-8.54307
-8.50103
-8.45412
-8.40227
-8.3454
-8.28343
-8.21631
-8.14395
-8.0663
-7.98328
-7.89484
-7.80093
-7.7015
-7.59652
-7.48597
-7.36982
-7.24807
-7.12069
-6.9877
-6.8491
-6.70494
-6.55523
-6.40002
-6.23938
-6.07336
-5.90204
-5.7255
-5.54383
-5.35714
-5.16555
-4.96917
-4.76815
-4.56263
-4.35274
-4.13865
-3.92052
-3.69851
-3.47281
-3.2436
-3.01107
-2.77542
-2.53686
-2.29557
-2.05177
-1.80567
-1.55746
-1.30735
-1.05556
-0.802332
-0.547869
-0.292388
-0.0361057
0.220761
0.477999
0.735395
0.99274
1.24983
1.50646
1.76245
2.01759
2.27171
2.52464
2.77622
3.02627
3.27456
3.52092
3.76521
4.00728
4.24702
4.4843
4.71902
4.95109
5.1804
5.4069
5.63047
5.85097
6.06832
6.28246
6.49331
6.70082
6.90491
7.10554
7.30262
7.49605
7.68572
7.87153
8.05334
8.231
8.40407
8.57298
8.73374
8.90013
9.01131
-7.57474
-7.58067
-7.58973
-7.59939
-7.60939
-7.61953
-7.6297
-7.63977
-7.64961
-7.65903
-7.66788
-7.676
-7.68325
-7.68951
-7.69468
-7.6987
-7.70147
-7.70297
-7.70314
-7.70196
-7.69939
-7.6954
-7.68997
-7.68321
-7.67529
-7.66635
-7.65652
-7.64598
-7.63506
-7.6241
-7.61317
-7.60235
-7.59173
-7.58134
-7.57129
-7.56198
-7.55395
-7.54794
-7.54475
-7.54501
-7.54917
-7.55745
-7.56981
-7.58616
-7.60632
-7.62997
-7.65679
-7.68641
-7.71851
-7.75281
-7.78907
-7.82703
-7.86648
-7.9072
-7.94898
-7.99162
-8.03491
-8.07869
-8.12278
-8.16699
-8.21114
-8.25503
-8.29843
-8.3411
-8.3828
-8.42331
-8.46235
-8.49967
-8.53498
-8.56801
-8.59849
-8.62616
-8.65078
-8.67216
-8.69009
-8.7044
-8.71495
-8.72162
-8.72428
-8.72283
-8.71715
-8.70715
-8.69276
-8.67388
-8.65043
-8.62235
-8.5896
-8.55217
-8.50997
-8.46295
-8.41099
-8.35404
-8.292
-8.22482
-8.15241
-8.07471
-7.99166
-7.90319
-7.80923
-7.70977
-7.60476
-7.49417
-7.37798
-7.25619
-7.12877
-6.99574
-6.8571
-6.71289
-6.56313
-6.40789
-6.24721
-6.08115
-5.90979
-5.73321
-5.55151
-5.36479
-5.17317
-4.97678
-4.77575
-4.57021
-4.36032
-4.14623
-3.92811
-3.70611
-3.48043
-3.25124
-3.01874
-2.78314
-2.54462
-2.30338
-2.05964
-1.81359
-1.56545
-1.3154
-1.06369
-0.810534
-0.556151
-0.300756
-0.0445619
0.212213
0.469357
0.726657
0.983905
1.2409
1.49743
1.75332
2.00837
2.26239
2.51523
2.76674
3.01673
3.26494
3.51118
3.75535
3.99731
4.23693
4.47411
4.70874
4.94071
5.16996
5.39641
5.61995
5.84039
6.05768
6.27175
6.48253
6.68998
6.89403
7.09461
7.29167
7.48506
7.67465
7.86033
8.04195
8.21934
8.392
8.56037
8.72024
8.88608
8.99397
-7.55876
-7.56477
-7.57354
-7.58357
-7.59402
-7.6045
-7.61496
-7.62534
-7.63556
-7.64544
-7.65479
-7.66344
-7.67125
-7.67807
-7.68381
-7.68836
-7.69167
-7.69367
-7.69432
-7.69359
-7.69144
-7.68787
-7.68292
-7.6767
-7.66942
-7.66126
-7.65238
-7.64287
-7.63282
-7.62239
-7.61165
-7.60065
-7.58953
-7.57858
-7.56823
-7.55895
-7.5512
-7.5456
-7.54284
-7.54348
-7.54797
-7.55656
-7.56929
-7.58605
-7.6066
-7.63062
-7.65776
-7.6877
-7.72014
-7.75484
-7.79154
-7.83004
-7.87008
-7.91145
-7.95393
-7.99731
-8.04139
-8.08596
-8.13082
-8.17579
-8.22065
-8.26518
-8.30916
-8.35236
-8.39454
-8.43545
-8.47482
-8.51238
-8.54784
-8.58093
-8.61139
-8.63893
-8.66334
-8.68442
-8.702
-8.71592
-8.72604
-8.73226
-8.73449
-8.73262
-8.72655
-8.71621
-8.70149
-8.68229
-8.65853
-8.63012
-8.59708
-8.55942
-8.51707
-8.46991
-8.41784
-8.36077
-8.29862
-8.23134
-8.15884
-8.08107
-7.99794
-7.90938
-7.81534
-7.71579
-7.61069
-7.50002
-7.38376
-7.26189
-7.13439
-7.00127
-6.86255
-6.71825
-6.56842
-6.4131
-6.25235
-6.08623
-5.9148
-5.73816
-5.5564
-5.36963
-5.17797
-4.98154
-4.78048
-4.57493
-4.36503
-4.15093
-3.9328
-3.71081
-3.48514
-3.25598
-3.02351
-2.78795
-2.54947
-2.3083
-2.06462
-1.81864
-1.57056
-1.32059
-1.06896
-0.815892
-0.5616
-0.306299
-0.0502037
0.20647
0.463508
0.7207
0.977838
1.23472
1.49114
1.74691
2.00184
2.25575
2.50848
2.75994
3.00988
3.25798
3.50408
3.7481
3.98991
4.2294
4.46645
4.70096
4.93283
5.16198
5.38839
5.61189
5.83225
6.04945
6.26342
6.47413
6.68151
6.88549
7.08604
7.28307
7.47641
7.66591
7.85146
8.03288
8.20999
8.38224
8.55008
8.70913
8.87439
8.97971
-7.53239
-7.53792
-7.54736
-7.55868
-7.57011
-7.58119
-7.59208
-7.60299
-7.61386
-7.6245
-7.63468
-7.64417
-7.6528
-7.6604
-7.66687
-7.67215
-7.67617
-7.67886
-7.68017
-7.6801
-7.67862
-7.67577
-7.67161
-7.66623
-7.65973
-7.65224
-7.64384
-7.63462
-7.62465
-7.61398
-7.60276
-7.5912
-7.57961
-7.56831
-7.55767
-7.54817
-7.5404
-7.535
-7.5326
-7.53375
-7.53882
-7.54797
-7.56121
-7.57838
-7.59923
-7.62348
-7.65085
-7.68106
-7.71387
-7.74903
-7.7863
-7.82542
-7.86615
-7.90828
-7.95157
-7.9958
-8.04077
-8.08628
-8.13214
-8.17811
-8.22394
-8.2694
-8.31427
-8.35832
-8.40128
-8.4429
-8.48291
-8.52101
-8.55692
-8.59031
-8.62088
-8.64836
-8.67254
-8.69329
-8.71047
-8.72392
-8.7335
-8.73921
-8.74097
-8.73869
-8.73229
-8.72166
-8.7067
-8.68726
-8.6632
-8.63439
-8.60097
-8.56312
-8.52067
-8.47343
-8.42126
-8.36408
-8.30183
-8.23445
-8.16189
-8.08405
-8.00085
-7.9122
-7.81807
-7.71842
-7.61323
-7.50249
-7.38616
-7.26421
-7.13664
-7.00344
-6.86463
-6.72026
-6.57036
-6.41499
-6.25419
-6.08802
-5.91655
-5.73987
-5.55807
-5.37127
-5.1796
-4.98316
-4.78211
-4.57657
-4.36669
-4.15261
-3.93451
-3.71256
-3.48695
-3.25784
-3.02544
-2.78995
-2.55156
-2.31048
-2.0669
-1.82103
-1.57305
-1.32319
-1.07168
-0.818746
-0.564586
-0.30942
-0.0534659
0.203064
0.459955
0.716998
0.973985
1.23071
1.48698
1.74259
1.99736
2.25112
2.50371
2.75515
3.00512
3.25314
3.49907
3.74291
3.98456
4.22389
4.4608
4.69517
4.92693
5.15599
5.3824
5.60588
5.82616
6.04324
6.25712
6.46773
6.67503
6.87896
7.07947
7.27649
7.46979
7.65918
7.84459
8.0258
8.20263
8.37449
8.54182
8.70012
8.86475
8.96818
-7.49598
-7.50158
-7.51252
-7.52572
-7.53835
-7.55005
-7.56154
-7.57332
-7.5853
-7.5971
-7.60837
-7.61889
-7.62849
-7.63702
-7.64438
-7.65052
-7.65539
-7.65894
-7.66112
-7.66191
-7.66128
-7.65926
-7.65587
-7.65116
-7.64519
-7.63801
-7.62968
-7.62028
-7.60989
-7.5987
-7.58692
-7.57478
-7.56257
-7.55067
-7.53958
-7.52988
-7.52219
-7.51714
-7.5153
-7.5171
-7.52281
-7.53253
-7.54619
-7.56365
-7.58469
-7.60911
-7.63666
-7.66712
-7.70025
-7.73582
-7.77358
-7.8133
-7.85476
-7.89771
-7.9419
-7.98709
-8.03309
-8.07969
-8.12667
-8.17376
-8.22072
-8.26728
-8.31321
-8.35823
-8.40209
-8.44449
-8.48514
-8.52375
-8.56001
-8.59358
-8.62412
-8.65137
-8.67521
-8.69557
-8.71227
-8.72505
-8.73385
-8.7389
-8.74023
-8.73772
-8.73121
-8.7206
-8.70569
-8.68625
-8.66207
-8.63286
-8.59901
-8.56104
-8.51861
-8.47136
-8.41912
-8.36181
-8.29943
-8.23196
-8.15934
-8.08145
-7.99817
-7.90941
-7.81515
-7.71538
-7.6101
-7.49928
-7.38288
-7.26087
-7.13322
-6.99993
-6.86104
-6.71659
-6.56665
-6.41123
-6.25041
-6.08422
-5.91272
-5.73602
-5.55421
-5.36741
-5.17575
-4.97935
-4.77835
-4.57287
-4.36307
-4.14907
-3.93106
-3.70922
-3.48372
-3.25474
-3.02249
-2.78716
-2.54895
-2.30807
-2.06469
-1.81901
-1.57124
-1.32161
-1.07035
-0.817663
-0.563761
-0.308862
-0.0531826
0.203065
0.459667
0.716416
0.973102
1.22952
1.48548
1.74078
1.99523
2.24865
2.50092
2.75215
3.00205
3.24991
3.49561
3.73923
3.98067
4.21983
4.45657
4.6908
4.92242
5.15138
5.37787
5.60147
5.82167
6.03864
6.25241
6.46294
6.67017
6.87406
7.07457
7.27164
7.46492
7.65422
7.83947
8.02049
8.19705
8.36852
8.53537
8.69297
8.85692
8.95913
-7.4524
-7.45895
-7.47203
-7.48749
-7.50152
-7.51409
-7.52617
-7.53864
-7.55173
-7.56487
-7.57757
-7.58951
-7.6004
-7.60999
-7.61818
-7.62515
-7.63094
-7.63546
-7.63862
-7.64035
-7.64062
-7.6394
-7.63666
-7.63243
-7.6267
-7.61953
-7.61098
-7.60116
-7.59021
-7.57832
-7.56571
-7.55271
-7.53973
-7.52725
-7.51584
-7.50608
-7.49861
-7.49395
-7.49259
-7.49484
-7.5009
-7.51082
-7.52456
-7.54202
-7.56304
-7.58744
-7.61503
-7.64558
-7.67889
-7.71472
-7.75288
-7.79314
-7.83528
-7.87907
-7.92426
-7.9706
-8.01784
-8.06568
-8.11382
-8.16202
-8.21
-8.25752
-8.30431
-8.35011
-8.39463
-8.43758
-8.47864
-8.51752
-8.55389
-8.58733
-8.61742
-8.64396
-8.66708
-8.68683
-8.70295
-8.71473
-8.72219
-8.72618
-8.72696
-8.72435
-8.71812
-8.70799
-8.69363
-8.67471
-8.65111
-8.62287
-8.59005
-8.5526
-8.51037
-8.46318
-8.41088
-8.35345
-8.29095
-8.22336
-8.1506
-8.07256
-7.9891
-7.90015
-7.80568
-7.70572
-7.60025
-7.48926
-7.3727
-7.25053
-7.1227
-6.98925
-6.8502
-6.70562
-6.55555
-6.40003
-6.23911
-6.07284
-5.90126
-5.72449
-5.54263
-5.35581
-5.16414
-4.96775
-4.76677
-4.56134
-4.35159
-4.13766
-3.91975
-3.69801
-3.47263
-3.24381
-3.01172
-2.77658
-2.53858
-2.29792
-2.05477
-1.80933
-1.56183
-1.3125
-1.06154
-0.809171
-0.555603
-0.301054
-0.0457378
0.210132
0.466343
0.722686
0.978952
1.23494
1.49044
1.74526
1.9992
2.25206
2.50367
2.75386
3.00254
3.24957
3.49477
3.73799
3.97907
4.21788
4.4543
4.68821
4.91953
5.14821
5.37462
5.59824
5.81833
6.03516
6.24883
6.45928
6.66646
6.87033
7.0709
7.26814
7.46151
7.65072
7.83584
8.01669
8.193
8.36412
8.53053
8.68747
8.8507
8.95233
-7.40617
-7.41409
-7.42994
-7.44776
-7.46231
-7.47501
-7.48815
-7.50215
-7.51655
-7.53088
-7.5448
-7.55803
-7.57028
-7.58108
-7.59028
-7.5982
-7.60503
-7.61064
-7.61487
-7.61762
-7.6188
-7.61832
-7.61614
-7.61222
-7.60658
-7.59923
-7.59026
-7.57978
-7.56797
-7.55508
-7.54144
-7.52745
-7.5136
-7.50044
-7.48854
-7.47849
-7.47086
-7.46612
-7.46466
-7.46675
-7.47255
-7.48214
-7.49551
-7.5126
-7.5333
-7.55746
-7.5849
-7.61545
-7.64891
-7.68506
-7.72368
-7.76455
-7.80743
-7.85206
-7.89817
-7.94552
-7.99379
-8.04265
-8.09179
-8.1409
-8.18973
-8.238
-8.28543
-8.33175
-8.37666
-8.4199
-8.46117
-8.50017
-8.53651
-8.56964
-8.59871
-8.62348
-8.64459
-8.66292
-8.67867
-8.69121
-8.69996
-8.70468
-8.70559
-8.703
-8.6969
-8.68699
-8.67289
-8.65426
-8.63113
-8.60388
-8.57211
-8.53515
-8.49309
-8.44596
-8.39369
-8.33628
-8.27379
-8.20616
-8.13332
-8.05518