/*--------------------------------*- C++ -*----------------------------------*\
  =========                 |
  \\      /  F ield         | OpenFOAM: The Open Source CFD Toolbox
   \\    /   O peration     | Website:  https://openfoam.org
    \\  /    A nd           | Version:  8
     \\/     M anipulation  |
\*---------------------------------------------------------------------------*/
FoamFile
{
    version     2.0;
    format      ascii;
    class       volScalarField;
    location    "1400";
    object      k;
}
// * * * * * * * * * * * * * * * * * * * * * * * * * * * * * * * * * * * * * //

dimensions      [0 2 -2 0 0 0 0];

internalField   nonuniform List<scalar> 
12225
(
0.630277
1.60081
3.15328
2.54286
1.96956
1.96956
1.9581
1.73097
1.57305
1.83845
1.26558
2.6772
2.17635
1.84161
1.5833
1.47706
1.4305
1.537
0.385577
0.423101
0.53653
0.61415
0.605728
0.635743
0.699531
0.701748
0.716174
0.723378
0.70854
0.744726
0.775797
0.807569
0.840847
0.851835
0.864011
0.893035
0.371578
0.37578
0.385989
0.393263
0.391167
0.384508
0.384262
0.3783
0.370617
0.367966
0.363788
0.359608
0.361199
0.361068
0.363213
0.366937
0.371542
0.37597
0.37204
0.372046
0.372245
0.371923
0.370062
0.366096
0.36295
0.358695
0.354813
0.350009
0.346222
0.342046
0.33863
0.334802
0.331588
0.328411
0.325474
0.323073
0.373165
0.371676
0.370448
0.368793
0.367203
0.364804
0.362683
0.359987
0.357593
0.354678
0.352157
0.349229
0.346663
0.343718
0.341106
0.338212
0.335684
0.332957
0.373724
0.371787
0.370106
0.368257
0.366654
0.364769
0.363074
0.361117
0.359339
0.357313
0.355451
0.353371
0.351448
0.349323
0.347373
0.345243
0.343357
0.341294
0.373905
0.371869
0.370032
0.368168
0.36651
0.3648
0.363242
0.361606
0.360083
0.358469
0.356934
0.355306
0.353754
0.352115
0.350571
0.348949
0.347467
0.345903
0.373941
0.371895
0.370009
0.368157
0.366462
0.364798
0.36326
0.361726
0.360286
0.358828
0.357431
0.356004
0.354632
0.35323
0.351893
0.350528
0.349261
0.347955
0.373947
0.371894
0.369984
0.368141
0.366425
0.364771
0.363228
0.36173
0.360318
0.358931
0.357604
0.356285
0.355016
0.353751
0.352539
0.351329
0.350191
0.349046
0.373944
0.37189
0.369963
0.368122
0.36639
0.364736
0.363179
0.361689
0.360279
0.35892
0.357624
0.356364
0.355155
0.353976
0.352845
0.351738
0.350687
0.349652
0.373941
0.371883
0.369942
0.368098
0.366355
0.364697
0.363127
0.361632
0.360213
0.358858
0.357568
0.35633
0.355149
0.35401
0.352921
0.35187
0.350867
0.349897
0.373937
0.371877
0.369927
0.368078
0.366326
0.36466
0.363082
0.361578
0.360151
0.35879
0.357495
0.35626
0.355082
0.353957
0.352881
0.351851
0.350867
0.349925
0.373936
0.371872
0.369916
0.368062
0.366302
0.364633
0.363044
0.361536
0.360099
0.358733
0.35743
0.356192
0.355009
0.353883
0.352806
0.35178
0.350798
0.349861
0.373934
0.371868
0.369908
0.368049
0.366285
0.364609
0.363018
0.361502
0.360062
0.358688
0.357382
0.356136
0.35495
0.353817
0.352738
0.351706
0.350722
0.349782
0.373933
0.371865
0.369901
0.368039
0.366271
0.364593
0.362996
0.361478
0.360032
0.358656
0.357344
0.356095
0.354904
0.353768
0.352683
0.351649
0.35066
0.349718
0.373933
0.371862
0.369898
0.368033
0.366263
0.364581
0.362982
0.36146
0.360012
0.358633
0.357318
0.356066
0.354871
0.353732
0.352644
0.351607
0.350615
0.34967
0.373932
0.371862
0.369897
0.36803
0.366259
0.364574
0.362973
0.361449
0.359999
0.358618
0.357301
0.356047
0.35485
0.353709
0.352619
0.35158
0.350587
0.349639
0.373932
0.371863
0.369896
0.368033
0.366257
0.364575
0.362969
0.361448
0.359993
0.358614
0.357293
0.35604
0.35484
0.3537
0.352608
0.351569
0.350574
0.349627
0.373933
0.371863
0.369899
0.368032
0.366262
0.364575
0.362975
0.361448
0.359999
0.358614
0.3573
0.356041
0.354846
0.353702
0.352614
0.351571
0.350579
0.349629
0.373933
0.371864
0.3699
0.368037
0.366265
0.364583
0.36298
0.361459
0.360007
0.358628
0.35731
0.356057
0.354859
0.353719
0.352628
0.35159
0.350596
0.349649
0.373933
0.371866
0.369903
0.368041
0.366273
0.364591
0.362993
0.361473
0.360025
0.358646
0.357332
0.35608
0.354885
0.353746
0.352659
0.351621
0.35063
0.349683
0.373934
0.371868
0.369909
0.36805
0.366284
0.364606
0.363012
0.361496
0.360053
0.358678
0.357369
0.35612
0.35493
0.353792
0.352709
0.351671
0.350681
0.349732
0.373935
0.371874
0.369917
0.368062
0.3663
0.36463
0.363044
0.361538
0.360103
0.358737
0.357432
0.356187
0.354997
0.353861
0.35277
0.351727
0.350721
0.349755
0.373937
0.371886
0.369927
0.368079
0.366327
0.364679
0.363116
0.361631
0.360209
0.358846
0.357536
0.356279
0.355068
0.353902
0.352776
0.351684
0.350621
0.349583
0.37395
0.371913
0.369931
0.368103
0.366393
0.364815
0.363307
0.361856
0.36043
0.359039
0.35767
0.35634
0.355035
0.353765
0.352513
0.351282
0.350052
0.348839
0.374024
0.371992
0.369937
0.368225
0.3667
0.365305
0.363893
0.362463
0.360966
0.359439
0.357879
0.356323
0.354765
0.353219
0.351662
0.350108
0.348517
0.34694
0.374427
0.372427
0.37045
0.369227
0.368307
0.36731
0.366069
0.364629
0.362935
0.361028
0.358995
0.35689
0.35476
0.352615
0.350466
0.348293
0.346096
0.343894
0.376812
0.376159
0.376236
0.377007
0.378122
0.378156
0.377615
0.376499
0.375048
0.372612
0.370174
0.367507
0.365197
0.362845
0.360974
0.358993
0.357575
0.355877
0.402335
0.41389
0.434244
0.452885
0.47166
0.48741
0.500821
0.511598
0.521637
0.530081
0.53939
0.548064
0.558571
0.56863
0.580424
0.591697
0.604601
0.615187
0.841806
1.14083
1.35558
1.48316
1.55089
1.568
1.56176
1.54487
1.51562
1.48322
1.45051
1.41893
1.3894
1.36223
1.33756
1.31528
1.29519
1.27737
1.80907e-08
4.45783e-07
2.27973e-06
9.01293e-06
3.02276e-05
9.25259e-05
0.000241771
0.000481511
0.000780904
0.00109647
0.00138009
0.00160088
0.00174914
0.00180687
0.00178561
0.00171559
0.00158074
0.00135593
0.00115635
0.000984426
0.000821663
0.000663111
0.00050989
0.000367395
0.000240217
0.000141232
7.52234e-05
3.79105e-05
1.92725e-05
1.04869e-05
6.34109e-06
4.81704e-06
5.14983e-06
1.09525e-05
2.39946e-05
0.000137121
0.000313648
0.000699665
0.00106912
0.0011829
0.00109178
0.000880582
0.000739294
0.000737854
0.000818642
0.00107433
0.00141756
0.00274706
0.00620602
0.019245
0.0526681
0.0953903
0.121774
0.13481
0.138891
0.151881
0.154926
0.153519
0.169214
0.157878
0.141805
0.148795
0.163827
0.172761
0.182672
0.19145
0.199478
0.208275
0.216041
0.224274
0.23198
0.239818
0.247398
0.25498
0.262411
0.2698
0.277081
0.284303
0.291434
0.298496
0.305474
0.312375
0.319192
0.325925
0.33257
0.339122
0.345578
0.351931
0.358177
0.364306
0.370313
0.376188
0.38192
0.387499
0.392913
0.398151
0.403209
0.408087
0.412804
0.417401
0.421927
0.426264
0.43047
0.434527
0.438433
0.442187
0.445785
0.449223
0.4525
0.45561
0.458555
0.461327
0.46393
0.466355
0.468609
0.470683
0.472582
0.4743
0.475842
0.477202
0.478385
0.479387
0.480212
0.480857
0.481325
0.481615
0.48173
0.481702
0.481577
0.481115
0.480735
0.479824
0.479048
0.478045
0.477013
0.4758
0.474384
0.472703
0.470919
0.468963
0.466889
0.464683
0.46236
0.459921
0.457377
0.454728
0.451986
0.449151
0.44622
0.443221
0.44011
0.436961
0.433729
0.430442
0.427115
0.423743
0.420351
0.416941
0.413528
0.410121
0.406728
0.403355
0.400006
0.396684
0.393394
0.390142
0.386933
0.383776
0.380675
0.377638
0.37466
0.371739
0.368862
0.365996
0.363095
0.360069
0.356795
0.35296
0.347953
0.332194
7.97877e-08
2.24889e-06
1.52986e-05
6.66625e-05
0.000247213
0.000744549
0.00173047
0.00314833
0.00479519
0.00648783
0.00803427
0.00930703
0.0102434
0.0108447
0.0111224
0.0110852
0.0109069
0.0105585
0.00996498
0.00914606
0.00810882
0.00690158
0.00558057
0.00424298
0.00294643
0.00195299
0.00124011
0.000767616
0.000466378
0.000285879
0.000182701
0.000136688
0.000101536
0.00016974
0.00022222
0.00145036
0.00322724
0.00674629
0.00989597
0.011708
0.011717
0.0113943
0.0114758
0.0129223
0.0167773
0.0220636
0.0315793
0.0480732
0.0741999
0.0989867
0.124671
0.145264
0.160839
0.172896
0.187327
0.205273
0.22103
0.238789
0.257814
0.274339
0.293859
0.314041
0.334008
0.354293
0.373297
0.392712
0.411348
0.430061
0.448337
0.466554
0.484529
0.502408
0.520144
0.537792
0.555342
0.572818
0.590216
0.607544
0.624799
0.641983
0.65909
0.676118
0.693059
0.709908
0.726657
0.743297
0.75982
0.776215
0.792471
0.808573
0.824509
0.840262
0.855813
0.87114
0.886216
0.901014
0.915502
0.929644
0.943401
0.956735
0.969664
0.982393
0.99482
1.00699
1.01886
1.03044
1.04171
1.05266
1.06327
1.07355
1.08348
1.09305
1.10225
1.11107
1.11951
1.12756
1.1352
1.14245
1.14928
1.1557
1.16169
1.16726
1.1724
1.17711
1.18138
1.18521
1.1886
1.19156
1.19409
1.19616
1.19784
1.19894
1.19971
1.20004
1.2002
1.20003
1.19954
1.19885
1.19772
1.19618
1.19426
1.19196
1.1893
1.18628
1.18292
1.17922
1.1752
1.17087
1.16623
1.16127
1.15604
1.15053
1.14475
1.13874
1.1325
1.12606
1.11945
1.11268
1.10578
1.09879
1.0917
1.08455
1.07735
1.07009
1.06279
1.05546
1.04812
1.04077
1.03345
1.02616
1.01889
1.01165
1.00442
0.997143
0.98975
0.982118
0.974027
0.965162
0.953583
0.927055
2.19246e-07
6.57907e-06
5.04323e-05
0.000242126
0.000731341
0.00203739
0.00412886
0.00655764
0.00898904
0.0111917
0.0130296
0.0144443
0.0154359
0.0160301
0.016284
0.0162478
0.0160638
0.0156987
0.015156
0.0144782
0.0136605
0.0126947
0.0115617
0.0102661
0.00881631
0.00717021
0.0054725
0.00395959
0.00265164
0.00176643
0.00121161
0.000912652
0.000693975
0.000971998
0.00157269
0.00627683
0.0136013
0.0220427
0.0284089
0.032217
0.0338561
0.0365681
0.0440937
0.0600826
0.0777167
0.0958784
0.11648
0.13805
0.158067
0.179521
0.200539
0.22176
0.243998
0.269049
0.296486
0.325343
0.354235
0.383613
0.412472
0.440998
0.469598
0.497602
0.52489
0.551636
0.577619
0.603204
0.628232
0.652916
0.677239
0.7013
0.725119
0.748748
0.772207
0.795526
0.818716
0.84179
0.864754
0.887611
0.910361
0.933
0.955524
0.977926
1.0002
1.02234
1.04432
1.06615
1.08781
1.10929
1.13058
1.15166
1.17251
1.19314
1.21351
1.23362
1.25345
1.27298
1.29221
1.31113
1.32973
1.34801
1.36597
1.38358
1.40084
1.41771
1.43419
1.45025
1.46589
1.48108
1.49582
1.51009
1.52387
1.53715
1.54993
1.56219
1.57392
1.58511
1.59575
1.60584
1.61536
1.62432
1.6327
1.6405
1.64772
1.65435
1.66039
1.66584
1.67069
1.67495
1.67862
1.68169
1.68417
1.68604
1.68735
1.68803
1.68831
1.68811
1.6873
1.68598
1.68409
1.68166
1.67868
1.67519
1.67118
1.66668
1.6617
1.65625
1.65035
1.644
1.63723
1.63003
1.62245
1.61448
1.60615
1.59749
1.58851
1.57925
1.56973
1.56
1.55007
1.53999
1.52977
1.51944
1.50902
1.49851
1.48794
1.47731
1.46665
1.45597
1.4453
1.43466
1.42406
1.41351
1.40298
1.39245
1.38186
1.37114
1.36007
1.34843
1.33428
1.30963
8.1269e-07
2.44394e-05
0.000191742
0.000815097
0.00230026
0.00542969
0.00910749
0.0126843
0.0157862
0.0182379
0.0200052
0.0211268
0.0217166
0.0218252
0.0216945
0.0213392
0.0207724
0.0200907
0.0193249
0.0184901
0.0175878
0.0166131
0.0155486
0.0143716
0.0130637
0.0116003
0.0100024
0.00833596
0.00676678
0.00523592
0.00411188
0.00304019
0.00313382
0.00470178
0.0112865
0.0256347
0.0400362
0.051587
0.060521
0.0690107
0.0795812
0.0932806
0.109194
0.124748
0.140852
0.15814
0.178488
0.200219
0.223816
0.249767
0.277288
0.306792
0.33804
0.370963
0.40483
0.439064
0.473218
0.507183
0.540699
0.573735
0.606302
0.638235
0.669517
0.700236
0.730393
0.760098
0.789388
0.818345
0.847013
0.875445
0.903678
0.931745
0.959671
0.987473
1.01516
1.04275
1.07023
1.09761
1.12487
1.15202
1.17905
1.20594
1.23269
1.25928
1.28569
1.31193
1.33797
1.36379
1.3894
1.41476
1.43988
1.46473
1.4893
1.51358
1.53755
1.5612
1.58453
1.60751
1.63013
1.65237
1.67422
1.69564
1.71661
1.73712
1.75714
1.77666
1.79564
1.81409
1.83196
1.84926
1.86596
1.88205
1.89752
1.91235
1.92653
1.94004
1.95288
1.96505
1.97652
1.98729
1.99736
2.00672
2.01537
2.0233
2.03052
2.03701
2.04277
2.04781
2.05213
2.05572
2.05859
2.06075
2.06215
2.06281
2.06296
2.06242
2.06115
2.05921
2.05659
2.05331
2.04938
2.04482
2.03963
2.03384
2.02747
2.02052
2.01302
2.00498
1.99642
1.98735
1.97782
1.96783
1.9574
1.94656
1.93533
1.92376
1.91187
1.89971
1.8873
1.87469
1.86191
1.84897
1.83592
1.82275
1.80949
1.79615
1.78276
1.76935
1.75594
1.74255
1.72921
1.71593
1.70271
1.68954
1.6764
1.66324
1.64992
1.63629
1.62069
1.59786
2.77727e-06
8.33174e-05
0.000624213
0.00235806
0.00648195
0.0119907
0.0171016
0.0211769
0.0240605
0.0258588
0.0267881
0.0270462
0.0268984
0.0264564
0.0257503
0.0249208
0.0240209
0.0230878
0.0221431
0.0211945
0.0202378
0.0192628
0.0182508
0.0171777
0.0160165
0.0147368
0.0133361
0.0118614
0.0104074
0.0088999
0.00745847
0.00782585
0.0116553
0.0237949
0.044139
0.0638193
0.0803231
0.0934009
0.104567
0.115531
0.12721
0.139856
0.15349
0.169003
0.187735
0.209384
0.233929
0.261085
0.290476
0.321844
0.354716
0.388947
0.424182
0.460151
0.496477
0.532917
0.569283
0.605481
0.641402
0.676986
0.712195
0.746972
0.781311
0.815243
0.848796
0.882019
0.914952
0.947645
0.980134
1.01246
1.04465
1.07672
1.1087
1.1406
1.17242
1.20417
1.23583
1.2674
1.29887
1.33024
1.36148
1.39258
1.42353
1.45431
1.4849
1.5153
1.54547
1.57542
1.60511
1.63454
1.66369
1.69254
1.72108
1.74929
1.77716
1.80467
1.8318
1.85852
1.88483
1.91068
1.93606
1.96095
1.98531
2.00913
2.03237
2.05502
2.07705
2.09844
2.11916
2.13921
2.15856
2.17718
2.19508
2.21222
2.2286
2.24421
2.25902
2.27303
2.28624
2.29862
2.31019
2.32092
2.33082
2.33987
2.34809
2.35546
2.36199
2.36767
2.37251
2.3765
2.37965
2.38197
2.38338
2.38394
2.3839
2.38299
2.38126
2.37873
2.37542
2.37135
2.36652
2.36096
2.35468
2.3477
2.34003
2.33171
2.32274
2.31315
2.30296
2.29219
2.28087
2.26902
2.25667
2.24384
2.23057
2.21689
2.20284
2.18846
2.17379
2.15888
2.14374
2.12843
2.11296
2.09735
2.08163
2.06581
2.04992
2.03399
2.01806
2.00215
1.98629
1.97051
1.95483
1.93924
1.92376
1.90838
1.89302
1.87757
1.86067
1.83845
8.84334e-06
0.000258482
0.00183806
0.00650114
0.0145117
0.0215052
0.0264564
0.0294938
0.0310729
0.031656
0.0315782
0.0311316
0.0302972
0.0292847
0.0281774
0.0270389
0.0259121
0.0248232
0.0237836
0.022792
0.0218378
0.0209044
0.0199661
0.0189921
0.0179474
0.0167688
0.0154019
0.0138223
0.012425
0.0124185
0.014672
0.023189
0.0412386
0.0652289
0.0882062
0.106914
0.120715
0.130917
0.139769
0.14909
0.159825
0.173434
0.190421
0.210676
0.234459
0.261309
0.290692
0.322053
0.354926
0.389034
0.42411
0.45998
0.496464
0.53342
0.570699
0.608195
0.64581
0.68347
0.721097
0.75862
0.795991
0.83317
0.870142
0.906908
0.94348
0.979878
1.01613
1.05226
1.0883
1.12427
1.16019
1.19608
1.23194
1.26778
1.30359
1.33937
1.3751
1.41078
1.44637
1.48187
1.51726
1.55251
1.58761
1.62253
1.65726
1.69177
1.72604
1.76006
1.79381
1.82726
1.8604
1.89321
1.92567
1.95776
1.98946
2.02075
2.05161
2.082
2.1119
2.14128
2.17012
2.19839
2.22606
2.25311
2.2795
2.30521
2.33021
2.35448
2.37799
2.40072
2.42264
2.44374
2.464
2.4834
2.50192
2.51955
2.53627
2.55208
2.56695
2.58089
2.59388
2.60592
2.61701
2.62714
2.6363
2.6445
2.65174
2.65801
2.66331
2.66765
2.67104
2.67347
2.67485
2.67534
2.67503
2.67376
2.67156
2.66845
2.66447
2.65961
2.65391
2.64737
2.64002
2.63187
2.62296
2.6133
2.60291
2.59181
2.58004
2.56761
2.55457
2.54093
2.52672
2.51197
2.49672
2.481
2.46486
2.44834
2.43148
2.41434
2.39693
2.37932
2.36151
2.34355
2.32544
2.30721
2.2889
2.27054
2.25216
2.23381
2.21552
2.19732
2.17924
2.1613
2.14354
2.12598
2.1086
2.0913
2.07293
2.0504
2.8387e-05
0.000775803
0.00498492
0.015136
0.024667
0.0307248
0.0340416
0.035594
0.0360229
0.0357716
0.0350158
0.0338756
0.0325423
0.0311211
0.0296922
0.0283132
0.0270193
0.0258271
0.024737
0.0237373
0.0228086
0.0219216
0.0210417
0.0201223
0.0192216
0.0184021
0.0178406
0.0180031
0.0200787
0.0264389
0.04003
0.0617344
0.0859245
0.10855
0.126697
0.139403
0.148182
0.155531
0.163545
0.174471
0.188989
0.207171
0.229054
0.254277
0.282406
0.31271
0.344612
0.377708
0.411753
0.446604
0.482152
0.518331
0.555086
0.592365
0.630112
0.668273
0.706783
0.745569
0.784565
0.82371
0.86295
0.902242
0.941556
0.980878
1.0202
1.05953
1.09888
1.13825
1.17767
1.21714
1.25668
1.29629
1.33596
1.37569
1.41547
1.45527
1.49509
1.53488
1.57463
1.6143
1.65388
1.69332
1.73262
1.77173
1.81064
1.84933
1.88776
1.9259
1.96375
2.00127
2.03845
2.07526
2.11168
2.14768
2.18325
2.21835
2.25295
2.28703
2.32056
2.3535
2.38582
2.4175
2.44851
2.47881
2.50837
2.53716
2.56515
2.59231
2.61862
2.64404
2.66855
2.69213
2.71475
2.7364
2.75706
2.77671
2.79533
2.81291
2.82944
2.84491
2.85932
2.87265
2.8849
2.89607
2.90616
2.91516
2.92307
2.9299
2.93564
2.9403
2.94388
2.9464
2.94774
2.94811
2.94751
2.94586
2.94317
2.93948
2.9348
2.92915
2.92256
2.91503
2.9066
2.89729
2.88712
2.87612
2.86431
2.85171
2.83835
2.82427
2.8095
2.79407
2.77801
2.76135
2.74412
2.72637
2.70815
2.68951
2.67049
2.65113
2.63147
2.61157
2.59145
2.57114
2.55066
2.53005
2.50933
2.48855
2.46774
2.44696
2.42624
2.40563
2.38516
2.36488
2.34483
2.32506
2.30558
2.28633
2.26627
2.24278
8.53028e-05
0.00213483
0.0117832
0.0253441
0.0336057
0.0379412
0.0399552
0.0405258
0.0402015
0.0392253
0.0377798
0.036091
0.0342972
0.0325078
0.0308024
0.0292334
0.027826
0.0265843
0.0254966
0.0245424
0.0236946
0.0229217
0.0221519
0.0214638
0.0210151
0.0213436
0.0234653
0.0290263
0.0407215
0.0588627
0.0805955
0.102563
0.122713
0.138909
0.15033
0.158251
0.165229
0.173855
0.185575
0.201039
0.22032
0.243126
0.269041
0.297441
0.327702
0.359257
0.391771
0.425073
0.459086
0.493779
0.529139
0.565169
0.601871
0.639241
0.677259
0.715885
0.755072
0.794769
0.834917
0.875458
0.916338
0.957513
0.998946
1.04061
1.08249
1.12457
1.16686
1.20935
1.25204
1.29494
1.33804
1.38134
1.42482
1.46846
1.51225
1.55613
1.60009
1.64408
1.68807
1.73201
1.77587
1.81961
1.86321
1.90662
1.94981
1.99277
2.03544
2.07782
2.11985
2.16154
2.20283
2.24372
2.28417
2.32416
2.36366
2.40263
2.44105
2.47889
2.5161
2.55266
2.58852
2.62367
2.65806
2.69166
2.72443
2.75634
2.78735
2.81744
2.84656
2.8747
2.90181
2.92788
2.95287
2.97678
2.99957
3.02123
3.04174
3.06109
3.07926
3.09624
3.11203
3.12662
3.14001
3.15219
3.16316
3.17292
3.18147
3.18881
3.19495
3.19988
3.20362
3.20617
3.20743
3.20764
3.20673
3.20465
3.20144
3.19713
3.19172
3.18525
3.17773
3.16919
3.15965
3.14914
3.13769
3.12532
3.11206
3.09794
3.08299
3.06724
3.05072
3.03348
3.01555
2.99696
2.97774
2.95796
2.93765
2.91687
2.89567
2.8741
2.85219
2.83
2.80756
2.78489
2.76204
2.73903
2.7159
2.69269
2.66945
2.64623
2.62308
2.60005
2.57718
2.55453
2.53215
2.51012
2.48845
2.46712
2.44517
2.42022
0.000221436
0.00503298
0.0213755
0.0344337
0.0411026
0.0442191
0.0453046
0.0451127
0.0440799
0.042411
0.0403877
0.0381952
0.0359861
0.0338805
0.0319623
0.0302828
0.0288649
0.0277131
0.026819
0.0261619
0.0257751
0.0257469
0.0262236
0.0275017
0.0300947
0.0350111
0.0441266
0.0581148
0.0753313
0.094336
0.113307
0.130364
0.144317
0.154921
0.163225
0.171225
0.180961
0.193742
0.210127
0.230073
0.253233
0.279092
0.30709
0.336656
0.367328
0.398809
0.430973
0.463789
0.497274
0.531458
0.566381
0.602083
0.638594
0.675926
0.714073
0.753021
0.792739
0.833187
0.874317
0.91608
0.958426
1.00131
1.04469
1.08855
1.13284
1.17756
1.22269
1.26822
1.31415
1.36045
1.40712
1.45414
1.50148
1.5491
1.59696
1.64503
1.69324
1.74155
1.7899
1.83823
1.8865
1.93467
1.98268
2.0305
2.0781
2.12543
2.17247
2.21917
2.2655
2.31143
2.35694
2.40199
2.44655
2.4906
2.5341
2.57702
2.61931
2.66095
2.7019
2.74212
2.78158
2.82022
2.85802
2.89494
2.93094
2.96598
3.00002
3.03303
3.06497
3.09581
3.12551
3.15405
3.18139
3.20752
3.23241
3.25604
3.2784
3.29946
3.31922
3.33766
3.35478
3.37058
3.38504
3.39817
3.40996
3.42041
3.42953
3.43732
3.44377
3.4489
3.45273
3.45524
3.45638
3.45635
3.45505
3.45249
3.4487
3.4437
3.43751
3.43016
3.42166
3.41206
3.40137
3.38962
3.37684
3.36307
3.34833
3.33265
3.31607
3.29863
3.28035
3.26128
3.24145
3.22091
3.19969
3.17784
3.15544
3.13252
3.10915
3.08535
3.06119
3.0367
3.01193
2.98692
2.96168
2.93627
2.91072
2.88508
2.85941
2.83375
2.80816
2.78269
2.75741
2.73236
2.70761
2.68326
2.65932
2.6358
2.6118
2.58508
0.000491898
0.0101319
0.0309918
0.0425751
0.0479987
0.050244
0.0506113
0.0497646
0.0480561
0.0458041
0.0432552
0.0406227
0.0380829
0.0357722
0.0337833
0.0321724
0.0309615
0.0301381
0.0297487
0.0297078
0.0302258
0.0316125
0.0345067
0.0396445
0.047701
0.0588954
0.0725517
0.0878414
0.103934
0.119665
0.133932
0.146109
0.156314
0.165347
0.174649
0.185702
0.199573
0.216658
0.236881
0.259875
0.285175
0.312285
0.34075
0.370189
0.400357
0.43114
0.462531
0.49457
0.52732
0.56085
0.595228
0.63051
0.666733
0.703929
0.742111
0.78128
0.821419
0.862503
0.904498
0.947364
0.991059
1.03554
1.08078
1.12673
1.17338
1.22068
1.26863
1.3172
1.36637
1.41612
1.46642
1.51723
1.56852
1.62022
1.67229
1.72466
1.77726
1.83001
1.88286
1.93572
1.98853
2.04124
2.09379
2.14614
2.19825
2.25007
2.30156
2.35267
2.40337
2.45363
2.50341
2.55269
2.60143
2.64958
2.69713
2.74402
2.79021
2.83568
2.88039
2.92427
2.96731
3.00944
3.05063
3.09084
3.13004
3.16817
3.20519
3.24108
3.27578
3.30925
3.34147
3.3724
3.40202
3.43029
3.45719
3.48271
3.50681
3.52949
3.55074
3.57053
3.58887
3.60576
3.62119
3.63516
3.64766
3.6587
3.66828
3.6764
3.68307
3.6883
3.6921
3.69447
3.69541
3.69502
3.69326
3.69013
3.68567
3.6799
3.67285
3.66455
3.65501
3.64427
3.63236
3.61932
3.60516
3.58994
3.57368
3.55641
3.53817
3.519
3.49893
3.478
3.45625
3.43373
3.41049
3.38658
3.36207
3.33701
3.31146
3.28545
3.25903
3.23225
3.20516
3.17779
3.15018
3.12236
3.09439
3.06633
3.03823
3.01013
2.9821
2.9542
2.92648
2.89902
2.87188
2.84516
2.8189
2.79312
2.76698
2.73856
0.000932202
0.0173559
0.0393571
0.049975
0.0547078
0.0563759
0.056211
0.0547989
0.0525591
0.0498257
0.0468833
0.0439783
0.0413135
0.0390442
0.0372835
0.0361216
0.0356471
0.0357038
0.0365188
0.0383112
0.0413999
0.0461144
0.0526907
0.0612684
0.071748
0.0838121
0.0968791
0.110242
0.123235
0.135334
0.146326
0.156382
0.166179
0.176723
0.189029
0.20379
0.221284
0.241405
0.263846
0.28821
0.314107
0.34118
0.369142
0.397789
0.427021
0.456829
0.487264
0.518402
0.550334
0.583151
0.616927
0.651731
0.687617
0.724629
0.762796
0.802132
0.84264
0.884308
0.927118
0.971042
1.01605
1.06211
1.10918
1.15724
1.20625
1.25618
1.30701
1.35869
1.4112
1.4645
1.51855
1.57329
1.62866
1.68459
1.74099
1.7978
1.85492
1.91226
1.96973
2.02724
2.08471
2.14207
2.19927
2.25624
2.31294
2.36932
2.42532
2.4809
2.53601
2.59063
2.64471
2.69822
2.75113
2.80339
2.85496
2.90579
2.95586
3.0051
3.0535
3.10098
3.14752
3.19305
3.23754
3.28094
3.32321
3.36431
3.4042
3.44282
3.48013
3.5161
3.55069
3.58386
3.61558
3.64583
3.67458
3.70181
3.7275
3.75162
3.77417
3.79515
3.81454
3.83235
3.84858
3.86321
3.87626
3.88772
3.8976
3.9059
3.91262
3.91779
3.92143
3.92353
3.92412
3.92325
3.92089
3.91708
3.91184
3.90521
3.8972
3.88785
3.87718
3.86523
3.85204
3.83763
3.82204
3.80531
3.78748
3.76859
3.74866
3.72773
3.70585
3.68304
3.65937
3.63486
3.6096
3.58363
3.55702
3.52983
3.50212
3.47391
3.44527
3.41623
3.38684
3.35713
3.32715
3.29696
3.26661
3.23615
3.20564
3.17514
3.14469
3.11437
3.08423
3.05435
3.02481
2.99571
2.96709
2.939
2.91066
2.88038
0.00148536
0.0247161
0.0473292
0.0574574
0.0617227
0.0629565
0.0623738
0.0605278
0.0578969
0.0548745
0.0517951
0.0489386
0.046537
0.0447622
0.0438662
0.0436951
0.044392
0.0460251
0.0487483
0.0527042
0.0580058
0.0647066
0.072769
0.0820657
0.0923471
0.103243
0.114351
0.125323
0.135969
0.146258
0.156413
0.16695
0.178548
0.191813
0.207165
0.224739
0.244442
0.266026
0.289191
0.313641
0.339119
0.365412
0.392371
0.419911
0.448022
0.476745
0.506162
0.536374
0.567482
0.59958
0.632759
0.667098
0.702664
0.739514
0.777691
0.817226
0.858136
0.90043
0.944105
0.989152
1.03555
1.08328
1.1323
1.18258
1.23409
1.2868
1.34065
1.39562
1.45165
1.50869
1.56668
1.62555
1.6852
1.74553
1.80644
1.86784
1.92962
1.99166
2.05386
2.11611
2.17832
2.2404
2.30229
2.36392
2.42523
2.48617
2.54668
2.60669
2.66618
2.72509
2.78341
2.84108
2.89807
2.95433
3.00981
3.06446
3.11825
3.17113
3.22304
3.27395
3.3238
3.37254
3.42012
3.46649
3.51161
3.55544
3.59794
3.63905
3.67873
3.71693
3.75362
3.78877
3.82234
3.8543
3.88463
3.9133
3.94029
3.96559
3.98919
4.01108
4.03126
4.04974
4.06651
4.08157
4.09492
4.10657
4.11652
4.12477
4.13134
4.13625
4.13952
4.14117
4.14122
4.13973
4.13661
4.13197
4.12581
4.11818
4.10909
4.09858
4.08669
4.07345
4.05888
4.04304
4.02596
4.00768
3.98824
3.96768
3.94604
3.92335
3.89965
3.87497
3.84936
3.82289
3.79562
3.76762
3.73895
3.70967
3.67984
3.64949
3.61867
3.58742
3.55578
3.52379
3.49151
3.459
3.42632
3.39352
3.36067
3.32781
3.29501
3.26232
3.2298
3.19754
3.16562
3.13415
3.10318
3.07278
3.04222
3.01003
0.00220626
0.0313618
0.0547857
0.0649453
0.0690433
0.0700457
0.0691655
0.0669995
0.0641396
0.0610727
0.058189
0.055783
0.0541008
0.0533723
0.0533652
0.0544047
0.0564202
0.0594677
0.0635768
0.0687501
0.0749591
0.0821302
0.0901398
0.0988251
0.107996
0.117478
0.127144
0.136941
0.146933
0.157345
0.168532
0.180893
0.194767
0.210357
0.22771
0.246733
0.267248
0.289039
0.311901
0.335652
0.360153
0.385303
0.411049
0.437381
0.464338
0.491995
0.520449
0.549804
0.580171
0.611651
0.644345
0.67834
0.71372
0.750556
0.7889
0.828797
0.870284
0.913388
0.958124
1.0045
1.0525
1.10212
1.15334
1.20612
1.26044
1.31623
1.37345
1.43203
1.49192
1.55303
1.61529
1.67857
1.74275
1.8077
1.87328
1.93937
2.00587
2.07266
2.1396
2.20658
2.27349
2.34025
2.40679
2.47301
2.53886
2.60425
2.66912
2.73342
2.79711
2.86015
2.9225
2.98413
3.04498
3.105
3.16414
3.22235
3.27957
3.33578
3.39091
3.44491
3.49774
3.54933
3.59963
3.6486
3.6962
3.74237
3.78709
3.83029
3.87194
3.91198
3.95037
3.98709
4.0221
4.05538
4.08689
4.11662
4.14453
4.17061
4.19488
4.21731
4.23792
4.25671
4.27368
4.28883
4.30216
4.31369
4.32341
4.33132
4.33745
4.34183
4.34449
4.34544
4.34476
4.3424
4.33834
4.33267
4.32544
4.31665
4.30635
4.29457
4.28134
4.2667
4.25068
4.23333
4.2147
4.19481
4.17373
4.15148
4.12812
4.10368
4.07819
4.05165
4.02414
3.99574
3.96652
3.93655
3.9059
3.87461
3.84274
3.81033
3.77742
3.74406
3.71026
3.67607
3.64158
3.60685
3.57194
3.53691
3.50182
3.46671
3.43164
3.39665
3.36183
3.32726
3.29304
3.25927
3.226
3.19333
3.16057
3.12651
0.0030663
0.0375052
0.0623357
0.0726838
0.0766841
0.0775162
0.076401
0.0739844
0.070978
0.0680488
0.0656648
0.0641106
0.0634709
0.0634953
0.0645438
0.0665693
0.0695187
0.0733589
0.0780554
0.0835617
0.0898131
0.0967322
0.104238
0.112261
0.120749
0.129677
0.13907
0.149036
0.159739
0.171386
0.184184
0.198294
0.21379
0.23066
0.248822
0.268148
0.288496
0.309729
0.331737
0.354431
0.377761
0.401703
0.426269
0.451498
0.477458
0.504242
0.531956
0.560708
0.5906
0.621741
0.654237
0.688189
0.723689
0.760819
0.799652
0.840256
0.882686
0.926992
0.973209
1.02136
1.07145
1.12347
1.17741
1.23324
1.29091
1.35035
1.41151
1.47427
1.53853
1.60418
1.67109
1.7391
1.80806
1.87777
1.94808
2.01884
2.08995
2.1613
2.23279
2.3043
2.37571
2.44693
2.51789
2.58849
2.65863
2.72819
2.7971
2.86535
2.9329
2.99971
3.06572
3.1309
3.1952
3.25855
3.32089
3.38217
3.44235
3.50137
3.55919
3.61575
3.67101
3.7249
3.77736
3.82836
3.87785
3.9258
3.97215
4.01686
4.05989
4.10118
4.1407
4.17842
4.2143
4.24833
4.28048
4.31072
4.33904
4.36542
4.38986
4.41236
4.43292
4.45156
4.46826
4.48305
4.49593
4.5069
4.51599
4.52319
4.52853
4.53206
4.5338
4.53378
4.53212
4.52859
4.52336
4.51647
4.50796
4.49785
4.48618
4.47298
4.4583
4.44216
4.42461
4.40569
4.38545
4.36393
4.34118
4.31724
4.29217
4.266
4.23877
4.21042
4.18108
4.15085
4.11978
4.08796
4.05542
4.02223
3.98844
3.95409
3.91924
3.8839
3.84806
3.81182
3.77526
3.73846
3.70147
3.66436
3.62717
3.58996
3.55275
3.51561
3.47862
3.44186
3.40545
3.36948
3.33402
3.29917
3.2643
3.22848
0.00397273
0.0436389
0.0696817
0.0803474
0.0843304
0.0850258
0.0835501
0.0808359
0.0778968
0.0754323
0.073855
0.073214
0.0731971
0.0740662
0.0758464
0.0784869
0.0819216
0.0860973
0.0909711
0.0965057
0.102668
0.10944
0.116806
0.124768
0.133353
0.14262
0.152654
0.16355
0.175417
0.188345
0.20238
0.21753
0.233758
0.250991
0.269143
0.288122
0.307853
0.328274
0.349351
0.371067
0.393431
0.416466
0.440228
0.464787
0.490213
0.516596
0.544049
0.572684
0.602614
0.633954
0.666818
0.701318
0.737561
0.775646
0.815665
0.857703
0.901839
0.948145
0.996677
1.04747
1.10053
1.15585
1.2134
1.27315
1.33503
1.39897
1.46483
1.53247
1.60172
1.67239
1.74426
1.81716
1.89091
1.9653
2.04012
2.11517
2.19039
2.26576
2.34123
2.41675
2.49213
2.56729
2.64216
2.71661
2.7905
2.86369
2.93614
3.00784
3.07871
3.14872
3.2178
3.28592
3.35301
3.41902
3.48387
3.54751
3.60989
3.67098
3.73072
3.78907
3.84597
3.90135
3.95518
4.0074
4.05798
4.10688
4.15407
4.1995
4.24311
4.28488
4.32475
4.3627
4.3987
4.43274
4.4648
4.49485
4.5229
4.54892
4.5729
4.59485
4.61475
4.63263
4.64849
4.66236
4.67424
4.68414
4.69209
4.69812
4.70224
4.70451
4.70495
4.70369
4.70057
4.69561
4.68893
4.68056
4.67054
4.65889
4.64566
4.63088
4.61459
4.59684
4.57765
4.55707
4.53515
4.51194
4.48749
4.46184
4.43505
4.40716
4.37821
4.34817
4.31715
4.28523
4.25247
4.21893
4.18467
4.14974
4.11419
4.07808
4.04144
4.00432
3.96663
3.92854
3.89012
3.85146
3.8126
3.77361
3.73452
3.69539
3.65625
3.61714
3.57815
3.5394
3.50098
3.46298
3.42547
3.3886
3.35175
3.31435
0.00491883
0.0497149
0.0768711
0.0877759
0.0916918
0.0922077
0.0903324
0.0874993
0.0848823
0.0830923
0.0822902
0.0821516
0.0827716
0.0841846
0.0864334
0.0894491
0.0931755
0.0975741
0.102626
0.108327
0.114681
0.121704
0.129424
0.137887
0.147141
0.157243
0.168243
0.180183
0.19307
0.206898
0.221655
0.237298
0.253762
0.270986
0.288922
0.307533
0.326803
0.346731
0.367324
0.388609
0.410637
0.433481
0.457258
0.482003
0.507726
0.53456
0.56268
0.592185
0.623184
0.655795
0.69014
0.726342
0.76452
0.804786
0.847243
0.891992
0.939123
0.988716
1.04085
1.09556
1.1528
1.21255
1.27474
1.3393
1.40616
1.47521
1.5463
1.61923
1.69375
1.76954
1.84622
1.92364
2.00167
2.08017
2.15889
2.23762
2.31639
2.39521
2.47403
2.55271
2.6311
2.70924
2.78714
2.86453
2.94125
3.01725
3.09243
3.16671
3.24
3.31225
3.38341
3.45344
3.52228
3.58985
3.65609
3.72095
3.78439
3.84639
3.90689
3.96586
4.02323
4.07895
4.13297
4.18526
4.23578
4.28451
4.33142
4.37647
4.41961
4.46079
4.49998
4.53715
4.57229
4.60539
4.63642
4.66538
4.69226
4.71705
4.73973
4.76031
4.77881
4.79523
4.80959
4.82193
4.83224
4.84054
4.84686
4.85122
4.85365
4.85423
4.85311
4.85011
4.84521
4.83855
4.83016
4.82009
4.80836
4.79502
4.7801
4.76364
4.74567
4.72625
4.7054
4.68317
4.65961
4.63476
4.60867
4.58139
4.55298
4.52348
4.49293
4.4614
4.42892
4.39554
4.3613
4.32627
4.2905
4.25404
4.21694
4.17927
4.14106
4.10237
4.06313
4.02347
3.98348
3.94323
3.90276
3.86213
3.8214
3.78061
3.73979
3.69895