/*--------------------------------*- C++ -*----------------------------------*\
  =========                 |
  \\      /  F ield         | OpenFOAM: The Open Source CFD Toolbox
   \\    /   O peration     | Website:  https://openfoam.org
    \\  /    A nd           | Version:  8
     \\/     M anipulation  |
\*---------------------------------------------------------------------------*/
FoamFile
{
    version     2.0;
    format      ascii;
    class       volVectorField;
    location    "1400";
    object      U;
}
// * * * * * * * * * * * * * * * * * * * * * * * * * * * * * * * * * * * * * //

dimensions      [0 1 -1 0 0 0 0];

internalField   nonuniform List<vector> 
12225
(
(9.79046 0.0462214 0)
(9.35592 0.0904755 0)
(8.93011 0.103941 0)
(8.52333 0.102593 0)
(8.16178 0.0995122 0)
(7.84482 0.0977367 0)
(7.58627 0.085751 0)
(7.37675 0.0649055 0)
(7.20833 0.0349261 0)
(7.07299 0.0101265 0)
(6.9719 -0.00314328 0)
(6.88302 -0.0025374 0)
(6.8052 0.00352503 0)
(6.73609 0.0127804 0)
(6.6778 0.0106439 0)
(6.63734 0.000171525 0)
(6.60435 -0.00933586 0)
(6.60285 -0.0172917 0)
(10.0616 0.0550816 0)
(10.2055 0.086389 0)
(10.281 0.0845514 0)
(10.2879 0.0824374 0)
(10.2665 0.079311 0)
(10.208 0.0729719 0)
(10.1234 0.0663702 0)
(10.0246 0.0629052 0)
(9.92849 0.0614639 0)
(9.84321 0.0583543 0)
(9.75944 0.053778 0)
(9.68428 0.0489465 0)
(9.60624 0.0441737 0)
(9.532 0.0377535 0)
(9.45498 0.0323753 0)
(9.389 0.0299066 0)
(9.32438 0.0248317 0)
(9.26524 0.0177576 0)
(10.0212 0.0419912 0)
(10.0719 0.066885 0)
(10.1195 0.0720174 0)
(10.1539 0.0782496 0)
(10.1835 0.083794 0)
(10.2092 0.0864097 0)
(10.2274 0.0845897 0)
(10.2365 0.0796263 0)
(10.237 0.0728441 0)
(10.2311 0.0666864 0)
(10.2194 0.0619416 0)
(10.2062 0.0597611 0)
(10.1923 0.0588246 0)
(10.1787 0.0578736 0)
(10.1641 0.0544126 0)
(10.1478 0.0485579 0)
(10.1293 0.0416035 0)
(10.1075 0.0345042 0)
(10.0092 0.0320392 0)
(10.0408 0.0565535 0)
(10.0716 0.0657761 0)
(10.0932 0.0722723 0)
(10.1125 0.0766993 0)
(10.1319 0.0784538 0)
(10.1501 0.0769966 0)
(10.1655 0.073179 0)
(10.1769 0.0676643 0)
(10.1845 0.0624765 0)
(10.1892 0.0585366 0)
(10.1926 0.0563849 0)
(10.1962 0.0551666 0)
(10.2005 0.0536847 0)
(10.2047 0.0508019 0)
(10.2075 0.0467136 0)
(10.2084 0.0417211 0)
(10.2071 0.0364954 0)
(10.0048 0.0245559 0)
(10.0287 0.0496136 0)
(10.0528 0.0601962 0)
(10.0708 0.0664628 0)
(10.0866 0.0707146 0)
(10.1024 0.0725489 0)
(10.1175 0.0716401 0)
(10.1307 0.0687082 0)
(10.1412 0.0644914 0)
(10.1492 0.0602771 0)
(10.1553 0.0568187 0)
(10.1606 0.0546007 0)
(10.1662 0.053094 0)
(10.1722 0.051343 0)
(10.1782 0.0485647 0)
(10.1834 0.0448269 0)
(10.1873 0.0405373 0)
(10.1898 0.0362152 0)
(10.003 0.0195378 0)
(10.0211 0.0429413 0)
(10.041 0.0541357 0)
(10.0574 0.060744 0)
(10.0719 0.0652009 0)
(10.0862 0.0672385 0)
(10.0997 0.0667072 0)
(10.1115 0.0643161 0)
(10.1212 0.0608504 0)
(10.129 0.0572974 0)
(10.1354 0.0542316 0)
(10.1411 0.0519633 0)
(10.1468 0.0501298 0)
(10.1527 0.048106 0)
(10.1585 0.0454091 0)
(10.1636 0.042053 0)
(10.1679 0.0383411 0)
(10.1712 0.0346663 0)
(10.0021 0.0157642 0)
(10.0156 0.0370094 0)
(10.0322 0.048254 0)
(10.0472 0.0550481 0)
(10.0607 0.0595699 0)
(10.0739 0.061744 0)
(10.0864 0.0615621 0)
(10.0974 0.059679 0)
(10.1067 0.0568535 0)
(10.1144 0.0538458 0)
(10.121 0.0511187 0)
(10.1269 0.0488789 0)
(10.1326 0.0469027 0)
(10.1384 0.0447716 0)
(10.1438 0.0421923 0)
(10.1488 0.0391671 0)
(10.153 0.0359181 0)
(10.1565 0.0327016 0)
(10.0015 0.0130834 0)
(10.0122 0.0324214 0)
(10.0266 0.0433545 0)
(10.0403 0.0499769 0)
(10.0528 0.054339 0)
(10.065 0.0565444 0)
(10.0766 0.0566775 0)
(10.087 0.0552949 0)
(10.0959 0.05308 0)
(10.1036 0.0505892 0)
(10.1104 0.0482042 0)
(10.1165 0.0460612 0)
(10.1224 0.0440475 0)
(10.128 0.041889 0)
(10.1333 0.0394199 0)
(10.1381 0.0366356 0)
(10.1423 0.0336986 0)
(10.1459 0.0307719 0)
(10.0012 0.0110637 0)
(10.0098 0.028654 0)
(10.0223 0.0392404 0)
(10.0348 0.0457881 0)
(10.0466 0.0500694 0)
(10.0581 0.0523205 0)
(10.069 0.0526481 0)
(10.079 0.0515567 0)
(10.0877 0.0496562 0)
(10.0953 0.0474384 0)
(10.102 0.0452425 0)
(10.1082 0.0431886 0)
(10.114 0.0411996 0)
(10.1195 0.0390868 0)
(10.1247 0.0367277 0)
(10.1294 0.0341417 0)
(10.1336 0.0314409 0)
(10.1372 0.0287601 0)
(10.0009 0.0092936 0)
(10.0077 0.0249731 0)
(10.0184 0.0349298 0)
(10.0298 0.0412569 0)
(10.0407 0.0453604 0)
(10.0514 0.0476026 0)
(10.0616 0.0480971 0)
(10.0711 0.0473016 0)
(10.0795 0.0457304 0)
(10.0869 0.0438197 0)
(10.0936 0.041838 0)
(10.0997 0.0399053 0)
(10.1055 0.0379792 0)
(10.1109 0.0359302 0)
(10.1159 0.033709 0)
(10.1205 0.0313157 0)
(10.1245 0.028846 0)
(10.1282 0.0263839 0)
(10.0007 0.00771613 0)
(10.0061 0.021346 0)
(10.0151 0.0304485 0)
(10.0252 0.0364125 0)
(10.0352 0.0402631 0)
(10.045 0.0424325 0)
(10.0545 0.0430667 0)
(10.0634 0.0425359 0)
(10.0714 0.0412926 0)
(10.0786 0.0396782 0)
(10.0852 0.0379296 0)
(10.0912 0.0361438 0)
(10.0968 0.0343044 0)
(10.102 0.0323563 0)
(10.1069 0.0302819 0)
(10.1113 0.0280867 0)
(10.1153 0.0258371 0)
(10.1189 0.0236159 0)
(10.0005 0.00630699 0)
(10.0048 0.0178753 0)
(10.0123 0.0259116 0)
(10.0212 0.0313655 0)
(10.0302 0.0348861 0)
(10.0392 0.0369215 0)
(10.0479 0.0376309 0)
(10.0561 0.0373283 0)
(10.0637 0.0363544 0)
(10.0706 0.0350192 0)
(10.077 0.0334853 0)
(10.0828 0.0318599 0)
(10.0882 0.0301287 0)
(10.0932 0.0283235 0)
(10.0979 0.0263983 0)
(10.1022 0.0244186 0)
(10.1061 0.0223904 0)
(10.1096 0.0204029 0)
(10.0004 0.00504151 0)
(10.0038 0.014557 0)
(10.01 0.0213542 0)
(10.0177 0.026145 0)
(10.0258 0.0292515 0)
(10.0339 0.0310802 0)
(10.0418 0.0318037 0)
(10.0494 0.0316574 0)
(10.0565 0.0309154 0)
(10.0631 0.0298068 0)
(10.0692 0.0284826 0)
(10.0748 0.027009 0)
(10.08 0.0254436 0)
(10.0848 0.0237793 0)
(10.0893 0.02206 0)
(10.0934 0.0202803 0)
(10.0972 0.0184958 0)
(10.1007 0.0167293 0)
(10.0003 0.00388578 0)
(10.0031 0.0114099 0)
(10.0081 0.016838 0)
(10.0147 0.0208096 0)
(10.0219 0.0233952 0)
(10.0292 0.0249333 0)
(10.0364 0.0255864 0)
(10.0434 0.0255151 0)
(10.05 0.0249445 0)
(10.0562 0.0240176 0)
(10.062 0.0228808 0)
(10.0674 0.021581 0)
(10.0724 0.0201906 0)
(10.0771 0.018718 0)
(10.0814 0.0172071 0)
(10.0853 0.0156527 0)
(10.089 0.0141009 0)
(10.0923 0.01257 0)
(10.0003 0.00282342 0)
(10.0025 0.00841683 0)
(10.0067 0.0124045 0)
(10.0124 0.0154022 0)
(10.0187 0.0173521 0)
(10.0252 0.0185014 0)
(10.0318 0.0189712 0)
(10.0382 0.0188992 0)
(10.0444 0.0184053 0)
(10.0502 0.0176315 0)
(10.0557 0.0166457 0)
(10.0609 0.0155367 0)
(10.0656 0.0143254 0)
(10.0701 0.013072 0)
(10.0743 0.0117642 0)
(10.0781 0.0104498 0)
(10.0816 0.00911934 0)
(10.0849 0.00782702 0)
(10.0002 0.00181625 0)
(10.0021 0.00552301 0)
(10.0057 0.00800846 0)
(10.0106 0.00990514 0)
(10.0162 0.0111002 0)
(10.0221 0.0117463 0)
(10.028 0.0119384 0)
(10.034 0.0117513 0)
(10.0397 0.0112745 0)
(10.0452 0.0105825 0)
(10.0505 0.00973863 0)
(10.0554 0.00879175 0)
(10.06 0.00777701 0)
(10.0643 0.00672009 0)
(10.0683 0.00563561 0)
(10.0721 0.00454215 0)
(10.0755 0.00344932 0)
(10.0787 0.00237947 0)
(10.0002 0.000815642 0)
(10.0019 0.00260399 0)
(10.005 0.00351682 0)
(10.0094 0.00421969 0)
(10.0145 0.00452967 0)
(10.0199 0.00458407 0)
(10.0254 0.00438173 0)
(10.031 0.00400269 0)
(10.0364 0.00344848 0)
(10.0417 0.00279593 0)
(10.0467 0.00204262 0)
(10.0514 0.00124767 0)
(10.0559 0.000403219 0)
(10.0601 -0.000450847 0)
(10.064 -0.00132446 0)
(10.0676 -0.00218834 0)
(10.071 -0.00305091 0)
(10.0742 -0.00388761 0)
(10.0002 -0.000190383 0)
(10.0018 -0.000359668 0)
(10.0048 -0.000988012 0)
(10.009 -0.00153148 0)
(10.0139 -0.00211491 0)
(10.0191 -0.00272142 0)
(10.0244 -0.00333755 0)
(10.0298 -0.00398968 0)
(10.0351 -0.00464167 0)
(10.0402 -0.0053235 0)
(10.0451 -0.0059954 0)
(10.0497 -0.00668675 0)
(10.0541 -0.00735996 0)
(10.0582 -0.00804296 0)
(10.0621 -0.00870321 0)
(10.0657 -0.00936368 0)
(10.0691 -0.00999706 0)
(10.0722 -0.010622 0)
(10.0002 -0.00116337 0)
(10.0019 -0.00321589 0)
(10.005 -0.00529173 0)
(10.0094 -0.00698753 0)
(10.0143 -0.00840423 0)
(10.0196 -0.00960598 0)
(10.025 -0.0106222 0)
(10.0304 -0.0115063 0)
(10.0358 -0.0122728 0)
(10.0409 -0.012963 0)
(10.0458 -0.0135837 0)
(10.0505 -0.014162 0)
(10.0548 -0.0146981 0)
(10.059 -0.0152089 0)
(10.0628 -0.0156921 0)
(10.0664 -0.016156 0)
(10.0698 -0.0165991 0)
(10.0729 -0.0170242 0)
(10.0002 -0.00211735 0)
(10.0021 -0.00597525 0)
(10.0057 -0.00941521 0)
(10.0104 -0.012123 0)
(10.0158 -0.0142734 0)
(10.0213 -0.0159649 0)
(10.027 -0.0173162 0)
(10.0326 -0.0183656 0)
(10.0381 -0.0192101 0)
(10.0434 -0.0198712 0)
(10.0484 -0.0204308 0)
(10.0531 -0.0208822 0)
(10.0575 -0.0212884 0)
(10.0617 -0.0216299 0)
(10.0656 -0.0219526 0)
(10.0692 -0.0222355 0)
(10.0726 -0.0225107 0)
(10.0758 -0.0227592 0)
(10.0003 -0.00311361 0)
(10.0026 -0.00880387 0)
(10.0068 -0.0135404 0)
(10.0122 -0.0171489 0)
(10.0181 -0.0198979 0)
(10.0241 -0.0220113 0)
(10.0301 -0.0235977 0)
(10.0361 -0.0247734 0)
(10.0418 -0.0256126 0)
(10.0473 -0.0262369 0)
(10.0525 -0.0266766 0)
(10.0573 -0.0270164 0)
(10.0619 -0.0272518 0)
(10.0661 -0.027451 0)
(10.07 -0.0275911 0)
(10.0737 -0.0277268 0)
(10.0772 -0.0278267 0)
(10.0804 -0.0279334 0)
(10.0004 -0.00422106 0)
(10.0032 -0.0118495 0)
(10.0084 -0.0178133 0)
(10.0147 -0.0221658 0)
(10.0213 -0.0254054 0)
(10.0279 -0.0278363 0)
(10.0344 -0.0295945 0)
(10.0408 -0.0308036 0)
(10.0468 -0.0316128 0)
(10.0526 -0.032137 0)
(10.0579 -0.0324569 0)
(10.063 -0.0326351 0)
(10.0676 -0.0327172 0)
(10.072 -0.0327376 0)
(10.076 -0.0327252 0)
(10.0798 -0.0326895 0)
(10.0833 -0.0326519 0)
(10.0865 -0.0326027 0)
(10.0005 -0.00552481 0)
(10.0043 -0.0152597 0)
(10.0107 -0.0223172 0)
(10.0181 -0.0272274 0)
(10.0255 -0.0308484 0)
(10.0327 -0.033516 0)
(10.0399 -0.0353538 0)
(10.0467 -0.0365354 0)
(10.0532 -0.0372572 0)
(10.0592 -0.0376523 0)
(10.0649 -0.0378238 0)
(10.0701 -0.0378287 0)
(10.0749 -0.0377416 0)
(10.0794 -0.0375847 0)
(10.0835 -0.0374104 0)
(10.0874 -0.0372179 0)
(10.0909 -0.0370362 0)
(10.0942 -0.0368557 0)
(10.0007 -0.00713759 0)
(10.0058 -0.0191682 0)
(10.014 -0.027099 0)
(10.0227 -0.0323459 0)
(10.0309 -0.0362512 0)
(10.0389 -0.0390824 0)
(10.0467 -0.0409263 0)
(10.0541 -0.0420218 0)
(10.061 -0.042614 0)
(10.0675 -0.0428504 0)
(10.0734 -0.0428376 0)
(10.0789 -0.042659 0)
(10.0839 -0.0423769 0)
(10.0886 -0.0420508 0)
(10.0928 -0.0417037 0)
(10.0968 -0.0413681 0)
(10.1004 -0.041042 0)
(10.1038 -0.0407477 0)
(10.0011 -0.00920663 0)
(10.0083 -0.0237017 0)
(10.0186 -0.0322381 0)
(10.0286 -0.0375899 0)
(10.0378 -0.0416604 0)
(10.0467 -0.0445612 0)
(10.0554 -0.046345 0)
(10.0635 -0.0473167 0)
(10.071 -0.047751 0)
(10.078 -0.0478013 0)
(10.0843 -0.0475818 0)
(10.0902 -0.0471878 0)
(10.0955 -0.0466993 0)
(10.1004 -0.0461757 0)
(10.1048 -0.0456516 0)
(10.1089 -0.0451497 0)
(10.1127 -0.0446878 0)
(10.1162 -0.0442609 0)
(10.0017 -0.012002 0)
(10.012 -0.0288027 0)
(10.0251 -0.0376694 0)
(10.0369 -0.0431011 0)
(10.0473 -0.047248 0)
(10.0576 -0.0500473 0)
(10.0676 -0.0516278 0)
(10.0768 -0.0523889 0)
(10.0853 -0.0526359 0)
(10.093 -0.0524824 0)
(10.1 -0.0520624 0)
(10.1064 -0.0514743 0)
(10.1122 -0.0508001 0)
(10.1175 -0.050115 0)
(10.1223 -0.0494361 0)
(10.1266 -0.0488019 0)
(10.1306 -0.0482256 0)
(10.1342 -0.0476995 0)
(10.003 -0.0162732 0)
(10.0185 -0.0343913 0)
(10.0359 -0.0428396 0)
(10.0508 -0.0485795 0)
(10.0642 -0.0530914 0)
(10.0774 -0.0558628 0)
(10.0899 -0.0571717 0)
(10.1013 -0.0576075 0)
(10.1116 -0.0574963 0)
(10.1209 -0.0569776 0)
(10.1292 -0.0561914 0)
(10.1367 -0.0552537 0)
(10.1432 -0.0542724 0)
(10.149 -0.0532989 0)
(10.1541 -0.0523867 0)
(10.1585 -0.0515613 0)
(10.1624 -0.0508323 0)
(10.1658 -0.0501623 0)
(10.0078 -0.0245069 0)
(10.0365 -0.0424395 0)
(10.0657 -0.0480798 0)
(10.0898 -0.0534262 0)
(10.1122 -0.0586472 0)
(10.1334 -0.0620392 0)
(10.1523 -0.0637409 0)
(10.1684 -0.0644064 0)
(10.1818 -0.0643469 0)
(10.1929 -0.0637576 0)
(10.2016 -0.0627612 0)
(10.2082 -0.0615094 0)
(10.2128 -0.060139 0)
(10.2157 -0.058718 0)
(10.2171 -0.0573625 0)
(10.2171 -0.0561511 0)
(10.2162 -0.0551289 0)
(10.2145 -0.0543781 0)
(10.0388 -0.0349898 0)
(10.1295 -0.0625181 0)
(10.1971 -0.0679816 0)
(10.2425 -0.0698786 0)
(10.2714 -0.0711356 0)
(10.2864 -0.0710456 0)
(10.2891 -0.0698157 0)
(10.2814 -0.0679525 0)
(10.2656 -0.065731 0)
(10.2439 -0.0632958 0)
(10.2175 -0.060713 0)
(10.1878 -0.0580841 0)
(10.1556 -0.0554639 0)
(10.122 -0.0529338 0)
(10.0874 -0.050597 0)
(10.0524 -0.0485266 0)
(10.0177 -0.0467367 0)
(9.98419 -0.0457048 0)
(9.89309 -0.033626 0)
(9.67359 -0.0654717 0)
(9.4352 -0.0770932 0)
(9.18887 -0.0807171 0)
(8.95366 -0.079611 0)
(8.73749 -0.0755248 0)
(8.54105 -0.0700186 0)
(8.36352 -0.063901 0)
(8.20449 -0.0575783 0)
(8.06297 -0.0514222 0)
(7.93757 -0.0455843 0)
(7.82675 -0.0401415 0)
(7.72908 -0.0351322 0)
(7.64304 -0.0305862 0)
(7.5672 -0.0265195 0)
(7.50019 -0.0230332 0)
(7.43992 -0.0202299 0)
(7.38566 -0.0184524 0)
(-0.00270771 0.00754888 0)
(-0.012659 0.0126016 0)
(-0.0261443 0.0137568 0)
(-0.0404652 0.0117565 0)
(-0.0508652 0.00596168 0)
(-0.0497707 -0.00362664 0)
(-0.0338505 -0.016629 -8.26765e-19)
(-0.00645576 -0.0301805 9.30496e-19)
(0.0291707 -0.0403008 0)
(0.0701071 -0.0452526 5.30304e-19)
(0.113409 -0.0456922 0)
(0.155639 -0.0428024 0)
(0.194049 -0.0376445 0)
(0.226983 -0.0310319 -2.60582e-19)
(0.25357 -0.0235326 0)
(0.273398 -0.0155083 0)
(0.286129 -0.00716306 2.25136e-19)
(0.29197 0.00156845 0)
(0.289831 0.0105884 0)
(0.279885 0.0194277 0)
(0.262764 0.0273305 -2.4082e-19)
(0.239098 0.0335153 0)
(0.209809 0.0372594 -2.84206e-19)
(0.176266 0.037962 0)
(0.140302 0.0352101 0)
(0.104134 0.029013 -4.58793e-19)
(0.0702166 0.0200417 0)
(0.0409133 0.00990097 7.57082e-19)
(0.0180199 0.00103632 0)
(0.0021634 -0.00454423 -1.31655e-18)
(-0.00771564 -0.00726861 0)
(-0.0127978 -0.00914321 0)
(-0.0118925 -0.0113197 0)
(-0.00471498 -0.0147362 0)
(0.00958256 -0.0197919 0)
(0.031389 -0.0254609 8.47405e-19)
(0.0592647 -0.0295987 0)
(0.0892515 -0.0299186 -1.00709e-18)
(0.1164 -0.0258677 0)
(0.136402 -0.018637 7.97931e-19)
(0.14732 -0.0106757 0)
(0.150264 -0.00420805 0)
(0.147842 -0.000663949 -7.84784e-19)
(0.14402 -0.000947199 0)
(0.141984 -0.00604321 -8.11628e-19)
(0.140408 -0.0155431 8.15078e-19)
(0.132782 -0.0246917 0)
(0.111585 -0.023178 8.78784e-19)
(0.0715341 -0.0056046 1.02237e-18)
(0.000653081 0.014465 0)
(-0.0965979 0.0356865 0)
(-0.201863 0.0618043 0)
(-0.319059 0.0872917 0)
(-0.446153 0.106244 0)
(-0.581093 0.108484 -1.94752e-19)
(-0.719087 0.109758 0)
(-0.851321 0.110705 1.50178e-19)
(-0.981424 0.105875 0)
(-1.10418 0.101213 0)
(-1.21884 0.0940415 -1.15627e-19)
(-1.32551 0.0868129 0)
(-1.42352 0.0794349 1.03423e-19)
(-1.51373 0.0709959 0)
(-1.5962 0.0646226 0)
(-1.67209 0.059156 0)
(-1.74214 0.0540927 -8.92616e-20)
(-1.80693 0.0495847 0)
(-1.86707 0.0455961 0)
(-1.92315 0.0421709 -8.29929e-20)
(-1.97568 0.0391407 0)
(-2.02506 0.0364968 -7.98067e-20)
(-2.07166 0.0341413 0)
(-2.11576 0.0320446 0)
(-2.15759 0.0301466 0)
(-2.19737 0.0284216 7.47328e-20)
(-2.23523 0.0268308 0)
(-2.27132 0.025357 0)
(-2.30572 0.0239751 7.15871e-20)
(-2.33853 0.0226741 7.06168e-20)
(-2.36982 0.0214377 0)
(-2.39963 0.0202589 6.87599e-20)
(-2.42801 0.0191268 0)
(-2.455 0.0180365 1.33975e-19)
(-2.48062 0.0169804 0)
(-2.50491 0.0159544 1.30549e-19)
(-2.52789 0.0149526 0)
(-2.54955 0.0139705 -1.272e-19)
(-2.56993 0.0130027 0)
(-2.58901 0.0120441 0)
(-2.60681 0.0110892 0)
(-2.6233 0.0101321 1.20606e-19)
(-2.63849 0.00916555 0)
(-2.65234 0.00818106 -1.17318e-19)
(-2.66485 0.00717049 0)
(-2.67596 0.00612667 1.14016e-19)
(-2.68563 0.0050446 1.12357e-19)
(-2.69381 0.00392715 1.10693e-19)
(-2.70044 0.00279327 0)
(-2.70545 0.00170048 0)
(-2.70877 0.000739259 0)
(-2.71044 -4.4456e-05 0)
(-2.71093 -0.000733197 0)
(-2.71017 -0.00140162 0)
(-2.70819 -0.00205699 0)
(-2.70501 -0.0027058 0)
(-2.7006 -0.00334811 -9.4647e-20)
(-2.69498 -0.00398435 -9.26677e-20)
(-2.68813 -0.00461338 0)
(-2.68006 -0.00523567 0)
(-2.67075 -0.00584924 0)
(-2.66022 -0.00645534 -8.42604e-20)
(-2.64847 -0.00705127 0)
(-2.63548 -0.00763911 0)
(-2.62128 -0.00821564 0)
(-2.60586 -0.0087836 0)
(-2.58923 -0.00933951 7.25147e-20)
(-2.57139 -0.00988655 0)
(-2.55236 -0.0104213 0)
(-2.53214 -0.0109472 -6.47288e-20)
(-2.51074 -0.011461 6.20006e-20)
(-2.48818 -0.0119659 0)
(-2.46445 -0.0124593 5.63336e-20)
(-2.43958 -0.0129439 0)
(-2.41357 -0.0134179 -5.03716e-20)
(-2.38644 -0.0138832 0)
(-2.35821 -0.0143392 0)
(-2.32887 -0.0147871 0)
(-2.29846 -0.0152245 0)
(-2.26698 -0.0156494 0)
(-2.23446 -0.0160567 6.09969e-20)
(-2.20091 -0.016457 5.37226e-20)
(-2.16635 -0.0168361 0)
(-2.13082 -0.0171712 0)
(-2.09434 -0.0174368 0)
(-2.05697 -0.0175609 -2.24643e-20)
(-2.01879 -0.0174824 0)
(-1.97983 -0.0172928 0)
(-1.94003 -0.0174018 0)
(-1.89933 -0.0177432 1.27468e-20)
(-1.85781 -0.0180141 -2.22893e-20)
(-1.8155 -0.0182782 0)
(-1.77246 -0.018529 0)
(-1.72871 -0.0187705 -5.29795e-20)
(-1.68429 -0.0190006 -6.3959e-20)
(-1.63923 -0.0192218 0)
(-1.59357 -0.0194314 0)
(-1.54734 -0.0196327 9.94359e-20)
(-1.50058 -0.0198217 -1.12187e-19)
(-1.4533 -0.0199986 0)
(-1.40553 -0.0201642 0)
(-1.35731 -0.0203145 -1.53639e-19)
(-1.30865 -0.0204536 0)
(-1.2596 -0.0205821 0)
(-1.21018 -0.020698 -2.0062e-19)
(-1.16043 -0.0208071 0)
(-1.11037 -0.0209094 -2.35589e-19)
(-1.06003 -0.021009 0)
(-1.00942 -0.0211088 0)
(-0.958557 -0.021212 0)
(-0.907441 -0.0213218 3.164e-19)
(-0.856077 -0.0214401 0)
(-0.804461 -0.0215693 0)
(-0.75259 -0.0217093 0)
(-0.700461 -0.0218622 0)
(-0.648071 -0.0220282 0)
(-0.595418 -0.0222114 0)
(-0.542493 -0.0224135 5.09421e-19)
(-0.489284 -0.0226397 5.44948e-19)
(-0.435777 -0.0228911 0)
(-0.381953 -0.023171 0)
(-0.327801 -0.0234755 0)
(-0.273319 -0.0238042 -7.18785e-19)
(-0.218531 -0.0241632 0)
(-0.163506 -0.0245387 1.66435e-18)
(-0.108404 -0.0248634 -1.79636e-18)
(-0.0535881 -0.0250006 -1.94361e-18)
(0.000732905 -0.0245435 2.04659e-18)
(0.0512646 -0.0228231 -2.03152e-18)
(0.107251 -0.0203937 1.96861e-18)
(0.122665 -0.00912109 0)
(-0.00014646 0.020214 0)
(-0.00576385 0.035275 0)
(-0.0119796 0.0364838 2.20089e-18)
(-0.01225 0.0270317 0)
(0.00193017 0.0050964 -2.27124e-18)
(0.0315938 -0.0317826 -1.43322e-18)
(0.0707378 -0.0730945 -4.53316e-19)
(0.115377 -0.106958 -3.24108e-19)
(0.161514 -0.127752 0)
(0.20575 -0.135142 -2.12322e-19)
(0.245919 -0.131765 0)
(0.281074 -0.121003 0)
(0.310892 -0.105735 3.16638e-19)
(0.33539 -0.0880368 1.50833e-19)
(0.354794 -0.0692572 -2.94031e-19)
(0.369421 -0.0501668 -2.9059e-19)
(0.379653 -0.0311506 -1.45293e-19)
(0.385677 -0.0123466 0)
(0.388462 0.00625626 0)
(0.387949 0.0245032 0)
(0.383765 0.0420377 -1.53583e-19)
(0.375422 0.0583308 0)
(0.362369 0.0726414 4.91226e-19)
(0.344125 0.0840036 0)
(0.32048 0.091307 0)
(0.291648 0.093484 1.98256e-19)
(0.258492 0.0898088 0)
(0.222605 0.0803214 -2.496e-19)
(0.186256 0.0660213 -5.81795e-19)
(0.15231 0.0486548 3.46059e-19)
(0.123779 0.0298318 0)
(0.103862 0.0104145 0)
(0.0938579 -0.00976031 0)
(0.0955623 -0.0298217 -1.01236e-18)
(0.107475 -0.0496175 -8.60813e-19)
(0.126253 -0.0668119 -3.58656e-19)
(0.1461 -0.0747481 0)
(0.161008 -0.0699321 5.22671e-19)
(0.168207 -0.0549238 0)
(0.167237 -0.0349101 -5.04239e-19)
(0.158797 -0.0166036 0)
(0.143804 -0.0045581 0)
(0.122269 0.00207233 6.38069e-19)
(0.0882377 0.00787923 0)
(0.0327064 0.0198586 2.53863e-18)
(-0.0581789 0.0500812 -6.64353e-19)
(-0.178858 0.093644 0)
(-0.311263 0.139112 -2.77286e-19)
(-0.4498 0.183048 -2.04432e-19)
(-0.594743 0.220199 0)
(-0.741527 0.24818 0)
(-0.885807 0.267472 0)
(-1.02552 0.278343 0)
(-1.15728 0.281096 0)
(-1.28012 0.276177 8.53589e-20)
(-1.38986 0.265149 1.60332e-19)
(-1.48777 0.250662 -7.53122e-20)
(-1.57431 0.233232 0)
(-1.65073 0.214606 1.387e-19)
(-1.71876 0.19605 -6.74001e-20)
(-1.77929 0.178251 0)
(-1.834 0.161893 -6.32209e-20)
(-1.88368 0.147044 0)
(-1.92932 0.133893 0)
(-1.97161 0.122345 -1.18909e-19)
(-2.01105 0.112225 5.83296e-20)
(-2.04817 0.103412 -1.1482e-19)
(-2.08327 0.095715 1.12993e-19)
(-2.11662 0.0889815 5.56458e-20)
(-2.14839 0.0830434 0)
(-2.17874 0.0777752 5.40907e-20)
(-2.20775 0.0730501 0)
(-2.23551 0.0687782 0)
(-2.26207 0.0648708 0)
(-2.28749 0.0612685 5.12263e-20)
(-2.3118 0.0579117 0)
(-2.33501 0.054763 9.99693e-20)
(-2.35716 0.0517837 -1.48126e-19)
(-2.37826 0.0489507 -4.87894e-20)
(-2.39833 0.0462391 0)
(-2.41736 0.0436344 -4.75788e-20)
(-2.43538 0.0411205 0)
(-2.45238 0.0386878 -9.27715e-20)
(-2.46837 0.0363255 0)
(-2.48335 0.0340263 -9.04016e-20)
(-2.49732 0.0317821 1.7832e-19)
(-2.51027 0.0295861 8.80312e-20)
(-2.52222 0.027431 0)
(-2.53315 0.0253106 0)
(-2.54306 0.02322 0)
(-2.55194 0.0211533 -8.32357e-20)
(-2.5598 0.0191052 0)
(-2.56664 0.0170687 8.07907e-20)
(-2.57245 0.0150378 0)
(-2.57726 0.0130063 -2.34933e-19)
(-2.58108 0.0109678 -7.70478e-20)
(-2.58395 0.00891706 -7.57795e-20)
(-2.58592 0.00685505 0)
(-2.58708 0.00481289 0)
(-2.58753 0.00286218 0)
(-2.58726 0.00106246 0)
(-2.58585 -0.000637516 0)
(-2.58331 -0.00229863 -1.35567e-19)
(-2.5796 -0.00393053 -1.32718e-19)
(-2.5747 -0.00554069 0)
(-2.56861 -0.00712991 6.33386e-20)
(-2.56132 -0.00869791 6.18291e-20)
(-2.55283 -0.0102434 0)
(-2.54314 -0.0117656 1.17714e-19)
(-2.53223 -0.0132624 0)
(-2.52012 -0.0147338 -5.58089e-20)
(-2.5068 -0.0161765 0)
(-2.49228 -0.0175918 0)
(-2.47655 -0.0189756 1.01274e-19)
(-2.45963 -0.02033 0)
(-2.44152 -0.0216506 -4.69362e-20)
(-2.42222 -0.02294 0)
(-2.40175 -0.0241941 0)
(-2.3801 -0.0254159 -4.18528e-20)
(-2.3573 -0.0266016 -3.95033e-20)
(-2.33335 -0.0277542 0)
(-2.30826 -0.0288704 3.60814e-20)
(-2.28204 -0.0299526 0)
(-2.2547 -0.0309981 -3.20648e-20)
(-2.22626 -0.0320081 -5.94707e-20)
(-2.19673 -0.0329805 0)
(-2.16612 -0.0339161 0)
(-2.13445 -0.0348141 0)
(-2.10174 -0.0356749 0)
(-2.068 -0.0364984 -3.70908e-20)
(-2.03326 -0.0372833 -9.87402e-20)
(-1.99753 -0.0380289 0)
(-1.96084 -0.0387335 0)
(-1.9232 -0.0394037 0)
(-1.88464 -0.0400564 1.32818e-20)
(-1.84514 -0.0407031 0)
(-1.80471 -0.0413336 0)
(-1.76339 -0.0419246 2.68366e-21)
(-1.72127 -0.0424412 5.90465e-21)
(-1.67837 -0.0428896 1.2739e-20)
(-1.63469 -0.0432896 0)
(-1.59028 -0.0436477 0)
(-1.54517 -0.0439679 2.95218e-20)
(-1.49939 -0.044251 -3.37629e-20)
(-1.45297 -0.0445 0)
(-1.40594 -0.0447157 0)
(-1.35835 -0.0449005 -5.33814e-20)
(-1.31023 -0.0450544 1.77225e-19)
(-1.26159 -0.0451741 0)
(-1.21247 -0.0452626 0)
(-1.16288 -0.0453146 7.90448e-20)
(-1.11286 -0.0453328 0)
(-1.06244 -0.0453192 1.83472e-19)
(-1.01166 -0.0452736 -9.78324e-20)
(-0.960525 -0.0452005 0)
(-0.909081 -0.0451046 1.13853e-19)
(-0.857343 -0.0449912 2.40647e-19)
(-0.805329 -0.0448665 0)
(-0.75305 -0.0447365 0)
(-0.700512 -0.0446062 -1.44024e-19)
(-0.647715 -0.0444807 0)
(-0.594655 -0.044362 3.18084e-19)
(-0.541327 -0.0442514 0)
(-0.487725 -0.0441477 0)
(-0.433844 -0.0440523 0)
(-0.379678 -0.0439662 0)
(-0.325216 -0.0438937 -2.02396e-19)
(-0.270446 -0.0438374 -2.114e-19)
(-0.215351 -0.043801 0)
(-0.159911 -0.0437844 0)
(-0.104113 -0.043783 0)
(-0.0479557 -0.0437803 2.49399e-19)
(0.00853062 -0.0437416 0)
(0.0652885 -0.0436162 -5.17946e-19)
(0.122228 -0.0433429 5.19181e-19)
(0.17909 -0.042783 5.20448e-19)
(0.235827 -0.0416152 5.1874e-19)
(0.290222 -0.0394011 5.24439e-19)
(0.347368 -0.0353278 5.26397e-19)
(0.382897 -0.0229808 0)
(0.000394045 0.022837 0)
(0.000797662 0.039471 0)
(0.00680511 0.0319617 -2.33173e-18)
(0.0271592 -0.00181551 -1.62529e-18)
(0.0669165 -0.0615415 9.67493e-19)
(0.118366 -0.127198 6.29646e-19)
(0.171156 -0.179197 -3.64795e-22)
(0.218369 -0.208972 0)
(0.25738 -0.217376 0)
(0.288226 -0.209599 0)
(0.312138 -0.191426 0)
(0.330573 -0.167552 0)
(0.344743 -0.141162 -7.20515e-19)
(0.355508 -0.114139 0)
(0.363431 -0.0874935 2.29857e-19)
(0.368888 -0.0617012 2.29259e-19)
(0.372148 -0.0369478 0)
(0.373408 -0.0133021 0)
(0.372917 0.00926269 0)
(0.371003 0.0309153 0)
(0.367931 0.0517962 2.44253e-19)
(0.363885 0.0718466 0)
(0.358793 0.0906989 -2.61784e-19)
(0.352282 0.107617 0)
(0.343682 0.121493 0)
(0.332161 0.130932 0)
(0.316944 0.134471 -6.54722e-19)
(0.297705 0.130923 0)
(0.27496 0.119804 3.87526e-19)
(0.250259 0.101476 -8.62356e-19)
(0.226058 0.0770639 0)
(0.205188 0.047957 0)
(0.190125 0.015811 0)
(0.181108 -0.0184347 6.29178e-19)
(0.177215 -0.0513877 5.56538e-19)
(0.172123 -0.0732324 0)
(0.159031 -0.0749354 0)
(0.137383 -0.0589852 -7.69485e-19)
(0.108211 -0.032769 -7.88482e-19)
(0.0719133 -0.000802344 8.72273e-19)
(0.0266023 0.0324039 0)
(-0.0378179 0.0635992 0)
(-0.128871 0.10156 0)
(-0.240307 0.150939 0)
(-0.368404 0.206287 -4.0915e-19)
(-0.507639 0.262676 -3.22842e-19)
(-0.65043 0.316312 2.63826e-19)
(-0.790442 0.361928 0)
(-0.923521 0.397929 0)
(-1.04594 0.423527 0)
(-1.1558 0.437613 0)
(-1.25263 0.440782 -1.45322e-19)
(-1.33607 0.434099 0)
(-1.40699 0.418911 0)
(-1.46745 0.396719 -1.21543e-19)
(-1.51967 0.370184 -1.1477e-19)
(-1.56589 0.341824 0)
(-1.60768 0.313004 2.14155e-19)
(-1.64645 0.285175 -1.02767e-19)
(-1.6832 0.259158 9.98283e-20)
(-1.71854 0.235425 0)
(-1.75285 0.214211 0)
(-1.78636 0.195428 0)
(-1.81913 0.179032 0)
(-1.85113 0.164788 8.89178e-20)
(-1.88234 0.152367 1.74604e-19)
(-1.91274 0.141501 8.56432e-20)
(-1.94232 0.131945 -8.41578e-20)
(-1.97106 0.123487 0)
(-1.99894 0.115929 1.62752e-19)
(-2.02595 0.109115 1.60163e-19)
(-2.05207 0.102907 1.5768e-19)
(-2.0773 0.0971994 -1.55289e-19)
(-2.10163 0.0918989 0)
(-2.12506 0.0869358 -2.26171e-19)
(-2.14759 0.0822508 0)
(-2.1692 0.0777996 7.31297e-20)
(-2.1899 0.0735443 7.22277e-20)
(-2.20969 0.0694574 0)
(-2.22857 0.0655146 0)
(-2.24653 0.0616984 1.38214e-19)
(-2.26356 0.0579931 0)
(-2.27967 0.0543868 1.34261e-19)
(-2.29486 0.0508687 0)
(-2.30912 0.0474301 -1.3036e-19)
(-2.32245 0.0440625 -2.56936e-19)
(-2.33484 0.0407583 0)
(-2.34629 0.03751 0)
(-2.35681 0.0343113 0)
(-2.36637 0.0311563 -1.20691e-19)
(-2.37499 0.0280407 0)
(-2.38265 0.0249606 -1.16811e-19)
(-2.38937 0.0219134 0)
(-2.39512 0.0188986 0)
(-2.39993 0.0159186 2.21891e-19)
(-2.40379 0.0129794 0)
(-2.40671 0.0100904 1.07e-19)
(-2.40869 0.00726352 0)
(-2.40971 0.00450576 1.02977e-19)
(-2.40973 0.00180256 0)
(-2.4087 -0.000884625 0)
(-2.40655 -0.00356488 0)
(-2.4033 -0.00622004 2.83286e-19)
(-2.3989 -0.00884578 9.21525e-20)
(-2.39337 -0.0114405 0)
(-2.38667 -0.0140026 0)
(-2.37881 -0.0165297 0)
(-2.36979 -0.0190201 0)
(-2.35959 -0.021471 -8.07372e-20)
(-2.34823 -0.0238807 1.57158e-19)
(-2.33568 -0.0262464 7.59605e-20)
(-2.32197 -0.0285666 -1.47533e-19)
(-2.30708 -0.0308388 -1.42624e-19)
(-2.29102 -0.0330615 -6.85564e-20)
(-2.2738 -0.0352325 0)
(-2.25541 -0.0373505 -1.27505e-19)
(-2.23587 -0.0394141 0)
(-2.21519 -0.0414221 1.17103e-19)
(-2.19337 -0.0433741 5.55742e-20)
(-2.17041 -0.0452693 0)
(-2.14634 -0.0471078 -1.01024e-19)
(-2.12115 -0.0488887 -4.74081e-20)
(-2.09487 -0.0506122 0)
(-2.06749 -0.052277 -4.25773e-20)
(-2.03903 -0.0538831 1.17689e-19)
(-2.0095 -0.0554289 0)
(-1.97892 -0.0569142 0)
(-1.9473 -0.0583379 0)
(-1.91465 -0.0596995 0)
(-1.881 -0.0609971 4.94704e-20)
(-1.84636 -0.06223 4.25292e-20)
(-1.81074 -0.0633961 0)
(-1.77418 -0.064491 0)
(-1.73668 -0.0655139 0)
(-1.69827 -0.0664696 0)
(-1.65896 -0.0673639 0)
(-1.61876 -0.068206 0)
(-1.57771 -0.0690049 -1.67744e-21)
(-1.53588 -0.0697387 -1.04867e-21)
(-1.49328 -0.0703912 0)
(-1.44992 -0.07097 0)
(-1.40584 -0.0714807 -2.72539e-20)
(-1.36107 -0.0719265 0)
(-1.31564 -0.0723099 4.20637e-20)
(-1.26959 -0.0726332 4.78879e-20)
(-1.22294 -0.0729002 0)
(-1.17573 -0.0731119 0)
(-1.128 -0.07327 -7.02351e-20)
(-1.07976 -0.0733723 -1.52522e-19)
(-1.03104 -0.0734204 0)
(-0.981873 -0.0734123 0)
(-0.932275 -0.073349 0)
(-0.88228 -0.0732326 -1.06726e-19)
(-0.831916 -0.0730643 1.14179e-19)
(-0.781212 -0.0728496 0)
(-0.730191 -0.0725959 2.56053e-19)
(-0.678874 -0.0723112 1.34414e-19)
(-0.627277 -0.0720044 -2.8644e-19)
(-0.575411 -0.0716847 0)
(-0.523281 -0.0713595 0)
(-0.470888 -0.0710366 -3.32503e-19)
(-0.418227 -0.0707189 -1.75173e-19)
(-0.365291 -0.0704088 0)
(-0.312074 -0.0701037 0)
(-0.258567 -0.0698051 0)
(-0.204763 -0.0695141 0)
(-0.15065 -0.0692357 -4.25917e-19)
(-0.096215 -0.068973 0)
(-0.0414385 -0.0687302 0)
(0.0136947 -0.068504 0)
(0.069201 -0.0682865 0)
(0.125093 -0.0680548 0)
(0.181364 -0.0677672 0)
(0.237971 -0.0673601 -4.97889e-19)
(0.294835 -0.0667452 0)
(0.351747 -0.0657523 0)
(0.408719 -0.0640903 -1.03357e-18)
(0.464205 -0.0612591 5.22238e-19)
(0.522113 -0.0562824 -5.33022e-19)
(0.567556 -0.0438988 5.44084e-19)
(-0.00111892 0.0229123 0)
(0.00203458 0.0261587 5.09082e-18)
(0.0240972 -0.0166541 0)
(0.0722253 -0.0999438 8.63077e-19)
(0.133157 -0.187374 0)
(0.190666 -0.250719 0)
(0.235585 -0.281398 -3.25458e-19)
(0.266678 -0.284394 0)
(0.286766 -0.269132 0)
(0.299482 -0.243916 0)
(0.307714 -0.214198 0)
(0.313284 -0.183004 0)
(0.317169 -0.151846 8.13452e-19)
(0.319821 -0.121418 3.99984e-19)
(0.321403 -0.0920285 -3.97329e-19)
(0.321956 -0.0638115 0)
(0.321492 -0.0368278 0)
(0.32003 -0.011115 0)
(0.317621 0.013314 0)
(0.314359 0.0364912 0)
(0.310389 0.0584576 4.30135e-19)
(0.305931 0.0792243 4.41783e-19)
(0.301196 0.0987038 -4.58165e-19)
(0.296301 0.116592 4.80552e-19)
(0.291159 0.132259 0)
(0.285449 0.144691 0)
(0.278591 0.152479 5.82909e-19)
(0.269857 0.153959 0)
(0.258658 0.147605 0)
(0.244831 0.132345 7.50424e-19)
(0.228982 0.108021 8.36003e-19)
(0.212182 0.0756378 9.43484e-19)
(0.195748 0.0373915 0)
(0.178866 -0.00239896 0)
(0.154967 -0.0319988 -9.55633e-19)
(0.118984 -0.0385047 0)
(0.0721317 -0.0221843 0)
(0.015231 0.0106171 7.76691e-19)
(-0.0545921 0.0546085 -7.0219e-19)
(-0.140501 0.108194 5.6052e-19)
(-0.241464 0.169055 0)
(-0.356688 0.232649 0)
(-0.482693 0.29703 5.95868e-19)
(-0.613416 0.36064 0)
(-0.743137 0.420048 4.24512e-19)
(-0.866779 0.469932 5.58053e-19)
(-0.97938 0.507904 -4.9717e-19)
(-1.07847 0.533988 3.0015e-19)
(-1.16344 0.548048 0)
(-1.23406 0.550833 0)
(-1.29174 0.543534 2.37899e-19)
(-1.33842 0.527671 1.10957e-19)
(-1.37634 0.505016 0)
(-1.408 0.477309 0)
(-1.43579 0.446389 9.54075e-20)
(-1.46171 0.414218 1.84485e-19)
(-1.48707 0.382417 0)
(-1.51262 0.35191 -1.70027e-19)
(-1.53877 0.323376 1.65596e-19)
(-1.56565 0.297175 -1.60638e-19)
(-1.5932 0.273435 0)
(-1.62126 0.252136 0)
(-1.64966 0.233141 0)
(-1.67817 0.216301 0)
(-1.70659 0.201385 0)
(-1.73475 0.188139 -1.38818e-19)
(-1.76252 0.176327 0)
(-1.78979 0.165733 0)
(-1.81647 0.156164 0)
(-1.84251 0.147451 -2.58103e-19)