/*--------------------------------*- C++ -*----------------------------------*\
  =========                 |
  \\      /  F ield         | OpenFOAM: The Open Source CFD Toolbox
   \\    /   O peration     | Website:  https://openfoam.org
    \\  /    A nd           | Version:  8
     \\/     M anipulation  |
\*---------------------------------------------------------------------------*/
FoamFile
{
    version     2.0;
    format      ascii;
    class       volVectorField;
    location    "1400";
    object      wallShearStress;
}
// * * * * * * * * * * * * * * * * * * * * * * * * * * * * * * * * * * * * * //

dimensions      [0 2 -2 0 0 0 0];

internalField   uniform (0 0 0);

boundaryField
{
    inlet
    {
        type            calculated;
        value           uniform (0 0 0);
    }
    outlet
    {
        type            calculated;
        value           uniform (0 0 0);
    }
    upperWall
    {
        type            calculated;
        value           nonuniform List<vector> 
223
(
(-0.444295 0.00293404 0)
(-0.478559 0.00542494 0)
(-0.499813 0.00675208 0)
(-0.504508 0.00731021 0)
(-0.500415 0.00732523 0)
(-0.490458 0.00698452 0)
(-0.478654 0.00648748 0)
(-0.466663 0.00592583 0)
(-0.454299 0.00533261 0)
(-0.442621 0.00475573 0)
(-0.431873 0.00421313 0)
(-0.422118 0.00371237 0)
(-0.413369 0.00325681 0)
(-0.405563 0.00284835 0)
(-0.398628 0.00248712 0)
(-0.392469 0.00218278 0)
(-0.386945 0.00193915 0)
(-0.382021 0.00179657 0)
(-0.378054 0.0017226 0)
(-0.37492 0.00167787 5.79573e-22)
(-0.371853 0.0016116 0)
(-0.368867 0.001533 0)
(-0.36596 0.00144812 0)
(-0.363138 0.00135944 5.92351e-22)
(-0.360407 0.00126976 0)
(-0.357771 0.00117991 0)
(-0.355232 0.00109229 0)
(-0.35279 0.00100666 -1.20731e-21)
(-0.350446 0.00092465 1.21265e-21)
(-0.348198 0.000845936 1.21789e-21)
(-0.346044 0.000771476 0)
(-0.343983 0.000700894 -1.22806e-21)
(-0.342011 0.000634815 0)
(-0.340126 0.000572864 1.23786e-21)
(-0.338324 0.000515183 1.24263e-21)
(-0.336604 0.000461533 -1.24734e-21)
(-0.33496 0.000412136 0)
(-0.333389 0.000366611 0)
(-0.331889 0.000324775 0)
(-0.330457 0.000286538 0)
(-0.329088 0.000251631 -1.27013e-21)
(-0.327781 0.000220081 0)
(-0.32653 0.000191624 0)
(-0.325336 0.000166066 1.2834e-21)
(-0.324191 0.000143381 0)
(-0.323096 0.000123394 1.29217e-21)
(-0.322045 0.000105919 -1.29654e-21)
(-0.321038 9.10036e-05 1.30092e-21)
(-0.320067 7.84554e-05 0)
(-0.319135 6.82821e-05 0)
(-0.318234 6.0452e-05 0)
(-0.317363 5.47283e-05 1.31857e-21)
(-0.316518 5.08771e-05 -1.32302e-21)
(-0.315697 4.88137e-05 0)
(-0.314896 4.83354e-05 0)
(-0.314114 4.92977e-05 0)
(-0.313349 5.15726e-05 0)
(-0.312596 5.50103e-05 0)
(-0.311856 5.94021e-05 0)
(-0.311126 6.47798e-05 0)
(-0.3104 7.09949e-05 0)
(-0.309691 7.79398e-05 1.36394e-21)
(-0.308959 8.54857e-05 -1.36849e-21)
(-0.308283 9.35606e-05 0)
(-0.307513 0.000102194 0)
(-0.306897 0.000111625 0)
(-0.306061 0.000121568 -1.38672e-21)
(-0.305405 0.000132599 0)
(-0.305042 0.000144195 0)
(-0.302259 0.000155234 0)
(-0.309009 0.000170981 0)
(-0.30192 0.000108656 0)
(-0.34993 0.000183713 -3.274e-21)
(-0.330022 0.000594663 0)
(-0.320575 0.00102748 0)
(-0.326297 0.00136771 0)
(-0.317826 0.00133043 0)
(-0.320926 0.000912204 0)
(-0.320472 0.000568901 0)
(-0.310864 0.000734929 0)
(-0.307129 0.000811983 3.09393e-21)
(-0.314588 0.000546374 0)
(-0.307584 0.000204797 0)
(-0.307688 -0.000146908 0)
(-0.305438 -0.000373101 -3.18155e-21)
(-0.298615 -0.000328122 0)
(-0.297769 -0.000167961 -3.12596e-21)
(-0.297692 -7.96932e-05 0)
(-0.297636 -0.000130647 0)
(-0.330736 -1.47457e-05 0)
(-0.318368 0.000764832 -3.34314e-21)
(-0.306828 0.000929963 0)
(-0.311591 0.000484753 3.27032e-21)
(-0.310278 0.000117299 3.27717e-21)
(-0.302135 -4.15125e-05 0)
(-0.296108 0.000155059 3.16046e-21)
(-0.29575 0.000236583 0)
(-0.295339 0.000584659 0)
(-0.294728 0.000801783 0)
(-0.294217 0.000762848 -3.19365e-21)
(-0.293679 0.000455986 0)
(-0.324419 0.00076793 -3.5674e-21)
(-0.308618 0.000836199 3.36923e-21)
(-0.305282 0.000175516 0)
(-0.30151 0.000186494 0)
(-0.29147 0.000137797 0)
(-0.315697 -8.92091e-06 0)
(-0.345677 0.000700127 0)
(-0.31845 0.000998119 0)
(-0.305368 0.000610139 0)
(-0.297173 0.000336408 -3.30343e-21)
(-0.28858 -0.000167069 0)
(-0.304251 -0.000304024 0)
(-0.338002 0.000164345 0)
(-0.309507 0.000281847 0)
(-0.29033 0.000226084 0)
(-0.28608 0.000339991 0)
(-0.301965 0.000157255 0)
(-0.313733 0.000142354 0)
(-0.312108 0.000494142 0)
(-0.319691 0.000703259 0)
(-0.328468 0.00120982 0)
(-0.304458 0.00151496 0)
(-0.279197 0.00103051 -5.67392e-21)
(-0.278419 0.00114006 0)
(-0.277369 0.00115156 0)
(-0.276419 0.000380236 0)
(-0.275852 -7.47466e-06 5.34808e-21)
(-0.302161 0.000457549 0)
(-0.274101 0.000716204 0)
(-0.273044 0.000881547 4.99416e-21)
(-0.2717 0.00137068 0)
(-0.270319 0.00137209 -4.71029e-21)
(-0.269016 0.000944752 0)
(-0.26777 0.000289371 0)
(-0.286266 0.000475757 0)
(-0.265761 0.000484682 4.15394e-21)
(-0.291887 0.000600393 0)
(-0.26334 0.000555558 -3.80293e-21)
(-0.289536 0.000618957 0)
(-0.260637 0.000574066 0)
(-0.2837 0.000607116 0)
(-0.257666 0.000577329 0)
(-0.275876 0.000591186 0)
(-0.25447 0.00058118 0)
(-0.266886 0.00058086 0)
(-0.251079 0.000589862 0)
(-0.257233 0.000572246 0)
(-0.247444 0.000531801 0)
(-0.250596 -0.000119737 0)
(-0.242876 0.000117323 -1.14087e-21)
(-0.240301 -5.44414e-05 8.49524e-22)
(-0.236694 0.000991289 0)
(-0.235545 0.00270023 0)
(-0.233874 0.00242188 0)
(-0.232417 0.00101481 0)
(-0.230138 0.000418773 -6.74656e-22)
(-0.24034 0.00039927 1.08134e-21)
(-0.239765 -0.000246041 -1.49474e-21)
(-0.224283 -0.000184859 0)
(-0.220699 9.12591e-05 -2.19443e-21)
(-0.218506 0.000800964 -5.16426e-21)
(-0.228776 0.00118302 0)
(-0.226984 0.00126592 -7.10005e-21)
(-0.235858 0.001548 8.30871e-21)
(-0.236945 0.000641268 0)
(-0.211045 0.000217855 0)
(-0.208077 0.000332185 0)
(-0.204746 -8.97728e-06 0)
(-0.201599 0.000541983 0)
(-0.200119 0.00122816 -1.39065e-20)
(-0.198254 0.00109219 0)
(-0.1952 0.000682585 -1.63021e-20)
(-0.191802 0.000623173 0)
(-0.189244 0.00112021 0)
(-0.187837 0.00108926 0)
(-0.185631 0.000786166 0)
(-0.18408 0.00116795 0)
(-0.184336 0.00150368 2.31984e-20)
(-0.183904 0.00203803 0)
(-0.185832 9.39022e-05 0)
(-0.180779 -0.000677703 -2.85798e-20)
(-0.17985 0.00123692 0)
(-0.177273 0.000802583 0)
(-0.172999 0.000301469 0)
(-0.168957 0.00018972 3.4535e-20)
(-0.164845 0.000160486 0)
(-0.159982 0.000242888 0)
(-0.153842 0.000448663 0)
(-0.145117 0.000730441 0)
(-0.133467 0.0011835 -5.43124e-20)
(-0.11974 0.00164301 0)
(-0.105559 0.00190347 0)
(-0.0924155 0.00181025 0)
(-0.0814312 0.00161786 9.23443e-20)
(-0.0701206 0.00143552 0)
(-0.0644842 0.00181314 0)
(-0.0353187 0.00147598 -1.384e-19)
(-0.0677961 0.000446886 -6.01853e-36)
(-0.101973 0.00576478 1.18163e-17)
(-0.125406 0.0101863 2.11805e-17)
(-0.137916 0.0127768 1.98908e-17)
(-0.145273 0.0142119 1.91169e-17)
(-0.150735 0.0150825 1.85029e-17)
(-0.154959 0.0156984 -1.79881e-17)
(-0.157927 0.0161265 -1.75116e-17)
(-0.160136 0.0164164 -6.01853e-36)
(-0.162129 0.0166363 -3.34661e-17)
(-0.164104 0.016829 -1.63618e-17)
(-0.166151 0.0170153 5.23612e-34)
(-0.168515 0.0172094 -1.20371e-35)
(-0.171302 0.0174427 -3.01364e-17)
(-0.174745 0.0177251 -2.90218e-17)
(-0.17877 0.0180749 -2.77129e-17)
(-0.183618 0.018489 0)
(-0.189121 0.0189808 4.89515e-17)
(-0.19563 0.0195532 2.249e-17)
(-0.202753 0.0202033 2.40741e-35)
(-0.211467 0.0209784 -3.51297e-17)
(-0.219715 0.0217586 -1.24197e-20)
(-0.233303 0.0229156 0)
(-0.237569 0.0236417 1.31962e-17)
(-0.263312 0.0252091 -7.11234e-18)
)
;
    }
    lowerWall
    {
        type            calculated;
        value           nonuniform List<vector> 
250
(
(-0.625246 -0.00574935 0)
(-0.597268 -0.00958551 0)
(-0.711367 -0.0134123 0)
(-0.623041 -0.0120915 0)
(-0.539124 -0.0105033 0)
(-0.518148 -0.0101432 0)
(-0.499834 -0.00883251 0)
(-0.470558 -0.00657935 0)
(-0.459785 -0.00385634 0)
(-0.454509 -0.00158972 0)
(-0.444877 -0.000333203 0)
(-0.513612 -0.000389441 0)
(-0.467733 -0.000865797 0)
(-0.433357 -0.00155487 0)
(-0.426095 -0.00127238 0)
(-0.423468 -0.000299138 0)
(-0.421373 0.000657532 0)
(-0.420937 0.00141974 0)
(0.00210016 0.000200549 0)
(0.00233819 -0.00260569 0)
(0.00260292 -0.00550409 0)
(0.00294533 -0.00857997 1.15022e-19)
(0.00332825 -0.0116609 -9.67164e-20)
(0.00367044 -0.015335 8.58791e-20)
(0.00368619 -0.0153951 -7.63433e-20)
(0.00962913 -0.0347628 0)
(-0.0443228 -0.106772 0)
(0.000218336 -0.000273159 0)
(5.2367e-05 -0.000778864 0)
(-1.19502e-05 -0.000860176 0)
(5.31899e-05 -0.000858513 0)
(3.11929e-05 -0.00082559 1.55106e-19)
(-0.000142773 -0.000257888 -1.50623e-19)
(-0.000576628 0.00118171 0)
(-0.0011694 0.00387061 -1.73085e-19)
(-0.00154321 0.00728606 1.32583e-19)
(-0.00148719 0.0105041 0)
(-0.00109598 0.0128741 0)
(-0.000567032 0.0141139 0)
(-6.18328e-05 0.0141987 0)
(0.000337754 0.0133219 0)
(0.000669024 0.0117599 0)
(0.000993286 0.00956084 0)
(0.00134963 0.00676329 0)
(0.00175242 0.00341743 0)
(-0.000142778 -0.000274349 0)
(0.00016501 -0.000443306 0)
(0.000469542 -0.000496707 0)
(0.000787069 -0.000429444 0)
(0.00104042 -0.000197606 -0)
(0.00108612 0.000188668 -0)
(0.000839193 0.000653276 1.46235e-20)
(0.000326937 0.00108927 -1.64622e-20)
(-0.000382161 0.00140614 0)
(-0.00119444 0.00156535 -9.38069e-21)
(-0.00203196 0.00158005 0)
(-0.00283066 0.00148007 0)
(-0.00354537 0.00130146 0)
(-0.00415121 0.00107472 4.61568e-21)
(-0.00463666 0.000820618 0)
(-0.00499751 0.000550856 0)
(-0.00523125 0.000273777 -4.0002e-21)
(-0.00534228 -1.62966e-05 -0)
(-0.00530665 -0.000317199 0)
(-0.00512195 -0.000608307 -0)
(-0.00479692 -0.000869297 4.29804e-21)
(-0.00434313 -0.00108019 -0)
(-0.00377858 -0.00122 5.08014e-21)
(-0.0031302 -0.00126985 0)
(-0.00243558 -0.00121574 -0)
(-0.00174275 -0.00105503 8.20869e-21)
(-0.00110777 -0.000803386 0)
(-0.000586181 -0.000502909 -1.35502e-20)
(-0.000212636 -0.000221199 0)
(2.39012e-05 -2.08938e-05 2.35796e-20)
(0.000172609 9.91031e-05 0)
(0.000259492 0.000198035 0)
(0.000254588 0.000310703 0)
(0.000146729 0.000457711 0)
(-9.39881e-05 0.000649071 0)
(-0.00049304 0.00084916 -1.52192e-20)
(-0.00103333 0.000985976 0)
(-0.00163187 0.000988549 1.81013e-20)
(-0.00217464 0.00084276 0)
(-0.00256305 0.000592053 -1.43635e-20)
(-0.00275532 0.000320879 0)
(-0.00277891 0.000103663 0)
(-0.00269025 -1.25245e-05 1.41618e-20)
(-0.00256418 -3.8752e-06 0)
(-0.00246735 0.000129059 1.46666e-20)
(-0.00241422 0.000333256 -1.47415e-20)
(-0.00235178 0.00046762 0)
(-0.00214576 0.000290085 -1.59262e-20)
(-0.00154216 -0.000348116 -1.85468e-20)
(-0.000280028 -0.00107655 0)
(0.00144722 -0.00173215 0)
(0.00333405 -0.00244292 0)
(0.00551291 -0.00314603 0)
(0.00797472 -0.00367311 -0)
(0.0105461 -0.00376605 3.59841e-21)
(0.0132501 -0.00383011 0)
(0.0158534 -0.00384161 -2.84574e-21)
(0.0182443 -0.00366072 -0)
(0.0213414 -0.00361024 -0)
(0.0229315 -0.00325952 2.20918e-21)
(0.0242969 -0.00292695 0)
(0.026164 -0.00268283 -1.92783e-21)
(0.028891 -0.00250335 -0)
(0.0310925 -0.00232669 0)
(0.0332914 -0.0021767 -0)
(0.0353342 -0.00202916 1.83222e-21)
(0.0372472 -0.00189208 0)
(0.0391499 -0.00177177 -0)
(0.0409161 -0.00166383 1.78407e-21)
(0.0426649 -0.00156873 0)
(0.0443257 -0.00148342 1.76335e-21)
(0.0459537 -0.00140703 0)
(0.0475226 -0.00133763 0)
(0.0490551 -0.00127418 0)
(0.0505423 -0.00121549 -1.73243e-21)
(0.051994 -0.00116055 -0)
(0.0534068 -0.00110871 0)
(0.054785 -0.00105924 -1.71251e-21)
(0.0561272 -0.00101184 -1.70586e-21)
(0.0574355 -0.000965906 -0)
(0.0587089 -0.0009212 -1.69211e-21)
(0.0599477 -0.000877479 0)
(0.0611519 -0.000834526 -3.35473e-21)
(0.0623207 -0.000792162 -0)
(0.0634542 -0.000750317 -3.32251e-21)
(0.0645516 -0.000708621 -0)
(0.0656118 -0.000667062 3.28689e-21)
(0.0666346 -0.000625455 0)
(0.0676184 -0.000583571 0)
(0.0685625 -0.000541208 0)
(0.069465 -0.000498145 -3.20315e-21)
(0.0703248 -0.000454104 -0)
(0.0711397 -0.000408762 3.15418e-21)
(0.0719081 -0.000361755 0)
(0.0726272 -0.000312662 -3.1e-21)
(0.0732945 -0.000261363 -3.07089e-21)
(0.0739075 -0.000207891 -3.04047e-21)
(0.074464 -0.000152879 -0)
(0.0749624 -9.84441e-05 0)
(0.0754035 -4.84811e-05 0)
(0.0757925 -7.11042e-06 0)
(0.0761344 2.91378e-05 0)
(0.0764307 6.49146e-05 0)
(0.0766802 0.000100082 0)
(0.0768832 0.000135119 0)
(0.0770385 0.000170011 2.69642e-21)
(0.0771463 0.000204711 2.64852e-21)
(0.0772056 0.0002392 0)
(0.0772165 0.000273476 0)
(0.0771779 0.000307404 0)
(0.0770906 0.000340932 2.43514e-21)
(0.0769538 0.0003741 0)
(0.0767674 0.000406853 0)
(0.0765316 0.000439006 0)
(0.0762466 0.000470733 0)
(0.0759122 0.000501839 -2.11671e-21)
(0.075529 0.0005324 0)
(0.075097 0.000562264 0)
(0.0746168 0.000591595 1.89676e-21)
(0.0740886 0.000620174 -1.81848e-21)
(0.0735135 0.000648196 0)
(0.072891 0.000675507 -1.65434e-21)
(0.0722225 0.000702166 0)
(0.0715082 0.000728132 1.47986e-21)
(0.0707492 0.000753399 0)
(0.0699462 0.000778044 0)
(0.0690994 0.000802037 0)
(0.0682123 0.000825262 0)
(0.0672875 0.000847705 0)
(0.0663131 0.000868953 -1.78202e-21)
(0.065313 0.00088976 -1.56563e-21)
(0.0642542 0.000909001 0)
(0.0631747 0.000926276 0)
(0.0620557 0.000940238 0)
(0.0609095 0.000948008 6.35625e-22)
(0.0597317 0.000947177 0)
(0.058525 0.000941824 0)
(0.0572844 0.000948335 0)
(0.0560131 0.000963732 -4.05713e-22)
(0.0547113 0.000975738 6.86273e-22)
(0.0533844 0.000986977 0)
(0.0520337 0.00099722 0)
(0.0506611 0.00100671 1.58248e-21)
(0.0492682 0.00101533 1.90072e-21)
(0.0478566 0.0010232 0)
(0.0464282 0.00103022 0)
(0.0449846 0.00103654 -2.92032e-21)
(0.0435275 0.00104207 3.28357e-21)
(0.0420575 0.00104684 0)
(0.0405768 0.00105083 0)
(0.0390856 0.00105392 4.45302e-21)
(0.037587 0.00105631 0)
(0.0360814 0.00105796 0)
(0.0345706 0.00105885 5.75902e-21)
(0.0330566 0.00105924 0)
(0.0315399 0.00105915 6.71929e-21)
(0.0300226 0.00105879 0)
(0.0285051 0.00105831 0)
(0.0269885 0.00105787 0)
(0.0254731 0.00105764 -8.90786e-21)
(0.0239594 0.0010577 0)
(0.0224475 0.00105816 0)
(0.0209373 0.00105903 0)
(0.0194289 0.00106037 0)
(0.0179222 0.00106219 0)
(0.0164175 0.00106466 0)
(0.0149144 0.00106786 -1.40283e-20)
(0.0134126 0.00107201 -1.4961e-20)
(0.0119118 0.00107715 0)
(0.0104114 0.00108339 0)
(0.0089108 0.00109055 0)
(0.00740989 0.00109852 1.95044e-20)
(0.00590901 0.00110735 0)
(0.00440959 0.00111622 -4.4909e-20)
(0.00291541 0.00112206 4.83319e-20)
(0.00143531 0.00111983 5.21353e-20)
(-2.61137e-05 0.00108903 -5.47156e-20)
(-0.00137651 0.00102493 5.40979e-20)
(-0.00287927 0.000862542 -5.21423e-20)
(-0.00320137 0.000480698 0)
(-0.00515468 0.00109807 -3.10976e-18)
(-0.00823332 0.000876006 -2.81768e-18)
(-0.0112858 0.000534848 3.00927e-36)
(-0.0144392 0.000215245 -4.79096e-18)
(-0.0178071 -0.00012137 -8.90743e-18)
(-0.021394 -0.000477309 -4.15534e-18)
(-0.0252114 -0.000853774 3.8871e-18)
(-0.0292797 -0.00125477 -6.01853e-35)
(-0.0336268 -0.00168369 0)
(-0.0382688 -0.00214381 3.21439e-18)
(-0.0432233 -0.0026391 3.022e-18)
(-0.0485075 -0.00312903 0)
(-0.0541274 -0.00364304 0)
(-0.0601451 -0.00423823 0)
(-0.0666152 -0.00489614 -2.30397e-35)
(-0.0735417 -0.00560875 -1.4341e-35)
(-0.0810711 -0.00637699 4.5139e-35)
(-0.0890681 -0.00720614 -3.74662e-18)
(-0.0980872 -0.0081059 -3.41395e-18)
(-0.107216 -0.00908052 6.01853e-36)
(-0.118827 -0.010152 5.37461e-18)
(-0.128449 -0.0113266 8.92226e-18)
(-0.145936 -0.0125663 -6.01853e-36)
(-0.153378 -0.0140797 -4.30447e-18)
(-0.188143 -0.0164378 -3.00927e-36)
)
;
    }
    frontAndBack
    {
        type            empty;
    }
}


// ************************************************************************* //
