/*--------------------------------*- C++ -*----------------------------------*\
  =========                 |
  \\      /  F ield         | OpenFOAM: The Open Source CFD Toolbox
   \\    /   O peration     | Website:  https://openfoam.org
    \\  /    A nd           | Version:  8
     \\/     M anipulation  |
\*---------------------------------------------------------------------------*/
FoamFile
{
    version     2.0;
    format      ascii;
    class       volScalarField;
    location    "1800";
    object      k;
}
// * * * * * * * * * * * * * * * * * * * * * * * * * * * * * * * * * * * * * //

dimensions      [0 2 -2 0 0 0 0];

internalField   nonuniform List<scalar> 
12225
(
0.389301
2.39092
2.10538
2.13855
1.8949
1.74871
1.94452
1.28106
2.85253
3.28212
3.13454
2.35756
1.92211
1.6696
2.08207
2.15949
2.53717
2.06244
0.339919
0.448323
0.504547
0.62616
0.630901
0.679375
0.713002
0.694839
0.749049
0.783245
0.870171
0.85809
0.870847
0.860141
0.8845
0.891866
0.911558
0.924368
0.360037
0.375581
0.382496
0.393151
0.392305
0.39077
0.390753
0.386489
0.385921
0.381673
0.380801
0.377576
0.378136
0.377357
0.377626
0.37822
0.379119
0.381507
0.36813
0.37104
0.370962
0.370267
0.368234
0.366571
0.364241
0.361412
0.358581
0.353887
0.349605
0.344409
0.340151
0.335739
0.331971
0.328293
0.324909
0.321969
0.371951
0.371126
0.369857
0.367943
0.366176
0.364259
0.362682
0.360557
0.358481
0.355547
0.352676
0.349312
0.346268
0.343019
0.34019
0.337187
0.334656
0.33189
0.37343
0.371569
0.369865
0.367873
0.366151
0.364355
0.362859
0.361113
0.359424
0.35737
0.355335
0.353053
0.350919
0.34866
0.346645
0.344513
0.342668
0.340655
0.373853
0.371816
0.369963
0.36804
0.366312
0.364597
0.363086
0.361512
0.360002
0.358355
0.356733
0.355006
0.353363
0.351671
0.350115
0.348516
0.347075
0.345555
0.37393
0.371887
0.369993
0.368116
0.366386
0.364705
0.363169
0.361651
0.360203
0.358718
0.357271
0.35579
0.354373
0.352947
0.351613
0.350271
0.349033
0.347761
0.373946
0.371893
0.369982
0.36813
0.366399
0.364735
0.363186
0.361689
0.360265
0.358859
0.357502
0.356152
0.354859
0.353583
0.352376
0.351183
0.350065
0.348941
0.373944
0.37189
0.369964
0.368121
0.366383
0.364724
0.363164
0.361671
0.360255
0.358884
0.357572
0.356296
0.355076
0.35389
0.352763
0.351666
0.350626
0.349604
0.373942
0.371882
0.369942
0.368098
0.366353
0.364693
0.363122
0.361626
0.360205
0.358846
0.357549
0.356304
0.355116
0.353975
0.352887
0.351842
0.350843
0.34988
0.373938
0.371876
0.369926
0.368077
0.366324
0.364658
0.363079
0.361576
0.360149
0.358787
0.35749
0.356253
0.355073
0.353946
0.352871
0.351843
0.35086
0.34992
0.373936
0.371871
0.369915
0.368061
0.366301
0.364631
0.363043
0.361535
0.360099
0.358733
0.357431
0.35619
0.355008
0.35388
0.352805
0.351778
0.350797
0.349861
0.373934
0.371867
0.369907
0.368048
0.366284
0.364608
0.363016
0.361502
0.360061
0.358689
0.357382
0.356137
0.354949
0.353818
0.352737
0.351707
0.350722
0.349784
0.373933
0.371864
0.369901
0.36804
0.366271
0.364592
0.362996
0.361478
0.360032
0.358656
0.357345
0.356095
0.354904
0.353768
0.352684
0.351649
0.350661
0.349718
0.373933
0.371862
0.369898
0.368033
0.366263
0.364581
0.362982
0.36146
0.360012
0.358632
0.357318
0.356066
0.354871
0.353732
0.352645
0.351607
0.350616
0.34967
0.373932
0.371862
0.369897
0.36803
0.366259
0.364574
0.362973
0.361449
0.359999
0.358617
0.357301
0.356046
0.35485
0.353709
0.352619
0.35158
0.350587
0.349638
0.373932
0.371862
0.369896
0.368031
0.366257
0.364573
0.36297
0.361446
0.359994
0.358612
0.357295
0.356039
0.354841
0.353699
0.352609
0.351568
0.350574
0.349625
0.373933
0.371862
0.369898
0.368031
0.36626
0.364574
0.362973
0.361448
0.359998
0.358615
0.357298
0.356042
0.354845
0.353702
0.352612
0.351572
0.350578
0.349629
0.373933
0.371864
0.369899
0.368035
0.366264
0.364581
0.36298
0.361457
0.360007
0.358626
0.35731
0.356055
0.354859
0.353717
0.352628
0.351588
0.350596
0.349647
0.373933
0.371866
0.369903
0.368041
0.366272
0.364591
0.362992
0.361472
0.360024
0.358646
0.357332
0.356079
0.354885
0.353746
0.352658
0.35162
0.350629
0.349683
0.373934
0.371869
0.369909
0.368049
0.366284
0.364606
0.363012
0.361496
0.360053
0.358679
0.357369
0.35612
0.354929
0.353793
0.352708
0.351672
0.350682
0.349736
0.373936
0.371874
0.369917
0.368063
0.366303
0.364634
0.363049
0.361543
0.360109
0.358743
0.357439
0.356195
0.355004
0.353866
0.352777
0.351735
0.350736
0.34978
0.37394
0.371882
0.369928
0.368088
0.366349
0.364706
0.363146
0.361663
0.360242
0.358883
0.357574
0.356317
0.355102
0.353935
0.352806
0.351722
0.350673
0.349668
0.373956
0.371889
0.369952
0.368182
0.366517
0.36495
0.363436
0.361981
0.360553
0.359166
0.357795
0.35646
0.35514
0.35386
0.3526
0.351384
0.35019
0.349044
0.37401
0.371916
0.370108
0.368605
0.367157
0.36574
0.364275
0.362803
0.361278
0.359747
0.35817
0.356599
0.355
0.353429
0.351852
0.350324
0.348808
0.347355
0.374221
0.372278
0.371075
0.370411
0.36949
0.368349
0.366952
0.365359
0.363545
0.361616
0.359547
0.357413
0.355208
0.353004
0.350818
0.348678
0.346627
0.344628
0.37523
0.375371
0.376784
0.379489
0.380262
0.380085
0.37956
0.378057
0.375956
0.373481
0.371007
0.368318
0.365909
0.363429
0.361506
0.359536
0.358368
0.356971
0.38399
0.398148
0.429658
0.454382
0.47453
0.489485
0.501737
0.511839
0.521522
0.530103
0.539518
0.548355
0.558719
0.568694
0.580383
0.591681
0.604856
0.615831
0.760251
1.09538
1.34168
1.4827
1.55442
1.56959
1.5629
1.54561
1.5156
1.48278
1.44989
1.41829
1.38882
1.36173
1.33714
1.31495
1.29498
1.27728
1.94991e-08
4.79804e-07
2.4414e-06
9.58225e-06
3.18605e-05
9.56816e-05
0.000250039
0.000496247
0.000803378
0.00112579
0.00141584
0.00163904
0.00178916
0.00184389
0.00182116
0.00174772
0.00160861
0.0013758
0.0011723
0.000997228
0.000830924
0.00066958
0.000513384
0.000368468
0.000239465
0.000139636
7.37056e-05
3.68918e-05
1.87082e-05
1.01593e-05
6.1644e-06
4.67539e-06
5.31318e-06
1.0947e-05
2.43761e-05
0.000154059
0.000345864
0.000773574
0.00117203
0.00128202
0.00117803
0.000946176
0.000770383
0.000723498
0.000776457
0.00103703
0.00137009
0.00268683
0.0061203
0.0189273
0.0514384
0.0911725
0.114281
0.116175
0.0995079
0.112667
0.129812
0.169271
0.163533
0.145003
0.140877
0.148259
0.163564
0.173467
0.181374
0.191061
0.199017
0.207687
0.215642
0.223789
0.231587
0.239409
0.247042
0.254633
0.262108
0.269516
0.27684
0.28409
0.291265
0.298365
0.305389
0.312336
0.319202
0.325987
0.332683
0.339292
0.345799
0.352214
0.358514
0.364707
0.370776
0.376712
0.382507
0.388144
0.393614
0.398905
0.404008
0.408929
0.413674
0.418292
0.422847
0.427212
0.431436
0.435509
0.439424
0.443185
0.446781
0.450215
0.45348
0.456575
0.459498
0.462244
0.464817
0.467207
0.469424
0.471454
0.473312
0.47498
0.476477
0.477784
0.478921
0.47987
0.48065
0.481247
0.481677
0.48193
0.482025
0.481994
0.481822
0.481262
0.480883
0.479874
0.479085
0.478039
0.476977
0.47572
0.474267
0.472569
0.470757
0.46878
0.466686
0.464463
0.462128
0.459675
0.45712
0.45446
0.451707
0.448857
0.445926
0.442888
0.439797
0.436613
0.433377
0.430081
0.426738
0.423363
0.419961
0.416547
0.41313
0.40972
0.406326
0.402952
0.399603
0.396283
0.392996
0.389749
0.386547
0.383399
0.38031
0.377284
0.374318
0.371409
0.368541
0.365683
0.362787
0.359764
0.356493
0.352656
0.347641
0.331841
8.51983e-08
2.41965e-06
1.62448e-05
6.96369e-05
0.000263028
0.000748639
0.00176251
0.00320481
0.00487784
0.00659223
0.00815771
0.00943683
0.0103804
0.0109675
0.0112539
0.0112132
0.0110281
0.0106586
0.010041
0.00920048
0.00813873
0.00691524
0.0055781
0.00423282
0.0029324
0.00193801
0.00122688
0.00075672
0.000458198
0.000279191
0.00017863
0.000131755
0.000105204
0.000168566
0.000214961
0.00160794
0.00350037
0.00727267
0.0105421
0.0123263
0.0122625
0.0117486
0.0113608
0.0124025
0.0159103
0.0214237
0.030913
0.0474402
0.0742234
0.100002
0.126607
0.147665
0.163592
0.174412
0.185651
0.202546
0.220341
0.238416
0.255034
0.273361
0.292799
0.312625
0.333248
0.353051
0.372318
0.391614
0.410389
0.429046
0.447395
0.4656
0.483607
0.501492
0.519246
0.536904
0.55447
0.57196
0.589377
0.606725
0.624007
0.641219
0.658362
0.67543
0.692418
0.709319
0.726126
0.742831
0.759424
0.775897
0.792239
0.808445
0.824493
0.840368
0.856047
0.871504
0.886716
0.901646
0.916267
0.930541
0.944432
0.957899
0.970921
0.983736
0.996243
1.00848
1.02042
1.03205
1.04337
1.05436
1.065
1.0753
1.08523
1.0948
1.10398
1.11278
1.12118
1.12919
1.13678
1.14396
1.15073
1.15707
1.16299
1.16847
1.17353
1.17815
1.18234
1.18609
1.1894
1.19228
1.19472
1.19672
1.19834
1.19937
1.20006
1.20035
1.20045
1.20019
1.1997
1.19895
1.19776
1.19617
1.1942
1.19186
1.18916
1.1861
1.1827
1.17896
1.1749
1.17053
1.16583
1.16085
1.15556
1.15001
1.1442
1.13814
1.13186
1.12538
1.11873
1.11194
1.10502
1.09799
1.09089
1.08372
1.0765
1.06923
1.06192
1.05458
1.04724
1.0399
1.03258
1.02529
1.01804
1.01081
1.00358
0.996304
0.988907
0.981265
0.973163
0.964277
0.952674
0.926072
2.05066e-07
6.08474e-06
4.64243e-05
0.00021316
0.000840442
0.00203712
0.00416748
0.00662323
0.00908037
0.011306
0.0131642
0.014594
0.0155961
0.0161905
0.0164526
0.0164142
0.0162216
0.0158378
0.0152759
0.0145782
0.0137379
0.0127508
0.011596
0.0102832
0.00881827
0.00716454
0.00546301
0.00394896
0.00264059
0.00174889
0.00120111
0.000898084
0.000678061
0.000980435
0.00160764
0.00672011
0.014487
0.0231537
0.0294597
0.0330589
0.0342941
0.0363587
0.042952
0.0580314
0.0758704
0.0943302
0.11512
0.137108
0.157467
0.179086
0.200151
0.221047
0.242442
0.266693
0.294528
0.323625
0.352616
0.38158
0.41058
0.439397
0.467952
0.496022
0.523496
0.550234
0.576346
0.601963
0.62707
0.651797
0.676176
0.700276
0.724135
0.747797
0.77129
0.794639
0.817859
0.840962
0.863956
0.886844
0.909626
0.932301
0.954863
0.977306
0.999625
1.02181
1.04385
1.06574
1.08747
1.10902
1.13038
1.15155
1.17251
1.19324
1.21373
1.23397
1.25392
1.27358
1.29294
1.31198
1.33071
1.3491
1.36718
1.38491
1.40227
1.41924
1.43581
1.45195
1.46766
1.48292
1.4977
1.512
1.52581
1.5391
1.55187
1.56411
1.57581
1.58695
1.59753
1.60755
1.617
1.62587
1.63416
1.64186
1.64898
1.65551
1.66144
1.66679
1.67154
1.6757
1.67927
1.68225
1.68464
1.68643
1.68764
1.68824
1.68848
1.68821
1.68736
1.68597
1.68403
1.68153
1.67851
1.67497
1.67092
1.66637
1.66135
1.65586
1.64991
1.64352
1.63669
1.62946
1.62181
1.6138
1.60543
1.59671
1.58769
1.57838
1.56883
1.55906
1.5491
1.53899
1.52875
1.5184
1.50796
1.49744
1.48685
1.47621
1.46554
1.45486
1.44419
1.43356
1.42296
1.4124
1.40186
1.39132
1.38072
1.36997
1.35887
1.34719
1.33301
1.30827
8.18495e-07
2.46214e-05
0.000193986
0.000785467
0.00233914
0.00546188
0.0091896
0.0128098
0.0159546
0.0184415
0.0202354
0.0213712
0.0219669
0.022071
0.0219317
0.0215608
0.0209767
0.0202743
0.019486
0.0186274
0.0176998
0.0166994
0.0156084
0.0144065
0.0130746
0.0115933
0.00998583
0.00831199
0.00675648
0.00520209
0.00410606
0.00300319
0.0030921
0.00472683
0.0115047
0.0264002
0.0410593
0.0525653
0.0610893
0.0689019
0.0787196
0.0918281
0.107543
0.123275
0.139462
0.156764
0.177067
0.198896
0.222334
0.248214
0.275562
0.304909
0.335996
0.368806
0.402738
0.436935
0.471166
0.505157
0.538825
0.572001
0.60466
0.636709
0.668098
0.698899
0.729144
0.758927
0.788294
0.817316
0.846045
0.87453
0.902811
0.930921
0.958886
0.986724
1.01445
1.04206
1.06957
1.09698
1.12427
1.15145
1.1785
1.20542
1.2322
1.25882
1.28527
1.31154
1.33762
1.3635
1.38916
1.41459
1.43978
1.46472
1.48939
1.51377
1.53785
1.56162
1.58506
1.60815
1.63089
1.65325
1.67521
1.69675
1.71783
1.73845
1.75857
1.77818
1.79725
1.81576
1.83369
1.85103
1.86776
1.88387
1.89933
1.91414
1.92829
1.94175
1.95453
1.96662
1.97801
1.98869
1.99866
2.00792
2.01647
2.02429
2.03139
2.03778
2.04343
2.04837
2.05259
2.05609
2.05887
2.06094
2.06224
2.06283
2.06294
2.06234
2.06102
2.05902
2.05636
2.05303
2.04906
2.04446
2.03923
2.03341
2.027
2.02001
2.01247
2.00439
1.99579
1.98669
1.9771
1.96707
1.95659
1.9457
1.93444
1.92282
1.9109
1.8987
1.88626
1.87362
1.86081
1.84786
1.83478
1.82159
1.80831
1.79496
1.78156
1.76814
1.75471
1.74132
1.72797
1.71468
1.70145
1.68825
1.67508
1.66188
1.64852
1.63483
1.61918
1.59626
2.78727e-06
8.36244e-05
0.000621177
0.00240085
0.00653083
0.0121131
0.0172926
0.0214283
0.0243608
0.0261876
0.0271301
0.0273839
0.0272255
0.026766
0.0260382
0.025182
0.0242535
0.023291
0.0223176
0.0213414
0.020358
0.0193571
0.0183192
0.0172215
0.0160369
0.0147345
0.013312
0.0118209
0.0103722
0.0089236
0.00740123
0.00769277
0.0113845
0.0235773
0.0443651
0.0642679
0.0807474
0.0934845
0.104215
0.114835
0.126296
0.138803
0.152359
0.16774
0.18628
0.20779
0.232149
0.259215
0.288469
0.319787
0.352602
0.386817
0.422039
0.457998
0.494369
0.530845
0.567306
0.603602
0.639649
0.675352
0.710675
0.745566
0.780007
0.814038
0.847685
0.880996
0.914012
0.946778
0.979335
1.01172
1.04396
1.07609
1.10811
1.14005
1.17191
1.20368
1.23537
1.26696
1.29846
1.32984
1.36109
1.39221
1.42317
1.45396
1.48457
1.51498
1.54517
1.57514
1.60486
1.63432
1.66352
1.69243
1.72104
1.74933
1.77729
1.80488
1.83211
1.85893
1.88534
1.9113
1.93679
1.96178
1.98625
2.01017
2.03351
2.05625
2.07837
2.09983
2.12062
2.14071
2.16009
2.17873
2.19663
2.21376
2.23011
2.24566
2.26042
2.27436
2.28748
2.29977
2.31123
2.32186
2.33165
2.3406
2.34871
2.35597
2.3624
2.36798
2.37272
2.37662
2.37968
2.38192
2.38324
2.38376
2.38367
2.38271
2.38093
2.37837
2.37503
2.37092
2.36607
2.36048
2.35417
2.34717
2.33948
2.33113
2.32213
2.31251
2.30228
2.29148
2.28012
2.26824
2.25585
2.24298
2.22967
2.21595
2.20186
2.18745
2.17275
2.1578
2.14264
2.12731
2.11181
2.09618
2.08044
2.0646
2.0487
2.03275
2.0168
2.00088
1.98501
1.96921
1.95349
1.93787
1.92235
1.90691
1.8915
1.87599
1.85901
1.8367
8.93111e-06
0.000261378
0.00186003
0.00656148
0.0146816
0.0217779
0.0268094
0.0298978
0.031504
0.0320931
0.0320087
0.031547
0.0306889
0.0296436
0.0284992
0.027321
0.0261549
0.0250281
0.0239533
0.0229298
0.0219467
0.0209871
0.020025
0.019029
0.0179699
0.0167847
0.0154176
0.0138262
0.0122043
0.0120007
0.0139955
0.0221683
0.0401312
0.0645694
0.0880031
0.106943
0.120765
0.13082
0.139501
0.148635
0.159176
0.172495
0.189216
0.209214
0.232738
0.259414
0.288668
0.319971
0.352807
0.386924
0.422016
0.457919
0.494437
0.531427
0.568762
0.606319
0.644023
0.681779
0.719511
0.757141
0.794621
0.831907
0.868983
0.90585
0.942518
0.979007
1.01534
1.05155
1.08766
1.1237
1.15968
1.19562
1.23153
1.26741
1.30326
1.33907
1.37483
1.41052
1.44613
1.48165
1.51704
1.55229
1.58739
1.62231
1.65703
1.69153
1.7258
1.75982
1.79356
1.82702
1.86018
1.89302
1.92552
1.95766
1.98941
2.02077
2.05169
2.08216
2.11214
2.14162
2.17055
2.19892
2.2267
2.25384
2.28033
2.30613
2.33122
2.35557
2.37914
2.40192
2.42388
2.445
2.46526
2.48465
2.50314
2.52072
2.53739
2.55312
2.56791
2.58175
2.59465
2.60658
2.61756
2.62758
2.63664
2.64474
2.65187
2.65804
2.66325
2.66751
2.67081
2.67318
2.67449
2.67493
2.67458
2.67328
2.67105
2.66792
2.66392
2.65905
2.65333
2.64678
2.63942
2.63127
2.62235
2.61267
2.60227
2.59116
2.57936
2.56691
2.55384
2.54017
2.52592
2.51114
2.49585
2.4801
2.46393
2.44738
2.43049
2.41332
2.39589
2.37825
2.36042
2.34243
2.3243
2.30605
2.28772
2.26933
2.25093
2.23256
2.21424
2.19601
2.1779
2.15992
2.1421
2.12448
2.10703
2.08966
2.07121
2.04857
2.88091e-05
0.000787422
0.00505121
0.0153448
0.0250276
0.0311842
0.0345599
0.0361421
0.0365782
0.036318
0.0355405
0.034364
0.0329856
0.0315129
0.0300303
0.0285973
0.0272519
0.026012
0.0248795
0.0238428
0.022882
0.0219678
0.0210643
0.0201198
0.0191577
0.018268
0.017604
0.017597
0.0193642
0.0251243
0.0380149
0.0599053
0.0847809
0.107961
0.126608
0.139592
0.148412
0.155641
0.163456
0.173996
0.188176
0.206021
0.227595
0.252574
0.280524
0.310736
0.342597
0.375692
0.409754
0.444642
0.480236
0.516465
0.553269
0.590596
0.628399
0.666624
0.705209
0.744077
0.783164
0.822403
0.86174
0.901131
0.940544
0.979963
1.01938
1.0588
1.09823
1.13769
1.17718
1.21672
1.25632
1.29599
1.33571
1.37549
1.4153
1.45514
1.49498
1.53479
1.57455
1.61424
1.65381
1.69325
1.73254
1.77164
1.81053
1.84918
1.88759
1.92571
1.96353
2.00103
2.03819
2.075
2.11143
2.14745
2.18305
2.21818
2.25283
2.28696
2.32055
2.35357
2.38598
2.41775
2.44885
2.47924
2.5089
2.53779
2.56587
2.59311
2.61948
2.64496
2.66951
2.69311
2.71574
2.73738
2.75801
2.77762
2.79618
2.81369
2.83013
2.84551
2.85981
2.87303
2.88518
2.89624
2.90621
2.91511
2.92292
2.92965
2.9353
2.93988
2.9434
2.94585
2.94713
2.94747
2.94685
2.94517
2.94247
2.93878
2.9341
2.92845
2.92186
2.91435
2.90593
2.89663
2.88647
2.87547
2.86366
2.85106
2.83769
2.82361
2.80882
2.79337
2.77729
2.7606
2.74334
2.72557
2.70732
2.68865
2.6696
2.65021
2.63053
2.61061
2.59046
2.57012
2.54962
2.52898
2.50823
2.48743
2.46659
2.44578
2.42503
2.40439
2.38388
2.36354
2.34343
2.32359
2.30403
2.28469
2.26455
2.24094
8.71586e-05
0.00217625
0.0119875
0.0257712
0.0341663
0.0385755
0.0406289
0.041209
0.0408746
0.0398706
0.0383791
0.0366309
0.0347696
0.032907
0.0311276
0.0294858
0.0280104
0.0267062
0.025562
0.0245556
0.0236566
0.0228262
0.0219918
0.0211815
0.0206192
0.0206869
0.0223892
0.0273334
0.0381383
0.0562112
0.0785633
0.101162
0.122003
0.138814
0.150678
0.158757
0.165573
0.173879
0.185215
0.200282
0.219216
0.241727
0.26742
0.295684
0.325879
0.357422
0.389952
0.423284
0.457336
0.492073
0.527481
0.563557
0.600304
0.637719
0.675786
0.714466
0.753715
0.793479
0.833702
0.874323
0.915288
0.956551
0.998072
1.03983
1.08179
1.12396
1.16633
1.2089
1.25166
1.29463
1.3378
1.38116
1.42469
1.46838
1.51221
1.55613
1.60012
1.64413
1.68813
1.73208
1.77594
1.81968
1.86325
1.90664
1.94981
1.99273
2.03536
2.07769
2.11968
2.16132
2.20258
2.24344
2.28387
2.32385
2.36335
2.40233
2.44077
2.47864
2.5159
2.55252
2.58846
2.62368
2.65816
2.69185
2.72472
2.75672
2.78783
2.818
2.8472
2.87539
2.90255
2.92864
2.95364
2.97754
3.0003
3.02191
3.04236
3.06163
3.0797
3.09658
3.11226
3.12674
3.14001
3.15208
3.16294
3.17259
3.18103
3.18828
3.19433
3.19918
3.20286
3.20535
3.20658
3.20676
3.20583
3.20375
3.20055
3.19624
3.19086
3.18441
3.17692
3.16841
3.1589
3.14843
3.137
3.12466
3.11142
3.09732
3.08237
3.06663
3.05012
3.03287
3.01493
2.99632
2.97709
2.95728
2.93695
2.91615
2.89493
2.87333
2.8514
2.82918
2.80672
2.78403
2.76115
2.73811
2.71495
2.69171
2.66844
2.64519
2.622
2.59893
2.57601
2.5533
2.53085
2.50874
2.48699
2.46556
2.44351
2.41844
0.000227858
0.0051533
0.0218109
0.0350697
0.0418454
0.0450148
0.0461174
0.0459156
0.0448525
0.0431296
0.0410358
0.0387581
0.0364539
0.0342461
0.0322242
0.0304416
0.0289249
0.0276778
0.0266903
0.0259428
0.025449
0.0252826
0.0255497
0.0266329
0.0289211
0.0332552
0.0413956
0.0551334
0.0727132
0.0922461
0.111914
0.129664
0.144236
0.155264
0.163711
0.171568
0.180987
0.193381
0.209391
0.229012
0.251923
0.277605
0.305502
0.335031
0.365711
0.397224
0.42943
0.46229
0.495817
0.530043
0.565005
0.600743
0.63729
0.674657
0.712841
0.75183
0.791594
0.832094
0.873284
0.915111
0.957527
1.00049
1.04395
1.08787
1.13225
1.17704
1.22225
1.26785
1.31384
1.36021
1.40694
1.45402
1.50141
1.54908
1.59699
1.6451
1.69335
1.74168
1.79005
1.8384
1.88667
1.93483
1.98283
2.03063
2.07819
2.12549
2.17247
2.21912
2.26539
2.31126
2.35671
2.40172
2.44624
2.49026
2.53374
2.57664
2.61894
2.6606
2.70158
2.74185
2.78136
2.82008
2.85796
2.89497
2.93106
2.9662
3.00034
3.03344
3.06545
3.09635
3.1261
3.15466
3.18201
3.20812
3.23298
3.25656
3.27884
3.29981
3.31947
3.33779
3.35479
3.37045
3.38479
3.39779
3.40946
3.41979
3.4288
3.43649
3.44286
3.44792
3.45169
3.45415
3.45525
3.45521
3.45391
3.45136
3.4476
3.44263
3.43648
3.42917
3.42073
3.41118
3.40055
3.38886
3.37613
3.36241
3.34772
3.33208
3.31553
3.29811
3.27985
3.26079
3.24096
3.22042
3.19919
3.17734
3.15492
3.13199
3.10859
3.08478
3.06059
3.03608
3.01129
2.98624
2.96098
2.93554
2.90995
2.88429
2.85858
2.83288
2.80725
2.78174
2.7564
2.73129
2.70647
2.68204
2.65801
2.63439
2.61028
2.58343
0.000509034
0.0104092
0.0316565
0.043403
0.0489088
0.0511855
0.0515499
0.0506727
0.0489081
0.0465749
0.0439234
0.0411678
0.0384909
0.0360321
0.0338907
0.0321224
0.0307575
0.0297706
0.029211
0.0290089
0.0292608
0.0302993
0.0326937
0.0372838
0.0448632
0.055817
0.0697478
0.0853839
0.10202
0.118378
0.133275
0.145981
0.156537
0.165682
0.174861
0.185626
0.199151
0.215906
0.235856
0.258649
0.283819
0.310864
0.339318
0.368784
0.398999
0.429837
0.461281
0.493368
0.526159
0.559724
0.594132
0.62944
0.665688
0.702907
0.741114
0.780309
0.82048
0.861601
0.903638
0.946552
0.990299
1.03484
1.08014
1.12615
1.17285
1.22022
1.26822
1.31685
1.36608
1.41588
1.46623
1.5171
1.56843
1.62019
1.6723
1.72471
1.77735
1.83014
1.88302
1.9359
1.98872
2.04143
2.09398
2.14631
2.1984
2.25018
2.30162
2.35267
2.40331
2.45351
2.50323
2.55245
2.60114
2.64926
2.69676
2.74363
2.78982
2.8353
2.88002
2.92395
2.96703
3.00924
3.05051
3.09081
3.1301
3.16833
3.20546
3.24143
3.27621
3.30974
3.34201
3.37296
3.40258
3.43083
3.45768
3.48313
3.50714
3.52972
3.55083
3.57049
3.58869
3.60543
3.62071
3.63453
3.6469
3.65781
3.66726
3.67527
3.68185
3.68701
3.69075
3.69308
3.69399
3.6936
3.69185
3.68875
3.68434
3.67862
3.67164
3.66341
3.65395
3.6433
3.63147
3.61851
3.60444
3.5893
3.57311
3.5559
3.53772
3.51859
3.49855
3.47766
3.45593
3.43342
3.41019
3.38629
3.36177
3.33671
3.31114
3.28511
3.25867
3.23187
3.20476
3.17736
3.14971
3.12186
3.09387
3.06577
3.03763
3.0095
2.98143
2.95348
2.9257
2.89817
2.87096
2.84416
2.81781
2.79192
2.76567
2.73712
0.000967718
0.0178571
0.0402052
0.0509716
0.0557667
0.0574485
0.0572622
0.0557962
0.0534721
0.0506211
0.0475308
0.0444484
0.0415851
0.0391005
0.0371152
0.0356847
0.0349367
0.0347715
0.0352836
0.0367392
0.0394562
0.0438128
0.0501184
0.058552
0.0690409
0.0813011
0.0947544
0.108588
0.122103
0.134702
0.146105
0.15642
0.166282
0.176712
0.188781
0.203259
0.220488
0.240398
0.262691
0.28697
0.312836
0.339923
0.367929
0.396637
0.425937
0.45581
0.486302
0.517487
0.549458
0.582304
0.616103
0.650923
0.686823
0.723847
0.762025
0.801375
0.841899
0.883588
0.926422
0.970374
1.01541
1.06151
1.10862
1.15672
1.20576
1.25573
1.30659
1.35831
1.41086
1.46419
1.51828
1.57305
1.62846
1.68443
1.74088
1.79773
1.85489
1.91228
1.96978
2.02732
2.08481
2.14219
2.19939
2.25635
2.31304
2.36939
2.42536
2.48089
2.53595
2.59051
2.64454
2.69801
2.75087
2.80309
2.85463
2.90544
2.9555
3.00475
3.05317
3.1007
3.14729
3.19289
3.23747
3.28096
3.32334
3.36454
3.40452
3.44323
3.48063
3.51666
3.55129
3.58448
3.6162
3.64641
3.6751
3.70223
3.7278
3.75179
3.77419
3.795
3.81422
3.83185
3.84789
3.86236
3.87524
3.88655
3.89629
3.90447
3.91109
3.91618
3.91975
3.92181
3.92239
3.92153
3.91919
3.91543
3.91026
3.9037
3.89578
3.88654
3.87598
3.86415
3.85107
3.83678
3.82131
3.80469
3.78696
3.76816
3.74831
3.72746
3.70563
3.68288
3.65924
3.63477
3.60953
3.58358
3.55698
3.52979
3.50207
3.47385
3.44519
3.41613
3.38671
3.35698
3.32697
3.29675
3.26637
3.23588
3.20533
3.17479
3.1443
3.11393
3.08374
3.05379
3.02417
2.99499
2.96628
2.93809
2.90963
2.87922
0.00154253
0.0254162
0.0483538
0.0586065
0.0629177
0.0641499
0.0635269
0.0616032
0.0588553
0.0556718
0.0523891
0.0492887
0.0466097
0.0445444
0.043308
0.0428912
0.043243
0.044573
0.0470066
0.0506959
0.0557871
0.0623634
0.0704065
0.0797901
0.0902746
0.101481
0.112963
0.124323
0.135329
0.145902
0.156221
0.166786
0.178287
0.191375
0.206519
0.223904
0.243459
0.264948
0.28807
0.312521
0.338033
0.364384
0.391415
0.419033
0.447218
0.476008
0.505482
0.535738
0.56688
0.599003
0.632198
0.666546
0.702116
0.738967
0.777144
0.816679
0.85759
0.899886
0.943565
0.988617
1.03502
1.08275
1.13178
1.18207
1.23359
1.2863
1.34017
1.39513
1.45117
1.50822
1.56622
1.6251
1.68477
1.74513
1.80607
1.8675
1.92932
1.99141
2.05365
2.11594
2.17818
2.24028
2.30219
2.36382
2.42514
2.48607
2.54656
2.60655
2.666
2.72489
2.78317
2.84082
2.89779
2.95404
3.00951
3.06416
3.11796
3.17086
3.22281
3.27378
3.3237
3.37252
3.42019
3.46667
3.5119
3.55585
3.59845
3.63966
3.67942
3.71769
3.75442
3.78957
3.82312
3.85502
3.88527
3.91382
3.94066
3.96579
3.98919
4.01088
4.03085
4.0491
4.06566
4.08051
4.09366
4.10513
4.11491
4.12302
4.12947
4.13429
4.13749
4.13909
4.13914
4.13766
4.13459
4.13
4.12394
4.11641
4.10745
4.09708
4.08534
4.07224
4.05784
4.04215
4.02522
4.00708
3.98778
3.96735
3.94582
3.92323
3.89962
3.87501
3.84946
3.82304
3.79581
3.76785
3.7392
3.70994
3.68011
3.64976
3.61892
3.58765
3.55598
3.52397
3.49166
3.45912
3.42641
3.39358
3.3607
3.3278
3.29496
3.26221
3.22963
3.19731
3.16532
3.13377
3.10271
3.07221
3.04153
3.00921
0.0023001
0.0322286
0.0559478
0.06623
0.0703688
0.071358
0.0704178
0.0681508
0.0651425
0.0618757
0.0587438
0.0560479
0.0540037
0.0529299
0.0526738
0.0533516
0.0550861
0.0579016
0.0618216
0.0668612
0.0730172
0.080212
0.0883184
0.0971686
0.106562
0.116299
0.126227
0.136258
0.146428
0.156937
0.168131
0.180427
0.194186
0.209646
0.226881
0.245818
0.266285
0.288067
0.310952
0.334753
0.359322
0.38455
0.410378
0.43679
0.463821
0.491542
0.520048
0.549445
0.579842
0.611342
0.644047
0.678046
0.713423
0.750251
0.788584
0.828468
0.869938
0.913024
0.957739
1.00409
1.05207
1.10166
1.15285
1.2056
1.25987
1.31562
1.3728
1.43135
1.4912
1.55228
1.6145
1.67777
1.74194
1.80688
1.87247
1.93859
2.00512
2.07194
2.13892
2.20595
2.2729
2.3397
2.40626
2.47251
2.53837
2.60376
2.66864
2.73294
2.79664
2.85969
2.92206
2.98371
3.04458
3.10463
3.1638
3.22204
3.27932
3.33558
3.39078
3.44488
3.4978
3.5495
3.59992
3.64903
3.69675
3.74306
3.78789
3.8312
3.87293
3.91303
3.95146
3.98817
4.02314
4.05634
4.08774
4.11732
4.14504
4.17091
4.19494
4.21712
4.23747
4.25598
4.27268
4.28757
4.30066
4.31196
4.32148
4.32923
4.33522
4.33948
4.34206
4.34297
4.34228
4.33995
4.33594
4.33037
4.32324
4.3146
4.30445
4.29284
4.2798
4.26535
4.24954
4.23239
4.21395
4.19425
4.17334
4.15126
4.12805
4.10374
4.07836
4.05192
4.02449
3.99617
3.96702
3.93711
3.90649
3.87523
3.84337
3.81096
3.77804
3.74466
3.71083
3.67662
3.6421
3.60734
3.57241
3.53735
3.50223
3.46708
3.43196
3.39693
3.36206
3.32743
3.29314
3.25929
3.22593
3.19316
3.16029
3.1261
0.00317987
0.038385
0.0636046
0.0740942
0.0781329
0.078943
0.0777472
0.0752109
0.0720358
0.068881
0.0662256
0.0643045
0.0633276
0.0631007
0.0638086
0.0655746
0.0683234
0.0720133
0.0766107
0.0820778
0.0883461
0.0953308
0.102944
0.111104
0.119751
0.128839
0.138375
0.148446
0.159206
0.170862
0.183628
0.19768
0.213109
0.229922
0.248047
0.267361
0.287723
0.308995
0.331058
0.353823
0.377231
0.401256
0.425904
0.451209
0.477238
0.504081
0.531845
0.560636
0.590557
0.621717
0.654224
0.688177
0.72367
0.760785
0.799598
0.840173
0.882568
0.926831
0.972997
1.02109
1.07111
1.12305
1.17691
1.23264
1.2902
1.34955
1.4106
1.47326
1.53743
1.60299
1.66982
1.73777
1.80668
1.87636
1.94666
2.01742
2.08855
2.15993
2.23145
2.303
2.37446
2.44573
2.51673
2.58736
2.65752
2.72707
2.79602
2.86433
2.93194
2.99881
3.0649
3.13016
3.19453
3.25796
3.3204
3.38177
3.44205
3.50119
3.55913
3.61584
3.67124
3.72528
3.7779
3.82906
3.87871
3.92681
3.9733
4.01813
4.06125
4.1026
4.14215
4.17985
4.21567
4.2496
4.2816
4.31166
4.33975
4.36587
4.39003
4.41223
4.43247
4.45077
4.46715
4.48162
4.4942
4.5049
4.51373
4.52072
4.52589
4.52928
4.53093
4.53085
4.52919
4.5257
4.52055
4.51377
4.5054
4.49546
4.48399
4.47101
4.45655
4.44066
4.42335
4.40468
4.38468
4.36339
4.34087
4.31714
4.29226
4.26627
4.23918
4.21095
4.18173
4.1516
4.12063
4.08887
4.05639
4.02324
3.98947
3.95514
3.92027
3.88491
3.84905
3.81278
3.7762
3.73937
3.70236
3.66523
3.62801
3.59076
3.55351
3.51632
3.47927
3.44247
3.406
3.36996
3.33441
3.29947
3.2645
3.22854
0.0041254
0.0447374
0.0711054
0.0818932
0.0859026
0.0865638
0.0849861
0.0821226
0.0789891
0.0762873
0.0743795
0.073452
0.0732228
0.0737566
0.0752922
0.077746
0.0810447
0.0851284
0.0899538
0.0954803
0.101671
0.108497
0.115942
0.123995
0.132673
0.142022
0.15212
0.163056
0.174938
0.187861
0.201876
0.217004
0.233214
0.250441
0.2686
0.287605
0.307376
0.327853
0.348995
0.370786
0.393229
0.416346
0.44019
0.464828
0.490318
0.516758
0.544262
0.572939
0.602905
0.634271
0.667151
0.701656
0.737894
0.775962
0.815951
0.857945
0.902021
0.94825
0.996687
1.04736
1.10029
1.15545
1.21283
1.2724
1.33409
1.39782
1.46349
1.53095
1.60003
1.67055
1.74229
1.81509
1.88876
1.96309
2.03788
2.11293
2.18815
2.26353
2.33904
2.41459
2.49002
2.56523
2.64016
2.71465
2.78857
2.86179
2.93435
3.00615
3.07715
3.14728
3.2165
3.28475
3.35198
3.41813
3.48312
3.54692
3.60947
3.67073
3.73065
3.78919
3.84628
3.90187
3.9559
4.00832
4.0591
4.10818
4.15552
4.20109
4.24481
4.28664
4.32653
4.36445
4.40038
4.43429
4.46617
4.49601
4.52379
4.54952
4.57317
4.59476
4.61428
4.63177
4.64725
4.66074
4.67225
4.68182
4.68946
4.6952
4.69911
4.70122
4.70155
4.70024
4.69712
4.69221
4.68562
4.67739
4.66754
4.65611
4.64312
4.6286
4.6126
4.59513
4.57624
4.55597
4.53435
4.51142
4.48724
4.46185
4.4353
4.40763
4.37887
4.34899
4.31812
4.28634
4.25369
4.22025
4.18606
4.15118
4.11567
4.07957
4.04294
4.00579
3.96808
3.92997
3.89153
3.85284
3.81396
3.77494
3.73582
3.69666
3.65748
3.61831
3.57928
3.54049
3.50201
3.46396
3.42638
3.38942
3.35247
3.31494
0.00509689
0.0509126
0.078403
0.0894264
0.093363
0.0938353
0.0918403
0.0888465
0.0860308
0.0839554
0.0829036
0.0825843
0.0829088
0.0840958
0.0861662
0.0890481
0.0926819
0.097022
0.102048
0.10775
0.114128
0.121191
0.128963
0.13748
0.146784
0.156928
0.167959
0.179918
0.192813
0.206641
0.221394
0.237036
0.253503
0.270741
0.288699
0.307343
0.326657
0.346639
0.367297
0.388657
0.410767
0.433704
0.457585
0.482409
0.508185
0.535085
0.563268
0.592839
0.623901
0.656565
0.690951
0.727178
0.765363
0.805613
0.848031
0.89271
0.939743
0.989204
1.04117
1.09567
1.15268
1.21215
1.27404
1.3383
1.40484
1.47356
1.54434
1.61698
1.69125
1.76684
1.84336
1.92066
1.99859
2.07702
2.15571
2.23445
2.3132
2.39202
2.47087
2.54959
2.62804
2.70624
2.78422
2.8617
2.93854
3.01471
3.09007
3.16451
3.23796
3.31038
3.38172
3.45192
3.52092
3.58867
3.65509
3.72015
3.78379
3.846
3.90672
3.96591
4.02352
4.07948
4.13374
4.18626
4.237
4.28593
4.33302
4.37823
4.42149
4.46273
4.50194
4.53907
4.57412
4.60706
4.63789
4.6666
4.69317
4.7176
4.7399
4.76007
4.77812
4.79409
4.80801
4.8199
4.8298
4.83771
4.84367
4.84771
4.8499
4.85031
4.84908
4.84602
4.84113
4.83454
4.82627
4.81637
4.80485
4.79177
4.77714
4.761
4.74338
4.72431
4.70382
4.68196
4.65876
4.63425
4.60849
4.58153
4.55341
4.52417
4.49387
4.46256
4.43026
4.39705
4.36295
4.32803
4.29235
4.25596
4.2189
4.18125
4.14306
4.10435
4.06509
4.02541
3.9854
3.94512