/*--------------------------------*- C++ -*----------------------------------*\
  =========                 |
  \\      /  F ield         | OpenFOAM: The Open Source CFD Toolbox
   \\    /   O peration     | Website:  https://openfoam.org
    \\  /    A nd           | Version:  8
     \\/     M anipulation  |
\*---------------------------------------------------------------------------*/
FoamFile
{
    version     2.0;
    format      ascii;
    class       volScalarField;
    location    "500";
    object      p;
}
// * * * * * * * * * * * * * * * * * * * * * * * * * * * * * * * * * * * * * //

dimensions      [0 2 -2 0 0 0 0];

internalField   nonuniform List<scalar> 
12225
(
-3.37854
-4.55005
-5.13041
-5.29932
-5.42976
-5.5707
-5.68663
-5.77217
-5.83888
-5.89741
-5.94907
-5.99783
-6.04377
-6.08978
-6.13625
-6.18198
-6.24118
-6.25384
-4.3779
-5.10747
-5.39634
-5.43704
-5.49591
-5.5913
-5.68007
-5.74923
-5.80676
-5.85891
-5.90826
-5.95535
-6.00168
-6.04788
-6.09544
-6.14305
-6.19807
-6.25424
-4.61788
-4.94052
-5.18875
-5.30452
-5.40876
-5.52814
-5.63424
-5.71776
-5.78649
-5.84728
-5.90358
-5.95587
-6.00614
-6.05493
-6.10418
-6.1529
-6.20735
-6.25893
-4.7033
-4.90857
-5.18716
-5.34513
-5.44878
-5.55389
-5.65064
-5.72921
-5.79443
-5.85263
-5.90679
-5.95752
-6.00626
-6.05374
-6.10135
-6.14884
-6.19873
-6.24593
-4.79564
-4.96297
-5.21435
-5.36447
-5.45585
-5.54938
-5.64143
-5.71932
-5.7848
-5.84351
-5.89833
-5.94997
-5.99948
-6.04762
-6.09537
-6.14268
-6.19037
-6.23605
-4.89131
-5.02165
-5.22562
-5.36619
-5.45794
-5.54845
-5.63827
-5.71595
-5.78173
-5.84067
-5.89564
-5.94747
-5.99693
-6.04475
-6.09166
-6.13771
-6.1831
-6.22659
-4.97981
-5.07625
-5.24026
-5.37359
-5.46699
-5.5532
-5.63792
-5.7132
-5.77814
-5.83662
-5.89126
-5.94288
-5.99207
-6.03944
-6.08552
-6.13039
-6.17403
-6.21564
-5.04803
-5.12297
-5.2599
-5.38389
-5.47557
-5.55746
-5.63764
-5.71076
-5.77504
-5.83319
-5.88753
-5.9389
-5.98779
-6.03469
-6.08002
-6.12385
-6.16611
-6.20624
-5.10417
-5.16461
-5.28047
-5.39425
-5.48319
-5.56175
-5.63827
-5.70935
-5.77282
-5.83045
-5.88431
-5.93527
-5.98372
-6.03007
-6.07464
-6.1175
-6.1586
-6.19746
-5.16055
-5.2089
-5.3051
-5.40719
-5.49223
-5.56742
-5.64008
-5.70857
-5.77077
-5.82762
-5.8808
-5.93115
-5.97901
-6.02466
-6.06837
-6.11019
-6.15008
-6.18771
-5.21643
-5.25476
-5.33349
-5.42323
-5.50303
-5.57445
-5.64305
-5.7085
-5.76901
-5.8248
-5.87708
-5.9266
-5.97366
-6.01847
-6.06119
-6.10188
-6.14054
-6.17692
-5.27088
-5.30112
-5.36493
-5.44234
-5.51564
-5.58279
-5.64725
-5.70934
-5.7677
-5.82208
-5.87319
-5.92164
-5.96769
-6.01146
-6.05307
-6.09257
-6.12998
-6.16513
-5.32287
-5.34673
-5.39821
-5.464
-5.53002
-5.5924
-5.65264
-5.71115
-5.76694
-5.81951
-5.86916
-5.9163
-5.96111
-6.00368
-6.04407
-6.08233
-6.11848
-6.15242
-5.37115
-5.3901
-5.4317
-5.48717
-5.54572
-5.60297
-5.65894
-5.71376
-5.76668
-5.81711
-5.86502
-5.91061
-5.954
-5.99522
-6.0343
-6.07127
-6.10617
-6.13895
-5.41413
-5.42939
-5.46338
-5.5102
-5.56175
-5.61384
-5.66561
-5.71678
-5.7667
-5.81476
-5.86073
-5.90461
-5.94643
-5.98619
-6.0239
-6.05958
-6.09326
-6.12492
-5.44965
-5.46227
-5.4907
-5.53082
-5.57643
-5.62382
-5.67171
-5.7195
-5.76653
-5.8122
-5.85615
-5.89825
-5.93846
-5.97674
-6.01308
-6.04749
-6.08
-6.11063
-5.47466
-5.48556
-5.51037
-5.54597
-5.58727
-5.631
-5.67575
-5.72076
-5.76535
-5.80888
-5.85097
-5.89142
-5.93011
-5.96701
-6.00207
-6.03531
-6.06676
-6.09644
-5.48381
-5.49406
-5.51752
-5.55131
-5.59071
-5.63263
-5.67568
-5.7191
-5.7622
-5.80435
-5.84516
-5.8844
-5.92197
-5.95781
-5.99189
-6.02421
-6.05481
-6.08373
-5.47623
-5.48694
-5.51131
-5.54609
-5.58615
-5.62829
-5.67129
-5.71451
-5.75731
-5.79905
-5.83934
-5.87801
-5.91498
-5.9502
-5.98368
-6.01543
-6.0455
-6.07394
-5.45599
-5.46808
-5.49533
-5.53346
-5.5762
-5.62008
-5.66422
-5.70829
-5.75168
-5.79373
-5.83411
-5.87271
-5.9095
-5.94448
-5.97763
-6.00903
-6.03872
-6.06679
-5.42587
-5.44035
-5.47258
-5.5163
-5.56322
-5.60976
-5.65587
-5.70158
-5.74613
-5.78887
-5.8296
-5.86839
-5.90526
-5.94022
-5.97331
-6.0046
-6.03417
-6.06215
-5.38753
-5.40565
-5.44545
-5.49706
-5.54907
-5.59853
-5.64706
-5.69503
-5.74126
-5.78501
-5.82631
-5.86539
-5.90235
-5.93724
-5.97015
-6.00121
-6.03052
-6.05818
-5.34195
-5.36534
-5.41587
-5.47774
-5.5354
-5.58773
-5.63874
-5.68892
-5.73674
-5.78159
-5.82374
-5.86349
-5.90092
-5.93609
-5.96915
-6.00027
-6.02959
-6.05732
-5.28952
-5.32081
-5.38614
-5.45925
-5.52194
-5.57789
-5.63264
-5.68533
-5.73413
-5.77922
-5.8215
-5.86131
-5.89871
-5.93376
-5.96668
-5.99764
-6.0268
-6.05426
-5.22991
-5.27276
-5.36091
-5.44455
-5.50753
-5.5656
-5.62544
-5.6825
-5.73384
-5.78044
-5.82372
-5.86414
-5.90176
-5.9368
-5.96954
-6.00026
-6.02918
-6.05657
-5.16347
-5.21682
-5.34117
-5.44086
-5.50198
-5.55743
-5.61721
-5.67462
-5.72625
-5.77345
-5.81753
-5.8587
-5.89691
-5.93239
-5.96548
-5.99649
-6.02564
-6.05317
-5.09786
-5.15255
-5.30598
-5.4266
-5.5023
-5.56838
-5.63284
-5.69048
-5.7409
-5.78683
-5.82968
-5.86958
-5.90651
-5.94074
-5.9726
-6.00245
-6.03059
-6.05746
-5.03881
-5.14861
-5.27746
-5.35992
-5.43248
-5.51362
-5.59143
-5.6577
-5.71465
-5.76609
-5.81339
-5.85677
-5.89646
-5.9329
-5.96654
-5.99783
-6.02731
-6.05587
-4.86236
-5.30758
-5.49855
-5.51682
-5.53852
-5.59409
-5.65458
-5.70653
-5.75251
-5.79588
-5.83684
-5.87491
-5.91006
-5.94251
-5.97255
-6.00037
-6.02635
-6.05195
-3.99096
-4.76817
-5.2178
-5.35009
-5.4307
-5.52623
-5.61344
-5.68284
-5.74108
-5.79378
-5.84223
-5.88605
-5.92558
-5.96156
-5.99441
-6.02415
-6.05063
-6.07229
-6.85717
-6.85717
-6.85748
-6.85813
-6.85898
-6.85995
-6.86104
-6.86226
-6.86365
-6.86526
-6.86714
-6.86934
-6.87191
-6.87489
-6.87832
-6.88225
-6.88673
-6.8918
-6.8975
-6.90387
-6.91095
-6.91878
-6.9274
-6.93684
-6.94715
-6.95838
-6.97057
-6.98381
-6.9982
-7.01396
-7.03126
-7.05019
-7.07058
-7.09215
-7.11411
-7.13574
-7.15762
-7.18155
-7.20824
-7.23473
-7.26093
-7.28704
-7.31047
-7.33453
-7.3574
-7.38095
-7.40799
-7.4356
-7.46405
-7.49295
-7.52216
-7.55153
-7.58095
-7.61029
-7.63946
-7.66835
-7.69685
-7.72488
-7.75231
-7.77905
-7.80497
-7.82997
-7.85391
-7.87668
-7.89813
-7.91812
-7.93652
-7.95317
-7.96792
-7.9806
-7.99104
-7.99909
-8.00457
-8.00729
-8.00708
-8.00375
-7.99712
-7.98701
-7.97322
-7.95557
-7.93387
-7.90795
-7.8776
-7.84267
-7.80296
-7.75832
-7.70856
-7.65353
-7.59307
-7.52701
-7.45525
-7.37765
-7.29408
-7.20444
-7.10861
-7.00656
-6.89831
-6.78397
-6.66338
-6.536
-6.4017
-6.2607
-6.11308
-5.95886
-5.79806
-5.63073
-5.4569
-5.27663
-5.08999
-4.89706
-4.69795
-4.49276
-4.28162
-4.06466
-3.84205
-3.61394
-3.38051
-3.14195
-2.89847
-2.65028
-2.39759
-2.14066
-1.87972
-1.61503
-1.34685
-1.07545
-0.801103
-0.524103
-0.24473
0.0367198
0.319955
0.60469
0.890638
1.17749
1.46493
1.75265
2.04039
2.32787
2.6148
2.90089
3.18588
3.4695
3.75149
4.03162
4.30965
4.58536
4.85852
5.12894
5.39642
5.66077
5.92182
6.17942
6.4334
6.68362
6.92996
7.17229
7.4105
7.64448
7.87415
8.09941
8.3202
8.53645
8.74809
8.95509
9.15741
9.35513
9.54819
9.73628
9.91928
10.0972
10.27
10.4378
10.6005
10.7582
10.9109
11.0589
11.2032
11.3447
11.4929
11.6443
-6.85633
-6.85653
-6.85693
-6.85753
-6.85815
-6.8587
-6.85922
-6.85983
-6.86065
-6.86175
-6.86316
-6.86493
-6.86709
-6.86966
-6.87267
-6.87617
-6.88019
-6.88476
-6.88993
-6.89575
-6.90225
-6.90947
-6.91746
-6.92625
-6.93588
-6.94639
-6.9578
-6.97014
-6.98342
-6.99764
-7.01272
-7.02855
-7.04515
-7.06239
-7.08035
-7.09975
-7.12114
-7.14373
-7.16438
-7.18517
-7.20718
-7.23037
-7.25865
-7.28899
-7.32196
-7.35583
-7.38563
-7.41505
-7.44438
-7.47372
-7.50309
-7.53247
-7.56181
-7.59102
-7.62003
-7.64876
-7.67711
-7.70499
-7.73229
-7.75892
-7.78477
-7.80972
-7.83364
-7.85642
-7.87791
-7.898
-7.91652
-7.93333
-7.94827
-7.96119
-7.97193
-7.9803
-7.98615
-7.98929
-7.98954
-7.98672
-7.98065
-7.97113
-7.95799
-7.94104
-7.92009
-7.89496
-7.86546
-7.83141
-7.79265
-7.749
-7.70028
-7.64635
-7.58703
-7.52218
-7.45169
-7.37541
-7.29323
-7.20503
-7.1107
-7.01013
-6.90319
-6.78972
-6.66956
-6.54292
-6.40992
-6.27039
-6.12429
-5.97163
-5.81241
-5.64665
-5.47441
-5.29572
-5.11067
-4.91932
-4.72178
-4.51814
-4.30854
-4.09311
-3.872
-3.64537
-3.41339
-3.17626
-2.93416
-2.68731
-2.43594
-2.18027
-1.92055
-1.65703
-1.38997
-1.11963
-0.846298
-0.570248
-0.291769
-0.0111514
0.271314
0.555342
0.840648
1.12693
1.41386
1.70114
1.98851
2.27568
2.56236
2.84828
3.13316
3.41673
3.69875
3.97896
4.25713
4.53303
4.80644
5.07716
5.345
5.60976
5.87127
6.12936
6.38389
6.6347
6.88166
7.12465
7.36355
7.59827
7.8287
8.05475
8.27636
8.49346
8.70601
8.91397
9.1173
9.31575
9.50905
9.69724
9.8804
10.0585
10.2316
10.3997
10.5627
10.7209
10.8742
11.0231
11.1689
11.312
11.4635
11.6111
-6.85323
-6.85396
-6.855
-6.85595
-6.85658
-6.85696
-6.85725
-6.85761
-6.85818
-6.85903
-6.86023
-6.8618
-6.86379
-6.86621
-6.86909
-6.87248
-6.87639
-6.88087
-6.88597
-6.89171
-6.89814
-6.90531
-6.91325
-6.922
-6.9316
-6.94209
-6.95349
-6.96583
-6.97913
-6.9934
-7.00857
-7.02453
-7.04118
-7.05851
-7.07671
-7.09621
-7.11727
-7.13947
-7.16182
-7.18473
-7.20869
-7.23349
-7.25969
-7.28659
-7.3143
-7.34293
-7.37131
-7.39993
-7.4287
-7.45755
-7.48645
-7.51535
-7.54419
-7.5729
-7.60143
-7.62968
-7.65758
-7.68503
-7.71195
-7.73821
-7.76373
-7.78839
-7.81206
-7.83463
-7.85596
-7.87592
-7.89437
-7.91115
-7.92612
-7.93912
-7.94998
-7.95854
-7.96462
-7.96805
-7.96865
-7.96624
-7.96063
-7.95164
-7.93909
-7.92279
-7.90255
-7.87819
-7.84952
-7.81638
-7.77857
-7.73594
-7.68831
-7.63551
-7.57739
-7.51379
-7.4446
-7.36968
-7.2889
-7.20215
-7.10932
-7.01031
-6.90502
-6.79328
-6.67496
-6.55013
-6.41886
-6.2811
-6.13682
-5.98599
-5.82864
-5.66477
-5.49443
-5.31765
-5.13452
-4.94509
-4.74947
-4.54776
-4.34007
-4.12654
-3.90732
-3.68256
-3.45243
-3.21712
-2.97682
-2.73173
-2.48209
-2.22811
-1.97003
-1.70811
-1.44259
-1.17375
-0.901862
-0.627195
-0.35004
-0.0706848
0.210581
0.493475
0.777712
1.06299
1.34898
1.63541
1.922
2.20845
2.49449
2.77984
3.06421
3.34735
3.629
3.90891
4.18684
4.46256
4.73586
5.00653
5.27436
5.53918
5.80079
6.05903
6.31375
6.5648
6.81203
7.05533
7.29458
7.52967
7.76049
7.98697
8.20901
8.42653
8.63947
8.84774
9.05133
9.2502
9.44426
9.63345
9.81766
9.99685
10.171
10.3402
10.5044
10.6637
10.8184
10.969
11.1168
11.2618
11.4163
11.5538
-6.84802
-6.84938
-6.85143
-6.85316
-6.85427
-6.85498
-6.85551
-6.85604
-6.8567
-6.85759
-6.8588
-6.86036
-6.86233
-6.86475
-6.86763
-6.87102
-6.87495
-6.87945
-6.88456
-6.89033
-6.89678
-6.90396
-6.9119
-6.92064
-6.93021
-6.94066
-6.952
-6.96425
-6.97744
-6.99156
-7.00658
-7.02242
-7.039
-7.0563
-7.07438
-7.09345
-7.11364
-7.13488
-7.15698
-7.17997
-7.20404
-7.22913
-7.25513
-7.28172
-7.30874
-7.33614
-7.36383
-7.39181
-7.41999
-7.44831
-7.47672
-7.50515
-7.53356
-7.56186
-7.59
-7.61789
-7.64545
-7.6726
-7.69923
-7.72525
-7.75056
-7.77505
-7.79858
-7.82105
-7.84233
-7.86227
-7.88073
-7.89758
-7.91265
-7.92579
-7.93683
-7.94562
-7.95197
-7.95571
-7.95667
-7.95466
-7.94949
-7.94099
-7.92897
-7.91325
-7.89363
-7.86993
-7.84197
-7.80957
-7.77256
-7.73076
-7.684
-7.63212
-7.57495
-7.51234
-7.44417
-7.3703
-7.29059
-7.20493
-7.1132
-7.0153
-6.91113
-6.80059
-6.68358
-6.56013
-6.43022
-6.29384
-6.15095
-6.00153
-5.8456
-5.68317
-5.51427
-5.33896
-5.15728
-4.96932
-4.77516
-4.57491
-4.36868
-4.15661
-3.93882
-3.71548
-3.48676
-3.25283
-3.0139
-2.77016
-2.52183
-2.26913
-2.01231
-1.7516
-1.48726
-1.21956
-0.94877
-0.675158
-0.399012
-0.120621
0.159728
0.441762
0.725187
1.00969
1.29496
1.58074
1.86673
2.15264
2.43818
2.72308
3.00707
3.28987
3.57124
3.85091
4.12866
4.40425
4.67746
4.94809
5.21592
5.48077
5.74246
6.00082
6.25569
6.50692
6.75437
6.99791
7.23743
7.47279
7.70391
7.93069
8.15306
8.37094
8.58424
8.79291
8.99689
9.19616
9.39073
9.58051
9.76538
9.94525
10.1201
10.29
10.4549
10.6151
10.7707
10.9222
11.071
11.216
11.3695
11.4948
-6.84184
-6.8439
-6.84717
-6.84992
-6.85174
-6.85299
-6.85397
-6.85487
-6.85584
-6.85699
-6.85841
-6.86017
-6.86232
-6.86491
-6.86796
-6.87152
-6.87562
-6.88029
-6.88558
-6.89152
-6.89814
-6.90549
-6.91359
-6.9225
-6.93222
-6.9428
-6.95427
-6.96663
-6.9799
-6.99409
-7.00916
-7.02509
-7.04183
-7.05936
-7.07769
-7.09687
-7.11695
-7.13792
-7.15976
-7.18248
-7.20612
-7.23067
-7.25604
-7.28209
-7.30866
-7.33561
-7.36286
-7.39037
-7.41809
-7.44597
-7.47396
-7.50201
-7.53004
-7.558
-7.58582
-7.61342
-7.64071
-7.66762
-7.69404
-7.71989
-7.74504
-7.76941
-7.79285
-7.81527
-7.83651
-7.85646
-7.87496
-7.89188
-7.90705
-7.92032
-7.93153
-7.9405
-7.94708
-7.95108
-7.95232
-7.95062
-7.94581
-7.93768
-7.92607
-7.91078
-7.89162
-7.86841
-7.84098
-7.80913
-7.77269
-7.73149
-7.68535
-7.63412
-7.57762
-7.51572
-7.44827
-7.37514
-7.29619
-7.2113
-7.12036
-7.02327
-6.91993
-6.81025
-6.69417
-6.57167
-6.44271
-6.30727
-6.16533
-6.01688
-5.86192
-5.70047
-5.53255
-5.35823
-5.17754
-4.99057
-4.7974
-4.59814
-4.39289
-4.18179
-3.96497
-3.74259
-3.51481
-3.28182
-3.0438
-2.80096
-2.55351
-2.30168
-2.04569
-1.78579
-1.52225
-1.2553
-0.98524
-0.712329
-0.436854
-0.159105
0.120642
0.402111
0.684997
0.968981
1.25378
1.53914
1.82475
2.1103
2.39553
2.68015
2.9639
3.24649
3.52769
3.80723
4.08488
4.36041
4.63359
4.90421
5.17208
5.437
5.69878
5.95726
6.21228
6.46369
6.71134
6.95509
7.19483
7.43046
7.66186
7.88895
8.11163
8.32983
8.54347
8.75248
8.95679
9.15635
9.35116
9.54117
9.7263
9.90647
10.0817
10.2519
10.4172
10.5777
10.7337
10.8854
11.0341
11.1779
11.3286
11.4424
-6.83596
-6.83867
-6.84313
-6.84692
-6.84952
-6.85139
-6.85291
-6.85429
-6.85568
-6.85721
-6.85898
-6.86108
-6.86354
-6.86644
-6.86979
-6.87366
-6.87806
-6.88303
-6.88862
-6.89486
-6.90178
-6.90942
-6.91782
-6.927
-6.93699
-6.94783
-6.95954
-6.97212
-6.98559
-6.99995
-7.01519
-7.03129
-7.04821
-7.06595
-7.08449
-7.10384
-7.124
-7.14497
-7.16673
-7.18928
-7.21262
-7.23673
-7.26155
-7.287
-7.31299
-7.33941
-7.36619
-7.39326
-7.42058
-7.44808
-7.47573
-7.50345
-7.53119
-7.55888
-7.58645
-7.61383
-7.64094
-7.66768
-7.69396
-7.7197
-7.74477
-7.76908
-7.7925
-7.81491
-7.83618
-7.85617
-7.87475
-7.89176
-7.90705
-7.92047
-7.93184
-7.94101
-7.94779
-7.95202
-7.95351
-7.95208
-7.94755
-7.93973
-7.92844
-7.91348
-7.89468
-7.87185
-7.84479
-7.81335
-7.77732
-7.73655
-7.69086
-7.64009
-7.58406
-7.52264
-7.45569
-7.38306
-7.30463
-7.22027
-7.12988
-7.03335
-6.93058
-6.8215
-6.70604
-6.58417
-6.45584
-6.32104
-6.17974
-6.03192
-5.87761
-5.7168
-5.54954
-5.37587
-5.19584
-5.00952
-4.81701
-4.61841
-4.41381
-4.20336
-3.98719
-3.76545
-3.5383
-3.30594
-3.06854
-2.8263
-2.57944
-2.32819
-2.07277
-1.81343
-1.55041
-1.28399
-1.01442
-0.741994
-0.466983
-0.189675
0.0896592
0.37073
0.653227
0.936844
1.22132
1.50637
1.7917
2.077
2.362
2.64641
2.92997
3.2124
3.49346
3.77289
4.05045
4.32591
4.59906
4.86966
5.13754
5.40248
5.66432
5.92287
6.17798
6.42949
6.67726
6.92116
7.16107
7.39688
7.62848
7.85578
8.07867
8.29709
8.51095
8.72018
8.9247
9.12445
9.3194
9.50955
9.69481
9.87514
10.0505
10.2209
10.3864
10.5471
10.7032
10.8547
11.0029
11.1449
11.2927
11.3963
-6.83133
-6.83466
-6.84011
-6.84481
-6.84814
-6.85065
-6.85274
-6.85463
-6.85649
-6.85847
-6.86066
-6.86315
-6.86601
-6.86928
-6.87302
-6.87726
-6.88203
-6.88738
-6.89334
-6.89995
-6.90723
-6.91523
-6.92397
-6.93349
-6.9438
-6.95494
-6.96691
-6.97975
-6.99344
-7.00799
-7.02339
-7.03963
-7.05669
-7.07456
-7.09321
-7.11264
-7.13284
-7.15379
-7.17549
-7.19791
-7.22104
-7.24487
-7.26933
-7.29439
-7.31996
-7.34598
-7.37239
-7.39912
-7.42612
-7.45334
-7.48072
-7.50821
-7.53574
-7.56325
-7.59066
-7.61791
-7.6449
-7.67156
-7.69779
-7.72349
-7.74855
-7.77287
-7.79632
-7.81879
-7.84013
-7.86022
-7.87891
-7.89605
-7.91148
-7.92506
-7.9366
-7.94595
-7.95293
-7.95736
-7.95907
-7.95786
-7.95357
-7.94599
-7.93494
-7.92024
-7.90169
-7.87912
-7.85234
-7.82117
-7.78542
-7.74494
-7.69954
-7.64905
-7.59333
-7.53221
-7.46557
-7.39326
-7.31515
-7.23112
-7.14106
-7.04487
-6.94245
-6.83374
-6.71866
-6.59717
-6.46923
-6.33481
-6.1939
-6.04648
-5.89256
-5.73215
-5.56529
-5.39201
-5.21239
-5.02649
-4.83439
-4.63619
-4.43201
-4.22197
-4.00621
-3.78488
-3.55814
-3.32618
-3.08918
-2.84734
-2.60088
-2.35001
-2.09497
-1.83599
-1.57334
-1.30727
-1.03805
-0.765954
-0.491266
-0.214265
0.064775
0.34555
0.627754
0.911101
1.19533
1.48016
1.76526
2.05036
2.33516
2.61939
2.90279
3.18507
3.466
3.74531
4.02277
4.29815
4.57122
4.84177
5.10961
5.37452
5.63635
5.8949
6.15003
6.40158
6.64941
6.89338
7.13337
7.36927
7.60097
7.82837
8.05138
8.26992
8.4839
8.69325
8.89789
9.09776
9.29283
9.48307
9.66843
9.84886
10.0243
10.1948
10.3604
10.5211
10.6771
10.8282
10.9755
11.1156
11.2608
11.3555
-6.82865
-6.83245
-6.83864
-6.84405
-6.84802
-6.85111
-6.85374
-6.85613
-6.85846
-6.86088
-6.8635
-6.86641
-6.86968
-6.87335
-6.87749
-6.88212
-6.88729
-6.89303
-6.89937
-6.90636
-6.91402
-6.92238
-6.93147
-6.94132
-6.95195
-6.96339
-6.97563
-6.9887
-7.0026
-7.01733
-7.03288
-7.04924
-7.0664
-7.08435
-7.10306
-7.12253
-7.14273
-7.16366
-7.18529
-7.20761
-7.23059
-7.25421
-7.27844
-7.30323
-7.32852
-7.35427
-7.38042
-7.40692
-7.43371
-7.46074
-7.48796
-7.51531
-7.54272
-7.57014
-7.59748
-7.62468
-7.65165
-7.6783
-7.70455
-7.73029
-7.75541
-7.7798
-7.80334
-7.82591
-7.84737
-7.86759
-7.88642
-7.90371
-7.91931
-7.93304
-7.94476
-7.95428
-7.96144
-7.96605
-7.96793
-7.9669
-7.96278
-7.95537
-7.9445
-7.92997
-7.91159
-7.88919
-7.86257
-7.83156
-7.79598
-7.75564
-7.7104
-7.66007
-7.60449
-7.54353
-7.47703
-7.40487
-7.32692
-7.24304
-7.15313
-7.0571
-6.95485
-6.84631
-6.73141
-6.61011
-6.48236
-6.34813
-6.20741
-6.06018
-5.90645
-5.74624
-5.57958
-5.40652
-5.22711
-5.04142
-4.84954
-4.65157
-4.44761
-4.23781
-4.02228
-3.80119
-3.57469
-3.34297
-3.10622
-2.86462
-2.6184
-2.36777
-2.11297
-1.85423
-1.59182
-1.32598
-1.05699
-0.785118
-0.510651
-0.233861
0.0449629
0.325514
0.6075
0.890644
1.17468
1.45933
1.74426
2.02918
2.31382
2.59789
2.88113
3.16327
3.44406
3.72325
4.00059
4.27586
4.54883
4.81929
5.08705
5.3519
5.61368
5.87219
6.12729
6.37882
6.62664
6.87062
7.11062
7.34654
7.57827
7.80571
8.02877
8.24736
8.4614
8.67081
8.87552
9.07545
9.27059
9.46088
9.6463
9.82678
10.0023
10.1728
10.3384
10.499
10.6547
10.8053
10.9515
11.0896
11.2323
11.3194
-6.82824
-6.83236
-6.83901
-6.84492
-6.84939
-6.85296
-6.85604
-6.85888
-6.86164
-6.86447
-6.86749
-6.87079
-6.87444
-6.87849
-6.883
-6.888
-6.89353
-6.89963
-6.90634
-6.91368
-6.92168
-6.93037
-6.93978
-6.94993
-6.96084
-6.97253
-6.985
-6.99828
-7.01235
-7.02722
-7.04289
-7.05934
-7.07657
-7.09456
-7.11331
-7.13278
-7.15298
-7.17387
-7.19545
-7.2177
-7.24058
-7.26408
-7.28816
-7.31279
-7.33792
-7.36351
-7.38951
-7.41587
-7.44255
-7.46949
-7.49664
-7.52394
-7.55132
-7.57873
-7.60609
-7.63332
-7.66035
-7.68707
-7.7134
-7.73924
-7.76447
-7.78899
-7.81267
-7.83538
-7.85699
-7.87736
-7.89635
-7.9138
-7.92955
-7.94345
-7.95532
-7.96499
-7.97229
-7.97704
-7.97905
-7.97815
-7.97414
-7.96684
-7.95606
-7.94162
-7.92332
-7.90098
-7.87443
-7.84347
-7.80792
-7.76763
-7.72241
-7.6721
-7.61654
-7.55559
-7.48911
-7.41696
-7.33901
-7.25514
-7.16524
-7.06921
-6.96698
-6.85846
-6.74358
-6.6223
-6.49458
-6.36038
-6.21969
-6.0725
-5.91881
-5.75866
-5.59205
-5.41905
-5.2397
-5.05409
-4.86229
-4.66441
-4.46055
-4.25084
-4.03542
-3.81444
-3.58806
-3.35647
-3.11984
-2.87838
-2.63229
-2.38181
-2.12715
-1.86856
-1.6063
-1.34061
-1.07177
-0.80006
-0.525745
-0.24911
0.0295465
0.309924
0.591742
0.874722
1.15861
1.4431
1.72787
2.01263
2.29711
2.58103
2.86411
3.1461
3.42674
3.70579
3.98299
4.25813
4.53098
4.80133
5.06898
5.33373
5.59541
5.85384
6.10887
6.36033
6.60809
6.85202
7.09198
7.32788
7.55958
7.78701
8.01007
8.22866
8.4427
8.65213
8.85685
9.05682
9.25198
9.44229
9.62772
9.80822
9.98373
10.1542
10.3197
10.4801
10.6354
10.7853
10.9304
11.0664
11.207
11.2875
-6.83017
-6.83444
-6.84129
-6.84748
-6.85229
-6.85622
-6.85967
-6.86287
-6.86598
-6.86916
-6.87252
-6.87615
-6.88012
-6.88449
-6.88931
-6.89462
-6.90047
-6.90687
-6.91387
-6.9215
-6.92978
-6.93874
-6.9484
-6.95878
-6.9699
-6.98178
-6.99442
-7.00783
-7.02202
-7.03699
-7.05274
-7.06925
-7.08652
-7.10454
-7.12329
-7.14277
-7.16296
-7.18384
-7.20539
-7.22759
-7.25043
-7.27387
-7.29788
-7.32244
-7.34751
-7.37304
-7.39899
-7.42532
-7.45198
-7.47892
-7.50608
-7.53342
-7.56086
-7.58834
-7.61579
-7.64313
-7.67026
-7.69712
-7.72359
-7.74957
-7.77496
-7.79963
-7.82347
-7.84635
-7.86812
-7.88865
-7.9078
-7.92539
-7.94129
-7.95531
-7.9673
-7.97708
-7.98448
-7.9893
-7.99139
-7.99053
-7.98656
-7.97929
-7.96852
-7.95407
-7.93576
-7.91339
-7.88678
-7.85577
-7.82016
-7.77978
-7.73448
-7.68407
-7.62841
-7.56736
-7.50076
-7.4285
-7.35043
-7.26643
-7.17642
-7.08028
-6.97793
-6.8693
-6.75432
-6.63295
-6.50513
-6.37084
-6.23007
-6.0828
-5.92905
-5.76883
-5.60217
-5.42912
-5.24974
-5.0641
-4.87229
-4.6744
-4.47054
-4.26085
-4.04545
-3.8245
-3.59817
-3.36662
-3.13005
-2.88866
-2.64265
-2.39224
-2.13767
-1.87918
-1.61702
-1.35144
-1.08272
-0.811118
-0.536922
-0.260419
0.0180924
0.298324
0.579992
0.862823
1.14656
1.4309
1.7155
2.0001
2.28441
2.56816
2.85108
3.1329
3.41338
3.69225
3.9693
4.24428
4.51697
4.78717
5.05467
5.31929
5.58083
5.83914
6.09404
6.3454
6.59306
6.83689
7.07677
7.31259
7.54423
7.7716
7.9946
8.21316
8.42717
8.63657
8.84128
9.04123
9.23639
9.4267
9.61211
9.79258
9.96804
10.1385
10.3038
10.4639
10.6187
10.7679
10.9118
11.0458
11.1844
11.2595
-6.83428
-6.83856
-6.84539
-6.85165
-6.85663
-6.86079
-6.8645
-6.86795
-6.87133
-6.87477
-6.87839
-6.88227
-6.88648
-6.89109
-6.89615
-6.90169
-6.90775
-6.91437
-6.92158
-6.9294
-6.93786
-6.94698
-6.9568
-6.96732
-6.97857
-6.99056
-7.0033
-7.01679
-7.03105
-7.04608
-7.06186
-7.07841
-7.0957
-7.11374
-7.13251
-7.152
-7.17219
-7.19307
-7.21463
-7.23683
-7.25967
-7.28311
-7.30713
-7.3317
-7.35679
-7.38235
-7.40833
-7.43472
-7.46144
-7.48846
-7.51572
-7.54317
-7.57073
-7.59835
-7.62594
-7.65343
-7.68073
-7.70775
-7.73438
-7.76053
-7.78609
-7.81093
-7.83493
-7.85796
-7.87988
-7.90055
-7.91981
-7.93752
-7.95351
-7.96761
-7.97966
-7.98948
-7.9969
-8.00173
-8.00379
-8.00291
-7.99888
-7.99154
-7.98068
-7.96612
-7.94768
-7.92518
-7.89842
-7.86724
-7.83146
-7.7909
-7.74539
-7.69479
-7.63892
-7.57765
-7.51084
-7.43835
-7.36006
-7.27585
-7.18562
-7.08926
-6.98671
-6.87788
-6.76271
-6.64114
-6.51314
-6.37868
-6.23775
-6.09032
-5.93643
-5.77607
-5.60929
-5.43613
-5.25666
-5.07093
-4.87905
-4.68109
-4.47719
-4.26746
-4.05204
-3.83108
-3.60475
-3.37322
-3.13667
-2.89531
-2.64935
-2.399
-2.1445
-1.88609
-1.62401
-1.35853
-1.08991
-0.818424
-0.544353
-0.26799
0.0103727
0.290453
0.571961
0.854629
1.13821
1.42237
1.70679
1.9912
2.27532
2.55888
2.8416
3.12322
3.40349
3.68217
3.95901
4.2338
4.50629
4.7763
5.04361
5.30804
5.56941
5.82754
6.08228
6.33348
6.58099
6.82469
7.06444
7.30014
7.53168
7.75895
7.98187
8.20034
8.41428
8.62362
8.82829
9.0282
9.22332
9.4136
9.59897
9.77938
9.95476
10.1251
10.2902
10.4499
10.6043
10.7526
10.8953
11.0275
11.1642
11.2347
-6.84031
-6.84447
-6.85109
-6.85725
-6.86225
-6.8665
-6.87034
-6.87394
-6.87748
-6.88108
-6.88485
-6.88888
-6.89324
-6.89799
-6.90317
-6.90882
-6.91499
-6.92171
-6.929
-6.93691
-6.94545
-6.95465
-6.96453
-6.97512
-6.98642
-6.99845
-7.01123
-7.02475
-7.03904
-7.05408
-7.06988
-7.08644
-7.10374
-7.12179
-7.14058
-7.16009
-7.18031
-7.20122
-7.22282
-7.24507
-7.26796
-7.29147
-7.31555
-7.34019
-7.36534
-7.39098
-7.41707
-7.44357
-7.47043
-7.4976
-7.52502
-7.55263
-7.58036
-7.60815
-7.63592
-7.66357
-7.69104
-7.71823
-7.74502
-7.77133
-7.79703
-7.82201
-7.84613
-7.86927
-7.89128
-7.91203
-7.93134
-7.94908
-7.96508
-7.97917
-7.99119
-8.00096
-8.0083
-8.01303
-8.01497
-8.01395
-8.00976
-8.00224
-7.99118
-7.97641
-7.95774
-7.93499
-7.90798
-7.87653
-7.84047
-7.79962
-7.75382
-7.70292
-7.64675
-7.58518
-7.51807
-7.44528
-7.36669
-7.28218
-7.19166
-7.09503
-6.9922
-6.88311
-6.76768
-6.64587
-6.51764
-6.38296
-6.24182
-6.0942
-5.94012
-5.7796
-5.61266
-5.43937
-5.25977
-5.07393
-4.88195
-4.68393
-4.47996
-4.27019
-4.05474
-3.83376
-3.60743
-3.37591
-3.1394
-2.89808
-2.65218
-2.4019
-2.14748
-1.88917
-1.6272
-1.36183
-1.09335
-0.822
-0.548083
-0.271885
0.00630956
0.286211
0.567528
0.850006
1.13339
1.41734
1.70153
1.98571
2.26959
2.55291
2.83538
3.11676
3.39679
3.67522
3.95181
4.22634
4.4986
4.76836
5.03543
5.29963
5.56077
5.81869
6.07322
6.32421
6.57154
6.81505
7.05463
7.29017
7.52156
7.7487
7.97149
8.18985
8.4037
8.61295
8.81754
9.01739
9.21246
9.40267
9.58798
9.76831
9.94358
10.1137
10.2786
10.438
10.5917
10.7392
10.8806
11.0111
11.146
11.213
-6.84793
-6.85187
-6.85813
-6.86404
-6.86892
-6.87314
-6.87698
-6.88062
-6.88419
-6.88783
-6.89163
-6.89569
-6.90007
-6.90482
-6.90999
-6.91564
-6.9218
-6.92851
-6.93579
-6.94368
-6.95221
-6.96139
-6.97126
-6.98183
-6.99311
-7.00512
-7.01788
-7.03139
-7.04566
-7.06069
-7.07649
-7.09304
-7.11036
-7.12842
-7.14723
-7.16678
-7.18705
-7.20802
-7.22968
-7.252
-7.27497
-7.29855
-7.32273
-7.34747
-7.37275
-7.39853
-7.42477
-7.45144
-7.47847
-7.50582
-7.53341
-7.5612
-7.5891
-7.61705
-7.64497
-7.67277
-7.70037
-7.72768
-7.75458
-7.78098
-7.80676
-7.83179
-7.85595
-7.87911
-7.90111
-7.92182
-7.94108
-7.95873
-7.97463
-7.98859
-8.00045
-8.01004
-8.01717
-8.02168
-8.02339
-8.0221
-8.01763
-8.00981
-7.99844
-7.98335
-7.96434
-7.94125
-7.91388
-7.88207
-7.84564
-7.80443
-7.75826
-7.70699
-7.65045
-7.58851
-7.52104
-7.4479
-7.36896
-7.28413
-7.19328
-7.09633
-6.9932
-6.88381
-6.76811
-6.64604
-6.51756
-6.38265
-6.24129
-6.09348
-5.93922
-5.77854
-5.61146
-5.43804
-5.25833
-5.07241
-4.88036
-4.68228
-4.47828
-4.26849
-4.05304
-3.83209
-3.60579
-3.37433
-3.13788
-2.89665
-2.65084
-2.40067
-2.14638
-1.8882
-1.62639
-1.36119
-1.09288
-0.821731
-0.548025
-0.272039
0.00593799
0.2856
0.566666
0.848907
1.13204
1.4157
1.6996
1.98349
2.26707
2.55009
2.83226
3.11333
3.39305
3.67117
3.94746
4.22169
4.49364
4.7631
5.02988
5.29379
5.55465
5.8123
6.06657
6.31731
6.56439
6.80768
7.04705
7.28239
7.51359
7.74056
7.96319
8.18141
8.39513
8.60427
8.80876
9.00853
9.20351
9.39366
9.57888
9.75911
9.93425
10.1042
10.2688
10.4277
10.5809
10.7275
10.8678
10.9967
11.1298
11.194
-6.85678
-6.86045
-6.86625
-6.87178
-6.87643
-6.88048
-6.88418
-6.8877
-6.89116
-6.89469
-6.89838
-6.90232
-6.90657
-6.9112
-6.91626
-6.92179
-6.92783
-6.93442
-6.9416
-6.94938
-6.95781
-6.9669
-6.97667
-6.98716
-6.99836
-7.01031
-7.023
-7.03646
-7.05069
-7.06569
-7.08146
-7.09802
-7.11534
-7.13342
-7.15225
-7.17183
-7.19213
-7.21315
-7.23487
-7.25726
-7.28031
-7.304
-7.32829
-7.35317
-7.3786
-7.40453
-7.43093
-7.45775
-7.48493
-7.51242
-7.54016
-7.56807
-7.59608
-7.62411
-7.65209
-7.67994
-7.70757
-7.73489
-7.76178
-7.78814
-7.81386
-7.83882
-7.86287
-7.88589
-7.90773
-7.92825
-7.9473
-7.96472
-7.98035
-7.99403
-8.00559
-8.01486
-8.02165
-8.02581
-8.02714
-8.02546
-8.0206
-8.01237
-8.00059
-7.98508
-7.96565
-7.94213
-7.91435
-7.88211
-7.84526
-7.80363
-7.75705
-7.70537
-7.64844
-7.58611
-7.51827
-7.44476
-7.36548
-7.2803
-7.18913
-7.09188
-6.98846
-6.8788
-6.76284
-6.64054
-6.51184
-6.37673
-6.23519
-6.08722
-5.93282
-5.77202
-5.60485
-5.43135
-5.25158
-5.06563
-4.87356
-4.67549
-4.47151
-4.26177
-4.04639
-3.82552
-3.59932
-3.36797
-3.13166
-2.89059
-2.64495
-2.39497
-2.14088
-1.88293
-1.62134
-1.35639
-1.08835
-0.81748
-0.544054
-0.26835
0.00932149
0.288659
0.569401
0.851334
1.13412
1.4174
1.70094
1.98446
2.26768
2.55031
2.83211
3.1128
3.39214
3.66988
3.94579
4.21965
4.49123
4.76033
5.02676
5.29032
5.55085
5.80817
6.06212
6.31257
6.55936
6.80238
7.04149
7.27659
7.50757
7.73433
7.95677
8.17482
8.38839
8.59739
8.80177
9.00144
9.19633
9.38638
9.57151
9.75163
9.92662
10.0963
10.2606
10.4192
10.5717
10.7174
10.8565
10.9839
11.1153
11.1775
-6.86658
-6.86993
-6.87521
-6.88029
-6.88457
-6.8883
-6.8917
-6.89493
-6.89812
-6.90137
-6.90479
-6.90847
-6.91247
-6.91686
-6.92168
-6.92699
-6.93281
-6.9392
-6.94617
-6.95377
-6.96202
-6.97095
-6.98057
-6.99091
-7.002
-7.01383
-7.02643
-7.03979
-7.05393
-7.06886
-7.08457
-7.10107
-7.11835
-7.13641
-7.15524
-7.17481
-7.19513
-7.21617
-7.23793
-7.2604
-7.28354
-7.30733
-7.33173
-7.3567
-7.38221
-7.40821
-7.43467
-7.46153
-7.48875
-7.51625
-7.54398
-7.57187
-7.59983
-7.62779
-7.65567
-7.68339
-7.71086
-7.738
-7.7647
-7.79084
-7.81632
-7.841
-7.86476
-7.88746
-7.90896
-7.92912
-7.94779
-7.96481
-7.98003
-7.99328
-8.0044
-8.01321
-8.01954
-8.02323
-8.02408
-8.02193
-8.01659
-8.00788
-7.99562
-7.97964
-7.95974
-7.93576
-7.90751
-7.87483
-7.83754
-7.79548
-7.74848
-7.6964
-7.63908
-7.57639
-7.5082
-7.43436
-7.35476
-7.26928
-7.17783
-7.08032
-6.97667
-6.86679
-6.75065
-6.62817
-6.49933
-6.36409
-6.22245
-6.0744
-5.91994
-5.75911
-5.59193
-5.41844
-5.23871
-5.05281
-4.86083
-4.66285
-4.45901
-4.2494
-4.03419
-3.81351
-3.58752
-3.3564
-3.12033
-2.87951
-2.63415
-2.38447
-2.13069
-1.87306
-1.61181
-1.34723
-1.07956
-0.809066
-0.536014
-0.260706
0.0165487
0.295457
0.575793
0.857319
1.13965
1.42246
1.70553
1.98859
2.27134
2.55351
2.83484
3.11507
3.39394
3.67123
3.94669
4.22009
4.49123
4.7599
5.02591
5.28906
5.54919
5.80613
6.05971
6.30981
6.55627
6.79896
7.03778
7.2726
7.50332
7.72983
7.95206
8.16991
8.38331
8.59216
8.7964
8.99596
9.19075
9.38071
9.56574
9.74573
9.92056
10.0901
10.254
10.4121
10.564
10.7089
10.8469
10.9729
11.1025
11.1634
-6.87713
-6.88019
-6.88496
-6.8895
-6.89327
-6.89651
-6.89943
-6.90218
-6.90489
-6.90769
-6.91068
-6.91395
-6.91755
-6.92157
-6.92604
-6.93101
-6.93652
-6.94261
-6.94931
-6.95664
-6.96464
-6.97333
-6.98273
-6.99286
-7.00373
-7.01537
-7.02779
-7.04099
-7.05498
-7.06977
-7.08535
-7.10171
-7.11888
-7.13684
-7.15558
-7.1751
-7.19538
-7.2164
-7.23813
-7.26057
-7.28367
-7.3074
-7.33173
-7.35661
-7.38201
-7.40789
-7.43419
-7.46087
-7.48788
-7.51517
-7.54267
-7.57032
-7.59802
-7.62568
-7.65323
-7.6806
-7.7077
-7.73444
-7.76072
-7.78643
-7.81145
-7.83566
-7.85892
-7.88112
-7.9021
-7.92173
-7.93986
-7.95634
-7.971
-7.9837
-7.99426
-8.00253
-8.00832
-8.01146
-8.01178
-8.0091
-8.00324
-7.99403
-7.98128
-7.96481
-7.94445
-7.92002
-7.89134
-7.85824
-7.82055
-7.7781
-7.73075
-7.67833
-7.6207
-7.55772
-7.48925
-7.41516
-7.33532
-7.24964
-7.15801
-7.06035
-6.95656
-6.84658
-6.73035
-6.60781
-6.47894
-6.3437
-6.20207
-6.05407
-5.89968
-5.73894
-5.57188
-5.39853
-5.21897
-5.03326
-4.84148
-4.64374
-4.44015
-4.23083
-4.01592
-3.79556
-3.56991
-3.33915
-3.10346
-2.86305
-2.6181
-2.36885
-2.11552
-1.85834
-1.59759
-1.33351
-1.06633