/*--------------------------------*- C++ -*----------------------------------*\
  =========                 |
  \\      /  F ield         | OpenFOAM: The Open Source CFD Toolbox
   \\    /   O peration     | Website:  https://openfoam.org
    \\  /    A nd           | Version:  8
     \\/     M anipulation  |
\*---------------------------------------------------------------------------*/
FoamFile
{
    version     2.0;
    format      ascii;
    class       volScalarField;
    location    "498";
    object      k;
}
// * * * * * * * * * * * * * * * * * * * * * * * * * * * * * * * * * * * * * //

dimensions      [0 2 -2 0 0 0 0];

internalField   nonuniform List<scalar> 
12225
(
0.355897
0.327835
0.303126
0.285083
0.268803
0.259999
0.252737
0.253037
0.254682
0.25974
0.268065
0.275334
0.287982
0.295981
0.309827
0.31688
0.332434
0.33018
0.401838
0.415673
0.414046
0.417423
0.426514
0.448433
0.473873
0.507273
0.539979
0.574798
0.607882
0.637752
0.667757
0.690221
0.716939
0.73122
0.756223
0.762438
0.378851
0.391152
0.390845
0.389078
0.385711
0.386411
0.388304
0.393977
0.401598
0.411519
0.423045
0.434678
0.447865
0.459861
0.472841
0.484817
0.495915
0.508536
0.374033
0.375368
0.375116
0.374182
0.371933
0.369724
0.36786
0.366533
0.366245
0.36656
0.367494
0.369021
0.371286
0.37391
0.376555
0.38011
0.382603
0.386898
0.373123
0.371085
0.369327
0.367626
0.36564
0.363409
0.361224
0.359003
0.357088
0.355333
0.353914
0.352649
0.351709
0.35101
0.350429
0.350172
0.349883
0.350018
0.373186
0.370058
0.367383
0.364966
0.362699
0.360408
0.358204
0.35597
0.353861
0.351796
0.349889
0.348068
0.346383
0.344842
0.343381
0.342106
0.340834
0.339817
0.373255
0.36992
0.366882
0.364069
0.36149
0.359032
0.356724
0.354486
0.352353
0.350291
0.34832
0.346438
0.344631
0.342931
0.34129
0.339769
0.338285
0.336931
0.373267
0.369918
0.366798
0.363867
0.361146
0.358581
0.356177
0.353892
0.351724
0.349655
0.347679
0.345796
0.343991
0.342277
0.34063
0.339073
0.337573
0.336162
0.373267
0.369921
0.366781
0.363816
0.361036
0.358415
0.355952
0.353623
0.35142
0.34933
0.347344
0.345455
0.343654
0.34194
0.340303
0.338745
0.337253
0.335839
0.373265
0.369921
0.366773
0.363801
0.360999
0.358354
0.355858
0.353499
0.351268
0.349155
0.347152
0.34525
0.343443
0.341726
0.340091
0.338536
0.33705
0.33564
0.373263
0.369918
0.366767
0.363792
0.360984
0.35833
0.355821
0.353448
0.351201
0.349073
0.347056
0.345143
0.343326
0.341601
0.339961
0.338402
0.336917
0.335506
0.373262
0.369916
0.366762
0.363785
0.360973
0.358315
0.355802
0.353423
0.35117
0.349035
0.34701
0.345089
0.343265
0.341534
0.339888
0.338324
0.336835
0.33542
0.373261
0.369914
0.366758
0.363779
0.360965
0.358304
0.355788
0.353406
0.35115
0.349011
0.346983
0.345058
0.343231
0.341495
0.339845
0.338277
0.336785
0.335366
0.373261
0.369913
0.366755
0.363774
0.360958
0.358296
0.355777
0.353393
0.351134
0.348994
0.346963
0.345036
0.343206
0.341468
0.339816
0.338245
0.33675
0.335329
0.373261
0.369912
0.366753
0.36377
0.360953
0.358289
0.355768
0.353383
0.351122
0.34898
0.346947
0.345018
0.343187
0.341447
0.339793
0.33822
0.336724
0.3353
0.37326
0.369911
0.366751
0.363768
0.360949
0.358284
0.355762
0.353375
0.351113
0.348969
0.346935
0.345005
0.343171
0.34143
0.339775
0.338201
0.336703
0.335278
0.37326
0.369911
0.36675
0.363766
0.360946
0.35828
0.355758
0.353369
0.351106
0.348961
0.346926
0.344995
0.343161
0.341418
0.339762
0.338186
0.336688
0.335261
0.37326
0.369911
0.36675
0.363765
0.360945
0.358279
0.355756
0.353367
0.351103
0.348958
0.346922
0.34499
0.343155
0.341412
0.339755
0.338179
0.336679
0.335252
0.37326
0.369911
0.36675
0.363766
0.360946
0.358279
0.355756
0.353367
0.351104
0.348958
0.346922
0.34499
0.343155
0.341412
0.339754
0.338178
0.336679
0.335251
0.37326
0.369911
0.366751
0.363767
0.360947
0.358281
0.355759
0.35337
0.351107
0.348961
0.346926
0.344994
0.343159
0.341416
0.339759
0.338183
0.336684
0.335256
0.373261
0.369912
0.366752
0.363768
0.36095
0.358285
0.355763
0.353375
0.351113
0.348968
0.346933
0.345002
0.343168
0.341425
0.339769
0.338193
0.336695
0.335268
0.373261
0.369912
0.366753
0.363771
0.360954
0.35829
0.355769
0.353383
0.351122
0.348979
0.346946
0.345016
0.343184
0.341443
0.339788
0.338214
0.336716
0.335291
0.373261
0.369913
0.366756
0.363775
0.36096
0.358299
0.355782
0.353401
0.351145
0.349007
0.346979
0.345054
0.343225
0.341488
0.339835
0.338263
0.336766
0.335339
0.37326
0.369915
0.366759
0.363786
0.360981
0.358336
0.355836
0.353473
0.351234
0.34911
0.347092
0.345173
0.343346
0.341606
0.339948
0.338368
0.33686
0.335422
0.373255
0.369919
0.366784
0.363864
0.361122
0.358544
0.356099
0.353775
0.351556
0.349435
0.347407
0.345465
0.34361
0.341836
0.340143
0.338527
0.336987
0.335519
0.373225
0.370004
0.367046
0.364384
0.361846
0.359399
0.356989
0.354646
0.352355
0.350146
0.348024
0.345994
0.344074
0.34225
0.340543
0.338928
0.337429
0.336013
0.373274
0.370907
0.368761
0.36674
0.364281
0.361652
0.358928
0.356305
0.353751
0.351426
0.349263
0.347347
0.345654
0.344142
0.342862
0.341729
0.340825
0.340007
0.375098
0.376346
0.375764
0.373579
0.369475
0.365624
0.362243
0.359571
0.357466
0.356243
0.355452
0.355505
0.355812
0.356498
0.35765
0.359012
0.360735
0.362422
0.384811
0.386327
0.383081
0.37707
0.371973
0.371805
0.372957
0.375819
0.380627
0.386805
0.393499
0.400925
0.408419
0.416238
0.423833
0.431563
0.438933
0.446396
0.364848
0.347667
0.332877
0.320084
0.308122
0.298019
0.289196
0.281923
0.275674
0.270929
0.266945
0.264223
0.261993
0.260807
0.259874
0.259805
0.259984
0.260442
0.000436132
0.0026467
0.00499533
0.00704798
0.0089208
0.0109704
0.0133477
0.0162249
0.0197469
0.023967
0.0288446
0.0342693
0.0401257
0.0462824
0.0526465
0.0591064
0.0655991
0.0720264
0.0783408
0.0844487
0.0903136
0.0958451
0.101024
0.105779
0.110116
0.114008
0.117499
0.120633
0.123494
0.12565
0.127911
0.131727
0.134831
0.138262
0.141215
0.146948
0.150343
0.152854
0.154309
0.154502
0.152081
0.150576
0.148617
0.147754
0.15789
0.163812
0.172132
0.179518
0.187653
0.195659
0.203981
0.212382
0.220982
0.229716
0.238617
0.247666
0.256871
0.266227
0.275735
0.285393
0.295197
0.305148
0.315241
0.325473
0.335841
0.346342
0.356969
0.367718
0.378584
0.389561
0.400641
0.411819
0.423085
0.434434
0.445856
0.457343
0.468885
0.480474
0.492098
0.503748
0.515414
0.527084
0.538746
0.55039
0.562002
0.573572
0.585083
0.596525
0.607881
0.619135
0.630272
0.64127
0.652111
0.662771
0.673229
0.683466
0.693473
0.703267
0.712925
0.722349
0.731558
0.740537
0.749283
0.757783
0.766028
0.774007
0.781712
0.789131
0.796257
0.803079
0.80959
0.815781
0.821645
0.827175
0.832363
0.837205
0.841693
0.845824
0.849592
0.852995
0.856028
0.858688
0.860975
0.862887
0.864423
0.865584
0.866371
0.866784
0.866824
0.866523
0.865813
0.864743
0.863222
0.861394
0.859307
0.856869
0.85404
0.850886
0.847402
0.8436
0.839487
0.835073
0.830366
0.825378
0.820116
0.814593
0.808818
0.802802
0.796557
0.790095
0.783426
0.776564
0.769519
0.762305
0.754933
0.747417
0.739768
0.732
0.724125
0.716157
0.708112
0.700008
0.69188
0.683844
0.676933
0.672927
0.669526
0.666163
0.662791
0.659408
0.656017
0.652616
0.649199
0.645751
0.642237
0.638578
0.634618
0.629913
0.623458
0.599385
0.002289
0.0100445
0.0154481
0.0194309
0.0228914
0.0262169
0.0297296
0.0336571
0.0381263
0.0431709
0.0487541
0.0547955
0.0612039
0.0678826
0.0747514
0.0817292
0.0887548
0.0957595
0.102693
0.109492
0.116115
0.122504
0.128634
0.134465
0.14
0.145241
0.150232
0.155032
0.159736
0.164495
0.169568
0.175199
0.181434
0.188528
0.196013
0.203189
0.210601
0.218414
0.22638
0.234874
0.244848
0.25831
0.26943
0.280237
0.292319
0.304421
0.317297
0.33036
0.343807
0.357548
0.371619
0.385996
0.400686
0.415685
0.430995
0.446615
0.462547
0.47879
0.495345
0.512213
0.529392
0.546882
0.56468
0.582785
0.601194
0.619902
0.638905
0.658197
0.677773
0.697625
0.717745
0.738124
0.758752
0.779619
0.800713
0.822022
0.843531
0.865228
0.887096
0.90912
0.931284
0.953569
0.975957
0.99843
1.02097
1.04355
1.06615
1.08875
1.11133
1.13385
1.1563
1.17865
1.20086
1.22289
1.24472
1.2663
1.28756
1.30846
1.3289
1.34904
1.36889
1.38842
1.40761
1.42646
1.44493
1.46301
1.48067
1.4979
1.51466
1.53096
1.54675
1.56203
1.57677
1.59097
1.6046
1.61765
1.63009
1.64193
1.65314
1.66372
1.67365
1.68292
1.69153
1.69946
1.70671
1.71328
1.71916
1.72435
1.72885
1.73266
1.73577
1.73821
1.73977
1.74062
1.741
1.74076
1.73974
1.73805
1.7357
1.7327
1.72907
1.72481
1.71994
1.71447
1.70843
1.70182
1.69466
1.68698
1.67878
1.67009
1.66094
1.65133
1.64129
1.63084
1.62001
1.60882
1.59729
1.58544
1.5733
1.56089
1.54824
1.53537
1.52232
1.50915
1.4961
1.4835
1.47097
1.45838
1.44574
1.43306
1.42036
1.40766
1.39495
1.38224
1.3695
1.35668
1.34362
1.33023
1.31494
1.28128
0.00496753
0.0175703
0.0248714
0.0302436
0.0349672
0.0395424
0.0442563
0.0492927
0.0547536
0.0606706
0.0670222
0.0737526
0.0807944
0.0880766
0.0955374
0.103118
0.110773
0.118454
0.126127
0.133751
0.141302
0.148751
0.156087
0.163304
0.170427
0.177499
0.184608
0.191883
0.199494
0.207626
0.216456
0.2261
0.236526
0.247545
0.258812
0.270357
0.281993
0.294145
0.306912
0.320451
0.3349
0.350112
0.365121
0.380475
0.396368
0.412626
0.429345
0.446445
0.463935
0.481802
0.500048
0.518671
0.537669
0.557043
0.576792
0.596916
0.617417
0.638292
0.659542
0.681167
0.703163
0.725529
0.748262
0.771359
0.794815
0.818624
0.842781
0.867277
0.892106
0.917258
0.942722
0.968488
0.994543
1.02087
1.04747
1.07431
1.10137
1.12866
1.15613
1.18378
1.21159
1.23953
1.26757
1.29571
1.32391
1.35215
1.38039
1.40863
1.43682
1.46493
1.49295
1.52083
1.54854
1.57606
1.60335
1.63039
1.65713
1.68355
1.70965
1.73541
1.7608
1.78579
1.81036
1.83448
1.85812
1.88125
1.90384
1.92588
1.94732
1.96815
1.98834
2.00787
2.02672
2.04485
2.06225
2.0789
2.09479
2.10988
2.12417
2.13764
2.15028
2.16207
2.173
2.18307
2.19226
2.20056
2.20798
2.21452
2.22016
2.22491
2.22876
2.23171
2.23367
2.23468
2.23501
2.23449
2.23305
2.23074
2.22759
2.22359
2.21879
2.21318
2.20679
2.19963
2.19173
2.18311
2.17378
2.16378
2.15312
2.14183
2.12994
2.11747
2.10445
2.09091
2.07688
2.06238
2.04744
2.0321
2.01639
2.00033
1.98396
1.96731
1.95043
1.93338
1.91631
1.8994
1.8825
1.86553
1.84851
1.83145
1.81437
1.79731
1.78028
1.7633
1.74637
1.72952
1.71267
1.69587
1.67771
1.64844
0.00813902
0.0248818
0.0339407
0.0405149
0.0462307
0.0516944
0.0572235
0.0630061
0.0691461
0.0756821
0.0826058
0.0898774
0.0974451
0.105253
0.113251
0.121396
0.129653
0.137993
0.146395
0.154838
0.163316
0.171822
0.180365
0.188963
0.197655
0.206502
0.21559
0.225033
0.234956
0.245489
0.256734
0.268737
0.281454
0.294767
0.308539
0.322732
0.337319
0.352439
0.368155
0.384509
0.401485
0.41899
0.436862
0.455132
0.473809
0.492889
0.512396
0.532326
0.55268
0.573458
0.594661
0.61629
0.638347
0.660832
0.683746
0.707092
0.730868
0.755076
0.779715
0.804785
0.830284
0.856211
0.882562
0.909333
0.936521
0.964118
0.99212
1.02052
1.0493
1.07846
1.10799
1.13787
1.16809
1.19863
1.22949
1.26063
1.29205
1.32372
1.35562
1.38772
1.42002
1.45247
1.48506
1.51776
1.55054
1.58336
1.61621
1.64905
1.68184
1.71456
1.74717
1.77965
1.81195
1.84404
1.87589
1.90747
1.93875
1.9697
2.00028
2.03046
2.06021
2.0895
2.11828
2.14653
2.17421
2.20128
2.22773
2.2535
2.27858
2.30292
2.32651
2.34931
2.3713
2.39244
2.41272
2.4321
2.45058
2.46812
2.4847
2.50031
2.51494
2.52856
2.54116
2.55274
2.56328
2.57278
2.58123
2.58863
2.59497
2.60026
2.60449
2.60765
2.60968
2.6106
2.61069
2.60974
2.60773
2.60471
2.60069
2.59569
2.58973
2.58284
2.57502
2.56631
2.55673
2.54629
2.53504
2.523
2.51019
2.49664
2.48239
2.46747
2.4519
2.43572
2.41897
2.40168
2.38388
2.36562
2.34691
2.32781
2.30835
2.28857
2.26852
2.24826
2.2279
2.20756
2.18718
2.16674
2.14625
2.12572
2.10519
2.0847
2.06429
2.04399
2.02386
2.00396
1.98433
1.96507
1.945
1.91809
0.0114136
0.0318046
0.0425115
0.0502022
0.0568014
0.0630097
0.069184
0.0755308
0.0821673
0.0891474
0.0964803
0.104144
0.112103
0.120315
0.128743
0.137353
0.146124
0.155036
0.164081
0.173255
0.182565
0.192018
0.201638
0.211454
0.22151
0.231865
0.242589
0.253766
0.265481
0.277817
0.29083
0.30454
0.318924
0.333926
0.349487
0.365572
0.382171
0.399317
0.417032
0.435329
0.454192
0.473582
0.493451
0.51378
0.534556
0.55578
0.577463
0.599612
0.622229
0.645319
0.668885
0.69293
0.717458
0.742471
0.76797
0.79396
0.820441
0.847415
0.874882
0.902843
0.931297
0.960242
0.989677
1.0196
1.05
1.08088
1.11223
1.14404
1.1763
1.209
1.24213
1.27568
1.30963
1.34396
1.37866
1.41371
1.44908
1.48475
1.52071
1.55691
1.59335
1.62998
1.66678
1.70372
1.74077
1.77789
1.81505
1.85221
1.88934
1.9264
1.96336
2.00017
2.03679
2.0732
2.10936
2.14522
2.18074
2.21589
2.25062
2.28489
2.31868
2.35192
2.38459
2.41665
2.44805
2.47876
2.50873
2.53794
2.56635
2.59391
2.6206
2.64639
2.67124
2.69511
2.718
2.73985
2.76066
2.78039
2.79903
2.81655
2.83294
2.84817
2.86224
2.87513
2.88683
2.89733
2.90663
2.91473
2.92162
2.92731
2.93179
2.93505
2.93702
2.93779
2.93754
2.93609
2.93346
2.92967
2.92476
2.91873
2.91161
2.90343
2.89421
2.88397
2.87275
2.86057
2.84746
2.83345
2.81858
2.80288
2.78639
2.76914
2.75116
2.7325
2.71319
2.69328
2.6728
2.65179
2.63029
2.60835
2.58601
2.56331
2.54031
2.51706
2.49366
2.47019
2.44665
2.42304
2.39937
2.37568
2.35201
2.32841
2.30493
2.28165
2.25864
2.23602
2.2139
2.19241
2.17058
2.1442
0.0145827
0.0381624
0.0503599
0.0590729
0.066469
0.0733273
0.0800431
0.0868433
0.093862
0.10117
0.108796
0.116736
0.124972
0.133476
0.142222
0.151189
0.160362
0.169734
0.179305
0.189082
0.199078
0.209314
0.219818
0.230624
0.241774
0.253318
0.26531
0.27781
0.290875
0.304555
0.318884
0.333879
0.349532
0.365819
0.382711
0.400185
0.41823
0.436848
0.456041
0.47581
0.496148
0.517038
0.538461
0.560402
0.582853
0.60581
0.629279
0.653265
0.677772
0.702808
0.728377
0.754483
0.781132
0.808329
0.836077
0.864381
0.893243
0.922666
0.952652
0.983203
1.01432
1.046
1.07824
1.11105
1.14441
1.17832
1.21278
1.24778
1.2833
1.31934
1.35589
1.39292
1.43042
1.46838
1.50677
1.54558
1.58477
1.62433
1.66423
1.70443
1.74491
1.78563
1.82656
1.86767
1.90892
1.95027
1.99168
2.03312
2.07453
2.11589
2.15714
2.19824
2.23915
2.27982
2.32021
2.36028
2.39997
2.43924
2.47804
2.51632
2.55405
2.59117
2.62763
2.66341
2.69844
2.73268
2.7661
2.79865
2.83028
2.86097
2.89066
2.91933
2.94694
2.97345
2.99884
3.02306
3.0461
3.06792
3.08851
3.10783
3.12588
3.14262
3.15805
3.17216
3.18492
3.19634
3.2064
3.21511
3.22246
3.22846
3.2331
3.23639
3.23823
3.23879
3.23811
3.23611
3.2328
3.2282
3.22234
3.21525
3.20694
3.19745
3.1868
3.17502
3.16215
3.14821
3.13325
3.11729
3.10037
3.08254
3.06383
3.04428
3.02394
3.00284
2.98102
2.95854
2.93544
2.91175
2.88754
2.86283
2.83768
2.81215
2.78627
2.76013
2.73378
2.70731
2.68073
2.65407
2.62736
2.60064
2.57396
2.54739
2.52099
2.49486
2.46911
2.44389
2.41936
2.39567
2.37194
2.34495
0.0175172
0.0438204
0.0573238
0.0669434
0.0750444
0.0824698
0.0896465
0.0968199
0.10414
0.111694
0.119528
0.127656
0.136076
0.144776
0.153742
0.162963
0.172432
0.18215
0.192125
0.20237
0.212904
0.223752
0.234944
0.246514
0.258501
0.270945
0.283888
0.297373
0.311438
0.326116
0.341431
0.357397
0.374014
0.391274
0.409164
0.42767
0.446784
0.466501
0.486817
0.507731
0.52924
0.551339
0.574018
0.597273
0.621098
0.645492
0.670459
0.696002
0.722129
0.748845
0.776158
0.804075
0.832601
0.861745
0.891511
0.921905
0.952933
0.984599
1.01691
1.04986
1.08346
1.1177
1.15259
1.18813
1.22431
1.26113
1.29858
1.33665
1.37534
1.41462
1.4545
1.49494
1.53594
1.57747
1.61951
1.66204
1.70503
1.74845
1.79227
1.83645
1.88097
1.92579
1.97086
2.01615
2.06162
2.10721
2.1529
2.19863
2.24435
2.29001
2.33557
2.38098
2.42619
2.47113
2.51577
2.56004
2.6039
2.64728
2.69014
2.73242
2.77407
2.81505
2.85529
2.89475
2.93338
2.97114
3.00796
3.0438
3.07863
3.11239
3.14504
3.17655
3.20686
3.23595
3.26378
3.29031
3.31551
3.33936
3.36183
3.38289
3.40252
3.42071
3.43743
3.45267
3.46642
3.47867
3.48943
3.49867
3.50642
3.51265
3.51739
3.52063
3.52228
3.52256
3.52141
3.51879
3.51475
3.50929
3.50244
3.49423
3.48469
3.47385
3.46174
3.44839
3.43385
3.41813
3.4013
3.38338
3.36441
3.34444
3.32352
3.30168
3.27897
3.25545
3.23115
3.20612
3.18042
3.15409
3.12718
3.09975
3.07184
3.0435
3.0148
2.98579
2.95655
2.92715
2.89761
2.86798
2.83831
2.80863
2.77902
2.74955
2.72031
2.6914
2.66297
2.63519
2.60825
2.58229
2.5565
2.52809
0.0201237
0.048692
0.0632996
0.0736926
0.0823959
0.0903036
0.0978666
0.105345
0.112902
0.120638
0.128615
0.136863
0.145395
0.154214
0.163316
0.172701
0.182371
0.192332
0.202597
0.213183
0.224114
0.235413
0.247113
0.259244
0.27184
0.284934
0.298561
0.312751
0.327533
0.34293
0.358961
0.375639
0.392968
0.410948
0.429576
0.448846
0.468754
0.489297
0.510472
0.53228
0.554721
0.577795
0.601501
0.625837
0.650805
0.676407
0.702646
0.729528
0.757061
0.785254
0.814113
0.843649
0.87387
0.904785
0.936402
0.968728
1.00177
1.03554
1.07003
1.10526
1.14123
1.17793
1.21538
1.25356
1.29248
1.33213
1.37251
1.41361
1.45541
1.49791
1.54109
1.58493
1.62941
1.67451
1.7202
1.76646
1.81326
1.86056
1.90832
1.95652
2.00511
2.05405
2.1033
2.15281
2.20252
2.25241
2.3024
2.35245
2.40251
2.45252
2.50242
2.55215
2.60166
2.6509
2.69978
2.74827
2.79629
2.84378
2.89069
2.93696
2.98252
3.02733
3.07133
3.11445
3.15665
3.19787
3.23805
3.27715
3.31512
3.3519
3.38745
3.42172
3.45468
3.48628
3.51648
3.54525
3.57254
3.59834
3.62261
3.64533
3.66647
3.68602
3.70395
3.72025
3.73491
3.74792
3.75928
3.76899
3.77704
3.78344
3.78821
3.79132
3.79274
3.79265
3.79096
3.78769
3.78285
3.77647
3.76859
3.75922
3.74841
3.73619
3.72258
3.70764
3.69139
3.67389
3.65517
3.63527
3.61425
3.59215
3.56901
3.54489
3.51984
3.4939
3.46714
3.43959
3.41132
3.38237
3.3528
3.32267
3.29203
3.26094
3.22945
3.19763
3.16554
3.13326
3.10083
3.0683
3.03572
3.00316
2.97068
2.93838
2.90635
2.87472
2.84364
2.81332
2.78393
2.75562
2.72763
2.69752
0.0223433
0.0527377
0.0682399
0.0792631
0.0884584
0.0967587
0.104633
0.112351
0.120087
0.127951
0.136018
0.144332
0.152919
0.161793
0.170964
0.180437
0.190224
0.200336
0.210788
0.221601
0.232798
0.244404
0.256448
0.26896
0.281969
0.295503
0.309589
0.324254
0.33952
0.355406
0.371929
0.3891
0.406929
0.42542
0.444576
0.464398
0.484887
0.506044
0.527871
0.550372
0.573549
0.597407
0.621949
0.647182
0.673108
0.699735
0.727069
0.755117
0.78389
0.813398
0.843652
0.874663
0.906441
0.938999
0.972345
1.00649
1.04145
1.07722
1.11382
1.15124
1.18951
1.22861
1.26856
1.30935
1.35097
1.39343
1.43672
1.48083
1.52575
1.57147
1.61796
1.6652
1.71318
1.76187
1.81124
1.86126
1.9119
1.96311
2.01486
2.0671
2.11979
2.17289
2.22634
2.28009
2.33409
2.38827
2.44259
2.49698
2.55138
2.60573
2.65997
2.71402
2.76783
2.82132
2.87443
2.9271
2.97924
3.0308
3.08172
3.13191
3.18133
3.22991
3.27759
3.3243
3.36998
3.41458
3.45804
3.5003
3.54131
3.58102
3.61937
3.65631
3.6918
3.7258
3.75827
3.78916
3.81844
3.84607
3.87204
3.8963
3.91884
3.93964
3.95867
3.97592
3.99139
4.00506
4.01693
4.027
4.03527
4.04175
4.04646
4.04937
4.0505
4.04996
4.04767
4.04367
4.03799
4.03065
4.02168
4.01112
3.999
3.98536
3.97024
3.95369
3.93573
3.91643
3.89583
3.87396
3.8509
3.82667
3.80135
3.77497
3.7476
3.71929
3.69009
3.66006
3.62926
3.59775
3.56558
3.53281
3.49949
3.4657
3.43148
3.39691
3.36205
3.32696
3.29171
3.25636
3.22096
3.18558
3.15032
3.11525
3.08049
3.04619
3.01251
2.97965
2.9478
2.9171
2.88681
2.85497
0.024144
0.0559561
0.0721467
0.0836549
0.0932281
0.101829
0.109937
0.117831
0.125689
0.133631
0.141742
0.150074
0.158667
0.167545
0.176725
0.186222
0.196052
0.206231
0.216779
0.227717
0.239067
0.250854
0.263106
0.275847
0.289104
0.302902
0.317265
0.332216
0.347774
0.363958
0.380785
0.398267
0.416416
0.435242
0.454752
0.474954
0.495853
0.517455
0.539768
0.562797
0.586552
0.611041
0.636271
0.662253
0.688995
0.716507
0.7448
0.773885
0.803775
0.834483
0.866022
0.898408
0.931652
0.965769
1.00077
1.03667
1.07348
1.11121
1.14987
1.18947
1.23001
1.2715
1.31393
1.35732
1.40166
1.44694
1.49316
1.54031
1.58837
1.63732
1.68716
1.73784
1.78936
1.84168
1.89476
1.94857
2.00307
2.05822
2.11398
2.17029
2.2271
2.28436
2.34202
2.40001
2.45827
2.51675
2.57536
2.63406
2.69276
2.7514
2.80991
2.86821
2.92624
2.98391
3.04115
3.09789
3.15406
3.20957
3.26437
3.31837
3.37151
3.42372
3.47493
3.52508
3.5741
3.62192
3.6685
3.71375
3.75764
3.8001
3.84107
3.88052
3.91838
3.95461
3.98917
4.02201
4.05311
4.08242
4.10992
4.13557
4.15936
4.18125
4.20124
4.21931
4.23544
4.24964
4.26189
4.27221
4.28058
4.28704
4.29158
4.29421
4.29496
4.29388
4.29094
4.28615
4.27956
4.27121
4.26112
4.24933
4.23588
4.22082
4.20418
4.18601
4.16635
4.14526
4.12279
4.09899
4.07391
4.04761
4.02014
3.99156
3.96193
3.9313
3.89974
3.8673
3.83406
3.80005
3.76536
3.73003
3.69414
3.65773
3.62088
3.58365
3.54611
3.50832
3.47036
3.43229
3.39417
3.35608
3.31812
3.28038
3.24299
3.20609
3.16986
3.1345
3.1002
3.06708
3.03445
3.00067
0.0255181
0.0583775
0.0750624
0.0869147
0.0967525
0.10556
0.113825
0.121828
0.129753
0.137725
0.145834
0.154142
0.162697
0.171532
0.180673
0.190142
0.199959
0.210142
0.220711
0.231687
0.243092
0.254951
0.267287
0.280125
0.29349
0.307403
0.321889
0.336969
0.352662
0.368989
0.385965
0.403608
0.421932
0.440951
0.460678
0.481125
0.502302
0.524222
0.546895
0.570334
0.594549
0.619555
0.645364
0.67199
0.699449
0.727754
0.75692
0.786962
0.817897
0.849741
0.882512
0.916226
0.950899
0.986549
1.02319
1.06084
1.0995
1.1392
1.17993
1.22172
1.26456
1.30847
1.35344
1.39948
1.44658
1.49473
1.54393
1.59417
1.64542
1.69768
1.75091
1.80508
1.86018
1.91616
1.97299
2.03062
2.08901
2.14811
2.20787
2.26823
2.32914
2.39054
2.45235
2.51453
2.57699
2.63966
2.70248
2.76537
2.82826
2.89106
2.95369
3.01609
3.07816
3.13983
3.20102
3.26164
3.32162
3.38088
3.43933
3.49691
3.55353
3.60913
3.66364
3.71698
3.76908
3.81987
3.8693
3.9173
3.96381
4.00876
4.05211
4.0938
4.13378
4.17199
4.2084
4.24296
4.27564
4.3064
4.33521
4.36203
4.38685
4.40965
4.4304
4.44909
4.46572
4.48028
4.49276
4.50317
4.51152
4.51782
4.52208
4.52432
4.52458
4.52292
4.51922
4.51359
4.50605
4.49664
4.48539
4.47236
4.45757
4.44108
4.42292
4.40316
4.38183
4.35899
4.33471
4.30902
4.28199
4.25368
4.22414
4.19345
4.16165
4.12881
4.09499
4.06026
4.02467
3.9883
3.9512
3.91345
3.8751
3.83621
3.79686
3.75711
3.71702
3.67668
3.63615
3.5955
3.5548
3.51414
3.47361
3.43332
3.39341
3.35401
3.31532
3.27753
3.24082
3.20531
3.17035
3.13456
0.0264788
0.0600571
0.0770571
0.0891225
0.0991178
0.108042
0.116386
0.124432
0.132366
0.140318
0.148383
0.156631
0.165116
0.173876
0.182941
0.192337
0.202086
0.212209
0.222727
0.233662
0.245036
0.256869
0.269186
0.28201
0.295365
0.309275
0.323761
0.338847
0.354553
0.370901
0.387911
0.405602
0.423994
0.443104
0.462951
0.483551
0.504923
0.527082
0.550042
0.57382
0.598433
0.623898
0.650233
0.677457
0.705592
0.734657
0.76467
0.795655
0.827629
0.860616
0.894634
0.929704
0.965845
1.00307
1.04141
1.08087
1.12146
1.1632
1.2061
1.25017
1.29541
1.34184
1.38945
1.43823
1.48819
1.53932
1.5916
1.64502
1.69955
1.75518
1.81187
1.8696
1.92832
1.988
2.04859
2.11004
2.1723
2.23532
2.29904
2.36339
2.42831
2.49373
2.55959
2.6258
2.6923
2.759
2.82582
2.89269
2.95953
3.02624
3.09274
3.15895
3.22478
3.29015
3.35497
3.41915
3.4826
3.54526
3.60702
3.66782
3.72757
3.78619
3.84362
3.89978
3.95459
4.00798
4.0599
4.11027
4.15903
4.20612
4.25148
4.29506
4.33681
4.37667
4.4146
4.45056
4.4845
4.51641
4.54623
4.57395
4.59954
4.62297
4.64424
4.66334
4.68024
4.69495
4.70747
4.7178
4.72596
4.73195
4.7358
4.73753
4.73721
4.73486
4.73034
4.72379
4.71525
4.70475
4.69234
4.67805
4.66193
4.64403
4.62439
4.60307
4.58013
4.55562
4.52959
4.50211
4.47323
4.44302
4.41154
4.37885
4.34502
4.31011
4.27418
4.2373
4.19954
4.16097
4.12164
4.08163
4.041
3.99981
3.95814
3.91604
3.8736
3.83089
3.78797
3.74492
3.70182
3.65876
3.61584
3.57317
3.53089
3.48914
3.44811
3.408
3.36897
3.33114
3.29392
3.25615
0.0270636
0.0610694
0.0782207
0.0903787
0.100431
0.109386
0.117733
0.125759
0.133653
0.141546
0.149533
0.157686
0.166064
0.174708
0.183654
0.192929
0.20256
0.212568
0.222976
0.233806
0.245082
0.256828
0.269067
0.281816
0.295097
0.308934
0.323351
0.338372
0.354019
0.370318
0.387292
0.404963
0.423355
0.442491
0.462395
0.48309
0.504599
0.526948
0.550169
0.574287
0.599314
0.625264
0.652146
0.679995
0.708842
0.738715
0.76964
0.801643
0.834749
0.868982
0.904367
0.940924
0.978674
1.01764
1.05783
1.09926
1.14196
1.18593
1.23117
1.27771
1.32554
1.37467
1.42509
1.47679
1.52978
1.58403
1.63953
1.69625
1.75418
1.81327
1.8735
1.93482
1.99719
2.06056
2.12489
2.19011
2.25617
2.32301
2.39055
2.45873
2.52747
2.59671
2.66636
2.73635
2.80659
2.877
2.94749
3.01798
3.08837
3.15859
3.22854
3.29813
3.36727
3.43587
3.50383
3.57108
3.63752
3.70307
3.76763
3.83113
3.89349
3.95462
4.01445
4.07291
4.12992
4.1854
4.2393
4.29154
4.34207
4.39081
4.43772
4.48273
4.52579
4.56686
4.60589
4.64283
4.67765
4.71031
4.74079
4.76905
4.79507
4.81884
4.84033
4.85954
4.87646
4.89108
4.90342
4.91346
4.92124
4.92676
4.93005
4.93114
4.93016
4.927
4.92159
4.91407
4.9045
4.89289
4.8793
4.86377
4.84635
4.82709
4.80603
4.78324
4.75877
4.73269
4.70504
4.67589
4.64531
4.61335
4.58009
4.54558
4.5099
4.4731
4.43526
4.39645
4.35673
4.31616
4.27482
4.23278
4.1901
4.14684
4.10308
4.05888
4.01432
3.96946
3.92439
3.87918
3.83391
3.78868
3.74358
3.69874
3.65428
3.61037
3.56717
3.52489
3.48368
3.44367
3.4043
3.36467
0.027267
0.0614511
0.0786158
0.0907654
0.10079
0.109704
0.117997
0.125955
0.133768
0.14157
0.149468
0.157528
0.165806
0.174345
0.183181
0.192343
0.201856
0.211745
0.222031
0.232736
0.243882
0.255489
0.26758
0.28018
0.29331
0.307
0.321278
0.336171
0.351707
0.367914
0.384822
0.402459
0.420855
0.440038
0.460039
0.480888
0.502615
0.525248
0.548806
0.573314
0.598806
0.625314
0.652851
0.681458
0.711174
0.742037
0.774072
0.807309
0.841779
0.877512
0.914532
0.952861
0.992518
1.03352
1.07588
1.11961
1.16473
1.21124
1.25915
1.30846
1.35916
1.41127
1.46477
1.51964
1.57588
1.63345
1.69234
1.75251
1.81394
1.87657
1.94037
2.00529
2.07128
2.13827
2.20622
2.27506
2.34472
2.41513
2.48622
2.55791
2.63013
2.7028
2.77582
2.84913
2.92262
2.99622
3.06984
3.14338
3.21675
3.28986
3.36263
3.43495
3.50673
3.57788
3.64832
3.71794
3.78666
3.8544
3.92106
3.98656
4.05083
4.11377
4.17532
4.23539
4.29392
4.35083
4.40605
4.45953
4.51119
4.56098
4.60883
4.65469
4.69851
4.74025
4.77984
4.81727
4.85248
4.88544
4.91613
4.94452
4.97059
4.99431
5.01568
5.03469
5.05133
5.06559
5.07749
5.08703
5.09423
5.0991
5.10167
5.10199
5.10027
5.09617
5.08981
5.0813
5.07067
5.05796
5.04322
5.02649
5.00783
4.98728
4.96491
4.94076
4.9149
4.88739
4.85828
4.82765
4.79555
4.76205
4.72722
4.69112
4.65382
4.61539
4.57589
4.5354
4.49398
4.45171
4.40864
4.36485
4.3204
4.27536
4.2298
4.18379
4.13739
4.09069
4.04376
3.99667
3.94952
3.90238
3.85538
3.80862
3.76224
3.71639
3.67125
3.627
3.5838
3.54178
3.50044
3.45914
0.0272161
0.0613957
0.0784937
0.0905833
0.100545
0.109386
0.117595
0.125459
0.133167
0.140853
0.148611
0.156518
0.16463
0.172992
0.181645
0.190619
0.199941
0.209635
0.219724
0.23023
0.241177
0.252588
0.264491
0.276913
0.289887
0.303439
0.317601
0.332403
0.34788
0.364066
0.380997
0.39871
0.41724
0.436618
0.456881
0.478063
0.500204
0.523347
0.547512
0.572724
0.599003
0.62637
0.654915
0.684665
0.715652
0.747905
0.781465
0.81637
0.852658
0.890372
0.929529
0.970148
1.01224
1.05581
1.10088
1.14743
1.19548
1.24502
1.29606
1.34858
1.40259
1.45806
1.51498
1.57332
1.63306
1.69416
1.7566
1.82032
1.88529
1.95145
2.01875
2.08714
2.15655
2.22692
2.29819
2.37028
2.44312
2.51664
2.59076
2.6654
2.74047
2.81591
2.89161
2.9675
3.04349
3.11948
3.1954
3.27113
3.34661
3.42173
3.4964
3.57053
3.64403
3.7168
3.78877
3.85983
3.9299
3.99889
4.06672
4.13331
4.19857
4.26243
4.3248
4.38563
4.44483
4.50233
4.55807
4.61199
4.66402
4.7141
4.76218
4.8082
4.85211
4.89386
4.93342
4.97073
5.00577
5.03851
5.06891
5.09695
5.12262
5.14589
5.16676
5.18521
5.20124
5.21485
5.22604
5.23484
5.24125
5.24529
5.24698
5.2465
5.24388
5.23878
5.23144
5.22191
5.21023
5.19646
5.18063
5.16278
5.14299
5.12128
5.09774
5.0724
5.04533
5.01659
4.98625
4.95436
4.92099
4.88621
4.85009
4.81269
4.77407
4.73432
4.69348
4.65164
4.60886
4.56521
4.52076
4.47557
4.42971
4.38324
4.33624
4.28876
4.24089
4.1927
4.14425
4.09563
4.04693
3.99823
3.94964
3.90127
3.85327
3.80578
3.75897
3.71301
3.66806
3.62427
3.58119
3.53844
0.0270608
0.0611323
0.0780575
0.089992
0.0997936
0.108467
0.116501
0.124183
0.131702
0.139193
0.146755
0.154464
0.162384
0.170558
0.179023
0.187808
0.196941
0.206448
0.216354
0.226686
0.237471
0.248736
0.260515
0.27284
0.285748
0.299274
0.313456
0.328328
0.343931
0.360306
0.377498
0.39556
0.414534
0.434456
0.455363
0.47729
0.500261
0.524275
0.549422
0.575762
0.603359
0.632275
0.662542
0.69419
0.72725
0.761753
0.797729
0.83521
0.874217
0.914773
0.956924
1.0007
1.0461
1.09309
1.14167
1.19183
1.24354
1.2968
1.35159
1.40789
1.46568
1.52492
1.5856
1.64766
1.71107
1.77578
1.84175
1.90893
1.97725
2.04666
2.11711
2.18852
2.26083
2.33398
2.40788
2.48249
2.5577
2.63346
2.70969
2.7863
2.86321
2.94035
3.01763
3.09497
3.17229
3.24949
3.32649
3.4032
3.47954
3.55542
3.63075
3.70544
3.77941
3.85256
3.92482
3.99609
4.0663
4.13535
4.20318
4.2697
4.33482
4.39848
4.46061
4.52113
4.57997
4.63707
4.69237
4.74579
4.79729
4.8468
4.89427
4.93965
4.98288
5.02392
5.06274
5.09928
5.13353
5.16545
5.19502
5.2222
5.24699
5.26937
5.28933
5.30686
5.32195
5.33461
5.34485
5.35268
5.35811
5.36115
5.36185
5.36053
5.35686
5.35076
5.34243
5.33192
5.31926
5.3045
5.28769
5.26887
5.2481
5.22543
5.20091
5.17461
5.14658
5.11689
5.08559
5.05275
5.01844
4.98271
4.94564
4.9073
4.86774
4.82703
4.78525
4.74246
4.69872
4.65411
4.60868
4.56251
4.51566
4.46819
4.42017
4.37166
4.32273
4.27346
4.22391
4.17417
4.12432
4.07445
4.02465
3.97506
3.92579
3.877
3.82885
3.7815
3.7351
3.68983
3.64528
3.60138
0.0267334
0.0605605
0.0772187
0.0889253
0.0985041
0.106956
0.114771
0.122237
0.129547
0.136834
0.144199
0.151716
0.159445
0.167432
0.175716
0.18433
0.193307
0.202677
0.212472
0.222723
0.233464
0.244731
0.256561
0.268995
0.282081
0.295874
0.310428
0.325779
0.341971
0.35905
0.377054
0.395994
0.415922
0.436931
0.45909
0.482457
0.507097
0.533092
0.560475
0.589295
0.619606
0.651456
0.684878
0.719899
0.756544
0.794826
0.834756
0.876342
0.919588
0.964497
1.01108
1.05935
1.10932
1.16091
1.21408
1.26878
1.32499
1.38268
1.44179
1.50231
1.56418
1.62736
1.6918