/*--------------------------------*- C++ -*----------------------------------*\
  =========                 |
  \\      /  F ield         | OpenFOAM: The Open Source CFD Toolbox
   \\    /   O peration     | Website:  https://openfoam.org
    \\  /    A nd           | Version:  8
     \\/     M anipulation  |
\*---------------------------------------------------------------------------*/
FoamFile
{
    version     2.0;
    format      ascii;
    class       volScalarField;
    location    "498";
    object      nut;
}
// * * * * * * * * * * * * * * * * * * * * * * * * * * * * * * * * * * * * * //

dimensions      [0 2 -1 0 0 0 0];

internalField   nonuniform List<scalar> 
12225
(
3.93226e-05
3.62224e-05
3.34917e-05
3.15008e-05
2.96971e-05
2.87278e-05
2.79253e-05
2.79776e-05
2.80877e-05
2.87587e-05
2.96036e-05
3.04196e-05
3.18196e-05
3.26933e-05
3.42645e-05
3.49131e-05
3.70889e-05
3.50498e-05
0.000278545
0.000186778
0.00015775
0.00014312
0.000132945
0.000129526
0.000125993
0.000126726
0.000125582
0.000127099
0.000126177
0.000127045
0.000126178
0.00012638
0.000125739
0.000125303
0.000125129
0.000124248
0.000510512
0.000388198
0.000320583
0.000281716
0.000251835
0.000231526
0.000213272
0.000200073
0.000186133
0.000177224
0.000168601
0.000162539
0.000157153
0.000152642
0.000149437
0.000145819
0.000144052
0.000141099
0.000560846
0.000529909
0.000473614
0.000431089
0.000396186
0.000367997
0.00034375
0.000323115
0.00030475
0.000287583
0.000273106
0.000258482
0.00024819
0.000235726
0.000228339
0.000217845
0.000212468
0.000203962
0.000574226
0.000567144
0.000549806
0.000527749
0.000504266
0.000481578
0.000461615
0.000441828
0.000425639
0.000407926
0.000394632
0.000378329
0.0003675
0.00035268
0.000343846
0.000330499
0.000323328
0.000311565
0.000575245
0.000573999
0.000571067
0.000563646
0.00055456
0.000544037
0.00053325
0.000520628
0.000510158
0.000497679
0.000488051
0.000476046
0.000467328
0.000456002
0.000448149
0.000437625
0.000430525
0.000420622
0.000575196
0.000574553
0.000574293
0.000572599
0.000570423
0.000566749
0.000562971
0.000557711
0.000552745
0.000546826
0.000541132
0.000535112
0.000529222
0.000523208
0.000517502
0.000511569
0.000506109
0.000499978
0.000575159
0.000574592
0.000574408
0.000573765
0.000573178
0.000571869
0.000570544
0.000568464
0.000566345
0.000563647
0.000560951
0.000557795
0.000554832
0.000551338
0.000548345
0.000544599
0.00054178
0.000537718
0.00057513
0.000574624
0.000574344
0.000573892
0.000573597
0.000573027
0.000572523
0.000571686
0.000570861
0.000569682
0.000568559
0.000567038
0.000565707
0.000563894
0.000562452
0.000560402
0.000558949
0.000556704
0.000575107
0.000574648
0.000574309
0.000573898
0.0005736
0.000573212
0.000572911
0.000572482
0.000572126
0.000571596
0.000571152
0.000570488
0.000569951
0.000569151
0.000568535
0.000567614
0.000566941
0.000565921
0.000575093
0.000574659
0.000574291
0.000573901
0.000573574
0.00057322
0.000572928
0.000572597
0.000572325
0.000571995
0.000571726
0.000571381
0.000571099
0.000570729
0.000570426
0.000570027
0.000569702
0.000569275
0.000575086
0.000574664
0.000574281
0.000573902
0.000573559
0.000573216
0.000572909
0.000572598
0.000572321
0.000572036
0.000571782
0.000571518
0.000571281
0.000571032
0.000570806
0.000570567
0.000570347
0.000570115
0.000575082
0.000574665
0.000574275
0.0005739
0.000573549
0.000573211
0.000572895
0.00057259
0.000572304
0.000572027
0.000571768
0.000571517
0.00057128
0.000571051
0.000570835
0.000570625
0.000570426
0.000570234
0.000575081
0.000574665
0.000574272
0.000573897
0.000573543
0.000573206
0.000572886
0.000572581
0.000572292
0.000572016
0.000571754
0.000571503
0.000571264
0.000571036
0.000570819
0.000570612
0.000570414
0.000570225
0.000575081
0.000574664
0.00057427
0.000573895
0.000573539
0.000573201
0.00057288
0.000572575
0.000572284
0.000572007
0.000571743
0.000571491
0.000571252
0.000571023
0.000570804
0.000570596
0.000570397
0.000570207
0.00057508
0.000574664
0.000574268
0.000573893
0.000573537
0.000573198
0.000572876
0.000572569
0.000572278
0.000572
0.000571735
0.000571483
0.000571242
0.000571012
0.000570793
0.000570584
0.000570384
0.000570193
0.00057508
0.000574663
0.000574268
0.000573892
0.000573535
0.000573196
0.000572873
0.000572566
0.000572274
0.000571995
0.00057173
0.000571477
0.000571235
0.000571005
0.000570785
0.000570575
0.000570374
0.000570182
0.00057508
0.000574663
0.000574267
0.000573891
0.000573534
0.000573195
0.000572872
0.000572564
0.000572272
0.000571993
0.000571727
0.000571474
0.000571232
0.000571001
0.000570781
0.00057057
0.000570369
0.000570177
0.00057508
0.000574663
0.000574268
0.000573892
0.000573534
0.000573195
0.000572872
0.000572565
0.000572272
0.000571993
0.000571727
0.000571474
0.000571232
0.000571001
0.00057078
0.000570569
0.000570368
0.000570176
0.00057508
0.000574664
0.000574268
0.000573892
0.000573535
0.000573196
0.000572874
0.000572566
0.000572274
0.000571995
0.000571729
0.000571476
0.000571234
0.000571003
0.000570782
0.000570572
0.000570371
0.000570178
0.00057508
0.000574664
0.000574269
0.000573894
0.000573537
0.000573199
0.000572876
0.00057257
0.000572277
0.000571999
0.000571733
0.00057148
0.000571238
0.000571007
0.000570785
0.000570574
0.000570371
0.000570177
0.00057508
0.000574666
0.000574269
0.000573897
0.000573539
0.000573203
0.000572879
0.000572575
0.00057228
0.000572002
0.000571731
0.000571475
0.000571223
0.000570985
0.000570749
0.000570525
0.000570302
0.000570091
0.000575078
0.000574668
0.00057427
0.000573902
0.000573542
0.000573208
0.000572873
0.000572559
0.000572234
0.000571926
0.000571598
0.000571285
0.000570946
0.000570623
0.000570268
0.000569935
0.000569565
0.000569224
0.000575074
0.000574676
0.000574274
0.000573909
0.000573509
0.000573113
0.000572642
0.000572149
0.000571555
0.000570937
0.000570205
0.000569469
0.000568614
0.000567785
0.000566834
0.000565946
0.000564927
0.000564012
0.000575072
0.000574715
0.000574231
0.000573649
0.000572742
0.000571592
0.000570055
0.000568294
0.000566212
0.000564001
0.000561553
0.00055909
0.000556432
0.000553889
0.000551145
0.000548636
0.000545877
0.000543476
0.000575215
0.000574506
0.000572597
0.00056959
0.000565119
0.000559826
0.000553715
0.000547409
0.000540802
0.000534321
0.00052782
0.000521602
0.000515499
0.000509772
0.000504074
0.000498893
0.000493532
0.000488981
0.000575193
0.000567749
0.000555502
0.000541006
0.00052443
0.000508594
0.000493364
0.000479708
0.000466711
0.000455326
0.000444341
0.000434847
0.000425513
0.000417505
0.000409402
0.000402605
0.000395447
0.00038959
0.000556591
0.000516456
0.000469978
0.000435612
0.00040654
0.000383408
0.000364191
0.000348495
0.000334741
0.000323592
0.000313231
0.0003051
0.000296995
0.000290412
0.000283912
0.000278657
0.000273041
0.000268704
0.000419858
0.000313591
0.000271601
0.000245146
0.000226508
0.000215775
0.000207232
0.000200822
0.000196504
0.000193555
0.000191098
0.000189447
0.000187921
0.000186909
0.000185821
0.000185232
0.000184464
0.000184135
8.15215e-05
7.76813e-05
7.43762e-05
7.15177e-05
6.88451e-05
6.65877e-05
6.46164e-05
6.29913e-05
6.1595e-05
6.05349e-05
5.96447e-05
5.90364e-05
5.85382e-05
5.82733e-05
5.80647e-05
5.80494e-05
5.80909e-05
5.81895e-05
1.36473e-07
3.80413e-06
7.17549e-06
1.01159e-05
1.2793e-05
1.5716e-05
1.91071e-05
2.32048e-05
2.8233e-05
3.42488e-05
4.12221e-05
4.89522e-05
5.73138e-05
6.60597e-05
7.51087e-05
8.42231e-05
9.33815e-05
0.000102351
0.000111145
0.000119542
0.000127572
0.000135032
0.000141993
0.000148349
0.000154202
0.000159617
0.000164767
0.00016993
0.000175303
0.000179746
0.0001858
0.000197711
0.000208921
0.000220896
0.000231151
0.000239749
0.000241276
0.000240798
0.000238691
0.000236078
0.000228669
0.000232877
0.000211687
4.73613e-05
4.93782e-05
5.02497e-05
5.14884e-05
5.25519e-05
5.36969e-05
5.47956e-05
5.59127e-05
5.70148e-05
5.81189e-05
5.92163e-05
6.03114e-05
6.14019e-05
6.24891e-05
6.35723e-05
6.46516e-05
6.57271e-05
6.67984e-05
6.78655e-05
6.8928e-05
6.9986e-05
7.10389e-05
7.20866e-05
7.31286e-05
7.41648e-05
7.51944e-05
7.62173e-05
7.72329e-05
7.82409e-05
7.92405e-05
8.02316e-05
8.12134e-05
8.21855e-05
8.31473e-05
8.40983e-05
8.5038e-05
8.59657e-05
8.6881e-05
8.77832e-05
8.86718e-05
8.95462e-05
9.04058e-05
9.125e-05
9.20781e-05
9.28895e-05
9.36835e-05
9.44594e-05
9.52162e-05
9.5953e-05
9.66688e-05
9.73624e-05
9.80327e-05
9.8679e-05
9.93011e-05
9.99007e-05
0.000100484
0.000101044
0.000101582
0.000102099
0.000102593
0.000103066
0.000103515
0.000103943
0.000104346
0.000104727
0.000105084
0.000105417
0.000105725
0.00010601
0.000106269
0.000106505
0.000106715
0.0001069
0.000107061
0.000107196
0.000107306
0.000107391
0.000107451
0.000107486
0.000107496
0.000107481
0.000107441
0.000107376
0.000107287
0.000107173
0.000107036
0.000106876
0.00010669
0.00010648
0.000106242
0.000105985
0.00010571
0.000105413
0.000105091
0.000104748
0.000104383
0.000103998
0.000103593
0.000103168
0.000102724
0.000102262
0.000101781
0.000101283
0.000100767
0.000100235
9.96878e-05
9.91251e-05
9.85479e-05
9.79567e-05
9.73523e-05
9.67353e-05
9.61064e-05
9.54663e-05
9.48157e-05
9.41552e-05
9.34857e-05
9.28079e-05
9.21228e-05
9.14314e-05
9.07361e-05
9.00442e-05
8.9424e-05
8.89945e-05
8.86041e-05
8.82152e-05
8.78247e-05
8.74326e-05
8.70388e-05
8.66434e-05
8.6246e-05
8.58455e-05
8.54396e-05
8.5023e-05
8.45853e-05
8.40968e-05
8.34901e-05
8.16896e-05
7.17145e-07
2.19015e-05
5.10328e-05
7.16273e-05
8.47439e-05
9.32192e-05
9.9655e-05
0.00010576
0.000112455
0.000120109
0.000128768
0.000138288
0.000148473
0.000159097
0.000169973
0.000180912
0.000191775
0.000202403
0.000212675
0.000222447
0.000231609
0.000240037
0.000247668
0.000254459
0.000260459
0.000265805
0.000270763
0.000275016
0.000278208
0.000280776
0.000282939
0.000284366
0.000283921
0.00028229
0.000282405
0.000288043
0.000279655
0.000285271
0.000287334
0.000286227
0.000283813
0.000291558
0.000270229
0.000258333
0.000267483
0.000274556
0.000282174
0.00029008
0.000297983
0.000306098
0.000314272
0.000322566
0.000330933
0.000339387
0.000347916
0.000356523
0.000365207
0.000373968
0.000382806
0.000391724
0.000400721
0.000409798
0.000418957
0.000428198
0.000437519
0.000446922
0.000456404
0.000465965
0.000475603
0.000485316
0.000495101
0.000504955
0.000514874
0.000524856
0.000534894
0.000544986
0.000555125
0.000565307
0.000575526
0.000585777
0.000596053
0.000606348
0.000616657
0.000626972
0.000637289
0.0006476
0.000657901
0.000668185
0.000678446
0.000688681
0.000698881
0.000709041
0.000719147
0.000729181
0.000739114
0.000748893
0.000758424
0.000767546
0.000775982
0.000784227
0.000792347
0.000800334
0.000808184
0.000815894
0.000823457
0.000830869
0.000838124
0.000845216
0.00085214
0.000858891
0.000865464
0.000871854
0.000878058
0.000884069
0.000889885
0.0008955
0.000900912
0.000906116
0.00091111
0.00091589
0.000920453
0.000924797
0.000928919
0.000932818
0.000936491
0.000939938
0.000943159
0.000946154
0.000948924
0.000951468
0.000953815
0.00095597
0.000957722
0.0009592
0.000960593
0.000961841
0.000962793
0.000963509
0.000964004
0.000964278
0.000964335
0.000964177
0.000963808
0.000963231
0.000962451
0.000961471
0.000960296
0.00095893
0.000957379
0.000955646
0.000953738
0.00095166
0.000949417
0.000947016
0.000944463
0.000941764
0.000938925
0.000935953
0.000932854
0.000929632
0.000926292
0.000922833
0.000919233
0.000915375
0.000910638
0.000904069
0.00089678
0.000889255
0.000881622
0.000873923
0.000866177
0.000858389
0.000850561
0.000842685
0.000834737
0.000826668
0.000818324
0.000809433
0.000798559
0.000770838
1.55716e-06
3.71969e-05
8.24489e-05
0.000116885
0.000141754
0.000159705
0.000173188
0.000184219
0.000194248
0.000204175
0.000214464
0.000225267
0.00023656
0.000248224
0.000260112
0.000272068
0.000283943
0.000295591
0.000306871
0.000317641
0.000327763
0.000337107
0.000345571
0.000353086
0.000359645
0.000365302
0.000370149
0.000374883
0.000380334
0.00038665
0.000394144
0.000402899
0.000412729
0.000423421
0.000434843
0.000446838
0.000455798
0.000466376
0.000475607
0.000484668
0.000494006
0.000503335
0.00050849
0.000519891
0.000536063
0.000551896
0.000567989
0.000584303
0.000600746
0.000617363
0.000634113
0.00065101
0.000668039
0.000685204
0.000702502
0.000719936
0.000737505
0.000755212
0.000773058
0.000791044
0.00080917
0.000827436
0.000845843
0.000864389
0.000883072
0.00090189
0.00092084
0.000939918
0.000959118
0.000978435
0.000997863
0.0010174
0.00103702
0.00105674
0.00107654
0.0010964
0.00111632
0.0011363
0.00115631
0.00117634
0.00119639
0.00121644
0.00123649
0.00125651
0.00127649
0.00129643
0.0013163
0.0013361
0.0013558
0.0013754
0.00139488
0.00141421
0.00143336
0.0014523
0.00147098
0.00148934
0.00150729
0.00152477
0.00154178
0.00155852
0.001575
0.0015912
0.00160712
0.00162274
0.00163805
0.00165303
0.00166769
0.001682
0.00169596
0.00170956
0.00172278
0.00173562
0.00174807
0.00176011
0.00177174
0.00178296
0.00179375
0.00180411
0.00181403
0.00182351
0.00183253
0.0018411
0.00184921
0.00185685
0.00186403
0.00187074
0.00187697
0.00188275
0.00188805
0.0018929
0.0018973
0.00190131
0.00190459
0.00190728
0.00190976
0.00191184
0.0019134
0.00191447
0.00191508
0.00191524
0.00191495
0.00191421
0.00191305
0.00191146
0.00190944
0.00190702
0.00190419
0.00190098
0.00189738
0.0018934
0.00188907
0.00188438
0.00187936
0.00187401
0.00186834
0.00186238
0.00185612
0.00184959
0.0018428
0.00183575
0.00182846
0.00182093
0.00181312
0.00180488
0.00179565
0.0017847
0.00177276
0.00176034
0.00174764
0.00173477
0.00172176
0.00170864
0.0016954
0.00168205
0.00166853
0.00165474
0.00164039
0.00162472
0.00160504
0.00156335
2.55171e-06
4.94984e-05
0.000107102
0.000151912
0.000184822
0.000209103
0.000227625
0.000242646
0.000255813
0.000268221
0.000280511
0.00029299
0.000305749
0.000318754
0.000331913
0.000345109
0.000358221
0.00037113
0.000383721
0.00039588
0.000407503
0.000418497
0.000428798
0.000438393
0.000447343
0.00045582
0.000464133
0.000472781
0.000482307
0.000493163
0.00050575
0.000520282
0.000536668
0.000554497
0.000573652
0.000593322
0.000611551
0.000629776
0.000647739
0.000666661
0.000686375
0.000705257
0.000724688
0.000745938
0.000768466
0.000791184
0.000814099
0.000837208
0.000860494
0.000883962
0.000907606
0.000931426
0.000955423
0.000979595
0.00100394
0.00102847
0.00105318
0.00107808
0.00110316
0.00112843
0.00115388
0.00117952
0.00120534
0.00123134
0.00125751
0.00128386
0.00131037
0.00133704
0.00136385
0.00139081
0.0014179
0.00144512
0.00147244
0.00149986
0.00152736
0.00155494
0.00158257
0.00161025
0.00163795
0.00166565
0.00169336
0.00172104
0.00174867
0.00177625
0.00180375
0.00183116
0.00185845
0.0018856
0.00191259
0.0019394
0.00196601
0.00199237
0.00201846
0.00204425
0.00206968
0.00209472
0.0021193
0.00214341
0.0021671
0.00219043
0.00221339
0.00223596
0.00225813
0.00227989
0.00230122
0.0023221
0.00234251
0.00236245
0.0023819
0.00240084
0.00241927
0.00243716
0.00245451
0.00247131
0.00248753
0.00250318
0.00251824
0.00253271
0.00254656
0.0025598
0.00257242
0.00258441
0.00259576
0.00260648
0.00261654
0.00262596
0.00263473
0.00264286
0.00265034
0.00265718
0.00266349
0.00266913
0.00267379
0.0026777
0.00268135
0.00268432
0.00268661
0.00268825
0.00268924
0.0026896
0.00268935
0.00268848
0.002687
0.00268494
0.00268229
0.00267906
0.00267528
0.00267095
0.00266608
0.00266069
0.00265479
0.0026484
0.00264154
0.00263421
0.00262644
0.00261824
0.00260963
0.00260063
0.00259126
0.00258152
0.00257144
0.00256101
0.00255021
0.0025389
0.00252672
0.00251322
0.00249875
0.00248368
0.00246822
0.00245248
0.00243652
0.00242039
0.0024041
0.00238764
0.00237098
0.00235399
0.00233638
0.00231717
0.00229316
0.00224918
3.57925e-06
5.97983e-05
0.000127863
0.000181405
0.00022137
0.00025121
0.000274128
0.000292626
0.000308538
0.000323125
0.000337181
0.000351148
0.000365227
0.000379472
0.000393857
0.000408318
0.000422782
0.000437172
0.000451425
0.00046548
0.000479294
0.000492838
0.000506113
0.000519158
0.000532076
0.000545042
0.000558324
0.000572268
0.000587253
0.000603629
0.000621662
0.000641451
0.00066285
0.000685558
0.000709328
0.00073362
0.000757948
0.000782507
0.000807398
0.000832936
0.000859184
0.00088572
0.00091222
0.00093939
0.000967067
0.000995
0.00102315
0.0010515
0.00108007
0.00110884
0.00113782
0.00116701
0.0011964
0.001226
0.00125581
0.00128582
0.00131604
0.00134647
0.00137712
0.00140798
0.00143906
0.00147034
0.00150182
0.00153351
0.00156538
0.00159744
0.00162968
0.00166208
0.00169463
0.00172733
0.00176017
0.00179312
0.00182617
0.00185931
0.00189252
0.00192579
0.0019591
0.00199242
0.00202574
0.00205905
0.00209232
0.00212553
0.00215865
0.00219168
0.00222459
0.00225735
0.00228994
0.00232234
0.00235452
0.00238646
0.00241813
0.0024495
0.00248054
0.00251122
0.0025415
0.00257138
0.00260083
0.00262984
0.00265841
0.00268656
0.00271426
0.0027415
0.00276827
0.00279454
0.00282031
0.00284554
0.00287022
0.00289434
0.00291787
0.00294081
0.00296314
0.00298484
0.0030059
0.00302631
0.00304604
0.0030651
0.00308346
0.00310112
0.00311806
0.00313428
0.00314976
0.0031645
0.0031785
0.00319173
0.00320421
0.00321592
0.00322687
0.00323705
0.00324647
0.00325517
0.00326327
0.00327037
0.00327647
0.00328179
0.00328668
0.00329075
0.00329402
0.00329652
0.00329826
0.00329925
0.0032995
0.00329901
0.00329781
0.0032959
0.00329329
0.00328999
0.00328601
0.00328138
0.0032761
0.00327019
0.00326366
0.00325654
0.00324884
0.00324057
0.00323176
0.00322242
0.00321258
0.00320226
0.00319147
0.00318023
0.00316857
0.00315648
0.00314395
0.00313089
0.00311708
0.00310227
0.00308661
0.00307033
0.00305358
0.00303648
0.00301911
0.0030015
0.00298371
0.00296572
0.00294752
0.00292899
0.00290979
0.00288894
0.00286334
0.00282187
4.57402e-06
6.85344e-05
0.000145469
0.000206562
0.000252865
0.000287784
0.000314756
0.000336472
0.000354933
0.000371549
0.000387255
0.000402618
0.000417953
0.000433401
0.000449012
0.00046478
0.000480681
0.00049669
0.000512787
0.000528962
0.000545222
0.000561586
0.000578095
0.000594816
0.000611846
0.000629322
0.000647422
0.000666357
0.000686345
0.000707586
0.000730214
0.000754257
0.000779624
0.000806118
0.000833531
0.000861593
0.000890106
0.000919044
0.000948432
0.000978334
0.00100875
0.00103953
0.00107057
0.00110198
0.00113372
0.00116572
0.00119795
0.00123041
0.00126309
0.00129599
0.00132911
0.00136244
0.00139601
0.00142979
0.0014638
0.00149805
0.00153252
0.0015672
0.0016021
0.0016372
0.00167252
0.00170803
0.00174373
0.00177963
0.00181571
0.00185196
0.00188837
0.00192493
0.00196164
0.00199847
0.00203541
0.00207246
0.00210959
0.00214679
0.00218404
0.00222133
0.00225863
0.00229592
0.0023332
0.00237043
0.0024076
0.00244469
0.00248167
0.00251853
0.00255523
0.00259176
0.0026281
0.00266422
0.00270009
0.00273569
0.00277099
0.00280596
0.00284059
0.00287484
0.00290869
0.00294213
0.00297512
0.00300767
0.00303975
0.00307137
0.0031025
0.00313313
0.00316324
0.0031928
0.00322181
0.00325024
0.00327807
0.00330528
0.00333186
0.00335779
0.00338306
0.00340763
0.00343151
0.00345468
0.00347711
0.00349881
0.00351974
0.00353991
0.0035593
0.0035779
0.00359569
0.00361268
0.00362884
0.00364418
0.00365868
0.00367235
0.00368518
0.00369716
0.00370832
0.0037188
0.00372839
0.00373698
0.00374449
0.00375129
0.00375743
0.0037627
0.00376709
0.00377064
0.00377335
0.00377523
0.00377629
0.00377655
0.003776
0.00377466
0.00377254
0.00376966
0.00376603
0.00376166
0.00375656
0.00375076
0.00374426
0.00373709
0.00372927
0.0037208
0.00371172
0.00370204
0.00369179
0.00368098
0.00366963
0.00365777
0.00364542
0.00363258
0.00361925
0.00360538
0.00359084
0.00357552
0.00355945
0.00354277
0.00352559
0.00350803
0.00349014
0.003472
0.00345364
0.00343508
0.00341634
0.00339732
0.00337773
0.00335666
0.0033314
0.00329409
5.49557e-06
7.58142e-05
0.000160188
0.000227858
0.000279883
0.000319511
0.000350314
0.00037512
0.00039606
0.000414671
0.000432013
0.000448774
0.00046537
0.000482037
0.000498894
0.000515996
0.000533369
0.000551025
0.00056898
0.000587258
0.000605893
0.000624928
0.000644421
0.00066444
0.000685063
0.000706382
0.0007285
0.000751526
0.000775568
0.00080071
0.000827002
0.000854439
0.000882956
0.000912433
0.000942734
0.000973713
0.00100526
0.00103731
0.00106984
0.00110285
0.00113631
0.00117015
0.00120432
0.00123882
0.00127362
0.00130868
0.00134398
0.00137952
0.00141528
0.00145126
0.00148747
0.00152389
0.00156053
0.00159738
0.00163445
0.00167174
0.00170923
0.00174693
0.00178484
0.00182294
0.00186123
0.00189971
0.00193837
0.0019772
0.0020162
0.00205536
0.00209466
0.0021341
0.00217367
0.00221334
0.00225312
0.00229298
0.00233291
0.0023729
0.00241292
0.00245296
0.002493
0.00253303
0.00257302
0.00261296
0.00265282
0.00269259
0.00273224
0.00277175
0.0028111
0.00285026
0.00288922
0.00292795
0.00296642
0.00300461
0.0030425
0.00308006
0.00311727
0.0031541
0.00319053
0.00322655
0.00326212
0.00329725
0.0033319
0.00336607
0.00339974
0.00343289
0.00346549
0.00349753
0.00352899
0.00355984
0.00359007
0.00361966
0.00364859
0.00367684
0.00370439
0.00373123
0.00375734
0.0037827
0.0038073
0.00383112
0.00385415
0.00387638
0.00389779
0.00391837
0.0039381
0.00395699
0.00397501
0.00399217
0.00400845
0.00402384
0.00403834
0.00405196
0.00406474
0.00407683
0.00408779
0.00409786
0.00410679
0.00411505
0.00412248
0.00412899
0.0041346
0.0041393
0.00414312
0.00414606
0.00414813
0.00414933
0.00414969
0.0041492
0.00414788
0.00414574
0.00414279
0.00413905
0.00413454
0.00412926
0.00412323
0.00411648
0.00410901
0.00410086
0.00409203
0.00408254
0.00407243
0.0040617
0.00405039
0.00403851
0.00402609
0.00401313
0.00399964
0.00398561
0.00397096
0.00395563
0.00393964
0.00392306
0.00390599
0.0038885
0.00387067
0.00385256
0.00383422
0.00381571
0.00379704
0.00377818
0.00375889
0.0037384
0.00371444
0.00368129
6.31445e-06
8.17254e-05
0.000172228
0.000245577
0.000302742
0.000346736
0.000381184
0.000408994
0.000432393
0.000453018
0.000472036
0.000490237
0.000508136
0.000526051
0.000544172
0.00056261
0.000581432
0.000600685
0.000620404
0.000640628
0.000661401
0.000682774
0.000704808
0.000727571
0.000751102
0.000775454
0.00080068
0.000826829
0.000853942
0.000882041
0.000911129
0.00094118
0.000972142
0.00100394
0.00103647
0.00106967
0.00110344
0.00113773
0.0011725
0.00120771
0.00124334
0.00127935
0.0013157
0.00135239
0.00138936
0.0014266
0.0014641
0.00150182
0.00153975
0.0015779
0.00161624
0.00165479
0.00169354
0.00173248
0.00177162
0.00181095
0.00185047
0.00189017
0.00193005
0.00197011
0.00201034
0.00205074
0.0020913
0.00213201
0.00217288
0.00221388
0.00225502
0.00229627
0.00233765
0.00237912
0.00242068
0.00246232
0.00250402
0.00254577
0.00258756
0.00262936
0.00267117
0.00271296
0.00275471
0.00279642
0.00283805
0.00287959
0.00292103
0.00296233
0.00300347
0.00304444
0.00308522
0.00312577
0.00316608
0.00320612
0.00324587
0.00328531
0.00332441
0.00336314
0.0034015
0.00343945
0.00347697
0.00351405
0.00355067
0.0035868
0.00362242
0.00365753
0.00369208
0.00372607
0.00375948
0.00379227
0.00382443
0.00385594
0.00388678
0.00391693
0.00394638
0.00397509
0.00400306
0.00403027
0.0040567
0.00408234
0.00410717
0.00413117
0.00415433
0.00417665
0.0041981
0.00421867
0.00423836
0.00425716
0.00427505
0.00429203
0.00430809
0.00432323
0.0043376
0.00435104
0.00436346
0.00437493
0.00438531
0.00439499
0.00440374
0.00441154
0.00441841
0.00442434
0.00442936
0.00443347
0.00443667
0.00443897
0.00444039
0.00444093
0.0044406
0.00443941
0.00443738
0.00443453
0.00443085
0.00442638
0.00442111
0.00441509
0.0044083
0.00440079
0.00439256
0.00438364
0.00437405
0.0043638
0.00435292
0.00434144
0.00432936
0.00431672
0.00430351
0.00428974
0.00427539
0.00426041
0.00424483
0.00422868
0.00421204
0.00419497
0.00417754
0.00415982
0.00414188
0.00412378
0.00410557
0.00408725
0.00406867
0.00404917
0.00402696
0.003998
7.01217e-06
8.63624e-05
0.000181777
0.000259956
0.000321684
0.000369695
0.000407594
0.000438322
0.000464162
0.000486827
0.000507565
0.000527257
0.000546499
0.000565687
0.00058507
0.000604808
0.000625014
0.000645788
0.000667138
0.0006891
0.000711712
0.000735011
0.000759024
0.000783755
0.00080932
0.000835772
0.000863138
0.000891432
0.000920656
0.000950804
0.000981855
0.00101378
0.00104652
0.00108002
0.00111422
0.00114906
0.00118446
0.00122039
0.00125678
0.00129361
0.00133084
0.0013684
0.00140623
0.00144429
0.00148262
0.00152123
0.0015601
0.00159918
0.00163845
0.00167789
0.00171752
0.00175731
0.00179727
0.0018374
0.00187769
0.00191815
0.00195877
0.00199955
0.00204048
0.00208157
0.00212281
0.0021642
0.00220574
0.00224741
0.00228923
0.00233118
0.00237325
0.00241545
0.00245775
0.00250016
0.00254267
0.00258526
0.00262792
0.00267065
0.00271342
0.00275623
0.00279906
0.00284189
0.00288471
0.00292751
0.00297025
0.00301294
0.00305553
0.00309803
0.00314039
0.00318262
0.00322467
0.00326653
0.00330818
0.00334958
0.00339073
0.00343159
0.00347214
0.00351236
0.00355222
0.0035917
0.00363078
0.00366943
0.00370764
0.00374537
0.00378261
0.00381934
0.00385553
0.00389116
0.00392621
0.00396065
0.00399447
0.00402764
0.00406014
0.00409195
0.00412305
0.00415343
0.00418305
0.0042119
0.00423997
0.00426724
0.0042937
0.00431932
0.00434409
0.004368
0.00439103
0.00441318
0.00443443
0.00445476
0.00447418
0.00449267
0.00451021
0.00452685
0.00454269
0.00455748
0.00457133
0.0045842
0.00459608
0.00460714
0.00461724
0.00462636
0.00463454
0.00464176
0.00464805
0.0046534
0.00465782
0.00466133
0.00466392
0.00466561
0.00466641
0.00466633
0.00466538
0.00466357
0.00466092
0.00465745
0.00465316
0.00464807
0.0046422
0.00463556
0.00462819
0.00462008
0.00461127
0.00460178
0.00459162
0.00458081
0.00456939
0.00455736
0.00454474
0.00453155
0.00451777
0.0045034
0.00448845
0.00447295
0.00445696
0.00444054
0.00442374
0.00440665
0.00438934
0.00437189
0.00435437
0.00433683
0.00431915
0.00430084
0.0042805
0.00425583
7.57854e-06
8.98271e-05
0.000189031
0.000271232
0.000336939
0.000388601
0.000429734
0.000463265
0.000491503
0.000516209
0.000538694
0.000559904
0.000580513
0.000601003
0.000621631
0.000642555
0.000663864
0.000685568
0.000707895
0.000730931
0.000754728
0.000779323
0.000804757
0.000831084
0.00085831
0.000886458
0.000915501
0.000945428
0.000976223
0.00100786
0.00104031
0.00107354
0.00110749
0.00114212
0.00117737
0.00121319
0.00124952
0.00128632
0.00132355
0.00136116
0.00139912
0.0014374
0.00147599
0.00151489
0.00155403
0.00159333
0.00163282
0.00167247
0.00171225
0.00175217
0.00179221
0.00183239
0.0018727
0.00191315
0.00195372
0.00199444
0.00203529
0.00207627
0.0021174
0.00215866
0.00220007
0.00224161
0.00228331
0.00232514
0.00236712
0.00240924
0.0024515
0.0024939
0.00253643
0.00257908
0.00262187
0.00266476
0.00270776
0.00275087
0.00279405
0.00283732
0.00288064
0.00292401
0.00296742
0.00301085
0.00305427
0.00309768
0.00314104
0.00318435
0.00322758
0.00327071
0.00331372
0.00335658
0.00339927
0.00344176
0.00348403
0.00352606
0.00356782
0.00360928
0.00365041
0.0036912
0.00373162
0.00377164
0.00381123
0.00385038
0.00388905
0.00392723
0.00396489
0.004002
0.00403854
0.00407449
0.00410982
0.00414451
0.00417854
0.00421189
0.00424453
0.00427644
0.00430761
0.00433801
0.00436762
0.00439644
0.00442443
0.00445159
0.00447789
0.00450333
0.00452789
0.00455155
0.00457431
0.00459615
0.00461706
0.00463702
0.00465604
0.00467416
0.00469135
0.00470757
0.00472285
0.00473715
0.00475052
0.004763
0.00477447
0.00478496
0.00479449
0.00480305
0.00481067
0.00481733
0.00482306
0.00482785
0.00483171
0.00483466
0.00483669
0.00483784
0.00483809
0.00483747
0.00483599
0.00483366
0.00483049
0.00482651
0.00482172
0.00481615
0.0048098
0.00480271
0.00479489
0.00478635
0.00477712
0.00476722
0.00475666
0.00474548
0.00473368
0.00472129
0.0047083
0.00469473
0.00468059
0.00466591
0.00465073
0.00463511
0.00461911
0.00460282
0.0045863
0.00456965
0.00455297
0.00453632
0.00451965
0.00450259
0.00448405
0.00446282
8.01109e-06
9.22267e-05
0.000194176
0.000279743
0.000348741
0.000403673
0.000447792
0.000483978
0.000514531
0.00054124
0.000565486
0.000588175
0.000609955
0.000631223
0.000652479
0.000674045
0.000696125
0.000718913
0.00074246
0.000766761
0.00079184
0.000817726
0.000844447
0.000872019
0.000900422
0.000929631
0.000959661
0.000990503
0.00102214
0.00105453
0.00108766
0.00112147
0.00115593
0.00119099
0.00122659
0.0012627
0.00129926
0.00133623
0.00137357
0.00141124
0.0014492
0.00148743
0.00152591
0.00156461
0.00160349
0.00164262
0.00168197
0.00172141
0.00176089
0.00180042
0.00184002
0.00187971
0.0019195
0.00195939
0.00199939
0.00203951
0.00207975
0.00212012
0.00216063
0.00220128
0.00224208
0.00228304
0.00232417
0.00236547
0.00240694
0.0024486
0.00249043
0.00253245
0.00257466
0.00261704
0.00265961
0.00270235
0.00274526
0.00278833
0.00283156
0.00287492
0.00291842
0.00296203
0.00300574
0.00304953
0.00309339
0.00313729
0.00318123
0.00322516
0.00326908
0.00331295
0.00335676
0.00340048
0.00344408
0.00348754
0.00353082
0.00357391
0.00361677
0.00365937
0.00370169
0.0037437
0.00378537
0.00382667
0.00386757
0.00390805
0.00394809
0.00398764
0.0040267
0.00406523
0.0041032
0.00414059
0.00417738
0.00421354
0.00424905
0.00428388
0.00431801
0.00435143
0.0043841
0.00441601
0.00444713
0.00447746
0.00450696
0.00453563
0.00456344
0.00459039
0.00461645
0.00464162
0.00466588
0.00468921
0.00471161
0.00473306
0.00475355
0.00477311
0.00479171
0.00480938
0.00482611
0.00484189
0.00485673
0.00487071
0.0048836
0.00489549
0.00490642
0.00491639
0.00492539
0.00493345
0.00494055
0.0049467
0.00495193
0.00495622
0.0049596
0.00496206
0.00496363
0.00496431
0.00496412
0.00496306
0.00496116
0.00495842
0.00495486
0.0049505
0.00494535
0.00493943
0.00493275
0.00492535
0.00491722
0.0049084
0.0048989
0.00488875
0.00487796
0.00486654
0.00485453
0.00484192
0.00482874
0.00481501
0.00480079
0.00478611
0.00477104
0.00475566
0.00474006
0.00472433
0.00470858
0.0046929
0.00467729
0.00466146
0.00464459
0.00462621
8.31379e-06
9.36921e-05
0.000197459
0.000285646
0.000357373
0.000415163
0.000461989
0.000500664
0.000533369
0.00056179
0.000587157
0.00061072
0.000633335
0.000655673
0.000678113
0.000700852
0.000724061
0.000747851
0.000772237
0.000797312
0.000823123
0.000849689
0.000877026
0.000905143
0.000934032
0.000963676
0.000994066
0.00102518
0.001057
0.00108948
0.00112259
0.0011563
0.00119055
0.00122531
0.00126053
0.00129618
0.00133221
0.00136856
0.0014052
0.0014421
0.00147922
0.00151652
0.00155396
0.00159163
0.00162963
0.00166783
0.00170605
0.00174432
0.0017826
0.00182084
0.00185909
0.00189739
0.00193577