/*--------------------------------*- C++ -*----------------------------------*\
  =========                 |
  \\      /  F ield         | OpenFOAM: The Open Source CFD Toolbox
   \\    /   O peration     | Website:  https://openfoam.org
    \\  /    A nd           | Version:  8
     \\/     M anipulation  |
\*---------------------------------------------------------------------------*/
FoamFile
{
    version     2.0;
    format      ascii;
    class       volVectorField;
    location    "498";
    object      U;
}
// * * * * * * * * * * * * * * * * * * * * * * * * * * * * * * * * * * * * * //

dimensions      [0 1 -1 0 0 0 0];

internalField   nonuniform List<vector> 
12225
(
(9.83916 -0.616029 0)
(9.59079 -0.521306 0)
(9.34072 -0.306332 0)
(9.09161 -0.159512 0)
(8.86597 -0.0758467 0)
(8.67257 -0.0312178 0)
(8.5075 -0.00820298 0)
(8.36946 0.00392278 0)
(8.25268 0.0097494 0)
(8.15516 0.0128953 0)
(8.07172 0.0144613 0)
(8.00028 0.0152893 0)
(7.93771 0.0156485 0)
(7.88269 0.0157741 0)
(7.83314 0.0157639 0)
(7.79064 0.0151814 0)
(7.74152 0.0182666 0)
(7.7355 0.00752591 0)
(10.0544 0.184069 0)
(10.1318 0.272687 0)
(10.1365 0.226091 0)
(10.1011 0.167485 0)
(10.0536 0.125158 0)
(9.99927 0.0962494 0)
(9.93887 0.0764334 0)
(9.87273 0.062436 0)
(9.80486 0.0524106 0)
(9.73678 0.0448244 0)
(9.67063 0.0389543 0)
(9.60697 0.0343656 0)
(9.54655 0.0306607 0)
(9.48962 0.0277544 0)
(9.43586 0.0251919 0)
(9.38659 0.0239837 0)
(9.33843 0.0201752 0)
(9.30116 0.0274998 0)
(10.0071 0.0547928 0)
(10.0418 0.056517 0)
(10.0711 0.0373618 0)
(10.0869 0.0362281 0)
(10.094 0.0428166 0)
(10.0943 0.0478518 0)
(10.088 0.0501978 0)
(10.0755 0.0509162 0)
(10.0588 0.0507072 0)
(10.0386 0.0499533 0)
(10.0165 0.0489131 0)
(9.99264 0.0477506 0)
(9.96807 0.0465628 0)
(9.94309 0.0454284 0)
(9.9181 0.0442344 0)
(9.8937 0.0434168 0)
(9.86974 0.0419967 0)
(9.84707 0.0421427 0)
(10.0004 0.0162395 0)
(10.0185 0.0322351 0)
(10.0441 0.0415386 0)
(10.0627 0.0514756 0)
(10.0754 0.0581522 0)
(10.0852 0.0603779 0)
(10.0918 0.0601719 0)
(10.0953 0.0591612 0)
(10.0961 0.05789 0)
(10.095 0.056528 0)
(10.0922 0.055133 0)
(10.0883 0.0537858 0)
(10.0832 0.0524733 0)
(10.0775 0.0512551 0)
(10.0713 0.0500095 0)
(10.0648 0.0489817 0)
(10.0581 0.0476 0)
(10.0514 0.046496 0)
(10.0009 0.0116929 0)
(10.0141 0.035678 0)
(10.0337 0.0469331 0)
(10.0486 0.0521845 0)
(10.06 0.0551547 0)
(10.0705 0.0562481 0)
(10.0797 0.056214 0)
(10.0871 0.0557556 0)
(10.0929 0.0551139 0)
(10.0974 0.054357 0)
(10.1008 0.0535206 0)
(10.1034 0.0526669 0)
(10.1053 0.051801 0)
(10.1067 0.050958 0)
(10.1077 0.05007 0)
(10.1083 0.0492316 0)
(10.1088 0.0481653 0)
(10.1092 0.0470462 0)
(10.0012 0.0117831 0)
(10.0117 0.0334701 0)
(10.027 0.0427098 0)
(10.0397 0.0466072 0)
(10.05 0.0496976 0)
(10.0598 0.0517124 0)
(10.069 0.0525405 0)
(10.077 0.0526848 0)
(10.0838 0.0524902 0)
(10.0899 0.0520873 0)
(10.0952 0.0515425 0)
(10.1 0.0509179 0)
(10.1043 0.0502383 0)
(10.1081 0.0495239 0)
(10.1116 0.0487419 0)
(10.1149 0.0479143 0)
(10.1181 0.0469178 0)
(10.121 0.0457415 0)
(10.001 0.0104295 0)
(10.0092 0.0283474 0)
(10.0218 0.0373715 0)
(10.0332 0.0420122 0)
(10.0428 0.0456111 0)
(10.0518 0.0480059 0)
(10.0603 0.0491103 0)
(10.0681 0.0494473 0)
(10.075 0.0494158 0)
(10.0813 0.0491639 0)
(10.0871 0.0487546 0)
(10.0925 0.0482404 0)
(10.0976 0.0476498 0)
(10.1023 0.0469951 0)
(10.1068 0.0462587 0)
(10.111 0.0454348 0)
(10.1151 0.0444607 0)
(10.119 0.0432914 0)
(10.0008 0.00894696 0)
(10.0074 0.0245333 0)
(10.0182 0.0337254 0)
(10.0287 0.0387919 0)
(10.0377 0.0423649 0)
(10.0461 0.0447388 0)
(10.0542 0.0459441 0)
(10.0616 0.0464138 0)
(10.0683 0.0465037 0)
(10.0746 0.0463562 0)
(10.0804 0.0460323 0)
(10.0859 0.0455826 0)
(10.0911 0.0450379 0)
(10.096 0.0444102 0)
(10.1007 0.0436893 0)
(10.1052 0.0428631 0)
(10.1095 0.0418934 0)
(10.1137 0.040746 0)
(10.0006 0.00779173 0)
(10.0062 0.0216871 0)
(10.0155 0.0306393 0)
(10.0251 0.0357953 0)
(10.0336 0.0393115 0)
(10.0416 0.0417015 0)
(10.0492 0.043027 0)
(10.0564 0.0436239 0)
(10.0629 0.0438118 0)
(10.0691 0.0437394 0)
(10.0748 0.0434736 0)
(10.0803 0.0430649 0)
(10.0854 0.0425464 0)
(10.0903 0.041931 0)
(10.0951 0.041214 0)
(10.0996 0.0403841 0)
(10.1039 0.0394164 0)
(10.1082 0.038292 0)
(10.0005 0.00674398 0)
(10.0051 0.0189567 0)
(10.013 0.0273696 0)
(10.0216 0.0324925 0)
(10.0296 0.0359616 0)
(10.0371 0.0383597 0)
(10.0444 0.0397832 0)
(10.0512 0.0404906 0)
(10.0576 0.040764 0)
(10.0636 0.0407568 0)
(10.0692 0.0405413 0)
(10.0745 0.0401673 0)
(10.0796 0.0396687 0)
(10.0844 0.0390609 0)
(10.0891 0.0383445 0)
(10.0936 0.0375127 0)
(10.0978 0.03655 0)
(10.1019 0.0354535 0)
(10.0004 0.00575954 0)
(10.0042 0.0162928 0)
(10.0108 0.0239901 0)
(10.0184 0.0289699 0)
(10.0258 0.032355 0)
(10.0329 0.0347118 0)
(10.0397 0.0361847 0)
(10.0462 0.0369758 0)
(10.0523 0.0373219 0)
(10.0581 0.0373721 0)
(10.0636 0.0372024 0)
(10.0688 0.036861 0)
(10.0737 0.0363821 0)
(10.0785 0.0357841 0)
(10.083 0.0350729 0)
(10.0873 0.0342474 0)
(10.0915 0.0333003 0)
(10.0955 0.0322413 0)
(10.0004 0.00482698 0)
(10.0034 0.0137314 0)
(10.0089 0.0205759 0)
(10.0156 0.025262 0)
(10.0223 0.0284882 0)
(10.0288 0.0307458 0)
(10.0352 0.0322139 0)
(10.0414 0.0330542 0)
(10.0473 0.0334544 0)
(10.0528 0.0335508 0)
(10.0581 0.0334199 0)
(10.0632 0.0331093 0)
(10.068 0.0326525 0)
(10.0726 0.0320706 0)
(10.077 0.0313742 0)
(10.0812 0.0305681 0)
(10.0851 0.0296519 0)
(10.089 0.0286435 0)
(10.0003 0.00394892 0)
(10.0027 0.0112931 0)
(10.0073 0.0171715 0)
(10.0131 0.0214008 0)
(10.0191 0.0243728 0)
(10.0251 0.0264675 0)
(10.0311 0.027869 0)
(10.0369 0.0287102 0)
(10.0424 0.0291346 0)
(10.0478 0.0292587 0)
(10.0529 0.0291556 0)
(10.0577 0.0288716 0)
(10.0624 0.0284392 0)
(10.0668 0.0278809 0)
(10.0711 0.0272109 0)
(10.0751 0.0264391 0)
(10.0789 0.0255702 0)
(10.0826 0.0246273 0)
(10.0002 0.00312288 0)
(10.0022 0.00897259 0)
(10.006 0.0138023 0)
(10.0109 0.0174241 0)
(10.0163 0.0200316 0)
(10.0218 0.0218864 0)
(10.0273 0.0231498 0)
(10.0327 0.0239315 0)
(10.038 0.0243386 0)
(10.0431 0.0244639 0)
(10.048 0.0243726 0)
(10.0526 0.0241077 0)
(10.0571 0.0236997 0)
(10.0614 0.0231714 0)
(10.0655 0.0225389 0)
(10.0693 0.0218154 0)
(10.073 0.0210086 0)
(10.0765 0.0201441 0)
(10.0002 0.00233996 0)
(10.0018 0.00674846 0)
(10.005 0.0104721 0)
(10.0092 0.0133563 0)
(10.014 0.0154809 0)
(10.019 0.0170057 0)
(10.024 0.0180524 0)
(10.0291 0.0187066 0)
(10.034 0.0190455 0)
(10.0389 0.0191379 0)
(10.0435 0.0190367 0)
(10.048 0.018779 0)
(10.0523 0.018392 0)
(10.0564 0.0178968 0)
(10.0603 0.0173098 0)
(10.064 0.0166449 0)
(10.0675 0.0159116 0)
(10.0709 0.015135 0)
(10.0002 0.001585 0)
(10.0015 0.00458237 0)
(10.0042 0.00715221 0)
(10.0079 0.00918699 0)
(10.0122 0.0107103 0)
(10.0167 0.0118066 0)
(10.0214 0.012553 0)
(10.0261 0.0130078 0)
(10.0307 0.0132218 0)
(10.0353 0.0132412 0)
(10.0397 0.0131035 0)
(10.044 0.0128372 0)
(10.0481 0.012464 0)
(10.052 0.0120014 0)
(10.0558 0.0114639 0)
(10.0593 0.0108643 0)
(10.0627 0.0102115 0)
(10.0659 0.00952852 0)
(10.0001 0.000833789 0)
(10.0014 0.00241217 0)
(10.0037 0.00377365 0)
(10.007 0.00485952 0)
(10.0109 0.00567044 0)
(10.0151 0.0062392 0)
(10.0194 0.00660073 0)
(10.0238 0.00678401 0)
(10.0283 0.00681506 0)
(10.0326 0.00671806 0)
(10.0368 0.00651396 0)
(10.0409 0.00621975 0)
(10.0448 0.00584944 0)
(10.0486 0.00541486 0)
(10.0522 0.00492648 0)
(10.0556 0.00439398 0)
(10.0589 0.00382409 0)
(10.0619 0.0032358 0)
(10.0001 9.55286e-05 0)
(10.0013 0.000273855 0)
(10.0035 0.000421175 0)
(10.0066 0.000525239 0)
(10.0103 0.000578475 0)
(10.0143 0.000574871 0)
(10.0185 0.000510735 0)
(10.0228 0.000386153 0)
(10.027 0.000203769 0)
(10.0312 -3.29527e-05 0)
(10.0353 -0.000320308 0)
(10.0393 -0.000653994 0)
(10.0431 -0.00102936 0)
(10.0467 -0.0014413 0)
(10.0502 -0.00188485 0)
(10.0535 -0.00235439 0)
(10.0566 -0.00284651 0)
(10.0596 -0.00334662 0)
(10.0001 -0.000594242 0)
(10.0013 -0.00172557 0)
(10.0036 -0.00271566 0)
(10.0068 -0.00352875 0)
(10.0105 -0.00417839 0)
(10.0145 -0.00470969 0)
(10.0187 -0.00516481 0)
(10.0229 -0.0055708 0)
(10.0272 -0.00594658 0)
(10.0313 -0.00630828 0)
(10.0353 -0.00666833 0)
(10.0392 -0.00703453 0)
(10.043 -0.00741104 0)
(10.0465 -0.00779975 0)
(10.0499 -0.00820099 0)
(10.0532 -0.00861349 0)
(10.0563 -0.0090368 0)
(10.0592 -0.00946054 0)
(10.0002 -0.00124635 0)
(10.0014 -0.0036145 0)
(10.0039 -0.00566098 0)
(10.0073 -0.0072929 0)
(10.0113 -0.00854459 0)
(10.0155 -0.0095172 0)
(10.0198 -0.0102919 0)
(10.0241 -0.0109182 0)
(10.0284 -0.0114367 0)
(10.0325 -0.0118845 0)
(10.0366 -0.0122898 0)
(10.0404 -0.0126701 0)
(10.0442 -0.0130366 0)
(10.0477 -0.0133968 0)
(10.0511 -0.0137552 0)
(10.0543 -0.0141143 0)
(10.0574 -0.0144757 0)
(10.0603 -0.0148325 0)
(10.0002 -0.00189637 0)
(10.0016 -0.00550259 0)
(10.0045 -0.00857281 0)
(10.0083 -0.0109288 0)
(10.0126 -0.0126701 0)
(10.0171 -0.0139955 0)
(10.0216 -0.0150227 0)
(10.026 -0.0158108 0)
(10.0304 -0.0164202 0)
(10.0347 -0.0169117 0)
(10.0388 -0.0173294 0)
(10.0427 -0.0176998 0)
(10.0464 -0.0180403 0)
(10.05 -0.0183628 0)
(10.0533 -0.0186756 0)
(10.0565 -0.0189827 0)
(10.0596 -0.0192878 0)
(10.0625 -0.0195858 0)
(10.0002 -0.00256258 0)
(10.0019 -0.00746291 0)
(10.0053 -0.0115638 0)
(10.0097 -0.0145515 0)
(10.0145 -0.0166608 0)
(10.0193 -0.0182352 0)
(10.024 -0.0194298 0)
(10.0287 -0.0203141 0)
(10.0333 -0.0209703 0)
(10.0376 -0.0214769 0)
(10.0418 -0.0218854 0)
(10.0457 -0.0222279 0)
(10.0495 -0.0225276 0)
(10.053 -0.0228016 0)
(10.0564 -0.023061 0)
(10.0596 -0.0233119 0)
(10.0627 -0.0235586 0)
(10.0655 -0.0237979 0)
(10.0002 -0.0032597 0)
(10.0022 -0.00955758 0)
(10.0063 -0.0146509 0)
(10.0115 -0.0181633 0)
(10.0169 -0.0205932 0)
(10.022 -0.0223702 0)
(10.027 -0.0236348 0)
(10.032 -0.0245058 0)
(10.0367 -0.0251295 0)
(10.0412 -0.025606 0)
(10.0454 -0.0259832 0)
(10.0494 -0.0262894 0)
(10.0532 -0.0265487 0)
(10.0568 -0.0267798 0)
(10.0602 -0.0269944 0)
(10.0635 -0.0271992 0)
(10.0665 -0.0273984 0)
(10.0694 -0.02759 0)
(10.0002 -0.00399119 0)
(10.0027 -0.012044 0)
(10.0077 -0.0178928 0)
(10.0138 -0.0215297 0)
(10.0197 -0.0242039 0)
(10.0253 -0.0262827 0)
(10.0307 -0.0276797 0)
(10.0359 -0.0285275 0)
(10.0408 -0.029069 0)
(10.0454 -0.0294523 0)
(10.0497 -0.0297366 0)
(10.0538 -0.0299548 0)
(10.0577 -0.0301345 0)
(10.0613 -0.0302947 0)
(10.0648 -0.030446 0)
(10.068 -0.0305931 0)
(10.0711 -0.0307386 0)
(10.0739 -0.0308781 0)
(10.0002 -0.00443909 0)
(10.0032 -0.0153668 0)
(10.0096 -0.0221561 0)
(10.0166 -0.0252575 0)
(10.0228 -0.0275175 0)
(10.0288 -0.0295526 0)
(10.0348 -0.0310421 0)
(10.0404 -0.0319988 0)
(10.0456 -0.0326249 0)
(10.0505 -0.0330479 0)
(10.0549 -0.0333283 0)
(10.0592 -0.0335126 0)
(10.0631 -0.0336406 0)
(10.0667 -0.0337388 0)
(10.0701 -0.0338226 0)
(10.0733 -0.0339001 0)
(10.0763 -0.0339751 0)
(10.079 -0.0340447 0)
(9.9996 -0.00347507 0)
(10.0028 -0.0174165 0)
(10.0116 -0.0268839 0)
(10.0203 -0.0309961 0)
(10.0271 -0.0329261 0)
(10.0337 -0.0339902 0)
(10.0403 -0.0345657 0)
(10.0465 -0.0349415 0)
(10.0521 -0.0352545 0)
(10.0571 -0.0355043 0)
(10.0617 -0.0356788 0)
(10.0658 -0.0357923 0)
(10.0695 -0.0358659 0)
(10.0727 -0.0359152 0)
(10.0756 -0.0359514 0)
(10.0782 -0.0359819 0)
(10.0806 -0.0360082 0)
(10.0826 -0.0360257 0)
(9.99776 -0.00353764 0)
(10.0004 -0.0132353 0)
(10.0132 -0.0228333 0)
(10.0259 -0.0321006 0)
(10.0356 -0.0387017 0)
(10.0438 -0.0417823 0)
(10.051 -0.0425857 0)
(10.0571 -0.0424722 0)
(10.062 -0.0420691 0)
(10.066 -0.0415498 0)
(10.0692 -0.0409863 0)
(10.0716 -0.0404285 0)
(10.0734 -0.039907 0)
(10.0746 -0.0394301 0)
(10.0753 -0.039004 0)
(10.0756 -0.0386294 0)
(10.0755 -0.0382989 0)
(10.0751 -0.037982 0)
(9.99864 -0.0259265 0)
(10.0089 -0.0235127 0)
(10.0255 -0.00888329 0)
(10.0404 -0.00766661 0)
(10.0522 -0.0145166 0)
(10.0611 -0.0214694 0)
(10.0668 -0.0264475 0)
(10.0693 -0.0298834 0)
(10.0692 -0.0322284 0)
(10.0673 -0.0337336 0)
(10.064 -0.0346209 0)
(10.0595 -0.0350901 0)
(10.0542 -0.035288 0)
(10.0481 -0.0353145 0)
(10.0416 -0.0352422 0)
(10.0346 -0.0351266 0)
(10.0275 -0.0350214 0)
(10.0203 -0.0348783 0)
(10.0258 -0.127055 0)
(10.0766 -0.209763 0)
(10.0932 -0.18919 0)
(10.088 -0.149803 0)
(10.0777 -0.11809 0)
(10.0646 -0.094731 0)
(10.0477 -0.0776203 0)
(10.0269 -0.0652747 0)
(10.0037 -0.0563358 0)
(9.97896 -0.0496691 0)
(9.95357 -0.0445496 0)
(9.92795 -0.0405173 0)
(9.90253 -0.0372781 0)
(9.87752 -0.0346252 0)
(9.85316 -0.0324313 0)
(9.82952 -0.0306245 0)
(9.80685 -0.029188 0)
(9.78516 -0.0283979 0)
(9.93223 0.432599 0)
(9.83862 0.395344 0)
(9.72774 0.256249 0)
(9.60004 0.152632 0)
(9.47515 0.0875644 0)
(9.36256 0.0485817 0)
(9.26227 0.0255613 0)
(9.17289 0.0118504 0)
(9.09344 0.0035232 0)
(9.02293 -0.00160925 0)
(8.96002 -0.00481263 0)
(8.90368 -0.00683395 0)
(8.85286 -0.0081302 0)
(8.80689 -0.00897141 0)
(8.765 -0.00952136 0)
(8.72669 -0.00996034 0)
(8.69118 -0.0102939 0)
(8.65815 -0.010981 0)
(0.00413238 -0.00956818 0)
(0.015162 -0.0164143 0)
(0.0254416 -0.0152377 0)
(0.032656 -0.0102003 0)
(0.0357999 -0.00385303 0)
(0.0344518 0.0022435 0)
(0.0294046 0.00720205 -3.98837e-19)
(0.0214787 0.0107868 3.77325e-19)
(0.0113325 0.013169 0)
(-0.000491036 0.0146756 3.2383e-19)
(-0.0136557 0.0156439 0)
(-0.0279317 0.0163648 0)
(-0.0432234 0.0169992 0)
(-0.0594514 0.0176371 -1.79088e-19)
(-0.0765998 0.0182916 0)
(-0.0946202 0.0189807 0)
(-0.113504 0.0196834 1.28649e-19)
(-0.133214 0.0204115 0)
(-0.153739 0.0211444 0)
(-0.175045 0.0218882 0)
(-0.197121 0.0226168 -9.38541e-20)
(-0.219928 0.0233311 0)
(-0.243425 0.0240002 -8.35777e-20)
(-0.267584 0.0245974 0)
(-0.292349 0.0250861 0)
(-0.317691 0.025426 -7.34422e-20)
(-0.343533 0.0255828 0)
(-0.36989 0.0255393 6.92583e-20)
(-0.39674 0.0253597 0)
(-0.424241 0.0252655 -6.65817e-20)
(-0.452535 0.0255356 0)
(-0.481797 0.0264374 0)
(-0.512214 0.0279703 0)
(-0.543261 0.0244326 0)
(-0.574487 0.0153919 0)
(-0.603572 0.016512 5.78676e-20)
(-0.634248 0.028009 0)
(-0.669266 0.0386876 -1.07303e-19)
(-0.706728 0.0516056 0)
(-0.747524 0.0685518 1.01433e-19)
(-0.791431 0.0922496 0)
(-0.838243 0.0684339 0)
(-0.882038 0.023016 -1.32123e-19)
(-0.91527 0.0262875 0)
(-0.952417 0.0330211 -1.23395e-19)
(-0.992578 0.0355804 1.19599e-19)
(-1.03377 0.0348782 0)
(-1.07451 0.0349455 1.12631e-19)
(-1.11558 0.0348967 1.09472e-19)
(-1.15669 0.0347462 0)
(-1.19776 0.0344915 0)
(-1.23874 0.0341844 0)
(-1.27958 0.0338397 0)
(-1.32024 0.0334737 0)
(-1.36072 0.033092 -9.41586e-20)
(-1.40098 0.0326996 0)
(-1.44102 0.0322986 9.01465e-20)
(-1.48082 0.0318894 0)
(-1.52036 0.0314726 0)
(-1.55962 0.031047 -8.48662e-20)
(-1.5986 0.0306121 0)
(-1.63726 0.0301662 8.17484e-20)
(-1.6756 0.0297085 0)
(-1.71357 0.0292371 0)
(-1.75117 0.0287513 0)
(-1.78836 0.0282493 -7.62641e-20)
(-1.82512 0.0277305 0)
(-1.86141 0.0271934 0)
(-1.8972 0.0266376 -7.26644e-20)
(-1.93245 0.0260619 0)
(-1.96714 0.0254662 -7.04535e-20)
(-2.00123 0.0248496 0)
(-2.03468 0.0242123 0)
(-2.06744 0.0235537 0)
(-2.09949 0.0228742 6.63779e-20)
(-2.13078 0.0221735 0)
(-2.16128 0.0214523 0)
(-2.19094 0.0207104 6.35442e-20)
(-2.21971 0.0199487 6.26302e-20)
(-2.24758 0.0191672 0)
(-2.27448 0.0183667 6.08355e-20)
(-2.30038 0.0175475 0)
(-2.32525 0.0167102 1.18146e-19)
(-2.34904 0.0158551 0)
(-2.37171 0.0149824 1.14656e-19)
(-2.39323 0.014092 0)
(-2.41356 0.0131836 -1.11176e-19)
(-2.43265 0.0122557 0)
(-2.45047 0.0113065 0)
(-2.46698 0.0103325 0)
(-2.48213 0.00932873 1.04144e-19)
(-2.49587 0.00828858 0)
(-2.50816 0.00720419 -1.00552e-19)
(-2.51894 0.00606703 0)
(-2.52812 0.00487057 9.6888e-20)
(-2.53565 0.00361931 9.50272e-20)
(-2.54144 0.00235063 9.31478e-20)
(-2.54538 0.00115181 0)
(-2.54737 0.000111581 0)
(-2.54782 -0.00079774 0)
(-2.54678 -0.00165995 0)
(-2.54428 -0.00250611 0)
(-2.54031 -0.00334494 0)
(-2.53488 -0.00417882 0)
(-2.52797 -0.00500801 0)
(-2.51958 -0.00583219 -7.42159e-20)
(-2.50969 -0.00665066 -7.18441e-20)
(-2.49832 -0.00746283 0)
(-2.48544 -0.00826788 0)
(-2.47107 -0.00906521 0)
(-2.45521 -0.00985402 -6.17112e-20)
(-2.43785 -0.0106337 0)
(-2.419 -0.0114036 0)
(-2.39866 -0.012163 0)
(-2.37686 -0.0129113 0)
(-2.35358 -0.013648 4.73983e-20)
(-2.32885 -0.0143723 0)
(-2.30268 -0.0150838 0)
(-2.27509 -0.0157819 -3.77977e-20)
(-2.24609 -0.0164661 3.441e-20)
(-2.21569 -0.0171358 0)
(-2.18393 -0.0177906 2.73324e-20)
(-2.15082 -0.0184298 0)
(-2.11639 -0.0190532 -1.98264e-20)
(-2.08066 -0.0196603 0)
(-2.04366 -0.0202511 0)
(-2.00542 -0.0208253 0)
(-1.96597 -0.0213832 0)
(-1.92535 -0.0219248 0)
(-1.88357 -0.0224497 -1.12358e-20)
(-1.84067 -0.0229576 -2.06809e-20)
(-1.79669 -0.0234477 0)
(-1.75167 -0.0239195 0)
(-1.70564 -0.024377 0)
(-1.65865 -0.0248195 6.16909e-20)
(-1.61071 -0.0252445 0)
(-1.56188 -0.0256511 0)
(-1.5122 -0.0260409 0)
(-1.4617 -0.0264141 1.08674e-19)
(-1.41043 -0.0267713 -1.21507e-19)
(-1.35844 -0.0271128 0)
(-1.30575 -0.0274391 0)
(-1.25242 -0.0277504 -1.63026e-19)
(-1.19849 -0.0280476 -1.77976e-19)
(-1.144 -0.028331 0)
(-1.08898 -0.0286017 0)
(-1.03348 -0.0288601 2.26676e-19)
(-0.977547 -0.0291074 -2.4434e-19)
(-0.921211 -0.0293442 0)
(-0.864514 -0.0295718 0)
(-0.807494 -0.0297912 -3.02377e-19)
(-0.750187 -0.0300036 0)
(-0.692628 -0.0302102 0)
(-0.63485 -0.0304123 -3.69437e-19)
(-0.576885 -0.0306116 0)
(-0.518763 -0.0308094 -4.20334e-19)
(-0.460513 -0.0310074 0)
(-0.40216 -0.031207 0)
(-0.34373 -0.0314089 0)
(-0.285247 -0.0316139 5.41491e-19)
(-0.226737 -0.0318245 0)
(-0.16822 -0.0320568 0)
(-0.109723 -0.0323155 0)
(-0.0512903 -0.032545 0)
(0.0070363 -0.0324159 0)
(0.0651849 -0.0317392 0)
(0.123231 -0.0308736 7.00338e-19)
(0.181154 -0.0300453 6.83959e-19)
(0.238946 -0.0292734 0)
(0.296624 -0.0285471 0)
(0.354196 -0.0278536 0)
(0.411648 -0.0271782 -6.28791e-19)
(0.468932 -0.0265004 0)
(0.525936 -0.0257893 1.21199e-18)
(0.582483 -0.0249876 -1.19142e-18)
(0.638006 -0.0239869 -1.17265e-18)
(0.69223 -0.0225269 1.1565e-18)
(0.740599 -0.0199859 -1.1448e-18)
(0.788598 -0.0149971 1.14366e-18)
(0.786788 0.00154031 0)
(0.00464845 -0.0306883 0)
(0.0111545 -0.0333558 0)
(0.0121152 -0.0225621 4.87096e-19)
(0.0101676 -0.010187 0)
(0.00582006 0.00187095 -3.27418e-19)
(-0.000592728 0.0127291 -2.98134e-19)
(-0.00903161 0.0218813 -1.37579e-19)
(-0.0194373 0.0292084 -1.27663e-19)
(-0.0317168 0.0349018 0)
(-0.0457064 0.0393121 -1.09755e-19)
(-0.0612112 0.042821 0)
(-0.0780439 0.0457516 0)
(-0.0960788 0.0483251 1.73786e-19)
(-0.115215 0.0506757 8.07363e-20)
(-0.135397 0.0528677 -1.50346e-19)
(-0.156575 0.0549371 -1.40605e-19)
(-0.178724 0.0568894 -6.60758e-20)
(-0.201821 0.0587355 0)
(-0.225864 0.0604688 0)
(-0.250846 0.0620965 0)
(-0.276777 0.0636088 -5.33925e-20)
(-0.303661 0.0650168 0)
(-0.331522 0.0663078 1.4798e-19)
(-0.360394 0.0674941 0)
(-0.390318 0.0685718 0)
(-0.421369 0.0695734 4.52017e-20)
(-0.453601 0.0705311 0)
(-0.487111 0.071535 -4.36133e-20)
(-0.521986 0.0726614 -8.62797e-20)
(-0.558293 0.0739765 4.29867e-20)
(-0.595948 0.0755726 0)
(-0.634778 0.0774274 0)
(-0.674188 0.0793681 0)
(-0.714596 0.0809553 -8.55428e-20)
(-0.756459 0.0825181 -8.37011e-20)
(-0.800613 0.0838623 -4.13047e-20)
(-0.844627 0.0853105 0)
(-0.886922 0.0866968 7.6384e-20)
(-0.928799 0.0873861 0)
(-0.96941 0.0877084 -7.22024e-20)
(-1.00646 0.0881048 0)
(-1.04438 0.0882395 0)
(-1.08519 0.0881696 6.98441e-20)
(-1.12846 0.0892376 0)
(-1.16935 0.0899202 1.98253e-19)
(-1.20852 0.0901619 -6.46308e-20)
(-1.24679 0.0897714 0)
(-1.28458 0.089064 -6.18497e-20)
(-1.32192 0.088207 -6.05647e-20)
(-1.35884 0.087236 0)
(-1.3954 0.086184 0)
(-1.43161 0.0850758 0)
(-1.46749 0.0839301 0)
(-1.50305 0.0827588 0)
(-1.53828 0.0815693 5.40787e-20)
(-1.57319 0.080365 1.06049e-19)
(-1.60776 0.0791475 -5.22831e-20)
(-1.64198 0.077916 0)
(-1.67585 0.0766694 1.00979e-19)
(-1.70935 0.0754049 -4.95718e-20)
(-1.74247 0.0741204 0)
(-1.77519 0.0728128 -4.83509e-20)
(-1.80748 0.0714795 0)
(-1.83933 0.0701175 0)
(-1.87071 0.0687247 -9.23073e-20)
(-1.9016 0.0672985 4.56272e-20)
(-1.93198 0.065837 -8.97341e-20)
(-1.96181 0.0643385 8.84922e-20)
(-1.99108 0.0628016 4.37556e-20)
(-2.01974 0.0612252 0)
(-2.04778 0.0596087 4.25679e-20)
(-2.07516 0.0579514 0)
(-2.10184 0.0562534 0)
(-2.12781 0.0545146 0)
(-2.15303 0.0527358 4.00959e-20)
(-2.17746 0.0509172 0)
(-2.20108 0.0490601 7.81926e-20)
(-2.22385 0.0471653 -1.15743e-19)
(-2.24574 0.0452343 -3.8092e-20)
(-2.26673 0.0432683 0)
(-2.28676 0.041269 -3.70009e-20)
(-2.30583 0.039238 0)
(-2.32389 0.0371769 -7.18127e-20)
(-2.34091 0.0350875 0)
(-2.35687 0.0329715 -6.9604e-20)
(-2.37174 0.0308303 1.36785e-19)
(-2.38548 0.0286656 6.73632e-20)
(-2.39808 0.0264783 0)
(-2.40949 0.0242696 0)
(-2.4197 0.0220395 0)
(-2.42869 0.0197874 -6.27408e-20)
(-2.43644 0.0175123 0)
(-2.44292 0.0152122 6.03396e-20)
(-2.44815 0.0128847 0)
(-2.45213 0.0105256 -1.73631e-19)
(-2.45489 0.00813208 -5.66065e-20)
(-2.45649 0.00571921 -5.5328e-20)
(-2.45701 0.00334693 0)
(-2.45659 0.00110159 0)
(-2.4549 -0.00101831 0)
(-2.45185 -0.00307678 0)
(-2.44738 -0.00510142 0)
(-2.44149 -0.0071016 -9.42794e-20)
(-2.43415 -0.00907994 -9.13652e-20)
(-2.42536 -0.011036 0)
(-2.4151 -0.0129685 4.25417e-20)
(-2.40338 -0.0148754 4.09917e-20)
(-2.39018 -0.0167549 0)
(-2.37551 -0.018605 7.59958e-20)
(-2.35937 -0.0204237 0)
(-2.34175 -0.0222092 -3.49449e-20)
(-2.32266 -0.0239595 0)
(-2.30209 -0.025673 0)
(-2.28007 -0.027348 5.92137e-20)
(-2.25659 -0.0289827 0)
(-2.23167 -0.0305757 -2.57618e-20)
(-2.20531 -0.0321253 0)
(-2.17753 -0.0336304 0)
(-2.14835 -0.0350893 -2.07909e-20)
(-2.11778 -0.036501 -1.82219e-20)
(-2.08584 -0.037864 0)
(-2.05254 -0.0391773 1.49804e-20)
(-2.01792 -0.0404396 0)
(-1.98199 -0.0416501 -1.09527e-20)
(-1.94479 -0.0428077 -1.70074e-20)
(-1.90633 -0.0439118 0)
(-1.86664 -0.044962 0)
(-1.82577 -0.0459586 0)
(-1.78373 -0.0469019 0)
(-1.74055 -0.0477928 5.49136e-21)
(-1.69628 -0.0486315 2.82473e-20)
(-1.65094 -0.0494172 0)
(-1.60457 -0.0501446 0)
(-1.55721 -0.050815 0)
(-1.50889 -0.051437 -2.86894e-20)
(-1.45966 -0.0520103 0)
(-1.40954 -0.0525295 0)
(-1.35858 -0.0529946 8.45784e-20)
(-1.30682 -0.0534076 4.62398e-20)
(-1.2543 -0.0537701 5.33136e-20)
(-1.20106 -0.0540831 0)
(-1.14715 -0.0543477 0)
(-1.0926 -0.054565 6.87533e-20)
(-1.03746 -0.0547366 -7.18686e-20)
(-0.981772 -0.0548638 0)
(-0.925569 -0.0549484 0)
(-0.868897 -0.0549919 -9.00897e-20)
(-0.811793 -0.0549964 2.8447e-19)
(-0.754299 -0.0549637 0)
(-0.696452 -0.054896 0)
(-0.638289 -0.0547955 1.12256e-19)
(-0.579847 -0.0546644 0)
(-0.52116 -0.054505 2.45054e-19)
(-0.462261 -0.0543197 -1.27176e-19)
(-0.40318 -0.0541112 0)
(-0.343948 -0.0538819 1.41087e-19)
(-0.284592 -0.0536342 2.91762e-19)
(-0.225138 -0.0533703 0)
(-0.16561 -0.0530916 0)
(-0.106031 -0.0527985 -1.65013e-19)
(-0.0464229 -0.0524917 0)
(0.0131936 -0.0521685 3.49156e-19)
(0.0728064 -0.0518272 0)
(0.132427 -0.0514615 0)
(0.192054 -0.0509805 0)
(0.251616 -0.0503172 0)
(0.311092 -0.0495755 -1.84631e-19)
(0.370495 -0.0488491 -1.86273e-19)
(0.429841 -0.0481555 0)
(0.489129 -0.0474875 0)
(0.548356 -0.0468299 0)
(0.607498 -0.046161 1.91875e-19)
(0.666499 -0.0454468 0)
(0.725247 -0.0446308 -3.88299e-19)
(0.783557 -0.0436054 3.90411e-19)
(0.84096 -0.042169 3.92527e-19)
(0.897082 -0.0398221 3.91925e-19)
(0.949142 -0.0356345 3.97871e-19)
(1.00018 -0.0265523 4.00619e-19)
(1.0287 -0.00428254 0)
(0.000830368 -0.0404711 0)
(-0.000477563 -0.0304494 0)
(-0.00580045 -0.0130643 -3.32817e-19)
(-0.013047 0.00333141 -2.40745e-19)
(-0.0218128 0.0183208 1.982e-19)
(-0.031788 0.0317913 1.74701e-19)
(-0.0429259 0.0436329 4.85518e-23)
(-0.0552961 0.0537937 0)
(-0.0689818 0.0623592 0)
(-0.0840182 0.0695425 0)
(-0.100391 0.0756264 0)
(-0.11804 0.0808897 0)
(-0.136899 0.0855666 -3.38098e-19)
(-0.156897 0.0898289 0)
(-0.177981 0.0937924 1.01708e-19)
(-0.200107 0.0975304 9.68663e-20)
(-0.223249 0.101088 0)
(-0.247388 0.104494 0)
(-0.272521 0.107768 0)
(-0.298645 0.110929 0)
(-0.325771 0.113993 7.86124e-20)
(-0.35391 0.116983 0)
(-0.383082 0.119921 -7.3672e-20)
(-0.413316 0.12284 0)
(-0.444637 0.12577 0)
(-0.477084 0.128759 0)
(-0.510664 0.131843 -1.34465e-19)
(-0.545389 0.135065 0)
(-0.581186 0.138446 6.53946e-20)
(-0.617907 0.14194 -1.29177e-19)
(-0.655324 0.145426 0)
(-0.693124 0.14865 0)
(-0.731022 0.1513 0)
(-0.769049 0.152917 5.99611e-20)
(-0.807283 0.153702 5.824e-20)
(-0.845785 0.154741 0)
(-0.883748 0.155657 0)
(-0.92069 0.15653 -1.06731e-19)
(-0.956599 0.157303 -1.04019e-19)
(-0.991214 0.157755 1.01685e-19)
(-1.02443 0.157289 0)
(-1.05742 0.154357 0)
(-1.09153 0.149976 0)
(-1.12648 0.147149 0)
(-1.16102 0.145263 -9.09998e-20)
(-1.19479 0.143391 -8.89369e-20)
(-1.22801 0.141439 8.70977e-20)
(-1.26092 0.139505 0)
(-1.29356 0.137577 0)
(-1.32594 0.135641 0)
(-1.35808 0.133693 0)
(-1.39 0.131732 -7.9126e-20)
(-1.4217 0.129761 0)
(-1.45319 0.127781 0)
(-1.48445 0.125791 -7.51212e-20)
(-1.51549 0.12379 -7.40407e-20)
(-1.54629 0.121774 0)
(-1.57685 0.11974 1.43101e-19)
(-1.60715 0.117683 -7.05947e-20)
(-1.63717 0.115599 6.95188e-20)
(-1.66689 0.113484 0)
(-1.69631 0.111332 0)
(-1.72538 0.10914 0)
(-1.75411 0.106903 0)
(-1.78245 0.104618 6.45656e-20)
(-1.81039 0.102281 1.26994e-19)
(-1.83789 0.0998903 6.27418e-20)
(-1.86494 0.0974433 -6.18559e-20)
(-1.89151 0.0949381 0)
(-1.91755 0.0923736 1.19982e-19)
(-1.94306 0.0897489 1.18298e-19)
(-1.96799 0.0870636 1.16634e-19)
(-1.99231 0.0843179 -1.14989e-19)
(-2.01599 0.0815123 0)
(-2.03901 0.0786476 -1.67731e-19)
(-2.06132 0.075725 0)
(-2.0829 0.0727463 5.4162e-20)
(-2.10372 0.0697132 5.35741e-20)
(-2.12373 0.0666278 0)
(-2.14292 0.0634926 0)
(-2.16124 0.0603101 1.02174e-19)
(-2.17867 0.0570829 0)
(-2.19517 0.053814 9.89804e-20)
(-2.21071 0.0505063 0)
(-2.22527 0.0471627 -9.5757e-20)
(-2.23881 0.0437863 -1.88365e-19)
(-2.25131 0.0403801 0)
(-2.26274 0.0369472 0)
(-2.27308 0.0334906 0)
(-2.28229 0.0300136 -8.74764e-20)
(-2.29037 0.0265197 0)
(-2.2973 0.0230133 -8.40438e-20)
(-2.30306 0.0195005 0)
(-2.30765 0.0159902 0)
(-2.31106 0.0124947 1.57453e-19)
(-2.3133 0.00903173 0)
(-2.31437 0.00562314 7.50884e-20)
(-2.31423 0.00228159 0)
(-2.31285 -0.00101406 7.12425e-20)
(-2.31016 -0.00428722 0)
(-2.30612 -0.00753573 0)
(-2.30071 -0.0107545 0)
(-2.29392 -0.013941 1.89567e-19)
(-2.28573 -0.0170929 6.09976e-20)
(-2.27613 -0.020207 0)
(-2.26512 -0.0232804 0)
(-2.25268 -0.0263098 0)
(-2.23881 -0.0292917 0)
(-2.22351 -0.032223 -5.01432e-20)
(-2.20678 -0.0351005 9.63236e-20)
(-2.18862 -0.0379212 4.55989e-20)
(-2.16902 -0.040682 -8.71847e-20)
(-2.148 -0.04338 -8.25285e-20)
(-2.12556 -0.0460125 -3.85669e-20)
(-2.10171 -0.0485768 0)
(-2.07645 -0.0510705 -6.82191e-20)
(-2.0498 -0.053491 0)
(-2.02177 -0.0558362 5.84024e-20)
(-1.99237 -0.0581039 2.62903e-20)
(-1.96162 -0.0602919 0)
(-1.92954 -0.0623984 -4.32803e-20)
(-1.89614 -0.0644215 -1.86107e-20)
(-1.86145 -0.0663594 0)
(-1.82549 -0.0682106 -1.43403e-20)
(-1.78828 -0.0699734 3.31452e-20)
(-1.74986 -0.0716469 0)
(-1.71024 -0.0732302 0)
(-1.66946 -0.0747233 0)
(-1.62755 -0.0761269 0)
(-1.58453 -0.0774422 -4.60477e-21)
(-1.54044 -0.0786693 -1.12517e-20)
(-1.49532 -0.0798071 0)
(-1.44919 -0.080852 0)
(-1.4021 -0.081804 0)
(-1.35407 -0.0826713 0)
(-1.30515 -0.083454 0)
(-1.25537 -0.0841483 0)
(-1.20477 -0.0847537 -5.07954e-20)
(-1.15339 -0.0852725 -1.25791e-21)
(-1.10127 -0.0857067 0)
(-1.04845 -0.0860581 0)
(-0.994976 -0.0863287 -7.25253e-20)
(-0.940881 -0.0865203 0)
(-0.886208 -0.0866353 8.53859e-20)
(-0.830998 -0.0866759 8.98635e-20)
(-0.775289 -0.0866448 0)
(-0.719122 -0.0865446 0)
(-0.662536 -0.0863783 -1.08559e-19)
(-0.605568 -0.086149 -2.26023e-19)
(-0.548256 -0.0858599 0)
(-0.490636 -0.0855143 0)
(-0.432744 -0.0851158 0)
(-0.374611 -0.0846678 -1.3741e-19)
(-0.316271 -0.0841741 1.43143e-19)
(-0.257754 -0.0836383 0)
(-0.199087 -0.0830643 3.06434e-19)
(-0.140298 -0.082455 1.57555e-19)
(-0.0814113 -0.0818138 -3.29099e-19)
(-0.0224484 -0.0811442 0)
(0.0365701 -0.0804497 0)
(0.0956264 -0.0797322 -3.55145e-19)
(0.154705 -0.0789893 -1.81934e-19)
(0.213791 -0.0782217 0)
(0.272882 -0.0774341 0)
(0.331987 -0.0766253 0)
(0.391104 -0.075794 0)
(0.450221 -0.0749537 -3.89818e-19)
(0.509332 -0.0741275 0)
(0.56843 -0.0733227 0)
(0.627506 -0.0725308 0)
(0.686544 -0.0717328 0)
(0.745516 -0.0708987 0)
(0.804366 -0.0699792 0)
(0.862987 -0.0688904 -4.23765e-19)
(0.921209 -0.0674788 0)
(0.978649 -0.0654565 0)
(1.03503 -0.0622159 -8.74612e-19)
(1.0885 -0.056584 4.41191e-19)
(1.14199 -0.0457813 -4.49883e-19)
(1.1833 -0.0227995 4.58873e-19)
(-0.00383792 -0.0346762 0)
(-0.0108417 -0.0152928 9.38856e-19)
(-0.020141 0.00560304 0)
(-0.0309558 0.0242137 1.83056e-19)
(-0.0428026 0.0410196 0)
(-0.0553548 0.0562243 0)
(-0.0686278 0.069876 -1.20779e-19)
(-0.0827331 0.0819902 0)
(-0.0977863 0.0926366 0)
(-0.113871 0.101958 0)
(-0.131041 0.110157 0)
(-0.149306 0.117448 0)
(-0.168656 0.124038 3.51198e-19)
(-0.189059 0.130095 1.67969e-19)
(-0.210487 0.135746 -1.60906e-19)
(-0.232909 0.141086 0)
(-0.256303 0.146177 0)
(-0.280648 0.151068 0)
(-0.305931 0.155789 0)
(-0.33214 0.16037 0)
(-0.359263 0.164833 1.28734e-19)
(-0.387289 0.169204 1.24832e-19)
(-0.416199 0.173503 -1.21285e-19)
(-0.445974 0.177755 1.18077e-19)
(-0.476571 0.181974 0)
(-0.507947 0.186172 0)
(-0.540017 0.190333 1.10248e-19)
(-0.572676 0.19441 0)
(-0.605776 0.198307 0)
(-0.639132 0.201885 1.04198e-19)
(-0.672554 0.204968 1.02203e-19)
(-0.705856 0.207344 1.00005e-19)
(-0.738924 0.208846 0)
(-0.771756 0.209418 0)
(-0.804407 0.209265 -9.20786e-20)
(-0.836854 0.208819 0)
(-0.868904 0.2082 0)
(-0.900432 0.207505 8.46234e-20)
(-0.931355 0.206663 -8.23703e-20)
(-0.961642 0.205488 8.04196e-20)
(-0.991421 0.203681 0)
(-1.02107 0.200959 0)
(-1.05099 0.197695 1.50166e-19)
(-1.08112 0.194671 0)
(-1.11115 0.19193 1.43781e-19)
(-1.14091 0.18928 2.11268e-19)
(-1.17046 0.186635 -2.07039e-19)
(-1.19985 0.184015 1.35309e-19)
(-1.22909 0.181418 0)
(-1.2582 0.178838 0)
(-1.28718 0.176267 1.2793e-19)
(-1.31602 0.173701 6.2891e-20)
(-1.34472 0.171133 0)
(-1.37329 0.168559 0)
(-1.40171 0.165974 5.97687e-20)
(-1.42998 0.163372 1.17478e-19)
(-1.45807 0.160747 0)
(-1.48599 0.158092 -1.13928e-19)
(-1.5137 0.155402 1.12043e-19)
(-1.5412 0.152669 -1.10341e-19)
(-1.56846 0.149887 0)
(-1.59546 0.147051 0)
(-1.62218 0.144155 0)
(-1.6486 0.141194 0)
(-1.6747 0.138163 0)
(-1.70044 0.135059 -1.01132e-19)
(-1.7258 0.131877 0)
(-1.75075 0.128616 0)
(-1.77527 0.125274 0)
(-1.79933 0.121848 -1.90891e-19)