/*--------------------------------*- C++ -*----------------------------------*\
| =========                 |                                                 |
| \\      /  F ield         | OpenFOAM: The Open Source CFD Toolbox           |
|  \\    /   O peration     | Version:  v2012                                 |
|   \\  /    A nd           | Website:  www.openfoam.com                      |
|    \\/     M anipulation  |                                                 |
\*---------------------------------------------------------------------------*/
FoamFile
{
    version     2.0;
    format      ascii;
    class       volScalarField;
    location    "5000";
    object      nuTilda;
}
// * * * * * * * * * * * * * * * * * * * * * * * * * * * * * * * * * * * * * //

dimensions      [0 2 -1 0 0 0 0];


internalField   nonuniform List<scalar> 
12225
(
0.0122671
0.00158833
0.000666932
0.0004122
0.000298016
0.000234158
0.000195366
0.000157557
0.000177086
0.000222697
0.000230388
0.000221271
0.000203463
0.000178139
0.000172628
0.000158585
0.000147171
0.000136881
0.0323823
0.00744532
0.00330641
0.00204337
0.00146819
0.00114457
0.000939066
0.000785446
0.00069113
0.0006278
0.000570645
0.000520035
0.000476783
0.00043743
0.000407123
0.00037478
0.000350014
0.000324455
0.0490123
0.01515
0.00728196
0.00457856
0.00330642
0.00258052
0.00211335
0.00178199
0.0015469
0.00137269
0.0012317
0.00111557
0.00101869
0.00093651
0.000867167
0.000804843
0.000754191
0.00070172
0.063054
0.0237783
0.0122894
0.00788815
0.00573398
0.00448498
0.00367443
0.00310422
0.00268721
0.00237002
0.00211798
0.00191325
0.00174413
0.00160235
0.00148258
0.00137879
0.00129128
0.00120476
0.074932
0.0328517
0.0181452
0.0119262
0.00874549
0.00686413
0.00563087
0.00476131
0.0041187
0.00362573
0.00323518
0.00291878
0.00265804
0.0024401
0.00225603
0.0020984
0.00196343
0.0018399
0.0849536
0.0420208
0.0246655
0.0166359
0.0123325
0.00972588
0.00799541
0.00676741
0.00585404
0.00515005
0.00459191
0.00413984
0.00376745
0.00345638
0.00319355
0.0029691
0.00277617
0.00260661
0.0933822
0.0510219
0.0316642
0.0219415
0.016474
0.0130717
0.0107779
0.00913539
0.00790598
0.00695436
0.00619833
0.00558533
0.0050801
0.00465803
0.00430138
0.00399704
0.00373536
0.00350916
0.0993794
0.0583363
0.0378386
0.0268568
0.0204171
0.0163053
0.0134892
0.011453
0.00991905
0.00872671
0.00777697
0.0070057
0.00636944
0.00583763
0.00538817
0.00500469
0.00467517
0.00439184
0.104023
0.0645454
0.0433804
0.0314239
0.0241571
0.0194092
0.0161097
0.0137018
0.0118767
0.0104523
0.00931473
0.0083894
0.00762525
0.00698616
0.00644587
0.00598492
0.005589
0.00524917
0.108368
0.0708939
0.0493757
0.0365496
0.0284517
0.0230231
0.0191863
0.0163548
0.0141927
0.0124969
0.0111382
0.0100306
0.00911457
0.00834785
0.00769937
0.00714607
0.00667098
0.00626329
0.112368
0.0772557
0.0557282
0.0421918
0.0332976
0.0271652
0.0227468
0.0194433
0.0168984
0.0148904
0.013275
0.0119546
0.0108607
0.00994396
0.00916816
0.00850607
0.00793759
0.0074494
0.115994
0.0834975
0.0623054
0.0482612
0.0386474
0.0318167
0.026789
0.0229739
0.0200047
0.0176453
0.0157379
0.0141737
0.012875
0.0117851
0.010862
0.0100738
0.0093969
0.00881485
0.119234
0.0894856
0.0689377
0.0546109
0.0443919
0.0369007
0.0312597
0.0269089
0.0234837
0.02074
0.0185097
0.0166735
0.015145
0.0138601
0.0127705
0.0118397
0.0110399
0.010351
0.122086
0.095084
0.075415
0.0610223
0.0503361
0.0422535
0.0360231
0.0311353
0.0272402
0.0240931
0.0215191
0.0193909
0.0176141
0.0161175
0.0148467
0.0137601
0.0128258
0.0120198
0.124546
0.100135
0.0814619
0.0671726
0.056158
0.047577
0.0408126
0.0354174
0.031066
0.0275197
0.0246013
0.0221778
0.0201482
0.018435
0.0169783
0.0157315
0.0146584
0.0137312
0.126578
0.104396
0.0866605
0.0725515
0.0613228
0.0523526
0.0451453
0.0393148
0.0345631
0.0306611
0.0274325
0.024741
0.0224806
0.020569
0.0189413
0.0175468
0.0163455
0.0153062
0.128011
0.107322
0.0902141
0.0762353
0.0648743
0.0556509
0.0481493
0.0420254
0.0370012
0.0328553
0.0294126
0.0265352
0.0241143
0.0220643
0.0203171
0.0188191
0.0175275
0.0164083
0.128006
0.107313
0.0902048
0.0762269
0.0648674
0.0556454
0.048145
0.0420221
0.0369988
0.0328537
0.0294117
0.0265349
0.0241147
0.0220651
0.0203184
0.0188205
0.0175286
0.0164082
0.126509
0.104255
0.0864922
0.0723807
0.0611613
0.052205
0.0450128
0.0391967
0.0344584
0.0305685
0.0273506
0.0246684
0.0224163
0.0205118
0.0188902
0.0175006
0.0163023
0.015263
0.124267
0.0995604
0.0807712
0.0664676
0.0554886
0.0469631
0.0402594
0.0349227
0.0306248
0.0271258
0.0242487
0.0218611
0.0198625
0.0181762
0.0167425
0.0155151
0.0144574
0.0135404
0.12136
0.0936399
0.0737261
0.0593348
0.0487592
0.0408248
0.0347467
0.0300003
0.0262308
0.0231928
0.0207127
0.018665
0.0169572
0.0155197
0.0142998
0.0132566
0.0123582
0.0115797
0.117686
0.0865903
0.0656967
0.0514791
0.0415374
0.0343608
0.0290183
0.0249322
0.0217348
0.0191848
0.0171184
0.0154211
0.0140105
0.0128262
0.0118228
0.0109656
0.0102279
0.00958884
0.11305
0.0784122
0.056921
0.0432687
0.0342296
0.0279652
0.0234365
0.0200435
0.0174263
0.0153598
0.0136967
0.012337
0.0112107
0.0102671
0.00946865
0.00878716
0.00820096
0.00769338
0.107169
0.0691009
0.0476372
0.035029
0.0271566
0.021922
0.0182437
0.0155401
0.0134818
0.0118708
0.0105819
0.00953231
0.00866515
0.00793988
0.00732684
0.00680389
0.00635418
0.00596494
0.0996761
0.0587036
0.0381279
0.0270699
0.0205782
0.0164329
0.0135949
0.0115437
0.00999935
0.00879953
0.00784423
0.00706854
0.00642881
0.0058944
0.00544292
0.00505791
0.00472683
0.00444036
0.0901097
0.0473665
0.0287363
0.0196847
0.0146976
0.0116311
0.0095785
0.00811521
0.00702351
0.00618081
0.00551236
0.00497026
0.00452346
0.00415042
0.00383511
0.0035663
0.00333506
0.00313492
0.0779076
0.0353826
0.0198606
0.0131383
0.00966106
0.00759296
0.0062335
0.00527411
0.00456426
0.00402039
0.00359045
0.00324086
0.00295212
0.00271106
0.00250637
0.00233219
0.00218221
0.00205178
0.06238
0.0232554
0.0119461
0.00765493
0.00556338
0.00435255
0.00356723
0.00301619
0.00261336
0.00231041
0.00207212
0.00187482
0.00171031
0.00157289
0.00145404
0.00135329
0.00126677
0.00118923
0.0426105
0.0117794
0.00546931
0.00341388
0.00246076
0.00192014
0.0015728
0.00132962
0.00115856
0.00104155
0.000949998
0.000865358
0.000793017
0.000729817
0.000674463
0.000622363
0.00058362
0.000546063
0.0168348
0.0025599
0.00110031
0.000684193
0.00049518
0.00038916
0.000321436
0.000273104
0.000272251
0.000339087
0.000377451
0.000355866
0.000327008
0.000283184
0.000288812
0.000233639
0.000267293
0.000264303
3.70925e-06
1.38331e-05
2.56096e-05
3.82441e-05
4.60378e-05
4.98341e-05
5.02194e-05
4.7793e-05
4.45841e-05
3.94351e-05
3.40894e-05
2.93611e-05
2.67522e-05
2.73208e-05
2.96402e-05
3.13303e-05
3.11013e-05
2.80736e-05
2.28041e-05
1.91807e-05
1.96942e-05
2.60199e-05
3.89516e-05
6.51528e-05
8.76138e-05
0.000101035
0.000113667
0.000124634
0.000134562
0.00014303
0.000150586
0.000157177
0.000163014
0.000168147
0.000172662
0.000176674
0.000180249
0.000183458
0.000186346
0.00018895
0.000191293
0.000193394
0.000195267
0.000196925
0.000198381
0.000199646
0.000200728
0.000201632
0.000202356
0.000202898
0.000203141
0.000203373
0.000203417
0.000203298
0.00020302
0.000202605
0.000202048
0.000201355
0.000200526
0.000199563
0.00019847
0.000197248
0.0001959
0.000194429
0.000192839
0.00019113
0.000189306
0.000187369
0.000185323
0.000183171
0.000180915
0.000178559
0.000176106
0.000173557
0.000170917
0.000168187
0.000165369
0.000162467
0.00015948
0.000156411
0.000153259
0.000150024
0.000146702
0.000143292
0.00013979
0.000136191
0.000132489
0.000128678
0.000124747
0.000120683
0.000116469
0.000112089
0.000107543
0.000102887
9.83273e-05
9.43617e-05
9.15619e-05
8.98191e-05
8.85086e-05
8.73046e-05
8.61214e-05
8.49427e-05
8.37668e-05
8.25944e-05
8.14265e-05
8.02639e-05
7.9108e-05
7.79632e-05
7.68507e-05
7.58995e-05
7.49652e-05
7.40375e-05
7.31177e-05
7.22061e-05
7.13032e-05
7.04092e-05
6.95246e-05
6.86497e-05
6.77848e-05
6.693e-05
6.60855e-05
6.52516e-05
6.44286e-05
6.36169e-05
6.28165e-05
6.20273e-05
6.12503e-05
6.05135e-05
5.98364e-05
5.91679e-05
5.85043e-05
5.78546e-05
5.72229e-05
5.65959e-05
5.59739e-05
5.53601e-05
5.47554e-05
5.41603e-05
5.35748e-05
5.29991e-05
5.24328e-05
5.18759e-05
5.13281e-05
5.07895e-05
5.02597e-05
4.97388e-05
4.92265e-05
4.87228e-05
4.82276e-05
4.77408e-05
4.72623e-05
4.67922e-05
4.63304e-05
4.58768e-05
4.54315e-05
4.49945e-05
4.45658e-05
4.41456e-05
4.37339e-05
4.33309e-05
4.29369e-05
4.2552e-05
4.21766e-05
4.18108e-05
4.14548e-05
4.11088e-05
4.07727e-05
4.04464e-05
4.01293e-05
3.98206e-05
3.95189e-05
3.92226e-05
3.89277e-05
3.86342e-05
3.8323e-05
3.80258e-05
3.75965e-05
3.72898e-05
3.63586e-05
3.48398e-05
5.88202e-06
3.99438e-05
9.09027e-05
0.000151926
0.000191207
0.000213575
0.000222529
0.000221115
0.00021315
0.000197494
0.000178395
0.000160495
0.000151695
0.000156435
0.000168613
0.000176135
0.000178034
0.000178819
0.000183785
0.000192713
0.000207739
0.000224924
0.000241167
0.000256469
0.000267369
0.000276833
0.000285413
0.000298238
0.000316687
0.000330311
0.000342756
0.000353463
0.000363216
0.000372145
0.000379917
0.000387019
0.000393641
0.0004
0.000406224
0.000412376
0.000418452
0.000424407
0.00043019
0.00043576
0.000441089
0.00044616
0.000450958
0.00045547
0.000459698
0.000463647
0.000467326
0.000470757
0.000473928
0.000476849
0.000479521
0.000481946
0.000484125
0.000486057
0.000487743
0.000489184
0.00049038
0.000491332
0.000492043
0.000492516
0.000492762
0.000492786
0.000492582
0.000492147
0.000491497
0.000490636
0.000489569
0.000488304
0.000486847
0.000485204
0.000483383
0.000481392
0.000479237
0.000476926
0.000474467
0.000471867
0.000469135
0.000466277
0.000463302
0.000460216
0.00045703
0.00045375
0.000450385
0.000446943
0.000443434
0.000439865
0.000436243
0.000432571
0.000428852
0.000425075
0.000421223
0.000417269
0.000413198
0.00040904
0.000404842
0.000400631
0.000396413
0.000392193
0.000387973
0.000383757
0.000379549
0.000375352
0.000371169
0.000367003
0.000362852
0.000358715
0.000354604
0.000350521
0.00034647
0.000342451
0.000338467
0.00033452
0.00033061
0.00032674
0.000322911
0.000319123
0.000315379
0.000311677
0.000308021
0.000304411
0.000300848
0.000297331
0.00029386
0.000290434
0.000287052
0.000283717
0.000280427
0.000277191
0.000274008
0.000270864
0.000267759
0.000264697
0.000261681
0.000258712
0.00025579
0.000252914
0.000250085
0.000247301
0.000244563
0.000241868
0.000239217
0.000236609
0.000234044
0.00023152
0.000229038
0.000226596
0.000224196
0.000221836
0.000219517
0.000217238
0.000214999
0.000212801
0.000210643
0.000208526
0.000206452
0.00020442
0.000202432
0.00020049
0.000198595
0.000196748
0.000194952
0.000193206
0.000191513
0.000189872
0.000188282
0.000186742
0.000185247
0.000183795
0.000182369
0.000180997
0.000179556
0.000178343
0.000176499
0.000175966
0.000173213
0.000171898
1.28758e-05
7.44326e-05
0.000173979
0.000251171
0.000302742
0.00033229
0.000342982
0.000340017
0.000327261
0.000308328
0.000289126
0.000277093
0.000275204
0.000281964
0.000292207
0.000302965
0.00031573
0.000332551
0.000353835
0.000378839
0.000405951
0.000433899
0.000472893
0.000518801
0.000564193
0.000608113
0.000651048
0.000694591
0.000733575
0.000764594
0.00078939
0.000809055
0.00082465
0.000837029
0.000846972
0.000855247
0.000862551
0.000869525
0.000876699
0.000884426
0.000892809
0.000901724
0.000910931
0.000920194
0.000929338
0.000938244
0.000946836
0.000955066
0.000962898
0.000970304
0.000977258
0.000983739
0.000989735
0.000995243
0.00100026
0.00100479
0.00100883
0.00101237
0.00101542
0.00101798
0.00102005
0.00102162
0.0010227
0.00102324
0.0010234
0.00102311
0.00102232
0.00102107
0.00101939
0.00101727
0.00101473
0.00101179
0.00100845
0.00100473
0.00100066
0.000996226
0.000991461
0.000986376
0.000980985
0.000975304
0.000969347
0.00096313
0.000956668
0.000949976
0.000943069
0.000935962
0.00092867
0.000921207
0.000913587
0.000905823
0.000897927
0.00088991
0.000881782
0.000873551
0.000865225
0.000856813
0.000848329
0.000839788
0.000831205
0.000822596
0.00081397
0.000805337
0.000796703
0.000788078
0.000779468
0.000770879
0.000762319
0.000753794
0.000745309
0.000736869
0.000728481
0.000720149
0.000711879
0.000703674
0.000695537
0.000687473
0.000679484
0.000671574
0.000663745
0.000655998
0.000648337
0.000640763
0.000633278
0.000625884
0.000618582
0.000611373
0.000604256
0.000597233
0.000590303
0.000583469
0.000576729
0.000570086
0.000563535
0.000557073
0.000550697
0.000544412
0.000538217
0.000532115
0.000526104
0.000520186
0.000514358
0.00050862
0.000502971
0.000497409
0.000491934
0.000486544
0.000481238
0.000476015
0.000470873
0.000465812
0.00046083
0.000455927
0.000451102
0.000446353
0.00044168
0.000437081
0.000432554
0.0004281
0.000423717
0.000419403
0.000415158
0.000410979
0.000406864
0.000402812
0.000398821
0.000394885
0.000391003
0.000387168
0.000383374
0.000379612
0.00037587
0.000372134
0.000368379
0.000364594
0.000360681
0.000356736
0.000352271
0.00034809
0.000341641
0.000330141
2.18272e-05
0.000106505
0.000220166
0.000312464
0.000374802
0.000411453
0.000426592
0.000426804
0.000416801
0.000403609
0.000395863
0.000395303
0.000404798
0.00042212
0.000444913
0.000472693
0.000506052
0.000545269
0.000589518
0.000653146
0.00072709
0.000806921
0.000890693
0.000960889
0.00102301
0.00107887
0.00112905
0.00117374
0.0012128
0.00124652
0.00127562
0.00130085
0.00132289
0.00134237
0.00135986
0.00137586
0.00139076
0.00140491
0.00141856
0.00143191
0.00144507
0.00145812
0.00147107
0.00148392
0.00149661
0.00150906
0.00152119
0.00153289
0.00154407
0.00155466
0.00156461
0.00157388
0.00158245
0.0015903
0.00159744
0.00160384
0.00160951
0.00161445
0.00161864
0.0016221
0.00162482
0.0016268
0.00162795
0.00162839
0.00162826
0.00162734
0.00162571
0.00162339
0.00162039
0.00161673
0.00161243
0.00160751
0.00160199
0.00159589
0.00158923
0.00158203
0.00157433
0.00156613
0.00155746
0.00154835
0.00153882
0.0015289
0.00151859
0.00150794
0.00149695
0.00148566
0.00147409
0.00146225
0.00145017
0.00143788
0.00142538
0.0014127
0.00139985
0.00138685
0.00137372
0.00136048
0.00134713
0.0013337
0.00132021
0.00130669
0.00129313
0.00127956
0.00126599
0.00125244
0.00123891
0.00122541
0.00121196
0.00119856
0.00118523
0.00117197
0.00115878
0.00114569
0.00113269
0.00111979
0.001107
0.00109432
0.00108176
0.00106932
0.001057
0.00104481
0.00103276
0.00102083
0.00100905
0.000997406
0.000985903
0.000974543
0.000963326
0.000952255
0.000941328
0.000930548
0.000919915
0.000909428
0.000899084
0.000888879
0.000878813
0.000868887
0.000859102
0.000849458
0.000839955
0.000830593
0.00082137
0.000812286
0.000803337
0.000794524
0.000785844
0.000777294
0.000768874
0.000760582
0.000752415
0.000744373
0.000736453
0.000728653
0.000720973
0.000713409
0.000705961
0.000698626
0.000691403
0.000684289
0.000677283
0.000670382
0.000663583
0.000656886
0.000650285
0.000643778
0.000637362
0.00063103
0.000624776
0.000618594
0.000612473
0.000606402
0.000600363
0.000594337
0.000588291
0.000582194
0.00057597
0.000569595
0.00056279
0.000555817
0.000547395
0.000531214
2.69613e-05
0.000121966
0.00024095
0.000357448
0.000435173
0.000482042
0.000505334
0.000513691
0.000515317
0.000516537
0.000523756
0.000540255
0.000566615
0.000601862
0.000645244
0.000696809
0.000757369
0.000841159
0.000937144
0.00103282
0.00112153
0.00120566
0.0012847
0.00135712
0.00142364
0.00148484
0.00154111
0.00159279
0.00164024
0.00168388
0.0017242
0.00176168
0.00179675
0.00182977
0.00186106
0.00189087
0.00191938
0.00194674
0.00197305
0.00199836
0.00202271
0.0020461
0.00206854
0.00208999
0.00211045
0.00212987
0.00214824
0.00216551
0.00218166
0.00219668
0.00221054
0.00222327
0.00223486
0.00224532
0.00225469
0.00226297
0.00227019
0.00227635
0.00228147
0.00228557
0.00228866
0.00229071
0.00229162
0.00229171
0.00229083
0.00228895
0.00228611
0.00228234
0.00227765
0.00227207
0.00226562
0.00225833
0.00225023
0.00224134
0.00223171
0.00222135
0.00221031
0.0021986
0.00218627
0.00217334
0.00215984
0.0021458
0.00213127
0.00211626
0.0021008
0.00208494
0.00206869
0.00205209
0.00203517
0.00201795
0.00200047
0.00198275
0.0019648
0.00194667
0.00192836
0.0019099
0.00189132
0.00187265
0.00185389
0.00183508
0.00181624
0.00179738
0.00177853
0.00175969
0.00174089
0.00172215
0.00170346
0.00168485
0.00166634
0.00164792
0.00162961
0.00161143
0.00159337
0.00157546
0.00155769
0.00154007
0.00152262
0.00150533
0.00148822
0.00147128
0.00145452
0.00143795
0.00142157
0.00140537
0.00138937
0.00137357
0.00135796
0.00134255
0.00132734
0.00131233
0.00129752
0.0012829
0.00126849
0.00125426
0.00124023
0.00122639
0.00121275
0.00119929
0.00118603
0.00117296
0.00116008
0.00114738
0.00113487
0.00112255
0.00111041
0.00109844
0.00108665
0.00107503
0.00106359
0.00105231
0.0010412
0.00103025
0.00101947
0.00100884
0.000998368
0.000988049
0.000977881
0.00096786
0.000957985
0.000948251
0.000938657
0.000929197
0.000919869
0.000910668
0.000901588
0.000892623
0.000883767
0.000875009
0.000866338
0.000857739
0.000849194
0.000840676
0.000832153
0.000823581
0.00081489
0.000806019
0.000796765
0.000787164
0.00077701
0.000757265
3.08049e-05
0.00013531
0.0002614
0.000392192
0.000488191
0.000549577
0.000587181
0.000610593
0.000628476
0.000648064
0.000674545
0.000710507
0.000756658
0.000813271
0.000880898
0.00097174
0.00107708
0.00117868
0.00127773
0.00137297
0.00146342
0.00154918
0.00163019
0.00170643
0.0017782
0.00184585
0.00190971
0.00197011
0.00202741
0.00208191
0.00213394
0.00218379
0.0022317
0.00227789
0.0023225
0.00236568
0.00240749
0.00244799
0.00248722
0.00252518
0.00256187
0.00259727
0.00263134
0.00266407
0.00269539
0.00272529
0.0027537
0.00278061
0.00280596
0.00282972
0.00285187
0.00287239
0.00289125
0.00290845
0.00292399
0.00293785
0.00295005
0.00296059
0.00296948
0.00297675
0.0029824
0.00298648
0.00298891
0.0029898
0.00298934
0.00298736
0.00298402
0.00297932
0.00297331
0.00296606
0.0029576
0.00294801
0.00293732
0.00292559
0.00291287
0.0028992
0.00288463
0.00286921
0.00285299
0.00283599
0.00281828
0.00279988
0.00278085
0.00276121
0.00274102
0.00272031
0.00269912
0.00267749
0.00265545
0.00263305
0.00261032
0.00258729
0.00256399
0.00254046
0.00251673
0.00249282
0.00246876
0.00244459
0.00242033
0.00239601
0.00237165
0.00234727
0.00232291
0.00229858
0.0022743
0.00225008
0.00222595
0.00220192
0.00217801
0.00215423
0.0021306
0.00210712
0.00208381
0.00206068
0.00203774
0.00201499
0.00199246
0.00197013
0.00194803
0.00192615
0.0019045
0.00188309
0.00186192
0.00184099
0.0018203
0.00179987
0.00177968
0.00175975
0.00174006
0.00172064
0.00170146
0.00168254
0.00166386
0.00164543
0.00162725
0.00160932
0.00159162
0.00157417
0.00155697
0.00154
0.00152328
0.00150679
0.00149053
0.00147451
0.00145871
0.00144314
0.00142779
0.00141266
0.00139775
0.00138305
0.00136855
0.00135427
0.00134018
0.0013263
0.00131261
0.00129911
0.0012858
0.00127268
0.00125974
0.00124697
0.00123439
0.00122197
0.00120972
0.00119763
0.00118569
0.0011739
0.00116225
0.00115072
0.00113931
0.00112801
0.00111677
0.00110559
0.00109443
0.00108323
0.00107194
0.00106047
0.00104866
0.00103651
0.00102423
0.0010018
3.23469e-05
0.000142478
0.000273862
0.000409596
0.000527339
0.000608417
0.000664436
0.000706452
0.000743674
0.000783325
0.000830417
0.000887852
0.000957357
0.00105005
0.00115729
0.00126388
0.00136991
0.00147314
0.00157303
0.00166919
0.00176138
0.00184962
0.001934
0.00201468
0.00209191
0.00216596
0.00223711
0.00230562
0.00237175
0.00243573
0.00249777
0.00255805
0.00261672
0.00267389
0.00272964
0.00278404
0.00283711
0.00288888
0.00293932
0.00298843
0.00303617
0.00308251
0.0031274
0.00317079
0.00321263
0.00325287
0.00329145
0.00332832
0.00336344
0.00339675
0.00342821
0.00345778
0.00348543
0.00351113
0.00353485
0.00355657
0.00357628
0.00359396
0.00360962
0.00362324
0.00363483
0.00364442
0.00365199
0.00365761
0.00366126
0.00366288
0.00366279
0.0036608
0.00365703
0.00365151
0.0036443
0.00363546
0.00362504
0.00361311
0.00359972
0.00358495
0.00356886
0.00355152
0.00353298
0.00351333
0.00349263
0.00347094
0.00344833
0.00342487
0.00340062
0.00337564
0.00334999
0.00332374
0.00329693
0.00326962
0.00324186
0.00321371
0.0031852
0.00315639
0.0031273
0.00309799
0.0030685
0.00303885
0.00300908
0.00297923
0.00294933
0.00291941
0.0028895
0.00285962
0.0028298
0.00280006
0.00277042
0.0027409
0.00271153
0.00268231
0.00265327
0.00262441
0.00259576
0.00256733
0.00253913
0.00251117
0.00248345
0.00245599
0.0024288
0.00240188
0.00237524
0.00234889
0.00232282
0.00229705
0.00227157
0.0022464
0.00222152
0.00219695
0.00217268
0.00214871
0.00212505
0.0021017
0.00207864
0.00205589
0.00203343
0.00201126
0.00198939
0.00196782
0.00194653
0.00192554
0.00190483
0.0018844
0.00186426
0.0018444
0.00182481
0.00180549
0.00178643
0.00176764
0.00174911
0.00173083
0.0017128
0.00169502
0.00167749
0.00166019
0.00164313
0.0016263
0.0016097
0.00159332
0.00157716
0.00156121
0.00154548
0.00152995
0.00151462
0.00149949
0.00148454
0.00146977
0.00145518
0.00144074
0.00142645
0.00141229
0.00139824
0.00138426
0.00137032
0.00135638
0.00134236
0.0013282
0.00131373
0.001299
0.00128395
0.00125973
3.27879e-05
0.000144068
0.000275144
0.000409109
0.000538813
0.000642029
0.000719159
0.00078065
0.000836639
0.000894824
0.00096321
0.00105577
0.00116589
0.00128737
0.00140284
0.00151402
0.00162173
0.00172617
0.00182726
0.00192497
0.0020193
0.00211034
0.00219824
0.00228319
0.0023654
0.00244511
0.00252254
0.00259789
0.00267135
0.00274311
0.00281329
0.00288202
0.00294938
0.00301545
0.00308026
0.00314383
0.00320616
0.00326723
0.00332702
0.00338548
0.00344258
0.00349824
0.00355242
0.00360505
0.00365607
0.0037054
0.00375299
0.00379877
0.00384268
0.00388467
0.00392466
0.00396262
0.0039985
0.00403225
0.00406384
0.00409324
0.00412041
0.00414534
0.00416801
0.00418841
0.00420654
0.00422239
0.00423597
0.0042473
0.00425638
0.00426325
0.00426798
0.00427043
0.00427086
0.00426922
0.00426555
0.0042599
0.00425234
0.00424291
0.00423167
0.0042187
0.00420405
0.00418779
0.00416999
0.00415073
0.00413006
0.00410807
0.00408482
0.00406039
0.00403485
0.00400827
0.00398072
0.00395228
0.00392301
0.00389298
0.00386225
0.00383089
0.00379896
0.00376651
0.00373361
0.00370032
0.00366668
0.00363274
0.00359856
0.00356419
0.00352966
0.00349503
0.00346033
0.00342559
0.00339086
0.00335617
0.00332154
0.003287
0.00325259
0.00321832
0.00318422
0.00315031
0.00311661
0.00308313
0.0030499
0.00301692
0.00298422
0.0029518
0.00291966
0.00288784
0.00285632
0.00282512
0.00279425
0.00276371
0.0027335
0.00270364
0.00267411
0.00264493
0.0026161
0.00258762
0.00255948
0.00253169
0.00250425
0.00247715
0.0024504
0.00242398
0.00239791
0.00237217
0.00234677
0.0023217
0.00229697
0.00227256
0.00224848
0.00222472
0.00220127
0.00217814
0.00215532
0.0021328
0.00211058
0.00208866
0.00206703
0.00204569
0.00202463
0.00200385
0.00198334
0.00196311
0.00194314
0.00192343
0.00190398
0.00188477
0.00186582
0.00184711
0.00182863
0.00181038
0.00179235
0.00177454
0.00175693
0.00173952
0.00172228
0.0017052
0.00168825
0.00167141
0.00165464
0.00163788
0.00162108
0.00160415
0.00158696
0.00156957
0.00155163
0.00152549
3.2225e-05
0.000141105
0.000268671
0.000397586
0.000521182
0.000633036
0.00072676
0.000808126
0.000891963
0.000987818
0.00109758
0.00122265
0.00135909
0.00148647
0.00160666
0.00172156
0.00183216
0.0019388
0.00204181
0.00214155
0.00223824
0.00233207
0.00242325
0.00251199
0.00259849
0.00268296
0.00276558
0.00284653
0.00292597
0.00300402
0.00308078
0.00315634
0.00323076
0.00330405
0.00337625
0.00344734
0.00351729
0.00358608
0.00365365
0.00371994
0.0037849
0.00384844
0.0039105
0.003971
0.00402986
0.00408701
0.00414236
0.00419584
0.00424737
0.0042969
0.00434434
0.00438965
0.00443276
0.00447363
0.00451221
0.00454845
0.00458232
0.0046138
0.00464286
0.00466949
0.00469366
0.00471539
0.00473466
0.0047515
0.0047659
0.00477789
0.00478749
0.00479473
0.00479966
0.00480222
0.00480261
0.00480079
0.00479683
0.00479077
0.00478266
0.00477258
0.00476058
0.00474673
0.00473109
0.00471373
0.00469472
0.00467413
0.00465204
0.00462851
0.00460363
0.00457746
0.00455007
0.00452154
0.00449195
0.00446135
0.00442983
0.00439745
0.00436427
0.00433036
0.0042958
0.00426063
0.00422492
0.00418874
0.00415213
0.00411516
0.00407788
0.00404033
0.00400258
0.00396466
0.00392662
0.00388851
0.00385035
0.00381219
0.00377407
0.003736
0.00369804
0.0036602
0.00362252
0.00358501
0.0035477
0.00351061
0.00347376
0.00343716
0.00340085
0.00336482
0.00332909
0.00329367
0.00325858
0.00322383
0.00318941
0.00315535
0.00312163
0.00308828
0.00305529
0.00302267
0.00299042
0.00295854
0.00292703
0.00289589
0.00286513
0.00283473
0.0028047
0.00277504
0.00274575
0.00271682
0.00268826
0.00266006
0.00263221
0.00260472
0.00257758
0.00255079
0.00252434
0.00249823
0.00247246
0.00244701
0.0024219
0.0023971
0.00237263
0.00234846
0.00232461
0.00230106
0.00227781
0.00225485
0.00223218
0.0022098
0.0021877
0.00216588
0.00214432
0.00212302
0.00210198
0.00208119
0.00206063
0.00204029
0.00202016
0.00200021
0.00198043
0.00196078
0.00194121
0.00192169
0.00190215
0.0018825
0.00186262
0.00184256
0.00182181
0.00179349
3.08508e-05
0.000135011
0.000257906
0.000383072
0.000504926
0.000620958
0.000731694
0.000841022
0.000956318
0.00108261
0.00122103
0.00137105
0.00151322
0.00164507
0.00176922
0.00188753
0.00200114
0.00211067
0.00221652
0.00231888
0.00241817
0.00251475
0.00260894
0.00270099
0.00279113
0.00287955
0.00296645
0.00305198
0.00313628
0.00321944
0.00330156
0.0033827
0.00346288
0.00354212
0.00362042
0.00369774
0.00377405
0.00384928
0.00392339
0.00399629
0.00406791
0.00413815
0.00420694
0.00427417
0.00433976
0.00440362
0.00446566
0.00452579
0.00458393
0.00464
0.00469392
0.00474563
0.00479506
0.00484215
0.00488685
0.00492912
0.0049689
0.00500617
0.0050409
0.00507307
0.00510267
0.00512967
0.00515409
0.00517593
0.00519519
0.00521189
0.00522606
0.00523771
0.00524689
0.00525361
0.00525793
0.00525986
0.00525952
0.00525691
0.00525209
0.00524513
0.00523608
0.005225
0.00521196
0.00519702
0.00518026
0.00516174
0.00514154
0.00511972
0.00509636
0.00507153
0.00504531
0.00501776
0.00498897
0.00495899
0.00492791
0.00489579
0.0048627
0.0048287
0.00479387
0.00475827
0.00472197
0.00468502
0.00464749
0.00460943
0.00457092
0.00453199
0.00449271
0.00445313
0.0044133
0.00437326
0.00433305
0.00429273
0.00425233
0.00421189
0.00417145
0.00413104
0.0040907
0.00405044
0.00401031
0.00397034
0.00393053
0.00389092
0.00385154
0.00381239
0.00377349
0.00373487
0.00369654
0.00365851
0.00362079
0.0035834
0.00354635
0.00350963
0.00347327
0.00343726
0.00340162
0.00336634
0.00333143
0.00329689
0.00326273
0.00322895
0.00319554
0.0031625
0.00312985
0.00309757
0.00306567
0.00303414
0.00300299
0.00297221
0.0029418
0.00291176
0.00288207
0.00285275
0.00282379
0.00279517
0.00276691
0.00273899
0.00271141
0.00268417
0.00265727
0.00263069
0.00260444
0.0025785
0.00255289
0.00252758
0.00250258
0.00247788
0.00245348
0.00242937
0.00240553
0.00238197
0.00235867
0.00233561
0.00231279
0.00229018
0.00226775
0.00224548
0.00222332
0.00220122
0.00217911
0.00215691
0.00213452
0.00211195
0.00208865
0.00205799
2.93023e-05
0.000128712
0.000248087
0.000372266
0.000496882
0.000620869
0.000745776
0.000875353
0.001013
0.00116064
0.00131842
0.00148
0.00162761
0.0017639
0.00189188
0.00201353
0.00213011
0.00224245
0.00235108
0.00245638
0.00255866
0.00265812
0.00275519
0.00285022
0.00294352
0.0030353
0.00312578
0.0032151
0.00330341
0.0033908
0.00347735
0.0035631
0.00364808
0.00373228
0.00381568
0.00389824
0.0039799
0.00406061
0.00414027
0.0042188
0.00429611
0.00437209
0.00444666
0.00451969
0.0045911
0.00466077
0.00472861
0.00479452
0.00485841
0.00492019
0.00497978
0.00503709
0.00509206
0.00514463
0.00519472
0.0052423
0.00528731
0.00532972
0.00536949
0.00540661
0.00544104
0.00547279
0.00550184
0.0055282
0.00555187
0.00557287
0.00559122
0.00560694
0.00562007
0.00563062
0.00563865
0.00564419
0.0056473
0.00564803
0.00564642
0.00564255
0.00563646
0.00562821
0.00561787
0.00560551
0.00559118
0.00557497
0.00555694
0.00553716
0.0055157
0.00549265
0.00546806
0.00544201
0.00541458
0.00538583
0.00535583
0.00532466
0.00529239
0.00525907
0.00522479
0.0051896
0.00515357
0.00511677
0.00507926
0.00504109
0.00500234
0.00496305
0.00492328
0.0048831
0.00484253
0.00480165
0.00476049
0.00471911
0.00467754
0.00463583
0.00459402
0.00455214
0.00451024
0.00446834
0.00442648
0.00438469
0.004343
0.00430143
0.00426001
0.00421877
0.00417772
0.00413689
0.00409629
0.00405595
0.00401587
0.00397607
0.00393657
0.00389737
0.0038585
0.00381994
0.00378173
0.00374385
0.00370633
0.00366915
0.00363234
0.00359588
0.0035598
0.00352407
0.00348872
0.00345374
0.00341913
0.0033849
0.00335104
0.00331754
0.00328442
0.00325167
0.00321929
0.00318727
0.00315562
0.00312433
0.00309339
0.00306281
0.00303259
0.00300271
0.00297318
0.00294399
0.00291514
0.00288662
0.00285844
0.00283058
0.00280305
0.00277583
0.00274893
0.00272233
0.00269603
0.00267003
0.0026443
0.00261884
0.00259363
0.00256865
0.00254388
0.00251928
0.0024948
0.00247041
0.00244602
0.00242158
0.00239696
0.00237216
0.00234666
0.00231385
2.76141e-05
0.000122123
0.0002381
0.000361644
0.00048913
0.000619954
0.000756371
0.000900161
0.00105294
0.00121519
0.00138742
0.00155317
0.00170476
0.00184491
0.00197639
0.00210116
0.00222055
0.0023355
0.00244667
0.00255456
0.00265953
0.00276192
0.00286197
0.00295988
0.00305608
0.00315086
0.00324445
0.00333704
0.00342878
0.00351976
0.00361007
0.00369974
0.00378879
0.00387721
0.00396496
0.004052
0.00413825
0.00422364
0.00430808
0.00439146
0.00447368
0.00455463
0.0046342
0.00471227
0.00478872
0.00486345
0.00493635
0.00500731
0.00507622
0.005143
0.00520755
0.00526979
0.00532964
0.00538703
0.00544189
0.00549417
0.00554383
0.00559081
0.00563508
0.00567662
0.00571541
0.00575142
0.00578466
0.00581512
0.00584282
0.00586775
0.00588995
0.00590943
0.00592622
0.00594035
0.00595187
0.00596081
0.00596721
0.00597114
0.00597263
0.00597176
0.00596859
0.00596316
0.00595554
0.00594579
0.00593399
0.00592019
0.00590447
0.00588689
0.00586754
0.00584649
0.00582379
0.00579954
0.00577379
0.00574663
0.00571811
0.00568831
0.0056573
0.00562514
0.00559191
0.00555766
0.00552248
0.00548641
0.00544952
0.00541188
0.00537354
0.00533457
0.00529502
0.00525494
0.00521439
0.00517342
0.00513208
0.00509042
0.00504848
0.0050063
0.00496393
0.00492141
0.00487878
0.00483607