/*--------------------------------*- C++ -*----------------------------------*\
| =========                 |                                                 |
| \\      /  F ield         | OpenFOAM: The Open Source CFD Toolbox           |
|  \\    /   O peration     | Version:  v2012                                 |
|   \\  /    A nd           | Website:  www.openfoam.com                      |
|    \\/     M anipulation  |                                                 |
\*---------------------------------------------------------------------------*/
FoamFile
{
    version     2.0;
    format      ascii;
    class       surfaceScalarField;
    location    "5000";
    object      phi;
}
// * * * * * * * * * * * * * * * * * * * * * * * * * * * * * * * * * * * * * //

dimensions      [0 3 -1 0 0 0 0];
oriented        oriented;


internalField   nonuniform List<scalar> 
24170
(
3.92539e-06
-7.91497e-07
3.76461e-06
1.60756e-07
3.63337e-06
1.31208e-07
3.4332e-06
2.00139e-07
3.28008e-06
1.53079e-07
3.18942e-06
9.06278e-08
3.12906e-06
6.02435e-08
3.08116e-06
4.76032e-08
3.04127e-06
3.94615e-08
3.00438e-06
3.63512e-08
2.96978e-06
3.40874e-08
2.93778e-06
3.15311e-08
2.9085e-06
2.89076e-08
2.882e-06
2.62163e-08
2.85825e-06
2.35424e-08
2.83868e-06
1.95055e-08
2.83064e-06
8.1417e-09
-9.33057e-09
2.84009e-06
3.58444e-06
-9.19498e-07
3.80423e-06
-5.90408e-08
3.7428e-06
1.9262e-07
3.69054e-06
2.52363e-07
3.63725e-06
2.06336e-07
3.58984e-06
1.37982e-07
3.55258e-06
9.73807e-08
3.52379e-06
7.61698e-08
3.50039e-06
6.25283e-08
3.48091e-06
5.53834e-08
3.46384e-06
5.06778e-08
3.44835e-06
4.65513e-08
3.43405e-06
4.2785e-08
3.42059e-06
3.93272e-08
3.40798e-06
3.58823e-08
3.39619e-06
3.11141e-08
3.38452e-06
1.9753e-08
3.90804e-09
3.37101e-06
3.68518e-06
-7.92482e-07
3.83638e-06
-2.10251e-07
3.91492e-06
1.14076e-07
3.94499e-06
2.22288e-07
3.94406e-06
2.07263e-07
3.92721e-06
1.54823e-07
3.9078e-06
1.168e-07
3.89027e-06
9.37465e-08
3.87466e-06
7.82325e-08
3.86142e-06
6.87496e-08
3.84986e-06
6.23524e-08
3.83926e-06
5.72281e-08
3.8293e-06
5.27818e-08
3.81988e-06
4.87282e-08
3.81116e-06
4.45429e-08
3.80305e-06
3.91392e-08
3.79319e-06
2.95131e-08
1.7641e-08
3.77918e-06
4.05359e-06
-6.41511e-07
4.11459e-06
-2.71264e-07
4.20798e-06
2.06782e-08
4.26634e-06
1.63916e-07
4.29068e-06
1.82905e-07
4.29272e-06
1.5275e-07
4.28601e-06
1.23488e-07
4.27703e-06
1.02742e-07
4.2676e-06
8.77542e-08
4.25883e-06
7.76271e-08
4.25083e-06
7.04435e-08
4.24331e-06
6.47938e-08
4.23611e-06
5.99885e-08
4.22913e-06
5.56511e-08
4.22235e-06
5.12329e-08
4.21537e-06
4.60026e-08
4.20614e-06
3.85986e-08
3.04264e-08
4.19308e-06
4.50491e-06
-5.09115e-07
4.51536e-06
-2.81713e-07
4.58528e-06
-4.92455e-08
4.64664e-06
1.02553e-07
4.68256e-06
1.4698e-07
4.6968e-06
1.38516e-07
4.69972e-06
1.20602e-07
4.69774e-06
1.04789e-07
4.69352e-06
9.20923e-08
4.6886e-06
8.26847e-08
4.68358e-06
7.56066e-08
4.67853e-06
6.99623e-08
4.67341e-06
6.5185e-08
4.66816e-06
6.09244e-08
4.66263e-06
5.67444e-08
4.65632e-06
5.2254e-08
4.64779e-06
4.70247e-08
4.21825e-08
4.63587e-06
5.00014e-06
-3.94665e-07
4.98614e-06
-2.67712e-07
5.03068e-06
-9.37956e-08
5.08505e-06
4.8176e-08
5.12452e-06
1.07492e-07
5.14606e-06
1.16956e-07
5.15605e-06
1.10616e-07
5.15976e-06
1.01109e-07
5.16001e-06
9.19182e-08
5.15853e-06
8.42665e-08
5.15617e-06
7.80648e-08
5.15326e-06
7.29507e-08
5.14989e-06
6.8596e-08
5.14604e-06
6.47678e-08
5.14154e-06
6.12045e-08
5.13594e-06
5.77838e-08
5.12833e-06
5.45467e-08
5.24063e-08
5.11794e-06
5.54382e-06
-2.97477e-07
5.51664e-06
-2.40535e-07
5.54055e-06
-1.17699e-07
5.58387e-06
4.85235e-09
5.62165e-06
6.97151e-08
5.64657e-06
9.20447e-08
5.66123e-06
9.59781e-08
5.6693e-06
9.30785e-08
5.67327e-06
8.80128e-08
5.6748e-06
8.28133e-08
5.67484e-06
7.8102e-08
5.67386e-06
7.39917e-08
5.67207e-06
7.0429e-08
5.66951e-06
6.73453e-08
5.66603e-06
6.46635e-08
5.66134e-06
6.24385e-08
5.65491e-06
6.09051e-08
6.08259e-08
5.64643e-06
4.34788e-06
-2.39245e-07
4.32251e-06
-2.15172e-07
4.33078e-06
-1.2597e-07
4.35419e-06
-1.85626e-08
4.3784e-06
4.54957e-08
4.39647e-06
7.39621e-08
4.40846e-06
8.39885e-08
4.41604e-06
8.55134e-08
4.42063e-06
8.34542e-08
4.42326e-06
8.02267e-08
4.42457e-06
7.6834e-08
4.42493e-06
7.36646e-08
4.42454e-06
7.08483e-08
4.42345e-06
6.84405e-08
4.42162e-06
6.64804e-08
4.41892e-06
6.51117e-08
4.41518e-06
6.46326e-08
6.56055e-08
4.41032e-06
5.08622e-06
-1.85603e-07
5.05777e-06
-1.86727e-07
5.0584e-06
-1.26597e-07
5.07686e-06
-3.70302e-08
5.09918e-06
2.31798e-08
5.11774e-06
5.54014e-08
5.13129e-06
7.04488e-08
5.14065e-06
7.6167e-08
5.14691e-06
7.72214e-08
5.15097e-06
7.61925e-08
5.15347e-06
7.43593e-08
5.1548e-06
7.23461e-08
5.15521e-06
7.04592e-08
5.15477e-06
6.88758e-08
5.1535e-06
6.77405e-08
5.15134e-06
6.72564e-08
5.14822e-06
6.77101e-08
6.95639e-08
5.14425e-06
5.94839e-06
-1.38197e-07
5.91832e-06
-1.5666e-07
5.91161e-06
-1.19888e-07
5.924e-06
-4.94298e-08
5.94286e-06
4.31581e-09
5.9606e-06
3.76641e-08
5.97484e-06
5.62079e-08
5.98552e-06
6.54945e-08
5.99325e-06
6.95109e-08
5.9987e-06
7.07491e-08
6.00245e-06
7.06232e-08
6.00488e-06
6.99274e-08
6.00623e-06
6.91105e-08
6.00664e-06
6.84682e-08
6.00616e-06
6.82171e-08
6.00481e-06
6.85886e-08
6.00267e-06
6.98548e-08
7.22928e-08
5.9999e-06
6.95439e-06
-9.8318e-08
6.92401e-06
-1.26289e-07
6.91113e-06
-1.07008e-07
6.9168e-06
-5.51036e-08
6.93088e-06
-9.76187e-09
6.94637e-06
2.21705e-08
6.96019e-06
4.23909e-08
6.97145e-06
5.42403e-08
6.98022e-06
6.07514e-08
6.98688e-06
6.40967e-08
6.99183e-06
6.56734e-08
6.99541e-06
6.63488e-08
6.99784e-06
6.668e-08
6.99928e-06
6.70211e-08
6.99985e-06
6.76517e-08
6.99964e-06
6.88034e-08
6.99879e-06
7.06816e-08
7.34931e-08
6.99759e-06
8.12719e-06
-6.64932e-08
8.09793e-06
-9.70328e-08
8.08056e-06
-8.96359e-08
8.07955e-06
-5.41012e-08
8.08794e-06
-1.81485e-08
8.09987e-06
1.0241e-08
8.11202e-06
3.02442e-08
8.1229e-06
4.33642e-08
8.13206e-06
5.15914e-08
8.13954e-06
5.66262e-08
8.14551e-06
5.96966e-08
8.1502e-06
6.16599e-08
8.1538e-06
6.30781e-08
8.15646e-06
6.43633e-08
8.15832e-06
6.57886e-08
8.15955e-06
6.75789e-08
8.16034e-06
6.98971e-08
7.28427e-08
8.16096e-06
9.49368e-06
-4.24454e-08
9.4668e-06
-7.0156e-08
9.44683e-06
-6.96706e-08
9.43991e-06
-4.71794e-08
9.44229e-06
-2.05356e-08
9.44967e-06
2.86486e-09
9.45898e-06
2.09431e-08
9.46843e-06
3.39114e-08
9.47719e-06
4.28399e-08
9.48493e-06
4.88862e-08
9.49161e-06
5.30259e-08
9.49728e-06
5.59844e-08
9.50205e-06
5.83058e-08
9.50605e-06
6.03546e-08
9.50944e-06
6.24119e-08
9.51235e-06
6.46513e-08
9.51504e-06
6.72086e-08
7.01209e-08
9.51775e-06
1.10854e-05
-2.51665e-08
1.10618e-05
-4.65171e-08
1.1041e-05
-4.88396e-08
1.10294e-05
-3.56032e-08
1.10261e-05
-1.72411e-08
1.10284e-05
5.09152e-10
1.1034e-05
1.53511e-08
1.10411e-05
2.68154e-08
1.10487e-05
3.53021e-08
1.10561e-05
4.14923e-08
1.1063e-05
4.60543e-08
1.10695e-05
4.955e-08
1.10754e-05
5.24042e-08
1.10808e-05
5.4937e-08
1.10858e-05
5.7363e-08
1.10906e-05
5.98352e-08
1.10954e-05
6.24259e-08
6.51704e-08
1.11004e-05
1.29396e-05
-1.31265e-08
1.29194e-05
-2.62936e-08
1.28988e-05
-2.82851e-08
1.28839e-05
-2.07396e-08
1.28758e-05
-9.06877e-09
1.28732e-05
3.04921e-09
1.28748e-05
1.38179e-08
1.2879e-05
2.26374e-08
1.28847e-05
2.95626e-08
1.28913e-05
3.49299e-08
1.28982e-05
3.91374e-08
1.29052e-05
4.25491e-08
1.29121e-05
4.54569e-08
1.2919e-05
4.80795e-08
1.29258e-05
5.05661e-08
1.29326e-05
5.30103e-08
1.29395e-05
5.54554e-08
5.79047e-08
1.29468e-05
1.50998e-05
-4.49072e-09
1.50822e-05
-8.69173e-09
1.50621e-05
-8.14626e-09
1.50448e-05
-3.50996e-09
1.50327e-05
3.03903e-09
1.50259e-05
9.84453e-09
1.50237e-05
1.60438e-08
1.5025e-05
2.1319e-08
1.50289e-05
2.56807e-08
1.50346e-05
2.92831e-08
1.50414e-05
3.23237e-08
1.50489e-05
3.49828e-08
1.5057e-05
3.74045e-08
1.50654e-05
3.96912e-08
1.5074e-05
4.19059e-08
1.50829e-05
4.40793e-08
1.50922e-05
4.62143e-08
4.8292e-08
1.51018e-05
1.76171e-05
2.88553e-09
1.75999e-05
8.50531e-09
1.75787e-05
1.29943e-08
1.7559e-05
1.62291e-08
1.75436e-05
1.84021e-08
1.75336e-05
1.98711e-08
1.75287e-05
2.09409e-08
1.75282e-05
2.18625e-08
1.75311e-05
2.27816e-08
1.75365e-05
2.38046e-08
1.75439e-05
2.49691e-08
1.75526e-05
2.6296e-08
1.75622e-05
2.77688e-08
1.75725e-05
2.93678e-08
1.75834e-05
3.10528e-08
1.75947e-05
3.27873e-08
1.76064e-05
3.4522e-08
3.62148e-08
1.76184e-05
1.78181e-05
1.09937e-08
1.77994e-05
2.7188e-08
1.77768e-05
3.55891e-08
1.7756e-05
3.70059e-08
1.77402e-05
3.4265e-08
1.77302e-05
2.9866e-08
1.77257e-05
2.54081e-08
1.77259e-05
2.16637e-08
1.77298e-05
1.89458e-08
1.77363e-05
1.72458e-08
1.77448e-05
1.64592e-08
1.77547e-05
1.64049e-08
1.77656e-05
1.69238e-08
1.77771e-05
1.78499e-08
1.77891e-05
1.90607e-08
1.78014e-05
2.04336e-08
1.78141e-05
2.18898e-08
2.33418e-08
1.78269e-05
1.58702e-05
2.2127e-08
1.58478e-05
4.9555e-08
1.58233e-05
6.00937e-08
1.58032e-05
5.7187e-08
1.57899e-05
4.75501e-08
1.57834e-05
3.63054e-08
1.57827e-05
2.61216e-08
1.57863e-05
1.80614e-08
1.5793e-05
1.22642e-08
1.58018e-05
8.49661e-09
1.58119e-05
6.35954e-09
1.58228e-05
5.47052e-09
1.58343e-05
5.48328e-09
1.5846e-05
6.12808e-09
1.58579e-05
7.18092e-09
1.58699e-05
8.48452e-09
1.58818e-05
9.90393e-09
1.13571e-08
1.58938e-05
1.41313e-05
3.95336e-08
1.41021e-05
7.86807e-08
1.40745e-05
8.77495e-08
1.40557e-05
7.59892e-08
1.40469e-05
5.63589e-08
1.40462e-05
3.69858e-08
1.40512e-05
2.11498e-08
1.40597e-05
9.52331e-09
1.40703e-05
1.69278e-09
1.40819e-05
-3.12309e-09
1.4094e-05
-5.69514e-09
1.41062e-05
-6.67465e-09
1.41182e-05
-6.55584e-09
1.41301e-05
-5.72568e-09
1.41417e-05
-4.44717e-09
1.41531e-05
-2.92622e-09
1.41643e-05
-1.29157e-09
3.51229e-10
1.41753e-05
1.25772e-05
6.73512e-08
1.25392e-05
1.16715e-07
1.25091e-05
1.17853e-07
1.24942e-05
9.0844e-08
1.24928e-05
5.77645e-08
1.25002e-05
2.96332e-08
1.25122e-05
9.09846e-09
1.25263e-05
-4.5452e-09
1.25409e-05
-1.28591e-08
1.25552e-05
-1.73741e-08
1.25688e-05
-1.93154e-08
1.25817e-05
-1.95616e-08
1.25939e-05
-1.87493e-08
1.26055e-05
-1.72798e-08
1.26165e-05
-1.54662e-08
1.2627e-05
-1.34819e-08
1.26372e-05
-1.14677e-08
-9.49334e-09
1.26471e-05
1.11862e-05
1.10913e-07
1.11384e-05
1.6455e-07
1.11088e-05
1.47486e-07
1.11022e-05
9.7441e-08
1.11117e-05
4.82664e-08
1.1129e-05
1.23695e-08
1.11486e-05
-1.05027e-08
1.11678e-05
-2.3731e-08
1.11855e-05
-3.0516e-08
1.12013e-05
-3.3241e-08
1.12156e-05
-3.35068e-08
1.12283e-05
-3.23305e-08
1.124e-05
-3.03394e-08
1.12506e-05
-2.79388e-08
1.12605e-05
-2.53691e-08
1.12699e-05
-2.28113e-08
1.12787e-05
-2.03274e-08
-1.79778e-08
1.12872e-05
9.93908e-06
1.76449e-07
9.88248e-06
2.21146e-07
9.85874e-06
1.71234e-07
9.86595e-06
9.02334e-08
9.88964e-06
2.45938e-08
9.91762e-06
-1.5602e-08
9.94395e-06
-3.67946e-08
9.96669e-06
-4.64316e-08
9.98575e-06
-4.95095e-08
1.00016e-05
-4.91374e-08
1.00151e-05
-4.69579e-08
1.00267e-05
-4.39199e-08
1.00369e-05
-4.04813e-08
1.0046e-05
-3.70067e-08
1.00543e-05
-3.36534e-08
1.0062e-05
-3.05085e-08
1.00693e-05
-2.75911e-08
-2.48961e-08
1.00762e-05
8.81963e-06
2.69915e-07
8.75785e-06
2.82933e-07
8.74788e-06
1.81199e-07
8.77483e-06
6.32831e-08
8.81462e-06
-1.51823e-08
8.85217e-06
-5.3126e-08
8.8827e-06
-6.72733e-08
8.90631e-06
-6.99662e-08
8.92434e-06
-6.757e-08
8.93839e-06
-6.31242e-08
8.94964e-06
-5.81577e-08
8.95901e-06
-5.30969e-08
8.96696e-06
-4.83837e-08
8.97395e-06
-4.39276e-08
8.98021e-06
-3.98772e-08
8.98599e-06
-3.62646e-08
8.99142e-06
-3.30226e-08
-3.00979e-08
8.99659e-06
7.81391e-06
3.96675e-07
7.7539e-06
3.42935e-07
7.76868e-06
1.66417e-07
7.82055e-06
1.14192e-08
7.87571e-06
-7.03321e-08
7.91917e-06
-9.65713e-08
7.94974e-06
-9.78292e-08
7.97063e-06
-9.07829e-08
7.98501e-06
-8.17481e-08
7.99521e-06
-7.32504e-08
8.00297e-06
-6.57463e-08
8.00906e-06
-5.92229e-08
8.01419e-06
-5.33396e-08
8.01854e-06
-4.82003e-08
8.02237e-06
-4.36494e-08
8.02591e-06
-3.98282e-08
8.02929e-06
-3.64678e-08
-3.33906e-08
8.03257e-06
6.90424e-06
5.66768e-07
6.86137e-06
3.85802e-07
6.91717e-06
1.10612e-07
6.99676e-06
-6.81788e-08
7.06257e-06
-1.3615e-07
7.10536e-06
-1.39366e-07
7.13033e-06
-1.2268e-07
7.14451e-06
-1.04917e-07
7.15244e-06
-8.96665e-08
7.15708e-06
-7.77409e-08
7.16009e-06
-6.8655e-08
7.1623e-06
-6.11564e-08
7.16391e-06
-5.49231e-08
7.16524e-06
-4.95292e-08
7.16626e-06
-4.47109e-08
7.16728e-06
-4.09139e-08
7.16845e-06
-3.76299e-08
-3.46398e-08
7.16957e-06
6.07162e-06
7.97663e-07
6.08525e-06
3.7216e-07
6.19865e-06
-2.79303e-09
6.29991e-06
-1.69441e-07
6.3653e-06
-2.01543e-07
6.3976e-06
-1.71647e-07
6.41008e-06
-1.35274e-07
6.41332e-06
-1.07865e-07
6.41231e-06
-8.87069e-08
6.40988e-06
-7.52884e-08
6.40735e-06
-6.60775e-08
6.40484e-06
-5.87129e-08
6.40236e-06
-5.26104e-08
6.40013e-06
-4.72087e-08
6.39788e-06
-4.25008e-08
6.39604e-06
-3.91159e-08
6.39463e-06
-3.63178e-08
-3.32594e-08
6.39334e-06
5.35805e-06
1.05451e-06
5.50649e-06
2.23711e-07
5.64777e-06
-1.4409e-07
5.73566e-06
-2.57337e-07
5.7765e-06
-2.424e-07
5.7833e-06
-1.78556e-07
5.77504e-06
-1.26878e-07
5.76263e-06
-9.55377e-08
5.75013e-06
-7.63765e-08
5.73922e-06
-6.4639e-08
5.73032e-06
-5.73466e-08
5.72235e-06
-5.10238e-08
5.71479e-06
-4.52803e-08
5.70785e-06
-4.04471e-08
5.7015e-06
-3.61986e-08
5.69609e-06
-3.37543e-08
5.69176e-06
-3.19217e-08
-2.85896e-08
5.6871e-06
5.04576e-06
1.01105e-06
5.36491e-06
-9.54591e-08
5.35252e-06
-1.31739e-07
5.33288e-06
-2.37717e-07
5.29605e-06
-2.05633e-07
5.25015e-06
-1.32743e-07
5.20833e-06
-8.50789e-08
5.17426e-06
-6.16076e-08
5.14685e-06
-4.93137e-08
5.12476e-06
-4.29518e-08
5.10678e-06
-3.97264e-08
5.09092e-06
-3.56491e-08
5.07608e-06
-3.0942e-08
5.06246e-06
-2.70781e-08
5.05038e-06
-2.42104e-08
5.04004e-06
-2.34323e-08
5.03132e-06
-2.31634e-08
-2.00852e-08
5.02289e-06
5.4676e-06
5.37214e-06
5.2404e-06
5.00267e-06
4.79703e-06
4.66428e-06
4.57919e-06
4.51752e-06
4.46814e-06
4.42512e-06
4.3853e-06
4.34954e-06
4.31854e-06
4.29144e-06
4.26722e-06
4.24379e-06
4.22065e-06
4.20059e-06
2.47744e-08
-2.47886e-08
2.38638e-07
-2.13848e-07
4.89961e-07
-2.51357e-07
7.09259e-07
-2.193e-07
8.75942e-07
-1.66713e-07
9.86054e-07
-1.10114e-07
1.04059e-06
-5.45672e-08
1.04187e-06
-1.27538e-09
9.95242e-07
4.66047e-08
9.11062e-07
8.42055e-08
8.04636e-07
1.06417e-07
6.95378e-07
1.09325e-07
6.02939e-07
9.25066e-08
5.36813e-07
6.60625e-08
4.85329e-07
5.15966e-08
4.24043e-07
6.0959e-08
3.36311e-07
8.78524e-08
2.07932e-07
1.28286e-07
3.15872e-08
1.76496e-07
-2.13845e-07
2.45745e-07
-5.18794e-07
3.05018e-07
-8.60044e-07
3.41396e-07
-1.22356e-06
3.63502e-07
-1.60011e-06
3.7656e-07
-1.98088e-06
3.8073e-07
-2.35578e-06
3.7489e-07
-2.71687e-06
3.61055e-07
-3.05893e-06
3.42042e-07
-3.37819e-06
3.19241e-07
-3.67233e-06
2.94133e-07
-3.94054e-06
2.68203e-07
-4.18316e-06
2.42611e-07
-4.40122e-06
2.18054e-07
-4.5962e-06
1.94982e-07
-4.76982e-06
1.73614e-07
-4.92385e-06
1.54031e-07
-5.06004e-06
1.36189e-07
-5.18001e-06
1.19973e-07
-5.28523e-06
1.0522e-07
-5.37698e-06
9.17499e-08
-5.45636e-06
7.9382e-08
-5.5243e-06
6.79448e-08
-5.58158e-06
5.72833e-08
-5.62884e-06
4.72648e-08
-5.66663e-06
3.77805e-08
-5.69537e-06
2.87446e-08
-5.71545e-06
2.00855e-08
-5.72723e-06
1.17748e-08
-5.73117e-06
3.94803e-09
-5.72815e-06
-3.02346e-09
-5.71925e-06
-8.90048e-09
-5.70524e-06
-1.40068e-08
-5.68651e-06
-1.87275e-08
-5.66332e-06
-2.31903e-08
-5.63584e-06
-2.74839e-08
-5.6042e-06
-3.16352e-08
-5.56854e-06
-3.56593e-08
-5.52898e-06
-3.95624e-08
-5.48563e-06
-4.33457e-08
-5.43862e-06
-4.70079e-08
-5.38808e-06
-5.05466e-08
-5.33412e-06
-5.3958e-08
-5.27688e-06
-5.72391e-08
-5.21649e-06
-6.03861e-08
-5.1531e-06
-6.3397e-08
-5.08683e-06
-6.62682e-08
-5.01783e-06
-6.89966e-08
-4.94625e-06
-7.15797e-08
-4.87224e-06
-7.4016e-08
-4.79593e-06
-7.63041e-08
-4.71749e-06
-7.84434e-08
-4.63706e-06
-8.04333e-08
-4.55478e-06
-8.22744e-08
-4.47081e-06
-8.39671e-08
-4.3853e-06
-8.55128e-08
-4.29839e-06
-8.69129e-08
-4.21022e-06
-8.81699e-08
-4.12093e-06
-8.92862e-08
-4.03067e-06
-9.02648e-08
-3.93956e-06
-9.11094e-08
-3.84774e-06
-9.18238e-08
-3.75532e-06
-9.24125e-08
-3.66244e-06
-9.28803e-08
-3.56921e-06
-9.32326e-08
-3.47574e-06
-9.34755e-08
-3.38212e-06
-9.36161e-08
-3.28846e-06
-9.3663e-08
-3.19483e-06
-9.36267e-08
-3.10131e-06
-9.35203e-08
-3.00795e-06
-9.33597e-08
-2.91479e-06
-9.31659e-08
-2.82182e-06
-9.29641e-08
-2.72905e-06
-9.27722e-08
-2.63648e-06
-9.25688e-08
-2.54421e-06
-9.22673e-08
-2.45245e-06
-9.17665e-08
-2.36146e-06
-9.09821e-08
-2.27153e-06
-8.99344e-08
-2.18275e-06
-8.87811e-08
-2.09512e-06
-8.76271e-08
-2.00865e-06
-8.64714e-08
-1.92335e-06
-8.52982e-08
-1.83925e-06
-8.41003e-08
-1.75638e-06
-8.28768e-08
-1.67475e-06
-8.16305e-08
-1.59438e-06
-8.03648e-08
-1.5153e-06
-7.90839e-08
-1.43751e-06
-7.77903e-08
-1.36103e-06
-7.64817e-08
-1.28589e-06
-7.51372e-08
-1.21213e-06
-7.37695e-08
-1.13972e-06
-7.24067e-08
-1.06868e-06
-7.10429e-08
-9.99e-07
-6.96796e-08
-9.30684e-07
-6.83177e-08
-8.63728e-07
-6.69589e-08
-7.98125e-07
-6.56053e-08
-7.33867e-07
-6.42597e-08
-6.70946e-07
-6.29238e-08
-6.09352e-07
-6.15972e-08
-5.49075e-07
-6.02804e-08
-4.90103e-07
-5.89765e-08
-4.32415e-07
-5.76914e-08
-3.75989e-07
-5.64311e-08
-3.20803e-07
-5.51905e-08
-2.66842e-07
-5.39669e-08
-2.14083e-07
-5.2764e-08
-1.62508e-07
-5.15809e-08
-1.12109e-07
-5.04053e-08
-6.28759e-08
-4.92378e-08
-1.49396e-08
-4.79392e-08
3.1849e-08
-4.67908e-08
7.77906e-08
-4.59454e-08
1.22761e-07
-4.49771e-08
1.66669e-07
-4.39153e-08
2.09513e-07
-4.28512e-08
2.51314e-07
-4.1804e-08
2.92098e-07
-4.07868e-08
3.31895e-07
-3.98012e-08
3.70732e-07
-3.88467e-08
4.08641e-07
-3.7921e-08
4.45651e-07
-3.70235e-08
4.81789e-07
-3.61516e-08
5.17082e-07
-3.53059e-08
5.51556e-07
-3.44841e-08
5.85237e-07
-3.36874e-08
6.18154e-07
-3.29125e-08
6.50326e-07
-3.21615e-08
6.81775e-07
-3.14327e-08
7.1252e-07
-3.07283e-08
7.42585e-07
-3.00475e-08
7.71991e-07
-2.93918e-08
8.00764e-07
-2.87595e-08
8.28926e-07
-2.81521e-08
8.56502e-07
-2.75681e-08
8.83514e-07
-2.70089e-08
9.09988e-07
-2.6473e-08
9.35944e-07
-2.59614e-08
9.6141e-07
-2.54727e-08
9.86404e-07
-2.50069e-08
1.01095e-06
-2.45622e-08
1.03507e-06
-2.41373e-08
1.05879e-06
-2.37291e-08
1.0821e-06
-2.33336e-08
1.10503e-06
-2.29454e-08
1.12756e-06
-2.25558e-08
1.1497e-06
-2.21541e-08
1.1714e-06
-2.17234e-08
1.19263e-06
-2.12427e-08
1.2133e-06
-2.06791e-08
1.23327e-06
-1.999e-08
1.25237e-06
-1.91095e-08
1.2703e-06
-1.7942e-08
1.28664e-06
-1.63407e-08
1.30066e-06
-1.40343e-08
1.31126e-06
-1.06034e-08
1.31579e-06
-4.53972e-09
1.30889e-06
6.89043e-09
1.27928e-06
2.96023e-08
7.24384e-08
1.20684e-06
2.537e-07
-2.78497e-07
4.88931e-07
-4.49076e-07
6.38096e-07
-4.00535e-07
7.22272e-07
-3.03478e-07
7.61239e-07
-2.05694e-07
7.66613e-07
-1.1549e-07
7.45118e-07
-3.30849e-08
7.02444e-07
4.1398e-08
6.41559e-07
1.0748e-07
5.6242e-07
1.63352e-07
4.64235e-07
2.04602e-07
3.45311e-07
2.28253e-07
1.994e-07
2.38444e-07
1.47165e-08
2.50687e-07
-2.19135e-07
2.85454e-07
-5.06407e-07
3.48157e-07
-8.45075e-07
4.26522e-07
-1.22394e-06
5.07168e-07
-1.62908e-06
5.81675e-07
-2.02943e-06
6.46143e-07
-2.41726e-06
6.92871e-07
-2.79213e-06
7.16304e-07
-3.14698e-06
7.18352e-07
-3.47371e-06
7.03289e-07
-3.76748e-06
6.74488e-07
-4.02748e-06
6.34889e-07
-4.25428e-06
5.87841e-07
-4.44925e-06
5.37003e-07
-4.61534e-06
4.85325e-07
-4.75606e-06
4.34847e-07
-4.87477e-06
3.86909e-07
-4.97463e-06
3.42465e-07
-5.05849e-06
3.01918e-07
-5.12886e-06
2.65346e-07
-5.18783e-06
2.32583e-07
-5.23712e-06
2.03326e-07
-5.27814e-06
1.77204e-07
-5.31199e-06
1.53827e-07
-5.33958e-06
1.32816e-07
-5.36165e-06
1.1382e-07
-5.3788e-06
9.65312e-08
-5.39154e-06
8.06847e-08
-5.40032e-06
6.60604e-08
-5.40553e-06
5.24781e-08
-5.40754e-06
3.9792e-08
-5.40668e-06
2.78883e-08
-5.40329e-06
1.66902e-08
-5.39767e-06
6.16378e-09
-5.38999e-06
-3.73519e-09
-5.37981e-06
-1.32004e-08
-5.36625e-06
-2.24658e-08
-5.34869e-06
-3.15591e-08
-5.327e-06
-4.04192e-08
-5.30115e-06
-4.90385e-08
-5.27121e-06
-5.74247e-08
-5.23726e-06
-6.55838e-08
-5.1994e-06
-7.35188e-08
-5.15774e-06
-8.12288e-08
-5.11237e-06
-8.87107e-08
-5.06342e-06
-9.59585e-08
-5.011e-06
-1.02966e-07
-4.95523e-06
-1.09724e-07
-4.89625e-06
-1.16226e-07
-4.83417e-06
-1.22465e-07
-4.76913e-06
-1.28436e-07
-4.70126e-06
-1.34132e-07
-4.63072e-06
-1.39546e-07
-4.55762e-06
-1.44673e-07
-4.48213e-06
-1.4951e-07
-4.40438e-06
-1.54055e-07
-4.32452e-06
-1.58305e-07
-4.24269e-06
-1.62262e-07
-4.15904e-06
-1.65924e-07
-4.07371e-06
-1.69293e-07
-3.98686e-06
-1.72371e-07
-3.89861e-06
-1.75163e-07
-3.80911e-06
-1.77671e-07
-3.71849e-06
-1.79902e-07
-3.62689e-06
-1.8186e-07
-3.53445e-06
-1.83554e-07
-3.44128e-06
-1.8499e-07
-3.34752e-06
-1.86178e-07
-3.25327e-06
-1.87125e-07
-3.15866e-06
-1.87842e-07
-3.0638e-06
-1.8834e-07
-2.96879e-06
-1.8863e-07
-2.87372e-06
-1.88724e-07
-2.77871e-06
-1.88636e-07
-2.68386e-06
-1.88378e-07
-2.58926e-06
-1.87962e-07
-2.49502e-06
-1.87402e-07
-2.40128e-06
-1.86703e-07
-2.30819e-06
-1.85861e-07
-2.21591e-06
-1.84847e-07
-2.12456e-06
-1.83617e-07
-2.03419e-06
-1.82141e-07
-1.94475e-06
-1.80418e-07
-1.8562e-06
-1.78488e-07
-1.76855e-06
-1.76429e-07
-1.68189e-06
-1.74294e-07
-1.59626e-06
-1.72096e-07
-1.51173e-06
-1.69835e-07
-1.42831e-06
-1.67513e-07
-1.34606e-06
-1.65134e-07
-1.26498e-06
-1.62704e-07
-1.18512e-06
-1.60227e-07
-1.1065e-06
-1.5771e-07
-1.02913e-06
-1.55155e-07
-9.53049e-07
-1.52565e-07
-8.78248e-07
-1.4994e-07
-8.04725e-07
-1.47293e-07
-7.32496e-07
-1.44637e-07
-6.61563e-07
-1.41977e-07
-5.91928e-07
-1.39315e-07
-5.23591e-07
-1.36656e-07
-4.5655e-07
-1.34001e-07
-3.90802e-07
-1.31355e-07
-3.26341e-07
-1.28722e-07
-2.63158e-07
-1.26109e-07
-2.0124e-07
-1.23516e-07
-1.40581e-07
-1.20942e-07
-8.1169e-08
-1.18391e-07
-2.29971e-08
-1.15866e-07
3.39488e-08
-1.1338e-07
8.96966e-08
-1.10941e-07
1.44263e-07
-1.08536e-07
1.97659e-07
-1.06162e-07
2.49899e-07
-1.03824e-07
3.01012e-07
-1.01521e-07
3.51027e-07
-9.92536e-08
4.00109e-07
-9.7022e-08
4.48218e-07
-9.48993e-08
4.95135e-07
-9.28638e-08
5.40942e-07
-9.07854e-08
5.85709e-07
-8.86859e-08
6.29471e-07
-8.66149e-08
6.72257e-07
-8.45907e-08
7.1409e-07
-8.26198e-08
7.54992e-07
-8.07042e-08
7.94984e-07
-7.88429e-08
8.34092e-07
-7.70344e-08
8.72339e-07
-7.5277e-08
9.09751e-07
-7.35691e-08
9.4635e-07
-7.19098e-08
9.8216e-07
-7.02984e-08
1.01721e-06
-6.87329e-08
1.05151e-06
-6.72135e-08
1.0851e-06
-6.57388e-08
1.11799e-06
-6.43106e-08
1.1502e-06
-6.29284e-08
1.18176e-06
-6.1594e-08
1.21268e-06
-6.03063e-08
1.243e-06
-5.90659e-08
1.27273e-06
-5.78725e-08
1.30189e-06
-5.67257e-08
1.33051e-06
-5.56258e-08
1.3586e-06
-5.45715e-08
1.3862e-06
-5.35636e-08
1.41332e-06
-5.25992e-08
1.43998e-06
-5.16787e-08
1.4662e-06
-5.07973e-08
1.492e-06
-4.99536e-08
1.5174e-06
-4.91395e-08
1.5424e-06
-4.835e-08
1.567e-06
-4.75712e-08
1.59122e-06
-4.67905e-08
1.61503e-06
-4.59837e-08
1.63842e-06
-4.51237e-08
1.66132e-06
-4.41667e-08
1.68369e-06
-4.30572e-08
1.7054e-06
-4.17112e-08
1.72629e-06
-4.00119e-08
1.74612e-06
-3.77812e-08
1.76452e-06
-3.47503e-08
1.78094e-06
-3.0458e-08
1.79448e-06
-2.41484e-08
1.80417e-06
-1.42433e-08
1.80901e-06
2.05174e-09
1.80709e-06
3.15131e-08
8.81656e-08
1.79137e-06
2.45033e-07
-5.23532e-07
3.40229e-07
-5.44271e-07
3.55993e-07
-4.16306e-07
3.44633e-07
-2.92116e-07
3.16597e-07
-1.77666e-07
2.72146e-07
-7.10354e-08
2.10541e-07
2.85097e-08
1.30768e-07
1.21173e-07
3.17197e-08
2.06522e-07
-8.87893e-08
2.8386e-07
-2.36597e-07
3.52407e-07
-4.22354e-07
4.13998e-07
-6.59414e-07
4.75505e-07
-9.5427e-07
5.45517e-07
-1.29613e-06
6.27305e-07
-1.66308e-06
7.15096e-07
-2.03451e-06
7.97951e-07
-2.39392e-06
8.66599e-07
-2.72802e-06
9.15789e-07
-3.02538e-06
9.43533e-07
-3.28165e-06
9.49147e-07
-3.4988e-06
9.33476e-07
-3.68031e-06
8.9986e-07
-3.82994e-06
8.52928e-07
-3.95237e-06
7.96912e-07
-4.05297e-06
7.35481e-07
-4.13703e-06
6.71898e-07
-4.20891e-06
6.08885e-07
-4.27203e-06
5.48442e-07
-4.32898e-06
4.91793e-07
-4.38161e-06
4.39534e-07
-4.43103e-06
3.91885e-07
-4.47787e-06
3.48757e-07
-4.52239e-06
3.09866e-07
-4.56462e-06
2.7482e-07
-4.60448e-06
2.4318e-07
-4.64178e-06
2.14508e-07
-4.67635e-06
1.88392e-07
-4.70798e-06
1.64455e-07
-4.73653e-06
1.42369e-07
-4.76185e-06
1.21854e-07
-4.78384e-06
1.02673e-07
-4.80241e-06
8.46298e-08
-4.81749e-06
6.75601e-08
-4.82902e-06
5.13251e-08
-4.83694e-06
3.58066e-08
-4.84115e-06
2.09032e-08
-4.84151e-06
6.5217e-09
-4.8378e-06
-7.44462e-09
-4.82989e-06
-2.11095e-08
-4.81783e-06
-3.4531e-08
-4.80169e-06
-4.7696e-08
-4.78152e-06
-6.05829e-08
-4.75738e-06
-7.31829e-08
-4.72931e-06
-8.54893e-08
-4.6974e-06
-9.74962e-08
-4.66172e-06
-1.09197e-07
-4.62237e-06
-1.20582e-07
-4.57944e-06
-1.31641e-07
-4.53303e-06
-1.42364e-07
-4.48326e-06
-1.52737e-07
-4.43024e-06
-1.62747e-07
-4.37408e-06
-1.72382e-07
-4.31492e-06
-1.81629e-07
-4.25287e-06
-1.90483e-07
-4.18807e-06
-1.98931e-07
-4.12065e-06
-2.06963e-07
-4.05076e-06
-2.14572e-07
-3.97851e-06
-2.21753e-07
-3.90407e-06
-2.28501e-07
-3.82756e-06
-2.34815e-07
-3.74913e-06
-2.40692e-07
-3.66891e-06
-2.46134e-07
-3.58707e-06
-2.51142e-07
-3.50372e-06
-2.55719e-07
-3.41901e-06
-2.5987e-07
-3.33308e-06
-2.63601e-07
-3.24606e-06
-2.66919e-07
-3.15809e-06
-2.69832e-07
-3.0693e-06
-2.72351e-07
-2.9798e-06
-2.74485e-07
-2.88973e-06
-2.76247e-07
-2.79921e-06
-2.77648e-07
-2.70835e-06
-2.78703e-07
-2.61726e-06
-2.79425e-07
-2.52606e-06
-2.79829e-07
-2.43486e-06
-2.7993e-07
-2.34375e-06
-2.79743e-07
-2.25285e-06
-2.79281e-07
-2.16225e-06
-2.7856e-07
-2.07206e-06
-2.77588e-07
-1.98239e-06
-2.76374e-07
-1.89334e-06
-2.74914e-07
-1.80499e-06
-2.73198e-07
-1.7174e-06
-2.71208e-07
-1.63059e-06
-2.68944e-07
-1.54459e-06
-2.66422e-07
-1.4594e-06
-2.63678e-07
-1.37507e-06
-2.60758e-07
-1.29167e-06
-2.57696e-07
-1.20925e-06
-2.54513e-07
-1.12787e-06
-2.5122e-07
-1.04755e-06
-2.47828e-07
-9.68341e-07
-2.44345e-07
-8.90264e-07
-2.40781e-07
-8.13346e-07
-2.37145e-07
-7.37611e-07
-2.33445e-07
-6.63079e-07
-2.29688e-07
-5.89762e-07
-2.25882e-07
-5.17667e-07
-2.22035e-07
-4.46802e-07
-2.18158e-07
-3.77178e-07
-2.14262e-07
-3.088e-07
-2.10355e-07
-2.41671e-07
-2.06446e-07
-1.7579e-07
-2.02538e-07
-1.11156e-07
-1.98636e-07
-4.77647e-08
-1.94747e-07
1.439e-08
-1.90878e-07
7.53123e-08
-1.87033e-07
1.3501e-07
-1.83216e-07
1.93497e-07
-1.7943e-07
2.50785e-07
-1.7568e-07
3.06889e-07
-1.71972e-07
3.61821e-07
-1.68313e-07
4.15587e-07
-1.64709e-07
4.68204e-07
-1.61154e-07
5.1969e-07
-1.57651e-07
5.70066e-07
-1.54201e-07
6.19353e-07
-1.5081e-07
6.67583e-07
-1.47484e-07
7.14796e-07
-1.44236e-07
7.60974e-07
-1.41078e-07
8.06083e-07
-1.37974e-07
8.50174e-07
-1.34879e-07
8.9329e-07
-1.31805e-07
9.35455e-07
-1.28781e-07
9.76687e-07
-1.25824e-07
1.01701e-06
-1.22939e-07
1.05643e-06
-1.20128e-07
1.09497e-06
-1.17392e-07
1.13266e-06
-1.14731e-07
1.16952e-06
-1.12142e-07
1.20557e-06
-1.09625e-07
1.24084e-06
-1.07178e-07
1.27533e-06
-1.04801e-07
1.30909e-06
-1.02492e-07
1.34213e-06
-1.0025e-07
1.37447e-06
-9.80753e-08
1.40613e-06
-9.59687e-08
1.43714e-06
-9.39309e-08
1.46752e-06
-9.19623e-08
1.49728e-06
-9.00628e-08
1.52645e-06
-8.82324e-08
1.55505e-06
-8.6471e-08
1.5831e-06
-8.4778e-08
1.61063e-06
-8.31537e-08
1.63766e-06
-8.15966e-08
1.6642e-06
-8.01067e-08
1.69028e-06
-7.86813e-08
1.71591e-06
-7.73192e-08
1.74113e-06
-7.60152e-08
1.76593e-06
-7.47655e-08
1.79035e-06
-7.35603e-08
1.81438e-06
-7.23905e-08
1.83804e-06
-7.12385e-08
1.86133e-06
-7.00847e-08
1.88424e-06
-6.88969e-08
1.90675e-06
-6.76355e-08
1.92882e-06
-6.62413e-08
1.95039e-06
-6.46351e-08
1.97138e-06
-6.27022e-08
1.99164e-06
-6.02803e-08
2.01099e-06
-5.71277e-08
2.02912e-06
-5.28816e-08
2.04561e-06
-4.695e-08
2.05985e-06
-3.83938e-08
2.07106e-06
-2.54589e-08
2.07838e-06
-5.27209e-09
2.08226e-06
2.76352e-08
8.56431e-08
2.08478e-06
9.23591e-08
-6.15892e-07
6.09347e-08
-5.12841e-07
1.19129e-08
-3.67288e-07
-4.57261e-08
-2.34471e-07
-1.15783e-07
-1.07613e-07
-2.01719e-07
1.49051e-08
-3.06552e-07
1.33338e-07
-4.32694e-07
2.47315e-07
-5.82747e-07
3.56572e-07
-7.60111e-07
4.61219e-07
-9.69548e-07
5.61844e-07
-1.2153e-06
6.59736e-07
-1.49585e-06
7.56062e-07
-1.80015e-06
8.49805e-07
-2.10938e-06
9.36531e-07
-2.40412e-06
1.00983e-06
-2.67018e-06
1.06402e-06
-2.89955e-06
1.09598e-06
-3.08908e-06
1.10532e-06
-3.23934e-06
1.09381e-06
-3.35465e-06
1.06446e-06
-3.4418e-06
1.02063e-06
-3.50805e-06
9.66114e-07
-3.55986e-06
9.04736e-07
-3.60264e-06
8.39688e-07
-3.64074e-06
7.73592e-07
-3.67738e-06
7.08535e-07
-3.71454e-06
6.46042e-07
-3.7532e-06
5.87097e-07
-3.79361e-06
5.32204e-07
-3.83558e-06
4.81508e-07
-3.87862e-06
4.34925e-07
-3.92208e-06
3.92219e-07
-3.96529e-06
3.53069e-07
-4.00758e-06
3.17113e-07
-4.04838e-06
2.8398e-07
-4.08719e-06
2.53316e-07
-4.12358e-06
2.2479e-07
-4.15723e-06
1.98106e-07
-4.18786e-06
1.72999e-07
-4.21525e-06
1.49241e-07
-4.23921e-06
1.26638e-07
-4.25961e-06
1.05024e-07
-4.27631e-06
8.42593e-08
-4.28921e-06
6.4224e-08
-4.29822e-06
4.48177e-08
-4.30327e-06
2.59546e-08
-4.3043e-06
7.55836e-09
-4.3013e-06
-1.04443e-08
-4.2943e-06
-2.8114e-08
-4.28335e-06
-4.54778e-08
-4.26851e-06
-6.25322e-08
-4.24983e-06
-7.92643e-08
-4.22735e-06
-9.56614e-08
-4.20113e-06
-1.1171e-07
-4.17123e-06
-1.27395e-07
-4.13773e-06
-1.42701e-07
-4.1007e-06
-1.57611e-07
-4.06023e-06
-1.72107e-07
-4.01643e-06
-1.86172e-07
-3.96938e-06
-1.99787e-07
-3.91919e-06
-2.12933e-07
-3.86598e-06
-2.2559e-07
-3.80987e-06
-2.37743e-07
-3.75097e-06
-2.49381e-07
-3.68941e-06
-2.60489e-07
-3.62532e-06
-2.71053e-07
-3.55883e-06
-2.81064e-07
-3.49007e-06
-2.90514e-07
-3.41917e-06
-2.99397e-07
-3.34628e-06
-3.0771e-07
-3.27152e-06
-3.1545e-07
-3.19504e-06
-3.22618e-07
-3.11696e-06
-3.29215e-07
-3.03744e-06
-3.35246e-07
-2.95659e-06
-3.40716e-07
-2.87456e-06
-3.45633e-07
-2.79147e-06
-3.50007e-07
-2.70746e-06
-3.53847e-07
-2.62264e-06
-3.57166e-07
-2.53715e-06
-3.59977e-07
-2.4511e-06
-3.62295e-07
-2.36461e-06
-3.64135e-07
-2.2778e-06
-3.65514e-07
-2.19078e-06
-3.6645e-07
-2.10365e-06
-3.66959e-07
-2.01652e-06
-3.6706e-07
-1.92949e-06
-3.66771e-07
-1.84266e-06
-3.66109e-07
-1.75613e-06
-3.65089e-07
-1.66999e-06
-3.63726e-07
-1.58434e-06
-3.6203e-07
-1.49924e-06
-3.60009e-07
-1.41478e-06
-3.57663e-07
-1.33099e-06
-3.54995e-07
-1.24792e-06
-3.52015e-07
-1.1656e-06
-3.48744e-07
-1.08407e-06
-3.45211e-07
-1.00337e-06
-3.41454e-07
-9.23566e-07
-3.37501e-07
-8.44702e-07
-3.33377e-07
-7.66823e-07
-3.291e-07
-6.89967e-07
-3.24684e-07
-6.14167e-07
-3.20145e-07
-5.39452e-07
-3.15496e-07
-4.65848e-07
-3.1075e-07
-3.93375e-07
-3.05918e-07