/*--------------------------------*- C++ -*----------------------------------*\
  =========                 |
  \\      /  F ield         | OpenFOAM: The Open Source CFD Toolbox
   \\    /   O peration     | Website:  https://openfoam.org
    \\  /    A nd           | Version:  8
     \\/     M anipulation  |
\*---------------------------------------------------------------------------*/
FoamFile
{
    version     2.0;
    format      ascii;
    class       volVectorField;
    location    "1400";
    object      wallShearStress;
}
// * * * * * * * * * * * * * * * * * * * * * * * * * * * * * * * * * * * * * //

dimensions      [0 2 -2 0 0 0 0];

internalField   uniform (0 0 0);

boundaryField
{
    inlet
    {
        type            calculated;
        value           uniform (0 0 0);
    }
    outlet
    {
        type            calculated;
        value           uniform (0 0 0);
    }
    upperWall
    {
        type            calculated;
        value           nonuniform List<vector> 
223
(
(-0.440836 -0.0467686 0)
(-0.491363 -0.0458814 0)
(-0.534269 -0.0345229 0)
(-0.541733 -0.0224043 0)
(-0.538281 -0.0135984 0)
(-0.528733 -0.00794114 0)
(-0.518179 -0.00438846 0)
(-0.507381 -0.00217715 0)
(-0.496604 -0.000815201 0)
(-0.486531 1.98958e-05 0)
(-0.477313 0.00052509 0)
(-0.468951 0.000824115 0)
(-0.461402 0.000992965 0)
(-0.45459 0.00108015 0)
(-0.448447 0.00111624 0)
(-0.442894 0.00112487 0)
(-0.437846 0.00111935 0)
(-0.433267 0.0011523 0)
(-0.429565 0.00121826 0)
(-0.426607 0.00127249 5.36996e-22)
(-0.423701 0.00128546 0)
(-0.420861 0.00127188 0)
(-0.418086 0.00124146 0)
(-0.415378 0.00120049 5.48491e-22)
(-0.412742 0.00115293 0)
(-0.410179 0.00110224 0)
(-0.40769 0.00105015 0)
(-0.405273 0.000998217 -1.11759e-21)
(-0.402928 0.000947107 1.12262e-21)
(-0.400652 0.000897733 1.12762e-21)
(-0.398446 0.000850366 0)
(-0.396305 0.000805438 -1.13757e-21)
(-0.39423 0.000762955 0)
(-0.392216 0.000723245 1.14749e-21)
(-0.390262 0.000686203 1.15245e-21)
(-0.388364 0.000651985 -1.15741e-21)
(-0.38652 0.000620293 0)
(-0.384727 0.000591074 0)
(-0.382982 0.00056422 0)
(-0.381284 0.000539614 0)
(-0.379628 0.000517191 -1.18236e-21)
(-0.378014 0.000496755 0)
(-0.376438 0.000478135 0)
(-0.374899 0.00046122 1.19751e-21)
(-0.373394 0.000445913 0)
(-0.371923 0.000432181 1.20768e-21)
(-0.37048 0.000419888 -1.21278e-21)
(-0.369067 0.000408847 1.21789e-21)
(-0.36768 0.000399068 0)
(-0.366318 0.000390522 0)
(-0.364977 0.000383018 0)
(-0.363659 0.000376546 1.23836e-21)
(-0.362358 0.000371001 -1.24346e-21)
(-0.361077 0.000366372 0)
(-0.359809 0.000362491 0)
(-0.358558 0.000359335 0)
(-0.357317 0.000356753 0)
(-0.35609 0.000354766 0)
(-0.354871 0.000353357 0)
(-0.353663 0.000352375 0)
(-0.35246 0.00035186 0)
(-0.351265 0.000351705 1.28803e-21)
(-0.350074 0.000351839 -1.29271e-21)
(-0.348889 0.000352316 0)
(-0.347705 0.000353077 0)
(-0.346524 0.00035411 0)
(-0.345344 0.000355428 -1.31054e-21)
(-0.344163 0.000356993 0)
(-0.342981 0.000358775 0)
(-0.341797 0.000360718 0)
(-0.340608 0.000362973 0)
(-0.339417 0.000365353 0)
(-0.338215 0.000368037 -2.6665e-21)
(-0.337017 0.000370786 0)
(-0.335791 0.000373934 0)
(-0.334587 0.000377183 0)
(-0.333328 0.000380948 0)
(-0.332109 0.00038509 0)
(-0.330834 0.000388526 0)
(-0.329541 0.000395795 0)
(-0.32832 0.000401215 2.70592e-21)
(-0.3269 0.000415711 0)
(-0.325472 0.000410284 0)
(-0.324198 -0.00024937 0)
(-0.322853 -0.00060401 -2.69044e-21)
(-0.323913 0.000512844 0)
(-0.327192 0.00125417 -2.77987e-21)
(-0.321287 0.00132539 0)
(-0.331566 0.00132533 0)
(-0.324556 0.000727132 0)
(-0.326749 0.000199174 -2.87028e-21)
(-0.318514 0.000212985 0)
(-0.318004 0.00057201 2.8547e-21)
(-0.314141 2.73335e-05 2.82576e-21)
(-0.41129 0.00425334 0)
(-0.378586 0.00456766 3.28828e-21)
(-0.364434 0.00102882 0)
(-0.349084 0.00067067 0)
(-0.337069 -0.000789916 0)
(-0.315592 -0.00109617 -2.86948e-21)
(-0.326435 -0.000667089 0)
(-0.304148 -0.000438106 -2.8066e-21)
(-0.418811 0.00285657 3.88274e-21)
(-0.375833 0.00270207 0)
(-0.353694 0.000799946 0)
(-0.316931 0.000839231 0)
(-0.319981 -0.000248956 0)
(-0.297537 -0.0004686 0)
(-0.377559 -0.000880463 0)
(-0.382396 -0.000747872 0)
(-0.43376 0.00167123 -4.03475e-21)
(-0.378178 0.00149099 0)
(-0.337586 0.000852817 0)
(-0.31416 0.0011161 0)
(-0.28818 -7.80182e-05 0)
(-0.384799 0.000253498 0)
(-0.34032 -0.000559387 0)
(-0.36509 0.0028668 0)
(-0.322012 0.00424265 0)
(-0.293044 0.00330828 0)
(-0.291824 0.00628786 0)
(-0.279114 0.00530812 0)
(-0.277921 0.00416875 0)
(-0.276846 0.0010063 -4.24757e-21)
(-0.275354 -0.00359899 0)
(-0.273776 -0.00383852 0)
(-0.301017 -0.00327777 0)
(-0.33897 -0.00267939 5.26033e-21)
(-0.349079 -0.00211959 0)
(-0.324901 -0.00134007 0)
(-0.318742 -0.000387549 4.58287e-21)
(-0.299646 0.000273111 0)
(-0.310951 0.000203603 -4.22421e-21)
(-0.300847 0.00332292 0)
(-0.266737 0.0052985 0)
(-0.251984 0.00387634 0)
(-0.251268 0.00363051 2.5833e-21)
(-0.250376 0.00285685 0)
(-0.248928 -0.000149985 -2.11967e-21)
(-0.247478 -0.0024334 0)
(-0.2682 0.000407781 0)
(-0.244184 0.0026652 0)
(-0.242445 0.00115038 0)
(-0.240743 -0.000963349 0)
(-0.265204 -0.000181002 0)
(-0.236993 0.00184125 0)
(-0.23512 0.000511753 0)
(-0.233388 -0.00146272 0)
(-0.248393 -0.00222149 0)
(-0.242119 0.000344396 0)
(-0.227131 0.00193709 1.15685e-21)
(-0.225615 0.00424616 -1.44952e-21)
(-0.225468 0.00219734 0)
(-0.234507 0.000389397 0)
(-0.221973 0.00391676 0)
(-0.219889 0.00229105 0)
(-0.217387 -0.00201898 -3.33901e-21)
(-0.230474 -0.00435551 4.32845e-21)
(-0.209257 -0.00102646 -4.59356e-21)
(-0.238764 0.000419692 0)
(-0.240932 -0.00109489 -6.29159e-21)
(-0.228171 -0.00107698 -1.35537e-20)
(-0.214067 -0.00129408 0)
(-0.198456 -0.00139956 -1.4657e-20)
(-0.190734 0.00209065 1.56332e-20)
(-0.192654 0.00415427 0)
(-0.192742 0.00116001 0)
(-0.189992 0.00021436 0)
(-0.202126 0.00109779 0)
(-0.201513 0.00130697 0)
(-0.187226 0.00162057 -2.11902e-20)
(-0.194718 0.00175121 0)
(-0.185936 0.00101899 -2.32179e-20)
(-0.183695 -0.000577779 0)
(-0.183178 -0.00216817 0)
(-0.176157 -0.00270044 0)
(-0.172461 -0.00210128 0)
(-0.168588 -0.00159208 0)
(-0.164864 -0.00118839 3.534e-20)
(-0.161728 -0.000790719 0)
(-0.158352 -0.000668093 0)
(-0.15398 0.00151548 -4.11442e-20)
(-0.157102 0.00310888 0)
(-0.157408 0.00190049 0)
(-0.154646 0.00102697 0)
(-0.149357 0.000658906 4.76399e-20)
(-0.141749 0.000706798 0)
(-0.132854 0.000926321 0)
(-0.123357 0.00120814 0)
(-0.114244 0.00132415 0)
(-0.106201 0.00126459 -7.838e-20)
(-0.0992616 0.00110618 0)
(-0.0934882 0.000920522 0)
(-0.0881236 0.000852162 0)
(-0.0830303 0.000935256 1.06199e-19)
(-0.0753749 0.00116171 0)
(-0.0708079 0.00187548 0)
(-0.0421245 0.00159975 -1.48994e-19)
(-0.0730382 0.00103855 6.01853e-36)
(-0.107166 0.00636851 1.28936e-17)
(-0.130454 0.0107235 2.32502e-17)
(-0.142833 0.0132877 2.19305e-17)
(-0.150281 0.0147129 2.11234e-17)
(-0.155996 0.0156018 2.04583e-17)
(-0.160579 0.0162249 -1.98838e-17)
(-0.164182 0.0166873 -1.93502e-17)
(-0.167244 0.017043 0)
(-0.170165 0.0173453 -3.67312e-17)
(-0.173198 0.0176342 -1.78683e-17)
(-0.176461 0.0179351 8.36576e-34)
(-0.180086 0.0182628 -1.20371e-35)
(-0.184179 0.0186332 -3.22857e-17)
(-0.188771 0.0190505 -3.08989e-17)
(-0.193963 0.0195239 -2.93411e-17)
(-0.199762 0.0200557 -2.40741e-35)
(-0.206291 0.0206523 5.1327e-17)
(-0.213678 0.0213317 2.34751e-17)
(-0.221769 0.0220761 1.20371e-35)
(-0.231615 0.0229759 -3.64263e-17)
(-0.240786 0.0238485 -1.19563e-20)
(-0.25662 0.0252207 0)
(-0.261176 0.0260227 1.36362e-17)
(-0.291682 0.0279232 -7.65556e-18)
)
;
    }
    lowerWall
    {
        type            calculated;
        value           nonuniform List<vector> 
250
(
(-0.970363 0.101514 0)
(-0.759209 0.0643997 0)
(-0.70161 0.0475457 0)
(-0.637112 0.0286571 0)
(-0.594143 0.0180411 0)
(-0.552635 0.010775 0)
(-0.532436 0.00655319 0)
(-0.51403 0.00505481 0)
(-0.650562 0.00530906 0)
(-0.684193 0.00411623 0)
(-0.782406 -0.00235057 0)
(-0.66149 -0.00255602 0)
(-0.59069 0.00141124 0)
(-0.519651 0.000749839 0)
(-0.481164 -0.000273913 0)
(-0.46668 -0.00268804 0)
(-0.461486 -0.00321679 0)
(-0.458645 -0.000832079 0)
(0.0028998 -0.00757263 0)
(0.00298243 -0.0115014 0)
(0.00305613 -0.0152651 0)
(0.00310393 -0.0188184 6.93864e-20)
(0.00315164 -0.0219658 -6.18439e-20)
(0.00354041 -0.024887 5.59772e-20)
(0.00445278 -0.0250905 -5.14424e-20)
(0.00983666 -0.0452525 0)
(-0.0728798 -0.155712 0)
(0.000215728 -0.00026656 0)
(7.35328e-05 -0.000782871 0)
(1.49533e-05 -0.0009195 0)
(5.58677e-05 -0.000968191 0)
(-2.3668e-05 -0.000756299 1.53296e-19)
(-0.00036851 0.000201222 -1.34331e-19)
(-0.00105347 0.00253582 0)
(-0.00167329 0.00622509 -1.39354e-19)
(-0.00178583 0.010109 1.10576e-19)
(-0.00140092 0.0131635 0)
(-0.000775566 0.0149075 0)
(-0.000134542 0.0152408 0)
(0.000401306 0.014311 0)
(0.000880625 0.0124684 0)
(0.00136662 0.00972155 0)
(0.0018754 0.00615319 0)
(0.00241088 0.00189352 0)
(0.00278571 -0.00296925 0)
(-0.000138364 -0.000269986 0)
(0.000168284 -0.000431384 0)
(0.000466388 -0.000471902 0)
(0.000757956 -0.000389746 0)
(0.000958887 -0.00015893 -0)
(0.000945213 0.000187464 -0)
(0.000676239 0.000576519 1.56865e-20)
(0.000184746 0.000906234 -1.71788e-20)
(-0.000444739 0.00109985 -0)
(-0.00112027 0.00113775 -1.03631e-20)
(-0.00176664 0.00103995 -0)
(-0.00232466 0.000839419 0)
(-0.00275584 0.000573154 -0)
(-0.00303975 0.000272683 6.25869e-21)
(-0.00316967 -4.19524e-05 0)
(-0.00313429 -0.000345499 0)
(-0.00294127 -0.000604538 -6.3945e-21)
(-0.00261514 -0.000789735 -0)
(-0.00219052 -0.00087822 0)
(-0.00171177 -0.00085663 -0)
(-0.00123364 -0.000727903 1.01476e-20)
(-0.000811902 -0.000516929 0)
(-0.00049001 -0.000267151 1.50047e-20)
(-0.000286558 -2.25968e-05 0)
(-0.000201742 0.00020031 0)
(-0.000245435 0.000387302 2.03323e-20)
(-0.000398181 0.000539879 0)
(-0.000656124 0.000675923 -1.45913e-20)
(-0.00102049 0.00077279 0)
(-0.00143466 0.000771748 1.01705e-20)
(-0.00179411 0.000665474 0)
(-0.00203547 0.000518977 0)
(-0.00214316 0.000419079 0)
(-0.00217933 0.000445269 0)
(-0.00220325 0.000547835 0)
(-0.00219404 0.000573358 -7.89107e-21)
(-0.00198828 0.00027304 0)
(-0.00135076 -0.000417998 1.98689e-20)
(-6.77348e-05 -0.00112853 0)
(0.00160694 -0.00182807 -9.86823e-21)
(0.00351099 -0.00257027 0)
(0.00571427 -0.00330884 0)
(0.00824555 -0.00398566 3.86025e-21)
(0.011039 -0.0044428 0)
(0.0138291 -0.00439437 3.02381e-21)
(0.0166923 -0.00422036 -2.73722e-21)
(0.0201937 -0.0043761 -0)
(0.022254 -0.00410472 -2.34038e-21)
(0.0240084 -0.0036498 -2.11198e-21)
(0.0272197 -0.00342424 -0)
(0.0266918 -0.00282315 0)
(0.0289802 -0.00260699 0)
(0.0302136 -0.00240864 0)
(0.0326881 -0.00224622 -0)
(0.0330531 -0.00205589 1.5773e-21)
(0.0343764 -0.00186073 0)
(0.036172 -0.00155455 -1.57472e-21)
(0.0375046 -0.00143018 -0)
(0.0388096 -0.00132693 -0)
(0.0401197 -0.00122934 1.54321e-21)
(0.0412791 -0.00114634 0)
(0.0424501 -0.00107415 -1.52711e-21)
(0.0435478 -0.00101145 -0)
(0.0446257 -0.000957029 0)
(0.0456613 -0.000909102 -0)
(0.0466775 -0.000866948 1.50233e-21)
(0.0476613 -0.000829178 0)
(0.0486298 -0.000795257 -0)
(0.0495723 -0.000764291 1.48555e-21)
(0.0505009 -0.000735779 0)
(0.0514086 -0.000709223 1.47426e-21)
(0.0523024 -0.000684161 0)
(0.0531787 -0.000660305 0)
(0.0540406 -0.000637257 0)
(0.0548863 -0.000614847 -1.44964e-21)
(0.0557168 -0.00059292 -0)
(0.0565318 -0.000571162 0)
(0.0573305 -0.000549523 -1.42843e-21)
(0.058113 -0.000527814 -1.42069e-21)
(0.0588781 -0.000505857 -0)
(0.0596252 -0.000483607 -1.40411e-21)
(0.0603538 -0.000460905 0)
(0.0610623 -0.000437465 -2.77176e-21)
(0.0617499 -0.000413325 -0)
(0.0624153 -0.000388161 -2.7318e-21)
(0.0630574 -0.000361852 -0)
(0.0636742 -0.000334147 2.68812e-21)
(0.0642651 -0.000304807 0)
(0.0648277 -0.000273493 0)
(0.0653606 -0.00024009 0)
(0.0658617 -0.000204444 -2.5886e-21)
(0.0663294 -0.00016693 -0)
(0.0667617 -0.000128375 2.53282e-21)
(0.067158 -9.04317e-05 0)
(0.0675184 -5.5337e-05 -2.47372e-21)
(0.0678452 -2.56208e-05 -2.44212e-21)
(0.0681385 8.61165e-07 -2.40915e-21)
(0.068402 2.73687e-05 0)
(0.0686319 5.37598e-05 0)
(0.0688297 8.05314e-05 0)
(0.0689928 0.000107448 0)
(0.0691218 0.000134732 0)
(0.0692149 0.000162194 0)
(0.0692721 0.000189982 0)
(0.0692919 0.000217869 0)
(0.0692743 0.000246007 2.04085e-21)
(0.0692182 0.000274161 1.99052e-21)
(0.0691235 0.000302433 0)
(0.0689893 0.000330679 0)
(0.0688154 0.000358941 0)
(0.0686014 0.000387138 1.76703e-21)
(0.0683466 0.000415171 0)
(0.0680515 0.000443069 0)
(0.0677151 0.00047074 0)
(0.0673381 0.000498176 0)
(0.0669199 0.00052533 -1.43283e-21)
(0.0664605 0.000552259 0)
(0.0659598 0.000578689 0)
(0.0654186 0.000604875 1.20023e-21)
(0.0648361 0.000630605 -1.11702e-21)
(0.0642131 0.000656002 0)
(0.0635494 0.000680872 -9.41708e-22)
(0.0628454 0.000705416 0)
(0.0621013 0.000729347 7.54103e-22)
(0.0613175 0.00075299 0)
(0.0604937 0.000776016 0)
(0.0596309 0.000798627 0)
(0.0587286 0.000820678 0)
(0.0577873 0.00084234 0)
(0.0568064 0.00086353 -2.21105e-22)
(0.0557892 0.000884373 1.9416e-23)
(0.0547395 0.000904709 0)
(0.053655 0.000924593 0)
(0.0525364 0.000943997 0)
(0.0513853 0.00096315 -1.06834e-21)
(0.0501872 0.000981131 0)
(0.0489719 0.00099912 0)
(0.047706 0.00101642 0)
(0.0464192 0.001033 -2.27814e-21)
(0.045097 0.00104951 2.61e-21)
(0.0437463 0.00106527 0)
(0.0423681 0.00108054 0)
(0.0409643 0.00109486 3.68937e-21)
(0.0395352 0.00110854 4.0803e-21)
(0.0380828 0.00112134 0)
(0.0366061 0.00113351 0)
(0.0351087 0.00114505 -5.36285e-21)
(0.0335924 0.00115596 5.83161e-21)
(0.0320588 0.00116623 0)
(0.0305102 0.00117595 0)
(0.0289476 0.0011851 7.3858e-21)
(0.0273731 0.00119366 0)
(0.0257881 0.00120166 0)
(0.0241944 0.0012091 9.21008e-21)
(0.0225937 0.00121603 0)
(0.0209876 0.00122253 1.06176e-20)
(0.0193777 0.00122868 0)
(0.0177655 0.00123457 0)
(0.0161525 0.00124034 0)
(0.0145398 0.0012461 -1.40603e-20)
(0.0129289 0.00125198 0)
(0.0113207 0.00125814 0)
(0.00971618 0.00126473 0)
(0.00811623 0.00127207 0)
(0.00652152 0.00128118 0)
(0.00493214 0.00129268 0)
(0.00334834 0.00130588 -2.36638e-20)
(0.00177067 0.00131912 -2.56966e-20)
(0.000199339 0.00132224 0)
(-0.00136535 0.001299 0)
(-0.00292078 0.00125911 0)
(-0.00446408 0.00121816 2.43914e-20)
(-0.00599291 0.00117732 0)
(-0.00750216 0.00113496 -4.47733e-20)
(-0.00898474 0.00108766 4.3101e-20)
(-0.0104212 0.00103173 4.16295e-20)
(-0.0118048 0.000950529 -4.03677e-20)
(-0.0129906 0.000843969 3.93514e-20)
(-0.0142457 0.000622403 -3.86968e-20)
(-0.0137974 0.000122484 0)
(-0.0161865 0.000332034 -2.39335e-18)
(-0.0198841 -0.000129726 -2.2288e-18)
(-0.0235668 -0.000612133 0)
(-0.0270512 -0.00103312 -3.94211e-18)
(-0.030603 -0.00143899 -7.4532e-18)
(-0.0343224 -0.00184653 -3.53052e-18)
(-0.0382193 -0.00226035 3.34854e-18)
(-0.0423201 -0.00268802 2.40741e-35)
(-0.0466666 -0.0031364 3.00927e-36)
(-0.051283 -0.00361018 2.87127e-18)
(-0.0561965 -0.0041134 2.72846e-18)
(-0.061441 -0.00465034 -3.00927e-36)
(-0.0670528 -0.0052248 0)
(-0.07307 -0.00584159 0)
(-0.0795628 -0.00650608 -5.20979e-35)
(-0.0865207 -0.00722163 3.29138e-36)
(-0.0941841 -0.00800103 6.92131e-35)
(-0.102255 -0.00883842 -3.57825e-18)
(-0.1116 -0.00976574 -3.29e-18)
(-0.120903 -0.010765 6.01853e-36)
(-0.132872 -0.0118556 5.26643e-18)
(-0.14334 -0.0131393 8.88511e-18)
(-0.160856 -0.0143479 0)
(-0.169087 -0.0161594 -4.37863e-18)
(-0.205182 -0.0171799 3.00927e-36)
)
;
    }
    frontAndBack
    {
        type            empty;
    }
}


// ************************************************************************* //
