/*--------------------------------*- C++ -*----------------------------------*\
  =========                 |
  \\      /  F ield         | OpenFOAM: The Open Source CFD Toolbox
   \\    /   O peration     | Website:  https://openfoam.org
    \\  /    A nd           | Version:  8
     \\/     M anipulation  |
\*---------------------------------------------------------------------------*/
FoamFile
{
    version     2.0;
    format      ascii;
    class       volScalarField;
    location    "2000";
    object      p;
}
// * * * * * * * * * * * * * * * * * * * * * * * * * * * * * * * * * * * * * //

dimensions      [0 2 -2 0 0 0 0];

internalField   nonuniform List<scalar> 
12225
(
-4.19776
-5.09156
-5.48864
-5.61793
-5.74594
-5.89262
-6.02105
-6.12336
-6.21201
-6.29229
-6.36542
-6.43203
-6.49192
-6.55666
-6.62958
-6.70618
-6.79224
-6.8882
-4.44576
-5.11625
-5.46066
-5.5891
-5.71643
-5.86221
-5.99034
-6.09353
-6.18433
-6.26737
-6.3413
-6.40434
-6.46236
-6.52607
-6.60285
-6.68636
-6.76354
-6.82736
-4.66648
-5.12364
-5.44565
-5.59493
-5.72584
-5.86707
-5.99223
-6.09472
-6.18435
-6.26582
-6.33761
-6.39936
-6.45883
-6.52391
-6.59746
-6.672
-6.73862
-6.79155
-4.82165
-5.15122
-5.4533
-5.6101
-5.73475
-5.86603
-5.98545
-6.0855
-6.1733
-6.25304
-6.32417
-6.38763
-6.44927
-6.51388
-6.58258
-6.65039
-6.71129
-6.76034
-4.95574
-5.20356
-5.47129
-5.62573
-5.74485
-5.86843
-5.98314
-6.08094
-6.167
-6.24518
-6.31588
-6.38036
-6.44251
-6.50536
-6.56955
-6.63175
-6.68736
-6.73221
-5.07863
-5.26199
-5.49047
-5.64019
-5.75607
-5.87312
-5.98282
-6.07792
-6.16201
-6.23859
-6.30862
-6.37322
-6.43494
-6.49579
-6.55609
-6.61346
-6.66456
-6.70649
-5.18919
-5.32162
-5.51268
-5.65515
-5.76747
-5.87796
-5.98232
-6.07446
-6.15658
-6.23168
-6.30083
-6.36499
-6.42585
-6.48474
-6.54172
-6.59514
-6.64275
-6.68277
-5.27384
-5.37351
-5.53553
-5.66903
-5.77718
-5.88203
-5.98173
-6.07116
-6.15154
-6.2253
-6.29346
-6.35687
-6.41672
-6.47394
-6.52845
-6.57911
-6.62441
-6.66309
-5.34233
-5.42001
-5.55816
-5.68242
-5.78627
-5.88599
-5.98142
-6.06827
-6.14694
-6.21934
-6.28645
-6.34899
-6.4078
-6.46352
-6.51605
-6.5646
-6.60816
-6.64586
-5.41009
-5.47
-5.58512
-5.69854
-5.79707
-5.89113
-5.98174
-6.06547
-6.14201
-6.2127
-6.27845
-6.3398
-6.39732
-6.45143
-6.50204
-6.54863
-6.5906
-6.62737
-5.47611
-5.52208
-5.61622
-5.71757
-5.80971
-5.89767
-5.98295
-6.06298
-6.13691
-6.20553
-6.26955
-6.32938
-6.38537
-6.43774
-6.48648
-6.53125
-6.57177
-6.60766
-5.53932
-5.57467
-5.65065
-5.73933
-5.82409
-5.90564
-5.98521
-6.06101
-6.13186
-6.19802
-6.25995
-6.31793
-6.37214
-6.4227
-6.46959
-6.51267
-6.55183
-6.58686
-5.5986
-5.62604
-5.68697
-5.76318
-5.83986
-5.9148
-5.98849
-6.05963
-6.12698
-6.19032
-6.24984
-6.30569
-6.35792
-6.40658
-6.45167
-6.49316
-6.53105
-6.56525
-5.65258
-5.67418
-5.72315
-5.7879
-5.85631
-5.92461
-5.99244
-6.05873
-6.12226
-6.1825
-6.23938
-6.29289
-6.34302
-6.38975
-6.43312
-6.47312
-6.50983
-6.54321
-5.69936
-5.71673
-5.7566
-5.81156
-5.87212
-5.93409
-5.99634
-6.05786
-6.1175
-6.17453
-6.22866
-6.27977
-6.32778
-6.37264
-6.41436
-6.45299
-6.48861
-6.52124
-5.73628
-5.75069
-5.78405
-5.83139
-5.88528
-5.94167
-5.99901
-6.05623
-6.11223
-6.1662
-6.21771
-6.26653
-6.31254
-6.35568
-6.39593
-6.43334
-6.46799
-6.49994
-5.7595
-5.77207
-5.80135
-5.84364
-5.89278
-5.94502
-5.99864
-6.05254
-6.10563
-6.15709
-6.20641
-6.25333
-6.29767
-6.33937
-6.37841
-6.41483
-6.44871
-6.48013
-5.76291
-5.77489
-5.80291
-5.84348
-5.89083
-5.94129
-5.99326
-6.04556
-6.0972
-6.14732
-6.19542
-6.24122
-6.28456
-6.32539
-6.36368
-6.3995
-6.4329
-6.46403
-5.7462
-5.7589
-5.78845
-5.83076
-5.87939
-5.93073
-5.98326
-6.03598
-6.08781
-6.13795
-6.18593
-6.23153
-6.27464
-6.31519
-6.35326
-6.38885
-6.42213
-6.45315
-5.71449
-5.72904
-5.76268
-5.80957
-5.86192
-5.91603
-5.97086
-6.02544
-6.0787
-6.12983
-6.17848
-6.22452
-6.26789
-6.30862
-6.34674
-6.3824
-6.41569
-6.44681
-5.67089
-5.68869
-5.72917
-5.78327
-5.84105
-5.89925
-5.95756
-6.01507
-6.07052
-6.12324
-6.17303
-6.21988
-6.2638
-6.30488
-6.34325
-6.37906
-6.41249
-6.44371
-5.61722
-5.64015
-5.69083
-5.75449
-5.81876
-5.88186
-5.94451
-6.00563
-6.06376
-6.11837
-6.16953
-6.21735
-6.26194
-6.30343
-6.34207
-6.37802
-6.41158
-6.44287
-5.55442
-5.58529
-5.65035
-5.72542
-5.79646
-5.86488
-5.93252
-5.9976
-6.05851
-6.11514
-6.16777
-6.21664
-6.26187
-6.30375
-6.34253
-6.37859
-6.41213
-6.44351
-5.48253
-5.52579
-5.61043
-5.69772
-5.7749
-5.84889
-5.92191
-5.99102
-6.05466
-6.1132
-6.1673
-6.21714
-6.263
-6.30515
-6.34407
-6.38007
-6.4136
-6.44488
-5.40026
-5.46286
-5.57335
-5.67251
-5.7543
-5.83375
-5.91239
-5.9854
-6.05153
-6.11196
-6.16747
-6.21834
-6.26474
-6.30716
-6.34604
-6.38198
-6.41537
-6.44658
-5.30443
-5.39718
-5.53945
-5.64937
-5.73468
-5.81941
-5.90328
-5.97977
-6.04822
-6.11046
-6.16749
-6.21948
-6.26671
-6.30962
-6.34878
-6.38476
-6.4182
-6.44962
-5.19275
-5.3331
-5.50603
-5.62319
-5.71375
-5.80596
-5.89556
-5.97534
-6.04591
-6.10966
-6.16782
-6.2206
-6.26827
-6.31144
-6.35061
-6.38647
-6.41974
-6.45126
-5.0638
-5.28807
-5.48202
-5.59321
-5.68817
-5.79124
-5.88909
-5.9741
-6.04843
-6.1151
-6.17532
-6.22934
-6.27767
-6.3209
-6.35976
-6.39491
-6.42745
-6.45909
-4.88176
-5.26202
-5.49137
-5.58677
-5.67706
-5.78424
-5.88513
-5.97131
-6.04673
-6.11473
-6.17611
-6.23092
-6.27959
-6.32265
-6.36075
-6.39448
-6.42495
-6.45355
-4.6119
-5.18254
-5.48101
-5.58965
-5.68904
-5.80475
-5.91056
-5.99857
-6.07451
-6.14266
-6.20393
-6.25835
-6.30634
-6.34839
-6.38485
-6.41604
-6.44242
-6.46343
-7.42896
-7.42905
-7.42909
-7.42907
-7.42878
-7.4276
-7.42509
-7.42173
-7.41851
-7.41647
-7.41662
-7.41919
-7.42363
-7.42918
-7.43504
-7.44052
-7.44505
-7.44821
-7.44997
-7.45068
-7.45062
-7.44998
-7.44899
-7.44795
-7.44707
-7.44648
-7.44615
-7.44593
-7.44569
-7.44529
-7.44474
-7.44401
-7.44305
-7.44177
-7.44026
-7.43877
-7.43796
-7.43843
-7.44025
-7.44274
-7.44507
-7.44684
-7.44833
-7.44999
-7.45225
-7.4556
-7.45955
-7.46295
-7.46541
-7.46916
-7.47819
-7.49657
-7.52405
-7.55924
-7.60214
-7.65411
-7.715
-7.78298
-7.85611
-7.93174
-8.00755
-8.08236
-8.15483
-8.22345
-8.28749
-8.34663
-8.40067
-8.44959
-8.49344
-8.53229
-8.56625
-8.5954
-8.61985
-8.63963
-8.65481
-8.6654
-8.67145
-8.67292
-8.66983
-8.66213
-8.64984
-8.63288
-8.61128
-8.58496
-8.55393
-8.51812
-8.47749
-8.43194
-8.38138
-8.32567
-8.26481
-8.19876
-8.12754
-8.05111
-7.96943
-7.88245
-7.79014
-7.69255
-7.58964
-7.48107
-7.36639
-7.24561
-7.11886
-6.98616
-6.8475
-6.70288
-6.55228
-6.39575
-6.23329
-6.06497
-5.89085
-5.71101
-5.52555
-5.33461
-5.1383
-4.93679
-4.73024
-4.51882
-4.30274
-4.08218
-3.85736
-3.62849
-3.3958
-3.15951
-2.91986
-2.67706
-2.43139
-2.18306
-1.93233
-1.67941
-1.42455
-1.16798
-0.909935
-0.6507
-0.390607
-0.129885
0.131579
0.393724
0.656162
0.918634
1.18092
1.44281
1.70413
1.96469
2.22433
2.48289
2.74021
2.99612
3.25047
3.50309
3.75384
4.00257
4.24914
4.49341
4.73524
4.97453
5.21115
5.44502
5.67604
5.90412
6.12919
6.35117
6.56998
6.78553
6.99773
7.20652
7.41181
7.61353
7.8116
8.00595
8.1965
8.38316
8.56583
8.74443
8.91888
9.08922
9.25579
9.41834
9.58021
9.73279
-7.43015
-7.43033
-7.43069
-7.43108
-7.43109
-7.4303
-7.42838
-7.42591
-7.42415
-7.42409
-7.42601
-7.42976
-7.4348
-7.44049
-7.44618
-7.45137
-7.45567
-7.45888
-7.46081
-7.46126
-7.46031
-7.45829
-7.45565
-7.45286
-7.45036
-7.4484
-7.44704
-7.44611
-7.44537
-7.44467
-7.444
-7.44332
-7.44257
-7.44165
-7.44055
-7.43967
-7.43971
-7.44111
-7.4436
-7.44627
-7.44801
-7.44853
-7.44832
-7.44741
-7.44601
-7.44576
-7.44913
-7.45616
-7.46308
-7.47032
-7.4813
-7.4973
-7.52018
-7.55352
-7.59982
-7.65787
-7.72471
-7.7979
-7.87448
-7.95208
-8.02922
-8.10387
-8.1742
-8.23988
-8.30086
-8.35695
-8.40819
-8.45459
-8.49628
-8.53331
-8.56578
-8.59373
-8.61724
-8.63631
-8.65097
-8.66119
-8.667
-8.66835
-8.66523
-8.65759
-8.64542
-8.62865
-8.60727
-8.58124
-8.55053
-8.51511
-8.47493
-8.42989
-8.3799
-8.32487
-8.26472
-8.19947
-8.12909
-8.05355
-7.97279
-7.8867
-7.79518
-7.69804
-7.59512
-7.48642
-7.37213
-7.25217
-7.12638
-6.99469
-6.85706
-6.71347
-6.56392
-6.40843
-6.247
-6.07971
-5.9066
-5.72776
-5.54329
-5.3533
-5.15794
-4.95734
-4.75167
-4.54111
-4.32585
-4.10609
-3.88204
-3.6539
-3.42191
-3.18629
-2.94727
-2.70508
-2.45997
-2.21216
-1.96191
-1.70944
-1.45498
-1.19873
-0.940917
-0.681745
-0.421413
-0.160154
0.101583
0.3636
0.625892
0.888234
1.15041
1.41223
1.6735
1.93405
2.1937
2.45229
2.70967
2.96566
3.22011
3.47285
3.72375
3.97265
4.21942
4.4639
4.70598
4.94552
5.18242
5.41657
5.64788
5.87627
6.10166
6.32397
6.54311
6.759
6.97156
7.18071
7.38638
7.58848
7.78695
7.98171
8.17268
8.35981
8.54305
8.72229
8.89748
9.0685
9.23562
9.39846
9.56242
9.71428
-7.43144
-7.43142
-7.43145
-7.43153
-7.43163
-7.43169
-7.43195
-7.43293
-7.43511
-7.43865
-7.44333
-7.44878
-7.45458
-7.46028
-7.46549
-7.46991
-7.47334
-7.47566
-7.47679
-7.47668
-7.47535
-7.47293
-7.4696
-7.46557
-7.46107
-7.4564
-7.45185
-7.4477
-7.44417
-7.44133
-7.43912
-7.43733
-7.43571
-7.43433
-7.43367
-7.4344
-7.43695
-7.44096
-7.44502
-7.44735
-7.4467
-7.44412
-7.44181
-7.44129
-7.44205
-7.44397
-7.44964
-7.46034
-7.47532
-7.4952
-7.52072
-7.55204
-7.58977
-7.63468
-7.68696
-7.74546
-7.80842
-7.87421
-7.9412
-8.00817
-8.0743
-8.13856
-8.20002
-8.25818
-8.3128
-8.36364
-8.41059
-8.45356
-8.49252
-8.52741
-8.55822
-8.58492
-8.60748
-8.62587
-8.64006
-8.65
-8.65565
-8.65697
-8.65392
-8.64643
-8.63448
-8.61801
-8.59697
-8.57133
-8.54106
-8.50612
-8.46647
-8.42203
-8.37271
-8.31839
-8.25904
-8.19464
-8.12515
-8.05056
-7.9708
-7.88578
-7.7954
-7.6995
-7.59791
-7.49055
-7.37751
-7.25876
-7.13421
-7.00379
-6.86745
-6.72517
-6.57694
-6.42276
-6.26265
-6.09666
-5.92485
-5.7473
-5.56409
-5.37535
-5.1812
-4.9818
-4.77729
-4.56787
-4.3537
-4.13501
-3.91198
-3.68484
-3.4538
-3.2191
-2.98096
-2.73962
-2.4953
-2.24826
-1.99873
-1.74694
-1.49311
-1.23746
-0.980215
-0.721611
-0.461848
-0.201148
0.0601386
0.321805
0.58376
0.84579
1.10769
1.36927
1.63034
1.89071
2.15023
2.40872
2.66602
2.92197
3.17639
3.42914
3.68008
3.92904
4.1759
4.42051
4.66273
4.90244
5.13953
5.37388
5.6054
5.834
6.05961
6.28213
6.5015
6.71761
6.9304
7.13977
7.34566
7.54797
7.74665
7.94161
8.13278
8.32007
8.50341
8.68275
8.85813
9.02953
9.19757
9.36113
9.52779
9.67542
-7.43256
-7.43227
-7.4319
-7.43192
-7.43314
-7.43596
-7.44019
-7.44544
-7.45136
-7.45763
-7.46396
-7.47007
-7.47575
-7.4808
-7.48506
-7.48838
-7.49066
-7.49185
-7.49191
-7.49081
-7.48857
-7.48526
-7.48097
-7.47579
-7.4698
-7.46315
-7.45603
-7.44874
-7.44165
-7.43514
-7.42947
-7.42486
-7.42162
-7.42028
-7.42153
-7.42547
-7.43085
-7.43567
-7.43858
-7.43929
-7.43848
-7.43785
-7.43896
-7.44254
-7.44909
-7.45934
-7.47415
-7.49423
-7.51967
-7.55011
-7.58501
-7.62408
-7.66712
-7.71401
-7.7646
-7.81844
-7.87487
-7.93307
-7.99213
-8.05125
-8.10971
-8.16682
-8.22197
-8.27469
-8.32464
-8.37155
-8.41523
-8.45552
-8.49228
-8.52543
-8.55486
-8.58048
-8.60224
-8.62003
-8.63381
-8.64348
-8.64899
-8.65027
-8.64727
-8.63992
-8.62816
-8.61194
-8.59121
-8.56593
-8.53605
-8.50155
-8.46238
-8.41849
-8.36976
-8.31614
-8.25751
-8.19388
-8.12523
-8.0515
-7.97261
-7.88849
-7.799
-7.70405
-7.60351
-7.49732
-7.38546
-7.26789
-7.14453
-7.01532
-6.88021
-6.73916
-6.59217
-6.43922
-6.28034
-6.11558
-5.94498
-5.76861
-5.58658
-5.39898
-5.20596
-5.00765
-4.80421
-4.59582
-4.38267
-4.16495
-3.94286
-3.71664
-3.48648
-3.25263
-3.0153
-2.77474
-2.53118
-2.28486
-2.036
-1.78485
-1.53163
-1.27655
-1.01985
-0.761761
-0.502519
-0.242353
0.0184843
0.279794
0.541416
0.803143
1.06477
1.32611
1.58696
1.84717
2.10654
2.36492
2.62214
2.87803
3.13242
3.38517
3.63612
3.88514
4.13207
4.37678
4.61912
4.85897
5.09621
5.33073
5.56244
5.79123
6.01703
6.23975
6.45931
6.67563
6.88861
7.09818
7.30424
7.50673
7.70556
7.90067
8.09199
8.27944
8.46297
8.64254
8.81819
8.98993
9.15848
9.32205
9.48937
9.63055
-7.4349
-7.4343
-7.43391
-7.4354
-7.43977
-7.44629
-7.45384
-7.46171
-7.46942
-7.47664
-7.48322
-7.4891
-7.49421
-7.49851
-7.50189
-7.50429
-7.50562
-7.50585
-7.50495
-7.5029
-7.49969
-7.49538
-7.49001
-7.48362
-7.47628
-7.46806
-7.45906
-7.44951
-7.43974
-7.43027
-7.42173
-7.41496
-7.41095
-7.41061
-7.4137
-7.41824
-7.42263
-7.42622
-7.429
-7.43145
-7.43439
-7.43898
-7.44623
-7.45715
-7.47255
-7.49269
-7.51713
-7.54529
-7.57693
-7.61165
-7.64921
-7.68957
-7.73268
-7.77849
-7.82681
-7.87727
-7.92939
-7.9826
-8.0363
-8.08992
-8.14293
-8.19481
-8.24511
-8.29347
-8.33957
-8.38314
-8.42396
-8.46184
-8.4966
-8.5281
-8.55619
-8.58075
-8.60165
-8.61879
-8.63206
-8.64136
-8.64661
-8.64773
-8.64465
-8.63728
-8.62558
-8.60947
-8.58891
-8.56383
-8.53422
-8.50002
-8.46121
-8.41772
-8.36949
-8.31637
-8.25837
-8.19539
-8.12745
-8.05449
-7.97639
-7.89309
-7.80445
-7.71039
-7.6108
-7.50562
-7.39478
-7.27825
-7.15591
-7.02774
-6.89366
-6.75366
-6.60769
-6.45577
-6.2979
-6.13413
-5.9645
-5.78909
-5.60799
-5.4213
-5.22916
-5.03169
-4.82908
-4.62149
-4.40911
-4.19213
-3.97077
-3.74523
-3.51575
-3.28254
-3.04584
-2.80588
-2.5629
-2.31712
-2.0688
-1.81815
-1.56539
-1.31075
-1.05448
-0.796798
-0.537947
-0.278157
-0.0176574
0.243356
0.504698
0.766164
1.02756
1.28868
1.54936
1.80941
2.06865
2.32693
2.58407
2.83989
3.09425
3.34698
3.59794
3.84699
4.09398
4.33876
4.58119
4.82115
5.05852
5.29318
5.52503
5.75398
5.97995
6.20285
6.42258
6.63907
6.85223
7.06197
7.26822
7.47089
7.6699
7.8652
8.05669
8.24434
8.42807
8.60784
8.78369
8.95553
9.12405
9.28693
9.45362
9.58782
-7.43925
-7.43833
-7.43888
-7.44354
-7.45123
-7.45997
-7.46882
-7.47729
-7.48507
-7.49209
-7.49834
-7.50383
-7.50847
-7.51222
-7.515
-7.51674
-7.51739
-7.51692
-7.5153
-7.51252
-7.5086
-7.50355
-7.49739
-7.49012
-7.48173
-7.47235
-7.46211
-7.45122
-7.44008
-7.42936
-7.41994
-7.41306
-7.4097
-7.4095
-7.41097
-7.41307
-7.41585
-7.41974
-7.42504
-7.43168
-7.43999
-7.45124
-7.46646
-7.48571
-7.50873
-7.53511
-7.56456
-7.59668
-7.63124
-7.66803
-7.7069
-7.74778
-7.79058
-7.83517
-7.88138
-7.92893
-7.97748
-8.02667
-8.07609
-8.12535
-8.17407
-8.22186
-8.26838
-8.31329
-8.35632
-8.39719
-8.43568
-8.47156
-8.50463
-8.53471
-8.56163
-8.58522
-8.60533
-8.62183
-8.63458
-8.64347
-8.64839
-8.64926
-8.64598
-8.63849
-8.62671
-8.61058
-8.59004
-8.56504
-8.53555
-8.50152
-8.46292
-8.41972
-8.3718
-8.31912
-8.26156
-8.19912
-8.13177
-8.05942
-7.98201
-7.89939
-7.81149
-7.7182
-7.61942
-7.51508
-7.40511
-7.28942
-7.16795
-7.04062
-6.90738
-6.7682
-6.62305
-6.47192
-6.31484
-6.15182
-5.98292
-5.80821
-5.62778
-5.44174
-5.25021
-5.05334
-4.8513
-4.64425
-4.43239
-4.21591
-3.99503
-3.76996
-3.54092
-3.30815
-3.07186
-2.83231
-2.58972
-2.34433
-2.09637
-1.84606
-1.59363
-1.33932
-1.08336
-0.825976
-0.56742
-0.307911
-0.0476697
0.213102
0.474214
0.735464
0.996656
1.2576
1.51811
1.77801
2.03714
2.29531
2.55235
2.8081
3.0624
3.31509
3.56604
3.81509
4.0621
4.30691
4.54939
4.7894
5.02684
5.26158
5.49353
5.72258
5.94866
6.17167
6.39153
6.60816
6.82145
7.03133
7.23771
7.44052
7.63967
7.8351
8.02674
8.21451
8.39836
8.57822
8.7541
8.92583
9.09402
9.25587
9.42166
9.54908
-7.44459
-7.44415
-7.44701
-7.45448
-7.46354
-7.47254
-7.4811
-7.4891
-7.49646
-7.50316
-7.50914
-7.51433
-7.51865
-7.52203
-7.52439
-7.5257
-7.52589
-7.52496
-7.52288
-7.51964
-7.51527
-7.50977
-7.50306
-7.49508
-7.48598
-7.47597
-7.46527
-7.45415
-7.44311
-7.43294
-7.42479
-7.4193
-7.41586
-7.41358
-7.41258
-7.41343
-7.41678
-7.42248
-7.43046
-7.4414
-7.45589
-7.47388
-7.49517
-7.51954
-7.54675
-7.57645
-7.60843
-7.64253
-7.67855
-7.71633
-7.75569
-7.79651
-7.83866
-7.88202
-7.92643
-7.9717
-8.01761
-8.06388
-8.11024
-8.15642
-8.20209
-8.24696
-8.29074
-8.33315
-8.37391
-8.41277
-8.44949
-8.48384
-8.5156
-8.54456
-8.57052
-8.5933
-8.61273
-8.62864
-8.64089
-8.64934
-8.65389
-8.65444
-8.65089
-8.64317
-8.6312
-8.61493
-8.59429
-8.56923
-8.53972
-8.50573
-8.46722
-8.42415
-8.37646
-8.32402
-8.26681
-8.20478
-8.13789
-8.06605
-7.98917
-7.90713
-7.81984
-7.72719
-7.6291
-7.52544
-7.41618
-7.30118
-7.1804
-7.05374
-6.92118
-6.78263
-6.6381
-6.48756
-6.33103
-6.16854
-6.00015
-5.82591
-5.64592
-5.4603
-5.26915
-5.07265
-4.87093
-4.6642
-4.45262
-4.23643
-4.01581
-3.79101
-3.56222
-3.32969
-3.09365
-2.85434
-2.61198
-2.36682
-2.11908
-1.86899
-1.61678
-1.36268
-1.10694
-0.84978
-0.591444
-0.332152
-0.0721154
0.18846
0.449379
0.710446
0.971462
1.23224
1.4926
1.75237
2.01137
2.26943
2.52637
2.78203
3.03625
3.28889
3.5398
3.78882
4.03581
4.28061
4.52308
4.76311
5.00056
5.23532
5.4673
5.69641
5.92255
6.14564
6.36558
6.58228
6.79566
7.00562
7.21208
7.41497
7.6142
7.80972
8.00144
8.18928
8.37317
8.55303
8.72882
8.90029
9.06799
9.2287
9.39362
9.51476
-7.44867
-7.44957
-7.45517
-7.46371
-7.47241
-7.48074
-7.48871
-7.49627
-7.50333
-7.5098
-7.51558
-7.52057
-7.52469
-7.52786
-7.53001
-7.53109
-7.53105
-7.52989
-7.52757
-7.52412
-7.51954
-7.51373
-7.50662
-7.49839
-7.48929
-7.47948
-7.46919
-7.45888
-7.4493
-7.44112
-7.43457
-7.429
-7.42399
-7.42034
-7.419
-7.42029
-7.42474
-7.43279
-7.44452
-7.4598
-7.47836
-7.49998
-7.52444
-7.55144
-7.58077
-7.61221
-7.64556
-7.68065
-7.71731
-7.75538
-7.79471
-7.83519
-7.87668
-7.91908
-7.96223
-8.00598
-8.05015
-8.09454
-8.13893
-8.18309
-8.22677
-8.26972
-8.31168
-8.3524
-8.39162
-8.42911
-8.46461
-8.49788
-8.5287
-8.55684
-8.58209
-8.60423
-8.6231
-8.6385
-8.65028
-8.65831
-8.66246
-8.66263
-8.65874
-8.6507
-8.63844
-8.62191
-8.60105
-8.57581
-8.54616
-8.51207
-8.47353
-8.43049
-8.38287
-8.33062
-8.27363
-8.21188
-8.14532
-8.07388
-7.99742
-7.91586
-7.82906
-7.73695
-7.6394
-7.53632
-7.42761
-7.31318
-7.19294
-7.06681
-6.93474
-6.79668
-6.65259
-6.50246
-6.34632
-6.18417
-6.01609
-5.84213
-5.66239
-5.47697
-5.28602
-5.08967
-4.88809
-4.68147
-4.47001
-4.25391
-4.03339
-3.80867
-3.57997
-3.34753
-3.11158
-2.87237
-2.63012
-2.38507
-2.13745
-1.88747
-1.63537
-1.38142
-1.12582
-0.868814
-0.610641
-0.351515
-0.0916432
0.168768
0.429523
0.690427
0.951285
1.21192
1.47214
1.73178
1.99065
2.24859
2.50541
2.76097
3.0151
3.26766
3.51851
3.76749
4.01442
4.25917
4.5016
4.74159
4.97901
5.21376
5.44574
5.67486
5.90103
6.12415
6.34413
6.56087
6.77428
6.98427
7.19077
7.3937
7.59299
7.78856
7.98032
8.16818
8.35206
8.53186
8.70749
8.87863
9.04576
9.20534
9.36946
9.48495
-7.4498
-7.45242
-7.45961
-7.46782
-7.4758
-7.48361
-7.49121
-7.49852
-7.50541
-7.51178
-7.51749
-7.52243
-7.52651
-7.52965
-7.53178
-7.53284
-7.53281
-7.53165
-7.52936
-7.52592
-7.52129
-7.51539
-7.50836
-7.50044
-7.49182
-7.48277
-7.47371
-7.46512
-7.45734
-7.45029
-7.44375
-7.43765
-7.43244
-7.42917
-7.42872
-7.43163
-7.43828
-7.44872
-7.46269
-7.48003
-7.50048
-7.52377
-7.54967
-7.5779
-7.60825
-7.64051
-7.67449
-7.71001
-7.7469
-7.78504
-7.82428
-7.86451
-7.90559
-7.94741
-7.98982
-8.0327
-8.07589
-8.11921
-8.16248
-8.20549
-8.24803
-8.28987
-8.33078
-8.37053
-8.40886
-8.44554
-8.48032
-8.51296
-8.5432
-8.5708
-8.59555
-8.61724
-8.63566
-8.65062
-8.66198
-8.66957
-8.67329
-8.67303
-8.66872
-8.66028
-8.64764
-8.63075
-8.60956
-8.58401
-8.5541
-8.5198
-8.48111
-8.43798
-8.39039
-8.33817
-8.28132
-8.21976
-8.15345
-8.08229
-8.00617
-7.92498
-7.83859
-7.74691
-7.6498
-7.54718
-7.43891
-7.32493
-7.20511
-7.07939
-6.94768
-6.80997
-6.66618
-6.51633
-6.3604
-6.19845
-6.03052
-5.85668
-5.67702
-5.49166
-5.30073
-5.10437
-4.90277
-4.6961
-4.4846
-4.26844
-4.04788
-3.82311
-3.59438
-3.3619
-3.12594
-2.88671
-2.64447
-2.39944
-2.15185
-1.9019
-1.64986
-1.39598
-1.14047
-0.883579
-0.625532
-0.366535
-0.106803
0.153465
0.414072
0.674824
0.935534
1.19602
1.4561
1.7156
1.97434
2.23214
2.48884
2.74427
2.99829
3.25075
3.50152
3.75043
3.99729
4.24196
4.48432
4.72423
4.96159
5.19629
5.42824
5.65733
5.88349
6.10662
6.32661
6.54334
6.75675
6.96675
7.17326
7.37621
7.57551
7.7711
7.96287
8.15073
8.33456
8.51424
8.68967
8.86043
9.02697
9.18544
9.34882
9.45939
-7.44643
-7.45047
-7.4578
-7.46543
-7.47306
-7.48067
-7.48816
-7.49542
-7.50234
-7.50879
-7.51463
-7.51974
-7.524
-7.52734
-7.52966
-7.53092
-7.53106
-7.53007
-7.52791
-7.52459
-7.52007
-7.51442
-7.50782
-7.50054
-7.49287
-7.4851
-7.47746
-7.46999
-7.46275
-7.45583
-7.4494
-7.44384
-7.43983
-7.43811
-7.43929
-7.44375
-7.45174
-7.4633
-7.4783
-7.49655
-7.51782
-7.54184
-7.56835
-7.5971
-7.62788
-7.66049
-7.69474
-7.73046
-7.76751
-7.80574
-7.84501
-7.8852
-7.92617
-7.9678
-8.00998
-8.05256
-8.09539
-8.13832
-8.18117
-8.22375
-8.26586
-8.30728
-8.3478
-8.38718
-8.42519
-8.46157
-8.49607
-8.52843
-8.55839
-8.5857
-8.61014
-8.63148
-8.64952
-8.66408
-8.67499
-8.68212
-8.68536
-8.68463
-8.67983
-8.67092
-8.65783
-8.64049
-8.61887
-8.59293
-8.56265
-8.52805
-8.48912
-8.44584
-8.39812
-8.34593
-8.28911
-8.22765
-8.16151
-8.09056
-8.0147
-7.93379
-7.84774
-7.75639
-7.65965
-7.55739
-7.4495
-7.33586
-7.21637
-7.09095
-6.95951
-6.82202
-6.67843
-6.52873
-6.37292
-6.21104
-6.04313
-5.86928
-5.68958
-5.50414
-5.3131
-5.11662
-4.91486
-4.70804
-4.49637
-4.28005
-4.05934
-3.83442
-3.60556
-3.37296
-3.1369
-2.89759
-2.65529
-2.41021
-2.16258
-1.91262
-1.6606
-1.40675
-1.15131
-0.894498
-0.63655
-0.377668
-0.118062
0.14207
0.402533
0.663137
0.923696
1.18403
1.44396
1.7033
1.96188
2.21953
2.47608
2.73137
2.98526
3.23761
3.48828
3.7371
3.98385
4.22841
4.47066
4.71047
4.94773
5.18235
5.41422
5.64326
5.86939
6.09251
6.31247
6.52918
6.74256
6.95254
7.15903
7.36197
7.56127
7.75687
7.94864
8.13645
8.3202
8.49974
8.67492
8.84526
9.0112
9.16862
9.33131
9.4377
-7.43659
-7.44128
-7.44828
-7.45587
-7.46368
-7.47147
-7.47913
-7.48659
-7.49375
-7.50049
-7.50666
-7.5121
-7.5167
-7.52034
-7.52296
-7.52449
-7.52489
-7.52415
-7.52226
-7.51924
-7.51514
-7.51011
-7.50434
-7.49801
-7.49127
-7.48426
-7.47713
-7.46999
-7.46298
-7.45638
-7.45063
-7.44617
-7.44346
-7.44304
-7.44544
-7.45098
-7.45988
-7.47217
-7.48779
-7.50654
-7.52821
-7.55254
-7.5793
-7.60827
-7.63924
-7.67204
-7.70648
-7.74241
-7.77968
-7.81812
-7.8576
-7.898
-7.93919
-7.98104
-8.02343
-8.0662
-8.10922
-8.15232
-8.19534
-8.2381
-8.28038
-8.32196
-8.36262
-8.40211
-8.44021
-8.47666
-8.51119
-8.54353
-8.57344
-8.60063
-8.62488
-8.64596
-8.66368
-8.67784
-8.6883
-8.69493
-8.69764
-8.69635
-8.691
-8.68154
-8.66791
-8.65005
-8.62791
-8.60147
-8.57073
-8.53574
-8.4965
-8.45298
-8.40515
-8.35283
-8.29602
-8.23461
-8.16856
-8.09776
-8.02211
-7.94144
-7.85566
-7.7646
-7.66817
-7.5662
-7.45863
-7.34526
-7.22605
-7.10084
-6.96961
-6.83226
-6.68879
-6.53915
-6.38337
-6.22147
-6.05351
-5.87956
-5.69973
-5.51413
-5.32289
-5.12619
-4.9242
-4.71714
-4.50523
-4.2887
-4.06776
-3.84266
-3.6136
-3.38086
-3.14464
-2.90522
-2.66281
-2.41767
-2.16997
-1.91998
-1.66794
-1.41412
-1.15872
-0.901997
-0.644148
-0.385387
-0.125914
0.134072
0.394379
0.654822
0.915216
1.17538
1.43514
1.69432
1.95273
2.2102
2.46658
2.72171
2.97544
3.22765
3.47822
3.72693
3.97355
4.21796
4.46006
4.69974
4.93688
5.17138
5.40316
5.63212
5.85821
6.08131
6.30123
6.51789
6.73122
6.94115
7.14761
7.35052
7.54982
7.74541
7.93717
8.12492
8.30857
8.48794
8.66284
8.83275
8.99809
9.15454
9.31653
9.41951
-7.41866
-7.42331
-7.43047
-7.43883
-7.44734
-7.4556
-7.46361
-7.47141
-7.47898
-7.48619
-7.49286
-7.49878
-7.5038
-7.50785
-7.51086
-7.51278
-7.51359
-7.51328
-7.51188
-7.50942
-7.50597
-7.50164
-7.49654
-7.49082
-7.48458
-7.47797
-7.47111
-7.46421
-7.4576
-7.4516
-7.44655
-7.44288
-7.44109
-7.44166
-7.445
-7.45141
-7.46106
-7.47396
-7.49003
-7.50911
-7.53099
-7.55548
-7.58236
-7.61146
-7.64259
-7.67559
-7.71028
-7.74649
-7.78408
-7.82291
-7.86283
-7.90373
-7.94547
-7.98792
-8.03091
-8.07431
-8.11795
-8.16168
-8.20532
-8.24866
-8.29152
-8.33366
-8.37485
-8.41484
-8.45338
-8.4902
-8.52502
-8.55757
-8.58757
-8.61475
-8.63887
-8.65971
-8.67709
-8.69082
-8.70073
-8.70673
-8.70877
-8.70681
-8.70079
-8.6907
-8.67645
-8.65799
-8.63525
-8.60821
-8.57691
-8.54146
-8.50188
-8.45813
-8.4101
-8.35773
-8.30086
-8.23947
-8.1735
-8.10284
-8.02737
-7.94694
-7.86139
-7.77061
-7.67444
-7.57277
-7.46546
-7.35236
-7.23337
-7.10837
-6.97728
-6.84005
-6.69665
-6.54704
-6.39125
-6.22929
-6.06122
-5.88712
-5.7071
-5.52128
-5.3298
-5.13285
-4.9306
-4.72328
-4.51113
-4.29436
-4.07321
-3.8479
-3.61866
-3.38575
-3.14939
-2.90985
-2.66735
-2.42213
-2.17438
-1.92433
-1.67227
-1.41848
-1.16316
-0.906528
-0.648799
-0.390175
-0.130856
0.128965
0.389099
0.649361
0.909572
1.16955
1.42912
1.68809
1.94631
2.20358
2.45977
2.71471
2.96827
3.22033
3.47082
3.71943
3.96587
4.2101
4.45203
4.69153
4.92853
5.1629
5.39456
5.62344
5.84948
6.07255
6.29242
6.509
6.72227
6.93214
7.13855
7.34143
7.54072
7.73631
7.92805
8.11574
8.29926
8.47844
8.65306
8.82254
8.9873
9.14283
9.30412
9.40441
-7.3922
-7.39668
-7.40478
-7.41457
-7.42408
-7.4329
-7.44133
-7.44964
-7.45792
-7.46592
-7.47332
-7.47989
-7.48547
-7.49003
-7.49354
-7.49599
-7.49735
-7.49762
-7.49681
-7.49495
-7.4921
-7.48834
-7.48375
-7.47843
-7.4725
-7.46611
-7.45951
-7.45294
-7.44669
-7.44108
-7.43654
-7.43353
-7.4325
-7.43389
-7.43803
-7.44517
-7.45542
-7.46878
-7.48516
-7.50443
-7.52643
-7.55099
-7.57796
-7.60718
-7.63851
-7.67178
-7.70682
-7.74347
-7.78156
-7.82096
-7.86153
-7.90316
-7.94568
-7.98896
-8.03283
-8.07716
-8.12176
-8.16646
-8.21106
-8.25535
-8.29912
-8.34213
-8.38416
-8.42491
-8.46414
-8.50155
-8.53685
-8.56972
-8.59985
-8.62692
-8.65075
-8.67116
-8.68801
-8.7011
-8.71024
-8.71539
-8.71659
-8.71384
-8.7071
-8.69636
-8.68151
-8.66246
-8.6391
-8.61139
-8.57945
-8.5435
-8.50361
-8.45966
-8.41154
-8.35905
-8.30216
-8.24081
-8.17492
-8.10444
-8.02917
-7.94898
-7.86367
-7.77318
-7.67729
-7.57593
-7.46889
-7.35608
-7.23731
-7.11252
-6.98158
-6.84449
-6.70115
-6.55159
-6.39578
-6.23377
-6.0656
-5.89136
-5.71115
-5.52508
-5.33336
-5.13617
-4.93371
-4.72616
-4.5138
-4.29681
-4.07547
-3.84996
-3.62057
-3.38751
-3.15105
-2.91141
-2.66886
-2.42361
-2.17587
-1.9258
-1.67378
-1.42007
-1.16488
-0.908403
-0.65085
-0.392417
-0.133304
0.1263
0.38621
0.646243
0.90622
1.16596
1.42529
1.68402
1.94199
2.19903
2.45498
2.7097
2.96304
3.21493
3.46542
3.714
3.96025
4.20427
4.446
4.68533
4.92216
5.15639
5.38793
5.61671
5.84274
6.06582
6.28564
6.50214
6.71532
6.92513
7.13149
7.33434
7.53362
7.72924
7.92095
8.10856
8.29196
8.47094
8.64527
8.81432
8.97852
9.13321
9.29376
9.39207
-7.35846
-7.36327
-7.37293
-7.38454
-7.39518
-7.40474
-7.41395
-7.42297
-7.43194
-7.44085
-7.44935
-7.45694
-7.46325
-7.4683
-7.47233
-7.47535
-7.47732
-7.47821
-7.47799
-7.4767
-7.47435
-7.471
-7.46673
-7.46165
-7.45591
-7.44971
-7.44326
-7.43683
-7.43078
-7.42549
-7.4214
-7.41894
-7.41855
-7.42058
-7.42533
-7.43297
-7.4436
-7.4572
-7.47374
-7.49309
-7.51515
-7.53976
-7.5668
-7.59615
-7.62767
-7.66121
-7.69661
-7.73371
-7.77238
-7.81247
-7.85384
-7.89635
-7.93983
-7.98415
-8.02913
-8.07461
-8.1204
-8.16632
-8.21212
-8.25759
-8.30247
-8.34652
-8.38947
-8.43105
-8.47097
-8.50892
-8.54458
-8.5776
-8.6076
-8.63427
-8.65746
-8.67714
-8.69319
-8.70534
-8.71335
-8.71732
-8.71752
-8.71401
-8.7067
-8.69551
-8.68029
-8.66086
-8.63706
-8.60878
-8.5762
-8.53977
-8.49962
-8.45553
-8.40725
-8.35468
-8.29771
-8.23634
-8.17057
-8.10024
-8.02519
-7.94519
-7.86013
-7.76986
-7.67427
-7.5732
-7.46648
-7.35393
-7.23541
-7.1108
-6.98002
-6.84304
-6.6998
-6.55029
-6.3945
-6.23245
-6.06419
-5.88983
-5.7095
-5.52333
-5.33149
-5.13416
-4.93154
-4.72381
-4.51122
-4.29397
-4.07235
-3.84659
-3.61696
-3.3837
-3.14707
-2.9073
-2.66469
-2.41945
-2.17185
-1.9221
-1.6704
-1.41697
-1.16206
-0.905873
-0.648628
-0.390523
-0.131755
0.12749
0.387029
0.646683
0.906272
1.16562
1.42454
1.68287
1.94043
2.19707
2.45261
2.70692
2.95985
3.21138
3.4617
3.71018
3.95616
4.19992
4.44141
4.68053
4.91718
5.15125
5.38265
5.61134
5.83743
6.06064
6.28045
6.49686
6.70996
6.91971
7.12604
7.32887
7.52818
7.72387
7.9156
8.10313
8.28639
8.46518
8.63922
8.80786
8.97152
9.12543
9.28518
9.3822
-7.32048
-7.32621
-7.33798
-7.35185
-7.36365
-7.37349
-7.38311
-7.39322
-7.4035
-7.41356
-7.42313
-7.43176
-7.43889
-7.44451
-7.44905
-7.45266
-7.45522
-7.45669
-7.457
-7.45617
-7.45418
-7.45112
-7.44705
-7.44209
-7.4364
-7.43018
-7.42372
-7.41733
-7.4114
-7.40634
-7.40257
-7.40049
-7.40048
-7.40286
-7.40788
-7.41568
-7.42635
-7.43991
-7.45635
-7.47557
-7.49749
-7.522
-7.54901
-7.57841
-7.61006
-7.64382
-7.67954
-7.7171
-7.75637
-7.7972
-7.83942
-7.88292
-7.92749
-7.973
-8.01922
-8.066
-8.11307
-8.16022
-8.20718
-8.25372
-8.29956
-8.34445
-8.38809
-8.43022
-8.47053
-8.50869
-8.54437
-8.57719
-8.60663
-8.6323
-8.65428
-8.67283
-8.68784
-8.69876
-8.70508
-8.70727
-8.70619
-8.70195
-8.69433
-8.68306
-8.66786
-8.64848
-8.62483
-8.59701
-8.56515
-8.52928
-8.48935
-8.44522
-8.39683
-8.34406
-8.28697
-8.22554
-8.15977
-8.08949
-8.01452
-7.93462
-7.84969
-7.75958
-7.6642
-7.56333
-7.45684
-7.34448
-7.22615
-7.10167
-6.97102
-6.8341
-6.69092
-6.5414
-6.38558
-6.22344
-6.05506
-5.88055
-5.70008
-5.51379
-5.3218
-5.12432
-4.92149
-4.71357
-4.50071
-4.2832
-4.06128
-3.83526
-3.60537
-3.3719
-3.13507
-2.89519
-2.65248
-2.40726
-2.1598
-1.91037
-1.65903
-1.40593
-1.15135
-0.895515
-0.638641
-0.380938
-0.122596
0.136202
0.395276
0.654447
0.913539
1.17237
1.43078
1.68857
1.94558
2.20164
2.4566
2.71029
2.96253
3.21321
3.46221
3.70945
3.95479
4.19807
4.43915
4.6779
4.9142
5.14794
5.37903
5.60743
5.83341
6.05665
6.2764
6.4927
6.70572
6.91542
7.12172
7.32456
7.52394
7.71984
7.91169
8.09915
8.2823
8.4609
8.63468
8.80294
8.9661
9.11928
9.27821
9.37458
-7.28194
-7.28894
-7.30329
-7.31912
-7.33125
-7.34155
-7.35229
-7.36356
-7.37493
-7.38607
-7.39669
-7.40629
-7.41423
-7.42052
-7.42569
-7.42994
-7.43311
-7.43512
-7.43589
-7.43543
-7.4337
-7.43078
-7.42672
-7.42169
-7.41585
-7.40946
-7.40281
-7.39627
-7.39023
-7.38508
-7.38123
-7.37906
-7.37892
-7.38109
-7.38581
-7.39323
-7.40347
-7.41655
-7.43248
-7.45121
-7.47273
-7.49695
-7.52381
-7.55318
-7.58494
-7.61894
-7.65504
-7.69314
-7.73309
-7.77474
-7.81791
-7.8624
-7.90804
-7.95464
-8.00198
-8.04984
-8.09795
-8.14606
-8.19387
-8.24113
-8.28757
-8.3329
-8.37684
-8.41912
-8.45943
-8.49747
-8.53289
-8.56518
-8.59347
-8.61707
-8.63655
-8.65314
-8.66709
-8.67785
-8.68478
-8.6876
-8.68655
-8.682
-8.67406
-8.66252
-8.6471
-8.62753
-8.60386
-8.57641
-8.54523
-8.50983
-8.47003
-8.42582
-8.37726
-8.32443
-8.26727
-8.20585
-8.14009
-8.06988
-7.99499
-7.91526
-7.83052
-7.74069
-7.64557
-7.54501
-7.4388
-7.32675
-7.20867
-7.08447
-6.95405
-6.81735
-6.67432
-6.52493
-6.36918
-6.20708
-6.03869
-5.86413
-5.68355
-5.49711
-5.30498
-5.10733