/*--------------------------------*- C++ -*----------------------------------*\
  =========                 |
  \\      /  F ield         | OpenFOAM: The Open Source CFD Toolbox
   \\    /   O peration     | Website:  https://openfoam.org
    \\  /    A nd           | Version:  8
     \\/     M anipulation  |
\*---------------------------------------------------------------------------*/
FoamFile
{
    version     2.0;
    format      ascii;
    class       surfaceScalarField;
    location    "2000";
    object      phi;
}
// * * * * * * * * * * * * * * * * * * * * * * * * * * * * * * * * * * * * * //

dimensions      [0 3 -1 0 0 0 0];

internalField   nonuniform List<scalar> 
24170
(
3.0082e-06
1.25674e-07
2.86609e-06
1.42253e-07
2.74849e-06
1.17701e-07
2.64536e-06
1.03071e-07
2.5525e-06
9.26907e-08
2.4715e-06
8.08434e-08
2.40189e-06
6.95042e-08
2.34124e-06
6.0584e-08
2.28952e-06
5.16676e-08
2.24683e-06
4.26396e-08
2.21299e-06
3.3876e-08
2.18544e-06
2.75982e-08
2.16255e-06
2.29665e-08
2.14319e-06
1.94248e-08
2.12741e-06
1.57873e-08
2.11682e-06
1.05687e-08
2.11197e-06
4.80415e-09
-1.48603e-09
2.1134e-06
3.5028e-06
7.93187e-08
3.53008e-06
1.15073e-07
3.53727e-06
1.10672e-07
3.53304e-06
1.07439e-07
3.51934e-06
1.06449e-07
3.49902e-06
1.01233e-07
3.47655e-06
9.20865e-08
3.45224e-06
8.50173e-08
3.42612e-06
7.78849e-08
3.39934e-06
6.94878e-08
3.37096e-06
6.23188e-08
3.34103e-06
5.75566e-08
3.31248e-06
5.15431e-08
3.28612e-06
4.57958e-08
3.2619e-06
4.00102e-08
3.23983e-06
3.26352e-08
3.21936e-06
2.52785e-08
1.97441e-08
3.19814e-06
3.83204e-06
5.94587e-08
3.85038e-06
9.68233e-08
3.86339e-06
9.77367e-08
3.87313e-06
9.76737e-08
3.88086e-06
9.85849e-08
3.88631e-06
9.56579e-08
3.88882e-06
8.9505e-08
3.88948e-06
8.43078e-08
3.88855e-06
7.87645e-08
3.88565e-06
7.2351e-08
3.88111e-06
6.68682e-08
3.87605e-06
6.26457e-08
3.87017e-06
5.74668e-08
3.8638e-06
5.21973e-08
3.85709e-06
4.67256e-08
3.84947e-06
4.02402e-08
3.84094e-06
3.37842e-08
2.82427e-08
3.83243e-06
4.21681e-06
4.71832e-08
4.23034e-06
8.32788e-08
4.23991e-06
8.8211e-08
4.24768e-06
8.99329e-08
4.25494e-06
9.13467e-08
4.26141e-06
8.92437e-08
4.26644e-06
8.45694e-08
4.27074e-06
8.01095e-08
4.27437e-06
7.52038e-08
4.27702e-06
6.97673e-08
4.27904e-06
6.49007e-08
4.28105e-06
6.06675e-08
4.28259e-06
5.59607e-08
4.28368e-06
5.11118e-08
4.28437e-06
4.60339e-08
4.2842e-06
4.03914e-08
4.28317e-06
3.48048e-08
2.97894e-08
4.28162e-06
4.64702e-06
3.74575e-08
4.65828e-06
7.20733e-08
4.66671e-06
7.98431e-08
4.67381e-06
8.28354e-08
4.68058e-06
8.4502e-08
4.68673e-06
8.30363e-08
4.69189e-06
7.93779e-08
4.69655e-06
7.54196e-08
4.70075e-06
7.09697e-08
4.70433e-06
6.61533e-08
4.70758e-06
6.16494e-08
4.71083e-06
5.74377e-08
4.71381e-06
5.30097e-08
4.71648e-06
4.8458e-08
4.7188e-06
4.37205e-08
4.72049e-06
3.869e-08
4.72152e-06
3.37596e-08
2.92512e-08
4.72206e-06
5.12247e-06
2.9562e-08
5.13255e-06
6.19417e-08
5.14068e-06
7.16951e-08
5.14773e-06
7.57625e-08
5.15449e-06
7.77422e-08
5.16065e-06
7.69168e-08
5.16601e-06
7.40936e-08
5.17089e-06
7.06081e-08
5.17533e-06
6.65796e-08
5.1793e-06
6.22342e-08
5.18298e-06
5.80014e-08
5.18658e-06
5.38772e-08
5.18995e-06
4.96591e-08
5.19305e-06
4.53607e-08
5.19582e-06
4.09518e-08
5.19808e-06
3.64182e-08
5.19983e-06
3.20089e-08
2.79082e-08
5.20117e-06
5.64723e-06
2.3316e-08
5.65648e-06
5.27167e-08
5.66452e-06
6.37086e-08
5.67172e-06
6.8579e-08
5.67863e-06
7.08087e-08
5.68499e-06
7.0533e-08
5.69066e-06
6.84076e-08
5.69585e-06
6.54065e-08
5.70059e-06
6.1818e-08
5.70489e-06
5.79169e-08
5.7089e-06
5.39837e-08
5.71274e-06
5.00542e-08
5.71635e-06
4.60685e-08
5.71968e-06
4.20391e-08
5.72267e-06
3.79583e-08
5.72523e-06
3.38532e-08
5.72735e-06
2.98786e-08
2.61495e-08
5.72912e-06
4.40966e-06
1.97496e-08
4.41572e-06
4.66272e-08
4.42152e-06
5.78867e-08
4.42684e-06
6.32364e-08
4.43192e-06
6.57164e-08
4.43666e-06
6.58114e-08
4.44098e-06
6.41237e-08
4.44495e-06
6.14725e-08
4.44858e-06
5.82056e-08
4.4519e-06
5.46097e-08
4.45499e-06
5.09109e-08
4.4579e-06
4.71665e-08
4.46061e-06
4.33678e-08
4.46312e-06
3.95375e-08
4.46539e-06
3.56869e-08
4.46738e-06
3.18588e-08
4.46909e-06
2.81663e-08
2.47028e-08
4.47054e-06
5.14307e-06
1.65166e-08
5.14913e-06
4.0569e-08
5.15524e-06
5.18108e-08
5.16103e-06
5.74711e-08
5.16664e-06
6.01215e-08
5.17192e-06
6.05312e-08
5.17679e-06
5.92523e-08
5.18129e-06
5.69657e-08
5.18544e-06
5.40515e-08
5.18926e-06
5.07838e-08
5.19281e-06
4.73585e-08
5.19614e-06
4.38455e-08
5.19924e-06
4.02753e-08
5.2021e-06
3.66802e-08
5.2047e-06
3.30945e-08
5.20699e-06
2.95572e-08
5.209e-06
2.61622e-08
2.29741e-08
5.21073e-06
5.99866e-06
1.36452e-08
6.00461e-06
3.4608e-08
6.01094e-06
4.54887e-08
6.01714e-06
5.1275e-08
6.02322e-06
5.40404e-08
6.02904e-06
5.47232e-08
6.03448e-06
5.38156e-08
6.03955e-06
5.18937e-08
6.04426e-06
4.93403e-08
6.04863e-06
4.64141e-08
6.05271e-06
4.32871e-08
6.05652e-06
4.00438e-08
6.06006e-06
3.67392e-08
6.06332e-06
3.34246e-08
6.06628e-06
3.0128e-08
6.06893e-06
2.691e-08
6.07127e-06
2.38221e-08
2.09297e-08
6.07332e-06
6.99679e-06
1.11119e-08
7.00252e-06
2.88736e-08
7.00898e-06
3.90522e-08
7.01552e-06
4.4761e-08
7.02203e-06
4.75398e-08
7.02836e-06
4.84113e-08
7.03436e-06
4.78182e-08
7.04001e-06
4.62418e-08
7.0453e-06
4.40422e-08
7.05026e-06
4.14631e-08
7.05489e-06
3.86567e-08
7.05922e-06
3.57207e-08
7.06325e-06
3.27251e-08
7.06695e-06
2.97187e-08
7.07033e-06
2.67542e-08
7.07337e-06
2.38639e-08
7.07609e-06
2.11113e-08
1.85179e-08
7.0785e-06
8.16124e-06
8.8882e-09
8.16664e-06
2.34734e-08
8.17314e-06
3.25775e-08
8.17996e-06
3.7963e-08
8.18686e-06
4.06492e-08
8.19366e-06
4.16186e-08
8.2002e-06
4.12747e-08
8.20643e-06
4.00111e-08
8.21231e-06
3.81549e-08
8.21785e-06
3.59195e-08
8.22305e-06
3.34574e-08
8.22792e-06
3.08571e-08
8.23245e-06
2.82046e-08
8.23664e-06
2.55428e-08
8.24046e-06
2.29287e-08
8.24394e-06
2.03933e-08
8.24707e-06
1.79793e-08
1.57168e-08
8.24989e-06
9.5197e-06
6.91363e-09
9.52475e-06
1.84286e-08
9.53119e-06
2.61453e-08
9.53822e-06
3.09541e-08
9.54548e-06
3.34138e-08
9.55273e-06
3.43733e-08
9.5598e-06
3.42015e-08
9.56659e-06
3.3212e-08
9.57306e-06
3.16726e-08
9.5792e-06
2.97878e-08
9.58497e-06
2.76759e-08
9.59039e-06
2.54496e-08
9.59544e-06
2.31567e-08
9.60012e-06
2.08775e-08
9.60442e-06
1.86276e-08
9.60835e-06
1.64695e-08
9.61192e-06
1.44059e-08
1.24853e-08
9.61516e-06
1.11045e-05
5.13091e-09
1.11092e-05
1.37321e-08
1.11155e-05
1.98157e-08
1.11227e-05
2.37814e-08
1.11303e-05
2.58533e-08
1.1138e-05
2.66916e-08
1.11456e-05
2.66027e-08
1.1153e-05
2.58303e-08
1.116e-05
2.45911e-08
1.11668e-05
2.30425e-08
1.11732e-05
2.13071e-08
1.11791e-05
1.94575e-08
1.11848e-05
1.75697e-08
1.11899e-05
1.56766e-08
1.11948e-05
1.38326e-08
1.11992e-05
1.20517e-08
1.12032e-05
1.03724e-08
8.79646e-09
1.12069e-05
1.29533e-05
3.48545e-09
1.29577e-05
9.30894e-09
1.2964e-05
1.35737e-08
1.29713e-05
1.64602e-08
1.29792e-05
1.79702e-08
1.29873e-05
1.85594e-08
1.29955e-05
1.8459e-08
1.30035e-05
1.78442e-08
1.30112e-05
1.68683e-08
1.30186e-05
1.56534e-08
1.30256e-05
1.42911e-08
1.30322e-05
1.28463e-08
1.30384e-05
1.13705e-08
1.30442e-05
9.90158e-09
1.30496e-05
8.47215e-09
1.30545e-05
7.10354e-09
1.30591e-05
5.81438e-09
4.61738e-09
1.30633e-05
1.511e-05
1.91567e-09
1.51143e-05
5.02492e-09
1.51206e-05
7.33083e-09
1.51281e-05
8.92369e-09
1.51364e-05
9.69129e-09
1.51451e-05
9.90452e-09
1.51539e-05
9.69544e-09
1.51625e-05
9.17273e-09
1.5171e-05
8.42469e-09
1.51791e-05
7.53042e-09
1.51869e-05
6.54624e-09
1.51942e-05
5.51782e-09
1.52011e-05
4.47782e-09
1.52076e-05
3.45378e-09
1.52136e-05
2.46634e-09
1.52192e-05
1.53098e-09
1.52243e-05
6.58363e-10
-1.40584e-10
1.52291e-05
1.7626e-05
3.34384e-10
1.76304e-05
6.75529e-10
1.76369e-05
8.46444e-10
1.76449e-05
9.43229e-10
1.76538e-05
8.05468e-10
1.76632e-05
5.12722e-10
1.76728e-05
1.18013e-10
1.76823e-05
-3.73894e-10
1.76917e-05
-9.11641e-10
1.77007e-05
-1.49483e-09
1.77094e-05
-2.08274e-09
1.77176e-05
-2.67812e-09
1.77253e-05
-3.25114e-09
1.77326e-05
-3.80445e-09
1.77393e-05
-4.31746e-09
1.77457e-05
-4.79278e-09
1.77515e-05
-5.21837e-09
-5.59394e-09
1.7757e-05
1.78277e-05
-1.18689e-09
1.78319e-05
-3.50375e-09
1.78382e-05
-5.44027e-09
1.7846e-05
-6.81552e-09
1.78547e-05
-7.88626e-09
1.78639e-05
-8.67583e-09
1.78733e-05
-9.29437e-09
1.78827e-05
-9.74601e-09
1.78919e-05
-1.01119e-08
1.79008e-05
-1.03762e-08
1.79093e-05
-1.06021e-08
1.79174e-05
-1.07626e-08
1.79251e-05
-1.09016e-08
1.79323e-05
-1.09908e-08
1.7939e-05
-1.10616e-08
1.79453e-05
-1.10889e-08
1.79512e-05
-1.10975e-08
-1.1064e-08
1.79567e-05
1.58828e-05
-2.62075e-09
1.58867e-05
-7.42594e-09
1.58926e-05
-1.12829e-08
1.58997e-05
-1.39617e-08
1.59077e-05
-1.57939e-08
1.5916e-05
-1.70154e-08
1.59245e-05
-1.77603e-08
1.59329e-05
-1.81772e-08
1.59412e-05
-1.83215e-08
1.59491e-05
-1.83141e-08
1.59567e-05
-1.81695e-08
1.59639e-05
-1.79618e-08
1.59707e-05
-1.76836e-08
1.5977e-05
-1.73827e-08
1.59831e-05
-1.70444e-08
1.59886e-05
-1.66992e-08
1.59939e-05
-1.63303e-08
-1.59581e-08
1.59988e-05
1.41501e-05
-4.09153e-09
1.41541e-05
-1.14125e-08
1.416e-05
-1.7095e-08
1.41669e-05
-2.08748e-08
1.41744e-05
-2.33212e-08
1.41823e-05
-2.4828e-08
1.41901e-05
-2.56392e-08
1.41979e-05
-2.5924e-08
1.42055e-05
-2.58517e-08
1.42127e-05
-2.55217e-08
1.42196e-05
-2.50388e-08
1.42261e-05
-2.4448e-08
1.42322e-05
-2.38018e-08
1.42379e-05
-2.31197e-08
1.42433e-05
-2.24282e-08
1.42483e-05
-2.17302e-08
1.4253e-05
-2.10407e-08
-2.03533e-08
1.42574e-05
1.26066e-05
-5.69858e-09
1.26109e-05
-1.56974e-08
1.2617e-05
-2.31095e-08
1.26239e-05
-2.77486e-08
1.26313e-05
-3.0656e-08
1.26388e-05
-3.23372e-08
1.26463e-05
-3.31139e-08
1.26536e-05
-3.31938e-08
1.26606e-05
-3.28212e-08
1.26672e-05
-3.21654e-08
1.26735e-05
-3.13238e-08
1.26795e-05
-3.03669e-08
1.2685e-05
-2.93562e-08
1.26902e-05
-2.83194e-08
1.26951e-05
-2.7294e-08
1.26997e-05
-2.62798e-08
1.27039e-05
-2.52955e-08
-2.43312e-08
1.27079e-05
1.12317e-05
-7.54122e-09
1.12365e-05
-2.05374e-08
1.12429e-05
-2.94975e-08
1.12499e-05
-3.47694e-08
1.12572e-05
-3.78992e-08
1.12645e-05
-3.96409e-08
1.12717e-05
-4.02376e-08
1.12786e-05
-4.00616e-08
1.12852e-05
-3.93727e-08
1.12914e-05
-3.83389e-08
1.12972e-05
-3.71173e-08
1.13027e-05
-3.57828e-08
1.13078e-05
-3.44099e-08
1.13125e-05
-3.30423e-08
1.13169e-05
-3.1698e-08
1.1321e-05
-3.03992e-08
1.13249e-05
-2.91363e-08
-2.79292e-08
1.13285e-05
1.00068e-05
-9.75568e-09
1.00125e-05
-2.6169e-08
1.00194e-05
-3.63436e-08
1.00265e-05
-4.18455e-08
1.00338e-05
-4.51196e-08
1.0041e-05
-4.67821e-08
1.00479e-05
-4.7173e-08
1.00545e-05
-4.66236e-08
1.00607e-05
-4.55154e-08
1.00665e-05
-4.4107e-08
1.00719e-05
-4.24791e-08
1.00769e-05
-4.07706e-08
1.00815e-05
-3.90281e-08
1.00858e-05
-3.73253e-08
1.00898e-05
-3.56758e-08
1.00935e-05
-3.41003e-08
1.0097e-05
-3.25949e-08
-3.1153e-08
1.01002e-05
8.91581e-06
-1.24377e-08
8.92265e-06
-3.29931e-08
8.92997e-06
-4.36403e-08
8.9372e-06
-4.90963e-08
8.94443e-06
-5.23131e-08
8.95149e-06
-5.38179e-08
8.95822e-06
-5.38219e-08
8.96451e-06
-5.28848e-08
8.97037e-06
-5.13881e-08
8.97582e-06
-4.95243e-08
8.98084e-06
-4.74879e-08
8.98547e-06
-4.53635e-08
8.98972e-06
-4.32639e-08
8.99364e-06
-4.12221e-08
8.99726e-06
-3.92821e-08
9.00061e-06
-3.74392e-08
9.00373e-06
-3.56963e-08
-3.40462e-08
9.00663e-06
7.94417e-06
-1.59481e-08
7.95238e-06
-4.11935e-08
7.96e-06
-5.12658e-08
7.9673e-06
-5.63752e-08
7.97455e-06
-5.95611e-08
7.98157e-06
-6.08136e-08
7.98815e-06
-6.04282e-08
7.99426e-06
-5.9004e-08
7.99989e-06
-5.70042e-08
8.00507e-06
-5.47007e-08
8.0098e-06
-5.22146e-08
8.01412e-06
-4.96879e-08
8.01806e-06
-4.72039e-08
8.02166e-06
-4.48263e-08
8.02497e-06
-4.25799e-08
8.02801e-06
-4.04751e-08
8.03082e-06
-3.84983e-08
-3.66416e-08
8.03342e-06
7.07918e-06
-2.07947e-08
7.08852e-06
-5.05419e-08
7.0964e-06
-5.91581e-08
7.10396e-06
-6.39405e-08
7.11152e-06
-6.71364e-08
7.11878e-06
-6.80856e-08
7.12552e-06
-6.71634e-08
7.13167e-06
-6.51759e-08
7.13727e-06
-6.26329e-08
7.14235e-06
-5.97973e-08
7.14694e-06
-5.68186e-08
7.15107e-06
-5.38329e-08
7.15479e-06
-5.09394e-08
7.15815e-06
-4.81888e-08
7.16118e-06
-4.5623e-08
7.16394e-06
-4.32429e-08
7.16647e-06
-4.10266e-08
-3.89688e-08
7.1688e-06
6.30943e-06
-2.77035e-08
6.31921e-06
-6.03986e-08
6.32813e-06
-6.81114e-08
6.3372e-06
-7.30308e-08
6.34622e-06
-7.61778e-08
6.35461e-06
-7.64938e-08
6.36214e-06
-7.47271e-08
6.36881e-06
-7.1884e-08
6.37468e-06
-6.8552e-08
6.37985e-06
-6.49924e-08
6.38436e-06
-6.13512e-08
6.38828e-06
-5.77692e-08
6.39167e-06
-5.43437e-08
6.39458e-06
-5.113e-08
6.3971e-06
-4.81577e-08
6.3993e-06
-4.54497e-08
6.40124e-06
-4.29687e-08
-4.07103e-08
6.40298e-06
5.62636e-06
-3.91625e-08
5.63869e-06
-7.27923e-08
5.65301e-06
-8.24827e-08
5.66766e-06
-8.77191e-08
5.6808e-06
-8.9338e-08
5.69173e-06
-8.74386e-08
5.70054e-06
-8.35676e-08
5.7075e-06
-7.88907e-08
5.71284e-06
-7.39647e-08
5.7168e-06
-6.8984e-08
5.71951e-06
-6.40811e-08
5.72114e-06
-5.94079e-08
5.72183e-06
-5.50561e-08
5.72175e-06
-5.10726e-08
5.72107e-06
-4.7497e-08
5.72e-06
-4.43816e-08
5.7187e-06
-4.16725e-08
-3.95053e-08
5.71749e-06
5.05809e-06
-9.49488e-08
5.09787e-06
-1.12636e-07
5.12395e-06
-1.08628e-07
5.13728e-06
-1.01078e-07
5.14121e-06
-9.32869e-08
5.1387e-06
-8.49483e-08
5.13175e-06
-7.66495e-08
5.1215e-06
-6.87165e-08
5.10869e-06
-6.12264e-08
5.09402e-06
-5.43517e-08
5.07817e-06
-4.8243e-08
5.06156e-06
-4.28138e-08
5.04449e-06
-3.8011e-08
5.02723e-06
-3.38324e-08
5.00998e-06
-3.02643e-08
4.99293e-06
-2.73346e-08
4.97629e-06
-2.50436e-08
-2.37777e-08
4.96056e-06
4.3616e-06
4.24896e-06
4.14032e-06
4.03924e-06
3.94596e-06
3.861e-06
3.78435e-06
3.71562e-06
3.65438e-06
3.60003e-06
3.55178e-06
3.50897e-06
3.47095e-06
3.43711e-06
3.40685e-06
3.37951e-06
3.35447e-06
3.33069e-06
-8.15736e-09
8.17063e-09
-2.20818e-08
1.39496e-08
-3.73105e-08
1.526e-08
-5.04544e-08
1.31517e-08
-5.62798e-08
5.86797e-09
-4.88022e-08
-7.49531e-09
-2.57267e-08
-2.30274e-08
1.04757e-08
-3.6222e-08
5.57672e-08
-4.52516e-08
1.05205e-07
-4.94475e-08
1.54383e-07
-4.91598e-08
2.00138e-07
-4.57593e-08
2.40462e-07
-4.03173e-08
2.74089e-07
-3.36255e-08
3.00291e-07
-2.62135e-08
3.18685e-07
-1.83848e-08
3.28943e-07
-1.02821e-08
3.30829e-07
-1.85943e-09
3.24024e-07
6.77293e-09
3.08815e-07
1.52542e-08
2.8562e-07
2.3156e-08
2.55572e-07
3.01047e-08
2.19859e-07
3.56841e-08
1.80461e-07
3.9444e-08
1.39508e-07
4.09228e-08
9.9739e-08
3.97899e-08
6.37206e-08
3.59796e-08
3.38135e-08
2.99025e-08
1.12076e-08
2.25389e-08
-3.94616e-09
1.51418e-08
-1.25955e-08
8.54931e-09
-1.5011e-08
2.43532e-09
-1.12568e-08
-3.86119e-09
1.31792e-11
-1.12155e-08
1.98057e-08
-1.98613e-08
4.82758e-08
-2.84547e-08
8.16805e-08
-3.34157e-08
1.14085e-07
-3.24694e-08
1.40191e-07
-2.60758e-08
1.56468e-07
-1.63698e-08
1.63196e-07
-6.71109e-09
1.63045e-07
9.17424e-11
1.59739e-07
3.32497e-09
1.56705e-07
3.04223e-09
1.55876e-07
9.45327e-10
1.50748e-07
5.13397e-09
1.32023e-07
1.895e-08
9.08969e-08
4.10523e-08
2.25546e-08
6.86292e-08
-7.01345e-08
9.26364e-08
-1.81345e-07
1.11335e-07
-3.07922e-07
1.26616e-07
-4.46221e-07
1.38331e-07
-5.92109e-07
1.45975e-07
-7.41186e-07
1.49108e-07
-8.89755e-07
1.48631e-07
-1.03466e-06
1.44925e-07
-1.17255e-06
1.37911e-07
-1.30208e-06
1.29549e-07
-1.42315e-06
1.21068e-07
-1.53421e-06
1.11084e-07
-1.63579e-06
1.01556e-07
-1.72918e-06
9.3417e-08
-1.81474e-06
8.55446e-08
-1.89319e-06
7.84881e-08
-1.96538e-06
7.21724e-08
-2.03197e-06
6.66248e-08
-2.09373e-06
6.17471e-08
-2.15116e-06
5.74591e-08
-2.20484e-06
5.36795e-08
-2.25514e-06
5.0329e-08
-2.30246e-06
4.73318e-08
-2.34707e-06
4.46306e-08
-2.38921e-06
4.21696e-08
-2.42909e-06
3.99045e-08
-2.46685e-06
3.7801e-08
-2.50266e-06
3.58257e-08
-2.53657e-06
3.39618e-08
-2.56875e-06
3.2181e-08
-2.59918e-06
3.04809e-08
-2.62802e-06
2.88336e-08
-2.65522e-06
2.72476e-08
-2.68094e-06
2.56933e-08
-2.70509e-06
2.41863e-08
-2.72781e-06
2.26966e-08
-2.74901e-06
2.1246e-08
-2.76882e-06
1.98063e-08
-2.7872e-06
1.8398e-08
-2.80423e-06
1.69957e-08
-2.81987e-06
1.56013e-08
-2.83408e-06
1.41996e-08
-2.84683e-06
1.27901e-08
-2.85813e-06
1.13518e-08
-2.86796e-06
9.87775e-09
-2.87627e-06
8.3513e-09
-2.88302e-06
6.76366e-09
-2.88812e-06
5.10348e-09
-2.89151e-06
3.35616e-09
-2.89309e-06
1.54953e-09
-2.89292e-06
-2.22451e-10
-2.89119e-06
-1.77026e-09
-2.88811e-06
-3.14682e-09
-2.88366e-06
-4.48502e-09
-2.87788e-06
-5.82567e-09
-2.87075e-06
-7.16272e-09
-2.86226e-06
-8.51842e-09
-2.8524e-06
-9.87094e-09
-2.84117e-06
-1.1241e-08
-2.82855e-06
-1.2605e-08
-2.81456e-06
-1.39819e-08
-2.79918e-06
-1.53494e-08
-2.78242e-06
-1.67237e-08
-2.76427e-06
-1.80857e-08
-2.74477e-06
-1.94472e-08
-2.72389e-06
-2.0794e-08
-2.70168e-06
-2.21327e-08
-2.67814e-06
-2.3455e-08
-2.65328e-06
-2.47613e-08
-2.62713e-06
-2.605e-08
-2.59971e-06
-2.73154e-08
-2.57105e-06
-2.85622e-08
-2.54116e-06
-2.97794e-08
-2.51009e-06
-3.09773e-08
-2.47785e-06
-3.21406e-08
-2.44449e-06
-3.32841e-08
-2.41001e-06
-3.43886e-08
-2.37448e-06
-3.54721e-08
-2.3379e-06
-3.65116e-08
-2.30032e-06
-3.75329e-08
-2.26178e-06
-3.85065e-08
-2.22233e-06
-3.94543e-08
-2.18199e-06
-4.03542e-08
-2.14081e-06
-4.11951e-08
-2.09883e-06
-4.19655e-08
-2.05616e-06
-4.26673e-08
-2.01287e-06
-4.32789e-08
-1.9689e-06
-4.40062e-08
-1.92415e-06
-4.4787e-08
-1.87874e-06
-4.54507e-08
-1.8327e-06
-4.60694e-08
-1.78609e-06
-4.66495e-08
-1.73893e-06
-4.71933e-08
-1.69127e-06
-4.77079e-08
-1.64313e-06
-4.81915e-08
-1.59455e-06
-4.86458e-08
-1.54553e-06
-4.90714e-08
-1.49612e-06
-4.94618e-08
-1.44631e-06
-4.98307e-08
-1.39616e-06
-5.0168e-08
-1.34568e-06
-5.04869e-08
-1.2949e-06
-5.07762e-08
-1.24385e-06
-5.10444e-08
-1.19255e-06
-5.12804e-08
-1.14105e-06
-5.14853e-08
-1.08935e-06
-5.16708e-08
-1.0375e-06
-5.18311e-08
-9.85509e-07
-5.19737e-08
-9.33385e-07
-5.21065e-08
-8.81137e-07
-5.22299e-08
-8.28773e-07
-5.23512e-08
-7.76289e-07
-5.24701e-08
-7.23693e-07
-5.2588e-08
-6.70983e-07
-5.27017e-08
-6.18168e-07
-5.28108e-08
-5.65249e-07
-5.29149e-08
-5.1223e-07
-5.30169e-08
-4.59108e-07
-5.31205e-08
-4.05879e-07
-5.3229e-08
-3.52535e-07
-5.33443e-08
-2.99074e-07
-5.34633e-08
-2.45501e-07
-5.35762e-08
-1.91843e-07
-5.36649e-08
-1.38152e-07
-5.36973e-08
-8.45509e-08
-5.3612e-08
-3.12782e-08
-5.32837e-08
2.12172e-08
-5.25083e-08
7.23305e-08
-5.11256e-08
1.20198e-07
-4.78786e-08
1.63768e-07
-4.35803e-08
-1.74785e-08
1.81242e-07
-3.39151e-09
1.15856e-08
-9.45715e-09
2.00734e-08
-1.21876e-08
1.8063e-08
-4.44762e-09
5.44095e-09
1.887e-08
-1.73836e-08
5.67862e-08
-4.54142e-08
1.04883e-07
-7.1091e-08
1.57512e-07
-8.8855e-08
2.09605e-07
-9.73237e-08
2.57839e-07
-9.76825e-08
3.00741e-07
-9.20528e-08
3.37587e-07
-8.26025e-08
3.68271e-07
-7.09989e-08
3.92995e-07
-5.83437e-08
4.12082e-07
-4.53031e-08
4.25942e-07
-3.22373e-08
4.34972e-07
-1.93212e-08
4.39772e-07
-6.64228e-09
4.407e-07
5.83046e-09
4.37765e-07
1.82114e-08
4.30441e-07
3.04643e-08
4.18218e-07
4.23561e-08
4.0044e-07
5.34506e-08
3.76807e-07
6.30989e-08
3.47249e-07
7.04717e-08
3.12383e-07
7.46645e-08
2.73451e-07
7.48973e-08
2.32579e-07
7.07748e-08
1.92604e-07
6.24777e-08
1.57051e-07
5.06918e-08
1.29296e-07
3.62381e-08
1.12045e-07
1.97054e-08
1.06689e-07
1.42265e-09
1.13246e-07
-1.7732e-08
1.29737e-07
-3.63773e-08
1.5128e-07
-4.99866e-08
1.70792e-07
-5.29156e-08
1.83054e-07
-4.47663e-08
1.86212e-07
-2.9207e-08
1.79897e-07
-1.01075e-08
1.65575e-07
7.63732e-09
1.44633e-07
2.09804e-08
1.12053e-07
3.5976e-08
5.73504e-08
5.77615e-08
-2.85783e-08
8.70006e-08
-1.4629e-07
1.22876e-07
-2.87087e-07
1.59825e-07
-4.40579e-07
1.94555e-07
-5.9844e-07
2.26536e-07
-7.5861e-07
2.52818e-07
-9.18862e-07
2.71617e-07
-1.07561e-06
2.83391e-07
-1.22532e-06
2.88068e-07
-1.36479e-06
2.8548e-07
-1.49198e-06
2.76324e-07
-1.60576e-06
2.62428e-07
-1.70632e-06
2.455e-07
-1.79522e-06
2.26816e-07
-1.87362e-06
2.07965e-07
-1.94257e-06
1.90008e-07
-2.00446e-06
1.72985e-07
-2.06036e-06
1.5745e-07
-2.11083e-06
1.43899e-07
-2.1572e-06
1.31908e-07
-2.20011e-06
1.21411e-07
-2.24018e-06
1.12247e-07
-2.2778e-06
1.04247e-07
-2.31328e-06
9.72376e-08
-2.34687e-06
9.10563e-08
-2.37874e-06
8.55583e-08
-2.40902e-06
8.06226e-08
-2.43782e-06
7.61438e-08
-2.46521e-06
7.20362e-08
-2.49124e-06
6.82276e-08
-2.51598e-06
6.46624e-08
-2.53945e-06
6.12938e-08
-2.56168e-06
5.80849e-08
-2.5827e-06
5.50083e-08
-2.60254e-06
5.20386e-08
-2.6212e-06
4.91615e-08
-2.63871e-06
4.63572e-08
-2.65507e-06
4.36199e-08
-2.67031e-06
4.09319e-08
-2.68441e-06
3.82928e-08
-2.6974e-06
3.56863e-08
-2.70925e-06
3.31158e-08
-2.72e-06
3.0567e-08
-2.72964e-06
2.80417e-08
-2.7382e-06
2.55294e-08
-2.74565e-06
2.30171e-08
-2.75195e-06
2.05009e-08
-2.7571e-06
1.79741e-08
-2.76113e-06
1.54237e-08
-2.76406e-06
1.28459e-08
-2.76592e-06
1.02317e-08
-2.76674e-06
7.58778e-09
-2.76657e-06
4.92005e-09
-2.76548e-06
2.25526e-09
-2.7636e-06
-3.7329e-10
-2.76091e-06
-2.94683e-09
-2.75721e-06
-5.51161e-09
-2.75229e-06
-8.10673e-09
-2.74609e-06
-1.07215e-08
-2.73859e-06
-1.33556e-08
-2.72978e-06
-1.60082e-08
-2.71963e-06
-1.86824e-08
-2.70815e-06
-2.13707e-08
-2.69531e-06
-2.4076e-08
-2.68113e-06
-2.67876e-08
-2.66559e-06
-2.95085e-08
-2.64869e-06
-3.22264e-08
-2.63043e-06
-3.49441e-08
-2.61083e-06
-3.76487e-08
-2.58989e-06
-4.03428e-08
-2.56761e-06
-4.30141e-08
-2.54402e-06
-4.56642e-08
-2.51913e-06
-4.82825e-08
-2.49295e-06
-5.08693e-08
-2.46551e-06
-5.34163e-08
-2.43683e-06
-5.5922e-08
-2.40694e-06
-5.83816e-08
-2.37586e-06
-6.07913e-08
-2.34361e-06
-6.31498e-08
-2.31024e-06
-6.54515e-08
-2.27576e-06
-6.76981e-08
-2.24022e-06
-6.98826e-08
-2.20363e-06
-7.20086e-08
-2.16604e-06
-7.40667e-08
-2.12748e-06
-7.60625e-08
-2.08798e-06
-7.79877e-08
-2.0476e-06
-7.98441e-08
-2.00635e-06
-8.16163e-08
-1.96425e-06
-8.32981e-08
-1.92132e-06
-8.4887e-08
-1.87758e-06
-8.63927e-08
-1.83304e-06
-8.78241e-08
-1.7878e-06
-8.92658e-08
-1.74194e-06
-9.06765e-08
-1.69543e-06
-9.1986e-08
-1.64831e-06
-9.32123e-08
-1.60061e-06
-9.4367e-08
-1.55237e-06
-9.54526e-08
-1.50363e-06
-9.64778e-08
-1.45441e-06
-9.7441e-08
-1.40475e-06
-9.83466e-08
-1.35466e-06
-9.91917e-08
-1.30417e-06
-9.99775e-08
-1.2533e-06
-1.00711e-07
-1.20208e-06
-1.01394e-07
-1.15053e-06
-1.02031e-07
-1.09868e-06
-1.02621e-07
-1.04655e-06
-1.03157e-07
-9.94182e-07
-1.03641e-07
-9.41589e-07
-1.04061e-07
-8.88807e-07
-1.04438e-07
-8.35854e-07
-1.04767e-07
-7.82751e-07
-1.05062e-07
-7.29511e-07
-1.05332e-07
-6.76142e-07
-1.05586e-07
-6.22651e-07
-1.05832e-07
-5.69037e-07
-1.06075e-07
-5.15304e-07
-1.06315e-07
-4.61453e-07
-1.06548e-07
-4.07489e-07
-1.06773e-07
-3.53412e-07
-1.06989e-07
-2.99226e-07
-1.07203e-07
-2.44926e-07
-1.0742e-07
-1.90509e-07
-1.07648e-07
-1.35966e-07
-1.07888e-07
-8.12947e-08
-1.08138e-07
-2.65003e-08
-1.08374e-07
2.83928e-08
-1.08565e-07
8.33423e-08
-1.08654e-07
1.38248e-07
-1.08528e-07
1.92948e-07
-1.07995e-07
2.47149e-07
-1.06722e-07
3.00134e-07
-1.04121e-07
3.5132e-07
-9.90769e-08
3.97392e-07
-8.96619e-08
-6.10879e-08
4.40994e-07
4.95929e-10
1.11211e-08
4.24311e-09
1.63905e-08
1.94692e-08
2.89478e-09
5.3839e-08
-2.89119e-08
1.05672e-07
-6.91897e-08
1.65131e-07
-1.04875e-07
2.2233e-07
-1.28272e-07
2.7166e-07
-1.38187e-07
3.11524e-07
-1.37175e-07
3.42613e-07
-1.2877e-07
3.66558e-07
-1.15989e-07
3.849e-07
-1.00941e-07
3.98842e-07
-8.49346e-08
4.0921e-07
-6.87041e-08
4.16544e-07
-5.26346e-08
4.2123e-07
-3.69122e-08
4.23535e-07
-2.16243e-08
4.23722e-07
-6.81554e-09
4.22058e-07
7.49184e-09
4.18947e-07
2.13395e-08
4.14627e-07
3.47776e-08
4.09207e-07
4.77946e-08
4.02393e-07
6.0257e-08
3.93668e-07
7.18402e-08
3.82162e-07
8.19689e-08
3.67034e-07
8.98049e-08
3.47621e-07
9.42996e-08
3.24042e-07
9.4355e-08
2.97378e-07
8.91287e-08
2.69869e-07
7.82004e-08
2.44349e-07
6.17369e-08
2.23613e-07
4.04593e-08
2.09244e-07
1.57893e-08
2.01397e-07
-9.85219e-09
1.95879e-07
-3.08387e-08
1.85339e-07
-3.94297e-08
1.656e-07
-3.31459e-08
1.36586e-07
-1.57618e-08
9.90289e-08
8.38987e-09
5.07199e-08
3.81771e-08
-1.40957e-08
7.24923e-08
-1.02602e-07
1.09491e-07
-2.16464e-07
1.49867e-07
-3.52136e-07
1.93451e-07
-5.02906e-07
2.37796e-07
-6.59702e-07
2.79678e-07
-8.16257e-07
3.16398e-07
-9.67586e-07
3.45885e-07
-1.10832e-06
3.67284e-07
-1.23574e-06
3.80251e-07
-1.34895e-06
3.84842e-07
-1.44733e-06
3.81793e-07
-1.53128e-06
3.72038e-07
-1.60247e-06
3.56695e-07
-1.66338e-06
3.37247e-07
-1.71635e-06
3.15414e-07
-1.76349e-06
2.92653e-07
-1.8067e-06
2.70033e-07
-1.84717e-06
2.48436e-07
-1.88555e-06
2.28382e-07
-1.92261e-06
2.10052e-07
-1.95871e-06
1.9355e-07
-1.99374e-06
1.78926e-07
-2.02782e-06
1.65988e-07
-2.06096e-06
1.54553e-07
-2.09315e-06
1.44441e-07
-2.12437e-06
1.35469e-07
-2.15459e-06
1.27464e-07
-2.18379e-06
1.20265e-07
-2.21196e-06
1.13735e-07
-2.23908e-06
1.07755e-07
-2.26515e-06
1.02224e-07
-2.29016e-06
9.70592e-08
-2.31411e-06
9.21918e-08
-2.33699e-06
8.75654e-08
-2.35882e-06
8.3136e-08
-2.37958e-06
7.88674e-08
-2.39928e-06
7.4732e-08
-2.41794e-06
7.07068e-08
-2.43554e-06
6.67752e-08
-2.45209e-06
6.29215e-08
-2.4676e-06
5.91357e-08
-2.48207e-06
5.54059e-08
-2.4955e-06
5.17256e-08
-2.5079e-06
4.80846e-08
-2.51925e-06
4.4479e-08
-2.52958e-06
4.08991e-08
-2.53887e-06
3.73419e-08
-2.54716e-06
3.37958e-08
-2.55442e-06
3.02525e-08
-2.56062e-06
2.67047e-08
-2.56577e-06
2.31427e-08
-2.56988e-06
1.95644e-08
-2.57297e-06
1.5958e-08
-2.57505e-06
1.23229e-08
-2.57612e-06
8.66076e-09
-2.57619e-06
4.97887e-09
-2.57525e-06
1.29139e-09
-2.57326e-06
-2.3973e-09
-2.57014e-06
-6.09547e-09
-2.56584e-06
-9.84094e-09
-2.56034e-06
-1.3641e-08
-2.5536e-06
-1.74911e-08
-2.5456e-06
-2.13778e-08
-2.53634e-06
-2.53047e-08
-2.52577e-06
-2.92599e-08
-2.51391e-06
-3.32462e-08
-2.50074e-06
-3.72508e-08
-2.48625e-06
-4.12742e-08
-2.47044e-06
-4.53037e-08
-2.45332e-06
-4.93372e-08
-2.43488e-06
-5.33628e-08
-2.41512e-06
-5.73763e-08
-2.39406e-06
-6.13672e-08
-2.37171e-06
-6.53296e-08
-2.34807e-06
-6.92548e-08
-2.32317e-06
-7.3136e-08
-2.29702e-06
-7.69664e-08
-2.26964e-06
-8.07386e-08
-2.24106e-06
-8.4448e-08
-2.2113e-06
-8.80873e-08
-2.18038e-06
-9.16535e-08
-2.14834e-06
-9.514e-08
-2.1152e-06
-9.85452e-08
-2.08098e-06
-1.01864e-07
-2.04573e-06
-1.05094e-07
-2.00946e-06
-1.08233e-07
-1.97222e-06
-1.11277e-07
-1.93404e-06
-1.14224e-07
-1.89494e-06
-1.17072e-07
-1.85497e-06
-1.19816e-07
-1.81415e-06
-1.22444e-07
-1.7725e-06
-1.24948e-07
-1.73004e-06
-1.27333e-07
-1.68681e-06
-1.29611e-07
-1.64284e-06
-1.31796e-07
-1.59819e-06
-1.3392e-07
-1.55292e-06
-1.35964e-07
-1.50703e-06
-1.37894e-07
-1.46054e-06
-1.39715e-07
-1.41349e-06
-1.41432e-07
-1.36591e-06
-1.43053e-07
-1.31782e-06
-1.44581e-07
-1.26927e-06
-1.4602e-07
-1.22028e-06
-1.4737e-07
-1.17086e-06
-1.48633e-07
-1.12105e-06
-1.49809e-07
-1.07086e-06
-1.50908e-07
-1.02033e-06
-1.51935e-07
-9.69476e-07
-1.52892e-07
-9.1832e-07
-1.5378e-07
-8.6689e-07
-1.5459e-07
-8.15209e-07
-1.55322e-07
-7.63306e-07
-1.55965e-07
-7.11207e-07
-1.56536e-07
-6.58935e-07
-1.5704e-07
-6.06506e-07
-1.5749e-07
-5.53936e-07
-1.57903e-07
-5.01233e-07
-1.58289e-07
-4.48404e-07
-1.58662e-07
-3.95451e-07
-1.59029e-07
-3.42376e-07
-1.59392e-07
-2.8918e-07
-1.59746e-07
-2.35866e-07
-1.60089e-07
-1.82437e-07
-1.6042e-07
-1.28893e-07
-1.60749e-07
-7.5231e-08
-1.61084e-07
-2.14446e-08
-1.61436e-07
3.24731e-08
-1.61807e-07
8.65254e-08
-1.62192e-07
1.40712e-07
-1.62562e-07
1.95015e-07
-1.62869e-07
2.49387e-07
-1.63026e-07
3.03748e-07
-1.6289e-07
3.57968e-07
-1.62213e-07
4.11818e-07
-1.60572e-07
4.64924e-07
-1.57226e-07
5.16856e-07
-1.51009e-07
5.66673e-07
-1.39478e-07
-1.12355e-07
6.17943e-07
-1.20873e-10
1.12815e-08
1.34508e-08
2.8733e-09
5.45299e-08
-3.81442e-08
1.17817e-07
-9.21922e-08
1.85718e-07
-1.37073e-07
2.43989e-07
-1.63146e-07
2.87132e-07
-1.71403e-07
3.16112e-07
-1.67166e-07
3.34609e-07
-1.55661e-07
3.46308e-07
-1.40468e-07
3.53927e-07
-1.23598e-07
3.59066e-07
-1.06074e-07
3.62548e-07
-8.84076e-08
3.64718e-07
-7.08661e-08
3.65698e-07
-5.36037e-08
3.65518e-07
-3.67207e-08
3.64195e-07
-2.02921e-08
3.61775e-07
-4.37984e-09
3.58318e-07
1.09572e-08
3.53982e-07
2.56931e-08
3.48962e-07
3.98016e-08
3.43527e-07
5.32485e-08
3.37822e-07
6.59617e-08
3.31903e-07
7.77772e-08
3.25508e-07
8.83589e-08
3.18185e-07
9.71417e-08
3.0918e-07
1.03295e-07
2.97834e-07
1.05718e-07
2.83674e-07
1.03274e-07
2.66888e-07
9.50148e-08
2.48285e-07
8.03351e-08
2.29228e-07
5.95669e-08
2.10063e-07
3.49691e-08
1.8721e-07
1.30501e-08
1.53716e-07
2.68492e-09
1.06763e-07
7.5453e-09
4.72448e-08
2.6405e-08
-2.58813e-08
5.73651e-08
-1.15237e-07
9.77682e-08
-2.21688e-07
1.44629e-07
-3.43851e-07
1.94671e-07
-4.79345e-07
2.44991e-07
-6.23031e-07
2.93569e-07
-7.68317e-07
3.38742e-07
-9.08979e-07
3.7847e-07
-1.03951e-06
4.1021e-07
-1.15598e-06
4.3287e-07
-1.25686e-06
4.46761e-07
-1.34172e-06
4.5216e-07
-1.41141e-06
4.49949e-07
-1.46784e-06
4.41281e-07
-1.51335e-06
4.27323e-07
-1.5506e-06
4.09306e-07
-1.58231e-06
3.8842e-07
-1.61089e-06
3.65844e-07
-1.63813e-06
3.42659e-07
-1.66516e-06
3.19701e-07
-1.6927e-06
2.9757e-07
-1.72096e-06
2.76703e-07
-1.74993e-06
2.57353e-07
-1.7795e-06
2.39624e-07
-1.80949e-06
2.23531e-07
-1.83959e-06
2.09029e-07
-1.86959e-06
1.95991e-07
-1.8993e-06
1.84267e-07
-1.92857e-06
1.73707e-07
-1.95725e-06
1.64156e-07
-1.98525e-06
1.55468e-07
-2.01249e-06
1.47508e-07
-2.0389e-06
1.40153e-07
-2.06444e-06
1.33302e-07
-2.08907e-06
1.26864e-07
-2.11276e-06
1.20765e-07
-2.1355e-06
1.14941e-07
-2.15726e-06
1.09344e-07
-2.17804e-06
1.03931e-07
-2.19783e-06
9.86717e-08
-2.21662e-06
9.35396e-08
-2.23442e-06
8.85147e-08
-2.25121e-06
8.35813e-08
-2.26701e-06
7.87264e-08
-2.28181e-06
7.39397e-08
-2.29561e-06
6.92118e-08
-2.30842e-06
6.45354e-08
-2.32024e-06
5.99023e-08
-2.33106e-06
5.53056e-08
-2.34089e-06
5.07379e-08
-2.34974e-06
4.61916e-08
-2.35762e-06
4.16582e-08
-2.36451e-06
3.7122e-08
-2.37039e-06
3.25807e-08
-2.37525e-06
2.80219e-08
-2.37911e-06
2.34423e-08
-2.38196e-06
1.88291e-08
-2.38382e-06
1.418e-08
-2.38466e-06
9.49202e-09
-2.38446e-06
4.76911e-09
-2.38321e-06
1.36836e-11
-2.38086e-06
-4.77801e-09
-2.37736e-06
-9.61803e-09
-2.37271e-06
-1.45271e-08
-2.36687e-06
-1.9506e-08
-2.35984e-06
-2.45531e-08
-2.35158e-06
-2.96549e-08
-2.34209e-06
-3.48127e-08
-2.33136e-06
-4.00114e-08
-2.31936e-06
-4.52529e-08
-2.30609e-06
-5.05199e-08
-2.29155e-06
-5.58135e-08
-2.27574e-06
-6.11147e-08
-2.25864e-06
-6.64235e-08
-2.24026e-06
-7.17204e-08
-2.22061e-06
-7.70036e-08
-2.19969e-06
-8.22548e-08
-2.17752e-06
-8.74701e-08
-2.1541e-06
-9.26341e-08
-2.12946e-06
-9.7741e-08