/*--------------------------------*- C++ -*----------------------------------*\
  =========                 |
  \\      /  F ield         | OpenFOAM: The Open Source CFD Toolbox
   \\    /   O peration     | Website:  https://openfoam.org
    \\  /    A nd           | Version:  8
     \\/     M anipulation  |
\*---------------------------------------------------------------------------*/
FoamFile
{
    version     2.0;
    format      ascii;
    class       volVectorField;
    location    "2000";
    object      U;
}
// * * * * * * * * * * * * * * * * * * * * * * * * * * * * * * * * * * * * * //

dimensions      [0 1 -1 0 0 0 0];

internalField   nonuniform List<vector> 
12225
(
(9.80393 0.0609499 0)
(9.35165 0.0978821 0)
(8.95478 0.0819417 0)
(8.60377 0.0710392 0)
(8.28702 0.0701192 0)
(8.00667 0.0610365 0)
(7.77027 0.0454177 0)
(7.56311 0.039425 0)
(7.38178 0.034228 0)
(7.23309 0.0242583 0)
(7.10864 0.0223304 0)
(7.01529 0.0319024 0)
(6.93538 0.0271902 0)
(6.86752 0.0202934 0)
(6.81014 0.0134557 0)
(6.76787 -0.00133753 0)
(6.74132 -0.00978191 0)
(6.73678 -0.00958828 0)
(10.0522 0.0527015 0)
(10.1896 0.0829723 0)
(10.2382 0.0829124 0)
(10.2355 0.079287 0)
(10.2111 0.0757986 0)
(10.1536 0.0736105 0)
(10.092 0.0699669 0)
(10.0262 0.0640168 0)
(9.9515 0.0591454 0)
(9.87385 0.0551678 0)
(9.79724 0.0486966 0)
(9.71216 0.0417011 0)
(9.62224 0.0388248 0)
(9.54611 0.0365599 0)
(9.46976 0.0329963 0)
(9.40429 0.0292109 0)
(9.34226 0.0230266 0)
(9.28494 0.0157296 0)
(10.0212 0.0444583 0)
(10.0747 0.0696666 0)
(10.121 0.0698653 0)
(10.15 0.0727572 0)
(10.1715 0.0771764 0)
(10.1884 0.0778422 0)
(10.1987 0.0764319 0)
(10.2032 0.0760256 0)
(10.2027 0.0736759 0)
(10.1976 0.069715 0)
(10.1881 0.0663076 0)
(10.1755 0.0633744 0)
(10.1602 0.059458 0)
(10.1442 0.0560723 0)
(10.1266 0.0527741 0)
(10.108 0.0475815 0)
(10.0869 0.0410365 0)
(10.064 0.0344247 0)
(10.0099 0.0341855 0)
(10.0438 0.0576055 0)
(10.0744 0.0627354 0)
(10.095 0.0667027 0)
(10.1115 0.070589 0)
(10.1278 0.0715704 0)
(10.1415 0.0701624 0)
(10.1526 0.06911 0)
(10.1621 0.0675552 0)
(10.1696 0.0650082 0)
(10.1752 0.0627792 0)
(10.18 0.061295 0)
(10.184 0.05891 0)
(10.187 0.0559418 0)
(10.1891 0.0523231 0)
(10.1898 0.0474569 0)
(10.1884 0.0422753 0)
(10.1854 0.0375114 0)
(10.0058 0.0261494 0)
(10.032 0.0505163 0)
(10.0553 0.0575088 0)
(10.0722 0.0616626 0)
(10.0863 0.0652256 0)
(10.1 0.0665152 0)
(10.1123 0.0659683 0)
(10.1229 0.0652011 0)
(10.1325 0.0638704 0)
(10.1409 0.0619215 0)
(10.1483 0.060094 0)
(10.1553 0.0584708 0)
(10.1619 0.0562668 0)
(10.1679 0.0535883 0)
(10.1732 0.0503066 0)
(10.1776 0.0461745 0)
(10.1806 0.0417451 0)
(10.1824 0.0374968 0)
(10.0038 0.0207859 0)
(10.0241 0.0437429 0)
(10.0435 0.0517984 0)
(10.0587 0.0565056 0)
(10.0716 0.0602041 0)
(10.0841 0.0618617 0)
(10.0954 0.0618634 0)
(10.1054 0.0613141 0)
(10.1146 0.0601639 0)
(10.1228 0.0585102 0)
(10.1303 0.0568117 0)
(10.1374 0.0550685 0)
(10.1441 0.0529168 0)
(10.1504 0.0503616 0)
(10.1561 0.0473313 0)
(10.1611 0.0437303 0)
(10.1651 0.0398913 0)
(10.1681 0.0361255 0)
(10.0025 0.0165287 0)
(10.0179 0.0374526 0)
(10.0346 0.0461577 0)
(10.0486 0.0513406 0)
(10.0607 0.0550852 0)
(10.0724 0.0569991 0)
(10.0831 0.0574045 0)
(10.0927 0.0570769 0)
(10.1015 0.0561333 0)
(10.1095 0.0547346 0)
(10.1169 0.0531603 0)
(10.1239 0.0514104 0)
(10.1304 0.0493307 0)
(10.1365 0.0469061 0)
(10.1421 0.0440982 0)
(10.1471 0.0408944 0)
(10.1513 0.0375135 0)
(10.1548 0.0341476 0)
(10.0018 0.0135209 0)
(10.0136 0.0324287 0)
(10.0282 0.0415471 0)
(10.0413 0.0470251 0)
(10.0529 0.0507681 0)
(10.064 0.0528353 0)
(10.0743 0.0535142 0)
(10.0838 0.053365 0)
(10.0924 0.0525778 0)
(10.1003 0.0513365 0)
(10.1075 0.0498287 0)
(10.1143 0.0480868 0)
(10.1207 0.046066 0)
(10.1266 0.0437619 0)
(10.132 0.0411512 0)
(10.1369 0.0382505 0)
(10.1411 0.0351977 0)
(10.1447 0.0321251 0)
(10.0013 0.011348 0)
(10.0109 0.0284656 0)
(10.0236 0.037428 0)
(10.0358 0.042978 0)
(10.0467 0.0467099 0)
(10.0572 0.048882 0)
(10.0672 0.0497422 0)
(10.0763 0.04975 0)
(10.0847 0.049124 0)
(10.0925 0.0480454 0)
(10.0997 0.0466637 0)
(10.1063 0.0450157 0)
(10.1126 0.04309 0)
(10.1184 0.0408939 0)
(10.1237 0.0384352 0)
(10.1285 0.035746 0)
(10.1326 0.0329392 0)
(10.1363 0.0301167 0)
(10.001 0.00944229 0)
(10.0085 0.0245467 0)
(10.0195 0.0331672 0)
(10.0305 0.0386797 0)
(10.0407 0.0423332 0)
(10.0506 0.0445464 0)
(10.06 0.0455409 0)
(10.0688 0.0456856 0)
(10.077 0.0452113 0)
(10.0846 0.0442854 0)
(10.0916 0.0430303 0)
(10.0982 0.0414886 0)
(10.1043 0.0396764 0)
(10.11 0.0376171 0)
(10.1151 0.0353315 0)
(10.1198 0.0328671 0)
(10.124 0.0303067 0)
(10.1277 0.0277356 0)
(10.0008 0.0077593 0)
(10.0066 0.0207111 0)
(10.0158 0.0287848 0)
(10.0256 0.034127 0)
(10.035 0.0376366 0)
(10.0442 0.0398285 0)
(10.053 0.0409029 0)
(10.0614 0.0411546 0)
(10.0692 0.0408059 0)
(10.0766 0.040013 0)
(10.0834 0.0388775 0)
(10.0898 0.037452 0)
(10.0958 0.0357721 0)
(10.1013 0.0338709 0)
(10.1064 0.0317803 0)
(10.111 0.0295485 0)
(10.1151 0.0272414 0)
(10.1188 0.0249185 0)
(10.0006 0.00627699 0)
(10.0051 0.0170586 0)
(10.0127 0.0243505 0)
(10.0213 0.0293599 0)
(10.0299 0.0326413 0)
(10.0382 0.0347332 0)
(10.0464 0.0358223 0)
(10.0543 0.0361399 0)
(10.0618 0.0358876 0)
(10.0688 0.0352047 0)
(10.0753 0.0341852 0)
(10.0815 0.0328841 0)
(10.0873 0.0313532 0)
(10.0926 0.0296222 0)
(10.0975 0.0277415 0)
(10.102 0.0257422 0)
(10.1061 0.0236881 0)
(10.1097 0.0216164 0)
(10.0005 0.00496535 0)
(10.004 0.0136391 0)
(10.0101 0.0199274 0)
(10.0176 0.0244181 0)
(10.0253 0.0273743 0)
(10.0329 0.0292805 0)
(10.0404 0.0303125 0)
(10.0478 0.0306485 0)
(10.0548 0.0304572 0)
(10.0614 0.0298642 0)
(10.0677 0.0289516 0)
(10.0735 0.0277835 0)
(10.079 0.0264029 0)
(10.0842 0.0248586 0)
(10.0889 0.0231814 0)
(10.0932 0.0214213 0)
(10.0971 0.019607 0)
(10.1007 0.0177918 0)
(10.0004 0.00378913 0)
(10.0031 0.0104562 0)
(10.0081 0.0155643 0)
(10.0145 0.0193491 0)
(10.0213 0.0218616 0)
(10.0282 0.0234875 0)
(10.0351 0.0243803 0)
(10.0419 0.0246768 0)
(10.0485 0.0245081 0)
(10.0547 0.0239812 0)
(10.0606 0.0231687 0)
(10.0662 0.0221311 0)
(10.0714 0.0209098 0)
(10.0763 0.0195508 0)
(10.0808 0.0180847 0)
(10.0849 0.0165536 0)
(10.0887 0.0149829 0)
(10.0922 0.0134093 0)
(10.0003 0.0027136 0)
(10.0025 0.00747871 0)
(10.0066 0.0112762 0)
(10.012 0.0141807 0)
(10.0181 0.0161173 0)
(10.0243 0.0173582 0)
(10.0306 0.0180233 0)
(10.0369 0.0182115 0)
(10.043 0.0180205 0)
(10.0489 0.0175293 0)
(10.0544 0.0168044 0)
(10.0597 0.0158887 0)
(10.0647 0.0148297 0)
(10.0693 0.0136535 0)
(10.0736 0.0124026 0)
(10.0776 0.0110955 0)
(10.0812 0.00976824 0)
(10.0846 0.00843441 0)
(10.0002 0.00170315 0)
(10.002 0.00463916 0)
(10.0055 0.00702841 0)
(10.0102 0.00889962 0)
(10.0156 0.0101213 0)
(10.0213 0.0108651 0)
(10.0271 0.0112075 0)
(10.0329 0.0112134 0)
(10.0386 0.0109438 0)
(10.0441 0.0104551 0)
(10.0494 0.00979184 0)
(10.0544 0.0089906 0)
(10.0591 0.00808174 0)
(10.0635 0.00709264 0)
(10.0676 0.00604855 0)
(10.0715 0.00497062 0)
(10.075 0.00387806 0)
(10.0783 0.00279047 0)
(10.0002 0.000711754 0)
(10.0018 0.00183449 0)
(10.0048 0.00272409 0)
(10.009 0.00342133 0)
(10.0139 0.00379323 0)
(10.0192 0.00392254 0)
(10.0246 0.00384793 0)
(10.0301 0.00359024 0)
(10.0355 0.00318707 0)
(10.0407 0.00265678 0)
(10.0457 0.00203164 0)
(10.0505 0.00132357 0)
(10.055 0.000558384 0)
(10.0593 -0.000254355 0)
(10.0633 -0.00109275 0)
(10.067 -0.0019488 0)
(10.0705 -0.00280603 0)
(10.0737 -0.00365367 0)
(10.0002 -0.000267061 0)
(10.0017 -0.000921063 0)
(10.0046 -0.0015636 0)
(10.0086 -0.00209004 0)
(10.0134 -0.00263338 0)
(10.0185 -0.00316884 0)
(10.0237 -0.0037151 0)
(10.029 -0.00427044 0)
(10.0343 -0.00484703 0)
(10.0394 -0.00543706 0)
(10.0443 -0.00605071 0)
(10.0489 -0.00667568 0)
(10.0533 -0.00731879 0)
(10.0575 -0.00796512 0)
(10.0614 -0.00861926 0)
(10.0651 -0.00926563 0)
(10.0685 -0.00990934 0)
(10.0717 -0.0105315 0)
(10.0002 -0.00120179 0)
(10.0018 -0.00354448 0)
(10.0048 -0.00564724 0)
(10.009 -0.00732673 0)
(10.0139 -0.00872259 0)
(10.0191 -0.00987904 0)
(10.0244 -0.010854 0)
(10.0298 -0.0116848 0)
(10.0351 -0.0124078 0)
(10.0402 -0.0130528 0)
(10.0451 -0.0136438 0)
(10.0497 -0.0141954 0)
(10.0541 -0.0147196 0)
(10.0583 -0.015222 0)
(10.0622 -0.0157076 0)
(10.0658 -0.0161765 0)
(10.0692 -0.0166305 0)
(10.0724 -0.0170647 0)
(10.0002 -0.00211915 0)
(10.002 -0.00611228 0)
(10.0055 -0.00958951 0)
(10.0101 -0.0122953 0)
(10.0154 -0.0144173 0)
(10.0209 -0.016094 0)
(10.0265 -0.0174107 0)
(10.032 -0.0184498 0)
(10.0375 -0.0192674 0)
(10.0427 -0.0199315 0)
(10.0477 -0.0204762 0)
(10.0524 -0.0209444 0)
(10.0569 -0.0213482 0)
(10.0611 -0.0217156 0)
(10.065 -0.0220478 0)
(10.0687 -0.022361 0)
(10.0721 -0.0226507 0)
(10.0753 -0.0229246 0)
(10.0003 -0.0030876 0)
(10.0025 -0.00879487 0)
(10.0066 -0.0135997 0)
(10.012 -0.0171881 0)
(10.0178 -0.0199242 0)
(10.0237 -0.0220111 0)
(10.0297 -0.0235897 0)
(10.0356 -0.0247472 0)
(10.0413 -0.0256033 0)
(10.0467 -0.0262365 0)
(10.0519 -0.026714 0)
(10.0567 -0.0270721 0)
(10.0613 -0.0273557 0)
(10.0656 -0.0275793 0)
(10.0696 -0.0277737 0)
(10.0733 -0.0279361 0)
(10.0768 -0.0280866 0)
(10.08 -0.0282131 0)
(10.0003 -0.00416925 0)
(10.0032 -0.0117546 0)
(10.0083 -0.0178205 0)
(10.0146 -0.0221453 0)
(10.0211 -0.0253507 0)
(10.0276 -0.0277543 0)
(10.0341 -0.0294854 0)
(10.0404 -0.0306961 0)
(10.0464 -0.031529 0)
(10.0521 -0.0320869 0)
(10.0575 -0.0324559 0)
(10.0625 -0.0326851 0)
(10.0672 -0.032827 0)
(10.0716 -0.0329112 0)
(10.0756 -0.0329622 0)
(10.0794 -0.0329921 0)
(10.083 -0.0330051 0)
(10.0863 -0.0330089 0)
(10.0005 -0.00544754 0)
(10.0042 -0.015176 0)
(10.0108 -0.0223587 0)
(10.0182 -0.0272058 0)
(10.0255 -0.0307624 0)
(10.0327 -0.0333782 0)
(10.0398 -0.0351845 0)
(10.0466 -0.0363629 0)
(10.053 -0.0371054 0)
(10.059 -0.0375492 0)
(10.0646 -0.0377695 0)
(10.0698 -0.0378457 0)
(10.0746 -0.0378241 0)
(10.0791 -0.0377575 0)
(10.0832 -0.0376608 0)
(10.0871 -0.037558 0)
(10.0906 -0.0374441 0)
(10.094 -0.0373298 0)
(10.0007 -0.00703459 0)
(10.0057 -0.0193001 0)
(10.0143 -0.0272617 0)
(10.023 -0.0323653 0)
(10.0311 -0.0361494 0)
(10.0391 -0.0389001 0)
(10.0468 -0.0406975 0)
(10.0542 -0.0417803 0)
(10.061 -0.0423873 0)
(10.0674 -0.0426653 0)
(10.0732 -0.0427063 0)
(10.0787 -0.0425924 0)
(10.0836 -0.0423902 0)
(10.0882 -0.0421495 0)
(10.0924 -0.0419019 0)
(10.0963 -0.0416595 0)
(10.1 -0.0414264 0)
(10.1033 -0.0411988 0)
(10.0012 -0.00905062 0)
(10.008 -0.0242325 0)
(10.0192 -0.0324579 0)
(10.0291 -0.0376016 0)
(10.0382 -0.0415102 0)
(10.047 -0.0443051 0)
(10.0557 -0.0460203 0)
(10.0637 -0.0469642 0)
(10.0711 -0.0474011 0)
(10.0779 -0.0474844 0)
(10.0842 -0.0473201 0)
(10.0899 -0.0469929 0)
(10.0951 -0.0465878 0)
(10.0998 -0.0461539 0)
(10.1041 -0.0457325 0)
(10.1081 -0.0453342 0)
(10.1118 -0.0449603 0)
(10.1152 -0.0446111 0)
(10.0019 -0.0116388 0)
(10.0115 -0.0294301 0)
(10.0254 -0.0375338 0)
(10.0368 -0.0428416 0)
(10.0473 -0.0469359 0)
(10.0576 -0.0496708 0)
(10.0676 -0.0511956 0)
(10.0768 -0.0519104 0)
(10.0851 -0.0521173 0)
(10.0927 -0.0519902 0)
(10.0995 -0.0516137 0)
(10.1056 -0.0510905 0)
(10.1112 -0.050498 0)
(10.1162 -0.0498929 0)
(10.1207 -0.0493164 0)
(10.1248 -0.0487867 0)
(10.1285 -0.0482955 0)
(10.1319 -0.0478387 0)
(10.0019 -0.0153054 0)
(10.0166 -0.03407 0)
(10.0335 -0.041771 0)
(10.0483 -0.0478297 0)
(10.0623 -0.0525261 0)
(10.076 -0.0553026 0)
(10.0888 -0.0565476 0)
(10.1002 -0.0568921 0)
(10.1101 -0.0567125 0)
(10.1188 -0.0561903 0)
(10.1265 -0.0554333 0)
(10.1331 -0.0545574 0)
(10.1389 -0.0536534 0)
(10.1439 -0.0527791 0)
(10.1482 -0.0519809 0)
(10.1519 -0.0512836 0)
(10.1552 -0.0506671 0)
(10.158 -0.0501141 0)
(10.0015 -0.0242918 0)
(10.0282 -0.0431811 0)
(10.0555 -0.0475834 0)
(10.0821 -0.0524851 0)
(10.1062 -0.0574182 0)
(10.1276 -0.0605899 0)
(10.1454 -0.0621033 0)
(10.1594 -0.062571 0)
(10.1703 -0.0623722 0)
(10.1785 -0.0616914 0)
(10.1844 -0.0606825 0)
(10.1882 -0.0594816 0)
(10.1902 -0.0581963 0)
(10.1907 -0.0569199 0)
(10.19 -0.0557368 0)
(10.1883 -0.054721 0)
(10.1862 -0.0538912 0)
(10.1836 -0.0533607 0)
(10.0501 -0.0325635 0)
(10.1521 -0.0632285 0)
(10.2274 -0.0702918 0)
(10.2633 -0.0719265 0)
(10.2771 -0.0722355 0)
(10.2774 -0.0710952 0)
(10.2677 -0.0689555 0)
(10.2502 -0.0663995 0)
(10.2269 -0.0637482 0)
(10.199 -0.0610484 0)
(10.1683 -0.0583342 0)
(10.1357 -0.0556958 0)
(10.1019 -0.0532043 0)
(10.0675 -0.0509043 0)
(10.0329 -0.0488486 0)
(9.99853 -0.0471538 0)
(9.96472 -0.0457995 0)
(9.93208 -0.0452142 0)
(9.88306 -0.0329939 0)
(9.65965 -0.0664709 0)
(9.41592 -0.0768874 0)
(9.17727 -0.0779665 0)
(8.95584 -0.0755852 0)
(8.75568 -0.0710751 0)
(8.5749 -0.0655976 0)
(8.41192 -0.0596891 0)
(8.26604 -0.0536455 0)
(8.13665 -0.0478588 0)
(8.02181 -0.0425414 0)
(7.91988 -0.0376566 0)
(7.82941 -0.0332114 0)
(7.74907 -0.0292448 0)
(7.67739 -0.0257652 0)
(7.61309 -0.0228219 0)
(7.55456 -0.0204612 0)
(7.50111 -0.0190724 0)
(-0.00275205 0.00759312 0)
(-0.0127293 0.012694 0)
(-0.0262573 0.0138636 0)
(-0.0406435 0.0118438 0)
(-0.051173 0.00598859 0)
(-0.0501651 -0.00371456 0)
(-0.0341207 -0.0168744 -8.19135e-19)
(-0.00646244 -0.0305955 9.22382e-19)
(0.0295103 -0.0408398 0)
(0.0708464 -0.045864 5.24275e-19)
(0.114595 -0.04632 0)
(0.157295 -0.0434141 0)
(0.196159 -0.0382192 0)
(0.229508 -0.0315575 -2.56796e-19)
(0.256455 -0.0240004 0)
(0.276591 -0.0159108 0)
(0.289575 -0.00749788 2.21549e-19)
(0.295602 0.00130203 0)
(0.293613 0.0104023 0)
(0.283732 0.0193466 0)
(0.266586 0.0273756 -2.36538e-19)
(0.242801 0.0337048 0)
(0.213293 0.0375999 -2.78705e-19)
(0.179412 0.0384537 0)
(0.142996 0.0358375 0)
(0.106253 0.0297388 -4.48849e-19)
(0.0716558 0.0207947 0)
(0.0415944 0.0105653 7.41354e-19)
(0.0179607 0.00149013 0)
(0.00152976 -0.00434296 -1.29873e-18)
(-0.00875624 -0.00728494 0)
(-0.0141598 -0.00936891 0)
(-0.0134277 -0.0117107 0)
(-0.00622882 -0.0152281 0)
(0.00822487 -0.020286 0)
(0.0302154 -0.0258935 8.46124e-19)
(0.0582256 -0.029871 0)
(0.0882854 -0.030026 -1.00306e-18)
(0.115381 -0.0257964 0)
(0.135202 -0.0184284 7.96637e-19)
(0.14589 -0.0104233 0)
(0.148645 -0.00402881 0)
(0.146245 -0.000667318 -7.85401e-19)
(0.142745 -0.00129343 0)
(0.141135 -0.00674911 -8.10037e-19)
(0.139376 -0.0163258 8.11149e-19)
(0.13068 -0.0244044 0)
(0.107352 -0.0203974 8.78281e-19)
(0.0645988 -0.000831641 1.02783e-18)
(-0.0134298 0.017661 0)
(-0.11401 0.0374626 0)
(-0.222112 0.0624682 0)
(-0.342005 0.087252 0)
(-0.470965 0.10641 0)
(-0.606062 0.116241 -1.79146e-19)
(-0.743106 0.11923 0)
(-0.877749 0.117324 1.43086e-19)
(-1.00818 0.110127 0)
(-1.13133 0.102783 0)
(-1.24606 0.0969317 -1.12609e-19)
(-1.35289 0.0868172 0)
(-1.45104 0.0777528 1.01648e-19)
(-1.54083 0.0717048 0)
(-1.62366 0.065172 0)
(-1.69979 0.0593639 0)
(-1.7699 0.0541135 -8.78919e-20)
(-1.83472 0.0495567 0)
(-1.89489 0.045579 0)
(-1.95097 0.042091 -8.18233e-20)
(-2.00346 0.0390479 0)
(-2.05278 0.0363612 -7.87322e-20)
(-2.09929 0.0339817 0)
(-2.14327 0.0318521 0)
(-2.18495 0.0299308 0)
(-2.22455 0.0281794 7.37758e-20)
(-2.2622 0.0265706 0)
(-2.29806 0.025078 0)
(-2.33221 0.0236864 7.06677e-20)
(-2.36476 0.0223756 6.97006e-20)
(-2.39577 0.0211404 0)
(-2.4253 0.0199626 6.78393e-20)
(-2.4534 0.0188443 0)
(-2.48012 0.0177666 1.32097e-19)
(-2.50548 0.0167366 0)
(-2.52951 0.0157346 1.28612e-19)
(-2.55223 0.0147706 0)
(-2.57366 0.013824 -1.25197e-19)
(-2.59383 0.0129028 0)
(-2.61275 0.0119886 0)
(-2.63044 0.0110764 0)
(-2.64687 0.0101555 1.18468e-19)
(-2.66199 0.00922225 0)
(-2.6758 0.00826025 -1.15107e-19)
(-2.68829 0.00726381 0)
(-2.69942 0.00622232 1.11743e-19)
(-2.70915 0.00513702 1.10061e-19)
(-2.71741 0.00401738 1.08382e-19)
(-2.72414 0.00289494 0)
(-2.72925 0.00183189 0)
(-2.73265 0.000888906 0)
(-2.73439 0.000108266 0)
(-2.73494 -0.000585698 0)
(-2.7342 -0.00126261 0)
(-2.73222 -0.00193731 0)
(-2.72898 -0.00260705 0)
(-2.72446 -0.00328218 -9.25222e-20)
(-2.71866 -0.00395192 -9.05843e-20)
(-2.71156 -0.00462649 0)
(-2.70315 -0.00529398 0)
(-2.69343 -0.00596397 0)
(-2.68239 -0.00662503 -8.23233e-20)
(-2.67002 -0.00728545 0)
(-2.65633 -0.00793528 0)
(-2.64131 -0.00858082 0)
(-2.62497 -0.00921442 0)
(-2.60731 -0.00984002 7.06066e-20)
(-2.58835 -0.0104528 0)
(-2.56809 -0.011054 0)
(-2.54656 -0.011642 -6.26947e-20)
(-2.52376 -0.0122153 5.9896e-20)
(-2.49971 -0.0127752 0)
(-2.47443 -0.013318 5.40439e-20)
(-2.44795 -0.0138477 0)
(-2.42028 -0.0143584 -4.78397e-20)
(-2.39146 -0.0148561 0)
(-2.36149 -0.0153322 0)
(-2.33041 -0.0157932 0)
(-2.29826 -0.0162273 0)
(-2.26504 -0.0166564 0)
(-2.2308 -0.0170529 5.3927e-20)
(-2.19558 -0.0174303 4.6267e-20)
(-2.1594 -0.0177726 0)
(-2.12229 -0.0180325 0)
(-2.08428 -0.018163 0)
(-2.04549 -0.0180853 -1.33882e-20)
(-2.00598 -0.0177896 0)
(-1.96573 -0.0177949 0)
(-1.92463 -0.0181153 0)
(-1.88274 -0.0183485 2.34627e-20)
(-1.84012 -0.0185729 -3.34179e-20)
(-1.79679 -0.018783 0)
(-1.7528 -0.0189811 0)
(-1.70818 -0.0191706 -6.53132e-20)
(-1.66296 -0.019351 -7.66851e-20)
(-1.61716 -0.0195239 0)
(-1.5708 -0.0196897 0)
(-1.52391 -0.0198458 1.13356e-19)
(-1.47648 -0.0200011 -1.26515e-19)
(-1.42857 -0.0201472 0)
(-1.38016 -0.0202951 0)
(-1.33132 -0.0204343 -1.69331e-19)
(-1.28202 -0.0205744 0)
(-1.23234 -0.0207053 0)
(-1.18228 -0.020834 -2.17963e-19)
(-1.13186 -0.0209658 0)
(-1.08113 -0.0210947 -2.54324e-19)
(-1.03007 -0.0212282 0)
(-0.978722 -0.0213686 0)
(-0.927079 -0.0215166 0)
(-0.875147 -0.0216758 3.39047e-19)
(-0.822924 -0.0218464 0)
(-0.770407 -0.0220296 0)
(-0.717596 -0.0222248 0)
(-0.664492 -0.0224332 0)
(-0.611097 -0.0226562 0)
(-0.55741 -0.0228967 0)
(-0.503426 -0.0231578 5.45876e-19)
(-0.449138 -0.0234428 5.846e-19)
(-0.394534 -0.0237541 0)
(-0.339604 -0.0240923 0)
(-0.284344 -0.0244579 0)
(-0.228762 -0.0248614 -7.76722e-19)
(-0.172892 -0.0253015 0)
(-0.116821 -0.0257347 1.80854e-18)
(-0.0607451 -0.0260718 -1.95854e-18)
(-0.00509179 -0.0259602 -2.07118e-18)
(0.050161 -0.0249234 2.05685e-18)
(0.101368 -0.0228193 -1.98009e-18)
(0.157675 -0.0202104 1.92446e-18)
(0.17247 -0.00830447 0)
(-0.000157791 0.0202932 0)
(-0.00579348 0.0355029 0)
(-0.0119883 0.0367296 2.18737e-18)
(-0.0122695 0.0273174 0)
(0.00207153 0.00530811 -2.2508e-18)
(0.0321335 -0.0318911 -1.41604e-18)
(0.0717166 -0.0736284 -4.47304e-19)
(0.116804 -0.107884 -3.19532e-19)
(0.163395 -0.128953 0)
(0.208076 -0.136488 -2.09138e-19)
(0.248652 -0.133141 0)
(0.284167 -0.122325 0)
(0.314292 -0.106945 3.11634e-19)
(0.339046 -0.0891039 1.48401e-19)
(0.35865 -0.070166 -2.8924e-19)
(0.373431 -0.0509104 -2.85804e-19)
(0.383769 -0.0317292 -1.42851e-19)
(0.389862 -0.0127606 0)
(0.39267 0.00600166 0)
(0.392167 0.0244155 0)
(0.387987 0.0421257 -1.51002e-19)
(0.379645 0.0586117 0)
(0.366592 0.0731337 4.82827e-19)
(0.348332 0.0847262 0)
(0.324647 0.0922712 0)
(0.295721 0.0946847 1.94519e-19)
(0.262395 0.0912124 0)
(0.226234 0.0818522 -2.44244e-19)
(0.189501 0.0675739 -5.68365e-19)
(0.155079 0.0501167 3.37582e-19)
(0.126008 0.0311156 0)
(0.105519 0.0114261 0)
(0.0949683 -0.00911178 0)
(0.0962016 -0.0296383 -9.94523e-19)
(0.107882 -0.0498109 -8.48325e-19)
(0.12654 -0.0671538 -3.53978e-19)
(0.146232 -0.0749178 0)
(0.16082 -0.0697934 5.16886e-19)
(0.167606 -0.0545266 0)
(0.166177 -0.034371 -5.01222e-19)
(0.157237 -0.0161799 0)
(0.141626 -0.00437185 0)
(0.118963 0.00223222 6.35198e-19)
(0.0829052 0.00856636 0)
(0.0237349 0.0223462 2.44739e-18)
(-0.0718691 0.0548319 -6.17364e-19)
(-0.19511 0.0992181 0)
(-0.328891 0.145156 -2.62887e-19)
(-0.468783 0.189112 -1.95326e-19)
(-0.614731 0.225682 0)
(-0.761667 0.25324 0)
(-0.906223 0.272099 0)
(-1.04657 0.281972 0)
(-1.17959 0.283229 0)
(-1.30259 0.27731 8.25991e-20)
(-1.41303 0.266188 1.55647e-19)
(-1.51142 0.251164 -7.346e-20)
(-1.59863 0.233521 0)
(-1.67537 0.214787 1.35953e-19)
(-1.74326 0.196283 -6.60091e-20)
(-1.80421 0.178567 0)
(-1.85884 0.162027 -6.21772e-20)
(-1.90858 0.147273 0)
(-1.95412 0.134079 0)
(-1.99629 0.122472 -1.17183e-19)
(-2.03572 0.112326 5.75075e-20)
(-2.07281 0.103472 -1.13223e-19)
(-2.10789 0.0957408 1.11453e-19)
(-2.1412 0.088965 5.48978e-20)
(-2.17292 0.0829854 0)
(-2.2032 0.0776732 5.33797e-20)
(-2.23213 0.0729051 0)
(-2.25979 0.0685895 0)
(-2.28624 0.0646419 0)
(-2.31152 0.0609994 5.05669e-20)
(-2.33568 0.0576083 0)
(-2.35873 0.0544256 9.866e-20)
(-2.38071 0.0514211 -1.46159e-19)
(-2.40163 0.048563 -4.81283e-20)
(-2.42151 0.0458377 0)
(-2.44035 0.0432186 -4.69064e-20)
(-2.45819 0.0407034 0)
(-2.475 0.0382675 -9.13875e-20)
(-2.49082 0.0359159 0)
(-2.50563 0.0336258 -8.89661e-20)
(-2.51945 0.0314078 1.75408e-19)
(-2.53226 0.0292406 8.65414e-20)
(-2.54409 0.027133 0)
(-2.55493 0.0250662 0)
(-2.56478 0.0230331 0)
(-2.5736 0.0210244 -8.16454e-20)
(-2.58139 0.0190352 0)
(-2.58814 0.0170494 7.91494e-20)
(-2.59389 0.0150605 0)
(-2.59864 0.013054 -2.29873e-19)
(-2.60242 0.0110261 -7.53523e-20)
(-2.60527 0.00896946 -7.40768e-20)
(-2.60725 0.00689322 0)
(-2.60842 0.00483703 0)
(-2.6089 0.00286694 0)
(-2.60865 0.00104258 0)
(-2.60726 -0.000688859 0)
(-2.6047 -0.00238741 -1.323e-19)
(-2.60093 -0.00406959 -1.29511e-19)
(-2.59594 -0.00573514 0)
(-2.58969 -0.00739377 6.1812e-20)
(-2.58218 -0.00903464 6.03372e-20)
(-2.5734 -0.0106667 0)
(-2.56333 -0.0122768 1.14854e-19)
(-2.55197 -0.0138734 0)
(-2.53931 -0.0154432 -5.44401e-20)
(-2.52534 -0.0169938 0)
(-2.51007 -0.0185128 0)
(-2.4935 -0.0200064 9.86659e-20)
(-2.47562 -0.0214643 0)
(-2.45646 -0.0228905 -4.56315e-20)
(-2.43601 -0.0242776 0)
(-2.41429 -0.0256272 0)
(-2.39131 -0.0269353 -4.0523e-20)
(-2.36709 -0.0282007 -3.81042e-20)
(-2.34165 -0.0294229 0)
(-2.315 -0.0305983 3.46247e-20)
(-2.28718 -0.0317298 0)
(-2.25819 -0.0328117 -3.04785e-20)
(-2.22807 -0.0338497 -5.60928e-20)
(-2.19683 -0.0348365 0)
(-2.16451 -0.03578 0)
(-2.13113 -0.0366711 0)
(-2.09672 -0.0375178 0)
(-2.06131 -0.0383135 -3.27106e-20)
(-2.02494 -0.0390648 -8.50827e-20)
(-1.98763 -0.0397617 0)
(-1.9494 -0.0404123 0)
(-1.91027 -0.0410261 0)
(-1.87023 -0.0416264 7.86395e-21)
(-1.82931 -0.0422087 0)
(-1.78754 -0.0427654 0)
(-1.74504 -0.0432482 1.45804e-20)
(-1.7018 -0.043662 1.20014e-20)
(-1.65783 -0.044025 1.90492e-20)
(-1.61316 -0.0443472 0)
(-1.56782 -0.044631 0)
(-1.52185 -0.0448826 3.62444e-20)
(-1.47527 -0.0451017 -4.05799e-20)
(-1.42811 -0.0452907 0)
(-1.38039 -0.0454501 0)
(-1.33212 -0.045578 -6.05e-20)
(-1.28332 -0.0456833 1.98796e-19)
(-1.23403 -0.0457631 0)
(-1.18424 -0.0458236 0)
(-1.13401 -0.0458614 8.6448e-20)
(-1.08332 -0.0458779 0)
(-1.03223 -0.0458716 1.98537e-19)
(-0.980736 -0.0458367 -1.05433e-19)
(-0.928882 -0.0457873 0)
(-0.876687 -0.0457195 1.21621e-19)
(-0.824163 -0.04564 2.56367e-19)
(-0.771326 -0.0455551 0)
(-0.718183 -0.0454679 0)
(-0.664738 -0.0453831 -1.52293e-19)
(-0.610989 -0.0453027 0)
(-0.556933 -0.0452272 3.35344e-19)
(-0.50257 -0.0451554 0)
(-0.447899 -0.0450868 0)
(-0.392918 -0.0450222 0)
(-0.337628 -0.0449644 0)
(-0.282022 -0.0449169 -2.12517e-19)
(-0.226092 -0.0448837 -2.21914e-19)
(-0.169828 -0.0448671 0)
(-0.113216 -0.0448664 0)
(-0.056256 -0.0448722 0)
(0.00104338 -0.0448629 2.59346e-19)
(0.0586588 -0.0448055 0)
(0.116525 -0.0446605 -5.26135e-19)
(0.174532 -0.0443518 5.27344e-19)
(0.232378 -0.0436623 5.28607e-19)
(0.289945 -0.0422177 5.26876e-19)
(0.344865 -0.0397018 5.32774e-19)
(0.402242 -0.0352276 5.34981e-19)
(0.437589 -0.0218943 0)
(0.000382899 0.0228976 0)
(0.000773138 0.0397994 0)
(0.00685988 0.0321901 -2.31444e-18)
(0.0274662 -0.00206535 -1.60643e-18)
(0.0677448 -0.0624084 9.55113e-19)
(0.119795 -0.128647 6.20935e-19)
(0.173164 -0.181069 -3.77589e-22)
(0.220888 -0.211105 0)
(0.260314 -0.219606 0)
(0.29148 -0.211786 0)
(0.315627 -0.193467 0)
(0.33423 -0.16938 0)
(0.348517 -0.142743 -7.09564e-19)
(0.35936 -0.115464 0)
(0.36733 -0.0885684 2.26307e-19)
(0.372811 -0.0625357 2.25695e-19)
(0.376069 -0.0375551 0)
(0.377309 -0.0136931 0)
(0.376773 0.00907431 0)
(0.374801 0.030917 0)
(0.371656 0.0519811 2.40288e-19)
(0.367532 0.0722185 0)
(0.362374 0.0912679 -2.57393e-19)
(0.355816 0.108398 0)
(0.347201 0.1225 0)
(0.335695 0.13217 0)
(0.320515 0.135929 -6.43314e-19)
(0.301306 0.132562 0)
(0.278548 0.121558 3.80156e-19)
(0.253755 0.103258 -8.45102e-19)
(0.229356 0.078761 0)
(0.208191 0.0494407 0)
(0.192715 0.0169794 0)
(0.183259 -0.0176236 6.18285e-19)
(0.178986 -0.0508466 5.4864e-19)
(0.173349 -0.0726323 0)
(0.159519 -0.0740317 0)
(0.136992 -0.0578705 -7.63284e-19)
(0.106803 -0.0314215 -7.82776e-19)
(0.0693345 0.000923336 8.70285e-19)
(0.0224172 0.0345905 0)
(-0.0449394 0.0667171 0)
(-0.139023 0.106294 0)
(-0.253209 0.156995 0)
(-0.383687 0.213217 -3.94166e-19)
(-0.52471 0.270158 -3.1191e-19)
(-0.668666 0.323836 2.55657e-19)
(-0.809526 0.369282 0)
(-0.943136 0.405011 0)
(-1.06572 0.429962 0)
(-1.17564 0.443243 0)
(-1.27238 0.445569 -1.41985e-19)
(-1.3557 0.438038 0)
(-1.4267 0.421954 0)
(-1.48727 0.399202 -1.18651e-19)
(-1.53955 0.372236 -1.12215e-19)
(-1.58579 0.343296 0)
(-1.6277 0.313994 2.10093e-19)
(-1.6667 0.285788 -1.00918e-19)
(-1.70368 0.25959 9.80662e-20)
(-1.73927 0.235674 0)
(-1.77392 0.214302 0)
(-1.80772 0.195607 0)
(-1.84067 0.179248 0)
(-1.87282 0.164968 8.75579e-20)
(-1.90417 0.152499 1.71971e-19)
(-1.9347 0.141583 8.43777e-20)
(-1.96439 0.131977 -8.29319e-20)
(-1.99321 0.123459 0)
(-2.02114 0.115841 1.60433e-19)
(-2.04817 0.108963 1.57902e-19)
(-2.07428 0.102692 1.55472e-19)
(-2.09948 0.0969215 -1.53126e-19)
(-2.12375 0.0915611 0)
(-2.14709 0.0865411 -2.23021e-19)
(-2.16951 0.081805 0)
(-2.19099 0.0773075 7.21074e-20)
(-2.21154 0.0730146 7.11951e-20)
(-2.23117 0.0688964 0)
(-2.24986 0.0649332 0)
(-2.26763 0.0611037 1.36145e-19)
(-2.28447 0.057397 0)
(-2.30039 0.0537958 1.32148e-19)
(-2.31539 0.0502945 0)
(-2.32946 0.0468788 -1.28183e-19)
(-2.34261 0.0435464 -2.52496e-19)
(-2.35483 0.0402851 0)
(-2.36613 0.0370929 0)
(-2.37652 0.0339582 0)
(-2.38599 0.0308701 -1.18333e-19)
(-2.39452 0.027823 0)
(-2.40209 0.0248093 -1.14384e-19)
(-2.4087 0.0218239 0)
(-2.41439 0.0188606 0)
(-2.41915 0.0159184 2.16889e-19)
(-2.42299 0.0130044 0)
(-2.42592 0.0101277 1.04473e-19)
(-2.42792 0.00730282 0)
(-2.42897 0.00453245 1.00467e-19)
(-2.42902 0.00180432 0)
(-2.42801 -0.000922908 0)
(-2.42587 -0.00365668 0)
(-2.4226 -0.0063815 2.76153e-19)
(-2.41815 -0.00909103 8.98343e-20)
(-2.4125 -0.0117866 0)
(-2.40565 -0.0144636 0)
(-2.39756 -0.017121 0)
(-2.38824 -0.0197541 0)
(-2.37767 -0.0223598 -7.86843e-20)
(-2.36583 -0.0249333 1.53144e-19)
(-2.35273 -0.0274702 7.40033e-20)
(-2.33835 -0.0299664 -1.43704e-19)
(-2.32271 -0.0324167 -1.38868e-19)
(-2.30579 -0.0348175 -6.66973e-20)
(-2.2876 -0.0371633 0)
(-2.26816 -0.0394515 -1.23864e-19)
(-2.24746 -0.0416769 0)
(-2.22553 -0.0438376 1.13431e-19)
(-2.20237 -0.0459291 5.36863e-20)
(-2.178 -0.04795 0)
(-2.15244 -0.049897 -9.71285e-20)
(-2.12571 -0.0517692 -4.5366e-20)
(-2.09782 -0.0535647 0)
(-2.06881 -0.0552826 -4.04517e-20)
(-2.03869 -0.0569225 1.10892e-19)
(-2.00748 -0.0584837 0)
(-1.97522 -0.0599665 0)
(-1.94192 -0.0613692 0)
(-1.90762 -0.0626932 0)
(-1.87235 -0.0639376 4.38608e-20)
(-1.83612 -0.0651016 3.66138e-20)
(-1.79897 -0.0661781 0)
(-1.76091 -0.0671643 0)
(-1.72197 -0.0680632 0)
(-1.68215 -0.0688872 0)
(-1.6415 -0.0696501 0)
(-1.60005 -0.0703758 0)
(-1.55786 -0.0710447 -9.08667e-21)
(-1.51496 -0.0716343 -1.07857e-21)
(-1.47134 -0.0721511 0)
(-1.42703 -0.0726026 0)
(-1.38207 -0.0729928 -3.52095e-20)
(-1.33648 -0.0733272 0)
(-1.29028 -0.0736075 5.02089e-20)
(-1.2435 -0.0738368 5.60924e-20)
(-1.19617 -0.0740154 0)
(-1.14829 -0.0741454 0)
(-1.0999 -0.074232 -7.85425e-20)
(-1.051 -0.0742798 -1.69185e-19)
(-1.00163 -0.0742898 0)
(-0.951789 -0.0742646 0)
(-0.901517 -0.0741989 0)
(-0.850825 -0.0740953 -1.15027e-19)
(-0.799737 -0.0739468 1.22467e-19)
(-0.748281 -0.0737662 0)
(-0.696474 -0.0735546 2.72607e-19)
(-0.644335 -0.0733193 1.42688e-19)
(-0.591876 -0.0730691 -3.03033e-19)
(-0.539106 -0.0728098 0)
(-0.486029 -0.0725476 0)
(-0.432644 -0.0722859 -3.49369e-19)
(-0.378949 -0.0720255 -1.83714e-19)
(-0.324942 -0.071764 0)
(-0.270623 -0.0715005 0)
(-0.21599 -0.0712353 0)
(-0.16104 -0.0709719 0)
(-0.105769 -0.070714 -4.44432e-19)
(-0.0501672 -0.0704667 0)
(0.00577609 -0.0702315 0)
(0.0620732 -0.0700057 0)
(0.118733 -0.0697761 0)
(0.175751 -0.0695145 0)
(0.233101 -0.0691765 0)
(0.290721 -0.068706 -5.09962e-19)
(0.348523 -0.0680044 0)
(0.406273 -0.0668841 0)
(0.463935 -0.0650188 -1.05817e-18)
(0.51991 -0.0618779 5.34682e-19)
(0.578083 -0.0563854 -5.45804e-19)
(0.623616 -0.0429469 5.57604e-19)
(-0.00115351 0.0230307 0)
(0.00202348 0.0265106 5.05551e-18)
(0.0244524 -0.0171765 0)
(0.0731784 -0.10152 8.50442e-19)
(0.134801 -0.18971 0)
(0.192928 -0.25348 0)
(0.238298 -0.284318 -3.20504e-19)
(0.269698 -0.287275 0)
(0.289964 -0.271837 0)
(0.302769 -0.246364 0)
(0.311032 -0.216355 0)
(0.316603 -0.18486 0)
(0.320473 -0.153408 8.00955e-19)
(0.323103 -0.122698 3.93842e-19)
(0.324656 -0.0930401 -3.91212e-19)
(0.325176 -0.0645665 0)
(0.324671 -0.0373377 0)
(0.32316 -0.011389 0)
(0.320692 0.0132622 0)
(0.317362 0.0366491 0)
(0.313311 0.058813 4.23467e-19)
(0.30876 0.0797679 4.34841e-19)
(0.303923 0.0994288 -4.50851e-19)
(0.298923 0.117497 4.72788e-19)
(0.293683 0.133343 0)
(0.287892 0.145952 0)
(0.280976 0.153912 5.73309e-19)
(0.272214 0.155547 0)
(0.260995 0.149325 0)
(0.247134 0.134138 7.37668e-19)
(0.231199 0.109818 8.21283e-19)
(0.214233 0.0773505 9.26151e-19)
(0.197536 0.0389353 0)
(0.180237 -0.00105469 0)
(0.155721 -0.0305848 -9.37696e-19)
(0.11883 -0.0367265 0)
(0.0708698 -0.0198423 0)
(0.0124486 0.0135843 7.67381e-19)
(-0.059495 0.0584888 -6.86599e-19)
(-0.147683 0.113315 5.46247e-19)
(-0.25102 0.175424 0)
(-0.36856 0.240115 0)
(-0.496476 0.305414 5.78614e-19)
(-0.628695 0.369669 0)
(-0.759491 0.429243 4.134e-19)
(-0.883743 0.478885 5.44096e-19)
(-0.996617 0.516462 -4.85227e-19)
(-1.09583 0.542023 2.93413e-19)
(-1.18068 0.555391 0)
(-1.25107 0.557328 0)
(-1.30853 0.549103 2.33018e-19)
(-1.35504 0.532318 1.08678e-19)
(-1.39287 0.508782 0)
(-1.42455 0.480321 0)
(-1.45248 0.448877 9.34675e-20)
(-1.47856 0.416337 1.80842e-19)
(-1.50413 0.384149 0)
(-1.52995 0.353294 -1.66886e-19)
(-1.55643 0.324481 1.62614e-19)
(-1.58367 0.298076 -1.57806e-19)
(-1.61158 0.274158 0)
(-1.64002 0.252726 0)
(-1.66875 0.233693 0)
(-1.69754 0.216806 0)
(-1.72619 0.201818 0)
(-1.75455 0.188491 -1.36649e-19)
(-1.78249 0.176592 0)
(-1.80989 0.165906 0)
(-1.83668 0.156241 0)