/*--------------------------------*- C++ -*----------------------------------*\
| =========                 |                                                 |
| \\      /  F ield         | OpenFOAM: The Open Source CFD Toolbox           |
|  \\    /   O peration     | Version:  v2012                                 |
|   \\  /    A nd           | Website:  www.openfoam.com                      |
|    \\/     M anipulation  |                                                 |
\*---------------------------------------------------------------------------*/
FoamFile
{
    version     2.0;
    format      ascii;
    class       volScalarField;
    location    "4600";
    object      nut;
}
// * * * * * * * * * * * * * * * * * * * * * * * * * * * * * * * * * * * * * //

dimensions      [0 2 -1 0 0 0 0];


internalField   nonuniform List<scalar> 
12225
(
0.0122671
0.00158819
0.000666128
0.000410104
0.00029404
0.000227808
0.000186418
0.000144345
0.000166336
0.000215684
0.000223828
0.000214191
0.000195169
0.000167532
0.000161402
0.00014553
0.000132325
0.000120142
0.0323823
0.00744532
0.00330638
0.00204329
0.00146802
0.00114429
0.00093866
0.000784864
0.000690372
0.000626883
0.000569543
0.000518712
0.000475211
0.000435566
0.000404974
0.000372249
0.000347117
0.0003211
0.0490123
0.01515
0.00728196
0.00457854
0.00330639
0.00258047
0.00211327
0.00178187
0.00154674
0.00137249
0.00123146
0.00111528
0.00101835
0.000936101
0.000866692
0.000804292
0.000753564
0.000701001
0.063054
0.0237783
0.0122894
0.00788814
0.00573397
0.00448496
0.0036744
0.00310418
0.00268715
0.00236995
0.0021179
0.00191315
0.00174401
0.00160221
0.00148242
0.0013786
0.00129107
0.00120452
0.074932
0.0328517
0.0181452
0.0119262
0.00874549
0.00686412
0.00563086
0.00476129
0.00411867
0.0036257
0.00323514
0.00291874
0.00265799
0.00244004
0.00225596
0.00209832
0.00196334
0.0018398
0.0849536
0.0420208
0.0246655
0.0166359
0.0123325
0.00972587
0.0079954
0.0067674
0.00585403
0.00515004
0.0045919
0.00413982
0.00376742
0.00345635
0.00319352
0.00296906
0.00277612
0.00260656
0.0933822
0.0510219
0.0316642
0.0219415
0.016474
0.0130717
0.0107779
0.00913539
0.00790597
0.00695436
0.00619832
0.00558532
0.00508009
0.00465801
0.00430137
0.00399702
0.00373534
0.00350913
0.0993794
0.0583363
0.0378386
0.0268568
0.0204171
0.0163053
0.0134892
0.011453
0.00991905
0.0087267
0.00777696
0.00700569
0.00636943
0.00583762
0.00538816
0.00500468
0.00467515
0.00439182
0.104023
0.0645454
0.0433804
0.0314239
0.0241571
0.0194092
0.0161097
0.0137018
0.0118767
0.0104523
0.00931473
0.0083894
0.00762524
0.00698615
0.00644586
0.00598491
0.00558899
0.00524916
0.108368
0.0708939
0.0493757
0.0365496
0.0284517
0.0230231
0.0191863
0.0163548
0.0141927
0.0124969
0.0111382
0.0100306
0.00911456
0.00834784
0.00769937
0.00714607
0.00667097
0.00626328
0.112368
0.0772557
0.0557282
0.0421918
0.0332976
0.0271652
0.0227468
0.0194433
0.0168984
0.0148904
0.013275
0.0119546
0.0108607
0.00994396
0.00916816
0.00850607
0.00793759
0.0074494
0.115994
0.0834975
0.0623054
0.0482612
0.0386474
0.0318167
0.026789
0.0229739
0.0200047
0.0176453
0.0157379
0.0141737
0.012875
0.0117851
0.010862
0.0100738
0.0093969
0.00881485
0.119234
0.0894856
0.0689377
0.0546109
0.0443919
0.0369007
0.0312597
0.0269089
0.0234837
0.02074
0.0185097
0.0166735
0.015145
0.0138601
0.0127705
0.0118397
0.0110398
0.010351
0.122086
0.095084
0.075415
0.0610223
0.0503361
0.0422535
0.0360231
0.0311353
0.0272402
0.0240931
0.0215191
0.0193909
0.0176141
0.0161175
0.0148467
0.0137601
0.0128258
0.0120198
0.124546
0.100135
0.0814619
0.0671726
0.056158
0.047577
0.0408126
0.0354174
0.031066
0.0275197
0.0246013
0.0221778
0.0201482
0.018435
0.0169783
0.0157315
0.0146584
0.0137312
0.126578
0.104396
0.0866605
0.0725515
0.0613228
0.0523526
0.0451453
0.0393148
0.0345631
0.0306611
0.0274325
0.024741
0.0224806
0.020569
0.0189413
0.0175468
0.0163455
0.0153062
0.128011
0.107322
0.0902141
0.0762353
0.0648743
0.0556509
0.0481493
0.0420254
0.0370012
0.0328553
0.0294126
0.0265352
0.0241143
0.0220643
0.0203171
0.0188191
0.0175275
0.0164083
0.128006
0.107313
0.0902048
0.0762269
0.0648674
0.0556454
0.048145
0.0420221
0.0369988
0.0328537
0.0294117
0.0265349
0.0241147
0.0220651
0.0203184
0.0188205
0.0175286
0.0164082
0.126509
0.104255
0.0864922
0.0723807
0.0611613
0.052205
0.0450128
0.0391967
0.0344584
0.0305685
0.0273506
0.0246684
0.0224163
0.0205118
0.0188902
0.0175006
0.0163023
0.015263
0.124267
0.0995604
0.0807712
0.0664676
0.0554886
0.0469631
0.0402594
0.0349227
0.0306248
0.0271258
0.0242487
0.0218611
0.0198625
0.0181762
0.0167425
0.0155151
0.0144574
0.0135404
0.12136
0.0936399
0.0737261
0.0593348
0.0487592
0.0408248
0.0347467
0.0300003
0.0262308
0.0231928
0.0207127
0.018665
0.0169572
0.0155197
0.0142998
0.0132566
0.0123582
0.0115797
0.117686
0.0865903
0.0656967
0.0514791
0.0415374
0.0343608
0.0290183
0.0249322
0.0217348
0.0191848
0.0171184
0.0154211
0.0140105
0.0128262
0.0118228
0.0109656
0.0102279
0.00958884
0.11305
0.0784122
0.056921
0.0432687
0.0342296
0.0279652
0.0234365
0.0200435
0.0174263
0.0153598
0.0136967
0.012337
0.0112107
0.0102671
0.00946865
0.00878715
0.00820096
0.00769338
0.107169
0.0691009
0.0476371
0.035029
0.0271566
0.021922
0.0182437
0.0155401
0.0134818
0.0118708
0.0105819
0.00953231
0.00866515
0.00793988
0.00732684
0.00680388
0.00635416
0.00596493
0.0996761
0.0587036
0.0381279
0.0270699
0.0205782
0.0164329
0.0135949
0.0115437
0.00999934
0.00879952
0.00784422
0.00706853
0.00642881
0.0058944
0.00544292
0.00505788
0.00472675
0.00444031
0.0901097
0.0473665
0.0287363
0.0196847
0.0146976
0.0116311
0.00957849
0.0081152
0.0070235
0.0061808
0.00551234
0.00497024
0.00452345
0.00415039
0.00383514
0.00356623
0.00333475
0.00313472
0.0779076
0.0353826
0.0198606
0.0131383
0.00966105
0.00759295
0.00623349
0.0052741
0.00456424
0.00402036
0.00359041
0.00324081
0.00295212
0.00271092
0.00250655
0.00233206
0.00218114
0.00205119
0.06238
0.0232554
0.0119461
0.00765493
0.00556336
0.00435253
0.0035672
0.00301615
0.0026133
0.00231033
0.00207203
0.00187469
0.00171026
0.00157257
0.00145422
0.00135338
0.0012641
0.00118801
0.0426105
0.0117794
0.0054693
0.00341385
0.0024607
0.00192004
0.00157265
0.00132942
0.00115829
0.00104121
0.000949546
0.000865021
0.000791964
0.000730598
0.000670298
0.000626285
0.000581727
0.00054194
0.0168348
0.00255985
0.00110002
0.000683429
0.000493725
0.00038681
0.000318008
0.00026839
0.00026748
0.000336029
0.000374569
0.000354281
0.000319518
0.000292545
0.000240363
0.000284135
0.00026684
0.000218853
5.28773e-10
1.01557e-07
1.14792e-06
5.16907e-06
9.86224e-06
1.28042e-05
1.31264e-05
1.11701e-05
8.84839e-06
5.76872e-06
3.3973e-06
1.93943e-06
1.35852e-06
1.47281e-06
2.0097e-06
2.47861e-06
2.41143e-06
1.63485e-06
7.31198e-07
3.71063e-07
4.11677e-07
1.22105e-06
5.52255e-06
2.8403e-05
5.71839e-05
7.50075e-05
9.13949e-05
0.00010519
0.000117328
0.000127442
0.0001363
0.000143913
0.000150574
0.000156375
0.000161437
0.000165906
0.000169867
0.000173406
0.000176579
0.00017943
0.000181988
0.000184275
0.00018631
0.000188109
0.000189685
0.000191052
0.00019222
0.000193196
0.000193977
0.00019456
0.000194822
0.000195071
0.00019512
0.000194991
0.000194692
0.000194245
0.000193645
0.000192897
0.000192002
0.000190962
0.00018978
0.000188457
0.000186996
0.000185399
0.00018367
0.000181809
0.000179818
0.000177699
0.000175456
0.000173089
0.000170602
0.000167997
0.000165274
0.000162437
0.000159486
0.000156422
0.000153248
0.000149962
0.000146565
0.000143055
0.000139429
0.000135683
0.000131808
0.000127798
0.000123644
0.000119334
0.000114858
0.000110203
0.000105353
0.000100284
9.49692e-05
8.93828e-05
8.35177e-05
7.74421e-05
7.14359e-05
6.61747e-05
6.24464e-05
6.01227e-05
5.83754e-05
5.67706e-05
5.51947e-05
5.36264e-05
5.20644e-05
5.05102e-05
4.89657e-05
4.7433e-05
4.59148e-05
4.44172e-05
4.29689e-05
4.17363e-05
4.05321e-05
3.93426e-05
3.81704e-05
3.7016e-05
3.58805e-05
3.47645e-05
3.36689e-05
3.25944e-05
3.15416e-05
3.05108e-05
2.95026e-05
2.85173e-05
2.75555e-05
2.66176e-05
2.57038e-05
2.48139e-05
2.39492e-05
2.31393e-05
2.24051e-05
2.16896e-05
2.09891e-05
2.0313e-05
1.96648e-05
1.90297e-05
1.84088e-05
1.78048e-05
1.72189e-05
1.66513e-05
1.61017e-05
1.55697e-05
1.50549e-05
1.45569e-05
1.40754e-05
1.36097e-05
1.31597e-05
1.27248e-05
1.23047e-05
1.18989e-05
1.15071e-05
1.11289e-05
1.0764e-05
1.0412e-05
1.00726e-05
9.74539e-06
9.43014e-06
9.12654e-06
8.83431e-06
8.55322e-06
8.28303e-06
8.02354e-06
7.77456e-06
7.53592e-06
7.30743e-06
7.08893e-06
6.88018e-06
6.68096e-06
6.4909e-06
6.3096e-06
6.13648e-06
5.97084e-06
5.81168e-06
5.65799e-06
5.50763e-06
5.36054e-06
5.20734e-06
5.06365e-06
4.86075e-06
4.71932e-06
4.30518e-06
3.68191e-06
3.34254e-09
6.03753e-06
6.1566e-05
0.000137855
0.000181893
0.000206005
0.000215528
0.000214029
0.000205554
0.000188727
0.000167819
0.000147715
0.000137596
0.000143063
0.000156893
0.000165298
0.000167412
0.000168287
0.000173771
0.000183538
0.000199769
0.00021807
0.00023517
0.000251143
0.000262457
0.000272242
0.000281088
0.00029427
0.00031316
0.000327064
0.000339738
0.000350623
0.000360524
0.000369579
0.000377454
0.000384645
0.000391345
0.000397776
0.000404067
0.000410283
0.000416419
0.00042243
0.000428266
0.000433885
0.000439258
0.000444371
0.000449206
0.000453752
0.000458011
0.000461989
0.000465694
0.000469148
0.00047234
0.00047528
0.00047797
0.00048041
0.000482602
0.000484547
0.000486243
0.000487693
0.000488896
0.000489854
0.000490569
0.000491045
0.000491292
0.000491316
0.000491111
0.000490673
0.000490019
0.000489153
0.00048808
0.000486807
0.000485341
0.000483689
0.000481857
0.000479854
0.000477687
0.000475362
0.000472889
0.000470274
0.000467525
0.000464649
0.000461654
0.000458547
0.000455336
0.00045203
0.000448638
0.000445167
0.000441628
0.000438027
0.000434373
0.000430669
0.000426915
0.000423104
0.000419216
0.000415224
0.000411113
0.000406912
0.000402671
0.000398414
0.00039415
0.00038988
0.000385611
0.000381343
0.000377083
0.000372831
0.000368592
0.000364367
0.000360157
0.000355959
0.000351784
0.000347636
0.000343518
0.000339431
0.000335377
0.000331357
0.000327374
0.000323428
0.000319522
0.000315655
0.000311829
0.000308044
0.000304303
0.000300606
0.000296953
0.000293345
0.000289782
0.000286261
0.000282782
0.000279349
0.000275958
0.000272621
0.000269336
0.000266086
0.000262871
0.000259697
0.000256568
0.000253483
0.000250444
0.000247448
0.000244497
0.00024159
0.000238725
0.000235902
0.000233122
0.000230383
0.000227684
0.000225026
0.000222407
0.000219828
0.000217288
0.000214787
0.000212324
0.0002099
0.000207515
0.000205169
0.000202862
0.000200595
0.000198369
0.000196185
0.000194044
0.000191949
0.0001899
0.0001879
0.00018595
0.000184052
0.000182207
0.000180414
0.000178674
0.000176985
0.000175342
0.000173744
0.000172171
0.000170654
0.000169061
0.000167712
0.000165675
0.000165073
0.00016198
0.000160546
7.63361e-08
3.98471e-05
0.000162906
0.000245621
0.000298885
0.000329077
0.000339963
0.000336946
0.000323951
0.000304609
0.00028491
0.000272515
0.000270564
0.000277535
0.000288074
0.000299113
0.000312178
0.000329346
0.000351
0.000376364
0.000403795
0.000432011
0.000471306
0.000517481
0.000563077
0.000607153
0.000650209
0.000693854
0.000732913
0.000763984
0.000788816
0.000808508
0.000824122
0.000836517
0.00084647
0.000854755
0.000862068
0.000869049
0.000876232
0.000883967
0.00089236
0.000901284
0.000910499
0.000919772
0.000928925
0.000937838
0.000946438
0.000954675
0.000962513
0.000969925
0.000976884
0.000983369
0.000989369
0.000994882
0.000999904
0.00100443
0.00100847
0.00101202
0.00101507
0.00101763
0.0010197
0.00102127
0.00102236
0.0010229
0.00102305
0.00102277
0.00102197
0.00102073
0.00101904
0.00101692
0.00101438
0.00101143
0.0010081
0.00100438
0.0010003
0.000995865
0.000991097
0.000986008
0.000980614
0.00097493
0.000968969
0.000962748
0.000956281
0.000949584
0.000942671
0.000935558
0.000928258
0.000920788
0.00091316
0.000905388
0.000897484
0.000889459
0.000881323
0.000873083
0.000864748
0.000856327
0.000847833
0.000839282
0.00083069
0.00082207
0.000813434
0.000804789
0.000796144
0.000787506
0.000778884
0.000770283
0.00076171
0.000753172
0.000744673
0.000736219
0.000727816
0.00071947
0.000711184
0.000702963
0.000694811
0.00068673
0.000678724
0.000670796
0.000662949
0.000655184
0.000647504
0.00063991
0.000632405
0.00062499
0.000617667
0.000610435
0.000603296
0.000596249
0.000589296
0.000582437
0.000575673
0.000569005
0.000562429
0.00055594
0.000549537
0.000543223
0.000536999
0.000530867
0.000524826
0.000518875
0.000513015
0.000507243
0.00050156
0.000495964
0.000490453
0.000485028
0.000479686
0.000474427
0.000469249
0.000464151
0.000459132
0.000454191
0.000449327
0.000444539
0.000439827
0.000435187
0.000430621
0.000426126
0.000421701
0.000417346
0.000413058
0.000408836
0.000404679
0.000400584
0.000396548
0.000392569
0.000388641
0.00038476
0.000380919
0.000377109
0.000373318
0.000369533
0.000365725
0.000361886
0.000357917
0.000353911
0.000349379
0.00034513
0.000338554
0.000326858
6.16294e-07
8.21631e-05
0.00021302
0.000308838
0.000372269
0.000409346
0.000424631
0.000424846
0.00041475
0.000401425
0.000393597
0.000393032
0.000402632
0.000420126
0.000443116
0.000471099
0.00050466
0.00054407
0.000588493
0.000652318
0.000726425
0.000806384
0.000890253
0.000960511
0.00102267
0.00107857
0.00112878
0.00117349
0.00121256
0.00124629
0.00127541
0.00130064
0.00132268
0.00134217
0.00135967
0.00137567
0.00139057
0.00140473
0.00141838
0.00143173
0.0014449
0.00145795
0.00147091
0.00148376
0.00149645
0.00150891
0.00152103
0.00153273
0.00154392
0.00155451
0.00156446
0.00157373
0.0015823
0.00159016
0.0015973
0.0016037
0.00160937
0.00161431
0.0016185
0.00162196
0.00162468
0.00162666
0.00162781
0.00162825
0.00162812
0.00162721
0.00162558
0.00162325
0.00162025
0.00161659
0.00161229
0.00160737
0.00160185
0.00159575
0.00158909
0.00158189
0.00157418
0.00156598
0.00155732
0.0015482
0.00153867
0.00152874
0.00151844
0.00150778
0.00149679
0.0014855
0.00147392
0.00146209
0.00145001
0.00143771
0.0014252
0.00141252
0.00139967
0.00138667
0.00137354
0.00136029
0.00134693
0.0013335
0.00132001
0.00130648
0.00129292
0.00127935
0.00126578
0.00125222
0.00123868
0.00122518
0.00121173
0.00119833
0.00118499
0.00117172
0.00115853
0.00114544
0.00113243
0.00111953
0.00110673
0.00109405
0.00108148
0.00106903
0.00105671
0.00104451
0.00103245
0.00102052
0.00100873
0.000997076
0.000985564
0.000974195
0.00096297
0.000951888
0.000940952
0.000930162
0.000919519
0.000909021
0.000898666
0.00088845
0.000878372
0.000868433
0.000858634
0.000848976
0.000839459
0.000830081
0.000820843
0.000811742
0.000802777
0.000793946
0.000785249
0.000776683
0.000768246
0.000759937
0.000751753
0.000743694
0.000735757
0.000727941
0.000720243
0.000712662
0.000705197
0.000697844
0.000690604
0.000683473
0.000676449
0.000669531
0.000662716
0.000656002
0.000649384
0.000642861
0.000636427
0.000630079
0.000623808
0.000617609
0.000611471
0.000605382
0.000599325
0.00059328
0.000587215
0.000581098
0.000574853
0.000568456
0.000561627
0.000554629
0.000546164
0.000529917
1.39971e-06
0.000101869
0.000234936
0.000354666
0.000433288
0.000480503
0.000503934
0.000512337
0.000513973
0.000515202
0.00052246
0.00053904
0.000565512
0.000600885
0.000644395
0.000696083
0.000756756
0.000840665
0.000936751
0.0010325
0.00112126
0.00120542
0.0012845
0.00135694
0.00142347
0.00148468
0.00154097
0.00159266
0.00164011
0.00168376
0.00172409
0.00176157
0.00179664
0.00182967
0.00186096
0.00189077
0.00191929
0.00194665
0.00197296
0.00199827
0.00202262
0.00204602
0.00206845
0.00208991
0.00211037
0.0021298
0.00214816
0.00216543
0.00218158
0.0021966
0.00221047
0.00222319
0.00223478
0.00224525
0.00225462
0.0022629
0.00227011
0.00227627
0.0022814
0.0022855
0.00228859
0.00229064
0.00229155
0.00229164
0.00229076
0.00228888
0.00228604
0.00228227
0.00227758
0.00227199
0.00226554
0.00225825
0.00225015
0.00224127
0.00223164
0.00222128
0.00221023
0.00219853
0.00218619
0.00217326
0.00215976
0.00214573
0.00213119
0.00211618
0.00210072
0.00208486
0.00206861
0.00205201
0.00203509
0.00201787
0.00200038
0.00198266
0.00196471
0.00194658
0.00192827
0.00190981
0.00189123
0.00187255
0.00185379
0.00183498
0.00181614
0.00179728
0.00177843
0.00175959
0.00174079
0.00172204
0.00170336
0.00168475
0.00166623
0.00164781
0.0016295
0.00161131
0.00159326
0.00157534
0.00155757
0.00153996
0.0015225
0.00150521
0.0014881
0.00147116
0.0014544
0.00143782
0.00142143
0.00140523
0.00138923
0.00137342
0.00135781
0.00134239
0.00132717
0.00131216
0.00129734
0.00128272
0.0012683
0.00125406
0.00124002
0.00122618
0.00121252
0.00119906
0.00118578
0.0011727
0.00115981
0.0011471
0.00113458
0.00112225
0.00111009
0.00109811
0.00108631
0.00107468
0.00106323
0.00105194
0.00104082
0.00102986
0.00101906
0.00100842
0.000997939
0.00098761
0.000977432
0.000967402
0.000957517
0.000947775
0.000938172
0.000928704
0.000919368
0.000910159
0.000901072
0.000892101
0.000883237
0.000874472
0.000865795
0.000857189
0.000848636
0.000840111
0.000831581
0.000823001
0.000814302
0.000805423
0.000796159
0.000786548
0.000776379
0.000756607
2.32602e-06
0.000118229
0.000256265
0.000389878
0.000486692
0.000548393
0.000586143
0.000609634
0.000627573
0.000647216
0.000673765
0.000709808
0.000756044
0.000812742
0.00088045
0.000971375
0.00107678
0.00117843
0.00127753
0.00137279
0.00146326
0.00154904
0.00163007
0.00170632
0.0017781
0.00184575
0.00190962
0.00197003
0.00202733
0.00208183
0.00213387
0.00218372
0.00223164
0.00227782
0.00232244
0.00236562
0.00240743
0.00244794
0.00248717
0.00252513
0.00256182
0.00259722
0.0026313
0.00266402
0.00269535
0.00272524
0.00275366
0.00278056
0.00280591
0.00282968
0.00285183
0.00287234
0.00289121
0.00290841
0.00292395
0.00293781
0.00295001
0.00296055
0.00296944
0.0029767
0.00298236
0.00298644
0.00298886
0.00298976
0.00298929
0.00298732
0.00298398
0.00297927
0.00297327
0.00296601
0.00295756
0.00294796
0.00293728
0.00292555
0.00291282
0.00289915
0.00288459
0.00286917
0.00285294
0.00283595
0.00281823
0.00279984
0.0027808
0.00276116
0.00274097
0.00272026
0.00269907
0.00267744
0.00265541
0.002633
0.00261027
0.00258724
0.00256394
0.00254041
0.00251668
0.00249277
0.00246871
0.00244454
0.00242028
0.00239596
0.0023716
0.00234723
0.00232286
0.00229853
0.00227425
0.00225003
0.0022259
0.00220188
0.00217797
0.00215419
0.00213055
0.00210707
0.00208377
0.00206064
0.00203769
0.00201495
0.00199241
0.00197009
0.00194798
0.0019261
0.00190445
0.00188304
0.00186187
0.00184093
0.00182025
0.00179981
0.00177962
0.00175968
0.00174
0.00172056
0.00170138
0.00168245
0.00166377
0.00164534
0.00162715
0.0016092
0.0015915
0.00157404
0.00155683
0.00153985
0.00152311
0.00150661
0.00149035
0.00147431
0.00145851
0.00144293
0.00142757
0.00141243
0.0013975
0.00138279
0.00136829
0.00135399
0.0013399
0.001326
0.0013123
0.0012988
0.00128548
0.00127236
0.00125941
0.00124664
0.00123405
0.00122163
0.00120937
0.00119728
0.00118534
0.00117354
0.00116189
0.00115036
0.00113895
0.00112764
0.00111641
0.00110523
0.00109406
0.00108286
0.00107157
0.0010601
0.00104828
0.00103613
0.00102385
0.0010014
2.79462e-06
0.000126788
0.000269171
0.000407472
0.000526054
0.00060745
0.000663625
0.000705735
0.000743028
0.000782745
0.000829903
0.000887406
0.000956979
0.00104974
0.00115703
0.00126367
0.00136974
0.00147299
0.0015729
0.00166907
0.00176128
0.00184953
0.00193391
0.00201461
0.00209184
0.0021659
0.00223705
0.00230556
0.00237169
0.00243568
0.00249772
0.002558
0.00261667
0.00267384
0.0027296
0.002784
0.00283708
0.00288884
0.00293929
0.0029884
0.00303614
0.00308248
0.00312737
0.00317076
0.0032126
0.00325284
0.00329142
0.00332829
0.00336341
0.00339672
0.00342818
0.00345775
0.00348541
0.0035111
0.00353482
0.00355654
0.00357625
0.00359393
0.00360959
0.00362321
0.00363481
0.00364439
0.00365196
0.00365758
0.00366123
0.00366285
0.00366276
0.00366077
0.003657
0.00365148
0.00364427
0.00363543
0.00362501
0.00361308
0.00359969
0.00358492
0.00356883
0.00355149
0.00353295
0.0035133
0.0034926
0.00347091
0.0034483
0.00342484
0.00340059
0.00337561
0.00334996
0.00332371
0.0032969
0.00326959
0.00324184
0.00321368
0.00318518
0.00315636
0.00312728
0.00309797
0.00306847
0.00303882
0.00300906
0.00297921
0.00294931
0.00291939
0.00288948
0.0028596
0.00282978
0.00280004
0.0027704
0.00274089
0.00271151
0.0026823
0.00265326
0.00262441
0.00259576
0.00256733
0.00253913
0.00251116
0.00248345
0.00245599
0.0024288
0.00240188
0.00237524
0.00234889
0.00232282
0.00229705
0.00227157
0.00224639
0.00222151
0.00219693
0.00217266
0.00214869
0.00212503
0.00210166
0.0020786
0.00205584
0.00203337
0.0020112
0.00198932
0.00196773
0.00194644
0.00192543
0.00190471
0.00188428
0.00186413
0.00184425
0.00182465
0.00180531
0.00178625
0.00176745
0.00174891
0.00173062
0.00171258
0.00169479
0.00167725
0.00165995
0.00164288
0.00162604
0.00160943
0.00159305
0.00157689
0.00156094
0.0015452
0.00152967
0.00151434
0.00149921
0.00148426
0.0014695
0.0014549
0.00144047
0.00142618
0.00141202
0.00139796
0.00138399
0.00137005
0.00135611
0.0013421
0.00132793
0.00131346
0.00129874
0.00128369
0.00125946
2.93961e-06
0.000128668
0.000270496
0.000406981
0.000537581
0.00064116
0.000718465
0.000780061
0.000836128
0.000894379
0.000962832
0.00105546
0.00116564
0.00128717
0.00140267
0.00151387
0.00162161
0.00172606
0.00182716
0.00192488
0.00201922
0.00211027
0.00219817
0.00228313
0.00236535
0.00244506
0.00252249
0.00259784
0.00267131
0.00274307
0.00281325
0.00288198
0.00294935
0.00301542
0.00308023
0.0031438
0.00320613
0.0032672
0.00332699
0.00338546
0.00344255
0.00349822
0.0035524
0.00360503
0.00365605
0.00370538
0.00375297
0.00379875
0.00384266
0.00388464
0.00392464
0.0039626
0.00399848
0.00403223
0.00406382
0.00409322
0.00412039
0.00414532
0.00416799
0.00418839
0.00420652
0.00422237
0.00423595
0.00424728
0.00425636
0.00426323
0.00426795
0.00427041
0.00427084
0.00426919
0.00426552
0.00425988
0.00425231
0.00424288
0.00423165
0.00421868
0.00420403
0.00418777
0.00416997
0.00415071
0.00413004
0.00410805
0.0040848
0.00406037
0.00403483
0.00400825
0.00398071
0.00395226
0.00392299
0.00389296
0.00386223
0.00383087
0.00379894
0.0037665
0.0037336
0.0037003
0.00366666
0.00363273
0.00359855
0.00356418
0.00352966
0.00349502
0.00346032
0.00342559
0.00339086
0.00335617
0.00332154
0.00328701
0.0032526
0.00321833
0.00318423
0.00315033
0.00311663
0.00308315
0.00304992
0.00301695
0.00298424
0.00295182
0.00291969
0.00288787
0.00285635
0.00282515
0.00279428
0.00276374
0.00273353
0.00270366
0.00267413
0.00264495
0.00261611
0.00258762
0.00255948
0.00253169
0.00250424
0.00247713
0.00245037
0.00242394
0.00239786
0.00237211
0.0023467
0.00232162
0.00229688
0.00227246
0.00224836
0.00222459
0.00220113
0.00217799
0.00215516
0.00213263
0.0021104
0.00208847
0.00206683
0.00204548
0.00202441
0.00200362
0.00198311
0.00196287
0.0019429
0.00192318
0.00190373
0.00188452
0.00186557
0.00184686
0.00182838
0.00181013
0.00179211
0.0017743
0.00175669
0.00173928
0.00172204
0.00170497
0.00168802
0.00167119
0.00165442
0.00163767
0.00162087
0.00160395
0.00158676
0.00156937
0.00155143
0.0015253
2.75538e-06
0.00012516
0.000263801
0.000395333
0.000519864
0.000632139
0.000726078
0.000807574
0.000891513
0.000987454
0.00109728
0.00122242
0.0013589
0.00148632
0.00160652
0.00172145
0.00183206
0.00193871
0.00204173
0.00214148
0.00223817
0.00233201
0.00242319
0.00251194
0.00259844
0.00268291
0.00276554
0.00284649
0.00292593
0.00300398
0.00308075
0.00315631
0.00323073
0.00330403
0.00337622
0.00344731
0.00351727
0.00358605
0.00365363
0.00371992
0.00378488
0.00384842
0.00391048
0.00397099
0.00402985
0.00408699
0.00414234
0.00419582
0.00424735
0.00429688
0.00434432
0.00438963
0.00443275
0.00447361
0.00451219
0.00454843
0.0045823
0.00461378
0.00464284
0.00466947
0.00469365
0.00471537
0.00473465
0.00475148
0.00476588
0.00477787
0.00478747
0.00479471
0.00479964
0.00480221
0.00480259
0.00480078
0.00479681
0.00479075
0.00478265
0.00477256
0.00476056
0.00474671
0.00473107
0.00471371
0.0046947
0.00467412
0.00465202
0.0046285
0.00460361
0.00457744
0.00455006
0.00452153
0.00449194
0.00446134
0.00442982
0.00439744
0.00436426
0.00433036
0.00429579
0.00426062
0.00422492
0.00418873
0.00415213
0.00411516
0.00407788
0.00404034
0.00400258
0.00396467
0.00392663
0.00388852
0.00385036
0.0038122
0.00377408
0.00373602
0.00369806
0.00366023
0.00362254
0.00358503
0.00354773
0.00351064
0.00347379
0.0034372
0.00340088
0.00336486
0.00332913
0.00329371
0.00325862
0.00322387
0.00318945
0.00315538
0.00312167
0.00308831
0.00305532
0.00302269
0.00299044
0.00295855
0.00292703
0.00289588
0.00286511
0.0028347
0.00280466
0.00277499
0.00274569
0.00271675
0.00268817
0.00265996
0.0026321
0.0026046
0.00257745
0.00255064
0.00252418
0.00249806
0.00247228
0.00244683
0.0024217
0.0023969
0.00237241
0.00234824
0.00232438
0.00230083
0.00227757
0.00225461
0.00223195
0.00220957
0.00218747
0.00216564
0.00214409
0.0021228
0.00210176
0.00208097
0.00206041
0.00204008
0.00201995
0.00200001
0.00198023
0.00196059
0.00194103
0.00192151
0.00190197
0.00188233
0.00186245
0.0018424
0.00182165
0.00179333
2.33906e-06
0.000117867
0.000252633
0.000380646
0.000503523
0.000620028
0.000731022
0.000840514
0.000955926
0.0010823
0.0012208
0.00137086
0.00151307
0.00164494
0.0017691
0.00188743
0.00200105
0.00211059
0.00221644
0.00231882
0.00241811
0.0025147
0.00260889
0.00270094
0.00279108
0.00287951
0.00296641
0.00305195
0.00313624
0.00321941
0.00330154
0.00338267
0.00346286
0.0035421
0.00362039
0.00369772
0.00377402
0.00384926
0.00392337
0.00399627
0.00406789
0.00413813
0.00420692
0.00427415
0.00433974
0.0044036
0.00446564
0.00452577
0.00458391
0.00463998
0.0046939
0.00474561
0.00479504
0.00484214
0.00488684
0.0049291
0.00496888
0.00500616
0.00504089
0.00507306
0.00510265
0.00512966
0.00515408
0.00517591
0.00519517
0.00521188
0.00522604
0.0052377
0.00524687
0.00525359
0.00525791
0.00525985
0.00525951
0.0052569
0.00525208
0.00524512
0.00523606
0.00522498
0.00521194
0.00519701
0.00518025
0.00516173
0.00514152
0.00511971
0.00509635
0.00507152
0.0050453
0.00501776
0.00498896
0.00495899
0.0049279
0.00489578
0.00486269
0.0048287
0.00479387
0.00475827
0.00472196
0.00468501
0.00464748
0.00460943
0.00457092
0.004532
0.00449272
0.00445314
0.00441331
0.00437327
0.00433307
0.00429275
0.00425235
0.00421191
0.00417148
0.00413107
0.00409072
0.00405047
0.00401035
0.00397037
0.00393057
0.00389096
0.00385158
0.00381243
0.00377354
0.00373492
0.00369658
0.00365855
0.00362083
0.00358344
0.00354638
0.00350966
0.00347329
0.00343728
0.00340163
0.00336635
0.00333143
0.00329689
0.00326272
0.00322892
0.0031955
0.00316246
0.00312979
0.0030975
0.00306559
0.00303405
0.00300288
0.00297209
0.00294167
0.00291161
0.00288192
0.00285258
0.00282361
0.00279498
0.00276671
0.00273878
0.0027112
0.00268395
0.00265704
0.00263046
0.00260421
0.00257827
0.00255266
0.00252735
0.00250236
0.00247766
0.00245326
0.00242915
0.00240532
0.00238177
0.00235847
0.00233542
0.00231261
0.00229
0.00226758
0.00224532
0.00222316
0.00220106
0.00217896
0.00215677
0.00213438
0.00211181
0.00208852
0.00205786
1.92449e-06
0.000110211
0.000242403
0.000369698
0.000495433
0.000619938
0.000745129
0.000874883
0.00101265
0.00116037
0.00131822
0.00147984
0.00162747
0.00176379
0.00189178
0.00201344
0.00213003
0.00224238
0.00235101
0.00245632
0.00255861
0.00265807
0.00275514
0.00285018
0.00294348
0.00303526
0.00312574
0.00321507
0.00330338
0.00339077
0.00347733
0.00356308
0.00364806
0.00373226
0.00381566
0.00389822
0.00397988
0.00406059
0.00414025
0.00421878
0.00429609
0.00437208
0.00444664
0.00451968
0.00459108
0.00466075
0.00472859
0.00479451
0.0048584
0.00492017
0.00497976
0.00503707
0.00509205
0.00514461
0.00519471
0.00524228
0.00528729
0.0053297
0.00536948
0.00540659
0.00544103
0.00547277
0.00550182
0.00552818
0.00555186
0.00557286
0.00559121
0.00560693
0.00562005
0.00563061
0.00563864
0.00564418
0.00564729
0.00564802
0.00564641
0.00564253
0.00563644
0.0056282
0.00561786
0.0056055
0.00559117
0.00557496
0.00555693
0.00553715
0.0055157
0.00549264
0.00546805
0.005442
0.00541457
0.00538582
0.00535583
0.00532466
0.00529238
0.00525907
0.00522479
0.0051896
0.00515357
0.00511677
0.00507926
0.00504109
0.00500234
0.00496305
0.00492329
0.0048831
0.00484254
0.00480166
0.00476051
0.00471912
0.00467756
0.00463585
0.00459404
0.00455216
0.00451026
0.00446837
0.00442651
0.00438472
0.00434303
0.00430147
0.00426005
0.00421881
0.00417776
0.00413693
0.00409633
0.00405599
0.00401591
0.00397611
0.0039366
0.0038974
0.00385852
0.00381996
0.00378174
0.00374386
0.00370633
0.00366915
0.00363232
0.00359586
0.00355976
0.00352403
0.00348867
0.00345367
0.00341905
0.0033848
0.00335093
0.00331743
0.00328429
0.00325153
0.00321914
0.00318711
0.00315544
0.00312414
0.0030932
0.00306261
0.00303238
0.0030025
0.00297296
0.00294377
0.00291492
0.0028864
0.00285822
0.00283036
0.00280283
0.00277562
0.00274872
0.00272213
0.00269584
0.00266984
0.00264412
0.00261867
0.00259347
0.0025685
0.00254373
0.00251913
0.00249466
0.00247028
0.0024459
0.00242146
0.00239684
0.00237205
0.00234655
0.00231374
1.53429e-06
0.000102064
0.000231947
0.000358925
0.000487634
0.00061902
0.000755741
0.000899716
0.00105261
0.00121495
0.00138723
0.00155302
0.00170463
0.00184481
0.0019763
0.00210108
0.00222048
0.00233543
0.00244661
0.0025545
0.00265948
0.00276187
0.00286192
0.00295984
0.00305604
0.00315082
0.00324442
0.00333701
0.00342875
0.00351974
0.00361005
0.00369972
0.00378877
0.00387719
0.00396494
0.00405198
0.00413823
0.00422362
0.00430806
0.00439144
0.00447367
0.00455462
0.00463418
0.00471225
0.00478871
0.00486344
0.00493633
0.00500729
0.00507621
0.00514298
0.00520753
0.00526977
0.00532962
0.00538701
0.00544187
0.00549416
0.00554381
0.00559079
0.00563507
0.00567661
0.00571539
0.00575141
0.00578465
0.00581511
0.0058428
0.00586774
0.00588993
0.00590941
0.0059262
0.00594034
0.00595185
0.00596079
0.0059672
0.00597112
0.00597262
0.00597175
0.00596858
0.00596315
0.00595553
0.00594578
0.00593398
0.00592018
0.00590446
0.00588688
0.00586753
0.00584648
0.00582379
0.00579953
0.00577379
0.00574662
0.0057181
0.0056883
0.00565729
0.00562514
0.00559191
0.00555766
0.00552247
0.0054864
0.00544952
0.00541188
0.00537354
0.00533457
0.00529502
0.00525495
0.0052144
0.00517343
0.00513209
0.00509043
0.00504849
0.00500632
0.00496395
0.00492144
0.00487881
0.0048361
0.00479335