/*--------------------------------*- C++ -*----------------------------------*\
| =========                 |                                                 |
| \\      /  F ield         | OpenFOAM: The Open Source CFD Toolbox           |
|  \\    /   O peration     | Version:  v2012                                 |
|   \\  /    A nd           | Website:  www.openfoam.com                      |
|    \\/     M anipulation  |                                                 |
\*---------------------------------------------------------------------------*/
FoamFile
{
    version     2.0;
    format      ascii;
    class       volScalarField;
    location    "4600";
    object      nuTilda;
}
// * * * * * * * * * * * * * * * * * * * * * * * * * * * * * * * * * * * * * //

dimensions      [0 2 -1 0 0 0 0];


internalField   nonuniform List<scalar> 
12225
(
0.0122671
0.00158833
0.000666932
0.0004122
0.000298016
0.000234158
0.000195366
0.000157555
0.000177061
0.000222675
0.00023038
0.000221268
0.000203462
0.000178139
0.000172631
0.000158589
0.00014718
0.000136901
0.0323823
0.00744532
0.00330641
0.00204337
0.00146819
0.00114457
0.000939066
0.000785444
0.00069112
0.00062779
0.00057064
0.000520032
0.00047678
0.000437428
0.000407122
0.00037478
0.000350014
0.000324464
0.0490123
0.01515
0.00728196
0.00457856
0.00330642
0.00258052
0.00211335
0.00178198
0.00154689
0.00137268
0.00123169
0.00111557
0.00101869
0.000936509
0.000867167
0.000804844
0.000754193
0.000701727
0.063054
0.0237783
0.0122894
0.00788815
0.00573398
0.00448498
0.00367443
0.00310422
0.0026872
0.00237002
0.00211798
0.00191324
0.00174412
0.00160235
0.00148258
0.00137879
0.00129128
0.00120477
0.074932
0.0328517
0.0181452
0.0119262
0.00874549
0.00686413
0.00563087
0.0047613
0.00411869
0.00362573
0.00323518
0.00291878
0.00265804
0.0024401
0.00225603
0.0020984
0.00196344
0.00183991
0.0849536
0.0420208
0.0246655
0.0166359
0.0123325
0.00972587
0.00799541
0.0067674
0.00585404
0.00515005
0.00459191
0.00413984
0.00376745
0.00345638
0.00319355
0.0029691
0.00277617
0.00260662
0.0933822
0.0510219
0.0316642
0.0219415
0.016474
0.0130717
0.0107779
0.00913539
0.00790598
0.00695436
0.00619833
0.00558533
0.0050801
0.00465803
0.00430139
0.00399704
0.00373537
0.00350916
0.0993794
0.0583363
0.0378386
0.0268568
0.0204171
0.0163053
0.0134892
0.011453
0.00991905
0.00872671
0.00777697
0.0070057
0.00636944
0.00583763
0.00538817
0.00500469
0.00467517
0.00439184
0.104023
0.0645454
0.0433804
0.0314239
0.0241571
0.0194092
0.0161097
0.0137018
0.0118767
0.0104523
0.00931473
0.0083894
0.00762525
0.00698616
0.00644587
0.00598492
0.005589
0.00524917
0.108368
0.0708939
0.0493757
0.0365496
0.0284517
0.0230231
0.0191863
0.0163548
0.0141927
0.0124969
0.0111382
0.0100306
0.00911457
0.00834785
0.00769937
0.00714608
0.00667098
0.00626329
0.112368
0.0772557
0.0557282
0.0421918
0.0332976
0.0271652
0.0227468
0.0194433
0.0168984
0.0148904
0.013275
0.0119546
0.0108607
0.00994396
0.00916816
0.00850608
0.0079376
0.0074494
0.115994
0.0834975
0.0623054
0.0482612
0.0386474
0.0318167
0.026789
0.0229739
0.0200047
0.0176453
0.0157379
0.0141737
0.012875
0.0117851
0.010862
0.0100738
0.0093969
0.00881485
0.119234
0.0894856
0.0689377
0.0546109
0.0443919
0.0369007
0.0312597
0.0269089
0.0234837
0.02074
0.0185097
0.0166735
0.015145
0.0138601
0.0127705
0.0118397
0.0110399
0.010351
0.122086
0.095084
0.075415
0.0610223
0.0503361
0.0422535
0.0360231
0.0311353
0.0272402
0.0240931
0.0215191
0.0193909
0.0176141
0.0161175
0.0148467
0.0137601
0.0128258
0.0120198
0.124546
0.100135
0.0814619
0.0671726
0.056158
0.047577
0.0408126
0.0354174
0.031066
0.0275197
0.0246013
0.0221778
0.0201482
0.018435
0.0169783
0.0157315
0.0146584
0.0137312
0.126578
0.104396
0.0866605
0.0725515
0.0613228
0.0523526
0.0451453
0.0393148
0.0345631
0.0306611
0.0274325
0.024741
0.0224806
0.020569
0.0189413
0.0175468
0.0163455
0.0153062
0.128011
0.107322
0.0902141
0.0762353
0.0648743
0.0556509
0.0481493
0.0420254
0.0370012
0.0328553
0.0294126
0.0265352
0.0241143
0.0220643
0.0203171
0.0188191
0.0175275
0.0164083
0.128006
0.107313
0.0902048
0.0762269
0.0648674
0.0556454
0.048145
0.0420221
0.0369988
0.0328537
0.0294117
0.0265349
0.0241147
0.0220651
0.0203184
0.0188205
0.0175286
0.0164082
0.126509
0.104255
0.0864922
0.0723807
0.0611613
0.052205
0.0450128
0.0391967
0.0344584
0.0305685
0.0273506
0.0246684
0.0224163
0.0205118
0.0188902
0.0175006
0.0163023
0.015263
0.124267
0.0995604
0.0807712
0.0664676
0.0554886
0.0469631
0.0402594
0.0349227
0.0306248
0.0271258
0.0242487
0.0218611
0.0198625
0.0181762
0.0167425
0.0155151
0.0144574
0.0135404
0.12136
0.0936399
0.0737261
0.0593348
0.0487592
0.0408248
0.0347467
0.0300003
0.0262308
0.0231928
0.0207127
0.018665
0.0169572
0.0155197
0.0142998
0.0132566
0.0123582
0.0115797
0.117686
0.0865903
0.0656967
0.0514791
0.0415374
0.0343608
0.0290183
0.0249322
0.0217348
0.0191848
0.0171184
0.0154211
0.0140105
0.0128262
0.0118228
0.0109656
0.0102279
0.00958885
0.11305
0.0784122
0.056921
0.0432687
0.0342296
0.0279652
0.0234365
0.0200435
0.0174263
0.0153598
0.0136967
0.012337
0.0112107
0.0102671
0.00946865
0.00878716
0.00820096
0.00769339
0.107169
0.0691009
0.0476371
0.035029
0.0271566
0.021922
0.0182437
0.0155401
0.0134818
0.0118708
0.0105819
0.00953232
0.00866516
0.00793989
0.00732685
0.00680389
0.00635417
0.00596494
0.0996761
0.0587036
0.0381279
0.0270699
0.0205782
0.0164329
0.0135949
0.0115437
0.00999935
0.00879953
0.00784422
0.00706854
0.00642882
0.00589441
0.00544293
0.0050579
0.00472677
0.00444033
0.0901097
0.0473665
0.0287363
0.0196847
0.0146976
0.0116311
0.0095785
0.0081152
0.00702351
0.0061808
0.00551235
0.00497026
0.00452347
0.00415041
0.00383517
0.00356625
0.00333478
0.00313476
0.0779076
0.0353826
0.0198606
0.0131383
0.00966106
0.00759296
0.00623349
0.00527411
0.00456426
0.00402039
0.00359044
0.00324084
0.00295217
0.00271096
0.00250661
0.00233212
0.00218121
0.00205128
0.06238
0.0232554
0.0119461
0.00765493
0.00556338
0.00435255
0.00356722
0.00301619
0.00261336
0.0023104
0.00207211
0.00187479
0.00171038
0.00157272
0.00145439
0.00135358
0.00126432
0.00118826
0.0426105
0.0117794
0.00546931
0.00341388
0.00246076
0.00192014
0.0015728
0.00132962
0.00115855
0.00104154
0.000949942
0.000865499
0.000792533
0.000731267
0.000671091
0.000627193
0.000582779
0.000543151
0.0168348
0.0025599
0.00110031
0.000684193
0.00049518
0.000389159
0.000321435
0.000273106
0.000272225
0.000339113
0.000377069
0.000357066
0.000322914
0.000296559
0.000246132
0.000288376
0.000271606
0.000225669
3.70917e-06
1.38331e-05
2.56095e-05
3.8244e-05
4.60376e-05
4.98339e-05
5.02198e-05
4.77926e-05
4.4584e-05
3.94353e-05
3.40899e-05
2.93617e-05
2.67527e-05
2.7321e-05
2.96381e-05
3.13289e-05
3.1101e-05
2.80755e-05
2.28029e-05
1.91834e-05
1.96959e-05
2.60222e-05
3.89562e-05
6.51554e-05
8.76149e-05
0.000101036
0.000113668
0.000124635
0.000134563
0.000143031
0.000150586
0.000157178
0.000163014
0.000168147
0.000172662
0.000176674
0.000180249
0.000183458
0.000186346
0.00018895
0.000191293
0.000193394
0.000195266
0.000196925
0.000198381
0.000199645
0.000200727
0.000201631
0.000202356
0.000202897
0.00020314
0.000203372
0.000203416
0.000203298
0.000203019
0.000202604
0.000202047
0.000201354
0.000200524
0.000199562
0.000198469
0.000197247
0.000195899
0.000194428
0.000192837
0.000191129
0.000189305
0.000187368
0.000185322
0.00018317
0.000180914
0.000178558
0.000176105
0.000173557
0.000170918
0.00016819
0.000165375
0.000162476
0.000159494
0.000156431
0.000153285
0.000150055
0.000146739
0.000143332
0.00013983
0.000136228
0.000132522
0.000128704
0.000124767
0.000120697
0.000116478
0.000112095
0.000107548
0.000102889
9.83292e-05
9.43628e-05
9.15624e-05
8.98192e-05
8.85087e-05
8.73047e-05
8.61216e-05
8.49429e-05
8.37671e-05
8.25948e-05
8.14269e-05
8.02643e-05
7.91086e-05
7.79637e-05
7.68513e-05
7.58999e-05
7.49658e-05
7.40381e-05
7.31184e-05
7.22069e-05
7.1304e-05
7.04101e-05
6.95256e-05
6.86507e-05
6.77859e-05
6.69311e-05
6.60867e-05
6.52528e-05
6.44298e-05
6.36179e-05
6.28174e-05
6.2028e-05
6.12509e-05
6.05134e-05
5.98361e-05
5.91675e-05
5.85042e-05
5.78552e-05
5.72243e-05
5.65975e-05
5.59756e-05
5.53616e-05
5.47567e-05
5.41615e-05
5.3576e-05
5.30001e-05
5.24336e-05
5.18764e-05
5.13284e-05
5.07894e-05
5.02594e-05
4.97381e-05
4.92256e-05
4.87216e-05
4.82262e-05
4.77392e-05
4.72606e-05
4.67903e-05
4.63283e-05
4.58746e-05
4.54291e-05
4.4992e-05
4.45632e-05
4.41429e-05
4.37311e-05
4.33281e-05
4.29341e-05
4.25493e-05
4.21739e-05
4.18082e-05
4.14524e-05
4.11065e-05
4.07706e-05
4.04445e-05
4.01276e-05
3.98191e-05
3.95176e-05
3.92214e-05
3.89268e-05
3.86335e-05
3.83226e-05
3.80255e-05
3.75968e-05
3.72911e-05
3.636e-05
3.48408e-05
5.88199e-06
3.99439e-05
9.09018e-05
0.000151925
0.000191206
0.000213574
0.000222529
0.000221115
0.00021315
0.000197495
0.000178398
0.000160501
0.000151702
0.000156437
0.000168608
0.000176126
0.000178031
0.000178821
0.000183789
0.000192716
0.000207744
0.000224928
0.00024117
0.000256472
0.000267372
0.000276834
0.000285415
0.000298241
0.000316689
0.000330313
0.000342757
0.000353464
0.000363217
0.000372146
0.000379917
0.00038702
0.000393641
0.0004
0.000406225
0.000412377
0.000418453
0.000424408
0.000430191
0.000435761
0.00044109
0.000446161
0.000450959
0.000455471
0.000459699
0.000463648
0.000467327
0.000470757
0.000473928
0.000476849
0.000479522
0.000481946
0.000484125
0.000486057
0.000487743
0.000489184
0.00049038
0.000491332
0.000492043
0.000492516
0.000492762
0.000492786
0.000492582
0.000492146
0.000491497
0.000490635
0.000489569
0.000488304
0.000486846
0.000485204
0.000483384
0.000481394
0.00047924
0.000476931
0.000474474
0.000471876
0.000469146
0.000466289
0.000463315
0.000460231
0.000457043
0.000453762
0.000450395
0.000446952
0.00044344
0.000439869
0.000436245
0.000432573
0.000428852
0.000425075
0.000421223
0.000417269
0.000413199
0.00040904
0.000404843
0.000400632
0.000396414
0.000392194
0.000387974
0.000383758
0.000379551
0.000375354
0.000371172
0.000367005
0.000362855
0.000358719
0.000354607
0.000350525
0.000346474
0.000342456
0.000338473
0.000334525
0.000330616
0.000326747
0.000322918
0.000319131
0.000315386
0.000311685
0.000308029
0.000304419
0.000300856
0.000297339
0.000293869
0.000290443
0.000287061
0.000283726
0.000280437
0.000277202
0.000274021
0.000270877
0.000267771
0.000264709
0.000261692
0.000258722
0.000255799
0.000252922
0.000250092
0.000247306
0.000244566
0.00024187
0.000239217
0.000236608
0.000234041
0.000231516
0.000229033
0.000226591
0.00022419
0.000221829
0.000219509
0.000217229
0.000214989
0.00021279
0.000210632
0.000208514
0.000206439
0.000204407
0.000202418
0.000200476
0.00019858
0.000196732
0.000194935
0.000193188
0.000191494
0.000189851
0.000188259
0.000186716
0.000185219
0.000183765
0.000182337
0.000180961
0.00017952
0.000178302
0.000176465
0.000175924
0.000173148
0.000171865
1.28757e-05
7.44322e-05
0.000173978
0.000251169
0.00030274
0.000332287
0.000342979
0.000340014
0.000327259
0.000308328
0.000289129
0.000277099
0.000275209
0.000281966
0.000292206
0.000302963
0.000315728
0.000332551
0.000353836
0.000378841
0.000405955
0.000433904
0.000472901
0.000518807
0.000564199
0.000608119
0.000651052
0.000694595
0.000733578
0.000764596
0.00078939
0.000809055
0.000824648
0.000837027
0.000846969
0.000855244
0.000862548
0.000869522
0.000876697
0.000884425
0.000892809
0.000901724
0.000910931
0.000920194
0.000929339
0.000938245
0.000946837
0.000955067
0.000962898
0.000970305
0.000977258
0.000983739
0.000989735
0.000995243
0.00100026
0.00100479
0.00100882
0.00101237
0.00101542
0.00101798
0.00102004
0.00102162
0.0010227
0.00102324
0.0010234
0.00102311
0.00102232
0.00102107
0.00101938
0.00101726
0.00101473
0.00101178
0.00100845
0.00100473
0.00100065
0.000996225
0.000991461
0.000986376
0.000980986
0.000975306
0.00096935
0.000963134
0.000956672
0.00094998
0.000943073
0.000935966
0.000928673
0.000921209
0.000913589
0.000905824
0.000897928
0.000889911
0.000881783
0.000873552
0.000865226
0.000856814
0.00084833
0.000839789
0.000831208
0.000822599
0.000813973
0.00080534
0.000796707
0.000788082
0.000779473
0.000770885
0.000762326
0.000753801
0.000745316
0.000736877
0.00072849
0.000720159
0.000711889
0.000703685
0.00069555
0.000687486
0.000679498
0.000671589
0.00066376
0.000656015
0.000648354
0.000640781
0.000633296
0.000625902
0.000618601
0.000611391
0.000604274
0.000597251
0.000590321
0.000583486
0.000576747
0.000570104
0.000563554
0.000557091
0.000550715
0.000544428
0.000538232
0.000532128
0.000526115
0.000520195
0.000514364
0.000508623
0.000502971
0.000497406
0.000491928
0.000486535
0.000481227
0.000476001
0.000470857
0.000465794
0.000460811
0.000455907
0.00045108
0.000446329
0.000441654
0.000437053
0.000432525
0.00042807
0.000423685
0.000419371
0.000415124
0.000410945
0.00040683
0.000402778
0.000398786
0.000394851
0.000390969
0.000387134
0.000383339
0.000379577
0.000375835
0.0003721
0.000368344
0.000364559
0.000360648
0.000356702
0.00035224
0.000348059
0.000341594
0.00033011
2.18273e-05
0.000106505
0.000220164
0.000312461
0.000374799
0.00041145
0.000426589
0.000426802
0.0004168
0.000403611
0.000395868
0.00039531
0.000404805
0.000422126
0.000444917
0.000472696
0.000506054
0.000545271
0.000589521
0.000653155
0.000727102
0.000806933
0.000890704
0.000960898
0.00102302
0.00107888
0.00112906
0.00117375
0.00121281
0.00124652
0.00127563
0.00130085
0.00132289
0.00134237
0.00135986
0.00137585
0.00139076
0.00140491
0.00141856
0.00143191
0.00144507
0.00145812
0.00147107
0.00148392
0.00149661
0.00150906
0.00152119
0.00153289
0.00154407
0.00155466
0.00156461
0.00157388
0.00158245
0.0015903
0.00159744
0.00160384
0.00160951
0.00161444
0.00161864
0.0016221
0.00162482
0.00162679
0.00162795
0.00162838
0.00162825
0.00162734
0.00162571
0.00162339
0.00162039
0.00161673
0.00161243
0.00160751
0.00160199
0.00159589
0.00158923
0.00158203
0.00157433
0.00156613
0.00155746
0.00154835
0.00153882
0.0015289
0.00151859
0.00150794
0.00149695
0.00148566
0.00147409
0.00146225
0.00145018
0.00143788
0.00142538
0.0014127
0.00139985
0.00138686
0.00137373
0.00136048
0.00134713
0.00133371
0.00132022
0.00130669
0.00129314
0.00127957
0.001266
0.00125245
0.00123892
0.00122542
0.00121197
0.00119857
0.00118524
0.00117198
0.0011588
0.00114571
0.00113271
0.00111981
0.00110702
0.00109434
0.00108178
0.00106934
0.00105703
0.00104484
0.00103278
0.00102086
0.00100908
0.000997435
0.000985932
0.000974572
0.000963355
0.000952283
0.000941356
0.000930575
0.000919941
0.000909454
0.000899109
0.000888903
0.000878835
0.000868906
0.000859119
0.000849472
0.000839966
0.0008306
0.000821373
0.000812284
0.000803331
0.000794513
0.000785828
0.000777275
0.000768851
0.000760555
0.000752385
0.00074434
0.000736417
0.000728614
0.000720931
0.000713365
0.000705914
0.000698577
0.000691352
0.000684236
0.000677229
0.000670327
0.000663528
0.00065683
0.00065023
0.000643724
0.000637307
0.000630976
0.000624724
0.000618543
0.000612424
0.000606354
0.000600316
0.000594291
0.000588248
0.000582152
0.00057593
0.000569557
0.000562755
0.000555785
0.000547356
0.000531183
2.69614e-05
0.000121965
0.000240947
0.000357446
0.00043517
0.000482039
0.000505332
0.00051369
0.000515317
0.000516539
0.000523762
0.000540263
0.000566624
0.000601872
0.000645253
0.000696819
0.000757379
0.00084117
0.000937158
0.00103283
0.00112154
0.00120567
0.00128471
0.00135713
0.00142365
0.00148485
0.00154112
0.0015928
0.00164025
0.00168389
0.00172421
0.00176169
0.00179675
0.00182977
0.00186106
0.00189087
0.00191938
0.00194675
0.00197305
0.00199836
0.00202271
0.0020461
0.00206854
0.00208999
0.00211045
0.00212987
0.00214824
0.00216551
0.00218166
0.00219667
0.00221054
0.00222327
0.00223485
0.00224532
0.00225469
0.00226297
0.00227018
0.00227634
0.00228147
0.00228557
0.00228866
0.00229071
0.00229162
0.00229171
0.00229083
0.00228895
0.00228611
0.00228234
0.00227765
0.00227206
0.00226561
0.00225832
0.00225022
0.00224134
0.00223171
0.00222135
0.00221031
0.0021986
0.00218627
0.00217334
0.00215984
0.0021458
0.00213127
0.00211626
0.0021008
0.00208494
0.00206869
0.00205209
0.00203517
0.00201796
0.00200047
0.00198275
0.00196481
0.00194667
0.00192836
0.00190991
0.00189133
0.00187265
0.0018539
0.00183509
0.00181625
0.00179739
0.00177854
0.00175971
0.00174091
0.00172216
0.00170348
0.00168487
0.00166636
0.00164794
0.00162964
0.00161145
0.0015934
0.00157549
0.00155772
0.00154011
0.00152266
0.00150537
0.00148826
0.00147132
0.00145456
0.00143799
0.00142161
0.00140542
0.00138942
0.00137361
0.001358
0.00134259
0.00132738
0.00131236
0.00129755
0.00128294
0.00126852
0.00125429
0.00124026
0.00122641
0.00121276
0.00119931
0.00118604
0.00117296
0.00116007
0.00114737
0.00113486
0.00112253
0.00111038
0.00109841
0.00108661
0.00107499
0.00106354
0.00105226
0.00104115
0.00103019
0.0010194
0.00100877
0.000998298
0.000987976
0.000977806
0.000967784
0.000957907
0.000948173
0.000938578
0.000929119
0.000919791
0.000910591
0.000901512
0.00089255
0.000883695
0.00087494
0.000866271
0.000857675
0.000849132
0.000840618
0.000832097
0.000823528
0.000814841
0.000805973
0.000796723
0.000787125
0.000776971
0.000757231
3.0805e-05
0.00013531
0.0002614
0.000392191
0.000488189
0.000549575
0.000587179
0.000610592
0.000628477
0.000648068
0.000674551
0.000710516
0.000756669
0.000813283
0.000880911
0.000971754
0.00107709
0.00117869
0.00127775
0.00137298
0.00146343
0.00154919
0.0016302
0.00170644
0.00177821
0.00184585
0.00190971
0.00197012
0.00202741
0.00208191
0.00213395
0.00218379
0.00223171
0.00227789
0.00232251
0.00236568
0.00240749
0.002448
0.00248723
0.00252519
0.00256188
0.00259727
0.00263135
0.00266407
0.0026954
0.00272529
0.00275371
0.00278061
0.00280596
0.00282972
0.00285187
0.00287239
0.00289125
0.00290845
0.00292399
0.00293785
0.00295005
0.00296059
0.00296948
0.00297674
0.0029824
0.00298648
0.0029889
0.0029898
0.00298933
0.00298736
0.00298402
0.00297931
0.00297331
0.00296605
0.0029576
0.00294801
0.00293732
0.00292559
0.00291286
0.0028992
0.00288463
0.00286921
0.00285298
0.00283599
0.00281828
0.00279988
0.00278085
0.00276121
0.00274102
0.00272031
0.00269912
0.00267749
0.00265546
0.00263306
0.00261032
0.00258729
0.002564
0.00254047
0.00251673
0.00249283
0.00246877
0.0024446
0.00242034
0.00239602
0.00237166
0.00234729
0.00232293
0.0022986
0.00227432
0.0022501
0.00222598
0.00220195
0.00217804
0.00215426
0.00213063
0.00210715
0.00208385
0.00206072
0.00203778
0.00201504
0.0019925
0.00197018
0.00194808
0.0019262
0.00190455
0.00188314
0.00186197
0.00184104
0.00182036
0.00179992
0.00177973
0.0017598
0.00174011
0.00172068
0.0017015
0.00168258
0.0016639
0.00164547
0.00162728
0.00160934
0.00159164
0.00157419
0.00155697
0.00154
0.00152327
0.00150677
0.00149051
0.00147448
0.00145867
0.0014431
0.00142774
0.0014126
0.00139768
0.00138298
0.00136848
0.00135418
0.0013401
0.00132621
0.00131251
0.00129901
0.0012857
0.00127258
0.00125963
0.00124687
0.00123428
0.00122187
0.00120962
0.00119753
0.00118559
0.0011738
0.00116216
0.00115064
0.00113923
0.00112793
0.0011167
0.00110552
0.00109436
0.00108317
0.00107188
0.00106042
0.00104861
0.00103646
0.00102419
0.00100176
3.23471e-05
0.000142478
0.000273862
0.000409595
0.000527338
0.000608416
0.000664434
0.000706451
0.000743675
0.000783328
0.000830422
0.00088786
0.000957369
0.00105007
0.0011573
0.00126389
0.00136993
0.00147315
0.00157304
0.0016692
0.00176139
0.00184963
0.00193401
0.00201469
0.00209192
0.00216597
0.00223712
0.00230563
0.00237176
0.00243574
0.00249778
0.00255806
0.00261672
0.00267389
0.00272965
0.00278405
0.00283712
0.00288888
0.00293933
0.00298844
0.00303618
0.00308251
0.0031274
0.00317079
0.00321263
0.00325287
0.00329145
0.00332833
0.00336344
0.00339675
0.00342821
0.00345778
0.00348543
0.00351113
0.00353485
0.00355657
0.00357628
0.00359396
0.00360961
0.00362324
0.00363483
0.00364441
0.00365199
0.00365761
0.00366126
0.00366288
0.00366279
0.0036608
0.00365702
0.00365151
0.0036443
0.00363545
0.00362504
0.0036131
0.00359972
0.00358495
0.00356886
0.00355151
0.00353298
0.00351333
0.00349263
0.00347094
0.00344833
0.00342487
0.00340062
0.00337564
0.00334999
0.00332374
0.00329693
0.00326963
0.00324187
0.00321372
0.00318521
0.0031564
0.00312731
0.00309801
0.00306851
0.00303886
0.0030091
0.00297925
0.00294935
0.00291943
0.00288952
0.00285964
0.00282982
0.00280009
0.00277045
0.00274094
0.00271156
0.00268235
0.00265331
0.00262446
0.00259581
0.00256738
0.00253918
0.00251122
0.00248351
0.00245605
0.00242886
0.00240195
0.00237531
0.00234895
0.00232289
0.00229712
0.00227164
0.00224646
0.00222158
0.00219701
0.00217274
0.00214877
0.00212511
0.00210175
0.00207869
0.00205592
0.00203346
0.00201129
0.00198941
0.00196783
0.00194653
0.00192553
0.00190481
0.00188438
0.00186423
0.00184435
0.00182475
0.00180542
0.00178636
0.00176756
0.00174902
0.00173074
0.0017127
0.00169492
0.00167738
0.00166007
0.00164301
0.00162618
0.00160957
0.00159319
0.00157703
0.00156108
0.00154535
0.00152982
0.0015145
0.00149937
0.00148442
0.00146966
0.00145507
0.00144064
0.00142635
0.0014122
0.00139815
0.00138418
0.00137024
0.00135631
0.00134229
0.00132814
0.00131367
0.00129895
0.00128391
0.00125968
3.2788e-05
0.000144068
0.000275144
0.000409108
0.000538811
0.000642027
0.000719157
0.000780648
0.000836639
0.000894826
0.000963217
0.00105578
0.0011659
0.00128738
0.00140285
0.00151403
0.00162174
0.00172618
0.00182727
0.00192498
0.00201931
0.00211035
0.00219825
0.0022832
0.00236541
0.00244512
0.00252254
0.00259789
0.00267136
0.00274311
0.0028133
0.00288203
0.00294939
0.00301546
0.00308027
0.00314383
0.00320616
0.00326724
0.00332703
0.00338549
0.00344258
0.00349825
0.00355243
0.00360506
0.00365607
0.00370541
0.003753
0.00379878
0.00384269
0.00388467
0.00392466
0.00396262
0.0039985
0.00403225
0.00406384
0.00409324
0.00412041
0.00414534
0.00416801
0.00418841
0.00420654
0.00422239
0.00423597
0.0042473
0.00425638
0.00426325
0.00426797
0.00427043
0.00427086
0.00426921
0.00426554
0.0042599
0.00425233
0.0042429
0.00423167
0.0042187
0.00420405
0.00418779
0.00416999
0.00415073
0.00413006
0.00410807
0.00408482
0.00406039
0.00403485
0.00400827
0.00398073
0.00395229
0.00392302
0.00389298
0.00386226
0.0038309
0.00379897
0.00376652
0.00373363
0.00370033
0.00366669
0.00363276
0.00359858
0.00356421
0.00352968
0.00349505
0.00346035
0.00342562
0.00339089
0.0033562
0.00332157
0.00328704
0.00325263
0.00321837
0.00318427
0.00315036
0.00311666
0.00308319
0.00304996
0.00301699
0.00298428
0.00295186
0.00291973
0.00288791
0.00285639
0.0028252
0.00279432
0.00276378
0.00273358
0.00270371
0.00267418
0.002645
0.00261616
0.00258768
0.00255954
0.00253174
0.00250429
0.00247719
0.00245043
0.00242401
0.00239792
0.00237218
0.00234677
0.00232169
0.00229694
0.00227253
0.00224843
0.00222466
0.00220121
0.00217806
0.00215523
0.00213271
0.00211048
0.00208855
0.00206691
0.00204556
0.0020245
0.00200371
0.0019832
0.00196296
0.00194299
0.00192328
0.00190383
0.00188463
0.00186567
0.00184696
0.00182849
0.00181024
0.00179222
0.00177441
0.00175681
0.0017394
0.00172217
0.00170509
0.00168815
0.00167132
0.00165455
0.0016378
0.001621
0.00160408
0.0015869
0.00156951
0.00155158
0.00152545
3.22251e-05
0.000141104
0.00026867
0.000397584
0.000521179
0.000633031
0.000726755
0.000808121
0.000891963
0.000987821
0.00109758
0.00122265
0.0013591
0.00148648
0.00160666
0.00172157
0.00183217
0.00193881
0.00204182
0.00214156
0.00223824
0.00233207
0.00242326
0.00251199
0.00259849
0.00268296
0.00276558
0.00284654
0.00292597
0.00300402
0.00308079
0.00315635
0.00323076
0.00330406
0.00337626
0.00344734
0.0035173
0.00358608
0.00365365
0.00371995
0.0037849
0.00384845
0.00391051
0.00397101
0.00402987
0.00408701
0.00414236
0.00419584
0.00424737
0.0042969
0.00434434
0.00438965
0.00443276
0.00447363
0.00451221
0.00454845
0.00458232
0.0046138
0.00464286
0.00466948
0.00469366
0.00471539
0.00473466
0.00475149
0.0047659
0.00477789
0.00478749
0.00479472
0.00479966
0.00480222
0.00480261
0.00480079
0.00479683
0.00479077
0.00478266
0.00477258
0.00476058
0.00474673
0.00473109
0.00471373
0.00469472
0.00467413
0.00465204
0.00462852
0.00460363
0.00457746
0.00455007
0.00452155
0.00449195
0.00446136
0.00442984
0.00439745
0.00436428
0.00433037
0.00429581
0.00426064
0.00422494
0.00418875
0.00415215
0.00411518
0.0040779
0.00404036
0.00400261
0.00396469
0.00392665
0.00388854
0.00385039
0.00381223
0.00377411
0.00373605
0.00369809
0.00366025
0.00362257
0.00358506
0.00354776
0.00351067
0.00347382
0.00343723
0.00340092
0.00336489
0.00332916
0.00329375
0.00325866
0.0032239
0.00318949
0.00315542
0.0031217
0.00308835
0.00305536
0.00302273
0.00299048
0.00295859
0.00292707
0.00289593
0.00286515
0.00283475
0.00280471
0.00277504
0.00274574
0.0027168
0.00268822
0.00266001
0.00263215
0.00260465
0.0025775
0.0025507
0.00252424
0.00249812
0.00247234
0.00244689
0.00242176
0.00239696
0.00237248
0.00234831
0.00232445
0.00230089
0.00227764
0.00225468
0.00223202
0.00220964
0.00218754
0.00216572
0.00214417
0.00212288
0.00210184
0.00208105
0.0020605
0.00204016
0.00202004
0.0020001
0.00198032
0.00196068
0.00194112
0.00192161
0.00190207
0.00188243
0.00186255
0.0018425
0.00182176
0.00179344
3.08507e-05
0.00013501
0.000257904
0.00038307
0.000504923
0.000620955
0.00073169
0.000841019
0.000956317
0.00108261
0.00122104
0.00137105
0.00151322
0.00164508
0.00176922
0.00188754
0.00200114
0.00211067
0.00221652
0.00231888
0.00241817
0.00251475
0.00260894
0.00270099
0.00279113
0.00287956
0.00296645
0.00305199
0.00313628
0.00321945
0.00330157
0.0033827
0.00346289
0.00354213
0.00362042
0.00369774
0.00377405
0.00384929
0.0039234
0.0039963
0.00406791
0.00413816
0.00420694
0.00427417
0.00433976
0.00440362
0.00446566
0.00452579
0.00458393
0.00464
0.00469392
0.00474563
0.00479506
0.00484215
0.00488685
0.00492911
0.0049689
0.00500617
0.0050409
0.00507307
0.00510266
0.00512967
0.00515409
0.00517592
0.00519519
0.00521189
0.00522606
0.00523771
0.00524688
0.0052536
0.00525792
0.00525986
0.00525952
0.00525691
0.00525209
0.00524513
0.00523608
0.005225
0.00521196
0.00519702
0.00518026
0.00516174
0.00514154
0.00511972
0.00509636
0.00507154
0.00504531
0.00501777
0.00498897
0.004959
0.00492792
0.0048958
0.00486271
0.00482871
0.00479388
0.00475828
0.00472198
0.00468503
0.0046475
0.00460945
0.00457094
0.00453201
0.00449274
0.00445316
0.00441333
0.00437329
0.00433309
0.00429277
0.00425237
0.00421193
0.0041715
0.00413109
0.00409075
0.0040505
0.00401037
0.00397039
0.00393059
0.00389099
0.0038516
0.00381245
0.00377356
0.00373494
0.00369661
0.00365858
0.00362086
0.00358347
0.00354641
0.00350969
0.00347332
0.00343731
0.00340166
0.00336638
0.00333146
0.00329692
0.00326275
0.00322895
0.00319554
0.00316249
0.00312983
0.00309754
0.00306563
0.00303409
0.00300292
0.00297213
0.00294171
0.00291165
0.00288196
0.00285263
0.00282365
0.00279503
0.00276676
0.00273883
0.00271125
0.002684
0.00265709
0.00263051
0.00260426
0.00257833
0.00255271
0.00252741
0.00250241
0.00247772
0.00245332
0.00242921
0.00240539
0.00238183
0.00235854
0.00233549
0.00231268
0.00229007
0.00226765
0.00224539
0.00222323
0.00220114
0.00217903
0.00215685
0.00213446
0.00211189
0.0020886
0.00205795
2.93021e-05
0.000128711
0.000248085
0.000372263
0.000496878
0.000620865
0.000745772
0.00087535
0.001013
0.00116064
0.00131842
0.00148
0.00162761
0.0017639
0.00189188
0.00201353
0.00213011
0.00224245
0.00235108
0.00245638
0.00255866
0.00265812
0.00275519
0.00285022
0.00294352
0.0030353
0.00312578
0.0032151
0.00330341
0.00339081
0.00347736
0.00356311
0.00364808
0.00373228
0.00381568
0.00389824
0.00397991
0.00406061
0.00414027
0.0042188
0.00429611
0.0043721
0.00444666
0.00451969
0.0045911
0.00466077
0.00472861
0.00479452
0.00485841
0.00492019
0.00497977
0.00503709
0.00509206
0.00514462
0.00519472
0.0052423
0.00528731
0.00532972
0.00536949
0.0054066
0.00544104
0.00547278
0.00550184
0.00552819
0.00555187
0.00557287
0.00559122
0.00560694
0.00562006
0.00563062
0.00563865
0.00564419
0.0056473
0.00564803
0.00564642
0.00564255
0.00563646
0.00562821
0.00561787
0.00560551
0.00559118
0.00557497
0.00555694
0.00553716
0.00551571
0.00549265
0.00546806
0.00544201
0.00541458
0.00538583
0.00535584
0.00532467
0.0052924
0.00525908
0.0052248
0.00518961
0.00515359
0.00511678
0.00507927
0.00504111
0.00500235
0.00496307
0.0049233
0.00488312
0.00484256
0.00480168
0.00476052
0.00471914
0.00467757
0.00463587
0.00459406
0.00455218
0.00451028
0.00446838
0.00442653
0.00438474
0.00434305
0.00430149
0.00426007
0.00421883
0.00417778
0.00413695
0.00409635
0.00405601
0.00401593
0.00397613
0.00393663
0.00389743
0.00385854
0.00381999
0.00378177
0.00374389
0.00370635
0.00366917
0.00363235
0.00359589
0.00355979
0.00352406
0.00348869
0.0034537
0.00341908
0.00338484
0.00335096
0.00331746
0.00328433
0.00325156
0.00321917
0.00318714
0.00315548
0.00312418
0.00309324
0.00306265
0.00303242
0.00300254
0.002973
0.00294381
0.00291496
0.00288644
0.00285826
0.00283041
0.00280288
0.00277567
0.00274877
0.00272218
0.00269589
0.00266989
0.00264417
0.00261872
0.00259352
0.00256855
0.00254378
0.00251919
0.00249472
0.00247033
0.00244596
0.00242152
0.0023969
0.00237211
0.00234661
0.00231381
2.76139e-05
0.000122121
0.000238098
0.000361641
0.000489126
0.00061995
0.000756366
0.000900157
0.00105293
0.00121519
0.00138742
0.00155317
0.00170475
0.00184491
0.00197639
0.00210116
0.00222055
0.0023355
0.00244667
0.00255455
0.00265953
0.00276191
0.00286197
0.00295988
0.00305608
0.00315086
0.00324445
0.00333704
0.00342878
0.00351977
0.00361007
0.00369975
0.00378879
0.00387721
0.00396496
0.004052
0.00413825
0.00422364
0.00430808
0.00439146
0.00447368
0.00455463
0.0046342
0.00471227
0.00478872
0.00486345
0.00493635
0.0050073
0.00507622
0.005143
0.00520755
0.00526979
0.00532963
0.00538702
0.00544189
0.00549417
0.00554382
0.00559081
0.00563508
0.00567662
0.0057154
0.00575142
0.00578466
0.00581512
0.00584281
0.00586775
0.00588994
0.00590942
0.00592621
0.00594035
0.00595186
0.0059608
0.00596721
0.00597114
0.00597263
0.00597176
0.00596859
0.00596316
0.00595554
0.00594579
0.00593399
0.00592019
0.00590447
0.0058869
0.00586754
0.00584649
0.0058238
0.00579954
0.0057738
0.00574663
0.00571811
0.00568832
0.0056573
0.00562515
0.00559192
0.00555767
0.00552248
0.00548642
0.00544953
0.00541189
0.00537355
0.00533458
0.00529503
0.00525496
0.00521441
0.00517345
0.00513211
0.00509044
0.0050485
0.00500633
0.00496397
0.00492145
0.00487882
0.00483612