/*--------------------------------*- C++ -*----------------------------------*\
  =========                 |
  \\      /  F ield         | OpenFOAM: The Open Source CFD Toolbox
   \\    /   O peration     | Website:  https://openfoam.org
    \\  /    A nd           | Version:  8
     \\/     M anipulation  |
\*---------------------------------------------------------------------------*/
FoamFile
{
    version     2.0;
    format      ascii;
    class       volScalarField;
    location    "4600";
    object      p;
}
// * * * * * * * * * * * * * * * * * * * * * * * * * * * * * * * * * * * * * //

dimensions      [0 2 -2 0 0 0 0];

internalField   nonuniform List<scalar> 
12225
(
514.676
55.5277
2.36331
0.281201
-1.89927
-3.37482
-3.81205
-4.02246
-4.23221
-4.3691
-4.41625
-4.42586
-4.42886
-4.45682
-4.51019
-4.57664
-4.72201
-4.94453
-122.179
0.238404
-2.71891
-0.765594
-2.21696
-3.52541
-3.95313
-4.13723
-4.28091
-4.3849
-4.45982
-4.51814
-4.56908
-4.60145
-4.62238
-4.64791
-4.71452
-4.80851
-200.646
-16.1489
-2.34692
-0.358817
-1.9013
-3.24528
-3.77269
-4.02293
-4.19561
-4.31987
-4.41255
-4.47976
-4.52839
-4.55361
-4.56866
-4.5842
-4.61607
-4.59923
-110.617
-10.9746
-2.17763
-0.432525
-1.78823
-3.0293
-3.60179
-3.90897
-4.11824
-4.26404
-4.36641
-4.43709
-4.4858
-4.51438
-4.5317
-4.53952
-4.53848
-4.46978
-61.5733
-8.14635
-3.62309
-1.21053
-2.01575
-2.99886
-3.52975
-3.84952
-4.07202
-4.2267
-4.33434
-4.40898
-4.46034
-4.49145
-4.50673
-4.5041
-4.4779
-4.38774
-45.7313
-8.78579
-5.2593
-2.20087
-2.43049
-3.10164
-3.53711
-3.83407
-4.05006
-4.20388
-4.31293
-4.38966
-4.4421
-4.47302
-4.48456
-4.47381
-4.43372
-4.33917
-35.7952
-9.27704
-6.38109
-3.12531
-2.92251
-3.2906
-3.60451
-3.85541
-4.05082
-4.19601
-4.30199
-4.37778
-4.42939
-4.45912
-4.46804
-4.45343
-4.40945
-4.32238
-27.7786
-8.90782
-6.97455
-3.80357
-3.36259
-3.49943
-3.70149
-3.90098
-4.07034
-4.20261
-4.30237
-4.37512
-4.42503
-4.45387
-4.4622
-4.44789
-4.40691
-4.33217
-21.6907
-8.52078
-7.13526
-4.31144
-3.72989
-3.70704
-3.81733
-3.96569
-4.10598
-4.22226
-4.31332
-4.38139
-4.42884
-4.45678
-4.46549
-4.45352
-4.41852
-4.35752
-16.6134
-8.14146
-7.08892
-4.75633
-4.08419
-3.93541
-3.96028
-4.05374
-4.1601
-4.25631
-4.33577
-4.39738
-4.44161
-4.46879
-4.47897
-4.47148
-4.44555
-4.40107
-12.6397
-7.68166
-6.90694
-5.10264
-4.40782
-4.17139
-4.12299
-4.16254
-4.23274
-4.30611
-4.3717
-4.42543
-4.46593
-4.49273
-4.50573
-4.50489
-4.49062
-4.46444
-9.6998
-7.14958
-6.63004
-5.32747
-4.67968
-4.3982
-4.29553
-4.2878
-4.32298
-4.37264
-4.42316
-4.46819
-4.50485
-4.53191
-4.54908
-4.55668
-4.55578
-4.54849
-7.66686
-6.60553
-6.30682
-5.43245
-4.88413
-4.59834
-4.46473
-4.42158
-4.42687
-4.45465
-4.49063
-4.52724
-4.56055
-4.58873
-4.61124
-4.62845
-4.64153
-4.65243
-6.37178
-6.11387
-5.98655
-5.4412
-5.01679
-4.75861
-4.61718
-4.55352
-4.53752
-4.54811
-4.57219
-4.60203
-4.63329
-4.66372
-4.69248
-4.71972
-4.74631
-4.77367
-5.62354
-5.72322
-5.70986
-5.39171
-5.08679
-4.87389
-4.74267
-4.67312
-4.64612
-4.64633
-4.66298
-4.68908
-4.72035
-4.75438
-4.79002
-4.82706
-4.86587
-4.9072
-5.24423
-5.46103
-5.50896
-5.3284
-5.11588
-4.94882
-4.83654
-4.77155
-4.74287
-4.74001
-4.75469
-4.78097
-4.81491
-4.85405
-4.89703
-4.94322
-4.99252
-5.04508
-5.10299
-5.34513
-5.4178
-5.2998
-5.13577
-4.99665
-4.899
-4.8411
-4.81599
-4.81579
-4.83364
-4.86424
-4.90383
-4.94988
-5.00078
-5.05557
-5.11375
-5.17507
-5.14073
-5.40093
-5.47503
-5.34887
-5.17505
-5.02931
-4.92905
-4.87183
-4.84991
-4.85475
-4.87895
-4.91679
-4.96416
-5.01825
-5.07716
-5.13968
-5.20507
-5.27288
-5.39301
-5.65537
-5.69106
-5.47592
-5.22669
-5.0363
-4.91518
-4.8521
-4.83305
-4.84533
-4.87898
-4.92683
-4.98398
-5.04719
-5.11436
-5.18415
-5.25577
-5.32879
-6.00239
-6.1372
-6.04295
-5.63543
-5.24742
-4.98764
-4.8411
-4.77615
-4.76664
-4.79301
-4.84158
-4.90344
-4.973
-5.04684
-5.1229
-5.19998
-5.27745
-5.35507
-7.25001
-6.88983
-6.4945
-5.76217
-5.18338
-4.85325
-4.69662
-4.64646
-4.66039
-4.71092
-4.78117
-4.86123
-4.94556
-5.03113
-5.1164
-5.20061
-5.2835
-5.36519
-9.64152
-7.9649
-6.98291
-5.77218
-4.97984
-4.61243
-4.4822
-4.47396
-4.52881
-4.61416
-4.71195
-4.81313
-4.91328
-5.01061
-5.10454
-5.19513
-5.28262
-5.36759
-13.9827
-9.39138
-7.40349
-5.56985
-4.59505
-4.26448
-4.21533
-4.27995
-4.3921
-4.51959
-4.64773
-4.77032
-4.88546
-4.99306
-5.09408
-5.18956
-5.28038
-5.36754
-20.8903
-10.9543
-7.55451
-5.05756
-4.01617
-3.83614
-3.93025
-4.09438
-4.27248
-4.44332
-4.59992
-4.74126
-4.86848
-4.98353
-5.08912
-5.1875
-5.27997
-5.36795
-29.7369
-11.9497
-7.03385
-4.12645
-3.26437
-3.37829
-3.67136
-3.94711
-4.1894
-4.39741
-4.57602
-4.73043
-4.86514
-4.98404
-5.09137
-5.19061
-5.28293
-5.37029
-43.1068
-12.6143
-5.47314
-2.7293
-2.41359
-2.96377
-3.48458
-3.86268
-4.1539
-4.38616
-4.5779
-4.7381
-4.87487
-4.99296
-5.09934
-5.19782
-5.28878
-5.37483
-84.5998
-17.3738
-3.66444
-1.26579
-1.69637
-2.72217
-3.43652
-3.87026
-4.17374
-4.4108
-4.60671
-4.76808
-4.90011
-5.00998
-5.11186
-5.20701
-5.29274
-5.37729
-177.886
-26.8499
-3.68051
-0.770571
-1.53545
-2.84341
-3.61443
-4.01557
-4.27136
-4.46733
-4.65105
-4.81587
-4.95301
-5.05317
-5.14213
-5.22922
-5.30317
-5.38013
-154.791
-9.62763
-3.27275
-1.06865
-1.84347
-3.22123
-3.91404
-4.22535
-4.41779
-4.55923
-4.7022
-4.85404
-5.00597
-5.12097
-5.21592
-5.30462
-5.36951
-5.44117
428.057
66.6052
7.0556
1.59906
-0.915963
-2.85728
-3.65332
-3.99502
-4.31058
-4.5772
-4.70763
-4.75528
-4.80061
-4.90106
-5.0152
-5.11962
-5.24176
-5.3411
-8.52592
-8.51309
-8.50246
-8.54383
-8.63686
-8.74056
-8.82048
-8.86049
-8.86415
-8.84648
-8.81906
-8.79049
-8.76882
-8.76002
-8.76502
-8.77766
-8.78888
-8.79401
-8.79324
-8.79117
-8.79567
-8.82837
-8.91859
-9.08995
-9.34296
-9.66073
-10.0319
-10.4457
-10.8867
-11.3387
-11.7867
-12.2187
-12.6254
-13.0002
-13.3389
-13.6388
-13.8992
-14.1199
-14.3016
-14.4455
-14.5526
-14.6245
-14.6624
-14.6677
-14.6417
-14.5858
-14.5016
-14.3914
-14.2565
-14.0946
-13.9032
-13.6835
-13.4383
-13.1693
-12.8777
-12.5647
-12.2312
-11.8783
-11.507
-11.1183
-10.7134
-10.2933
-9.85925
-9.41232
-8.95371
-8.48461
-8.00622
-7.51973
-7.02636
-6.52727
-6.02363
-5.51659
-5.00725
-4.4967
-3.98597
-3.47608
-2.96798
-2.46258
-1.96074
-1.46327
-0.970924
-0.484406
-0.00435941
0.468624
0.934007
1.39131
1.84009
2.27999
2.71069
3.13194
3.54354
3.94529
4.33703
4.71874
5.09065
5.45278
5.80467
6.14591
6.4765
6.79667
7.10667
7.40669
7.69693
7.97756
8.24877
8.51076
8.76375
9.00794
9.24356
9.47081
9.68992
9.90113
10.1047
10.3009
10.4899
10.6719
10.8473
11.0163
11.179
11.3358
11.4868
11.6323
11.7724
11.9075
12.0376
12.1631
12.284
12.4006
12.513
12.6215
12.7261
12.8272
12.9252
13.0199
13.1113
13.1996
13.2849
13.3674
13.4472
13.5244
13.5991
13.6714
13.7415
13.8093
13.8751
13.9389
14.0008
14.0607
14.1189
14.1753
14.2301
14.2832
14.3347
14.3847
14.4332
14.4803
14.5259
14.57
14.6128
14.6543
14.6943
14.7331
14.7705
14.8067
14.8415
14.8752
14.9076
14.9388
14.969
14.9982
15.0265
15.0542
15.0817
15.1094
15.1381
15.1689
15.2043
15.2459
15.3038
15.3643
-8.58337
-8.61463
-8.68858
-8.78218
-8.88565
-8.97785
-9.0391
-9.06348
-9.04643
-8.98597
-8.89621
-8.79939
-8.71777
-8.66649
-8.64443
-8.64123
-8.65079
-8.67623
-8.71152
-8.73176
-8.75609
-8.83406
-8.99381
-9.23337
-9.54025
-9.91123
-10.337
-10.7971
-11.27
-11.7378
-12.188
-12.6111
-13.0009
-13.3534
-13.6669
-13.9411
-14.1765
-14.3741
-14.5349
-14.6602
-14.7511
-14.8088
-14.8342
-14.8283
-14.7918
-14.7254
-14.6296
-14.5042
-14.35
-14.17
-13.9679
-13.744
-13.4973
-13.228
-12.9368
-12.6244
-12.2916
-11.9395
-11.569
-11.1811
-10.7769
-10.3574
-9.92394
-9.47753
-9.01937
-8.55063
-8.07252
-7.58624
-7.09299
-6.59394
-6.09025
-5.58308
-5.07353
-4.56268
-4.05159
-3.54125
-3.03262
-2.52662
-2.02411
-1.5259
-1.03276
-0.545376
-0.0644173
0.409523
0.875901
1.33423
1.78406
2.22501
2.65672
3.07889
3.49125
3.89357
4.28562
4.6673
5.03869
5.4
5.75143
6.093
6.42457
6.74603
7.05742
7.35886
7.65051
7.93253
8.20511
8.46845
8.72275
8.96822
9.20509
9.43361
9.65399
9.86645
10.0712
10.2686
10.4588
10.642
10.8185
10.9886
11.1524
11.3102
11.4623
11.6087
11.7499
11.8859
12.0171
12.1436
12.2656
12.3833
12.4968
12.6063
12.7121
12.8139
12.912
13.0067
13.0983
13.1868
13.2724
13.3551
13.4352
13.5127
13.5877
13.6603
13.7307
13.7989
13.865
13.929
13.9912
14.0514
14.1099
14.1666
14.2216
14.275
14.3268
14.377
14.4257
14.473
14.5188
14.5632
14.6061
14.6478
14.688
14.7269
14.7646
14.8009
14.8359
14.8696
14.9022
14.9336
14.9639
14.9932
15.0216
15.0495
15.077
15.1048
15.1336
15.1643
15.1991
15.2387
15.2923
15.3422
-8.71039
-8.79222
-8.91019
-9.01601
-9.0989
-9.15275
-9.17337
-9.15955
-9.10997
-9.02688
-8.91935
-8.80397
-8.70421
-8.63966
-8.61092
-8.60609
-8.6251
-8.68182
-8.78542
-8.93247
-9.12281
-9.36356
-9.65759
-9.99672
-10.3688
-10.7645
-11.1739
-11.5852
-11.9878
-12.3744
-12.7403
-13.0818
-13.3962
-13.6818
-13.9376
-14.163
-14.358
-14.5225
-14.6568
-14.7612
-14.8361
-14.8818
-14.8989
-14.8877
-14.8486
-14.7822
-14.6887
-14.5681
-14.4205
-14.2468
-14.0485
-13.8265
-13.5814
-13.3138
-13.0243
-12.7137
-12.3828
-12.0325
-11.6638
-11.2775
-10.8749
-10.4569
-10.0247
-9.57951
-9.12238
-8.65453
-8.17718
-7.6915
-7.1987
-6.69996
-6.19644
-5.6893
-5.17965
-4.66858
-4.15713
-3.64632
-3.13711
-2.63042
-2.12713
-1.62804
-1.13393
-0.645506
-0.16343
0.311696
0.779325
1.23897
1.69017
2.13256
2.56579
2.98957
3.40365
3.80786
4.20202
4.58606
4.95995
5.32369
5.67732
6.02084
6.35423
6.67749
6.99069
7.29394
7.58739
7.8712
8.14555
8.41063
8.66665
8.91382
9.15236
9.3825
9.60447
9.81849
10.0248
10.2236
10.4153
10.5999
10.7778
10.9492
11.1143
11.2734
11.4267
11.5744
11.7167
11.8538
11.9859
12.1133
12.236
12.3544
12.4686
12.5788
12.6851
12.7877
12.8868
12.9826
13.0752
13.1647
13.2512
13.3348
13.4157
13.4939
13.5696
13.643
13.714
13.7828
13.8495
13.9141
13.9768
14.0376
14.0965
14.1537
14.2092
14.263
14.3151
14.3658
14.4149
14.4625
14.5086
14.5533
14.5966
14.6385
14.679
14.7182
14.7561
14.7926
14.8278
14.8618
14.8946
14.9261
14.9566
14.986
15.0146
15.0425
15.0701
15.0978
15.1263
15.1564
15.1899
15.2265
15.2739
15.3074
-8.74981
-8.84725
-8.94852
-9.03504
-9.09948
-9.13918
-9.15164
-9.13423
-9.08696
-9.01485
-8.92912
-8.84657
-8.78536
-8.75838
-8.7705
-8.8238
-8.92219
-9.06929
-9.26573
-9.5065
-9.78276
-10.0873
-10.4142
-10.757
-11.1104
-11.4692
-11.828
-12.1816
-12.5255
-12.8555
-13.1685
-13.4615
-13.7326
-13.9801
-14.2027
-14.3995
-14.5699
-14.7135
-14.8301
-14.9196
-14.9821
-15.0177
-15.0263
-15.0083
-14.9636
-14.8925
-14.7954
-14.6725
-14.5243
-14.3514
-14.1545
-13.9341
-13.6906
-13.4246
-13.1368
-12.8279
-12.4987
-12.15
-11.7827
-11.3979
-10.9966
-10.5797
-10.1486
-9.70422
-9.24779
-8.7805
-8.30353
-7.81809
-7.32536
-6.82653
-6.32277
-5.81524
-5.30505
-4.7933
-4.28104
-3.76929
-3.25902
-2.75115
-2.24657
-1.74609
-1.2505
-0.760499
-0.276767
0.200092
0.669522
1.13103
1.58415
2.02851
2.46376
2.8896
3.30581
3.71217
4.10856
4.49489
4.8711
5.23716
5.59304
5.93873
6.27423
6.59958
6.91485
7.22017
7.51567
7.80151
8.07787
8.34493
8.6029
8.85198
9.0924
9.32438
9.54814
9.76392
9.97195
10.1725
10.3658
10.552
10.7315
10.9044
11.071
11.2315
11.3861
11.5351
11.6787
11.817
11.9504
12.0789
12.2028
12.3223
12.4376
12.5488
12.6562
12.7598
12.8599
12.9567
13.0503
13.1407
13.2281
13.3126
13.3943
13.4733
13.5498
13.6239
13.6956
13.765
13.8324
13.8976
13.9608
14.0222
14.0816
14.1393
14.1953
14.2495
14.3022
14.3532
14.4027
14.4507
14.4972
14.5423
14.5859
14.6281
14.669
14.7084
14.7466
14.7834
14.8188
14.853
14.886
14.9177
14.9483
14.9778
15.0064
15.0343
15.0617
15.0891
15.1169
15.1459
15.1772
15.2097
15.2491
15.2677
-8.53794
-8.62286
-8.72295
-8.82005
-8.8974
-8.95013
-8.97721
-8.97948
-8.96141
-8.93129
-8.9012
-8.88514
-8.89588
-8.943
-9.0327
-9.1681
-9.34932
-9.57178
-9.82704
-10.1071
-10.4063
-10.7206
-11.0457
-11.3764
-11.7084
-12.0381
-12.362
-12.677
-12.9804
-13.2697
-13.5429
-13.7983
-14.0346
-14.2504
-14.4448
-14.6169
-14.766
-14.8915
-14.9931
-15.0702
-15.1227
-15.1503
-15.1529
-15.1303
-15.0826
-15.0097
-14.9117
-14.7887
-14.6411
-14.4693
-14.2736
-14.0545
-13.8124
-13.5479
-13.2616
-12.9542
-12.6264
-12.2791
-11.9131
-11.5295
-11.1293
-10.7135
-10.2831
-9.83945
-9.38357
-8.91668
-8.43996
-7.95462
-7.46184
-6.96281
-6.45872
-5.9507
-5.43989
-4.92738
-4.41424
-3.90148
-3.39008
-2.88098
-2.37505
-1.87313
-1.37599
-0.884368
-0.398922
0.0797302
0.551028
1.01447
1.4696
1.91602
2.35338
2.7814
3.19982
3.60845
4.00713
4.39576
4.77427
5.14262
5.50076
5.84869
6.18642
6.514
6.83149
7.13902
7.43672
7.72474
8.00326
8.27245
8.53252
8.78367
9.02614
9.26014
9.48588
9.7036
9.91354
10.1159
10.311
10.499
10.6802
10.8548
11.023
11.1851
11.3412
11.4918
11.6368
11.7766
11.9113
12.0412
12.1665
12.2873
12.4038
12.5162
12.6248
12.7295
12.8307
12.9286
13.0231
13.1144
13.2027
13.2881
13.3707
13.4505
13.5278
13.6026
13.6751
13.7453
13.8133
13.8792
13.9431
14.005
14.0651
14.1233
14.1798
14.2346
14.2877
14.3393
14.3892
14.4377
14.4846
14.53
14.5741
14.6166
14.6578
14.6976
14.7361
14.7732
14.8089
14.8433
14.8764
14.9083
14.939
14.9686
14.9972
15.0249
15.052
15.0788
15.1057
15.1331
15.1616
15.1895
15.221
15.2272
-8.11799
-8.20639
-8.32732
-8.45001
-8.55524
-8.63566
-8.69397
-8.73605
-8.76953
-8.80419
-8.85099
-8.92022
-9.01993
-9.15493
-9.32742
-9.53641
-9.77722
-10.0443
-10.3322
-10.6355
-10.9484
-11.2664
-11.5853
-11.9019
-12.2132
-12.5171
-12.8117
-13.0955
-13.3669
-13.6246
-13.8675
-14.0944
-14.3043
-14.4962
-14.6691
-14.8222
-14.9548
-15.0662
-15.1557
-15.2229
-15.2672
-15.2882
-15.2856
-15.2591
-15.2086
-15.1339
-15.0349
-14.9117
-14.7644
-14.5932
-14.3985
-14.1805
-13.9397
-13.6766
-13.3917
-13.0856
-12.7593
-12.4133
-12.0487
-11.6664
-11.2673
-10.8525
-10.423
-9.98005
-9.52476
-9.05832
-8.58191
-8.09672
-7.60393
-7.10475
-6.60035
-6.09189
-5.58048
-5.06725
-4.55325
-4.0395
-3.527
-3.01668
-2.50943
-2.00607
-1.50741
-1.01417
-0.527015
-0.0465761
0.426586
0.89196
1.34909
1.79758
2.23707
2.66726
3.0879
3.49879
3.89977
4.29071
4.67153
5.04217
5.40261
5.75283
6.09284
6.4227
6.74247
7.05228
7.35224
7.64251
7.92327
8.19469
8.45695
8.71028
8.95487
9.19094
9.41874
9.63848
9.85039
10.0547
10.2517
10.4416
10.6246
10.801
10.9709
11.1347
11.2926
11.4447
11.5914
11.7327
11.8689
12.0003
12.127
12.2491
12.367
12.4807
12.5905
12.6965
12.7988
12.8978
12.9933
13.0857
13.175
13.2614
13.3449
13.4256
13.5038
13.5795
13.6528
13.7237
13.7925
13.8591
13.9237
13.9863
14.047
14.1059
14.163
14.2184
14.2721
14.3241
14.3746
14.4235
14.4709
14.5168
14.5613
14.6043
14.6458
14.686
14.7248
14.7621
14.7982
14.8328
14.8662
14.8982
14.929
14.9586
14.9871
15.0146
15.0413
15.0673
15.093
15.1184
15.1438
15.1668
15.1912
15.1866
-7.65298
-7.75166
-7.89372
-8.04251
-8.18045
-8.29908
-8.40197
-8.49847
-8.59796
-8.70937
-8.84033
-8.99571
-9.17827
-9.38845
-9.62456
-9.88448
-10.1652
-10.4622
-10.77
-11.0836
-11.3988
-11.7121
-12.0207
-12.3226
-12.6162
-12.9002
-13.1735
-13.4354
-13.6848
-13.9209
-14.1429
-14.35
-14.5414
-14.7161
-14.8734
-15.0124
-15.1325
-15.2329
-15.3129
-15.3718
-15.4092
-15.4245
-15.4173
-15.3871
-15.3337
-15.2569
-15.1565
-15.0324
-14.8848
-14.7137
-14.5192
-14.3018
-14.0618
-13.7995
-13.5156
-13.2108
-12.8856
-12.5408
-12.1774
-11.7962
-11.3983
-10.9846
-10.5561
-10.1141
-9.6597
-9.194
-8.7182
-8.23351
-7.74112
-7.24219
-6.73791
-6.22944
-5.71789
-5.20438
-4.68996
-4.17567
-3.6625
-3.15137
-2.64319
-2.13879
-1.63897
-1.14445
-0.655918
-0.173997
0.300745
0.767791
1.22668
1.677
2.11841
2.55058
2.97326
3.38625
3.78936
4.18247
4.56548
4.93833
5.30098
5.65342
5.99566
6.32776
6.64979
6.96185
7.26407
7.55659
7.83957
8.11319
8.37765
8.63315
8.87989
9.1181
9.34799
9.5698
9.78376
9.9901
10.1891
10.3809
10.5658
10.744
10.9158
11.0814
11.241
11.3948
11.5431
11.686
11.8238
11.9567
12.0849
12.2085
12.3277
12.4428
12.5539
12.6612
12.7648
12.8649
12.9616
13.0551
13.1455
13.2328
13.3173
13.3991
13.4782
13.5548
13.6289
13.7008
13.7703
13.8378
13.9031
13.9665
14.0279
14.0874
14.1452
14.2011
14.2554
14.3081
14.3591
14.4085
14.4564
14.5028
14.5477
14.5912
14.6332
14.6737
14.7129
14.7506
14.7869
14.8218
14.8554
14.8876
14.9184
14.948
14.9763
15.0035
15.0296
15.0548
15.079
15.1022
15.1244
15.1425
15.1602
15.1464
-7.29734
-7.39081
-7.54285
-7.70857
-7.8754
-8.03637
-8.19097
-8.34708
-8.51294
-8.69436
-8.89539
-9.11724
-9.35847
-9.61824
-9.89594
-10.1893
-10.4945
-10.8073
-11.1233
-11.439
-11.7515
-12.0585
-12.3581
-12.6491
-12.9302
-13.2008
-13.4602
-13.7076
-13.9425
-14.1642
-14.3723
-14.5659
-14.7444
-14.9072
-15.0534
-15.1823
-15.2931
-15.3853
-15.4579
-15.5105
-15.5423
-15.5528
-15.5415
-15.508
-15.4519
-15.3728
-15.2707
-15.1453
-14.9967
-14.8249
-14.63
-14.4124
-14.1724
-13.9103
-13.6267
-13.3223
-12.9976
-12.6534
-12.2907
-11.9102
-11.513
-11.1001
-10.6725
-10.2313
-9.77771
-9.3128
-8.83776
-8.3538
-7.86208
-7.36377
-6.86005
-6.35206
-5.84092
-5.32771
-4.81351
-4.29933
-3.78616
-3.27493
-2.76653
-2.26179
-1.76151
-1.26641
-0.777185
-0.294451
0.181218
0.649305
1.10934
1.56092
2.00368
2.4373
2.86152
3.27612
3.68092
4.07577
4.46058
4.83527
5.1998
5.55415
5.89835
6.23244
6.55649
6.87059
7.17487
7.46947
7.75454
8.03025
8.2968
8.55439
8.80321
9.04348
9.27542
9.49925
9.71522
9.92354
10.1245
10.3182
10.505
10.6851
10.8587
11.0261
11.1874
11.343
11.4929
11.6375
11.7769
11.9114
12.041
12.1661
12.2868
12.4033
12.5158
12.6244
12.7292
12.8306
12.9285
13.0231
13.1146
13.2031
13.2886
13.3714
13.4515
13.529
13.6041
13.6768
13.7473
13.8155
13.8816
13.9458
14.0079
14.0682
14.1266
14.1832
14.2382
14.2914
14.343
14.393
14.4415
14.4884
14.5338
14.5777
14.6201
14.6611
14.7006
14.7387
14.7753
14.8105
14.8442
14.8766
14.9075
14.937
14.9651
14.9919
15.0173
15.0414
15.0641
15.085
15.1038
15.1172
15.1289
15.1069
-7.10702
-7.19312
-7.34724
-7.5196
-7.70299
-7.89529
-8.09309
-8.29835
-8.51565
-8.74742
-8.99397
-9.25524
-9.53119
-9.82142
-10.124
-10.4358
-10.7531
-11.0725
-11.391
-11.7059
-12.0153
-12.3173
-12.6106
-12.8942
-13.1673
-13.4294
-13.6798
-13.9181
-14.1439
-14.3566
-14.5557
-14.7406
-14.9108
-15.0657
-15.2044
-15.3264
-15.4308
-15.5171
-15.5845
-15.6322
-15.6598
-15.6665
-15.6519
-15.6154
-15.5568
-15.4755
-15.3715
-15.2446
-15.0946
-14.9217
-14.726
-14.5076
-14.267
-14.0045
-13.7207
-13.416
-13.0913
-12.7472
-12.3847
-12.0045
-11.6076
-11.1951
-10.768
-10.3273
-9.87434
-9.41009
-8.93576
-8.45252
-7.96153
-7.46398
-6.961
-6.45375
-5.94332
-5.43081
-4.91726
-4.40368
-3.89104
-3.38028
-2.87226
-2.36783
-1.86776
-1.37279
-0.883571
-0.400744
0.0751237
0.543518
1.00397
1.45607
1.89945
2.3338
2.75885
3.17438
3.58019
3.97616
4.36216
4.73812
5.104
5.45977
5.80544
6.14107
6.46671
6.78246
7.08843
7.38476
7.67159
7.9491
8.21747
8.47688
8.72754
8.96966
9.20346
9.42915
9.64696
9.85713
10.0599
10.2554
10.444
10.6259
10.8013
10.9703
11.1334
11.2906
11.4422
11.5884
11.7294
11.8653
11.9965
12.1231
12.2452
12.3631
12.4769
12.5868
12.693
12.7956
12.8947
12.9905
13.0831
13.1727
13.2593
13.3431
13.4242
13.5027
13.5787
13.6523
13.7237
13.7928
13.8597
13.9246
13.9875
14.0485
14.1077
14.165
14.2206
14.2744
14.3267
14.3773
14.4263
14.4737
14.5196
14.564
14.6069
14.6483
14.6882
14.7266
14.7636
14.799
14.833
14.8655
14.8964
14.9258
14.9537
14.98
15.0047
15.0276
15.0486
15.0671
15.0826
15.0915
15.0977
15.0687
-7.07914
-7.16597
-7.31367
-7.48246
-7.66919
-7.87375
-8.09298
-8.32488
-8.5697
-8.82805
-9.09942
-9.38298
-9.67846
-9.98472
-10.2991
-10.6185
-10.9401
-11.2612
-11.5793
-11.8925
-12.199
-12.4973
-12.7865
-13.0656
-13.334
-13.5912
-13.8366
-14.0699
-14.2906
-14.4982
-14.6923
-14.8724
-15.0378
-15.188
-15.3222
-15.4399
-15.5403
-15.6227
-15.6865
-15.7309
-15.7553
-15.7592
-15.7419
-15.7031
-15.6422
-15.5589
-15.4531
-15.3245
-15.1731
-14.9989
-14.802
-14.5826
-14.3411
-14.0779
-13.7934
-13.4883
-13.1632
-12.8189
-12.4562
-12.0761
-11.6794
-11.2671
-10.8404
-10.4002
-9.94779
-9.48421
-9.01063
-8.52821
-8.03811
-7.54149
-7.03949
-6.53324
-6.02383
-5.51233
-4.99979
-4.48721
-3.97554
-3.46571
-2.95858
-2.45497
-1.95566
-1.46137
-0.972767
-0.490463
-0.0150231
0.453043
0.913274
1.36526
1.80864
2.2431
2.66837
3.08421
3.49044
3.88692
4.27353
4.65019
5.01684
5.37348
5.72011
6.05677
6.38352
6.70045
7.00766
7.30529
7.59349
7.87241
8.14223
8.40313
8.65532
8.89899
9.13435
9.36163
9.58105
9.79282
9.99718
10.1944
10.3846
10.568
10.745
10.9157
11.0803
11.2391
11.3922
11.5399
11.6823
11.8198
11.9524
12.0804
12.2039
12.3231
12.4382
12.5494
12.6568
12.7606
12.8609
12.9579
13.0516
13.1423
13.2299
13.3148
13.3969
13.4763
13.5533
13.6278
13.7
13.77
13.8377
13.9034
13.9671
14.0288
14.0887
14.1467
14.203
14.2575
14.3103
14.3615
14.4111
14.4591
14.5055
14.5504
14.5938
14.6356
14.6759
14.7147
14.752
14.7877
14.8219
14.8545
14.8854
14.9147
14.9423
14.9681
14.992
15.0137
15.0329
15.0489
15.0612
15.0658
15.0671
15.032
-7.19005
-7.26842
-7.39936
-7.55525
-7.73389
-7.93498
-8.15582
-8.39382
-8.64734
-8.91505
-9.19529
-9.48693
-9.78904
-10.0997
-10.4163
-10.7364
-11.0574
-11.3771
-11.6933
-12.0042
-12.3083
-12.6043
-12.8912
-13.1682
-13.4345
-13.6897
-13.9333
-14.1647
-14.3834
-14.5892
-14.7813
-14.9593
-15.1227
-15.2707
-15.4029
-15.5184
-15.6166
-15.6968
-15.7584
-15.8007
-15.823
-15.8248
-15.8056
-15.7648
-15.702
-15.617
-15.5095
-15.3793
-15.2264
-15.0508
-14.8527
-14.6322
-14.3898
-14.1257
-13.8405
-13.5349
-13.2094
-12.8649
-12.5021
-12.1221
-11.7256
-11.3137
-10.8875
-10.448
-9.99636
-9.5337
-9.06115
-8.57987
-8.091
-7.59569
-7.09507
-6.59024
-6.0823
-5.5723
-5.06128
-4.55021
-4.04005
-3.53169
-3.02599
-2.52376
-2.02576
-1.53271
-1.04526
-0.564016
-0.0895461
0.377648
0.83711
1.28843
1.73126
2.16527
2.59019
3.00581
3.41192
3.80839
4.19509
4.57194
4.93889
5.29592
5.64304
5.98028
6.30771
6.62539
6.93345
7.232
7.52118
7.80115
8.07207
8.33414
8.58753
8.83246
9.06911
9.29772
9.51848
9.73163
9.93738
10.136
10.3276
10.5125
10.6909
10.863
11.029
11.1892
11.3437
11.4928
11.6366
11.7754
11.9094
12.0387
12.1635
12.284
12.4003
12.5128
12.6214
12.7263
12.8277
12.9258
13.0206
13.1123
13.201
13.2868
13.3699
13.4503
13.5282
13.6036
13.6767
13.7474
13.816
13.8825
13.947
14.0094
14.07
14.1287
14.1856
14.2408
14.2942
14.346
14.3962
14.4447
14.4917
14.5371
14.5809
14.6232
14.6639
14.7031
14.7407
14.7767
14.8111
14.8438
14.8747
14.9039
14.9312
14.9564
14.9794
14.9998
15.0173
15.0309
15.04
15.0408
15.0376
14.9972
-7.36656
-7.43113
-7.54204
-7.68048
-7.8443
-8.03304
-8.24435
-8.47555
-8.72419
-8.98794
-9.26457
-9.55291
-9.85173
-10.1588
-10.4718
-10.7882
-11.1057
-11.4222
-11.7357
-12.0444
-12.347
-12.6419
-12.9283
-13.2051
-13.4717
-13.7273
-13.9713
-14.2033
-14.4227
-14.6289
-14.8214
-14.9997
-15.1631
-15.311
-15.4427
-15.5577
-15.6552
-15.7345
-15.795
-15.8361
-15.8571
-15.8575
-15.8367
-15.7944
-15.7302
-15.6437
-15.5347
-15.4031
-15.2489
-15.072
-14.8728
-14.6513
-14.408
-14.1432
-13.8575
-13.5515
-13.2259
-12.8814
-12.5188
-12.1391
-11.7433
-11.3322
-10.9069
-10.4686
-10.0183
-9.55704
-9.08607
-8.6065
-8.11945
-7.62605
-7.12741
-6.62463
-6.11878
-5.6109
-5.102
-4.59306
-4.08501
-3.57874
-3.07508
-2.57484
-2.07877
-1.58757
-1.10188
-0.622308
-0.149405
0.31633
0.774448
1.22454
1.66626
2.09929
2.52335
2.93823
3.34373
3.7397
4.12603
4.50262
4.86943
5.22644
5.57364
5.91107
6.23879
6.55687
6.86542
7.16454
7.45438
7.73509
8.00682
8.26977
8.5241
8.77001
9.00771
9.2374
9.45929
9.6736
9.88054
10.0803
10.2732
10.4593
10.639
10.8124
10.9797
11.1411
11.2969
11.4473
11.5924
11.7325
11.8677
11.9982
12.1242
12.2459
12.3635
12.477
12.5868
12.6928
12.7953
12.8945
12.9903
13.083
13.1727
13.2595
13.3435
13.4249
13.5036
13.5799
13.6538
13.7254
13.7948
13.862
13.9272
13.9904
14.0517
14.1111
14.1687
14.2245
14.2786
14.331
14.3817
14.4308
14.4783
14.5242
14.5685
14.6113
14.6524
14.692
14.7299
14.7661
14.8007
14.8335
14.8645
14.8935
14.9204
14.945
14.9672
14.9864
15.0021
15.0134
15.0195
15.0166
15.0094
14.9646
-7.54047
-7.59195
-7.68452
-7.80511
-7.95174
-8.12388
-8.31946
-8.53613
-8.77139
-9.02273
-9.28808
-9.56636
-9.85615
-10.1552
-10.4612
-10.7717
-11.0843
-11.3971
-11.7079
-12.0151
-12.317
-12.6123
-12.8997
-13.1782
-13.4469
-13.7049
-13.9515
-14.1861
-14.408
-14.6166
-14.8113
-14.9914
-15.1564
-15.3056
-15.4383
-15.5538
-15.6516
-15.7309
-15.7911
-15.8316
-15.8519
-15.8514
-15.8297
-15.7862
-15.7208
-15.6331
-15.5229
-15.3902
-15.2349
-15.0571
-14.857
-14.6348
-14.391
-14.1259
-13.8401
-13.5342
-13.2089
-12.865
-12.5032
-12.1246
-11.7299
-11.3202
-10.8966
-10.4601
-10.0117
-9.5527
-9.08406
-8.60695
-8.12247
-7.63175
-7.13588
-6.63592
-6.13294
-5.62797
-5.12198
-4.61593
-4.11076
-3.60732
-3.10645
-2.60893
-2.11548
-1.62681
-1.14356
-0.666309
-0.195606
0.268056
0.724234
1.17253
1.61258
2.04408
2.46677
2.88041
3.28481
3.67982
4.06533
4.44124
4.80751
5.16409
5.511
5.84827
6.17594
6.49408
6.8028
7.1022
7.39242
7.67359
7.94588
8.20945
8.46449
8.71117
8.9497
9.18028
9.40311
9.6184
9.82636
10.0272
10.2212
10.4084
10.5892
10.7637
10.9322
11.0948
11.2518
11.4033
11.5496
11.6908
11.8272
11.9589
12.0861
12.2089
12.3276
12.4422
12.553
12.6602
12.7637
12.8639
12.9607
13.0544
13.1451
13.2328
13.3177
13.4
13.4796
13.5567
13.6315
13.7039
13.774
13.8421
13.908
13.9719
14.0339
14.094
14.1522
14.2086
14.2633
14.3163
14.3677
14.4173
14.4654
14.5118
14.5566
14.5998
14.6414
14.6813
14.7196
14.7561
14.7909
14.8238
14.8547
14.8836
14.9102
14.9343
14.9555
14.9735
14.9875
14.9966
15
14.9937
14.9828
14.9343
-7.66727
-7.70945
-7.78663
-7.89058
-8.01982
-8.17388
-8.35103
-8.54931
-8.76671
-9.00102
-9.25087
-9.51552
-9.79354
-10.0826
-10.3804
-10.6843
-10.9922
-11.3017
-11.6107
-11.9175
-12.2202
-12.5173
-12.8074
-13.0892
-13.3616
-13.6237
-13.8746
-14.1133
-14.3392
-14.5515
-14.7496
-14.9328
-15.1004
-15.2517
-15.3862
-15.503
-15.6016
-15.6815
-15.7419
-15.7823
-15.8022
-15.8011
-15.7787
-15.7344
-15.6681
-15.5795
-15.4685
-15.335
-15.179
-15.0007
-14.8003
-14.578
-14.3342
-14.0694
-13.7842
-13.4791
-13.1548
-12.8122
-12.452
-12.0752
-11.6826
-11.2753
-10.8543
-10.4205
-9.97516
-9.51927
-9.05393
-8.58026
-8.09934
-7.61227
-7.12012
-6.62395
-6.12478
-5.62363
-5.12145
-4.61919
-4.11774
-3.61798
-3.12071
-2.6267
-2.13665
-1.65126
-1.17116
-0.696918
-0.229082
0.231867
0.685488
1.13139
1.56921
1.99865
2.41943
2.83133
3.23417
3.62777
4.01203
4.38685
4.75217
5.10797
5.45424
5.791
6.1183
6.43621
6.74482
7.04423
7.33456
7.61596
7.88857
8.15255
8.40808
8.65535
8.89453
9.12582
9.34943
9.56555
9.77439
9.97616
10.1711
10.3593
10.5411
10.7167
10.8862
11.0499
11.208
11.3606
11.508
11.6503
11.7878
11.9206
12.0489
12.1728
12.2925
12.4082
12.5201
12.6282
12.7328
12.834
12.9318
13.0264
13.118
13.2067
13.2925
13.3756
13.4561
13.5341
13.6096
13.6828
13.7538
13.8225
13.8892
13.9539
14.0165
14.0773
14.1362
14.1933
14.2486
14.3022
14.3541
14.4043
14.4529
14.4998
14.5452
14.5888
14.6308
14.6712
14.7098
14.7466
14.7816
14.8147
14.8456
14.8743
14.9006
14.9241
14.9445
14.9613
14.9738
14.9808
14.9816
14.9723
14.958
14.9064
-7.72273
-7.76098
-7.82657
-7.91556
-8.02778
-8.16317
-8.32071
-8.49906
-8.69667
-8.91199
-9.14453
-9.39417
-9.65958
-9.93838
-10.228
-10.5259
-10.8297
-11.1369
-11.4455
-11.7532
-12.0581
-12.3584
-12.6525
-12.939
-13.2166
-13.4839
-13.7401
-13.984
-14.2149
-14.4318
-14.634
-14.8208
-14.9915
-15.1455
-15.282
-15.4005
-15.5003
-15.5809
-15.6417
-15.6822
-15.702
-15.7007
-15.6778
-15.633
-15.5662
-15.4772
-15.3658
-15.2321
-15.0761
-14.8979
-14.6978
-14.4762
-14.2333
-13.9697
-13.686
-13.3827
-13.0605
-12.7203
-12.3628
-11.9889
-11.5996
-11.1958
-10.7785
-10.3487
-9.90748
-9.4559
-8.99503
-8.52595
-8.04973
-7.56744
-7.08012
-6.5888
-6.0945
-5.5982
-5.10084
-4.60334
-4.10657
-3.61138
-3.11858
-2.62892
-2.1431
-1.66178
-1.18557
-0.715066
-0.250784
0.206794
0.657233
1.10014
1.53516
1.96199
2.38036
2.79004
3.19083
3.58259
3.96518
4.33852
4.70253
5.05719
5.40248
5.73843
6.06508
6.38248
6.69071
6.98988
7.28011
7.56151
7.83423
8.09844
8.3543
8.60197
8.84164
9.0735
9.29775
9.51457
9.72417
9.92675
10.1225
10.3117
10.4944
10.6709
10.8414
11.0062
11.1652
11.3189
11.4674
11.6107
11.7493
11.8831
12.0124
12.1374
12.2581
12.3749
12.4878
12.5969
12.7025
12.8046
12.9034
12.999
13.0915
13.181
13.2677
13.3517
13.4331
13.5118
13.5882
13.6622
13.7339
13.8034
13.8709
13.9362
13.9996
14.061
14.1206
14.1783
14.2343
14.2885
14.341
14.3918
14.4409
14.4884
14.5342
14.5784
14.6209
14.6616
14.7006
14.7377
14.773
14.8062
14.8372
14.8658
14.8918
14.9148
14.9344
14.95
14.961
14.9661
14.9645
14.9526
14.9353
14.881
-7.70833
-7.74301
-7.79984
-7.87498
-7.96999
-8.08569
-8.22208
-8.37882
-8.5551
-8.75025
-8.96468
-9.19891
-9.45173
-9.72066
-10.003
-10.2961
-10.5972
-10.9038
-11.2134
-11.5237
-11.8323
-12.1373
-12.4368
-12.7291
-13.0126
-13.286
-13.5481
-13.7977
-14.0338
-14.2555
-14.4619
-14.6524
-14.8263
-14.9828
-15.1213
-15.2414
-15.3424
-15.4238
-15.4851
-15.5259
-15.5458
-15.5445
-15.5216
-15.4768
-15.41
-15.3212
-15.2101
-15.077
-14.9217
-14.7446
-14.5459
-14.3259
-14.0851
-13.8239
-13.5428
-13.2425
-12.9238
-12.5873
-12.2338
-11.8643
-11.4796
-11.0806
-10.6684
-10.244
-9.80824
-9.36232
-8.90724
-8.44405
-7.97381
-7.49753
-7.01626
-6.53099
-6.0427
-5.55236
-5.06088
-4.56917
-4.07809
-3.58844
-3.10103
-2.61659
-2.13583
-1.65938
-1.18786
-0.72181
-0.26177
0.191784
0.638416
1.07774
1.5094
1.93309
2.34854
2.75552
3.15384
3.54332
3.92386
4.29534
4.6577
5.01089
5.35491
5.68977
6.01548
6.33212
6.63975
6.93847
7.22837
7.50959
7.78226
8.04653
8.30254
8.55049
8.79052
9.02283
9.2476
9.46502
9.67528
9.87858
10.0751
10.2651
10.4487
10.6261
10.7976
10.9632
11.1233
11.2779
11.4274
11.5718
11.7113
11.8462
11.9765
12.1025
12.2243
12.342
12.4559
12.566
12.6726
12.7756
12.8754
12.9719
13.0653
13.1558
13.2433
13.3282
13.4104
13.49
13.5671
13.6419
13.7144
13.7847
13.8528
13.9189
13.983
14.0451
14.1053
14.1637
14.2203
14.2752
14.3283
14.3797
14.4294
14.4774
14.5238
14.5684
14.6114
14.6526
14.692
14.7294
14.7649
14.7983
14.8294
14.8579
14.8837
14.9062
14.9251
14.9398
14.9494
14.9527
14.949
14.9346
14.9146
14.8582
-7.64462
-7.67032
-7.71643
-7.77505
-7.8498
-7.94268
-8.0549
-8.18736
-8.34028
-8.51394
-8.70974
-8.92869
-9.16963
-9.42986
-9.70639
-9.99627
-10.2965
-10.6042
-10.9165
-11.2307
-11.5443
-11.855
-12.1606
-12.4592
-12.7491
-13.0286
-13.2965
-13.5515
-13.7926
-14.0187
-14.2291
-14.4229
-14.5995
-14.7583
-14.8987
-15.0202
-15.1223
-15.2045
-15.2665
-15.3079