/*--------------------------------*- C++ -*----------------------------------*\
  =========                 |
  \\      /  F ield         | OpenFOAM: The Open Source CFD Toolbox
   \\    /   O peration     | Website:  https://openfoam.org
    \\  /    A nd           | Version:  8
     \\/     M anipulation  |
\*---------------------------------------------------------------------------*/
FoamFile
{
    version     2.0;
    format      ascii;
    class       surfaceScalarField;
    location    "4600";
    object      phi;
}
// * * * * * * * * * * * * * * * * * * * * * * * * * * * * * * * * * * * * * //

dimensions      [0 3 -1 0 0 0 0];

internalField   nonuniform List<scalar> 
24170
(
3.92539e-06
-7.91498e-07
3.76465e-06
1.6075e-07
3.63345e-06
1.31209e-07
3.43331e-06
2.00144e-07
3.28028e-06
1.53027e-07
3.18901e-06
9.11907e-08
3.13091e-06
5.81106e-08
3.08609e-06
4.58913e-08
3.04612e-06
4.23234e-08
3.01059e-06
3.81625e-08
2.97876e-06
3.38023e-08
2.94904e-06
3.07703e-08
2.92187e-06
2.7378e-08
2.89642e-06
2.52003e-08
2.87227e-06
2.36057e-08
2.85193e-06
1.94844e-08
2.84097e-06
9.85746e-09
-6.3759e-09
2.84668e-06
3.58445e-06
-9.19499e-07
3.80424e-06
-5.90412e-08
3.74282e-06
1.92629e-07
3.6906e-06
2.52375e-07
3.63729e-06
2.06333e-07
3.59023e-06
1.3828e-07
3.55289e-06
9.55999e-08
3.52309e-06
7.56599e-08
3.49853e-06
6.65697e-08
3.47732e-06
5.92152e-08
3.45871e-06
5.25294e-08
3.44253e-06
4.72648e-08
3.42795e-06
4.23382e-08
3.41466e-06
3.87869e-08
3.40269e-06
3.57309e-08
3.39122e-06
3.10532e-08
3.38036e-06
2.0843e-08
4.78221e-09
3.36944e-06
3.68518e-06
-7.92482e-07
3.83639e-06
-2.1025e-07
3.91494e-06
1.14082e-07
3.94502e-06
2.22293e-07
3.94408e-06
2.07265e-07
3.92749e-06
1.54897e-07
3.90755e-06
1.15615e-07
3.88932e-06
9.36448e-08
3.874e-06
8.11969e-08
3.86056e-06
7.19162e-08
3.84834e-06
6.42564e-08
3.83728e-06
5.81358e-08
3.82691e-06
5.27798e-08
3.8174e-06
4.84759e-08
3.80891e-06
4.44347e-08
3.80097e-06
3.92548e-08
3.79195e-06
3.02089e-08
1.7799e-08
3.77944e-06
4.05359e-06
-6.4151e-07
4.1146e-06
-2.71259e-07
4.20799e-06
2.06917e-08
4.26635e-06
1.63932e-07
4.29069e-06
1.82926e-07
4.29287e-06
1.52749e-07
4.28571e-06
1.22819e-07
4.27631e-06
1.02844e-07
4.26727e-06
8.96867e-08
4.25873e-06
7.98181e-08
4.25056e-06
7.19503e-08
4.24283e-06
6.56355e-08
4.23534e-06
6.02472e-08
4.22824e-06
5.56943e-08
4.22149e-06
5.13538e-08
4.21464e-06
4.63471e-08
4.20599e-06
3.91858e-08
3.06617e-08
4.19351e-06
4.50491e-06
-5.09114e-07
4.51536e-06
-2.81708e-07
4.58529e-06
-4.92341e-08
4.64665e-06
1.02566e-07
4.68258e-06
1.46993e-07
4.69688e-06
1.38473e-07
4.69946e-06
1.20238e-07
4.69723e-06
1.04926e-07
4.69331e-06
9.32557e-08
4.68868e-06
8.40581e-08
4.68366e-06
7.66428e-08
4.67851e-06
7.0609e-08
4.67321e-06
6.54956e-08
4.66783e-06
6.11072e-08
4.66227e-06
5.70066e-08
4.65606e-06
5.27051e-08
4.64786e-06
4.75931e-08
4.26074e-08
4.63612e-06
5.00014e-06
-3.94663e-07
4.98614e-06
-2.67704e-07
5.03069e-06
-9.37788e-08
5.08506e-06
4.81981e-08
5.12454e-06
1.07517e-07
5.14608e-06
1.16941e-07
5.15584e-06
1.1049e-07
5.1594e-06
1.01286e-07
5.15985e-06
9.26086e-08
5.15859e-06
8.50845e-08
5.15629e-06
7.8744e-08
5.15333e-06
7.34438e-08
5.14984e-06
6.89351e-08
5.14589e-06
6.50652e-08
5.14136e-06
6.15885e-08
5.13584e-06
5.83116e-08
5.12839e-06
5.51508e-08
5.30538e-08
5.11808e-06
5.54382e-06
-2.97475e-07
5.51664e-06
-2.40529e-07
5.54055e-06
-1.17686e-07
5.58388e-06
4.87054e-09
5.62166e-06
6.97347e-08
5.64656e-06
9.20465e-08
5.66107e-06
9.59689e-08
5.66906e-06
9.32478e-08
5.67315e-06
8.84252e-08
5.67481e-06
8.33021e-08
5.67491e-06
7.85529e-08
5.6739e-06
7.43768e-08
5.67204e-06
7.07672e-08
5.6694e-06
6.76975e-08
5.66591e-06
6.51016e-08
5.66127e-06
6.29902e-08
5.65494e-06
6.15495e-08
6.15347e-08
5.6465e-06
4.34788e-06
-2.39242e-07
4.32251e-06
-2.15162e-07
4.33078e-06
-1.25951e-07
4.35419e-06
-1.85361e-08
4.3784e-06
4.55263e-08
4.39646e-06
7.39853e-08
4.40841e-06
8.40233e-08
4.41597e-06
8.56744e-08
4.42059e-06
8.37685e-08
4.42325e-06
8.05987e-08
4.42456e-06
7.71977e-08
4.4249e-06
7.40041e-08
4.42446e-06
7.11815e-08
4.42334e-06
6.88119e-08
4.42151e-06
6.69387e-08
4.41885e-06
6.5673e-08
4.41514e-06
6.52711e-08
6.63514e-08
4.41035e-06
5.08621e-06
-1.85599e-07
5.05777e-06
-1.86718e-07
5.0584e-06
-1.26578e-07
5.07686e-06
-3.70021e-08
5.09918e-06
2.32143e-08
5.11773e-06
5.54366e-08
5.13124e-06
7.05076e-08
5.14059e-06
7.63174e-08
5.14686e-06
7.74764e-08
5.15094e-06
7.64981e-08
5.15344e-06
7.46773e-08
5.15477e-06
7.26676e-08
5.15514e-06
7.07982e-08
5.15468e-06
6.92657e-08
5.15341e-06
6.82118e-08
5.15128e-06
6.78152e-08
5.14821e-06
6.83525e-08
7.02743e-08
5.14429e-06
5.94839e-06
-1.38193e-07
5.91832e-06
-1.56649e-07
5.91161e-06
-1.19866e-07
5.924e-06
-4.93965e-08
5.94286e-06
4.359e-09
5.96058e-06
3.77173e-08
5.97479e-06
5.62918e-08
5.98546e-06
6.56472e-08
5.9932e-06
6.97366e-08
5.99867e-06
7.10182e-08
6.00242e-06
7.09165e-08
6.00484e-06
7.02409e-08
6.00618e-06
6.94593e-08
6.00658e-06
6.88686e-08
6.0061e-06
6.86892e-08
6.00478e-06
6.91371e-08
6.00267e-06
7.04633e-08
7.29772e-08
5.99997e-06
6.95439e-06
-9.83129e-08
6.92401e-06
-1.26278e-07
6.91113e-06
-1.06984e-07
6.9168e-06
-5.50654e-08
6.93087e-06
-9.71006e-09
6.94635e-06
2.22399e-08
6.96015e-06
4.24935e-08
6.9714e-06
5.43969e-08
6.98017e-06
6.09623e-08
6.98684e-06
6.43486e-08
6.9918e-06
6.59562e-08
6.99537e-06
6.66657e-08
6.9978e-06
6.70316e-08
6.99924e-06
6.74252e-08
6.99982e-06
6.81144e-08
6.99963e-06
6.93256e-08
6.99883e-06
7.12686e-08
7.41304e-08
6.99768e-06
8.12719e-06
-6.64877e-08
8.09793e-06
-9.70209e-08
8.08056e-06
-8.96087e-08
8.07955e-06
-5.40584e-08
8.08793e-06
-1.80889e-08
8.09985e-06
1.03234e-08
8.11198e-06
3.03595e-08
8.12286e-06
4.35229e-08
8.13202e-06
5.17962e-08
8.1395e-06
5.68687e-08
8.14548e-06
5.99764e-08
8.15018e-06
6.1971e-08
8.15378e-06
6.34323e-08
8.15644e-06
6.47581e-08
8.15832e-06
6.62345e-08
8.15958e-06
6.80752e-08
8.1604e-06
7.04419e-08
7.344e-08
8.16109e-06
9.49368e-06
-4.24386e-08
9.4668e-06
-7.01427e-08
9.44683e-06
-6.96401e-08
9.43991e-06
-4.71315e-08
9.44229e-06
-2.04675e-08
9.44965e-06
2.95599e-09
9.45895e-06
2.10651e-08
9.4684e-06
3.40713e-08
9.47716e-06
4.30371e-08
9.48491e-06
4.91215e-08
9.49159e-06
5.32945e-08
9.49727e-06
5.62925e-08
9.50205e-06
5.86473e-08
9.50607e-06
6.07391e-08
9.50947e-06
6.28351e-08
9.51243e-06
6.51211e-08
9.51515e-06
6.77154e-08
7.06714e-08
9.51792e-06
1.10854e-05
-2.5159e-08
1.10618e-05
-4.65025e-08
1.1041e-05
-4.88065e-08
1.10294e-05
-3.55513e-08
1.10261e-05
-1.71693e-08
1.10284e-05
6.05464e-10
1.1034e-05
1.54753e-08
1.10411e-05
2.69715e-08
1.10487e-05
3.54926e-08
1.10561e-05
4.17166e-08
1.1063e-05
4.63142e-08
1.10695e-05
4.98438e-08
1.10754e-05
5.27356e-08
1.10808e-05
5.53037e-08
1.10859e-05
5.77685e-08
1.10908e-05
6.02736e-08
1.10956e-05
6.28995e-08
6.56695e-08
1.11006e-05
1.29396e-05
-1.31186e-08
1.29194e-05
-2.62786e-08
1.28988e-05
-2.82518e-08
1.28839e-05
-2.06874e-08
1.28758e-05
-8.99539e-09
1.28732e-05
3.14536e-09
1.28748e-05
1.39406e-08
1.28789e-05
2.27891e-08
1.28847e-05
2.97453e-08
1.28913e-05
3.5144e-08
1.28982e-05
3.93843e-08
1.29052e-05
4.28291e-08
1.29122e-05
4.57706e-08
1.29191e-05
4.84259e-08
1.29259e-05
5.09439e-08
1.29327e-05
5.34162e-08
1.29398e-05
5.58861e-08
5.83564e-08
1.29471e-05
1.50998e-05
-4.48303e-09
1.50822e-05
-8.676e-09
1.50621e-05
-8.11346e-09
1.50448e-05
-3.45805e-09
1.50327e-05
3.10988e-09
1.50259e-05
9.93895e-09
1.50237e-05
1.61621e-08
1.5025e-05
2.14647e-08
1.50289e-05
2.58538e-08
1.50346e-05
2.94853e-08
1.50414e-05
3.25552e-08
1.5049e-05
3.52438e-08
1.50571e-05
3.76946e-08
1.50655e-05
4.00086e-08
1.50742e-05
4.22485e-08
1.50832e-05
4.44437e-08
1.50925e-05
4.65967e-08
4.86891e-08
1.51021e-05
1.76171e-05
2.89316e-09
1.75999e-05
8.52301e-09
1.75787e-05
1.30296e-08
1.7559e-05
1.62777e-08
1.75436e-05
1.84723e-08
1.75336e-05
1.99575e-08
1.75287e-05
2.10519e-08
1.75282e-05
2.19933e-08
1.75311e-05
2.29394e-08
1.75366e-05
2.39854e-08
1.7544e-05
2.51774e-08
1.75527e-05
2.65284e-08
1.75624e-05
2.80268e-08
1.75727e-05
2.96475e-08
1.75836e-05
3.13536e-08
1.7595e-05
3.31042e-08
1.76067e-05
3.48532e-08
3.6556e-08
1.76188e-05
1.78181e-05
1.10003e-08
1.77994e-05
2.72123e-08
1.77768e-05
3.56238e-08
1.7756e-05
3.7058e-08
1.77402e-05
3.43255e-08
1.77302e-05
2.99455e-08
1.77257e-05
2.54989e-08
1.7726e-05
2.17766e-08
1.77298e-05
1.90737e-08
1.77364e-05
1.73988e-08
1.7745e-05
1.66318e-08
1.77549e-05
1.66033e-08
1.77658e-05
1.71423e-08
1.77773e-05
1.8091e-08
1.77894e-05
1.93172e-08
1.78018e-05
2.0707e-08
1.78144e-05
2.2171e-08
2.36333e-08
1.78274e-05
1.58702e-05
2.21334e-08
1.58478e-05
4.95811e-08
1.58233e-05
6.01319e-08
1.58032e-05
5.72339e-08
1.57899e-05
4.76095e-08
1.57834e-05
3.63701e-08
1.57827e-05
2.61956e-08
1.57864e-05
1.81443e-08
1.57931e-05
1.23629e-08
1.58019e-05
8.61029e-09
1.5812e-05
6.4955e-09
1.5823e-05
5.62891e-09
1.58345e-05
5.66661e-09
1.58462e-05
6.33274e-09
1.58581e-05
7.40594e-09
1.58701e-05
8.72246e-09
1.58821e-05
1.01536e-08
1.16101e-08
1.58942e-05
1.41313e-05
3.95386e-08
1.41021e-05
7.87067e-08
1.40745e-05
8.77874e-08
1.40557e-05
7.60377e-08
1.40469e-05
5.64123e-08
1.40462e-05
3.7038e-08
1.40512e-05
2.12082e-08
1.40597e-05
9.57973e-09
1.40704e-05
1.75989e-09
1.4082e-05
-3.05115e-09
1.40941e-05
-5.60552e-09
1.41063e-05
-6.55998e-09
1.41184e-05
-6.41141e-09
1.41303e-05
-5.55141e-09
1.41419e-05
-4.25008e-09
1.41534e-05
-2.70885e-09
1.41646e-05
-1.06519e-09
5.83739e-10
1.41756e-05
1.25772e-05
6.73555e-08
1.25392e-05
1.16739e-07
1.25091e-05
1.17888e-07
1.24942e-05
9.08903e-08
1.24928e-05
5.78128e-08
1.25002e-05
2.96814e-08
1.25122e-05
9.12888e-09
1.25264e-05
-4.4991e-09
1.25409e-05
-1.28383e-08
1.25552e-05
-1.735e-08
1.25689e-05
-1.92844e-08
1.25819e-05
-1.94972e-08
1.25941e-05
-1.8648e-08
1.26057e-05
-1.71431e-08
1.26167e-05
-1.529e-08
1.26273e-05
-1.32824e-08
1.26375e-05
-1.12492e-08
-9.27369e-09
1.26473e-05
1.11862e-05
1.10916e-07
1.11384e-05
1.6457e-07
1.11088e-05
1.4752e-07
1.11022e-05
9.74842e-08
1.11117e-05
4.83121e-08
1.11289e-05
1.24002e-08
1.11486e-05
-1.04632e-08
1.11678e-05
-2.37299e-08
1.11855e-05
-3.05107e-08
1.12014e-05
-3.3293e-08
1.12157e-05
-3.3555e-08
1.12285e-05
-3.23564e-08
1.12402e-05
-3.02949e-08
1.12509e-05
-2.78383e-08
1.12608e-05
-2.52235e-08
1.12701e-05
-2.2614e-08
1.1279e-05
-2.01125e-08
-1.77509e-08
1.12875e-05
9.93908e-06
1.76452e-07
9.88248e-06
2.21163e-07
9.85873e-06
1.71262e-07
9.86593e-06
9.02752e-08
9.8896e-06
2.46382e-08
9.9176e-06
-1.55566e-08
9.94391e-06
-3.67966e-08
9.96668e-06
-4.64122e-08
9.98571e-06
-4.96143e-08
1.00017e-05
-4.92913e-08
1.00153e-05
-4.71293e-08
1.00269e-05
-4.39973e-08
1.00371e-05
-4.05281e-08
1.00463e-05
-3.6983e-08
1.00546e-05
-3.354e-08
1.00623e-05
-3.0318e-08
1.00696e-05
-2.73584e-08
-2.46624e-08
1.00764e-05
8.81963e-06
2.69916e-07
8.75785e-06
2.82944e-07
8.74788e-06
1.81226e-07
8.77481e-06
6.33228e-08
8.81458e-06
-1.51292e-08
8.85212e-06
-5.30924e-08
8.88268e-06
-6.72307e-08
8.90623e-06
-7.0029e-08
8.92427e-06
-6.76222e-08
8.93843e-06
-6.33783e-08
8.94985e-06
-5.84096e-08
8.95927e-06
-5.3344e-08
8.96728e-06
-4.84773e-08
8.97429e-06
-4.39768e-08
8.98055e-06
-3.98163e-08
8.98629e-06
-3.60591e-08
8.99168e-06
-3.27847e-08
-2.98469e-08
8.99686e-06
7.81391e-06
3.96675e-07
7.75391e-06
3.42943e-07
7.76868e-06
1.6644e-07
7.82053e-06
1.14612e-08
7.87567e-06
-7.02741e-08
7.91912e-06
-9.64914e-08
7.94967e-06
-9.78366e-08
7.97057e-06
-9.06529e-08
7.98484e-06
-8.15952e-08
7.99525e-06
-7.35625e-08
8.00317e-06
-6.61258e-08
8.0094e-06
-5.9429e-08
8.0145e-06
-5.33381e-08
8.01892e-06
-4.82119e-08
8.02279e-06
-4.36674e-08
8.02626e-06
-3.96046e-08
8.02961e-06
-3.62068e-08
-3.32008e-08
8.0329e-06
6.90424e-06
5.66768e-07
6.86137e-06
3.85804e-07
6.91716e-06
1.10634e-07
6.99674e-06
-6.81328e-08
7.06253e-06
-1.36071e-07
7.10529e-06
-1.39268e-07
7.13032e-06
-1.2255e-07
7.14447e-06
-1.04621e-07
7.15207e-06
-8.89993e-08
7.15709e-06
-7.5819e-08
7.16038e-06
-6.66921e-08
7.16271e-06
-5.95592e-08
7.16421e-06
-5.41523e-08
7.16558e-06
-4.94556e-08
7.16675e-06
-4.49736e-08
7.16771e-06
-4.08465e-08
7.1688e-06
-3.76389e-08
-3.51284e-08
7.17004e-06
6.07162e-06
7.97662e-07
6.08526e-06
3.72164e-07
6.19865e-06
-2.77324e-09
6.29989e-06
-1.69397e-07
6.36526e-06
-2.01462e-07
6.39754e-06
-1.71503e-07
6.41011e-06
-1.35218e-07
6.41342e-06
-1.0695e-07
6.41239e-06
-8.58108e-08
6.40989e-06
-7.40391e-08
6.40749e-06
-6.45263e-08
6.40488e-06
-5.76001e-08
6.40237e-06
-5.13289e-08
6.40035e-06
-4.70122e-08
6.3984e-06
-4.30815e-08
6.39641e-06
-3.91723e-08
6.39475e-06
-3.69208e-08
-3.47318e-08
6.39408e-06
5.35805e-06
1.05451e-06
5.50649e-06
2.23716e-07
5.64777e-06
-1.44085e-07
5.73564e-06
-2.57314e-07
5.77646e-06
-2.42346e-07
5.78324e-06
-1.78423e-07
5.77527e-06
-1.26643e-07
5.76327e-06
-9.40069e-08
5.74975e-06
-7.5668e-08
5.73931e-06
-6.3992e-08
5.73029e-06
-5.65627e-08
5.72235e-06
-4.998e-08
5.71442e-06
-4.46744e-08
5.70782e-06
-4.05658e-08
5.70185e-06
-3.69857e-08
5.69607e-06
-3.35171e-08
5.69145e-06
-3.16794e-08
-3.13864e-08
5.68767e-06
5.04576e-06
1.01105e-06
5.36491e-06
-9.545e-08
5.35251e-06
-1.31767e-07
5.33285e-06
-2.37745e-07
5.296e-06
-2.05651e-07
5.25016e-06
-1.32588e-07
5.20891e-06
-8.47341e-08
5.17485e-06
-6.08244e-08
5.14636e-06
-4.9827e-08
5.12485e-06
-4.29234e-08
5.10673e-06
-3.93773e-08
5.09051e-06
-3.57033e-08
5.07531e-06
-3.14406e-08
5.06199e-06
-2.76023e-08
5.04966e-06
-2.44277e-08
5.0389e-06
-2.20365e-08
5.02966e-06
-2.20882e-08
-2.33819e-08
5.02214e-06
5.4676e-06
5.37215e-06
5.24037e-06
5.0026e-06
4.79694e-06
4.66444e-06
4.57967e-06
4.51835e-06
4.46847e-06
4.42538e-06
4.38566e-06
4.34948e-06
4.31793e-06
4.29038e-06
4.26609e-06
4.2442e-06
4.2223e-06
4.19948e-06
2.31262e-08
-2.31239e-08
2.372e-07
-2.14074e-07
4.89321e-07
-2.52089e-07
7.09585e-07
-2.20241e-07
8.77298e-07
-1.67694e-07
9.88426e-07
-1.11117e-07
1.04409e-06
-5.56504e-08
1.04651e-06
-2.4206e-09
1.00101e-06
4.55135e-08
9.1773e-07
8.32678e-08
8.11931e-07
1.0581e-07
7.02743e-07
1.09175e-07
6.09961e-07
9.27788e-08
5.43676e-07
6.62963e-08
4.92535e-07
5.11604e-08
4.33358e-07
5.98802e-08
3.47052e-07
8.61674e-08
2.21953e-07
1.25872e-07
4.36483e-08
1.77888e-07
-2.01816e-07
2.44834e-07
-5.04351e-07
3.0228e-07
-8.4534e-07
3.40738e-07
-1.20968e-06
3.64347e-07
-1.58707e-06
3.77405e-07
-1.96867e-06
3.8164e-07
-2.3445e-06
3.75851e-07
-2.70654e-06
3.62057e-07
-3.04961e-06
3.43088e-07
-3.3699e-06
3.20305e-07
-3.66508e-06
2.95177e-07
-3.93426e-06
2.69193e-07
-4.17779e-06
2.43527e-07
-4.39667e-06
2.18885e-07
-4.59239e-06
1.95724e-07
-4.76666e-06
1.74269e-07
-4.92126e-06
1.54603e-07
-5.05795e-06
1.36686e-07
-5.17835e-06
1.20402e-07
-5.28394e-06
1.0559e-07
-5.37601e-06
9.20689e-08
-5.45566e-06
7.96575e-08
-5.52385e-06
6.81831e-08
-5.58134e-06
5.74905e-08
-5.62878e-06
4.74457e-08
-5.66672e-06
3.79396e-08
-5.69561e-06
2.8885e-08
-5.71582e-06
2.02105e-08
-5.7277e-06
1.18863e-08
-5.73174e-06
4.04037e-09
-5.7288e-06
-2.93928e-09
-5.71997e-06
-8.83781e-09
-5.706e-06
-1.39645e-08
-5.68732e-06
-1.86808e-08
-5.66417e-06
-2.31483e-08
-5.63673e-06
-2.74448e-08
-5.60513e-06
-3.15986e-08
-5.5695e-06
-3.56244e-08
-5.52997e-06
-3.9529e-08
-5.48666e-06
-4.33136e-08
-5.43968e-06
-4.6977e-08
-5.38917e-06
-5.05166e-08
-5.33524e-06
-5.3929e-08
-5.27803e-06
-5.72108e-08
-5.21767e-06
-6.03587e-08
-5.1543e-06
-6.33703e-08
-5.08806e-06
-6.62423e-08
-5.01908e-06
-6.89714e-08
-4.94753e-06
-7.15553e-08
-4.87354e-06
-7.39923e-08
-4.79725e-06
-7.62811e-08
-4.71883e-06
-7.84212e-08
-4.63842e-06
-8.0412e-08
-4.55617e-06
-8.22541e-08
-4.47222e-06
-8.39481e-08
-4.38672e-06
-8.54952e-08
-4.29983e-06
-8.68973e-08
-4.21167e-06
-8.81559e-08
-4.1224e-06
-8.92742e-08
-4.03214e-06
-9.02527e-08
-3.94105e-06
-9.10956e-08
-3.84924e-06
-9.18051e-08
-3.75685e-06
-9.23865e-08
-3.664e-06
-9.28513e-08
-3.5708e-06
-9.32079e-08
-3.47733e-06
-9.3468e-08
-3.3837e-06
-9.36309e-08
-3.29002e-06
-9.36807e-08
-3.1964e-06
-9.36176e-08
-3.10292e-06
-9.34799e-08
-3.00959e-06
-9.33271e-08
-2.91642e-06
-9.31719e-08
-2.82345e-06
-9.29742e-08
-2.7307e-06
-9.27512e-08
-2.63815e-06
-9.25502e-08
-2.54589e-06
-9.22634e-08
-2.45413e-06
-9.17601e-08
-2.36315e-06
-9.09813e-08
-2.27321e-06
-8.99377e-08
-2.18443e-06
-8.87838e-08
-2.0968e-06
-8.76295e-08
-2.01033e-06
-8.64733e-08
-1.92503e-06
-8.53e-08
-1.84093e-06
-8.41019e-08
-1.75805e-06
-8.28784e-08
-1.67642e-06
-8.16319e-08
-1.59606e-06
-8.03661e-08
-1.51698e-06
-7.90848e-08
-1.43919e-06
-7.77908e-08
-1.36271e-06
-7.6482e-08
-1.28757e-06
-7.51377e-08
-1.2138e-06
-7.37698e-08
-1.1414e-06
-7.24062e-08
-1.07036e-06
-7.10419e-08
-1.00068e-06
-6.9678e-08
-9.32366e-07
-6.83156e-08
-8.65411e-07
-6.69561e-08
-7.99811e-07
-6.56019e-08
-7.35557e-07
-6.42555e-08
-6.72639e-07
-6.2919e-08
-6.11049e-07
-6.15917e-08
-5.50776e-07
-6.02742e-08
-4.91807e-07
-5.89694e-08
-4.34125e-07
-5.76833e-08
-3.77704e-07
-5.64216e-08
-3.22524e-07
-5.518e-08
-2.6857e-07
-5.39552e-08
-2.15819e-07
-5.27511e-08
-1.64252e-07
-5.15669e-08
-1.13861e-07
-5.03907e-08
-6.46373e-08
-4.92226e-08
-1.67037e-08
-4.79324e-08
3.00714e-08
-4.67736e-08
7.59951e-08
-4.5922e-08
1.20962e-07
-4.49647e-08
1.64868e-07
-4.39045e-08
2.07711e-07
-4.28405e-08
2.49507e-07
-4.17937e-08
2.90287e-07
-4.07767e-08
3.30081e-07
-3.97917e-08
3.68921e-07
-3.88371e-08
4.06835e-07
-3.79111e-08
4.4385e-07
-3.70123e-08
4.79992e-07
-3.61396e-08
5.15288e-07
-3.52923e-08
5.4976e-07
-3.44698e-08
5.83435e-07
-3.36719e-08
6.16336e-07
-3.28982e-08
6.48487e-07
-3.21488e-08
6.79913e-07
-3.14234e-08
7.10637e-07
-3.07221e-08
7.40685e-07
-3.00448e-08
7.70079e-07
-2.93916e-08
7.98844e-07
-2.87625e-08
8.27004e-07
-2.81575e-08
8.54583e-07
-2.75765e-08
8.81605e-07
-2.70196e-08
9.08094e-07
-2.64866e-08
9.34073e-07
-2.59772e-08
9.59566e-07
-2.54909e-08
9.84595e-07
-2.50268e-08
1.00918e-06
-2.45838e-08
1.03334e-06
-2.41598e-08
1.0571e-06
-2.37522e-08
1.08046e-06
-2.33568e-08
1.10343e-06
-2.2968e-08
1.126e-06
-2.25776e-08
1.14818e-06
-2.21743e-08
1.16992e-06
-2.17422e-08
1.19118e-06
-2.12594e-08
1.21188e-06
-2.06948e-08
1.23189e-06
-2.00039e-08
1.25101e-06
-1.91232e-08
1.26897e-06
-1.79552e-08
1.28532e-06
-1.63556e-08
1.29937e-06
-1.40491e-08
1.31e-06
-1.06256e-08
1.31457e-06
-4.56169e-09
1.30772e-06
6.85289e-09
1.27819e-06
2.95326e-08
7.2326e-08
1.20586e-06
2.54183e-07
-2.77327e-07
4.90082e-07
-4.4997e-07
6.39667e-07
-4.01671e-07
7.243e-07
-3.04872e-07
7.63814e-07
-2.07199e-07
7.6976e-07
-1.17067e-07
7.48828e-07
-3.47123e-08
7.06645e-07
3.97543e-08
6.46285e-07
1.05879e-07
5.67657e-07
1.61886e-07
4.70043e-07
2.03431e-07
3.51774e-07
2.27433e-07
2.06812e-07
2.37747e-07
2.36161e-08
2.49509e-07
-2.086e-07
2.83384e-07
-4.94241e-07
3.45615e-07
-8.322e-07
4.24216e-07
-1.21206e-06
5.05744e-07
-1.61587e-06
5.81662e-07
-2.01731e-06
6.4622e-07
-2.40734e-06
6.92253e-07
-2.78281e-06
7.16202e-07
-3.13776e-06
7.1929e-07
-3.46518e-06
7.04834e-07
-3.75994e-06
6.76407e-07
-4.02109e-06
6.37001e-07
-4.24902e-06
5.90002e-07
-4.44504e-06
5.39107e-07
-4.61203e-06
4.87303e-07
-4.75352e-06
4.36665e-07
-4.87286e-06
3.88541e-07
-4.97324e-06
3.43905e-07
-5.05752e-06
3.03171e-07
-5.12823e-06
2.66426e-07
-5.18746e-06
2.33508e-07
-5.23698e-06
2.04114e-07
-5.27816e-06
1.77874e-07
-5.31216e-06
1.54396e-07
-5.33987e-06
1.333e-07
-5.36203e-06
1.14232e-07
-5.37926e-06
9.68834e-08
-5.39206e-06
8.09869e-08
-5.40089e-06
6.63208e-08
-5.40615e-06
5.27034e-08
-5.4082e-06
3.99879e-08
-5.40737e-06
2.80594e-08
-5.404e-06
1.684e-08
-5.39841e-06
6.29508e-09
-5.39075e-06
-3.61951e-09
-5.38059e-06
-1.30934e-08
-5.36706e-06
-2.23669e-08
-5.34956e-06
-3.1469e-08
-5.32791e-06
-4.03341e-08
-5.3021e-06
-4.89586e-08
-5.27219e-06
-5.73492e-08
-5.23828e-06
-6.55122e-08
-5.20045e-06
-7.34504e-08
-5.15882e-06
-8.11633e-08
-5.11348e-06
-8.86475e-08
-5.06456e-06
-9.58975e-08
-5.01217e-06
-1.02907e-07
-4.95643e-06
-1.09667e-07
-4.89747e-06
-1.1617e-07
-4.83542e-06
-1.22411e-07
-4.77041e-06
-1.28383e-07
-4.70257e-06
-1.34081e-07
-4.63205e-06
-1.39496e-07
-4.55898e-06
-1.44624e-07
-4.48351e-06
-1.49463e-07
-4.40578e-06
-1.54009e-07
-4.32594e-06
-1.58261e-07
-4.24413e-06
-1.62219e-07
-4.1605e-06
-1.65883e-07
-4.0752e-06
-1.69254e-07
-3.98836e-06
-1.72334e-07
-3.90013e-06
-1.75128e-07
-3.81064e-06
-1.77638e-07
-3.72005e-06
-1.7987e-07
-3.62847e-06
-1.8183e-07
-3.53604e-06
-1.83523e-07
-3.44289e-06
-1.84958e-07
-3.34913e-06
-1.86145e-07
-3.25489e-06
-1.87094e-07
-3.16028e-06
-1.87817e-07
-3.06543e-06
-1.88324e-07
-2.97043e-06
-1.88621e-07
-2.8754e-06
-1.88713e-07
-2.78041e-06
-1.88615e-07
-2.68554e-06
-1.88351e-07
-2.59092e-06
-1.87943e-07
-2.4967e-06
-1.87393e-07
-2.40298e-06
-1.86694e-07
-2.30988e-06
-1.85846e-07
-2.2176e-06
-1.84836e-07
-2.12625e-06
-1.83611e-07
-2.03587e-06
-1.82138e-07
-1.94644e-06
-1.80418e-07
-1.85789e-06
-1.7849e-07
-1.77024e-06
-1.76432e-07
-1.68357e-06
-1.74297e-07
-1.59795e-06
-1.72099e-07
-1.51341e-06
-1.69838e-07
-1.43e-06
-1.67516e-07
-1.34774e-06
-1.65137e-07
-1.26667e-06
-1.62706e-07
-1.1868e-06
-1.6023e-07
-1.10818e-06
-1.57712e-07
-1.03081e-06
-1.55157e-07
-9.54729e-07
-1.52566e-07
-8.79927e-07
-1.4994e-07
-8.06406e-07
-1.47293e-07
-7.34177e-07
-1.44636e-07
-6.63245e-07
-1.41975e-07
-5.93611e-07
-1.39312e-07
-5.25276e-07
-1.36652e-07
-4.58237e-07
-1.33996e-07
-3.92492e-07
-1.31349e-07
-3.28033e-07
-1.28714e-07
-2.64853e-07
-1.261e-07
-2.02939e-07
-1.23506e-07
-1.42284e-07
-1.2093e-07
-8.28753e-08
-1.18378e-07
-2.47069e-08
-1.15852e-07
3.22352e-08
-1.13364e-07
8.79789e-08
-1.10924e-07
1.42542e-07
-1.08518e-07
1.95934e-07
-1.06143e-07
2.48171e-07
-1.03804e-07
2.99279e-07
-1.01499e-07
3.49289e-07
-9.9232e-08
3.98358e-07
-9.70007e-08
4.4646e-07
-9.48751e-08
4.93378e-07
-9.284e-08
5.39181e-07
-9.07666e-08
5.83945e-07
-8.8668e-08
6.27703e-07
-8.65971e-08
6.70483e-07
-8.4573e-08
7.1231e-07
-8.26027e-08
7.53207e-07
-8.06874e-08
7.93197e-07
-7.8826e-08
8.32304e-07
-7.70167e-08
8.70551e-07
-7.5258e-08
9.07962e-07
-7.35488e-08
9.44559e-07
-7.18881e-08
9.80366e-07
-7.02752e-08
1.0154e-06
-6.87098e-08
1.0497e-06
-6.71916e-08
1.08327e-06
-6.57204e-08
1.11615e-06
-6.42961e-08
1.14834e-06
-6.29187e-08
1.17989e-06
-6.15882e-08
1.2108e-06
-6.03045e-08
1.24111e-06
-5.90678e-08
1.27083e-06
-5.78779e-08
1.29999e-06
-5.67348e-08
1.32861e-06
-5.56382e-08
1.35672e-06
-5.45878e-08
1.38432e-06
-5.35828e-08
1.41146e-06
-5.2622e-08
1.43813e-06
-5.17036e-08
1.46438e-06
-5.0825e-08
1.4902e-06
-4.99823e-08
1.51562e-06
-4.917e-08
1.54064e-06
-4.838e-08
1.56528e-06
-4.76016e-08
1.58952e-06
-4.68191e-08
1.61336e-06
-4.60115e-08
1.63677e-06
-4.51491e-08
1.6597e-06
-4.41909e-08
1.68209e-06
-4.30794e-08
1.70382e-06
-4.17329e-08
1.72473e-06
-4.00334e-08
1.74458e-06
-3.78042e-08
1.763e-06
-3.47757e-08
1.77943e-06
-3.04874e-08
1.793e-06
-2.41867e-08
1.80272e-06
-1.428e-08
1.80759e-06
1.99052e-09
1.80571e-06
3.14163e-08
8.80241e-08
1.79e-06
2.4601e-07
-5.23357e-07
3.42326e-07
-5.46289e-07
3.58614e-07
-4.17957e-07
3.4757e-07
-2.93818e-07
3.19868e-07
-1.79491e-07
2.75785e-07
-7.29837e-08
2.14609e-07
2.64663e-08
1.35289e-07
1.19069e-07
3.67649e-08
2.04405e-07
-8.31276e-08
2.81775e-07
-2.30093e-07
3.50396e-07
-4.14651e-07
4.11991e-07
-6.50213e-07
4.73306e-07
-9.43699e-07
5.42999e-07
-1.28495e-06
6.24631e-07
-1.65205e-06
7.12714e-07
-2.02415e-06
7.9632e-07
-2.38441e-06
8.65988e-07
-2.71892e-06
9.16158e-07
-3.01714e-06
9.44431e-07
-3.27521e-06
9.5032e-07
-3.4941e-06
9.35103e-07
-3.67681e-06
9.02002e-07
-3.82737e-06
8.554e-07
-3.95051e-06
7.99551e-07
-4.05165e-06
7.38135e-07
-4.1361e-06
6.74457e-07
-4.20827e-06
6.11274e-07
-4.27158e-06
5.50619e-07
-4.32866e-06
4.93744e-07
-4.38138e-06
4.41258e-07
-4.43086e-06
3.93394e-07
-4.47776e-06
3.50069e-07
-4.52234e-06
3.11e-07
-4.56463e-06
2.75798e-07
-4.60454e-06
2.44024e-07
-4.6419e-06
2.15236e-07
-4.67652e-06
1.8902e-07
-4.70822e-06
1.64999e-07
-4.73683e-06
1.42841e-07
-4.76221e-06
1.22265e-07
-4.78425e-06
1.03032e-07
-4.80288e-06
8.49447e-08
-4.81801e-06
6.78375e-08
-4.8296e-06
5.15708e-08
-4.83756e-06
3.60253e-08
-4.84182e-06
2.10993e-08
-4.84222e-06
6.69887e-09
-4.83856e-06
-7.28261e-09
-4.83069e-06
-2.09595e-08
-4.81867e-06
-3.43913e-08
-4.80257e-06
-4.75659e-08
-4.78245e-06
-6.04607e-08
-4.75834e-06
-7.30675e-08
-4.73031e-06
-8.53798e-08
-4.69843e-06
-9.73918e-08
-4.66278e-06
-1.09097e-07
-4.62346e-06
-1.20486e-07
-4.58056e-06
-1.31549e-07
-4.53418e-06
-1.42274e-07
-4.48444e-06
-1.5265e-07
-4.43144e-06
-1.62663e-07
-4.37531e-06
-1.723e-07
-4.31617e-06
-1.8155e-07
-4.25415e-06
-1.90405e-07
-4.18937e-06
-1.98855e-07
-4.12198e-06
-2.06889e-07
-4.0521e-06
-2.145e-07
-3.97988e-06
-2.21683e-07
-3.90546e-06
-2.28434e-07
-3.82897e-06
-2.3475e-07
-3.75056e-06
-2.4063e-07
-3.67037e-06
-2.46074e-07
-3.58854e-06
-2.51084e-07
-3.50521e-06
-2.55664e-07
-3.42052e-06
-2.59817e-07
-3.3346e-06
-2.63551e-07
-3.2476e-06
-2.66871e-07
-3.15965e-06
-2.69786e-07
-3.07086e-06
-2.72307e-07
-2.98138e-06
-2.74442e-07
-2.89132e-06
-2.76206e-07
-2.8008e-06
-2.77611e-07
-2.70995e-06
-2.7867e-07
-2.61887e-06
-2.79398e-07
-2.52769e-06
-2.79805e-07
-2.4365e-06
-2.79906e-07
-2.34539e-06
-2.79717e-07
-2.25449e-06
-2.79257e-07
-2.16389e-06
-2.7854e-07
-2.07371e-06
-2.77573e-07
-1.98404e-06
-2.7636e-07
-1.89499e-06
-2.74901e-07
-1.80664e-06
-2.73188e-07
-1.71905e-06
-2.71203e-07
-1.63224e-06
-2.68941e-07
-1.54624e-06
-2.66422e-07
-1.46105e-06
-2.6368e-07
-1.37672e-06
-2.60761e-07
-1.29332e-06
-2.577e-07
-1.2109e-06
-2.54518e-07
-1.12951e-06
-2.51225e-07
-1.0492e-06
-2.47833e-07
-9.69986e-07
-2.4435e-07
-8.91907e-07
-2.40786e-07
-8.14988e-07
-2.37149e-07
-7.39252e-07
-2.33448e-07
-6.64718e-07
-2.29691e-07
-5.914e-07
-2.25885e-07
-5.19305e-07
-2.22036e-07
-4.4844e-07
-2.18158e-07
-3.78815e-07
-2.14261e-07
-3.10438e-07
-2.10353e-07
-2.43309e-07
-2.06442e-07
-1.77428e-07
-2.02533e-07
-1.12795e-07
-1.98629e-07
-4.94053e-08
-1.94739e-07
1.27479e-08
-1.90868e-07
7.36686e-08
-1.87021e-07
1.33365e-07
-1.83203e-07
1.91849e-07
-1.79415e-07
2.49135e-07
-1.75664e-07
3.05236e-07
-1.71954e-07
3.60166e-07
-1.68294e-07
4.1393e-07
-1.64688e-07
4.66543e-07
-1.61132e-07
5.18027e-07
-1.57627e-07
5.68399e-07
-1.54176e-07
6.17683e-07
-1.50783e-07
6.65908e-07
-1.47456e-07
7.13116e-07
-1.44208e-07
7.5929e-07
-1.41049e-07
8.04396e-07
-1.37946e-07
8.48484e-07
-1.34853e-07
8.91596e-07
-1.3178e-07
9.33756e-07
-1.28757e-07
9.74983e-07
-1.258e-07
1.0153e-06
-1.22915e-07
1.05471e-06
-1.20104e-07
1.09326e-06
-1.17368e-07
1.13094e-06
-1.14705e-07
1.1678e-06
-1.12115e-07
1.20385e-06
-1.09596e-07
1.23911e-06
-1.07147e-07
1.2736e-06
-1.04769e-07
1.30735e-06
-1.0246e-07
1.34038e-06
-1.0022e-07
1.37271e-06
-9.80495e-08
1.40437e-06
-9.59479e-08
1.43536e-06
-9.39152e-08
1.46573e-06
-9.19514e-08
1.49548e-06
-9.00566e-08
1.52464e-06
-8.82307e-08
1.55324e-06
-8.64737e-08
1.58129e-06
-8.47854e-08
1.60882e-06
-8.31655e-08
1.63585e-06
-8.16133e-08
1.66239e-06
-8.01276e-08
1.68848e-06
-7.87069e-08
1.71412e-06
-7.73483e-08
1.73935e-06
-7.60482e-08
1.76417e-06
-7.48007e-08
1.7886e-06
-7.35981e-08
1.81264e-06
-7.2429e-08
1.83632e-06
-7.12778e-08
1.85963e-06
-7.0123e-08
1.88255e-06
-6.89346e-08
1.90507e-06
-6.76713e-08
1.92716e-06
-6.62759e-08
1.94875e-06
-6.46681e-08
1.96975e-06
-6.27348e-08
1.99003e-06
-6.03133e-08
2.00939e-06
-5.71629e-08
2.02753e-06
-5.29203e-08
2.04404e-06
-4.69948e-08
2.0583e-06
-3.84467e-08
2.06954e-06
-2.55162e-08
2.07689e-06
-5.35958e-09
2.08079e-06
2.75115e-08
8.54816e-08
2.08334e-06
9.37371e-08
-6.17104e-07
6.23945e-08
-5.14959e-07
1.39118e-08
-3.69466e-07
-4.31786e-08
-2.36721e-07
-1.12675e-07
-1.09989e-07
-1.98046e-07
1.23911e-08
-3.02275e-07
1.30697e-07
-4.2778e-07
2.44574e-07
-5.77135e-07
3.53759e-07
-7.53724e-07
4.58364e-07
-9.62306e-07
5.58976e-07
-1.2072e-06
6.56882e-07
-1.48718e-06
7.5329e-07
-1.79147e-06
8.47283e-07
-2.10136e-06
9.3451e-07
-2.39721e-06
1.00856e-06
-2.66455e-06
1.06365e-06
-2.89511e-06
1.09653e-06
-3.08561e-06
1.10665e-06
-3.23687e-06
1.09569e-06
-3.35324e-06
1.0667e-06
-3.44128e-06
1.02315e-06
-3.5081e-06
9.68824e-07
-3.56022e-06
9.07521e-07
-3.60312e-06
8.42453e-07
-3.64123e-06
7.76252e-07
-3.67781e-06
7.11032e-07
-3.71487e-06
6.4834e-07
-3.75343e-06
5.89181e-07
-3.79376e-06
5.34073e-07
-3.83568e-06
4.83171e-07
-3.87868e-06
4.36396e-07
-3.92212e-06
3.93516e-07
-3.96533e-06
3.54209e-07
-4.00765e-06
3.18114e-07
-4.04848e-06
2.84859e-07
-4.08734e-06
2.54089e-07
-4.12379e-06
2.2547e-07
-4.15749e-06
1.98704e-07
-4.18818e-06
1.73527e-07
-4.21562e-06
1.49709e-07
-4.23964e-06
1.27053e-07
-4.26009e-06
1.05394e-07
-4.27685e-06
8.459e-08
-4.2898e-06
6.45211e-08
-4.29886e-06
4.50858e-08
-4.30395e-06
2.61981e-08
-4.30504e-06
7.78096e-09
-4.30208e-06
-1.02392e-08
-4.29512e-06
-2.79235e-08
-4.28421e-06
-4.53e-08
-4.26941e-06
-6.23655e-08
-4.25076e-06
-7.91072e-08
-4.22832e-06
-9.55126e-08
-4.20213e-06
-1.11568e-07
-4.17226e-06
-1.27259e-07
-4.13879e-06
-1.42571e-07
-4.10179e-06
-1.57486e-07
-4.06135e-06
-1.71986e-07
-4.01757e-06
-1.86055e-07
-3.97054e-06
-1.99673e-07
-3.92038e-06
-2.12822e-07
-3.8672e-06
-2.25482e-07
-3.81111e-06
-2.37638e-07
-3.75224e-06
-2.49279e-07
-3.6907e-06
-2.6039e-07
-3.62664e-06
-2.70957e-07
-3.56017e-06
-2.80971e-07
-3.49143e-06
-2.90424e-07
-3.42055e-06
-2.9931e-07
-3.34768e-06
-3.07625e-07
-3.27294e-06
-3.15368e-07
-3.19647e-06
-3.22539e-07
-3.11842e-06
-3.29139e-07
-3.03891e-06
-3.35173e-07
-2.95808e-06
-3.40647e-07
-2.87606e-06
-3.45568e-07
-2.79299e-06
-3.49944e-07
-2.70898e-06
-3.53788e-07
-2.62418e-06
-3.5711e-07
-2.5387e-06
-3.59924e-07
-2.45266e-06
-3.62245e-07
-2.36619e-06
-3.64089e-07
-2.27938e-06
-3.65473e-07
-2.19237e-06
-3.66413e-07
-2.10524e-06
-3.66926e-07
-2.01812e-06
-3.6703e-07
-1.9311e-06
-3.66742e-07
-1.84427e-06
-3.66083e-07
-1.75774e-06
-3.65067e-07
-1.67161e-06
-3.63708e-07
-1.58595e-06
-3.62015e-07
-1.50086e-06
-3.59996e-07
-1.41639e-06
-3.57654e-07
-1.33261e-06
-3.54989e-07
-1.24953e-06
-3.52013e-07
-1.16721e-06
-3.48744e-07
-1.08568e-06
-3.45214e-07
-1.00498e-06
-3.41458e-07
-9.25177e-07
-3.37507e-07
-8.46311e-07
-3.33383e-07
-7.6843e-07
-3.29106e-07
-6.91572e-07
-3.24691e-07
-6.1577e-07
-3.20152e-07
-5.41053e-07
-3.15503e-07
-4.67447e-07
-3.10756e-07
-3.94972e-07
-3.05923e-07
-3.23648e-07
-3.01016e-07
-2.53488e-07
-2.96045e-07
-1.84501e-07
-2.91023e-07
-1.16698e-07
-2.85962e-07
-5.00861e-08
-2.80873e-07
1.53287e-08
-2.75768e-07
7.95418e-08
-2.70655e-07
1.42552e-07
-2.65543e-07
2.04361e-07
-2.60439e-07