/*--------------------------------*- C++ -*----------------------------------*\
| =========                 |                                                 |
| \\      /  F ield         | OpenFOAM: The Open Source CFD Toolbox           |
|  \\    /   O peration     | Version:  v2012                                 |
|   \\  /    A nd           | Website:  www.openfoam.com                      |
|    \\/     M anipulation  |                                                 |
\*---------------------------------------------------------------------------*/
FoamFile
{
    version     2.0;
    format      ascii;
    class       volScalarField;
    location    "3500";
    object      nut;
}
// * * * * * * * * * * * * * * * * * * * * * * * * * * * * * * * * * * * * * //

dimensions      [0 2 -1 0 0 0 0];


internalField   nonuniform List<scalar> 
12225
(
0.0122671
0.00158819
0.000666128
0.000410104
0.000294041
0.000227801
0.000186474
0.000144222
0.000165654
0.000214921
0.000223275
0.00021336
0.000194468
0.000166661
0.000161215
0.000147401
0.000135396
0.000122736
0.0323823
0.00744532
0.00330638
0.00204329
0.00146802
0.00114429
0.000938707
0.000784712
0.000690142
0.000626822
0.00056977
0.000519036
0.000475698
0.000436212
0.000405544
0.000373272
0.000348658
0.000322386
0.0490123
0.01515
0.00728196
0.00457854
0.00330639
0.00258047
0.00211328
0.00178177
0.00154669
0.00137274
0.00123205
0.00111608
0.00101937
0.000937275
0.00086782
0.000805343
0.00075474
0.000701857
0.063054
0.0237783
0.0122894
0.00788815
0.00573397
0.00448497
0.0036744
0.00310414
0.00268721
0.00237024
0.00211841
0.00191383
0.00174483
0.00160314
0.00148338
0.00137952
0.0012919
0.00120507
0.074932
0.0328517
0.0181452
0.0119262
0.00874549
0.00686412
0.00563086
0.00476129
0.00411874
0.00362589
0.00323545
0.00291914
0.00265848
0.00244059
0.00225654
0.00209892
0.00196389
0.00184016
0.0849536
0.0420208
0.0246655
0.0166359
0.0123325
0.00972587
0.0079954
0.00676741
0.00585407
0.00515013
0.00459205
0.00414002
0.00376766
0.00345662
0.00319381
0.00296938
0.00277641
0.00260678
0.0933822
0.0510219
0.0316642
0.0219415
0.016474
0.0130717
0.0107779
0.0091354
0.007906
0.0069544
0.00619838
0.00558539
0.00508018
0.00465812
0.00430149
0.00399715
0.00373547
0.00350923
0.0993794
0.0583363
0.0378386
0.0268568
0.0204171
0.0163053
0.0134892
0.011453
0.00991906
0.00872672
0.00777698
0.00700571
0.00636946
0.00583766
0.0053882
0.00500473
0.00467521
0.00439187
0.104023
0.0645454
0.0433804
0.0314239
0.0241571
0.0194092
0.0161097
0.0137018
0.0118767
0.0104523
0.00931474
0.0083894
0.00762525
0.00698617
0.00644588
0.00598493
0.00558902
0.00524919
0.108368
0.0708939
0.0493757
0.0365497
0.0284517
0.0230231
0.0191863
0.0163548
0.0141927
0.0124969
0.0111382
0.0100306
0.00911457
0.00834785
0.00769938
0.00714609
0.006671
0.0062633
0.112368
0.0772557
0.0557282
0.0421918
0.0332976
0.0271652
0.0227468
0.0194433
0.0168984
0.0148904
0.013275
0.0119546
0.0108607
0.00994397
0.00916817
0.00850609
0.00793761
0.00744942
0.115994
0.0834975
0.0623054
0.0482612
0.0386474
0.0318167
0.026789
0.0229739
0.0200047
0.0176453
0.0157379
0.0141737
0.012875
0.0117851
0.010862
0.0100738
0.00939692
0.00881487
0.119234
0.0894856
0.0689377
0.0546109
0.0443919
0.0369007
0.0312597
0.0269089
0.0234837
0.02074
0.0185097
0.0166735
0.015145
0.0138601
0.0127706
0.0118397
0.0110399
0.010351
0.122086
0.095084
0.075415
0.0610223
0.0503361
0.0422535
0.0360231
0.0311353
0.0272402
0.0240931
0.0215191
0.0193909
0.0176141
0.0161175
0.0148467
0.0137602
0.0128258
0.0120198
0.124546
0.100135
0.0814619
0.0671726
0.056158
0.047577
0.0408126
0.0354174
0.031066
0.0275197
0.0246013
0.0221778
0.0201482
0.018435
0.0169783
0.0157315
0.0146584
0.0137312
0.126578
0.104396
0.0866605
0.0725515
0.0613228
0.0523526
0.0451453
0.0393148
0.0345631
0.0306611
0.0274325
0.024741
0.0224806
0.020569
0.0189413
0.0175468
0.0163455
0.0153062
0.128011
0.107322
0.0902141
0.0762353
0.0648743
0.0556509
0.0481493
0.0420254
0.0370012
0.0328553
0.0294126
0.0265352
0.0241143
0.0220643
0.0203171
0.0188191
0.0175275
0.0164083
0.128006
0.107313
0.0902048
0.0762269
0.0648674
0.0556454
0.048145
0.0420221
0.0369988
0.0328536
0.0294117
0.0265349
0.0241147
0.0220651
0.0203184
0.0188205
0.0175286
0.0164082
0.126509
0.104255
0.0864922
0.0723807
0.0611613
0.052205
0.0450127
0.0391967
0.0344584
0.0305685
0.0273506
0.0246684
0.0224163
0.0205118
0.0188902
0.0175005
0.0163023
0.015263
0.124267
0.0995604
0.0807712
0.0664676
0.0554886
0.0469631
0.0402594
0.0349227
0.0306248
0.0271258
0.0242487
0.0218611
0.0198625
0.0181762
0.0167425
0.0155151
0.0144574
0.0135404
0.12136
0.0936399
0.0737261
0.0593348
0.0487592
0.0408248
0.0347466
0.0300003
0.0262308
0.0231928
0.0207127
0.018665
0.0169571
0.0155197
0.0142998
0.0132566
0.0123582
0.0115797
0.117686
0.0865903
0.0656967
0.0514791
0.0415374
0.0343608
0.0290183
0.0249322
0.0217348
0.0191848
0.0171184
0.0154211
0.0140105
0.0128262
0.0118228
0.0109655
0.0102278
0.00958882
0.11305
0.0784122
0.056921
0.0432687
0.0342296
0.0279652
0.0234365
0.0200435
0.0174263
0.0153598
0.0136966
0.012337
0.0112107
0.010267
0.00946861
0.00878712
0.00820093
0.00769336
0.107169
0.0691009
0.0476371
0.035029
0.0271566
0.021922
0.0182437
0.0155401
0.0134818
0.0118707
0.0105818
0.00953227
0.00866512
0.00793983
0.00732681
0.00680385
0.00635414
0.00596492
0.0996761
0.0587036
0.0381279
0.0270699
0.0205782
0.0164329
0.0135949
0.0115437
0.00999934
0.0087995
0.00784417
0.00706847
0.00642878
0.0058943
0.00544291
0.00505786
0.00472678
0.00444036
0.0901097
0.0473665
0.0287363
0.0196847
0.0146976
0.0116311
0.0095785
0.00811521
0.00702351
0.00618076
0.00551228
0.00497016
0.00452349
0.00415017
0.00383529
0.0035662
0.00333498
0.00313497
0.0779076
0.0353826
0.0198606
0.0131383
0.00966106
0.00759295
0.00623349
0.00527412
0.00456427
0.00402033
0.00359045
0.00324082
0.00295259
0.00271048
0.00250743
0.00233201
0.00218205
0.00205199
0.06238
0.0232554
0.0119461
0.00765493
0.00556337
0.00435254
0.00356719
0.00301617
0.00261337
0.00231039
0.00207245
0.0018752
0.00171204
0.00157194
0.0014572
0.00135311
0.00126635
0.00118931
0.0426105
0.0117794
0.0054693
0.00341385
0.0024607
0.00192004
0.00157265
0.00132944
0.00115837
0.00104148
0.000950299
0.000865852
0.000794464
0.000729704
0.000673547
0.000622214
0.000578988
0.000539792
0.0168348
0.00255984
0.00110002
0.000683429
0.000493725
0.000386812
0.000318002
0.000268407
0.000267691
0.000337331
0.000375295
0.000354318
0.000320113
0.000288327
0.000256318
0.000232894
0.000208036
0.000195049
5.3288e-10
1.01034e-07
1.14446e-06
5.14535e-06
9.7926e-06
1.27172e-05
1.30924e-05
1.1114e-05
8.79012e-06
5.74393e-06
3.38497e-06
1.93229e-06
1.3588e-06
1.48728e-06
2.01225e-06
2.48955e-06
2.42532e-06
1.64227e-06
7.53748e-07
3.74474e-07
4.24753e-07
1.25191e-06
5.69269e-06
2.84868e-05
5.72193e-05
7.50516e-05
9.14249e-05
0.000105218
0.000117349
0.00012746
0.000136314
0.000143925
0.000150583
0.000156383
0.000161443
0.000165911
0.000169871
0.000173409
0.000176582
0.000179432
0.000181989
0.000184276
0.000186311
0.000188109
0.000189685
0.000191052
0.000192219
0.000193194
0.000193974
0.000194555
0.000194816
0.000195071
0.000195118
0.00019499
0.00019469
0.000194243
0.000193643
0.000192894
0.000191999
0.00019096
0.000189777
0.000188455
0.000186993
0.000185396
0.000183667
0.000181806
0.000179815
0.000177696
0.000175452
0.000173085
0.000170598
0.000167991
0.000165268
0.000162428
0.000159474
0.000156406
0.000153224
0.00014993
0.000146523
0.000143002
0.000139368
0.000135617
0.000131745
0.000127743
0.0001236
0.000119303
0.000114838
0.000110191
0.000105344
0.000100276
9.49599e-05
8.93719e-05
8.35054e-05
7.74291e-05
7.14236e-05
6.61654e-05
6.24412e-05
6.01199e-05
5.83732e-05
5.67685e-05
5.51925e-05
5.36242e-05
5.20621e-05
5.05078e-05
4.89633e-05
4.74306e-05
4.59122e-05
4.44146e-05
4.29664e-05
4.17344e-05
4.053e-05
3.93405e-05
3.81683e-05
3.70139e-05
3.58784e-05
3.47624e-05
3.36668e-05
3.25923e-05
3.15395e-05
3.05088e-05
2.95006e-05
2.85154e-05
2.75537e-05
2.66159e-05
2.57023e-05
2.48124e-05
2.39479e-05
2.31385e-05
2.24044e-05
2.16889e-05
2.09884e-05
2.03122e-05
1.9664e-05
1.9029e-05
1.84082e-05
1.78044e-05
1.72187e-05
1.66512e-05
1.61019e-05
1.557e-05
1.50555e-05
1.45576e-05
1.40761e-05
1.36106e-05
1.31607e-05
1.27258e-05
1.23058e-05
1.19002e-05
1.15086e-05
1.11305e-05
1.07658e-05
1.04139e-05
1.00745e-05
9.74738e-06
9.43218e-06
9.12858e-06
8.83636e-06
8.55523e-06
8.285e-06
8.02543e-06
7.77637e-06
7.5376e-06
7.309e-06
7.09034e-06
6.88145e-06
6.68205e-06
6.49185e-06
6.31039e-06
6.13712e-06
5.97135e-06
5.812e-06
5.65834e-06
5.50745e-06
5.36125e-06
5.20542e-06
5.06776e-06
4.85162e-06
4.72279e-06
4.30184e-06
3.68055e-06
3.41166e-09
5.97618e-06
6.14898e-05
0.000137795
0.000181824
0.000205916
0.000215444
0.000213955
0.000205506
0.000188701
0.000167843
0.000147819
0.000137825
0.0001434
0.000157306
0.000165834
0.000167983
0.000168878
0.00017431
0.000184173
0.000200056
0.000218158
0.000235151
0.000251187
0.000262472
0.00027226
0.000281103
0.000294314
0.000313187
0.000327089
0.000339756
0.000350639
0.000360538
0.00036959
0.000377462
0.000384652
0.000391351
0.000397781
0.000404072
0.000410287
0.000416422
0.000422434
0.000428269
0.000433887
0.000439261
0.000444372
0.000449208
0.000453754
0.000458012
0.00046199
0.000465694
0.000469149
0.000472341
0.000475281
0.000477971
0.000480411
0.000482603
0.000484547
0.000486244
0.000487693
0.000488896
0.000489854
0.000490569
0.000491045
0.000491292
0.000491316
0.000491111
0.000490673
0.000490019
0.000489152
0.000488079
0.000486806
0.000485339
0.000483685
0.000481852
0.000479847
0.000477677
0.00047535
0.000472873
0.000470256
0.000467505
0.000464629
0.000461636
0.000458532
0.000455325
0.000452023
0.000448633
0.000445165
0.000441626
0.000438026
0.000434371
0.000430666
0.000426913
0.000423101
0.000419212
0.00041522
0.000411109
0.000406907
0.000402666
0.000398409
0.000394144
0.000389875
0.000385605
0.000381338
0.000377077
0.000372825
0.000368585
0.00036436
0.00036015
0.000355951
0.000351776
0.000347629
0.00034351
0.000339423
0.000335369
0.000331349
0.000327366
0.00032342
0.000319513
0.000315646
0.00031182
0.000308036
0.000304295
0.000300598
0.000296946
0.000293338
0.000289775
0.000286254
0.000282776
0.000279343
0.000275953
0.000272616
0.000269331
0.000266081
0.000262867
0.000259695
0.000256566
0.000253483
0.000250444
0.00024745
0.0002445
0.000241593
0.00023873
0.000235908
0.000233128
0.00023039
0.000227692
0.000225035
0.000222418
0.00021984
0.000217302
0.000214802
0.00021234
0.000209917
0.000207532
0.000205187
0.00020288
0.000200613
0.000198387
0.000196203
0.000194063
0.000191966
0.000189917
0.000187916
0.000185965
0.000184066
0.00018222
0.000180428
0.000178687
0.000176998
0.000175355
0.000173758
0.000172182
0.000170677
0.000169055
0.000167776
0.000165565
0.000165102
0.000161956
0.000160583
7.67597e-08
3.99401e-05
0.000162933
0.000245611
0.00029886
0.000329046
0.000339933
0.000336926
0.000323951
0.000304646
0.000285007
0.000272688
0.00027079
0.000277798
0.000288349
0.000299386
0.000312419
0.000329538
0.000351132
0.000376435
0.000403819
0.000432012
0.000471411
0.000517579
0.000563167
0.000607238
0.000650291
0.000693935
0.000732972
0.000764026
0.000788845
0.000808527
0.000824134
0.000836523
0.000846473
0.000854755
0.000862067
0.000869048
0.000876231
0.000883967
0.00089236
0.000901284
0.0009105
0.000919773
0.000928925
0.000937839
0.000946438
0.000954675
0.000962513
0.000969925
0.000976883
0.000983368
0.000989369
0.000994881
0.000999903
0.00100443
0.00100847
0.00101202
0.00101507
0.00101763
0.0010197
0.00102127
0.00102235
0.0010229
0.00102305
0.00102277
0.00102197
0.00102073
0.00101904
0.00101692
0.00101438
0.00101143
0.00100809
0.00100437
0.00100029
0.000995859
0.00099109
0.000986
0.000980605
0.000974919
0.000968957
0.000962736
0.00095627
0.000949573
0.000942662
0.000935549
0.000928251
0.000920781
0.000913153
0.000905381
0.000897477
0.000889452
0.000881315
0.000873075
0.000864739
0.000856318
0.000847824
0.000839272
0.000830679
0.000822059
0.000813422
0.000804777
0.000796132
0.000787494
0.000778871
0.000770269
0.000761696
0.000753157
0.000744658
0.000736203
0.0007278
0.000719453
0.000711167
0.000702946
0.000694793
0.000686713
0.000678707
0.000670779
0.000662931
0.000655167
0.000647487
0.000639893
0.000632388
0.000624974
0.000617651
0.00061042
0.000603282
0.000596236
0.000589284
0.000582426
0.000575663
0.000568996
0.000562422
0.000555934
0.000549533
0.00054322
0.000536999
0.000530869
0.00052483
0.000518881
0.000513023
0.000507254
0.000501572
0.000495977
0.000490469
0.000485045
0.000479705
0.000474447
0.000469271
0.000464175
0.000459158
0.000454219
0.000449357
0.00044457
0.000439858
0.000435219
0.000430653
0.000426157
0.000421732
0.000417376
0.000413087
0.000408864
0.000404705
0.000400608
0.00039657
0.000392588
0.000388658
0.000384775
0.000380932
0.000377121
0.000373328
0.000369542
0.000365731
0.000361895
0.000357913
0.00035393
0.000349358
0.000345134
0.00033851
0.000326874
6.14165e-07
8.21439e-05
0.000212947
0.000308786
0.000372233
0.000409324
0.000424623
0.000424858
0.000414793
0.000401509
0.00039372
0.000393177
0.000402787
0.000420277
0.000443258
0.000471228
0.000504768
0.000544155
0.000588566
0.000652452
0.000726574
0.000806553
0.000890397
0.000960626
0.00102277
0.00107865
0.00112884
0.00117354
0.0012126
0.00124632
0.00127542
0.00130065
0.00132269
0.00134217
0.00135967
0.00137566
0.00139057
0.00140472
0.00141838
0.00143173
0.00144489
0.00145794
0.0014709
0.00148375
0.00149645
0.0015089
0.00152103
0.00153273
0.00154392
0.00155451
0.00156446
0.00157373
0.0015823
0.00159016
0.00159729
0.0016037
0.00160937
0.0016143
0.0016185
0.00162196
0.00162468
0.00162665
0.00162781
0.00162824
0.00162811
0.0016272
0.00162557
0.00162325
0.00162025
0.00161659
0.00161229
0.00160737
0.00160184
0.00159574
0.00158908
0.00158188
0.00157417
0.00156597
0.00155731
0.00154819
0.00153866
0.00152873
0.00151843
0.00150777
0.00149678
0.00148549
0.00147391
0.00146207
0.00144999
0.00143769
0.00142519
0.00141251
0.00139966
0.00138666
0.00137352
0.00136027
0.00134692
0.00133349
0.00132
0.00130646
0.0012929
0.00127933
0.00126576
0.0012522
0.00123866
0.00122516
0.0012117
0.0011983
0.00118496
0.0011717
0.00115851
0.00114541
0.0011324
0.0011195
0.0011067
0.00109402
0.00108145
0.001069
0.00105668
0.00104448
0.00103242
0.00102049
0.0010087
0.00099705
0.00098554
0.000974173
0.000962948
0.000951869
0.000940934
0.000930146
0.000919505
0.00090901
0.000898657
0.000888444
0.000878368
0.000868432
0.000858637
0.000848982
0.000839468
0.000830094
0.000820858
0.00081176
0.000802798
0.000793971
0.000785276
0.000776712
0.000768278
0.000759971
0.000751791
0.000743734
0.000735799
0.000727985
0.000720288
0.000712709
0.000705244
0.000697892
0.000690651
0.000683519
0.000676494
0.000669574
0.000662757
0.00065604
0.00064942
0.000642893
0.000636456
0.000630104
0.00062383
0.000617628
0.000611486
0.000605394
0.000599334
0.000593286
0.000587219
0.0005811
0.00057485
0.000568458
0.000561615
0.000554625
0.000546116
0.000529915
1.40155e-06
0.000101862
0.000234925
0.000354643
0.000433264
0.000480489
0.000503939
0.000512369
0.000514031
0.000515289
0.000522568
0.000539156
0.000565631
0.000601007
0.000644521
0.000696215
0.000756906
0.000840828
0.00093693
0.00103265
0.0011214
0.00120554
0.0012846
0.00135702
0.00142354
0.00148474
0.00154101
0.00159269
0.00164014
0.00168378
0.0017241
0.00176158
0.00179664
0.00182966
0.00186095
0.00189076
0.00191928
0.00194664
0.00197295
0.00199826
0.00202261
0.00204601
0.00206844
0.0020899
0.00211036
0.00212978
0.00214815
0.00216542
0.00218157
0.00219659
0.00221046
0.00222318
0.00223477
0.00224524
0.00225461
0.00226289
0.0022701
0.00227627
0.00228139
0.00228549
0.00228858
0.00229063
0.00229154
0.00229163
0.00229075
0.00228887
0.00228603
0.00228226
0.00227757
0.00227198
0.00226553
0.00225824
0.00225014
0.00224126
0.00223162
0.00222127
0.00221022
0.00219851
0.00218618
0.00217324
0.00215974
0.00214571
0.00213117
0.00211616
0.0021007
0.00208484
0.00206859
0.00205199
0.00203507
0.00201785
0.00200036
0.00198264
0.00196469
0.00194655
0.00192824
0.00190979
0.0018912
0.00187252
0.00185377
0.00183495
0.00181611
0.00179725
0.00177839
0.00175956
0.00174076
0.00172201
0.00170332
0.00168471
0.00166619
0.00164777
0.00162946
0.00161127
0.00159322
0.0015753
0.00155753
0.00153992
0.00152246
0.00150517
0.00148806
0.00147112
0.00145436
0.00143778
0.00142139
0.0014052
0.0013892
0.00137339
0.00135778
0.00134237
0.00132715
0.00131214
0.00129732
0.0012827
0.00126828
0.00125406
0.00124002
0.00122618
0.00121253
0.00119907
0.0011858
0.00117272
0.00115983
0.00114713
0.00113461
0.00112228
0.00111013
0.00109815
0.00108636
0.00107473
0.00106328
0.00105199
0.00104087
0.00102992
0.00101912
0.00100848
0.000998002
0.000987673
0.000977494
0.000967462
0.000957575
0.00094783
0.000938224
0.000928753
0.000919412
0.000910199
0.000901107
0.000892131
0.000883263
0.000874493
0.000865811
0.000857201
0.000848644
0.000840115
0.000831581
0.000822998
0.000814294
0.000805414
0.000796144
0.000786534
0.000776337
0.000756589
2.32428e-06
0.000118211
0.000256238
0.000389841
0.00048666
0.000548373
0.000586142
0.000609656
0.00062762
0.000647285
0.000673849
0.0007099
0.000756141
0.000812847
0.000880576
0.000971518
0.00107694
0.00117858
0.00127766
0.00137291
0.00146337
0.00154913
0.00163014
0.00170638
0.00177815
0.00184579
0.00190964
0.00197005
0.00202734
0.00208184
0.00213386
0.00218371
0.00223163
0.00227781
0.00232243
0.0023656
0.00240741
0.00244792
0.00248714
0.00252511
0.0025618
0.0025972
0.00263127
0.00266399
0.00269532
0.00272522
0.00275364
0.00278054
0.00280589
0.00282965
0.00285181
0.00287232
0.00289119
0.00290839
0.00292393
0.00293779
0.00294999
0.00296053
0.00296942
0.00297668
0.00298234
0.00298642
0.00298884
0.00298974
0.00298927
0.0029873
0.00298396
0.00297925
0.00297325
0.00296599
0.00295754
0.00294794
0.00293726
0.00292553
0.0029128
0.00289913
0.00288457
0.00286915
0.00285292
0.00283592
0.00281821
0.00279981
0.00278077
0.00276114
0.00274094
0.00272023
0.00269904
0.00267741
0.00265538
0.00263297
0.00261024
0.00258721
0.00256391
0.00254038
0.00251664
0.00249273
0.00246868
0.0024445
0.00242024
0.00239592
0.00237156
0.00234718
0.00232282
0.00229849
0.0022742
0.00224999
0.00222586
0.00220183
0.00217792
0.00215414
0.0021305
0.00210702
0.00208371
0.00206058
0.00203764
0.0020149
0.00199236
0.00197003
0.00194793
0.00192605
0.0019044
0.00188299
0.00186182
0.00184089
0.0018202
0.00179977
0.00177958
0.00175965
0.00173996
0.00172053
0.00170136
0.00168243
0.00166376
0.00164533
0.00162714
0.0016092
0.00159151
0.00157406
0.00155685
0.00153988
0.00152315
0.00150665
0.00149039
0.00147436
0.00145856
0.00144298
0.00142763
0.00141249
0.00139757
0.00138286
0.00136836
0.00135407
0.00133997
0.00132608
0.00131238
0.00129888
0.00128556
0.00127243
0.00125948
0.00124671
0.00123411
0.00122168
0.00120942
0.00119732
0.00118538
0.00117358
0.00116192
0.00115039
0.00113897
0.00112765
0.00111642
0.00110523
0.00109406
0.00108285
0.00107155
0.00106008
0.00104826
0.00103611
0.00102381
0.00100137
2.79362e-06
0.000126769
0.000269138
0.000407423
0.000526006
0.000607414
0.000663605
0.000705736
0.000743051
0.000782788
0.000829963
0.000887479
0.000957072
0.00104985
0.00115715
0.00126378
0.00136985
0.00147309
0.00157299
0.00166915
0.00176134
0.00184958
0.00193396
0.00201464
0.00209186
0.00216591
0.00223705
0.00230556
0.00237168
0.00243566
0.0024977
0.00255798
0.00261664
0.00267381
0.00272957
0.00278397
0.00283704
0.0028888
0.00293925
0.00298835
0.0030361
0.00308244
0.00312732
0.00317072
0.00321256
0.0032528
0.00329138
0.00332825
0.00336337
0.00339668
0.00342814
0.00345772
0.00348537
0.00351107
0.00353479
0.00355651
0.00357622
0.0035939
0.00360955
0.00362318
0.00363477
0.00364435
0.00365193
0.00365755
0.0036612
0.00366282
0.00366273
0.00366074
0.00365697
0.00365145
0.00364424
0.0036354
0.00362498
0.00361305
0.00359966
0.00358489
0.0035688
0.00355145
0.00353292
0.00351327
0.00349256
0.00347087
0.00344827
0.0034248
0.00340055
0.00337557
0.00334992
0.00332367
0.00329686
0.00326955
0.0032418
0.00321364
0.00318513
0.00315632
0.00312723
0.00309792
0.00306842
0.00303877
0.00300901
0.00297916
0.00294926
0.00291934
0.00288942
0.00285954
0.00282972
0.00279998
0.00277034
0.00274082
0.00271145
0.00268223
0.00265319
0.00262434
0.00259569
0.00256726
0.00253906
0.0025111
0.00248338
0.00245593
0.00242874
0.00240182
0.00237518
0.00234883
0.00232276
0.00229699
0.00227151
0.00224634
0.00222146
0.00219689
0.00217262
0.00214866
0.002125
0.00210164
0.00207859
0.00205583
0.00203337
0.0020112
0.00198933
0.00196775
0.00194647
0.00192547
0.00190476
0.00188433
0.00186418
0.00184431
0.00182471
0.00180539
0.00178633
0.00176753
0.00174899
0.00173071
0.00171267
0.00169489
0.00167734
0.00166004
0.00164297
0.00162613
0.00160952
0.00159313
0.00157697
0.00156101
0.00154527
0.00152973
0.0015144
0.00149925
0.0014843
0.00146953
0.00145493
0.00144049
0.00142619
0.00141202
0.00139796
0.00138398
0.00137004
0.00135609
0.00134207
0.00132791
0.00131343
0.0012987
0.00128364
0.00125941
2.93807e-06
0.000128644
0.000270455
0.000406922
0.000537506
0.000641091
0.000718414
0.000780028
0.000836115
0.000894389
0.000962889
0.00105555
0.00116575
0.00128726
0.00140276
0.00151395
0.00162168
0.00172612
0.00182722
0.00192492
0.00201925
0.00211029
0.00219819
0.00228313
0.00236534
0.00244505
0.00252247
0.00259782
0.00267128
0.00274303
0.00281321
0.00288194
0.0029493
0.00301537
0.00308018
0.00314374
0.00320607
0.00326714
0.00332693
0.0033854
0.00344249
0.00349816
0.00355234
0.00360497
0.00365598
0.00370532
0.00375291
0.00379869
0.0038426
0.00388458
0.00392458
0.00396254
0.00399842
0.00403218
0.00406377
0.00409316
0.00412034
0.00414527
0.00416794
0.00418834
0.00420647
0.00422232
0.0042359
0.00424723
0.00425631
0.00426318
0.00426791
0.00427036
0.00427079
0.00426915
0.00426548
0.00425983
0.00425227
0.00424284
0.00423161
0.00421863
0.00420398
0.00418773
0.00416993
0.00415066
0.00412999
0.004108
0.00408475
0.00406032
0.00403478
0.0040082
0.00398066
0.00395221
0.00392294
0.00389291
0.00386218
0.00383082
0.00379889
0.00376644
0.00373354
0.00370025
0.0036666
0.00363267
0.00359849
0.00356412
0.00352959
0.00349496
0.00346026
0.00342552
0.00339079
0.00335609
0.00332147
0.00328693
0.00325252
0.00321825
0.00318416
0.00315025
0.00311655
0.00308307
0.00304984
0.00301687
0.00298416
0.00295174
0.00291961
0.00288779
0.00285627
0.00282508
0.00279421
0.00276367
0.00273346
0.0027036
0.00267408
0.0026449
0.00261607
0.00258759
0.00255945
0.00253166
0.00250422
0.00247712
0.00245037
0.00242395
0.00239788
0.00237214
0.00234674
0.00232167
0.00229693
0.00227251
0.00224843
0.00222466
0.00220121
0.00217807
0.00215524
0.00213272
0.0021105
0.00208857
0.00206693
0.00204558
0.00202452
0.00200373
0.00198321
0.00196297
0.00194299
0.00192327
0.00190381
0.0018846
0.00186564
0.00184692
0.00182843
0.00181018
0.00179215
0.00177433
0.00175671
0.00173929
0.00172205
0.00170496
0.00168801
0.00167117
0.00165439
0.00163764
0.00162083
0.0016039
0.00158671
0.00156932
0.00155137
0.00152523
2.75384e-06
0.000125134
0.000263757
0.000395268
0.000519777
0.000632035
0.000725976
0.000807497
0.000891495
0.00098747
0.00109733
0.00122248
0.00135897
0.00148637
0.00160657
0.00172149
0.00183209
0.00193874
0.00204175
0.00214149
0.00223817
0.002332
0.00242318
0.00251191
0.00259841
0.00268288
0.0027655
0.00284645
0.00292588
0.00300393
0.00308069
0.00315625
0.00323066
0.00330396
0.00337615
0.00344724
0.00351719
0.00358598
0.00365354
0.00371984
0.0037848
0.00384834
0.0039104
0.0039709
0.00402976
0.00408691
0.00414226
0.00419574
0.00424727
0.0042968
0.00434425
0.00438955
0.00443267
0.00447354
0.00451211
0.00454836
0.00458223
0.00461371
0.00464277
0.0046694
0.00469358
0.0047153
0.00473458
0.00475141
0.00476581
0.00477781
0.00478741
0.00479464
0.00479958
0.00480214
0.00480253
0.00480072
0.00479675
0.00479069
0.00478259
0.0047725
0.0047605
0.00474665
0.00473101
0.00471365
0.00469464
0.00467406
0.00465196
0.00462844
0.00460355
0.00457738
0.00455
0.00452147
0.00449187
0.00446128
0.00442976
0.00439737
0.00436419
0.00433029
0.00429572
0.00426056
0.00422485
0.00418866
0.00415206
0.00411509
0.0040778
0.00404026
0.00400251
0.00396459
0.00392655
0.00388844
0.00385028
0.00381212
0.003774
0.00373594
0.00369798
0.00366014
0.00362245
0.00358495
0.00354764
0.00351055
0.0034737
0.00343711
0.0034008
0.00336477
0.00332905
0.00329364
0.00325855
0.00322379
0.00318938
0.00315532
0.00312161
0.00308826
0.00305527
0.00302265
0.0029904
0.00295852
0.00292702
0.00289588
0.00286511
0.00283471
0.00280468
0.00277502
0.00274573
0.0027168
0.00268823
0.00266002
0.00263217
0.00260468
0.00257753
0.00255073
0.00252428
0.00249816
0.00247238
0.00244693
0.00242181
0.00239701
0.00237252
0.00234835
0.00232449
0.00230093
0.00227767
0.0022547
0.00223203
0.00220964
0.00218753
0.0021657
0.00214414
0.00212283
0.00210179
0.00208099
0.00206042
0.00204008
0.00201994
0.002
0.00198021
0.00196056
0.00194099
0.00192147
0.00190192
0.00188227
0.00186239
0.00184233
0.00182158
0.00179326
2.33768e-06
0.000117842
0.000252593
0.000380591
0.000503455
0.000619955
0.000730954
0.000840468
0.000955907
0.00108231
0.00122082
0.0013709
0.00151309
0.00164496
0.00176911
0.00188744
0.00200105
0.00211058
0.00221643
0.00231879
0.00241808
0.00251466
0.00260885
0.00270089
0.00279103
0.00287945
0.00296635
0.00305188
0.00313617
0.00321933
0.00330145
0.00338258
0.00346277
0.00354201
0.0036203
0.00369762
0.00377393
0.00384916
0.00392327
0.00399617
0.00406779
0.00413803
0.00420682
0.00427405
0.00433964
0.0044035
0.00446554
0.00452567
0.00458381
0.00463988
0.0046938
0.00474552
0.00479495
0.00484204
0.00488674
0.00492901
0.00496879
0.00500606
0.0050408
0.00507297
0.00510256
0.00512957
0.00515399
0.00517583
0.00519509
0.00521179
0.00522596
0.00523761
0.00524679
0.00525351
0.00525783
0.00525977
0.00525943
0.00525682
0.005252
0.00524504
0.00523599
0.00522491
0.00521187
0.00519693
0.00518017
0.00516165
0.00514145
0.00511963
0.00509627
0.00507145
0.00504523
0.00501768
0.00498889
0.00495891
0.00492783
0.00489571
0.00486261
0.00482862
0.00479379
0.00475819
0.00472188
0.00468493
0.0046474
0.00460935
0.00457084
0.00453191
0.00449264
0.00445306
0.00441322
0.00437318
0.00433298
0.00429266
0.00425226
0.00421182
0.00417138
0.00413098
0.00409063
0.00405038
0.00401026
0.00397028
0.00393048
0.00389087
0.00385149
0.00381234
0.00377345
0.00373483
0.0036965
0.00365848
0.00362076
0.00358337
0.00354632
0.00350961
0.00347325
0.00343724
0.0034016
0.00336632
0.00333141
0.00329688
0.00326272
0.00322893
0.00319552
0.00316249
0.00312983
0.00309755
0.00306564
0.00303411
0.00300296
0.00297217
0.00294175
0.0029117
0.00288201
0.00285268
0.00282371
0.00279509
0.00276682
0.00273889
0.00271131
0.00268406
0.00265714
0.00263056
0.0026043
0.00257836
0.00255273
0.00252742
0.00250241
0.00247771
0.0024533
0.00242918
0.00240534
0.00238177
0.00235847
0.00233541
0.00231259
0.00228997
0.00226755
0.00224527
0.00222311
0.00220101
0.00217889
0.0021567
0.00213431
0.00211173
0.00208843
0.00205777
1.92342e-06
0.000110188
0.000242367
0.00036965
0.000495377
0.00061988
0.000745082
0.000874846
0.00101263
0.00116037
0.00131823
0.00147984
0.00162746
0.00176377
0.00189176
0.00201341
0.00213
0.00224233
0.00235096
0.00245627
0.00255855
0.002658
0.00275507
0.0028501
0.00294339
0.00303518
0.00312565
0.00321497
0.00330328
0.00339067
0.00347722
0.00356297
0.00364794
0.00373214
0.00381554
0.0038981
0.00397976
0.00406047
0.00414013
0.00421866
0.00429597
0.00437195
0.00444652
0.00451955
0.00459096
0.00466063
0.00472847
0.00479438
0.00485827
0.00492005
0.00497964
0.00503696
0.00509193
0.00514449
0.00519459
0.00524217
0.00528718
0.00532959
0.00536937
0.00540648
0.00544092
0.00547267
0.00550172
0.00552808
0.00555175
0.00557276
0.00559111
0.00560683
0.00561996
0.00563051
0.00563854
0.00564409
0.0056472
0.00564792
0.00564632
0.00564244
0.00563635
0.00562811
0.00561777
0.00560541
0.00559108
0.00557487
0.00555684
0.00553706
0.00551561
0.00549255
0.00546796
0.00544191
0.00541448
0.00538573
0.00535574
0.00532457
0.00529229
0.00525898
0.0052247
0.00518951
0.00515348
0.00511668
0.00507917
0.005041
0.00500225
0.00496296
0.0049232
0.00488301
0.00484245
0.00480157
0.00476041
0.00471903
0.00467746
0.00463575
0.00459394
0.00455207
0.00451016
0.00446827
0.00442641
0.00438463
0.00434294
0.00430137
0.00425996
0.00421872
0.00417767
0.00413685
0.00409625
0.00405591
0.00401583
0.00397604
0.00393654
0.00389735
0.00385847
0.00381992
0.00378171
0.00374383
0.00370631
0.00366913
0.00363232
0.00359587
0.00355978
0.00352405
0.0034887
0.00345372
0.0034191
0.00338486
0.003351
0.0033175
0.00328437
0.00325162
0.00321923
0.0031872
0.00315554
0.00312424
0.0030933
0.00306271
0.00303248
0.00300259
0.00297305
0.00294385
0.00291499
0.00288647
0.00285828
0.00283042
0.00280288
0.00277565
0.00274875
0.00272215
0.00269584
0.00266983
0.00264411
0.00261864
0.00259343
0.00256845
0.00254368
0.00251907
0.0024946
0.0024702
0.00244582
0.00242137
0.00239676
0.00237196
0.00234646
0.00231364
1.53322e-06
0.000102041
0.000231914
0.000358881
0.000487584
0.000618968
0.000755692
0.000899674
0.00105258
0.00121493
0.00138722
0.00155299
0.00170459
0.00184476
0.00197624
0.00210102
0.00222041
0.00233536
0.00244653
0.00255442
0.00265939
0.00276177
0.00286182
0.00295974
0.00305594
0.00315071
0.0032443
0.00333689
0.00342863
0.00351961
0.00360992
0.00369959
0.00378863
0.00387705
0.0039648
0.00405184
0.00413809
0.00422348
0.00430792
0.0043913
0.00447352
0.00455447
0.00463404
0.00471211
0.00478856
0.00486329
0.00493619
0.00500715
0.00507606
0.00514284
0.0052074
0.00526964
0.00532949
0.00538688
0.00544174
0.00549403
0.00554368
0.00559067
0.00563494
0.00567648
0.00571527
0.00575128
0.00578452
0.00581499
0.00584268
0.00586762
0.00588982
0.0059093
0.00592609
0.00594023
0.00595174
0.00596068
0.00596709
0.00597102
0.00597251
0.00597164
0.00596848
0.00596305
0.00595543
0.00594568
0.00593387
0.00592007
0.00590435
0.00588678
0.00586743
0.00584638
0.00582368
0.00579943
0.00577369
0.00574652
0.005718
0.0056882
0.00565719
0.00562504
0.00559181
0.00555756
0.00552237
0.0054863
0.00544942
0.00541178
0.00537344
0.00533447
0.00529492
0.00525484
0.0052143
0.00517333
0.00513199
0.00509033
0.00504839
0.00500621
0.00496385
0.00492133
0.0048787
0.004836
0.00479325