/*--------------------------------*- C++ -*----------------------------------*\
  =========                 |
  \\      /  F ield         | OpenFOAM: The Open Source CFD Toolbox
   \\    /   O peration     | Website:  https://openfoam.org
    \\  /    A nd           | Version:  8
     \\/     M anipulation  |
\*---------------------------------------------------------------------------*/
FoamFile
{
    version     2.0;
    format      ascii;
    class       volScalarField;
    location    "3500";
    object      nuTilda;
}
// * * * * * * * * * * * * * * * * * * * * * * * * * * * * * * * * * * * * * //

dimensions      [0 2 -1 0 0 0 0];

internalField   nonuniform List<scalar> 
12225
(
0.0122671
0.00158833
0.000666932
0.000412201
0.000298001
0.000234418
0.000192049
0.000186517
0.000141364
0.000110263
9.73199e-05
9.07189e-05
8.20027e-05
7.63417e-05
7.17067e-05
7.0172e-05
6.81326e-05
7.40044e-05
0.0323823
0.00744533
0.00330642
0.00204338
0.00146818
0.00114477
0.000936743
0.000800566
0.000680243
0.000578059
0.000507246
0.00045356
0.000411866
0.000380371
0.00035202
0.000329993
0.000313754
0.00029588
0.0490123
0.01515
0.00728196
0.00457856
0.00330642
0.00258059
0.00211241
0.00178924
0.00154196
0.00134781
0.00119795
0.00107898
0.000982388
0.000902873
0.000836437
0.000781445
0.000736159
0.000687884
0.063054
0.0237783
0.0122894
0.00788815
0.00573398
0.004485
0.00367415
0.00310736
0.00268476
0.00235811
0.00210119
0.00189468
0.00172542
0.00158464
0.0014663
0.00136623
0.00128167
0.00119814
0.074932
0.0328517
0.0181452
0.0119262
0.00874549
0.00686413
0.00563081
0.00476256
0.0041175
0.00362032
0.00322735
0.00290996
0.00264904
0.00243149
0.00224806
0.00209196
0.00195835
0.00183637
0.0849536
0.0420208
0.0246655
0.0166359
0.0123325
0.00972587
0.0079954
0.00676785
0.00585346
0.00514771
0.00458846
0.00413589
0.00376337
0.00345242
0.00318986
0.002966
0.00277364
0.00260477
0.0933822
0.0510219
0.0316642
0.0219415
0.016474
0.0130717
0.0107779
0.00913552
0.00790571
0.00695341
0.00619691
0.00558368
0.00507838
0.00465634
0.00429978
0.00399563
0.00373417
0.00350821
0.0993794
0.0583363
0.0378386
0.0268568
0.0204171
0.0163053
0.0134892
0.011453
0.00991891
0.00872629
0.00777635
0.00700498
0.00636867
0.00583686
0.00538741
0.00500399
0.00467453
0.00439128
0.104023
0.0645454
0.0433804
0.0314239
0.0241571
0.0194092
0.0161097
0.0137018
0.0118766
0.0104521
0.00931443
0.00838904
0.00762486
0.00698575
0.00644545
0.0059845
0.00558859
0.00524878
0.108368
0.0708939
0.0493756
0.0365496
0.0284517
0.0230231
0.0191863
0.0163547
0.0141926
0.0124968
0.011138
0.0100304
0.00911434
0.0083476
0.0076991
0.00714579
0.00667069
0.00626298
0.112368
0.0772557
0.0557282
0.0421918
0.0332976
0.0271652
0.0227467
0.0194432
0.0168984
0.0148903
0.0132749
0.0119544
0.0108605
0.00994379
0.00916797
0.00850586
0.00793736
0.00744915
0.115994
0.0834975
0.0623053
0.0482611
0.0386474
0.0318167
0.026789
0.0229739
0.0200046
0.0176452
0.0157378
0.0141736
0.0128749
0.011785
0.0108618
0.0100736
0.00939671
0.00881464
0.119234
0.0894856
0.0689377
0.0546109
0.0443919
0.0369007
0.0312597
0.0269088
0.0234836
0.02074
0.0185096
0.0166735
0.0151449
0.01386
0.0127704
0.0118396
0.0110397
0.0103508
0.122086
0.095084
0.075415
0.0610223
0.0503361
0.0422534
0.0360231
0.0311353
0.0272402
0.024093
0.021519
0.0193909
0.017614
0.0161174
0.0148466
0.01376
0.0128257
0.0120196
0.124546
0.100135
0.0814619
0.0671725
0.056158
0.047577
0.0408126
0.0354174
0.031066
0.0275196
0.0246012
0.0221777
0.0201481
0.0184349
0.0169782
0.0157314
0.0146583
0.0137311
0.126578
0.104396
0.0866605
0.0725515
0.0613228
0.0523526
0.0451453
0.0393148
0.0345631
0.0306611
0.0274325
0.0247409
0.0224806
0.020569
0.0189413
0.0175468
0.0163454
0.0153061
0.128011
0.107322
0.0902141
0.0762353
0.0648743
0.0556509
0.0481493
0.0420254
0.0370012
0.0328553
0.0294126
0.0265352
0.0241143
0.0220643
0.0203172
0.0188191
0.0175275
0.0164083
0.128006
0.107313
0.0902048
0.0762269
0.0648674
0.0556454
0.048145
0.0420222
0.0369988
0.0328537
0.0294117
0.0265349
0.0241147
0.0220652
0.0203185
0.0188206
0.0175287
0.0164083
0.126509
0.104255
0.0864922
0.0723807
0.0611613
0.052205
0.0450128
0.0391967
0.0344584
0.0305686
0.0273506
0.0246684
0.0224163
0.0205118
0.0188903
0.0175006
0.0163024
0.0152631
0.124267
0.0995604
0.0807712
0.0664676
0.0554886
0.0469631
0.0402594
0.0349228
0.0306248
0.0271258
0.0242488
0.0218611
0.0198626
0.0181762
0.0167426
0.0155152
0.0144575
0.0135405
0.12136
0.0936399
0.0737261
0.0593348
0.0487592
0.0408249
0.0347467
0.0300003
0.0262308
0.0231928
0.0207127
0.018665
0.0169572
0.0155198
0.0142999
0.0132567
0.0123583
0.0115798
0.117686
0.0865903
0.0656967
0.0514791
0.0415374
0.0343608
0.0290184
0.0249322
0.0217348
0.0191848
0.0171184
0.0154211
0.0140106
0.0128263
0.0118229
0.0109657
0.010228
0.00958895
0.11305
0.0784122
0.056921
0.0432687
0.0342296
0.0279652
0.0234365
0.0200435
0.0174263
0.0153597
0.0136966
0.0123369
0.0112106
0.0102671
0.00946866
0.0087872
0.00820102
0.00769347
0.107169
0.0691009
0.0476372
0.035029
0.0271566
0.021922
0.0182437
0.0155401
0.0134817
0.0118706
0.0105816
0.00953197
0.00866487
0.00793966
0.0073267
0.00680379
0.00635414
0.00596496
0.0996761
0.0587036
0.0381279
0.0270699
0.0205782
0.016433
0.0135949
0.0115438
0.00999923
0.00879908
0.00784341
0.00706756
0.00642791
0.00589358
0.00544231
0.00505736
0.00472645
0.0044401
0.0901097
0.0473665
0.0287363
0.0196847
0.0146976
0.0116312
0.00957853
0.00811528
0.00702332
0.00617995
0.00551058
0.00496795
0.00452115
0.00414815
0.00383332
0.00356448
0.0033337
0.00313371
0.0779076
0.0353826
0.0198606
0.0131383
0.00966107
0.00759298
0.00623353
0.00527431
0.00456401
0.00401885
0.00358699
0.00323614
0.00294721
0.00270597
0.00250239
0.00232754
0.00217877
0.00204825
0.06238
0.0232554
0.0119461
0.00765494
0.00556339
0.00435258
0.00356727
0.00301643
0.00261312
0.00230801
0.00206664
0.0018673
0.00170231
0.00156432
0.00144787
0.00134461
0.00126103
0.00118245
0.0426105
0.0117794
0.00546931
0.00341388
0.00246077
0.00192015
0.0015729
0.00132906
0.00115969
0.00103887
0.000944521
0.000858346
0.000785386
0.000722451
0.000668852
0.000613504
0.000582446
0.000537976
0.0168348
0.0025599
0.00110031
0.000684192
0.000495179
0.000389152
0.00032166
0.000270756
0.000280876
0.000338929
0.000384933
0.000372982
0.000345878
0.000310425
0.000291627
0.000232231
0.000304403
0.000265128
3.7813e-06
1.43225e-05
2.60298e-05
3.85382e-05
4.60115e-05
4.96626e-05
5.01554e-05
4.78131e-05
4.46227e-05
3.95539e-05
3.42195e-05
2.94483e-05
2.67709e-05
2.74485e-05
2.96323e-05
3.14818e-05
3.13388e-05
2.85146e-05
2.3872e-05
2.02114e-05
2.08246e-05
2.64242e-05
3.93433e-05
6.39078e-05
8.72018e-05
0.000100614
0.000113336
0.000124344
0.00013433
0.000142833
0.000150424
0.000157043
0.000162905
0.000168059
0.000172591
0.000176618
0.000180205
0.000183424
0.00018632
0.000188932
0.000191281
0.000193387
0.000195265
0.000196927
0.000198387
0.000199655
0.00020074
0.000201649
0.000202381
0.000202805
0.000203297
0.00020338
0.000203439
0.000203323
0.000203046
0.000202632
0.000202076
0.000201383
0.000200555
0.000199594
0.000198501
0.00019728
0.000195934
0.000194464
0.000192874
0.000191167
0.000189343
0.000187407
0.000185362
0.00018321
0.000180955
0.000178598
0.000176144
0.000173594
0.000170951
0.000168218
0.000165398
0.000162492
0.000159505
0.000156436
0.000153286
0.000150049
0.000146719
0.000143292
0.000139773
0.000136176
0.000132511
0.000128754
0.000124845
0.000120745
0.000116499
0.000112155
0.000107646
0.000102962
9.83961e-05
9.44256e-05
9.15938e-05
8.98404e-05
8.85246e-05
8.73202e-05
8.61368e-05
8.4958e-05
8.37821e-05
8.26097e-05
8.14417e-05
8.02791e-05
7.91231e-05
7.79781e-05
7.6865e-05
7.59103e-05
7.49763e-05
7.40484e-05
7.31285e-05
7.22169e-05
7.13138e-05
7.04198e-05
6.95351e-05
6.86601e-05
6.77951e-05
6.69402e-05
6.60955e-05
6.52615e-05
6.44384e-05
6.36266e-05
6.28261e-05
6.20367e-05
6.12595e-05
6.052e-05
5.98428e-05
5.91742e-05
5.85109e-05
5.78608e-05
5.72289e-05
5.66022e-05
5.59803e-05
5.53664e-05
5.47617e-05
5.41665e-05
5.35811e-05
5.30053e-05
5.24389e-05
5.18818e-05
5.13339e-05
5.07951e-05
5.02652e-05
4.97441e-05
4.92317e-05
4.87279e-05
4.82326e-05
4.77457e-05
4.72673e-05
4.67971e-05
4.63352e-05
4.58816e-05
4.54363e-05
4.49992e-05
4.45705e-05
4.41502e-05
4.37384e-05
4.33354e-05
4.29413e-05
4.25563e-05
4.21807e-05
4.18147e-05
4.14586e-05
4.11124e-05
4.07761e-05
4.04495e-05
4.01321e-05
3.98233e-05
3.9521e-05
3.92254e-05
3.89277e-05
3.8641e-05
3.83121e-05
3.80564e-05
3.75487e-05
3.73538e-05
3.63031e-05
3.49088e-05
5.8981e-06
4.0589e-05
9.24667e-05
0.000153708
0.000192552
0.000214556
0.000223348
0.00022192
0.000214076
0.000198518
0.000179502
0.000161548
0.00015248
0.000157007
0.000169321
0.000177335
0.000179532
0.000180676
0.000185631
0.00019434
0.000208077
0.000224512
0.000240376
0.000256186
0.000267066
0.000276645
0.000285195
0.000297692
0.00031634
0.000330004
0.000342516
0.000353262
0.000363042
0.000372013
0.00037981
0.000386934
0.00039357
0.00039994
0.000406172
0.000412332
0.000418414
0.000424376
0.000430166
0.000435742
0.000441076
0.000446152
0.000450954
0.00045547
0.000459701
0.000463647
0.000467346
0.000470764
0.00047394
0.000476862
0.000479536
0.000481962
0.000484142
0.000486075
0.000487763
0.000489204
0.000490401
0.000491354
0.000492066
0.00049254
0.000492787
0.000492811
0.000492608
0.000492174
0.000491525
0.000490664
0.000489598
0.000488334
0.000486877
0.000485234
0.000483413
0.000481422
0.000479266
0.000476955
0.000474495
0.000471895
0.000469163
0.000466305
0.000463329
0.000460241
0.000457051
0.000453771
0.000450413
0.000446985
0.000443484
0.000439908
0.000436276
0.000432611
0.000428901
0.00042512
0.000421267
0.000417319
0.000413248
0.000409091
0.000404894
0.000400682
0.000396465
0.000392244
0.000388024
0.000383808
0.0003796
0.000375403
0.00037122
0.000367053
0.000362902
0.000358765
0.000354653
0.00035057
0.000346518
0.0003425
0.000338515
0.000334567
0.000330657
0.000326787
0.000322957
0.000319169
0.000315424
0.000311722
0.000308066
0.000304455
0.000300891
0.000297374
0.000293902
0.000290476
0.000287094
0.000283759
0.000280468
0.000277232
0.000274049
0.000270906
0.0002678
0.000264738
0.000261722
0.000258752
0.00025583
0.000252954
0.000250124
0.00024734
0.0002446
0.000241905
0.000239254
0.000236645
0.000234079
0.000231555
0.000229073
0.000226631
0.000224231
0.000221871
0.000219552
0.000217272
0.000215033
0.000212835
0.000210676
0.000208559
0.000206484
0.000204452
0.000202463
0.00020052
0.000198623
0.000196775
0.000194976
0.000193228
0.000191532
0.000189887
0.000188294
0.000186749
0.000185249
0.000183795
0.000182359
0.000180996
0.000179511
0.000178388
0.000176293
0.000175969
0.000172991
0.000172128
1.28768e-05
7.40672e-05
0.000174306
0.000251874
0.000303656
0.000333362
0.000344212
0.000341394
0.000328796
0.000309926
0.000290645
0.000278293
0.000276103
0.000282578
0.000292642
0.000303196
0.000315665
0.000332281
0.000353515
0.000378315
0.000405389
0.000433478
0.000471399
0.000517514
0.000562963
0.000606963
0.000649941
0.000693512
0.000732775
0.000764012
0.000788983
0.00080878
0.000824475
0.000836928
0.00084692
0.000855227
0.000862549
0.000869528
0.000876701
0.000884424
0.000892804
0.000901719
0.000910928
0.000920196
0.000929346
0.000938257
0.000946854
0.000955088
0.000962924
0.000970334
0.000977294
0.000983775
0.000989775
0.000995286
0.00100031
0.00100484
0.00100888
0.00101242
0.00101547
0.00101804
0.0010201
0.00102168
0.00102276
0.0010233
0.00102346
0.00102318
0.00102239
0.00102114
0.00101946
0.00101734
0.0010148
0.00101186
0.00100853
0.00100481
0.00100074
0.000996309
0.000991545
0.000986461
0.000981072
0.000975392
0.000969436
0.000963221
0.00095676
0.000950069
0.000943163
0.000936057
0.000928767
0.000921308
0.000913692
0.000905929
0.000898031
0.000890016
0.000881892
0.000873661
0.000865335
0.000856925
0.000848441
0.0008399
0.000831318
0.000822709
0.000814084
0.00080545
0.000796816
0.000788191
0.00077958
0.000770991
0.000762431
0.000753905
0.00074542
0.000736979
0.00072859
0.000720258
0.000711987
0.000703781
0.000695644
0.000687579
0.000679589
0.000671678
0.000663848
0.000656101
0.000648439
0.000640864
0.000633378
0.000625983
0.00061868
0.000611469
0.000604352
0.000597328
0.000590398
0.000583562
0.000576822
0.000570178
0.000563627
0.000557164
0.000550788
0.000544502
0.000538307
0.000532204
0.000526193
0.000520274
0.000514445
0.000508706
0.000503055
0.000497492
0.000492016
0.000486624
0.000481317
0.000476093
0.00047095
0.000465889
0.000460907
0.000456003
0.000451178
0.000446428
0.000441754
0.000437153
0.000432626
0.000428171
0.000423786
0.000419471
0.000415224
0.000411043
0.000406927
0.000402874
0.00039888
0.000394942
0.000391058
0.00038722
0.000383423
0.000379659
0.000375914
0.000372176
0.000368419
0.000364626
0.000360724
0.000356746
0.000352326
0.000348024
0.000341566
0.000330415
2.17717e-05
0.000106434
0.00022024
0.000312836
0.000375514
0.000412496
0.000427923
0.00042831
0.000418391
0.000405122
0.000397054
0.000396227
0.000405354
0.000422395
0.000444954
0.000472507
0.000505658
0.000544777
0.000589061
0.000651113
0.000724815
0.000804479
0.000888642
0.000959239
0.00102162
0.00107771
0.0011281
0.00117298
0.00121223
0.0012461
0.00127534
0.00130066
0.00132277
0.00134231
0.00135984
0.00137586
0.00139078
0.00140494
0.0014186
0.00143195
0.00144511
0.00145816
0.00147112
0.00148397
0.00149666
0.00150912
0.00152125
0.00153295
0.00154414
0.00155474
0.00156469
0.00157396
0.00158253
0.00159039
0.00159753
0.00160394
0.00160961
0.00161455
0.00161875
0.00162221
0.00162493
0.00162691
0.00162806
0.0016285
0.00162837
0.00162746
0.00162584
0.00162352
0.00162052
0.00161686
0.00161257
0.00160765
0.00160213
0.00159603
0.00158937
0.00158218
0.00157448
0.00156628
0.00155762
0.00154851
0.00153898
0.00152906
0.00151876
0.0015081
0.00149712
0.00148583
0.00147426
0.00146243
0.00145035
0.00143806
0.00142556
0.00141288
0.00140003
0.00138704
0.00137391
0.00136066
0.00134732
0.00133389
0.0013204
0.00130687
0.00129332
0.00127975
0.00126618
0.00125263
0.00123909
0.0012256
0.00121215
0.00119875
0.00118541
0.00117215
0.00115897
0.00114587
0.00113287
0.00111997
0.00110718
0.0010945
0.00108193
0.00106949
0.00105717
0.00104498
0.00103293
0.001021
0.00100922
0.000997573
0.000986068
0.000974707
0.000963489
0.000952416
0.000941488
0.000930707
0.000920073
0.000909584
0.000899239
0.000889034
0.000878967
0.00086904
0.000859254
0.000849609
0.000840105
0.000830741
0.000821517
0.00081243
0.00080348
0.000794664
0.000785981
0.00077743
0.000769008
0.000760714
0.000752546
0.000744502
0.000736581
0.00072878
0.000721097
0.000713532
0.000706082
0.000698745
0.00069152
0.000684404
0.000677395
0.000670492
0.000663691
0.000656991
0.000650388
0.000643878
0.000637459
0.000631124
0.000624868
0.000618683
0.000612559
0.000606485
0.000600443
0.000594414
0.000588366
0.000582265
0.000576044
0.000569649
0.000562898
0.000555736
0.000547515
0.000531418
2.69712e-05
0.000122012
0.000241114
0.000357834
0.000435855
0.000483017
0.000506517
0.000514941
0.000516508
0.00051749
0.000524336
0.000540422
0.000566371
0.000601233
0.000644234
0.000695397
0.00075537
0.000838673
0.000934248
0.00103039
0.00111935
0.00120371
0.00128303
0.0013557
0.00142245
0.00148384
0.0015403
0.00159214
0.00163973
0.0016835
0.00172392
0.00176148
0.00179661
0.00182969
0.00186102
0.00189086
0.0019194
0.00194678
0.00197311
0.00199843
0.00202279
0.0020462
0.00206864
0.0020901
0.00211057
0.00213
0.00214837
0.00216564
0.0021818
0.00219682
0.00221069
0.00222342
0.00223501
0.00224548
0.00225485
0.00226313
0.00227035
0.00227651
0.00228164
0.00228574
0.00228884
0.00229089
0.00229181
0.00229189
0.00229102
0.00228914
0.00228631
0.00228254
0.00227785
0.00227227
0.00226582
0.00225854
0.00225044
0.00224156
0.00223193
0.00222158
0.00221053
0.00219883
0.0021865
0.00217357
0.00216008
0.00214605
0.00213151
0.0021165
0.00210105
0.00208519
0.00206895
0.00205235
0.00203543
0.00201822
0.00200074
0.00198301
0.00196507
0.00194694
0.00192863
0.00191018
0.0018916
0.00187292
0.00185417
0.00183536
0.00181651
0.00179766
0.0017788
0.00175997
0.00174117
0.00172242
0.00170374
0.00168513
0.00166661
0.00164819
0.00162988
0.00161169
0.00159364
0.00157572
0.00155795
0.00154034
0.00152288
0.00150559
0.00148848
0.00147154
0.00145478
0.0014382
0.00142182
0.00140562
0.00138962
0.00137381
0.0013582
0.00134279
0.00132758
0.00131256
0.00129775
0.00128314
0.00126872
0.00125449
0.00124046
0.00122662
0.00121297
0.00119951
0.00118625
0.00117318
0.00116029
0.0011476
0.00113509
0.00112276
0.00111061
0.00109864
0.00108685
0.00107523
0.00106378
0.0010525
0.00104139
0.00103044
0.00101965
0.00100902
0.000998544
0.000988222
0.00097805
0.000968027
0.000958148
0.000948411
0.000938813
0.000929349
0.000920018
0.000910812
0.000901729
0.00089276
0.0008839
0.000875138
0.000866464
0.000857861
0.000849312
0.000840792
0.000832265
0.00082369
0.000814997
0.000806118
0.000796887
0.000787156
0.0007772
0.000757415
3.07979e-05
0.000135318
0.000261504
0.000392465
0.000488738
0.000550342
0.00058806
0.000611448
0.000629154
0.000648427
0.000674506
0.000710043
0.000755778
0.000811991
0.00087909
0.000969512
0.00107458
0.00117625
0.00127543
0.0013709
0.00146158
0.00154756
0.00162879
0.00170523
0.00177719
0.001845
0.00190901
0.00196955
0.00202696
0.00208156
0.00213368
0.00218361
0.00223159
0.00227783
0.00232249
0.0023657
0.00240755
0.00244809
0.00248734
0.00252533
0.00256204
0.00259745
0.00263154
0.00266428
0.00269561
0.00272552
0.00275394
0.00278085
0.00280621
0.00282998
0.00285213
0.00287265
0.00289152
0.00290872
0.00292426
0.00293812
0.00295032
0.00296086
0.00296975
0.00297702
0.00298267
0.00298675
0.00298918
0.00299008
0.00298962
0.00298765
0.00298431
0.0029796
0.0029736
0.00296635
0.0029579
0.00294831
0.00293762
0.0029259
0.00291318
0.00289951
0.00288495
0.00286954
0.00285331
0.00283632
0.00281861
0.00280022
0.00278119
0.00276156
0.00274137
0.00272066
0.00269947
0.00267784
0.00265581
0.00263341
0.00261068
0.00258765
0.00256436
0.00254083
0.0025171
0.00249319
0.00246914
0.00244496
0.0024207
0.00239638
0.00237202
0.00234765
0.00232329
0.00229895
0.00227467
0.00225045
0.00222632
0.00220229
0.00217838
0.0021546
0.00213096
0.00210748
0.00208417
0.00206104
0.0020381
0.00201535
0.00199281
0.00197048
0.00194838
0.0019265
0.00190485
0.00188343
0.00186226
0.00184132
0.00182064
0.0018002
0.00178001
0.00176007
0.00174039
0.00172096
0.00170178
0.00168285
0.00166418
0.00164575
0.00162756
0.00160962
0.00159193
0.00157448
0.00155727
0.0015403
0.00152357
0.00150708
0.00149082
0.00147479
0.00145899
0.00144342
0.00142807
0.00141293
0.00139801
0.00138331
0.00136881
0.00135452
0.00134043
0.00132654
0.00131284
0.00129934
0.00128603
0.0012729
0.00125996
0.00124719
0.0012346
0.00122217
0.00120992
0.00119782
0.00118588
0.00117408
0.00116243
0.0011509
0.00113948
0.00112817
0.00111694
0.00110575
0.00109458
0.00108338
0.00107208
0.00106061
0.00104881
0.00103659
0.00102442
0.00100196
3.2348e-05
0.000142501
0.000273967
0.000409848
0.000527786
0.000609004
0.000665054
0.000706972
0.000743962
0.000783271
0.000829952
0.000886951
0.000955897
0.00104816
0.00115511
0.00126167
0.00136775
0.00147109
0.00157114
0.00166748
0.00175987
0.00184829
0.00193285
0.0020137
0.00209108
0.00216527
0.00223655
0.00230517
0.0023714
0.00243547
0.0024976
0.00255795
0.00261668
0.00267391
0.00272971
0.00278416
0.00283727
0.00288907
0.00293955
0.00298868
0.00303645
0.00308281
0.00312772
0.00317113
0.00321298
0.00325323
0.00329182
0.00332871
0.00336383
0.00339715
0.00342861
0.00345819
0.00348585
0.00351155
0.00353527
0.00355699
0.0035767
0.00359438
0.00361004
0.00362366
0.00363526
0.00364484
0.00365242
0.00365803
0.00366169
0.0036633
0.00366322
0.00366123
0.00365746
0.00365194
0.00364473
0.00363589
0.00362547
0.00361354
0.00360016
0.00358539
0.0035693
0.00355196
0.00353343
0.00351378
0.00349308
0.00347139
0.00344879
0.00342533
0.00340108
0.0033761
0.00335046
0.00332421
0.0032974
0.0032701
0.00324234
0.00321419
0.00318568
0.00315687
0.00312779
0.00309848
0.00306898
0.00303933
0.00300957
0.00297972
0.00294982
0.0029199
0.00288998
0.0028601
0.00283028
0.00280054
0.0027709
0.00274138
0.002712
0.00268278
0.00265374
0.00262488
0.00259623
0.0025678
0.00253959
0.00251162
0.00248391
0.00245645
0.00242925
0.00240233
0.00237569
0.00234933
0.00232326
0.00229749
0.00227201
0.00224683
0.00222195
0.00219737
0.0021731
0.00214913
0.00212547
0.00210211
0.00207905
0.00205629
0.00203383
0.00201166
0.00198979
0.00196821
0.00194692
0.00192592
0.00190521
0.00188478
0.00186463
0.00184476
0.00182517
0.00180584
0.00178678
0.00176798
0.00174945
0.00173116
0.00171313
0.00169535
0.0016778
0.0016605
0.00164343
0.0016266
0.00160999
0.0015936
0.00157744
0.00156149
0.00154574
0.00153021
0.00151488
0.00149974
0.00148478
0.00147001
0.00145541
0.00144097
0.00142667
0.00141251
0.00139845
0.00138446
0.00137052
0.00135657
0.00134255
0.00132839
0.00131391
0.00129916
0.00128415
0.00125991
3.27958e-05
0.000144125
0.000275312
0.000409432
0.000539337
0.000642645
0.000719735
0.000781084
0.000836815
0.000894609
0.000962157
0.00105406
0.00116364
0.00128532
0.00140087
0.00151212
0.00161993
0.00172449
0.00182574
0.0019236
0.00201809
0.00210928
0.00219733
0.00228242
0.00236477
0.0024446
0.00252214
0.00259759
0.00267115
0.00274299
0.00281325
0.00288205
0.00294947
0.0030156
0.00308046
0.00314407
0.00320644
0.00326756
0.00332738
0.00338587
0.003443
0.00349869
0.00355289
0.00360554
0.00365657
0.00370592
0.00375352
0.00379931
0.00384323
0.00388522
0.00392523
0.00396319
0.00399908
0.00403283
0.00406443
0.00409382
0.004121
0.00414593
0.0041686
0.004189
0.00420713
0.00422298
0.00423656
0.00424789
0.00425698
0.00426385
0.00426857
0.00427102
0.00427146
0.00426981
0.00426614
0.0042605
0.00425293
0.0042435
0.00423227
0.0042193
0.00420465
0.0041884
0.0041706
0.00415133
0.00413067
0.00410868
0.00408543
0.004061
0.00403546
0.00400888
0.00398134
0.0039529
0.00392363
0.0038936
0.00386287
0.00383151
0.00379957
0.00376713
0.00373423
0.00370094
0.00366729
0.00363336
0.00359918
0.0035648
0.00353028
0.00349564
0.00346094
0.0034262
0.00339147
0.00335677
0.00332214
0.0032876
0.00325318
0.00321891
0.00318481
0.0031509
0.00311719
0.00308371
0.00305048
0.0030175
0.00298479
0.00295236
0.00292023
0.00288839
0.00285687
0.00282567
0.0027948
0.00276425
0.00273404
0.00270417
0.00267464
0.00264546
0.00261662
0.00258814
0.00255999
0.0025322
0.00250476
0.00247765
0.00245089
0.00242448
0.0023984
0.00237266
0.00234725
0.00232218
0.00229744
0.00227303
0.00224894
0.00222517
0.00220172
0.00217858
0.00215575
0.00213323
0.002111
0.00208907
0.00206744
0.00204609
0.00202502
0.00200423
0.00198372
0.00196348
0.0019435
0.00192378
0.00190432
0.00188511
0.00186615
0.00184743
0.00182894
0.00181069
0.00179265
0.00177483
0.00175722
0.0017398
0.00172255
0.00170546
0.00168851
0.00167166
0.00165488
0.00163812
0.00162132
0.00160439
0.00158719
0.00156979
0.00155186
0.00152572
3.22376e-05
0.000141196
0.000268904
0.000398015
0.000521852
0.000633962
0.000727736
0.000808815
0.000891786
0.000987054
0.00109623
0.00122088
0.00135724
0.00148473
0.00160502
0.00172002
0.00183073
0.00193749
0.00204063
0.0021405
0.00223732
0.00233129
0.0024226
0.00251146
0.00259807
0.00268265
0.00276537
0.00284642
0.00292594
0.00300406
0.0030809
0.00315653
0.003231
0.00330435
0.0033766
0.00344773
0.00351773
0.00358655
0.00365416
0.00372048
0.00378547
0.00384904
0.00391112
0.00397164
0.00403052
0.00408768
0.00414304
0.00419654
0.00424808
0.00429762
0.00434507
0.00439039
0.00443351
0.00447438
0.00451296
0.0045492
0.00458308
0.00461456
0.00464362
0.00467025
0.00469443
0.00471616
0.00473543
0.00475226
0.00476667
0.00477866
0.00478826
0.0047955
0.00480043
0.004803
0.00480338
0.00480157
0.0047976
0.00479154
0.00478344
0.00477335
0.00476135
0.0047475
0.00473186
0.0047145
0.00469549
0.00467491
0.00465282
0.00462929
0.00460441
0.00457823
0.00455085
0.00452232
0.00449272
0.00446213
0.0044306
0.00439822
0.00436504
0.00433114
0.00429657
0.0042614
0.00422569
0.0041895
0.00415289
0.00411592
0.00407863
0.00404109
0.00400333
0.00396541
0.00392737
0.00388925
0.00385109
0.00381292
0.00377479
0.00373673
0.00369876
0.00366092
0.00362322
0.00358571
0.00354839
0.0035113
0.00347445
0.00343785
0.00340152
0.00336549
0.00332976
0.00329434
0.00325924
0.00322448
0.00319006
0.00315599
0.00312227
0.00308891
0.00305592
0.00302329
0.00299104
0.00295915
0.00292764
0.00289649
0.00286572
0.00283532
0.00280528
0.00277562
0.00274632
0.00271739
0.00268882
0.00266061
0.00263276
0.00260526
0.00257811
0.00255131
0.00252486
0.00249874
0.00247296
0.0024475
0.00242238
0.00239757
0.00237309
0.00234892
0.00232505
0.00230149
0.00227823
0.00225527
0.00223259
0.0022102
0.00218809
0.00216626
0.00214469
0.00212339
0.00210234
0.00208154
0.00206097
0.00204062
0.00202049
0.00200053
0.00198074
0.00196109
0.00194152
0.00192199
0.00190244
0.00188279
0.0018629
0.00184284
0.00182209
0.00179376
3.08683e-05
0.00013511
0.00025811
0.000383393
0.000505343
0.000621407
0.000732044
0.000840998
0.000955818
0.00108164
0.0012197
0.00136943
0.00151171
0.00164368
0.00176793
0.00188635
0.00200006
0.0021097
0.00221566
0.00231814
0.00241754
0.00251424
0.00260854
0.0027007
0.00279094
0.00287946
0.00296645
0.00305207
0.00313644
0.00321968
0.00330187
0.00338306
0.0034633
0.0035426
0.00362094
0.0036983
0.00377465
0.00384993
0.00392407
0.003997
0.00406865
0.00413891
0.00420772
0.00427497
0.00434058
0.00440446
0.00446651
0.00452665
0.0045848
0.00464088
0.00469482
0.00474653
0.00479597
0.00484307
0.00488777
0.00493004
0.00496983
0.0050071
0.00504184
0.00507401
0.0051036
0.00513061
0.00515503
0.00517687
0.00519613
0.00521283
0.005227
0.00523865
0.00524783
0.00525455
0.00525887
0.00526081
0.00526046
0.00525786
0.00525304
0.00524607
0.00523702
0.00522594
0.0052129
0.00519796
0.0051812
0.00516268
0.00514248
0.00512066
0.0050973
0.00507247
0.00504625
0.0050187
0.00498991
0.00495993
0.00492885
0.00489672
0.00486363
0.00482963
0.0047948
0.00475919
0.00472289
0.00468593
0.0046484
0.00461034
0.00457182
0.00453289
0.00449361
0.00445402
0.00441418
0.00437414
0.00433393
0.0042936
0.0042532
0.00421275
0.0041723
0.00413189
0.00409153
0.00405128
0.00401114
0.00397116
0.00393134
0.00389173
0.00385234
0.00381318
0.00377428
0.00373565
0.00369731
0.00365928
0.00362155
0.00358415
0.00354709
0.00351037
0.003474
0.00343799
0.00340233
0.00336705
0.00333213
0.00329759
0.00326342
0.00322963
0.00319621
0.00316317
0.00313051
0.00309823
0.00306632
0.00303478
0.00300362
0.00297283
0.00294241
0.00291236
0.00288267
0.00285334
0.00282436
0.00279574
0.00276746
0.00273953
0.00271195
0.0026847
0.00265778
0.00263119
0.00260493
0.00257899
0.00255336
0.00252805
0.00250304
0.00247833
0.00245392
0.0024298
0.00240595
0.00238238
0.00235907
0.00233601
0.00231318
0.00229056
0.00226813
0.00224585
0.00222368
0.00220158
0.00217946
0.00215726
0.00213486
0.00211228
0.00208898
0.00205832
2.93175e-05
0.000128791
0.000248238
0.00037247
0.000497093
0.000621009
0.000745655
0.000874974
0.00101223
0.00115948
0.00131685
0.00147862
0.0016264
0.00176284
0.00189093
0.00201268
0.00212936
0.0022418
0.00235053
0.00245594
0.00255832
0.00265788
0.00275505
0.00285018
0.00294357
0.00303544
0.00312599
0.0032154
0.00330378
0.00339124
0.00347785
0.00356366
0.00364869
0.00373294
0.00381638
0.00389898
0.00398069
0.00406143
0.00414112
0.00421968
0.00429702
0.00437303
0.00444761
0.00452067
0.00459209
0.00466178
0.00472963
0.00479556
0.00485946
0.00492125
0.00498084
0.00503816
0.00509314
0.00514571
0.00519581
0.00524339
0.00528841
0.00533082
0.00537059
0.00540771
0.00544215
0.00547389
0.00550295
0.00552931
0.00555298
0.00557398
0.00559233
0.00560805
0.00562118
0.00563173
0.00563976
0.0056453
0.00564841
0.00564914
0.00564753
0.00564365
0.00563756
0.00562932
0.00561898
0.00560661
0.00559229
0.00557607
0.00555804
0.00553826
0.0055168
0.00549374
0.00546915
0.0054431
0.00541567
0.00538692
0.00535692
0.00532575
0.00529347
0.00526015
0.00522587
0.00519067
0.00515464
0.00511783
0.00508032
0.00504215
0.00500339
0.00496409
0.00492432
0.00488413
0.00484356
0.00480267
0.00476151
0.00472011
0.00467854
0.00463682
0.004595
0.00455311
0.0045112
0.0044693
0.00442743
0.00438563
0.00434393
0.00430236
0.00426093
0.00421968
0.00417862
0.00413778
0.00409718
0.00405682
0.00401674
0.00397693
0.00393742
0.00389822
0.00385933
0.00382077
0.00378255
0.00374466
0.00370713
0.00366995
0.00363312
0.00359666
0.00356057
0.00352484
0.00348948
0.00345449
0.00341987
0.00338562
0.00335175
0.00331825
0.00328512
0.00325236
0.00321997
0.00318794
0.00315627
0.00312497
0.00309402
0.00306343
0.00303319
0.00300331
0.00297376
0.00294456
0.0029157
0.00288717
0.00285898
0.00283111
0.00280357
0.00277635
0.00274943
0.00272283
0.00269652
0.00267051
0.00264477
0.00261931
0.00259409
0.0025691
0.00254432
0.00251971
0.00249523
0.00247083
0.00244644
0.00242199
0.00239737
0.00237257
0.00234706
0.00231424
2.76234e-05
0.000122193
0.000238216
0.000361768
0.000489211
0.00061992
0.00075615
0.000899682
0.00105219
0.00121417
0.00138614
0.00155208
0.00170385
0.00184415
0.00197575
0.00210062
0.00222012
0.00233516
0.00244643
0.0025544
0.00265948
0.00276195
0.00286209
0.00296009
0.00305638
0.00315123
0.0032449
0.00333756
0.00342936
0.00352041
0.00361078
0.0037005
0.0037896
0.00387806
0.00396586
0.00405293
0.00413922
0.00422465
0.00430911
0.00439252
0.00447477
0.00455574
0.00463533
0.00471341
0.00478989
0.00486463
0.00493754
0.00500851
0.00507744
0.00514422
0.00520878
0.00527103
0.00533088
0.00538827
0.00544314
0.00549543
0.00554509
0.00559207
0.00563635
0.00567789
0.00571667
0.00575269
0.00578593
0.00581639
0.00584409
0.00586902
0.00589122
0.0059107
0.00592749
0.00594162
0.00595313
0.00596207
0.00596848
0.0059724
0.00597389
0.00597302
0.00596986
0.00596442
0.0059568
0.00594705
0.00593524
0.00592144
0.00590572
0.00588814
0.00586879
0.00584773
0.00582504
0.00580078
0.00577503
0.00574786
0.00571934
0.00568954
0.00565852
0.00562636
0.00559312
0.00555887
0.00552368
0.0054876
0.00545071
0.00541306
0.00537472
0.00533574
0.00529619
0.0052561
0.00521555
0.00517457
0.00513322
0.00509155
0.0050496
0.00500741
0.00496504
0.00492251
0.00487987
0.00483715
0.00479439
0.00475163
0.00470888
0.00466619
0.00462357
0.00458106
0.00453868
0.00449646
0.00445441
0.00441256
0.00437091
0.0043295
0.00428834
0.00424743
0.0042068
0.00416646
0.00412641