/*--------------------------------*- C++ -*----------------------------------*\
  =========                 |
  \\      /  F ield         | OpenFOAM: The Open Source CFD Toolbox
   \\    /   O peration     | Website:  https://openfoam.org
    \\  /    A nd           | Version:  8
     \\/     M anipulation  |
\*---------------------------------------------------------------------------*/
FoamFile
{
    version     2.0;
    format      ascii;
    class       volScalarField;
    location    "3500";
    object      p;
}
// * * * * * * * * * * * * * * * * * * * * * * * * * * * * * * * * * * * * * //

dimensions      [0 2 -2 0 0 0 0];

internalField   nonuniform List<scalar> 
12225
(
514.676
55.5283
2.36394
0.281829
-1.89864
-3.37419
-3.81143
-4.02183
-4.23158
-4.36847
-4.41562
-4.42523
-4.42822
-4.45617
-4.50955
-4.57599
-4.72136
-4.9439
-122.179
0.239034
-2.71828
-0.764966
-2.21634
-3.52478
-3.9525
-4.1366
-4.28028
-4.38427
-4.45919
-4.5175
-4.56843
-4.6008
-4.62173
-4.64726
-4.71388
-4.80788
-200.645
-16.1483
-2.34629
-0.358189
-1.90067
-3.24466
-3.77206
-4.0223
-4.19498
-4.31924
-4.41192
-4.47912
-4.52774
-4.55297
-4.56801
-4.58355
-4.61542
-4.59858
-110.616
-10.9739
-2.177
-0.431896
-1.7876
-3.02867
-3.60116
-3.90834
-4.11761
-4.26341
-4.36578
-4.43645
-4.48516
-4.51373
-4.53105
-4.53887
-4.53783
-4.46913
-61.5727
-8.14572
-3.62246
-1.2099
-2.01512
-2.99823
-3.52912
-3.84889
-4.07139
-4.22607
-4.3337
-4.40835
-4.4597
-4.49081
-4.50608
-4.50345
-4.47725
-4.38709
-45.7307
-8.78516
-5.25867
-2.20024
-2.42986
-3.10101
-3.53648
-3.83344
-4.04943
-4.20325
-4.3123
-4.38902
-4.44145
-4.47237
-4.48391
-4.47316
-4.43307
-4.33851
-35.7945
-9.27641
-6.38045
-3.12468
-2.92188
-3.28997
-3.60388
-3.85478
-4.05019
-4.19537
-4.30135
-4.37714
-4.42874
-4.45847
-4.46739
-4.45278
-4.40879
-4.32173
-27.778
-8.90719
-6.97391
-3.80294
-3.36195
-3.4988
-3.70086
-3.90035
-4.0697
-4.20197
-4.30173
-4.37447
-4.42439
-4.45322
-4.46155
-4.44724
-4.40625
-4.33151
-21.69
-8.52014
-7.13462
-4.3108
-3.72925
-3.7064
-3.81669
-3.96505
-4.10535
-4.22161
-4.31267
-4.38074
-4.42819
-4.45613
-4.46483
-4.45286
-4.41786
-4.35686
-16.6127
-8.14082
-7.08827
-4.75569
-4.08355
-3.93477
-3.95964
-4.05309
-4.15946
-4.25566
-4.33512
-4.39673
-4.44096
-4.46813
-4.47831
-4.47083
-4.44489
-4.4004
-12.6391
-7.68101
-6.90629
-5.10199
-4.40718
-4.17074
-4.12234
-4.1619
-4.23209
-4.30546
-4.37105
-4.42477
-4.46527
-4.49207
-4.50507
-4.50423
-4.48995
-4.46378
-9.69915
-7.14893
-6.62939
-5.32682
-4.67903
-4.39754
-4.29487
-4.28715
-4.32233
-4.37198
-4.4225
-4.46753
-4.50419
-4.53125
-4.54841
-4.55601
-4.55511
-4.54782
-7.66621
-6.60487
-6.30616
-5.4318
-4.88348
-4.59769
-4.46407
-4.42092
-4.4262
-4.45398
-4.48997
-4.52657
-4.55988
-4.58806
-4.61057
-4.62778
-4.64085
-4.65176
-6.37112
-6.11321
-5.98589
-5.44053
-5.01612
-4.75795
-4.61651
-4.55285
-4.53685
-4.54743
-4.57151
-4.60135
-4.6326
-4.66303
-4.6918
-4.71903
-4.74562
-4.77298
-5.62287
-5.72255
-5.7092
-5.39104
-5.08612
-4.87321
-4.74199
-4.67243
-4.64543
-4.64564
-4.66228
-4.68838
-4.71965
-4.75367
-4.78932
-4.82635
-4.86516
-4.9065
-5.24356
-5.46035
-5.50828
-5.32773
-5.1152
-4.94813
-4.83585
-4.77085
-4.74216
-4.7393
-4.75397
-4.78025
-4.81418
-4.85333
-4.8963
-4.9425
-4.99179
-5.04435
-5.10231
-5.34444
-5.41711
-5.29911
-5.13508
-4.99595
-4.89829
-4.84038
-4.81527
-4.81507
-4.8329
-4.8635
-4.90308
-4.94913
-5.00002
-5.05481
-5.11299
-5.17432
-5.14004
-5.40024
-5.47433
-5.34818
-5.17435
-5.02861
-4.92833
-4.87111
-4.84918
-4.85401
-4.8782
-4.91603
-4.96339
-5.01747
-5.07638
-5.1389
-5.20429
-5.2721
-5.39231
-5.65467
-5.69036
-5.47522
-5.22598
-5.03559
-4.91447
-4.85138
-4.83232
-4.84459
-4.87823
-4.92606
-4.98319
-5.04639
-5.11356
-5.18334
-5.25497
-5.328
-6.00169
-6.13649
-6.04225
-5.63472
-5.24671
-4.98693
-4.84038
-4.77543
-4.7659
-4.79226
-4.84082
-4.90266
-4.97219
-5.04602
-5.12207
-5.19915
-5.27663
-5.35428
-7.2493
-6.88912
-6.49379
-5.76146
-5.18267
-4.85253
-4.69591
-4.64574
-4.65966
-4.71017
-4.7804
-4.86042
-4.94473
-5.03027
-5.11553
-5.19975
-5.28267
-5.36441
-9.6408
-7.96419
-6.9822
-5.77147
-4.97913
-4.61172
-4.48149
-4.47324
-4.52808
-4.6134
-4.71116
-4.81229
-4.91239
-5.00968
-5.10361
-5.19423
-5.28181
-5.36686
-13.982
-9.39066
-7.40277
-5.56913
-4.59433
-4.26377
-4.21461
-4.27924
-4.39137
-4.51884
-4.64693
-4.76944
-4.8845
-4.99204
-5.09305
-5.18864
-5.27963
-5.36695
-20.8896
-10.9536
-7.55379
-5.05684
-4.01545
-3.83542
-3.92954
-4.09367
-4.27176
-4.44258
-4.59912
-4.74035
-4.86744
-4.98241
-5.08798
-5.18653
-5.27935
-5.36758
-29.7362
-11.949
-7.03313
-4.12573
-3.26365
-3.37756
-3.67064
-3.9464
-4.1887
-4.39669
-4.57524
-4.72949
-4.86406
-4.9828
-5.0901
-5.1896
-5.28255
-5.37029
-43.1061
-12.6136
-5.47241
-2.72857
-2.41286
-2.96304
-3.48387
-3.86198
-4.15321
-4.38547
-4.57717
-4.73722
-4.87372
-4.99157
-5.09792
-5.19694
-5.28882
-5.37516
-84.5991
-17.3731
-3.66372
-1.26506
-1.69564
-2.72144
-3.4358
-3.86955
-4.17306
-4.41014
-4.60607
-4.76718
-4.899
-5.0083
-5.10894
-5.20569
-5.29488
-5.37898
-177.885
-26.8492
-3.67979
-0.769842
-1.53472
-2.84268
-3.61371
-4.01487
-4.27068
-4.46669
-4.65044
-4.81515
-4.95211
-5.05047
-5.13788
-5.22898
-5.30723
-5.38177
-154.79
-9.62691
-3.27202
-1.06792
-1.84273
-3.2205
-3.91332
-4.22464
-4.41711
-4.55858
-4.70168
-4.85342
-5.00575
-5.11951
-5.21
-5.3026
-5.37679
-5.44263
428.058
66.6059
7.05633
1.59979
-0.915231
-2.85655
-3.6526
-3.99432
-4.30989
-4.57659
-4.70699
-4.75515
-4.8009
-4.90449
-5.0242
-5.11936
-5.22571
-5.33227
-8.52523
-8.5124
-8.50177
-8.54314
-8.63618
-8.73988
-8.81981
-8.85982
-8.86347
-8.8458
-8.81839
-8.78981
-8.76814
-8.75934
-8.76435
-8.77699
-8.7882
-8.79333
-8.79256
-8.7905
-8.79499
-8.8277
-8.91793
-9.08929
-9.34231
-9.66009
-10.0312
-10.4451
-10.8861
-11.3381
-11.7861
-12.2181
-12.6248
-12.9996
-13.3382
-13.6382
-13.8985
-14.1193
-14.301
-14.4448
-14.552
-14.6238
-14.6617
-14.6671
-14.6411
-14.5852
-14.501
-14.3908
-14.2559
-14.094
-13.9026
-13.6829
-13.4377
-13.1687
-12.8771
-12.5641
-12.2306
-11.8777
-11.5064
-11.1177
-10.7128
-10.2927
-9.85866
-9.41173
-8.95312
-8.48402
-8.00563
-7.51915
-7.02578
-6.52669
-6.02306
-5.51602
-5.00668
-4.49613
-3.98541
-3.47552
-2.96742
-2.46202
-1.96018
-1.46271
-0.97036
-0.483842
-0.00379818
0.469179
0.934555
1.39185
1.84063
2.28054
2.71124
3.13249
3.54408
3.94584
4.33758
4.71928
5.0912
5.45333
5.80521
6.14645
6.47705
6.79722
7.10722
7.40724
7.69748
7.97811
8.24932
8.51132
8.7643
9.00849
9.24411
9.47137
9.69048
9.90169
10.1053
10.3014
10.4904
10.6725
10.8479
11.0169
11.1796
11.3364
11.4874
11.6329
11.773
11.9081
12.0382
12.1637
12.2846
12.4012
12.5136
12.622
12.7267
12.8278
12.9257
13.0204
13.1119
13.2002
13.2855
13.368
13.4477
13.5249
13.5996
13.6719
13.742
13.8099
13.8756
13.9394
14.0012
14.0612
14.1194
14.1758
14.2305
14.2837
14.3352
14.3852
14.4336
14.4807
14.5262
14.5704
14.6132
14.6546
14.6947
14.7334
14.7709
14.807
14.8419
14.8755
14.9079
14.9391
14.9693
14.9984
15.0268
15.0545
15.082
15.1096
15.1383
15.1691
15.2045
15.2462
15.3041
15.3645
-8.58268
-8.61394
-8.6879
-8.7815
-8.88497
-8.97718
-9.03842
-9.06281
-9.04576
-8.9853
-8.89554
-8.79872
-8.7171
-8.66582
-8.64375
-8.64056
-8.65012
-8.67556
-8.71084
-8.73108
-8.75542
-8.83339
-8.99315
-9.23272
-9.53961
-9.9106
-10.3364
-10.7965
-11.2694
-11.7372
-12.1873
-12.6105
-13.0003
-13.3528
-13.6663
-13.9405
-14.1759
-14.3734
-14.5342
-14.6595
-14.7505
-14.8082
-14.8336
-14.8277
-14.7912
-14.7248
-14.629
-14.5036
-14.3494
-14.1694
-13.9673
-13.7434
-13.4967
-13.2274
-12.9362
-12.6238
-12.291
-11.9389
-11.5684
-11.1805
-10.7763
-10.3568
-9.92335
-9.47694
-9.01878
-8.55005
-8.07194
-7.58566
-7.09241
-6.59336
-6.08968
-5.58251
-5.07296
-4.56211
-4.05102
-3.54068
-3.03206
-2.52606
-2.02355
-1.52535
-1.0322
-0.544825
-0.0638667
0.410075
0.876456
1.33478
1.78462
2.22556
2.65727
3.07943
3.4918
3.89411
4.28617
4.66785
5.03923
5.40054
5.75197
6.09354
6.42511
6.74657
7.05796
7.3594
7.65105
7.93308
8.20566
8.469
8.7233
8.96877
9.20565
9.43417
9.65455
9.86702
10.0718
10.2692
10.4594
10.6426
10.8191
10.9892
11.153
11.3108
11.4628
11.6093
11.7504
11.8865
12.0177
12.1442
12.2662
12.3838
12.4974
12.6069
12.7126
12.8145
12.9125
13.0073
13.0989
13.1874
13.2729
13.3557
13.4357
13.5132
13.5882
13.6608
13.7312
13.7994
13.8655
13.9295
13.9917
14.0519
14.1104
14.1671
14.2221
14.2754
14.3272
14.3774
14.4261
14.4734
14.5192
14.5635
14.6065
14.6481
14.6884
14.7273
14.7649
14.8012
14.8362
14.87
14.9025
14.9339
14.9642
14.9935
15.0219
15.0497
15.0773
15.1051
15.1338
15.1645
15.1993
15.2389
15.2926
15.3424
-8.70971
-8.79154
-8.90951
-9.01533
-9.09823
-9.15207
-9.17269
-9.15888
-9.1093
-9.02621
-8.91868
-8.80329
-8.70353
-8.63899
-8.61024
-8.60541
-8.62442
-8.68115
-8.78476
-8.93181
-9.12215
-9.36291
-9.65695
-9.99608
-10.3681
-10.7638
-11.1733
-11.5846
-11.9871
-12.3737
-12.7397
-13.0811
-13.3956
-13.6812
-13.9369
-14.1624
-14.3573
-14.5219
-14.6562
-14.7606
-14.8354
-14.8812
-14.8983
-14.887
-14.848
-14.7815
-14.688
-14.5675
-14.4199
-14.2462
-14.0479
-13.8259
-13.5808
-13.3132
-13.0237
-12.7131
-12.3822
-12.0319
-11.6632
-11.2769
-10.8743
-10.4563
-10.0241
-9.57892
-9.12179
-8.65395
-8.17659
-7.69092
-7.19812
-6.69938
-6.19587
-5.68873
-5.17908
-4.66801
-4.15656
-3.64575
-3.13655
-2.62986
-2.12657
-1.62748
-1.13337
-0.644953
-0.162877
0.31225
0.77988
1.23952
1.69073
2.13311
2.56633
2.99011
3.4042
3.8084
4.20257
4.5866
4.96049
5.32423
5.67786
6.02138
6.35477
6.67803
6.99123
7.29448
7.58793
7.87175
8.1461
8.41119
8.66721
8.91438
9.15292
9.38306
9.60503
9.81905
10.0254
10.2242
10.4158
10.6005
10.7784
10.9498
11.1149
11.274
11.4273
11.575
11.7173
11.8544
11.9865
12.1139
12.2366
12.355
12.4692
12.5794
12.6857
12.7883
12.8873
12.9831
13.0757
13.1652
13.2517
13.3353
13.4162
13.4944
13.5702
13.6435
13.7145
13.7833
13.85
13.9146
13.9773
14.0381
14.097
14.1542
14.2096
14.2634
14.3156
14.3662
14.4153
14.4628
14.509
14.5537
14.5969
14.6388
14.6794
14.7186
14.7564
14.7929
14.8282
14.8621
14.8949
14.9264
14.9569
14.9863
15.0148
15.0428
15.0703
15.098
15.1265
15.1566
15.1901
15.2267
15.2741
15.3077
-8.74912
-8.84656
-8.94783
-9.03435
-9.0988
-9.1385
-9.15095
-9.13355
-9.08629
-9.01417
-8.92844
-8.84589
-8.78469
-8.75771
-8.76983
-8.82314
-8.92152
-9.06863
-9.26508
-9.50585
-9.78212
-10.0867
-10.4136
-10.7564
-11.1098
-11.4686
-11.8273
-12.181
-12.5249
-12.8549
-13.1678
-13.4609
-13.732
-13.9795
-14.2021
-14.3989
-14.5693
-14.7129
-14.8294
-14.919
-14.9815
-15.017
-15.0257
-15.0076
-14.963
-14.8919
-14.7948
-14.6719
-14.5236
-14.3508
-14.1539
-13.9335
-13.69
-13.424
-13.1362
-12.8273
-12.4981
-12.1494
-11.7821
-11.3973
-10.996
-10.5792
-10.148
-9.70363
-9.24721
-8.77991
-8.30295
-7.81751
-7.32478
-6.82595
-6.3222
-5.81467
-5.30448
-4.79273
-4.28048
-3.76873
-3.25846
-2.75059
-2.24601
-1.74554
-1.24994
-0.759945
-0.276213
0.200645
0.670075
1.13158
1.5847
2.02906
2.4643
2.89015
3.30635
3.71272
4.10911
4.49543
4.87164
5.2377
5.59358
5.93927
6.27477
6.60012
6.9154
7.22071
7.51622
7.80206
8.07842
8.34548
8.60345
8.85254
9.09296
9.32494
9.5487
9.76448
9.97251
10.1731
10.3663
10.5526
10.7321
10.905
11.0716
11.2321
11.3867
11.5357
11.6793
11.8176
11.9509
12.0795
12.2034
12.3229
12.4382
12.5494
12.6567
12.7603
12.8605
12.9573
13.0509
13.1413
13.2286
13.3131
13.3948
13.4738
13.5503
13.6244
13.6961
13.7655
13.8328
13.8981
13.9613
14.0226
14.0821
14.1398
14.1957
14.25
14.3026
14.3536
14.4031
14.4511
14.4976
14.5426
14.5863
14.6285
14.6693
14.7088
14.7469
14.7837
14.8192
14.8533
14.8863
14.918
14.9486
14.9781
15.0067
15.0345
15.062
15.0893
15.1172
15.1461
15.1774
15.2099
15.2493
15.2679
-8.53724
-8.62216
-8.72226
-8.81935
-8.89671
-8.94944
-8.97652
-8.9788
-8.96072
-8.9306
-8.90052
-8.88446
-8.89521
-8.94233
-9.03203
-9.16744
-9.34867
-9.57113
-9.82639
-10.1064
-10.4057
-10.72
-11.045
-11.3757
-11.7078
-12.0375
-12.3614
-12.6764
-12.9797
-13.269
-13.5422
-13.7977
-14.0339
-14.2498
-14.4441
-14.6162
-14.7654
-14.8909
-14.9925
-15.0696
-15.1221
-15.1497
-15.1523
-15.1297
-15.082
-15.0091
-14.9111
-14.7881
-14.6405
-14.4687
-14.273
-14.0539
-13.8118
-13.5473
-13.261
-12.9536
-12.6258
-12.2785
-11.9125
-11.5289
-11.1287
-10.7129
-10.2826
-9.83886
-9.38298
-8.91609
-8.43938
-7.95404
-7.46126
-6.96224
-6.45814
-5.95013
-5.43932
-4.92681
-4.41367
-3.90091
-3.38952
-2.88042
-2.37449
-1.87257
-1.37544
-0.883814
-0.398369
0.0802824
0.551579
1.01502
1.47014
1.91656
2.35393
2.78194
3.20036
3.60899
4.00767
4.3963
4.77481
5.14315
5.5013
5.84923
6.18696
6.51454
6.83203
7.13956
7.43726
7.72529
8.0038
8.273
8.53307
8.78422
9.02669
9.26069
9.48644
9.70416
9.9141
10.1165
10.3116
10.4996
10.6807
10.8553
11.0235
11.1856
11.3418
11.4923
11.6374
11.7771
11.9119
12.0418
12.167
12.2879
12.4044
12.5168
12.6253
12.7301
12.8313
12.9291
13.0236
13.115
13.2033
13.2886
13.3712
13.451
13.5283
13.6032
13.6756
13.7458
13.8138
13.8797
13.9436
14.0055
14.0655
14.1238
14.1803
14.235
14.2882
14.3397
14.3896
14.438
14.485
14.5304
14.5744
14.617
14.6582
14.698
14.7364
14.7735
14.8092
14.8436
14.8768
14.9086
14.9393
14.9689
14.9975
15.0252
15.0523
15.0791
15.106
15.1333
15.1619
15.1897
15.2213
15.2274
-8.11727
-8.20568
-8.32661
-8.44931
-8.55454
-8.63496
-8.69328
-8.73536
-8.76884
-8.8035
-8.85031
-8.91955
-9.01926
-9.15426
-9.32676
-9.53575
-9.77657
-10.0436
-10.3316
-10.6348
-10.9478
-11.2657
-11.5847
-11.9012
-12.2125
-12.5164
-12.8111
-13.0948
-13.3662
-13.624
-13.8669
-14.0938
-14.3037
-14.4955
-14.6685
-14.8216
-14.9542
-15.0656
-15.1551
-15.2223
-15.2666
-15.2876
-15.285
-15.2585
-15.208
-15.1333
-15.0343
-14.9111
-14.7638
-14.5926
-14.3979
-14.1799
-13.9391
-13.6759
-13.391
-13.085
-12.7587
-12.4127
-12.0481
-11.6658
-11.2667
-10.8519
-10.4224
-9.97946
-9.52417
-9.05774
-8.58133
-8.09614
-7.60336
-7.10418
-6.59978
-6.09131
-5.57991
-5.06668
-4.55268
-4.03894
-3.52644
-3.01612
-2.50887
-2.00552
-1.50686
-1.01361
-0.526463
-0.0460251
0.427135
0.892508
1.34964
1.79812
2.23761
2.6678
3.08844
3.49933
3.90031
4.29125
4.67207
5.04271
5.40315
5.75336
6.09338
6.42323
6.74301
7.05282
7.35278
7.64306
7.92381
8.19523
8.4575
8.71082
8.95542
9.1915
9.41929
9.63903
9.85095
10.0553
10.2523
10.4422
10.6252
10.8015
10.9715
11.1353
11.2932
11.4453
11.5919
11.7332
11.8695
12.0009
12.1275
12.2497
12.3676
12.4813
12.591
12.697
12.7994
12.8983
12.9939
13.0863
13.1756
13.2619
13.3454
13.4262
13.5043
13.58
13.6533
13.7242
13.793
13.8596
13.9242
13.9868
14.0475
14.1064
14.1635
14.2188
14.2725
14.3245
14.375
14.4239
14.4713
14.5172
14.5616
14.6046
14.6462
14.6863
14.7251
14.7625
14.7985
14.8332
14.8665
14.8985
14.9293
14.9589
14.9874
15.0149
15.0415
15.0676
15.0933
15.1186
15.1441
15.1671
15.1914
15.1868
-7.65226
-7.75095
-7.893
-8.0418
-8.17974
-8.29837
-8.40127
-8.49777
-8.59727
-8.70869
-8.83965
-8.99504
-9.1776
-9.38779
-9.62391
-9.88383
-10.1646
-10.4615
-10.7693
-11.083
-11.3982
-11.7114
-12.0201
-12.322
-12.6155
-12.8995
-13.1729
-13.4347
-13.6841
-13.9203
-14.1423
-14.3494
-14.5407
-14.7155
-14.8728
-15.0118
-15.1319
-15.2323
-15.3123
-15.3712
-15.4086
-15.4239
-15.4166
-15.3865
-15.3331
-15.2563
-15.1559
-15.0318
-14.8842
-14.713
-14.5186
-14.3012
-14.0611
-13.7989
-13.515
-13.2102
-12.885
-12.5402
-12.1768
-11.7956
-11.3977
-10.984
-10.5556
-10.1136
-9.65911
-9.19341
-8.71762
-8.23293
-7.74054
-7.24162
-6.73734
-6.22886
-5.71732
-5.20381
-4.68939
-4.17511
-3.66193
-3.15081
-2.64263
-2.13824
-1.63841
-1.1439
-0.655367
-0.173447
0.301293
0.768337
1.22722
1.67755
2.11895
2.55112
2.9738
3.38679
3.7899
4.18301
4.56602
4.93887
5.30152
5.65396
5.9962
6.3283
6.65033
6.96239
7.26461
7.55713
7.84011
8.11374
8.3782
8.6337
8.88044
9.11865
9.34855
9.57036
9.78432
9.99066
10.1896
10.3814
10.5663
10.7446
10.9164
11.082
11.2415
11.3954
11.5436
11.6866
11.8244
11.9573
12.0854
12.209
12.3283
12.4434
12.5545
12.6617
12.7653
12.8654
12.9621
13.0556
13.146
13.2334
13.3179
13.3996
13.4787
13.5553
13.6295
13.7013
13.7708
13.8383
13.9036
13.9669
14.0283
14.0879
14.1456
14.2016
14.2559
14.3085
14.3595
14.4089
14.4568
14.5032
14.5481
14.5915
14.6335
14.6741
14.7132
14.7509
14.7872
14.8221
14.8557
14.8879
14.9187
14.9483
14.9766
15.0038
15.0299
15.055
15.0793
15.1024
15.1246
15.1427
15.1605
15.1466
-7.29662
-7.39009
-7.54213
-7.70786
-7.87469
-8.03567
-8.19027
-8.34638
-8.51225
-8.69368
-8.89472
-9.11657
-9.35781
-9.61758
-9.89528
-10.1886
-10.4939
-10.8066
-11.1226
-11.4384
-11.7509
-12.0578
-12.3575
-12.6484
-12.9296
-13.2002
-13.4595
-13.7069
-13.9418
-14.1636
-14.3716
-14.5653
-14.7438
-14.9065
-15.0527
-15.1816
-15.2925
-15.3846
-15.4573
-15.5099
-15.5417
-15.5522
-15.5409
-15.5074
-15.4512
-15.3722
-15.27
-15.1447
-14.9961
-14.8243
-14.6294
-14.4118
-14.1718
-13.9097
-13.6261
-13.3216
-12.997
-12.6528
-12.2901
-11.9096
-11.5124
-11.0995
-10.6719
-10.2307
-9.77712
-9.31221
-8.83718
-8.35322
-7.8615
-7.3632
-6.85948
-6.35149
-5.84035
-5.32714
-4.81294
-4.29877
-3.7856
-3.27437
-2.76597
-2.26123
-1.76095
-1.26586
-0.776635
-0.293902
0.181766
0.64985
1.10989
1.56146
2.00422
2.43784
2.86206
3.27666
3.68145
4.07631
4.46111
4.8358
5.20033
5.55469
5.89889
6.23298
6.55702
6.87113
7.17541
7.47
7.75507
8.03079
8.29734
8.55493
8.80375
9.04402
9.27596
9.4998
9.71577
9.92409
10.125
10.3188
10.5056
10.6857
10.8593
11.0266
11.188
11.3435
11.4935
11.6381
11.7775
11.9119
12.0416
12.1667
12.2874
12.4039
12.5163
12.6249
12.7298
12.8311
12.929
13.0237
13.1151
13.2036
13.2892
13.3719
13.452
13.5295
13.6046
13.6773
13.7477
13.816
13.8821
13.9462
14.0084
14.0686
14.127
14.1837
14.2386
14.2918
14.3434
14.3934
14.4419
14.4888
14.5341
14.578
14.6205
14.6614
14.7009
14.739
14.7756
14.8108
14.8446
14.8769
14.9078
14.9373
14.9654
14.9922
15.0176
15.0417
15.0644
15.0852
15.104
15.1174
15.1291
15.1072
-7.1063
-7.19241
-7.34653
-7.51889
-7.70229
-7.89459
-8.09239
-8.29766
-8.51496
-8.74675
-8.99329
-9.25458
-9.53053
-9.82076
-10.1234
-10.4351
-10.7524
-11.0718
-11.3903
-11.7053
-12.0146
-12.3166
-12.6099
-12.8936
-13.1667
-13.4288
-13.6792
-13.9175
-14.1432
-14.3559
-14.555
-14.74
-14.9102
-15.065
-15.2038
-15.3257
-15.4302
-15.5165
-15.5838
-15.6316
-15.6592
-15.6659
-15.6513
-15.6148
-15.5561
-15.4749
-15.3709
-15.2439
-15.094
-14.9211
-14.7254
-14.507
-14.2664
-14.0039
-13.7201
-13.4154
-13.0907
-12.7466
-12.3841
-12.0039
-11.607
-11.1945
-10.7674
-10.3268
-9.87375
-9.4095
-8.93517
-8.45193
-7.96095
-7.4634
-6.96043
-6.45318
-5.94275
-5.43024
-4.91669
-4.40311
-3.89048
-3.37972
-2.87171
-2.36728
-1.86721
-1.37223
-0.883021
-0.400197
0.0756697
0.544062
1.00451
1.45661
1.89999
2.33434
2.75939
3.17491
3.58073
3.97669
4.36269
4.73865
5.10453
5.4603
5.80597
6.1416
6.46724
6.78299
7.08896
7.38529
7.67212
7.94964
8.218
8.47742
8.72808
8.9702
9.204
9.4297
9.64751
9.85767
10.0604
10.256
10.4446
10.6264
10.8018
10.9709
11.134
11.2912
11.4428
11.5889
11.7299
11.8659
11.9971
12.1237
12.2458
12.3637
12.4775
12.5874
12.6935
12.7961
12.8952
12.991
13.0836
13.1732
13.2598
13.3436
13.4247
13.5032
13.5792
13.6528
13.7241
13.7932
13.8602
13.9251
13.988
14.049
14.1081
14.1654
14.221
14.2749
14.3271
14.3776
14.4266
14.4741
14.52
14.5644
14.6072
14.6486
14.6885
14.727
14.7639
14.7994
14.8333
14.8658
14.8967
14.9261
14.954
14.9803
15.005
15.0279
15.0489
15.0673
15.0828
15.0917
15.0979
15.0689
-7.07843
-7.16527
-7.31297
-7.48175
-7.66849
-7.87306
-8.09229
-8.3242
-8.56902
-8.82737
-9.09875
-9.38231
-9.6778
-9.98407
-10.2984
-10.6178
-10.9394
-11.2605
-11.5787
-11.8919
-12.1983
-12.4967
-12.7858
-13.065
-13.3334
-13.5906
-13.836
-14.0693
-14.29
-14.4976
-14.6917
-14.8717
-15.0372
-15.1873
-15.3216
-15.4393
-15.5397
-15.6221
-15.6859
-15.7303
-15.7547
-15.7586
-15.7413
-15.7024
-15.6416
-15.5583
-15.4525
-15.3239
-15.1725
-14.9982
-14.8013
-14.582
-14.3405
-14.0772
-13.7928
-13.4877
-13.1626
-12.8183
-12.4556
-12.0755
-11.6788
-11.2665
-10.8398
-10.3996
-9.94721
-9.48362
-9.01004
-8.52763
-8.03753
-7.54092
-7.03892
-6.53266
-6.02326
-5.51176
-4.99923
-4.48665
-3.97498
-3.46515
-2.95802
-2.45442
-1.95511
-1.46082
-0.972218
-0.489916
-0.0144782
0.453586
0.913815
1.3658
1.80918
2.24364
2.6689
3.08474
3.49098
3.88745
4.27406
4.65072
5.01737
5.37401
5.72064
6.0573
6.38404
6.70097
7.00819
7.30582
7.59402
7.87294
8.14276
8.40367
8.65585
8.89952
9.13489
9.36218
9.58159
9.79337
9.99773
10.1949
10.3851
10.5686
10.7456
10.9162
11.0808
11.2396
11.3927
11.5404
11.6829
11.8203
11.953
12.0809
12.2044
12.3237
12.4388
12.55
12.6574
12.7612
12.8615
12.9584
13.0522
13.1428
13.2305
13.3153
13.3974
13.4769
13.5538
13.6283
13.7005
13.7704
13.8382
13.9039
13.9676
14.0293
14.0891
14.1471
14.2034
14.2579
14.3107
14.3619
14.4115
14.4595
14.5059
14.5508
14.5941
14.6359
14.6763
14.7151
14.7523
14.788
14.8222
14.8548
14.8857
14.915
14.9426
14.9684
14.9922
15.0139
15.0332
15.0492
15.0614
15.0661
15.0674
15.0323
-7.18935
-7.26772
-7.39866
-7.55455
-7.7332
-7.9343
-8.15514
-8.39314
-8.64666
-8.91438
-9.19462
-9.48627
-9.78838
-10.099
-10.4156
-10.7357
-11.0568
-11.3764
-11.6926
-12.0036
-12.3077
-12.6037
-12.8906
-13.1675
-13.4339
-13.6891
-13.9326
-14.164
-14.3828
-14.5885
-14.7807
-14.9587
-15.1221
-15.2701
-15.4022
-15.5177
-15.616
-15.6962
-15.7578
-15.8001
-15.8224
-15.8242
-15.8049
-15.7641
-15.7014
-15.6164
-15.5089
-15.3787
-15.2258
-15.0502
-14.8521
-14.6316
-14.3891
-14.1251
-13.8399
-13.5343
-13.2088
-12.8643
-12.5015
-12.1215
-11.725
-11.3131
-10.8869
-10.4474
-9.99578
-9.53311
-9.06057
-8.57929
-8.09043
-7.59512
-7.09449
-6.58967
-6.08173
-5.57174
-5.06072
-4.54965
-4.03949
-3.53113
-3.02543
-2.5232
-2.02521
-1.53216
-1.04471
-0.563471
-0.0890025
0.37819
0.83765
1.28897
1.73179
2.1658
2.59073
3.00634
3.41245
3.80892
4.19561
4.57246
4.93942
5.29645
5.64357
5.98081
6.30823
6.62592
6.93398
7.23252
7.52171
7.80168
8.0726
8.33467
8.58807
8.83299
9.06965
9.29825
9.51902
9.73217
9.93792
10.1365
10.3281
10.513
10.6914
10.8635
11.0295
11.1897
11.3442
11.4933
11.6372
11.776
11.9099
12.0392
12.164
12.2845
12.4009
12.5133
12.6219
12.7269
12.8283
12.9263
13.0212
13.1128
13.2015
13.2874
13.3704
13.4508
13.5287
13.6041
13.6772
13.7479
13.8165
13.883
13.9474
14.0099
14.0704
14.1291
14.186
14.2412
14.2946
14.3464
14.3966
14.4451
14.4921
14.5374
14.5813
14.6236
14.6643
14.7034
14.741
14.777
14.8114
14.8441
14.875
14.9042
14.9314
14.9566
14.9796
15.0001
15.0176
15.0312
15.0403
15.041
15.0378
14.9975
-7.36587
-7.43044
-7.54135
-7.67979
-7.84362
-8.03236
-8.24367
-8.47487
-8.72352
-8.98727
-9.2639
-9.55224
-9.85107
-10.1582
-10.4711
-10.7875
-11.1051
-11.4216
-11.735
-12.0438
-12.3463
-12.6413
-12.9276
-13.2045
-13.471
-13.7266
-13.9707
-14.2027
-14.422
-14.6283
-14.8208
-14.9991
-15.1624
-15.3103
-15.4421
-15.557
-15.6545
-15.7338
-15.7944
-15.8354
-15.8564
-15.8568
-15.8361
-15.7938
-15.7296
-15.643
-15.534
-15.4025
-15.2482
-15.0714
-14.8721
-14.6507
-14.4073
-14.1426
-13.8569
-13.5509
-13.2253
-12.8808
-12.5182
-12.1385
-11.7427
-11.3316
-10.9063
-10.468
-10.0177
-9.55645
-9.08549
-8.60592
-8.11887
-7.62547
-7.12683
-6.62406
-6.11821
-5.61033
-5.10144
-4.5925
-4.08445
-3.57818
-3.07453
-2.57429
-2.07822
-1.58702
-1.10133
-0.621763
-0.148863
0.31687
0.774986
1.22508
1.66679
2.09982
2.52388
2.93876
3.34426
3.74023
4.12655
4.50314
4.86995
5.22696
5.57416
5.91159
6.23931
6.55739
6.86594
7.16506
7.4549
7.73561
8.00735
8.27029
8.52463
8.77054
9.00824
9.23794
9.45983
9.67414
9.88108
10.0809
10.2737
10.4599
10.6395
10.8129
10.9802
11.1417
11.2975
11.4478
11.593
11.733
11.8682
11.9987
12.1248
12.2465
12.364
12.4776
12.5873
12.6934
12.7959
12.895
12.9908
13.0836
13.1733
13.26
13.3441
13.4254
13.5041
13.5804
13.6543
13.7259
13.7953
13.8625
13.9277
13.9909
14.0521
14.1115
14.1691
14.2249
14.279
14.3313
14.3821
14.4312
14.4787
14.5245
14.5689
14.6116
14.6527
14.6923
14.7302
14.7665
14.801
14.8338
14.8648
14.8938
14.9207
14.9453
14.9674
14.9866
15.0023
15.0137
15.0198
15.0169
15.0096
14.9648
-7.53978
-7.59127
-7.68384
-7.80442
-7.95106
-8.1232
-8.31879
-8.53545
-8.77072
-9.02206
-9.28742
-9.5657
-9.85549
-10.1546
-10.4605
-10.771
-11.0837
-11.3964
-11.7073
-12.0145
-12.3164
-12.6117
-12.8991
-13.1776
-13.4462
-13.7042
-13.9508
-14.1854
-14.4073
-14.6159
-14.8106
-14.9908
-15.1558
-15.3049
-15.4376
-15.5532
-15.6509
-15.7302
-15.7905
-15.831
-15.8513
-15.8508
-15.829
-15.7856
-15.7202
-15.6324
-15.5222
-15.3895
-15.2342
-15.0565
-14.8564
-14.6342
-14.3904
-14.1253
-13.8395
-13.5336
-13.2083
-12.8644
-12.5026
-12.124
-11.7293
-11.3196
-10.896
-10.4595
-10.0112
-9.55211
-9.08348
-8.60636
-8.12189
-7.63117
-7.1353
-6.63535
-6.13237
-5.6274
-5.12141
-4.61537
-4.1102
-3.60676
-3.1059
-2.60837
-2.11493
-1.62627
-1.14301
-0.665765
-0.195065
0.268595
0.72477
1.17306
1.61311
2.04461
2.46729
2.88093
3.28533
3.68035
4.06585
4.44176
4.80802
5.16461
5.51152
5.84878
6.17645
6.4946
6.80332
7.10272
7.39294
7.67411
7.9464
8.20997
8.46501
8.71169
8.95023
9.18081
9.40364
9.61893
9.82689
10.0277
10.2217
10.409
10.5897
10.7643
10.9327
11.0954
11.2523
11.4039
11.5502
11.6914
11.8278
11.9594
12.0866
12.2095
12.3281
12.4428
12.5536
12.6607
12.7643
12.8644
12.9613
13.055
13.1456
13.2333
13.3183
13.4005
13.4801
13.5572
13.632
13.7044
13.7745
13.8425
13.9085
13.9724
14.0343
14.0944
14.1526
14.2091
14.2637
14.3167
14.368
14.4177
14.4657
14.5121
14.5569
14.6001
14.6417
14.6816
14.7199
14.7564
14.7912
14.8241
14.855
14.8839
14.9105
14.9345
14.9558
14.9737
14.9878
14.9969
15.0002
14.994
14.983
14.9345
-7.66659
-7.70877
-7.78595
-7.8899
-8.01914
-8.1732
-8.35035
-8.54864
-8.76604
-9.00036
-9.2502
-9.51485
-9.79288
-10.082
-10.3797
-10.6837
-10.9915
-11.301
-11.6101
-11.9169
-12.2196
-12.5166
-12.8067
-13.0885
-13.361
-13.6231
-13.8739
-14.1127
-14.3386
-14.5509
-14.749
-14.9322
-15.0998
-15.2511
-15.3855
-15.5024
-15.601
-15.6808
-15.7412
-15.7817
-15.8016
-15.8005
-15.778
-15.7338
-15.6674
-15.5788
-15.4678
-15.3343
-15.1784
-15.0001
-14.7996
-14.5773
-14.3336
-14.0688
-13.7835
-13.4785
-13.1542
-12.8116
-12.4514
-12.0746
-11.682
-11.2747
-10.8537
-10.4199
-9.97457
-9.51868
-9.05335
-8.57967
-8.09876
-7.61169
-7.11955
-6.62338
-6.12421
-5.62306
-5.12088
-4.61863
-4.11718
-3.61742
-3.12016
-2.62614
-2.1361
-1.65071
-1.17061
-0.696375
-0.228542
0.232404
0.686022
1.13192
1.56974
1.99917
2.41995
2.83186
3.23469
3.62829
4.01254
4.38736
4.75269
5.10848
5.45475
5.79151
6.11881
6.43672
6.74533
7.04474
7.33507
7.61647
7.88908
8.15307
8.4086
8.65587
8.89505
9.12634
9.34995
9.56607
9.77492
9.97669
10.1716
10.3599
10.5417
10.7172
10.8868
11.0505
11.2085
11.3612
11.5086
11.6509
11.7884
11.9212
12.0494
12.1733
12.2931
12.4088
12.5207
12.6288
12.7334
12.8345
12.9323
13.027
13.1186
13.2072
13.293
13.3761
13.4566
13.5346
13.6101
13.6833
13.7543
13.823
13.8897
13.9543
14.017
14.0777
14.1366
14.1937
14.249
14.3026
14.3545
14.4047
14.4533
14.5002
14.5455
14.5892
14.6312
14.6715
14.7101
14.7469
14.7819
14.815
14.8459
14.8746
14.9009
14.9244
14.9448
14.9616
14.974
14.981
14.9818
14.9726
14.9583
14.9066
-7.72205
-7.7603
-7.82589
-7.91488
-8.0271
-8.16249
-8.32003
-8.49839
-8.696
-8.91132
-9.14386
-9.3935
-9.65892
-9.93772
-10.2273
-10.5252
-10.829
-11.1363
-11.4448
-11.7525
-12.0574
-12.3577
-12.6519
-12.9384
-13.2159
-13.4833
-13.7394
-13.9834
-14.2142
-14.4311
-14.6334
-14.8202
-14.9909
-15.1448
-15.2813
-15.3998
-15.4996
-15.5802
-15.6411
-15.6816
-15.7014
-15.7
-15.6771
-15.6324
-15.5656
-15.4765
-15.3652
-15.2315
-15.0754
-14.8973
-14.6972
-14.4756
-14.2327
-13.9691
-13.6853
-13.382
-13.0599
-12.7197
-12.3622
-11.9883
-11.599
-11.1952
-10.7779
-10.3481
-9.90689
-9.45531
-8.99444
-8.52536
-8.04915
-7.56686
-7.07954
-6.58823
-6.09393
-5.59763
-5.10027
-4.60277
-4.10601
-3.61083
-3.11803
-2.62837
-2.14255
-1.66123
-1.18503
-0.714525
-0.250246
0.20733
0.657765
1.10067
1.53569
1.96251
2.38088
2.79055
3.19135
3.5831
3.96569
4.33903
4.70304
5.0577
5.40299
5.73894
6.06558
6.38298
6.69122
6.99039
7.28061
7.56202
7.83475
8.09895
8.35481
8.60248
8.84216
9.07402
9.29827
9.5151
9.7247
9.92728
10.123
10.3122
10.4949
10.6715
10.842
11.0067
11.1658
11.3195
11.4679
11.6113
11.7498
11.8837
12.013
12.1379
12.2587
12.3755
12.4883
12.5975
12.703
12.8051
12.9039
12.9995
13.092
13.1816
13.2683
13.3522
13.4336
13.5124
13.5887
13.6627
13.7344
13.8039
13.8713
13.9367
14
14.0614
14.121
14.1787
14.2347
14.2889
14.3413
14.3921
14.4413
14.4887
14.5346
14.5787
14.6212
14.6619
14.7009
14.7381
14.7733
14.8065
14.8375
14.8661
14.892
14.915
14.9347
14.9503
14.9613
14.9664
14.9648
14.9528
14.9355
14.8812
-7.70764
-7.74233
-7.79916
-7.8743
-7.96931
-8.08501
-8.2214
-8.37814
-8.55443
-8.74957
-8.96401
-9.19824
-9.45106
-9.72
-10.0023
-10.2954
-10.5965
-10.9032
-11.2128
-11.523
-11.8317
-12.1367
-12.4362
-12.7285
-13.012
-13.2854
-13.5474
-13.797
-14.0331
-14.2548
-14.4613
-14.6518
-14.8256
-14.9821
-15.1207
-15.2407
-15.3417
-15.4231
-15.4845
-15.5253
-15.5452
-15.5439
-15.5209
-15.4762
-15.4094
-15.3205
-15.2095
-15.0763
-14.9211
-14.744
-14.5453
-14.3253
-14.0845
-13.8232
-13.5422
-13.2419
-12.9232
-12.5867
-12.2332
-11.8637
-11.479
-11.08
-10.6678
-10.2434
-9.80764
-9.36173
-8.90665
-8.44347
-7.97322
-7.49695
-7.01568
-6.53041
-6.04213
-5.55179
-5.06032
-4.56861
-4.07753
-3.58789
-3.10047
-2.61603
-2.13528
-1.65884
-1.18731
-0.721271
-0.261233
0.192317
0.638947
1.07826
1.50992
1.93361
2.34906
2.75604
3.15435
3.54384
3.92437
4.29585
4.6582
5.0114
5.35542
5.69027
6.01599
6.33262
6.64025
6.93897
7.22888
7.5101
7.78277
8.04703
8.30305
8.551
8.79103
9.02335
9.24812
9.46554
9.67581
9.87911
10.0756
10.2656
10.4492
10.6266
10.7981
10.9638
11.1238
11.2785
11.4279
11.5723
11.7119
11.8467
11.9771
12.103
12.2248
12.3426
12.4565
12.5666
12.6731
12.7762
12.8759
12.9724
13.0658
13.1563
13.2439
13.3287
13.4109
13.4905
13.5676
13.6424
13.7149
13.7852
13.8533
13.9194
13.9834
14.0455
14.1057
14.1641
14.2207
14.2755
14.3286
14.38
14.4297
14.4778
14.5241
14.5688
14.6117
14.6529
14.6923
14.7298
14.7653
14.7986
14.8297
14.8582
14.884
14.9065
14.9254
14.94
14.9496
14.953
14.9492
14.9349
14.9148
14.8584
-7.64393
-7.66963
-7.71574
-7.77436
-7.84911
-7.94199
-8.05422
-8.18668
-8.3396
-8.51327
-8.70906
-8.92802
-9.16896
-9.42919
-9.70573
-9.9956
-10.2958
-10.6035
-10.9158
-11.2301
-11.5437
-11.8544
-12.16
-12.4586
-12.7484
-13.028
-13.2959
-13.5509
-13.7919
-14.018
-14.2284
-14.4223
-14.5989
-14.7577
-14.8981
-15.0195
-15.1216
-15.2039
-15.2659
-15.3072
-15.3276
-15.3268
-15.3044
-15.2604