/*--------------------------------*- C++ -*----------------------------------*\
| =========                 |                                                 |
| \\      /  F ield         | OpenFOAM: The Open Source CFD Toolbox           |
|  \\    /   O peration     | Version:  v2012                                 |
|   \\  /    A nd           | Website:  www.openfoam.com                      |
|    \\/     M anipulation  |                                                 |
\*---------------------------------------------------------------------------*/
FoamFile
{
    version     2.0;
    format      ascii;
    class       volScalarField;
    location    "3500";
    object      p;
}
// * * * * * * * * * * * * * * * * * * * * * * * * * * * * * * * * * * * * * //

dimensions      [0 2 -2 0 0 0 0];


internalField   nonuniform List<scalar> 
12225
(
514.683
55.5348
2.37069
0.289027
-1.89097
-3.36661
-3.80796
-4.01075
-4.2197
-4.37193
-4.41596
-4.41712
-4.41612
-4.4439
-4.49219
-4.56298
-4.72122
-4.93941
-122.172
0.24545
-2.7116
-0.757825
-2.20872
-3.51722
-3.9437
-4.12989
-4.26807
-4.35868
-4.42976
-4.49002
-4.54641
-4.58594
-4.61915
-4.65439
-4.73143
-4.85666
-200.639
-16.1419
-2.3397
-0.351136
-1.89316
-3.23696
-3.76222
-4.01664
-4.18824
-4.30383
-4.39727
-4.46698
-4.51843
-4.5476
-4.5707
-4.59136
-4.62937
-4.62671
-110.61
-10.9677
-2.17051
-0.424967
-1.78022
-3.02092
-3.59181
-3.90344
-4.11636
-4.2609
-4.36459
-4.43515
-4.48333
-4.51285
-4.53387
-4.54454
-4.5467
-4.48195
-61.5667
-8.13959
-3.61607
-1.2031
-2.00788
-2.99056
-3.52062
-3.84462
-4.07196
-4.22779
-4.33629
-4.4102
-4.46054
-4.49186
-4.50919
-4.5086
-4.48389
-4.39443
-45.7248
-8.77912
-5.2524
-2.19361
-2.42285
-3.09362
-3.52894
-3.82957
-4.0497
-4.20506
-4.31506
-4.39157
-4.44349
-4.47459
-4.48743
-4.47795
-4.43825
-4.3431
-35.7887
-9.27046
-6.37431
-3.11824
-2.91511
-3.28295
-3.59716
-3.85107
-4.0498
-4.19658
-4.30368
-4.3797
-4.43118
-4.46109
-4.47077
-4.45675
-4.41248
-4.32416
-27.7723
-8.90137
-6.96795
-3.79676
-3.35554
-3.49229
-3.69485
-3.89677
-4.06873
-4.20251
-4.30342
-4.37662
-4.42664
-4.45568
-4.46448
-4.45039
-4.40885
-4.33279
-21.6844
-8.51446
-7.12885
-4.30491
-3.72324
-3.70046
-3.81135
-3.96159
-4.10386
-4.22145
-4.31362
-4.38228
-4.43003
-4.45824
-4.46725
-4.45529
-4.4197
-4.35745
-16.6072
-8.13528
-7.08271
-4.75009
-4.07795
-3.92935
-3.95486
-4.04973
-4.15755
-4.25486
-4.3353
-4.39757
-4.4422
-4.46965
-4.48001
-4.47242
-4.4459
-4.40036
-12.6336
-7.6756
-6.90091
-5.09665
-4.40192
-4.16575
-4.11795
-4.15856
-4.22984
-4.30412
-4.37055
-4.4249
-4.46581
-4.49286
-4.50593
-4.5049
-4.49012
-4.46306
-9.69382
-7.14364
-6.62418
-5.3217
-4.67406
-4.39287
-4.29072
-4.28378
-4.31977
-4.37016
-4.42137
-4.46693
-4.50395
-4.5312
-4.54838
-4.55577
-4.55442
-4.54646
-7.66099
-6.5997
-6.30108
-5.42685
-4.87871
-4.5932
-4.46002
-4.41745
-4.42334
-4.45169
-4.4882
-4.52524
-4.55883
-4.58716
-4.60965
-4.62666
-4.63936
-4.64974
-6.36598
-6.10813
-5.9809
-5.43569
-5.01146
-4.75355
-4.61246
-4.54923
-4.53366
-4.54467
-4.56914
-4.5993
-4.63077
-4.66129
-4.69002
-4.71707
-4.74337
-4.7703
-5.61778
-5.71751
-5.70425
-5.38623
-5.08149
-4.8688
-4.73785
-4.6686
-4.6419
-4.6424
-4.65931
-4.68562
-4.71703
-4.7511
-4.78668
-4.82357
-4.86213
-4.90316
-5.23848
-5.45533
-5.50334
-5.32291
-5.11052
-4.94363
-4.83154
-4.76675
-4.73826
-4.73558
-4.7504
-4.77679
-4.81078
-4.84993
-4.89283
-4.93889
-4.98798
-5.04031
-5.09722
-5.33939
-5.41214
-5.29423
-5.13031
-4.99131
-4.89377
-4.83598
-4.81096
-4.81085
-4.82874
-4.85936
-4.89894
-4.94495
-4.99576
-5.05043
-5.10844
-5.1696
-5.13481
-5.39509
-5.46925
-5.3432
-5.16944
-5.02381
-4.9236
-4.86646
-4.84455
-4.84941
-4.87357
-4.91137
-4.95865
-5.01266
-5.07145
-5.13386
-5.1991
-5.2668
-5.38691
-5.64933
-5.68512
-5.47006
-5.22096
-5.03068
-4.90967
-4.84663
-4.8276
-4.83984
-4.87341
-4.92112
-4.97813
-5.04118
-5.10821
-5.17784
-5.24935
-5.32225
-5.99602
-6.13093
-6.03678
-5.6294
-5.24156
-4.98199
-4.83563
-4.7708
-4.76133
-4.78766
-4.8361
-4.89775
-4.96705
-5.04063
-5.11645
-5.19335
-5.27067
-5.34821
-7.24341
-6.88334
-6.48809
-5.75594
-5.17743
-4.84764
-4.6913
-4.64139
-4.65543
-4.70598
-4.77606
-4.8558
-4.93974
-5.02488
-5.10979
-5.19372
-5.27645
-5.35806
-9.63472
-7.9582
-6.9763
-5.76577
-4.97381
-4.60687
-4.47714
-4.46919
-4.52437
-4.60981
-4.70746
-4.80819
-4.90773
-5.00443
-5.09783
-5.18803
-5.27534
-5.36026
-13.9758
-9.38453
-7.39668
-5.56328
-4.58895
-4.25902
-4.21042
-4.27559
-4.38813
-4.51601
-4.64403
-4.76608
-4.88027
-4.98697
-5.08722
-5.18223
-5.27291
-5.36016
-20.8833
-10.9474
-7.54757
-5.05085
-4.00999
-3.83068
-3.92557
-4.09023
-4.26913
-4.44048
-4.59701
-4.73755
-4.86362
-4.97742
-5.08198
-5.17977
-5.27234
-5.36074
-29.7299
-11.9427
-7.02679
-4.11962
-3.25809
-3.37283
-3.66667
-3.94321
-4.1862
-4.39512
-4.57362
-4.72724
-4.86028
-4.9776
-5.08361
-5.18199
-5.27498
-5.36358
-43.0998
-12.6072
-5.46601
-2.72237
-2.4072
-2.95817
-3.47993
-3.85841
-4.15012
-4.38407
-4.57586
-4.73513
-4.86945
-4.98567
-5.0902
-5.18764
-5.27996
-5.36854
-84.5928
-17.3667
-3.65726
-1.25878
-1.68984
-2.71642
-3.43164
-3.86529
-4.16817
-4.40403
-4.6
-4.76171
-4.89276
-5.00168
-5.0997
-5.19378
-5.28412
-5.37243
-177.879
-26.8429
-3.67331
-0.763521
-1.52884
-2.8375
-3.60949
-4.00952
-4.26106
-4.45502
-4.63819
-4.80555
-4.94107
-5.04392
-5.1277
-5.21167
-5.2945
-5.37806
-154.784
-9.62058
-3.26557
-1.06161
-1.83682
-3.21522
-3.90885
-4.21851
-4.40721
-4.54466
-4.6848
-4.83849
-4.98828
-5.11089
-5.20181
-5.28194
-5.35505
-5.43385
428.064
66.6122
7.06274
1.60606
-0.909344
-2.85124
-3.64709
-3.98917
-4.30734
-4.5806
-4.71074
-4.75033
-4.79638
-4.89304
-5.0223
-5.13899
-5.24083
-5.31995
-8.50222
-8.48942
-8.47939
-8.52135
-8.61425
-8.7172
-8.79611
-8.83503
-8.8378
-8.81969
-8.79216
-8.76371
-8.74235
-8.7339
-8.73907
-8.75146
-8.76225
-8.76709
-8.76854
-8.77318
-8.78434
-8.81762
-8.90834
-9.08241
-9.33741
-9.65669
-10.0291
-10.4435
-10.8845
-11.3361
-11.7832
-12.214
-12.6194
-12.9928
-13.33
-13.6286
-13.8876
-14.1071
-14.2878
-14.4306
-14.5369
-14.6079
-14.6451
-14.6498
-14.6233
-14.5669
-14.4823
-14.3717
-14.2365
-14.0743
-13.8825
-13.6625
-13.4171
-13.1479
-12.8561
-12.5429
-12.2093
-11.8562
-11.4848
-11.096
-10.691
-10.2709
-9.83672
-9.38973
-8.93107
-8.46194
-7.98353
-7.49704
-7.00367
-6.50459
-6.00098
-5.49397
-4.98467
-4.47418
-3.96352
-3.45371
-2.94569
-2.44038
-1.93864
-1.44129
-0.94906
-0.462669
0.0172414
0.490079
0.955309
1.41245
1.86108
2.30082
2.73135
3.15243
3.56385
3.96543
4.35699
4.73853
5.11027
5.47222
5.82392
6.16496
6.49536
6.81534
7.12515
7.42499
7.71504
7.99549
8.26652
8.52833
8.78113
9.02515
9.26059
9.48767
9.70661
9.91766
10.1211
10.3171
10.5059
10.6878
10.8631
11.0319
11.1945
11.3511
11.502
11.6473
11.7873
11.9222
12.0523
12.1776
12.2983
12.4148
12.5271
12.6355
12.7399
12.8409
12.9388
13.0334
13.1247
13.2129
13.2981
13.3805
13.4601
13.5372
13.6118
13.684
13.7539
13.8217
13.8874
13.951
14.0128
14.0726
14.1307
14.187
14.2417
14.2947
14.3462
14.3961
14.4445
14.4914
14.5369
14.581
14.6237
14.665
14.705
14.7436
14.781
14.817
14.8518
14.8853
14.9176
14.9487
14.9788
15.0079
15.0361
15.0637
15.0911
15.1187
15.1474
15.1781
15.2135
15.2551
15.313
15.3735
-8.56018
-8.59148
-8.66554
-8.75901
-8.86196
-8.95336
-9.01368
-9.03714
-9.01911
-8.95776
-8.86761
-8.77109
-8.69037
-8.6402
-8.61886
-8.61608
-8.62617
-8.65273
-8.69136
-8.71291
-8.73552
-8.81564
-8.98122
-9.22489
-9.53462
-9.90785
-10.3348
-10.7953
-11.2677
-11.7346
-12.1835
-12.6053
-12.9936
-13.3446
-13.6568
-13.9297
-14.1639
-14.3603
-14.5202
-14.6446
-14.7347
-14.7917
-14.8165
-14.81
-14.7731
-14.7062
-14.6099
-14.4842
-14.3297
-14.1494
-13.9471
-13.723
-13.476
-13.2066
-12.9152
-12.6026
-12.2697
-11.9174
-11.5468
-11.1588
-10.7545
-10.335
-9.90142
-9.45496
-8.99675
-8.52798
-8.04985
-7.56356
-7.07031
-6.57127
-6.06761
-5.56047
-5.05096
-4.54017
-4.02914
-3.51888
-3.01034
-2.50443
-2.00203
-1.50393
-1.0109
-0.523653
-0.0428293
0.430971
0.897204
1.35538
1.80505
2.24583
2.67737
3.09936
3.51155
3.91369
4.30556
4.68705
5.05826
5.41939
5.77065
6.11204
6.44343
6.7647
7.0759
7.37715
7.66862
7.95046
8.22286
8.48602
8.74013
8.98543
9.22213
9.45048
9.67069
9.88299
10.0876
10.2848
10.4748
10.6579
10.8343
11.0042
11.1679
11.3255
11.4774
11.6238
11.7647
11.9007
12.0317
12.1581
12.28
12.3975
12.5109
12.6203
12.7259
12.8276
12.9256
13.0202
13.1117
13.2001
13.2855
13.3682
13.4481
13.5255
13.6004
13.6729
13.7431
13.8112
13.8772
13.9412
14.0032
14.0633
14.1217
14.1783
14.2332
14.2865
14.3382
14.3883
14.4369
14.4841
14.5298
14.5741
14.617
14.6585
14.6986
14.7375
14.775
14.8112
14.8461
14.8798
14.9122
14.9435
14.9737
15.0029
15.0312
15.059
15.0865
15.1142
15.1428
15.1735
15.2083
15.2478
15.3015
15.3513
-8.68743
-8.769
-8.88658
-8.99183
-9.074
-9.12707
-9.14692
-9.13233
-9.08198
-8.99827
-8.89047
-8.77544
-8.67681
-8.61373
-8.5861
-8.58221
-8.60271
-8.66222
-8.77
-8.9199
-9.11072
-9.35266
-9.64879
-9.98951
-10.3627
-10.7592
-11.1687
-11.5797
-11.9816
-12.3673
-12.7323
-13.0727
-13.3861
-13.6707
-13.9255
-14.15
-14.344
-14.5077
-14.6413
-14.745
-14.8192
-14.8644
-14.8809
-14.8692
-14.8297
-14.7629
-14.669
-14.5481
-14.4002
-14.2262
-14.0276
-13.8055
-13.5602
-13.2924
-13.0027
-12.692
-12.3609
-12.0105
-11.6416
-11.2553
-10.8525
-10.4345
-10.0022
-9.55695
-9.09978
-8.6319
-8.15452
-7.66884
-7.17604
-6.67731
-6.17382
-5.66671
-5.1571
-4.64608
-4.1347
-3.62396
-3.11484
-2.60824
-2.10505
-1.60608
-1.11209
-0.623791
-0.141849
0.333137
0.80062
1.26011
1.71115
2.15338
2.58643
3.01004
3.42395
3.82798
4.22197
4.60583
4.97953
5.34309
5.69654
6.03988
6.37309
6.69616
7.00917
7.31224
7.6055
7.88913
8.1633
8.4282
8.68404
8.93103
9.1694
9.39937
9.62117
9.83503
10.0412
10.2399
10.4313
10.6158
10.7935
10.9648
11.1298
11.2887
11.4419
11.5894
11.7316
11.8686
12.0006
12.1278
12.2504
12.3687
12.4827
12.5928
12.699
12.8014
12.9004
12.996
13.0885
13.1779
13.2643
13.3478
13.4285
13.5067
13.5823
13.6555
13.7265
13.7952
13.8617
13.9263
13.9888
14.0495
14.1083
14.1654
14.2208
14.2745
14.3265
14.3771
14.4261
14.4736
14.5196
14.5642
14.6074
14.6492
14.6897
14.7287
14.7665
14.8029
14.8381
14.8719
14.9046
14.936
14.9664
14.9957
15.0242
15.052
15.0795
15.1071
15.1355
15.1656
15.1991
15.2356
15.283
15.3166
-8.72504
-8.82199
-8.9229
-9.0091
-9.07314
-9.11237
-9.12431
-9.10638
-9.05869
-8.9864
-8.90095
-8.81925
-8.75943
-8.73409
-8.74791
-8.803
-8.90337
-9.05278
-9.25182
-9.49487
-9.77259
-10.078
-10.4055
-10.7487
-11.1024
-11.4612
-11.8198
-12.1731
-12.5165
-12.8459
-13.1581
-13.4504
-13.7208
-13.9674
-14.1893
-14.3853
-14.555
-14.6979
-14.8139
-14.9028
-14.9648
-14.9998
-15.008
-14.9895
-14.9445
-14.8731
-14.7756
-14.6523
-14.5039
-14.3307
-14.1336
-13.913
-13.6693
-13.4032
-13.1152
-12.8061
-12.4767
-12.1279
-11.7606
-11.3756
-10.9742
-10.5573
-10.1261
-9.68168
-9.22521
-8.75788
-8.2809
-7.79544
-7.30271
-6.80389
-6.30016
-5.79266
-5.28252
-4.77082
-4.25862
-3.74695
-3.23676
-2.72898
-2.2245
-1.72414
-1.22866
-0.738788
-0.255189
0.221529
0.690813
1.15216
1.60513
2.04933
2.4844
2.91008
3.32611
3.7323
4.12851
4.51466
4.89069
5.25657
5.61227
5.95778
6.29309
6.61825
6.93334
7.23847
7.53379
7.81944
8.09562
8.3625
8.62029
8.8692
9.10944
9.34125
9.56484
9.78045
9.98832
10.1887
10.3818
10.5679
10.7472
10.92
11.0864
11.2468
11.4013
11.5501
11.6936
11.8318
11.965
12.0934
12.2172
12.3366
12.4517
12.5628
12.67
12.7735
12.8735
12.9702
13.0637
13.154
13.2412
13.3256
13.4072
13.4861
13.5625
13.6364
13.708
13.7774
13.8446
13.9097
13.9728
14.0341
14.0934
14.151
14.2069
14.261
14.3136
14.3645
14.4139
14.4618
14.5082
14.5532
14.5967
14.6389
14.6796
14.719
14.757
14.7937
14.8291
14.8631
14.896
14.9276
14.9581
14.9875
15.016
15.0438
15.0711
15.0984
15.1262
15.1551
15.1864
15.2188
15.2582
15.2768
-8.51129
-8.59606
-8.69612
-8.79311
-8.87025
-8.92269
-8.94949
-8.95158
-8.93355
-8.90381
-8.87454
-8.85972
-8.87206
-8.92102
-9.01269
-9.15009
-9.33318
-9.55727
-9.81388
-10.095
-10.3951
-10.7101
-11.0355
-11.3665
-11.6986
-12.0281
-12.3518
-12.6664
-12.9693
-13.258
-13.5307
-13.7855
-14.0212
-14.2364
-14.4301
-14.6017
-14.7502
-14.8752
-14.9763
-15.0529
-15.105
-15.1321
-15.1343
-15.1114
-15.0633
-14.99
-14.8917
-14.7685
-14.6207
-14.4486
-14.2527
-14.0334
-13.7911
-13.5264
-13.2399
-12.9324
-12.6045
-12.257
-11.891
-11.5073
-11.107
-10.6911
-10.2607
-9.81693
-9.361
-8.89408
-8.41734
-7.93199
-7.43921
-6.94019
-6.43612
-5.92813
-5.41737
-4.90491
-4.39183
-3.87914
-3.36783
-2.85882
-2.35299
-1.85118
-1.35416
-0.862663
-0.37735
0.101162
0.572314
1.0356
1.49057
1.93683
2.37403
2.80187
3.22012
3.62858
4.02708
4.41553
4.79387
5.16203
5.51999
5.86774
6.20528
6.53267
6.84998
7.15732
7.45484
7.74267
8.021
8.29002
8.54991
8.80088
9.04318
9.277
9.50258
9.72013
9.9299
10.1321
10.327
10.5149
10.6959
10.8703
11.0384
11.2004
11.3564
11.5068
11.6517
11.7913
11.9259
12.0557
12.1808
12.3015
12.4179
12.5302
12.6386
12.7432
12.8443
12.942
13.0364
13.1277
13.2158
13.3011
13.3835
13.4633
13.5405
13.6152
13.6875
13.7576
13.8255
13.8913
13.9551
14.0169
14.0769
14.135
14.1914
14.2461
14.2991
14.3506
14.4004
14.4488
14.4956
14.541
14.5849
14.6274
14.6685
14.7082
14.7465
14.7835
14.8191
14.8534
14.8865
14.9182
14.9488
14.9783
15.0068
15.0344
15.0615
15.0882
15.115
15.1422
15.1708
15.1986
15.2301
15.2362
-8.09069
-8.17918
-8.30024
-8.423
-8.52819
-8.60855
-8.66691
-8.70923
-8.74323
-8.77876
-8.82678
-8.89751
-8.9989
-9.13565
-9.30986
-9.52042
-9.7626
-10.0308
-10.3197
-10.6236
-10.9369
-11.2551
-11.5741
-11.8906
-12.2018
-12.5054
-12.7997
-13.0831
-13.3541
-13.6115
-13.8539
-14.0803
-14.2897
-14.4811
-14.6535
-14.8062
-14.9383
-15.0493
-15.1384
-15.2051
-15.249
-15.2697
-15.2667
-15.2399
-15.1891
-15.1141
-15.0148
-14.8914
-14.7438
-14.5725
-14.3775
-14.1593
-13.9183
-13.655
-13.37
-13.0639
-12.7374
-12.3913
-12.0266
-11.6441
-11.2449
-10.83
-10.4005
-9.95753
-9.5022
-9.03574
-8.5593
-8.0741
-7.58131
-7.08215
-6.57777
-6.06933
-5.55797
-5.04479
-4.53085
-4.01718
-3.50476
-2.99453
-2.48738
-1.98413
-1.48559
-0.992469
-0.50545
-0.02515
0.447866
0.913089
1.37006
1.81839
2.25771
2.68773
3.1082
3.51892
3.91972
4.31048
4.69112
5.06158
5.42184
5.77187
6.1117
6.44137
6.76096
7.07058
7.37035
7.66044
7.94102
8.21225
8.47434
8.72749
8.9719
9.20781
9.43543
9.655
9.86676
10.0709
10.2678
10.4575
10.6403
10.8166
10.9864
11.15
11.3077
11.4597
11.6062
11.7474
11.8835
12.0147
12.1413
12.2633
12.3811
12.4946
12.6043
12.7101
12.8124
12.9112
13.0067
13.0989
13.1881
13.2743
13.3577
13.4384
13.5165
13.592
13.6652
13.736
13.8047
13.8712
13.9357
13.9982
14.0588
14.1176
14.1746
14.2299
14.2835
14.3354
14.3858
14.4346
14.4819
14.5278
14.5721
14.615
14.6565
14.6965
14.7352
14.7725
14.8084
14.843
14.8762
14.9081
14.9388
14.9683
14.9967
15.0241
15.0507
15.0766
15.1023
15.1275
15.153
15.1759
15.2002
15.1956
-7.62682
-7.72557
-7.86777
-8.01671
-8.15478
-8.27362
-8.3769
-8.47402
-8.57441
-8.68698
-8.81928
-8.97609
-9.16008
-9.37163
-9.609
-9.87002
-10.1517
-10.4493
-10.7576
-11.0716
-11.3869
-11.7001
-12.0086
-12.3103
-12.6036
-12.8873
-13.1603
-13.4218
-13.6708
-13.9066
-14.1282
-14.3349
-14.5259
-14.7002
-14.8571
-14.9957
-15.1154
-15.2154
-15.295
-15.3537
-15.3907
-15.4057
-15.3981
-15.3677
-15.314
-15.2369
-15.1363
-15.012
-14.8641
-14.6928
-14.4982
-14.2806
-14.0404
-13.778
-13.494
-13.1889
-12.8636
-12.5188
-12.1553
-11.774
-11.3759
-10.9622
-10.5337
-10.0916
-9.63714
-9.17141
-8.6956
-8.2109
-7.7185
-7.21959
-6.71533
-6.20689
-5.69538
-5.18192
-4.66757
-4.15335
-3.64026
-3.12923
-2.62115
-2.11686
-1.61715
-1.12276
-0.634358
-0.152576
0.32202
0.788915
1.24765
1.69781
2.13905
2.57105
2.99356
3.40637
3.80931
4.20224
4.58507
4.95774
5.32021
5.67246
6.01452
6.34643
6.66827
6.98015
7.28218
7.57451
7.85731
8.13076
8.39504
8.65036
8.89693
9.13496
9.36468
9.58633
9.80012
10.0063
10.2051
10.3968
10.5815
10.7596
10.9312
11.0967
11.2561
11.4098
11.5579
11.7007
11.8384
11.9711
12.0992
12.2226
12.3418
12.4567
12.5677
12.6748
12.7783
12.8783
12.9749
13.0683
13.1585
13.2458
13.3302
13.4118
13.4908
13.5673
13.6414
13.7131
13.7825
13.8498
13.9151
13.9783
14.0397
14.0991
14.1567
14.2126
14.2668
14.3194
14.3703
14.4197
14.4675
14.5138
14.5586
14.6019
14.6438
14.6843
14.7233
14.7609
14.7971
14.8319
14.8654
14.8975
14.9282
14.9577
14.9859
15.013
15.039
15.0641
15.0883
15.1114
15.1335
15.1516
15.1692
15.1553
-7.27376
-7.36706
-7.51924
-7.68516
-7.85225
-8.01364
-8.16888
-8.32583
-8.49267
-8.67518
-8.87737
-9.10032
-9.34258
-9.60328
-9.88183
-10.1759
-10.4816
-10.7947
-11.1109
-11.4266
-11.7391
-12.0459
-12.3453
-12.636
-12.9168
-13.1871
-13.4461
-13.6931
-13.9277
-14.1491
-14.3568
-14.55
-14.7282
-14.8906
-15.0364
-15.165
-15.2755
-15.3673
-15.4397
-15.4919
-15.5235
-15.5337
-15.5222
-15.4884
-15.432
-15.3527
-15.2503
-15.1247
-14.9759
-14.8039
-14.6089
-14.3911
-14.1509
-13.8887
-13.605
-13.3004
-12.9756
-12.6314
-12.2685
-11.888
-11.4907
-11.0777
-10.65
-10.2088
-9.75514
-9.2902
-8.81515
-8.33118
-7.83945
-7.34116
-6.83747
-6.32951
-5.81841
-5.30526
-4.79112
-4.27701
-3.76392
-3.25279
-2.74448
-2.23986
-1.73969
-1.24472
-0.755627
-0.273032
0.202492
0.670426
1.13031
1.58172
2.02432
2.45777
2.88182
3.29625
3.70086
4.09554
4.48016
4.85467
5.21901
5.57318
5.9172
6.2511
6.57496
6.88888
7.19297
7.48738
7.77227
8.04781
8.31418
8.57158
8.82023
9.06033
9.2921
9.51577
9.73157
9.93973
10.1405
10.3341
10.5207
10.7007
10.8741
11.0414
11.2025
11.3579
11.5078
11.6522
11.7915
11.9258
12.0553
12.1803
12.3009
12.4172
12.5295
12.638
12.7428
12.844
12.9418
13.0363
13.1277
13.216
13.3015
13.3841
13.4641
13.5415
13.6165
13.6891
13.7594
13.8276
13.8936
13.9576
14.0197
14.0798
14.1382
14.1947
14.2496
14.3027
14.3543
14.4042
14.4525
14.4993
14.5446
14.5884
14.6308
14.6716
14.711
14.749
14.7855
14.8206
14.8543
14.8865
14.9173
14.9467
14.9747
15.0014
15.0268
15.0507
15.0733
15.0941
15.1129
15.1262
15.1379
15.1158
-7.08623
-7.17235
-7.32665
-7.49922
-7.68289
-7.87562
-8.07402
-8.28008
-8.49826
-8.73088
-8.97824
-9.24031
-9.51699
-9.80785
-10.111
-10.4231
-10.7406
-11.0601
-11.3785
-11.6934
-12.0025
-12.3042
-12.5973
-12.8806
-13.1534
-13.4151
-13.6651
-13.9031
-14.1285
-14.3408
-14.5396
-14.7242
-14.8941
-15.0486
-15.1871
-15.3087
-15.4129
-15.4989
-15.5659
-15.6134
-15.6407
-15.6472
-15.6323
-15.5956
-15.5367
-15.4553
-15.3511
-15.2239
-15.0738
-14.9007
-14.7048
-14.4863
-14.2455
-13.9829
-13.6989
-13.3941
-13.0693
-12.7251
-12.3625
-11.9822
-11.5852
-11.1726
-10.7455
-10.3048
-9.85175
-9.38747
-8.91312
-8.42988
-7.9389
-7.44136
-6.93841
-6.43119
-5.92081
-5.40835
-4.89486
-4.38135
-3.8688
-3.35813
-2.85022
-2.3459
-1.84595
-1.35109
-0.862013
-0.379327
0.096395
0.564637
1.02493
1.47687
1.92009
2.35427
2.77914
3.1945
3.60013
3.99592
4.38174
4.75752
5.12321
5.47879
5.82428
6.15972
6.48517
6.80073
7.10652
7.40266
7.68931
7.96664
8.23483
8.49407
8.74456
8.9865
9.22013
9.44565
9.6633
9.8733
10.0759
10.2713
10.4597
10.6414
10.8167
10.9856
11.1485
11.3056
11.457
11.6031
11.7439
11.8797
12.0108
12.1372
12.2592
12.377
12.4907
12.6005
12.7065
12.809
12.908
13.0037
13.0962
13.1856
13.2721
13.3558
13.4368
13.5152
13.5911
13.6646
13.7358
13.8048
13.8717
13.9365
13.9993
14.0602
14.1192
14.1765
14.232
14.2858
14.3379
14.3884
14.4373
14.4847
14.5305
14.5748
14.6176
14.6588
14.6987
14.737
14.7738
14.8092
14.843
14.8754
14.9062
14.9355
14.9633
14.9895
15.0141
15.0369
15.0578
15.0762
15.0916
15.1005
15.1066
15.0776
-7.06127
-7.1483
-7.29607
-7.465
-7.65198
-7.85688
-8.07653
-8.30896
-8.5544
-8.81338
-9.08535
-9.36945
-9.66541
-9.97204
-10.2866
-10.6062
-10.9278
-11.2488
-11.5668
-11.8798
-12.186
-12.484
-12.7728
-13.0516
-13.3197
-13.5765
-13.8216
-14.0545
-14.2748
-14.4821
-14.6759
-14.8556
-15.0207
-15.1706
-15.3045
-15.4219
-15.5221
-15.6042
-15.6677
-15.7119
-15.7361
-15.7397
-15.7222
-15.6831
-15.622
-15.5386
-15.4326
-15.3038
-15.1522
-14.9778
-14.7807
-14.5612
-14.3195
-14.0562
-13.7716
-13.4663
-13.1412
-12.7968
-12.434
-12.0537
-11.657
-11.2446
-10.8178
-10.3777
-9.92518
-9.46157
-8.98798
-8.50555
-8.01546
-7.51886
-7.01688
-6.51066
-6.0013
-5.48986
-4.97739
-4.46488
-3.9533
-3.44356
-2.93653
-2.43304
-1.93385
-1.43968
-0.951213
-0.46905
0.0062433
0.474157
0.93423
1.38605
1.82927
2.26356
2.68865
3.10432
3.51038
3.90667
4.2931
4.66957
5.03604
5.39249
5.73893
6.0754
6.40197
6.71871
7.02574
7.32319
7.6112
7.88994
8.15958
8.42031
8.67232
8.91581
9.15101
9.37812
9.59737
9.80899
10.0132
10.2102
10.4002
10.5836
10.7604
10.9309
11.0954
11.254
11.407
11.5545
11.6969
11.8342
11.9666
12.0945
12.2179
12.337
12.452
12.563
12.6703
12.774
12.8742
12.971
13.0646
13.1552
13.2428
13.3275
13.4095
13.4888
13.5656
13.6401
13.7122
13.782
13.8497
13.9153
13.9789
14.0405
14.1003
14.1582
14.2144
14.2688
14.3216
14.3727
14.4222
14.4701
14.5164
14.5612
14.6044
14.6462
14.6864
14.7251
14.7622
14.7978
14.8319
14.8644
14.8952
14.9244
14.9519
14.9776
15.0013
15.023
15.0421
15.0581
15.0702
15.0748
15.076
15.0408
-7.17484
-7.2532
-7.3841
-7.54006
-7.71887
-7.92021
-8.14134
-8.3797
-8.63363
-8.90176
-9.18237
-9.47434
-9.77671
-10.0875
-10.4042
-10.7243
-11.0452
-11.3647
-11.6807
-11.9914
-12.2951
-12.5908
-12.8774
-13.154
-13.42
-13.6748
-13.918
-14.149
-14.3674
-14.5728
-14.7646
-14.9423
-15.1054
-15.2531
-15.385
-15.5002
-15.5982
-15.6782
-15.7395
-15.7815
-15.8036
-15.8052
-15.7857
-15.7447
-15.6818
-15.5966
-15.4889
-15.3585
-15.2054
-15.0297
-14.8314
-14.6108
-14.3682
-14.1039
-13.8187
-13.5129
-13.1873
-12.8427
-12.4799
-12.0997
-11.7031
-11.2912
-10.8649
-10.4254
-9.97373
-9.51104
-9.03848
-8.5572
-8.06834
-7.57304
-7.07245
-6.56765
-6.05976
-5.54983
-5.03887
-4.52788
-4.01781
-3.50954
-3.00394
-2.50183
-2.00395
-1.51103
-1.02371
-0.542612
-0.068289
0.398752
0.858056
1.30922
1.75187
2.18571
2.61047
3.02591
3.43184
3.82813
4.21464
4.59131
4.95807
5.31492
5.66185
5.9989
6.32614
6.64364
6.95151
7.24988
7.53887
7.81866
8.08941
8.3513
8.60452
8.84927
9.08576
9.31419
9.53479
9.74777
9.95336
10.1518
10.3432
10.528
10.7062
10.8782
11.0441
11.2041
11.3585
11.5074
11.6511
11.7898
11.9236
12.0527
12.1774
12.2978
12.4141
12.5263
12.6348
12.7397
12.841
12.9389
13.0336
13.1252
13.2138
13.2995
13.3825
13.4628
13.5405
13.6158
13.6888
13.7595
13.828
13.8944
13.9587
14.0211
14.0816
14.1402
14.1971
14.2521
14.3055
14.3572
14.4073
14.4557
14.5026
14.5479
14.5916
14.6338
14.6744
14.7135
14.7509
14.7868
14.8211
14.8537
14.8845
14.9136
14.9407
14.9658
14.9887
15.0091
15.0265
15.04
15.0491
15.0497
15.0464
15.006
-7.35289
-7.41741
-7.52828
-7.66675
-7.83069
-8.0196
-8.23112
-8.46256
-8.71146
-8.97545
-9.25231
-9.54083
-9.83978
-10.1469
-10.4599
-10.7762
-11.0935
-11.4098
-11.7231
-12.0315
-12.3337
-12.6283
-12.9143
-13.1908
-13.457
-13.7122
-13.9559
-14.1875
-14.4065
-14.6124
-14.8046
-14.9826
-15.1457
-15.2933
-15.4247
-15.5394
-15.6366
-15.7157
-15.776
-15.8168
-15.8376
-15.8378
-15.8168
-15.7743
-15.7099
-15.6232
-15.514
-15.3822
-15.2278
-15.0508
-14.8514
-14.6298
-14.3863
-14.1214
-13.8356
-13.5295
-13.2037
-12.8591
-12.4965
-12.1167
-11.7208
-11.3096
-10.8843
-10.446
-9.99559
-9.53435
-9.06338
-8.5838
-8.09676
-7.60338
-7.10478
-6.60204
-6.09624
-5.58842
-5.07959
-4.57073
-4.06277
-3.5566
-3.05305
-2.55292
-2.05697
-1.5659
-1.08035
-0.600918
-0.128164
0.337418
0.795376
1.24531
1.68686
2.11971
2.5436
2.9583
3.36363
3.75941
4.14556
4.52196
4.88859
5.24541
5.59242
5.92967
6.2572
6.57509
6.88345
7.1824
7.47205
7.75258
8.02414
8.28691
8.54106
8.78681
9.02434
9.25386
9.47559
9.68973
9.89651
10.0961
10.2889
10.4748
10.6543
10.8276
10.9947
11.156
11.3117
11.4619
11.6069
11.7468
11.8819
12.0122
12.1381
12.2597
12.3771
12.4906
12.6002
12.7061
12.8085
12.9076
13.0033
13.0959
13.1855
13.2721
13.356
13.4373
13.5159
13.5921
13.6659
13.7374
13.8067
13.8739
13.939
14.0021
14.0633
14.1226
14.1801
14.2358
14.2898
14.3421
14.3928
14.4418
14.4892
14.535
14.5792
14.6218
14.6629
14.7023
14.7401
14.7763
14.8107
14.8434
14.8742
14.9031
14.93
14.9545
14.9765
14.9956
15.0113
15.0225
15.0285
15.0255
15.0182
14.9733
-7.52741
-7.57886
-7.67141
-7.79204
-7.93877
-8.11103
-8.30678
-8.5236
-8.75903
-9.0105
-9.276
-9.55438
-9.84424
-10.1433
-10.4492
-10.7596
-11.0721
-11.3846
-11.6952
-12.0021
-12.3037
-12.5986
-12.8857
-13.1638
-13.4321
-13.6897
-13.936
-14.1702
-14.3918
-14.6001
-14.7944
-14.9743
-15.139
-15.2878
-15.4202
-15.5355
-15.633
-15.7121
-15.772
-15.8124
-15.8324
-15.8317
-15.8097
-15.7661
-15.7004
-15.6125
-15.5021
-15.3692
-15.2138
-15.0358
-14.8356
-14.6133
-14.3693
-14.1041
-13.8182
-13.5122
-13.1868
-12.8427
-12.4809
-12.1021
-11.7074
-11.2976
-10.874
-10.4374
-9.98905
-9.52999
-9.06134
-8.58423
-8.09977
-7.60907
-7.11323
-6.61332
-6.1104
-5.60548
-5.09957
-4.59361
-4.08852
-3.58519
-3.08443
-2.58702
-2.0937
-1.60516
-1.12204
-0.644939
-0.174387
0.28912
0.745137
1.19327
1.63315
2.06448
2.48699
2.90045
3.30468
3.69951
4.08483
4.46056
4.82663
5.18303
5.52976
5.86684
6.19432
6.51228
6.82081
7.12003
7.41007
7.69106
7.96317
8.22657
8.48143
8.72794
8.96631
9.19672
9.41938
9.63451
9.84231
10.043
10.2368
10.4239
10.6045
10.7789
10.9472
11.1097
11.2665
11.4179
11.5641
11.7052
11.8414
11.9729
12.1
12.2227
12.3412
12.4558
12.5665
12.6735
12.7769
12.8769
12.9737
13.0673
13.1578
13.2454
13.3302
13.4123
13.4919
13.5689
13.6436
13.7159
13.786
13.8539
13.9198
13.9836
14.0455
14.1055
14.1637
14.22
14.2746
14.3275
14.3788
14.4283
14.4763
14.5226
14.5673
14.6104
14.6518
14.6916
14.7298
14.7662
14.8009
14.8337
14.8645
14.8933
14.9197
14.9437
14.9649
14.9827
14.9967
15.0057
15.0089
15.0026
14.9916
14.943
-7.65414
-7.69634
-7.77353
-7.87752
-8.00684
-8.16101
-8.33829
-8.5367
-8.75421
-8.98863
-9.23857
-9.50331
-9.78139
-10.0705
-10.3682
-10.672
-10.9797
-11.2891
-11.5979
-11.9044
-12.2068
-12.5036
-12.7933
-13.0748
-13.3469
-13.6086
-13.8591
-14.0975
-14.3231
-14.5351
-14.7328
-14.9157
-15.083
-15.234
-15.3681
-15.4847
-15.5831
-15.6627
-15.7228
-15.763
-15.7827
-15.7814
-15.7587
-15.7142
-15.6477
-15.5589
-15.4477
-15.314
-15.1579
-14.9794
-14.7788
-14.5564
-14.3124
-14.0475
-13.7622
-13.457
-13.1326
-12.7899
-12.4296
-12.0527
-11.6601
-11.2527
-10.8316
-10.3978
-9.95245
-9.49654
-9.0312
-8.55753
-8.07663
-7.58959
-7.09747
-6.60135
-6.10224
-5.60115
-5.09905
-4.59688
-4.09552
-3.59586
-3.09871
-2.60481
-2.11489
-1.62963
-1.14967
-0.675576
-0.207891
0.252901
0.706361
1.15209
1.58975
2.01901
2.43962
2.85135
3.254
3.64742
4.03149
4.40613
4.77127
5.12688
5.47296
5.80953
6.13665
6.45438
6.7628
7.06203
7.35218
7.6334
7.90583
8.16964
8.42501
8.6721
8.91111
9.14224
9.36568
9.58164
9.79032
9.99193
10.1867
10.3748
10.5564
10.7319
10.9012
11.0648
11.2227
11.3752
11.5224
11.6646
11.802
11.9346
12.0627
12.1865
12.3062
12.4218
12.5335
12.6415
12.746
12.847
12.9447
13.0392
13.1307
13.2192
13.305
13.388
13.4683
13.5462
13.6217
13.6948
13.7657
13.8344
13.901
13.9656
14.0281
14.0888
14.1476
14.2047
14.2599
14.3134
14.3652
14.4153
14.4638
14.5107
14.5559
14.5994
14.6413
14.6815
14.72
14.7568
14.7916
14.8245
14.8554
14.884
14.9102
14.9336
14.9539
14.9705
14.9829
14.9898
14.9905
14.9812
14.9668
14.915
-7.70914
-7.74737
-7.81295
-7.90199
-8.01429
-8.1498
-8.30746
-8.48593
-8.68366
-8.89909
-9.13175
-9.38151
-9.64701
-9.92585
-10.2155
-10.5133
-10.817
-11.1241
-11.4325
-11.7399
-12.0446
-12.3446
-12.6385
-12.9247
-13.2019
-13.4689
-13.7247
-13.9683
-14.1988
-14.4154
-14.6173
-14.8038
-14.9742
-15.1278
-15.264
-15.3822
-15.4818
-15.5621
-15.6227
-15.663
-15.6825
-15.6809
-15.6578
-15.6128
-15.5458
-15.4566
-15.345
-15.2111
-15.0549
-14.8766
-14.6763
-14.4545
-14.2115
-13.9478
-13.6639
-13.3605
-13.0382
-12.6979
-12.3404
-11.9664
-11.577
-11.1732
-10.7558
-10.326
-9.88474
-9.43315
-8.97228
-8.50321
-8.02701
-7.54475
-7.05747
-6.56621
-6.07197
-5.57574
-5.07845
-4.58104
-4.08438
-3.58929
-3.0966
-2.60707
-2.12138
-1.64019
-1.16412
-0.693761
-0.22963
0.22779
0.678067
1.12081
1.55566
1.98231
2.40051
2.81001
3.21062
3.6022
3.98461
4.35776
4.72159
5.07606
5.42117
5.75693
6.08339
6.40061
6.70866
7.00765
7.2977
7.57892
7.85148
8.11551
8.37119
8.6187
8.8582
9.0899
9.31398
9.53065
9.74009
9.94251
10.1381
10.3271
10.5097
10.6861
10.8564
11.021
11.1799
11.3335
11.4818
11.625
11.7634
11.8971
12.0263
12.1511
12.2718
12.3884
12.5011
12.6102
12.7156
12.8176
12.9163
13.0117
13.1041
13.1935
13.2801
13.364
13.4453
13.524
13.6003
13.6742
13.7458
13.8153
13.8826
13.9479
14.0112
14.0726
14.132
14.1897
14.2456
14.2997
14.3521
14.4028
14.4519
14.4992
14.5449
14.589
14.6313
14.672
14.7108
14.7479
14.783
14.816
14.8469
14.8754
14.9013
14.9242
14.9437
14.9592
14.9701
14.9751
14.9734
14.9614
14.944
14.8896
-7.69435
-7.72851
-7.78528
-7.86053
-7.95566
-8.07147
-8.20799
-8.36486
-8.54128
-8.73658
-8.95118
-9.18559
-9.43856
-9.7076
-9.99001
-10.2831
-10.5842
-10.8908
-11.2003
-11.5103
-11.8188
-12.1236
-12.4228
-12.7148
-12.998
-13.2711
-13.5328
-13.7821
-14.0178
-14.2392
-14.4454
-14.6355
-14.809
-14.9652
-15.1035
-15.2232
-15.3239
-15.4051
-15.4661
-15.5067
-15.5263
-15.5247
-15.5016
-15.4566
-15.3896
-15.3005
-15.1893
-15.0559
-14.9005
-14.7233
-14.5244
-14.3043
-14.0633
-13.8019
-13.5207
-13.2203
-12.9015
-12.5649
-12.2113
-11.8417
-11.457
-11.058
-10.6457
-10.2212
-9.78548
-9.33956
-8.88448
-8.42131
-7.95109
-7.47485
-6.99362
-6.50841
-6.02018
-5.52991
-5.03852
-4.54691
-4.05592
-3.56639
-3.07908
-2.59477
-2.11414
-1.63783
-1.16645
-0.70055
-0.240663
0.212733
0.659203
1.09836
1.52985
1.95336
2.36864
2.77544
3.17358
3.56289
3.94324
4.31453
4.67671
5.02972
5.37356
5.70823
6.03376
6.35022
6.65767
6.9562
7.24593
7.52698
7.79947
8.06357
8.31942
8.56719
8.80706
9.03921
9.26382
9.48108
9.69118
9.89433
10.0907
10.2805
10.464
10.6412
10.8125
10.978
11.138
11.2925
11.4418
11.586
11.7254
11.8601
11.9903
12.1162
12.2379
12.3555
12.4692
12.5792
12.6857
12.7886
12.8882
12.9846
13.0779
13.1682
13.2557
13.3404
13.4225
13.5021
13.5792
13.6539
13.7263
13.7965
13.8646
13.9306
13.9946
14.0567
14.1168
14.1751
14.2317
14.2864
14.3394
14.3907
14.4403
14.4883
14.5345
14.579
14.6219
14.6629
14.7022
14.7396
14.7749
14.8082
14.8391
14.8676
14.8932
14.9156
14.9344
14.949
14.9584
14.9617
14.9579
14.9434
14.9233
14.8668
-7.62973
-7.65489
-7.70108
-7.75974
-7.83451
-7.92745
-8.03979
-8.17239
-8.32547
-8.49932
-8.69536
-8.91457
-9.15574
-9.41617
-9.69287
-9.98285
-10.2832
-10.5909
-10.9031
-11.2172
-11.5307
-11.8412
-12.1466
-12.445
-12.7345