/*--------------------------------*- C++ -*----------------------------------*\
| =========                 |                                                 |
| \\      /  F ield         | OpenFOAM: The Open Source CFD Toolbox           |
|  \\    /   O peration     | Version:  v2012                                 |
|   \\  /    A nd           | Website:  www.openfoam.com                      |
|    \\/     M anipulation  |                                                 |
\*---------------------------------------------------------------------------*/
FoamFile
{
    version     2.0;
    format      ascii;
    class       surfaceScalarField;
    location    "3500";
    object      phi;
}
// * * * * * * * * * * * * * * * * * * * * * * * * * * * * * * * * * * * * * //

dimensions      [0 3 -1 0 0 0 0];
oriented        oriented;


internalField   nonuniform List<scalar> 
24170
(
3.92539e-06
-7.91497e-07
3.76462e-06
1.60755e-07
3.63338e-06
1.31207e-07
3.4332e-06
2.00137e-07
3.28009e-06
1.53077e-07
3.18945e-06
9.06079e-08
3.12909e-06
6.02353e-08
3.08121e-06
4.75787e-08
3.04135e-06
3.93919e-08
3.00448e-06
3.62922e-08
2.96987e-06
3.40438e-08
2.9378e-06
3.15557e-08
2.90839e-06
2.89823e-08
2.88162e-06
2.64388e-08
2.85774e-06
2.36351e-08
2.83828e-06
1.93636e-08
2.83019e-06
8.16576e-09
-9.43699e-09
2.83974e-06
3.58444e-06
-9.19498e-07
3.80423e-06
-5.90415e-08
3.7428e-06
1.92619e-07
3.69055e-06
2.52361e-07
3.63725e-06
2.06332e-07
3.58984e-06
1.37963e-07
3.55258e-06
9.73734e-08
3.52379e-06
7.61451e-08
3.50039e-06
6.24514e-08
3.48092e-06
5.52999e-08
3.46385e-06
5.06115e-08
3.44835e-06
4.6546e-08
3.43408e-06
4.28155e-08
3.42072e-06
3.94166e-08
3.40828e-06
3.57715e-08
3.39666e-06
3.07783e-08
3.38514e-06
1.96059e-08
3.82294e-09
3.37158e-06
3.68518e-06
-7.92483e-07
3.83638e-06
-2.10252e-07
3.91492e-06
1.14073e-07
3.945e-06
2.22284e-07
3.94407e-06
2.07256e-07
3.92722e-06
1.54806e-07
3.90781e-06
1.16788e-07
3.89028e-06
9.37196e-08
3.87466e-06
7.8167e-08
3.86141e-06
6.86739e-08
3.84986e-06
6.22896e-08
3.83928e-06
5.72074e-08
3.82935e-06
5.27857e-08
3.82001e-06
4.8746e-08
3.81131e-06
4.44119e-08
3.80314e-06
3.88636e-08
3.79331e-06
2.93369e-08
1.74955e-08
3.77933e-06
4.05359e-06
-6.41512e-07
4.1146e-06
-2.71266e-07
4.20798e-06
2.06752e-08
4.26634e-06
1.63911e-07
4.29068e-06
1.82897e-07
4.29272e-06
1.52734e-07
4.28602e-06
1.23473e-07
4.27704e-06
1.02715e-07
4.2676e-06
8.7701e-08
4.25882e-06
7.75658e-08
4.25082e-06
7.0391e-08
4.24332e-06
6.47677e-08
4.23615e-06
5.9975e-08
4.22922e-06
5.5632e-08
4.22243e-06
5.11135e-08
4.2154e-06
4.57905e-08
4.20616e-06
3.84208e-08
3.02385e-08
4.19313e-06
4.50491e-06
-5.09116e-07
4.51536e-06
-2.81715e-07
4.58528e-06
-4.92493e-08
4.64664e-06
1.02547e-07
4.68257e-06
1.46971e-07
4.69681e-06
1.385e-07
4.69972e-06
1.20585e-07
4.69775e-06
1.04763e-07
4.69352e-06
9.205e-08
4.6886e-06
8.2638e-08
4.68358e-06
7.55656e-08
4.67854e-06
6.99362e-08
4.67345e-06
6.51618e-08
4.66823e-06
6.08868e-08
4.6627e-06
5.66379e-08
4.65634e-06
5.20861e-08
4.64781e-06
4.68554e-08
4.19905e-08
4.63588e-06
5.00014e-06
-3.94666e-07
4.98614e-06
-2.67714e-07
5.03068e-06
-9.37999e-08
5.08505e-06
4.81691e-08
5.12452e-06
1.07482e-07
5.14607e-06
1.1694e-07
5.15605e-06
1.10598e-07
5.15977e-06
1.01084e-07
5.16001e-06
9.18836e-08
5.15853e-06
8.42302e-08
5.15618e-06
7.80317e-08
5.15328e-06
7.29239e-08
5.14993e-06
6.85654e-08
5.1461e-06
6.47195e-08
5.1416e-06
6.11094e-08
5.13598e-06
5.76469e-08
5.12835e-06
5.43938e-08
5.22246e-08
5.11794e-06
5.54382e-06
-2.97478e-07
5.51664e-06
-2.40538e-07
5.54055e-06
-1.17704e-07
5.58387e-06
4.84467e-09
5.62165e-06
6.9704e-08
5.64657e-06
9.20295e-08
5.66123e-06
9.59598e-08
5.66931e-06
9.30548e-08
5.67327e-06
8.79835e-08
5.6748e-06
8.2783e-08
5.67485e-06
7.80727e-08
5.67388e-06
7.39628e-08
5.67211e-06
7.03927e-08
5.66956e-06
6.72911e-08
5.66608e-06
6.45772e-08
5.66138e-06
6.23221e-08
5.65493e-06
6.07671e-08
6.06646e-08
5.64643e-06
4.34788e-06
-2.39245e-07
4.32251e-06
-2.15175e-07
4.33078e-06
-1.25975e-07
4.35419e-06
-1.85707e-08
4.3784e-06
4.54844e-08
4.39647e-06
7.3947e-08
4.40846e-06
8.39704e-08
4.41604e-06
8.54911e-08
4.42063e-06
8.3428e-08
4.42326e-06
8.01995e-08
4.42457e-06
7.68066e-08
4.42494e-06
7.36351e-08
4.42456e-06
7.08101e-08
4.42347e-06
6.83853e-08
4.42165e-06
6.6399e-08
4.41895e-06
6.50049e-08
4.41519e-06
6.45054e-08
6.54588e-08
4.41032e-06
5.08622e-06
-1.85604e-07
5.05777e-06
-1.8673e-07
5.0584e-06
-1.26602e-07
5.07687e-06
-3.70386e-08
5.09918e-06
2.31682e-08
5.11774e-06
5.53864e-08
5.13129e-06
7.04309e-08
5.14065e-06
7.61457e-08
5.14691e-06
7.71971e-08
5.15097e-06
7.61668e-08
5.15347e-06
7.4332e-08
5.15482e-06
7.2315e-08
5.15523e-06
7.04189e-08
5.1548e-06
6.88201e-08
5.15352e-06
6.76634e-08
5.15136e-06
6.71584e-08
5.14823e-06
6.7594e-08
6.94325e-08
5.14425e-06
5.94839e-06
-1.38198e-07
5.91832e-06
-1.56663e-07
5.91161e-06
-1.19894e-07
5.924e-06
-4.94385e-08
5.94286e-06
4.3041e-09
5.9606e-06
3.76492e-08
5.97484e-06
5.61901e-08
5.98553e-06
6.54738e-08
5.99325e-06
6.94873e-08
5.99871e-06
7.07235e-08
6.00246e-06
7.05949e-08
6.0049e-06
6.98942e-08
6.00625e-06
6.90684e-08
6.00666e-06
6.84121e-08
6.00618e-06
6.81442e-08
6.00483e-06
6.84985e-08
6.00268e-06
6.97501e-08
7.21767e-08
5.9999e-06
6.95439e-06
-9.83189e-08
6.92402e-06
-1.26293e-07
6.91113e-06
-1.07014e-07
6.91681e-06
-5.51125e-08
6.93088e-06
-9.77371e-09
6.94637e-06
2.21556e-08
6.9602e-06
4.23732e-08
6.97146e-06
5.42195e-08
6.98022e-06
6.07279e-08
6.98688e-06
6.40704e-08
6.99184e-06
6.56437e-08
6.99542e-06
6.63137e-08
6.99786e-06
6.6636e-08
6.99931e-06
6.69656e-08
6.99987e-06
6.75825e-08
6.99965e-06
6.87211e-08
6.9988e-06
7.05877e-08
7.33911e-08
6.99758e-06
8.12719e-06
-6.64942e-08
8.09793e-06
-9.70366e-08
8.08056e-06
-8.96421e-08
8.07955e-06
-5.41102e-08
8.08794e-06
-1.81605e-08
8.09987e-06
1.02262e-08
8.11202e-06
3.02263e-08
8.1229e-06
4.33434e-08
8.13207e-06
5.15673e-08
8.13954e-06
5.65991e-08
8.14552e-06
5.96653e-08
8.15022e-06
6.16227e-08
8.15382e-06
6.30329e-08
8.15648e-06
6.43085e-08
8.15834e-06
6.57232e-08
8.15956e-06
6.75038e-08
8.16034e-06
6.98133e-08
7.27537e-08
8.16095e-06
9.49368e-06
-4.24465e-08
9.4668e-06
-7.01599e-08
9.44683e-06
-6.96769e-08
9.43991e-06
-4.71884e-08
9.4423e-06
-2.05474e-08
9.44967e-06
2.8498e-09
9.45898e-06
2.0925e-08
9.46844e-06
3.38898e-08
9.47719e-06
4.28151e-08
9.48494e-06
4.88575e-08
9.49162e-06
5.29928e-08
9.49729e-06
5.59455e-08
9.50207e-06
5.82602e-08
9.50607e-06
6.0301e-08
9.50945e-06
6.2351e-08
9.51236e-06
6.45831e-08
9.51503e-06
6.71348e-08
7.00437e-08
9.51773e-06
1.10854e-05
-2.51676e-08
1.10618e-05
-4.65211e-08
1.1041e-05
-4.88461e-08
1.10294e-05
-3.56122e-08
1.10261e-05
-1.72532e-08
1.10284e-05
4.93915e-10
1.1034e-05
1.53324e-08
1.10411e-05
2.67932e-08
1.10487e-05
3.5276e-08
1.10561e-05
4.14622e-08
1.10631e-05
4.60196e-08
1.10695e-05
4.95103e-08
1.10754e-05
5.23587e-08
1.10808e-05
5.48861e-08
1.10858e-05
5.73066e-08
1.10906e-05
5.97742e-08
1.10954e-05
6.23612e-08
6.5104e-08
1.11003e-05
1.29396e-05
-1.31275e-08
1.29194e-05
-2.62979e-08
1.28988e-05
-2.82916e-08
1.28839e-05
-2.07489e-08
1.28758e-05
-9.0811e-09
1.28732e-05
3.03344e-09
1.28748e-05
1.37985e-08
1.2879e-05
2.26143e-08
1.28847e-05
2.95356e-08
1.28913e-05
3.48987e-08
1.28982e-05
3.9102e-08
1.29052e-05
4.25093e-08
1.29121e-05
4.54128e-08
1.2919e-05
4.80313e-08
1.29258e-05
5.05144e-08
1.29326e-05
5.29557e-08
1.29395e-05
5.53987e-08
5.78476e-08
1.29468e-05
1.50998e-05
-4.49161e-09
1.50822e-05
-8.69636e-09
1.50621e-05
-8.15303e-09
1.50448e-05
-3.51947e-09
1.50327e-05
3.02638e-09
1.50259e-05
9.82835e-09
1.50237e-05
1.6024e-08
1.5025e-05
2.12953e-08
1.50289e-05
2.56531e-08
1.50346e-05
2.92514e-08
1.50414e-05
3.22881e-08
1.50489e-05
3.49434e-08
1.5057e-05
3.73619e-08
1.50654e-05
3.96458e-08
1.5074e-05
4.18582e-08
1.50829e-05
4.40301e-08
1.50922e-05
4.61644e-08
4.82426e-08
1.51018e-05
1.76171e-05
2.88482e-09
1.75999e-05
8.50055e-09
1.75787e-05
1.29875e-08
1.7559e-05
1.62198e-08
1.75436e-05
1.83894e-08
1.75336e-05
1.98551e-08
1.75287e-05
2.09208e-08
1.75282e-05
2.18387e-08
1.75311e-05
2.27533e-08
1.75365e-05
2.37725e-08
1.75439e-05
2.49329e-08
1.75526e-05
2.62568e-08
1.75622e-05
2.77267e-08
1.75725e-05
2.93241e-08
1.75834e-05
3.10079e-08
1.75947e-05
3.27423e-08
1.76064e-05
3.44772e-08
3.61716e-08
1.76184e-05
1.78181e-05
1.09933e-08
1.77994e-05
2.71838e-08
1.77768e-05
3.55833e-08
1.7756e-05
3.69971e-08
1.77402e-05
3.42533e-08
1.77302e-05
2.98503e-08
1.77257e-05
2.53891e-08
1.77259e-05
2.16398e-08
1.77298e-05
1.89181e-08
1.77363e-05
1.7213e-08
1.77448e-05
1.64227e-08
1.77547e-05
1.63642e-08
1.77656e-05
1.68813e-08
1.77771e-05
1.78055e-08
1.77891e-05
1.90167e-08
1.78014e-05
2.03898e-08
1.78141e-05
2.18479e-08
2.3302e-08
1.78269e-05
1.58702e-05
2.21269e-08
1.58478e-05
4.95523e-08
1.58233e-05
6.00892e-08
1.58032e-05
5.71802e-08
1.57899e-05
4.75399e-08
1.57834e-05
3.62921e-08
1.57827e-05
2.61035e-08
1.57863e-05
1.80399e-08
1.5793e-05
1.22373e-08
1.58018e-05
8.46505e-09
1.58119e-05
6.32204e-09
1.58228e-05
5.42913e-09
1.58343e-05
5.43811e-09
1.5846e-05
6.08215e-09
1.58579e-05
7.13504e-09
1.58699e-05
8.44094e-09
1.58818e-05
9.8627e-09
1.13198e-08
1.58938e-05
1.41313e-05
3.95338e-08
1.41021e-05
7.86793e-08
1.40745e-05
8.77471e-08
1.40557e-05
7.59845e-08
1.40469e-05
5.63517e-08
1.40462e-05
3.6975e-08
1.40512e-05
2.11362e-08
1.40597e-05
9.50506e-09
1.40703e-05
1.66987e-09
1.40819e-05
-3.15217e-09
1.4094e-05
-5.73113e-09
1.41061e-05
-6.71765e-09
1.41182e-05
-6.60364e-09
1.41301e-05
-5.77539e-09
1.41417e-05
-4.49567e-09
1.41531e-05
-2.97048e-09
1.41643e-05
-1.33133e-09
3.16423e-10
1.41753e-05
1.25772e-05
6.73515e-08
1.25392e-05
1.16715e-07
1.25091e-05
1.17852e-07
1.24942e-05
9.0842e-08
1.24928e-05
5.77604e-08
1.25002e-05
2.96271e-08
1.25122e-05
9.08908e-09
1.25263e-05
-4.55741e-09
1.25409e-05
-1.28752e-08
1.25551e-05
-1.73976e-08
1.25688e-05
-1.93479e-08
1.25817e-05
-1.96047e-08
1.25939e-05
-1.87995e-08
1.26055e-05
-1.73358e-08
1.26165e-05
-1.55172e-08
1.26271e-05
-1.35271e-08
1.26372e-05
-1.15019e-08
-9.52056e-09
1.26471e-05
1.11862e-05
1.10913e-07
1.11384e-05
1.64551e-07
1.11088e-05
1.47487e-07
1.11022e-05
9.7441e-08
1.11117e-05
4.82659e-08
1.1129e-05
1.23677e-08
1.11486e-05
-1.05049e-08
1.11678e-05
-2.37349e-08
1.11854e-05
-3.05231e-08
1.12013e-05
-3.32535e-08
1.12155e-05
-3.35316e-08
1.12283e-05
-3.23698e-08
1.12399e-05
-3.03925e-08
1.12506e-05
-2.8001e-08
1.12606e-05
-2.54344e-08
1.12699e-05
-2.28517e-08
1.12788e-05
-2.03503e-08
-1.79886e-08
1.12872e-05
9.93908e-06
1.7645e-07
9.88248e-06
2.21147e-07
9.85873e-06
1.71235e-07
9.86595e-06
9.02357e-08
9.88963e-06
2.45964e-08
9.91761e-06
-1.55984e-08
9.94393e-06
-3.67902e-08
9.96667e-06
-4.64252e-08
9.98571e-06
-4.94995e-08
1.00016e-05
-4.91325e-08
1.0015e-05
-4.6967e-08
1.00266e-05
-4.39538e-08
1.00369e-05
-4.05297e-08
1.0046e-05
-3.7087e-08
1.00544e-05
-3.37297e-08
1.00621e-05
-3.0552e-08
1.00693e-05
-2.75986e-08
-2.48773e-08
1.00762e-05
8.81963e-06
2.69915e-07
8.75784e-06
2.82934e-07
8.74788e-06
1.81201e-07
8.77483e-06
6.32865e-08
8.81461e-06
-1.51768e-08
8.85216e-06
-5.31178e-08
8.88269e-06
-6.72599e-08
8.90629e-06
-6.99455e-08
8.9243e-06
-6.75401e-08
8.93833e-06
-6.30872e-08
8.94957e-06
-5.81377e-08
8.95895e-06
-5.31111e-08
8.96692e-06
-4.84156e-08
8.97395e-06
-4.40207e-08
8.98028e-06
-4.00165e-08
8.98608e-06
-3.63058e-08
8.99151e-06
-3.29896e-08
-3.0018e-08
8.99665e-06
7.81391e-06
3.96675e-07
7.7539e-06
3.42936e-07
7.76868e-06
1.66419e-07
7.82055e-06
1.14238e-08
7.87571e-06
-7.03248e-08
7.91917e-06
-9.6559e-08
7.94972e-06
-9.78092e-08
7.97061e-06
-9.0749e-08
7.98497e-06
-8.16835e-08
7.99515e-06
-7.31714e-08
8.00288e-06
-6.56758e-08
8.00899e-06
-5.92288e-08
8.01411e-06
-5.33335e-08
8.01851e-06
-4.83225e-08
8.0225e-06
-4.38553e-08
8.02608e-06
-3.98495e-08
8.02946e-06
-3.63499e-08
-3.3247e-08
8.0327e-06
6.90424e-06
5.66768e-07
6.86137e-06
3.85802e-07
6.91717e-06
1.10614e-07
6.99676e-06
-6.81742e-08
7.06257e-06
-1.36142e-07
7.10536e-06
-1.39352e-07
7.13033e-06
-1.22654e-07
7.1445e-06
-1.04871e-07
7.15241e-06
-8.95792e-08
7.15701e-06
-7.76115e-08
7.15999e-06
-6.85244e-08
7.16221e-06
-6.11472e-08
7.16378e-06
-5.48539e-08
7.16518e-06
-4.96523e-08
7.16644e-06
-4.5143e-08
7.16755e-06
-4.09221e-08
7.16868e-06
-3.74515e-08
-3.44193e-08
7.16983e-06
6.07162e-06
7.97663e-07
6.08525e-06
3.7216e-07
6.19865e-06
-2.79115e-09
6.29991e-06
-1.69436e-07
6.3653e-06
-2.01536e-07
6.3976e-06
-1.71633e-07
6.41008e-06
-1.35248e-07
6.41332e-06
-1.07818e-07
6.41229e-06
-8.85921e-08
6.40981e-06
-7.51186e-08
6.40723e-06
-6.5886e-08
6.40475e-06
-5.87451e-08
6.40218e-06
-5.24182e-08
6.4e-06
-4.73942e-08
6.39816e-06
-4.32792e-08
6.39635e-06
-3.91395e-08
6.39496e-06
-3.61168e-08
-3.32916e-08
6.39384e-06
5.35805e-06
1.05451e-06
5.50649e-06
2.23711e-07
5.64777e-06
-1.4409e-07
5.73565e-06
-2.57335e-07
5.77649e-06
-2.42395e-07
5.7833e-06
-1.78546e-07
5.77504e-06
-1.26856e-07
5.76263e-06
-9.54995e-08
5.7501e-06
-7.62572e-08
5.73915e-06
-6.44496e-08
5.73021e-06
-5.71428e-08
5.7223e-06
-5.11117e-08
5.7146e-06
-4.4982e-08
5.70773e-06
-4.07294e-08
5.70182e-06
-3.75071e-08
5.69637e-06
-3.38282e-08
5.69203e-06
-3.18518e-08
-2.94463e-08
5.68812e-06
5.04576e-06
1.01105e-06
5.36491e-06
-9.54605e-08
5.35252e-06
-1.31743e-07
5.33287e-06
-2.3772e-07
5.29604e-06
-2.05632e-07
5.25014e-06
-1.32738e-07
5.20833e-06
-8.50642e-08
5.17425e-06
-6.15914e-08
5.14682e-06
-4.92199e-08
5.12472e-06
-4.2797e-08
5.1068e-06
-3.96046e-08
5.09097e-06
-3.58099e-08
5.07586e-06
-3.04436e-08
5.06251e-06
-2.77497e-08
5.05055e-06
-2.58024e-08
5.03954e-06
-2.30044e-08
5.03121e-06
-2.36332e-08
-2.31359e-08
5.02486e-06
5.4676e-06
5.37214e-06
5.24039e-06
5.00266e-06
4.79702e-06
4.66428e-06
4.57919e-06
4.51754e-06
4.46824e-06
4.42537e-06
4.38567e-06
4.34973e-06
4.3192e-06
4.29139e-06
4.26554e-06
4.24251e-06
4.21886e-06
4.19573e-06
2.49373e-08
-2.49529e-08
2.38874e-07
-2.1393e-07
4.9012e-07
-2.51278e-07
7.09268e-07
-2.19152e-07
8.75812e-07
-1.66571e-07
9.85826e-07
-1.10014e-07
1.04032e-06
-5.45179e-08
1.0416e-06
-1.27171e-09
9.95014e-07
4.65619e-08
9.10928e-07
8.41104e-08
8.04653e-07
1.06264e-07
6.95595e-07
1.09113e-07
6.03373e-07
9.22676e-08
5.37437e-07
6.58889e-08
4.8591e-07
5.16087e-08
4.24459e-07
6.11891e-08
3.36317e-07
8.82378e-08
2.07577e-07
1.2866e-07
3.03082e-08
1.77401e-07
-2.15033e-07
2.45605e-07
-5.19695e-07
3.04723e-07
-8.60946e-07
3.41377e-07
-1.2245e-06
3.63541e-07
-1.60107e-06
3.76581e-07
-1.98181e-06
3.8071e-07
-2.35666e-06
3.74832e-07
-2.71767e-06
3.60987e-07
-3.05965e-06
3.41965e-07
-3.37883e-06
3.19161e-07
-3.67289e-06
2.94052e-07
-3.94103e-06
2.68127e-07
-4.18357e-06
2.4254e-07
-4.40157e-06
2.1799e-07
-4.59649e-06
1.94924e-07
-4.77006e-06
1.73563e-07
-4.92404e-06
1.53985e-07
-5.06019e-06
1.3615e-07
-5.18013e-06
1.19938e-07
-5.28532e-06
1.05189e-07
-5.37704e-06
9.1723e-08
-5.4564e-06
7.93583e-08
-5.52432e-06
6.79236e-08
-5.58159e-06
5.72642e-08
-5.62883e-06
4.72474e-08
-5.6666e-06
3.77646e-08
-5.69532e-06
2.87297e-08
-5.7154e-06
2.00717e-08
-5.72716e-06
1.17622e-08
-5.7311e-06
3.93744e-09
-5.72806e-06
-3.03431e-09
-5.71915e-06
-8.90981e-09
-5.70514e-06
-1.40131e-08
-5.6864e-06
-1.87338e-08
-5.66321e-06
-2.31964e-08
-5.63572e-06
-2.74898e-08
-5.60407e-06
-3.1641e-08
-5.56841e-06
-3.56648e-08
-5.52884e-06
-3.95677e-08
-5.48549e-06
-4.33508e-08
-5.43848e-06
-4.70128e-08
-5.38793e-06
-5.05513e-08
-5.33396e-06
-5.39626e-08
-5.27672e-06
-5.72434e-08
-5.21633e-06
-6.03903e-08
-5.15293e-06
-6.34009e-08
-5.08666e-06
-6.6272e-08
-5.01766e-06
-6.90002e-08
-4.94607e-06
-7.15831e-08
-4.87205e-06
-7.40192e-08
-4.79575e-06
-7.63071e-08
-4.7173e-06
-7.84462e-08
-4.63686e-06
-8.0436e-08
-4.55459e-06
-8.22769e-08
-4.47062e-06
-8.39696e-08
-4.3851e-06
-8.55151e-08
-4.29819e-06
-8.69151e-08
-4.21002e-06
-8.81718e-08
-4.12073e-06
-8.92876e-08
-4.03046e-06
-9.02655e-08
-3.93935e-06
-9.11092e-08
-3.84753e-06
-9.18226e-08
-3.75512e-06
-9.24103e-08
-3.66224e-06
-9.28776e-08
-3.56901e-06
-9.323e-08
-3.47554e-06
-9.34737e-08
-3.38192e-06
-9.36153e-08
-3.28826e-06
-9.36632e-08
-3.19463e-06
-9.36275e-08
-3.10111e-06
-9.35211e-08
-3.00776e-06
-9.33602e-08
-2.91459e-06
-9.31659e-08
-2.82163e-06
-9.29637e-08
-2.72886e-06
-9.27714e-08
-2.63629e-06
-9.25676e-08
-2.54402e-06
-9.22655e-08
-2.45226e-06
-9.17638e-08
-2.36128e-06
-9.09786e-08
-2.27135e-06
-8.99301e-08
-2.18257e-06
-8.87766e-08
-2.09494e-06
-8.76222e-08
-2.00848e-06
-8.64663e-08
-1.92318e-06
-8.52927e-08
-1.83909e-06
-8.40946e-08
-1.75621e-06
-8.28707e-08
-1.67459e-06
-8.16242e-08
-1.59423e-06
-8.03581e-08
-1.51515e-06
-7.9077e-08
-1.43737e-06
-7.7783e-08
-1.3609e-06
-7.64743e-08
-1.28577e-06
-7.51292e-08
-1.21201e-06
-7.37615e-08
-1.13961e-06
-7.23981e-08
-1.06857e-06
-7.10343e-08
-9.98904e-07
-6.96704e-08
-9.30597e-07
-6.83086e-08
-8.63648e-07
-6.69491e-08
-7.98054e-07
-6.55956e-08
-7.33805e-07
-6.42492e-08
-6.70894e-07
-6.29133e-08
-6.09309e-07
-6.15858e-08
-5.49041e-07
-6.02692e-08
-4.90077e-07
-5.89644e-08
-4.324e-07
-5.7679e-08
-3.75985e-07
-5.64161e-08
-3.20813e-07
-5.51739e-08
-2.66866e-07
-5.39479e-08
-2.14124e-07
-5.27439e-08
-1.62568e-07
-5.15584e-08
-1.12189e-07
-5.03814e-08
-6.29829e-08
-4.92123e-08
-1.50781e-08
-4.79159e-08
3.16882e-08
-4.6778e-08
7.76255e-08
-4.59442e-08
1.22605e-07
-4.49785e-08
1.66526e-07
-4.39178e-08
2.09381e-07
-4.28522e-08
2.51182e-07
-4.18068e-08
2.91968e-07
-4.0791e-08
3.31774e-07
-3.98082e-08
3.70635e-07
-3.88541e-08
4.08573e-07
-3.79284e-08
4.45614e-07
-3.70278e-08
4.81776e-07
-3.61546e-08
5.17088e-07
-3.53054e-08
5.51569e-07
-3.44828e-08
5.85248e-07
-3.36835e-08
6.18142e-07
-3.29113e-08
6.50283e-07
-3.21626e-08
6.81697e-07
-3.14398e-08
7.12415e-07
-3.074e-08
7.4246e-07
-3.00644e-08
7.71858e-07
-2.94112e-08
8.00628e-07
-2.87825e-08
8.28798e-07
-2.81766e-08
8.56387e-07
-2.75953e-08
8.83423e-07
-2.7037e-08
9.09925e-07
-2.65029e-08
9.3592e-07
-2.59915e-08
9.61426e-07
-2.55035e-08
9.86469e-07
-2.50371e-08
1.01106e-06
-2.4592e-08
1.03523e-06
-2.41654e-08
1.05899e-06
-2.37556e-08
1.08235e-06
-2.33578e-08
1.10532e-06
-2.29668e-08
1.1279e-06
-2.25742e-08
1.15006e-06
-2.2169e-08
1.1718e-06
-2.17349e-08
1.19304e-06
-2.12503e-08
1.21372e-06
-2.06834e-08
1.23371e-06
-1.99906e-08
1.25281e-06
-1.91072e-08
1.27074e-06
-1.79371e-08
1.28706e-06
-1.63334e-08
1.30108e-06
-1.40263e-08
1.31166e-06
-1.05947e-08
1.31618e-06
-4.52985e-09
1.30926e-06
6.90383e-09
1.27962e-06
2.96242e-08
7.24515e-08
1.20716e-06
2.53718e-07
-2.78679e-07
4.88769e-07
-4.48981e-07
6.37752e-07
-4.00273e-07
7.21799e-07
-3.03202e-07
7.60699e-07
-2.05483e-07
7.6603e-07
-1.15346e-07
7.44503e-07
-3.30018e-08
7.01807e-07
4.14277e-08
6.40901e-07
1.0746e-07
5.61736e-07
1.63283e-07
4.63503e-07
2.04495e-07
3.44485e-07
2.28135e-07
1.98407e-07
2.38362e-07
1.35432e-08
2.50706e-07
-2.20447e-07
2.856e-07
-5.077e-07
3.48382e-07
-8.46259e-07
4.26797e-07
-1.22509e-06
5.07508e-07
-1.62974e-06
5.8208e-07
-2.03041e-06
6.4632e-07
-2.41846e-06
6.92791e-07
-2.79323e-06
7.16173e-07
-3.1479e-06
7.18216e-07
-3.47446e-06
7.03144e-07
-3.7681e-06
6.74335e-07
-4.028e-06
6.34723e-07
-4.25469e-06
5.87673e-07
-4.44957e-06
5.36839e-07
-4.61559e-06
4.85171e-07
-4.75625e-06
4.34705e-07
-4.87491e-06
3.86782e-07
-4.97472e-06
3.42352e-07
-5.05855e-06
3.01819e-07
-5.12889e-06
2.6526e-07
-5.18784e-06
2.32509e-07
-5.23711e-06
2.03262e-07
-5.27811e-06
1.77149e-07
-5.31196e-06
1.5378e-07
-5.33954e-06
1.32775e-07
-5.3616e-06
1.13785e-07
-5.37874e-06
9.64999e-08
-5.39148e-06
8.06571e-08
-5.40025e-06
6.60358e-08
-5.40545e-06
5.2456e-08
-5.40746e-06
3.9772e-08
-5.4066e-06
2.78701e-08
-5.4032e-06
1.66736e-08
-5.39759e-06
6.14871e-09
-5.3899e-06
-3.74914e-09
-5.37972e-06
-1.32142e-08
-5.36615e-06
-2.24793e-08
-5.34859e-06
-3.15718e-08
-5.3269e-06
-4.04314e-08
-5.30104e-06
-4.90504e-08
-5.2711e-06
-5.74361e-08
-5.23714e-06
-6.55949e-08
-5.19928e-06
-7.35296e-08
-5.1576e-06
-8.12393e-08
-5.11223e-06
-8.87208e-08
-5.06328e-06
-9.59683e-08
-5.01086e-06
-1.02975e-07
-4.95508e-06
-1.09733e-07
-4.89609e-06
-1.16235e-07
-4.83401e-06
-1.22473e-07
-4.76897e-06
-1.28444e-07
-4.7011e-06
-1.34139e-07
-4.63055e-06
-1.39553e-07
-4.55745e-06
-1.44679e-07
-4.48195e-06
-1.49516e-07
-4.4042e-06
-1.5406e-07
-4.32434e-06
-1.58311e-07
-4.2425e-06
-1.62267e-07
-4.15885e-06
-1.65928e-07
-4.07353e-06
-1.69297e-07
-3.98667e-06
-1.72375e-07
-3.89841e-06
-1.75166e-07
-3.80891e-06
-1.77674e-07
-3.7183e-06
-1.79904e-07
-3.6267e-06
-1.81862e-07
-3.53425e-06
-1.83555e-07
-3.44109e-06
-1.84991e-07
-3.34732e-06
-1.86177e-07
-3.25307e-06
-1.87124e-07
-3.15846e-06
-1.87841e-07
-3.0636e-06
-1.88339e-07
-2.96858e-06
-1.8863e-07
-2.87352e-06
-1.88724e-07
-2.77851e-06
-1.88636e-07
-2.68366e-06
-1.88377e-07
-2.58906e-06
-1.87962e-07
-2.49482e-06
-1.874e-07
-2.40109e-06
-1.86701e-07
-2.308e-06
-1.85859e-07
-2.21572e-06
-1.84844e-07
-2.12438e-06
-1.83612e-07
-2.034e-06
-1.82136e-07
-1.94457e-06
-1.80412e-07
-1.85602e-06
-1.78481e-07
-1.76837e-06
-1.76422e-07
-1.6817e-06
-1.74286e-07
-1.59608e-06
-1.72087e-07
-1.51155e-06
-1.69825e-07
-1.42814e-06
-1.67503e-07
-1.34589e-06
-1.65124e-07
-1.26482e-06
-1.62693e-07
-1.18496e-06
-1.60216e-07
-1.10634e-06
-1.57698e-07
-1.02898e-06
-1.55142e-07
-9.52901e-07
-1.52552e-07
-8.78104e-07
-1.49926e-07
-8.04587e-07
-1.47278e-07
-7.32363e-07
-1.44623e-07
-6.61436e-07
-1.41962e-07
-5.91807e-07
-1.393e-07
-5.23476e-07
-1.3664e-07
-4.56442e-07
-1.33985e-07
-3.90699e-07
-1.31338e-07
-3.26245e-07
-1.28705e-07
-2.63067e-07
-1.26092e-07
-2.01156e-07
-1.23498e-07
-1.40503e-07
-1.20923e-07
-8.10958e-08
-1.18372e-07
-2.2928e-08
-1.15847e-07
3.40158e-08
-1.13361e-07
8.97644e-08
-1.10923e-07
1.44333e-07
-1.08518e-07
1.97731e-07
-1.06143e-07
2.49975e-07
-1.03804e-07
3.01092e-07
-1.015e-07
3.5111e-07
-9.92345e-08
4.00195e-07
-9.70065e-08
4.48302e-07
-9.48911e-08
4.95216e-07
-9.28623e-08
5.41024e-07
-9.07872e-08
5.85797e-07
-8.86884e-08
6.29561e-07
-8.66184e-08
6.72347e-07
-8.45962e-08
7.1418e-07
-8.26284e-08
7.55086e-07
-8.07153e-08
7.95089e-07
-7.88547e-08
8.34212e-07
-7.70453e-08
8.72475e-07
-7.52854e-08
9.09899e-07
-7.35752e-08
9.46507e-07
-7.19129e-08
9.82323e-07
-7.02993e-08
1.01737e-06
-6.87336e-08
1.05166e-06
-6.72167e-08
1.08523e-06
-6.57473e-08
1.1181e-06
-6.43255e-08
1.1503e-06
-6.29498e-08
1.18184e-06
-6.16204e-08
1.21276e-06
-6.03365e-08
1.24307e-06
-5.90994e-08
1.2728e-06
-5.79079e-08
1.30197e-06
-5.67635e-08
1.3306e-06
-5.56644e-08
1.35871e-06
-5.46118e-08
1.38633e-06
-5.36034e-08
1.41347e-06
-5.26397e-08
1.44015e-06
-5.17175e-08
1.4664e-06
-5.08355e-08
1.49223e-06
-4.99887e-08
1.51765e-06
-4.91728e-08
1.54268e-06
-4.8379e-08
1.56731e-06
-4.75971e-08
1.59155e-06
-4.68111e-08
1.61538e-06
-4.60002e-08
1.63878e-06
-4.51345e-08
1.6617e-06
-4.41729e-08
1.68407e-06
-4.30578e-08
1.70578e-06
-4.17075e-08
1.72667e-06
-4.00036e-08
1.7465e-06
-3.77699e-08
1.7649e-06
-3.47355e-08
1.78131e-06
-3.04432e-08
1.79483e-06
-2.41304e-08
1.80452e-06
-1.42254e-08
1.80934e-06
2.07159e-09
1.80742e-06
3.15388e-08
8.81884e-08
1.79167e-06
2.44803e-07
-5.23484e-07
3.39838e-07
-5.44015e-07
3.5559e-07
-4.16031e-07
3.44246e-07
-2.91856e-07
3.16202e-07
-1.77445e-07
2.71719e-07
-7.08602e-08
2.10067e-07
2.86416e-08
1.30234e-07
1.21265e-07
3.1108e-08
2.06579e-07
-8.94991e-08
2.8389e-07
-2.37433e-07
3.52425e-07
-4.23337e-07
4.14028e-07
-6.60549e-07
4.75572e-07
-9.55489e-07
5.45626e-07
-1.29733e-06
6.27434e-07
-1.66417e-06
7.15217e-07
-2.03543e-06
7.98059e-07
-2.39462e-06
8.66709e-07
-2.72842e-06
9.15889e-07
-3.02564e-06
9.43564e-07
-3.28192e-06
9.49081e-07
-3.49908e-06
9.33343e-07
-3.68054e-06
8.99684e-07
-3.83013e-06
8.52729e-07
-3.9525e-06
7.96706e-07
-4.05305e-06
7.35275e-07
-4.13709e-06
6.71699e-07
-4.20895e-06
6.08699e-07
-4.27205e-06
5.48273e-07
-4.32899e-06
4.91641e-07
-4.38161e-06
4.39399e-07
-4.43103e-06
3.91767e-07
-4.47786e-06
3.48654e-07
-4.52238e-06
3.09777e-07
-4.56461e-06
2.74742e-07
-4.60446e-06
2.43112e-07
-4.64176e-06
2.14449e-07
-4.67632e-06
1.8834e-07
-4.70796e-06
1.64409e-07
-4.7365e-06
1.42329e-07
-4.76182e-06
1.21818e-07
-4.7838e-06
1.0264e-07
-4.80236e-06
8.46002e-08
-4.81744e-06
6.75331e-08
-4.82897e-06
5.13002e-08
-4.83688e-06
3.57834e-08
-4.84109e-06
2.08815e-08
-4.84144e-06
6.50116e-09
-4.83773e-06
-7.46435e-09
-4.82981e-06
-2.11288e-08
-4.81774e-06
-3.45497e-08
-4.8016e-06
-4.77142e-08
-4.78143e-06
-6.06005e-08
-4.75728e-06
-7.32e-08
-4.72921e-06
-8.5506e-08
-4.69729e-06
-9.75124e-08
-4.66161e-06
-1.09212e-07
-4.62225e-06
-1.20597e-07
-4.57931e-06
-1.31656e-07
-4.5329e-06
-1.42378e-07
-4.48313e-06
-1.52751e-07
-4.4301e-06
-1.62761e-07
-4.37394e-06
-1.72395e-07
-4.31477e-06
-1.81642e-07
-4.25272e-06
-1.90494e-07
-4.18792e-06
-1.98942e-07
-4.1205e-06
-2.06973e-07
-4.0506e-06
-2.14582e-07
-3.97835e-06
-2.21762e-07
-3.9039e-06
-2.2851e-07
-3.82739e-06
-2.34823e-07
-3.74895e-06
-2.407e-07
-3.66874e-06
-2.46141e-07
-3.58689e-06
-2.51148e-07
-3.50354e-06
-2.55725e-07
-3.41883e-06
-2.59875e-07
-3.3329e-06
-2.63605e-07
-3.24588e-06
-2.66922e-07
-3.15791e-06
-2.69835e-07
-3.06911e-06
-2.72353e-07
-2.97961e-06
-2.74487e-07
-2.88954e-06
-2.76248e-07
-2.79902e-06
-2.77649e-07
-2.70816e-06
-2.78703e-07
-2.61707e-06
-2.79425e-07
-2.52587e-06
-2.79829e-07
-2.43467e-06
-2.79929e-07
-2.34356e-06
-2.79742e-07
-2.25266e-06
-2.7928e-07
-2.16206e-06
-2.78558e-07
-2.07188e-06
-2.77586e-07
-1.98221e-06
-2.76371e-07
-1.89316e-06
-2.74911e-07
-1.80481e-06
-2.73193e-07
-1.71722e-06
-2.71203e-07
-1.63041e-06
-2.68938e-07
-1.54441e-06
-2.66415e-07
-1.45922e-06
-2.6367e-07
-1.37489e-06
-2.60748e-07
-1.29149e-06
-2.57686e-07
-1.20907e-06
-2.54502e-07
-1.12769e-06
-2.51208e-07
-1.04738e-06
-2.47815e-07
-9.6817e-07
-2.44331e-07
-8.90095e-07
-2.40767e-07
-8.1318e-07
-2.3713e-07
-7.37449e-07
-2.33429e-07
-6.62919e-07
-2.29672e-07
-5.89606e-07
-2.25865e-07
-5.17515e-07
-2.22017e-07
-4.46654e-07
-2.1814e-07
-3.77033e-07
-2.14243e-07
-3.08659e-07
-2.10336e-07
-2.41534e-07
-2.06426e-07
-1.75656e-07
-2.02518e-07
-1.11026e-07
-1.98616e-07
-4.76372e-08
-1.94727e-07
1.45149e-08
-1.90857e-07
7.54357e-08
-1.87012e-07
1.35133e-07
-1.83195e-07
1.93619e-07
-1.7941e-07
2.50907e-07
-1.7566e-07
3.07013e-07
-1.71953e-07
3.61947e-07
-1.68294e-07
4.15714e-07
-1.6469e-07
4.68333e-07
-1.61136e-07
5.19822e-07
-1.57632e-07
5.70201e-07
-1.54183e-07
6.19492e-07
-1.50792e-07
6.67724e-07
-1.47468e-07
7.14941e-07
-1.44225e-07
7.6112e-07
-1.41073e-07
8.06231e-07
-1.37974e-07
8.50327e-07
-1.34881e-07
8.93448e-07
-1.31808e-07
9.35617e-07
-1.28787e-07
9.76852e-07
-1.25832e-07
1.01717e-06
-1.2295e-07
1.0566e-06
-1.20142e-07
1.09515e-06
-1.17406e-07
1.13286e-06
-1.14743e-07
1.16973e-06
-1.12152e-07
1.20579e-06
-1.09631e-07
1.24106e-06
-1.07182e-07
1.27556e-06
-1.04802e-07
1.30932e-06
-1.02494e-07
1.34235e-06
-1.00256e-07
1.37468e-06
-9.80875e-08
1.40633e-06
-9.59886e-08
1.43733e-06
-9.39575e-08
1.4677e-06
-9.19945e-08
1.49746e-06
-9.00991e-08
1.52663e-06
-8.82723e-08
1.55523e-06
-8.65133e-08
1.58328e-06
-8.48229e-08
1.61082e-06
-8.31998e-08
1.63785e-06
-8.16445e-08
1.6644e-06
-8.01547e-08
1.69049e-06
-7.873e-08
1.71614e-06
-7.73666e-08
1.74137e-06
-7.60618e-08
1.76619e-06
-7.4809e-08
1.79062e-06
-7.36015e-08
1.81467e-06
-7.24272e-08
1.83834e-06
-7.12713e-08
1.86164e-06
-7.01116e-08
1.88456e-06
-6.89186e-08
1.90708e-06
-6.76505e-08
1.92915e-06
-6.62502e-08
1.95073e-06
-6.46372e-08
1.97172e-06
-6.26984e-08
1.99198e-06
-6.02707e-08
2.01132e-06
-5.71137e-08
2.02944e-06
-5.28632e-08
2.04593e-06
-4.693e-08
2.06016e-06
-3.83698e-08
2.07136e-06
-2.54345e-08
2.07868e-06
-5.24741e-09
2.08254e-06
2.76645e-08
8.56754e-08
2.08505e-06
9.21746e-08
-6.15659e-07
6.06987e-08
-5.12534e-07
1.16651e-08
-3.67e-07
-4.59849e-08
-2.342e-07
-1.16069e-07
-1.07365e-07
-2.02051e-07
1.51258e-08
-3.06941e-07
1.33529e-07
-4.3315e-07
2.47475e-07
-5.83278e-07
3.56706e-07
-7.60725e-07
4.61334e-07
-9.70248e-07
5.61947e-07
-1.21606e-06
6.59835e-07
-1.49665e-06
7.56157e-07
-1.80092e-06
8.49885e-07
-2.11007e-06
9.36584e-07
-2.4047e-06
1.00985e-06
-2.67065e-06
1.06402e-06
-2.89989e-06
1.09596e-06
-3.08927e-06
1.10527e-06
-3.23942e-06
1.09372e-06
-3.35466e-06
1.06432e-06
-3.44176e-06
1.02046e-06
-3.508e-06
9.65917e-07
-3.55979e-06
9.04529e-07
-3.60257e-06
8.39481e-07
-3.64068e-06
7.7339e-07
-3.67733e-06
7.08345e-07
-3.7145e-06
6.45867e-07
-3.75317e-06
5.86937e-07
-3.79358e-06
5.3206e-07
-3.83557e-06
4.8138e-07
-3.87861e-06
4.34811e-07
-3.92207e-06
3.92119e-07
-3.96528e-06
3.5298e-07
-4.00757e-06
3.17034e-07
-4.04837e-06
2.8391e-07
-4.08717e-06
2.53254e-07
-4.12356e-06
2.24735e-07
-4.15721e-06
1.98056e-07
-4.18784e-06
1.72953e-07
-4.21522e-06
1.492e-07
-4.23918e-06
1.26601e-07
-4.25957e-06
1.0499e-07
-4.27626e-06
8.42272e-08
-4.28915e-06
6.4194e-08
-4.29816e-06
4.47893e-08
-4.30321e-06
2.59276e-08
-4.30424e-06
7.53246e-09
-4.30123e-06
-1.04693e-08
-4.29422e-06
-2.81383e-08
-4.28327e-06
-4.55016e-08
-4.26843e-06
-6.25553e-08
-4.24974e-06
-7.92869e-08
-4.22726e-06
-9.56835e-08
-4.20103e-06
-1.11731e-07
-4.17113e-06
-1.27416e-07
-4.13762e-06
-1.42721e-07
-4.10059e-06
-1.57631e-07
-4.06012e-06
-1.72127e-07
-4.0163e-06
-1.86191e-07
-3.96925e-06
-1.99805e-07
-3.91906e-06
-2.1295e-07
-3.86585e-06
-2.25607e-07
-3.80973e-06
-2.37759e-07
-3.75083e-06
-2.49396e-07
-3.68927e-06
-2.60503e-07
-3.62518e-06
-2.71067e-07
-3.55868e-06
-2.81077e-07
-3.48991e-06
-2.90527e-07
-3.41902e-06
-2.99409e-07
-3.34612e-06
-3.07721e-07
-3.27136e-06
-3.1546e-07
-3.19487e-06
-3.22627e-07
-3.1168e-06
-3.29223e-07
-3.03727e-06
-3.35253e-07
-2.95642e-06
-3.40723e-07
-2.87439e-06
-3.45639e-07
-2.7913e-06
-3.50012e-07
-2.70728e-06
-3.53851e-07
-2.62246e-06
-3.57169e-07
-2.53697e-06
-3.59979e-07
-2.45092e-06
-3.62297e-07
-2.36443e-06
-3.64136e-07
-2.27762e-06
-3.65515e-07
-2.1906e-06
-3.6645e-07
-2.10347e-06
-3.66959e-07
-2.01634e-06
-3.6706e-07
-1.92931e-06
-3.6677e-07
-1.84248e-06
-3.66108e-07
-1.75595e-06
-3.65087e-07
-1.66982e-06
-3.63723e-07
-1.58416e-06
-3.62027e-07
-1.49907e-06
-3.60005e-07
-1.4146e-06
-3.57658e-07
-1.33082e-06
-3.54989e-07
-1.24774e-06
-3.52008e-07
-1.16542e-06
-3.48735e-07
-1.08389e-06
-3.45201e-07
-1.0032e-06
-3.41443e-07
-9.23392e-07
-3.37489e-07
-8.44529e-07
-3.33364e-07
-7.66651e-07
-3.29085e-07
-6.89797e-07
-3.24669e-07
-6.13999e-07
-3.20129e-07
-5.39286e-07
-3.15479e-07
-4.65683e-07
-3.10732e-07
-3.93213e-07
-3.05899e-07
-3.21893e-07