/*--------------------------------*- C++ -*----------------------------------*\
  =========                 |
  \\      /  F ield         | OpenFOAM: The Open Source CFD Toolbox
   \\    /   O peration     | Website:  https://openfoam.org
    \\  /    A nd           | Version:  8
     \\/     M anipulation  |
\*---------------------------------------------------------------------------*/
FoamFile
{
    version     2.0;
    format      ascii;
    class       surfaceScalarField;
    location    "3500";
    object      phi;
}
// * * * * * * * * * * * * * * * * * * * * * * * * * * * * * * * * * * * * * //

dimensions      [0 3 -1 0 0 0 0];

internalField   nonuniform List<scalar> 
24170
(
3.92539e-06
-7.91498e-07
3.76465e-06
1.6075e-07
3.63345e-06
1.31209e-07
3.43331e-06
2.00144e-07
3.28028e-06
1.53027e-07
3.18901e-06
9.11905e-08
3.13091e-06
5.81103e-08
3.08609e-06
4.58912e-08
3.04612e-06
4.23234e-08
3.01059e-06
3.81625e-08
2.97876e-06
3.38022e-08
2.94904e-06
3.07701e-08
2.92187e-06
2.73777e-08
2.89642e-06
2.51999e-08
2.87227e-06
2.36053e-08
2.85193e-06
1.94839e-08
2.84097e-06
9.85703e-09
-6.37763e-09
2.84668e-06
3.58445e-06
-9.19499e-07
3.80424e-06
-5.90413e-08
3.74282e-06
1.92629e-07
3.6906e-06
2.52374e-07
3.63729e-06
2.06333e-07
3.59023e-06
1.3828e-07
3.55289e-06
9.55995e-08
3.52309e-06
7.56595e-08
3.49853e-06
6.65695e-08
3.47732e-06
5.9215e-08
3.45871e-06
5.25292e-08
3.44253e-06
4.72646e-08
3.42795e-06
4.23379e-08
3.41466e-06
3.87866e-08
3.40269e-06
3.57306e-08
3.39122e-06
3.10527e-08
3.38036e-06
2.08423e-08
4.78072e-09
3.36943e-06
3.68518e-06
-7.92482e-07
3.83639e-06
-2.10251e-07
3.91494e-06
1.14082e-07
3.94502e-06
2.22293e-07
3.94408e-06
2.07264e-07
3.92749e-06
1.54897e-07
3.90755e-06
1.15615e-07
3.88932e-06
9.36443e-08
3.874e-06
8.11964e-08
3.86056e-06
7.19158e-08
3.84834e-06
6.42561e-08
3.83728e-06
5.81354e-08
3.82691e-06
5.27794e-08
3.8174e-06
4.84755e-08
3.80891e-06
4.44342e-08
3.80097e-06
3.92542e-08
3.79195e-06
3.02082e-08
1.77977e-08
3.77944e-06
4.05359e-06
-6.4151e-07
4.1146e-06
-2.71259e-07
4.20799e-06
2.06915e-08
4.26635e-06
1.63932e-07
4.2907e-06
1.82926e-07
4.29287e-06
1.52748e-07
4.28571e-06
1.22819e-07
4.27631e-06
1.02843e-07
4.26727e-06
8.96862e-08
4.25873e-06
7.98176e-08
4.25056e-06
7.19498e-08
4.24283e-06
6.56351e-08
4.23534e-06
6.02468e-08
4.22823e-06
5.56938e-08
4.22149e-06
5.13533e-08
4.21464e-06
4.63465e-08
4.20598e-06
3.91851e-08
3.06608e-08
4.19351e-06
4.50491e-06
-5.09114e-07
4.51536e-06
-2.81708e-07
4.58529e-06
-4.92343e-08
4.64665e-06
1.02566e-07
4.68258e-06
1.46992e-07
4.69688e-06
1.38473e-07
4.69946e-06
1.20237e-07
4.69723e-06
1.04925e-07
4.69331e-06
9.32551e-08
4.68868e-06
8.40575e-08
4.68366e-06
7.66422e-08
4.67851e-06
7.06085e-08
4.67321e-06
6.54951e-08
4.66783e-06
6.11066e-08
4.66227e-06
5.7006e-08
4.65606e-06
5.27045e-08
4.64786e-06
4.75925e-08
4.26066e-08
4.63612e-06
5.00014e-06
-3.94663e-07
4.98614e-06
-2.67704e-07
5.03069e-06
-9.37791e-08
5.08506e-06
4.81978e-08
5.12454e-06
1.07516e-07
5.14608e-06
1.1694e-07
5.15584e-06
1.10489e-07
5.1594e-06
1.01285e-07
5.15985e-06
9.26079e-08
5.15859e-06
8.50839e-08
5.15629e-06
7.87434e-08
5.15333e-06
7.34432e-08
5.14984e-06
6.89345e-08
5.14589e-06
6.50646e-08
5.14135e-06
6.1588e-08
5.13584e-06
5.8311e-08
5.12839e-06
5.51502e-08
5.30532e-08
5.11808e-06
5.54382e-06
-2.97475e-07
5.51664e-06
-2.40529e-07
5.54055e-06
-1.17686e-07
5.58388e-06
4.8702e-09
5.62166e-06
6.97342e-08
5.64656e-06
9.2046e-08
5.66107e-06
9.59683e-08
5.66906e-06
9.32471e-08
5.67315e-06
8.84245e-08
5.67481e-06
8.33014e-08
5.6749e-06
7.85522e-08
5.6739e-06
7.43761e-08
5.67204e-06
7.07665e-08
5.6694e-06
6.76969e-08
5.66591e-06
6.5101e-08
5.66127e-06
6.29897e-08
5.65494e-06
6.1549e-08
6.15342e-08
5.6465e-06
4.34788e-06
-2.39242e-07
4.32251e-06
-2.15162e-07
4.33078e-06
-1.25951e-07
4.35419e-06
-1.85364e-08
4.3784e-06
4.55258e-08
4.39646e-06
7.39847e-08
4.40841e-06
8.40227e-08
4.41597e-06
8.56736e-08
4.42059e-06
8.37678e-08
4.42325e-06
8.05979e-08
4.42456e-06
7.71969e-08
4.4249e-06
7.40033e-08
4.42446e-06
7.11808e-08
4.42334e-06
6.88112e-08
4.42151e-06
6.69381e-08
4.41884e-06
6.56725e-08
4.41514e-06
6.52706e-08
6.6351e-08
4.41035e-06
5.08621e-06
-1.85599e-07
5.05777e-06
-1.86718e-07
5.0584e-06
-1.26578e-07
5.07686e-06
-3.70025e-08
5.09918e-06
2.32138e-08
5.11773e-06
5.5436e-08
5.13124e-06
7.05069e-08
5.14059e-06
7.63167e-08
5.14686e-06
7.74756e-08
5.15094e-06
7.64973e-08
5.15344e-06
7.46765e-08
5.15477e-06
7.26667e-08
5.15514e-06
7.07974e-08
5.15468e-06
6.92651e-08
5.15341e-06
6.82112e-08
5.15128e-06
6.78147e-08
5.14821e-06
6.83521e-08
7.02738e-08
5.14429e-06
5.94839e-06
-1.38193e-07
5.91832e-06
-1.56649e-07
5.91161e-06
-1.19866e-07
5.924e-06
-4.93969e-08
5.94286e-06
4.35847e-09
5.96058e-06
3.77166e-08
5.97479e-06
5.6291e-08
5.98546e-06
6.56463e-08
5.9932e-06
6.97357e-08
5.99867e-06
7.10173e-08
6.00242e-06
7.09156e-08
6.00484e-06
7.024e-08
6.00618e-06
6.94584e-08
6.00657e-06
6.88678e-08
6.0061e-06
6.86886e-08
6.00478e-06
6.91365e-08
6.00267e-06
7.04627e-08
7.29768e-08
5.99997e-06
6.95439e-06
-9.8313e-08
6.92402e-06
-1.26278e-07
6.91113e-06
-1.06984e-07
6.9168e-06
-5.50659e-08
6.93087e-06
-9.71064e-09
6.94635e-06
2.22392e-08
6.96015e-06
4.24926e-08
6.9714e-06
5.4396e-08
6.98017e-06
6.09613e-08
6.98684e-06
6.43476e-08
6.9918e-06
6.59551e-08
6.99537e-06
6.66647e-08
6.9978e-06
6.70306e-08
6.99924e-06
6.74243e-08
6.99982e-06
6.81136e-08
6.99963e-06
6.93248e-08
6.99883e-06
7.1268e-08
7.41298e-08
6.99768e-06
8.12719e-06
-6.64878e-08
8.09793e-06
-9.70212e-08
8.08056e-06
-8.96091e-08
8.07955e-06
-5.4059e-08
8.08793e-06
-1.80896e-08
8.09985e-06
1.03225e-08
8.11198e-06
3.03586e-08
8.12286e-06
4.35218e-08
8.13202e-06
5.17951e-08
8.1395e-06
5.68675e-08
8.14548e-06
5.99752e-08
8.15018e-06
6.19697e-08
8.15378e-06
6.34311e-08
8.15644e-06
6.47569e-08
8.15832e-06
6.62334e-08
8.15958e-06
6.80742e-08
8.1604e-06
7.04411e-08
7.34392e-08
8.16109e-06
9.49368e-06
-4.24388e-08
9.4668e-06
-7.0143e-08
9.44683e-06
-6.96406e-08
9.43991e-06
-4.71321e-08
9.44229e-06
-2.04683e-08
9.44965e-06
2.95503e-09
9.45895e-06
2.1064e-08
9.4684e-06
3.407e-08
9.47716e-06
4.30358e-08
9.48491e-06
4.91201e-08
9.49159e-06
5.3293e-08
9.49727e-06
5.6291e-08
9.50205e-06
5.86457e-08
9.50607e-06
6.07377e-08
9.50947e-06
6.28337e-08
9.51243e-06
6.51198e-08
9.51515e-06
6.77143e-08
7.06705e-08
9.51792e-06
1.10854e-05
-2.51592e-08
1.10618e-05
-4.65029e-08
1.1041e-05
-4.88071e-08
1.10294e-05
-3.55521e-08
1.10261e-05
-1.71703e-08
1.10284e-05
6.04327e-10
1.1034e-05
1.5474e-08
1.10411e-05
2.69701e-08
1.10487e-05
3.54909e-08
1.10561e-05
4.17148e-08
1.1063e-05
4.63123e-08
1.10695e-05
4.98418e-08
1.10754e-05
5.27337e-08
1.10808e-05
5.53018e-08
1.10859e-05
5.77667e-08
1.10908e-05
6.0272e-08
1.10956e-05
6.2898e-08
6.56683e-08
1.11006e-05
1.29396e-05
-1.31188e-08
1.29194e-05
-2.62789e-08
1.28988e-05
-2.82524e-08
1.28839e-05
-2.06882e-08
1.28758e-05
-8.99641e-09
1.28732e-05
3.14418e-09
1.28748e-05
1.39392e-08
1.28789e-05
2.27875e-08
1.28847e-05
2.97434e-08
1.28913e-05
3.51419e-08
1.28982e-05
3.9382e-08
1.29052e-05
4.28267e-08
1.29122e-05
4.57682e-08
1.29191e-05
4.84234e-08
1.29259e-05
5.09415e-08
1.29327e-05
5.3414e-08
1.29398e-05
5.58841e-08
5.83548e-08
1.29471e-05
1.50998e-05
-4.48326e-09
1.50822e-05
-8.6763e-09
1.50621e-05
-8.11401e-09
1.50448e-05
-3.4588e-09
1.50327e-05
3.10902e-09
1.50259e-05
9.93785e-09
1.50237e-05
1.61608e-08
1.5025e-05
2.14631e-08
1.50289e-05
2.58519e-08
1.50346e-05
2.9483e-08
1.50414e-05
3.25526e-08
1.5049e-05
3.5241e-08
1.50571e-05
3.76916e-08
1.50655e-05
4.00056e-08
1.50742e-05
4.22456e-08
1.50832e-05
4.44409e-08
1.50925e-05
4.65942e-08
4.86871e-08
1.51021e-05
1.76171e-05
2.89291e-09
1.75999e-05
8.52288e-09
1.75787e-05
1.30292e-08
1.7559e-05
1.62773e-08
1.75436e-05
1.84717e-08
1.75336e-05
1.99568e-08
1.75287e-05
2.1051e-08
1.75282e-05
2.19922e-08
1.75311e-05
2.29379e-08
1.75366e-05
2.39835e-08
1.7544e-05
2.51751e-08
1.75527e-05
2.65255e-08
1.75624e-05
2.80236e-08
1.75727e-05
2.96439e-08
1.75836e-05
3.13499e-08
1.7595e-05
3.31006e-08
1.76067e-05
3.485e-08
3.65535e-08
1.76188e-05
1.78181e-05
1.10001e-08
1.77994e-05
2.72122e-08
1.77768e-05
3.56236e-08
1.7756e-05
3.70576e-08
1.77402e-05
3.43253e-08
1.77302e-05
2.99452e-08
1.77257e-05
2.54989e-08
1.77259e-05
2.17763e-08
1.77298e-05
1.90733e-08
1.77364e-05
1.73979e-08
1.77449e-05
1.66301e-08
1.77549e-05
1.66008e-08
1.77658e-05
1.71388e-08
1.77773e-05
1.80869e-08
1.77894e-05
1.93125e-08
1.78018e-05
2.07025e-08
1.78144e-05
2.21669e-08
2.36302e-08
1.78274e-05
1.58702e-05
2.21332e-08
1.58478e-05
4.95809e-08
1.58233e-05
6.01315e-08
1.58032e-05
5.72336e-08
1.57899e-05
4.76092e-08
1.57834e-05
3.63703e-08
1.57827e-05
2.61958e-08
1.57864e-05
1.81451e-08
1.57931e-05
1.23633e-08
1.58019e-05
8.61033e-09
1.5812e-05
6.49462e-09
1.5823e-05
5.6264e-09
1.58345e-05
5.66264e-09
1.58462e-05
6.32706e-09
1.58581e-05
7.39954e-09
1.58701e-05
8.71569e-09
1.58821e-05
1.0148e-08
1.16056e-08
1.58942e-05
1.41313e-05
3.95385e-08
1.41021e-05
7.87063e-08
1.40745e-05
8.77869e-08
1.40557e-05
7.60372e-08
1.40469e-05
5.64119e-08
1.40462e-05
3.70378e-08
1.40512e-05
2.12086e-08
1.40597e-05
9.58035e-09
1.40704e-05
1.76089e-09
1.4082e-05
-3.05028e-09
1.40941e-05
-5.60591e-09
1.41063e-05
-6.5622e-09
1.41184e-05
-6.41641e-09
1.41303e-05
-5.55872e-09
1.41419e-05
-4.25901e-09
1.41534e-05
-2.71801e-09
1.41646e-05
-1.07266e-09
5.78648e-10
1.41756e-05
1.25772e-05
6.73554e-08
1.25392e-05
1.16739e-07
1.25091e-05
1.17888e-07
1.24942e-05
9.08898e-08
1.24928e-05
5.78122e-08
1.25002e-05
2.9681e-08
1.25122e-05
9.12875e-09
1.25264e-05
-4.49866e-09
1.25409e-05
-1.28371e-08
1.25552e-05
-1.73491e-08
1.25689e-05
-1.92842e-08
1.25819e-05
-1.94996e-08
1.25941e-05
-1.86534e-08
1.26057e-05
-1.71515e-08
1.26167e-05
-1.5302e-08
1.26273e-05
-1.32936e-08
1.26375e-05
-1.1258e-08
-9.27688e-09
1.26473e-05
1.11862e-05
1.10916e-07
1.11384e-05
1.6457e-07
1.11088e-05
1.4752e-07
1.11022e-05
9.74837e-08
1.11117e-05
4.83115e-08
1.11289e-05
1.23997e-08
1.11486e-05
-1.04635e-08
1.11678e-05
-2.37295e-08
1.11855e-05
-3.051e-08
1.12014e-05
-3.32919e-08
1.12157e-05
-3.35548e-08
1.12285e-05
-3.23579e-08
1.12402e-05
-3.03014e-08
1.12509e-05
-2.78493e-08
1.12608e-05
-2.52374e-08
1.12701e-05
-2.26312e-08
1.1279e-05
-2.01178e-08
-1.77491e-08
1.12875e-05
9.93908e-06
1.76451e-07
9.88248e-06
2.21163e-07
9.85873e-06
1.71262e-07
9.86593e-06
9.02748e-08
9.8896e-06
2.46378e-08
9.91759e-06
-1.5557e-08
9.94391e-06
-3.67965e-08
9.96668e-06
-4.64119e-08
9.98571e-06
-4.96131e-08
1.00017e-05
-4.92898e-08
1.00152e-05
-4.71275e-08
1.00269e-05
-4.40006e-08
1.00371e-05
-4.05352e-08
1.00463e-05
-3.69933e-08
1.00546e-05
-3.35628e-08
1.00623e-05
-3.03405e-08
1.00696e-05
-2.73557e-08
-2.46368e-08
1.00765e-05
8.81963e-06
2.69916e-07
8.75785e-06
2.82944e-07
8.74788e-06
1.81225e-07
8.77481e-06
6.33226e-08
8.81458e-06
-1.51297e-08
8.85212e-06
-5.30927e-08
8.88268e-06
-6.72307e-08
8.90623e-06
-7.00278e-08
8.92427e-06
-6.76209e-08
8.93842e-06
-6.33754e-08
8.94984e-06
-5.84082e-08
8.95925e-06
-5.33427e-08
8.96726e-06
-4.84897e-08
8.97427e-06
-4.39846e-08
8.98055e-06
-3.98422e-08
8.98633e-06
-3.6098e-08
8.99172e-06
-3.27614e-08
-2.97725e-08
8.99687e-06
7.81391e-06
3.96675e-07
7.75391e-06
3.42943e-07
7.76868e-06
1.6644e-07
7.82053e-06
1.14608e-08
7.87567e-06
-7.02745e-08
7.91912e-06
-9.64918e-08
7.94967e-06
-9.78359e-08
7.97057e-06
-9.06518e-08
7.98483e-06
-8.15935e-08
7.99524e-06
-7.35595e-08
8.00315e-06
-6.61193e-08
8.00938e-06
-5.94339e-08
8.01449e-06
-5.33502e-08
8.0189e-06
-4.82003e-08
8.02279e-06
-4.36408e-08
8.02632e-06
-3.96578e-08
8.02968e-06
-3.61452e-08
-3.30411e-08
8.03292e-06
6.90424e-06
5.66768e-07
6.86137e-06
3.85804e-07
6.91716e-06
1.10634e-07
6.99674e-06
-6.81332e-08
7.06253e-06
-1.36071e-07
7.10529e-06
-1.39269e-07
7.13031e-06
-1.22549e-07
7.14447e-06
-1.04618e-07
7.15207e-06
-8.89996e-08
7.15708e-06
-7.58136e-08
7.16036e-06
-6.66917e-08
7.16269e-06
-5.95616e-08
7.16421e-06
-5.41876e-08
7.16558e-06
-4.93237e-08
7.16674e-06
-4.46777e-08
7.1678e-06
-4.09197e-08
7.1689e-06
-3.79461e-08
-3.48291e-08
7.17005e-06
6.07162e-06
7.97662e-07
6.08526e-06
3.72164e-07
6.19865e-06
-2.77343e-09
6.29989e-06
-1.69398e-07
6.36526e-06
-2.01462e-07
6.39754e-06
-1.71503e-07
6.41011e-06
-1.35217e-07
6.41342e-06
-1.0695e-07
6.41238e-06
-8.58111e-08
6.40987e-06
-7.40388e-08
6.40747e-06
-6.4513e-08
6.40485e-06
-5.76143e-08
6.4024e-06
-5.13081e-08
6.40041e-06
-4.66146e-08
6.39831e-06
-4.2821e-08
6.39634e-06
-3.9774e-08
6.39516e-06
-3.70766e-08
-3.40738e-08
6.39404e-06
5.35805e-06
1.05451e-06
5.50649e-06
2.23716e-07
5.64777e-06
-1.44085e-07
5.73564e-06
-2.57314e-07
5.77646e-06
-2.42346e-07
5.78324e-06
-1.78422e-07
5.77527e-06
-1.26643e-07
5.76327e-06
-9.4006e-08
5.74975e-06
-7.56733e-08
5.73929e-06
-6.39811e-08
5.73025e-06
-5.65427e-08
5.72234e-06
-4.99581e-08
5.71447e-06
-4.45743e-08
5.70775e-06
-4.04658e-08
5.70182e-06
-3.67925e-08
5.69622e-06
-3.36256e-08
5.69181e-06
-3.27837e-08
-3.02732e-08
5.68743e-06
5.04576e-06
1.01105e-06
5.36491e-06
-9.54499e-08
5.35251e-06
-1.31767e-07
5.33285e-06
-2.37745e-07
5.296e-06
-2.0565e-07
5.25017e-06
-1.32586e-07
5.20891e-06
-8.47352e-08
5.17485e-06
-6.08267e-08
5.14636e-06
-4.98317e-08
5.12483e-06
-4.29116e-08
5.10668e-06
-3.93243e-08
5.09047e-06
-3.56204e-08
5.07519e-06
-3.14354e-08
5.06203e-06
-2.78012e-08
5.05044e-06
-2.46843e-08
5.03899e-06
-2.1938e-08
5.02944e-06
-2.30852e-08
-2.10329e-08
5.02142e-06
5.4676e-06
5.37215e-06
5.24037e-06
5.00261e-06
4.79694e-06
4.66444e-06
4.57967e-06
4.51835e-06
4.46847e-06
4.42538e-06
4.38572e-06
4.34961e-06
4.31802e-06
4.29031e-06
4.26571e-06
4.24383e-06
4.22109e-06
4.20054e-06
2.31277e-08
-2.31275e-08
2.37206e-07
-2.14081e-07
4.89332e-07
-2.52095e-07
7.09598e-07
-2.20245e-07
8.77313e-07
-1.67696e-07
9.88441e-07
-1.11119e-07
1.0441e-06
-5.56511e-08
1.04652e-06
-2.42111e-09
1.00102e-06
4.5513e-08
9.17747e-07
8.32674e-08
8.11947e-07
1.05809e-07
7.0276e-07
1.09174e-07
6.09977e-07
9.27788e-08
5.4369e-07
6.62972e-08
4.92546e-07
5.11624e-08
4.33364e-07
5.98828e-08
3.47054e-07
8.61704e-08
2.21949e-07
1.25875e-07
4.3638e-08
1.77892e-07
-2.01833e-07
2.44839e-07
-5.04374e-07
3.02284e-07
-8.45367e-07
3.40741e-07
-1.20971e-06
3.64349e-07
-1.5871e-06
3.77407e-07
-1.9687e-06
3.8164e-07
-2.34453e-06
3.7585e-07
-2.70657e-06
3.62056e-07
-3.04964e-06
3.43086e-07
-3.36993e-06
3.20303e-07
-3.6651e-06
2.95175e-07
-3.93429e-06
2.69191e-07
-4.17781e-06
2.43525e-07
-4.39669e-06
2.18884e-07
-4.59241e-06
1.95722e-07
-4.76668e-06
1.74267e-07
-4.92128e-06
1.54601e-07
-5.05796e-06
1.36685e-07
-5.17836e-06
1.20401e-07
-5.28395e-06
1.05589e-07
-5.37602e-06
9.20677e-08
-5.45568e-06
7.96564e-08
-5.52386e-06
6.81821e-08
-5.58135e-06
5.74895e-08
-5.62879e-06
4.74447e-08
-5.66673e-06
3.79386e-08
-5.69562e-06
2.88841e-08
-5.71583e-06
2.02096e-08
-5.72771e-06
1.18855e-08
-5.73175e-06
4.03955e-09
-5.72881e-06
-2.93998e-09
-5.71997e-06
-8.83841e-09
-5.70601e-06
-1.3965e-08
-5.68733e-06
-1.86813e-08
-5.66418e-06
-2.31487e-08
-5.63673e-06
-2.74453e-08
-5.60513e-06
-3.1599e-08
-5.56951e-06
-3.56248e-08
-5.52998e-06
-3.95295e-08
-5.48667e-06
-4.3314e-08
-5.43969e-06
-4.69774e-08
-5.38917e-06
-5.0517e-08
-5.33524e-06
-5.39295e-08
-5.27803e-06
-5.72112e-08
-5.21767e-06
-6.03592e-08
-5.1543e-06
-6.33707e-08
-5.08806e-06
-6.62428e-08
-5.01909e-06
-6.89718e-08
-4.94753e-06
-7.15558e-08
-4.87354e-06
-7.39927e-08
-4.79726e-06
-7.62816e-08
-4.71884e-06
-7.84217e-08
-4.63843e-06
-8.04125e-08
-4.55617e-06
-8.22544e-08
-4.47222e-06
-8.39481e-08
-4.38673e-06
-8.54945e-08
-4.29983e-06
-8.68956e-08
-4.21168e-06
-8.81533e-08
-4.12241e-06
-8.92703e-08
-4.03216e-06
-9.02497e-08
-3.94107e-06
-9.1095e-08
-3.84926e-06
-9.18103e-08
-3.75686e-06
-9.24e-08
-3.66399e-06
-9.28685e-08
-3.57077e-06
-9.32211e-08
-3.47731e-06
-9.3463e-08
-3.3837e-06
-9.3602e-08
-3.29006e-06
-9.36488e-08
-3.19644e-06
-9.36152e-08
-3.10293e-06
-9.35128e-08
-3.00958e-06
-9.33529e-08
-2.91642e-06
-9.31553e-08
-2.82347e-06
-9.29515e-08
-2.73071e-06
-9.27613e-08
-2.63815e-06
-9.2558e-08
-2.5459e-06
-9.22573e-08
-2.45414e-06
-9.17613e-08
-2.36316e-06
-9.09823e-08
-2.27322e-06
-8.99376e-08
-2.18444e-06
-8.87845e-08
-2.09681e-06
-8.76298e-08
-2.01034e-06
-8.64737e-08
-1.92504e-06
-8.53003e-08
-1.84094e-06
-8.41023e-08
-1.75806e-06
-8.28789e-08
-1.67643e-06
-8.16323e-08
-1.59606e-06
-8.03665e-08
-1.51698e-06
-7.90852e-08
-1.43919e-06
-7.77913e-08
-1.36271e-06
-7.64825e-08
-1.28757e-06
-7.51382e-08
-1.2138e-06
-7.37704e-08
-1.14139e-06
-7.24069e-08
-1.07035e-06
-7.10426e-08
-1.00067e-06
-6.96788e-08
-9.32359e-07
-6.83164e-08
-8.65402e-07
-6.6957e-08
-7.998e-07
-6.56028e-08
-7.35544e-07
-6.42566e-08
-6.72624e-07
-6.29201e-08
-6.11032e-07
-6.15929e-08
-5.50756e-07
-6.02755e-08
-4.91786e-07
-5.89708e-08
-4.34101e-07
-5.76849e-08
-3.77677e-07
-5.64233e-08
-3.22495e-07
-5.51818e-08
-2.68538e-07
-5.39572e-08
-2.15785e-07
-5.27533e-08
-1.64215e-07
-5.15693e-08
-1.13821e-07
-5.03934e-08
-6.45948e-08
-4.92255e-08
-1.66582e-08
-4.79355e-08
3.012e-08
-4.67771e-08
7.60469e-08
-4.59259e-08
1.21016e-07
-4.49687e-08
1.64925e-07
-4.39087e-08
2.07771e-07
-4.28449e-08
2.4957e-07
-4.17983e-08
2.90353e-07
-4.07816e-08
3.3015e-07
-3.97967e-08
3.68993e-07
-3.88422e-08
4.06909e-07
-3.79163e-08
4.43927e-07
-3.70176e-08
4.80073e-07
-3.61448e-08
5.15371e-07
-3.52974e-08
5.49847e-07
-3.44748e-08
5.83525e-07
-3.36766e-08
6.16429e-07
-3.29027e-08
6.48584e-07
-3.21529e-08
6.80013e-07
-3.14271e-08
7.1074e-07
-3.07255e-08
7.40789e-07
-3.00479e-08
7.70185e-07
-2.93943e-08
7.98951e-07
-2.87649e-08
8.27111e-07
-2.81596e-08
8.54691e-07
-2.75784e-08
8.81713e-07
-2.70212e-08
9.08202e-07
-2.64879e-08
9.34181e-07
-2.59783e-08
9.59673e-07
-2.54917e-08
9.84701e-07
-2.50275e-08
1.00929e-06
-2.45843e-08
1.03345e-06
-2.41601e-08
1.0572e-06
-2.37524e-08
1.08056e-06
-2.33569e-08
1.10353e-06
-2.2968e-08
1.12611e-06
-2.25775e-08
1.14828e-06
-2.21741e-08
1.17002e-06
-2.1742e-08
1.19128e-06
-2.12591e-08
1.21198e-06
-2.06944e-08
1.23198e-06
-2.00035e-08
1.2511e-06
-1.91226e-08
1.26906e-06
-1.79545e-08
1.28541e-06
-1.63547e-08
1.29946e-06
-1.40481e-08
1.31009e-06
-1.06243e-08
1.31466e-06
-4.55989e-09
1.30781e-06
6.8556e-09
1.27827e-06
2.95368e-08
7.2331e-08
1.20594e-06
2.54187e-07
-2.77336e-07
4.90086e-07
-4.49977e-07
6.3967e-07
-4.01675e-07
7.24302e-07
-3.04875e-07
7.63816e-07
-2.072e-07
7.69761e-07
-1.17068e-07
7.48829e-07
-3.47129e-08
7.06646e-07
3.97539e-08
6.46286e-07
1.05879e-07
5.67658e-07
1.61886e-07
4.70043e-07
2.03431e-07
3.51772e-07
2.27434e-07
2.06808e-07
2.37749e-07
2.36073e-08
2.49513e-07
-2.08614e-07
2.8339e-07
-4.9426e-07
3.45623e-07
-8.32225e-07
4.24224e-07
-1.21209e-06
5.05752e-07
-1.61591e-06
5.81669e-07
-2.01735e-06
6.46226e-07
-2.40737e-06
6.92257e-07
-2.78285e-06
7.16204e-07
-3.13779e-06
7.1929e-07
-3.46521e-06
7.04833e-07
-3.75997e-06
6.76405e-07
-4.02111e-06
6.36998e-07
-4.24905e-06
5.89999e-07
-4.44506e-06
5.39103e-07
-4.61205e-06
4.87299e-07
-4.75354e-06
4.36661e-07
-4.87288e-06
3.88537e-07
-4.97326e-06
3.43901e-07
-5.05754e-06
3.03168e-07
-5.12824e-06
2.66423e-07
-5.18748e-06
2.33505e-07
-5.23699e-06
2.04111e-07
-5.27817e-06
1.77872e-07
-5.31217e-06
1.54394e-07
-5.33988e-06
1.33298e-07
-5.36204e-06
1.14231e-07
-5.37927e-06
9.68818e-08
-5.39207e-06
8.09854e-08
-5.4009e-06
6.63193e-08
-5.40616e-06
5.2702e-08
-5.4082e-06
3.99866e-08
-5.40738e-06
2.80582e-08
-5.40401e-06
1.68389e-08
-5.39842e-06
6.29402e-09
-5.39076e-06
-3.62051e-09
-5.3806e-06
-1.30944e-08
-5.36707e-06
-2.23678e-08
-5.34957e-06
-3.147e-08
-5.32792e-06
-4.0335e-08
-5.3021e-06
-4.89595e-08
-5.2722e-06
-5.73501e-08
-5.23829e-06
-6.55131e-08
-5.20046e-06
-7.34512e-08
-5.15883e-06
-8.11641e-08
-5.11349e-06
-8.86483e-08
-5.06457e-06
-9.58983e-08
-5.01218e-06
-1.02907e-07
-4.95644e-06
-1.09668e-07
-4.89748e-06
-1.16171e-07
-4.83543e-06
-1.22412e-07
-4.77042e-06
-1.28384e-07
-4.70258e-06
-1.34081e-07
-4.63205e-06
-1.39496e-07
-4.55899e-06
-1.44625e-07
-4.48351e-06
-1.49463e-07
-4.40579e-06
-1.5401e-07
-4.32595e-06
-1.58262e-07
-4.24414e-06
-1.6222e-07
-4.16051e-06
-1.65883e-07
-4.07521e-06
-1.69254e-07
-3.98837e-06
-1.72334e-07
-3.90014e-06
-1.75127e-07
-3.81065e-06
-1.77637e-07
-3.72005e-06
-1.79869e-07
-3.62847e-06
-1.8183e-07
-3.53604e-06
-1.83525e-07
-3.44289e-06
-1.84963e-07
-3.34914e-06
-1.86152e-07
-3.25491e-06
-1.87101e-07
-3.16031e-06
-1.87819e-07
-3.06546e-06
-1.88318e-07
-2.97045e-06
-1.88608e-07
-2.87539e-06
-1.88704e-07
-2.78039e-06
-1.88618e-07
-2.68554e-06
-1.88362e-07
-2.59095e-06
-1.87948e-07
-2.49672e-06
-1.87387e-07
-2.40298e-06
-1.8669e-07
-2.30989e-06
-1.8585e-07
-2.21761e-06
-1.84838e-07
-2.12626e-06
-1.8361e-07
-2.03588e-06
-1.82139e-07
-1.94645e-06
-1.80419e-07
-1.8579e-06
-1.78491e-07
-1.77025e-06
-1.76433e-07
-1.68358e-06
-1.74298e-07
-1.59796e-06
-1.721e-07
-1.51342e-06
-1.69839e-07
-1.43001e-06
-1.67517e-07
-1.34775e-06
-1.65138e-07
-1.26667e-06
-1.62708e-07
-1.18681e-06
-1.60231e-07
-1.10818e-06
-1.57713e-07
-1.03082e-06
-1.55158e-07
-9.54732e-07
-1.52567e-07
-8.79929e-07
-1.49942e-07
-8.06406e-07
-1.47294e-07
-7.34176e-07
-1.44638e-07
-6.63243e-07
-1.41977e-07
-5.93608e-07
-1.39314e-07
-5.25271e-07
-1.36654e-07
-4.5823e-07
-1.33998e-07
-3.92482e-07
-1.31351e-07
-3.28022e-07
-1.28717e-07
-2.6484e-07
-1.26103e-07
-2.02924e-07
-1.23509e-07
-1.42266e-07
-1.20933e-07
-8.28555e-08
-1.18382e-07
-2.46848e-08
-1.15856e-07
3.22597e-08
-1.13368e-07
8.80058e-08
-1.10928e-07
1.42571e-07
-1.08522e-07
1.95966e-07
-1.06148e-07
2.48205e-07
-1.03809e-07
2.99316e-07
-1.01504e-07
3.49329e-07
-9.92375e-08
3.984e-07
-9.70066e-08
4.46505e-07
-9.48814e-08
4.93426e-07
-9.28467e-08
5.39231e-07
-9.07736e-08
5.83998e-07
-8.86754e-08
6.27758e-07
-8.66048e-08
6.70542e-07
-8.45811e-08
7.12371e-07
-8.26111e-08
7.53271e-07
-8.0696e-08
7.93264e-07
-7.88348e-08
8.32374e-07
-7.70257e-08
8.70623e-07
-7.52671e-08
9.08037e-07
-7.35579e-08
9.44637e-07
-7.1897e-08
9.80447e-07
-7.02839e-08
1.01549e-06
-6.87183e-08
1.04979e-06
-6.71996e-08
1.08336e-06
-6.5728e-08
1.11624e-06
-6.43032e-08
1.14844e-06
-6.29253e-08
1.17999e-06
-6.15942e-08
1.2109e-06
-6.031e-08
1.24121e-06
-5.90727e-08
1.27094e-06
-5.78823e-08
1.3001e-06
-5.67386e-08
1.32872e-06
-5.56416e-08
1.35682e-06
-5.45906e-08
1.38443e-06
-5.35851e-08
1.41156e-06
-5.26238e-08
1.43824e-06
-5.1705e-08
1.46448e-06
-5.08261e-08
1.4903e-06
-4.99831e-08
1.51572e-06
-4.91704e-08
1.54075e-06
-4.83803e-08
1.56538e-06
-4.76016e-08
1.58962e-06
-4.6819e-08
1.61346e-06
-4.60111e-08
1.63687e-06
-4.51486e-08
1.6598e-06
-4.41903e-08
1.68218e-06
-4.30786e-08
1.70391e-06
-4.17319e-08
1.72482e-06
-4.00322e-08
1.74467e-06
-3.78028e-08
1.76309e-06
-3.47741e-08
1.77953e-06
-3.04854e-08
1.79309e-06
-2.41843e-08
1.80281e-06
-1.4277e-08
1.80768e-06
1.99448e-09
1.80579e-06
3.1422e-08
8.80318e-08
1.79009e-06
2.46009e-07
-5.23366e-07
3.42322e-07
-5.46294e-07
3.58608e-07
-4.1796e-07
3.47564e-07
-2.9382e-07
3.19861e-07
-1.79493e-07
2.75778e-07
-7.29842e-08
2.14601e-07
2.64665e-08
1.3528e-07
1.1907e-07
3.67537e-08
2.04406e-07
-8.31408e-08
2.81777e-07
-2.30109e-07
3.504e-07
-4.14671e-07
4.11996e-07
-6.50238e-07
4.73313e-07
-9.43729e-07
5.43008e-07
-1.28498e-06
6.24641e-07
-1.65208e-06
7.12723e-07
-2.02419e-06
7.96328e-07
-2.38444e-06
8.65995e-07
-2.71895e-06
9.16164e-07
-3.01717e-06
9.44434e-07
-3.27524e-06
9.50321e-07
-3.49413e-06
9.35102e-07
-3.67684e-06
9.01999e-07
-3.82739e-06
8.55397e-07
-3.95053e-06
7.99546e-07
-4.05166e-06
7.38131e-07
-4.13611e-06
6.74452e-07
-4.20828e-06
6.11269e-07
-4.27159e-06
5.50614e-07
-4.32867e-06
4.9374e-07
-4.38139e-06
4.41254e-07
-4.43088e-06
3.93391e-07
-4.47777e-06
3.50065e-07
-4.52235e-06
3.10997e-07
-4.56464e-06
2.75795e-07
-4.60455e-06
2.44021e-07
-4.64191e-06
2.15233e-07
-4.67653e-06
1.89018e-07
-4.70823e-06
1.64996e-07
-4.73684e-06
1.42839e-07
-4.76222e-06
1.22263e-07
-4.78427e-06
1.0303e-07
-4.80289e-06
8.4943e-08
-4.81802e-06
6.78359e-08
-4.82961e-06
5.15692e-08
-4.83757e-06
3.60238e-08
-4.84183e-06
2.10979e-08
-4.84224e-06
6.69751e-09
-4.83857e-06
-7.28394e-09
-4.83071e-06
-2.09608e-08
-4.81868e-06
-3.43926e-08
-4.80258e-06
-4.75671e-08
-4.78246e-06
-6.04619e-08
-4.75835e-06
-7.30687e-08
-4.73032e-06
-8.5381e-08
-4.69844e-06
-9.7393e-08
-4.66279e-06
-1.09098e-07
-4.62347e-06
-1.20487e-07
-4.58057e-06
-1.3155e-07
-4.53419e-06
-1.42275e-07
-4.48445e-06
-1.52651e-07
-4.43145e-06
-1.62664e-07
-4.37532e-06
-1.72301e-07
-4.31618e-06
-1.81551e-07
-4.25416e-06
-1.90406e-07
-4.18938e-06
-1.98856e-07
-4.12199e-06
-2.0689e-07
-4.05211e-06
-2.14501e-07
-3.97989e-06
-2.21684e-07
-3.90547e-06
-2.28435e-07
-3.82898e-06
-2.34751e-07
-3.75057e-06
-2.40631e-07
-3.67038e-06
-2.46075e-07
-3.58855e-06
-2.51085e-07
-3.50522e-06
-2.55664e-07
-3.42053e-06
-2.59818e-07
-3.33461e-06
-2.63551e-07
-3.24761e-06
-2.66871e-07
-3.15965e-06
-2.69787e-07
-3.07087e-06
-2.72308e-07
-2.98139e-06
-2.74445e-07
-2.89133e-06
-2.7621e-07
-2.80082e-06
-2.77614e-07
-2.70997e-06
-2.78671e-07
-2.61889e-06
-2.79395e-07
-2.5277e-06
-2.79801e-07
-2.4365e-06
-2.79904e-07
-2.3454e-06
-2.7972e-07
-2.2545e-06
-2.79261e-07
-2.16391e-06
-2.78541e-07
-2.07372e-06
-2.77571e-07
-1.98405e-06
-2.76359e-07
-1.895e-06
-2.74903e-07
-1.80665e-06
-2.73189e-07
-1.71906e-06
-2.71203e-07
-1.63225e-06
-2.68942e-07
-1.54625e-06
-2.66423e-07
-1.46106e-06
-2.63681e-07
-1.37673e-06
-2.60762e-07
-1.29333e-06
-2.57702e-07
-1.21091e-06
-2.54519e-07
-1.12952e-06
-2.51227e-07
-1.04921e-06
-2.47834e-07
-9.69994e-07
-2.44351e-07
-8.91915e-07
-2.40787e-07
-8.14995e-07
-2.37151e-07
-7.39258e-07
-2.3345e-07
-6.64723e-07
-2.29693e-07
-5.91405e-07
-2.25887e-07
-5.19308e-07
-2.22039e-07
-4.48442e-07
-2.18161e-07
-3.78816e-07
-2.14264e-07
-3.10437e-07
-2.10356e-07
-2.43306e-07
-2.06445e-07
-1.77424e-07
-2.02536e-07
-1.12789e-07
-1.98633e-07
-4.93975e-08
-1.94743e-07
1.27577e-08
-1.90872e-07
7.36803e-08
-1.87026e-07
1.33378e-07
-1.83207e-07
1.91865e-07
-1.7942e-07
2.49153e-07
-1.75669e-07
3.05257e-07
-1.7196e-07
3.60189e-07
-1.683e-07
4.13955e-07
-1.64694e-07
4.66571e-07
-1.61139e-07
5.18057e-07
-1.57634e-07
5.68432e-07
-1.54183e-07
6.17718e-07
-1.50791e-07
6.65945e-07
-1.47464e-07
7.13155e-07
-1.44217e-07
7.59332e-07
-1.41058e-07
8.04441e-07
-1.37955e-07
8.4853e-07
-1.34863e-07
8.91645e-07
-1.3179e-07
9.33808e-07
-1.28767e-07
9.75037e-07
-1.25811e-07
1.01535e-06
-1.22926e-07
1.05477e-06
-1.20116e-07
1.09332e-06
-1.1738e-07
1.13101e-06
-1.14717e-07
1.16787e-06
-1.12127e-07
1.20392e-06
-1.09608e-07
1.23918e-06
-1.07159e-07
1.27368e-06
-1.04781e-07
1.30743e-06
-1.02471e-07
1.34046e-06
-1.00231e-07
1.3728e-06
-9.80599e-08
1.40445e-06
-9.59576e-08
1.43545e-06
-9.39243e-08
1.46582e-06
-9.19598e-08
1.49557e-06
-9.00642e-08
1.52474e-06
-8.82376e-08
1.55334e-06
-8.64798e-08
1.58139e-06
-8.47908e-08
1.60892e-06
-8.31701e-08
1.63594e-06
-8.16171e-08
1.66249e-06
-8.01307e-08
1.68858e-06
-7.87093e-08
1.71422e-06
-7.73502e-08
1.73944e-06
-7.60494e-08
1.76426e-06
-7.48015e-08
1.78869e-06
-7.35985e-08
1.81274e-06
-7.24291e-08
1.83642e-06
-7.12777e-08
1.85972e-06
-7.01226e-08
1.88264e-06
-6.8934e-08
1.90517e-06
-6.76705e-08
1.92725e-06
-6.62748e-08
1.94884e-06
-6.46668e-08
1.96984e-06
-6.27333e-08
1.99012e-06
-6.03115e-08
2.00948e-06
-5.71608e-08
2.02762e-06
-5.29178e-08
2.04413e-06
-4.69919e-08
2.05839e-06
-3.84431e-08
2.06962e-06
-2.55119e-08
2.07697e-06
-5.35413e-09
2.08087e-06
2.75188e-08
8.54911e-08
2.08341e-06
9.37328e-08
-6.1711e-07
6.23877e-08
-5.14962e-07
1.39033e-08
-3.69468e-07
-4.31888e-08
-2.36721e-07
-1.12687e-07
-1.09989e-07
-1.9806e-07
1.23926e-08
-3.02292e-07
1.307e-07
-4.27799e-07
2.44577e-07
-5.77157e-07
3.53763e-07
-7.53749e-07
4.5837e-07
-9.62335e-07
5.58983e-07
-1.20723e-06
6.5689e-07
-1.48722e-06
7.533e-07
-1.79151e-06
8.47292e-07
-2.10139e-06
9.34519e-07
-2.39725e-06
1.00857e-06
-2.66459e-06
1.06366e-06
-2.89513e-06
1.09653e-06
-3.08563e-06
1.10665e-06
-3.23689e-06
1.09569e-06
-3.35326e-06
1.0667e-06
-3.4413e-06
1.02315e-06
-3.50812e-06
9.6882e-07
-3.56023e-06
9.07517e-07
-3.60313e-06
8.42448e-07
-3.64124e-06
7.76247e-07
-3.67782e-06
7.11026e-07
-3.71489e-06
6.48335e-07
-3.75345e-06
5.89176e-07
-3.79378e-06
5.34068e-07
-3.83569e-06
4.83167e-07
-3.87869e-06
4.36392e-07
-3.92214e-06
3.93513e-07
-3.96535e-06
3.54206e-07
-4.00766e-06
3.18111e-07
-4.0485e-06
2.84856e-07
-4.08735e-06
2.54086e-07
-4.1238e-06
2.25467e-07
-4.15751e-06
1.98702e-07
-4.18819e-06
1.73525e-07
-4.21563e-06
1.49707e-07
-4.23966e-06
1.27051e-07
-4.2601e-06
1.05392e-07
-4.27686e-06
8.45881e-08
-4.28981e-06
6.45192e-08
-4.29887e-06
4.50841e-08
-4.30397e-06
2.61964e-08
-4.30505e-06
7.77934e-09
-4.30209e-06
-1.02408e-08
-4.29513e-06
-2.79251e-08
-4.28422e-06
-4.53015e-08
-4.26942e-06
-6.23669e-08
-4.25077e-06
-7.91086e-08
-4.22833e-06
-9.5514e-08
-4.20214e-06
-1.11569e-07
-4.17227e-06
-1.27261e-07
-4.1388e-06
-1.42572e-07
-4.1018e-06
-1.57487e-07
-4.06136e-06
-1.71988e-07
-4.01758e-06
-1.86056e-07
-3.97056e-06
-1.99674e-07
-3.9204e-06
-2.12823e-07
-3.86721e-06
-2.25484e-07
-3.81112e-06
-2.37639e-07
-3.75225e-06
-2.4928e-07
-3.69072e-06
-2.60391e-07
-3.62665e-06
-2.70958e-07
-3.56018e-06
-2.80972e-07
-3.49144e-06
-2.90425e-07
-3.42056e-06
-2.99311e-07
-3.34769e-06
-3.07626e-07
-3.27295e-06
-3.15369e-07
-3.19648e-06
-3.2254e-07
-3.11843e-06
-3.2914e-07
-3.03892e-06
-3.35174e-07
-2.95809e-06
-3.40648e-07
-2.87607e-06
-3.45568e-07
-2.793e-06
-3.49945e-07
-2.709e-06
-3.53789e-07
-2.62419e-06
-3.57111e-07
-2.53871e-06
-3.59926e-07
-2.45268e-06
-3.62247e-07
-2.3662e-06
-3.64091e-07
-2.2794e-06
-3.65473e-07
-2.19238e-06
-3.66412e-07
-2.10526e-06
-3.66925e-07
-2.01813e-06
-3.6703e-07
-1.93111e-06
-3.66744e-07
-1.84428e-06
-3.66085e-07
-1.75776e-06
-3.65068e-07
-1.67162e-06
-3.63708e-07
-1.58596e-06
-3.62015e-07
-1.50087e-06
-3.59997e-07
-1.4164e-06
-3.57655e-07
-1.33262e-06
-3.54991e-07
-1.24955e-06
-3.52014e-07
-1.16722e-06
-3.48745e-07
-1.08569e-06
-3.45215e-07
-1.00499e-06
-3.4146e-07
-9.25188e-07
-3.37509e-07
-8.46322e-07
-3.33385e-07
-7.68441e-07
-3.29108e-07
-6.91583e-07
-3.24693e-07
-6.1578e-07
-3.20154e-07
-5.41062e-07
-3.15506e-07
-4.67455e-07
-3.10759e-07
-3.9498e-07
-3.05926e-07
-3.23655e-07
-3.01019e-07
-2.53493e-07
-2.96048e-07
-1.84505e-07
-2.91027e-07
-1.16701e-07
-2.85966e-07
-5.00876e-08
-2.80877e-07
1.53287e-08
-2.75772e-07
7.95433e-08
-2.7066e-07