/*--------------------------------*- C++ -*----------------------------------*\
  =========                 |
  \\      /  F ield         | OpenFOAM: The Open Source CFD Toolbox
   \\    /   O peration     | Website:  https://openfoam.org
    \\  /    A nd           | Version:  8
     \\/     M anipulation  |
\*---------------------------------------------------------------------------*/
FoamFile
{
    version     2.0;
    format      ascii;
    class       volScalarField;
    location    "700";
    object      omega;
}
// * * * * * * * * * * * * * * * * * * * * * * * * * * * * * * * * * * * * * //

dimensions      [0 0 -1 0 0 0 0];

internalField   nonuniform List<scalar> 
12225
(
32582.3
66114.4
50495.3
43486.1
65430.5
53945.7
48855.9
42157.1
39719.5
55500.1
47906.6
45008.2
41996.4
39764
39097.9
40756.9
41759.2
32582.3
2252.51
7846.48
9667.41
9368.05
13337.6
13381.8
14218.3
14236.5
14158.1
15295.4
15419.7
15490.4
15846.1
15696.3
15407
15683.2
15942.7
15708.3
827.666
1247.42
1963.91
2291.87
2907.29
3329.52
3736.34
4067.35
4393.15
4621.26
4842.62
4978.63
5178.62
5379.24
5530.87
5677.34
5727.91
5893.07
537.555
579.232
754.069
891.308
1068.15
1232.45
1397.49
1544.81
1682.04
1804.09
1890.01
1973.91
2041.07
2120.17
2171.41
2228.93
2266.57
2319.32
455.884
461.42
510.659
555.892
621.508
684.681
757.571
823.118
884.671
942.593
985.84
1027.3
1064.87
1105.83
1129.49
1157.84
1195.35
1210.47
440.654
440.032
451.419
464.323
486.892
508.748
542.641
569.831
602.738
627.108
654.714
671.779
695.786
711.123
731.11
740.484
759.334
756.513
439.318
436.959
437.505
439.423
444.908
450.53
463.005
473.325
488.768
499.186
513.067
521.515
533.236
541.743
549.667
554.646
558.853
565.024
439.195
436.886
435.393
434.313
434.636
435.479
438.836
442.915
449.492
453.893
460.458
464.881
470.135
475.408
479.525
482.37
484.19
487.267
439.082
436.97
434.931
433.297
431.861
430.593
430.578
431.282
433.138
434.641
436.877
438.598
440.607
441.983
444.812
445.968
446.971
446.253
439.043
436.955
434.904
433.011
431.256
429.599
428.278
427.382
426.863
426.469
426.322
426.145
426.096
425.798
426.161
425.891
426.323
426.047
439.047
436.925
434.893
432.975
431.138
429.421
427.8
426.376
425.072
423.92
422.835
421.854
420.899
420.019
419.157
418.354
417.577
416.959
439.046
436.916
434.883
432.962
431.123
429.391
427.732
426.183
424.706
423.331
422.011
420.78
419.585
418.473
417.387
416.377
415.389
414.488
439.048
436.912
434.878
432.951
431.117
429.377
427.717
426.145
424.642
423.222
421.861
420.573
419.338
418.167
417.042
415.977
414.953
413.984
439.047
436.909
434.875
432.946
431.11
429.367
427.706
426.127
424.624
423.192
421.828
420.528
419.289
418.104
416.976
415.897
414.869
413.886
439.047
436.907
434.873
432.941
431.105
429.359
427.697
426.116
424.61
423.177
421.81
420.508
419.265
418.08
416.948
415.868
414.836
413.852
439.047
436.906
434.872
432.938
431.101
429.354
427.691
426.108
424.601
423.165
421.797
420.493
419.248
418.062
416.929
415.848
414.814
413.829
439.047
436.906
434.871
432.937
431.099
429.349
427.686
426.102
424.594
423.157
421.788
420.483
419.237
418.05
416.915
415.833
414.799
413.812
439.046
436.905
434.871
432.937
431.098
429.348
427.684
426.1
424.591
423.154
421.784
420.479
419.232
418.045
416.909
415.827
414.792
413.805
439.047
436.906
434.871
432.937
431.098
429.349
427.685
426.101
424.593
423.155
421.786
420.479
419.234
418.045
416.911
415.827
414.794
413.805
439.046
436.905
434.872
432.939
431.101
429.352
427.689
426.105
424.597
423.16
421.791
420.485
419.24
418.052
416.918
415.836
414.801
413.815
439.048
436.905
434.873
432.94
431.104
429.356
427.695
426.111
424.606
423.17
421.803
420.498
419.256
418.07
416.939
415.86
414.831
413.848
439.047
436.904
434.877
432.943
431.11
429.361
427.706
426.126
424.631
423.203
421.854
420.563
419.347
418.181
417.086
416.035
415.051
414.103
439.063
436.892
434.888
432.941
431.133
429.394
427.787
426.254
424.855
423.524
422.318
421.171
420.14
419.16
418.298
417.458
416.744
416.028
439.082
436.818
434.961
433.057
431.458
429.97
428.755
427.67
426.944
426.303
425.967
425.658
425.619
425.644
425.791
425.957
426.33
426.554
438.897
436.767
435.888
435.383
435.344
436.011
436.655
438.098
440.565
443.019
446.159
449.025
452.467
455.479
459.058
462.035
465.646
468.468
437.246
442.511
445.415
454.404
461.854
468.397
479.688
491.08
504.243
516.232
529.312
540.695
553.102
563.555
575.159
584.55
595.342
603.631
446.069
484.244
506.885
557.862
590.646
627.472
670.428
710.639
753.134
789.888
828.176
859.892
893.763
920.838
950.849
973.82
1000.56
1020
612.986
740.676
895.844
1055.98
1213.48
1361.43
1509.04
1638.32
1765.08
1870.07
1974.93
2058.1
2145.21
2211.27
2284.83
2337.69
2401
2443.99
2513.87
2859.9
3527.34
4213.23
4870.32
5429.56
5903.46
6283.94
6606.01
6856.62
7079.03
7247.05
7407.64
7521.64
7643.95
7721.6
7821.08
7874.24
29540.9
25584.8
25314.4
25630.8
25952.3
25998.8
25940.9
25844.7
25646.7
25431.7
25215.2
25004.6
24805.5
24619
24446.8
24287.9
24141.7
24007.6
11463.3
2494.65
2496.87
2499.12
2501.38
2503.67
2505.98
2508.3
2510.65
2513.02
2515.42
2517.83
2520.27
2522.73
2525.21
2527.72
2530.25
2532.8
2535.37
2537.97
2540.6
2543.25
2545.92
2548.62
2551.34
2554.09
2556.87
2559.67
2562.5
2565.35
2568.23
2571.14
2574.08
2577.04
2580.04
2583.06
2586.11
2589.19
2592.3
2595.43
2598.6
2601.8
2605.03
2608.29
2611.59
3229.17
3434.18
3389.39
3132.26
3128.21
3385.44
3674.33
3321.69
3424.02
2646.33
3279.86
3293.8
3361.56
3408.76
3459.48
3507.52
3553.77
3599.44
3643.54
3687.11
3729.62
3771.64
3812.9
3853.71
3893.96
3933.79
3973.18
4012.16
4050.78
4089
4126.89
4164.37
4201.53
4238.28
4274.68
4310.65
4346.23
4381.35
4416.04
4450.2
4483.88
4516.98
4549.5
4581.4
4612.67
4643.31
4673.33
4702.78
4731.78
4760.54
4789.41
4817.36
4845.06
4872.18
4898.88
4925.07
4950.78
4975.97
5000.64
5024.79
5048.38
5071.44
5093.91
5115.83
5137.14
5157.87
5177.97
5197.46
5216.31
5234.51
5252.05
5268.91
5285.1
5300.57
5315.35
5329.37
5342.68
5355.21
5367.01
5377.99
5388.22
5397.6
5406.2
5413.92
5420.94
5427.52
5433.54
5437.37
5442.61
5444.02
5448.33
5447.3
5449.37
5447.56
5446.81
5445.03
5442.76
5439.91
5436.19
5431.95
5427.08
5421.66
5415.62
5409.01
5401.84
5394.15
5386
5377.43
5368.48
5359.19
5349.63
5339.82
5329.8
5319.62
5309.32
5298.95
5288.56
5278.19
5267.9
5257.76
5247.78
5237.98
5228.29
5218.88
5209.9
5200.89
5191.65
5182.24
5172.41
5161.54
5148.9
5132.26
5107.96
5073.92
4860.4
11463.3
2017.38
995.395
796.973
681.969
643.813
654.709
652.572
641.924
621.395
598.89
577.428
561.744
548.106
545.5
561.268
608.223
697.753
802.357
901.527
980.16
1016.22
1000.78
955.895
842.583
711.903
605.028
533.183
502.277
510.663
523.4
588.582
666.075
955.928
1365.54
1752.8
1978.48
2119.73
2154.33
2164.39
2136.22
2088.59
2037.26
1971.16
1902.1
1874.24
1801.57
1741.97
1705.23
1648.65
1600.44
1567.29
1550.85
1502.72
1494.01
1510.33
1505.13
1505.28
1505.91
1508.62
1511.96
1516.44
1521.59
1527.39
1533.67
1540.35
1547.36
1554.6
1562.04
1569.6
1577.27
1585
1592.75
1600.5
1608.23
1615.92
1623.54
1631.08
1638.53
1645.87
1653.09
1660.18
1667.12
1673.92
1680.55
1687.02
1693.33
1699.48
1705.5
1711.43
1717.33
1723.28
1729.42
1735.96
1743.18
1751.44
1759.04
1766.8
1774.3
1781.75
1789.04
1796.21
1803.23
1810.13
1816.88
1823.48
1829.94
1836.25
1842.4
1848.4
1854.23
1859.89
1865.39
1870.71
1875.85
1880.81
1885.59
1890.18
1894.58
1898.79
1902.8
1906.62
1910.23
1913.64
1916.85
1919.85
1922.64
1925.23
1927.62
1929.83
1931.85
1933.65
1935.16
1936.61
1937.63
1938.69
1939.18
1939.8
1939.97
1940.14
1940.07
1939.85
1939.47
1938.89
1938.14
1937.22
1936.14
1934.88
1933.45
1931.87
1930.14
1928.27
1926.28
1924.16
1921.94
1919.59
1917.15
1914.62
1912
1909.32
1906.57
1903.77
1900.93
1898.06
1895.14
1892.21
1889.29
1886.39
1883.55
1880.79
1878.06
1875.35
1872.67
1870.07
1867.59
1865.35
1863.37
1862.48
1862.87
1866.7
11463.3
2028.71
851.84
715.483
753.171
750.084
717.898
659.291
599.613
543.273
493.406
451.347
417.244
390.714
372.757
358.238
357.018
362.693
378.675
410.572
453.151
492.975
525.374
525.168
506.688
469.303
422.975
422.425
458.283
576.565
766.286
1030.7
1261.33
1456.3
1605.67
1680.18
1707.58
1648.36
1581.25
1501.77
1425.18
1352.42
1289.25
1232.09
1182.6
1144.66
1110.43
1085.33
1063.86
1046.48
1031.54
1022.61
1018.35
1014.1
1012.88
1013.36
1014.03
1015.68
1017.86
1020.64
1023.78
1027.31
1031.1
1035.12
1039.33
1043.67
1048.13
1052.67
1057.27
1061.92
1066.59
1071.27
1075.95
1080.63
1085.28
1089.91
1094.5
1099.05
1103.56
1108.02
1112.44
1116.8
1121.11
1125.37
1129.58
1133.75
1137.89
1142.01
1146.12
1150.26
1154.44
1158.7
1163.06
1167.54
1172.16
1176.78
1181.27
1185.73
1190.09
1194.39
1198.61
1202.76
1206.82
1210.8
1214.69
1218.5
1222.21
1225.84
1229.37
1232.8
1236.13
1239.36
1242.48
1245.5
1248.4
1251.2
1253.88
1256.45
1258.89
1261.22
1263.43
1265.51
1267.48
1269.31
1271.02
1272.6
1274.06
1275.39
1276.59
1277.66
1278.61
1279.42
1280.09
1280.65
1281.04
1281.33
1281.43
1281.45
1281.34
1281.14
1280.76
1280.3
1279.73
1279.03
1278.21
1277.28
1276.23
1275.07
1273.8
1272.42
1270.94
1269.37
1267.7
1265.94
1264.09
1262.16
1260.15
1258.06
1255.9
1253.68
1251.4
1249.05
1246.66
1244.21
1241.72
1239.2
1236.64
1234.07
1231.49
1228.94
1226.43
1223.94
1221.51
1219.18
1217.03
1215.22
1213.93
1214.11
1216.44
1227.85
11463.3
2119.49
1181.51
1107.11
982.137
849.31
731.362
626.074
537.15
465.632
410.786
370.134
340.54
319.235
304.365
294.235
287.991
288.098
291.046
299.785
317.269
341.394
367.061
381.832
396.239
440.132
513.881
650.289
846.078
1055.07
1229.38
1322.42
1388.33
1428.64
1445.06
1357.6
1263.65
1199.44
1128.24
1069.6
1017.24
973.677
937.715
908.257
884.622
866.4
851.981
841.226
832.643
826.801
822.805
821.188
820.56
820.328
821.489
823.103
825.154
827.605
830.356
833.366
836.575
839.955
843.468
847.089
850.795
854.568
858.392
862.253
866.142
870.047
873.961
877.878
881.791
885.695
889.587
893.462
897.319
901.155
904.968
908.757
912.523
916.265
919.985
923.685
927.368
931.037
934.699
938.359
942.024
945.703
949.399
953.116
956.853
960.601
964.336
968.024
971.647
975.22
978.73
982.181
985.567
988.888
992.141
995.324
998.434
1001.47
1004.43
1007.31
1010.1
1012.82
1015.44
1017.98
1020.43
1022.78
1025.04
1027.2
1029.26
1031.23
1033.09
1034.84
1036.49
1038.03
1039.46
1040.78
1041.99
1043.09
1044.07
1044.94
1045.69
1046.32
1046.84
1047.24
1047.51
1047.67
1047.7
1047.62
1047.4
1047.08
1046.65
1046.1
1045.43
1044.66
1043.78
1042.78
1041.68
1040.48
1039.17
1037.75
1036.23
1034.61
1032.9
1031.09
1029.2
1027.22
1025.16
1023.02
1020.8
1018.51
1016.15
1013.73
1011.24
1008.69
1006.08
1003.42
1000.72
997.98
995.206
992.405
989.588
986.777
983.985
981.224
978.515
975.905
973.464
971.331
969.674
969.29
970.752
978.472
11463.3
2601.01
1686.6
1279.81
1006.64
784.841
606.395
481.02
398.956
346.521
311.982
288.228
271.629
260.16
252.552
248.197
247.297
248.718
252.751
260.134
274.177
298.243
339.823
398.717
481.79
619.745
833.238
1024.02
1147.95
1215.24
1253.77
1270.76
1265.7
1186.63
1090.51
1022.64
963.129
916.08
872.286
837.718
808.152
784.448
765.349
750.348
738.802
730.163
723.849
719.481
716.588
715.454
715.133
715.748
717.063
718.832
721.144
723.754
726.63
729.72
732.979
736.376
739.883
743.477
747.142
750.862
754.624
758.419
762.238
766.073
769.92
773.773
777.627
781.48
785.329
789.17
793.002
796.824
800.634
804.43
808.214
811.983
815.739
819.481
823.211
826.928
830.635
834.334
838.025
841.71
845.391
849.068
852.738
856.397
860.036
863.648
867.222
870.746
874.216
877.633
880.993
884.294
887.532
890.705
893.812
896.85
899.815
902.706
905.52
908.253
910.903
913.469
915.947
918.336
920.632
922.834
924.94
926.948
928.855
930.659
932.359
933.952
935.437
936.811
938.074
939.222
940.254
941.169
941.965
942.639
943.192
943.62
943.923
944.104
944.153
944.089
943.887
943.558
943.1
942.52
941.816
940.99
940.041
938.977
937.793
936.493
935.081
933.557
931.922
930.177
928.326
926.372
924.319
922.17
919.928
917.596
915.178
912.677
910.097
907.441
904.715
901.921
899.065
896.159
893.199
890.19
887.133
884.036
880.908
877.75
874.57
871.389
868.221
865.079
861.987
858.983
856.131
853.542
851.361
850.1
850.483
854.553
11463.3
3367.9
1883.91
1257.74
844.819
587.747
453.63
378.859
330.696
297.822
273.933
256.133
243.08
233.938
228.273
225.852
226.497
230.664
240.476
257.775
282.902
324.916
402.194
531.072
731.647
927.258
1054.4
1122.94
1150.71
1164.56
1144.72
1064
988.766
917.589
863.403
820.501
783.992
754.165
728.517
707.988
691.089
677.758
667.377
659.59
653.989
650.187
648.047
647.181
647.049
647.914
649.493
651.652
654.245
657.165
660.378
663.795
667.379
671.093
674.908
678.802
682.757
686.759
690.796
694.86
698.942
703.039
707.144
711.254
715.366
719.477
723.586
727.691
731.791
735.883
739.968
744.044
748.111
752.169
756.216
760.254
764.281
768.297
772.302
776.296
780.279
784.25
788.21
792.156
796.089
800.005
803.9
807.767
811.599
815.392
819.139
822.836
826.479
830.065
833.591
837.055
840.452
843.781
847.036
850.218
853.323
856.346
859.286
862.138
864.9
867.569
870.143
872.619
874.995
877.267
879.435
881.495
883.445
885.283
887.006
888.613
890.101
891.468
892.711
893.828
894.816
895.675
896.4
896.991
897.445
897.76
897.929
897.968
897.87
897.626
897.236
896.703
896.026
895.21
894.254
893.159
891.928
890.563
889.064
887.434
885.683
883.806
881.805
879.685
877.449
875.1
872.642
870.08
867.416
864.656
861.802
858.86
855.833
852.727
849.546
846.294
842.977
839.603
836.174
832.694
829.167
825.601
822.007
818.395
814.773
811.148
807.533
803.942
800.398
796.935
793.607
790.505
787.746
785.648
784.809
786.347
11463.3
3712.56
1826.92
1004.42
624.139
458.337
373.519
323.461
290.444
267.085
250.258
237.814
228.514
222.243
219.661
220.929
226.237
234.255
251.285
283.455
339.975
439.808
610.055
797.485
942.177
1027.69
1062.02
1078.44
1061.97
987.275
914.517
851.719
801.051
758.43
725.475
698.089
675.158
656.221
640.517
627.953
617.99
610.395
604.837
601.043
598.946
598.135
598.094
599.059
600.75
603.086
605.934
609.193
612.77
616.592
620.612
624.782
629.066
633.438
637.874
642.359
646.877
651.419
655.977
660.544
665.115
669.688
674.26
678.829
683.393
687.952
692.505
697.051
701.589
706.12
710.643
715.157
719.662
724.157
728.643
733.119
737.585
742.039
746.48
750.907
755.32
759.717
764.096
768.455
772.791
777.102
781.383
785.631
789.84
794.007
798.122
802.183
806.185
810.124
813.998
817.801
821.53
825.181
828.75
832.231
835.618
838.911
842.107
845.204
848.197
851.086
853.865
856.534
859.089
861.527
863.847
866.046
868.121
870.07
871.891
873.581
875.137
876.556
877.837
878.977
879.972
880.82
881.519
882.067
882.459
882.688
882.763
882.692
882.457
882.06
881.5
880.778
879.895
878.853
877.654
876.298
874.788
873.125
871.312
869.345
867.217
864.945
862.535
859.991
857.318
854.52
851.602
848.568
845.424
842.173
838.822
835.375
831.837
828.214
824.511
820.734
816.889
812.982
809.019
805.005
800.944
796.844
792.72
788.577
784.422
780.265
776.117
771.995
767.918
763.919
760.042
756.36
752.969
750.098
748.072
747.798
11463.3
3716.67
1492.16
770.727
521.354
410.125
347.214
308.741
282.024
261.68
246.107
234.668
227.424
224.285
225.62
232.745
247.168
272.215
312.401
383.412
514.524
674.267
818.389
924.525
973.701
995.923
997.058
937.146
867.656
806.758
758.036
717.928
685.641
659.008
637.458
619.378
604.338
591.998
582.051
574.292
568.453
564.329
561.814
560.711
560.532
561.342
562.968
565.319
568.263
571.706
575.557
579.738
584.18
588.826
593.632
598.559
603.577
608.661
613.793
618.956
624.14
629.334
634.532
639.729
644.92
650.105
655.281
660.448
665.606
670.754
675.892
681.02
686.137
691.245
696.342
701.428
706.504
711.568
716.62
721.66
726.688
731.7
736.696
741.675
746.633
751.569
756.48
761.363
766.216
771.035
775.816
780.556
785.252
789.893
794.473
798.988
803.434
807.807
812.101
816.313
820.438
824.472
828.41
832.248
835.982
839.609
843.124
846.524
849.806
852.966
856.002
858.91
861.688
864.333
866.842
869.213
871.443
873.53
875.471
877.262
878.902
880.387
881.714
882.88
883.882
884.717
885.382
885.875
886.186
886.314
886.277
886.06
885.659
885.073
884.303
883.348
882.211
880.893
879.396
877.721
875.871
873.849
871.657
869.298
866.781
864.105
861.278
858.302
855.185
851.93
848.544
845.032
841.4
837.652
833.796
829.836
825.78
821.633
817.402
813.092
808.711
804.266
799.762
795.206
790.604
785.962
781.268
776.54
771.8
767.06
762.332
757.632
752.978
748.398
743.932
739.638
735.59
731.948
728.897
727.006
11463.3
3282.23
1170
636.883
456.401
375.939
332.895
302.709
280.273
263.406
250.62
241.924
237.334
236.823
244.08
262.001
296.572
357.92
454.381
578.963
703.605
811.511
881.081
915.287
928.357
897.408
837.027
776.526
729.107
689.441
657.9
631.846
610.427
592.586
577.783
565.434
555.295
547.163
540.848
536.189
533.012
531.343
530.801
531.176
532.495
534.628
537.462
540.901
544.854
549.239
553.984
559.024
564.302
569.768
575.381
581.107
586.916
592.785
598.694
604.629
610.578
616.533
622.484
628.428
634.36
640.278
646.181
652.068
657.943
663.805
669.652
675.484
681.302
687.106
692.895
698.67
704.43
710.174
715.901
721.609
727.29
732.952
738.594
744.215
749.811
755.38
760.918
766.423
771.889
777.314
782.691
788.015
793.278
798.475
803.601
808.651
813.619
818.501
823.292
827.986
832.578
837.062
841.435
845.691
849.826
853.834
857.713
861.457
865.064
868.529
871.85
875.024
878.047
880.917
883.631
886.187
888.581
890.811
892.874
894.768
896.488
898.031
899.395
900.576
901.57
902.374
902.985
903.4
903.602
903.612
903.421
903.025
902.421
901.608
900.587
899.356
897.919
896.276
894.431
892.385
890.142
887.705
885.079
882.268
879.277
876.113
872.779
869.283
865.63
861.827
857.88
853.797
849.582
845.244
840.79
836.225
831.558
826.795
821.944
817.013
812.007
806.936
801.806
796.625
791.4
786.138
780.85
775.542
770.225
764.911
759.613
754.344
749.124
743.978
738.938
734.053
729.38
725.035
721.096
717.831
11463.3
2720.93
971.064
578.286
438.429
372.87
336.005
312.064
294.297
280.866
272.183
269.515
273.515
286.759
313.338
360.735
430.176
519.368
618.167
713.138
787.068
833.127
854.65
856.221
806.484
755.956
709.211
669.5
638.396
612.434
591.165
573.303
558.327
545.768
535.317
526.727
519.844
514.534
510.67
508.19
507.044
506.849
507.637
509.318
511.807
515.014
518.852
523.24
528.105
533.377
538.993
544.895
551.032
557.36
563.839
570.435
577.117
583.86
590.644
597.452
604.275
611.105
617.928
624.739
631.533
638.307
645.058
651.781
658.466
665.122
671.762
678.387
684.996
691.588
698.164
704.723
711.264
717.787
724.29
730.775
737.243
743.684
750.095
756.472
762.814
769.115
775.373
781.584
787.742
793.844
799.883
805.853
811.749
817.566
823.298
828.938
834.482
839.924
845.256
850.474
855.57
860.54
865.378
870.077
874.633
879.041
883.295
887.393
891.329
895.101
898.704
902.137
905.395
908.476
911.378
914.097
916.632
918.98
921.136
923.1
924.866
926.433
927.795
928.949
929.893
930.62
931.131
931.412
931.468
931.298
930.899
930.268
929.404
928.304
926.97
925.401
923.599
921.567
919.308
916.824
914.12
911.2
908.07
904.735
901.202
897.477
893.567
889.479
885.221
880.799
876.223
871.498
866.634
861.638
856.518
851.283
845.94
840.497
834.964
829.349
823.659
817.903
812.09
806.227
800.324
794.389
788.431
782.46
776.485
770.519
764.575
758.666
752.81
747.031
741.356
735.825
730.483
725.418
720.674
716.305
11463.3
2184.37
833.526
537.321
431.272
381.636
354.386
336.558
323.891
317.283
315.975
323.287
342.332
376.007
425.497
488.235
560.948
635.478
701.155
749.835
780.939
793.962
774.4
734.392
692.293
655.639
624.352
598.564
577.462
559.558
544.448
531.606
520.755
511.673
504.204
498.222
493.626
490.326
488.331
487.533
487.613
488.677
490.63
493.396
496.901
501.075
505.847
511.151
516.923
523.103
529.629
536.45
543.515
550.783
558.219
565.788
573.452
581.183
588.959
596.754
604.54
612.297
620.047
627.792
635.525
643.241
650.937
658.614
666.278
673.93
681.562
689.169
696.747
704.298
711.819
719.31
726.769
734.197
741.59
748.945
756.262
763.538
770.77
777.955
785.091
792.172
799.196
806.158
813.052
819.875
826.62
833.28
839.851
846.325
852.697
858.959
865.104
871.126
877.017
882.771
888.381
893.839
899.14
904.277
909.243
914.035
918.645
923.071
927.308
931.352
935.2
938.849
942.297
945.54
948.577
951.405
954.023
956.426
958.614
960.582
962.327
963.847
965.136
966.192
967.01
967.586
967.916
967.996
967.821
967.391
966.703
965.757
964.55
963.081
961.351
959.36
957.11
954.605
951.848
948.842
945.594
942.108
938.392
934.451
930.295
925.929
921.364
916.606
911.664
906.548
901.267
895.828
890.242
884.517
878.663
872.69
866.605
860.419
854.141
847.781
841.348
834.85
828.298
821.701
815.068
808.409
801.733
795.05
788.373
781.711
775.079
768.49
761.961
755.512
749.17
742.967
736.937
731.149
725.617
720.229
11463.3
1970.62
809.371
538.749
444.993
404.577
384.542
374.156
370.19
371.339
381.547
402.022
433.704
476.113
526.83
581.171
633.222
676.597
710.141
729.636
733.509
705.473
674.456
642.136
613.116
588.544
567.626
549.945
534.886
521.897
510.75
501.236
493.22
486.605
481.308
477.26
474.396
472.759
472.191
472.544
473.837
476.022
479.039
482.825
487.319
492.46
498.191
504.455
511.206
518.383
525.922
533.769
541.875
550.188
558.641
567.199
575.867
584.629
593.461
602.341
611.256
620.199
629.147
638.093
647.02
655.917
664.783
673.614
682.411
691.167
699.879
708.549
717.179
725.766
734.31
742.809
751.261
759.665
768.017
776.315
784.556
792.737
800.855
808.908
816.89
824.799
832.631
840.38
848.042
855.611
863.083
870.451
877.707
884.845
891.858
898.737
905.475
912.065
918.497
924.763
930.856
936.768
942.492
948.021
953.348
958.467
963.373
968.061
972.527
976.768
980.78
984.562
988.111
991.425
994.503
997.342
999.942
1002.3
1004.41
1006.28
1007.9
1009.26
1010.37
1011.22
1011.8
1012.11
1012.15
1011.92
1011.4
1010.6
1009.51
1008.14
1006.48
1004.54
1002.3
999.785
996.982
993.899
990.541
986.912
983.019
978.87
974.471
969.83
964.958
959.861
954.551
949.036
943.328
937.435
931.369
925.139
918.756
912.23
905.572
898.792
891.901
884.908
877.825
870.662
863.428
856.135
848.793
841.411
834
826.57
819.132
811.697
804.276
796.88
789.523
782.219
774.984
767.837
760.8
753.901
747.168
740.655
734.36
728.05
11463.3
1899.53
793.89
546.35
465.506
434.367
422.255
418.774
421.09
431.251
449.456
475.539
508.345
545.338
582.866
616.962
645.828
669.327
679.604
670.847
649.462
625.03
601.483
579.381
560.025
543.221
528.539
515.74
504.568
494.838
486.455
479.349
473.468
468.772
465.22
462.769
461.482
461.167
461.798
463.355
465.8
469.106
473.232
478.104
483.668
489.875
496.668
503.983
511.728
519.87
528.404
537.291
546.487
555.951
565.651
575.545
585.582
595.73
605.966
616.251
626.56
636.874
647.167
657.42
667.633
677.803
687.926
697.999
708.021
717.987
727.897
737.748
747.54
757.271
766.938
776.54
786.073
795.533
804.918
814.223
823.444
832.579
841.624
850.575
859.428
868.179
876.826
885.362
893.784
902.087
910.265
918.312
926.22
933.981
941.589
949.034
956.308
963.401
970.305
977.009
983.505
989.785
995.84
1001.66
1007.25
1012.58
1017.67
1022.5
1027.07
1031.38
1035.42
1039.2
1042.71
1045.95
1048.92
1051.62
1054.05
1056.21
1058.09
1059.71
1061.04
1062.1
1062.87
1063.35
1063.55
1063.44
1063.05
1062.34
1061.33
1060.01
1058.38
1056.44
1054.19
1051.63
1048.76
1045.58
1042.09
1038.3
1034.22
1029.85
1025.19
1020.26
1015.07
1009.62
1003.93
998
991.848
985.484
978.918
972.162
965.228
958.127
950.871
943.471
935.94
928.287
920.526
912.666
904.72
896.7
888.615
880.477
872.298
864.088
855.858
847.618
839.382
831.158
822.96
814.799
806.689
798.643
790.676
782.807
775.055
767.445
759.997
752.76
745.722
738.564
11463.3
1864.63
791.55
560.542
489.501
465.589
458.967
458.845
466.443
480.015
498.841
521.481
545.946
569.918
592.445
613.768
626.592
629.254
616.538
602.948
585.596
568.563
552.52
537.641
524.244
512.227
501.479
491.941
483.558
476.294
470.127
465.043
461.024
458.065
456.214
455.44
455.566
456.626
458.577
461.39
465.021
469.395
474.463
480.278
486.823
494.06
501.947
510.436
519.499
529.081
539.113
549.537
560.303
571.377
582.705
594.225
605.88
617.618
629.395
641.195
652.998
664.784
676.534
688.234
699.874
711.451
722.959
734.396
745.759
757.046
768.255
779.381
790.424
801.381
812.246
823.017
833.687
844.253
854.708
865.047
875.266
885.36
895.325
905.157
914.852
924.407
933.819
943.083
952.195
961.152
969.949
978.579
987.036
995.312
1003.4
1011.29
1018.96
1026.43
1033.66
1040.65
1047.4
1053.89
1060.11
1066.05
1071.71
1077.09
1082.17
1086.95
1091.43
1095.6
1099.47
1103.04
1106.3
1109.25
1111.9
1114.25
1116.29
1118.04
1119.48
1120.63
1121.46
1122
1122.22
1122.13
1121.75
1121.02
1119.98
1118.61
1116.91
1114.89
1112.53
1109.84
1106.83
1103.48
1099.8
1095.79
1091.46
1086.82
1081.86
1076.6
1071.05
1065.21
1059.1
1052.72
1046.1
1039.23
1032.13
1024.81
1017.3
1009.59
1001.7
993.65
985.446
977.101
968.63
960.043
951.353
942.572
933.713
924.788
915.808
906.786
897.732
888.658
879.577
870.499
861.435
852.398
843.4
834.453
825.569
816.763
808.049
799.444
790.966
782.637
774.472
766.515
758.752
750.81
11463.3
1835.57
794.313
575.856
511.473
491.263
486.329
487.236
494.556
505.485
518.851
533.797
549.826
566.507
579.599
584.71
581.539
574.468
564.379
553.801
542.121
530.767
519.926
509.752
500.405
491.924
484.354
477.763
472.195
467.482
463.619
460.62
458.485
457.219
456.723
457.001
458.179
460.292
463.327
467.27
472.101
477.817
484.405
491.813
500.005
508.947
518.593
528.894
539.809
551.297
563.268
575.639
588.337
601.286
614.437
627.746
641.166
654.649
668.156
681.655
695.123
708.539
721.884
735.147
748.318
761.392
774.366
787.237
800.003
812.663
825.213
837.651
849.972
862.172
874.245
886.184
897.981
909.629
921.12
932.446
943.601
954.578
965.373
975.982
986.4
996.626
1006.66
1016.49
1026.12
1035.55
1044.78
1053.79
1062.59
1071.16
1079.5
1087.59
1095.44
1103.03
1110.34
1117.37
1124.11
1130.54
1136.65
1142.45
1147.91
1153.04
1157.83
1162.27
1166.36
1170.12
1173.52
1176.58
1179.29
1181.66
1183.7
1185.4
1186.76
1187.79
1188.52
1188.91
1188.95
1188.7
1188.11
1187.17
1185.92
1184.32
1182.38
1180.1
1177.48
1174.52
1171.2
1167.55
1163.55
1159.2
1154.52
1149.49
1144.14
1138.46
1132.46
1126.16
1119.55
1112.66
1105.49
1098.05
1090.37
1082.44
1074.29
1065.92
1057.36
1048.61
1039.69
1030.61
1021.39
1012.03
1002.56
992.987
983.32
973.574
963.762
953.896
943.989
934.053
924.1
914.141
904.189
894.255
884.351
874.488
864.68
854.937
845.274
835.703
826.238
816.896
807.693
798.648
789.773
781.108
772.642
763.975
11463.3
1824.67
800.383
588.6
526.404
505.734
499.056
497.661
500.61
507.39
516.954
527.929
537.731
542.263
542.885
540.04
536.983
532.322
526.769
520.909
514.759
508.885
503.128
497.472
492.069
487.017
482.366
478.062
474.053
470.768
468.305
466.716
466.026
466.246
467.423
469.576
472.677
476.733
481.743
487.703
494.603
502.443
511.208
520.857
531.342
542.637
554.686
567.399
580.696
594.477
608.686
623.261
638.134
653.234
668.498
683.869
699.296
714.727
730.123
745.448
760.676
775.788
790.768
805.608
820.3
834.844
849.239
863.486
877.585
891.536
905.337
918.986
932.476
945.801
958.952
971.92
984.693
997.26
1009.61
1021.73
1033.61
1045.24
1056.63
1067.75
1078.62
1089.23
1099.57
1109.65
1119.47
1129.03
1138.32
1147.35
1156.12
1164.6
1172.81
1180.72
1188.34
1195.65
1202.64
1209.3
1215.61
1221.57
1227.17
1232.4
1237.26
1241.72
1245.8
1249.49
1252.79
1255.7
1258.23
1260.37
1262.13
1263.51
1264.55
1265.21
1265.51
1265.44
1265.09
1264.36
1263.27
1261.85
1260.09
1257.98
1255.53
1252.74
1249.59
1246.1
1242.27
1238.08
1233.53
1228.65
1223.41
1217.83
1211.9
1205.64
1199.05
1192.14
1184.91
1177.38
1169.56
1161.45
1153.08
1144.45
1135.57
1126.47
1117.16
1107.64
1097.94
1088.07
1078.04
1067.87
1057.57
1047.15
1036.64
1026.03
1015.36
1004.62
993.826
983.001
972.151
961.29
950.429
939.581
928.756
917.967
907.225
896.541
885.929
875.401
864.967
854.643
844.44
834.374
824.46
814.716
805.15
795.801
786.66
777.33
11463.3
1812.37
803.162
594.983
531.531
507.708
497.995
494.666
494.384
497.117
499.788
502.569
504.833
506.95
510.665
513.361
515.294
516.09
516.191
515.267
513.346
510.344
506.831
503.337
500.064
497.134
494.648
492.715
491.509
491.028
491.349
492.528
494.624
497.654
501.664
506.67
512.649
519.593
527.498
536.36
546.176
556.948
568.676
581.357
594.876
609.124
624.022
639.522
655.555
672.04
688.9
706.057
723.43
740.945
758.524
776.106
793.624
811.035
828.287
845.357
862.212
878.847
895.245
911.413
927.347
943.059
958.552
973.835
988.917
1003.8
1018.48
1032.96
1047.24
1061.3
1075.13
1088.71
1102.04
1115.09
1127.85
1140.3
1152.43
1164.23
1175.69
1186.81
1197.59
1208.02
1218.1
1227.85
1237.27
1246.35
1255.11
1263.54
1271.65
1279.43
1286.87
1293.98
1300.75
1307.16
1313.2
1318.87
1324.15
1329.03
1333.5
1337.56
1341.2
1344.42
1347.21
1349.55
1351.48
1353.01
1354.11
1354.8
1355.05
1354.93
1354.48
1353.6
1352.35
1350.74
1348.78
1346.47
1343.81
1340.81
1337.46
1333.77
1329.74
1325.37
1320.66
1315.6
1310.2
1304.46
1298.38
1291.96
1285.2
1278.11
1270.69
1262.95
1254.9
1246.54
1237.88
1228.94
1219.73
1210.25
1200.53
1190.57
1180.39
1170.01
1159.43
1148.68
1137.76
1126.7
1115.51
1104.19
1092.78
1081.27
1069.68
1058.03
1046.33
1034.59
1022.82
1011.04
999.252
987.477
975.725
964.004
952.328
940.708
929.154
917.678
906.291
895.005
883.833
872.786
861.877
851.119
840.527
830.117
819.895
809.899
800.12
790.194
11463.3
1803.51
802.703
594.691
528.636
500.896
486.201
478.29
475.342
475.923
481.822
489.41
497.759
505.945
513.08
519.097
524.249
528.343
531.57
533.858
535.408
536.566
537.587
538.625
539.862
541.425
543.44
546.034
549.337
553.344
558.11
563.676
570.075
577.336
585.481
594.536
604.493
615.361
627.126
639.797
653.366
667.876
683.292
699.465
716.358
733.901
752.024
770.649
789.698
809.076
828.7
848.461
868.284
888.06
907.723
927.177
946.382
965.263
983.807
1001.97
1019.75
1037.15
1054.17
1070.83
1087.15
1103.15
1118.86
1134.28
1149.44
1164.36
1179.02
1193.44
1207.59
1221.49
1235.09
1248.39
1261.36
1273.98
1286.22
1298.07
1309.5
1320.51
1331.09
1341.23
1350.93
1360.2
1369.05
1377.48
1385.5
1393.12
1400.36
1407.22
1413.7
1419.8
1425.53
1430.89
1435.87
1440.45
1444.64
1448.41
1451.77
1454.68
1457.17
1459.24
1460.84
1462
1462.7
1462.92
1462.74
1462.17
1461.12
1459.66
1457.78
1455.51
1452.87
1449.85
1446.47
1442.72
1438.64
1434.22
1429.46
1424.38
1418.97