/*--------------------------------*- C++ -*----------------------------------*\
  =========                 |
  \\      /  F ield         | OpenFOAM: The Open Source CFD Toolbox
   \\    /   O peration     | Website:  https://openfoam.org
    \\  /    A nd           | Version:  8
     \\/     M anipulation  |
\*---------------------------------------------------------------------------*/
FoamFile
{
    version     2.0;
    format      ascii;
    class       volScalarField;
    location    "700";
    object      p;
}
// * * * * * * * * * * * * * * * * * * * * * * * * * * * * * * * * * * * * * //

dimensions      [0 2 -2 0 0 0 0];

internalField   nonuniform List<scalar> 
12225
(
-1.45478
-3.72045
-4.83874
-5.16963
-5.34518
-5.5328
-5.7065
-5.79745
-5.88732
-5.9842
-6.05154
-6.12634
-6.18484
-6.23876
-6.30783
-6.35465
-6.42283
-6.41689
-4.54626
-5.40228
-5.67295
-5.58255
-5.56165
-5.63608
-5.73086
-5.8339
-5.91582
-5.99106
-6.07039
-6.12572
-6.18701
-6.25081
-6.29954
-6.36064
-6.43176
-6.51966
-4.95521
-4.96087
-5.14025
-5.2398
-5.35807
-5.51044
-5.66229
-5.80252
-5.89954
-5.97657
-6.05112
-6.11078
-6.17693
-6.23977
-6.29199
-6.35696
-6.43284
-6.51529
-4.85224
-4.83335
-5.13051
-5.33085
-5.45652
-5.58619
-5.71559
-5.83058
-5.91302
-5.98082
-6.04817
-6.10931
-6.17375
-6.23716
-6.29625
-6.36154
-6.43264
-6.50193
-4.85293
-4.92964
-5.20638
-5.382
-5.48067
-5.58947
-5.70638
-5.81267
-5.89608
-5.96745
-6.03729
-6.10295
-6.16839
-6.23294
-6.29445
-6.35723
-6.42209
-6.4846
-4.93709
-5.02785
-5.23592
-5.38788
-5.48687
-5.59323
-5.70594
-5.80851
-5.89297
-5.96631
-6.03627
-6.1025
-6.16698
-6.23024
-6.29105
-6.35116
-6.41151
-6.46958
-5.02859
-5.09985
-5.25827
-5.39956
-5.50322
-5.60596
-5.71159
-5.80858
-5.89147
-5.96469
-6.03373
-6.09942
-6.16284
-6.2247
-6.28437
-6.34245
-6.39942
-6.45365
-5.09941
-5.15539
-5.28667
-5.41757
-5.51975
-5.61717
-5.71613
-5.80841
-5.88947
-5.96208
-6.03027
-6.09519
-6.15765
-6.21822
-6.27661
-6.33298
-6.38747
-6.43892
-5.15773
-5.20422
-5.31576
-5.43521
-5.5339
-5.62671
-5.72024
-5.80858
-5.8878
-5.95953
-6.02678
-6.09076
-6.15218
-6.21148
-6.26855
-6.32336
-6.37589
-6.42522
-5.21646
-5.25558
-5.34875
-5.45539
-5.54934
-5.63753
-5.72557
-5.8097
-5.88657
-5.95694
-6.02291
-6.08565
-6.14575
-6.20357
-6.25907
-6.31217
-6.36272
-6.40998
-5.27515
-5.30777
-5.3848
-5.47854
-5.56654
-5.64979
-5.7323
-5.81193
-5.88598
-5.95451
-6.01891
-6.08012
-6.13868
-6.19481
-6.24855
-6.29974
-6.34826
-6.39347
-5.33254
-5.35978
-5.42325
-5.50457
-5.58548
-5.66334
-5.74032
-5.81528
-5.88611
-5.95241
-6.01493
-6.0744
-6.13119
-6.18548
-6.23725
-6.28642
-6.33283
-6.3761
-5.38798
-5.41054
-5.46286
-5.53268
-5.60582
-5.6779
-5.74942
-5.81964
-5.88693
-5.95064
-6.01102
-6.06852
-6.12337
-6.17566
-6.22536
-6.27245
-6.3168
-6.35816
-5.43975
-5.45855
-5.50189
-5.5616
-5.62689
-5.693
-5.75918
-5.82471
-5.88828
-5.94911
-6.00712
-6.06244
-6.11521
-6.1654
-6.21305
-6.25807
-6.30051
-6.34011
-5.48612
-5.50187
-5.53817
-5.58943
-5.64745
-5.70775
-5.76888
-5.82993
-5.88978
-5.94761
-6.00307
-6.05612
-6.10672
-6.15486
-6.2005
-6.24366
-6.28431
-6.32243
-5.52432
-5.53779
-5.56889
-5.61361
-5.66554
-5.72069
-5.77734
-5.8344
-5.89082
-5.94575
-5.99872
-6.04953
-6.09807
-6.14427
-6.18811
-6.22961
-6.26875
-6.30557
-5.5506
-5.56252
-5.59022
-5.63054
-5.67815
-5.72946
-5.7827
-5.83667
-5.89034
-5.94287
-5.99373
-6.04263
-6.0894
-6.13399
-6.17633
-6.21645
-6.25437
-6.29015
-5.55861
-5.56997
-5.59637
-5.63505
-5.68092
-5.73066
-5.78235
-5.83488
-5.88715
-5.93839
-5.98803
-6.03578
-6.08146
-6.12501
-6.16637
-6.2056
-6.24269
-6.27777
-5.54759
-5.5592
-5.5864
-5.62613
-5.67317
-5.72375
-5.77607
-5.82895
-5.88145
-5.93272
-5.98226
-6.02977
-6.07516
-6.11833
-6.1593
-6.1981
-6.2348
-6.26949
-5.52238
-5.53502
-5.56452
-5.60762
-5.65807
-5.71148
-5.76597
-5.82065
-5.87455
-5.92685
-5.97708
-6.02505
-6.07067
-6.11396
-6.15492
-6.19365
-6.23021
-6.26478
-5.48691
-5.5008
-5.53403
-5.58269
-5.6385
-5.69603
-5.75383
-5.81134
-5.86751
-5.92145
-5.97283
-6.02163
-6.06784
-6.1115
-6.15268
-6.19151
-6.22812
-6.26269
-5.44348
-5.4587
-5.49705
-5.55405
-5.61693
-5.67917
-5.74085
-5.80192
-5.86095
-5.91691
-5.96975
-6.0196
-6.06655
-6.11068
-6.15216
-6.19115
-6.22784
-6.2624
-5.39504
-5.41005
-5.45474
-5.52332
-5.59507
-5.66259
-5.72861
-5.7935
-5.85538
-5.91336
-5.96771
-6.01871
-6.06647
-6.11116
-6.15299
-6.19222
-6.22905
-6.26373
-5.34233
-5.35643
-5.4101
-5.49203
-5.5719
-5.64545
-5.71757
-5.78719
-5.85184
-5.91151
-5.96711
-6.01902
-6.06735
-6.11234
-6.15433
-6.19364
-6.23048
-6.26511
-5.28586
-5.29397
-5.37053
-5.46911
-5.55041
-5.62639
-5.70507
-5.78045
-5.84854
-5.91046
-5.96777
-6.02089
-6.06996
-6.11535
-6.15754
-6.19691
-6.23379
-6.26854
-5.22975
-5.19738
-5.32331
-5.45974
-5.54441
-5.61817
-5.69788
-5.77455
-5.84324
-5.90575
-5.96379
-6.01759
-6.06717
-6.11294
-6.15542
-6.19506
-6.23217
-6.26707
-5.22393
-5.07129
-5.21583
-5.40189
-5.52216
-5.61878
-5.71029
-5.79118
-5.86078
-5.92317
-5.98041
-6.03295
-6.08106
-6.1253
-6.16631
-6.20458
-6.24056
-6.27493
-5.31911
-5.14499
-5.16392
-5.2542
-5.36491
-5.49137
-5.61201
-5.71416
-5.80066
-5.87695
-5.9453
-6.00634
-6.06095
-6.11018
-6.15494
-6.19599
-6.23412
-6.27027
-5.0135
-5.66952
-5.8197
-5.72903
-5.68452
-5.72086
-5.78098
-5.83793
-5.89192
-5.94554
-5.99772
-6.04688
-6.09262
-6.13513
-6.17469
-6.21144
-6.24584
-6.27938
-2.15299
-3.8072
-4.81806
-5.14944
-5.32575
-5.49864
-5.64389
-5.75227
-5.83817
-5.91242
-5.97815
-6.03621
-6.08781
-6.1342
-6.17623
-6.2142
-6.24821
-6.27687
-7.4395
-7.4396
-7.43963
-7.43956
-7.43913
-7.43789
-7.43562
-7.43285
-7.43034
-7.42877
-7.42866
-7.42985
-7.43178
-7.43379
-7.43542
-7.43642
-7.43688
-7.43695
-7.43678
-7.43652
-7.43624
-7.43597
-7.43568
-7.43531
-7.43485
-7.43426
-7.43353
-7.43281
-7.4324
-7.43267
-7.43373
-7.43526
-7.43701
-7.439
-7.4417
-7.44491
-7.44744
-7.44865
-7.45064
-7.45718
-7.47163
-7.49356
-7.52316
-7.5624
-7.61223
-7.67114
-7.73645
-7.80575
-7.87731
-7.94928
-8.01974
-8.08703
-8.14923
-8.20564
-8.25623
-8.30093
-8.34026
-8.37429
-8.4032
-8.42731
-8.44692
-8.46235
-8.47385
-8.48166
-8.48596
-8.48692
-8.48466
-8.47928
-8.47083
-8.45938
-8.44491
-8.42747
-8.407
-8.38351
-8.35692
-8.32721
-8.29429
-8.25812
-8.2186
-8.17567
-8.12924
-8.07924
-8.02554
-7.96808
-7.90673
-7.84141
-7.77204
-7.69854
-7.62083
-7.53881
-7.4524
-7.36153
-7.26619
-7.16644
-7.06213
-6.95283
-6.83837
-6.71889
-6.59441
-6.46489
-6.3303
-6.19061
-6.04581
-5.89587
-5.74077
-5.58053
-5.41513
-5.24459
-5.06892
-4.88815
-4.70229
-4.51139
-4.31548
-4.11461
-3.90883
-3.69819
-3.48275
-3.26261
-3.03782
-2.80849
-2.57471
-2.33661
-2.09431
-1.84794
-1.59767
-1.34366
-1.08609
-0.825158
-0.561058
-0.294038
-0.0243525
0.247741
0.521997
0.798163
1.07596
1.3551
1.63526
1.91618
2.19756
2.47912
2.76055
3.04156
3.32184
3.60113
3.87913
4.15558
4.43021
4.70279
4.97309
5.24089
5.50596
5.76808
6.02705
6.28268
6.5348
6.78324
7.02785
7.2685
7.50506
7.7374
7.96543
8.18904
8.40814
8.62265
8.83249
9.0376
9.23789
9.4333
9.62389
9.80977
9.99076
10.1666
10.3374
10.5031
10.664
10.8203
10.973
11.1225
11.2767
11.4263
-7.44065
-7.44081
-7.4411
-7.44128
-7.44105
-7.44006
-7.43818
-7.436
-7.43445
-7.43411
-7.43499
-7.43676
-7.43888
-7.44082
-7.44219
-7.44276
-7.44247
-7.44144
-7.43998
-7.43843
-7.43704
-7.43591
-7.43502
-7.43425
-7.43352
-7.43286
-7.43241
-7.43227
-7.4327
-7.43397
-7.43571
-7.43697
-7.43677
-7.43497
-7.43373
-7.43591
-7.44142
-7.44694
-7.45321
-7.4626
-7.47631
-7.49762
-7.53069
-7.57653
-7.63321
-7.69809
-7.76895
-7.84351
-7.91862
-7.99126
-8.05944
-8.122
-8.17946
-8.23182
-8.2788
-8.32044
-8.35634
-8.38693
-8.41279
-8.43426
-8.45164
-8.46521
-8.47518
-8.48173
-8.48503
-8.48519
-8.4823
-8.47643
-8.46763
-8.45591
-8.44129
-8.42376
-8.40328
-8.37982
-8.35334
-8.32377
-8.29104
-8.25509
-8.21584
-8.17322
-8.12712
-8.07748
-8.02419
-7.96717
-7.90631
-7.84153
-7.77272
-7.69981
-7.62271
-7.54133
-7.45558
-7.36534
-7.27047
-7.1708
-7.06624
-6.95697
-6.84301
-6.72419
-6.60041
-6.47162
-6.33778
-6.19886
-6.05482
-5.90566
-5.75136
-5.59192
-5.42733
-5.25761
-5.08277
-4.90283
-4.71782
-4.52777
-4.33272
-4.13271
-3.9278
-3.71804
-3.50349
-3.28422
-3.06032
-2.83187
-2.59898
-2.36175
-2.12031
-1.8748
-1.62537
-1.37219
-1.11542
-0.855263
-0.59192
-0.325626
-0.0566276
0.214819
0.488467
0.764059
1.04133
1.31997
1.5997
1.88022
2.16126
2.44252
2.72369
3.00449
3.28461
3.56379
3.84173
4.11817
4.39283
4.66549
4.93592
5.20389
5.46918
5.73156
5.99082
6.24679
6.49928
6.74813
6.99319
7.23432
7.47139
7.70428
7.93288
8.15709
8.37682
8.59199
8.80255
9.00847
9.20963
9.40595
9.59725
9.78328
9.96414
10.14
10.3109
10.4768
10.638
10.7948
10.9484
11.0989
11.2552
11.4024
-7.442
-7.44195
-7.44191
-7.4419
-7.44191
-7.44201
-7.44249
-7.44366
-7.44569
-7.44843
-7.4515
-7.45448
-7.45694
-7.45854
-7.45902
-7.45834
-7.4565
-7.45361
-7.44986
-7.44554
-7.44099
-7.43655
-7.43255
-7.42923
-7.42675
-7.42523
-7.42493
-7.42589
-7.4277
-7.42966
-7.43074
-7.43137
-7.43249
-7.43335
-7.4349
-7.44064
-7.45163
-7.4676
-7.48925
-7.5168
-7.55038
-7.59064
-7.63799
-7.69157
-7.74966
-7.81053
-7.87278
-7.93522
-7.99654
-8.05546
-8.111
-8.16259
-8.2102
-8.2538
-8.2933
-8.32869
-8.35983
-8.38685
-8.40991
-8.4292
-8.4449
-8.45716
-8.46612
-8.47192
-8.47466
-8.47442
-8.47127
-8.46524
-8.45638
-8.44468
-8.43014
-8.41275
-8.39247
-8.36926
-8.34306
-8.31382
-8.28146
-8.24592
-8.2071
-8.16494
-8.11935
-8.07023
-8.01751
-7.96107
-7.90084
-7.8367
-7.76857
-7.69636
-7.61998
-7.53936
-7.4544
-7.36502
-7.27111
-7.17249
-7.06905
-6.96081
-6.84781
-6.72995
-6.60716
-6.4794
-6.3466
-6.20874
-6.06579
-5.91772
-5.76453
-5.60621
-5.44277
-5.2742
-5.10053
-4.92178
-4.73797
-4.54913
-4.35531
-4.15654
-3.95288
-3.74437
-3.53109
-3.3131
-3.09048
-2.86331
-2.6317
-2.39574
-2.15557
-1.91131
-1.66312
-1.41115
-1.15558
-0.896596
-0.634396
-0.369206
-0.101273
0.169158
0.441835
0.716502
0.992887
1.2707
1.54965
1.82946
2.10984
2.39049
2.67111
2.95141
3.23111
3.5099
3.78751
4.06368
4.33812
4.61062
4.88094
5.14885
5.41412
5.67653
5.93587
6.19195
6.4446
6.69364
6.93893
7.18031
7.41766
7.65086
7.87978
8.10433
8.32443
8.53996
8.75083
8.95694
9.15825
9.35471
9.54628
9.73289
9.91459
10.0913
10.2631
10.43
10.5924
10.7505
10.9056
11.0572
11.2154
11.3555
-7.44342
-7.44306
-7.44265
-7.44291
-7.44481
-7.4485
-7.45338
-7.45876
-7.46407
-7.46891
-7.47297
-7.47603
-7.47789
-7.47841
-7.47754
-7.47528
-7.47159
-7.46655
-7.46035
-7.45322
-7.44549
-7.43754
-7.42989
-7.42319
-7.41821
-7.41546
-7.41541
-7.41763
-7.42041
-7.42246
-7.42429
-7.42736
-7.43298
-7.44207
-7.4561
-7.47565
-7.50062
-7.53066
-7.56538
-7.60403
-7.64601
-7.69093
-7.73848
-7.78822
-7.8396
-7.892
-7.94479
-7.99734
-8.0489
-8.09874
-8.14621
-8.19083
-8.23234
-8.27053
-8.30528
-8.33651
-8.36418
-8.38834
-8.40905
-8.42641
-8.44055
-8.45156
-8.45953
-8.46457
-8.46672
-8.46606
-8.46261
-8.45642
-8.44748
-8.43579
-8.42135
-8.40412
-8.38406
-8.36112
-8.33524
-8.30637
-8.27442
-8.23932
-8.20099
-8.15934
-8.11429
-8.06575
-8.01362
-7.95781
-7.89823
-7.83477
-7.76735
-7.69586
-7.62022
-7.54033
-7.45611
-7.36747
-7.2743
-7.1765
-7.07397
-6.96671
-6.85466
-6.73777
-6.61597
-6.4892
-6.35742
-6.22059
-6.07868
-5.93167
-5.77956
-5.62232
-5.45998
-5.29253
-5.11999
-4.94238
-4.75972
-4.57206
-4.37942
-4.18185
-3.97939
-3.7721
-3.56005
-3.34329
-3.1219
-2.89597
-2.66559
-2.43087
-2.19192
-1.94888
-1.70188
-1.45108
-1.19666
-0.938797
-0.677692
-0.413563
-0.146649
0.122806
0.394552
0.668332
0.943871
1.22089
1.4991
1.77822
2.05796
2.33802
2.61811
2.89794
3.1772
3.45561
3.7329
4.00878
4.283
4.55533
4.82552
5.09335
5.35858
5.62098
5.88036
6.13652
6.38928
6.63848
6.88394
7.12553
7.36311
7.59654
7.82573
8.05055
8.27092
8.48674
8.69792
8.90438
9.10606
9.30291
9.49494
9.68217
9.86457
10.042
10.2146
10.3823
10.5454
10.7043
10.8602
11.0116
11.1691
11.2997
-7.44648
-7.44568
-7.44554
-7.44833
-7.45437
-7.46202
-7.46984
-7.47714
-7.48348
-7.48855
-7.49222
-7.49446
-7.49526
-7.4946
-7.49248
-7.48885
-7.4837
-7.47711
-7.4692
-7.46016
-7.45025
-7.43989
-7.42982
-7.42118
-7.41535
-7.41308
-7.41346
-7.41441
-7.41591
-7.41952
-7.42661
-7.43814
-7.45502
-7.47755
-7.50515
-7.53659
-7.57104
-7.60796
-7.6468
-7.68724
-7.72918
-7.7726
-7.81745
-7.86347
-7.91027
-7.95742
-8.00441
-8.05073
-8.09586
-8.13932
-8.18069
-8.21965
-8.25596
-8.28945
-8.32001
-8.34755
-8.37204
-8.39348
-8.4119
-8.42736
-8.43991
-8.44961
-8.45653
-8.46072
-8.46221
-8.46105
-8.45724
-8.4508
-8.44172
-8.42999
-8.41558
-8.39845
-8.37855
-8.35583
-8.33022
-8.30166
-8.27006
-8.23534
-8.19743
-8.15623
-8.11165
-8.06361
-8.012
-7.95674
-7.89773
-7.83487
-7.76806
-7.69721
-7.62222
-7.543
-7.45947
-7.37152
-7.27907
-7.18201
-7.08027
-6.97382
-6.86258
-6.74651
-6.62553
-6.49959
-6.36866
-6.23268
-6.09164
-5.94551
-5.79428
-5.63794
-5.47651
-5.30998
-5.13837
-4.9617
-4.78001
-4.59331
-4.40166
-4.20508
-4.00363
-3.79736
-3.58632
-3.3706
-3.15024
-2.92535
-2.696
-2.4623
-2.22437
-1.98233
-1.73632
-1.48649
-1.23302
-0.976076
-0.715865
-0.452605
-0.186521
0.0821405
0.353132
0.626192
0.901051
1.17743
1.45505
1.73362
2.01284
2.29243
2.5721
2.85153
3.13044
3.40854
3.68555
3.96121
4.23526
4.50744
4.77753
5.04529
5.31048
5.57288
5.83229
6.08851
6.34137
6.59068
6.83628
7.07804
7.31581
7.54947
7.7789
8.00399
8.22464
8.44075
8.65226
8.85907
9.06114
9.25839
9.45083
9.63846
9.82123
9.99907
10.172
10.3401
10.5036
10.6626
10.8183
10.9685
11.1238
11.2444
-7.45151
-7.4507
-7.45246
-7.45921
-7.46835
-7.47748
-7.48581
-7.49294
-7.49864
-7.50294
-7.50586
-7.5074
-7.5075
-7.50614
-7.50329
-7.49891
-7.49301
-7.48563
-7.47686
-7.46689
-7.45608
-7.445
-7.43477
-7.42717
-7.42292
-7.42067
-7.41964
-7.42079
-7.42573
-7.43609
-7.45276
-7.47527
-7.50255
-7.53357
-7.56744
-7.60344
-7.64102
-7.67986
-7.7197
-7.7604
-7.80185
-7.84397
-7.88661
-7.92954
-7.9725
-8.01518
-8.05725
-8.09838
-8.13823
-8.17648
-8.21287
-8.24715
-8.27915
-8.3087
-8.33571
-8.3601
-8.38182
-8.40086
-8.41722
-8.43092
-8.442
-8.45047
-8.45638
-8.45975
-8.46059
-8.45892
-8.45475
-8.44805
-8.43882
-8.42703
-8.41263
-8.39558
-8.37583
-8.3533
-8.32793
-8.29964
-8.26836
-8.23398
-8.19644
-8.15564
-8.11148
-8.06388
-8.01273
-7.95794
-7.89942
-7.83707
-7.77079
-7.70047
-7.62603
-7.54738
-7.46442
-7.37707
-7.28522
-7.18878
-7.08769
-6.98189
-6.8713
-6.75588
-6.63556
-6.51028
-6.38
-6.24469
-6.10433
-5.95888
-5.80833
-5.65269
-5.49196
-5.32614
-5.15526
-4.97933
-4.79838
-4.61245
-4.42157
-4.22577
-4.02512
-3.81966
-3.60944
-3.39453
-3.175
-2.95092
-2.7224
-2.48952
-2.25239
-2.01114
-1.76591
-1.51684
-1.26411
-1.00788
-0.748367
-0.485775
-0.220331
0.0477238
0.318139
0.59065
0.864995
1.14089
1.41806
1.69621
1.97505
2.25428
2.53362
2.81275
3.09138
3.36923
3.64603
3.9215
4.19539
4.46745
4.73744
5.00512
5.27025
5.53262
5.79202
6.04825
6.30113
6.5505
6.79619
7.03806
7.27595
7.50976
7.73934
7.96461
8.18544
8.40177
8.61349
8.82054
9.02284
9.22036
9.41304
9.60089
9.78385
9.96188
10.135
10.3032
10.4667
10.6254
10.7804
10.9288
11.0817
11.1928
-7.45665
-7.45701
-7.46211
-7.47131
-7.48084
-7.4894
-7.49682
-7.50308
-7.50817
-7.51203
-7.5146
-7.5158
-7.51557
-7.5139
-7.51073
-7.50605
-7.4999
-7.49236
-7.48358
-7.47382
-7.46366
-7.45412
-7.44639
-7.44087
-7.43702
-7.43489
-7.43589
-7.44191
-7.45438
-7.47329
-7.49753
-7.52594
-7.55758
-7.59171
-7.62765
-7.66498
-7.70337
-7.74256
-7.78235
-7.82254
-7.86296
-7.90346
-7.94389
-7.9841
-8.02388
-8.06304
-8.10135
-8.13856
-8.17445
-8.20881
-8.24142
-8.27212
-8.30074
-8.32717
-8.35132
-8.37313
-8.39254
-8.40955
-8.42414
-8.43631
-8.44608
-8.45346
-8.45846
-8.46109
-8.46134
-8.45922
-8.45472
-8.4478
-8.43844
-8.4266
-8.41222
-8.39526
-8.37564
-8.3533
-8.32816
-8.30013
-8.26913
-8.23507
-8.19786
-8.1574
-8.11361
-8.06639
-8.01563
-7.96125
-7.90314
-7.84121
-7.77536
-7.70549
-7.63149
-7.5533
-7.47081
-7.38393
-7.29256
-7.19662
-7.09602
-6.99072
-6.88063
-6.76571
-6.64587
-6.52108
-6.3913
-6.25648
-6.1166
-5.97164
-5.8216
-5.66647
-5.50625
-5.34095
-5.1706
-4.99522
-4.81483
-4.62947
-4.43917
-4.24398
-4.04394
-3.83909
-3.6295
-3.41523
-3.19634
-2.9729
-2.74501
-2.51276
-2.27626
-2.03561
-1.79098
-1.54249
-1.29031
-1.03462
-0.775626
-0.513523
-0.248551
0.01906
0.289055
0.561176
0.835151
1.1107
1.38755
1.6654
1.94396
2.22293
2.50203
2.78094
3.05936
3.33702
3.61364
3.88896
4.16271
4.43466
4.70455
4.97213
5.23717
5.49947
5.75882
6.01502
6.26789
6.51726
6.76296
7.00485
7.24278
7.47663
7.70628
7.93161
8.15254
8.36895
8.58078
8.78793
8.99036
9.18799
9.3808
9.56874
9.75178
9.92986
10.103
10.2711
10.4344
10.5926
10.7466
10.893
11.0435
11.1458
-7.45954
-7.46192
-7.46975
-7.47904
-7.48748
-7.49504
-7.50178
-7.50763
-7.51247
-7.51618
-7.51863
-7.51975
-7.51948
-7.5178
-7.5147
-7.5102
-7.50435
-7.49728
-7.48927
-7.48084
-7.47275
-7.46568
-7.45993
-7.4557
-7.45371
-7.45521
-7.46197
-7.4749
-7.49358
-7.51705
-7.54445
-7.57504
-7.60813
-7.64317
-7.67967
-7.71724
-7.75558
-7.79443
-7.83357
-7.8728
-7.91197
-7.95095
-7.98957
-8.02769
-8.06515
-8.10175
-8.13734
-8.17173
-8.20475
-8.23624
-8.26604
-8.29402
-8.32006
-8.34406
-8.36597
-8.38572
-8.40328
-8.41864
-8.43177
-8.44268
-8.45137
-8.45783
-8.46207
-8.46408
-8.46386
-8.46138
-8.45661
-8.44954
-8.4401
-8.42825
-8.41394
-8.39709
-8.37763
-8.35548
-8.33056
-8.30278
-8.27204
-8.23827
-8.20135
-8.1612
-8.11772
-8.07082
-8.02038
-7.96633
-7.90856
-7.84697
-7.78146
-7.71193
-7.63829
-7.56045
-7.47832
-7.39179
-7.30079
-7.2052
-7.10498
-7.00003
-6.89029
-6.7757
-6.65621
-6.53175
-6.4023
-6.2678
-6.12825
-5.98362
-5.8339
-5.6791
-5.51922
-5.35428
-5.18429
-5.00929
-4.82929
-4.64433
-4.45446
-4.2597
-4.06011
-3.85572
-3.6466
-3.4328
-3.21439
-2.99144
-2.76403
-2.53225
-2.29621
-2.05603
-1.81183
-1.56376
-1.31199
-1.05669
-0.798058
-0.536307
-0.271664
-0.00435816
0.265351
0.537207
0.810936
1.08626
1.36289
1.64054
1.91891
2.19771
2.47663
2.75537
3.03364
3.31116
3.58765
3.86285
4.13649
4.40833
4.67811
4.94559
5.21055
5.47277
5.73204
5.98817
6.24098
6.4903
6.73595
6.9778
7.21571
7.44954
7.67917
7.90451
8.12543
8.34186
8.55371
8.7609
8.96336
9.16102
9.35386
9.54181
9.72483
9.90285
10.0758
10.2438
10.4066
10.5641
10.717
10.8613
11.0096
11.104
-7.45837
-7.46277
-7.47119
-7.47943
-7.487
-7.49407
-7.50057
-7.50636
-7.51127
-7.51512
-7.51776
-7.5191
-7.51908
-7.51767
-7.5149
-7.51082
-7.50557
-7.4994
-7.49282
-7.48637
-7.48042
-7.47532
-7.47167
-7.47029
-7.47247
-7.47947
-7.49171
-7.50889
-7.53047
-7.5559
-7.58458
-7.61595
-7.64947
-7.68465
-7.72109
-7.75844
-7.79639
-7.83469
-7.87314
-7.91155
-7.94975
-7.98759
-8.02491
-8.06153
-8.09732
-8.13213
-8.16581
-8.1982
-8.22918
-8.2586
-8.28635
-8.31234
-8.33646
-8.35865
-8.37886
-8.39706
-8.4132
-8.42728
-8.43929
-8.44922
-8.45707
-8.46283
-8.4665
-8.46806
-8.46749
-8.46476
-8.45985
-8.4527
-8.44327
-8.43148
-8.41727
-8.40057
-8.3813
-8.35936
-8.33467
-8.30713
-8.27665
-8.24313
-8.20647
-8.16658
-8.12336
-8.07672
-8.02655
-7.97276
-7.91524
-7.85391
-7.78866
-7.71939
-7.646
-7.56841
-7.48652
-7.40024
-7.30948
-7.21413
-7.11414
-7.00941
-6.89989
-6.7855
-6.6662
-6.54193
-6.41266
-6.27834
-6.13896
-5.9945
-5.84497
-5.69035
-5.53066
-5.36592
-5.19615
-5.02137
-4.84162
-4.65693
-4.46733
-4.27287
-4.07358
-3.86953
-3.66074
-3.44729
-3.22922
-3.00663
-2.77956
-2.54813
-2.31241
-2.07256
-1.82866
-1.58088
-1.32938
-1.07434
-0.815953
-0.554433
-0.289992
-0.0228753
0.246666
0.518365
0.791952
1.06714
1.34365
1.62118
1.89943
2.17812
2.45693
2.73555
3.0137
3.29111
3.56749
3.84259
4.11614
4.38788
4.65756
4.92493
5.18979
5.4519
5.71107
5.96709
6.2198
6.46901
6.71457
6.95633
7.19415
7.4279
7.65746
7.88272
8.10358
8.31996
8.53176
8.7389
8.94133
9.13896
9.33174
9.51962
9.70254
9.88042
10.0532
10.2208
10.3831
10.5398
10.6913
10.8336
10.9798
11.0673
-7.45053
-7.45607
-7.46387
-7.4715
-7.47892
-7.48604
-7.49274
-7.49884
-7.50412
-7.50838
-7.51142
-7.51316
-7.51354
-7.51253
-7.51018
-7.50671
-7.50244
-7.49765
-7.49266
-7.48785
-7.48374
-7.48095
-7.48029
-7.4829
-7.48959
-7.50056
-7.51578
-7.53513
-7.55826
-7.58474
-7.61407
-7.64578
-7.67941
-7.71455
-7.75082
-7.78791
-7.82554
-7.86347
-7.90148
-7.93938
-7.97698
-8.0141
-8.05056
-8.08623
-8.12096
-8.15459
-8.18701
-8.21808
-8.24768
-8.2757
-8.30205
-8.32665
-8.34943
-8.37035
-8.38936
-8.40644
-8.42157
-8.43474
-8.44595
-8.4552
-8.46247
-8.46776
-8.47105
-8.47233
-8.47157
-8.46874
-8.46379
-8.45667
-8.44731
-8.43566
-8.42163
-8.40513
-8.38608
-8.36438
-8.33994
-8.31264
-8.28241
-8.24913
-8.21271
-8.17304
-8.13004
-8.0836
-8.03362
-7.98002
-7.92268
-7.86152
-7.79644
-7.72733
-7.6541
-7.57665
-7.49491
-7.40877
-7.31813
-7.2229
-7.12301
-7.01839
-6.90895
-6.79464
-6.67541
-6.5512
-6.42197
-6.2877
-6.14836
-6.00394
-5.85445
-5.69989
-5.54027
-5.3756
-5.20592
-5.03125
-4.85162
-4.66707
-4.47764
-4.28336
-4.08427
-3.88043
-3.67187
-3.45866
-3.24083
-3.01847
-2.79165
-2.56045
-2.32497
-2.08532
-1.84163
-1.59404
-1.34271
-1.08783
-0.829591
-0.568196
-0.303863
-0.0368428
0.232616
0.504243
0.777762
1.05289
1.32933
1.6068
1.88499
2.16362
2.44235
2.7209
2.99898
3.27631
3.55262
3.82763
4.10109
4.37273
4.6423
4.90956
5.17429
5.43627
5.69531
5.9512
6.20377
6.45284
6.69826
6.93989
7.17757
7.41118
7.64061
7.86575
8.08649
8.30275
8.51444
8.72148
8.9238
9.12133
9.31399
9.50174
9.68448
9.86213
10.0346
10.2017
10.3634
10.5192
10.6694
10.8096
10.954
11.0355
-7.43339
-7.43905
-7.44663
-7.45478
-7.4628
-7.47044
-7.47763
-7.48426
-7.49008
-7.49485
-7.49841
-7.50064
-7.50148
-7.501
-7.49938
-7.49681
-7.49354
-7.48987
-7.48621
-7.48304
-7.48098
-7.48085
-7.48347
-7.48934
-7.49881
-7.51207
-7.52918
-7.55002
-7.57427
-7.60152
-7.63137
-7.6634
-7.6972
-7.73241
-7.76871
-7.80579
-7.84337
-7.88123
-7.91913
-7.95687
-7.99422
-8.03102
-8.06709
-8.10229
-8.13646
-8.16946
-8.20117
-8.23147
-8.26025
-8.28742
-8.31291
-8.33665
-8.35859
-8.3787
-8.39696
-8.41333
-8.42781
-8.4404
-8.4511
-8.45991
-8.46684
-8.47187
-8.47499
-8.47618
-8.4754
-8.47262
-8.46777
-8.4608
-8.45164
-8.44021
-8.42643
-8.4102
-8.39141
-8.36998
-8.34579
-8.31875
-8.28874
-8.25567
-8.21945
-8.17996
-8.13712
-8.09082
-8.04097
-7.98748
-7.93024
-7.86917
-7.80416
-7.73512
-7.66194
-7.58455
-7.50285
-7.41674
-7.32612
-7.23091
-7.13102
-7.02638
-6.91692
-6.80258
-6.68329
-6.55903
-6.42973
-6.29539
-6.15598
-6.01149
-5.86193
-5.70732
-5.54765
-5.38295
-5.21326
-5.03859
-4.859
-4.6745
-4.48515
-4.29096
-4.092
-3.88828
-3.67988
-3.46681
-3.24915
-3.02695
-2.8003
-2.56925
-2.33393
-2.09442
-1.85085
-1.60337
-1.35215
-1.09736
-0.839199
-0.577861
-0.313578
-0.0465893
0.222841
0.494451
0.767957
1.04307
1.3195
1.59696
1.87514
2.15373
2.43242
2.71092
2.98894
3.26621
3.54245
3.81739
4.09075
4.36229
4.63173
4.89886
5.16345
5.42528
5.68416
5.93989
6.19229
6.44119
6.68644
6.92788
7.16538
7.39882
7.62807
7.85304
8.07362
8.28971
8.50124
8.70812
8.91028
9.10764
9.30013
9.48768
9.67018
9.84753
10.0196
10.1862
10.3472
10.502
10.6509
10.7891
10.9317
11.0083
-7.40556
-7.41095
-7.4195
-7.42917
-7.43829
-7.44666
-7.45448
-7.46173
-7.46817
-7.4736
-7.47779
-7.48062
-7.4821
-7.48231
-7.4814
-7.4796
-7.47722
-7.47461
-7.47223
-7.47068
-7.47071
-7.47289
-7.47771
-7.48558
-7.49693
-7.51192
-7.53056
-7.55266
-7.5779
-7.60594
-7.63639
-7.66889
-7.70308
-7.73864
-7.77524
-7.8126
-7.85046
-7.88857
-7.92669
-7.96459
-8.00206
-8.03893
-8.07502
-8.11016
-8.14421
-8.17703
-8.2085
-8.2385
-8.26694
-8.29373
-8.3188
-8.34211
-8.36361
-8.38327
-8.40111
-8.4171
-8.43124
-8.44356
-8.45404
-8.4627
-8.46953
-8.47454
-8.47771
-8.47901
-8.47839
-8.47581
-8.47121
-8.46451
-8.45565
-8.44453
-8.43106
-8.41513
-8.39664
-8.37547
-8.35154
-8.32472
-8.29491
-8.26202
-8.22594
-8.18657
-8.14381
-8.09759
-8.04779
-7.99433
-7.93711
-7.87604
-7.81103
-7.74197
-7.66877
-7.59133
-7.50958
-7.42341
-7.33272
-7.23743
-7.13745
-7.0327
-6.92311
-6.80863
-6.6892
-6.56477
-6.43532
-6.30081
-6.16123
-6.01658
-5.86687
-5.7121
-5.55231
-5.3875
-5.21772
-5.04299
-4.86336
-4.67885
-4.48951
-4.29536
-4.09645
-3.89282
-3.68451
-3.47155
-3.25401
-3.03193
-2.8054
-2.57447
-2.33926
-2.09985
-1.85637
-1.60897
-1.35782
-1.10308
-0.844954
-0.583636
-0.319363
-0.052375
0.217063
0.488683
0.762203
1.03733
1.31377
1.59123
1.86941
2.14797
2.42663
2.70509
2.98306
3.26027
3.53644
3.81129
4.08455
4.35596
4.62527
4.89226
5.15668
5.41834
5.67704
5.93258
6.18478
6.43348
6.67852
6.91975
7.15704
7.39027
7.61932
7.84408
8.06445
8.28034
8.49168
8.69836
8.90032
9.09748
9.28975
9.47705
9.65926
9.83627
10.0079
10.174
10.3342
10.4879
10.6355
10.7719
10.9126
10.9852
-7.36729
-7.37312
-7.38368
-7.39551
-7.40596
-7.41509
-7.42354
-7.43148
-7.43869
-7.44486
-7.44978
-7.45333
-7.45551
-7.45639
-7.45615
-7.45503
-7.45338
-7.45163
-7.45039
-7.4502
-7.45159
-7.45514
-7.46142
-7.47088
-7.48382
-7.50034
-7.52033
-7.54359
-7.56982
-7.59871
-7.62989
-7.66305
-7.69785
-7.73399
-7.77115
-7.80908
-7.84749
-7.88613
-7.92475
-7.96314
-8.00108
-8.03838
-8.07485
-8.1103
-8.1446
-8.1776
-8.20918
-8.23924
-8.26768
-8.29444
-8.31945
-8.34268
-8.36409
-8.38367
-8.40141
-8.41734
-8.43146
-8.4438
-8.45434
-8.4631
-8.47009
-8.47528
-8.47867
-8.48023
-8.4799
-8.47764
-8.47338
-8.46705
-8.45854
-8.44778
-8.43465
-8.41905
-8.40086
-8.37997
-8.35627
-8.32964
-8.3
-8.26723
-8.23123
-8.19192
-8.14919
-8.10296
-8.05314
-7.99964
-7.94236
-7.88122
-7.81611
-7.74695
-7.67364
-7.5961
-7.51421
-7.4279
-7.33706
-7.2416
-7.14144
-7.03649
-6.9267
-6.812
-6.69235
-6.56768
-6.43799
-6.30323
-6.16342
-6.01853
-5.8686
-5.71363
-5.55365
-5.38868
-5.21876
-5.04392
-4.86421
-4.67966
-4.49029
-4.29616
-4.09728
-3.89371
-3.68547
-3.47262
-3.25517
-3.03321
-2.80677
-2.57595
-2.34083
-2.10151
-1.8581
-1.61078
-1.35968
-1.10499
-0.846878
-0.585576
-0.321301
-0.0543115
0.215138
0.486769
0.760297
1.03544
1.31189
1.58936
1.86751
2.14603
2.42464
2.70305
2.98096
3.25809
3.53417
3.80891
4.08204
4.3533
4.62245
4.88926
5.1535
5.41496
5.67344
5.92876
6.18073
6.4292
6.674
6.91499
7.15204
7.38503
7.61383
7.83836
8.05849
8.27416
8.48526
8.69172
8.89345
9.09037
9.28238
9.4694
9.65129
9.82791
9.99907
10.1645
10.3239
10.4766
10.6229
10.7576
10.8965
10.966
-7.32134
-7.32856
-7.34181
-7.35615
-7.36796
-7.3778
-7.38691
-7.39567
-7.40373
-7.41072
-7.41643
-7.42069
-7.42348
-7.42486
-7.42501
-7.42425
-7.42301
-7.42177
-7.42106
-7.42144
-7.42361
-7.42819
-7.43571
-7.44655
-7.46087
-7.47868
-7.49984
-7.52414
-7.55129
-7.58102
-7.61299
-7.64692
-7.68248
-7.7194
-7.75735
-7.79608
-7.83527
-7.87467
-7.91405
-7.95318
-7.99182
-8.02978
-8.06686
-8.1029
-8.13775
-8.17124
-8.20326
-8.23369
-8.26247
-8.28951
-8.3148
-8.33827
-8.35992
-8.37972
-8.39769
-8.41382
-8.42815
-8.4407
-8.45147
-8.46049
-8.46776
-8.47327
-8.47701
-8.47893
-8.479
-8.47716
-8.47333
-8.46742
-8.45933
-8.44897
-8.43622
-8.42095
-8.40306
-8.38243
-8.35893
-8.33247
-8.30293
-8.27023
-8.23426
-8.19493
-8.15216
-8.10585
-8.05593
-8.00231
-7.9449
-7.88361
-7.81835
-7.74903
-7.67555
-7.59781
-7.51574
-7.42922
-7.33816
-7.24247
-7.14206
-7.03686
-6.9268
-6.81182
-6.69187
-6.56691
-6.43692
-6.30186
-6.16175
-6.01659
-5.86638
-5.71117
-5.55096
-5.3858
-5.21572
-5.04075
-4.86095
-4.67634
-4.48696
-4.29283
-4.094
-3.89049
-3.68235
-3.4696
-3.25226
-3.03042
-2.80412
-2.57342
-2.33841
-2.0992
-1.85589
-1.60866
-1.35763
-1.103
-0.844941
-0.583675
-0.319429
-0.0524631
0.216963
0.488574
0.762084
1.03721
1.31365
1.59107
1.86915
2.1476
2.42614
2.70445
2.98227
3.25929
3.53524
3.80983
4.08279
4.35387
4.62282
4.88942
5.15343
5.41466
5.6729
5.92797
6.17969
6.42789
6.67243
6.91315
7.14994
7.38266
7.6112
7.83547
8.05535
8.27077
8.48162
8.68783
8.88931
9.08597
9.27771
9.46442
9.64596
9.82216
9.99281
10.1576
10.3162
10.4679
10.6128
10.7459
10.8831
10.9503
-7.27283
-7.28178
-7.29817
-7.31529
-7.32849
-7.33903
-7.34882
-7.3584
-7.36731
-7.37508
-7.38144
-7.38616
-7.38916
-7.39054
-7.39058
-7.38961
-7.38809
-7.38654
-7.3857
-7.38626
-7.38891
-7.39425
-7.40272
-7.41457
-7.42989
-7.44865
-7.4707
-7.49585
-7.52382
-7.55433
-7.58708
-7.6218
-7.65817
-7.69592
-7.73472
-7.77431
-7.8144
-7.85474
-7.89505
-7.93511
-7.97466
-8.01351
-8.05147
-8.08836
-8.12402
-8.15828
-8.19104
-8.22216
-8.25159
-8.27922
-8.30502
-8.32894
-8.35099
-8.37115
-8.38944
-8.40588
-8.42052
-8.43337
-8.44447
-8.45385
-8.46151
-8.46744
-8.47162
-8.47403
-8.47459
-8.47324
-8.46991
-8.46449
-8.45687
-8.44694
-8.43458
-8.41966
-8.40205
-8.38164
-8.3583
-8.33194
-8.30246
-8.26975
-8.23373
-8.19432
-8.15143
-8.10497
-8.05489
-8.00108
-7.94347
-7.88198
-7.81651
-7.74697
-7.67326
-7.59529
-7.51297
-7.4262
-7.33488
-7.23892
-7.13822
-7.03272
-6.92234
-6.80704
-6.68676
-6.56147
-6.43114
-6.29576
-6.15532
-6.00986
-5.85937
-5.7039
-5.54347
-5.37812
-5.20788
-5.0328
-4.85293
-4.66829
-4.47892
-4.28484
-4.08609
-3.88268
-3.67469
-3.46207
-3.24491
-3.02322
-2.7971
-2.56656
-2.33172
-2.09265
-1.84951
-1.6024
-1.35151
-1.09698
-0.839024
-0.57784
-0.313681
-0.0467962
0.222548
0.494082
0.767529
1.04259
1.31893
1.59623
1.87419
2.15252
2.43091
2.70909
2.98674
3.2636
3.53936
3.81375
4.08649
4.35734
4.62605
4.89239
5.15614
5.41709
5.67505
5.92983
6.18126
6.42917
6.67341
6.91384
7.15033
7.38277
7.61103
7.83501
8.05462
8.26977
8.48036
8.68631
8.88753
9.08391
9.27536
9.46175
9.64293
9.8187
9.98883
10.153
10.3108
10.4614
10.6051
10.7366
10.872
10.9376
-7.22848
-7.23921
-7.25891
-7.27889
-7.29346
-7.30468
-7.31513
-7.32547
-7.33508
-7.34327
-7.34971
-7.35415
-7.35656
-7.35704
-7.35592
-7.35365
-7.35091
-7.34841
-7.34696
-7.34729
-7.35005
-7.35574
-7.36468
-7.37704
-7.39289
-7.41217
-7.43475
-7.46041
-7.4889
-7.51999
-7.55338
-7.5888
-7.62591
-7.66445
-7.7041
-7.74461
-7.78568
-7.82706
-7.86846
-7.90962
-7.9503
-7.99027
-8.02933
-8.06728
-8.10396
-8.1392
-8.17286
-8.20481
-8.23496
-8.26324
-8.28959
-8.31399
-8.33644
-8.35695
-8.37558
-8.39235
-8.40732
-8.42053
-8.43203
-8.44184
-8.44996
-8.4564
-8.46112
-8.46408
-8.46521
-8.46444
-8.46166
-8.45679
-8.44967
-8.44021
-8.42826
-8.41368
-8.39634
-8.37612
-8.3529
-8.32658
-8.29708
-8.2643
-8.22817
-8.1886
-8.14551
-8.09885
-8.04853
-7.99448
-7.93663
-7.87489
-7.80918
-7.73938
-7.66542
-7.58719
-7.50461
-7.41757
-7.32597
-7.22971
-7.12871
-7.0229
-6.9122
-6.79657
-6.67596
-6.55034
-6.41968
-6.28397
-6.14323
-5.99747
-5.84672
-5.69102
-5.5304
-5.36489
-5.19453
-5.01939
-4.8395
-4.6549
-4.4656
-4.27163
-4.07301
-3.86979
-3.66198
-3.44959
-3.23265
-3.0112
-2.78531
-2.55502
-2.32041
-2.08157
-1.83866
-1.59178