/*--------------------------------*- C++ -*----------------------------------*\
  =========                 |
  \\      /  F ield         | OpenFOAM: The Open Source CFD Toolbox
   \\    /   O peration     | Website:  https://openfoam.org
    \\  /    A nd           | Version:  8
     \\/     M anipulation  |
\*---------------------------------------------------------------------------*/
FoamFile
{
    version     2.0;
    format      ascii;
    class       volScalarField;
    location    "1600";
    object      k;
}
// * * * * * * * * * * * * * * * * * * * * * * * * * * * * * * * * * * * * * //

dimensions      [0 2 -2 0 0 0 0];

internalField   nonuniform List<scalar> 
12225
(
1.2474
1.63135
1.73494
1.74532
2.23433
3.64444
2.70213
2.85773
2.21364
1.61926
2.91135
2.22982
2.05266
1.32194
2.2747
2.02906
1.47752
1.42553
0.550188
0.633188
0.68818
0.701633
0.730066
0.790995
0.81811
0.829588
0.795781
0.813369
0.843065
0.830808
0.848542
0.839604
0.894572
0.914139
0.928261
0.918656
0.538895
0.545793
0.551242
0.537272
0.509641
0.479158
0.461565
0.440161
0.428754
0.41613
0.417302
0.417202
0.425954
0.436089
0.4507
0.464212
0.474591
0.471375
0.545022
0.542241
0.541354
0.52962
0.510622
0.48686
0.469862
0.454062
0.445336
0.43322
0.427351
0.428551
0.417726
0.419102
0.419229
0.434183
0.427643
0.436608
0.547072
0.544078
0.541334
0.534777
0.5222
0.509974
0.496967
0.488358
0.478953
0.474164
0.46484
0.463038
0.460622
0.467429
0.45855
0.465222
0.466862
0.466036
0.547881
0.544804
0.541827
0.537409
0.529698
0.522371
0.514553
0.508947
0.503991
0.49994
0.497413
0.493483
0.493097
0.4923
0.490761
0.489262
0.487609
0.485264
0.548109
0.545132
0.541997
0.538444
0.533472
0.528481
0.523488
0.519343
0.51582
0.512884
0.510393
0.508245
0.506455
0.504659
0.50287
0.500855
0.49882
0.496443
0.548171
0.545122
0.542016
0.538772
0.534933
0.531015
0.527209
0.523817
0.52085
0.518251
0.515936
0.513851
0.511928
0.510009
0.508134
0.506131
0.504147
0.501975
0.54822
0.545054
0.541969
0.538892
0.535619
0.532312
0.529122
0.526166
0.523481
0.521058
0.518823
0.516756
0.514803
0.512879
0.511013
0.509093
0.507219
0.505238
0.548256
0.544996
0.541902
0.538915
0.535938
0.532999
0.530166
0.527489
0.52499
0.522671
0.520501
0.518456
0.516519
0.514628
0.512812
0.510989
0.509233
0.507436
0.548275
0.544968
0.541848
0.538882
0.536023
0.533263
0.530616
0.528096
0.525713
0.523466
0.521344
0.519327
0.517412
0.515565
0.513795
0.512058
0.510391
0.508732
0.548281
0.544957
0.541816
0.538842
0.536012
0.533313
0.530738
0.528288
0.52596
0.523749
0.521651
0.519654
0.517753
0.515932
0.514192
0.512511
0.510903
0.509338
0.548281
0.544952
0.541799
0.538813
0.535982
0.533291
0.530734
0.528301
0.525989
0.523788
0.521697
0.519703
0.517806
0.515993
0.514264
0.512609
0.511027
0.509508
0.548279
0.544947
0.541789
0.538796
0.535957
0.533262
0.530701
0.528269
0.525954
0.523753
0.521657
0.519661
0.517759
0.515946
0.514216
0.512565
0.510989
0.509483
0.548278
0.544944
0.541782
0.538784
0.53594
0.533239
0.530674
0.528236
0.525917
0.52371
0.521609
0.519608
0.5177
0.515882
0.514148
0.512495
0.510916
0.509411
0.548278
0.544942
0.541777
0.538777
0.535929
0.533224
0.530655
0.528212
0.525889
0.523677
0.521572
0.519566
0.517654
0.515832
0.514095
0.512437
0.510855
0.509346
0.548277
0.54494
0.541774
0.538772
0.535921
0.533214
0.530642
0.528197
0.52587
0.523656
0.521548
0.519539
0.517625
0.515799
0.514059
0.512399
0.510814
0.509302
0.548278
0.544939
0.541775
0.538768
0.53592
0.533209
0.530639
0.528189
0.525864
0.523647
0.521539
0.519527
0.517613
0.515786
0.514045
0.512383
0.510797
0.509283
0.548277
0.544942
0.541775
0.538772
0.535919
0.533214
0.530639
0.528195
0.525866
0.523653
0.521542
0.519534
0.517617
0.515792
0.514049
0.512388
0.510802
0.509288
0.548278
0.544943
0.541779
0.538776
0.535928
0.533221
0.530651
0.528205
0.525881
0.523666
0.521558
0.519549
0.517634
0.515808
0.514067
0.512404
0.510818
0.509303
0.548279
0.544946
0.541784
0.538786
0.535939
0.533237
0.530668
0.528226
0.5259
0.523685
0.521574
0.519562
0.517643
0.515812
0.514064
0.512395
0.510799
0.509276
0.54828
0.54495
0.541792
0.538798
0.535957
0.533259
0.53069
0.528243
0.525904
0.523672
0.521537
0.5195
0.51755
0.51569
0.513908
0.512207
0.510572
0.509013
0.548284
0.544957
0.541805
0.538821
0.535981
0.533276
0.530681
0.528192
0.525791
0.523478
0.52125
0.519112
0.517063
0.515101
0.513219
0.511417
0.509679
0.508023
0.5483
0.544966
0.541828
0.538851
0.535985
0.533214
0.530507
0.527872
0.525275
0.522736
0.520255
0.51787
0.515572
0.51338
0.511275
0.509267
0.507317
0.505476
0.548372
0.544978
0.54186
0.538878
0.535864
0.532878
0.529876
0.526899
0.523867
0.520848
0.517851
0.514968
0.5122
0.509591
0.507093
0.504734
0.502431
0.500266
0.548674
0.544978
0.541936
0.538897
0.535517
0.532057
0.528455
0.524839
0.520988
0.51708
0.513102
0.509313
0.5057
0.502362
0.499201
0.496261
0.493388
0.49072
0.549783
0.545131
0.542444
0.539412
0.535362
0.531031
0.526369
0.521675
0.516305
0.51078
0.504972
0.499592
0.494511
0.489971
0.485852
0.482084
0.478609
0.475384
0.554065
0.547293
0.546476
0.54493
0.540529
0.534993
0.528803
0.522511
0.515236
0.508
0.500107
0.493737
0.487466
0.482433
0.478704
0.47565
0.473665
0.471842
0.579085
0.575615
0.595243
0.608724
0.619072
0.624916
0.628866
0.63242
0.637385
0.643803
0.647896
0.664915
0.664467
0.668733
0.677972
0.686847
0.698406
0.707659
1.01579
1.2645
1.44056
1.53949
1.59001
1.59464
1.586
1.56547
1.53608
1.50472
1.47354
1.4439
1.41598
1.39032
1.36709
1.3462
1.32751
1.31093
2.10559e-08
5.16664e-07
2.61727e-06
1.02158e-05
3.37768e-05
0.000101783
0.000261846
0.00051436
0.000826802
0.00115516
0.00144828
0.00167624
0.00182759
0.00188568
0.00186237
0.00178849
0.00164756
0.00141153
0.00120607
0.00102823
0.000858314
0.000692661
0.000531692
0.000382159
0.000248644
0.000145089
7.66108e-05
3.8371e-05
1.94733e-05
1.0647e-05
6.50233e-06
5.09329e-06
5.94215e-06
1.42342e-05
2.80831e-05
0.000186387
0.000377505
0.000826019
0.0012107
0.00127897
0.0011747
0.000937163
0.000789837
0.000792033
0.000871936
0.00118973
0.00160401
0.00337367
0.00768485
0.0238045
0.057887
0.0949223
0.118941
0.121092
0.0992749
0.118119
0.150379
0.162649
0.141615
0.158665
0.173586
0.151786
0.17299
0.17788
0.189001
0.196861
0.20608
0.214172
0.222669
0.230641
0.23873
0.246531
0.254343
0.261975
0.269578
0.27705
0.284476
0.291794
0.299058
0.306221
0.313327
0.320331
0.327273
0.33411
0.340879
0.347536
0.354118
0.36058
0.366948
0.373187
0.379305
0.385289
0.391134
0.396822
0.402345
0.407689
0.412852
0.417832
0.42265
0.427353
0.431968
0.4364
0.440695
0.444839
0.448829
0.452667
0.456342
0.459857
0.463203
0.466383
0.469388
0.472222
0.474874
0.477352
0.479644
0.481758
0.483683
0.48543
0.486983
0.488357
0.489535
0.490534
0.491335
0.491956
0.492378
0.492618
0.492654
0.492563
0.492367
0.491768
0.491188
0.490293
0.489377
0.488329
0.487123
0.485714
0.484005
0.482165
0.480136
0.477971
0.475664
0.47323
0.470682
0.468037
0.465233
0.462403
0.459367
0.456348
0.45309
0.449889
0.446437
0.44309
0.439484
0.435966
0.432368
0.428671
0.425034
0.421319
0.417638
0.413956
0.410302
0.406673
0.403078
0.39952
0.396004
0.392538
0.389129
0.385786
0.382514
0.379319
0.376196
0.373146
0.370143
0.367161
0.364142
0.361021
0.357664
0.353728
0.348604
0.331902
8.94232e-08
2.50963e-06
1.69358e-05
7.30017e-05
0.000268445
0.000794139
0.00182669
0.00329137
0.00498503
0.00672165
0.00830353
0.00960373
0.010555
0.0111677
0.0114412
0.0114019
0.0112101
0.0108518
0.0102355
0.0093918
0.00832101
0.00708189
0.00572185
0.004352
0.00301686
0.0019948
0.00126421
0.00078155
0.000474088
0.000291466
0.000187161
0.000143874
0.00010911
0.000219154
0.000267253
0.00190491
0.00390019
0.00772454
0.0108858
0.0124763
0.0123921
0.0119731
0.0121277
0.0138258
0.017997
0.0240845
0.0355839
0.0552044
0.0811082
0.106298
0.130968
0.151262
0.16915
0.185007
0.195627
0.21048
0.228241
0.248267
0.26475
0.284494
0.306869
0.32496
0.347043
0.366411
0.386747
0.406112
0.425542
0.444491
0.463332
0.481894
0.500328
0.518584
0.536732
0.554758
0.572696
0.590541
0.60831
0.625997
0.643611
0.661143
0.678598
0.695963
0.713243
0.73042
0.7475
0.764462
0.781312
0.798025
0.814598
0.831004
0.847236
0.863283
0.879125
0.89474
0.910099
0.925175
0.939932
0.954334
0.968338
0.981904
0.995082
1.00805
1.02071
1.0331
1.04519
1.05699
1.06846
1.07961
1.09042
1.10089
1.11099
1.12073
1.13009
1.13907
1.14765
1.15582
1.16359
1.17094
1.17786
1.18435
1.19041
1.19601
1.20117
1.20587
1.21011
1.21389
1.2172
1.22004
1.22243
1.22431
1.22577
1.22658
1.22709
1.22731
1.22722
1.22668
1.22596
1.22481
1.2232
1.22117
1.21873
1.21589
1.21269
1.20912
1.2052
1.20091
1.19629
1.19131
1.186
1.18035
1.17441
1.16817
1.16166
1.15491
1.1479
1.14072
1.13333
1.12581
1.11816
1.11043
1.10262
1.09475
1.08684
1.0789
1.07094
1.06296
1.05501
1.04708
1.03919
1.03137
1.0236
1.01589
1.0082
1.00049
0.99268
0.984676
0.976231
0.967028
0.955162
0.927244
2.2789e-07
6.81467e-06
5.19128e-05
0.000244542
0.00078098
0.00211992
0.00427382
0.00676536
0.00925437
0.0115068
0.013383
0.0148264
0.0158361
0.0164391
0.0166927
0.016652
0.0164562
0.016075
0.0155133
0.0148146
0.0139717
0.0129788
0.0118155
0.0104861
0.00900664
0.00732449
0.0055921
0.00404542
0.00271239
0.00180846
0.00123532
0.000971316
0.000646789
0.00124894
0.00208547
0.00758872
0.0159525
0.0244648
0.0306155
0.0340792
0.0355239
0.0387015
0.0477253
0.0644808
0.0825521
0.101522
0.122871
0.144254
0.164583
0.186166
0.207772
0.230539
0.25476
0.28028
0.307677
0.337586
0.368364
0.398215
0.427779
0.457497
0.487058
0.515305
0.543441
0.570568
0.597269
0.62334
0.648974
0.674184
0.699067
0.723656
0.748012
0.772163
0.796145
0.819977
0.843677
0.867253
0.890715
0.914063
0.937297
0.960414
0.983411
1.00628
1.02901
1.0516
1.07403
1.0963
1.11839
1.1403
1.162
1.18348
1.20473
1.22574
1.24649
1.26697
1.28716
1.30705
1.32663
1.34588
1.36481
1.3834
1.40167
1.41958
1.43712
1.45427
1.47101
1.48733
1.50321
1.51864
1.5336
1.54808
1.56207
1.57554
1.5885
1.60092
1.6128
1.62413
1.6349
1.64509
1.6547
1.66373
1.67215
1.67998
1.68719
1.69379
1.69976
1.70511
1.70983
1.71391
1.71736
1.72016
1.72235
1.72387
1.72475
1.72512
1.72505
1.72426
1.72291
1.72096
1.7184
1.71526
1.71155
1.70729
1.70251
1.6972
1.6914
1.68509
1.67833
1.67106
1.66337
1.6552
1.64665
1.63766
1.62834
1.61866
1.60865
1.59838
1.58783
1.57709
1.56617
1.5551
1.54391
1.53264
1.52129
1.50988
1.49842
1.48695
1.47547
1.46401
1.4526
1.44126
1.43
1.41881
1.40768
1.39658
1.38545
1.37422
1.3627
1.35066
1.33621
1.3104
8.47011e-07
2.54419e-05
0.00020109
0.000797494
0.00242629
0.00559598
0.00938027
0.0130491
0.0162275
0.0187369
0.0205433
0.0216875
0.0222873
0.0223908
0.022249
0.0218745
0.0212836
0.020574
0.0197775
0.0189104
0.017974
0.0169644
0.0158635
0.0146493
0.0133042
0.0118051
0.0101751
0.00848151
0.0068907
0.00534691
0.00420394
0.0031543
0.00336331
0.00539239
0.0132672
0.0290342
0.0436022
0.0550592
0.0638993
0.0725271
0.0835459
0.0977034
0.113821
0.129752
0.14637
0.164564
0.18564
0.207873
0.23252
0.259443
0.288427
0.319583
0.352358
0.38618
0.420732
0.45589
0.491094
0.525909
0.56031
0.594242
0.627611
0.660193
0.692236
0.723621
0.754485
0.784863
0.81484
0.844468
0.873807
0.902903
0.931798
0.96052
0.989097
1.01754
1.04587
1.07409
1.10219
1.13019
1.15806
1.18581
1.21343
1.2409
1.26821
1.29536
1.32233
1.3491
1.37567
1.40202
1.42813
1.45399
1.47958
1.50489
1.52992
1.55464
1.57904
1.60312
1.62685
1.65022
1.67322
1.69582
1.71802
1.73977
1.76106
1.78188
1.80218
1.82197
1.84121
1.85989
1.878
1.89551
1.9124
1.92867
1.9443
1.95928
1.97358
1.98721
2.00014
2.01237
2.0239
2.0347
2.04477
2.05411
2.0627
2.07054
2.07763
2.08395
2.0895
2.09429
2.09831
2.10155
2.10403
2.1057
2.10656
2.10683
2.10641
2.10516
2.10318
2.10046
2.09702
2.09287
2.08804
2.08254
2.07639
2.06961
2.06222
2.05422
2.04567
2.03652
2.02685
2.01663
2.00593
1.99474
1.98312
1.97108
1.95864
1.94587
1.93278
1.91943
1.90586
1.89209
1.87817
1.86413
1.84999
1.83576
1.82147
1.80715
1.7928
1.77848
1.7642
1.74999
1.73587
1.72186
1.70794
1.69411
1.68034
1.66661
1.65278
1.63871
1.62277
1.59906
2.86451e-06
8.59145e-05
0.000639089
0.00246614
0.00669205
0.0123633
0.0176061
0.0217836
0.0247368
0.0265702
0.0275104
0.0277593
0.0275991
0.0271354
0.0264026
0.0255436
0.0246116
0.0236443
0.0226637
0.0216782
0.0206834
0.0196696
0.0186179
0.0175048
0.0163035
0.0149839
0.0135449
0.0120377
0.0105761
0.0090207
0.00768446
0.00822742
0.0129052
0.0266921
0.0481609
0.068238
0.0846885
0.0975362
0.108572
0.11964
0.13157
0.144596
0.15872
0.17514
0.194849
0.217479
0.243113
0.271354
0.302041
0.334694
0.368992
0.404583
0.44101
0.477929
0.515146
0.552534
0.589877
0.627014
0.663864
0.70035
0.736429
0.772035
0.80721
0.841957
0.876326
0.910356
0.944097
0.977591
1.01088
1.044
1.07698
1.10984
1.14261
1.17528
1.20787
1.24037
1.27278
1.30509
1.33729
1.36937
1.40131
1.43311
1.46473
1.49618
1.52742
1.55846
1.58926
1.61981
1.6501
1.68011
1.70981
1.73921
1.76828
1.79701
1.82537
1.85336
1.88096
1.90813
1.93486
1.96112
1.98689
2.01213
2.03684
2.06098
2.08452
2.10745
2.12973
2.15136
2.1723
2.19254
2.21206
2.23084
2.24887
2.26613
2.2826
2.29827
2.31313
2.32716
2.34036
2.35272
2.36423
2.37487
2.38465
2.39355
2.40157
2.4087
2.41494
2.42029
2.42474
2.42829
2.43097
2.43267
2.43345
2.43355
2.43276
2.43105
2.42847
2.42504
2.42078
2.41571
2.40984
2.4032
2.3958
2.38767
2.37884
2.36932
2.35913
2.34828
2.33681
2.32473
2.31209
2.29889
2.2852
2.27102
2.25639
2.24136
2.22596
2.21025
2.19427
2.17805
2.16165
2.14509
2.12841
2.11162
2.09475
2.07782
2.06086
2.04391
2.02701
2.01018
1.99345
1.97685
1.96038
1.94406
1.9279
1.91189
1.89598
1.88007
1.86279
1.83988
9.2035e-06
0.000269089
0.00191149
0.00673654
0.0149844
0.0221585
0.0272278
0.030333
0.0319422
0.0325274
0.0324355
0.0319653
0.0310996
0.0300502
0.0289036
0.0277246
0.0265569
0.0254269
0.0243463
0.0233141
0.0223195
0.0213461
0.020368
0.0193547
0.0182747
0.0170652
0.0156721
0.0140663
0.012496
0.0126264
0.0152231
0.0248083
0.0445788
0.0696686
0.0929282
0.111505
0.124989
0.134985
0.143936
0.153604
0.164855
0.179319
0.197257
0.21859
0.243531
0.271539
0.302116
0.334667
0.368781
0.404118
0.440419
0.477457
0.515032
0.553003
0.591278
0.629779
0.668408
0.707072
0.745692
0.784193
0.822528
0.860657
0.898574
0.936277
0.973782
1.01111
1.04829
1.08535
1.12232
1.15921
1.19606
1.23286
1.26963
1.30637
1.34308
1.37974
1.41635
1.45289
1.48933
1.52566
1.56187
1.59792
1.6338
1.66949
1.70497
1.74022
1.77522
1.80994
1.84437
1.87849
1.91226
1.9457
1.97876
2.01144
2.04371
2.07555
2.10693
2.13782
2.1682
2.19803
2.22729
2.25595
2.28399
2.31138
2.33808
2.36407
2.38933
2.41382
2.43753
2.46043
2.48251
2.50373
2.52409
2.54355
2.56212
2.57977
2.59648
2.61225
2.62706
2.64091
2.65378
2.66567
2.67657
2.68647
2.69536
2.70325
2.71012
2.71598
2.72081
2.72464
2.72746
2.72917
2.72987
2.72975
2.72859
2.72642
2.72327
2.71916
2.71411
2.70813
2.70126
2.69352
2.68492
2.6755
2.66528
2.65428
2.64253
2.63004
2.61685
2.60297
2.58847
2.57335
2.55766
2.54142
2.52468
2.50748
2.48986
2.47188
2.45358
2.43502
2.41622
2.39724
2.37811
2.35884
2.33948
2.32004
2.30055
2.28107
2.26163
2.24227
2.22302
2.20392
2.18499
2.16626
2.14776
2.12953
2.11155
2.09377
2.07501
2.05189
2.97555e-05
0.000811537
0.00518434
0.0156727
0.025445
0.0316361
0.0350176
0.0365976
0.0370312
0.0367716
0.035991
0.0348132
0.0334338
0.0319617
0.0304805
0.0290492
0.027704
0.0264621
0.0253243
0.0242791
0.0233073
0.0223793
0.0214579
0.0204919
0.0195312
0.0186714
0.0181443
0.0184935
0.0209943
0.0277673
0.0421042
0.0649902
0.0900077
0.113046
0.13117
0.143671
0.152383
0.159919
0.16836
0.180054
0.195433
0.214625
0.237612
0.263984
0.293267
0.324699
0.357721
0.391935
0.42711
0.463093
0.499774
0.53707
0.574918
0.61327
0.652087
0.69132
0.730903
0.77076
0.810824
0.851031
0.891329
0.931674
0.972039
1.01241
1.05278
1.09316
1.13356
1.17399
1.21446
1.25498
1.29557
1.33622
1.37693
1.4177
1.4585
1.49931
1.54012
1.5809
1.62161
1.66223
1.70273
1.74309
1.78328
1.82327
1.86303
1.90255
1.9418
1.98074
2.01937
2.05764
2.09554
2.13306
2.17016
2.20683
2.24304
2.27875
2.31394
2.34858
2.38263
2.41607
2.44886
2.48097
2.51237
2.54303
2.57291
2.60199
2.63023
2.65761
2.6841
2.70967
2.7343
2.75797
2.78065
2.80233
2.82298
2.84259
2.86115
2.87863
2.89504
2.91035
2.92457
2.93768
2.94968
2.96054
2.97029
2.97889
2.98637
2.9927
2.9979
3.00196
3.0049
3.0066
3.0072
3.00682
3.0053
3.00265
2.99892
2.99412
2.98827
2.9814
2.97353
2.96469
2.9549
2.94419
2.93259
2.92013
2.90683
2.89271
2.87781
2.86216
2.84581
2.82878
2.81111
2.79283
2.774
2.75465
2.73483
2.71461
2.69402
2.67312
2.65196
2.63059
2.60903
2.58731
2.56547
2.54354
2.52156
2.49956
2.4776
2.45573
2.43398
2.41239
2.39101
2.36987
2.34903
2.32855
2.30844
2.28867
2.2682
2.24418
8.99842e-05
0.00224001
0.0122746
0.0261932
0.0346319
0.0390568
0.0411135
0.0416921
0.0413543
0.0403488
0.038859
0.0371158
0.0352614
0.0334074
0.0316364
0.0300021
0.0285311
0.0272278
0.0260817
0.0250731
0.0241782
0.0233674
0.0225677
0.0218359
0.0213177
0.0215506
0.023578
0.0293203
0.0414159
0.0604995
0.0833517
0.106165
0.126798
0.143157
0.154603
0.162597
0.169899
0.179081
0.191545
0.207901
0.228163
0.252031
0.279037
0.308522
0.339848
0.372452
0.406015
0.440375
0.475461
0.511242
0.547703
0.584841
0.622656
0.661144
0.700284
0.740038
0.780359
0.821193
0.862482
0.904167
0.946193
0.988517
1.0311
1.07392
1.11696
1.16021
1.20366
1.24732
1.29119
1.33527
1.37955
1.42402
1.46867
1.51348
1.55841
1.60343
1.64851
1.6936
1.73867
1.78367
1.82857
1.87333
1.91792
1.96231
2.00646
2.05034
2.09393
2.1372
2.1801
2.22263
2.26474
2.30641
2.34763
2.38836
2.42858
2.46824
2.50732
2.54577
2.58357
2.62067
2.65705
2.69266
2.72748
2.76146
2.79457
2.82678
2.85805
2.88834
2.91763
2.9459
2.9731
2.99922
3.02423
3.04811
3.07085
3.09241
3.11279
3.13197
3.14995
3.16671
3.18224
3.19654
3.2096
3.2214
3.23195
3.24124
3.24927
3.25604
3.26155
3.2658
3.26881
3.27046
3.27094
3.27026
3.26834
3.26519
3.26085
3.25533
3.24866
3.24087
3.23198
3.22202
3.21102
3.19901
3.18601
3.17207
3.15721
3.14145
3.12484
3.10741
3.0892
3.07025
3.05059
3.03028
3.00934
2.98784
2.96582
2.94335
2.92048
2.89726
2.87374
2.84997
2.82599
2.80182
2.77751
2.75309
2.7286
2.70409
2.67962
2.65523
2.63097
2.60689
2.58304
2.55947
2.53626
2.51347
2.49114
2.46925
2.44687
2.42142
0.000234684
0.00528766
0.0222018
0.0355498
0.0423568
0.0455375
0.0466435
0.0464422
0.0453776
0.043658
0.0415714
0.0393064
0.0370184
0.0348299
0.0328274
0.0310631
0.0295617
0.0283267
0.0273501
0.026608
0.0261309
0.0260209
0.026394
0.0277712
0.030522
0.0356211
0.0447758
0.05901
0.0769106
0.0966968
0.116422
0.13404
0.14834
0.15919
0.167753
0.176143
0.186442
0.199949
0.217177
0.238055
0.262199
0.289073
0.31809
0.348665
0.380335
0.412814
0.445987
0.479831
0.514364
0.54962
0.585637
0.622454
0.660098
0.698578
0.737888
0.778011
0.818918
0.860565
0.902906
0.94589
0.989466
1.03359
1.07822
1.12333
1.16889
1.21489
1.2613
1.30813
1.35535
1.40296
1.45093
1.49925
1.54788
1.59679
1.64593
1.69525
1.74471
1.79423
1.84377
1.89327
1.94269
1.99198
2.04109
2.08999
2.13864
2.187
2.23504
2.28272
2.33001
2.37687
2.42327
2.4692
2.51461
2.55948
2.60378
2.64745
2.69048
2.73281
2.77441
2.81523
2.85524
2.89439
2.93266
2.96999
3.00635
3.0417
3.076
3.10921
3.14131
3.17225
3.20201
3.23056
3.25788
3.28393
3.30871
3.33219
3.35435
3.37518
3.39467
3.41281
3.4296
3.44502
3.45907
3.47174
3.48303
3.49293
3.50144
3.50857
3.51432
3.5187
3.52171
3.52325
3.52353
3.52249
3.5201
3.51639
3.51138
3.50509
3.49756
3.4888
3.47884
3.46772
3.45547
3.44212
3.42771
3.41226
3.39582
3.37841
3.36007
3.34083
3.32076
3.29987
3.27822
3.25585
3.23281
3.20915
3.18493
3.16023
3.13508
3.10954
3.08366
3.0575
3.03109
3.00448
2.97769
2.95078
2.92379
2.89677
2.86978
2.84288
2.81611
2.78954
2.7632
2.73718
2.71155
2.6864
2.66177
2.63766
2.6132
2.58601
0.000522769
0.0106413
0.032124
0.0439305
0.04946
0.0517529
0.0521267
0.0512559
0.0494986
0.0471789
0.0445478
0.0418213
0.0391795
0.0367607
0.0346613
0.0329382
0.0316211
0.0306827
0.0302003
0.0300603
0.0304073
0.0316014
0.0342718
0.0392992
0.0474963
0.0590909
0.0734055
0.0893538
0.106127
0.122502
0.137338
0.149977
0.160552
0.169945
0.179679
0.191286
0.205835
0.223704
0.244782
0.268686
0.294925
0.322992
0.352415
0.382812
0.413939
0.445694
0.478075
0.511127
0.544916
0.579513
0.614987
0.651391
0.688764
0.727134
0.766513
0.8069
0.848278
0.890621
0.933894
0.978055
1.02306
1.06888
1.11546
1.16277
1.21078
1.25948
1.30883
1.35881
1.4094
1.46057
1.5123
1.56454
1.61724
1.67035
1.72382
1.77756
1.83151
1.88559
1.93974
1.99387
2.04792
2.10185
2.1556
2.20911
2.26236
2.3153
2.36787
2.42005
2.4718
2.52307
2.57384
2.62407
2.67373
2.72279
2.7712
2.81893
2.86593
2.91216
2.95757
3.00212
3.04576
3.08845
3.13014
3.1708
3.21038
3.24884
3.28613
3.32221
3.35705
3.39061
3.42286
3.45376
3.4833
3.51145
3.53817
3.56346
3.5873
3.60967
3.63057
3.64999
3.66792
3.68435
3.69928
3.71271
3.72462
3.73501
3.7439
3.75127
3.75715
3.76154
3.76443
3.76578
3.76574
3.76425
3.76132
3.75696
3.7512
3.74407
3.73559
3.7258
3.71471
3.70238
3.68883
3.6741
3.65822
3.64124
3.62318
3.60409
3.584
3.56295
3.54099
3.51816
3.4945
3.47007
3.44491
3.4191
3.39269
3.36575
3.33833
3.31049
3.28227
3.25373
3.22491
3.19586
3.16661
3.13721
3.10773
3.07822
3.04873
3.01931
2.99004
2.96097
2.93215
2.90366
2.87559
2.84803
2.82105
2.79465
2.76802
2.73913
0.000990923
0.0181865
0.0406748
0.0515035
0.0563493
0.0580683
0.0579067
0.0564607
0.0541592
0.0513411
0.0482956
0.0452713
0.0424754
0.0400664
0.0381624
0.0368349
0.0362129
0.0361472
0.0368386
0.038523
0.0415218
0.046176
0.052768
0.0614831
0.0722348
0.0847378
0.0983876
0.112363
0.12594
0.138574
0.150045
0.160531
0.170743
0.181745
0.194587
0.20998
0.228191
0.249099
0.272374
0.29761
0.324401
0.352384
0.381262
0.410833
0.441001
0.471764
0.503175
0.535317
0.568285
0.602169
0.637044
0.67298
0.710031
0.748241
0.787637
0.828234
0.870031
0.913017
0.957172
1.00247
1.04887
1.09635
1.14487
1.19439
1.24488
1.29632
1.34866
1.40187
1.45592
1.51077
1.56637
1.62266
1.67956
1.73701
1.79493
1.85322
1.91179
1.97056
2.02942
2.08829
2.14709
2.20576
2.26423
2.32244
2.38036
2.43793
2.49509
2.55181
2.60805
2.66375
2.71889
2.77344
2.82735
2.88058
2.93309
2.98483
3.03577
3.08584
3.13501
3.18321
3.2304
3.27653
3.32156
3.36544
3.40813
3.44957
3.48972
3.52854
3.56598
3.60201
3.6366
3.6697
3.7013
3.73136
3.75987
3.78679
3.81213
3.83586
3.85799
3.8785
3.89739
3.91465
3.93029
3.94428
3.95664
3.96736
3.97645
3.98391
3.98975
3.99398
3.99661
3.99763
3.99713
3.99507
3.99145
3.98633
3.97972
3.97164
3.96213
3.95122
3.93894
3.92532
3.91041
3.89425
3.87686
3.8583
3.8386
3.81781
3.79595
3.77308
3.74924
3.72446
3.69879
3.6723
3.64505
3.6171
3.58852
3.55938
3.52973
3.49961
3.46909
3.43821
3.40701
3.37555
3.34387
3.31204
3.2801
3.24813
3.21617
3.18429
3.15254
3.12099
3.0897
3.05875
3.02824
2.99827
2.96889
2.94016
2.9113
2.88054
0.00157485
0.0257848
0.0489287
0.0592639
0.0636157
0.0648736
0.0642765
0.0623838
0.0596778
0.0565544
0.0533506
0.0503479
0.0477823
0.045838
0.0447504
0.0444373
0.0449404
0.0464274
0.0490387
0.0529379
0.0582637
0.0650828
0.0733501
0.0829192
0.0935536
0.104886
0.116489
0.12797
0.139104
0.149853
0.160448
0.171427
0.183494
0.197285
0.21323
0.231468
0.251892
0.274244
0.298214
0.323498
0.34983
0.376992
0.404832
0.433269
0.462294
0.491956
0.522339
0.553548
0.585688
0.618854
0.653139
0.688622
0.725373
0.763448
0.802891
0.843731
0.885985
0.929662
0.974757
1.02126
1.06915
1.11839
1.16896
1.22082
1.27393
1.32826
1.38375
1.44037
1.49807
1.55678
1.61645
1.67698
1.73827
1.80023
1.86274
1.92572
1.98904
2.0526
2.11627
2.17995
2.24355
2.307
2.37023
2.43317
2.49576
2.55794
2.61967
2.68088
2.74154
2.80161
2.86105
2.91982
2.97788
3.03517
3.09165
3.14728
3.202
3.25576
3.30851
3.36019
3.41074
3.46011
3.50826
3.55514
3.6007
3.64489
3.68766
3.72896
3.76875
3.80699
3.84364
3.87867
3.91206
3.94376
3.97376
4.00205
4.02861
4.05343
4.0765
4.09784
4.11742
4.13524
4.15131
4.16563
4.17818
4.18898
4.19803
4.20534
4.21092
4.21479
4.21696
4.21745
4.21633
4.21351
4.20906
4.20302
4.19542
4.18628
4.17563
4.1635
4.14993
4.13495
4.11862
4.10096
4.08202
4.06185
4.04049
4.01797
3.99436
3.96967
3.94396
3.91725
3.8896
3.86108
3.83177
3.80174
3.77104
3.73976
3.70794
3.67562
3.64287
3.60971
3.57621
3.5424
3.50836
3.47415
3.43984
3.40548
3.37112
3.33684
3.30268
3.26871
3.23499
3.20163
3.16872
3.13635
3.1046
3.07354
3.04243
3.00975
0.00235299
0.0326953
0.0566097
0.0669733
0.0711631
0.0721886
0.0712902
0.0690724
0.0661294
0.0629509
0.0599303
0.0573664
0.0554823
0.0545736
0.0544281
0.0552741
0.057162
0.0601269
0.064205
0.0694101
0.0757257
0.0830794
0.0913394
0.100327
0.109848
0.119721
0.129809
0.140039
0.150464
0.161311
0.172945
0.185782
0.200172
0.216328
0.234299
0.253988
0.275209
0.29774
0.32137
0.345914
0.371226
0.397207
0.423801
0.451003
0.478854
0.507434
0.536843
0.567191
0.59859
0.631145
0.664957
0.70012
0.736714
0.774813
0.81447
0.855729
0.898627
0.943192
0.989436
1.03736
1.08696
1.13822
1.19111
1.2456
1.30164
1.35918
1.41817
1.47854
1.54022
1.60313
1.66717
1.73222
1.79814
1.86479
1.93205
1.99979
2.0679
2.13625
2.20471
2.27317
2.34152
2.4097
2.47761
2.54519
2.61235
2.67902
2.74514
2.81067
2.87558
2.93982
3.00335
3.06612
3.12809
3.18919
3.24937
3.3086
3.36681
3.42395
3.47996
3.53477
3.58833
3.64059
3.69149
3.74099
3.78903
3.83557
3.88055
3.92393
3.96566
4.0057
4.04401
4.08057
4.11534
4.14827
4.17936
4.2086
4.23598
4.26149
4.28513
4.3069
4.32679
4.34481
4.36096
4.37523
4.38764
4.39819
4.40689
4.41376
4.41879
4.42202
4.42347
4.42319
4.42121
4.41741
4.41194
4.40481
4.39606
4.3857
4.37377
4.36032
4.34536
4.32894
4.31112
4.29191
4.27138
4.24957
4.22653
4.2023
4.17693
4.15046
4.12293
4.09433
4.06475
4.03428
4.00299
3.97096
3.93825
3.90492
3.87103
3.83662
3.80174
3.76643
3.73071
3.69467
3.65839
3.62192
3.58535
3.54872
3.51209
3.47551
3.43904
3.40274
3.3667
3.33101
3.29577
3.26109
3.22702
3.19367
3.16035
3.12579
0.00323992
0.0388807
0.0643051
0.0749142
0.0790246
0.0798864
0.0787537
0.0762866
0.0731979
0.0701537
0.0676298
0.0658866
0.0650697
0.0649538
0.0658371
0.0677529
0.0706393
0.0744619
0.0791909
0.0847841
0.0911799
0.0982989
0.106054
0.114368
0.123184
0.132471
0.14225
0.15262
0.163747
0.175839
0.189111
0.203726
0.219764
0.237213
0.255989
0.275962
0.296985
0.318921
0.341654
0.365097
0.389197
0.413933
0.439317
0.465393
0.49223
0.519929
0.548597
0.578346
0.609281
0.641516
0.67516
0.710315
0.747075
0.785525
0.82574
0.867786
0.911722
0.957595
1.00544
1.05527
1.10709
1.16089
1.21665
1.27434
1.33389
1.39524
1.45831
1.52299
1.58916
1.65672
1.7255
1.79537
1.86613
1.93759
2.0096
2.08203
2.15477
2.22771
2.30074
2.37374
2.44661
2.51926
2.59161
2.66357
2.73503
2.80586
2.87603
2.94553
3.01432
3.08235
3.14957
3.21592
3.28135
3.34581
3.40923
3.47156
3.53275
3.59274
3.65147
3.70887
3.76489
3.81945
3.87253
3.92406
3.97399
4.02229
4.06889
4.11375
4.15682
4.19806
4.23744
4.27492
4.31049
4.3441
4.37574
4.40541
4.43309
4.45877
4.48246
4.50416
4.52386
4.54159
4.55733
4.57109
4.58289
4.59274
4.60067
4.60668
4.6108
4.61306
4.61348
4.61218
4.60899
4.60399
4.59727
4.58884
4.57874
4.567
4.55366
4.53875
4.5223
4.50436
4.48498
4.46419
4.44204
4.41858
4.39386
4.36794
4.34086
4.31266
4.28338
4.25298
4.22157
4.18926
4.15613
4.12223
4.08763
4.0524
4.01658
3.98024
3.9434
3.90608
3.86831
3.8302
3.79183
3.75328
3.71461
3.67589
3.63714
3.59844
3.5598
3.52133
3.4831
3.44522
3.40779
3.37091
3.33464
3.2991
3.26366
3.22735
0.00420982
0.0453553
0.0719425
0.0828359
0.0869141
0.0876333
0.0861375
0.0833615
0.0803292
0.0777486
0.0760156
0.0752346
0.0751057
0.0758142
0.0774975
0.0800846
0.0835088
0.0877156
0.0926647
0.0983191
0.104647
0.111628
0.119246
0.127497
0.136406
0.146026
0.156443
0.167749
0.180051
0.193441
0.207965
0.223631
0.240402
0.258204
0.276949
0.296545
0.316915
0.338
0.359763
0.382192
0.405296
0.429102
0.453667
0.479069
0.505367
0.532668
0.561089
0.590745
0.621754
0.654236
0.688306
0.724081
0.761671
0.801176
0.84269
0.8863
0.932084
0.980113
1.03044
1.08309
1.13806
1.19533
1.25489
1.31667
1.38061
1.4466
1.51453
1.58422
1.65547
1.7281
1.8019
1.87667
1.95223
2.02835
2.10485
2.18151
2.25833
2.33526
2.41228
2.48926
2.56607
2.64265
2.7189
2.79469
2.86986
2.94429
3.01799
3.09092
3.16303
3.23426
3.30454
3.37383
3.44207
3.50918
3.57512
3.63982
3.70323
3.7653
3.82597
3.88517
3.94282
3.99889
4.05332
4.10605
4.15706
4.20628
4.25368
4.29919
4.34279
4.38441
4.42405
4.46167
4.49726
4.5308
4.56227
4.59165
4.61892
4.64409
4.66714
4.6881
4.70697
4.72377
4.73849
4.75116
4.76178
4.77039
4.777
4.78167
4.78443
4.7853
4.78439
4.7816
4.77688
4.77038
4.76212
4.75215
4.74048
4.72716
4.71222
4.69571
4.67764
4.65808
4.63706
4.61462
4.59081
4.56568
4.53929
4.51168
4.48291
4.45302
4.42206
4.39
4.35695
4.32298
4.28818
4.2526
4.2163
4.17936
4.14181
4.10372
4.06513
4.02602
3.98642
3.94647
3.90625
3.86585
3.82531
3.78471
3.74407
3.70346
3.66287
3.62242
3.58221
3.54234
3.50291
3.46402
3.42572
3.38816
3.35074
3.31286
0.00519958
0.0516069
0.0793374
0.0904744
0.0944898
0.0950288
0.0931287
0.0902293
0.0875201
0.0856038
0.0846892
0.084466
0.0849546
0.0862878
0.0884931
0.0915032
0.095263
0.0997328
0.104896
0.110747
0.117292
0.124544
0.132533
0.141299
0.15089
0.161359
0.172757
0.185121
0.198458
0.212757
0.228007
0.244166
0.261164
0.278942
0.297451
0.316655
0.33654
0.357107
0.378368
0.400352
0.423113
0.446736
0.471346
0.496948
0.523552
0.551339
0.580481
0.611079
0.643246
0.677104
0.712777
0.750395
0.790078
0.831938
0.876078
0.922599
0.971587
1.02312
1.07727
1.13405
1.19341
1.2553
1.31966
1.38642
1.45549
1.52673
1.59999
1.67505
1.75162
1.82936
1.90789
1.98711
2.06691
2.1471
2.22743
2.30769
2.38797
2.46829
2.54856
2.62862
2.7084
2.78793
2.86715
2.9458
3.02376
3.10098
3.17736
3.25282
3.3273
3.40074
3.47308
3.54425
3.6142
3.68286
3.75016
3.81607
3.88054
3.94351
4.00494
4.06474
4.12285
4.17922
4.23381
4.28657
4.33747
4.38646
4.43351
4.47856
4.52156
4.56248
4.6013
4.638
4.67256
4.70498
4.73525
4.76333
4.78923
4.81296
4.83451
4.8539
4.87116
4.8863
4.89933
4.91027
4.91913
4.92593
4.93074
4.93359
4.93454
4.93369
4.93096
4.92625
4.91974
4.91144
4.90141
4.88967
4.87626
4.86122
4.84458
4.82638
4.80665
4.78545
4.7628
4.73876
4.71336
4.68665
4.65869
4.62953
4.59921
4.56779
4.5353
4.50183
4.46739
4.43204
4.39582
4.35882
4.32108
4.28267
4.24364
4.20405
4.16394
4.12332
4.0822
4.04072
3.99896
3.95699
3.91487
3.87266
3.83042
3.78817
3.7459
3.70376
3.66185