/*--------------------------------*- C++ -*----------------------------------*\
  =========                 |
  \\      /  F ield         | OpenFOAM: The Open Source CFD Toolbox
   \\    /   O peration     | Website:  https://openfoam.org
    \\  /    A nd           | Version:  8
     \\/     M anipulation  |
\*---------------------------------------------------------------------------*/
FoamFile
{
    version     2.0;
    format      ascii;
    class       volScalarField;
    location    "1600";
    object      omega;
}
// * * * * * * * * * * * * * * * * * * * * * * * * * * * * * * * * * * * * * //

dimensions      [0 0 -1 0 0 0 0];

internalField   nonuniform List<scalar> 
12225
(
41764.2
40676
39841.6
40575
32582.3
32582.3
39270.3
32582.3
46899.3
41496.6
32582.3
45091.1
40377.9
39268.5
32582.3
39729.8
45435.7
41011.5
11618.5
11942.9
12140.8
13462.4
15832.3
14610.1
14626.1
14481.2
16324.4
16465.8
16256.1
17912.1
17415.1
17362
17015.7
16549.8
17214.3
16686
2010.17
2272.07
2655.82
3184.06
4281.68
5148.63
5732.18
5881.06
6060.55
6286.56
6326.89
6618.08
6679.89
6734.36
6829.43
6868.81
7102.15
7168.65
703.968
824.925
1012.96
1326.58
1682.74
2053.72
2308.82
2463.86
2565.59
2650.11
2702.7
2736.37
2818.94
2845.83
2880.37
2817.59
2882.17
2907.22
486.236
526.66
609.364
760.495
915.009
1075.95
1178.46
1266.07
1326.35
1362.71
1402.82
1418.2
1456.16
1467.17
1481.02
1429.04
1455.69
1423.2
447.142
456.883
485.401
548.595
617.755
696.772
747.79
794.518
819.225
852.621
868.481
883.806
897.553
905.536
913.994
882.432
898.888
901.829
439.652
440.467
447.734
467.318
496.45
533.166
556.632
582.749
596.468
617.293
626.32
635.828
642.184
647.779
652.135
633.732
643.548
645.652
439.011
437.299
438.041
444.004
455.61
473.497
485.127
499.251
507.401
520.518
526.224
531.58
535.619
538.829
541.093
529.803
535.477
531.724
439.145
436.474
434.99
435.722
439.13
446.382
451.443
458.252
463.834
468.197
474.117
474.896
479.919
481.284
482.223
475.592
478.54
478.478
439.143
436.558
434.728
432.746
432.645
433.99
435.278
437.078
439.016
440.636
442.819
442.474
444.752
445.587
444.52
442.912
442.249
441.118
439.072
436.718
434.664
432.602
431.075
430.008
429.247
428.61
428.143
427.594
427.309
426.652
426.088
425.468
424.597
424.528
424.449
423.75
439.019
436.774
434.671
432.641
430.796
429.108
427.594
426.185
424.865
423.612
422.425
421.304
420.187
419.178
418.127
417.271
416.45
415.789
439.004
436.778
434.667
432.658
430.759
428.964
427.27
425.672
424.149
422.708
421.326
420.024
418.768
417.593
416.456
415.41
414.4
413.488
439.002
436.775
434.661
432.655
430.748
428.939
427.217
425.584
424.026
422.547
421.133
419.791
418.506
417.289
416.121
415.018
413.96
412.962
439.001
436.773
434.658
432.65
430.741
428.927
427.202
425.561
423.999
422.511
421.093
419.742
418.453
417.225
416.052
414.935
413.867
412.849
439.001
436.772
434.656
432.646
430.736
428.92
427.193
425.55
423.985
422.495
421.075
419.721
418.43
417.199
416.024
414.903
413.832
412.81
439.001
436.772
434.655
432.644
430.732
428.916
427.187
425.542
423.976
422.484
421.063
419.708
418.416
417.183
416.007
414.884
413.813
412.789
439.001
436.771
434.655
432.642
430.732
428.913
427.186
425.539
423.974
422.48
421.059
419.702
418.411
417.176
416
414.876
413.805
412.78
439.001
436.772
434.655
432.644
430.732
428.916
427.185
425.542
423.974
422.483
421.06
419.706
418.413
417.181
416.003
414.881
413.809
412.786
439.001
436.773
434.657
432.646
430.736
428.918
427.192
425.546
423.983
422.492
421.074
419.721
418.434
417.204
416.033
414.915
413.851
412.832
439.002
436.773
434.66
432.65
430.743
428.926
427.204
425.567
424.018
422.546
421.154
419.829
418.575
417.38
416.25
415.169
414.154
413.176
439.006
436.774
434.66
432.658
430.767
428.969
427.301
425.736
424.298
422.976
421.771
420.652
419.616
418.65
417.736
416.878
416.098
415.307
439.02
436.76
434.626
432.735
430.979
429.443
428.184
427.082
426.294
425.777
425.523
425.352
425.318
425.25
425.194
425.26
425.21
425.234
439.048
436.64
434.611
433.637
432.683
433.029
433.767
434.706
436.409
438.769
441.657
444.295
447.319
449.928
451.938
454.601
456.172
456.516
438.788
436.153
436.718
439.176
445.428
452.201
459.184
466.257
474.89
483.941
493.63
502.633
511.253
517.968
524.223
528.946
534.069
537.634
436.215
439.756
451.843
470.808
498.431
524.518
548.849
570.508
594.031
617.098
641.239
662.287
682.233
697.613
712.393
723.233
735.218
743.596
423.307
468.528
534.544
615.49
706.38
786.203
855.155
911.722
969.175
1022.6
1077.99
1124.14
1168.06
1200.04
1231.48
1252.53
1276.8
1292.01
327.739
771.761
1051.93
1351.06
1648.05
1894.52
2090.75
2241.84
2377.18
2492.86
2603.96
2689.69
2768.47
2820.57
2873.04
2902.5
2941.65
2960.47
569.794
3376.02
4954.11
6175.74
7095.15
7712.87
8118.34
8396.09
8544.48
8654.89
8687.64
8696.14
8693.43
8691.42
8692.46
8700.89
8719.21
8722.72
16112.1
21897.3
23821.3
24735
25176.3
25218.8
25152.7
25001.4
24766.6
24510.8
24254.9
24004.9
23770.7
23554.5
23357.9
23179.9
23019.5
22876.5
11463.3
2494.65
2496.87
2499.12
2501.38
2503.67
2505.98
2508.3
2510.65
2513.02
2515.42
2517.83
2520.27
2522.73
2525.21
2527.72
2530.25
2532.8
2535.37
2537.97
2540.6
2543.25
2545.92
2548.62
2551.34
2554.09
2556.87
2559.67
2562.5
2565.35
2568.23
2571.14
2574.08
2577.04
2580.04
2583.06
2586.11
2589.19
2592.3
2595.43
2598.6
2601.8
2605.03
2608.29
2611.59
2614.91
2618.27
2621.66
2625.08
2628.54
2632.03
2635.55
2639.11
2642.71
3207.79
3251.72
3211.5
2657.44
3173.5
3344.93
2668.88
3271.8
3353.11
3447.75
3542.32
3622.45
3707.61
3783.19
3860.3
3931.97
4003.47
4071.61
4138.97
4204.02
4268.11
4330.43
4391.77
4451.65
4510.57
4568.2
4624.91
4680.41
4735.04
4788.52
4841.13
4892.62
4943.25
4992.76
5041.35
5088.8
5135.22
5180.52
5224.7
5267.67
5309.41
5349.84
5388.97
5426.81
5463.52
5499.41
5534.71
5568.78
5601.96
5634.16
5665.38
5695.64
5724.88
5753.14
5780.37
5806.59
5831.77
5855.92
5879
5901.06
5922.02
5941.96
5960.79
5978.59
5995.27
6010.92
6025.44
6038.94
6051.3
6062.63
6072.81
6081.97
6089.97
6097.4
6103.28
6108.87
6111.89
6115.01
6117.22
6118.89
6119.53
6119.04
6116.64
6113.51
6109.18
6104.02
6098
6091.17
6083.62
6075.36
6066.64
6056.72
6046.72
6035.38
6024.02
6011.26
5998.7
5984.76
5971.24
5956.41
5941.63
5926.62
5911.08
5895.61
5879.96
5864.37
5848.85
5833.44
5818.18
5803.11
5788.25
5773.68
5759.44
5745.61
5732.23
5719.34
5706.92
5694.99
5683.35
5671.8
5659.91
5647.15
5632.46
5613.07
5583.98
5460.27
11463.3
1992.84
1001.35
814.954
696.94
629.009
636.739
632.228
620.694
597.791
573.271
549.617
527.705
509.559
497.105
488.234
487.517
489.521
515.389
564.736
649.763
751.864
862.433
972.299
1069.93
1145.87
1186.56
1177.37
1143.21
1052.38
929.958
774.66
647.821
564.07
497.969
463.602
460.572
469.245
492.547
524.134
554.782
597.567
696.687
832.515
1051.17
1379.2
1682.54
1888.2
2014.05
2079.51
2093.8
2077.36
2035.54
1993.62
1977.4
1912.26
1853.34
1782.96
1770.31
1737.11
1695.07
1713.32
1694.91
1690.1
1686.55
1684.32
1683.86
1685.66
1688.98
1693.26
1698.61
1704.53
1711.14
1718.08
1725.44
1732.97
1740.74
1748.59
1756.55
1764.52
1772.51
1780.46
1788.38
1796.21
1803.95
1811.56
1819.04
1826.36
1833.5
1840.44
1847.18
1853.72
1860.05
1866.18
1872.15
1878.05
1883.99
1890.21
1897.01
1904.9
1913.69
1921.73
1929.81
1937.54
1945.11
1952.41
1959.49
1966.34
1972.96
1979.33
1985.48
1991.38
1997.06
2002.49
2007.69
2012.65
2017.37
2021.85
2026.1
2030.12
2033.9
2037.45
2040.77
2043.85
2046.72
2049.37
2051.81
2054.07
2056.07
2057.88
2059.44
2060.92
2062.23
2063.34
2064.04
2064.18
2063.65
2062.68
2061.49
2060.12
2058.57
2056.89
2055.01
2053.24
2050.07
2048.52
2044.93
2043.13
2039.11
2037.05
2032.67
2030.34
2026.24
2022.48
2019.54
2015.08
2011.7
2007.73
2003.9
2000.01
1996.13
1992.25
1988.39
1984.55
1980.75
1976.99
1973.3
1969.67
1966.13
1962.69
1959.36
1956.12
1953.03
1950.14
1947.46
1945.12
1943.16
1942.19
1941.28
1950.32
11463.3
2007.1
816.632
649.094
693.071
691.5
662.218
605.443
545.069
488.487
438.648
396.058
362.648
336.501
316.394
300.967
290.218
282.045
279.851
282.235
292.705
311.59
344.221
388.776
444.108
505.229
566.129
612.975
642.421
637.243
619.344
570.894
509.034
441.961
393.537
390.305
402.661
428.157
469.175
545.736
662.002
825.983
1025.81
1202.67
1349.49
1481.06
1559.47
1583.75
1574.41
1524.86
1469.85
1408.53
1351.51
1300.43
1258.38
1220.47
1189.27
1165.33
1149.9
1136.1
1126.63
1122.18
1117.19
1115.25
1114.46
1114.25
1115.4
1117.24
1119.7
1122.61
1125.91
1129.49
1133.32
1137.31
1141.46
1145.7
1150.03
1154.4
1158.82
1163.24
1167.68
1172.1
1176.5
1180.87
1185.19
1189.47
1193.69
1197.84
1201.94
1205.96
1209.93
1213.84
1217.72
1221.57
1225.43
1229.33
1233.31
1237.43
1241.7
1246.11
1250.46
1254.61
1258.69
1262.61
1266.42
1270.09
1273.64
1277.05
1280.33
1283.47
1286.48
1289.35
1292.09
1294.7
1297.16
1299.49
1301.68
1303.73
1305.65
1307.42
1309.06
1310.56
1311.92
1313.15
1314.24
1315.2
1316.03
1316.73
1317.3
1317.74
1318.05
1318.25
1318.33
1318.29
1317.93
1317.41
1316.68
1315.78
1314.78
1313.68
1312.47
1311.16
1309.75
1308.23
1306.45
1304.87
1302.85
1301.09
1298.85
1296.95
1294.52
1292.51
1289.99
1287.6
1285.32
1282.66
1280.24
1277.64
1275.06
1272.44
1269.81
1267.17
1264.52
1261.86
1259.21
1256.57
1253.95
1251.34
1248.75
1246.21
1243.71
1241.28
1238.95
1236.76
1234.77
1233.13
1232
1232.06
1233.71
1244.54
11463.3
2040.09
1023.34
987.289
915.817
782.915
663.976
555.791
470.75
407.353
359.629
321.997
292.938
270.784
253.932
241.167
231.63
224.705
220.094
218.402
219.466
222.647
231.123
245.652
267.515
296.617
331.253
366.591
397.499
420.497
425.535
418.106
397.281
402.152
449.409
540.075
604.348
663.475
738.585
846.383
983.09
1096.94
1175.1
1242.39
1291.71
1308.61
1263.9
1222.86
1173.42
1120.83
1075.15
1033.7
999.538
971.117
948.497
930.408
916.31
906.352
899.291
893.766
890.815
889.253
888.572
888.526
889.443
890.856
892.81
895.117
897.731
900.584
903.633
906.838
910.17
913.602
917.116
920.69
924.314
927.971
931.651
935.344
939.041
942.734
946.416
950.079
953.72
957.334
960.917
964.468
967.985
971.467
974.92
978.348
981.759
985.159
988.557
991.96
995.373
998.794
1002.21
1005.58
1008.86
1012.03
1015.11
1018.09
1020.97
1023.74
1026.41
1028.98
1031.44
1033.79
1036.03
1038.16
1040.17
1042.08
1043.87
1045.55
1047.12
1048.56
1049.89
1051.11
1052.21
1053.19
1054.05
1054.8
1055.43
1055.94
1056.34
1056.63
1056.8
1056.86
1056.81
1056.65
1056.36
1055.96
1055.37
1054.66
1053.81
1052.85
1051.8
1050.65
1049.4
1048.06
1046.63
1045.1
1043.46
1041.79
1039.97
1038.14
1036.15
1034.18
1032.04
1029.96
1027.71
1025.46
1023.2
1020.81
1018.45
1016.02
1013.57
1011.09
1008.59
1006.07
1003.53
1000.99
998.438
995.884
993.331
990.785
988.245
985.727
983.244
980.812
978.456
976.217
974.156
972.386
971.066
970.768
971.94
978.662
11463.3
2323.64
1490.25
1200.09
950.747
733.53
566.149
454.113
377.72
324.153
285.75
258.794
239.18
224.376
212.904
204
197.232
192.346
189.126
187.676
188.003
189.469
193.496
200.533
211.638
227.887
249.296
273.433
297.426
315.751
332.789
361.469
434.093
541.037
628.953
697.752
769.801
847.492
920.068
983.414
1038.7
1086.5
1113.38
1119.2
1082.92
1037.7
997.753
957.205
919.065
885.768
858.073
834.682
815.98
801.038
789.481
780.774
774.452
770.284
767.734
766.533
766.243
766.685
767.841
769.488
771.594
774.023
776.733
779.657
782.759
786.004
789.369
792.832
796.375
799.984
803.647
807.352
811.089
814.85
818.626
822.41
826.194
829.974
833.742
837.495
841.227
844.935
848.617
852.27
855.893
859.483
863.042
866.573
870.077
873.554
877.003
880.422
883.805
887.139
890.415
893.616
896.728
899.749
902.679
905.514
908.253
910.893
913.433
915.87
918.204
920.433
922.556
924.571
926.476
928.269
929.95
931.517
932.968
934.304
935.523
936.625
937.608
938.474
939.22
939.849
940.357
940.747
941.016
941.165
941.199
941.134
940.936
940.62
940.18
939.616
938.913
938.084
937.136
936.079
934.921
933.661
932.301
930.842
929.291
927.64
925.9
924.082
922.165
920.179
918.098
915.962
913.737
911.48
909.129
906.741
904.31
901.808
899.28
896.704
894.095
891.454
888.787
886.099
883.394
880.676
877.948
875.213
872.475
869.739
867.017
864.314
861.64
859.01
856.446
853.983
851.675
849.614
847.926
847.009
847.345
850.782
11463.3
2958.04
1751.5
1220.25
839.213
591.728
447.656
358.792
303.93
268.299
243.487
225.158
211.044
199.975
191.145
184.127
178.712
174.78
172.247
171.238
171.616
173.103
176.536
181.964
190.148
202.319
219.416
241.782
271.7
316.722
375.026
472.799
585.792
673.914
742.714
805.366
857.34
897.658
932.421
965.337
980.653
980.798
949.28
918.422
883.972
850.097
819.716
791.835
768.05
748.145
731.819
718.565
708.236
700.375
694.659
690.766
688.676
687.796
687.688
688.527
690.06
692.114
694.609
697.443
700.557
703.887
707.396
711.047
714.816
718.683
722.632
726.65
730.726
734.85
739.012
743.205
747.419
751.648
755.885
760.122
764.353
768.574
772.778
776.96
781.117
785.245
789.34
793.4
797.421
801.401
805.339
809.236
813.091
816.9
820.66
824.366
828.011
831.582
835.077
838.487
841.805
845.03
848.159
851.189
854.118
856.942
859.659
862.268
864.765
867.149
869.421
871.576
873.613
875.528
877.322
878.991
880.536
881.954
883.245
884.408
885.442
886.347
887.122
887.766
888.279
888.662
888.91
889.014
889.018
888.889
888.621
888.221
887.689
887.022
886.219
885.284
884.224
883.045
881.75
880.343
878.823
877.194
875.46
873.621
871.688
869.658
867.532
865.317
863.013
860.632
858.171
855.648
853.05
850.395
847.683
844.912
842.096
839.234
836.333
833.397
830.432
827.443
824.437
821.415
818.381
815.339
812.292
809.246
806.21
803.191
800.201
797.251
794.363
791.564
788.902
786.452
784.316
782.76
782.145
783.361
11463.3
3465.74
1792.54
1042.66
655.337
461.374
362.806
307.055
271.556
246.197
227.099
212.221
200.248
190.351
182.153
175.49
170.292
166.55
164.375
163.884
164.841
167.584
172.595
180.289
191.422
206.626
229.564
266.188
324.126
414.258
522.529
611.799
681.773
741.718
788.402
823.483
851.902
873.014
881.378
874.886
851.191
828.913
801.325
775.611
749.799
726.272
705.709
687.935
673.162
661.045
651.352
643.836
638.311
634.501
632.399
631.592
631.575
632.611
634.37
636.764
639.661
642.954
646.568
650.436
654.509
658.745
663.114
667.593
672.162
676.807
681.517
686.281
691.09
695.937
700.813
705.71
710.62
715.536
720.45
725.356
730.246
735.116
739.96
744.773
749.55
754.287
758.979
763.624
768.218
772.756
777.237
781.661
786.026
790.327
794.562
798.725
802.812
806.821
810.742
814.567
818.293
821.915
825.43
828.836
832.129
835.304
838.36
841.293
844.101
846.778
849.319
851.727
854.001
856.138
858.137
859.996
861.714
863.289
864.721
866.01
867.154
868.153
869.006
869.712
870.272
870.685
870.943
871.043
871.032
870.864
870.547
870.082
869.471
868.713
867.808
866.761
865.575
864.256
862.807
861.23
859.527
857.702
855.757
853.686
851.496
849.196
846.79
844.283
841.678
838.982
836.201
833.342
830.407
827.402
824.332
821.201
818.016
814.781
811.504
808.188
804.841
801.468
798.076
794.668
791.247
787.817
784.382
780.95
777.527
774.122
770.746
767.41
764.133
760.937
757.865
754.974
752.337
750.138
748.561
748.142
11463.3
3604.5
1570.06
819.633
520.06
385.963
316.801
276.456
250.281
232.024
218.014
206.177
195.815
186.849
179.257
173.117
168.62
165.933
164.991
165.705
168.326
173.509
181.833
195.428
216.877
248.595
297.355
374.173
464.494
545.838
611.32
666.606
712.974
749.774
779.433
796.942
802.391
794.067
776.24
758.148
736.995
717.125
696.602
677.441
659.357
643.453
629.849
618.433
609.133
601.756
596.152
592.166
589.796
588.806
588.693
589.643
591.427
593.965
597.108
600.757
604.819
609.214
613.879
618.762
623.82
629.022
634.342
639.759
645.256
650.82
656.441
662.107
667.811
673.544
679.3
685.067
690.838
696.604
702.356
708.088
713.791
719.461
725.091
730.676
736.211
741.692
747.114
752.47
757.758
762.973
768.113
773.177
778.162
783.066
787.883
792.611
797.248
801.791
806.227
810.549
814.754
818.839
822.799
826.632
830.334
833.901
837.329
840.616
843.759
846.754
849.601
852.297
854.839
857.226
859.456
861.526
863.436
865.184
866.769
868.191
869.45
870.545
871.474
872.237
872.835
873.266
873.516
873.602
873.545
873.317
872.921
872.36
871.635
870.747
869.697
868.488
867.124
865.609
863.947
862.14
860.193
858.107
855.887
853.536
851.062
848.466
845.754
842.928
839.995
836.96
833.83
830.613
827.312
823.933
820.482
816.964
813.387
809.757
806.08
802.362
798.609
794.829
791.028
787.21
783.379
779.539
775.696
771.856
768.026
764.217
760.438
756.7
753.019
749.415
745.91
742.54
739.376
736.55
734.143
732.356
11463.3
3415.36
1283.9
664.595
445.757
350.843
299.609
268.457
246.877
230.568
217.603
206.854
197.698
189.875
183.428
178.586
175.685
174.887
176.493
180.532
187.979
200.276
218.931
248.898
294.7
356.144
425.923
489.942
547.712
597.54
640.078
675.709
706.406
726.685
733.424
728.794
715.742
700.851
684.19
668.314
652.445
637.364
622.573
608.815
596.335
585.577
576.559
569.209
563.453
559.187
556.339
554.957
554.599
555.232
556.817
559.257
562.428
566.237
570.584
575.385
580.564
586.055
591.803
597.762
603.893
610.168
616.561
623.054
629.625
636.26
642.945
649.668
656.417
663.184
669.968
676.75
683.521
690.272
696.994
703.678
710.318
716.906
723.436
729.902
736.293
742.596
748.824
754.971
761.035
767.009
772.891
778.679
784.371
789.962
795.449
800.825
806.086
811.224
816.234
821.111
825.852
830.452
834.909
839.218
843.376
847.378
851.221
854.901
858.414
861.759
864.933
867.934
870.758
873.406
875.873
878.158
880.26
882.178
883.911
885.459
886.821
887.998
888.987
889.789
890.403
890.827
891.046
891.092
890.958
890.637
890.129
889.436
888.559
887.5
886.261
884.845
883.255
881.496
879.57
877.482
875.236
872.835
870.285
867.59
864.756
861.787
858.688
855.464
852.121
848.664
845.102
841.442
837.691
833.853
829.936
825.947
821.895
817.786
813.627
809.424
805.185
800.917
796.626
792.319
787.998
783.67
779.341
775.017
770.707
766.42
762.166
757.956
753.802
749.723
745.746
741.905
738.24
734.85
731.757
728.9
11463.3
2976.55
1032.9
564.623
404.072
331.16
291.921
266.248
248.626
235.632
225.181
216.357
208.892
202.89
198.739
197.077
198.107
202.705
210.923
223.257
241.869
268.766
305.589
350.804
399.959
449.592
496.384
538.318
575.772
607.99
636.461
659.326
669.325
670.16
662.701
651.93
638.976
626.209
613.775
602.035
590.594
579.555
568.953
559.216
550.618
543.36
537.462
532.895
529.61
527.698
526.978
527.14
528.364
530.511
533.504
537.261
541.692
546.717
552.258
558.243
564.609
571.295
578.245
585.415
592.767
600.27
607.905
615.652
623.476
631.358
639.281
647.227
655.177
663.104
670.968
678.808
686.628
694.421
702.173
709.876
717.521
725.102
732.612
740.046
747.397
754.668
761.838
768.898
775.843
782.669
789.372
795.951
802.404
808.728
814.917
820.968
826.875
832.634
838.242
843.693
848.985
854.113
859.073
863.862
868.475
872.909
877.158
881.22
885.09
888.767
892.247
895.529
898.61
901.488
904.161
906.627
908.885
910.934
912.774
914.406
915.829
917.041
918.043
918.835
919.417
919.779
919.921
919.867
919.607
919.137
918.461
917.579
916.492
915.204
913.717
912.033
910.157
908.091
905.841
903.41
900.803
898.026
895.082
891.979
888.722
885.317
881.768
878.083
874.266
870.325
866.269
862.105
857.841
853.483
849.04
844.522
839.936
835.291
830.594
825.852
821.071
816.26
811.426
806.575
801.712
796.844
791.978
787.122
782.283
777.47
772.694
767.965
763.294
758.697
754.197
749.823
745.603
741.613
737.843
734.007
11463.3
2494.04
896.799
526.6
390.948
327.466
292.779
272.208
258.489
248.379
240.441
234.202
229.806
227.938
228.62
233.149
241.669
253.41
268.765
289.913
317
349.011
384.257
420.594
456.276
490.178
521.402
549.023
574.216
596.959
610.257
614.159
612.421
606.721
598.007
588.482
578.907
569.844
561.166
552.78
544.544
536.557
529.018
522.228
516.407
511.68
508.085
505.65
504.482
504.247
505.025
506.776
509.469
513.035
517.407
522.509
528.267
534.611
541.473
548.794
556.538
564.625
572.994
581.598
590.393
599.327
608.332
617.369
626.485
635.668
644.899
654.154
663.407
672.639
681.855
691.024
700.138
709.19
718.16
727.041
735.827
744.515
753.099
761.571
769.925
778.148
786.232
794.175
801.971
809.618
817.113
824.454
831.641
838.668
845.534
852.233
858.762
865.117
871.294
877.287
883.093
888.707
894.126
899.346
904.364
909.174
913.773
918.157
922.321
926.264
929.983
933.476
936.742
939.777
942.581
945.151
947.488
949.59
951.459
953.094
954.496
955.663
956.597
957.296
957.762
957.981
957.97
957.731
957.263
956.565
955.639
954.488
953.114
951.518
949.705
947.676
945.436
942.989
940.34
937.492
934.451
931.224
927.816
924.233
920.483
916.572
912.505
908.291
903.936
899.447
894.832
890.101
885.262
880.324
875.297
870.192
865.018
859.783
854.494
849.159
843.785
838.379
832.951
827.506
822.051
816.595
811.146
805.712
800.299
794.918
789.577
784.286
779.056
773.901
768.843
763.903
759.104
754.504
750.081
745.364
11463.3
2080.08
790.248
491.226
380.821
328.368
300.673
284.345
273.835
266.659
261.751
259.293
258.883
261.472
267.598
277.341
290.145
305.779
325.017
347.572
372.534
398.843
425.475
451.579
476.409
499.263
520.737
541.012
555.733
562.183
563.675
562.765
558.637
552.893
546.38
539.856
533.522
527.41
521.404
515.452
509.583
503.95
498.774
494.289
490.668
488.008
486.507
486.012
486.46
487.919
490.348
493.713
497.984
503.136
509.115
515.815
523.169
531.111
539.568
548.448
557.604
567.08
576.882
586.975
597.315
607.861
618.587
629.469
640.43
651.424
662.419
673.4
684.303
695.099
705.773
716.304
726.68
736.898
746.976
756.924
766.744
776.438
786.003
795.431
804.709
813.824
822.767
831.532
840.117
848.518
856.734
864.764
872.604
880.254
887.709
894.967
902.025
908.879
915.524
921.955
928.167
934.157
939.922
945.459
950.764
955.832
960.659
965.241
969.575
973.66
977.492
981.07
984.392
987.457
990.263
992.811
995.099
997.128
998.898
1000.41
1001.67
1002.67
1003.41
1003.89
1004.12
1004.09
1003.8
1003.26
1002.47
1001.44
1000.16
998.63
996.864
994.86
992.621
990.15
987.453
984.531
981.392
978.039
974.479
970.718
966.763
962.621
958.3
953.806
949.147
944.333
939.369
934.263
929.025
923.661
918.185
912.607
906.938
901.191
895.374
889.496
883.565
877.587
871.571
865.523
859.451
853.365
847.274
841.186
835.112
829.058
823.031
817.041
811.095
805.204
799.377
793.63
787.98
782.446
777.045
771.823
766.763
761.235
11463.3
1947.61
771.479
488.338
383.972
337.326
313.503
300.185
292.315
287.968
286.264
286.423
289.424
295.314
304.054
315.369
328.936
344.781
362.517
381.509
401.119
420.707
439.696
457.868
475.515
492.532
506.425
514.617
518.516
519.989
519.955
518.024
514.858
511.121
507.161
503.176
499.193
495.196
491.173
487.174
483.318
479.778
476.751
474.419
473.05
472.6
473.122
474.769
477.369
480.91
485.37
490.711
496.867
503.704
511.177
519.395
528.335
537.94
548.147
558.9
570.183
581.911
594.012
606.436
619.132
632.036
645.093
658.269
671.452
684.549
697.491
710.2
722.666
734.868
746.797
758.45
769.837
780.986
791.938
802.721
813.351
823.839
834.188
844.385
854.407
864.23
873.843
883.242
892.427
901.394
910.141
918.666
926.967
935.042
942.889
950.506
957.891
965.04
971.95
978.613
985.027
991.187
997.091
1002.74
1008.12
1013.24
1018.09
1022.66
1026.96
1030.99
1034.73
1038.19
1041.38
1044.27
1046.89
1049.22
1051.28
1053.05
1054.54
1055.75
1056.68
1057.33
1057.71
1057.81
1057.64
1057.2
1056.47
1055.48
1054.23
1052.71
1050.93
1048.89
1046.6
1044.06
1041.27
1038.24
1034.97
1031.46
1027.73
1023.77
1019.59
1015.19
1010.6
1005.81
1000.83
995.666
990.334
984.841
979.193
973.4
967.471
961.41
955.233
948.957
942.592
936.15
929.639
923.068
916.446
909.778
903.073
896.337
889.578
882.809
876.04
869.283
862.546
855.836
849.16
842.526
835.94
829.413
822.958
816.587
810.318
804.166
798.143
792.287
786.599
780.31
11463.3
1889.69
755.127
487.721
392.116
349.579
328.636
317.498
311.586
309.026
308.547
310.62
315.326
322.34
331.359
342.053
354.154
367.387
381.379
395.705
409.945
424.036
438.136
451.784
463.348
471.438
477.062
480.986
483.029
483.86
483.988
483.229
481.9
480.262
478.439
476.497
474.471
472.413
470.412
468.626
467.312
466.556
466.357
466.887
468.264
470.455
473.367
476.87
481.308
486.748
493.189
500.605
508.965
518.269
528.503
539.596
551.504
564.145
577.443
591.33
605.749
620.602
635.798
651.265
666.979
682.795
698.574
714.176
729.524
744.549
759.174
773.339
787.013
800.181
812.847
825.021
836.758
848.147
859.309
870.316
881.181
891.934
902.588
913.113
923.461
933.57
943.439
953.072
962.463
971.609
980.503
989.143
997.529
1005.66
1013.53
1021.14
1028.49
1035.57
1042.39
1048.94
1055.2
1061.19
1066.9
1072.32
1077.45
1082.3
1086.85
1091.11
1095.06
1098.72
1102.07
1105.13
1107.88
1110.34
1112.5
1114.37
1115.93
1117.19
1118.15
1118.82
1119.19
1119.25
1119.05
1118.54
1117.74
1116.65
1115.28
1113.64
1111.72
1109.54
1107.09
1104.38
1101.4
1098.17
1094.68
1090.95
1086.96
1082.74
1078.28
1073.59
1068.67
1063.54
1058.2
1052.66
1046.92
1041
1034.91
1028.65
1022.24
1015.69
1009
1002.18
995.243
988.214
981.102
973.915
966.661
959.351
951.991
944.589
937.154
929.689
922.203
914.715
907.236
899.777
892.346
884.95
877.594
870.287
863.031
855.84
848.73
841.713
834.803
828.014
821.353
814.852
808.538
801.531
11463.3
1857.17
750.032
493.687
403.269
363.349
343.734
333.394
328.137
326.049
325.839
328.371
333.157
339.695
347.556
356.403
366.023
376.185
386.644
397.228
408.093
418.473
427.376
434.731
440.793
446.006
450.131
453.412
455.988
458.088
459.874
461.441
462.702
463.722
464.568
465.302
465.99
466.699
467.49
468.379
469.219
470.588
472.754
475.992
480.242
485.485
491.756
499.161
507.647
517.243
527.959
539.742
552.544
566.338
581.084
596.749
613.321
630.576
648.375
666.605
685.158
703.915
722.757
741.559
760.149
778.457
796.395
813.846
830.695
846.826
862.14
876.606
890.237
903.068
915.13
926.396
937.003
947.153
957.197
967.285
977.309
987.345
997.442
1007.5
1017.43
1027.17
1036.7
1045.98
1055
1063.76
1072.24
1080.44
1088.36
1096
1103.35
1110.41
1117.2
1123.7
1129.92
1135.85
1141.47
1146.8
1151.83
1156.55
1160.98
1165.1
1168.91
1172.4
1175.59
1178.46
1181.01
1183.25
1185.19
1186.81
1188.13
1189.16
1189.87
1190.25
1190.32
1190.12
1189.6
1188.76
1187.64
1186.22
1184.52
1182.52
1180.24
1177.68
1174.86
1171.77
1168.41
1164.79
1160.91
1156.77
1152.38
1147.75
1142.87
1137.74
1132.39
1126.8
1120.99
1114.97
1108.74
1102.31
1095.69
1088.88
1081.91
1074.78
1067.5
1060.08
1052.53
1044.88
1037.15
1029.32
1021.41
1013.44
1005.4
997.303
989.164
980.988
972.785
964.558
956.315
948.082
939.869
931.685
923.537
915.43
907.372
899.367
891.418
883.545
875.762
868.082
860.516
853.077
845.769
838.615
831.68
823.995
11463.3
1834.6
749.577
502.101
413.342
374.452
355.56
345.201
339.738
337.495
337.141
339.246
343.281
348.684
355.041
362.097
369.738
377.854
386.186
394.257
401.931
409.222
416.286
422.895
429.137
435.082
440.698
446.018
450.986
455.58
459.714
463.149
466.341
469.439
472.53
475.698
479.033
482.632
486.598
491.069
496.327
502.493
509.842
518.65
528.571
539.595
551.766
565.133
579.647
595.331
612.327
630.368
649.287
668.955
689.241
709.974
730.972
752.198
773.548
794.913
816.174
837.224
857.959
878.28
898.087
917.307
935.864
953.674
970.641
986.632
1001.48
1015.26
1028.1
1040.09
1051.29
1061.76
1071.51
1080.62
1089.26
1097.58
1105.73
1114.09
1122.88
1131.72
1140.45
1149.02
1157.38
1165.47
1173.27
1180.79
1188.02
1194.95
1201.58
1207.9
1213.93
1219.66
1225.1
1230.27
1235.14
1239.72
1244
1247.98
1251.65
1255.02
1258.1
1260.87
1263.34
1265.49
1267.33
1268.87
1270.09
1271.01
1271.62
1271.92
1271.91
1271.66
1271.06
1270.15
1268.95
1267.47
1265.7
1263.64
1261.31
1258.69
1255.81
1252.65
1249.21
1245.52
1241.56
1237.35
1232.88
1228.17
1223.21
1218
1212.56
1206.88
1200.97
1194.83
1188.47
1181.89
1175.1
1168.1
1160.9
1153.51
1145.94
1138.2
1130.3
1122.25
1114.05
1105.73
1097.28
1088.76
1080.15
1071.46
1062.69
1053.86
1044.96
1036.02
1027.03
1018.02
1008.99
999.96
990.951
981.964
973.006
964.082
955.2
946.366
937.588
928.871
920.218
911.653
903.192
894.844
886.617
878.523
870.567
862.762
855.213
846.894
11463.3
1823.06
752.786
507.631
419.903
382.027
363.322
352.795
347.192
344.818
344.362
346.195
349.877
354.913
360.878
367.555
374.76
382.326
390.191
398.433
406.627
414.719
422.814
430.868
438.936
447.05
455.227
463.473
471.61
479.672
487.721
495.913
504.26
512.845
521.763
531.111
541
551.54
562.837
575.017
588.235
602.491
617.773
633.846
650.865
668.895
687.984
708.179
729.339
751.28
773.755
796.985
820.637
844.489
868.364
892.091
915.519
938.537
961.033
982.911
1004.1
1024.56
1044.25
1063.14
1081.2
1098.42
1114.79
1130.31
1144.95
1158.73
1171.67
1183.61
1194.73
1205.19
1215.04
1224.38
1233.06
1241.08
1248.35
1254.99
1261.43
1268.21
1275.03
1281.66
1288.05
1294.16
1299.99
1305.54
1310.81
1315.81
1320.54
1325
1329.17
1333.06
1336.68
1340.04
1343.16
1346.04
1348.67
1351.04
1353.14
1354.98
1356.55
1357.86
1358.92
1359.71
1360.24
1360.49
1360.45
1360.18
1359.61
1358.77
1357.66
1356.29
1354.65
1352.76
1350.6
1348.17
1345.48
1342.54
1339.35
1335.92
1332.24
1328.32
1324.16
1319.76
1315.13
1310.25
1305.15
1299.82
1294.26
1288.48
1282.48
1276.27
1269.84
1263.2
1256.34
1249.28
1242.02
1234.56
1226.91
1219.06
1211.04
1202.83
1194.46
1185.93
1177.25
1168.43
1159.47
1150.38
1141.17
1131.86
1122.46
1112.96
1103.4
1093.76
1084.06
1074.32
1064.53
1054.72
1044.9
1035.08
1025.3
1015.54
1005.82
996.127
986.482
976.891
967.364
957.914
948.567
939.325
930.195
921.186
912.305
903.566
894.971
886.53
878.38
869.48
11463.3
1812.7
755.011
510.744
423.288
387.514
369.407
359.607
355.45
354.031
354.695
357.883
362.819
369.079
376.627
385.662
395.293
405.457
416.669
429.044
441.968
455.304
469.34
484.09
499.532
515.632
532.358
549.621
567.457
585.854
604.828
624.396
644.463
665.014
686.093
707.764
730.154
753.436
777.512
802.293
827.692
853.583
879.804
906.168
932.702
959.425
986.428
1014.24
1042.14
1069.6
1096.2
1121.6
1145.91
1169.11
1191.15
1211.98
1231.53
1249.78
1266.75
1282.48
1297.02
1310.43
1322.77
1334.12
1344.49
1353.98
1362.63
1370.51
1377.68
1384.31
1390.67
1396.82
1402.69
1408.2
1413.29
1417.94
1421.91
1425.52
1429.01
1432.75
1436.71
1440.4
1443.4
1445.92
1448.12
1450.05
1451.78
1453.3
1454.64
1455.79
1456.76
1457.53
1458.12
1458.53
1458.77
1458.84
1458.77
1458.58
1458.22
1457.66
1456.93
1456.02
1454.93
1453.67
1452.24
1450.61
1448.8
1446.78
1444.56
1442.14
1439.52
1436.71
1433.69
1430.48
1427.06
1423.45
1419.63
1415.6