/*--------------------------------*- C++ -*----------------------------------*\
  =========                 |
  \\      /  F ield         | OpenFOAM: The Open Source CFD Toolbox
   \\    /   O peration     | Website:  https://openfoam.org
    \\  /    A nd           | Version:  8
     \\/     M anipulation  |
\*---------------------------------------------------------------------------*/
FoamFile
{
    version     2.0;
    format      ascii;
    class       volVectorField;
    location    "1600";
    object      U;
}
// * * * * * * * * * * * * * * * * * * * * * * * * * * * * * * * * * * * * * //

dimensions      [0 1 -1 0 0 0 0];

internalField   nonuniform List<vector> 
12225
(
(9.76133 0.0620886 0)
(9.34739 0.0871792 0)
(8.94983 0.0855252 0)
(8.5743 0.0791328 0)
(8.2303 0.0709465 0)
(7.93092 0.065179 0)
(7.68621 0.0493109 0)
(7.47153 0.0475521 0)
(7.29585 0.0455933 0)
(7.15467 0.0232855 0)
(7.04367 0.021834 0)
(6.95251 0.020446 0)
(6.88126 0.00937315 0)
(6.82699 -0.00048911 0)
(6.78128 -0.00121524 0)
(6.74792 0.0106075 0)
(6.71258 0.00706024 0)
(6.70669 0.000923451 0)
(10.0705 0.0541087 0)
(10.203 0.0846056 0)
(10.2579 0.0847742 0)
(10.2662 0.0823927 0)
(10.2563 0.0796351 0)
(10.2175 0.0745643 0)
(10.1482 0.07111 0)
(10.0809 0.0648231 0)
(9.98721 0.0573643 0)
(9.90251 0.0540324 0)
(9.82135 0.0482598 0)
(9.73167 0.0424291 0)
(9.65209 0.0387431 0)
(9.57473 0.0365544 0)
(9.50565 0.032034 0)
(9.43761 0.0258323 0)
(9.37322 0.0206887 0)
(9.31735 0.0137104 0)
(10.0188 0.0448527 0)
(10.0774 0.066744 0)
(10.1228 0.0687797 0)
(10.1553 0.0729279 0)
(10.1832 0.0778024 0)
(10.2079 0.0804751 0)
(10.2248 0.0791143 0)
(10.2347 0.0768343 0)
(10.2379 0.0734343 0)
(10.2349 0.0677974 0)
(10.2265 0.0640837 0)
(10.2142 0.0605605 0)
(10.1983 0.0562766 0)
(10.1791 0.0524683 0)
(10.1581 0.0498816 0)
(10.1377 0.0480232 0)
(10.1181 0.0428674 0)
(10.0974 0.0357008 0)
(10.0092 0.0321018 0)
(10.0445 0.0562004 0)
(10.073 0.0624151 0)
(10.0927 0.0667309 0)
(10.1098 0.0702701 0)
(10.1273 0.0720753 0)
(10.1436 0.071093 0)
(10.1579 0.0695019 0)
(10.1704 0.0669005 0)
(10.18 0.0627762 0)
(10.1872 0.0600569 0)
(10.1929 0.0575086 0)
(10.197 0.0546482 0)
(10.1991 0.0521748 0)
(10.2001 0.050008 0)
(10.2009 0.0476686 0)
(10.201 0.0434681 0)
(10.1996 0.0383541 0)
(10.0057 0.0252222 0)
(10.0312 0.0496966 0)
(10.0536 0.0575522 0)
(10.0695 0.0618195 0)
(10.083 0.065035 0)
(10.0966 0.0667118 0)
(10.1096 0.0662633 0)
(10.1213 0.0649713 0)
(10.1318 0.0628232 0)
(10.1409 0.0597853 0)
(10.1487 0.0573431 0)
(10.1558 0.0550478 0)
(10.1621 0.0525889 0)
(10.1677 0.0502944 0)
(10.1729 0.0481813 0)
(10.1779 0.0457749 0)
(10.1823 0.0422146 0)
(10.1856 0.0379375 0)
(10.0037 0.019984 0)
(10.0228 0.0432358 0)
(10.0421 0.0522258 0)
(10.0568 0.0568862 0)
(10.0691 0.0602748 0)
(10.0813 0.062086 0)
(10.0928 0.0619464 0)
(10.1032 0.0607626 0)
(10.1124 0.0588274 0)
(10.1206 0.0563139 0)
(10.1279 0.0539743 0)
(10.1346 0.0517516 0)
(10.1408 0.0494595 0)
(10.1466 0.0472667 0)
(10.1522 0.0451238 0)
(10.1577 0.0426814 0)
(10.1626 0.0395324 0)
(10.1668 0.0359388 0)
(10.0025 0.0158671 0)
(10.0168 0.0370396 0)
(10.0335 0.0466658 0)
(10.0475 0.0518474 0)
(10.0593 0.055437 0)
(10.0707 0.0573388 0)
(10.0815 0.0574573 0)
(10.0912 0.0564855 0)
(10.0998 0.0548064 0)
(10.1075 0.0526585 0)
(10.1145 0.0504855 0)
(10.1208 0.0483346 0)
(10.1268 0.0461503 0)
(10.1324 0.0440166 0)
(10.1378 0.0418536 0)
(10.1431 0.0394394 0)
(10.1478 0.0365965 0)
(10.152 0.033497 0)
(10.0018 0.0130448 0)
(10.013 0.0322087 0)
(10.0276 0.042005 0)
(10.0409 0.0474865 0)
(10.0524 0.0511908 0)
(10.0633 0.0531532 0)
(10.0737 0.0534496 0)
(10.083 0.052655 0)
(10.0913 0.0511911 0)
(10.0987 0.0493039 0)
(10.1055 0.0472994 0)
(10.1117 0.0452506 0)
(10.1175 0.043172 0)
(10.123 0.0410988 0)
(10.1282 0.0389511 0)
(10.1332 0.0365987 0)
(10.1377 0.0339723 0)
(10.1418 0.0311744 0)
(10.0014 0.0109604 0)
(10.0104 0.0282656 0)
(10.0232 0.0378251 0)
(10.0355 0.0433878 0)
(10.0466 0.0471546 0)
(10.0571 0.0492231 0)
(10.0671 0.0497297 0)
(10.0761 0.0491687 0)
(10.0843 0.0479273 0)
(10.0916 0.0462514 0)
(10.0983 0.0443887 0)
(10.1044 0.0424301 0)
(10.1101 0.0404189 0)
(10.1155 0.0383931 0)
(10.1206 0.0362825 0)
(10.1253 0.0340198 0)
(10.1297 0.0315576 0)
(10.1336 0.028982 0)
(10.001 0.009119 0)
(10.0082 0.0243941 0)
(10.0191 0.0334825 0)
(10.0303 0.0389786 0)
(10.0408 0.0427133 0)
(10.0508 0.0448454 0)
(10.0603 0.0455377 0)
(10.0691 0.0452034 0)
(10.0771 0.0441905 0)
(10.0843 0.0427347 0)
(10.0909 0.0410281 0)
(10.097 0.0391928 0)
(10.1026 0.037281 0)
(10.1079 0.0353215 0)
(10.1128 0.0332791 0)
(10.1174 0.0311197 0)
(10.1216 0.0288257 0)
(10.1254 0.0264628 0)
(10.0008 0.00749433 0)
(10.0064 0.0206479 0)
(10.0155 0.0290516 0)
(10.0255 0.0343187 0)
(10.0351 0.037902 0)
(10.0445 0.0400174 0)
(10.0535 0.0408374 0)
(10.062 0.0407004 0)
(10.0697 0.0399039 0)
(10.0768 0.038665 0)
(10.0833 0.0371479 0)
(10.0893 0.035467 0)
(10.0948 0.0336831 0)
(10.0999 0.0318235 0)
(10.1047 0.0298881 0)
(10.1091 0.0278632 0)
(10.1132 0.0257422 0)
(10.1169 0.0236036 0)
(10.0006 0.00605132 0)
(10.005 0.0170671 0)
(10.0125 0.0245866 0)
(10.0212 0.0294554 0)
(10.0299 0.0327725 0)
(10.0385 0.03478 0)
(10.0469 0.0356572 0)
(10.0549 0.0356634 0)
(10.0623 0.0350542 0)
(10.0692 0.034018 0)
(10.0755 0.0326963 0)
(10.0813 0.0311897 0)
(10.0867 0.0295584 0)
(10.0917 0.0278458 0)
(10.0964 0.0260501 0)
(10.1007 0.0241915 0)
(10.1046 0.0222607 0)
(10.1082 0.0203438 0)
(10.0004 0.00476694 0)
(10.0039 0.0136919 0)
(10.0101 0.0201368 0)
(10.0175 0.0244439 0)
(10.0253 0.0273869 0)
(10.0331 0.0291999 0)
(10.0408 0.0300483 0)
(10.0482 0.0301353 0)
(10.0552 0.0296652 0)
(10.0617 0.0287996 0)
(10.0678 0.0276601 0)
(10.0734 0.0263294 0)
(10.0787 0.0248734 0)
(10.0835 0.0233216 0)
(10.088 0.0217062 0)
(10.0922 0.0200279 0)
(10.096 0.0183194 0)
(10.0995 0.0166198 0)
(10.0003 0.00361222 0)
(10.0031 0.0105282 0)
(10.0081 0.0157444 0)
(10.0145 0.0193225 0)
(10.0213 0.0217871 0)
(10.0284 0.0233121 0)
(10.0354 0.0240451 0)
(10.0422 0.0241434 0)
(10.0487 0.0237589 0)
(10.0549 0.0230273 0)
(10.0606 0.022045 0)
(10.066 0.0208851 0)
(10.0711 0.0196039 0)
(10.0757 0.0182347 0)
(10.08 0.0168086 0)
(10.084 0.0153392 0)
(10.0877 0.0138488 0)
(10.0911 0.0123901 0)
(10.0002 0.00255334 0)
(10.0024 0.00755379 0)
(10.0066 0.0114227 0)
(10.012 0.0141196 0)
(10.0181 0.0159854 0)
(10.0244 0.0171231 0)
(10.0308 0.017652 0)
(10.037 0.0176815 0)
(10.0431 0.0173256 0)
(10.0489 0.0166838 0)
(10.0543 0.0158309 0)
(10.0594 0.0148302 0)
(10.0642 0.0137192 0)
(10.0687 0.0125426 0)
(10.0729 0.0113125 0)
(10.0767 0.0100632 0)
(10.0803 0.00879272 0)
(10.0836 0.00757048 0)
(10.0002 0.00155708 0)
(10.002 0.00471005 0)
(10.0055 0.00714276 0)
(10.0102 0.00881667 0)
(10.0156 0.00995403 0)
(10.0213 0.0106017 0)
(10.0271 0.0108266 0)
(10.0329 0.010708 0)
(10.0385 0.010316 0)
(10.044 0.00971806 0)
(10.0491 0.00896632 0)
(10.054 0.00810358 0)
(10.0586 0.00716321 0)
(10.0629 0.00617185 0)
(10.0669 0.00514933 0)
(10.0706 0.00411261 0)
(10.0741 0.00307285 0)
(10.0773 0.00207136 0)
(10.0002 0.000584241 0)
(10.0017 0.00189512 0)
(10.0048 0.00280437 0)
(10.009 0.00331995 0)
(10.014 0.00360905 0)
(10.0192 0.00364977 0)
(10.0246 0.00348069 0)
(10.0301 0.00313062 0)
(10.0354 0.00264049 0)
(10.0405 0.00203815 0)
(10.0455 0.00135491 0)
(10.0501 0.000611648 0)
(10.0545 -0.000171757 0)
(10.0587 -0.000979471 0)
(10.0626 -0.00180005 0)
(10.0662 -0.00262122 0)
(10.0695 -0.00343725 0)
(10.0727 -0.00421531 0)
(10.0002 -0.000364136 0)
(10.0016 -0.000883392 0)
(10.0046 -0.00153225 0)
(10.0087 -0.00221036 0)
(10.0134 -0.00283082 0)
(10.0185 -0.00343858 0)
(10.0237 -0.00405365 0)
(10.029 -0.00467285 0)
(10.0342 -0.00530205 0)
(10.0392 -0.00593669 0)
(10.044 -0.00657748 0)
(10.0485 -0.0072207 0)
(10.0528 -0.00786226 0)
(10.0569 -0.00850131 0)
(10.0607 -0.00913029 0)
(10.0643 -0.00975197 0)
(10.0676 -0.0103554 0)
(10.0707 -0.0109282 0)
(10.0002 -0.00126644 0)
(10.0017 -0.00354544 0)
(10.0048 -0.00567417 0)
(10.0091 -0.00747428 0)
(10.0139 -0.00893375 0)
(10.0191 -0.010143 0)
(10.0244 -0.0111632 0)
(10.0297 -0.0120305 0)
(10.035 -0.0127802 0)
(10.04 -0.0134425 0)
(10.0448 -0.0140396 0)
(10.0493 -0.0145886 0)
(10.0537 -0.0150995 0)
(10.0577 -0.0155827 0)
(10.0615 -0.0160412 0)
(10.065 -0.0164813 0)
(10.0683 -0.0169014 0)
(10.0714 -0.0172889 0)
(10.0002 -0.00216138 0)
(10.002 -0.006156 0)
(10.0055 -0.00966915 0)
(10.0102 -0.0124699 0)
(10.0154 -0.0146477 0)
(10.0209 -0.0163599 0)
(10.0265 -0.017702 0)
(10.032 -0.0187507 0)
(10.0374 -0.0195714 0)
(10.0425 -0.0202287 0)
(10.0474 -0.0207617 0)
(10.0521 -0.0212067 0)
(10.0564 -0.0215861 0)
(10.0605 -0.0219193 0)
(10.0643 -0.0222202 0)
(10.0679 -0.0224955 0)
(10.0713 -0.0227535 0)
(10.0744 -0.0229797 0)
(10.0002 -0.00311954 0)
(10.0025 -0.00888291 0)
(10.0066 -0.0137223 0)
(10.012 -0.0174009 0)
(10.0178 -0.0201769 0)
(10.0238 -0.0222852 0)
(10.0297 -0.0238623 0)
(10.0356 -0.0250149 0)
(10.0412 -0.0258537 0)
(10.0466 -0.0264597 0)
(10.0517 -0.0269015 0)
(10.0564 -0.0272219 0)
(10.0609 -0.0274598 0)
(10.065 -0.0276414 0)
(10.0689 -0.0277857 0)
(10.0725 -0.0279084 0)
(10.0759 -0.0280122 0)
(10.079 -0.0280979 0)
(10.0003 -0.00421126 0)
(10.0032 -0.0118644 0)
(10.0083 -0.0179645 0)
(10.0146 -0.022379 0)
(10.0211 -0.0256339 0)
(10.0277 -0.0280388 0)
(10.0342 -0.0297556 0)
(10.0404 -0.0309353 0)
(10.0464 -0.0317266 0)
(10.052 -0.0322426 0)
(10.0573 -0.0325587 0)
(10.0622 -0.0327338 0)
(10.0668 -0.0328146 0)
(10.071 -0.0328363 0)
(10.075 -0.0328247 0)
(10.0787 -0.0327947 0)
(10.0821 -0.032758 0)
(10.0852 -0.0327071 0)
(10.0005 -0.00551987 0)
(10.0043 -0.0152373 0)
(10.0107 -0.0224728 0)
(10.0182 -0.0274583 0)
(10.0255 -0.0310744 0)
(10.0328 -0.0336792 0)
(10.0399 -0.0354395 0)
(10.0466 -0.0365674 0)
(10.053 -0.037256 0)
(10.0589 -0.0376357 0)
(10.0644 -0.0377932 0)
(10.0695 -0.0377974 0)
(10.0742 -0.0377042 0)
(10.0785 -0.0375566 0)
(10.0825 -0.037385 0)
(10.0862 -0.0372071 0)
(10.0897 -0.0370354 0)
(10.0929 -0.0368636 0)
(10.0007 -0.00716122 0)
(10.0059 -0.0191314 0)
(10.0141 -0.0272986 0)
(10.0229 -0.0326499 0)
(10.0313 -0.0365188 0)
(10.0393 -0.0392299 0)
(10.047 -0.0409445 0)
(10.0543 -0.0419435 0)
(10.061 -0.0424697 0)
(10.0673 -0.0426717 0)
(10.073 -0.0426373 0)
(10.0783 -0.0424468 0)
(10.0831 -0.0421651 0)
(10.0876 -0.0418434 0)
(10.0917 -0.041515 0)
(10.0955 -0.0411981 0)
(10.099 -0.0408994 0)
(10.1022 -0.0406166 0)
(10.001 -0.00926995 0)
(10.0085 -0.0236902 0)
(10.019 -0.0325432 0)
(10.0293 -0.0380466 0)
(10.0387 -0.0420034 0)
(10.0476 -0.0446831 0)
(10.0561 -0.0462557 0)
(10.064 -0.0470701 0)
(10.0712 -0.0473997 0)
(10.0779 -0.0473959 0)
(10.0839 -0.0471489 0)
(10.0895 -0.0467456 0)
(10.0945 -0.0462608 0)
(10.0991 -0.0457523 0)
(10.1033 -0.045258 0)
(10.1072 -0.0447976 0)
(10.1108 -0.0443753 0)
(10.1141 -0.043975 0)
(10.0016 -0.0121356 0)
(10.0124 -0.0289875 0)
(10.0263 -0.0382057 0)
(10.0384 -0.0437509 0)
(10.0491 -0.0476258 0)
(10.0592 -0.0500794 0)
(10.0688 -0.051376 0)
(10.0776 -0.0519437 0)
(10.0856 -0.0520441 0)
(10.0929 -0.0518275 0)
(10.0994 -0.0513707 0)
(10.1054 -0.0507654 0)
(10.1107 -0.0500923 0)
(10.1156 -0.0494095 0)
(10.1199 -0.0487628 0)
(10.1239 -0.048167 0)
(10.1275 -0.0476291 0)
(10.1307 -0.0471202 0)
(10.0031 -0.0167311 0)
(10.0196 -0.0350731 0)
(10.0384 -0.0437206 0)
(10.0537 -0.0493109 0)
(10.0668 -0.0533638 0)
(10.0793 -0.0556858 0)
(10.091 -0.0566702 0)
(10.1015 -0.0568768 0)
(10.1109 -0.0566149 0)
(10.1192 -0.0560313 0)
(10.1265 -0.0552132 0)
(10.1329 -0.0542645 0)
(10.1385 -0.0532759 0)
(10.1432 -0.0523149 0)
(10.1473 -0.0514272 0)
(10.1507 -0.0506331 0)
(10.1536 -0.0499282 0)
(10.156 -0.0492557 0)
(10.0084 -0.0249336 0)
(10.0385 -0.043892 0)
(10.0685 -0.0496746 0)
(10.0916 -0.0544823 0)
(10.1116 -0.0588219 0)
(10.1299 -0.0615305 0)
(10.1458 -0.0627465 0)
(10.1589 -0.0630158 0)
(10.1693 -0.0626747 0)
(10.1773 -0.061858 0)
(10.183 -0.0607219 0)
(10.1868 -0.059382 0)
(10.1886 -0.0579455 0)
(10.1889 -0.0564935 0)
(10.1877 -0.0551028 0)
(10.1853 -0.0538567 0)
(10.182 -0.052787 0)
(10.178 -0.0519314 0)
(10.0389 -0.0345297 0)
(10.1249 -0.0625869 0)
(10.183 -0.0671533 0)
(10.217 -0.0680273 0)
(10.2369 -0.0686058 0)
(10.2449 -0.0681106 0)
(10.242 -0.0665719 0)
(10.2299 -0.0644926 0)
(10.2105 -0.062151 0)
(10.186 -0.0596585 0)
(10.1574 -0.0570473 0)
(10.1266 -0.0543798 0)
(10.0939 -0.051767 0)
(10.0603 -0.0492832 0)
(10.0261 -0.047003 0)
(9.99198 -0.0449831 0)
(9.95849 -0.0432623 0)
(9.92648 -0.0422637 0)
(9.89566 -0.0324304 0)
(9.67262 -0.065882 0)
(9.44186 -0.0754516 0)
(9.20583 -0.0775357 0)
(8.9827 -0.0755378 0)
(8.77868 -0.0710524 0)
(8.59409 -0.0654157 0)
(8.42802 -0.059258 0)
(8.28016 -0.0530515 0)
(8.14891 -0.0471168 0)
(8.03326 -0.0416191 0)
(7.93098 -0.0365652 0)
(7.84101 -0.0319302 0)
(7.7617 -0.0277451 0)
(7.69191 -0.0240373 0)
(7.63013 -0.0209143 0)
(7.57453 -0.0184429 0)
(7.52432 -0.0169598 0)
(-0.00292983 0.00779317 0)
(-0.0133503 0.0129002 0)
(-0.0276278 0.0138237 0)
(-0.0425074 0.0115181 0)
(-0.0532469 0.0053729 0)
(-0.0520514 -0.0045787 0)
(-0.0356105 -0.0179235 -8.03253e-19)
(-0.00751808 -0.0316891 9.17361e-19)
(0.0289142 -0.0418894 0)
(0.0706636 -0.0467942 5.25456e-19)
(0.114746 -0.0470676 0)
(0.15766 -0.043959 0)
(0.196624 -0.0385654 0)
(0.229961 -0.0317228 -2.56849e-19)
(0.256802 -0.0240003 0)
(0.276741 -0.0157644 0)
(0.289438 -0.0072127 2.22106e-19)
(0.295126 0.0017262 0)
(0.292631 0.0109513 0)
(0.282198 0.0199683 0)
(0.264478 0.0280086 -2.38402e-19)
(0.240138 0.0342613 0)
(0.210128 0.0379836 -2.82571e-19)
(0.175892 0.038545 0)
(0.139324 0.0355168 0)
(0.102753 0.0289139 -4.61674e-19)
(0.0687219 0.019479 0)
(0.039668 0.00898683 7.70537e-19)
(0.0173071 8.13162e-05 0)
(0.00199757 -0.00526555 -1.32281e-18)
(-0.00743092 -0.00775871 0)
(-0.0119933 -0.00951757 0)
(-0.0101727 -0.011799 0)
(-0.0020171 -0.0155795 0)
(0.0137291 -0.0212631 0)
(0.0372901 -0.0274716 7.93817e-19)
(0.0668484 -0.0316861 0)
(0.0979522 -0.0315562 -9.4978e-19)
(0.125399 -0.0268281 0)
(0.144992 -0.0190488 7.64394e-19)
(0.155191 -0.0108455 0)
(0.157312 -0.00437954 0)
(0.15425 -0.000928348 -7.57637e-19)
(0.150053 -0.00154345 0)
(0.147732 -0.00698059 -7.84951e-19)
(0.144888 -0.0163909 7.89102e-19)
(0.134529 -0.0239229 0)
(0.109095 -0.0191984 8.68759e-19)
(0.063665 0.000239994 1.02952e-18)
(-0.0152217 0.0191196 0)
(-0.115902 0.0396976 0)
(-0.225745 0.0633346 0)
(-0.348021 0.0853082 0)
(-0.479021 0.104847 0)
(-0.614602 0.11724 -1.77755e-19)
(-0.752525 0.120266 0)
(-0.888165 0.117466 1.41785e-19)
(-1.01827 0.110034 0)
(-1.14115 0.102519 0)
(-1.25537 0.0964733 -1.12006e-19)
(-1.36165 0.0862992 0)
(-1.45915 0.0772437 1.01246e-19)
(-1.54828 0.0712913 0)
(-1.63052 0.0646891 0)
(-1.70602 0.0588309 0)
(-1.77553 0.0536763 -8.77002e-20)
(-1.8398 0.0491423 0)
(-1.89944 0.0452023 0)
(-1.95503 0.0417515 -8.16816e-20)
(-2.00707 0.03874 0)
(-2.05597 0.0360856 -7.8605e-20)
(-2.10208 0.0337354 0)
(-2.1457 0.0316327 0)
(-2.18705 0.0297365 0)
(-2.22634 0.0280075 7.36635e-20)
(-2.26372 0.0264184 0)
(-2.29931 0.0249428 0)
(-2.33323 0.0235644 7.05677e-20)
(-2.36556 0.0222641 6.96067e-20)
(-2.39637 0.0210339 0)
(-2.42572 0.0198587 6.77606e-20)
(-2.45365 0.0187362 0)
(-2.4802 0.0176526 1.31978e-19)
(-2.50541 0.0166095 0)
(-2.52929 0.0155934 1.28534e-19)
(-2.55186 0.0146083 0)
(-2.57315 0.0136397 -1.25152e-19)
(-2.59316 0.0126923 0)
(-2.61191 0.011754 0)
(-2.62941 0.0108192 0)
(-2.64563 0.00988546 1.18472e-19)
(-2.66053 0.00894359 0)
(-2.67411 0.00798201 -1.15128e-19)
(-2.68634 0.0069919 0)
(-2.6972 0.0059617 1.11765e-19)
(-2.70664 0.0048886 1.10075e-19)
(-2.71461 0.00377349 1.08378e-19)
(-2.72106 0.00264677 0)
(-2.72591 0.00157041 0)
(-2.72908 0.000636219 0)
(-2.73065 -0.000126847 0)
(-2.73107 -0.000800767 0)
(-2.73024 -0.00145748 0)
(-2.72821 -0.00210129 0)
(-2.72497 -0.00274025 0)
(-2.72052 -0.00337342 -9.20936e-20)
(-2.71484 -0.00400179 -9.00984e-20)
(-2.70794 -0.0046248 0)
(-2.6998 -0.00524197 0)
(-2.69042 -0.00585356 0)
(-2.6798 -0.00645814 -8.16555e-20)
(-2.66793 -0.007057 0)
(-2.65481 -0.00764772 0)
(-2.64045 -0.00823276 0)
(-2.62483 -0.0088087 0)
(-2.60796 -0.00937934 6.99222e-20)
(-2.58984 -0.00994013 0)
(-2.57048 -0.0104963 0)
(-2.54988 -0.011042 -6.21562e-20)
(-2.52805 -0.0115838 5.94323e-20)
(-2.50498 -0.0121147 0)
(-2.48068 -0.0126424 5.37659e-20)
(-2.45516 -0.0131587 0)
(-2.42844 -0.0136723 -4.77873e-20)
(-2.40051 -0.0141743 0)
(-2.37138 -0.0146738 0)
(-2.34108 -0.0151612 0)
(-2.30962 -0.0156406 0)
(-2.27701 -0.0161073 0)
(-2.24326 -0.0165664 5.53712e-20)
(-2.20841 -0.0170067 4.79495e-20)
(-2.17246 -0.0174226 0)
(-2.13548 -0.0177684 0)
(-2.09751 -0.0180007 0)
(-2.05864 -0.0180343 -1.58587e-20)
(-2.01891 -0.0178388 0)
(-1.97829 -0.0178564 0)
(-1.9367 -0.0182021 0)
(-1.89418 -0.0185236 2.06825e-20)
(-1.8508 -0.0188244 -3.06497e-20)
(-1.80662 -0.0191117 0)
(-1.76167 -0.0193879 0)
(-1.71599 -0.0196573 -6.28484e-20)
(-1.66962 -0.0199159 -7.44098e-20)
(-1.6226 -0.0201612 0)
(-1.57496 -0.0203994 0)
(-1.52677 -0.020625 1.11904e-19)
(-1.47804 -0.0208385 -1.25404e-19)
(-1.42883 -0.0210311 0)
(-1.37911 -0.0212083 0)
(-1.32898 -0.0213601 -1.69468e-19)
(-1.27841 -0.0215004 0)
(-1.22751 -0.0216193 0)
(-1.17628 -0.0217247 -2.19606e-19)
(-1.12476 -0.0218266 0)
(-1.07301 -0.0219099 -2.5706e-19)
(-1.02103 -0.0219923 0)
(-0.968857 -0.0220723 0)
(-0.916499 -0.0221539 0)
(-0.86397 -0.0222409 3.44018e-19)
(-0.811271 -0.0223356 0)
(-0.758404 -0.0224397 0)
(-0.705366 -0.0225545 0)
(-0.652157 -0.0226816 0)
(-0.598776 -0.0228229 0)
(-0.545217 -0.0229825 0)
(-0.491473 -0.0231635 5.54054e-19)
(-0.43753 -0.023371 5.9308e-19)
(-0.383369 -0.0236071 0)
(-0.328974 -0.0238746 0)
(-0.274329 -0.0241729 0)
(-0.219432 -0.024519 -7.8577e-19)
(-0.164309 -0.0249069 0)
(-0.10904 -0.0252914 1.82622e-18)
(-0.0538175 -0.0255795 -1.97567e-18)
(0.000923238 -0.0253953 -2.07758e-18)
(0.0551956 -0.0243075 2.05347e-18)
(0.105378 -0.022211 -1.97804e-18)
(0.16064 -0.0196446 1.9233e-18)
(0.174674 -0.00782399 0)
(-0.000401309 0.0210156 0)
(-0.00612388 0.0371248 0)
(-0.0131091 0.0379559 2.1358e-18)
(-0.0136074 0.0280732 0)
(0.000926201 0.00526337 -2.233e-18)
(0.0314424 -0.0329919 -1.41971e-18)
(0.0714187 -0.0753291 -4.46192e-19)
(0.116806 -0.109672 -3.18372e-19)
(0.163647 -0.130538 0)
(0.208478 -0.137723 -2.08401e-19)
(0.249114 -0.133983 0)
(0.284624 -0.122793 0)
(0.314704 -0.107083 3.11089e-19)
(0.339374 -0.0889585 1.48227e-19)
(0.358865 -0.0697727 -2.89103e-19)
(0.373502 -0.0503006 -2.85861e-19)
(0.383672 -0.0309184 -1.4299e-19)
(0.38956 -0.0117647 0)
(0.392174 0.00718071 0)
(0.391421 0.0257406 0)
(0.386903 0.0435542 -1.51385e-19)
(0.378115 0.0600616 0)
(0.364483 0.0744978 4.85139e-19)
(0.345531 0.085853 0)
(0.321059 0.0929759 0)
(0.291328 0.0947687 1.97091e-19)
(0.25728 0.0905036 0)
(0.22062 0.0802787 -2.50293e-19)
(0.183752 0.0651983 -5.86683e-19)
(0.14964 0.0470874 3.51069e-19)
(0.121446 0.0275611 0)
(0.102471 0.00743669 0)
(0.0940405 -0.013309 0)
(0.0976184 -0.0337944 -9.93188e-19)
(0.111329 -0.0541572 -8.31755e-19)
(0.131276 -0.0712915 -3.43616e-19)
(0.151188 -0.0777997 0)
(0.165346 -0.0709823 5.02873e-19)
(0.171461 -0.0542905 0)
(0.169257 -0.0333188 -4.96241e-19)
(0.159564 -0.0150327 0)
(0.143258 -0.00312545 0)
(0.119619 0.00396923 6.36517e-19)
(0.0821592 0.0107552 0)
(0.020051 0.0251248 2.41803e-18)
(-0.078954 0.0587454 -5.91473e-19)
(-0.20318 0.10342 0)
(-0.338033 0.149454 -2.56286e-19)
(-0.479288 0.192879 -1.91821e-19)
(-0.626169 0.228893 0)
(-0.773687 0.256103 0)
(-0.918885 0.274377 0)
(-1.05957 0.28338 0)
(-1.19158 0.284082 0)
(-1.31244 0.278144 8.19495e-20)
(-1.42173 0.266439 1.54778e-19)
(-1.51921 0.250595 -7.31349e-20)
(-1.60544 0.232557 0)
(-1.68135 0.213654 1.35616e-19)
(-1.74854 0.195069 -6.58832e-20)
(-1.80884 0.177292 0)
(-1.86289 0.160787 -6.2077e-20)
(-1.91213 0.146081 0)
(-1.9572 0.132948 0)
(-1.99896 0.121409 -1.17061e-19)
(-2.03801 0.111335 5.74494e-20)
(-2.07475 0.102552 -1.13111e-19)
(-2.1095 0.0948876 1.11341e-19)
(-2.1425 0.0881742 5.48406e-20)
(-2.17394 0.0822547 0)
(-2.20395 0.0769974 5.33182e-20)
(-2.23263 0.0722827 0)
(-2.26006 0.0680166 0)
(-2.28629 0.0641169 0)
(-2.31138 0.0605195 5.04942e-20)
(-2.33535 0.0571713 0)
(-2.35823 0.0540291 9.85176e-20)
(-2.38006 0.0510614 -1.45951e-19)
(-2.40083 0.0482381 -4.80629e-20)
(-2.42058 0.0455425 0)
(-2.43931 0.0429521 -4.68488e-20)
(-2.45703 0.0404597 0)
(-2.47375 0.0380461 -9.12952e-20)
(-2.48946 0.0357095 0)
(-2.50418 0.0334312 -8.89e-20)
(-2.51789 0.0312129 1.75296e-19)
(-2.53059 0.0290366 8.64971e-20)
(-2.5423 0.0269059 0)
(-2.55302 0.0248081 0)
(-2.56275 0.0227408 0)
(-2.57147 0.0207025 -8.16309e-20)
(-2.57915 0.0186879 0)
(-2.5858 0.0166881 7.91461e-20)
(-2.59144 0.0146953 0)
(-2.59608 0.0126994 -2.2988e-19)
(-2.59974 0.0106938 -7.53423e-20)
(-2.60246 0.00866704 -7.40543e-20)
(-2.6043 0.00662453 0)
(-2.60534 0.00459965 0)
(-2.6057 0.00267107 0)
(-2.60532 0.00088808 0)
(-2.60381 -0.000800669 0)
(-2.60118 -0.00245603 -1.31934e-19)
(-2.59738 -0.00408438 -1.29067e-19)
(-2.59239 -0.00569533 0)
(-2.58622 -0.00728785 6.1501e-20)
(-2.57884 -0.00886311 5.99884e-20)
(-2.57025 -0.0104194 0)
(-2.56045 -0.011956 1.14026e-19)
(-2.54942 -0.0134718 0)
(-2.53717 -0.014965 -5.39686e-20)
(-2.52369 -0.0164354 0)
(-2.50898 -0.0178803 0)
(-2.49303 -0.0193004 9.76603e-20)
(-2.47585 -0.0206924 0)
(-2.45745 -0.0220583 -4.51625e-20)
(-2.43781 -0.0233938 0)
(-2.41694 -0.0247026 0)
(-2.39486 -0.0259791 -4.01169e-20)
(-2.37155 -0.0272285 -3.77911e-20)
(-2.34703 -0.0284436 0)
(-2.3213 -0.0296309 3.43902e-20)
(-2.29438 -0.0307817 0)
(-2.26626 -0.0319032 -3.03941e-20)
(-2.23696 -0.0329853 -5.61394e-20)
(-2.20648 -0.0340357 0)
(-2.17486 -0.0350434 0)
(-2.14208 -0.0360173 0)
(-2.10818 -0.0369478 0)
(-2.07317 -0.0378432 -3.36569e-20)
(-2.03707 -0.0386923 -8.83142e-20)
(-1.99992 -0.0394992 0)
(-1.96174 -0.0402619 0)
(-1.92255 -0.0410016 0)
(-1.88235 -0.0417294 9.46263e-21)
(-1.84115 -0.0424454 0)
(-1.79896 -0.0431279 0)
(-1.75588 -0.0437388 1.10317e-20)
(-1.71195 -0.0442643 1.01981e-20)
(-1.66718 -0.0447272 1.72726e-20)
(-1.62161 -0.0451391 0)
(-1.57529 -0.0455068 0)
(-1.52824 -0.0458346 3.46461e-20)
(-1.48051 -0.046127 -3.90197e-20)
(-1.43214 -0.0463785 0)
(-1.38317 -0.0465994 0)
(-1.33365 -0.0467859 -5.94561e-20)
(-1.2836 -0.0469404 1.96097e-19)
(-1.23307 -0.0470505 0)
(-1.18206 -0.0471202 0)
(-1.13063 -0.047138 8.62059e-20)
(-1.07878 -0.0471183 0)
(-1.02659 -0.0470585 1.9887e-19)
(-0.974063 -0.046955 -1.05786e-19)
(-0.921253 -0.0468282 0)
(-0.868196 -0.0466703 1.2253e-19)
(-0.814902 -0.0464899 2.58537e-19)
(-0.761408 -0.0462981 0)
(-0.707721 -0.0460971 0)
(-0.653853 -0.0458954 -1.54014e-19)
(-0.599806 -0.0456967 0)
(-0.545579 -0.0455037 3.39357e-19)
(-0.491168 -0.0453174 0)
(-0.436568 -0.0451381 0)
(-0.381776 -0.0449676 0)
(-0.326785 -0.0448089 0)
(-0.271583 -0.044667 -2.14881e-19)
(-0.216156 -0.0445455 -2.2426e-19)
(-0.160484 -0.0444486 0)
(-0.104547 -0.0443754 0)
(-0.0483309 -0.0443172 0)
(0.00815604 -0.0442498 2.60869e-19)
(0.0648964 -0.0441412 0)
(0.121842 -0.0439521 -5.27777e-19)
(0.178906 -0.0436026 5.2876e-19)
(0.235807 -0.0428676 5.2979e-19)
(0.292445 -0.0413988 5.27918e-19)
(0.346474 -0.0388984 5.33471e-19)
(0.403002 -0.0344788 5.35504e-19)
(0.437639 -0.0212453 0)
(0.000210262 0.0238216 0)
(0.000628447 0.0415764 0)
(0.00645007 0.0335867 -2.31129e-18)
(0.0272755 -0.00166727 -1.60643e-18)
(0.0679404 -0.0633624 9.5018e-19)
(0.120285 -0.130519 6.1723e-19)
(0.173763 -0.183216 -3.85987e-22)
(0.221464 -0.213061 0)
(0.260815 -0.221152 0)
(0.29189 -0.212874 0)
(0.315957 -0.194123 0)
(0.334494 -0.169659 0)
(0.348729 -0.142697 -7.08353e-19)
(0.359524 -0.115137 0)
(0.367447 -0.0879892 2.26118e-19)
(0.37287 -0.0617261 2.25621e-19)
(0.37606 -0.0365268 0)
(0.377216 -0.0124609 0)
(0.376592 0.0105051 0)
(0.374516 0.0325458 0)
(0.371257 0.0538008 2.40488e-19)
(0.36699 0.0741932 0)
(0.361627 0.0933316 -2.57978e-19)
(0.354766 0.110436 0)
(0.345704 0.124346 0)
(0.333581 0.133609 0)
(0.317617 0.136712 -6.47938e-19)
(0.297528 0.132454 0)
(0.273922 0.120367 3.8599e-19)
(0.248493 0.100877 -8.62707e-19)
(0.223865 0.0751744 0)
(0.203041 0.0447266 0)
(0.188441 0.0112509 0)
(0.180231 -0.0242793 6.20474e-19)
(0.176596 -0.0578008 5.41358e-19)
(0.170492 -0.078198 0)
(0.155764 -0.0769633 0)
(0.132741 -0.0582208 -7.53406e-19)
(0.102175 -0.0297041 -7.80297e-19)
(0.0643224 0.00414569 8.79073e-19)
(0.0162013 0.0382212 0)
(-0.0537685 0.070611 0)
(-0.149126 0.111351 0)
(-0.264328 0.162652 0)
(-0.395874 0.218927 -3.8547e-19)
(-0.537498 0.27584 -3.06429e-19)
(-0.681425 0.328933 2.52168e-19)
(-0.82197 0.373642 0)
(-0.955041 0.408656 0)
(-1.0769 0.432816 0)
(-1.1859 0.4454 0)
(-1.28146 0.446857 -1.41574e-19)
(-1.3636 0.438212 0)
(-1.43345 0.421228 0)
(-1.49293 0.398085 -1.18242e-19)
(-1.54439 0.370897 -1.11898e-19)
(-1.58987 0.341646 0)
(-1.63127 0.312172 2.09728e-19)
(-1.6699 0.283907 -1.00783e-19)
(-1.70656 0.257728 9.79167e-20)
(-1.7419 0.233851 0)
(-1.77632 0.212563 0)
(-1.8099 0.193971 0)
(-1.84263 0.177706 0)
(-1.87456 0.163521 8.74656e-20)
(-1.90569 0.151148 1.71793e-19)
(-1.93601 0.140322 8.42878e-20)
(-1.96547 0.1308 -8.28401e-20)
(-1.99407 0.122361 0)
(-2.02178 0.114817 1.60235e-19)
(-2.04859 0.10801 1.57695e-19)
(-2.0745 0.101806 1.55255e-19)
(-2.0995 0.0961005 -1.529e-19)
(-2.12359 0.090803 0)
(-2.14676 0.0858434 -2.22667e-19)
(-2.16902 0.0811652 0)
(-2.19035 0.0767226 7.19833e-20)
(-2.21077 0.0724806 7.10798e-20)
(-2.23028 0.0684091 0)
(-2.24886 0.0644871 0)
(-2.26654 0.0606942 1.35934e-19)
(-2.28329 0.0570177 0)
(-2.29913 0.0534424 1.3197e-19)
(-2.31405 0.0499602 0)
(-2.32805 0.0465575 -1.28047e-19)
(-2.34112 0.0432286 -2.52272e-19)
(-2.35326 0.0399611 0)
(-2.36448 0.0367506 0)
(-2.37478 0.0335885 0)
(-2.38416 0.0304702 -1.18289e-19)
(-2.39259 0.0273944 0)
(-2.40007 0.0243571 -1.14367e-19)
(-2.40659 0.0213552 0)
(-2.41216 0.018385 0)
(-2.41678 0.0154484 2.16866e-19)
(-2.42047 0.0125492 0)
(-2.42324 0.00969736 1.04447e-19)
(-2.42507 0.00690363 0)
(-2.42596 0.00417528 1.00383e-19)
(-2.42586 0.0014952 0)
(-2.42471 -0.00117425 0)
(-2.42247 -0.00384109 0)
(-2.41911 -0.00648735 2.75394e-19)
(-2.41462 -0.00910898 8.95198e-20)
(-2.40899 -0.0117051 0)
(-2.40221 -0.0142736 0)
(-2.39425 -0.0168135 0)
(-2.38512 -0.0193224 0)
(-2.37481 -0.021799 -7.81267e-20)
(-2.36331 -0.0242405 1.51948e-19)
(-2.35061 -0.0266457 7.33798e-20)
(-2.33672 -0.0290116 -1.42393e-19)
(-2.32163 -0.0313371 -1.37527e-19)
(-2.30534 -0.0336193 -6.60415e-20)
(-2.28785 -0.0358574 0)
(-2.26915 -0.0380491 -1.22568e-19)
(-2.24926 -0.0401942 0)
(-2.22816 -0.0422909 1.12287e-19)
(-2.20588 -0.0443389 5.32036e-20)
(-2.1824 -0.0463368 0)
(-2.15774 -0.0482837 -9.63876e-20)
(-2.13189 -0.0501784 -4.51192e-20)
(-2.10487 -0.0520193 0)
(-2.07669 -0.0538052 -4.03306e-20)
(-2.04735 -0.0555335 1.10996e-19)
(-2.01686 -0.057203 0)
(-1.98524 -0.0588106 0)
(-1.9525 -0.0603552 0)
(-1.91865 -0.0618327 0)
(-1.88371 -0.0632423 4.50129e-20)
(-1.8477 -0.0645797 3.80071e-20)
(-1.81065 -0.0658422 0)
(-1.77259 -0.0670236 0)
(-1.73353 -0.0681303 0)
(-1.6935 -0.0691659 0)
(-1.65249 -0.0701381 0)
(-1.61056 -0.0710592 0)
(-1.56777 -0.0719156 -6.87823e-21)
(-1.52414 -0.0726788 -1.09978e-21)
(-1.4797 -0.0733531 0)
(-1.43448 -0.0739458 0)
(-1.38852 -0.074465 -3.30842e-20)
(-1.34185 -0.0749134 0)
(-1.29452 -0.0752976 4.83581e-20)
(-1.24656 -0.0756146 5.43471e-20)
(-1.19802 -0.0758723 0)
(-1.14894 -0.0760711 0)
(-1.09935 -0.076209 -7.74315e-20)
(-1.04929 -0.0762804 -1.67286e-19)
(-0.998774 -0.0762809 0)
(-0.947829 -0.0762103 0)
(-0.896496 -0.0760717 0)
(-0.844809 -0.0758736 -1.15136e-19)
(-0.7928 -0.0756074 1.22831e-19)
(-0.74051 -0.0752936 0)
(-0.687963 -0.0749334 2.74201e-19)
(-0.635185 -0.0745342 1.43664e-19)
(-0.582198 -0.0741111 -3.05527e-19)
(-0.529016 -0.0736706 0)
(-0.475647 -0.073223 0)
(-0.422092 -0.0727756 -3.5295e-19)
(-0.36835 -0.0723317 -1.85663e-19)
(-0.314414 -0.0718932 0)
(-0.26028 -0.0714596 0)
(-0.205941 -0.0710335 0)
(-0.151389 -0.0706178 0)
(-0.0966097 -0.070219 -4.48799e-19)
(-0.0415877 -0.0698417 0)
(0.0136959 -0.0694899 0)
(0.0692618 -0.0691602 0)
(0.125132 -0.0688408 0)
(0.181315 -0.0685014 0)
(0.237799 -0.068102 0)
(0.294537 -0.0675873 -5.11993e-19)
(0.351455 -0.0668566 0)
(0.408336 -0.0657242 0)
(0.465159 -0.0638676 -1.0604e-18)
(0.520339 -0.0607597 5.35517e-19)
(0.577769 -0.0553401 -5.46256e-19)
(0.622639 -0.0420186 5.57802e-19)
(-0.00127556 0.0239666 0)
(0.00196189 0.0279069 4.99136e-18)
(0.0244655 -0.0161856 0)
(0.0735766 -0.102059 8.45827e-19)
(0.135515 -0.191405 0)
(0.193725 -0.255612 0)
(0.23901 -0.286359 -3.19099e-19)
(0.270261 -0.288972 0)
(0.290396 -0.273124 0)
(0.303113 -0.247263 0)
(0.311334 -0.216905 0)
(0.316891 -0.185098 0)
(0.320766 -0.153356 7.99531e-19)
(0.323403 -0.122375 3.93334e-19)
(0.324958 -0.0924573 -3.90911e-19)
(0.32547 -0.0637366 0)
(0.324945 -0.03627 0)
(0.3234 -0.0100972 0)
(0.320887 0.014774 0)
(0.317499 0.0383742 0)
(0.313386 0.0607447 4.23651e-19)
(0.308772 0.08189 4.35276e-19)
(0.303868 0.101711 -4.51538e-19)
(0.298785 0.119877 4.73715e-19)
(0.293415 0.135718 0)
(0.287407 0.148161 0)
(0.280148 0.155717 5.75261e-19)
(0.27089 0.156654 0)
(0.25905 0.149388 0)
(0.244514 0.132846 7.44989e-19)
(0.227982 0.106904 8.33254e-19)
(0.210655 0.0727212 9.44667e-19)
(0.193799 0.0326503 0)
(0.175972 -0.00814947 0)
(0.149877 -0.0364484 -9.3069e-19)
(0.111333 -0.0398236 0)
(0.0622876 -0.0201244 0)
(0.00303858 0.015645 7.51153e-19)
(-0.0699831 0.062349 -6.59154e-19)
(-0.159144 0.11852 5.28443e-19)
(-0.263289 0.181263 0)
(-0.38147 0.245971 0)
(-0.509438 0.311185 5.68657e-19)
(-0.641358 0.37539 0)
(-0.771649 0.434456 4.09194e-19)
(-0.894991 0.48333 5.39376e-19)
(-1.00669 0.520161 -4.81561e-19)
(-1.10474 0.544869 2.91752e-19)
(-1.18838 0.557405 0)
(-1.25759 0.558542 0)
(-1.31396 0.549486 2.32374e-19)
(-1.35947 0.531801 1.08384e-19)
(-1.39655 0.507405 0)
(-1.42777 0.478412 0)
(-1.45542 0.446835 9.32272e-20)
(-1.48127 0.414265 1.80499e-19)
(-1.50663 0.382009 0)
(-1.53231 0.35114 -1.66589e-19)
(-1.5587 0.322362 1.62421e-19)
(-1.58584 0.296003 -1.57603e-19)
(-1.61365 0.27215 0)
(-1.64198 0.2508 0)
(-1.67058 0.231854 0)
(-1.69921 0.215052 0)
(-1.7277 0.200149 0)
(-1.75588 0.186906 -1.36514e-19)
(-1.78362 0.175089 0)
(-1.81083 0.164483 0)
(-1.83742 0.154897 0)
(-1.86332 0.146162 -2.53963e-19)