/*--------------------------------*- C++ -*----------------------------------*\
  =========                 |
  \\      /  F ield         | OpenFOAM: The Open Source CFD Toolbox
   \\    /   O peration     | Website:  https://openfoam.org
    \\  /    A nd           | Version:  8
     \\/     M anipulation  |
\*---------------------------------------------------------------------------*/
FoamFile
{
    version     2.0;
    format      ascii;
    class       volVectorField;
    location    "1600";
    object      wallShearStress;
}
// * * * * * * * * * * * * * * * * * * * * * * * * * * * * * * * * * * * * * //

dimensions      [0 2 -2 0 0 0 0];

internalField   uniform (0 0 0);

boundaryField
{
    inlet
    {
        type            calculated;
        value           uniform (0 0 0);
    }
    outlet
    {
        type            calculated;
        value           uniform (0 0 0);
    }
    upperWall
    {
        type            calculated;
        value           nonuniform List<vector> 
223
(
(-0.46771 0.0030092 0)
(-0.498488 0.00566875 0)
(-0.512434 0.00674943 0)
(-0.513017 0.00711733 0)
(-0.507062 0.00701648 0)
(-0.496102 0.00661673 0)
(-0.484604 0.00610274 0)
(-0.472762 0.00553078 0)
(-0.460956 0.00494766 0)
(-0.449924 0.00439133 0)
(-0.439843 0.00387964 0)
(-0.430735 0.00341455 0)
(-0.422544 0.00299199 0)
(-0.415232 0.0026145 0)
(-0.408747 0.00228327 0)
(-0.402988 0.00200868 0)
(-0.397838 0.00179192 0)
(-0.393238 0.00167233 0)
(-0.389537 0.00162181 0)
(-0.386606 0.0015959 5.735e-22)
(-0.383742 0.00154509 0)
(-0.380958 0.00147993 0)
(-0.378252 0.00140709 0)
(-0.375626 0.00132997 5.84952e-22)
(-0.373086 0.00125212 0)
(-0.370627 0.00117455 0)
(-0.368258 0.00110006 0)
(-0.365964 0.00102899 -1.19111e-21)
(-0.363752 0.000962348 1.19621e-21)
(-0.361608 0.000900315 1.20125e-21)
(-0.359532 0.000843083 0)
(-0.357516 0.000790211 -1.21113e-21)
(-0.355558 0.000742669 0)
(-0.35365 0.000699383 1.22091e-21)
(-0.351791 0.000659245 1.22575e-21)
(-0.349981 0.000621689 -1.23058e-21)
(-0.348217 0.000587389 0)
(-0.346495 0.000556045 0)
(-0.344817 0.000526297 0)
(-0.343183 0.000497671 0)
(-0.341595 0.000470134 -1.25525e-21)
(-0.340051 0.000444094 0)
(-0.33855 0.000419482 0)
(-0.33709 0.000395087 1.27007e-21)
(-0.335677 0.000371187 0)
(-0.334313 0.000350347 1.27997e-21)
(-0.332984 0.000333196 -1.285e-21)
(-0.331688 0.000317148 1.29008e-21)
(-0.330424 0.000299988 0)
(-0.329203 0.000281199 0)
(-0.328026 0.000262117 0)
(-0.326898 0.000243587 1.31052e-21)
(-0.325817 0.000226271 -1.31569e-21)
(-0.324784 0.000210299 0)
(-0.323793 0.00019615 0)
(-0.322844 0.000183883 0)
(-0.321929 0.000173734 0)
(-0.321046 0.000165455 0)
(-0.32019 0.000159069 0)
(-0.31936 0.000154427 0)
(-0.31855 0.0001513 0)
(-0.317759 0.000149684 1.36261e-21)
(-0.316981 0.000149377 -1.36787e-21)
(-0.31622 0.000150229 0)
(-0.315462 0.000152031 0)
(-0.314723 0.000154568 0)
(-0.313975 0.00015799 -1.38912e-21)
(-0.313253 0.000161979 0)
(-0.312507 0.000166746 0)
(-0.311789 0.000172355 0)
(-0.311049 0.000178069 0)
(-0.310315 0.000186555 0)
(-0.309548 0.000193676 -2.84253e-21)
(-0.308881 0.000134454 0)
(-0.30795 0.000179301 0)
(-0.30804 0.000357627 0)
(-0.308242 0.000449557 0)
(-0.30609 0.000573054 0)
(-0.305192 0.000617112 0)
(-0.304866 0.000539073 0)
(-0.304581 0.000359266 2.96766e-21)
(-0.304393 0.000259414 0)
(-0.304141 0.000285148 0)
(-0.303893 0.000270444 0)
(-0.304681 0.000294978 -3.0388e-21)
(-0.303401 0.000237492 0)
(-0.303209 0.0001607 -3.03981e-21)
(-0.303091 -2.06633e-05 0)
(-0.335342 0.000118076 0)
(-0.327367 0.00100731 0)
(-0.303634 0.000988477 -3.01999e-21)
(-0.315581 0.000280034 0)
(-0.303102 0.000381795 3.0494e-21)
(-0.302144 0.000332299 3.03468e-21)
(-0.301645 0.000260246 0)
(-0.301277 0.000521737 3.05509e-21)
(-0.300944 0.000537251 0)
(-0.300518 0.00045405 0)
(-0.308941 0.000126144 0)
(-0.300065 -3.99721e-05 -3.11788e-21)
(-0.359371 0.000411687 0)
(-0.33469 0.000596611 -3.46925e-21)
(-0.322865 0.000443147 3.36021e-21)
(-0.298495 0.000194894 0)
(-0.338135 0.000424036 0)
(-0.318457 0.000673534 0)
(-0.320759 0.000291103 0)
(-0.296804 4.34902e-05 0)
(-0.356818 0.000220346 0)
(-0.3283 0.00042817 0)
(-0.354902 0.000800721 -3.72249e-21)
(-0.325462 0.000660005 0)
(-0.330006 0.000212054 0)
(-0.351599 0.000151706 0)
(-0.374603 0.00103433 0)
(-0.335206 0.00120416 0)
(-0.320071 0.000557169 0)
(-0.291206 0.000160811 0)
(-0.330896 0.0003291 0)
(-0.303965 0.000586244 0)
(-0.28894 0.000236753 0)
(-0.319375 0.000218564 0)
(-0.317494 0.000243848 0)
(-0.345201 0.000950506 -6.66523e-21)
(-0.307782 0.00106834 0)
(-0.284035 0.000452242 0)
(-0.330897 0.000964459 0)
(-0.306333 0.00124784 5.50189e-21)
(-0.281161 0.0011246 0)
(-0.27989 0.000819539 0)
(-0.278887 0.000195933 4.73946e-21)
(-0.287306 -2.40298e-05 0)
(-0.317896 0.000603736 -5.24304e-21)
(-0.286541 0.00111453 0)
(-0.273722 0.000977978 0)
(-0.272354 0.000548991 0)
(-0.285534 0.00084826 4.17397e-21)
(-0.270015 0.000893513 0)
(-0.295756 0.000978033 -3.98615e-21)
(-0.267482 0.000809745 0)
(-0.295026 0.000825933 0)
(-0.264752 0.000697034 0)
(-0.289953 0.00068726 0)
(-0.261731 0.000682891 0)
(-0.282697 -2.09734e-05 0)
(-0.285834 0.000557473 0)
(-0.256482 0.000669267 0)
(-0.267012 0.000735126 0)
(-0.252931 0.000735964 0)
(-0.256782 0.000688087 0)
(-0.249358 0.000639512 -9.02944e-22)
(-0.247354 0.00109867 6.18722e-22)
(-0.245796 0.0020992 0)
(-0.244087 0.00194216 0)
(-0.242129 0.00158017 0)
(-0.240433 0.000552379 0)
(-0.238131 0.000224915 -9.56139e-22)
(-0.25508 0.00020699 1.41767e-21)
(-0.257149 0.000704369 -1.8517e-21)
(-0.232722 0.000408168 0)
(-0.230212 -0.000837689 -2.53417e-21)
(-0.226998 -0.000466108 -5.98629e-21)
(-0.223682 -0.000340587 0)
(-0.218988 0.00119335 -7.83631e-21)
(-0.218525 0.00161072 8.22598e-21)
(-0.216523 -0.000164748 0)
(-0.214311 -0.000451999 0)
(-0.212159 -0.000105709 0)
(-0.209362 0.000144541 0)
(-0.206097 0.000395295 0)
(-0.20288 0.00108515 -1.48965e-20)
(-0.201908 0.000816278 0)
(-0.199844 0.0007251 -1.68049e-20)
(-0.199396 0.0025456 0)
(-0.201192 0.00136183 0)
(-0.198431 -0.00103182 0)
(-0.194468 0.000538752 0)
(-0.1939 0.00240356 0)
(-0.197119 0.00150194 2.3255e-20)
(-0.190459 0.000187708 0)
(-0.186443 6.80752e-05 0)
(-0.181846 -0.000205333 -2.93862e-20)
(-0.176088 -0.000255792 0)
(-0.17228 0.000497896 0)
(-0.171466 0.00147233 0)
(-0.172303 0.00177132 3.50562e-20)
(-0.17346 0.00165778 0)
(-0.173482 0.00130599 0)
(-0.171619 0.000954327 0)
(-0.167247 0.000659968 0)
(-0.159537 0.000445903 -4.63387e-20)
(-0.147504 0.000743351 0)
(-0.13213 0.00131064 0)
(-0.114895 0.00184748 0)
(-0.0985306 0.00211434 8.40141e-20)
(-0.0819613 0.00201738 0)
(-0.0723809 0.00231178 0)
(-0.0400683 0.00168873 -1.35492e-19)
(-0.0729577 0.000742464 0)
(-0.108838 0.00622678 1.16579e-17)
(-0.133502 0.0108266 2.07859e-17)
(-0.146616 0.0135637 1.94726e-17)
(-0.154351 0.0150942 1.86845e-17)
(-0.160093 0.016027 1.80651e-17)
(-0.164549 0.0166836 -1.7547e-17)
(-0.167633 0.0171367 -1.70762e-17)
(-0.169889 0.0174385 -6.01853e-36)
(-0.171884 0.0176655 -3.26585e-17)
(-0.17374 0.0178533 -1.59897e-17)
(-0.175635 0.0180216 9.32872e-34)
(-0.177841 0.0181988 0)
(-0.180531 0.0184165 -2.95812e-17)
(-0.183891 0.0186905 -2.85175e-17)
(-0.187894 0.0190338 -2.7267e-17)
(-0.192712 0.0194484 -4.81482e-35)
(-0.19822 0.0199386 4.82643e-17)
(-0.20472 0.0205129 2.21946e-17)
(-0.211825 0.0211598 1.20371e-35)
(-0.220594 0.0219401 -3.47592e-17)
(-0.228722 0.0227126 -1.23542e-20)
(-0.242637 0.0238884 3.00927e-36)
(-0.246437 0.0245972 1.30829e-17)
(-0.273058 0.0261691 -7.25701e-18)
)
;
    }
    lowerWall
    {
        type            calculated;
        value           nonuniform List<vector> 
250
(
(-0.623425 -0.00717793 0)
(-0.596611 -0.00919753 0)
(-0.571136 -0.00904281 0)
(-0.547146 -0.00844441 0)
(-0.571449 -0.00830157 0)
(-0.669357 -0.00919037 0)
(-0.575543 -0.00637191 0)
(-0.572164 -0.00616515 0)
(-0.504635 -0.00520588 0)
(-0.456493 -0.00274604 0)
(-0.543418 -0.00301829 0)
(-0.482322 -0.00247234 0)
(-0.46193 -0.00129154 0)
(-0.435632 -0.000315487 0)
(-0.474312 -0.000208583 0)
(-0.451071 -0.0012248 0)
(-0.428327 -0.000765053 0)
(-0.427475 -0.000223011 0)
(0.00222372 0.000104743 0)
(0.00246936 -0.0027767 0)
(0.00272964 -0.00575388 0)
(0.00304992 -0.00887606 1.10069e-19)
(0.00342587 -0.0119457 -9.25444e-20)
(0.00382536 -0.0157809 7.99889e-20)
(0.00360931 -0.0156819 -7.21643e-20)
(0.0100114 -0.0361634 0)
(-0.047796 -0.108188 0)
(0.000232624 -0.000280302 0)
(6.74076e-05 -0.000809377 0)
(-1.93097e-06 -0.00089788 0)
(6.12496e-05 -0.000898679 0)
(3.63871e-05 -0.000865288 1.53861e-19)
(-0.000143735 -0.000284328 -1.49421e-19)
(-0.000592622 0.0011886 0)
(-0.00120374 0.00395265 -1.70127e-19)
(-0.00158134 0.00745562 1.29984e-19)
(-0.00151235 0.0107413 0)
(-0.00110082 0.0131461 0)
(-0.000552536 0.0143892 0)
(-3.13065e-05 0.0144543 0)
(0.000380056 0.0135436 0)
(0.000724665 0.0119383 0)
(0.00106357 0.00968572 0)
(0.00143735 0.00682211 0)
(0.00186093 0.00339472 0)
(-0.000143995 -0.000285849 0)
(0.000178865 -0.000458223 0)
(0.000500746 -0.000506679 0)
(0.000829219 -0.000429365 0)
(0.00108908 -0.00018519 -0)
(0.00113289 0.000214894 -0)
(0.000875378 0.000691164 1.4207e-20)
(0.000348394 0.00113388 -1.62292e-20)
(-0.000377314 0.00145327 0)
(-0.00120617 0.00161116 -9.29435e-21)
(-0.00205903 0.00162113 0)
(-0.00287046 0.00151461 0)
(-0.00359509 0.00132877 0)
(-0.00420797 0.00109483 4.54924e-21)
(-0.00469778 0.000833769 0)
(-0.00506046 0.000557363 0)
(-0.00529355 0.000273917 -3.94633e-21)
(-0.00540186 -2.28475e-05 -0)
(-0.00535965 -0.000330434 0)
(-0.00516573 -0.000627053 -0)
(-0.00482913 -0.000892282 4.25515e-21)
(-0.00436205 -0.00110539 -0)
(-0.00378297 -0.00124475 5.05121e-21)
(-0.00312023 -0.00129057 0)
(-0.00241276 -0.00122832 -0)
(-0.0017113 -0.00105536 8.26028e-21)
(-0.00107474 -0.00078928 0)
(-0.000560888 -0.000477113 -1.37908e-20)
(-0.00020134 -0.000192933 0)
(2.336e-05 1.35053e-06 2.36915e-20)
(0.000164909 0.000115655 0)
(0.000244994 0.00021409 0)
(0.000227207 0.000331483 0)
(0.000105582 0.000489737 0)
(-0.000159948 0.000699821 0)
(-0.000594606 0.000913868 -1.42558e-20)
(-0.00117233 0.00104938 0)
(-0.0017964 0.00103454 1.70698e-20)
(-0.00234529 0.000865288 0)
(-0.00272332 0.000596669 -1.37597e-20)
(-0.00289886 0.000317804 0)
(-0.00290537 0.000101043 0)
(-0.00280299 -1.08188e-05 1.36722e-20)
(-0.00266857 7.45937e-06 0)
(-0.00256952 0.000144638 1.41853e-20)
(-0.00250661 0.000335835 -1.42731e-20)
(-0.00241537 0.000418236 0)
(-0.00213412 0.000151826 -1.57469e-20)
(-0.00140412 -0.000547516 -1.86787e-20)
(1.9593e-05 -0.00123853 0)
(0.00181737 -0.00186347 0)
(0.00380569 -0.00252102 0)
(0.00605754 -0.00313592 0)
(0.00850492 -0.00365834 -0)
(0.0110812 -0.00398076 3.29084e-21)
(0.013694 -0.00404764 0)
(0.0163845 -0.00397648 -2.65922e-21)
(0.0193985 -0.00385086 -0)
(0.0208946 -0.00344929 -0)
(0.0236737 -0.00332338 2.14573e-21)
(0.0266209 -0.00310151 0)
(0.0270231 -0.00264371 -1.90237e-21)
(0.0301774 -0.00256003 -0)
(0.0321328 -0.0023529 0)
(0.0344308 -0.00219363 -0)
(0.0364117 -0.00203584 1.82045e-21)
(0.0384177 -0.00190002 0)
(0.0402727 -0.00177614 -0)
(0.0420975 -0.00166766 1.77727e-21)
(0.0438286 -0.0015704 0)
(0.0455198 -0.00148406 1.75687e-21)
(0.047145 -0.00140618 0)
(0.0487309 -0.00133575 0)
(0.0502657 -0.00127114 0)
(0.0517636 -0.00121147 -1.72617e-21)
(0.0532186 -0.0011556 -0)
(0.0546383 -0.00110293 0)
(0.0560195 -0.00105285 -1.70581e-21)
(0.057367 -0.00100478 -1.69895e-21)
(0.0586775 -0.000958421 -0)
(0.0599549 -0.000913322 -1.68458e-21)
(0.0611959 -0.000869364 0)
(0.0624033 -0.000826218 -3.33804e-21)
(0.0635742 -0.000783834 -0)
(0.0647108 -0.000741769 -3.3038e-21)
(0.0658094 -0.000700271 -0)
(0.0668729 -0.000658837 3.26585e-21)
(0.0678973 -0.000617597 0)
(0.0688845 -0.000576239 0)
(0.0698312 -0.000534354 0)
(0.0707369 -0.000491672 -3.17702e-21)
(0.071599 -0.000448023 -0)
(0.0724164 -0.00040306 3.12518e-21)
(0.0731866 -0.000356385 0)
(0.0739079 -0.000307503 -3.06801e-21)
(0.0745772 -0.000256185 -3.03739e-21)
(0.0751924 -0.00020248 -3.0054e-21)
(0.0757512 -0.000147402 0)
(0.0762519 -9.31691e-05 0)
(0.0766955 -4.39843e-05 0)
(0.0770868 -3.32942e-06 0)
(0.077432 3.25848e-05 0)
(0.0777309 6.81804e-05 0)
(0.0779831 0.000103205 0)
(0.0781881 0.000138161 0)
(0.0783455 0.000173036 2.64851e-21)
(0.0784543 0.000207806 2.59943e-21)
(0.0785144 0.000242431 0)
(0.0785247 0.000276915 0)
(0.0784853 0.000311168 0)
(0.0783955 0.000345155 2.382e-21)
(0.0782552 0.000378911 0)
(0.078064 0.000412241 0)
(0.0778223 0.000445308 0)
(0.0775291 0.000477957 0)
(0.0771851 0.000510245 -2.05989e-21)
(0.0767897 0.000541975 0)
(0.0763441 0.000573343 0)
(0.0758475 0.000604098 1.83791e-21)
(0.0753011 0.000634534 -1.75887e-21)
(0.0747039 0.000664351 0)
(0.0740576 0.000693775 -1.59289e-21)
(0.0733613 0.000722421 0)
(0.0726172 0.00075071 1.416e-21)
(0.0718241 0.000778304 0)
(0.0709836 0.000805418 0)
(0.0700957 0.000831645 0)
(0.0691655 0.00085727 0)
(0.0681948 0.000882114 0)
(0.0671676 0.000906052 -1.62846e-21)
(0.0661091 0.000928974 -1.40547e-21)
(0.065001 0.0009503 0)
(0.0638618 0.000968297 0)
(0.0626866 0.000981094 0)
(0.0614774 0.000985292 4.42666e-22)
(0.0602362 0.00098008 0)
(0.0589587 0.000983376 0)
(0.0576474 0.00099961 0)
(0.0563009 0.00101423 -6.46066e-22)
(0.0549261 0.00102735 9.4098e-22)
(0.053525 0.00103941 0)
(0.0520997 0.00105057 0)
(0.0506525 0.00106099 1.88654e-21)
(0.0491857 0.00107054 2.22339e-21)
(0.0476984 0.00107909 0)
(0.0461975 0.00108694 0)
(0.0446781 0.00109376 -3.30566e-21)
(0.0431499 0.00109983 3.69188e-21)
(0.0416052 0.00110469 0)
(0.0400548 0.00110871 0)
(0.0384908 0.00111123 4.93844e-21)
(0.0369253 0.00111312 0)
(0.0353495 0.00111357 0)
(0.0337753 0.00111342 6.335e-21)
(0.0321986 0.00111274 0)
(0.0306209 0.00111105 7.36445e-21)
(0.0290473 0.00110927 0)
(0.0274748 0.00110716 0)
(0.0259072 0.00110507 0)
(0.0243438 0.00110311 -9.72034e-21)
(0.0227854 0.00110145 0)
(0.021232 0.00110013 0)
(0.0196838 0.00109923 0)
(0.0181408 0.0010988 0)
(0.016603 0.00109892 0)
(0.0150703 0.00109976 0)
(0.0135425 0.00110146 -1.52905e-20)
(0.0120192 0.00110423 -1.6315e-20)
(0.0104997 0.00110815 0)
(0.00898349 0.00111332 0)
(0.00746989 0.00111966 0)
(0.0059586 0.00112769 2.13526e-20)
(0.00444979 0.00113698 0)
(0.00294514 0.00114551 -4.93356e-20)
(0.00144871 0.00114916 5.32137e-20)
(-2.85919e-05 0.00113488 5.5785e-20)
(-0.00148553 0.00108087 -5.49526e-20)
(-0.00282042 0.00100194 5.272e-20)
(-0.00429763 0.000832574 -5.09801e-20)
(-0.00456243 0.000430218 0)
(-0.00652886 0.000988623 -3.0556e-18)
(-0.00968213 0.000752689 -2.77995e-18)
(-0.0128104 0.000395555 0)
(-0.0160002 6.33019e-05 -4.75327e-18)
(-0.0193905 -0.000280921 -8.85679e-18)
(-0.0229955 -0.000641994 -4.13945e-18)
(-0.0268261 -0.00102207 3.87822e-18)
(-0.0309033 -0.00142559 -2.40741e-35)
(-0.0352562 -0.00185643 -3.00927e-36)
(-0.0399019 -0.00231937 3.21809e-18)
(-0.0448584 -0.0028023 3.02845e-18)
(-0.0501365 -0.00328763 6.01853e-36)
(-0.0557644 -0.00381533 0)
(-0.0617907 -0.00441685 0)
(-0.0682716 -0.00507701 -2.91523e-35)
(-0.0752083 -0.00579049 -3.86973e-35)
(-0.0827559 -0.00655996 8.12502e-35)
(-0.0907621 -0.0073899 -3.76654e-18)
(-0.099815 -0.00829199 -3.43299e-18)
(-0.108944 -0.0092671 1.20371e-35)
(-0.120622 -0.0103424 5.4077e-18)
(-0.130187 -0.0115143 8.97478e-18)
(-0.147817 -0.0127624 1.20371e-35)
(-0.155212 -0.0142802 -4.33271e-18)
(-0.190098 -0.016636 -2.40741e-35)
)
;
    }
    frontAndBack
    {
        type            empty;
    }
}


// ************************************************************************* //
