/*--------------------------------*- C++ -*----------------------------------*\
  =========                 |
  \\      /  F ield         | OpenFOAM: The Open Source CFD Toolbox
   \\    /   O peration     | Website:  https://openfoam.org
    \\  /    A nd           | Version:  8
     \\/     M anipulation  |
\*---------------------------------------------------------------------------*/
FoamFile
{
    version     2.0;
    format      ascii;
    class       volScalarField;
    location    "1400";
    object      nut;
}
// * * * * * * * * * * * * * * * * * * * * * * * * * * * * * * * * * * * * * //

dimensions      [0 2 -1 0 0 0 0];

internalField   nonuniform List<scalar> 
12225
(
0.0122671
0.00158819
0.000666129
0.000410105
0.000294025
0.00022806
0.000183261
0.000170806
0.000132697
0.000106845
9.46738e-05
8.8009e-05
7.89864e-05
7.22337e-05
6.77333e-05
6.45096e-05
6.1213e-05
6.46361e-05
0.0323823
0.00744532
0.00330638
0.00204329
0.00146801
0.0011445
0.000936338
0.000799976
0.000679511
0.000577235
0.000506287
0.000452433
0.000410541
0.000378809
0.000350185
0.000327772
0.000311177
0.000292833
0.0490123
0.01515
0.00728196
0.00457854
0.00330639
0.00258054
0.00211233
0.00178913
0.00154181
0.00134762
0.00119772
0.0010787
0.000982061
0.000902487
0.000835986
0.00078092
0.00073556
0.000687195
0.063054
0.0237783
0.0122894
0.00788814
0.00573397
0.00448498
0.00367413
0.00310733
0.00268471
0.00235805
0.00210111
0.00189459
0.00172531
0.00158451
0.00146615
0.00136606
0.00128148
0.00119792
0.074932
0.0328517
0.0181452
0.0119262
0.00874548
0.00686412
0.0056308
0.00476254
0.00411748
0.0036203
0.00322732
0.00290993
0.002649
0.00243144
0.00224801
0.0020919
0.00195828
0.0018363
0.0849536
0.0420208
0.0246655
0.0166359
0.0123325
0.00972587
0.00799539
0.00676785
0.00585346
0.0051477
0.00458845
0.00413588
0.00376335
0.00345241
0.00318984
0.00296598
0.00277363
0.00260475
0.0933822
0.0510219
0.0316642
0.0219415
0.016474
0.0130717
0.0107779
0.00913552
0.00790571
0.0069534
0.0061969
0.00558368
0.00507838
0.00465634
0.00429978
0.00399563
0.00373417
0.00350822
0.0993794
0.0583363
0.0378386
0.0268568
0.0204171
0.0163053
0.0134892
0.011453
0.00991891
0.00872629
0.00777636
0.00700498
0.00636868
0.00583686
0.00538742
0.005004
0.00467455
0.0043913
0.104023
0.0645454
0.0433804
0.0314239
0.0241571
0.0194092
0.0161097
0.0137018
0.0118766
0.0104521
0.00931444
0.00838905
0.00762487
0.00698576
0.00644546
0.00598452
0.00558861
0.0052488
0.108368
0.0708939
0.0493756
0.0365496
0.0284517
0.0230231
0.0191863
0.0163547
0.0141926
0.0124968
0.011138
0.0100304
0.00911435
0.00834761
0.00769912
0.00714581
0.00667071
0.00626301
0.112368
0.0772557
0.0557282
0.0421918
0.0332976
0.0271652
0.0227468
0.0194432
0.0168984
0.0148903
0.0132749
0.0119545
0.0108605
0.0099438
0.00916798
0.00850588
0.00793738
0.00744918
0.115994
0.0834975
0.0623053
0.0482611
0.0386474
0.0318167
0.026789
0.0229739
0.0200046
0.0176452
0.0157379
0.0141736
0.0128749
0.011785
0.0108618
0.0100736
0.00939673
0.00881466
0.119234
0.0894856
0.0689377
0.0546109
0.0443919
0.0369007
0.0312597
0.0269088
0.0234836
0.02074
0.0185097
0.0166735
0.0151449
0.01386
0.0127704
0.0118396
0.0110397
0.0103508
0.122086
0.095084
0.075415
0.0610223
0.0503361
0.0422534
0.0360231
0.0311353
0.0272402
0.024093
0.021519
0.0193909
0.017614
0.0161174
0.0148466
0.0137601
0.0128257
0.0120196
0.124546
0.100135
0.0814619
0.0671725
0.056158
0.047577
0.0408126
0.0354174
0.031066
0.0275196
0.0246012
0.0221777
0.0201481
0.0184349
0.0169782
0.0157314
0.0146583
0.0137312
0.126578
0.104396
0.0866605
0.0725515
0.0613228
0.0523526
0.0451453
0.0393148
0.0345631
0.0306611
0.0274325
0.0247409
0.0224806
0.020569
0.0189413
0.0175468
0.0163454
0.0153061
0.128011
0.107322
0.0902141
0.0762353
0.0648743
0.0556509
0.0481493
0.0420254
0.0370012
0.0328553
0.0294126
0.0265352
0.0241143
0.0220643
0.0203172
0.0188191
0.0175275
0.0164083
0.128006
0.107313
0.0902048
0.0762269
0.0648674
0.0556454
0.048145
0.0420222
0.0369988
0.0328537
0.0294117
0.0265349
0.0241147
0.0220652
0.0203185
0.0188206
0.0175286
0.0164083
0.126509
0.104255
0.0864922
0.0723807
0.0611613
0.052205
0.0450128
0.0391967
0.0344584
0.0305686
0.0273506
0.0246684
0.0224163
0.0205118
0.0188903
0.0175006
0.0163024
0.0152631
0.124267
0.0995604
0.0807712
0.0664676
0.0554886
0.0469631
0.0402594
0.0349228
0.0306248
0.0271258
0.0242488
0.0218611
0.0198626
0.0181762
0.0167426
0.0155152
0.0144575
0.0135405
0.12136
0.0936399
0.0737261
0.0593348
0.0487592
0.0408249
0.0347467
0.0300003
0.0262308
0.0231928
0.0207127
0.018665
0.0169572
0.0155198
0.0142999
0.0132567
0.0123583
0.0115798
0.117686
0.0865903
0.0656967
0.0514791
0.0415374
0.0343608
0.0290184
0.0249322
0.0217348
0.0191848
0.0171184
0.0154211
0.0140106
0.0128263
0.0118228
0.0109656
0.0102279
0.00958894
0.11305
0.0784122
0.056921
0.0432687
0.0342296
0.0279652
0.0234365
0.0200435
0.0174263
0.0153597
0.0136966
0.0123369
0.0112106
0.010267
0.00946865
0.00878718
0.008201
0.00769345
0.107169
0.0691009
0.0476372
0.035029
0.0271566
0.021922
0.0182437
0.0155401
0.0134817
0.0118706
0.0105816
0.00953197
0.00866487
0.00793964
0.00732669
0.00680376
0.0063541
0.00596493
0.0996761
0.0587036
0.0381279
0.0270699
0.0205782
0.0164329
0.0135949
0.0115438
0.00999923
0.00879908
0.00784341
0.00706755
0.00642793
0.00589353
0.00544233
0.00505735
0.00472635
0.0044401
0.0901097
0.0473665
0.0287363
0.0196847
0.0146976
0.0116312
0.00957853
0.00811528
0.00702332
0.00617994
0.00551058
0.0049679
0.00452123
0.00414795
0.00383347
0.00356466
0.00333341
0.00313389
0.0779076
0.0353826
0.0198606
0.0131383
0.00966107
0.00759298
0.00623352
0.0052743
0.004564
0.00401882
0.00358701
0.00323599
0.00294752
0.00270526
0.00250288
0.00232854
0.00217789
0.00204895
0.06238
0.0232554
0.0119461
0.00765493
0.00556337
0.00435256
0.00356724
0.00301639
0.00261307
0.00230792
0.00206665
0.00186689
0.00170308
0.00156251
0.00144869
0.00134758
0.00125906
0.00118366
0.0426105
0.0117794
0.0054693
0.00341385
0.00246071
0.00192005
0.00157275
0.00132885
0.00115943
0.00103846
0.000944044
0.000857506
0.000785386
0.000720533
0.000665881
0.000615661
0.00057663
0.00053177
0.0168348
0.00255985
0.00110002
0.000683428
0.000493724
0.000386803
0.000318219
0.000266307
0.000272615
0.000322052
0.000354123
0.00033789
0.000300246
0.000268111
0.00024048
0.000205876
0.000197409
0.000140877
3.98296e-09
5.9137e-07
2.00137e-06
6.29091e-06
1.0808e-05
1.35414e-05
1.32703e-05
1.18092e-05
9.07973e-06
5.95964e-06
3.53076e-06
2.02731e-06
1.40687e-06
1.49741e-06
2.05494e-06
2.55158e-06
2.43804e-06
2.0512e-06
2.51284e-06
8.33452e-06
7.9634e-06
5.515e-06
6.70284e-06
2.62793e-05
5.66759e-05
7.4334e-05
9.0913e-05
0.000104768
0.000117001
0.000127169
0.000136079
0.000143731
0.000150426
0.000156256
0.000161341
0.000165829
0.000169806
0.000173358
0.000176542
0.000179402
0.000181967
0.000184261
0.000186302
0.000188106
0.000189687
0.000191058
0.000192231
0.000193211
0.000194
0.000194473
0.000194971
0.000195079
0.000195141
0.000195016
0.000194718
0.000194272
0.000193673
0.000192926
0.000192032
0.000190994
0.000189813
0.000188491
0.000187031
0.000185436
0.000183707
0.000181848
0.000179858
0.000177741
0.000175499
0.000173134
0.000170649
0.000168046
0.000165326
0.000162491
0.000159542
0.00015648
0.000153305
0.000150016
0.000146613
0.000143093
0.000139454
0.000135693
0.000131807
0.000127789
0.000123633
0.00011933
0.000114868
0.00011023
0.000105396
0.000100343
9.50416e-05
8.9466e-05
8.36096e-05
7.75388e-05
7.15284e-05
6.62472e-05
6.24892e-05
6.01481e-05
5.83958e-05
5.679e-05
5.52138e-05
5.36454e-05
5.20833e-05
5.0529e-05
4.89843e-05
4.74515e-05
4.5933e-05
4.44351e-05
4.29859e-05
4.17491e-05
4.0545e-05
3.93553e-05
3.81828e-05
3.70282e-05
3.58924e-05
3.47762e-05
3.36803e-05
3.26055e-05
3.15524e-05
3.05214e-05
2.95129e-05
2.85274e-05
2.75654e-05
2.66275e-05
2.57136e-05
2.48236e-05
2.39587e-05
2.31467e-05
2.24124e-05
2.16968e-05
2.09962e-05
2.03189e-05
1.96696e-05
1.90346e-05
1.84136e-05
1.78097e-05
1.72238e-05
1.66561e-05
1.61064e-05
1.55744e-05
1.50597e-05
1.45617e-05
1.40802e-05
1.36146e-05
1.31645e-05
1.27297e-05
1.23095e-05
1.19038e-05
1.1512e-05
1.11338e-05
1.07689e-05
1.04169e-05
1.00774e-05
9.75021e-06
9.43492e-06
9.13126e-06
8.83897e-06
8.55779e-06
8.2875e-06
8.02788e-06
7.77874e-06
7.53992e-06
7.31122e-06
7.09247e-06
6.88347e-06
6.68395e-06
6.49361e-06
6.31201e-06
6.13861e-06
5.97264e-06
5.81332e-06
5.65905e-06
5.5094e-06
5.35941e-06
5.21366e-06
5.04762e-06
4.89364e-06
4.64727e-06
4.48911e-06
3.59406e-06
1.67982e-07
6.13727e-06
6.38675e-05
0.000139672
0.000183251
0.000207038
0.000216433
0.000214953
0.000206625
0.000189928
0.000169124
0.000148934
0.000138394
0.000143493
0.000157394
0.000166256
0.000168555
0.000169661
0.000174999
0.000184691
0.000200031
0.000217359
0.000234241
0.000250777
0.000262092
0.000272007
0.000280822
0.00029362
0.000312746
0.000326699
0.000339452
0.000350382
0.000360316
0.000369421
0.000377325
0.000384541
0.000391258
0.000397701
0.000404002
0.000410226
0.00041637
0.000422389
0.000428232
0.000433857
0.000439237
0.000444355
0.000449196
0.000453747
0.00045801
0.000461984
0.000465709
0.000469151
0.000472349
0.000475291
0.000477982
0.000480424
0.000482618
0.000484563
0.000486261
0.000487712
0.000488916
0.000489875
0.000490591
0.000491067
0.000491316
0.00049134
0.000491136
0.000490699
0.000490047
0.000489181
0.000488109
0.000486837
0.000485372
0.00048372
0.000481889
0.000479886
0.000477718
0.000475393
0.000472917
0.0004703
0.000467548
0.000464669
0.000461671
0.000458563
0.000455354
0.00045205
0.000448661
0.000445195
0.00044166
0.000438063
0.000434411
0.000430708
0.000426956
0.000423146
0.000419259
0.000415269
0.00041116
0.00040696
0.000402719
0.000398463
0.000394198
0.000389929
0.000385659
0.000381391
0.00037713
0.000372878
0.000368638
0.000364413
0.000360203
0.000356004
0.000351828
0.00034768
0.000343562
0.000339474
0.000335419
0.000331399
0.000327415
0.000323468
0.000319561
0.000315693
0.000311866
0.000308081
0.000304339
0.000300642
0.000296989
0.00029338
0.000289817
0.000286296
0.000282817
0.000279382
0.000275991
0.000272652
0.000269365
0.000266115
0.000262901
0.000259728
0.000256599
0.000253515
0.000250476
0.000247481
0.000244531
0.000241624
0.000238761
0.000235939
0.000233159
0.000230421
0.000227723
0.000225066
0.000222448
0.000219869
0.00021733
0.00021483
0.000212368
0.000209945
0.00020756
0.000205214
0.000202908
0.000200641
0.000198415
0.000196231
0.00019409
0.000191994
0.000189944
0.000187943
0.000185992
0.000184092
0.000182245
0.00018045
0.000178708
0.000177017
0.000175372
0.000173772
0.000172194
0.00017068
0.000169069
0.000167746
0.000165614
0.000164898
0.000162091
0.000160718
7.68482e-07
4.4525e-05
0.000164279
0.000246545
0.00029991
0.000330259
0.00034132
0.000338466
0.000325639
0.000306344
0.000286515
0.000273694
0.000271356
0.000277975
0.000288306
0.000299122
0.000311874
0.00032884
0.000350476
0.000375702
0.000403155
0.000431501
0.000469562
0.000515976
0.000561643
0.000605812
0.000648923
0.000692602
0.000731983
0.000763305
0.000788339
0.000808183
0.000823913
0.000836392
0.000846404
0.000854725
0.000862057
0.000869044
0.000876225
0.000883955
0.000892343
0.000901266
0.000910485
0.000919762
0.000928921
0.000937841
0.000946446
0.000954688
0.000962531
0.000969947
0.000976913
0.0009834
0.000989404
0.00099492
0.000999945
0.00100448
0.00100852
0.00101207
0.00101512
0.00101769
0.00101976
0.00102133
0.00102241
0.00102296
0.00102312
0.00102283
0.00102204
0.0010208
0.00101911
0.00101699
0.00101445
0.00101151
0.00100817
0.00100446
0.00100038
0.000995945
0.000991178
0.00098609
0.000980697
0.000975012
0.000969052
0.000962831
0.000956365
0.000949669
0.000942757
0.000935646
0.000928349
0.000920881
0.000913256
0.000905486
0.000897584
0.00088956
0.000881425
0.000873186
0.000864852
0.000856432
0.000847938
0.000839387
0.000830795
0.000822175
0.000813538
0.000804893
0.000796248
0.00078761
0.000778986
0.000770385
0.000761811
0.000753271
0.000744771
0.000736317
0.000727913
0.000719565
0.000711278
0.000703055
0.000694902
0.000686819
0.000678812
0.000670883
0.000663034
0.000655268
0.000647586
0.000639992
0.000632485
0.000625069
0.000617745
0.000610513
0.000603373
0.000596325
0.000589372
0.000582513
0.000575748
0.000569079
0.000562502
0.000556013
0.000549611
0.000543297
0.000537074
0.000530943
0.000524903
0.000518954
0.000513095
0.000507325
0.000501643
0.000496049
0.00049054
0.000485115
0.000479775
0.000474516
0.00046934
0.000464243
0.000459225
0.000454285
0.000449423
0.000444635
0.000439923
0.000435284
0.000430718
0.000426223
0.000421798
0.000417442
0.000413153
0.00040893
0.000404772
0.000400674
0.000396637
0.000392655
0.000388724
0.000384841
0.000380997
0.000377184
0.000373391
0.000369602
0.000365794
0.000361946
0.000357987
0.000353946
0.000349464
0.000345071
0.00033858
0.000327122
5.06608e-07
8.12829e-05
0.000212986
0.00030924
0.000373049
0.000410487
0.00042608
0.000426473
0.000416446
0.000403001
0.000394774
0.000393888
0.000403066
0.000420255
0.000443003
0.000470759
0.000504117
0.000543441
0.000587918
0.000649958
0.000723791
0.000803547
0.000887864
0.000958584
0.00102105
0.00107721
0.00112766
0.00117259
0.00121188
0.00124579
0.00127505
0.0013004
0.00132253
0.00134208
0.00135962
0.00137565
0.00139058
0.00140474
0.00141841
0.00143176
0.00144493
0.00145798
0.00147094
0.00148379
0.00149649
0.00150895
0.00152108
0.00153279
0.00154398
0.00155458
0.00156453
0.00157381
0.00158238
0.00159024
0.00159738
0.00160379
0.00160946
0.0016144
0.0016186
0.00162206
0.00162479
0.00162677
0.00162792
0.00162836
0.00162823
0.00162732
0.0016257
0.00162337
0.00162038
0.00161672
0.00161242
0.0016075
0.00160198
0.00159588
0.00158922
0.00158203
0.00157432
0.00156613
0.00155746
0.00154835
0.00153882
0.0015289
0.00151859
0.00150794
0.00149695
0.00148566
0.00147409
0.00146225
0.00145017
0.00143787
0.00142537
0.00141269
0.00139984
0.00138684
0.00137371
0.00136046
0.00134711
0.00133368
0.00132019
0.00130666
0.0012931
0.00127952
0.00126595
0.00125239
0.00123885
0.00122535
0.00121189
0.00119849
0.00118515
0.00117188
0.00115869
0.00114559
0.00113259
0.00111968
0.00110688
0.00109419
0.00108162
0.00106917
0.00105685
0.00104465
0.00103259
0.00102066
0.00100886
0.00099721
0.000985698
0.000974328
0.000963101
0.000952019
0.000941083
0.000930292
0.000919648
0.00090915
0.000898795
0.00088858
0.000878502
0.000868565
0.000858767
0.000849111
0.000839596
0.00083022
0.000820984
0.000811885
0.000802923
0.000794094
0.000785399
0.000776835
0.0007684
0.000760092
0.00075191
0.000743852
0.000735916
0.000728101
0.000720404
0.000712824
0.000705359
0.000698006
0.000690765
0.000683633
0.000676609
0.000669689
0.000662871
0.000656154
0.000649534
0.000643007
0.000636569
0.000630216
0.000623942
0.000617738
0.000611595
0.000605502
0.000599441
0.000593391
0.000587323
0.000581199
0.000574955
0.000568536
0.000561759
0.000554567
0.000546325
0.000530134
1.49319e-06
0.000102057
0.000235133
0.000355092
0.000434032
0.000481559
0.000505201
0.000513656
0.000515202
0.000516142
0.000522965
0.000539076
0.000565091
0.000600043
0.000643138
0.000694386
0.00075441
0.000837775
0.000933394
0.00102968
0.00111872
0.00120314
0.00128253
0.00135527
0.00142206
0.0014835
0.00153999
0.00159187
0.00163949
0.00168327
0.00172372
0.0017613
0.00179644
0.00182953
0.00186087
0.00189072
0.00191927
0.00194666
0.00197299
0.00199832
0.00202268
0.00204609
0.00206853
0.00209
0.00211047
0.0021299
0.00214827
0.00216555
0.00218171
0.00219673
0.0022106
0.00222333
0.00223493
0.0022454
0.00225477
0.00226305
0.00227027
0.00227643
0.00228156
0.00228567
0.00228876
0.00229081
0.00229173
0.00229182
0.00229094
0.00228906
0.00228623
0.00228246
0.00227777
0.00227219
0.00226574
0.00225846
0.00225036
0.00224148
0.00223185
0.00222149
0.00221045
0.00219875
0.00218642
0.00217349
0.00215999
0.00214596
0.00213142
0.00211641
0.00210096
0.0020851
0.00206885
0.00205225
0.00203533
0.00201812
0.00200063
0.00198291
0.00196497
0.00194683
0.00192852
0.00191007
0.00189149
0.00187281
0.00185405
0.00183524
0.00181639
0.00179753
0.00177868
0.00175984
0.00174104
0.00172229
0.0017036
0.00168499
0.00166647
0.00164805
0.00162974
0.00161155
0.00159349
0.00157557
0.0015578
0.00154018
0.00152272
0.00150543
0.00148831
0.00147136
0.0014546
0.00143802
0.00142163
0.00140544
0.00138943
0.00137362
0.001358
0.00134259
0.00132737
0.00131235
0.00129753
0.00128291
0.00126849
0.00125426
0.00124022
0.00122638
0.00121272
0.00119926
0.00118599
0.00117291
0.00116002
0.00114732
0.0011348
0.00112247
0.00111031
0.00109834
0.00108654
0.00107491
0.00106346
0.00105217
0.00104105
0.00103009
0.0010193
0.00100866
0.000998176
0.000987846
0.000977667
0.000967635
0.000957747
0.000948002
0.000938395
0.000928923
0.000919582
0.000910368
0.000901275
0.000892297
0.000883427
0.000874656
0.000865972
0.000857359
0.0008488
0.000840269
0.000831733
0.000823146
0.000814443
0.000805552
0.000796308
0.000786564
0.000776596
0.000756775
2.27164e-06
0.000118206
0.000256383
0.000390185
0.00048729
0.000549216
0.000587075
0.000610518
0.000628239
0.000647515
0.000673605
0.000709168
0.00075494
0.000811193
0.00087831
0.000968766
0.00107387
0.0011756
0.00127484
0.00137038
0.00146111
0.00154713
0.00162841
0.00170489
0.00177688
0.00184472
0.00190876
0.00196932
0.00202675
0.00208138
0.00213351
0.00218345
0.00223144
0.00227769
0.00232237
0.00236559
0.00240744
0.00244798
0.00248724
0.00252523
0.00256195
0.00259737
0.00263146
0.0026642
0.00269554
0.00272545
0.00275388
0.00278079
0.00280614
0.00282991
0.00285207
0.00287259
0.00289146
0.00290867
0.0029242
0.00293807
0.00295027
0.00296081
0.0029697
0.00297697
0.00298262
0.0029867
0.00298913
0.00299003
0.00298956
0.00298759
0.00298425
0.00297955
0.00297355
0.00296629
0.00295785
0.00294825
0.00293757
0.00292584
0.00291312
0.00289946
0.00288489
0.00286948
0.00285325
0.00283626
0.00281855
0.00280016
0.00278112
0.00276149
0.0027413
0.00272059
0.00269941
0.00267778
0.00265574
0.00263335
0.00261061
0.00258758
0.00256429
0.00254076
0.00251702
0.00249312
0.00246906
0.00244489
0.00242063
0.0023963
0.00237194
0.00234757
0.0023232
0.00229887
0.00227459
0.00225037
0.00222624
0.00220221
0.00217829
0.00215451
0.00213087
0.00210739
0.00208408
0.00206094
0.002038
0.00201525
0.00199271
0.00197038
0.00194827
0.00192639
0.00190474
0.00188332
0.00186214
0.00184121
0.00182052
0.00180008
0.00177989
0.00175995
0.00174027
0.00172083
0.00170165
0.00168272
0.00166404
0.00164561
0.00162742
0.00160948
0.00159178
0.00157433
0.00155712
0.00154014
0.00152341
0.00150691
0.00149065
0.00147462
0.00145882
0.00144324
0.00142788
0.00141274
0.00139782
0.00138311
0.00136861
0.00135431
0.00134022
0.00132632
0.00131262
0.00129912
0.0012858
0.00127267
0.00125972
0.00124694
0.00123435
0.00122192
0.00120966
0.00119755
0.00118561
0.0011738
0.00116214
0.00115061
0.00113919
0.00112787
0.00111663
0.00110544
0.00109426
0.00108306
0.00107175
0.00106028
0.00104846
0.00103624
0.00102406
0.00100158
2.806e-06
0.000126829
0.000269301
0.000407769
0.000526554
0.000608089
0.000664281
0.000706263
0.000743281
0.000782604
0.000829292
0.000886301
0.000955239
0.00104751
0.00115448
0.00126109
0.0013672
0.00147058
0.00157068
0.00166706
0.00175948
0.00184794
0.00193253
0.00201341
0.00209082
0.00216503
0.00223633
0.00230497
0.00237122
0.00243531
0.00249744
0.00255781
0.00261655
0.00267378
0.0027296
0.00278405
0.00283717
0.00288898
0.00293946
0.0029886
0.00303637
0.00308274
0.00312765
0.00317106
0.00321292
0.00325317
0.00329177
0.00332865
0.00336378
0.00339709
0.00342856
0.00345814
0.0034858
0.0035115
0.00353522
0.00355695
0.00357666
0.00359434
0.00360999
0.00362362
0.00363521
0.0036448
0.00365237
0.00365799
0.00366164
0.00366326
0.00366317
0.00366119
0.00365741
0.00365189
0.00364469
0.00363584
0.00362543
0.0036135
0.00360011
0.00358534
0.00356925
0.00355191
0.00353338
0.00351373
0.00349303
0.00347134
0.00344874
0.00342528
0.00340103
0.00337605
0.00335041
0.00332415
0.00329735
0.00327004
0.00324229
0.00321413
0.00318563
0.00315681
0.00312773
0.00309842
0.00306892
0.00303927
0.00300951
0.00297966
0.00294976
0.00291984
0.00288992
0.00286004
0.00283022
0.00280047
0.00277083
0.00274131
0.00271194
0.00268272
0.00265367
0.00262482
0.00259616
0.00256773
0.00253952
0.00251156
0.00248384
0.00245638
0.00242918
0.00240226
0.00237561
0.00234926
0.00232319
0.00229741
0.00227193
0.00224675
0.00222187
0.00219729
0.00217302
0.00214905
0.00212538
0.00210202
0.00207896
0.0020562
0.00203373
0.00201156
0.00198969
0.00196811
0.00194682
0.00192582
0.0019051
0.00188467
0.00186452
0.00184465
0.00182505
0.00180572
0.00178666
0.00176786
0.00174932
0.00173103
0.001713
0.00169521
0.00167766
0.00166036
0.00164329
0.00162645
0.00160983
0.00159344
0.00157727
0.00156132
0.00154558
0.00153004
0.0015147
0.00149955
0.0014846
0.00146982
0.00145522
0.00144077
0.00142647
0.0014123
0.00139824
0.00138425
0.00137031
0.00135636
0.00134233
0.00132816
0.00131368
0.00129893
0.00128392
0.00125967
2.94329e-06
0.00012875
0.000270702
0.000407364
0.000538193
0.000641859
0.000719101
0.000780523
0.000836285
0.000894087
0.00096158
0.00105346
0.00116303
0.00128478
0.00140037
0.00151165
0.00161949
0.00172408
0.00182536
0.00192325
0.00201776
0.00210899
0.00219706
0.00228217
0.00236454
0.00244439
0.00252194
0.00259741
0.00267098
0.00274283
0.00281311
0.00288191
0.00294935
0.00301548
0.00308035
0.00314397
0.00320635
0.00326747
0.0033273
0.0033858
0.00344292
0.00349862
0.00355282
0.00360547
0.00365651
0.00370586
0.00375347
0.00379926
0.00384318
0.00388517
0.00392518
0.00396315
0.00399903
0.00403279
0.00406438
0.00409378
0.00412096
0.00414589
0.00416856
0.00418896
0.00420709
0.00422294
0.00423652
0.00424785
0.00425694
0.00426381
0.00426853
0.00427098
0.00427142
0.00426977
0.0042661
0.00426046
0.00425289
0.00424346
0.00423223
0.00421926
0.00420461
0.00418835
0.00417055
0.00415129
0.00413062
0.00410863
0.00408538
0.00406095
0.00403541
0.00400884
0.00398129
0.00395285
0.00392358
0.00389355
0.00386282
0.00383146
0.00379952
0.00376708
0.00373418
0.00370088
0.00366724
0.00363331
0.00359913
0.00356475
0.00353022
0.00349559
0.00346088
0.00342615
0.00339141
0.00335672
0.00332208
0.00328755
0.00325313
0.00321886
0.00318476
0.00315084
0.00311714
0.00308366
0.00305042
0.00301744
0.00298473
0.00295231
0.00292017
0.00288834
0.00285682
0.00282562
0.00279474
0.00276419
0.00273398
0.00270411
0.00267458
0.0026454
0.00261656
0.00258807
0.00255993
0.00253214
0.00250469
0.00247759
0.00245083
0.00242441
0.00239832
0.00237258
0.00234718
0.0023221
0.00229736
0.00227294
0.00224885
0.00222508
0.00220163
0.00217849
0.00215566
0.00213313
0.00211091
0.00208898
0.00206734
0.00204598
0.00202492
0.00200413
0.00198361
0.00196336
0.00194338
0.00192366
0.0019042
0.00188499
0.00186602
0.0018473
0.00182881
0.00181055
0.00179252
0.00177469
0.00175707
0.00173965
0.0017224
0.00170531
0.00168835
0.00167151
0.00165473
0.00163796
0.00162115
0.00160422
0.00158702
0.00156962
0.00155169
0.00152555
2.7604e-06
0.00012529
0.000264087
0.000395842
0.00052065
0.000633216
0.000727201
0.000808357
0.000891289
0.000986552
0.00109572
0.00122036
0.00135675
0.00148429
0.0016046
0.00171963
0.00183036
0.00193715
0.00204031
0.0021402
0.00223705
0.00233103
0.00242236
0.00251124
0.00259787
0.00268246
0.0027652
0.00284626
0.00292579
0.00300393
0.00308077
0.00315641
0.00323089
0.00330425
0.0033765
0.00344764
0.00351764
0.00358647
0.00365408
0.00372041
0.0037854
0.00384897
0.00391106
0.00397158
0.00403047
0.00408763
0.00414299
0.00419649
0.00424803
0.00429757
0.00434502
0.00439034
0.00443346
0.00447433
0.00451291
0.00454916
0.00458304
0.00461452
0.00464358
0.00467021
0.00469439
0.00471611
0.00473539
0.00475222
0.00476663
0.00477862
0.00478822
0.00479545
0.00480039
0.00480295
0.00480334
0.00480152
0.00479756
0.0047915
0.00478339
0.00477331
0.00476131
0.00474746
0.00473182
0.00471446
0.00469545
0.00467486
0.00465277
0.00462924
0.00460436
0.00457819
0.0045508
0.00452227
0.00449268
0.00446208
0.00443056
0.00439817
0.00436499
0.00433109
0.00429652
0.00426135
0.00422564
0.00418945
0.00415285
0.00411587
0.00407859
0.00404104
0.00400328
0.00396536
0.00392732
0.0038892
0.00385104
0.00381287
0.00377474
0.00373668
0.00369871
0.00366087
0.00362318
0.00358566
0.00354835
0.00351125
0.0034744
0.0034378
0.00340148
0.00336544
0.00332971
0.00329429
0.00325919
0.00322443
0.00319001
0.00315594
0.00312222
0.00308886
0.00305587
0.00302324
0.00299099
0.0029591
0.00292758
0.00289644
0.00286567
0.00283526
0.00280523
0.00277556
0.00274626
0.00271733
0.00268875
0.00266054
0.00263269
0.00260519
0.00257804
0.00255124
0.00252478
0.00249866
0.00247288
0.00244742
0.0024223
0.00239749
0.002373
0.00234883
0.00232496
0.0023014
0.00227814
0.00225517
0.00223249
0.0022101
0.00218799
0.00216615
0.00214459
0.00212328
0.00210223
0.00208142
0.00206085
0.00204051
0.00202037
0.00200041
0.00198062
0.00196096
0.00194139
0.00192187
0.00190231
0.00188266
0.00186277
0.00184271
0.00182196
0.00179363
2.34537e-06
0.000118011
0.000252884
0.000381027
0.000504012
0.000620549
0.000731424
0.00084048
0.000955341
0.00108118
0.00121924
0.00136899
0.00151131
0.00164331
0.00176758
0.00188602
0.00199975
0.00210941
0.00221539
0.00231789
0.00241731
0.00251402
0.00260834
0.00270051
0.00279076
0.0028793
0.0029663
0.00305192
0.00313631
0.00321955
0.00330175
0.00338295
0.0034632
0.0035425
0.00362085
0.00369822
0.00377457
0.00384985
0.003924
0.00399693
0.00406858
0.00413885
0.00420766
0.00427492
0.00434053
0.00440441
0.00446646
0.0045266
0.00458476
0.00464084
0.00469477
0.00474649
0.00479593
0.00484302
0.00488773
0.00493
0.00496979
0.00500706
0.00504179
0.00507397
0.00510356
0.00513057
0.00515499
0.00517683
0.00519609
0.00521279
0.00522696
0.00523861
0.00524778
0.00525451
0.00525883
0.00526076
0.00526042
0.00525781
0.00525299
0.00524603
0.00523697
0.0052259
0.00521285
0.00519792
0.00518116
0.00516264
0.00514243
0.00512061
0.00509725
0.00507243
0.0050462
0.00501866
0.00498986
0.00495988
0.0049288
0.00489668
0.00486358
0.00482958
0.00479475
0.00475915
0.00472284
0.00468589
0.00464835
0.00461029
0.00457177
0.00453285
0.00449356
0.00445398
0.00441414
0.00437409
0.00433388
0.00429356
0.00425315
0.00421271
0.00417226
0.00413184
0.00409149
0.00405123
0.0040111
0.00397111
0.0039313
0.00389169
0.00385229
0.00381314
0.00377424
0.00373561
0.00369727
0.00365923
0.00362151
0.00358411
0.00354705
0.00351033
0.00347395
0.00343794
0.00340229
0.003367
0.00333209
0.00329755
0.00326338
0.00322958
0.00319616
0.00316312
0.00313046
0.00309817
0.00306626
0.00303473
0.00300357
0.00297278
0.00294235
0.0029123
0.0028826
0.00285327
0.00282429
0.00279567
0.00276739
0.00273946
0.00271187
0.00268462
0.0026577
0.00263111
0.00260485
0.0025789
0.00255328
0.00252796
0.00250295
0.00247824
0.00245383
0.0024297
0.00240586
0.00238229
0.00235898
0.00233591
0.00231308
0.00229046
0.00226803
0.00224575
0.00222358
0.00220147
0.00217936
0.00215716
0.00213476
0.00211218
0.00208888
0.00205822
1.9276e-06
0.000110325
0.00024259
0.000369942
0.000495683
0.000620103
0.00074499
0.000874446
0.00101176
0.00115903
0.00131641
0.00147823
0.00162606
0.00176252
0.00189064
0.00201241
0.00212911
0.00224156
0.00235031
0.00245573
0.00255813
0.00265769
0.00275488
0.00285002
0.00294341
0.0030353
0.00312586
0.00321527
0.00330366
0.00339113
0.00347775
0.00356356
0.0036486
0.00373285
0.0038163
0.00389891
0.00398062
0.00406136
0.00414105
0.00421962
0.00429696
0.00437297
0.00444756
0.00452061
0.00459204
0.00466173
0.00472958
0.00479551
0.00485941
0.0049212
0.00498079
0.00503812
0.00509309
0.00514566
0.00519577
0.00524335
0.00528836
0.00533077
0.00537055
0.00540767
0.0054421
0.00547385
0.0055029
0.00552926
0.00555293
0.00557394
0.00559229
0.00560801
0.00562113
0.00563169
0.00563971
0.00564526
0.00564837
0.00564909
0.00564748
0.00564361
0.00563752
0.00562927
0.00561893
0.00560656
0.00559224
0.00557603
0.00555799
0.00553821
0.00551676
0.0054937
0.00546911
0.00544306
0.00541562
0.00538687
0.00535687
0.0053257
0.00529342
0.00526011
0.00522582
0.00519063
0.00515459
0.00511779
0.00508027
0.0050421
0.00500334
0.00496405
0.00492427
0.00488408
0.00484351
0.00480262
0.00476146
0.00472007
0.00467849
0.00463677
0.00459495
0.00455307
0.00451116
0.00446925
0.00442739
0.00438559
0.00434389
0.00430232
0.00426089
0.00421964
0.00417858
0.00413774
0.00409714
0.00405678
0.0040167
0.00397689
0.00393738
0.00389818
0.00385929
0.00382073
0.00378251
0.00374462
0.00370709
0.00366991
0.00363308
0.00359662
0.00356052
0.00352479
0.00348943
0.00345444
0.00341982
0.00338557
0.0033517
0.0033182
0.00328507
0.0032523
0.00321991
0.00318788
0.00315621
0.00312491
0.00309396
0.00306337
0.00303313
0.00300324
0.00297369
0.00294449
0.00291563
0.0028871
0.00285891
0.00283104
0.00280349
0.00277627
0.00274935
0.00272274
0.00269644
0.00267042
0.00264469
0.00261922
0.002594
0.00256901
0.00254423
0.00251962
0.00249514
0.00247074
0.00244635
0.0024219
0.00239728
0.00237248
0.00234697
0.00231416
1.54398e-06
0.000102181
0.00023209
0.000359073
0.000487733
0.000618984
0.000755489
0.000899164
0.00105175
0.00121377
0.00138575
0.00155175
0.00170356
0.00184389
0.00197551
0.00210039
0.0022199
0.00233496
0.00244624
0.00255423
0.00265931
0.00276179
0.00286194
0.00295996
0.00305625
0.00315111
0.00324479
0.00333746
0.00342926
0.00352032
0.00361069
0.00370042
0.00378952
0.00387799
0.00396579
0.00405286
0.00413916
0.00422458
0.00430905
0.00439246
0.00447471
0.00455569
0.00463528
0.00471336
0.00478984
0.00486458
0.00493749
0.00500846
0.00507739
0.00514418
0.00520873
0.00527098
0.00533084
0.00538823
0.0054431
0.00549538
0.00554504
0.00559203
0.0056363
0.00567784
0.00571663
0.00575264
0.00578588
0.00581634
0.00584404
0.00586897
0.00589117
0.00591065
0.00592744
0.00594157
0.00595309
0.00596202
0.00596843
0.00597235
0.00597384
0.00597297
0.00596981
0.00596437
0.00595675
0.005947
0.00593519
0.00592139
0.00590567
0.00588809
0.00586874
0.00584768
0.00582499
0.00580073
0.00577498
0.00574781
0.00571929
0.00568949
0.00565847
0.00562631
0.00559308
0.00555883
0.00552363
0.00548756
0.00545067
0.00541302
0.00537468
0.0053357
0.00529614
0.00525606
0.0052155
0.00517453
0.00513318
0.00509151
0.00504956
0.00500737
0.004965
0.00492247
0.00487983
0.00483711
0.00479435
0.00475159
0.00470884
0.00466615
0.00462353
0.00458102
0.00453865
0.00449642
0.00445437
0.00441252
0.00437088
0.00432947
0.0042883
0.0042474