/*--------------------------------*- C++ -*----------------------------------*\
  =========                 |
  \\      /  F ield         | OpenFOAM: The Open Source CFD Toolbox
   \\    /   O peration     | Website:  https://openfoam.org
    \\  /    A nd           | Version:  8
     \\/     M anipulation  |
\*---------------------------------------------------------------------------*/
FoamFile
{
    version     2.0;
    format      ascii;
    class       volScalarField;
    location    "1400";
    object      nuTilda;
}
// * * * * * * * * * * * * * * * * * * * * * * * * * * * * * * * * * * * * * //

dimensions      [0 2 -1 0 0 0 0];

internalField   nonuniform List<scalar> 
12225
(
0.0122671
0.00158833
0.000666932
0.000412201
0.000298001
0.000234418
0.000192049
0.000186518
0.000141364
0.000110263
9.73202e-05
9.07193e-05
8.20035e-05
7.63424e-05
7.17079e-05
7.01743e-05
6.81342e-05
7.40044e-05
0.0323823
0.00744533
0.00330642
0.00204338
0.00146818
0.00114477
0.000936743
0.000800567
0.000680243
0.00057806
0.000507247
0.000453561
0.000411868
0.000380374
0.000352023
0.000329998
0.000313759
0.000295896
0.0490123
0.01515
0.00728196
0.00457856
0.00330642
0.00258059
0.00211241
0.00178924
0.00154196
0.00134781
0.00119795
0.00107898
0.000982393
0.000902879
0.000836444
0.000781456
0.000736173
0.00068791
0.063054
0.0237783
0.0122894
0.00788815
0.00573398
0.004485
0.00367415
0.00310736
0.00268476
0.00235811
0.00210119
0.00189468
0.00172543
0.00158465
0.00146631
0.00136625
0.00128169
0.00119817
0.074932
0.0328517
0.0181452
0.0119262
0.00874549
0.00686413
0.00563081
0.00476256
0.0041175
0.00362033
0.00322735
0.00290997
0.00264905
0.0024315
0.00224808
0.00209198
0.00195837
0.0018364
0.0849536
0.0420208
0.0246655
0.0166359
0.0123325
0.00972587
0.0079954
0.00676786
0.00585347
0.00514771
0.00458846
0.0041359
0.00376338
0.00345244
0.00318988
0.00296602
0.00277367
0.0026048
0.0933822
0.0510219
0.0316642
0.0219415
0.016474
0.0130717
0.0107779
0.00913552
0.00790571
0.00695341
0.00619691
0.00558369
0.00507839
0.00465635
0.0042998
0.00399565
0.0037342
0.00350825
0.0993794
0.0583363
0.0378386
0.0268568
0.0204171
0.0163053
0.0134892
0.011453
0.00991892
0.0087263
0.00777636
0.00700499
0.00636869
0.00583687
0.00538743
0.00500401
0.00467456
0.00439132
0.104023
0.0645454
0.0433804
0.0314239
0.0241571
0.0194092
0.0161097
0.0137018
0.0118766
0.0104521
0.00931444
0.00838905
0.00762487
0.00698577
0.00644547
0.00598453
0.00558862
0.00524881
0.108368
0.0708939
0.0493756
0.0365496
0.0284517
0.0230231
0.0191863
0.0163548
0.0141926
0.0124968
0.011138
0.0100304
0.00911436
0.00834762
0.00769912
0.00714582
0.00667072
0.00626302
0.112368
0.0772557
0.0557282
0.0421918
0.0332976
0.0271652
0.0227468
0.0194432
0.0168984
0.0148904
0.0132749
0.0119545
0.0108605
0.00994381
0.00916799
0.00850588
0.00793739
0.00744918
0.115994
0.0834975
0.0623053
0.0482611
0.0386474
0.0318167
0.026789
0.0229739
0.0200046
0.0176452
0.0157379
0.0141736
0.0128749
0.011785
0.0108618
0.0100736
0.00939673
0.00881467
0.119234
0.0894856
0.0689377
0.0546109
0.0443919
0.0369007
0.0312597
0.0269088
0.0234836
0.02074
0.0185097
0.0166735
0.0151449
0.01386
0.0127704
0.0118396
0.0110397
0.0103508
0.122086
0.095084
0.075415
0.0610223
0.0503361
0.0422534
0.0360231
0.0311353
0.0272402
0.024093
0.021519
0.0193909
0.017614
0.0161174
0.0148466
0.0137601
0.0128257
0.0120196
0.124546
0.100135
0.0814619
0.0671725
0.056158
0.047577
0.0408126
0.0354174
0.031066
0.0275196
0.0246012
0.0221777
0.0201481
0.0184349
0.0169782
0.0157314
0.0146583
0.0137312
0.126578
0.104396
0.0866605
0.0725515
0.0613228
0.0523526
0.0451453
0.0393148
0.0345631
0.0306611
0.0274325
0.0247409
0.0224806
0.020569
0.0189413
0.0175468
0.0163454
0.0153061
0.128011
0.107322
0.0902141
0.0762353
0.0648743
0.0556509
0.0481493
0.0420254
0.0370012
0.0328553
0.0294126
0.0265352
0.0241143
0.0220643
0.0203172
0.0188191
0.0175275
0.0164083
0.128006
0.107313
0.0902048
0.0762269
0.0648674
0.0556454
0.048145
0.0420222
0.0369988
0.0328537
0.0294117
0.0265349
0.0241147
0.0220652
0.0203185
0.0188206
0.0175287
0.0164083
0.126509
0.104255
0.0864922
0.0723807
0.0611613
0.052205
0.0450128
0.0391967
0.0344584
0.0305686
0.0273506
0.0246684
0.0224163
0.0205118
0.0188903
0.0175006
0.0163024
0.0152631
0.124267
0.0995604
0.0807712
0.0664676
0.0554886
0.0469631
0.0402594
0.0349228
0.0306248
0.0271258
0.0242488
0.0218611
0.0198626
0.0181762
0.0167426
0.0155152
0.0144575
0.0135405
0.12136
0.0936399
0.0737261
0.0593348
0.0487592
0.0408249
0.0347467
0.0300003
0.0262308
0.0231928
0.0207127
0.018665
0.0169572
0.0155198
0.0142999
0.0132567
0.0123583
0.0115798
0.117686
0.0865903
0.0656967
0.0514791
0.0415374
0.0343608
0.0290184
0.0249322
0.0217348
0.0191848
0.0171184
0.0154211
0.0140106
0.0128263
0.0118229
0.0109656
0.010228
0.00958894
0.11305
0.0784122
0.056921
0.0432687
0.0342296
0.0279652
0.0234365
0.0200435
0.0174263
0.0153597
0.0136966
0.0123369
0.0112106
0.010267
0.00946865
0.00878718
0.00820101
0.00769346
0.107169
0.0691009
0.0476372
0.035029
0.0271566
0.021922
0.0182437
0.0155401
0.0134817
0.0118706
0.0105816
0.00953197
0.00866487
0.00793965
0.0073267
0.00680377
0.00635411
0.00596494
0.0996761
0.0587036
0.0381279
0.0270699
0.0205782
0.016433
0.0135949
0.0115438
0.00999923
0.00879909
0.00784342
0.00706756
0.00642793
0.00589354
0.00544234
0.00505736
0.00472637
0.00444012
0.0901097
0.0473665
0.0287363
0.0196847
0.0146976
0.0116312
0.00957853
0.00811528
0.00702332
0.00617995
0.0055106
0.00496792
0.00452125
0.00414797
0.0038335
0.00356468
0.00333344
0.00313392
0.0779076
0.0353826
0.0198606
0.0131383
0.00966107
0.00759298
0.00623353
0.00527431
0.00456401
0.00401884
0.00358704
0.00323603
0.00294756
0.00270531
0.00250294
0.00232861
0.00217797
0.00204904
0.06238
0.0232554
0.0119461
0.00765494
0.00556339
0.00435258
0.00356726
0.00301643
0.00261313
0.00230799
0.00206674
0.001867
0.00170321
0.00156266
0.00144887
0.00134779
0.00125929
0.00118392
0.0426105
0.0117794
0.00546931
0.00341388
0.00246077
0.00192015
0.0015729
0.00132905
0.00115971
0.00103885
0.000944571
0.000858165
0.000786196
0.000721442
0.000667019
0.000616945
0.000577964
0.000533266
0.0168348
0.0025599
0.00110031
0.000684192
0.000495179
0.000389151
0.00032166
0.000270752
0.000280902
0.00033897
0.000384518
0.000373912
0.000344026
0.00031431
0.000286177
0.000252556
0.000249821
0.000182286
3.78295e-06
1.43242e-05
2.60315e-05
3.85418e-05
4.60188e-05
4.96748e-05
5.01629e-05
4.78387e-05
4.46478e-05
3.95788e-05
3.42398e-05
2.94612e-05
2.67579e-05
2.74181e-05
2.95908e-05
3.14331e-05
3.12805e-05
2.84058e-05
2.36564e-05
1.94763e-05
1.9442e-05
2.62715e-05
3.92498e-05
6.37057e-05
8.71443e-05
0.000100545
0.000113285
0.000124297
0.000134291
0.000142799
0.000150396
0.000157019
0.000162884
0.000168042
0.000172576
0.000176605
0.000180193
0.000183414
0.000186312
0.000188924
0.000191274
0.000193381
0.000195259
0.000196922
0.000198383
0.000199651
0.000200737
0.000201645
0.000202378
0.000202802
0.000203294
0.000203377
0.000203436
0.000203321
0.000203043
0.000202629
0.000202074
0.000201381
0.000200553
0.000199592
0.000198499
0.000197278
0.000195931
0.000194461
0.000192872
0.000191165
0.000189342
0.000187406
0.000185362
0.000183211
0.000180958
0.000178604
0.000176154
0.000173609
0.000170973
0.000168248
0.000165434
0.000162535
0.000159549
0.000156478
0.000153322
0.000150079
0.000146751
0.000143335
0.000139829
0.000136231
0.000132534
0.000128729
0.000124804
0.000120746
0.000116536
0.000112161
0.000107619
0.000102963
9.83993e-05
9.44173e-05
9.15945e-05
8.98383e-05
8.8524e-05
8.73193e-05
8.6136e-05
8.49572e-05
8.37813e-05
8.2609e-05
8.1441e-05
8.02784e-05
7.91225e-05
7.79775e-05
7.68645e-05
7.59099e-05
7.49759e-05
7.4048e-05
7.31282e-05
7.22165e-05
7.13136e-05
7.04195e-05
6.95348e-05
6.86599e-05
6.77949e-05
6.694e-05
6.60954e-05
6.52614e-05
6.44384e-05
6.36266e-05
6.28261e-05
6.20367e-05
6.12595e-05
6.05202e-05
5.9843e-05
5.91744e-05
5.85111e-05
5.7861e-05
5.72291e-05
5.66024e-05
5.59805e-05
5.53666e-05
5.47618e-05
5.41666e-05
5.35812e-05
5.30053e-05
5.24389e-05
5.18818e-05
5.13339e-05
5.0795e-05
5.02651e-05
4.9744e-05
4.92315e-05
4.87277e-05
4.82324e-05
4.77455e-05
4.7267e-05
4.67968e-05
4.63349e-05
4.58813e-05
4.54359e-05
4.49988e-05
4.45701e-05
4.41497e-05
4.3738e-05
4.33349e-05
4.29408e-05
4.25558e-05
4.21802e-05
4.18142e-05
4.1458e-05
4.11118e-05
4.07754e-05
4.04488e-05
4.01314e-05
3.98226e-05
3.95202e-05
3.92246e-05
3.89269e-05
3.86402e-05
3.83113e-05
3.80556e-05
3.75478e-05
3.7353e-05
3.63023e-05
3.4908e-05
5.89538e-06
4.05845e-05
9.24545e-05
0.000153696
0.000192561
0.000214586
0.000223397
0.000221982
0.000214154
0.000198601
0.000179572
0.000161567
0.00015239
0.000156816
0.000169067
0.000177026
0.000179114
0.000180198
0.0001851
0.000193803
0.000208055
0.000224373
0.000240283
0.000256123
0.000267017
0.000276607
0.000285156
0.000297607
0.000316284
0.000329954
0.000342477
0.000353228
0.000363012
0.000371989
0.00037979
0.000386917
0.000393555
0.000399926
0.00040616
0.000412321
0.000418404
0.000424367
0.000430158
0.000435734
0.00044107
0.000446146
0.000450949
0.000455466
0.000459697
0.000463643
0.000467342
0.000470761
0.000473937
0.00047686
0.000479534
0.00048196
0.00048414
0.000486073
0.000487761
0.000489203
0.0004904
0.000491353
0.000492064
0.000492538
0.000492785
0.00049281
0.000492607
0.000492173
0.000491524
0.000490663
0.000489597
0.000488333
0.000486877
0.000485235
0.000483416
0.000481425
0.000479271
0.000476961
0.000474502
0.000471902
0.000469168
0.000466309
0.000463333
0.000460247
0.000457061
0.000453782
0.000450419
0.000446979
0.000443472
0.000439904
0.000436283
0.000432612
0.000428893
0.000425117
0.000421266
0.000417315
0.000413246
0.000409088
0.000404891
0.00040068
0.000396462
0.000392241
0.000388021
0.000383806
0.000379598
0.000375401
0.000371218
0.000367051
0.0003629
0.000358763
0.000354651
0.000350569
0.000346517
0.000342498
0.000338514
0.000334566
0.000330656
0.000326786
0.000322956
0.000319168
0.000315423
0.000311722
0.000308065
0.000304455
0.000300891
0.000297373
0.000293902
0.000290477
0.000287094
0.000283759
0.000280469
0.000277232
0.00027405
0.000270906
0.0002678
0.000264738
0.000261722
0.000258752
0.00025583
0.000252954
0.000250124
0.00024734
0.0002446
0.000241905
0.000239253
0.000236644
0.000234078
0.000231554
0.000229071
0.00022663
0.00022423
0.00022187
0.00021955
0.000217271
0.000215031
0.000212833
0.000210674
0.000208557
0.000206482
0.000204449
0.000202461
0.000200517
0.000198621
0.000196772
0.000194973
0.000193225
0.000191529
0.000189884
0.00018829
0.000186746
0.000185245
0.000183791
0.000182355
0.000180992
0.000179507
0.000178384
0.000176288
0.000175965
0.000172986
0.000172124
1.28728e-05
7.40514e-05
0.000174295
0.000251894
0.000303705
0.000333439
0.000344311
0.000341506
0.000328914
0.000310024
0.00029069
0.000278241
0.000275976
0.000282392
0.000292431
0.00030297
0.000315428
0.000332054
0.000353323
0.000378187
0.000405322
0.000433401
0.000471169
0.00051731
0.000562771
0.000606783
0.00064977
0.000693345
0.000732649
0.000763918
0.000788914
0.00080873
0.000824439
0.000836903
0.000846903
0.000855214
0.000862538
0.000869517
0.00087669
0.000884412
0.000892792
0.000901706
0.000910916
0.000920185
0.000929335
0.000938247
0.000946845
0.00095508
0.000962917
0.000970327
0.000977288
0.000983769
0.00098977
0.000995281
0.0010003
0.00100483
0.00100887
0.00101242
0.00101547
0.00101803
0.0010201
0.00102167
0.00102276
0.0010233
0.00102346
0.00102317
0.00102238
0.00102114
0.00101945
0.00101734
0.0010148
0.00101186
0.00100852
0.00100481
0.00100073
0.000996305
0.000991542
0.000986458
0.000981068
0.000975388
0.000969433
0.000963217
0.000956756
0.000950065
0.00094316
0.000936054
0.000928764
0.000921303
0.000913684
0.000905922
0.000898027
0.000890012
0.000881885
0.000873655
0.000865329
0.000856919
0.000848435
0.000839894
0.000831313
0.000822704
0.000814078
0.000805444
0.000796811
0.000788185
0.000779575
0.000770986
0.000762426
0.000753901
0.000745415
0.000736975
0.000728586
0.000720254
0.000711983
0.000703777
0.00069564
0.000687576
0.000679586
0.000671675
0.000663845
0.000656098
0.000648437
0.000640862
0.000633376
0.000625981
0.000618679
0.000611468
0.000604351
0.000597327
0.000590397
0.000583562
0.000576822
0.000570177
0.000563627
0.000557164
0.000550788
0.000544502
0.000538306
0.000532203
0.000526192
0.000520273
0.000514444
0.000508704
0.000503054
0.000497491
0.000492014
0.000486622
0.000481315
0.00047609
0.000470948
0.000465886
0.000460904
0.000456
0.000451174
0.000446424
0.00044175
0.000437149
0.000432622
0.000428166
0.000423782
0.000419466
0.000415219
0.000411038
0.000406922
0.000402868
0.000398874
0.000394936
0.000391051
0.000387213
0.000383416
0.000379651
0.000375907
0.000372168
0.000368412
0.000364619
0.000360716
0.000356738
0.000352319
0.000348017
0.000341559
0.000330407
2.17688e-05
0.00010643
0.000220254
0.000312868
0.000375571
0.000412579
0.000428024
0.000428414
0.00041848
0.00040517
0.000397032
0.000396156
0.000405234
0.000422253
0.000444805
0.000472357
0.000505513
0.000544645
0.000588948
0.000650802
0.000724472
0.0008041
0.000888317
0.000958973
0.0010214
0.00107752
0.00112794
0.00117285
0.00121213
0.00124602
0.00127527
0.00130061
0.00132273
0.00134228
0.00135982
0.00137584
0.00139076
0.00140492
0.00141858
0.00143193
0.0014451
0.00145815
0.0014711
0.00148396
0.00149665
0.00150911
0.00152124
0.00153294
0.00154413
0.00155473
0.00156468
0.00157395
0.00158253
0.00159039
0.00159752
0.00160393
0.0016096
0.00161454
0.00161874
0.0016222
0.00162492
0.0016269
0.00162806
0.00162849
0.00162837
0.00162746
0.00162583
0.00162351
0.00162051
0.00161686
0.00161256
0.00160764
0.00160212
0.00159602
0.00158937
0.00158217
0.00157447
0.00156627
0.00155761
0.0015485
0.00153897
0.00152905
0.00151875
0.00150809
0.00149711
0.00148582
0.00147425
0.00146242
0.00145034
0.00143805
0.00142555
0.00141287
0.00140002
0.00138703
0.0013739
0.00136065
0.00134731
0.00133388
0.00132039
0.00130687
0.00129331
0.00127974
0.00126617
0.00125262
0.00123909
0.00122559
0.00121214
0.00119874
0.00118541
0.00117214
0.00115896
0.00114587
0.00113287
0.00111997
0.00110717
0.00109449
0.00108193
0.00106949
0.00105717
0.00104498
0.00103292
0.001021
0.00100922
0.00099757
0.000986066
0.000974704
0.000963487
0.000952414
0.000941486
0.000930705
0.000920071
0.000909583
0.000899238
0.000889032
0.000878965
0.000869038
0.000859252
0.000849607
0.000840102
0.000830739
0.000821514
0.000812427
0.000803477
0.000794661
0.000785978
0.000777426
0.000769004
0.00076071
0.000752542
0.000744497
0.000736576
0.000728774
0.000721092
0.000713526
0.000706076
0.000698739
0.000691513
0.000684397
0.000677388
0.000670484
0.000663683
0.000656982
0.000650379
0.000643869
0.000637449
0.000631114
0.000624857
0.000618672
0.000612548
0.000606473
0.000600432
0.000594402
0.000588355
0.000582253
0.000576032
0.000569637
0.000562886
0.000555725
0.000547504
0.000531407
2.69687e-05
0.000122009
0.000241122
0.000357863
0.000435908
0.000483088
0.000506592
0.000515002
0.00051654
0.000517475
0.000524264
0.000540299
0.000566205
0.000601032
0.000644
0.000695126
0.000755037
0.000838284
0.000933805
0.00103002
0.00111901
0.00120339
0.00128275
0.00135546
0.00142224
0.00148366
0.00154014
0.00159201
0.00163962
0.0016834
0.00172384
0.00176141
0.00179655
0.00182963
0.00186097
0.00189082
0.00191936
0.00194675
0.00197308
0.00199841
0.00202277
0.00204617
0.00206862
0.00209009
0.00211055
0.00212998
0.00214835
0.00216563
0.00218178
0.00219681
0.00221068
0.00222341
0.002235
0.00224547
0.00225484
0.00226312
0.00227034
0.0022765
0.00228163
0.00228574
0.00228883
0.00229088
0.0022918
0.00229189
0.00229101
0.00228913
0.0022863
0.00228253
0.00227784
0.00227226
0.00226581
0.00225853
0.00225043
0.00224155
0.00223192
0.00222157
0.00221052
0.00219882
0.00218649
0.00217356
0.00216007
0.00214604
0.0021315
0.00211649
0.00210104
0.00208518
0.00206893
0.00205234
0.00203542
0.00201821
0.00200072
0.001983
0.00196506
0.00194692
0.00192862
0.00191016
0.00189159
0.00187291
0.00185415
0.00183534
0.0018165
0.00179764
0.00177879
0.00175996
0.00174116
0.00172241
0.00170372
0.00168512
0.0016666
0.00164818
0.00162987
0.00161168
0.00159363
0.00157571
0.00155794
0.00154033
0.00152287
0.00150559
0.00148847
0.00147153
0.00145477
0.0014382
0.00142181
0.00140562
0.00138961
0.00137381
0.0013582
0.00134279
0.00132757
0.00131256
0.00129775
0.00128313
0.00126871
0.00125449
0.00124046
0.00122661
0.00121297
0.00119951
0.00118625
0.00117317
0.00116029
0.00114759
0.00113508
0.00112275
0.0011106
0.00109864
0.00108684
0.00107522
0.00106378
0.0010525
0.00104138
0.00103043
0.00101964
0.00100901
0.000998535
0.000988212
0.000978041
0.000968016
0.000958137
0.0009484
0.000938801
0.000929337
0.000920005
0.000910799
0.000901715
0.000892746
0.000883885
0.000875123
0.000866448
0.000857846
0.000849296
0.000840775
0.000832249
0.000823674
0.000814982
0.000806102
0.000796872
0.000787142
0.000777186
0.0007574
3.07983e-05
0.000135321
0.000261516
0.000392495
0.000488783
0.000550395
0.000588108
0.000611473
0.000629142
0.000648365
0.000674391
0.000709877
0.000755566
0.000811736
0.000878773
0.000969146
0.00107418
0.00117586
0.00127506
0.00137057
0.00146128
0.00154728
0.00162854
0.00170501
0.00177699
0.00184482
0.00190885
0.00196942
0.00202684
0.00208146
0.00213359
0.00218352
0.00223151
0.00227776
0.00232243
0.00236565
0.0024075
0.00244804
0.0024873
0.00252529
0.002562
0.00259742
0.00263151
0.00266425
0.00269559
0.0027255
0.00275392
0.00278083
0.00280619
0.00282996
0.00285212
0.00287264
0.0028915
0.00290871
0.00292424
0.00293811
0.00295031
0.00296085
0.00296974
0.00297701
0.00298266
0.00298674
0.00298917
0.00299007
0.0029896
0.00298763
0.00298429
0.00297959
0.00297359
0.00296633
0.00295789
0.00294829
0.00293761
0.00292588
0.00291316
0.0028995
0.00288494
0.00286952
0.0028533
0.00283631
0.0028186
0.0028002
0.00278117
0.00276154
0.00274135
0.00272064
0.00269945
0.00267783
0.0026558
0.0026334
0.00261067
0.00258764
0.00256434
0.00254081
0.00251708
0.00249317
0.00246912
0.00244495
0.00242069
0.00239637
0.00237201
0.00234763
0.00232327
0.00229894
0.00227465
0.00225044
0.00222631
0.00220228
0.00217837
0.00215459
0.00213095
0.00210747
0.00208416
0.00206103
0.00203808
0.00201534
0.0019928
0.00197047
0.00194837
0.00192649
0.00190484
0.00188342
0.00186225
0.00184132
0.00182063
0.00180019
0.00178
0.00176007
0.00174038
0.00172095
0.00170177
0.00168285
0.00166417
0.00164574
0.00162756
0.00160962
0.00159192
0.00157447
0.00155726
0.00154029
0.00152357
0.00150707
0.00149081
0.00147479
0.00145899
0.00144341
0.00142806
0.00141292
0.001398
0.0013833
0.0013688
0.00135451
0.00134042
0.00132653
0.00131283
0.00129933
0.00128602
0.00127289
0.00125994
0.00124717
0.00123458
0.00122216
0.0012099
0.0011978
0.00118586
0.00117406
0.00116241
0.00115088
0.00113946
0.00112815
0.00111691
0.00110573
0.00109456
0.00108336
0.00107206
0.00106059
0.00104879
0.00103657
0.0010244
0.00100194
3.2349e-05
0.000142507
0.000273987
0.000409889
0.000527835
0.000609052
0.000665089
0.000706978
0.000743927
0.000783187
0.000829812
0.000886756
0.000955631
0.00104784
0.00115475
0.00126131
0.00136739
0.00147075
0.00157082
0.00166719
0.0017596
0.00184805
0.00193263
0.0020135
0.0020909
0.00216511
0.0022364
0.00230504
0.00237128
0.00243537
0.0024975
0.00255786
0.0026166
0.00267384
0.00272965
0.0027841
0.00283722
0.00288902
0.0029395
0.00298864
0.00303641
0.00308277
0.00312768
0.00317109
0.00321295
0.0032532
0.0032918
0.00332868
0.00336381
0.00339713
0.00342859
0.00345817
0.00348583
0.00351153
0.00353525
0.00355698
0.00357668
0.00359437
0.00361002
0.00362364
0.00363524
0.00364482
0.0036524
0.00365802
0.00366167
0.00366329
0.0036632
0.00366121
0.00365744
0.00365192
0.00364471
0.00363587
0.00362545
0.00361352
0.00360014
0.00358537
0.00356928
0.00355194
0.00353341
0.00351376
0.00349306
0.00347137
0.00344877
0.00342531
0.00340106
0.00337608
0.00335044
0.00332419
0.00329738
0.00327007
0.00324232
0.00321417
0.00318566
0.00315685
0.00312777
0.00309846
0.00306896
0.00303931
0.00300955
0.0029797
0.0029498
0.00291988
0.00288996
0.00286008
0.00283026
0.00280052
0.00277088
0.00274136
0.00271198
0.00268277
0.00265372
0.00262487
0.00259622
0.00256778
0.00253958
0.00251161
0.00248389
0.00245644
0.00242924
0.00240232
0.00237568
0.00234932
0.00232325
0.00229748
0.002272
0.00224682
0.00222194
0.00219736
0.00217309
0.00214912
0.00212546
0.0021021
0.00207904
0.00205628
0.00203382
0.00201165
0.00198978
0.0019682
0.00194691
0.00192591
0.0019052
0.00188477
0.00186462
0.00184475
0.00182516
0.00180583
0.00178677
0.00176797
0.00174943
0.00173115
0.00171312
0.00169533
0.00167779
0.00166049
0.00164342
0.00162658
0.00160997
0.00159359
0.00157742
0.00156147
0.00154572
0.00153019
0.00151485
0.00149971
0.00148476
0.00146999
0.00145539
0.00144094
0.00142665
0.00141248
0.00139842
0.00138444
0.0013705
0.00135655
0.00134253
0.00132836
0.00131389
0.00129914
0.00128413
0.00125989
3.27982e-05
0.000144138
0.000275344
0.000409488
0.00053942
0.000642724
0.000719791
0.000781109
0.000836796
0.000894534
0.000961966
0.00105378
0.00116329
0.00128499
0.00140055
0.0015118
0.00161963
0.0017242
0.00182546
0.00192335
0.00201785
0.00210907
0.00219713
0.00228224
0.00236461
0.00244445
0.002522
0.00259746
0.00267103
0.00274288
0.00281315
0.00288196
0.00294939
0.00301552
0.00308039
0.00314401
0.00320639
0.0032675
0.00332733
0.00338583
0.00344295
0.00349865
0.00355285
0.0036055
0.00365654
0.00370589
0.00375349
0.00379929
0.00384321
0.0038852
0.0039252
0.00396317
0.00399905
0.00403281
0.0040644
0.0040938
0.00412098
0.00414591
0.00416858
0.00418898
0.00420711
0.00422296
0.00423654
0.00424787
0.00425696
0.00426383
0.00426855
0.004271
0.00427143
0.00426979
0.00426612
0.00426048
0.00425291
0.00424348
0.00423225
0.00421928
0.00420463
0.00418837
0.00417057
0.00415131
0.00413064
0.00410865
0.0040854
0.00406097
0.00403543
0.00400886
0.00398131
0.00395287
0.0039236
0.00389357
0.00386284
0.00383148
0.00379955
0.00376711
0.00373421
0.00370091
0.00366727
0.00363333
0.00359915
0.00356478
0.00353025
0.00349562
0.00346091
0.00342618
0.00339144
0.00335675
0.00332212
0.00328758
0.00325316
0.00321889
0.00318479
0.00315088
0.00311717
0.0030837
0.00305046
0.00301748
0.00298477
0.00295235
0.00292021
0.00288838
0.00285686
0.00282566
0.00279478
0.00276424
0.00273403
0.00270416
0.00267463
0.00264545
0.00261661
0.00258813
0.00255999
0.00253219
0.00250475
0.00247764
0.00245089
0.00242447
0.00239839
0.00237265
0.00234724
0.00232217
0.00229743
0.00227301
0.00224892
0.00222516
0.00220171
0.00217857
0.00215574
0.00213321
0.00211099
0.00208906
0.00206742
0.00204607
0.002025
0.00200421
0.0019837
0.00196346
0.00194348
0.00192376
0.0019043
0.00188509
0.00186612
0.0018474
0.00182892
0.00181066
0.00179263
0.00177481
0.00175719
0.00173977
0.00172252
0.00170543
0.00168848
0.00167163
0.00165486
0.0016381
0.00162129
0.00160436
0.00158716
0.00156977
0.00155183
0.0015257
3.22407e-05
0.000141214
0.000268946
0.000398088
0.00052196
0.000634105
0.000727876
0.000808904
0.000891738
0.000986919
0.00109602
0.0012206
0.00135695
0.00148445
0.00160474
0.00171975
0.00183047
0.00193724
0.0020404
0.00214028
0.00223712
0.0023311
0.00242242
0.0025113
0.00259792
0.00268251
0.00276524
0.0028463
0.00292583
0.00300397
0.00308081
0.00315644
0.00323092
0.00330428
0.00337653
0.00344767
0.00351767
0.0035865
0.00365411
0.00372044
0.00378542
0.003849
0.00391108
0.00397161
0.00403049
0.00408765
0.00414301
0.00419651
0.00424805
0.00429759
0.00434504
0.00439036
0.00443348
0.00447435
0.00451293
0.00454918
0.00458306
0.00461454
0.0046436
0.00467023
0.0046944
0.00471613
0.00473541
0.00475224
0.00476664
0.00477863
0.00478824
0.00479547
0.0048004
0.00480297
0.00480336
0.00480154
0.00479758
0.00479151
0.00478341
0.00477333
0.00476133
0.00474747
0.00473183
0.00471447
0.00469546
0.00467488
0.00465279
0.00462926
0.00460438
0.0045782
0.00455082
0.00452229
0.00449269
0.0044621
0.00443058
0.00439819
0.00436501
0.00433111
0.00429654
0.00426137
0.00422566
0.00418947
0.00415287
0.00411589
0.00407861
0.00404106
0.00400331
0.00396538
0.00392734
0.00388922
0.00385106
0.0038129
0.00377477
0.00373671
0.00369874
0.00366089
0.0036232
0.00358569
0.00354838
0.00351128
0.00347443
0.00343783
0.00340151
0.00336547
0.00332974
0.00329432
0.00325923
0.00322447
0.00319005
0.00315598
0.00312226
0.0030889
0.00305591
0.00302328
0.00299103
0.00295914
0.00292763
0.00289648
0.00286571
0.00283531
0.00280527
0.00277561
0.00274631
0.00271737
0.0026888
0.00266059
0.00263274
0.00260524
0.0025781
0.0025513
0.00252484
0.00249872
0.00247294
0.00244748
0.00242236
0.00239755
0.00237307
0.00234889
0.00232503
0.00230147
0.00227821
0.00225524
0.00223257
0.00221018
0.00218807
0.00216623
0.00214466
0.00212336
0.00210231
0.00208151
0.00206094
0.00204059
0.00202045
0.0020005
0.00198071
0.00196105
0.00194149
0.00192196
0.00190241
0.00188276
0.00186287
0.00184281
0.00182207
0.00179374
3.08718e-05
0.000135128
0.000258145
0.000383446
0.000505409
0.000621474
0.000732091
0.000840985
0.000955732
0.00108148
0.00121949
0.00136918
0.00151146
0.00164344
0.0017677
0.00188612
0.00199984
0.0021095
0.00221546
0.00231796
0.00241737
0.00251408
0.00260839
0.00270056
0.00279081
0.00287934
0.00296634
0.00305196
0.00313634
0.00321959
0.00330178
0.00338299
0.00346323
0.00354253
0.00362088
0.00369825
0.0037746
0.00384988
0.00392402
0.00399696
0.0040686
0.00413887
0.00420768
0.00427494
0.00434055
0.00440442
0.00446648
0.00452662
0.00458477
0.00464085
0.00469479
0.0047465
0.00479594
0.00484304
0.00488774
0.00493001
0.0049698
0.00500707
0.00504181
0.00507398
0.00510357
0.00513058
0.005155
0.00517684
0.0051961
0.0052128
0.00522697
0.00523862
0.0052478
0.00525452
0.00525884
0.00526077
0.00526043
0.00525782
0.00525301
0.00524604
0.00523699
0.00522591
0.00521287
0.00519793
0.00518117
0.00516265
0.00514245
0.00512063
0.00509727
0.00507244
0.00504622
0.00501867
0.00498987
0.0049599
0.00492881
0.00489669
0.0048636
0.0048296
0.00479477
0.00475916
0.00472285
0.0046859
0.00464837
0.00461031
0.00457179
0.00453286
0.00449358
0.004454
0.00441416
0.00437411
0.0043339
0.00429358
0.00425317
0.00421273
0.00417228
0.00413186
0.00409151
0.00405125
0.00401112
0.00397113
0.00393132
0.00389171
0.00385232
0.00381316
0.00377426
0.00373564
0.0036973
0.00365926
0.00362154
0.00358414
0.00354708
0.00351035
0.00347398
0.00343797
0.00340232
0.00336704
0.00333212
0.00329758
0.00326341
0.00322962
0.0031962
0.00316316
0.0031305
0.00309821
0.0030663
0.00303477
0.00300361
0.00297282
0.00294239
0.00291234
0.00288265
0.00285331
0.00282434
0.00279571
0.00276744
0.00273951
0.00271192
0.00268467
0.00265775
0.00263117
0.0026049
0.00257896
0.00255333
0.00252802
0.00250301
0.0024783
0.00245389
0.00242976
0.00240592
0.00238235
0.00235904
0.00233598
0.00231315
0.00229053
0.0022681
0.00224582
0.00222365
0.00220155
0.00217943
0.00215723
0.00213484
0.00211226
0.00208896
0.0020583
2.93204e-05
0.000128805
0.000248264
0.000372503
0.000497127
0.000621029
0.000745634
0.000874913
0.00101211
0.0011593
0.00131662
0.00147839
0.00162619
0.00176264
0.00189074
0.00201249
0.00212919
0.00224163
0.00235037
0.00245579
0.00255818
0.00265775
0.00275492
0.00285006
0.00294346
0.00303534
0.0031259
0.00321531
0.0033037
0.00339116
0.00347778
0.00356359
0.00364863
0.00373288
0.00381633
0.00389893
0.00398064
0.00406138
0.00414108
0.00421964
0.00429698
0.00437299
0.00444757
0.00452063
0.00459205
0.00466174
0.0047296
0.00479552
0.00485942
0.00492121
0.00498081
0.00503813
0.00509311
0.00514568
0.00519578
0.00524336
0.00528837
0.00533079
0.00537056
0.00540768
0.00544211
0.00547386
0.00550291
0.00552927
0.00555295
0.00557395
0.0055923
0.00560802
0.00562114
0.0056317
0.00563973
0.00564527
0.00564838
0.0056491
0.0056475
0.00564362
0.00563753
0.00562928
0.00561894
0.00560658
0.00559225
0.00557604
0.00555801
0.00553822
0.00551677
0.00549371
0.00546912
0.00544307
0.00541563
0.00538688
0.00535688
0.00532571
0.00529343
0.00526012
0.00522583
0.00519064
0.00515461
0.0051178
0.00508028
0.00504211
0.00500335
0.00496406
0.00492429
0.00488409
0.00484353
0.00480264
0.00476148
0.00472008
0.00467851
0.00463679
0.00459497
0.00455309
0.00451118
0.00446927
0.00442741
0.00438561
0.00434391
0.00430233
0.00426091
0.00421966
0.0041786
0.00413777
0.00409716
0.00405681
0.00401672
0.00397691
0.0039374
0.0038982
0.00385931
0.00382075
0.00378253
0.00374465
0.00370711
0.00366993
0.00363311
0.00359665
0.00356055
0.00352482
0.00348946
0.00345447
0.00341985
0.0033856
0.00335173
0.00331823
0.0032851
0.00325234
0.00321994
0.00318791
0.00315625
0.00312494
0.003094
0.00306341
0.00303317
0.00300328
0.00297373
0.00294453
0.00291567
0.00288714
0.00285895
0.00283108
0.00280354
0.00277631
0.0027494
0.00272279
0.00269649
0.00267047
0.00264474
0.00261927
0.00259405
0.00256907
0.00254429
0.00251968
0.0024952
0.0024708
0.00244641
0.00242196
0.00239734
0.00237254
0.00234704
0.00231423
2.76261e-05
0.000122204
0.000238233
0.000361787
0.000489224
0.000619914
0.000756114
0.000899606
0.00105207
0.00121401
0.00138594
0.0015519
0.00170368
0.00184399
0.0019756
0.00210048
0.00221997
0.00233503
0.0024463
0.00255428
0.00265936
0.00276184
0.00286199
0.00296
0.00305629
0.00315115
0.00324482
0.00333749
0.00342929
0.00352035
0.00361072
0.00370044
0.00378955
0.00387801
0.00396581
0.00405289
0.00413918
0.0042246
0.00430907
0.00439248
0.00447473
0.00455571
0.00463529
0.00471338
0.00478985
0.0048646
0.00493751
0.00500848
0.0050774
0.00514419
0.00520875
0.00527099
0.00533085
0.00538824
0.00544311
0.0054954
0.00554505
0.00559204
0.00563631
0.00567785
0.00571664
0.00575265
0.00578589
0.00581636
0.00584405
0.00586898
0.00589118
0.00591066
0.00592745
0.00594158
0.0059531
0.00596203
0.00596844
0.00597236
0.00597385
0.00597298
0.00596982
0.00596438
0.00595676
0.00594701
0.0059352
0.0059214
0.00590568
0.0058881
0.00586875
0.00584769
0.005825
0.00580074
0.00577499
0.00574782
0.0057193
0.0056895
0.00565849
0.00562633
0.00559309
0.00555884
0.00552365
0.00548757
0.00545068
0.00541303
0.00537469
0.00533571
0.00529615
0.00525607
0.00521552
0.00517454
0.00513319
0.00509152
0.00504957
0.00500739
0.00496501
0.00492248
0.00487984
0.00483713
0.00479437
0.0047516
0.00470886
0.00466616
0.00462355
0.00458104
0.00453866
0.00449644
0.00445439
0.00441254
0.0043709
0.00432948
0.00428832
0.00424742
0.00420679
0.00416644
0.00412639
0.00408665