/*--------------------------------*- C++ -*----------------------------------*\
  =========                 |
  \\      /  F ield         | OpenFOAM: The Open Source CFD Toolbox
   \\    /   O peration     | Website:  https://openfoam.org
    \\  /    A nd           | Version:  8
     \\/     M anipulation  |
\*---------------------------------------------------------------------------*/
FoamFile
{
    version     2.0;
    format      ascii;
    class       volVectorField;
    location    "2100";
    object      wallShearStress;
}
// * * * * * * * * * * * * * * * * * * * * * * * * * * * * * * * * * * * * * //

dimensions      [0 2 -2 0 0 0 0];

internalField   uniform (0 0 0);

boundaryField
{
    inlet
    {
        type            calculated;
        value           uniform (0 0 0);
    }
    outlet
    {
        type            calculated;
        value           uniform (0 0 0);
    }
    upperWall
    {
        type            calculated;
        value           nonuniform List<vector> 
223
(
(-0.582193 -0.392359 0)
(-0.977814 -0.219377 0)
(-0.939336 -0.0567747 0)
(-0.81071 -0.00585788 0)
(-0.734594 0.00331368 0)
(-0.695452 0.00231539 0)
(-0.67094 0.0004243 0)
(-0.6535 -0.00144896 0)
(-0.640541 -0.00256684 0)
(-0.629801 -0.00217397 0)
(-0.620128 -0.00134621 0)
(-0.610876 -0.000985211 0)
(-0.603119 -0.00163203 0)
(-0.597042 -0.00155392 0)
(-0.590602 0.000492324 0)
(-0.584433 0.000986321 0)
(-0.579778 -0.000241725 0)
(-0.575269 0.000870896 0)
(-0.570771 0.00263081 0)
(-0.567431 0.00184028 4.23284e-22)
(-0.564755 0.00123541 0)
(-0.561951 0.00280869 0)
(-0.558576 0.0030805 0)
(-0.55551 0.00260442 4.46734e-22)
(-0.55286 0.00288849 0)
(-0.550044 0.00332077 0)
(-0.547174 0.00352763 0)
(-0.544236 0.00352751 -9.38326e-22)
(-0.541362 0.00306559 9.46502e-22)
(-0.538646 0.00261295 9.56898e-22)
(-0.535973 0.0024851 0)
(-0.533262 0.00219322 -9.78843e-22)
(-0.530612 0.00193282 0)
(-0.527977 0.0017329 1.00179e-21)
(-0.525334 0.00156362 1.01384e-21)
(-0.522681 0.00143379 -1.02638e-21)
(-0.52001 0.00132941 0)
(-0.517323 0.00124719 0)
(-0.514616 0.00118384 0)
(-0.511886 0.00113557 0)
(-0.509128 0.00109924 -1.09098e-21)
(-0.506341 0.00107239 0)
(-0.503523 0.00105342 0)
(-0.500669 0.00104098 1.13106e-21)
(-0.497777 0.00103386 0)
(-0.494844 0.00103128 1.15752e-21)
(-0.491866 0.0010325 -1.1705e-21)
(-0.488841 0.00103676 1.18325e-21)
(-0.485764 0.00104373 0)
(-0.482634 0.0010521 0)
(-0.479448 0.00106108 0)
(-0.47621 0.00106962 1.23075e-21)
(-0.472924 0.00107658 -1.24142e-21)
(-0.469602 0.0010821 0)
(-0.466259 0.00108733 0)
(-0.46291 0.00109266 0)
(-0.459565 0.00109727 0)
(-0.456231 0.00110005 0)
(-0.452907 0.0011002 0)
(-0.449589 0.00109785 0)
(-0.446269 0.00109357 0)
(-0.442937 0.00108838 1.29198e-21)
(-0.439582 0.00108354 -1.29176e-21)
(-0.436194 0.00107985 0)
(-0.43276 0.00107799 0)
(-0.429269 0.00107812 0)
(-0.425715 0.00108028 -1.27838e-21)
(-0.422087 0.00108441 0)
(-0.418379 0.00109021 0)
(-0.414586 0.00109735 0)
(-0.410702 0.00110533 0)
(-0.406726 0.00111377 0)
(-0.402654 0.0011222 -2.43436e-21)
(-0.398485 0.00113 0)
(-0.394222 0.00113665 0)
(-0.389867 0.00114164 0)
(-0.385425 0.00114477 0)
(-0.380906 0.00114591 0)
(-0.376321 0.00114496 0)
(-0.371681 0.00114159 0)
(-0.367 0.00113554 2.0953e-21)
(-0.362287 0.00112675 0)
(-0.357549 0.0011152 0)
(-0.352793 0.00110119 0)
(-0.34802 0.00108536 -1.83963e-21)
(-0.34323 0.00106823 0)
(-0.33842 0.00105034 -1.69019e-21)
(-0.333589 0.00103243 0)
(-0.32873 0.00101537 0)
(-0.323835 0.000999881 0)
(-0.319024 0.000992056 -1.35099e-21)
(-0.316383 0.0010012 0)
(-0.313659 0.00101509 1.1805e-21)
(-0.310854 0.00102968 1.0898e-21)
(-0.307974 0.0010429 0)
(-0.305029 0.00105381 8.9611e-22)
(-0.302032 0.00106252 0)
(-0.298995 0.00106998 0)
(-0.295934 0.00107674 0)
(-0.292862 0.00108507 -4.54672e-22)
(-0.289794 0.00109213 0)
(-0.286741 0.00110428 -2.05276e-22)
(-0.283718 0.00110231 7.32106e-23)
(-0.28073 0.00110917 0)
(-0.277798 0.00111395 0)
(-0.274914 0.00110806 0)
(-0.272105 0.00109726 0)
(-0.269342 0.00104543 0)
(-0.266684 0.000958257 0)
(-0.264098 0.000941428 0)
(-0.261628 0.000923251 1.15038e-21)
(-0.259159 0.000853986 0)
(-0.257006 0.000793608 0)
(-0.254689 0.000759961 0)
(-0.252618 0.000759238 0)
(-0.250464 0.000827162 0)
(-0.24855 0.000821261 0)
(-0.246527 0.000677484 0)
(-0.244445 0.000800805 0)
(-0.242669 0.000897055 0)
(-0.240693 0.000885895 0)
(-0.239003 0.00137931 0)
(-0.237275 0.00152714 0)
(-0.235827 0.00121686 7.09633e-21)
(-0.234164 0.00125922 0)
(-0.232799 0.000931123 0)
(-0.231107 0.000790031 0)
(-0.229611 0.00105468 -8.73624e-21)
(-0.228216 0.000396548 0)
(-0.226365 -0.000220514 0)
(-0.224529 -3.20744e-06 -1.01208e-20)
(-0.223158 0.00018464 0)
(-0.221642 0.000258472 1.09317e-20)
(-0.220493 0.000325356 0)
(-0.219113 0.000286089 0)
(-0.217634 0.000326973 0)
(-0.216267 0.000460662 -1.26073e-20)
(-0.214932 0.000476424 0)
(-0.213899 0.000577053 1.34153e-20)
(-0.212762 0.000581672 0)
(-0.211806 0.00046071 0)
(-0.210806 0.00085717 0)
(-0.209846 0.00110309 0)
(-0.209256 0.00103191 0)
(-0.208273 0.000407362 0)
(-0.206975 -0.000165966 0)
(-0.205877 -1.76522e-05 0)
(-0.205082 2.52747e-05 0)
(-0.204046 0.000120314 0)
(-0.203338 0.000218574 0)
(-0.202773 0.000238442 1.84719e-20)
(-0.202067 0.000332416 -1.88908e-20)
(-0.201462 0.000392802 0)
(-0.200835 0.000349769 0)
(-0.200356 0.000738306 0)
(-0.199752 0.000951457 0)
(-0.199391 0.000581511 -2.0834e-20)
(-0.198816 0.000525774 2.13095e-20)
(-0.198542 0.000614532 -2.16082e-20)
(-0.19845 0.000472206 0)
(-0.19791 0.000358459 -2.2442e-20)
(-0.197584 0.000353419 -4.55757e-20)
(-0.196817 -5.17471e-05 0)
(-0.195762 -0.000473429 -4.78816e-20)
(-0.195008 -0.000262084 4.86916e-20)
(-0.194241 -4.2578e-05 0)
(-0.19391 8.2448e-06 0)
(-0.193946 0.000104236 0)
(-0.193347 0.000159452 0)
(-0.192845 0.000106759 0)
(-0.192591 0.000159349 -5.34035e-20)
(-0.192081 0.000237904 0)
(-0.191464 0.000229717 -5.53775e-20)
(-0.191007 0.000233918 0)
(-0.19038 0.00029303 0)
(-0.190147 0.000333716 0)
(-0.189448 0.000590114 0)
(-0.189132 0.000767386 0)
(-0.188816 0.000629448 6.06434e-20)
(-0.188829 0.000447742 0)
(-0.188168 0.000499736 0)
(-0.18722 0.000558406 -6.38484e-20)
(-0.18686 3.72183e-05 0)
(-0.185487 -0.000244439 0)
(-0.184109 -4.68216e-05 0)
(-0.183138 0.000111901 6.9084e-20)
(-0.181946 0.000237613 0)
(-0.180683 0.000293603 0)
(-0.179083 0.000344274 0)
(-0.177426 0.000439476 0)
(-0.174896 0.000474389 -7.73917e-20)
(-0.172815 0.000565546 0)
(-0.169424 0.000732595 0)
(-0.165652 0.000896737 0)
(-0.160985 0.00113483 8.85622e-20)
(-0.154249 0.00157744 0)
(-0.147724 0.00259919 0)
(-0.123377 0.00246843 -1.07312e-19)
(-0.141379 0.00679834 0)
(-0.169496 0.0132668 1.25397e-17)
(-0.187097 0.017132 2.3499e-17)
(-0.193284 0.0189126 2.27553e-17)
(-0.19679 0.0196848 2.2008e-17)
(-0.201002 0.0203246 2.11371e-17)
(-0.205481 0.0210327 -2.02437e-17)
(-0.209742 0.0215379 -1.95251e-17)
(-0.213922 0.0218829 -6.01853e-36)
(-0.21812 0.0220223 -3.66552e-17)
(-0.220234 0.0221822 -1.80739e-17)
(-0.224687 0.0227202 4.87501e-34)
(-0.227505 0.0229032 -1.20371e-35)
(-0.231049 0.0233631 -3.22782e-17)
(-0.235335 0.0239353 -3.06851e-17)
(-0.242336 0.0247792 -2.84655e-17)
(-0.249517 0.025445 -2.40741e-35)
(-0.256859 0.0260682 4.94035e-17)
(-0.263909 0.0266477 2.26461e-17)
(-0.272751 0.0274464 1.20371e-35)
(-0.282655 0.0283572 -3.48618e-17)
(-0.291214 0.0289993 -1.58066e-20)
(-0.300879 0.0295776 0)
(-0.304434 0.0304164 1.3485e-17)
(-0.332558 0.0321492 -7.62894e-18)
)
;
    }
    lowerWall
    {
        type            calculated;
        value           nonuniform List<vector> 
250
(
(-0.653909 0.466638 0)
(-1.14095 0.204678 0)
(-1.03492 0.0379587 0)
(-0.869573 -0.000935979 0)
(-0.786941 -0.00419162 0)
(-0.746063 -0.00160781 0)
(-0.719878 0.00041618 0)
(-0.700645 -0.000651805 0)
(-0.685088 -0.00405596 0)
(-0.671318 -0.00471221 0)
(-0.658933 -0.00298823 0)
(-0.64772 -0.00086424 0)
(-0.637517 0.00142611 0)
(-0.62819 0.00210387 0)
(-0.61932 0.00136791 0)
(-0.611521 0.00135757 0)
(-0.604581 0.00169585 0)
(-0.605068 0.00194333 0)
(-0.00426047 -0.022858 0)
(-0.00275889 -0.0176425 0)
(-0.000676927 -0.0144931 0)
(0.00194465 -0.0137776 9.02244e-20)
(0.00526907 -0.0151979 -7.8618e-20)
(0.00896172 -0.0208209 6.28487e-20)
(0.0127401 -0.0200853 -4.84729e-20)
(0.0256286 -0.0633142 0)
(-0.084062 -0.144715 0)
(0.000872167 -0.00384017 0)
(-0.00766537 0.00954753 0)
(-0.00851587 0.0328219 0)
(-0.00254913 0.0448554 0)
(0.0029536 0.0442611 1.82219e-20)
(0.00618293 0.0360627 -1.89655e-20)
(0.00818744 0.0241605 0)
(0.00946071 0.0101599 -5.42285e-20)
(0.00943178 -0.00404313 6.11417e-20)
(0.00793328 -0.0174231 0)
(0.00614123 -0.0291956 0)
(0.00438169 -0.0385633 0)
(0.00268716 -0.0451402 0)
(0.000986006 -0.0488801 0)
(-0.000885172 -0.0495152 0)
(-0.00282057 -0.0464088 0)
(-0.00437906 -0.0399029 0)
(-0.00492621 -0.030827 0)
(0.0013287 -0.00151184 0)
(0.00133788 0.00652735 0)
(-0.0045093 0.00961872 0)
(-0.00959726 0.00975655 0)
(-0.0133832 0.00829953 0)
(-0.0158894 0.00623521 0)
(-0.0172643 0.00409763 1.49571e-21)
(-0.017783 0.00200613 -1.52731e-21)
(-0.0173314 -6.96994e-06 0)
(-0.0160539 -0.0016862 -1.65306e-21)
(-0.0141885 -0.00283748 0)
(-0.0120505 -0.00329636 0)
(-0.0100508 -0.00303579 -0)
(-0.00855324 -0.00228021 2.57023e-21)
(-0.00761659 -0.00142303 0)
(-0.00693827 -0.000815856 0)
(-0.00612072 -0.00062344 -3.3781e-21)
(-0.00499305 -0.00100049 0)
(-0.0034086 -0.00238602 0)
(-0.000488551 -0.00505772 0)
(0.00436095 -0.00740378 3.03298e-21)
(0.00994599 -0.00889523 0)
(0.015847 -0.00985003 1.4691e-21)
(0.0218924 -0.010617 0)
(0.0280983 -0.011269 -0)
(0.0344087 -0.0115144 8.44685e-22)
(0.0405413 -0.0113547 0)
(0.0491494 -0.0116033 -7.54035e-22)
(0.0589394 -0.0117553 -0)
(0.0686337 -0.0115828 7.70699e-22)
(0.0780427 -0.011169 0)
(0.0870157 -0.0105841 0)
(0.09546 -0.00989006 0)
(0.103318 -0.0091365 -0)
(0.110564 -0.0083606 0)
(0.117197 -0.0075896 -8.11152e-22)
(0.123231 -0.00684042 -0)
(0.128686 -0.00612262 1.63308e-21)
(0.133592 -0.00544035 0)
(0.137974 -0.00479405 -1.63495e-21)
(0.141859 -0.00418205 -0)
(0.145272 -0.00360138 -0)
(0.148232 -0.00304946 1.62105e-21)
(0.150758 -0.00252406 0)
(0.152864 -0.00202407 1.60083e-21)
(0.154562 -0.00155025 -1.58752e-21)
(0.155863 -0.00110621 -0)
(0.156782 -0.000698852 -1.5549e-21)
(0.157328 -0.000337762 -1.53587e-21)
(0.157514 -3.97312e-05 -0)
(0.157408 0.000194747 0)
(0.157077 0.000391538 0)
(0.156523 0.000568251 0)
(0.155761 0.000731087 -0)
(0.154801 0.000884283 1.3758e-21)
(0.153649 0.00102841 0)
(0.152312 0.00116402 -1.30702e-21)
(0.150799 0.00129168 -0)
(0.149116 0.00141134 -0)
(0.147271 0.0015229 1.19056e-21)
(0.145272 0.00162643 0)
(0.143126 0.00172193 -1.10487e-21)
(0.140842 0.00180936 -0)
(0.138429 0.00188865 0)
(0.135895 0.00195985 -0)
(0.133249 0.00202313 9.16841e-22)
(0.130501 0.00207848 0)
(0.127659 0.00212601 -0)
(0.124733 0.00216595 7.63799e-22)
(0.121732 0.00219843 0)
(0.118665 0.00222362 6.57265e-22)
(0.115541 0.00224182 0)
(0.11237 0.00225329 0)
(0.10916 0.00225827 0)
(0.105919 0.00225707 -4.36184e-22)
(0.102656 0.00224993 -0)
(0.0993796 0.00223723 0)
(0.0960968 0.00221929 -2.6558e-22)
(0.0928155 0.0021964 -2.0813e-22)
(0.0895426 0.00216893 -0)
(0.0862851 0.00213725 -9.2661e-23)
(0.083049 0.00210167 -0)
(0.0798408 0.0020626 4.6591e-23)
(0.0766654 0.00202044 -0)
(0.0735286 0.00197563 2.79007e-22)
(0.0704347 0.00192873 0)
(0.0673878 0.00188018 -5.11691e-22)
(0.0643922 0.00183084 -0)
(0.0614506 0.00178164 0)
(0.0585659 0.00173381 -0)
(0.0557401 0.00168926 9.78458e-22)
(0.0529741 0.00164999 0)
(0.050269 0.00161816 -1.2139e-21)
(0.0476228 0.00159492 0)
(0.0457842 0.00160356 1.47567e-21)
(0.0442418 0.0016211 1.63418e-21)
(0.0427027 0.00162601 1.7991e-21)
(0.0411754 0.0016131 0)
(0.0396651 0.0015898 0)
(0.0381712 0.00156413 0)
(0.036693 0.0015383 0)
(0.03523 0.00151258 0)
(0.033783 0.00148699 0)
(0.0323519 0.00146153 0)
(0.0309378 0.00143627 0)
(0.0295409 0.00141146 -3.6919e-21)
(0.0281614 0.00138726 -3.96757e-21)
(0.0267998 0.00136385 0)
(0.0254557 0.00134087 0)
(0.0241303 0.00131678 0)
(0.0228245 0.0012919 -5.26755e-21)
(0.0215383 0.00126772 0)
(0.0202715 0.00124405 0)
(0.0190245 0.00122097 0)
(0.0177971 0.00119855 0)
(0.0165894 0.00117682 7.53626e-21)
(0.0154015 0.00115587 0)
(0.0142333 0.00113579 0)
(0.0130847 0.00111667 -9.45523e-21)
(0.0119556 0.00109856 1.02328e-20)
(0.010846 0.00108155 0)
(0.00975579 0.00106593 1.20694e-20)
(0.00868494 0.00105234 0)
(0.00763303 0.00104197 -1.44081e-20)
(0.00659942 0.00103508 0)
(0.00558376 0.00103068 0)
(0.004586 0.00102847 0)
(0.00360572 0.00102876 0)
(0.00264247 0.00103179 0)
(0.00169672 0.00103751 5.57186e-20)
(0.000769957 0.0010431 6.42317e-20)
(-0.000139854 0.00103034 0)
(-0.00103715 0.000987463 0)
(-0.00191897 0.000935063 0)
(-0.00278527 0.000885567 -5.28801e-20)
(-0.00363596 0.000840648 0)
(-0.00447086 0.000799896 0)
(-0.00529031 0.000762831 0)
(-0.00609493 0.000728958 -4.0411e-20)
(-0.00688527 0.000697808 3.83616e-20)
(-0.00766179 0.000669012 0)
(-0.008425 0.000642262 0)
(-0.00917536 0.000617311 3.36154e-20)
(-0.00991326 0.00059396 3.23754e-20)
(-0.0106392 0.000572048 0)
(-0.0113535 0.000551436 0)
(-0.0120567 0.000532015 -2.93512e-20)
(-0.0127491 0.000513689 2.85236e-20)
(-0.0134312 0.000496379 0)
(-0.0141035 0.000480007 0)
(-0.0147663 0.000464517 2.64345e-20)
(-0.01542 0.000449856 0)
(-0.0160653 0.000435981 0)
(-0.0167024 0.000422846 2.47896e-20)
(-0.0173318 0.000410413 0)
(-0.0179541 0.000398649 2.38739e-20)
(-0.0185696 0.000387527 0)
(-0.0191789 0.000377012 0)
(-0.0197823 0.000367071 0)
(-0.0203804 0.000357676 -2.23585e-20)
(-0.0209736 0.000348805 0)
(-0.0215625 0.00034038 0)
(-0.0221469 0.000332386 0)
(-0.0227278 0.000324758 0)
(-0.023305 0.000317379 0)
(-0.0238786 0.000310189 0)
(-0.0244487 0.000303011 -2.03856e-20)
(-0.0250147 0.000295633 -2.01554e-20)
(-0.0255757 0.000287795 0)
(-0.0261304 0.000279131 0)
(-0.0266766 0.0002691 0)
(-0.0272107 0.000256968 1.93607e-20)
(-0.0277281 0.000241494 0)
(-0.0282199 0.000221257 -3.81354e-20)
(-0.0286768 0.000192208 3.79292e-20)
(-0.0290697 0.000152571 3.78201e-20)
(-0.0294008 7.78406e-05 -3.78587e-20)
(-0.0294825 -3.94302e-05 3.80458e-20)
(-0.029507 -0.00035657 -3.8398e-20)
(-0.0279726 -0.000616885 0)
(-0.0293451 -0.000516217 -2.43319e-18)
(-0.0327686 -0.00134236 -2.26976e-18)
(-0.0364121 -0.00203332 -3.00927e-36)
(-0.0395327 -0.00257599 -4.06087e-18)
(-0.0424827 -0.00301853 -7.75778e-18)
(-0.0455552 -0.00342158 -3.71962e-18)
(-0.0487789 -0.00381922 3.56788e-18)
(-0.0521086 -0.00430054 -2.40741e-35)
(-0.0556029 -0.00472034 0)
(-0.0592903 -0.0050445 3.15621e-18)
(-0.0632323 -0.00542468 3.02812e-18)
(-0.0674244 -0.00583082 6.01853e-36)
(-0.0719076 -0.00626193 0)
(-0.0767237 -0.00671813 0)
(-0.0819178 -0.00720906 -3.329e-35)
(-0.0875387 -0.00774767 -1.63629e-35)
(-0.0936569 -0.00834623 1.08334e-34)
(-0.100327 -0.00900867 -4.158e-18)
(-0.107691 -0.00972913 -3.81223e-18)
(-0.11675 -0.0106222 1.80556e-35)
(-0.127567 -0.0116259 6.13656e-18)
(-0.138421 -0.012733 1.03489e-17)
(-0.153646 -0.0139265 6.01853e-36)
(-0.162846 -0.0152936 -5.09784e-18)
(-0.19196 -0.0169815 -1.80556e-35)
)
;
    }
    frontAndBack
    {
        type            empty;
    }
}


// ************************************************************************* //
