/*--------------------------------*- C++ -*----------------------------------*\
  =========                 |
  \\      /  F ield         | OpenFOAM: The Open Source CFD Toolbox
   \\    /   O peration     | Website:  https://openfoam.org
    \\  /    A nd           | Version:  8
     \\/     M anipulation  |
\*---------------------------------------------------------------------------*/
FoamFile
{
    version     2.0;
    format      ascii;
    class       volScalarField;
    location    "700";
    object      omega;
}
// * * * * * * * * * * * * * * * * * * * * * * * * * * * * * * * * * * * * * //

dimensions      [0 0 -1 0 0 0 0];

internalField   nonuniform List<scalar> 
12225
(
32582.3
32582.3
32582.3
32582.3
32582.3
32582.3
42788.9
39275.4
38543.8
32582.3
42436.4
40299.8
32582.3
32582.3
44475.9
40065.6
32582.3
45906.6
2810.14
7379.97
10389.7
11700.1
12903.2
12926.5
14844.9
16140.5
15728.8
15419.3
16168.2
16332.6
16076.3
16632.1
17696.8
17370.6
17067.2
17750.6
469.049
1284.86
2025.1
3002.47
3866.23
4486.61
4950.7
5410.7
5854.19
6126.02
6397.5
6608.72
6864.94
7087.53
7287.28
7403.42
7525.7
7704.77
364.01
582.827
827.339
1000.7
1197.47
1393.4
1553.92
1717.02
1854.89
1994.75
2094.75
2210.17
2296.15
2407.97
2472.94
2560.3
2604.69
2689.37
393.787
430.856
509.075
559.505
606.716
669.464
724.727
787.461
836.097
892.233
931.052
980.836
1014.15
1061.38
1088.85
1130.52
1149.64
1189.12
396.696
401.239
422.263
439.592
455.161
472.277
492.813
518.693
538.508
562.291
578.896
600.689
615.439
636.575
649.399
669.393
679.052
698.003
397.773
396.544
399.794
404.009
408.466
412.357
418.556
428.191
435.683
445.224
451.914
461.029
467.357
476.628
482.572
491.825
496.776
505.726
398.79
396.758
395.903
396.148
396.381
397.383
398.457
401.742
404.433
408.249
410.852
414.734
417.406
421.647
424.403
428.95
431.405
436.077
399.022
397.12
395.404
394.149
392.964
392.298
391.912
392.104
392.616
393.564
394.181
395.324
396.088
397.557
398.543
400.392
401.405
403.532
399.05
397.221
395.437
393.857
392.281
390.972
389.806
388.923
388.171
387.694
387.159
386.885
386.528
386.49
386.511
386.594
386.652
387.132
399.048
397.228
395.464
393.835
392.235
390.772
389.378
388.134
386.947
385.91
384.895
384.017
383.149
382.435
381.734
381.204
380.607
380.248
399.05
397.22
395.467
393.822
392.237
390.75
389.322
387.989
386.707
385.516
384.365
383.299
382.266
381.321
380.403
379.578
378.763
378.042
399.05
397.214
395.464
393.81
392.23
390.735
389.307
387.953
386.661
385.435
384.263
383.151
382.087
381.079
380.115
379.204
378.329
377.505
399.051
397.211
395.462
393.802
392.222
390.722
389.292
387.934
386.638
385.406
384.228
383.108
382.037
381.019
380.043
379.116
378.226
377.381
399.051
397.209
395.46
393.797
392.216
390.712
389.281
387.919
386.621
385.385
384.206
383.082
382.009
380.986
380.009
379.076
378.184
377.333
399.051
397.209
395.457
393.793
392.211
390.705
389.272
387.908
386.609
385.371
384.19
383.064
381.989
380.964
379.985
379.049
378.156
377.302
399.051
397.208
395.456
393.791
392.207
390.701
389.267
387.902
386.601
385.361
384.179
383.051
381.976
380.949
379.968
379.031
378.137
377.282
399.051
397.207
395.456
393.789
392.207
390.699
389.266
387.899
386.599
385.357
384.176
383.046
381.971
380.942
379.962
379.024
378.13
377.273
399.051
397.208
395.456
393.791
392.207
390.701
389.266
387.902
386.6
385.361
384.177
383.05
381.973
380.946
379.964
379.028
378.132
377.278
399.051
397.208
395.458
393.793
392.211
390.704
389.272
387.906
386.607
385.367
384.186
383.059
381.985
380.958
379.98
379.044
378.152
377.297
399.052
397.209
395.461
393.797
392.215
390.711
389.279
387.917
386.619
385.382
384.208
383.089
382.028
381.016
380.056
379.136
378.264
377.425
399.051
397.212
395.464
393.8
392.221
390.726
389.299
387.95
386.663
385.463
384.343
383.307
382.356
381.46
380.644
379.848
379.121
378.39
399.044
397.225
395.457
393.808
392.244
390.839
389.459
388.234
387.086
386.197
385.469
385.007
384.677
384.47
384.383
384.281
384.145
384.068
399.042
397.21
395.397
393.979
392.69
391.974
391.063
390.629
390.672
391.349
392.587
394.63
396.646
399.017
401.379
403.41
405.858
407.513
398.956
396.926
395.813
396.205
397.24
399.965
402.353
406.92
411.295
418.743
425.558
434.45
442.229
450.832
458.429
465.414
472.823
478.526
397.239
398.537
403.055
414.355
424.442
442.613
456.954
478.966
496.79
521.267
541.44
566.116
585.786
607.882
625.12
643.827
659.59
675.208
386.322
426.926
460.491
514.507
569.069
642.443
701.589
774.13
831.27
899.995
952.52
1014.69
1060.49
1111.92
1150.96
1197.69
1233.32
1274.26
398.221
669.428
917.717
1145.94
1399.9
1689.12
1919.32
2150.47
2340.06
2515.48
2657.13
2790.03
2902.23
2980.25
3085.36
3155.35
3258.58
3324.74
1263.09
3529.18
5064.61
6302.33
7311.84
8046.02
8571.89
8932.78
9177.28
9334.4
9446.07
9458.96
9446.83
9479.5
9444.22
9461.49
9460.14
9429.23
16112.1
21154.4
23197.7
24337.8
24920.5
25042.7
24989.6
24850.8
24605.3
24331.6
24049.8
23775.1
23513.6
23268.2
23044
22842.1
22661.7
22502.8
11463.3
2494.65
2496.87
2499.12
2501.38
2503.67
2505.98
2508.3
2510.65
2513.02
2515.42
2517.83
2520.27
2522.73
2525.21
2527.72
2530.25
2532.8
2535.37
2537.97
2540.6
2543.25
2545.92
2548.62
2551.34
2554.09
2556.87
2559.67
2562.5
2565.35
2568.23
2571.14
2574.08
2577.04
2580.04
2583.06
2586.11
2589.19
2592.3
2595.43
2598.6
2601.8
2605.03
2608.29
2611.59
2614.91
2618.27
2621.66
2625.08
2628.54
2632.03
2635.55
2639.11
2642.71
2646.33
2650
2653.7
2657.44
2661.21
3137.17
3278.44
3418.11
3239.27
3406.43
3483.06
3569.57
3649.63
3728.89
3802.49
3876.12
3945.74
4014.58
4080.95
4146.13
4209.57
4271.81
4332.63
4392.33
4450.79
4508.2
4564.47
4619.74
4673.95
4727.18
4779.41
4830.64
4880.91
4930.15
4978.42
5025.64
5071.81
5116.91
5160.87
5203.68
5245.26
5285.6
5324.66
5362.44
5399.06
5434.74
5469.98
5504.01
5537.16
5569.35
5600.59
5630.87
5660.18
5688.52
5715.84
5742.18
5767.49
5791.8
5815.04
5837.28
5858.44
5878.58
5897.62
5915.65
5932.57
5948.46
5963.25
5977.01
5989.68
6001.33
6011.92
6021.5
6030.05
6037.75
6044.23
6050.66
6053.88
6058.23
6059.77
6061.98
6063.4
6063.76
6063.11
6060.58
6057.53
6053.34
6048.5
6042.82
6036.48
6029.36
6021.6
6013.13
6004.06
5994.33
5984.11
5973.06
5961.82
5949.58
5937.33
5924.34
5911.21
5897.69
5884
5870.14
5856.19
5842.21
5828.26
5814.35
5800.51
5786.77
5773.15
5759.71
5746.5
5733.57
5720.98
5708.76
5696.9
5685.37
5674.08
5662.77
5651.1
5638.35
5623.6
5604.2
5575.05
5456.36
11463.3
1992.49
995.221
809.553
693.016
622.465
629.133
625.5
614.767
592.628
568.729
545.4
523.885
506.102
493.958
485.336
484.699
487.007
512.854
562.274
647.16
749.022
859.284
968.705
1065.96
1141.27
1181.75
1175
1131.89
1051.08
926.664
772.323
644.217
561.023
495.349
460.364
456.135
464.426
486.774
518.901
549.274
590.804
687.267
816.365
1021.29
1339.49
1644.51
1853.17
1986.06
2054.35
2072.06
2059.85
2018.06
1977.44
1940.72
1894.77
1819.84
1785.7
1760.33
1745.48
1704
1700.18
1679.09
1673.9
1669.03
1666.54
1665.92
1667.85
1670.78
1675.21
1680.23
1686.19
1692.56
1699.45
1706.62
1714.06
1721.66
1729.39
1737.18
1745.02
1752.86
1760.68
1768.45
1776.15
1783.76
1791.26
1798.64
1805.86
1812.93
1819.82
1826.53
1833.04
1839.35
1845.48
1851.45
1857.32
1863.2
1869.26
1875.78
1883.16
1891.97
1900.05
1908.15
1915.93
1923.52
1930.88
1938.01
1944.91
1951.58
1958.01
1964.22
1970.19
1975.93
1981.43
1986.7
1991.73
1996.54
2001.11
2005.45
2009.56
2013.45
2017.12
2020.57
2023.8
2026.82
2029.64
2032.26
2034.68
2036.89
2038.92
2040.66
2042.33
2043.76
2045.15
2046.28
2046.98
2047.03
2046.48
2045.64
2044.6
2043.39
2042.01
2040.45
2038.73
2036.86
2034.85
2032.73
2030.58
2027.38
2025.47
2021.73
2019.55
2016.1
2013.23
2009.96
2006.7
2003.37
1999.98
1996.56
1993.1
1989.63
1986.14
1982.64
1979.14
1975.66
1972.2
1968.77
1965.38
1962.05
1958.79
1955.61
1952.52
1949.5
1946.63
1943.95
1941.53
1939.46
1938.28
1937.03
1945.95
11463.3
2009.2
812.938
639.931
679.024
681.155
654.177
599.202
539.892
484.043
434.602
392.621
359.609
333.727
313.798
298.489
287.819
279.693
277.544
279.92
290.433
309.224
341.717
386.075
441.189
501.932
562.726
609.459
638.749
636.115
613.338
570.391
507.369
439.418
390.022
384.337
395.512
419.73
458.686
532.691
645.468
802.671
998.922
1174.21
1320.59
1451.78
1535.81
1562.05
1558.53
1510.31
1456.51
1395.69
1339.65
1290.79
1248.24
1211.68
1177.05
1156.38
1141.26
1130.97
1116.77
1113.84
1105.82
1104.33
1102.18
1102.25
1103.32
1105.12
1107.47
1110.33
1113.53
1117.05
1120.78
1124.7
1128.75
1132.91
1137.15
1141.44
1145.77
1150.12
1154.48
1158.83
1163.17
1167.48
1171.75
1175.98
1180.16
1184.28
1188.35
1192.36
1196.32
1200.23
1204.09
1207.93
1211.78
1215.65
1219.59
1223.65
1227.86
1232.24
1236.63
1240.82
1244.93
1248.9
1252.75
1256.47
1260.06
1263.52
1266.85
1270.05
1273.12
1276.05
1278.85
1281.51
1284.04
1286.44
1288.71
1290.84
1292.84
1294.7
1296.43
1298.04
1299.51
1300.86
1302.08
1303.17
1304.14
1304.98
1305.71
1306.3
1306.78
1307.14
1307.38
1307.52
1307.51
1307.23
1306.77
1306.11
1305.34
1304.46
1303.48
1302.4
1301.21
1299.93
1298.56
1297.09
1295.54
1293.88
1292
1290.3
1288.19
1286.38
1284.22
1282.17
1279.99
1277.77
1275.51
1273.21
1270.86
1268.49
1266.08
1263.65
1261.2
1258.73
1256.26
1253.77
1251.29
1248.81
1246.34
1243.89
1241.48
1239.12
1236.83
1234.66
1232.67
1230.99
1229.78
1229.69
1231.12
1241.5
11463.3
2037.65
1011.92
976.834
902.647
774.305
657.847
551.453
467.269
404.377
357.046
319.757
290.843
268.753
251.929
239.175
229.641
222.712
218.092
216.38
217.443
220.583
228.977
243.397
265.085
294.004
328.526
363.732
394.676
417.744
422.819
415.938
393.764
396.556
437.661
527.105
591.166
648.657
721.044
824.559
958.805
1074.6
1152.94
1220.23
1272.14
1291.36
1253.55
1210.55
1164.34
1110.97
1066.07
1024.72
991.204
963.094
940.135
921.851
907.12
897.386
890.56
885.724
881.755
880.628
878.832
878.956
879.696
881.114
883.005
885.262
887.813
890.608
893.59
896.731
899.994
903.359
906.802
910.308
913.863
917.454
921.071
924.703
928.344
931.985
935.619
939.24
942.844
946.425
949.982
953.51
957.01
960.481
963.926
967.347
970.75
974.141
977.529
980.92
984.322
987.734
991.148
994.535
997.843
1001.04
1004.16
1007.17
1010.08
1012.89
1015.6
1018.21
1020.71
1023.11
1025.4
1027.58
1029.65
1031.61
1033.47
1035.21
1036.84
1038.36
1039.77
1041.07
1042.25
1043.33
1044.29
1045.15
1045.89
1046.52
1047.04
1047.46
1047.76
1047.95
1048.05
1048.03
1047.91
1047.67
1047.3
1046.78
1046.13
1045.36
1044.49
1043.54
1042.49
1041.35
1040.12
1038.81
1037.41
1035.93
1034.37
1032.72
1030.97
1029.21
1027.3
1025.43
1023.42
1021.41
1019.32
1017.18
1015
1012.78
1010.52
1008.22
1005.9
1003.54
1001.16
998.76
996.344
993.914
991.475
989.031
986.587
984.149
981.734
979.359
977.045
974.835
972.786
971.006
969.651
969.255
970.288
976.665
11463.3
2310.68
1468.63
1185.93
941.894
729.047
563.175
451.652
375.529
322.147
283.84
256.782
237.131
222.334
210.889
202.022
195.289
190.431
187.224
185.769
186.09
187.521
191.491
198.444
209.417
225.488
246.701
270.653
294.576
313.006
328.778
360.083
421.339
525.313
613.604
681.983
752.286
828.677
900.983
964.534
1019.83
1067.52
1097.28
1105.03
1073.71
1027.49
989.833
948.368
911.247
877.449
850.226
826.934
808.441
793.424
781.664
772.812
766.348
762.144
759.665
758.462
758.021
758.384
759.363
760.997
763.042
765.434
768.093
770.965
774.009
777.195
780.497
783.895
787.371
790.913
794.509
798.147
801.819
805.517
809.232
812.959
816.691
820.421
824.146
827.859
831.557
835.235
838.892
842.523
846.129
849.708
853.259
856.783
860.279
863.749
867.193
870.608
873.99
877.329
880.613
883.829
886.961
890.002
892.955
895.814
898.58
901.249
903.82
906.291
908.662
910.93
913.095
915.155
917.108
918.954
920.691
922.318
923.835
925.24
926.533
927.715
928.783
929.738
930.58
931.308
931.923
932.423
932.808
933.079
933.236
933.278
933.227
933.05
932.757
932.349
931.82
931.162
930.385
929.498
928.511
927.428
926.251
924.979
923.616
922.166
920.63
919.008
917.304
915.51
913.637
911.703
909.684
907.626
905.488
903.304
901.058
898.762
896.417
894.027
891.595
889.125
886.622
884.089
881.532
878.952
876.353
873.739
871.111
868.476
865.841
863.218
860.616
858.05
855.539
853.118
850.838
848.789
847.098
846.132
846.377
849.586
11463.3
2928.21
1733.22
1209.48
834.906
589.352
445.958
356.938
301.691
265.919
241.123
222.866
208.835
197.851
189.099
182.147
176.783
172.888
170.376
169.367
169.733
171.182
174.548
179.889
187.893
199.818
216.581
238.452
267.444
310.845
367.272
461.648
570.895
658.721
726.776
789.002
841.124
881.527
916.156
949.804
967.024
969.043
940.29
909.206
876.303
842.109
812.357
784.127
760.667
740.692
724.599
711.408
701.104
693.147
687.316
683.346
681.166
680.244
680.136
680.93
682.397
684.381
686.81
689.602
692.664
695.943
699.395
702.986
706.692
710.492
714.371
718.318
722.321
726.372
730.462
734.584
738.73
742.893
747.068
751.247
755.424
759.596
763.756
767.899
772.022
776.121
780.191
784.23
788.235
792.203
796.134
800.024
803.872
807.675
811.43
815.134
818.779
822.354
825.855
829.273
832.602
835.839
838.981
842.027
844.974
847.818
850.559
853.194
855.722
858.139
860.448
862.645
864.726
866.692
868.54
870.269
871.877
873.364
874.729
875.97
877.088
878.081
878.948
879.691
880.307
880.796
881.158
881.391
881.487
881.485
881.35
881.084
880.691
880.172
879.525
878.749
877.849
876.832
875.704
874.467
873.125
871.678
870.129
868.484
866.744
864.911
862.986
860.969
858.868
856.689
854.433
852.112
849.72
847.267
844.752
842.179
839.554
836.88
834.162
831.402
828.607
825.782
822.93
820.054
817.159
814.246
811.321
808.387
805.452
802.526
799.62
796.748
793.927
791.186
788.569
786.148
784.025
782.453
781.779
782.856
11463.3
3436.94
1778.31
1038.1
652.734
459.075
359.323
303.551
268.142
243.215
224.451
209.769
197.937
188.154
180.051
173.469
168.336
164.641
162.486
161.988
162.912
165.579
170.463
177.969
188.879
203.735
226.075
261.481
316.956
402.911
508.513
598.465
667.861
727.36
774.123
809.247
837.433
859.518
868.708
865.467
842.677
820.22
793.621
767.964
742.64
719.032
698.645
680.828
666.208
654.145
644.554
637.059
631.509
627.633
625.446
624.57
624.513
625.484
627.201
629.54
632.38
635.61
639.165
642.976
646.988
651.161
655.463
659.87
664.364
668.932
673.562
678.246
682.974
687.74
692.537
697.358
702.195
707.041
711.891
716.736
721.572
726.392
731.191
735.965
740.708
745.417
750.086
754.71
759.288
763.815
768.289
772.706
777.064
781.358
785.587
789.745
793.828
797.833
801.753
805.58
809.308
812.933
816.453
819.866
823.168
826.357
829.429
832.382
835.214
837.92
840.496
842.942
845.26
847.445
849.499
851.417
853.2
854.846
856.353
857.721
858.949
860.035
860.981
861.785
862.446
862.965
863.341
863.562
863.641
863.604
863.415
863.082
862.607
861.991
861.236
860.341
859.312
858.152
856.868
855.462
853.936
852.293
850.534
848.657
846.663
844.564
842.362
840.06
837.664
835.179
832.61
829.964
827.243
824.451
821.591
818.669
815.689
812.656
809.575
806.451
803.289
800.094
796.873
793.627
790.36
787.076
783.779
780.475
777.171
773.876
770.601
767.358
764.165
761.046
758.035
755.191
752.592
750.41
748.814
748.304
11463.3
3580.84
1565.45
817.769
516.857
382.788
313.937
273.763
247.813
229.563
215.531
203.769
193.496
184.622
177.115
171.053
166.614
163.967
163.043
163.738
166.291
171.343
179.417
192.56
213.255
243.818
290.828
365.098
453.106
533.584
598.693
653.994
700.412
737.177
766.632
785.194
791.607
784.856
767.858
750.199
729.318
709.581
689.446
670.401
652.5
636.621
623.114
611.752
602.545
595.223
589.66
585.674
583.252
582.204
582.043
582.915
584.637
587.11
590.192
593.776
597.772
602.097
606.692
611.503
616.487
621.612
626.85
632.183
637.593
643.069
648.599
654.175
659.789
665.434
671.104
676.789
682.483
688.176
693.861
699.532
705.18
710.8
716.387
721.933
727.435
732.89
738.289
743.627
748.9
754.105
759.238
764.296
769.274
774.17
778.979
783.699
788.326
792.861
797.291
801.608
805.808
809.889
813.847
817.679
821.383
824.957
828.396
831.698
834.861
837.883
840.761
843.494
846.079
848.515
850.8
852.932
854.909
856.73
858.393
859.897
861.242
862.427
863.45
864.312
865.013
865.551
865.925
866.12
866.169
866.068
865.8
865.37
864.781
864.034
863.13
862.073
860.865
859.511
858.016
856.383
854.615
852.716
850.688
848.535
846.263
843.875
841.373
838.763
836.048
833.234
830.328
827.336
824.262
821.11
817.884
814.59
811.234
807.821
804.358
800.848
797.298
793.714
790.101
786.464
782.805
779.128
775.44
771.746
768.053
764.371
760.71
757.082
753.502
749.991
746.577
743.299
740.196
737.412
735.018
733.182
11463.3
3407.17
1283.81
662.707
444.582
348.997
297.18
265.755
244.19
227.916
214.997
204.307
195.231
187.502
181.15
176.397
173.563
172.801
174.4
178.373
185.672
197.692
215.843
244.993
289.452
349.107
417.075
479.787
536.791
586.323
628.813
664.398
694.885
715.911
723.386
719.993
707.291
693.07
676.692
660.992
645.276
630.358
615.773
602.13
589.757
579.065
570.125
562.837
557.138
552.903
550.055
548.649
548.258
548.825
550.344
552.709
555.806
559.537
563.806
568.526
573.623
579.03
584.691
590.561
596.601
602.781
609.078
615.471
621.942
628.476
635.061
641.684
648.336
655.008
661.7
668.397
675.089
681.767
688.422
695.047
701.634
708.176
714.666
721.098
727.461
733.74
739.949
746.081
752.132
758.099
763.975
769.759
775.444
781.027
786.505
791.871
797.121
802.247
807.246
812.111
816.841
821.43
825.877
830.179
834.332
838.334
842.182
845.873
849.404
852.772
855.976
859.013
861.882
864.58
867.106
869.457
871.631
873.627
875.443
877.078
878.53
879.801
880.888
881.793
882.513
883.05
883.395
883.543
883.532
883.338
882.958
882.398
881.658
880.741
879.65
878.386
876.954
875.359
873.604
871.694
869.633
867.425
865.074
862.585
859.963
857.211
854.335
851.338
848.227
845.007
841.684
838.267
834.759
831.166
827.494
823.749
819.937
816.066
812.142
808.168
804.153
800.101
796.02
791.913
787.785
783.641
779.486
775.328
771.174
767.032
762.914
758.831
754.795
750.825
746.945
743.192
739.604
736.274
733.218
730.347
11463.3
2980.39
1034.68
563.272
401.485
327.945
288.777
263.212
245.616
232.675
222.297
213.556
206.184
200.279
196.226
194.629
195.707
200.295
208.43
220.575
238.822
265.097
300.992
344.985
392.861
441.346
487.267
528.643
565.812
597.805
626.031
649.413
660.177
661.496
654.522
644.277
631.557
619.04
606.731
595.107
583.797
572.903
562.441
552.806
544.295
537.104
531.267
526.743
523.486
521.576
520.845
520.965
522.135
524.211
527.125
530.794
535.133
540.062
545.504
551.387
557.649
564.228
571.07
578.131
585.371
592.759
600.274
607.906
615.615
623.383
631.196
639.035
646.883
654.717
662.497
670.25
677.99
685.71
693.399
701.046
708.644
716.185
723.662
731.069
738.4
745.658
752.82
759.876
766.818
773.643
780.347
786.927
793.378
799.697
805.878
811.919
817.812
823.556
829.147
834.582
839.856
844.967
849.91
854.684
859.287
863.714
867.964
872.033
875.918
879.617
883.127
886.448
889.575
892.509
895.246
897.785
900.123
902.259
904.19
905.916
907.437
908.751
909.858
910.758
911.452
911.938
912.203
912.266
912.132
911.793
911.249
910.502
909.557
908.414
907.076
905.547
903.831
901.933
899.858
897.61
895.195
892.617
889.881
886.993
883.957
880.781
877.468
874.024
870.455
866.766
862.967
859.063
855.062
850.969
846.792
842.538
838.215
833.831
829.39
824.899
820.363
815.791
811.188
806.559
801.91
797.246
792.575
787.904
783.24
778.592
773.97
769.385
764.849
760.377
755.99
751.718
747.589
743.676
739.962
736.138
11463.3
2504.23
894.355
523.436
388.068
324.23
289.395
268.857
255.187
245.134
237.259
231.09
226.769
224.955
225.693
230.224
238.679
250.276
265.394
286.141
312.622
343.856
378.236
413.724
448.661
481.969
512.782
540.074
564.98
587.801
601.666
605.946
604.587
599.212
590.766
581.449
571.991
563.04
554.452
546.17
538.05
530.182
522.75
516.046
510.293
505.619
502.063
499.644
498.475
498.225
498.963
500.655
503.273
506.75
511.022
516.015
521.658
527.881
534.618
541.808
549.412
557.363
565.595
574.062
582.719
591.523
600.413
609.316
618.296
627.348
636.452
645.589
654.733
663.865
672.987
682.076
691.119
700.114
709.037
717.88
726.637
735.304
743.875
752.342
760.696
768.927
777.022
784.977
792.786
800.445
807.953
815.305
822.497
829.526
836.386
843.076
849.59
855.928
862.084
868.055
873.838
879.428
884.824
890.023
895.023
899.821
904.416
908.804
912.982
916.947
920.698
924.234
927.551
930.649
933.526
936.18
938.608
940.809
942.78
944.522
946.033
947.313
948.363
949.182
949.77
950.122
950.239
950.132
949.798
949.237
948.45
947.441
946.212
944.765
943.105
941.234
939.158
936.883
934.412
931.753
928.909
925.888
922.695
919.336
915.818
912.146
908.328
904.369
900.276
896.055
891.714
887.261
882.704
878.051
873.31
868.491
863.6
858.647
853.637
848.575
843.468
838.323
833.147
827.946
822.725
817.494
812.259
807.029
801.81
796.611
791.442
786.312
781.233
776.218
771.287
766.463
761.767
757.259
752.908
748.223
11463.3
2090.85
789.188
487.837
376.966
324.609
296.98
280.698
270.228
263.088
258.224
255.804
255.424
258.038
264.124
273.769
286.397
301.777
320.662
342.749
367.157
392.88
418.949
444.557
468.979
491.464
512.599
532.744
547.701
554.498
556.165
555.549
551.617
546.028
539.63
533.196
526.931
520.894
514.967
509.106
503.331
497.791
492.694
488.27
484.695
482.064
480.569
480.069
480.486
481.9
484.264
487.546
491.715
496.745
502.595
509.156
516.363
524.152
532.452
541.177
550.197
559.505
569.13
579.042
589.2
599.564
610.104
620.813
631.614
642.461
653.32
664.177
674.98
685.692
696.297
706.777
717.115
727.305
737.365
747.304
757.125
766.827
776.409
785.862
795.174
804.33
813.316
822.123
830.746
839.183
847.432
855.49
863.353
871.015
878.475
885.728
892.773
899.608
906.231
912.636
918.821
924.782
930.517
936.025
941.304
946.354
951.172
955.756
960.103
964.211
968.078
971.703
975.085
978.223
981.115
983.759
986.154
988.297
990.186
991.822
993.205
994.333
995.207
995.828
996.193
996.306
996.162
995.769
995.128
994.239
993.105
991.73
990.115
988.265
986.183
983.875
981.345
978.598
975.642
972.481
969.123
965.574
961.84
957.929
953.847
949.603
945.203
940.655
935.966
931.142
926.193
921.125
915.948
910.672
905.308
899.866
894.353
888.776
883.144
877.46
871.73
865.963
860.164
854.342
848.504
842.66
836.818
830.986
825.171
819.38
813.623
807.908
802.246
796.652
791.141
785.735
780.449
775.33
770.357
764.874
11463.3
1958.1
771.433
484.697
379.971
333.307
309.527
296.243
288.398
284.069
282.382
282.567
285.554
291.388
300.02
311.179
324.532
340.11
357.516
376.141
395.368
414.591
433.257
451.11
468.445
485.274
499.168
507.61
511.669
513.166
513.208
511.405
508.314
504.635
500.721
496.782
492.845
488.905
484.944
481.013
477.222
473.742
470.762
468.463
467.105
466.652
467.138
468.746
471.29
474.757
479.124
484.358
490.397
497.125
504.444
512.488
521.24
530.645
540.642
551.174
562.217
573.707
585.567
597.745
610.195
622.861
635.688
648.647
661.646
674.588
687.403
700.018
712.41
724.565
736.468
748.115
759.512
770.682
781.661
792.483
803.158
813.698
824.108
834.377
844.484
854.403
864.111
873.599
882.863
891.903
900.716
909.3
917.651
925.762
933.631
941.255
948.635
955.769
962.656
969.292
975.674
981.799
987.667
993.276
998.627
1003.72
1008.55
1013.13
1017.44
1021.49
1025.27
1028.78
1032.03
1035.01
1037.73
1040.18
1042.35
1044.26
1045.88
1047.24
1048.32
1049.13
1049.66
1049.92
1049.91
1049.63
1049.07
1048.24
1047.15
1045.79
1044.18
1042.3
1040.17
1037.79
1035.17
1032.3
1029.2
1025.87
1022.32
1018.56
1014.58
1010.41
1006.04
1001.48
996.745
991.84
986.775
981.557
976.194
970.694
965.065
959.312
953.448
947.488
941.443
935.321
929.13
922.878
916.57
910.214
903.814
897.377
890.908
884.419
877.921
871.424
864.935
858.463
852.014
845.594
839.211
832.875
826.596
820.39
814.27
808.256
802.358
796.615
791.026
784.793
11463.3
1868.49
744.107
481.603
387.265
345.119
324.332
313.266
307.389
304.843
304.374
306.441
311.091
318.018
326.915
337.459
349.376
362.401
376.16
390.248
404.257
418.11
431.965
445.449
456.983
465.086
470.761
474.655
476.708
477.538
477.675
476.94
475.614
473.981
472.165
470.238
468.234
466.205
464.233
462.471
461.162
460.43
460.238
460.761
462.13
464.308
467.216
470.665
475.024
480.362
486.681
493.954
502.15
511.257
521.278
532.132
543.783
556.151
569.159
582.739
596.835
611.363
626.231
641.371
656.746
672.263
687.777
703.158
718.315
733.189
747.709
761.814
775.467
788.653
801.37
813.62
825.452
836.941
848.193
859.302
870.273
881.132
891.903
902.562
913.065
923.362
933.398
943.182
952.714
961.987
971.001
979.75
988.228
996.43
1004.35
1011.99
1019.35
1026.44
1033.24
1039.76
1045.99
1051.94
1057.6
1062.98
1068.07
1072.88
1077.41
1081.65
1085.62
1089.3
1092.69
1095.81
1098.64
1101.18
1103.45
1105.43
1107.13
1108.54
1109.66
1110.49
1111.04
1111.29
1111.25
1110.95
1110.34
1109.45
1108.29
1106.84
1105.12
1103.12
1100.84
1098.3
1095.5
1092.44
1089.12
1085.56
1081.75
1077.71
1073.44
1068.94
1064.23
1059.32
1054.2
1048.9
1043.41
1037.75
1031.93
1025.95
1019.83
1013.58
1007.2
1000.69
994.073
987.37
980.587
973.731
966.809
959.828
952.796
945.718
938.601
931.449
924.267
917.072
909.877
902.691
895.522
888.377
881.26
874.179
867.139
860.149
853.224
846.379
839.627
832.984
826.457
820.076
813.873
806.929
11463.3
1850.9
743.596
488.3
398.35
358.641
339.17
328.918
323.716
321.651
321.452
323.965
328.688
335.143
342.901
351.631
361.112
371.124
381.422
391.85
402.56
412.838
421.652
428.937
434.922
440.085
444.152
447.358
449.859
451.876
453.569
455.022
456.231
457.215
458.034
458.753
459.434
460.147
460.951
461.871
462.78
464.152
466.29
469.465
473.678
478.876
485.076
492.394
500.768
510.223
520.771
532.362
544.945
558.483
572.942
588.26
604.484
621.371
638.783
656.608
674.743
693.082
711.513
729.92
748.158
766.131
783.774
800.983
817.65
833.665
848.93
863.417
877.12
890.067
902.287
913.751
924.586
934.95
945.123
955.386
965.58
975.762
986.035
996.301
1006.46
1016.44
1026.2
1035.72
1044.96
1053.92
1062.6
1070.99
1079.08
1086.86
1094.32
1101.47
1108.31
1114.84
1121.07
1126.99
1132.59
1137.89
1142.87
1147.54
1151.91
1155.99
1159.76
1163.24
1166.42
1169.31
1171.91
1174.21
1176.21
1177.93
1179.36
1180.5
1181.37
1181.93
1182.2
1182.16
1181.87
1181.25
1180.35
1179.16
1177.68
1175.92
1173.88
1171.55
1168.95
1166.06
1162.91
1159.48
1155.78
1151.83
1147.62
1143.17
1138.47
1133.54
1128.37
1122.99
1117.39
1111.58
1105.57
1099.37
1093
1086.45
1079.75
1072.89
1065.9
1058.78
1051.54
1044.2
1036.79
1029.29
1021.72
1014.08
1006.37
998.613
990.807
982.961
975.084
967.178
959.247
951.316
943.396
935.494
927.617
919.769
911.958
904.19
896.465
888.799
881.207
873.704
866.302
859.015
851.847
844.82
838.005
830.387
11463.3
1825.92
741.884
495.829
408.031
369.459
350.761
340.533
335.158
332.948
332.61
334.698
338.674
344.008
350.277
357.23
364.745
372.717
380.897
388.823
396.354
403.478
410.398
416.86
422.949
428.74
434.196
439.357
444.198
448.688
452.757
456.212
459.317
462.33
465.344
468.449
471.731
475.289
479.224
483.671
488.888
495.013
502.291
510.999
520.895
531.878
543.984
557.266
571.667
587.191
603.968
621.784
640.455
659.845
679.824
700.234
720.858
741.675
762.591
783.501
804.299
824.884
845.165
865.054
884.466
903.328
921.579
939.146
955.942
971.849
986.681
1000.54
1013.49
1025.64
1037.04
1047.75
1057.8
1067.2
1076.12
1084.7
1093.06
1101.51
1110.5
1119.61
1128.64
1137.5
1146.18
1154.6
1162.73
1170.56
1178.09
1185.31
1192.22
1198.79
1205.03
1210.93
1216.49
1221.74
1226.68
1231.29
1235.58
1239.55
1243.2
1246.53
1249.55
1252.28
1254.71
1256.84
1258.68
1260.24
1261.51
1262.49
1263.19
1263.61
1263.74
1263.62
1263.24
1262.54
1261.57
1260.32
1258.8
1256.99
1254.91
1252.55
1249.91
1247.01
1243.83
1240.39
1236.67
1232.69
1228.45
1223.94
1219.18
1214.17
1208.92
1203.43
1197.71
1191.77
1185.6
1179.22
1172.63
1165.84
1158.86
1151.7
1144.37
1136.88
1129.24
1121.45
1113.54
1105.5
1097.35
1089.13
1080.84
1072.47
1064.03
1055.53
1046.96
1038.35
1029.7
1021.02
1012.31
1003.6
994.902
986.22
977.559
968.922
960.315
951.744
943.217
934.741
926.315
917.959
909.691
901.523
893.463
885.525
877.713
870.039
862.618
854.364
11463.3
1808.91
742.497
500.779
414.387
376.765
358.314
347.957
342.454
340.111
339.668
341.463
345.071
350.018
355.88
362.433
369.49
376.89
384.57
392.594
400.601
408.478
416.35
424.163
431.972
439.809
447.683
455.618
463.516
471.329
479.128
487.049
495.157
503.525
512.245
521.424
531.17
541.6
552.825
564.97
578.18
592.468
607.821
624.034
641.161
659.285
678.448
698.686
719.88
741.834
764.288
787.399
810.918
834.596
858.246
881.699
904.796
927.439
949.518
970.953
991.675
1011.66
1030.87
1049.3
1066.94
1083.77
1099.81
1115.05
1129.49
1143.13
1156
1168
1179.18
1189.73
1199.72
1209.26
1218.23
1226.54
1234.16
1241.05
1247.66
1254.57
1261.67
1268.66
1275.44
1281.97
1288.24
1294.22
1299.92
1305.33
1310.46
1315.3
1319.85
1324.08
1328
1331.6
1334.9
1337.92
1340.65
1343.1
1345.26
1347.13
1348.7
1350
1351.03
1351.8
1352.31
1352.57
1352.54
1352.33
1351.84
1351.1
1350.11
1348.89
1347.43
1345.74
1343.82
1341.64
1339.22
1336.56
1333.65
1330.49
1327.09
1323.45
1319.57
1315.45
1311.08
1306.48
1301.63
1296.54
1291.22
1285.66
1279.87
1273.85
1267.62
1261.17
1254.51
1247.65
1240.58
1233.32
1225.86
1218.22
1210.4
1202.42
1194.28
1185.99
1177.56
1168.99
1160.3
1151.49
1142.57
1133.55
1124.44
1115.26
1106.01
1096.69
1087.31
1077.89
1068.43
1058.94
1049.43
1039.92
1030.45
1020.99
1011.56
1002.15
992.783
983.454
974.177
964.96
955.829
946.793
937.856
929.028
920.317
911.734
903.285
894.975
886.958
878.12
11463.3
1792.1
741.966
502.682
417.484
381.985
364.201
354.574
350.45
349.056
349.662
352.746
357.516
363.579
370.876
379.597
388.997
398.839
409.632
421.56
434.156
447.048
460.591
474.797
489.654
505.118
521.174
537.762
554.892
572.587
590.88
609.813
629.334
649.431
670.138
691.54
713.743
736.93
761.077
786.104
811.88
838.266
865.08
892.109
919.316
946.694
974.304
1002.56
1030.99
1058.95
1086.02
1111.8
1136.36
1159.67
1181.73
1202.45
1221.83
1239.81
1256.43
1271.74
1285.8
1298.68
1310.53
1321.37
1331.27
1340.31
1348.56
1356.09
1362.98
1369.36
1375.54
1381.51
1387.28
1392.78
1397.93
1402.73
1407.02
1410.84
1414.48
1418.2
1422.3
1426.4
1429.89
1432.9
1435.58
1438
1440.21
1442.22
1444.05
1445.69
1447.13
1448.36
1449.37
1450.16
1450.74
1451.1
1451.26
1451.22
1451
1450.56
1449.92
1449.06
1448
1446.74
1445.31
1443.69
1441.9
1439.93
1437.77
1435.44
1432.94
1430.25
1427.39
1424.37
1421.17
1417.79