/*--------------------------------*- C++ -*----------------------------------*\
  =========                 |
  \\      /  F ield         | OpenFOAM: The Open Source CFD Toolbox
   \\    /   O peration     | Website:  https://openfoam.org
    \\  /    A nd           | Version:  8
     \\/     M anipulation  |
\*---------------------------------------------------------------------------*/
FoamFile
{
    version     2.0;
    format      ascii;
    class       volVectorField;
    location    "700";
    object      wallShearStress;
}
// * * * * * * * * * * * * * * * * * * * * * * * * * * * * * * * * * * * * * //

dimensions      [0 2 -2 0 0 0 0];

internalField   uniform (0 0 0);

boundaryField
{
    inlet
    {
        type            calculated;
        value           uniform (0 0 0);
    }
    outlet
    {
        type            calculated;
        value           uniform (0 0 0);
    }
    upperWall
    {
        type            calculated;
        value           nonuniform List<vector> 
223
(
(-0.444479 0.00292344 0)
(-0.479022 0.00546988 0)
(-0.500703 0.00680954 0)
(-0.505131 0.007354 0)
(-0.500893 0.00736524 0)
(-0.490605 0.00700909 0)
(-0.478673 0.0064971 0)
(-0.466646 0.00592351 0)
(-0.454208 0.00532308 0)
(-0.442499 0.00474338 0)
(-0.431744 0.00420108 0)
(-0.422 0.00370288 0)
(-0.413262 0.00325147 0)
(-0.40547 0.00284862 0)
(-0.398535 0.00249428 0)
(-0.392368 0.00219984 0)
(-0.386813 0.00196848 0)
(-0.38184 0.00183916 0)
(-0.377798 0.00177937 0)
(-0.374586 0.00174626 5.75055e-22)
(-0.371421 0.00169187 0)
(-0.368319 0.00162438 0)
(-0.365278 0.00154918 0)
(-0.362308 0.00146809 5.87881e-22)
(-0.359415 0.00138363 0)
(-0.35661 0.00129593 0)
(-0.353897 0.00120664 0)
(-0.351285 0.0011156 -1.19908e-21)
(-0.348779 0.00102457 1.20469e-21)
(-0.346384 0.000933265 1.21019e-21)
(-0.344102 0.00084381 0)
(-0.341937 0.000756604 -1.22088e-21)
(-0.339887 0.000673696 0)
(-0.337949 0.000594937 1.23112e-21)
(-0.336119 0.00052147 1.23607e-21)
(-0.334395 0.000453548 -1.24092e-21)
(-0.332767 0.000391591 0)
(-0.331231 0.000335431 0)
(-0.32978 0.000284797 0)
(-0.328408 0.000239346 0)
(-0.327111 0.000198742 -1.26402e-21)
(-0.325883 0.000162793 0)
(-0.324719 0.000131207 0)
(-0.323615 0.000103776 1.27732e-21)
(-0.322565 8.03326e-05 0)
(-0.321565 6.0563e-05 1.28613e-21)
(-0.32061 4.42224e-05 -1.29056e-21)
(-0.319698 3.1236e-05 1.295e-21)
(-0.318819 2.13584e-05 0)
(-0.317975 1.41616e-05 0)
(-0.317158 9.62812e-06 0)
(-0.316366 7.29659e-06 1.31317e-21)
(-0.315596 6.99966e-06 -1.31783e-21)
(-0.314845 8.41721e-06 0)
(-0.31411 1.1568e-05 0)
(-0.313388 1.60045e-05 0)
(-0.312678 2.16848e-05 0)
(-0.311977 2.83492e-05 0)
(-0.31128 3.59737e-05 0)
(-0.310594 4.42294e-05 0)
(-0.309899 5.31398e-05 0)
(-0.309224 6.25714e-05 1.36238e-21)
(-0.308527 7.24791e-05 -1.36756e-21)
(-0.307847 8.2964e-05 0)
(-0.307161 9.33093e-05 0)
(-0.306437 0.000105208 0)
(-0.305791 0.000115927 -1.38914e-21)
(-0.305015 0.000128631 0)
(-0.304317 0.000135544 0)
(-0.303562 0.000112463 0)
(-0.302712 0.000156775 0)
(-0.302535 0.000254692 0)
(-0.303129 0.000291684 -2.86621e-21)
(-0.301359 0.00036685 0)
(-0.303884 0.000467407 0)
(-0.30197 0.000374156 0)
(-0.302151 0.000239549 0)
(-0.300341 0.000505831 0)
(-0.300662 0.000639834 0)
(-0.307607 0.000409844 0)
(-0.310037 0.000369573 3.07598e-21)
(-0.303533 0.000580634 0)
(-0.301149 0.000587668 0)
(-0.304247 0.000343843 0)
(-0.303751 7.41855e-05 -3.11191e-21)
(-0.298304 -2.11318e-05 0)
(-0.349942 0.000170856 -3.63944e-21)
(-0.331501 4.49159e-05 0)
(-0.331216 -8.85363e-05 0)
(-0.351096 4.55506e-05 0)
(-0.334541 0.000172337 -3.52014e-21)
(-0.365955 0.000523227 0)
(-0.341274 0.000600523 3.58074e-21)
(-0.324483 0.000538183 3.41599e-21)
(-0.304035 0.000705394 0)
(-0.297703 0.000166137 3.14442e-21)
(-0.320397 0.000594244 0)
(-0.309203 0.00123896 0)
(-0.309621 0.00059049 0)
(-0.304986 0.000252135 -3.25716e-21)
(-0.294024 0.00053466 0)
(-0.293463 0.000600592 -3.14179e-21)
(-0.293069 7.93254e-05 3.1535e-21)
(-0.338871 0.000175653 0)
(-0.316367 8.08722e-05 0)
(-0.339949 -0.000132372 0)
(-0.356856 0.000423995 0)
(-0.325215 0.000190038 0)
(-0.332786 0.000767848 0)
(-0.310196 0.00125445 0)
(-0.289573 0.000301098 -3.11481e-21)
(-0.342025 0.000853089 0)
(-0.313932 0.00122118 0)
(-0.294345 0.000289058 0)
(-0.324986 -0.00012935 0)
(-0.327956 -0.000156627 0)
(-0.32511 -0.000101607 0)
(-0.314006 8.20677e-05 0)
(-0.33492 0.00069903 0)
(-0.310559 0.00157374 0)
(-0.283134 0.00125663 0)
(-0.282234 0.00049358 0)
(-0.281695 0.000576789 0)
(-0.280774 0.00129275 -5.6113e-21)
(-0.279411 0.00119323 0)
(-0.278233 0.00017785 0)
(-0.301277 -0.000315509 0)
(-0.294939 -0.000355198 5.72686e-21)
(-0.299894 0.000618296 0)
(-0.273702 0.00140703 0)
(-0.272407 0.00136516 4.9608e-21)
(-0.270938 0.000990394 0)
(-0.269541 0.000195442 -4.75426e-21)
(-0.274035 -0.000127862 0)
(-0.274327 1.51597e-06 0)
(-0.285837 0.000801603 0)
(-0.264241 0.000904023 4.1662e-21)
(-0.286337 0.0010289 0)
(-0.261965 0.000883505 -3.79141e-21)
(-0.285375 0.000887898 0)
(-0.25951 0.000749633 0)
(-0.28079 0.000847115 0)
(-0.256669 0.00130969 0)
(-0.255044 0.00057408 0)
(-0.259238 -9.03338e-05 0)
(-0.263996 -0.000272214 0)
(-0.25409 -0.000281513 0)
(-0.246849 0.000215392 0)
(-0.244471 0.000186383 0)
(-0.242178 0.00092691 0)
(-0.241405 0.00272258 -1.15032e-21)
(-0.240061 0.00260138 8.50381e-22)
(-0.238682 0.000932766 0)
(-0.243102 -0.000245737 0)
(-0.234147 0.000240415 0)
(-0.261202 0.0017649 0)
(-0.231563 0.000794751 -7.36844e-22)
(-0.228841 -0.000792745 1.15266e-21)
(-0.225739 -0.000529484 -1.54339e-21)
(-0.222813 -0.000181879 0)
(-0.219441 0.00102325 -2.31264e-21)
(-0.229191 0.00227238 -5.46517e-21)
(-0.218148 0.00124496 0)
(-0.214998 0.000803824 -7.20126e-21)
(-0.213587 0.000624552 7.96275e-21)
(-0.210936 5.23762e-05 0)
(-0.207508 0.000191078 0)
(-0.204399 -0.000238997 0)
(-0.20003 0.00080963 0)
(-0.203591 0.00129862 0)
(-0.197892 0.00113867 -1.44418e-20)
(-0.199247 0.00108379 0)
(-0.196607 0.000923911 -1.64305e-20)
(-0.205423 0.0020259 0)
(-0.196545 0.000363303 0)
(-0.193276 -0.00135509 0)
(-0.189286 -0.0011664 0)
(-0.184686 0.000731781 0)
(-0.184489 0.00229304 2.31432e-20)
(-0.182926 0.00206565 0)
(-0.180369 0.00161245 0)
(-0.177114 0.00116178 -2.81355e-20)
(-0.172817 0.000850231 0)
(-0.168132 0.000679549 0)
(-0.163283 0.000447617 0)
(-0.158882 0.000198218 3.7543e-20)
(-0.154698 0.000135022 0)
(-0.15038 0.000325764 0)
(-0.144962 0.000585997 0)
(-0.137047 0.000890611 0)
(-0.126395 0.0013227 -5.72062e-20)
(-0.113955 0.00170491 0)
(-0.101442 0.00183563 0)
(-0.0899081 0.00169517 0)
(-0.0803174 0.00149102 9.39308e-20)
(-0.069933 0.00137609 0)
(-0.0647891 0.00179743 0)
(-0.0358701 0.00149465 -1.38795e-19)
(-0.0680618 0.000485614 0)
(-0.102157 0.00579559 1.18793e-17)
(-0.125564 0.0102074 2.13035e-17)
(-0.138024 0.0127988 2.00155e-17)
(-0.145367 0.0142203 1.92392e-17)
(-0.150875 0.0150899 1.86161e-17)
(-0.155169 0.0157057 -1.80913e-17)
(-0.158246 0.0161439 -1.76065e-17)
(-0.16057 0.0164472 -1.20371e-35)
(-0.162683 0.0166803 -3.36103e-17)
(-0.164769 0.0168894 -1.64213e-17)
(-0.166924 0.0170888 2.52778e-34)
(-0.169337 0.0172956 0)
(-0.172217 0.0175331 -3.02198e-17)
(-0.175671 0.0178236 -2.90881e-17)
(-0.17981 0.0181747 -2.77794e-17)
(-0.18465 0.0185982 0)
(-0.190262 0.0190901 4.90446e-17)
(-0.19673 0.0196692 2.25077e-17)
(-0.203946 0.0203176 0)
(-0.212599 0.0210963 -3.51339e-17)
(-0.22092 0.0218748 -1.22991e-20)
(-0.234446 0.0230348 3.00927e-36)
(-0.23876 0.0237584 1.32435e-17)
(-0.264437 0.02532 -7.10588e-18)
)
;
    }
    lowerWall
    {
        type            calculated;
        value           nonuniform List<vector> 
250
(
(-0.624956 -0.0057981 0)
(-0.608469 -0.0111633 0)
(-0.581558 -0.0124717 0)
(-0.549556 -0.0100096 0)
(-0.525622 -0.00804925 0)
(-0.515153 -0.00644389 0)
(-0.486902 -0.00469589 0)
(-0.556023 -0.00496104 0)
(-0.500337 -0.00577393 0)
(-0.478254 -0.00629766 0)
(-0.446815 -0.00468162 0)
(-0.440339 -0.00248205 0)
(-0.435005 -0.000784652 0)
(-0.431329 0.000594962 0)
(-0.47661 0.000627664 0)
(-0.436917 -5.75023e-05 0)
(-0.422971 -0.000691987 0)
(-0.421164 -0.000634252 0)
(0.0020913 0.000193947 0)
(0.00233513 -0.00264966 0)
(0.0026056 -0.00558487 0)
(0.00297479 -0.00871091 1.16338e-19)
(0.00337169 -0.0118889 -9.8349e-20)
(0.00364759 -0.0157432 8.80215e-20)
(0.0034883 -0.0160865 -7.87333e-20)
(0.0086003 -0.0362509 0)
(-0.0489877 -0.106018 0)
(0.000222455 -0.000276291 0)
(5.54095e-05 -0.000790607 0)
(-1.11197e-05 -0.000872373 0)
(5.47631e-05 -0.000867423 0)
(3.44774e-05 -0.000836209 1.53725e-19)
(-0.000138847 -0.000273769 -1.49667e-19)
(-0.000573288 0.0011567 0)
(-0.00117117 0.00384133 -1.7208e-19)
(-0.00155305 0.00726961 1.31577e-19)
(-0.00150296 0.010513 0)
(-0.00111357 0.0129117 0)
(-0.000583048 0.0141761 0)
(-7.40561e-05 0.0142774 0)
(0.000328302 0.0134036 0)
(0.000660486 0.0118391 0)
(0.000984186 0.00963127 0)
(0.00133846 0.00681879 0)
(0.00174011 0.00344774 0)
(-0.00014361 -0.000278591 0)
(0.000170427 -0.000448679 0)
(0.000481029 -0.000500106 0)
(0.000803162 -0.000429423 0)
(0.00105977 -0.000193725 -0)
(0.00110663 0.000196381 -0)
(0.000858285 0.000663659 1.43226e-20)
(0.000343807 0.00110143 -1.62991e-20)
(-0.000368604 0.00141984 0)
(-0.00118498 0.0015798 -9.34272e-21)
(-0.0020272 0.00159414 0)
(-0.00283039 0.00149297 0)
(-0.00354918 0.00131261 0)
(-0.00415838 0.00108384 4.5756e-21)
(-0.00464646 0.00082759 0)
(-0.00500918 0.00055569 0)
(-0.00524399 0.000276487 -3.96465e-21)
(-0.00535547 -1.57589e-05 -0)
(-0.00531911 -0.000318798 0)
(-0.00513294 -0.000611575 -0)
(-0.00480577 -0.000873752 4.26368e-21)
(-0.00434942 -0.0010851 -0)
(-0.00378204 -0.00122453 5.04548e-21)
(-0.00313109 -0.00127292 0)
(-0.00243458 -0.00121628 -0)
(-0.00174137 -0.00105216 8.17552e-21)
(-0.0011082 -0.000797035 0)
(-0.000591063 -0.000494696 -1.35149e-20)
(-0.000223045 -0.000214551 0)
(9.70271e-06 -1.82864e-05 2.34788e-20)
(0.000156826 9.81627e-05 0)
(0.000242802 0.000195402 0)
(0.00023645 0.000308825 0)
(0.000126504 0.000459054 0)
(-0.00011952 0.00065636 0)
(-0.000525997 0.000861734 -1.48144e-20)
(-0.00107638 0.00100221 0)
(-0.00168372 0.00100335 1.76443e-20)
(-0.00223009 0.000852384 0)
(-0.00261631 0.000596989 -1.40783e-20)
(-0.00280385 0.000324686 0)
(-0.00282323 0.000109254 0)
(-0.00273155 -4.39956e-06 1.39182e-20)
(-0.00260394 9.44497e-06 0)
(-0.00250912 0.0001453 1.44269e-20)
(-0.00245502 0.000342353 -1.45091e-20)
(-0.00238367 0.000445207 0)
(-0.00214198 0.000214724 -1.58611e-20)
(-0.0014906 -0.000458957 -1.86986e-20)
(-0.000152075 -0.00119769 0)
(0.00159874 -0.00184986 0)
(0.0035188 -0.00254186 0)
(0.00573014 -0.00319918 0)
(0.00819232 -0.00365697 -0)
(0.0107485 -0.0037547 3.54516e-21)
(0.0132634 -0.00373458 0)
(0.0156958 -0.00370264 -2.74591e-21)
(0.018538 -0.00368065 -0)
(0.0211325 -0.00354342 -0)
(0.0230478 -0.00328452 2.17928e-21)
(0.026032 -0.0031112 0)
(0.0262108 -0.00261093 -1.91212e-21)
(0.0292918 -0.00250289 -0)
(0.0310952 -0.00231492 0)
(0.0333777 -0.00216318 -0)
(0.0353533 -0.00200944 1.8189e-21)
(0.037288 -0.00187486 0)
(0.0391534 -0.00175606 -0)
(0.0409211 -0.00164984 1.77172e-21)
(0.0426524 -0.00155625 0)
(0.0443058 -0.00147243 1.75033e-21)
(0.0459236 -0.0013976 0)
(0.0474849 -0.00132962 0)
(0.0490102 -0.00126764 0)
(0.0504915 -0.00121023 -1.7182e-21)
(0.051938 -0.00115668 -0)
(0.0533466 -0.00110605 0)
(0.0547219 -0.00105788 -1.69767e-21)
(0.0560621 -0.00101146 -1.69091e-21)
(0.0573691 -0.000966538 -0)
(0.058642 -0.000922802 -1.67712e-21)
(0.059882 -0.000879869 0)
(0.0610872 -0.000837644 -3.32508e-21)
(0.0622591 -0.000795881 -0)
(0.0633952 -0.000754436 -3.29352e-21)
(0.0644965 -0.000713123 -0)
(0.0655607 -0.000671845 3.2588e-21)
(0.0665882 -0.000630384 0)
(0.0675766 -0.000588551 0)
(0.0685254 -0.000546312 0)
(0.0694331 -0.000503395 -3.17743e-21)
(0.0702982 -0.000459506 -0)
(0.0711191 -0.000414252 3.1297e-21)
(0.0718932 -0.000367293 0)
(0.0726184 -0.000318396 -3.0766e-21)
(0.073292 -0.000267215 -3.04795e-21)
(0.0739114 -0.000213868 -3.01789e-21)
(0.0744742 -0.000158987 -0)
(0.0749792 -0.00010445 0)
(0.0754261 -5.39146e-05 0)
(0.075821 -1.22911e-05 0)
(0.0761686 2.37332e-05 0)
(0.0764706 5.92045e-05 0)
(0.0767265 9.40107e-05 0)
(0.0769357 0.000128686 0)
(0.077098 0.00016317 2.67498e-21)
(0.0772127 0.000197519 2.62718e-21)
(0.0772795 0.00023169 0)
(0.0772977 0.000265674 0)
(0.0772669 0.000299382 0)
(0.0771873 0.000332804 2.41475e-21)
(0.0770581 0.000365934 0)
(0.0768795 0.00039868 0)
(0.0766513 0.000431001 0)
(0.0763737 0.000462961 0)
(0.0760463 0.00049445 -2.09876e-21)
(0.0756697 0.000525407 0)
(0.0752439 0.000555891 0)
(0.0747691 0.000585801 1.88053e-21)
(0.074246 0.000615124 -1.80279e-21)
(0.0736748 0.000643869 0)
(0.073056 0.000672005 -1.63952e-21)
(0.07239 0.000699495 0)
(0.0716777 0.000726312 1.46558e-21)
(0.0709197 0.000752419 0)
(0.0701169 0.000777875 0)
(0.0692697 0.000802594 0)
(0.0683807 0.000826503 0)
(0.067452 0.000849352 0)
(0.0664865 0.000871592 -1.75129e-21)
(0.0654651 0.000892464 -1.53316e-21)
(0.0644228 0.000912422 0)
(0.0633265 0.000930365 0)
(0.0622082 0.00094469 0)
(0.0610573 0.000953235 5.96628e-22)
(0.0598758 0.000952837 0)
(0.0586664 0.000945801 0)
(0.0574233 0.000950515 0)
(0.0561503 0.000965924 -4.53122e-22)
(0.0548457 0.000977473 7.3588e-22)
(0.0535171 0.000988198 0)
(0.0521645 0.000997836 0)
(0.0507909 0.0010066 1.6382e-21)
(0.0493976 0.00101454 1.95818e-21)
(0.0479857 0.00102173 0)
(0.0465572 0.00102802 0)
(0.0451138 0.00103366 -2.98183e-21)
(0.0436564 0.00103858 3.34609e-21)
(0.0421867 0.00104286 0)
(0.0407052 0.00104632 0)
(0.0392148 0.00104926 4.51743e-21)
(0.0377146 0.00105146 0)
(0.0362084 0.00105313 0)
(0.0346959 0.00105423 5.82497e-21)
(0.0331797 0.00105489 0)
(0.0316606 0.00105535 6.78674e-21)
(0.0301394 0.00105565 0)
(0.0286175 0.00105601 0)
(0.0270952 0.00105657 0)
(0.0255729 0.00105749 -8.98334e-21)
(0.0240508 0.0010588 0)
(0.0225291 0.0010606 0)
(0.0210077 0.00106286 0)
(0.0194867 0.00106564 0)
(0.0179662 0.00106898 0)
(0.0164464 0.00107303 0)
(0.014927 0.0010779 -1.41618e-20)
(0.013408 0.00108379 -1.51115e-20)
(0.0118889 0.00109076 0)
(0.0103692 0.00109887 0)
(0.00884844 0.00110794 0)
(0.0073267 0.0011178 1.97629e-20)
(0.00580441 0.00112864 0)
(0.00428321 0.00113931 -4.56077e-20)
(0.00276716 0.00114672 4.91489e-20)
(0.00126544 0.00114564 5.30958e-20)
(-0.000218638 0.00111221 -5.52008e-20)
(-0.00159148 0.00104426 5.40205e-20)
(-0.00311416 0.000878367 -5.20672e-20)
(-0.00344581 0.000489613 0)
(-0.005424 0.0010876 -3.10518e-18)
(-0.00853782 0.000859891 -2.81509e-18)
(-0.0116269 0.000512707 -3.00927e-36)
(-0.0148052 0.000187697 -4.79123e-18)
(-0.0181915 -0.000152554 -8.91247e-18)
(-0.0217915 -0.000511607 -4.15972e-18)
(-0.0256153 -0.000890396 3.89294e-18)
(-0.0296859 -0.00129306 3.00927e-35)
(-0.0340266 -0.0017226 0)
(-0.0386549 -0.00218335 3.22294e-18)
(-0.0435888 -0.00267257 3.03109e-18)
(-0.0488441 -0.00315885 0)
(-0.0544329 -0.00367605 0)
(-0.0604144 -0.00427121 0)
(-0.0668434 -0.00492685 -5.02171e-35)
(-0.0737252 -0.00563548 3.44185e-35)
(-0.0812074 -0.0063993 6.92131e-35)
(-0.0891513 -0.00722341 -3.75982e-18)
(-0.0981184 -0.00811826 -3.42525e-18)
(-0.107186 -0.00908663 1.20371e-35)
(-0.118732 -0.0101518 5.38876e-18)
(-0.128298 -0.0113205 8.94407e-18)
(-0.145694 -0.0125526 0)
(-0.153104 -0.0140613 -4.31322e-18)
(-0.187683 -0.0164047 -1.50463e-35)
)
;
    }
    frontAndBack
    {
        type            empty;
    }
}


// ************************************************************************* //
