/*--------------------------------*- C++ -*----------------------------------*\
| =========                 |                                                 |
| \\      /  F ield         | OpenFOAM: The Open Source CFD Toolbox           |
|  \\    /   O peration     | Version:  v2012                                 |
|   \\  /    A nd           | Website:  www.openfoam.com                      |
|    \\/     M anipulation  |                                                 |
\*---------------------------------------------------------------------------*/
FoamFile
{
    version     2.0;
    format      ascii;
    class       volScalarField;
    location    "200";
    object      k;
}
// * * * * * * * * * * * * * * * * * * * * * * * * * * * * * * * * * * * * * //

dimensions      [0 2 -2 0 0 0 0];


internalField   nonuniform List<scalar> 
12225
(
0.539757
0.830554
1.02512
1.12799
1.17802
1.18006
1.17195
1.15289
1.12613
1.09852
1.07222
1.04714
1.02549
1.00418
0.988336
0.969896
0.960833
0.943457
0.433732
0.490694
0.506203
0.513199
0.520418
0.530829
0.539433
0.552616
0.562505
0.577323
0.587746
0.603682
0.614112
0.630587
0.640378
0.656769
0.664899
0.680435
0.383072
0.4181
0.431992
0.430423
0.425918
0.418351
0.410283
0.402764
0.39563
0.389549
0.384075
0.379808
0.376105
0.373626
0.371495
0.37053
0.369574
0.369921
0.374434
0.379137
0.384302
0.385935
0.385521
0.384092
0.381458
0.37773
0.374016
0.369668
0.365623
0.361236
0.35726
0.35316
0.34946
0.345829
0.342486
0.339363
0.373662
0.372568
0.372598
0.372418
0.371985
0.370906
0.369681
0.367719
0.365802
0.363359
0.36107
0.358412
0.355969
0.353271
0.350816
0.348182
0.345809
0.343312
0.373813
0.371591
0.369978
0.368523
0.367328
0.36593
0.364683
0.363143
0.361703
0.36001
0.358422
0.356637
0.354971
0.353158
0.351476
0.349686
0.348034
0.346306
0.373849
0.371549
0.369521
0.367579
0.365892
0.364214
0.362723
0.361186
0.35977
0.358291
0.356905
0.355462
0.354099
0.352694
0.351364
0.350007
0.34872
0.347421
0.373844
0.371559
0.369456
0.367426
0.365576
0.363791
0.362157
0.360566
0.359087
0.357629
0.356258
0.3549
0.353612
0.352337
0.351122
0.349923
0.348774
0.347644
0.373837
0.371561
0.369435
0.367396
0.365491
0.363669
0.361967
0.360339
0.358809
0.357339
0.355949
0.354609
0.353335
0.352103
0.350928
0.349791
0.3487
0.347646
0.373832
0.37156
0.369421
0.367383
0.365459
0.363626
0.361896
0.360249
0.35869
0.357204
0.355795
0.354449
0.353169
0.351946
0.350778
0.349662
0.348592
0.347568
0.373829
0.371558
0.369411
0.367372
0.36544
0.363603
0.361863
0.360207
0.358636
0.35714
0.355719
0.354365
0.353077
0.351849
0.350678
0.349562
0.348494
0.347476
0.373828
0.371556
0.369403
0.367361
0.365425
0.363585
0.361839
0.36018
0.358602
0.357101
0.355673
0.354314
0.353018
0.351785
0.350608
0.349488
0.348416
0.347396
0.373826
0.371553
0.369397
0.367353
0.365412
0.36357
0.36182
0.360157
0.358575
0.35707
0.355638
0.354274
0.352974
0.351737
0.350555
0.34943
0.348354
0.347329
0.373826
0.371551
0.369393
0.367346
0.365403
0.363558
0.361804
0.360138
0.358553
0.357045
0.355609
0.354241
0.352938
0.351696
0.350511
0.349382
0.348303
0.347274
0.373825
0.371549
0.36939
0.367341
0.365395
0.363548
0.361792
0.360123
0.358535
0.357024
0.355585
0.354214
0.352908
0.351663
0.350475
0.349343
0.348261
0.347229
0.373825
0.371548
0.369388
0.367337
0.36539
0.363541
0.361783
0.360111
0.358521
0.357007
0.355566
0.354193
0.352884
0.351637
0.350447
0.349312
0.348228
0.347194
0.373825
0.371548
0.369386
0.367335
0.365387
0.363536
0.361776
0.360103
0.358511
0.356996
0.355553
0.354178
0.352867
0.351618
0.350426
0.349289
0.348204
0.347168
0.373825
0.371548
0.369386
0.367334
0.365385
0.363533
0.361773
0.360099
0.358506
0.35699
0.355545
0.354169
0.352858
0.351607
0.350415
0.349276
0.34819
0.347153
0.373825
0.371548
0.369386
0.367334
0.365385
0.363534
0.361773
0.360099
0.358506
0.356989
0.355544
0.354168
0.352856
0.351605
0.350412
0.349273
0.348187
0.347149
0.373825
0.371548
0.369387
0.367335
0.365387
0.363536
0.361775
0.360101
0.358508
0.356992
0.355547
0.354171
0.352859
0.351608
0.350415
0.349277
0.34819
0.347153
0.373825
0.371549
0.369388
0.367338
0.36539
0.363539
0.36178
0.360106
0.358514
0.356998
0.355554
0.354179
0.352867
0.351617
0.350424
0.349286
0.3482
0.347164
0.373825
0.37155
0.36939
0.367341
0.365394
0.363545
0.361786
0.360114
0.358523
0.357008
0.355566
0.354191
0.352881
0.351632
0.350441
0.349304
0.34822
0.347184
0.373825
0.371551
0.369393
0.367346
0.3654
0.363554
0.361798
0.36013
0.358544
0.357034
0.355597
0.354228
0.352923
0.351678
0.350491
0.349357
0.348275
0.34724
0.373825
0.371554
0.369397
0.367359
0.365422
0.363593
0.361856
0.360213
0.35865
0.357165
0.355749
0.354399
0.353107
0.351872
0.350688
0.349553
0.348464
0.347417
0.373823
0.371558
0.369422
0.367457
0.36561
0.363894
0.362263
0.360725
0.35924
0.357818
0.356435
0.355101
0.353799
0.352537
0.351306
0.350111
0.348947
0.347816
0.373796
0.371653
0.369854
0.368357
0.36696
0.36568
0.364342
0.362997
0.361573
0.360138
0.358651
0.357167
0.355659
0.354167
0.352672
0.351202
0.349746
0.34832
0.37391
0.37349
0.373935
0.374108
0.373797
0.373062
0.371686
0.370008
0.36802
0.365959
0.36375
0.361535
0.359268
0.357023
0.354788
0.352589
0.350439
0.348331
0.379438
0.38852
0.399851
0.400201
0.398857
0.395827
0.391621
0.387509
0.383163
0.37913
0.375106
0.371357
0.367772
0.36437
0.361265
0.358234
0.355611
0.352951
0.401657
0.430878
0.43597
0.435399
0.43452
0.434923
0.435895
0.438495
0.441386
0.44567
0.449844
0.454842
0.459673
0.464805
0.47003
0.474976
0.480423
0.485041
0.448447
0.585982
0.700998
0.786857
0.852563
0.89504
0.928659
0.952826
0.970568
0.981171
0.987973
0.989623
0.988722
0.986279
0.98165
0.975705
0.968943
0.961615
5.2371e-06
3.91668e-05
9.57799e-05
0.000173847
0.000253288
0.000333351
0.000475578
0.000729979
0.00112266
0.00163332
0.00216225
0.0026943
0.00315199
0.00355587
0.00383973
0.00404836
0.00409219
0.004076
0.00403281
0.00383789
0.00355149
0.00304448
0.0023548
0.00153946
0.000767874
0.000257084
5.55151e-05
3.13858e-05
3.75446e-05
4.95165e-05
6.10463e-05
6.75103e-05
6.9199e-05
9.63151e-05
0.000167853
0.000393282
0.000665656
0.000866835
0.000909974
0.000884304
0.000807048
0.00079276
0.000906793
0.00124637
0.00138316
0.00167538
0.00207365
0.00410417
0.0152145
0.0316715
0.047369
0.0613747
0.0738755
0.0850405
0.0951306
0.104299
0.112737
0.12056
0.127897
0.134841
0.141517
0.148006
0.154416
0.160386
0.166273
0.171878
0.177412
0.182764
0.188058
0.193238
0.198375
0.203438
0.208469
0.213454
0.218411
0.223339
0.228244
0.233127
0.237988
0.242831
0.24765
0.252449
0.257222
0.261971
0.266687
0.271373
0.276019
0.280626
0.285184
0.289693
0.294144
0.298535
0.30286
0.307119
0.311309
0.315435
0.319504
0.323533
0.327546
0.331537
0.335432
0.339273
0.343037
0.346728
0.350339
0.353864
0.3573
0.36064
0.363878
0.36701
0.37003
0.372932
0.375711
0.378361
0.380877
0.383254
0.385486
0.387569
0.389495
0.391262
0.392863
0.394295
0.395557
0.396651
0.397581
0.39835
0.398949
0.399321
0.399457
0.398645
0.398277
0.397934
0.395845
0.39497
0.392598
0.3911
0.389186
0.386762
0.384097
0.381317
0.378069
0.374985
0.371489
0.367829
0.363931
0.359839
0.355557
0.351101
0.346495
0.341753
0.336893
0.331932
0.326866
0.321643
0.316382
0.311076
0.305805
0.300567
0.295388
0.290289
0.285284
0.280399
0.275643
0.271035
0.266577
0.262289
0.258182
0.254246
0.250454
0.246833
0.24351
0.241831
0.241573
0.241219
0.240942
0.240561
0.239992
0.238935
0.237242
0.218643
2.54669e-05
1.51181e-05
4.59778e-05
0.000108971
0.000272878
0.000749939
0.00167674
0.00310973
0.00474739
0.00650926
0.00810702
0.00950442
0.0104695
0.011175
0.0113893
0.011287
0.011099
0.010598
0.0098486
0.00879194
0.00757934
0.0061209
0.00471518
0.00341256
0.00223662
0.00131092
0.000690328
0.000347067
0.000178321
0.00010407
7.29696e-05
7.60542e-05
8.21587e-05
0.000484992
0.000962333
0.00247473
0.00395672
0.00482679
0.00479379
0.0045516
0.00404464
0.00421662
0.00506801
0.00714556
0.0119577
0.0194203
0.029772
0.0439768
0.0628402
0.0816471
0.100413
0.118113
0.136342
0.154518
0.173382
0.192483
0.211963
0.231494
0.251007
0.269623
0.287621
0.304749
0.321204
0.336933
0.352107
0.366741
0.380971
0.394831
0.408398
0.421741
0.434913
0.447956
0.460911
0.473808
0.486674
0.499531
0.512396
0.525286
0.538208
0.551174
0.564188
0.577257
0.590379
0.603558
0.61679
0.630073
0.643401
0.656768
0.670165
0.683581
0.697003
0.710415
0.723799
0.737137
0.750406
0.763582
0.776641
0.789562
0.80234
0.815033
0.827741
0.840423
0.853085
0.865719
0.878313
0.890859
0.903346
0.915762
0.928096
0.940335
0.952467
0.964477
0.976352
0.988077
0.999636
1.01101
1.02219
1.03316
1.04388
1.05436
1.06457
1.07448
1.08407
1.09333
1.10223
1.11074
1.11884
1.1265
1.1337
1.14038
1.1466
1.15229
1.15736
1.16198
1.16599
1.16962
1.1729
1.17494
1.17589
1.1762
1.17439
1.17392
1.17222
1.16988
1.16678
1.16299
1.15853
1.15343
1.14773
1.14149
1.13474
1.12755
1.11996
1.11199
1.10362
1.09489
1.08601
1.07703
1.06801
1.05901
1.05011
1.04134
1.03277
1.02445
1.01643
1.00874
1.00144
0.994513
0.987986
0.981861
0.976165
0.970947
0.96603
0.961375
0.957067
0.953062
0.94901
0.945195
0.938273
0.904528
3.22284e-05
1.29255e-05
5.4228e-05
0.000249784
0.000747412
0.00209938
0.00417491
0.00671022
0.0092413
0.0117061
0.0137774
0.015471
0.0166404
0.0174527
0.0176053
0.0174602
0.0171669
0.0165493
0.0157316
0.0147504
0.013536
0.0121944
0.0104876
0.00859392
0.00656581
0.00468824
0.00295823
0.00175842
0.00103079
0.000637539
0.000424184
0.00038269
0.000419529
0.00147914
0.00336553
0.00772765
0.0106959
0.0123962
0.0138946
0.0143014
0.0143787
0.0204951
0.029616
0.0418266
0.0601849
0.0806021
0.104992
0.129718
0.15694
0.185463
0.217266
0.251057
0.286743
0.32284
0.358758
0.393371
0.426249
0.456949
0.485347
0.512106
0.537271
0.561064
0.583664
0.605255
0.626019
0.646081
0.665589
0.684647
0.703353
0.721785
0.740004
0.758065
0.776011
0.793878
0.811696
0.829488
0.847274
0.865067
0.882881
0.900724
0.918601
0.936518
0.954475
0.972473
0.990511
1.00859
1.0267
1.04483
1.063
1.08118
1.09937
1.11758
1.13578
1.15398
1.17218
1.19036
1.20854
1.22672
1.24491
1.26307
1.28121
1.29929
1.31732
1.33526
1.35313
1.37089
1.38854
1.40606
1.42343
1.44065
1.45768
1.47453
1.49116
1.50755
1.5237
1.53958
1.55516
1.57042
1.58534
1.5999
1.61406
1.62781
1.6411
1.65391
1.66621
1.67797
1.68915
1.69973
1.70965
1.7189
1.72745
1.73525
1.74225
1.74848
1.75385
1.75839
1.76205
1.76454
1.76581
1.76643
1.76612
1.76498
1.76269
1.7594
1.75501
1.74963
1.74331
1.7361
1.72806
1.71926
1.70975
1.69962
1.68894
1.67777
1.66618
1.65426
1.64209
1.62976
1.61736
1.60496
1.59265
1.5805
1.5686
1.55701
1.54581
1.53505
1.52479
1.51507
1.50592
1.49737
1.4894
1.482
1.47505
1.46858
1.46256
1.45701
1.4517
1.44701
1.43944
1.41228
3.63428e-05
3.4844e-05
0.000227452
0.000897913
0.00258773
0.00594589
0.00990245
0.0140128
0.0176918
0.0208614
0.0230232
0.024418
0.0246068
0.0244626
0.023933
0.0232096
0.0223697
0.0214452
0.0204232
0.0193069
0.0180638
0.0166945
0.0151228
0.0133462
0.0113421
0.00921489
0.00707928
0.00518788
0.00342799
0.00236342
0.00158499
0.00159331
0.0023393
0.00662269
0.0156016
0.0254303
0.0286594
0.0280781
0.0331647
0.0426411
0.0559947
0.0727225
0.092073
0.115446
0.14103
0.17019
0.203255
0.239244
0.278224
0.318776
0.360636
0.402536
0.444025
0.484393
0.523359
0.560639
0.596154
0.629898
0.661977
0.69256
0.721761
0.74974
0.776636
0.802594
0.82776
0.852256
0.876197
0.899679
0.92279
0.945602
0.968179
0.990574
1.01283
1.03499
1.05709
1.07914
1.10118
1.12321
1.14525
1.16732
1.18941
1.21154
1.23371
1.25592
1.27816
1.30045
1.32276
1.34511
1.36748
1.38988
1.4123
1.43473
1.45717
1.47961
1.50206
1.5245
1.54692
1.56932
1.59168
1.61399
1.63623
1.65838
1.68043
1.70236
1.72415
1.74579
1.76726
1.78855
1.80963
1.83049
1.85111
1.87146
1.89154
1.91131
1.93076
1.94985
1.96857
1.98689
2.00479
2.02222
2.03918
2.05561
2.0715
2.08681
2.10149
2.11553
2.12888
2.1415
2.15336
2.16441
2.1746
2.18391
2.19228
2.19969
2.20609
2.21144
2.21568
2.2188
2.22058
2.2214
2.22154
2.2203
2.21779
2.2141
2.20922
2.20319
2.19607
2.1879
2.17873
2.16864
2.1577
2.146
2.13361
2.12062
2.10712
2.09318
2.07891
2.0644
2.04975
2.03504
2.02037
2.00583
1.99151
1.97751
1.96389
1.95072
1.93806
1.92595
1.91444
1.90354
1.89328
1.88365
1.87461
1.86617
1.85831
1.85109
1.84439
1.8386
1.83097
1.80847
3.96202e-05
0.00012558
0.000787376
0.00287782
0.0076054
0.0140157
0.0200821
0.0252225
0.028449
0.029786
0.0297353
0.0290221
0.0280907
0.0270185
0.0259833
0.025003
0.0240825
0.0231808
0.0222713
0.0213243
0.0203074
0.0191802
0.0178894
0.016408
0.0146806
0.0127768
0.0105713
0.0082768
0.00681449
0.00502592
0.00441594
0.0060492
0.0149796
0.0364587
0.0535792
0.0591408
0.0631993
0.0691225
0.080769
0.0950848
0.113177
0.136541
0.163541
0.195085
0.23011
0.269064
0.310193
0.352943
0.396462
0.440135
0.483648
0.526553
0.568727
0.60996
0.650131
0.68913
0.726898
0.76341
0.798692
0.832784
0.865741
0.897651
0.928605
0.958706
0.988055
1.01675
1.04489
1.07255
1.09981
1.12675
1.15342
1.17989
1.2062
1.23238
1.25848
1.28452
1.31053
1.33653
1.36253
1.38854
1.41459
1.44066
1.46677
1.49291
1.51909
1.54531
1.57156
1.59785
1.62415
1.65048
1.67682
1.70316
1.7295
1.75584
1.78215
1.80842
1.83465
1.86082
1.8869
1.9129
1.93878
1.96453
1.99013
2.01557
2.04082
2.06586
2.09068
2.11525
2.13956
2.16358
2.1873
2.21068
2.23372
2.25637
2.27863
2.30046
2.32184
2.34274
2.36312
2.38298
2.40226
2.42093
2.43898
2.45635
2.47301
2.48893
2.50406
2.51838
2.53183
2.54439
2.556
2.56662
2.57621
2.58473
2.59215
2.59841
2.60347
2.60734
2.6099
2.61118
2.61154
2.61067
2.60835
2.60472
2.59979
2.59359
2.58616
2.57755
2.56781
2.55701
2.54523
2.53255
2.51905
2.50483
2.48997
2.47457
2.45872
2.44251
2.42606
2.40945
2.3928
2.37619
2.35973
2.3435
2.32759
2.31206
2.29699
2.2824
2.26836
2.2549
2.24204
2.22982
2.21822
2.20728
2.19701
2.18752
2.17874
2.17109
2.16262
2.14207
2.76571e-05
0.000432214
0.00250903
0.00827261
0.0180457
0.0264948
0.0318012
0.0337195
0.0334447
0.0327543
0.0314172
0.0299853
0.0286258
0.0273648
0.0262211
0.0251996
0.0242894
0.0234662
0.0227035
0.0219515
0.0211683
0.0203012
0.0192903
0.0180943
0.0166921
0.0151516
0.0139565
0.0115558
0.00870323
0.00820009
0.0136547
0.033561
0.0688293
0.0873467
0.0931
0.0944515
0.0985601
0.109339
0.126112
0.147722
0.174419
0.206092
0.241688
0.280689
0.32192
0.364698
0.408051
0.451735
0.495422
0.538926
0.582188
0.625129
0.667699
0.709808
0.751327
0.792146
0.832181
0.871357
0.909635
0.947
0.983461
1.01905
1.05381
1.0878
1.1211
1.15378
1.18591
1.21756
1.24881
1.27971
1.31033
1.34073
1.37094
1.40102
1.431
1.46091
1.49077
1.52062
1.55046
1.58031
1.61019
1.64009
1.67003
1.70001
1.73002
1.76007
1.79014
1.82025
1.85037
1.88051
1.91064
1.94077
1.97088
2.00095
2.03097
2.06093
2.09081
2.12058
2.15023
2.17975
2.20912
2.23831
2.2673
2.29608
2.32461
2.35288
2.38087
2.40855
2.43589
2.46288
2.4895
2.51571
2.54149
2.56682
2.59167
2.61602
2.63983
2.66308
2.68573
2.70777
2.72915
2.74984
2.76981
2.78902
2.80745
2.82504
2.84177
2.8576
2.87249
2.8864
2.89928
2.9111
2.92181
2.93139
2.93978
2.94695
2.95286
2.9575
2.96084
2.96279
2.96354
2.96307
2.96113
2.95778
2.95303
2.94692
2.93946
2.9307
2.9207
2.90951
2.89722
2.8839
2.86964
2.85451
2.83862
2.82204
2.80487
2.78722
2.76918
2.75085
2.73234
2.71376
2.69519
2.67672
2.65846
2.64046
2.62279
2.60551
2.58866
2.57229
2.55645
2.54117
2.52649
2.51245
2.49913
2.48665
2.47502
2.46468
2.45424
2.43346
0.000317193
0.00155476
0.00708966
0.0200446
0.0312204
0.0366173
0.0380034
0.0375725
0.0362126
0.0340311
0.0319306
0.0300692
0.0284058
0.0269869
0.0258038
0.0248271
0.0240208
0.0233339
0.0227102
0.0221364
0.021555
0.020913
0.0201738
0.0192665
0.0180639
0.0165297
0.0150769
0.0152552
0.0181466
0.0295238
0.058996
0.0948426
0.11075
0.114944
0.115516
0.120282
0.133117
0.152258
0.177102
0.207017
0.24166
0.279543
0.31971
0.361316
0.403714
0.446514
0.48947
0.532504
0.575576
0.618711
0.661866
0.70504
0.7482
0.791271
0.83415
0.876712
0.918857
0.960486
1.00152
1.04191
1.08162
1.12063
1.15897
1.19664
1.2337
1.2702
1.30617
1.34169
1.37682
1.4116
1.44609
1.48035
1.51442
1.54835
1.58216
1.61589
1.64958
1.68324
1.7169
1.75056
1.78425
1.81796
1.85171
1.88549
1.91931
1.95317
1.98705
2.02095
2.05487
2.08878
2.12269
2.15657
2.19041
2.22419
2.25789
2.2915
2.32499
2.35834
2.39153
2.42454
2.45736
2.48995
2.5223
2.55437
2.58614
2.61759
2.64868
2.6794
2.70972
2.73961
2.76904
2.79799
2.82643
2.85434
2.88167
2.90842
2.93454
2.96001
2.98479
3.00887
3.0322
3.05475
3.07649
3.09739
3.11741
3.13652
3.15468
3.17186
3.18803
3.20314
3.21715
3.23003
3.24175
3.25226
3.26154
3.26953
3.27622
3.28159
3.28561
3.28824
3.28947
3.28944
3.28793
3.28496
3.2805
3.27459
3.26725
3.25851
3.24844
3.23707
3.22448
3.21073
3.19591
3.18009
3.16336
3.14579
3.12748
3.10852
3.089
3.06902
3.0487
3.02812
3.00739
2.9866
2.96584
2.94519
2.92471
2.90446
2.88449
2.86485
2.8456
2.82681
2.80851
2.79081
2.77379
2.75763
2.74239
2.72853
2.71491
2.69269
0.00187021
0.00454909
0.0170927
0.0331031
0.0403927
0.0422107
0.0415838
0.0395639
0.036655
0.0339044
0.031409
0.0292834
0.0275646
0.026211
0.0251551
0.0243277
0.0236629
0.0231087
0.0226196
0.0221302
0.0215985
0.0209305
0.0199175
0.0187061
0.0175856
0.0162725
0.0169533
0.0236314
0.043591
0.080352
0.111655
0.123684
0.128826
0.129563
0.13743
0.152111
0.173873
0.201274
0.233587
0.269476
0.307961
0.347894
0.388757
0.430142
0.471855
0.513811
0.555928
0.598221
0.640757
0.683597
0.726774
0.770298
0.814132
0.858196
0.90239
0.946603
0.990716
1.03462
1.07821
1.1214
1.16414
1.20637
1.24808
1.28927
1.32993
1.37011
1.40983
1.44913
1.48806
1.52667
1.565
1.6031
1.64101
1.67877
1.71642
1.75399
1.79151
1.82901
1.86649
1.90399
1.94151
1.97905
2.01663
2.05425
2.0919
2.12959
2.16729
2.20502
2.24274
2.28046
2.31815
2.3558
2.39339
2.4309
2.4683
2.50557
2.5427
2.57965
2.6164
2.65293
2.68921
2.72521
2.76091
2.79629
2.83129
2.86591
2.90011
2.93385
2.96711
2.99986
3.03207
3.06371
3.09475
3.12515
3.15489
3.18394
3.21227
3.23985
3.26665
3.29263
3.31777
3.34204
3.36539
3.38781
3.40926
3.4297
3.44911
3.46746
3.48471
3.50083
3.51579
3.52955
3.54209
3.55337
3.56336
3.57203
3.57935
3.58531
3.58988
3.59305
3.59477
3.59514
3.59405
3.59144
3.58729
3.58162
3.57446
3.56583
3.55579
3.54436
3.53161
3.5176
3.50238
3.48604
3.46862
3.45021
3.43087
3.41069
3.38976
3.36817
3.34603
3.32343
3.30048
3.27725
3.25386
3.23037
3.20685
3.18336
3.15996
3.13671
3.11367
3.09092
3.06854
3.04663
3.02535
3.00487
2.98532
2.96716
2.94945
2.92468
0.00486238
0.0100741
0.0299992
0.043131
0.0471805
0.046768
0.0443069
0.0406452
0.0369394
0.0335875
0.0308127
0.0286399
0.0269868
0.0257398
0.0247892
0.0240552
0.0234807
0.0230052
0.0225858
0.0221736
0.0217668
0.0214743
0.0215286
0.0218694
0.0237371
0.0291547
0.0410023
0.0661156
0.0979256
0.119872
0.131645
0.135464
0.139513
0.149723
0.167171
0.190926
0.220369
0.253677
0.289864
0.327818
0.366881
0.406555
0.446671
0.487132
0.527781
0.568676
0.609893
0.651527
0.693668
0.736388
0.779729
0.823686
0.86822
0.913262
0.958721
1.00449
1.05044
1.09645
1.14242
1.18823
1.23381
1.27909
1.32401
1.36855
1.4127
1.45645
1.49983
1.54285
1.58555
1.62795
1.6701
1.71204
1.75379
1.79541
1.83693
1.87836
1.91975
1.96111
2.00247
2.04384
2.08523
2.12665
2.1681
2.20959
2.25112
2.29267
2.33424
2.37582
2.41739
2.45894
2.50046
2.54191
2.58328
2.62454
2.66567
2.70664
2.74742
2.78799
2.82832
2.86838
2.90814
2.94757
2.98663
3.0253
3.06354
3.10131
3.13858
3.17532
3.21149
3.24706
3.28199
3.31625
3.34981
3.38263
3.41469
3.44594
3.47637
3.50593
3.5346
3.56234
3.58913
3.61493
3.63972
3.66346
3.68613
3.7077
3.72814
3.74742
3.76552
3.78241
3.79806
3.81246
3.82558
3.83738
3.84785
3.85696
3.86469
3.87103
3.87596
3.87946
3.88153
3.88219
3.88141
3.8791
3.87518
3.86971
3.86273
3.85424
3.84428
3.83289
3.82009
3.80592
3.79044
3.7737
3.75574
3.7366
3.71635
3.69505
3.67278
3.64962
3.62568
3.60105
3.57582
3.55009
3.52394
3.49746
3.47072
3.44377
3.41668
3.38953
3.36237
3.33531
3.30844
3.28189
3.25584
3.2305
3.20605
3.18295
3.16039
3.13211
0.00801422
0.0181208
0.0419192
0.0515999
0.0530632
0.0506997
0.0463851
0.0416307
0.0371936
0.0334737
0.0305833
0.0284074
0.0268047
0.0256411
0.0248009
0.024159
0.02363
0.023167
0.0228679
0.0226115
0.0225384
0.0231717
0.0250446
0.0292363
0.0387972
0.0581831
0.0835646
0.107676
0.124817
0.13351
0.138573
0.146152
0.158924
0.178709
0.204408
0.234635
0.268222
0.303842
0.340831
0.378626
0.41696
0.45563
0.494547
0.533723
0.573224
0.61316
0.653648
0.694797
0.736703
0.779433
0.823012
0.867439
0.912683
0.958682
1.00535
1.05258
1.10025
1.14825
1.19645
1.24473
1.293
1.34117
1.38917
1.43695
1.48447
1.53172
1.57868
1.62537
1.67179
1.71798
1.76395
1.80973
1.85536
1.90086
1.94627
1.99161
2.0369
2.08218
2.12745
2.17274
2.21804
2.26338
2.30875
2.35415
2.39958
2.44504
2.4905
2.53596
2.58141
2.62681
2.67216
2.71743
2.76259
2.80762
2.85249
2.89716
2.9416
2.98579
3.02969
3.07327
3.11649
3.15932
3.20171
3.24364
3.28506
3.32594
3.36624
3.4059
3.44491
3.48322
3.52078
3.55757
3.59355
3.62867
3.66291
3.69623
3.7286
3.75998
3.79034
3.81966
3.84789
3.87503
3.90102
3.92585
3.94949
3.97192
3.99312
4.01305
4.03172
4.04909
4.06514
4.07988
4.09327
4.1053
4.11594
4.1252
4.13305
4.13948
4.14449
4.14808
4.15024
4.151
4.15037
4.14819
4.14434
4.13897
4.13209
4.1237
4.11383
4.10249
4.08969
4.07546
4.05982
4.04279
4.02439
4.00465
3.9836
3.96127
3.93774
3.91307
3.88736
3.8607
3.83318
3.8049
3.77593
3.74637
3.71627
3.68571
3.65476
3.62348
3.59196
3.56031
3.52863
3.4971
3.4659
3.43528
3.40546
3.37692
3.34896
3.31643
0.0102782
0.0282632
0.0520056
0.0593953
0.0590575
0.0548551
0.0491181
0.043299
0.0382215
0.0341849
0.0311683
0.0290113
0.0274997
0.0264875
0.0258223
0.0254311
0.025325
0.0254341
0.0260035
0.0272454
0.0296978
0.0343391
0.042901
0.058132
0.0770689
0.0961182
0.11298
0.125152
0.13318
0.140506
0.150588
0.166633
0.188157
0.214995
0.245466
0.27847
0.313138
0.34881
0.385173
0.421904
0.458931
0.496205
0.533787
0.571777
0.610294
0.649463
0.689407
0.73024
0.772045
0.814875
0.858761
0.903703
0.949675
0.996621
1.04446
1.0931
1.14242
1.1923
1.24262
1.29325
1.34409
1.39504
1.446
1.49692
1.54773
1.5984
1.6489
1.69922
1.74935
1.7993
1.84909
1.89873
1.94824
1.99765
2.04698
2.09626
2.1455
2.19472
2.24394
2.29318
2.34243
2.39171
2.44102
2.49035
2.5397
2.58906
2.63842
2.68777
2.73708
2.78633
2.83549
2.88455
2.93348
2.98223
3.03079
3.07911
3.12716
3.17491
3.22231
3.26933
3.31593
3.36207
3.40771
3.4528
3.4973
3.54117
3.58436
3.62683
3.66854
3.70944
3.74948
3.78863
3.82685
3.86409
3.90032
3.9355
3.96959
4.00256
4.03438
4.06502
4.09445
4.12263
4.14955
4.17518
4.19949
4.22247
4.2441
4.26436
4.28325
4.30075
4.31686
4.33157
4.34487
4.35677
4.36724
4.37628
4.3839
4.39009
4.39486
4.39822
4.40018
4.40078
4.40006
4.39777
4.39378
4.38834
4.38143
4.37306
4.36323
4.35193
4.33917
4.32492
4.3092
4.29199
4.27329
4.25307
4.23134
4.2081
4.1834
4.15731
4.1299
4.10126
4.07148
4.04065
4.00885
3.97616
3.94264
3.90837
3.87343
3.83788
3.80183
3.76538
3.72869
3.69192
3.6553
3.61911
3.58357
3.54924
3.5155
3.47822
0.0114803
0.038097
0.0616893
0.0676507
0.0659273
0.0600751
0.0529825
0.0463774
0.0409933
0.0369044
0.0339357
0.0318624
0.0304708
0.0298154
0.0295063
0.0296455
0.0304878
0.0322101
0.0354541
0.0411316
0.0497515
0.0612572
0.0751515
0.0890773
0.102708
0.114265
0.1238
0.132357
0.142324
0.155178
0.173851
0.196964
0.224085
0.254205
0.286234
0.319556
0.353731
0.388358
0.423331
0.458589
0.494143
0.530071
0.566481
0.603501
0.641258
0.67988
0.719488
0.760178
0.802025
0.845081
0.889375
0.934911
0.981665
1.02959
1.07861
1.12864
1.17956
1.23127
1.28364
1.33655
1.38989
1.44352
1.49737
1.55135
1.60538
1.6594
1.71338
1.76728
1.82108
1.87479
1.92839
1.98189
2.0353
2.08864
2.14191
2.19515
2.24836
2.30155
2.35473
2.40793
2.46113
2.51435
2.56758
2.62081
2.67405
2.72728
2.78049
2.83365
2.88675
2.93976
2.99265
3.0454
3.09798
3.15035
3.20247
3.2543
3.30581
3.35696
3.40771
3.45801
3.50781
3.55708
3.60576
3.65382
3.70119
3.74783
3.7937
3.83874
3.88291
3.92615
3.96842
4.00967
4.04985
4.08893
4.12686
4.1636
4.19911
4.23336
4.26631
4.29794
4.32821
4.3571
4.38459
4.41064
4.43525
4.4584
4.48008
4.50027
4.51899
4.53622
4.55198
4.56626
4.57908
4.59044
4.60033
4.60878
4.61578
4.62135
4.62552
4.62831
4.62974
4.62985
4.62876
4.62601
4.62166
4.61595
4.60885
4.60036
4.59048
4.5792
4.56647
4.55226
4.53653
4.51926
4.50039
4.47984
4.45758
4.43357
4.40785
4.38046
4.35146
4.32093
4.28897
4.25565
4.22104
4.18524
4.1483
4.1103
4.07132
4.03144
3.99076
3.94942
3.90757
3.86542
3.82321
3.78124
3.73979
3.69944
3.65968
3.61737
0.0123345
0.0475466
0.0721392
0.0773753
0.0742823
0.0668918
0.0587709
0.0518671
0.0466938
0.0430356
0.040559
0.0392398
0.0387594
0.0388384
0.0401073
0.0424666
0.0462195
0.0515049
0.0583771
0.0664801
0.0756255
0.0855505
0.0955334
0.105005
0.114087
0.123145
0.133352
0.145643
0.161737
0.182146
0.206247
0.233251
0.26249
0.293262
0.325031
0.357392
0.390172
0.423288
0.456728
0.490538
0.524806
0.559644
0.595175
0.631526
0.668824
0.707189
0.746719
0.787505
0.829612
0.873088
0.91796
0.964233
1.01189
1.06089
1.11116
1.16262
1.21517
1.26869
1.32309
1.37822
1.43397
1.49023
1.54689
1.60386
1.66104
1.71836
1.77578
1.83323
1.89069
1.94812
2.00552
2.06287
2.12017
2.17743
2.23464
2.29181
2.34896
2.40609
2.4632
2.52029
2.57738
2.63446
2.69153
2.74858
2.80559
2.86256
2.91947
2.97629
3.03301
3.0896
3.14603
3.20226
3.25827
3.31401
3.36945
3.42454
3.47925
3.53352
3.58732
3.64059
3.69329
3.74536
3.79676
3.84744
3.89734
3.9464
3.99458
4.04182
4.08807
4.13327
4.17737
4.22032
4.26207
4.30257
4.34179
4.37966
4.41616
4.45126
4.4849
4.51708
4.54776
4.57691
4.60451
4.63054
4.65499
4.67785
4.69912
4.71879
4.73688
4.75339
4.76835
4.78177
4.79366
4.80405
4.81296
4.82039
4.82637
4.83094
4.83413
4.83598
4.83653
4.83584
4.834
4.8304
4.82547
4.81927
4.81178
4.80303
4.793
4.78168
4.76898
4.75484
4.73921
4.72201
4.70313
4.68243
4.65982
4.63523
4.60866
4.58013
4.54969
4.51743
4.48341
4.44771
4.41041
4.37157
4.33128
4.28959
4.2466
4.20239
4.15708
4.11081
4.06377
4.01619
3.96832
3.92051
3.87305
3.82661
3.78071
3.73328
0.0127597
0.0579883
0.0835787
0.0885158
0.0842917
0.0755742
0.0668161
0.0601713
0.0558271
0.0532576
0.0521761
0.0518693
0.0526297
0.0543574
0.0570649
0.0607083
0.0652903
0.0707323
0.0769108
0.0836469
0.0908289
0.0984079
0.106473
0.115393
0.125719
0.13809
0.153132
0.17159
0.193095
0.217481
0.244022
0.272158
0.301454
0.331456
0.361958
0.392861
0.424145
0.455829
0.487984
0.520703
0.554099
0.588288
0.623387
0.659516
0.696787
0.7353
0.775142
0.816382
0.859075
0.903263
0.94897
0.9962
1.04494
1.09515
1.14677
1.19974
1.25397
1.30935
1.36577
1.42312
1.48128
1.54013
1.59956
1.65947
1.71975
1.78032
1.84111
1.90206
1.9631
2.0242
2.08533
2.14646
2.20757
2.26866
2.32971
2.39073
2.45171
2.51265
2.57354
2.6344
2.69521
2.75598
2.81668
2.87731
2.93787
2.99832
3.05866
3.11886
3.17889
3.23872
3.29834
3.35769
3.41675
3.47547
3.53381
3.59174
3.64919
3.70613
3.76251
3.81828
3.87338
3.92776
3.98137
4.03415
4.08604
4.13699
4.18694
4.23583
4.2836
4.33019
4.37556
4.41964
4.46239
4.50374
4.54366
4.5821
4.61902
4.65438
4.68815
4.7203
4.75081
4.77965
4.8068
4.83225
4.856
4.87803
4.89835
4.91698
4.93393
4.94923
4.9629
4.97498
4.98549
4.99447
5.00195
5.00796
5.01254
5.01571
5.01757
5.01815
5.01745
5.01576
5.01248
5.00789
5.00213
4.99522
4.98716
4.97799
4.96771
4.9563
4.94364
4.92963
4.91419
4.89723
4.87855
4.85793
4.8352
4.81025
4.78303
4.75357
4.7219
4.68808
4.65218
4.61428
4.57443
4.53272
4.48919
4.44393
4.39703
4.34857
4.2987
4.24756
4.19537
4.1424
4.08891
4.03528
3.98185
3.92935
3.87735
3.82486
0.0129155
0.0685289
0.0957866
0.100813
0.0956513
0.0856981
0.0763527
0.0698684
0.066327
0.064531
0.0640046
0.064306
0.0657015
0.0678444
0.0707282
0.0742934
0.0785321
0.0834477
0.0890762
0.0955241
0.102993
0.111788
0.122187
0.134557
0.149192
0.166438
0.186198
0.208411
0.232586
0.258379
0.285326
0.313051
0.341372
0.370173
0.399423
0.429132
0.45936
0.49019
0.521719
0.554051
0.587285
0.621516
0.656847
0.693376
0.731192
0.770376
0.810997
0.853117
0.896786
0.94204
0.988902
1.03738
1.08745
1.1391
1.19227
1.24692
1.30294
1.36027
1.41879
1.47839
1.53895
1.60036
1.6625
1.72527
1.78855
1.85225
1.91628
1.98057
2.04503
2.10963
2.1743
2.23902
2.30374
2.36845
2.43312
2.49773
2.56229
2.62676
2.69116
2.75546
2.81965
2.88374
2.9477
3.01152
3.07518
3.13867
3.20197
3.26504
3.32787
3.39041
3.45265
3.51454
3.57604
3.63712
3.69773
3.75783
3.81737
3.87629
3.93456
3.9921
4.04888
4.10484
4.15991
4.21403
4.26716
4.31923
4.37017
4.41994
4.46846
4.51567
4.56153
4.60597
4.64894
4.69037
4.73024
4.76848
4.80506
4.83994
4.87309
4.9045
4.93414
4.96198
4.988
5.0122
5.03458
5.05516
5.07393
5.09093
5.10618
5.11972
5.13159
5.14184
5.15052
5.15764
5.16329
5.16747
5.17029
5.17171
5.17194
5.17097
5.16885
5.16529
5.16064
5.15487
5.14806
5.14024
5.13145
5.12173
5.11113
5.09961
5.08703
5.07323
5.05813
5.04162
5.0234
5.00313
4.98055
4.9555
4.92791
4.89776
4.8651
4.82996
4.79241
4.75252
4.71034
4.66594
4.61937
4.57071
4.52005
4.4675
4.4132
4.35732
4.30011
4.24187
4.18289
4.12357
4.06431
4.00594
3.948
3.8907
0.012964
0.0785246
0.108026
0.113496
0.107729
0.0966447
0.0865156
0.0797179
0.0760755
0.0742526
0.0737477
0.0742392
0.0757989
0.0782353
0.0815704
0.0858253
0.091085
0.0973478
0.104799
0.113688
0.124373
0.136909
0.151425
0.168053
0.186807
0.207587
0.230133
0.254199
0.279394
0.305449
0.33217
0.359454
0.387254
0.41557
0.444436
0.47392
0.504106
0.535085
0.566951
0.599791
0.633694
0.668751
0.705047
0.742662
0.781666
0.822123
0.864089
0.907615
0.952744
0.99951
1.04793
1.09802
1.14977
1.20315
1.25812
1.31463
1.3726
1.43196
1.4926
1.55442
1.61732
1.68117
1.74586
1.81128
1.87732
1.94388
2.01085
2.07814
2.14569
2.2134
2.28123
2.34911
2.41701
2.48488
2.55268
2.6204
2.688
2.75547
2.82279
2.88994
2.95691
3.02367
3.09022
3.15653
3.22259
3.28837
3.35385
3.419
3.4838
3.54821
3.61221
3.67575
3.73879
3.8013
3.86324
3.92455
3.98519
4.04511
4.10426
4.16258
4.22001
4.27651
4.33202
4.38646
4.43979
4.49193
4.54284
4.59244
4.64068
4.68749
4.73282
4.7766
4.81879
4.85932
4.89815
4.93524
4.97055
5.00403
5.03566
5.06545
5.09337
5.11938
5.14346
5.16564
5.18593
5.20433
5.22088
5.23561
5.24856
5.25977
5.26932
5.27726
5.28367
5.28853
5.29199
5.29399
5.2948
5.29414
5.29269
5.28958
5.28553
5.28042
5.27428
5.26715
5.25913
5.25031
5.24069
5.23039
5.21946
5.20788
5.19546
5.18199
5.16741
5.15163