/*--------------------------------*- C++ -*----------------------------------*\
  =========                 |
  \\      /  F ield         | OpenFOAM: The Open Source CFD Toolbox
   \\    /   O peration     | Website:  https://openfoam.org
    \\  /    A nd           | Version:  8
     \\/     M anipulation  |
\*---------------------------------------------------------------------------*/
FoamFile
{
    version     2.0;
    format      ascii;
    class       volScalarField;
    location    "200";
    object      nut;
}
// * * * * * * * * * * * * * * * * * * * * * * * * * * * * * * * * * * * * * //

dimensions      [0 2 -1 0 0 0 0];

internalField   nonuniform List<scalar> 
12225
(
0.000167319
4.81092e-05
5.42157e-05
5.12082e-05
5.03116e-05
4.86441e-05
4.48069e-05
4.05869e-05
9.48949e-05
0.000172883
8.54471e-05
6.89954e-05
5.52581e-05
5.35598e-05
3.63106e-05
8.39445e-05
0.000141806
6.89345e-05
0.000625949
0.000112419
0.000104627
9.15639e-05
8.40839e-05
7.07011e-05
6.62853e-05
6.13192e-05
6.41464e-05
7.12193e-05
7.15859e-05
6.90741e-05
6.57638e-05
6.49927e-05
6.39371e-05
6.58155e-05
7.25339e-05
7.00986e-05
0.00139
0.000387998
0.000253122
0.000207825
0.000175848
0.000149761
0.000134283
0.000122209
0.000114746
0.000109738
0.000106207
0.000102533
9.88328e-05
9.64133e-05
9.45755e-05
9.20171e-05
9.16614e-05
8.92738e-05
0.00107847
0.000732078
0.000557572
0.000427304
0.000366518
0.000322347
0.000293671
0.000269139
0.000252436
0.000235803
0.000224735
0.000212332
0.000203634
0.00019379
0.00018784
0.000179303
0.000174618
0.000167465
0.00090607
0.000854369
0.000774856
0.00065717
0.000591558
0.000544969
0.000511456
0.00047788
0.000454732
0.000428817
0.000412023
0.000391617
0.00037854
0.000361669
0.000351769
0.00033734
0.000329464
0.000316878
0.000862232
0.000860899
0.000839788
0.000789022
0.000752188
0.00071865
0.000693979
0.000665033
0.000644434
0.000619638
0.000602938
0.00058187
0.000568155
0.000549745
0.000538574
0.000522168
0.000513054
0.000498205
0.000853376
0.000856342
0.000850509
0.00083784
0.000821837
0.000806524
0.000794711
0.000778625
0.000766405
0.00075055
0.000739237
0.000724447
0.00071427
0.00070039
0.000691363
0.000678227
0.000670402
0.000657885
0.000852178
0.000851731
0.000850034
0.00084735
0.000841625
0.000834585
0.000828505
0.000821518
0.000814931
0.000806273
0.00079965
0.000790945
0.000784545
0.000775872
0.000769775
0.000761161
0.000755457
0.000746773
0.000851629
0.000850705
0.000849737
0.00084845
0.000846587
0.000843907
0.000841269
0.000838074
0.000834542
0.000830739
0.000826922
0.000822593
0.000818818
0.000814236
0.000810467
0.000805691
0.000801912
0.000796742
0.000851509
0.000850447
0.000849543
0.000848563
0.000847612
0.000846413
0.000845213
0.000843746
0.000842238
0.000840431
0.000838735
0.000836689
0.000834884
0.000832701
0.000830769
0.000828501
0.000826386
0.000823812
0.000851478
0.00085041
0.000849472
0.000848518
0.000847673
0.000846769
0.000845952
0.00084503
0.000844189
0.000843208
0.000842335
0.000841301
0.000840399
0.000839322
0.000838393
0.000837257
0.000836319
0.000835075
0.000851462
0.00085041
0.000849448
0.000848499
0.000847635
0.000846771
0.000845988
0.00084519
0.000844464
0.000843712
0.000843031
0.000842314
0.000841667
0.000840978
0.000840358
0.000839687
0.000839088
0.000838427
0.000851455
0.000850412
0.000849434
0.000848492
0.00084761
0.000846757
0.000845957
0.000845182
0.000844454
0.000843747
0.000843081
0.000842432
0.000841822
0.000841225
0.000840661
0.00084011
0.000839587
0.000839074
0.00085145
0.000850412
0.000849427
0.000848487
0.000847596
0.000846744
0.000845936
0.000845163
0.000844429
0.000843725
0.000843055
0.000842414
0.000841803
0.000841217
0.000840658
0.000840122
0.000839609
0.000839118
0.000851448
0.00085041
0.000849422
0.000848482
0.000847587
0.000846734
0.000845922
0.000845148
0.000844409
0.000843705
0.000843032
0.000842389
0.000841775
0.000841188
0.000840626
0.00084009
0.000839576
0.000839084
0.000851448
0.000850409
0.000849419
0.000848477
0.000847581
0.000846727
0.000845913
0.000845136
0.000844396
0.000843689
0.000843014
0.000842369
0.000841753
0.000841164
0.0008406
0.000840062
0.000839546
0.000839053
0.000851447
0.000850408
0.000849418
0.000848475
0.000847577
0.000846722
0.000845906
0.000845129
0.000844387
0.000843679
0.000843002
0.000842356
0.000841738
0.000841148
0.000840583
0.000840043
0.000839526
0.000839031
0.000851447
0.000850408
0.000849418
0.000848474
0.000847576
0.00084672
0.000845904
0.000845126
0.000844384
0.000843675
0.000842998
0.000842351
0.000841732
0.000841141
0.000840575
0.000840034
0.000839517
0.000839021
0.000851447
0.000850408
0.000849418
0.000848476
0.000847577
0.000846722
0.000845906
0.000845128
0.000844386
0.000843677
0.000843
0.000842353
0.000841735
0.000841143
0.000840577
0.000840036
0.000839518
0.000839023
0.000851448
0.000850409
0.00084942
0.000848478
0.000847581
0.000846726
0.000845911
0.000845135
0.000844393
0.000843685
0.000843008
0.000842362
0.000841743
0.000841152
0.000840587
0.000840045
0.000839527
0.000839031
0.000851446
0.000850411
0.000849421
0.000848483
0.000847585
0.000846734
0.000845919
0.000845145
0.000844402
0.000843696
0.000843017
0.000842371
0.000841749
0.000841156
0.000840584
0.000840039
0.000839512
0.000839009
0.000851443
0.000850416
0.000849423
0.000848491
0.000847591
0.000846746
0.000845924
0.000845149
0.00084439
0.000843673
0.000842964
0.000842293
0.000841623
0.000840989
0.00084035
0.000839748
0.000839134
0.000838558
0.000851422
0.000850437
0.000849427
0.000848509
0.000847577
0.000846709
0.000845797
0.000844931
0.000844006
0.000843107
0.000842138
0.000841191
0.000840163
0.000839168
0.000838072
0.00083705
0.000835895
0.000834855
0.000851343
0.000850549
0.000849385
0.000848352
0.00084706
0.00084573
0.000844019
0.000842297
0.000840163
0.000837988
0.000835457
0.000832893
0.000830065
0.000827143
0.000824181
0.000821217
0.000817985
0.000815123
0.000851228
0.000850624
0.000847738
0.000844822
0.000840684
0.000836228
0.000830161
0.000823951
0.0008163
0.000808929
0.000800494
0.000792677
0.000784023
0.000776256
0.000767725
0.000760334
0.000752118
0.000745286
0.000850795
0.000843302
0.000827207
0.000818745
0.000802111
0.000784294
0.000763138
0.000743529
0.000722405
0.000703809
0.000684419
0.000667844
0.000650652
0.000636294
0.000621233
0.000608967
0.000595774
0.000585383
0.000825583
0.000783584
0.000749233
0.000700738
0.000651152
0.000608285
0.000567513
0.00053455
0.000503413
0.000478713
0.000454998
0.000436374
0.000417976
0.000403688
0.000389085
0.000377931
0.000366077
0.00035724
0.000689963
0.000564335
0.00048891
0.000407013
0.000351714
0.000312913
0.000281801
0.000259262
0.000240197
0.00022603
0.000213254
0.000203752
0.000194719
0.000188038
0.000181368
0.000176501
0.000171412
0.000167766
0.000263809
0.000190552
0.000158522
0.000132349
0.000118578
0.000110107
0.000104026
9.99974e-05
9.68258e-05
9.47286e-05
9.29159e-05
9.17845e-05
9.06982e-05
9.01043e-05
8.944e-05
8.91626e-05
8.87553e-05
8.86678e-05
3.15405e-05
5.09174e-05
5.97231e-05
6.36011e-05
6.49348e-05
6.51966e-05
6.50799e-05
6.47082e-05
6.42108e-05
6.36618e-05
6.31105e-05
6.25778e-05
6.20772e-05
6.16104e-05
6.11806e-05
6.07851e-05
6.04218e-05
6.00892e-05
1.78294e-12
1.98206e-10
9.79409e-10
3.72143e-09
1.21289e-08
3.68303e-08
8.42327e-08
1.48517e-07
2.15264e-07
2.73308e-07
3.07364e-07
3.10237e-07
2.93524e-07
2.54707e-07
1.88265e-07
1.47319e-07
1.15736e-07
8.81179e-08
6.22706e-08
3.98558e-08
2.33371e-08
1.29713e-08
7.31865e-09
4.55845e-09
3.85378e-09
4.75291e-09
1.86498e-08
3.62582e-08
9.04293e-08
1.20493e-07
1.28899e-07
1.43586e-07
1.69181e-07
2.38656e-07
3.54756e-07
9.27179e-07
2.34266e-06
9.25957e-06
2.35797e-05
3.77878e-05
4.2963e-05
2.96628e-05
3.65774e-05
3.7276e-05
3.47265e-05
4.33828e-05
3.8948e-05
3.89817e-05
3.90925e-05
4.4525e-05
4.2915e-05
4.28857e-05
4.68469e-05
4.64541e-05
4.89691e-05
4.9638e-05
5.02088e-05
5.10201e-05
5.16867e-05
5.23194e-05
5.29844e-05
5.35794e-05
5.41894e-05
5.47637e-05
5.53367e-05
5.58896e-05
5.64359e-05
5.69699e-05
5.74956e-05
5.80125e-05
5.85214e-05
5.90229e-05
5.95171e-05
6.00047e-05
6.04854e-05
6.09599e-05
6.14277e-05
6.18895e-05
6.23445e-05
6.27936e-05
6.32358e-05
6.3672e-05
6.41008e-05
6.45233e-05
6.4938e-05
6.53459e-05
6.57452e-05
6.61372e-05
6.652e-05
6.68947e-05
6.72602e-05
6.76163e-05
6.79626e-05
6.82992e-05
6.86263e-05
6.89452e-05
6.92577e-05
6.95672e-05
6.98702e-05
7.01647e-05
7.04498e-05
7.07272e-05
7.0995e-05
7.12541e-05
7.15032e-05
7.17429e-05
7.19716e-05
7.21903e-05
7.23973e-05
7.25934e-05
7.2777e-05
7.29491e-05
7.31077e-05
7.32541e-05
7.33863e-05
7.35053e-05
7.36093e-05
7.36992e-05
7.37735e-05
7.38332e-05
7.38778e-05
7.39084e-05
7.39247e-05
7.39246e-05
7.38982e-05
7.38435e-05
7.38044e-05
7.38e-05
7.35687e-05
7.36538e-05
7.34123e-05
7.33939e-05
7.28853e-05
7.27235e-05
7.24762e-05
7.25549e-05
7.18269e-05
7.2022e-05
7.11794e-05
7.13458e-05
7.0475e-05
7.02761e-05
6.98002e-05
6.94207e-05
6.89514e-05
6.85153e-05
6.80181e-05
6.75412e-05
6.70121e-05
6.64953e-05
6.59377e-05
6.53637e-05
6.47942e-05
6.42287e-05
6.36407e-05
6.31123e-05
6.25273e-05
6.20229e-05
6.15061e-05
6.10035e-05
6.05791e-05
6.00596e-05
5.96577e-05
5.92744e-05
5.89218e-05
5.86244e-05
5.83691e-05
5.81267e-05
5.79036e-05
5.76998e-05
5.74965e-05
5.73254e-05
5.72247e-05
5.71756e-05
5.71456e-05
5.71325e-05
5.71207e-05
5.7067e-05
5.69983e-05
5.54496e-05
8.41174e-12
1.3353e-09
1.84277e-08
1.01993e-07
4.44693e-07
1.10068e-06
2.26395e-06
3.8213e-06
5.59584e-06
7.50673e-06
9.10322e-06
1.05109e-05
1.10449e-05
1.10801e-05
1.06692e-05
9.14863e-06
7.00488e-06
4.83146e-06
3.05873e-06
1.83459e-06
1.09392e-06
6.80777e-07
4.50689e-07
3.33881e-07
3.0358e-07
3.0356e-07
1.20456e-06
2.38573e-06
5.6304e-06
7.0937e-06
8.28325e-06
9.03015e-06
9.84832e-06
1.16627e-05
1.69525e-05
2.71641e-05
3.73631e-05
4.78365e-05
5.73215e-05
6.53723e-05
7.1461e-05
7.50023e-05
8.24825e-05
9.02185e-05
9.92239e-05
0.000108164
0.00011661
0.000128686
0.000139764
0.000149031
0.000161477
0.000174754
0.000185752
0.000197211
0.000208358
0.000217528
0.000226616
0.000235185
0.00024333
0.000251135
0.00025863
0.000265854
0.000272843
0.000279644
0.000286273
0.000292769
0.000299149
0.000305436
0.000311647
0.000317799
0.000323903
0.000329973
0.000336017
0.000342044
0.00034806
0.000354074
0.00036009
0.000366113
0.000372147
0.000378196
0.000384264
0.000390354
0.000396467
0.000402605
0.000408768
0.000414957
0.000421169
0.000427403
0.000433656
0.000439923
0.000446198
0.000452463
0.000458698
0.000464869
0.000470932
0.000476827
0.000482475
0.000487782
0.000493074
0.000498349
0.00050364
0.000508925
0.000514214
0.000519498
0.000524778
0.000530046
0.0005353
0.000540533
0.00054574
0.000550913
0.000556047
0.000561132
0.000566162
0.000571125
0.000576015
0.000580821
0.000585533
0.000590141
0.000594633
0.000598994
0.000603208
0.000607255
0.000611118
0.000614791
0.00061828
0.000621622
0.000624816
0.000627748
0.000630434
0.000632957
0.000634911
0.00063672
0.000638387
0.000639705
0.000640655
0.000641111
0.000641202
0.000641775
0.000641045
0.000642211
0.000640352
0.000638414
0.000637352
0.00063449
0.000632713
0.000629257
0.000626729
0.000622823
0.000619491
0.000615452
0.000611226
0.000606904
0.00060256
0.00059778
0.000593474
0.000588672
0.000584341
0.000579864
0.000575538
0.000571462
0.000567663
0.000563711
0.000560436
0.000557176
0.000554137
0.000551582
0.000549444
0.000547668
0.000546156
0.000544635
0.000543251
0.000542217
0.000541633
0.000541352
0.000541189
0.000541113
0.000540958
0.000540469
0.000539331
0.000520175
2.52302e-11
4.21594e-09
7.27233e-08
3.37328e-07
1.10292e-06
2.6683e-06
5.38038e-06
8.85081e-06
1.29499e-05
1.73035e-05
2.14423e-05
2.51275e-05
2.73536e-05
2.86647e-05
2.90501e-05
2.78341e-05
2.52663e-05
2.15732e-05
1.73216e-05
1.27165e-05
8.85484e-06
5.74124e-06
4.03972e-06
2.85724e-06
2.81445e-06
3.74821e-06
9.80335e-06
1.95756e-05
2.86941e-05
2.89596e-05
2.89809e-05
3.66893e-05
4.29943e-05
5.05171e-05
5.92721e-05
6.87324e-05
8.10848e-05
9.4303e-05
0.000109896
0.000127252
0.000145467
0.000168476
0.0001967
0.000226451
0.000258125
0.000291455
0.000326499
0.000360201
0.000389803
0.00041924
0.000446599
0.000471761
0.000494674
0.000516979
0.000537375
0.000556112
0.000573981
0.000590948
0.000607128
0.000622675
0.00063765
0.000652157
0.000666254
0.000680017
0.000693488
0.000706723
0.000719756
0.000732622
0.000745351
0.000757967
0.000770492
0.000782942
0.000795334
0.000807681
0.000819993
0.000832281
0.000844552
0.000856813
0.00086907
0.000881329
0.000893592
0.000905863
0.000918143
0.000930434
0.000942734
0.000955041
0.000967353
0.000979665
0.000991971
0.00100426
0.00101653
0.00102875
0.0010409
0.00105295
0.00106489
0.00107669
0.00108835
0.00109994
0.00111155
0.00112317
0.00113479
0.0011464
0.00115802
0.00116962
0.0011812
0.00119276
0.00120429
0.00121577
0.00122719
0.00123854
0.00124981
0.00126098
0.00127203
0.00128295
0.00129371
0.0013043
0.0013147
0.00132489
0.00133483
0.00134449
0.00135386
0.0013629
0.00137159
0.00137991
0.00138786
0.00139542
0.00140253
0.00140911
0.00141515
0.00142056
0.00142522
0.00142939
0.00143291
0.00143648
0.00143834
0.00144064
0.00144175
0.00144282
0.00144198
0.0014421
0.00143927
0.00143587
0.00143267
0.00142755
0.00142277
0.00141621
0.0014099
0.0014021
0.00139438
0.00138576
0.00137682
0.00136765
0.00135826
0.00134842
0.00133891
0.00132894
0.00131948
0.00130998
0.00130072
0.00129194
0.00128364
0.00127549
0.00126823
0.00126139
0.00125505
0.00124956
0.0012449
0.00124102
0.00123801
0.00123511
0.00123258
0.00123076
0.00122955
0.00122895
0.00122857
0.0012283
0.00122786
0.00122667
0.00122416
0.00119352
1.0388e-10
1.61446e-08
2.01683e-07
8.8299e-07
2.90461e-06
7.20405e-06
1.34315e-05
2.13698e-05
3.04253e-05
3.92994e-05
4.70701e-05
5.21512e-05
5.5465e-05
5.6562e-05
5.53275e-05
5.25123e-05
4.80788e-05
4.26904e-05
3.66802e-05
2.98413e-05
2.31007e-05
1.78363e-05
1.19132e-05
1.08776e-05
1.50303e-05
3.06347e-05
4.79995e-05
5.64387e-05
5.81829e-05
6.0552e-05
6.68421e-05
7.28348e-05
8.09912e-05
9.17734e-05
0.00011266
0.000132817
0.000159735
0.000189419
0.00022518
0.000263656
0.000307803
0.000355592
0.00040401
0.000453028
0.000501574
0.000548931
0.000594498
0.00063744
0.000677533
0.00071528
0.000750916
0.000784182
0.000815868
0.000845536
0.000873535
0.000900038
0.000925368
0.000949632
0.000972969
0.000995511
0.00101736
0.00103861
0.00105936
0.00107966
0.0010996
0.00111921
0.00113855
0.00115767
0.00117659
0.00119534
0.00121396
0.00123246
0.00125086
0.00126918
0.00128743
0.00130563
0.00132377
0.00134188
0.00135995
0.00137799
0.001396
0.00141399
0.00143196
0.0014499
0.00146782
0.00148571
0.00150357
0.00152139
0.00153918
0.00155691
0.00157459
0.0015922
0.00160972
0.00162716
0.00164451
0.00166178
0.00167897
0.00169615
0.00171333
0.00173051
0.00174767
0.00176481
0.00178193
0.00179901
0.00181605
0.00183305
0.00184998
0.00186683
0.00188359
0.00190024
0.00191677
0.00193316
0.00194937
0.0019654
0.00198122
0.0019968
0.00201212
0.00202714
0.00204182
0.00205615
0.00207008
0.00208358
0.00209663
0.00210919
0.00212123
0.00213275
0.00214365
0.00215387
0.00216338
0.002172
0.00217958
0.00218657
0.00219264
0.00219827
0.00220226
0.00220601
0.00220886
0.00221072
0.00221095
0.0022109
0.00220863
0.00220536
0.00220138
0.00219579
0.00218953
0.00218173
0.00217328
0.00216345
0.00215302
0.00214161
0.00212957
0.00211702
0.00210403
0.00209058
0.00207713
0.00206338
0.00204989
0.00203648
0.00202335
0.00201073
0.00199868
0.00198706
0.00197632
0.00196644
0.00195728
0.00194914
0.00194215
0.00193624
0.00193141
0.00192764
0.00192401
0.00192148
0.00191966
0.00191897
0.00191866
0.00191866
0.00191877
0.00191801
0.00191581
0.00188357
3.92348e-10
4.60908e-08
5.27346e-07
2.60654e-06
8.78581e-06
1.99184e-05
3.55471e-05
5.28185e-05
6.78868e-05
7.8517e-05
8.53287e-05
8.87341e-05
8.85936e-05
8.60976e-05
8.16718e-05
7.5653e-05
6.86548e-05
6.12554e-05
5.36498e-05
4.48671e-05
3.53475e-05
2.83767e-05
2.69074e-05
3.86662e-05
5.81304e-05
7.46198e-05
8.13239e-05
8.33957e-05
8.63237e-05
9.14945e-05
9.98964e-05
0.000113321
0.00013813
0.000167744
0.000202322
0.000241323
0.000287862
0.000337761
0.000392964
0.000450178
0.000510011
0.000570347
0.000630133
0.00068878
0.00074568
0.000800425
0.00085271
0.000901927
0.000948768
0.000993545
0.00103598
0.00107615
0.00111441
0.00115074
0.00118539
0.00121855
0.0012504
0.00128108
0.00131072
0.00133945
0.00136738
0.00139461
0.00142123
0.00144732
0.00147295
0.00149818
0.00152306
0.00154764
0.00157196
0.00159605
0.00161995
0.00164367
0.00166724
0.00169068
0.001714
0.00173721
0.00176033
0.00178337
0.00180632
0.00182919
0.00185199
0.00187472
0.00189738
0.00191997
0.00194249
0.00196493
0.0019873
0.00200958
0.00203178
0.0020539
0.00207592
0.00209784
0.00211967
0.0021414
0.00216305
0.00218462
0.00220612
0.00222758
0.002249
0.00227038
0.0022917
0.00231296
0.00233416
0.00235529
0.00237633
0.00239729
0.00241813
0.00243887
0.00245947
0.00247993
0.00250022
0.00252033
0.00254023
0.00255991
0.00257933
0.00259848
0.00261733
0.00263584
0.00265398
0.00267172
0.00268903
0.00270588
0.00272223
0.00273805
0.00275331
0.00276798
0.002782
0.00279531
0.00280778
0.00281906
0.00282975
0.00283958
0.0028485
0.00285656
0.00286342
0.00286933
0.0028741
0.00287805
0.00288043
0.00288178
0.0028814
0.00287971
0.00287682
0.0028724
0.00286672
0.00285951
0.0028511
0.00284126
0.00283032
0.00281823
0.0028052
0.00279138
0.00277687
0.00276176
0.00274635
0.0027306
0.00271486
0.00269914
0.00268363
0.00266849
0.00265387
0.00263977
0.00262654
0.00261422
0.00260276
0.00259235
0.00258342
0.00257555
0.00256908
0.00256366
0.00255991
0.00255649
0.00255376
0.00255305
0.00255263
0.00255288
0.00255405
0.00255436
0.00255369
0.00252623
1.49323e-09
1.30227e-07
1.58315e-06
8.56538e-06
2.58955e-05
4.96661e-05
7.1098e-05
8.73066e-05
9.82533e-05
0.000105679
0.000108997
0.000109432
0.000107326
0.000103104
9.69158e-05
8.88411e-05
7.92187e-05
6.77673e-05
5.54849e-05
4.47996e-05
3.93876e-05
4.37993e-05
6.03462e-05
8.25249e-05
9.54855e-05
0.000101066
0.000104593
0.000107347
0.000114904
0.000130375
0.000157502
0.000190929
0.000230963
0.000277004
0.000328789
0.000385607
0.000447412
0.000511619
0.000578432
0.000645929
0.000713768
0.000780821
0.000846523
0.000910487
0.000972396
0.00103167
0.00108859
0.00114348
0.00119575
0.00124579
0.00129361
0.00133932
0.0013831
0.00142502
0.00146526
0.00150398
0.00154131
0.00157739
0.00161234
0.00164629
0.00167935
0.00171161
0.00174317
0.00177411
0.00180449
0.00183439
0.00186386
0.00189296
0.00192171
0.00195017
0.00197837
0.00200633
0.00203408
0.00206163
0.00208901
0.00211622
0.00214329
0.00217021
0.00219699
0.00222364
0.00225017
0.00227656
0.00230283
0.00232898
0.002355
0.00238089
0.00240665
0.00243227
0.00245776
0.00248312
0.00250834
0.00253342
0.00255836
0.00258317
0.00260786
0.00263242
0.00265688
0.00268122
0.00270546
0.0027296
0.00275362
0.00277752
0.0028013
0.00282495
0.00284847
0.00287183
0.00289503
0.00291807
0.00294094
0.00296361
0.00298609
0.00300835
0.00303038
0.00305216
0.00307367
0.0030949
0.00311582
0.00313641
0.00315664
0.0031765
0.00319594
0.00321495
0.0032335
0.00325157
0.00326913
0.00328615
0.0033026
0.00331841
0.00333329
0.00334723
0.00336063
0.00337324
0.00338499
0.00339584
0.00340567
0.00341452
0.00342214
0.00342881
0.00343427
0.00343841
0.00344105
0.00344231
0.00344217
0.00344047
0.00343725
0.00343241
0.00342606
0.00341815
0.00340882
0.00339812
0.00338619
0.00337317
0.00335921
0.00334442
0.00332901
0.00331307
0.00329685
0.00328045
0.00326405
0.00324783
0.00323194
0.00321648
0.0032017
0.00318772
0.00317456
0.00316255
0.00315172
0.0031421
0.00313383
0.00312696
0.00312144
0.00311703
0.00311435
0.00311373
0.00311253
0.00311265
0.00311524
0.00311648
0.00311754
0.00309746
5.37615e-09
3.96397e-07
4.97e-06
2.5079e-05
5.51461e-05
8.25397e-05
0.000102358
0.00011537
0.000122725
0.000125124
0.000124498
0.00012172
0.00011698
0.000110166
0.000101958
9.35744e-05
8.57235e-05
7.86344e-05
7.35138e-05
7.15839e-05
7.34578e-05
8.58014e-05
0.000101232
0.000111439
0.0001178
0.000121821
0.000127095
0.000141442
0.000168277
0.000203391
0.000245373
0.000294467
0.000349622
0.000410091
0.000474965
0.000543291
0.000614209
0.00068637
0.000759318
0.000832026
0.000904003
0.0009747
0.0010438
0.0011107
0.00117563
0.00123889
0.00129969
0.00135829
0.00141463
0.00146883
0.00152094
0.00157104
0.00161925
0.00166566
0.00171039
0.00175357
0.00179532
0.00183575
0.00187499
0.00191314
0.00195031
0.0019866
0.00202209
0.00205687
0.00209102
0.00212459
0.00215766
0.00219026
0.00222245
0.00225428
0.00228576
0.00231695
0.00234785
0.0023785
0.0024089
0.00243909
0.00246906
0.00249883
0.0025284
0.00255779
0.00258698
0.00261599
0.00264482
0.00267347
0.00270193
0.0027302
0.00275829
0.00278619
0.00281389
0.00284141
0.00286873
0.00289586
0.00292279
0.00294952
0.00297605
0.00300238
0.00302852
0.00305448
0.00308026
0.00310586
0.00313127
0.0031565
0.00318154
0.00320638
0.00323104
0.00325553
0.00327982
0.00330391
0.0033278
0.00335146
0.00337491
0.00339812
0.00342109
0.00344382
0.00346629
0.00348849
0.00351041
0.00353204
0.00355336
0.00357435
0.003595
0.00361529
0.00363522
0.00365476
0.0036739
0.00369262
0.00371092
0.00372869
0.00374558
0.00376187
0.0037777
0.0037929
0.00380738
0.0038211
0.00383398
0.00384599
0.00385702
0.00386698
0.00387596
0.00388372
0.00389017
0.00389529
0.00389899
0.00390118
0.00390186
0.00390092
0.00389832
0.00389401
0.00388807
0.00388053
0.00387152
0.00386114
0.00384951
0.00383678
0.00382308
0.00380857
0.00379341
0.00377776
0.00376179
0.00374568
0.00372961
0.00371372
0.00369819
0.00368327
0.00366905
0.00365574
0.00364344
0.00363227
0.00362236
0.00361377
0.00360657
0.00360079
0.00359695
0.00359462
0.00359314
0.0035944
0.00359757
0.00359895
0.00360126
0.00358877
1.63629e-08
1.16375e-06
1.46286e-05
4.75627e-05
8.10355e-05
0.000106373
0.000122335
0.000131278
0.000134741
0.000134593
0.000131675
0.000126353
0.00011889
0.000109641
9.97902e-05
9.04007e-05
8.26342e-05
7.99166e-05
8.27612e-05
9.10679e-05
0.000104009
0.0001161
0.000125124
0.000131615
0.000137072
0.000147626
0.000172509
0.00020596
0.000247562
0.000297073
0.000352817
0.000414467
0.000480628
0.000550515
0.000623202
0.000697858
0.000773668
0.000849749
0.000925622
0.00100076
0.00107482
0.00114722
0.00121789
0.00128736
0.00135484
0.00142036
0.0014838
0.0015452
0.00160454
0.00166186
0.0017172
0.00177063
0.00182221
0.00187203
0.00192018
0.00196675
0.00201186
0.0020556
0.00209809
0.00213941
0.00217968
0.00221898
0.00225741
0.00229504
0.00233195
0.00236821
0.00240389
0.00243903
0.00247368
0.00250789
0.0025417
0.00257513
0.00260822
0.00264099
0.00267346
0.00270565
0.00273757
0.00276923
0.00280064
0.0028318
0.00286272
0.0028934
0.00292384
0.00295404
0.00298401
0.00301373
0.00304321
0.00307245
0.00310144
0.00313018
0.00315868
0.00318692
0.0032149
0.00324261
0.00327005
0.00329723
0.00332416
0.00335085
0.0033773
0.0034035
0.00342946
0.00345518
0.00348066
0.0035059
0.00353089
0.00355564
0.00358015
0.00360442
0.00362845
0.00365223
0.00367578
0.00369909
0.00372217
0.003745
0.0037676
0.00378997
0.0038121
0.00383398
0.00385563
0.00387704
0.0038982
0.00391911
0.00393978
0.0039602
0.00398037
0.00400029
0.00401999
0.00403923
0.00405791
0.00407635
0.00409444
0.00411212
0.00412933
0.00414602
0.00416211
0.00417755
0.00419227
0.00420618
0.00421921
0.00423129
0.00424228
0.00425211
0.00426064
0.00426771
0.00427321
0.00427702
0.00427909
0.00427937
0.00427786
0.00427458
0.00426959
0.00426299
0.00425485
0.00424529
0.00423443
0.00422238
0.00420931
0.00419535
0.00418069
0.00416548
0.00414991
0.00413415
0.00411845
0.00410311
0.00408818
0.00407383
0.00406022
0.00404753
0.00403591
0.0040255
0.00401642
0.00400889
0.00400325
0.00399943
0.00399718
0.00399757
0.00399928
0.00400219
0.00400628
0.00399905
3.9705e-08
3.10682e-06
2.97417e-05
7.23125e-05
0.000107025
0.000127736
0.000139114
0.000143081
0.000142246
0.000138738
0.000133681
0.000127696
0.000121923
0.00011607
0.000108805
0.000102417
9.82271e-05
0.000101307
0.000109093
0.000118684
0.00012792
0.000136652
0.000143922
0.000152409
0.000172244
0.000202161
0.000241096
0.000288346
0.000342741
0.000403413
0.000468897
0.000538551
0.000611296
0.000686431
0.00076312
0.000840665
0.000918475
0.000996046
0.00107302
0.00114906
0.0012236
0.00129706
0.00136926
0.00143983
0.00150865
0.00157567
0.00164083
0.00170409
0.00176545
0.0018249
0.00188248
0.0019382
0.00199213
0.00204431
0.00209482
0.00214375
0.00219118
0.0022372
0.00228191
0.00232541
0.00236777
0.0024091
0.00244947
0.00248898
0.0025277
0.00256571
0.00260305
0.0026398
0.002676
0.00271168
0.00274689
0.00278168
0.00281606
0.00285007
0.00288374
0.00291707
0.00295008
0.00298278
0.00301519
0.00304731
0.00307915
0.00311074
0.00314204
0.00317305
0.00320376
0.00323418
0.0032643
0.00329411
0.00332362
0.00335283
0.00338172
0.0034103
0.00343856
0.00346651
0.00349414
0.00352147
0.00354849
0.00357519
0.0036016
0.00362769
0.00365348
0.00367897
0.00370416
0.00372906
0.00375366
0.00377798
0.00380201
0.00382578
0.00384927
0.00387251
0.00389549
0.00391824
0.00394076
0.00396306
0.00398515
0.00400704
0.00402875
0.00405029
0.00407167
0.0040929
0.00411399
0.00413496
0.00415582
0.0041766
0.00419729
0.00421794
0.00423856
0.00425884
0.00427907
0.00429923
0.00431929
0.00433922
0.00435897
0.00437849
0.00439773
0.00441663
0.00443511
0.00445309
0.00447049
0.0044872
0.00450313
0.00451818
0.00453213
0.00454477
0.00455594
0.00456551
0.00457335
0.00457936
0.00458348
0.00458569
0.00458601
0.00458445
0.00458108
0.00457595
0.00456914
0.00456075
0.00455089
0.00453969
0.00452731
0.00451391
0.00449967
0.00448475
0.00446931
0.00445375
0.00443817
0.00442276
0.00440773
0.00439326
0.00437959
0.00436689
0.00435534
0.00434556
0.00433765
0.00433174
0.00432784
0.00432647
0.00432731
0.00433046
0.0043353
0.00433066
7.86184e-08
7.15908e-06
4.55756e-05
9.18746e-05
0.000125196
0.000143366
0.000149212
0.000148146
0.000143651
0.00013748
0.000130246
0.000124181
0.000117332
0.000111735
0.00010922
0.000110962
0.000116385
0.000123402
0.000131169
0.000139582
0.000147484
0.000156087
0.000170099
0.000195542
0.00023013
0.000273033
0.000324096
0.000381822
0.000445021
0.000512738
0.000583943
0.000657901
0.000733799
0.000811058
0.000889061
0.00096733
0.00104547
0.00112317
0.00119995
0.0012756
0.00135067
0.00142446
0.00149689
0.00156784
0.00163721
0.00170493
0.00177093
0.00183516
0.0018976
0.00195823
0.00201704
0.00207406
0.00212932
0.00218284
0.0022347
0.00228495
0.00233367
0.00238096
0.0024269
0.00247158
0.00251508
0.00255746
0.00259884
0.0026393
0.00267891
0.00271775
0.00275589
0.00279339
0.00283035
0.00286683
0.00290278
0.00293825
0.00297326
0.00300784
0.00304201
0.00307581
0.00310923
0.0031423
0.00317503
0.00320741
0.00323945
0.00327114
0.0033025
0.00333354
0.00336427
0.00339467
0.00342475
0.00345451
0.00348392
0.00351301
0.00354175
0.00357014
0.00359819
0.00362588
0.00365322
0.0036802
0.00370681
0.00373306
0.00375895
0.00378448
0.00380965
0.00383447
0.00385894
0.00388307
0.00390686
0.00393032
0.00395347
0.00397632
0.00399887
0.00402116
0.00404318
0.00406497
0.00408654
0.00410791
0.0041291
0.00415013
0.00417104
0.00419184
0.00421256
0.00423323
0.00425386
0.0042745
0.00429518
0.00431591
0.00433674
0.00435773
0.00437881
0.00439993
0.00442126
0.00444278
0.00446449
0.00448637
0.00450838
0.0045305
0.00455269
0.00457489
0.00459703
0.00461902
0.00464078
0.00466219
0.00468316
0.00470364
0.00472334
0.00474192
0.00475922
0.00477505
0.00478925
0.00480165
0.00481213
0.00482061
0.00482704
0.0048314
0.00483369
0.00483389
0.00483205
0.0048282
0.00482241
0.0048148
0.00480548
0.00479461
0.00478235
0.00476889
0.00475442
0.00473921
0.00472346
0.00470738
0.0046912
0.00467518
0.00465957
0.00464463
0.00463055
0.00461792
0.00460702
0.00459814
0.0045915
0.00458744
0.00458653
0.00458879
0.00459336
0.00459219
1.28652e-07
1.31073e-05
6.31493e-05
0.000112165
0.000142017
0.000154468
0.000155342
0.000150639
0.000143537
0.000137002
0.000131685
0.000126146
0.000123246
0.000122868
0.000124959
0.000129098
0.000134922
0.000141883
0.000149472
0.000157723
0.000168612
0.000189682
0.000218066
0.000255808
0.000301737
0.000354809
0.000414124
0.000478358
0.000546584
0.000617894
0.000691534
0.000766932
0.000843547
0.000920893
0.000998566
0.00107624
0.00115363
0.00123023
0.00130611
0.00138147
0.00145582
0.00152903
0.00160097
0.00167156
0.00174069
0.00180828
0.00187426
0.00193856
0.00200114
0.00206196
0.00212102
0.00217833
0.0022339
0.00228776
0.00233994
0.00239048
0.00243949
0.00248705
0.00253323
0.00257815
0.00262194
0.00266477
0.00270656
0.00274736
0.00278723
0.00282628
0.00286455
0.00290211
0.00293899
0.00297522
0.00301086
0.00304599
0.00308065
0.00311488
0.00314871
0.00318215
0.00321522
0.00324793
0.00328031
0.00331234
0.00334405
0.00337544
0.00340649
0.00343722
0.00346762
0.00349768
0.0035274
0.00355678
0.0035858
0.00361446
0.00364276
0.00367068
0.00369822
0.00372537
0.00375213
0.00377849
0.00380445
0.00383
0.00385515
0.00387989
0.00390423
0.00392817
0.00395172
0.00397489
0.00399769
0.00402013
0.00404222
0.00406398
0.00408544
0.00410661
0.00412751
0.00414818
0.00416863
0.00418891
0.00420903
0.00422903
0.00424896
0.00426883
0.0042887
0.00430859
0.00432856
0.00434864
0.00436887
0.00438931
0.00441001
0.00443101
0.0044523
0.00447395
0.00449603
0.00451858
0.00454159
0.00456507
0.00458901
0.00461341
0.00463823
0.00466344
0.00468897
0.00471474
0.00474066
0.00476662
0.00479251
0.00481824
0.00484381
0.00486843
0.00489195
0.00491427
0.0049351
0.00495423
0.00497148
0.00498671
0.00499981
0.0050107
0.00501929
0.00502552
0.00502934
0.00503074
0.00502974
0.0050264
0.00502081
0.00501309
0.0050034
0.00499191
0.00497882
0.00496438
0.00494878
0.00493229
0.00491516
0.00489769
0.00488018
0.00486295
0.00484634
0.00483084
0.00481689
0.00480489
0.00479525
0.00478838
0.00478475
0.00478483
0.00478795
0.00478891
2.04881e-07
1.77306e-05
7.50146e-05
0.000127008
0.000154756
0.000163284
0.000160549
0.000153533
0.000147299
0.000142063
0.000137133
0.000134892
0.000134804
0.000136677
0.000140312
0.000145527
0.000152142
0.000159163
0.000169095
0.000184039
0.000208774
0.00024027
0.000279741
0.000327201
0.000381129
0.000440517
0.000504434
0.000571797
0.000641881
0.00071407
0.000787861
0.000862814
0.000938516
0.00101463
0.00109086
0.00116698
0.00124248
0.0013176
0.00139223
0.00146608
0.00153899
0.00161084
0.00168152
0.00175093