/*--------------------------------*- C++ -*----------------------------------*\
| =========                 |                                                 |
| \\      /  F ield         | OpenFOAM: The Open Source CFD Toolbox           |
|  \\    /   O peration     | Version:  v2012                                 |
|   \\  /    A nd           | Website:  www.openfoam.com                      |
|    \\/     M anipulation  |                                                 |
\*---------------------------------------------------------------------------*/
FoamFile
{
    version     2.0;
    format      ascii;
    class       volScalarField;
    location    "200";
    object      omega;
}
// * * * * * * * * * * * * * * * * * * * * * * * * * * * * * * * * * * * * * //

dimensions      [0 0 -1 0 0 0 0];


internalField   nonuniform List<scalar> 
12225
(
38697.9
41621.9
43468.4
44413.7
44866.3
44884.7
44811.6
44639.6
44396.8
44145
43903.8
43672.5
43471.8
43273.4
43125.4
42952.3
42867.4
42702.7
2375.2
5162.12
7078.8
8550.01
9757.86
10762.8
11563.8
12240.7
12782.6
13254.1
13632.9
13972.1
14239.9
14485.2
14667.3
14835.8
14926.9
15029.9
581.972
1092.15
1557.68
1978.74
2336.16
2682.99
2962.48
3243.34
3457.84
3687.88
3852.12
4045.1
4170.76
4336.87
4431.28
4576.9
4639.37
4774.01
441.386
538.17
657.988
791.797
908.222
1032.99
1133.16
1243.6
1325.95
1422.53
1488.69
1573.16
1625.35
1699.58
1739.81
1805.24
1833.84
1895.59
433.317
453.717
475.942
518.805
558.182
605.951
645.036
691.175
726.113
768.661
798.511
837.122
861.826
896.726
916.457
948.063
962.687
992.378
436.718
438.986
441.415
450.756
461.22
477.693
491.688
510.278
524.752
543.384
556.914
574.751
586.681
603.464
613.45
629.212
636.972
651.903
438.533
436.83
435.326
435.882
436.788
440.12
443.292
449.034
453.594
460.457
465.531
472.822
477.837
485.177
489.756
496.968
500.85
507.879
438.925
436.865
434.784
433.378
432.174
431.902
432.045
432.736
433.7
435.662
437.186
439.851
441.679
444.704
446.591
449.808
451.558
454.941
439.008
436.927
434.821
432.999
431.247
429.856
428.664
427.854
427.181
426.902
426.859
427.001
427.263
427.842
428.294
429.158
429.724
430.868
439.031
436.929
434.866
432.97
431.123
429.453
427.856
426.468
425.156
424.055
423.028
422.244
421.447
420.946
420.34
420.081
419.61
419.567
439.04
436.92
434.876
432.966
431.118
429.399
427.733
426.2
424.713
423.366
422.049
420.887
419.733
418.744
417.742
416.91
416.042
415.348
439.044
436.914
434.877
432.957
431.117
429.383
427.718
426.153
424.645
423.233
421.87
420.598
419.368
418.225
417.118
416.092
415.097
414.178
439.046
436.91
434.876
432.949
431.112
429.371
427.709
426.134
424.628
423.2
421.834
420.538
419.298
418.121
416.994
415.924
414.899
413.926
439.047
436.908
434.874
432.944
431.107
429.362
427.7
426.12
424.614
423.181
421.815
420.513
419.271
418.087
416.956
415.877
414.847
413.863
439.047
436.907
434.873
432.94
431.103
429.355
427.692
426.11
424.603
423.167
421.799
420.494
419.25
418.063
416.93
415.849
414.816
413.83
439.047
436.906
434.871
432.938
431.099
429.35
427.686
426.102
424.593
423.156
421.786
420.48
419.234
418.045
416.911
415.828
414.793
413.806
439.046
436.905
434.87
432.936
431.097
429.347
427.682
426.096
424.586
423.148
421.777
420.469
419.222
418.032
416.896
415.812
414.777
413.788
439.046
436.905
434.87
432.935
431.096
429.345
427.68
426.094
424.583
423.144
421.772
420.463
419.215
418.025
416.888
415.803
414.767
413.777
439.046
436.905
434.87
432.936
431.096
429.345
427.68
426.093
424.583
423.143
421.771
420.462
419.214
418.023
416.886
415.801
414.765
413.775
439.047
436.906
434.871
432.936
431.097
429.347
427.681
426.095
424.585
423.145
421.773
420.465
419.217
418.026
416.889
415.804
414.768
413.778
439.047
436.906
434.872
432.937
431.099
429.349
427.684
426.098
424.589
423.15
421.779
420.471
419.226
418.036
416.902
415.819
414.787
413.801
439.048
436.905
434.874
432.938
431.103
429.351
427.691
426.106
424.604
423.169
421.811
420.513
419.287
418.114
417.008
415.948
414.952
413.995
439.052
436.902
434.877
432.935
431.114
429.366
427.741
426.186
424.752
423.386
422.137
420.951
419.876
418.853
417.938
417.058
416.291
415.53
439.061
436.886
434.878
432.966
431.253
429.682
428.373
427.168
426.258
425.443
424.896
424.417
424.169
423.958
423.941
423.975
424.117
424.191
439.037
436.867
435.138
433.812
433.248
433.392
433.966
434.989
436.796
438.604
441.04
443.301
446.091
448.555
451.516
454.005
457.033
459.418
438.788
438.579
439.567
443.561
450.257
458.191
468.123
477.684
488.583
498.506
509.439
519.042
529.561
538.508
548.429
556.561
565.853
573.096
443.382
453.006
480.484
513.291
550.812
586.319
623.777
657.129
691.988
721.986
753.697
780.159
808.738
831.817
857.521
877.499
900.686
917.873
483.619
615.238
778.1
921.614
1059.24
1180.59
1299.29
1401.07
1503.32
1588.51
1677.08
1748.13
1825.18
1884.31
1951.8
2001.07
2060.73
2102.01
1185.84
2185.27
2935.83
3527.62
4059.64
4513.99
4924.59
5269.26
5589.36
5854.82
6110.43
6316.54
6524.46
6684.58
6858.03
6982.17
7130.79
7227.59
20944.8
22217.5
23228.3
23955.1
24496.7
24840.5
25109.3
25300.8
25440.4
25523.5
25576.7
25589.5
25582.3
25563.7
25527.2
25480.7
25427.7
25370.1
11463.3
2495.14
2498.07
2501.28
2504.53
2507.81
2511.9
2517.41
2524.64
2533.34
2542.25
2551.2
2559.23
2566.62
2572.54
2577.59
2580.64
2583.14
2584.62
2585.57
2584.31
2580.79
2575.03
2567.7
2560.89
2557.3
2557.56
2560.06
2562.96
2565.97
2568.99
2571.97
2574.95
2578.12
2582.31
2587.98
2594.41
2599.96
2603.58
2606.38
2608.59
2611.71
2616.37
2623.91
2628.93
2635.83
2644.18
2674.52
2814.27
3002.1
3170.58
3314.41
3438.43
3546.28
3641.64
3726.83
3804.09
3874.92
3940.65
4002.33
4061.12
4117.8
4173.24
4224.75
4275.17
4323.04
4370.02
4415.33
4459.91
4503.39
4546.29
4588.46
4630.15
4671.33
4712.12
4752.53
4792.59
4832.35
4871.8
4910.98
4949.86
4988.48
5026.79
5064.82
5102.53
5139.93
5176.96
5213.65
5249.94
5285.83
5321.27
5356.27
5390.79
5424.84
5458.42
5491.56
5524.33
5556.84
5589.28
5621.46
5653.12
5684.39
5715.21
5745.57
5775.46
5804.84
5833.68
5861.97
5889.67
5916.76
5943.2
5968.98
5994.05
6018.41
6042.01
6064.83
6086.86
6108.06
6128.41
6147.89
6166.47
6184.12
6200.84
6216.66
6231.64
6245.88
6259.52
6271.93
6281.09
6289.41
6295.87
6295.8
6304.18
6298.14
6300.56
6298.16
6297.51
6292.97
6286.28
6280
6271.9
6263.24
6252.78
6241.04
6227.95
6213.65
6198.22
6181.72
6164.28
6146.01
6127.02
6107.36
6087.06
6065.87
6044.37
6022.55
6000.95
5979.68
5958.83
5938.57
5919.08
5900.42
5882.76
5866.17
5850.73
5836.52
5823.62
5812.21
5801.93
5792.79
5785
5779.6
5789.85
5807.19
5823.19
5840.49
5857.16
5869.1
5877.42
5754.7
11463.6
2030.5
1076.81
905.108
796.763
736.02
767.119
772.647
762.736
738.281
704.952
671.361
641.557
615.91
598.791
584.577
584.072
604.884
659.54
759.301
883.374
1017.65
1149.86
1257.96
1333.98
1330.36
1285.08
1170.48
995.641
830.393
706.383
580.144
516.942
479.892
461.041
459.759
464.798
481.985
503.396
518.884
591.863
660.668
953.868
1515.99
2059.37
2276.66
2426.1
2457.4
2487.92
2480.78
2383.94
2308.21
2208.94
2123.94
2039.39
1967.54
1903.67
1850.67
1806.68
1771.28
1743.51
1722.13
1706.34
1694.93
1687.51
1683.8
1681.44
1680.54
1681.86
1684.79
1688.61
1693.31
1698.66
1704.52
1710.79
1717.37
1724.2
1731.19
1738.3
1745.49
1752.72
1759.95
1767.16
1774.31
1781.39
1788.38
1795.26
1802.01
1808.63
1815.11
1821.46
1827.68
1833.8
1839.88
1845.99
1852.26
1858.87
1866.07
1874.21
1883.01
1891.38
1899.72
1907.88
1915.88
1923.73
1931.41
1938.92
1946.26
1953.41
1960.37
1967.14
1973.71
1980.08
1986.25
1992.2
1997.94
2003.46
2008.76
2013.83
2018.66
2023.26
2027.61
2031.72
2035.57
2039.18
2042.52
2045.56
2048.21
2050.43
2052.46
2053.97
2055.1
2056.41
2056.68
2057.63
2058.21
2058.84
2057.97
2056.67
2055.42
2053.68
2051.94
2049.88
2047.52
2044.77
2041.74
2038.46
2034.91
2031.13
2027.23
2023.06
2018.74
2014.24
2009.53
2004.7
1999.71
1994.82
1989.93
1985.09
1980.41
1975.82
1971.45
1967.28
1963.33
1959.6
1956.14
1952.94
1950.22
1947.86
1945.94
1944.67
1944.17
1947.22
1951.71
1956.49
1962.29
1968.99
1977.53
1985.72
2007.83
11463.7
2067
879.591
765.658
858.212
899.823
868.568
802.201
728.419
652.262
582.448
522.479
472.925
433.64
403.289
381.32
366.644
359.131
360.93
373.374
396.307
439.625
504.12
579.352
669.744
741.954
804.838
803.838
777.647
711.011
614.021
516.917
444.827
401.483
387.823
395.836
411.386
464.702
554.511
815.823
1281.23
1600.91
1742.5
1871.57
1917.48
1956.47
1826.45
1753
1615.02
1517.04
1434.01
1360.17
1296.93
1245.87
1203.89
1171.31
1145.71
1126.3
1111.71
1101.06
1093.55
1088.74
1085.6
1084.49
1084
1084.63
1086.26
1088.45
1091.26
1094.47
1098
1101.79
1105.79
1109.95
1114.23
1118.6
1123.04
1127.52
1132.03
1136.55
1141.07
1145.58
1150.07
1154.53
1158.95
1163.35
1167.7
1172.02
1176.3
1180.55
1184.79
1189.02
1193.26
1197.54
1201.9
1206.35
1210.93
1215.64
1220.46
1225.22
1229.87
1234.44
1238.91
1243.29
1247.56
1251.74
1255.81
1259.77
1263.62
1267.35
1270.97
1274.48
1277.86
1281.12
1284.26
1287.26
1290.14
1292.89
1295.5
1297.98
1300.31
1302.5
1304.55
1306.44
1308.18
1309.77
1311.17
1312.4
1313.44
1314.33
1315.01
1315.54
1315.96
1316.16
1316.38
1316.48
1316.36
1315.6
1314.82
1314.03
1313
1311.93
1310.68
1309.27
1307.67
1305.9
1304
1301.98
1299.85
1297.64
1295.32
1292.92
1290.44
1287.89
1285.27
1282.6
1279.95
1277.32
1274.72
1272.19
1269.71
1267.33
1265.06
1262.9
1260.86
1258.97
1257.23
1255.74
1254.47
1253.46
1252.91
1252.65
1253.48
1255.06
1257.06
1259.76
1263.21
1268.15
1274.41
1292.38
11463.7
2097.09
1191.94
1214.89
1153.45
1018.54
876.782
737.011
612.585
510.406
434.385
379.937
341.405
314.174
295.056
281.79
273.357
268.058
268.155
271.094
277.372
291.148
315.625
349.67
399.215
454.566
514.813
561.849
578.036
568.983
541.491
492.02
450.134
462.308
513.939
617.147
782.422
1095.41
1350.34
1492.01
1595.21
1618.31
1636.85
1582.42
1445.9
1336.81
1251.11
1178.33
1107.15
1056.21
1010.28
973.348
943.554
920.329
902.454
889.107
879.315
872.394
867.7
865.043
863.724
863.342
863.727
865.013
866.775
869.019
871.64
874.537
877.676
880.99
884.449
888.021
891.682
895.411
899.192
903.01
906.854
910.714
914.583
918.453
922.318
926.174
930.018
933.847
937.659
941.454
945.232
948.994
952.743
956.483
960.218
963.955
967.699
971.456
975.231
979.024
982.829
986.632
990.4
994.099
997.723
1001.28
1004.75
1008.15
1011.46
1014.69
1017.84
1020.89
1023.86
1026.74
1029.52
1032.2
1034.79
1037.27
1039.65
1041.93
1044.1
1046.15
1048.1
1049.93
1051.64
1053.23
1054.7
1056.05
1057.26
1058.35
1059.29
1060.1
1060.76
1061.29
1061.65
1061.88
1061.98
1061.95
1061.87
1061.62
1061.2
1060.5
1059.71
1058.86
1057.86
1056.77
1055.55
1054.19
1052.71
1051.12
1049.43
1047.64
1045.77
1043.84
1041.83
1039.77
1037.66
1035.5
1033.3
1031.09
1028.88
1026.68
1024.52
1022.39
1020.31
1018.3
1016.34
1014.48
1012.7
1011.01
1009.43
1007.99
1006.7
1005.59
1004.7
1004.01
1003.88
1004.15
1004.74
1005.89
1007.56
1010.36
1014.62
1025.94
11463.8
2517.03
1827.52
1465.71
1183.64
917.961
688.267
522.321
416.927
353.935
312.665
283.88
262.76
247.051
235.52
227.439
222.333
219.849
220.087
222.587
227.03
235.232
248.364
267.349
295.689
332.724
378.374
426.219
464.895
475.976
477.802
503.993
542.207
707.477
956.933
1206.59
1335.4
1411.36
1441.22
1457.92
1441.8
1345.05
1223.53
1120.56
1051.89
990.489
940.862
898.382
862.101
833.74
809.649
790.899
776.384
765.556
757.767
752.423
749.135
747.526
747.004
747.274
748.455
750.187
752.386
754.977
757.847
760.951
764.237
767.663
771.202
774.827
778.52
782.266
786.053
789.869
793.708
797.561
801.423
805.29
809.156
813.018
816.875
820.723
824.56
828.386
832.199
835.999
839.787
843.561
847.324
851.075
854.817
858.548
862.269
865.98
869.675
873.349
876.991
880.592
884.139
887.623
891.04
894.39
897.669
900.875
904.004
907.056
910.026
912.914
915.716
918.431
921.056
923.59
926.028
928.369
930.61
932.748
934.78
936.703
938.516
940.214
941.795
943.256
944.595
945.809
946.893
947.846
948.665
949.345
949.886
950.284
950.531
950.637
950.633
950.529
950.246
949.821
949.236
948.468
947.582
946.588
945.468
944.228
942.865
941.38
939.777
938.067
936.259
934.362
932.385
930.339
928.229
926.066
923.859
921.616
919.347
917.063
914.78
912.509
910.258
908.039
905.858
903.73
901.662
899.658
897.719
895.846
894.044
892.332
890.72
889.223
887.863
886.652
885.728
885.037
884.717
884.77
885.137
886.415
888.896
895.48
11463.6
3491.61
2102.07
1464.5
981.397
657.401
485.014
390.613
332.198
292.546
263.853
242.276
226.066
213.929
205.025
198.823
195.025
193.646
194.28
196.658
201.235
208.486
218.941
233.522
254.262
282.333
318.369
363.175
414.087
473.374
532.796
656.184
911.077
1144.93
1284.96
1315.61
1336.58
1336.46
1288.62
1179.83
1083.76
995.698
930.909
878.676
838.525
802.752
773.396
748.507
728.019
711.731
698.761
689.029
681.998
677.225
674.54
673.41
673.216
674.086
675.736
677.962
680.675
683.738
687.077
690.63
694.342
698.177
702.105
706.103
710.152
714.241
718.357
722.494
726.645
730.804
734.968
739.133
743.296
747.455
751.608
755.754
759.89
764.015
768.129
772.231
776.32
780.394
784.454
788.498
792.526
796.537
800.53
804.502
808.452
812.376
816.269
820.123
823.929
827.686
831.385
835.023
838.596
842.102
845.539
848.902
852.19
855.399
858.527
861.57
864.525
867.39
870.162
872.841
875.421
877.898
880.269
882.53
884.679
886.711
888.623
890.412
892.074
893.606
895.003
896.264
897.383
898.359
899.186
899.862
900.384
900.746
900.937
900.991
900.936
900.695
900.283
899.709
898.968
898.059
897.003
895.808
894.471
892.994
891.384
889.644
887.778
885.795
883.705
881.518
879.245
876.895
874.478
872.005
869.487
866.933
864.354
861.761
859.165
856.577
854.006
851.459
848.945
846.472
844.046
841.675
839.354
837.085
834.877
832.732
830.657
828.656
826.744
824.935
823.285
821.8
820.588
819.576
818.996
819.091
819.977
823.228
11467.3
4005.2
2096.67
1156.73
689.898
483.791
382.307
323.337
284.453
256.412
235.032
218.283
205.146
195.151
187.839
182.97
180.241
179.707
180.79
183.724
188.976
197.059
208.568
224.59
247.02
278.287
319.834
374.652
450.667
568.103
764.593
1018.69
1186.95
1236.56
1253.47
1243.66
1177.83
1077.14
979.484
913.523
853.965
807.566
770.326
739.693
714.028
691.835
673.46
658.289
646.187
636.844
629.933
625.186
622.493
621.401
621.285
622.335
624.224
626.81
629.934
633.469
637.325
641.419
645.693
650.098
654.599
659.167
663.781
668.426
673.09
677.764
682.442
687.121
691.796
696.465
701.127
705.78
710.422
715.054
719.674
724.281
728.874
733.454
738.019
742.568
747.101
751.616
756.112
760.588
765.043
769.473
773.878
778.253
782.597
786.906
791.174
795.399
799.576
803.7
807.764
811.765
815.7
819.565
823.358
827.074
830.71
834.263
837.729
841.105
844.385
847.568
850.646
853.614
856.468
859.207
861.828
864.326
866.698
868.939
871.044
873.011
874.834
876.509
878.033
879.401
880.609
881.653
882.53
883.234
883.762
884.107
884.261
884.278
884.125
883.77
883.225
882.495
881.58
880.484
879.214
877.779
876.178
874.414
872.477
870.38
868.141
865.768
863.275
860.671
857.97
855.182
852.32
849.395
846.421
843.409
840.371
837.317
834.258
831.204
828.163
825.143
822.151
819.194
816.278
813.412
810.587
807.798
805.052
802.351
799.698
797.095
794.55
792.071
789.689
787.434
785.362
783.462
781.884
780.734
780.317
781.271
11486.7
4065.78
1685.61
846.507
545.878
415.424
345.045
299.867
267.644
243.042
223.557
207.975
195.727
186.497
179.973
175.836
174.064
174.504
177.015
181.857
189.154
199.16
213.017
232.112
259.113
299.2
359.938
455.14
615.354
843.835
1038.93
1136.41
1167.97
1174.62
1106.37
1006.17
918.622
853.974
799.035
759.35
723.986
695.906
672.069
651.938
634.795
620.344
608.58
599.258
592.194
587.153
584.022
582.602
582.312
583.177
585.012
587.675
590.997
594.85
599.12
603.711
608.547
613.566
618.717
623.961
629.268
634.614
639.983
645.36
650.737
656.106
661.465
666.808
672.137
677.449
682.743
688.02
693.279
698.52
703.742
708.945
714.13
719.295
724.441
729.565
734.668
739.748
744.804
749.834
754.834
759.804
764.739
769.638
774.497
779.312
784.08
788.799
793.465
798.069
802.606
807.072
811.463
815.777
820.009
824.156
828.213
832.176
836.041
839.804
843.46
847.005
850.434
853.744
856.929
859.984
862.905
865.687
868.325
870.813
873.146
875.32
877.328
879.167
880.83
882.313
883.612
884.721
885.636
886.352
886.864
887.155
887.253
887.171
886.866
886.342
885.601
884.647
883.481
882.107
880.532
878.761
876.799
874.649
872.318
869.82
867.162
864.354
861.41
858.341
855.162
851.886
848.527
845.098
841.614
838.087
834.53
830.954
827.371
823.789
820.217
816.662
813.132
809.633
806.171
802.758
799.339
795.945
792.584
789.257
785.964
782.706
779.483
776.303
773.181
770.142
767.227
764.436
761.857
759.601
757.858
757.007
11523.8
3606.29
1292.68
675.408
464.788
370.542
317.683
282.967
256.837
235.553
217.721
203.084
191.667
183.357
177.993
175.525
175.008
176.058
178.905
184.363
192.987
205.681
224.504
255.164
303.306
378.17
503.19
688.777
876.17
1005.36
1066.02
1089.33
1058.92
963.132
875.937
813.682
761.698
723.116
690.634
664.807
641.992
622.968
606.57
592.627
580.989
571.522
564.114
558.601
554.814
552.799
552.12
552.512
554.014
556.455
559.694
563.606
568.071
572.986
578.259
583.812
589.578
595.503
601.542
607.658
613.824
620.018
626.223
632.426
638.618
644.791
650.941
657.066
663.165
669.239
675.289
681.311
687.307
693.276
699.219
705.136
711.027
716.89
722.727
728.535
734.312
740.055
745.762
751.438
757.078
762.682
768.245
773.764
779.236
784.657
790.022
795.326
800.563
805.73
810.82
815.832
820.759
825.599
830.347
834.998
839.549
843.993
848.327
852.545
856.642
860.613
864.453
868.156
871.717
875.13
878.389
881.487
884.42
887.181
889.763
892.161
894.367
896.377
898.183
899.78
901.163
902.325
903.262
903.968
904.432
904.646
904.65
904.406
903.912
903.167
902.171
900.928
899.441
897.712
895.75
893.559
891.148
888.521
885.69
882.664
879.455
876.077
872.544
868.871
865.076
861.172
857.178
853.106
848.975
844.797
840.588
836.36
832.123
827.888
823.663
819.456
815.274
811.122
807.008
802.948
798.904
794.886
790.895
786.933
782.995
779.082
775.191
771.325
767.494
763.714
759.995
756.337
752.814
749.527
746.559
744.179
11562.6
2952.46
1038.31
595.957
436.27
361.063
314.766
282.166
256.558
235.307
217.753
203.906
193.738
187.096
183.642
183.217
185.872
191.77
201.022
214.024
231.692
255.985
291.866
348.527
450.045
591.876
743.887
869.91
948.531
985.587
993.669
927.495
848.381
785.089
734.159
697.172
666.056
641.346
619.991
601.848
585.875
572.246
560.638
550.979
543.166
537.099
532.674
529.848
528.558
528.351
529.295
531.261
534.149
537.845
542.237
547.225
552.712
558.612
564.848
571.352
578.063
584.929
591.907
598.961
606.062
613.19
620.331
627.465
634.582
641.673
648.734
655.758
662.741
669.672
676.556
683.408
690.228
697.017
703.773
710.498
717.19
723.849
730.475
737.066
743.623
750.146
756.63
763.069
769.46
775.801
782.087
788.316
794.483
800.584
806.613
812.566
818.44
824.23
829.933
835.545
841.06
846.474
851.782
856.98
862.063
867.024
871.858
876.56
881.123
885.542
889.811
893.922
897.87
901.649
905.25
908.667
911.893
914.921
917.743
920.351
922.739
924.899
926.824
928.507
929.941
931.12
932.037
932.688
933.055
933.154
932.983
932.524
931.777
930.742
929.418
927.808
925.915
923.745
921.304
918.601
915.643
912.44
909.003
905.345
901.48
897.423
893.193
888.808
884.287
879.647
874.907
870.085
865.197
860.263
855.296
850.311
845.319
840.332
835.357
830.404
825.479
820.589
815.738
810.931
806.157
801.413
796.7
792.013
787.349
782.703
778.072
773.455
768.857
764.29
759.781
755.312
750.934
746.727
742.715
739.038
11590.4
2327.45
874.315
542.53
421.125
357.955
320.256
292.357
268.696
248.01
230.648
217.114
207.433
202.634
199.943
199.991
205.205
215.655
231.883
256.407
294.245
352.369
435.664
540.871
652.645
754.269
833.237
881.794
903.666
886.321
823.492
761.306
714.315
677.044
647.435
623.934
603.554
586.207
570.882
557.546
545.942
536.103
527.922
521.336
516.274
512.661
510.544
509.742
509.973
511.308
513.647
516.896
520.969
525.777
531.229
537.238
543.724
550.612
557.834
565.335
573.055
580.938
588.942
597.028
605.163
613.307
621.421
629.529
637.629
645.71
653.762
661.78
669.762
677.712
685.631
693.51
701.342
709.124
716.858
724.541
732.175
739.758
747.29
754.769
762.193
769.561
776.871
784.121
791.308
798.429
805.481
812.459
819.36
826.179
832.912
839.553
846.1
852.548
858.892
865.128
871.251
877.256
883.138
888.891
894.509
899.988
905.319
910.498
915.518
920.371
925.051
929.551
933.862
937.979
941.892
945.594
949.076
952.331
955.349
958.123
960.644
962.902
964.891
966.601
968.025
969.155
969.986
970.508
970.717
970.613
970.188
969.434
968.352
966.939
965.196
963.126
960.732
958.022
955.002
951.682
948.073
944.187
940.037
935.637
931.005
926.159
921.121
915.911
910.552
905.065
899.47
893.787
888.036
882.237
876.407
870.562
864.716
858.878
853.059
847.269
841.513
835.799
830.132
824.512
818.936
813.399
807.898
802.428
796.982
791.555
786.141
780.736
775.339
769.959
764.604
759.283
754.018
748.876
743.845
738.989
11605.1
2059.03
840.876
538.659
425.811
372.334
339.572
314.635
293.368
275.128
260.486
249.838
244.483
243.054
245.893
255.383
272.434
299.598
337.749
388.475
451.651
524.318
601.127
675.715
738.215
785.827
814.501
823.056
781.412
738.798
695.575
660.172
633.003
610.352
591.313
574.902
560.232
547.328
535.93
526.022
517.567
510.559
504.953
500.705
497.761
496.216
495.799
496.458
498.153
500.828
504.41
508.83
514.02
519.926
526.448
533.511
541.046
548.984
557.254
565.766
574.47
583.36
592.404
601.565
610.808
620.108
629.453
638.809
648.165
657.492
666.779
676.015
685.197
694.321
703.379
712.366
721.286
730.137
738.92
747.633
756.277
764.849
773.35
781.777
790.13
798.405
806.601
814.717
822.748
830.692
838.545
846.303
853.964
861.521
868.972
876.31
883.533
890.636
897.614
904.462
911.175
917.747
924.175
930.45
936.568
942.522
948.306
953.913
959.335
964.564
969.595
974.417
979.025
983.409
987.56
991.469
995.128
998.527
1001.66
1004.51
1007.07
1009.34
1011.3
1012.94
1014.25
1015.24
1015.88
1016.17
1016.12
1015.7
1014.92
1013.77
1012.24
1010.34
1008.07
1005.43
1002.42
999.059
995.347
991.298
986.924
982.241
977.263
972.007
966.495
960.747
954.787
948.64
942.331
935.886
929.326
922.674
915.952
909.183
902.387
895.582
888.782
881.998
875.243
868.525
861.852
855.233
848.669
842.165
835.716
829.318
822.967
816.655
810.374
804.117
797.875
791.641
785.414
779.194
772.986
766.799
760.645
754.583
748.574
742.602
11615.5
1942.85
805.478
538.992
441.459
395.425
368.268
348.573
333.041
321.188
314.513
312.241
314.075
322.63
337.631
360.086
390.178
427.151
470.917
519.838
571.127
620.756
664.889
702.199
731.593
744.855
732.572
701.933
671.728
644.518
619.676
599.301
582.143
566.87
553.213
540.973
529.97
520.227
511.731
504.5
498.534
493.817
490.32
488.055
487.049
487.045
488.16
490.29
493.365
497.334
502.142
507.728
514.014
520.875
528.343
536.378
544.923
553.918
563.308
573.045
583.071
593.322
603.755
614.333
625.004
635.731
646.486
657.232
667.94
678.602
689.208
699.748
710.215
720.601
730.902
741.111
751.228
761.251
771.178
781.009
790.741
800.375
809.908
819.339
828.666
837.887
847.001
856.004
864.894
873.667
882.321
890.853
899.257
907.53
915.668
923.667
931.521
939.228
946.781
954.177
961.41
968.475
975.366
982.077
988.602
994.934
1001.07
1007
1012.71
1018.2
1023.46
1028.49
1033.26
1037.79
1042.04
1046.03
1049.73
1053.13
1056.24
1059.02
1061.49
1063.62
1065.4
1066.83
1067.9
1068.59
1068.9
1068.82
1068.36
1067.49
1066.21
1064.51
1062.41
1059.89
1056.95
1053.61
1049.86
1045.72
1041.18
1036.28
1031.02
1025.42
1019.49
1013.26
1006.75
999.987
992.993
985.798
978.431
970.919
963.289
955.564
947.77
939.931
932.071
924.209
916.362
908.542
900.761
893.031
885.359
877.754
870.22
862.759
855.369
848.046
840.783
833.571
826.402
819.265
812.151
805.05
797.957
790.869
783.787
776.719
769.669
762.689
755.727
748.718
11620.7
1920.23
808.071
554.712
465.117
425.05
403.446
389.846
382.138
379.096
378.916
384.91
395.495
411.104
431.4
456.071
484.41
515.35
547.504
579.141
608.404
635.83
660.617
673.724
675.308
656.923
642.394
622.924
605.49
589.46
574.581
561.319
549.19
538.024
527.843
518.657
510.483
503.386
497.402
492.581
488.949
486.392
484.957
484.532
485.097
486.594
488.919
492.126
496.257
501.288
507.182
513.888
521.363
529.589
538.476
547.958
557.974
568.469
579.406
590.71
602.31
614.139
626.132
638.235
650.421
662.656
674.91
687.149
699.347
711.485
723.547
735.52
747.392
759.156
770.803
782.328
793.726
804.994
816.129
827.13
837.995
848.722
859.308
869.754
880.056
890.213
900.222
910.082
919.789
929.341
938.735
947.969
957.037
965.937
974.666
983.218
991.59
999.778
1007.78
1015.58
1023.19
1030.6
1037.8
1044.78
1051.54
1058.08
1064.38
1070.45
1076.26
1081.83
1087.12
1092.15
1096.9
1101.35
1105.51
1109.36
1112.9
1116.1
1118.96
1121.48
1123.64
1125.42
1126.82
1127.84
1128.44
1128.64
1128.43
1127.8
1126.72
1125.2
1123.24
1120.83
1117.97
1114.66
1110.9
1106.69
1102.04
1096.97
1091.47
1085.58
1079.29
1072.64
1065.64
1058.32
1050.7
1042.8
1034.67
1026.32
1017.79
1009.12
1000.32
991.428
982.47
973.471
964.458
955.454
946.476
937.538
928.654
919.834
911.09
902.428
893.854
885.371
876.977
868.667
860.435
852.27
844.161
836.097
828.067
820.06
812.065
804.078
796.1
788.131
780.171
772.274
764.373
756.371
11622.6
1886.64
812.136
573.224
490.314
455.882
437.806
429.521
426.11
425.811
431.033
439.941
452.096
467.025
484.167
502.903
522.508
542.195
562.164
581.968
601.663
612.738
615.904
610.062
606.052
596.116
587.5
577.045
567.077
557.232
547.66
538.7
530.41
522.825
515.88
509.652
504.212
499.613
495.863
492.891
490.652
489.468
489.303
490.174
492.063
494.954
498.869
503.765
509.599
516.341
523.959
532.403
541.635
551.628
562.32
573.612
585.432
597.708
610.359
623.344
636.614
650.11
663.778
677.563
691.425
705.325
719.225
733.093
746.9
760.62
774.233
787.722
801.073
814.273
827.314
840.186
852.885
865.404
877.74
889.891
901.853
913.625
925.204
936.589
947.778
958.77
969.562
980.153
990.54
1000.72
1010.7
1020.46
1030.01
1039.35
1048.46
1057.36
1066.03
1074.47
1082.68
1090.65
1098.38
1105.87
1113.11
1120.09
1126.82
1133.28
1139.47
1145.38
1151.01
1156.35
1161.39
1166.11
1170.53
1174.62
1178.38
1181.8
1184.86
1187.56
1189.89
1191.84
1193.39
1194.53
1195.28
1195.59
1195.47
1194.92
1193.9
1192.43
1190.49
1188.09
1185.21
1181.86
1178.02
1173.71
1168.92
1163.66
1157.93
1151.75
1145.13
1138.09
1130.63
1122.8
1114.6
1106.07
1097.22
1088.1
1078.72
1069.13
1059.35
1049.43
1039.38
1029.25
1019.05
1008.82
998.587
988.371
978.196
968.075
958.024
948.054
938.176
928.4
918.73
909.17
899.718
890.37
881.118
871.952
862.858
853.824
844.839
835.888
826.959
818.043
809.143
800.253
791.369
782.536
773.69
764.729
11623
1878.05
822.336
592.15
513.128
481.212
464.253
456.69
453.357
452.971
457.248
464.219
473.436
484.415
496.723
509.953
523.704
537.583
550.316
560.617
566.265
568.767
571.21
571.71
571.213
568.373
564.835
560.015
554.665
548.9
542.937
536.948
530.909
524.976
519.624
515.001
511.192
508.255
506.23
505.21
505.22
506.269
508.332
511.42
515.529
520.659
526.818
533.969
542.062
551.07
560.97
571.673
583.11
595.21
607.899
621.14
634.879
649.055
663.604
678.47
693.597
708.93
724.414
739.996
755.628
771.267
786.873
802.408
817.842
833.144
848.29
863.26
878.036
892.603
906.95
921.066
934.943
948.575
961.958
975.087
987.96
1000.57
1012.93
1025.02
1036.85
1048.42
1059.72
1070.75
1081.52
1092.02
1102.25
1112.21
1121.9
1131.31
1140.45
1149.32
1157.9
1166.21
1174.23
1181.97
1189.42
1196.58
1203.44
1210.01
1216.28
1222.24
1227.89
1233.22
1238.23
1242.91
1247.26
1251.26
1254.91
1258.22
1261.16
1263.72
1265.89
1267.68
1269.07
1270.06
1270.61
1270.71
1270.44
1269.68
1268.44
1266.76
1264.61
1261.98
1258.87
1255.27
1251.18
1246.6
1241.52
1235.95
1229.89
1223.35
1216.33
1208.85
1200.92
1192.56
1183.79
1174.63
1165.11
1155.25
1145.08
1134.63
1123.93
1113.02
1101.93
1090.7
1079.35
1067.92
1056.44
1044.93
1033.43
1021.96
1010.55
999.209
987.952
976.794
965.745
954.815
944.012
933.337
922.791
912.368
902.06
891.855
881.741
871.702
861.73
851.804
841.91
832.038
822.182
812.34
802.506
792.729
782.938
773.054
11620.5
1870.38
830.988
604.644
528.465
495.723
478.699
469.556
464.656
463.524
465.899
471.876
480.284
490.314
501.489
513.281
525.112
536.258
546.256
554.872
561.752
567.21
571.208
573.091
573.709
572.885
570.942
568.009
564.522
560.692
556.741
552.881
549.334
546.332
543.956
542.329
541.54
541.638
542.668
544.737
547.843
551.955
557.055
563.136
570.201
578.257
587.311
597.365
608.302
620.027
632.456
645.576
659.346
673.715
688.625
704.026
719.862
736.078
752.613
769.41
786.414
803.566
820.813
838.103
855.384
872.611
889.742
906.737
923.563
940.187
956.582
972.726
988.599
1004.18
1019.47
1034.44
1049.09
1063.41
1077.4
1091.05
1104.36
1117.33
1129.96
1142.24
1154.19
1165.79
1177.05
1187.96
1198.54
1208.78
1218.68
1228.24
1237.47
1246.36
1254.92
1263.14
1271.02
1278.57
1285.78
1292.66
1299.21
1305.42
1311.28
1316.81
1321.99
1326.83
1331.33
1335.48
1339.26
1342.68
1345.74
1348.42
1350.73
1352.68
1354.24
1355.38
1356.1
1356.43
1356.36
1355.89
1354.9
1353.48
1351.64
1349.35
1346.58
1343.34
1339.62
1335.43
1330.75
1325.58
1319.92
1313.76
1307.12
1299.99
1292.39
1284.3
1275.76
1266.77
1257.33
1247.48
1237.24
1226.62
1215.66
1204.38
1192.8
1180.96
1168.88
1156.6
1144.16
1131.59
1118.93
1106.19
1093.41
1080.62
1067.85
1055.12
1042.46
1029.9
1017.43
1005.08
992.852
980.762
968.816
957.015
945.361
933.847
922.466
911.204
900.049
888.982
877.992
867.059
856.17
845.311
834.476
823.666
812.873
802.152
791.425
780.661
11628.6
1876.12
836.577
609.651
532.121
499.858
482.728
475.198
472.513
473.1
478.525
486.946
497.32
509.149
521.796
534.682
547.321
559.407
570.604
580.488
588.94
596.055
601.842
606.315
609.591
611.832
613.083
613.636
613.78
613.75
613.734
613.95
614.623
615.933
617.91
620.615
624.108
628.432
633.624
639.732
646.76
654.691
663.508
673.2
683.785
695.33
707.691
720.749
734.501
748.905
763.914
779.486
795.578
812.143
829.13
846.488
864.163
882.102
900.249
918.548
936.945
955.386
973.818
992.191
1010.46
1028.57
1046.49
1064.17
1081.59
1098.71
1115.51
1131.95
1148.03
1163.73
1179.03
1193.92
1208.39
1222.45
1236.07
1249.27
1262.04
1274.38
1286.29
1297.77
1308.83
1319.47
1329.69
1339.49
1348.88
1357.86
1366.44
1374.62
1382.41
1389.79