/*--------------------------------*- C++ -*----------------------------------*\
| =========                 |                                                 |
| \\      /  F ield         | OpenFOAM: The Open Source CFD Toolbox           |
|  \\    /   O peration     | Version:  v2012                                 |
|   \\  /    A nd           | Website:  www.openfoam.com                      |
|    \\/     M anipulation  |                                                 |
\*---------------------------------------------------------------------------*/
FoamFile
{
    version     2.0;
    format      ascii;
    class       volScalarField;
    location    "200";
    object      p;
}
// * * * * * * * * * * * * * * * * * * * * * * * * * * * * * * * * * * * * * //

dimensions      [0 2 -2 0 0 0 0];


internalField   nonuniform List<scalar> 
12225
(
-2.9812
-5.18668
-6.3144
-6.636
-6.81703
-7.00105
-7.15444
-7.2709
-7.36776
-7.45638
-7.53966
-7.61872
-7.69558
-7.77294
-7.85377
-7.94165
-8.04443
-8.15419
-6.22599
-7.07838
-7.27448
-7.15947
-7.11899
-7.17659
-7.25731
-7.33202
-7.40397
-7.47696
-7.55011
-7.62238
-7.69441
-7.76787
-7.84471
-7.92819
-8.01773
-8.12789
-6.60866
-6.52594
-6.63863
-6.72746
-6.83933
-6.98558
-7.12368
-7.23799
-7.3362
-7.42648
-7.51107
-7.59102
-7.66791
-7.74393
-7.82089
-7.90063
-7.98149
-8.05919
-6.46339
-6.35476
-6.61982
-6.82068
-6.94555
-7.06868
-7.18553
-7.28419
-7.37017
-7.45044
-7.5272
-7.60087
-7.67248
-7.74337
-7.81449
-7.88606
-7.95448
-8.01248
-6.45303
-6.46156
-6.71251
-6.88382
-6.97841
-7.07814
-7.18308
-7.27685
-7.36052
-7.43932
-7.51508
-7.58784
-7.65826
-7.72712
-7.79479
-7.86053
-7.92078
-7.96994
-6.52109
-6.56528
-6.74823
-6.89132
-6.98353
-7.08045
-7.18263
-7.27544
-7.35854
-7.43639
-7.51084
-7.582
-7.65033
-7.71628
-7.77982
-7.83988
-7.8936
-7.93701
-6.59239
-6.63325
-6.76928
-6.90018
-6.99636
-7.09047
-7.18718
-7.27656
-7.35743
-7.43315
-7.50536
-7.57423
-7.63994
-7.7027
-7.76219
-7.81735
-7.86609
-7.90575
-6.64723
-6.68278
-6.79519
-6.91561
-7.01022
-7.0997
-7.19081
-7.27664
-7.35528
-7.42901
-7.49921
-7.56602
-7.62947
-7.68958
-7.74596
-7.79768
-7.84321
-7.88081
-6.69322
-6.72599
-6.82181
-6.93097
-7.02214
-7.10759
-7.19403
-7.27666
-7.35317
-7.42498
-7.49325
-7.5581
-7.61946
-7.67723
-7.73103
-7.78006
-7.82325
-7.85944
-6.74123
-6.77135
-6.85178
-6.94863
-7.0352
-7.11653
-7.19814
-7.27706
-7.35095
-7.42046
-7.48644
-7.54901
-7.60801
-7.66328
-7.71445
-7.76092
-7.80199
-7.83698
-6.79053
-6.81741
-6.88435
-6.96909
-7.04991
-7.12668
-7.20319
-7.27789
-7.34865
-7.41545
-7.4788
-7.53878
-7.59521
-7.64785
-7.69641
-7.74046
-7.77964
-7.81355
-6.83997
-6.8633
-6.9189
-6.99217
-7.06618
-7.13782
-7.20907
-7.27916
-7.3463
-7.40998
-7.47039
-7.52753
-7.58119
-7.63114
-7.67715
-7.71896
-7.75639
-7.78927
-6.88825
-6.90811
-6.9543
-7.01707
-7.08363
-7.14966
-7.21555
-7.28077
-7.34386
-7.40407
-7.46127
-7.51536
-7.56614
-7.61339
-7.65694
-7.69665
-7.73247
-7.76435
-6.93383
-6.95055
-6.989
-7.04253
-7.10157
-7.16169
-7.22219
-7.28243
-7.34121
-7.39768
-7.45148
-7.50241
-7.55028
-7.59488
-7.63609
-7.67385
-7.70817
-7.73907
-6.97479
-6.98883
-7.02105
-7.06676
-7.11876
-7.17302
-7.22825
-7.2836
-7.33803
-7.39067
-7.44103
-7.48882
-7.53384
-7.57591
-7.61495
-7.65091
-7.68385
-7.7138
-7.00866
-7.02058
-7.04797
-7.08742
-7.13334
-7.18224
-7.23261
-7.28345
-7.33378
-7.38275
-7.42982
-7.47466
-7.51703
-7.55679
-7.59386
-7.62823
-7.65993
-7.68904
-7.03216
-7.04253
-7.06648
-7.10138
-7.14265
-7.18724
-7.2336
-7.28068
-7.32753
-7.37334
-7.41757
-7.45986
-7.49998
-7.53779
-7.57322
-7.60625
-7.63694
-7.66535
-7.04007
-7.04964
-7.07183
-7.10439
-7.14317
-7.18532
-7.22929
-7.27405
-7.31868
-7.36243
-7.40477
-7.44534
-7.48393
-7.52042
-7.55475
-7.5869
-7.61693
-7.64489
-7.03197
-7.04148
-7.06358
-7.09608
-7.13477
-7.17662
-7.22006
-7.26416
-7.30809
-7.35111
-7.3927
-7.43254
-7.47047
-7.50636
-7.54019
-7.57195
-7.60169
-7.6295
-7.01241
-7.02233
-7.04551
-7.07983
-7.12043
-7.16366
-7.20798
-7.2527
-7.29708
-7.34036
-7.38204
-7.42189
-7.45977
-7.4956
-7.52936
-7.56107
-7.5908
-7.61864
-6.98473
-6.99518
-7.02041
-7.05836
-7.10252
-7.14823
-7.19437
-7.24068
-7.28635
-7.33052
-7.37282
-7.41312
-7.45134
-7.48742
-7.52137
-7.55325
-7.58313
-7.61114
-6.95144
-6.96184
-6.98994
-7.03395
-7.0832
-7.13178
-7.18014
-7.22871
-7.27626
-7.32178
-7.36505
-7.4061
-7.44489
-7.4814
-7.51566
-7.54778
-7.57786
-7.60602
-6.91483
-6.92341
-6.95482
-7.0079
-7.06388
-7.11572
-7.16664
-7.21769
-7.26719
-7.31411
-7.35851
-7.4005
-7.44003
-7.4771
-7.51181
-7.54428
-7.57466
-7.60311
-6.87668
-6.88114
-6.91771
-6.98143
-7.0433
-7.09892
-7.15409
-7.20856
-7.26002
-7.30817
-7.35357
-7.39637
-7.43649
-7.47396
-7.50895
-7.54163
-7.57215
-7.60067
-6.83684
-6.83055
-6.88598
-6.96385
-7.02458
-7.08003
-7.13972
-7.19865
-7.25284
-7.30289
-7.34991
-7.39403
-7.4351
-7.47325
-7.50871
-7.54173
-7.57253
-7.60144
-6.80199
-6.74468
-6.84591
-6.96025
-7.02206
-7.07264
-7.13127
-7.19014
-7.24409
-7.29423
-7.3417
-7.38637
-7.42796
-7.46659
-7.5025
-7.53595
-7.56712
-7.5962
-6.82729
-6.62627
-6.74156
-6.90491
-7.00117
-7.07313
-7.14265
-7.20549
-7.2606
-7.31097
-7.35809
-7.40193
-7.44238
-7.47974
-7.51433
-7.5465
-7.57659
-7.60534
-6.97439
-6.72068
-6.69589
-6.75393
-6.8332
-6.92952
-7.02488
-7.10761
-7.17948
-7.24455
-7.30411
-7.35814
-7.40686
-7.45092
-7.49092
-7.52738
-7.5609
-7.59254
-6.73437
-7.32053
-7.43313
-7.30331
-7.21674
-7.21242
-7.23815
-7.26831
-7.30142
-7.33845
-7.37732
-7.41577
-7.45258
-7.48745
-7.52025
-7.55077
-7.57925
-7.60731
-3.71784
-5.36631
-6.35519
-6.65678
-6.79603
-6.93354
-7.05084
-7.1401
-7.21294
-7.27756
-7.33583
-7.38788
-7.43438
-7.47612
-7.51365
-7.54708
-7.57634
-7.59996
-8.66135
-8.66151
-8.66166
-8.66188
-8.66176
-8.66012
-8.65615
-8.6507
-8.64541
-8.6418
-8.64144
-8.64452
-8.65007
-8.65677
-8.66335
-8.66878
-8.67229
-8.67378
-8.67377
-8.67273
-8.67107
-8.66925
-8.66775
-8.66685
-8.66653
-8.66648
-8.66636
-8.66605
-8.66559
-8.66509
-8.66459
-8.66386
-8.66249
-8.66032
-8.65775
-8.65555
-8.65457
-8.65511
-8.65662
-8.65825
-8.65961
-8.66073
-8.66191
-8.66519
-8.67037
-8.67368
-8.67159
-8.66417
-8.65568
-8.65413
-8.66626
-8.69554
-8.74253
-8.80524
-8.87989
-8.96192
-9.04678
-9.13056
-9.21025
-9.28385
-9.35018
-9.40865
-9.45905
-9.50161
-9.53684
-9.5653
-9.58757
-9.60418
-9.6156
-9.62223
-9.62442
-9.62244
-9.61652
-9.60683
-9.5935
-9.57664
-9.5563
-9.53252
-9.50532
-9.47469
-9.44061
-9.40305
-9.36196
-9.3173
-9.26898
-9.21695
-9.16112
-9.10141
-9.0377
-8.96989
-8.89788
-8.82156
-8.74084
-8.65567
-8.56606
-8.47206
-8.37352
-8.27016
-8.16159
-8.04767
-7.9284
-7.80375
-7.67365
-7.538
-7.39669
-7.24964
-7.09675
-6.93793
-6.77312
-6.60222
-6.42519
-6.24198
-6.05254
-5.85684
-5.65489
-5.44668
-5.23224
-5.01161
-4.78486
-4.55209
-4.3134
-4.06893
-3.81886
-3.56337
-3.3027
-3.03708
-2.76681
-2.49221
-2.21365
-1.9315
-1.64618
-1.35812
-1.06778
-0.775649
-0.482256
-0.188117
0.106236
0.400268
0.693385
0.985067
1.2748
1.56206
1.84635
2.12722
2.40425
2.67707
2.94536
3.20883
3.46723
3.72037
3.9681
4.21034
4.44705
4.67822
4.90392
5.1242
5.3392
5.54907
5.75401
5.95421
6.14993
6.34142
6.52897
6.71286
6.89339
7.07089
7.24564
7.41798
7.5882
7.7566
7.92352
8.08932
8.25426
8.41848
8.58209
8.74535
8.90892
9.07284
9.24319
9.40603
-8.66322
-8.66355
-8.66428
-8.6651
-8.66531
-8.66417
-8.66105
-8.6569
-8.65377
-8.65315
-8.65538
-8.66013
-8.6665
-8.6734
-8.67985
-8.68508
-8.68866
-8.69022
-8.68948
-8.68671
-8.68258
-8.67796
-8.67371
-8.67044
-8.66832
-8.66699
-8.66597
-8.66517
-8.66488
-8.66504
-8.66523
-8.66502
-8.66403
-8.66215
-8.65992
-8.65838
-8.6582
-8.65921
-8.6605
-8.66136
-8.66184
-8.66072
-8.65671
-8.65294
-8.65564
-8.66612
-8.67426
-8.67334
-8.669
-8.67287
-8.69318
-8.73331
-8.79203
-8.86509
-8.94698
-9.03229
-9.11657
-9.19658
-9.27028
-9.33662
-9.3952
-9.44609
-9.48956
-9.52607
-9.55615
-9.58031
-9.59904
-9.61276
-9.62184
-9.62661
-9.62732
-9.62418
-9.61734
-9.60694
-9.59308
-9.57582
-9.55519
-9.53122
-9.50391
-9.47325
-9.43919
-9.40171
-9.36075
-9.31626
-9.26816
-9.2164
-9.16088
-9.10152
-9.03823
-8.9709
-8.89944
-8.82374
-8.74369
-8.65919
-8.5701
-8.47627
-8.37756
-8.27392
-8.16538
-8.05185
-7.93318
-7.80921
-7.67984
-7.54494
-7.40443
-7.2582
-7.10616
-6.94823
-6.78432
-6.61437
-6.4383
-6.25608
-6.06766
-5.87301
-5.67213
-5.46501
-5.25168
-5.03218
-4.80657
-4.57494
-4.3374
-4.09409
-3.84516
-3.59079
-3.33121
-3.06668
-2.79746
-2.52387
-2.24628
-1.96504
-1.68058
-1.39331
-1.10368
-0.81218
-0.51933
-0.225633
0.068382
0.362161
0.655144
0.946821
1.23667
1.52414
1.80876
2.09005
2.36759
2.64102
2.90999
3.17422
3.43344
3.68744
3.93607
4.17925
4.4169
4.64905
4.8757
5.09694
5.31288
5.52367
5.72948
5.93052
6.12703
6.31926
6.50749
6.69201
6.87311
7.05111
7.22631
7.39905
7.56962
7.73832
7.9055
8.0715
8.23652
8.4007
8.56426
8.72747
8.89124
9.05506
9.22773
9.38905
-8.66507
-8.66508
-8.66519
-8.66547
-8.6658
-8.66606
-8.66667
-8.66836
-8.67176
-8.67695
-8.68356
-8.69098
-8.69852
-8.70554
-8.71146
-8.71583
-8.71838
-8.71895
-8.71747
-8.71402
-8.70884
-8.70231
-8.69491
-8.6872
-8.67982
-8.67336
-8.66829
-8.66488
-8.66309
-8.66233
-8.66186
-8.66127
-8.66046
-8.65965
-8.65968
-8.66124
-8.66375
-8.66582
-8.66483
-8.65953
-8.6538
-8.65322
-8.65561
-8.65621
-8.66216
-8.67946
-8.70381
-8.7299
-8.75749
-8.79037
-8.83153
-8.88172
-8.93974
-9.00331
-9.06979
-9.13671
-9.202
-9.26409
-9.32188
-9.37469
-9.42212
-9.46401
-9.50039
-9.53139
-9.55724
-9.57818
-9.59447
-9.60637
-9.61411
-9.61789
-9.61789
-9.61426
-9.60711
-9.59654
-9.58261
-9.56536
-9.54484
-9.52103
-9.49394
-9.46354
-9.4298
-9.39267
-9.35209
-9.30801
-9.26037
-9.20907
-9.15406
-9.09523
-9.03249
-8.96575
-8.89493
-8.81994
-8.74068
-8.65705
-8.56893
-8.47613
-8.37849
-8.2759
-8.16837
-8.05583
-7.93819
-7.8153
-7.68705
-7.55332
-7.41403
-7.26905
-7.11831
-6.96171
-6.79918
-6.63063
-6.45602
-6.27527
-6.08836
-5.89525
-5.69593
-5.49041
-5.27869
-5.06081
-4.83684
-4.60686
-4.37097
-4.1293
-3.88199
-3.62924
-3.37124
-3.10826
-2.84055
-2.56843
-2.29223
-2.01233
-1.72911
-1.443
-1.15442
-0.863869
-0.571843
-0.27886
0.0145491
0.307829
0.600479
0.891989
1.1818
1.46938
1.75422
2.03586
2.31387
2.58788
2.85754
3.12255
3.38262
3.63754
3.88715
4.13133
4.37003
4.60321
4.83091
5.05318
5.27012
5.48187
5.6886
5.89049
6.08779
6.28072
6.46956
6.65459
6.83611
7.01441
7.18981
7.36262
7.53315
7.7017
7.8686
8.03424
8.19886
8.36266
8.52593
8.68897
8.85305
9.01664
9.19178
9.34674
-8.66647
-8.66603
-8.66548
-8.66571
-8.66817
-8.6734
-8.6808
-8.68949
-8.69876
-8.70814
-8.71726
-8.72573
-8.73318
-8.73934
-8.74395
-8.74684
-8.74791
-8.7471
-8.74433
-8.73964
-8.73316
-8.72504
-8.71549
-8.70477
-8.69334
-8.68183
-8.67101
-8.66168
-8.65439
-8.64921
-8.6459
-8.64425
-8.64451
-8.64731
-8.65238
-8.65735
-8.65949
-8.65963
-8.65942
-8.65778
-8.65668
-8.66265
-8.67658
-8.69491
-8.7177
-8.74717
-8.78251
-8.82114
-8.86141
-8.90342
-8.94801
-8.99566
-9.04628
-9.09922
-9.15344
-9.20772
-9.26086
-9.31178
-9.35963
-9.40377
-9.44379
-9.47947
-9.5107
-9.53749
-9.55993
-9.57815
-9.59229
-9.6025
-9.60893
-9.61172
-9.61098
-9.60681
-9.5993
-9.58851
-9.57448
-9.55724
-9.5368
-9.51315
-9.48628
-9.45617
-9.42275
-9.386
-9.34585
-9.30224
-9.25509
-9.20433
-9.14988
-9.09165
-9.02953
-8.96345
-8.8933
-8.819
-8.74044
-8.65754
-8.57016
-8.47818
-8.38144
-8.27986
-8.17336
-8.06189
-7.94532
-7.82355
-7.69646
-7.56393
-7.42587
-7.28217
-7.13275
-6.9775
-6.81635
-6.64924
-6.47608
-6.29682
-6.11143
-5.91987
-5.72212
-5.51818
-5.30807
-5.09182
-4.86948
-4.64113
-4.40687
-4.16682
-3.92112
-3.66996
-3.41353
-3.15207
-2.88585
-2.61517
-2.34035
-2.06176
-1.77977
-1.49479
-1.20727
-0.917659
-0.626464
-0.334202
-0.0413983
0.251419
0.543754
0.835072
1.12481
1.41246
1.6975
1.97947
2.25794
2.53252
2.80285
3.06861
3.32954
3.58538
3.83598
4.08121
4.321
4.55529
4.78412
5.00752
5.2256
5.43845
5.64624
5.84915
6.0474
6.24121
6.43084
6.61657
6.7987
6.97751
7.1533
7.32641
7.49715
7.66581
7.83269
7.99809
8.16228
8.3255
8.48814
8.65049
8.81394
8.97619
9.15069
9.29608
-8.6698
-8.66884
-8.66843
-8.67164
-8.67973
-8.69095
-8.70336
-8.71584
-8.7277
-8.73846
-8.74789
-8.75595
-8.76256
-8.76763
-8.77104
-8.77268
-8.77249
-8.77041
-8.76637
-8.76037
-8.75247
-8.74271
-8.73118
-8.71801
-8.70344
-8.68785
-8.67193
-8.6566
-8.64296
-8.63223
-8.62546
-8.62334
-8.62589
-8.63178
-8.63786
-8.6428
-8.647
-8.65114
-8.65728
-8.66677
-8.68099
-8.7019
-8.72949
-8.76158
-8.79619
-8.83278
-8.87101
-8.91041
-8.95086
-8.99255
-9.03573
-9.08045
-9.12647
-9.17331
-9.22029
-9.26666
-9.31168
-9.35467
-9.39506
-9.43241
-9.4664
-9.49683
-9.52358
-9.5466
-9.56591
-9.58155
-9.59358
-9.60209
-9.60716
-9.60888
-9.60732
-9.60253
-9.59457
-9.58347
-9.56926
-9.55194
-9.5315
-9.50794
-9.48122
-9.4513
-9.41815
-9.38171
-9.34191
-9.29869
-9.25197
-9.20168
-9.14773
-9.09003
-9.02848
-8.963
-8.89348
-8.81983
-8.74195
-8.65974
-8.57308
-8.48185
-8.38594
-8.28525
-8.17968
-8.06914
-7.95354
-7.83276
-7.70668
-7.57521
-7.43823
-7.29564
-7.14735
-6.99328
-6.83333
-6.66743
-6.49552
-6.31754
-6.13344
-5.94318
-5.74676
-5.54415
-5.33538
-5.12047
-4.89948
-4.67247
-4.43954
-4.2008
-3.9564
-3.70651
-3.45133
-3.19108
-2.92604
-2.65648
-2.38274
-2.10515
-1.82411
-1.54
-1.25326
-0.964364
-0.67379
-0.382048
-0.0896629
0.202856
0.495001
0.786223
1.07596
1.3637
1.64895
1.93122
2.21008
2.48514
2.75602
3.02241
3.284
3.54059
3.79198
4.03804
4.27868
4.51387
4.74361
4.96793
5.1869
5.40065
5.60929
5.81301
6.01201
6.20652
6.39677
6.58305
6.76564
6.94484
7.12094
7.29426
7.46506
7.63367
7.80036
7.96542
8.1291
8.29167
8.45352
8.61491
8.77714
8.93734
9.10954
9.24467
-8.67593
-8.67473
-8.67654
-8.68536
-8.69854
-8.71282
-8.7269
-8.74002
-8.7518
-8.76217
-8.77115
-8.77868
-8.78468
-8.78902
-8.79163
-8.79241
-8.7913
-8.78826
-8.78323
-8.77621
-8.76718
-8.75615
-8.74313
-8.72818
-8.71141
-8.69308
-8.67374
-8.65441
-8.63673
-8.62284
-8.61484
-8.61319
-8.6157
-8.61916
-8.62332
-8.62966
-8.6397
-8.65446
-8.67425
-8.69876
-8.72731
-8.75937
-8.79435
-8.83145
-8.86982
-8.90895
-8.94854
-8.98843
-9.02867
-9.06935
-9.1105
-9.15206
-9.19383
-9.23551
-9.27666
-9.31684
-9.35559
-9.39245
-9.42706
-9.4591
-9.4883
-9.51448
-9.53753
-9.55737
-9.57397
-9.58732
-9.59746
-9.6044
-9.6082
-9.6089
-9.60653
-9.60112
-9.59269
-9.58125
-9.56682
-9.54938
-9.5289
-9.50538
-9.47876
-9.44901
-9.41607
-9.37988
-9.34038
-9.2975
-9.25115
-9.20126
-9.14775
-9.09051
-9.02946
-8.9645
-8.89554
-8.82248
-8.7452
-8.66362
-8.57761
-8.48706
-8.39188
-8.29194
-8.18717
-8.07745
-7.96267
-7.84274
-7.71753
-7.58695
-7.45088
-7.30923
-7.1619
-7.0088
-6.84985
-6.68496
-6.51407
-6.33712
-6.15406
-5.96486
-5.76948
-5.56793
-5.3602
-5.14634
-4.92637
-4.70038
-4.46845
-4.23069
-3.98724
-3.73827
-3.48397
-3.22458
-2.96034
-2.69154
-2.41851
-2.14157
-1.86111
-1.57753
-1.29126
-1.00276
-0.712512
-0.421017
-0.128798
0.163635
0.455764
0.747042
1.0369
1.32482
1.6103
1.89288
2.1721
2.44757
2.71888
2.98574
3.24783
3.50494
3.75687
4.00349
4.2447
4.48047
4.71079
4.93569
5.15521
5.36949
5.57863
5.78279
5.98217
6.17701
6.36752
6.55399
6.73669
6.91592
7.09196
7.26513
7.43569
7.60396
7.77021
7.93472
8.09773
8.2595
8.42041
8.58064
8.74135
8.89925
9.06888
9.19426
-8.68273
-8.68292
-8.68952
-8.70266
-8.71743
-8.73175
-8.74518
-8.75754
-8.76877
-8.77877
-8.7874
-8.79454
-8.80007
-8.80388
-8.80589
-8.80604
-8.80429
-8.80061
-8.79494
-8.78727
-8.77757
-8.76583
-8.75205
-8.73624
-8.71848
-8.69905
-8.67855
-8.65823
-8.64022
-8.62728
-8.62048
-8.61733
-8.61599
-8.61775
-8.62456
-8.63795
-8.65797
-8.68347
-8.71306
-8.74568
-8.78055
-8.81712
-8.85497
-8.89375
-8.93316
-8.9729
-9.01273
-9.05246
-9.092
-9.13133
-9.17044
-9.20927
-9.24769
-9.28547
-9.32237
-9.35808
-9.3923
-9.42473
-9.45508
-9.48312
-9.50866
-9.53153
-9.55163
-9.56889
-9.58324
-9.59468
-9.60318
-9.60877
-9.61145
-9.61122
-9.60812
-9.60213
-9.59326
-9.5815
-9.56685
-9.54928
-9.52876
-9.50525
-9.47871
-9.44908
-9.41632
-9.38035
-9.3411
-9.29851
-9.25248
-9.20294
-9.1498
-9.09297
-9.03235
-8.96784
-8.89936
-8.82679
-8.75004
-8.669
-8.58356
-8.49362
-8.39905
-8.29977
-8.19567
-8.08663
-7.97257
-7.85335
-7.72888
-7.59905
-7.46374
-7.32287
-7.17633
-7.02403
-6.86589
-6.70181
-6.53175
-6.35562
-6.17338
-5.98499
-5.79043
-5.58968
-5.38275
-5.16967
-4.95046
-4.7252
-4.49398
-4.25689
-4.01409
-3.76573
-3.512
-3.25314
-2.98938
-2.72101
-2.44836
-2.17174
-1.89155
-1.60818
-1.32207
-1.03367
-0.743456
-0.451941
-0.159636
0.132931
0.425236
0.716729
1.00685
1.29506
1.58087
1.86379
2.14338
2.41921
2.6909
2.95812
3.22058
3.47804
3.73033
3.97729
4.21885
4.45494
4.68558
4.91076
5.13056
5.34503
5.55434
5.7586
5.95803
6.15283
6.34325
6.52954
6.71201
6.89091
7.06657
7.23927
7.4093
7.57695
7.7425
7.9062
8.06831
8.22907
8.38881
8.54764
8.7066
8.86207
9.0292
9.14578
-8.68782
-8.69081
-8.70204
-8.71632
-8.73019
-8.74341
-8.75599
-8.76781
-8.77867
-8.78836
-8.7967
-8.8035
-8.80867
-8.81209
-8.81372
-8.81352
-8.81145
-8.80747
-8.80154
-8.79368
-8.78385
-8.77204
-8.75825
-8.74254
-8.72508
-8.70626
-8.687
-8.66911
-8.65479
-8.64445
-8.63659
-8.63106
-8.62986
-8.6354
-8.64873
-8.66901
-8.69476
-8.72466
-8.75762
-8.7928
-8.82961
-8.8676
-8.90637
-8.94559
-8.98502
-9.02444
-9.06369
-9.10263
-9.14115
-9.17921
-9.2167
-9.25355
-9.2896
-9.3247
-9.35867
-9.39129
-9.42234
-9.4516
-9.47889
-9.50401
-9.52682
-9.54719
-9.56503
-9.58027
-9.59286
-9.60277
-9.60996
-9.61444
-9.61619
-9.6152
-9.61148
-9.605
-9.59576
-9.58373
-9.5689
-9.55121
-9.53065
-9.50715
-9.48068
-9.45117
-9.41855
-9.38277
-9.34374
-9.30139
-9.25564
-9.20639
-9.15357
-9.09708
-9.03682
-8.9727
-8.90462
-8.83248
-8.75618
-8.6756
-8.59064
-8.5012
-8.40717
-8.30843
-8.20489
-8.09643
-7.98294
-7.86432
-7.74046
-7.61124
-7.47656
-7.33632
-7.19042
-7.03877
-6.88127
-6.71784
-6.54842
-6.37293
-6.19132
-6.00356
-5.80961
-5.60945
-5.40309
-5.19055
-4.97187
-4.74711
-4.51634
-4.27969
-4.03727
-3.78926
-3.53583
-3.27721
-3.01366
-2.74545
-2.47289
-2.19632
-1.91612
-1.6327
-1.34648
-1.05792
-0.767499
-0.475728
-0.183125
0.109773
0.40243
0.694293
0.984807
1.27343
1.55964
1.84296
2.12294
2.39912
2.67115
2.93868
3.20142
3.45914
3.71165
3.95881
4.20053
4.43677
4.66751
4.89276
5.11257
5.32702
5.53623
5.74034
5.93954
6.13404
6.3241
6.50996
6.69193
6.87028
7.04531
7.21731
7.38658
7.55338
7.71801
7.88069
8.04169
8.20123
8.35959
8.5168
8.6738
8.82674
8.99139
9.10019
-8.6901
-8.69619
-8.70881
-8.7219
-8.73455
-8.74693
-8.75895
-8.7704
-8.781
-8.7905
-8.79867
-8.80533
-8.81037
-8.8137
-8.81528
-8.81506
-8.81302
-8.80913
-8.80338
-8.79574
-8.78625
-8.77492
-8.7618
-8.74704
-8.73099
-8.71446
-8.69869
-8.68476
-8.67281
-8.66245
-8.65453
-8.65124
-8.65458
-8.66512
-8.68227
-8.70502
-8.73232
-8.76318
-8.79677
-8.83238
-8.86946
-8.90754
-8.94623
-8.98523
-9.02429
-9.06323
-9.10189
-9.14016
-9.1779
-9.215
-9.25134
-9.2868
-9.32125
-9.35455
-9.38655
-9.41708
-9.44598
-9.47307
-9.49823
-9.5213
-9.54218
-9.56076
-9.57697
-9.59074
-9.60203
-9.6108
-9.61702
-9.62066
-9.62171
-9.62015
-9.61597
-9.60913
-9.59961
-9.58739
-9.57242
-9.55467
-9.53408
-9.51061
-9.4842
-9.45479
-9.42231
-9.38669
-9.34784
-9.3057
-9.26017
-9.21118
-9.15863
-9.10242
-9.04246
-8.97866
-8.91092
-8.83913
-8.76319
-8.683
-8.59844
-8.50941
-8.41581
-8.31751
-8.21442
-8.10643
-7.99341
-7.87528
-7.7519
-7.62318
-7.489
-7.34926
-7.20386
-7.05271
-6.89571
-6.73278
-6.56385
-6.38884
-6.2077
-6.02038
-5.82686
-5.62711
-5.42114
-5.20895
-4.99059
-4.76611
-4.53559
-4.29914
-4.05689
-3.80898
-3.55563
-3.29703
-3.03344
-2.76514
-2.49244
-2.21569
-1.93526
-1.65155
-1.365
-1.07606
-0.785228
-0.493007
-0.199931
0.0934626
0.386619
0.678983
0.96999
1.2591
1.54579
1.82956
2.10994
2.38651
2.65885
2.92665
3.18959
3.44746
3.70006
3.94726
4.18897
4.42515
4.65579
4.8809
5.1005
5.3147
5.52357
5.7273
5.92603
6.12001
6.30948
6.49471
6.67597
6.85357
7.02778
7.19891
7.36724
7.53306
7.6966
7.85814
8.01789
8.17607
8.33292
8.48839
8.64334
8.79372
8.9559
9.05801
-8.68606
-8.69396
-8.7056
-8.71747
-8.72944
-8.74139
-8.75318
-8.76457
-8.77524
-8.78489
-8.79326
-8.80015
-8.80543
-8.80901
-8.81085
-8.81091
-8.80918
-8.80564
-8.80032
-8.79322
-8.78439
-8.77386
-8.76181
-8.74861
-8.73492
-8.7214
-8.70845
-8.69618
-8.68501
-8.67609
-8.67134
-8.67219
-8.67903
-8.69183
-8.71027
-8.73366
-8.76118
-8.79203
-8.82547
-8.86084
-8.89762
-8.93536
-8.97372
-9.0124
-9.05117
-9.08981
-9.12816
-9.16607
-9.20336
-9.23989
-9.27553
-9.31015
-9.34363
-9.37584
-9.40662
-9.43585
-9.46339
-9.48911
-9.51291
-9.53466
-9.55429
-9.5717
-9.58684
-9.59965
-9.61008
-9.6181
-9.62367
-9.62677
-9.62736
-9.62542
-9.62093
-9.61386
-9.60418
-9.59183
-9.5768
-9.55903
-9.53846
-9.51504
-9.48871
-9.45941
-9.42705
-9.39157
-9.35289
-9.31092
-9.26559
-9.2168
-9.16446
-9.10848
-9.04877
-8.98522
-8.91774
-8.84623
-8.77059
-8.69069
-8.60645
-8.51775
-8.42448
-8.32653
-8.2238
-8.11617
-8.00353
-7.88576
-7.76277
-7.63443
-7.50064
-7.36129
-7.21628
-7.06551
-6.90888
-6.74632
-6.57774
-6.40307
-6.22225
-6.03523
-5.84199
-5.64249
-5.43673
-5.22472
-5.00651
-4.78214
-4.55168
-4.31525
-4.07297
-3.82499
-3.57151
-3.31273
-3.04891
-2.78032
-2.50729
-2.23015
-1.94928
-1.6651
-1.37803
-1.08853
-0.797123
-0.504302
-0.210606
0.0834235
0.377217
0.670214
0.96184
1.25155
1.53879
1.82307
2.10389
2.38083
2.65346
2.92145
3.18452
3.44243
3.69498
3.94207
4.1836
4.41955
4.6499
4.87466
5.09386
5.30759
5.51592
5.71903
5.91708
6.11033
6.29899
6.48337
6.66373
6.84038
7.01361
7.18371
7.35096
7.51563
7.67798
7.83825
7.99666
8.15338
8.30864
8.4623
8.61517
8.76304
8.9228
9.01929
-8.67084
-8.67885
-8.68973
-8.70169
-8.71391
-8.72606
-8.7381
-8.74987
-8.76105
-8.7713
-8.78031
-8.78786
-8.79376
-8.79795
-8.80038
-8.801
-8.79979
-8.79676
-8.79194
-8.78537
-8.77716
-8.76755
-8.75687
-8.74543
-8.73351
-8.72131
-8.7092
-8.69788
-8.68855
-8.68251
-8.68076
-8.68399
-8.69263
-8.70675
-8.72604
-8.74988
-8.77756
-8.80835
-8.84161
-8.87676
-8.91332
-8.95089
-8.98912
-9.02772
-9.06644
-9.10507
-9.1434
-9.18124
-9.21841
-9.25475
-9.29013
-9.32442
-9.35746
-9.38914
-9.41933
-9.4479
-9.47474
-9.49974
-9.52282
-9.54387
-9.56283
-9.5796
-9.59415
-9.60643
-9.61639
-9.62399
-9.62922
-9.63203
-9.6324
-9.6303
-9.62569
-9.61854
-9.60881
-9.59646
-9.58144
-9.56371
-9.5432
-9.51986
-9.49363
-9.46442
-9.43218
-9.39682
-9.35827
-9.31645
-9.27126
-9.22263
-9.17046
-9.11465
-9.05511
-8.99175
-8.92447
-8.85316
-8.77773
-8.69805
-8.61404
-8.52558
-8.43257
-8.33488
-8.23242
-8.12506
-8.01271
-7.89523
-7.77252
-7.64447
-7.51097
-7.37191
-7.22718
-7.07668
-6.92032
-6.75801
-6.58968
-6.41523
-6.23461
-6.04777
-5.85468
-5.6553
-5.44962
-5.23767
-5.01946
-4.79506
-4.56452
-4.32796
-4.0855
-3.8373
-3.58353
-3.32442
-3.06021
-2.79119
-2.51768
-2.24002
-1.95857
-1.67377
-1.38603
-1.09585
-0.803703
-0.510132
-0.215665
0.0791299
0.373689
0.667431
0.959785
1.25017
1.53804
1.82284
2.10412
2.3814
2.65429
2.92241
3.18552
3.44336
3.69576
3.94258
4.18379
4.41933
4.64923
4.87346
5.09208
5.30513
5.51274
5.71502
5.9122
6.10449
6.29216
6.47548
6.65476
6.83028
7.00236
7.17126
7.33728
7.50069
7.66173
7.82062
7.97758
8.13277
8.28637
8.43818
8.58899
8.73445
8.89183
8.98375
-8.64119
-8.64857
-8.66039
-8.67397
-8.68731
-8.7002
-8.71296
-8.72562
-8.73785
-8.74924
-8.75939
-8.76801
-8.77491
-8.78
-8.78318
-8.78439
-8.78366
-8.78105
-8.77666
-8.77061
-8.76304
-8.7541
-8.74398
-8.73285
-8.72102
-8.709
-8.69755
-8.68765
-8.68022
-8.6761
-8.67622
-8.68134
-8.69175
-8.70738
-8.72779
-8.75238
-8.78052
-8.81159
-8.84501
-8.88029
-8.91698
-8.9547
-8.99313
-9.03196
-9.07094
-9.10984
-9.14843
-9.18649
-9.22386
-9.26038
-9.2959
-9.33026
-9.36334
-9.39499
-9.42509
-9.45352
-9.48019
-9.50499
-9.52784
-9.54867
-9.56741
-9.58401
-9.5984
-9.61055
-9.6204
-9.62794
-9.63312
-9.63592
-9.63631
-9.63424
-9.62967
-9.62258
-9.61293
-9.60066
-9.58572
-9.56807
-9.54765
-9.5244
-9.49825
-9.46913
-9.43698
-9.40171
-9.36326
-9.32153
-9.27644
-9.2279
-9.17583
-9.12014
-9.06071
-8.99747
-8.93032
-8.85915
-8.78385
-8.70433
-8.62048
-8.53218
-8.43934
-8.34184
-8.23957
-8.13241
-8.02025
-7.90297
-7.78047
-7.65263
-7.51933
-7.38046
-7.23593
-7.08562
-6.92944
-6.7673
-6.5991
-6.42479
-6.24428
-6.05752
-5.86448
-5.66512
-5.45944
-5.24743
-5.02914
-4.80461
-4.5739
-4.33712
-4.09439
-3.84586
-3.59172
-3.33218
-3.06749
-2.79794
-2.52383
-2.24553
-1.96339
-1.67785
-1.38934
-1.09833
-0.805348
-0.510914
-0.21558
0.0800798
0.375491
0.670061
0.963209
1.25433
1.54286
1.82821
2.10993
2.38754
2.66064
2.92886
3.19195
3.44964
3.70178
3.94825
4.18899
4.42401
4.6533
4.87686
5.09474
5.30696
5.51366
5.71496
5.91108
6.10224
6.28873
6.47083
6.64886
6.8231
6.99386
7.16144
7.3261
7.48812
7.64773
7.80515
7.96057
8.11415
8.26601
8.41594
8.56468
8.70781
8.86281
8.9511
-8.5962
-8.60406
-8.61849
-8.63485
-8.64989
-8.66378
-8.67752
-8.6914
-8.70507
-8.71797
-8.72959
-8.73958
-8.74772
-8.75383
-8.75784
-8.75971
-8.75949
-8.75721
-8.75296
-8.74683
-8.73895
-8.7295
-8.71871
-8.70695
-8.69478
-8.68291
-8.67207
-8.66309
-8.65695
-8.65463
-8.65695
-8.66439
-8.67698
-8.69442
-8.71627
-8.74196
-8.77093
-8.80265
-8.83661
-8.87237
-8.90953
-8.94772
-8.98664
-9.02599
-9.0655
-9.10494
-9.14406
-9.18265
-9.22053
-9.25753
-9.29349
-9.32826
-9.3617
-9.39368
-9.42409
-9.45281
-9.47974
-9.50479
-9.52787
-9.54892
-9.56788
-9.5847
-9.59932
-9.6117
-9.62178
-9.62954
-9.63494
-9.63794
-9.63851
-9.63661
-9.63222
-9.62528
-9.61576
-9.60361
-9.5888
-9.57125
-9.55093
-9.52776
-9.50169
-9.47264
-9.44055
-9.40534
-9.36694
-9.32525
-9.28021
-9.23172
-9.1797
-9.12405
-9.06468
-9.00149
-8.9344
-8.86329
-8.78807
-8.70863
-8.62486
-8.53667
-8.44393
-8.34653
-8.24437
-8.13734
-8.0253
-7.90816
-7.78579
-7.65808
-7.52492
-7.38619
-7.24178
-7.0916
-6.93554
-6.7735
-6.6054
-6.43115
-6.25069
-6.06396
-5.87091
-5.67153
-5.46578
-5.25367
-5.03523
-4.81052
-4.57958
-4.34252
-4.09946
-3.85055
-3.59597
-3.33595
-3.07072
-2.80056
-2.5258
-2.24678
-1.96389
-1.67754
-1.38819
-1.09631
-0.802425
-0.507073
-0.210826
0.0857486
0.382052
0.677496
0.971466
1.26336
1.55255
1.83847
2.1206
2.39853
2.6718
2.94009
3.20309
3.46058
3.71237
3.95838
4.19855
4.43293
4.66149
4.88426
5.10125
5.31251
5.51814
5.71831
5.9132
6.1031
6.28825
6.469
6.64562
6.81845
6.98778
7.15391
7.31711
7.47764
7.63574
7.7916
7.94542
8.09733
8.24742
8.39545
8.54214
8.68305
8.83566
8.92119
-8.53886
-8.54875
-8.56696
-8.58673
-8.60354
-8.61835
-8.63302
-8.6482
-8.66346
-8.67807
-8.69137
-8.70289
-8.71235
-8.71951
-8.72426
-8.72655
-8.72638
-8.7238
-8.71892
-8.71187
-8.70287
-8.69221
-8.68034
-8.66778
-8.65515
-8.64317
-8.63278
-8.62497
-8.62075
-8.6209
-8.62592
-8.63593
-8.65078
-8.67012
-8.69351
-8.72045
-8.75045
-8.78306
-8.81783
-8.85436
-8.89224
-8.93116
-8.97078
-9.01084
-9.05105
-9.09118
-9.131
-9.17031
-9.20892
-9.24665
-9.28333
-9.3188
-9.35293
-9.38558
-9.41665
-9.44603
-9.47362
-9.49931
-9.52302
-9.54467
-9.5642
-9.58155
-9.59667
-9.60951
-9.62003
-9.62819
-9.63395
-9.63728
-9.63815
-9.63652
-9.63237
-9.62565
-9.61633
-9.60435
-9.58967
-9.57225
-9.55202
-9.52893
-9.50292
-9.47391
-9.44185
-9.40667
-9.36827
-9.32659
-9.28154
-9.23305
-9.18101
-9.12535
-9.06597
-9.00278
-8.93568
-8.86458
-8.78937
-8.70995
-8.62621
-8.53805
-8.44536
-8.34801
-8.24591
-8.13894
-8.02698
-7.90992
-7.78763
-7.66001
-7.52693
-7.38829
-7.24397
-7.09387
-6.93788
-6.77591
-6.60786
-6.43365
-6.2532
-6.06646
-5.87339
-5.67395
-5.46811
-5.25587
-5.03727
-4.81234
-4.58115
-4.34378
-4.10037
-3.85106
-3.59603
-3.33551
-3.06972
-2.79895
-2.52352
-2.24378
-1.96012
-1.67295
-1.38275
-1.08998
-0.795198
-0.498933
-0.201767
0.0957204
0.39292
0.68923
0.984022
1.27667
1.56651
1.85296
2.13551
2.4137
2.68712
2.95542
3.21831
3.47555
3.72693
3.9724
4.21193
4.44556
4.67332
4.89519
5.11119
5.32137
5.52583
5.72473
5.91829
6.10678
6.29048
6.46974
6.64485
6.81615
6.98395
7.14853
7.31018
7.46914
7.62566
7.77991
7.93207
8.08226
8.23056
8.37669
8.52137
8.66014
8.81037
8.89395
-8.47634
-8.4887
-8.51129
-8.53471
-8.55313
-8.56856
-8.58395
-8.60028
-8.61707
-8.63334
-8.64819
-8.66105
-8.67154
-8.67937
-8.68437
-8.68646
-8.68567
-8.68209
-8.67589
-8.66734
-8.6568
-8.64469
-8.63152
-8.61798
-8.60491
-8.59328
-8.58407
-8.57822
-8.57646
-8.57929
-8.58692
-8.59931
-8.61622
-8.63728
-8.6621
-8.69024
-8.72128
-8.75481
-8.79041
-8.82772
-8.86638
-8.90607
-8.94649
-8.98735
-9.02838
-9.06933
-9.11
-9.1502
-9.18973
-9.22841
-9.26606
-9.30253
-9.33766
-9.37131
-9.40336
-9.43368
-9.46216
-9.48872
-9.51327
-9.53571
-9.55599
-9.57403
-9.58979
-9.60323
-9.6143
-9.62298
-9.62921
-9.63297
-9.63422
-9.63293
-9.62908
-9.62262
-9.61351
-9.60171
-9.58718
-9.56987
-9.54973
-9.5267
-9.50072
-9.47173
-9.43967
-9.40446
-9.36603
-9.3243
-9.2792
-9.23065
-9.17855
-9.12283
-9.06339
-9.00014
-8.933
-8.86185
-8.78661
-8.70715
-8.62339
-8.53522
-8.44252
-8.34519
-8.2431
-8.13615
-8.02423
-7.90721
-7.78498
-7.65741
-7.52439
-7.38581
-7.24155
-7.0915
-6.93557
-6.77365
-6.60564
-6.43145
-6.25101
-6.06426
-5.87116
-5.67166
-5.46573
-5.25336
-5.03459
-4.80947
-4.57804
-4.34039
-4.09664
-3.84696
-3.59152
-3.33052
-3.0642
-2.79286
-2.5168
-2.23638
-1.952
-1.66408
-1.37307
-1.07949
-0.78385
-0.486735
-0.188708
0.109627
0.407665
0.704778
1.00034
1.29366
1.58409
1.87102
2.15392
2.43233
2.70585
2.97412
3.23687
3.49378
3.74472
3.98958
4.2284
4.46123
4.68811
4.90901
5.12395
5.33295
5.53615
5.73369
5.92581
6.1128
6.29497
6.47264
6.64617
6.81586
6.98205
7.14502
7.30506
7.46241
7.6173
7.7699
7.92039
8.06885
8.21537
8.35963
8.50234
8.6391
8.78693
8.8693
-8.41874
-8.43337
-8.46022
-8.48708
-8.50678
-8.5225
-8.53827
-8.55544
-8.57338
-8.59082
-8.6067
-8.62031
-8.63116
-8.63889
-8.64331
-8.64436
-8.64212
-8.63679
-8.62865
-8.61808
-8.60558
-8.59176
-8.57739
-8.56336
-8.55059
-8.54001
-8.53249
-8.52874
-8.52925
-8.5343
-8.54396
-8.5581
-8.57647
-8.59876
-8.62462
-8.65367
-8.68551
-8.71976
-8.75603
-8.79399
-8.83334
-8.87376
-8.91495
-8.95663
-8.99852
-9.04041
-9.08206
-9.12328
-9.16387
-9.20364
-9.24241
-9.27999
-9.31624
-9.35099
-9.38411
-9.41547
-9.44495
-9.47246
-9.49792
-9.52124
-9.54234
-9.56117
-9.57767
-9.59179
-9.6035
-9.61275
-9.6195
-9.62373
-9.6254
-9.62448
-9.62095
-9.61475
-9.60586
-9.59425
-9.57986
-9.56265
-9.54257
-9.51958
-9.49362
-9.46461
-9.43252
-9.39726
-9.35876
-9.31696
-9.27177
-9.22312
-9.17093
-9.11512
-9.05559
-8.99226
-8.92503
-8.85381
-8.77849
-8.69898
-8.61516
-8.52695
-8.43422
-8.33687