/*--------------------------------*- C++ -*----------------------------------*\
| =========                 |                                                 |
| \\      /  F ield         | OpenFOAM: The Open Source CFD Toolbox           |
|  \\    /   O peration     | Version:  v2012                                 |
|   \\  /    A nd           | Website:  www.openfoam.com                      |
|    \\/     M anipulation  |                                                 |
\*---------------------------------------------------------------------------*/
FoamFile
{
    version     2.0;
    format      ascii;
    class       volVectorField;
    location    "200";
    object      U;
}
// * * * * * * * * * * * * * * * * * * * * * * * * * * * * * * * * * * * * * //

dimensions      [0 1 -1 0 0 0 0];


internalField   nonuniform List<vector> 
12225
(
(9.82635 -1.0109 0)
(9.56387 -0.938902 0)
(9.27376 -0.621801 0)
(8.95829 -0.379433 0)
(8.65481 -0.224947 0)
(8.38023 -0.131563 0)
(8.13593 -0.0756333 0)
(7.9203 -0.0421031 0)
(7.73081 -0.0219671 0)
(7.56532 -0.00984683 0)
(7.4206 -0.00268372 0)
(7.2945 0.00142472 0)
(7.18448 0.00352946 0)
(7.08942 0.00434971 0)
(7.00777 0.00420865 0)
(6.94016 0.00268451 0)
(6.8856 0.00288628 0)
(6.8472 -0.016113 0)
(10.0807 0.279023 0)
(10.1945 0.447104 0)
(10.2313 0.399221 0)
(10.2248 0.314174 0)
(10.2029 0.243447 0)
(10.1708 0.191076 0)
(10.1275 0.153106 0)
(10.0744 0.125813 0)
(10.0151 0.105976 0)
(9.95219 0.0911667 0)
(9.88799 0.0797552 0)
(9.82357 0.0706512 0)
(9.76046 0.0631261 0)
(9.69909 0.0566024 0)
(9.64069 0.0505301 0)
(9.58495 0.0444958 0)
(9.53451 0.0367617 0)
(9.48309 0.0277055 0)
(10.0048 0.0616888 0)
(10.034 0.0493218 0)
(10.0684 0.0133319 0)
(10.0973 0.00716815 0)
(10.1219 0.0178863 0)
(10.1423 0.0297533 0)
(10.1569 0.0388474 0)
(10.1654 0.045251 0)
(10.1689 0.0495465 0)
(10.1685 0.0520828 0)
(10.165 0.0532587 0)
(10.1591 0.0533765 0)
(10.1512 0.0526522 0)
(10.142 0.0511504 0)
(10.1319 0.0488287 0)
(10.1212 0.045234 0)
(10.1104 0.0401659 0)
(10.0968 0.0305672 0)
(9.99695 0.00965119 0)
(10.0093 0.0259489 0)
(10.0369 0.0394123 0)
(10.0601 0.0545495 0)
(10.0781 0.0655975 0)
(10.0942 0.0705557 0)
(10.1084 0.0715943 0)
(10.1202 0.0709448 0)
(10.1301 0.0694956 0)
(10.1384 0.0676151 0)
(10.1454 0.0654153 0)
(10.1514 0.0630087 0)
(10.1564 0.060366 0)
(10.1606 0.0574176 0)
(10.1643 0.0539596 0)
(10.1673 0.0496032 0)
(10.1696 0.0439897 0)
(10.1697 0.0359056 0)
(9.99899 0.00647112 0)
(10.0081 0.034504 0)
(10.0285 0.0496957 0)
(10.0455 0.0566592 0)
(10.0588 0.0605132 0)
(10.0717 0.0621195 0)
(10.0842 0.0622479 0)
(10.0953 0.0617078 0)
(10.1051 0.0608347 0)
(10.1141 0.0596728 0)
(10.1223 0.0582307 0)
(10.1298 0.0565086 0)
(10.1368 0.0544756 0)
(10.1433 0.0520357 0)
(10.1494 0.0490342 0)
(10.1549 0.0452005 0)
(10.1596 0.0403617 0)
(10.1628 0.0342852 0)
(10.0002 0.00928505 0)
(10.0079 0.0335038 0)
(10.0233 0.0448827 0)
(10.0371 0.0495352 0)
(10.0487 0.0532838 0)
(10.0601 0.0559575 0)
(10.0713 0.0571942 0)
(10.0815 0.0574455 0)
(10.0908 0.0571036 0)
(10.0993 0.0563007 0)
(10.1073 0.0550927 0)
(10.1149 0.0535118 0)
(10.122 0.0515556 0)
(10.1287 0.0491636 0)
(10.1349 0.0462347 0)
(10.1407 0.0426196 0)
(10.1456 0.0382781 0)
(10.1494 0.0332539 0)
(10.0004 0.00911523 0)
(10.0068 0.0282384 0)
(10.0192 0.0387922 0)
(10.0315 0.0442904 0)
(10.0421 0.0486405 0)
(10.0524 0.0516883 0)
(10.0625 0.0531522 0)
(10.072 0.0535176 0)
(10.0807 0.0532335 0)
(10.0888 0.0524674 0)
(10.0965 0.0512854 0)
(10.1037 0.0497214 0)
(10.1106 0.0477838 0)
(10.117 0.0454332 0)
(10.1231 0.0426126 0)
(10.1286 0.0392537 0)
(10.1334 0.0353829 0)
(10.1372 0.031129 0)
(10.0004 0.00810505 0)
(10.0058 0.0243873 0)
(10.0165 0.0349005 0)
(10.0276 0.0408358 0)
(10.0376 0.0450689 0)
(10.0472 0.0479526 0)
(10.0566 0.0494031 0)
(10.0655 0.0498243 0)
(10.0738 0.0496048 0)
(10.0815 0.0489006 0)
(10.0889 0.0477758 0)
(10.0959 0.0462649 0)
(10.1025 0.0443849 0)
(10.1087 0.0421167 0)
(10.1145 0.039436 0)
(10.1197 0.036323 0)
(10.1243 0.0328333 0)
(10.1281 0.0291078 0)
(10.0004 0.00725346 0)
(10.0051 0.0216398 0)
(10.0143 0.0316845 0)
(10.0245 0.0376179 0)
(10.0339 0.0416897 0)
(10.0429 0.044473 0)
(10.0518 0.0459573 0)
(10.0603 0.0464541 0)
(10.0682 0.0462996 0)
(10.0757 0.0456502 0)
(10.0828 0.0445739 0)
(10.0896 0.0431116 0)
(10.0959 0.0412882 0)
(10.1019 0.0391031 0)
(10.1074 0.0365544 0)
(10.1124 0.0336531 0)
(10.1168 0.0304664 0)
(10.1205 0.0271293 0)
(10.0004 0.00644314 0)
(10.0045 0.0190199 0)
(10.0123 0.0282711 0)
(10.0215 0.0340415 0)
(10.0303 0.0379638 0)
(10.0388 0.040655 0)
(10.0471 0.0421614 0)
(10.0552 0.0427196 0)
(10.0628 0.0426193 0)
(10.0699 0.0420188 0)
(10.0767 0.0409918 0)
(10.0832 0.0395856 0)
(10.0893 0.0378329 0)
(10.0949 0.03575 0)
(10.1002 0.0333538 0)
(10.105 0.0306764 0)
(10.1092 0.0277874 0)
(10.1128 0.0248068 0)
(10.0004 0.00562233 0)
(10.0038 0.0164234 0)
(10.0105 0.0247289 0)
(10.0186 0.0302204 0)
(10.0267 0.0339563 0)
(10.0346 0.0365091 0)
(10.0425 0.037989 0)
(10.05 0.03858 0)
(10.0573 0.0385215 0)
(10.0641 0.0379667 0)
(10.0706 0.0369948 0)
(10.0768 0.0356571 0)
(10.0825 0.0339942 0)
(10.0879 0.0320361 0)
(10.0929 0.029814 0)
(10.0974 0.0273717 0)
(10.1014 0.024775 0)
(10.1049 0.0221244 0)
(10.0003 0.00478498 0)
(10.0033 0.0138826 0)
(10.0089 0.0211417 0)
(10.016 0.0262001 0)
(10.0233 0.029669 0)
(10.0306 0.0320252 0)
(10.0379 0.0334243 0)
(10.045 0.0340144 0)
(10.0518 0.0339836 0)
(10.0583 0.0334717 0)
(10.0645 0.0325608 0)
(10.0703 0.0313061 0)
(10.0758 0.0297535 0)
(10.0809 0.0279424 0)
(10.0856 0.0259131 0)
(10.0898 0.0237133 0)
(10.0936 0.0214014 0)
(10.0971 0.0190585 0)
(10.0003 0.00394883 0)
(10.0027 0.0114209 0)
(10.0074 0.0175533 0)
(10.0136 0.0220152 0)
(10.0202 0.0251183 0)
(10.0269 0.0272164 0)
(10.0336 0.0284764 0)
(10.0402 0.0290217 0)
(10.0466 0.0289955 0)
(10.0527 0.0285184 0)
(10.0585 0.0276711 0)
(10.064 0.0265107 0)
(10.0691 0.0250856 0)
(10.0739 0.0234398 0)
(10.0783 0.0216167 0)
(10.0824 0.0196631 0)
(10.086 0.0176279 0)
(10.0893 0.0155759 0)
(10.0002 0.0031273 0)
(10.0023 0.00903737 0)
(10.0062 0.0139866 0)
(10.0115 0.0177088 0)
(10.0174 0.0203374 0)
(10.0234 0.0221059 0)
(10.0295 0.0231619 0)
(10.0356 0.0236088 0)
(10.0416 0.0235543 0)
(10.0473 0.0230964 0)
(10.0527 0.0223092 0)
(10.0579 0.0212483 0)
(10.0627 0.0199612 0)
(10.0672 0.0184917 0)
(10.0714 0.0168816 0)
(10.0752 0.0151731 0)
(10.0787 0.0134061 0)
(10.0819 0.0116318 0)
(10.0002 0.00232513 0)
(10.0019 0.00671966 0)
(10.0052 0.0104483 0)
(10.0098 0.0133137 0)
(10.0149 0.0153564 0)
(10.0204 0.016713 0)
(10.026 0.0174948 0)
(10.0315 0.0177841 0)
(10.037 0.01766 0)
(10.0423 0.0171977 0)
(10.0474 0.0164592 0)
(10.0522 0.0154946 0)
(10.0568 0.0143468 0)
(10.061 0.0130553 0)
(10.065 0.0116571 0)
(10.0686 0.0101874 0)
(10.0719 0.00867772 0)
(10.075 0.00716837 0)
(10.0002 0.00153849 0)
(10.0016 0.00444313 0)
(10.0045 0.00691861 0)
(10.0084 0.00883047 0)
(10.0129 0.0101795 0)
(10.0178 0.0110355 0)
(10.0229 0.0114693 0)
(10.028 0.0115386 0)
(10.0331 0.0112976 0)
(10.038 0.010799 0)
(10.0428 0.0100896 0)
(10.0473 0.00920929 0)
(10.0515 0.00819295 0)
(10.0556 0.00707258 0)
(10.0593 0.00587773 0)
(10.0628 0.00463593 0)
(10.0659 0.00337042 0)
(10.0689 0.00211257 0)
(10.0002 0.000753185 0)
(10.0014 0.00216333 0)
(10.0039 0.00334398 0)
(10.0074 0.00421681 0)
(10.0115 0.00477237 0)
(10.0159 0.00503848 0)
(10.0206 0.00504888 0)
(10.0253 0.00483415 0)
(10.03 0.00442484 0)
(10.0346 0.0038517 0)
(10.0391 0.00314374 0)
(10.0433 0.00232705 0)
(10.0474 0.00142551 0)
(10.0512 0.000461135 0)
(10.0548 -0.000545553 0)
(10.0581 -0.00157566 0)
(10.0612 -0.00261362 0)
(10.064 -0.00363657 0)
(10.0001 -1.03925e-05 0)
(10.0013 -5.68291e-05 0)
(10.0036 -0.000158715 0)
(10.0069 -0.000342846 0)
(10.0107 -0.000614079 0)
(10.0149 -0.000972973 0)
(10.0194 -0.00141986 0)
(10.0239 -0.00195105 0)
(10.0283 -0.00255861 0)
(10.0327 -0.00323269 0)
(10.037 -0.00396313 0)
(10.0411 -0.00473915 0)
(10.0449 -0.00554967 0)
(10.0486 -0.00638332 0)
(10.0521 -0.00722929 0)
(10.0553 -0.00807692 0)
(10.0583 -0.00891793 0)
(10.0611 -0.00973677 0)
(10.0001 -0.000706532 0)
(10.0013 -0.00208657 0)
(10.0036 -0.00337477 0)
(10.0068 -0.00454117 0)
(10.0107 -0.00557694 0)
(10.0149 -0.00651078 0)
(10.0192 -0.00737868 0)
(10.0237 -0.00820283 0)
(10.0281 -0.0089957 0)
(10.0324 -0.0097673 0)
(10.0366 -0.0105253 0)
(10.0406 -0.0112734 0)
(10.0444 -0.0120124 0)
(10.048 -0.0127411 0)
(10.0514 -0.0134572 0)
(10.0546 -0.0141574 0)
(10.0576 -0.0148393 0)
(10.0604 -0.0154934 0)
(10.0001 -0.00133725 0)
(10.0014 -0.00394067 0)
(10.0038 -0.006326 0)
(10.0072 -0.008379 0)
(10.0112 -0.0100789 0)
(10.0155 -0.0115023 0)
(10.02 -0.0127249 0)
(10.0245 -0.0137889 0)
(10.029 -0.0147259 0)
(10.0333 -0.0155677 0)
(10.0375 -0.0163394 0)
(10.0415 -0.0170575 0)
(10.0453 -0.0177322 0)
(10.0489 -0.0183707 0)
(10.0523 -0.0189777 0)
(10.0555 -0.0195557 0)
(10.0585 -0.0201069 0)
(10.0613 -0.020626 0)
(10.0002 -0.00192224 0)
(10.0014 -0.00571212 0)
(10.0041 -0.00917865 0)
(10.0078 -0.0120402 0)
(10.0122 -0.0142932 0)
(10.0168 -0.0161195 0)
(10.0214 -0.0176374 0)
(10.0261 -0.0188926 0)
(10.0307 -0.0199324 0)
(10.0351 -0.0208123 0)
(10.0394 -0.0215759 0)
(10.0434 -0.0222507 0)
(10.0473 -0.0228562 0)
(10.0509 -0.0234068 0)
(10.0543 -0.0239135 0)
(10.0576 -0.0243832 0)
(10.0606 -0.0248215 0)
(10.0634 -0.0252266 0)
(10.0001 -0.00244752 0)
(10.0015 -0.00743902 0)
(10.0045 -0.0120483 0)
(10.0087 -0.0156621 0)
(10.0135 -0.0183517 0)
(10.0184 -0.0204788 0)
(10.0233 -0.0222099 0)
(10.0282 -0.0235933 0)
(10.033 -0.0246953 0)
(10.0376 -0.0255906 0)
(10.0419 -0.0263323 0)
(10.0461 -0.0269551 0)
(10.05 -0.0274861 0)
(10.0537 -0.0279475 0)
(10.0571 -0.0283553 0)
(10.0604 -0.0287207 0)
(10.0634 -0.0290516 0)
(10.0663 -0.0293489 0)
(10.0001 -0.00288332 0)
(10.0014 -0.00914845 0)
(10.0048 -0.0149264 0)
(10.0098 -0.0192122 0)
(10.0152 -0.022317 0)
(10.0204 -0.0247321 0)
(10.0256 -0.0265994 0)
(10.0307 -0.0280064 0)
(10.0357 -0.029089 0)
(10.0404 -0.0299511 0)
(10.0449 -0.0306456 0)
(10.0492 -0.0312069 0)
(10.0532 -0.031666 0)
(10.057 -0.0320494 0)
(10.0605 -0.0323757 0)
(10.0638 -0.0326578 0)
(10.0669 -0.0329053 0)
(10.0698 -0.0331212 0)
(9.99998 -0.00316575 0)
(10.0011 -0.0112092 0)
(10.0051 -0.0179602 0)
(10.011 -0.0223925 0)
(10.0169 -0.0257908 0)
(10.0225 -0.028636 0)
(10.0281 -0.030762 0)
(10.0335 -0.0322342 0)
(10.0388 -0.0332883 0)
(10.0437 -0.034082 0)
(10.0484 -0.0346825 0)
(10.0528 -0.0351339 0)
(10.057 -0.0354768 0)
(10.0609 -0.0357442 0)
(10.0646 -0.0359583 0)
(10.068 -0.0361337 0)
(10.0713 -0.0362802 0)
(10.0743 -0.0363967 0)
(9.99967 -0.00261858 0)
(10.0004 -0.0142181 0)
(10.0054 -0.0225162 0)
(10.0121 -0.0262737 0)
(10.0183 -0.0290601 0)
(10.0244 -0.0318316 0)
(10.0306 -0.0341118 0)
(10.0367 -0.0357868 0)
(10.0425 -0.0370283 0)
(10.0479 -0.0379599 0)
(10.053 -0.0386395 0)
(10.0578 -0.03912 0)
(10.0623 -0.039454 0)
(10.0665 -0.0396843 0)
(10.0704 -0.0398413 0)
(10.0741 -0.0399463 0)
(10.0775 -0.0400152 0)
(10.0807 -0.0400521 0)
(9.99817 0.000992088 0)
(9.99702 -0.0146027 0)
(10.0047 -0.0274377 0)
(10.0137 -0.0330278 0)
(10.0207 -0.035557 0)
(10.0275 -0.0370864 0)
(10.0347 -0.0380989 0)
(10.0418 -0.0388775 0)
(10.0485 -0.0395535 0)
(10.0547 -0.040126 0)
(10.0605 -0.0405724 0)
(10.0659 -0.0409079 0)
(10.0709 -0.0411563 0)
(10.0755 -0.0413427 0)
(10.0798 -0.0414831 0)
(10.0837 -0.0415919 0)
(10.0873 -0.0416762 0)
(10.0906 -0.041716 0)
(9.99418 0.00383699 0)
(9.98949 -0.00531305 0)
(10.0016 -0.0193839 0)
(10.0163 -0.0335216 0)
(10.0276 -0.0440407 0)
(10.0374 -0.0497515 0)
(10.0467 -0.0521987 0)
(10.0553 -0.0530692 0)
(10.0631 -0.0532239 0)
(10.0702 -0.0529483 0)
(10.0768 -0.0524124 0)
(10.0827 -0.0517262 0)
(10.088 -0.0509863 0)
(10.0928 -0.0502391 0)
(10.0971 -0.0495249 0)
(10.1009 -0.0488611 0)
(10.1042 -0.0482666 0)
(10.1073 -0.047695 0)
(9.99427 -0.0266047 0)
(9.99455 -0.0115082 0)
(10.0087 0.0170891 0)
(10.027 0.023617 0)
(10.0453 0.0151299 0)
(10.0625 0.00367198 0)
(10.0776 -0.00641287 0)
(10.0901 -0.0148581 0)
(10.1003 -0.021756 0)
(10.1086 -0.0272517 0)
(10.1153 -0.0315029 0)
(10.1206 -0.0347602 0)
(10.1245 -0.0372265 0)
(10.1272 -0.0390875 0)
(10.129 -0.0404791 0)
(10.1298 -0.041535 0)
(10.13 -0.0423604 0)
(10.1294 -0.0430228 0)
(10.0319 -0.19877 0)
(10.0936 -0.346255 0)
(10.1232 -0.329955 0)
(10.134 -0.274076 0)
(10.1437 -0.223282 0)
(10.1533 -0.182967 0)
(10.1588 -0.151905 0)
(10.1586 -0.128286 0)
(10.1533 -0.110386 0)
(10.1435 -0.0965911 0)
(10.1303 -0.0858075 0)
(10.1143 -0.0772423 0)
(10.0961 -0.0703723 0)
(10.0763 -0.0647917 0)
(10.0554 -0.0602316 0)
(10.0338 -0.0565186 0)
(10.0119 -0.0535249 0)
(9.99016 -0.0515085 0)
(9.93919 0.744806 0)
(9.8708 0.729411 0)
(9.76043 0.517652 0)
(9.60804 0.344123 0)
(9.44398 0.224627 0)
(9.28578 0.145361 0)
(9.13598 0.0927638 0)
(8.99581 0.0574315 0)
(8.86598 0.0334664 0)
(8.74686 0.0171314 0)
(8.63784 0.00602652 0)
(8.53834 -0.00145479 0)
(8.44745 -0.00646721 0)
(8.36451 -0.00976248 0)
(8.28862 -0.0118397 0)
(8.21916 -0.0131212 0)
(8.15502 -0.0138965 0)
(8.09592 -0.0147227 0)
(-0.00388528 0.0108258 0)
(-0.0176493 0.0171242 0)
(-0.0360987 0.0178323 0)
(-0.0559526 0.0142247 0)
(-0.0708518 0.00608117 0)
(-0.0702612 -0.00621271 0)
(-0.0498948 -0.0224566 -7.90598e-19)
(-0.0153917 -0.0393391 9.70627e-19)
(0.0290349 -0.0515293 0)
(0.079628 -0.0565925 5.48147e-19)
(0.132874 -0.0556695 0)
(0.1841 -0.0504686 0)
(0.229457 -0.0423412 0)
(0.266701 -0.0323348 -2.60224e-19)
(0.294649 -0.0211326 0)
(0.312585 -0.00919212 0)
(0.320613 0.00341678 2.34891e-19)
(0.317185 0.0162909 0)
(0.302656 0.0285812 0)
(0.277995 0.0390458 0)
(0.244367 0.0463621 -2.81351e-19)
(0.203482 0.0493011 0)
(0.157883 0.0468775 -3.83317e-19)
(0.110891 0.0386419 0)
(0.0664558 0.0251897 0)
(0.0289709 0.00934839 -9.31648e-19)
(0.00206947 -0.00267837 0)
(-0.0152344 -0.00545292 1.32284e-18)
(-0.0266558 -0.00230012 0)
(-0.0344841 0.0014247 -1.07614e-18)
(-0.0405936 0.00237933 0)
(-0.0439945 -0.000436015 0)
(-0.0398481 -0.00666412 0)
(-0.0260132 -0.0146656 0)
(-0.00236014 -0.0230377 0)
(0.0272901 -0.0278306 9.83379e-19)
(0.0580745 -0.0264997 0)
(0.0856081 -0.0202763 -1.22209e-18)
(0.10541 -0.0118769 0)
(0.115653 -0.00434033 1.08249e-18)
(0.118214 0.00159302 0)
(0.117397 0.00374786 0)
(0.127649 -0.0105278 -9.78496e-19)
(0.143731 -0.0341178 0)
(0.152892 -0.0571067 -8.93578e-19)
(0.140346 -0.0657138 9.0034e-19)
(0.0977076 -0.0496257 0)
(0.0227791 -0.00997386 1.11121e-18)
(-0.105604 0.0458166 6.92624e-19)
(-0.259999 0.0903711 0)
(-0.427533 0.120164 0)
(-0.602456 0.137163 0)
(-0.777749 0.143832 0)
(-0.947502 0.142415 0)
(-1.1077 0.135346 -1.38975e-19)
(-1.2556 0.124746 0)
(-1.38993 0.112397 1.1673e-19)
(-1.51036 0.0996156 0)
(-1.61737 0.0873021 0)
(-1.71195 0.0760023 -9.98317e-20)
(-1.79534 0.0659981 0)
(-1.8689 0.0573752 9.35105e-20)
(-1.93396 0.0500909 0)
(-1.99189 0.0439962 0)
(-2.0438 0.0389203 0)
(-2.09066 0.034711 -8.57179e-20)
(-2.13329 0.0312148 0)
(-2.17238 0.0283074 0)
(-2.20848 0.0258755 -8.18154e-20)
(-2.24207 0.0238313 0)
(-2.27352 0.0220976 -7.96459e-20)
(-2.30312 0.0206148 0)
(-2.33113 0.0193325 0)
(-2.35773 0.0182123 0)
(-2.38309 0.0172212 7.58501e-20)
(-2.40733 0.0163348 0)
(-2.43054 0.0155315 0)
(-2.45281 0.0147955 7.32658e-20)
(-2.47419 0.0141125 7.24333e-20)
(-2.49474 0.0134719 0)
(-2.51448 0.0128639 7.07968e-20)
(-2.53344 0.012281 0)
(-2.55163 0.0117159 1.38373e-19)
(-2.56907 0.0111627 0)
(-2.58575 0.0106154 1.35181e-19)
(-2.60167 0.0100683 0)
(-2.61683 0.00951544 -1.32002e-19)
(-2.6312 0.0089502 0)
(-2.64476 0.00836521 0)
(-2.6575 0.00775196 0)
(-2.66937 0.00710153 1.25629e-19)
(-2.68035 0.00640653 0)
(-2.69039 0.00566227 -1.22413e-19)
(-2.69944 0.00487105 0)
(-2.70745 0.00404771 1.19172e-19)
(-2.71434 0.00322159 1.17546e-19)
(-2.72004 0.00242641 1.15917e-19)
(-2.72445 0.00168919 0)
(-2.72751 0.00103549 0)
(-2.72935 0.000478029 0)
(-2.73019 -2.82742e-05 0)
(-2.73 -0.000531874 0)
(-2.72876 -0.00103872 0)
(-2.72644 -0.00155386 0)
(-2.72303 -0.0020778 0)
(-2.71847 -0.00261173 -1.0005e-19)
(-2.71274 -0.00315504 -9.81019e-20)
(-2.70581 -0.00370864 0)
(-2.69763 -0.00427207 0)
(-2.68817 -0.00484631 0)
(-2.67739 -0.00543073 -8.98274e-20)
(-2.66527 -0.00602632 0)
(-2.65176 -0.00663238 0)
(-2.63683 -0.00724984 0)
(-2.62045 -0.00787804 0)
(-2.60258 -0.0085178 7.81472e-20)
(-2.5832 -0.00916852 0)
(-2.56227 -0.00983085 0)
(-2.53976 -0.0105043 -7.0224e-20)
(-2.51566 -0.0111892 6.73991e-20)
(-2.48993 -0.011885 0)
(-2.46256 -0.0125912 6.14367e-20)
(-2.43354 -0.0133058 0)
(-2.40285 -0.0140252 -5.50111e-20)
(-2.37048 -0.0147476 0)
(-2.33645 -0.015472 0)
(-2.30074 -0.0161905 0)
(-2.26339 -0.0169114 0)
(-2.22439 -0.0176299 0)
(-2.18376 -0.0183472 6.45939e-20)
(-2.14155 -0.019055 5.58278e-20)
(-2.09778 -0.0198086 0)
(-2.05245 -0.0205151 0)
(-2.00569 -0.0212204 0)
(-1.95744 -0.0219594 -1.65811e-20)
(-1.90787 -0.0225927 0)
(-1.85703 -0.0232197 0)
(-1.80503 -0.0238118 0)
(-1.75192 -0.0243935 3.05079e-20)
(-1.69776 -0.0249413 -4.36855e-20)
(-1.64272 -0.0254352 0)
(-1.58685 -0.0258891 0)
(-1.5303 -0.02629 -8.70222e-20)
(-1.47318 -0.0266399 -1.02813e-19)
(-1.41561 -0.0269377 0)
(-1.3577 -0.0271755 0)
(-1.29958 -0.0273539 1.54604e-19)
(-1.24137 -0.0274714 -1.73445e-19)
(-1.18317 -0.0275324 0)
(-1.1251 -0.0275384 0)
(-1.06725 -0.0274905 -2.35191e-19)
(-1.00972 -0.0273914 0)
(-0.952595 -0.0272441 0)
(-0.895945 -0.0270541 -3.05678e-19)
(-0.839829 -0.026823 0)
(-0.784299 -0.0265555 -3.58281e-19)
(-0.729384 -0.0262558 0)
(-0.675117 -0.0259246 0)
(-0.621519 -0.0255659 0)
(-0.568598 -0.0251898 4.79672e-19)
(-0.516355 -0.024799 0)
(-0.464775 -0.0244014 0)
(-0.41384 -0.0240031 0)
(-0.36351 -0.023616 0)
(-0.313742 -0.0232382 0)
(-0.264486 -0.0228791 0)
(-0.215654 -0.022562 7.67297e-19)
(-0.167146 -0.0223076 8.20343e-19)
(-0.118927 -0.0220987 0)
(-0.0710423 -0.0219269 0)
(-0.0234715 -0.021756 0)
(0.0236378 -0.0213269 -1.07265e-18)
(0.0689288 -0.0202247 0)
(0.112444 -0.018744 2.05646e-18)
(0.155021 -0.0172248 -1.97788e-18)
(0.195924 -0.0155876 -1.90953e-18)
(0.235659 -0.0137228 1.85155e-18)
(0.268903 -0.0111435 -1.80674e-18)
(0.309505 -0.00914023 1.77555e-18)
(0.302373 0.00425685 0)
(6.30621e-05 0.0281889 0)
(-0.0073672 0.0473709 0)
(-0.0162928 0.0486874 2.22732e-18)
(-0.017244 0.0373362 0)
(0.00127976 0.0106039 -2.37659e-18)
(0.0401732 -0.0366077 -1.44918e-18)
(0.0898085 -0.0899228 -4.44906e-19)
(0.145731 -0.133096 -3.15762e-19)
(0.203229 -0.158903 0)
(0.257921 -0.166977 -2.08151e-19)
(0.306855 -0.160758 0)
(0.348826 -0.144728 0)
(0.383452 -0.122682 3.17668e-19)
(0.410737 -0.0973463 1.52481e-19)
(0.430929 -0.0704678 -3.0032e-19)
(0.44448 -0.0430405 -2.99951e-19)
(0.451606 -0.0156162 -1.51876e-19)
(0.453507 0.0117049 0)
(0.449993 0.0384583 0)
(0.440462 0.063896 0)
(0.424125 0.086932 -1.60396e-19)
(0.400212 0.106061 0)
(0.368152 0.119368 5.37867e-19)
(0.328004 0.124814 0)
(0.28069 0.120801 0)
(0.228285 0.107148 2.64409e-19)
(0.174169 0.0858961 0)
(0.122586 0.0609405 -4.29297e-19)
(0.0789113 0.0364518 -1.15891e-18)
(0.0483519 0.0160099 7.84397e-19)
(0.0327851 -7.69514e-05 0)
(0.0326151 -0.0156015 0)
(0.0448477 -0.0341021 0)
(0.0674036 -0.0562419 -1.23285e-18)
(0.0966397 -0.076099 -9.32425e-19)
(0.124775 -0.0835852 -3.82004e-19)
(0.145469 -0.0762346 0)
(0.156402 -0.0587513 6.78613e-19)
(0.157674 -0.0366863 0)
(0.152584 -0.0208119 -7.79521e-19)
(0.142971 -0.0212311 0)
(0.121846 -0.030531 0)
(0.0745516 -0.0307479 1.13167e-18)
(-0.0369135 0.0150555 0)
(-0.218108 0.100981 1.38637e-18)
(-0.408713 0.179726 -2.87315e-19)
(-0.604966 0.24888 0)
(-0.798797 0.306153 -1.58828e-19)
(-0.986942 0.347318 -1.30644e-19)
(-1.16225 0.368173 0)
(-1.32133 0.371163 0)
(-1.46205 0.360056 0)
(-1.58343 0.338805 0)
(-1.6861 0.311309 0)
(-1.7718 0.280782 7.77186e-20)
(-1.84294 0.249772 1.51919e-19)
(-1.90213 0.220024 -7.31662e-20)
(-1.95184 0.192646 0)
(-1.99428 0.168196 1.4109e-19)
(-2.03123 0.14685 -6.95774e-20)
(-2.06406 0.128531 0)
(-2.09379 0.113019 -6.6697e-20)
(-2.12115 0.100012 0)
(-2.14663 0.0891598 0)
(-2.1706 0.0801085 -1.28146e-19)
(-2.1933 0.0725482 6.3174e-20)
(-2.21491 0.0662079 -1.24829e-19)
(-2.23557 0.0608602 1.23264e-19)
(-2.25538 0.056315 6.08784e-20)
(-2.27441 0.0524192 0)
(-2.29271 0.0490446 5.94507e-20)
(-2.31034 0.04609 0)
(-2.32731 0.0434725 0)
(-2.34366 0.0411265 0)
(-2.3594 0.0389982 5.66727e-20)
(-2.37455 0.0370452 0)
(-2.38912 0.0352321 1.10776e-19)
(-2.40311 0.0335313 -1.64242e-19)
(-2.41653 0.0319192 -5.41204e-20)
(-2.42937 0.0303776 0)
(-2.44163 0.0288904 -5.28265e-20)
(-2.4533 0.0274454 0)
(-2.46438 0.0260314 -1.03066e-19)
(-2.47485 0.02464 0)
(-2.4847 0.0232633 -1.0047e-19)
(-2.49391 0.0218958 1.98243e-19)
(-2.50249 0.0205322 9.78566e-20)
(-2.5104 0.0191684 0)
(-2.51763 0.0178002 0)
(-2.52418 0.0164224 0)
(-2.53003 0.0150292 -9.25485e-20)
(-2.53516 0.0136133 0)
(-2.53958 0.0121651 8.98416e-20)
(-2.54326 0.0106732 0)
(-2.54623 0.00912887 -2.61303e-19)
(-2.54851 0.0075353 -8.5712e-20)
(-2.55015 0.00591288 -8.43201e-20)
(-2.55121 0.00429933 0)
(-2.55175 0.00274231 0)
(-2.55162 0.00126289 0)
(-2.55056 -0.000178047 0)
(-2.54851 -0.00162297 0)
(-2.54543 -0.00308072 -1.50881e-19)
(-2.54129 -0.00455709 -1.47756e-19)
(-2.53605 -0.00605337 0)
(-2.52967 -0.00757067 7.06059e-20)
(-2.52213 -0.00910841 6.89595e-20)
(-2.5134 -0.0106668 0)
(-2.50342 -0.0122447 1.31366e-19)
(-2.49218 -0.0138419 0)
(-2.47963 -0.0154566 -6.23237e-20)
(-2.46574 -0.0170885 0)
(-2.45048 -0.0187354 0)
(-2.43382 -0.0203963 1.13452e-19)
(-2.41571 -0.0220685 0)
(-2.39613 -0.0237507 -5.27067e-20)
(-2.37506 -0.0254396 0)
(-2.35245 -0.0271331 0)
(-2.32829 -0.0288277 -4.70174e-20)
(-2.30255 -0.0305203 -4.44439e-20)
(-2.27522 -0.0322069 0)
(-2.24626 -0.0338835 4.05353e-20)
(-2.21568 -0.0355452 0)
(-2.18345 -0.0371866 -3.59402e-20)
(-2.14957 -0.0388026 -6.6482e-20)
(-2.11405 -0.0403879 0)
(-2.07688 -0.0419386 0)
(-2.03807 -0.0434496 0)
(-1.99765 -0.0449182 0)
(-1.95562 -0.0463338 -3.96075e-20)
(-1.91203 -0.0476919 -1.03449e-19)
(-1.8669 -0.048983 0)
(-1.82029 -0.0501983 0)
(-1.77223 -0.0513315 0)
(-1.72281 -0.0523754 9.56356e-21)
(-1.67208 -0.0533223 0)
(-1.62012 -0.05418 0)
(-1.56702 -0.0549382 1.86631e-20)
(-1.51283 -0.0555777 1.51493e-20)
(-1.45769 -0.0561088 2.4656e-20)
(-1.40171 -0.056525 0)
(-1.34498 -0.0568146 0)
(-1.28765 -0.0569954 4.72e-20)
(-1.22981 -0.0570545 -5.24084e-20)
(-1.1716 -0.0569965 0)
(-1.11313 -0.0568177 0)
(-1.05452 -0.0565218 -7.93485e-20)
(-0.995896 -0.0561115 2.60411e-19)
(-0.937366 -0.0555975 0)
(-0.879038 -0.05499 0)
(-0.821015 -0.0542988 1.13457e-19)
(-0.763386 -0.0535347 0)
(-0.706236 -0.0527105 2.59389e-19)
(-0.649635 -0.051839 -1.37254e-19)
(-0.593645 -0.0509314 0)
(-0.538317 -0.0499964 1.57856e-19)
(-0.483692 -0.0490445 3.3113e-19)
(-0.429805 -0.0480837 0)
(-0.376674 -0.0471218 0)
(-0.32431 -0.0461711 -1.93777e-19)
(-0.272711 -0.045241 0)
(-0.221861 -0.0443377 4.2076e-19)
(-0.171732 -0.0434737 0)
(-0.122293 -0.0426574 0)
(-0.0734947 -0.0418924 0)
(-0.0252726 -0.0411822 0)
(0.0223847 -0.0405339 -2.52938e-19)
(0.0693774 -0.0399229 -2.55925e-19)
(0.115788 -0.0393295 0)
(0.161801 -0.0387302 0)
(0.207521 -0.0380848 0)
(0.253157 -0.0372514 2.53988e-19)
(0.298927 -0.0361253 0)
(0.34486 -0.0348416 -5.04178e-19)
(0.390769 -0.033497 5.02031e-19)
(0.436291 -0.031977 4.99748e-19)
(0.481596 -0.0299569 4.96071e-19)
(0.52373 -0.0271106 4.96334e-19)
(0.569843 -0.0228119 4.96158e-19)
(0.591565 -0.00788077 0)
(0.000771042 0.0312772 0)
(0.00143351 0.0537622 0)
(0.00865801 0.045356 -2.40674e-18)
(0.0356673 0.00196804 -1.59259e-18)
(0.0887302 -0.0763707 9.14788e-19)
(0.155865 -0.160977 5.90063e-19)
(0.223519 -0.226604 -4.74941e-22)
(0.283022 -0.263005 0)
(0.331275 -0.271665 0)
(0.368521 -0.259295 0)
(0.396462 -0.233274 0)
(0.417124 -0.199629 0)
(0.432166 -0.162509 -7.45359e-19)
(0.442736 -0.124417 0)
(0.449614 -0.0867061 2.4327e-19)
(0.453291 -0.0499623 2.45715e-19)
(0.454092 -0.0144498 0)
(0.452264 0.0197254 0)
(0.448168 0.0526371 0)
(0.442052 0.0843089 0)
(0.433925 0.114401 2.59245e-19)
(0.423331 0.142008 0)
(0.409299 0.165545 -2.80515e-19)
(0.390423 0.182788 0)
(0.365289 0.191207 0)
(0.333075 0.188622 0)
(0.294447 0.174098 -7.88733e-19)
(0.252045 0.148473 0)
(0.210626 0.114386 5.43884e-19)
(0.175703 0.0756685 -1.31801e-18)
(0.152167 0.0353305 0)
(0.141873 -0.00575471 0)
(0.145594 -0.0481666 0)
(0.159277 -0.0874524 6.68097e-19)
(0.169484 -0.109483 5.72666e-19)
(0.166632 -0.105294 0)
(0.150311 -0.0820217 0)
(0.118833 -0.0517615 -1.28976e-18)
(0.074421 -0.0186988 -1.55477e-18)
(0.0173811 0.0198043 1.70926e-18)
(-0.104397 0.0803411 0)
(-0.27822 0.165922 0)
(-0.469351 0.257743 0)
(-0.670937 0.348492 0)
(-0.870598 0.429294 -2.69759e-19)
(-1.05358 0.489795 -2.26548e-19)
(-1.21484 0.531514 1.9674e-19)
(-1.34989 0.554336 0)
(-1.45762 0.558 0)
(-1.54066 0.544214 0)
(-1.60333 0.516257 0)
(-1.65039 0.478462 -1.34319e-19)
(-1.6865 0.43501 0)
(-1.71571 0.389623 0)
(-1.74104 0.345138 -1.18771e-19)
(-1.76457 0.303527 -1.13617e-19)
(-1.78753 0.265922 0)
(-1.81052 0.232812 2.1652e-19)
(-1.83372 0.204217 -1.0499e-19)
(-1.85709 0.179849 1.0272e-19)
(-1.88045 0.159265 0)
(-1.90363 0.141972 0)
(-1.92645 0.12748 0)
(-1.94876 0.115323 0)
(-1.97047 0.105085 9.39135e-20)
(-1.99153 0.0964199 1.84959e-19)
(-2.0119 0.0890409 9.11274e-20)
(-2.03158 0.0827056 -8.98312e-20)
(-2.05056 0.0772155 0)
(-2.06887 0.0724108 1.74638e-19)
(-2.08653 0.0681602 1.72288e-19)
(-2.10355 0.0643588 1.70001e-19)
(-2.11995 0.0609211 -1.67764e-19)
(-2.13575 0.057778 0)
(-2.15097 0.0548728 -2.45191e-19)
(-2.16562 0.0521595 0)
(-2.1797 0.0496001 7.95046e-20)
(-2.19324 0.0471639 7.86107e-20)
(-2.20622 0.0448251 0)
(-2.21864 0.0425626 0)
(-2.23052 0.0403586 1.50862e-19)
(-2.24183 0.0381985 0)
(-2.25259 0.0360699 1.46751e-19)
(-2.26277 0.0339622 0)
(-2.27237 0.0318668 -1.42641e-19)
(-2.28138 0.0297764 -2.81262e-19)
(-2.28979 0.027685 0)
(-2.29758 0.0255881 0)
(-2.30474 0.0234817 0)
(-2.31127 0.0213627 -1.32291e-19)
(-2.31714 0.0192289 0)
(-2.32234 0.0170798 -1.28096e-19)
(-2.32687 0.0149169 0)
(-2.33072 0.0127437 0)
(-2.33388 0.0105657 2.43486e-19)
(-2.33634 0.00838933 0)
(-2.33807 0.00621731 1.17446e-19)
(-2.33903 0.00404398 0)
(-2.33918 0.00184803 1.12946e-19)
(-2.33844 -0.000393346 0)
(-2.33679 -0.00267824 0)
(-2.33417 -0.00499519 0)
(-2.33056 -0.00734374 3.10884e-19)
(-2.32591 -0.00972437 1.01173e-19)
(-2.3202 -0.0121377 0)
(-2.31339 -0.0145834 0)
(-2.30545 -0.0170613 0)
(-2.29634 -0.0195705 0)
(-2.28603 -0.0221101 -8.87406e-20)
(-2.27448 -0.0246785 1.72689e-19)
(-2.26167 -0.0272741 8.35396e-20)
(-2.24754 -0.0298947 -1.6221e-19)
(-2.23209 -0.0325382 -1.56859e-19)
(-2.21526 -0.0352015 -7.54605e-20)
(-2.19702 -0.0378814 0)
(-2.17736 -0.0405743 -1.40329e-19)
(-2.15623 -0.043276 0)
(-2.1336 -0.045982 1.28881e-19)
(-2.10946 -0.048687 6.11574e-20)
(-2.08378 -0.0513856 0)
(-2.05654 -0.0540712 -1.11001e-19)
(-2.02771 -0.056737 -5.2004e-20)
(-1.9973 -0.059375 0)
(-1.96528 -0.061977 -4.65616e-20)
(-1.93164 -0.0645344 1.28085e-19)
(-1.8964 -0.0670388 0)
(-1.85955 -0.0694813 0)
(-1.8211 -0.0718538 0)
(-1.78107 -0.0741475 0)
(-1.73947 -0.0763515 5.15174e-20)
(-1.69635 -0.0784554 4.30446e-20)
(-1.65174 -0.0804491 0)
(-1.60569 -0.0823149 0)
(-1.55823 -0.0840442 0)
(-1.50944 -0.0856276 0)
(-1.45939 -0.0870504 0)
(-1.40815 -0.0883159 0)
(-1.35581 -0.0894093 -1.11084e-20)
(-1.30243 -0.0903135 -1.65247e-21)
(-1.24816 -0.0910282 0)
(-1.19308 -0.0915538 0)
(-1.13732 -0.0918779 -4.26516e-20)
(-1.081 -0.0920085 0)
(-1.02423 -0.0919437 6.15206e-20)
(-0.967137 -0.0916853 6.83279e-20)
(-0.90984 -0.0912326 0)
(-0.852457 -0.0905905 0)
(-0.795102 -0.0897674 -9.62103e-20)
(-0.737889 -0.0887776 -2.06119e-19)
(-0.680921 -0.0876375 0)
(-0.624298 -0.0863641 0)
(-0.568107 -0.0849747 0)
(-0.512429 -0.0834891 -1.3937e-19)
(-0.457331 -0.0819261 1.47829e-19)
(-0.402869 -0.0803033 0)
(-0.34909 -0.0786357 3.25487e-19)
(-0.296035 -0.0769397 1.6924e-19)
(-0.243728 -0.0752284 -3.5791e-19)
(-0.192184 -0.0735155 0)
(-0.141404 -0.071816 0)
(-0.0913803 -0.070146 -4.04158e-19)
(-0.0420859 -0.0685183 -2.10837e-19)
(0.00652001 -0.0669496 0)
(0.0544538 -0.0654556 0)
(0.101759 -0.0640488 0)
(0.148547 -0.0627216 0)
(0.194909 -0.0614694 -4.60614e-19)
(0.240941 -0.0602789 0)
(0.286746 -0.0591664 0)
(0.332429 -0.0581252 0)
(0.378101 -0.0571214 0)
(0.423921 -0.056088 0)
(0.470057 -0.0550061 0)
(0.516621 -0.0538613 -4.80027e-19)
(0.563585 -0.0525646 0)
(0.61076 -0.0509661 0)
(0.658322 -0.0487294 -9.66932e-19)
(0.704366 -0.0453907 4.84028e-19)
(0.753945 -0.0400721 -4.88264e-19)
(0.790048 -0.0254993 4.96803e-19)
(-0.00200318 0.0324632 0)
(0.00177162 0.0374504 5.31959e-18)
(0.0326822 -0.0213138 0)
(0.09876 -0.132832 7.87306e-19)
(0.178916 -0.244238 0)
(0.25207 -0.321337 0)
(0.307527 -0.356017 -3.0963e-19)
(0.344462 -0.35568 0)
(0.366871 -0.332325 0)
(0.379653 -0.296448 0)
(0.386766 -0.25507 0)
(0.390683 -0.212032 0)
(0.392714 -0.169161 8.49065e-19)
(0.393438 -0.127208 4.248e-19)
(0.393069 -0.0865168 -4.2936e-19)
(0.391671 -0.0472168 0)
(0.389264 -0.00935219 0)
(0.385932 0.0270516 0)
(0.381693 0.0620112 0)
(0.376615 0.095528 0)
(0.370857 0.127494 4.71182e-19)
(0.364495 0.157539 4.85917e-19)
(0.357365 0.184841 -5.06911e-19)
(0.348895 0.207886 5.34209e-19)
(0.338092 0.224404 0)
(0.323661 0.231477 0)
(0.304594 0.22621 6.6737e-19)
(0.28097 0.20658 0)
(0.2545 0.172458 0)
(0.228599 0.125872 9.87299e-19)
(0.207253 0.0708603 1.17049e-18)
(0.193659 0.012246 1.37011e-18)
(0.187148 -0.0460208 0)
(0.172861 -0.0847647 0)
(0.137337 -0.0875525 -1.06728e-18)
(0.080633 -0.056587 0)
(0.00835084 0.00141248 0)
(-0.105692 0.0806161 1.00905e-18)
(-0.260056 0.177592 -6.46365e-19)
(-0.43249 0.283094 4.47518e-19)
(-0.622458 0.390476 0)
(-0.813498 0.48927 0)
(-0.990996 0.569912 4.41168e-19)
(-1.14543 0.628988 0)
(-1.27137 0.665388 3.37916e-19)
(-1.36956 0.680381 4.58745e-19)
(-1.44185 0.677315 -4.2279e-19)
(-1.49161 0.659633 2.63544e-19)
(-1.52337 0.630082 0)
(-1.54261 0.591647 0)
(-1.55431 0.547271 2.21617e-19)
(-1.56267 0.499987 1.0428e-19)
(-1.57072 0.452383 0)
(-1.58029 0.406439 0)
(-1.59225 0.363485 9.21007e-20)
(-1.60678 0.324295 1.79373e-19)
(-1.62364 0.289197 0)
(-1.64238 0.258203 -1.67831e-19)
(-1.66248 0.231119 1.64314e-19)
(-1.68346 0.207625 -1.60388e-19)
(-1.70489 0.187351 0)
(-1.72642 0.169904 0)