/*--------------------------------*- C++ -*----------------------------------*\
  =========                 |
  \\      /  F ield         | OpenFOAM: The Open Source CFD Toolbox
   \\    /   O peration     | Website:  https://openfoam.org
    \\  /    A nd           | Version:  8
     \\/     M anipulation  |
\*---------------------------------------------------------------------------*/
FoamFile
{
    version     2.0;
    format      ascii;
    class       volVectorField;
    location    "200";
    object      U;
}
// * * * * * * * * * * * * * * * * * * * * * * * * * * * * * * * * * * * * * //

dimensions      [0 1 -1 0 0 0 0];

internalField   nonuniform List<vector> 
12225
(
(9.84115 -0.802671 0)
(9.48957 -0.655094 0)
(9.22478 -0.482709 0)
(8.93682 -0.301806 0)
(8.67542 -0.194824 0)
(8.43714 -0.114119 0)
(8.22972 -0.0631781 0)
(8.04736 -0.0424415 0)
(7.90075 -0.0281772 0)
(7.77645 0.000526392 0)
(7.67911 -0.00323426 0)
(7.56816 -0.00425472 0)
(7.48379 0.0135391 0)
(7.40522 0.00261255 0)
(7.34321 -0.00971724 0)
(7.29308 -0.0232766 0)
(7.22855 0.0354715 0)
(7.21329 0.0291574 0)
(10.0762 0.226289 0)
(10.1618 0.342527 0)
(10.1559 0.325689 0)
(10.1287 0.258154 0)
(10.0957 0.201628 0)
(10.0519 0.155627 0)
(9.99072 0.120745 0)
(9.92262 0.0968326 0)
(9.84698 0.0782761 0)
(9.76849 0.0647282 0)
(9.67692 0.0619509 0)
(9.61158 0.0529666 0)
(9.52811 0.0416919 0)
(9.45676 0.0425129 0)
(9.3875 0.0445969 0)
(9.32736 0.0442386 0)
(9.27167 0.025064 0)
(9.20459 0.0343491 0)
(10.0081 0.0699314 0)
(10.045 0.0669916 0)
(10.0654 0.0280497 0)
(10.0907 0.0153616 0)
(10.1083 0.0230093 0)
(10.1211 0.0356014 0)
(10.1288 0.0462424 0)
(10.1286 0.0531532 0)
(10.1204 0.0560167 0)
(10.1076 0.0565523 0)
(10.0917 0.0564895 0)
(10.0739 0.0599284 0)
(10.0544 0.0614118 0)
(10.033 0.057055 0)
(10.0093 0.0520441 0)
(9.98447 0.0493003 0)
(9.96039 0.0522376 0)
(9.93971 0.0550185 0)
(9.99996 0.0184542 0)
(10.0217 0.0419224 0)
(10.045 0.0457987 0)
(10.0652 0.0552887 0)
(10.0788 0.0639801 0)
(10.0914 0.0694417 0)
(10.1035 0.070877 0)
(10.1132 0.0698482 0)
(10.1197 0.0681771 0)
(10.124 0.0669874 0)
(10.1265 0.06502 0)
(10.1279 0.064422 0)
(10.1294 0.063981 0)
(10.1296 0.061647 0)
(10.1274 0.0590883 0)
(10.1232 0.0567501 0)
(10.1192 0.0565202 0)
(10.117 0.0562733 0)
(10.0007 0.0128394 0)
(10.0179 0.0471053 0)
(10.0385 0.0540141 0)
(10.0531 0.0560191 0)
(10.0629 0.0578808 0)
(10.0733 0.0598861 0)
(10.0842 0.0608905 0)
(10.0943 0.0609651 0)
(10.1029 0.0607078 0)
(10.1103 0.0606517 0)
(10.1164 0.0602014 0)
(10.122 0.0602596 0)
(10.1276 0.0600403 0)
(10.1327 0.0585773 0)
(10.1362 0.056782 0)
(10.1385 0.0553882 0)
(10.1408 0.05515 0)
(10.1439 0.0546864 0)
(10.0012 0.0136638 0)
(10.0152 0.0447133 0)
(10.0327 0.0494864 0)
(10.045 0.0497371 0)
(10.054 0.0516309 0)
(10.0633 0.0544408 0)
(10.0732 0.0563617 0)
(10.0826 0.0573093 0)
(10.091 0.0577114 0)
(10.0987 0.0578355 0)
(10.1055 0.057593 0)
(10.1119 0.0575674 0)
(10.1184 0.0572111 0)
(10.1243 0.056075 0)
(10.1294 0.0546877 0)
(10.1337 0.0535163 0)
(10.1379 0.0528621 0)
(10.1424 0.0519395 0)
(10.001 0.0123683 0)
(10.0122 0.0384207 0)
(10.0271 0.043881 0)
(10.0387 0.0455138 0)
(10.0475 0.0479875 0)
(10.0562 0.0507921 0)
(10.0653 0.0526487 0)
(10.074 0.0536158 0)
(10.0821 0.0540658 0)
(10.0895 0.0541794 0)
(10.0964 0.0540417 0)
(10.103 0.0539614 0)
(10.1095 0.0535779 0)
(10.1156 0.0526758 0)
(10.121 0.0515726 0)
(10.126 0.0505461 0)
(10.1308 0.0496796 0)
(10.1356 0.04849 0)
(10.0008 0.010619 0)
(10.0096 0.0324062 0)
(10.0223 0.03926 0)
(10.0332 0.0421418 0)
(10.0419 0.0448591 0)
(10.0503 0.04753 0)
(10.059 0.0493585 0)
(10.0675 0.0503945 0)
(10.0754 0.050906 0)
(10.0828 0.0510408 0)
(10.0897 0.0509637 0)
(10.0963 0.0508392 0)
(10.1027 0.0504458 0)
(10.1087 0.0496697 0)
(10.1143 0.0486989 0)
(10.1195 0.0477026 0)
(10.1244 0.0466925 0)
(10.1292 0.045381 0)
(10.0007 0.00931542 0)
(10.0082 0.0290831 0)
(10.0193 0.0360727 0)
(10.0295 0.0392711 0)
(10.038 0.0418668 0)
(10.0461 0.0443046 0)
(10.0544 0.0460294 0)
(10.0625 0.0470696 0)
(10.0701 0.0476315 0)
(10.0773 0.0478451 0)
(10.084 0.0478407 0)
(10.0905 0.0477179 0)
(10.0967 0.0473426 0)
(10.1027 0.046655 0)
(10.1082 0.0457808 0)
(10.1134 0.0448377 0)
(10.1184 0.0438153 0)
(10.1231 0.042527 0)
(10.0006 0.00806753 0)
(10.007 0.0255749 0)
(10.0165 0.0324192 0)
(10.0259 0.0358732 0)
(10.0341 0.0384568 0)
(10.0419 0.0407566 0)
(10.0497 0.0424178 0)
(10.0573 0.0434607 0)
(10.0647 0.0440506 0)
(10.0716 0.0443109 0)
(10.0782 0.0443466 0)
(10.0845 0.0442193 0)
(10.0905 0.0438624 0)
(10.0963 0.0432482 0)
(10.1018 0.0424553 0)
(10.1069 0.0415547 0)
(10.1118 0.0405323 0)
(10.1164 0.0392854 0)
(10.0005 0.00686422 0)
(10.0059 0.021982 0)
(10.014 0.0284919 0)
(10.0224 0.0321207 0)
(10.0302 0.0347147 0)
(10.0376 0.0368877 0)
(10.0449 0.0384728 0)
(10.0522 0.0394939 0)
(10.0592 0.0400875 0)
(10.0658 0.0403682 0)
(10.0722 0.0404226 0)
(10.0783 0.0402908 0)
(10.0842 0.039947 0)
(10.0898 0.039387 0)
(10.0951 0.0386567 0)
(10.1001 0.0378 0)
(10.1049 0.0368042 0)
(10.1093 0.0356301 0)
(10.0004 0.00571734 0)
(10.0048 0.0184902 0)
(10.0117 0.0244635 0)
(10.0192 0.0280892 0)
(10.0264 0.030631 0)
(10.0334 0.0326551 0)
(10.0403 0.034133 0)
(10.0471 0.0351058 0)
(10.0538 0.0356786 0)
(10.0602 0.0359579 0)
(10.0663 0.0360119 0)
(10.0722 0.035874 0)
(10.0778 0.035541 0)
(10.0832 0.0350239 0)
(10.0883 0.0343481 0)
(10.0932 0.0335451 0)
(10.0978 0.0326041 0)
(10.1021 0.0315295 0)
(10.0004 0.00464301 0)
(10.0038 0.0151258 0)
(10.0096 0.0203822 0)
(10.0163 0.023802 0)
(10.0229 0.0261982 0)
(10.0294 0.0280351 0)
(10.0359 0.0293707 0)
(10.0424 0.0302591 0)
(10.0487 0.0307862 0)
(10.0547 0.031039 0)
(10.0606 0.0310775 0)
(10.0662 0.0309289 0)
(10.0717 0.030608 0)
(10.0768 0.0301253 0)
(10.0818 0.0295053 0)
(10.0864 0.0287652 0)
(10.0909 0.0279038 0)
(10.095 0.0269477 0)
(10.0003 0.00363906 0)
(10.0031 0.0119216 0)
(10.0079 0.0162915 0)
(10.0137 0.0192973 0)
(10.0197 0.0214199 0)
(10.0258 0.023009 0)
(10.0319 0.0241523 0)
(10.038 0.0249123 0)
(10.0439 0.0253601 0)
(10.0497 0.0255624 0)
(10.0553 0.0255697 0)
(10.0607 0.025409 0)
(10.0659 0.0250979 0)
(10.0709 0.024652 0)
(10.0756 0.0240891 0)
(10.0801 0.0234238 0)
(10.0843 0.0226582 0)
(10.0882 0.0218319 0)
(10.0002 0.00269677 0)
(10.0025 0.00887543 0)
(10.0065 0.0122129 0)
(10.0116 0.0146013 0)
(10.017 0.0163024 0)
(10.0227 0.0175549 0)
(10.0284 0.0184391 0)
(10.0341 0.0190187 0)
(10.0397 0.0193453 0)
(10.0453 0.0194704 0)
(10.0506 0.0194309 0)
(10.0558 0.0192524 0)
(10.0607 0.0189509 0)
(10.0655 0.0185425 0)
(10.07 0.01804 0)
(10.0743 0.0174577 0)
(10.0784 0.0167978 0)
(10.0821 0.0161049 0)
(10.0002 0.00179323 0)
(10.002 0.00595969 0)
(10.0055 0.00812179 0)
(10.0099 0.00970548 0)
(10.0149 0.0108237 0)
(10.0201 0.0116275 0)
(10.0255 0.0121741 0)
(10.0309 0.0125087 0)
(10.0363 0.0126679 0)
(10.0415 0.012683 0)
(10.0467 0.012579 0)
(10.0516 0.0123734 0)
(10.0564 0.0120791 0)
(10.061 0.0117072 0)
(10.0653 0.0112683 0)
(10.0695 0.0107726 0)
(10.0734 0.0102232 0)
(10.077 0.00966193 0)
(10.0002 0.000899906 0)
(10.0017 0.00309752 0)
(10.0047 0.00393266 0)
(10.0087 0.00453578 0)
(10.0134 0.00490566 0)
(10.0183 0.00514036 0)
(10.0234 0.00525589 0)
(10.0286 0.00527753 0)
(10.0338 0.00521638 0)
(10.0389 0.00508757 0)
(10.0438 0.00489729 0)
(10.0486 0.00465389 0)
(10.0533 0.00436114 0)
(10.0577 0.00402465 0)
(10.0619 0.00364976 0)
(10.0659 0.0032419 0)
(10.0697 0.00280305 0)
(10.0732 0.0023687 0)
(10.0001 2.43755e-05 0)
(10.0016 0.000320297 0)
(10.0044 -0.000256251 0)
(10.0082 -0.000742164 0)
(10.0127 -0.00121335 0)
(10.0176 -0.00162265 0)
(10.0226 -0.00198499 0)
(10.0277 -0.00231398 0)
(10.0328 -0.00261563 0)
(10.0378 -0.00290332 0)
(10.0427 -0.00318382 0)
(10.0474 -0.00346715 0)
(10.052 -0.00375702 0)
(10.0563 -0.00405777 0)
(10.0604 -0.00436973 0)
(10.0644 -0.00469287 0)
(10.0681 -0.00502824 0)
(10.0716 -0.00534596 0)
(10.0001 -0.000789574 0)
(10.0016 -0.0022341 0)
(10.0044 -0.00420635 0)
(10.0084 -0.00576941 0)
(10.013 -0.00706385 0)
(10.0179 -0.00808855 0)
(10.0231 -0.00889994 0)
(10.0283 -0.00954539 0)
(10.0335 -0.0100589 0)
(10.0385 -0.0104752 0)
(10.0434 -0.0108233 0)
(10.0481 -0.0111261 0)
(10.0526 -0.0113998 0)
(10.057 -0.0116561 0)
(10.0611 -0.0119028 0)
(10.065 -0.0121446 0)
(10.0687 -0.0123852 0)
(10.0721 -0.0126 0)
(10.0001 -0.00154455 0)
(10.0016 -0.00458745 0)
(10.0047 -0.00792439 0)
(10.009 -0.0104996 0)
(10.014 -0.012541 0)
(10.0192 -0.0140989 0)
(10.0246 -0.0152867 0)
(10.03 -0.0161772 0)
(10.0354 -0.016839 0)
(10.0405 -0.0173307 0)
(10.0455 -0.0177051 0)
(10.0503 -0.0179965 0)
(10.0549 -0.0182325 0)
(10.0592 -0.0184313 0)
(10.0633 -0.0186071 0)
(10.0672 -0.0187683 0)
(10.0709 -0.0189199 0)
(10.0744 -0.0190413 0)
(10.0001 -0.00226201 0)
(10.0018 -0.00685721 0)
(10.0052 -0.0115971 0)
(10.01 -0.0151198 0)
(10.0155 -0.0177973 0)
(10.0212 -0.0197997 0)
(10.027 -0.0212867 0)
(10.0327 -0.0223583 0)
(10.0383 -0.0231021 0)
(10.0436 -0.023615 0)
(10.0487 -0.0239687 0)
(10.0536 -0.0242143 0)
(10.0582 -0.0243863 0)
(10.0626 -0.0245114 0)
(10.0668 -0.0246071 0)
(10.0707 -0.0246852 0)
(10.0744 -0.0247519 0)
(10.0779 -0.0247884 0)
(10.0001 -0.00293636 0)
(10.0019 -0.00910185 0)
(10.0059 -0.0153537 0)
(10.0115 -0.0197623 0)
(10.0177 -0.0229567 0)
(10.0239 -0.0252867 0)
(10.0301 -0.0269751 0)
(10.0361 -0.0281388 0)
(10.042 -0.0289049 0)
(10.0475 -0.0293956 0)
(10.0528 -0.0296972 0)
(10.0578 -0.0298702 0)
(10.0625 -0.0299568 0)
(10.0669 -0.0299915 0)
(10.0711 -0.0299953 0)
(10.0751 -0.0299837 0)
(10.0788 -0.0299621 0)
(10.0823 -0.0299151 0)
(10 -0.00354533 0)
(10.0019 -0.011387 0)
(10.0067 -0.019217 0)
(10.0133 -0.0244088 0)
(10.0203 -0.0280733 0)
(10.0271 -0.0306923 0)
(10.0337 -0.0324748 0)
(10.0401 -0.0336045 0)
(10.0463 -0.0342905 0)
(10.0521 -0.0346931 0)
(10.0575 -0.0349049 0)
(10.0626 -0.034984 0)
(10.0674 -0.0349803 0)
(10.0719 -0.0349263 0)
(10.0762 -0.0348478 0)
(10.0802 -0.0347572 0)
(10.0839 -0.0346639 0)
(10.0875 -0.034554 0)
(9.99991 -0.00402977 0)
(10.0018 -0.0141049 0)
(10.0076 -0.0233367 0)
(10.0154 -0.0287704 0)
(10.0232 -0.0327638 0)
(10.0306 -0.0357807 0)
(10.0378 -0.0377435 0)
(10.0447 -0.0388445 0)
(10.0512 -0.0394142 0)
(10.0572 -0.0396749 0)
(10.0628 -0.0397339 0)
(10.0681 -0.0396636 0)
(10.0731 -0.0395166 0)
(10.0777 -0.0393348 0)
(10.0821 -0.0391405 0)
(10.0861 -0.0389502 0)
(10.09 -0.0387681 0)
(10.0936 -0.0385863 0)
(9.99961 -0.00380336 0)
(10.0013 -0.0179605 0)
(10.0088 -0.0289827 0)
(10.0177 -0.0337651 0)
(10.0261 -0.0371742 0)
(10.0341 -0.040102 0)
(10.0422 -0.0421479 0)
(10.0499 -0.0433605 0)
(10.0569 -0.0440222 0)
(10.0634 -0.0443307 0)
(10.0694 -0.0443904 0)
(10.075 -0.0442822 0)
(10.0802 -0.0440736 0)
(10.0851 -0.0438128 0)
(10.0895 -0.0435316 0)
(10.0937 -0.043248 0)
(10.0976 -0.0429735 0)
(10.1012 -0.0427177 0)
(9.99829 -0.00113291 0)
(9.99864 -0.0197167 0)
(10.0094 -0.0350601 0)
(10.0208 -0.0415232 0)
(10.0303 -0.0445801 0)
(10.0393 -0.0462138 0)
(10.0485 -0.0469318 0)
(10.0573 -0.0471966 0)
(10.0652 -0.0472529 0)
(10.0724 -0.0471786 0)
(10.079 -0.0469937 0)
(10.085 -0.0467384 0)
(10.0905 -0.0464467 0)
(10.0955 -0.0461436 0)
(10.1 -0.0458458 0)
(10.1041 -0.0455606 0)
(10.1079 -0.0452914 0)
(10.1113 -0.045052 0)
(9.99541 0.00141111 0)
(9.99371 -0.00998186 0)
(10.0083 -0.0275111 0)
(10.0257 -0.0426937 0)
(10.04 -0.0535266 0)
(10.0522 -0.0590852 0)
(10.0635 -0.0609121 0)
(10.0736 -0.0609492 0)
(10.0823 -0.0602055 0)
(10.0899 -0.0590622 0)
(10.0966 -0.0577347 0)
(10.1024 -0.0563627 0)
(10.1074 -0.055036 0)
(10.1116 -0.0537966 0)
(10.1153 -0.0526669 0)
(10.1183 -0.0516545 0)
(10.1209 -0.0507521 0)
(10.123 -0.0499811 0)
(9.99737 -0.0262417 0)
(10.0053 -0.0136126 0)
(10.0206 0.00856412 0)
(10.0427 0.0106211 0)
(10.0645 -0.000468134 0)
(10.0835 -0.0128064 0)
(10.0991 -0.0226209 0)
(10.1108 -0.0300984 0)
(10.1191 -0.0356849 0)
(10.1246 -0.0397153 0)
(10.1278 -0.0424898 0)
(10.1291 -0.0443357 0)
(10.1287 -0.0455059 0)
(10.127 -0.046197 0)
(10.1243 -0.046551 0)
(10.1206 -0.0466879 0)
(10.1164 -0.046693 0)
(10.1115 -0.0466895 0)
(10.0461 -0.248704 0)
(10.1014 -0.357154 0)
(10.1533 -0.339406 0)
(10.1561 -0.278603 0)
(10.1593 -0.223884 0)
(10.1576 -0.181644 0)
(10.1484 -0.149129 0)
(10.1313 -0.124468 0)
(10.108 -0.105898 0)
(10.0804 -0.0917008 0)
(10.05 -0.0806819 0)
(10.0178 -0.0720002 0)
(9.98464 -0.0650837 0)
(9.95121 -0.0595089 0)
(9.91799 -0.0549767 0)
(9.88531 -0.0512947 0)
(9.85351 -0.0483136 0)
(9.82291 -0.0462866 0)
(9.93158 0.813158 0)
(9.81733 0.694471 0)
(9.67154 0.485846 0)
(9.48401 0.31092 0)
(9.2904 0.191621 0)
(9.1091 0.116604 0)
(8.94462 0.0693017 0)
(8.79713 0.0395098 0)
(8.66611 0.0207582 0)
(8.55045 0.00887455 0)
(8.44823 0.0013795 0)
(8.35774 -0.00329956 0)
(8.27723 -0.00615914 0)
(8.20539 -0.00785049 0)
(8.14089 -0.00878905 0)
(8.08275 -0.00927969 0)
(8.02971 -0.00951692 0)
(7.98134 -0.00998318 0)
(-0.00304979 0.00832221 0)
(-0.0137591 0.0131664 0)
(-0.0278265 0.0131991 0)
(-0.0411005 0.00957741 0)
(-0.0465166 0.0023241 0)
(-0.0370363 -0.0079872 0)
(-0.0156484 -0.0201762 -1.16985e-18)
(0.0140904 -0.0298596 1.09817e-18)
(0.0482258 -0.034122 0)
(0.0837986 -0.033273 6.01412e-19)
(0.117093 -0.0285253 0)
(0.14494 -0.0211691 0)
(0.16532 -0.012192 0)
(0.177349 -0.00240633 -3.99849e-19)
(0.18087 0.00756936 0)
(0.175455 0.0166382 0)
(0.162216 0.0237194 4.22976e-19)
(0.142745 0.0277699 0)
(0.118963 0.0280704 0)
(0.0933061 0.024477 0)
(0.0685268 0.0176459 -7.19312e-19)
(0.0472906 0.00903275 0)
(0.0316678 0.000348269 -1.06281e-18)
(0.022713 -0.00735275 0)
(0.0211246 -0.0135834 0)
(0.0274671 -0.0181548 -1.14243e-18)
(0.0404211 -0.02211 0)
(0.0589888 -0.0251354 7.85788e-19)
(0.0794693 -0.0253294 0)
(0.0976702 -0.0224038 -5.98813e-19)
(0.111316 -0.0184093 0)
(0.119786 -0.0160703 0)
(0.124738 -0.0187354 0)
(0.125609 -0.025066 0)
(0.117309 -0.0284457 0)
(0.0926556 -0.0184842 5.68037e-19)
(0.0498533 0.00127525 0)
(-0.0304607 0.0141167 -1.07329e-18)
(-0.126621 0.0340413 0)
(-0.231066 0.0618613 3.97298e-19)
(-0.347606 0.0869524 0)
(-0.474165 0.104359 0)
(-0.60575 0.113827 -2.05376e-19)
(-0.738509 0.119412 0)
(-0.868427 0.126576 -1.58459e-19)
(-0.994186 0.128293 1.44797e-19)
(-1.11568 0.119855 0)
(-1.22876 0.107351 1.28074e-19)
(-1.3318 0.100156 1.20747e-19)
(-1.42676 0.0961943 0)
(-1.51459 0.0831579 0)
(-1.59395 0.0695448 0)
(-1.6652 0.0627779 0)
(-1.73 0.0549084 0)
(-1.78872 0.0467956 -1.00641e-19)
(-1.84186 0.0429947 0)
(-1.89066 0.0403334 9.6273e-20)
(-1.93608 0.0365669 0)
(-1.97804 0.0335422 0)
(-2.01716 0.0309637 -9.14626e-20)
(-2.05385 0.0287104 0)
(-2.08842 0.0267972 8.88631e-20)
(-2.12117 0.0251308 0)
(-2.15233 0.0236825 0)
(-2.18209 0.0224107 0)
(-2.2106 0.0212873 -8.44861e-20)
(-2.23801 0.020285 0)
(-2.26442 0.0193841 0)
(-2.28991 0.0185667 -8.16293e-20)
(-2.31457 0.0178182 0)
(-2.33845 0.0171275 -7.98461e-20)
(-2.3616 0.0164839 0)
(-2.38406 0.0158801 0)
(-2.40585 0.0153088 0)
(-2.427 0.0147651 7.64605e-20)
(-2.44753 0.0142438 0)
(-2.46744 0.0137418 0)
(-2.48674 0.0132547 7.40179e-20)
(-2.50544 0.0127804 7.32149e-20)
(-2.52353 0.0123147 0)
(-2.54102 0.0118555 7.16195e-20)
(-2.55789 0.011398 0)
(-2.57413 0.0109394 1.40067e-19)
(-2.58974 0.0104736 0)
(-2.60469 0.00999655 1.36905e-19)
(-2.61897 0.00949972 0)
(-2.63255 0.00897738 -1.33746e-19)
(-2.64541 0.0084169 0)
(-2.65749 0.00781129 0)
(-2.66876 0.00715308 0)
(-2.67921 0.00643891 1.27398e-19)
(-2.68878 0.00568387 0)
(-2.69742 0.00490829 -1.24204e-19)
(-2.70505 0.00412941 0)
(-2.71158 0.00335856 1.21016e-19)
(-2.71689 0.00260163 1.19428e-19)
(-2.7209 0.00188623 1.17841e-19)
(-2.72354 0.00125741 0)
(-2.72511 0.000698201 0)
(-2.7256 0.000149416 0)
(-2.725 -0.000401124 0)
(-2.72327 -0.000969183 0)
(-2.72038 -0.00155178 0)
(-2.71627 -0.00215711 0)
(-2.71089 -0.00277969 0)
(-2.70419 -0.00342732 -1.02179e-19)
(-2.69612 -0.00409344 -1.00257e-19)
(-2.68662 -0.00478608 0)
(-2.67565 -0.00549812 0)
(-2.66313 -0.0062376 0)
(-2.64903 -0.00699676 -9.20143e-20)
(-2.63329 -0.00778304 0)
(-2.61585 -0.00858859 0)
(-2.59668 -0.00942053 0)
(-2.57573 -0.0102713 0)
(-2.55295 -0.0111469 8.00272e-20)
(-2.52831 -0.0120402 0)
(-2.50177 -0.0129555 0)
(-2.47332 -0.0138859 -7.16003e-20)
(-2.44293 -0.0148327 6.85371e-20)
(-2.41059 -0.0157885 0)
(-2.37628 -0.0167498 6.19757e-20)
(-2.34003 -0.0177128 0)
(-2.30184 -0.0186772 -5.4769e-20)
(-2.26173 -0.019629 0)
(-2.21974 -0.0205763 0)
(-2.17589 -0.0215027 0)
(-2.13024 -0.0224245 0)
(-2.08284 -0.0233638 0)
(-2.03377 -0.0242972 5.70198e-20)
(-1.9831 -0.0252316 4.67144e-20)
(-1.9309 -0.0261085 0)
(-1.87724 -0.0268183 0)
(-1.8224 -0.0275054 0)
(-1.76626 -0.0282171 -2.5866e-22)
(-1.70917 -0.0289247 0)
(-1.65101 -0.0295551 0)
(-1.59222 -0.0301058 0)
(-1.53251 -0.0306113 5.54945e-20)
(-1.47249 -0.0309534 -7.11065e-20)
(-1.41193 -0.031387 0)
(-1.35121 -0.0316261 0)
(-1.29055 -0.0318068 -1.21963e-19)
(-1.22999 -0.0319008 -1.40298e-19)
(-1.16981 -0.0318928 0)
(-1.11003 -0.0317778 0)
(-1.05091 -0.0315422 1.99819e-19)
(-0.992489 -0.0312032 -2.21094e-19)
(-0.93501 -0.0307453 0)
(-0.878527 -0.0301928 0)
(-0.823215 -0.0295441 -2.895e-19)
(-0.769161 -0.0288186 0)
(-0.716453 -0.0280274 0)
(-0.665122 -0.0271823 -3.64376e-19)
(-0.615279 -0.0262707 0)
(-0.566832 -0.0253391 -4.17702e-19)
(-0.519881 -0.024367 0)
(-0.474312 -0.0233924 0)
(-0.430101 -0.0224169 0)
(-0.3872 -0.0214375 5.3212e-19)
(-0.345504 -0.020499 0)
(-0.304843 -0.019596 0)
(-0.265216 -0.0187083 0)
(-0.226356 -0.0178968 0)
(-0.188149 -0.0171507 0)
(-0.150435 -0.0165006 0)
(-0.112948 -0.0159542 7.61754e-19)
(-0.0756013 -0.0154905 7.99759e-19)
(-0.0383459 -0.0151161 0)
(-0.00109588 -0.0148291 0)
(0.0364473 -0.0144461 0)
(0.0725169 -0.0135817 -9.27546e-19)
(0.107441 -0.0125205 0)
(0.142369 -0.0115671 1.72136e-18)
(0.177101 -0.0106278 -1.66193e-18)
(0.211436 -0.00967491 -1.60761e-18)
(0.245925 -0.00857216 1.5593e-18)
(0.275411 -0.00685254 -1.51947e-18)
(0.314008 -0.00551364 1.48845e-18)
(0.305238 0.00783728 0)
(-0.000278749 0.0220585 0)
(-0.00648886 0.0361752 0)
(-0.0111437 0.0340003 2.81993e-18)
(-0.00475548 0.0185128 0)
(0.0202751 -0.0124125 -2.16061e-18)
(0.0564538 -0.0527679 -1.31225e-18)
(0.0988401 -0.0878036 -4.59272e-19)
(0.142379 -0.109326 -3.57014e-19)
(0.183146 -0.115773 0)
(0.218518 -0.10961 -2.66409e-19)
(0.247331 -0.0946541 0)
(0.269218 -0.0744371 0)
(0.284263 -0.0516103 4.65628e-19)
(0.292852 -0.0280027 2.34324e-19)
(0.295499 -0.00490921 -4.8011e-19)
(0.292927 0.0169367 -4.77708e-19)
(0.285247 0.0364532 -2.4307e-19)
(0.272504 0.0524533 0)
(0.254939 0.0635737 0)
(0.233206 0.0685225 0)
(0.208643 0.0664665 -3.17461e-19)
(0.183367 0.0574581 0)
(0.160105 0.0426674 1.2184e-18)
(0.141825 0.0238884 0)
(0.130649 0.00295021 0)
(0.127582 -0.0186395 5.05005e-19)
(0.132051 -0.0386459 0)
(0.137808 -0.0514982 -4.28909e-19)
(0.138513 -0.0522655 -8.29401e-19)
(0.130955 -0.0433072 4.38456e-19)
(0.111336 -0.0295173 0)
(0.0751527 -0.00809795 0)
(0.0151241 0.0185578 0)
(-0.0860031 0.0573898 -7.63465e-19)
(-0.207325 0.106508 -4.59515e-19)
(-0.337811 0.157502 -1.56336e-19)
(-0.476446 0.204354 0)
(-0.621519 0.242683 1.86396e-19)
(-0.766597 0.272851 0)
(-0.908975 0.29389 -1.34233e-19)
(-1.04648 0.305299 0)
(-1.17608 0.306922 0)
(-1.29536 0.300024 1.01482e-19)
(-1.40286 0.286661 0)
(-1.49735 0.269437 2.71981e-19)
(-1.57973 0.249957 -8.65672e-20)
(-1.65133 0.228774 0)
(-1.71373 0.207414 -8.11653e-20)
(-1.76815 0.186912 -7.88722e-20)
(-1.8156 0.168031 0)
(-1.8575 0.151084 0)
(-1.89512 0.135873 0)
(-1.92947 0.122435 0)
(-1.96104 0.110643 0)
(-1.99055 0.100372 7.05091e-20)
(-2.01839 0.0914458 1.39049e-19)
(-2.04477 0.0838029 -6.84701e-20)
(-2.0697 0.0772526 0)
(-2.09358 0.0716231 1.3338e-19)
(-2.11654 0.0667704 -6.58432e-20)
(-2.13864 0.0625638 0)
(-2.15998 0.0588912 -6.42915e-20)
(-2.18062 0.0556624 0)
(-2.20062 0.0528003 0)
(-2.22 0.0502422 -1.24169e-19)
(-2.23882 0.0479349 6.14337e-20)
(-2.25708 0.0458356 -1.2143e-19)
(-2.27482 0.0439071 1.20098e-19)
(-2.29204 0.0421206 5.94363e-20)
(-2.30876 0.04045 0)
(-2.32499 0.0388757 5.81459e-20)
(-2.34073 0.0373795 0)
(-2.35599 0.0359479 0)
(-2.37075 0.034568 0)
(-2.38503 0.0332307 5.5539e-20)
(-2.39881 0.0319266 0)
(-2.4121 0.0306496 1.08663e-19)
(-2.42487 0.0293927 -1.61163e-19)
(-2.43712 0.0281519 -5.31212e-20)
(-2.44885 0.0269213 0)
(-2.46003 0.025698 -5.18705e-20)
(-2.47066 0.0244769 0)
(-2.48071 0.023256 -1.01228e-19)
(-2.49018 0.0220306 0)
(-2.49905 0.0208004 -9.87006e-20)
(-2.50731 0.0195619 1.94759e-19)
(-2.51494 0.0183161 9.61544e-20)
(-2.52192 0.0170559 0)
(-2.52822 0.0157767 0)
(-2.53381 0.0144647 0)
(-2.53869 0.0131024 -9.098e-20)
(-2.54284 0.0116782 0)
(-2.54627 0.0101867 8.83493e-20)
(-2.549 0.00863135 0)
(-2.55106 0.00702255 -2.57107e-19)
(-2.55249 0.00538193 -8.43696e-20)
(-2.55336 0.00375275 -8.30021e-20)
(-2.55368 0.00218802 0)
(-2.55312 0.00067337 0)
(-2.55158 -0.000846724 0)
(-2.54899 -0.00238615 0)
(-2.54529 -0.00396099 0)
(-2.54043 -0.00557123 -1.4877e-19)
(-2.53437 -0.0072243 -1.45759e-19)
(-2.52706 -0.00891595 0)
(-2.51844 -0.0106522 6.97226e-20)
(-2.50846 -0.0124266 6.8128e-20)
(-2.49708 -0.0142446 0)
(-2.48423 -0.016098 1.299e-19)
(-2.46987 -0.0179916 0)
(-2.45395 -0.0199159 -6.16804e-20)
(-2.43641 -0.0218748 0)
(-2.41721 -0.0238574 0)
(-2.3963 -0.0258664 1.12239e-19)
(-2.37363 -0.02789 0)
(-2.34918 -0.0299295 -5.20354e-20)
(-2.3229 -0.0319725 0)
(-2.29476 -0.0340181 0)
(-2.26475 -0.0360537 -4.62917e-20)
(-2.23284 -0.0380753 -4.35054e-20)
(-2.19902 -0.0400704 0)
(-2.16329 -0.0420327 3.95172e-20)
(-2.12565 -0.0439526 0)
(-2.08613 -0.0458226 -3.46291e-20)
(-2.04473 -0.0476364 -6.32957e-20)
(-2.0015 -0.0493874 0)
(-1.95647 -0.0510693 0)
(-1.90969 -0.0526581 0)
(-1.86122 -0.0541445 0)
(-1.81116 -0.0555214 -3.37847e-20)
(-1.75958 -0.0567798 -8.48617e-20)
(-1.70658 -0.057907 0)
(-1.65222 -0.0589256 0)
(-1.5966 -0.0597742 0)
(-1.5398 -0.0605007 7.93728e-22)
(-1.48206 -0.0610914 0)
(-1.42347 -0.0615398 0)
(-1.3642 -0.0618168 3.91123e-20)
(-1.30435 -0.0619513 2.56001e-20)
(-1.2441 -0.0619091 3.62801e-20)
(-1.18354 -0.0616696 0)
(-1.12294 -0.0613138 0)
(-1.06247 -0.0608072 6.01934e-20)
(-1.00226 -0.0601604 -6.52095e-20)
(-0.942517 -0.0593735 0)
(-0.883343 -0.0584356 0)
(-0.824928 -0.0573456 -9.33608e-20)
(-0.767364 -0.0561072 3.02188e-19)
(-0.710825 -0.054738 0)
(-0.6554 -0.053255 0)
(-0.601225 -0.0516862 1.27025e-19)
(-0.548384 -0.0500445 0)
(-0.496957 -0.0483518 2.8457e-19)
(-0.446995 -0.0466488 -1.49158e-19)
(-0.398533 -0.0449282 0)
(-0.351539 -0.0432358 1.67685e-19)
(-0.306034 -0.0415793 3.4855e-19)
(-0.261932 -0.0399776 0)
(-0.219196 -0.0384657 0)
(-0.177732 -0.037036 -1.97065e-19)
(-0.137429 -0.0357175 0)
(-0.0981756 -0.0345312 4.18636e-19)
(-0.0598259 -0.0334685 0)
(-0.0221983 -0.0325342 0)
(0.0148539 -0.0317697 0)
(0.0513663 -0.0311327 0)
(0.0874056 -0.0306073 -2.31064e-19)
(0.123245 -0.0301788 -2.30073e-19)
(0.159143 -0.0298364 0)
(0.195322 -0.0295285 0)
(0.23214 -0.029158 0)
(0.270031 -0.028666 2.2291e-19)
(0.309228 -0.0281996 0)
(0.349598 -0.0278443 -4.35246e-19)
(0.391147 -0.0275446 4.29267e-19)
(0.433668 -0.0271515 4.23299e-19)
(0.477337 -0.0263114 4.17474e-19)
(0.519049 -0.0246064 4.13019e-19)
(0.566373 -0.0212362 4.10066e-19)
(0.588381 -0.00664538 0)
(-0.000159324 0.0258851 0)
(0.00074341 0.0383619 0)
(0.0135688 0.0181467 -2.37547e-18)
(0.0490409 -0.0366287 -1.43561e-18)
(0.100904 -0.104783 8.79848e-19)
(0.156376 -0.161096 6.29686e-19)
(0.205839 -0.193077 -5.38513e-22)
(0.245127 -0.20016 0)
(0.273921 -0.187868 0)
(0.293616 -0.162992 0)
(0.306079 -0.131246 0)
(0.312878 -0.0966575 0)
(0.315209 -0.061739 -1.09656e-18)
(0.313876 -0.0279314 0)
(0.309301 0.00383068 3.83862e-19)
(0.301968 0.032773 3.83126e-19)
(0.292315 0.0582408 0)
(0.280605 0.0794804 0)
(0.26692 0.0954336 0)
(0.251141 0.104703 0)
(0.233289 0.105735 4.99976e-19)
(0.213842 0.0973527 0)
(0.194264 0.0793349 -6.25185e-19)
(0.176447 0.0534088 0)
(0.162526 0.0223207 0)
(0.150878 -0.00776543 0)
(0.131884 -0.0275164 -1.60214e-18)
(0.0932476 -0.0265702 0)
(0.0375809 -0.00101625 8.36173e-19)
(-0.0362896 0.0444345 -1.47787e-18)
(-0.138892 0.10103 0)
(-0.257206 0.164968 0)
(-0.389035 0.231933 0)
(-0.532471 0.297423 1.9422e-19)
(-0.677793 0.356961 1.59119e-19)
(-0.818992 0.406198 0)
(-0.952076 0.444402 0)
(-1.07342 0.469715 -2.12369e-19)
(-1.18126 0.482041 -1.93628e-19)
(-1.27441 0.482356 1.79255e-19)
(-1.35301 0.471929 0)
(-1.41828 0.452371 0)
(-1.4724 0.425932 0)
(-1.51783 0.395292 0)
(-1.55661 0.36291 -1.35542e-19)
(-1.59045 0.330278 -1.31461e-19)
(-1.62094 0.298359 1.26695e-19)
(-1.64953 0.268312 0)
(-1.67694 0.241112 0)
(-1.70331 0.216897 0)
(-1.72898 0.195237 0)
(-1.75427 0.176153 -1.10124e-19)
(-1.77916 0.159706 0)
(-1.80357 0.145453 0)
(-1.82754 0.133102 -1.0378e-19)
(-1.851 0.122602 -1.0198e-19)
(-1.8738 0.113647 0)
(-1.89594 0.105841 1.97722e-19)
(-1.91747 0.0990477 -9.7459e-20)
(-1.93839 0.0931113 9.6111e-20)
(-1.95872 0.0878835 0)
(-1.97847 0.083248 0)
(-1.99766 0.0791043 0)
(-2.01631 0.0753691 0)
(-2.03444 0.0719735 9.01054e-20)
(-2.05206 0.0688598 1.77834e-19)
(-2.06919 0.0659803 8.79283e-20)
(-2.08584 0.0632946 -8.68702e-20)
(-2.10201 0.0607697 0)
(-2.11772 0.0583773 1.69425e-19)
(-2.13297 0.0560943 1.67394e-19)
(-2.14776 0.0539006 1.65382e-19)
(-2.1621 0.0517802 -1.63384e-19)
(-2.17598 0.0497185 0)
(-2.18941 0.0477041 -2.3921e-19)
(-2.20237 0.0457266 0)
(-2.21486 0.0437775 7.76741e-20)
(-2.22687 0.0418491 7.68306e-20)
(-2.23841 0.0399351 0)
(-2.24944 0.038029 0)
(-2.25997 0.0361261 1.4764e-19)
(-2.26999 0.0342205 0)
(-2.27948 0.0323081 1.43703e-19)
(-2.28842 0.0303838 0)
(-2.29681 0.0284449 -1.39747e-19)
(-2.30464 0.0264875 -2.75607e-19)
(-2.31188 0.0245106 0)
(-2.31852 0.0225113 0)
(-2.32453 0.0204881 0)
(-2.32991 0.0184368 -1.29743e-19)
(-2.33464 0.0163533 0)
(-2.33872 0.0142373 -1.2569e-19)
(-2.34215 0.0120903 0)
(-2.34489 0.00991697 0)
(-2.34693 0.00771992 2.39125e-19)
(-2.34824 0.00550245 0)
(-2.34877 0.00325686 1.15309e-19)
(-2.34845 0.000957484 0)
(-2.3472 -0.00141065 1.10942e-19)
(-2.34498 -0.00383491 0)
(-2.34174 -0.00631687 0)
(-2.33743 -0.00885755 0)
(-2.332 -0.011462 3.05811e-19)
(-2.3254 -0.01413 9.95626e-20)
(-2.31759 -0.0168647 0)
(-2.3085 -0.0196641 0)
(-2.2981 -0.0225293 0)
(-2.28632 -0.0254568 0)
(-2.27312 -0.0284456 -8.74747e-20)
(-2.25845 -0.0314905 1.70296e-19)
(-2.24225 -0.0345885 8.23648e-20)
(-2.22448 -0.0377329 -1.59979e-19)
(-2.20508 -0.0409183 -1.54674e-19)
(-2.18402 -0.0441367 -7.4334e-20)
(-2.16124 -0.0473801 0)
(-2.13672 -0.0506393 -1.38102e-19)
(-2.11042 -0.0539038 0)
(-2.08231 -0.0571629 1.26448e-19)
(-2.05237 -0.0604033 5.97772e-20)
(-2.02057 -0.0636124 0)
(-1.98692 -0.0667751 -1.07957e-19)
(-1.9514 -0.069878 -5.02289e-20)
(-1.91402 -0.0729059 0)
(-1.87481 -0.0758458 -4.46659e-20)
(-1.83377 -0.078683 1.21261e-19)
(-1.79095 -0.0814056 0)
(-1.74639 -0.0839968 0)
(-1.70015 -0.0864375 0)
(-1.65229 -0.0887105 0)
(-1.60289 -0.0908028 4.44892e-20)
(-1.55204 -0.0926986 3.51132e-20)
(-1.49981 -0.0943788 0)
(-1.44631 -0.0958409 0)
(-1.39158 -0.0970645 0)
(-1.33581 -0.0980508 0)
(-1.27911 -0.0988111 0)
(-1.22165 -0.0993351 0)
(-1.16356 -0.0996062 -2.29648e-20)
(-1.10501 -0.0996051 -1.98781e-21)
(-1.04606 -0.0993356 0)
(-0.986929 -0.0987846 0)
(-0.927816 -0.0979981 -5.57945e-20)
(-0.86887 -0.0969762 0)
(-0.810282 -0.0957164 7.54562e-20)
(-0.752193 -0.0942327 8.21765e-20)
(-0.694767 -0.0925116 0)
(-0.638121 -0.090567 0)
(-0.5824 -0.0884001 -1.10278e-19)
(-0.527714 -0.0860436 -2.33673e-19)
(-0.474185 -0.0835192 0)
(-0.421909 -0.0808712 0)
(-0.37097 -0.0781265 0)
(-0.321429 -0.0753236 -1.51487e-19)
(-0.27333 -0.0725048 1.59178e-19)
(-0.226672 -0.0696939 0)
(-0.181451 -0.0669263 3.44674e-19)
(-0.137624 -0.0642377 1.77943e-19)
(-0.0951393 -0.0616436 -3.72241e-19)
(-0.0539263 -0.0591908 0)
(-0.013873 -0.0568868 0)
(0.0251416 -0.0547655 -4.08455e-19)
(0.0632001 -0.0528437 -2.09293e-19)
(0.100462 -0.0511349 0)
(0.137136 -0.0496339 0)
(0.173408 -0.0483663 0)
(0.209492 -0.0473052 0)
(0.245602 -0.0464707 -4.3378e-19)
(0.281961 -0.0458573 0)
(0.318778 -0.0454612 0)
(0.356289 -0.045236 0)
(0.394783 -0.0451352 0)
(0.434584 -0.0451409 0)
(0.475919 -0.0452845 0)
(0.518885 -0.0455125 -4.25964e-19)
(0.563565 -0.0457452 0)
(0.609822 -0.0457863 0)
(0.657811 -0.0452301 -8.31899e-19)
(0.70546 -0.0434866 4.12992e-19)
(0.758152 -0.0394382 -4.12175e-19)
(0.796918 -0.0257533 4.16407e-19)
(-0.0019819 0.0265173 0)
(0.00745498 0.0113592 5.08281e-18)
(0.0487612 -0.0686568 0)
(0.111479 -0.167123 7.53937e-19)
(0.174522 -0.240548 0)
(0.223787 -0.274274 0)
(0.255693 -0.273381 -3.79689e-19)
(0.273176 -0.249603 0)
(0.280757 -0.213657 0)
(0.282226 -0.172726 0)
(0.280035 -0.130742 0)
(0.275515 -0.0895859 0)
(0.26928 -0.0501434 1.28518e-18)
(0.261646 -0.012931 6.71244e-19)
(0.252702 0.0216058 -6.81298e-19)
(0.242575 0.0529703 0)
(0.231213 0.08064 0)
(0.218663 0.103946 0)
(0.205001 0.121956 0)
(0.190184 0.133294 0)
(0.174094 0.135983 9.57621e-19)
(0.156989 0.128453 1.08381e-18)
(0.139469 0.109908 -1.24832e-18)
(0.120486 0.0816295 1.41114e-18)
(0.0923648 0.0496445 0)
(0.041613 0.0370194 0)
(-0.0279765 0.0605862 1.16065e-18)
(-0.116413 0.10857 0)
(-0.226968 0.173753 0)
(-0.35387 0.250681 4.64477e-19)
(-0.490388 0.331096 3.72502e-19)
(-0.629438 0.408023 3.08957e-19)
(-0.76574 0.476577 0)
(-0.892813 0.531582 0)
(-1.00576 0.571609 -2.04492e-19)
(-1.10325 0.596668 0)
(-1.18457 0.607291 0)
(-1.25012 0.604877 1.55932e-19)
(-1.30169 0.591238 -1.481e-19)
(-1.34152 0.568686 1.39163e-19)
(-1.37227 0.539336 0)
(-1.3967 0.505335 0)
(-1.41734 0.468815 2.34032e-19)
(-1.43615 0.431695 0)
(-1.45438 0.395444 2.13632e-19)
(-1.47282 0.360904 3.0713e-19)
(-1.49193 0.328562 -2.96099e-19)
(-1.51193 0.298857 1.91248e-19)
(-1.53275 0.272033 0)
(-1.55419 0.248032 0)
(-1.57605 0.22664 1.76051e-19)
(-1.59819 0.207673 8.58274e-20)
(-1.62041 0.190965 0)
(-1.64255 0.176277 0)
(-1.66447 0.163379 8.09413e-20)
(-1.68604 0.152092 1.59206e-19)
(-1.70719 0.142195 0)
(-1.72784 0.133458 -1.54116e-19)
(-1.74799 0.125718 1.51805e-19)
(-1.76763 0.118835 -1.49605e-19)
(-1.78676 0.112677 0)
(-1.80537 0.107135 0)
(-1.82349 0.102114 0)
(-1.8411 0.0975309 0)
(-1.85824 0.0933174 0)
(-1.8749 0.0894139 -1.38184e-19)
(-1.89109 0.0857703 0)
(-1.90684 0.082344 0)
(-1.92213 0.0790989 0)
(-1.93698 0.0760042 -2.62722e-19)
(-1.9514 0.0730339 -1.29776e-19)