/*--------------------------------*- C++ -*----------------------------------*\
  =========                 |
  \\      /  F ield         | OpenFOAM: The Open Source CFD Toolbox
   \\    /   O peration     | Website:  https://openfoam.org
    \\  /    A nd           | Version:  8
     \\/     M anipulation  |
\*---------------------------------------------------------------------------*/
FoamFile
{
    version     2.0;
    format      ascii;
    class       volVectorField;
    location    "200";
    object      wallShearStress;
}
// * * * * * * * * * * * * * * * * * * * * * * * * * * * * * * * * * * * * * //

dimensions      [0 2 -2 0 0 0 0];

internalField   uniform (0 0 0);

boundaryField
{
    inlet
    {
        type            calculated;
        value           uniform (0 0 0);
    }
    outlet
    {
        type            calculated;
        value           uniform (0 0 0);
    }
    upperWall
    {
        type            calculated;
        value           nonuniform List<vector> 
223
(
(-0.440952 -0.0481233 0)
(-0.492059 -0.0456597 0)
(-0.535035 -0.03479 0)
(-0.541847 -0.0224745 0)
(-0.538194 -0.0135785 0)
(-0.528462 -0.00785753 0)
(-0.51788 -0.00426534 0)
(-0.507036 -0.00203436 0)
(-0.496279 -0.000667378 0)
(-0.486242 0.000165201 0)
(-0.477065 0.000662803 0)
(-0.468745 0.000950566 0)
(-0.461242 0.00110661 0)
(-0.454478 0.00118113 0)
(-0.448381 0.00120577 0)
(-0.442873 0.00120439 0)
(-0.437864 0.00118972 0)
(-0.433318 0.00121383 0)
(-0.429637 0.00128711 0)
(-0.426679 0.00132854 6.68249e-22)
(-0.423782 0.00133295 0)
(-0.420947 0.00131371 0)
(-0.418176 0.00127785 0)
(-0.415472 0.00123204 6.79062e-22)
(-0.41284 0.00118027 0)
(-0.410282 0.00112554 0)
(-0.407799 0.00107 0)
(-0.405388 0.00101522 -1.37819e-21)
(-0.403049 0.000961699 1.38324e-21)
(-0.400781 0.000910317 1.38832e-21)
(-0.398581 0.000861359 0)
(-0.396447 0.000815176 -1.39861e-21)
(-0.394377 0.000771777 0)
(-0.392368 0.000731234 1.40907e-21)
(-0.390418 0.000693547 1.41438e-21)
(-0.388523 0.000658635 -1.41972e-21)
(-0.386683 0.000626334 0)
(-0.384893 0.000596673 0)
(-0.383151 0.000569426 0)
(-0.381455 0.000544482 0)
(-0.379802 0.000521777 -1.44709e-21)
(-0.378189 0.000501127 0)
(-0.376615 0.000482353 0)
(-0.375077 0.000465279 1.46396e-21)
(-0.373573 0.000449965 0)
(-0.372101 0.000436189 1.47533e-21)
(-0.370659 0.000423787 -1.48105e-21)
(-0.369244 0.000412717 1.48678e-21)
(-0.367856 0.000402881 0)
(-0.366492 0.000394159 0)
(-0.365151 0.000386453 0)
(-0.36383 0.000379752 1.50975e-21)
(-0.362529 0.000373923 -1.51547e-21)
(-0.361246 0.000368913 0)
(-0.359978 0.000364603 0)
(-0.358726 0.000360998 0)
(-0.357487 0.000358091 0)
(-0.35626 0.00035579 0)
(-0.355043 0.000353936 0)
(-0.353837 0.000352648 0)
(-0.352637 0.000351826 0)
(-0.351446 0.000351393 1.56507e-21)
(-0.350258 0.000351353 -1.57022e-21)
(-0.349076 0.000351633 0)
(-0.347896 0.000352246 0)
(-0.34672 0.000353124 0)
(-0.345543 0.00035428 -1.58965e-21)
(-0.344368 0.000355695 0)
(-0.34319 0.000357257 0)
(-0.342011 0.000359087 0)
(-0.340828 0.000361095 0)
(-0.339642 0.000363248 0)
(-0.338448 0.000365643 -3.22804e-21)
(-0.337251 0.000368184 0)
(-0.336042 0.000370997 0)
(-0.334829 0.000373963 0)
(-0.333601 0.000377244 0)
(-0.332368 0.000380666 0)
(-0.331116 0.000384545 0)
(-0.329853 0.000388664 0)
(-0.328581 0.000393657 3.26472e-21)
(-0.327262 0.000402553 0)
(-0.325983 0.00040093 0)
(-0.324592 0.000392947 0)
(-0.323262 0.000417773 -3.26307e-21)
(-0.321845 0.000449689 0)
(-0.320106 0.000441153 -3.25267e-21)
(-0.318603 0.000361344 0)
(-0.317561 0.000147838 0)
(-0.468737 0.00387233 0)
(-0.427196 0.00671047 -4.29175e-21)
(-0.374065 0.00951227 0)
(-0.40251 0.0147511 3.91893e-21)
(-0.371363 0.00930153 3.55967e-21)
(-0.359095 0.00702901 0)
(-0.358061 0.00262422 3.41902e-21)
(-0.379004 -0.00588923 0)
(-0.367147 -0.00519305 0)
(-0.356224 -0.00391337 0)
(-0.34581 -0.00484185 -3.80039e-21)
(-0.327903 -0.00518889 0)
(-0.315365 -0.00433808 -3.62292e-21)
(-0.307048 -0.00293506 3.59143e-21)
(-0.300656 -0.00173255 0)
(-0.298949 -0.00144875 0)
(-0.331838 -0.00197925 0)
(-0.4439 -0.0022555 0)
(-0.454253 -0.000682549 0)
(-0.394774 -0.000232123 0)
(-0.394156 -0.00136151 0)
(-0.419285 0.00385027 -5.24741e-21)
(-0.377824 0.00862049 0)
(-0.319871 0.00328954 0)
(-0.316439 -0.00144766 0)
(-0.299366 -0.00132314 0)
(-0.285975 5.01701e-05 0)
(-0.284234 -9.48151e-05 0)
(-0.362039 -0.000867745 0)
(-0.321027 -0.00102608 0)
(-0.354435 0.00195623 0)
(-0.318682 0.00672924 0)
(-0.299416 0.0065399 0)
(-0.276086 0.00162662 0)
(-0.274324 -0.0020924 -6.19907e-21)
(-0.368235 0.000154879 0)
(-0.313842 0.000348112 0)
(-0.269298 -0.00187204 0)
(-0.332429 0.00234162 7.4658e-21)
(-0.287365 0.00215923 0)
(-0.263545 -0.00155222 0)
(-0.330936 0.00147139 7.09849e-21)
(-0.281857 0.00338526 0)
(-0.258903 0.00302951 -5.08298e-21)
(-0.257141 0.00250497 0)
(-0.25512 -0.000841448 0)
(-0.252658 -0.00287238 0)
(-0.268532 -0.00260173 5.00174e-21)
(-0.275067 -0.0021683 0)
(-0.281337 -0.0014911 -4.87266e-21)
(-0.283423 -0.00119685 0)
(-0.265788 0.00148751 0)
(-0.237966 0.0016218 0)
(-0.267503 0.00191328 0)
(-0.235766 0.00146542 0)
(-0.264525 0.00137573 0)
(-0.233011 0.00115445 0)
(-0.257484 0.00103636 0)
(-0.229196 0.00233746 0)
(-0.227227 -0.000227075 0)
(-0.241012 -0.00169 0)
(-0.232089 0.000460225 -5.27504e-22)
(-0.220098 0.00074235 1.09546e-22)
(-0.220619 0.000653581 0)
(-0.264542 0.00172961 0)
(-0.268899 0.000655769 0)
(-0.267646 0.000168014 0)
(-0.250429 -0.000364885 -2.43395e-21)
(-0.239362 -0.000805652 2.90276e-21)
(-0.215289 0.00172688 -3.15709e-21)
(-0.20121 0.00116814 0)
(-0.198928 -0.00139603 -4.08441e-21)
(-0.196227 0.000813395 -9.33257e-21)
(-0.207251 0.000801308 0)
(-0.211341 -0.00111167 -1.20545e-20)
(-0.191451 0.00165541 1.2455e-20)
(-0.192937 0.00275812 0)
(-0.196534 -0.000415531 0)
(-0.193304 -0.00207066 0)
(-0.187236 -0.00151536 0)
(-0.184949 -0.000638322 0)
(-0.181586 0.00254842 -1.93659e-20)
(-0.184191 0.00301277 0)
(-0.182955 0.000225588 -2.02857e-20)
(-0.181652 0.00176328 0)
(-0.184147 0.000746862 0)
(-0.180605 -0.000574767 0)
(-0.180255 0.00122143 0)
(-0.179176 0.00125376 0)
(-0.186482 0.00154974 2.69334e-20)
(-0.185676 0.0013857 0)
(-0.182216 0.00108414 0)
(-0.175528 0.000791097 -2.97244e-20)
(-0.172089 0.000348213 0)
(-0.165915 -0.000339386 0)
(-0.15541 -0.000642673 0)
(-0.142889 -0.000306028 4.49147e-20)
(-0.130481 0.000207081 0)
(-0.120745 0.00041465 0)
(-0.113315 0.000566324 0)
(-0.10785 0.000583067 0)
(-0.102881 0.000706342 -6.77309e-20)
(-0.0981044 0.000789109 0)
(-0.0925019 0.000968228 0)
(-0.0861906 0.0010644 0)
(-0.079306 0.00126524 9.29904e-20)
(-0.0695875 0.00141804 0)
(-0.0635364 0.00195544 0)
(-0.0345984 0.00147398 -1.38791e-19)
(-0.0649096 0.000506283 0)
(-0.0976401 0.00529139 1.18528e-17)
(-0.119466 0.00950342 2.13592e-17)
(-0.131558 0.0118945 2.0029e-17)
(-0.138044 0.0133884 1.93041e-17)
(-0.142281 0.0141881 1.8769e-17)
(-0.144621 0.0146934 -1.83083e-17)
(-0.146115 0.014939 -1.79945e-17)
(-0.14751 0.0151172 -6.01853e-36)
(-0.148391 0.0152745 -3.47775e-17)
(-0.150247 0.0153942 -1.70933e-17)
(-0.15147 0.0155844 7.40279e-34)
(-0.154786 0.0157461 -2.40741e-35)
(-0.156876 0.0160869 -3.17688e-17)
(-0.16179 0.0163555 -3.08376e-17)
(-0.165044 0.0168496 -2.94181e-17)
(-0.171933 0.0172367 2.40741e-35)
(-0.177239 0.0179348 5.23047e-17)
(-0.186414 0.0185365 2.43076e-17)
(-0.194075 0.0194392 1.20371e-35)
(-0.206242 0.0203423 -3.83138e-17)
(-0.215655 0.021386 -1.47443e-20)
(-0.2348 0.0228764 -3.00927e-36)
(-0.239495 0.023801 1.3932e-17)
(-0.276709 0.0261801 -8.53921e-18)
)
;
    }
    lowerWall
    {
        type            calculated;
        value           nonuniform List<vector> 
250
(
(-0.970118 0.104062 0)
(-0.759077 0.0680602 0)
(-0.69977 0.0472232 0)
(-0.639872 0.0272979 0)
(-0.592414 0.0163937 0)
(-0.559901 0.00889406 0)
(-0.528245 0.00435158 0)
(-0.513716 0.00269182 0)
(-0.624629 0.00199178 0)
(-0.782721 -0.00113028 0)
(-0.663057 -0.0005211 0)
(-0.582672 -0.000338097 0)
(-0.528535 -0.00189373 0)
(-0.50832 -0.000779046 0)
(-0.468487 0.000409818 0)
(-0.549151 0.00180932 0)
(-0.671805 -0.0048562 0)
(-0.589035 -0.00402181 0)
(0.00271644 -0.00872555 0)
(0.00282664 -0.0124341 0)
(0.00294998 -0.0160177 0)
(0.00305555 -0.019458 8.19864e-20)
(0.00317173 -0.0225283 -7.30795e-20)
(0.00374147 -0.0253775 6.60944e-20)
(0.00506538 -0.0257672 -6.02052e-20)
(0.0100523 -0.0474928 0)
(-0.0818044 -0.163211 0)
(0.000243303 -0.000300339 0)
(6.57359e-05 -0.000847753 0)
(2.11584e-05 -0.000972334 0)
(6.73254e-05 -0.000998778 0)
(-7.75334e-05 -0.000588658 1.84031e-19)
(-0.000579114 0.000756651 -1.48423e-19)
(-0.00135501 0.00373078 0)
(-0.00183594 0.00774568 -1.50459e-19)
(-0.00170012 0.0114809 1.23556e-19)
(-0.00113278 0.0140547 0)
(-0.000448509 0.0151631 0)
(0.000150498 0.014851 0)
(0.000631815 0.0134913 0)
(0.00107883 0.0112592 0)
(0.00151503 0.00823749 0)
(0.00195274 0.00455105 0)
(0.00236501 0.000342918 0)
(0.00261119 -0.00434863 0)
(-0.000149418 -0.000301628 0)
(0.000196898 -0.000464996 0)
(0.000524816 -0.000480717 0)
(0.000826805 -0.000340995 0)
(0.000983621 -3.01186e-05 -0)
(0.000860142 0.000375703 -0)
(0.000474907 0.000784131 2.06938e-20)
(-0.000123969 0.0010869 -1.9431e-20)
(-0.00082345 0.00121965 -0)
(-0.00153415 0.00119192 -1.06448e-20)
(-0.00218194 0.00103188 -0)
(-0.00271298 0.000780653 0)
(-0.00309589 0.000475364 -0)
(-0.00331831 0.000146195 7.09747e-21)
(-0.00337512 -0.000189505 0)
(-0.00325491 -0.000498601 0)
(-0.00297811 -0.000744261 -7.52811e-21)
(-0.00257622 -0.000897565 -0)
(-0.00209099 -0.00093717 0)
(-0.00157706 -0.000855561 -0)
(-0.00109628 -0.000667601 1.28264e-20)
(-0.000704279 -0.000412101 0)
(-0.000434315 -0.000138826 1.89637e-20)
(-0.000295161 0.0001195 0)
(-0.000292386 0.000348478 0)
(-0.000424275 0.000532964 2.04095e-20)
(-0.000668525 0.000689759 0)
(-0.00103024 0.000799512 -1.40489e-20)
(-0.00144288 0.000801099 0)
(-0.00180119 0.000695598 1.07173e-20)
(-0.00204199 0.000550491 0)
(-0.00214521 0.000450678 0)
(-0.00217134 0.000476536 0)
(-0.00218353 0.000563134 0)
(-0.00215472 0.000520764 0)
(-0.00187985 0.000117486 -1.02187e-20)
(-0.00113084 -0.000619034 0)
(0.000314424 -0.0011759 1.93512e-20)
(0.00194191 -0.00176157 0)
(0.00379072 -0.002518 -7.21404e-21)
(0.00596871 -0.00321636 0)
(0.00836489 -0.00369671 -0)
(0.0108271 -0.00394521 3.77203e-21)
(0.0132477 -0.00406456 0)
(0.0156301 -0.00419831 2.92526e-21)
(0.0184213 -0.00428897 -2.73672e-21)
(0.020322 -0.00392904 -0)
(0.0223731 -0.0035401 -2.36691e-21)
(0.0241974 -0.00328171 -2.23113e-21)
(0.0260443 -0.00312382 -0)
(0.0276432 -0.00272835 0)
(0.029061 -0.00232414 0)
(0.0306427 -0.00211602 0)
(0.0315432 -0.00184829 -0)
(0.0333081 -0.00163438 1.89181e-21)
(0.0348552 -0.00152037 0)
(0.0361798 -0.00143274 -1.859e-21)
(0.0375137 -0.00132051 -0)
(0.0387697 -0.0012266 -0)
(0.0399355 -0.0011453 1.82432e-21)
(0.0410943 -0.00107496 0)
(0.0421864 -0.00101408 -1.80726e-21)
(0.0432619 -0.000961294 -0)
(0.0442974 -0.000914968 0)
(0.045314 -0.000874211 -0)
(0.046304 -0.000838027 1.77987e-21)
(0.0472766 -0.000805698 0)
(0.0482305 -0.000776419 -0)
(0.0491686 -0.000749754 1.76178e-21)
(0.0500923 -0.000725221 0)
(0.0510023 -0.000702388 1.74986e-21)
(0.0518998 -0.000680951 0)
(0.0527852 -0.000660606 0)
(0.0536589 -0.000641129 0)
(0.054521 -0.000622401 -1.72485e-21)
(0.0553719 -0.000604164 -0)
(0.056211 -0.000586296 0)
(0.0570386 -0.000568731 -1.70416e-21)
(0.057854 -0.000551324 -1.69677e-21)
(0.0586573 -0.000533967 -0)
(0.0594475 -0.000516554 -1.68116e-21)
(0.0602245 -0.000498864 0)
(0.0609867 -0.000480894 -3.32867e-21)
(0.0617346 -0.000462376 -0)
(0.0624659 -0.000443132 -3.29237e-21)
(0.0631809 -0.000422893 -0)
(0.0638771 -0.000401421 3.25323e-21)
(0.0645546 -0.000378178 0)
(0.0652101 -0.000352875 0)
(0.0658433 -0.000325466 0)
(0.0664525 -0.000295695 -3.16532e-21)
(0.0670355 -0.00026388 -0)
(0.0675906 -0.000230612 3.11634e-21)
(0.0681154 -0.000196312 0)
(0.0686075 -0.000161217 -3.06459e-21)
(0.0690645 -0.000125594 -3.03789e-21)
(0.0694854 -9.06149e-05 -3.0107e-21)
(0.0698713 -5.93905e-05 -0)
(0.0702242 -3.16161e-05 0)
(0.0705445 -4.02406e-06 0)
(0.0708301 2.39145e-05 0)
(0.0710805 5.28191e-05 0)
(0.0712933 8.26597e-05 -0)
(0.0714672 0.000113796 -0)
(0.0715993 0.00014599 0)
(0.0716886 0.000179508 2.70444e-21)
(0.071732 0.000214148 2.66238e-21)
(0.0717285 0.000250149 0)
(0.0716752 0.000287319 0)
(0.0715704 0.000325902 0)
(0.0714117 0.000365522 2.47261e-21)
(0.0711979 0.000406554 0)
(0.0709258 0.00044858 0)
(0.0705952 0.000491808 0)
(0.0702032 0.000536016 0)
(0.069749 0.000581335 -2.17484e-21)
(0.0692306 0.000627441 0)
(0.0686471 0.000674406 0)
(0.0679976 0.000721912 1.9547e-21)
(0.0672815 0.000769992 -1.87313e-21)
(0.0664985 0.000818317 0)
(0.0656489 0.000866607 -1.69636e-21)
(0.0647347 0.000914647 0)
(0.0637566 0.000962457 1.4999e-21)
(0.0627144 0.00100936 0)
(0.0616014 0.00105549 0)
(0.0604195 0.00110016 0)
(0.0591875 0.00114417 0)
(0.0578352 0.00118681 0)
(0.0565125 0.00123012 -1.5442e-21)
(0.0550538 0.00127083 -1.25596e-21)
(0.0536186 0.00131029 0)
(0.0520143 0.00133902 0)
(0.0504502 0.0013679 0)
(0.0488259 0.00139604 -3.53458e-23)
(0.0472132 0.00142413 0)
(0.0454391 0.00144402 0)
(0.0438031 0.00146507 0)
(0.0419751 0.00147754 -1.56243e-21)
(0.0402844 0.00148756 1.98751e-21)
(0.0384243 0.00149426 0)
(0.0366916 0.00149674 0)
(0.0349179 0.00149421 3.34059e-21)
(0.0331684 0.00148813 3.8234e-21)
(0.0314242 0.00147686 0)
(0.0297027 0.0014611 0)
(0.0279999 0.00143982 -5.36169e-21)
(0.0263291 0.00141434 5.90223e-21)
(0.0246883 0.00138369 0)
(0.0230873 0.00134945 0)
(0.0215245 0.00131116 7.60387e-21)
(0.0200054 0.00126998 0)
(0.0185368 0.0012268 0)
(0.0171193 0.00118204 9.41044e-21)
(0.0157532 0.00113547 0)
(0.0144414 0.00108917 1.06726e-20)
(0.0131785 0.00104198 0)
(0.0119685 0.000996083 0)
(0.0108048 0.000950982 0)
(0.00968605 0.000906791 -1.3341e-20)
(0.00861152 0.000865538 0)
(0.00757008 0.000826214 0)
(0.00656583 0.000788829 0)
(0.0055896 0.000755474 0)
(0.00463658 0.00072543 0)
(0.00370146 0.000699957 0)
(0.00277596 0.000679048 -1.87579e-20)
(0.00185651 0.000661476 -1.96808e-20)
(0.000940741 0.000647367 0)
(2.50109e-05 0.000637152 0)
(-0.000900043 0.000621028 0)
(-0.00179036 0.000586511 2.28419e-20)
(-0.00265349 0.00054881 0)
(-0.00352049 0.000516791 -4.25251e-20)
(-0.00438807 0.000484563 4.11517e-20)
(-0.00525161 0.000452548 3.99085e-20)
(-0.00612498 0.000406716 -3.88072e-20)
(-0.00687271 0.000356861 3.78898e-20)
(-0.00788083 0.000240684 -3.71789e-20)
(-0.00749823 -0.000171235 0)
(-0.00934067 0.00053286 -2.29534e-18)
(-0.0126288 0.00030405 -2.10795e-18)
(-0.0159516 -3.33687e-05 0)
(-0.0193795 -0.000373114 -3.64438e-18)
(-0.0231698 -0.000758327 -6.82159e-18)
(-0.0273648 -0.00115495 -3.20815e-18)
(-0.0319614 -0.00156699 3.02471e-18)
(-0.0370069 -0.00202058 0)
(-0.0423415 -0.00251804 6.01853e-36)
(-0.0481795 -0.0030666 2.58022e-18)
(-0.0545775 -0.00366968 2.45682e-18)
(-0.0614439 -0.00433076 3.00927e-36)
(-0.0686539 -0.0050383 0)
(-0.0762557 -0.00579954 0)
(-0.0842501 -0.00661241 -3.61582e-35)
(-0.0926869 -0.00748395 -8.29899e-36)
(-0.101666 -0.00841492 5.11575e-35)
(-0.111049 -0.00940655 -3.384e-18)
(-0.121501 -0.010479 -3.1383e-18)
(-0.131849 -0.011614 6.01853e-36)
(-0.144823 -0.0128508 5.11266e-18)
(-0.156201 -0.0142501 8.71542e-18)
(-0.174777 -0.01563 -6.01853e-36)
(-0.183242 -0.0174665 -4.38927e-18)
(-0.218683 -0.0186295 -1.80556e-35)
)
;
    }
    frontAndBack
    {
        type            empty;
    }
}


// ************************************************************************* //
