/*--------------------------------*- C++ -*----------------------------------*\
  =========                 |
  \\      /  F ield         | OpenFOAM: The Open Source CFD Toolbox
   \\    /   O peration     | Website:  https://openfoam.org
    \\  /    A nd           | Version:  8
     \\/     M anipulation  |
\*---------------------------------------------------------------------------*/
FoamFile
{
    version     2.0;
    format      ascii;
    class       volVectorField;
    location    "1000";
    object      U;
}
// * * * * * * * * * * * * * * * * * * * * * * * * * * * * * * * * * * * * * //

dimensions      [0 1 -1 0 0 0 0];

internalField   nonuniform List<vector> 
12225
(
(9.75891 -0.870951 0)
(9.58637 -0.92965 0)
(9.1215 -0.588085 0)
(8.80542 -0.362379 0)
(8.53801 -0.234022 0)
(8.30629 -0.160654 0)
(8.10711 -0.123977 0)
(7.93657 -0.0911183 0)
(7.79337 -0.0254454 0)
(7.68332 -0.015753 0)
(7.56777 -0.0373392 0)
(7.48554 -0.0294641 0)
(7.40288 -0.0236085 0)
(7.35377 -0.0352683 0)
(7.29336 0.0464529 0)
(7.26837 0.0742692 0)
(7.2043 -0.00795946 0)
(7.1815 -0.0231621 0)
(10.0663 0.172916 0)
(10.0728 0.420532 0)
(10.1834 0.341543 0)
(10.1455 0.259166 0)
(10.0864 0.201958 0)
(10.022 0.161643 0)
(9.95816 0.127504 0)
(9.88948 0.0943096 0)
(9.80835 0.0674788 0)
(9.69886 0.0598751 0)
(9.62144 0.0580455 0)
(9.53192 0.0532172 0)
(9.46161 0.0498581 0)
(9.37742 0.0473509 0)
(9.32193 0.0262452 0)
(9.21614 0.0228334 0)
(9.15845 0.0373293 0)
(9.12052 0.044453 0)
(10.0425 0.0503102 0)
(9.95069 0.104508 0)
(10.0477 0.0593619 0)
(10.0796 0.0411467 0)
(10.0972 0.0403101 0)
(10.1087 0.0447093 0)
(10.1141 0.0528906 0)
(10.112 0.061958 0)
(10.1038 0.06689 0)
(10.0919 0.0660396 0)
(10.0754 0.0642964 0)
(10.0534 0.0619516 0)
(10.0306 0.0585193 0)
(10.0015 0.0527281 0)
(9.97466 0.0524517 0)
(9.95107 0.0503598 0)
(9.92453 0.0424359 0)
(9.89817 0.0458431 0)
(10.02 0.0571385 0)
(10.0194 0.0450515 0)
(10.0516 0.0589892 0)
(10.0689 0.0682148 0)
(10.0823 0.0740603 0)
(10.0937 0.0746242 0)
(10.1028 0.0730823 0)
(10.1098 0.0720987 0)
(10.1163 0.0726898 0)
(10.1221 0.0709709 0)
(10.1256 0.0681139 0)
(10.1268 0.0650748 0)
(10.1264 0.061776 0)
(10.1236 0.0584081 0)
(10.1208 0.0590968 0)
(10.1201 0.0582393 0)
(10.1162 0.0522586 0)
(10.1105 0.0506881 0)
(10.0075 0.0201035 0)
(10.0402 0.0456234 0)
(10.05 0.0625482 0)
(10.0619 0.066039 0)
(10.0715 0.0661003 0)
(10.0806 0.0646182 0)
(10.0891 0.0631286 0)
(10.097 0.0627136 0)
(10.1051 0.0634003 0)
(10.1131 0.0627286 0)
(10.1199 0.061289 0)
(10.1256 0.0597883 0)
(10.1304 0.0582409 0)
(10.1342 0.0567235 0)
(10.1381 0.0568491 0)
(10.1427 0.0556932 0)
(10.1455 0.0519426 0)
(10.1474 0.0500402 0)
(10.0033 0.021323 0)
(10.0351 0.0443855 0)
(10.0433 0.0567464 0)
(10.0545 0.0586089 0)
(10.0636 0.059156 0)
(10.072 0.059315 0)
(10.0801 0.0593987 0)
(10.0879 0.0598442 0)
(10.0958 0.0603998 0)
(10.1035 0.0599057 0)
(10.1106 0.0588191 0)
(10.117 0.0575106 0)
(10.1229 0.0561669 0)
(10.1282 0.0548488 0)
(10.1335 0.0541232 0)
(10.139 0.0526255 0)
(10.1436 0.0500305 0)
(10.1477 0.0478942 0)
(10.0015 0.0173606 0)
(10.0254 0.0407561 0)
(10.0355 0.0512467 0)
(10.047 0.053836 0)
(10.0564 0.0551894 0)
(10.0646 0.0559653 0)
(10.0725 0.0563497 0)
(10.0802 0.0566916 0)
(10.0878 0.0568304 0)
(10.0951 0.0563136 0)
(10.1021 0.0553758 0)
(10.1086 0.054188 0)
(10.1146 0.0529074 0)
(10.1203 0.0516341 0)
(10.1259 0.0505113 0)
(10.1313 0.0489216 0)
(10.1363 0.0468236 0)
(10.141 0.0446274 0)
(10.0009 0.0137264 0)
(10.017 0.0367786 0)
(10.0282 0.0476582 0)
(10.04 0.0510489 0)
(10.0496 0.0526125 0)
(10.058 0.0534604 0)
(10.0662 0.0538424 0)
(10.0741 0.0539924 0)
(10.0817 0.0538173 0)
(10.0889 0.0532096 0)
(10.0958 0.0522697 0)
(10.1022 0.0511058 0)
(10.1082 0.0498203 0)
(10.1139 0.0485082 0)
(10.1193 0.0471731 0)
(10.1246 0.0455767 0)
(10.1295 0.0437102 0)
(10.1342 0.0415937 0)
(10.0005 0.0110307 0)
(10.0134 0.0330298 0)
(10.0241 0.0437104 0)
(10.0353 0.0473634 0)
(10.0448 0.0491142 0)
(10.0532 0.050135 0)
(10.0612 0.0506618 0)
(10.069 0.0508467 0)
(10.0764 0.0506837 0)
(10.0835 0.0501436 0)
(10.0902 0.0492941 0)
(10.0965 0.0482145 0)
(10.1025 0.0469924 0)
(10.1081 0.0456921 0)
(10.1135 0.0443162 0)
(10.1186 0.0427267 0)
(10.1234 0.0409459 0)
(10.128 0.0388785 0)
(10.0003 0.00872439 0)
(10.0104 0.0289642 0)
(10.0204 0.0394031 0)
(10.031 0.0433319 0)
(10.0403 0.0453543 0)
(10.0485 0.0465899 0)
(10.0564 0.0472534 0)
(10.0639 0.0474609 0)
(10.0711 0.047292 0)
(10.0779 0.0467741 0)
(10.0845 0.0459717 0)
(10.0907 0.0449359 0)
(10.0965 0.0437491 0)
(10.1021 0.042467 0)
(10.1073 0.0410622 0)
(10.1123 0.0395132 0)
(10.117 0.0378039 0)
(10.1214 0.0358326 0)
(10.0001 0.00684246 0)
(10.0078 0.0246985 0)
(10.0169 0.0347497 0)
(10.0268 0.0389211 0)
(10.0357 0.0411858 0)
(10.0437 0.0425903 0)
(10.0513 0.0433593 0)
(10.0586 0.0435986 0)
(10.0656 0.0434348 0)
(10.0722 0.0429427 0)
(10.0786 0.0421713 0)
(10.0846 0.0411811 0)
(10.0903 0.0400405 0)
(10.0957 0.0387763 0)
(10.1008 0.0373936 0)
(10.1057 0.0358987 0)
(10.1102 0.0342834 0)
(10.1145 0.0323944 0)
(10.0001 0.00531343 0)
(10.0058 0.0205031 0)
(10.0138 0.0299278 0)
(10.0228 0.0341671 0)
(10.0312 0.0365561 0)
(10.0389 0.0380558 0)
(10.0462 0.0388651 0)
(10.0532 0.0391431 0)
(10.06 0.0390041 0)
(10.0664 0.0385419 0)
(10.0725 0.0378216 0)
(10.0783 0.0368892 0)
(10.0839 0.0358135 0)
(10.0892 0.034585 0)
(10.0941 0.0332753 0)
(10.0988 0.0318395 0)
(10.1031 0.0303266 0)
(10.1072 0.0285611 0)
(10 0.00409043 0)
(10.0043 0.0165201 0)
(10.0111 0.024986 0)
(10.0191 0.029081 0)
(10.0268 0.0314904 0)
(10.0341 0.032971 0)
(10.0411 0.0337804 0)
(10.0479 0.0340696 0)
(10.0543 0.0339518 0)
(10.0605 0.0335287 0)
(10.0664 0.0328589 0)
(10.0721 0.0320069 0)
(10.0775 0.0309877 0)
(10.0825 0.0298585 0)
(10.0873 0.0286018 0)
(10.0918 0.0272891 0)
(10.096 0.0258692 0)
(10.0999 0.0242736 0)
(10 0.00306672 0)
(10.0033 0.0128074 0)
(10.0089 0.0200387 0)
(10.0159 0.0237606 0)
(10.0229 0.026 0)
(10.0297 0.0273655 0)
(10.0363 0.028115 0)
(10.0427 0.0283719 0)
(10.0489 0.0282628 0)
(10.0549 0.0278715 0)
(10.0606 0.0272559 0)
(10.066 0.0264761 0)
(10.0712 0.0255422 0)
(10.0761 0.0244966 0)
(10.0807 0.0233507 0)
(10.085 0.0221524 0)
(10.089 0.0208759 0)
(10.0927 0.019455 0)
(10.0001 0.00215983 0)
(10.0026 0.00934328 0)
(10.0073 0.0151617 0)
(10.0132 0.0182493 0)
(10.0195 0.0201308 0)
(10.0258 0.0212841 0)
(10.032 0.0218802 0)
(10.038 0.0220707 0)
(10.044 0.0219427 0)
(10.0497 0.0215592 0)
(10.0552 0.0209974 0)
(10.0604 0.0202697 0)
(10.0654 0.0194321 0)
(10.0701 0.0184753 0)
(10.0745 0.017467 0)
(10.0787 0.016392 0)
(10.0825 0.0152903 0)
(10.0861 0.014061 0)
(10.0001 0.00129391 0)
(10.0021 0.00604273 0)
(10.006 0.0103401 0)
(10.0111 0.0125681 0)
(10.0167 0.0139319 0)
(10.0225 0.0147204 0)
(10.0283 0.015102 0)
(10.0341 0.0151566 0)
(10.0397 0.0149589 0)
(10.0452 0.0145624 0)
(10.0505 0.0140155 0)
(10.0555 0.0133481 0)
(10.0603 0.0125845 0)
(10.0649 0.0117476 0)
(10.0691 0.0108623 0)
(10.0732 0.00994757 0)
(10.0769 0.00900751 0)
(10.0804 0.00799771 0)
(10.0001 0.000424583 0)
(10.0018 0.00285537 0)
(10.0051 0.0055083 0)
(10.0096 0.00672558 0)
(10.0147 0.00735254 0)
(10.0201 0.00767035 0)
(10.0255 0.00770485 0)
(10.031 0.00754524 0)
(10.0365 0.00721058 0)
(10.0418 0.00675675 0)
(10.0469 0.00620143 0)
(10.0517 0.00557384 0)
(10.0564 0.00488841 0)
(10.0608 0.00416301 0)
(10.065 0.00341555 0)
(10.0689 0.00265702 0)
(10.0725 0.00189198 0)
(10.076 0.00108806 0)
(10.0001 -0.000417508 0)
(10.0016 -0.000150368 0)
(10.0047 0.000854559 0)
(10.0089 0.000909139 0)
(10.0137 0.000735086 0)
(10.0189 0.000442722 0)
(10.0242 6.94191e-05 0)
(10.0295 -0.000389784 0)
(10.0348 -0.00089391 0)
(10.04 -0.00144577 0)
(10.045 -0.00202398 0)
(10.0498 -0.0026244 0)
(10.0544 -0.00324021 0)
(10.0587 -0.00385806 0)
(10.0628 -0.00447874 0)
(10.0667 -0.00508441 0)
(10.0703 -0.00569065 0)
(10.0737 -0.00630465 0)
(10.0002 -0.0012104 0)
(10.0017 -0.00279821 0)
(10.0047 -0.00336636 0)
(10.0089 -0.00443749 0)
(10.0138 -0.00543584 0)
(10.0189 -0.00632259 0)
(10.0243 -0.0071256 0)
(10.0296 -0.00786431 0)
(10.035 -0.00854814 0)
(10.0401 -0.00918382 0)
(10.0452 -0.00978542 0)
(10.0499 -0.0103554 0)
(10.0545 -0.0109035 0)
(10.0588 -0.0114254 0)
(10.0629 -0.0119274 0)
(10.0668 -0.0124037 0)
(10.0704 -0.0128666 0)
(10.0738 -0.0133271 0)
(10.0002 -0.00197378 0)
(10.0019 -0.00523314 0)
(10.0051 -0.00722865 0)
(10.0096 -0.00932134 0)
(10.0147 -0.0110727 0)
(10.02 -0.0124849 0)
(10.0256 -0.0136738 0)
(10.0311 -0.0146461 0)
(10.0365 -0.0154653 0)
(10.0418 -0.0161498 0)
(10.0469 -0.0167508 0)
(10.0517 -0.0172762 0)
(10.0563 -0.0177494 0)
(10.0607 -0.018179 0)
(10.0648 -0.0185698 0)
(10.0687 -0.0189325 0)
(10.0723 -0.0192673 0)
(10.0757 -0.0195977 0)
(10.0002 -0.00275163 0)
(10.0022 -0.00765843 0)
(10.0058 -0.0109399 0)
(10.0107 -0.0139848 0)
(10.0162 -0.0163701 0)
(10.0219 -0.0182583 0)
(10.0277 -0.0197543 0)
(10.0335 -0.0209303 0)
(10.0392 -0.0218228 0)
(10.0446 -0.0225266 0)
(10.0498 -0.0230829 0)
(10.0547 -0.0235419 0)
(10.0594 -0.0239243 0)
(10.0638 -0.0242508 0)
(10.068 -0.0245364 0)
(10.0719 -0.0247821 0)
(10.0755 -0.02501 0)
(10.079 -0.0252181 0)
(10.0003 -0.00351596 0)
(10.0026 -0.0101919 0)
(10.0067 -0.0146995 0)
(10.0122 -0.0185955 0)
(10.0183 -0.0215061 0)
(10.0244 -0.0237504 0)
(10.0306 -0.0254962 0)
(10.0367 -0.0267856 0)
(10.0427 -0.0277176 0)
(10.0483 -0.0283979 0)
(10.0536 -0.0288932 0)
(10.0587 -0.0292629 0)
(10.0634 -0.0295368 0)
(10.0679 -0.0297499 0)
(10.0721 -0.0299147 0)
(10.076 -0.0300497 0)
(10.0797 -0.0301606 0)
(10.0832 -0.0302631 0)
(10.0003 -0.00428605 0)
(10.0028 -0.0128829 0)
(10.0077 -0.0184965 0)
(10.0141 -0.0231308 0)
(10.0208 -0.0265438 0)
(10.0274 -0.0291316 0)
(10.0341 -0.0310231 0)
(10.0406 -0.0323208 0)
(10.0468 -0.0331995 0)
(10.0526 -0.0337955 0)
(10.0582 -0.0342008 0)
(10.0633 -0.0344607 0)
(10.0682 -0.0346298 0)
(10.0728 -0.0347301 0)
(10.077 -0.0347899 0)
(10.081 -0.0348209 0)
(10.0848 -0.0348359 0)
(10.0883 -0.034848 0)
(10.0003 -0.00497839 0)
(10.0032 -0.0160864 0)
(10.0088 -0.022493 0)
(10.0161 -0.0273244 0)
(10.0235 -0.0311306 0)
(10.0307 -0.0341909 0)
(10.0379 -0.0363275 0)
(10.0449 -0.0376398 0)
(10.0515 -0.0384332 0)
(10.0576 -0.0388953 0)
(10.0634 -0.0391398 0)
(10.0687 -0.0392416 0)
(10.0737 -0.0392475 0)
(10.0784 -0.0392017 0)
(10.0828 -0.0391244 0)
(10.0869 -0.0390352 0)
(10.0907 -0.0389424 0)
(10.0943 -0.0388534 0)
(10.0002 -0.00509271 0)
(10.0031 -0.0203863 0)
(10.0098 -0.0278512 0)
(10.0182 -0.0321176 0)
(10.0261 -0.0355146 0)
(10.034 -0.0385852 0)
(10.0421 -0.0408582 0)
(10.0499 -0.0423138 0)
(10.057 -0.043202 0)
(10.0637 -0.0436994 0)
(10.0698 -0.043921 0)
(10.0755 -0.0439591 0)
(10.0808 -0.0438786 0)
(10.0856 -0.0437293 0)
(10.0901 -0.0435447 0)
(10.0943 -0.0433444 0)
(10.0982 -0.0431423 0)
(10.1019 -0.0429524 0)
(9.99919 -0.00285078 0)
(10.0016 -0.0217108 0)
(10.0098 -0.0332842 0)
(10.0207 -0.0395586 0)
(10.0298 -0.0429391 0)
(10.0388 -0.0448687 0)
(10.0481 -0.0458738 0)
(10.057 -0.0463887 0)
(10.0651 -0.0466893 0)
(10.0725 -0.0467725 0)
(10.0792 -0.0467173 0)
(10.0853 -0.0465742 0)
(10.0909 -0.0463803 0)
(10.0959 -0.0461641 0)
(10.1004 -0.0459441 0)
(10.1046 -0.0457243 0)
(10.1084 -0.0455154 0)
(10.1118 -0.0453163 0)
(9.99653 -0.00183217 0)
(9.99839 -0.0128015 0)
(10.0072 -0.0261833 0)
(10.0248 -0.0410019 0)
(10.0386 -0.0520326 0)
(10.0509 -0.0577321 0)
(10.0625 -0.0597506 0)
(10.0728 -0.0600113 0)
(10.0818 -0.0594857 0)
(10.0897 -0.0585029 0)
(10.0965 -0.057302 0)
(10.1024 -0.0560415 0)
(10.1075 -0.0548166 0)
(10.1119 -0.0536693 0)
(10.1155 -0.0526204 0)
(10.1187 -0.051684 0)
(10.1213 -0.0508546 0)
(10.1235 -0.0501264 0)
(9.99747 -0.0359731 0)
(10.0119 -0.0201514 0)
(10.0156 0.00268068 0)
(10.0397 0.00580822 0)
(10.0612 -0.00361302 0)
(10.0806 -0.0148787 0)
(10.0967 -0.023973 0)
(10.1089 -0.0310178 0)
(10.1176 -0.0362875 0)
(10.1236 -0.0401226 0)
(10.1271 -0.0427595 0)
(10.1287 -0.0445138 0)
(10.1285 -0.0456391 0)
(10.127 -0.0463036 0)
(10.1244 -0.0466543 0)
(10.1208 -0.0468066 0)
(10.1166 -0.0468495 0)
(10.1118 -0.0468667 0)
(10.0267 -0.188051 0)
(10.1204 -0.311734 0)
(10.1344 -0.307343 0)
(10.1464 -0.253596 0)
(10.1519 -0.205251 0)
(10.1518 -0.167503 0)
(10.1443 -0.138363 0)
(10.1286 -0.116249 0)
(10.1066 -0.0995635 0)
(10.08 -0.0867974 0)
(10.0503 -0.0768515 0)
(10.0186 -0.0689749 0)
(9.98573 -0.0626642 0)
(9.95244 -0.0575543 0)
(9.91927 -0.0533872 0)
(9.88659 -0.0500013 0)
(9.85472 -0.047272 0)
(9.82406 -0.0454493 0)
(9.89812 0.634124 0)
(9.78724 0.64264 0)
(9.67189 0.445934 0)
(9.48299 0.278782 0)
(9.2907 0.168951 0)
(9.11085 0.0995118 0)
(8.94709 0.0562543 0)
(8.80001 0.0296231 0)
(8.66919 0.013211 0)
(8.55361 0.00309381 0)
(8.45139 -0.00305716 0)
(8.3609 -0.00669815 0)
(8.28042 -0.00875568 0)
(8.20868 -0.00983111 0)
(8.14429 -0.0103031 0)
(8.08626 -0.0104471 0)
(8.03326 -0.0104309 0)
(7.98493 -0.0107117 0)
(-0.00265184 0.00715902 0)
(-0.0122356 0.0118879 0)
(-0.0253384 0.0127848 0)
(-0.0385632 0.010843 0)
(-0.047147 0.00573831 0)
(-0.0446395 -0.00236078 0)
(-0.0296428 -0.0128628 -8.70889e-19)
(-0.0054891 -0.0228394 9.93265e-19)
(0.0243475 -0.0290635 0)
(0.0567436 -0.030417 6.21524e-19)
(0.0887885 -0.0276857 0)
(0.117194 -0.0219912 0)
(0.139597 -0.0143756 0)
(0.154571 -0.00568254 -3.68496e-19)
(0.16173 0.00346863 0)
(0.160625 0.0121911 0)
(0.151727 0.019475 3.75335e-19)
(0.13631 0.0243327 0)
(0.116032 0.0259742 0)
(0.092951 0.0240167 0)
(0.0695012 0.0187542 -5.99516e-19)
(0.0482269 0.0112601 0)
(0.0312819 0.00319515 -8.88419e-19)
(0.0200451 -0.00404076 0)
(0.0148392 -0.0100261 0)
(0.0167325 -0.0144909 -1.16469e-18)
(0.0249342 -0.0180303 0)
(0.0391755 -0.0213939 8.24005e-19)
(0.058218 -0.0239709 0)
(0.0786945 -0.0239242 -5.74036e-19)
(0.096417 -0.0208849 0)
(0.109432 -0.0168679 0)
(0.117715 -0.0147374 0)
(0.123084 -0.0173713 0)
(0.12493 -0.0237378 0)
(0.117652 -0.0282951 4.46835e-19)
(0.0938259 -0.0202137 0)
(0.0498622 -0.000545204 -1.14759e-18)
(-0.0289303 0.017226 0)
(-0.125603 0.0398209 5.06769e-19)
(-0.232904 0.065961 0)
(-0.354084 0.090802 0)
(-0.485359 0.111378 -2.05419e-19)
(-0.622126 0.125781 0)
(-0.762029 0.121651 -1.58449e-19)
(-0.901008 0.113915 1.41542e-19)
(-1.03024 0.111282 0)
(-1.15306 0.104014 1.16263e-19)
(-1.26698 0.0977261 1.07262e-19)
(-1.37113 0.0919227 0)
(-1.46657 0.0926988 0)
(-1.55407 0.0926393 0)
(-1.63471 0.0793019 0)
(-1.70581 0.0693163 0)
(-1.76989 0.057667 -8.5396e-20)
(-1.82696 0.0469127 0)
(-1.87853 0.0433262 8.19369e-20)
(-1.92619 0.038531 0)
(-1.96987 0.0351208 0)
(-2.01031 0.0321096 -7.77693e-20)
(-2.04791 0.0295199 0)
(-2.08305 0.0273092 7.55497e-20)
(-2.11607 0.0253868 0)
(-2.14724 0.0237397 0)
(-2.17681 0.0223039 0)
(-2.20496 0.021046 -7.18244e-20)
(-2.23188 0.0199394 0)
(-2.25768 0.0189518 0)
(-2.28247 0.0180684 -6.93757e-20)
(-2.30636 0.0172667 0)
(-2.32941 0.0165355 -6.78328e-20)
(-2.35169 0.0158603 0)
(-2.37324 0.0152321 0)
(-2.3941 0.0146421 0)
(-2.41431 0.0140824 6.48617e-20)
(-2.43388 0.0135479 0)
(-2.45283 0.0130317 0)
(-2.47117 0.0125314 6.26778e-20)
(-2.48891 0.0120404 6.19512e-20)
(-2.50604 0.0115581 0)
(-2.52257 0.0110777 6.0495e-20)
(-2.53848 0.0105999 0)
(-2.55377 0.0101171 1.18057e-19)
(-2.56841 0.0096307 0)
(-2.5824 0.00913204 1.15089e-19)
(-2.59571 0.00862285 0)
(-2.60831 0.0080935 -1.12082e-19)
(-2.62017 0.00754287 0)
(-2.63126 0.00696207 0)
(-2.64154 0.00633926 0)
(-2.65098 0.00566652 1.05921e-19)
(-2.65949 0.00493774 0)
(-2.66704 0.00415237 -1.02743e-19)
(-2.67356 0.00332953 0)
(-2.67898 0.00250562 9.95046e-20)
(-2.6832 0.00172917 9.78665e-20)
(-2.68613 0.00104385 9.62026e-20)
(-2.68787 0.00046611 0)
(-2.68868 -5.80737e-05 0)
(-2.68848 -0.000578817 0)
(-2.68729 -0.0011008 0)
(-2.68507 -0.00163159 0)
(-2.6818 -0.00216883 0)
(-2.67744 -0.00271712 0)
(-2.67197 -0.00327183 0)
(-2.66535 -0.00383849 -7.94492e-20)
(-2.65755 -0.00441067 -7.73619e-20)
(-2.64854 -0.00499531 0)
(-2.6383 -0.00558429 0)
(-2.62679 -0.00618574 0)
(-2.61399 -0.00679013 -6.84322e-20)
(-2.59987 -0.00740651 0)
(-2.58441 -0.00802424 0)
(-2.56758 -0.00865279 0)
(-2.54937 -0.00928088 0)
(-2.52976 -0.00991789 5.57072e-20)
(-2.50873 -0.0105525 0)
(-2.48628 -0.0111933 0)
(-2.4624 -0.0118297 -4.70444e-20)
(-2.43708 -0.0124687 4.39577e-20)
(-2.41032 -0.0131012 0)
(-2.38213 -0.0137323 3.74556e-20)
(-2.35252 -0.0143547 0)
(-2.32149 -0.0149712 -3.04801e-20)
(-2.28907 -0.0155771 0)
(-2.25528 -0.0161719 0)
(-2.22014 -0.0167527 0)
(-2.18367 -0.0173135 0)
(-2.14591 -0.0178513 0)
(-2.10692 -0.0183686 1.25397e-20)
(-2.06673 -0.0188994 3.39739e-21)
(-2.02535 -0.0193757 0)
(-1.98284 -0.0198332 0)
(-1.93919 -0.0202581 0)
(-1.89452 -0.0206659 3.67335e-20)
(-1.84883 -0.0210518 0)
(-1.80225 -0.0214219 0)
(-1.75474 -0.0217841 0)
(-1.70638 -0.0220979 8.33247e-20)
(-1.65714 -0.0224142 -9.61404e-20)
(-1.60711 -0.0226947 0)
(-1.55632 -0.0229634 0)
(-1.50486 -0.0232265 -1.37826e-19)
(-1.45274 -0.0234755 -1.52905e-19)
(-1.4 -0.0237136 0)
(-1.34666 -0.0239359 0)
(-1.29276 -0.0241479 2.02323e-19)
(-1.23832 -0.0243484 -2.20388e-19)
(-1.18337 -0.0245436 0)
(-1.12792 -0.0247352 0)
(-1.072 -0.0249266 -2.80373e-19)
(-1.01563 -0.0251197 0)
(-0.958842 -0.0253178 0)
(-0.901664 -0.0255232 -3.51052e-19)
(-0.844116 -0.0257377 0)
(-0.786219 -0.0259628 -4.05803e-19)
(-0.727992 -0.0262002 0)
(-0.669453 -0.0264523 0)
(-0.610621 -0.0267209 0)
(-0.551513 -0.0270083 5.40586e-19)
(-0.492144 -0.0273168 0)
(-0.432529 -0.0276491 0)
(-0.372683 -0.0280078 0)
(-0.312617 -0.0284015 0)
(-0.252339 -0.0288583 0)
(-0.191854 -0.0293968 0)
(-0.131176 -0.0299979 9.21169e-19)
(-0.0703574 -0.0306161 1.00221e-18)
(-0.00947185 -0.0309616 0)
(0.0515324 -0.0305256 0)
(0.112681 -0.0295806 0)
(0.17386 -0.0286152 -9.64925e-19)
(0.234906 -0.0276652 0)
(0.29561 -0.0266858 1.78112e-18)
(0.355709 -0.0256054 -1.71968e-18)
(0.414464 -0.0243056 -1.66638e-18)
(0.471731 -0.0225576 1.62219e-18)
(0.522049 -0.0197829 -1.58955e-18)
(0.575429 -0.0160443 1.57365e-18)
(0.576095 -0.000301468 0)
(-0.000577147 0.0199595 0)
(-0.00636584 0.0346015 0)
(-0.0127922 0.0345633 2.20789e-18)
(-0.0113665 0.0239296 0)
(0.00503391 0.00167853 -2.24836e-18)
(0.0348437 -0.0325174 -1.42963e-18)
(0.07229 -0.0670996 -4.74118e-19)
(0.112993 -0.0924954 -3.53835e-19)
(0.153035 -0.104895 0)
(0.189345 -0.104769 -2.49867e-19)
(0.220069 -0.0949076 0)
(0.244437 -0.0785528 0)
(0.262273 -0.0584698 4.16832e-19)
(0.27373 -0.0367294 2.07316e-19)
(0.279146 -0.0148416 -4.22892e-19)
(0.279187 0.00622509 -4.24685e-19)
(0.274156 0.0255889 -2.13257e-19)
(0.264116 0.0421896 0)
(0.249195 0.0548486 0)
(0.229836 0.0623235 0)
(0.206975 0.0636376 -2.66595e-19)
(0.182256 0.0584429 0)
(0.15799 0.0473183 1.00949e-18)
(0.136878 0.0316694 0)
(0.121788 0.0131608 0)
(0.114031 -0.0068295 4.78092e-19)
(0.114949 -0.0266052 0)
(0.122455 -0.0437415 -4.0542e-19)
(0.130295 -0.0537912 -7.43601e-19)
(0.132471 -0.0525295 3.57926e-19)
(0.12655 -0.0426162 0)
(0.109159 -0.0291705 0)
(0.0759568 -0.0105992 0)
(0.0161984 0.0146428 -9.45182e-19)
(-0.0851604 0.0545604 -6.45334e-19)
(-0.208035 0.10545 -1.91532e-19)
(-0.34195 0.158414 0)
(-0.484762 0.207696 1.92287e-19)
(-0.634501 0.248357 0)
(-0.78483 0.280061 -1.27945e-19)
(-0.933347 0.301372 0)
(-1.07661 0.31228 0)
(-1.20965 0.314173 9.02929e-20)
(-1.32913 0.308283 0)
(-1.4363 0.295255 2.38861e-19)
(-1.52987 0.276189 -7.51437e-20)
(-1.61079 0.254774 0)
(-1.68056 0.232165 -6.9306e-20)
(-1.74102 0.209161 -6.71859e-20)
(-1.79416 0.187098 0)
(-1.84007 0.166472 0)
(-1.88037 0.148153 0)
(-1.91636 0.132062 0)
(-1.94921 0.118158 0)
(-1.9799 0.106464 5.99009e-20)
(-2.00858 0.0963286 1.18113e-19)
(-2.0356 0.0877098 -5.81717e-20)
(-2.06067 0.0802204 0)
(-2.08452 0.0737516 1.13398e-19)
(-2.10723 0.0681759 -5.59932e-20)
(-2.12898 0.063365 0)
(-2.14988 0.0591926 -5.46677e-20)
(-2.17 0.0555536 0)
(-2.18942 0.0523574 0)
(-2.20819 0.04953 -1.05592e-19)
(-2.22635 0.0470061 5.22396e-20)
(-2.24392 0.0447354 -1.03243e-19)
(-2.26094 0.0426728 1.02093e-19)
(-2.27743 0.0407836 5.05181e-20)
(-2.29341 0.039037 0)
(-2.30888 0.0374087 4.93939e-20)
(-2.32386 0.0358772 0)
(-2.33835 0.0344248 0)
(-2.35235 0.033037 0)
(-2.36587 0.0316998 4.70872e-20)
(-2.37889 0.0304038 0)
(-2.39142 0.0291376 9.2017e-20)
(-2.40345 0.0278959 -1.36375e-19)
(-2.41497 0.0266688 -4.4915e-20)
(-2.42596 0.0254539 0)
(-2.43642 0.024242 -4.37729e-20)
(-2.44634 0.0230328 0)
(-2.45569 0.0218163 -8.52267e-20)
(-2.46445 0.0205935 0)
(-2.47262 0.0193545 -8.28658e-20)
(-2.48017 0.0181029 1.63272e-19)
(-2.48709 0.0168321 8.04597e-20)
(-2.49336 0.0155472 0)
(-2.49896 0.0142439 0)
(-2.50389 0.0129172 0)
(-2.50812 0.0115596 -7.54988e-20)
(-2.51165 0.0101608 0)
(-2.51447 0.00870738 7.2929e-20)
(-2.5166 0.00719323 0)
(-2.51808 0.00562917 -2.10959e-19)
(-2.51898 0.00405576 -6.89602e-20)
(-2.51938 0.00253018 -6.75859e-20)
(-2.51916 0.00108695 0)
(-2.51804 -0.000315008 0)
(-2.516 -0.00171813 0)
(-2.51297 -0.00312935 0)
(-2.50894 -0.00455621 0)
(-2.50386 -0.00599795 -1.17797e-19)
(-2.49771 -0.00745732 -1.14721e-19)
(-2.49046 -0.00893048 0)
(-2.48207 -0.0104204 5.40998e-20)
(-2.47253 -0.0119209 5.2468e-20)
(-2.46178 -0.0134362 0)
(-2.44982 -0.014958 9.84873e-20)
(-2.43662 -0.0164914 0)
(-2.42214 -0.0180264 -4.59291e-20)
(-2.40636 -0.0195689 0)
(-2.38926 -0.0211072 0)
(-2.37082 -0.0226479 8.06055e-20)
(-2.35101 -0.0241781 0)
(-2.32984 -0.0257044 -3.62458e-20)
(-2.30727 -0.0272134 0)
(-2.2833 -0.0287114 0)
(-2.25793 -0.0301848 -3.06171e-20)
(-2.23115 -0.0316392 -2.79805e-20)
(-2.20296 -0.0330621 0)
(-2.17336 -0.0344574 2.41417e-20)
(-2.14237 -0.0358144 0)
(-2.10999 -0.037135 -1.95724e-20)
(-2.07624 -0.0384114 -3.37576e-20)
(-2.04115 -0.0396432 0)
(-2.00473 -0.0408261 0)
(-1.96702 -0.0419582 0)
(-1.92803 -0.0430402 0)
(-1.88783 -0.0440708 -7.55895e-21)
(-1.84644 -0.0450474 -7.98485e-21)
(-1.80391 -0.0459568 0)
(-1.76025 -0.046794 0)
(-1.7155 -0.0475561 0)
(-1.6697 -0.0482587 -2.07228e-20)
(-1.62294 -0.0489062 0)
(-1.57526 -0.0495113 0)
(-1.5267 -0.0500558 7.61132e-20)
(-1.47728 -0.0505433 4.33999e-20)
(-1.42702 -0.0509683 5.17129e-20)
(-1.37596 -0.0513457 0)
(-1.32416 -0.0516727 0)
(-1.27168 -0.0519644 7.16038e-20)
(-1.21855 -0.0522145 -7.64287e-20)
(-1.1648 -0.0524328 0)
(-1.11046 -0.0526082 0)
(-1.05555 -0.0527473 -9.96482e-20)
(-1.0001 -0.0528471 3.18772e-19)
(-0.944118 -0.0529158 0)
(-0.887639 -0.0529548 0)
(-0.830682 -0.0529694 1.29655e-19)
(-0.773273 -0.052961 0)
(-0.715438 -0.0529346 2.88811e-19)
(-0.657202 -0.0528911 -1.51452e-19)
(-0.598584 -0.0528344 0)
(-0.539607 -0.0527648 1.70411e-19)
(-0.480289 -0.0526854 3.55894e-19)
(-0.420647 -0.0525965 0)
(-0.3607 -0.0525009 0)
(-0.300464 -0.0523997 -2.06157e-19)
(-0.239955 -0.0522953 0)
(-0.179185 -0.0521903 4.48262e-19)
(-0.118171 -0.0520873 0)
(-0.0569257 -0.051986 0)
(0.00453014 -0.0518785 0)
(0.0661945 -0.051758 0)
(0.128072 -0.0516346 -2.57e-19)
(0.190169 -0.0515065 -2.57721e-19)
(0.252502 -0.0512817 0)
(0.315007 -0.0508002 0)
(0.377543 -0.0501148 0)
(0.440043 -0.0493545 2.59617e-19)
(0.502443 -0.048513 0)
(0.564578 -0.0475256 -5.205e-19)
(0.626214 -0.0462707 5.21245e-19)
(0.686807 -0.0445495 5.22311e-19)
(0.746097 -0.0419027 5.20896e-19)
(0.800967 -0.0376894 5.27358e-19)
(0.856634 -0.0302227 5.30909e-19)
(0.885896 -0.00959201 0)
(-0.000130734 0.0241083 0)
(-3.86975e-05 0.0394056 0)
(0.00757661 0.0282933 -2.32058e-18)
(0.0329478 -0.0104463 -1.51459e-18)
(0.076631 -0.069723 9.06439e-19)
(0.128572 -0.127463 6.1987e-19)
(0.178808 -0.167687 -4.51659e-22)
(0.221483 -0.185321 0)
(0.254635 -0.182823 0)
(0.278651 -0.16566 0)
(0.294885 -0.139368 0)
(0.304859 -0.108325 0)
(0.309822 -0.0755659 -9.55506e-19)
(0.310711 -0.0430054 0)
(0.308201 -0.0118122 3.35626e-19)
(0.30254 0.01716 3.35935e-19)
(0.294275 0.0431794 0)
(0.283742 0.0655513 0)
(0.27111 0.0834069 0)
(0.256386 0.0956253 0)
(0.239493 0.100892 4.11481e-19)
(0.220645 0.0979929 0)
(0.200695 0.086297 -5.00949e-19)
(0.18143 0.0661353 0)
(0.164954 0.039498 0)
(0.153146 0.00931054 0)
(0.143241 -0.019072 -1.43692e-18)
(0.12646 -0.035266 0)
(0.0918666 -0.0319672 6.664e-19)
(0.0391634 -0.00636436 -1.44486e-18)
(-0.031281 0.038733 0)
(-0.132143 0.0956746 0)
(-0.252396 0.160702 0)
(-0.387002 0.229694 2.10714e-19)
(-0.533709 0.297796 1.63832e-19)
(-0.683185 0.359885 0)
(-0.82919 0.411547 0)
(-0.966683 0.451727 -1.96772e-19)
(-1.09173 0.478779 -1.75678e-19)
(-1.20219 0.49226 1.60018e-19)
(-1.2971 0.492807 0)
(-1.37647 0.481431 0)
(-1.44146 0.460428 0)
(-1.49437 0.432479 0)
(-1.53819 0.399604 -1.17312e-19)
(-1.57548 0.364445 -1.13828e-19)
(-1.60855 0.329629 1.09359e-19)
(-1.63871 0.296223 0)
(-1.66701 0.265318 0)
(-1.69413 0.237463 0)
(-1.72017 0.21287 0)
(-1.74526 0.191272 -9.36056e-20)
(-1.76974 0.172012 0)
(-1.79387 0.155227 0)
(-1.81767 0.140661 -8.81681e-20)
(-1.84109 0.128164 -8.65717e-20)
(-1.86393 0.117644 0)
(-1.88605 0.10858 1.67896e-19)
(-1.90748 0.100785 -8.27454e-20)
(-1.92821 0.0940234 8.15987e-20)
(-1.94827 0.0881142 0)
(-1.96768 0.082916 0)
(-1.98647 0.0783092 0)
(-2.00467 0.0741966 0)
(-2.02229 0.0704954 7.64807e-20)
(-2.03936 0.0671367 1.50913e-19)
(-2.05589 0.0640637 7.46095e-20)
(-2.07192 0.0612281 -7.36959e-20)
(-2.08745 0.0585903 0)
(-2.10249 0.0561166 1.43634e-19)
(-2.11706 0.0537784 1.41861e-19)
(-2.13116 0.0515519 1.40098e-19)
(-2.1448 0.0494162 -1.38343e-19)
(-2.15799 0.0473539 0)
(-2.17071 0.0453493 -2.02333e-19)
(-2.18297 0.0433899 0)
(-2.19477 0.0414634 6.56022e-20)
(-2.2061 0.0395611 6.4852e-20)
(-2.21696 0.0376734 0)
(-2.22733 0.0357942 0)
(-2.2372 0.0339157 1.24261e-19)
(-2.24656 0.0320336 0)
(-2.25541 0.0301408 1.20667e-19)
(-2.26371 0.0282339 0)
(-2.27146 0.0263065 -1.17022e-19)
(-2.27865 0.0243569 -2.30419e-19)
(-2.28525 0.0223819 0)
(-2.29126 0.0203833 0)
(-2.29666 0.0183608 0)
(-2.30142 0.0163132 -1.07656e-19)
(-2.30554 0.0142412 0)
(-2.309 0.0121467 -1.03792e-19)
(-2.31179 0.0100347 0)
(-2.31391 0.00791181 0)
(-2.31533 0.0057866 1.95704e-19)
(-2.31604 0.00366223 0)
(-2.31597 0.0015234 9.37058e-20)
(-2.31508 -0.000655741 0)
(-2.3133 -0.00287739 8.94476e-20)
(-2.31061 -0.0051268 0)
(-2.30696 -0.00740339 0)
(-2.30234 -0.0097058 0)
(-2.2967 -0.0120352 2.41722e-19)
(-2.29002 -0.0143889 7.81968e-20)
(-2.28227 -0.0167674 0)
(-2.27341 -0.019167 0)
(-2.26342 -0.0215871 0)
(-2.25227 -0.0240235 0)
(-2.23993 -0.0264747 -6.62552e-20)
(-2.22638 -0.0289359 1.2799e-19)
(-2.21158 -0.0314046 6.12376e-20)
(-2.19552 -0.0338755 -1.17872e-19)
(-2.17817 -0.0363451 -1.127e-19)
(-2.15952 -0.0388079 -5.34283e-20)
(-2.13954 -0.0412592 0)
(-2.11821 -0.0436932 -9.67066e-20)
(-2.09554 -0.0461042 0)
(-2.07149 -0.0484865 8.56261e-20)
(-2.04608 -0.0508333 3.95924e-20)
(-2.0193 -0.0531392 0)
(-1.99114 -0.0553966 -6.83434e-20)
(-1.96161 -0.0576007 -3.07612e-20)
(-1.93072 -0.0597434 0)
(-1.89848 -0.0618204 -2.55929e-20)
(-1.86491 -0.0638241 6.55339e-20)
(-1.83002 -0.0657507 0)
(-1.79385 -0.0675937 0)
(-1.75641 -0.0693502 0)
(-1.71774 -0.0710181 0)
(-1.67788 -0.0725975 1.15564e-20)
(-1.63687 -0.0740822 3.64204e-21)
(-1.59475 -0.0754584 0)
(-1.55152 -0.076719 0)
(-1.50724 -0.0778634 0)
(-1.46194 -0.0789054 0)
(-1.4157 -0.079857 0)
(-1.36856 -0.0807242 0)
(-1.32056 -0.0814973 -4.57252e-20)
(-1.27172 -0.0821739 -1.32967e-21)
(-1.22206 -0.0827549 0)
(-1.17162 -0.0832525 0)
(-1.12047 -0.0836718 -7.37408e-20)
(-1.06863 -0.0840243 0)
(-1.01616 -0.084309 9.00096e-20)
(-0.96307 -0.0845321 9.6107e-20)
(-0.909394 -0.0846894 0)
(-0.855151 -0.0847846 0)
(-0.800364 -0.0848179 -1.20127e-19)
(-0.745055 -0.0847968 -2.52603e-19)
(-0.689244 -0.0847247 0)
(-0.632957 -0.0846082 0)
(-0.576219 -0.0844501 0)
(-0.519052 -0.0842558 -1.58354e-19)
(-0.461479 -0.0840274 1.66076e-19)
(-0.403522 -0.0837685 0)
(-0.345201 -0.0834806 3.60293e-19)
(-0.286533 -0.0831662 1.86489e-19)
(-0.227537 -0.0828266 -3.91559e-19)
(-0.168232 -0.0824637 0)
(-0.108632 -0.0820795 0)
(-0.0487544 -0.0816756 -4.38936e-19)
(0.0113848 -0.0812539 -2.27552e-19)
(0.0717728 -0.0808158 0)
(0.132402 -0.0803633 0)
(0.193263 -0.0798911 0)
(0.254344 -0.0793972 0)
(0.315627 -0.0788876 -4.88698e-19)
(0.377106 -0.0783638 0)
(0.438775 -0.0778076 0)
(0.500592 -0.0771868 0)
(0.562485 -0.0764752 0)
(0.6244 -0.0756562 0)
(0.686262 -0.0746879 0)
(0.747928 -0.0734788 -5.26512e-19)
(0.809205 -0.0718654 0)
(0.869689 -0.0695731 0)
(0.929208 -0.0660663 -1.08592e-18)
(0.985815 -0.0605105 5.48355e-19)
(1.04338 -0.0511545 -5.59676e-19)
(1.08655 -0.0299763 5.76479e-19)
(-0.00155015 0.0258194 0)
(0.00355851 0.0232885 4.87703e-18)
(0.0334645 -0.0324891 0)
(0.0883275 -0.12066 7.62228e-19)
(0.150658 -0.199684 0)
(0.204985 -0.2474 0)
(0.244247 -0.261426 -3.42732e-19)
(0.268601 -0.249501 0)
(0.281396 -0.221434 0)
(0.286351 -0.185138 0)
(0.286372 -0.145715 0)
(0.283315 -0.105976 0)
(0.278202 -0.067339 1.11826e-18)
(0.271546 -0.0305372 5.79046e-19)
(0.263531 0.00396647 -5.99882e-19)
(0.254416 0.0356601 0)
(0.244144 0.0640821 0)
(0.232688 0.0886636 0)
(0.220077 0.108645 0)
(0.206355 0.123027 0)
(0.191442 0.130437 7.71733e-19)
(0.175196 0.129026 8.55606e-19)
(0.157939 0.117525 -9.66023e-19)
(0.140534 0.0958379 1.10863e-18)
(0.12234 0.0658066 0)
(0.0960568 0.0339052 0)
(0.048096 0.0220336 1.30582e-18)
(-0.0191056 0.0461615 0)
(-0.105944 0.0961718 0)
(-0.216194 0.163636 5.35663e-19)
(-0.344274 0.243216 4.08066e-19)
(-0.48346 0.326905 3.22008e-19)
(-0.626528 0.407484 0)
(-0.767548 0.479741 0)
(-0.899513 0.538115 -1.93944e-19)
(-1.01689 0.580598 0)
(-1.11789 0.607313 0)
(-1.20172 0.618751 1.4011e-19)
(-1.26868 0.616415 -1.32175e-19)
(-1.3206 0.602136 1.23359e-19)
(-1.35999 0.578198 0)
(-1.38983 0.546993 0)
(-1.41326 0.511096 2.03828e-19)
(-1.43293 0.47281 0)
(-1.4509 0.433836 1.85007e-19)
(-1.46861 0.39564 2.64985e-19)
(-1.48692 0.359514 -2.54809e-19)
(-1.50613 0.326027 1.64212e-19)
(-1.52625 0.295506 0)
(-1.54715 0.268075 0)
(-1.56856 0.243647 1.50036e-19)
(-1.59024 0.221984 7.29381e-20)
(-1.61206 0.202742 0)
(-1.63388 0.185735 0)
(-1.6556 0.170759 6.8666e-20)
(-1.67706 0.157628 1.35129e-19)
(-1.69813 0.146168 0)
(-1.7187 0.136123 -1.30717e-19)
(-1.73872 0.127294 1.28787e-19)
(-1.75817 0.119495 -1.26907e-19)
(-1.77703 0.112569 0)
(-1.79531 0.106384 0)
(-1.81303 0.100826 0)
(-1.8302 0.0958004 0)
(-1.84683 0.0912242 0)
(-1.86295 0.0870276 -1.17117e-19)
(-1.87857 0.0831513 0)
(-1.8937 0.0795444 0)
(-1.90836 0.0761636 0)
(-1.92256 0.0729719 -2.22408e-19)
(-1.93631 0.0699374 -1.09822e-19)