/*--------------------------------*- C++ -*----------------------------------*\
  =========                 |
  \\      /  F ield         | OpenFOAM: The Open Source CFD Toolbox
   \\    /   O peration     | Website:  https://openfoam.org
    \\  /    A nd           | Version:  8
     \\/     M anipulation  |
\*---------------------------------------------------------------------------*/
FoamFile
{
    version     2.0;
    format      ascii;
    class       volVectorField;
    location    "1000";
    object      wallShearStress;
}
// * * * * * * * * * * * * * * * * * * * * * * * * * * * * * * * * * * * * * //

dimensions      [0 2 -2 0 0 0 0];

internalField   uniform (0 0 0);

boundaryField
{
    inlet
    {
        type            calculated;
        value           uniform (0 0 0);
    }
    outlet
    {
        type            calculated;
        value           uniform (0 0 0);
    }
    upperWall
    {
        type            calculated;
        value           nonuniform List<vector> 
223
(
(-0.453075 -0.0383694 0)
(-0.513912 -0.0443472 0)
(-0.545477 -0.0325619 0)
(-0.543203 -0.0200876 0)
(-0.538703 -0.0118518 0)
(-0.528703 -0.00654643 0)
(-0.518098 -0.00326349 0)
(-0.507496 -0.00127796 0)
(-0.496686 -9.23865e-05 0)
(-0.486626 0.000603389 0)
(-0.477432 0.000997221 0)
(-0.469098 0.00120504 0)
(-0.461587 0.00129945 0)
(-0.454824 0.00132696 0)
(-0.448732 0.00131645 0)
(-0.443232 0.00128947 0)
(-0.438225 0.00125627 0)
(-0.433682 0.00126681 0)
(-0.430002 0.00132087 0)
(-0.427053 0.00135982 5.42415e-22)
(-0.424153 0.00136225 0)
(-0.421313 0.00134006 0)
(-0.418533 0.00130186 0)
(-0.415817 0.00125417 5.53525e-22)
(-0.413172 0.00120047 0)
(-0.410599 0.00114492 0)
(-0.408098 0.00108833 0)
(-0.40567 0.00103317 -1.12644e-21)
(-0.403311 0.000979122 1.13115e-21)
(-0.401022 0.000927656 1.13584e-21)
(-0.398799 0.000878301 0)
(-0.396642 0.00083181 -1.14518e-21)
(-0.394548 0.000787562 0)
(-0.392515 0.000746302 1.15455e-21)
(-0.390541 0.000707471 1.15928e-21)
(-0.388624 0.000671393 -1.16404e-21)
(-0.386762 0.00063772 0)
(-0.384952 0.000606541 0)
(-0.383192 0.000577809 0)
(-0.381481 0.000551432 0)
(-0.379814 0.000527404 -1.18819e-21)
(-0.37819 0.000505573 0)
(-0.376606 0.000485781 0)
(-0.375061 0.000468036 1.20309e-21)
(-0.373549 0.000452165 0)
(-0.372071 0.000437986 1.21318e-21)
(-0.370622 0.000425389 -1.21827e-21)
(-0.369203 0.000414305 1.22337e-21)
(-0.367808 0.000404468 0)
(-0.366438 0.000395859 0)
(-0.36509 0.000388335 0)
(-0.363763 0.000381795 1.2439e-21)
(-0.362454 0.000376088 -1.24905e-21)
(-0.361164 0.0003712 0)
(-0.359888 0.000367009 0)
(-0.358628 0.000363502 0)
(-0.35738 0.000360589 0)
(-0.356145 0.000358258 0)
(-0.35492 0.000356392 0)
(-0.353705 0.000354965 0)
(-0.352497 0.000354016 0)
(-0.351299 0.000353548 1.29413e-21)
(-0.350102 0.000353415 -1.29886e-21)
(-0.348915 0.000353553 0)
(-0.347727 0.000354103 0)
(-0.346545 0.000355035 0)
(-0.345359 0.00035618 -1.31676e-21)
(-0.344179 0.00035758 0)
(-0.342992 0.000359295 0)
(-0.341809 0.000361319 0)
(-0.340615 0.000363541 0)
(-0.339423 0.000366 0)
(-0.338218 0.000368778 -2.67859e-21)
(-0.337013 0.000371684 0)
(-0.335793 0.000374763 0)
(-0.334569 0.000378245 0)
(-0.333329 0.000381954 0)
(-0.332081 0.000386022 0)
(-0.330816 0.000390465 0)
(-0.329535 0.000395127 0)
(-0.328243 0.000399983 2.70991e-21)
(-0.326916 0.000408542 0)
(-0.325585 0.000417226 0)
(-0.324212 0.000406184 0)
(-0.322885 0.00037515 -2.70588e-21)
(-0.321674 0.00027533 0)
(-0.3205 0.00354113 -2.69948e-21)
(-0.329403 0.00347209 0)
(-0.353535 0.000702778 0)
(-0.332332 0.00197322 0)
(-0.328796 0.00163765 -2.80952e-21)
(-0.334604 0.00076604 0)
(-0.334825 0.000251862 2.93993e-21)
(-0.333411 -0.000417977 2.97106e-21)
(-0.315469 -6.197e-05 0)
(-0.31225 -0.00163259 2.81349e-21)
(-0.362324 0.00325309 0)
(-0.347154 0.00636118 0)
(-0.333175 0.0031914 0)
(-0.326987 0.000839427 -2.85548e-21)
(-0.334189 -0.00108172 0)
(-0.329161 -0.000875927 -3.03039e-21)
(-0.319043 -0.00222083 2.95354e-21)
(-0.30076 -0.00114845 0)
(-0.299346 -3.36151e-05 0)
(-0.298281 -0.00100356 0)
(-0.356906 0.00278558 0)
(-0.331242 0.00359124 0)
(-0.328088 -0.00112268 0)
(-0.313346 -0.00103672 0)
(-0.292951 0.000398621 -2.71729e-21)
(-0.29143 0.00076786 0)
(-0.290314 -0.000503503 0)
(-0.350726 0.001843 0)
(-0.318827 0.00189345 0)
(-0.306407 -0.00076087 0)
(-0.296636 -0.000335876 0)
(-0.283752 -2.92702e-05 0)
(-0.28181 0.000376993 0)
(-0.280182 0.000252839 0)
(-0.330039 -0.000398758 0)
(-0.328394 0.000240946 0)
(-0.378037 0.00200751 0)
(-0.324684 0.000462074 -5.59804e-21)
(-0.348799 0.00141674 0)
(-0.308802 0.00495759 0)
(-0.272355 0.00624444 0)
(-0.266983 0.00599542 4.01831e-21)
(-0.265601 0.0015597 0)
(-0.263771 -0.00290094 0)
(-0.290793 -0.00358164 4.26737e-21)
(-0.349255 -0.00127106 0)
(-0.304191 0.00266395 -4.03096e-21)
(-0.258302 0.0026854 0)
(-0.256783 -0.000390735 0)
(-0.254856 -0.00250906 0)
(-0.295471 0.000362517 3.28333e-21)
(-0.252863 0.001044 0)
(-0.249674 -0.00128735 -2.29643e-21)
(-0.28758 0.00170895 0)
(-0.246557 0.00352315 0)
(-0.245093 0.00189544 0)
(-0.243915 -0.000500088 0)
(-0.267065 0.000278264 0)
(-0.240735 0.000299554 0)
(-0.270082 0.000218073 0)
(-0.236855 0.00022951 0)
(-0.259663 -0.00239936 0)
(-0.257987 0.000308426 0)
(-0.229694 0.000527819 0)
(-0.242684 0.00076692 1.201e-21)
(-0.226135 0.00081085 -1.42247e-21)
(-0.234322 0.000556236 0)
(-0.222466 0.000619068 0)
(-0.225459 0.000340908 0)
(-0.218999 0.00392477 0)
(-0.218289 0.00432925 -3.13479e-21)
(-0.216641 0.000997269 3.61497e-21)
(-0.214216 -0.00126026 -4.23538e-21)
(-0.230827 -0.00209964 0)
(-0.226337 0.000435331 -5.91443e-21)
(-0.206253 0.00312949 -1.11702e-20)
(-0.205082 0.0022398 0)
(-0.203273 0.000115575 -1.31018e-20)
(-0.205781 -0.0021472 1.5152e-20)
(-0.207418 -0.00307765 0)
(-0.193007 -0.00220771 0)
(-0.189618 -0.00116184 0)
(-0.18558 -0.000931762 0)
(-0.181717 -0.00072496 0)
(-0.179 -2.09406e-05 -2.32024e-20)
(-0.175392 0.00113026 0)
(-0.174508 0.000845856 -2.49051e-20)
(-0.172244 -0.000192437 0)
(-0.168584 -0.000300415 0)
(-0.165553 -0.00031467 0)
(-0.162566 -0.000186982 0)
(-0.15957 0.000877163 0)
(-0.159757 0.00231594 3.4866e-20)
(-0.160114 0.00218878 0)
(-0.158404 0.00111372 0)
(-0.154153 0.000289599 -4.14514e-20)
(-0.151074 0.000805614 0)
(-0.151587 0.00133575 0)
(-0.15198 0.00115801 0)
(-0.149991 0.000812666 4.72924e-20)
(-0.145296 0.000466331 0)
(-0.137781 0.000564068 0)
(-0.128336 0.000816791 0)
(-0.118062 0.00108196 0)
(-0.108339 0.00115062 -7.74564e-20)
(-0.100007 0.00102845 0)
(-0.0933692 0.000855938 0)
(-0.0876446 0.000761636 0)
(-0.0825701 0.000850996 1.06769e-19)
(-0.0749424 0.00109178 0)
(-0.070567 0.0018127 0)
(-0.0420881 0.00158949 -1.48875e-19)
(-0.0728078 0.00102641 6.01853e-36)
(-0.106921 0.00633223 1.2911e-17)
(-0.130148 0.0106867 2.32777e-17)
(-0.14253 0.0132426 2.19474e-17)
(-0.149966 0.0146756 2.11343e-17)
(-0.155673 0.0155622 2.04641e-17)
(-0.160226 0.0161878 -1.98887e-17)
(-0.163809 0.0166476 -1.93541e-17)
(-0.166848 0.0170027 -1.20371e-35)
(-0.169747 0.0173042 -3.67343e-17)
(-0.172766 0.0175908 -1.78696e-17)
(-0.176022 0.0178907 8.6065e-34)
(-0.179658 0.018217 0)
(-0.183747 0.0185895 -3.22797e-17)
(-0.188363 0.0190065 -3.08932e-17)
(-0.193541 0.0194821 -2.93321e-17)
(-0.199373 0.0200129 0)
(-0.205882 0.0206126 5.13063e-17)
(-0.213308 0.0212911 2.34712e-17)
(-0.221368 0.0220378 2.40741e-35)
(-0.231261 0.0229369 -3.64257e-17)
(-0.240391 0.0238115 -1.20378e-20)
(-0.25627 0.0251816 -3.00927e-36)
(-0.260775 0.0259842 1.36172e-17)
(-0.291371 0.027888 -7.66776e-18)
)
;
    }
    lowerWall
    {
        type            calculated;
        value           nonuniform List<vector> 
250
(
(-0.617106 0.0727241 0)
(-0.614286 0.0778893 0)
(-0.610667 0.0504625 0)
(-0.57431 0.0300296 0)
(-0.564493 0.0193235 0)
(-0.530517 0.0125593 0)
(-0.561565 0.010367 0)
(-0.506916 0.00687597 0)
(-0.752215 0.00215852 0)
(-0.636274 0.000849233 0)
(-0.570182 0.00301468 0)
(-0.507992 0.00208747 0)
(-0.472408 0.00155859 0)
(-0.469692 0.00260833 0)
(-0.535631 -0.00490551 0)
(-0.500712 -0.00720346 0)
(-0.507992 0.000364431 0)
(-0.457411 0.00140508 0)
(0.00286483 -0.00701406 0)
(0.0029297 -0.010842 0)
(0.00299204 -0.0145003 0)
(0.00300978 -0.0179882 6.96138e-20)
(0.00304358 -0.0209809 -6.20756e-20)
(0.00371315 -0.0238384 5.59667e-20)
(0.0048445 -0.024607 -5.11935e-20)
(0.00884316 -0.0445466 0)
(-0.0788678 -0.164191 0)
(0.000213621 -0.000256747 0)
(7.89914e-05 -0.000766668 0)
(2.38372e-05 -0.000908297 0)
(6.86831e-05 -0.000970686 0)
(-4.4198e-06 -0.000803713 1.53929e-19)
(-0.000328671 9.28699e-05 -1.37105e-19)
(-0.000984462 0.00229036 0)
(-0.00161257 0.00585959 -1.43869e-19)
(-0.00176239 0.00971142 1.13544e-19)
(-0.00141433 0.0128163 0)
(-0.000809724 0.0146632 0)
(-0.000171977 0.0151201 0)
(0.00036649 0.0142874 0)
(0.000844476 0.0125457 0)
(0.00133184 0.00989323 0)
(0.00184114 0.00641104 0)
(0.00237564 0.0022451 0)
(0.00276021 -0.00249416 0)
(-0.000133332 -0.000262161 0)
(0.000163001 -0.00042181 0)
(0.000457182 -0.000464649 0)
(0.000746563 -0.000389987 0)
(0.000954719 -0.000172582 -0)
(0.000959071 0.000161832 -0)
(0.000709873 0.00053937 1.54054e-20)
(0.000242836 0.000862042 -1.75759e-20)
(-0.000363434 0.0010558 -0)
(-0.00101741 0.00109833 -1.1002e-20)
(-0.00164781 0.00100795 -0)
(-0.00219445 0.000815029 0)
(-0.00261814 0.000555589 -0)
(-0.00289739 0.000261312 6.53953e-21)
(-0.00302508 -4.73832e-05 0)
(-0.00299005 -0.00034461 0)
(-0.00279997 -0.000596824 -6.67939e-21)
(-0.00247949 -0.000774214 -0)
(-0.00206328 -0.000854037 0)
(-0.00159689 -0.000823344 -0)
(-0.00113543 -0.000686935 1.06914e-20)
(-0.000734967 -0.000472323 0)
(-0.000436099 -0.0002257 1.58534e-20)
(-0.000253194 9.55825e-06 0)
(-0.000182938 0.000221529 0)
(-0.000236568 0.000397844 2.08086e-20)
(-0.000392314 0.000545671 0)
(-0.000655021 0.000680728 -1.47335e-20)
(-0.00102246 0.000772895 0)
(-0.00143232 0.000763933 1.02727e-20)
(-0.00178034 0.000652821 0)
(-0.0020076 0.000508973 0)
(-0.00210797 0.000419632 0)
(-0.0021434 0.000450726 0)
(-0.00216438 0.000541642 0)
(-0.00213971 0.000527681 -8.03561e-21)
(-0.00188606 0.000160137 0)
(-0.00116398 -0.000569227 2.06796e-20)
(0.000235339 -0.00123954 0)
(0.00192049 -0.00190932 -9.17998e-21)
(0.00384266 -0.0026442 0)
(0.00607164 -0.00334456 0)
(0.00860953 -0.00394497 3.8151e-21)
(0.0114369 -0.00438644 0)
(0.0140695 -0.00425099 2.97535e-21)
(0.0168176 -0.00405277 -2.69342e-21)
(0.0197233 -0.00400685 -0)
(0.0221872 -0.00375752 -2.28242e-21)
(0.0231562 -0.00332872 -2.00085e-21)
(0.0262372 -0.00325197 -0)
(0.0276245 -0.00314364 0)
(0.0306059 -0.00319947 0)
(0.0314991 -0.00270391 0)
(0.0336935 -0.00243056 -0)
(0.0359057 -0.00211264 1.75165e-21)
(0.0342018 -0.00162771 0)
(0.0358577 -0.00152615 -1.58148e-21)
(0.0371554 -0.00138171 -0)
(0.0384489 -0.00127545 -0)
(0.0396436 -0.00118038 1.54753e-21)
(0.0408139 -0.0010985 0)
(0.0419187 -0.0010275 -1.53264e-21)
(0.0429853 -0.000965513 -0)
(0.0440234 -0.000912179 0)
(0.0450186 -0.000865231 -0)
(0.0459993 -0.000824195 1.50838e-21)
(0.0469458 -0.000787754 0)
(0.0478795 -0.00075513 -0)
(0.0487887 -0.000725781 1.49169e-21)
(0.0496848 -0.000699084 0)
(0.0505635 -0.000674531 1.48048e-21)
(0.051429 -0.000651715 0)
(0.0522808 -0.000630276 0)
(0.0531197 -0.000609995 0)
(0.053947 -0.000590547 -1.45618e-21)
(0.0547615 -0.000571707 -0)
(0.0555647 -0.000553303 0)
(0.056355 -0.000535221 -1.43542e-21)
(0.057134 -0.000517206 -1.4279e-21)
(0.0578991 -0.000499232 -0)
(0.0586522 -0.000481072 -1.41183e-21)
(0.0593902 -0.000462695 0)
(0.0601147 -0.000443844 -2.78847e-21)
(0.0608224 -0.000424549 -0)
(0.0615147 -0.000404552 -2.74988e-21)
(0.0621884 -0.00038377 -0)
(0.0628437 -0.000361904 2.70772e-21)
(0.0634778 -0.000338908 0)
(0.0640905 -0.000314453 0)
(0.0646791 -0.000288144 0)
(0.0652427 -0.000259507 -2.61162e-21)
(0.0657782 -0.000228328 -0)
(0.0662843 -0.000194663 2.55694e-21)
(0.0667587 -0.000158974 0)
(0.0671999 -0.000122362 -2.49803e-21)
(0.0676061 -8.63957e-05 -2.46724e-21)
(0.0679778 -5.3396e-05 -2.43537e-21)
(0.0683169 -2.53678e-05 0)
(0.0686241 2.07691e-07 0)
(0.0689011 2.59822e-05 0)
(0.0691452 5.19434e-05 0)
(0.0693567 7.85033e-05 0)
(0.069533 0.000105571 0)
(0.069674 0.000133299 0)
(0.0697773 0.000161515 0)
(0.0698426 0.000190444 2.07763e-21)
(0.0698674 0.000219808 2.02904e-21)
(0.0698517 0.000249807 0)
(0.069793 0.000280175 0)
(0.0696915 0.000311194 0)
(0.0695446 0.00034247 1.81355e-21)
(0.0693526 0.000374317 0)
(0.0691131 0.000406335 0)
(0.0688266 0.00043882 0)
(0.0684908 0.000471308 0)
(0.0681067 0.000504165 -1.48998e-21)
(0.0676719 0.00053689 0)
(0.0671877 0.00056975 0)
(0.0666525 0.000602375 1.26212e-21)
(0.0660671 0.000634978 -1.1799e-21)
(0.0654306 0.000667135 0)
(0.0647442 0.000698993 -1.00536e-21)
(0.0640078 0.000730304 0)
(0.063222 0.000761095 8.16604e-22)
(0.0623879 0.000791117 0)
(0.0615066 0.000820381 0)
(0.0605795 0.000848782 0)
(0.0596071 0.000876025 0)
(0.0585904 0.000901857 0)
(0.0575291 0.00092636 -3.11654e-22)
(0.0564365 0.000951131 -6.1554e-23)
(0.0552774 0.000972987 0)
(0.0541148 0.000994339 0)
(0.0528747 0.00101316 0)
(0.0516479 0.00103162 -1.0339e-21)
(0.05034 0.00104767 0)
(0.0490545 0.00106369 0)
(0.0476833 0.00107783 0)
(0.0463294 0.00109078 -2.29531e-21)
(0.0449287 0.00110294 2.63958e-21)
(0.0435169 0.00111351 0)
(0.0420812 0.00112303 0)
(0.0406274 0.00113187 3.7538e-21)
(0.0391583 0.00113993 4.15426e-21)
(0.0376725 0.00114723 0)
(0.0361727 0.00115362 0)
(0.0346602 0.00115933 -5.45674e-21)
(0.0331359 0.00116433 5.92936e-21)
(0.0316017 0.0011689 0)
(0.030058 0.0011731 0)
(0.0285065 0.00117705 7.48693e-21)
(0.0269481 0.0011808 0)
(0.0253841 0.00118448 0)
(0.0238156 0.0011882 9.30263e-21)
(0.0222437 0.00119206 0)
(0.0206689 0.0011961 1.06977e-20)
(0.0190922 0.00120041 0)
(0.0175143 0.00120506 0)
(0.0159359 0.00121013 0)
(0.0143576 0.00121571 -1.41004e-20)
(0.01278 0.00122188 0)
(0.0112038 0.00122874 0)
(0.0096294 0.00123638 0)
(0.00805739 0.00124513 0)
(0.00648809 0.00125596 0)
(0.0049215 0.00126948 0)
(0.00335776 0.00128492 -2.35792e-20)
(0.00179736 0.00130059 -2.55852e-20)
(0.000240766 0.00130688 0)
(-0.00131159 0.00128693 0)
(-0.00285731 0.00124971 0)
(-0.00439405 0.00121136 2.43811e-20)
(-0.00591915 0.00117293 0)
(-0.00742722 0.00113272 -4.47625e-20)
(-0.00891074 0.00108726 4.30918e-20)
(-0.0103498 0.00103283 4.16207e-20)
(-0.0117373 0.000952789 -4.03585e-20)
(-0.0129271 0.000847132 3.9341e-20)
(-0.0141886 0.000626397 -3.8684e-20)
(-0.0137458 0.00012608 0)
(-0.0161389 0.000337958 -2.39222e-18)
(-0.0198398 -0.000122937 -2.22743e-18)
(-0.0235252 -0.000604984 3.00927e-36)
(-0.0270119 -0.00102605 -3.93876e-18)
(-0.0305648 -0.00143238 -7.44612e-18)
(-0.0342843 -0.00184042 -3.52689e-18)
(-0.0381794 -0.00225458 3.34477e-18)
(-0.0422799 -0.00268263 -1.20371e-35)
(-0.0466233 -0.00313124 0)
(-0.051237 -0.00360533 2.86762e-18)
(-0.0561482 -0.00410891 2.72486e-18)
(-0.0613935 -0.00464632 3.00927e-36)
(-0.0670085 -0.00522144 0)
(-0.0730325 -0.00583906 0)
(-0.0795359 -0.00650457 -5.12045e-35)
(-0.0865105 -0.00722166 -4.79602e-36)
(-0.0941882 -0.00800238 1.08334e-34)
(-0.102289 -0.00884233 -3.57358e-18)
(-0.111638 -0.00976993 -3.2853e-18)
(-0.121014 -0.010776 6.01853e-36)
(-0.132889 -0.0118565 5.25551e-18)
(-0.143635 -0.0131692 8.88789e-18)
(-0.160824 -0.0143419 0)
(-0.169613 -0.0162097 -4.38536e-18)
(-0.20534 -0.0171992 -1.50463e-35)
)
;
    }
    frontAndBack
    {
        type            empty;
    }
}


// ************************************************************************* //
