/*--------------------------------*- C++ -*----------------------------------*\
  =========                 |
  \\      /  F ield         | OpenFOAM: The Open Source CFD Toolbox
   \\    /   O peration     | Website:  https://openfoam.org
    \\  /    A nd           | Version:  8
     \\/     M anipulation  |
\*---------------------------------------------------------------------------*/
FoamFile
{
    version     2.0;
    format      ascii;
    class       volScalarField;
    location    "100";
    object      p;
}
// * * * * * * * * * * * * * * * * * * * * * * * * * * * * * * * * * * * * * //

dimensions      [0 2 -2 0 0 0 0];

internalField   nonuniform List<scalar> 
12225
(
-2.29614
-4.56082
-5.67813
-5.99165
-6.1688
-6.33602
-6.46558
-6.55783
-6.63034
-6.69263
-6.74603
-6.7923
-6.83045
-6.86021
-6.87979
-6.87615
-6.86774
-6.70861
-5.51888
-6.32531
-6.48214
-6.37833
-6.36141
-6.42799
-6.50396
-6.56714
-6.62325
-6.67581
-6.72415
-6.76692
-6.80382
-6.83335
-6.85536
-6.8592
-6.86634
-6.8152
-5.9339
-5.91047
-6.03348
-6.11571
-6.21529
-6.33792
-6.4456
-6.52935
-6.59858
-6.65974
-6.71424
-6.7617
-6.8028
-6.83656
-6.86409
-6.87942
-6.90327
-6.9143
-5.81109
-5.74385
-5.98982
-6.15811
-6.26235
-6.36708
-6.46297
-6.54081
-6.60627
-6.66488
-6.71786
-6.7648
-6.80632
-6.842
-6.87355
-6.89949
-6.93555
-6.98164
-5.80449
-5.82693
-6.05596
-6.20286
-6.28568
-6.37461
-6.46384
-6.53964
-6.60424
-6.66242
-6.71554
-6.76336
-6.80656
-6.8454
-6.88198
-6.9175
-6.9631
-7.02417
-5.86958
-5.91862
-6.08744
-6.21301
-6.29429
-6.37965
-6.46584
-6.54054
-6.60477
-6.66281
-6.71618
-6.76494
-6.80982
-6.85167
-6.89268
-6.93518
-6.98676
-7.05272
-5.93789
-5.98101
-6.10746
-6.22332
-6.3074
-6.38917
-6.47062
-6.54309
-6.60652
-6.66424
-6.71775
-6.76735
-6.81383
-6.85835
-6.90299
-6.95021
-7.00496
-7.07078
-5.99043
-6.0267
-6.13102
-6.23798
-6.32062
-6.39818
-6.47525
-6.54557
-6.6082
-6.6656
-6.71918
-6.76941
-6.81709
-6.86344
-6.91032
-6.95989
-7.01548
-7.07912
-6.0344
-6.06673
-6.15534
-6.25262
-6.33238
-6.40645
-6.4799
-6.54824
-6.61003
-6.66704
-6.72059
-6.77126
-6.81981
-6.86742
-6.91569
-6.96639
-7.02174
-7.08278
-6.08021
-6.10907
-6.18315
-6.2697
-6.34564
-6.41621
-6.48589
-6.55187
-6.61254
-6.66897
-6.72235
-6.77331
-6.82255
-6.87108
-6.9202
-6.97121
-7.02551
-7.08331
-6.12728
-6.15247
-6.21383
-6.2897
-6.36084
-6.42765
-6.49339
-6.55665
-6.61588
-6.67151
-6.72448
-6.77546
-6.82506
-6.87406
-6.92336
-6.97388
-7.02633
-7.08057
-6.17463
-6.19616
-6.24686
-6.31256
-6.37801
-6.4407
-6.50244
-6.56269
-6.62013
-6.67468
-6.72696
-6.7776
-6.8271
-6.876
-6.92483
-6.9741
-7.0242
-7.0747
-6.22121
-6.23934
-6.28129
-6.33771
-6.39693
-6.45517
-6.51294
-6.56998
-6.62528
-6.67841
-6.72967
-6.77951
-6.8284
-6.87658
-6.92433
-6.9718
-7.01917
-7.06603
-6.26573
-6.28091
-6.31579
-6.3641
-6.41703
-6.47068
-6.52453
-6.57826
-6.63107
-6.68244
-6.73232
-6.78096
-6.82863
-6.87553
-6.92163
-6.96696
-7.01142
-7.05484
-6.30653
-6.31931
-6.34862
-6.39016
-6.43728
-6.48641
-6.53648
-6.58691
-6.63704
-6.68634
-6.73452
-6.78153
-6.82752
-6.87259
-6.91668
-6.9596
-7.00123
-7.04137
-6.34146
-6.35239
-6.37753
-6.41377
-6.45596
-6.501
-6.54759
-6.59494
-6.6424
-6.68945
-6.73566
-6.78076
-6.82474
-6.86767
-6.90949
-6.94994
-6.98886
-7.02608
-6.36749
-6.37714
-6.39945
-6.432
-6.47053
-6.51235
-6.55609
-6.60087
-6.64595
-6.69081
-6.73499
-6.77809
-6.82
-6.86071
-6.90021
-6.93825
-6.97464
-7.00927
-6.37935
-6.38842
-6.40948
-6.44031
-6.4771
-6.51722
-6.55938
-6.60255
-6.64608
-6.68932
-6.7319
-6.77331
-6.81352
-6.85236
-6.88994
-6.92591
-6.96026
-6.99281
-6.37586
-6.38503
-6.40631
-6.4375
-6.47459
-6.51485
-6.55682
-6.59973
-6.64273
-6.68537
-6.72703
-6.76752
-6.80653
-6.84423
-6.88038
-6.91501
-6.94778
-6.97901
-6.36088
-6.37059
-6.39324
-6.42645
-6.46561
-6.5074
-6.55043
-6.59399
-6.63745
-6.68013
-6.72165
-6.76167
-6.8002
-6.83713
-6.87252
-6.90612
-6.93802
-6.9682
-6.33752
-6.34799
-6.37296
-6.40988
-6.45257
-6.49688
-6.54176
-6.58684
-6.63137
-6.67464
-6.71633
-6.75634
-6.79469
-6.83131
-6.86618
-6.89921
-6.93042
-6.96004
-6.30812
-6.31898
-6.34722
-6.39004
-6.43759
-6.48481
-6.53196
-6.57916
-6.62527
-6.66946
-6.71158
-6.75183
-6.79018
-6.82672
-6.86123
-6.89394
-6.92466
-6.95392
-6.27474
-6.28476
-6.31696
-6.36827
-6.42206
-6.4726
-6.52241
-6.57194
-6.61965
-6.66481
-6.70757
-6.74818
-6.78674
-6.82318
-6.8576
-6.88996
-6.92052
-6.94941
-6.23891
-6.24658
-6.28479
-6.34596
-6.40527
-6.4597
-6.51357
-6.56606
-6.61524
-6.66115
-6.70445
-6.74544
-6.78413
-6.82054
-6.85477
-6.88698
-6.91727
-6.94602
-6.20048
-6.20051
-6.25666
-6.33044
-6.38969
-6.44541
-6.504
-6.56029
-6.61131
-6.65817
-6.70218
-6.74364
-6.78252
-6.81891
-6.85301
-6.88507
-6.91523
-6.94384
-6.1656
-6.12438
-6.22088
-6.32411
-6.38425
-6.43784
-6.49769
-6.55536
-6.607
-6.65434
-6.69887
-6.74072
-6.77982
-6.81628
-6.85037
-6.88238
-6.91252
-6.9411
-6.18272
-6.0266
-6.13907
-6.2808
-6.36567
-6.43378
-6.50011
-6.55932
-6.61094
-6.65807
-6.70232
-6.74379
-6.78241
-6.81842
-6.85198
-6.88353
-6.91333
-6.94176
-6.30166
-6.12041
-6.12846
-6.19574
-6.27761
-6.37004
-6.45582
-6.52671
-6.58647
-6.63991
-6.68885
-6.73363
-6.77467
-6.81237
-6.84715
-6.87954
-6.91013
-6.93962
-6.03594
-6.56984
-6.65322
-6.54025
-6.48769
-6.51108
-6.55477
-6.59587
-6.63562
-6.67612
-6.71624
-6.75468
-6.79101
-6.82505
-6.85683
-6.88657
-6.91464
-6.94323
-3.153
-4.78415
-5.74914
-6.05171
-6.20144
-6.34221
-6.45482
-6.53519
-6.59848
-6.65424
-6.70457
-6.74996
-6.7912
-6.82886
-6.86329
-6.89469
-6.92293
-6.94637
-8.33287
-8.33066
-8.32859
-8.33066
-8.33471
-8.33966
-8.34566
-8.35209
-8.3582
-8.3633
-8.3676
-8.3718
-8.37776
-8.38497
-8.39176
-8.40081
-8.41286
-8.42753
-8.44432
-8.46023
-8.47399
-8.48996
-8.51187
-8.53729
-8.56502
-8.59523
-8.62803
-8.66319
-8.70065
-8.74001
-8.78108
-8.82334
-8.86651
-8.91002
-8.95357
-8.9966
-9.03883
-9.07976
-9.11919
-9.15667
-9.19211
-9.22514
-9.25576
-9.28369
-9.30899
-9.33141
-9.35107
-9.36778
-9.38166
-9.39256
-9.40063
-9.40577
-9.40811
-9.40757
-9.40431
-9.39829
-9.38962
-9.37831
-9.36446
-9.34808
-9.3293
-9.30818
-9.28482
-9.25933
-9.23179
-9.20237
-9.17111
-9.13822
-9.10373
-9.06785
-9.03062
-8.99227
-8.95281
-8.91251
-8.87132
-8.82954
-8.78705
-8.7442
-8.7008
-8.65719
-8.61314
-8.56894
-8.52422
-8.47924
-8.43356
-8.38752
-8.34055
-8.29259
-8.24282
-8.19081
-8.13649
-8.07934
-8.01887
-7.95452
-7.88576
-7.81194
-7.73224
-7.64587
-7.5518
-7.44911
-7.33661
-7.21333
-7.07803
-6.92943
-6.76589
-6.58638
-6.38939
-6.17378
-5.93833
-5.68224
-5.40437
-5.10399
-4.77995
-4.43163
-4.05822
-3.65948
-3.23502
-2.78495
-2.30921
-1.80834
-1.283
-0.734361
-0.163769
0.426896
1.03561
1.65993
2.29724
2.94455
3.59872
4.25637
4.91406
5.56833
6.21582
6.85325
7.47746
8.08548
8.67461
9.24256
9.7873
10.3072
10.8009
11.2677
11.707
12.119
12.5043
12.8636
13.198
13.5087
13.7963
14.0614
14.3046
14.527
14.7299
14.9145
15.0819
15.2335
15.3703
15.4937
15.6046
15.7041
15.7932
15.8728
15.9438
16.007
16.0631
16.1129
16.157
16.1961
16.2309
16.2619
16.2898
16.3155
16.3397
16.3637
16.3894
16.4195
16.4608
16.5208
16.6279
16.7696
-8.33116
-8.32984
-8.3285
-8.33058
-8.33423
-8.33805
-8.34188
-8.34539
-8.34837
-8.35065
-8.35238
-8.35426
-8.35726
-8.36129
-8.36652
-8.37323
-8.38051
-8.38813
-8.39611
-8.40537
-8.41938
-8.44003
-8.4635
-8.48741
-8.51352
-8.5425
-8.57443
-8.6091
-8.64637
-8.68587
-8.7273
-8.77018
-8.81414
-8.8586
-8.90314
-8.94722
-8.99046
-9.0324
-9.07274
-9.11111
-9.14733
-9.18112
-9.21241
-9.24098
-9.26683
-9.28981
-9.30995
-9.32716
-9.34146
-9.35281
-9.36126
-9.36679
-9.36945
-9.36924
-9.36624
-9.36045
-9.35196
-9.34078
-9.327
-9.31065
-9.29183
-9.27061
-9.24707
-9.22134
-9.19349
-9.16367
-9.13195
-9.09851
-9.06343
-9.02687
-8.98893
-8.9498
-8.90955
-8.86838
-8.82634
-8.78365
-8.74031
-8.69653
-8.65232
-8.60786
-8.56309
-8.51819
-8.47301
-8.42765
-8.38187
-8.33578
-8.28911
-8.24162
-8.19268
-8.14204
-8.08941
-8.03431
-7.97622
-7.9145
-7.84862
-7.77775
-7.70122
-7.61801
-7.52735
-7.4281
-7.3194
-7.19985
-7.06822
-6.92329
-6.76406
-6.58897
-6.39703
-6.1871
-5.95807
-5.70876
-5.43819
-5.14524
-4.82909
-4.48878
-4.12371
-3.73339
-3.31759
-2.87612
-2.4091
-1.9169
-1.40017
-0.859929
-0.297473
0.285521
0.887094
1.50496
2.13655
2.77899
3.4292
4.08387
4.73957
5.39287
6.04039
6.67876
7.30481
7.91548
8.50798
9.07988
9.62913
10.154
10.653
11.1252
11.5703
11.9881
12.3791
12.7437
13.0827
13.3975
13.689
13.9582
14.2058
14.4327
14.64
14.8291
15.0009
15.1568
15.2979
15.4253
15.5401
15.6434
15.7361
15.8191
15.8933
15.9595
16.0186
16.0711
16.1178
16.1594
16.1965
16.2297
16.2598
16.2874
16.3135
16.3394
16.3669
16.3987
16.4399
16.4957
16.591
16.7082
-8.32375
-8.32461
-8.32517
-8.3278
-8.33093
-8.33329
-8.3348
-8.3355
-8.33548
-8.33492
-8.3344
-8.33446
-8.33531
-8.33698
-8.34002
-8.34501
-8.35166
-8.35959
-8.36871
-8.37915
-8.39193
-8.40812
-8.42765
-8.45017
-8.4761
-8.50543
-8.53796
-8.57326
-8.61104
-8.65082
-8.69224
-8.73479
-8.77807
-8.82159
-8.86499
-8.90782
-8.94975
-8.99042
-9.02956
-9.06687
-9.10217
-9.13522
-9.16591
-9.19406
-9.2196
-9.24242
-9.26249
-9.27972
-9.29412
-9.30563
-9.31427
-9.32002
-9.32292
-9.32296
-9.32018
-9.31461
-9.3063
-9.29528
-9.2816
-9.26533
-9.24653
-9.22527
-9.20165
-9.17576
-9.14769
-9.11758
-9.08552
-9.05165
-9.01608
-8.97898
-8.94046
-8.90069
-8.8598
-8.81794
-8.77523
-8.73183
-8.68784
-8.6434
-8.5986
-8.55355
-8.5083
-8.46295
-8.41748
-8.3719
-8.32614
-8.28018
-8.23386
-8.18692
-8.13894
-8.08958
-8.03867
-7.98572
-7.93017
-7.87147
-7.809
-7.74192
-7.66954
-7.59079
-7.50492
-7.41071
-7.30729
-7.19324
-7.0675
-6.92861
-6.77572
-6.60737
-6.4226
-6.2201
-5.99902
-5.75803
-5.49616
-5.21205
-4.90499
-4.57401
-4.21859
-3.83806
-3.43223
-3.00075
-2.54379
-2.06164
-1.55498
-1.02462
-0.471867
0.101805
0.694539
1.30417
1.92822
2.56393
3.20829
3.85807
4.50992
5.1604
5.80614
6.44374
7.07002
7.68184
8.27643
8.85126
9.40425
9.93357
10.4379
10.9162
11.3681
11.7935
12.1924
12.5656
12.9135
13.2372
13.5375
13.8151
14.0708
14.3056
14.5206
14.7169
14.8957
15.0581
15.2054
15.3387
15.459
15.5674
15.6649
15.7525
15.831
15.9012
15.9639
16.0199
16.0699
16.1145
16.1545
16.1904
16.2229
16.2529
16.2812
16.3092
16.3384
16.3714
16.4124
16.4641
16.5445
16.6244
-8.30767
-8.31209
-8.31631
-8.32087
-8.32475
-8.32714
-8.32809
-8.32781
-8.32655
-8.32462
-8.32259
-8.32092
-8.32004
-8.32023
-8.32201
-8.32585
-8.3319
-8.34007
-8.35036
-8.36276
-8.37757
-8.39505
-8.41543
-8.43877
-8.46522
-8.49465
-8.52691
-8.56167
-8.59866
-8.63748
-8.67781
-8.71917
-8.76123
-8.80353
-8.84571
-8.88736
-8.92815
-8.96773
-9.00585
-9.0422
-9.07662
-9.10886
-9.13881
-9.1663
-9.19125
-9.21353
-9.23313
-9.24994
-9.26396
-9.27513
-9.28347
-9.28894
-9.29157
-9.29136
-9.28833
-9.2825
-9.27392
-9.26261
-9.24864
-9.23204
-9.21289
-9.19126
-9.16723
-9.14091
-9.11237
-9.08175
-9.04916
-9.01472
-8.97858
-8.94088
-8.90176
-8.86138
-8.8199
-8.77747
-8.73425
-8.69037
-8.64599
-8.60123
-8.5562
-8.51101
-8.46573
-8.42044
-8.37518
-8.32992
-8.28464
-8.23928
-8.19373
-8.14774
-8.1009
-8.05309
-8.00393
-7.95303
-7.89986
-7.84389
-7.78441
-7.72074
-7.65195
-7.57723
-7.49555
-7.40595
-7.30726
-7.19834
-7.07785
-6.94462
-6.79748
-6.63528
-6.45677
-6.26087
-6.04649
-5.81253
-5.55774
-5.28089
-4.98111
-4.65764
-4.3098
-3.937
-3.53884
-3.11505
-2.6657
-2.19113
-1.69191
-1.16887
-0.623219
-0.0563652
0.529923
1.13356
1.75214
2.38297
3.02309
3.66934
4.31839
4.96682
5.61124
6.24825
6.8746
7.48719
8.08319
8.66009
9.21582
9.74855
10.257
10.7402
11.1977
11.6292
12.0348
12.4149
12.7699
13.1007
13.4079
13.6923
13.9545
14.1957
14.4169
14.6191
14.8036
14.9715
15.124
15.2622
15.3872
15.5
15.6016
15.693
15.775
15.8486
15.9145
15.9734
16.0262
16.0734
16.1157
16.1538
16.1885
16.2203
16.2503
16.2796
16.3098
16.3427
16.3818
16.4273
16.4914
16.5389
-8.28355
-8.29189
-8.30103
-8.30864
-8.31429
-8.31779
-8.31943
-8.31958
-8.31865
-8.31701
-8.31519
-8.31364
-8.31289
-8.31331
-8.3154
-8.3195
-8.32589
-8.33463
-8.34582
-8.3595
-8.37582
-8.39481
-8.41661
-8.44119
-8.4686
-8.49867
-8.53126
-8.56606
-8.60283
-8.64116
-8.68077
-8.72121
-8.76218
-8.80324
-8.84409
-8.88433
-8.92371
-8.96187
-8.9986
-9.03361
-9.06676
-9.0978
-9.12663
-9.15307
-9.17704
-9.19843
-9.21719
-9.23322
-9.24651
-9.257
-9.26468
-9.26952
-9.27153
-9.2707
-9.26706
-9.26062
-9.2514
-9.23946
-9.22482
-9.20754
-9.18769
-9.16533
-9.14056
-9.11347
-9.08415
-9.05273
-9.01933
-8.98408
-8.94713
-8.90863
-8.86875
-8.82764
-8.78548
-8.74244
-8.69868
-8.65438
-8.60968
-8.56473
-8.51966
-8.47458
-8.4296
-8.38478
-8.34016
-8.29575
-8.25152
-8.20739
-8.16327
-8.11891
-8.07404
-8.0283
-7.98159
-7.93336
-7.8831
-7.83032
-7.77424
-7.71425
-7.64933
-7.57883
-7.50153
-7.41668
-7.32283
-7.21908
-7.10386
-6.97624
-6.83472
-6.67842
-6.5058
-6.316
-6.10762
-5.8798
-5.63102
-5.36039
-5.06667
-4.74934
-4.40747
-4.04067
-3.64825
-3.23011
-2.78614
-2.31679
-1.82248
-1.30412
-0.762756
-0.19985
0.382923
0.983486
1.59948
2.22824
2.86682
3.51207
4.16063
4.80912
5.45405
6.09206
6.71978
7.33419
7.93236
8.51191
9.07065
9.60692
10.1193
10.6068
11.0688
11.5051
11.9156
12.3007
12.6608
12.9966
13.3087
13.5978
13.8647
14.1104
14.336
14.5425
14.7312
14.9031
15.0595
15.2014
15.3299
15.4461
15.5509
15.6452
15.73
15.8062
15.8744
15.9356
15.9904
16.0395
16.0836
16.1234
16.1594
16.1925
16.2235
16.2533
16.2834
16.315
16.3507
16.3892
16.4382
16.46
-8.25552
-8.26781
-8.2826
-8.29395
-8.30207
-8.30747
-8.31066
-8.31213
-8.31243
-8.312
-8.31135
-8.31096
-8.31137
-8.31298
-8.31626
-8.32152
-8.32905
-8.33898
-8.35145
-8.36648
-8.38416
-8.40449
-8.42752
-8.45318
-8.48143
-8.51207
-8.54496
-8.57976
-8.61625
-8.65405
-8.69287
-8.73233
-8.77215
-8.81192
-8.8514
-8.89021
-8.92813
-8.96483
-9.00012
-9.03374
-9.06553
-9.09528
-9.12288
-9.14815
-9.17102
-9.19136
-9.20911
-9.22419
-9.23656
-9.24615
-9.25296
-9.25695
-9.2581
-9.25642
-9.25192
-9.2446
-9.23449
-9.22162
-9.20603
-9.18779
-9.16694
-9.14357
-9.11776
-9.08961
-9.05922
-9.02673
-8.99226
-8.95595
-8.91797
-8.87847
-8.83762
-8.79563
-8.75265
-8.70889
-8.66453
-8.61974
-8.57471
-8.5296
-8.48455
-8.43971
-8.39517
-8.35103
-8.30734
-8.2641
-8.22131
-8.17888
-8.13671
-8.0946
-8.05215
-8.00933
-7.96566
-7.92076
-7.87413
-7.82512
-7.77314
-7.71733
-7.65696
-7.59105
-7.51874
-7.4389
-7.35044
-7.25204
-7.1425
-7.02051
-6.88489
-6.73438
-6.56781
-6.38393
-6.18157
-5.9595
-5.71655
-5.45161
-5.16364
-4.85176
-4.51525
-4.1535
-3.76598
-3.35242
-2.91279
-2.44738
-1.95667
-1.44146
-0.902811
-0.342133
0.238898
0.838236
1.45353
2.0821
2.721
3.36704
4.01685
4.66701
5.314
5.95438
6.58482
7.20221
7.8037
8.38688
8.94953
9.48988
10.0065
10.4983
10.9647
11.4054
11.8203
12.2097
12.5739
12.9137
13.2296
13.5224
13.7929
14.0421
14.271
14.4809
14.6727
14.8478
15.0071
15.152
15.2833
15.4021
15.5094
15.6062
15.6933
15.7715
15.8417
15.9047
15.9611
16.0117
16.0571
16.098
16.135
16.1688
16.2002
16.23
16.2592
16.2888
16.3202
16.3512
16.3871
16.3885
-8.22812
-8.24391
-8.26402
-8.27901
-8.28981
-8.29751
-8.30275
-8.30608
-8.30815
-8.30944
-8.31052
-8.31184
-8.31393
-8.3172
-8.3221
-8.32891
-8.33795
-8.34934
-8.36325
-8.3797
-8.39875
-8.42035
-8.4445
-8.47107
-8.49999
-8.53103
-8.56403
-8.59869
-8.63479
-8.67198
-8.71002
-8.74852
-8.78724
-8.82582
-8.86402
-8.9015
-8.93805
-8.97337
-9.00729
-9.03955
-9.07002
-9.09848
-9.12483
-9.1489
-9.1706
-9.18981
-9.20647
-9.22048
-9.2318
-9.24037
-9.24615
-9.24911
-9.24923
-9.2465
-9.24093
-9.23251
-9.22127
-9.20725
-9.19047
-9.171
-9.1489
-9.12425
-9.09714
-9.06767
-9.03595
-9.00213
-8.96634
-8.92874
-8.8895
-8.8488
-8.80682
-8.76378
-8.71986
-8.67527
-8.63023
-8.58492
-8.53955
-8.4943
-8.44933
-8.4048
-8.36084
-8.31754
-8.27497
-8.23316
-8.19208
-8.15168
-8.11184
-8.07234
-8.03294
-7.99329
-7.95326
-7.91223
-7.86974
-7.82507
-7.77769
-7.72662
-7.67127
-7.61049
-7.54359
-7.4692
-7.38645
-7.29374
-7.19007
-7.07384
-6.94419
-6.79956
-6.63906
-6.46108
-6.26465
-6.04821
-5.81092
-5.55137
-5.26877
-4.96192
-4.63031
-4.27305
-3.88983
-3.48016
-3.04415
-2.58187
-2.09391
-1.5809
-1.04398
-0.484456
0.095939
0.695202
1.31095
1.94049
2.58085
3.22879
3.88093
4.53376
5.18378
5.82744
6.46148
7.08269
7.68832
8.27574
8.84283
9.3876
9.90868
10.4049
10.8757
11.3206
11.7397
12.133
12.501
12.8442
13.1635
13.4594
13.733
13.9851
14.2169
14.4294
14.6239
14.8015
14.9633
15.1105
15.2441
15.3651
15.4746
15.5734
15.6624
15.7425
15.8143
15.8788
15.9365
15.9883
16.0348
16.0766
16.1142
16.1483
16.1797
16.2089
16.2368
16.2637
16.2905
16.3142
16.3386
16.3236
-8.20506
-8.2237
-8.24817
-8.26625
-8.2795
-8.28949
-8.29687
-8.30223
-8.30627
-8.3095
-8.31252
-8.31575
-8.31974
-8.32484
-8.3315
-8.33998
-8.35059
-8.36344
-8.37873
-8.39644
-8.41666
-8.43929
-8.46431
-8.49156
-8.52094
-8.55223
-8.58525
-8.61971
-8.6554
-8.692
-8.72927
-8.76687
-8.80458
-8.84204
-8.87905
-8.9153
-8.95058
-8.98462
-9.01726
-9.04826
-9.07748
-9.10472
-9.12986
-9.15276
-9.17331
-9.19139
-9.20694
-9.21985
-9.23007
-9.23754
-9.24221
-9.24404
-9.24301
-9.2391
-9.2323
-9.22262
-9.21008
-9.19471
-9.17653
-9.15562
-9.13204
-9.10588
-9.07722
-9.04618
-9.0129
-8.97751
-8.94017
-8.90105
-8.86034
-8.81825
-8.77496
-8.73072
-8.68573
-8.64024
-8.59445
-8.5486
-8.5029
-8.45755
-8.41275
-8.36866
-8.32543
-8.28316
-8.24195
-8.20181
-8.16274
-8.12468
-8.08752
-8.05104
-8.01493
-7.97911
-7.94305
-7.90638
-7.86841
-7.82862
-7.7862
-7.74048
-7.6905
-7.63546
-7.57425
-7.50584
-7.42891
-7.34225
-7.24448
-7.13437
-7.01068
-6.87221
-6.71763
-6.54563
-6.35488
-6.14411
-5.91216
-5.65788
-5.38019
-5.0781
-4.75084
-4.39769
-4.01815
-3.61184
-3.17873
-2.71893
-2.23291
-1.72135
-1.18529
-0.626088
-0.0454418
0.554618
1.17169
1.80305
2.44568
3.09631
3.75152
4.40776
5.06147
5.70912
6.34739
6.97304
7.58323
8.17531
8.74703
9.29641
9.822
10.3226
10.7977
11.2467
11.6696
12.0666
12.438
12.7845
13.1067
13.4055
13.6817
13.9364
14.1705
14.3854
14.5821
14.7618
14.9257
15.0749
15.2104
15.3333
15.4445
15.545
15.6357
15.7174
15.7907
15.8565
15.9155
15.9684
16.0157
16.0581
16.0961
16.1303
16.1613
16.1897
16.2158
16.2398
16.262
16.2786
16.2931
16.265
-8.18882
-8.20953
-8.23703
-8.25733
-8.27254
-8.2845
-8.29383
-8.30109
-8.30701
-8.31214
-8.31705
-8.32218
-8.32801
-8.33489
-8.34325
-8.3533
-8.36536
-8.37954
-8.396
-8.41476
-8.43587
-8.45924
-8.48484
-8.5125
-8.54211
-8.57345
-8.60633
-8.64049
-8.67572
-8.71171
-8.74824
-8.785
-8.82176
-8.85821
-8.89415
-8.92928
-8.96344
-8.99634
-9.02784
-9.0577
-9.08579
-9.11192
-9.13597
-9.15777
-9.17725
-9.19426
-9.20873
-9.22056
-9.22969
-9.23603
-9.23955
-9.2402
-9.23794
-9.23274
-9.22461
-9.21354
-9.19954
-9.18264
-9.16289
-9.14035
-9.11508
-9.08718
-9.05675
-9.02393
-8.98884
-8.95166
-8.91254
-8.87169
-8.82931
-8.78563
-8.74087
-8.69528
-8.6491
-8.6026
-8.55601
-8.50959
-8.46357
-8.41819
-8.37364
-8.33012
-8.28778
-8.24675
-8.20712
-8.16892
-8.13216
-8.09677
-8.06264
-8.02954
-7.99727
-7.96547
-7.93389
-7.90195
-7.86895
-7.83443
-7.79745
-7.75746
-7.71335
-7.66443
-7.60932
-7.54715
-7.47633
-7.39594
-7.30435
-7.2006
-7.08308
-6.95085
-6.80221
-6.63617
-6.45104
-6.24586
-6.01908
-5.76986
-5.49679
-5.19915
-4.87584
-4.52637
-4.14998
-3.74651
-3.31567
-2.85773
-2.37296
-1.86216
-1.32627
-0.766677
-0.185074
0.416464
1.03552
1.66933
2.31484
2.96876
3.62761
4.28787
4.94586
5.59809
6.24105
6.87158
7.48661
8.08357
8.66001
9.21406
9.74409
10.2491
10.7282
11.1811
11.6076
12.008
12.3827
12.7321
13.0571
13.3584
13.637
13.8939
14.1301
14.347
14.5457
14.7273
14.8929
15.0438
15.181
15.3054
15.4182
15.5202
15.6123
15.6953
15.77
15.8371
15.8972
15.9509
15.999
16.0419
16.0802
16.1143
16.1447
16.1719
16.1961
16.2171
16.2345
16.2446
16.2506
16.2119
-8.1807
-8.2026
-8.2316
-8.25317
-8.26969
-8.2831
-8.29397
-8.30281
-8.31035
-8.31712
-8.3237
-8.33048
-8.33794
-8.34639
-8.3562
-8.36761
-8.38088
-8.39612
-8.41351
-8.43303
-8.45475
-8.47857
-8.50447
-8.53228
-8.56189
-8.59307
-8.62566
-8.6594
-8.6941
-8.72945
-8.76525
-8.8012
-8.8371
-8.87263
-8.90763
-8.9418
-8.97498
-9.0069
-9.03741
-9.06629
-9.09341
-9.11857
-9.14166
-9.1625
-9.181
-9.19703
-9.2105
-9.2213
-9.22936
-9.23459
-9.23695
-9.23637
-9.23283
-9.22628
-9.21671
-9.20412
-9.18852
-9.16995
-9.14845
-9.12408
-9.09692
-9.06707
-9.03466
-8.99982
-8.96271
-8.9235
-8.88239
-8.8396
-8.79535
-8.74989
-8.70349
-8.65641
-8.60893
-8.56133
-8.51388
-8.46687
-8.42055
-8.37518
-8.33097
-8.28815
-8.24687
-8.20728
-8.16947
-8.13349
-8.09934
-8.06694
-8.03619
-8.00687
-7.97867
-7.95144
-7.92467
-7.89778
-7.87022
-7.84125
-7.81025
-7.77627
-7.73854
-7.6959
-7.64732
-7.59149
-7.52726
-7.45327
-7.36828
-7.27088
-7.15981
-7.0337
-6.89121
-6.73093
-6.55152
-6.35165
-6.13005
-5.88553
-5.61695
-5.32331
-5.00371
-4.65742
-4.28385
-3.88266
-3.45366
-2.997
-2.51302
-2.00244
-1.46623
-0.905773
-0.322764
0.280691
0.902136
1.53881
2.18764
2.84534
3.50838
4.17317
4.83599
5.49322
6.14131
6.77697
7.39709
7.99901
8.58027
9.13893
9.67335
10.1825
10.6655
11.1221
11.5521
11.9557
12.3332
12.6854
13.0128
13.3164
13.5972
13.856
14.0942
14.3129
14.5133
14.6965
14.8638
15.0162
15.1548
15.2807
15.3948
15.4981
15.5915
15.6757
15.7516
15.8197
15.8808
15.9354
15.9841
16.0274
16.0658
16.0997
16.1295
16.1554
16.1775
16.1953
16.2084
16.2124
16.211
16.1638
-8.18085
-8.20302
-8.2321
-8.25402
-8.27115
-8.2854
-8.29727
-8.30723
-8.31597
-8.32401
-8.33189
-8.33998
-8.34871
-8.35838
-8.36933
-8.38176
-8.39592
-8.41193
-8.42991
-8.4499
-8.47193
-8.49593
-8.52187
-8.54958
-8.57897
-8.60983
-8.642
-8.67522
-8.70932
-8.74401
-8.7791
-8.8143
-8.84941
-8.88415
-8.91833
-8.95168
-8.98404
-9.01514
-9.04485
-9.07292
-9.09923
-9.12358
-9.14585
-9.16587
-9.18353
-9.19867
-9.21123
-9.22106
-9.2281
-9.23224
-9.23343
-9.2316
-9.22672
-9.21873
-9.20762
-9.19339
-9.17605
-9.15564
-9.1322
-9.10581
-9.07655
-9.04454
-9.00992
-8.97284
-8.93347
-8.89202
-8.8487
-8.80375
-8.75744
-8.71004
-8.66183
-8.61313
-8.56424
-8.51547
-8.46712
-8.41951
-8.37292
-8.32762
-8.28387
-8.24188
-8.20184
-8.1639
-8.12816
-8.09467
-8.06341
-8.03433
-8.00729
-7.98208
-7.95844
-7.93596
-7.91442
-7.89296
-7.87115
-7.84813
-7.82338
-7.79579
-7.76465
-7.72858
-7.68673
-7.63754
-7.58008
-7.5127
-7.43439
-7.34342
-7.23881
-7.11881
-6.98241
-6.82781
-6.65399
-6.45925
-6.24262
-6.00257
-5.73824
-5.44832
-5.13216
-4.78875
-4.41772
-4.01849
-3.59105
-3.13536
-2.65191
-2.1413
-1.60459
-1.04305
-0.458421
0.147216
0.771389
1.41131
2.06395
2.72589
3.39361
4.06335
4.73139
5.39391
6.04739
6.6883
7.31362
7.92048
8.50655
9.06967
9.60837
10.1214
10.6082
11.0682
11.5014
11.908
12.2883
12.6429
12.9726
13.2783
13.561
13.8217
14.0616
14.2819
14.4839
14.6687
14.8374
14.9912
15.1311
15.2582
15.3736
15.4781
15.5726
15.6579
15.7349
15.804
15.866
15.9214
15.9706
16.0143
16.0527
16.0863
16.1153
16.1398
16.1598
16.1746
16.1834
16.182
16.1742
16.1202
-8.18858
-8.21021
-8.23814
-8.2596
-8.27666
-8.29109
-8.30337
-8.31391
-8.32336
-8.3322
-8.34094
-8.3499
-8.3595
-8.36999
-8.38168
-8.39477
-8.40947
-8.42588
-8.44416
-8.46429
-8.48635
-8.51026
-8.53598
-8.56339
-8.59238
-8.62276
-8.65438
-8.68701
-8.72047
-8.75449
-8.78891
-8.82341
-8.85783
-8.89187
-8.92537
-8.95805
-8.98975
-9.02021
-9.04928
-9.07672
-9.10241
-9.12612
-9.14773
-9.16706
-9.184
-9.19837
-9.21009
-9.21902
-9.22507
-9.22813
-9.22814
-9.22502
-9.21873
-9.20922
-9.19646
-9.18045
-9.16121
-9.13877
-9.1132
-9.08458
-9.05301
-9.01861
-8.98154
-8.94198
-8.90012
-8.8562
-8.81045
-8.76315
-8.71458
-8.66506
-8.6149
-8.56447
-8.51407
-8.46407
-8.41481
-8.36662
-8.3198
-8.27467
-8.23149
-8.1905
-8.1519
-8.11583
-8.08241
-8.05168
-8.02363
-7.99818
-7.9752
-7.95445
-7.93554
-7.91836
-7.90221
-7.8866
-7.87072
-7.85405
-7.83568
-7.81483
-7.79034
-7.7612
-7.72608
-7.68384
-7.63307
-7.57253
-7.50072
-7.41634
-7.31794
-7.20417
-7.07355
-6.92469
-6.75614
-6.56653
-6.35455
-6.11895
-5.85861
-5.57246
-5.25955
-4.91907
-4.55044
-4.15319
-3.72719
-3.27249
-2.78946
-2.27873
-1.74128
-1.1784
-0.591807
0.0163896
0.643705
1.28733
1.94415
2.61074
3.28346
3.95846
4.63191
5.29992
5.95883
6.60508
7.23554
7.84731
8.43798
9.00547
9.54823
10.0651
10.5554
11.0186
11.4548
11.864
12.2468
12.6036
12.9354
13.243
13.5275
13.7899
14.0314
14.2532
14.4566
14.6428
14.8128
14.9679
15.1091
15.2374
15.3539
15.4596
15.5552
15.6416
15.7195
15.7896
15.8524
15.9084
15.9582
16.0021
16.0405
16.0737
16.1019
16.1251
16.143
16.1548
16.1597
16.1534
16.14
16.0805
-8.20268
-8.22314
-8.249
-8.26929
-8.28566
-8.29964
-8.31172
-8.32229
-8.33191
-8.34104
-8.35013
-8.35949
-8.36949
-8.38036
-8.39239
-8.40573
-8.4206
-8.43709
-8.45532
-8.47532
-8.49713
-8.52069
-8.54599
-8.57289
-8.60133
-8.6311
-8.66209
-8.69405
-8.72685
-8.76022
-8.79399
-8.82787
-8.86169
-8.89516
-8.92812
-8.96028
-8.99148
-9.02146
-9.05006
-9.07704
-9.10226
-9.12548
-9.14657
-9.16534
-9.18167
-9.19536
-9.20632
-9.21438
-9.21947
-9.22144
-9.22024
-9.21577
-9.20798
-9.19682
-9.18226
-9.16431
-9.14298
-9.11831
-9.09039
-9.05931
-9.02517
-8.98812
-8.94835
-8.90605
-8.86144
-8.81478
-8.76635
-8.71644
-8.66539
-8.61355
-8.56128
-8.50895
-8.45694
-8.40564
-8.35541
-8.30663
-8.25964
-8.21475
-8.17226
-8.13242
-8.09544
-8.06147
-8.03063
-8.00294
-7.9784
-7.9569
-7.9383
-7.92231
-7.90862
-7.89687
-7.88655
-7.87701
-7.86741
-7.85731
-7.84563
-7.83169
-7.81412
-7.79204
-7.76388
-7.72867
-7.68473
-7.63104
-7.56581
-7.48801
-7.39585
-7.28828
-7.16345
-7.02029
-6.857
-6.67254
-6.46524
-6.23416
-5.97782
-5.69542
-5.38571
-5.04811
-4.68176
-4.2864
-3.86167
-3.40776
-2.92488
-2.41372
-1.87517
-1.31058
-0.721662
-0.110539
0.520264
1.16792
1.82921
2.50069
3.17855
3.85892
4.53776
5.21125
5.87548
6.52698
7.16236
7.77884
8.37384
8.94544
9.49199
10.0124
10.5059
10.9722
11.411
11.8227
12.2078
12.5667
12.9004
13.2097
13.4958
13.7598
14.0028
14.226
14.4308
14.6182
14.7895
14.9458
15.0882
15.2177
15.3354
15.4421
15.5388
15.6263
15.7051
15.7761
15.8397
15.8963
15.9465
15.9906
16.029
16.0618
16.0892
16.111
16.1269
16.1359
16.1372
16.1266
16.1084
16.0444
-8.2218
-8.24062
-8.26386
-8.28236
-8.29747
-8.31044
-8.32174
-8.33175
-8.34099
-8.34985
-8.35877
-8.36801
-8.37793
-8.38872
-8.40064
-8.41384
-8.4285
-8.4447
-8.46258
-8.48213
-8.50344
-8.52642
-8.5511
-8.57732
-8.60506
-8.63412
-8.66441
-8.69569
-8.72782
-8.76054
-8.79369
-8.82699
-8.86028
-8.89327
-8.9258
-8.95757
-8.98842
-9.01807
-9.04636
-9.07302
-9.0979
-9.12077
-9.14146
-9.15977
-9.17555
-9.18861
-9.19882
-9.20602
-9.2101
-9.21091
-9.20838
-9.20241
-9.19294
-9.17992
-9.16334
-9.14319
-9.11951
-9.09234
-9.06177
-9.0279
-8.99087
-8.95083
-8.908
-8.8626
-8.8149
-8.76518
-8.71374
-8.66095
-8.60716
-8.55277
-8.49816
-8.44379
-8.39004
-8.33735
-8.28614
-8.23679
-8.18968
-8.14516
-8.10352
-8.06505
-8.02994
-7.99837
-7.97042
-7.94613
-7.92548
-7.90834
-7.89453
-7.88373
-7.87562
-7.86979
-7.86571
-7.86255
-7.85972
-7.85643
-7.85192
-7.84506
-7.83485
-7.81994
-7.79913
-7.77096
-7.73418
-7.68727
-7.6289
-7.55756
-7.47189
-7.37036
-7.25154
-7.11391
-6.95605
-6.77653
-6.574
-6.34718
-6.09484
-5.8159
-5.50932
-5.1743
-4.81011
-4.41631
-3.99263
-3.53915
-3.05611
-2.54415
-2.00417
-1.43753
-0.845971
-0.231644
0.402886
1.05473
1.72063
2.397
3.07999
3.76562
4.44979
5.12853
5.79789
6.45429
7.09432
7.7151
8.31409
8.88935
9.43931
9.96288
10.4593
10.9282
11.3695
11.7834
12.1704
12.5312
12.8666
13.1776
13.4652
13.7307
13.9751
14.1997
14.4058
14.5944
14.767
14.9245
15.068
15.1988
15.3176
15.4254
15.5232
15.6116
15.6914
15.7632
15.8275
15.8847
15.9353
15.9797
16.018
16.0504
16.077
16.0975
16.1115
16.1179
16.116
16.1015
16.079
16.0115
-8.2446
-8.26153
-8.28184
-8.29816
-8.31151
-8.32292
-8.33288
-8.34175
-8.35001
-8.35802
-8.36619
-8.37478
-8.38408
-8.39429
-8.40564
-8.41824
-8.43228
-8.44782
-8.46499
-8.48379
-8.50431
-8.52648
-8.55031
-8.57569
-8.60259
-8.63081
-8.66028
-8.69078
-8.72218
-8.75424
-8.78679
-8.81956
-8.85239
-8.88499
-8.91717
-8.94865
-8.97924
-9.00866
-9.03672
-9.06316
-9.08779
-9.11037
-9.13071
-9.14858
-9.16383
-9.17623
-9.18565
-9.1919
-9.19485
-9.19436
-9.19033
-9.18265
-9.17128
-9.15615
-9.13726
-9.1146
-9.08822
-9.05817
-9.02454
-8.98747
-8.94713
-8.90371
-8.85745
-8.80859
-8.75745
-8.70433
-8.6496
-8.59365
-8.53687
-8.47973
-8.42265
-8.36611
-8.31058
-8.25652
-8.20438
-8.15459
-8.10754
-8.06362
-8.02312
-7.98635
-7.95349
-7.92473
-7.90013
-7.87972
-7.86344
-7.85117
-7.84264
-7.83757
-7.83554
-7.83604
-7.83865
-7.84236
-7.84668
-7.85063
-7.85357
-7.85417
-7.85154
-7.84408
-7.83074
-7.80979
-7.78019
-7.74015
-7.68862
-7.62378
-7.54453
-7.44901
-7.33609
-7.20391
-7.05135
-6.87663
-6.67871
-6.45594
-6.20739
-5.93164
-5.62794
-5.29519
-4.93287
-4.5403
-4.11736
-3.66392
-3.18037
-2.66726
-2.12559
-1.55669
-0.962346
-0.344752
0.293545
0.949571
1.62004
2.30121
2.9892
3.67984
4.36905
5.05262
5.72668
6.38743
7.03159
7.6561
8.25857
8.83694
9.38981
9.91602
10.4149
10.886
11.3294
11.7452
12.134
12.4965
12.8334
13.1459
13.4349
13.7017
13.9475
14.1735
14.3808
14.5708
14.7446
14.9033
15.0481
15.1801
15.3001
15.4091
15.5079
15.5974
15.6781
15.7507
15.8157
15.8735
15.9245
15.969
16.0073
16.0393
16.0651
16.0844
16.0967
16.1008
16.0959
16.078
16.0518
15.9817
-8.27002
-8.28508
-8.30245
-8.31631
-8.32746
-8.33677
-8.34478
-8.35187
-8.3585
-8.36502
-8.37181
-8.37911
-8.38721
-8.39625
-8.40646
-8.41794
-8.43085
-8.44526
-8.46128
-8.47893
-8.49828
-8.51928
-8.54196
-8.56621
-8.592
-8.61918
-8.64767
-8.67727
-8.70787
-8.73921
-8.77116
-8.80342
-8.83582
-8.86808
-8.89998
-8.93124
-8.96164
-8.99089
-9.01879
-9.04505
-9.06946
-9.09176
-9.11173
-9.12913
-9.14377
-9.15542
-9.16391
-9.16905
-9.17069
-9.16869
-9.16292
-9.15329
-9.13974
-9.12219
-9.10067
-9.07515
-9.04572
-9.01243
-8.9754
-8.9348
-8.89081
-8.84366
-8.79361
-8.74096
-8.68606
-8.62927
-8.57101
-8.51171
-8.45182
-8.39183
-8.33223
-8.27355
-8.21631
-8.16102
-8.10816
-8.05819
-8.01154
-7.96858
-7.92966
-7.89505
-7.86496
-7.83953
-7.81884
-7.80288
-7.79155
-7.7847
-7.78204
-7.78324
-7.78767
-7.79518
-7.80479
-7.81591
-7.82762
-7.83927
-7.8498
-7.85823
-7.8632
-7.86346
-7.85746
-7.84389
-7.82123
-7.78815
-7.74315
-7.68483
-7.61164
-7.5221
-7.41466
-7.28785
-7.14014
-6.9701
-6.77631
-6.55742
-6.31217
-6.03939
-5.73807
-5.4073
-5.04638
-4.65475
-4.23217
-3.77856
-3.29426
-2.77989
-2.23644
-1.66529
-1.06821
-0.447391
0.194584
0.854691
1.52951
2.21521
2.90776
3.60292
4.29651
4.98427
5.66225
6.32665
6.97414
7.60169
8.20691
8.7878
9.34295
9.87125
10.3721
10.845
11.2901
11.7075
12.0979
12.4618