/*--------------------------------*- C++ -*----------------------------------*\
  =========                 |
  \\      /  F ield         | OpenFOAM: The Open Source CFD Toolbox
   \\    /   O peration     | Website:  https://openfoam.org
    \\  /    A nd           | Version:  8
     \\/     M anipulation  |
\*---------------------------------------------------------------------------*/
FoamFile
{
    version     2.0;
    format      ascii;
    class       surfaceScalarField;
    location    "2900";
    object      phi;
}
// * * * * * * * * * * * * * * * * * * * * * * * * * * * * * * * * * * * * * //

dimensions      [0 3 -1 0 0 0 0];

internalField   nonuniform List<scalar> 
24170
(
3.92539e-06
-7.91498e-07
3.76465e-06
1.6075e-07
3.63345e-06
1.31209e-07
3.43331e-06
2.00144e-07
3.28028e-06
1.53028e-07
3.18901e-06
9.11913e-08
3.13091e-06
5.81108e-08
3.08609e-06
4.58921e-08
3.04613e-06
4.23255e-08
3.0106e-06
3.81654e-08
2.97876e-06
3.38047e-08
2.94904e-06
3.07717e-08
2.92188e-06
2.73781e-08
2.89642e-06
2.51989e-08
2.87228e-06
2.36026e-08
2.85195e-06
1.94774e-08
2.84099e-06
9.85018e-09
-6.40058e-09
2.84671e-06
3.58445e-06
-9.19499e-07
3.80424e-06
-5.90409e-08
3.74282e-06
1.9263e-07
3.6906e-06
2.52375e-07
3.63729e-06
2.06334e-07
3.59023e-06
1.38281e-07
3.55289e-06
9.56007e-08
3.52309e-06
7.56614e-08
3.49853e-06
6.65722e-08
3.47732e-06
5.92179e-08
3.45871e-06
5.25314e-08
3.44253e-06
4.72655e-08
3.42795e-06
4.23374e-08
3.41466e-06
3.87843e-08
3.4027e-06
3.57262e-08
3.39123e-06
3.10436e-08
3.38038e-06
2.08288e-08
4.75289e-09
3.36945e-06
3.68518e-06
-7.92482e-07
3.83639e-06
-2.1025e-07
3.91494e-06
1.14083e-07
3.94502e-06
2.22294e-07
3.94408e-06
2.07265e-07
3.92749e-06
1.54898e-07
3.90755e-06
1.15616e-07
3.88932e-06
9.36459e-08
3.874e-06
8.11984e-08
3.86056e-06
7.19176e-08
3.84834e-06
6.4257e-08
3.83729e-06
5.81353e-08
3.82692e-06
5.27778e-08
3.81741e-06
4.8472e-08
3.80892e-06
4.44281e-08
3.80098e-06
3.92434e-08
3.79196e-06
3.01914e-08
1.77697e-08
3.77945e-06
4.05359e-06
-6.4151e-07
4.1146e-06
-2.71259e-07
4.20799e-06
2.06924e-08
4.26635e-06
1.63933e-07
4.2907e-06
1.82927e-07
4.29287e-06
1.5275e-07
4.28571e-06
1.2282e-07
4.27631e-06
1.02845e-07
4.26727e-06
8.96874e-08
4.25874e-06
7.98184e-08
4.25056e-06
7.19498e-08
4.24283e-06
6.56339e-08
4.23535e-06
6.02441e-08
4.22824e-06
5.5689e-08
4.2215e-06
5.13456e-08
4.21465e-06
4.6334e-08
4.206e-06
3.91668e-08
3.06334e-08
4.19352e-06
4.50491e-06
-5.09114e-07
4.51536e-06
-2.81708e-07
4.58529e-06
-4.92334e-08
4.64665e-06
1.02567e-07
4.68258e-06
1.46993e-07
4.69688e-06
1.38474e-07
4.69946e-06
1.20238e-07
4.69723e-06
1.04926e-07
4.69331e-06
9.32556e-08
4.68868e-06
8.40573e-08
4.68367e-06
7.66411e-08
4.67851e-06
7.06062e-08
4.67321e-06
6.54913e-08
4.66784e-06
6.11006e-08
4.66228e-06
5.69971e-08
4.65607e-06
5.26912e-08
4.64787e-06
4.75737e-08
4.25812e-08
4.63613e-06
5.00014e-06
-3.94663e-07
4.98614e-06
-2.67703e-07
5.03069e-06
-9.37781e-08
5.08506e-06
4.81989e-08
5.12454e-06
1.07518e-07
5.14609e-06
1.16941e-07
5.15584e-06
1.1049e-07
5.1594e-06
1.01286e-07
5.15985e-06
9.2608e-08
5.15859e-06
8.50832e-08
5.15629e-06
7.87416e-08
5.15333e-06
7.34402e-08
5.14985e-06
6.89298e-08
5.1459e-06
6.50577e-08
5.14136e-06
6.15781e-08
5.13585e-06
5.82971e-08
5.1284e-06
5.51319e-08
5.30294e-08
5.11808e-06
5.54382e-06
-2.97475e-07
5.51664e-06
-2.40529e-07
5.54055e-06
-1.17685e-07
5.58388e-06
4.87111e-09
5.62166e-06
6.97351e-08
5.64656e-06
9.20468e-08
5.66107e-06
9.5969e-08
5.66906e-06
9.32474e-08
5.67315e-06
8.84241e-08
5.67482e-06
8.33001e-08
5.67491e-06
7.85498e-08
5.67391e-06
7.43724e-08
5.67204e-06
7.07611e-08
5.66941e-06
6.76892e-08
5.66592e-06
6.50906e-08
5.66128e-06
6.29758e-08
5.65494e-06
6.15312e-08
6.15126e-08
5.6465e-06
4.34788e-06
-2.39241e-07
4.32251e-06
-2.15162e-07
4.33078e-06
-1.2595e-07
4.35419e-06
-1.85355e-08
4.3784e-06
4.55267e-08
4.39646e-06
7.39856e-08
4.40841e-06
8.40233e-08
4.41597e-06
8.56738e-08
4.42059e-06
8.37672e-08
4.42325e-06
8.05964e-08
4.42456e-06
7.71943e-08
4.4249e-06
7.39993e-08
4.42447e-06
7.11751e-08
4.42335e-06
6.88033e-08
4.42152e-06
6.69276e-08
4.41885e-06
6.56589e-08
4.41515e-06
6.52538e-08
6.63308e-08
4.41035e-06
5.08621e-06
-1.85599e-07
5.05777e-06
-1.86717e-07
5.0584e-06
-1.26577e-07
5.07686e-06
-3.70016e-08
5.09918e-06
2.32147e-08
5.11773e-06
5.54368e-08
5.13124e-06
7.05074e-08
5.14059e-06
7.63166e-08
5.14686e-06
7.74748e-08
5.15095e-06
7.64955e-08
5.15345e-06
7.46736e-08
5.15477e-06
7.26624e-08
5.15514e-06
7.07914e-08
5.15469e-06
6.9257e-08
5.15342e-06
6.82008e-08
5.15128e-06
6.78016e-08
5.14821e-06
6.83363e-08
7.02556e-08
5.14429e-06
5.94839e-06
-1.38193e-07
5.91832e-06
-1.56649e-07
5.91161e-06
-1.19865e-07
5.924e-06
-4.9396e-08
5.94286e-06
4.3594e-09
5.96058e-06
3.77174e-08
5.9748e-06
5.62915e-08
5.98546e-06
6.56462e-08
5.9932e-06
6.97348e-08
5.99867e-06
7.10155e-08
6.00243e-06
7.09126e-08
6.00485e-06
7.02356e-08
6.00618e-06
6.94524e-08
6.00658e-06
6.88599e-08
6.0061e-06
6.86785e-08
6.00478e-06
6.91242e-08
6.00267e-06
7.04483e-08
7.29603e-08
5.99997e-06
6.95439e-06
-9.83127e-08
6.92402e-06
-1.26278e-07
6.91113e-06
-1.06983e-07
6.9168e-06
-5.50649e-08
6.93087e-06
-9.70966e-09
6.94635e-06
2.224e-08
6.96015e-06
4.24931e-08
6.9714e-06
5.43959e-08
6.98017e-06
6.09605e-08
6.98684e-06
6.43458e-08
6.9918e-06
6.59522e-08
6.99538e-06
6.66604e-08
6.9978e-06
6.70248e-08
6.99925e-06
6.74168e-08
6.99982e-06
6.81042e-08
6.99963e-06
6.93136e-08
6.99883e-06
7.1255e-08
7.41152e-08
6.99767e-06
8.12719e-06
-6.64874e-08
8.09793e-06
-9.70204e-08
8.08056e-06
-8.9608e-08
8.07955e-06
-5.40578e-08
8.08793e-06
-1.80885e-08
8.09985e-06
1.03235e-08
8.11198e-06
3.03591e-08
8.12286e-06
4.35218e-08
8.13202e-06
5.17944e-08
8.1395e-06
5.68659e-08
8.14549e-06
5.99725e-08
8.15018e-06
6.19658e-08
8.15378e-06
6.34257e-08
8.15645e-06
6.475e-08
8.15833e-06
6.62249e-08
8.15958e-06
6.80642e-08
8.1604e-06
7.04296e-08
7.34265e-08
8.16109e-06
9.49368e-06
-4.24383e-08
9.4668e-06
-7.01422e-08
9.44683e-06
-6.96394e-08
9.43991e-06
-4.71308e-08
9.44229e-06
-2.0467e-08
9.44966e-06
2.95609e-09
9.45895e-06
2.10647e-08
9.4684e-06
3.40702e-08
9.47716e-06
4.30352e-08
9.48491e-06
4.91187e-08
9.49159e-06
5.32906e-08
9.49727e-06
5.62875e-08
9.50205e-06
5.8641e-08
9.50607e-06
6.07316e-08
9.50947e-06
6.28264e-08
9.51242e-06
6.51112e-08
9.51515e-06
6.77045e-08
7.06596e-08
9.51792e-06
1.10854e-05
-2.51587e-08
1.10618e-05
-4.65019e-08
1.1041e-05
-4.88057e-08
1.10294e-05
-3.55505e-08
1.10261e-05
-1.71688e-08
1.10284e-05
6.05615e-10
1.1034e-05
1.54749e-08
1.10411e-05
2.69704e-08
1.10487e-05
3.54906e-08
1.10561e-05
4.17138e-08
1.1063e-05
4.63104e-08
1.10695e-05
4.98389e-08
1.10754e-05
5.27297e-08
1.10808e-05
5.52968e-08
1.10859e-05
5.77605e-08
1.10908e-05
6.02648e-08
1.10956e-05
6.28899e-08
6.56594e-08
1.11006e-05
1.29396e-05
-1.31182e-08
1.29194e-05
-2.6278e-08
1.28988e-05
-2.8251e-08
1.28839e-05
-2.06866e-08
1.28758e-05
-8.99482e-09
1.28732e-05
3.1455e-09
1.28748e-05
1.39402e-08
1.28789e-05
2.27881e-08
1.28847e-05
2.97435e-08
1.28913e-05
3.51413e-08
1.28982e-05
3.93807e-08
1.29052e-05
4.28246e-08
1.29122e-05
4.57651e-08
1.29191e-05
4.84195e-08
1.29259e-05
5.09367e-08
1.29327e-05
5.34083e-08
1.29397e-05
5.58776e-08
5.83476e-08
1.29471e-05
1.50998e-05
-4.48262e-09
1.50822e-05
-8.67556e-09
1.50621e-05
-8.11273e-09
1.50448e-05
-3.45727e-09
1.50327e-05
3.11041e-09
1.50259e-05
9.93917e-09
1.50237e-05
1.61618e-08
1.5025e-05
2.14638e-08
1.50289e-05
2.58522e-08
1.50346e-05
2.94829e-08
1.50414e-05
3.25518e-08
1.5049e-05
3.52395e-08
1.50571e-05
3.76893e-08
1.50655e-05
4.00025e-08
1.50742e-05
4.22417e-08
1.50832e-05
4.44363e-08
1.50925e-05
4.6589e-08
4.86813e-08
1.51021e-05
1.76171e-05
2.89364e-09
1.75999e-05
8.52339e-09
1.75787e-05
1.30304e-08
1.7559e-05
1.62785e-08
1.75436e-05
1.8473e-08
1.75336e-05
1.99577e-08
1.75287e-05
2.10519e-08
1.75282e-05
2.19925e-08
1.75311e-05
2.2938e-08
1.75366e-05
2.39831e-08
1.7544e-05
2.51741e-08
1.75527e-05
2.6524e-08
1.75624e-05
2.80212e-08
1.75727e-05
2.96409e-08
1.75836e-05
3.13461e-08
1.7595e-05
3.30963e-08
1.76067e-05
3.4845e-08
3.65483e-08
1.76188e-05
1.78181e-05
1.10008e-08
1.77994e-05
2.7213e-08
1.77768e-05
3.56248e-08
1.7756e-05
3.70592e-08
1.77402e-05
3.43263e-08
1.77302e-05
2.99462e-08
1.77257e-05
2.54989e-08
1.7726e-05
2.17763e-08
1.77298e-05
1.90723e-08
1.77364e-05
1.73965e-08
1.77449e-05
1.66282e-08
1.77549e-05
1.6598e-08
1.77658e-05
1.71355e-08
1.77773e-05
1.80823e-08
1.77894e-05
1.93076e-08
1.78017e-05
2.06962e-08
1.78144e-05
2.21606e-08
2.36236e-08
1.78274e-05
1.58702e-05
2.21339e-08
1.58478e-05
4.9582e-08
1.58233e-05
6.01333e-08
1.58032e-05
5.72354e-08
1.57899e-05
4.76111e-08
1.57834e-05
3.63713e-08
1.57827e-05
2.61968e-08
1.57864e-05
1.81444e-08
1.57931e-05
1.23622e-08
1.58019e-05
8.60818e-09
1.5812e-05
6.49152e-09
1.5823e-05
5.6228e-09
1.58345e-05
5.65764e-09
1.58462e-05
6.32137e-09
1.58581e-05
7.39184e-09
1.58701e-05
8.70731e-09
1.58821e-05
1.01379e-08
1.15967e-08
1.58942e-05
1.41313e-05
3.95391e-08
1.41021e-05
7.87077e-08
1.40745e-05
8.7789e-08
1.40557e-05
7.60397e-08
1.40469e-05
5.64145e-08
1.40462e-05
3.70406e-08
1.40512e-05
2.12104e-08
1.40597e-05
9.58168e-09
1.40704e-05
1.76042e-09
1.4082e-05
-3.05236e-09
1.40941e-05
-5.60927e-09
1.41063e-05
-6.5666e-09
1.41184e-05
-6.42272e-09
1.41303e-05
-5.56663e-09
1.41419e-05
-4.26969e-09
1.41534e-05
-2.73143e-09
1.41646e-05
-1.08842e-09
5.62652e-10
1.41756e-05
1.25772e-05
6.73559e-08
1.25392e-05
1.1674e-07
1.25091e-05
1.1789e-07
1.24942e-05
9.08925e-08
1.24928e-05
5.78156e-08
1.25002e-05
2.9685e-08
1.25122e-05
9.13306e-09
1.25264e-05
-4.49524e-09
1.25409e-05
-1.28351e-08
1.25552e-05
-1.73488e-08
1.25689e-05
-1.92853e-08
1.25819e-05
-1.95046e-08
1.25941e-05
-1.86593e-08
1.26057e-05
-1.71623e-08
1.26167e-05
-1.53143e-08
1.26273e-05
-1.33143e-08
1.26375e-05
-1.12825e-08
-9.30486e-09
1.26473e-05
1.11862e-05
1.10916e-07
1.11384e-05
1.64571e-07
1.11088e-05
1.47522e-07
1.11022e-05
9.74862e-08
1.11117e-05
4.83151e-08
1.11289e-05
1.24045e-08
1.11486e-05
-1.04577e-08
1.11678e-05
-2.37231e-08
1.11855e-05
-3.05041e-08
1.12014e-05
-3.3287e-08
1.12157e-05
-3.35533e-08
1.12285e-05
-3.23573e-08
1.12402e-05
-3.03066e-08
1.12508e-05
-2.78566e-08
1.12608e-05
-2.52546e-08
1.12701e-05
-2.26546e-08
1.1279e-05
-2.01597e-08
-1.77974e-08
1.12875e-05
9.93908e-06
1.76452e-07
9.88248e-06
2.21163e-07
9.85873e-06
1.71263e-07
9.86593e-06
9.0277e-08
9.88961e-06
2.46409e-08
9.9176e-06
-1.55523e-08
9.94391e-06
-3.67902e-08
9.96668e-06
-4.64038e-08
9.9857e-06
-4.96039e-08
1.00017e-05
-4.92807e-08
1.00152e-05
-4.71183e-08
1.00269e-05
-4.39947e-08
1.00371e-05
-4.05347e-08
1.00463e-05
-3.70006e-08
1.00546e-05
-3.35757e-08
1.00623e-05
-3.03764e-08
1.00695e-05
-2.74284e-08
-2.47307e-08
1.00764e-05
8.81963e-06
2.69916e-07
8.75785e-06
2.82944e-07
8.74788e-06
1.81226e-07
8.77481e-06
6.3324e-08
8.81458e-06
-1.51271e-08
8.85212e-06
-5.30886e-08
8.88268e-06
-6.72243e-08
8.90622e-06
-7.00196e-08
8.92427e-06
-6.76093e-08
8.93841e-06
-6.3362e-08
8.94983e-06
-5.83938e-08
8.95924e-06
-5.33292e-08
8.96724e-06
-4.84811e-08
8.97424e-06
-4.39887e-08
8.9805e-06
-3.98538e-08
8.98625e-06
-3.61404e-08
8.99166e-06
-3.28735e-08
-2.99378e-08
8.99685e-06
7.81391e-06
3.96675e-07
7.75391e-06
3.42943e-07
7.76868e-06
1.6644e-07
7.82054e-06
1.14618e-08
7.87567e-06
-7.02727e-08
7.91913e-06
-9.64885e-08
7.94967e-06
-9.78315e-08
7.97057e-06
-9.06435e-08
7.98483e-06
-8.1581e-08
7.99524e-06
-7.35418e-08
8.00315e-06
-6.60982e-08
8.00936e-06
-5.9405e-08
8.01447e-06
-5.33398e-08
8.01887e-06
-4.81989e-08
8.02272e-06
-4.36508e-08
8.02622e-06
-3.96809e-08
8.02958e-06
-3.62993e-08
-3.32882e-08
8.03288e-06
6.90424e-06
5.66768e-07
6.86137e-06
3.85804e-07
6.91717e-06
1.10634e-07
6.99674e-06
-6.81327e-08
7.06253e-06
-1.3607e-07
7.10529e-06
-1.39266e-07
7.13032e-06
-1.22546e-07
7.14447e-06
-1.04613e-07
7.15207e-06
-8.89803e-08
7.15708e-06
-7.57923e-08
7.16036e-06
-6.66607e-08
7.16268e-06
-5.95343e-08
7.16418e-06
-5.41535e-08
7.16554e-06
-4.93442e-08
7.16667e-06
-4.46798e-08
7.16767e-06
-4.06885e-08
7.16878e-06
-3.76075e-08
-3.48526e-08
7.17003e-06
6.07162e-06
7.97662e-07
6.08526e-06
3.72163e-07
6.19865e-06
-2.77367e-09
6.2999e-06
-1.69398e-07
6.36526e-06
-2.01462e-07
6.39754e-06
-1.71503e-07
6.41011e-06
-1.35216e-07
6.41342e-06
-1.06939e-07
6.41238e-06
-8.57998e-08
6.40988e-06
-7.40122e-08
6.40747e-06
-6.44885e-08
6.40485e-06
-5.75554e-08
6.40237e-06
-5.13068e-08
6.40036e-06
-4.6612e-08
6.3983e-06
-4.25045e-08
6.39635e-06
-3.89941e-08
6.39496e-06
-3.65451e-08
-3.40219e-08
6.39402e-06
5.35805e-06
1.05451e-06
5.50649e-06
2.23716e-07
5.64777e-06
-1.44086e-07
5.73564e-06
-2.57315e-07
5.77646e-06
-2.42347e-07
5.78324e-06
-1.78424e-07
5.77527e-06
-1.26642e-07
5.76327e-06
-9.4001e-08
5.74975e-06
-7.56628e-08
5.7393e-06
-6.39645e-08
5.73027e-06
-5.65089e-08
5.72234e-06
-4.99382e-08
5.71448e-06
-4.45794e-08
5.70779e-06
-4.02683e-08
5.7017e-06
-3.63681e-08
5.69624e-06
-3.34408e-08
5.69197e-06
-3.21274e-08
-3.01268e-08
5.68791e-06
5.04576e-06
1.01105e-06
5.36491e-06
-9.54502e-08
5.35251e-06
-1.31768e-07
5.33284e-06
-2.37746e-07
5.296e-06
-2.05653e-07
5.25016e-06
-1.3259e-07
5.2089e-06
-8.47345e-08
5.17485e-06
-6.08227e-08
5.14635e-06
-4.98302e-08
5.12483e-06
-4.29003e-08
5.1067e-06
-3.9319e-08
5.09048e-06
-3.56229e-08
5.07523e-06
-3.14116e-08
5.06195e-06
-2.75478e-08
5.04972e-06
-2.39831e-08
5.03906e-06
-2.2558e-08
5.03063e-06
-2.3654e-08
-2.27264e-08
5.02343e-06
5.4676e-06
5.37214e-06
5.24037e-06
5.0026e-06
4.79694e-06
4.66443e-06
4.57966e-06
4.51834e-06
4.46846e-06
4.42539e-06
4.38573e-06
4.34962e-06
4.31805e-06
4.29053e-06
4.26659e-06
4.24406e-06
4.22047e-06
4.19791e-06
2.31224e-08
-2.31205e-08
2.37191e-07
-2.14069e-07
4.8931e-07
-2.52087e-07
7.09573e-07
-2.20242e-07
8.77287e-07
-1.67695e-07
9.88417e-07
-1.11119e-07
1.04408e-06
-5.56528e-08
1.0465e-06
-2.42312e-09
1.001e-06
4.55112e-08
9.17725e-07
8.32663e-08
8.11924e-07
1.0581e-07
7.02733e-07
1.09176e-07
6.09947e-07
9.27818e-08
5.43658e-07
6.62986e-08
4.92518e-07
5.116e-08
4.33343e-07
5.98774e-08
3.47044e-07
8.61634e-08
2.21953e-07
1.25866e-07
4.3658e-08
1.77881e-07
-2.01795e-07
2.44827e-07
-5.04324e-07
3.02273e-07
-8.45307e-07
3.40733e-07
-1.20964e-06
3.64343e-07
-1.58703e-06
3.77402e-07
-1.96863e-06
3.81637e-07
-2.34446e-06
3.75849e-07
-2.70649e-06
3.62056e-07
-3.04957e-06
3.43087e-07
-3.36986e-06
3.20304e-07
-3.66503e-06
2.95177e-07
-3.93422e-06
2.69193e-07
-4.17774e-06
2.43526e-07
-4.39662e-06
2.18885e-07
-4.59234e-06
1.95724e-07
-4.76661e-06
1.74269e-07
-4.92121e-06
1.54602e-07
-5.0579e-06
1.36686e-07
-5.1783e-06
1.20401e-07
-5.28389e-06
1.05589e-07
-5.37596e-06
9.20683e-08
-5.45561e-06
7.96569e-08
-5.5238e-06
6.81825e-08
-5.58129e-06
5.74899e-08
-5.62873e-06
4.74451e-08
-5.66667e-06
3.7939e-08
-5.69556e-06
2.88844e-08
-5.71577e-06
2.02099e-08
-5.72765e-06
1.18858e-08
-5.73169e-06
4.03985e-09
-5.72875e-06
-2.93971e-09
-5.71991e-06
-8.83816e-09
-5.70595e-06
-1.39648e-08
-5.68727e-06
-1.86811e-08
-5.66412e-06
-2.31485e-08
-5.63667e-06
-2.7445e-08
-5.60508e-06
-3.15987e-08
-5.56945e-06
-3.56244e-08
-5.52992e-06
-3.9529e-08
-5.48661e-06
-4.33135e-08
-5.43963e-06
-4.69768e-08
-5.38912e-06
-5.05164e-08
-5.33519e-06
-5.39288e-08
-5.27798e-06
-5.72105e-08
-5.21762e-06
-6.03583e-08
-5.15425e-06
-6.33698e-08
-5.08801e-06
-6.62418e-08
-5.01904e-06
-6.89708e-08
-4.94748e-06
-7.15546e-08
-4.87349e-06
-7.39915e-08
-4.79721e-06
-7.62803e-08
-4.71879e-06
-7.84203e-08
-4.63838e-06
-8.0411e-08
-4.55612e-06
-8.22529e-08
-4.47218e-06
-8.39465e-08
-4.38669e-06
-8.5493e-08
-4.29979e-06
-8.68941e-08
-4.21164e-06
-8.81519e-08
-4.12237e-06
-8.9269e-08
-4.03212e-06
-9.02482e-08
-3.94103e-06
-9.10934e-08
-3.84922e-06
-9.18081e-08
-3.75682e-06
-9.23971e-08
-3.66396e-06
-9.28651e-08
-3.57074e-06
-9.32177e-08
-3.47728e-06
-9.3461e-08
-3.38367e-06
-9.36023e-08
-3.29002e-06
-9.365e-08
-3.19641e-06
-9.36145e-08
-3.1029e-06
-9.35085e-08
-3.00955e-06
-9.3348e-08
-2.9164e-06
-9.31538e-08
-2.82344e-06
-9.29513e-08
-2.73068e-06
-9.27583e-08
-2.63813e-06
-9.25545e-08
-2.54587e-06
-9.2255e-08
-2.45412e-06
-9.17583e-08
-2.36314e-06
-9.09791e-08
-2.2732e-06
-8.99344e-08
-2.18442e-06
-8.87812e-08
-2.09679e-06
-8.76264e-08
-2.01032e-06
-8.64703e-08
-1.92502e-06
-8.52969e-08
-1.84092e-06
-8.40988e-08
-1.75805e-06
-8.28752e-08
-1.67642e-06
-8.16286e-08
-1.59605e-06
-8.03627e-08
-1.51697e-06
-7.90813e-08
-1.43918e-06
-7.77872e-08
-1.3627e-06
-7.64783e-08
-1.28757e-06
-7.51338e-08
-1.2138e-06
-7.37659e-08
-1.1414e-06
-7.24021e-08
-1.07036e-06
-7.10377e-08
-1.00068e-06
-6.96737e-08
-9.32369e-07
-6.83111e-08
-8.65415e-07
-6.69515e-08
-7.99815e-07
-6.55971e-08
-7.35562e-07
-6.42506e-08
-6.72646e-07
-6.29139e-08
-6.11056e-07
-6.15864e-08
-5.50784e-07
-6.02688e-08
-4.91817e-07
-5.8964e-08
-4.34136e-07
-5.76778e-08
-3.77716e-07
-5.6416e-08
-3.22538e-07
-5.51743e-08
-2.68585e-07
-5.39495e-08
-2.15835e-07
-5.27455e-08
-1.6427e-07
-5.15615e-08
-1.1388e-07
-5.03856e-08
-6.46583e-08
-4.92178e-08
-1.67259e-08
-4.79284e-08
3.00481e-08
-4.67704e-08
7.59711e-08
-4.59197e-08
1.20938e-07
-4.49636e-08
1.64844e-07
-4.39042e-08
2.07688e-07
-4.28408e-08
2.49484e-07
-4.17947e-08
2.90264e-07
-4.07783e-08
3.30059e-07
-3.97938e-08
3.689e-07
-3.88396e-08
4.06815e-07
-3.7914e-08
4.43831e-07
-3.70155e-08
4.79975e-07
-3.61431e-08
5.15271e-07
-3.52959e-08
5.49745e-07
-3.44737e-08
5.83421e-07
-3.36759e-08
6.16323e-07
-3.29023e-08
6.48476e-07
-3.21528e-08
6.79903e-07
-3.14273e-08
7.10629e-07
-3.07258e-08
7.40677e-07
-3.00482e-08
7.70072e-07
-2.93947e-08
7.98837e-07
-2.87653e-08
8.26997e-07
-2.81599e-08
8.54576e-07
-2.75786e-08
8.81597e-07
-2.70214e-08
9.08084e-07
-2.64881e-08
9.34062e-07
-2.59784e-08
9.59554e-07
-2.54918e-08
9.84581e-07
-2.50275e-08
1.00916e-06
-2.45843e-08
1.03332e-06
-2.41602e-08
1.05708e-06
-2.37525e-08
1.08043e-06
-2.33571e-08
1.1034e-06
-2.29683e-08
1.12598e-06
-2.2578e-08
1.14815e-06
-2.21747e-08
1.1699e-06
-2.17427e-08
1.19116e-06
-2.126e-08
1.21185e-06
-2.06953e-08
1.23186e-06
-2.00045e-08
1.25098e-06
-1.91237e-08
1.26894e-06
-1.79556e-08
1.2853e-06
-1.63558e-08
1.29935e-06
-1.40493e-08
1.30998e-06
-1.06256e-08
1.31455e-06
-4.56165e-09
1.3077e-06
6.85286e-09
1.27817e-06
2.95321e-08
7.23248e-08
1.20584e-06
2.54178e-07
-2.77318e-07
4.90078e-07
-4.49966e-07
6.39667e-07
-4.01672e-07
7.24302e-07
-3.04875e-07
7.63818e-07
-2.07202e-07
7.69766e-07
-1.17071e-07
7.48835e-07
-3.47165e-08
7.06654e-07
3.975e-08
6.46294e-07
1.05875e-07
5.67667e-07
1.61883e-07
4.70054e-07
2.03429e-07
3.51785e-07
2.27432e-07
2.06826e-07
2.37746e-07
2.36341e-08
2.49506e-07
-2.08576e-07
2.83377e-07
-4.9421e-07
3.45605e-07
-8.32162e-07
4.24205e-07
-1.21201e-06
5.05733e-07
-1.61582e-06
5.81652e-07
-2.01726e-06
6.46211e-07
-2.40729e-06
6.92245e-07
-2.78276e-06
7.16196e-07
-3.1377e-06
7.19286e-07
-3.46513e-06
7.04831e-07
-3.75989e-06
6.76405e-07
-4.02103e-06
6.37e-07
-4.24897e-06
5.90002e-07
-4.44499e-06
5.39106e-07
-4.61199e-06
4.87303e-07
-4.75347e-06
4.36664e-07
-4.87282e-06
3.8854e-07
-4.97319e-06
3.43904e-07
-5.05748e-06
3.0317e-07
-5.12818e-06
2.66426e-07
-5.18742e-06
2.33507e-07
-5.23693e-06
2.04113e-07
-5.27811e-06
1.77873e-07
-5.31211e-06
1.54395e-07
-5.33982e-06
1.33299e-07
-5.36198e-06
1.14231e-07
-5.37921e-06
9.68824e-08
-5.39201e-06
8.09859e-08
-5.40084e-06
6.63198e-08
-5.4061e-06
5.27024e-08
-5.40815e-06
3.99869e-08
-5.40732e-06
2.80585e-08
-5.40395e-06
1.68392e-08
-5.39836e-06
6.29426e-09
-5.3907e-06
-3.62027e-09
-5.38054e-06
-1.30941e-08
-5.36701e-06
-2.23675e-08
-5.34951e-06
-3.14696e-08
-5.32786e-06
-4.03346e-08
-5.30204e-06
-4.8959e-08
-5.27214e-06
-5.73495e-08
-5.23823e-06
-6.55124e-08
-5.2004e-06
-7.34505e-08
-5.15877e-06
-8.11633e-08
-5.11343e-06
-8.86474e-08
-5.06451e-06
-9.58973e-08
-5.01212e-06
-1.02906e-07
-4.95638e-06
-1.09666e-07
-4.89742e-06
-1.1617e-07
-4.83537e-06
-1.2241e-07
-4.77036e-06
-1.28382e-07
-4.70252e-06
-1.34079e-07
-4.632e-06
-1.39494e-07
-4.55893e-06
-1.44623e-07
-4.48346e-06
-1.49461e-07
-4.40573e-06
-1.54007e-07
-4.3259e-06
-1.58259e-07
-4.24409e-06
-1.62217e-07
-4.16046e-06
-1.6588e-07
-4.07516e-06
-1.69251e-07
-3.98832e-06
-1.72331e-07
-3.90009e-06
-1.75124e-07
-3.81061e-06
-1.77634e-07
-3.72001e-06
-1.79866e-07
-3.62843e-06
-1.81826e-07
-3.536e-06
-1.83521e-07
-3.44285e-06
-1.84959e-07
-3.3491e-06
-1.86148e-07
-3.25487e-06
-1.87096e-07
-3.16027e-06
-1.87815e-07
-3.06542e-06
-1.88314e-07
-2.97042e-06
-1.88606e-07
-2.87536e-06
-1.88701e-07
-2.78036e-06
-1.88614e-07
-2.68551e-06
-1.88357e-07
-2.59092e-06
-1.87943e-07
-2.49669e-06
-1.87383e-07
-2.40295e-06
-1.86686e-07
-2.30987e-06
-1.85845e-07
-2.21759e-06
-1.84832e-07
-2.12624e-06
-1.83605e-07
-2.03586e-06
-1.82133e-07
-1.94643e-06
-1.80413e-07
-1.85788e-06
-1.78485e-07
-1.77023e-06
-1.76427e-07
-1.68356e-06
-1.74292e-07
-1.59794e-06
-1.72093e-07
-1.5134e-06
-1.69832e-07
-1.42999e-06
-1.67511e-07
-1.34773e-06
-1.65132e-07
-1.26666e-06
-1.62701e-07
-1.1868e-06
-1.60224e-07
-1.10817e-06
-1.57706e-07
-1.03081e-06
-1.55151e-07
-9.54728e-07
-1.5256e-07
-8.79927e-07
-1.49934e-07
-8.06406e-07
-1.47286e-07
-7.34177e-07
-1.44629e-07
-6.63246e-07
-1.41968e-07
-5.93613e-07
-1.39305e-07
-5.25279e-07
-1.36644e-07
-4.58241e-07
-1.33988e-07
-3.92496e-07
-1.3134e-07
-3.28039e-07
-1.28706e-07
-2.64859e-07
-1.26092e-07
-2.02946e-07
-1.23497e-07
-1.42291e-07
-1.20921e-07
-8.2884e-08
-1.18369e-07
-2.47164e-08
-1.15843e-07
3.22249e-08
-1.13355e-07
8.7968e-08
-1.10915e-07
1.4253e-07
-1.0851e-07
1.95922e-07
-1.06135e-07
2.48158e-07
-1.03796e-07
2.99267e-07
-1.01492e-07
3.49276e-07
-9.92254e-08
3.98344e-07
-9.69951e-08
4.46445e-07
-9.48705e-08
4.93363e-07
-9.28366e-08
5.39165e-07
-9.07643e-08
5.83929e-07
-8.86669e-08
6.27686e-07
-8.6597e-08
6.70466e-07
-8.45739e-08
7.12293e-07
-8.26044e-08
7.5319e-07
-8.06899e-08
7.9318e-07
-7.88292e-08
8.32287e-07
-7.70205e-08
8.70535e-07
-7.52624e-08
9.07946e-07
-7.35536e-08
9.44543e-07
-7.18932e-08
9.8035e-07
-7.02807e-08
1.01539e-06
-6.87155e-08
1.04968e-06
-6.71974e-08
1.08326e-06
-6.57262e-08
1.11613e-06
-6.43017e-08
1.14833e-06
-6.2924e-08
1.17988e-06
-6.15932e-08
1.21079e-06
-6.03091e-08
1.2411e-06
-5.90719e-08
1.27082e-06
-5.78815e-08
1.29998e-06
-5.67379e-08
1.3286e-06
-5.56408e-08
1.3567e-06
-5.45899e-08
1.3843e-06
-5.35844e-08
1.41143e-06
-5.26232e-08
1.43811e-06
-5.17045e-08
1.46435e-06
-5.08257e-08
1.49017e-06
-4.99829e-08
1.51559e-06
-4.91704e-08
1.54061e-06
-4.83805e-08
1.56525e-06
-4.76021e-08
1.58949e-06
-4.68197e-08
1.61333e-06
-4.60121e-08
1.63673e-06
-4.51498e-08
1.65967e-06
-4.41917e-08
1.68205e-06
-4.30802e-08
1.70378e-06
-4.17337e-08
1.72469e-06
-4.00341e-08
1.74454e-06
-3.78047e-08
1.76296e-06
-3.47761e-08
1.7794e-06
-3.04876e-08
1.79297e-06
-2.41867e-08
1.80269e-06
-1.42799e-08
1.80756e-06
1.9906e-09
1.80568e-06
3.14159e-08
8.80229e-08
1.78997e-06
2.46012e-07
-5.2335e-07
3.42333e-07
-5.46291e-07
3.58625e-07
-4.17961e-07
3.47583e-07
-2.93823e-07
3.19882e-07
-1.79496e-07
2.75801e-07
-7.29895e-08
2.14627e-07
2.64601e-08
1.35309e-07
1.19063e-07
3.67866e-08
2.04398e-07
-8.31032e-08
2.81768e-07
-2.30065e-07
3.5039e-07
-4.14618e-07
4.11985e-07
-6.50173e-07
4.73298e-07
-9.43652e-07
5.42989e-07
-1.2849e-06
6.24619e-07
-1.65199e-06
7.12701e-07
-2.0241e-06
7.96308e-07
-2.38435e-06
8.65977e-07
-2.71887e-06
9.1615e-07
-3.01709e-06
9.44424e-07
-3.27516e-06
9.50314e-07
-3.49406e-06
9.35099e-07
-3.67677e-06
9.02e-07
-3.82733e-06
8.55399e-07
-3.95047e-06
7.9955e-07
-4.05161e-06
7.38135e-07
-4.13606e-06
6.74456e-07
-4.20823e-06
6.11273e-07
-4.27154e-06
5.50618e-07
-4.32862e-06
4.93743e-07
-4.38134e-06
4.41257e-07
-4.43082e-06
3.93394e-07
-4.47772e-06
3.50068e-07
-4.52229e-06
3.10999e-07
-4.56458e-06
2.75797e-07
-4.60449e-06
2.44022e-07
-4.64186e-06
2.15235e-07
-4.67648e-06
1.89019e-07
-4.70818e-06
1.64997e-07
-4.73679e-06
1.4284e-07
-4.76217e-06
1.22263e-07
-4.78421e-06
1.03031e-07
-4.80283e-06
8.49433e-08
-4.81797e-06
6.78361e-08
-4.82955e-06
5.15694e-08
-4.83752e-06
3.6024e-08
-4.84178e-06
2.1098e-08
-4.84218e-06
6.69763e-09
-4.83852e-06
-7.28379e-09
-4.83065e-06
-2.09606e-08
-4.81862e-06
-3.43923e-08
-4.80253e-06
-4.75668e-08
-4.7824e-06
-6.04615e-08
-4.75829e-06
-7.30681e-08
-4.73026e-06
-8.53803e-08
-4.69838e-06
-9.73922e-08
-4.66273e-06
-1.09097e-07
-4.62341e-06
-1.20486e-07
-4.58051e-06
-1.31549e-07
-4.53413e-06
-1.42274e-07
-4.48439e-06
-1.5265e-07
-4.43139e-06
-1.62662e-07
-4.37526e-06
-1.72299e-07
-4.31613e-06
-1.81548e-07
-4.2541e-06
-1.90403e-07
-4.18933e-06
-1.98854e-07
-4.12194e-06
-2.06887e-07
-4.05206e-06
-2.14498e-07
-3.97984e-06
-2.21681e-07
-3.90542e-06
-2.28431e-07
-3.82893e-06
-2.34747e-07
-3.75052e-06
-2.40627e-07
-3.67033e-06
-2.46071e-07
-3.5885e-06
-2.51081e-07
-3.50517e-06
-2.5566e-07
-3.42048e-06
-2.59813e-07
-3.33457e-06
-2.63546e-07
-3.24757e-06
-2.66866e-07
-3.15961e-06
-2.69782e-07
-3.07083e-06
-2.72303e-07
-2.98135e-06
-2.7444e-07
-2.89129e-06
-2.76204e-07
-2.80078e-06
-2.77608e-07
-2.70993e-06
-2.78665e-07
-2.61886e-06
-2.79389e-07
-2.52767e-06
-2.79796e-07
-2.43647e-06
-2.79899e-07
-2.34537e-06
-2.79714e-07
-2.25447e-06
-2.79255e-07
-2.16388e-06
-2.78535e-07
-2.0737e-06
-2.77565e-07
-1.98403e-06
-2.76353e-07
-1.89498e-06
-2.74896e-07
-1.80663e-06
-2.73182e-07
-1.71904e-06
-2.71196e-07
-1.63223e-06
-2.68935e-07
-1.54623e-06
-2.66416e-07
-1.46104e-06
-2.63673e-07
-1.37671e-06
-2.60754e-07
-1.29331e-06
-2.57694e-07
-1.2109e-06
-2.54511e-07
-1.12951e-06
-2.51218e-07
-1.04919e-06
-2.47826e-07
-9.69982e-07
-2.44343e-07
-8.91904e-07
-2.40778e-07
-8.14986e-07
-2.37142e-07
-7.3925e-07
-2.33441e-07
-6.64717e-07
-2.29683e-07
-5.91399e-07
-2.25876e-07
-5.19304e-07
-2.22028e-07
-4.4844e-07
-2.1815e-07
-3.78816e-07
-2.14252e-07
-3.10439e-07
-2.10344e-07
-2.4331e-07
-2.06432e-07
-1.77431e-07
-2.02523e-07
-1.12798e-07
-1.9862e-07
-4.94089e-08
-1.94729e-07
1.27437e-08
-1.90858e-07
7.36637e-08
-1.87011e-07
1.33359e-07
-1.83192e-07
1.91843e-07
-1.79404e-07
2.49128e-07
-1.75653e-07
3.05229e-07
-1.71943e-07
3.60158e-07
-1.68283e-07
4.13921e-07
-1.64677e-07
4.66534e-07
-1.61122e-07
5.18018e-07
-1.57617e-07
5.68389e-07
-1.54167e-07
6.17673e-07
-1.50775e-07
6.65897e-07
-1.47449e-07
7.13104e-07
-1.44201e-07
7.59277e-07
-1.41043e-07
8.04383e-07
-1.37942e-07
8.4847e-07
-1.3485e-07
8.91581e-07
-1.31778e-07
9.33741e-07
-1.28756e-07
9.74968e-07
-1.258e-07
1.01528e-06
-1.22916e-07
1.0547e-06
-1.20106e-07
1.09324e-06
-1.17371e-07
1.13093e-06
-1.14709e-07
1.16779e-06
-1.12119e-07
1.20383e-06
-1.09601e-07
1.23909e-06
-1.07153e-07
1.27359e-06
-1.04775e-07
1.30734e-06
-1.02466e-07
1.34037e-06
-1.00227e-07
1.3727e-06
-9.8056e-08
1.40435e-06
-9.59541e-08
1.43535e-06
-9.3921e-08
1.46571e-06
-9.19568e-08
1.49546e-06
-9.00614e-08
1.52463e-06
-8.82349e-08
1.55322e-06
-8.64773e-08
1.58127e-06
-8.47883e-08
1.6088e-06
-8.31678e-08
1.63582e-06
-8.16149e-08
1.66237e-06
-8.01287e-08
1.68845e-06
-7.87074e-08
1.7141e-06
-7.73485e-08
1.73932e-06
-7.6048e-08
1.76414e-06
-7.48005e-08
1.78856e-06
-7.35978e-08
1.81261e-06
-7.24287e-08
1.83629e-06
-7.12777e-08
1.85959e-06
-7.01231e-08
1.88251e-06
-6.89349e-08
1.90504e-06
-6.76718e-08
1.92712e-06
-6.62765e-08
1.94871e-06
-6.46688e-08
1.96971e-06
-6.27356e-08
1.98999e-06
-6.03141e-08
2.00935e-06
-5.71636e-08
2.0275e-06
-5.29208e-08
2.044e-06
-4.69952e-08
2.05826e-06
-3.84468e-08
2.0695e-06
-2.55162e-08
2.07685e-06
-5.35964e-09
2.08076e-06
2.7511e-08
8.54803e-08
2.0833e-06
9.3744e-08
-6.17104e-07
6.24058e-08
-5.14964e-07
1.39257e-08
-3.69472e-07
-4.3162e-08
-2.36728e-07
-1.12656e-07
-1.09997e-07
-1.98023e-07
1.23825e-08
-3.0225e-07
1.30688e-07
-4.27751e-07
2.44564e-07
-5.77102e-07
3.53748e-07
-7.53688e-07
4.58353e-07
-9.62265e-07
5.58964e-07
-1.20715e-06
6.5687e-07
-1.48713e-06
7.53278e-07
-1.79142e-06
8.4727e-07
-2.1013e-06
9.34498e-07
-2.39716e-06
1.00855e-06
-2.66451e-06
1.06364e-06
-2.89506e-06
1.09652e-06
-3.08556e-06
1.10664e-06
-3.23683e-06
1.09568e-06
-3.35321e-06
1.0667e-06
-3.44125e-06
1.02315e-06
-3.50807e-06
9.68823e-07
-3.56018e-06
9.0752e-07
-3.60308e-06
8.42452e-07
-3.6412e-06
7.76251e-07
-3.67777e-06
7.11031e-07
-3.71484e-06
6.4834e-07
-3.7534e-06
5.8918e-07
-3.79373e-06
5.34072e-07
-3.83564e-06
4.8317e-07
-3.87864e-06
4.36395e-07
-3.92209e-06
3.93515e-07
-3.9653e-06
3.54208e-07
-4.00761e-06
3.18112e-07
-4.04845e-06
2.84858e-07
-4.0873e-06
2.54087e-07
-4.12375e-06
2.25468e-07
-4.15746e-06
1.98702e-07
-4.18814e-06
1.73525e-07
-4.21558e-06
1.49707e-07
-4.23961e-06
1.27051e-07
-4.26005e-06
1.05392e-07
-4.27681e-06
8.4588e-08
-4.28976e-06
6.45192e-08
-4.29882e-06
4.5084e-08
-4.30391e-06
2.61963e-08
-4.305e-06
7.77924e-09
-4.30204e-06
-1.02408e-08
-4.29507e-06
-2.79251e-08
-4.28417e-06
-4.53014e-08
-4.26937e-06
-6.23668e-08
-4.25072e-06
-7.91083e-08
-4.22827e-06
-9.55135e-08
-4.20208e-06
-1.11569e-07
-4.17222e-06
-1.2726e-07
-4.13874e-06
-1.42571e-07
-4.10174e-06
-1.57486e-07
-4.0613e-06
-1.71986e-07
-4.01752e-06
-1.86055e-07
-3.9705e-06
-1.99672e-07
-3.92034e-06
-2.12821e-07
-3.86716e-06
-2.25481e-07
-3.81107e-06
-2.37637e-07
-3.7522e-06
-2.49277e-07
-3.69066e-06
-2.60388e-07
-3.6266e-06
-2.70954e-07
-3.56013e-06
-2.80968e-07
-3.49139e-06
-2.90421e-07
-3.42051e-06
-2.99306e-07
-3.34764e-06
-3.07621e-07
-3.2729e-06
-3.15364e-07
-3.19644e-06
-3.22535e-07
-3.11838e-06
-3.29135e-07
-3.03887e-06
-3.35169e-07
-2.95804e-06
-3.40642e-07
-2.87603e-06
-3.45562e-07
-2.79296e-06
-3.49939e-07
-2.70896e-06
-3.53782e-07
-2.62415e-06
-3.57104e-07
-2.53868e-06
-3.59919e-07
-2.45264e-06
-3.6224e-07
-2.36616e-06
-3.64084e-07
-2.27936e-06
-3.65466e-07
-2.19235e-06
-3.66405e-07
-2.10522e-06
-3.66918e-07
-2.0181e-06
-3.67022e-07
-1.93108e-06
-3.66736e-07
-1.84425e-06
-3.66077e-07
-1.75773e-06
-3.65061e-07
-1.67159e-06
-3.637e-07
-1.58594e-06
-3.62007e-07
-1.50085e-06
-3.59989e-07
-1.41638e-06
-3.57646e-07
-1.3326e-06
-3.54982e-07
-1.24953e-06
-3.52005e-07
-1.16721e-06
-3.48736e-07
-1.08567e-06
-3.45206e-07
-1.00498e-06
-3.4145e-07
-9.25172e-07
-3.37499e-07
-8.46307e-07
-3.33375e-07
-7.68427e-07
-3.29098e-07
-6.91569e-07
-3.24683e-07
-6.15768e-07
-3.20144e-07
-5.41051e-07
-3.15495e-07
-4.67445e-07
-3.10748e-07
-3.94971e-07
-3.05915e-07
-3.23648e-07
-3.01007e-07
-2.53488e-07
-2.96036e-07
-1.84501e-07
-2.91014e-07
-1.16699e-07
-2.85952e-07
-5.00872e-08
-2.80863e-07
1.53271e-08
-2.75758e-07
7.95398e-08
-2.70645e-07
1.42549e-07