/*--------------------------------*- C++ -*----------------------------------*\
  =========                 |
  \\      /  F ield         | OpenFOAM: The Open Source CFD Toolbox
   \\    /   O peration     | Website:  https://openfoam.org
    \\  /    A nd           | Version:  8
     \\/     M anipulation  |
\*---------------------------------------------------------------------------*/
FoamFile
{
    version     2.0;
    format      ascii;
    class       volVectorField;
    location    "2900";
    object      wallShearStress;
}
// * * * * * * * * * * * * * * * * * * * * * * * * * * * * * * * * * * * * * //

dimensions      [0 2 -2 0 0 0 0];

internalField   uniform (0 0 0);

boundaryField
{
    inlet
    {
        type            calculated;
        value           uniform (0 0 0);
    }
    outlet
    {
        type            calculated;
        value           uniform (0 0 0);
    }
    upperWall
    {
        type            calculated;
        value           nonuniform List<vector> 
223
(
(-0.582193 -0.392359 0)
(-0.977814 -0.219377 0)
(-0.939335 -0.0567746 0)
(-0.81071 -0.00585778 0)
(-0.734593 0.0033137 0)
(-0.695451 0.00231583 0)
(-0.670933 0.000424396 0)
(-0.653501 -0.00144961 0)
(-0.640532 -0.00256314 0)
(-0.629821 -0.00218486 0)
(-0.62006 -0.00130439 0)
(-0.610999 -0.00107919 0)
(-0.603034 -0.00137526 0)
(-0.596147 -0.0012947 0)
(-0.59039 -0.00130751 0)
(-0.585397 -0.000742595 0)
(-0.579939 0.000829096 0)
(-0.574474 0.00126461 0)
(-0.570352 0.000699768 0)
(-0.567416 0.000636571 4.21374e-22)
(-0.564503 0.00111491 0)
(-0.561458 0.00167143 0)
(-0.558494 0.00214128 0)
(-0.555598 0.00316873 4.51036e-22)
(-0.552641 0.00396701 0)
(-0.549597 0.00435197 0)
(-0.546652 0.00457869 0)
(-0.543737 0.00413845 -9.45568e-22)
(-0.541017 0.00369913 9.54931e-22)
(-0.538335 0.00329117 9.64617e-22)
(-0.535664 0.00288342 0)
(-0.533031 0.00253423 -9.84956e-22)
(-0.530412 0.00220005 0)
(-0.527817 0.00193783 1.00688e-21)
(-0.525213 0.00172812 1.01864e-21)
(-0.522589 0.00157428 -1.03112e-21)
(-0.519937 0.0014501 0)
(-0.517268 0.00135122 0)
(-0.514577 0.00127492 0)
(-0.511858 0.00121593 0)
(-0.509111 0.00117056 -1.09502e-21)
(-0.506332 0.00113607 0)
(-0.50352 0.00111026 0)
(-0.500671 0.00109166 1.13409e-21)
(-0.497783 0.00107904 0)
(-0.494852 0.0010715 1.15981e-21)
(-0.491876 0.00106817 -1.17245e-21)
(-0.48885 0.0010682 1.18488e-21)
(-0.485773 0.00107167 0)
(-0.482642 0.00107654 0)
(-0.479457 0.00108235 0)
(-0.476219 0.0010884 1.23156e-21)
(-0.472933 0.00109315 -1.24213e-21)
(-0.46961 0.00109679 0)
(-0.466266 0.00110027 0)
(-0.462917 0.00110414 0)
(-0.459572 0.00110755 0)
(-0.456237 0.00110926 0)
(-0.452912 0.00110842 0)
(-0.449594 0.00110523 0)
(-0.446273 0.00110018 0)
(-0.442941 0.00109437 1.29224e-21)
(-0.439586 0.00108909 -1.29199e-21)
(-0.436197 0.00108494 0)
(-0.432762 0.00108258 0)
(-0.429272 0.00108226 0)
(-0.425717 0.00108405 -1.27849e-21)
(-0.422089 0.0010879 0)
(-0.418381 0.00109339 0)
(-0.414587 0.00110019 0)
(-0.410704 0.00110795 0)
(-0.406727 0.00111615 0)
(-0.402654 0.0011243 -2.43439e-21)
(-0.398486 0.00113193 0)
(-0.394222 0.00113839 0)
(-0.389867 0.00114313 0)
(-0.385425 0.00114609 0)
(-0.380906 0.00114713 0)
(-0.37632 0.00114598 0)
(-0.371681 0.00114249 0)
(-0.366999 0.00113635 2.09524e-21)
(-0.362286 0.00112737 0)
(-0.357549 0.00111572 0)
(-0.352793 0.0011017 0)
(-0.348019 0.00108579 -1.83957e-21)
(-0.343229 0.00106852 0)
(-0.33842 0.0010506 -1.69014e-21)
(-0.333588 0.00103267 0)
(-0.328729 0.00101553 0)
(-0.323835 0.000999966 0)
(-0.319024 0.000992146 -1.35096e-21)
(-0.316383 0.00100127 0)
(-0.313659 0.00101509 1.18048e-21)
(-0.310854 0.00102975 1.08979e-21)
(-0.307974 0.0010429 0)
(-0.305029 0.00105381 8.96104e-22)
(-0.302032 0.0010625 0)
(-0.298995 0.00106995 0)
(-0.295934 0.00107672 0)
(-0.292862 0.00108521 -4.5469e-22)
(-0.289794 0.0010917 0)
(-0.286741 0.00110498 -2.05322e-22)
(-0.283719 0.00110083 7.32349e-23)
(-0.280728 0.00110836 0)
(-0.277801 0.0011242 0)
(-0.274918 0.00109882 0)
(-0.272115 0.0010878 0)
(-0.269364 0.00114587 0)
(-0.266702 0.0011425 0)
(-0.264096 0.000929836 0)
(-0.261523 0.000798496 1.15311e-21)
(-0.259092 0.000749897 0)
(-0.256783 0.000760854 0)
(-0.254604 0.000897879 0)
(-0.252586 0.000880078 0)
(-0.250404 0.00072889 0)
(-0.248489 0.000719601 0)
(-0.246397 0.000852733 0)
(-0.244663 0.000919133 0)
(-0.242792 0.00131351 0)
(-0.240973 0.00127738 0)
(-0.239056 0.000599891 0)
(-0.23707 0.000491269 0)
(-0.235385 0.000667884 7.17771e-21)
(-0.233584 0.00118437 0)
(-0.231983 0.00105916 0)
(-0.230215 0.000403093 0)
(-0.228369 0.000439599 -8.86596e-21)
(-0.226905 0.000529981 0)
(-0.225227 0.00090425 0)
(-0.224072 0.0012243 -1.00102e-20)
(-0.222731 0.0011708 0)
(-0.221623 0.000554161 1.08462e-20)
(-0.219915 -8.31933e-05 0)
(-0.218415 -4.09014e-05 0)
(-0.217077 0.000115767 0)
(-0.216166 0.000406639 -1.25989e-20)
(-0.215015 0.000487063 0)
(-0.213857 0.000566017 1.34431e-20)
(-0.212748 0.000622365 0)
(-0.211385 0.000870967 0)
(-0.21069 0.00105677 0)
(-0.21016 0.000599983 0)
(-0.209078 0.00068198 0)
(-0.208444 0.000709001 0)
(-0.207683 0.00016144 0)
(-0.206803 0.000405567 0)
(-0.20578 0.000823077 0)
(-0.20513 0.00011413 0)
(-0.20386 -0.000455818 0)
(-0.202858 -0.000216908 1.85991e-20)
(-0.202173 7.56585e-05 -1.89337e-20)
(-0.201561 0.000167664 0)
(-0.20099 0.000150572 0)
(-0.200531 0.000626752 0)
(-0.199911 0.00073581 0)
(-0.19935 0.000594328 -2.09047e-20)
(-0.199128 0.000650839 2.12121e-20)
(-0.198847 0.000488617 -2.16059e-20)
(-0.198349 0.000485302 0)
(-0.197944 -8.40018e-05 -2.24045e-20)
(-0.196843 -0.000523143 -4.62603e-20)
(-0.195994 -0.000166292 0)
(-0.195065 -5.17123e-05 -4.80201e-20)
(-0.194992 -5.6148e-06 4.83431e-20)
(-0.19457 6.5607e-05 0)
(-0.194457 9.59737e-05 0)
(-0.193723 0.000246292 0)
(-0.193101 0.000198177 0)
(-0.193038 0.000132284 0)
(-0.192584 0.000201327 -5.34684e-20)
(-0.192227 0.000263111 0)
(-0.191741 0.000289635 -5.52141e-20)
(-0.19153 0.000441777 0)
(-0.190936 0.000774812 0)
(-0.190654 0.000771796 0)
(-0.19068 0.000487369 0)
(-0.19024 0.000527533 0)
(-0.189408 0.000559886 6.06386e-20)
(-0.189066 0.000303177 0)
(-0.188764 0.000234433 0)
(-0.187571 0.000371201 -6.39805e-20)
(-0.18718 0.000419836 0)
(-0.186229 0.000220751 0)
(-0.18555 0.000311977 0)
(-0.184189 0.000422312 6.87091e-20)
(-0.183226 0.000387533 0)
(-0.181789 0.000406787 0)
(-0.180513 0.000356714 0)
(-0.178775 9.39576e-05 0)
(-0.175798 -2.15883e-05 -7.7628e-20)
(-0.172727 0.000259976 0)
(-0.170017 0.000490869 0)
(-0.165909 0.000681155 0)
(-0.161624 0.000960796 8.83464e-20)
(-0.154126 0.00130783 0)
(-0.147601 0.0022409 0)
(-0.122682 0.00229546 -1.08007e-19)
(-0.140645 0.00685202 0)
(-0.169088 0.0134667 1.2494e-17)
(-0.186476 0.0172343 2.3581e-17)
(-0.193062 0.0189549 2.27186e-17)
(-0.196722 0.0197494 2.19659e-17)
(-0.200739 0.0203497 2.1188e-17)
(-0.20531 0.0210296 -2.0249e-17)
(-0.20958 0.021536 -1.95265e-17)
(-0.213786 0.0218802 0)
(-0.218034 0.0220229 -3.66625e-17)
(-0.220189 0.0221855 -1.80774e-17)
(-0.224674 0.0227257 8.30557e-34)
(-0.227496 0.0229086 -1.20371e-35)
(-0.231081 0.0233657 -3.22681e-17)
(-0.235471 0.0239514 -3.06537e-17)
(-0.242451 0.0247987 -2.84626e-17)
(-0.249632 0.0254574 -2.40741e-35)
(-0.256938 0.0260739 4.94012e-17)
(-0.263954 0.0266504 2.26461e-17)
(-0.272779 0.0274479 2.40741e-35)
(-0.282673 0.0283577 -3.48616e-17)
(-0.291233 0.0290026 -1.58547e-20)
(-0.300803 0.0295579 -3.00927e-36)
(-0.305385 0.0305122 1.3413e-17)
(-0.332971 0.0322002 -7.62532e-18)
)
;
    }
    lowerWall
    {
        type            calculated;
        value           nonuniform List<vector> 
250
(
(-0.653909 0.466638 0)
(-1.14095 0.204678 0)
(-1.03492 0.0379586 0)
(-0.869573 -0.00093603 0)
(-0.786941 -0.00419167 0)
(-0.746063 -0.00160787 0)
(-0.719878 0.000416154 0)
(-0.700646 -0.000651863 0)
(-0.685089 -0.0040561 0)
(-0.671319 -0.00471241 0)
(-0.658934 -0.00298838 0)
(-0.647721 -0.000864305 0)
(-0.637518 0.00142609 0)
(-0.628191 0.00210401 0)
(-0.619324 0.00136802 0)
(-0.611524 0.00135801 0)
(-0.604588 0.00169605 0)
(-0.60507 0.00194562 0)
(-0.00423455 -0.0228301 0)
(-0.00275638 -0.017646 0)
(-0.000681655 -0.0144979 0)
(0.00193653 -0.0138048 9.02273e-20)
(0.0052578 -0.0152188 -7.86225e-20)
(0.00895259 -0.0208359 6.28424e-20)
(0.0127305 -0.0200843 -4.84689e-20)
(0.0256329 -0.0633093 0)
(-0.0840338 -0.144716 0)
(0.000872794 -0.00384047 0)
(-0.00766501 0.00954569 0)
(-0.00851615 0.0328204 0)
(-0.00254978 0.0448546 0)
(0.00295296 0.0442615 1.82228e-20)
(0.00618232 0.0360636 -1.89661e-20)
(0.0081868 0.024162 0)
(0.00946009 0.010162 -5.42285e-20)
(0.00943138 -0.00404071 6.11451e-20)
(0.00793314 -0.0174204 0)
(0.00614114 -0.0291927 0)
(0.00438169 -0.0385599 0)
(0.00268705 -0.0451367 0)
(0.000986049 -0.0488752 0)
(-0.000886806 -0.0495107 0)
(-0.0028192 -0.0463936 0)
(-0.00439749 -0.0399055 0)
(-0.00491398 -0.0307465 0)
(0.00132858 -0.00151219 0)
(0.00133797 0.00652686 0)
(-0.00450896 0.00961825 0)
(-0.00959683 0.00975621 0)
(-0.0133828 0.00829933 0)
(-0.015889 0.00623511 0)
(-0.017264 0.00409755 1.49578e-21)
(-0.0177827 0.00200604 -1.52738e-21)
(-0.0173312 -7.07261e-06 0)
(-0.0160536 -0.00168633 -1.65313e-21)
(-0.0141882 -0.00283766 0)
(-0.0120501 -0.00329658 0)
(-0.0100503 -0.00303601 -0)
(-0.00855257 -0.00228037 2.57043e-21)
(-0.00761592 -0.00142308 0)
(-0.00693768 -0.000815826 0)
(-0.00612028 -0.000623351 -3.37839e-21)
(-0.00499277 -0.00100033 0)
(-0.00340852 -0.00238567 0)
(-0.000488916 -0.0050572 0)
(0.0043602 -0.00740335 3.03333e-21)
(0.00994503 -0.00889493 0)
(0.015846 -0.00984984 1.46923e-21)
(0.0218914 -0.0106167 0)
(0.028097 -0.0112688 -0)
(0.0344074 -0.0115142 8.44725e-22)
(0.0405398 -0.0113546 0)
(0.0491471 -0.0116031 -7.54048e-22)
(0.058937 -0.0117551 -0)
(0.0686312 -0.0115826 7.70707e-22)
(0.0780401 -0.0111688 0)
(0.0870129 -0.010584 0)
(0.0954572 -0.00988997 0)
(0.103315 -0.00913651 -0)
(0.110561 -0.00836061 0)
(0.117194 -0.00758949 -8.11158e-22)
(0.123228 -0.00684039 -0)
(0.128684 -0.00612267 1.6331e-21)
(0.133589 -0.00544034 0)
(0.137971 -0.00479412 -1.63497e-21)
(0.141857 -0.00418205 -0)
(0.145269 -0.00360138 -0)
(0.14823 -0.00304946 1.62106e-21)
(0.150755 -0.00252407 0)
(0.152861 -0.00202408 1.60084e-21)
(0.154559 -0.00155027 -1.58753e-21)
(0.155861 -0.00110631 -0)
(0.156779 -0.000698875 -1.55491e-21)
(0.157326 -0.000337788 -1.53588e-21)
(0.157511 -3.97558e-05 -0)
(0.157406 0.000194723 0)
(0.157074 0.000391512 0)
(0.15652 0.000568223 0)
(0.155759 0.000731058 -0)
(0.154798 0.000884253 1.37582e-21)
(0.153646 0.00102837 0)
(0.15231 0.00116399 -1.30703e-21)
(0.150797 0.00129164 -0)
(0.149114 0.00141124 -0)
(0.147269 0.00152279 1.19058e-21)
(0.14527 0.00162645 0)
(0.143124 0.00172189 -1.10489e-21)
(0.14084 0.00180925 -0)
(0.138427 0.0018886 0)
(0.135893 0.00195981 -0)
(0.133248 0.00202308 9.16868e-22)
(0.130499 0.00207843 0)
(0.127657 0.00212597 -0)
(0.124731 0.00216585 7.63829e-22)
(0.121731 0.00219833 0)
(0.118664 0.00222358 6.573e-22)
(0.11554 0.00224177 0)
(0.112369 0.00225323 0)
(0.109158 0.0022582 0)
(0.105918 0.00225694 -4.36227e-22)
(0.102655 0.00224977 -0)
(0.0993787 0.0022371 0)
(0.096096 0.00221913 -2.6563e-22)
(0.0928147 0.00219617 -2.08183e-22)
(0.0895421 0.00216874 -0)
(0.0862845 0.00213706 -9.27191e-23)
(0.0830486 0.00210148 -0)
(0.0798404 0.00206245 4.6467e-23)
(0.0766653 0.00202038 -0)
(0.0735283 0.00197565 2.78877e-22)
(0.0704344 0.00192868 0)
(0.0673878 0.00188017 -5.1155e-22)
(0.064392 0.0018308 -0)
(0.0614506 0.00178152 0)
(0.0585661 0.00173374 -0)
(0.0557401 0.00168916 9.78294e-22)
(0.0529744 0.00164987 0)
(0.050269 0.00161804 -1.21372e-21)
(0.047623 0.00159477 0)
(0.0457844 0.00160341 1.47547e-21)
(0.0442421 0.00162094 1.63396e-21)
(0.0427031 0.00162588 1.79887e-21)
(0.0411757 0.00161297 0)
(0.0396654 0.00158965 0)
(0.0381717 0.00156397 0)
(0.0366935 0.00153816 0)
(0.0352306 0.00151245 0)
(0.0337835 0.00148682 0)
(0.0323527 0.00146135 0)
(0.0309385 0.00143612 0)
(0.0295416 0.00141131 -3.69152e-21)
(0.0281622 0.0013871 -3.96714e-21)
(0.0268005 0.00136366 0)
(0.0254567 0.00134065 0)
(0.0241314 0.00131658 0)
(0.0228257 0.00129173 -5.26699e-21)
(0.0215394 0.00126751 0)
(0.0202728 0.00124383 0)
(0.0190258 0.00122076 0)
(0.0177985 0.00119833 0)
(0.016591 0.00117659 7.53539e-21)
(0.0154031 0.00115563 0)
(0.014235 0.00113554 0)
(0.0130865 0.00111642 -9.45401e-21)
(0.0119575 0.0010983 1.02314e-20)
(0.010848 0.00108129 0)
(0.00975788 0.00106566 1.20675e-20)
(0.00868711 0.00105206 0)
(0.00763532 0.00104168 -1.44055e-20)
(0.00660179 0.00103478 0)
(0.00558623 0.00103037 0)
(0.00458859 0.00102816 0)
(0.00360839 0.00102844 0)
(0.00264524 0.00103147 0)
(0.00169958 0.00103719 5.56994e-20)
(0.000772898 0.00104278 6.4206e-20)
(-0.000136834 0.00103012 0)
(-0.00103404 0.000987356 0)
(-0.0019158 0.000934987 0)
(-0.00278206 0.000885502 -5.2898e-20)
(-0.00363271 0.000840591 0)
(-0.00446758 0.00079985 0)
(-0.00528701 0.00076279 0)
(-0.0060916 0.000728924 -4.04211e-20)
(-0.00688192 0.000697782 3.83705e-20)
(-0.00765843 0.000668995 0)
(-0.00842166 0.000642253 0)
(-0.00917201 0.000617308 3.36217e-20)
(-0.00990993 0.000593967 3.23813e-20)
(-0.0106359 0.000572065 0)
(-0.0113502 0.000551463 0)
(-0.0120534 0.00053205 -2.93556e-20)
(-0.0127459 0.00051373 2.85278e-20)
(-0.013428 0.000496422 0)
(-0.0141003 0.000480057 0)
(-0.0147632 0.000464571 2.64379e-20)
(-0.015417 0.000449914 0)
(-0.0160623 0.000436036 0)
(-0.0166995 0.0004229 2.47924e-20)
(-0.017329 0.000410467 0)
(-0.0179514 0.000398702 2.38763e-20)
(-0.018567 0.000387578 0)
(-0.0191763 0.000377061 0)
(-0.0197798 0.000367122 0)
(-0.020378 0.000357736 -2.23601e-20)
(-0.0209714 0.00034884 0)
(-0.02156 0.000340435 0)
(-0.0221449 0.000332459 0)
(-0.0227258 0.000324795 0)
(-0.0233029 0.000317435 0)
(-0.0238767 0.000310245 0)
(-0.0244468 0.00030305 -2.03867e-20)
(-0.0250128 0.000295672 -2.01563e-20)
(-0.0255739 0.000287852 0)
(-0.0261287 0.000279205 0)
(-0.0266751 0.000269157 0)
(-0.0272093 0.000257008 1.93615e-20)
(-0.0277266 0.000241551 0)
(-0.0282186 0.000221313 -3.81369e-20)
(-0.0286755 0.000192263 3.79305e-20)
(-0.0290686 0.000152641 3.78214e-20)
(-0.0293999 7.78962e-05 -3.78599e-20)
(-0.0294816 -3.93699e-05 3.80471e-20)
(-0.0295063 -0.000356508 -3.83993e-20)
(-0.0279719 -0.000616838 0)
(-0.0293446 -0.000516179 -2.43326e-18)
(-0.0327682 -0.00134233 -2.26983e-18)
(-0.0364119 -0.00203327 -3.00927e-36)
(-0.0395328 -0.00257598 -4.06096e-18)
(-0.0424822 -0.00301881 -7.75794e-18)
(-0.0455556 -0.00342023 -3.71956e-18)
(-0.0487816 -0.00381945 3.56831e-18)
(-0.0521112 -0.00432408 -2.40741e-35)
(-0.0556003 -0.00473846 0)
(-0.0593174 -0.00501841 3.1495e-18)
(-0.0632433 -0.00544045 3.03081e-18)
(-0.0674432 -0.00587907 -3.00927e-36)
(-0.0719348 -0.00626688 0)
(-0.0767543 -0.00670525 0)
(-0.0819456 -0.00719478 -1.065e-34)
(-0.0875615 -0.00773554 -1.00058e-34)
(-0.0936752 -0.00833697 1.50463e-35)
(-0.100342 -0.00900176 -4.15805e-18)
(-0.107702 -0.00972396 -3.81233e-18)
(-0.116765 -0.0106188 1.20371e-35)
(-0.12758 -0.0116233 6.13709e-18)
(-0.138432 -0.012731 1.03498e-17)
(-0.153656 -0.0139251 0)
(-0.162855 -0.0152926 -5.09843e-18)
(-0.191969 -0.0169808 -3.00927e-36)
)
;
    }
    frontAndBack
    {
        type            empty;
    }
}


// ************************************************************************* //
