/*--------------------------------*- C++ -*----------------------------------*\
  =========                 |
  \\      /  F ield         | OpenFOAM: The Open Source CFD Toolbox
   \\    /   O peration     | Website:  https://openfoam.org
    \\  /    A nd           | Version:  8
     \\/     M anipulation  |
\*---------------------------------------------------------------------------*/
FoamFile
{
    version     2.0;
    format      ascii;
    class       volScalarField;
    location    "1500";
    object      p;
}
// * * * * * * * * * * * * * * * * * * * * * * * * * * * * * * * * * * * * * //

dimensions      [0 2 -2 0 0 0 0];

internalField   nonuniform List<scalar> 
12225
(
-4.16564
-5.06146
-5.45045
-5.57845
-5.71281
-5.86511
-5.99524
-6.10065
-6.19076
-6.27548
-6.35698
-6.43143
-6.50338
-6.57107
-6.6372
-6.70908
-6.7905
-6.87956
-4.4383
-5.08673
-5.41467
-5.54016
-5.67218
-5.82707
-5.95903
-6.06543
-6.1636
-6.2536
-6.3338
-6.40662
-6.47615
-6.54194
-6.61065
-6.68546
-6.7571
-6.81807
-4.66392
-5.0905
-5.39907
-5.54831
-5.68383
-5.83323
-5.96334
-6.07003
-6.16698
-6.25523
-6.33359
-6.40447
-6.47111
-6.5371
-6.60483
-6.67064
-6.73123
-6.78129
-4.81368
-5.12
-5.40934
-5.56571
-5.69381
-5.83159
-5.9563
-6.06105
-6.15544
-6.24154
-6.31884
-6.38958
-6.45668
-6.52237
-6.58678
-6.64772
-6.70353
-6.75009
-4.93539
-5.16939
-5.42795
-5.58246
-5.70479
-5.83402
-5.95426
-6.05719
-6.14936
-6.23359
-6.31016
-6.38072
-6.44718
-6.51077
-6.57182
-6.62916
-6.68113
-6.72453
-5.04997
-5.2248
-5.4473
-5.59809
-5.71722
-5.83916
-5.9542
-6.05442
-6.14412
-6.22635
-6.30177
-6.37137
-6.4364
-6.49781
-6.55605
-6.61024
-6.65882
-6.69974
-5.15678
-5.28367
-5.47047
-5.61449
-5.72987
-5.84446
-5.95368
-6.05078
-6.13811
-6.21839
-6.29239
-6.36071
-6.42422
-6.48373
-6.53953
-6.59093
-6.63684
-6.67606
-5.23985
-5.33614
-5.49509
-5.63028
-5.74124
-5.84947
-5.95343
-6.04744
-6.13253
-6.21092
-6.28338
-6.35035
-6.4125
-6.47043
-6.52435
-6.57374
-6.6179
-6.65601
-5.30754
-5.38334
-5.51948
-5.64552
-5.752
-5.85459
-5.9537
-6.04466
-6.12752
-6.20402
-6.2749
-6.34054
-6.40139
-6.45792
-6.51028
-6.55812
-6.60097
-6.63832
-5.37489
-5.43416
-5.54821
-5.66339
-5.76443
-5.861
-5.95476
-6.04209
-6.12232
-6.19658
-6.26558
-6.32959
-6.38893
-6.44393
-6.49468
-6.541
-6.58261
-6.61921
-5.44112
-5.48714
-5.58096
-5.68399
-5.7785
-5.86876
-5.95675
-6.03992
-6.11708
-6.18877
-6.25556
-6.31766
-6.37528
-6.42858
-6.47769
-6.52249
-6.5629
-6.59876
-5.50494
-5.54075
-5.61694
-5.70719
-5.79415
-5.87785
-5.9598
-6.0383
-6.11195
-6.18074
-6.24502
-6.30496
-6.36061
-6.4121
-6.4595
-6.5028
-6.54205
-6.57715
-5.56527
-5.59323
-5.65473
-5.73238
-5.81106
-5.88802
-5.9638
-6.03728
-6.107
-6.1726
-6.23411
-6.29163
-6.34515
-6.39471
-6.44039
-6.48223
-6.52032
-6.55467
-5.62042
-5.64256
-5.69227
-5.75834
-5.82854
-5.8987
-5.9684
-6.03667
-6.10224
-6.16438
-6.22295
-6.2779
-6.32917
-6.37676
-6.42074
-6.46116
-6.49815
-6.53175
-5.66846
-5.68632
-5.72698
-5.78316
-5.8453
-5.90894
-5.97286
-6.03609
-6.09744
-6.15608
-6.21165
-6.264
-6.31302
-6.35869
-6.40103
-6.44011
-6.47606
-6.50895
-5.70662
-5.72147
-5.75561
-5.80405
-5.85934
-5.9172
-5.97603
-6.03474
-6.0922
-6.14755
-6.20029
-6.25019
-6.29711
-6.34099
-6.38184
-6.41971
-6.45472
-6.48696
-5.73098
-5.74394
-5.77393
-5.81723
-5.86761
-5.92117
-5.97613
-6.03135
-6.08573
-6.1384
-6.18881
-6.23669
-6.28185
-6.32424
-6.36385
-6.40072
-6.43496
-6.46667
-5.7352
-5.74754
-5.7762
-5.81773
-5.86621
-5.91794
-5.97114
-6.02472
-6.07753
-6.1288
-6.1779
-6.22461
-6.26872
-6.31021
-6.34903
-6.38529
-6.41904
-6.45044
-5.71882
-5.73185
-5.76203
-5.80524
-5.85505
-5.90762
-5.96144
-6.01539
-6.06845
-6.11971
-6.16874
-6.21523
-6.25913
-6.30034
-6.33893
-6.37494
-6.40853
-6.4398
-5.68705
-5.70197
-5.73617
-5.78398
-5.83755
-5.89299
-5.94912
-6.00505
-6.0596
-6.11196
-6.16173
-6.20875
-6.25295
-6.29436
-6.33303
-6.36909
-6.40267
-6.43398
-5.6432
-5.66137
-5.7023
-5.75732
-5.81643
-5.87604
-5.93577
-5.99474
-6.05167
-6.10577
-6.15682
-6.20478
-6.24963
-6.29145
-6.33038
-6.3666
-6.40027
-6.43164
-5.5892
-5.61245
-5.66343
-5.72803
-5.79374
-5.85834
-5.92255
-5.98531
-6.04512
-6.10133
-6.15397
-6.20307
-6.24872
-6.29104
-6.33028
-6.36666
-6.40043
-6.43184
-5.52591
-5.55715
-5.62225
-5.69835
-5.77095
-5.84098
-5.91033
-5.97733
-6.04021
-6.09869
-6.15302
-6.20336
-6.24983
-6.29265
-6.33215
-6.36864
-6.40242
-6.43383
-5.45352
-5.49731
-5.5816
-5.67001
-5.74892
-5.82468
-5.89973
-5.97109
-6.03698
-6.09769
-6.15372
-6.20525
-6.25247
-6.2957
-6.33537
-6.37188
-6.40561
-6.43694
-5.37142
-5.4348
-5.54437
-5.64454
-5.72823
-5.80976
-5.89076
-5.96638
-6.03511
-6.09793
-6.15557
-6.2082
-6.25605
-6.29955
-6.33923
-6.37561
-6.40913
-6.44028
-5.27975
-5.37123
-5.51179
-5.62221
-5.70935
-5.79643
-5.88294
-5.96227
-6.0335
-6.09834
-6.15758
-6.21136
-6.25991
-6.30377
-6.34353
-6.37982
-6.4132
-6.44434
-5.18085
-5.30987
-5.48055
-5.59781
-5.6898
-5.78422
-5.87644
-5.95908
-6.03245
-6.09895
-6.15942
-6.21396
-6.26289
-6.30678
-6.34634
-6.38233
-6.41541
-6.44637
-5.0597
-5.26307
-5.45497
-5.5675
-5.66452
-5.76986
-5.87045
-5.95838
-6.03569
-6.10531
-6.16804
-6.22399
-6.27363
-6.31764
-6.35678
-6.39212
-6.42475
-6.45612
-4.86479
-5.23812
-5.46269
-5.55907
-5.65145
-5.7608
-5.86457
-5.95406
-6.03282
-6.10406
-6.16831
-6.22546
-6.2759
-6.32023
-6.35907
-6.39316
-6.42385
-6.45251
-4.5967
-5.16175
-5.45161
-5.55871
-5.65915
-5.77715
-5.8866
-5.97894
-6.05916
-6.13126
-6.19599
-6.25334
-6.30363
-6.34742
-6.38512
-6.41653
-6.44264
-6.46399
-7.40445
-7.40455
-7.40459
-7.40457
-7.40427
-7.40309
-7.4006
-7.39728
-7.39411
-7.39209
-7.39223
-7.39472
-7.39905
-7.40447
-7.41018
-7.41552
-7.41994
-7.42303
-7.42474
-7.42545
-7.42541
-7.42482
-7.42391
-7.42295
-7.42218
-7.42169
-7.42144
-7.42127
-7.42105
-7.42067
-7.42014
-7.41944
-7.41853
-7.41732
-7.41588
-7.41448
-7.41376
-7.41436
-7.41632
-7.41898
-7.42143
-7.42325
-7.42468
-7.42619
-7.42823
-7.43131
-7.43507
-7.43839
-7.44076
-7.44404
-7.45197
-7.46873
-7.49449
-7.5279
-7.56914
-7.61929
-7.67796
-7.74338
-7.81351
-7.88661
-7.96064
-8.03339
-8.1037
-8.17072
-8.23351
-8.2916
-8.34487
-8.39323
-8.43674
-8.47547
-8.50952
-8.53897
-8.56391
-8.58438
-8.60045
-8.61211
-8.6194
-8.62229
-8.62079
-8.61483
-8.60444
-8.58955
-8.57016
-8.54621
-8.5177
-8.48455
-8.44672
-8.40411
-8.35662
-8.30412
-8.24662
-8.18408
-8.1165
-8.04386
-7.96612
-7.88321
-7.79506
-7.70169
-7.60312
-7.49925
-7.38956
-7.27384
-7.15219
-7.0247
-6.89134
-6.75211
-6.607
-6.45603
-6.2992
-6.13656
-5.96817
-5.7941
-5.61445
-5.42933
-5.23888
-5.04323
-4.84256
-4.63704
-4.42686
-4.21221
-3.99332
-3.77039
-3.54364
-3.31328
-3.07957
-2.84272
-2.60297
-2.36054
-2.11568
-1.86856
-1.6194
-1.36842
-1.11586
-0.861959
-0.606966
-0.351151
-0.0946687
0.162594
0.420531
0.678769
0.937116
1.19538
1.45342
1.71105
1.96813
2.2245
2.48
2.73446
2.9877
3.23956
3.4899
3.73858
3.98546
4.23037
4.47319
4.71377
4.95199
5.18773
5.42089
5.65135
5.87902
6.10379
6.32555
6.54419
6.75961
6.9717
7.18036
7.3855
7.58701
7.78481
7.9788
8.16888
8.35494
8.53689
8.71461
8.88806
9.05756
9.22297
9.38738
9.54212
-7.40565
-7.40583
-7.40619
-7.40657
-7.40657
-7.40576
-7.40385
-7.4014
-7.39966
-7.39956
-7.40142
-7.40507
-7.40998
-7.41553
-7.42108
-7.42614
-7.43034
-7.43349
-7.43537
-7.43581
-7.43489
-7.43293
-7.43037
-7.42769
-7.42529
-7.42345
-7.42219
-7.42134
-7.42066
-7.42002
-7.4194
-7.41878
-7.4181
-7.41727
-7.41625
-7.41545
-7.4156
-7.41713
-7.41978
-7.42261
-7.4245
-7.4251
-7.42488
-7.42397
-7.42254
-7.42205
-7.42484
-7.43145
-7.43817
-7.44478
-7.45486
-7.46995
-7.49152
-7.52312
-7.56704
-7.62238
-7.68643
-7.75665
-7.8309
-7.90647
-7.98089
-8.05319
-8.12222
-8.18671
-8.24655
-8.30173
-8.35224
-8.39814
-8.43951
-8.47644
-8.509
-8.53725
-8.56125
-8.581
-8.59653
-8.60782
-8.61487
-8.61762
-8.61607
-8.61017
-8.59988
-8.58515
-8.56596
-8.54227
-8.51405
-8.48126
-8.44384
-8.40171
-8.35475
-8.30289
-8.24607
-8.18426
-8.11748
-8.04568
-7.96881
-7.88677
-7.79947
-7.70674
-7.60843
-7.50439
-7.39479
-7.27969
-7.15894
-7.03241
-6.90005
-6.76184
-6.61775
-6.46779
-6.31197
-6.15034
-5.98293
-5.80984
-5.63115
-5.44697
-5.25743
-5.06267
-4.86285
-4.65816
-4.44878
-4.2349
-4.01674
-3.7945
-3.56842
-3.33871
-3.1056
-2.86932
-2.63011
-2.38819
-2.14379
-1.89711
-1.64835
-1.39774
-1.14548
-0.891782
-0.636822
-0.380731
-0.123735
0.13374
0.391517
0.649602
0.907805
1.16596
1.4239
1.68146
1.93849
2.19483
2.45032
2.70479
2.95806
3.20998
3.46041
3.70919
3.9562
4.20127
4.44427
4.68504
4.92349
5.15946
5.39287
5.6236
5.85154
6.07659
6.29865
6.5176
6.73335
6.94578
7.15479
7.36029
7.56218
7.76037
7.95478
8.14529
8.33186
8.51443
8.69287
8.86716
9.03745
9.20322
9.36969
9.52376
-7.40694
-7.40692
-7.40695
-7.40703
-7.40712
-7.40716
-7.40738
-7.4083
-7.41041
-7.41384
-7.41839
-7.4237
-7.42935
-7.43491
-7.44
-7.44432
-7.44767
-7.44994
-7.45106
-7.45095
-7.44966
-7.4473
-7.44406
-7.44013
-7.43576
-7.43123
-7.42683
-7.42283
-7.41944
-7.41674
-7.41467
-7.41301
-7.41151
-7.41021
-7.4096
-7.41036
-7.41297
-7.41709
-7.42132
-7.42388
-7.42351
-7.42108
-7.41867
-7.41793
-7.41851
-7.42013
-7.42514
-7.43506
-7.44912
-7.46774
-7.49185
-7.52169
-7.55781
-7.60098
-7.65127
-7.70752
-7.76811
-7.83156
-7.89658
-7.96175
-8.02587
-8.08826
-8.14826
-8.20518
-8.2587
-8.30864
-8.35487
-8.39733
-8.43596
-8.47074
-8.50163
-8.52861
-8.55164
-8.5707
-8.58575
-8.59673
-8.6036
-8.60631
-8.60482
-8.59905
-8.58896
-8.57451
-8.55564
-8.53231
-8.5045
-8.47215
-8.43523
-8.39366
-8.34733
-8.29615
-8.24008
-8.17908
-8.11314
-8.04223
-7.9663
-7.88525
-7.79901
-7.70743
-7.61037
-7.50765
-7.39932
-7.2854
-7.16584
-7.04053
-6.90943
-6.77248
-6.62967
-6.48099
-6.32646
-6.16611
-5.99997
-5.82814
-5.65068
-5.46771
-5.27935
-5.08575
-4.88705
-4.68346
-4.47513
-4.26228
-4.0451
-3.82382
-3.59865
-3.36982
-3.13755
-2.90208
-2.66363
-2.42245
-2.17874
-1.93272
-1.68459
-1.43457
-1.18287
-0.929722
-0.675308
-0.419775
-0.163323
0.0937092
0.351129
0.608866
0.866744
1.12461
1.38228
1.6396
1.89642
2.15258
2.40792
2.66226
2.91543
3.16728
3.41766
3.66644
3.91346
4.15858
4.40166
4.64254
4.8811
5.11722
5.35078
5.58167
5.80978
6.03501
6.25725
6.4764
6.69234
6.90497
7.11418
7.31988
7.52196
7.72035
7.91495
8.10567
8.2924
8.47508
8.6537
8.82828
8.99935
9.16576
9.33499
9.48501
-7.40806
-7.40778
-7.4074
-7.40742
-7.4086
-7.41134
-7.41544
-7.42054
-7.4263
-7.43241
-7.43857
-7.44454
-7.45008
-7.45502
-7.45918
-7.46243
-7.46466
-7.46583
-7.46589
-7.46482
-7.46264
-7.45941
-7.45523
-7.45017
-7.44433
-7.43785
-7.43091
-7.42381
-7.41692
-7.4106
-7.40511
-7.40067
-7.39756
-7.39625
-7.3975
-7.40145
-7.40696
-7.41202
-7.41517
-7.41609
-7.41542
-7.41471
-7.41558
-7.4188
-7.42481
-7.43432
-7.44818
-7.46714
-7.49129
-7.5203
-7.55375
-7.59132
-7.63285
-7.67818
-7.72706
-7.77902
-7.83345
-7.88964
-7.94682
-8.00416
-8.06089
-8.11638
-8.17009
-8.22157
-8.27044
-8.31646
-8.35943
-8.3992
-8.43564
-8.46866
-8.49816
-8.52407
-8.54629
-8.56475
-8.57938
-8.59009
-8.59682
-8.59949
-8.59804
-8.5924
-8.58251
-8.5683
-8.54973
-8.52674
-8.49929
-8.46736
-8.43089
-8.38983
-8.34407
-8.29354
-8.23815
-8.17789
-8.11274
-8.04265
-7.96756
-7.88738
-7.80199
-7.7113
-7.61519
-7.51356
-7.40638
-7.29362
-7.17521
-7.05108
-6.92116
-6.78541
-6.64381
-6.49634
-6.343
-6.18384
-6.01888
-5.84821
-5.67189
-5.49003
-5.30277
-5.11023
-4.91257
-4.70996
-4.5026
-4.29068
-4.07441
-3.854
-3.62967
-3.40164
-3.17015
-2.93543
-2.6977
-2.4572
-2.21415
-1.96875
-1.72122
-1.47176
-1.22061
-0.967984
-0.714068
-0.459051
-0.203131
0.053448
0.310496
0.567887
0.825444
1.08301
1.34041
1.5975
1.8541
2.11007
2.36524
2.61943
2.87248
3.12424
3.37456
3.62332
3.87034
4.11549
4.35862
4.59958
4.83824
5.07447
5.30816
5.53919
5.76745
5.99284
6.21524
6.43456
6.65067
6.86347
7.07285
7.27872
7.48096
7.6795
7.87424
8.06511
8.25202
8.43492
8.61382
8.78869
8.96022
9.12667
9.29664
9.44043
-7.41037
-7.40978
-7.40938
-7.41082
-7.41508
-7.42142
-7.42878
-7.43645
-7.44397
-7.45103
-7.45745
-7.46319
-7.4682
-7.4724
-7.47571
-7.47805
-7.47936
-7.47959
-7.47871
-7.4767
-7.47356
-7.46935
-7.46408
-7.45783
-7.45066
-7.44262
-7.43382
-7.42447
-7.41491
-7.40564
-7.39729
-7.39066
-7.38672
-7.3864
-7.38956
-7.39428
-7.3989
-7.40272
-7.40565
-7.40813
-7.41098
-7.41532
-7.42216
-7.43243
-7.44695
-7.46606
-7.4894
-7.51638
-7.54674
-7.58014
-7.61633
-7.65527
-7.69691
-7.74118
-7.78785
-7.83658
-7.88689
-7.9383
-7.99024
-8.04216
-8.09354
-8.14391
-8.19284
-8.23999
-8.28503
-8.32772
-8.36784
-8.4052
-8.43965
-8.47102
-8.49919
-8.52403
-8.54541
-8.56322
-8.57736
-8.58772
-8.5942
-8.59672
-8.5952
-8.58956
-8.57973
-8.56564
-8.54723
-8.52445
-8.49726
-8.46561
-8.42948
-8.3888
-8.3435
-8.29345
-8.23863
-8.17899
-8.11452
-8.04515
-7.97081
-7.89141
-7.80682
-7.71698
-7.62175
-7.52109
-7.41489
-7.30314
-7.18573
-7.06261
-6.9337
-6.79897
-6.65837
-6.5119
-6.35956
-6.20136
-6.03736
-5.86761
-5.6922
-5.51122
-5.32481
-5.13308
-4.93622
-4.73437
-4.52775
-4.31653
-4.10095
-3.88118
-3.65749
-3.43007
-3.19917
-2.96501
-2.72784
-2.48787
-2.24533
-2.00041
-1.75335
-1.50435
-1.25364
-1.00143
-0.747905
-0.493277
-0.237747
0.0184697
0.2752
0.532284
0.789566
1.04687
1.30403
1.56089
1.81731
2.0731
2.32811
2.58216
2.83509
3.08676
3.33703
3.58575
3.83277
4.07793
4.3211
4.56211
4.80085
5.03718
5.27098
5.50213
5.73053
5.95606
6.17862
6.3981
6.61437
6.82733
7.03688
7.24292
7.44534
7.64406
7.83899
8.03004
8.21715
8.40026
8.57937
8.75436
8.92591
9.09172
9.26117
9.39818
-7.41465
-7.41373
-7.41426
-7.41878
-7.42628
-7.43481
-7.44345
-7.45172
-7.45932
-7.46619
-7.47231
-7.47767
-7.48222
-7.48588
-7.4886
-7.4903
-7.49093
-7.49046
-7.48887
-7.48615
-7.48229
-7.47734
-7.47131
-7.46418
-7.45596
-7.44676
-7.43672
-7.42604
-7.41509
-7.40455
-7.39527
-7.38846
-7.38516
-7.3851
-7.38683
-7.38919
-7.39215
-7.39612
-7.40137
-7.4079
-7.41597
-7.42678
-7.44133
-7.45978
-7.48187
-7.50722
-7.53556
-7.56651
-7.5998
-7.63528
-7.6728
-7.71227
-7.75361
-7.79669
-7.84131
-7.8872
-7.93406
-7.98154
-8.02929
-8.07691
-8.12405
-8.17037
-8.21554
-8.25925
-8.30123
-8.34122
-8.379
-8.41437
-8.44713
-8.4771
-8.50411
-8.528
-8.54862
-8.56582
-8.57946
-8.58943
-8.59562
-8.59791
-8.59623
-8.59049
-8.5806
-8.56651
-8.54814
-8.52544
-8.49837
-8.46689
-8.43096
-8.39055
-8.34553
-8.29589
-8.24149
-8.18234
-8.11842
-8.04964
-7.97593
-7.89718
-7.8133
-7.72418
-7.62973
-7.52987
-7.42451
-7.31359
-7.19702
-7.07473
-6.94665
-6.81273
-6.67293
-6.52724
-6.37566
-6.2182
-6.05491
-5.88585
-5.71109
-5.53073
-5.34491
-5.15375
-4.95742
-4.75609
-4.54995
-4.3392
-4.12405
-3.90472
-3.68143
-3.45442
-3.22391
-2.99013
-2.75333
-2.51372
-2.27153
-2.02696
-1.78023
-1.53157
-1.28119
-1.02929
-0.776081
-0.521765
-0.266543
-0.0106195
0.245836
0.502662
0.759696
1.01676
1.27371
1.53037
1.7866
2.04221
2.29706
2.55096
2.80377
3.05534
3.30553
3.5542
3.80119
4.04635
4.28952
4.53056
4.76933
5.00572
5.23959
5.47083
5.69933
5.92496
6.14764
6.36723
6.58363
6.79673
7.00642
7.2126
7.41517
7.61404
7.80911
8.00031
8.18755
8.37077
8.54992
8.72484
8.8961
9.06095
9.22961
9.36002
-7.41992
-7.41947
-7.42223
-7.42951
-7.43835
-7.44714
-7.45551
-7.46333
-7.47053
-7.47709
-7.48294
-7.48801
-7.49224
-7.49554
-7.49786
-7.49913
-7.49931
-7.49838
-7.49633
-7.49314
-7.48883
-7.48343
-7.47685
-7.46903
-7.46011
-7.45028
-7.43975
-7.42879
-7.41789
-7.40784
-7.39975
-7.39437
-7.39115
-7.38917
-7.38842
-7.38943
-7.39282
-7.39852
-7.4064
-7.41707
-7.43111
-7.44854
-7.46916
-7.49274
-7.51905
-7.54776
-7.57866
-7.61159
-7.64636
-7.68284
-7.72084
-7.76024
-7.80093
-7.84276
-7.88558
-7.92921
-7.97343
-8.01802
-8.06271
-8.10725
-8.15135
-8.19475
-8.23717
-8.27836
-8.31805
-8.35602
-8.39203
-8.42587
-8.45733
-8.48619
-8.51227
-8.53539
-8.55536
-8.57201
-8.58521
-8.59479
-8.60065
-8.60268
-8.60076
-8.59483
-8.58479
-8.57058
-8.55214
-8.5294
-8.50233
-8.47089
-8.43504
-8.39475
-8.34995
-8.30052
-8.24644
-8.18767
-8.12417
-8.05586
-7.98266
-7.90444
-7.82114
-7.73262
-7.63883
-7.53963
-7.43497
-7.32472
-7.20884
-7.08721
-6.95979
-6.8265
-6.68732
-6.54221
-6.39119
-6.23425
-6.07145
-5.90284
-5.72851
-5.54855
-5.36308
-5.17226
-4.97623
-4.77519
-4.5693
-4.3588
-4.14387
-3.92477
-3.70169
-3.4749
-3.24459
-3.01104
-2.77446
-2.53507
-2.29309
-2.04874
-1.80224
-1.55381
-1.30368
-1.05202
-0.799058
-0.544997
-0.290034
-0.0343556
0.221859
0.478461
0.735268
0.992128
1.24887
1.50535
1.76139
2.01683
2.2715
2.52525
2.77793
3.02939
3.2795
3.52811
3.77504
4.02016
4.2633
4.50433
4.74311
4.97951
5.21341
5.44469
5.67324
5.89896
6.12172
6.3414
6.55789
6.77108
6.98087
7.18714
7.38981
7.58878
7.78395
7.97523
8.16254
8.34576
8.52486
8.69955
8.87037
9.03415
9.20205
9.32633
-7.42398
-7.42482
-7.43025
-7.43858
-7.44708
-7.45523
-7.46303
-7.47042
-7.47733
-7.48366
-7.48932
-7.4942
-7.49823
-7.50132
-7.50342
-7.50446
-7.50441
-7.50325
-7.50096
-7.49756
-7.49304
-7.48734
-7.48035
-7.47227
-7.46333
-7.45366
-7.44349
-7.43328
-7.42377
-7.41568
-7.40929
-7.40398
-7.39926
-7.39583
-7.39466
-7.39608
-7.4005
-7.40843
-7.41994
-7.4349
-7.45304
-7.47414
-7.49796
-7.52421
-7.55269
-7.58318
-7.61548
-7.64943
-7.68486
-7.72162
-7.75957
-7.7986
-7.83858
-7.87938
-7.92089
-7.96294
-8.00537
-8.04803
-8.09069
-8.13317
-8.17523
-8.21666
-8.25722
-8.29668
-8.33481
-8.37138
-8.40616
-8.43893
-8.46946
-8.49753
-8.52293
-8.54546
-8.56492
-8.58113
-8.59392
-8.60314
-8.60867
-8.61038
-8.60818
-8.60198
-8.59171
-8.57729
-8.55866
-8.53577
-8.50857
-8.47705
-8.44116
-8.40089
-8.35614
-8.30688
-8.25299
-8.19448
-8.13128
-8.06333
-7.99051
-7.91274
-7.8299
-7.74191
-7.64863
-7.54999
-7.44587
-7.33619
-7.22084
-7.09974
-6.97283
-6.84002
-6.70129
-6.5566
-6.40595
-6.24936
-6.08686
-5.91852
-5.74441
-5.56465
-5.37935
-5.18866
-4.99274
-4.79178
-4.58597
-4.37552
-4.16065
-3.9416
-3.71857
-3.49183
-3.2616
-3.02813
-2.79163
-2.55234
-2.31047
-2.06625
-1.81988
-1.57162
-1.32165
-1.07017
-0.817407
-0.563557
-0.308813
-0.0533501
0.202656
0.459048
0.715648
0.972307
1.22886
1.48515
1.741
1.99626
2.25076
2.50435
2.75688
3.00823
3.25824
3.50677
3.75363
3.99869
4.24177
4.48275
4.7215
4.95788
5.19178
5.42308
5.65167
5.87743
6.10025
6.31999
6.53653
6.74978
6.95963
7.16597
7.3687
7.56774
7.76298
7.95431
8.14163
8.32481
8.50378
8.67817
8.84848
9.0112
9.17839
9.29715
-7.42513
-7.42765
-7.43465
-7.44267
-7.45048
-7.45811
-7.46556
-7.47271
-7.47945
-7.48568
-7.49127
-7.49611
-7.5001
-7.50316
-7.50523
-7.50625
-7.50619
-7.50504
-7.50276
-7.49936
-7.4948
-7.489
-7.48206
-7.47425
-7.46574
-7.45678
-7.44779
-7.43928
-7.4316
-7.42473
-7.41841
-7.41257
-7.40759
-7.40449
-7.40415
-7.40711
-7.41373
-7.42406
-7.43787
-7.45494
-7.47504
-7.49787
-7.52318
-7.55073
-7.58028
-7.61162
-7.64458
-7.67898
-7.71465
-7.75145
-7.78927
-7.82798
-7.86746
-7.90758
-7.94825
-7.98932
-8.03067
-8.07215
-8.11358
-8.15481
-8.19564
-8.23587
-8.2753
-8.31373
-8.35092
-8.38665
-8.4207
-8.45282
-8.48279
-8.51037
-8.53533
-8.55746
-8.57655
-8.5924
-8.60485
-8.61372
-8.6189
-8.62026
-8.61771
-8.61118
-8.60058
-8.58586
-8.56695
-8.54379
-8.51636
-8.48464
-8.44861
-8.40824
-8.3635
-8.31424
-8.26048
-8.20212
-8.13913
-8.07144
-7.99892
-7.9215
-7.83904
-7.75146
-7.65861
-7.56042
-7.45673
-7.3475
-7.23257
-7.1119
-6.98535
-6.8529
-6.71448
-6.57007
-6.41965
-6.26325
-6.10091
-5.93267
-5.75864
-5.57891
-5.39361
-5.20289
-5.00692
-4.80588
-4.59999
-4.38943
-4.17448
-3.95533
-3.73224
-3.50543
-3.27516
-3.04166
-2.80516
-2.56587
-2.32404
-2.07986
-1.83358
-1.58541
-1.33556
-1.08423
-0.831625
-0.577957
-0.3234
-0.0681356
0.187681
0.443868
0.700276
0.956734
1.2131
1.46919
1.72485
1.97992
2.23423
2.48765
2.74003
2.99124
3.24115
3.48958
3.73636
3.98132
4.22432
4.46524
4.70393
4.94027
5.17415
5.40544
5.63404
5.85983
6.08268
6.30245
6.51903
6.73231
6.94219
7.14857
7.35135
7.55043
7.74571
7.93706
8.12435
8.30745
8.48624
8.66028
8.83005
8.99173
9.15828
9.27222
-7.42188
-7.4258
-7.43295
-7.44041
-7.44788
-7.45533
-7.46266
-7.46977
-7.47655
-7.48286
-7.48858
-7.49358
-7.49775
-7.501
-7.50326
-7.50447
-7.50458
-7.50357
-7.50142
-7.49813
-7.49366
-7.48806
-7.48151
-7.4743
-7.46667
-7.45895
-7.45138
-7.44402
-7.43693
-7.43021
-7.42398
-7.41863
-7.4148
-7.41325
-7.41456
-7.41913
-7.42716
-7.4387
-7.45361
-7.47168
-7.49267
-7.51631
-7.54232
-7.57046
-7.6005
-7.63224
-7.6655
-7.7001
-7.7359
-7.77275
-7.81052
-7.84909
-7.88833
-7.92815
-7.96842
-8.00904
-8.04987
-8.09079
-8.13165
-8.1723
-8.21256
-8.25225
-8.29119
-8.32916
-8.36595
-8.40134
-8.43509
-8.46696
-8.49668
-8.52401
-8.54872
-8.57059
-8.58939
-8.60494
-8.61705
-8.62557
-8.63036
-8.63133
-8.62839
-8.62147
-8.61048
-8.59538
-8.5761
-8.5526
-8.52484
-8.49282
-8.45655
-8.41602
-8.37114
-8.32189
-8.26812
-8.20983
-8.14698
-8.07946
-8.00718
-7.93002
-7.84787
-7.76061
-7.66811
-7.57027
-7.46696
-7.35807
-7.24349
-7.12312
-6.99687
-6.86467
-6.72645
-6.5822
-6.43191
-6.27558
-6.11326
-5.94502
-5.77093
-5.5911
-5.40568
-5.2148
-5.01865
-4.81741
-4.6113
-4.40055
-4.1854
-3.96606
-3.7428
-3.51585
-3.28546
-3.05185
-2.81528
-2.57594
-2.33409
-2.08991
-1.84365
-1.59554
-1.34579
-1.09457
-0.842113
-0.588611
-0.334231
-0.0791489
0.176475
0.432465
0.688671
0.944931
1.20109
1.45697
1.71242
1.96727
2.22138
2.47461
2.72682
2.97788
3.22767
3.476
3.72266
3.9675
4.2104
4.45122
4.68983
4.92611
5.15994
5.3912
5.6198
5.8456
6.06847
6.28825
6.50484
6.71813
6.92802
7.13442
7.33723
7.53634
7.73165
7.923
8.11024
8.29322
8.47179
8.64546
8.81467
8.97535
9.14129
9.25116
-7.41229
-7.41686
-7.42371
-7.43114
-7.4388
-7.44642
-7.45393
-7.46125
-7.46828
-7.47488
-7.48093
-7.48626
-7.49076
-7.49432
-7.49686
-7.49834
-7.4987
-7.49792
-7.49601
-7.49297
-7.48886
-7.48383
-7.47805
-7.47173
-7.465
-7.45803
-7.45098
-7.44395
-7.43708
-7.43065
-7.42509
-7.42084
-7.41835
-7.41816
-7.42077
-7.4265
-7.43554
-7.44792
-7.46355
-7.48224
-7.50375
-7.5278
-7.55417
-7.58261
-7.61292
-7.6449
-7.67838
-7.71318
-7.74916
-7.78615
-7.82403
-7.86268
-7.90198
-7.94183
-7.98211
-8.02272
-8.06352
-8.1044
-8.14523
-8.18585
-8.22611
-8.2658
-8.30474
-8.34273
-8.37954
-8.41495
-8.44871
-8.48057
-8.51028
-8.53757
-8.56218
-8.5839
-8.6025
-8.61778
-8.62956
-8.63769
-8.64207
-8.64259
-8.63919
-8.6318
-8.62036
-8.60481
-8.58508
-8.56113
-8.53295
-8.50055
-8.46396
-8.42318
-8.37817
-8.32877
-8.27498
-8.2167
-8.15391
-8.08651
-8.01441
-7.93746
-7.85557
-7.76857
-7.67638
-7.57882
-7.47583
-7.36722
-7.25293
-7.1328
-7.00677
-6.87473
-6.73665
-6.59248
-6.44222
-6.28588
-6.1235
-5.95515
-5.78091
-5.60091
-5.41525
-5.22414
-5.02771
-4.82621
-4.61981
-4.4088
-4.19337
-3.97381
-3.75032
-3.52319
-3.29263
-3.05889
-2.8222
-2.5828
-2.34089
-2.0967
-1.85045
-1.60238
-1.35271
-1.10161
-0.849303
-0.595965
-0.341772
-0.0868776
0.168536
0.424321
0.680307
0.93635
1.19228
1.44793
1.70315
1.95777
2.21167
2.4647
2.71672
2.96762
3.21729
3.4655
3.71202
3.95672
4.19948
4.44018
4.67869
4.91489
5.14865
5.37988
5.60845
5.83428
6.05715
6.27692
6.4935
6.70679
6.91668
7.12309
7.32591
7.52505
7.72037
7.9117
8.09888
8.28171
8.46003
8.63331
8.80196
8.96172
9.12704
9.23356
-7.39482
-7.39938
-7.40638
-7.41457
-7.42292
-7.43102
-7.43888
-7.44654
-7.45398
-7.46106
-7.4676
-7.47342
-7.47834
-7.4823
-7.48522
-7.48707
-7.4878
-7.48743
-7.48595
-7.48341
-7.47989
-7.47549
-7.47033
-7.46455
-7.45829
-7.45167
-7.44484
-7.43802
-7.43152
-7.42568
-7.42086
-7.41745
-7.41595
-7.41683
-7.42049
-7.42721
-7.43714
-7.45027
-7.46651
-7.48568
-7.50756
-7.53192
-7.55855
-7.58724
-7.6178
-7.65004
-7.68378
-7.71886
-7.75511
-7.79239
-7.83057
-7.86955
-7.90921
-7.94942
-7.99007
-8.03103
-8.07219
-8.11344
-8.15462
-8.1956
-8.23622
-8.27628
-8.3156
-8.35396
-8.39113
-8.42687
-8.46091
-8.49301
-8.52289
-8.55026
-8.57487
-8.59648
-8.61488
-8.62987
-8.64126
-8.64892
-8.65275
-8.65271
-8.64874
-8.6408
-8.62883
-8.61276
-8.59251
-8.56803
-8.53931
-8.50645
-8.4695
-8.42846
-8.38324
-8.33377
-8.27988
-8.22159
-8.15883
-8.09154
-8.01958
-7.94285
-7.86117
-7.77443
-7.68249
-7.58522
-7.48249
-7.37416
-7.26011
-7.14021
-7.01435
-6.88244
-6.74445
-6.60032
-6.45005
-6.29365
-6.13117
-5.96267
-5.78823
-5.60797
-5.42205
-5.23064
-5.03392
-4.83211
-4.62544
-4.41413
-4.19845
-3.97864
-3.75494
-3.5276
-3.29687
-3.06299
-2.82619
-2.58671
-2.34476
-2.10055
-1.8543
-1.60629
-1.35672
-1.10576
-0.853622
-0.600472
-0.346477
-0.0917977
0.163393
0.418945
0.674697
0.930492
1.18617
1.44156
1.69652
1.9509
2.20456
2.45737
2.70918
2.95991
3.20948
3.45759
3.70393
3.94846
4.19106
4.43162
4.67
4.9061
5.13979
5.37096
5.59951
5.82535
6.04823
6.26798
6.48453
6.6978
6.90769
7.1141
7.31693
7.5161
7.71145
7.90275
8.08984
8.27252
8.45059
8.62346
8.79157
8.95047
9.11515
9.21904
-7.36904
-7.37343
-7.38134
-7.39093
-7.40028
-7.40894
-7.41723
-7.42541
-7.43354
-7.44139
-7.44867
-7.45513
-7.46061
-7.46506
-7.46847
-7.47081
-7.47206
-7.47221
-7.47126
-7.46926
-7.46626
-7.46233
-7.45759
-7.45213
-7.44607
-7.43961
-7.43297
-7.42643
-7.42027
-7.41484
-7.41055
-7.40786
-7.40722
-7.40904
-7.41365
-7.42127
-7.43198
-7.44578
-7.46254
-7.48212
-7.50432
-7.52896
-7.55586
-7.58482
-7.61569
-7.64828
-7.68241
-7.7179
-7.75458
-7.79232
-7.83099
-7.87048
-7.91067
-7.95143
-7.99266
-8.03423
-8.07603
-8.11793
-8.15978
-8.20142
-8.2427
-8.28343
-8.32341
-8.3624
-8.40018
-8.43647
-8.47101
-8.50349
-8.53361
-8.56103
-8.58551
-8.60686
-8.6249
-8.63943
-8.65024
-8.65721
-8.66033
-8.6596
-8.655
-8.64649
-8.634
-8.61742
-8.59665
-8.57159
-8.54226
-8.50886
-8.47155
-8.43028
-8.38495
-8.33534
-8.2814
-8.22308
-8.16036
-8.0932
-8.02142
-7.94491
-7.86346
-7.77698
-7.68528
-7.58831
-7.48585
-7.37782
-7.26401
-7.14434
-7.01865
-6.88689
-6.74897
-6.60489
-6.45462
-6.29818
-6.1356
-5.96694
-5.7923
-5.61179
-5.42562
-5.23392
-5.03693
-4.83484
-4.62791
-4.41635
-4.20044
-3.98039
-3.7565
-3.52898
-3.29811
-3.06409
-2.8272
-2.58766
-2.34572
-2.10155
-1.85539
-1.60749
-1.35807
-1.10731
-0.855392
-0.602483
-0.348736
-0.0943289
0.160593
0.41586
0.671328
0.926824
1.1822
1.43729
1.69195
1.94604
2.19943
2.45198
2.70356
2.9541
3.20365
3.45172
3.69788
3.94221
4.18463
4.42504
4.6633
4.89929
5.1329
5.36401
5.59257
5.81846
6.04137
6.26108
6.47759
6.69084
6.90071
7.10712
7.30997
7.50917
7.70455
7.89583
8.08282
8.26533
8.44313
8.61561
8.78319
8.94129
9.10529
9.20725
-7.33614
-7.34083
-7.35026
-7.36165
-7.3721
-7.3815
-7.39056
-7.39944
-7.40827
-7.41702
-7.42538
-7.43284
-7.43905
-7.444
-7.4479
-7.45078
-7.45259
-7.45328
-7.45284
-7.4513
-7.44868
-7.44505
-7.44049
-7.43513
-7.42915
-7.42275
-7.41617
-7.40971
-7.40371
-7.39861
-7.39481
-7.39277
-7.39288
-7.39552
-7.40093
-7.40928
-7.42063
-7.43496
-7.45216
-7.47211
-7.49465
-7.5196
-7.5468
-7.57609
-7.6073
-7.64026
-7.67478
-7.7107
-7.74787
-7.78615
-7.82541
-7.86552
-7.90637
-7.94783
-7.98979
-8.03214
-8.07475
-8.11749
-8.16021
-8.20272
-8.24485
-8.2864
-8.32715
-8.36686
-8.40527
-8.44209
-8.47704
-8.50977
-8.53993
-8.56716
-8.59123
-8.61202
-8.62945
-8.64327
-8.65319
-8.65913
-8.66134
-8.6599
-8.65477
-8.64586
-8.63308
-8.61622
-8.59511
-8.56959
-8.53969
-8.50577
-8.46813
-8.42669
-8.3812
-8.3315
-8.27743
-8.21903
-8.15635
-8.08928
-8.0177
-7.94138
-7.86015
-7.77387
-7.68243
-7.58571
-7.48355
-7.37579
-7.26227
-7.14281
-7.0173
-6.88567
-6.74785
-6.60383
-6.45357
-6.2971
-6.13445
-5.96568
-5.79089
-5.61022
-5.42384
-5.23194
-5.03473
-4.83242
-4.62525
-4.41344
-4.19726
-3.97694
-3.75278
-3.52503
-3.29394
-3.05977
-2.82279
-2.58325
-2.34142
-2.0975
-1.85166
-1.60409
-1.35498
-1.10455
-0.852981
-0.600437
-0.347079
-0.093075
0.16143
0.416273
0.671299
0.926344
1.18125
1.43588
1.69009
1.94374
2.19669
2.44882
2.69997
2.95012
3.19948
3.44744
3.69335
3.93743
4.17964
4.41986
4.65797
4.89384
5.12735
5.3584
5.587
5.81307
6.03608
6.25576
6.47224
6.68546
6.89534
7.10176
7.30464
7.50393
7.69939
7.89066
8.07755
8.25989
8.43743
8.60951
8.77659
8.93395
9.0972
9.19789
-7.29906
-7.30464
-7.31613
-7.32973
-7.34134
-7.35103
-7.36049
-7.37043
-7.38053
-7.39044
-7.39987
-7.40838
-7.41542
-7.42092
-7.42532
-7.42874
-7.43109
-7.43227
-7.43226
-7.43104
-7.42862
-7.42509
-7.42055
-7.41512
-7.40899
-7.40241
-7.39568
-7.38915
-7.38323
-7.37835
-7.37492
-7.37336
-7.37404
-7.37725
-7.3832
-7.39204
-7.40379
-7.41844
-7.43593
-7.45613
-7.4789
-7.50408
-7.53154
-7.56112
-7.59264
-7.62593
-7.66081
-7.69714
-7.73479
-7.7736
-7.81346
-7.85424
-7.8958
-7.93804
-7.98083
-8.02405
-8.06753
-8.11112
-8.15465
-8.19794
-8.24078
-8.28298
-8.32428
-8.36446
-8.40324
-8.44031
-8.47536
-8.50804
-8.53789
-8.56443
-8.58752
-8.60732
-8.62386
-8.63675
-8.64536
-8.64972
-8.65062
-8.64841
-8.64294
-8.63396
-8.62124
-8.6045
-8.58353
-8.55831
-8.52898
-8.49566
-8.45838
-8.41702
-8.37149
-8.32159
-8.26736
-8.20884
-8.14611
-8.07905
-8.00752
-7.93127
-7.85016
-7.764
-7.67275
-7.57621
-7.47428
-7.36673
-7.25344
-7.13415
-7.0088
-6.87726
-6.73953
-6.59552
-6.44526
-6.28873
-6.12597
-5.95705
-5.78208
-5.60122
-5.41462
-5.22249
-5.02502
-4.82245
-4.61499
-4.40291
-4.1864
-3.9658
-3.74134
-3.51333
-3.28201
-3.04768
-2.81059
-2.57106
-2.32934
-2.08566
-1.84015
-1.59292
-1.34417
-1.09412
-0.842955
-0.590843
-0.337957
-0.0844357
0.169554
0.423874
0.67835
0.932835
1.18717
1.44121
1.69483
1.94788
2.20023
2.45172
2.70218
2.95151
3.19957
3.44631
3.69157
3.9352
4.17702
4.41691
4.65471
4.89031
5.12355
5.35436
5.58281
5.80892
6.03198
6.2516
6.46803
6.68124
6.89113
7.09759
7.30052
7.49998
7.69564
7.88694
8.07374
8.25592
8.43321
8.60494
8.77154
8.9282
9.09067
9.19072
-7.2614
-7.26822
-7.28223
-7.29777
-7.30971
-7.31983
-7.33038
-7.34146
-7.35266
-7.36365
-7.37415
-7.38366
-7.39153
-7.39773
-7.40274
-7.40678
-7.40967
-7.4113
-7.41161
-7.41057
-7.4082
-7.40456
-7.39976
-7.39398
-7.38744
-7.38045
-7.37333
-7.3665
-7.36038
-7.35541
-7.35198
-7.35049
-7.35126
-7.35457
-7.3606
-7.36949
-7.38126
-7.39592
-7.41339
-7.43359
-7.4564
-7.4817
-7.50935
-7.53917
-7.57099
-7.60461
-7.63987
-7.67665
-7.7148
-7.75419
-7.79466
-7.83608
-7.8783
-7.92121
-7.96467
-8.00853
-8.05263
-8.09679
-8.14083
-8.18457
-8.22778
-8.27026
-8.31177
-8.35205
-8.39084
-8.42785
-8.46276
-8.49513
-8.52429
-8.54933
-8.57027
-8.58806
-8.60332
-8.61584
-8.62498
-8.63023
-8.63157
-8.62926
-8.62354
-8.61434
-8.60145
-8.58456
-8.56351
-8.53844
-8.50965
-8.47687
-8.43984
-8.3985
-8.35283
-8.30282
-8.24848
-8.18993
-8.12717
-8.06014
-7.98865
-7.91251
-7.83153
-7.7456
-7.65459
-7.55837
-7.45673
-7.3495
-7.23649
-7.11751
-6.99242
-6.86114
-6.72362
-6.57979
-6.42964
-6.27317
-6.11043
-5.94145
-5.76638
-5.58537