/*--------------------------------*- C++ -*----------------------------------*\
| =========                 |                                                 |
| \\      /  F ield         | OpenFOAM: The Open Source CFD Toolbox           |
|  \\    /   O peration     | Version:  v2012                                 |
|   \\  /    A nd           | Website:  www.openfoam.com                      |
|    \\/     M anipulation  |                                                 |
\*---------------------------------------------------------------------------*/
FoamFile
{
    version     2.0;
    format      ascii;
    class       volScalarField;
    location    "400";
    object      nut;
}
// * * * * * * * * * * * * * * * * * * * * * * * * * * * * * * * * * * * * * //

dimensions      [0 2 -1 0 0 0 0];


internalField   nonuniform List<scalar> 
12225
(
0.0122671
0.00158819
0.000666128
0.000410104
0.00029404
0.000227808
0.000186418
0.000144345
0.000166352
0.000215697
0.000223832
0.000214195
0.000195172
0.000167533
0.000161405
0.000145536
0.000132333
0.000120158
0.0323823
0.00744532
0.00330638
0.00204329
0.00146802
0.00114429
0.000938659
0.000784863
0.000690378
0.000626891
0.000569549
0.000518719
0.000475219
0.000435573
0.000404981
0.000372256
0.000347122
0.000321111
0.0490123
0.01515
0.00728196
0.00457854
0.00330639
0.00258047
0.00211327
0.00178187
0.00154674
0.0013725
0.00123147
0.00111529
0.00101836
0.000936111
0.0008667
0.0008043
0.000753569
0.000701012
0.063054
0.0237783
0.0122894
0.00788814
0.00573397
0.00448496
0.0036744
0.00310418
0.00268715
0.00236996
0.00211791
0.00191316
0.00174402
0.00160223
0.00148243
0.00137861
0.00129107
0.00120453
0.074932
0.0328517
0.0181452
0.0119262
0.00874548
0.00686412
0.00563086
0.00476129
0.00411867
0.00362571
0.00323515
0.00291875
0.002658
0.00244005
0.00225597
0.00209833
0.00196335
0.00183981
0.0849536
0.0420208
0.0246655
0.0166359
0.0123325
0.00972587
0.0079954
0.00676739
0.00585403
0.00515004
0.0045919
0.00413983
0.00376743
0.00345635
0.00319352
0.00296907
0.00277613
0.00260657
0.0933822
0.0510219
0.0316642
0.0219415
0.016474
0.0130717
0.0107779
0.00913539
0.00790597
0.00695436
0.00619832
0.00558532
0.00508009
0.00465802
0.00430137
0.00399702
0.00373535
0.00350914
0.0993794
0.0583363
0.0378386
0.0268568
0.0204171
0.0163053
0.0134892
0.011453
0.00991905
0.0087267
0.00777696
0.00700569
0.00636943
0.00583762
0.00538816
0.00500468
0.00467516
0.00439182
0.104023
0.0645454
0.0433804
0.0314239
0.0241571
0.0194092
0.0161097
0.0137018
0.0118767
0.0104523
0.00931473
0.0083894
0.00762524
0.00698615
0.00644586
0.00598491
0.00558899
0.00524916
0.108368
0.0708939
0.0493757
0.0365496
0.0284517
0.0230231
0.0191863
0.0163548
0.0141927
0.0124969
0.0111382
0.0100305
0.00911456
0.00834784
0.00769936
0.00714607
0.00667097
0.00626328
0.112368
0.0772557
0.0557282
0.0421918
0.0332976
0.0271652
0.0227468
0.0194433
0.0168984
0.0148904
0.013275
0.0119546
0.0108606
0.00994396
0.00916816
0.00850607
0.00793759
0.0074494
0.115994
0.0834975
0.0623053
0.0482611
0.0386474
0.0318167
0.026789
0.0229739
0.0200047
0.0176452
0.0157379
0.0141737
0.012875
0.0117851
0.010862
0.0100738
0.0093969
0.00881484
0.119234
0.0894856
0.0689377
0.0546109
0.0443919
0.0369007
0.0312597
0.0269089
0.0234837
0.02074
0.0185097
0.0166735
0.015145
0.0138601
0.0127705
0.0118397
0.0110398
0.010351
0.122086
0.095084
0.075415
0.0610223
0.0503361
0.0422535
0.0360231
0.0311353
0.0272402
0.0240931
0.0215191
0.0193909
0.0176141
0.0161175
0.0148467
0.0137601
0.0128258
0.0120197
0.124546
0.100135
0.0814619
0.0671726
0.056158
0.047577
0.0408126
0.0354174
0.031066
0.0275197
0.0246013
0.0221778
0.0201482
0.018435
0.0169783
0.0157315
0.0146584
0.0137312
0.126578
0.104396
0.0866605
0.0725515
0.0613228
0.0523526
0.0451453
0.0393148
0.0345631
0.0306611
0.0274325
0.024741
0.0224806
0.020569
0.0189413
0.0175468
0.0163455
0.0153062
0.128011
0.107322
0.0902141
0.0762353
0.0648743
0.0556509
0.0481493
0.0420254
0.0370012
0.0328553
0.0294126
0.0265352
0.0241143
0.0220643
0.0203171
0.0188191
0.0175275
0.0164083
0.128006
0.107313
0.0902048
0.0762269
0.0648674
0.0556454
0.048145
0.0420221
0.0369988
0.0328537
0.0294117
0.0265349
0.0241147
0.0220651
0.0203184
0.0188205
0.0175286
0.0164082
0.126509
0.104255
0.0864922
0.0723807
0.0611613
0.052205
0.0450128
0.0391967
0.0344584
0.0305685
0.0273506
0.0246684
0.0224163
0.0205118
0.0188902
0.0175006
0.0163023
0.015263
0.124267
0.0995604
0.0807712
0.0664676
0.0554886
0.0469631
0.0402594
0.0349228
0.0306248
0.0271258
0.0242487
0.0218611
0.0198625
0.0181762
0.0167425
0.0155151
0.0144574
0.0135404
0.12136
0.0936399
0.0737261
0.0593348
0.0487592
0.0408248
0.0347467
0.0300003
0.0262308
0.0231928
0.0207127
0.018665
0.0169572
0.0155197
0.0142998
0.0132566
0.0123582
0.0115797
0.117686
0.0865903
0.0656967
0.0514791
0.0415374
0.0343608
0.0290183
0.0249322
0.0217348
0.0191848
0.0171184
0.0154211
0.0140106
0.0128263
0.0118228
0.0109656
0.0102279
0.00958885
0.11305
0.0784122
0.056921
0.0432687
0.0342296
0.0279652
0.0234365
0.0200435
0.0174263
0.0153598
0.0136967
0.012337
0.0112107
0.0102671
0.00946865
0.00878716
0.00820096
0.00769339
0.107169
0.0691009
0.0476372
0.035029
0.0271566
0.021922
0.0182437
0.0155401
0.0134818
0.0118708
0.0105819
0.00953233
0.00866517
0.0079399
0.00732686
0.0068039
0.00635418
0.00596494
0.0996761
0.0587036
0.0381279
0.0270699
0.0205782
0.0164329
0.0135949
0.0115437
0.00999935
0.00879954
0.00784425
0.00706856
0.00642884
0.00589443
0.00544293
0.00505792
0.0047268
0.00444036
0.0901097
0.0473665
0.0287363
0.0196847
0.0146976
0.0116311
0.0095785
0.0081152
0.0070235
0.00618081
0.00551237
0.00497029
0.00452349
0.00415046
0.00383511
0.00356631
0.0033349
0.0031349
0.0779076
0.0353826
0.0198606
0.0131383
0.00966105
0.00759295
0.00623348
0.0052741
0.00456424
0.00402037
0.00359044
0.00324087
0.00295213
0.0027111
0.00250632
0.00233222
0.00218159
0.00205173
0.06238
0.0232554
0.0119461
0.00765493
0.00556337
0.00435253
0.00356719
0.00301615
0.0026133
0.00231034
0.00207204
0.00187477
0.00171019
0.00157294
0.00145369
0.00135328
0.00126494
0.00118917
0.0426105
0.0117794
0.0054693
0.00341385
0.0024607
0.00192004
0.00157265
0.00132941
0.00115828
0.0010412
0.000949576
0.000864995
0.00079219
0.000729954
0.000672347
0.000620709
0.000580537
0.000544433
0.0168348
0.00255985
0.00110002
0.000683429
0.000493725
0.00038681
0.000318007
0.000268388
0.000267466
0.000335947
0.000374785
0.000353543
0.000322059
0.00028421
0.000267003
0.000220457
0.000253618
0.000257936
5.28205e-10
1.02338e-07
1.15801e-06
5.2093e-06
9.92109e-06
1.28644e-05
1.32168e-05
1.11844e-05
8.85979e-06
5.77503e-06
3.40352e-06
1.94925e-06
1.38213e-06
1.50606e-06
2.06985e-06
2.54126e-06
2.41361e-06
2.20221e-06
3.68661e-06
2.52261e-05
1.49843e-05
2.51269e-06
5.62949e-06
2.89272e-05
5.77662e-05
7.53861e-05
9.17888e-05
0.000105522
0.00011762
0.000127701
0.00013653
0.000144121
0.000150762
0.000156546
0.000161595
0.000166053
0.000170005
0.000173536
0.000176702
0.000179547
0.0001821
0.000184382
0.000186413
0.000188207
0.00018978
0.000191144
0.00019231
0.000193282
0.000194061
0.000194641
0.000194901
0.00019515
0.000195199
0.000195073
0.000194773
0.000194326
0.000193726
0.000192979
0.000192086
0.000191048
0.000189867
0.000188546
0.000187087
0.000185492
0.000183765
0.000181906
0.000179918
0.000177802
0.000175561
0.000173198
0.000170714
0.000168111
0.000165392
0.000162557
0.000159609
0.000156549
0.000153378
0.000150096
0.000146705
0.000143203
0.000139589
0.000135856
0.000131999
0.000128008
0.000123871
0.000119574
0.000115105
0.000110449
0.00010559
0.00010051
9.51825e-05
8.95865e-05
8.37159e-05
7.76364e-05
7.16199e-05
6.63313e-05
6.2565e-05
6.02179e-05
5.84621e-05
5.68533e-05
5.52741e-05
5.37026e-05
5.21372e-05
5.05794e-05
4.90313e-05
4.74949e-05
4.59727e-05
4.44711e-05
4.30183e-05
4.17784e-05
4.05711e-05
3.93781e-05
3.82023e-05
3.70445e-05
3.59056e-05
3.47862e-05
3.36874e-05
3.26096e-05
3.15537e-05
3.052e-05
2.95089e-05
2.85209e-05
2.75566e-05
2.66163e-05
2.57002e-05
2.48082e-05
2.39416e-05
2.31322e-05
2.23964e-05
2.16794e-05
2.09774e-05
2.03003e-05
1.96511e-05
1.90149e-05
1.8393e-05
1.77882e-05
1.72017e-05
1.66336e-05
1.60836e-05
1.55513e-05
1.50363e-05
1.4538e-05
1.40563e-05
1.35906e-05
1.31405e-05
1.27056e-05
1.22857e-05
1.18801e-05
1.14888e-05
1.1111e-05
1.07465e-05
1.0395e-05
1.0056e-05
9.72928e-06
9.41456e-06
9.11144e-06
8.8198e-06
8.53925e-06
8.2697e-06
8.01082e-06
7.76256e-06
7.52461e-06
7.29694e-06
7.07924e-06
6.87141e-06
6.67311e-06
6.48407e-06
6.3038e-06
6.13178e-06
5.96723e-06
5.80919e-06
5.65659e-06
5.5073e-06
5.36126e-06
5.20903e-06
5.06648e-06
4.86395e-06
4.72405e-06
4.31009e-06
3.68718e-06
3.39443e-09
6.09697e-06
6.19468e-05
0.000138365
0.000182376
0.000206437
0.000215895
0.000214341
0.000205782
0.000188898
0.000167991
0.000148039
0.000138317
0.000144149
0.000158169
0.000166798
0.000169313
0.000170608
0.000176389
0.000187406
0.000200023
0.000217098
0.000237007
0.00025121
0.000262981
0.000272537
0.00028147
0.000294937
0.000313681
0.000327567
0.000340195
0.000351056
0.000360942
0.000369967
0.000377825
0.000385005
0.000391698
0.000398127
0.000404417
0.000410632
0.000416766
0.000422774
0.000428605
0.000434218
0.000439587
0.000444693
0.000449523
0.000454065
0.000458319
0.000462293
0.000465994
0.000469445
0.000472635
0.000475574
0.000478262
0.000480702
0.000482894
0.000484838
0.000486535
0.000487986
0.00048919
0.00049015
0.000490866
0.000491342
0.000491593
0.000491616
0.000491416
0.000490981
0.00049033
0.000489466
0.000488396
0.000487127
0.000485664
0.000484014
0.000482185
0.000480185
0.00047802
0.000475698
0.000473228
0.000470616
0.00046787
0.000464998
0.000462007
0.000458904
0.000455695
0.000452389
0.000448993
0.000445517
0.00044197
0.000438361
0.000434697
0.000430984
0.000427223
0.000423405
0.000419511
0.000415514
0.000411397
0.000407189
0.00040294
0.000398674
0.0003944
0.000390121
0.000385841
0.000381563
0.00037729
0.000373028
0.000368777
0.00036454
0.000360318
0.000356108
0.000351921
0.000347761
0.000343631
0.000339531
0.000335465
0.000331434
0.000327438
0.000323481
0.000319563
0.000315684
0.000311847
0.000308052
0.000304301
0.000300593
0.000296932
0.000293314
0.000289742
0.000286213
0.000282726
0.000279284
0.000275887
0.000272543
0.000269252
0.000265995
0.000262774
0.000259595
0.000256461
0.000253372
0.000250329
0.00024733
0.000244376
0.000241465
0.000238598
0.000235773
0.00023299
0.000230249
0.00022755
0.000224891
0.000222273
0.000219695
0.000217156
0.000214656
0.000212195
0.000209773
0.00020739
0.000205046
0.000202742
0.000200478
0.000198256
0.000196077
0.000193941
0.000191851
0.000189808
0.000187815
0.000185874
0.000183984
0.000182149
0.000180367
0.000178638
0.00017696
0.000175329
0.000173742
0.00017218
0.000170674
0.000169089
0.000167755
0.000165714
0.000165134
0.000162063
0.000160642
7.74267e-08
4.0155e-05
0.000163389
0.000246121
0.000299376
0.000329525
0.000340346
0.000337265
0.00032421
0.000304872
0.000285278
0.000273119
0.000271337
0.000278378
0.00028885
0.000299788
0.000312788
0.000329994
0.000351805
0.000377269
0.000404297
0.000432529
0.000473039
0.000518932
0.000564569
0.000608593
0.000651632
0.000695261
0.000734128
0.000765051
0.000789756
0.000809346
0.000824877
0.000837207
0.000847115
0.000855372
0.000862674
0.000869659
0.000876856
0.000884611
0.000893019
0.000901953
0.000911172
0.000920443
0.000929591
0.000938498
0.000947091
0.000955321
0.000963153
0.000970559
0.000977513
0.000983993
0.00098999
0.0009955
0.00100052
0.00100505
0.00100909
0.00101264
0.00101569
0.00101826
0.00102033
0.00102191
0.00102299
0.00102354
0.0010237
0.00102341
0.00102263
0.00102139
0.0010197
0.00101759
0.00101506
0.00101212
0.00100878
0.00100507
0.001001
0.000996568
0.000991804
0.000986719
0.000981328
0.000975645
0.000969686
0.000963465
0.000956999
0.0009503
0.000943385
0.000936267
0.000928961
0.000921483
0.000913845
0.000906062
0.000898147
0.000890109
0.00088196
0.000873707
0.000865358
0.000856922
0.000848412
0.000839843
0.000831231
0.000822591
0.000813933
0.000805267
0.000796599
0.000787938
0.000779291
0.000770666
0.000762068
0.000753504
0.000744979
0.0007365
0.000728071
0.000719698
0.000711387
0.00070314
0.000694962
0.000686856
0.000678825
0.000670873
0.000663001
0.000655213
0.00064751
0.000639894
0.000632368
0.000624932
0.000617589
0.000610338
0.00060318
0.000596116
0.000589147
0.000582273
0.000575494
0.000568812
0.000562224
0.000555722
0.000549308
0.000542983
0.00053675
0.00053061
0.000524561
0.000518604
0.000512738
0.000506961
0.000501273
0.000495673
0.000490159
0.000484731
0.000479387
0.000474127
0.00046895
0.000463853
0.000458836
0.000453897
0.000449035
0.00044425
0.000439539
0.000434903
0.000430339
0.000425847
0.000421425
0.000417073
0.000412788
0.00040857
0.000404415
0.000400323
0.00039629
0.000392314
0.000388389
0.000384512
0.000380674
0.000376868
0.000373081
0.000369299
0.000365497
0.000361663
0.0003577
0.000353705
0.000349182
0.000344953
0.000338404
0.000326776
6.22484e-07
8.24741e-05
0.000213431
0.000309377
0.000372852
0.000409915
0.000425155
0.000425347
0.000415259
0.000402011
0.00039435
0.000393905
0.000403623
0.000421164
0.000444158
0.000472137
0.000505702
0.000545151
0.000589702
0.000654611
0.000728955
0.000809182
0.000892862
0.000962915
0.00102496
0.00108074
0.00113083
0.00117541
0.00121436
0.00124797
0.00127697
0.00130211
0.00132408
0.00134349
0.00136093
0.00137688
0.00139175
0.00140588
0.00141951
0.00143284
0.001446
0.00145904
0.00147199
0.00148483
0.00149752
0.00150997
0.00152209
0.00153378
0.00154496
0.00155555
0.00156549
0.00157476
0.00158332
0.00159118
0.00159831
0.00160472
0.00161039
0.00161533
0.00161953
0.00162299
0.00162572
0.0016277
0.00162887
0.00162931
0.00162918
0.00162828
0.00162666
0.00162434
0.00162135
0.0016177
0.00161341
0.0016085
0.00160298
0.00159689
0.00159024
0.00158305
0.00157534
0.00156715
0.00155848
0.00154937
0.00153984
0.00152991
0.0015196
0.00150894
0.00149794
0.00148664
0.00147505
0.0014632
0.0014511
0.00143878
0.00142626
0.00141356
0.00140069
0.00138766
0.0013745
0.00136123
0.00134785
0.00133439
0.00132086
0.0013073
0.0012937
0.00128009
0.00126648
0.00125288
0.00123931
0.00122576
0.00121227
0.00119882
0.00118544
0.00117213
0.00115891
0.00114576
0.00113272
0.00111977
0.00110693
0.0010942
0.0010816
0.00106911
0.00105675
0.00104451
0.00103241
0.00102045
0.00100862
0.000996936
0.000985392
0.000973992
0.000962737
0.000951628
0.000940666
0.000929851
0.000919184
0.000908665
0.00089829
0.000888055
0.000877959
0.000868004
0.000858191
0.00084852
0.000838992
0.000829604
0.000820356
0.000811247
0.000802276
0.000793439
0.000784737
0.000776168
0.000767729
0.000759419
0.000751236
0.000743178
0.000735243
0.000727429
0.000719735
0.000712157
0.000704695
0.000697347
0.00069011
0.000682983
0.000675964
0.00066905
0.000662239
0.000655528
0.000648914
0.000642394
0.000635964
0.000629618
0.000623352
0.000617155
0.000611021
0.000604935
0.000598882
0.000592841
0.000586781
0.00058067
0.000574432
0.000568044
0.000561226
0.000554247
0.000545816
0.000529638
1.41243e-06
0.000102181
0.000235392
0.000355285
0.000433997
0.000481257
0.000504727
0.000513199
0.00051493
0.000516314
0.000523768
0.000540543
0.000567206
0.000602766
0.000646475
0.000698389
0.00075944
0.000843711
0.000940188
0.00103583
0.00112456
0.00120869
0.00128767
0.00136001
0.00142645
0.00148757
0.00154376
0.00159536
0.00164272
0.00168628
0.00172653
0.00176393
0.00179893
0.00183189
0.00186312
0.00189287
0.00192133
0.00194864
0.0019749
0.00200017
0.00202447
0.00204782
0.00207021
0.00209163
0.00211205
0.00213144
0.00214978
0.00216702
0.00218314
0.00219814
0.00221199
0.0022247
0.00223627
0.00224673
0.00225609
0.00226437
0.00227159
0.00227775
0.00228288
0.00228699
0.00229009
0.00229215
0.00229308
0.00229318
0.0022923
0.00229043
0.00228761
0.00228385
0.00227917
0.0022736
0.00226716
0.00225989
0.0022518
0.00224292
0.0022333
0.00222295
0.00221191
0.00220021
0.00218787
0.00217494
0.00216144
0.0021474
0.00213285
0.00211783
0.00210236
0.00208648
0.00207021
0.00205359
0.00203664
0.0020194
0.00200188
0.00198412
0.00196615
0.00194797
0.00192962
0.00191113
0.0018925
0.00187378
0.00185497
0.00183611
0.00181721
0.0017983
0.00177939
0.00176049
0.00174163
0.00172282
0.00170408
0.00168541
0.00166683
0.00164835
0.00162998
0.00161173
0.00159361
0.00157563
0.0015578
0.00154013
0.00152261
0.00150527
0.00148809
0.0014711
0.00145428
0.00143766
0.00142122
0.00140497
0.00138892
0.00137307
0.00135742
0.00134196
0.00132671
0.00131165
0.0012968
0.00128215
0.0012677
0.00125344
0.00123938
0.00122551
0.00121183
0.00119835
0.00118507
0.00117197
0.00115906
0.00114635
0.00113382
0.00112147
0.00110931
0.00109733
0.00108553
0.0010739
0.00106244
0.00105115
0.00104003
0.00102908
0.00101829
0.00100765
0.000997175
0.000986851
0.000976678
0.000966653
0.000956774
0.000947037
0.000937438
0.000927976
0.000918644
0.000909439
0.000900356
0.000891389
0.000882529
0.000873768
0.000865093
0.000856492
0.000847943
0.000839423
0.000830897
0.000822323
0.000813631
0.000804761
0.00079551
0.000785916
0.000775777
0.000756069
2.34225e-06
0.000118524
0.000256716
0.000390508
0.000487509
0.000549352
0.000587239
0.000610891
0.000629028
0.000648908
0.000675715
0.00071202
0.000758522
0.000815494
0.000883604
0.000974888
0.00108059
0.00118232
0.00128147
0.00137672
0.00146717
0.00155291
0.00163389
0.00171009
0.00178181
0.00184941
0.00191321
0.00197357
0.0020308
0.00208525
0.00213723
0.00218702
0.00223488
0.00228101
0.00232557
0.00236868
0.00241043
0.00245088
0.00249005
0.00252796
0.00256459
0.00259993
0.00263396
0.00266662
0.0026979
0.00272774
0.00275611
0.00278297
0.00280828
0.002832
0.00285412
0.0028746
0.00289344
0.00291061
0.00292612
0.00293997
0.00295215
0.00296268
0.00297156
0.00297881
0.00298447
0.00298855
0.00299098
0.00299188
0.00299142
0.00298945
0.00298612
0.00298142
0.00297543
0.00296819
0.00295975
0.00295016
0.00293949
0.00292777
0.00291505
0.00290139
0.00288683
0.00287141
0.00285518
0.00283819
0.00282046
0.00280206
0.00278301
0.00276335
0.00274314
0.0027224
0.00270118
0.00267952
0.00265745
0.00263501
0.00261224
0.00258916
0.00256582
0.00254223
0.00251844
0.00249448
0.00247036
0.00244612
0.00242179
0.0023974
0.00237297
0.00234852
0.00232408
0.00229967
0.00227531
0.00225101
0.0022268
0.00220269
0.0021787
0.00215483
0.00213111
0.00210755
0.00208416
0.00206095
0.00203793
0.0020151
0.00199249
0.00197009
0.00194791
0.00192595
0.00190423
0.00188275
0.00186151
0.00184051
0.00181977
0.00179927
0.00177903
0.00175904
0.0017393
0.00171982
0.0017006
0.00168163
0.00166291
0.00164444
0.00162622
0.00160825
0.00159052
0.00157304
0.0015558
0.00153881
0.00152206
0.00150554
0.00148927
0.00147322
0.00145741
0.00144182
0.00142646
0.00141132
0.00139639
0.00138168
0.00136718
0.00135289
0.0013388
0.00132491
0.00131122
0.00129772
0.00128441
0.00127129
0.00125835
0.00124559
0.001233
0.00122058
0.00120833
0.00119624
0.00118431
0.00117252
0.00116087
0.00114935
0.00113794
0.00112663
0.00111541
0.00110423
0.00109307
0.00108187
0.00107058
0.00105912
0.00104732
0.00103518
0.00102292
0.00100053
2.81101e-06
0.000127044
0.000269567
0.000408005
0.000526856
0.000608507
0.000664927
0.000707298
0.000744883
0.000784921
0.000832427
0.000890289
0.000960336
0.00105351
0.00116114
0.00126794
0.00137413
0.00147745
0.0015774
0.00167358
0.00176579
0.00185404
0.00193841
0.00201908
0.00209629
0.00217032
0.00224144
0.00230992
0.00237602
0.00243996
0.00250196
0.0025622
0.00262082
0.00267794
0.00273365
0.00278799
0.00284101
0.00289272
0.00294311
0.00299216
0.00303984
0.00308612
0.00313095
0.00317429
0.00321607
0.00325626
0.00329479
0.00333161
0.00336668
0.00339994
0.00343136
0.0034609
0.00348851
0.00351418
0.00353787
0.00355956
0.00357925
0.00359691
0.00361255
0.00362616
0.00363774
0.00364732
0.00365489
0.0036605
0.00366415
0.00366577
0.00366568
0.00366369
0.00365992
0.00365441
0.0036472
0.00363836
0.00362794
0.00361601
0.00360262
0.00358785
0.00357175
0.0035544
0.00353585
0.00351619
0.00349547
0.00347375
0.00345112
0.00342763
0.00340334
0.00337833
0.00335264
0.00332634
0.00329948
0.00327211
0.0032443
0.00321608
0.00318751
0.00315863
0.00312947
0.00310008
0.0030705
0.00304077
0.00301091
0.00298097
0.00295098
0.00292096
0.00289095
0.00286097
0.00283105
0.0028012
0.00277146
0.00274183
0.00271235
0.00268303
0.00265388
0.00262492
0.00259617
0.00256763
0.00253933
0.00251126
0.00248345
0.00245589
0.00242861
0.0024016
0.00237487
0.00234842
0.00232227
0.00229642
0.00227086
0.00224561
0.00222066
0.00219602
0.00217168
0.00214766
0.00212394
0.00210052
0.00207741
0.00205461
0.0020321
0.00200989
0.00198798
0.00196636
0.00194504
0.00192401
0.00190327
0.00188282
0.00186265
0.00184276
0.00182315
0.00180381
0.00178474
0.00176594
0.0017474
0.00172911
0.00171107
0.00169329
0.00167575
0.00165845
0.00164139
0.00162456
0.00160795
0.00159158
0.00157542
0.00155948
0.00154375
0.00152822
0.0015129
0.00149777
0.00148283
0.00146807
0.00145348
0.00143905
0.00142477
0.00141061
0.00139656
0.00138259
0.00136866
0.00135473
0.00134072
0.00132656
0.0013121
0.00129739
0.00128236
0.00125817
2.95351e-06
0.000128872
0.0002708
0.000407387
0.000538094
0.000641995
0.000719677
0.000781635
0.000838086
0.00089678
0.000966062
0.00105936
0.00117013
0.00129169
0.00140733
0.00151866
0.0016265
0.00173103
0.0018322
0.00192996
0.00202432
0.00211539
0.00220332
0.00228828
0.0023705
0.00245021
0.00252763
0.00260297
0.00267642
0.00274815
0.00281831
0.002887
0.00295433
0.00302036
0.00308512
0.00314864
0.00321092
0.00327194
0.00333168
0.00339009
0.00344712
0.00350273
0.00355685
0.00360942
0.00366038
0.00370966
0.0037572
0.00380293
0.00384679
0.00388873
0.00392868
0.00396661
0.00400245
0.00403617
0.00406773
0.0040971
0.00412425
0.00414916
0.00417181
0.0041922
0.00421031
0.00422615
0.00423973
0.00425105
0.00426014
0.004267
0.00427172
0.00427418
0.00427461
0.00427296
0.00426929
0.00426364
0.00425607
0.00424663
0.00423539
0.00422241
0.00420774
0.00419147
0.00417365
0.00415435
0.00413365
0.00411162
0.00408834
0.00406386
0.00403827
0.00401163
0.00398403
0.00395552
0.00392617
0.00389607
0.00386526
0.00383381
0.00380179
0.00376925
0.00373625
0.00370285
0.0036691
0.00363506
0.00360076
0.00356627
0.00353162
0.00349687
0.00346204
0.00342717
0.00339231
0.00335748
0.00332272
0.00328805
0.0032535
0.0032191
0.00318487
0.00315083
0.003117
0.00308339
0.00305003
0.00301693
0.0029841
0.00295155
0.0029193
0.00288736
0.00285573
0.00282443
0.00279345
0.00276281
0.0027325
0.00270254
0.00267293
0.00264366
0.00261475
0.00258619
0.00255798
0.00253012
0.00250261
0.00247545
0.00244864
0.00242217
0.00239604
0.00237026
0.00234481
0.0023197
0.00229493
0.00227049
0.00224638
0.00222259
0.00219912
0.00217596
0.00215312
0.00213059
0.00210836
0.00208643
0.00206479
0.00204344
0.00202238
0.0020016
0.00198109
0.00196085
0.00194089
0.00192118
0.00190173
0.00188254
0.00186359
0.00184488
0.00182641
0.00180817
0.00179016
0.00177235
0.00175476
0.00173735
0.00172012
0.00170305
0.00168611
0.00166929
0.00165252
0.00163578
0.00161899
0.00160208
0.0015849
0.00156752
0.0015496
0.00152349
2.76594e-06
0.000125312
0.000264012
0.000395588
0.000520138
0.000632457
0.000726691
0.000808789
0.000893809
0.0009905
0.00110105
0.00122677
0.00136359
0.00149119
0.00161156
0.00172664
0.00183738
0.00194414
0.00204725
0.00214707
0.00224382
0.00233771
0.00242894
0.00251771
0.00260424
0.00268873
0.00277136
0.00285232
0.00293175
0.00300979
0.00308654
0.00316207
0.00323646
0.00330972
0.00338188
0.00345292
0.00352283
0.00359156
0.00365908
0.00372532
0.00379021
0.0038537
0.00391571
0.00397615
0.00403495
0.00409204
0.00414734
0.00420077
0.00425225
0.00430173
0.00434914
0.00439441
0.00443749
0.00447832
0.00451687
0.00455309
0.00458694
0.0046184
0.00464745
0.00467406
0.00469823
0.00471995
0.00473922
0.00475605
0.00477045
0.00478244
0.00479205
0.00479928
0.00480421
0.00480678
0.00480716
0.00480534
0.00480137
0.0047953
0.00478718
0.00477708
0.00476506
0.00475118
0.00473551
0.00471811
0.00469906
0.00467843
0.00465628
0.0046327
0.00460775
0.0045815
0.00455404
0.00452542
0.00449574
0.00446504
0.00443341
0.00440092
0.00436763
0.0043336
0.00429891
0.00426361
0.00422777
0.00419144
0.00415469
0.00411757
0.00408013
0.00404243
0.00400452
0.00396644
0.00392824
0.00388995
0.00385163
0.00381331
0.00377501
0.00373679
0.00369866
0.00366065
0.00362281
0.00358513
0.00354767
0.00351042
0.00347342
0.00343668
0.00340021
0.00336404
0.00332818
0.00329263
0.00325741
0.00322253
0.00318799
0.00315381
0.00311999
0.00308653
0.00305344
0.00302073
0.00298839
0.00295642
0.00292483
0.00289362
0.00286278
0.00283231
0.00280222
0.00277251
0.00274316
0.00271419
0.00268558
0.00265733
0.00262945
0.00260193
0.00257476
0.00254795
0.00252148
0.00249535
0.00246956
0.00244411
0.00241898
0.00239418
0.0023697
0.00234554
0.00232168
0.00229814
0.00227489
0.00225194
0.00222928
0.00220691
0.00218482
0.00216301
0.00214147
0.00212019
0.00209916
0.00207838
0.00205784
0.00203752
0.0020174
0.00199747
0.00197771
0.00195807
0.00193853
0.00191903
0.0018995
0.00187987
0.00186
0.00183997
0.00181925
0.00179094
2.34747e-06
0.000118018
0.000252895
0.000381052
0.000504125
0.000620919
0.000732306
0.000842474
0.000958628
0.00108571
0.00122482
0.00137542
0.00151792
0.00165004
0.00177441
0.00189293
0.00200671
0.00211639
0.00222237
0.00232485
0.00242423
0.0025209
0.00261516
0.00270726
0.00279745
0.00288591
0.00297284
0.00305838
0.00314269
0.00322585
0.00330796
0.00338908
0.00346924
0.00354845
0.00362671
0.00370399
0.00378025
0.00385544
0.00392949
0.00400234
0.0040739
0.00414408
0.00421281
0.00427998
0.00434552
0.00440932
0.00447131
0.00453138
0.00458948
0.0046455
0.00469938
0.00475106
0.00480045
0.00484751
0.00489219
0.00493443
0.00497419
0.00501145
0.00504617
0.00507833
0.00510792
0.00513492
0.00515934
0.00518118
0.00520044
0.00521715
0.00523132
0.00524297
0.00525215
0.00525887
0.00526319
0.00526512
0.00526477
0.00526216
0.00525732
0.00525034
0.00524126
0.00523015
0.00521708
0.0052021
0.00518529
0.00516671
0.00514644
0.00512455
0.00510112
0.0050762
0.00504989
0.00502224
0.00499333
0.00496324
0.00493203
0.00489978
0.00486655
0.00483241
0.00479742
0.00476166
0.00472519
0.00468807
0.00465037
0.00461213
0.00457343
0.00453432
0.00449485
0.00445507
0.00441504
0.0043748
0.0043344
0.00429387
0.00425327
0.00421263
0.00417199
0.00413138
0.00409084
0.0040504
0.00401008
0.00396991
0.00392992
0.00389013
0.00385057
0.00381125
0.00377219
0.0037334
0.00369492
0.00365673
0.00361887
0.00358134
0.00354415
0.00350731
0.00347083
0.0034347
0.00339895
0.00336357
0.00332856
0.00329394
0.00325969
0.00322583
0.00319234
0.00315924
0.00312652
0.00309419
0.00306224
0.00303066
0.00299947
0.00296865
0.00293821
0.00290813
0.00287843
0.00284909
0.00282011
0.00279148
0.00276321
0.00273529
0.00270771
0.00268047
0.00265357
0.002627
0.00260076
0.00257484
0.00254923
0.00252394
0.00249896
0.00247428
0.0024499
0.00242581
0.002402
0.00237846
0.00235518
0.00233215
0.00230936
0.00228677
0.00226437
0.00224212
0.00221999
0.00219791
0.00217583
0.00215366
0.00213129
0.00210874
0.00208548
0.00205484
1.93302e-06
0.0001104
0.000242741
0.000370254
0.000496286
0.000621185
0.000746936
0.000877239
0.00101567
0.00116405
0.00132255
0.00148451
0.00163243
0.00176902
0.00189726
0.00201915
0.00213594
0.00224846
0.00235726
0.0024627
0.00256511
0.00266468
0.00276184
0.00285696
0.00295031
0.00304215
0.00313267
0.00322202
0.00331035
0.00339775
0.0034843
0.00357004
0.00365499
0.00373916
0.00382253
0.00390505
0.00398667
0.00406732
0.00414693
0.00422541
0.00430266
0.00437858
0.00445309
0.00452606
0.00459741
0.00466703
0.00473481
0.00480067
0.00486451
0.00492625
0.00498579
0.00504307
0.00509801
0.00515054
0.00520062
0.00524817
0.00529317
0.00533556
0.00537533
0.00541244
0.00544687
0.00547862
0.00550767
0.00553404
0.00555772
0.00557873
0.00559708
0.00561281
0.00562594
0.0056365
0.00564453
0.00565007
0.00565317
0.00565389
0.00565227
0.00564837
0.00564225
0.00563397
0.0056236
0.00561118
0.00559681
0.00558053
0.00556243
0.00554256
0.00552102
0.00549786
0.00547317
0.005447
0.00541944
0.00539056
0.00536042
0.0053291
0.00529666
0.00526318
0.00522872
0.00519335
0.00515713
0.00512013
0.00508242
0.00504404
0.00500507
0.00496557
0.00492558
0.00488516
0.00484437
0.00480326
0.00476187
0.00472025
0.00467845
0.0046365
0.00459446
0.00455235
0.00451021
0.00446809
0.00442601
0.004384
0.00434209
0.00430031
0.00425869
0.00421724
0.004176
0.00413498
0.00409419
0.00405367
0.00401342
0.00397346
0.0039338
0.00389446
0.00385543
0.00381675
0.0037784
0.00374041
0.00370277
0.00366549
0.00362857
0.00359203
0.00355585
0.00352005
0.00348463
0.00344958
0.00341491
0.00338062
0.00334671
0.00331318
0.00328002
0.00324724
0.00321483
0.00318279
0.00315112
0.00311982
0.00308888
0.0030583
0.00302807
0.0029982
0.00296867
0.0029395
0.00291066
0.00288216
0.002854
0.00282617
0.00279866
0.00277147
0.0027446
0.00271803
0.00269176
0.00266579
0.0026401
0.00261467
0.0025895
0.00256455
0.00253981
0.00251525
0.00249081
0.00246645
0.0024421
0.00241768
0.0023931
0.00236834
0.00234288
0.00231009
1.54227e-06
0.000102277
0.000232331
0.000359561
0.000488603
0.000620408
0.000757666
0.000902225
0.00105572
0.00121865
0.00139153
0.00155768
0.00170962
0.00185011
0.00198188
0.00210692
0.00222655
0.00234172
0.00245308
0.00256114
0.00266627
0.00276879
0.00286896
0.00296697
0.00306326
0.0031581
0.00325174
0.00334438
0.00343614
0.00352714
0.00361745
0.00370711
0.00379615
0.00388454
0.00397226
0.00405926
0.00414547
0.00423081
0.00431519
0.00439852
0.00448068
0.00456157
0.00464107
0.00471908
0.00479548
0.00487015
0.00494299
0.0050139
0.00508276
0.0051495
0.00521401
0.00527621
0.00533602
0.00539339
0.00544823
0.00550049
0.00555013
0.00559711
0.00564138
0.00568292
0.0057217
0.00575772
0.00579097
0.00582144
0.00584914
0.00587409
0.00589629
0.00591578
0.00593258
0.00594673
0.00595825
0.00596718
0.00597359
0.0059775
0.00597898
0.0059781
0.0059749
0.00596944
0.00596177
0.00595198
0.00594011
0.00592624
0.00591044
0.00589278
0.00587333
0.00585216
0.00582935
0.00580497
0.00577908
0.00575177
0.00572309
0.00569312
0.00566193
0.00562959
0.00559616
0.00556171
0.00552631
0.00549001
0.0054529
0.00541502
0.00537645
0.00533723
0.00529743
0.0052571
0.00521629
0.00517506
0.00513346
0.00509153
0.00504932
0.00500688
0.00496425
0.00492147
0.00487858
0.00483561
0.00479261