/*--------------------------------*- C++ -*----------------------------------*\
| =========                 |                                                 |
| \\      /  F ield         | OpenFOAM: The Open Source CFD Toolbox           |
|  \\    /   O peration     | Version:  v2012                                 |
|   \\  /    A nd           | Website:  www.openfoam.com                      |
|    \\/     M anipulation  |                                                 |
\*---------------------------------------------------------------------------*/
FoamFile
{
    version     2.0;
    format      ascii;
    class       volScalarField;
    location    "400";
    object      p;
}
// * * * * * * * * * * * * * * * * * * * * * * * * * * * * * * * * * * * * * //

dimensions      [0 2 -2 0 0 0 0];


internalField   nonuniform List<scalar> 
12225
(
514.681
55.5331
2.36914
0.287597
-1.89224
-3.36775
-3.80852
-4.01094
-4.21862
-4.36812
-4.41085
-4.41148
-4.41174
-4.44108
-4.4951
-4.56924
-4.72515
-4.94085
-122.174
0.243828
-2.71314
-0.759252
-2.21
-3.51828
-3.94469
-4.13038
-4.26827
-4.35945
-4.43077
-4.49128
-4.54727
-4.58693
-4.61787
-4.65056
-4.72688
-4.8512
-200.641
-16.1436
-2.34124
-0.352562
-1.89445
-3.23803
-3.76326
-4.01727
-4.18878
-4.30494
-4.39833
-4.468
-4.51889
-4.54761
-4.56847
-4.5881
-4.62695
-4.62453
-110.612
-10.9694
-2.17206
-0.426401
-1.78153
-3.02203
-3.59283
-3.90421
-4.11702
-4.26174
-4.36537
-4.43597
-4.48381
-4.51288
-4.53275
-4.54311
-4.5456
-4.48057
-61.5684
-8.14124
-3.61763
-1.20455
-2.00921
-2.99172
-3.5217
-3.84556
-4.07287
-4.22886
-4.33743
-4.41141
-4.46149
-4.49241
-4.509
-4.50797
-4.48312
-4.39337
-45.7265
-8.7808
-5.25399
-2.1951
-2.42422
-3.09485
-3.53012
-3.83071
-4.05092
-4.20651
-4.31664
-4.39318
-4.44487
-4.47559
-4.48781
-4.47781
-4.43786
-4.34253
-35.7905
-9.27218
-6.37594
-3.11977
-2.91654
-3.28427
-3.59846
-3.8524
-4.05127
-4.1983
-4.30554
-4.38157
-4.43284
-4.4624
-4.47155
-4.45707
-4.41255
-4.32409
-27.7741
-8.90314
-6.96964
-3.79837
-3.35707
-3.49373
-3.69629
-3.89828
-4.0704
-4.20441
-4.30544
-4.37863
-4.42847
-4.4572
-4.46557
-4.45109
-4.40933
-4.33314
-21.6863
-8.51628
-7.13061
-4.3066
-3.72486
-3.70202
-3.81294
-3.96327
-4.10569
-4.22347
-4.31573
-4.38438
-4.43197
-4.45991
-4.46858
-4.45631
-4.42053
-4.35816
-16.6091
-8.13717
-7.08455
-4.75187
-4.07968
-3.93105
-3.95659
-4.05154
-4.1595
-4.25696
-4.33747
-4.39972
-4.44421
-4.47145
-4.48154
-4.47371
-4.44704
-4.40141
-12.6356
-7.67756
-6.90283
-5.09853
-4.40377
-4.16759
-4.11981
-4.1605
-4.23189
-4.30627
-4.37274
-4.42707
-4.46787
-4.49476
-4.50764
-4.50644
-4.49156
-4.46444
-9.69587
-7.14568
-6.62619
-5.32368
-4.67602
-4.39483
-4.29271
-4.28583
-4.3219
-4.37236
-4.4236
-4.46913
-4.50608
-4.53321
-4.55027
-4.55756
-4.55615
-4.54817
-7.66312
-6.60182
-6.30318
-5.42893
-4.88078
-4.59529
-4.46214
-4.41961
-4.42555
-4.45395
-4.49048
-4.52751
-4.56105
-4.58932
-4.61173
-4.6287
-4.64138
-4.65177
-6.36819
-6.11033
-5.9831
-5.43788
-5.01366
-4.75576
-4.6147
-4.5515
-4.53597
-4.54701
-4.5715
-4.60165
-4.63311
-4.6636
-4.69231
-4.71935
-4.74567
-4.77263
-5.62007
-5.7198
-5.70654
-5.38853
-5.08381
-4.87114
-4.74022
-4.671
-4.64434
-4.64486
-4.66179
-4.68811
-4.71952
-4.7536
-4.78919
-4.8261
-4.8647
-4.90578
-5.24086
-5.45772
-5.50574
-5.32533
-5.11297
-4.94612
-4.83407
-4.76932
-4.74086
-4.73821
-4.75305
-4.77947
-4.81348
-4.85265
-4.89558
-4.94168
-4.99081
-5.0432
-5.0997
-5.34187
-5.41465
-5.29677
-5.13291
-4.99395
-4.89648
-4.83874
-4.81378
-4.8137
-4.83163
-4.86228
-4.90189
-4.94793
-4.99877
-5.05348
-5.11153
-5.17274
-5.13736
-5.39766
-5.47185
-5.34586
-5.17217
-5.02664
-4.92651
-4.86946
-4.84762
-4.85255
-4.87675
-4.91459
-4.96191
-5.01594
-5.07475
-5.13719
-5.20244
-5.27017
-5.38949
-5.65194
-5.68778
-5.4728
-5.22382
-5.03365
-4.91278
-4.84987
-4.83097
-4.8433
-4.87695
-4.92471
-4.98175
-5.0448
-5.11182
-5.18144
-5.25294
-5.32582
-5.9986
-6.13355
-6.03947
-5.63219
-5.24449
-4.98508
-4.8389
-4.77428
-4.76499
-4.79148
-4.84004
-4.90176
-4.97108
-5.04464
-5.12041
-5.19724
-5.27448
-5.35194
-7.24597
-6.88594
-6.49078
-5.75874
-5.18039
-4.85079
-4.69469
-4.64506
-4.65937
-4.71018
-4.78047
-4.8603
-4.94426
-5.02934
-5.11413
-5.1979
-5.28046
-5.3619
-9.63724
-7.96078
-6.97896
-5.76855
-4.97675
-4.61003
-4.48057
-4.47297
-4.52854
-4.61438
-4.71232
-4.81327
-4.91281
-5.00942
-5.10259
-5.19253
-5.27952
-5.36414
-13.9783
-9.38707
-7.39931
-5.56601
-4.59184
-4.26212
-4.21382
-4.27938
-4.3924
-4.52081
-4.64936
-4.77169
-4.88597
-4.99252
-5.09247
-5.18704
-5.27722
-5.36395
-20.8857
-10.9499
-7.55015
-5.05353
-4.01281
-3.83368
-3.92884
-4.09389
-4.27335
-4.4454
-4.60263
-4.7437
-4.86991
-4.98364
-5.08783
-5.18491
-5.27667
-5.36421
-29.7323
-11.9452
-7.02934
-4.12225
-3.26082
-3.37571
-3.66975
-3.94663
-4.19014
-4.39983
-4.5793
-4.73367
-4.86708
-4.98465
-5.09023
-5.18777
-5.27944
-5.36648
-43.1022
-12.6097
-5.46852
-2.72494
-2.40985
-2.96092
-3.48279
-3.86149
-4.15359
-4.38827
-4.58099
-4.7411
-4.87608
-4.99337
-5.09815
-5.19455
-5.28529
-5.37126
-84.5952
-17.3692
-3.65975
-1.26131
-1.69242
-2.71905
-3.43429
-3.86803
-4.17107
-4.40761
-4.6044
-4.76653
-4.89757
-5.0089
-5.10816
-5.20196
-5.29181
-5.37645
-177.882
-26.8453
-3.67579
-0.766029
-1.53137
-2.84004
-3.61194
-4.01201
-4.26343
-4.45848
-4.64358
-4.81102
-4.94446
-5.04875
-5.13386
-5.21788
-5.30384
-5.38547
-154.786
-9.62303
-3.26804
-1.0641
-1.83933
-3.2177
-3.91113
-4.22069
-4.4089
-4.54751
-4.69108
-4.84707
-4.9942
-5.11691
-5.20452
-5.28073
-5.36076
-5.44204
428.061
66.6098
7.06027
1.60357
-0.911844
-2.85369
-3.6493
-3.99034
-4.30701
-4.57622
-4.70032
-4.73713
-4.78862
-4.88299
-5.01337
-5.13514
-5.23299
-5.32312
-8.50815
-8.49534
-8.48552
-8.52802
-8.62143
-8.72459
-8.80344
-8.84212
-8.84465
-8.82644
-8.79892
-8.77056
-8.74941
-8.74125
-8.74672
-8.75925
-8.77008
-8.77487
-8.77576
-8.77819
-8.78635
-8.82046
-8.91513
-9.09172
-9.3483
-9.66914
-10.0427
-10.4582
-10.8998
-11.3517
-11.7988
-12.2294
-12.6344
-13.0073
-13.344
-13.6419
-13.9004
-14.1193
-14.2993
-14.4416
-14.5473
-14.6179
-14.6546
-14.6589
-14.632
-14.5752
-14.4903
-14.3796
-14.2441
-14.0817
-13.8897
-13.6697
-13.4242
-13.1549
-12.8632
-12.55
-12.2164
-11.8635
-11.4922
-11.1035
-10.6987
-10.2787
-9.84465
-9.39782
-8.9393
-8.47031
-7.99202
-7.50564
-7.01235
-6.51334
-6.00976
-5.50276
-4.99344
-4.48289
-3.97214
-3.4622
-2.95401
-2.4485
-1.94651
-1.44887
-0.956318
-0.46957
0.0107397
0.484002
0.949693
1.40731
1.85645
2.29671
2.7278
3.14946
3.56146
3.96363
4.35579
4.73792
5.11026
5.47281
5.82511
6.16677
6.49778
6.81835
7.12874
7.42914
7.71975
8.00073
8.27227
8.53458
8.78785
9.03232
9.26819
9.49568
9.715
9.9264
10.1301
10.3264
10.5156
10.6978
10.8732
11.0423
11.2051
11.3619
11.5129
11.6584
11.7985
11.9335
12.0636
12.189
12.3098
12.4263
12.5387
12.647
12.7515
12.8525
12.9504
13.045
13.1363
13.2244
13.3096
13.3919
13.4715
13.5486
13.6231
13.6953
13.7652
13.8329
13.8985
13.9621
14.0237
14.0835
14.1416
14.1978
14.2524
14.3054
14.3568
14.4066
14.455
14.5019
14.5474
14.5914
14.6341
14.6754
14.7154
14.7541
14.7914
14.8275
14.8622
14.8958
14.9281
14.9593
14.9894
15.0185
15.0468
15.0744
15.1019
15.1295
15.1582
15.189
15.2245
15.2662
15.3243
15.385
-8.56646
-8.59805
-8.67264
-8.76654
-8.86973
-8.96118
-9.02137
-9.0446
-9.02615
-8.96422
-8.8736
-8.77689
-8.69635
-8.64663
-8.62571
-8.62324
-8.63357
-8.66
-8.69719
-8.71648
-8.74087
-8.82492
-8.99183
-9.23605
-9.54706
-9.92171
-10.3498
-10.811
-11.2837
-11.7506
-12.1993
-12.6206
-13.0083
-13.3588
-13.6703
-13.9426
-14.1762
-14.372
-14.5313
-14.6551
-14.7448
-14.8013
-14.8257
-14.8188
-14.7815
-14.7143
-14.6178
-14.4918
-14.3371
-14.1567
-13.9542
-13.73
-13.4831
-13.2136
-12.9222
-12.6096
-12.2768
-11.9247
-11.5541
-11.1662
-10.7621
-10.3427
-9.90931
-9.463
-9.00494
-8.53631
-8.05831
-7.57214
-7.07897
-6.58
-6.07638
-5.56926
-5.05973
-4.54889
-4.03777
-3.52739
-3.01868
-2.51258
-2.00993
-1.51156
-1.01821
-0.530611
-0.049398
0.424821
0.891506
1.35016
1.80033
2.24164
2.67373
3.0963
3.50908
3.91181
4.30428
4.68638
5.05819
5.41992
5.77176
6.11376
6.44574
6.76761
7.07939
7.38121
7.67323
7.9556
8.22852
8.49217
8.74677
8.99251
9.22964
9.4584
9.67899
9.89165
10.0966
10.2941
10.4844
10.6678
10.8444
11.0145
11.1784
11.3362
11.4883
11.6348
11.7759
11.9119
12.043
12.1695
12.2914
12.409
12.5224
12.6319
12.7375
12.8392
12.9371
13.0318
13.1232
13.2116
13.297
13.3796
13.4595
13.5368
13.6117
13.6842
13.7544
13.8224
13.8883
13.9522
14.0141
14.0742
14.1325
14.1891
14.2439
14.2972
14.3488
14.3989
14.4475
14.4946
14.5403
14.5845
14.6274
14.6689
14.7091
14.7479
14.7854
14.8216
14.8566
14.8903
14.9227
14.9541
14.9843
15.0135
15.0419
15.0697
15.0972
15.1249
15.1537
15.1844
15.2192
15.2589
15.3127
15.3627
-8.6943
-8.77633
-8.89431
-8.99974
-9.08191
-9.13485
-9.15448
-9.13954
-9.08871
-9.0045
-8.89628
-8.78113
-8.68281
-8.6203
-8.59313
-8.58954
-8.61033
-8.66997
-8.77728
-8.92681
-9.1193
-9.36396
-9.66154
-10.0029
-10.3768
-10.7737
-11.1835
-11.5946
-11.9964
-12.3819
-12.7466
-13.0866
-13.3996
-13.6837
-13.938
-14.1621
-14.3557
-14.5189
-14.6519
-14.7552
-14.829
-14.8738
-14.8899
-14.8778
-14.838
-14.7708
-14.6767
-14.5556
-14.4075
-14.2333
-14.0347
-13.8124
-13.5671
-13.2992
-13.0096
-12.6989
-12.3679
-12.0176
-11.6488
-11.2626
-10.86
-10.4421
-10.01
-9.56492
-9.1079
-8.64017
-8.16293
-7.67736
-7.18467
-6.68602
-6.18258
-5.67549
-5.16588
-4.65482
-4.14336
-3.63251
-3.12323
-2.61645
-2.11302
-1.61378
-1.11948
-0.630842
-0.14852
0.326879
0.794806
1.25476
1.70631
2.14905
2.58266
3.00684
3.42134
3.82595
4.22053
4.60499
4.97929
5.34345
5.6975
6.04144
6.37525
6.69891
7.01251
7.31614
7.60996
7.89412
8.16881
8.43422
8.69053
8.93798
9.17678
9.40716
9.62935
9.84357
10.0501
10.2491
10.4408
10.6256
10.8036
10.975
11.1402
11.2994
11.4527
11.6004
11.7427
11.8797
12.0118
12.1391
12.2618
12.3801
12.4942
12.6043
12.7105
12.8129
12.9119
13.0076
13.1001
13.1894
13.2757
13.3592
13.4399
13.518
13.5936
13.6668
13.7376
13.8063
13.8728
13.9373
13.9998
14.0604
14.1191
14.1762
14.2315
14.2851
14.3372
14.3876
14.4366
14.4841
14.5301
14.5747
14.6178
14.6596
14.7001
14.7392
14.7769
14.8134
14.8485
14.8824
14.9151
14.9466
14.977
15.0063
15.0348
15.0627
15.0902
15.1179
15.1464
15.1765
15.21
15.2467
15.2942
15.3278
-8.73115
-8.82836
-8.92951
-9.01592
-9.08006
-9.11927
-9.13108
-9.11293
-9.06497
-8.99245
-8.90694
-8.82545
-8.76611
-8.74142
-8.75593
-8.81178
-8.91294
-9.06302
-9.26258
-9.50611
-9.78443
-10.0906
-10.4186
-10.7622
-11.1161
-11.4751
-11.8338
-12.1871
-12.5303
-12.8596
-13.1716
-13.4636
-13.7336
-13.9799
-14.2013
-14.3969
-14.5662
-14.7087
-14.8242
-14.9127
-14.9743
-15.0089
-15.0168
-14.9979
-14.9525
-14.8808
-14.7831
-14.6597
-14.511
-14.3377
-14.1405
-13.9198
-13.676
-13.4099
-13.1219
-12.8129
-12.4836
-12.1349
-11.7676
-11.3829
-10.9816
-10.5649
-10.1338
-9.68956
-9.23325
-8.76608
-8.28925
-7.80392
-7.31131
-6.81258
-6.30892
-5.80145
-5.29132
-4.77959
-4.26733
-3.75555
-3.24522
-2.73727
-2.23257
-1.73194
-1.23617
-0.745964
-0.261995
0.215128
0.684848
1.14666
1.60012
2.04483
2.48046
2.9067
3.3233
3.73008
4.12688
4.51362
4.89025
5.25673
5.61304
5.95915
6.29506
6.62082
6.93649
7.24219
7.53806
7.82426
8.10096
8.36834
8.62661
8.87598
9.11666
9.34889
9.57287
9.78885
9.99706
10.1978
10.3912
10.5776
10.7571
10.9301
11.0968
11.2573
11.4119
11.5609
11.7045
11.8428
11.9761
12.1046
12.2285
12.3479
12.4631
12.5742
12.6814
12.7849
12.885
12.9817
13.0751
13.1654
13.2526
13.337
13.4185
13.4974
13.5737
13.6476
13.7192
13.7885
13.8556
13.9207
13.9838
14.0449
14.1042
14.1618
14.2175
14.2717
14.3242
14.3751
14.4244
14.4723
14.5187
14.5636
14.6071
14.6493
14.69
14.7294
14.7674
14.8041
14.8395
14.8737
14.9065
14.9382
14.9687
14.9981
15.0267
15.0545
15.0819
15.1092
15.137
15.1659
15.1973
15.2298
15.2693
15.2879
-8.51539
-8.60042
-8.70089
-8.79826
-8.87566
-8.92825
-8.9551
-8.9572
-8.93921
-8.90961
-8.88066
-8.86634
-8.87936
-8.92911
-9.02166
-9.15996
-9.34388
-9.56862
-9.82573
-10.1073
-10.4077
-10.7231
-11.0488
-11.3799
-11.7121
-12.0417
-12.3653
-12.6798
-12.9826
-13.2711
-13.5435
-13.7981
-14.0334
-14.2483
-14.4417
-14.6128
-14.761
-14.8856
-14.9863
-15.0625
-15.1142
-15.141
-15.1428
-15.1195
-15.0711
-14.9976
-14.8991
-14.7756
-14.6276
-14.4554
-14.2593
-14.0399
-13.7976
-13.533
-13.2465
-12.939
-12.6111
-12.2638
-11.8979
-11.5144
-11.1142
-10.6985
-10.2683
-9.82469
-9.36895
-8.9022
-8.42563
-7.94042
-7.44777
-6.94886
-6.44487
-5.93694
-5.42619
-4.91372
-4.40059
-3.88782
-3.37638
-2.8672
-2.36117
-1.85911
-1.36181
-0.869984
-0.38431
0.0945969
0.566176
1.02992
1.48537
1.93214
2.36988
2.79829
3.21711
3.62614
4.02523
4.41427
4.7932
5.16197
5.52054
5.86889
6.20704
6.53502
6.85292
7.16083
7.45891
7.74729
8.02614
8.29566
8.55604
8.80748
9.05021
9.28446
9.51043
9.72835
9.93847
10.141
10.3362
10.5244
10.7056
10.8803
11.0486
11.2107
11.3669
11.5175
11.6625
11.8022
11.937
12.0668
12.192
12.3128
12.4292
12.5415
12.6499
12.7546
12.8557
12.9534
13.0478
13.139
13.2272
13.3124
13.3948
13.4745
13.5517
13.6263
13.6986
13.7687
13.8365
13.9022
13.966
14.0277
14.0876
14.1457
14.2021
14.2567
14.3097
14.3611
14.4109
14.4592
14.506
14.5514
14.5953
14.6378
14.6789
14.7186
14.7569
14.7939
14.8296
14.8639
14.897
14.9288
14.9594
14.9889
15.0175
15.0451
15.0722
15.099
15.1258
15.1531
15.1817
15.2095
15.2411
15.2472
-8.09274
-8.18162
-8.30328
-8.42658
-8.53225
-8.61297
-8.67166
-8.71432
-8.74875
-8.78482
-8.83351
-8.90503
-9.00727
-9.14489
-9.31994
-9.53124
-9.77405
-10.0428
-10.3321
-10.6363
-10.9499
-11.2683
-11.5875
-11.904
-12.2151
-12.5187
-12.8129
-13.0962
-13.367
-13.6241
-13.8663
-14.0925
-14.3016
-14.4926
-14.6647
-14.817
-14.9488
-15.0594
-15.1481
-15.2144
-15.258
-15.2783
-15.275
-15.2479
-15.1967
-15.1214
-15.0219
-14.8983
-14.7506
-14.579
-14.384
-14.1657
-13.9247
-13.6614
-13.3764
-13.0703
-12.7439
-12.3979
-12.0333
-11.651
-11.252
-10.8373
-10.408
-9.9652
-9.51007
-9.04379
-8.56753
-8.08249
-7.58985
-7.09081
-6.58653
-6.07816
-5.56684
-5.05366
-4.53968
-4.02594
-3.51341
-3.00303
-2.49568
-1.9922
-1.49339
-0.999954
-0.512585
-0.0319008
0.441533
0.907204
1.36466
1.81348
2.25334
2.68391
3.10495
3.51624
3.91762
4.30897
4.69022
5.06128
5.42214
5.77278
6.11321
6.44348
6.76366
7.07385
7.37419
7.66482
7.94593
8.21767
8.48025
8.73386
8.97872
9.21505
9.44308
9.66302
9.87513
10.0796
10.2768
10.4668
10.6499
10.8264
10.9964
11.1602
11.3181
11.4703
11.6169
11.7582
11.8944
12.0258
12.1524
12.2745
12.3923
12.5059
12.6156
12.7215
12.8237
12.9225
13.018
13.1102
13.1994
13.2856
13.369
13.4496
13.5276
13.6031
13.6762
13.747
13.8156
13.8821
13.9465
14.009
14.0696
14.1283
14.1852
14.2404
14.294
14.3459
14.3963
14.4451
14.4923
14.5381
14.5825
14.6254
14.6669
14.7069
14.7456
14.7829
14.8189
14.8535
14.8867
14.9187
14.9494
14.979
15.0074
15.0348
15.0614
15.0874
15.1131
15.1384
15.1638
15.1868
15.2111
15.2065
-7.62798
-7.72713
-7.86997
-8.01954
-8.15827
-8.27775
-8.38168
-8.4795
-8.58067
-8.6941
-8.82729
-8.98497
-9.16979
-9.3821
-9.62016
-9.88177
-10.1639
-10.462
-10.7705
-11.0847
-11.4001
-11.7134
-12.0219
-12.3235
-12.6168
-12.9003
-13.1733
-13.4346
-13.6834
-13.9189
-14.1403
-14.3467
-14.5374
-14.7114
-14.8679
-15.0062
-15.1256
-15.2252
-15.3045
-15.3627
-15.3994
-15.414
-15.4061
-15.3754
-15.3214
-15.2441
-15.1432
-15.0187
-14.8706
-14.6992
-14.5044
-14.2868
-14.0465
-13.7841
-13.5001
-13.1952
-12.87
-12.5252
-12.1619
-11.7808
-11.3829
-10.9693
-10.5411
-10.0992
-9.64495
-9.17942
-8.7038
-8.21928
-7.72705
-7.22827
-6.72413
-6.21577
-5.70432
-5.19088
-4.6765
-4.16223
-3.64904
-3.13787
-2.62961
-2.1251
-1.62513
-1.13043
-0.641694
-0.159536
0.315469
0.782804
1.24201
1.69267
2.13443
2.56698
2.99005
3.40343
3.80695
4.20047
4.5839
4.95718
5.32025
5.67311
6.01577
6.34828
6.67071
6.98316
7.28576
7.57864
7.86197
8.13593
8.4007
8.6565
8.90351
9.14198
9.37211
9.59413
9.80828
10.0148
10.2139
10.4059
10.5909
10.7692
10.9411
11.1067
11.2663
11.4202
11.5685
11.7114
11.8492
11.982
12.1101
12.2337
12.3529
12.4679
12.5789
12.686
12.7895
12.8895
12.9862
13.0795
13.1698
13.257
13.3414
13.423
13.5019
13.5784
13.6524
13.724
13.7934
13.8607
13.9259
13.9891
14.0503
14.1097
14.1673
14.2232
14.2773
14.3298
14.3807
14.4301
14.4779
14.5241
14.569
14.6123
14.6542
14.6947
14.7337
14.7714
14.8076
14.8425
14.8759
14.9081
14.9389
14.9684
14.9966
15.0237
15.0498
15.0748
15.099
15.1222
15.1443
15.1624
15.1801
15.1661
-7.27554
-7.36902
-7.52182
-7.6884
-7.85622
-8.01846
-8.17464
-8.33255
-8.50033
-8.68375
-8.88681
-9.11054
-9.35347
-9.61477
-9.89385
-10.1883
-10.4944
-10.8077
-11.1241
-11.4399
-11.7524
-12.0592
-12.3585
-12.6491
-12.9299
-13.2001
-13.4589
-13.7057
-13.94
-14.1612
-14.3686
-14.5616
-14.7395
-14.9015
-15.047
-15.1753
-15.2854
-15.3769
-15.4489
-15.5007
-15.5319
-15.5418
-15.5299
-15.4958
-15.4391
-15.3596
-15.257
-15.1312
-14.9822
-14.8101
-14.615
-14.3971
-14.1569
-13.8947
-13.611
-13.3065
-12.9818
-12.6377
-12.275
-11.8947
-11.4976
-11.0848
-10.6573
-10.2163
-9.76292
-9.2982
-8.82336
-8.33958
-7.84804
-7.34991
-6.84634
-6.33848
-5.82745
-5.31433
-4.80019
-4.28604
-3.77287
-3.2616
-2.75313
-2.24829
-1.74788
-1.25262
-0.76319
-0.280228
0.195697
0.664065
1.12441
1.57632
2.01944
2.45343
2.87803
3.29302
3.69822
4.09349
4.47872
4.85383
5.21878
5.57356
5.91818
6.25268
6.57713
6.89162
7.19628
7.49125
7.77667
8.05272
8.31959
8.57747
8.82657
9.0671
9.29928
9.52334
9.73951
9.94801
10.1491
10.343
10.5299
10.7101
10.8838
11.0512
11.2126
11.3682
11.5181
11.6627
11.8021
11.9365
12.0662
12.1912
12.3118
12.4282
12.5406
12.6491
12.7539
12.8551
12.9529
13.0474
13.1388
13.2271
13.3126
13.3952
13.4751
13.5525
13.6274
13.7
13.7703
13.8384
13.9043
13.9683
14.0303
14.0904
14.1487
14.2052
14.26
14.3131
14.3646
14.4145
14.4629
14.5097
14.555
14.5988
14.6411
14.682
14.7214
14.7594
14.796
14.8311
14.8648
14.8971
14.9279
14.9574
14.9854
15.0121
15.0375
15.0615
15.0841
15.1049
15.1237
15.137
15.1486
15.1266
-7.08936
-7.17575
-7.33066
-7.50384
-7.68822
-7.88175
-8.0811
-8.28816
-8.5073
-8.74073
-8.98882
-9.25154
-9.5288
-9.82015
-10.1237
-10.4361
-10.7538
-11.0734
-11.392
-11.7068
-12.0159
-12.3176
-12.6106
-12.8937
-13.1664
-13.4279
-13.6778
-13.9156
-14.1407
-14.3528
-14.5513
-14.7356
-14.9052
-15.0594
-15.1974
-15.3187
-15.4225
-15.5081
-15.5748
-15.622
-15.6489
-15.655
-15.6398
-15.6028
-15.5436
-15.4619
-15.3575
-15.2301
-15.0798
-14.9066
-14.7106
-14.4921
-14.2513
-13.9887
-13.7047
-13.4001
-13.0753
-12.7313
-12.3688
-11.9887
-11.592
-11.1797
-10.7527
-10.3123
-9.85951
-9.39547
-8.92135
-8.43832
-7.94754
-7.45017
-6.94737
-6.44026
-5.92997
-5.41756
-4.90408
-4.39054
-3.87792
-3.36713
-2.85906
-2.35454
-1.85435
-1.35922
-0.869816
-0.386771
0.0893447
0.558014
1.01877
1.47119
1.91493
2.34964
2.77507
3.19098
3.5972
3.99358
4.38
4.75638
5.12268
5.47887
5.82497
6.161
6.48705
6.80319
7.10955
7.40624
7.69343
7.97128
8.23997
8.49969
8.75064
8.99302
9.22706
9.45298
9.671
9.88135
10.0843
10.28
10.4687
10.6507
10.8261
10.9953
11.1584
11.3156
11.4672
11.6134
11.7544
11.8903
12.0215
12.148
12.2701
12.3879
12.5016
12.6114
12.7175
12.82
12.919
13.0147
13.1072
13.1966
13.2831
13.3668
13.4478
13.5261
13.602
13.6754
13.7466
13.8155
13.8823
13.9471
14.0099
14.0707
14.1297
14.1869
14.2424
14.2961
14.3482
14.3987
14.4476
14.495
14.5408
14.5851
14.6279
14.6692
14.709
14.7474
14.7843
14.8197
14.8536
14.886
14.9169
14.9462
14.974
15.0002
15.0248
15.0477
15.0686
15.087
15.1024
15.1112
15.1173
15.0882
-7.06627
-7.15369
-7.30194
-7.47139
-7.65901
-7.86461
-8.08499
-8.31819
-8.56443
-8.82415
-9.09677
-9.38143
-9.67787
-9.98488
-10.2998
-10.6195
-10.9413
-11.2624
-11.5805
-11.8934
-12.1995
-12.4975
-12.7862
-13.0648
-13.3327
-13.5893
-13.8342
-14.0669
-14.287
-14.494
-14.6875
-14.8669
-15.0316
-15.1811
-15.3147
-15.4318
-15.5315
-15.6133
-15.6764
-15.7202
-15.744
-15.7473
-15.7295
-15.6901
-15.6287
-15.545
-15.4387
-15.3097
-15.158
-14.9835
-14.7863
-14.5668
-14.3251
-14.0618
-13.7772
-13.4721
-13.1471
-12.8028
-12.4403
-12.0602
-11.6637
-11.2516
-10.8251
-10.3851
-9.93293
-9.46958
-8.99623
-8.51404
-8.02416
-7.52775
-7.02594
-6.51985
-6.01059
-5.49921
-4.98676
-4.47424
-3.9626
-3.45275
-2.94558
-2.44189
-1.94247
-1.44804
-0.959254
-0.476741
-0.00106206
0.467271
0.927796
1.3801
1.82383
2.25865
2.68428
3.10051
3.50714
3.90403
4.29106
4.66814
5.03522
5.39228
5.73932
6.07639
6.40355
6.72087
7.02847
7.32648
7.61503
7.89429
8.16444
8.42565
8.67813
8.92207
9.15769
9.3852
9.60482
9.81679
10.0213
10.2186
10.409
10.5926
10.7696
10.9404
11.1051
11.2639
11.417
11.5647
11.7072
11.8446
11.9772
12.1051
12.2286
12.3477
12.4628
12.5739
12.6812
12.7849
12.8851
12.982
13.0756
13.1661
13.2537
13.3384
13.4203
13.4996
13.5764
13.6508
13.7229
13.7927
13.8603
13.9259
13.9894
14.051
14.1107
14.1686
14.2247
14.2791
14.3319
14.383
14.4324
14.4803
14.5267
14.5715
14.6147
14.6565
14.6968
14.7355
14.7727
14.8084
14.8425
14.875
14.9059
14.9351
14.9626
14.9883
15.0121
15.0337
15.0529
15.0688
15.0809
15.0855
15.0867
15.0514
-7.18185
-7.26043
-7.39166
-7.54803
-7.72737
-7.92929
-8.15105
-8.39004
-8.64461
-8.91332
-9.19446
-9.48687
-9.78963
-10.1007
-10.4177
-10.7379
-11.0589
-11.3785
-11.6945
-12.0051
-12.3088
-12.6043
-12.8908
-13.1672
-13.433
-13.6876
-13.9306
-14.1613
-14.3795
-14.5846
-14.7761
-14.9535
-15.1162
-15.2636
-15.395
-15.5099
-15.6074
-15.687
-15.748
-15.7896
-15.8114
-15.8126
-15.7928
-15.7514
-15.6882
-15.6027
-15.4948
-15.3643
-15.211
-15.0352
-14.8368
-14.6162
-14.3735
-14.1094
-13.8242
-13.5185
-13.1931
-12.8487
-12.486
-12.1061
-11.7098
-11.2981
-10.8721
-10.4329
-9.98148
-9.51907
-9.04677
-8.56573
-8.0771
-7.58202
-7.0816
-6.57695
-6.06917
-5.55931
-5.04839
-4.5374
-4.02727
-3.51892
-3.01318
-2.51089
-2.01279
-1.51961
-1.03199
-0.550545
-0.0758447
0.391609
0.851357
1.30299
1.74615
2.18052
2.60581
3.0218
3.42832
3.82519
4.2123
4.58958
4.95695
5.3144
5.66194
5.99959
6.32742
6.64551
6.95395
7.25287
7.54241
7.82273
8.09398
8.35636
8.61005
8.85525
9.09216
9.321
9.54198
9.75532
9.96125
10.16
10.3517
10.5368
10.7152
10.8874
11.0535
11.2137
11.3683
11.5174
11.6612
11.8
11.934
12.0632
12.188
12.3084
12.4247
12.5371
12.6456
12.7505
12.8518
12.9497
13.0445
13.136
13.2246
13.3103
13.3932
13.4735
13.5512
13.6265
13.6994
13.7701
13.8385
13.9049
13.9692
14.0315
14.092
14.1506
14.2073
14.2624
14.3157
14.3674
14.4175
14.4659
14.5128
14.5581
14.6019
14.6441
14.6848
14.7239
14.7614
14.7973
14.8316
14.8643
14.8952
14.9243
14.9515
14.9766
14.9995
15.0199
15.0373
15.0508
15.0598
15.0604
15.057
15.0165
-7.36129
-7.42597
-7.53709
-7.67592
-7.8403
-8.02969
-8.24174
-8.47371
-8.72311
-8.98757
-9.26484
-9.55372
-9.85297
-10.1603
-10.4735
-10.7899
-11.1073
-11.4236
-11.7369
-12.0453
-12.3474
-12.6419
-12.9277
-13.204
-13.47
-13.725
-13.9684
-14.1998
-14.4185
-14.6241
-14.816
-14.9936
-15.1563
-15.3035
-15.4346
-15.5489
-15.6457
-15.7244
-15.7843
-15.8247
-15.8452
-15.845
-15.8237
-15.7809
-15.7161
-15.6291
-15.5197
-15.3878
-15.2332
-15.0561
-14.8567
-14.635
-14.3915
-14.1267
-13.841
-13.535
-13.2094
-12.865
-12.5026
-12.1231
-11.7274
-11.3165
-10.8915
-10.4534
-10.0034
-9.54241
-9.07171
-8.5924
-8.1056
-7.61244
-7.11403
-6.61145
-6.10577
-5.59804
-5.08926
-4.58041
-4.07241
-3.56615
-3.06248
-2.56218
-2.06602
-1.57469
-1.08884
-0.609084
-0.13596
0.330026
0.788422
1.23882
1.68087
2.11424
2.53867
2.95392
3.35981
3.75619
4.14293
4.51994
4.88717
5.24459
5.59221
5.93006
6.25818
6.57666
6.88559
7.18509
7.47529
7.75635
8.02842
8.29168
8.5463
8.7925
9.03046
9.26039
9.48251
9.69702
9.90414
10.1041
10.2971
10.4834
10.6631
10.8366
11.004
11.1655
11.3213
11.4717
11.6168
11.7569
11.892
12.0225
12.1485
12.2702
12.3877
12.5012
12.6108
12.7168
12.8192
12.9183
13.014
13.1066
13.1962
13.2829
13.3667
13.4479
13.5265
13.6027
13.6765
13.7479
13.8172
13.8843
13.9494
14.0125
14.0736
14.1329
14.1904
14.2461
14.3
14.3523
14.403
14.452
14.4994
14.5452
14.5895
14.6321
14.6732
14.7127
14.7506
14.7868
14.8213
14.854
14.8849
14.9139
14.9407
14.9653
14.9873
15.0064
15.022
15.0332
15.0392
15.0362
15.0287
14.9838
-7.53659
-7.58819
-7.68097
-7.80191
-7.94901
-8.1217
-8.31788
-8.53514
-8.77098
-9.02283
-9.28867
-9.56736
-9.85747
-10.1568
-10.4628
-10.7733
-11.0858
-11.3984
-11.709
-12.0158
-12.3173
-12.6122
-12.8991
-13.177
-13.4451
-13.7025
-13.9485
-14.1825
-14.4037
-14.6117
-14.8057
-14.9852
-15.1495
-15.298
-15.43
-15.5449
-15.642
-15.7206
-15.7802
-15.8201
-15.8398
-15.8387
-15.8164
-15.7724
-15.7065
-15.6183
-15.5078
-15.3747
-15.2191
-15.041
-14.8407
-14.6184
-14.3745
-14.1093
-13.8235
-13.5176
-13.1924
-12.8486
-12.4869
-12.1084
-11.714
-11.3045
-10.8812
-10.4449
-9.99686
-9.5381
-9.06974
-8.5929
-8.10869
-7.61823
-7.12258
-6.62284
-6.12005
-5.61524
-5.10938
-4.60343
-4.09832
-3.59491
-3.09404
-2.59646
-2.10294
-1.61416
-1.13076
-0.653324
-0.182409
0.281495
0.737942
1.18653
1.62691
2.05875
2.48179
2.8958
3.30059
3.69601
4.08192
4.45824
4.82492
5.18192
5.52925
5.86692
6.195
6.51354
6.82265
7.12243
7.41301
7.69453
7.96715
8.23104
8.48638
8.73334
8.97214
9.20296
9.42602
9.64152
9.84967
10.0507
10.2448
10.4322
10.6131
10.7877
10.9562
11.1189
11.2759
11.4275
11.5738
11.715
11.8514
11.983
12.1102
12.233
12.3516
12.4662
12.577
12.684
12.7875
12.8875
12.9843
13.0779
13.1684
13.256
13.3408
13.4229
13.5024
13.5794
13.654
13.7263
13.7964
13.8642
13.9301
13.9939
14.0557
14.1157
14.1738
14.2302
14.2848
14.3377
14.3889
14.4385
14.4864
14.5328
14.5775
14.6206
14.6622
14.702
14.7402
14.7767
14.8115
14.8443
14.8752
14.904
14.9305
14.9545
14.9756
14.9935
15.0074
15.0164
15.0196
15.0132
15.002
14.9534
-7.66356
-7.70593
-7.78333
-7.88758
-8.01724
-8.17177
-8.34944
-8.54822
-8.7661
-9.00085
-9.25111
-9.51613
-9.79446
-10.0838
-10.3816
-10.6856
-10.9934
-11.3027
-11.6116
-11.918
-12.2204
-12.517
-12.8066
-13.0879
-13.3598
-13.6213
-13.8715
-14.1097
-14.3349
-14.5466
-14.744
-14.9265
-15.0934
-15.2441
-15.3778
-15.494
-15.5919
-15.6711
-15.7308
-15.7706
-15.7899
-15.7883
-15.7653
-15.7205
-15.6537
-15.5646
-15.4532
-15.3194
-15.1631
-14.9845
-14.7839
-14.5614
-14.3175
-14.0527
-13.7674
-13.4624
-13.1382
-12.7957
-12.4357
-12.0591
-11.6667
-11.2596
-10.8389
-10.4054
-9.96031
-9.50471
-9.03966
-8.56628
-8.08564
-7.59883
-7.10693
-6.61098
-6.11201
-5.61102
-5.10899
-4.60684
-4.10546
-3.60574
-3.10847
-2.61442
-2.12431
-1.63881
-1.15857
-0.68416
-0.21612
0.245061
0.698944
1.14513
1.58327
2.01304
2.43417
2.84644
3.24965
3.64365
4.02831
4.40354
4.76927
5.12548
5.47216
5.80933
6.13703
6.45534
6.76433
7.06412
7.35482
7.63656
7.90951
8.17381
8.42965
8.6772
8.91665
9.14819
9.37203
9.58836
9.79739
9.99934
10.1944
10.3828
10.5647
10.7404
10.91
11.0738
11.2319
11.3845
11.5319
11.6743
11.8118
11.9445
12.0728
12.1967
12.3164
12.432
12.5438
12.6519
12.7564
12.8574
12.9552
13.0497
13.1412
13.2297
13.3154
13.3984
13.4788
13.5566
13.6321
13.7051
13.776
13.8446
13.9112
13.9757
14.0383
14.0989
14.1577
14.2147
14.2699
14.3235
14.3753
14.4254
14.4739
14.5208
14.5661
14.6097
14.6516
14.6919
14.7305
14.7673
14.8022
14.8352
14.8661
14.8948
14.9209
14.9444
14.9647
14.9813
14.9937
15.0005
15.0011
14.9917
14.9772
14.9254
-7.71836
-7.75675
-7.82252
-7.91179
-8.0244
-8.16025
-8.31827
-8.4971
-8.69518
-8.91094
-9.14391
-9.39396
-9.65972
-9.93878
-10.2286
-10.5266
-10.8304
-11.1375
-11.4459
-11.7534
-12.058
-12.3579
-12.6516
-12.9376
-13.2147
-13.4815
-13.737
-13.9803
-14.2105
-14.4268
-14.6283
-14.8145
-14.9845
-15.1377
-15.2736
-15.3914
-15.4905
-15.5704
-15.6306
-15.6705
-15.6897
-15.6877
-15.6643
-15.619
-15.5517
-15.4622
-15.3505
-15.2164
-15.0601
-14.8817
-14.6814
-14.4596
-14.2166
-13.953
-13.6692
-13.3659
-13.0439
-12.7038
-12.3465
-11.9728
-11.5837
-11.1802
-10.7631
-10.3336
-9.89268
-9.4414
-8.98083
-8.51205
-8.03611
-7.55409
-7.06702
-6.57594
-6.08185
-5.58572
-5.08851
-4.59112
-4.09444
-3.5993
-3.1065
-2.61682
-2.13094
-1.64952
-1.17319
-0.702518
-0.238042
0.21976
0.670451
1.11364
1.54896
1.97612
2.39482
2.80486
3.20603
3.59818
3.98116
4.3549
4.71932
5.07439
5.42009
5.75644
6.08349
6.40128
6.7099
7.00944
7.30003
7.58178
7.85485
8.11937
8.37553
8.62349
8.86344
9.09555
9.32003
9.53707
9.74687
9.94963
10.1455
10.3348
10.5177
10.6943
10.8649
11.0297
11.1889
11.3426
11.491
11.6344
11.773
11.9068
12.0361
12.161
12.2818
12.3985
12.5113
12.6204
12.7259
12.8279
12.9266
13.0221
13.1145
13.2039
13.2905
13.3744
13.4556
13.5343
13.6105
13.6844
13.756
13.8254
13.8927
13.958
14.0213
14.0826
14.1421
14.1997
14.2556
14.3097
14.3621
14.4128
14.4619
14.5093
14.5551
14.5992
14.6416
14.6823
14.7213
14.7584
14.7936
14.8267
14.8576
14.8862
14.9121
14.935
14.9545
14.9701
14.9809
14.9858
14.9841
14.9719
14.9544
14.8999
-7.703
-7.73727
-7.79422
-7.86971
-7.96514
-8.08129
-8.21816
-8.37537
-8.55214
-8.74777
-8.96271
-9.19744
-9.45071
-9.72001
-10.0026
-10.2959
-10.5972
-10.9038
-11.2134
-11.5235
-11.8319
-12.1366
-12.4357
-12.7275
-13.0106
-13.2835
-13.5449
-13.7939
-14.0294
-14.2504
-14.4562
-14.6461
-14.8192
-14.975
-15.1129
-15.2322
-15.3325
-15.4133
-15.474
-15.5142
-15.5335
-15.5315
-15.508
-15.4628
-15.3955
-15.3062
-15.1948
-15.0613
-14.9058
-14.7284
-14.5295
-14.3094
-14.0684
-13.8071
-13.5261
-13.2259
-12.9072
-12.5708
-12.2175
-11.8482
-11.4637
-11.065
-10.6531
-10.2289
-9.79351
-9.3479
-8.89312
-8.43024
-7.96028
-7.48428
-7.00326
-6.51822
-6.03015
-5.53999
-5.04867
-4.55708
-4.06608
-3.57649
-3.08909
-2.60464
-2.12383
-1.6473
-1.17565
-0.709453
-0.249227
0.204541
0.651417
1.09101
1.52297
1.94697
2.36275
2.77008
3.16877
3.55863
3.93956
4.31143
4.67419
5.02779
5.37221
5.70746
6.03357
6.3506
6.65861
6.9577
7.24797
7.52954
7.80254
8.06713
8.32345
8.57168
8.81199
9.04455
9.26956
9.4872
9.69766
9.90115
10.0978
10.288
10.4717
10.6492
10.8208
10.9865
11.1466
11.3013
11.4508
11.5952
11.7348
11.8696
12
12.1259
12.2477
12.3654
12.4792
12.5893
12.6958
12.7988
12.8984
12.9948
13.0881
13.1785
13.2659
13.3507
13.4327
13.5123
13.5893
13.664
13.7364
13.8066
13.8746
13.9406
14.0046
14.0666
14.1267
14.185
14.2416
14.2963
14.3493
14.4007
14.4503
14.4983
14.5446
14.5892
14.6321
14.6733
14.7126
14.7501
14.7855
14.8189
14.8499
14.8784
14.904
14.9265
14.9453
14.9598
14.9692
14.9724
14.9685
14.9539
14.9337
14.8771
-7.63757
-7.66276
-7.70913
-7.76804
-7.84312
-7.93638
-8.04906
-8.182
-8.33544
-8.50965
-8.70606
-8.92563
-9.16715
-9.4279
-9.70488
-9.9951
-10.2956
-10.6034
-10.9158
-11.23
-11.5434
-11.8539