/*--------------------------------*- C++ -*----------------------------------*\
  =========                 |
  \\      /  F ield         | OpenFOAM: The Open Source CFD Toolbox
   \\    /   O peration     | Website:  https://openfoam.org
    \\  /    A nd           | Version:  8
     \\/     M anipulation  |
\*---------------------------------------------------------------------------*/
FoamFile
{
    version     2.0;
    format      ascii;
    class       surfaceScalarField;
    location    "400";
    object      phi;
}
// * * * * * * * * * * * * * * * * * * * * * * * * * * * * * * * * * * * * * //

dimensions      [0 3 -1 0 0 0 0];

internalField   nonuniform List<scalar> 
24170
(
3.92539e-06
-7.91499e-07
3.76466e-06
1.60746e-07
3.63347e-06
1.31205e-07
3.43335e-06
2.00139e-07
3.28034e-06
1.53024e-07
3.18912e-06
9.12404e-08
3.13098e-06
5.82063e-08
3.08596e-06
4.52061e-08
3.04566e-06
4.05627e-08
3.00981e-06
3.61505e-08
2.97788e-06
3.21886e-08
2.94824e-06
2.98646e-08
2.92125e-06
2.71361e-08
2.89601e-06
2.53365e-08
2.87204e-06
2.40072e-08
2.85199e-06
2.00351e-08
2.8413e-06
1.06355e-08
-5.8627e-09
2.84711e-06
3.58445e-06
-9.19499e-07
3.80424e-06
-5.90444e-08
3.74283e-06
1.92625e-07
3.69062e-06
2.5237e-07
3.63733e-06
2.06331e-07
3.59029e-06
1.38303e-07
3.55302e-06
9.55392e-08
3.52337e-06
7.49818e-08
3.49894e-06
6.51693e-08
3.47771e-06
5.7611e-08
3.45895e-06
5.11858e-08
3.44258e-06
4.64543e-08
3.42785e-06
4.20487e-08
3.41447e-06
3.88518e-08
3.40251e-06
3.60555e-08
3.3911e-06
3.14938e-08
3.38043e-06
2.1316e-08
5.06098e-09
3.36956e-06
3.68518e-06
-7.92483e-07
3.83639e-06
-2.10255e-07
3.91494e-06
1.14076e-07
3.94503e-06
2.22284e-07
3.94411e-06
2.07258e-07
3.92753e-06
1.5488e-07
3.9076e-06
1.15478e-07
3.8894e-06
9.31639e-08
3.87415e-06
8.03777e-08
3.86073e-06
7.0971e-08
3.84846e-06
6.34146e-08
3.83735e-06
5.75547e-08
3.82693e-06
5.24818e-08
3.8174e-06
4.84066e-08
3.80896e-06
4.45378e-08
3.80109e-06
3.94149e-08
3.79213e-06
3.0326e-08
1.77138e-08
3.77959e-06
4.05359e-06
-6.41511e-07
4.1146e-06
-2.71263e-07
4.20799e-06
2.06857e-08
4.26636e-06
1.63924e-07
4.29072e-06
1.82914e-07
4.2929e-06
1.52711e-07
4.28572e-06
1.22677e-07
4.27631e-06
1.02558e-07
4.26733e-06
8.9314e-08
4.25884e-06
7.94045e-08
4.25067e-06
7.15467e-08
4.24292e-06
6.53044e-08
4.23541e-06
6.0014e-08
4.2283e-06
5.55585e-08
4.2216e-06
5.12924e-08
4.21481e-06
4.62794e-08
4.20618e-06
3.90303e-08
3.03272e-08
4.19367e-06
4.50491e-06
-5.09114e-07
4.51536e-06
-2.81713e-07
4.58529e-06
-4.92426e-08
4.64666e-06
1.02553e-07
4.6826e-06
1.46972e-07
4.69689e-06
1.3842e-07
4.69944e-06
1.20116e-07
4.69719e-06
1.04768e-07
4.69333e-06
9.31131e-08
4.68876e-06
8.39087e-08
4.68377e-06
7.6467e-08
4.67861e-06
7.04186e-08
4.6733e-06
6.53083e-08
4.66793e-06
6.09362e-08
4.6624e-06
5.68427e-08
4.65623e-06
5.24976e-08
4.64803e-06
4.72836e-08
4.21698e-08
4.63627e-06
5.00015e-06
-3.94664e-07
4.98614e-06
-2.67709e-07
5.03069e-06
-9.37877e-08
5.08507e-06
4.81837e-08
5.12456e-06
1.07492e-07
5.1461e-06
1.16889e-07
5.15581e-06
1.10401e-07
5.15936e-06
1.01204e-07
5.15986e-06
9.25689e-08
5.15866e-06
8.50549e-08
5.15639e-06
7.86833e-08
5.15344e-06
7.33397e-08
5.14995e-06
6.87927e-08
5.146e-06
6.48942e-08
5.14149e-06
6.13845e-08
5.13599e-06
5.80447e-08
5.12853e-06
5.47951e-08
5.25902e-08
5.11819e-06
5.54382e-06
-2.97476e-07
5.51665e-06
-2.40536e-07
5.54055e-06
-1.17697e-07
5.58389e-06
4.85181e-09
5.62167e-06
6.97046e-08
5.64656e-06
9.19965e-08
5.66105e-06
9.59043e-08
5.66903e-06
9.32014e-08
5.67315e-06
8.84125e-08
5.67487e-06
8.32958e-08
5.67499e-06
7.85183e-08
5.67401e-06
7.42964e-08
5.67215e-06
7.06391e-08
5.66952e-06
6.75247e-08
5.66603e-06
6.48803e-08
5.6614e-06
6.27063e-08
5.65504e-06
6.11889e-08
6.10975e-08
5.64657e-06
4.34788e-06
-2.39243e-07
4.32251e-06
-2.15168e-07
4.33078e-06
-1.25962e-07
4.35419e-06
-1.85546e-08
4.3784e-06
4.54963e-08
4.39647e-06
7.39378e-08
4.40841e-06
8.3966e-08
4.41596e-06
8.56352e-08
4.4206e-06
8.3759e-08
4.42328e-06
8.05953e-08
4.4246e-06
7.71683e-08
4.42495e-06
7.39298e-08
4.42452e-06
7.10576e-08
4.42341e-06
6.86397e-08
4.42158e-06
6.67157e-08
4.41891e-06
6.53897e-08
4.4152e-06
6.49216e-08
6.59453e-08
4.41038e-06
5.08622e-06
-1.85601e-07
5.05777e-06
-1.86725e-07
5.0584e-06
-1.26591e-07
5.07687e-06
-3.70223e-08
5.09918e-06
2.31829e-08
5.11773e-06
5.53901e-08
5.13124e-06
7.04548e-08
5.14058e-06
7.62786e-08
5.14687e-06
7.74576e-08
5.15097e-06
7.64807e-08
5.15349e-06
7.46362e-08
5.15482e-06
7.25865e-08
5.1552e-06
7.06717e-08
5.15475e-06
6.9094e-08
5.15348e-06
6.79921e-08
5.15133e-06
6.75422e-08
5.14825e-06
6.80257e-08
6.98984e-08
5.1443e-06
5.94839e-06
-1.38195e-07
5.91832e-06
-1.56657e-07
5.91161e-06
-1.19879e-07
5.92401e-06
-4.94171e-08
5.94286e-06
4.3279e-09
5.96058e-06
3.76741e-08
5.97479e-06
5.62435e-08
5.98546e-06
6.56059e-08
5.9932e-06
6.97041e-08
5.9987e-06
7.09817e-08
6.00246e-06
7.08582e-08
6.0049e-06
7.01487e-08
6.00624e-06
6.93289e-08
6.00663e-06
6.86967e-08
6.00615e-06
6.84749e-08
6.00482e-06
6.88778e-08
6.00269e-06
7.01595e-08
7.2639e-08
5.99997e-06
6.95439e-06
-9.83144e-08
6.92402e-06
-1.26287e-07
6.91114e-06
-1.06998e-07
6.91681e-06
-5.50866e-08
6.93088e-06
-9.74073e-09
6.94635e-06
2.21993e-08
6.96015e-06
4.24478e-08
6.9714e-06
5.43519e-08
6.98018e-06
6.09174e-08
6.98686e-06
6.4295e-08
6.99183e-06
6.58827e-08
6.99542e-06
6.65644e-08
6.99785e-06
6.68961e-08
6.99929e-06
6.7255e-08
6.99986e-06
6.79073e-08
6.99965e-06
6.90814e-08
6.99883e-06
7.09922e-08
7.38246e-08
6.99764e-06
8.12719e-06
-6.64893e-08
8.09793e-06
-9.70312e-08
8.08056e-06
-8.96234e-08
8.07956e-06
-5.40799e-08
8.08794e-06
-1.8119e-08
8.09985e-06
1.0285e-08
8.11198e-06
3.03146e-08
8.12286e-06
4.34738e-08
8.13203e-06
5.17412e-08
8.13952e-06
5.68022e-08
8.14551e-06
5.98917e-08
8.15021e-06
6.18611e-08
8.15381e-06
6.32953e-08
8.15647e-06
6.45904e-08
8.15834e-06
6.60368e-08
8.15957e-06
6.7849e-08
8.16037e-06
7.01897e-08
7.31684e-08
8.16104e-06
9.49368e-06
-4.244e-08
9.4668e-06
-7.01538e-08
9.44684e-06
-6.96552e-08
9.43991e-06
-4.71529e-08
9.44229e-06
-2.04964e-08
9.44966e-06
2.91845e-09
9.45895e-06
2.102e-08
9.4684e-06
3.40183e-08
9.47716e-06
4.29748e-08
9.48492e-06
4.90461e-08
9.4916e-06
5.32016e-08
9.49728e-06
5.61793e-08
9.50206e-06
5.85103e-08
9.50608e-06
6.05786e-08
9.50946e-06
6.26506e-08
9.51239e-06
6.49156e-08
9.5151e-06
6.74901e-08
7.04321e-08
9.51784e-06
1.10854e-05
-2.51603e-08
1.10618e-05
-4.65147e-08
1.1041e-05
-4.88224e-08
1.10294e-05
-3.55728e-08
1.10261e-05
-1.71985e-08
1.10284e-05
5.68387e-10
1.1034e-05
1.54292e-08
1.10411e-05
2.6916e-08
1.10487e-05
3.54258e-08
1.10561e-05
4.16367e-08
1.1063e-05
4.62188e-08
1.10695e-05
4.9731e-08
1.10754e-05
5.26048e-08
1.10808e-05
5.51546e-08
1.10859e-05
5.76022e-08
1.10907e-05
6.00909e-08
1.10955e-05
6.27034e-08
6.54618e-08
1.11005e-05
1.29396e-05
-1.31198e-08
1.29194e-05
-2.62931e-08
1.28988e-05
-2.82694e-08
1.28839e-05
-2.07103e-08
1.28758e-05
-9.02496e-09
1.28732e-05
3.10779e-09
1.28748e-05
1.38943e-08
1.28789e-05
2.27331e-08
1.28847e-05
2.96784e-08
1.28913e-05
3.50649e-08
1.28982e-05
3.9292e-08
1.29052e-05
4.2723e-08
1.29121e-05
4.56507e-08
1.2919e-05
4.82923e-08
1.29258e-05
5.07975e-08
1.29327e-05
5.32582e-08
1.29396e-05
5.5718e-08
5.81806e-08
1.29469e-05
1.50998e-05
-4.48443e-09
1.50822e-05
-8.69449e-09
1.50621e-05
-8.13359e-09
1.50448e-05
-3.48298e-09
1.50327e-05
3.07991e-09
1.50259e-05
9.90182e-09
1.50237e-05
1.6118e-08
1.5025e-05
2.14118e-08
1.50289e-05
2.57917e-08
1.50346e-05
2.94129e-08
1.50414e-05
3.24719e-08
1.5049e-05
3.51497e-08
1.5057e-05
3.75895e-08
1.50654e-05
3.98933e-08
1.50741e-05
4.21236e-08
1.50831e-05
4.43103e-08
1.50923e-05
4.64558e-08
4.85428e-08
1.5102e-05
1.76171e-05
2.89126e-09
1.75999e-05
8.50158e-09
1.75787e-05
1.30064e-08
1.7559e-05
1.62533e-08
1.75436e-05
1.84426e-08
1.75336e-05
1.99249e-08
1.75287e-05
2.10135e-08
1.75282e-05
2.19495e-08
1.75311e-05
2.28883e-08
1.75366e-05
2.39261e-08
1.75439e-05
2.51098e-08
1.75526e-05
2.64511e-08
1.75623e-05
2.79413e-08
1.75726e-05
2.95529e-08
1.75835e-05
3.12519e-08
1.75948e-05
3.29953e-08
1.76065e-05
3.47389e-08
3.64374e-08
1.76187e-05
1.78181e-05
1.09988e-08
1.77994e-05
2.71897e-08
1.77768e-05
3.56024e-08
1.7756e-05
3.70334e-08
1.77402e-05
3.43025e-08
1.77302e-05
2.99204e-08
1.77257e-05
2.54731e-08
1.77259e-05
2.17483e-08
1.77298e-05
1.90414e-08
1.77364e-05
1.73612e-08
1.77449e-05
1.65852e-08
1.77548e-05
1.65494e-08
1.77657e-05
1.70773e-08
1.77772e-05
1.8019e-08
1.77892e-05
1.92356e-08
1.78016e-05
2.062e-08
1.78143e-05
2.20773e-08
2.35366e-08
1.78272e-05
1.58702e-05
2.21316e-08
1.58478e-05
4.95611e-08
1.58233e-05
6.01113e-08
1.58032e-05
5.72146e-08
1.57899e-05
4.75906e-08
1.57834e-05
3.63551e-08
1.57827e-05
2.61873e-08
1.57864e-05
1.81367e-08
1.57931e-05
1.23573e-08
1.58018e-05
8.60006e-09
1.5812e-05
6.48036e-09
1.58229e-05
5.60061e-09
1.58344e-05
5.62852e-09
1.58461e-05
6.27987e-09
1.5858e-05
7.34401e-09
1.587e-05
8.64942e-09
1.5882e-05
1.00748e-08
1.15252e-08
1.5894e-05
1.41313e-05
3.95376e-08
1.41021e-05
7.86893e-08
1.40745e-05
8.77683e-08
1.40557e-05
7.60184e-08
1.40469e-05
5.63978e-08
1.40462e-05
3.70362e-08
1.40512e-05
2.12101e-08
1.40597e-05
9.59823e-09
1.40703e-05
1.77907e-09
1.4082e-05
-3.02216e-09
1.40941e-05
-5.58146e-09
1.41062e-05
-6.5473e-09
1.41183e-05
-6.41873e-09
1.41302e-05
-5.57876e-09
1.41418e-05
-4.29482e-09
1.41532e-05
-2.76892e-09
1.41645e-05
-1.13589e-09
5.05777e-10
1.41755e-05
1.25772e-05
6.73542e-08
1.25392e-05
1.16724e-07
1.25091e-05
1.17871e-07
1.24942e-05
9.08716e-08
1.24928e-05
5.78015e-08
1.25002e-05
2.96796e-08
1.25123e-05
9.15506e-09
1.25264e-05
-4.47541e-09
1.25409e-05
-1.27757e-08
1.25552e-05
-1.7274e-08
1.25688e-05
-1.9201e-08
1.25818e-05
-1.9431e-08
1.2594e-05
-1.86106e-08
1.26056e-05
-1.71323e-08
1.26166e-05
-1.53159e-08
1.26272e-05
-1.3327e-08
1.26373e-05
-1.13185e-08
-9.35117e-09
1.26472e-05
1.11862e-05
1.10915e-07
1.11384e-05
1.64558e-07
1.11088e-05
1.47502e-07
1.11022e-05
9.74656e-08
1.11117e-05
4.8299e-08
1.1129e-05
1.24081e-08
1.11486e-05
-1.04548e-08
1.11678e-05
-2.36684e-08
1.11855e-05
-3.04352e-08
1.12014e-05
-3.31418e-08
1.12156e-05
-3.33816e-08
1.12284e-05
-3.2189e-08
1.124e-05
-3.01852e-08
1.12507e-05
-2.77863e-08
1.12606e-05
-2.52109e-08
1.127e-05
-2.26533e-08
1.12788e-05
-2.01753e-08
-1.78469e-08
1.12873e-05
9.93908e-06
1.76451e-07
9.88248e-06
2.21152e-07
9.85874e-06
1.71247e-07
9.86596e-06
9.02541e-08
9.88965e-06
2.46205e-08
9.91764e-06
-1.55704e-08
9.94398e-06
-3.67605e-08
9.96674e-06
-4.63809e-08
9.98581e-06
-4.9439e-08
1.00017e-05
-4.9033e-08
1.00152e-05
-4.68152e-08
1.00268e-05
-4.37464e-08
1.0037e-05
-4.03045e-08
1.00461e-05
-3.68375e-08
1.00544e-05
-3.34882e-08
1.00621e-05
-3.03341e-08
1.00694e-05
-2.74332e-08
-2.47724e-08
1.00763e-05
8.81963e-06
2.69916e-07
8.75785e-06
2.82937e-07
8.74788e-06
1.8121e-07
8.77483e-06
6.33006e-08
8.81462e-06
-1.51596e-08
8.85218e-06
-5.31051e-08
8.88273e-06
-6.72595e-08
8.90636e-06
-6.99281e-08
8.92441e-06
-6.7498e-08
8.93849e-06
-6.30279e-08
8.94976e-06
-5.7999e-08
8.95912e-06
-5.28975e-08
8.96705e-06
-4.81632e-08
8.97403e-06
-4.37389e-08
8.98029e-06
-3.97036e-08
8.98604e-06
-3.60495e-08
8.99144e-06
-3.28456e-08
-2.99933e-08
8.99663e-06
7.81391e-06
3.96675e-07
7.7539e-06
3.42937e-07
7.76868e-06
1.66425e-07
7.82055e-06
1.14337e-08
7.87571e-06
-7.03138e-08
7.91918e-06
-9.65535e-08
7.94977e-06
-9.78354e-08
7.97068e-06
-9.07573e-08
7.98508e-06
-8.17089e-08
7.99534e-06
-7.31909e-08
8.00311e-06
-6.55928e-08
8.0092e-06
-5.89845e-08
8.01429e-06
-5.30784e-08
8.01863e-06
-4.79879e-08
8.02248e-06
-4.34692e-08
8.02595e-06
-3.95501e-08
8.02928e-06
-3.62267e-08
-3.33361e-08
8.0326e-06
6.90424e-06
5.66768e-07
6.86137e-06
3.85803e-07
6.91717e-06
1.10619e-07
6.99676e-06
-6.81656e-08
7.06257e-06
-1.36131e-07
7.10536e-06
-1.39346e-07
7.13037e-06
-1.2273e-07
7.14454e-06
-1.04895e-07
7.15249e-06
-8.96405e-08
7.15721e-06
-7.77753e-08
7.16027e-06
-6.85472e-08
7.16246e-06
-6.09217e-08
7.16404e-06
-5.4627e-08
7.16537e-06
-4.92953e-08
7.16644e-06
-4.45905e-08
7.16735e-06
-4.04898e-08
7.16837e-06
-3.72656e-08
-3.47131e-08
7.16963e-06
6.07162e-06
7.97663e-07
6.08525e-06
3.72161e-07
6.19865e-06
-2.78795e-09
6.29991e-06
-1.69429e-07
6.3653e-06
-2.01524e-07
6.39758e-06
-1.71613e-07
6.41012e-06
-1.35363e-07
6.41333e-06
-1.07845e-07
6.4123e-06
-8.86876e-08
6.40999e-06
-7.54585e-08
6.4075e-06
-6.60215e-08
6.40498e-06
-5.84859e-08
6.40249e-06
-5.22839e-08
6.40028e-06
-4.70355e-08
6.3982e-06
-4.25102e-08
6.39617e-06
-3.85139e-08
6.39448e-06
-3.56565e-08
-3.36732e-08
6.3935e-06
5.35805e-06
1.05451e-06
5.50649e-06
2.23712e-07
5.64777e-06
-1.44089e-07
5.73566e-06
-2.57329e-07
5.77649e-06
-2.4238e-07
5.78327e-06
-1.78477e-07
5.77508e-06
-1.27045e-07
5.7626e-06
-9.54539e-08
5.75003e-06
-7.63426e-08
5.73927e-06
-6.49673e-08
5.73034e-06
-5.7296e-08
5.72234e-06
-5.077e-08
5.71476e-06
-4.49726e-08
5.70793e-06
-4.04001e-08
5.70188e-06
-3.65373e-08
5.69636e-06
-3.30379e-08
5.69139e-06
-3.06168e-08
-2.954e-08
5.68728e-06
5.04576e-06
1.01105e-06
5.36491e-06
-9.54592e-08
5.35252e-06
-1.31746e-07
5.33288e-06
-2.37719e-07
5.29605e-06
-2.05617e-07
5.25012e-06
-1.32614e-07
5.20837e-06
-8.52998e-08
5.17416e-06
-6.14088e-08
5.14659e-06
-4.91926e-08
5.1246e-06
-4.3421e-08
5.10646e-06
-3.95476e-08
5.09047e-06
-3.53028e-08
5.07569e-06
-3.07243e-08
5.0623e-06
-2.73083e-08
5.05021e-06
-2.45927e-08
5.03962e-06
-2.24732e-08
5.03023e-06
-2.11621e-08
-2.18175e-08
5.0226e-06
5.4676e-06
5.37214e-06
5.24039e-06
5.00266e-06
4.79703e-06
4.66442e-06
4.5791e-06
4.51763e-06
4.46835e-06
4.42486e-06
4.38522e-06
4.3498e-06
4.319e-06
4.29165e-06
4.26705e-06
4.24459e-06
4.22345e-06
4.20167e-06
2.26931e-08
-2.26997e-08
2.36682e-07
-2.13997e-07
4.89008e-07
-2.52325e-07
7.09609e-07
-2.20603e-07
8.77691e-07
-1.6808e-07
9.89174e-07
-1.11492e-07
1.04517e-06
-5.59955e-08
1.04788e-06
-2.72353e-09
1.00259e-06
4.52863e-08
9.19394e-07
8.31725e-08
8.13494e-07
1.05902e-07
7.03985e-07
1.09484e-07
6.1074e-07
9.3237e-08
5.44128e-07
6.6627e-08
4.93116e-07
5.09978e-08
4.34e-07
5.91939e-08
3.48844e-07
8.51298e-08
2.24322e-07
1.24542e-07
4.75562e-08
1.76713e-07
-1.96657e-07
2.44109e-07
-4.98649e-07
3.01967e-07
-8.39355e-07
3.40658e-07
-1.20374e-06
3.64394e-07
-1.58121e-06
3.77464e-07
-1.96302e-06
3.81821e-07
-2.33915e-06
3.76143e-07
-2.70154e-06
3.624e-07
-3.04501e-06
3.43477e-07
-3.36572e-06
3.20717e-07
-3.6613e-06
2.95592e-07
-3.93089e-06
2.69593e-07
-4.17479e-06
2.43901e-07
-4.39402e-06
2.19228e-07
-4.59005e-06
1.96033e-07
-4.76459e-06
1.74544e-07
-4.91944e-06
1.54845e-07
-5.05634e-06
1.369e-07
-5.17693e-06
1.2059e-07
-5.28268e-06
1.05756e-07
-5.3749e-06
9.2217e-08
-5.45469e-06
7.97911e-08
-5.523e-06
6.83055e-08
-5.5806e-06
5.76045e-08
-5.62816e-06
4.75536e-08
-5.6662e-06
3.80433e-08
-5.69519e-06
2.89861e-08
-5.7155e-06
2.03104e-08
-5.72749e-06
1.19855e-08
-5.73163e-06
4.13546e-09
-5.72877e-06
-2.85606e-09
-5.72001e-06
-8.76379e-09
-5.70612e-06
-1.38917e-08
-5.68751e-06
-1.86087e-08
-5.66444e-06
-2.30755e-08
-5.63707e-06
-2.73704e-08
-5.60555e-06
-3.15224e-08
-5.57e-06
-3.55464e-08
-5.53056e-06
-3.94493e-08
-5.48733e-06
-4.32322e-08
-5.44043e-06
-4.68943e-08
-5.39e-06
-5.04328e-08
-5.33616e-06
-5.38444e-08
-5.27904e-06
-5.71256e-08
-5.21877e-06
-6.02733e-08
-5.15548e-06
-6.32849e-08
-5.08933e-06
-6.61574e-08
-5.02044e-06
-6.88872e-08
-4.94897e-06
-7.14722e-08
-4.87506e-06
-7.39106e-08
-4.79887e-06
-7.62013e-08
-4.72052e-06
-7.83435e-08
-4.64019e-06
-8.03368e-08
-4.55801e-06
-8.21814e-08
-4.47413e-06
-8.38783e-08
-4.38871e-06
-8.54281e-08
-4.30188e-06
-8.68329e-08
-4.21378e-06
-8.80945e-08
-4.12457e-06
-8.92157e-08
-4.03437e-06
-9.0199e-08
-3.94332e-06
-9.10485e-08
-3.85155e-06
-9.17674e-08
-3.75919e-06
-9.23607e-08
-3.66636e-06
-9.28328e-08
-3.57317e-06
-9.31897e-08
-3.47973e-06
-9.3437e-08
-3.38615e-06
-9.35826e-08
-3.29251e-06
-9.36342e-08
-3.1989e-06
-9.36025e-08
-3.1054e-06
-9.35e-08
-3.01205e-06
-9.3342e-08
-2.9189e-06
-9.31502e-08
-2.82594e-06
-9.29496e-08
-2.73318e-06
-9.27587e-08
-2.64062e-06
-9.25585e-08
-2.54835e-06
-9.22659e-08
-2.45657e-06
-9.17791e-08
-2.36555e-06
-9.10105e-08
-2.27558e-06
-8.99737e-08
-2.18675e-06
-8.88233e-08
-2.09908e-06
-8.76702e-08
-2.01256e-06
-8.65159e-08
-1.92721e-06
-8.53445e-08
-1.84306e-06
-8.41482e-08
-1.76013e-06
-8.29264e-08
-1.67844e-06
-8.16812e-08
-1.59802e-06
-8.04166e-08
-1.51888e-06
-7.91363e-08
-1.44103e-06
-7.78432e-08
-1.36449e-06
-7.65351e-08
-1.28929e-06
-7.5192e-08
-1.21545e-06
-7.38249e-08
-1.14299e-06
-7.24613e-08
-1.07188e-06
-7.10972e-08
-1.00214e-06
-6.97334e-08
-9.33758e-07
-6.83709e-08
-8.66738e-07
-6.70114e-08
-8.01072e-07
-6.5657e-08
-7.36752e-07
-6.43103e-08
-6.7377e-07
-6.29735e-08
-6.12115e-07
-6.16459e-08
-5.51778e-07
-6.03282e-08
-4.92746e-07
-5.9023e-08
-4.35001e-07
-5.77365e-08
-3.78519e-07
-5.64741e-08
-3.23279e-07
-5.52322e-08
-2.69265e-07
-5.40071e-08
-2.16455e-07
-5.2803e-08
-1.64831e-07
-5.16187e-08
-1.14383e-07
-5.04427e-08
-6.51031e-08
-4.9275e-08
-1.71118e-08
-4.79875e-08
2.9717e-08
-4.68256e-08
7.56921e-08
-4.59724e-08
1.20713e-07
-4.50179e-08
1.64672e-07
-4.39567e-08
2.07565e-07
-4.28907e-08
2.49408e-07
-4.18415e-08
2.90232e-07
-4.08218e-08
3.30067e-07
-3.9834e-08
3.68946e-07
-3.88764e-08
4.06895e-07
-3.79473e-08
4.43943e-07
-3.70453e-08
4.80115e-07
-3.61696e-08
5.15437e-07
-3.53194e-08
5.49933e-07
-3.44941e-08
5.83629e-07
-3.36936e-08
6.16548e-07
-3.29176e-08
6.48715e-07
-3.2166e-08
6.80154e-07
-3.14387e-08
7.1089e-07
-3.07355e-08
7.40948e-07
-3.00566e-08
7.7035e-07
-2.94019e-08
7.99123e-07
-2.87715e-08
8.27289e-07
-2.81653e-08
8.54873e-07
-2.75834e-08
8.81899e-07
-2.70257e-08
9.08392e-07
-2.6492e-08
9.34375e-07
-2.59821e-08
9.59872e-07
-2.54956e-08
9.84904e-07
-2.50316e-08
1.00949e-06
-2.45888e-08
1.03366e-06
-2.41654e-08
1.05742e-06
-2.37585e-08
1.08079e-06
-2.33642e-08
1.10376e-06
-2.29765e-08
1.12635e-06
-2.25875e-08
1.14854e-06
-2.21856e-08
1.1703e-06
-2.1755e-08
1.19157e-06
-2.12735e-08
1.21229e-06
-2.07101e-08
1.23231e-06
-2.00204e-08
1.25145e-06
-1.91405e-08
1.26943e-06
-1.7973e-08
1.28581e-06
-1.63735e-08
1.29988e-06
-1.40671e-08
1.31052e-06
-1.06423e-08
1.31511e-06
-4.57946e-09
1.30827e-06
6.84226e-09
1.27874e-06
2.95376e-08
7.23655e-08
1.20637e-06
2.54217e-07
-2.76924e-07
4.90457e-07
-4.50242e-07
6.40517e-07
-4.02387e-07
7.25518e-07
-3.05607e-07
7.65309e-07
-2.07872e-07
7.71489e-07
-1.17679e-07
7.50757e-07
-3.52651e-08
7.08749e-07
3.9272e-08
6.48544e-07
1.05488e-07
5.70083e-07
1.61619e-07
4.7267e-07
2.03314e-07
3.5472e-07
2.27428e-07
2.10269e-07
2.37685e-07
2.78236e-08
2.4909e-07
-2.03599e-07
2.82425e-07
-4.88702e-07
3.44318e-07
-8.26414e-07
4.22844e-07
-1.20634e-06
5.04469e-07
-1.61027e-06
5.80625e-07
-2.01174e-06
6.45571e-07
-2.40181e-06
6.92024e-07
-2.77747e-06
7.16312e-07
-3.13274e-06
7.19667e-07
-3.46069e-06
7.05404e-07
-3.75598e-06
6.77119e-07
-4.01765e-06
6.37816e-07
-4.2461e-06
5.90857e-07
-4.44257e-06
5.39956e-07
-4.60997e-06
4.88114e-07
-4.75179e-06
4.37419e-07
-4.87142e-06
3.89224e-07
-4.97203e-06
3.44512e-07
-5.0565e-06
3.03704e-07
-5.12736e-06
2.6689e-07
-5.18673e-06
2.33909e-07
-5.23634e-06
2.0446e-07
-5.27762e-06
1.78173e-07
-5.31168e-06
1.54657e-07
-5.33946e-06
1.33528e-07
-5.36167e-06
1.14435e-07
-5.37895e-06
9.70653e-08
-5.3918e-06
8.11526e-08
-5.40067e-06
6.6474e-08
-5.40596e-06
5.28473e-08
-5.40804e-06
4.01249e-08
-5.40725e-06
2.81914e-08
-5.40391e-06
1.69683e-08
-5.39835e-06
6.41997e-09
-5.39071e-06
-3.49666e-09
-5.3806e-06
-1.29678e-08
-5.36713e-06
-2.22359e-08
-5.34969e-06
-3.13339e-08
-5.32811e-06
-4.01951e-08
-5.30237e-06
-4.88156e-08
-5.27254e-06
-5.72022e-08
-5.2387e-06
-6.53612e-08
-5.20095e-06
-7.32955e-08
-5.1594e-06
-8.10047e-08
-5.11415e-06
-8.84857e-08
-5.06531e-06
-9.5733e-08
-5.01301e-06
-1.0274e-07
-4.95735e-06
-1.09498e-07
-4.89848e-06
-1.16001e-07
-4.83652e-06
-1.22241e-07
-4.77159e-06
-1.28213e-07
-4.70384e-06
-1.33911e-07
-4.6334e-06
-1.39328e-07
-4.56041e-06
-1.44458e-07
-4.48503e-06
-1.493e-07
-4.40738e-06
-1.5385e-07
-4.32762e-06
-1.58106e-07
-4.24589e-06
-1.62069e-07
-4.16233e-06
-1.65738e-07
-4.0771e-06
-1.69115e-07
-3.99033e-06
-1.72202e-07
-3.90216e-06
-1.75002e-07
-3.81274e-06
-1.77519e-07
-3.72219e-06
-1.7976e-07
-3.63066e-06
-1.81728e-07
-3.53828e-06
-1.83432e-07
-3.44517e-06
-1.84878e-07
-3.35146e-06
-1.86075e-07
-3.25726e-06
-1.87032e-07
-3.16269e-06
-1.8776e-07
-3.06785e-06
-1.88268e-07
-2.97287e-06
-1.88568e-07
-2.87783e-06
-1.88672e-07
-2.78284e-06
-1.88593e-07
-2.68799e-06
-1.88344e-07
-2.59339e-06
-1.87937e-07
-2.49915e-06
-1.87384e-07
-2.4054e-06
-1.86695e-07
-2.31229e-06
-1.85863e-07
-2.21999e-06
-1.84861e-07
-2.12861e-06
-1.83645e-07
-2.0382e-06
-1.82185e-07
-1.94873e-06
-1.80477e-07
-1.86015e-06
-1.78558e-07
-1.77246e-06
-1.76507e-07
-1.68575e-06
-1.74377e-07
-1.60008e-06
-1.72184e-07
-1.5155e-06
-1.69927e-07
-1.43203e-06
-1.6761e-07
-1.34972e-06
-1.65234e-07
-1.26859e-06
-1.62807e-07
-1.18867e-06
-1.60333e-07
-1.10999e-06
-1.57818e-07
-1.03256e-06
-1.55265e-07
-9.56413e-07
-1.52676e-07
-8.81548e-07
-1.50052e-07
-8.07961e-07
-1.47406e-07
-7.35666e-07
-1.4475e-07
-6.64668e-07
-1.42089e-07
-5.94968e-07
-1.39427e-07
-5.26565e-07
-1.36767e-07
-4.59459e-07
-1.34111e-07
-3.93645e-07
-1.31464e-07
-3.29119e-07
-1.2883e-07
-2.65871e-07
-1.26215e-07
-2.0389e-07
-1.23621e-07
-1.43167e-07
-1.21045e-07
-8.36915e-08
-1.18492e-07
-2.54561e-08
-1.15966e-07
3.15528e-08
-1.13478e-07
8.73631e-08
-1.11038e-07
1.41992e-07
-1.08632e-07
1.95449e-07
-1.06257e-07
2.4775e-07
-1.03917e-07
2.98922e-07
-1.01612e-07
3.48993e-07
-9.93436e-08
3.98118e-07
-9.71117e-08
4.46278e-07
-9.49839e-08
4.93253e-07
-9.29469e-08
5.39109e-07
-9.08723e-08
5.83924e-07
-8.87708e-08
6.2773e-07
-8.66962e-08
6.70558e-07
-8.46678e-08
7.12429e-07
-8.26927e-08
7.53368e-07
-8.07723e-08
7.93399e-07
-7.89056e-08
8.32543e-07
-7.70908e-08
8.70826e-07
-7.53266e-08
9.08269e-07
-7.36119e-08
9.44897e-07
-7.19459e-08
9.80732e-07
-7.03279e-08
1.0158e-06
-6.87577e-08
1.05011e-06
-6.7235e-08
1.08371e-06
-6.57597e-08
1.1166e-06
-6.43316e-08
1.14882e-06
-6.29507e-08
1.18038e-06
-6.16169e-08
1.21131e-06
-6.03304e-08
1.24163e-06
-5.9091e-08
1.27136e-06
-5.78988e-08
1.30053e-06
-5.67538e-08
1.32916e-06
-5.56556e-08
1.35727e-06
-5.46039e-08
1.38489e-06
-5.35979e-08
1.41203e-06
-5.26366e-08
1.43872e-06
-5.17182e-08
1.46497e-06
-5.08399e-08
1.49081e-06
-4.9998e-08
1.51623e-06
-4.91868e-08
1.54127e-06
-4.83984e-08
1.56592e-06
-4.76218e-08
1.59017e-06
-4.68414e-08
1.61402e-06
-4.6036e-08
1.63745e-06
-4.51759e-08
1.66039e-06
-4.42199e-08
1.6828e-06
-4.31104e-08
1.70454e-06
-4.17656e-08
1.72547e-06
-4.00673e-08
1.74534e-06
-3.78385e-08
1.76378e-06
-3.48102e-08
1.78023e-06
-3.05204e-08
1.79381e-06
-2.42189e-08
1.80355e-06
-1.43086e-08
1.80842e-06
1.96971e-09
1.80655e-06
3.14181e-08
8.807e-08
1.79084e-06
2.46564e-07
-5.23498e-07
3.43326e-07
-5.47011e-07
3.59785e-07
-4.1885e-07
3.48883e-07
-2.94709e-07
3.21361e-07
-1.80353e-07
2.77484e-07
-7.38098e-08
2.16537e-07
2.56788e-08
1.37469e-07
1.18327e-07
3.92402e-08
2.03714e-07
-8.02849e-08
2.81134e-07
-2.26754e-07
3.49782e-07
-4.10646e-07
4.1132e-07
-6.45416e-07
4.72457e-07
-9.38234e-07
5.41914e-07
-1.2792e-06
6.23392e-07
-1.64639e-06
7.11513e-07
-2.01887e-06
7.95322e-07
-2.37967e-06
8.65265e-07
-2.71478e-06
9.15741e-07
-3.01356e-06
9.44343e-07
-3.27213e-06
9.50586e-07
-3.49151e-06
9.3569e-07
-3.67467e-06
9.02825e-07
-3.82563e-06
8.5637e-07
-3.94911e-06
8.00599e-07
-4.0505e-06
7.39206e-07
-4.13514e-06
6.75501e-07
-4.20744e-06
6.12258e-07
-4.27085e-06
5.51522e-07
-4.32799e-06
4.94558e-07
-4.38074e-06
4.4198e-07
-4.43026e-06
3.94029e-07
-4.47718e-06
3.50622e-07
-4.52177e-06
3.11482e-07
-4.56407e-06
2.76217e-07
-4.604e-06
2.44389e-07
-4.64139e-06
2.15556e-07
-4.67603e-06
1.89303e-07
-4.70776e-06
1.65251e-07
-4.73639e-06
1.43069e-07
-4.7618e-06
1.22474e-07
-4.78388e-06
1.03227e-07
-4.80253e-06
8.51287e-08
-4.8177e-06
6.8014e-08
-4.82932e-06
5.17426e-08
-4.83732e-06
3.61949e-08
-4.84162e-06
2.12688e-08
-4.84207e-06
6.87032e-09
-4.83846e-06
-7.10689e-09
-4.83066e-06
-2.07775e-08
-4.81869e-06
-3.42025e-08
-4.80266e-06
-4.73703e-08
-4.78259e-06
-6.02584e-08
-4.75855e-06
-7.28584e-08
-4.73059e-06
-8.51641e-08
-4.69878e-06
-9.71697e-08
-4.66321e-06
-1.08868e-07
-4.62397e-06
-1.20252e-07
-4.58114e-06
-1.3131e-07
-4.53485e-06
-1.42031e-07
-4.48519e-06
-1.52403e-07
-4.43227e-06
-1.62413e-07
-4.37623e-06
-1.72048e-07
-4.31717e-06
-1.81297e-07
-4.25523e-06
-1.90153e-07
-4.19054e-06
-1.98604e-07
-4.12323e-06
-2.0664e-07
-4.05344e-06
-2.14254e-07
-3.9813e-06
-2.21441e-07
-3.90695e-06
-2.28198e-07
-3.83054e-06
-2.3452e-07
-3.7522e-06
-2.40407e-07
-3.67208e-06
-2.45859e-07
-3.59032e-06
-2.50878e-07
-3.50706e-06
-2.55467e-07
-3.42243e-06
-2.59631e-07
-3.33657e-06
-2.63376e-07
-3.24963e-06
-2.66708e-07
-3.16172e-06
-2.69636e-07
-3.07298e-06
-2.7217e-07
-2.98354e-06
-2.74319e-07
-2.89352e-06
-2.76096e-07
-2.80304e-06
-2.77514e-07
-2.71221e-06
-2.78584e-07
-2.62116e-06
-2.79322e-07
-2.52998e-06
-2.79742e-07
-2.43879e-06
-2.79858e-07
-2.3477e-06
-2.79686e-07
-2.2568e-06
-2.79239e-07
-2.1662e-06
-2.78532e-07
-2.07601e-06
-2.77574e-07
-1.98633e-06
-2.76375e-07
-1.89726e-06
-2.74931e-07
-1.80888e-06
-2.73232e-07
-1.72127e-06
-2.71261e-07
-1.63444e-06
-2.69016e-07
-1.5484e-06
-2.6651e-07
-1.46318e-06
-2.6378e-07
-1.37882e-06
-2.60872e-07
-1.29537e-06
-2.5782e-07
-1.21291e-06
-2.54645e-07
-1.13147e-06
-2.5136e-07
-1.05111e-06
-2.47974e-07
-9.71841e-07
-2.44497e-07
-8.93707e-07
-2.40938e-07
-8.1673e-07
-2.37307e-07
-7.40935e-07
-2.3361e-07
-6.6634e-07
-2.29857e-07
-5.92959e-07
-2.26053e-07
-5.208e-07
-2.22208e-07
-4.4987e-07
-2.18332e-07
-3.80179e-07
-2.14437e-07
-3.11735e-07
-2.1053e-07
-2.44538e-07
-2.0662e-07
-1.7859e-07
-2.02711e-07
-1.13888e-07
-1.98809e-07
-5.04295e-08
-1.94919e-07
1.17928e-08
-1.91048e-07
7.27829e-08
-1.87202e-07
1.32548e-07
-1.83383e-07
1.91102e-07
-1.79595e-07
2.48456e-07
-1.75843e-07
3.04626e-07
-1.72133e-07
3.59624e-07
-1.68472e-07
4.13454e-07
-1.64865e-07
4.66133e-07
-1.61309e-07
5.17681e-07
-1.57803e-07
5.68116e-07
-1.5435e-07
6.17461e-07
-1.50955e-07
6.65745e-07
-1.47626e-07
7.1301e-07
-1.44376e-07
7.59239e-07
-1.41213e-07
8.044e-07
-1.38107e-07
8.48539e-07
-1.3501e-07
8.91701e-07
-1.31932e-07
9.33908e-07
-1.28903e-07
9.75181e-07
-1.2594e-07
1.01554e-06
-1.23048e-07
1.055e-06
-1.20231e-07
1.09358e-06
-1.17487e-07
1.13131e-06
-1.14817e-07
1.1682e-06
-1.12219e-07
1.20428e-06
-1.09692e-07
1.23957e-06
-1.07236e-07
1.2741e-06
-1.04851e-07
1.30787e-06
-1.02535e-07
1.34093e-06
-1.00289e-07
1.37328e-06
-9.81129e-08
1.40496e-06
-9.60058e-08
1.43597e-06
-9.39681e-08
1.46636e-06
-9.19997e-08
1.49613e-06
-9.01007e-08
1.52531e-06
-8.82711e-08
1.55392e-06
-8.65109e-08
1.58198e-06
-8.48198e-08
1.60953e-06
-8.31975e-08
1.63657e-06
-8.16435e-08
1.66312e-06
-8.01566e-08
1.68922e-06
-7.87352e-08
1.71488e-06
-7.73765e-08
1.74012e-06
-7.60768e-08
1.76495e-06
-7.48304e-08
1.78939e-06
-7.36294e-08
1.81346e-06
-7.24623e-08
1.83715e-06
-7.13137e-08
1.86047e-06
-7.01616e-08
1.88341e-06
-6.89761e-08
1.90595e-06
-6.77157e-08
1.92806e-06
-6.6323e-08
1.94966e-06
-6.47176e-08
1.97069e-06
-6.27862e-08
1.99099e-06
-6.0366e-08
2.01037e-06
-5.72157e-08
2.02853e-06
-5.29726e-08
2.04505e-06
-4.70444e-08
2.05933e-06
-3.84943e-08
2.07058e-06
-2.55572e-08
2.07794e-06
-5.38555e-09
2.08184e-06
2.75113e-08
8.55179e-08
2.0844e-06
9.43038e-08
-6.17813e-07
6.32597e-08
-5.15977e-07
1.49344e-08
-3.70531e-07
-4.19666e-08
-2.37814e-07
-1.11223e-07
-1.11101e-07
-1.96311e-07
1.12715e-08
-3.00216e-07
1.29579e-07
-4.2536e-07
2.43464e-07
-5.74304e-07
3.52655e-07
-7.5043e-07
4.57256e-07
-9.58493e-07
5.57843e-07
-1.20288e-06
6.55709e-07
-1.48252e-06
7.52093e-07
-1.78674e-06
8.46135e-07
-2.09687e-06
9.33525e-07
-2.39319e-06
1.00784e-06
-2.66112e-06
1.06324e-06
-2.8923e-06
1.09644e-06
-3.08343e-06
1.10687e-06
-3.23528e-06
1.09619e-06
-3.35214e-06
1.06744e-06
-3.44053e-06
1.02408e-06
-3.50758e-06
9.69877e-07
-3.55984e-06
9.08629e-07
-3.60281e-06
8.43568e-07
-3.64094e-06
7.77334e-07
-3.67749e-06
7.12054e-07
-3.71451e-06
6.49285e-07
-3.75303e-06
5.90038e-07
-3.79332e-06
5.34843e-07
-3.83519e-06
4.83856e-07
-3.87816e-06
4.37003e-07
-3.92159e-06
3.94051e-07
-3.96479e-06
3.54681e-07
-4.00711e-06
3.18531e-07
-4.04795e-06
2.85229e-07
-4.08681e-06
2.54419e-07
-4.12327e-06
2.25767e-07
-4.157e-06
1.98975e-07
-4.18771e-06
1.73777e-07
-4.21518e-06
1.49943e-07
-4.23923e-06
1.27276e-07
-4.25971e-06
1.05608e-07
-4.27649e-06
8.47998e-08
-4.28948e-06
6.47292e-08
-4.29858e-06
4.52949e-08
-4.30372e-06
2.64104e-08
-4.30485e-06
7.99853e-09
-4.30195e-06
-1.00145e-08
-4.29503e-06
-2.76903e-08
-4.28418e-06
-4.50575e-08
-4.26944e-06
-6.21135e-08
-4.25085e-06
-7.88456e-08
-4.22847e-06
-9.52414e-08
-4.20235e-06
-1.11288e-07
-4.17255e-06
-1.2697e-07
-4.13914e-06
-1.42273e-07
-4.10222e-06
-1.5718e-07
-4.06186e-06
-1.71673e-07
-4.01815e-06
-1.85736e-07
-3.97121e-06
-1.99349e-07
-3.92113e-06
-2.12494e-07
-3.86803e-06
-2.25152e-07
-3.81202e-06
-2.37306e-07
-3.75322e-06
-2.48947e-07
-3.69177e-06
-2.60059e-07
-3.62778e-06
-2.70629e-07
-3.56139e-06
-2.80647e-07
-3.49273e-06
-2.90105e-07
-3.42193e-06
-2.98998e-07
-3.34913e-06
-3.07321e-07
-3.27446e-06
-3.15074e-07
-3.19807e-06
-3.22255e-07
-3.12008e-06
-3.28867e-07
-3.04064e-06
-3.34914e-07
-2.95987e-06
-3.40402e-07
-2.87791e-06
-3.45337e-07
-2.79489e-06
-3.49729e-07
-2.71093e-06
-3.53589e-07
-2.62617e-06
-3.56928e-07
-2.54073e-06
-3.5976e-07
-2.45473e-06
-3.62099e-07
-2.36829e-06
-3.6396e-07
-2.28151e-06
-3.65361e-07
-2.19451e-06
-3.66318e-07
-2.1074e-06
-3.66848e-07
-2.02029e-06
-3.66971e-07
-1.93327e-06
-3.66703e-07
-1.84645e-06
-3.66061e-07
-1.75992e-06
-3.65061e-07
-1.67377e-06
-3.63718e-07
-1.5881e-06
-3.62042e-07
-1.50299e-06
-3.60041e-07
-1.41851e-06
-3.57717e-07
-1.3347e-06
-3.55072e-07
-1.2516e-06
-3.52113e-07
-1.16925e-06
-3.48861e-07
-1.08768e-06
-3.45347e-07
-1.00695e-06
-3.41605e-07
-9.27103e-07
-3.37666e-07
-8.48193e-07
-3.33554e-07
-7.70266e-07
-3.29287e-07
-6.93357e-07
-3.24881e-07
-6.17503e-07
-3.2035e-07
-5.42731e-07
-3.15709e-07
-4.69067e-07
-3.10968e-07
-3.96533e-07
-3.06142e-07
-3.25148e-07
-3.01239e-07
-2.54926e-07
-2.96273e-07
-1.85875e-07
-2.91256e-07
-1.18007e-07
-2.86197e-07
-5.13291e-08
-2.81112e-07
1.41526e-08
-2.76009e-07
7.84336e-08
-2.70898e-07
1.41512e-07
-2.65787e-07