/*--------------------------------*- C++ -*----------------------------------*\
  =========                 |
  \\      /  F ield         | OpenFOAM: The Open Source CFD Toolbox
   \\    /   O peration     | Website:  https://openfoam.org
    \\  /    A nd           | Version:  8
     \\/     M anipulation  |
\*---------------------------------------------------------------------------*/
FoamFile
{
    version     2.0;
    format      ascii;
    class       volVectorField;
    location    "400";
    object      U;
}
// * * * * * * * * * * * * * * * * * * * * * * * * * * * * * * * * * * * * * //

dimensions      [0 1 -1 0 0 0 0];

internalField   nonuniform List<vector> 
12225
(
(9.2745 -4.73371 0)
(13.1094 -1.71343 0)
(12.4779 -0.395197 0)
(11.2772 -0.0422033 0)
(10.6315 0.014146 0)
(10.2982 -8.25729e-05 0)
(10.078 -0.0165057 0)
(9.91238 -0.00370745 0)
(9.77805 0.0335241 0)
(9.6601 0.0419112 0)
(9.55291 0.0242824 0)
(9.45489 0.00248067 0)
(9.36446 -0.0215997 0)
(9.28051 -0.0287785 0)
(9.20131 -0.0205038 0)
(9.1323 -0.0213015 0)
(9.07114 -0.0219902 0)
(9.08883 -0.0279856 0)
(10.2592 0.0928016 0)
(10.7814 0.199337 0)
(10.9594 0.245654 0)
(10.747 0.229141 0)
(10.5876 0.172968 0)
(10.4528 0.115562 0)
(10.3302 0.0823201 0)
(10.2332 0.0642285 0)
(10.1561 0.0512247 0)
(10.0906 0.0456918 0)
(10.0333 0.0457526 0)
(9.98256 0.0482289 0)
(9.93778 0.0514527 0)
(9.89788 0.0519115 0)
(9.86097 0.0486581 0)
(9.82838 0.0447416 0)
(9.79406 0.0314166 0)
(9.76832 0.0109938 0)
(9.87768 -0.24504 0)
(9.74285 0.00578897 0)
(10.1971 0.125741 0)
(10.3245 0.17936 0)
(10.3565 0.161545 0)
(10.3312 0.120076 0)
(10.2778 0.0904143 0)
(10.2254 0.0742461 0)
(10.1816 0.0650432 0)
(10.1442 0.0590157 0)
(10.1107 0.0552917 0)
(10.0802 0.053016 0)
(10.052 0.0508501 0)
(10.026 0.0487681 0)
(10.0023 0.0463029 0)
(9.9814 0.0420929 0)
(9.95952 0.0319755 0)
(9.93497 0.0136296 0)
(9.83416 -0.443933 0)
(9.57654 -0.163149 0)
(9.91604 0.0336669 0)
(10.0933 0.134219 0)
(10.1893 0.145466 0)
(10.2168 0.120717 0)
(10.205 0.0977883 0)
(10.1825 0.0836214 0)
(10.16 0.0751728 0)
(10.1391 0.0691677 0)
(10.1193 0.0646057 0)
(10.1004 0.0612305 0)
(10.0823 0.0583666 0)
(10.0649 0.0561241 0)
(10.0485 0.0538585 0)
(10.0329 0.0501651 0)
(10.0152 0.0423568 0)
(9.99221 0.0303114 0)
(9.87825 -0.387476 0)
(9.61653 -0.19615 0)
(9.81624 -0.0186748 0)
(9.96137 0.0916056 0)
(10.0698 0.122185 0)
(10.1219 0.113593 0)
(10.1354 0.0991641 0)
(10.1332 0.0882514 0)
(10.1257 0.0807457 0)
(10.1163 0.0751603 0)
(10.1058 0.0708626 0)
(10.0948 0.0676313 0)
(10.0835 0.0650377 0)
(10.072 0.0629837 0)
(10.0603 0.0609045 0)
(10.0481 0.0579309 0)
(10.0332 0.0527862 0)
(10.0128 0.0464123 0)
(9.91439 -0.28804 0)
(9.68304 -0.185179 0)
(9.78718 -0.0532132 0)
(9.88918 0.0509897 0)
(9.98799 0.0936633 0)
(10.0476 0.0991639 0)
(10.0751 0.0937924 0)
(10.0861 0.0874215 0)
(10.0891 0.0820414 0)
(10.088 0.0776776 0)
(10.0843 0.0742283 0)
(10.0791 0.0716013 0)
(10.0728 0.0695575 0)
(10.0656 0.067975 0)
(10.0574 0.0665093 0)
(10.0479 0.0647601 0)
(10.0357 0.0623783 0)
(10.0188 0.0606075 0)
(9.93763 -0.214041 0)
(9.74856 -0.16754 0)
(9.79244 -0.0752231 0)
(9.85609 0.0162075 0)
(9.93597 0.0643996 0)
(9.99283 0.0805528 0)
(10.0261 0.0834961 0)
(10.0446 0.0821858 0)
(10.0546 0.07975 0)
(10.0593 0.0772601 0)
(10.0607 0.0751148 0)
(10.0598 0.0734481 0)
(10.0572 0.0722289 0)
(10.0532 0.0714311 0)
(10.0479 0.0709361 0)
(10.0409 0.0706818 0)
(10.0314 0.0708341 0)
(10.0184 0.0725804 0)
(9.95263 -0.167335 0)
(9.79947 -0.14968 0)
(9.81178 -0.0846478 0)
(9.84959 -0.00622132 0)
(9.91141 0.0419132 0)
(9.96108 0.0638653 0)
(9.99432 0.0725086 0)
(10.0156 0.0752559 0)
(10.0289 0.0755208 0)
(10.0368 0.0748969 0)
(10.0411 0.0741162 0)
(10.0428 0.0735077 0)
(10.0427 0.0731998 0)
(10.0409 0.073273 0)
(10.0376 0.0737692 0)
(10.0326 0.0748201 0)
(10.0255 0.0767909 0)
(10.0158 0.0806905 0)
(9.96406 -0.13209 0)
(9.84003 -0.131993 0)
(9.83337 -0.0876978 0)
(9.85306 -0.0213458 0)
(9.89928 0.0243938 0)
(9.94103 0.049478 0)
(9.97207 0.0620799 0)
(9.99385 0.0680431 0)
(10.0086 0.0706798 0)
(10.0184 0.0717791 0)
(10.0247 0.0722774 0)
(10.0283 0.0726707 0)
(10.0299 0.0732271 0)
(10.0298 0.0741321 0)
(10.0281 0.0755393 0)
(10.0249 0.0776856 0)
(10.0198 0.0810045 0)
(10.0129 0.0863196 0)
(9.97418 -0.100206 0)
(9.87757 -0.112395 0)
(9.85857 -0.085375 0)
(9.86388 -0.0323472 0)
(9.89487 0.00890592 0)
(9.92743 0.0351893 0)
(9.95439 0.0506757 0)
(9.97502 0.0594619 0)
(9.99015 0.0644194 0)
(10.001 0.0673316 0)
(10.0085 0.069247 0)
(10.0136 0.0707879 0)
(10.0167 0.07234 0)
(10.0181 0.0741812 0)
(10.018 0.0765566 0)
(10.0165 0.079765 0)
(10.0136 0.0842355 0)
(10.0095 0.0905936 0)
(9.98253 -0.07271 0)
(9.91035 -0.0922019 0)
(9.88508 -0.0782534 0)
(9.88002 -0.0386221 0)
(9.89747 -0.00339664 0)
(9.92043 0.0221366 0)
(9.94196 0.0391462 0)
(9.95999 0.0500443 0)
(9.97426 0.0570217 0)
(9.9852 0.061663 0)
(9.99343 0.0650156 0)
(9.99947 0.067766 0)
(10.0037 0.0703774 0)
(10.0065 0.073199 0)
(10.0079 0.0765327 0)
(10.0081 0.080698 0)
(10.0073 0.0860727 0)
(10.0058 0.0930978 0)
(9.98894 -0.0502575 0)
(9.93733 -0.0723844 0)
(9.91073 -0.0674578 0)
(9.89918 -0.0399977 0)
(9.90567 -0.011672 0)
(9.91956 0.0114218 0)
(9.93497 0.0284941 0)
(9.94934 0.0405409 0)
(9.9617 0.0489811 0)
(9.9719 0.0550573 0)
(9.98012 0.0597048 0)
(9.98662 0.0635983 0)
(9.99167 0.0672304 0)
(9.99548 0.0709824 0)
(9.99822 0.0751765 0)
(10.0001 0.0801165 0)
(10.0013 0.0861061 0)
(10.0021 0.0934305 0)
(9.99348 -0.0329095 0)
(9.9582 -0.0538179 0)
(9.93369 -0.0542935 0)
(9.91899 -0.0368022 0)
(9.91756 -0.0154749 0)
(9.92366 0.00396589 0)
(9.93301 0.0197396 0)
(9.94318 0.0318344 0)
(9.9529 0.0409602 0)
(9.96164 0.0479571 0)
(9.96923 0.0535642 0)
(9.97572 0.0583742 0)
(9.98119 0.0628519 0)
(9.98579 0.0673658 0)
(9.98964 0.0722212 0)
(9.99292 0.0776806 0)
(9.99583 0.0839655 0)
(9.99862 0.0912529 0)
(9.99643 -0.0202032 0)
(9.97327 -0.0372173 0)
(9.95262 -0.0400557 0)
(9.93731 -0.0298255 0)
(9.9309 -0.0148445 0)
(9.93103 0.000338284 0)
(9.93504 0.0137383 0)
(9.94104 0.0247982 0)
(9.94782 0.0337038 0)
(9.95465 0.040922 0)
(9.96117 0.0469621 0)
(9.96724 0.0522847 0)
(9.9728 0.0572751 0)
(9.97789 0.0622502 0)
(9.98259 0.0674646 0)
(9.987 0.0731221 0)
(9.99129 0.079374 0)
(9.99564 0.0863158 0)
(9.99816 -0.0112883 0)
(9.9833 -0.0229391 0)
(9.96682 -0.0257737 0)
(9.95243 -0.0200919 0)
(9.94344 -0.0102628 0)
(9.93953 0.000647019 0)
(9.9394 0.0109939 0)
(9.94182 0.0200985 0)
(9.94582 0.0278685 0)
(9.95068 0.0345014 0)
(9.95596 0.0402987 0)
(9.96138 0.0455702 0)
(9.96679 0.0505948 0)
(9.97213 0.0556046 0)
(9.97739 0.060785 0)
(9.98264 0.0662725 0)
(9.98795 0.072158 0)
(9.99344 0.0784823 0)
(9.99906 -0.0050815 0)
(9.98922 -0.0107913 0)
(9.97612 -0.0119292 0)
(9.96309 -0.00849901 0)
(9.9531 -0.00245577 0)
(9.94685 0.004551 0)
(9.94399 0.0115225 0)
(9.94383 0.0179768 0)
(9.94569 0.0237847 0)
(9.94895 0.0290143 0)
(9.95315 0.033821 0)
(9.95797 0.0383819 0)
(9.96318 0.042862 0)
(9.96864 0.0473991 0)
(9.9743 0.0520978 0)
(9.98013 0.0570283 0)
(9.98615 0.0622263 0)
(9.99239 0.0676954 0)
(9.99942 -0.000368064 0)
(9.99181 0.000138748 0)
(9.98042 0.001818 0)
(9.96821 0.00457689 0)
(9.9579 0.00789908 0)
(9.9506 0.0113761 0)
(9.94642 0.0147854 0)
(9.94497 0.0180504 0)
(9.94575 0.0211872 0)
(9.94823 0.024262 0)
(9.95196 0.0273564 0)
(9.95658 0.0305471 0)
(9.96182 0.0338976 0)
(9.96752 0.0374513 0)
(9.97356 0.0412334 0)
(9.97986 0.045248 0)
(9.9864 0.0494819 0)
(9.99315 0.0539058 0)
(9.99935 0.00408392 0)
(9.9911 0.0111589 0)
(9.97897 0.0161187 0)
(9.96616 0.0187202 0)
(9.95552 0.0195947 0)
(9.94819 0.019526 0)
(9.94419 0.019136 0)
(9.94311 0.0188349 0)
(9.94436 0.0188622 0)
(9.94739 0.0193352 0)
(9.95172 0.0202939 0)
(9.95695 0.0217345 0)
(9.96282 0.0236249 0)
(9.96914 0.0259231 0)
(9.97577 0.0285756 0)
(9.98262 0.0315283 0)
(9.98965 0.0347214 0)
(9.99682 0.0380968 0)
(9.99882 0.00972892 0)
(9.98675 0.0240353 0)
(9.97122 0.0318331 0)
(9.95642 0.0332794 0)
(9.94559 0.0306902 0)
(9.93942 0.0263364 0)
(9.93734 0.0217356 0)
(9.93844 0.0177258 0)
(9.94185 0.0146804 0)
(9.94685 0.0126916 0)
(9.95289 0.011705 0)
(9.95959 0.0116001 0)
(9.96669 0.0122402 0)
(9.97402 0.0134892 0)
(9.98148 0.0152239 0)
(9.98901 0.0173343 0)
(9.99656 0.0197246 0)
(10.0041 0.0223111 0)
(9.99757 0.0182092 0)
(9.97774 0.0404436 0)
(9.95664 0.0495649 0)
(9.93945 0.0474662 0)
(9.92962 0.0394128 0)
(9.9266 0.0296419 0)
(9.92849 0.0204888 0)
(9.93357 0.012972 0)
(9.94054 0.00735524 0)
(9.94854 0.00352715 0)
(9.95701 0.00122891 0)
(9.96563 0.000169532 0)
(9.97422 8.96641e-05 0)
(9.98269 0.000755167 0)
(9.99101 0.00198598 0)
(9.99916 0.0036249 0)
(10.0072 0.00555479 0)
(10.015 0.00767539 0)
(9.99502 0.0318139 0)
(9.96177 0.0621234 0)
(9.93372 0.0695398 0)
(9.91535 0.0601026 0)
(9.90934 0.0439424 0)
(9.91251 0.0276595 0)
(9.92086 0.0140049 0)
(9.93164 0.00365596 0)
(9.94323 -0.00360905 0)
(9.95479 -0.00832919 0)
(9.96591 -0.0110822 0)
(9.97646 -0.0123554 0)
(9.98643 -0.0125521 0)
(9.99586 -0.0119621 0)
(10.0048 -0.0108266 0)
(10.0134 -0.00930622 0)
(10.0216 -0.00754209 0)
(10.0295 -0.00562099 0)
(9.99018 0.0534612 0)
(9.93561 0.0901432 0)
(9.90098 0.0906164 0)
(9.88516 0.0687444 0)
(9.88782 0.0418105 0)
(9.90124 0.0186607 0)
(9.91859 0.00143023 0)
(9.9363 -0.0103647 0)
(9.95288 -0.0178878 0)
(9.96787 -0.0223006 0)
(9.98126 -0.0245391 0)
(9.99325 -0.0252855 0)
(10.0041 -0.0250248 0)
(10.014 -0.0240837 0)
(10.0231 -0.0226993 0)
(10.0316 -0.0210417 0)
(10.0397 -0.0192262 0)
(10.0474 -0.017332 0)
(9.9819 0.0862467 0)
(9.89548 0.12425 0)
(9.85818 0.109873 0)
(9.85211 0.0697604 0)
(9.87037 0.030327 0)
(9.89846 0.00144646 0)
(9.92663 -0.0171894 0)
(9.9514 -0.0282873 0)
(9.97227 -0.0343262 0)
(9.98966 -0.0371691 0)
(10.0042 -0.0380073 0)
(10.0167 -0.0376231 0)
(10.0275 -0.0364677 0)
(10.037 -0.0348846 0)
(10.0457 -0.0330473 0)
(10.0537 -0.031105 0)
(10.0611 -0.0291337 0)
(10.0682 -0.0271874 0)
(9.96925 0.133989 0)
(9.83823 0.163083 0)
(9.80793 0.122581 0)
(9.82313 0.0587852 0)
(9.86516 0.00729115 0)
(9.91144 -0.0240371 0)
(9.95041 -0.0405885 0)
(9.98058 -0.0483249 0)
(10.0036 -0.0511235 0)
(10.0213 -0.0512955 0)
(10.0353 -0.0501179 0)
(10.0468 -0.0482204 0)
(10.0563 -0.0460223 0)
(10.0646 -0.0436817 0)
(10.072 -0.0413384 0)
(10.0787 -0.0390586 0)
(10.0849 -0.0369412 0)
(10.0908 -0.0349588 0)
(9.94951 0.20714 0)
(9.76128 0.207018 0)
(9.75726 0.123468 0)
(9.81043 0.0319943 0)
(9.88386 -0.0278857 0)
(9.9488 -0.0560216 0)
(9.99535 -0.0660854 0)
(10.0268 -0.0678021 0)
(10.0482 -0.0659692 0)
(10.0632 -0.0628969 0)
(10.0743 -0.0595052 0)
(10.0829 -0.0561353 0)
(10.0898 -0.0529255 0)
(10.0956 -0.0499375 0)
(10.1007 -0.0471424 0)
(10.1052 -0.0445993 0)
(10.1095 -0.042402 0)
(10.1136 -0.0404648 0)
(9.91094 0.322718 0)
(9.65922 0.254542 0)
(9.71887 0.107397 0)
(9.8333 -0.0119431 0)
(9.94177 -0.072687 0)
(10.0199 -0.090214 0)
(10.0662 -0.0893843 0)
(10.0918 -0.083279 0)
(10.1062 -0.0763423 0)
(10.1145 -0.0702436 0)
(10.1198 -0.0650282 0)
(10.1233 -0.060496 0)
(10.1259 -0.056543 0)
(10.1279 -0.0531707 0)
(10.1295 -0.0501211 0)
(10.1308 -0.0474342 0)
(10.1321 -0.045282 0)
(10.1337 -0.0435653 0)
(9.84404 0.43511 0)
(9.53797 0.261025 0)
(9.7269 0.059125 0)
(9.92369 -0.073137 0)
(10.0584 -0.121595 0)
(10.1345 -0.120258 0)
(10.1665 -0.1054 0)
(10.1757 -0.0910615 0)
(10.1758 -0.0798451 0)
(10.1726 -0.0718235 0)
(10.1687 -0.0658801 0)
(10.1648 -0.0607494 0)
(10.1607 -0.0563157 0)
(10.1569 -0.0526353 0)
(10.1534 -0.0495414 0)
(10.15 -0.0468119 0)
(10.1471 -0.0449007 0)
(10.145 -0.0437516 0)
(9.83598 0.319666 0)
(9.5502 0.091249 0)
(9.91738 -0.0687321 0)
(10.1507 -0.160129 0)
(10.2635 -0.17217 0)
(10.3032 -0.142783 0)
(10.2976 -0.112284 0)
(10.2753 -0.0908588 0)
(10.2513 -0.0769178 0)
(10.2304 -0.0683315 0)
(10.2133 -0.0627437 0)
(10.1985 -0.0578469 0)
(10.1847 -0.0530686 0)
(10.1717 -0.0483385 0)
(10.1601 -0.0441594 0)
(10.1495 -0.0411968 0)
(10.1403 -0.0401989 0)
(10.1325 -0.0395214 0)
(10.2049 -0.0633778 0)
(10.4095 -0.191709 0)
(10.7164 -0.282556 0)
(10.6879 -0.282289 0)
(10.6191 -0.230108 0)
(10.5417 -0.163698 0)
(10.4539 -0.117397 0)
(10.375 -0.0933215 0)
(10.3134 -0.0798307 0)
(10.2653 -0.06829 0)
(10.2256 -0.0592087 0)
(10.1915 -0.0549689 0)
(10.161 -0.0536884 0)
(10.1329 -0.0527881 0)
(10.1074 -0.0514866 0)
(10.084 -0.0491247 0)
(10.0655 -0.0437202 0)
(10.0481 -0.0374491 0)
(9.41631 4.45107 0)
(12.7294 2.07612 0)
(12.5649 0.621221 0)
(11.5691 0.127665 0)
(10.9311 0.00344498 0)
(10.5866 -0.00210009 0)
(10.363 0.0120265 0)
(10.201 0.0299431 0)
(10.0785 0.041079 0)
(9.97648 0.0346138 0)
(9.88354 0.0246954 0)
(9.79889 0.0236999 0)
(9.72381 0.0268581 0)
(9.65875 0.0240643 0)
(9.60126 0.0196475 0)
(9.55116 0.0161717 0)
(9.50049 0.00373309 0)
(9.45206 -0.0224506 0)
(-0.0279881 0.0938744 0)
(0.136784 -0.1833 0)
(0.32463 -0.305858 0)
(0.525298 -0.315265 0)
(0.703107 -0.27227 0)
(0.833988 -0.211317 0)
(0.910624 -0.146581 -8.59421e-20)
(0.941456 -0.0827 8.65371e-20)
(0.920848 -0.02034 0)
(0.86031 0.0344745 9.17338e-20)
(0.773145 0.0740772 0)
(0.673696 0.0923315 0)
(0.579408 0.0882017 0)
(0.506202 0.0671575 -1.43108e-19)
(0.456073 0.0380318 0)
(0.412802 0.00990469 0)
(0.353873 -0.00969264 1.87532e-19)
(0.264466 -0.010358 0)
(0.137724 0.026799 0)
(-0.0402121 0.111392 0)
(-0.295612 0.185787 -1.66684e-19)
(-0.589021 0.234942 0)
(-0.910219 0.266671 -7.65983e-20)
(-1.24666 0.295591 0)
(-1.58622 0.32345 0)
(-1.9261 0.336503 -4.1392e-20)
(-2.25886 0.335741 0)
(-2.57629 0.326733 3.4571e-20)
(-2.87545 0.31066 0)
(-3.15283 0.289893 -3.13555e-20)
(-3.40755 0.266762 0)
(-3.6392 0.242872 0)
(-3.84849 0.21926 0)
(-4.03652 0.19664 0)
(-4.20473 0.17539 0)
(-4.35468 0.155719 2.82318e-20)
(-4.48795 0.137666 0)
(-4.60604 0.121158 -5.55737e-20)
(-4.71033 0.10607 0)
(-4.80204 0.0922426 5.47746e-20)
(-4.88223 0.0795125 0)
(-4.9518 0.0677279 0)
(-5.0115 0.0567601 -5.35525e-20)
(-5.06197 0.0465119 0)
(-5.1037 0.0369232 -5.2661e-20)
(-5.13712 0.0279761 5.21834e-20)
(-5.16261 0.0197134 0)
(-5.18056 0.0122808 5.11569e-20)
(-5.19126 0.0059252 5.06047e-20)
(-5.19488 0.000858167 0)
(-5.19262 -0.00310316 0)
(-5.18578 -0.00639986 0)
(-5.17446 -0.00932425 0)
(-5.159 -0.0120363 0)
(-5.13957 -0.0146043 -4.61896e-20)
(-5.1163 -0.0170438 0)
(-5.0893 -0.0193659 4.43261e-20)
(-5.05868 -0.0215798 0)
(-5.02454 -0.0236879 0)
(-4.98698 -0.0256921 -4.11511e-20)
(-4.94611 -0.0275927 0)
(-4.90203 -0.0293897 3.87778e-20)
(-4.85485 -0.031083 0)
(-4.80468 -0.0326726 0)
(-4.75165 -0.0341584 0)
(-4.69587 -0.0355403 -3.34036e-20)
(-4.63746 -0.0368185 0)
(-4.57655 -0.0379943 0)
(-4.51327 -0.0390681 -2.8811e-20)
(-4.44774 -0.0400406 0)
(-4.3801 -0.0409132 -2.54731e-20)
(-4.31047 -0.0416874 0)
(-4.23899 -0.0423647 0)
(-4.16579 -0.0429469 0)
(-4.091 -0.0434359 1.81032e-20)
(-4.01475 -0.0438338 0)
(-3.93716 -0.0441428 0)
(-3.85837 -0.0443653 1.19276e-20)
(-3.7785 -0.0445038 9.73611e-21)
(-3.69767 -0.0445611 0)
(-3.616 -0.0445401 5.13917e-21)
(-3.53361 -0.0444445 0)
(-3.4506 -0.0442783 4.72808e-22)
(-3.36709 -0.0440465 0)
(-3.28317 -0.0437554 -1.00057e-20)
(-3.19894 -0.0434141 0)
(-3.11449 -0.0430348 2.12362e-20)
(-3.02991 -0.0426363 0)
(-2.94526 -0.0422465 0)
(-2.86059 -0.0419076 0)
(-2.77596 -0.0416814 -4.63998e-20)
(-2.69138 -0.0416499 0)
(-2.60686 -0.0419036 6.06576e-20)
(-2.52238 -0.0425004 0)
(-2.43788 -0.0433867 -7.63085e-20)
(-2.35361 -0.0442967 -8.46785e-20)
(-2.26982 -0.0447702 -9.33793e-20)
(-2.18677 -0.0445794 0)
(-2.10462 -0.0439812 0)
(-2.0234 -0.0432846 0)
(-1.94312 -0.0425803 0)
(-1.86379 -0.0418808 0)
(-1.78543 -0.0411868 0)
(-1.70807 -0.0405003 0)
(-1.63173 -0.0398249 0)
(-1.55644 -0.0391664 1.92391e-19)
(-1.48221 -0.0385318 2.06697e-19)
(-1.40905 -0.0379267 0)
(-1.33698 -0.0373403 0)
(-1.26604 -0.0367166 0)
(-1.19625 -0.03606 2.73898e-19)
(-1.12761 -0.0354257 0)
(-1.06014 -0.0348102 0)
(-0.99383 -0.0342146 0)
(-0.928685 -0.0336406 0)
(-0.864706 -0.0330902 -3.90421e-19)
(-0.801891 -0.0325658 0)
(-0.740235 -0.0320707 0)
(-0.679733 -0.0316084 4.88502e-19)
(-0.620378 -0.0311805 -5.28161e-19)
(-0.562163 -0.0307904 0)
(-0.505081 -0.0304487 -6.21678e-19)
(-0.449118 -0.0301791 0)
(-0.394256 -0.0300257 7.40537e-19)
(-0.340474 -0.0300002 0)
(-0.287758 -0.0300647 0)
(-0.236092 -0.0302053 0)
(-0.185449 -0.0304328 0)
(-0.135801 -0.0307631 0)
(-0.0871944 -0.0312147 -2.84341e-18)
(-0.0398359 -0.0316704 -3.27365e-18)
(0.00632023 -0.0313789 0)
(0.0517833 -0.0298873 0)
(0.0965713 -0.0280348 0)
(0.140541 -0.0263135 2.68619e-18)
(0.183597 -0.0247773 0)
(0.225719 -0.0234007 0)
(0.266928 -0.0221603 0)
(0.307257 -0.0210361 2.04023e-18)
(0.346737 -0.0200108 -1.93383e-18)
(0.385395 -0.0190703 0)
(0.423259 -0.018203 0)
(0.460352 -0.0173998 -1.68685e-18)
(0.496699 -0.0166531 -1.62215e-18)
(0.532323 -0.0159569 0)
(0.567248 -0.015306 0)
(0.601496 -0.0146962 1.4638e-18)
(0.635089 -0.0141237 -1.42031e-18)
(0.668051 -0.0135854 0)
(0.700405 -0.0130788 0)
(0.732173 -0.0126015 -1.31002e-18)
(0.763379 -0.0121514 0)
(0.794046 -0.0117269 0)
(0.824196 -0.0113263 -1.22251e-18)
(0.853854 -0.0109482 0)
(0.883042 -0.0105915 -1.17344e-18)
(0.911785 -0.0102549 0)
(0.940105 -0.00993736 0)
(0.968026 -0.00963782 0)
(0.99557 -0.00935519 1.09146e-18)
(1.02276 -0.00908838 0)
(1.04962 -0.0088361 0)
(1.07616 -0.00859691 0)
(1.10239 -0.00836899 0)
(1.12834 -0.0081501 0)
(1.154 -0.00793728 0)
(1.17936 -0.00772666 9.82646e-19)
(1.20441 -0.00751308 9.69721e-19)
(1.2291 -0.00728951 0)
(1.25336 -0.00704639 0)
(1.2771 -0.00677021 0)
(1.30013 -0.00644224 -9.24349e-19)
(1.32223 -0.00603307 0)
(1.343 -0.00550297 1.81356e-18)
(1.36196 -0.00476732 -1.8002e-18)
(1.37773 -0.00372927 -1.79139e-18)
(1.39033 -0.00196432 1.78978e-18)
(1.39077 0.00132234 -1.79506e-18)
(1.38809 0.00807615 1.80839e-18)
(1.3088 0.0198999 0)
(0.096158 -0.267659 0)
(0.334096 -0.681076 0)
(0.514758 -0.707473 1.57693e-19)
(0.6128 -0.572503 0)
(0.664016 -0.410008 -1.11073e-19)
(0.684674 -0.254833 -1.07995e-19)
(0.67885 -0.113072 -5.61853e-20)
(0.648664 0.0148184 -5.61293e-20)
(0.605792 0.124835 0)
(0.546739 0.211633 -6.07006e-20)
(0.470086 0.26748 0)
(0.375818 0.283724 0)
(0.260386 0.257229 1.7015e-19)
(0.11365 0.211746 9.81031e-20)
(-0.0706883 0.20525 -1.85004e-19)
(-0.296237 0.269714 -1.44748e-19)
(-0.57381 0.380841 -5.75573e-20)
(-0.899813 0.510662 0)
(-1.25361 0.64044 0)
(-1.61163 0.75507 0)
(-1.96724 0.841358 -2.86321e-20)
(-2.3129 0.895401 0)
(-2.64306 0.919254 6.91273e-20)
(-2.95022 0.915984 0)
(-3.23016 0.88977 0)
(-3.48129 0.845779 1.98211e-20)
(-3.70213 0.789295 0)
(-3.89352 0.72588 -1.97597e-20)
(-4.05729 0.659785 -4.17929e-20)
(-4.19701 0.593735 2.01637e-20)
(-4.31558 0.529834 0)
(-4.41591 0.469879 0)
(-4.50071 0.414709 0)
(-4.57239 0.364682 -4.42512e-20)
(-4.63303 0.319763 -4.4758e-20)
(-4.68432 0.279681 -2.21858e-20)
(-4.72763 0.244027 0)
(-4.76409 0.212318 4.53013e-20)
(-4.79459 0.184056 0)
(-4.81985 0.158761 -4.5875e-20)
(-4.84046 0.135988 0)
(-4.85691 0.115345 0)
(-4.86962 0.0964883 4.6088e-20)
(-4.87898 0.0791274 0)
(-4.88531 0.0630208 1.38169e-19)
(-4.88894 0.0479735 -4.56107e-20)
(-4.89014 0.0338488 0)
(-4.88915 0.020614 -4.4943e-20)
(-4.88624 0.00838297 -4.44879e-20)
(-4.88168 -0.00268104 0)
(-4.87458 -0.0126287 0)
(-4.86381 -0.0217556 0)
(-4.84937 -0.0303071 0)
(-4.83114 -0.0383982 0)
(-4.80916 -0.0460993 4.02265e-20)
(-4.7835 -0.0534477 7.91843e-20)
(-4.75421 -0.0604647 -3.84508e-20)
(-4.72139 -0.0671617 0)
(-4.68513 -0.0735448 7.3511e-20)
(-4.64552 -0.0796164 -3.59797e-20)
(-4.60266 -0.0853774 0)
(-4.55665 -0.0908276 -3.32824e-20)
(-4.50759 -0.0959669 0)
(-4.45559 -0.100797 0)
(-4.40077 -0.105319 -5.99289e-20)
(-4.34324 -0.109533 2.84055e-20)
(-4.28312 -0.11344 -5.47421e-20)
(-4.22053 -0.117042 5.20259e-20)
(-4.1556 -0.120343 2.43176e-20)
(-4.08845 -0.123348 0)
(-4.01921 -0.126062 2.13873e-20)
(-3.948 -0.12849 0)
(-3.87495 -0.130639 0)
(-3.8002 -0.132516 0)
(-3.72386 -0.13413 1.5666e-20)
(-3.64607 -0.135489 0)
(-3.56695 -0.136602 2.38361e-20)
(-3.48662 -0.137479 -3.00835e-20)
(-3.40521 -0.13813 -7.98e-21)
(-3.32283 -0.138566 0)
(-3.2396 -0.138798 -4.18274e-21)
(-3.15562 -0.138838 0)
(-3.07102 -0.138697 -3.81708e-22)
(-2.9859 -0.138387 0)
(-2.90035 -0.137921 8.01687e-21)
(-2.81448 -0.13731 -2.33693e-20)
(-2.72837 -0.136566 -1.68625e-20)
(-2.64213 -0.135699 0)
(-2.55584 -0.134717 0)
(-2.46958 -0.133625 0)
(-2.38347 -0.132426 3.60647e-20)
(-2.29761 -0.131109 0)
(-2.21213 -0.129647 -4.65278e-20)
(-2.12719 -0.127986 0)
(-2.04293 -0.126071 1.7147e-19)
(-1.95941 -0.123926 6.34905e-20)
(-1.87666 -0.121648 6.95175e-20)
(-1.79462 -0.119347 0)
(-1.71326 -0.11708 0)
(-1.63263 -0.114848 0)
(-1.5528 -0.112629 0)
(-1.47383 -0.110407 0)
(-1.39575 -0.108178 2.19145e-19)
(-1.3186 -0.105943 2.34627e-19)
(-1.24241 -0.103705 0)
(-1.1672 -0.101467 -1.34573e-19)
(-1.09301 -0.0992325 -1.43347e-19)
(-1.01985 -0.0970023 0)
(-0.947754 -0.0947788 -3.2263e-19)
(-0.876734 -0.0925664 0)
(-0.806785 -0.0903783 1.81111e-19)
(-0.737915 -0.0882207 0)
(-0.670137 -0.0860937 0)
(-0.603454 -0.0839999 -4.33997e-19)
(-0.537869 -0.0819407 0)
(-0.473384 -0.0799176 2.44597e-19)
(-0.409999 -0.0779337 0)
(-0.347711 -0.0759944 0)
(-0.286516 -0.0741089 2.89522e-19)
(-0.226404 -0.0722754 3.08825e-19)
(-0.167369 -0.0704883 0)
(-0.109405 -0.0687505 -3.46115e-19)
(-0.0525174 -0.0670623 0)
(0.0032972 -0.0654153 3.82565e-19)
(0.0580798 -0.0638026 7.66404e-19)
(0.111864 -0.0622351 0)
(0.16465 -0.0607277 0)
(0.216439 -0.0592849 0)
(0.267243 -0.0579045 0)
(0.317097 -0.0565888 7.09342e-19)
(0.366068 -0.0553271 2.0967e-18)
(0.414244 -0.0539505 0)
(0.46154 -0.0523065 0)
(0.507814 -0.050531 0)
(0.553132 -0.0487815 -6.65657e-19)
(0.597579 -0.0471107 0)
(0.641182 -0.0455271 0)
(0.683958 -0.0440285 1.28793e-18)
(0.725929 -0.0426084 6.36938e-19)
(0.767116 -0.0412594 6.32408e-19)
(0.80754 -0.0399749 0)
(0.847223 -0.0387495 0)
(0.886186 -0.0375788 6.15844e-19)
(0.92445 -0.0364592 -6.09602e-19)
(0.962037 -0.0353878 0)
(0.998968 -0.034362 0)
(1.03526 -0.0333798 -5.96731e-19)
(1.07095 -0.0324393 1.7762e-18)
(1.10604 -0.0315389 0)
(1.14056 -0.0306771 0)
(1.17454 -0.0298527 5.80251e-19)
(1.20798 -0.0290644 0)
(1.24093 -0.0283113 1.14479e-18)
(1.27339 -0.0275922 -5.68461e-19)
(1.3054 -0.0269062 0)
(1.33696 -0.0262523 5.62345e-19)
(1.36812 -0.0256295 1.1174e-18)
(1.39888 -0.0250367 0)
(1.42926 -0.0244727 0)
(1.4593 -0.0239359 -5.49505e-19)
(1.48901 -0.0234247 0)
(1.5184 -0.0229367 1.08629e-18)
(1.5475 -0.022469 0)
(1.57631 -0.0220179 0)
(1.60485 -0.0215782 0)
(1.63311 -0.0211434 0)
(1.66109 -0.0207045 -5.28914e-19)
(1.68878 -0.0202493 -5.26143e-19)
(1.71612 -0.0197614 0)
(1.74308 -0.0192181 0)
(1.76954 -0.0185876 0)
(1.79537 -0.0178246 5.16038e-19)
(1.82037 -0.0168614 0)
(1.84421 -0.0155959 -1.02465e-18)
(1.86647 -0.013849 1.0224e-18)
(1.88623 -0.0113401 1.02197e-18)
(1.90305 -0.00732353 1.02315e-18)
(1.91327 -0.000529392 1.02821e-18)
(1.92558 0.0124236 1.02015e-18)
(1.90602 0.0362052 0)
(0.116839 -0.859522 0)
(0.269727 -1.05787 0)
(0.317069 -0.827625 -1.26181e-19)
(0.31652 -0.585792 -1.08041e-19)
(0.299224 -0.375186 1.00345e-19)
(0.268186 -0.18993 1.00504e-19)
(0.222201 -0.02435 -6.47538e-22)
(0.160513 0.123522 0)
(0.0830084 0.254215 0)
(-0.0115299 0.365323 0)
(-0.1266 0.451226 0)
(-0.270212 0.512287 0)
(-0.45527 0.565722 -2.67983e-19)
(-0.692436 0.639782 0)
(-0.978227 0.751752 6.64558e-20)
(-1.29685 0.893545 5.73181e-20)
(-1.63036 1.04186 0)
(-1.96175 1.17628 0)
(-2.27565 1.28417 0)
(-2.56005 1.35845 0)
(-2.80959 1.39484 3.49244e-20)
(-3.02396 1.39297 0)
(-3.20455 1.35745 -3.23532e-20)
(-3.35413 1.29549 0)
(-3.47717 1.21447 0)
(-3.57826 1.12079 0)
(-3.66221 1.02054 -6.8576e-20)
(-3.73339 0.919085 0)
(-3.79536 0.820566 3.31066e-20)
(-3.85088 0.727807 -7.06841e-20)
(-3.9019 0.642334 0)
(-3.94971 0.564896 0)
(-3.99509 0.49555 0)
(-4.0384 0.433916 3.65547e-20)
(-4.07976 0.379347 3.7143e-20)
(-4.11911 0.33107 0)
(-4.15632 0.288289 0)
(-4.19123 0.250241 -7.77906e-20)
(-4.22364 0.21623 -7.81851e-20)
(-4.25341 0.185645 7.84197e-20)
(-4.28038 0.157964 0)
(-4.30444 0.132758 0)
(-4.32549 0.109678 0)
(-4.34348 0.0884369 0)
(-4.35833 0.0688015 -7.70099e-20)
(-4.36999 0.0505711 -7.69128e-20)
(-4.37839 0.0335616 7.62709e-20)
(-4.3834 0.0175724 0)
(-4.38484 0.00234836 0)
(-4.38256 -0.0123975 0)
(-4.37649 -0.0268025 0)
(-4.3667 -0.0407817 -7.11148e-20)
(-4.35324 -0.054242 0)
(-4.33614 -0.0671719 0)
(-4.31545 -0.0795756 -6.70065e-20)
(-4.29122 -0.0914619 -6.49829e-20)
(-4.26351 -0.102838 0)
(-4.23239 -0.113709 1.24601e-19)
(-4.19794 -0.124077 -6.00491e-20)
(-4.16025 -0.133941 5.82741e-20)
(-4.11941 -0.1433 0)
(-4.07551 -0.152152 0)
(-4.02864 -0.160495 0)
(-3.97892 -0.168328 0)
(-3.92644 -0.175654 4.84511e-20)
(-3.87133 -0.182475 9.38353e-20)
(-3.81369 -0.18879 4.40896e-20)
(-3.75365 -0.194602 -4.18195e-20)
(-3.69131 -0.199918 0)
(-3.62681 -0.204744 7.55003e-20)
(-3.56026 -0.209087 7.06215e-20)
(-3.4918 -0.212957 6.56264e-20)
(-3.42154 -0.216364 -6.05156e-20)
(-3.3496 -0.21932 0)
(-3.27612 -0.221837 -7.42464e-20)
(-3.20122 -0.223928 0)
(-3.12502 -0.225608 2.01482e-20)
(-3.04764 -0.226891 1.59288e-20)
(-2.96919 -0.227795 0)
(-2.88981 -0.228336 0)
(-2.8096 -0.22853 1.54876e-20)
(-2.72868 -0.228397 0)
(-2.64715 -0.227953 3.06288e-21)
(-2.56512 -0.227217 0)
(-2.4827 -0.22621 9.8503e-21)
(-2.39999 -0.224949 3.44176e-20)
(-2.31708 -0.223453 0)
(-2.23408 -0.221743 0)
(-2.15108 -0.219837 0)
(-2.06817 -0.217752 4.44109e-20)
(-1.98545 -0.215503 0)
(-1.90303 -0.213103 5.92231e-20)
(-1.82099 -0.210554 0)
(-1.73942 -0.207841 0)
(-1.6584 -0.204936 -1.66664e-19)
(-1.57797 -0.201826 0)
(-1.49814 -0.198521 -9.91095e-20)
(-1.41891 -0.195064 0)
(-1.34032 -0.191513 -1.1638e-19)
(-1.26242 -0.187907 0)
(-1.18528 -0.184264 0)
(-1.10894 -0.180593 0)
(-1.03344 -0.176898 -4.62013e-19)
(-0.958826 -0.173188 -1.64814e-19)
(-0.885122 -0.169468 0)
(-0.812357 -0.165746 0)
(-0.740557 -0.162028 0)
(-0.669743 -0.158318 0)
(-0.599933 -0.154621 2.186e-19)
(-0.531137 -0.150943 -4.57987e-19)
(-0.463365 -0.147293 -2.42432e-19)
(-0.396625 -0.14368 5.07178e-19)
(-0.33093 -0.140109 5.32977e-19)
(-0.266285 -0.136586 2.8114e-19)
(-0.202691 -0.133114 0)
(-0.140151 -0.129692 6.15756e-19)
(-0.0786655 -0.126325 0)
(-0.0182363 -0.123014 -6.73313e-19)
(0.0411428 -0.119762 -3.45156e-19)
(0.0994852 -0.11657 0)
(0.156797 -0.113441 6.93125e-19)
(0.213084 -0.110376 3.48835e-19)
(0.268356 -0.107378 0)
(0.322623 -0.104436 3.48729e-19)
(0.375894 -0.10154 -1.05284e-18)
(0.428176 -0.0986968 0)
(0.479484 -0.0959186 0)
(0.529834 -0.0932076 0)
(0.579243 -0.0905647 0)
(0.627735 -0.0879945 -7.07764e-19)
(0.675343 -0.085504 -7.10257e-19)
(0.722089 -0.0831077 0)
(0.767941 -0.0807935 0)
(0.812883 -0.0785225 0)
(0.856968 -0.0762922 0)
(0.900238 -0.0741193 0)
(0.942709 -0.0720125 0)
(0.984396 -0.0699747 -7.14018e-19)
(1.02531 -0.0680056 -1.09024e-21)
(1.06548 -0.0661036 0)
(1.10492 -0.064267 0)
(1.14364 -0.0624937 -7.13839e-19)
(1.18168 -0.060782 0)
(1.21904 -0.0591303 7.14881e-19)
(1.25575 -0.0575373 7.14016e-19)
(1.29183 -0.0560016 0)
(1.3273 -0.0545221 0)
(1.36218 -0.0530976 -7.1454e-19)
(1.39649 -0.0517271 -1.42728e-18)
(1.43026 -0.0504096 0)
(1.4635 -0.0491441 0)
(1.49623 -0.0479297 0)
(1.52848 -0.0467655 -7.13218e-19)
(1.56028 -0.0456504 7.12834e-19)
(1.59163 -0.0445836 0)
(1.62256 -0.0435639 1.42278e-18)
(1.65309 -0.0425902 7.10368e-19)
(1.68325 -0.0416611 -1.42071e-18)
(1.71306 -0.040775 0)
(1.74253 -0.0399299 0)
(1.77169 -0.0391232 -1.41688e-18)
(1.80055 -0.0383515 -7.0815e-19)
(1.82913 -0.0376105 0)
(1.85744 -0.0368945 0)
(1.8855 -0.0361959 0)
(1.9133 -0.0355044 0)
(1.94085 -0.0348066 -1.40671e-18)
(1.96812 -0.0340839 0)
(1.9951 -0.0333115 0)
(2.02173 -0.0324549 0)
(2.04794 -0.0314662 0)
(2.0736 -0.0302771 0)
(2.09856 -0.0287866 0)
(2.12254 -0.0268432 -1.39733e-18)
(2.14521 -0.024195 0)
(2.16591 -0.0204378 0)
(2.18438 -0.0147768 -2.81599e-18)
(2.19784 -0.00589371 1.41788e-18)
(2.21254 0.00887136 -1.41609e-18)
(2.20745 0.0362691 1.41146e-18)
(0.0336533 -1.16698 0)
(0.0703453 -1.0316 3.59454e-19)
(0.0347716 -0.748609 0)
(-0.0095517 -0.508106 1.10803e-19)
(-0.0646946 -0.285378 0)
(-0.132327 -0.075764 0)
(-0.215302 0.121134 -8.28528e-20)
(-0.315999 0.304577 0)
(-0.43654 0.474103 0)
(-0.579515 0.630236 0)
(-0.748771 0.775464 0)
(-0.94954 0.91586 0)
(-1.18456 1.0596 2.04499e-19)
(-1.44838 1.21024 9.25604e-20)
(-1.72661 1.36166 -8.37834e-20)
(-2.00085 1.50054 0)
(-2.25526 1.61293 0)
(-2.4797 1.68941 0)
(-2.66933 1.72618 0)
(-2.82272 1.72453 0)
(-2.94235 1.68828 6.01761e-20)
(-3.03375 1.62262 5.88527e-20)
(-3.103 1.53435 -5.79921e-20)
(-3.15647 1.43112 5.76832e-20)
(-3.19955 1.31967 0)
(-3.23661 1.20542 0)
(-3.27113 1.09277 5.5824e-20)
(-3.30548 0.985007 0)
(-3.34096 0.884278 0)
(-3.37808 0.79164 5.86781e-20)
(-3.41685 0.707341 6.14998e-20)
(-3.45694 0.631163 6.22123e-20)
(-3.4978 0.562576 0)
(-3.53883 0.500886 0)
(-3.5794 0.445333 -6.40258e-20)
(-3.61897 0.395158 0)
(-3.65703 0.349651 0)
(-3.69316 0.308165 6.43016e-20)
(-3.72703 0.270135 -6.60242e-20)
(-3.75835 0.235072 6.60357e-20)
(-3.78689 0.202559 0)
(-3.81248 0.172244 0)
(-3.83496 0.143831 1.3001e-19)
(-3.8542 0.117068 0)
(-3.8701 0.0917419 1.28625e-19)
(-3.88255 0.0676766 1.91037e-19)
(-3.89149 0.0447272 -1.89397e-19)
(-3.89685 0.022773 1.25332e-19)
(-3.89858 0.001697 0)
(-3.89668 -0.0186171 0)
(-3.89119 -0.0382486 1.19885e-19)
(-3.88216 -0.0572172 5.84132e-20)
(-3.86963 -0.075519 0)
(-3.85363 -0.0931531 0)
(-3.8342 -0.110119 5.491e-20)
(-3.81139 -0.126416 1.08271e-19)
(-3.78525 -0.142043 0)
(-3.75584 -0.156998 -1.01824e-19)
(-3.72324 -0.171276 9.9996e-20)
(-3.68752 -0.184873 -9.70266e-20)
(-3.64876 -0.197785 0)
(-3.60705 -0.210007 0)
(-3.56249 -0.221531 0)
(-3.51516 -0.232357 0)
(-3.46518 -0.242489 0)
(-3.41265 -0.251927 -7.59724e-20)
(-3.35767 -0.26067 0)
(-3.30037 -0.268723 0)
(-3.24084 -0.276092 0)
(-3.17922 -0.282787 -1.22745e-19)
(-3.11562 -0.288819 -5.67693e-20)
(-3.05015 -0.294198 -5.26715e-20)
(-2.98295 -0.298939 9.81835e-20)
(-2.91412 -0.303058 -4.54371e-20)
(-2.84379 -0.306571 3.98899e-20)
(-2.77208 -0.309497 0)
(-2.69911 -0.311855 -3.09743e-20)
(-2.62499 -0.313666 0)
(-2.54984 -0.314952 0)
(-2.47378 -0.315734 0)
(-2.39692 -0.316037 -2.56891e-20)
(-2.31936 -0.315884 8.58767e-21)
(-2.24122 -0.315298 4.87277e-21)
(-2.16259 -0.314305 -2.76316e-21)
(-2.08359 -0.312929 -2.0668e-20)