/*--------------------------------*- C++ -*----------------------------------*\
  =========                 |
  \\      /  F ield         | OpenFOAM: The Open Source CFD Toolbox
   \\    /   O peration     | Website:  https://openfoam.org
    \\  /    A nd           | Version:  8
     \\/     M anipulation  |
\*---------------------------------------------------------------------------*/
FoamFile
{
    version     2.0;
    format      ascii;
    class       volScalarField;
    location    "1300";
    object      k;
}
// * * * * * * * * * * * * * * * * * * * * * * * * * * * * * * * * * * * * * //

dimensions      [0 2 -2 0 0 0 0];

internalField   nonuniform List<scalar> 
12225
(
1.12702
2.18636
3.41878
2.61612
2.33412
1.74756
2.50654
2.23201
1.74548
1.81697
1.38948
2.20274
2.64966
2.10255
1.74244
2.3483
2.2422
2.669
0.549558
0.567302
0.676758
0.700895
0.731837
0.704433
0.734232
0.76351
0.78471
0.791579
0.785977
0.811794
0.849972
0.88144
0.876924
0.921253
0.938933
0.955171
0.541383
0.51921
0.511644
0.508372
0.501203
0.49617
0.492907
0.496098
0.495864
0.489697
0.478749
0.471854
0.465524
0.463691
0.463593
0.464692
0.468142
0.474519
0.548015
0.536607
0.524218
0.513756
0.509818
0.506121
0.505811
0.502226
0.493835
0.485762
0.47446
0.466303
0.456528
0.450499
0.443242
0.439405
0.434242
0.432271
0.548561
0.543157
0.53484
0.528685
0.524696
0.521245
0.51767
0.513413
0.507109
0.500838
0.493603
0.487444
0.48129
0.476472
0.471988
0.468558
0.465541
0.462934
0.548657
0.544564
0.539252
0.534819
0.531183
0.527852
0.524342
0.520482
0.515867
0.511154
0.506302
0.501825
0.497714
0.494087
0.490967
0.488121
0.48576
0.483338
0.548546
0.544922
0.541041
0.537462
0.534208
0.531088
0.527905
0.524559
0.520969
0.517312
0.513719
0.510309
0.507205
0.504339
0.501818
0.49942
0.497318
0.495176
0.548415
0.545004
0.541591
0.538364
0.53534
0.532394
0.529459
0.526463
0.523398
0.52032
0.517335
0.51448
0.511847
0.509374
0.507135
0.504988
0.503036
0.501081
0.548343
0.54501
0.541783
0.538718
0.535816
0.533002
0.530242
0.52749
0.524751
0.522038
0.519418
0.516904
0.51455
0.51232
0.510256
0.508273
0.506435
0.504615
0.548305
0.544992
0.541835
0.538839
0.536001
0.533275
0.530639
0.528061
0.525547
0.523092
0.520728
0.518458
0.516308
0.514258
0.51233
0.510479
0.508741
0.507035
0.54829
0.544972
0.541829
0.53885
0.53603
0.533343
0.530771
0.528295
0.525911
0.523613
0.521408
0.519296
0.517284
0.515361
0.513535
0.511784
0.510124
0.508512
0.548284
0.54496
0.541812
0.53883
0.536005
0.533324
0.530772
0.528336
0.52601
0.523786
0.521662
0.519632
0.517696
0.515846
0.514084
0.512396
0.510788
0.509241
0.548281
0.544952
0.541798
0.538809
0.535977
0.533288
0.530735
0.528306
0.525995
0.523793
0.521695
0.519695
0.517788
0.515968
0.514233
0.512575
0.510992
0.509479
0.548279
0.544947
0.541788
0.538794
0.535954
0.533259
0.530699
0.528266
0.525952
0.523751
0.521655
0.519658
0.517755
0.515941
0.51421
0.512559
0.510983
0.509478
0.548278
0.544943
0.541781
0.538783
0.535938
0.533237
0.530672
0.528233
0.525914
0.523708
0.521607
0.519607
0.5177
0.515882
0.514149
0.512495
0.510917
0.50941
0.548278
0.544941
0.541777
0.538776
0.535927
0.533222
0.530653
0.52821
0.525887
0.523676
0.521571
0.519566
0.517655
0.515833
0.514095
0.512438
0.510856
0.509346
0.548277
0.54494
0.541774
0.538771
0.53592
0.533213
0.530641
0.528196
0.52587
0.523656
0.521547
0.519539
0.517625
0.5158
0.51406
0.512399
0.510814
0.509302
0.548278
0.54494
0.541774
0.538769
0.535919
0.53321
0.530638
0.52819
0.525863
0.523648
0.521538
0.519528
0.517613
0.515786
0.514045
0.512383
0.510797
0.509283
0.548277
0.544941
0.541775
0.538772
0.535921
0.533214
0.530641
0.528195
0.525868
0.523653
0.521543
0.519533
0.517618
0.515792
0.51405
0.512388
0.510802
0.509288
0.548278
0.544942
0.541779
0.538777
0.535928
0.533222
0.530652
0.528207
0.525881
0.523668
0.521559
0.519551
0.517636
0.515811
0.51407
0.512409
0.510823
0.509308
0.548278
0.544945
0.541783
0.538785
0.535939
0.533237
0.530669
0.528226
0.525901
0.523688
0.52158
0.519572
0.517658
0.515833
0.514091
0.512427
0.510835
0.509311
0.548281
0.544949
0.541789
0.538797
0.535956
0.533258
0.530688
0.52824
0.525906
0.523681
0.521563
0.519546
0.517625
0.515791
0.514036
0.51235
0.510727
0.509158
0.54829
0.544947
0.541788
0.538805
0.535973
0.533268
0.530671
0.528179
0.525791
0.523511
0.521342
0.519283
0.517322
0.515445
0.513637
0.511872
0.510147
0.508446
0.548314
0.544896
0.541737
0.538778
0.535941
0.533179
0.530463
0.527818
0.525254
0.522807
0.520498
0.518316
0.516249
0.514254
0.512306
0.510345
0.508394
0.506403
0.54834
0.544575
0.541448
0.53856
0.535693
0.532753
0.52973
0.526706
0.523731
0.520938
0.518326
0.515908
0.513645
0.511413
0.509211
0.506895
0.504506
0.501985
0.548118
0.543358
0.540509
0.537879
0.534976
0.531705
0.528041
0.524248
0.520501
0.517025
0.513857
0.511021
0.5084
0.505831
0.503193
0.500286
0.49707
0.493617
0.545577
0.540358
0.538383
0.536438
0.533732
0.530056
0.525169
0.519951
0.514822
0.509985
0.505697
0.502151
0.498995
0.49593
0.492768
0.489062
0.484789
0.480174
0.542631
0.535422
0.536836
0.531858
0.533582
0.531364
0.524998
0.517952
0.510887
0.504
0.498328
0.494789
0.491902
0.489899
0.488575
0.486215
0.483568
0.480072
0.545112
0.531682
0.551253
0.575197
0.598098
0.610553
0.618129
0.622639
0.626228
0.633741
0.64111
0.652259
0.663801
0.67442
0.689245
0.697964
0.713345
0.722384
0.99707
1.24588
1.43358
1.53496
1.58801
1.59134
1.5839
1.56417
1.53475
1.50323
1.47208
1.44259
1.41551
1.39065
1.36848
1.34836
1.33039
1.31449
2.00306e-08
4.92817e-07
2.5051e-06
9.82015e-06
3.26427e-05
9.85381e-05
0.000256203
0.000506331
0.000816949
0.00114333
0.00143601
0.0016627
0.00181442
0.0018724
0.00184983
0.00177672
0.00163792
0.00140368
0.00119918
0.00102188
0.000853184
0.000688603
0.000529039
0.000380576
0.000247983
0.000144945
7.65798e-05
3.82861e-05
1.93587e-05
1.05205e-05
6.40564e-06
4.92159e-06
5.71031e-06
1.22354e-05
2.73351e-05
0.00016053
0.000362746
0.000787678
0.00116562
0.00124314
0.00114262
0.000911894
0.000773633
0.000779387
0.000866073
0.00117339
0.00160272
0.00332012
0.0076874
0.0240197
0.0586515
0.0909832
0.106862
0.114656
0.133102
0.134428
0.134086
0.148534
0.16843
0.141209
0.148835
0.156274
0.169771
0.178157
0.188205
0.196447
0.205493
0.213662
0.222126
0.230122
0.238211
0.246029
0.253849
0.261499
0.26911
0.276602
0.284033
0.291369
0.298634
0.305811
0.31291
0.319923
0.32685
0.333687
0.340431
0.347078
0.353622
0.360058
0.366379
0.372577
0.378643
0.384568
0.390341
0.395951
0.401388
0.406645
0.411719
0.416619
0.421375
0.42605
0.430581
0.434958
0.439195
0.443281
0.447219
0.451003
0.45463
0.458098
0.461403
0.464542
0.467513
0.470314
0.472941
0.475395
0.47767
0.479769
0.481687
0.483425
0.48498
0.486355
0.487545
0.488554
0.489379
0.490021
0.490479
0.490753
0.490843
0.490795
0.490658
0.490182
0.489746
0.488858
0.488055
0.487066
0.486015
0.484763
0.483199
0.481521
0.479665
0.477679
0.475549
0.473291
0.470903
0.468401
0.465786
0.463076
0.460293
0.457345
0.45437
0.451329
0.448145
0.44499
0.441643
0.438366
0.434895
0.431536
0.427988
0.424544
0.421
0.417489
0.413963
0.410442
0.406926
0.403421
0.399932
0.396467
0.393036
0.389645
0.386306
0.383016
0.379782
0.376596
0.373443
0.370291
0.367098
0.363785
0.360221
0.356044
0.350656
0.333417
8.7346e-08
2.47056e-06
1.66317e-05
7.14798e-05
0.000267278
0.000767881
0.00179717
0.00325481
0.00494185
0.00667288
0.00825077
0.00954456
0.010494
0.0110993
0.0113771
0.0113365
0.0111509
0.0107883
0.010175
0.00933408
0.00827001
0.00703676
0.0056858
0.00432282
0.002998
0.00198388
0.00125734
0.000776868
0.000470713
0.000288292
0.000185139
0.000138297
0.000109076
0.000183904
0.00025177
0.00166728
0.00367939
0.00743029
0.0105908
0.0122288
0.012167
0.0118045
0.011979
0.0137059
0.0179186
0.0240362
0.0354148
0.0545457
0.0807158
0.105916
0.130145
0.148512
0.163233
0.177174
0.194702
0.20974
0.228104
0.246806
0.265754
0.283557
0.304345
0.324647
0.345664
0.365417
0.385422
0.404796
0.424102
0.442996
0.461769
0.480283
0.498673
0.516897
0.535018
0.553027
0.570952
0.588792
0.606558
0.62425
0.641869
0.659412
0.676876
0.694255
0.711544
0.728735
0.745819
0.762786
0.779626
0.796327
0.812876
0.829257
0.845456
0.861452
0.877226
0.892755
0.908012
0.922969
0.937592
0.951846
0.965689
0.979093
0.992218
1.00508
1.01767
1.02998
1.042
1.05371
1.06512
1.0762
1.08695
1.09735
1.10741
1.1171
1.12642
1.13536
1.14391
1.15206
1.15981
1.16715
1.17407
1.18056
1.18663
1.19225
1.19744
1.20218
1.20647
1.21031
1.21369
1.21663
1.21912
1.22115
1.22276
1.22374
1.22448
1.22477
1.22491
1.22476
1.22434
1.22352
1.22228
1.22064
1.21861
1.21618
1.21338
1.21022
1.20671
1.20287
1.19868
1.19415
1.18938
1.18428
1.17892
1.17324
1.16731
1.16109
1.15466
1.14796
1.14111
1.13403
1.12681
1.11944
1.11194
1.10433
1.0966
1.08877
1.08086
1.07287
1.06484
1.05677
1.04869
1.04061
1.03253
1.02445
1.01635
1.00817
0.999852
0.991303
0.982263
0.97242
0.959891
0.930938
2.18092e-07
6.49413e-06
4.96396e-05
0.000231116
0.000826425
0.00208958
0.00424679
0.00673389
0.00921658
0.0114609
0.01333
0.0147661
0.0157707
0.0163687
0.0166225
0.0165827
0.0163883
0.0160071
0.0154478
0.014751
0.0139116
0.0129219
0.0117623
0.0104375
0.00895925
0.00728182
0.0055542
0.00401485
0.00268779
0.00178859
0.00122984
0.000931319
0.000700386
0.00106729
0.00181833
0.00709603
0.0151942
0.0237632
0.0300297
0.0336042
0.0351866
0.0384361
0.0473851
0.0641985
0.0822793
0.101253
0.122644
0.144275
0.164811
0.186476
0.20773
0.22957
0.253174
0.280063
0.308631
0.337669
0.367437
0.396987
0.42666
0.455975
0.485095
0.513628
0.541421
0.568529
0.595066
0.621038
0.64656
0.671673
0.696464
0.720968
0.745244
0.769321
0.793233
0.817
0.840639
0.86416
0.887569
0.910869
0.934058
0.957134
0.980092
1.00292
1.02562
1.04818
1.07058
1.09281
1.11487
1.13673
1.15839
1.17983
1.20103
1.22198
1.24266
1.26307
1.28318
1.30299
1.32248
1.34165
1.3605
1.37903
1.39722
1.41507
1.43254
1.44962
1.4663
1.48257
1.4984
1.51379
1.52871
1.54317
1.55713
1.5706
1.58356
1.59599
1.60789
1.61925
1.63005
1.64028
1.64995
1.65903
1.66752
1.67542
1.68272
1.68941
1.69549
1.70096
1.70581
1.71005
1.71368
1.71669
1.71909
1.72086
1.72205
1.72261
1.7228
1.72244
1.72149
1.71999
1.71792
1.71529
1.71212
1.70841
1.70419
1.69945
1.69423
1.68854
1.68236
1.67575
1.66873
1.66126
1.65343
1.64516
1.63655
1.62751
1.61819
1.60848
1.59854
1.58829
1.57782
1.56713
1.55626
1.54521
1.534
1.52265
1.51117
1.49959
1.48792
1.47621
1.46446
1.45271
1.44097
1.42923
1.41749
1.40572
1.39388
1.3819
1.36958
1.35673
1.34143
1.31455
8.4196e-07
2.53099e-05
0.000199942
0.000801895
0.00240481
0.00558055
0.00935428
0.0130108
0.0161775
0.018676
0.0204734
0.0216082
0.0222011
0.0222996
0.0221592
0.021785
0.0211973
0.0204919
0.0197015
0.0188408
0.0179118
0.0169089
0.0158148
0.0146068
0.0132668
0.0117715
0.0101427
0.00845033
0.00685671
0.00531124
0.00416831
0.00310706
0.00327224
0.00517646
0.0127018
0.028175
0.0428382
0.0544378
0.0634354
0.0721951
0.0833192
0.0975966
0.113802
0.129748
0.146384
0.164587
0.185721
0.208019
0.232674
0.259452
0.288054
0.3187
0.351214
0.385259
0.419917
0.454789
0.489669
0.524266
0.558495
0.592211
0.625352
0.657887
0.689726
0.720985
0.751698
0.781936
0.811771
0.841262
0.870465
0.899427
0.928189
0.956782
0.985232
1.01356
1.04176
1.06986
1.09786
1.12575
1.15352
1.18118
1.20871
1.2361
1.26334
1.29042
1.31732
1.34403
1.37054
1.39683
1.42289
1.44869
1.47423
1.49949
1.52446
1.54912
1.57346
1.59748
1.62115
1.64446
1.6674
1.68995
1.71208
1.73378
1.75503
1.7758
1.79607
1.81582
1.83505
1.85372
1.87183
1.88936
1.90628
1.9226
1.93828
1.95332
1.96771
1.98143
1.99446
2.00681
2.01845
2.02938
2.03959
2.04907
2.05782
2.06582
2.07308
2.07959
2.08536
2.09037
2.09463
2.09814
2.1009
2.10292
2.10413
2.10462
2.10459
2.10379
2.10228
2.10009
2.09721
2.09365
2.08943
2.08457
2.07906
2.07295
2.06623
2.05893
2.05105
2.04264
2.03371
2.02426
2.01434
2.00391
1.99304
1.98169
1.96995
1.95779
1.94529
1.93244
1.91931
1.9059
1.89227
1.87841
1.86437
1.85015
1.83577
1.82126
1.80665
1.79196
1.77725
1.76252
1.74782
1.73314
1.71849
1.70388
1.68928
1.67468
1.65995
1.64497
1.62809
1.60329
2.85379e-06
8.55596e-05
0.000635706
0.00246219
0.0066768
0.0123335
0.0175606
0.0217216
0.0246617
0.0264856
0.0274192
0.0276578
0.0274903
0.0270204
0.0262856
0.0254272
0.0244994
0.0235387
0.0225671
0.0215916
0.0206079
0.0196048
0.0185637
0.0174601
0.0162669
0.0149544
0.0135234
0.0120237
0.0105656
0.00902102
0.00766636
0.00817317
0.0126533
0.0260946
0.0474688
0.0676906
0.0843419
0.097394
0.10858
0.119743
0.131713
0.144758
0.158888
0.175288
0.194994
0.217604
0.243208
0.271369
0.301908
0.334319
0.368301
0.403595
0.439852
0.476723
0.513844
0.551039
0.588175
0.625123
0.661784
0.698084
0.733975
0.769431
0.804426
0.839003
0.873198
0.907053
0.940616
0.97393
1.00704
1.03997
1.07277
1.10544
1.13802
1.17051
1.20292
1.23525
1.26749
1.29964
1.33168
1.36362
1.39542
1.42709
1.4586
1.48993
1.52108
1.55202
1.58274
1.61321
1.64343
1.67337
1.70301
1.73235
1.76136
1.79003
1.81833
1.84626
1.8738
1.90091
1.92759
1.9538
1.97952
2.00472
2.02939
2.05351
2.07703
2.09996
2.12226
2.14391
2.1649
2.1852
2.2048
2.22367
2.24181
2.2592
2.27582
2.29165
2.30668
2.32091
2.33431
2.34687
2.35859
2.36946
2.37947
2.38861
2.39688
2.40427
2.41079
2.41643
2.42118
2.42506
2.42807
2.4302
2.43135
2.43173
2.43138
2.43016
2.4281
2.42523
2.42157
2.41713
2.41192
2.40595
2.39925
2.39184
2.38372
2.37493
2.36548
2.3554
2.34472
2.33343
2.32159
2.30917
2.29624
2.28277
2.26883
2.25441
2.23959
2.22438
2.20883
2.19296
2.17681
2.16042
2.1438
2.12697
2.10996
2.0928
2.07552
2.05816
2.04075
2.02334
2.00596
1.98863
1.97137
1.9542
1.93713
1.92019
1.90332
1.88644
1.86817
1.84415
9.1816e-06
0.000268311
0.00190814
0.00672408
0.0149553
0.0221093
0.0271595
0.0302487
0.0318475
0.0324264
0.0323333
0.031857
0.0309865
0.0299323
0.0287829
0.0276035
0.0264388
0.0253145
0.0242425
0.0232205
0.0222376
0.0212761
0.02031
0.0193074
0.0182319
0.0170178
0.0156067
0.0139723
0.0124243
0.0124946
0.0151336
0.0246616
0.0442547
0.0693476
0.0927711
0.111511
0.12513
0.13522
0.144204
0.153867
0.165103
0.179558
0.197481
0.218789
0.243691
0.271623
0.302093
0.334495
0.368416
0.403524
0.43959
0.476417
0.513828
0.551667
0.589797
0.62813
0.666581
0.705066
0.743502
0.781818
0.819967
0.857914
0.89564
0.933149
0.970455
1.00758
1.04455
1.08139
1.11813
1.15479
1.1914
1.22797
1.2645
1.301
1.33747
1.3739
1.41028
1.4466
1.48283
1.51896
1.55498
1.59086
1.62658
1.66212
1.69746
1.73258
1.76746
1.80208
1.83641
1.87044
1.90414
1.9375
1.97049
2.0031
2.0353
2.06706
2.09837
2.1292
2.15951
2.18929
2.21851
2.24713
2.27514
2.30251
2.32921
2.35522
2.38051
2.40506
2.42885
2.45185
2.47404
2.49541
2.51594
2.5356
2.55438
2.57225
2.58922
2.60526
2.62035
2.63449
2.64767
2.65987
2.67108
2.6813
2.69053
2.69875
2.70597
2.71218
2.71739
2.7216
2.7248
2.72699
2.72806
2.7283
2.72762
2.72595
2.72334
2.71981
2.71537
2.71005
2.70385
2.6968
2.68892
2.68023
2.67075
2.6605
2.64951
2.63781
2.62541
2.61234
2.59864
2.5843
2.56937
2.55386
2.53779
2.52122
2.50417
2.48668
2.46881
2.45058
2.43203
2.4132
2.39412
2.3748
2.35527
2.33558
2.31574
2.29582
2.27585
2.25587
2.23594
2.21607
2.19631
2.1767
2.15727
2.13807
2.1191
2.10031
2.08053
2.05629
2.97136e-05
0.000809744
0.00517573
0.0156486
0.0253982
0.03157
0.0349371
0.0365024
0.0369225
0.0366535
0.0358653
0.0346835
0.0333018
0.0318291
0.0303495
0.0289218
0.0275831
0.0263499
0.025223
0.0241896
0.0232303
0.0223139
0.0214057
0.0204587
0.019541
0.0187235
0.0182323
0.0186051
0.0211242
0.0279684
0.0423755
0.0652153
0.0902121
0.113281
0.13144
0.143963
0.152678
0.160204
0.168636
0.180339
0.19571
0.214901
0.237868
0.264194
0.293399
0.324723
0.357615
0.391675
0.426674
0.462463
0.498944
0.536051
0.573726
0.611916
0.65057
0.689634
0.729045
0.768724
0.808606
0.848628
0.888735
0.928885
0.969048
1.00921
1.04936
1.08951
1.12967
1.16985
1.21006
1.25031
1.29062
1.33099
1.37141
1.41188
1.45239
1.49292
1.53344
1.57394
1.61439
1.65476
1.69502
1.73516
1.77514
1.81493
1.85452
1.89387
1.93297
1.97177
2.01027
2.04843
2.08623
2.12364
2.16065
2.19722
2.23333
2.26895
2.30406
2.33861
2.37259
2.40595
2.43868
2.47074
2.50211
2.53275
2.56263
2.59173
2.62002
2.64747
2.67406
2.69976
2.72455
2.74841
2.77131
2.79323
2.81416
2.83408
2.85296
2.8708
2.88758
2.90327
2.91788
2.93139
2.94379
2.95508
2.96523
2.97426
2.98216
2.98892
2.99455
2.99905
3.00243
3.00464
3.00563
3.00569
3.00465
3.00252
2.99934
2.99512
2.98989
2.98366
2.97647
2.96832
2.95924
2.94926
2.9384
2.92669
2.91416
2.90082
2.88672
2.87187
2.85631
2.84007
2.82315
2.8056
2.78744
2.76872
2.74947
2.72975
2.70959
2.68903
2.66812
2.6469
2.62539
2.60363
2.58163
2.55944
2.5371
2.51467
2.49218
2.46969
2.44724
2.42489
2.40267
2.38064
2.35886
2.33741
2.3163
2.29552
2.27401
2.24884
8.99052e-05
0.00223597
0.0122607
0.0261519
0.0345729
0.0389812
0.0410235
0.0415909
0.0412453
0.0402297
0.0387333
0.036986
0.0351304
0.0332784
0.0315128
0.0298872
0.0284284
0.0271402
0.0260118
0.0250206
0.0241389
0.02333
0.0225116
0.0217603
0.0212686
0.021613
0.023871
0.0299409
0.0423656
0.0614413
0.0841424
0.106824
0.127339
0.143595
0.154941
0.162872
0.170161
0.179362
0.19185
0.208233
0.228507
0.252367
0.279335
0.30875
0.339977
0.372459
0.405885
0.440096
0.475019
0.510625
0.546908
0.583868
0.621509
0.659827
0.698798
0.738381
0.778529
0.819186
0.860294
0.901792
0.943626
0.98575
1.02812
1.07072
1.11353
1.15653
1.19972
1.24311
1.28669
1.33046
1.37443
1.41857
1.46289
1.50735
1.55194
1.59662
1.64137
1.68614
1.73089
1.77559
1.82021
1.8647
1.90904
1.95319
1.99712
2.04081
2.08421
2.1273
2.17004
2.21241
2.25439
2.29593
2.33702
2.37763
2.41771
2.45725
2.4962
2.53454
2.57223
2.60923
2.64552
2.68106
2.71581
2.74975
2.78285
2.81507
2.84637
2.87674
2.90614
2.93455
2.96194
2.98828
3.01356
3.03775
3.06082
3.08276
3.10355
3.12317
3.1416
3.15884
3.17486
3.18965
3.20321
3.21552
3.22658
3.23638
3.24492
3.2522
3.25821
3.26297
3.26647
3.26867
3.26957
3.26937
3.26795
3.26533
3.26153
3.25659
3.25052
3.24336
3.23512
3.22584
3.21553
3.20423
3.19196
3.17876
3.16465
3.14967
3.13384
3.1172
3.09977
3.0816
3.0627
3.0431
3.02284
3.00197
2.98054
2.95858
2.93615
2.91328
2.89003
2.86644
2.84252
2.81833
2.79388
2.76922
2.74441
2.71948
2.69449
2.66951
2.64458
2.61976
2.59509
2.57065
2.54651
2.52276
2.49944
2.47654
2.45312
2.4265
0.000234487
0.00527895
0.0221715
0.0354901
0.0422693
0.0454363
0.0465381
0.0463343
0.0452664
0.0435446
0.0414569
0.0391929
0.0369097
0.0347302
0.0327419
0.0309974
0.0295222
0.0283214
0.0273881
0.0267008
0.0262984
0.0262743
0.0267887
0.0281648
0.0309275
0.0361335
0.0456921
0.0601937
0.0781222
0.0978251
0.11736
0.134761
0.14886
0.159556
0.168032
0.176416
0.186753
0.200319
0.217599
0.238509
0.262658
0.289503
0.318456
0.348934
0.380486
0.412835
0.445869
0.479565
0.513943
0.549037
0.584887
0.621535
0.65901
0.697321
0.736462
0.776416
0.817151
0.858624
0.900786
0.943585
0.986969
1.03089
1.07531
1.1202
1.16552
1.21125
1.25739
1.30392
1.35083
1.39811
1.44573
1.49369
1.54195
1.59048
1.63924
1.68818
1.73726
1.78641
1.8356
1.88476
1.93386
1.98284
2.03166
2.08029
2.12869
2.17681
2.22463
2.2721
2.31919
2.36586
2.41209
2.45785
2.50309
2.54779
2.59191
2.63542
2.67828
2.72044
2.76189
2.80256
2.84243
2.88147
2.91962
2.95687
2.99318
3.02851
3.06283
3.0961
3.12829
3.15938
3.18934
3.21814
3.24575
3.27216
3.29733
3.32125
3.3439
3.36525
3.38529
3.404
3.42138
3.4374
3.45206
3.46534
3.47724
3.48775
3.49687
3.50459
3.51092
3.51587
3.51943
3.52156
3.52231
3.52179
3.51992
3.51674
3.51227
3.50655
3.49959
3.49143
3.4821
3.47162
3.46004
3.44737
3.43365
3.41892
3.40321
3.38654
3.36896
3.3505
3.33119
3.31107
3.29016
3.26851
3.24615
3.22313
3.19951
3.17533
3.15064
3.12548
3.0999
3.07395
3.04765
3.02104
2.99416
2.96706
2.93978
2.91239
2.88493
2.85748
2.83008
2.8028
2.77569
2.74883
2.72231
2.69623
2.67063
2.64554
2.62006
2.59178
0.000522126
0.0106221
0.0320608
0.043848
0.0493783
0.0516692
0.0520399
0.0511671
0.0494095
0.0470925
0.044468
0.0417533
0.0391294
0.0367357
0.0346691
0.0329877
0.0317171
0.0308435
0.0304184
0.0303454
0.030861
0.0322935
0.0353046
0.0406704
0.0490762
0.0607412
0.0749343
0.0907505
0.107366
0.123541
0.13814
0.150562
0.160979
0.170296
0.180038
0.191708
0.206337
0.224276
0.245398
0.269311
0.295524
0.323527
0.352856
0.383135
0.414131
0.445748
0.477985
0.510889
0.544526
0.578968
0.614283
0.650526
0.687735
0.725942
0.765156
0.805378
0.846589
0.888763
0.931861
0.975842
1.02066
1.06627
1.11264
1.15973
1.2075
1.25593
1.30499
1.35466
1.40492
1.45574
1.5071
1.55895
1.61125
1.66395
1.717
1.77033
1.82387
1.87756
1.93131
1.98508
2.03878
2.09238
2.14582
2.19904
2.25201
2.30468
2.35701
2.40895
2.46046
2.51152
2.56207
2.61209
2.66154
2.71037
2.75856
2.80606
2.85283
2.89883
2.94402
2.98835
3.03179
3.07429
3.11582
3.15633
3.1958
3.23418
3.27144
3.30754
3.34245
3.37614
3.40858
3.43974
3.46961
3.49814
3.52531
3.55111
3.57551
3.59849
3.62003
3.64012
3.65874
3.67588
3.69153
3.70568
3.71832
3.72943
3.73903
3.74709
3.75364
3.75867
3.76219
3.76416
3.76467
3.76373
3.76133
3.75751
3.75228
3.74569
3.73776
3.72853
3.71803
3.7063
3.69337
3.67927
3.66405
3.64774
3.63038
3.612
3.59264
3.57233
3.55111
3.52902
3.50609
3.48236
3.45789
3.43273
3.40693
3.38054
3.35361
3.32618
3.2983
3.27001
3.24135
3.21235
3.18307
3.15355
3.12384
3.09402
3.06412
3.03422
3.00438
2.97466
2.94512
2.91585
2.88694
2.8585
2.83059
2.80324
2.77563
2.74567
0.00098915
0.0181466
0.0406013
0.0514274
0.0562765
0.0579964
0.0578387
0.0563985
0.0541069
0.0513044
0.0482819
0.04529
0.0425374
0.0401835
0.0383475
0.0371236
0.0366115
0.0366349
0.03745
0.0392804
0.0424561
0.0473173
0.0541214
0.0630053
0.0738695
0.0863623
0.099863
0.113633
0.126998
0.139425
0.150713
0.161072
0.171239
0.18227
0.195188
0.210668
0.228953
0.249903
0.273186
0.29839
0.325117
0.353004
0.381764
0.411202
0.441229
0.471847
0.503111
0.535105
0.567923
0.601655
0.636377
0.672158
0.709053
0.747106
0.786345
0.826783
0.868419
0.911242
0.955229
1.00035
1.04657
1.09385
1.14216
1.19145
1.2417
1.29286
1.3449
1.39779
1.4515
1.50598
1.56119
1.61707
1.67355
1.73057
1.78804
1.8459
1.90405
1.9624
2.02086
2.07936
2.1378
2.19613
2.25428
2.3122
2.36984
2.42713
2.48404
2.5405
2.59647
2.65193
2.70682
2.76111
2.81475
2.8677
2.91992
2.97137
3.022
3.07177
3.12063
3.16853
3.21543
3.26129
3.30606
3.34971
3.3922
3.4335
3.47355
3.51232
3.54979
3.58591
3.62066
3.65401
3.68594
3.71642
3.74542
3.77292
3.79889
3.82332
3.84618
3.86746
3.88715
3.90524
3.92171
3.93656
3.94977
3.96133
3.97124
3.9795
3.98611
3.99108
3.99442
3.99611
3.99623
3.99476
3.9917
3.98712
3.98102
3.97346
3.96447
3.95408
3.94233
3.92926
3.91491
3.89932
3.88253
3.86459
3.84554
3.82541
3.80423
3.78205
3.75891
3.73483
3.70987
3.68408
3.6575
3.63021
3.60226
3.57369
3.54456
3.51489
3.48475
3.45417
3.42319
3.39185
3.36021
3.32832
3.29625
3.26404
3.23176
3.19947
3.16724
3.13511
3.10318
3.07152
3.04024
3.00945
2.97921
2.94958
2.91977
2.88799
0.00157205
0.0257265
0.048857
0.0591936
0.0635484
0.0648161
0.0642327
0.0623571
0.0596753
0.0565858
0.0534288
0.0504891
0.0480058
0.0461577
0.045205
0.0449968
0.0456663
0.0473175
0.0500976
0.0541543
0.0596057
0.0665078
0.0748235
0.0844212
0.0950366
0.106279
0.11773
0.129038
0.140012
0.150633
0.161154
0.172121
0.18423
0.198096
0.214121
0.23242
0.252876
0.275224
0.299156
0.32437
0.350605
0.377649
0.405357
0.433652
0.462531
0.492045
0.52228
0.553343
0.585335
0.618354
0.652491
0.687827
0.724429
0.762355
0.801647
0.842335
0.884436
0.927955
0.972888
1.01922
1.06693
1.11598
1.16633
1.21796
1.27082
1.32486
1.38004
1.43633
1.49366
1.55199
1.61124
1.67134
1.73219
1.7937
1.85577
1.91831
1.9812
2.04435
2.10763
2.17095
2.23421
2.29735
2.36028
2.42295
2.48527
2.5472
2.60867
2.66962
2.73002
2.78981
2.84897
2.90745
2.96518
3.02214
3.07826
3.13351
3.18784
3.2412
3.29354
3.34482
3.39497
3.44396
3.49174
3.53828
3.58354
3.62748
3.67005
3.71123
3.75097
3.78924
3.82602
3.86127
3.89498
3.92712
3.95765
3.98657
4.01383
4.03943
4.06334
4.08554
4.10604
4.12482
4.14187
4.15716
4.17071
4.18249
4.19249
4.20072
4.20719
4.2119
4.21487
4.21611
4.21566
4.21351
4.20964
4.20415
4.19706
4.1884
4.17822
4.16656
4.15346
4.13896
4.12311
4.10595
4.08754
4.06791
4.04712
4.02521
4.0022
3.97815
3.95308
3.92702
3.90004
3.8722
3.84356
3.81418
3.78412
3.75343
3.72215
3.69033
3.658
3.6252
3.59198
3.55837
3.52445
3.49028
3.45592
3.42143
3.38685
3.35226
3.3177
3.28325
3.24899
3.215
3.18141
3.1483
3.11576
3.08385
3.05186
3.01821
0.002339
0.0325571
0.0564844
0.0668776
0.0710915
0.0721379
0.0712668
0.0690789
0.0661751
0.0630483
0.0600957
0.057617
0.0558649
0.0550833
0.0550374
0.0560456
0.0580791
0.061183
0.065387
0.0706944
0.0770753
0.0844542
0.0927035
0.101656
0.111115
0.120902
0.130888
0.14102
0.151375
0.162192
0.173839
0.186721
0.201172
0.217385
0.235397
0.255099
0.276302
0.298786
0.322342
0.346789
0.371988
0.39784
0.424297
0.451355
0.479062
0.507498
0.536763
0.566968
0.598224
0.630638
0.664309
0.69933
0.735783
0.773739
0.813252
0.854365
0.897115
0.941526
0.98761
1.03537
1.08478
1.13584
1.18851
1.24275
1.29852
1.35576
1.41441
1.47442
1.5357
1.59819
1.6618
1.72639
1.79185
1.85805
1.92486
1.99217
2.05988
2.12785
2.19597
2.26411
2.33218
2.4001
2.46777
2.53513
2.60208
2.66855
2.73445
2.79974
2.86439
2.92835
2.99158
3.05402
3.11562
3.17632
3.23608
3.29483
3.35255
3.40918
3.46466
3.51895
3.57198
3.62372
3.67412
3.72314
3.77076
3.81692
3.8616
3.90475
3.94634
3.98633
4.0247
4.06143
4.09649
4.12986
4.16152
4.19144
4.21959
4.24597
4.27054
4.29329
4.31423
4.33334
4.35061
4.36603
4.37959
4.39128
4.40108
4.409
4.41506
4.41926
4.42162
4.42217
4.42096
4.41788
4.41302
4.40645
4.3982
4.3883
4.3768
4.36374
4.34918
4.33315
4.31571
4.29691
4.27681
4.25545
4.23289
4.20916
4.18433
4.15841
4.13144
4.10342
4.07446
4.04462
4.01397
3.98258
3.9505
3.91778
3.88446
3.85059
3.81619
3.78127
3.74591
3.71015
3.67408
3.63776
3.60124
3.56459
3.52785
3.49107
3.45431
3.41765
3.38117
3.34496
3.30914
3.27381
3.23904
3.20492
3.17079
3.13533
0.00323412
0.0388715
0.0642413
0.0748359
0.0789596
0.0798425
0.0787464
0.0763182
0.073278
0.070297
0.0678526
0.0662327
0.0655343
0.0655081
0.0665366
0.068575
0.0715714
0.0754922
0.0803015
0.085953
0.0923797
0.0995034
0.107241
0.115525
0.124301
0.133544
0.143282
0.153628
0.164753
0.176865
0.190171
0.204826
0.220897
0.238363
0.257135
0.277079
0.298051
0.319914
0.342556
0.365893
0.389876
0.414486
0.439739
0.46568
0.492382
0.519945
0.548477
0.57809
0.608889
0.640988
0.674496
0.709514
0.746137
0.784448
0.824521
0.866424
0.910211
0.955928
1.00361
1.05326
1.10488
1.15847
1.21398
1.27139
1.33063
1.39163
1.45431
1.51856
1.58429
1.65137
1.71968
1.78906
1.85933
1.93033
2.00191
2.07395
2.14634
2.21898
2.29175
2.36453
2.43721
2.5097
2.58192
2.65376
2.7251
2.79582
2.86584
2.93515
3.00371
3.07147
3.13838
3.20438
3.2694
3.3334
3.39631
3.45808
3.51867
3.57802
3.63609
3.69282
3.74815
3.80205
3.85446
3.90536
3.95472
4.0025
4.04866
4.09316
4.13598
4.17708
4.21644
4.25404
4.28986
4.32388
4.35609
4.38645
4.41494
4.44156
4.46628
4.48909
4.50999
4.52896
4.54601
4.56112
4.57427
4.58545
4.59467
4.60192
4.60723
4.61061
4.61207
4.61168
4.60942
4.60517
4.5991
4.59125
4.58165
4.57034
4.55737
4.54278
4.52663
4.50897
4.48986
4.46935
4.4475
4.42437
4.40001
4.37448
4.34781
4.32007
4.29125
4.26134
4.23047
4.19873
4.16619
4.1329
4.09892
4.06429
4.02907
3.99328
3.95697
3.9201
3.88275
3.84501
3.80696
3.76866
3.73017
3.69153
3.65281
3.61402
3.57523
3.53651
3.49797
3.4597
3.4218
3.38439
3.34751
3.31131
3.27513
3.238
0.00417996
0.0451639
0.0717755
0.0827037
0.0868214
0.0875756
0.0861318
0.0834089
0.0804357
0.0779215
0.0762901
0.0756029
0.0755469
0.0763774
0.0781629
0.0808415
0.0843447
0.0886191
0.0936209
0.0993138
0.105664
0.112655
0.12027
0.128515
0.137414
0.14703
0.157448
0.168763
0.181083
0.194495
0.209039
0.224718
0.241489
0.259276
0.27799
0.297538
0.317847
0.338856
0.360533
0.382865
0.405865
0.42956
0.454011
0.479295
0.50547
0.532647
0.560941
0.590469
0.621347
0.653695
0.68763
0.723268
0.760718
0.800081
0.841449
0.884907
0.930531
0.978389
1.02853
1.08097
1.13571
1.19273
1.25198
1.31342
1.37698
1.44254
1.50999
1.57915
1.64986
1.72192
1.79516
1.8694
1.94446
2.02013
2.09621
2.17254
2.24913
2.3259
2.4028
2.47971
2.55648
2.63305
2.7093
2.78511
2.86031
2.93475
3.00839
3.0812
3.15313
3.22411
3.2941
3.36303
3.43082
3.49742
3.56277
3.62681
3.6895
3.75079
3.81065
3.86901
3.92582
3.98103
4.03462
4.08655
4.1368
4.18534
4.23214
4.27717
4.32038
4.36176
4.40129
4.43896
4.47476
4.50866
4.54065
4.57072
4.59884
4.62501
4.64921
4.67143
4.69167
4.70992
4.72617
4.74041
4.75262
4.76281
4.77097
4.77711
4.78126
4.78344
4.78364
4.78204
4.77831
4.77263
4.76508
4.7557
4.74453
4.73161
4.71698
4.7007
4.68283
4.66341
4.64252
4.62021
4.59655
4.57158
4.54538
4.518
4.4895
4.45992
4.4293
4.39762
4.365
4.33152
4.29724
4.26221
4.22649
4.19013
4.15318
4.11567
4.07764
4.03902
3.99992
3.96043
3.92063
3.88059
3.84035
3.79996
3.75948
3.71891
3.6783
3.63776
3.59737
3.55726
3.5175
3.47819
3.4394
3.40128
3.36323
3.32462
0.0051642
0.0513933
0.0791364
0.090311
0.0943752
0.0949572
0.093121
0.0902769
0.0876235
0.0857851
0.0849421
0.0847723
0.0853559
0.0867716
0.0890527
0.0921305
0.0959482
0.100469
0.105671
0.111555
0.118121
0.12539
0.133389
0.142163
0.151762
0.162241
0.173649
0.186024
0.199371
0.213678
0.22893
0.245083
0.262067
0.279821
0.298299
0.317464
0.337303
0.357816
0.379014
0.400928
0.423613
0.447156
0.471684
0.497188
0.523678
0.551356
0.580388
0.610863
0.642897
0.676616
0.712145
0.749614
0.789141
0.830839
0.87481
0.921151
0.969946
1.02127
1.07518
1.1317
1.19075
1.2523
1.31627
1.38259
1.45116
1.52186
1.59453
1.66894
1.74481
1.8218
1.89968
1.97833
2.05763
2.1374
2.21738
2.29744
2.37767
2.45799
2.53832
2.61849
2.69841
2.77811
2.85752
2.93638
3.01451
3.09184
3.16827
3.24371
3.31808
3.39132
3.46338
3.53418
3.60366
3.67174
3.73837
3.80351
3.86712
3.92917
3.98962
4.0484
4.10548
4.16081
4.21437
4.26614
4.31609
4.36423
4.41052
4.45494
4.49743
4.538
4.57663
4.61332
4.64806
4.68086
4.71168
4.74053
4.76739
4.79224
4.81508
4.83591
4.85473
4.87153
4.88631
4.89906
4.90976
4.9184
4.92499
4.92956
4.93211
4.93269
4.93142
4.92803
4.92258
4.91521
4.90596
4.89485
4.88193
4.86725
4.85085
4.83279
4.81312
4.79191
4.76922
4.74512
4.71967
4.69293
4.66495
4.63582
4.60557
4.57426
4.54195
4.50872
4.47458
4.43959
4.40379
4.36726
4.33002
4.29215
4.2537
4.2147
4.17519
4.13511
4.09457
4.05363
4.01239
3.97089
3.92919
3.88734
3.84538