/*--------------------------------*- C++ -*----------------------------------*\
  =========                 |
  \\      /  F ield         | OpenFOAM: The Open Source CFD Toolbox
   \\    /   O peration     | Website:  https://openfoam.org
    \\  /    A nd           | Version:  8
     \\/     M anipulation  |
\*---------------------------------------------------------------------------*/
FoamFile
{
    version     2.0;
    format      ascii;
    class       surfaceScalarField;
    location    "1300";
    object      phi;
}
// * * * * * * * * * * * * * * * * * * * * * * * * * * * * * * * * * * * * * //

dimensions      [0 3 -1 0 0 0 0];

internalField   nonuniform List<scalar> 
24170
(
2.99764e-06
1.36219e-07
2.85114e-06
1.46394e-07
2.72624e-06
1.24819e-07
2.61867e-06
1.07519e-07
2.52759e-06
9.09994e-08
2.45141e-06
7.60962e-08
2.38709e-06
6.42866e-08
2.33181e-06
5.53398e-08
2.28501e-06
4.6843e-08
2.24632e-06
3.87472e-08
2.214e-06
3.23008e-08
2.18672e-06
2.72697e-08
2.16381e-06
2.2907e-08
2.14443e-06
1.93939e-08
2.1287e-06
1.57183e-08
2.11692e-06
1.17645e-08
2.11036e-06
6.54536e-09
-4.7057e-10
2.11083e-06
3.52075e-06
7.1889e-08
3.55808e-06
1.08897e-07
3.56934e-06
1.13384e-07
3.56348e-06
1.13226e-07
3.54724e-06
1.07085e-07
3.52433e-06
9.88624e-08
3.49653e-06
9.19709e-08
3.46522e-06
8.6578e-08
3.4343e-06
7.77331e-08
3.40448e-06
6.85911e-08
3.37577e-06
6.1037e-08
3.34855e-06
5.45287e-08
3.32127e-06
5.02184e-08
3.29517e-06
4.55242e-08
3.27171e-06
3.92074e-08
3.24976e-06
3.37401e-08
3.22928e-06
2.70581e-08
2.13498e-08
3.20748e-06
3.83029e-06
5.37842e-08
3.84735e-06
9.18386e-08
3.86317e-06
9.75478e-08
3.87737e-06
9.90161e-08
3.88707e-06
9.73651e-08
3.89235e-06
9.35514e-08
3.89462e-06
8.96965e-08
3.89541e-06
8.58288e-08
3.89389e-06
7.92998e-08
3.89022e-06
7.22927e-08
3.8852e-06
6.60419e-08
3.87915e-06
6.05804e-08
3.87291e-06
5.64535e-08
3.86661e-06
5.18304e-08
3.85958e-06
4.62264e-08
3.85224e-06
4.10782e-08
3.8441e-06
3.51954e-08
2.97047e-08
3.83575e-06
4.21529e-06
4.30408e-08
4.22655e-06
8.04532e-08
4.23607e-06
8.79109e-08
4.24531e-06
8.9654e-08
4.25333e-06
8.92459e-08
4.26002e-06
8.67819e-08
4.26582e-06
8.38352e-08
4.27123e-06
8.037e-08
4.27537e-06
7.51503e-08
4.27819e-06
6.9479e-08
4.28014e-06
6.41086e-08
4.28145e-06
5.92959e-08
4.28274e-06
5.51897e-08
4.28383e-06
5.07609e-08
4.28421e-06
4.58632e-08
4.28425e-06
4.10618e-08
4.28355e-06
3.59216e-08
3.10248e-08
4.28225e-06
4.64575e-06
3.45874e-08
4.65603e-06
7.02153e-08
4.66414e-06
7.9829e-08
4.67158e-06
8.22205e-08
4.67837e-06
8.24602e-08
4.6844e-06
8.07542e-08
4.69003e-06
7.82094e-08
4.69548e-06
7.49532e-08
4.70016e-06
7.0508e-08
4.70399e-06
6.56545e-08
4.70723e-06
6.08711e-08
4.71009e-06
5.64369e-08
4.71291e-06
5.23631e-08
4.71555e-06
4.81214e-08
4.71774e-06
4.3669e-08
4.7196e-06
3.92044e-08
4.72092e-06
3.46079e-08
3.02039e-08
4.72174e-06
5.12152e-06
2.76447e-08
5.13104e-06
6.05941e-08
5.13904e-06
7.17364e-08
5.1462e-06
7.49788e-08
5.15273e-06
7.58622e-08
5.15861e-06
7.48186e-08
5.16415e-06
7.26284e-08
5.16948e-06
6.96089e-08
5.17425e-06
6.57361e-08
5.17841e-06
6.14953e-08
5.18209e-06
5.71976e-08
5.18547e-06
5.30697e-08
5.18875e-06
4.91092e-08
5.19182e-06
4.50724e-08
5.19456e-06
4.09512e-08
5.19697e-06
3.68132e-08
5.19895e-06
3.2649e-08
2.86555e-08
5.20052e-06
5.64659e-06
2.20557e-08
5.65538e-06
5.18581e-08
5.66345e-06
6.37014e-08
5.67069e-06
6.77607e-08
5.67732e-06
6.92359e-08
5.68337e-06
6.87708e-08
5.68906e-06
6.6958e-08
5.69445e-06
6.42347e-08
5.69938e-06
6.0828e-08
5.70381e-06
5.70663e-08
5.70783e-06
5.31813e-08
5.71156e-06
4.93376e-08
5.71511e-06
4.55633e-08
5.71843e-06
4.17614e-08
5.72144e-06
3.79403e-08
5.72413e-06
3.41272e-08
5.72645e-06
3.03476e-08
2.67155e-08
5.72839e-06
4.40939e-06
1.87719e-08
4.41521e-06
4.5974e-08
4.42101e-06
5.78459e-08
4.42629e-06
6.24387e-08
4.43118e-06
6.43051e-08
4.43572e-06
6.41979e-08
4.43997e-06
6.26838e-08
4.44397e-06
6.02321e-08
4.44765e-06
5.71414e-08
4.45103e-06
5.36882e-08
4.45413e-06
5.00789e-08
4.45702e-06
4.64547e-08
4.45973e-06
4.28562e-08
4.46226e-06
3.92436e-08
4.46457e-06
3.56361e-08
4.46665e-06
3.20541e-08
4.46847e-06
2.85318e-08
2.51729e-08
4.47003e-06
5.14286e-06
1.57611e-08
5.14869e-06
4.0192e-08
5.1548e-06
5.17619e-08
5.16054e-06
5.67114e-08
5.16596e-06
5.88852e-08
5.17105e-06
5.9112e-08
5.17583e-06
5.7904e-08
5.18032e-06
5.5749e-08
5.18449e-06
5.29764e-08
5.18834e-06
4.98404e-08
5.1919e-06
4.65202e-08
5.19522e-06
4.31419e-08
5.19832e-06
3.9758e-08
5.2012e-06
3.63707e-08
5.20384e-06
3.30004e-08
5.20623e-06
2.96767e-08
5.20834e-06
2.64317e-08
2.33419e-08
5.21017e-06
5.9985e-06
1.30661e-08
6.00424e-06
3.44394e-08
6.01055e-06
4.54329e-08
6.01668e-06
5.05558e-08
6.02261e-06
5.29443e-08
6.02824e-06
5.34596e-08
6.03358e-06
5.25595e-08
6.03861e-06
5.07155e-08
6.04332e-06
4.8271e-08
6.04769e-06
4.54646e-08
6.05176e-06
4.24529e-08
6.05555e-06
3.93535e-08
6.05908e-06
3.62273e-08
6.06236e-06
3.30928e-08
6.06537e-06
2.99952e-08
6.0681e-06
2.695e-08
6.07053e-06
2.39957e-08
2.12029e-08
6.07268e-06
6.99667e-06
1.06588e-08
7.00222e-06
2.89117e-08
7.00864e-06
3.90226e-08
7.0151e-06
4.40937e-08
7.02147e-06
4.65689e-08
7.02763e-06
4.72873e-08
7.03352e-06
4.66667e-08
7.03911e-06
4.51264e-08
7.04437e-06
4.30119e-08
7.0493e-06
4.05356e-08
7.0539e-06
3.78509e-08
7.0582e-06
3.50576e-08
7.06221e-06
3.22165e-08
7.06592e-06
2.93802e-08
7.06934e-06
2.6575e-08
7.07245e-06
2.38379e-08
7.07525e-06
2.11945e-08
1.87092e-08
7.07774e-06
8.16115e-06
8.54114e-09
8.16643e-06
2.36412e-08
8.17287e-06
3.2579e-08
8.17958e-06
3.73766e-08
8.18634e-06
3.98045e-08
8.19299e-06
4.06324e-08
8.19942e-06
4.0237e-08
8.20556e-06
3.89925e-08
8.21138e-06
3.71887e-08
8.21687e-06
3.50507e-08
8.22203e-06
3.26947e-08
8.22686e-06
3.02275e-08
8.23136e-06
2.77095e-08
8.23554e-06
2.51953e-08
8.23939e-06
2.27161e-08
8.24292e-06
2.03096e-08
8.24611e-06
1.79933e-08
1.58317e-08
8.24899e-06
9.51963e-06
6.6399e-09
9.5246e-06
1.86746e-08
9.531e-06
2.61801e-08
9.53791e-06
3.04574e-08
9.54502e-06
3.26913e-08
9.55212e-06
3.35219e-08
9.55907e-06
3.3295e-08
9.56576e-06
3.22993e-08
9.57215e-06
3.08099e-08
9.5782e-06
2.89908e-08
9.58392e-06
2.69837e-08
9.58928e-06
2.48567e-08
9.5943e-06
2.26928e-08
9.59895e-06
2.05237e-08
9.60327e-06
1.84039e-08
9.60723e-06
1.63425e-08
9.61086e-06
1.43772e-08
1.25457e-08
9.61414e-06
1.11044e-05
4.9202e-09
1.11091e-05
1.40157e-08
1.11154e-05
1.98798e-08
1.11225e-05
2.33852e-08
1.11299e-05
2.52597e-08
1.11374e-05
2.59788e-08
1.11449e-05
2.58298e-08
1.11522e-05
2.50511e-08
1.11591e-05
2.38373e-08
1.11658e-05
2.23506e-08
1.11721e-05
2.06876e-08
1.1178e-05
1.89332e-08
1.11835e-05
1.71375e-08
1.11887e-05
1.53537e-08
1.11935e-05
1.36033e-08
1.1198e-05
1.19181e-08
1.1202e-05
1.03097e-08
8.82784e-09
1.12058e-05
1.29532e-05
3.32136e-09
1.29577e-05
9.60664e-09
1.29639e-05
1.36759e-08
1.29711e-05
1.61661e-08
1.29789e-05
1.75032e-08
1.29869e-05
1.79853e-08
1.29949e-05
1.78264e-08
1.30027e-05
1.71972e-08
1.30103e-05
1.62402e-08
1.30176e-05
1.50706e-08
1.30245e-05
1.37691e-08
1.30311e-05
1.23985e-08
1.30372e-05
1.10028e-08
1.30429e-05
9.61843e-09
1.30483e-05
8.26813e-09
1.30532e-05
6.97312e-09
1.30578e-05
5.74599e-09
4.62373e-09
1.3062e-05
1.511e-05
1.78806e-09
1.51143e-05
5.32322e-09
1.51205e-05
7.45439e-09
1.5128e-05
8.72087e-09
1.51362e-05
9.34067e-09
1.51447e-05
9.45863e-09
1.51533e-05
9.19826e-09
1.51619e-05
8.65999e-09
1.51702e-05
7.92795e-09
1.51782e-05
7.06948e-09
1.51858e-05
6.13673e-09
1.51931e-05
5.1678e-09
1.51999e-05
4.19259e-09
1.52063e-05
3.23349e-09
1.52122e-05
2.30739e-09
1.52178e-05
1.42751e-09
1.52229e-05
6.03361e-10
-1.38242e-10
1.52277e-05
1.7626e-05
2.4012e-10
1.76304e-05
9.31772e-10
1.76369e-05
9.57696e-10
1.76448e-05
8.04438e-10
1.76536e-05
5.4118e-10
1.76629e-05
1.85558e-10
1.76724e-05
-2.5562e-10
1.76818e-05
-7.44147e-10
1.7691e-05
-1.2735e-09
1.76999e-05
-1.81459e-09
1.77084e-05
-2.36579e-09
1.77164e-05
-2.90512e-09
1.77241e-05
-3.43274e-09
1.77312e-05
-3.93235e-09
1.7738e-05
-4.40431e-09
1.77442e-05
-4.83721e-09
1.77501e-05
-5.23155e-09
-5.56532e-09
1.77555e-05
1.78277e-05
-1.2496e-09
1.78319e-05
-3.33012e-09
1.78383e-05
-5.37505e-09
1.7846e-05
-6.94856e-09
1.78546e-05
-8.09129e-09
1.78637e-05
-8.93777e-09
1.78731e-05
-9.55498e-09
1.78823e-05
-1.00131e-08
1.78914e-05
-1.03337e-08
1.79001e-05
-1.05758e-08
1.79085e-05
-1.07419e-08
1.79165e-05
-1.08715e-08
1.7924e-05
-1.09543e-08
1.79311e-05
-1.10163e-08
1.79378e-05
-1.1044e-08
1.7944e-05
-1.10543e-08
1.79498e-05
-1.10339e-08
-1.09838e-08
1.79552e-05
1.58827e-05
-2.65732e-09
1.58867e-05
-7.32337e-09
1.58926e-05
-1.12841e-08
1.58998e-05
-1.41057e-08
1.59077e-05
-1.59999e-08
1.5916e-05
-1.72301e-08
1.59244e-05
-1.79774e-08
1.59327e-05
-1.83476e-08
1.59408e-05
-1.84618e-08
1.59486e-05
-1.83886e-08
1.59561e-05
-1.82055e-08
1.59632e-05
-1.79369e-08
1.59698e-05
-1.7628e-08
1.59761e-05
-1.72829e-08
1.5982e-05
-1.69272e-08
1.59875e-05
-1.65557e-08
1.59926e-05
-1.61828e-08
-1.57918e-08
1.59975e-05
1.41501e-05
-4.11133e-09
1.41541e-05
-1.13402e-08
1.416e-05
-1.71393e-08
1.41669e-05
-2.10445e-08
1.41745e-05
-2.35374e-08
1.41823e-05
-2.5048e-08
1.41901e-05
-2.58227e-08
1.41978e-05
-2.60579e-08
1.42053e-05
-2.59099e-08
1.42124e-05
-2.55148e-08
1.42192e-05
-2.49622e-08
1.42255e-05
-2.43171e-08
1.42315e-05
-2.36223e-08
1.42371e-05
-2.2907e-08
1.42424e-05
-2.2189e-08
1.42473e-05
-2.14805e-08
1.42519e-05
-2.07843e-08
-2.00993e-08
1.42562e-05
1.26066e-05
-5.6998e-09
1.26109e-05
-1.56182e-08
1.2617e-05
-2.31764e-08
1.26239e-05
-2.79635e-08
1.26313e-05
-3.09054e-08
1.26388e-05
-3.25731e-08
1.26463e-05
-3.32927e-08
1.26536e-05
-3.32991e-08
1.26605e-05
-3.28371e-08
1.26671e-05
-3.20888e-08
1.26733e-05
-3.11563e-08
1.26791e-05
-3.01336e-08
1.26845e-05
-2.90591e-08
1.26896e-05
-2.79889e-08
1.26943e-05
-2.69303e-08
1.26988e-05
-2.59095e-08
1.27029e-05
-2.49212e-08
-2.39692e-08
1.27068e-05
1.12316e-05
-7.53435e-09
1.12365e-05
-2.04026e-08
1.12429e-05
-2.95844e-08
1.125e-05
-3.50182e-08
1.12573e-05
-3.82012e-08
1.12647e-05
-3.99104e-08
1.12718e-05
-4.04456e-08
1.12787e-05
-4.01612e-08
1.12852e-05
-3.93452e-08
1.12913e-05
-3.8198e-08
1.12971e-05
-3.68756e-08
1.13024e-05
-3.54538e-08
1.13073e-05
-3.40171e-08
1.13119e-05
-3.25912e-08
1.13162e-05
-3.12189e-08
1.13202e-05
-2.98997e-08
1.13239e-05
-2.8651e-08
-2.74553e-08
1.13274e-05
1.00068e-05
-9.71811e-09
1.00124e-05
-2.59376e-08
1.00193e-05
-3.64268e-08
1.00266e-05
-4.21667e-08
1.00339e-05
-4.54935e-08
1.00411e-05
-4.71073e-08
1.0048e-05
-4.7381e-08
1.00546e-05
-4.6703e-08
1.00607e-05
-4.54597e-08
1.00664e-05
-4.38967e-08
1.00717e-05
-4.21523e-08
1.00766e-05
-4.03422e-08
1.00811e-05
-3.85316e-08
1.00853e-05
-3.67757e-08
1.00892e-05
-3.50965e-08
1.00928e-05
-3.35121e-08
1.00961e-05
-3.20181e-08
-3.0611e-08
1.00993e-05
8.91576e-06
-1.23232e-08
8.92253e-06
-3.26821e-08
8.92993e-06
-4.38023e-08
8.93729e-06
-4.95444e-08
8.94462e-06
-5.27778e-08
8.95172e-06
-5.41859e-08
8.95844e-06
-5.4054e-08
8.96469e-06
-5.29344e-08
8.97046e-06
-5.12395e-08
8.97579e-06
-4.92188e-08
8.98068e-06
-4.70487e-08
8.98517e-06
-4.48398e-08
8.98931e-06
-4.26696e-08
8.99312e-06
-4.05961e-08
8.99665e-06
-3.86341e-08
8.99993e-06
-3.68004e-08
9.00299e-06
-3.50842e-08
-3.34754e-08
9.00585e-06
7.94401e-06
-1.56832e-08
7.95232e-06
-4.0914e-08
7.96014e-06
-5.15724e-08
7.96763e-06
-5.69817e-08
7.97498e-06
-6.01249e-08
7.98201e-06
-6.11991e-08
7.98853e-06
-6.0583e-08
7.99453e-06
-5.89408e-08
8.00004e-06
-5.67471e-08
8.00507e-06
-5.42607e-08
8.00967e-06
-5.16539e-08
8.01388e-06
-4.90452e-08
8.01772e-06
-4.65286e-08
8.02126e-06
-4.41387e-08
8.0245e-06
-4.19033e-08
8.0275e-06
-3.98066e-08
8.03027e-06
-3.78638e-08
-3.60468e-08
8.03283e-06
7.07909e-06
-2.04129e-08
7.0889e-06
-5.07389e-08
7.09719e-06
-5.9887e-08
7.10499e-06
-6.47984e-08
7.11258e-06
-6.77141e-08
7.11971e-06
-6.83336e-08
7.12625e-06
-6.71175e-08
7.13219e-06
-6.4888e-08
7.13761e-06
-6.21793e-08
7.14253e-06
-5.9195e-08
7.14699e-06
-5.61219e-08
7.15102e-06
-5.30954e-08
7.15466e-06
-5.01757e-08
7.15794e-06
-4.74385e-08
7.1609e-06
-4.48603e-08
7.16356e-06
-4.24807e-08
7.16597e-06
-4.0285e-08
-3.82651e-08
7.16818e-06
6.31005e-06
-2.79588e-08
6.3211e-06
-6.18314e-08
6.33069e-06
-6.94775e-08
6.33978e-06
-7.38845e-08
6.34841e-06
-7.63667e-08
6.35627e-06
-7.62145e-08
6.36333e-06
-7.41802e-08
6.36964e-06
-7.12396e-08
6.37529e-06
-6.78266e-08
6.38028e-06
-6.41978e-08
6.38465e-06
-6.05056e-08
6.38844e-06
-5.68744e-08
6.39165e-06
-5.34198e-08
6.39437e-06
-5.01532e-08
6.39663e-06
-4.71339e-08
6.39851e-06
-4.43642e-08
6.40007e-06
-4.18441e-08
-3.95564e-08
6.40136e-06
5.6287e-06
-4.17699e-08
5.64343e-06
-7.66895e-08
5.65782e-06
-8.39265e-08
5.67119e-06
-8.72953e-08
5.68296e-06
-8.81648e-08
5.69294e-06
-8.62128e-08
5.70126e-06
-8.25318e-08
5.70802e-06
-7.80167e-08
5.71328e-06
-7.31016e-08
5.71712e-06
-6.80319e-08
5.71962e-06
-6.29994e-08
5.7209e-06
-5.81806e-08
5.72113e-06
-5.36445e-08
5.72047e-06
-4.94841e-08
5.71907e-06
-4.57205e-08
5.71713e-06
-4.24076e-08
5.71478e-06
-3.94945e-08
-3.71283e-08
5.71236e-06
5.05417e-06
-9.36524e-08
5.08733e-06
-1.10025e-07
5.11025e-06
-1.06928e-07
5.12384e-06
-1.00944e-07
5.12998e-06
-9.43407e-08
5.13023e-06
-8.6481e-08
5.12569e-06
-7.80285e-08
5.11727e-06
-6.96165e-08
5.10571e-06
-6.15521e-08
5.09177e-06
-5.40897e-08
5.07612e-06
-4.73465e-08
5.0593e-06
-4.13714e-08
5.04184e-06
-3.61746e-08
5.02409e-06
-3.17113e-08
5.00637e-06
-2.79817e-08
4.98895e-06
-2.49705e-08
4.97211e-06
-2.26416e-08
-2.12967e-08
4.95628e-06
4.36289e-06
4.25285e-06
4.14592e-06
4.04497e-06
3.95063e-06
3.86415e-06
3.78611e-06
3.7165e-06
3.65494e-06
3.60085e-06
3.55351e-06
3.51214e-06
3.47597e-06
3.44426e-06
3.41628e-06
3.39131e-06
3.36867e-06
3.34738e-06
-8.38648e-09
8.3788e-09
-2.2746e-08
1.4363e-08
-3.8364e-08
1.56056e-08
-5.17312e-08
1.33726e-08
-5.76006e-08
5.85452e-09
-4.97797e-08
-7.81739e-09
-2.62613e-08
-2.35344e-08
1.0503e-08
-3.67632e-08
5.62399e-08
-4.57532e-08
1.06105e-07
-4.98624e-08
1.5554e-07
-4.94551e-08
2.01467e-07
-4.59268e-08
2.41812e-07
-4.03679e-08
2.75382e-07
-3.3571e-08
3.01418e-07
-2.60662e-08
3.19568e-07
-1.81522e-08
3.29501e-07
-9.96733e-09
3.30957e-07
-1.45695e-09
3.23665e-07
7.25494e-09
3.0788e-07
1.57842e-08
2.84136e-07
2.37007e-08
2.53513e-07
3.06206e-08
2.17344e-07
3.61246e-08
1.77581e-07
3.97507e-08
1.36493e-07
4.10352e-08
9.68157e-08
3.96521e-08
6.11926e-08
3.55625e-08
3.1916e-08
2.92408e-08
1.00987e-08
2.17459e-08
-4.30714e-09
1.4371e-08
-1.22297e-08
7.85497e-09
-1.40151e-08
1.77188e-09
-9.51258e-09
-4.56256e-09
2.54164e-09
-1.20501e-08
2.34836e-08
-2.09928e-08
5.32292e-08
-2.9745e-08
8.76507e-08
-3.44558e-08
1.20598e-07
-3.29525e-08
1.4656e-07
-2.59837e-08
1.62441e-07
-1.58752e-08
1.68587e-07
-6.13585e-09
1.67997e-07
6.32793e-10
1.64105e-07
3.92272e-09
1.60532e-07
3.65115e-09
1.58865e-07
1.67026e-09
1.5248e-07
6.49993e-09
1.31829e-07
2.05683e-08
8.95303e-08
4.24594e-08
2.07441e-08
6.86125e-08
-7.13199e-08
9.21609e-08
-1.82932e-07
1.11504e-07
-3.10961e-07
1.27989e-07
-4.52111e-07
1.41098e-07
-5.99189e-07
1.46989e-07
-7.48504e-07
1.49281e-07
-8.96972e-07
1.48435e-07
-1.0412e-06
1.44216e-07
-1.17911e-06
1.37917e-07
-1.30805e-06
1.28942e-07
-1.42723e-06
1.19194e-07
-1.53747e-06
1.10244e-07
-1.63838e-06
1.00914e-07
-1.73056e-06
9.21809e-08
-1.8152e-06
8.46476e-08
-1.89289e-06
7.76853e-08
-1.96442e-06
7.15427e-08
-2.03053e-06
6.6104e-08
-2.09186e-06
6.13359e-08
-2.149e-06
5.71432e-08
-2.20246e-06
5.34536e-08
-2.25264e-06
5.01793e-08
-2.29989e-06
4.72551e-08
-2.3445e-06
4.4614e-08
-2.38671e-06
4.22056e-08
-2.42669e-06
3.99846e-08
-2.46461e-06
3.7915e-08
-2.50057e-06
3.59675e-08
-2.53469e-06
3.41179e-08
-2.56704e-06
3.23482e-08
-2.59768e-06
3.06419e-08
-2.62666e-06
2.89882e-08
-2.65404e-06
2.73756e-08
-2.67983e-06
2.57972e-08
-2.70407e-06
2.4245e-08
-2.72678e-06
2.27146e-08
-2.74798e-06
2.12008e-08
-2.76767e-06
1.96999e-08
-2.78588e-06
1.82081e-08
-2.8026e-06
1.67215e-08
-2.81783e-06
1.52317e-08
-2.83158e-06
1.37373e-08
-2.84381e-06
1.22292e-08
-2.85452e-06
1.07008e-08
-2.86367e-06
9.14335e-09
-2.87121e-06
7.54611e-09
-2.8771e-06
5.90023e-09
-2.88129e-06
4.19117e-09
-2.88369e-06
2.41909e-09
-2.88432e-06
6.33772e-10
-2.88331e-06
-9.98539e-10
-2.88089e-06
-2.4176e-09
-2.87716e-06
-3.73259e-09
-2.87214e-06
-5.02172e-09
-2.86584e-06
-6.3001e-09
-2.85828e-06
-7.57777e-09
-2.84943e-06
-8.85343e-09
-2.83932e-06
-1.01295e-08
-2.82793e-06
-1.14039e-08
-2.81527e-06
-1.26772e-08
-2.80134e-06
-1.39482e-08
-2.78615e-06
-1.52162e-08
-2.76969e-06
-1.64808e-08
-2.75196e-06
-1.77403e-08
-2.73299e-06
-1.89953e-08
-2.71276e-06
-2.02428e-08
-2.6913e-06
-2.14843e-08
-2.6686e-06
-2.27162e-08
-2.64467e-06
-2.39401e-08
-2.61953e-06
-2.51523e-08
-2.59318e-06
-2.63542e-08
-2.56565e-06
-2.75422e-08
-2.53693e-06
-2.87173e-08
-2.50706e-06
-2.98765e-08
-2.47604e-06
-3.10203e-08
-2.44389e-06
-3.21464e-08
-2.41063e-06
-3.32549e-08
-2.37629e-06
-3.43444e-08
-2.34087e-06
-3.54115e-08
-2.30442e-06
-3.64526e-08
-2.26696e-06
-3.74635e-08
-2.22851e-06
-3.84485e-08
-2.18911e-06
-3.94e-08
-2.14881e-06
-4.03028e-08
-2.10767e-06
-4.11514e-08
-2.06575e-06
-4.19332e-08
-2.02312e-06
-4.26313e-08
-1.97973e-06
-4.34055e-08
-1.93548e-06
-4.42506e-08
-1.89049e-06
-4.50051e-08
-1.8448e-06
-4.57117e-08
-1.79844e-06
-4.63774e-08
-1.75146e-06
-4.70083e-08
-1.70388e-06
-4.75976e-08
-1.65574e-06
-4.81551e-08
-1.60706e-06
-4.86748e-08
-1.55788e-06
-4.91615e-08
-1.50821e-06
-4.96198e-08
-1.4581e-06
-5.00465e-08
-1.40758e-06
-5.04443e-08
-1.35666e-06
-5.08326e-08
-1.3054e-06
-5.11833e-08
-1.25381e-06
-5.15171e-08
-1.20192e-06
-5.1812e-08
-1.14977e-06
-5.20816e-08
-1.0974e-06
-5.23151e-08
-1.04481e-06
-5.25284e-08
-9.92048e-07
-5.27178e-08
-9.39118e-07
-5.2888e-08
-8.86032e-07
-5.30521e-08
-8.32801e-07
-5.32021e-08
-7.79432e-07
-5.33483e-08
-7.25931e-07
-5.34846e-08
-6.72311e-07
-5.36129e-08
-6.18579e-07
-5.37284e-08
-5.6475e-07
-5.3836e-08
-5.10824e-07
-5.39341e-08
-4.56811e-07
-5.40321e-08
-4.02701e-07
-5.41279e-08
-3.48503e-07
-5.42292e-08
-2.94203e-07
-5.4328e-08
-2.39828e-07
-5.44174e-08
-1.85392e-07
-5.44749e-08
-1.30967e-07
-5.44773e-08
-7.66547e-08
-5.43611e-08
-2.27232e-08
-5.39926e-08
3.04241e-08
-5.32011e-08
8.21349e-08
-5.17734e-08
1.30504e-07
-4.84201e-08
1.74353e-07
-4.39017e-08
-1.73728e-08
1.91689e-07
-3.52225e-09
1.18868e-08
-9.82947e-09
2.06834e-08
-1.27802e-08
1.85292e-08
-4.9726e-09
5.57004e-09
1.85729e-08
-1.77187e-08
5.6932e-08
-4.61787e-08
1.05431e-07
-7.2048e-08
1.58448e-07
-8.97824e-08
2.10779e-07
-9.80932e-08
2.59157e-07
-9.82416e-08
3.02091e-07
-9.24004e-08
3.38923e-07
-8.27592e-08
3.69533e-07
-7.09917e-08
3.94156e-07
-5.81959e-08
4.13105e-07
-4.50316e-08
4.26803e-07
-3.18547e-08
4.35651e-07
-1.88357e-08
4.4025e-07
-6.06018e-09
4.40973e-07
6.50823e-09
4.37762e-07
1.8987e-08
4.30104e-07
3.13322e-08
4.17422e-07
4.32926e-08
3.99105e-07
5.44142e-08
3.74818e-07
6.40225e-08
3.44558e-07
7.1265e-08
3.08969e-07
7.5221e-08
2.69388e-07
7.51107e-08
2.28034e-07
7.05725e-08
1.87901e-07
6.1838e-08
1.52618e-07
4.96333e-08
1.25643e-07
3.47799e-08
1.0955e-07
1.78521e-08
1.05704e-07
-7.6493e-10
1.13839e-07
-2.01867e-08
1.31742e-07
-3.89298e-08
1.54094e-07
-5.21016e-08
1.73608e-07
-5.39919e-08
1.85391e-07
-4.47415e-08
1.87719e-07
-2.83242e-08
1.80549e-07
-8.70434e-09
1.65419e-07
8.99454e-09
1.43687e-07
2.24047e-08
1.0952e-07
3.81078e-08
5.27448e-08
6.04996e-08
-3.55998e-08
9.00376e-08
-1.54989e-07
1.25963e-07
-2.96954e-07
1.62536e-07
-4.51247e-07
1.96786e-07
-6.10826e-07
2.28176e-07
-7.72704e-07
2.54042e-07
-9.33918e-07
2.72693e-07
-1.09026e-06
2.843e-07
-1.23761e-06
2.88421e-07
-1.37507e-06
2.84414e-07
-1.49988e-06
2.7407e-07
-1.61135e-06
2.599e-07
-1.71007e-06
2.42932e-07
-1.7969e-06
2.24753e-07
-1.874e-06
2.06055e-07
-1.94269e-06
1.87883e-07
-2.00369e-06
1.7125e-07
-2.05883e-06
1.56062e-07
-2.10912e-06
1.42476e-07
-2.15515e-06
1.30681e-07
-2.19783e-06
1.20363e-07
-2.23767e-06
1.11383e-07
-2.27511e-06
1.03546e-07
-2.31046e-06
9.66857e-08
-2.34395e-06
9.06362e-08
-2.37576e-06
8.52591e-08
-2.406e-06
8.04293e-08
-2.43479e-06
7.60442e-08
-2.4622e-06
7.20168e-08
-2.48827e-06
6.82768e-08
-2.51305e-06
6.47663e-08
-2.53657e-06
6.14393e-08
-2.55886e-06
5.82589e-08
-2.57994e-06
5.51955e-08
-2.59982e-06
5.2226e-08
-2.61851e-06
4.93314e-08
-2.63601e-06
4.64971e-08
-2.65235e-06
4.37108e-08
-2.66751e-06
4.0963e-08
-2.68151e-06
3.82451e-08
-2.69434e-06
3.55511e-08
-2.70601e-06
3.2875e-08
-2.71652e-06
3.02124e-08
-2.72586e-06
2.75589e-08
-2.73405e-06
2.49084e-08
-2.74108e-06
2.2259e-08
-2.74695e-06
1.96049e-08
-2.75167e-06
1.69438e-08
-2.75525e-06
1.42745e-08
-2.7577e-06
1.1595e-08
-2.75906e-06
8.90774e-09
-2.75937e-06
6.21753e-09
-2.7587e-06
3.53619e-09
-2.75716e-06
8.88276e-10
-2.75483e-06
-1.69385e-09
-2.7516e-06
-4.22069e-09
-2.74727e-06
-6.73907e-09
-2.74174e-06
-9.26208e-09
-2.73498e-06
-1.17842e-08
-2.72698e-06
-1.43053e-08
-2.71774e-06
-1.68273e-08
-2.70725e-06
-1.93493e-08
-2.69552e-06
-2.18714e-08
-2.68254e-06
-2.43917e-08
-2.66832e-06
-2.69099e-08
-2.65286e-06
-2.9424e-08
-2.63616e-06
-3.19331e-08
-2.61822e-06
-3.44353e-08
-2.59905e-06
-3.69291e-08
-2.57864e-06
-3.94129e-08
-2.55702e-06
-4.18844e-08
-2.53417e-06
-4.43423e-08
-2.51011e-06
-4.67837e-08
-2.48486e-06
-4.92074e-08
-2.45841e-06
-5.16099e-08
-2.43078e-06
-5.39902e-08
-2.40198e-06
-5.63446e-08
-2.37203e-06
-5.86716e-08
-2.34094e-06
-6.09679e-08
-2.30873e-06
-6.32318e-08
-2.27541e-06
-6.54603e-08
-2.24101e-06
-6.76515e-08
-2.20555e-06
-6.98022e-08
-2.16906e-06
-7.19079e-08
-2.13155e-06
-7.3963e-08
-2.09305e-06
-7.59627e-08
-2.05359e-06
-7.79049e-08
-2.01321e-06
-7.97841e-08
-1.97193e-06
-8.15918e-08
-1.92976e-06
-8.33243e-08
-1.88672e-06
-8.4982e-08
-1.84279e-06
-8.65678e-08
-1.79805e-06
-8.81483e-08
-1.75259e-06
-8.9709e-08
-1.70642e-06
-9.11835e-08
-1.65957e-06
-9.25801e-08
-1.61206e-06
-9.39036e-08
-1.56393e-06
-9.51549e-08
-1.5152e-06
-9.63333e-08
-1.46592e-06
-9.74433e-08
-1.4161e-06
-9.84861e-08
-1.36579e-06
-9.94603e-08
-1.31499e-06
-1.00379e-07
-1.26375e-06
-1.0124e-07
-1.21209e-06
-1.02047e-07
-1.16006e-06
-1.02817e-07
-1.10766e-06
-1.0353e-07
-1.05494e-06
-1.04192e-07
-1.00192e-06
-1.04788e-07
-9.48635e-07
-1.05325e-07
-8.95114e-07
-1.05799e-07
-8.41387e-07
-1.06223e-07
-7.87471e-07
-1.06604e-07
-7.33389e-07
-1.06947e-07
-6.79152e-07
-1.07269e-07
-6.2477e-07
-1.07569e-07
-5.70252e-07
-1.07855e-07
-5.15605e-07
-1.08126e-07
-4.60836e-07
-1.08378e-07
-4.05957e-07
-1.08611e-07
-3.50975e-07
-1.08823e-07
-2.95896e-07
-1.09024e-07
-2.40723e-07
-1.09219e-07
-1.85453e-07
-1.09416e-07
-1.30086e-07
-1.09617e-07
-7.46177e-08
-1.0982e-07
-1.90586e-08
-1.10003e-07
3.65762e-08
-1.10138e-07
9.22302e-08
-1.10162e-07
1.47795e-07
-1.09958e-07
2.03104e-07
-1.09335e-07
2.57827e-07
-1.07957e-07
3.11231e-07
-1.05212e-07
3.6275e-07
-9.99727e-08
4.09062e-07
-9.02459e-08
-6.11026e-08
4.52767e-07
4.34781e-10
1.14467e-08
4.17061e-09
1.69572e-08
1.9475e-08
3.20991e-09
5.42188e-08
-2.91749e-08
1.06495e-07
-7.00042e-08
1.66288e-07
-1.05974e-07
2.23613e-07
-1.29378e-07
2.72956e-07
-1.39126e-07
3.12739e-07
-1.3788e-07
3.43739e-07
-1.2924e-07
3.67582e-07
-1.16249e-07
3.85844e-07
-1.01021e-07
3.99705e-07
-8.48595e-08
4.10001e-07
-6.84919e-08
4.17256e-07
-5.2297e-08
4.21858e-07
-3.64582e-08
4.24071e-07
-2.106e-08
4.24155e-07
-6.14751e-09
4.22387e-07
8.26001e-09
4.1916e-07
2.22077e-08
4.14725e-07
3.57473e-08
4.09148e-07
4.88609e-08
4.02134e-07
6.14064e-08
3.93105e-07
7.30398e-08
3.81187e-07
8.31605e-08
3.65497e-07
9.08976e-08
3.45416e-07
9.51699e-08
3.21113e-07
9.48606e-08
2.93808e-07
8.91232e-08
2.65871e-07
7.75587e-08
2.40271e-07
6.03592e-08
2.19802e-07
3.83149e-08
2.06079e-07
1.29413e-08
1.98899e-07
-1.30099e-08
1.9356e-07
-3.36049e-08
1.82542e-07
-4.10898e-08
1.62003e-07
-3.34657e-08
1.32208e-07
-1.49522e-08
9.37294e-08
1.01411e-08
4.42174e-08
4.08013e-08
-2.24354e-08
7.56438e-08
-1.12885e-07
1.12861e-07
-2.28257e-07
1.53489e-07
-3.64896e-07
1.97154e-07
-5.1609e-07
2.41242e-07
-6.72735e-07
2.82631e-07
-8.2881e-07
3.18621e-07
-9.79291e-07
3.47285e-07
-1.11904e-06
3.6793e-07
-1.24525e-06
3.80242e-07
-1.35683e-06
3.8426e-07
-1.45317e-06
3.80631e-07
-1.53495e-06
3.70177e-07
-1.6046e-06
3.54053e-07
-1.66464e-06
3.34099e-07
-1.71696e-06
3.12223e-07
-1.76364e-06
2.89611e-07
-1.8062e-06
2.67316e-07
-1.84613e-06
2.45996e-07
-1.88435e-06
2.26109e-07
-1.92112e-06
2.08021e-07
-1.95685e-06
1.9179e-07
-1.9917e-06
1.77335e-07
-2.0256e-06
1.64582e-07
-2.05858e-06
1.53342e-07
-2.09061e-06
1.43419e-07
-2.12169e-06
1.34625e-07
-2.15179e-06
1.26786e-07
-2.1809e-06
1.19743e-07
-2.20899e-06
1.13357e-07
-2.23607e-06
1.07508e-07
-2.26212e-06
1.02096e-07
-2.28714e-06
9.70357e-08
-2.31112e-06
9.22581e-08
-2.33406e-06
8.77063e-08
-2.35596e-06
8.33343e-08
-2.3768e-06
7.91053e-08
-2.3966e-06
7.49897e-08
-2.41534e-06
7.09642e-08
-2.43301e-06
6.70103e-08
-2.44963e-06
6.31129e-08
-2.46517e-06
5.92602e-08
-2.47965e-06
5.54425e-08
-2.49306e-06
5.1652e-08
-2.50538e-06
4.78823e-08
-2.51664e-06
4.41282e-08
-2.5268e-06
4.03852e-08
-2.53589e-06
3.66489e-08
-2.5439e-06
3.29162e-08
-2.55082e-06
2.91819e-08
-2.55667e-06
2.54461e-08
-2.56143e-06
2.17067e-08
-2.56512e-06
1.7964e-08
-2.56774e-06
1.42197e-08
-2.56931e-06
1.04784e-08
-2.56983e-06
6.74487e-09
-2.56931e-06
3.02805e-09
-2.56775e-06
-6.64574e-10
-2.5651e-06
-4.33169e-09
-2.56132e-06
-7.9963e-09
-2.55638e-06
-1.16794e-08
-2.55026e-06
-1.53818e-08
-2.54295e-06
-1.90944e-08
-2.53444e-06
-2.28143e-08
-2.52474e-06
-2.65384e-08
-2.51383e-06
-3.02654e-08
-2.50171e-06
-3.3993e-08
-2.48839e-06
-3.77199e-08
-2.47387e-06
-4.14439e-08
-2.45814e-06
-4.51632e-08
-2.44121e-06
-4.88759e-08
-2.42307e-06
-5.25795e-08
-2.40374e-06
-5.62719e-08
-2.38322e-06
-5.99501e-08
-2.3615e-06
-6.36118e-08
-2.3386e-06
-6.72534e-08
-2.31452e-06
-7.08723e-08
-2.28927e-06
-7.44646e-08
-2.26285e-06
-7.80271e-08
-2.23529e-06
-8.15559e-08
-2.20659e-06
-8.50474e-08
-2.17677e-06
-8.84976e-08
-2.14583e-06
-9.1903e-08
-2.1138e-06
-9.52594e-08
-2.0807e-06
-9.85631e-08
-2.04654e-06
-1.0181e-07
-2.01134e-06
-1.04996e-07
-1.97513e-06
-1.08115e-07
-1.93793e-06
-1.11161e-07
-1.89977e-06
-1.14127e-07
-1.86067e-06
-1.17008e-07
-1.82065e-06
-1.198e-07
-1.77975e-06
-1.22494e-07
-1.73799e-06
-1.2509e-07
-1.69538e-06
-1.27591e-07
-1.65195e-06
-1.30003e-07
-1.60775e-06
-1.32351e-07
-1.56284e-06
-1.34625e-07
-1.51723e-06
-1.36797e-07
-1.47096e-06
-1.38865e-07
-1.42405e-06
-1.40831e-07
-1.37653e-06
-1.42693e-07
-1.32842e-06
-1.44451e-07
-1.27976e-06
-1.46109e-07
-1.23058e-06
-1.47668e-07
-1.18091e-06
-1.4913e-07
-1.13076e-06
-1.50505e-07
-1.08018e-06
-1.51801e-07
-1.02919e-06
-1.53014e-07
-9.77816e-07
-1.54164e-07
-9.26091e-07
-1.55235e-07
-8.74042e-07
-1.56223e-07
-8.21693e-07
-1.57119e-07
-7.69082e-07
-1.57922e-07
-7.16232e-07
-1.58636e-07
-6.63175e-07
-1.59269e-07
-6.09929e-07
-1.5984e-07
-5.56516e-07
-1.60351e-07
-5.0295e-07
-1.60827e-07
-4.49241e-07
-1.61271e-07
-3.95398e-07
-1.61692e-07
-3.41428e-07
-1.6209e-07
-2.8734e-07
-1.62462e-07
-2.33142e-07
-1.62804e-07
-1.78843e-07
-1.6312e-07
-1.24446e-07
-1.63417e-07
-6.99543e-08
-1.63707e-07
-1.53626e-08
-1.64003e-07
3.93307e-08
-1.64308e-07
9.41273e-08
-1.64612e-07
1.49018e-07
-1.64892e-07
2.03979e-07
-1.65096e-07
2.58957e-07
-1.65139e-07
3.13873e-07
-1.64872e-07
3.68586e-07
-1.6405e-07
4.22859e-07
-1.62231e-07
4.76309e-07
-1.58666e-07
5.28509e-07
-1.52176e-07
5.78525e-07
-1.40265e-07
-1.12531e-07
6.29953e-07
-1.64019e-10
1.161e-08
1.35417e-08
3.25918e-09
5.50041e-08
-3.82541e-08
1.18809e-07
-9.29796e-08
1.87007e-07
-1.38202e-07
2.45333e-07
-1.64298e-07
2.88356e-07
-1.724e-07
3.17182e-07
-1.67949e-07
3.35534e-07
-1.56232e-07
3.47145e-07
-1.40849e-07
3.54704e-07
-1.2381e-07
3.59818e-07
-1.06132e-07
3.63276e-07
-8.83213e-08
3.65429e-07
-7.06432e-08
3.66377e-07
-5.32491e-08
3.66159e-07
-3.62399e-08
3.64781e-07
-1.96898e-08
3.62295e-07
-3.66276e-09
3.5876e-07
1.17839e-08
3.54341e-07
2.66242e-08
3.49239e-07
4.08337e-08
3.4372e-07
5.43751e-08
3.37934e-07
6.71744e-08
3.31909e-07
7.90576e-08
3.25375e-07
8.96762e-08
3.17827e-07
9.8437e-08
3.08511e-07
1.0447e-07
2.96733e-07
1.06634e-07
2.82089e-07
1.03752e-07
2.64782e-07
9.48654e-08
2.45758e-07
7.93717e-08
2.26375e-07
5.76999e-08
2.06895e-07
3.24087e-08
1.83251e-07
1.06318e-08
1.48367e-07
1.26535e-09
9.98647e-08
7.40616e-09
3.88486e-08
2.75357e-08
-3.58193e-08
5.97038e-08
-1.26739e-07
1.01051e-07
-2.34441e-07
1.48496e-07
-3.575e-07
1.98698e-07
-4.93477e-07
2.4884e-07
-6.37027e-07
2.97039e-07
-7.81592e-07
3.41728e-07
-9.21079e-07
3.80735e-07
-1.05001e-06
4.11577e-07
-1.16476e-06
4.33378e-07
-1.26392e-06
4.4646e-07
-1.34713e-06
4.51144e-07
-1.41525e-06
4.48355e-07
-1.47019e-06
4.39195e-07
-1.51438e-06
4.24811e-07
-1.55062e-06
4.0641e-07
-1.58179e-06
3.85217e-07
-1.6102e-06
3.62504e-07
-1.63735e-06
3.39372e-07
-1.66431e-06
3.16576e-07
-1.69167e-06
2.94681e-07
-1.71973e-06
2.74061e-07
-1.74855e-06
2.54932e-07
-1.77795e-06
2.37421e-07
-1.80772e-06
2.21557e-07
-1.83764e-06
2.07259e-07
-1.86747e-06
1.94419e-07
-1.89703e-06
1.82896e-07
-1.92614e-06
1.72534e-07
-1.95469e-06
1.63176e-07
-1.98258e-06
1.54675e-07
-2.00973e-06
1.46893e-07
-2.03608e-06
1.3971e-07
-2.06159e-06
1.33019e-07
-2.08622e-06
1.26728e-07
-2.10995e-06
1.20762e-07
-2.13275e-06
1.15056e-07
-2.1546e-06
1.09557e-07
-2.17549e-06
1.04222e-07
-2.1954e-06
9.9017e-08
-2.21432e-06
9.39144e-08
-2.23225e-06
8.88921e-08
-2.24917e-06
8.39328e-08
-2.26508e-06
7.90226e-08
-2.27997e-06
7.41504e-08
-2.29383e-06
6.93075e-08
-2.30666e-06
6.44868e-08
-2.31846e-06
5.96826e-08
-2.32922e-06
5.48902e-08
-2.33894e-06
5.01057e-08
-2.34761e-06
4.53252e-08
-2.35524e-06
4.05443e-08
-2.36182e-06
3.57628e-08
-2.36735e-06
3.09754e-08
-2.37183e-06
2.61838e-08
-2.37525e-06
2.13876e-08
-2.37762e-06
1.65885e-08
-2.37892e-06
1.17889e-08
-2.37916e-06
6.99148e-09
-2.37832e-06
2.19935e-09
-2.37639e-06
-2.58764e-09
-2.37334e-06
-7.37447e-09
-2.36915e-06
-1.21762e-08
-2.36383e-06
-1.70022e-08
-2.35736e-06
-2.18518e-08
-2.34973e-06
-2.67175e-08
-2.34095e-06
-3.15956e-08
-2.33101e-06
-3.64811e-08
-2.31991e-06
-4.13722e-08
-2.30765e-06
-4.6265e-08
-2.29421e-06
-5.11581e-08
-2.27962e-06
-5.60482e-08
-2.26386e-06
-6.09333e-08
-2.24693e-06
-6.58108e-08
-2.22884e-06
-7.06775e-08
-2.20959e-06
-7.55307e-08
-2.18918e-06
-8.03663e-08
-2.16762e-06
-8.51815e-08
-2.14491e-06
-8.9971e-08
-2.12106e-06