/*--------------------------------*- C++ -*----------------------------------*\
| =========                 |                                                 |
| \\      /  F ield         | OpenFOAM: The Open Source CFD Toolbox           |
|  \\    /   O peration     | Version:  v2012                                 |
|   \\  /    A nd           | Website:  www.openfoam.com                      |
|    \\/     M anipulation  |                                                 |
\*---------------------------------------------------------------------------*/
FoamFile
{
    version     2.0;
    format      ascii;
    class       volScalarField;
    location    "383";
    object      epsilon;
}
// * * * * * * * * * * * * * * * * * * * * * * * * * * * * * * * * * * * * * //

dimensions      [0 2 -3 0 0 0 0];


internalField   nonuniform List<scalar> 
12225
(
1130.61
2610.92
3861.16
4651.12
5051.68
5192.52
5177.56
5114.76
5005.63
4882.69
4764.48
4653.39
4555.51
4464.82
4390.71
4317.17
4268.2
4200.24
80.18
273.128
458.359
608.699
717.681
788.351
828.718
852.768
867.827
877.409
885.935
893.339
902.052
910.602
920.225
930.204
938.672
952.825
23.9464
49.8392
83.3642
112.811
137.258
156.501
170.11
179.71
185.837
190.103
192.523
194.546
195.598
197.053
197.808
199.498
199.842
203.684
16.9682
20.7842
29.0058
37.1625
44.5735
51.1693
56.5302
61.0176
64.3864
67.1764
69.0971
70.739
71.7368
72.6759
73.1331
73.6736
73.7377
74.5471
15.2013
15.841
17.9274
20.5489
23.1929
25.7682
28.0359
30.1099
31.8161
33.3616
34.5567
35.6658
36.4523
37.2386
37.7125
38.2787
38.5
38.9774
14.8056
14.8033
15.2463
15.9343
16.854
17.8602
18.8177
19.7619
20.5874
21.3843
22.0368
22.6813
23.1647
23.6817
24.0118
24.4363
24.6208
25.0178
14.7767
14.5879
14.5932
14.6531
14.8386
15.1349
15.46
15.8254
16.1689
16.5291
16.8373
17.1623
17.4148
17.6999
17.8895
18.1421
18.2634
18.503
14.7732
14.5817
14.4543
14.3651
14.3443
14.3678
14.4289
14.5386
14.6585
14.8009
14.9284
15.0773
15.1949
15.3377
15.4343
15.5685
15.6357
15.7705
14.7698
14.5898
14.4319
14.2935
14.1845
14.1058
14.0525
14.0259
14.0263
14.0363
14.055
14.0931
14.1219
14.1696
14.1994
14.2502
14.2738
14.3339
14.7672
14.5938
14.4316
14.2807
14.143
14.0214
13.915
13.8246
13.7494
13.6899
13.6373
13.6007
13.5652
13.5443
13.5195
13.5094
13.4886
13.4912
14.7661
14.5944
14.4324
14.28
14.1364
14.0029
13.8784
13.7646
13.6591
13.5651
13.4773
13.4007
13.3281
13.2664
13.2057
13.1567
13.1039
13.0664
14.7658
14.5942
14.4323
14.2798
14.1356
13.9999
13.8715
13.7513
13.6375
13.5317
13.4314
13.3388
13.2506
13.17
13.0926
13.0226
12.9542
12.8937
14.7657
14.594
14.432
14.2794
14.1351
13.999
13.8701
13.7485
13.6332
13.5245
13.4213
13.324
13.2315
13.1446
13.0617
12.9839
12.9095
12.8399
14.7657
14.5939
14.4318
14.2789
14.1346
13.9982
13.8693
13.7473
13.6318
13.5224
13.4187
13.3204
13.227
13.1385
13.0544
12.9746
12.8986
12.8265
14.7657
14.5938
14.4316
14.2786
14.1341
13.9976
13.8686
13.7464
13.6308
13.5212
13.4173
13.3187
13.2251
13.1363
13.0518
12.9716
12.8952
12.8225
14.7657
14.5937
14.4315
14.2784
14.1338
13.9972
13.868
13.7458
13.63
13.5203
13.4162
13.3175
13.2238
13.1348
13.0502
12.9698
12.8933
12.8205
14.7657
14.5937
14.4314
14.2783
14.1336
13.9969
13.8677
13.7453
13.6294
13.5196
13.4155
13.3167
13.2229
13.1338
13.0491
12.9686
12.892
12.8191
14.7657
14.5937
14.4314
14.2782
14.1336
13.9968
13.8675
13.7451
13.6292
13.5193
13.4151
13.3163
13.2224
13.1332
13.0485
12.9679
12.8913
12.8183
14.7657
14.5937
14.4314
14.2782
14.1336
13.9969
13.8675
13.7451
13.6292
13.5193
13.4151
13.3162
13.2224
13.1332
13.0484
12.9679
12.8912
12.8183
14.7657
14.5937
14.4315
14.2783
14.1337
13.997
13.8677
13.7453
13.6294
13.5196
13.4154
13.3166
13.2227
13.1336
13.049
12.9685
12.8919
12.8191
14.7657
14.5937
14.4316
14.2784
14.1339
13.9972
13.868
13.7457
13.63
13.5203
13.4165
13.318
13.2247
13.1361
13.0523
12.9725
12.897
12.8251
14.7658
14.5937
14.4317
14.2785
14.1342
13.9977
13.8691
13.7477
13.6335
13.5257
13.4245
13.329
13.2396
13.155
13.0762
13.0012
12.9317
12.8651
14.7662
14.5934
14.4316
14.2786
14.136
14.0029
13.8804
13.7672
13.6643
13.5698
13.4847
13.4066
13.3367
13.2722
13.2152
13.1611
13.1148
13.0686
14.7672
14.591
14.4323
14.287
14.1648
14.0611
13.9791
13.9136
13.8678
13.8334
13.8135
13.8002
13.7971
13.7985
13.8037
13.8104
13.8249
13.8306
14.7652
14.5894
14.4737
14.4078
14.4177
14.4651
14.5511
14.6694
14.8151
14.9606
15.122
15.2715
15.4313
15.5713
15.7219
15.8446
15.9838
16.0852
14.7534
14.7161
14.9273
15.258
15.7985
16.3841
17.0184
17.6242
18.2438
18.8013
19.3627
19.8459
20.3358
20.7381
21.1581
21.4818
21.8407
22.0909
15.1012
15.7797
17.6385
19.7715
21.9904
24.0987
26.1597
28.005
29.7949
31.3201
32.8168
34.0208
35.2401
36.152
37.1314
37.7945
38.5797
39.0402
17.3032
24.2517
33.6564
42.1481
50.1485
57.5469
64.4987
70.6031
76.2523
80.902
85.2523
88.5341
91.7775
93.9267
96.3334
97.6222
99.4615
100.148
41.9881
92.2671
140.372
183.835
226.184
266.302
302.443
333.552
359.957
381.446
399.368
413.163
425.125
433.498
441.776
446.671
453.306
455.789
569.981
929.773
1287.43
1576.93
1844.37
2077.96
2271.58
2424.47
2538.81
2619.88
2672.52
2703.16
2715.56
2713.3
2704.21
2688.29
2666.26
2640.97
0.127306
0.12952
0.227275
0.337409
0.447088
0.550679
0.646453
0.73444
0.815452
0.890697
0.964454
1.0419
1.12367
1.21186
1.30849
1.41477
1.53104
1.657
1.79254
1.93892
2.10159
2.2942
2.54309
2.85575
3.22586
3.65457
4.14927
4.72007
5.37841
6.13546
7.0012
7.98239
9.08043
10.2932
11.6212
13.0633
14.6182
16.2845
18.06
19.9434
21.9339
24.0316
26.2384
28.5583
30.9982
33.5694
36.2888
39.1824
42.288
45.5375
48.9317
52.4761
56.1744
60.0311
64.0505
68.2371
72.5951
77.129
81.8428
86.7408
91.8268
97.1045
102.577
108.249
114.121
120.197
126.478
132.967
139.665
146.572
153.688
161.013
168.547
176.288
184.233
192.38
200.726
209.267
217.998
226.913
236.007
245.273
254.703
264.29
274.024
283.895
293.894
304.01
314.229
324.54
334.928
345.38
355.877
366.403
376.937
387.458
397.941
408.359
418.685
428.896
438.979
448.955
458.899
468.667
478.315
487.802
497.128
506.268
515.21
523.937
532.433
540.683
548.67
556.38
563.799
570.913
577.707
584.17
590.288
596.052
601.449
606.47
611.105
615.348
619.19
622.625
625.648
628.256
630.446
632.216
633.565
634.493
635.029
635.101
634.756
633.88
632.683
631.192
629.27
626.915
624.187
621.084
617.621
613.809
609.66
605.187
600.403
595.322
589.959
584.327
578.443
572.323
565.98
559.433
552.698
545.789
538.725
531.521
524.194
516.76
509.235
501.637
493.983
486.295
478.608
471.027
464.47
461.076
458.463
455.907
453.35
450.786
448.207
445.596
442.92
440.097
436.967
433.053
427.372
404.546
0.492834
0.300994
0.278222
0.290372
0.317537
0.352637
0.393592
0.440011
0.49232
0.551823
0.620451
0.700024
0.791457
0.896311
1.01645
1.15379
1.3102
1.48751
1.68761
1.91231
2.16261
2.44544
2.76967
3.13944
3.55576
4.02011
4.53499
5.10293
5.7255
6.40201
7.1279
7.89178
8.68686
9.52416
10.4022
11.3209
12.2806
13.2762
14.309
15.3803
16.492
17.6467
18.8473
20.0973
21.4005
22.7608
24.1819
25.6666
27.2149
28.8219
30.4905
32.2223
34.0189
35.8818
37.8126
39.8128
41.8836
44.0265
46.2426
48.5331
50.8988
53.3408
55.8598
58.4565
61.1313
63.8846
66.7166
69.6274
72.6168
75.6847
78.8304
82.0533
85.3526
88.7273
92.176
95.6973
99.2895
102.951
106.679
110.471
114.326
118.239
122.209
126.231
130.302
134.419
138.576
142.77
146.996
151.248
155.522
159.81
164.107
168.406
172.7
176.979
181.238
185.469
189.668
193.835
197.982
202.134
206.347
210.491
214.588
218.626
222.6
226.503
230.329
234.073
237.727
241.286
244.743
248.094
251.331
254.449
257.444
260.31
263.041
265.634
268.084
270.386
272.538
274.535
276.374
278.052
279.568
280.92
282.105
283.122
283.971
284.651
285.161
285.493
285.646
285.625
285.447
285.134
284.649
283.991
283.176
282.205
281.083
279.813
278.4
276.849
275.163
273.349
271.411
269.355
267.187
264.912
262.537
260.067
257.509
254.869
252.153
249.368
246.521
243.619
240.666
237.672
234.643
231.587
228.521
225.486
222.685
220.503
218.548
216.64
214.746
212.86
210.981
209.109
207.243
205.38
203.504
201.64
199.646
196.203
1.11644
0.557797
0.441166
0.416219
0.422754
0.446549
0.483601
0.532108
0.592133
0.66443
0.750542
0.852282
0.971417
1.1097
1.26882
1.4504
1.65604
1.88739
2.14636
2.43536
2.75789
3.11443
3.50405
3.92605
4.37955
4.86326
5.3757
5.91547
6.48146
7.07336
7.6929
8.34613
9.03748
9.76051
10.5159
11.2996
12.1024
12.9399
13.8142
14.727
15.68
16.6746
17.7125
18.795
19.9237
21.0997
22.3241
23.5979
24.9208
26.2929
27.7153
29.1891
30.7152
32.2946
33.9282
35.617
37.3618
39.1634
41.0225
42.9399
44.9161
46.9518
49.0472
51.203
53.4192
55.6962
58.0341
60.4327
62.8921
65.4119
67.9918
70.6312
73.3295
76.086
78.8996
81.7693
84.6939
87.6718
90.7016
93.7814
96.9093
100.083
103.301
106.559
109.856
113.189
116.554
119.948
123.367
126.808
130.267
133.739
137.22
140.706
144.193
147.675
151.15
154.616
158.07
161.513
164.95
168.385
171.807
175.189
178.53
181.825
185.068
188.254
191.378
194.435
197.42
200.327
203.151
205.889
208.535
211.084
213.532
215.876
218.11
220.231
222.236
224.12
225.882
227.517
229.024
230.4
231.643
232.752
233.725
234.56
235.258
235.817
236.236
236.512
236.635
236.639
236.504
236.245
235.85
235.318
234.657
233.869
232.957
231.925
230.775
229.513
228.14
226.663
225.084
223.409
221.641
219.787
217.849
215.835
213.748
211.594
209.378
207.106
204.782
202.412
200.001
197.555
195.081
192.585
190.079
187.589
185.198
183.031
180.983
178.98
176.999
175.033
173.085
171.157
169.255
167.391
165.578
163.886
162.297
160.766
1.81404
0.819939
0.621159
0.571334
0.570288
0.594671
0.637272
0.695855
0.770271
0.861388
0.970618
1.0996
1.24995
1.42311
1.62028
1.84238
2.0901
2.36392
2.66418
2.99104
3.34437
3.72326
4.12641
4.55259
5.00091
5.47085
5.9624
6.47611
7.0131
7.57503
8.16398
8.78206
9.43016
10.1075
10.8136
11.5521
12.3319
13.149
14.0042
14.8988
15.8341
16.8109
17.8296
18.8909
19.9954
21.1437
22.3357
23.5706
24.8502
26.1764
27.5501
28.9721
30.4435
31.965
33.5377
35.1623
36.8398
38.5709
40.3565
42.1973
44.0939
46.047
48.0571
50.1246
52.25
54.4337
56.6758
58.9766
61.3362
63.7544
66.2312
68.7661
71.3589
74.0089
76.7155
79.4778
82.2947
85.1651
88.0876
91.0607
94.0826
97.1515
100.265
103.421
106.618
109.851
113.119
116.418
119.745
123.097
126.47
129.859
133.262
136.675
140.093
143.513
146.932
150.347
153.756
157.157
160.549
163.925
167.277
170.593
173.868
177.097
180.275
183.396
186.456
189.448
192.368
195.21
197.97
200.643
203.224
205.708
208.091
210.368
212.537
214.592
216.531
218.349
220.045
221.614
223.055
224.365
225.543
226.586
227.494
228.265
228.898
229.393
229.75
229.958
230.028
229.977
229.787
229.469
229.017
228.433
227.722
226.886
225.928
224.852
223.662
222.36
220.952
219.442
217.833
216.13
214.338
212.462
210.506
208.477
206.377
204.214
201.992
199.716
197.391
195.024
192.618
190.181
187.717
185.234
182.742
180.259
177.828
175.505
173.258
171.051
168.87
166.712
164.579
162.476
160.413
158.408
156.484
154.713
153.103
151.732
2.45723
1.06577
0.807796
0.742463
0.738832
0.767461
0.818807
0.889729
0.979665
1.08922
1.21949
1.37169
1.5469
1.74589
1.96907
2.21643
2.48765
2.78216
3.09922
3.43798
3.79754
4.17702
4.57573
4.99338
5.43016
5.88677
6.36439
6.86458
7.3891
7.93987
8.51871
9.12724
9.76673
10.4383
11.1433
11.8839
12.6621
13.478
14.3323
15.2256
16.1583
17.1314
18.1461
19.2031
20.3032
21.4472
22.6359
23.871
25.1529
26.4818
27.8587
29.2844
30.7602
32.2868
33.8655
35.4971
37.1828
38.9235
40.7203
42.5744
44.4866
46.4576
48.4879
50.5785
52.73
54.9431
57.2182
59.5558
61.9563
64.4199
66.9467
69.5367
72.1897
74.9054
77.6834
80.5229
83.4232
86.3833
89.4018
92.4775
95.6086
98.7933
102.03
105.315
108.647
112.023
115.44
118.895
122.384
125.904
129.451
133.02
136.609
140.213
143.828
147.449
151.073
154.695
158.312
161.918
165.507
169.073
172.61
176.109
179.564
182.971
186.323
189.613
192.837
195.988
199.061
202.049
204.949
207.754
210.459
213.059
215.55
217.926
220.184
222.319
224.328
226.206
227.952
229.561
231.031
232.36
233.546
234.587
235.482
236.23
236.83
237.282
237.582
237.721
237.732
237.597
237.318
236.899
236.339
235.641
234.807
233.842
232.749
231.532
230.194
228.741
227.175
225.503
223.729
221.858
219.894
217.844
215.713
213.505
211.227
208.884
206.482
204.026
201.522
198.976
196.393
193.779
191.14
188.484
185.818
183.158
180.53
177.962
175.446
172.968
170.519
168.101
165.715
163.37
161.079
158.861
156.748
154.803
153.039
151.471
2.99685
1.30793
1.00028
0.922912
0.918384
0.952116
1.01231
1.09476
1.19826
1.3229
1.46926
1.63796
1.82944
2.04378
2.28067
2.53948
2.81933
3.11921
3.43817
3.77535
4.13016
4.50234
4.89203
5.29982
5.72672
6.17411
6.64362
7.13707
7.65628
8.20306
8.77907
9.38586
10.0248
10.6973
11.4047
12.1482
12.9292
13.7484
14.6066
15.5046
16.4433
17.4237
18.4466
19.5131
20.624
21.7803
22.9831
24.2333
25.5319
26.8799
28.2783
29.7282
31.231
32.7879
34.4001
36.069
37.7957
39.5816
41.4278
43.3356
45.306
47.3406
49.4406
51.6072
53.8413
56.144
58.5162
60.9586
63.472
66.057
68.7139
71.4429
74.2443
77.1178
80.0633
83.0802
86.1679
89.3253
92.5513
95.8444
99.203
102.625
106.109
109.651
113.249
116.9
120.601
124.348
128.137
131.965
135.826
139.717
143.633
147.569
151.519
155.48
159.445
163.41
167.367
171.312
175.237
179.135
182.999
186.821
190.596
194.315
197.974
201.563
205.078
208.512
211.857
215.108
218.259
221.303
224.235
227.049
229.74
232.303
234.732
237.024
239.174
241.178
243.033
244.736
246.283
247.672
248.902
249.97
250.876
251.619
252.198
252.612
252.85
252.928
252.856
252.622
252.23
251.682
250.981
250.129
249.13
247.988
246.706
245.29
243.744
242.072
240.281
238.374
236.359
234.24
232.023
229.714
227.319
224.844
222.296
219.68
217.003
214.271
211.49
208.667
205.807
202.917
200.004
197.074
194.135
191.201
188.288
185.414
182.58
179.783
177.021
174.294
171.609
168.975
166.406
163.926
161.566
159.381
157.371
155.486
3.42822
1.53123
1.18829
1.10276
1.09842
1.13693
1.20458
1.29612
1.40966
1.54469
1.70122
1.8793
2.07883
2.2994
2.54034
2.80074
3.07966
3.37616
3.68952
4.01931
4.36546
4.72832
5.10861
5.50744
5.92618
6.36646
6.82999
7.31854
7.83384
8.37755
8.95124
9.55637
10.1943
10.8665
11.5741
12.3185
13.1008
13.922
14.7831
15.6853
16.6296
17.6171
18.6489
19.7261
20.8498
22.0213
23.2417
24.5122
25.8342
27.209
28.638
30.1226
31.6645
33.2652
34.9263
36.6495
38.4363
40.2885
42.2077
44.1955
46.2536
48.3838
50.5876
52.8666
55.2224
57.6563
60.1696
62.7635
65.4391
68.1974
71.0389
73.9644
76.9742
80.0684
83.247
86.5095
89.8554
93.2838
96.7934
100.383
104.05
107.793
111.61
115.497
119.452
123.47
127.549
131.684
135.87
140.103
144.378
148.69
153.033
157.401
161.788
166.188
170.594
175
179.398
183.781
188.14
192.469
196.758
201
205.188
209.313
213.367
217.343
221.234
225.031
228.728
232.317
235.791
239.143
242.367
245.456
248.405
251.207
253.857
256.351
258.683
260.849
262.846
264.67
266.318
267.787
269.076
270.183
271.106
271.846
272.402
272.77
272.941
272.945
272.77
272.416
271.885
271.182
270.308
269.268
268.066
266.706
265.192
263.531
261.727
259.787
257.716
255.52
253.206
250.78
248.25
245.62
242.899
240.093
237.21
234.255
231.237
228.162
225.036
221.868
218.663
215.429
212.172
208.901
205.622
202.347
199.089
195.861
192.669
189.514
186.397
183.323
180.3
177.338
174.454
171.67
169.017
166.542
164.229
161.98
3.75997
1.73189
1.36508
1.2737
1.26949
1.3114
1.38417
1.48162
1.6012
1.74183
1.90302
2.08438
2.28547
2.50564
2.74412
3.00008
3.27274
3.56147
3.86594
4.18614
4.52245
4.87559
5.24661
5.6368
6.04766
6.48079
6.9379
7.42065
7.93068
8.46955
9.03876
9.63973
10.2738
10.9424
11.647
12.3889
13.1694
13.9899
14.8515
15.7556
16.7035
17.6966
18.7362
19.8237
20.9606
22.1479
23.3875
24.6808
26.0296
27.4354
28.9002
30.426
32.0147
33.6684
35.3889
37.1785
39.0392
40.9732
42.9826
45.0697
47.2364
49.4852
51.818
54.2369
56.7439
59.341
62.0298
64.812
67.6891
70.6625
73.7331
76.902
80.1698
83.5367
87.003
90.5682
94.232
97.9934
101.851
105.803
109.848
113.983
118.206
122.512
126.899
131.363
135.898
140.5
145.165
149.885
154.656
159.471
164.322
169.205
174.11
179.03
183.958
188.885
193.802
198.701
203.573
208.408
213.198
217.932
222.603
227.201
231.718
236.144
240.471
244.69
248.793
252.771
256.617
260.323
263.88
267.283
270.525
273.599
276.498
279.219
281.755
284.101
286.254
288.211
289.967
291.521
292.869
294.012
294.947
295.676
296.196
296.5
296.596
296.498
296.197
295.696
294.999
294.109
293.03
291.767
290.323
288.706
286.92
284.971
282.866
280.611
278.214
275.681
273.02
270.238
267.342
264.341
261.242
258.053
254.782
251.435
248.023
244.551
241.027
237.461
233.858
230.227
226.575
222.909
219.239
215.574
211.925
208.302
204.715
201.167
197.663
194.209
190.815
187.493
184.259
181.137
178.153
175.348
172.692
170.057
4.14158
1.93655
1.53519
1.43299
1.42573
1.46789
1.54251
1.64235
1.7641
1.90614
2.06754
2.24763
2.44576
2.66127
2.89345
3.14166
3.40541
3.68439
3.97863
4.28841
4.61439
4.9575
5.31892
5.69996
6.10196
6.52648
6.97529
7.45003
7.95231
8.48368
9.04574
9.64012
10.2687
10.9322
11.6321
12.3696
13.1464
13.964
14.8237
15.7273
16.6763
17.6723
18.7172
19.8128
20.9611
22.165
23.4254
24.7441
26.1227
27.5633
29.0687
30.6415
32.2842
33.9992
35.7892
37.6568
39.6045
41.6352
43.7515
45.9562
48.2521
50.6419
53.1283
55.7138
58.4011
61.1926
64.0906
67.0971
70.2142
73.4436
76.7866
80.2446
83.8184
87.5085
91.3152
95.2383
99.2772
103.431
107.698
112.076
116.563
121.157
125.853
130.648
135.537
140.517
145.58
150.722
155.937
161.217
166.556
171.945
177.378
182.845
188.338
193.847
199.364
204.878
210.379
215.858
221.303
226.704
232.051
237.334
242.541
247.662
252.689
257.609
262.414
267.094
271.638
276.039
280.286
284.371
288.286
292.023
295.575
298.934
302.093
305.048
307.792
310.32
312.629
314.713
316.571
318.198
319.594
320.758
321.687
322.384
322.846
323.064
323.06
322.828
322.37
321.691
320.794
319.683
318.362
316.837
315.114
313.199
311.099
308.821
306.372
303.76
300.993
298.078
295.026
291.842
288.537
285.12
281.597
277.98
274.275
270.492
266.64
262.728
258.763
254.754
250.71
246.639
242.549
238.448
234.346
230.25
226.172
222.122
218.109
214.139
210.219
206.358
202.565
198.854
195.242
191.751
188.407
185.24
182.212
179.178
4.97977
2.21792
1.71645
1.5835
1.56488
1.60195
1.67437
1.77299
1.89346
2.03352
2.19185
2.36755
2.55989
2.76825
2.99206
3.23091
3.48453
3.75294
4.03637
4.33526
4.6502
4.98256
5.33369
5.70515
6.09876
6.51592
6.95754
7.42502
7.91988
8.44368
8.99794
9.58418
10.2037
10.8583
11.5494
12.279
13.0489
13.8608
14.7167
15.6185
16.5682
17.5678
18.6193
19.725
20.8868
22.1068
23.3875
24.7317
26.143
27.6233
29.1757
30.8033
32.5094
34.2969
36.169
38.1289
40.1799
42.3254
44.5688
46.9134
49.3628
51.9202
54.589
57.3724
60.2736
63.2956
66.4412
69.7129
73.1133
76.6444
80.308
84.1055
88.038
92.1063
96.3104
100.65
105.125
109.733
114.473
119.343
124.339
129.457
134.695
140.047
145.508
151.072
156.733
162.483
168.315
174.222
180.194
186.223
192.299
198.413
204.553
210.709
216.87
223.025
229.161
235.268
241.333
247.344
253.289
259.157
264.935
270.612
276.176
281.617
286.922
292.081
297.083
301.918
306.576
311.048
315.324
319.395
323.254
326.893
330.305
333.483
336.422
339.116
341.562
343.754
345.69
347.367
348.783
349.939
350.832
351.465
351.833
351.939
351.792
351.39
350.738
349.842
348.705
347.331
345.728
343.9
341.856
339.602
337.146
334.496
331.661
328.649
325.47
322.133
318.647
315.021
311.266
307.391
303.406
299.32
295.144
290.886
286.557
282.167
277.723
273.237
268.716
264.171
259.609
255.039
250.471
245.914
241.378
236.873
232.409
227.993
223.634
219.342
215.128
211.005
206.992
203.109
199.379
195.828
192.407
188.967
5.87549
2.50205
1.88657
1.71585
1.68149
1.70973
1.77671
1.87114
1.98759
2.12315
2.27613
2.44545
2.63034
2.83021
3.04467
3.27343
3.5163
3.77368
4.04628
4.33509
4.64164
4.966
5.3091
5.67211
6.05615
6.46241
6.89243
7.348
7.83075
8.34231
8.88428
9.45832
10.0662
10.7098
11.3914
12.1128
12.8759
13.6828
14.5358
15.4371
16.3892
17.3944
18.4552
19.5744
20.7547
21.9989
23.31
24.6914
26.1455
27.6746
29.2842
30.9795
32.7637
34.6406
36.6138
38.6874
40.8652
43.1513
45.5499
48.0652
50.7013
53.4622
56.3519
59.3744
62.5333
65.8322
69.2744
72.8631
76.6009
80.4902
84.5331
88.7312
93.0855
97.5967
102.265
107.089
112.069
117.202
122.486
127.918
133.494
139.21
145.06
151.04
157.141
163.358
169.683
176.107
182.621
189.215
195.88
202.605
209.378
216.188
223.023
229.871
236.718
243.551
250.358
257.125
263.837
270.482
277.046
283.516
289.879
296.121
302.229
308.192
313.997
319.631
325.083
330.343
335.398
340.239
344.856
349.239
353.381
357.273
360.907
364.277
367.377
370.202
372.747
375.008
376.982
378.667
380.062
381.165
381.978
382.5
382.733
382.68
382.343
381.724
380.831
379.671
378.248
376.567
374.635
372.459
370.049
367.411
364.555
361.491
358.228
354.776
351.144
347.345
343.387
339.281
335.039
330.671
326.188
321.601
316.919
312.155
307.318
302.419
297.468
292.475
287.45
282.403
277.343
272.28
267.222
262.18
257.164
252.184
247.249
242.37
237.555
232.815
228.163
223.612
219.18
214.887
210.752
206.799
202.973
199.125
6.74
2.76359
2.03425
1.82427
1.77227
1.78948
1.84877
1.93687
2.0473
2.17659
2.32273
2.48449
2.66096
2.85163
3.0565
3.27576
3.51017
3.75953
4.02394
4.30382
4.59941
4.91194
5.24281
5.5933
5.9647
6.35862
6.77681
7.22066
7.69176
8.1918
8.72259
9.28602
9.88409
10.519
11.1929
11.9082
12.6672
13.4724
14.3265
15.2322
16.1925
17.2102
18.2884
19.4303
20.6395
21.9199
23.274
24.7044
26.214
27.8113
29.5002
31.2851
33.1724
35.1665
37.2716
39.4924
41.8334
44.2998
46.8964
49.6281
52.4999
55.5164
58.6823
62.0021
65.48
69.1201
72.9261
76.9013
81.0486
85.3706
89.8692
94.5459
99.4015
104.436
109.65
115.041
120.607
126.347
132.256
138.331
144.566
150.956
157.495
164.174
170.987
177.925
184.977
192.135
199.387
206.722
214.128
221.592
229.103
236.645
244.206
251.771
259.325
266.854
274.343
281.777
289.14
296.417
303.594
310.656
317.589
324.377
331.008
337.467
343.741
349.817
355.683
361.327
366.737
371.903
376.813
381.46
385.832
389.923
393.725
397.231
400.435
403.331
405.916
408.186
410.138
411.771
413.083
414.074
414.746
415.1
415.138
414.868
414.28
413.388
412.2
410.722
408.959
406.918
404.607
402.034
399.209
396.142
392.842
389.321
385.588
381.655
377.534
373.234
368.77
364.151
359.39
354.498
349.488
344.371
339.159
333.862
328.493
323.063
317.583
312.063
306.514
300.947
295.371
289.797
284.234
278.692
273.182
267.713
262.297
256.943
251.662
246.464
241.364
236.375
231.513
226.799
222.248
217.883
213.645
209.392
7.54638
2.99462
2.15582
1.90715
1.83677
1.84176
1.89191
1.9722
2.07525
2.197
2.33542
2.48937
2.6584
2.84214
3.03985
3.25124
3.47593
3.71425
3.96706
4.2351
4.51933
4.82104
5.14121
5.48102
5.84185
6.22523
6.63279
7.06622
7.52728
8.01787
8.54003
9.09594
9.68792
10.3185
10.9903
11.706
12.4685
13.2807
14.1457
15.067
16.0486
17.0939
18.2061
19.3887
20.6444
21.9753
23.3888
24.8915
26.49
28.1894
29.9946
31.9115
33.9462
36.1048
38.3927
40.8153
43.3784
46.0878
48.9492
51.9683
55.1507
58.5017
62.0264
65.7296
69.616
73.6897
77.9545
82.4137
87.07
91.9256
96.9821
102.24
107.7
113.361
119.221
125.279
131.531
137.973
144.601
151.408
158.388
165.534
172.838
180.29
187.88
195.599
203.435
211.375
219.408
227.519
235.696
243.924
252.188
260.473
268.763
277.043
285.296
293.506
301.656
309.73
317.712
325.584
333.332
340.939
348.389
355.668
362.76
369.651
376.327
382.775
388.982
394.935
400.622
406.032
411.155
415.982
420.502
424.708
428.592
432.148
435.371
438.254
440.795
442.991
444.838
446.336
447.485
448.285
448.739
448.849
448.626
448.058
447.151
445.92
444.371
442.513
440.35
437.891
435.146
432.124
428.835
425.291
421.503
417.481
413.239
408.788
404.141
399.31
394.308
389.147
383.841
378.402
372.843
367.175
361.413
355.567
349.651
343.676
337.654
331.595
325.512
319.416
313.316
307.223
301.148
295.1
289.091
283.13
277.229
271.398
265.648
259.991
254.439
249.009
243.715
238.575
233.605
228.825
224.177
219.526
8.28169
3.19264
2.25115
1.96558
1.87623
1.86891
1.90902
1.98065
2.07609
2.19148
2.32386
2.47146
2.63302
2.80769
2.9956
3.19681
3.41164
3.64067
3.88436
4.14343
4.4188
4.71157
5.02292
5.3542
5.70689
6.08263
6.48322
6.91062
7.36683
7.85404
8.37461
8.93109
9.52625
10.1632
10.8454
11.5762
12.3585
13.196
14.0922
15.0503
16.0725
17.1635
18.3294
19.576
20.909
22.3356
23.8608
25.4912
27.2336
29.0945
31.0803
33.1981
35.4556
37.8588
40.4145
43.1298
46.0112
49.0656
52.2992
55.7184
59.3289
63.1364
67.146
71.3624
75.7899
80.4324
85.293
90.3742
95.678
101.205
106.956
112.931
119.127
125.543
132.175
139.02
146.072
153.324
160.772
168.405
176.217
184.196
192.334
200.619
209.039
217.581
226.232
234.978
243.806
252.699
261.642
270.619
279.615
288.611
297.591
306.538
315.435
324.263
333.005
341.643
350.161
358.541
366.767
374.821
382.687
390.35
397.794
405.005
411.969
418.671
425.099
431.24
437.083
442.616
447.83
452.714
457.26
461.46
465.307
468.795
471.92
474.676
477.06
479.071
480.706
481.966
482.85
483.361
483.502
483.286
482.702
481.749
480.446
478.798
476.817
474.508
471.88
468.942
465.705
462.179
458.376
454.308
449.987
445.426
440.638
435.636
430.434
425.044
419.48
413.757
407.887
401.884
395.762
389.533
383.212
376.81
370.341
363.817
357.25
350.652
344.035
337.411
330.789
324.181
317.598
311.049
304.546
298.099
291.72
285.418
279.206
273.095
267.099
261.233
255.511
249.951
244.567
239.378
234.326
229.293
8.94367
3.35794
2.32171
2.0019
1.89401
1.87492
1.90596
1.97057
2.05933
2.16695
2.29111
2.43036
2.58378
2.75104
2.9318
3.12605
3.33408
3.55639
3.79366
4.04674
4.31666
4.60459
4.91187
5.24005
5.59082
5.96612
6.36822
6.79995
7.26333
7.76092
8.29557
8.87034
9.48834
10.1525
10.8647
11.6294
12.4522
13.338
14.2919
15.3192
16.4266
17.6197
18.9043
20.2871
21.7755
23.3773
25.0996
26.9499
28.9359
31.0655
33.3467
35.7874
38.396
41.1807
44.15
47.3117
50.673
54.2409
58.0223
62.0231
66.2485
70.7034
75.3919
80.3175
85.4831
90.8909
96.5423
102.438
108.577
114.959
121.582
128.442
135.536
142.859
150.404
158.166
166.136
174.305
182.665
191.205
199.914
208.78
217.791
226.933
236.193
245.556
255.007
264.53
274.11
283.73
293.373
303.022
312.66
322.27
331.832
341.329
350.743
360.056
369.25
378.307
387.21
395.94
404.481
412.817
420.93
428.807
436.43
443.787
450.862
457.643
464.118
470.273
476.098
481.582
486.716
491.491
495.898
499.93
503.582
506.848
509.724
512.206
514.291
515.98
517.27
518.164
518.659
518.764
518.496
517.831
516.779
515.353
513.562
511.414
508.92
506.087
502.925
499.444
495.656
491.573
487.208
482.572
477.68
472.545
467.181
461.602
455.822
449.855
443.716
437.418
430.976
424.404
417.717
410.927
404.049
397.095
390.08
383.016
375.915
368.789
361.651
354.512
347.384
340.277
333.201
326.169
319.189
312.273
305.433
298.678
292.021
285.473
279.049
272.762
266.628
260.661
254.876
249.292
243.852
238.458
9.54188
3.49246
2.36991
2.01946
1.89497
1.86637
1.88862
1.94452
2.0253
2.12631
2.24466
2.37866
2.52734
2.69019
2.86702
3.05793
3.2633
3.48379
3.72038
3.97449
4.2472
4.53988
4.85421
5.19207
5.55552
5.9467
6.36756
6.81914
7.30593
7.83191
8.40101
9.01737
9.68542
10.4101
11.1973
12.0526
12.9815
13.9903
15.0861
16.2762
17.5687
18.9719
20.4935
22.1423
23.9271
25.8569
27.9411
30.1886
32.6086
35.2102
38.0021
40.9926
44.1883
47.5992
51.2376
55.1121
59.2278
63.5913
68.2087
73.0837
78.219
83.616
89.2756
95.198
101.383
107.828
114.532
121.491
128.701
136.158
143.855
151.787
159.944
168.32
176.904
185.688
194.66
203.809
213.123
222.589
232.195
241.927
251.769
261.709
271.73
281.817
291.954
302.125
312.314
322.503
332.675
342.813
352.9
362.918
372.849
382.675
392.379
401.942
411.348
420.579
429.618
438.449
447.054
455.419
463.527
471.364
478.916
486.168
493.108
499.724
506.004
511.936
517.511
522.718
527.55
531.997
536.054
539.714
542.972
545.823
548.265
550.295
551.91
553.114
553.9
554.283
554.244
553.839
552.998
551.766
550.145
548.142
545.767
543.03
539.942
536.511
532.747
528.662
524.269
519.581
514.61
509.371
503.878
498.144
492.184
486.013
479.645
473.095
466.377
459.507
452.499
445.368
438.127
430.79
423.373
415.888
408.348
400.767
393.156
385.53
377.899
370.274
362.668
355.091
347.554
340.068
332.642
325.288
318.017
310.839
303.766
296.81
289.985
283.304
276.782
270.434
264.27
258.315
252.51
246.785
10.1278
3.6076
2.40238
2.02411
1.88559
1.84675
1.86114
1.9115
1.98821
2.08622
2.20268
2.33612
2.48561
2.65064
2.83118
3.02754
3.24035
3.4704
3.71849
3.98497
4.27219
4.58265
4.91881
5.28338
5.67938
6.11015
6.57957
7.09266
7.65343
8.267
8.93911
9.67607
10.4847
11.3725
12.3478
13.4191
14.5949
15.8845
17.2979
18.8454
20.5378
22.3862
24.4013
26.5941
28.9753
31.5556
34.3457
37.3559
40.5957
44.074
47.7988
51.778
56.0176
60.523
65.297
70.3436
75.6689
81.2815
87.1892
93.3868
99.8684
106.627
113.658
120.952
128.505
136.308
144.354
152.634
161.14
169.861
178.788
187.91
197.217
206.696
216.337
226.127
236.054
246.103
256.264
266.521
276.861
287.271
297.735
308.24
318.77
329.311
339.847
350.364
360.846
371.276
381.64
391.92
402.102
412.168
422.102
431.889
441.511
450.953
460.199
469.232
478.038
486.601
494.907
502.942
510.69
518.14
525.277
532.089
538.566
544.696
550.469
555.875
560.904
565.549
569.802
573.657
577.107
580.146
582.774
584.985
586.777
588.152
589.096
589.637
589.737
589.462
588.755
587.635
586.113
584.196
581.891
579.207
576.153
572.742
568.983
564.884
560.459
555.719
550.677
545.347
539.742
533.877
527.766
521.423
514.864
508.102
501.152
494.031
486.751
479.329
471.778
464.114
456.35
448.501
440.58
432.601
424.577
416.52
408.444
400.361
392.282
384.218
376.181
368.181
360.229
352.335
344.509
336.762
329.104
321.547
314.101
306.779
299.593
292.557
285.684
278.989
272.483
266.189
260.053
254.035
10.7483
3.71203
2.42329
2.02052
1.87063
1.8273
1.84037
1.89197
1.97212
2.0755
2.19901
2.3405
2.49923
2.67556
2.87009
3.08376
3.31792
3.57432
3.85525
4.16385
4.50295
4.87603
5.28724
5.74137
6.24394
6.80117
7.42005
8.10854
8.87476
9.72783
10.678
11.7363
12.9147
14.2258
15.683
17.3
19.0912
21.0709
23.2533
25.6525
28.2822
31.156
34.287
37.6859
41.3619
45.3236
49.5796
54.1375
59.0012
64.1723
69.6527
75.446
81.5509
87.9602
94.6646
101.654
108.921
116.455
124.248
132.319
140.647
149.207
157.984
166.964
176.133
185.478
194.987
204.649
214.45
224.379
234.426
244.577
254.823
265.151
275.55
286.01
296.519
307.065
317.638
328.226
338.818
349.403
359.968
370.502
380.994
391.43
401.8
412.091
422.29
432.384