/*--------------------------------*- C++ -*----------------------------------*\
| =========                 |                                                 |
| \\      /  F ield         | OpenFOAM: The Open Source CFD Toolbox           |
|  \\    /   O peration     | Version:  v2012                                 |
|   \\  /    A nd           | Website:  www.openfoam.com                      |
|    \\/     M anipulation  |                                                 |
\*---------------------------------------------------------------------------*/
FoamFile
{
    version     2.0;
    format      ascii;
    class       volScalarField;
    location    "383";
    object      k;
}
// * * * * * * * * * * * * * * * * * * * * * * * * * * * * * * * * * * * * * //

dimensions      [0 2 -2 0 0 0 0];


internalField   nonuniform List<scalar> 
12225
(
0.580115
1.01393
1.31595
1.48985
1.5742
1.60332
1.59948
1.58791
1.56447
1.53886
1.51395
1.49033
1.46936
1.44979
1.43371
1.41765
1.40692
1.39191
0.439535
0.502324
0.527841
0.540381
0.547608
0.551484
0.553408
0.555474
0.558584
0.562484
0.568164
0.574576
0.582698
0.591086
0.600761
0.610339
0.620267
0.631175
0.388917
0.419293
0.426262
0.423544
0.416654
0.406288
0.394572
0.383311
0.371984
0.36228
0.352777
0.345486
0.338166
0.33337
0.328075
0.325463
0.321851
0.3209
0.377498
0.384036
0.387876
0.387456
0.385374
0.381531
0.376097
0.370132
0.363726
0.357316
0.350876
0.344696
0.338697
0.333032
0.327726
0.322696
0.318142
0.313745
0.374396
0.374947
0.375811
0.375439
0.374318
0.372298
0.369566
0.366323
0.362844
0.35907
0.355316
0.35136
0.347644
0.343732
0.340223
0.336474
0.33329
0.329762
0.373813
0.372291
0.371498
0.370528
0.369351
0.367813
0.366009
0.363893
0.36167
0.359221
0.3568
0.354203
0.35174
0.349117
0.346718
0.344147
0.341882
0.339413
0.373805
0.371647
0.369948
0.368414
0.366967
0.365458
0.363912
0.362241
0.360543
0.358736
0.356946
0.355065
0.353254
0.351363
0.349583
0.347727
0.346019
0.344225
0.373826
0.371562
0.369557
0.367734
0.366065
0.364456
0.362907
0.361341
0.359801
0.358225
0.356684
0.355107
0.353581
0.352027
0.350541
0.349029
0.347606
0.346147
0.373832
0.371558
0.36945
0.36749
0.365681
0.363973
0.362365
0.360804
0.359304
0.357821
0.356388
0.354963
0.353584
0.352211
0.350892
0.349576
0.348323
0.347065
0.373831
0.371562
0.369425
0.367408
0.36552
0.363739
0.362066
0.360472
0.358959
0.3575
0.356104
0.354748
0.353447
0.352177
0.350956
0.349763
0.348619
0.347495
0.373829
0.371561
0.369417
0.367384
0.365465
0.363647
0.361932
0.360304
0.358763
0.357293
0.355896
0.354557
0.35328
0.352051
0.350876
0.349743
0.348656
0.347608
0.373828
0.371558
0.36941
0.367373
0.365444
0.363613
0.361879
0.360233
0.358671
0.357187
0.355776
0.354432
0.353152
0.35193
0.350765
0.34965
0.348584
0.347564
0.373827
0.371556
0.369404
0.367365
0.365431
0.363596
0.361855
0.3602
0.358629
0.357135
0.355714
0.354362
0.353075
0.351848
0.350679
0.349564
0.348499
0.347484
0.373826
0.371554
0.3694
0.367358
0.365422
0.363583
0.361838
0.36018
0.358604
0.357105
0.355679
0.354322
0.353029
0.351797
0.350623
0.349504
0.348436
0.347417
0.373826
0.371552
0.369397
0.367353
0.365414
0.363574
0.361826
0.360165
0.358586
0.357084
0.355655
0.354294
0.352998
0.351763
0.350585
0.349462
0.348391
0.347369
0.373825
0.371551
0.369395
0.367349
0.365409
0.363566
0.361816
0.360153
0.358572
0.357068
0.355636
0.354273
0.352974
0.351737
0.350557
0.349432
0.348358
0.347334
0.373825
0.371551
0.369393
0.367347
0.365405
0.363561
0.36181
0.360145
0.358563
0.357057
0.355623
0.354259
0.352958
0.351719
0.350537
0.34941
0.348335
0.347309
0.373825
0.371551
0.369393
0.367346
0.365404
0.363559
0.361807
0.360142
0.358558
0.357051
0.355617
0.354251
0.35295
0.35171
0.350527
0.349399
0.348323
0.347296
0.373825
0.371551
0.369393
0.367347
0.365404
0.36356
0.361808
0.360142
0.358558
0.357051
0.355617
0.354251
0.352949
0.351709
0.350526
0.349398
0.348322
0.347294
0.373825
0.371551
0.369394
0.367348
0.365406
0.363562
0.361811
0.360146
0.358562
0.357056
0.355621
0.354256
0.352955
0.351715
0.350533
0.349405
0.348329
0.347303
0.373826
0.371552
0.369396
0.367351
0.36541
0.363567
0.361816
0.360152
0.35857
0.357065
0.355633
0.354269
0.35297
0.351733
0.350552
0.349427
0.348353
0.347328
0.373826
0.371553
0.369398
0.367354
0.365415
0.363575
0.361828
0.360169
0.358594
0.357096
0.355671
0.354314
0.353021
0.351789
0.350613
0.349491
0.348419
0.347393
0.373826
0.371555
0.3694
0.367362
0.365432
0.363609
0.361883
0.360248
0.358696
0.357221
0.355815
0.354473
0.353188
0.351959
0.350779
0.349647
0.348559
0.347513
0.373827
0.371552
0.369412
0.367421
0.365553
0.363808
0.362158
0.360594
0.359094
0.357654
0.356258
0.354908
0.353595
0.35232
0.351079
0.349873
0.348698
0.34756
0.373822
0.371558
0.369582
0.367836
0.366207
0.364685
0.363186
0.36171
0.360218
0.358731
0.35723
0.355738
0.354246
0.352773
0.351304
0.349869
0.348446
0.347063
0.373798
0.371902
0.370812
0.36977
0.368646
0.367457
0.366005
0.364415
0.36264
0.360799
0.358851
0.35689
0.354876
0.35288
0.350869
0.348907
0.346942
0.345043
0.374232
0.374678
0.376478
0.376461
0.375885
0.374659
0.372441
0.369963
0.367114
0.364206
0.361091
0.358016
0.354831
0.35174
0.348606
0.345577
0.342556
0.339663
0.378898
0.390349
0.398468
0.398212
0.396221
0.392669
0.387958
0.383154
0.377887
0.372755
0.367388
0.362243
0.357073
0.352133
0.34737
0.342781
0.338563
0.334393
0.401212
0.430069
0.440451
0.444213
0.447068
0.450288
0.453168
0.455998
0.458396
0.460667
0.462695
0.464553
0.466514
0.468151
0.470305
0.47191
0.474556
0.476124
0.464848
0.644134
0.800194
0.916058
1.0169
1.10105
1.16842
1.22028
1.25835
1.285
1.30215
1.31208
1.31609
1.31518
1.31267
1.30718
1.3001
1.29188
0.00191588
0.00322222
0.00468646
0.00609715
0.00735353
0.00844711
0.00939741
0.0102288
0.0109646
0.0116256
0.012255
0.0128984
0.0135604
0.0142563
0.0149995
0.0157959
0.0166445
0.0175395
0.0184773
0.0194633
0.0205301
0.0217576
0.0232948
0.0251573
0.0272769
0.0296321
0.0322379
0.0351175
0.0382978
0.0417966
0.0456248
0.0497753
0.0542218
0.058926
0.0638677
0.0690218
0.0743676
0.0798861
0.0855593
0.0913732
0.0973176
0.103386
0.109578
0.115898
0.122359
0.12898
0.135798
0.142863
0.150251
0.157784
0.165458
0.173278
0.181245
0.189364
0.197635
0.206061
0.214645
0.223387
0.232289
0.241352
0.250576
0.259962
0.269508
0.279215
0.28908
0.299102
0.309277
0.319604
0.330079
0.340697
0.351453
0.362343
0.37336
0.384499
0.395753
0.407113
0.418574
0.430125
0.441759
0.453467
0.465237
0.477062
0.488929
0.500828
0.512748
0.524677
0.536603
0.548513
0.560395
0.572235
0.584019
0.595732
0.607358
0.618881
0.630281
0.641538
0.65263
0.663533
0.674223
0.68468
0.694898
0.704903
0.71478
0.724383
0.733774
0.742918
0.751818
0.760457
0.768825
0.776912
0.784706
0.792198
0.799378
0.806236
0.812762
0.81895
0.824789
0.830274
0.835397
0.840151
0.84453
0.84853
0.852145
0.855372
0.858208
0.860649
0.862695
0.864345
0.865599
0.866457
0.86692
0.866991
0.866696
0.865973
0.864864
0.863268
0.861374
0.859207
0.856646
0.853685
0.850381
0.84673
0.842746
0.838437
0.833814
0.828888
0.823668
0.818167
0.812395
0.806365
0.80009
0.793581
0.786853
0.779917
0.772788
0.765478
0.758003
0.750374
0.742607
0.734715
0.726712
0.718613
0.710433
0.702194
0.693928
0.685735
0.678515
0.67436
0.670959
0.667607
0.66425
0.660879
0.657488
0.654062
0.650566
0.64692
0.642967
0.638237
0.63176
0.608201
0.00472354
0.00733022
0.0105118
0.0131365
0.0153564
0.0173165
0.0191147
0.0208244
0.0225036
0.0241987
0.0259469
0.0277931
0.0297953
0.03199
0.0343949
0.0370123
0.0398352
0.0428534
0.046061
0.0494599
0.0530621
0.0568843
0.060943
0.065254
0.0698331
0.0746918
0.0798492
0.0853289
0.0911565
0.0973542
0.103938
0.110913
0.118264
0.125971
0.13403
0.142432
0.15117
0.160232
0.169611
0.1793
0.189297
0.199596
0.210195
0.221091
0.232285
0.243774
0.255559
0.267637
0.280004
0.292645
0.305568
0.318777
0.332276
0.346071
0.360166
0.374566
0.389275
0.404296
0.419635
0.435293
0.451275
0.467582
0.484217
0.501181
0.518473
0.536094
0.554043
0.572318
0.590916
0.609834
0.629067
0.648609
0.668455
0.688596
0.709026
0.729733
0.75071
0.771943
0.793421
0.815131
0.83706
0.859191
0.881509
0.903997
0.926638
0.949413
0.972302
0.995286
1.01834
1.04145
1.06459
1.08773
1.11084
1.13391
1.1569
1.17979
1.20253
1.22509
1.24743
1.2695
1.29124
1.31257
1.33344
1.35403
1.37431
1.39426
1.41385
1.43307
1.45189
1.47029
1.48825
1.50574
1.52274
1.53923
1.5552
1.57061
1.58546
1.59971
1.61336
1.62639
1.63879
1.65053
1.6616
1.67199
1.6817
1.6907
1.69899
1.70657
1.71343
1.71955
1.72495
1.72962
1.73356
1.73677
1.73924
1.74077
1.74158
1.74193
1.74156
1.74039
1.73851
1.73593
1.73267
1.72874
1.72416
1.71894
1.7131
1.70665
1.69963
1.69203
1.68389
1.67523
1.66607
1.65643
1.64633
1.63581
1.62488
1.61357
1.6019
1.58991
1.57761
1.56504
1.55222
1.53918
1.52596
1.51261
1.49936
1.48661
1.47395
1.46125
1.4485
1.43571
1.42291
1.41008
1.3972
1.38423
1.37098
1.35731
1.34161
1.30855
0.00814807
0.0120211
0.0163442
0.019765
0.0226621
0.0252734
0.0277426
0.03017
0.0326341
0.0352014
0.0379298
0.0408701
0.0440628
0.047535
0.0512994
0.0553556
0.0596953
0.0643059
0.0691762
0.0742988
0.0796744
0.0853136
0.0912306
0.0974377
0.103947
0.110774
0.117941
0.125468
0.13338
0.141694
0.150421
0.159572
0.16916
0.179202
0.1897
0.200653
0.212051
0.223881
0.236137
0.248812
0.261896
0.275381
0.289259
0.303522
0.318163
0.333176
0.348556
0.364296
0.380393
0.396845
0.413655
0.430826
0.448363
0.466269
0.484548
0.503204
0.522242
0.541664
0.561474
0.581675
0.602269
0.623258
0.644642
0.666422
0.688597
0.711166
0.734126
0.757475
0.781207
0.805317
0.8298
0.854648
0.879852
0.905404
0.931292
0.957505
0.98403
1.01085
1.03796
1.06533
1.09296
1.12081
1.14888
1.17713
1.20556
1.23413
1.26283
1.29163
1.32049
1.34941
1.37834
1.40726
1.43613
1.46494
1.49364
1.5222
1.55059
1.57878
1.60672
1.63439
1.66175
1.68879
1.71548
1.74181
1.76775
1.79327
1.81834
1.84293
1.86701
1.89054
1.91351
1.93587
1.95761
1.97869
1.99908
2.01877
2.03773
2.05593
2.07335
2.08997
2.10577
2.12073
2.13483
2.14806
2.16039
2.17183
2.18235
2.19195
2.20062
2.20836
2.21515
2.221
2.22591
2.22988
2.23287
2.23481
2.23577
2.23603
2.23536
2.23371
2.23116
2.2277
2.22338
2.21819
2.21216
2.20532
2.19768
2.18926
2.1801
2.17021
2.15962
2.14836
2.13646
2.12394
2.11085
2.09719
2.08302
2.06836
2.05325
2.03771
2.02179
2.00551
1.98891
1.97204
1.95493
1.93764
1.92033
1.9032
1.88611
1.86898
1.8518
1.8346
1.8174
1.80022
1.78308
1.76597
1.74883
1.73162
1.71283
1.68358
0.0112623
0.0170529
0.022489
0.0266486
0.0301591
0.0333489
0.0364035
0.039447
0.0425737
0.0458605
0.0493711
0.0531556
0.0572501
0.061675
0.0664366
0.071529
0.076939
0.0826508
0.0886505
0.0949295
0.101486
0.108323
0.115452
0.122889
0.130654
0.138775
0.147282
0.156207
0.165578
0.175421
0.185757
0.196602
0.207967
0.219855
0.23226
0.245173
0.258584
0.27249
0.286881
0.301744
0.31707
0.332848
0.349067
0.365718
0.382796
0.400293
0.418204
0.436527
0.455258
0.474399
0.493953
0.513923
0.534313
0.555128
0.576373
0.598051
0.620168
0.642727
0.665732
0.689186
0.713093
0.737453
0.762269
0.787541
0.813268
0.839449
0.866082
0.893163
0.920688
0.948652
0.977047
1.00587
1.0351
1.06474
1.09477
1.12518
1.15596
1.18708
1.21854
1.25031
1.28238
1.31472
1.34731
1.38012
1.41314
1.44634
1.47968
1.51315
1.5467
1.58031
1.61395
1.64758
1.68117
1.71469
1.74809
1.78135
1.81443
1.84729
1.8799
1.91223
1.94424
1.97589
2.00716
2.038
2.06839
2.09828
2.12763
2.15641
2.18459
2.21212
2.23898
2.26512
2.29052
2.31514
2.33895
2.36192
2.38402
2.40522
2.4255
2.44483
2.46318
2.48054
2.49688
2.51219
2.52644
2.53963
2.55174
2.56275
2.57267
2.58147
2.58917
2.59575
2.60122
2.60557
2.60878
2.61078
2.61164
2.61163
2.61049
2.60825
2.60493
2.60056
2.59516
2.58875
2.58136
2.57301
2.56372
2.55353
2.54246
2.53054
2.5178
2.50428
2.49001
2.47502
2.45935
2.44303
2.42611
2.40861
2.39059
2.37208
2.35311
2.33373
2.31399
2.29392
2.27357
2.25302
2.23237
2.21176
2.19115
2.17049
2.1498
2.12911
2.10845
2.08788
2.06745
2.04721
2.02718
2.00741
1.98663
1.95938
0.0137885
0.0221985
0.0287781
0.0337061
0.0378527
0.0416225
0.0452391
0.0488492
0.052561
0.056459
0.0606097
0.065062
0.0698481
0.0749835
0.0804695
0.0862964
0.0924491
0.0989112
0.10567
0.112721
0.120064
0.127712
0.135683
0.144002
0.1527
0.161812
0.17137
0.181408
0.191954
0.203029
0.21465
0.226828
0.239566
0.252864
0.266716
0.281114
0.296052
0.311521
0.327511
0.34401
0.361009
0.378498
0.396469
0.414914
0.433829
0.453209
0.47305
0.493352
0.514116
0.535343
0.557037
0.579203
0.601845
0.624969
0.648579
0.672681
0.697281
0.722383
0.747992
0.774113
0.800748
0.827901
0.855574
0.883768
0.912484
0.94172
0.971476
1.00175
1.03253
1.06382
1.09561
1.1279
1.16066
1.1939
1.2276
1.26174
1.29631
1.33129
1.36667
1.40242
1.43852
1.47494
1.51167
1.54866
1.58591
1.62337
1.66101
1.69881
1.73672
1.77472
1.81276
1.85081
1.88883
1.92677
1.96461
2.0023
2.0398
2.07707
2.11407
2.15076
2.18709
2.22303
2.25852
2.29353
2.32801
2.36192
2.39522
2.42787
2.45981
2.49102
2.52144
2.55105
2.5798
2.60765
2.63457
2.66052
2.68548
2.7094
2.73225
2.75402
2.77467
2.79417
2.81251
2.82966
2.8456
2.86032
2.8738
2.88603
2.89699
2.90669
2.91512
2.92228
2.92816
2.93276
2.93608
2.93801
2.93872
2.93832
2.93666
2.93375
2.92962
2.92431
2.91782
2.91019
2.90144
2.89161
2.88072
2.8688
2.85589
2.84201
2.82722
2.81154
2.795
2.77767
2.75956
2.74072
2.72121
2.70105
2.68029
2.65898
2.63717
2.6149
2.59221
2.56916
2.5458
2.5222
2.49846
2.47466
2.45083
2.42695
2.40304
2.37917
2.35538
2.33173
2.30833
2.28527
2.26265
2.24056
2.21794
2.19098
0.0157403
0.0271249
0.0349576
0.0407017
0.0455043
0.0498501
0.0540011
0.0581249
0.0623414
0.0667415
0.0713939
0.0763477
0.0816334
0.0872652
0.0932438
0.0995613
0.106206
0.113166
0.120436
0.128017
0.13592
0.144164
0.152774
0.161782
0.171221
0.181125
0.191526
0.202451
0.213924
0.225961
0.238575
0.25177
0.265549
0.279911
0.29485
0.310361
0.326438
0.343073
0.360257
0.377984
0.396245
0.415034
0.434347
0.454178
0.474526
0.495387
0.516762
0.538652
0.561059
0.583986
0.607437
0.631419
0.655936
0.680995
0.706602
0.732765
0.759489
0.786781
0.814647
0.843092
0.872121
0.901739
0.931949
0.962753
0.994152
1.02615
1.05874
1.09193
1.1257
1.16006
1.195
1.23051
1.26658
1.3032
1.34036
1.37803
1.41622
1.45488
1.49401
1.53358
1.57356
1.61394
1.65467
1.69574
1.7371
1.77873
1.82058
1.86263
1.90482
1.94713
1.98951
2.03191
2.0743
2.11662
2.15884
2.2009
2.24276
2.28438
2.3257
2.36667
2.40724
2.44737
2.487
2.52608
2.56456
2.6024
2.63955
2.67595
2.71157
2.74635
2.78024
2.8132
2.8452
2.87618
2.9061
2.93493
2.96263
2.98916
3.01449
3.03859
3.06142
3.08296
3.10319
3.12207
3.13959
3.15574
3.17049
3.18383
3.19575
3.20625
3.21532
3.22295
3.22916
3.23393
3.23727
3.23907
3.23955
3.23871
3.23646
3.23283
3.22785
3.22154
3.21393
3.20505
3.19492
3.18359
3.17107
3.15742
3.14267
3.12685
3.11
3.09218
3.07341
3.05376
3.03325
3.01194
2.98987
2.9671
2.94367
2.91963
2.89504
2.86994
2.84438
2.81843
2.79213
2.76557
2.73882
2.71196
2.68503
2.65805
2.63107
2.60414
2.57734
2.55076
2.52451
2.49876
2.47362
2.44922
2.42462
2.39684
0.0172171
0.0317632
0.0408307
0.047387
0.0528351
0.0577328
0.0623767
0.0669526
0.071591
0.0763887
0.0814179
0.0867296
0.0923567
0.098316
0.104613
0.111245
0.118208
0.125499
0.13312
0.141081
0.149399
0.158097
0.167203
0.17675
0.186769
0.19729
0.20834
0.219942
0.232113
0.244867
0.258213
0.272156
0.286696
0.301834
0.317567
0.333892
0.350804
0.3683
0.386373
0.405022
0.424241
0.444028
0.46438
0.485298
0.50678
0.528827
0.551442
0.574627
0.598387
0.622727
0.647652
0.67317
0.699287
0.726012
0.753352
0.781316
0.809911
0.839147
0.86903
0.899568
0.930767
0.962633
0.995171
1.02839
1.06228
1.09685
1.13211
1.16805
1.20466
1.24195
1.27991
1.31852
1.35779
1.39769
1.43821
1.47935
1.52106
1.56335
1.60618
1.64952
1.69336
1.73766
1.78238
1.82749
1.87296
1.91875
1.96481
2.01111
2.0576
2.10423
2.15096
2.19773
2.2445
2.29122
2.33782
2.38427
2.4305
2.47646
2.5221
2.56735
2.61215
2.65646
2.70021
2.74334
2.78581
2.82756
2.86853
2.90866
2.94791
2.98622
3.02354
3.05982
3.09501
3.12907
3.16194
3.19359
3.22398
3.25306
3.28079
3.30715
3.3321
3.35561
3.37765
3.3982
3.41723
3.43472
3.45067
3.46505
3.47785
3.48907
3.4987
3.50674
3.5132
3.51808
3.52136
3.52297
3.52315
3.5218
3.51892
3.51451
3.50863
3.50128
3.4925
3.48232
3.47078
3.45791
3.44375
3.42834
3.41173
3.39394
3.37504
3.35507
3.33407
3.3121
3.2892
3.26542
3.24083
3.21546
3.18938
3.16263
3.13529
3.10739
3.079
3.05018
3.02099
2.99149
2.96177
2.93191
2.90196
2.87196
2.84196
2.81205
2.78231
2.75285
2.72382
2.6954
2.66774
2.64096
2.6142
2.58484
0.0183109
0.0359651
0.0461965
0.0535256
0.0595813
0.064987
0.0700702
0.0750328
0.0800148
0.0851194
0.0904231
0.0959815
0.101832
0.107998
0.114493
0.121321
0.128488
0.135998
0.143863
0.152096
0.160718
0.169755
0.179234
0.189183
0.199631
0.210603
0.222123
0.234207
0.246872
0.260128
0.273984
0.288444
0.303512
0.319188
0.335475
0.352371
0.369876
0.387988
0.406708
0.426035
0.44597
0.466512
0.487663
0.509426
0.531804
0.554799
0.578418
0.602665
0.627548
0.653073
0.679248
0.706083
0.733585
0.761767
0.790636
0.820204
0.850482
0.881478
0.913203
0.945665
0.978875
1.01284
1.04756
1.08306
1.11932
1.15636
1.19418
1.23277
1.27214
1.31228
1.35318
1.39484
1.43725
1.4804
1.52425
1.56881
1.61405
1.65995
1.70647
1.7536
1.80129
1.84952
1.89825
1.94743
1.99703
2.04701
2.09731
2.1479
2.19871
2.24969
2.3008
2.35197
2.40315
2.45428
2.5053
2.55615
2.60677
2.65708
2.70704
2.75656
2.8056
2.85408
2.90194
2.94911
2.99554
3.04117
3.08592
3.12975
3.1726
3.2144
3.2551
3.29464
3.33298
3.37005
3.40581
3.44022
3.47322
3.50478
3.53485
3.56339
3.59038
3.61578
3.63955
3.66168
3.68213
3.70089
3.71795
3.73328
3.74688
3.75873
3.76885
3.77722
3.78386
3.78876
3.79192
3.7933
3.79308
3.79117
3.78759
3.78236
3.77551
3.76707
3.75708
3.74557
3.73258
3.71814
3.70231
3.68513
3.66664
3.64688
3.62592
3.60379
3.58056
3.55628
3.53099
3.50477
3.47765
3.44971
3.421
3.39158
3.3615
3.33084
3.29965
3.26799
3.23594
3.20355
3.17091
3.1381
3.10518
3.07221
3.03926
3.00642
2.97379
2.94151
2.90973
2.87864
2.84842
2.81919
2.79012
2.75893
0.0195266
0.0397022
0.0509468
0.0589586
0.0655479
0.0713945
0.076851
0.0821328
0.0873878
0.0927248
0.0982254
0.10395
0.109944
0.116236
0.122848
0.129794
0.137086
0.144738
0.152764
0.161183
0.170016
0.179287
0.189022
0.199246
0.209983
0.221254
0.23308
0.245475
0.258454
0.272027
0.286203
0.300987
0.316387
0.332406
0.349048
0.366317
0.384215
0.402746
0.421913
0.44172
0.462171
0.48327
0.505022
0.527434
0.55051
0.574259
0.598689
0.623809
0.649627
0.676154
0.7034
0.731376
0.760095
0.789569
0.819811
0.850833
0.882649
0.91527
0.948709
0.982978
1.01809
1.05405
1.09086
1.12855
1.16711
1.20655
1.24686
1.28806
1.33014
1.3731
1.41693
1.46162
1.50716
1.55353
1.60073
1.64872
1.69749
1.74701
1.79725
1.84818
1.89976
1.95195
2.00471
2.05799
2.11176
2.16595
2.22052
2.27541
2.33057
2.38592
2.44143
2.49701
2.5526
2.60815
2.66357
2.71881
2.77379
2.82844
2.88268
2.93645
2.98967
3.04227
3.09419
3.14534
3.19567
3.24511
3.29358
3.34103
3.38739
3.43259
3.47657
3.51928
3.56066
3.60065
3.63919
3.67624
3.71175
3.74567
3.77796
3.80858
3.83749
3.86466
3.89006
3.91365
3.93542
3.95534
3.97339
3.98957
4.00386
4.01625
4.02675
4.03536
4.04208
4.04692
4.04987
4.05095
4.05025
4.04772
4.04338
4.03727
4.02941
4.01984
4.0086
3.99572
3.98125
3.96524
3.94772
3.92875
3.90837
3.88665
3.86363
3.83937
3.81392
3.78735
3.75971
3.73106
3.70146
3.67099
3.63969
3.60763
3.57488
3.5415
3.50756
3.47312
3.43826
3.40303
3.36754
3.33184
3.29603
3.26016
3.22433
3.18863
3.15317
3.11811
3.0836
3.04987
3.01707
2.98532
2.95385
2.92082
0.0220779
0.0431121
0.0550785
0.0636124
0.0706205
0.0768179
0.082571
0.0881034
0.0935679
0.0990769
0.104716
0.110552
0.116633
0.122998
0.129674
0.136684
0.144046
0.151778
0.159898
0.168427
0.177385
0.186794
0.196678
0.207059
0.217956
0.229392
0.241381
0.25394
0.267081
0.280815
0.295154
0.310104
0.325676
0.341876
0.358711
0.37619
0.394318
0.413103
0.432553
0.452676
0.47348
0.494973
0.517165
0.540065
0.563683
0.588031
0.613119
0.63896
0.665567
0.692953
0.721132
0.750118
0.779927
0.810575
0.842076
0.874448
0.907704
0.941862
0.976934
1.01294
1.04988
1.08778
1.12664
1.16648
1.20731
1.24912
1.29192
1.33572
1.38051
1.42628
1.47304
1.52078
1.56947
1.61911
1.66966
1.72112
1.77346
1.82663
1.88062
1.93537
1.99086
2.04704
2.10385
2.16125
2.21919
2.27761
2.33645
2.39564
2.45512
2.51483
2.5747
2.63465
2.69462
2.75453
2.81429
2.87385
2.93311
2.992
3.05043
3.10834
3.16564
3.22225
3.2781
3.3331
3.38719
3.4403
3.49234
3.54325
3.59296
3.6414
3.68851
3.73422
3.77846
3.82119
3.86235
3.90187
3.93971
3.97583
4.01017
4.04269
4.07335
4.10213
4.12898
4.15388
4.1768
4.19773
4.21664
4.23352
4.24836
4.26117
4.27193
4.28065
4.28734
4.29201
4.29467
4.29536
4.29411
4.29089
4.28573
4.27867
4.26976
4.25902
4.24649
4.23223
4.21627
4.19866
4.17946
4.15871
4.13647
4.1128
4.08775
4.06139
4.03377
4.00496
3.97502
3.94401
3.912
3.87906
3.84524
3.81063
3.77528
3.73927
3.70266
3.66553
3.62794
3.58997
3.55171
3.51323
3.47461
3.43595
3.39733
3.35885
3.32065
3.28288
3.24571
3.20935
3.17398
3.1397
3.10578
3.07068
0.0246523
0.0459538
0.0584592
0.0673901
0.0747157
0.0811786
0.0871547
0.0928733
0.0984904
0.104121
0.109854
0.115759
0.121891
0.128291
0.134994
0.142027
0.149414
0.157174
0.165329
0.173898
0.182903
0.192366
0.202307
0.212744
0.223698
0.235185
0.247221
0.25982
0.272998
0.286766
0.301136
0.316121
0.331732
0.347979
0.364875
0.38243
0.400656
0.419565
0.439168
0.459479
0.48051
0.502273
0.524782
0.54805
0.572091
0.596921
0.622556
0.649012
0.676306
0.704456
0.733478
0.763391
0.794214
0.825967
0.858669
0.892339
0.926994
0.962654
0.999335
1.03705
1.07583
1.11566
1.15658
1.19859
1.2417
1.28591
1.33123
1.37767
1.42521
1.47385
1.52359
1.57442
1.62631
1.67926
1.73323
1.78819
1.84413
1.901
1.95876
2.01737
2.07678
2.13695
2.19781
2.25932
2.32141
2.38401
2.44707
2.5105
2.57425
2.63822
2.70236
2.76657
2.83079
2.89491
2.95888
3.02259
3.08596
3.14891
3.21135
3.2732
3.33436
3.39477
3.45432
3.51294
3.57056
3.62708
3.68245
3.73657
3.78938
3.8408
3.89077
3.93921
3.98608
4.03129
4.07479
4.11653
4.15645
4.19451
4.23065
4.26483
4.29701
4.32716
4.35525
4.38124
4.40511
4.42684
4.44642
4.46383
4.47905
4.4921
4.50297
4.51166
4.51819
4.52258
4.52484
4.52502
4.52316
4.51916
4.51311
4.50506
4.49504
4.4831
4.46928
4.45362
4.43617
4.41698
4.39612
4.37362
4.34957
4.324
4.29699
4.26859
4.23888
4.20791
4.17576
4.14248
4.10816
4.07286
4.03664
3.99959
3.96176
3.92324
3.88409
3.84439
3.80421
3.76363
3.72273
3.6816
3.64032
3.59899
3.5577
3.51658
3.47575
3.43537
3.39562
3.35672
3.31881
3.28202
3.24567
3.20844
0.0270154
0.0481672
0.0610466
0.070262
0.0778126
0.0844614
0.0905914
0.0964362
0.102154
0.107862
0.113651
0.119593
0.125744
0.13215
0.138849
0.145872
0.153244
0.16099
0.169132
0.177689
0.186681
0.196128
0.206046
0.216455
0.227372
0.238812
0.250793
0.26333
0.276439
0.290135
0.304433
0.319348
0.334894
0.351088
0.367944
0.385478
0.403708
0.422648
0.442317
0.46273
0.483906
0.505861
0.528613
0.55218
0.576578
0.601828
0.627953
0.654973
0.682911
0.711786
0.741623
0.772443
0.804271
0.83713
0.871043
0.906031
0.942115
0.979317
1.01765
1.05715
1.09781
1.13966
1.18271
1.22697
1.27245
1.31916
1.36709
1.41626
1.46665
1.51825
1.57107
1.62507
1.68025
1.73657
1.79401
1.85254
1.91212
1.97271
2.03426
2.09673
2.16005
2.22418
2.28905
2.35459
2.42074
2.48743
2.55458
2.62211
2.68995
2.75802
2.82623
2.89449
2.96271
3.03082
3.09871
3.1663
3.23349
3.3002
3.36633
3.43178
3.49648
3.56033
3.62323
3.68512
3.74589
3.80547
3.86378
3.92074
3.97627
4.0303
4.08276
4.13357
4.18267
4.23
4.2755
4.3191
4.36075
4.40041
4.43802
4.47354
4.50693
4.53816
4.56719
4.59399
4.61855
4.64083
4.66083
4.67853
4.69393
4.70702
4.71781
4.72631
4.73253
4.73649
4.73822
4.7378
4.73522
4.73036
4.72337
4.71428
4.70313
4.68997
4.67484
4.65779
4.63888
4.61815
4.59567
4.5715
4.54569
4.51831
4.48943
4.45911
4.42741
4.39442
4.36018
4.32479
4.2883
4.25079
4.21233
4.173
4.13286
4.092
4.05049
4.00839
3.96579
3.92278
3.87942
3.83582
3.79206
3.74823
3.70446
3.66084
3.61754
3.57469
3.5325
3.49115
3.45081
3.41159
3.37287
3.33356
0.0291299
0.0497727
0.0628685
0.0722608
0.0799479
0.086706
0.0929232
0.0988364
0.104606
0.11035
0.116159
0.122106
0.12825
0.134638
0.141311
0.148299
0.155631
0.16333
0.171416
0.179911
0.188832
0.198198
0.208026
0.218335
0.229141
0.240458
0.252304
0.2647
0.277662
0.291211
0.305362
0.320137
0.335552
0.351629
0.368387
0.385847
0.40403
0.422959
0.442655
0.463142
0.484442
0.506576
0.529567
0.553434
0.578197
0.603877
0.630506
0.658112
0.686724
0.716371
0.747079
0.778878
0.811794
0.845856
0.881088
0.917516
0.955162
0.994048
1.03419
1.07562
1.11834
1.16237
1.20772
1.25441
1.30244
1.35181
1.40253
1.45459
1.50798
1.5627
1.61872
1.67602
1.73459
1.79438
1.85536
1.9175
1.98075
2.04506
2.11038
2.17665
2.24381
2.3118
2.38053
2.44996
2.51999
2.59055
2.66155
2.73292
2.80457
2.87641
2.94834
3.02029
3.09215
3.16382
3.23522
3.30625
3.37682
3.44681
3.51615
3.58473
3.65246
3.71924
3.78499
3.84961
3.91303
3.97514
4.03588
4.09515
4.15289
4.20902
4.26345
4.31613
4.36698
4.41595
4.46296
4.50796
4.5509
4.59172
4.63038
4.66683
4.70104
4.73296
4.76258
4.78985
4.81476
4.83729
4.85742
4.87515
4.89047
4.90337
4.91387
4.92198
4.92771
4.93109
4.93216
4.93105
4.92763
4.92184
4.91385
4.90368
4.89138
4.877
4.86058
4.84217
4.82185
4.79965
4.77563
4.74988
4.72243
4.69337
4.66275
4.63065
4.59714
4.56228
4.52615
4.48882
4.45036
4.41085
4.37036
4.32896
4.28674
4.24376
4.20011
4.15585
4.11107
4.06585
4.02027
3.97442
3.9284
3.88232
3.83627
3.79038
3.74479
3.69968
3.65521
3.61158
3.56894
3.52743
3.48647
3.4452
0.0309933
0.0508228
0.0639898
0.0734579
0.0811961
0.0879885
0.0942275
0.100152
0.105924
0.111663
0.11746
0.123388
0.129506
0.135859
0.142485
0.149414
0.156674
0.164289
0.172281
0.180669
0.189472
0.198709
0.208398
0.218558
0.229212
0.240383
0.252087
0.264339
0.277156
0.290558
0.304568
0.319207
0.334499
0.350468
0.367137
0.384532
0.402679
0.421608
0.441348
0.461929
0.483378
0.505722
0.528988
0.553205
0.578403
0.604605
0.631852
0.660182
0.689624
0.720212
0.751979
0.784958
0.819185
0.854688
0.891496
0.929633
0.969121
1.00998
1.05223
1.09589
1.14097
1.18749
1.23544
1.28485
1.33571
1.38802
1.44178
1.49698
1.55359
1.61161
1.67101
1.73176
1.79382
1.85716
1.92173
1.98748
2.05437
2.12234
2.19131
2.26124
2.33204
2.40365
2.47599
2.54899
2.62255
2.6966
2.77105
2.8458
2.92078
2.99588
3.07101
3.14607
3.22097
3.29561
3.36989
3.44372
3.51699
3.5896
3.66146
3.73247
3.80253
3.87155
3.93944
4.0061
4.07145
4.13541
4.19788
4.25879
4.31805
4.37561
4.43137
4.48527
4.53725
4.58724
4.63517
4.681
4.72466
4.76611
4.8053
4.84218
4.87673
4.9089
4.93866
4.966
4.99088
5.0133
5.03323
5.05067
5.06562
5.07808
5.08806
5.09556
5.10062
5.10325
5.10352
5.10165
5.09725
5.09048
5.08144
5.07018
5.05673
5.04115
5.02349
5.0038
4.98214
4.95857
4.93315
4.90595
4.87702
4.84645
4.81428
4.78061
4.74548
4.70899
4.6712
4.63218
4.592
4.55075
4.5085
4.46532
4.42128
4.37648
4.33097
4.28483
4.23816
4.19102
4.14351
4.09571
4.04772
3.99964
3.95159
3.9037
3.85609
3.80894
3.76242
3.71672
3.672
3.62838
3.58535
3.54231
0.0326242
0.0513861
0.0644926
0.0739402
0.0816473
0.088401
0.0945983
0.100481
0.106213
0.111911
0.117667
0.12355
0.129617
0.135913
0.142479
0.149347
0.15654
0.164078
0.171982
0.180272
0.188967
0.198086
0.207647
0.21767
0.228171
0.239167
0.250673
0.262723
0.275342
0.288556
0.302394
0.316883
0.332055
0.347943
0.364578
0.381995
0.400224
0.419296
0.439245
0.460109
0.48193
0.504731
0.528541
0.553382
0.579284
0.606314
0.634506
0.663893
0.694517
0.726416
0.759629
0.794198
0.830173
0.867576
0.906437
0.946776
0.988612
1.03196
1.07682
1.12321
1.17114
1.22062
1.27163
1.3242
1.3783
1.43392
1.49106
1.54969
1.60979
1.67132
1.73426
1.79856
1.86417
1.93105
1.99915
2.0684
2.13876
2.21014
2.28248
2.35572
2.42977
2.50455
2.57999
2.656
2.7325
2.8094
2.8866
2.96402
3.04157
3.11914
3.19665
3.27399
3.35107
3.42779
3.50406
3.57977
3.65482
3.72912
3.80257
3.87507
3.94654
4.01686
4.08596
4.15375
4.22013
4.28502
4.34834
4.41002
4.46997
4.52812
4.5844
4.63874
4.69107
4.74134
4.78949
4.83545
4.87917
4.92061
4.95971
4.99645
5.03078
5.06267
5.0921
5.11903
5.14346
5.16536
5.18473
5.20155
5.21582
5.22756
5.23676
5.24344
5.24763
5.24935
5.24879
5.24597
5.24053
5.23273
5.22264
5.21029
5.19574
5.17903
5.16021
5.13934
5.11649
5.0917
5.06505
5.03659
5.0064
4.97453
4.94107
4.90607
4.86961
4.83177
4.79261
4.75221
4.71064
4.66798
4.6243
4.57967
4.53417
4.48788
4.44087
4.39322
4.345
4.2963
4.24721
4.1978
4.14819
4.09847
4.04875
3.99916
3.94985
3.90096
3.85268
3.80518
3.75862
3.71314
3.66829
3.62373
0.0340635
0.051552
0.0644927
0.07387
0.0815051
0.0881851
0.0943118
0.100127
0.105796
0.111436
0.117137
0.122965
0.128975
0.135209
0.141701
0.148478
0.155564
0.162981
0.170748
0.178889
0.187424
0.196375
0.205762
0.215608
0.225935
0.236772
0.248151
0.260097
0.27264
0.285809
0.299639
0.314165
0.329423
0.345456
0.362314
0.380029
0.398639
0.418181
0.438691
0.460192
0.482697
0.506285
0.531013
0.556942
0.584131
0.612612
0.64242
0.673592
0.706168
0.740184
0.775676
0.812673
0.851199
0.891301
0.933036
0.97641
1.02142
1.06806
1.11632
1.1662
1.2177
1.27079
1.32549
1.38176
1.43958
1.49895
1.55981
1.62214
1.6859
1.75105
1.81754
1.88531
1.95432
2.02451
2.0958
2.16815
2.24147
2.31571
2.39078
2.46662
2.54314
2.62026
2.69791
2.77599
2.85443
2.93314
3.01202
3.09099
3.16996
3.24884
3.32754
3.40595
3.48399
3.56156
3.63857
3.71493
3.79053
3.86528
3.93909
4.01187
4.08352
4.15397
4.22311
4.29086
4.35714
4.42187
4.48496
4.54635
4.60596
4.66371
4.71955
4.77339
4.82519
4.87488
4.92241
4.96771
5.01073
5.05143
5.08978
5.12572
5.15923
5.19027
5.21882
5.24486
5.26837
5.28933
5.30774
5.32359
5.33689
5.34762
5.3558
5.36146
5.36461
5.3653
5.36386
5.35994
5.35345
5.34463
5.33351
5.32014
5.30457
5.28684
5.26701
5.24513
5.22127
5.19548
5.16783
5.13838
5.10719
5.07434
5.03988
5.0039
4.96645
4.92762
4.88747
4.84607
4.80349
4.75982
4.71511
4.66945
4.62291
4.57556
4.52747
4.47873
4.42939
4.37956
4.3293
4.27871
4.22788
4.17692
4.12593
4.07504
4.02438
3.97412
3.92442
3.87545
3.82737
3.78034
3.73395
3.68818
0.035444
0.0515346
0.064263
0.0734752
0.0809447
0.0874631
0.0934381
0.0991156
0.104661
0.11019
0.115788
0.121518
0.12743
0.133563
0.139948
0.146613
0.153584
0.16089
0.168553
0.176595
0.185038
0.193908
0.203232
0.213037
0.223352
0.234209