/*--------------------------------*- C++ -*----------------------------------*\
| =========                 |                                                 |
| \\      /  F ield         | OpenFOAM: The Open Source CFD Toolbox           |
|  \\    /   O peration     | Version:  v2012                                 |
|   \\  /    A nd           | Website:  www.openfoam.com                      |
|    \\/     M anipulation  |                                                 |
\*---------------------------------------------------------------------------*/
FoamFile
{
    version     2.0;
    format      ascii;
    class       volScalarField;
    location    "383";
    object      p;
}
// * * * * * * * * * * * * * * * * * * * * * * * * * * * * * * * * * * * * * //

dimensions      [0 2 -2 0 0 0 0];


internalField   nonuniform List<scalar> 
12225
(
-1.69394
-3.93551
-5.04918
-5.3585
-5.53317
-5.7125
-5.86111
-5.97295
-6.06489
-6.14831
-6.22624
-6.29975
-6.37061
-6.44089
-6.51327
-6.58725
-6.67841
-6.73452
-4.90129
-5.72303
-5.92598
-5.82642
-5.79761
-5.8625
-5.94682
-6.0223
-6.09289
-6.16316
-6.23274
-6.30078
-6.3679
-6.43541
-6.50512
-6.57852
-6.66066
-6.76893
-5.29632
-5.21574
-5.32809
-5.41811
-5.53311
-5.68153
-5.8208
-5.9345
-6.03079
-6.11811
-6.19923
-6.27519
-6.34764
-6.41847
-6.48983
-6.56305
-6.64305
-6.72811
-5.1615
-5.06339
-5.32798
-5.53319
-5.66182
-5.78453
-5.89887
-5.99385
-6.07523
-6.15054
-6.22229
-6.29097
-6.35756
-6.42336
-6.48972
-6.55733
-6.62699
-6.69262
-5.15361
-5.16919
-5.4187
-5.59076
-5.68451
-5.78129
-5.88343
-5.97475
-6.05561
-6.13136
-6.20396
-6.27356
-6.34076
-6.4065
-6.47166
-6.5363
-6.59959
-6.65749
-5.22158
-5.26991
-5.45181
-5.59442
-5.68605
-5.78177
-5.88292
-5.9746
-6.05585
-6.13133
-6.20315
-6.27164
-6.33734
-6.40098
-6.46308
-6.52336
-6.58071
-6.63222
-5.29303
-5.33645
-5.47234
-5.60306
-5.69931
-5.79285
-5.88858
-5.97661
-6.05556
-6.129
-6.19884
-6.26544
-6.32914
-6.39041
-6.44944
-6.50577
-6.55827
-6.60477
-5.34801
-5.38524
-5.49785
-5.61821
-5.7129
-5.80187
-5.89201
-5.97658
-6.05361
-6.1255
-6.19383
-6.25894
-6.32103
-6.38035
-6.43694
-6.4903
-6.53946
-6.58281
-5.39398
-5.42781
-5.52393
-5.63307
-5.72424
-5.80928
-5.89494
-5.97655
-6.05179
-6.12217
-6.18901
-6.25263
-6.31313
-6.37064
-6.42507
-6.47597
-6.52254
-6.56361
-5.44175
-5.47248
-5.55323
-5.65011
-5.73667
-5.81772
-5.89876
-5.97692
-6.04988
-6.11836
-6.18336
-6.24518
-6.30382
-6.35929
-6.41146
-6.45993
-6.50411
-6.54317
-5.49056
-5.51779
-5.58503
-5.66986
-5.75071
-5.82733
-5.90351
-5.97771
-6.04788
-6.11405
-6.17689
-6.2366
-6.29313
-6.3464
-6.39625
-6.44236
-6.48435
-6.52168
-5.53928
-5.56283
-5.61871
-5.69214
-5.76625
-5.83791
-5.90905
-5.97893
-6.04584
-6.10933
-6.16968
-6.227
-6.2812
-6.33214
-6.37966
-6.42353
-6.46353
-6.49935
-5.58663
-5.60664
-5.6531
-5.71613
-5.78291
-5.84913
-5.91517
-5.9805
-6.04375
-6.10419
-6.16177
-6.21648
-6.26819
-6.31673
-6.36196
-6.40374
-6.44196
-6.47645
-5.63102
-5.64787
-5.68662
-5.74051
-5.79993
-5.86046
-5.92139
-5.98209
-6.04142
-6.09854
-6.15316
-6.20512
-6.25426
-6.30042
-6.34348
-6.38333
-6.41996
-6.4533
-5.67048
-5.68468
-5.71724
-5.76344
-5.81602
-5.87094
-5.92691
-5.9831
-6.03847
-6.09218
-6.14377
-6.19297
-6.2396
-6.28349
-6.32453
-6.36266
-6.3979
-6.43024
-5.70246
-5.71457
-5.74239
-5.78248
-5.8292
-5.87905
-5.9305
-5.98256
-6.03424
-6.08471
-6.13342
-6.18004
-6.22435
-6.26619
-6.30545
-6.3421
-6.37617
-6.40769
-5.7235
-5.73411
-5.7586
-5.79432
-5.83664
-5.88248
-5.93029
-5.979
-6.02764
-6.07539
-6.12168
-6.16615
-6.20855
-6.24872
-6.28657
-6.32207
-6.35525
-6.38615
-5.72835
-5.7382
-5.76105
-5.79461
-5.83469
-5.87841
-5.9242
-5.97102
-6.01789
-6.06404
-6.10888
-6.15204
-6.19328
-6.23245
-6.26947
-6.30431
-6.337
-6.36759
-5.7169
-5.72672
-5.74955
-5.78318
-5.82337
-5.86707
-5.9127
-5.95928
-6.00591
-6.05178
-6.09632
-6.13917
-6.18012
-6.21903
-6.25584
-6.29055
-6.32316
-6.35377
-5.69395
-5.70418
-5.72813
-5.76364
-5.80586
-5.85117
-5.89801
-5.94563
-5.99317
-6.03976
-6.08484
-6.12812
-6.16941
-6.20861
-6.24566
-6.28057
-6.3134
-6.34422
-5.6629
-5.67367
-5.69964
-5.73875
-5.78456
-5.83253
-5.88153
-5.93119
-5.98049
-6.02845
-6.0746
-6.11875
-6.16078
-6.20059
-6.23815
-6.27351
-6.30674
-6.33795
-5.62635
-5.63707
-5.66585
-5.71085
-5.76165
-5.8126
-5.86419
-5.91659
-5.96831
-6.01813
-6.06574
-6.11108
-6.15408
-6.19465
-6.23282
-6.26868
-6.30231
-6.33385
-5.58662
-5.59557
-5.62754
-5.68128
-5.73859
-5.79289
-5.8474
-5.9028
-5.95699
-6.00873
-6.05796
-6.10473
-6.1489
-6.19043
-6.2294
-6.26592
-6.30015
-6.33227
-5.54553
-5.55051
-5.58739
-5.65116
-5.71398
-5.77222
-5.83155
-5.89104
-5.94777
-6.00117
-6.05178
-6.09968
-6.14472
-6.18687
-6.22629
-6.26317
-6.29767
-6.32991
-5.5029
-5.49774
-5.55299
-5.62979
-5.69045
-5.74826
-5.81273
-5.87772
-5.93819
-5.9944
-6.04746
-6.09742
-6.14403
-6.18736
-6.22765
-6.26519
-6.30024
-6.33322
-5.46519
-5.4108
-5.51157
-5.62411
-5.68468
-5.73634
-5.79902
-5.86355
-5.92353
-5.97973
-6.03336
-6.08416
-6.13166
-6.17588
-6.21706
-6.25548
-6.29132
-6.32468
-5.48612
-5.29012
-5.40452
-5.56731
-5.66526
-5.74171
-5.81819
-5.88852
-5.95042
-6.00701
-6.0601
-6.10961
-6.15536
-6.1976
-6.23672
-6.27313
-6.30725
-6.34001
-5.62594
-5.37447
-5.34436
-5.3948
-5.47058
-5.57072
-5.67505
-5.76784
-5.84918
-5.92327
-5.99153
-6.0537
-6.10992
-6.16074
-6.20684
-6.24888
-6.28756
-6.32406
-5.38256
-5.95194
-6.06159
-5.93176
-5.84689
-5.85071
-5.88849
-5.92964
-5.97204
-6.01771
-6.0649
-6.1111
-6.15507
-6.19642
-6.23501
-6.27083
-6.3042
-6.33654
-2.40941
-4.05543
-5.02933
-5.3127
-5.44029
-5.58076
-5.7087
-5.80813
-5.88949
-5.96215
-6.02829
-6.08777
-6.14104
-6.18891
-6.23201
-6.27056
-6.30463
-6.33282
-7.12095
-7.1207
-7.12059
-7.12083
-7.12145
-7.1224
-7.12362
-7.12502
-7.12654
-7.12812
-7.12974
-7.13142
-7.13318
-7.13505
-7.13704
-7.13917
-7.14148
-7.144
-7.14676
-7.14979
-7.15312
-7.15681
-7.16091
-7.16544
-7.17046
-7.17603
-7.18219
-7.18903
-7.19661
-7.20503
-7.21437
-7.22473
-7.23621
-7.24888
-7.26282
-7.27806
-7.29464
-7.31257
-7.33184
-7.35241
-7.37424
-7.39726
-7.42141
-7.4466
-7.47275
-7.49977
-7.52761
-7.55618
-7.58532
-7.61489
-7.64478
-7.67493
-7.70526
-7.73572
-7.76622
-7.7967
-7.82708
-7.85728
-7.88722
-7.91681
-7.94596
-7.97457
-8.00254
-8.02975
-8.0561
-8.08146
-8.1057
-8.12868
-8.15026
-8.17028
-8.18859
-8.20502
-8.21941
-8.23157
-8.24132
-8.24848
-8.25284
-8.25423
-8.25242
-8.24723
-8.23845
-8.22586
-8.20927
-8.18846
-8.16323
-8.13337
-8.09869
-8.05897
-8.01404
-7.96369
-7.90774
-7.84602
-7.77836
-7.70459
-7.62457
-7.53815
-7.44521
-7.34563
-7.23934
-7.12636
-7.00679
-6.8805
-6.74693
-6.60588
-6.45762
-6.30221
-6.13969
-5.97009
-5.79344
-5.60981
-5.41925
-5.22187
-5.01775
-4.80701
-4.5898
-4.36626
-4.13657
-3.9009
-3.65945
-3.41243
-3.16008
-2.90263
-2.64034
-2.37347
-2.10229
-1.82711
-1.54821
-1.26589
-0.980483
-0.692295
-0.401651
-0.10888
0.185696
0.481756
0.778968
1.07697
1.37541
1.67401
1.97245
2.27041
2.56756
2.8636
3.15823
3.45115
3.7421
4.03081
4.31701
4.60047
4.88095
5.15824
5.43212
5.7024
5.96891
6.23147
6.48994
6.74418
6.99405
7.23944
7.48026
7.7164
7.94779
8.17436
8.39605
8.61281
8.8246
9.0314
9.23331
9.43026
9.62196
9.80827
9.98923
10.1649
10.3352
10.5003
10.6602
10.8151
10.9661
11.1139
11.2676
11.4238
-7.12151
-7.12126
-7.12116
-7.12149
-7.12221
-7.12317
-7.12424
-7.12538
-7.12655
-7.12775
-7.12897
-7.13022
-7.13152
-7.13291
-7.13443
-7.13611
-7.13796
-7.14001
-7.14228
-7.14481
-7.14762
-7.15077
-7.15424
-7.15808
-7.16238
-7.16721
-7.17265
-7.17879
-7.18572
-7.19354
-7.20235
-7.21226
-7.22334
-7.23568
-7.24934
-7.26436
-7.28078
-7.2986
-7.31778
-7.33828
-7.36005
-7.383
-7.40705
-7.43212
-7.4581
-7.48492
-7.51248
-7.54068
-7.56942
-7.59858
-7.62809
-7.65787
-7.68785
-7.71795
-7.74811
-7.77826
-7.80833
-7.83824
-7.8679
-7.89724
-7.92616
-7.95458
-7.98238
-8.00946
-8.0357
-8.06099
-8.08519
-8.10817
-8.12979
-8.14989
-8.16832
-8.18492
-8.19951
-8.21192
-8.22197
-8.22947
-8.23423
-8.23606
-8.23474
-8.23009
-8.2219
-8.20996
-8.19406
-8.174
-8.14957
-8.12057
-8.08679
-8.04804
-8.00412
-7.95484
-7.90003
-7.8395
-7.77309
-7.70064
-7.622
-7.53703
-7.4456
-7.34758
-7.24286
-7.1313
-7.01271
-6.88692
-6.75412
-6.61447
-6.46777
-6.314
-6.15314
-5.98521
-5.81025
-5.62831
-5.43944
-5.24374
-5.0413
-4.83224
-4.61669
-4.39479
-4.16671
-3.93263
-3.69274
-3.44725
-3.1964
-2.9404
-2.67951
-2.414
-2.14414
-1.87021
-1.59251
-1.31134
-1.02701
-0.739841
-0.45015
-0.158265
0.135493
0.430806
0.727344
1.02474
1.32265
1.62079
1.91885
2.21649
2.51341
2.80928
3.10382
3.39672
3.68772
3.97654
4.26293
4.54663
4.82742
5.10507
5.37937
5.65014
5.91718
6.18032
6.43942
6.69432
6.9449
7.19104
7.43264
7.6696
7.90184
8.12929
8.35189
8.56961
8.78242
8.99029
9.19298
9.39022
9.58204
9.76855
9.94976
10.1257
10.2964
10.4619
10.6225
10.7784
10.9308
11.0803
11.2376
11.3904
-7.1209
-7.12083
-7.12093
-7.12142
-7.12222
-7.12312
-7.12402
-7.12487
-7.12567
-7.12644
-7.1272
-7.12798
-7.1288
-7.1297
-7.1307
-7.13183
-7.1331
-7.13455
-7.13619
-7.13806
-7.1402
-7.14267
-7.14555
-7.14893
-7.15287
-7.15747
-7.16282
-7.16901
-7.17613
-7.18429
-7.19355
-7.20397
-7.2156
-7.22848
-7.24264
-7.2581
-7.27485
-7.29285
-7.31208
-7.33248
-7.354
-7.37658
-7.40013
-7.4246
-7.44991
-7.47597
-7.50272
-7.53007
-7.55795
-7.58625
-7.61493
-7.6439
-7.67309
-7.70245
-7.73189
-7.76136
-7.79078
-7.82007
-7.84916
-7.87796
-7.90638
-7.93433
-7.9617
-7.98839
-8.01429
-8.03928
-8.06322
-8.08599
-8.10744
-8.12743
-8.14579
-8.16237
-8.17699
-8.18949
-8.19969
-8.20739
-8.21241
-8.21455
-8.21362
-8.20941
-8.20173
-8.19036
-8.1751
-8.15574
-8.13209
-8.10393
-8.07106
-8.03328
-7.99041
-7.94224
-7.8886
-7.82931
-7.76421
-7.69311
-7.61589
-7.53239
-7.44248
-7.34604
-7.24297
-7.13313
-7.01637
-6.89252
-6.76165
-6.62385
-6.47904
-6.3272
-6.16831
-6.00238
-5.82943
-5.64952
-5.4627
-5.26905
-5.06867
-4.86166
-4.64815
-4.4283
-4.20224
-3.97017
-3.73227
-3.48875
-3.23982
-2.98572
-2.72669
-2.46299
-2.19489
-1.92268
-1.64664
-1.36707
-1.08428
-0.798588
-0.510309
-0.219769
0.0727128
0.366823
0.662226
0.958565
1.25551
1.55275
1.84999
2.14689
2.44314
2.73843
3.03245
3.32493
3.61557
3.90411
4.19029
4.47385
4.75457
5.03222
5.30657
5.57745
5.84466
6.10802
6.36739
6.6226
6.87354
7.12007
7.36209
7.5995
7.83222
8.06015
8.28323
8.50139
8.71457
8.92275
9.1259
9.32394
9.51683
9.70447
9.88684
10.0639
10.2359
10.4027
10.5647
10.7223
10.8769
11.0284
11.189
11.3321
-7.11858
-7.11886
-7.11937
-7.12013
-7.12102
-7.12189
-7.12267
-7.12336
-7.12396
-7.1245
-7.125
-7.1255
-7.12604
-7.12665
-7.12735
-7.12819
-7.12918
-7.13038
-7.1318
-7.13351
-7.13556
-7.13802
-7.14097
-7.14449
-7.14867
-7.15359
-7.15934
-7.16599
-7.17362
-7.1823
-7.19207
-7.20298
-7.21507
-7.22835
-7.24283
-7.2585
-7.27533
-7.29331
-7.31239
-7.33254
-7.3537
-7.37582
-7.39885
-7.42272
-7.44737
-7.47273
-7.49874
-7.52534
-7.55246
-7.58002
-7.60797
-7.63624
-7.66476
-7.69348
-7.72232
-7.75122
-7.78011
-7.80891
-7.83754
-7.86592
-7.89396
-7.92157
-7.94864
-7.97507
-8.00075
-8.02556
-8.04936
-8.07203
-8.09342
-8.11339
-8.13178
-8.14843
-8.16317
-8.17583
-8.18623
-8.19418
-8.19949
-8.20198
-8.20143
-8.19766
-8.19046
-8.17962
-8.16494
-8.14621
-8.12323
-8.09579
-8.06369
-8.02673
-7.98472
-7.93746
-7.88477
-7.82647
-7.7624
-7.69238
-7.61626
-7.53389
-7.44514
-7.34988
-7.24799
-7.13935
-7.02386
-6.90141
-6.77201
-6.63566
-6.49232
-6.34197
-6.18458
-6.02018
-5.84877
-5.67041
-5.48515
-5.29307
-5.09425
-4.88881
-4.67687
-4.45856
-4.23405
-4.00351
-3.76712
-3.52509
-3.27763
-3.02497
-2.76735
-2.50504
-2.23828
-1.96738
-1.6926
-1.41425
-1.13264
-0.84807
-0.560868
-0.271356
0.0201554
0.313352
0.607884
0.903401
1.1996
1.49617
1.79278
2.08911
2.38485
2.67969
2.97332
3.26547
3.55584
3.84416
4.13017
4.41363
4.69429
4.97193
5.24633
5.51729
5.78463
6.04816
6.30773
6.56319
6.8144
7.06123
7.30357
7.54131
7.77436
8.00266
8.22613
8.44471
8.65832
8.86692
9.07052
9.26912
9.46266
9.65101
9.83412
10.012
10.1847
10.3524
10.5154
10.674
10.8297
10.9813
11.1412
11.2722
-7.11439
-7.11512
-7.11627
-7.11755
-7.1187
-7.11968
-7.12048
-7.12113
-7.12166
-7.12211
-7.12251
-7.1229
-7.12334
-7.12385
-7.12449
-7.12528
-7.12628
-7.12751
-7.12904
-7.13092
-7.13321
-7.136
-7.13934
-7.14334
-7.14806
-7.15358
-7.15996
-7.16728
-7.17559
-7.18492
-7.19531
-7.20678
-7.21934
-7.23302
-7.24779
-7.26366
-7.28059
-7.29856
-7.31755
-7.3375
-7.35838
-7.38014
-7.40274
-7.42612
-7.45023
-7.47502
-7.50044
-7.52643
-7.55294
-7.5799
-7.60726
-7.63496
-7.66294
-7.69113
-7.71949
-7.74793
-7.77639
-7.8048
-7.83307
-7.86112
-7.88888
-7.91623
-7.94308
-7.96933
-7.99485
-8.01954
-8.04326
-8.06588
-8.08725
-8.10724
-8.12568
-8.14241
-8.15727
-8.17008
-8.18067
-8.18884
-8.1944
-8.19717
-8.19694
-8.19352
-8.1867
-8.17628
-8.16204
-8.14379
-8.12132
-8.09442
-8.06289
-8.02653
-7.98514
-7.93854
-7.88654
-7.82896
-7.76562
-7.69636
-7.62102
-7.53946
-7.45154
-7.35712
-7.25609
-7.14835
-7.03378
-6.91232
-6.78393
-6.6486
-6.50628
-6.35695
-6.20059
-6.03723
-5.86687
-5.68957
-5.50536
-5.31434
-5.11658
-4.91219
-4.7013
-4.48405
-4.26057
-4.03106
-3.79569
-3.55465
-3.30818
-3.05648
-2.79981
-2.53842
-2.27256
-2.00253
-1.72859
-1.45106
-1.17023
-0.886406
-0.599921
-0.311089
-0.0202141
0.272376
0.566325
0.8613
1.15702
1.45315
1.74936
2.04533
2.34074
2.63529
2.92869
3.22064
3.51085
3.79905
4.08499
4.3684
4.64906
4.92673
5.2012
5.47227
5.73974
6.00344
6.2632
6.51888
6.77032
7.01741
7.26003
7.49808
7.73147
7.96011
8.18394
8.40287
8.61686
8.82582
9.02974
9.22861
9.42241
9.61105
9.79449
9.97274
10.1459
10.314
10.4773
10.6362
10.7919
10.9424
11.0997
11.2193
-7.10862
-7.10988
-7.11185
-7.11379
-7.11536
-7.11658
-7.11753
-7.11828
-7.11887
-7.11936
-7.1198
-7.12024
-7.12075
-7.12135
-7.12211
-7.12307
-7.12428
-7.12579
-7.12766
-7.12994
-7.13271
-7.13603
-7.13998
-7.14463
-7.15003
-7.15627
-7.16338
-7.17141
-7.18041
-7.19039
-7.20138
-7.21338
-7.22641
-7.24046
-7.25552
-7.27157
-7.2886
-7.30657
-7.32547
-7.34525
-7.3659
-7.38736
-7.4096
-7.43258
-7.45626
-7.48059
-7.50553
-7.53104
-7.55706
-7.58354
-7.61043
-7.63767
-7.66522
-7.69301
-7.72098
-7.74907
-7.77721
-7.80532
-7.83333
-7.86115
-7.8887
-7.91588
-7.9426
-7.96873
-7.99418
-8.01882
-8.04252
-8.06515
-8.08656
-8.10661
-8.12515
-8.142
-8.157
-8.16998
-8.18075
-8.18913
-8.19493
-8.19796
-8.19801
-8.19489
-8.18839
-8.1783
-8.16442
-8.14654
-8.12446
-8.09797
-8.06687
-8.03096
-7.99003
-7.94391
-7.8924
-7.83532
-7.7725
-7.70377
-7.62898
-7.54798
-7.46063
-7.3668
-7.26637
-7.15925
-7.04533
-6.92454
-6.79683
-6.66218
-6.52054
-6.3719
-6.21623
-6.05356
-5.8839
-5.70729
-5.52379
-5.33347
-5.13641
-4.93273
-4.72254
-4.50597
-4.28319
-4.05437
-3.81967
-3.57931
-3.33349
-3.08244
-2.82641
-2.56564
-2.30039
-2.03094
-1.75758
-1.4806
-1.2003
-0.916997
-0.631007
-0.342642
-0.0522089
0.239948
0.533479
0.828077
1.12345
1.41928
1.71519
2.01089
2.30606
2.60041
2.89362
3.18541
3.47549
3.7636
4.04946
4.33283
4.61347
4.89115
5.16566
5.43678
5.70433
5.96813
6.22801
6.48383
6.73543
6.98271
7.22553
7.4638
7.69742
7.92629
8.15036
8.36953
8.58375
8.79295
8.99707
9.19611
9.39006
9.57886
9.76249
9.94093
10.1143
10.2825
10.446
10.6048
10.7599
10.9087
11.0634
11.1728
-7.10198
-7.10381
-7.10668
-7.10936
-7.11142
-7.11298
-7.11419
-7.11514
-7.11591
-7.11657
-7.11718
-7.11782
-7.11854
-7.1194
-7.12045
-7.12175
-7.12334
-7.12529
-7.12766
-7.1305
-7.13387
-7.13785
-7.14248
-7.14784
-7.15397
-7.16092
-7.16873
-7.17744
-7.18707
-7.19763
-7.20914
-7.2216
-7.23501
-7.24936
-7.26465
-7.28085
-7.29796
-7.31594
-7.33477
-7.35444
-7.3749
-7.39614
-7.41812
-7.4408
-7.46416
-7.48815
-7.51274
-7.53788
-7.56354
-7.58966
-7.6162
-7.64312
-7.67035
-7.69785
-7.72555
-7.7534
-7.78132
-7.80924
-7.83708
-7.86477
-7.89222
-7.91932
-7.94598
-7.97209
-7.99754
-8.02221
-8.04596
-8.06866
-8.09016
-8.11033
-8.12899
-8.14599
-8.16116
-8.17432
-8.18528
-8.19387
-8.1999
-8.20315
-8.20345
-8.20058
-8.19434
-8.18452
-8.17092
-8.15333
-8.13154
-8.10535
-8.07456
-8.03895
-7.99834
-7.95254
-7.90135
-7.84461
-7.78212
-7.71374
-7.6393
-7.55865
-7.47166
-7.3782
-7.27815
-7.17141
-7.0579
-6.93752
-6.81024
-6.67601
-6.53479
-6.38657
-6.23133
-6.06908
-5.89985
-5.72368
-5.54061
-5.35072
-5.1541
-4.95086
-4.7411
-4.52498
-4.30264
-4.07424
-3.83998
-3.60005
-3.35466
-3.10404
-2.84842
-2.58806
-2.32322
-2.05417
-1.7812
-1.50459
-1.22466
-0.941715
-0.656071
-0.368032
-0.0779231
0.213909
0.507131
0.801451
1.09657
1.39215
1.68783
1.98332
2.27829
2.57246
2.8655
3.15715
3.4471
3.7351
4.02088
4.30418
4.58476
4.86241
5.13689
5.408
5.67557
5.9394
6.19933
6.45521
6.7069
6.95427
7.19719
7.43557
7.66931
7.89832
8.12252
8.34183
8.55619
8.76553
8.96978
9.16894
9.36299
9.5519
9.73564
9.9142
10.0876
10.2559
10.4193
10.5777
10.732
10.8789
11.0311
11.1317
-7.09532
-7.09767
-7.10143
-7.10485
-7.10743
-7.10938
-7.11092
-7.11216
-7.1132
-7.11412
-7.11501
-7.11594
-7.11698
-7.1182
-7.11964
-7.12138
-7.12346
-7.12594
-7.12888
-7.13232
-7.13634
-7.14098
-7.1463
-7.15233
-7.15914
-7.16674
-7.17518
-7.18448
-7.19464
-7.2057
-7.21764
-7.23047
-7.2442
-7.2588
-7.27428
-7.29061
-7.30779
-7.32579
-7.34459
-7.36418
-7.38453
-7.40561
-7.42741
-7.44989
-7.47302
-7.49678
-7.52112
-7.54602
-7.57144
-7.59733
-7.62365
-7.65035
-7.67739
-7.70471
-7.73226
-7.75997
-7.78778
-7.81562
-7.8434
-7.87105
-7.89848
-7.92559
-7.95229
-7.97845
-8.00397
-8.02873
-8.05259
-8.07541
-8.09705
-8.11737
-8.1362
-8.15337
-8.16872
-8.18206
-8.19322
-8.20201
-8.20823
-8.2117
-8.21219
-8.20953
-8.20349
-8.19388
-8.18048
-8.16309
-8.1415
-8.1155
-8.08489
-8.04948
-8.00906
-7.96344
-7.91243
-7.85587
-7.79356
-7.72536
-7.6511
-7.57063
-7.48382
-7.39054
-7.29068
-7.18414
-7.07082
-6.95065
-6.82358
-6.68956
-6.54856
-6.40054
-6.24552
-6.08349
-5.91447
-5.73852
-5.55568
-5.36602
-5.16963
-4.96662
-4.75711
-4.54123
-4.31913
-4.09099
-3.85698
-3.6173
-3.37217
-3.1218
-2.86644
-2.60634
-2.34175
-2.07296
-1.80024
-1.52388
-1.2442
-0.961497
-0.676089
-0.388282
-0.0984158
0.193171
0.486164
0.780272
1.07519
1.37057
1.66607
1.96137
2.25617
2.55017
2.84307
3.13457
3.42439
3.71227
3.99793
4.28113
4.56163
4.8392
5.11362
5.38469
5.65222
5.91603
6.17595
6.43183
6.68353
6.93092
7.17388
7.4123
7.64609
7.87515
8.09941
8.31879
8.53322
8.74263
8.94697
9.1462
9.34032
9.52929
9.71307
9.89166
10.0651
10.2333
10.3964
10.5543
10.7077
10.8526
11.0024
11.0954
-7.08943
-7.0922
-7.09675
-7.10085
-7.10392
-7.10629
-7.10818
-7.10975
-7.1111
-7.11234
-7.11356
-7.11484
-7.11626
-7.11788
-7.11976
-7.12197
-7.12456
-7.12758
-7.13108
-7.13511
-7.13973
-7.14498
-7.15091
-7.15754
-7.16493
-7.17309
-7.18206
-7.19184
-7.20246
-7.21392
-7.22621
-7.23935
-7.25333
-7.26814
-7.28378
-7.30022
-7.31747
-7.3355
-7.35429
-7.37384
-7.39413
-7.41513
-7.43682
-7.45918
-7.48218
-7.5058
-7.53001
-7.55477
-7.58005
-7.60582
-7.63202
-7.65863
-7.68558
-7.71284
-7.74034
-7.76802
-7.79582
-7.82367
-7.85148
-7.87919
-7.90668
-7.93388
-7.96068
-7.98696
-8.01262
-8.03752
-8.06153
-8.08452
-8.10633
-8.12682
-8.14583
-8.16318
-8.17871
-8.19224
-8.20357
-8.21254
-8.21893
-8.22255
-8.2232
-8.22068
-8.21478
-8.2053
-8.19202
-8.17474
-8.15325
-8.12734
-8.09682
-8.06147
-8.02112
-7.97556
-7.9246
-7.86808
-7.80582
-7.73765
-7.66341
-7.58297
-7.49619
-7.40294
-7.30311
-7.19659
-7.08331
-6.96318
-6.83615
-6.70218
-6.56121
-6.41325
-6.25827
-6.09629
-5.92733
-5.75144
-5.56867
-5.37908
-5.18278
-4.97986
-4.77044
-4.55466
-4.33267
-4.10464
-3.87075
-3.6312
-3.3862
-3.13597
-2.88075
-2.6208
-2.35637
-2.08773
-1.81517
-1.53898
-1.25947
-0.976932
-0.691689
-0.404059
-0.114383
0.177016
0.469827
0.763761
1.05851
1.35372
1.64905
1.94418
2.23882
2.53266
2.82539
3.11674
3.40642
3.69415
3.97968
4.26276
4.54315
4.82061
5.09493
5.36591
5.63336
5.8971
6.15696
6.41279
6.66445
6.91181
7.15474
7.39315
7.62693
7.856
8.08027
8.29967
8.51412
8.72356
8.92793
9.12719
9.32133
9.51031
9.6941
9.87266
10.046
10.214
10.3768
10.534
10.6863
10.8292
10.977
11.0634
-7.08494
-7.08802
-7.09313
-7.09779
-7.10133
-7.10408
-7.10632
-7.10821
-7.10988
-7.11145
-7.11301
-7.11465
-7.11645
-7.11847
-7.12078
-7.12344
-7.1265
-7.13001
-7.13401
-7.13856
-7.1437
-7.14947
-7.15591
-7.16305
-7.17091
-7.17953
-7.18891
-7.19908
-7.21005
-7.22181
-7.23439
-7.24776
-7.26193
-7.2769
-7.29266
-7.3092
-7.32651
-7.34458
-7.36339
-7.38294
-7.40321
-7.42417
-7.44582
-7.46814
-7.49109
-7.51467
-7.53883
-7.56355
-7.58881
-7.61455
-7.64074
-7.66735
-7.69432
-7.72161
-7.74915
-7.7769
-7.80478
-7.83273
-7.86065
-7.88848
-7.91612
-7.94346
-7.97042
-7.99687
-8.0227
-8.04778
-8.07197
-8.09514
-8.11714
-8.13781
-8.15699
-8.17451
-8.1902
-8.20388
-8.21535
-8.22444
-8.23095
-8.23467
-8.23541
-8.23297
-8.22713
-8.21769
-8.20443
-8.18717
-8.16568
-8.13976
-8.1092
-8.07382
-8.03341
-7.98779
-7.93676
-7.88016
-7.81781
-7.74954
-7.67521
-7.59466
-7.50777
-7.41442
-7.31448
-7.20787
-7.09449
-6.97426
-6.84714
-6.71307
-6.57203
-6.42398
-6.26893
-6.10688
-5.93786
-5.76191
-5.5791
-5.38948
-5.19314
-4.99021
-4.78078
-4.565
-4.34303
-4.11502
-3.88117
-3.64166
-3.39672
-3.14656
-2.89142
-2.63155
-2.36721
-2.09867
-1.82623
-1.55016
-1.27077
-0.98836
-0.703251
-0.415775
-0.126263
0.164974
0.457622
0.751391
1.04598
1.34101
1.63616
1.93112
2.22558
2.51923
2.8118
3.10297
3.39248
3.68005
3.96542
4.24835
4.52858
4.8059
5.08008
5.35093
5.61825
5.88188
6.14163
6.39736
6.64893
6.89621
7.13907
7.37742
7.61115
7.84018
8.06442
8.28379
8.49822
8.70765
8.91201
9.11127
9.3054
9.49436
9.67809
9.85657
10.0297
10.1975
10.3599
10.5163
10.6674
10.8085
10.9543
11.0353
-7.08224
-7.08548
-7.0909
-7.09596
-7.09986
-7.10294
-7.10549
-7.10768
-7.10965
-7.11153
-7.1134
-7.11537
-7.11751
-7.1199
-7.12258
-7.12563
-7.12908
-7.133
-7.13743
-7.1424
-7.14795
-7.15413
-7.16096
-7.16848
-7.1767
-7.18565
-7.19534
-7.20578
-7.217
-7.22898
-7.24174
-7.25528
-7.26959
-7.28468
-7.30053
-7.31715
-7.33452
-7.35264
-7.3715
-7.39108
-7.41137
-7.43236
-7.45404
-7.47637
-7.49935
-7.52296
-7.54716
-7.57193
-7.59724
-7.62305
-7.64932
-7.67602
-7.70309
-7.73049
-7.75817
-7.78606
-7.8141
-7.8422
-7.8703
-7.8983
-7.92612
-7.95365
-7.9808
-8.00744
-8.03345
-8.05872
-8.08309
-8.10644
-8.1286
-8.14942
-8.16874
-8.18639
-8.20219
-8.21596
-8.22751
-8.23666
-8.24321
-8.24695
-8.24769
-8.24523
-8.23935
-8.22985
-8.21652
-8.19916
-8.17756
-8.15152
-8.12083
-8.08529
-8.04472
-7.99891
-7.9477
-7.8909
-7.82835
-7.75987
-7.68533
-7.60457
-7.51747
-7.4239
-7.32376
-7.21694
-7.10335
-6.98294
-6.85562
-6.72137
-6.58015
-6.43193
-6.27671
-6.11452
-5.94536
-5.76928
-5.58635
-5.39662
-5.2002
-4.99718
-4.78769
-4.57186
-4.34985
-4.12182
-3.88796
-3.64846
-3.40353
-3.1534
-2.8983
-2.63849
-2.37423
-2.10578
-1.83343
-1.55746
-1.27819
-0.995912
-0.710949
-0.423634
-0.134288
0.156779
0.449245
0.742834
1.03723
1.33208
1.62702
1.92178
2.21603
2.50948
2.80184
3.0928
3.38211
3.66947
3.95464
4.23736
4.5174
4.79452
5.06852
5.33919
5.60635
5.8698
6.1294
6.38499
6.63642
6.88357
7.12633
7.36457
7.59821
7.82715
8.05131
8.27062
8.485
8.69438
8.89872
9.09794
9.29203
9.48093
9.66459
9.84294
10.0159
10.1834
10.3452
10.5009
10.6508
10.79
10.934
11.0105
-7.08143
-7.08471
-7.09021
-7.09548
-7.09964
-7.10297
-7.10577
-7.1082
-7.11042
-7.11254
-7.11468
-7.11692
-7.11934
-7.12201
-7.12499
-7.12834
-7.13211
-7.13633
-7.14106
-7.14633
-7.15218
-7.15864
-7.16573
-7.17349
-7.18194
-7.1911
-7.20098
-7.2116
-7.22297
-7.23509
-7.24798
-7.26162
-7.27603
-7.29121
-7.30714
-7.32383
-7.34127
-7.35945
-7.37837
-7.39801
-7.41837
-7.43943
-7.46118
-7.4836
-7.50667
-7.53038
-7.55468
-7.57955
-7.60497
-7.63091
-7.65733
-7.68419
-7.71144
-7.73903
-7.76689
-7.79497
-7.8232
-7.85151
-7.8798
-7.908
-7.93601
-7.96373
-7.99106
-8.01787
-8.04406
-8.06947
-8.09399
-8.11746
-8.13972
-8.16063
-8.18002
-8.19772
-8.21355
-8.22732
-8.23885
-8.24796
-8.25444
-8.2581
-8.25873
-8.25614
-8.25011
-8.24044
-8.22693
-8.20936
-8.18754
-8.16126
-8.13032
-8.09452
-8.05367
-8.00759
-7.95608
-7.89899
-7.83614
-7.76736
-7.69251
-7.61146
-7.52406
-7.4302
-7.32977
-7.22267
-7.10881
-6.98813
-6.86057
-6.72607
-6.58461
-6.43617
-6.28075
-6.11836
-5.94902
-5.77278
-5.58969
-5.39983
-5.20329
-5.00017
-4.79059
-4.5747
-4.35264
-4.12458
-3.8907
-3.6512
-3.4063
-3.15621
-2.90117
-2.64143
-2.37725
-2.10891
-1.83668
-1.56085
-1.28172
-0.999601
-0.714817
-0.427689
-0.138531
0.152331
0.444579
0.737957
1.03213
1.32673
1.62143
1.91593
2.20993
2.50312
2.79522
3.08592
3.37496
3.66207
3.94698
4.22945
4.50923
4.78612
5.05988
5.33032
5.59725
5.86049
6.11989
6.37528
6.62653
6.87351
7.11611
7.35421
7.58771
7.81653
8.04059
8.2598
8.4741
8.68341
8.88768
9.08686
9.28088
9.4697
9.65324
9.83143
10.0042
10.1712
10.3325
10.4873
10.6361
10.7736
10.9159
10.9888
-7.08247
-7.08566
-7.09108
-7.09639
-7.10068
-7.10416
-7.10711
-7.10971
-7.11209
-7.11439
-7.11671
-7.11914
-7.12175
-7.12462
-7.1278
-7.13135
-7.1353
-7.13971
-7.14462
-7.15006
-7.15607
-7.16267
-7.16991
-7.1778
-7.18637
-7.19564
-7.20563
-7.21633
-7.22778
-7.23998
-7.25293
-7.26663
-7.2811
-7.29633
-7.31232
-7.32906
-7.34657
-7.36482
-7.38381
-7.40355
-7.42401
-7.44517
-7.46703
-7.48956
-7.51275
-7.53658
-7.56102
-7.58605
-7.61164
-7.63777
-7.66438
-7.69144
-7.7189
-7.7467
-7.77478
-7.80306
-7.83149
-7.85998
-7.88844
-7.91681
-7.94497
-7.97284
-8.00029
-8.02721
-8.05349
-8.07897
-8.10354
-8.12703
-8.1493
-8.17019
-8.18954
-8.20716
-8.22289
-8.23654
-8.24793
-8.25687
-8.26316
-8.2666
-8.267
-8.26415
-8.25784
-8.24789
-8.23407
-8.21618
-8.19403
-8.1674
-8.13611
-8.09995
-8.05873
-8.01228
-7.96041
-7.90294
-7.83971
-7.77057
-7.69536
-7.61395
-7.5262
-7.432
-7.33124
-7.22382
-7.10966
-6.98868
-6.86084
-6.72608
-6.58437
-6.4357
-6.28006
-6.11747
-5.94796
-5.77155
-5.58833
-5.39835
-5.20171
-4.99851
-4.78887
-4.57294
-4.35086
-4.1228
-3.88894
-3.64948
-3.40464
-3.15463
-2.89968
-2.64006
-2.37602
-2.10783
-1.83577
-1.56012
-1.28119
-0.999302
-0.714757
-0.427867
-0.138958
0.151628
0.443602
0.736711
1.03059
1.32486
1.61925
1.91343
2.20711
2.49998
2.79174
3.08212
3.37084
3.65762
3.94221
4.22436
4.50384
4.78041
5.05388
5.32403
5.59068
5.85366
6.1128
6.36795
6.61897
6.86573
7.10813
7.34604
7.57938
7.80805
8.03196
8.25106
8.46524
8.67446
8.87865
9.07774
9.27168
9.4604
9.64381
9.82181
9.99426
10.1609
10.3216
10.4756
10.6232
10.7592
10.8997
10.9698
-7.0852
-7.08824
-7.09344
-7.09866
-7.10295
-7.10646
-7.10946
-7.11212
-7.11457
-7.11694
-7.11934
-7.12185
-7.12454
-7.12749
-7.13075
-7.13436
-7.13839
-7.14286
-7.14782
-7.15331
-7.15937
-7.16602
-7.17329
-7.18121
-7.1898
-7.19909
-7.20908
-7.2198
-7.23125
-7.24345
-7.25641
-7.27013
-7.28463
-7.29989
-7.31593
-7.33273
-7.35029
-7.36861
-7.38768
-7.40749
-7.42804
-7.44931
-7.47128
-7.49394
-7.51727
-7.54125
-7.56586
-7.59108
-7.61686
-7.64318
-7.66999
-7.69724
-7.72488
-7.75286
-7.7811
-7.80953
-7.83808
-7.86668
-7.89524
-7.92367
-7.95188
-7.97977
-8.00723
-8.03414
-8.06036
-8.08578
-8.11025
-8.13362
-8.15573
-8.17645
-8.19558
-8.21298
-8.22845
-8.24183
-8.25292
-8.26154
-8.26749
-8.27058
-8.27061
-8.26738
-8.26068
-8.25031
-8.23608
-8.21778
-8.1952
-8.16815
-8.13643
-8.09984
-8.0582
-8.01132
-7.95903
-7.90115
-7.83751
-7.76798
-7.69239
-7.61061
-7.5225
-7.42796
-7.32687
-7.21913
-7.10467
-6.98342
-6.85531
-6.72031
-6.57838
-6.42951
-6.27369
-6.11094
-5.94128
-5.76476
-5.58144
-5.39139
-5.1947
-4.99148
-4.78184
-4.56592
-4.34389
-4.1159
-3.88213
-3.64278
-3.39807
-3.14821
-2.89345
-2.63402
-2.3702
-2.10224
-1.83043
-1.55506
-1.27644
-0.994861
-0.710629
-0.424058
-0.135496
0.15472
0.446347
0.739104
1.03259
1.32645
1.62043
1.91421
2.20748
2.49994
2.7913
3.08127
3.36958
3.65596
3.94016
4.22192
4.50101
4.77721
5.05032
5.32012
5.58643
5.84908
6.10791
6.36277
6.61351
6.86001
7.10216
7.33985
7.57299
7.80147
8.02522
8.24417
8.45823
8.66733
8.87142
9.07042
9.26426
9.45286
9.63612
9.81391
9.98606
10.1523
10.3124
10.4655
10.6119
10.7465
10.8853
10.9535
-7.08945
-7.0923
-7.09721
-7.10223
-7.10639
-7.1098
-7.11272
-7.1153
-7.11768
-7.11999
-7.12233
-7.12478
-7.12742
-7.13032
-7.13353
-7.1371
-7.14108
-7.14551
-7.15043
-7.15587
-7.16187
-7.16846
-7.17567
-7.18352
-7.19205
-7.20127
-7.2112
-7.22186
-7.23326
-7.24542
-7.25833
-7.27202
-7.28649
-7.30174
-7.31777
-7.33458
-7.35217
-7.37053
-7.38965
-7.40952
-7.43014
-7.45149
-7.47358
-7.49637
-7.51984
-7.54397
-7.56872
-7.59407
-7.61997
-7.6464
-7.6733
-7.70063
-7.72834
-7.75636
-7.78462
-7.81306
-7.84159
-7.87013
-7.89861
-7.92693
-7.95501
-7.98274
-8.01002
-8.03671
-8.0627
-8.08786
-8.11204
-8.13509
-8.15687
-8.17722
-8.19598
-8.21298
-8.22804
-8.24098
-8.25163
-8.2598
-8.26528
-8.2679
-8.26745
-8.26374
-8.25656
-8.24571
-8.23099
-8.2122
-8.18914
-8.16162
-8.12943
-8.09238
-8.05029
-8.00297
-7.95025
-7.89195
-7.82792
-7.75801
-7.68205
-7.59992
-7.51149
-7.41663
-7.31525
-7.20725
-7.09255
-6.97107
-6.84276
-6.70758
-6.5655
-6.41649
-6.26057
-6.09774
-5.92803
-5.75149
-5.56816
-5.37813
-5.18149
-4.97833
-4.76879
-4.553
-4.33112
-4.1033
-3.86973
-3.6306
-3.38614
-3.13655
-2.88207
-2.62296
-2.35947
-2.09186
-1.82043
-1.54546
-1.26725
-0.986088
-0.702273
-0.416145
-0.128056
0.161685
0.452873
0.745162
1.03812
1.33148
1.62495
1.91823
2.21099
2.50294
2.79379
3.08326
3.37108
3.65697
3.94068
4.22197
4.5006
4.77636
5.04903
5.31841
5.58432
5.84658
6.10504
6.35955
6.60997
6.85617
7.09803
7.33547
7.56836
7.79663
8.0202
8.23897
8.45289
8.66187
8.86584
9.06474
9.25847
9.44695
9.63005
9.80762
9.97947
10.1453
10.3047
10.457
10.6023
10.7355
10.8726
10.9395
-7.0951
-7.09776
-7.10234
-7.10705
-7.11094
-7.1141
-7.11675
-7.11908
-7.12122
-7.1233
-7.12542
-7.12768
-7.13015
-7.13288
-7.13594
-7.13936
-7.1432
-7.14749
-7.15226
-7.15756
-7.16341
-7.16985
-7.1769
-7.1846
-7.19297
-7.20203
-7.21181
-7.22232
-7.23358
-7.24561
-7.25841
-7.27199
-7.28636
-7.30152
-7.31746
-7.33421
-7.35175
-7.37009
-7.3892
-7.40908
-7.42972
-7.4511
-7.4732
-7.49601
-7.51948
-7.5436
-7.56833
-7.59363
-7.61947
-7.64581
-7.6726
-7.69978
-7.72733
-7.75517
-7.78325
-7.81148
-7.83977
-7.86803
-7.8962
-7.92418
-7.9519
-7.97925
-8.00612
-8.03238
-8.05792
-8.08259
-8.10627
-8.12882
-8.15007
-8.16989
-8.1881
-8.20454
-8.21905
-8.23143
-8.24152
-8.24912
-8.25405
-8.25611
-8.25512
-8.25086
-8.24315
-8.23178
-8.21655
-8.19727
-8.17373
-8.14574
-8.11309
-8.07561
-8.03309
-7.98537
-7.93227
-7.87362
-7.80926
-7.73903
-7.66278
-7.58038
-7.49171
-7.39663
-7.29505
-7.18688
-7.07203
-6.95043
-6.82203
-6.68679
-6.54467