/*--------------------------------*- C++ -*----------------------------------*\
  =========                 |
  \\      /  F ield         | OpenFOAM: The Open Source CFD Toolbox
   \\    /   O peration     | Website:  https://openfoam.org
    \\  /    A nd           | Version:  8
     \\/     M anipulation  |
\*---------------------------------------------------------------------------*/
FoamFile
{
    version     2.0;
    format      ascii;
    class       volVectorField;
    location    "2000";
    object      wallShearStress;
}
// * * * * * * * * * * * * * * * * * * * * * * * * * * * * * * * * * * * * * //

dimensions      [0 2 -2 0 0 0 0];

internalField   uniform (0 0 0);

boundaryField
{
    inlet
    {
        type            calculated;
        value           uniform (0 0 0);
    }
    outlet
    {
        type            calculated;
        value           uniform (0 0 0);
    }
    upperWall
    {
        type            calculated;
        value           nonuniform List<vector> 
223
(
(-0.582193 -0.392359 0)
(-0.977814 -0.219377 0)
(-0.939335 -0.0567746 0)
(-0.81071 -0.00585779 0)
(-0.734594 0.00331372 0)
(-0.695452 0.00231546 0)
(-0.67094 0.000424241 0)
(-0.653507 -0.00144881 0)
(-0.640532 -0.00256251 0)
(-0.629819 -0.00218347 0)
(-0.620057 -0.00130527 0)
(-0.610991 -0.00107833 0)
(-0.603031 -0.00138788 0)
(-0.596182 -0.00127375 0)
(-0.590428 -0.0010577 0)
(-0.585074 -0.000336908 0)
(-0.579792 0.00169414 0)
(-0.574947 0.00152975 0)
(-0.570749 0.00148844 0)
(-0.567082 0.0013429 4.21973e-22)
(-0.564062 0.000398903 0)
(-0.561509 0.000535802 0)
(-0.558742 0.00145367 0)
(-0.555932 0.00255339 4.50157e-22)
(-0.552848 0.00411686 0)
(-0.549548 0.00447086 0)
(-0.546543 0.00403219 0)
(-0.543793 0.00402946 -9.4251e-22)
(-0.540969 0.00377469 9.51601e-22)
(-0.538225 0.00340883 9.61307e-22)
(-0.535548 0.00301022 0)
(-0.532919 0.00261598 -9.82613e-22)
(-0.530324 0.00229407 0)
(-0.527736 0.00204278 1.00627e-21)
(-0.525138 0.00182862 1.01863e-21)
(-0.522523 0.00166795 -1.03149e-21)
(-0.519879 0.0015367 0)
(-0.517215 0.00142986 0)
(-0.514529 0.00134517 0)
(-0.511815 0.00127788 0)
(-0.509071 0.00122441 -1.09481e-21)
(-0.506296 0.00118218 0)
(-0.503485 0.00114932 0)
(-0.500638 0.00112436 1.13318e-21)
(-0.497751 0.00110612 0)
(-0.494822 0.00109371 1.15881e-21)
(-0.491847 0.00108625 -1.17152e-21)
(-0.488824 0.00108281 1.18407e-21)
(-0.48575 0.00108345 0)
(-0.48262 0.00108613 0)
(-0.479437 0.00109004 0)
(-0.476201 0.00109443 1.23128e-21)
(-0.472916 0.00109772 -1.24192e-21)
(-0.469595 0.00110013 0)
(-0.466254 0.00110257 0)
(-0.462905 0.00110553 0)
(-0.459561 0.00110808 0)
(-0.456227 0.00110899 0)
(-0.452904 0.00110757 0)
(-0.449586 0.0011039 0)
(-0.446267 0.00109851 0)
(-0.442935 0.00109245 1.29213e-21)
(-0.43958 0.00108682 -1.29188e-21)
(-0.436192 0.00108247 0)
(-0.432758 0.00108003 0)
(-0.429268 0.00107974 0)
(-0.425714 0.00108161 -1.27843e-21)
(-0.422086 0.00108546 0)
(-0.418378 0.00109104 0)
(-0.414585 0.00109794 0)
(-0.410702 0.00110581 0)
(-0.406725 0.00111417 0)
(-0.402653 0.0011224 -2.43444e-21)
(-0.398485 0.0011301 0)
(-0.394222 0.00113672 0)
(-0.389867 0.00114165 0)
(-0.385425 0.00114472 0)
(-0.380906 0.00114583 0)
(-0.376321 0.0011448 0)
(-0.371681 0.00114146 0)
(-0.367 0.00113543 2.09533e-21)
(-0.362287 0.00112655 0)
(-0.35755 0.00111499 0)
(-0.352793 0.00110107 0)
(-0.34802 0.0010852 -1.83966e-21)
(-0.34323 0.00106804 0)
(-0.338421 0.00105024 -1.69022e-21)
(-0.333589 0.00103233 0)
(-0.32873 0.00101524 0)
(-0.323835 0.000999725 0)
(-0.319024 0.00099195 -1.35103e-21)
(-0.316383 0.0010011 0)
(-0.313659 0.00101497 1.18055e-21)
(-0.310854 0.00102965 1.08986e-21)
(-0.307974 0.00104284 0)
(-0.30503 0.00105376 8.96169e-22)
(-0.302032 0.00106251 0)
(-0.298995 0.00106997 0)
(-0.295934 0.00107666 0)
(-0.292862 0.00108519 -4.5476e-22)
(-0.289794 0.00109187 0)
(-0.28674 0.00110494 -2.05412e-22)
(-0.283719 0.0011014 7.3351e-23)
(-0.280729 0.00110736 0)
(-0.277801 0.00112616 0)
(-0.27492 0.0010995 0)
(-0.272111 0.00107655 0)
(-0.26937 0.00116242 0)
(-0.266711 0.00118008 0)
(-0.264148 0.000948272 0)
(-0.261646 0.000792381 1.15055e-21)
(-0.259225 0.000796848 0)
(-0.256932 0.00082533 0)
(-0.254741 0.000912083 0)
(-0.252551 0.000985783 0)
(-0.250627 0.000992298 0)
(-0.248572 0.00125166 0)
(-0.246604 0.00117614 0)
(-0.244568 0.000591294 0)
(-0.242596 0.000505626 0)
(-0.240574 0.00110933 0)
(-0.238822 0.00109117 0)
(-0.237004 0.000401362 0)
(-0.235098 0.000301149 7.21471e-21)
(-0.233601 0.000439256 0)
(-0.231877 0.000466105 0)
(-0.230258 0.000592079 0)
(-0.228671 0.000605576 -8.82314e-21)
(-0.227162 0.000494218 0)
(-0.225498 0.000619212 0)
(-0.224215 0.000702166 -1.00475e-20)
(-0.222777 0.00058884 0)
(-0.221472 0.000997618 1.08576e-20)
(-0.220166 0.00129345 0)
(-0.219203 0.00121443 0)
(-0.217924 0.000550296 0)
(-0.216445 -0.000120781 -1.26299e-20)
(-0.214977 5.54975e-05 0)
(-0.213866 0.000175126 1.34594e-20)
(-0.212784 0.00023367 0)
(-0.211972 0.000338799 0)
(-0.210873 0.000446827 0)
(-0.209641 0.000322142 0)
(-0.209043 0.00027014 0)
(-0.207988 0.00044661 0)
(-0.206856 0.000338763 0)
(-0.206368 0.000266104 0)
(-0.20537 0.000433718 0)
(-0.204218 0.000336892 0)
(-0.203661 0.000256604 0)
(-0.202906 0.000352707 1.84619e-20)
(-0.202387 0.000344346 -1.88533e-20)
(-0.201436 0.000288891 0)
(-0.200893 0.00032529 0)
(-0.200297 0.000319863 0)
(-0.199629 0.000259079 0)
(-0.199091 0.00028475 -2.09053e-20)
(-0.198594 0.000312733 2.13198e-20)
(-0.198076 0.000264547 -2.17426e-20)
(-0.197854 0.000299776 0)
(-0.197075 0.000299816 -2.25965e-20)
(-0.196664 0.000241246 -4.58455e-20)
(-0.195863 0.000321256 0)
(-0.195107 0.000333749 -4.78248e-20)
(-0.194897 0.000188315 4.83868e-20)
(-0.194921 0.00017839 0)
(-0.19421 0.000321786 0)
(-0.193545 0.000259178 0)
(-0.193475 0.000235855 0)
(-0.192869 0.000270247 0)
(-0.192386 0.000258659 -5.34196e-20)
(-0.191617 0.000268115 0)
(-0.191527 0.000265708 -5.51137e-20)
(-0.191021 0.0002893 0)
(-0.190644 0.000245421 0)
(-0.190299 0.00023189 0)
(-0.189741 0.000255917 0)
(-0.189368 0.000272485 0)
(-0.188383 0.000318575 6.10228e-20)
(-0.187542 0.000309875 0)
(-0.187114 0.000298571 0)
(-0.186501 0.000295127 -6.39151e-20)
(-0.185764 0.000323462 0)
(-0.184717 0.000391407 0)
(-0.183669 0.000321101 0)
(-0.183059 0.000352596 6.86039e-20)
(-0.181845 0.000506976 0)
(-0.180514 0.000739377 0)
(-0.179174 0.00084383 0)
(-0.177752 0.000790873 0)
(-0.176126 0.000762753 -7.64962e-20)
(-0.174086 0.000781646 0)
(-0.170859 0.000828014 0)
(-0.167355 0.000855026 0)
(-0.162753 0.000775615 8.78521e-20)
(-0.15511 0.000920499 0)
(-0.147712 0.0020213 0)
(-0.123146 0.00216082 -1.08162e-19)
(-0.140977 0.00680992 0)
(-0.169217 0.0134022 1.25139e-17)
(-0.186753 0.017186 2.35455e-17)
(-0.193189 0.0189474 2.2694e-17)
(-0.196693 0.0197336 2.19952e-17)
(-0.200854 0.0203392 2.11496e-17)
(-0.205396 0.0210212 -2.0221e-17)
(-0.209645 0.0215006 -1.95117e-17)
(-0.213925 0.0218624 0)
(-0.217542 0.0219881 -3.68306e-17)
(-0.219845 0.0221738 -1.80891e-17)
(-0.22452 0.022713 7.64353e-34)
(-0.227422 0.0229055 -1.20371e-35)
(-0.231046 0.0233671 -3.2272e-17)
(-0.235449 0.0239528 -3.06571e-17)
(-0.242434 0.024799 -2.84654e-17)
(-0.24962 0.0254572 -2.40741e-35)
(-0.256929 0.0260734 4.9404e-17)
(-0.263946 0.0266497 2.26471e-17)
(-0.272772 0.0274471 2.40741e-35)
(-0.282665 0.0283568 -3.48624e-17)
(-0.291226 0.0290017 -1.58555e-20)
(-0.300796 0.029557 -3.00927e-36)
(-0.305377 0.0305113 1.34129e-17)
(-0.332963 0.0321995 -7.62534e-18)
)
;
    }
    lowerWall
    {
        type            calculated;
        value           nonuniform List<vector> 
250
(
(-0.653909 0.466638 0)
(-1.14095 0.204678 0)
(-1.03492 0.0379587 0)
(-0.869573 -0.000935989 0)
(-0.786941 -0.00419162 0)
(-0.746063 -0.00160781 0)
(-0.719879 0.00041623 0)
(-0.700646 -0.00065173 0)
(-0.68509 -0.00405595 0)
(-0.67132 -0.00471222 0)
(-0.658936 -0.00298815 0)
(-0.647724 -0.000864098 0)
(-0.637521 0.00142642 0)
(-0.628197 0.00210449 0)
(-0.619331 0.00136852 0)
(-0.611536 0.00135951 0)
(-0.60461 0.00169619 0)
(-0.605077 0.00195853 0)
(-0.004238 -0.0229304 0)
(-0.00277691 -0.0177681 0)
(-0.000719946 -0.0145899 0)
(0.00189206 -0.0138638 8.99817e-20)
(0.00521482 -0.015243 -7.85148e-20)
(0.00890604 -0.0208419 6.28173e-20)
(0.012678 -0.0200306 -4.84817e-20)
(0.0256422 -0.0632569 0)
(-0.0838994 -0.14469 0)
(0.000880683 -0.00384518 0)
(-0.0076648 0.00953241 0)
(-0.00852245 0.032819 0)
(-0.00255755 0.0448694 0)
(0.00294802 0.0442897 1.82175e-20)
(0.00617903 0.0360977 -1.89568e-20)
(0.00818381 0.0242008 0)
(0.00945726 0.0102022 -5.41589e-20)
(0.00943189 -0.00400134 6.11365e-20)
(0.00793612 -0.0173823 0)
(0.00614429 -0.0291571 0)
(0.00438453 -0.0385285 0)
(0.00268974 -0.0451099 0)
(0.000988918 -0.048854 0)
(-0.000882065 -0.049496 0)
(-0.00281695 -0.0463966 0)
(-0.00437447 -0.0399054 0)
(-0.0049045 -0.0308432 0)
(0.00132977 -0.00151683 0)
(0.00134188 0.00652787 0)
(-0.00450648 0.00962163 0)
(-0.00959636 0.00976129 0)
(-0.0133848 0.00830504 0)
(-0.0158936 0.00624077 0)
(-0.017271 0.00410266 1.49503e-21)
(-0.0177915 0.00201056 -1.52648e-21)
(-0.0173421 -3.3031e-06 0)
(-0.0160661 -0.0016842 -1.65206e-21)
(-0.0142011 -0.00283791 0)
(-0.0120618 -0.00329956 0)
(-0.0100591 -0.00304089 -0)
(-0.00855785 -0.00228496 2.56921e-21)
(-0.00761912 -0.00142465 0)
(-0.00694149 -0.000812067 0)
(-0.00612676 -0.000612432 -3.37529e-21)
(-0.00500323 -0.000979746 0)
(-0.00343045 -0.00235091 0)
(-0.000536209 -0.00503702 0)
(0.00432481 -0.00739978 3.04684e-21)
(0.00991153 -0.00889249 0)
(0.0158136 -0.00985135 1.47121e-21)
(0.0218624 -0.0106157 0)
(0.0280673 -0.0112688 -0)
(0.0343794 -0.0115164 8.45057e-22)
(0.0405145 -0.0113576 0)
(0.0491073 -0.0116035 -7.53951e-22)
(0.0588988 -0.011757 -0)
(0.0685954 -0.0115854 7.70612e-22)
(0.0780073 -0.0111723 0)
(0.0869834 -0.0105878 0)
(0.0954311 -0.00989386 0)
(0.103292 -0.00914023 -0)
(0.110542 -0.00836414 0)
(0.117178 -0.00759276 -8.11089e-22)
(0.123213 -0.0068432 -0)
(0.128671 -0.00612514 1.63297e-21)
(0.133579 -0.00544269 0)
(0.137963 -0.00479603 -1.63485e-21)
(0.14185 -0.00418371 -0)
(0.145264 -0.00360288 -0)
(0.148225 -0.00305074 1.62096e-21)
(0.150752 -0.00252514 0)
(0.152859 -0.00202497 1.60075e-21)
(0.154557 -0.00155105 -1.58744e-21)
(0.15586 -0.00110692 -0)
(0.156779 -0.000699392 -1.55482e-21)
(0.157326 -0.000338207 -1.53579e-21)
(0.157512 -4.00846e-05 -0)
(0.157407 0.000194599 0)
(0.157075 0.000391417 0)
(0.156521 0.000568079 0)
(0.15576 0.000731008 -0)
(0.1548 0.000884144 1.37574e-21)
(0.153648 0.00102828 0)
(0.152311 0.00116397 -1.30696e-21)
(0.150798 0.00129164 -0)
(0.149115 0.00141124 -0)
(0.147271 0.00152281 1.19051e-21)
(0.145271 0.00162641 0)
(0.143126 0.00172193 -1.10481e-21)
(0.140842 0.00180937 -0)
(0.138429 0.00188866 0)
(0.135895 0.00195988 -0)
(0.133249 0.00202316 9.16788e-22)
(0.130501 0.00207853 0)
(0.127659 0.00212608 -0)
(0.124733 0.00216603 7.63748e-22)
(0.121731 0.00219852 0)
(0.118664 0.00222371 6.57215e-22)
(0.115541 0.00224191 0)
(0.11237 0.00225334 0)
(0.109159 0.0022583 0)
(0.105918 0.00225706 -4.36137e-22)
(0.102656 0.00224985 -0)
(0.0993791 0.00223709 0)
(0.0960963 0.00221909 -2.65538e-22)
(0.0928151 0.00219616 -2.08089e-22)
(0.0895422 0.00216868 -0)
(0.0862847 0.00213703 -9.26235e-23)
(0.0830486 0.00210152 -0)
(0.0798404 0.00206252 4.66637e-23)
(0.076665 0.00202047 -0)
(0.073528 0.00197569 2.7908e-22)
(0.070434 0.00192871 0)
(0.0673873 0.00188017 -5.11758e-22)
(0.0643916 0.00183078 -0)
(0.0614501 0.00178157 0)
(0.0585652 0.00173378 -0)
(0.0557395 0.0016892 9.78515e-22)
(0.0529735 0.00164993 0)
(0.0502681 0.00161807 -1.21395e-21)
(0.0476221 0.00159481 0)
(0.0457838 0.00160349 1.47571e-21)
(0.0442414 0.00162102 1.63422e-21)
(0.0427023 0.00162592 1.79914e-21)
(0.041175 0.00161301 0)
(0.0396647 0.00158968 0)
(0.038171 0.001564 0)
(0.0366928 0.00153819 0)
(0.0352299 0.0015125 0)
(0.0337826 0.00148688 0)
(0.0323518 0.00146138 0)
(0.0309376 0.00143616 0)
(0.0295407 0.00141131 -3.69194e-21)
(0.0281614 0.00138714 -3.9676e-21)
(0.0267996 0.00136373 0)
(0.0254557 0.00134069 0)
(0.0241305 0.00131665 0)
(0.0228245 0.00129177 -5.26756e-21)
(0.0215385 0.00126754 0)
(0.0202719 0.00124389 0)
(0.0190249 0.00122083 0)
(0.0177975 0.0011984 0)
(0.01659 0.00117667 7.5362e-21)
(0.0154021 0.00115571 0)
(0.014234 0.00113563 0)
(0.0130855 0.00111651 -9.45501e-21)
(0.0119565 0.0010984 1.02326e-20)
(0.0108469 0.00108139 0)
(0.00975681 0.00106577 1.20688e-20)
(0.00868605 0.00105218 0)
(0.00763424 0.00104181 -1.44072e-20)
(0.00660069 0.00103492 0)
(0.00558513 0.00103052 0)
(0.00458744 0.00102831 0)
(0.00360722 0.0010286 0)
(0.00264405 0.00103163 0)
(0.00169836 0.00103735 5.57082e-20)
(0.000771646 0.00104294 6.4217e-20)
(-0.000138118 0.00103024 0)
(-0.00103535 0.000987434 0)
(-0.00191713 0.000935053 0)
(-0.0027834 0.000885566 -5.28931e-20)
(-0.00363407 0.000840651 0)
(-0.00446894 0.000799905 0)
(-0.00528839 0.000762842 0)
(-0.00609301 0.000728966 -4.04185e-20)
(-0.00688332 0.000697821 3.83683e-20)
(-0.00765987 0.000669029 0)
(-0.00842309 0.000642282 0)
(-0.00917346 0.000617336 3.36202e-20)
(-0.00991141 0.00059399 3.23797e-20)
(-0.0106374 0.00057208 0)
(-0.0113517 0.000551478 0)
(-0.012055 0.000532066 -2.93542e-20)
(-0.0127475 0.000513747 2.85264e-20)
(-0.0134297 0.000496435 0)
(-0.014102 0.000480067 0)
(-0.014765 0.000464578 2.64365e-20)
(-0.0154189 0.000449919 0)
(-0.0160642 0.000436042 0)
(-0.0167015 0.000422905 2.47908e-20)
(-0.017331 0.000410473 0)
(-0.0179534 0.000398712 2.38747e-20)
(-0.0185691 0.000387586 0)
(-0.0191785 0.000377068 0)
(-0.0197821 0.000367129 0)
(-0.0203804 0.00035773 -2.23587e-20)
(-0.0209736 0.000348863 0)
(-0.0215627 0.000340449 0)
(-0.0221473 0.000332437 0)
(-0.0227282 0.000324809 0)
(-0.0233056 0.000317449 0)
(-0.0238794 0.000310241 0)
(-0.0244495 0.000303063 -2.03851e-20)
(-0.0250157 0.000295685 -2.01547e-20)
(-0.0255768 0.000287847 0)
(-0.0261316 0.000279183 0)
(-0.0266778 0.000269152 0)
(-0.0272122 0.00025702 1.93598e-20)
(-0.0277296 0.000241531 0)
(-0.0282213 0.000221293 -3.81335e-20)
(-0.0286782 0.00019226 3.79273e-20)
(-0.0290714 0.000152637 3.78182e-20)
(-0.0294027 7.78892e-05 -3.78568e-20)
(-0.0294844 -3.9401e-05 3.80439e-20)
(-0.0295089 -0.000356575 -3.83961e-20)
(-0.0279743 -0.000616899 0)
(-0.029347 -0.000516245 -2.43309e-18)
(-0.0327708 -0.0013425 -2.26967e-18)
(-0.0364143 -0.0020335 0)
(-0.0395352 -0.00257619 -4.06071e-18)
(-0.0424852 -0.00301877 -7.75753e-18)
(-0.0455576 -0.00342183 -3.71944e-18)
(-0.0487807 -0.00381881 3.56803e-18)
(-0.0521176 -0.00430048 -3.00927e-35)
(-0.0555967 -0.00475864 3.00927e-36)
(-0.0592947 -0.00507324 3.14915e-18)
(-0.0632332 -0.00539788 3.02984e-18)
(-0.0674248 -0.00581229 6.01853e-36)
(-0.0719138 -0.0062587 0)
(-0.0767328 -0.0067112 0)
(-0.0819276 -0.00720343 -5.9386e-35)
(-0.0875475 -0.00774554 -8.83031e-35)
(-0.0936647 -0.00834627 6.62038e-35)
(-0.100334 -0.00900982 -4.15792e-18)
(-0.107696 -0.00973065 -3.81217e-18)
(-0.116759 -0.0106239 6.01853e-36)
(-0.127575 -0.0116273 6.13668e-18)
(-0.138429 -0.0127341 1.03491e-17)
(-0.153653 -0.0139274 1.80556e-35)
(-0.162853 -0.0152943 -5.09803e-18)
(-0.191967 -0.016982 -3.91205e-35)
)
;
    }
    frontAndBack
    {
        type            empty;
    }
}


// ************************************************************************* //
