/*--------------------------------*- C++ -*----------------------------------*\
  =========                 |
  \\      /  F ield         | OpenFOAM: The Open Source CFD Toolbox
   \\    /   O peration     | Website:  https://openfoam.org
    \\  /    A nd           | Version:  8
     \\/     M anipulation  |
\*---------------------------------------------------------------------------*/
FoamFile
{
    version     2.0;
    format      ascii;
    class       volScalarField;
    location    "3300";
    object      p;
}
// * * * * * * * * * * * * * * * * * * * * * * * * * * * * * * * * * * * * * //

dimensions      [0 2 -2 0 0 0 0];

internalField   nonuniform List<scalar> 
12225
(
514.676
55.5278
2.36344
0.281326
-1.89914
-3.37469
-3.81193
-4.02234
-4.23209
-4.36899
-4.41613
-4.42574
-4.42873
-4.45668
-4.51006
-4.5765
-4.72187
-4.94442
-122.179
0.23853
-2.71878
-0.765469
-2.21684
-3.52528
-3.95301
-4.13711
-4.28079
-4.38478
-4.4597
-4.51802
-4.56895
-4.60132
-4.62224
-4.64777
-4.71439
-4.80839
-200.646
-16.1488
-2.3468
-0.358692
-1.90118
-3.24516
-3.77256
-4.0228
-4.19549
-4.31975
-4.41243
-4.47963
-4.52826
-4.55348
-4.56852
-4.58406
-4.61593
-4.5991
-110.617
-10.9744
-2.17751
-0.4324
-1.78811
-3.02918
-3.60167
-3.90885
-4.11812
-4.26392
-4.36629
-4.43696
-4.48567
-4.51424
-4.53157
-4.53938
-4.53834
-4.46964
-61.5732
-8.14623
-3.62296
-1.2104
-2.01562
-2.99874
-3.52962
-3.84939
-4.0719
-4.22658
-4.33422
-4.40886
-4.46022
-4.49132
-4.50659
-4.50396
-4.47776
-4.3876
-45.7312
-8.78566
-5.25917
-2.20075
-2.43037
-3.10152
-3.53699
-3.83395
-4.04994
-4.20376
-4.31281
-4.38953
-4.44197
-4.47288
-4.48443
-4.47367
-4.43358
-4.33902
-35.795
-9.27692
-6.38096
-3.12519
-2.92239
-3.29048
-3.60439
-3.85529
-4.0507
-4.19588
-4.30187
-4.37765
-4.42926
-4.45899
-4.46791
-4.45329
-4.4093
-4.32224
-27.7785
-8.9077
-6.97443
-3.80345
-3.36247
-3.49931
-3.70137
-3.90086
-4.07022
-4.20248
-4.30225
-4.37499
-4.4249
-4.45373
-4.46206
-4.44775
-4.40676
-4.33202
-21.6905
-8.52066
-7.13513
-4.31132
-3.72977
-3.70692
-3.81721
-3.96557
-4.10586
-4.22213
-4.3132
-4.38126
-4.42871
-4.45665
-4.46535
-4.45338
-4.41837
-4.35737
-16.6133
-8.14134
-7.0888
-4.75621
-4.08407
-3.93529
-3.96016
-4.05361
-4.15998
-4.25619
-4.33565
-4.39725
-4.44148
-4.46866
-4.47883
-4.47135
-4.44541
-4.40092
-12.6396
-7.68154
-6.90682
-5.10252
-4.4077
-4.17127
-4.12287
-4.16242
-4.23262
-4.30598
-4.37158
-4.4253
-4.4658
-4.4926
-4.5056
-4.50475
-4.49047
-4.4643
-9.69969
-7.14946
-6.62993
-5.32736
-4.67956
-4.39808
-4.29541
-4.28768
-4.32286
-4.37252
-4.42304
-4.46807
-4.50472
-4.53178
-4.54894
-4.55654
-4.55564
-4.54834
-7.66675
-6.60541
-6.3067
-5.43234
-4.88401
-4.59822
-4.46461
-4.42146
-4.42674
-4.45452
-4.49051
-4.52711
-4.56042
-4.5886
-4.61111
-4.62831
-4.64139
-4.65229
-6.37167
-6.11376
-5.98644
-5.44108
-5.01667
-4.75849
-4.61706
-4.5534
-4.5374
-4.54799
-4.57206
-4.6019
-4.63316
-4.66358
-4.69235
-4.71958
-4.74617
-4.77352
-5.62343
-5.72311
-5.70975
-5.3916
-5.08668
-4.87377
-4.74255
-4.67299
-4.64599
-4.6462
-4.66285
-4.68894
-4.72022
-4.75424
-4.78988
-4.82691
-4.86572
-4.90705
-5.24412
-5.46092
-5.50885
-5.32829
-5.11576
-4.9487
-4.83642
-4.77143
-4.74274
-4.73988
-4.75455
-4.78083
-4.81476
-4.85391
-4.89688
-4.94307
-4.99236
-5.04491
-5.10289
-5.34502
-5.41769
-5.29969
-5.13566
-4.99654
-4.89888
-4.84097
-4.81586
-4.81566
-4.8335
-4.86409
-4.90367
-4.94972
-5.00061
-5.0554
-5.11357
-5.17489
-5.14063
-5.40083
-5.47493
-5.34877
-5.17495
-5.02921
-4.92893
-4.87171
-4.84978
-4.85461
-4.8788
-4.91662
-4.96399
-5.01806
-5.07696
-5.13947
-5.20485
-5.27266
-5.39292
-5.65528
-5.69097
-5.47583
-5.2266
-5.03621
-4.91508
-4.85199
-4.83292
-4.84519
-4.87882
-4.92664
-4.98377
-5.04696
-5.11411
-5.18388
-5.25549
-5.3285
-6.00232
-6.13712
-6.04287
-5.63535
-5.24735
-4.98756
-4.84102
-4.77606
-4.76652
-4.79286
-4.8414
-4.90322
-4.97273
-5.04653
-5.12255
-5.19962
-5.27707
-5.35469
-7.24994
-6.88976
-6.49443
-5.76211
-5.18333
-4.8532
-4.69656
-4.64639
-4.6603
-4.71078
-4.78098
-4.86096
-4.94522
-5.03071
-5.11591
-5.20009
-5.28297
-5.36469
-9.64145
-7.96483
-6.98285
-5.77213
-4.97981
-4.6124
-4.48218
-4.47393
-4.52875
-4.61405
-4.71175
-4.81284
-4.91284
-5.01001
-5.10382
-5.19435
-5.28188
-5.36691
-13.9826
-9.39132
-7.40343
-5.56981
-4.59503
-4.26448
-4.21533
-4.27996
-4.3921
-4.51953
-4.64759
-4.76999
-4.88493
-4.99224
-5.09302
-5.18846
-5.27936
-5.36671
-20.8902
-10.9543
-7.55446
-5.05752
-4.01615
-3.83615
-3.93028
-4.09444
-4.27254
-4.44336
-4.59985
-4.74102
-4.86788
-4.98248
-5.08768
-5.18601
-5.27874
-5.36704
-29.7368
-11.9497
-7.0338
-4.12642
-3.26436
-3.3783
-3.67141
-3.9472
-4.18953
-4.39754
-4.5761
-4.73025
-4.86464
-4.98276
-5.08954
-5.18873
-5.28163
-5.3695
-43.1068
-12.6142
-5.47309
-2.72926
-2.41358
-2.96378
-3.48464
-3.86279
-4.15408
-4.3864
-4.57814
-4.7382
-4.87442
-4.99144
-5.09687
-5.19564
-5.28753
-5.37432
-84.5997
-17.3737
-3.6644
-1.26575
-1.69635
-2.72218
-3.43658
-3.87038
-4.17396
-4.4111
-4.60722
-4.7682
-4.90008
-5.00776
-5.10582
-5.2027
-5.29237
-5.37727
-177.886
-26.8499
-3.68046
-0.770534
-1.53543
-2.84342
-3.61448
-4.01569
-4.27159
-4.46769
-4.65161
-4.81631
-4.95342
-5.04888
-5.1335
-5.22496
-5.3037
-5.38085
-154.791
-9.62758
-3.2727
-1.06861
-1.84344
-3.22124
-3.91408
-4.22545
-4.41803
-4.55955
-4.70289
-4.85443
-5.00759
-5.11891
-5.20626
-5.30252
-5.37591
-5.44141
428.057
66.6052
7.05565
1.5991
-0.915941
-2.85729
-3.65336
-3.99513
-4.31079
-4.57767
-4.70786
-4.75672
-4.80071
-4.90926
-5.03896
-5.13184
-5.23759
-5.34174
-8.52573
-8.51289
-8.50226
-8.54363
-8.63667
-8.74037
-8.82029
-8.8603
-8.86396
-8.84629
-8.81887
-8.7903
-8.76863
-8.75983
-8.76483
-8.77747
-8.78869
-8.79382
-8.79305
-8.79098
-8.79548
-8.82818
-8.91841
-9.08977
-9.34279
-9.66056
-10.0317
-10.4455
-10.8865
-11.3386
-11.7865
-12.2185
-12.6252
-13.0001
-13.3387
-13.6387
-13.899
-14.1197
-14.3015
-14.4453
-14.5525
-14.6243
-14.6622
-14.6675
-14.6415
-14.5856
-14.5014
-14.3912
-14.2563
-14.0944
-13.903
-13.6833
-13.4382
-13.1691
-12.8775
-12.5645
-12.231
-11.8781
-11.5068
-11.1181
-10.7132
-10.2931
-9.85905
-9.41212
-8.95351
-8.4844
-8.00601
-7.51953
-7.02616
-6.52707
-6.02343
-5.51638
-5.00704
-4.49649
-3.98577
-3.47587
-2.96777
-2.46237
-1.96053
-1.46305
-0.970705
-0.484184
-0.00413763
0.468843
0.934222
1.39152
1.84031
2.28021
2.71092
3.13217
3.54377
3.94552
4.33726
4.71897
5.09089
5.45303
5.80491
6.14616
6.47675
6.79693
7.10693
7.40696
7.6972
7.97783
8.24905
8.51104
8.76403
9.00822
9.24384
9.4711
9.69021
9.90143
10.105
10.3012
10.4902
10.6722
10.8476
11.0166
11.1793
11.3361
11.4871
11.6326
11.7728
11.9078
12.038
12.1634
12.2843
12.4009
12.5133
12.6218
12.7264
12.8275
12.9254
13.0202
13.1116
13.1999
13.2852
13.3677
13.4475
13.5246
13.5993
13.6716
13.7417
13.8096
13.8754
13.9391
14.0009
14.0609
14.1191
14.1755
14.2302
14.2833
14.3349
14.3849
14.4333
14.4804
14.5259
14.5701
14.6129
14.6543
14.6944
14.7331
14.7705
14.8067
14.8415
14.8751
14.9075
14.9388
14.9689
14.9981
15.0264
15.0542
15.0816
15.1093
15.138
15.1688
15.2042
15.2458
15.3037
15.3641
-8.58317
-8.61443
-8.68838
-8.78199
-8.88546
-8.97766
-9.03891
-9.06329
-9.04624
-8.98579
-8.89602
-8.7992
-8.71758
-8.6663
-8.64424
-8.64104
-8.6506
-8.67604
-8.71132
-8.73156
-8.7559
-8.83387
-8.99363
-9.2332
-9.54008
-9.91107
-10.3368
-10.797
-11.2699
-11.7377
-12.1878
-12.611
-13.0007
-13.3532
-13.6668
-13.941
-14.1764
-14.3739
-14.5347
-14.66
-14.7509
-14.8086
-14.834
-14.8281
-14.7916
-14.7253
-14.6294
-14.5041
-14.3499
-14.1698
-13.9677
-13.7438
-13.4971
-13.2278
-12.9366
-12.6242
-12.2914
-11.9393
-11.5688
-11.1809
-10.7767
-10.3572
-9.92374
-9.47733
-9.01917
-8.55043
-8.07232
-7.58604
-7.09278
-6.59373
-6.09005
-5.58287
-5.07332
-4.56248
-4.05138
-3.54104
-3.03241
-2.52641
-2.0239
-1.52569
-1.03255
-0.545165
-0.0642045
0.409739
0.876122
1.33445
1.78429
2.22524
2.65694
3.07911
3.49148
3.8938
4.28586
4.66754
5.03893
5.40024
5.75167
6.09325
6.42482
6.74628
7.05768
7.35912
7.65077
7.9328
8.20539
8.46873
8.72303
8.9685
9.20538
9.4339
9.65428
9.86675
10.0715
10.2689
10.4591
10.6423
10.8188
10.9889
11.1527
11.3105
11.4626
11.609
11.7502
11.8862
12.0174
12.1439
12.2659
12.3836
12.4971
12.6066
12.7124
12.8142
12.9123
13.007
13.0986
13.1871
13.2727
13.3554
13.4355
13.5129
13.5879
13.6606
13.7309
13.7991
13.8652
13.9293
13.9914
14.0516
14.1101
14.1668
14.2218
14.2751
14.3269
14.3771
14.4258
14.4731
14.5188
14.5632
14.6062
14.6478
14.688
14.727
14.7646
14.8009
14.8359
14.8696
14.9022
14.9335
14.9638
14.9931
15.0216
15.0494
15.077
15.1047
15.1335
15.1642
15.199
15.2385
15.2922
15.342
-8.7102
-8.79203
-8.90999
-9.01582
-9.09871
-9.15255
-9.17318
-9.15936
-9.10978
-9.02669
-8.91916
-8.80378
-8.70402
-8.63947
-8.61073
-8.6059
-8.62491
-8.68163
-8.78524
-8.93229
-9.12263
-9.36338
-9.65742
-9.99655
-10.3686
-10.7643
-11.1737
-11.585
-11.9876
-12.3742
-12.7401
-13.0816
-13.396
-13.6816
-13.9374
-14.1629
-14.3578
-14.5223
-14.6566
-14.761
-14.8359
-14.8817
-14.8987
-14.8875
-14.8484
-14.782
-14.6885
-14.5679
-14.4203
-14.2466
-14.0483
-13.8263
-13.5812
-13.3136
-13.0241
-12.7135
-12.3826
-12.0323
-11.6636
-11.2773
-10.8747
-10.4567
-10.0245
-9.57931
-9.12218
-8.65433
-8.17697
-7.6913
-7.19849
-6.69975
-6.19624
-5.6891
-5.17944
-4.66837
-4.15692
-3.64611
-3.1369
-2.63021
-2.12692
-1.62783
-1.13372
-0.645293
-0.163215
0.311914
0.779547
1.23919
1.6904
2.13279
2.56601
2.98979
3.40388
3.80809
4.20225
4.5863
4.96018
5.32393
5.67756
6.02109
6.35448
6.67774
6.99095
7.2942
7.58765
7.87147
8.14582
8.41091
8.66693
8.9141
9.15265
9.38279
9.60476
9.81879
10.0251
10.2239
10.4156
10.6002
10.7781
10.9495
11.1146
11.2737
11.427
11.5747
11.717
11.8541
11.9863
12.1136
12.2364
12.3547
12.4689
12.5791
12.6854
12.788
12.8871
12.9828
13.0755
13.1649
13.2514
13.335
13.4159
13.4942
13.5699
13.6432
13.7142
13.783
13.8497
13.9144
13.977
14.0378
14.0967
14.1539
14.2093
14.2631
14.3153
14.3659
14.415
14.4625
14.5087
14.5533
14.5966
14.6385
14.679
14.7182
14.7561
14.7926
14.8278
14.8618
14.8945
14.9261
14.9565
14.9859
15.0145
15.0424
15.07
15.0977
15.1262
15.1563
15.1898
15.2264
15.2738
15.3073
-8.74961
-8.84705
-8.94832
-9.03484
-9.09929
-9.13899
-9.15144
-9.13404
-9.08677
-9.01466
-8.92893
-8.84638
-8.78517
-8.75819
-8.77031
-8.82362
-8.92201
-9.06911
-9.26556
-9.50632
-9.78259
-10.0872
-10.414
-10.7569
-11.1102
-11.469
-11.8278
-12.1815
-12.5253
-12.8554
-13.1683
-13.4614
-13.7325
-13.9799
-14.2025
-14.3993
-14.5697
-14.7133
-14.8299
-14.9194
-14.9819
-15.0175
-15.0262
-15.0081
-14.9634
-14.8924
-14.7952
-14.6723
-14.5241
-14.3512
-14.1543
-13.9339
-13.6904
-13.4244
-13.1366
-12.8277
-12.4985
-12.1498
-11.7825
-11.3977
-10.9964
-10.5795
-10.1484
-9.70402
-9.24759
-8.7803
-8.30333
-7.81788
-7.32515
-6.82632
-6.32257
-5.81503
-5.30485
-4.79309
-4.28083
-3.76908
-3.25881
-2.75094
-2.24636
-1.74588
-1.25028
-0.760286
-0.276552
0.200309
0.669742
1.13125
1.58437
2.02873
2.46398
2.88983
3.30603
3.7124
4.10879
4.49512
4.87133
5.2374
5.59328
5.93898
6.27448
6.59983
6.91511
7.22043
7.51593
7.80178
8.07814
8.3452
8.60318
8.85226
9.09269
9.32467
9.54843
9.76421
9.97225
10.1728
10.3661
10.5523
10.7318
10.9047
11.0713
11.2318
11.3864
11.5354
11.679
11.8173
11.9507
12.0792
12.2031
12.3226
12.4379
12.5491
12.6564
12.7601
12.8602
12.957
13.0506
13.141
13.2284
13.3128
13.3945
13.4736
13.55
13.6241
13.6958
13.7653
13.8326
13.8978
13.961
14.0224
14.0818
14.1395
14.1954
14.2497
14.3023
14.3533
14.4028
14.4508
14.4973
14.5423
14.5859
14.6282
14.669
14.7085
14.7466
14.7834
14.8188
14.853
14.8859
14.9176
14.9482
14.9777
15.0063
15.0342
15.0616
15.089
15.1168
15.1458
15.1771
15.2096
15.249
15.2676
-8.53774
-8.62265
-8.72275
-8.81985
-8.8972
-8.94993
-8.97701
-8.97929
-8.96121
-8.93109
-8.90101
-8.88495
-8.89569
-8.94281
-9.03252
-9.16792
-9.34914
-9.5716
-9.82686
-10.1069
-10.4061
-10.7205
-11.0455
-11.3762
-11.7083
-12.038
-12.3618
-12.6768
-12.9802
-13.2695
-13.5427
-13.7982
-14.0344
-14.2502
-14.4446
-14.6167
-14.7658
-14.8914
-14.9929
-15.0701
-15.1226
-15.1502
-15.1527
-15.1302
-15.0824
-15.0095
-14.9115
-14.7885
-14.641
-14.4691
-14.2734
-14.0543
-13.8122
-13.5477
-13.2614
-12.954
-12.6262
-12.2789
-11.9129
-11.5293
-11.1291
-10.7133
-10.2829
-9.83925
-9.38337
-8.91647
-8.43976
-7.95441
-7.46163
-6.96261
-6.45851
-5.95049
-5.43968
-4.92718
-4.41403
-3.90127
-3.38987
-2.88077
-2.37484
-1.87292
-1.37578
-0.884155
-0.398707
0.0799464
0.551246
1.01469
1.46982
1.91624
2.35361
2.78162
3.20005
3.60868
4.00736
4.39599
4.77451
5.14285
5.501
5.84894
6.18667
6.51425
6.83175
7.13928
7.43698
7.72501
8.00352
8.27272
8.53279
8.78395
9.02642
9.26042
9.48617
9.70389
9.91383
10.1162
10.3113
10.4993
10.6805
10.8551
11.0233
11.1854
11.3416
11.4921
11.6371
11.7769
11.9116
12.0415
12.1668
12.2876
12.4041
12.5165
12.625
12.7298
12.831
12.9288
13.0234
13.1147
13.203
13.2884
13.3709
13.4508
13.5281
13.6029
13.6753
13.7455
13.8135
13.8794
13.9433
14.0052
14.0653
14.1235
14.18
14.2347
14.2879
14.3394
14.3893
14.4377
14.4847
14.5301
14.5741
14.6167
14.6579
14.6977
14.7361
14.7731
14.8089
14.8433
14.8764
14.9083
14.939
14.9685
14.9971
15.0248
15.0519
15.0787
15.1056
15.1329
15.1615
15.1894
15.2209
15.2271
-8.11778
-8.20618
-8.32711
-8.44981
-8.55504
-8.63546
-8.69377
-8.73585
-8.76933
-8.80399
-8.85079
-8.92003
-9.01975
-9.15475
-9.32724
-9.53623
-9.77705
-10.0441
-10.3321
-10.6353
-10.9482
-11.2662
-11.5852
-11.9017
-12.213
-12.5169
-12.8115
-13.0953
-13.3667
-13.6245
-13.8674
-14.0943
-14.3041
-14.496
-14.6689
-14.8221
-14.9547
-15.066
-15.1556
-15.2227
-15.267
-15.288
-15.2854
-15.259
-15.2084
-15.1337
-15.0347
-14.9115
-14.7642
-14.5931
-14.3983
-14.1803
-13.9395
-13.6764
-13.3915
-13.0855
-12.7591
-12.4132
-12.0485
-11.6662
-11.2671
-10.8523
-10.4228
-9.97985
-9.52456
-9.05812
-8.58171
-8.09651
-7.60373
-7.10455
-6.60015
-6.09168
-5.58028
-5.06704
-4.55304
-4.0393
-3.52679
-3.01647
-2.50922
-2.00586
-1.5072
-1.01396
-0.526802
-0.0463618
0.426801
0.892177
1.34931
1.7978
2.23729
2.66748
3.08813
3.49902
3.89999
4.29094
4.67176
5.04241
5.40285
5.75307
6.09308
6.42294
6.74272
7.05253
7.3525
7.64278
7.92354
8.19496
8.45723
8.71055
8.95515
9.19123
9.41902
9.63876
9.85068
10.055
10.252
10.4419
10.6249
10.8013
10.9713
11.1351
11.2929
11.445
11.5917
11.733
11.8692
12.0006
12.1273
12.2494
12.3673
12.481
12.5908
12.6968
12.7991
12.898
12.9936
13.086
13.1753
13.2616
13.3451
13.4259
13.504
13.5797
13.653
13.7239
13.7927
13.8593
13.9239
13.9865
14.0472
14.1061
14.1632
14.2185
14.2722
14.3242
14.3747
14.4236
14.471
14.5169
14.5613
14.6043
14.6459
14.686
14.7248
14.7621
14.7982
14.8328
14.8661
14.8982
14.929
14.9585
14.987
15.0145
15.0412
15.0672
15.0929
15.1182
15.1437
15.1667
15.191
15.1865
-7.65277
-7.75145
-7.89351
-8.0423
-8.18024
-8.29887
-8.40177
-8.49827
-8.59776
-8.70918
-8.84014
-8.99552
-9.17809
-9.38827
-9.62439
-9.8843
-10.1651
-10.462
-10.7698
-11.0835
-11.3987
-11.7119
-12.0205
-12.3224
-12.616
-12.9
-13.1734
-13.4352
-13.6846
-13.9207
-14.1428
-14.3499
-14.5412
-14.7159
-14.8732
-15.0123
-15.1324
-15.2327
-15.3127
-15.3717
-15.409
-15.4243
-15.4171
-15.3869
-15.3335
-15.2567
-15.1563
-15.0323
-14.8846
-14.7135
-14.519
-14.3016
-14.0616
-13.7993
-13.5155
-13.2106
-12.8854
-12.5406
-12.1772
-11.796
-11.3981
-10.9844
-10.556
-10.1139
-9.6595
-9.1938
-8.71801
-8.23331
-7.74092
-7.24199
-6.73771
-6.22923
-5.71769
-5.20417
-4.68976
-4.17547
-3.66229
-3.15117
-2.64298
-2.13859
-1.63876
-1.14424
-0.655708
-0.173785
0.300958
0.768005
1.2269
1.67722
2.11862
2.5508
2.97349
3.38647
3.78958
4.1827
4.56571
4.93857
5.30122
5.65366
5.99591
6.32801
6.65004
6.96211
7.26432
7.55685
7.83983
8.11346
8.37793
8.63343
8.88017
9.11838
9.34828
9.57009
9.78405
9.9904
10.1894
10.3812
10.5661
10.7443
10.9161
11.0817
11.2413
11.3951
11.5434
11.6863
11.8241
11.957
12.0852
12.2088
12.328
12.4431
12.5542
12.6615
12.7651
12.8652
12.9619
13.0554
13.1457
13.2331
13.3176
13.3993
13.4784
13.555
13.6292
13.701
13.7706
13.838
13.9033
13.9666
14.028
14.0876
14.1453
14.2013
14.2556
14.3082
14.3592
14.4086
14.4565
14.5029
14.5478
14.5912
14.6332
14.6737
14.7129
14.7506
14.7869
14.8218
14.8553
14.8875
14.9184
14.9479
14.9763
15.0034
15.0295
15.0547
15.0789
15.1021
15.1243
15.1424
15.1601
15.1463
-7.29713
-7.3906
-7.54264
-7.70836
-7.87519
-8.03617
-8.19077
-8.34688
-8.51275
-8.69417
-8.8952
-9.11705
-9.35829
-9.61806
-9.89576
-10.1891
-10.4944
-10.8071
-11.1231
-11.4388
-11.7513
-12.0583
-12.3579
-12.6489
-12.9301
-13.2007
-13.46
-13.7074
-13.9423
-14.1641
-14.3721
-14.5657
-14.7443
-14.907
-15.0532
-15.1821
-15.293
-15.3851
-15.4577
-15.5103
-15.5421
-15.5526
-15.5414
-15.5078
-15.4517
-15.3726
-15.2705
-15.1451
-14.9965
-14.8247
-14.6299
-14.4122
-14.1722
-13.9101
-13.6265
-13.3221
-12.9974
-12.6532
-12.2905
-11.9101
-11.5129
-11.0999
-10.6723
-10.2311
-9.77751
-9.3126
-8.83757
-8.3536
-7.86188
-7.36357
-6.85985
-6.35186
-5.84071
-5.32751
-4.81331
-4.29913
-3.78596
-3.27473
-2.76632
-2.26159
-1.7613
-1.26621
-0.776977
-0.294242
0.181429
0.649516
1.10956
1.56113
2.00389
2.43752
2.86174
3.27634
3.68114
4.07599
4.4608
4.8355
5.20003
5.55439
5.89859
6.23268
6.55674
6.87084
7.17512
7.46972
7.7548
8.03052
8.29707
8.55466
8.80348
9.04375
9.2757
9.49954
9.71551
9.92384
10.1248
10.3185
10.5053
10.6854
10.859
11.0264
11.1877
11.3433
11.4932
11.6378
11.7772
11.9117
12.0413
12.1664
12.2871
12.4036
12.5161
12.6246
12.7295
12.8308
12.9288
13.0234
13.1149
13.2033
13.2889
13.3716
13.4517
13.5293
13.6043
13.677
13.7475
13.8157
13.8818
13.9459
14.0081
14.0683
14.1267
14.1834
14.2383
14.2915
14.3431
14.3931
14.4415
14.4884
14.5338
14.5777
14.6201
14.6611
14.7006
14.7387
14.7753
14.8105
14.8442
14.8765
14.9074
14.9369
14.9651
14.9918
15.0173
15.0413
15.064
15.0848
15.1037
15.1171
15.1288
15.1068
-7.10681
-7.19291
-7.34703
-7.5194
-7.70279
-7.89509
-8.09289
-8.29815
-8.51546
-8.74723
-8.99378
-9.25506
-9.53101
-9.82124
-10.1239
-10.4356
-10.7529
-11.0723
-11.3908
-11.7058
-12.0151
-12.3171
-12.6104
-12.894
-13.1672
-13.4292
-13.6796
-13.918
-14.1437
-14.3564
-14.5555
-14.7405
-14.9107
-15.0655
-15.2042
-15.3262
-15.4307
-15.5169
-15.5843
-15.6321
-15.6596
-15.6663
-15.6517
-15.6153
-15.5566
-15.4753
-15.3713
-15.2444
-15.0944
-14.9215
-14.7258
-14.5075
-14.2668
-14.0043
-13.7205
-13.4159
-13.0911
-12.7471
-12.3845
-12.0043
-11.6074
-11.1949
-10.7678
-10.3272
-9.87414
-9.40989
-8.93556
-8.45232
-7.96134
-7.46378
-6.96081
-6.45355
-5.94313
-5.43061
-4.91706
-4.40348
-3.89084
-3.38007
-2.87206
-2.36763
-1.86756
-1.37258
-0.883366
-0.400539
0.0753306
0.543725
1.00418
1.45628
1.89966
2.33402
2.75907
3.17459
3.58041
3.97638
4.36238
4.73835
5.10423
5.46
5.80568
6.14131
6.46695
6.7827
7.08868
7.38501
7.67185
7.94936
8.21773
8.47715
8.72782
8.96994
9.20374
9.42944
9.64725
9.85742
10.0602
10.2557
10.4443
10.6262
10.8016
10.9707
11.1337
11.2909
11.4425
11.5887
11.7297
11.8657
11.9968
12.1234
12.2455
12.3634
12.4772
12.5871
12.6933
12.7958
12.895
12.9908
13.0834
13.1729
13.2596
13.3434
13.4244
13.5029
13.579
13.6526
13.7239
13.7929
13.8599
13.9248
13.9877
14.0487
14.1078
14.1651
14.2207
14.2746
14.3268
14.3773
14.4263
14.4738
14.5197
14.564
14.6069
14.6483
14.6882
14.7266
14.7636
14.799
14.833
14.8654
14.8964
14.9258
14.9537
14.9799
15.0046
15.0275
15.0485
15.067
15.0824
15.0913
15.0976
15.0686
-7.07894
-7.16577
-7.31347
-7.48226
-7.66899
-7.87355
-8.09278
-8.32469
-8.56951
-8.82786
-9.09924
-9.3828
-9.67828
-9.98455
-10.2989
-10.6183
-10.9399
-11.261
-11.5792
-11.8923
-12.1988
-12.4971
-12.7863
-13.0654
-13.3338
-13.591
-13.8365
-14.0697
-14.2904
-14.4981
-14.6922
-14.8722
-15.0376
-15.1878
-15.322
-15.4397
-15.5401
-15.6225
-15.6863
-15.7307
-15.7552
-15.759
-15.7418
-15.7029
-15.642
-15.5588
-15.4529
-15.3243
-15.1729
-14.9987
-14.8018
-14.5824
-14.3409
-14.0777
-13.7932
-13.4881
-13.163
-12.8187
-12.4561
-12.0759
-11.6792
-11.2669
-10.8402
-10.4
-9.9476
-9.48402
-9.01044
-8.52802
-8.03792
-7.5413
-7.0393
-6.53304
-6.02363
-5.51213
-4.9996
-4.48701
-3.97535
-3.46551
-2.95838
-2.45477
-1.95546
-1.46117
-0.972565
-0.490261
-0.0148201
0.453247
0.913479
1.36547
1.80885
2.24331
2.66858
3.08442
3.49066
3.88714
4.27375
4.65041
5.01707
5.37371
5.72034
6.057
6.38376
6.70069
7.00791
7.30555
7.59375
7.87267
8.14249
8.4034
8.65559
8.89926
9.13463
9.36192
9.58134
9.79312
9.99748
10.1947
10.3849
10.5683
10.7453
10.916
11.0806
11.2394
11.3925
11.5402
11.6827
11.8201
11.9527
12.0807
12.2042
12.3234
12.4385
12.5497
12.6571
12.7609
12.8612
12.9582
13.0519
13.1425
13.2302
13.315
13.3971
13.4766
13.5535
13.628
13.7002
13.7702
13.8379
13.9036
13.9673
14.029
14.0888
14.1468
14.2031
14.2576
14.3104
14.3616
14.4112
14.4591
14.5056
14.5504
14.5938
14.6356
14.6759
14.7147
14.752
14.7877
14.8219
14.8544
14.8854
14.9147
14.9422
14.968
14.9919
15.0136
15.0328
15.0488
15.061
15.0657
15.067
15.0319
-7.18985
-7.26822
-7.39916
-7.55505
-7.73369
-7.93479
-8.15563
-8.39363
-8.64715
-8.91487
-9.1951
-9.48675
-9.78886
-10.0995
-10.4161
-10.7362
-11.0572
-11.3769
-11.6931
-12.004
-12.3081
-12.6041
-12.891
-13.168
-13.4344
-13.6896
-13.9331
-14.1645
-14.3833
-14.589
-14.7811
-14.9592
-15.1225
-15.2706
-15.4027
-15.5182
-15.6164
-15.6967
-15.7582
-15.8005
-15.8228
-15.8246
-15.8054
-15.7646
-15.7018
-15.6168
-15.5093
-15.3791
-15.2262
-15.0507
-14.8525
-14.6321
-14.3896
-14.1255
-13.8403
-13.5347
-13.2092
-12.8647
-12.502
-12.1219
-11.7254
-11.3135
-10.8873
-10.4478
-9.99617
-9.53351
-9.06096
-8.57968
-8.09081
-7.5955
-7.09488
-6.59005
-6.0821
-5.57211
-5.06109
-4.55002
-4.03986
-3.53149
-3.02579
-2.52356
-2.02557
-1.53251
-1.04506
-0.563819
-0.0893475
0.377848
0.837311
1.28864
1.73146
2.16547
2.5904
3.00602
3.41213
3.8086
4.1953
4.57216
4.93911
5.29615
5.64327
5.98052
6.30794
6.62563
6.93369
7.23225
7.52143
7.80141
8.07234
8.33441
8.58781
8.83273
9.06939
9.298
9.51877
9.73192
9.93767
10.1363
10.3279
10.5128
10.6912
10.8633
11.0293
11.1895
11.344
11.4931
11.6369
11.7757
11.9097
12.039
12.1638
12.2843
12.4006
12.513
12.6216
12.7266
12.828
12.9261
13.0209
13.1126
13.2013
13.2871
13.3702
13.4506
13.5284
13.6038
13.6769
13.7476
13.8162
13.8827
13.9471
14.0096
14.0701
14.1288
14.1857
14.2409
14.2943
14.3461
14.3963
14.4448
14.4917
14.5371
14.5809
14.6232
14.6639
14.7031
14.7407
14.7767
14.811
14.8437
14.8747
14.9038
14.9311
14.9563
14.9793
14.9997
15.0172
15.0308
15.0399
15.0406
15.0374
14.9971
-7.36637
-7.43094
-7.54185
-7.68028
-7.84411
-8.03285
-8.24416
-8.47536
-8.724
-8.98775
-9.26439
-9.55272
-9.85155
-10.1586
-10.4716
-10.788
-11.1055
-11.422
-11.7355
-12.0443
-12.3468
-12.6418
-12.9281
-13.2049
-13.4715
-13.7271
-13.9711
-14.2031
-14.4225
-14.6287
-14.8213
-14.9995
-15.1629
-15.3108
-15.4426
-15.5575
-15.655
-15.7343
-15.7948
-15.8359
-15.8569
-15.8573
-15.8366
-15.7943
-15.73
-15.6435
-15.5345
-15.4029
-15.2487
-15.0719
-14.8726
-14.6511
-14.4078
-14.143
-13.8573
-13.5513
-13.2257
-12.8812
-12.5186
-12.139
-11.7431
-11.332
-10.9067
-10.4684
-10.0181
-9.55685
-9.08588
-8.60631
-8.11926
-7.62586
-7.12722
-6.62444
-6.11859
-5.61071
-5.10181
-4.59287
-4.08482
-3.57855
-3.07489
-2.57465
-2.07858
-1.58737
-1.10169
-0.622115
-0.149211
0.316525
0.774643
1.22474
1.66646
2.09949
2.52355
2.93843
3.34393
3.73991
4.12624
4.50283
4.86965
5.22666
5.57386
5.9113
6.23902
6.55711
6.86566
7.16479
7.45463
7.73534
8.00709
8.27003
8.52437
8.77029
9.00799
9.23769
9.45958
9.6739
9.88084
10.0806
10.2735
10.4596
10.6393
10.8127
10.98
11.1414
11.2972
11.4476
11.5927
11.7328
11.868
11.9985
12.1245
12.2462
12.3638
12.4773
12.587
12.6931
12.7956
12.8947
12.9906
13.0833
13.173
13.2598
13.3438
13.4251
13.5038
13.5801
13.654
13.7256
13.795
13.8622
13.9274
13.9906
14.0518
14.1112
14.1688
14.2246
14.2787
14.331
14.3818
14.4308
14.4783
14.5242
14.5685
14.6113
14.6524
14.6919
14.7299
14.7661
14.8007
14.8335
14.8644
14.8934
14.9203
14.945
14.9671
14.9863
15.002
15.0133
15.0194
15.0165
15.0092
14.9645
-7.54028
-7.59176
-7.68433
-7.80492
-7.95155
-8.12369
-8.31928
-8.53594
-8.77121
-9.02254
-9.2879
-9.56618
-9.85597
-10.1551
-10.461
-10.7715
-11.0841
-11.3969
-11.7078
-12.0149
-12.3169
-12.6121
-12.8996
-13.178
-13.4467
-13.7047
-13.9513
-14.1859
-14.4078
-14.6164
-14.8111
-14.9913
-15.1562
-15.3054
-15.4381
-15.5536
-15.6514
-15.7307
-15.7909
-15.8315
-15.8517
-15.8512
-15.8295
-15.786
-15.7206
-15.6329
-15.5227
-15.39
-15.2347
-15.0569
-14.8568
-14.6347
-14.3908
-14.1258
-13.84
-13.5341
-13.2088
-12.8648
-12.5031
-12.1244
-11.7297
-11.32
-10.8964
-10.4599
-10.0116
-9.55251
-9.08388
-8.60676
-8.12229
-7.63157
-7.13569
-6.63574
-6.13276
-5.62778
-5.12179
-4.61575
-4.11057
-3.60714
-3.10627
-2.60874
-2.1153
-1.62663
-1.14337
-0.666121
-0.195418
0.268246
0.724424
1.17272
1.61277
2.04428
2.46696
2.8806
3.28501
3.68003
4.06554
4.44145
4.80772
5.16431
5.51122
5.84849
6.17616
6.49432
6.80304
7.10245
7.39267
7.67384
7.94614
8.20971
8.46475
8.71145
8.94998
9.18056
9.4034
9.61869
9.82666
10.0275
10.2215
10.4087
10.5895
10.764
10.9325
11.0951
11.2521
11.4036
11.5499
11.6912
11.8275
11.9592
12.0864
12.2092
12.3279
12.4425
12.5533
12.6604
12.764
12.8641
12.961
13.0547
13.1453
13.2331
13.318
13.4002
13.4798
13.5569
13.6317
13.7041
13.7742
13.8422
13.9082
13.9721
14.034
14.0941
14.1523
14.2088
14.2634
14.3164
14.3677
14.4174
14.4654
14.5118
14.5566
14.5998
14.6414
14.6813
14.7195
14.7561
14.7908
14.8237
14.8547
14.8835
14.9101
14.9342
14.9554
14.9734
14.9874
14.9965
14.9998
14.9936
14.9826
14.9341
-7.66708
-7.70926
-7.78644
-7.89039
-8.01963
-8.17369
-8.35084
-8.54912
-8.76652
-9.00084
-9.25068
-9.51533
-9.79335
-10.0825
-10.3802
-10.6841
-10.992
-11.3015
-11.6106
-11.9173
-12.22
-12.5171
-12.8072
-13.089
-13.3615
-13.6236
-13.8744
-14.1131
-14.339
-14.5514
-14.7495
-14.9326
-15.1002
-15.2516
-15.386
-15.5028
-15.6015
-15.6813
-15.7417
-15.7821
-15.802
-15.801
-15.7785
-15.7342
-15.6679
-15.5793
-15.4683
-15.3348
-15.1788
-15.0005
-14.8001
-14.5778
-14.334
-14.0692
-13.784
-13.4789
-13.1547
-12.812
-12.4519
-12.075
-11.6825
-11.2751
-10.8541
-10.4203
-9.97498
-9.51908
-9.05375
-8.58008
-8.09916
-7.61209
-7.11994
-6.62377
-6.1246
-5.62344
-5.12127
-4.61901
-4.11756
-3.6178
-3.12053
-2.62652
-2.13647
-1.65108
-1.17097
-0.696736
-0.228899
0.23205
0.685672
1.13157
1.56939
1.99883
2.41962
2.83153
3.23436
3.62797
4.01223
4.38705
4.75238
5.10818
5.45445
5.79122
6.11853
6.43644
6.74505
7.04447
7.33481
7.61621
7.88882
8.15281
8.40835
8.65562
8.89481
9.12611
9.34972
9.56584
9.77469
9.97646
10.1714
10.3596
10.5414
10.717
10.8865
11.0502
11.2083
11.3609
11.5083
11.6507
11.7881
11.9209
12.0492
12.1731
12.2928
12.4085
12.5204
12.6285
12.7331
12.8342
12.9321
13.0267
13.1183
13.2069
13.2927
13.3758
13.4563
13.5343
13.6098
13.683
13.754
13.8227
13.8894
13.954
14.0167
14.0774
14.1363
14.1934
14.2487
14.3023
14.3542
14.4044
14.4529
14.4999
14.5452
14.5888
14.6308
14.6712
14.7098
14.7466
14.7816
14.8146
14.8456
14.8743
14.9005
14.9241
14.9445
14.9612
14.9737
14.9807
14.9814
14.9722
14.9579
14.9062
-7.72254
-7.76079
-7.82638
-7.91537
-8.02758
-8.16298
-8.32052
-8.49887
-8.69648
-8.91181
-9.14434
-9.39398
-9.6594
-9.93819
-10.2278
-10.5257
-10.8295
-11.1368
-11.4453
-11.753
-12.0579
-12.3582
-12.6524
-12.9389
-13.2164
-13.4838
-13.7399
-13.9838
-14.2147
-14.4316
-14.6338
-14.8206
-14.9913
-15.1453
-15.2818
-15.4003
-15.5001
-15.5807
-15.6415
-15.6821
-15.7019
-15.7005
-15.6776
-15.6328
-15.566
-15.477
-15.3656
-15.2319
-15.0759
-14.8977
-14.6977
-14.476
-14.2331
-13.9695
-13.6858
-13.3825
-13.0603
-12.7201
-12.3626
-11.9888
-11.5994
-11.1956
-10.7783
-10.3485
-9.9073
-9.45572
-8.99485
-8.52577
-8.04955
-7.56726
-7.07994
-6.58863
-6.09433
-5.59802
-5.10066
-4.60316
-4.1064
-3.61121
-3.11841
-2.62875
-2.14293
-1.6616
-1.1854
-0.71489
-0.250607
0.206972
0.657411
1.10032
1.53534
1.96217
2.38054
2.79022
3.19102
3.58278
3.96538
4.33871
4.70273
5.05739
5.40269
5.73865
6.0653
6.3827
6.69094
6.99012
7.28035
7.56176
7.83449
8.0987
8.35456
8.60224
8.84192
9.07379
9.29804
9.51487
9.72448
9.92706
10.1228
10.312
10.4947
10.6713
10.8418
11.0065
11.1656
11.3192
11.4677
11.6111
11.7496
11.8834
12.0127
12.1377
12.2585
12.3752
12.4881
12.5972
12.7028
12.8049
12.9036
12.9992
13.0917
13.1813
13.268
13.3519
13.4333
13.5121
13.5884
13.6624
13.7341
13.8036
13.871
13.9364
13.9997
14.0611
14.1207
14.1784
14.2343
14.2885
14.341
14.3918
14.441
14.4884
14.5342
14.5784
14.6208
14.6616
14.7006
14.7377
14.7729
14.8061
14.8371
14.8657
14.8917
14.9147
14.9343
14.9499
14.9609
14.966
14.9644
14.9525
14.9352
14.8808
-7.70813
-7.74282
-7.79965
-7.87479
-7.96979
-8.08549
-8.22189
-8.37863
-8.55491
-8.75006
-8.96449
-9.19872
-9.45154
-9.72048
-10.0028
-10.2959
-10.597
-10.9036
-11.2133
-11.5235
-11.8321
-12.1372
-12.4366
-12.7289
-13.0124
-13.2859
-13.5479
-13.7975
-14.0336
-14.2553
-14.4618
-14.6523
-14.8261
-14.9826
-15.1212
-15.2412
-15.3422
-15.4236
-15.4849
-15.5257
-15.5457
-15.5443
-15.5214
-15.4766
-15.4099
-15.321
-15.21
-15.0768
-14.9216
-14.7445
-14.5458
-14.3258
-14.0849
-13.8237
-13.5426
-13.2424
-12.9236
-12.5871
-12.2336
-11.8641
-11.4794
-11.0805
-10.6682
-10.2438
-9.80806
-9.36214
-8.90706
-8.44388
-7.97363
-7.49736
-7.01609
-6.53081
-6.04253
-5.55218
-5.06071
-4.569
-4.07792
-3.58827
-3.10086
-2.61642
-2.13566
-1.65922
-1.18769
-0.721641
-0.2616
0.191955
0.638588
1.07791
1.50957
1.93326
2.34871
2.7557
3.15402
3.54351
3.92405
4.29553
4.65789
5.01109
5.35512
5.68998
6.0157
6.33234
6.63998
6.9387
7.22861
7.50984
7.78252
8.04679
8.30281
8.55076
8.7908
9.02312
9.2479
9.46532
9.67559
9.8789
10.0754
10.2654
10.449
10.6264
10.7979
10.9635
11.1236
11.2783
11.4277
11.5721
11.7116
11.8465
11.9768
12.1028
12.2246
12.3423
12.4562
12.5663
12.6728
12.7759
12.8756
12.9721
13.0655
13.156
13.2436
13.3284
13.4106
13.4902
13.5673
13.6421
13.7146
13.7849
13.853
13.9191
13.9831
14.0452
14.1055
14.1638
14.2204
14.2752
14.3283
14.3797
14.4294
14.4774
14.5238
14.5684
14.6114
14.6526
14.6919
14.7294
14.7649
14.7983
14.8293
14.8579
14.8836
14.9061
14.925
14.9397
14.9492
14.9526
14.9489
14.9345
14.9145
14.858
-7.64442
-7.67012
-7.71623
-7.77485
-7.8496
-7.94248
-8.05471
-8.18717
-8.34009
-8.51375
-8.70955
-8.9285
-9.16944
-9.42967
-9.70621
-9.99608
-10.2963
-10.604
-10.9163
-11.2305
-11.5442
-11.8548
-12.1604
-12.459
-12.7489
-13.0284
-13.2963
-13.5513
-13.7924
-14.0185
-14.2289
-14.4227
-14.5993
-14.7581
-14.8985
-15.02
-15.1221
-15.2043
-15.2663