/*--------------------------------*- C++ -*----------------------------------*\
  =========                 |
  \\      /  F ield         | OpenFOAM: The Open Source CFD Toolbox
   \\    /   O peration     | Website:  https://openfoam.org
    \\  /    A nd           | Version:  8
     \\/     M anipulation  |
\*---------------------------------------------------------------------------*/
FoamFile
{
    version     2.0;
    format      ascii;
    class       volVectorField;
    location    "3300";
    object      U;
}
// * * * * * * * * * * * * * * * * * * * * * * * * * * * * * * * * * * * * * //

dimensions      [0 1 -1 0 0 0 0];

internalField   nonuniform List<vector> 
12225
(
(9.2745 -4.73371 0)
(13.1094 -1.71343 0)
(12.4778 -0.395198 0)
(11.2771 -0.0422041 0)
(10.6314 0.0141385 0)
(10.2979 -9.38992e-05 0)
(10.0776 -0.0165232 0)
(9.91227 -0.00288819 0)
(9.77909 0.0348746 0)
(9.66231 0.0428925 0)
(9.55575 0.0248827 0)
(9.45767 0.00214147 0)
(9.36676 -0.0227925 0)
(9.28212 -0.030226 0)
(9.20232 -0.0217886 0)
(9.13253 -0.0212282 0)
(9.07015 -0.0210402 0)
(9.08961 -0.0276979 0)
(10.2592 0.0928019 0)
(10.7814 0.199339 0)
(10.9594 0.245656 0)
(10.7469 0.229144 0)
(10.5875 0.172969 0)
(10.4527 0.115535 0)
(10.33 0.0823315 0)
(10.2327 0.06473 0)
(10.155 0.0524766 0)
(10.0894 0.0472336 0)
(10.0323 0.0469925 0)
(9.98212 0.04899 0)
(9.93785 0.0517973 0)
(9.89833 0.0519424 0)
(9.8615 0.0483249 0)
(9.82885 0.0438431 0)
(9.79429 0.0300804 0)
(9.76827 0.0102838 0)
(9.87768 -0.24504 0)
(9.74285 0.00579118 0)
(10.1971 0.125744 0)
(10.3245 0.179364 0)
(10.3564 0.161548 0)
(10.3311 0.120077 0)
(10.2777 0.0904942 0)
(10.2252 0.0746659 0)
(10.1812 0.0658752 0)
(10.1438 0.0600287 0)
(10.1103 0.0562082 0)
(10.0799 0.0536506 0)
(10.052 0.051136 0)
(10.026 0.0487618 0)
(10.0023 0.0460752 0)
(9.98118 0.0417678 0)
(9.95915 0.0316706 0)
(9.93459 0.0135782 0)
(9.83416 -0.443933 0)
(9.57654 -0.163146 0)
(9.91603 0.0336708 0)
(10.0933 0.134225 0)
(10.1892 0.145473 0)
(10.2168 0.120739 0)
(10.205 0.0978954 0)
(10.1824 0.0839096 0)
(10.1599 0.0756296 0)
(10.1389 0.0697121 0)
(10.119 0.0651342 0)
(10.1001 0.0616372 0)
(10.0821 0.0586129 0)
(10.0648 0.0562291 0)
(10.0483 0.0538546 0)
(10.0325 0.0501449 0)
(10.0148 0.0424188 0)
(9.99178 0.030614 0)
(9.87825 -0.387476 0)
(9.61653 -0.196147 0)
(9.81623 -0.0186699 0)
(9.96136 0.0916133 0)
(10.0698 0.122197 0)
(10.1219 0.113628 0)
(10.1354 0.0992645 0)
(10.1332 0.0884212 0)
(10.1257 0.0809485 0)
(10.1162 0.0753965 0)
(10.1056 0.071124 0)
(10.0946 0.0678816 0)
(10.0833 0.065254 0)
(10.0718 0.0631565 0)
(10.0601 0.0610447 0)
(10.0477 0.0581068 0)
(10.0328 0.0530816 0)
(10.0125 0.0469041 0)
(9.91439 -0.28804 0)
(9.68304 -0.185176 0)
(9.78717 -0.0532072 0)
(9.88917 0.0509996 0)
(9.98796 0.0936804 0)
(10.0476 0.0992043 0)
(10.0751 0.0938746 0)
(10.0861 0.0875183 0)
(10.0892 0.0821206 0)
(10.0879 0.0777645 0)
(10.0842 0.0743508 0)
(10.0789 0.0717601 0)
(10.0726 0.0697418 0)
(10.0654 0.0681721 0)
(10.0572 0.0667261 0)
(10.0476 0.0650437 0)
(10.0354 0.0627839 0)
(10.0185 0.0611715 0)
(9.93763 -0.214041 0)
(9.74856 -0.167535 0)
(9.79244 -0.0752151 0)
(9.85608 0.0162209 0)
(9.93595 0.0644224 0)
(9.99281 0.0805956 0)
(10.0261 0.0835616 0)
(10.0447 0.0822437 0)
(10.0546 0.0797795 0)
(10.0593 0.0772875 0)
(10.0606 0.0751759 0)
(10.0596 0.0735592 0)
(10.057 0.0723894 0)
(10.053 0.0716355 0)
(10.0477 0.0711911 0)
(10.0407 0.0710165 0)
(10.0312 0.0712789 0)
(10.0182 0.0731531 0)
(9.95263 -0.167334 0)
(9.79947 -0.149676 0)
(9.81177 -0.084641 0)
(9.84959 -0.00620988 0)
(9.9114 0.0419324 0)
(9.96107 0.0638975 0)
(9.99432 0.0725503 0)
(10.0156 0.0752865 0)
(10.0289 0.0755301 0)
(10.0367 0.0749037 0)
(10.041 0.0741479 0)
(10.0427 0.0735819 0)
(10.0425 0.0733234 0)
(10.0408 0.073449 0)
(10.0375 0.0740063 0)
(10.0325 0.075137 0)
(10.0254 0.0772055 0)
(10.0157 0.0812053 0)
(9.96406 -0.132089 0)
(9.84003 -0.131988 0)
(9.83337 -0.0876896 0)
(9.85306 -0.0213323 0)
(9.89927 0.0244161 0)
(9.94102 0.0495135 0)
(9.97207 0.0621238 0)
(9.99385 0.0680772 0)
(10.0086 0.0706963 0)
(10.0184 0.0717949 0)
(10.0246 0.0723179 0)
(10.0282 0.0727539 0)
(10.0298 0.0733608 0)
(10.0297 0.0743195 0)
(10.028 0.0757877 0)
(10.0248 0.0780085 0)
(10.0197 0.0814116 0)
(10.0129 0.0868087 0)
(9.97418 -0.100205 0)
(9.87757 -0.11239 0)
(9.85857 -0.0853659 0)
(9.86387 -0.0323324 0)
(9.89487 0.0089294 0)
(9.92743 0.0352245 0)
(9.95439 0.0507176 0)
(9.97502 0.0594974 0)
(9.99015 0.0644446 0)
(10.0009 0.0673598 0)
(10.0085 0.0692985 0)
(10.0135 0.0708783 0)
(10.0166 0.0724771 0)
(10.018 0.0743698 0)
(10.0179 0.0768026 0)
(10.0164 0.0800771 0)
(10.0136 0.0846188 0)
(10.0095 0.0910441 0)
(9.98253 -0.072709 0)
(9.91035 -0.0921961 0)
(9.88507 -0.0782439 0)
(9.88001 -0.038607 0)
(9.89746 -0.0033734 0)
(9.92043 0.0221696 0)
(9.94196 0.039185 0)
(9.95999 0.0500817 0)
(9.97425 0.0570569 0)
(9.98518 0.0617057 0)
(9.99339 0.0650802 0)
(9.99941 0.0678642 0)
(10.0037 0.0705172 0)
(10.0064 0.0733854 0)
(10.0078 0.0767708 0)
(10.0081 0.0809929 0)
(10.0073 0.0864255 0)
(10.0058 0.0935045 0)
(9.98894 -0.0502565 0)
(9.93733 -0.0723779 0)
(9.91073 -0.0674477 0)
(9.89917 -0.0399822 0)
(9.90566 -0.0116491 0)
(9.91955 0.0114529 0)
(9.93496 0.0285315 0)
(9.94934 0.0405812 0)
(9.96169 0.0490254 0)
(9.97188 0.0551125 0)
(9.98009 0.0597807 0)
(9.98659 0.0637039 0)
(9.99163 0.0673725 0)
(9.99544 0.0711656 0)
(9.9982 0.0754045 0)
(10.0001 0.0803917 0)
(10.0013 0.0864274 0)
(10.0021 0.093795 0)
(9.99348 -0.0329085 0)
(9.9582 -0.0538107 0)
(9.93368 -0.0542831 0)
(9.91898 -0.0367866 0)
(9.91755 -0.0154526 0)
(9.92366 0.00399578 0)
(9.93301 0.0197765 0)
(9.94318 0.0318777 0)
(9.9529 0.0410118 0)
(9.96163 0.0480218 0)
(9.96922 0.0536486 0)
(9.9757 0.0584849 0)
(9.98118 0.0629937 0)
(9.98578 0.0675427 0)
(9.98965 0.0724357 0)
(9.99294 0.0779325 0)
(9.99587 0.0842552 0)
(9.99869 0.0915749 0)
(9.99643 -0.0202023 0)
(9.97327 -0.0372095 0)
(9.95261 -0.0400449 0)
(9.93731 -0.0298099 0)
(9.93089 -0.0148227 0)
(9.93102 0.000367558 0)
(9.93504 0.0137754 0)
(9.94104 0.024844 0)
(9.94782 0.0337602 0)
(9.95465 0.0409925 0)
(9.96117 0.0470511 0)
(9.96724 0.0523962 0)
(9.97281 0.057413 0)
(9.9779 0.0624164 0)
(9.98261 0.0676607 0)
(9.98704 0.0733479 0)
(9.99135 0.0796289 0)
(9.99573 0.0865969 0)
(9.99816 -0.0112875 0)
(9.9833 -0.0229302 0)
(9.96682 -0.025762 0)
(9.95243 -0.0200759 0)
(9.94344 -0.0102408 0)
(9.93952 0.000676131 0)
(9.9394 0.0110312 0)
(9.94183 0.0201453 0)
(9.94582 0.0279265 0)
(9.95069 0.0345732 0)
(9.95597 0.040387 0)
(9.96139 0.0456776 0)
(9.96681 0.0507232 0)
(9.97216 0.0557556 0)
(9.97744 0.060959 0)
(9.9827 0.0664699 0)
(9.98803 0.0723776 0)
(9.99354 0.0787228 0)
(9.99906 -0.00508065 0)
(9.98922 -0.0107803 0)
(9.97612 -0.0119161 0)
(9.96309 -0.00848172 0)
(9.9531 -0.00243346 0)
(9.94685 0.00458001 0)
(9.94399 0.0115589 0)
(9.94384 0.0180222 0)
(9.9457 0.0238405 0)
(9.94896 0.0290823 0)
(9.95317 0.0339031 0)
(9.95799 0.0384796 0)
(9.96321 0.0429765 0)
(9.96868 0.0475312 0)
(9.97435 0.0522479 0)
(9.98019 0.0571962 0)
(9.98623 0.0624116 0)
(9.99249 0.0678966 0)
(9.99942 -0.000367006 0)
(9.9918 0.00015239 0)
(9.98042 0.00183331 0)
(9.96821 0.00459495 0)
(9.9579 0.00792162 0)
(9.95061 0.0114033 0)
(9.94642 0.0148186 0)
(9.94498 0.0180905 0)
(9.94576 0.0212359 0)
(9.94825 0.0243208 0)
(9.95198 0.0274264 0)
(9.95661 0.0306299 0)
(9.96186 0.0339936 0)
(9.96757 0.0375616 0)
(9.97362 0.0413575 0)
(9.97993 0.0453863 0)
(9.98648 0.0496337 0)
(9.99325 0.05407 0)
(9.99935 0.00408503 0)
(9.9911 0.011174 0)
(9.97897 0.0161345 0)
(9.96616 0.0187382 0)
(9.95552 0.0196148 0)
(9.94819 0.0195487 0)
(9.94419 0.019162 0)
(9.94311 0.0188651 0)
(9.94438 0.018898 0)
(9.94741 0.0193782 0)
(9.95174 0.0203463 0)
(9.95698 0.021797 0)
(9.96287 0.0236995 0)
(9.96919 0.026009 0)
(9.97583 0.0286741 0)
(9.98269 0.0316382 0)
(9.98974 0.0348434 0)
(9.99692 0.038229 0)
(9.99882 0.00972997 0)
(9.98675 0.0240496 0)
(9.97122 0.0318479 0)
(9.95641 0.0332956 0)
(9.94558 0.0307065 0)
(9.93942 0.0263529 0)
(9.93734 0.0217506 0)
(9.93845 0.017742 0)
(9.94186 0.0146978 0)
(9.94687 0.0127136 0)
(9.95292 0.0117335 0)
(9.95963 0.0116387 0)
(9.96674 0.0122899 0)
(9.97408 0.0135513 0)
(9.98155 0.0152981 0)
(9.98908 0.0174208 0)
(9.99665 0.0198226 0)
(10.0042 0.0224202 0)
(9.99757 0.0182101 0)
(9.97773 0.0404561 0)
(9.95664 0.0495788 0)
(9.93945 0.0474807 0)
(9.92961 0.0394264 0)
(9.92659 0.0296503 0)
(9.92848 0.0204939 0)
(9.93357 0.0129706 0)
(9.94055 0.00735248 0)
(9.94856 0.00352108 0)
(9.95704 0.00122582 0)
(9.96567 0.000176612 0)
(9.97428 0.000109464 0)
(9.98276 0.000791294 0)
(9.99108 0.00203536 0)
(9.99925 0.00369052 0)
(10.0073 0.0056336 0)
(10.0151 0.00776863 0)
(9.99502 0.0318146 0)
(9.96177 0.0621344 0)
(9.93372 0.0695526 0)
(9.91534 0.0601168 0)
(9.90932 0.0439534 0)
(9.91249 0.0276635 0)
(9.92084 0.0139978 0)
(9.93162 0.00364377 0)
(9.94322 -0.0036377 0)
(9.95479 -0.00836991 0)
(9.96594 -0.011127 0)
(9.97652 -0.0123918 0)
(9.9865 -0.0125693 0)
(9.99594 -0.0119627 0)
(10.0049 -0.0108045 0)
(10.0135 -0.00926775 0)
(10.0217 -0.00747829 0)
(10.0296 -0.00553955 0)
(9.99018 0.0534619 0)
(9.93561 0.0901524 0)
(9.90098 0.0906287 0)
(9.88515 0.0687583 0)
(9.8878 0.0418211 0)
(9.90121 0.0186617 0)
(9.91856 0.00142166 0)
(9.93627 -0.0103908 0)
(9.95285 -0.0179348 0)
(9.96786 -0.022387 0)
(9.98129 -0.0246441 0)
(9.99332 -0.0253856 0)
(10.0042 -0.0250938 0)
(10.0141 -0.024127 0)
(10.0232 -0.0227228 0)
(10.0318 -0.0210352 0)
(10.0399 -0.019184 0)
(10.0476 -0.0172495 0)
(9.9819 0.0862472 0)
(9.89548 0.124258 0)
(9.85817 0.109884 0)
(9.85209 0.069775 0)
(9.87033 0.0303398 0)
(9.89842 0.00145182 0)
(9.92658 -0.0171998 0)
(9.95135 -0.0283138 0)
(9.9722 -0.034411 0)
(9.9896 -0.03732 0)
(10.0042 -0.038197 0)
(10.0167 -0.0377938 0)
(10.0276 -0.0366113 0)
(10.0372 -0.0349943 0)
(10.0459 -0.0331433 0)
(10.0539 -0.0311573 0)
(10.0613 -0.0291195 0)
(10.0684 -0.027099 0)
(9.96925 0.13399 0)
(9.83823 0.163089 0)
(9.80793 0.122591 0)
(9.82311 0.0588007 0)
(9.86513 0.00730964 0)
(9.91139 -0.0240239 0)
(9.95035 -0.0405858 0)
(9.98049 -0.0483635 0)
(10.0034 -0.0512236 0)
(10.0212 -0.0515239 0)
(10.0353 -0.0504013 0)
(10.0469 -0.0485025 0)
(10.0565 -0.0462429 0)
(10.0648 -0.0438786 0)
(10.0722 -0.041548 0)
(10.0789 -0.0392308 0)
(10.0852 -0.0369729 0)
(10.0911 -0.0348569 0)
(9.94951 0.207141 0)
(9.76128 0.207022 0)
(9.75726 0.123478 0)
(9.81042 0.0320115 0)
(9.88382 -0.0278599 0)
(9.94874 -0.0559926 0)
(9.99527 -0.0660686 0)
(10.0266 -0.0677935 0)
(10.048 -0.0659581 0)
(10.063 -0.0631735 0)
(10.0743 -0.0598649 0)
(10.083 -0.0564841 0)
(10.09 -0.0531265 0)
(10.0957 -0.0501448 0)
(10.1009 -0.047476 0)
(10.1056 -0.0449254 0)
(10.11 -0.0425147 0)
(10.1141 -0.0403481 0)
(9.91094 0.322718 0)
(9.65923 0.254545 0)
(9.71887 0.107407 0)
(9.83329 -0.0119228 0)
(9.94173 -0.0726519 0)
(10.0199 -0.090161 0)
(10.0662 -0.0893193 0)
(10.0918 -0.0831322 0)
(10.1058 -0.0760205 0)
(10.1141 -0.0695982 0)
(10.1197 -0.064459 0)
(10.1236 -0.0601002 0)
(10.1261 -0.0563588 0)
(10.1279 -0.0531262 0)
(10.1295 -0.050576 0)
(10.1313 -0.0482137 0)
(10.1329 -0.0456127 0)
(10.1345 -0.0434953 0)
(9.84404 0.43511 0)
(9.53798 0.261026 0)
(9.7269 0.059135 0)
(9.92367 -0.0731154 0)
(10.0584 -0.121552 0)
(10.1345 -0.120191 0)
(10.1665 -0.105279 0)
(10.1758 -0.0906123 0)
(10.1759 -0.0784654 0)
(10.1726 -0.070354 0)
(10.1686 -0.0644085 0)
(10.1647 -0.0598223 0)
(10.1606 -0.0555406 0)
(10.1564 -0.052197 0)
(10.1529 -0.0503125 0)
(10.1506 -0.048217 0)
(10.1482 -0.0456342 0)
(10.1458 -0.0439151 0)
(9.83598 0.319666 0)
(9.55021 0.0912513 0)
(9.91739 -0.0687254 0)
(10.1507 -0.160112 0)
(10.2634 -0.172136 0)
(10.3032 -0.142727 0)
(10.2978 -0.112095 0)
(10.276 -0.0899508 0)
(10.2516 -0.0753726 0)
(10.2302 -0.0674504 0)
(10.2132 -0.061914 0)
(10.1986 -0.0575191 0)
(10.1843 -0.0523915 0)
(10.1703 -0.0482344 0)
(10.1594 -0.0467723 0)
(10.1504 -0.043947 0)
(10.1409 -0.0396704 0)
(10.1324 -0.0389266 0)
(10.2049 -0.0633775 0)
(10.4095 -0.191706 0)
(10.7164 -0.282558 0)
(10.6879 -0.282287 0)
(10.6191 -0.230103 0)
(10.5417 -0.163669 0)
(10.4545 -0.117043 0)
(10.3763 -0.0924957 0)
(10.3136 -0.0798684 0)
(10.2654 -0.0678551 0)
(10.2261 -0.0589728 0)
(10.1924 -0.0539318 0)
(10.1597 -0.0536939 0)
(10.1305 -0.0530295 0)
(10.1086 -0.047524 0)
(10.0852 -0.0454795 0)
(10.0625 -0.0482516 0)
(10.0457 -0.0447269 0)
(9.41631 4.45107 0)
(12.7294 2.07612 0)
(12.5649 0.621213 0)
(11.569 0.127657 0)
(10.9309 0.00343466 0)
(10.5866 -0.00206753 0)
(10.3638 0.0123127 0)
(10.2021 0.0302295 0)
(10.0796 0.0412442 0)
(9.97712 0.0356889 0)
(9.88537 0.0255646 0)
(9.7981 0.0207408 0)
(9.72381 0.0274792 0)
(9.6629 0.0262716 0)
(9.60005 0.00145931 0)
(9.54295 -0.00539886 0)
(9.49687 0.0093002 0)
(9.44929 -0.00384015 0)
(-0.0275194 0.0934361 0)
(0.137017 -0.183505 0)
(0.324983 -0.305892 0)
(0.525469 -0.315114 0)
(0.702945 -0.272069 0)
(0.833493 -0.211077 0)
(0.909811 -0.146338 -8.60205e-20)
(0.940392 -0.0824937 8.66446e-20)
(0.91952 -0.0201714 0)
(0.858836 0.0345385 9.18652e-20)
(0.771679 0.0739612 0)
(0.672417 0.0920064 0)
(0.578494 0.0877251 0)
(0.505692 0.0666646 -1.43206e-19)
(0.45574 0.0377115 0)
(0.412396 0.00997512 0)
(0.352863 -0.00897197 1.87935e-19)
(0.262705 -0.00867872 0)
(0.135163 0.0293064 0)
(-0.044828 0.11295 0)
(-0.300541 0.186492 -1.64813e-19)
(-0.59424 0.235261 0)
(-0.915662 0.266819 -7.62388e-20)
(-1.25191 0.296037 0)
(-1.59134 0.323655 0)
(-1.93108 0.336464 -4.13225e-20)
(-2.2635 0.335615 0)
(-2.58062 0.326492 3.45407e-20)
(-2.87939 0.310354 0)
(-3.1564 0.289554 -3.13416e-20)
(-3.41076 0.266418 0)
(-3.64205 0.242538 0)
(-3.85103 0.218947 0)
(-4.03877 0.196353 0)
(-4.20671 0.175132 0)
(-4.35643 0.155489 2.82298e-20)
(-4.4895 0.137461 0)
(-4.60741 0.120976 -5.5571e-20)
(-4.71154 0.105908 0)
(-4.80311 0.0920957 5.47723e-20)
(-4.88317 0.0793782 0)
(-4.95262 0.0676031 0)
(-5.01222 0.0566427 -5.35503e-20)
(-5.06258 0.0464002 0)
(-5.10422 0.0368162 -5.26585e-20)
(-5.13754 0.0278737 5.21807e-20)
(-5.16294 0.0196171 0)
(-5.18081 0.0121939 5.11538e-20)
(-5.19142 0.00585222 5.06014e-20)
(-5.19494 0.000802437 0)
(-5.19262 -0.00315119 0)
(-5.18571 -0.00644954 0)
(-5.17432 -0.00937203 0)
(-5.1588 -0.0120828 0)
(-5.1393 -0.0146514 -4.61818e-20)
(-5.11596 -0.0170915 0)
(-5.08888 -0.0194145 4.43166e-20)
(-5.05819 -0.0216292 0)
(-5.02397 -0.023738 0)
(-4.98634 -0.0257427 -4.11385e-20)
(-4.94538 -0.0276436 0)
(-4.90122 -0.0294409 3.87628e-20)
(-4.85396 -0.0311342 0)
(-4.80372 -0.0327235 0)
(-4.75061 -0.0342089 0)
(-4.69474 -0.0355901 -3.33833e-20)
(-4.63626 -0.0368676 0)
(-4.57527 -0.0380424 0)
(-4.51191 -0.039115 -2.8786e-20)
(-4.4463 -0.0400861 0)
(-4.37858 -0.0409572 -2.54446e-20)
(-4.30888 -0.0417297 0)
(-4.23733 -0.0424051 0)
(-4.16406 -0.0429853 0)
(-4.0892 -0.0434722 1.80672e-20)
(-4.01289 -0.043868 0)
(-3.93525 -0.0441747 0)
(-3.8564 -0.0443947 1.18851e-20)
(-3.77648 -0.0445302 9.69134e-21)
(-3.6956 -0.0445841 0)
(-3.61389 -0.0445595 5.08958e-21)
(-3.53146 -0.0444609 0)
(-3.44842 -0.0442934 3.63267e-22)
(-3.36487 -0.0440629 0)
(-3.28093 -0.0437747 -1.01266e-20)
(-3.19668 -0.0434344 0)
(-3.11221 -0.0430508 2.13692e-20)
(-3.02761 -0.0426435 0)
(-2.94295 -0.0422485 0)
(-2.85828 -0.0419147 0)
(-2.77365 -0.0416985 -4.65617e-20)
(-2.68906 -0.0416717 0)
(-2.60455 -0.0419285 6.08364e-20)
(-2.52006 -0.0425349 0)
(-2.43557 -0.0434263 -7.65066e-20)
(-2.35132 -0.0443279 -8.48852e-20)
(-2.26755 -0.0447833 -9.35936e-20)
(-2.18453 -0.0445756 0)
(-2.10241 -0.0439707 0)
(-2.02123 -0.0432725 0)
(-1.94099 -0.0425675 0)
(-1.8617 -0.0418674 0)
(-1.78339 -0.041173 0)
(-1.70608 -0.0404861 0)
(-1.62979 -0.0398105 0)
(-1.55455 -0.0391519 1.92706e-19)
(-1.48037 -0.0385175 2.07027e-19)
(-1.40727 -0.0379126 0)
(-1.33526 -0.0373262 0)
(-1.26437 -0.036701 0)
(-1.19463 -0.0360435 2.74296e-19)
(-1.12606 -0.0354096 0)
(-1.05864 -0.0347942 0)
(-0.992391 -0.0341988 0)
(-0.927306 -0.0336249 0)
(-0.863386 -0.0330747 -3.90939e-19)
(-0.80063 -0.0325505 0)
(-0.739034 -0.0320557 0)
(-0.678591 -0.0315937 4.89122e-19)
(-0.619294 -0.031166 -5.28822e-19)
(-0.561138 -0.0307761 0)
(-0.504113 -0.0304345 -6.22437e-19)
(-0.448207 -0.030165 0)
(-0.393402 -0.0300121 7.41422e-19)
(-0.339675 -0.0299868 0)
(-0.287013 -0.0300507 0)
(-0.235401 -0.0301905 0)
(-0.18481 -0.0304175 0)
(-0.135215 -0.030747 0)
(-0.0866595 -0.0311979 -2.84671e-18)
(-0.0393557 -0.031652 -3.27745e-18)
(0.00674981 -0.031352 0)
(0.0521672 -0.0298538 0)
(0.0969071 -0.0280031 0)
(0.140828 -0.0262849 2.68463e-18)
(0.183837 -0.0247517 0)
(0.225914 -0.023378 0)
(0.26708 -0.0221401 0)
(0.30737 -0.0210183 2.03985e-18)
(0.346812 -0.0199954 -1.93358e-18)
(0.385437 -0.0190569 0)
(0.423268 -0.0181917 0)
(0.460333 -0.0173904 -1.68684e-18)
(0.496654 -0.0166455 -1.62218e-18)
(0.532255 -0.0159508 0)
(0.56716 -0.0153013 0)
(0.60139 -0.0146927 1.46392e-18)
(0.634968 -0.0141213 -1.42043e-18)
(0.667918 -0.0135841 0)
(0.70026 -0.0130783 0)
(0.732019 -0.0126017 -1.31015e-18)
(0.763216 -0.0121523 0)
(0.793875 -0.0117283 0)
(0.824019 -0.0113282 -1.22264e-18)
(0.85367 -0.0109505 0)
(0.882853 -0.010594 -1.17356e-18)
(0.91159 -0.0102576 0)
(0.939905 -0.00994004 0)
(0.967821 -0.00964042 0)
(0.99536 -0.00935759 1.09156e-18)
(1.02254 -0.00909049 0)
(1.04939 -0.00883781 0)
(1.07593 -0.00859814 0)
(1.10215 -0.00836963 0)
(1.12809 -0.0081501 0)
(1.15374 -0.00793656 0)
(1.17909 -0.00772521 9.8276e-19)
(1.20412 -0.00751084 9.6984e-19)
(1.22879 -0.0072865 0)
(1.25304 -0.00704262 0)
(1.27675 -0.0067657 0)
(1.29976 -0.00643713 -9.24498e-19)
(1.32184 -0.00602719 0)
(1.34257 -0.00549715 1.81389e-18)
(1.36151 -0.00475998 -1.80052e-18)
(1.37726 -0.00372426 -1.79179e-18)
(1.38984 -0.00195277 1.79009e-18)
(1.39026 0.001329 -1.79547e-18)
(1.38756 0.00807663 1.8088e-18)
(1.30829 0.0198902 0)
(0.0963171 -0.268981 0)
(0.334072 -0.681269 0)
(0.514177 -0.706521 1.57362e-19)
(0.611817 -0.571346 0)
(0.662814 -0.408897 -1.11141e-19)
(0.683254 -0.253825 -1.08106e-19)
(0.677228 -0.112175 -5.62557e-20)
(0.646855 0.0155833 -5.62009e-20)
(0.603877 0.125402 0)
(0.544683 0.211923 -6.08095e-20)
(0.467872 0.267401 0)
(0.373388 0.283203 0)
(0.257585 0.256436 1.70496e-19)
(0.110254 0.211437 9.82874e-20)
(-0.0747721 0.206284 -1.84469e-19)
(-0.301041 0.271832 -1.43802e-19)
(-0.57902 0.383405 -5.71914e-20)
(-0.90495 0.513242 0)
(-1.25854 0.642605 0)
(-1.61664 0.756434 0)
(-1.97226 0.84199 -2.85761e-20)
(-2.31785 0.895558 0)
(-2.64775 0.919044 6.90652e-20)
(-2.95446 0.915465 0)
(-3.23397 0.889029 0)
(-3.4846 0.844863 1.98201e-20)
(-3.70498 0.788296 0)
(-3.89593 0.724862 -1.97624e-20)
(-4.05932 0.658788 -4.17989e-20)
(-4.1987 0.592787 2.01692e-20)
(-4.317 0.528961 0)
(-4.41709 0.469093 0)
(-4.50171 0.414013 0)
(-4.57324 0.364074 -4.42603e-20)
(-4.63375 0.319236 -4.47666e-20)
(-4.68493 0.279226 -2.21905e-20)
(-4.72816 0.243634 0)
(-4.76455 0.211979 4.53087e-20)
(-4.79499 0.183761 0)
(-4.82019 0.158502 -4.58804e-20)
(-4.84076 0.135758 0)
(-4.85716 0.115137 0)
(-4.86984 0.0962976 4.60908e-20)
(-4.87916 0.0789491 0)
(-4.88546 0.0628511 1.38173e-19)
(-4.88906 0.0478093 -4.56113e-20)
(-4.89023 0.0336882 0)
(-4.88922 0.0204574 -4.49421e-20)
(-4.88629 0.00823316 -4.44854e-20)
(-4.8817 -0.00282252 0)
(-4.87455 -0.0127654 0)
(-4.86372 -0.0218915 0)
(-4.84922 -0.0304438 0)
(-4.83093 -0.0385369 0)
(-4.80888 -0.0462405 4.02193e-20)
(-4.78315 -0.0535914 7.91691e-20)
(-4.75379 -0.0606109 -3.8442e-20)
(-4.7209 -0.0673102 0)
(-4.68456 -0.0736951 7.34906e-20)
(-4.64488 -0.0797681 -3.5969e-20)
(-4.60194 -0.0855301 0)
(-4.55585 -0.0909807 -3.32689e-20)
(-4.50671 -0.0961199 0)
(-4.45463 -0.100949 0)
(-4.39973 -0.10547 -5.9896e-20)
(-4.34212 -0.109682 2.83874e-20)
(-4.28192 -0.113587 -5.47043e-20)
(-4.21926 -0.117186 5.19855e-20)
(-4.15425 -0.120484 2.42956e-20)
(-4.08702 -0.123485 0)
(-4.0177 -0.126194 2.13626e-20)
(-3.94642 -0.128618 0)
(-3.8733 -0.130761 0)
(-3.79848 -0.132633 0)
(-3.72208 -0.134241 1.56361e-20)
(-3.64422 -0.135593 0)
(-3.56505 -0.1367 2.37691e-20)
(-3.48466 -0.13757 -2.99778e-20)
(-3.4032 -0.138214 -7.94288e-21)
(-3.32077 -0.138644 0)
(-3.23749 -0.138869 -4.14217e-21)
(-3.15348 -0.138902 0)
(-3.06885 -0.138754 -2.93396e-22)
(-2.98369 -0.138438 0)
(-2.89812 -0.137964 8.11268e-21)
(-2.81222 -0.137346 -2.35674e-20)
(-2.7261 -0.136595 -1.69661e-20)
(-2.63985 -0.135723 0)
(-2.55355 -0.134737 0)
(-2.46729 -0.13364 0)
(-2.38118 -0.132434 3.61846e-20)
(-2.29533 -0.13111 0)
(-2.20987 -0.12964 -4.6656e-20)
(-2.12495 -0.127969 0)
(-2.0407 -0.126043 1.71882e-19)
(-1.95721 -0.123888 6.36326e-20)
(-1.87449 -0.121605 6.96641e-20)
(-1.79247 -0.1193 0)
(-1.71114 -0.117031 0)
(-1.63055 -0.114797 0)
(-1.55076 -0.112575 0)
(-1.47183 -0.110351 0)
(-1.3938 -0.10812 2.19495e-19)
(-1.3167 -0.105884 2.34987e-19)
(-1.24056 -0.103645 0)
(-1.1654 -0.101406 -1.34763e-19)
(-1.09126 -0.0991702 -1.43542e-19)
(-1.01816 -0.0969394 0)
(-0.946116 -0.0947154 -3.2304e-19)
(-0.875154 -0.0925028 0)
(-0.805262 -0.090315 1.81326e-19)
(-0.736452 -0.0881577 0)
(-0.668734 -0.0860313 0)
(-0.602112 -0.0839382 -4.34455e-19)
(-0.536588 -0.0818797 0)
(-0.472164 -0.0798574 2.44835e-19)
(-0.40884 -0.0778744 0)
(-0.346615 -0.0759363 0)
(-0.285482 -0.074052 2.89772e-19)
(-0.225432 -0.0722194 3.09077e-19)
(-0.166458 -0.0704333 0)
(-0.108556 -0.0686965 -3.46371e-19)
(-0.0517296 -0.0670092 0)
(0.0040234 -0.065363 3.82637e-19)
(0.0587447 -0.0637508 7.66184e-19)
(0.112468 -0.062184 0)
(0.165193 -0.0606773 0)
(0.216922 -0.0592352 0)
(0.267667 -0.0578554 0)
(0.317463 -0.0565402 7.09232e-19)
(0.366379 -0.0552783 2.09642e-18)
(0.414502 -0.0538996 0)
(0.461744 -0.0522539 0)
(0.507966 -0.0504794 0)
(0.553236 -0.0487322 -6.6562e-19)
(0.597636 -0.0470642 0)
(0.641193 -0.0454836 0)
(0.683927 -0.0439882 1.28792e-18)
(0.725857 -0.0425712 6.36939e-19)
(0.767005 -0.0412254 6.32415e-19)
(0.807392 -0.039944 0)
(0.84704 -0.0387215 0)
(0.88597 -0.0375536 6.15871e-19)
(0.924204 -0.0364367 -6.09634e-19)
(0.961763 -0.0353677 0)
(0.998669 -0.0343441 0)
(1.03494 -0.0333639 -5.96776e-19)
(1.0706 -0.0324252 1.77635e-18)
(1.10568 -0.0315265 0)
(1.14018 -0.0306661 0)
(1.17414 -0.029843 5.80307e-19)
(1.20757 -0.0290559 0)
(1.2405 -0.0283037 1.1449e-18)
(1.27296 -0.0275854 -5.68521e-19)
(1.30495 -0.0269001 0)
(1.3365 -0.0262467 5.62408e-19)
(1.36764 -0.0256242 1.11753e-18)
(1.39839 -0.0250315 0)
(1.42877 -0.0244674 0)
(1.45879 -0.0239305 -5.49574e-19)
(1.48849 -0.0234189 0)
(1.51787 -0.0229303 1.08644e-18)
(1.54696 -0.022462 0)
(1.57576 -0.02201 0)
(1.60428 -0.0215695 0)
(1.63253 -0.0211336 0)
(1.66049 -0.0206936 -5.29002e-19)
(1.68816 -0.0202374 -5.26235e-19)
(1.71549 -0.0197484 0)
(1.74242 -0.0192041 0)
(1.76886 -0.0185729 0)
(1.79467 -0.017809 5.16144e-19)
(1.81965 -0.0168456 0)
(1.84347 -0.0155794 -1.02487e-18)
(1.86571 -0.0138335 1.02262e-18)
(1.88544 -0.0113234 1.02223e-18)
(1.90224 -0.00730827 1.02332e-18)
(1.91245 -0.000517502 1.02848e-18)
(1.92475 0.0124262 1.02038e-18)
(1.90519 0.0361878 0)
(0.116441 -0.859712 0)
(0.269016 -1.05683 0)
(0.316108 -0.826009 -1.26332e-19)
(0.315415 -0.584236 -1.0817e-19)
(0.297984 -0.373771 1.0049e-19)
(0.266776 -0.188644 1.00671e-19)
(0.220594 -0.0231846 -6.4489e-22)
(0.158697 0.124558 0)
(0.0809602 0.255101 0)
(-0.0138538 0.366019 0)
(-0.129302 0.45173 0)
(-0.273449 0.512792 0)
(-0.45921 0.566619 -2.67337e-19)
(-0.697072 0.641355 0)
(-0.983297 0.753912 6.62774e-20)
(-1.30203 0.89588 5.71764e-20)
(-1.63532 1.04399 0)
(-1.96625 1.178 0)
(-2.27959 1.28538 0)
(-2.56348 1.35909 0)
(-2.81259 1.39484 3.49047e-20)
(-3.02652 1.39239 0)
(-3.20667 1.35643 -3.23474e-20)
(-3.35586 1.29419 0)
(-3.47857 1.21298 0)
(-3.57939 1.11922 0)
(-3.66314 1.01897 -6.85894e-20)
(-3.73418 0.917576 0)
(-3.79605 0.81917 3.31183e-20)
(-3.85151 0.726545 -7.07029e-20)
(-3.90248 0.641216 0)
(-3.95027 0.56392 0)
(-3.99563 0.494707 0)
(-4.03893 0.433192 3.65654e-20)
(-4.08026 0.378727 3.71527e-20)
(-4.1196 0.330539 0)
(-4.1568 0.287832 0)
(-4.19168 0.249845 -7.78024e-20)
(-4.22408 0.215884 -7.81953e-20)
(-4.25382 0.185338 7.84283e-20)
(-4.28076 0.157689 0)
(-4.3048 0.132509 0)
(-4.32583 0.109448 0)
(-4.34378 0.088222 0)
(-4.3586 0.068598 -7.70117e-20)
(-4.37023 0.0503759 -7.69136e-20)
(-4.37859 0.0333714 7.62707e-20)
(-4.38356 0.0173836 0)
(-4.38495 0.00215617 0)
(-4.38262 -0.0125973 0)
(-4.3765 -0.0270099 0)
(-4.36665 -0.040995 -7.1107e-20)
(-4.35313 -0.0544607 0)
(-4.33598 -0.0673957 0)
(-4.31522 -0.0798044 -6.69952e-20)
(-4.29093 -0.0916955 -6.49695e-20)
(-4.26315 -0.103076 0)
(-4.23196 -0.113951 1.24571e-19)
(-4.19745 -0.124322 -6.00315e-20)
(-4.15968 -0.134189 5.82549e-20)
(-4.11876 -0.143549 0)
(-4.07478 -0.152402 0)
(-4.02784 -0.160745 0)
(-3.97804 -0.168577 0)
(-3.92549 -0.175901 4.84232e-20)
(-3.8703 -0.182719 9.37773e-20)
(-3.81259 -0.18903 4.40578e-20)
(-3.75246 -0.194838 -4.17857e-20)
(-3.69005 -0.200148 0)
(-3.62548 -0.204967 7.54259e-20)
(-3.55886 -0.209303 7.05428e-20)
(-3.49032 -0.213165 6.55433e-20)
(-3.41999 -0.216563 -6.04281e-20)
(-3.34799 -0.219509 0)
(-3.27445 -0.222015 -7.41007e-20)
(-3.19948 -0.224096 0)
(-3.12322 -0.225765 2.00958e-20)
(-3.04579 -0.227037 1.58727e-20)
(-2.9673 -0.22793 0)
(-2.88787 -0.228458 0)
(-2.80762 -0.228641 1.53624e-20)
(-2.72665 -0.228496 0)
(-2.64509 -0.22804 2.92804e-21)
(-2.56304 -0.227293 0)
(-2.48059 -0.226274 9.9948e-21)
(-2.39786 -0.225002 3.47173e-20)
(-2.31494 -0.223496 0)
(-2.23193 -0.221775 0)
(-2.14892 -0.219859 0)
(-2.06601 -0.217765 4.45793e-20)
(-1.9833 -0.215508 0)
(-1.90088 -0.213098 5.94006e-20)
(-1.81886 -0.210538 0)
(-1.73731 -0.207814 0)
(-1.65631 -0.204897 -1.67046e-19)
(-1.5759 -0.201774 0)
(-1.49609 -0.198458 -9.93094e-20)
(-1.41689 -0.194993 0)
(-1.33833 -0.191435 -1.16588e-19)
(-1.26047 -0.187823 0)
(-1.18336 -0.184176 0)
(-1.10706 -0.180499 0)
(-1.03161 -0.176801 -4.62678e-19)
(-0.957042 -0.173088 -1.65039e-19)
(-0.883387 -0.169366 0)
(-0.810674 -0.165642 0)
(-0.738926 -0.161922 0)
(-0.668167 -0.158211 0)
(-0.598413 -0.154513 2.18833e-19)
(-0.529675 -0.150834 -4.58455e-19)
(-0.461961 -0.147184 -2.42666e-19)
(-0.395282 -0.143571 5.07646e-19)
(-0.329647 -0.14 5.33443e-19)
(-0.265063 -0.136478 2.81371e-19)
(-0.201532 -0.133007 0)
(-0.139054 -0.129586 6.16208e-19)
(-0.0776318 -0.12622 0)
(-0.017266 -0.12291 -6.73541e-19)
(0.0420495 -0.119659 -3.45155e-19)
(0.100328 -0.116469 0)
(0.157576 -0.113341 6.93116e-19)
(0.213799 -0.110278 3.48827e-19)
(0.269007 -0.107281 0)
(0.323211 -0.10434 3.4872e-19)
(0.376419 -0.101444 -1.0528e-18)
(0.42864 -0.0986026 0)
(0.479887 -0.0958259 0)
(0.530178 -0.0931166 0)
(0.579529 -0.0904755 0)
(0.627964 -0.0879072 -7.07741e-19)
(0.675516 -0.0854186 -7.10233e-19)
(0.722209 -0.0830249 0)
(0.76801 -0.0807131 0)
(0.812901 -0.0784442 0)
(0.856938 -0.0762168 0)
(0.900161 -0.0740473 0)
(0.942589 -0.0719443 0)
(0.984233 -0.0699104 -7.14007e-19)
(1.02511 -0.0679454 -1.08895e-21)
(1.06524 -0.0660477 0)
(1.10464 -0.0642153 0)
(1.14333 -0.0624461 -7.1384e-19)
(1.18133 -0.0607384 0)
(1.21866 -0.0590905 7.14888e-19)
(1.25534 -0.057501 7.14026e-19)
(1.29139 -0.0559687 0)
(1.32683 -0.0544922 0)
(1.36169 -0.0530705 -7.14559e-19)
(1.39598 -0.0517026 -1.42732e-18)
(1.42973 -0.0503874 0)
(1.46295 -0.0491239 0)
(1.49566 -0.0479113 0)
(1.5279 -0.0467486 -7.13252e-19)
(1.55967 -0.0456349 7.1287e-19)
(1.59101 -0.0445691 0)
(1.62192 -0.0435501 1.42287e-18)
(1.65244 -0.042577 7.10413e-19)
(1.68259 -0.0416482 -1.42081e-18)
(1.71238 -0.0407621 0)
(1.74184 -0.0399167 0)
(1.77098 -0.0391095 -1.41701e-18)
(1.79982 -0.0383371 -7.08215e-19)
(1.82838 -0.0375952 0)
(1.85668 -0.036878 0)
(1.88472 -0.0361781 0)
(1.9125 -0.0354853 0)
(1.94003 -0.034786 -1.40688e-18)
(1.96729 -0.0340619 0)
(1.99424 -0.0332881 0)
(2.02085 -0.0324302 0)
(2.04703 -0.0314405 0)
(2.07267 -0.0302506 0)
(2.0976 -0.0287596 0)
(2.12156 -0.0268161 -1.39755e-18)
(2.14421 -0.0241686 0)
(2.16488 -0.0204118 0)
(2.18334 -0.0147533 -2.81632e-18)
(2.19677 -0.00587581 1.41818e-18)
(2.21147 0.0088782 -1.41629e-18)
(2.20637 0.0362568 1.41175e-18)
(0.0333202 -1.16607 0)
(0.0696813 -1.02976 3.59941e-19)
(0.0339275 -0.746799 0)
(-0.0105301 -0.506321 1.1088e-19)
(-0.065866 -0.283601 0)
(-0.133732 -0.0740126 0)
(-0.216978 0.122841 -8.28079e-20)
(-0.317979 0.306224 0)
(-0.438859 0.475694 0)
(-0.582223 0.631808 0)
(-0.751928 0.777103 0)
(-0.953182 0.917679 0)
(-1.18862 1.06165 2.04197e-19)
(-1.45264 1.21242 9.24362e-20)
(-1.73079 1.36375 -8.36882e-20)
(-2.00469 1.50227 0)
(-2.2586 1.61417 0)
(-2.48249 1.6901 0)
(-2.67156 1.72633 0)
(-2.82438 1.72415 0)
(-2.94353 1.6874 6.01633e-20)
(-3.03456 1.62131 5.88467e-20)
(-3.10355 1.53276 -5.79937e-20)
(-3.15685 1.42938 5.76922e-20)
(-3.19985 1.31788 0)
(-3.23687 1.20367 0)
(-3.27141 1.09112 5.58453e-20)
(-3.30579 0.983485 0)
(-3.34131 0.882907 0)
(-3.37847 0.790422 5.86997e-20)
(-3.41728 0.706272 6.15176e-20)
(-3.45739 0.63023 6.22293e-20)
(-3.49828 0.561766 0)
(-3.53931 0.500183 0)
(-3.5799 0.444722 -6.40394e-20)
(-3.61946 0.394625 0)
(-3.65751 0.349182 0)
(-3.69363 0.30775 6.43122e-20)
(-3.72748 0.269764 -6.60323e-20)
(-3.75878 0.234735 6.60428e-20)
(-3.78731 0.202249 0)
(-3.81287 0.171954 0)
(-3.83533 0.143556 1.30018e-19)
(-3.85454 0.116803 0)
(-3.8704 0.0914828 1.2863e-19)
(-3.88282 0.06742 1.91042e-19)
(-3.89173 0.0444703 -1.894e-19)
(-3.89704 0.0225135 1.25332e-19)
(-3.89873 0.00143238 0)
(-3.89678 -0.0188889 0)
(-3.89124 -0.0385285 1.19876e-19)
(-3.88217 -0.0575054 5.8407e-20)
(-3.86958 -0.0758154 0)
(-3.85352 -0.0934575 0)
(-3.83404 -0.110431 5.49008e-20)
(-3.81116 -0.126736 1.08252e-19)
(-3.78496 -0.142369 0)
(-3.75548 -0.15733 -1.01799e-19)
(-3.72282 -0.171613 9.99696e-20)
(-3.68702 -0.185214 -9.69977e-20)
(-3.64819 -0.198128 0)
(-3.60641 -0.210351 0)
(-3.56177 -0.221876 0)
(-3.51437 -0.232701 0)
(-3.46432 -0.24283 0)
(-3.41171 -0.252264 -7.59246e-20)
(-3.35666 -0.261002 0)
(-3.29928 -0.269048 0)
(-3.23968 -0.27641 0)
(-3.17799 -0.283096 -1.22625e-19)
(-3.11431 -0.289117 -5.6705e-20)
(-3.04878 -0.294485 -5.26038e-20)
(-2.98151 -0.299214 9.80424e-20)
(-2.91261 -0.30332 -4.53637e-20)
(-2.84222 -0.306819 3.98118e-20)
(-2.77045 -0.30973 0)
(-2.69743 -0.312073 -3.0889e-20)
(-2.62326 -0.313868 0)
(-2.54806 -0.315138 0)
(-2.47195 -0.315904 0)
(-2.39505 -0.31619 -2.54915e-20)
(-2.31746 -0.316021 8.48583e-21)
(-2.23928 -0.315419 4.76834e-21)
(-2.16063 -0.314409 -2.98049e-21)