/*--------------------------------*- C++ -*----------------------------------*\
  =========                 |
  \\      /  F ield         | OpenFOAM: The Open Source CFD Toolbox
   \\    /   O peration     | Website:  https://openfoam.org
    \\  /    A nd           | Version:  8
     \\/     M anipulation  |
\*---------------------------------------------------------------------------*/
FoamFile
{
    version     2.0;
    format      ascii;
    class       surfaceScalarField;
    location    "1900";
    object      phi;
}
// * * * * * * * * * * * * * * * * * * * * * * * * * * * * * * * * * * * * * //

dimensions      [0 3 -1 0 0 0 0];

internalField   nonuniform List<scalar> 
24170
(
3.04287e-06
9.10631e-08
2.93511e-06
1.07967e-07
2.84398e-06
9.08356e-08
2.76128e-06
8.21393e-08
2.68566e-06
7.47842e-08
2.61683e-06
6.82134e-08
2.55551e-06
6.10089e-08
2.50207e-06
5.34182e-08
2.4565e-06
4.55804e-08
2.41832e-06
3.81773e-08
2.38741e-06
3.09431e-08
2.35983e-06
2.76011e-08
2.33519e-06
2.46749e-08
2.31415e-06
2.10277e-08
2.29191e-06
2.21916e-08
2.27054e-06
2.13393e-08
2.25166e-06
1.89311e-08
2.33888e-08
2.2283e-06
3.5066e-06
4.07272e-08
3.50877e-06
1.04576e-07
3.50506e-06
9.33281e-08
3.49623e-06
8.99194e-08
3.48286e-06
8.72693e-08
3.46601e-06
8.45312e-08
3.44394e-06
8.29002e-08
3.41942e-06
7.79299e-08
3.39377e-06
7.12364e-08
3.36655e-06
6.53904e-08
3.33755e-06
5.99384e-08
3.30468e-06
6.04059e-08
3.27303e-06
5.62612e-08
3.24633e-06
4.76284e-08
3.22228e-06
4.61476e-08
3.19964e-06
4.39098e-08
3.18008e-06
3.84574e-08
3.67051e-08
3.16663e-06
3.82234e-06
3.05825e-08
3.83399e-06
9.33015e-08
3.84228e-06
8.52635e-08
3.85066e-06
8.14734e-08
3.85656e-06
8.11124e-08
3.85987e-06
8.10155e-08
3.86121e-06
8.1569e-08
3.86064e-06
7.86276e-08
3.85778e-06
7.4206e-08
3.85227e-06
7.09699e-08
3.84415e-06
6.81028e-08
3.83673e-06
6.78456e-08
3.82854e-06
6.44875e-08
3.81749e-06
5.86931e-08
3.80741e-06
5.62224e-08
3.79836e-06
5.29664e-08
3.78876e-06
4.80715e-08
4.457e-08
3.78082e-06
4.20768e-06
2.7327e-08
4.22034e-06
7.98449e-08
4.22812e-06
7.69259e-08
4.23488e-06
7.42995e-08
4.2407e-06
7.50602e-08
4.24557e-06
7.61702e-08
4.25019e-06
7.71657e-08
4.25394e-06
7.51463e-08
4.25647e-06
7.1892e-08
4.258e-06
6.96126e-08
4.25846e-06
6.7725e-08
4.25953e-06
6.68186e-08
4.26018e-06
6.38558e-08
4.25909e-06
5.97883e-08
4.25811e-06
5.7193e-08
4.2572e-06
5.38851e-08
4.25561e-06
4.96558e-08
4.57876e-08
4.25428e-06
4.64064e-06
2.40132e-08
4.65207e-06
6.89056e-08
4.65876e-06
7.0532e-08
4.66403e-06
6.91453e-08
4.66907e-06
6.9962e-08
4.67387e-06
7.13697e-08
4.67884e-06
7.22721e-08
4.6833e-06
7.07774e-08
4.68692e-06
6.83534e-08
4.69002e-06
6.65578e-08
4.69276e-06
6.50198e-08
4.69595e-06
6.36591e-08
4.69884e-06
6.10113e-08
4.7008e-06
5.78344e-08
4.70282e-06
5.51958e-08
4.70472e-06
5.19836e-08
4.70614e-06
4.82134e-08
4.44916e-08
4.70749e-06
5.11808e-06
2.05161e-08
5.1282e-06
5.83856e-08
5.13472e-06
6.37228e-08
5.13974e-06
6.39402e-08
5.14462e-06
6.50605e-08
5.14947e-06
6.66716e-08
5.15451e-06
6.74967e-08
5.15915e-06
6.63953e-08
5.16315e-06
6.45637e-08
5.16682e-06
6.30424e-08
5.17038e-06
6.15806e-08
5.17418e-06
5.99306e-08
5.17773e-06
5.75043e-08
5.1808e-06
5.47888e-08
5.18385e-06
5.21611e-08
5.18674e-06
4.9093e-08
5.1893e-06
4.56704e-08
4.20905e-08
5.19162e-06
5.64409e-06
1.75101e-08
5.65317e-06
4.97959e-08
5.65995e-06
5.72758e-08
5.6652e-06
5.88042e-08
5.67017e-06
6.01522e-08
5.67516e-06
6.17415e-08
5.68028e-06
6.24624e-08
5.68507e-06
6.16805e-08
5.68938e-06
6.0283e-08
5.69348e-06
5.89698e-08
5.69754e-06
5.75587e-08
5.70167e-06
5.58373e-08
5.70558e-06
5.36126e-08
5.70921e-06
5.11714e-08
5.71276e-06
4.86155e-08
5.71612e-06
4.57283e-08
5.7192e-06
4.25656e-08
3.92972e-08
5.72204e-06
4.40807e-06
1.56276e-08
4.41367e-06
4.41321e-08
4.4186e-06
5.22928e-08
4.42265e-06
5.4726e-08
4.42644e-06
5.64266e-08
4.43025e-06
5.80812e-08
4.4341e-06
5.88102e-08
4.43773e-06
5.82263e-08
4.44107e-06
5.7059e-08
4.44429e-06
5.58513e-08
4.44745e-06
5.44734e-08
4.45058e-06
5.2767e-08
4.45356e-06
5.06635e-08
4.4564e-06
4.83556e-08
4.45914e-06
4.5876e-08
4.46174e-06
4.31248e-08
4.46415e-06
4.01615e-08
3.70827e-08
4.46636e-06
5.1418e-06
1.37175e-08
5.1474e-06
3.89558e-08
5.15267e-06
4.72832e-08
5.15718e-06
5.03755e-08
5.16141e-06
5.22867e-08
5.16567e-06
5.39168e-08
5.16993e-06
5.46377e-08
5.17397e-06
5.42265e-08
5.17778e-06
5.32759e-08
5.18148e-06
5.21829e-08
5.18511e-06
5.08754e-08
5.18866e-06
4.9234e-08
5.19208e-06
4.72678e-08
5.19534e-06
4.50903e-08
5.19849e-06
4.27347e-08
5.20146e-06
4.01426e-08
5.20422e-06
3.73805e-08
3.45521e-08
5.20677e-06
5.99775e-06
1.18706e-08
6.00326e-06
3.36084e-08
6.0088e-06
4.18636e-08
6.01373e-06
4.55189e-08
6.01842e-06
4.7686e-08
6.02312e-06
4.93143e-08
6.0278e-06
5.00382e-08
6.03229e-06
4.97882e-08
6.03659e-06
4.90178e-08
6.04077e-06
4.80277e-08
6.04489e-06
4.67858e-08
6.04892e-06
4.52316e-08
6.0528e-06
4.33959e-08
6.05653e-06
4.13758e-08
6.06009e-06
3.91526e-08
6.06346e-06
3.67635e-08
6.06662e-06
3.42349e-08
3.16588e-08
6.06953e-06
6.99615e-06
1.00202e-08
7.00155e-06
2.84906e-08
7.00727e-06
3.63461e-08
7.01262e-06
4.03217e-08
7.01777e-06
4.26472e-08
7.02293e-06
4.42369e-08
7.02806e-06
4.49649e-08
7.03302e-06
4.48456e-08
7.03783e-06
4.42308e-08
7.04254e-06
4.33391e-08
7.04717e-06
4.21774e-08
7.05168e-06
4.07303e-08
7.05606e-06
3.90499e-08
7.06025e-06
3.71731e-08
7.06427e-06
3.51465e-08
7.06806e-06
3.29605e-08
7.07163e-06
3.06876e-08
2.83718e-08
7.07492e-06
8.16083e-06
8.29447e-09
8.16601e-06
2.35391e-08
8.17185e-06
3.06889e-08
8.17757e-06
3.47251e-08
8.18318e-06
3.71221e-08
8.18883e-06
3.86597e-08
8.19443e-06
3.93544e-08
8.19993e-06
3.93525e-08
8.20528e-06
3.88666e-08
8.21054e-06
3.80764e-08
8.2157e-06
3.7021e-08
8.22074e-06
3.5706e-08
8.22562e-06
3.41905e-08
8.23031e-06
3.25003e-08
8.23478e-06
3.06731e-08
8.23902e-06
2.87329e-08
8.24299e-06
2.67154e-08
2.47e-08
8.2467e-06
9.51942e-06
6.64413e-09
9.52439e-06
1.87781e-08
9.53026e-06
2.49896e-08
9.53631e-06
2.88033e-08
9.5424e-06
3.11369e-08
9.54852e-06
3.2529e-08
9.55467e-06
3.32068e-08
9.56072e-06
3.32601e-08
9.56668e-06
3.28839e-08
9.57253e-06
3.22095e-08
9.57826e-06
3.1271e-08
9.58386e-06
3.01321e-08
9.58926e-06
2.87896e-08
9.59447e-06
2.73227e-08
9.59942e-06
2.57185e-08
9.60411e-06
2.4048e-08
9.60852e-06
2.23051e-08
2.05912e-08
9.61263e-06
1.11043e-05
5.08317e-09
1.1109e-05
1.42547e-08
1.11149e-05
1.92812e-08
1.11212e-05
2.25942e-08
1.11278e-05
2.46314e-08
1.11344e-05
2.58732e-08
1.11411e-05
2.64485e-08
1.11478e-05
2.6536e-08
1.11544e-05
2.62537e-08
1.11609e-05
2.56886e-08
1.11673e-05
2.49135e-08
1.11734e-05
2.39407e-08
1.11795e-05
2.28305e-08
1.11852e-05
2.15836e-08
1.11907e-05
2.02592e-08
1.11958e-05
1.88599e-08
1.12007e-05
1.74372e-08
1.60282e-08
1.12052e-05
1.29532e-05
3.57243e-09
1.29577e-05
9.86655e-09
1.29635e-05
1.35598e-08
1.29701e-05
1.60496e-08
1.29771e-05
1.76699e-08
1.29843e-05
1.86121e-08
1.29917e-05
1.90685e-08
1.29991e-05
1.91441e-08
1.30064e-05
1.89283e-08
1.30136e-05
1.84877e-08
1.30206e-05
1.78707e-08
1.30275e-05
1.71092e-08
1.30341e-05
1.62302e-08
1.30404e-05
1.52592e-08
1.30465e-05
1.42228e-08
1.30522e-05
1.31442e-08
1.30576e-05
1.20452e-08
1.09801e-08
1.30626e-05
1.511e-05
2.06891e-09
1.51144e-05
5.52378e-09
1.51203e-05
7.69738e-09
1.51272e-05
9.175e-09
1.51347e-05
1.0153e-08
1.51426e-05
1.07185e-08
1.51507e-05
1.09838e-08
1.51588e-05
1.0996e-08
1.51669e-05
1.08284e-08
1.5175e-05
1.05064e-08
1.51828e-05
1.00699e-08
1.51904e-05
9.53609e-09
1.51977e-05
8.92547e-09
1.52047e-05
8.2562e-09
1.52114e-05
7.5454e-09
1.52178e-05
6.81152e-09
1.52237e-05
6.06645e-09
5.35822e-09
1.52294e-05
1.7626e-05
5.15528e-10
1.76306e-05
1.07474e-09
1.76367e-05
1.52437e-09
1.76441e-05
1.8149e-09
1.76523e-05
1.92438e-09
1.7661e-05
2.02984e-09
1.767e-05
1.98657e-09
1.76792e-05
1.92366e-09
1.76882e-05
1.76993e-09
1.76972e-05
1.592e-09
1.77059e-05
1.35367e-09
1.77144e-05
1.08758e-09
1.77226e-05
7.80668e-10
1.77304e-05
4.50964e-10
1.77379e-05
1.00506e-10
1.7745e-05
-2.59786e-10
1.77517e-05
-6.2393e-10
-9.60775e-10
1.7758e-05
1.78278e-05
-9.47702e-10
1.7832e-05
-3.16499e-09
1.78381e-05
-4.3316e-09
1.78452e-05
-5.43625e-09
1.78534e-05
-6.09705e-09
1.7862e-05
-6.61006e-09
1.7871e-05
-6.87373e-09
1.78799e-05
-7.09277e-09
1.7889e-05
-7.16508e-09
1.78978e-05
-7.22446e-09
1.79065e-05
-7.22142e-09
1.79148e-05
-7.22396e-09
1.79228e-05
-7.20917e-09
1.79305e-05
-7.20242e-09
1.79378e-05
-7.19494e-09
1.79448e-05
-7.18998e-09
1.79514e-05
-7.18952e-09
-7.16885e-09
1.79576e-05
1.58827e-05
-2.30302e-09
1.58868e-05
-6.88326e-09
1.58922e-05
-9.7067e-09
1.58989e-05
-1.19074e-08
1.59062e-05
-1.34651e-08
1.59141e-05
-1.43609e-08
1.59221e-05
-1.49387e-08
1.59303e-05
-1.51435e-08
1.59383e-05
-1.5195e-08
1.59462e-05
-1.505e-08
1.59538e-05
-1.48438e-08
1.59613e-05
-1.45592e-08
1.59683e-05
-1.42586e-08
1.59751e-05
-1.39335e-08
1.59815e-05
-1.3608e-08
1.59877e-05
-1.32811e-08
1.59935e-05
-1.29584e-08
-1.26357e-08
1.59989e-05
1.41501e-05
-3.57865e-09
1.41539e-05
-1.05532e-08
1.41593e-05
-1.48371e-08
1.41655e-05
-1.82308e-08
1.41725e-05
-2.03659e-08
1.41798e-05
-2.16811e-08
1.41874e-05
-2.23626e-08
1.41948e-05
-2.26243e-08
1.42022e-05
-2.25053e-08
1.42093e-05
-2.21817e-08
1.42162e-05
-2.17101e-08
1.42228e-05
-2.11584e-08
1.42292e-05
-2.05598e-08
1.42352e-05
-1.9938e-08
1.42409e-05
-1.93128e-08
1.42464e-05
-1.8691e-08
1.42515e-05
-1.80836e-08
-1.74863e-08
1.42564e-05
1.26064e-05
-4.92597e-09
1.26104e-05
-1.42125e-08
1.26157e-05
-2.00077e-08
1.26219e-05
-2.43472e-08
1.26286e-05
-2.70777e-08
1.26356e-05
-2.86536e-08
1.26426e-05
-2.94502e-08
1.26496e-05
-2.9603e-08
1.26564e-05
-2.93154e-08
1.26629e-05
-2.87447e-08
1.26692e-05
-2.7992e-08
1.26752e-05
-2.71505e-08
1.26809e-05
-2.62465e-08
1.26864e-05
-2.53363e-08
1.26915e-05
-2.44212e-08
1.26963e-05
-2.35257e-08
1.27009e-05
-2.2653e-08
-2.18108e-08
1.27053e-05
1.12312e-05
-6.09752e-09
1.12353e-05
-1.81743e-08
1.12407e-05
-2.54172e-08
1.12469e-05
-3.06022e-08
1.12534e-05
-3.36105e-08
1.12601e-05
-3.53862e-08
1.12669e-05
-3.62011e-08
1.12735e-05
-3.62118e-08
1.12798e-05
-3.56702e-08
1.12858e-05
-3.48153e-08
1.12916e-05
-3.37724e-08
1.1297e-05
-3.26222e-08
1.13022e-05
-3.14231e-08
1.13071e-05
-3.02115e-08
1.13117e-05
-2.90183e-08
1.1316e-05
-2.78587e-08
1.13201e-05
-2.67386e-08
-2.56717e-08
1.1324e-05
1.00057e-05
-7.28467e-09
1.00102e-05
-2.2296e-08
1.00159e-05
-3.11347e-08
1.00221e-05
-3.67743e-08
1.00284e-05
-4.00209e-08
1.00349e-05
-4.19162e-08
1.00414e-05
-4.26456e-08
1.00476e-05
-4.24234e-08
1.00535e-05
-4.16145e-08
1.00591e-05
-4.04448e-08
1.00644e-05
-3.90926e-08
1.00694e-05
-3.76246e-08
1.0074e-05
-3.61362e-08
1.00785e-05
-3.46427e-08
1.00826e-05
-3.31923e-08
1.00866e-05
-3.17792e-08
1.00902e-05
-3.04337e-08
-2.91488e-08
1.00938e-05
8.91413e-06
-7.99117e-09
8.91874e-06
-2.67222e-08
8.92464e-06
-3.71412e-08
8.93069e-06
-4.30091e-08
8.93696e-06
-4.63524e-08
8.94336e-06
-4.83218e-08
8.94957e-06
-4.88597e-08
8.95546e-06
-4.83085e-08
8.96102e-06
-4.71596e-08
8.96624e-06
-4.56801e-08
8.97115e-06
-4.40021e-08
8.97573e-06
-4.22506e-08
8.98004e-06
-4.04553e-08
8.98407e-06
-3.87044e-08
8.98787e-06
-3.69851e-08
8.99143e-06
-3.53521e-08
8.99479e-06
-3.37846e-08
-3.23051e-08
8.99793e-06
7.94112e-06
-8.46339e-09
7.9465e-06
-3.21866e-08
7.95231e-06
-4.30569e-08
7.95802e-06
-4.87942e-08
7.96423e-06
-5.26819e-08
7.97067e-06
-5.47886e-08
7.97685e-06
-5.50078e-08
7.98263e-06
-5.40825e-08
7.98804e-06
-5.25648e-08
7.99306e-06
-5.0698e-08
7.99771e-06
-4.86632e-08
8.00203e-06
-4.65464e-08
8.00603e-06
-4.44673e-08
8.00977e-06
-4.24223e-08
8.01323e-06
-4.04701e-08
8.01647e-06
-3.85885e-08
8.0195e-06
-3.6819e-08
-3.51462e-08
8.02236e-06
7.07288e-06
-6.94171e-09
7.07966e-06
-3.89869e-08
7.08582e-06
-4.94681e-08
7.09169e-06
-5.48491e-08
7.09825e-06
-5.93329e-08
7.10495e-06
-6.15078e-08
7.11129e-06
-6.13506e-08
7.11716e-06
-5.99033e-08
7.1226e-06
-5.79845e-08
7.12756e-06
-5.56429e-08
7.13206e-06
-5.31511e-08
7.13614e-06
-5.06428e-08
7.13987e-06
-4.81638e-08
7.14326e-06
-4.5806e-08
7.14635e-06
-4.35316e-08
7.14917e-06
-4.13964e-08
7.15176e-06
-3.93823e-08
-3.74881e-08
7.15411e-06
6.29845e-06
-2.92042e-09
6.30525e-06
-4.65155e-08
6.31358e-06
-5.77355e-08
6.32204e-06
-6.34213e-08
6.33049e-06
-6.7906e-08
6.33826e-06
-6.93124e-08
6.34509e-06
-6.81346e-08
6.35106e-06
-6.59543e-08
6.3564e-06
-6.3219e-08
6.36102e-06
-6.02467e-08
6.36501e-06
-5.71322e-08
6.36844e-06
-5.40384e-08
6.37137e-06
-5.10967e-08
6.37389e-06
-4.82692e-08
6.376e-06
-4.56288e-08
6.37779e-06
-4.31549e-08
6.37931e-06
-4.08741e-08
-3.87943e-08
6.38065e-06
5.61826e-06
-6.49606e-09
5.62071e-06
-4.96973e-08
5.6309e-06
-6.80777e-08
5.6434e-06
-7.60198e-08
5.65528e-06
-7.99204e-08
5.66539e-06
-7.94438e-08
5.67326e-06
-7.60651e-08
5.67908e-06
-7.17615e-08
5.6832e-06
-6.7253e-08
5.68578e-06
-6.2761e-08
5.68707e-06
-5.8389e-08
5.6873e-06
-5.4276e-08
5.6867e-06
-5.04525e-08
5.68543e-06
-4.69442e-08
5.6836e-06
-4.37438e-08
5.68135e-06
-4.08611e-08
5.67879e-06
-3.82732e-08
-3.59903e-08
5.67602e-06
5.05347e-06
-5.78689e-08
5.06072e-06
-5.78734e-08
5.07206e-06
-7.96383e-08
5.07935e-06
-8.34399e-08
5.08176e-06
-8.24729e-08
5.07946e-06
-7.71912e-08
5.07291e-06
-6.95661e-08
5.06281e-06
-6.16536e-08
5.05006e-06
-5.43952e-08
5.03539e-06
-4.80094e-08
5.0195e-06
-4.2469e-08
5.00294e-06
-3.77026e-08
4.98616e-06
-3.36117e-08
4.9694e-06
-3.01107e-08
4.95285e-06
-2.71241e-08
4.93665e-06
-2.46142e-08
4.92099e-06
-2.25643e-08
-2.13853e-08
4.90641e-06
4.39863e-06
4.34074e-06
4.26109e-06
4.17763e-06
4.09515e-06
4.01796e-06
3.94839e-06
3.88675e-06
3.83237e-06
3.78436e-06
3.7419e-06
3.70421e-06
3.67061e-06
3.64051e-06
3.6134e-06
3.5888e-06
3.56624e-06
3.54486e-06
-7.86123e-09
7.84048e-09
-2.11381e-08
1.32618e-08
-3.51584e-08
1.39846e-08
-4.61943e-08
1.10462e-08
-4.93466e-08
3.11349e-09
-3.9976e-08
-9.3416e-09
-1.77978e-08
-2.22191e-08
1.42161e-08
-3.19909e-08
5.14631e-08
-3.72922e-08
8.93511e-08
-3.78698e-08
1.23794e-07
-3.44945e-08
1.52224e-07
-2.84102e-08
1.72812e-07
-2.06429e-08
1.8481e-07
-1.19667e-08
1.877e-07
-2.95054e-09
1.81887e-07
5.8535e-09
1.68069e-07
1.37612e-08
1.47976e-07
2.01343e-08
1.23512e-07
2.44115e-08
9.73594e-08
2.6177e-08
7.20568e-08
2.52364e-08
5.02799e-08
2.17736e-08
3.38527e-08
1.63453e-08
2.41328e-08
9.69345e-09
2.16452e-08
2.38423e-09
2.64986e-08
-4.8961e-09
3.84594e-08
-1.20585e-08
5.68881e-08
-1.85003e-08
7.92167e-08
-2.24099e-08
1.00672e-07
-2.15554e-08
1.1724e-07
-1.66355e-08
1.28223e-07
-1.10829e-08
1.35096e-07
-6.89831e-09
1.40341e-07
-5.32296e-09
1.39195e-07
1.23419e-09
1.21935e-07
1.7169e-08
8.15831e-08
4.05859e-08
1.36388e-08
6.77964e-08
-7.74607e-08
9.13038e-08
-1.88862e-07
1.11315e-07
-3.16791e-07
1.28009e-07
-4.56699e-07
1.3996e-07
-6.04165e-07
1.47501e-07
-7.55962e-07
1.51868e-07
-9.08388e-07
1.5244e-07
-1.0571e-06
1.48733e-07
-1.19753e-06
1.40418e-07
-1.32774e-06
1.30213e-07
-1.44982e-06
1.22069e-07
-1.56211e-06
1.12285e-07
-1.66421e-06
1.02102e-07
-1.75613e-06
9.19248e-08
-1.83784e-06
8.17141e-08
-1.91153e-06
7.36953e-08
-1.97767e-06
6.61405e-08
-2.03757e-06
5.99117e-08
-2.09232e-06
5.47409e-08
-2.14225e-06
4.99377e-08
-2.18803e-06
4.57674e-08
-2.23031e-06
4.22893e-08
-2.26962e-06
3.92987e-08
-2.30636e-06
3.67396e-08
-2.34089e-06
3.45186e-08
-2.37348e-06
3.2589e-08
-2.40439e-06
3.08961e-08
-2.43379e-06
2.93976e-08
-2.46186e-06
2.80569e-08
-2.48871e-06
2.68437e-08
-2.51445e-06
2.57325e-08
-2.53917e-06
2.47006e-08
-2.56291e-06
2.3731e-08
-2.58573e-06
2.28079e-08
-2.60766e-06
2.19197e-08
-2.62873e-06
2.10521e-08
-2.64894e-06
2.02014e-08
-2.66831e-06
1.93536e-08
-2.68682e-06
1.85091e-08
-2.7045e-06
1.76552e-08
-2.72129e-06
1.67951e-08
-2.73722e-06
1.59174e-08
-2.75224e-06
1.5027e-08
-2.76636e-06
1.41149e-08
-2.77954e-06
1.3185e-08
-2.79176e-06
1.22307e-08
-2.80301e-06
1.12523e-08
-2.81324e-06
1.02445e-08
-2.82243e-06
9.20158e-09
-2.83055e-06
8.12152e-09
-2.83756e-06
7.00314e-09
-2.84343e-06
5.83006e-09
-2.84809e-06
4.62003e-09
-2.85149e-06
3.35766e-09
-2.85357e-06
2.04314e-09
-2.85429e-06
7.02296e-10
-2.85373e-06
-5.64176e-10
-2.85204e-06
-1.66048e-09
-2.84936e-06
-2.66442e-09
-2.84568e-06
-3.64369e-09
-2.84104e-06
-4.62885e-09
-2.83541e-06
-5.61338e-09
-2.82881e-06
-6.61364e-09
-2.82122e-06
-7.61493e-09
-2.81263e-06
-8.63224e-09
-2.80302e-06
-9.65226e-09
-2.7924e-06
-1.06881e-08
-2.78075e-06
-1.17301e-08
-2.76805e-06
-1.27879e-08
-2.7543e-06
-1.38566e-08
-2.73947e-06
-1.49407e-08
-2.72355e-06
-1.60411e-08
-2.70651e-06
-1.7156e-08
-2.68835e-06
-1.82927e-08
-2.66904e-06
-1.94424e-08
-2.64856e-06
-2.06188e-08
-2.62688e-06
-2.18058e-08
-2.604e-06
-2.30234e-08
-2.57986e-06
-2.42483e-08
-2.55448e-06
-2.55058e-08
-2.5278e-06
-2.67664e-08
-2.49985e-06
-2.80597e-08
-2.47056e-06
-2.93512e-08
-2.43996e-06
-3.0673e-08
-2.408e-06
-3.19874e-08
-2.37471e-06
-3.33275e-08
-2.34004e-06
-3.46543e-08
-2.30403e-06
-3.59992e-08
-2.26665e-06
-3.7324e-08
-2.22794e-06
-3.86576e-08
-2.18787e-06
-3.99681e-08
-2.14649e-06
-4.12796e-08
-2.10378e-06
-4.25628e-08
-2.0598e-06
-4.383e-08
-2.01459e-06
-4.50558e-08
-1.9682e-06
-4.62574e-08
-1.92064e-06
-4.74174e-08
-1.87195e-06
-4.85473e-08
-1.82217e-06
-4.9639e-08
-1.77135e-06
-5.06733e-08
-1.71953e-06
-5.16578e-08
-1.66679e-06
-5.25556e-08
-1.6132e-06
-5.34094e-08
-1.55879e-06
-5.4208e-08
-1.50366e-06
-5.49696e-08
-1.44784e-06
-5.56682e-08
-1.39142e-06
-5.63302e-08
-1.33444e-06
-5.69302e-08
-1.27699e-06
-5.74979e-08
-1.2191e-06
-5.80013e-08
-1.16081e-06
-5.84478e-08
-1.10216e-06
-5.88162e-08
-1.04321e-06
-5.91122e-08
-9.84027e-07
-5.93415e-08
-9.24667e-07
-5.95179e-08
-8.65171e-07
-5.96443e-08
-8.05586e-07
-5.97278e-08
-7.45944e-07
-5.97702e-08
-6.86287e-07
-5.97767e-08
-6.2664e-07
-5.97498e-08
-5.6704e-07
-5.96941e-08
-5.07507e-07
-5.96139e-08
-4.48067e-07
-5.95112e-08
-3.88736e-07
-5.93915e-08
-3.29532e-07
-5.92557e-08
-2.70465e-07
-5.91087e-08
-2.11543e-07
-5.89544e-08
-1.52767e-07
-5.88004e-08
-9.41423e-08
-5.86396e-08
-3.57258e-08
-5.84252e-08
2.24412e-08
-5.81671e-08
8.04191e-08
-5.7975e-08
1.38143e-07
-5.77129e-08
1.95458e-07
-5.73028e-08
2.52254e-07
-5.67768e-08
3.08321e-07
-5.6048e-08
3.63301e-07
-5.49551e-08
4.16521e-07
-5.31956e-08
4.66754e-07
-5.02041e-08
5.11257e-07
-4.44764e-08
5.46307e-07
-3.5024e-08
3.78147e-09
5.42542e-07
-3.85149e-09
1.1655e-08
-9.8264e-09
1.92068e-08
-1.13302e-08
1.54055e-08
-6.78812e-10
3.96375e-10
2.50313e-08
-2.26584e-08
6.34096e-08
-4.77067e-08
1.08818e-07
-6.76613e-08
1.5562e-07
-7.87868e-08
1.99228e-07
-8.09277e-08
2.37091e-07
-7.57289e-08
2.67939e-07
-6.53728e-08
2.9141e-07
-5.18739e-08
3.07512e-07
-3.67781e-08
3.16717e-07
-2.11568e-08
3.195e-07
-5.76679e-09
3.16518e-07
8.8544e-09
3.07947e-07
2.23008e-08
2.94052e-07
3.40501e-08
2.75067e-07
4.33681e-08
2.51836e-07
4.9416e-08
2.25658e-07
5.13802e-08
1.9872e-07
4.87096e-08
1.73647e-07
4.13715e-08
1.53426e-07
2.99027e-08
1.40347e-07
1.53995e-08
1.36141e-07
-7.25237e-10
1.39951e-07
-1.59366e-08
1.47616e-07
-2.62232e-08
1.53204e-07
-2.8064e-08
1.51306e-07
-1.97428e-08
1.38277e-07
-3.65854e-09
1.08911e-07
1.81804e-08
5.47394e-08
4.72544e-08
-3.29819e-08
8.23439e-08
-1.52892e-07
1.21165e-07
-2.95955e-07
1.60211e-07
-4.52485e-07
1.97141e-07
-6.1522e-07
2.305e-07
-7.81298e-07
2.57399e-07
-9.4694e-07
2.76948e-07
-1.10778e-06
2.88868e-07
-1.2604e-06
2.92615e-07
-1.40154e-06
2.88668e-07
-1.52842e-06
2.78775e-07
-1.6402e-06
2.64235e-07
-1.73732e-06
2.45869e-07
-1.82202e-06
2.25118e-07
-1.89583e-06
2.04031e-07
-1.95818e-06
1.84409e-07
-2.01191e-06
1.66015e-07
-2.05867e-06
1.48855e-07
-2.10011e-06
1.33364e-07
-2.13791e-06
1.19512e-07
-2.17198e-06
1.07767e-07
-2.20351e-06
9.76751e-08
-2.23276e-06
8.91624e-08
-2.25998e-06
8.19607e-08
-2.28574e-06
7.56998e-08
-2.31027e-06
7.0293e-08
-2.33363e-06
6.56563e-08
-2.35598e-06
6.16465e-08
-2.3774e-06
5.81556e-08
-2.39797e-06
5.50867e-08
-2.41775e-06
5.23663e-08
-2.43679e-06
4.99286e-08
-2.45512e-06
4.77209e-08
-2.47277e-06
4.56973e-08
-2.48975e-06
4.38203e-08
-2.50609e-06
4.20571e-08
-2.52178e-06
4.03818e-08
-2.53683e-06
3.87711e-08
-2.55124e-06
3.7205e-08
-2.56499e-06
3.56686e-08
-2.5781e-06
3.41468e-08
-2.59054e-06
3.26295e-08
-2.6023e-06
3.11049e-08
-2.61336e-06
2.95677e-08
-2.62373e-06
2.80082e-08
-2.63336e-06
2.64242e-08
-2.64225e-06
2.48084e-08
-2.65039e-06
2.3161e-08
-2.65775e-06
2.1477e-08
-2.66432e-06
1.97574e-08
-2.67008e-06
1.79992e-08
-2.67503e-06
1.62029e-08
-2.67914e-06
1.43664e-08
-2.68242e-06
1.24896e-08
-2.68486e-06
1.05753e-08
-2.6865e-06
8.62049e-09
-2.68733e-06
6.64455e-09
-2.68739e-06
4.649e-09
-2.68672e-06
2.64905e-09
-2.68536e-06
6.64481e-10
-2.68338e-06
-1.28425e-09
-2.68074e-06
-3.18835e-09
-2.67729e-06
-5.08628e-09
-2.67292e-06
-7.00298e-09
-2.6676e-06
-8.93421e-09
-2.66133e-06
-1.08818e-08
-2.65409e-06
-1.28454e-08
-2.64588e-06
-1.48276e-08
-2.63669e-06
-1.68251e-08
-2.6265e-06
-1.88422e-08
-2.61532e-06
-2.08756e-08
-2.60312e-06
-2.29315e-08
-2.5899e-06
-2.50067e-08
-2.57565e-06
-2.71086e-08
-2.56035e-06
-2.92344e-08
-2.54398e-06
-3.13914e-08
-2.52653e-06
-3.35773e-08
-2.50799e-06
-3.57986e-08
-2.48832e-06
-3.80538e-08
-2.46752e-06
-4.03472e-08
-2.44555e-06
-4.26784e-08
-2.42241e-06
-4.50486e-08
-2.39807e-06
-4.74589e-08
-2.37251e-06
-4.99067e-08
-2.3457e-06
-5.23942e-08
-2.31763e-06
-5.49145e-08
-2.28828e-06
-5.74715e-08
-2.25764e-06
-6.00538e-08
-2.22569e-06
-6.26663e-08
-2.19242e-06
-6.52937e-08
-2.15781e-06
-6.79419e-08
-2.12188e-06
-7.05919e-08
-2.08461e-06
-7.32498e-08
-2.04602e-06
-7.5894e-08
-2.0061e-06
-7.85312e-08
-1.96486e-06
-8.11419e-08
-1.92233e-06
-8.37311e-08
-1.87852e-06
-8.62775e-08
-1.83347e-06
-8.878e-08
-1.78722e-06
-9.1216e-08
-1.7398e-06
-9.35898e-08
-1.69124e-06
-9.58868e-08
-1.64159e-06
-9.81152e-08
-1.59088e-06
-1.00258e-07
-1.53917e-06
-1.02299e-07
-1.4865e-06
-1.04222e-07
-1.43293e-06
-1.06016e-07
-1.37851e-06
-1.077e-07
-1.32332e-06
-1.09281e-07
-1.26743e-06
-1.10758e-07
-1.2109e-06
-1.12127e-07
-1.15378e-06
-1.13395e-07
-1.09614e-06
-1.14561e-07
-1.03804e-06
-1.15629e-07
-9.7954e-07
-1.16587e-07
-9.20667e-07
-1.17421e-07
-8.61461e-07
-1.18123e-07
-8.01976e-07
-1.18689e-07
-7.4227e-07
-1.19138e-07
-6.82396e-07
-1.1948e-07
-6.22396e-07
-1.19728e-07
-5.62312e-07
-1.1989e-07
-5.02179e-07
-1.19973e-07
-4.42034e-07
-1.19985e-07
-3.81905e-07
-1.19933e-07
-3.21823e-07
-1.19825e-07
-2.61809e-07
-1.19669e-07
-2.01885e-07
-1.19471e-07
-1.42067e-07
-1.19237e-07
-8.23709e-08
-1.18977e-07
-2.28076e-08
-1.18689e-07
3.6612e-08
-1.18388e-07
9.58916e-08
-1.18086e-07
1.55025e-07
-1.17776e-07
2.14043e-07
-1.1744e-07
2.72953e-07
-1.17072e-07
3.31625e-07
-1.16637e-07
3.89992e-07
-1.16068e-07
4.48032e-07
-1.15327e-07
5.05634e-07
-1.14361e-07
5.62618e-07
-1.13012e-07
6.18676e-07
-1.10992e-07
6.73304e-07
-1.07801e-07
7.25541e-07
-1.02417e-07
7.74236e-07
-9.31474e-08
8.15768e-07
-7.6533e-08
-3.22533e-08
8.51821e-07
-2.62e-10
1.18836e-08
4.5055e-09
1.43969e-08
2.46485e-08
-4.78825e-09
6.50609e-08
-4.00223e-08
1.19972e-07
-7.75913e-08
1.78011e-07
-1.05743e-07
2.30296e-07
-1.19961e-07
2.72678e-07
-1.21166e-07
3.04385e-07
-1.12651e-07
3.26572e-07
-9.79124e-08
3.40901e-07
-7.97199e-08
3.4899e-07
-5.9958e-08
3.52007e-07
-3.98152e-08
3.50872e-07
-2.00122e-08
3.46087e-07
-1.00243e-09
3.38183e-07
1.67719e-08
3.27537e-07
3.29263e-08
3.14547e-07
4.70545e-08
2.99263e-07
5.86296e-08
2.81737e-07
6.69549e-08
2.61988e-07
7.11091e-08
2.40712e-07
6.99962e-08
2.19234e-07
6.28316e-08
1.99645e-07
4.94948e-08
1.83793e-07
3.12227e-08
1.71829e-07
1.12244e-08
1.56802e-07
-9.5324e-10
1.27426e-07
3.11367e-09
7.84063e-08
2.09107e-08
7.90555e-09
5.07019e-08
-8.78084e-08
9.20118e-08
-2.09576e-07
1.3992e-07
-3.52323e-07
1.89987e-07
-5.09779e-07
2.39782e-07
-6.7446e-07
2.85848e-07
-8.39374e-07
3.25101e-07
-9.97872e-07
3.55637e-07
-1.14431e-06
3.76917e-07
-1.2756e-06
3.88683e-07
-1.38991e-06
3.91265e-07
-1.4866e-06
3.85568e-07
-1.56672e-06
3.72747e-07
-1.63249e-06
3.54456e-07
-1.68626e-06
3.3256e-07
-1.73058e-06
3.08567e-07
-1.76831e-06
2.83615e-07
-1.80205e-06
2.58865e-07
-1.8333e-06
2.35284e-07
-1.86241e-06
2.13517e-07
-1.8901e-06
1.937e-07
-1.91705e-06
1.75799e-07
-1.94352e-06
1.59837e-07
-1.96973e-06
1.45723e-07
-1.99538e-06
1.33417e-07
-2.02043e-06
1.22722e-07
-2.04473e-06
1.13471e-07
-2.06824e-06
1.05469e-07
-2.09102e-06
9.8477e-08
-2.11308e-06
9.23529e-08
-2.13441e-06
8.69859e-08
-2.15502e-06
8.22559e-08
-2.17492e-06
7.80602e-08
-2.19415e-06
7.43089e-08
-2.21271e-06
7.09267e-08
-2.23063e-06
6.7848e-08
-2.24793e-06
6.50167e-08
-2.26463e-06
6.23846e-08
-2.28072e-06
5.99105e-08
-2.29623e-06
5.75591e-08
-2.31115e-06
5.52989e-08
-2.3255e-06
5.31043e-08
-2.33925e-06
5.09531e-08
-2.35242e-06
4.88253e-08
-2.36498e-06
4.67043e-08
-2.37694e-06
4.45769e-08
-2.38827e-06
4.24307e-08
-2.39897e-06
4.02565e-08
-2.40901e-06
3.80458e-08
-2.41838e-06
3.57932e-08
-2.42707e-06
3.34932e-08
-2.43505e-06
3.11434e-08
-2.44231e-06
2.87412e-08
-2.44884e-06
2.62864e-08
-2.45461e-06
2.37787e-08
-2.45963e-06
2.1219e-08
-2.46386e-06
1.86085e-08
-2.46731e-06
1.59501e-08
-2.46999e-06
1.3246e-08
-2.47187e-06
1.05063e-08
-2.47298e-06
7.73342e-09
-2.4733e-06
4.94974e-09
-2.47283e-06
2.1626e-09
-2.47155e-06
-6.18882e-10
-2.46944e-06
-3.39042e-09
-2.46644e-06
-6.16184e-09
-2.46254e-06
-8.9591e-09
-2.45772e-06
-1.17859e-08
-2.45199e-06
-1.46443e-08
-2.44532e-06
-1.75271e-08
-2.43772e-06
-2.04395e-08
-2.42917e-06
-2.33744e-08
-2.41967e-06
-2.63376e-08
-2.40921e-06
-2.93246e-08
-2.39777e-06
-3.23414e-08
-2.38535e-06
-3.53867e-08
-2.37193e-06
-3.84663e-08
-2.3575e-06
-4.15814e-08
-2.34205e-06
-4.47367e-08
-2.32557e-06
-4.79356e-08
-2.30803e-06
-5.1181e-08
-2.28942e-06
-5.44777e-08
-2.26972e-06
-5.78265e-08
-2.24891e-06
-6.1233e-08
-2.22696e-06
-6.46952e-08
-2.20387e-06
-6.82187e-08
-2.17959e-06
-7.17988e-08
-2.15413e-06
-7.544e-08
-2.12745e-06
-7.91349e-08
-2.09954e-06
-8.28862e-08
-2.07038e-06
-8.66842e-08
-2.03995e-06
-9.0529e-08
-2.00824e-06
-9.44089e-08
-1.97525e-06
-9.83213e-08
-1.94095e-06
-1.02253e-07
-1.90535e-06
-1.06199e-07
-1.86845e-06
-1.10144e-07
-1.83026e-06
-1.1408e-07
-1.79077e-06
-1.17993e-07
-1.75e-06
-1.21875e-07
-1.70797e-06
-1.25711e-07
-1.6647e-06
-1.29488e-07
-1.62022e-06
-1.33193e-07
-1.57457e-06
-1.36807e-07
-1.52779e-06
-1.4032e-07
-1.4799e-06
-1.43723e-07
-1.43094e-06
-1.47011e-07
-1.38097e-06
-1.50169e-07
-1.33003e-06
-1.53176e-07
-1.27816e-06
-1.56014e-07
-1.22542e-06
-1.58672e-07
-1.17187e-06
-1.61162e-07
-1.11758e-06
-1.63491e-07
-1.0626e-06
-1.65658e-07
-1.00701e-06
-1.67659e-07
-9.50861e-07
-1.69503e-07
-8.94214e-07
-1.71192e-07
-8.37131e-07
-1.72726e-07
-7.79656e-07
-1.74097e-07
-7.2183e-07
-1.75292e-07
-6.6369e-07
-1.763e-07
-6.05288e-07
-1.77124e-07
-5.46673e-07
-1.77779e-07
-4.87897e-07
-1.78283e-07
-4.28999e-07
-1.78648e-07
-3.70021e-07
-1.78889e-07
-3.10995e-07
-1.79015e-07
-2.51957e-07
-1.79038e-07
-1.92933e-07
-1.78967e-07
-1.33951e-07
-1.78816e-07
-7.50325e-08
-1.78594e-07
-1.61953e-08
-1.78314e-07
4.25453e-08
-1.77982e-07
1.01174e-07
-1.7761e-07
1.59686e-07
-1.77204e-07
2.18073e-07
-1.76779e-07
2.76327e-07
-1.76343e-07
3.34445e-07
-1.75898e-07
3.92434e-07
-1.75434e-07
4.50283e-07
-1.74924e-07
5.07945e-07
-1.74303e-07
5.65381e-07
-1.73509e-07
6.22543e-07
-1.72494e-07
6.79338e-07
-1.7116e-07
7.35613e-07
-1.69292e-07
7.91131e-07
-1.66514e-07
8.45519e-07
-1.62193e-07
8.98235e-07
-1.55137e-07
9.48621e-07
-1.43537e-07
9.95754e-07
-1.23669e-07
-8.07686e-08
1.04426e-06
3.38934e-10
1.15144e-08
2.07432e-08
-6.04135e-09
7.15461e-08
-5.5615e-08
1.39468e-07
-1.07948e-07
2.05108e-07
-1.43241e-07
2.56674e-07
-1.57307e-07
2.91201e-07
-1.54496e-07
3.11089e-07
-1.41049e-07
3.20379e-07
-1.2195e-07
3.22773e-07
-1.00303e-07
3.20821e-07
-7.77805e-08
3.16102e-07
-5.52315e-08
3.09383e-07
-3.31118e-08
3.01101e-07
-1.17189e-08
2.91427e-07
8.65832e-09
2.80475e-07
2.77376e-08
2.68192e-07
4.51965e-08
2.54645e-07
6.06174e-08
2.39815e-07
7.34462e-08
2.23765e-07
8.30278e-08
2.06295e-07
8.85689e-08
1.87488e-07
8.8834e-08
1.67944e-07
8.23637e-08
1.4828e-07
6.91815e-08
1.22841e-07
5.66333e-08
8.12069e-08
5.2845e-08
1.74705e-08
6.27488e-08
-6.9378e-08
8.99345e-08
-1.80228e-07
1.31737e-07
-3.1339e-07
1.83842e-07
-4.62285e-07
2.409e-07
-6.19672e-07
2.97287e-07
-7.78338e-07
3.48653e-07
-9.3064e-07
3.92065e-07
-1.06976e-06
4.24967e-07
-1.19156e-06
4.46883e-07
-1.29444e-06
4.58519e-07
-1.37818e-06
4.60644e-07
-1.44404e-06
4.54543e-07
-1.49445e-06
4.41675e-07
-1.53247e-06
4.23588e-07
-1.56148e-06
4.01773e-07
-1.58467e-06
3.77657e-07
-1.60454e-06
3.5244e-07
-1.62298e-06
3.27012e-07
-1.64139e-06
3.02035e-07
-1.6606e-06
2.78081e-07
-1.68088e-06
2.55566e-07
-1.7021e-06
2.34735e-07
-1.72408e-06
2.15683e-07
-1.74668e-06
1.984e-07
-1.76969e-06
1.82846e-07
-1.7929e-06
1.68929e-07
-1.81604e-06
1.56554e-07
-1.83891e-06
1.45591e-07
-1.86134e-06
1.35907e-07
-1.88323e-06
1.2736e-07
-1.90454e-06
1.19789e-07
-1.92525e-06
1.13065e-07
-1.94534e-06
1.07077e-07
-1.96481e-06
1.01721e-07
-1.98365e-06
9.69041e-08
-2.00189e-06
9.25417e-08
-2.01952e-06
8.85609e-08
-2.03658e-06
8.48969e-08
-2.05306e-06
8.14929e-08
-2.06897e-06
7.8299e-08
-2.08434e-06
7.52711e-08
-2.09916e-06
7.23705e-08
-2.11343e-06
6.95645e-08
-2.12715e-06
6.6823e-08
-2.14033e-06
6.41202e-08
-2.15294e-06
6.14345e-08
-2.16499e-06
5.87468e-08
-2.17646e-06
5.60406e-08
-2.18734e-06
5.33023e-08
-2.19761e-06
5.05208e-08
-2.20726e-06
4.76868e-08
-2.21626e-06
4.47934e-08
-2.2246e-06
4.18351e-08
-2.23227e-06
3.8809e-08
-2.23924e-06
3.5713e-08
-2.2455e-06
3.2547e-08
-2.25103e-06
2.9312e-08
-2.25581e-06
2.60099e-08
-2.25984e-06
2.2644e-08
-2.26311e-06
1.92179e-08
-2.26559e-06
1.57375e-08
-2.2673e-06
1.22054e-08
-2.26822e-06
8.64274e-09
-2.26833e-06
5.04727e-09
-2.26761e-06
1.43782e-09
-2.26604e-06
-2.18263e-09
-2.2636e-06
-5.81451e-09
-2.26026e-06
-9.46557e-09
-2.25604e-06
-1.31511e-08
-2.25092e-06
-1.68732e-08
-2.24491e-06
-2.06346e-08
-2.23799e-06
-2.44289e-08
-2.23016e-06
-2.82597e-08
-2.22141e-06
-3.21208e-08
-2.21174e-06
-3.60178e-08
-2.20113e-06
-3.99465e-08
-2.18957e-06
-4.39147e-08
-2.17707e-06
-4.79204e-08
-2.16359e-06
-5.19724e-08
-2.14914e-06
-5.60709e-08
-2.1337e-06
-6.02243e-08
-2.11724e-06
-6.44346e-08
-2.09977e-06
-6.87084e-08
-2.08125e-06
-7.30497e-08
-2.06167e-06
-7.74617e-08
-2.04101e-06
-8.19499e-08
-2.01925e-06
-8.65133e-08
-1.99637e-06
-9.11581e-08
-1.97235e-06
-9.58785e-08
-1.94716e-06
-1.00681e-07
-1.92079e-06