/*--------------------------------*- C++ -*----------------------------------*\
  =========                 |
  \\      /  F ield         | OpenFOAM: The Open Source CFD Toolbox
   \\    /   O peration     | Website:  https://openfoam.org
    \\  /    A nd           | Version:  8
     \\/     M anipulation  |
\*---------------------------------------------------------------------------*/
FoamFile
{
    version     2.0;
    format      ascii;
    class       volVectorField;
    location    "2600";
    object      wallShearStress;
}
// * * * * * * * * * * * * * * * * * * * * * * * * * * * * * * * * * * * * * //

dimensions      [0 2 -2 0 0 0 0];

internalField   uniform (0 0 0);

boundaryField
{
    inlet
    {
        type            calculated;
        value           uniform (0 0 0);
    }
    outlet
    {
        type            calculated;
        value           uniform (0 0 0);
    }
    upperWall
    {
        type            calculated;
        value           nonuniform List<vector> 
223
(
(-0.582193 -0.392359 0)
(-0.977814 -0.219377 0)
(-0.939336 -0.0567747 0)
(-0.81071 -0.00585779 0)
(-0.734594 0.00331371 0)
(-0.695452 0.00231544 0)
(-0.670941 0.000424233 0)
(-0.653508 -0.0014488 0)
(-0.640532 -0.00256252 0)
(-0.629821 -0.00218351 0)
(-0.620058 -0.00130529 0)
(-0.610993 -0.00107838 0)
(-0.603033 -0.0013885 0)
(-0.596184 -0.00127385 0)
(-0.590434 -0.00106049 0)
(-0.585075 -0.000334629 0)
(-0.579787 0.00168716 0)
(-0.575194 0.00141471 0)
(-0.571309 0.00162526 0)
(-0.567716 0.00312829 4.27758e-22)
(-0.564342 0.00251106 0)
(-0.561642 0.00175057 0)
(-0.558902 0.0030363 0)
(-0.555755 0.00321356 4.48359e-22)
(-0.552843 0.00331365 0)
(-0.54995 0.00393377 0)
(-0.546937 0.00376721 0)
(-0.544106 0.00348254 -9.38186e-22)
(-0.541328 0.00298065 9.46094e-22)
(-0.538633 0.0025663 9.5654e-22)
(-0.535953 0.00245936 0)
(-0.533232 0.00218855 -9.7853e-22)
(-0.530575 0.00194062 0)
(-0.527935 0.00174267 1.00154e-21)
(-0.525292 0.0015738 1.01362e-21)
(-0.52264 0.00144504 -1.02617e-21)
(-0.519969 0.00134108 0)
(-0.517284 0.00125817 0)
(-0.514579 0.00119389 0)
(-0.51185 0.0011446 0)
(-0.509095 0.00110713 -1.09099e-21)
(-0.506311 0.00107923 0)
(-0.503494 0.00105928 0)
(-0.500643 0.0010458 1.13117e-21)
(-0.497753 0.00103777 0)
(-0.494823 0.00103444 1.15767e-21)
(-0.491847 0.00103491 -1.17066e-21)
(-0.488824 0.00103853 1.18341e-21)
(-0.485748 0.00104491 0)
(-0.482619 0.00105275 0)
(-0.479436 0.00106135 0)
(-0.476199 0.00106965 1.23092e-21)
(-0.472914 0.00107627 -1.24159e-21)
(-0.469594 0.00108157 0)
(-0.466252 0.00108662 0)
(-0.462905 0.00109188 0)
(-0.459561 0.00109644 0)
(-0.456227 0.0010991 0)
(-0.452904 0.00109926 0)
(-0.449586 0.00109684 0)
(-0.446268 0.00109257 0)
(-0.442936 0.00108745 1.29208e-21)
(-0.439582 0.00108261 -1.29186e-21)
(-0.436194 0.00107901 0)
(-0.43276 0.00107714 0)
(-0.42927 0.00107731 0)
(-0.425716 0.00107958 -1.27848e-21)
(-0.422088 0.00108376 0)
(-0.41838 0.00108956 0)
(-0.414587 0.00109675 0)
(-0.410704 0.00110483 0)
(-0.406728 0.00111332 0)
(-0.402655 0.00112179 -2.43461e-21)
(-0.398487 0.00112963 0)
(-0.394224 0.00113632 0)
(-0.389868 0.00114135 0)
(-0.385427 0.00114451 0)
(-0.380908 0.00114568 0)
(-0.376322 0.00114471 0)
(-0.371683 0.00114141 0)
(-0.367002 0.00113542 2.09557e-21)
(-0.362288 0.00112657 0)
(-0.357551 0.00111503 0)
(-0.352795 0.00110112 0)
(-0.348022 0.00108526 -1.83992e-21)
(-0.343232 0.00106811 0)
(-0.338423 0.00105031 -1.69049e-21)
(-0.333591 0.0010324 0)
(-0.328732 0.00101531 0)
(-0.323837 0.000999787 0)
(-0.319025 0.000992001 -1.35129e-21)
(-0.316384 0.00100115 0)
(-0.31366 0.001015 1.18082e-21)
(-0.310855 0.00102968 1.09013e-21)
(-0.307975 0.00104285 0)
(-0.305031 0.00105379 8.96446e-22)
(-0.302033 0.00106246 0)
(-0.298997 0.00107001 0)
(-0.295936 0.00107661 0)
(-0.292863 0.00108541 -4.55025e-22)
(-0.289796 0.00109161 0)
(-0.286741 0.00110644 -2.05674e-22)
(-0.28372 0.00110918 7.3647e-23)
(-0.280731 0.00110846 0)
(-0.277802 0.00111784 0)
(-0.274925 0.00110823 0)
(-0.272119 0.00109639 0)
(-0.269393 0.00107727 0)
(-0.266713 0.00119613 0)
(-0.264168 0.00119099 0)
(-0.261647 0.000862347 1.14949e-21)
(-0.259169 0.000742105 0)
(-0.256834 0.000995561 0)
(-0.254645 0.00104856 0)
(-0.252352 0.0010016 0)
(-0.250274 0.000896113 0)
(-0.248127 0.00127749 0)
(-0.246408 0.00135647 0)
(-0.244486 0.00112454 0)
(-0.24283 0.00116196 0)
(-0.241192 0.000552401 0)
(-0.239329 0.000744197 0)
(-0.237758 0.00116586 0)
(-0.236214 0.0010317 7.11687e-21)
(-0.234478 0.00093044 0)
(-0.232976 0.000782802 0)
(-0.231284 0.000697339 0)
(-0.229687 0.000799504 -8.75849e-21)
(-0.228266 0.000275293 0)
(-0.22635 -0.000317781 0)
(-0.224338 -0.000104882 -1.01526e-20)
(-0.222933 8.37901e-05 0)
(-0.221594 0.000221484 1.0927e-20)
(-0.220271 0.000327711 0)
(-0.218883 0.000480457 0)
(-0.217592 0.000547401 0)
(-0.216336 0.000414078 -1.26016e-20)
(-0.21518 0.000865111 0)
(-0.214005 0.00112631 1.33894e-20)
(-0.213059 0.000650143 0)
(-0.211752 0.00067025 0)
(-0.211065 0.000586097 0)
(-0.210267 0.00059253 0)
(-0.209196 0.000800068 0)
(-0.208523 0.000352844 0)
(-0.207545 0.000332249 0)
(-0.206795 0.0006148 0)
(-0.206083 4.61827e-05 0)
(-0.204748 -0.000442615 0)
(-0.20358 -0.000182373 0)
(-0.202861 2.06776e-05 1.85235e-20)
(-0.202207 8.28216e-05 -1.89208e-20)
(-0.201587 0.000120584 0)
(-0.200924 0.000148829 0)
(-0.200396 0.000230428 0)
(-0.199666 0.000212915 0)
(-0.19927 0.000180712 -2.08868e-20)
(-0.198567 0.000271866 2.13826e-20)
(-0.198121 0.000294203 -2.17353e-20)
(-0.197452 0.000302958 0)
(-0.196775 0.000254356 -2.26198e-20)
(-0.196704 0.000240193 -4.57513e-20)
(-0.196028 0.000286278 0)
(-0.195343 0.000330872 -4.76775e-20)
(-0.195091 0.000297447 4.83288e-20)
(-0.194884 0.000296786 0)
(-0.194596 0.000713441 0)
(-0.194157 0.000843399 0)
(-0.19363 0.000672109 0)
(-0.193547 0.000645123 0)
(-0.193418 7.39477e-05 -5.30852e-20)
(-0.192381 -0.000328969 0)
(-0.191574 -0.000164305 -5.55273e-20)
(-0.191409 -2.86168e-06 0)
(-0.190328 9.68925e-05 0)
(-0.190053 0.000164744 0)
(-0.18939 0.000140046 0)
(-0.18931 0.000127157 0)
(-0.188947 0.000295856 6.07402e-20)
(-0.187817 0.000364758 0)
(-0.187328 0.00039335 0)
(-0.186595 0.000600886 -6.39012e-20)
(-0.185997 0.000748193 0)
(-0.185264 0.000675829 0)
(-0.184835 0.000268256 0)
(-0.183232 9.90507e-05 6.92774e-20)
(-0.182003 0.000170939 0)
(-0.180466 0.000152029 0)
(-0.178809 0.000329519 0)
(-0.177008 0.000431697 0)
(-0.174948 0.000519536 -7.73447e-20)
(-0.172619 0.000758646 0)
(-0.169887 0.00104733 0)
(-0.166841 0.00114108 0)
(-0.162224 0.0012174 8.80539e-20)
(-0.155663 0.00142893 0)
(-0.149135 0.00227462 0)
(-0.124265 0.00222515 -1.07548e-19)
(-0.141816 0.00669728 6.01853e-36)
(-0.169734 0.0132062 1.25431e-17)
(-0.187093 0.0170627 2.35588e-17)
(-0.193398 0.0188727 2.27018e-17)
(-0.196824 0.0196806 2.20035e-17)
(-0.201005 0.0203092 2.11456e-17)
(-0.205473 0.0210109 -2.02229e-17)
(-0.209673 0.0215202 -1.95169e-17)
(-0.213839 0.0218713 0)
(-0.218054 0.0220154 -3.66544e-17)
(-0.22019 0.0221785 -1.80745e-17)
(-0.224662 0.0227184 6.86113e-34)
(-0.227493 0.0229026 0)
(-0.231043 0.0233629 -3.22788e-17)
(-0.235335 0.0239355 -3.06855e-17)
(-0.242338 0.0247796 -2.84657e-17)
(-0.24952 0.0254453 0)
(-0.256864 0.0260687 4.94038e-17)
(-0.263915 0.0266484 2.26461e-17)
(-0.272757 0.027447 1.20371e-35)
(-0.282662 0.0283579 -3.48618e-17)
(-0.29122 0.0289999 -1.58058e-20)
(-0.300886 0.0295782 -3.00927e-36)
(-0.304441 0.0304171 1.34852e-17)
(-0.332565 0.0321499 -7.62891e-18)
)
;
    }
    lowerWall
    {
        type            calculated;
        value           nonuniform List<vector> 
250
(
(-0.653909 0.466638 0)
(-1.14095 0.204678 0)
(-1.03492 0.0379587 0)
(-0.869573 -0.000935979 0)
(-0.786941 -0.00419161 0)
(-0.746063 -0.00160781 0)
(-0.719878 0.00041618 0)
(-0.700645 -0.000651799 0)
(-0.685088 -0.00405595 0)
(-0.671318 -0.00471224 0)
(-0.658932 -0.00298825 0)
(-0.64772 -0.000864294 0)
(-0.637516 0.001426 0)
(-0.628189 0.00210382 0)
(-0.61932 0.00136788 0)
(-0.611521 0.00135744 0)
(-0.60458 0.00169578 0)
(-0.605068 0.00194301 0)
(-0.00426046 -0.0228581 0)
(-0.00275889 -0.0176426 0)
(-0.000676908 -0.0144933 0)
(0.00194467 -0.0137778 9.02255e-20)
(0.00526916 -0.0151983 -7.86187e-20)
(0.008962 -0.0208213 6.28494e-20)
(0.0127406 -0.0200869 -4.8474e-20)
(0.0256277 -0.0633157 0)
(-0.0840661 -0.144715 0)
(0.000872418 -0.00384043 0)
(-0.00766539 0.00954708 0)
(-0.00851601 0.0328218 0)
(-0.00254931 0.0448554 0)
(0.00295345 0.0442615 1.82223e-20)
(0.0061828 0.0360629 -1.89658e-20)
(0.00818728 0.0241608 0)
(0.00946056 0.0101603 -5.42292e-20)
(0.00943168 -0.00404282 6.11432e-20)
(0.00793324 -0.0174229 0)
(0.00614117 -0.0291954 0)
(0.00438167 -0.0385629 0)
(0.00268716 -0.0451402 0)
(0.000985951 -0.0488801 0)
(-0.000885202 -0.0495149 0)
(-0.00282057 -0.0464088 0)
(-0.00437908 -0.0399029 0)
(-0.00492622 -0.0308271 0)
(0.00132868 -0.00151204 0)
(0.00133794 0.00652733 0)
(-0.00450929 0.0096187 0)
(-0.00959726 0.00975653 0)
(-0.0133832 0.00829952 0)
(-0.0158894 0.00623522 0)
(-0.0172644 0.00409761 1.49574e-21)
(-0.017783 0.00200609 -1.52735e-21)
(-0.0173315 -7.03016e-06 0)
(-0.0160539 -0.00168629 -1.65309e-21)
(-0.0141885 -0.00283758 0)
(-0.0120505 -0.00329646 0)
(-0.0100507 -0.00303588 -0)
(-0.00855314 -0.00228028 2.5703e-21)
(-0.00761647 -0.00142306 0)
(-0.00693817 -0.000815864 0)
(-0.00612064 -0.000623437 -3.37821e-21)
(-0.004993 -0.00100047 0)
(-0.00340859 -0.00238594 0)
(-0.000488671 -0.0050576 0)
(0.00436074 -0.00740368 3.0331e-21)
(0.00994572 -0.00889518 0)
(0.0158468 -0.00984997 1.46915e-21)
(0.0218921 -0.0106169 0)
(0.0280979 -0.011269 -0)
(0.0344083 -0.0115144 8.44706e-22)
(0.0405409 -0.0113547 0)
(0.0491488 -0.0116033 -7.54049e-22)
(0.0589389 -0.0117553 -0)
(0.0686331 -0.0115827 7.70712e-22)
(0.078042 -0.0111689 0)
(0.087015 -0.0105841 0)
(0.0954593 -0.00989006 0)
(0.103317 -0.00913658 -0)
(0.110564 -0.00836068 0)
(0.117197 -0.00758951 -8.11164e-22)
(0.12323 -0.00684033 -0)
(0.128686 -0.00612264 1.63311e-21)
(0.133591 -0.00544045 0)
(0.137973 -0.00479414 -1.63498e-21)
(0.141859 -0.004182 -0)
(0.145271 -0.00360139 -0)
(0.148232 -0.00304955 1.62107e-21)
(0.150758 -0.00252408 0)
(0.152863 -0.00202409 1.60086e-21)
(0.154561 -0.00155035 -1.58754e-21)
(0.155863 -0.00110624 -0)
(0.156782 -0.000698802 -1.55493e-21)
(0.157328 -0.000337859 -1.53589e-21)
(0.157514 -3.98275e-05 -0)
(0.157408 0.000194796 0)
(0.157076 0.000391586 0)
(0.156522 0.000568228 0)
(0.155761 0.000731066 -0)
(0.1548 0.00088419 1.37583e-21)
(0.153648 0.00102831 0)
(0.152312 0.00116407 -1.30705e-21)
(0.150799 0.00129166 -0)
(0.149116 0.00141125 -0)
(0.147271 0.00152287 1.1906e-21)
(0.145272 0.00162641 0)
(0.143126 0.00172191 -1.1049e-21)
(0.140842 0.00180934 -0)
(0.138429 0.00188862 0)
(0.135895 0.00195983 -0)
(0.133249 0.00202311 9.16875e-22)
(0.130501 0.00207846 0)
(0.127659 0.002126 -0)
(0.124733 0.00216594 7.63833e-22)
(0.121732 0.00219842 0)
(0.118665 0.00222361 6.57301e-22)
(0.115541 0.00224181 0)
(0.11237 0.00225326 0)
(0.10916 0.00225824 0)
(0.105919 0.00225698 -4.36224e-22)
(0.102656 0.00224987 -0)
(0.0993796 0.00223715 0)
(0.0960971 0.00221914 -2.65623e-22)
(0.0928159 0.00219628 -2.08173e-22)
(0.0895429 0.00216884 -0)
(0.0862853 0.00213712 -9.27063e-23)
(0.0830494 0.00210153 -0)
(0.0798411 0.00206254 4.64983e-23)
(0.0766658 0.00202042 -0)
(0.073529 0.00197563 2.78915e-22)
(0.070435 0.00192871 0)
(0.0673882 0.00188012 -5.11593e-22)
(0.0643926 0.00183074 -0)
(0.0614509 0.00178158 0)
(0.0585662 0.00173379 -0)
(0.0557405 0.00168922 9.78357e-22)
(0.0529745 0.00164989 0)
(0.0502693 0.00161805 -1.21379e-21)
(0.0476231 0.00159481 0)
(0.0457845 0.00160343 1.47555e-21)
(0.0442421 0.00162099 1.63405e-21)
(0.0427031 0.00162591 1.79897e-21)
(0.0411757 0.00161302 0)
(0.0396653 0.0015897 0)
(0.0381716 0.001564 0)
(0.0366933 0.00153816 0)
(0.0352306 0.00151247 0)
(0.0337833 0.00148687 0)
(0.0323525 0.00146138 0)
(0.0309383 0.00143615 0)
(0.0295414 0.00141133 -3.69171e-21)
(0.028162 0.00138713 -3.96735e-21)
(0.0268003 0.00136369 0)
(0.0254565 0.00134071 0)
(0.024131 0.00131664 0)
(0.0228253 0.00129176 -5.26726e-21)
(0.021539 0.00126755 0)
(0.0202724 0.00124388 0)
(0.0190254 0.00122082 0)
(0.017798 0.00119838 0)
(0.0165904 0.00117665 7.53583e-21)
(0.0154025 0.0011557 0)
(0.0142344 0.00113561 0)
(0.0130858 0.00111649 -9.45463e-21)
(0.0119568 0.00109838 1.02322e-20)
(0.0108472 0.00108137 0)
(0.00975705 0.00106574 1.20685e-20)
(0.00868624 0.00105215 0)
(0.00763437 0.00104178 -1.44068e-20)
(0.0066008 0.00103489 0)
(0.00558518 0.00103049 0)
(0.00458748 0.00102827 0)
(0.00360722 0.00102857 0)
(0.00264401 0.0010316 0)
(0.00169829 0.00103733 5.57092e-20)
(0.000771548 0.00104292 6.42193e-20)
(-0.000138244 0.00103021 0)
(-0.00103552 0.000987396 0)
(-0.00191733 0.000935012 0)
(-0.00278364 0.000885528 -5.28895e-20)
(-0.00363435 0.000840611 0)
(-0.00446924 0.000799866 0)
(-0.00528873 0.000762806 0)
(-0.00609336 0.000728931 -4.04159e-20)
(-0.0068837 0.000697791 3.83659e-20)
(-0.00766028 0.000669001 0)
(-0.00842355 0.000642251 0)
(-0.00917394 0.000617305 3.36182e-20)
(-0.00991191 0.000593957 3.2378e-20)
(-0.0106379 0.000572051 0)
(-0.0113522 0.000551449 0)
(-0.0120554 0.000532038 -2.93528e-20)
(-0.0127479 0.000513718 2.8525e-20)
(-0.0134301 0.000496415 0)
(-0.0141024 0.000480055 0)
(-0.0147652 0.000464579 2.64355e-20)
(-0.0154191 0.000449926 0)
(-0.0160644 0.000436055 0)
(-0.0167016 0.000422927 2.47902e-20)
(-0.0173311 0.000410496 0)
(-0.0179534 0.000398738 2.38743e-20)
(-0.0185691 0.000387616 0)
(-0.0191784 0.000377101 0)
(-0.019782 0.000367162 0)
(-0.0203802 0.000357779 -2.23587e-20)
(-0.0209736 0.000348897 0)
(-0.0215625 0.000340469 0)
(-0.0221471 0.000332475 0)
(-0.022728 0.000324846 0)
(-0.0233054 0.000317468 0)
(-0.023879 0.000310259 0)
(-0.0244491 0.000303097 -2.03855e-20)
(-0.0250153 0.000295718 -2.01552e-20)
(-0.0255763 0.000287862 0)
(-0.026131 0.000279214 0)
(-0.0266774 0.000269181 0)
(-0.0272116 0.000257031 1.93605e-20)
(-0.0277289 0.000241557 0)
(-0.0282207 0.000221318 -3.81348e-20)
(-0.0286776 0.000192284 3.79286e-20)
(-0.0290708 0.000152646 3.78195e-20)
(-0.0294018 7.79001e-05 -3.78583e-20)
(-0.0294835 -3.9354e-05 3.80454e-20)
(-0.0295082 -0.000356521 -3.83976e-20)
(-0.0279736 -0.000616858 0)
(-0.0293462 -0.000516203 -2.43317e-18)
(-0.0327697 -0.00134236 -2.26976e-18)
(-0.0364135 -0.00203335 0)
(-0.0395341 -0.00257607 -4.06089e-18)
(-0.042484 -0.0030186 -7.75787e-18)
(-0.0455565 -0.00342167 -3.71958e-18)
(-0.0487793 -0.00381923 3.56824e-18)
(-0.0521155 -0.00429913 0)
(-0.0555946 -0.00474642 3.00927e-36)
(-0.0593038 -0.00507081 3.14603e-18)
(-0.0632283 -0.00541038 3.03197e-18)
(-0.0674206 -0.00580975 3.00927e-36)
(-0.0719033 -0.00625027 0)
(-0.076719 -0.00671161 0)
(-0.0819137 -0.007207 -1.81167e-34)
(-0.0875351 -0.00774826 4.14244e-35)
(-0.0936542 -0.00834787 5.11575e-35)
(-0.100325 -0.00901068 -4.15798e-18)
(-0.107689 -0.0097311 -3.8122e-18)
(-0.116748 -0.0106238 1.20371e-35)
(-0.127565 -0.0116271 6.1365e-18)
(-0.13842 -0.0127338 1.03488e-17)
(-0.153646 -0.013927 1.20371e-35)
(-0.162846 -0.0152939 -5.09777e-18)
(-0.191961 -0.0169817 1.80556e-35)
)
;
    }
    frontAndBack
    {
        type            empty;
    }
}


// ************************************************************************* //
