/*--------------------------------*- C++ -*----------------------------------*\
  =========                 |
  \\      /  F ield         | OpenFOAM: The Open Source CFD Toolbox
   \\    /   O peration     | Website:  https://openfoam.org
    \\  /    A nd           | Version:  8
     \\/     M anipulation  |
\*---------------------------------------------------------------------------*/
FoamFile
{
    version     2.0;
    format      ascii;
    class       volScalarField;
    location    "300";
    object      nuTilda;
}
// * * * * * * * * * * * * * * * * * * * * * * * * * * * * * * * * * * * * * //

dimensions      [0 2 -1 0 0 0 0];

internalField   nonuniform List<scalar> 
12225
(
0.0122671
0.00158833
0.000666932
0.000412201
0.000298003
0.000234404
0.000192184
0.000185522
0.000141668
0.000110705
9.74366e-05
9.00104e-05
8.22375e-05
7.65774e-05
7.19412e-05
6.91531e-05
6.83158e-05
7.30012e-05
0.0323823
0.00744533
0.00330642
0.00204338
0.00146817
0.00114481
0.000936454
0.000800324
0.000681793
0.000580529
0.000508269
0.000454901
0.000413852
0.000383192
0.000354227
0.000330995
0.000315081
0.000295647
0.0490123
0.01515
0.00728196
0.00457856
0.00330642
0.00258064
0.00211199
0.0017898
0.00154375
0.00134929
0.00119841
0.0010792
0.000982753
0.000904155
0.000837046
0.000781559
0.000736649
0.000687164
0.063054
0.0237783
0.0122894
0.00788815
0.00573398
0.00448503
0.00367389
0.00310798
0.0026858
0.00235833
0.00210045
0.00189358
0.0017244
0.00158411
0.00146556
0.00136551
0.00128132
0.00119733
0.074932
0.0328517
0.0181452
0.0119262
0.00874549
0.00686414
0.00563071
0.00476297
0.00411794
0.00362003
0.00322636
0.00290867
0.00264777
0.00243046
0.00224703
0.00209106
0.00195771
0.0018357
0.0849536
0.0420208
0.0246655
0.0166359
0.0123325
0.00972588
0.00799536
0.00676807
0.0058536
0.00514738
0.0045877
0.00413494
0.00376241
0.00345158
0.00318907
0.00296532
0.00277313
0.00260433
0.0933822
0.0510219
0.0316642
0.0219415
0.016474
0.0130717
0.0107778
0.00913561
0.00790573
0.00695319
0.00619648
0.00558315
0.00507785
0.00465585
0.00429934
0.00399526
0.00373389
0.00350801
0.0993794
0.0583363
0.0378386
0.0268568
0.0204171
0.0163053
0.0134892
0.011453
0.00991891
0.00872618
0.00777614
0.00700472
0.00636841
0.00583663
0.00538721
0.00500383
0.00467442
0.00439122
0.104023
0.0645454
0.0433804
0.0314239
0.0241571
0.0194092
0.0161097
0.0137018
0.0118766
0.010452
0.00931434
0.00838893
0.00762475
0.00698565
0.00644537
0.00598444
0.00558856
0.00524878
0.108368
0.0708939
0.0493756
0.0365496
0.0284517
0.0230231
0.0191863
0.0163548
0.0141926
0.0124968
0.011138
0.0100303
0.0091143
0.00834757
0.00769909
0.00714579
0.0066707
0.00626301
0.112368
0.0772557
0.0557282
0.0421918
0.0332976
0.0271652
0.0227468
0.0194432
0.0168984
0.0148903
0.0132749
0.0119544
0.0108605
0.00994379
0.00916797
0.00850588
0.00793739
0.00744918
0.115994
0.0834975
0.0623053
0.0482611
0.0386474
0.0318167
0.026789
0.0229739
0.0200046
0.0176452
0.0157378
0.0141736
0.0128749
0.011785
0.0108618
0.0100736
0.00939673
0.00881467
0.119234
0.0894856
0.0689377
0.0546109
0.0443919
0.0369007
0.0312597
0.0269088
0.0234836
0.02074
0.0185096
0.0166735
0.0151449
0.01386
0.0127704
0.0118396
0.0110397
0.0103509
0.122086
0.095084
0.075415
0.0610223
0.0503361
0.0422534
0.0360231
0.0311353
0.0272402
0.024093
0.021519
0.0193909
0.017614
0.0161174
0.0148466
0.0137601
0.0128257
0.0120196
0.124546
0.100135
0.0814619
0.0671725
0.056158
0.047577
0.0408126
0.0354174
0.031066
0.0275196
0.0246012
0.0221777
0.0201481
0.0184349
0.0169782
0.0157314
0.0146583
0.0137312
0.126578
0.104396
0.0866605
0.0725515
0.0613228
0.0523526
0.0451453
0.0393148
0.0345631
0.0306611
0.0274325
0.0247409
0.0224806
0.020569
0.0189413
0.0175468
0.0163454
0.0153061
0.128011
0.107322
0.0902141
0.0762353
0.0648743
0.0556509
0.0481493
0.0420254
0.0370012
0.0328553
0.0294126
0.0265352
0.0241143
0.0220643
0.0203172
0.0188191
0.0175275
0.0164083
0.128006
0.107313
0.0902048
0.0762269
0.0648674
0.0556454
0.048145
0.0420222
0.0369988
0.0328537
0.0294117
0.0265349
0.0241147
0.0220652
0.0203184
0.0188206
0.0175286
0.0164082
0.126509
0.104255
0.0864922
0.0723807
0.0611613
0.052205
0.0450128
0.0391967
0.0344584
0.0305686
0.0273506
0.0246684
0.0224163
0.0205118
0.0188903
0.0175006
0.0163023
0.0152631
0.124267
0.0995604
0.0807712
0.0664676
0.0554886
0.0469631
0.0402594
0.0349228
0.0306248
0.0271258
0.0242488
0.0218611
0.0198626
0.0181762
0.0167426
0.0155152
0.0144575
0.0135405
0.12136
0.0936399
0.0737261
0.0593348
0.0487592
0.0408249
0.0347467
0.0300003
0.0262308
0.0231928
0.0207127
0.018665
0.0169572
0.0155198
0.0142999
0.0132567
0.0123583
0.0115798
0.117686
0.0865903
0.0656967
0.0514791
0.0415374
0.0343608
0.0290184
0.0249322
0.0217349
0.0191849
0.0171185
0.0154212
0.0140106
0.0128263
0.0118229
0.0109656
0.0102279
0.00958893
0.11305
0.0784122
0.056921
0.0432687
0.0342296
0.0279652
0.0234365
0.0200435
0.0174264
0.0153599
0.0136968
0.0123371
0.0112108
0.0102672
0.00946873
0.00878723
0.00820103
0.00769345
0.107169
0.0691009
0.0476372
0.035029
0.0271566
0.021922
0.0182437
0.0155402
0.0134819
0.0118709
0.0105821
0.00953265
0.00866548
0.00794015
0.00732707
0.00680407
0.00635431
0.00596502
0.0996761
0.0587036
0.0381279
0.0270699
0.0205782
0.0164329
0.0135949
0.0115438
0.00999942
0.00879982
0.0078448
0.0070693
0.00642964
0.0058951
0.00544357
0.00505847
0.00472721
0.00444061
0.0901097
0.0473665
0.0287363
0.0196847
0.0146976
0.0116311
0.00957851
0.00811522
0.00702353
0.00618128
0.00551343
0.00497178
0.00452523
0.00415192
0.0038367
0.00356773
0.003336
0.00313555
0.0779076
0.0353826
0.0198606
0.0131383
0.00966107
0.00759297
0.0062335
0.00527412
0.00456412
0.00402104
0.00359212
0.00324331
0.00295528
0.00271335
0.00250949
0.00233497
0.0021836
0.00205274
0.06238
0.0232554
0.0119461
0.00765494
0.00556338
0.00435256
0.00356724
0.00301611
0.002613
0.00231111
0.00207409
0.00187774
0.00171458
0.00157488
0.00145824
0.00135693
0.00126691
0.0011893
0.0426105
0.0117794
0.00546931
0.00341388
0.00246077
0.00192014
0.00157291
0.00132872
0.00115906
0.001042
0.000951036
0.000867288
0.00079538
0.000731232
0.000671536
0.000626549
0.000582694
0.000543325
0.0168348
0.0025599
0.00110031
0.000684193
0.000495182
0.000389147
0.000321686
0.000270713
0.000278056
0.000339603
0.000376228
0.000355923
0.000320449
0.000295395
0.000245096
0.000284195
0.000271835
0.000229666
3.81665e-06
1.35781e-05
2.56067e-05
3.8317e-05
4.61389e-05
5.00012e-05
5.04487e-05
4.79604e-05
4.4778e-05
3.96229e-05
3.42695e-05
2.95319e-05
2.69025e-05
2.74637e-05
2.97655e-05
3.15129e-05
3.13452e-05
2.84956e-05
2.31229e-05
1.86401e-05
2.19154e-05
3.50172e-05
3.94933e-05
6.52667e-05
8.78971e-05
0.000101234
0.000113914
0.000124881
0.00013481
0.000143281
0.000150837
0.000157429
0.000163266
0.000168397
0.000172912
0.000176923
0.000180498
0.000183706
0.000186594
0.000189198
0.00019154
0.000193639
0.000195509
0.000197165
0.000198617
0.000199878
0.000200956
0.000201856
0.00020258
0.00020303
0.000203445
0.000203552
0.000203596
0.000203456
0.00020317
0.00020274
0.00020217
0.000201461
0.000200616
0.000199638
0.000198527
0.000197288
0.000195921
0.000194431
0.000192821
0.000191093
0.000189246
0.000187288
0.000185219
0.000183044
0.000180766
0.000178386
0.000175908
0.000173335
0.000170669
0.000167913
0.000165069
0.000162138
0.000159122
0.000156022
0.000152838
0.00014957
0.000146217
0.000142777
0.000139246
0.00013562
0.000131891
0.000128052
0.00012409
0.000119989
0.000115734
0.00011131
0.000106723
0.000102052
9.75531e-05
9.37832e-05
9.12388e-05
8.96315e-05
8.83562e-05
8.71582e-05
8.59748e-05
8.47953e-05
8.36191e-05
8.24467e-05
8.12791e-05
8.01173e-05
7.89628e-05
7.78213e-05
7.67223e-05
7.58006e-05
7.48649e-05
7.39395e-05
7.3022e-05
7.21128e-05
7.12124e-05
7.03212e-05
6.94394e-05
6.85675e-05
6.77056e-05
6.68539e-05
6.60126e-05
6.51818e-05
6.43621e-05
6.35538e-05
6.27566e-05
6.19705e-05
6.11974e-05
6.04827e-05
5.98078e-05
5.91416e-05
5.84788e-05
5.78343e-05
5.72065e-05
5.65793e-05
5.59587e-05
5.53465e-05
5.47437e-05
5.41505e-05
5.35669e-05
5.29928e-05
5.24281e-05
5.18726e-05
5.13261e-05
5.07885e-05
5.02598e-05
4.97397e-05
4.92282e-05
4.87252e-05
4.82307e-05
4.77444e-05
4.72664e-05
4.67967e-05
4.6335e-05
4.58815e-05
4.54361e-05
4.49989e-05
4.45699e-05
4.41492e-05
4.3737e-05
4.33333e-05
4.29384e-05
4.25525e-05
4.21758e-05
4.18085e-05
4.1451e-05
4.11032e-05
4.07652e-05
4.04369e-05
4.01176e-05
3.98067e-05
3.95027e-05
3.92039e-05
3.89073e-05
3.861e-05
3.83011e-05
3.79898e-05
3.7591e-05
3.72341e-05
3.63718e-05
3.4791e-05
5.9758e-06
3.8447e-05
9.12915e-05
0.000152152
0.000191449
0.000213964
0.000223112
0.000221836
0.000213816
0.00019821
0.000179132
0.000161217
0.000152338
0.000156995
0.000169174
0.000176799
0.00017883
0.000179593
0.0001845
0.00019367
0.000208054
0.000223697
0.000242204
0.000256441
0.000267713
0.000277104
0.000285775
0.000298753
0.000317166
0.000330804
0.000343249
0.000353965
0.000363732
0.000372657
0.000380434
0.000387543
0.000394176
0.00040055
0.000406792
0.000412964
0.000419058
0.00042503
0.000430827
0.000436408
0.000441746
0.000446824
0.000451625
0.000456139
0.000460366
0.000464313
0.000467999
0.000471418
0.000474584
0.000477499
0.000480163
0.000482577
0.000484743
0.000486661
0.000488332
0.000489755
0.000490932
0.000491864
0.000492553
0.000493005
0.000493226
0.000493234
0.00049299
0.000492529
0.000491849
0.000490957
0.00048986
0.000488563
0.000487073
0.000485398
0.000483544
0.00048152
0.000479332
0.000476988
0.000474497
0.000471865
0.000469101
0.000466213
0.000463208
0.000460096
0.000456885
0.000453582
0.000450196
0.000446735
0.000443208
0.000439621
0.000435981
0.000432291
0.000428552
0.000424753
0.000420872
0.000416885
0.000412784
0.000408607
0.0004044
0.000400183
0.000395961
0.000391738
0.000387518
0.000383303
0.000379097
0.000374904
0.000370726
0.000366565
0.000362421
0.000358291
0.000354189
0.000350117
0.000346076
0.00034207
0.000338098
0.000334164
0.000330268
0.000326412
0.000322598
0.000318825
0.000315095
0.000311409
0.000307767
0.000304172
0.000300624
0.000297122
0.000293665
0.000290253
0.000286884
0.000283563
0.000280285
0.000277065
0.000273897
0.000270761
0.000267665
0.000264614
0.000261608
0.000258649
0.000255737
0.000252871
0.00025005
0.000247274
0.000244542
0.000241854
0.000239209
0.000236606
0.000234045
0.000231526
0.000229047
0.00022661
0.000224212
0.000221855
0.000219537
0.000217258
0.00021502
0.000212821
0.000210662
0.000208543
0.000206466
0.000204431
0.000202439
0.000200491
0.00019859
0.000196735
0.00019493
0.000193175
0.000191471
0.000189818
0.000188216
0.000186662
0.000185153
0.000183686
0.00018225
0.000180852
0.000179423
0.000178127
0.000176408
0.000175607
0.000173167
0.000171599
1.28692e-05
7.52209e-05
0.000175588
0.000252305
0.00030368
0.000333188
0.000343896
0.000340945
0.000328167
0.000309187
0.000289891
0.000277686
0.000275643
0.000282232
0.000292343
0.000302986
0.000315658
0.000332435
0.000353776
0.000378901
0.000406109
0.000434111
0.000473686
0.000519542
0.000565071
0.000609082
0.000652137
0.000695806
0.000734769
0.000765759
0.000790525
0.000810164
0.000825734
0.000838091
0.000848016
0.00085628
0.000863583
0.000870566
0.000877765
0.000885527
0.000893951
0.000902906
0.000912148
0.00092144
0.000930606
0.000939529
0.000948133
0.00095637
0.000964205
0.000971611
0.000978559
0.000985029
0.000991011
0.000996502
0.0010015
0.001006
0.00101001
0.00101352
0.00101653
0.00101905
0.00102107
0.0010226
0.00102362
0.00102412
0.00102423
0.00102388
0.00102303
0.00102172
0.00101997
0.00101778
0.00101518
0.00101217
0.00100876
0.00100498
0.00100083
0.000996328
0.000991494
0.00098634
0.000980881
0.000975134
0.000969112
0.000962832
0.00095631
0.000949559
0.000942597
0.000935437
0.000928095
0.000920585
0.00091292
0.000905114
0.000897177
0.000889121
0.000880955
0.000872689
0.000864329
0.000855888
0.00084738
0.00083882
0.000830225
0.000821607
0.000812977
0.000804343
0.000795712
0.000787092
0.00077849
0.000769913
0.000761367
0.000752858
0.000744392
0.000735973
0.000727608
0.000719301
0.000711057
0.000702879
0.000694772
0.000686738
0.000678781
0.000670902
0.000663105
0.000655392
0.000647764
0.000640224
0.000632772
0.000625411
0.000618143
0.000610966
0.000603881
0.000596889
0.00058999
0.000583186
0.000576476
0.000569862
0.000563339
0.0005569
0.000550549
0.000544286
0.000538115
0.000532034
0.000526045
0.000520145
0.000514335
0.000508614
0.000502979
0.000497431
0.000491968
0.000486589
0.000481292
0.000476077
0.000470943
0.000465889
0.000460912
0.000456013
0.00045119
0.000446443
0.000441769
0.000437169
0.000432641
0.000428183
0.000423796
0.000419477
0.000415225
0.000411038
0.000406916
0.000402855
0.000398854
0.000394908
0.000391014
0.000387167
0.000383361
0.000379586
0.00037583
0.00037208
0.000368311
0.000364503
0.000360587
0.000356584
0.000352171
0.000347819
0.00034147
0.000329762
2.17767e-05
0.000106652
0.000220678
0.000313218
0.00037568
0.000412388
0.000427537
0.000427723
0.000417647
0.000404339
0.000396427
0.000395752
0.000405116
0.00042236
0.00044512
0.000472901
0.000506289
0.000545567
0.00058994
0.000653981
0.000728171
0.000808233
0.000892021
0.00096221
0.00102437
0.00108028
0.0011305
0.00117522
0.0012143
0.00124803
0.00127715
0.00130239
0.00132444
0.00134394
0.00136146
0.00137747
0.00139241
0.00140659
0.00142028
0.00143366
0.00144686
0.00145994
0.00147293
0.00148582
0.00149854
0.00151101
0.00152315
0.00153486
0.00154604
0.00155662
0.00156656
0.0015758
0.00158435
0.00159217
0.00159926
0.00160562
0.00161124
0.00161612
0.00162026
0.00162365
0.00162629
0.00162818
0.00162924
0.00162962
0.0016294
0.00162838
0.00162666
0.00162423
0.00162113
0.00161736
0.00161295
0.00160792
0.00160229
0.00159607
0.0015893
0.001582
0.00157418
0.00156588
0.00155711
0.00154789
0.00153826
0.00152824
0.00151784
0.0015071
0.00149603
0.00148466
0.00147301
0.0014611
0.00144896
0.0014366
0.00142404
0.0014113
0.0013984
0.00138536
0.00137218
0.0013589
0.00134552
0.00133208
0.00131858
0.00130504
0.00129148
0.00127792
0.00126436
0.00125082
0.00123731
0.00122384
0.00121041
0.00119705
0.00118375
0.00117053
0.00115739
0.00114434
0.00113139
0.00111854
0.0011058
0.00109317
0.00108066
0.00106827
0.00105601
0.00104388
0.00103188
0.00102002
0.00100829
0.000996702
0.000985255
0.00097395
0.000962787
0.000951769
0.000940894
0.000930165
0.000919581
0.000909142
0.000898843
0.00088868
0.000878655
0.000868768
0.00085902
0.000849411
0.000839942
0.000830611
0.000821416
0.000812358
0.000803433
0.000794641
0.00078598
0.000777448
0.000769043
0.000760763
0.000752608
0.000744574
0.000736661
0.000728866
0.000721188
0.000713625
0.000706175
0.000698837
0.000691609
0.000684489
0.000677475
0.000670565
0.000663756
0.000657046
0.000650433
0.000643912
0.00063748
0.000631133
0.000624863
0.000618664
0.000612525
0.000606435
0.000600378
0.000594331
0.000588266
0.000582145
0.000575901
0.000569489
0.000562678
0.000555608
0.000547071
0.000530865
2.7094e-05
0.000122309
0.000241618
0.000358308
0.000436122
0.000483013
0.000506276
0.000514565
0.00051611
0.000517232
0.000524364
0.000540812
0.000567162
0.00060245
0.000645918
0.000697609
0.000758345
0.000842343
0.000938558
0.00103421
0.00112299
0.00120719
0.00128628
0.00135874
0.00142531
0.00148656
0.00154288
0.00159461
0.00164211
0.0016858
0.00172618
0.00176372
0.00179884
0.00183192
0.00186328
0.00189315
0.00192172
0.00194915
0.00197552
0.00200088
0.00202528
0.00204872
0.0020712
0.00209269
0.00211317
0.0021326
0.00215097
0.00216824
0.00218437
0.00219937
0.0022132
0.00222588
0.00223742
0.00224783
0.00225713
0.00226533
0.00227247
0.00227854
0.00228357
0.00228757
0.00229055
0.00229246
0.00229324
0.00229324
0.00229221
0.00229019
0.00228721
0.00228329
0.00227845
0.00227271
0.00226611
0.00225866
0.0022504
0.00224136
0.00223157
0.00222106
0.00220987
0.00219801
0.00218553
0.00217246
0.00215882
0.00214465
0.00212999
0.00211486
0.00209929
0.00208331
0.00206697
0.00205027
0.00203326
0.00201597
0.00199841
0.00198061
0.0019626
0.00194441
0.00192606
0.00190756
0.00188895
0.00187025
0.00185149
0.00183268
0.00181384
0.001795
0.00177617
0.00175736
0.0017386
0.00171989
0.00170126
0.0016827
0.00166424
0.00164588
0.00162764
0.00160953
0.00159155
0.00157371
0.00155602
0.00153848
0.00152111
0.00150391
0.00148688
0.00147003
0.00145335
0.00143687
0.00142057
0.00140446
0.00138854
0.00137282
0.00135729
0.00134196
0.00132682
0.00131188
0.00129714
0.0012826
0.00126825
0.00125409
0.00124012
0.00122633
0.00121274
0.00119934
0.00118612
0.0011731
0.00116025
0.0011476
0.00113512
0.00112283
0.00111071
0.00109877
0.001087
0.0010754
0.00106397
0.0010527
0.0010416
0.00103066
0.00101987
0.00100925
0.000998772
0.000988447
0.000978271
0.000968241
0.000958353
0.000948606
0.000938996
0.000929519
0.000920173
0.000910952
0.000901851
0.000892865
0.000883986
0.000875205
0.000866511
0.000857888
0.000849317
0.000840774
0.000832225
0.000823625
0.000814905
0.000805998
0.000796713
0.00078705
0.000776729
0.000756992
3.08622e-05
0.000135631
0.000262022
0.00039309
0.000489185
0.00055059
0.000588166
0.000611525
0.000629351
0.000648895
0.00067536
0.000711346
0.000757558
0.00081427
0.000882051
0.000973071
0.00107857
0.00118024
0.00127935
0.00137463
0.00146513
0.00155094
0.001632
0.0017083
0.00178013
0.00184783
0.00191176
0.00197224
0.00202961
0.00208419
0.00213631
0.00218625
0.00223425
0.00228053
0.00232524
0.00236851
0.00241041
0.002451
0.00249032
0.00252836
0.00256512
0.00260058
0.00263472
0.00266748
0.00269885
0.00272877
0.0027572
0.0027841
0.00280944
0.00283319
0.0028553
0.00287577
0.00289457
0.0029117
0.00292715
0.00294091
0.002953
0.00296342
0.00297217
0.00297929
0.00298479
0.0029887
0.00299093
0.00299167
0.002991
0.00298884
0.00298529
0.00298037
0.00297416
0.00296669
0.00295803
0.00294822
0.00293732
0.00292537
0.00291244
0.00289857
0.0028838
0.00286818
0.00285176
0.00283459
0.00281669
0.00279812
0.00277893
0.00275914
0.0027388
0.00271795
0.00269663
0.00267488
0.00265274
0.00263024
0.00260742
0.00258431
0.00256094
0.00253735
0.00251356
0.00248961
0.00246553
0.00244134
0.00241708
0.00239277
0.00236843
0.00234408
0.00231976
0.00229548
0.00227125
0.0022471
0.00222304
0.00219909
0.00217526
0.00215157
0.00212803
0.00210466
0.00208145
0.00205843
0.0020356
0.00201297
0.00199054
0.00196834
0.00194635
0.00192459
0.00190306
0.00188176
0.00186071
0.00183989
0.00181932
0.001799
0.00177892
0.00175909
0.00173951
0.00172019
0.00170111
0.00168228
0.00166369
0.00164535
0.00162725
0.00160939
0.00159177
0.00157439
0.00155724
0.00154034
0.00152367
0.00150723
0.00149102
0.00147503
0.00145927
0.00144373
0.00142841
0.0014133
0.00139841
0.00138372
0.00136924
0.00135496
0.00134087
0.00132699
0.00131329
0.00129979
0.00128647
0.00127333
0.00126038
0.0012476
0.00123499
0.00122255
0.00121027
0.00119816
0.00118619
0.00117437
0.00116269
0.00115114
0.0011397
0.00112836
0.0011171
0.00110589
0.00109469
0.00108347
0.00107213
0.00106063
0.00104878
0.00103657
0.00102421
0.00100166
3.24247e-05
0.00014281
0.000274485
0.000410513
0.000528376
0.000609485
0.000665498
0.000707496
0.000744708
0.000784375
0.000831515
0.000889031
0.00095867
0.00105151
0.00115888
0.00126554
0.00137164
0.00147491
0.00157484
0.00167104
0.00176327
0.00185156
0.00193599
0.00201674
0.00209403
0.00216816
0.00223939
0.00230799
0.00237421
0.00243829
0.00250044
0.00256083
0.00261962
0.0026769
0.00273277
0.00278729
0.00284048
0.00289235
0.0029429
0.0029921
0.00303994
0.00308636
0.00313132
0.00317477
0.00321666
0.00325694
0.00329555
0.00333243
0.00336755
0.00340084
0.00343227
0.0034618
0.00348939
0.00351502
0.00353865
0.00356026
0.00357985
0.00359739
0.00361289
0.00362635
0.00363777
0.00364715
0.00365452
0.00365993
0.00366333
0.00366473
0.00366439
0.00366215
0.00365811
0.00365233
0.00364485
0.00363574
0.00362505
0.00361284
0.00359919
0.00358415
0.00356779
0.00355019
0.00353141
0.00351151
0.00349057
0.00346866
0.00344584
0.00342217
0.00339773
0.00337258
0.00334677
0.00332036
0.00329342
0.00326599
0.00323813
0.00320988
0.00318129
0.0031524
0.00312326
0.00309391
0.00306439
0.00303473
0.00300497
0.00297514
0.00294528
0.0029154
0.00288555
0.00285574
0.002826
0.00279635
0.00276681
0.0027374
0.00270814
0.00267905
0.00265013
0.00262142
0.00259291
0.00256462
0.00253656
0.00250875
0.00248119
0.00245388
0.00242685
0.00240008
0.0023736
0.0023474
0.00232149
0.00229586
0.00227054
0.00224551
0.00222077
0.00219634
0.00217221
0.00214837
0.00212484
0.0021016
0.00207866
0.00205602
0.00203366
0.0020116
0.00198982
0.00196834
0.00194713
0.00192622
0.00190558
0.00188522
0.00186513
0.00184532
0.00182578
0.0018065
0.00178748
0.00176872
0.00175021
0.00173195
0.00171394
0.00169617
0.00167864
0.00166134
0.00164427
0.00162743
0.00161082
0.00159442
0.00157824
0.00156228
0.00154652
0.00153096
0.0015156
0.00150044
0.00148546
0.00147066
0.00145603
0.00144156
0.00142723
0.00141303
0.00139894
0.00138492
0.00137095
0.00135697
0.00134291
0.0013287
0.00131419
0.00129941
0.0012843
0.00125995
3.28609e-05
0.000144384
0.000275715
0.000409921
0.000539802
0.00064309
0.00072026
0.000781779
0.000837813
0.00089608
0.000964673
0.00105745
0.00116778
0.00128919
0.00140467
0.00151587
0.00162361
0.00172807
0.0018292
0.00192694
0.0020213
0.00211239
0.00220035
0.00228536
0.00236765
0.00244745
0.00252497
0.00260042
0.002674
0.00274587
0.00281618
0.00288503
0.00295253
0.00301873
0.00308368
0.00314738
0.00320984
0.00327104
0.00333095
0.00338953
0.00344673
0.00350249
0.00355676
0.00360946
0.00366054
0.00370992
0.00375755
0.00380335
0.00384727
0.00388924
0.00392921
0.00396713
0.00400295
0.00403662
0.00406812
0.00409741
0.00412445
0.00414924
0.00417174
0.00419197
0.0042099
0.00422554
0.0042389
0.00424999
0.00425883
0.00426544
0.00426988
0.00427204
0.0042722
0.00427026
0.00426629
0.00426035
0.00425248
0.00424274
0.0042312
0.00421792
0.00420297
0.00418642
0.00416834
0.00414879
0.00412785
0.0041056
0.0040821
0.00405743
0.00403167
0.00400488
0.00397714
0.00394852
0.00391909
0.00388891
0.00385805
0.00382657
0.00379454
0.00376201
0.00372905
0.0036957
0.00366203
0.00362808
0.00359391
0.00355956
0.00352508
0.0034905
0.00345587
0.00342123
0.0033866
0.00335201
0.00331751
0.00328311
0.00324884
0.00321473
0.00318079
0.00314705
0.00311353
0.00308023
0.00304719
0.0030144
0.00298189
0.00294966
0.00291772
0.00288609
0.00285477
0.00282376
0.00279308
0.00276273
0.00273271
0.00270303
0.00267368
0.00264468
0.00261602
0.0025877
0.00255972
0.00253209
0.00250479
0.00247783
0.00245121
0.00242492
0.00239896
0.00237333
0.00234804
0.00232306
0.00229842
0.00227409
0.00225008
0.00222638
0.002203
0.00217992
0.00215714
0.00213466
0.00211247
0.00209057
0.00206896
0.00204762
0.00202657
0.00200579
0.00198528
0.00196503
0.00194504
0.00192531
0.00190583
0.0018866
0.00186761
0.00184886
0.00183035
0.00181206
0.00179399
0.00177613
0.00175848
0.00174101
0.00172373
0.0017066
0.0016896
0.00167271
0.00165589
0.00163909
0.00162223
0.00160526
0.00158802
0.00157058
0.00155257
0.00152634
3.22911e-05
0.00014139
0.000269171
0.000398272
0.000522013
0.000633947
0.000727723
0.000809187
0.000893274
0.000989331
0.00109931
0.00122457
0.00136106
0.00148842
0.00160859
0.0017235
0.00183411
0.00194077
0.0020438
0.00214357
0.00224029
0.00233417
0.00242541
0.00251422
0.0026008
0.00268536
0.00276809
0.00284916
0.00292872
0.0030069
0.0030838
0.0031595
0.00323406
0.00330751
0.00337985
0.00345109
0.00352119
0.00359012
0.00365782
0.00372424
0.00378932
0.00385298
0.00391514
0.00397572
0.00403466
0.00409186
0.00414725
0.00420076
0.00425231
0.00430183
0.00434925
0.00439452
0.00443758
0.00447836
0.00451684
0.00455297
0.00458671
0.00461804
0.00464693
0.00467336
0.00469733
0.00471884
0.00473788
0.00475446
0.00476859
0.00478031
0.00478962
0.00479656
0.00480118
0.00480342
0.0048035
0.00480137
0.00479708
0.00479069
0.00478226
0.00477186
0.00475954
0.00474538
0.00472943
0.00471178
0.00469248
0.00467162
0.00464927
0.0046255
0.00460038
0.00457399
0.00454641
0.0045177
0.00448793
0.00445719
0.00442554
0.00439304
0.00435977
0.00432579
0.00429116
0.00425595
0.00422023
0.00418405
0.00414746
0.00411053
0.00407331
0.00403585
0.00399819
0.00396039
0.00392248
0.0038845
0.0038465
0.00380851
0.00377056
0.00373269
0.00369493
0.0036573
0.00361982
0.00358253
0.00354545
0.00350859
0.00347197
0.00343561
0.00339953
0.00336374
0.00332824
0.00329306
0.0032582
0.00322368
0.00318949
0.00315564
0.00312214
0.003089
0.00305621
0.00302379
0.00299173
0.00296003
0.00292869
0.00289772
0.0028671
0.00283685
0.00280696
0.00277743
0.00274826
0.00271944
0.00269098
0.00266287
0.00263511
0.00260769
0.00258062
0.00255388
0.00252748
0.00250141
0.00247566
0.00245024
0.00242513
0.00240034
0.00237586
0.00235169
0.00232782
0.00230424
0.00228096
0.00225797
0.00223527
0.00221285
0.0021907
0.00216882
0.00214721
0.00212585
0.00210475
0.00208389
0.00206327
0.00204286
0.00202266
0.00200265
0.0019828
0.00196308
0.00194345
0.00192387
0.00190425
0.00188454
0.00186459
0.00184447
0.00182366
0.00179525
3.09104e-05
0.000135265
0.000258358
0.000383701
0.000505708
0.000621875
0.000732749
0.000842262
0.000957774
0.00108429
0.00122291
0.00137309
0.00151523
0.00164705
0.00177118
0.00188948
0.00200309
0.00211263
0.00221849
0.00232089
0.00242021
0.00251685
0.0026111
0.00270322
0.00279344
0.00288197
0.00296898
0.00305463
0.00313906
0.00322237
0.00330464
0.00338593
0.00346627
0.00354567
0.00362413
0.00370161
0.00377808
0.00385347
0.00392773
0.00400077
0.00407252
0.00414288
0.00421178
0.00427911
0.00434478
0.00440871
0.0044708
0.00453097
0.00458913
0.0046452
0.0046991
0.00475077
0.00480014
0.00484716
0.00489176
0.0049339
0.00497355
0.00501066
0.00504521
0.00507718
0.00510656
0.00513334
0.00515751
0.00517908
0.00519806
0.00521447
0.00522834
0.00523968
0.00524853
0.00525492
0.0052589
0.00526051
0.00525983
0.00525689
0.00525173
0.00524444
0.00523506
0.00522366
0.00521031
0.00519507
0.00517802
0.00515923
0.00513876
0.0051167
0.00509311
0.00506807
0.00504166
0.00501394
0.004985
0.00495489
0.00492369
0.00489148
0.00485831
0.00482427
0.00478941
0.0047538
0.00471751
0.00468059
0.00464312
0.00460514
0.00456673
0.00452792
0.00448878
0.00444936
0.00440969
0.00436984
0.00432984
0.00428973
0.00424956
0.00420936
0.00416917
0.00412901
0.00408893
0.00404895
0.0040091
0.0039694
0.00392987
0.00389055
0.00385145
0.00381258
0.00377397
0.00373563
0.00369757
0.00365981
0.00362236
0.00358523
0.00354842
0.00351195
0.00347583
0.00344005
0.00340463
0.00336956
0.00333485
0.0033005
0.00326652
0.0032329
0.00319964
0.00316676
0.00313424
0.00310208
0.00307029
0.00303886
0.0030078
0.00297709
0.00294674
0.00291675
0.00288711
0.00285782
0.00282888
0.00280027
0.00277201
0.00274408
0.00271649
0.00268922
0.00266228
0.00263567
0.00260936
0.00258338
0.0025577
0.00253233
0.00250726
0.00248248
0.002458
0.0024338
0.00240988
0.00238623
0.00236283
0.00233969
0.00231677
0.00229406
0.00227154
0.00224917
0.00222692
0.00220472
0.00218252
0.00216023
0.00213775
0.00211509
0.00209169
0.00206094
2.93556e-05
0.000128944
0.000248507
0.000372863
0.000497651
0.000621812
0.000746923
0.000876712
0.00101461
0.0011625
0.00132055
0.00148207
0.00162961
0.00176586
0.0018938
0.00201543
0.00213201
0.00224435
0.00235299
0.00245832
0.00256064
0.00266015
0.00275728
0.0028524
0.00294578
0.00303767
0.00312826
0.00321772
0.00330617
0.00339371
0.00348042
0.00356634
0.00365148
0.00373585
0.00381942
0.00390216
0.003984
0.00406487
0.00414469
0.00422338
0.00430083
0.00437695
0.00445163
0.00452478
0.00459628
0.00466603
0.00473393
0.00479989
0.0048638
0.00492559
0.00498516
0.00504243
0.00509735
0.00514983
0.00519983
0.00524728
0.00529215
0.0053344
0.00537399
0.0054109
0.00544511
0.00547661
0.0055054
0.00553149
0.00555487
0.00557557
0.0055936
0.005609
0.00562179
0.005632
0.00563969
0.00564488
0.00564765
0.00564802
0.00564607
0.00564186
0.00563543
0.00562686
0.00561621
0.00560354
0.00558893
0.00557245
0.00555416
0.00553415
0.00551247
0.00548922
0.00546445
0.00543825
0.00541069
0.00538183
0.00535175
0.00532051
0.0052882
0.00525487
0.00522059
0.00518544
0.00514947
0.00511274
0.00507533
0.00503729
0.00499869
0.00495957
0.00492
0.00488002
0.00483968
0.00479904
0.00475815
0.00471704
0.00467575
0.00463434
0.00459284
0.00455128
0.0045097
0.00446813
0.00442661
0.00438516
0.00434381
0.00430258
0.00426151
0.0042206
0.00417989
0.00413939
0.00409912
0.00405909
0.00401933
0.00397984
0.00394063
0.00390172
0.00386312
0.00382484
0.00378687
0.00374924
0.00371194
0.00367499
0.00363838
0.00360211
0.0035662
0.00353064
0.00349543
0.00346058
0.00342609
0.00339196
0.00335819
0.00332478
0.00329172
0.00325902
0.00322667
0.00319468
0.00316303
0.00313174
0.00310079
0.00307019
0.00303992
0.00301
0.00298041
0.00295116
0.00292223
0.00289364
0.00286537
0.00283741
0.00280978
0.00278246
0.00275544
0.00272873
0.00270231
0.00267618
0.00265033
0.00262474
0.00259941
0.0025743
0.00254939
0.00252466
0.00250006
0.00247554
0.00245103
0.00242645
0.00240171
0.0023768
0.00235116
0.00231822
2.76638e-05
0.000122334
0.000238484
0.000362204
0.000489871
0.000620888
0.000757513
0.000901543
0.00105455
0.00121704
0.00138948
0.00155516
0.00170668
0.00184679
0.00197823
0.00210297
0.00222235
0.0023373
0.00244848
0.00255639
0.0026614
0.00276384
0.00286396
0.00296195
0.00305825
0.00315313
0.00324685
0.00333958
0.00343146
0.0035226
0.00361308
0.00370292
0.00379215
0.00388075
0.00396868
0.00405591
0.00414234
0.00422791
0.00431252
0.00439607
0.00447845
0.00455955
0.00463925
0.00471744
0.004794
0.00486882
0.00494178
0.00501279
0.00508174
0.00514853
0.00521307
0.00527528
0.00533507
0.00539238
0.00544715
0.00549931
0.00554882
0.00559563
0.00563972
0.00568105
0.0057196
0.00575537
0.00578834
0.00581852
0.00584591
0.00587053
0.0058924
0.00591155
0.00592799
0.00594178
0.00595294
0.00596152
0.00596757
0.00597114
0.00597227
0.00597107
0.00596756
0.0059618
0.00595386
0.00594382
0.00593172
0.00591766
0.00590169
0.00588389
0.00586433
0.0058431
0.00582025
0.00579586
0.00577
0.00574275
0.00571418
0.00568435
0.00565334
0.0056212
0.00558802
0.00555385
0.00551876
0.00548282
0.00544609
0.00540863
0.00537049
0.00533175
0.00529244
0.00525264
0.00521238
0.00517171
0.0051307
0.00508937
0.00504778
0.00500597
0.00496398
0.00492184
0.0048796
0.00483729
0.00479494
0.00475258
0.00471025
0.00466797
0.00462577
0.00458367
0.0045417
0.00449988
0.00445822
0.00441675
0.00437548
0.00433444
0.00429363
0.00425307
0.00421277
0.00417274
0.00413299
0.00409354