/*--------------------------------*- C++ -*----------------------------------*\
  =========                 |
  \\      /  F ield         | OpenFOAM: The Open Source CFD Toolbox
   \\    /   O peration     | Website:  https://openfoam.org
    \\  /    A nd           | Version:  8
     \\/     M anipulation  |
\*---------------------------------------------------------------------------*/
FoamFile
{
    version     2.0;
    format      ascii;
    class       volVectorField;
    location    "300";
    object      wallShearStress;
}
// * * * * * * * * * * * * * * * * * * * * * * * * * * * * * * * * * * * * * //

dimensions      [0 2 -2 0 0 0 0];

internalField   uniform (0 0 0);

boundaryField
{
    inlet
    {
        type            calculated;
        value           uniform (0 0 0);
    }
    outlet
    {
        type            calculated;
        value           uniform (0 0 0);
    }
    upperWall
    {
        type            calculated;
        value           nonuniform List<vector> 
223
(
(-0.582193 -0.392359 0)
(-0.977814 -0.219377 0)
(-0.939337 -0.0567763 0)
(-0.810723 -0.00585988 0)
(-0.734617 0.00331292 0)
(-0.695455 0.00231966 0)
(-0.67087 0.000459643 0)
(-0.653368 -0.00139156 0)
(-0.640411 -0.00258739 0)
(-0.62969 -0.00214846 0)
(-0.619897 -0.00138336 0)
(-0.610749 -0.00118163 0)
(-0.603179 -0.00169715 0)
(-0.596804 -0.00129104 0)
(-0.590576 0.000141965 0)
(-0.584589 0.00132301 0)
(-0.579496 0.000294155 0)
(-0.575423 -0.00018992 0)
(-0.571688 0.00184757 0)
(-0.568053 0.0036841 4.31015e-22)
(-0.564434 0.00394985 0)
(-0.56147 0.00341205 0)
(-0.558819 0.00385523 0)
(-0.55581 0.00410154 4.55352e-22)
(-0.55276 0.00395172 0)
(-0.549766 0.00351085 0)
(-0.546899 0.00300882 0)
(-0.544128 0.00256295 -9.44763e-22)
(-0.54142 0.00218533 9.54543e-22)
(-0.538751 0.00188537 9.64816e-22)
(-0.536102 0.0016595 0)
(-0.533457 0.00149065 -9.86621e-22)
(-0.530808 0.00136308 0)
(-0.528151 0.00126714 1.00972e-21)
(-0.525481 0.00119335 1.02166e-21)
(-0.522799 0.00113734 -1.03382e-21)
(-0.520101 0.00109426 0)
(-0.517388 0.00106134 0)
(-0.514657 0.0010368 0)
(-0.511906 0.00101887 0)
(-0.509131 0.00100643 -1.097e-21)
(-0.50633 0.000998689 0)
(-0.503499 0.00099497 0)
(-0.500635 0.000994644 1.13583e-21)
(-0.497735 0.000997402 0)
(-0.494793 0.0010028 1.16144e-21)
(-0.491808 0.00101055 -1.17401e-21)
(-0.488774 0.00102026 1.18633e-21)
(-0.48569 0.00103123 0)
(-0.482553 0.00104304 0)
(-0.479361 0.00105487 0)
(-0.476116 0.00106583 1.23224e-21)
(-0.472822 0.00107465 -1.24257e-21)
(-0.469493 0.00108177 0)
(-0.466142 0.00108838 0)
(-0.462783 0.0010948 0)
(-0.45943 0.00110027 0)
(-0.456086 0.00110379 0)
(-0.452751 0.00110447 0)
(-0.449423 0.00110247 0)
(-0.446092 0.00109853 0)
(-0.442748 0.00109363 1.29108e-21)
(-0.439381 0.00108902 -1.29067e-21)
(-0.43598 0.00108555 0)
(-0.432532 0.00108382 0)
(-0.429028 0.00108403 0)
(-0.425459 0.00108624 -1.27652e-21)
(-0.421816 0.00109043 0)
(-0.418092 0.00109626 0)
(-0.414283 0.0011033 0)
(-0.410383 0.00111123 0)
(-0.406391 0.00111964 0)
(-0.402301 0.00112797 -2.42814e-21)
(-0.398116 0.00113566 0)
(-0.393835 0.00114219 0)
(-0.389461 0.00114705 0)
(-0.385002 0.00115004 0)
(-0.380464 0.00115099 0)
(-0.375861 0.00114985 0)
(-0.371204 0.00114631 0)
(-0.366505 0.00114003 2.08517e-21)
(-0.361775 0.00113096 0)
(-0.35702 0.00111921 0)
(-0.352247 0.00110501 0)
(-0.347457 0.00108894 -1.82726e-21)
(-0.34265 0.0010716 0)
(-0.337824 0.00105356 -1.67665e-21)
(-0.332975 0.00103556 0)
(-0.328099 0.00101843 0)
(-0.323188 0.00100354 0)
(-0.318618 0.000997546 -1.33609e-21)
(-0.315959 0.00100711 0)
(-0.313218 0.00102098 1.16418e-21)
(-0.310396 0.00103541 1.07269e-21)
(-0.3075 0.00104819 0)
(-0.304541 0.00105872 8.77289e-22)
(-0.30153 0.00106723 0)
(-0.298482 0.00107447 0)
(-0.29541 0.00108147 0)
(-0.29233 0.00108923 -4.32035e-22)
(-0.289255 0.00109732 0)
(-0.2862 0.00110657 -1.80567e-22)
(-0.283176 0.0011118 4.74818e-23)
(-0.280194 0.00111822 0)
(-0.277265 0.00111641 0)
(-0.27439 0.00111079 0)
(-0.271581 0.00111143 0)
(-0.268825 0.00108377 0)
(-0.266157 0.000931691 0)
(-0.263551 0.00085892 0)
(-0.261072 0.000965378 1.18562e-21)
(-0.258678 0.00106896 0)
(-0.256424 0.00131058 0)
(-0.254271 0.0011011 0)
(-0.251924 0.000763449 0)
(-0.249672 0.000916165 0)
(-0.247502 0.000894995 0)
(-0.245249 0.00109924 0)
(-0.243498 0.00139009 0)
(-0.242031 0.00137575 0)
(-0.240476 0.0013076 0)
(-0.238818 0.00115745 0)
(-0.237434 0.00099079 0)
(-0.236318 0.000902391 7.16304e-21)
(-0.234758 0.000843816 0)
(-0.233422 0.000731198 0)
(-0.232159 0.000817803 0)
(-0.230408 0.000899994 -8.82527e-21)
(-0.228481 0.000529197 0)
(-0.226677 0.000404646 0)
(-0.225432 0.000663834 -1.0053e-20)
(-0.223803 0.000431714 0)
(-0.222162 0.000398729 1.0995e-20)
(-0.220461 0.000419029 0)
(-0.218676 0.000361086 0)
(-0.217084 0.000672923 0)
(-0.215735 0.000153259 -1.27119e-20)
(-0.214164 -0.000452589 0)
(-0.212848 -0.00021322 1.36668e-20)
(-0.21144 0.000107849 0)
(-0.21061 0.000214806 0)
(-0.209687 0.000403588 0)
(-0.208896 0.000488114 0)
(-0.207789 0.000626924 0)
(-0.206943 0.000895007 0)
(-0.20595 0.00079963 0)
(-0.205726 0.000716488 0)
(-0.205135 0.000631547 0)
(-0.204578 0.000507092 0)
(-0.203853 0.000494992 0)
(-0.202725 0.000376736 1.85993e-20)
(-0.202331 0.000314917 -1.88812e-20)
(-0.201607 0.000446629 0)
(-0.201045 -7.98404e-05 0)
(-0.199854 -0.000626946 0)
(-0.199313 -0.000341044 0)
(-0.198547 -6.00432e-05 -2.11425e-20)
(-0.198092 0.000131705 2.145e-20)
(-0.197626 0.000496515 -2.1834e-20)
(-0.197076 0.000732669 0)
(-0.196737 0.000715784 -2.26316e-20)
(-0.196414 8.24529e-05 -4.615e-20)
(-0.195549 -0.000438389 0)
(-0.19508 -0.000262315 -4.80487e-20)
(-0.195158 -3.25692e-05 4.85314e-20)
(-0.194093 0.000131611 0)
(-0.193689 0.000101357 0)
(-0.193215 1.93781e-05 0)
(-0.193404 7.01952e-05 0)
(-0.193206 0.000161993 0)
(-0.193278 0.000238966 -5.32169e-20)
(-0.192715 0.000307574 0)
(-0.192121 0.000378945 -5.52628e-20)
(-0.19157 0.00030797 0)
(-0.191424 0.00051677 0)
(-0.191317 0.000419276 0)
(-0.190339 2.99212e-05 0)
(-0.18959 0.000232805 0)
(-0.188301 0.000341485 6.15737e-20)
(-0.187811 0.000353398 0)
(-0.187485 0.000462962 0)
(-0.186801 0.000515758 -6.40195e-20)
(-0.186604 0.00063925 0)
(-0.18579 0.000746359 0)
(-0.184628 0.000593368 0)
(-0.184111 0.000538207 6.84669e-20)
(-0.182978 0.000522212 0)
(-0.181495 0.000462857 0)
(-0.180097 7.66585e-05 0)
(-0.177792 -0.000190283 0)
(-0.17578 0.000183168 -7.73393e-20)
(-0.172214 0.000429724 0)
(-0.169332 0.000523501 0)
(-0.166116 0.000763988 0)
(-0.161087 0.0010192 8.92502e-20)
(-0.154002 0.00125518 0)
(-0.147574 0.00223579 0)
(-0.122295 0.00230883 -1.08565e-19)
(-0.140629 0.0068258 6.01853e-36)
(-0.169272 0.0134423 1.24933e-17)
(-0.186933 0.0172774 2.35441e-17)
(-0.193135 0.0190165 2.28034e-17)
(-0.196577 0.0197761 2.20532e-17)
(-0.200296 0.0202998 2.12857e-17)
(-0.205301 0.0209906 -2.02385e-17)
(-0.209702 0.0216157 -1.95198e-17)
(-0.213301 0.021917 -1.80556e-35)
(-0.217901 0.0219543 -3.66454e-17)
(-0.220519 0.0221567 -1.80616e-17)
(-0.225214 0.0227462 6.92131e-34)
(-0.228153 0.0229744 0)
(-0.230992 0.0234072 -3.24055e-17)
(-0.23459 0.0238691 -3.08703e-17)
(-0.242206 0.0247729 -2.84534e-17)
(-0.24942 0.025476 0)
(-0.256646 0.026042 4.94007e-17)
(-0.265122 0.0267787 2.24756e-17)
(-0.273538 0.0275677 1.20371e-35)
(-0.283056 0.0284248 -3.48481e-17)
(-0.291994 0.0290425 -1.54463e-20)
(-0.301342 0.0295933 0)
(-0.303697 0.0303219 1.35902e-17)
(-0.331162 0.031966 -7.66814e-18)
)
;
    }
    lowerWall
    {
        type            calculated;
        value           nonuniform List<vector> 
250
(
(-0.653909 0.466638 0)
(-1.14095 0.204679 0)
(-1.03493 0.0379589 0)
(-0.869585 -0.000936198 0)
(-0.786956 -0.00419185 0)
(-0.746097 -0.00160887 0)
(-0.719915 0.000399468 0)
(-0.70062 -0.000607953 0)
(-0.68488 -0.00387839 0)
(-0.670926 -0.00442793 0)
(-0.658436 -0.00266471 0)
(-0.6472 -0.000617904 0)
(-0.637015 0.00148774 0)
(-0.62783 0.00210333 0)
(-0.61914 0.000691461 0)
(-0.611388 4.55002e-05 0)
(-0.604437 0.000978545 0)
(-0.604924 0.00197849 0)
(-0.00426922 -0.0225592 0)
(-0.00275596 -0.017322 0)
(-0.000650817 -0.0141449 0)
(0.00200199 -0.0134424 9.14168e-20)
(0.00536033 -0.0148917 -7.9475e-20)
(0.00911515 -0.0205782 6.3313e-20)
(0.0129313 -0.0200603 -4.87419e-20)
(0.0255948 -0.0637261 0)
(-0.0852671 -0.144812 0)
(0.000854094 -0.00384078 0)
(-0.00767444 0.00964841 0)
(-0.00851527 0.0329644 0)
(-0.00251125 0.0449472 0)
(0.00299724 0.0442737 1.8155e-20)
(0.00623223 0.0360081 -1.89197e-20)
(0.00824548 0.0240276 0)
(0.00952345 0.00996056 -5.43035e-20)
(0.00947134 -0.00429432 6.0809e-20)
(0.00794847 -0.0177192 0)
(0.00614578 -0.0295179 0)
(0.0043791 -0.0388892 0)
(0.00267725 -0.045451 0)
(0.000963738 -0.0491638 0)
(-0.000928956 -0.0497325 0)
(-0.00288193 -0.0465168 0)
(-0.00447208 -0.0398975 0)
(-0.00497962 -0.0305889 0)
(0.00133189 -0.00150362 0)
(0.00132753 0.00655285 0)
(-0.00453773 0.00964698 0)
(-0.00963999 0.00977518 0)
(-0.0134268 0.00830354 0)
(-0.0159264 0.0062284 0)
(-0.0172921 0.00408388 1.49212e-21)
(-0.0178014 0.00198578 -1.5249e-21)
(-0.0173342 -3.24616e-05 0)
(-0.0160411 -0.00171022 -1.65175e-21)
(-0.0141632 -0.00285451 0)
(-0.012019 -0.00330155 0)
(-0.0100221 -0.00302844 -0)
(-0.00853355 -0.00226555 2.57055e-21)
(-0.00760269 -0.0014091 0)
(-0.0069186 -0.000805367 0)
(-0.00609167 -0.000620634 -3.381e-21)
(-0.00496009 -0.00102223 0)
(-0.00334088 -0.00247569 0)
(-0.00033626 -0.00517395 0)
(0.00455452 -0.00746095 2.97107e-21)
(0.0101497 -0.00896647 0)
(0.0160787 -0.00992114 1.44919e-21)
(0.022149 -0.0106703 0)
(0.0283653 -0.0113051 -0)
(0.034678 -0.0115328 8.39346e-22)
(0.0408073 -0.0113608 0)
(0.0496004 -0.0116399 -7.53465e-22)
(0.0594069 -0.0117776 -0)
(0.0691087 -0.0115936 7.70422e-22)
(0.078518 -0.011171 0)
(0.0874861 -0.0105795 0)
(0.0959218 -0.00988103 0)
(0.103769 -0.00912449 -0)
(0.111003 -0.00834668 0)
(0.117623 -0.0075745 -8.11112e-22)
(0.123643 -0.00682463 -0)
(0.129085 -0.0061062 1.633e-21)
(0.133976 -0.00542345 0)
(0.138345 -0.00477637 -1.63482e-21)
(0.142216 -0.00416323 -0)
(0.145613 -0.00358139 -0)
(0.148557 -0.00302818 1.62075e-21)
(0.151066 -0.0025013 0)
(0.153153 -0.0019999 1.60036e-21)
(0.154831 -0.00152514 -1.58695e-21)
(0.156111 -0.00108068 -0)
(0.157007 -0.000673801 -1.55412e-21)
(0.157529 -0.000314786 -1.53498e-21)
(0.157689 -2.03564e-05 -0)
(0.157566 0.000211717 0)
(0.157214 0.000408537 0)
(0.15664 0.000585521 0)
(0.155857 0.000748773 -0)
(0.154874 0.000902433 1.37375e-21)
(0.153699 0.00104704 0)
(0.152339 0.00118332 -1.30449e-21)
(0.150801 0.00131136 -0)
(0.149093 0.00143129 -0)
(0.147222 0.00154324 1.18723e-21)
(0.145196 0.00164702 0)
(0.143023 0.00174258 -1.10095e-21)
(0.140712 0.00182998 -0)
(0.138272 0.00190922 0)
(0.13571 0.00198031 -0)
(0.133037 0.00204327 9.11665e-22)
(0.130262 0.00209826 0)
(0.127393 0.00214537 -0)
(0.12444 0.00218473 7.5764e-22)
(0.121414 0.00221665 0)
(0.118321 0.00224116 6.50445e-22)
(0.115174 0.00225862 0)
(0.111979 0.00226924 0)
(0.108746 0.0022733 0)
(0.105484 0.00227115 -4.28059e-22)
(0.102202 0.00226303 -0)
(0.0989063 0.00224935 0)
(0.0956063 0.00223042 -2.56516e-22)
(0.0923089 0.00220651 -1.98764e-22)
(0.0890217 0.00217795 -0)
(0.0857513 0.00214525 -8.27078e-23)
(0.082504 0.00210871 -0)
(0.0792857 0.00206868 6.76253e-23)
(0.0761021 0.00202555 -0)
(0.0729584 0.00197985 3.01126e-22)
(0.0698588 0.00193202 0)
(0.0668081 0.00188271 -5.3487e-22)
(0.0638098 0.00183269 -0)
(0.0608673 0.00178315 0)
(0.0579828 0.00173544 -0)
(0.0551582 0.00169132 1.00378e-21)
(0.0523943 0.00165307 0)
(0.0496913 0.00162273 -1.24041e-21)
(0.0470476 0.0016008 0)
(0.0454305 0.00161747 1.51122e-21)
(0.0438829 0.00163277 1.6718e-21)
(0.0423405 0.00163324 1.8387e-21)
(0.0408118 0.00161664 0)
(0.0393008 0.00159192 0)
(0.0378066 0.00156581 0)
(0.0363278 0.00153973 0)
(0.0348649 0.00151372 0)
(0.0334182 0.00148789 0)
(0.0319879 0.00146221 0)
(0.0305749 0.00143678 0)
(0.0291795 0.00141181 -3.76088e-21)
(0.027802 0.00138756 -4.04145e-21)
(0.0264424 0.00136409 0)
(0.0251008 0.00134091 0)
(0.0237782 0.00131636 0)
(0.0224755 0.00129122 -5.36612e-21)
(0.0211927 0.00126703 0)
(0.0199296 0.00124332 0)
(0.0186864 0.00122023 0)
(0.017463 0.00119784 0)
(0.0162595 0.00117615 7.68593e-21)
(0.0150759 0.00115528 0)
(0.0139121 0.00113532 0)
(0.0127681 0.00111635 -9.65562e-21)
(0.0116437 0.00109841 1.04558e-20)
(0.0105389 0.00108163 0)
(0.00945357 0.00106632 1.235e-20)
(0.00838771 0.00105327 0)
(0.00734077 0.00104381 -1.47714e-20)
(0.00631199 0.00103768 0)
(0.00530122 0.00103368 0)
(0.00430839 0.00103198 0)
(0.00333297 0.00103285 0)
(0.00237471 0.00103654 0)
(0.00143407 0.0010429 5.78022e-20)
(0.000513352 0.00104836 6.68916e-20)
(-0.000391945 0.00102745 0)
(-0.00128547 0.000976793 0)
(-0.00216221 0.000923858 0)
(-0.00302353 0.000875372 -5.16385e-20)
(-0.00386905 0.000831442 0)
(-0.00469871 0.000791562 0)
(-0.005513 0.000755256 0)
(-0.00631254 0.000722025 -3.97876e-20)
(-0.00709788 0.000691426 3.78206e-20)
(-0.00786951 0.000663087 0)
(-0.00862787 0.000636733 0)
(-0.00937344 0.000612123 3.32443e-20)
(-0.0101066 0.000589078 3.20439e-20)
(-0.0108279 0.000567433 0)
(-0.0115377 0.000547063 0)
(-0.0122365 0.000527857 -2.91078e-20)
(-0.0129245 0.000509731 2.83023e-20)
(-0.0136024 0.0004926 0)
(-0.0142704 0.000476396 0)
(-0.0149291 0.000461057 2.62646e-20)
(-0.0155787 0.000446539 0)
(-0.0162199 0.000432794 0)
(-0.0168531 0.000419775 2.46566e-20)
(-0.0174786 0.000407455 0)
(-0.018097 0.000395795 2.37597e-20)
(-0.0187087 0.000384766 0)
(-0.0193142 0.000374338 0)
(-0.019914 0.000364473 0)
(-0.0205084 0.00035515 -2.22735e-20)
(-0.0210979 0.000346343 0)
(-0.0216831 0.000337987 0)
(-0.022264 0.00033004 0)
(-0.0228412 0.000322452 0)
(-0.0234149 0.000315128 0)
(-0.023985 0.000307968 0)
(-0.0245515 0.000300799 -2.03349e-20)
(-0.0251138 0.000293444 -2.01084e-20)
(-0.0256713 0.000285644 0)
(-0.0262223 0.000276981 0)
(-0.0267647 0.000266969 0)
(-0.0272953 0.000254851 1.9327e-20)
(-0.0278089 0.000239406 0)
(-0.028297 0.000219145 -3.80788e-20)
(-0.0287499 0.000190197 3.78788e-20)
(-0.0291393 0.000150368 3.77715e-20)
(-0.0294659 7.57457e-05 -3.78201e-20)
(-0.0295433 -4.19121e-05 3.79997e-20)
(-0.0295613 -0.000359343 -3.83637e-20)
(-0.0280225 -0.000618716 0)
(-0.0293911 -0.00051861 -2.43203e-18)
(-0.0328115 -0.0013441 -2.26915e-18)
(-0.0364516 -0.00203554 -3.00927e-36)
(-0.0395693 -0.00257909 -4.05966e-18)
(-0.0425158 -0.00302194 -7.75584e-18)
(-0.0455871 -0.00342264 -3.71903e-18)
(-0.0487968 -0.00384117 3.56637e-18)
(-0.0521396 -0.00425457 -2.40741e-35)
(-0.0556219 -0.00471177 -6.01853e-36)
(-0.0593076 -0.00511279 3.14818e-18)
(-0.0632419 -0.00542775 3.02729e-18)
(-0.0674299 -0.00581353 3.00927e-36)
(-0.0719065 -0.00624175 0)
(-0.0767142 -0.00670239 0)
(-0.0819015 -0.00720033 4.14714e-35)
(-0.0875157 -0.00774794 7.63601e-35)
(-0.0936302 -0.00835196 4.21297e-35)
(-0.100297 -0.00901377 -4.1588e-18)
(-0.107657 -0.00973277 -3.81231e-18)
(-0.116692 -0.0106203 6.01853e-36)
(-0.127504 -0.0116209 6.13552e-18)
(-0.13835 -0.0127265 1.03467e-17)
(-0.153572 -0.013919 0)
(-0.162759 -0.0152856 -5.09584e-18)
(-0.191882 -0.0169721 -2.70834e-35)
)
;
    }
    frontAndBack
    {
        type            empty;
    }
}


// ************************************************************************* //
