/*--------------------------------*- C++ -*----------------------------------*\
  =========                 |
  \\      /  F ield         | OpenFOAM: The Open Source CFD Toolbox
   \\    /   O peration     | Website:  https://openfoam.org
    \\  /    A nd           | Version:  8
     \\/     M anipulation  |
\*---------------------------------------------------------------------------*/
FoamFile
{
    version     2.0;
    format      ascii;
    class       volScalarField;
    location    "500";
    object      k;
}
// * * * * * * * * * * * * * * * * * * * * * * * * * * * * * * * * * * * * * //

dimensions      [0 2 -2 0 0 0 0];

internalField   nonuniform List<scalar> 
12225
(
0.302151
1.47318
2.31017
3.5061
3.38101
3.05047
3.32602
2.46457
2.08431
1.56128
2.10541
2.35663
2.42133
2.18523
2.56513
2.72144
2.23067
1.67626
0.206076
0.257876
0.327187
0.450945
0.525525
0.537632
0.613188
0.620377
0.63144
0.650016
0.681942
0.700321
0.738049
0.755922
0.784559
0.820104
0.841639
0.859672
0.199648
0.20257
0.207972
0.214275
0.220832
0.218005
0.2236
0.221152
0.223073
0.224209
0.225417
0.228066
0.234743
0.242704
0.248822
0.258054
0.263201
0.272142
0.19934
0.198302
0.198295
0.198559
0.19767
0.195811
0.19256
0.189528
0.186993
0.184414
0.182108
0.180288
0.179706
0.177638
0.176793
0.176261
0.177563
0.176987
0.199323
0.198212
0.197239
0.196571
0.195258
0.19386
0.19152
0.189633
0.187316
0.185888
0.183932
0.182902
0.181215
0.180505
0.178645
0.178021
0.177476
0.17929
0.199357
0.198234
0.197033
0.196186
0.194986
0.193879
0.19235
0.191106
0.189645
0.188652
0.187537
0.186887
0.186061
0.18564
0.185016
0.184702
0.18422
0.183975
0.199369
0.198214
0.197047
0.196046
0.194993
0.193985
0.192896
0.191881
0.190874
0.190001
0.189183
0.188499
0.187847
0.187286
0.186729
0.186227
0.185709
0.18522
0.199376
0.19819
0.197048
0.195993
0.194977
0.194
0.193043
0.192121
0.191245
0.190425
0.189666
0.188968
0.188311
0.1877
0.187112
0.186558
0.186012
0.185492
0.199377
0.198181
0.197047
0.195974
0.194961
0.193992
0.193071
0.192186
0.191349
0.190553
0.189805
0.189099
0.188431
0.187798
0.187193
0.186619
0.186064
0.185535
0.199378
0.198172
0.197037
0.195958
0.194941
0.193972
0.193056
0.192181
0.191352
0.190562
0.189813
0.189102
0.188424
0.18778
0.187164
0.18658
0.186018
0.185486
0.199376
0.198169
0.197029
0.195947
0.194924
0.193952
0.193031
0.192156
0.191324
0.190532
0.189779
0.189063
0.188379
0.187729
0.187107
0.186517
0.185951
0.185414
0.199375
0.198166
0.197021
0.195937
0.19491
0.193935
0.193009
0.192131
0.191294
0.1905
0.189743
0.189022
0.188334
0.18768
0.187054
0.18646
0.185891
0.18535
0.199374
0.198163
0.197016
0.195929
0.194899
0.19392
0.192992
0.192109
0.191271
0.190472
0.189712
0.188988
0.188298
0.18764
0.187013
0.186415
0.185843
0.185299
0.199374
0.198162
0.197012
0.195924
0.19489
0.19391
0.192978
0.192094
0.191252
0.190452
0.189688
0.188963
0.188269
0.18761
0.18698
0.18638
0.185806
0.18526
0.199373
0.19816
0.197011
0.19592
0.194885
0.193902
0.192969
0.192082
0.191238
0.190436
0.189671
0.188943
0.188249
0.187587
0.186956
0.186354
0.185779
0.185231
0.199373
0.19816
0.197009
0.195917
0.194881
0.193897
0.192963
0.192075
0.19123
0.190426
0.18966
0.18893
0.188235
0.187572
0.18694
0.186337
0.185762
0.185212
0.199373
0.198159
0.197008
0.195916
0.194879
0.193896
0.192961
0.192072
0.191227
0.190422
0.189656
0.188926
0.18823
0.187567
0.186935
0.186331
0.185756
0.185206
0.199374
0.198159
0.197008
0.195915
0.194879
0.193894
0.19296
0.192069
0.191225
0.190418
0.189653
0.188922
0.188226
0.187562
0.18693
0.186325
0.18575
0.185199
0.199373
0.198159
0.197007
0.195915
0.194878
0.193894
0.192957
0.192069
0.191221
0.190417
0.189649
0.188919
0.188221
0.187558
0.186924
0.18632
0.185743
0.185193
0.199373
0.19816
0.197008
0.195916
0.19488
0.193895
0.192961
0.19207
0.191225
0.190419
0.189653
0.188922
0.188226
0.187561
0.186929
0.186324
0.185748
0.185197
0.199374
0.198161
0.19701
0.195919
0.194883
0.1939
0.192965
0.192077
0.191232
0.190427
0.189662
0.188931
0.188236
0.187573
0.18694
0.186337
0.185761
0.185211
0.199374
0.198162
0.197013
0.195923
0.194889
0.193907
0.192973
0.192087
0.191243
0.19044
0.189675
0.188947
0.188252
0.187591
0.186959
0.186358
0.185782
0.185234
0.199375
0.198164
0.197017
0.195929
0.194896
0.193916
0.192985
0.192101
0.191259
0.190459
0.189697
0.188971
0.18828
0.187621
0.186993
0.186392
0.185816
0.185263
0.199377
0.198167
0.197023
0.195937
0.194905
0.19393
0.193001
0.192126
0.191289
0.190499
0.189743
0.189029
0.188347
0.187697
0.187073
0.186468
0.185875
0.185293
0.199386
0.198167
0.19703
0.195938
0.19492
0.193964
0.19306
0.192225
0.191414
0.190663
0.189931
0.189251
0.188592
0.18796
0.187327
0.186682
0.186005
0.185301
0.199407
0.198151
0.197024
0.195951
0.195055
0.194223
0.193483
0.192787
0.19209
0.191439
0.19077
0.190152
0.189522
0.18889
0.18818
0.187381
0.186431
0.185378
0.199403
0.198197
0.197223
0.196595
0.196427
0.196195
0.196045
0.195754
0.195423
0.194939
0.194456
0.193889
0.193308
0.192574
0.191698
0.190435
0.188896
0.187006
0.199272
0.200695
0.200856
0.203623
0.20684
0.209235
0.211497
0.212822
0.213924
0.214354
0.214904
0.214976
0.214971
0.214872
0.21479
0.213672
0.212765
0.21019
0.205753
0.217326
0.242028
0.273809
0.305341
0.332868
0.358083
0.377372
0.396793
0.411166
0.427194
0.439289
0.453996
0.465285
0.479375
0.490074
0.502783
0.512397
0.31889
0.832798
1.13749
1.34201
1.45337
1.51123
1.51789
1.50959
1.49102
1.46108
1.42896
1.39689
1.36615
1.33743
1.31091
1.28686
1.26472
1.24494
1.78451e-08
4.39735e-07
2.24147e-06
8.82815e-06
2.9556e-05
9.05195e-05
0.00023531
0.000466464
0.000753889
0.00105569
0.00132559
0.00153391
0.00167297
0.00172173
0.00169902
0.00162723
0.00149522
0.00127411
0.00108429
0.000920586
0.00076619
0.000616044
0.00047209
0.00033825
0.000219983
0.000128823
6.85295e-05
3.46299e-05
1.76825e-05
9.65045e-06
5.86096e-06
4.46028e-06
4.8232e-06
1.01013e-05
2.1594e-05
0.000131139
0.000294501
0.000666291
0.00101497
0.00111523
0.0010281
0.000820243
0.000695444
0.000699487
0.000784266
0.00104337
0.00140652
0.00277424
0.00638722
0.0199274
0.052535
0.0922037
0.11799
0.124121
0.0974559
0.117246
0.113494
0.138044
0.129134
0.132503
0.151461
0.149278
0.155881
0.168386
0.176213
0.185543
0.193243
0.201697
0.209366
0.217322
0.224859
0.232496
0.239886
0.247295
0.254543
0.26177
0.268879
0.275947
0.282919
0.289837
0.296668
0.303436
0.310119
0.316731
0.323254
0.329698
0.336048
0.342308
0.348465
0.35452
0.360462
0.366282
0.37197
0.377515
0.382906
0.388132
0.393184
0.398062
0.402767
0.407326
0.41179
0.416147
0.420334
0.424391
0.428295
0.432056
0.435661
0.439113
0.442404
0.445535
0.4485
0.451299
0.453927
0.456385
0.458669
0.460778
0.462713
0.46447
0.466053
0.467455
0.468686
0.469737
0.470618
0.471321
0.47186
0.472223
0.472431
0.472471
0.472421
0.472219
0.471623
0.47125
0.470224
0.469487
0.468424
0.467416
0.466231
0.464814
0.463216
0.461488
0.459631
0.45766
0.455578
0.453388
0.451095
0.448704
0.446221
0.443652
0.441003
0.438278
0.435482
0.432619
0.429695
0.426719
0.423699
0.420645
0.417563
0.414464
0.411355
0.408247
0.405135
0.402024
0.398915
0.395814
0.392721
0.389645
0.386591
0.383568
0.38058
0.377631
0.374721
0.371843
0.368982
0.366119
0.3632
0.360141
0.35682
0.352917
0.347844
0.332501
8.14198e-08
2.29517e-06
1.55471e-05
6.72394e-05
0.000248564
0.00073478
0.00169879
0.00307661
0.00467278
0.00630986
0.00780109
0.00902362
0.00992175
0.0104885
0.0107518
0.010712
0.0105322
0.0101852
0.00959151
0.00878073
0.00776354
0.00657917
0.00529911
0.00399481
0.00276522
0.0018275
0.00115748
0.000714939
0.000433342
0.000264951
0.000169554
0.000126492
9.51154e-05
0.000158148
0.000192866
0.00140713
0.00307045
0.00649453
0.00952478
0.011241
0.0112336
0.0109369
0.0110351
0.0125087
0.0163169
0.021655
0.0312856
0.0480413
0.073787
0.0986315
0.124186
0.144558
0.160565
0.171807
0.183269
0.19953
0.213793
0.230573
0.24739
0.266268
0.285578
0.303754
0.32302
0.342519
0.360974
0.379626
0.397722
0.415771
0.433494
0.451122
0.468549
0.485882
0.503088
0.520218
0.537259
0.554238
0.571145
0.587996
0.604782
0.621509
0.638167
0.65476
0.671276
0.687715
0.704064
0.72032
0.736469
0.752508
0.768422
0.784206
0.799843
0.815316
0.830608
0.845698
0.860563
0.875176
0.889512
0.903536
0.917217
0.930515
0.943401
0.955966
0.968298
0.980356
0.992147
1.00365
1.01487
1.02577
1.03636
1.04663
1.05655
1.06613
1.07535
1.08421
1.09269
1.10079
1.10849
1.11581
1.12272
1.12922
1.13531
1.14098
1.14624
1.15108
1.15549
1.15948
1.16305
1.16619
1.16892
1.17123
1.17311
1.17463
1.17557
1.17625
1.17652
1.17665
1.17651
1.17614
1.17551
1.17448
1.1731
1.17137
1.16931
1.16691
1.1642
1.16118
1.15785
1.15423
1.15033
1.14616
1.14172
1.13702
1.13208
1.12691
1.12153
1.11595
1.11019
1.10428
1.09823
1.09205
1.08575
1.07934
1.07282
1.0662
1.05949
1.0527
1.04583
1.03892
1.03197
1.02499
1.01798
1.01094
1.00384
0.996651
0.989288
0.98163
0.97347
0.964471
0.952725
0.926646
2.15336e-07
6.43676e-06
4.90693e-05
0.000230101
0.000736457
0.00199798
0.00403739
0.00640349
0.00877287
0.010917
0.0127046
0.0140762
0.0150338
0.0156026
0.0158424
0.0158032
0.0156158
0.0152476
0.0147081
0.0140362
0.0132275
0.0122742
0.0111558
0.00988761
0.00845264
0.00684294
0.00519597
0.00374212
0.00248714
0.00165468
0.0011377
0.00085394
0.000650671
0.000916075
0.00147094
0.00607124
0.0131773
0.0213724
0.0275158
0.0311516
0.0327568
0.0355011
0.0429826
0.0585459
0.0756898
0.0935715
0.113831
0.134963
0.154683
0.175806
0.196402
0.216873
0.237431
0.260301
0.286253
0.313759
0.342105
0.371061
0.39889
0.426832
0.454254
0.481165
0.507684
0.53351
0.558737
0.583506
0.607796
0.631741
0.65536
0.67873
0.701875
0.724846
0.74766
0.770347
0.792918
0.815385
0.837753
0.860026
0.882202
0.904282
0.926258
0.948127
0.969879
0.991509
1.01301
1.03436
1.05556
1.07659
1.09745
1.11812
1.13859
1.15884
1.17886
1.19863
1.21815
1.23738
1.25634
1.27499
1.29334
1.31138
1.32911
1.34653
1.36361
1.38033
1.39668
1.41264
1.4282
1.44333
1.45803
1.47228
1.48607
1.49938
1.5122
1.52452
1.53633
1.54761
1.55836
1.56856
1.57822
1.58732
1.59586
1.60383
1.61123
1.61806
1.62431
1.62999
1.6351
1.63963
1.64359
1.64699
1.64981
1.65207
1.65376
1.65494
1.65552
1.65576
1.65557
1.65483
1.65361
1.65189
1.64968
1.64699
1.64384
1.64022
1.63616
1.63166
1.62674
1.62141
1.61569
1.60959
1.60311
1.59627
1.58909
1.58157
1.57375
1.56564
1.55728
1.54867
1.53985
1.53083
1.52163
1.51226
1.50273
1.49305
1.48323
1.47329
1.46323
1.4531
1.44289
1.43264
1.42236
1.41204
1.40167
1.39123
1.38066
1.36988
1.35871
1.34688
1.33249
1.30806
8.05213e-07
2.42843e-05
0.000190808
0.000752586
0.00229294
0.00529775
0.00889835
0.0123936
0.0154193
0.0178048
0.0195186
0.0206008
0.0211654
0.0212591
0.0211245
0.0207676
0.020207
0.0195344
0.0187803
0.0179589
0.0170715
0.0161133
0.0150667
0.0139113
0.0126257
0.0111896
0.0096254
0.00800084
0.0064781
0.0049898
0.003905
0.00287366
0.00297027
0.00449791
0.0109487
0.024883
0.0388923
0.0501028
0.0587783
0.0670457
0.0773495
0.0907058
0.106182
0.121348
0.137097
0.154105
0.17395
0.195044
0.217977
0.243107
0.26971
0.298099
0.328022
0.359487
0.392082
0.424976
0.458049
0.490903
0.52331
0.555332
0.586778
0.617687
0.648036
0.677804
0.707066
0.735889
0.764328
0.792451
0.820304
0.847937
0.875386
0.902685
0.929855
0.956916
0.983877
1.01075
1.03752
1.06421
1.0908
1.11729
1.14366
1.16992
1.19604
1.22202
1.24785
1.27351
1.29899
1.32427
1.34935
1.37421
1.39884
1.42322
1.44733
1.47118
1.49473
1.51798
1.54092
1.56354
1.58582
1.60774
1.62929
1.65045
1.6712
1.69151
1.71136
1.73074
1.74961
1.76798
1.78581
1.80308
1.81979
1.83592
1.85144
1.86635
1.88063
1.89427
1.90726
1.91959
1.93124
1.94222
1.9525
1.9621
1.97099
1.97919
1.98669
1.99349
1.99959
2.00499
2.00969
2.0137
2.01701
2.01965
2.0216
2.02286
2.02342
2.02353
2.023
2.02182
2.02003
2.01763
2.01464
2.01106
2.00691
2.00221
1.99695
1.99117
1.98486
1.97806
1.97078
1.96302
1.95481
1.94616
1.93709
1.9276
1.91774
1.90752
1.89697
1.88612
1.875
1.86362
1.85202
1.84019
1.82817
1.81596
1.80357
1.79102
1.77833
1.76554
1.75266
1.73972
1.72674
1.71373
1.7007
1.68764
1.67452
1.66131
1.64788
1.63404
1.61817
1.59536
2.71532e-06
8.1361e-05
0.000604318
0.00233419
0.00633755
0.0117307
0.016727
0.0207013
0.0235075
0.0252511
0.0261462
0.0263832
0.0262289
0.0257844
0.0250843
0.0242639
0.0233753
0.0224555
0.0215255
0.0205929
0.0196532
0.0186963
0.0177033
0.0166509
0.0155118
0.0142565
0.0128845
0.0114424
0.0100316
0.00856428
0.00720146
0.00755614
0.0112898
0.0231251
0.0429308
0.062107
0.0781538
0.0908416
0.101673
0.112346
0.123724
0.136061
0.149368
0.164556
0.182826
0.203866
0.22765
0.253931
0.282384
0.312715
0.344473
0.377481
0.411415
0.446035
0.48109
0.516259
0.551445
0.586466
0.621238
0.655707
0.689797
0.723504
0.756807
0.789719
0.822278
0.854526
0.886503
0.918255
0.949819
0.981232
1.01252
1.04372
1.07483
1.10587
1.13685
1.16776
1.19861
1.22938
1.26006
1.29065
1.32113
1.35149
1.38171
1.41178
1.44168
1.4714
1.50091
1.53021
1.55927
1.58809
1.61665
1.64493
1.67292
1.7006
1.72796
1.75497
1.78163
1.80791
1.83379
1.85926
1.88429
1.90885
1.93292
1.95648
1.9795
2.00197
2.02385
2.04514
2.06579
2.08581
2.10515
2.12381
2.14178
2.15902
2.17552
2.19128
2.20628
2.2205
2.23393
2.24657
2.2584
2.26943
2.27964
2.28903
2.29761
2.30537
2.31231
2.31843
2.32374
2.32823
2.33192
2.33481
2.33692
2.33816
2.33864
2.33854
2.33765
2.33602
2.33367
2.33061
2.32687
2.32244
2.31735
2.31162
2.30524
2.29825
2.29066
2.28248
2.27374
2.26445
2.25464
2.24431
2.23348
2.22219
2.21044
2.19827
2.18572
2.17282
2.15958
2.14604
2.13223
2.11816
2.10385
2.08931
2.07457
2.05964
2.04454
2.02932
2.01399
1.99859
1.98316
1.96771
1.95225
1.93681
1.92138
1.90597
1.8905
1.87486
1.85767
1.83536
8.66812e-06
0.000253262
0.00180325
0.00636736
0.0141991
0.0210356
0.0258674
0.0288263
0.030361
0.0309213
0.0308372
0.0303891
0.0295625
0.0285601
0.0274643
0.0263385
0.0252249
0.02415
0.0231247
0.0221482
0.0212097
0.0202927
0.0193718
0.0184162
0.0173911
0.0162332
0.0148888
0.0133354
0.0118665
0.0118631
0.0140874
0.0224527
0.0401149
0.0635514
0.0859651
0.104134
0.117495
0.127385
0.136009
0.14511
0.155595
0.168901
0.185457
0.205152
0.228219
0.254212
0.282642
0.312987
0.344799
0.377795
0.41171
0.446368
0.481607
0.517296
0.553328
0.589578
0.625978
0.662434
0.698873
0.735224
0.771435
0.807477
0.843331
0.878993
0.914476
0.9498
0.984989
1.02007
1.05507
1.09001
1.12492
1.1598
1.19468
1.22954
1.26439
1.29922
1.33402
1.36878
1.40347
1.43809
1.47261
1.507
1.54126
1.57537
1.60929
1.64302
1.67652
1.70979
1.74281
1.77555
1.808
1.84014
1.87196
1.90342
1.93452
1.96523
1.99553
2.02539
2.0548
2.08372
2.11214
2.14002
2.16733
2.19407
2.22019
2.24567
2.27048
2.29461
2.31802
2.3407
2.36261
2.38374
2.40407
2.42358
2.44225
2.46006
2.477
2.49305
2.50821
2.52245
2.53577
2.54817
2.55964
2.57017
2.57976
2.58842
2.59615
2.60294
2.6088
2.61373
2.61774
2.62084
2.62304
2.62424
2.62462
2.62424
2.62299
2.62089
2.61797
2.61425
2.60975
2.60447
2.59845
2.59169
2.58421
2.57602
2.56716
2.55763
2.54746
2.53667
2.52529
2.51332
2.50079
2.48773
2.47415
2.4601
2.44561
2.43071
2.41543
2.3998
2.38386
2.36762
2.3511
2.33433
2.31731
2.30008
2.28267
2.2651
2.24742
2.22966
2.21186
2.19405
2.17627
2.15853
2.14087
2.12332
2.10585
2.08838
2.06974
2.04704
2.77052e-05
0.000758059
0.00487423
0.0148051
0.0241262
0.0300501
0.0332952
0.034814
0.0352301
0.0349789
0.0342301
0.0331027
0.0317834
0.030377
0.0289626
0.0275977
0.0263172
0.0251382
0.0240612
0.0230749
0.0221598
0.0212869
0.0204221
0.0195215
0.0186509
0.0178687
0.0173764
0.0176576
0.0198776
0.0260712
0.0391842
0.0603168
0.0838927
0.105896
0.123483
0.13576
0.144258
0.151422
0.159257
0.16996
0.184117
0.201812
0.22306
0.247508
0.274739
0.304066
0.334944
0.366983
0.399942
0.433676
0.468079
0.503084
0.538639
0.574699
0.61122
0.64815
0.68543
0.722987
0.760759
0.798684
0.83671
0.874796
0.912913
0.951046
0.989187
1.02734
1.06552
1.10373
1.142
1.18032
1.21872
1.2572
1.29576
1.33439
1.37308
1.41181
1.45057
1.48932
1.52805
1.56672
1.60532
1.6438
1.68214
1.72033
1.75833
1.79612
1.83368
1.87097
1.90799
1.9447
1.98109
2.01714
2.05281
2.0881
2.12297
2.15741
2.19137
2.22485
2.2578
2.29021
2.32204
2.35326
2.38385
2.41377
2.44301
2.47152
2.49928
2.52627
2.55245
2.57779
2.60228
2.62589
2.64859
2.67036
2.69118
2.71104
2.72991
2.74779
2.76465
2.78048
2.79527
2.80902
2.82172
2.83336
2.84395
2.85349
2.86196
2.86939
2.87577
2.8811
2.88539
2.88866
2.8909
2.89204
2.89228
2.8916
2.88995
2.88735
2.88384
2.87943
2.87414
2.86799
2.861
2.85319
2.84458
2.83519
2.82503
2.81414
2.80253
2.79023
2.77726
2.76365
2.74942
2.73458
2.71918
2.70325
2.68683
2.66995
2.65264
2.63494
2.61689
2.5985
2.5798
2.56081
2.54155
2.52205
2.50234
2.48246
2.46246
2.44236
2.42223
2.40209
2.38199
2.36197
2.34209
2.32238
2.30285
2.28346
2.26316
2.23945
8.27787e-05
0.00207923
0.0115016
0.0247719
0.0328732
0.0371311
0.0391107
0.0396737
0.039356
0.038397
0.0369734
0.0353077
0.0335359
0.0317664
0.0300783
0.0285245
0.0271306
0.0259018
0.0248269
0.0238857
0.023051
0.02229
0.0215254
0.0208339
0.020385
0.0207257
0.0228492
0.028469
0.0399961
0.0577153
0.0789389
0.100291
0.119809
0.135456
0.146453
0.154103
0.160913
0.169368
0.180827
0.195908
0.21466
0.236802
0.261927
0.289442
0.318746
0.349302
0.380789
0.413042
0.445983
0.479579
0.513819
0.548702
0.584232
0.620407
0.657211
0.694606
0.732549
0.770992
0.809879
0.849152
0.888762
0.928663
0.968821
1.00921
1.04981
1.09062
1.13162
1.17284
1.21425
1.25588
1.29772
1.33976
1.38199
1.4244
1.46696
1.50965
1.55242
1.59525
1.6381
1.68092
1.72368
1.76634
1.80887
1.85124
1.89341
1.93537
1.97707
2.01849
2.0596
2.10037
2.14079
2.18082
2.22044
2.25962
2.29834
2.33657
2.37427
2.41142
2.44798
2.48393
2.51923
2.55385
2.58776
2.62093
2.65332
2.6849
2.71565
2.74552
2.77449
2.80253
2.82961
2.8557
2.88077
2.90481
2.92779
2.94969
2.97049
2.99017
3.00872
3.02612
3.04237
3.05744
3.07134
3.08406
3.09561
3.10598
3.11517
3.12319
3.13003
3.13571
3.14024
3.14363
3.14587
3.1469
3.14695
3.14592
3.14383
3.14068
3.13653
3.13138
3.12526
3.11819
3.11019
3.10129
3.09151
3.08087
3.06939
3.05709
3.04401
3.03017
3.0156
3.00032
2.98435
2.96773
2.95048
2.93266
2.9143
2.89543
2.8761
2.85633
2.83616
2.81563
2.79475
2.77355
2.75205
2.73028
2.70828
2.6861
2.66378
2.64136
2.61889
2.59643
2.57402
2.55171
2.52957
2.50766
2.486
2.46457
2.44241
2.41723
0.000213791
0.00489051
0.0208552
0.0336781
0.0402354
0.043307
0.044385
0.0442061
0.0431999
0.0415652
0.0395774
0.0374192
0.0352402
0.0331604
0.0312631
0.0296013
0.028199
0.0270631
0.0261852
0.0255457
0.0251818
0.0251811
0.0256943
0.0270189
0.0296453
0.0345807
0.0436364
0.0572445
0.0740118
0.0924816
0.110878
0.127358
0.140794
0.150996
0.159015
0.166817
0.176346
0.188846
0.204824
0.224236
0.246736
0.271828
0.29897
0.327617
0.357329
0.387825
0.418983
0.450773
0.483209
0.51632
0.550143
0.584717
0.620073
0.656218
0.693153
0.730862
0.769319
0.808485
0.848316
0.888763
0.929779
0.971321
1.01335
1.05584
1.09876
1.14209
1.18583
1.22997
1.27449
1.31939
1.36466
1.41028
1.45623
1.50248
1.54898
1.59571
1.64261
1.68962
1.7367
1.78379
1.83084
1.87781
1.92464
1.97132
2.01778
2.06401
2.10997
2.15562
2.20092
2.24585
2.29038
2.33449
2.37814
2.4213
2.46394
2.50603
2.54753
2.58841
2.62865
2.66819
2.70702
2.74508
2.78235
2.81878
2.85435
2.88902
2.92275
2.95552
2.98728
3.01801
3.04766
3.07622
3.10365
3.12993
3.15504
3.17894
3.20163
3.22308
3.24327
3.26219
3.27983
3.29617
3.31121
3.32495
3.33739
3.34852
3.35836
3.3669
3.37414
3.3801
3.38479
3.38823
3.39039
3.39126
3.39102
3.38958
3.38697
3.38322
3.37835
3.37239
3.36538
3.35733
3.34826
3.33821
3.32721
3.31526
3.30241
3.28868
3.27409
3.25867
3.24246
3.22547
3.20774
3.18931
3.1702
3.15047
3.13015
3.1093
3.08793
3.06609
3.04381
3.02113
2.99807
2.97465
2.95091
2.92688
2.90261
2.87813
2.85349
2.82875
2.80396
2.77917
2.75444
2.72983
2.7054
2.68124
2.65739
2.63382
2.60966
2.58272
0.000473143
0.00983323
0.0302562
0.0416625
0.0470151
0.0492434
0.049626
0.048813
0.0471507
0.0449501
0.0424522
0.0398672
0.0373685
0.0350924
0.0331315
0.0315444
0.0303532
0.0295554
0.0291816
0.0291605
0.0297093
0.0311416
0.0340893
0.0392484
0.0472274
0.0582193
0.0715138
0.086346
0.101933
0.117134
0.130889
0.142612
0.152443
0.161189
0.170261
0.181076
0.194636
0.211305
0.230992
0.253345
0.277905
0.304199
0.33179
0.360317
0.389546
0.419371
0.449783
0.480822
0.512547
0.545025
0.57832
0.612486
0.647561
0.683573
0.720538
0.758456
0.797313
0.837085
0.877739
0.919238
0.961541
1.00461
1.04841
1.0929
1.13807
1.18388
1.23031
1.27736
1.32499
1.3732
1.42195
1.47122
1.52097
1.57115
1.62172
1.6726
1.72374
1.77507
1.82652
1.87801
1.92948
1.98088
2.03214
2.08323
2.1341
2.18471
2.23502
2.28499
2.33458
2.38374
2.43246
2.48071
2.52845
2.57564
2.62226
2.66825
2.71359
2.75825
2.80217
2.84533
2.88768
2.92918
2.9698
3.00949
3.04822
3.08594
3.12263
3.15825
3.19275
3.22611
3.25829
3.28924
3.31896
3.3474
3.37455
3.40037
3.42486
3.44798
3.46972
3.49006
3.509
3.5265
3.54259
3.55724
3.57046
3.58226
3.59263
3.60158
3.60911
3.61524
3.61999
3.62336
3.62534
3.62598
3.62534
3.62339
3.62017
3.61571
3.61005
3.6032
3.59521
3.58609
3.57589
3.56462
3.55232
3.53902
3.52474
3.50952
3.49337
3.47633
3.45844
3.43971
3.42019
3.39991
3.37891
3.35726
3.33498
3.31212
3.28873
3.26482
3.24043
3.2156
3.19037
3.16474
3.13877
3.11249
3.08594
3.05918
3.03225
3.0052
2.97809
2.95098
2.92393
2.897
2.87026
2.84382
2.81771
2.79195
2.7657
2.7371
0.000894701
0.0168416
0.0384631
0.0489356
0.0536187
0.0552877
0.0551573
0.0538001
0.0516264
0.0489632
0.0460886
0.043246
0.0406357
0.0384146
0.0366957
0.035578
0.0351344
0.0352286
0.0360789
0.0379022
0.0410012
0.045682
0.0521687
0.0605758
0.0708128
0.0825479
0.0952075
0.108119
0.120654
0.132315
0.142911
0.15263
0.162146
0.172438
0.184472
0.198898
0.215964
0.235557
0.257373
0.281031
0.306155
0.332404
0.359503
0.38726
0.415582
0.444461
0.473945
0.504109
0.535039
0.566821
0.599529
0.633225
0.667967
0.703793
0.740734
0.778803
0.818003
0.858323
0.899746
0.942246
0.985793
1.03036
1.0759
1.1224
1.16982
1.21813
1.26731
1.31732
1.36815
1.41975
1.4721
1.52515
1.57883
1.63308
1.68784
1.74301
1.79853
1.85431
1.91025
1.96627
2.02228
2.07821
2.13401
2.18961
2.24497
2.30004
2.35477
2.40912
2.46303
2.51647
2.56941
2.62181
2.67365
2.72489
2.77547
2.82536
2.87451
2.92289
2.97046
3.01718
3.063
3.10788
3.15177
3.19463
3.23642
3.27709
3.31662
3.35497
3.39209
3.42795
3.4625
3.49572
3.52757
3.55802
3.58705
3.61464
3.64076
3.6654
3.68852
3.71012
3.73018
3.74869
3.76565
3.78105
3.79489
3.80718
3.81793
3.82713
3.83481
3.84096
3.84561
3.84878
3.85046
3.85071
3.84954
3.84697
3.84302
3.83775
3.83117
3.82333
3.81426
3.80399
3.79256
3.77999
3.76633
3.7516
3.73583
3.71906
3.70132
3.68262
3.66301
3.64251
3.62116
3.59902
3.57612
3.55254
3.5283
3.50345
3.47803
3.45207
3.4256
3.39865
3.37126
3.34345
3.31527
3.28676
3.25797
3.22896
3.19976
3.17044
3.14105
3.11164
3.08228
3.05304
3.024
2.99526
2.96688
2.93888
2.91048
2.88006
0.00142538
0.0240207
0.0462755
0.0562817
0.0605165
0.0617671
0.0612374
0.0594664
0.0569203
0.0539846
0.0509859
0.0482018
0.0458627
0.0441454
0.0432968
0.0431535
0.0438773
0.045528
0.0482461
0.052165
0.0573856
0.0639518
0.0718221
0.0808726
0.0908535
0.101401
0.112135
0.122729
0.133008
0.142958
0.15281
0.163074
0.174399
0.187365
0.202357
0.219494
0.238672
0.259653
0.282145
0.305865
0.330567
0.35605
0.38217
0.40885
0.436081
0.463905
0.492399
0.52166
0.551785
0.582865
0.614987
0.648225
0.682647
0.718305
0.755242
0.793487
0.833058
0.87396
0.916193
0.959747
1.0046
1.05074
1.09812
1.14672
1.19651
1.24745
1.29952
1.35266
1.40685
1.46203
1.51816
1.57516
1.63297
1.69147
1.75058
1.81021
1.87024
1.93058
1.99113
2.05176
2.11239
2.17294
2.23332
2.29347
2.35335
2.4129
2.47205
2.53076
2.58896
2.64663
2.70374
2.76024
2.8161
2.87129
2.92574
2.97941
3.03226
3.08424
3.13531
3.18544
3.23456
3.28263
3.32961
3.37544
3.42009
3.46351
3.50566
3.54651
3.58601
3.62413
3.66082
3.69605
3.72979
3.762
3.79266
3.82175
3.84925
3.87514
3.89939
3.922
3.94294
3.96221
3.97979
3.9957
4.00994
4.0225
4.0334
4.04265
4.05025
4.05622
4.06058
4.06335
4.06456
4.06424
4.0624
4.05904
4.05422
4.04799
4.04037
4.03142
4.02116
4.00963
3.99687
3.98292
3.96781
3.95158
3.93427
3.91591
3.89652
3.87613
3.85478
3.83248
3.8093
3.78529
3.76051
3.73501
3.70883
3.68202
3.65461
3.62664
3.59813
3.5691
3.5396
3.50965
3.47931
3.44863
3.41766
3.38646
3.35507
3.32353
3.29191
3.26025
3.22863
3.19711
3.1658
3.13479
3.10413
3.0739
3.04334
3.01105
0.00211804
0.0305038
0.0535856
0.063628
0.0677056
0.0687341
0.0679224
0.0658479
0.0630866
0.0601144
0.0573131
0.0549745
0.0533491
0.0526595
0.0526713
0.0537207
0.0557279
0.0587425
0.0627879
0.0678616
0.0739297
0.0809172
0.0887033
0.0971306
0.106015
0.115196
0.124555
0.134048
0.143748
0.153882
0.164794
0.176865
0.190411
0.205617
0.22252
0.241024
0.260955
0.282105
0.304278
0.327302
0.351044
0.375409
0.400346
0.42585
0.451959
0.478745
0.5063
0.534725
0.564126
0.594601
0.626244
0.659141
0.693371
0.729001
0.766085
0.804661
0.844765
0.886421
0.929644
0.974439
1.0208
1.06871
1.11816
1.16911
1.22154
1.2754
1.33065
1.38723
1.44509
1.50416
1.56437
1.62562
1.6878
1.75078
1.81442
1.87862
1.94325
2.00821
2.07337
2.13862
2.20386
2.26898
2.3339
2.39856
2.4629
2.52683
2.59028
2.65321
2.71556
2.7773
2.83839
2.8988
2.95849
3.0174
3.0755
3.13271
3.18899
3.24429
3.29858
3.35181
3.40393
3.45488
3.50461
3.55307
3.60022
3.64603
3.69044
3.73342
3.77494
3.81494
3.85339
3.89025
3.92549
3.95908
3.99099
4.02121
4.04972
4.07649
4.10152
4.12477
4.14624
4.16592
4.18381
4.19991
4.21422
4.22675
4.23751
4.24651
4.25377
4.25929
4.26312
4.26526
4.26577
4.26469
4.26195
4.25762
4.25176
4.24441
4.23561
4.2254
4.21382
4.20092
4.18673
4.1713
4.15466
4.13687
4.11795
4.09795
4.07689
4.0548
4.03169
4.0076
3.98259
3.95674
3.9301
3.90273
3.87466
3.84594
3.81661
3.78669
3.75622
3.72519
3.69365
3.66165
3.62924
3.59648
3.56343
3.53014
3.49664
3.46299
3.42923
3.39541
3.3616
3.3279
3.29438
3.26116
3.22829
3.19586
3.16318
3.12906
0.00294378
0.0364964
0.0609722
0.0712041
0.0751907
0.0760555
0.07502
0.0727076
0.0698088
0.0669728
0.0646574
0.0631474
0.0625271
0.0625641
0.0636055
0.0656062
0.0685082
0.0722763
0.0768724
0.0822489
0.0883406
0.095072
0.102366
0.11016
0.118404
0.127078
0.136214
0.145916
0.15635
0.167712
0.180198
0.193955
0.209046
0.225456
0.243102
0.261861
0.281597
0.30218
0.323504
0.345488
0.368081
0.391266
0.415054
0.439483
0.46462
0.490555
0.517389
0.545225
0.574162
0.604303
0.63575
0.668597
0.702933
0.738836
0.776375
0.815611
0.856597
0.899377
0.943983
0.990436
1.03874
1.0889
1.14089
1.19469
1.25026
1.30755
1.36651
1.42705
1.48908
1.55249
1.61717
1.68299
1.74981
1.81743
1.88571
1.95449
2.02364
2.09308
2.16269
2.23238
2.30202
2.37151
2.44078
2.50973
2.5783
2.64637
2.71384
2.78068
2.84685
2.91231
2.97703
3.04098
3.1041
3.16634
3.22765
3.28796
3.34721
3.40537
3.46239
3.51822
3.57282
3.62612
3.67808
3.72864
3.77775
3.82539
3.87151
3.91607
3.95904
4.00038
4.04004
4.07799
4.11419
4.14861
4.18125
4.21208
4.24108
4.26824
4.29353
4.31696
4.3385
4.35814
4.3759
4.39176
4.40575
4.41786
4.42811
4.4365
4.44307
4.44784
4.45082
4.45205
4.45161
4.44951
4.44562
4.4401
4.433
4.42435
4.4142
4.40259
4.38957
4.37517
4.35945
4.34244
4.32421
4.30478
4.28421
4.26253
4.23979
4.216
4.19116
4.16529
4.1385
4.11087
4.08245
4.05327
4.0234
3.99286
3.9617
3.92994
3.89761
3.86471
3.83124
3.79731
3.76296
3.72827
3.69328
3.65803
3.62258
3.58695
3.55118
3.51533
3.47947
3.44369
3.40809
3.37277
3.33779
3.30326
3.26854
3.23271
0.00381455
0.0424729
0.0681429
0.078686
0.0826582
0.0833908
0.0820104
0.0794081
0.0765669
0.0741739
0.0726326
0.0720049
0.0719887
0.0728427
0.0745897
0.0771793
0.0805422
0.0846256
0.089385
0.0947839
0.100791
0.107389
0.114565
0.122321
0.130687
0.13972
0.149503
0.160127
0.171695
0.18429
0.197949
0.212677
0.228437
0.245157
0.262753
0.281142
0.300249
0.32002
0.34042
0.361438
0.38308
0.405374
0.428369
0.452138
0.476756
0.502301
0.528882
0.556604
0.585578
0.615911
0.647714
0.681089
0.71614
0.752957
0.791625
0.832222
0.874819
0.919479
0.966253
1.01518
1.06625
1.11948
1.17483
1.23228
1.29179
1.35328
1.41666
1.48181
1.54859
1.61682
1.68631
1.75689
1.82839
1.90062
1.97338
2.04647
2.11972
2.19314
2.2667
2.34034
2.41389
2.48726
2.56039
2.63315
2.70545
2.77714
2.8481
2.91835
2.98785
3.05652
3.12433
3.19123
3.25718
3.32212
3.38599
3.44872
3.51026
3.57056
3.62958
3.68728
3.74361
3.79851
3.85193
3.90382
3.95413
4.00283
4.04988
4.09526
4.13893
4.18084
4.22096
4.25925
4.29568
4.33023
4.36288
4.39363
4.42245
4.44933
4.47427
4.49725
4.51826
4.53729
4.55436
4.56946
4.5826
4.59381
4.60308
4.61044
4.6159
4.61951
4.62128
4.62126
4.61961
4.61606
4.61077
4.60382
4.59523
4.58507
4.57337
4.56017
4.54553
4.5295
4.51211
4.49342
4.47348
4.45233
4.43003
4.40662
4.38214
4.35663
4.33008
4.30253
4.27407
4.24476
4.21466
4.1838
4.15224
4.12
4.08714
4.05368
4.01966
3.98504
3.94983
3.91415
3.87806
3.84162
3.80487
3.76786
3.73063
3.69321
3.65563
3.61791
3.58017
3.54251
3.505
3.46775
3.43082
3.39434
3.35771
3.32035
0.00472474
0.0484044
0.0751572
0.0859244
0.0898305
0.0903864
0.0886149
0.085887
0.0833465
0.0815935
0.0808011
0.0806617
0.0812592
0.0826392
0.0848374
0.0877868
0.0914291
0.0957275
0.100662
0.106229
0.112432
0.119286
0.126821
0.135077
0.144103
0.153949
0.164664
0.176283
0.188817
0.202249
0.216566
0.231728
0.247672
0.264342
0.28169
0.299686
0.318314
0.337577
0.357482
0.378058
0.399351
0.421436
0.444416
0.468365
0.493289
0.519274
0.546507
0.575077
0.605095
0.636672
0.669921
0.704955
0.741886
0.780812
0.821827
0.865016
0.910461
0.958227
1.00838
1.06096
1.11595
1.1733
1.23297
1.29491
1.35905
1.42531
1.49358
1.56371
1.63551
1.70871
1.78296
1.85804
1.93378
2.0101
2.08679
2.16362
2.2404
2.31729
2.39422
2.47103
2.54761
2.62396
2.70011
2.77584
2.85097
2.92541
2.99912
3.07201
3.14398
3.21497
3.28493
3.35383
3.42162
3.48824
3.55362
3.6177
3.68043
3.74177
3.80168
3.86014
3.91709
3.97248
4.02625
4.07836
4.12876
4.17742
4.22433
4.26946
4.31278
4.35425
4.39383
4.43147
4.46717
4.5009
4.53265
4.56243
4.59022
4.61602
4.6398
4.66158
4.68133
4.69906
4.71478
4.7285
4.74022
4.74996
4.75775
4.76358
4.7675
4.76953
4.7697
4.76825
4.76485
4.75963
4.7527
4.74407
4.73381
4.72196
4.70857
4.69367
4.67733
4.65958
4.64048
4.62008
4.59843
4.57557
4.55157
4.52646
4.50029
4.4731
4.44496
4.41589
4.38593
4.35512
4.32351
4.29114
4.25805
4.2243
4.18991
4.15493
4.11939
4.08327
4.04658
4.00941
3.97183