/*--------------------------------*- C++ -*----------------------------------*\
  =========                 |
  \\      /  F ield         | OpenFOAM: The Open Source CFD Toolbox
   \\    /   O peration     | Website:  https://openfoam.org
    \\  /    A nd           | Version:  8
     \\/     M anipulation  |
\*---------------------------------------------------------------------------*/
FoamFile
{
    version     2.0;
    format      ascii;
    class       volScalarField;
    location    "500";
    object      nut;
}
// * * * * * * * * * * * * * * * * * * * * * * * * * * * * * * * * * * * * * //

dimensions      [0 2 -1 0 0 0 0];

internalField   nonuniform List<scalar> 
12225
(
2.95518e-06
1.46588e-05
2.34465e-05
3.63584e-05
3.58022e-05
3.29452e-05
3.6596e-05
2.76024e-05
2.37086e-05
1.80146e-05
2.46221e-05
2.78999e-05
2.89781e-05
2.64007e-05
3.12423e-05
3.33778e-05
2.7536e-05
2.08376e-05
0.000132898
3.90051e-05
3.24638e-05
3.56721e-05
3.6353e-05
3.4113e-05
4.0116e-05
3.76666e-05
3.72334e-05
3.83147e-05
3.65058e-05
3.9643e-05
4.26166e-05
4.30847e-05
4.3758e-05
4.46431e-05
4.64439e-05
4.6351e-05
0.000418099
0.000180625
0.000121031
7.91964e-05
6.05095e-05
4.69126e-05
4.17867e-05
3.69563e-05
3.35433e-05
3.20558e-05
2.99777e-05
2.91048e-05
2.968e-05
3.04251e-05
3.09183e-05
3.21516e-05
3.2419e-05
3.30697e-05
0.000442458
0.000372293
0.000334458
0.000261124
0.000208256
0.000165111
0.00013081
0.000114307
9.70759e-05
8.85152e-05
7.952e-05
7.51765e-05
7.03073e-05
6.73183e-05
6.3347e-05
6.17911e-05
6.23445e-05
6.22273e-05
0.000457362
0.00044188
0.000425862
0.000409133
0.000369586
0.00033158
0.000285337
0.000257546
0.000228613
0.000213651
0.000196883
0.000189371
0.000177299
0.000172656
0.000160603
0.000156286
0.000152607
0.000155628
0.000454998
0.000453122
0.000448613
0.000445384
0.00043665
0.00042066
0.000394843
0.000376817
0.000353876
0.000339415
0.000324504
0.000316106
0.00030578
0.000300758
0.000290983
0.000287154
0.000278819
0.000281196
0.000454325
0.00045368
0.000453093
0.000452836
0.000450753
0.000447266
0.000439648
0.000431809
0.000423056
0.000415968
0.00040833
0.000403231
0.00039732
0.000393044
0.000388053
0.000384806
0.000379408
0.000378574
0.000454225
0.000453661
0.000453302
0.000452918
0.000452492
0.000451073
0.000449482
0.000446927
0.000443764
0.000440815
0.000437787
0.000435247
0.000432456
0.000429852
0.000427996
0.000425311
0.000422995
0.000421844
0.000454209
0.000453658
0.000453343
0.000452814
0.000452607
0.000451875
0.000451313
0.000450388
0.00044952
0.000448452
0.000447556
0.00044671
0.000445794
0.000445002
0.000444289
0.000443561
0.000442893
0.000442043
0.000454185
0.000453677
0.000453311
0.000452838
0.000452525
0.000452072
0.000451726
0.000451254
0.000450894
0.000450433
0.000450084
0.000449702
0.00044938
0.000449026
0.000448745
0.000448399
0.000448129
0.000447762
0.000454168
0.000453689
0.000453286
0.000452852
0.000452491
0.000452098
0.000451767
0.000451404
0.000451098
0.000450769
0.000450487
0.000450197
0.000449939
0.000449675
0.000449437
0.000449192
0.000448967
0.000448734
0.000454159
0.000453694
0.00045327
0.000452852
0.00045247
0.000452094
0.000451748
0.000451408
0.000451093
0.000450786
0.000450498
0.000450219
0.000449956
0.000449702
0.00044946
0.000449228
0.000449006
0.000448792
0.000454155
0.000453694
0.000453261
0.000452847
0.000452457
0.000452083
0.00045173
0.000451391
0.000451071
0.000450763
0.000450471
0.00045019
0.000449923
0.000449667
0.000449422
0.000449188
0.000448964
0.00044875
0.000454154
0.000453693
0.000453258
0.000452843
0.000452449
0.000452074
0.000451718
0.000451378
0.000451054
0.000450745
0.00045045
0.000450168
0.000449898
0.00044964
0.000449393
0.000449158
0.000448932
0.000448716
0.000454155
0.000453695
0.000453261
0.000452846
0.000452454
0.000452079
0.000451724
0.000451383
0.000451061
0.000450751
0.000450458
0.000450175
0.000449907
0.000449648
0.000449404
0.000449167
0.000448943
0.000448725
0.000454165
0.000453724
0.000453309
0.000452909
0.000452534
0.000452171
0.000451832
0.000451501
0.000451193
0.000450892
0.000450611
0.000450335
0.00045008
0.000449825
0.000449593
0.000449359
0.000449148
0.000448931
0.000454192
0.000453805
0.000453435
0.000453082
0.000452744
0.000452422
0.000452115
0.00045182
0.000451539
0.000451269
0.000451011
0.000450763
0.000450525
0.000450297
0.000450079
0.000449869
0.000449669
0.000449476
0.000454192
0.000453804
0.000453433
0.00045308
0.000452742
0.000452419
0.000452112
0.000451816
0.000451534
0.000451264
0.000451005
0.000450756
0.000450518
0.00045029
0.00045007
0.000449861
0.000449658
0.000449467
0.000454163
0.000453723
0.000453302
0.000452905
0.000452523
0.000452163
0.000451816
0.00045149
0.000451173
0.000450875
0.000450586
0.000450314
0.000450049
0.000449801
0.000449558
0.000449331
0.000449108
0.000448901
0.000454153
0.000453694
0.000453257
0.000452841
0.000452446
0.000452069
0.000451711
0.000451368
0.000451042
0.00045073
0.000450433
0.000450148
0.000449876
0.000449616
0.000449367
0.00044913
0.000448902
0.000448684
0.000454153
0.000453693
0.000453255
0.000452838
0.000452441
0.000452064
0.000451704
0.000451361
0.000451034
0.000450721
0.000450422
0.000450137
0.000449863
0.000449602
0.000449352
0.000449113
0.000448884
0.000448665
0.000454152
0.000453696
0.000453256
0.000452844
0.000452445
0.000452072
0.00045171
0.000451371
0.000451042
0.000450733
0.000450432
0.000450149
0.000449873
0.000449614
0.00044936
0.000449122
0.000448885
0.000448661
0.000454153
0.0004537
0.000453257
0.000452853
0.000452448
0.000452086
0.000451714
0.000451386
0.000451041
0.000450733
0.000450412
0.000450119
0.000449816
0.000449539
0.000449241
0.000448968
0.000448653
0.000448342
0.000454166
0.000453695
0.000453266
0.000452859
0.000452441
0.000452068
0.000451634
0.000451271
0.000450779
0.000450354
0.000449792
0.000449302
0.000448683
0.00044812
0.000447411
0.000446719
0.000445838
0.000444768
0.000454226
0.000453709
0.000453312
0.000452687
0.000451963
0.000451037
0.000449998
0.000448786
0.000446934
0.000445016
0.000442781
0.000440548
0.000437707
0.000435297
0.00043202
0.0004293
0.000425422
0.000421948
0.000454809
0.000454267
0.000452859
0.000448802
0.000443574
0.000437008
0.000431638
0.000423279
0.000414129
0.000404875
0.000394695
0.000385923
0.000376012
0.000368116
0.000358499
0.000351095
0.000341356
0.000333621
0.000463552
0.000452948
0.000437272
0.000405235
0.000378423
0.000346594
0.000319674
0.000293609
0.000272469
0.000253345
0.000237598
0.000223946
0.000212137
0.000202211
0.000192801
0.000184996
0.000176731
0.000169955
0.000538734
0.000378134
0.000301156
0.000218709
0.00016586
0.000134052
0.000113978
0.000100175
9.02806e-05
8.29046e-05
7.72399e-05
7.29159e-05
6.92436e-05
6.6574e-05
6.40474e-05
6.20563e-05
5.99701e-05
5.81515e-05
0.000351433
9.39167e-05
6.11124e-05
4.97428e-05
4.53017e-05
4.31745e-05
4.25758e-05
4.22672e-05
4.26637e-05
4.29645e-05
4.38249e-05
4.45122e-05
4.56815e-05
4.6626e-05
4.79952e-05
4.90734e-05
5.03126e-05
5.02403e-05
4.41665e-06
1.16219e-05
1.6025e-05
1.91185e-05
2.09462e-05
2.2031e-05
2.23769e-05
2.24964e-05
2.24506e-05
2.22159e-05
2.19277e-05
2.16203e-05
2.13141e-05
2.10221e-05
2.07484e-05
2.04995e-05
2.02684e-05
2.00634e-05
1.55672e-12
1.76271e-10
8.97712e-10
3.5325e-09
1.18159e-08
3.61547e-08
9.38995e-08
1.85968e-07
3.00276e-07
4.20087e-07
5.26987e-07
6.09217e-07
6.63805e-07
6.82486e-07
6.72822e-07
6.43754e-07
5.90938e-07
5.03046e-07
4.27666e-07
3.62725e-07
3.01579e-07
2.42227e-07
1.8543e-07
1.32719e-07
8.62224e-08
5.04377e-08
2.68021e-08
1.3529e-08
6.9005e-09
3.76184e-09
2.2821e-09
1.73475e-09
1.87376e-09
3.91971e-09
8.36965e-09
5.07689e-08
1.13878e-07
2.57336e-07
3.91535e-07
4.29691e-07
3.95634e-07
3.1526e-07
2.66962e-07
2.68178e-07
3.00302e-07
3.99008e-07
5.37196e-07
1.0582e-06
2.43315e-06
7.58119e-06
1.99599e-05
3.49846e-05
4.47082e-05
4.69676e-05
3.03542e-05
3.57831e-05
3.21375e-05
3.601e-05
3.14317e-05
3.04243e-05
3.30697e-05
3.11544e-05
3.12433e-05
3.25937e-05
3.30484e-05
3.38008e-05
3.42829e-05
3.49195e-05
3.5437e-05
3.60177e-05
3.65406e-05
3.70905e-05
3.76101e-05
3.8141e-05
3.86552e-05
3.91736e-05
3.96821e-05
4.0192e-05
4.06955e-05
4.11992e-05
4.16987e-05
4.21979e-05
4.2694e-05
4.31897e-05
4.3683e-05
4.41759e-05
4.46666e-05
4.51568e-05
4.56452e-05
4.6133e-05
4.6619e-05
4.7103e-05
4.75844e-05
4.80629e-05
4.85382e-05
4.90099e-05
4.9478e-05
4.99435e-05
5.04081e-05
5.08759e-05
5.13528e-05
5.18364e-05
5.23192e-05
5.28079e-05
5.33009e-05
5.38002e-05
5.43054e-05
5.48177e-05
5.53371e-05
5.58647e-05
5.64006e-05
5.69459e-05
5.7501e-05
5.80667e-05
5.86439e-05
5.92333e-05
5.9836e-05
6.04525e-05
6.10846e-05
6.17324e-05
6.23983e-05
6.30822e-05
6.37869e-05
6.45124e-05
6.5262e-05
6.60358e-05
6.68379e-05
6.76684e-05
6.85402e-05
6.94462e-05
7.03527e-05
7.13538e-05
7.23207e-05
7.34002e-05
7.45011e-05
7.56862e-05
7.69177e-05
7.74245e-05
7.71793e-05
7.69228e-05
7.6655e-05
7.63769e-05
7.6089e-05
7.57911e-05
7.54841e-05
7.51678e-05
7.48431e-05
7.45103e-05
7.41699e-05
7.38223e-05
7.34678e-05
7.31069e-05
7.27399e-05
7.23677e-05
7.19909e-05
7.16104e-05
7.12265e-05
7.08404e-05
7.04525e-05
7.00639e-05
6.96739e-05
6.92832e-05
6.88918e-05
6.85e-05
6.8108e-05
6.77165e-05
6.7326e-05
6.69372e-05
6.65505e-05
6.61663e-05
6.57845e-05
6.54046e-05
6.50252e-05
6.46446e-05
6.4258e-05
6.3858e-05
6.34337e-05
6.29563e-05
6.23725e-05
6.08542e-05
7.10266e-12
1.1518e-09
1.56827e-08
8.37963e-08
3.63564e-07
1.18611e-06
2.71394e-06
4.94938e-06
7.66747e-06
1.07556e-05
1.3866e-05
1.67419e-05
1.91689e-05
2.09721e-05
2.20259e-05
2.23147e-05
2.19496e-05
2.12192e-05
1.87805e-05
1.57201e-05
1.20827e-05
8.847e-06
6.21019e-06
4.15375e-06
2.61227e-06
1.6134e-06
9.84547e-07
6.1105e-07
3.83341e-07
2.51523e-07
1.81728e-07
1.61422e-07
1.45837e-07
2.79034e-07
3.86083e-07
3.04903e-06
6.77104e-06
1.40993e-05
1.98114e-05
2.19408e-05
2.06707e-05
1.89817e-05
1.65575e-05
1.57969e-05
1.64867e-05
1.66384e-05
1.94254e-05
2.63375e-05
3.75967e-05
4.84819e-05
6.04157e-05
7.05084e-05
7.97909e-05
8.65722e-05
9.25953e-05
0.0001046
0.000115349
0.000127997
0.000139306
0.000156026
0.000168616
0.000180526
0.000194626
0.000206923
0.000219202
0.000230581
0.000241666
0.000252335
0.000262613
0.000272553
0.000282229
0.000291612
0.000300797
0.000309754
0.000318549
0.000327168
0.000335649
0.000343989
0.000352207
0.000360306
0.000368294
0.000376177
0.000383956
0.000391638
0.000399222
0.000406714
0.000414112
0.000421423
0.000428645
0.000435781
0.000442831
0.000449792
0.000456657
0.000463415
0.000470052
0.000476543
0.00048285
0.000488923
0.000494682
0.000500019
0.000504794
0.000509245
0.00051366
0.000517921
0.000522079
0.00052611
0.00053002
0.000533803
0.000537457
0.000540979
0.000544366
0.000547616
0.000550725
0.000553691
0.000556512
0.000559186
0.000561711
0.000564084
0.000566305
0.000568371
0.000570281
0.000572035
0.000573631
0.000575068
0.000576345
0.000577461
0.000578415
0.000579206
0.000579836
0.000580325
0.00058063
0.000580839
0.000580768
0.000580647
0.000580321
0.000580004
0.000579692
0.000579529
0.00057931
0.000578952
0.000578468
0.000577861
0.000577136
0.000576295
0.000575341
0.000574274
0.000573099
0.000571818
0.000570434
0.00056895
0.000567366
0.000565684
0.000563905
0.00056203
0.000560078
0.000558044
0.000555937
0.000553762
0.000551526
0.000549233
0.000546885
0.000544484
0.000542031
0.000539527
0.000536971
0.000534368
0.000531721
0.000529036
0.000526315
0.00052356
0.000520771
0.000517939
0.000515049
0.00051209
0.000508986
0.00050567
0.000502011
0.000497711
0.000492035
0.000476355
1.87849e-11
3.20272e-09
6.02392e-08
3.58938e-07
1.08557e-06
2.95212e-06
6.23611e-06
1.08237e-05
1.64902e-05
2.29183e-05
2.97517e-05
3.64819e-05
4.25342e-05
4.75601e-05
5.13493e-05
5.38388e-05
5.51581e-05
5.54364e-05
5.38323e-05
5.09259e-05
4.62469e-05
4.02869e-05
3.31185e-05
2.59754e-05
1.94212e-05
1.38267e-05
9.35476e-06
6.22244e-06
3.93188e-06
2.62405e-06
1.86506e-06
1.50085e-06
1.28167e-06
2.08062e-06
3.77513e-06
1.60062e-05
3.3838e-05
5.18033e-05
6.1124e-05
5.97265e-05
4.87558e-05
3.99525e-05
3.93094e-05
4.58467e-05
5.30401e-05
6.23885e-05
7.5157e-05
8.74062e-05
0.000100132
0.000117186
0.000135583
0.000156034
0.000177896
0.000202249
0.000230061
0.000260804
0.000292147
0.000323608
0.000353664
0.00038363
0.000411627
0.000438051
0.000464764
0.000489197
0.000512992
0.000535807
0.000557609
0.00057859
0.000598926
0.000618655
0.000637893
0.000656665
0.000675059
0.00069309
0.000710814
0.000728244
0.000745412
0.000762327
0.000779008
0.000795462
0.000811698
0.000827722
0.000843539
0.000859152
0.000874562
0.000889771
0.000904779
0.000919585
0.000934187
0.000948581
0.000962759
0.000976709
0.000990415
0.00100385
0.001017
0.00102982
0.00104227
0.00105432
0.00106592
0.00107706
0.00108778
0.00109826
0.00110852
0.00111852
0.00112827
0.00113775
0.00114697
0.00115591
0.00116457
0.00117294
0.00118101
0.00118879
0.00119625
0.00120341
0.00121025
0.00121677
0.00122296
0.00122883
0.00123436
0.00123956
0.00124442
0.00124895
0.00125313
0.00125698
0.00126048
0.00126364
0.00126646
0.00126894
0.00127108
0.0012729
0.00127438
0.00127555
0.00127635
0.00127689
0.00127707
0.00127716
0.0012771
0.00127686
0.00127636
0.00127559
0.00127453
0.0012732
0.0012716
0.00126974
0.00126762
0.00126526
0.00126265
0.00125981
0.00125674
0.00125344
0.00124991
0.00124617
0.00124221
0.00123805
0.00123369
0.00122915
0.00122445
0.00121959
0.00121459
0.00120947
0.00120422
0.00119886
0.00119338
0.00118779
0.0011821
0.0011763
0.00117042
0.00116445
0.00115841
0.00115231
0.00114613
0.00113988
0.0011335
0.00112696
0.00112015
0.00111289
0.0011049
0.00109544
0.00108265
0.00105421
7.02428e-11
1.18992e-08
1.87617e-07
7.71928e-07
2.56325e-06
6.9208e-06
1.371e-05
2.2827e-05
3.35519e-05
4.47859e-05
5.5617e-05
6.54973e-05
7.39543e-05
8.03815e-05
8.52161e-05
8.82644e-05
8.94768e-05
8.92074e-05
8.75758e-05
8.43902e-05
7.98116e-05
7.42712e-05
6.68985e-05
5.81104e-05
4.84168e-05
3.86988e-05
2.97732e-05
2.23576e-05
1.66628e-05
1.21221e-05
9.3401e-06
6.97694e-06
7.61259e-06
1.15095e-05
2.56724e-05
4.8428e-05
6.69104e-05
7.57822e-05
7.36156e-05
7.11983e-05
7.16769e-05
7.56251e-05
8.34836e-05
9.46073e-05
0.00010931
0.000120824
0.000139994
0.000162793
0.000188734
0.000220536
0.000254914
0.000293151
0.000333665
0.000376553
0.000421138
0.000466015
0.000510397
0.000553357
0.000595242
0.000635323
0.000673721
0.000710528
0.00074633
0.000780624
0.000813596
0.000845405
0.000876174
0.000906059
0.000935183
0.000963623
0.00099147
0.00101878
0.00104561
0.00107201
0.00109801
0.00112362
0.00114888
0.0011738
0.00119838
0.00122264
0.00124657
0.00127019
0.0012935
0.00131649
0.00133916
0.00136152
0.00138355
0.00140527
0.00142665
0.00144769
0.00146838
0.00148871
0.00150866
0.00152821
0.00154733
0.00156601
0.00158424
0.00160199
0.00161926
0.00163608
0.00165249
0.00166856
0.00168426
0.00169958
0.00171452
0.00172905
0.00174318
0.00175689
0.00177017
0.00178301
0.00179541
0.00180736
0.00181884
0.00182986
0.00184041
0.00185048
0.00186007
0.00186916
0.00187777
0.00188588
0.00189349
0.0019006
0.00190722
0.00191333
0.00191894
0.00192406
0.00192868
0.00193281
0.00193645
0.00193961
0.00194229
0.0019445
0.00194623
0.00194749
0.00194828
0.00194887
0.00194909
0.00194893
0.00194836
0.00194737
0.00194597
0.00194416
0.00194195
0.00193936
0.00193639
0.00193304
0.00192934
0.00192528
0.00192088
0.00191614
0.00191107
0.00190567
0.00189994
0.00189391
0.00188759
0.001881
0.00187415
0.00186707
0.00185978
0.00185229
0.00184461
0.00183675
0.00182872
0.00182051
0.00181215
0.00180363
0.00179497
0.00178619
0.0017773
0.00176832
0.00175923
0.00175003
0.00174066
0.00173106
0.0017211
0.00171056
0.00169907
0.00168558
0.00166761
0.00163385
2.36871e-10
3.50183e-08
4.12142e-07
1.98766e-06
6.81052e-06
1.63296e-05
3.0212e-05
4.66493e-05
6.37166e-05
7.97624e-05
9.36492e-05
0.000104505
0.000112523
0.000117981
0.000120968
0.000122088
0.000121587
0.000119725
0.000116706
0.000112517
0.000107185
0.000101239
9.38828e-05
8.52458e-05
7.5267e-05
6.42795e-05
5.31181e-05
4.30282e-05
3.46721e-05
2.78337e-05
2.2137e-05
2.08115e-05
2.61875e-05
4.33354e-05
6.69113e-05
8.23426e-05
9.00663e-05
9.36841e-05
9.67161e-05
0.000101989
0.000111041
0.000124796
0.000138007
0.00015086
0.000172204
0.000200812
0.000232418
0.000270618
0.000312906
0.000359913
0.000409219
0.000461239
0.000514453
0.000568551
0.00062274
0.000676116
0.000728372
0.000779027
0.000828053
0.000875552
0.000921423
0.000965979
0.00100899
0.00105062
0.00109097
0.0011302
0.0011684
0.00120572
0.00124224
0.00127804
0.0013132
0.00134776
0.00138179
0.00141532
0.00144836
0.00148094
0.00151308
0.00154478
0.00157606
0.0016069
0.00163732
0.00166731
0.00169688
0.00172601
0.00175472
0.001783
0.00181083
0.00183822
0.00186516
0.00189165
0.00191766
0.0019432
0.00196826
0.0019928
0.00201684
0.00204036
0.00206335
0.00208582
0.00210778
0.00212924
0.00215023
0.00217075
0.00219079
0.00221033
0.00222937
0.00224789
0.00226588
0.00228334
0.00230025
0.0023166
0.00233238
0.00234759
0.00236222
0.00237625
0.0023897
0.00240255
0.00241479
0.00242642
0.00243744
0.00244784
0.00245763
0.0024668
0.00247535
0.00248329
0.00249061
0.00249733
0.00250343
0.00250894
0.00251386
0.00251818
0.00252191
0.00252506
0.00252765
0.00252961
0.00253104
0.00253214
0.00253272
0.00253279
0.00253235
0.00253139
0.00252993
0.00252796
0.00252551
0.00252257
0.00251917
0.0025153
0.00251099
0.00250623
0.00250105
0.00249545
0.00248942
0.00248299
0.00247616
0.00246893
0.00246134
0.00245341
0.00244514
0.00243658
0.00242774
0.00241863
0.00240928
0.00239969
0.00238987
0.00237983
0.00236957
0.0023591
0.00234845
0.00233764
0.00232667
0.00231556
0.0023043
0.00229289
0.00228129
0.00226942
0.00225717
0.00224431
0.00223044
0.00221452
0.00219374
0.00215968
7.56164e-10
8.64534e-08
1.04927e-06
5.33082e-06
1.72711e-05
3.62852e-05
5.90021e-05
8.21151e-05
0.000102302
0.000118191
0.000129956
0.000138471
0.00014366
0.000146429
0.000147287
0.000146608
0.000144641
0.000141581
0.000137562
0.000132543
0.000126656
0.000120193
0.000112557
0.000103873
9.24662e-05
7.71197e-05
6.22667e-05
4.84549e-05
3.73625e-05
3.27966e-05
3.4005e-05
4.58076e-05
6.71692e-05
8.83168e-05
0.00010313
0.00011222
0.000118225
0.000124793
0.000135329
0.000151807
0.0001631
0.000176654
0.000199908
0.000228692
0.000263781
0.00030567
0.000352027
0.000403771
0.000458392
0.000515874
0.000574782
0.0006349
0.000695277
0.000755529
0.000815142
0.000873678
0.00093055
0.000986154
0.00104063
0.00109349
0.00114481
0.00119479
0.00124339
0.00129071
0.00133686
0.00138195
0.00142606
0.0014693
0.00151174
0.00155345
0.00159448
0.00163489
0.00167471
0.00171395
0.00175266
0.00179082
0.00182845
0.00186556
0.00190214
0.0019382
0.00197372
0.00200872
0.00204318
0.0020771
0.00211048
0.00214332
0.00217562
0.00220736
0.00223855
0.00226918
0.00229925
0.00232875
0.00235767
0.002386
0.00241375
0.00244091
0.00246748
0.00249348
0.0025189
0.00254375
0.00256804
0.00259175
0.00261489
0.00263744
0.00265938
0.00268072
0.00270144
0.00272153
0.00274098
0.00275979
0.00277793
0.00279541
0.00281223
0.00282837
0.00284383
0.00285862
0.00287272
0.00288613
0.00289885
0.00291087
0.00292221
0.00293285
0.00294281
0.00295207
0.00296066
0.00296856
0.0029758
0.00298236
0.00298827
0.00299355
0.00299812
0.00300206
0.00300539
0.00300799
0.00301005
0.00301166
0.00301266
0.00301309
0.00301293
0.00301221
0.00301092
0.00300908
0.00300669
0.00300376
0.0030003
0.00299633
0.00299186
0.00298689
0.00298144
0.0029755
0.0029691
0.00296223
0.0029549
0.00294712
0.00293893
0.00293033
0.00292135
0.00291202
0.00290235
0.00289237
0.00288209
0.00287152
0.00286068
0.00284955
0.00283817
0.00282653
0.00281467
0.00280259
0.00279033
0.00277789
0.00276527
0.00275248
0.00273947
0.0027262
0.00271255
0.00269834
0.0026832
0.00266622
0.00264481
0.00261257
2.41687e-09
2.21739e-07
2.77119e-06
1.44873e-05
3.76081e-05
6.65847e-05
9.41633e-05
0.000116507
0.000133491
0.000145975
0.000154628
0.000159837
0.00016254
0.000163356
0.000162714
0.000160905
0.000158113
0.00015442
0.000149745
0.000144024
0.000137499
0.000129913
0.00012103
0.000104766
8.96932e-05
7.63536e-05
6.45835e-05
5.65431e-05
5.6032e-05
6.45557e-05
7.7889e-05
0.000101948
0.000118487
0.000131065
0.000140325
0.000148594
0.000159789
0.000176771
0.000185791
0.000199233
0.000221708
0.000249672
0.000285155
0.000326832
0.000374948
0.000428377
0.000485422
0.000545666
0.000607673
0.000671145
0.000735264
0.000799668
0.00086382
0.000927423
0.000989844
0.00105115
0.00111171
0.00117079
0.00122862
0.00128506
0.00134018
0.00139405
0.0014467
0.0014982
0.00154863
0.00159806
0.00164658
0.00169426
0.00174114
0.0017873
0.00183278
0.00187759
0.00192178
0.00196536
0.00200833
0.00205069
0.00209245
0.00213361
0.00217415
0.00221408
0.00225338
0.00229205
0.00233009
0.0023675
0.00240427
0.00244041
0.0024759
0.00251076
0.00254497
0.00257855
0.00261148
0.00264377
0.00267541
0.0027064
0.00273674
0.00276643
0.00279547
0.00282385
0.00285156
0.00287862
0.00290504
0.00293081
0.00295593
0.00298038
0.00300417
0.00302728
0.00304972
0.00307146
0.00309251
0.00311286
0.00313252
0.00315148
0.00316972
0.00318724
0.00320403
0.0032201
0.00323543
0.00325004
0.00326391
0.00327704
0.00328944
0.00330111
0.00331205
0.00332226
0.00333176
0.00334053
0.0033486
0.00335596
0.00336266
0.00336865
0.00337389
0.00337849
0.00338243
0.00338559
0.00338824
0.00339031
0.00339175
0.00339256
0.00339277
0.00339237
0.00339138
0.00338981
0.00338768
0.00338503
0.00338183
0.00337809
0.00337382
0.00336903
0.00336372
0.00335789
0.00335156
0.00334473
0.00333741
0.00332961
0.00332135
0.00331266
0.00330354
0.00329404
0.00328415
0.00327391
0.00326333
0.00325242
0.00324118
0.00322963
0.00321778
0.00320563
0.00319321
0.00318054
0.00316764
0.00315454
0.00314123
0.00312771
0.00311398
0.00309999
0.00308566
0.00307085
0.00305526
0.00303814
0.00301751
0.0029882
7.22121e-09
5.84853e-07
7.44327e-06
3.07408e-05
6.44752e-05
9.83243e-05
0.000126255
0.000146743
0.000160585
0.000169007
0.000173279
0.000175051
0.00017506
0.000173733
0.000171402
0.000168234
0.000164192
0.000159214
0.000153451
0.000146957
0.00013953
0.00013076
0.000113299
9.69274e-05
8.36528e-05
7.51562e-05
7.35079e-05
7.75764e-05
8.84888e-05
0.000109095
0.000133211
0.000155008
0.000167205
0.000177163
0.000188859
0.000198837
0.000206095
0.000219073
0.000239164
0.00026526
0.000298917
0.000338817
0.000385543
0.0004379
0.0004952
0.00055596
0.000619039
0.000683859
0.000749668
0.000816101
0.000882679
0.000949087
0.0010148
0.00107961
0.00114398
0.00120725
0.00126945
0.00133045
0.00139028
0.00144891
0.00150638
0.00156272
0.00161797
0.0016722
0.00172544
0.00177777
0.00182924
0.00187991
0.00192982
0.00197902
0.00202753
0.00207539
0.00212261
0.00216918
0.00221511
0.00226039
0.00230502
0.00234897
0.00239225
0.00243483
0.00247671
0.00251788
0.00255834
0.00259809
0.00263713
0.00267544
0.00271305
0.00274995
0.00278614
0.00282163
0.00285642
0.00289051
0.00292391
0.0029566
0.0029886
0.00301991
0.00305051
0.00308039
0.00310956
0.00313804
0.00316584
0.00319295
0.00321937
0.00324509
0.0032701
0.00329441
0.00331799
0.00334086
0.003363
0.00338441
0.00340509
0.00342502
0.0034442
0.00346264
0.00348033
0.00349728
0.00351347
0.0035289
0.00354359
0.00355753
0.00357071
0.00358315
0.00359485
0.0036058
0.00361602
0.00362551
0.00363428
0.00364234
0.00364976
0.00365636
0.00366228
0.00366753
0.0036721
0.00367589
0.00367917
0.00368181
0.00368381
0.00368517
0.00368591
0.00368604
0.00368556
0.00368449
0.00368284
0.00368061
0.00367781
0.00367446
0.00367055
0.00366611
0.00366113
0.00365562
0.00364959
0.00364303
0.00363596
0.00362839
0.00362033
0.00361182
0.00360286
0.00359347
0.00358369
0.00357351
0.00356295
0.00355204
0.00354076
0.00352913
0.00351716
0.00350486
0.00349225
0.00347936
0.00346621
0.00345281
0.00343918
0.00342533
0.00341124
0.00339691
0.00338228
0.00336725
0.00335167
0.00333499
0.0033156
0.00328973
1.86501e-08
1.44754e-06
1.64372e-05
5.14955e-05
9.18466e-05
0.000126043
0.000151447
0.00016833
0.000178835
0.000184178
0.000185735
0.000184597
0.000181754
0.000177906
0.000173432
0.000168459
0.000162893
0.000156823
0.000150098
0.000142997
0.000135114
0.000123823
0.000112736
0.000106387
0.000100855
9.80359e-05
0.000104455
0.000119787
0.00013892
0.000159235
0.000178197
0.000193864
0.000205015
0.000213697
0.000222937
0.000235329
0.000253333
0.000276974
0.000307647
0.000344716
0.000388388
0.000437809
0.000492682
0.000551838
0.000614254
0.000678781
0.000744688
0.000811499
0.000878773
0.000946195
0.00101344
0.00107992
0.00114605
0.00121162
0.00127629
0.00133998
0.00140265
0.00146426
0.00152482
0.0015843
0.00164275
0.00170019
0.00175665
0.00181218
0.00186683
0.00192064
0.00197365
0.00202591
0.00207746
0.00212835
0.00217859
0.0022282
0.00227719
0.00232557
0.00237329
0.00242034
0.00246671
0.00251238
0.00255733
0.00260154
0.00264499
0.00268768
0.0027296
0.00277076
0.00281116
0.00285085
0.00288978
0.00292794
0.00296533
0.00300195
0.00303783
0.00307295
0.00310733
0.00314097
0.00317387
0.00320604
0.00323748
0.0032682
0.00329821
0.00332751
0.00335609
0.00338397
0.00341112
0.00343754
0.00346325
0.00348822
0.00351245
0.00353595
0.00355871
0.00358073
0.003602
0.00362252
0.00364229
0.0036613
0.00367957
0.00369708
0.00371384
0.00372985
0.00374511
0.00375962
0.00377338
0.0037864
0.00379868
0.00381022
0.00382104
0.00383113
0.00384051
0.00384922
0.00385721
0.00386443
0.00387099
0.00387689
0.00388208
0.00388655
0.00389048
0.00389375
0.00389639
0.00389839
0.00389977
0.00390054
0.00390071
0.0039003
0.0038993
0.00389772
0.00389559
0.0038929
0.00388966
0.00388587
0.00388155
0.0038767
0.00387131
0.00386539
0.00385895
0.003852
0.00384455
0.00383663
0.00382826
0.00381944
0.00381019
0.00380054
0.00379048
0.00378003
0.00376919
0.00375797
0.00374637
0.00373442
0.00372213
0.00370951
0.00369661
0.00368342
0.00366998
0.00365629
0.00364235
0.00362817
0.00361372
0.00359895
0.00358371
0.00356755
0.00354926
0.00352637
4.12747e-08
3.32579e-06
2.95155e-05
7.48554e-05
0.000118665
0.000151863
0.00017369
0.000187301
0.000193652
0.000194644
0.000192167
0.00018759
0.000181833
0.000175483
0.000168683
0.000161538
0.000154079
0.000146177
0.000138302
0.000130317
0.000122337
0.000115455
0.000111525
0.000112718
0.000119764
0.000132084
0.000147538
0.000164611
0.000181883
0.000198036
0.000211459
0.000222483
0.000234309
0.000247475
0.000264399
0.000285817
0.000313403
0.000347072
0.000386966
0.000432523
0.000483428
0.000538987
0.000598544
0.000661072
0.000725653
0.000791502
0.000858118
0.000925149
0.0009923
0.00105904
0.00112532
0.00119154
0.00125698
0.00132165
0.00138546
0.00144833
0.00151025
0.00157119
0.00163115
0.00169015
0.00174819
0.00180531
0.00186156
0.00191698
0.00197163
0.00202554
0.00207875
0.00213125
0.00218311
0.0022344
0.00228513
0.00233531
0.00238497
0.00243412
0.00248284
0.00253104
0.00257856
0.00262533
0.00267134
0.00271655
0.00276094
0.00280449
0.00284721
0.00288908
0.0029301
0.00297027
0.0030096
0.00304816
0.00308595
0.00312298
0.00315927
0.00319481
0.00322961
0.00326368
0.00329702
0.00332963
0.00336153
0.00339271
0.00342317
0.00345291
0.00348193
0.00351022
0.00353778
0.00356461
0.00359071
0.00361607
0.0036407
0.00366459
0.00368774
0.00371014
0.00373181
0.00375273
0.00377291
0.00379234
0.00381103
0.00382898
0.00384619
0.00386266
0.0038784
0.0038934
0.00390767
0.00392121
0.00393403
0.00394612
0.0039575
0.00396817
0.00397817
0.00398749
0.00399606
0.00400395
0.00401117
0.00401774
0.00402362
0.00402884
0.00403347
0.00403746
0.00404082
0.00404355
0.00404569
0.00404722
0.00404816
0.00404853
0.00404832
0.00404755
0.00404623
0.00404437
0.00404196
0.00403902
0.00403555
0.00403154
0.004027
0.00402194
0.00401635
0.00401024
0.00400364
0.00399656
0.00398902
0.00398102
0.00397259
0.00396373
0.00395445
0.00394476
0.00393465
0.00392413
0.00391322
0.00390192
0.00389025
0.00387823
0.00386589
0.00385324
0.0038403
0.00382708
0.00381361
0.00379988
0.0037859
0.00377165
0.00375704
0.00374175
0.00372477
0.00370519
7.80493e-08
6.77456e-06
4.36739e-05
9.51858e-05
0.000140517
0.000172612
0.000192462
0.000201799
0.000203762
0.000200894
0.000195062
0.00018758
0.000179202
0.000170435
0.000161818
0.000153403
0.000145862
0.000139338
0.000134439
0.000130967
0.000129874
0.000131956
0.000137519
0.000146548
0.000158461
0.000172391
0.000187267
0.000202191
0.000215891
0.000227898
0.000240953
0.000255797
0.000272613
0.00029267
0.000317646
0.000347959
0.000383953
0.0004253
0.000471697
0.000522657
0.000577742
0.000636339
0.000697752
0.000761157
0.000825838
0.000891243
0.000956994
0.00102277
0.00108803
0.00115324
0.00121798
0.00128212
0.00134547
0.00140798
0.00146957
0.00153025
0.00159
0.00164884
0.00170678
0.00176385
0.00182002
0.00187533
0.0019299
0.00198377
0.00203701
0.00208969
0.00214194
0.002194
0.00224564
0.00229679
0.00234745
0.00239761
0.0024473
0.00249649
0.00254513
0.00259316
0.00264059
0.0026873
0.00273331
0.00277859
0.00282308
0.00286675
0.00290959
0.0029516
0.00299278
0.00303316
0.00307277
0.00311161
0.00314968
0.003187
0.00322358
0.00325942
0.00329452
0.00332891
0.00336256
0.0033955
0.00342771
0.00345921
0.00348998
0.00352003
0.00354936
0.00357797
0.00360585
0.003633
0.00365943
0.00368512
0.00371009
0.00373432
0.00375783
0.0037806
0.00380264
0.00382395
0.00384453
0.00386438
0.00388351
0.00390191
0.00391958
0.00393654
0.00395278
0.0039683
0.00398312
0.00399722
0.00401062
0.00402332
0.00403532
0.00404664
0.0040573
0.00406726
0.00407654
0.00408515
0.00409311
0.00410044
0.0041071
0.00411314
0.00411858
0.00412337
0.00412756
0.00413114
0.00413413
0.00413653
0.00413837
0.00413963
0.00414034
0.0041405
0.00414012
0.00413922
0.00413778
0.00413582
0.00413334
0.00413034
0.00412681
0.00412275
0.00411817
0.00411308
0.00410749
0.00410142
0.00409489
0.00408791
0.00408048
0.00407262
0.00406432
0.00405559
0.00404643
0.00403683
0.00402682
0.0040164
0.00400559
0.0039944
0.00398286
0.00397097
0.00395877
0.00394627
0.00393347
0.00392042
0.00390712
0.00389357
0.00387974
0.00386539
0.00384967
0.00383295
1.24343e-07
1.15559e-05
5.91026e-05
0.000116348
0.000161772
0.000191888
0.00020789
0.000213406
0.000211938
0.000206183
0.000198038
0.000188647
0.000179512
0.00017071
0.00016334
0.000156938
0.000152497
0.000150157
0.000149859
0.000151808
0.000156213
0.00016306
0.00017212
0.000183006
0.000195246
0.00020822
0.000220968
0.000233048
0.000246156
0.000261738
0.00027913
0.000298475
0.000321604
0.000349082
0.000381439
0.000418628