/*--------------------------------*- C++ -*----------------------------------*\
  =========                 |
  \\      /  F ield         | OpenFOAM: The Open Source CFD Toolbox
   \\    /   O peration     | Website:  https://openfoam.org
    \\  /    A nd           | Version:  8
     \\/     M anipulation  |
\*---------------------------------------------------------------------------*/
FoamFile
{
    version     2.0;
    format      ascii;
    class       volScalarField;
    location    "500";
    object      p;
}
// * * * * * * * * * * * * * * * * * * * * * * * * * * * * * * * * * * * * * //

dimensions      [0 2 -2 0 0 0 0];

internalField   nonuniform List<scalar> 
12225
(
-4.25666
-5.13512
-5.53396
-5.66724
-5.80178
-5.95543
-6.08863
-6.19445
-6.28162
-6.35812
-6.42585
-6.48868
-6.54725
-6.60583
-6.66987
-6.73758
-6.81604
-6.90285
-4.52713
-5.16162
-5.49632
-5.62832
-5.76248
-5.91749
-6.05192
-6.15692
-6.24528
-6.32509
-6.39827
-6.46205
-6.5224
-6.58385
-6.64628
-6.7123
-6.77974
-6.83818
-4.7217
-5.15289
-5.47502
-5.63623
-5.77639
-5.92637
-6.05646
-6.15952
-6.24726
-6.32612
-6.39719
-6.4592
-6.51812
-6.57744
-6.63692
-6.69752
-6.75523
-6.80139
-4.86795
-5.17832
-5.48447
-5.65432
-5.78524
-5.92178
-6.04524
-6.14645
-6.23291
-6.31051
-6.38092
-6.44398
-6.50356
-6.56226
-6.62021
-6.677
-6.72973
-6.77266
-4.99582
-5.22736
-5.4997
-5.66696
-5.79132
-5.91924
-6.03884
-6.13925
-6.22499
-6.30186
-6.3719
-6.43533
-6.49465
-6.55203
-6.60773
-6.66096
-6.7097
-6.75005
-5.11239
-5.28331
-5.51527
-5.67762
-5.79919
-5.92009
-6.03462
-6.13272
-6.21697
-6.29261
-6.36173
-6.42481
-6.48352
-6.53954
-6.59315
-6.64356
-6.68926
-6.72785
-5.21831
-5.34291
-5.53608
-5.69022
-5.80841
-5.92181
-6.03022
-6.12536
-6.20806
-6.28251
-6.35074
-6.41333
-6.47144
-6.52624
-6.57797
-6.626
-6.66933
-6.70652
-5.29986
-5.39548
-5.55889
-5.70281
-5.81683
-5.92403
-6.02704
-6.1193
-6.20047
-6.27373
-6.34099
-6.40287
-6.46019
-6.51379
-6.56393
-6.61015
-6.65183
-6.68807
-5.36643
-5.44261
-5.58193
-5.71523
-5.82493
-5.92683
-6.02495
-6.11433
-6.19387
-6.26589
-6.33211
-6.39315
-6.44961
-6.50213
-6.55093
-6.59575
-6.6362
-6.67171
-5.43288
-5.49303
-5.60943
-5.73033
-5.83456
-5.93085
-6.02362
-6.10953
-6.18699
-6.25744
-6.32232
-6.38225
-6.43763
-6.48894
-6.5364
-6.57988
-6.61921
-6.65407
-5.49817
-5.54544
-5.6411
-5.74843
-5.84587
-5.93621
-6.02328
-6.10512
-6.18
-6.2485
-6.31174
-6.37025
-6.42434
-6.47436
-6.52046
-6.56269
-6.60098
-6.63522
-5.5613
-5.59831
-5.67603
-5.76938
-5.85881
-5.94284
-6.02399
-6.10129
-6.17303
-6.23922
-6.30049
-6.35731
-6.40993
-6.45855
-6.50334
-6.54437
-6.58171
-6.61532
-5.62078
-5.64992
-5.71271
-5.79253
-5.87312
-5.9505
-6.02567
-6.09805
-6.16624
-6.2297
-6.28875
-6.34366
-6.39465
-6.44179
-6.48529
-6.52517
-6.56162
-6.59463
-5.67516
-5.69826
-5.74905
-5.81663
-5.88816
-5.95872
-6.02795
-6.09533
-6.15961
-6.2201
-6.27669
-6.32957
-6.37877
-6.42445
-6.4666
-6.50542
-6.54098
-6.57344
-5.72228
-5.7409
-5.78243
-5.83962
-5.90265
-5.96657
-6.03016
-6.09268
-6.15304
-6.21042
-6.26451
-6.31526
-6.36269
-6.40683
-6.44774
-6.4855
-6.52028
-6.55216
-5.75935
-5.77477
-5.80956
-5.85868
-5.91451
-5.97256
-6.03115
-6.08934
-6.14608
-6.20053
-6.25222
-6.30096
-6.34672
-6.38944
-6.42919
-6.46603
-6.50011
-6.5315
-5.7824
-5.79577
-5.82623
-5.86996
-5.92066
-5.97432
-6.02913
-6.08401
-6.13792
-6.19001
-6.23974
-6.28686
-6.33124
-6.37282
-6.41165
-6.44778
-6.48133
-6.5124
-5.78528
-5.79794
-5.82691
-5.86863
-5.9173
-5.96903
-6.02217
-6.0755
-6.12812
-6.17903
-6.22781
-6.27405
-6.31775
-6.35873
-6.39711
-6.43287
-6.4662
-6.49714
-5.76793
-5.78124
-5.81148
-5.85469
-5.90447
-5.95702
-6.01069
-6.06457
-6.11752
-6.16874
-6.21762
-6.26401
-6.30769
-6.34874
-6.3871
-6.42293
-6.45627
-6.48734
-5.73575
-5.75081
-5.78479
-5.83228
-5.88564
-5.94088
-5.99687
-6.05272
-6.10738
-6.15985
-6.20974
-6.25683
-6.30113
-6.34257
-6.38129
-6.41735
-6.45094
-6.48219
-5.69198
-5.71009
-5.75038
-5.80472
-5.86336
-5.92258
-5.98205
-6.04104
-6.09819
-6.1526
-6.20396
-6.25221
-6.29739
-6.3395
-6.3787
-6.41514
-6.44901
-6.48052
-5.63852
-5.66143
-5.71115
-5.77465
-5.83957
-5.90348
-5.96733
-6.03023
-6.09044
-6.14713
-6.20023
-6.24987
-6.29604
-6.33892
-6.37862
-6.41547
-6.44962
-6.4814
-5.57636
-5.60668
-5.66973
-5.74426
-5.81565
-5.88462
-5.95357
-6.02087
-6.08434
-6.14346
-6.19847
-6.24956
-6.2968
-6.34037
-6.38057
-6.41772
-6.45212
-6.48404
-5.50576
-5.54768
-5.62886
-5.71511
-5.79222
-5.86662
-5.94142
-6.01339
-6.0801
-6.1416
-6.1985
-6.251
-6.29921
-6.34339
-6.38397
-6.42135
-6.45591
-6.48802
-5.42624
-5.48633
-5.59159
-5.68862
-5.76953
-5.84954
-5.93085
-6.00768
-6.07763
-6.14159
-6.20043
-6.25429
-6.30329
-6.34786
-6.38851
-6.4258
-6.46015
-6.49203
-5.3371
-5.42442
-5.55994
-5.66591
-5.74895
-5.83429
-5.92155
-6.00249
-6.07532
-6.14169
-6.20261
-6.25805
-6.30818
-6.35346
-6.39451
-6.43193
-6.46634
-6.4984
-5.23819
-5.36588
-5.53165
-5.64295
-5.72975
-5.82227
-5.91523
-5.99915
-6.07387
-6.14175
-6.2038
-6.25997
-6.31048
-6.35592
-6.39685
-6.43404
-6.46829
-6.50049
-5.12375
-5.32393
-5.50743
-5.61126
-5.70285
-5.80686
-5.90843
-5.99765
-6.07641
-6.14774
-6.2124
-6.27031
-6.32191
-6.3678
-6.40866
-6.44527
-6.47899
-6.51189
-4.9593
-5.31473
-5.52083
-5.60252
-5.6885
-5.79656
-5.90095
-5.99105
-6.07066
-6.14336
-6.2094
-6.26853
-6.32104
-6.36753
-6.40849
-6.4444
-6.47637
-6.50578
-4.69674
-5.24478
-5.51147
-5.59941
-5.69322
-5.81119
-5.922
-6.01545
-6.09666
-6.17005
-6.23623
-6.29513
-6.34718
-6.39301
-6.43304
-6.46733
-6.49583
-6.51799
-7.41731
-7.41741
-7.41745
-7.41743
-7.41712
-7.41591
-7.41344
-7.41023
-7.40721
-7.40536
-7.40562
-7.40815
-7.41245
-7.41777
-7.42336
-7.42858
-7.43288
-7.43586
-7.43753
-7.4382
-7.43816
-7.43756
-7.43664
-7.43568
-7.43489
-7.43438
-7.4341
-7.43391
-7.43368
-7.43329
-7.43274
-7.43204
-7.43112
-7.42992
-7.42851
-7.42713
-7.42638
-7.42685
-7.42863
-7.43113
-7.43354
-7.43544
-7.437
-7.43863
-7.44072
-7.44374
-7.44737
-7.45053
-7.45279
-7.45599
-7.46378
-7.4802
-7.50551
-7.53853
-7.57914
-7.62796
-7.68464
-7.7478
-7.81599
-7.88721
-7.959
-8.02963
-8.09819
-8.16386
-8.22559
-8.28294
-8.33574
-8.38393
-8.42752
-8.46662
-8.50126
-8.53156
-8.55754
-8.5793
-8.59681
-8.61013
-8.6192
-8.62403
-8.62455
-8.62077
-8.61259
-8.59999
-8.58291
-8.56131
-8.53511
-8.50426
-8.46868
-8.4283
-8.38302
-8.3328
-8.27759
-8.21735
-8.152
-8.08149
-8.00577
-7.92477
-7.83845
-7.74684
-7.65003
-7.54799
-7.44037
-7.32688
-7.20759
-7.08265
-6.95208
-6.81591
-6.67414
-6.52681
-6.37394
-6.21559
-6.05182
-5.88268
-5.70827
-5.52868
-5.34402
-5.15439
-4.95993
-4.76078
-4.55709
-4.34901
-4.13673
-3.9204
-3.70022
-3.47637
-3.24906
-3.01847
-2.78483
-2.54834
-2.30922
-2.06767
-1.82392
-1.57814
-1.33055
-1.08139
-0.830919
-0.579429
-0.327161
-0.0741178
0.179725
0.434128
0.68878
0.943457
1.19797
1.45215
1.70582
1.95884
2.21104
2.46227
2.71236
2.96116
3.20853
3.45431
3.69838
3.94059
4.18083
4.41898
4.65492
4.88858
5.11984
5.34863
5.57486
5.79843
6.01926
6.23725
6.4523
6.66431
6.87319
7.07884
7.28117
7.48009
7.67549
7.86725
8.05528
8.23943
8.41962
8.59575
8.76791
8.93607
9.10322
9.26046
-7.41849
-7.41867
-7.41901
-7.41936
-7.41931
-7.41848
-7.41661
-7.41427
-7.41267
-7.41268
-7.4146
-7.41824
-7.4231
-7.42854
-7.43398
-7.43891
-7.443
-7.44605
-7.44788
-7.44828
-7.44737
-7.44545
-7.44296
-7.44033
-7.43797
-7.43614
-7.43487
-7.434
-7.4333
-7.43265
-7.43202
-7.43139
-7.43069
-7.42985
-7.42884
-7.42802
-7.42806
-7.42941
-7.43186
-7.43455
-7.43641
-7.43712
-7.43711
-7.43638
-7.43507
-7.43468
-7.43762
-7.44415
-7.4506
-7.45709
-7.46712
-7.48207
-7.50344
-7.5343
-7.57667
-7.62982
-7.69163
-7.75985
-7.83173
-7.90467
-7.97701
-8.04772
-8.11544
-8.17886
-8.23778
-8.29235
-8.34249
-8.38831
-8.42984
-8.4672
-8.50041
-8.52956
-8.55465
-8.57571
-8.59273
-8.60569
-8.61454
-8.61926
-8.61978
-8.61605
-8.60801
-8.59561
-8.57877
-8.55746
-8.53161
-8.50115
-8.46601
-8.42612
-8.38138
-8.33175
-8.2772
-8.21765
-8.15304
-8.08332
-8.00841
-7.92825
-7.84276
-7.75185
-7.65539
-7.55327
-7.44561
-7.33256
-7.21406
-7.08999
-6.96033
-6.82507
-6.68423
-6.53783
-6.38589
-6.22846
-6.0656
-5.89737
-5.72385
-5.54515
-5.36134
-5.17257
-4.97894
-4.78061
-4.57771
-4.3704
-4.15885
-3.94324
-3.72375
-3.50056
-3.27387
-3.04389
-2.81081
-2.57486
-2.33625
-2.09518
-1.85185
-1.60646
-1.35921
-1.11032
-0.859992
-0.608413
-0.355753
-0.102326
0.15156
0.405819
0.660334
0.914897
1.16932
1.42343
1.67707
1.93007
2.18227
2.43352
2.68366
2.93253
3.17998
3.42588
3.67007
3.91244
4.15285
4.39118
4.62732
4.86118
5.09266
5.32168
5.54814
5.77195
5.99303
6.21128
6.42661
6.6389
6.84808
7.05403
7.25668
7.45593
7.65167
7.84382
8.03226
8.21693
8.39777
8.57466
8.74787
8.91664
9.08583
9.24239
-7.41976
-7.41975
-7.41978
-7.41984
-7.41991
-7.41994
-7.42019
-7.42116
-7.42329
-7.42671
-7.43121
-7.43644
-7.44199
-7.44743
-7.4524
-7.45661
-7.45987
-7.46208
-7.46315
-7.46303
-7.46176
-7.45944
-7.45627
-7.45242
-7.44814
-7.4437
-7.43939
-7.43547
-7.43214
-7.42947
-7.42741
-7.42575
-7.42426
-7.42298
-7.42235
-7.42298
-7.42534
-7.42918
-7.4332
-7.43567
-7.43532
-7.43309
-7.43104
-7.43061
-7.43124
-7.43279
-7.43783
-7.44771
-7.46159
-7.47988
-7.50345
-7.5325
-7.56756
-7.60926
-7.65768
-7.7119
-7.77055
-7.83219
-7.89527
-7.95842
-8.02078
-8.08173
-8.14057
-8.19658
-8.24941
-8.2989
-8.34491
-8.38737
-8.42624
-8.46148
-8.49306
-8.52095
-8.5451
-8.56547
-8.58201
-8.59466
-8.60336
-8.60803
-8.60861
-8.60504
-8.59723
-8.58512
-8.56864
-8.54773
-8.52233
-8.49237
-8.45778
-8.41848
-8.37439
-8.32546
-8.27164
-8.21286
-8.14907
-8.08019
-8.00617
-7.92694
-7.84245
-7.7526
-7.65731
-7.55643
-7.44999
-7.33806
-7.22064
-7.09768
-6.96916
-6.83505
-6.69537
-6.55013
-6.39936
-6.24311
-6.08141
-5.91434
-5.74198
-5.56441
-5.38173
-5.19407
-5.00153
-4.80427
-4.60241
-4.39612
-4.18557
-3.97092
-3.75236
-3.53008
-3.30426
-3.07511
-2.84284
-2.60765
-2.36976
-2.12938
-1.8867
-1.64193
-1.39526
-1.14692
-0.897133
-0.646092
-0.393961
-0.141006
0.112504
0.366435
0.620638
0.874918
1.12909
1.38298
1.63642
1.88926
2.14133
2.39246
2.64251
2.89132
3.13874
3.38463
3.62885
3.87126
4.11173
4.35015
4.58639
4.82035
5.05195
5.28109
5.50767
5.73161
5.95282
6.1712
6.38666
6.59909
6.8084
7.01449
7.21726
7.41664
7.61251
7.8048
7.9934
8.1782
8.35917
8.53629
8.71005
8.87922
9.05116
9.20378
-7.42089
-7.42061
-7.42025
-7.42028
-7.42145
-7.42417
-7.42821
-7.43323
-7.43888
-7.44487
-7.45091
-7.45674
-7.46216
-7.46698
-7.47104
-7.47421
-7.47639
-7.47751
-7.47757
-7.47651
-7.47437
-7.47122
-7.46713
-7.46219
-7.45649
-7.45016
-7.44341
-7.43649
-7.42978
-7.42362
-7.41826
-7.41391
-7.41085
-7.40951
-7.41058
-7.41422
-7.41937
-7.42411
-7.42711
-7.42807
-7.42753
-7.42704
-7.42807
-7.43135
-7.43732
-7.44665
-7.46023
-7.47875
-7.50231
-7.53053
-7.56293
-7.59927
-7.63937
-7.68311
-7.7303
-7.78055
-7.83331
-7.88789
-7.94349
-7.9993
-8.05464
-8.10893
-8.16165
-8.21235
-8.26066
-8.30633
-8.34916
-8.38901
-8.42575
-8.45928
-8.48951
-8.51635
-8.53971
-8.55951
-8.57565
-8.58805
-8.59662
-8.60128
-8.60193
-8.59851
-8.59091
-8.57908
-8.56294
-8.54241
-8.51743
-8.48794
-8.45385
-8.41511
-8.37161
-8.32332
-8.27018
-8.21212
-8.14908
-8.08097
-8.00775
-7.92932
-7.84564
-7.75662
-7.66219
-7.56228
-7.45687
-7.346
-7.22962
-7.10771
-6.98025
-6.84721
-6.70861
-6.56445
-6.41477
-6.25959
-6.09897
-5.93298
-5.76168
-5.58516
-5.40353
-5.21689
-5.02536
-4.82908
-4.62819
-4.42285
-4.21322
-3.99947
-3.78178
-3.56034
-3.33533
-3.10697
-2.87545
-2.64099
-2.40379
-2.16406
-1.922
-1.67781
-1.4317
-1.1839
-0.93462
-0.684075
-0.432447
-0.179962
0.0731669
0.326768
0.580663
0.834662
1.08858
1.34225
1.5955
1.84817
2.10009
2.35111
2.60106
2.84979
3.09717
3.34304
3.58726
3.82969
4.0702
4.30868
4.54499
4.77904
5.01073
5.23996
5.46665
5.6907
5.91202
6.13051
6.34608
6.55863
6.76804
6.97424
7.17711
7.37657
7.57253
7.7649
7.9536
8.13855
8.31972
8.49706
8.67116
8.84025
9.013
9.15956
-7.42319
-7.4226
-7.42223
-7.42368
-7.42788
-7.4341
-7.4413
-7.44879
-7.45613
-7.46301
-7.46929
-7.4749
-7.47978
-7.48388
-7.48712
-7.4894
-7.49067
-7.49089
-7.49003
-7.48806
-7.485
-7.48088
-7.47575
-7.46966
-7.46268
-7.45485
-7.44629
-7.43721
-7.42793
-7.41893
-7.41081
-7.40434
-7.40045
-7.4
-7.40284
-7.40718
-7.41149
-7.41512
-7.41798
-7.42047
-7.42335
-7.42768
-7.43443
-7.44455
-7.45883
-7.47748
-7.50012
-7.52625
-7.55565
-7.58796
-7.62295
-7.66057
-7.70079
-7.74354
-7.78867
-7.83584
-7.88465
-7.93461
-7.98517
-8.0358
-8.08602
-8.13539
-8.1835
-8.23001
-8.27461
-8.31705
-8.35713
-8.39465
-8.42945
-8.4614
-8.49035
-8.51618
-8.53875
-8.55794
-8.57364
-8.58573
-8.5941
-8.59864
-8.59927
-8.59589
-8.58841
-8.57674
-8.56081
-8.54055
-8.51587
-8.48672
-8.45303
-8.41471
-8.37169
-8.32391
-8.27132
-8.21385
-8.15143
-8.08398
-8.01143
-7.93372
-7.85075
-7.76248
-7.66883
-7.56976
-7.46522
-7.35522
-7.23971
-7.11867
-6.99208
-6.85993
-6.72221
-6.57893
-6.43012
-6.27582
-6.11607
-5.95093
-5.78049
-5.60481
-5.424
-5.23816
-5.04743
-4.85193
-4.6518
-4.4472
-4.23829
-4.02523
-3.80823
-3.58744
-3.36308
-3.13532
-2.9044
-2.6705
-2.43385
-2.19463
-1.95306
-1.70933
-1.46367
-1.21629
-0.967418
-0.717249
-0.465987
-0.213846
0.0389761
0.292296
0.54593
0.799688
1.05339
1.30687
1.55995
1.81246
2.06425
2.31516
2.56501
2.81367
3.06099
3.30683
3.55104
3.79347
4.03401
4.27252
4.50888
4.74299
4.97476
5.20407
5.43085
5.65499
5.87642
6.09501
6.31069
6.52333
6.73285
6.93915
7.14214
7.34172
7.53781
7.7303
7.91913
8.10422
8.28553
8.46295
8.63705
8.80553
8.97786
9.11779
-7.42741
-7.42651
-7.42707
-7.43152
-7.43887
-7.44718
-7.4556
-7.46366
-7.47107
-7.47777
-7.48375
-7.48899
-7.49343
-7.49702
-7.49967
-7.50133
-7.50195
-7.50149
-7.49994
-7.49727
-7.49352
-7.48869
-7.48281
-7.47587
-7.46786
-7.45891
-7.44915
-7.43876
-7.42814
-7.41792
-7.4089
-7.40228
-7.39897
-7.3987
-7.40014
-7.40226
-7.40508
-7.40893
-7.41409
-7.42045
-7.42833
-7.43892
-7.45317
-7.47114
-7.49259
-7.51714
-7.54456
-7.57446
-7.60663
-7.64089
-7.67712
-7.71524
-7.75515
-7.79677
-7.83993
-7.8844
-7.92989
-7.97608
-8.0226
-8.06911
-8.11526
-8.16074
-8.20522
-8.24842
-8.29005
-8.3299
-8.36772
-8.40333
-8.43652
-8.46714
-8.495
-8.51994
-8.5418
-8.56044
-8.57572
-8.58748
-8.59562
-8.60001
-8.60055
-8.59714
-8.58967
-8.57807
-8.56226
-8.54214
-8.51766
-8.48874
-8.4553
-8.41729
-8.37461
-8.32722
-8.27505
-8.21804
-8.1561
-8.08916
-8.01715
-7.93999
-7.85762
-7.76995
-7.67694
-7.57853
-7.47468
-7.36535
-7.25052
-7.13017
-7.00425
-6.87277
-6.73572
-6.59311
-6.44496
-6.29131
-6.1322
-5.9677
-5.79787
-5.6228
-5.44259
-5.25734
-5.06717
-4.87222
-4.67263
-4.46855
-4.26015
-4.04759
-3.83105
-3.61073
-3.38681
-3.15949
-2.92898
-2.69549
-2.45922
-2.22036
-1.97914
-1.73575
-1.49042
-1.24336
-0.994793
-0.744909
-0.493923
-0.24204
0.0105387
0.26363
0.517045
0.770599
1.02411
1.27742
1.53034
1.78272
2.03438
2.28516
2.53491
2.78348
3.03074
3.27652
3.52069
3.7631
4.00362
4.24212
4.47849
4.71262
4.94442
5.17378
5.4006
5.62481
5.84629
6.06495
6.28069
6.49342
6.70302
6.90941
7.11248
7.31215
7.50832
7.70091
7.88982
8.07496
8.2563
8.43361
8.60744
8.77501
8.94664
9.08012
-7.43259
-7.43216
-7.43489
-7.44199
-7.45061
-7.45917
-7.46732
-7.47495
-7.48198
-7.48838
-7.49411
-7.49907
-7.50321
-7.50644
-7.5087
-7.50994
-7.51012
-7.50922
-7.50722
-7.50411
-7.49992
-7.49466
-7.48824
-7.48061
-7.47191
-7.46234
-7.45212
-7.44149
-7.43093
-7.42119
-7.41335
-7.40804
-7.40469
-7.40257
-7.40176
-7.40273
-7.40605
-7.41155
-7.41917
-7.42959
-7.44329
-7.46021
-7.48018
-7.50298
-7.52839
-7.5561
-7.58592
-7.61768
-7.65124
-7.68642
-7.72308
-7.76111
-7.80039
-7.84083
-7.88228
-7.92458
-7.96754
-8.01094
-8.05454
-8.09809
-8.14133
-8.184
-8.22584
-8.26661
-8.30605
-8.34396
-8.38009
-8.41424
-8.44621
-8.47579
-8.5028
-8.52704
-8.54833
-8.56651
-8.58141
-8.59288
-8.60078
-8.60499
-8.60539
-8.60188
-8.59436
-8.58274
-8.56694
-8.54688
-8.52248
-8.49367
-8.46039
-8.42256
-8.3801
-8.33297
-8.28109
-8.2244
-8.16282
-8.09625
-8.02465
-7.94791
-7.86598
-7.77878
-7.68625
-7.58833
-7.48499
-7.37616
-7.26184
-7.14198
-7.01655
-6.88555
-6.74898
-6.60683
-6.45914
-6.30594
-6.14727
-5.9832
-5.81378
-5.63912
-5.45929
-5.27442
-5.08461
-4.89002
-4.69076
-4.48701
-4.27892
-4.06668
-3.85043
-3.6304
-3.40676
-3.17972
-2.94947
-2.71624
-2.4802
-2.24159
-2.00059
-1.75744
-1.51234
-1.26551
-1.01716
-0.767496
-0.516719
-0.265041
-0.0126557
0.240248
0.493482
0.746866
1.00022
1.25337
1.50615
1.75839
2.00991
2.26057
2.51021
2.75868
3.00585
3.25156
3.49567
3.73801
3.97848
4.21694
4.45328
4.68739
4.91917
5.14852
5.37535
5.59958
5.82109
6.03978
6.25556
6.46832
6.67796
6.88438
7.0875
7.28722
7.48344
7.67607
7.865
8.05012
8.23137
8.40845
8.58186
8.74842
8.91939
9.04687
-7.43656
-7.4374
-7.44269
-7.45079
-7.45906
-7.467
-7.47461
-7.48183
-7.48859
-7.49478
-7.50032
-7.50511
-7.50905
-7.51209
-7.51414
-7.51516
-7.51512
-7.51399
-7.51176
-7.50845
-7.50405
-7.49849
-7.49167
-7.48379
-7.47509
-7.46568
-7.45582
-7.44593
-7.43675
-7.4289
-7.42261
-7.41726
-7.41252
-7.40919
-7.40807
-7.40941
-7.41373
-7.42148
-7.43265
-7.44714
-7.46466
-7.48501
-7.50796
-7.53325
-7.56067
-7.59002
-7.62113
-7.65382
-7.68796
-7.72339
-7.75998
-7.79764
-7.83625
-7.87572
-7.91591
-7.95671
-7.99796
-8.03951
-8.08117
-8.12274
-8.16402
-8.2048
-8.24486
-8.28398
-8.32194
-8.35851
-8.39348
-8.42664
-8.45776
-8.48662
-8.51303
-8.53677
-8.55764
-8.57547
-8.59006
-8.60127
-8.60895
-8.61295
-8.61318
-8.60952
-8.60188
-8.59016
-8.57429
-8.55418
-8.52977
-8.50097
-8.46773
-8.42997
-8.38763
-8.34064
-8.28894
-8.23246
-8.1711
-8.1048
-8.03347
-7.95703
-7.87541
-7.78854
-7.69635
-7.59879
-7.49579
-7.38731
-7.27333
-7.1538
-7.0287
-6.89802
-6.76175
-6.6199
-6.4725
-6.31957
-6.16116
-5.99733
-5.82815
-5.65371
-5.4741
-5.28943
-5.09982
-4.90541
-4.70633
-4.50275
-4.29482
-4.08272
-3.86663
-3.64675
-3.42325
-3.19635
-2.96624
-2.73314
-2.49724
-2.25876
-2.0179
-1.77489
-1.52995
-1.28328
-1.03509
-0.785573
-0.534956
-0.283437
-0.0312092
0.221538
0.474619
0.727854
0.981065
1.23408
1.48672
1.73881
1.99021
2.24073
2.49025
2.73862
2.9857
3.23132
3.47533
3.71759
3.95797
4.19635
4.43261
4.66666
4.8984
5.12772
5.35453
5.57875
5.80026
6.01895
6.23473
6.44748
6.65713
6.86357
7.0667
7.26644
7.46268
7.65531
7.84422
8.02928
8.21038
8.38716
8.56008
8.72564
8.896
9.01809
-7.43764
-7.4401
-7.44687
-7.45466
-7.46227
-7.46973
-7.47701
-7.48401
-7.49062
-7.49673
-7.50221
-7.50696
-7.51088
-7.51388
-7.51592
-7.51693
-7.51689
-7.51577
-7.51355
-7.51025
-7.50579
-7.50013
-7.49337
-7.48577
-7.47749
-7.46881
-7.46012
-7.45188
-7.44442
-7.43767
-7.43143
-7.42565
-7.42077
-7.41779
-7.4175
-7.42039
-7.42683
-7.43683
-7.45013
-7.46658
-7.48589
-7.50783
-7.53216
-7.55861
-7.587
-7.61712
-7.64881
-7.68188
-7.71621
-7.75166
-7.78811
-7.82546
-7.8636
-7.90241
-7.94181
-7.98168
-8.0219
-8.06232
-8.10281
-8.14319
-8.18329
-8.22294
-8.26193
-8.30007
-8.33715
-8.37295
-8.40725
-8.43983
-8.47046
-8.49892
-8.52496
-8.54839
-8.56899
-8.58657
-8.60094
-8.61191
-8.61936
-8.62314
-8.62315
-8.61929
-8.61146
-8.59958
-8.58355
-8.56332
-8.53879
-8.5099
-8.4766
-8.43882
-8.3965
-8.34956
-8.29794
-8.24157
-8.18034
-8.11419
-8.04302
-7.96678
-7.88536
-7.7987
-7.70672
-7.60937
-7.50658
-7.39832
-7.28454
-7.16521
-7.0403
-6.90979
-6.77369
-6.63199
-6.48472
-6.33192
-6.17363
-6.0099
-5.84083
-5.66646
-5.48693
-5.30231
-5.11276
-4.91839
-4.71936
-4.5158
-4.30792
-4.09585
-3.8798
-3.65994
-3.43648
-3.20962
-2.97956
-2.7465
-2.51065
-2.27222
-2.03144
-1.78851
-1.54367
-1.2971
-1.04901
-0.79961
-0.549117
-0.297726
-0.0456317
0.206979
0.459924
0.71302
0.966093
1.21897
1.47146
1.72342
1.97467
2.22506
2.47445
2.7227
2.96967
3.21517
3.45907
3.70121
3.94148
4.17976
4.41593
4.64989
4.88155
5.11081
5.33758
5.56177
5.78325
6.00191
6.21766
6.43039
6.64002
6.84644
7.04957
7.2493
7.44554
7.63816
7.82702
8.01197
8.19287
8.36931
8.54172
8.7063
8.87612
8.99351
-7.43429
-7.43808
-7.44501
-7.45229
-7.4596
-7.46689
-7.47407
-7.48105
-7.48771
-7.49391
-7.49953
-7.50445
-7.50855
-7.51175
-7.51398
-7.51518
-7.5153
-7.51433
-7.51224
-7.50903
-7.50467
-7.49923
-7.49288
-7.48589
-7.47851
-7.47106
-7.46371
-7.45653
-7.4496
-7.44302
-7.43693
-7.43172
-7.428
-7.42651
-7.42779
-7.43219
-7.43994
-7.45103
-7.46534
-7.48267
-7.5028
-7.52544
-7.55037
-7.57733
-7.60613
-7.63658
-7.66851
-7.70175
-7.73617
-7.77164
-7.80804
-7.84525
-7.88316
-7.92168
-7.96071
-8.00015
-8.03988
-8.07978
-8.11972
-8.15956
-8.19913
-8.23828
-8.27682
-8.31455
-8.35127
-8.38678
-8.42085
-8.45324
-8.48369
-8.51198
-8.53788
-8.56115
-8.58158
-8.59896
-8.61311
-8.62386
-8.63107
-8.6346
-8.63436
-8.63025
-8.62218
-8.61007
-8.59384
-8.5734
-8.54869
-8.51964
-8.4862
-8.44832
-8.40592
-8.35896
-8.30734
-8.25098
-8.18979
-8.1237
-8.05261
-7.97645
-7.89513
-7.80858
-7.71671
-7.61946
-7.51678
-7.40862
-7.29493
-7.17569
-7.05085
-6.92041
-6.78435
-6.6427
-6.49545
-6.34266
-6.18437
-6.02064
-5.85154
-5.67716
-5.49758
-5.31293
-5.12332
-4.92889
-4.7298
-4.52619
-4.31824
-4.10612
-3.89002
-3.67011
-3.44661
-3.21972
-2.98963
-2.75654
-2.52068
-2.28226
-2.0415
-1.79862
-1.55383
-1.30733
-1.05932
-0.810008
-0.559619
-0.30834
-0.0563654
0.19612
0.448934
0.701896
0.954828
1.20756
1.4599
1.7117
1.96279
2.21303
2.46226
2.71038
2.95723
3.20262
3.44638
3.68838
3.92851
4.16665
4.4027
4.63655
4.8681
5.09728
5.32398
5.54812
5.76956
5.98818
6.20387
6.41656
6.62614
6.83253
7.03563
7.23535
7.43157
7.62415
7.81294
7.99775
8.17843
8.3545
8.52639
8.69004
8.85932
8.97275
-7.42465
-7.42907
-7.43574
-7.44302
-7.45054
-7.45803
-7.4654
-7.47259
-7.47949
-7.48599
-7.49192
-7.49717
-7.5016
-7.5051
-7.50761
-7.50907
-7.50945
-7.50871
-7.50687
-7.50394
-7.49998
-7.49513
-7.48956
-7.48346
-7.47695
-7.47021
-7.46336
-7.45652
-7.44984
-7.4436
-7.43821
-7.43408
-7.43165
-7.43145
-7.43395
-7.43944
-7.4481
-7.45995
-7.47489
-7.49275
-7.5133
-7.53628
-7.56148
-7.58867
-7.61768
-7.64831
-7.6804
-7.7138
-7.74837
-7.78396
-7.82044
-7.85772
-7.8957
-7.93426
-7.9733
-8.01274
-8.05245
-8.09232
-8.13225
-8.17208
-8.21167
-8.25083
-8.2894
-8.32718
-8.36397
-8.39954
-8.43367
-8.46612
-8.49664
-8.52497
-8.55087
-8.5741
-8.59444
-8.61168
-8.62564
-8.63616
-8.6431
-8.64634
-8.6458
-8.64139
-8.63302
-8.62063
-8.60412
-8.58342
-8.55846
-8.52916
-8.4955
-8.45744
-8.41491
-8.36785
-8.31616
-8.25974
-8.19853
-8.13241
-8.06133
-7.98519
-7.9039
-7.81737
-7.72553
-7.62831
-7.52566
-7.41751
-7.30384
-7.1846
-7.05976
-6.9293
-6.79321
-6.65151
-6.50421
-6.35136
-6.19299
-6.02918
-5.85999
-5.6855
-5.50581
-5.32104
-5.13131
-4.93677
-4.73754
-4.53382
-4.32576
-4.11354
-3.89732
-3.67733
-3.45375
-3.22678
-2.99662
-2.76348
-2.52758
-2.28915
-2.04839
-1.80554
-1.56079
-1.31435
-1.0664
-0.81718
-0.566891
-0.315727
-0.0638752
0.18848
0.441155
0.693972
0.946752
1.19932
1.4515
1.70313
1.95405
2.20412
2.45319
2.70117
2.94789
3.19312
3.43672
3.67855
3.91851
4.1565
4.3924
4.62611
4.85755
5.08662
5.31325
5.53734
5.75872
5.97726
6.19289
6.40551
6.61503
6.82138
7.02444
7.22414
7.42034
7.61288
7.80156
7.98622
8.16666
8.34234
8.51371
8.67649
8.84524
8.95542
-7.40725
-7.41167
-7.41853
-7.42658
-7.43479
-7.44276
-7.45049
-7.45801
-7.46531
-7.47226
-7.47869
-7.4844
-7.48924
-7.49314
-7.49604
-7.49788
-7.49864
-7.49832
-7.49694
-7.49453
-7.49118
-7.48697
-7.48203
-7.47649
-7.47047
-7.4641
-7.45751
-7.45093
-7.44466
-7.43902
-7.43435
-7.43104
-7.42957
-7.43039
-7.43387
-7.44027
-7.44972
-7.46222
-7.47768
-7.49592
-7.51675
-7.53995
-7.56533
-7.59271
-7.6219
-7.65273
-7.68504
-7.71867
-7.75347
-7.78931
-7.82609
-7.86368
-7.90198
-7.9409
-7.98031
-8.0201
-8.06016
-8.1004
-8.14068
-8.18088
-8.22083
-8.26038
-8.29934
-8.33751
-8.37468
-8.41063
-8.44509
-8.47784
-8.50861
-8.53713
-8.56312
-8.58636
-8.60663
-8.62373
-8.63746
-8.64766
-8.65423
-8.65708
-8.65613
-8.65134
-8.64262
-8.62989
-8.61307
-8.59205
-8.56675
-8.53712
-8.50316
-8.46488
-8.4222
-8.37502
-8.32322
-8.26672
-8.20542
-8.13926
-8.06814
-7.99199
-7.91068
-7.82415
-7.73229
-7.63505
-7.53237
-7.4242
-7.3105
-7.19122
-7.06634
-6.93582
-6.79967
-6.65788
-6.51049
-6.35753
-6.19906
-6.03513
-5.86581
-5.69119
-5.51136
-5.32645
-5.13657
-4.94187
-4.74251
-4.53866
-4.33046
-4.11812
-3.9018
-3.6817
-3.45803
-3.23097
-3.00074
-2.76755
-2.53161
-2.29317
-2.05243
-1.80962
-1.56492
-1.31853
-1.07067
-0.82155
-0.571376
-0.320337
-0.0686198
0.183591
0.436115
0.688771
0.941382
1.19377
1.44577
1.69721
1.94794
2.19781
2.4467
2.69454
2.94115
3.18622
3.42962
3.67126
3.91103
4.14883
4.38456
4.61812
4.84942
5.07838
5.30492
5.52896
5.75028
5.96873
6.18427
6.39681
6.60627
6.81256
7.01559
7.21526
7.41144
7.60393
7.79251
7.97699
8.15718
8.33248
8.50333
8.66531
8.83349
8.94113
-7.38175
-7.38603
-7.39379
-7.40322
-7.41242
-7.42094
-7.42907
-7.43709
-7.44507
-7.45278
-7.45992
-7.46626
-7.47165
-7.47605
-7.47943
-7.48178
-7.48308
-7.48331
-7.48249
-7.48065
-7.47784
-7.47416
-7.46967
-7.46449
-7.45873
-7.45257
-7.44624
-7.43998
-7.43409
-7.42887
-7.42474
-7.42214
-7.42149
-7.42318
-7.42753
-7.43472
-7.44485
-7.4579
-7.47378
-7.49232
-7.51337
-7.53676
-7.56233
-7.5899
-7.61932
-7.65044
-7.68308
-7.71708
-7.75228
-7.78855
-7.82578
-7.86387
-7.90269
-7.94214
-7.9821
-8.02249
-8.06318
-8.10406
-8.14499
-8.18584
-8.22645
-8.26667
-8.30629
-8.34512
-8.38292
-8.41945
-8.45446
-8.48767
-8.51877
-8.54745
-8.57346
-8.59657
-8.61661
-8.6334
-8.64673
-8.65642
-8.66245
-8.66478
-8.66336
-8.65816
-8.6491
-8.63606
-8.61893
-8.5976
-8.57197
-8.54192
-8.50755
-8.46902
-8.42622
-8.37894
-8.32705
-8.27045
-8.20907
-8.14286
-8.07172
-7.99556
-7.91425
-7.8277
-7.73582
-7.63855
-7.53584
-7.42765
-7.31392
-7.19462
-7.0697
-6.93913
-6.8029
-6.66103
-6.51355
-6.36049
-6.20192
-6.03789
-5.86847
-5.69373
-5.51379
-5.32874
-5.13874
-4.94391
-4.74445
-4.54047
-4.33219
-4.11975
-3.90335
-3.68318
-3.45945
-3.23233
-3.00205
-2.76883
-2.53291
-2.2945
-2.05382
-1.81107
-1.56645
-1.32016
-1.07242
-0.823451
-0.573436
-0.322563
-0.0710234
0.181002
0.43333
0.685783
0.93818
1.19035
1.44212
1.69333
1.94383
2.19348
2.44216
2.68992
2.93648
3.18139
3.42457
3.66597
3.90553
4.14314
4.3787
4.6121
4.84326
5.0721
5.29859
5.52261
5.74388
5.96223
6.17767
6.39012
6.59951
6.80575
7.00873
7.20838
7.40456
7.59699
7.78545
7.96976
8.14968
8.32459
8.49495
8.65618
8.82374
8.92952
-7.34936
-7.35395
-7.36319
-7.37437
-7.38465
-7.39387
-7.40275
-7.41146
-7.42011
-7.42871
-7.4369
-7.44423
-7.45033
-7.45522
-7.4591
-7.46201
-7.46389
-7.46469
-7.46442
-7.46309
-7.46073
-7.4574
-7.45318
-7.44818
-7.44259
-7.43657
-7.43037
-7.42425
-7.41857
-7.41371
-7.41008
-7.40809
-7.40814
-7.41056
-7.41561
-7.42342
-7.43405
-7.4475
-7.46368
-7.48247
-7.50375
-7.52735
-7.55313
-7.58094
-7.61064
-7.64206
-7.67505
-7.70943
-7.74509
-7.78187
-7.81967
-7.85836
-7.89782
-7.93795
-7.97863
-8.01977
-8.06125
-8.10296
-8.14474
-8.18645
-8.22791
-8.26894
-8.30934
-8.3489
-8.38737
-8.42448
-8.45995
-8.49348
-8.52473
-8.55337
-8.57911
-8.6018
-8.62137
-8.63764
-8.65032
-8.65919
-8.66442
-8.66617
-8.66435
-8.65887
-8.64966
-8.63652
-8.61929
-8.59782
-8.57195
-8.54147
-8.50662
-8.46783
-8.42495
-8.37762
-8.32563
-8.26889
-8.2074
-8.14111
-8.06995
-7.99379
-7.91248
-7.8259
-7.73396
-7.63663
-7.53387
-7.42565
-7.3119
-7.19258
-7.06762
-6.93699
-6.80068
-6.65872
-6.51116
-6.35802
-6.19937
-6.03526
-5.86576
-5.69093
-5.51087
-5.32572
-5.13562
-4.94071
-4.74115
-4.53712
-4.32878
-4.11631
-3.8999
-3.67971
-3.45597
-3.22886
-2.99861
-2.76546
-2.52963
-2.29135
-2.05082
-1.80823
-1.56379
-1.31771
-1.07023
-0.821522
-0.571784
-0.321204
-0.0699709
0.181734
0.43373
0.685835
0.937874
1.18967
1.44107
1.6919
1.94201
2.19126
2.43956
2.68708
2.9335
3.17817
3.42104
3.66218
3.9015
4.13889
4.37425
4.60748
4.83849
5.0672
5.29367
5.5178
5.73908
5.95733
6.17266
6.38504
6.59437
6.80056
7.00353
7.20319
7.39941
7.59181
7.78015
7.96426
8.14392
8.31846
8.48834
8.64887
8.81575
8.92033
-7.31301
-7.31846
-7.32969
-7.34302
-7.35442
-7.36393
-7.37319
-7.38293
-7.39283
-7.40255
-7.41179
-7.42013
-7.42702
-7.43246
-7.43683
-7.44029
-7.44273
-7.44407
-7.44428
-7.44334
-7.44127
-7.43815
-7.43406
-7.42912
-7.4235
-7.41742
-7.41117
-7.40509
-7.39954
-7.39493
-7.39166
-7.39011
-7.39064
-7.39353
-7.39897
-7.4071
-7.41798
-7.4316
-7.44792
-7.46682
-7.4882
-7.51193
-7.53787
-7.56589
-7.59584
-7.62755
-7.66086
-7.69563
-7.73175
-7.76906
-7.80744
-7.84678
-7.88695
-7.92784
-7.96934
-8.01132
-8.05366
-8.0962
-8.13879
-8.18126
-8.22344
-8.26512
-8.3061
-8.34615
-8.38501
-8.42242
-8.45806
-8.49162
-8.52272
-8.55089
-8.57583
-8.59762
-8.61641
-8.63199
-8.64378
-8.6513
-8.65525
-8.65627
-8.65413
-8.64863
-8.63957
-8.62668
-8.60969
-8.5884
-8.56282
-8.53298
-8.49891
-8.46056
-8.4178
-8.37044
-8.31835
-8.26147
-8.19986
-8.13346
-8.0622
-7.98593
-7.90452
-7.81781
-7.72574
-7.62827
-7.52539
-7.41704
-7.30319
-7.18375
-7.05867
-6.9279
-6.79145
-6.64934
-6.50163
-6.34836
-6.18957
-6.02533
-5.85568
-5.68071
-5.50051
-5.31524
-5.125
-4.92999
-4.73032
-4.52621
-4.3178
-4.10529
-3.88884
-3.66865
-3.44489
-3.21781
-2.98762
-2.75456
-2.51885
-2.28073
-2.04037
-1.79798
-1.55376
-1.30796
-1.06077
-0.812392
-0.562997
-0.312787
-0.061944
0.189349
0.440912
0.692564
0.94413
1.19544
1.44632
1.69661
1.94616
2.1948
2.44239
2.68882
2.93401
3.17785
3.42018
3.66087
3.89979
4.13682
4.37184
4.60474
4.83543
5.06384
5.29013
5.51424
5.73548
5.9536
6.16883
6.38113
6.59041
6.79658
6.99953
7.19928
7.39565
7.58809
7.77631
7.96025
8.13965
8.31384
8.48327
8.64314
8.80929
8.9133
-7.27621
-7.28285
-7.2965
-7.31173
-7.32345
-7.33339
-7.34371
-7.35456
-7.36551
-7.37626
-7.38652
-7.3958
-7.40348
-7.40957
-7.41456
-7.41863
-7.42163
-7.42347
-7.42408
-7.42343
-7.42154
-7.41846
-7.41428
-7.40916
-7.40331
-7.39698
-7.39049
-7.38421
-7.37853
-7.37385
-7.37056
-7.36901
-7.36953
-7.37236
-7.37773
-7.38573
-7.39645
-7.40989
-7.42602
-7.44477
-7.46606
-7.48977
-7.51581
-7.544
-7.57421
-7.60623
-7.63992
-7.67513
-7.71176
-7.74964
-7.78865
-7.82863
-7.86947
-7.91102
-7.95318
-7.9958
-8.03875
-8.08185
-8.12495
-8.16787
-8.21042
-8.25241
-8.29361
-8.3338
-8.37272
-8.41012
-8.44568
-8.47907
-8.50975
-8.53692
-8.56009
-8.57982
-8.5971
-8.61209
-8.62418
-8.63277
-8.63758
-8.63872
-8.63644
-8.63082
-8.62166
-8.60871
-8.59167
-8.57037
-8.54496
-8.51575
-8.48248
-8.44454
-8.40184
-8.35446
-8.30233
-8.24544
-8.18381
-8.11738
-8.04605
-7.96972
-7.88824
-7.80148
-7.70936
-7.61186
-7.50896
-7.4006
-7.2867
-7.16722
-7.0421
-6.91128
-6.77478