/*--------------------------------*- C++ -*----------------------------------*\
  =========                 |
  \\      /  F ield         | OpenFOAM: The Open Source CFD Toolbox
   \\    /   O peration     | Website:  https://openfoam.org
    \\  /    A nd           | Version:  8
     \\/     M anipulation  |
\*---------------------------------------------------------------------------*/
FoamFile
{
    version     2.0;
    format      ascii;
    class       volVectorField;
    location    "500";
    object      U;
}
// * * * * * * * * * * * * * * * * * * * * * * * * * * * * * * * * * * * * * //

dimensions      [0 1 -1 0 0 0 0];

internalField   nonuniform List<vector> 
12225
(
(9.75438 0.0465666 0)
(9.30333 0.0925766 0)
(8.86576 0.100727 0)
(8.46023 0.0917386 0)
(8.10448 0.0781836 0)
(7.80243 0.0653378 0)
(7.54275 0.0588232 0)
(7.32852 0.0470343 0)
(7.15398 0.0334856 0)
(7.00906 0.0286612 0)
(6.87775 0.0236677 0)
(6.76747 0.0197163 0)
(6.6842 0.013035 0)
(6.6168 0.00604532 0)
(6.56443 0.00283993 0)
(6.52626 0.00745741 0)
(6.50526 0.0151315 0)
(6.50207 0.00387708 0)
(10.0987 0.0602819 0)
(10.2557 0.0924103 0)
(10.3478 0.0907274 0)
(10.3719 0.0874322 0)
(10.3583 0.0846516 0)
(10.3137 0.0800555 0)
(10.2517 0.074316 0)
(10.1644 0.0695878 0)
(10.0747 0.0647809 0)
(9.97785 0.0587959 0)
(9.88599 0.0530981 0)
(9.79571 0.0472035 0)
(9.70292 0.0425998 0)
(9.61584 0.0391877 0)
(9.53319 0.0349177 0)
(9.45469 0.0279485 0)
(9.37691 0.0205222 0)
(9.30199 0.015076 0)
(10.0132 0.0412073 0)
(10.0771 0.0640724 0)
(10.1276 0.0679841 0)
(10.1683 0.0727312 0)
(10.2039 0.0777488 0)
(10.235 0.0804685 0)
(10.2603 0.0801692 0)
(10.278 0.0772803 0)
(10.2888 0.0749219 0)
(10.2936 0.0744884 0)
(10.2942 0.073365 0)
(10.2902 0.0705061 0)
(10.2807 0.0661197 0)
(10.2672 0.0613531 0)
(10.2506 0.0568496 0)
(10.2321 0.0523959 0)
(10.213 0.0472671 0)
(10.1914 0.0386779 0)
(10.0061 0.0298073 0)
(10.0397 0.055048 0)
(10.0707 0.0629101 0)
(10.0933 0.0679289 0)
(10.1123 0.0711523 0)
(10.1305 0.0719253 0)
(10.1477 0.0709304 0)
(10.1628 0.0685253 0)
(10.1757 0.0660755 0)
(10.1876 0.0644904 0)
(10.1989 0.0626983 0)
(10.2092 0.0606742 0)
(10.2182 0.0583088 0)
(10.2256 0.0556007 0)
(10.2316 0.0528059 0)
(10.2366 0.049752 0)
(10.2407 0.0460136 0)
(10.2433 0.0403685 0)
(10.0041 0.0233627 0)
(10.0271 0.0487492 0)
(10.0523 0.0580914 0)
(10.0705 0.0626498 0)
(10.0852 0.065617 0)
(10.0991 0.0667384 0)
(10.1121 0.0662582 0)
(10.1234 0.0646279 0)
(10.1329 0.0628069 0)
(10.1418 0.0613562 0)
(10.1505 0.059725 0)
(10.1588 0.0577887 0)
(10.1666 0.055443 0)
(10.1737 0.0528314 0)
(10.1804 0.0501206 0)
(10.1868 0.0471572 0)
(10.1927 0.0436343 0)
(10.1977 0.0390659 0)
(10.0029 0.0187269 0)
(10.02 0.0420871 0)
(10.0411 0.0521383 0)
(10.0575 0.0570918 0)
(10.0709 0.0605509 0)
(10.0836 0.0622791 0)
(10.0954 0.0622111 0)
(10.1056 0.0609444 0)
(10.1143 0.059375 0)
(10.1223 0.0578909 0)
(10.13 0.0561995 0)
(10.1373 0.0541852 0)
(10.1442 0.051836 0)
(10.1505 0.0492557 0)
(10.1564 0.0465508 0)
(10.1621 0.0436136 0)
(10.1673 0.0402567 0)
(10.1719 0.0363358 0)
(10.002 0.015113 0)
(10.015 0.0356978 0)
(10.0325 0.0462919 0)
(10.0475 0.051683 0)
(10.0601 0.0553607 0)
(10.0719 0.0573548 0)
(10.0831 0.0576034 0)
(10.0929 0.0567192 0)
(10.1015 0.0554516 0)
(10.1093 0.0540861 0)
(10.1167 0.0524812 0)
(10.1237 0.0505701 0)
(10.1302 0.0483588 0)
(10.1362 0.0459191 0)
(10.1418 0.0433068 0)
(10.147 0.040468 0)
(10.1517 0.0373189 0)
(10.1558 0.0338602 0)
(10.0015 0.012535 0)
(10.0118 0.0309455 0)
(10.0268 0.0416753 0)
(10.0406 0.0473034 0)
(10.0524 0.050979 0)
(10.0637 0.053059 0)
(10.0742 0.0535159 0)
(10.0838 0.0529227 0)
(10.0922 0.0518849 0)
(10.1 0.0506358 0)
(10.1073 0.0491021 0)
(10.1141 0.0472703 0)
(10.1204 0.0451545 0)
(10.1263 0.0428239 0)
(10.1317 0.0403036 0)
(10.1367 0.0375772 0)
(10.1411 0.0346166 0)
(10.1451 0.0314857 0)
(10.0011 0.0106182 0)
(10.0095 0.0269403 0)
(10.0224 0.0374763 0)
(10.0351 0.0432229 0)
(10.0463 0.0469107 0)
(10.0569 0.049076 0)
(10.0669 0.0497346 0)
(10.0761 0.0493758 0)
(10.0844 0.0485198 0)
(10.0921 0.0473807 0)
(10.0992 0.0459355 0)
(10.1059 0.0441905 0)
(10.1122 0.0421775 0)
(10.1179 0.039956 0)
(10.1232 0.0375615 0)
(10.128 0.0349817 0)
(10.1324 0.0322274 0)
(10.1362 0.0293583 0)
(10.0009 0.00892102 0)
(10.0076 0.0230595 0)
(10.0185 0.0331049 0)
(10.0299 0.0388591 0)
(10.0404 0.0425143 0)
(10.0503 0.0447087 0)
(10.0598 0.0455338 0)
(10.0686 0.045377 0)
(10.0766 0.0446864 0)
(10.0841 0.0436497 0)
(10.091 0.0423 0)
(10.0976 0.040654 0)
(10.1036 0.0387561 0)
(10.1092 0.0366723 0)
(10.1144 0.0344175 0)
(10.1191 0.0320181 0)
(10.1233 0.0294842 0)
(10.1271 0.0268937 0)
(10.0007 0.00739705 0)
(10.006 0.0193819 0)
(10.015 0.0286527 0)
(10.0252 0.0342593 0)
(10.0348 0.0378024 0)
(10.044 0.0399672 0)
(10.0529 0.0409016 0)
(10.0613 0.040922 0)
(10.069 0.040372 0)
(10.0762 0.0394458 0)
(10.0829 0.0381933 0)
(10.0892 0.0366569 0)
(10.0951 0.034895 0)
(10.1005 0.0329579 0)
(10.1055 0.0308681 0)
(10.1101 0.0286624 0)
(10.1142 0.0263636 0)
(10.1179 0.0240212 0)
(10.0005 0.00602183 0)
(10.0047 0.0158863 0)
(10.0121 0.0241355 0)
(10.021 0.029407 0)
(10.0297 0.0327545 0)
(10.0382 0.0348244 0)
(10.0465 0.0358172 0)
(10.0543 0.0359624 0)
(10.0617 0.0355481 0)
(10.0686 0.0347261 0)
(10.075 0.0335908 0)
(10.0811 0.0321829 0)
(10.0867 0.0305817 0)
(10.092 0.0287986 0)
(10.0968 0.0269051 0)
(10.1012 0.0248965 0)
(10.1051 0.0228328 0)
(10.1088 0.0207376 0)
(10.0004 0.00477453 0)
(10.0037 0.0126332 0)
(10.0097 0.0196558 0)
(10.0173 0.0243766 0)
(10.0252 0.0274154 0)
(10.033 0.0293138 0)
(10.0406 0.0302784 0)
(10.0479 0.0304975 0)
(10.0549 0.0301792 0)
(10.0614 0.0294697 0)
(10.0676 0.028454 0)
(10.0734 0.0272046 0)
(10.0788 0.025755 0)
(10.0838 0.024168 0)
(10.0884 0.0224549 0)
(10.0927 0.020674 0)
(10.0965 0.0188309 0)
(10.1 0.016991 0)
(10.0003 0.00364084 0)
(10.0029 0.00959611 0)
(10.0079 0.0152513 0)
(10.0143 0.0192158 0)
(10.0213 0.0218184 0)
(10.0283 0.0234504 0)
(10.0353 0.0242958 0)
(10.0421 0.0245197 0)
(10.0487 0.024254 0)
(10.0549 0.023643 0)
(10.0607 0.022749 0)
(10.0663 0.0216505 0)
(10.0714 0.0203729 0)
(10.0762 0.0189716 0)
(10.0807 0.0174636 0)
(10.0847 0.0159043 0)
(10.0884 0.0142995 0)
(10.0918 0.0127031 0)
(10.0003 0.00258538 0)
(10.0023 0.00672678 0)
(10.0064 0.0109169 0)
(10.0119 0.0139565 0)
(10.018 0.0159776 0)
(10.0244 0.0172338 0)
(10.0308 0.0178768 0)
(10.0371 0.0180119 0)
(10.0432 0.0177619 0)
(10.0491 0.0172046 0)
(10.0547 0.0164268 0)
(10.0599 0.0154599 0)
(10.0649 0.014361 0)
(10.0694 0.0131404 0)
(10.0737 0.0118583 0)
(10.0776 0.01052 0)
(10.0812 0.00916964 0)
(10.0845 0.00781828 0)
(10.0002 0.00158295 0)
(10.0019 0.00395857 0)
(10.0054 0.00662531 0)
(10.0101 0.0085895 0)
(10.0155 0.00987779 0)
(10.0213 0.0106453 0)
(10.0272 0.0109751 0)
(10.0331 0.0109501 0)
(10.0388 0.0106391 0)
(10.0444 0.0101077 0)
(10.0496 0.00940571 0)
(10.0546 0.00856963 0)
(10.0594 0.00762963 0)
(10.0638 0.00661245 0)
(10.0679 0.00554613 0)
(10.0717 0.0044514 0)
(10.0752 0.00334615 0)
(10.0784 0.00225781 0)
(10.0002 0.000593885 0)
(10.0017 0.00121496 0)
(10.0047 0.00230215 0)
(10.0089 0.00304123 0)
(10.0139 0.00346472 0)
(10.0192 0.00360328 0)
(10.0247 0.00352638 0)
(10.0302 0.00324094 0)
(10.0357 0.0028153 0)
(10.041 0.00225192 0)
(10.046 0.00160618 0)
(10.0508 0.000873718 0)
(10.0554 9.56646e-05 0)
(10.0596 -0.000731138 0)
(10.0636 -0.00157312 0)
(10.0673 -0.00243149 0)
(10.0707 -0.00328391 0)
(10.0739 -0.00411727 0)
(10.0002 -0.000375836 0)
(10.0016 -0.00145315 0)
(10.0045 -0.00197737 0)
(10.0085 -0.00249621 0)
(10.0133 -0.00302979 0)
(10.0185 -0.00356677 0)
(10.0238 -0.00413349 0)
(10.0291 -0.00470729 0)
(10.0344 -0.005311 0)
(10.0396 -0.00591505 0)
(10.0445 -0.00654582 0)
(10.0492 -0.00717263 0)
(10.0537 -0.00781919 0)
(10.0578 -0.00845478 0)
(10.0617 -0.00909881 0)
(10.0654 -0.00972317 0)
(10.0688 -0.0103471 0)
(10.0719 -0.0109331 0)
(10.0002 -0.00129161 0)
(10.0017 -0.0039731 0)
(10.0047 -0.00601224 0)
(10.0089 -0.00771821 0)
(10.0138 -0.00914239 0)
(10.019 -0.010327 0)
(10.0244 -0.0113419 0)
(10.0298 -0.0122057 0)
(10.0352 -0.0129578 0)
(10.0403 -0.0136159 0)
(10.0453 -0.0142134 0)
(10.05 -0.0147574 0)
(10.0544 -0.015267 0)
(10.0586 -0.0157432 0)
(10.0625 -0.0161966 0)
(10.0661 -0.0166255 0)
(10.0695 -0.0170367 0)
(10.0726 -0.0174172 0)
(10.0002 -0.00218458 0)
(10.002 -0.00644392 0)
(10.0053 -0.00987925 0)
(10.0099 -0.012649 0)
(10.0152 -0.014827 0)
(10.0207 -0.0165705 0)
(10.0263 -0.0179496 0)
(10.0319 -0.0190466 0)
(10.0374 -0.0198943 0)
(10.0427 -0.0205807 0)
(10.0478 -0.0211197 0)
(10.0525 -0.0215773 0)
(10.057 -0.021945 0)
(10.0612 -0.0222738 0)
(10.0652 -0.022549 0)
(10.0689 -0.022805 0)
(10.0723 -0.023027 0)
(10.0754 -0.0232288 0)
(10.0003 -0.00312562 0)
(10.0024 -0.00903249 0)
(10.0063 -0.0137996 0)
(10.0116 -0.0174815 0)
(10.0173 -0.0203014 0)
(10.0233 -0.022486 0)
(10.0293 -0.0241637 0)
(10.0352 -0.0253985 0)
(10.041 -0.026308 0)
(10.0465 -0.0269532 0)
(10.0517 -0.0274308 0)
(10.0566 -0.0277552 0)
(10.0612 -0.0279996 0)
(10.0655 -0.0281559 0)
(10.0694 -0.0282828 0)
(10.0732 -0.0283563 0)
(10.0766 -0.028424 0)
(10.0798 -0.0284493 0)
(10.0003 -0.00417611 0)
(10.003 -0.0118687 0)
(10.0078 -0.0178874 0)
(10.0139 -0.0223318 0)
(10.0203 -0.0256627 0)
(10.0268 -0.028206 0)
(10.0333 -0.0300793 0)
(10.0396 -0.0313928 0)
(10.0457 -0.0322804 0)
(10.0514 -0.0328617 0)
(10.0568 -0.0332199 0)
(10.0619 -0.0334139 0)
(10.0666 -0.033493 0)
(10.071 -0.0334975 0)
(10.075 -0.0334502 0)
(10.0788 -0.0333757 0)
(10.0823 -0.0332754 0)
(10.0856 -0.033165 0)
(10.0005 -0.00541057 0)
(10.0039 -0.0150655 0)
(10.01 -0.0221985 0)
(10.0171 -0.0272245 0)
(10.0242 -0.0309636 0)
(10.0313 -0.0337826 0)
(10.0383 -0.0357671 0)
(10.0451 -0.0370693 0)
(10.0515 -0.0378789 0)
(10.0575 -0.0383474 0)
(10.0632 -0.0385589 0)
(10.0684 -0.0385967 0)
(10.0733 -0.0385047 0)
(10.0777 -0.0383481 0)
(10.0819 -0.0381379 0)
(10.0857 -0.0379122 0)
(10.0893 -0.0376674 0)
(10.0926 -0.0374182 0)
(10.0007 -0.00693362 0)
(10.0054 -0.0187392 0)
(10.013 -0.0267313 0)
(10.0212 -0.0321104 0)
(10.0291 -0.0361872 0)
(10.0368 -0.0392347 0)
(10.0444 -0.0412632 0)
(10.0517 -0.0424871 0)
(10.0586 -0.0431631 0)
(10.0649 -0.0434675 0)
(10.0708 -0.0434992 0)
(10.0763 -0.0433411 0)
(10.0813 -0.0430694 0)
(10.0859 -0.0427305 0)
(10.0902 -0.0423712 0)
(10.0941 -0.0420036 0)
(10.0978 -0.0416505 0)
(10.1011 -0.0412951 0)
(10.001 -0.0088744 0)
(10.0075 -0.0229923 0)
(10.0171 -0.0314965 0)
(10.0265 -0.0369898 0)
(10.0351 -0.0412871 0)
(10.0436 -0.0444857 0)
(10.052 -0.0465229 0)
(10.06 -0.0476732 0)
(10.0673 -0.0482324 0)
(10.0741 -0.048381 0)
(10.0804 -0.0482238 0)
(10.0861 -0.0478591 0)
(10.0914 -0.0473682 0)
(10.0963 -0.0468173 0)
(10.1007 -0.0462558 0)
(10.1048 -0.045714 0)
(10.1087 -0.0451952 0)
(10.1122 -0.044703 0)
(10.0015 -0.0114185 0)
(10.0108 -0.0276844 0)
(10.0229 -0.0364745 0)
(10.0337 -0.0421531 0)
(10.0433 -0.0466115 0)
(10.053 -0.0497274 0)
(10.0625 -0.0515632 0)
(10.0715 -0.0525264 0)
(10.0797 -0.0529147 0)
(10.0873 -0.052917 0)
(10.0943 -0.0526234 0)
(10.1007 -0.0521323 0)
(10.1066 -0.0515293 0)
(10.112 -0.0508666 0)
(10.1169 -0.0502179 0)
(10.1214 -0.049601 0)
(10.1257 -0.0490226 0)
(10.1296 -0.0484521 0)
(10.0025 -0.0153516 0)
(10.0163 -0.0327493 0)
(10.0324 -0.0411881 0)
(10.0462 -0.0474866 0)
(10.0586 -0.0525263 0)
(10.071 -0.0556625 0)
(10.0831 -0.0572101 0)
(10.0945 -0.0577908 0)
(10.1049 -0.0577696 0)
(10.1145 -0.0573365 0)
(10.1235 -0.0566132 0)
(10.1317 -0.0557255 0)
(10.1391 -0.054754 0)
(10.1459 -0.0537886 0)
(10.1521 -0.0528848 0)
(10.1577 -0.0520888 0)
(10.1629 -0.0513885 0)
(10.1675 -0.0507175 0)
(10.0064 -0.0230556 0)
(10.0339 -0.0392782 0)
(10.0622 -0.0446608 0)
(10.0867 -0.0507265 0)
(10.1097 -0.056731 0)
(10.1324 -0.0608987 0)
(10.1539 -0.0633113 0)
(10.1732 -0.0646023 0)
(10.1904 -0.0651437 0)
(10.2053 -0.0650616 0)
(10.2182 -0.0645083 0)
(10.229 -0.0636247 0)
(10.2379 -0.0625276 0)
(10.2449 -0.0613518 0)
(10.2503 -0.0601761 0)
(10.2543 -0.059117 0)
(10.2573 -0.0582217 0)
(10.2592 -0.0576229 0)
(10.0431 -0.0365449 0)
(10.1424 -0.0633491 0)
(10.2162 -0.0677687 0)
(10.2683 -0.0697565 0)
(10.3057 -0.071811 0)
(10.3299 -0.0725361 0)
(10.3409 -0.0719796 0)
(10.3401 -0.0706674 0)
(10.3297 -0.0689167 0)
(10.3121 -0.0668606 0)
(10.2889 -0.0646017 0)
(10.2616 -0.0622387 0)
(10.2312 -0.0598646 0)
(10.1987 -0.0575615 0)
(10.1648 -0.0553862 0)
(10.1303 -0.0534691 0)
(10.0955 -0.0518034 0)
(10.0616 -0.050833 0)
(9.88824 -0.0291413 0)
(9.66866 -0.0637523 0)
(9.43353 -0.0774437 0)
(9.18464 -0.0834165 0)
(8.94285 -0.0842257 0)
(8.71683 -0.0813714 0)
(8.50926 -0.0762331 0)
(8.32018 -0.0701558 0)
(8.14968 -0.0637051 0)
(7.9969 -0.0572302 0)
(7.86086 -0.0510193 0)
(7.7398 -0.0452157 0)
(7.63242 -0.0398929 0)
(7.537 -0.0350726 0)
(7.45229 -0.0307698 0)
(7.37665 -0.0270191 0)
(7.30861 -0.0238826 0)
(7.24699 -0.021811 0)
(-0.00269208 0.00746245 0)
(-0.0125824 0.0124118 0)
(-0.0260012 0.0134569 0)
(-0.0401249 0.0113829 0)
(-0.0501363 0.0055968 0)
(-0.0485862 -0.00389648 0)
(-0.0325338 -0.0167254 -8.30303e-19)
(-0.00523988 -0.0299901 9.25844e-19)
(0.0300893 -0.0398062 0)
(0.070584 -0.0445603 5.2659e-19)
(0.113302 -0.0448971 0)
(0.154851 -0.0419744 0)
(0.192561 -0.0368315 0)
(0.22483 -0.0302667 -2.61101e-19)
(0.250816 -0.022839 0)
(0.270117 -0.0149026 0)
(0.282405 -0.00665539 2.26205e-19)
(0.287893 0.00197548 0)
(0.285463 0.0108736 0)
(0.275353 0.0195619 0)
(0.258188 0.0272932 -2.42555e-19)
(0.234588 0.0333019 0)
(0.205482 0.036887 -2.8671e-19)
(0.172232 0.0374598 0)
(0.136664 0.0346251 0)
(0.100968 0.0283979 -4.64188e-19)
(0.0675675 0.0194567 0)
(0.0387948 0.0094132 7.67741e-19)
(0.0163957 0.000735282 0)
(0.000908599 -0.00461535 -1.31259e-18)
(-0.00879076 -0.00722109 0)
(-0.0137581 -0.00908091 0)
(-0.0128469 -0.0112808 0)
(-0.00577267 -0.0146728 0)
(0.00831752 -0.0196488 0)
(0.0297396 -0.025195 8.61579e-19)
(0.0570894 -0.0292037 0)
(0.086502 -0.0294902 -1.02282e-18)
(0.113065 -0.0254656 0)
(0.132598 -0.0183405 8.10254e-19)
(0.143225 -0.0105576 0)
(0.146091 -0.00429736 0)
(0.143791 -0.000909844 -7.95881e-19)
(0.140131 -0.00127944 0)
(0.138069 -0.00629748 -8.21472e-19)
(0.136049 -0.0154476 8.2484e-19)
(0.127821 -0.0236956 0)
(0.106029 -0.0208414 8.92443e-19)
(0.0656906 -0.00202697 1.03956e-18)
(-0.00688021 0.0164069 0)
(-0.103836 0.0339581 0)
(-0.207577 0.0566264 0)
(-0.322104 0.0805574 0)
(-0.445519 0.0992542 0)
(-0.574982 0.109625 -1.84788e-19)
(-0.706817 0.113574 0)
(-0.836546 0.113854 1.45913e-19)
(-0.962202 0.109752 0)
(-1.08241 0.102228 0)
(-1.19429 0.0937232 -1.16273e-19)
(-1.29835 0.0857382 0)
(-1.39435 0.0791053 1.03831e-19)
(-1.48287 0.0711076 0)
(-1.56405 0.063724 0)
(-1.63881 0.058388 0)
(-1.70787 0.0533203 -9.00324e-20)
(-1.77185 0.0489719 0)
(-1.83136 0.045122 0)
(-1.88694 0.0417803 -8.36224e-20)
(-1.93906 0.0388388 0)
(-1.98813 0.036264 -8.03766e-20)
(-2.03451 0.0339722 0)
(-2.07845 0.031932 0)
(-2.12021 0.030083 0)
(-2.15997 0.0284044 7.52367e-20)
(-2.19787 0.0268539 0)
(-2.23405 0.0254195 0)
(-2.2686 0.024072 7.2075e-20)
(-2.30161 0.0228056 7.11038e-20)
(-2.33312 0.0216 0)
(-2.36321 0.020453 6.92497e-20)
(-2.39192 0.0193501 0)
(-2.41927 0.0182907 1.34969e-19)
(-2.4453 0.0172637 0)
(-2.47003 0.0162691 1.31564e-19)
(-2.49349 0.0152977 0)
(-2.51568 0.0143494 -1.28242e-19)
(-2.53661 0.0134153 0)
(-2.55629 0.0124937 0)
(-2.57471 0.0115767 0)
(-2.59188 0.0106574 1.21718e-19)
(-2.6078 0.0097283 0)
(-2.62245 0.00878222 -1.18468e-19)
(-2.6358 0.00781143 0)
(-2.64782 0.00680928 1.15203e-19)
(-2.65846 0.00576937 1.13564e-19)
(-2.66767 0.00469291 1.11919e-19)
(-2.67539 0.00358903 0)
(-2.68157 0.00249737 0)
(-2.68612 0.00148355 0)
(-2.68898 0.000612486 0)
(-2.69037 -0.00012276 0)
(-2.69057 -0.000790738 0)
(-2.68953 -0.00144528 0)
(-2.68729 -0.00208966 0)
(-2.68383 -0.00273173 -9.62522e-20)
(-2.67914 -0.00336819 -9.43316e-20)
(-2.67323 -0.00400242 0)
(-2.66609 -0.00463073 0)
(-2.65771 -0.00525549 0)
(-2.64809 -0.00587351 -8.618e-20)
(-2.63723 -0.00648628 0)
(-2.62512 -0.00709151 0)
(-2.61177 -0.00768961 0)
(-2.59719 -0.00827942 0)
(-2.58137 -0.0088601 7.47644e-20)
(-2.56432 -0.00943188 0)
(-2.54605 -0.00999255 0)
(-2.52657 -0.0105438 -6.71518e-20)
(-2.5059 -0.0110821 6.44737e-20)
(-2.48403 -0.0116108 0)
(-2.461 -0.0121248 5.88931e-20)
(-2.43681 -0.012629 0)
(-2.41149 -0.0131172 -5.29988e-20)
(-2.38504 -0.0135957 0)
(-2.35749 -0.0140571 0)
(-2.32886 -0.0145086 0)
(-2.29918 -0.0149414 0)
(-2.26845 -0.0153584 0)
(-2.23673 -0.0157624 6.65087e-20)
(-2.20402 -0.0161487 5.92762e-20)
(-2.17036 -0.0165146 0)
(-2.13574 -0.0168543 0)
(-2.10021 -0.0171351 0)
(-2.0638 -0.017331 -2.82747e-20)
(-2.0266 -0.0173545 0)
(-1.98869 -0.0171691 0)
(-1.95009 -0.0170194 0)
(-1.91069 -0.0171758 6.35785e-21)
(-1.87049 -0.0174424 -1.56763e-20)
(-1.82953 -0.0176649 0)
(-1.78788 -0.0178766 0)
(-1.74556 -0.0180783 -4.5465e-20)
(-1.70261 -0.0182698 -5.6057e-20)
(-1.65906 -0.0184526 0)
(-1.6149 -0.0186267 0)
(-1.57018 -0.0187925 9.00976e-20)
(-1.52489 -0.018952 -1.02278e-19)
(-1.47907 -0.0191059 0)
(-1.43273 -0.0192555 0)
(-1.38591 -0.0194008 -1.41709e-19)
(-1.33862 -0.0195421 0)
(-1.29089 -0.0196796 0)
(-1.24274 -0.0198154 -1.86202e-19)
(-1.1942 -0.0199507 0)
(-1.14528 -0.0200886 -2.19249e-19)
(-1.096 -0.0202308 0)
(-1.04635 -0.0203802 0)
(-0.996351 -0.0205382 0)
(-0.945991 -0.020707 2.95599e-19)
(-0.895267 -0.0208872 0)
(-0.844175 -0.0210796 0)
(-0.792709 -0.021284 0)
(-0.740868 -0.0215009 0)
(-0.688651 -0.0217317 0)
(-0.636056 -0.0219784 0)
(-0.58308 -0.0222438 4.78477e-19)
(-0.529713 -0.0225309 5.12186e-19)
(-0.475947 -0.0228418 0)
(-0.421769 -0.0231767 0)
(-0.367173 -0.0235338 0)
(-0.312166 -0.0239049 -6.76988e-19)
(-0.256785 -0.0242819 0)
(-0.201102 -0.0246684 1.56835e-18)
(-0.145275 -0.0250164 -1.6928e-18)
(-0.0896098 -0.0252024 -1.83134e-18)
(-0.0344515 -0.0250543 1.98615e-18)
(0.017248 -0.0237278 -2.04891e-18)
(0.0744752 -0.0214035 1.99786e-18)
(0.0915356 -0.0104424 0)
(-0.00020449 0.0200597 0)
(-0.00576775 0.0349527 0)
(-0.0119994 0.0359207 2.1869e-18)
(-0.0120484 0.0261934 0)
(0.0023387 0.00405093 -2.25076e-18)
(0.0317768 -0.0326988 -1.41954e-18)
(0.0705726 -0.0733771 -4.51062e-19)
(0.114729 -0.10645 -3.23559e-19)
(0.160285 -0.126561 0)
(0.203887 -0.133489 -2.12775e-19)
(0.243437 -0.129885 0)
(0.27802 -0.119077 0)
(0.307326 -0.10389 3.18198e-19)
(0.331387 -0.0863537 1.51681e-19)
(0.350426 -0.0677791 -2.9582e-19)
(0.364759 -0.0489144 -2.92462e-19)
(0.374756 -0.0301379 -1.46275e-19)
(0.380606 -0.0115778 0)
(0.383284 0.00679099 0)
(0.382686 0.0247951 0)
(0.378436 0.0420793 -1.54675e-19)
(0.370052 0.0581149 0)
(0.356985 0.0721671 4.94696e-19)
(0.338765 0.0832791 0)
(0.315187 0.0903586 0)
(0.286481 0.0923554 1.9974e-19)
(0.253513 0.0885724 0)
(0.217874 0.0790706 -2.51737e-19)
(0.181818 0.0648615 -5.87225e-19)
(0.148186 0.0476705 3.49601e-19)
(0.119965 0.0290683 0)
(0.100294 0.00988759 0)
(0.0904266 -0.0100263 0)
(0.0921574 -0.0298026 -1.0273e-18)
(0.103988 -0.0492585 -8.74398e-19)
(0.122551 -0.0660934 -3.64686e-19)
(0.142132 -0.0737619 0)
(0.156769 -0.068884 5.31067e-19)
(0.16378 -0.0540462 0)
(0.162741 -0.034333 -5.13008e-19)
(0.15432 -0.0163295 0)
(0.139344 -0.00453163 0)
(0.117672 0.00213235 6.49309e-19)
(0.0834825 0.00845517 0)
(0.0275905 0.0213486 2.54339e-18)
(-0.0631396 0.0515099 -6.5531e-19)
(-0.181583 0.0937179 0)
(-0.310924 0.137796 -2.76839e-19)
(-0.445707 0.180259 -2.04735e-19)
(-0.586231 0.215786 0)
(-0.728156 0.242443 0)
(-0.867904 0.260725 0)
(-1.0038 0.27064 0)
(-1.1328 0.272729 0)
(-1.2526 0.267719 8.52971e-20)
(-1.36123 0.257339 1.60453e-19)
(-1.45809 0.243367 -7.55018e-20)
(-1.54417 0.226889 0)
(-1.62007 0.209369 1.39331e-19)
(-1.68765 0.191763 -6.77437e-20)
(-1.74804 0.174693 0)
(-1.80227 0.158973 -6.34887e-20)
(-1.85185 0.144719 0)
(-1.8972 0.131954 0)
(-1.9393 0.120785 -1.19714e-19)
(-1.97858 0.110962 5.87179e-20)
(-2.01556 0.102396 -1.15542e-19)
(-2.05057 0.0949097 1.13686e-19)
(-2.08387 0.088354 5.59821e-20)
(-2.11564 0.0825722 0)
(-2.14601 0.077442 5.44083e-20)
(-2.17509 0.0728401 0)
(-2.20295 0.0686806 0)
(-2.22966 0.0648742 0)
(-2.25526 0.0613661 5.15276e-20)
(-2.27978 0.0580947 0)
(-2.30324 0.0550276 1.00589e-19)
(-2.32567 0.0521225 -1.49074e-19)
(-2.34708 0.0493615 -4.91127e-20)
(-2.36748 0.0467155 0)
(-2.38688 0.0441749 -4.7916e-20)
(-2.40529 0.0417189 0)
(-2.42271 0.0393428 -9.34776e-20)
(-2.43915 0.0370315 0)
(-2.4546 0.0347829 -9.11419e-20)
(-2.46908 0.0325858 1.79829e-19)
(-2.48257 0.0304394 8.88086e-20)
(-2.49508 0.028334 0)
(-2.50659 0.0262671 0)
(-2.5171 0.0242312 0)
(-2.5266 0.0222174 -8.40926e-20)
(-2.53512 0.0202198 0)
(-2.54263 0.0182323 8.1688e-20)
(-2.54914 0.0162497 0)
(-2.55465 0.0142662 -2.37726e-19)
(-2.55917 0.0122756 -7.80042e-20)
(-2.56273 0.0102724 -7.67553e-20)
(-2.56536 0.00825108 0)
(-2.56714 0.00622617 0)
(-2.56814 0.00424345 0)
(-2.56845 0.00237283 0)
(-2.56791 0.000630241 0)
(-2.56624 -0.00103483 -1.37859e-19)
(-2.56343 -0.00266913 -1.35074e-19)
(-2.55945 -0.0042785 0)
(-2.55428 -0.00587141 6.45973e-20)
(-2.54791 -0.00744468 6.31239e-20)
(-2.54034 -0.00900105 0)
(-2.53157 -0.0105358 1.20426e-19)
(-2.52157 -0.0120507 0)
(-2.51036 -0.0135411 -5.72301e-20)
(-2.49793 -0.0150079 0)
(-2.48428 -0.0164473 0)
(-2.46941 -0.0178593 1.04378e-19)
(-2.45332 -0.0192413 0)
(-2.43602 -0.0205921 -4.85706e-20)
(-2.41751 -0.0219103 0)
(-2.3978 -0.0231937 0)
(-2.3769 -0.0244426 -4.35604e-20)
(-2.35483 -0.0256533 -4.12469e-20)
(-2.33158 -0.0268279 0)
(-2.30719 -0.0279616 3.78512e-20)
(-2.28166 -0.0290581 0)
(-2.25501 -0.0301113 -3.38558e-20)
(-2.22725 -0.0311269 -6.30636e-20)
(-2.19842 -0.0320977 0)
(-2.16852 -0.0330303 0)
(-2.13759 -0.0339165 0)
(-2.10564 -0.034764 0)
(-2.0727 -0.0355666 -4.06412e-20)
(-2.0388 -0.0363313 -1.09343e-19)
(-2.00396 -0.037049 0)
(-1.9682 -0.037723 0)
(-1.93153 -0.038347 0)
(-1.89398 -0.0389372 1.67892e-20)
(-1.85558 -0.03951 0)
(-1.81633 -0.0400797 0)
(-1.77624 -0.0406287 -4.42177e-21)
(-1.73537 -0.0411315 2.33542e-21)
(-1.69376 -0.0415624 9.06537e-21)
(-1.65144 -0.0419382 0)
(-1.60841 -0.0422718 0)
(-1.56473 -0.0425723 2.55746e-20)
(-1.52041 -0.0428397 -2.97671e-20)
(-1.47547 -0.0430773 0)
(-1.42993 -0.0432838 0)
(-1.38381 -0.0434616 -4.88211e-20)
(-1.33713 -0.0436117 1.63064e-19)
(-1.28991 -0.0437385 0)
(-1.24217 -0.0438425 0)
(-1.19393 -0.0439253 7.36241e-20)
(-1.14521 -0.043985 0)
(-1.09604 -0.044023 1.71723e-19)
(-1.04643 -0.0440405 -9.17365e-20)
(-0.996418 -0.0440416 0)
(-0.946008 -0.0440303 1.07122e-19)
(-0.895214 -0.0440111 2.26715e-19)
(-0.844046 -0.0439883 0)
(-0.792505 -0.0439656 0)
(-0.740592 -0.0439466 -1.36221e-19)
(-0.688301 -0.0439328 0)
(-0.635628 -0.0439249 3.01557e-19)
(-0.582566 -0.0439213 0)
(-0.529112 -0.0439213 0)
(-0.475265 -0.0439247 0)
(-0.42102 -0.0439341 0)
(-0.366375 -0.0439517 -1.93199e-19)
(-0.31132 -0.0439814 -2.02079e-19)
(-0.255845 -0.0440246 0)
(-0.19994 -0.0440807 0)
(-0.143598 -0.0441443 0)
(-0.0868239 -0.0442014 2.39792e-19)
(-0.0296503 -0.0442237 0)
(0.027861 -0.0441576 -5.10933e-19)
(0.0856049 -0.0439326 5.12732e-19)
(0.143307 -0.0434248 5.14436e-19)
(0.200879 -0.0424122 5.13004e-19)
(0.256228 -0.0404019 5.19212e-19)
(0.31436 -0.0364942 5.21348e-19)
(0.351045 -0.0246042 0)
(0.000335991 0.0227285 0)
(0.000761236 0.0389611 0)
(0.00681542 0.0310661 -2.32684e-18)
(0.0272317 -0.00299747 -1.61423e-18)
(0.066709 -0.0623554 9.60956e-19)
(0.117528 -0.12709 6.27856e-19)
(0.169513 -0.177985 -3.63124e-22)
(0.215925 -0.20684 0)
(0.254238 -0.214653 0)
(0.284524 -0.206614 0)
(0.308007 -0.188443 0)
(0.326121 -0.164748 0)
(0.340055 -0.138637 -7.23967e-19)
(0.350644 -0.111941 0)
(0.358438 -0.0856389 2.31103e-19)
(0.363805 -0.0601889 2.30561e-19)
(0.367006 -0.0357692 0)
(0.368237 -0.012446 0)
(0.367747 0.00980966 0)
(0.365859 0.031168 0)
(0.362832 0.0517658 2.45956e-19)
(0.358842 0.0715381 0)
(0.353807 0.090115 -2.63822e-19)
(0.347341 0.106761 0)
(0.338778 0.120379 0)
(0.327284 0.129589 0)
(0.312099 0.132956 -6.59692e-19)
(0.292916 0.129327 0)
(0.270267 0.118242 3.90377e-19)
(0.245698 0.100072 -8.68667e-19)
(0.221651 0.0759138 0)
(0.200925 0.0471302 0)
(0.185973 0.0153605 0)
(0.177043 -0.0184052 6.35721e-19)
(0.173201 -0.0507671 5.63649e-19)
(0.16808 -0.0721405 0)
(0.154953 -0.0736753 0)
(0.133342 -0.0578393 -7.81748e-19)
(0.104299 -0.0318533 -8.0181e-19)
(0.068171 -0.000166583 8.8883e-19)
(0.0230323 0.0327734 0)
(-0.0412098 0.0638285 0)
(-0.131412 0.101468 0)
(-0.241164 0.149971 0)
(-0.36668 0.203964 -4.09365e-19)
(-0.502718 0.258815 -3.23746e-19)
(-0.64204 0.310709 2.65213e-19)
(-0.778555 0.354769 0)
(-0.908166 0.389526 0)
(-1.02742 0.414048 0)
(-1.13467 0.427359 0)
(-1.22956 0.430165 -1.46715e-19)
(-1.31176 0.42358 0)
(-1.38213 0.408891 0)
(-1.44224 0.387815 -1.22338e-19)
(-1.49422 0.362515 -1.15631e-19)
(-1.54007 0.335137 0)
(-1.58158 0.307299 2.15789e-19)
(-1.62001 0.280223 -1.0355e-19)
(-1.65646 0.254937 1.00615e-19)
(-1.69152 0.231815 0)
(-1.72553 0.211171 0)
(-1.75871 0.192951 0)
(-1.79116 0.176953 0)
(-1.82288 0.163056 8.95468e-20)
(-1.85385 0.150947 1.75793e-19)
(-1.88405 0.140361 8.62236e-20)
(-1.91346 0.131056 -8.47189e-20)
(-1.94206 0.12282 0)
(-1.96984 0.115462 1.638e-19)
(-1.99679 0.10883 1.61191e-19)
(-2.0229 0.102789 1.58697e-19)
(-2.04815 0.0972338 -1.56299e-19)
(-2.07255 0.0920742 0)
(-2.09608 0.0872426 -2.27697e-19)
(-2.11874 0.0826795 0)
(-2.14052 0.0783432 7.36422e-20)
(-2.16143 0.0741955 7.27583e-20)
(-2.18145 0.070211 0)
(-2.20058 0.0663647 0)
(-2.21883 0.0626408 1.39329e-19)
(-2.23618 0.0590224 0)
(-2.25263 0.0554992 1.35425e-19)
(-2.26819 0.052059 0)
(-2.28285 0.0486951 -1.31575e-19)
(-2.2966 0.0453984 -2.59423e-19)
(-2.30944 0.0421643 0)
(-2.32138 0.0389852 0)
(-2.33239 0.0358564 0)
(-2.34247 0.0327702 -1.22033e-19)
(-2.35163 0.0297201 0)
(-2.35986 0.0267008 -1.18204e-19)
(-2.36717 0.0237092 0)
(-2.37354 0.0207445 0)
(-2.37899 0.0178074 2.24832e-19)
(-2.3835 0.0149031 0)
(-2.38708 0.0120384 1.08512e-19)
(-2.38974 0.00922517 0)
(-2.39147 0.00647236 1.04579e-19)
(-2.39223 0.00377991 0)
(-2.39199 0.00112264 0)
(-2.39068 -0.00152633 0)
(-2.38827 -0.00416652 2.88552e-19)
(-2.38475 -0.00678408 9.3958e-20)
(-2.3801 -0.00937704 0)
(-2.3743 -0.0119435 0)
(-2.36734 -0.0144819 0)
(-2.35921 -0.0169899 0)
(-2.34991 -0.019465 -8.27552e-20)
(-2.33943 -0.0219046 1.61247e-19)
(-2.32777 -0.0243057 7.80693e-20)
(-2.31492 -0.026666 -1.51806e-19)
(-2.30088 -0.0289822 -1.46987e-19)
(-2.28565 -0.0312522 -7.07967e-20)
(-2.26924 -0.0334726 0)
(-2.25165 -0.0356416 -1.32115e-19)
(-2.23288 -0.0377559 0)
(-2.21294 -0.0398139 1.21846e-19)
(-2.19184 -0.0418127 5.79801e-20)
(-2.16959 -0.0437511 0)
(-2.1462 -0.0456266 -1.05895e-19)
(-2.12169 -0.0474382 -4.98574e-20)
(-2.09607 -0.0491842 0)
(-2.06936 -0.0508635 -4.50251e-20)
(-2.04157 -0.0524753 1.25016e-19)
(-2.01272 -0.0540183 0)
(-1.98284 -0.0554925 0)
(-1.95193 -0.0568959 0)
(-1.92004 -0.0582298 0)
(-1.88717 -0.0594945 5.41648e-20)
(-1.85337 -0.060689 4.71776e-20)
(-1.81864 -0.0618088 0)
(-1.783 -0.0628518 0)
(-1.74646 -0.0638119 0)
(-1.70907 -0.0646947 0)
(-1.67084 -0.0655104 0)
(-1.63179 -0.0662714 0)
(-1.59194 -0.0669885 2.77174e-21)
(-1.55134 -0.0676625 -1.01254e-21)
(-1.51002 -0.0682701 0)
(-1.46799 -0.0688075 0)
(-1.42528 -0.0692818 -2.27033e-20)
(-1.38191 -0.0696999 0)
(-1.33792 -0.0700637 3.72757e-20)
(-1.29331 -0.0703768 4.30387e-20)
(-1.2481 -0.0706391 0)
(-1.20232 -0.0708542 0)
(-1.15599 -0.0710244 -6.48608e-20)
(-1.10912 -0.0711549 -1.41537e-19)
(-1.06173 -0.0712473 0)
(-1.01384 -0.0713028 0)
(-0.965468 -0.0713192 0)
(-0.916642 -0.0712977 -1.00322e-19)
(-0.867379 -0.0712406 1.07547e-19)
(-0.817699 -0.0711533 0)
(-0.767617 -0.071042 2.41982e-19)
(-0.717146 -0.0709132 1.272e-19)
(-0.666294 -0.0707736 -2.71484e-19)
(-0.615065 -0.0706284 0)
(-0.563459 -0.0704832 0)
(-0.511472 -0.0703402 -3.16403e-19)
(-0.459098 -0.0702007 -1.66947e-19)
(-0.406334 -0.0700616 0)
(-0.353174 -0.0699219 0)
(-0.299617 -0.0697802 0)
(-0.245659 -0.0696398 0)
(-0.191294 -0.0695029 -4.08689e-19)
(-0.136514 -0.0693739 0)
(-0.0813105 -0.0692534 0)
(-0.025672 -0.0691405 0)
(0.0304084 -0.0690243 0)
(0.0869301 -0.0688841 0)
(0.143874 -0.0686819 0)
(0.201187 -0.0683482 -4.88233e-19)
(0.258778 -0.0677866 0)
(0.316429 -0.0668412 0)
(0.374136 -0.0652488 -1.01729e-18)
(0.430392 -0.0625221 5.14504e-19)
(0.489066 -0.0577151 -5.25743e-19)
(0.535335 -0.0457825 5.36836e-19)
(-0.00110771 0.0227258 0)
(0.00217119 0.0252885 5.06546e-18)
(0.0242863 -0.0176546 0)
(0.0719285 -0.100292 8.57816e-19)
(0.131975 -0.186485 0)
(0.188473 -0.248541 0)
(0.232492 -0.278263 -3.26397e-19)
(0.262931 -0.280746 0)
(0.282601 -0.265356 0)
(0.295082 -0.240273 0)
(0.303196 -0.210838 0)
(0.308716 -0.179997 0)
(0.312585 -0.149219 8.1772e-19)
(0.315238 -0.119175 4.02189e-19)
(0.316828 -0.0901633 -3.99618e-19)
(0.317397 -0.0623148 0)
(0.316956 -0.0356899 0)
(0.315523 -0.0103248 0)
(0.313152 0.0137683 0)
(0.30994 0.0366243 0)
(0.306031 0.0582862 4.32964e-19)
(0.301645 0.078766 4.4486e-19)
(0.29699 0.0979767 -4.61528e-19)
(0.292176 0.115615 4.84244e-19)
(0.287111 0.131055 0)
(0.281468 0.143287 0)
(0.274668 0.150914 5.87583e-19)
(0.265988 0.152293 0)
(0.254854 0.145933 0)
(0.241108 0.130793 7.55969e-19)
(0.225357 0.106717 8.42099e-19)
(0.208656 0.07471 9.50116e-19)
(0.192317 0.0369639 0)
(0.175512 -0.00219268 0)
(0.151673 -0.0312549 -9.66268e-19)
(0.115737 -0.0375176 0)
(0.0690647 -0.0211546 0)
(0.0124646 0.0115043 7.84572e-19)
(-0.0569753 0.0551957 -7.04258e-19)
(-0.142149 0.108217 5.6124e-19)
(-0.241858 0.168109 0)
(-0.355262 0.23042 0)
(-0.478877 0.293285 5.97062e-19)
(-0.606788 0.355275 0)
(-0.733532 0.412933 4.26726e-19)
(-0.854179 0.461169 5.61524e-19)
(-0.964037 0.497814 -5.00758e-19)
(-1.06085 0.522905 3.02688e-19)
(-1.14398 0.536356 0)
(-1.21324 0.53886 0)
(-1.27007 0.531588 2.40312e-19)
(-1.31631 0.516057 1.12116e-19)
(-1.35408 0.494015 0)
(-1.38575 0.467187 0)
(-1.41355 0.437358 9.62997e-20)
(-1.43936 0.406307 1.86085e-19)
(-1.46448 0.375475 0)
(-1.48972 0.345849 -1.71474e-19)
(-1.51554 0.318078 1.66926e-19)
(-1.54205 0.292575 -1.6191e-19)
(-1.56923 0.269438 0)
(-1.59692 0.248692 0)
(-1.62495 0.230217 0)
(-1.6531 0.213811 0)
(-1.6812 0.19928 0)
(-1.70908 0.186387 -1.39798e-19)
(-1.73659 0.174899 0)
(-1.76365 0.164603 0)
(-1.79017 0.155307 0)
(-1.81607 0.146846 -2.59817e-19)