/*--------------------------------*- C++ -*----------------------------------*\
  =========                 |
  \\      /  F ield         | OpenFOAM: The Open Source CFD Toolbox
   \\    /   O peration     | Website:  https://openfoam.org
    \\  /    A nd           | Version:  8
     \\/     M anipulation  |
\*---------------------------------------------------------------------------*/
FoamFile
{
    version     2.0;
    format      ascii;
    class       volScalarField;
    location    "2400";
    object      p;
}
// * * * * * * * * * * * * * * * * * * * * * * * * * * * * * * * * * * * * * //

dimensions      [0 2 -2 0 0 0 0];

internalField   nonuniform List<scalar> 
12225
(
514.676
55.5277
2.36338
0.281237
-1.89927
-3.37486
-3.81215
-4.02262
-4.23244
-4.36944
-4.41671
-4.42648
-4.42967
-4.45791
-4.51169
-4.57877
-4.725
-4.94991
-122.179
0.238486
-2.71885
-0.765562
-2.21697
-3.52545
-3.95323
-4.13739
-4.28115
-4.38523
-4.46028
-4.51875
-4.56989
-4.60253
-4.62383
-4.64997
-4.71739
-4.81303
-200.646
-16.1488
-2.34687
-0.358789
-1.90131
-3.24533
-3.77279
-4.02309
-4.19586
-4.32021
-4.41302
-4.48037
-4.5292
-4.55469
-4.57008
-4.58615
-4.61863
-4.60271
-110.617
-10.9745
-2.17758
-0.432501
-1.78824
-3.02936
-3.6019
-3.90914
-4.11849
-4.26438
-4.36687
-4.4377
-4.4866
-4.51542
-4.53306
-4.5413
-4.54068
-4.47243
-61.5732
-8.14628
-3.62304
-1.21051
-2.01576
-2.99892
-3.52986
-3.84969
-4.07227
-4.22705
-4.3348
-4.40959
-4.46112
-4.49245
-4.50799
-4.50568
-4.47975
-4.38978
-45.7312
-8.78571
-5.25925
-2.20085
-2.43051
-3.1017
-3.53722
-3.83425
-4.05031
-4.20422
-4.31338
-4.39024
-4.44284
-4.47394
-4.4857
-4.47516
-4.43523
-4.34072
-35.7951
-9.27697
-6.38104
-3.12529
-2.92253
-3.29066
-3.60462
-3.85558
-4.05107
-4.19634
-4.30242
-4.37833
-4.43007
-4.45995
-4.46903
-4.45457
-4.41065
-4.32354
-27.7785
-8.90774
-6.97449
-3.80355
-3.3626
-3.49949
-3.7016
-3.90114
-4.07057
-4.20292
-4.30277
-4.37562
-4.42565
-4.45461
-4.46305
-4.44884
-4.40787
-4.33305
-21.6906
-8.5207
-7.1352
-4.31141
-3.72989
-3.70709
-3.81742
-3.96584
-4.1062
-4.22254
-4.31369
-4.38185
-4.42939
-4.45743
-4.46622
-4.4543
-4.41928
-4.35819
-16.6133
-8.14137
-7.08885
-4.75629
-4.08419
-3.93544
-3.96036
-4.05387
-4.16029
-4.25656
-4.3361
-4.39778
-4.44208
-4.46933
-4.47956
-4.4721
-4.44613
-4.40154
-12.6396
-7.68156
-6.90686
-5.10258
-4.40781
-4.17141
-4.12305
-4.16265
-4.2329
-4.30632
-4.37197
-4.42575
-4.46631
-4.49316
-4.50618
-4.50533
-4.49101
-4.46473
-9.69968
-7.14946
-6.62995
-5.32741
-4.67965
-4.39819
-4.29556
-4.28788
-4.3231
-4.3728
-4.42337
-4.46844
-4.50513
-4.53221
-4.54938
-4.55695
-4.55599
-4.5486
-7.66673
-6.6054
-6.30671
-5.43237
-4.88407
-4.59831
-4.46473
-4.42161
-4.42693
-4.45474
-4.49076
-4.52738
-4.56071
-4.58889
-4.61139
-4.62856
-4.64157
-4.65239
-6.37163
-6.11373
-5.98642
-5.44108
-5.0167
-4.75854
-4.61713
-4.5535
-4.53752
-4.54813
-4.57222
-4.60207
-4.63332
-4.66374
-4.69248
-4.71967
-4.7462
-4.77348
-5.62336
-5.72305
-5.70971
-5.39157
-5.08666
-4.87377
-4.74257
-4.67303
-4.64604
-4.64625
-4.6629
-4.689
-4.72026
-4.75426
-4.78987
-4.82686
-4.86561
-4.90687
-5.24404
-5.46083
-5.50877
-5.32822
-5.1157
-4.94865
-4.83637
-4.77139
-4.7427
-4.73984
-4.7545
-4.78076
-4.81468
-4.8538
-4.89674
-4.94288
-4.99212
-5.04462
-5.10277
-5.3449
-5.41757
-5.29958
-5.13555
-4.99642
-4.89876
-4.84085
-4.81573
-4.81552
-4.83334
-4.86392
-4.90348
-4.9495
-5.00036
-5.0551
-5.11323
-5.17451
-5.14047
-5.40067
-5.47477
-5.34861
-5.17478
-5.02903
-4.92875
-4.87152
-4.84957
-4.85439
-4.87856
-4.91637
-4.96371
-5.01776
-5.07663
-5.13911
-5.20446
-5.27223
-5.39272
-5.65508
-5.69077
-5.47562
-5.22638
-5.03597
-4.91484
-4.85173
-4.83266
-4.84491
-4.87853
-4.92634
-4.98346
-5.04663
-5.11376
-5.18351
-5.2551
-5.32807
-6.00209
-6.13689
-6.04264
-5.6351
-5.24707
-4.98728
-4.84072
-4.77575
-4.76621
-4.79255
-4.8411
-4.90292
-4.97243
-5.04623
-5.12224
-5.19929
-5.27671
-5.35431
-7.24969
-6.88951
-6.49416
-5.76182
-5.18302
-4.85286
-4.69621
-4.64604
-4.65994
-4.71045
-4.78067
-4.86069
-4.94497
-5.03048
-5.11569
-5.19985
-5.28271
-5.36439
-9.64119
-7.96457
-6.98257
-5.77182
-4.97946
-4.61203
-4.48178
-4.47351
-4.52835
-4.61367
-4.71144
-4.81258
-4.91267
-5.00992
-5.10375
-5.19426
-5.28174
-5.36672
-13.9824
-9.39104
-7.40314
-5.56948
-4.59466
-4.26407
-4.21489
-4.27949
-4.39161
-4.51909
-4.6472
-4.76975
-4.88481
-4.99232
-5.09319
-5.18855
-5.27937
-5.36663
-20.8899
-10.954
-7.55415
-5.05718
-4.01577
-3.83572
-3.9298
-4.0939
-4.27197
-4.44279
-4.59935
-4.74063
-4.8678
-4.98278
-5.0881
-5.18627
-5.27888
-5.36707
-29.7366
-11.9494
-7.03349
-4.12607
-3.26397
-3.37786
-3.6709
-3.94662
-4.18887
-4.39684
-4.57537
-4.72978
-4.86438
-4.98337
-5.09036
-5.18909
-5.28175
-5.36969
-43.1065
-12.6139
-5.47278
-2.72892
-2.41319
-2.96335
-3.48413
-3.86219
-4.15335
-4.38555
-4.5772
-4.73737
-4.87404
-4.99248
-5.09829
-5.19615
-5.28776
-5.37453
-84.5994
-17.3734
-3.66408
-1.26541
-1.69597
-2.72175
-3.43607
-3.86977
-4.17319
-4.41019
-4.6059
-4.76733
-4.89899
-5.00998
-5.10939
-5.20311
-5.29313
-5.3782
-177.886
-26.8496
-3.68015
-0.770197
-1.53506
-2.843
-3.61399
-4.01509
-4.2708
-4.46671
-4.65015
-4.81517
-4.95158
-5.05387
-5.1374
-5.22212
-5.30525
-5.38499
-154.79
-9.62729
-3.27239
-1.06828
-1.84308
-3.22082
-3.9136
-4.22487
-4.41722
-4.55863
-4.70124
-4.8536
-5.00416
-5.12473
-5.21197
-5.2916
-5.37139
-5.45033
428.057
66.6055
7.05596
1.59942
-0.915578
-2.85688
-3.65288
-3.99453
-4.31006
-4.57646
-4.70722
-4.75423
-4.80328
-4.89936
-5.02741
-5.14228
-5.23767
-5.32598
-8.52545
-8.51261
-8.5019
-8.5432
-8.63626
-8.74004
-8.82008
-8.86021
-8.86393
-8.84629
-8.81885
-8.79021
-8.76846
-8.75956
-8.76449
-8.77711
-8.78833
-8.79344
-8.79252
-8.79
-8.79392
-8.82634
-8.91626
-9.08714
-9.33984
-9.65738
-10.0283
-10.442
-10.883
-11.3351
-11.7832
-12.2153
-12.6221
-12.9972
-13.3359
-13.6361
-13.8966
-14.1174
-14.2993
-14.4433
-14.5505
-14.6224
-14.6604
-14.6658
-14.6399
-14.584
-14.4999
-14.3898
-14.2548
-14.093
-13.9017
-13.682
-13.4369
-13.1679
-12.8763
-12.5633
-12.2298
-11.8769
-11.5056
-11.117
-10.7121
-10.292
-9.85798
-9.41106
-8.95247
-8.48339
-8.00501
-7.51855
-7.02519
-6.52612
-6.0225
-5.51547
-5.00615
-4.49561
-3.98491
-3.47503
-2.96694
-2.46155
-1.95972
-1.46226
-0.96993
-0.483423
-0.00338984
0.469578
0.934944
1.39223
1.841
2.2809
2.71159
3.13283
3.54442
3.94616
4.33789
4.71959
5.09149
5.45362
5.80549
6.14672
6.47731
6.79747
7.10746
7.40747
7.6977
7.97832
8.24952
8.5115
8.76448
9.00866
9.24427
9.47151
9.69061
9.90181
10.1054
10.3015
10.4905
10.6726
10.848
11.0169
11.1797
11.3364
11.4874
11.6329
11.773
11.9081
12.0382
12.1637
12.2846
12.4012
12.5136
12.6221
12.7267
12.8278
12.9257
13.0204
13.1119
13.2002
13.2855
13.368
13.4477
13.5249
13.5996
13.672
13.742
13.8099
13.8757
13.9395
14.0013
14.0613
14.1194
14.1759
14.2306
14.2837
14.3353
14.3853
14.4337
14.4808
14.5263
14.5705
14.6133
14.6547
14.6948
14.7335
14.771
14.8071
14.842
14.8756
14.908
14.9392
14.9694
14.9985
15.0269
15.0546
15.0821
15.1097
15.1384
15.1692
15.2046
15.2462
15.3041
15.3646
-8.58286
-8.61411
-8.68806
-8.78169
-8.88522
-8.97754
-9.03891
-9.06341
-9.04647
-8.9861
-8.89635
-8.79944
-8.71765
-8.66616
-8.64394
-8.64061
-8.65008
-8.67552
-8.71084
-8.73097
-8.75512
-8.83257
-8.99153
-9.23061
-9.53712
-9.90778
-10.3334
-10.7934
-11.2664
-11.7343
-12.1845
-12.6079
-12.9978
-13.3505
-13.6642
-13.9386
-14.1741
-14.3717
-14.5326
-14.658
-14.7491
-14.8068
-14.8323
-14.8265
-14.79
-14.7237
-14.6279
-14.5026
-14.3484
-14.1685
-13.9664
-13.7425
-13.4958
-13.2266
-12.9354
-12.623
-12.2902
-11.9381
-11.5676
-11.1797
-10.7755
-10.3561
-9.92267
-9.47627
-9.01813
-8.54941
-8.07132
-7.58506
-7.09182
-6.59278
-6.08912
-5.58196
-5.07243
-4.5616
-4.05052
-3.54019
-3.03158
-2.5256
-2.0231
-1.52491
-1.03177
-0.544406
-0.0634585
0.410473
0.876843
1.33516
1.78498
2.22592
2.65762
3.07977
3.49213
3.89444
4.28648
4.66815
5.03953
5.40083
5.75225
6.09381
6.42538
6.74682
7.0582
7.35964
7.65127
7.93329
8.20586
8.46919
8.72348
8.96894
9.2058
9.43431
9.65468
9.86714
10.0719
10.2693
10.4594
10.6427
10.8192
10.9892
11.153
11.3108
11.4629
11.6093
11.7505
11.8865
12.0177
12.1442
12.2662
12.3838
12.4974
12.6069
12.7126
12.8145
12.9126
13.0073
13.0989
13.1874
13.2729
13.3557
13.4357
13.5132
13.5882
13.6609
13.7312
13.7994
13.8655
13.9296
13.9917
14.052
14.1104
14.1671
14.2221
14.2755
14.3273
14.3775
14.4262
14.4735
14.5193
14.5636
14.6066
14.6482
14.6885
14.7274
14.765
14.8013
14.8363
14.8701
14.9026
14.934
14.9643
14.9936
15.022
15.0498
15.0774
15.1052
15.1339
15.1646
15.1994
15.239
15.2926
15.3425
-8.70993
-8.79177
-8.90981
-9.01574
-9.09874
-9.1527
-9.17342
-9.1597
-9.1102
-9.02715
-8.91958
-8.80405
-8.70402
-8.63918
-8.61023
-8.60524
-8.62408
-8.68065
-8.78415
-8.93109
-9.12118
-9.36148
-9.65506
-9.99388
-10.3657
-10.7613
-11.1707
-11.582
-11.9846
-12.3713
-12.7373
-13.0789
-13.3935
-13.6792
-13.9351
-14.1606
-14.3557
-14.5203
-14.6547
-14.7591
-14.8341
-14.8799
-14.897
-14.8859
-14.8468
-14.7804
-14.687
-14.5665
-14.4189
-14.2452
-14.0469
-13.825
-13.5799
-13.3124
-13.0229
-12.7123
-12.3814
-12.0311
-11.6624
-11.2762
-10.8736
-10.4556
-10.0235
-9.57825
-9.12114
-8.65331
-8.17597
-7.69031
-7.19753
-6.6988
-6.19531
-5.68818
-5.17855
-4.66749
-4.15606
-3.64526
-3.13607
-2.6294
-2.12611
-1.62704
-1.13294
-0.644534
-0.162469
0.312647
0.780268
1.2399
1.69109
2.13347
2.56668
2.99045
3.40453
3.80873
4.20288
4.58691
4.96079
5.32452
5.67814
6.02165
6.35504
6.67829
6.99147
7.29472
7.58816
7.87196
8.1463
8.41138
8.66739
8.91454
9.15308
9.38321
9.60517
9.81918
10.0255
10.2243
10.4159
10.6006
10.7785
10.9498
11.115
11.2741
11.4273
11.575
11.7173
11.8544
11.9865
12.1139
12.2366
12.355
12.4692
12.5794
12.6857
12.7883
12.8873
12.9831
13.0757
13.1652
13.2517
13.3353
13.4162
13.4945
13.5702
13.6435
13.7145
13.7834
13.85
13.9147
13.9774
14.0381
14.0971
14.1542
14.2097
14.2635
14.3157
14.3663
14.4154
14.4629
14.5091
14.5538
14.5971
14.639
14.6795
14.7187
14.7565
14.793
14.8283
14.8622
14.895
14.9265
14.957
14.9864
15.0149
15.0429
15.0704
15.0981
15.1266
15.1567
15.1902
15.2268
15.2742
15.3077
-8.74963
-8.84714
-8.94847
-9.03505
-9.09956
-9.13933
-9.15185
-9.1345
-9.08726
-9.01511
-8.92926
-8.8465
-8.78502
-8.75774
-8.76958
-8.8226
-8.9207
-9.06754
-9.26374
-9.50434
-9.78045
-10.0848
-10.4116
-10.7543
-11.1076
-11.4664
-11.8251
-12.1788
-12.5227
-12.8528
-13.1658
-13.459
-13.7302
-13.9777
-14.2004
-14.3973
-14.5677
-14.7114
-14.828
-14.9176
-14.9802
-15.0158
-15.0245
-15.0065
-14.9619
-14.8908
-14.7937
-14.6708
-14.5227
-14.3498
-14.153
-13.9326
-13.6891
-13.4232
-13.1354
-12.8265
-12.4973
-12.1486
-11.7813
-11.3966
-10.9952
-10.5784
-10.1473
-9.70296
-9.24655
-8.77927
-8.30233
-7.8169
-7.32419
-6.82538
-6.32164
-5.81412
-5.30395
-4.79221
-4.27997
-3.76824
-3.25798
-2.75013
-2.24556
-1.74509
-1.24951
-0.759526
-0.275805
0.201043
0.670463
1.13195
1.58507
2.02942
2.46465
2.89049
3.30668
3.71304
4.10942
4.49574
4.87194
5.23799
5.59386
5.93955
6.27504
6.60037
6.91564
7.22095
7.51644
7.80227
8.07862
8.34567
8.60363
8.85271
9.09312
9.32509
9.54884
9.76461
9.97263
10.1732
10.3664
10.5527
10.7322
10.9051
11.0716
11.2321
11.3867
11.5357
11.6793
11.8176
11.951
12.0795
12.2034
12.3229
12.4382
12.5494
12.6567
12.7603
12.8605
12.9573
13.0509
13.1413
13.2287
13.3131
13.3948
13.4739
13.5503
13.6244
13.6961
13.7656
13.8329
13.8981
13.9614
14.0227
14.0822
14.1398
14.1958
14.2501
14.3027
14.3537
14.4032
14.4512
14.4977
14.5427
14.5864
14.6286
14.6694
14.7089
14.747
14.7838
14.8193
14.8534
14.8864
14.9181
14.9487
14.9782
15.0068
15.0346
15.0621
15.0894
15.1173
15.1462
15.1775
15.21
15.2494
15.268
-8.53804
-8.62299
-8.7231
-8.82022
-8.8976
-8.95036
-8.97748
-8.97975
-8.96164
-8.93142
-8.90117
-8.88487
-8.89534
-8.94216
-9.03154
-9.16665
-9.34761
-9.56985
-9.82494
-10.1048
-10.404
-10.7182
-11.0431
-11.3738
-11.7058
-12.0355
-12.3594
-12.6744
-12.9778
-13.2672
-13.5405
-13.796
-14.0323
-14.2481
-14.4426
-14.6147
-14.7639
-14.8895
-14.9911
-15.0683
-15.1209
-15.1485
-15.1511
-15.1286
-15.0809
-15.008
-14.91
-14.7871
-14.6396
-14.4677
-14.2721
-14.053
-13.8109
-13.5464
-13.2601
-12.9527
-12.625
-12.2777
-11.9118
-11.5282
-11.128
-10.7122
-10.2819
-9.83819
-9.38232
-8.91545
-8.43875
-7.95343
-7.46067
-6.96166
-6.45758
-5.94958
-5.43879
-4.92629
-4.41317
-3.90042
-3.38904
-2.87995
-2.37404
-1.87213
-1.37501
-0.883395
-0.397961
0.0806799
0.551967
1.01539
1.47051
1.91692
2.35428
2.78229
3.2007
3.60931
4.00799
4.39661
4.77511
5.14345
5.50158
5.84951
6.18723
6.51479
6.83228
7.1398
7.43749
7.7255
8.00401
8.27319
8.53325
8.7844
9.02685
9.26084
9.48658
9.70429
9.91422
10.1166
10.3117
10.4997
10.6808
10.8554
11.0236
11.1857
11.3419
11.4924
11.6374
11.7772
11.9119
12.0418
12.1671
12.2879
12.4044
12.5168
12.6253
12.7301
12.8313
12.9291
13.0236
13.115
13.2033
13.2886
13.3712
13.4511
13.5284
13.6032
13.6756
13.7458
13.8138
13.8797
13.9436
14.0056
14.0656
14.1239
14.1803
14.2351
14.2883
14.3398
14.3897
14.4381
14.4851
14.5305
14.5745
14.6171
14.6583
14.6981
14.7365
14.7736
14.8093
14.8437
14.8769
14.9087
14.9394
14.969
14.9976
15.0253
15.0524
15.0792
15.1061
15.1334
15.162
15.1898
15.2214
15.2275
-8.11815
-8.20655
-8.32747
-8.45016
-8.55539
-8.6358
-8.6941
-8.73612
-8.76949
-8.804
-8.85059
-8.91958
-9.01902
-9.15375
-9.32597
-9.53473
-9.77536
-10.0423
-10.3301
-10.6332
-10.9461
-11.264
-11.5829
-11.8994
-12.2107
-12.5146
-12.8093
-13.0931
-13.3645
-13.6223
-13.8653
-14.0922
-14.3022
-14.4941
-14.667
-14.8202
-14.9529
-15.0643
-15.1539
-15.221
-15.2654
-15.2864
-15.2839
-15.2574
-15.2069
-15.1322
-15.0333
-14.9101
-14.7628
-14.5917
-14.397
-14.179
-13.9382
-13.6751
-13.3902
-13.0842
-12.7579
-12.412
-12.0474
-11.665
-11.2659
-10.8511
-10.4217
-9.97878
-9.52351
-9.0571
-8.5807
-8.09553
-7.60276
-7.1036
-6.59922
-6.09077
-5.57938
-5.06616
-4.55218
-4.03845
-3.52596
-3.01566
-2.50841
-2.00508
-1.50643
-1.0132
-0.526056
-0.0456285
0.427522
0.892885
1.35001
1.79848
2.23796
2.66814
3.08878
3.49966
3.90062
4.29155
4.67236
5.043
5.40343
5.75364
6.09364
6.42349
6.74326
7.05306
7.35301
7.64327
7.92402
8.19543
8.45769
8.711
8.95558
9.19165
9.41944
9.63917
9.85108
10.0554
10.2524
10.4423
10.6253
10.8016
10.9716
11.1354
11.2932
11.4453
11.592
11.7333
11.8695
12.0009
12.1275
12.2497
12.3676
12.4813
12.5911
12.697
12.7994
12.8983
12.9939
13.0863
13.1756
13.2619
13.3454
13.4262
13.5043
13.58
13.6533
13.7243
13.793
13.8597
13.9242
13.9869
14.0476
14.1064
14.1635
14.2189
14.2726
14.3246
14.3751
14.424
14.4714
14.5173
14.5617
14.6047
14.6463
14.6864
14.7252
14.7626
14.7986
14.8333
14.8666
14.8986
14.9294
14.959
14.9875
15.015
15.0416
15.0677
15.0933
15.1187
15.1442
15.1671
15.1915
15.1869
-7.6529
-7.75159
-7.89363
-8.0424
-8.18032
-8.29891
-8.40174
-8.49813
-8.59747
-8.7087
-8.83945
-8.99461
-9.17694
-9.38692
-9.62283
-9.88258
-10.1632
-10.46
-10.7678
-11.0814
-11.3965
-11.7098
-12.0184
-12.3203
-12.6139
-12.8979
-13.1713
-13.4331
-13.6826
-13.9187
-14.1408
-14.348
-14.5393
-14.7141
-14.8714
-15.0105
-15.1306
-15.231
-15.311
-15.37
-15.4074
-15.4228
-15.4155
-15.3854
-15.3321
-15.2553
-15.1549
-15.0309
-14.8832
-14.7121
-14.5177
-14.3003
-14.0603
-13.798
-13.5142
-13.2093
-12.8842
-12.5394
-12.176
-11.7949
-11.397
-10.9833
-10.5549
-10.1129
-9.65845
-9.19277
-8.71699
-8.23232
-7.73994
-7.24104
-6.73678
-6.22832
-5.71679
-5.20329
-4.68889
-4.17462
-3.66146
-3.15035
-2.64218
-2.1378
-1.63799
-1.14348
-0.654962
-0.173052
0.301678
0.768713
1.22759
1.6779
2.1193
2.55146
2.97413
3.38711
3.79021
4.18331
4.56632
4.93916
5.3018
5.65423
5.99646
6.32856
6.65058
6.96263
7.26484
7.55735
7.84032
8.11394
8.37839
8.63388
8.88061
9.11881
9.3487
9.5705
9.78445
9.99078
10.1897
10.3815
10.5664
10.7447
10.9164
11.082
11.2416
11.3954
11.5437
11.6866
11.8244
11.9573
12.0855
12.2091
12.3283
12.4434
12.5545
12.6617
12.7653
12.8654
12.9622
13.0556
13.146
13.2334
13.3179
13.3996
13.4787
13.5553
13.6295
13.7013
13.7709
13.8383
13.9036
13.967
14.0284
14.0879
14.1457
14.2017
14.2559
14.3086
14.3596
14.409
14.4569
14.5033
14.5482
14.5916
14.6336
14.6742
14.7133
14.751
14.7873
14.8222
14.8558
14.888
14.9188
14.9484
14.9767
15.0039
15.03
15.0551
15.0793
15.1025
15.1247
15.1428
15.1605
15.1467
-7.29681
-7.39032
-7.54234
-7.70804
-7.87483
-8.03574
-8.19024
-8.34621
-8.51193
-8.69318
-8.89404
-9.11572
-9.35679
-9.61641
-9.89398
-10.1872
-10.4924
-10.805
-11.121
-11.4367
-11.7492
-12.0562
-12.3558
-12.6468
-12.928
-13.1986
-13.458
-13.7054
-13.9403
-14.1621
-14.3702
-14.5639
-14.7425
-14.9052
-15.0514
-15.1804
-15.2913
-15.3834
-15.4561
-15.5087
-15.5405
-15.5511
-15.5398
-15.5063
-15.4502
-15.3712
-15.2691
-15.1437
-14.9951
-14.8233
-14.6285
-14.4109
-14.1709
-13.9088
-13.6253
-13.3208
-12.9962
-12.6521
-12.2893
-11.9089
-11.5117
-11.0988
-10.6712
-10.2301
-9.77646
-9.31157
-8.83655
-8.35261
-7.86091
-7.36262
-6.85892
-6.35094
-5.83982
-5.32663
-4.81244
-4.29828
-3.78513
-3.27391
-2.76552
-2.2608
-1.76053
-1.26545
-0.776232
-0.29351
0.182148
0.650222
1.11025
1.56182
2.00456
2.43818
2.86239
3.27698
3.68177
4.07661
4.46141
4.83609
5.20061
5.55496
5.89915
6.23323
6.55727
6.87137
7.17564
7.47023
7.75529
8.031
8.29754
8.55511
8.80392
9.04419
9.27612
9.49995
9.71591
9.92422
10.1251
10.3189
10.5057
10.6857
10.8594
11.0267
11.1881
11.3436
11.4935
11.6381
11.7775
11.912
12.0416
12.1667
12.2874
12.4039
12.5163
12.6249
12.7298
12.8311
12.929
13.0237
13.1152
13.2036
13.2892
13.3719
13.452
13.5296
13.6046
13.6773
13.7478
13.816
13.8822
13.9463
14.0084
14.0687
14.1271
14.1837
14.2387
14.2919
14.3435
14.3935
14.442
14.4889
14.5342
14.5781
14.6206
14.6615
14.701
14.7391
14.7757
14.8109
14.8447
14.877
14.9079
14.9374
14.9655
14.9923
15.0177
15.0418
15.0644
15.0853
15.1041
15.1175
15.1292
15.1072
-7.10603
-7.19214
-7.34623
-7.51857
-7.70193
-7.89417
-8.09186
-8.29701
-8.51417
-8.74582
-8.99224
-9.2534
-9.52923
-9.81936
-10.1219
-10.4336
-10.7508
-11.0702
-11.3887
-11.7037
-12.013
-12.315
-12.6083
-12.892
-13.1652
-13.4272
-13.6777
-13.916
-14.1418
-14.3545
-14.5537
-14.7387
-14.9089
-15.0638
-15.2025
-15.3245
-15.429
-15.5153
-15.5827
-15.6305
-15.658
-15.6648
-15.6502
-15.6138
-15.5551
-15.4739
-15.3699
-15.243
-15.093
-14.9202
-14.7244
-14.5061
-14.2655
-14.0031
-13.7192
-13.4146
-13.0899
-12.7459
-12.3833
-12.0031
-11.6063
-11.1938
-10.7667
-10.3261
-9.87309
-9.40886
-8.93455
-8.45132
-7.96036
-7.46282
-6.95987
-6.45263
-5.94223
-5.42973
-4.91619
-4.40263
-3.89001
-3.37926
-2.87126
-2.36684
-1.86679
-1.37182
-0.882622
-0.399808
0.0760484
0.544431
1.00487
1.45696
1.90033
2.33467
2.75971
3.17523
3.58104
3.97699
4.36299
4.73894
5.10481
5.46057
5.80624
6.14186
6.46749
6.78323
7.08919
7.38551
7.67234
7.94984
8.2182
8.47761
8.72826
8.97037
9.20416
9.42985
9.64765
9.8578
10.0605
10.2561
10.4447
10.6265
10.8019
10.971
11.134
11.2912
11.4428
11.589
11.73
11.8659
11.9971
12.1237
12.2458
12.3637
12.4775
12.5874
12.6935
12.7961
12.8952
12.991
13.0837
13.1732
13.2598
13.3436
13.4247
13.5032
13.5793
13.6529
13.7242
13.7933
13.8602
13.9251
13.988
14.049
14.1082
14.1655
14.2211
14.2749
14.3272
14.3777
14.4267
14.4742
14.5201
14.5645
14.6073
14.6487
14.6886
14.7271
14.764
14.7995
14.8334
14.8659
14.8968
14.9262
14.9541
14.9804
15.0051
15.028
15.049
15.0674
15.0829
15.0918
15.098
15.069
-7.07769
-7.1645
-7.31219
-7.48096
-7.66766
-7.87217
-8.09134
-8.32316
-8.56789
-8.82613
-9.09742
-9.38089
-9.67629
-9.98249
-10.2968
-10.6162
-10.9378
-11.2589
-11.577
-11.8902
-12.1967
-12.495
-12.7842
-13.0634
-13.3318
-13.5891
-13.8345
-14.0678
-14.2886
-14.4962
-14.6904
-14.8704
-15.0359
-15.1861
-15.3203
-15.4381
-15.5385
-15.6209
-15.6847
-15.7292
-15.7536
-15.7575
-15.7403
-15.7014
-15.6405
-15.5573
-15.4515
-15.3229
-15.1715
-14.9973
-14.8004
-14.5811
-14.3396
-14.0764
-13.7919
-13.4868
-13.1618
-12.8175
-12.4549
-12.0747
-11.678
-11.2658
-10.8391
-10.399
-9.94654
-9.48298
-9.00942
-8.52702
-8.03694
-7.54034
-7.03836
-6.53212
-6.02273
-5.51125
-4.99873
-4.48617
-3.97452
-3.4647
-2.95758
-2.45399
-1.95469
-1.46041
-0.971823
-0.489532
-0.0141039
0.453951
0.91417
1.36615
1.80952
2.24397
2.66922
3.08506
3.49128
3.88775
4.27435
4.651
5.01765
5.37428
5.7209
6.05755
6.38429
6.70121
7.00842
7.30605
7.59424
7.87315
8.14296
8.40386
8.65603
8.8997
9.13506
9.36233
9.58174
9.7935
9.99786
10.195
10.3852
10.5687
10.7456
10.9163
11.0809
11.2397
11.3928
11.5405
11.6829
11.8204
11.953
12.081
12.2045
12.3237
12.4388
12.55
12.6574
12.7612
12.8615
12.9584
13.0522
13.1428
13.2305
13.3153
13.3974
13.4769
13.5538
13.6283
13.7005
13.7705
13.8383
13.904
13.9676
14.0294
14.0892
14.1472
14.2035
14.258
14.3108
14.362
14.4116
14.4596
14.506
14.5509
14.5942
14.636
14.6764
14.7152
14.7524
14.7881
14.8223
14.8549
14.8858
14.9151
14.9427
14.9685
14.9923
15.014
15.0332
15.0493
15.0615
15.0661
15.0674
15.0323
-7.18819
-7.26656
-7.39751
-7.55339
-7.73201
-7.93306
-8.15386
-8.3918
-8.64525
-8.9129
-9.19308
-9.48467
-9.78672
-10.0973
-10.4139
-10.734
-11.055
-11.3747
-11.6909
-12.0019
-12.306
-12.602
-12.889
-13.166
-13.4324
-13.6876
-13.9312
-14.1626
-14.3814
-14.5872
-14.7793
-14.9574
-15.1208
-15.2689
-15.401
-15.5165
-15.6148
-15.695
-15.7567
-15.799
-15.8213
-15.8231
-15.8039
-15.7631
-15.7004
-15.6154
-15.5079
-15.3777
-15.2249
-15.0493
-14.8512
-14.6307
-14.3883
-14.1242
-13.8391
-13.5334
-13.208
-12.8635
-12.5008
-12.1207
-11.7242
-11.3124
-10.8862
-10.4467
-9.99511
-9.53247
-9.05994
-8.57868
-8.08984
-7.59455
-7.09394
-6.58913
-6.0812
-5.57123
-5.06022
-4.54918
-4.03903
-3.53068
-3.025
-2.52278
-2.0248
-1.53176
-1.04432
-0.563092
-0.0886332
0.37855
0.838001
1.28931
1.73213
2.16613
2.59105
3.00665
3.41276
3.80921
4.19591
4.57275
4.93969
5.29672
5.64383
5.98106
6.30848
6.62616
6.93421
7.23275
7.52192
7.80189
8.07281
8.33486
8.58825
8.83317
9.06982
9.29841
9.51917
9.73231
9.93805
10.1366
10.3282
10.5131
10.6915
10.8636
11.0296
11.1898
11.3443
11.4934
11.6372
11.776
11.91
12.0392
12.164
12.2845
12.4009
12.5133
12.6219
12.7269
12.8283
12.9263
13.0212
13.1129
13.2016
13.2874
13.3705
13.4509
13.5287
13.6041
13.6772
13.748
13.8166
13.883
13.9475
14.0099
14.0705
14.1292
14.1861
14.2413
14.2947
14.3465
14.3967
14.4452
14.4922
14.5375
14.5814
14.6237
14.6644
14.7035
14.7411
14.7771
14.8115
14.8442
14.8751
14.9043
14.9315
14.9567
14.9797
15.0002
15.0176
15.0313
15.0404
15.0411
15.0379
14.9975
-7.36446
-7.42904
-7.53995
-7.67838
-7.84218
-8.03089
-8.24216
-8.47332
-8.72192
-8.98563
-9.26222
-9.55052
-9.84931
-10.1564
-10.4693
-10.7857
-11.1033
-11.4198
-11.7333
-12.0421
-12.3446
-12.6396
-12.926
-13.2029
-13.4695
-13.7251
-13.9692
-14.2012
-14.4206
-14.6269
-14.8194
-14.9977
-15.1612
-15.3091
-15.4409
-15.5558
-15.6533
-15.7327
-15.7932
-15.8343
-15.8554
-15.8558
-15.8351
-15.7928
-15.7285
-15.642
-15.5331
-15.4015
-15.2473
-15.0705
-14.8712
-14.6498
-14.4065
-14.1417
-13.856
-13.5501
-13.2244
-12.88
-12.5174
-12.1378
-11.7419
-11.3309
-10.9056
-10.4673
-10.017
-9.55581
-9.08486
-8.60531
-8.11828
-7.6249
-7.12628
-6.62352
-6.11769
-5.60983
-5.10095
-4.59203
-4.084
-3.57774
-3.0741
-2.57387
-2.07782
-1.58662
-1.10095
-0.62139
-0.1485
0.317225
0.775331
1.22542
1.66712
2.10014
2.5242
2.93906
3.34456
3.74052
4.12684
4.50342
4.87023
5.22723
5.57442
5.91185
6.23956
6.55763
6.86617
7.16529
7.45512
7.73583
8.00756
8.27049
8.52482
8.77072
9.00842
9.2381
9.45999
9.67429
9.88122
10.081
10.2739
10.46
10.6396
10.813
10.9803
11.1418
11.2976
11.4479
11.593
11.7331
11.8682
11.9988
12.1248
12.2465
12.364
12.4776
12.5873
12.6934
12.7959
12.895
12.9908
13.0836
13.1733
13.2601
13.3441
13.4254
13.5041
13.5804
13.6543
13.7259
13.7953
13.8626
13.9278
13.9909
14.0522
14.1116
14.1692
14.225
14.2791
14.3314
14.3822
14.4313
14.4788
14.5246
14.569
14.6117
14.6528
14.6924
14.7303
14.7666
14.8011
14.8339
14.8649
14.8939
14.9208
14.9454
14.9675
14.9867
15.0024
15.0137
15.0199
15.0169
15.0096
14.9649
-7.53826
-7.58974
-7.68231
-7.80288
-7.94949
-8.1216
-8.31716
-8.53379
-8.76903
-9.02033
-9.28566
-9.56391
-9.85369
-10.1528
-10.4587
-10.7692
-11.0819
-11.3946
-11.7055
-12.0127
-12.3147
-12.61
-12.8974
-13.176
-13.4447
-13.7027
-13.9493
-14.184
-14.4059
-14.6146
-14.8093
-14.9895
-15.1545
-15.3037
-15.4364
-15.552
-15.6497
-15.7291
-15.7893
-15.8299
-15.8502
-15.8497
-15.828
-15.7845
-15.7191
-15.6314
-15.5213
-15.3886
-15.2333
-15.0555
-14.8554
-14.6333
-14.3895
-14.1244
-13.8387
-13.5328
-13.2075
-12.8636
-12.5019
-12.1232
-11.7285
-11.3189
-10.8953
-10.4588
-10.0105
-9.55147
-9.08285
-8.60576
-8.12131
-7.63061
-7.13475
-6.63482
-6.13186
-5.6269
-5.12093
-4.61491
-4.10975
-3.60633
-3.10548
-2.60796
-2.11453
-1.62588
-1.14264
-0.665399
-0.194709
0.268942
0.725108
1.17339
1.61343
2.04493
2.4676
2.88123
3.28563
3.68064
4.06613
4.44204
4.80829
5.16487
5.51178
5.84904
6.1767
6.49484
6.80355
7.10295
7.39316
7.67433
7.94661
8.21017
8.4652
8.71188
8.95041
9.18098
9.4038
9.61908
9.82704
10.0279
10.2218
10.4091
10.5898
10.7644
10.9328
11.0954
11.2524
11.4039
11.5502
11.6914
11.8278
11.9595
12.0866
12.2095
12.3281
12.4428
12.5536
12.6607
12.7643
12.8644
12.9613
13.055
13.1456
13.2333
13.3183
13.4005
13.4801
13.5573
13.632
13.7044
13.7746
13.8426
13.9085
13.9724
14.0344
14.0945
14.1527
14.2091
14.2638
14.3168
14.3681
14.4178
14.4658
14.5122
14.557
14.6002
14.6418
14.6817
14.72
14.7565
14.7913
14.8242
14.8551
14.884
14.9106
14.9346
14.9559
14.9738
14.9879
14.9969
15.0003
14.994
14.9831
14.9345
-7.66505
-7.70721
-7.78439
-7.88832
-8.01753
-8.17157
-8.3487
-8.54695
-8.76432
-8.99862
-9.24844
-9.51306
-9.79107
-10.0802
-10.3779
-10.6818
-10.9897
-11.2992
-11.6083
-11.9151
-12.2178
-12.5149
-12.805
-13.0869
-13.3594
-13.6215
-13.8724
-14.1112
-14.3371
-14.5495
-14.7476
-14.9308
-15.0985
-15.2498
-15.3843
-15.5011
-15.5998
-15.6796
-15.7401
-15.7805
-15.8005
-15.7994
-15.7769
-15.7327
-15.6664
-15.5778
-15.4668
-15.3333
-15.1774
-14.9991
-14.7987
-14.5764
-14.3327
-14.0679
-13.7827
-13.4776
-13.1534
-12.8108
-12.4507
-12.0738
-11.6813
-11.274
-10.853
-10.4193
-9.97391
-9.51804
-9.05273
-8.57908
-8.09818
-7.61113
-7.11901
-6.62285
-6.12371
-5.62257
-5.12041
-4.61817
-4.11674
-3.61699
-3.11974
-2.62574
-2.13571
-1.65033
-1.17024
-0.696016
-0.228193
0.232744
0.686354
1.13224
1.57005
1.99948
2.42026
2.83215
3.23498
3.62857
4.01282
4.38764
4.75295
5.10874
5.45501
5.79176
6.11906
6.43697
6.74557
7.04497
7.3353
7.61669
7.88929
8.15327
8.4088
8.65606
8.89523
9.12652
9.35012
9.56623
9.77507
9.97683
10.1717
10.36
10.5418
10.7173
10.8869
11.0506
11.2086
11.3612
11.5086
11.651
11.7884
11.9212
12.0494
12.1733
12.2931
12.4088
12.5207
12.6288
12.7334
12.8345
12.9323
13.027
13.1186
13.2072
13.293
13.3761
13.4566
13.5346
13.6101
13.6833
13.7543
13.8231
13.8897
13.9544
14.017
14.0778
14.1367
14.1937
14.2491
14.3027
14.3546
14.4048
14.4534
14.5003
14.5456
14.5893
14.6313
14.6716
14.7102
14.747
14.782
14.8151
14.846
14.8747
14.901
14.9245
14.9449
14.9617
14.9741
14.9811
14.9819
14.9726
14.9583
14.9066
-7.72054
-7.75877
-7.82435
-7.91332
-8.02552
-8.16089
-8.31841
-8.49674
-8.69432
-8.90963
-9.14213
-9.39175
-9.65714
-9.93593
-10.2255
-10.5234
-10.8272
-11.1345
-11.443
-11.7507
-12.0557
-12.356
-12.6502
-12.9367
-13.2143
-13.4817
-13.7379
-13.9819
-14.2127
-14.4297
-14.6319
-14.8188
-14.9895
-15.1435
-15.2801
-15.3986
-15.4984
-15.579
-15.6399
-15.6804
-15.7003
-15.6989
-15.676
-15.6313
-15.5645
-15.4755
-15.3642
-15.2305
-15.0745
-14.8963
-14.6963
-14.4746
-14.2318
-13.9682
-13.6845
-13.3812
-13.0591
-12.7189
-12.3614
-11.9876
-11.5983
-11.1945
-10.7772
-10.3474
-9.90623
-9.45467
-8.99383
-8.52477
-8.04857
-7.5663
-7.079
-6.58771
-6.09343
-5.59715
-5.09981
-4.60232
-4.10558
-3.61041
-3.11762
-2.62798
-2.14217
-1.66086
-1.18467
-0.714174
-0.249904
0.207662
0.658089
1.10098
1.53599
1.96281
2.38117
2.79084
3.19163
3.58338
3.96597
4.3393
4.70331
5.05796
5.40325
5.73919
6.06583
6.38323
6.69146
6.99062
7.28084
7.56224
7.83496
8.09916
8.35501
8.60268
8.84235
9.07421
9.29845
9.51526
9.72486
9.92743
10.1232
10.3123
10.4951
10.6716
10.8421
11.0068
11.1659
11.3195
11.468
11.6113
11.7499
11.8837
12.013
12.1379
12.2587
12.3755
12.4883
12.5975
12.703
12.8051
12.9039
12.9995
13.092
13.1816
13.2683
13.3522
13.4336
13.5124
13.5887
13.6627
13.7344
13.804
13.8714
13.9367
14.0001
14.0615
14.1211
14.1788
14.2347
14.2889
14.3414
14.3922
14.4414
14.4888
14.5347
14.5788
14.6213
14.662
14.701
14.7382
14.7734
14.8066
14.8376
14.8662
14.8921
14.9151
14.9347
14.9504
14.9613
14.9664
14.9648
14.9529
14.9356
14.8813
-7.7062
-7.74087
-7.79769
-7.87282
-7.96781
-8.0835
-8.21987
-8.37659
-8.55285
-8.74797
-8.96237
-9.19657
-9.44936
-9.71827
-10.0006
-10.2936
-10.5948
-10.9014
-11.211
-11.5213
-11.8299
-12.135
-12.4345
-12.7268
-13.0103
-13.2838
-13.5459
-13.7955
-14.0316
-14.2533
-14.4598
-14.6504
-14.8243
-14.9808
-15.1194
-15.2395
-15.3405
-15.4219
-15.4833
-15.5241
-15.5441
-15.5427
-15.5198
-15.4751
-15.4083
-15.3195
-15.2085
-15.0753
-14.9201
-14.743
-14.5444
-14.3244
-14.0836
-13.8223
-13.5413
-13.2411
-12.9223
-12.5859
-12.2324
-11.8629
-11.4782
-11.0793
-10.6671
-10.2427
-9.80699
-9.36109
-8.90604
-8.44288
-7.97266
-7.49641
-7.01515
-6.5299
-6.04163
-5.55131
-5.05986
-4.56817
-4.0771
-3.58747
-3.10007
-2.61565
-2.1349
-1.65848
-1.18696
-0.720928
-0.2609
0.192642
0.639263
1.07857
1.51022
1.9339
2.34934
2.75632
3.15463
3.54411
3.92464
4.29611
4.65846
5.01165
5.35567
5.69052
6.01623
6.33287
6.64049
6.9392
7.2291
7.51032
7.78299
8.04725
8.30326
8.5512
8.79123
9.02353
9.2483
9.46571
9.67597
9.87927
10.0758
10.2658
10.4493
10.6268
10.7982
10.9639
11.1239
11.2786
11.428
11.5724
11.7119
11.8468
11.9771
12.1031
12.2248
12.3426
12.4565
12.5666
12.6731
12.7762
12.8759
12.9724
13.0658
13.1563
13.2439
13.3287
13.4109
13.4905
13.5677
13.6424
13.7149
13.7852
13.8533
13.9194
13.9835
14.0456
14.1058
14.1642
14.2208
14.2756
14.3287
14.3801
14.4298
14.4779
14.5242
14.5689
14.6118
14.653
14.6924
14.7299
14.7654
14.7987
14.8298
14.8583
14.884
14.9066
14.9255
14.9401
14.9497
14.9531
14.9493
14.9349
14.9149
14.8585
-7.64253
-7.66825
-7.71438
-7.77301
-7.84776
-7.94063
-8.05284
-8.18528
-8.33818
-8.5118
-8.70756
-8.92647
-9.16736
-9.42755
-9.70405
-9.99389
-10.2941
-10.6018
-10.9141
-11.2283
-11.5419
-11.8526
-12.1582
-12.4569
-12.7467
-13.0263
-13.2942
-13.5493
-13.7904
-14.0165
-14.2269
-14.4208
-14.5975
-14.7563
-14.8967
-15.0182
-15.1204
-15.2026
-15.2647
-15.306
-15.3265