/*--------------------------------*- C++ -*----------------------------------*\
  =========                 |
  \\      /  F ield         | OpenFOAM: The Open Source CFD Toolbox
   \\    /   O peration     | Website:  https://openfoam.org
    \\  /    A nd           | Version:  8
     \\/     M anipulation  |
\*---------------------------------------------------------------------------*/
FoamFile
{
    version     2.0;
    format      ascii;
    class       volVectorField;
    location    "2400";
    object      wallShearStress;
}
// * * * * * * * * * * * * * * * * * * * * * * * * * * * * * * * * * * * * * //

dimensions      [0 2 -2 0 0 0 0];

internalField   uniform (0 0 0);

boundaryField
{
    inlet
    {
        type            calculated;
        value           uniform (0 0 0);
    }
    outlet
    {
        type            calculated;
        value           uniform (0 0 0);
    }
    upperWall
    {
        type            calculated;
        value           nonuniform List<vector> 
223
(
(-0.582193 -0.392359 0)
(-0.977814 -0.219377 0)
(-0.939336 -0.0567747 0)
(-0.81071 -0.00585779 0)
(-0.734594 0.00331369 0)
(-0.695452 0.00231539 0)
(-0.67094 0.000424275 0)
(-0.6535 -0.00144897 0)
(-0.64054 -0.00256677 0)
(-0.629801 -0.00217397 0)
(-0.620128 -0.00134622 0)
(-0.610876 -0.00098522 0)
(-0.603119 -0.00163206 0)
(-0.597043 -0.00155397 0)
(-0.590603 0.000492316 0)
(-0.584434 0.000986372 0)
(-0.579778 -0.000241678 0)
(-0.575269 0.000870813 0)
(-0.570772 0.00263081 0)
(-0.567431 0.00184035 4.23305e-22)
(-0.564755 0.00123539 0)
(-0.561951 0.00280864 0)
(-0.558576 0.00308047 0)
(-0.55551 0.00260437 4.46757e-22)
(-0.55286 0.00288844 0)
(-0.550044 0.00332072 0)
(-0.547174 0.00352759 0)
(-0.544236 0.00352747 -9.38379e-22)
(-0.541362 0.00306556 9.46554e-22)
(-0.538646 0.00261292 9.56951e-22)
(-0.535973 0.00248508 0)
(-0.533262 0.0021932 -9.78896e-22)
(-0.530612 0.0019328 0)
(-0.527977 0.00173288 1.00185e-21)
(-0.525334 0.00156352 1.01389e-21)
(-0.522681 0.00143377 -1.02643e-21)
(-0.52001 0.00132948 0)
(-0.517323 0.00124719 0)
(-0.514616 0.00118383 0)
(-0.511886 0.00113556 0)
(-0.509128 0.00109916 -1.09103e-21)
(-0.506342 0.00107239 0)
(-0.503523 0.00105348 0)
(-0.500669 0.00104091 1.13111e-21)
(-0.497778 0.00103386 0)
(-0.494844 0.00103128 1.15757e-21)
(-0.491867 0.0010325 -1.17055e-21)
(-0.488841 0.00103676 1.1833e-21)
(-0.485764 0.00104373 0)
(-0.482634 0.00105216 0)
(-0.479448 0.00106108 0)
(-0.47621 0.00106962 1.2308e-21)
(-0.472924 0.00107652 -1.24147e-21)
(-0.469602 0.0010821 0)
(-0.466259 0.00108733 0)
(-0.46291 0.00109266 0)
(-0.459565 0.00109732 0)
(-0.456231 0.00110005 0)
(-0.452907 0.0011002 0)
(-0.449589 0.0010978 0)
(-0.44627 0.00109352 0)
(-0.442938 0.00108838 1.29204e-21)
(-0.439583 0.00108359 -1.29182e-21)
(-0.436194 0.0010799 0)
(-0.43276 0.00107794 0)
(-0.42927 0.00107812 0)
(-0.425715 0.00108033 -1.27845e-21)
(-0.422087 0.00108441 0)
(-0.418379 0.00109021 0)
(-0.414586 0.0010973 0)
(-0.410703 0.00110533 0)
(-0.406726 0.00111382 0)
(-0.402654 0.00112216 -2.43454e-21)
(-0.398486 0.00113 0)
(-0.394222 0.00113665 0)
(-0.389867 0.00114165 0)
(-0.385425 0.00114477 0)
(-0.380906 0.00114592 0)
(-0.376321 0.00114496 0)
(-0.371681 0.0011416 0)
(-0.367 0.00113559 2.09556e-21)
(-0.362287 0.00112671 0)
(-0.35755 0.00111516 0)
(-0.352793 0.00110124 0)
(-0.34802 0.00108537 -1.83994e-21)
(-0.34323 0.00106821 0)
(-0.338421 0.00105039 -1.69054e-21)
(-0.333589 0.00103247 0)
(-0.32873 0.00101538 0)
(-0.323835 0.000999897 0)
(-0.319024 0.000992072 -1.3514e-21)
(-0.316383 0.00100118 0)
(-0.313659 0.0010151 1.18097e-21)
(-0.310854 0.00102976 1.0903e-21)
(-0.307974 0.0010429 0)
(-0.305029 0.00105389 8.96659e-22)
(-0.302032 0.00106251 0)
(-0.298995 0.00107026 0)
(-0.295934 0.00107639 0)
(-0.29286 0.00108647 -4.55346e-22)
(-0.289793 0.00109065 0)
(-0.286736 0.00110289 -2.0601e-22)
(-0.283714 0.00110606 7.40337e-23)
(-0.280722 0.00111213 0)
(-0.277792 0.00111143 0)
(-0.274907 0.0011064 0)
(-0.272099 0.00110965 0)
(-0.269353 0.00108228 0)
(-0.266676 0.00101196 0)
(-0.264062 0.0008888 0)
(-0.261645 0.000830878 1.14837e-21)
(-0.259171 0.000958823 0)
(-0.257045 0.00110315 0)
(-0.254797 0.00158535 0)
(-0.252906 0.00143795 0)
(-0.250887 0.00109311 0)
(-0.248878 0.00142285 0)
(-0.247074 0.00145824 0)
(-0.245268 0.00106067 0)
(-0.243418 0.000337708 0)
(-0.241362 0.000133229 0)
(-0.239254 0.000196831 0)
(-0.237598 0.000201586 0)
(-0.235665 0.00040407 7.20172e-21)
(-0.233869 0.000510376 0)
(-0.232392 0.000531431 0)
(-0.23075 0.000504607 0)
(-0.22907 0.000515672 -8.79837e-21)
(-0.227457 0.000569562 0)
(-0.225989 0.000467973 0)
(-0.224457 0.000592753 -1.00528e-20)
(-0.223094 0.000663393 0)
(-0.221581 0.000733209 1.08923e-20)
(-0.220185 0.000741372 0)
(-0.218556 0.000998452 0)
(-0.217602 0.00122873 0)
(-0.216719 0.000800365 -1.24784e-20)
(-0.215664 0.000379326 0)
(-0.214583 0.00060036 1.34054e-20)
(-0.213322 0.00096789 0)
(-0.212489 0.000752531 0)
(-0.211757 0.000495649 0)
(-0.21084 0.000623101 0)
(-0.209753 0.000688199 0)
(-0.208933 0.00040261 0)
(-0.207915 0.000442735 0)
(-0.207297 0.000448806 0)
(-0.206717 0.000368382 0)
(-0.205511 0.000443365 0)
(-0.204885 0.00033138 0)
(-0.204351 0.000332139 1.82965e-20)
(-0.203275 0.000193138 -1.8839e-20)
(-0.202438 0.000240675 0)
(-0.201739 0.000435531 0)
(-0.20121 0.000104914 0)
(-0.200478 0.000177477 0)
(-0.200053 0.000367607 -2.08025e-20)
(-0.199847 0.000116777 2.11426e-20)
(-0.19892 0.000208577 -2.17378e-20)
(-0.198504 0.000364076 0)
(-0.198019 0.000294511 -2.24274e-20)
(-0.19732 0.000320434 -4.57901e-20)
(-0.197078 0.000222765 0)
(-0.196885 0.000212646 -4.71579e-20)
(-0.195982 0.000277627 4.83355e-20)
(-0.195723 0.000213839 0)
(-0.195457 0.000224636 0)
(-0.194646 0.00022466 0)
(-0.194411 0.000175172 0)
(-0.194436 0.000247318 0)
(-0.19356 0.000274744 -5.33441e-20)
(-0.193215 0.00027146 0)
(-0.192884 -0.000169103 -5.48674e-20)
(-0.191737 -0.000482046 0)
(-0.190622 -0.000174875 0)
(-0.190159 1.5867e-05 0)
(-0.189606 0.000206669 0)
(-0.18896 0.000464733 0)
(-0.188541 0.000504347 6.08067e-20)
(-0.188358 0.000522462 0)
(-0.188274 0.000606354 0)
(-0.187598 0.000444114 -6.36217e-20)
(-0.187056 0.000298151 0)
(-0.186337 -6.51722e-05 0)
(-0.184637 -0.000277949 0)
(-0.18314 4.88798e-05 6.93272e-20)
(-0.181764 0.000217847 0)
(-0.180722 0.000421535 0)
(-0.179281 0.000782113 0)
(-0.177863 0.000816122 0)
(-0.176553 0.000753147 -7.63277e-20)
(-0.174028 0.000428129 0)
(-0.170289 0.000224571 0)
(-0.16596 0.000572596 0)
(-0.161377 0.000843707 8.87631e-20)
(-0.154686 0.00124554 0)
(-0.147289 0.00223435 0)
(-0.122551 0.00226073 -1.08152e-19)
(-0.140635 0.00684913 0)
(-0.169026 0.0134348 1.25143e-17)
(-0.186763 0.0172298 2.34948e-17)
(-0.193174 0.0189846 2.27294e-17)
(-0.196672 0.0197337 2.2003e-17)
(-0.200867 0.0203402 2.11468e-17)
(-0.205379 0.0210371 -2.02443e-17)
(-0.209647 0.021541 -1.95241e-17)
(-0.213851 0.0218859 -6.01853e-36)
(-0.218081 0.0220275 -3.66573e-17)
(-0.220217 0.022188 -1.80751e-17)
(-0.224681 0.0227248 5.23612e-34)
(-0.227505 0.0229065 -1.20371e-35)
(-0.231049 0.0233649 -3.22795e-17)
(-0.235335 0.0239361 -3.06864e-17)
(-0.242334 0.0247793 -2.84668e-17)
(-0.249514 0.0254448 -4.81482e-35)
(-0.256857 0.0260678 4.94055e-17)
(-0.263906 0.0266474 2.26468e-17)
(-0.272748 0.027446 2.40741e-35)
(-0.282653 0.0283568 -3.48628e-17)
(-0.291211 0.028999 -1.58067e-20)
(-0.300877 0.0295772 -3.00927e-36)
(-0.304432 0.0304162 1.34855e-17)
(-0.332558 0.0321491 -7.62909e-18)
)
;
    }
    lowerWall
    {
        type            calculated;
        value           nonuniform List<vector> 
250
(
(-0.653909 0.466638 0)
(-1.14095 0.204678 0)
(-1.03492 0.0379586 0)
(-0.869573 -0.000935989 0)
(-0.786941 -0.00419163 0)
(-0.746063 -0.00160783 0)
(-0.719878 0.000416161 0)
(-0.700645 -0.000651806 0)
(-0.685088 -0.00405592 0)
(-0.671318 -0.00471218 0)
(-0.658933 -0.00298817 0)
(-0.64772 -0.000864214 0)
(-0.637516 0.00142607 0)
(-0.628189 0.00210389 0)
(-0.61932 0.00136792 0)
(-0.611521 0.00135748 0)
(-0.60458 0.00169578 0)
(-0.605068 0.00194308 0)
(-0.00426042 -0.0228577 0)
(-0.00275884 -0.0176423 0)
(-0.000676865 -0.0144931 0)
(0.00194471 -0.0137776 9.02274e-20)
(0.00526915 -0.0151981 -7.86202e-20)
(0.00896195 -0.0208211 6.28502e-20)
(0.0127404 -0.0200863 -4.84744e-20)
(0.025628 -0.0633152 0)
(-0.0840641 -0.144715 0)
(0.000872652 -0.00384053 0)
(-0.00766519 0.0095462 0)
(-0.00851607 0.0328209 0)
(-0.00254951 0.0448546 0)
(0.00295323 0.0442611 1.82228e-20)
(0.00618258 0.0360629 -1.89662e-20)
(0.00818705 0.024161 0)
(0.00946034 0.0101606 -5.42304e-20)
(0.00943151 -0.00404231 6.11451e-20)
(0.00793318 -0.0174223 0)
(0.00614118 -0.0291948 0)
(0.00438168 -0.0385625 0)
(0.00268718 -0.0451394 0)
(0.000986041 -0.0488793 0)
(-0.000885112 -0.0495145 0)
(-0.00282052 -0.0464084 0)
(-0.00437904 -0.0399025 0)
(-0.00492618 -0.0308267 0)
(0.00132857 -0.00151215 0)
(0.00133788 0.00652697 0)
(-0.00450912 0.00961829 0)
(-0.009597 0.00975624 0)
(-0.0133829 0.00829932 0)
(-0.0158892 0.00623504 0)
(-0.0172641 0.00409748 1.49578e-21)
(-0.0177828 0.00200597 -1.52738e-21)
(-0.0173312 -7.14951e-06 0)
(-0.0160536 -0.0016864 -1.65313e-21)
(-0.0141881 -0.0028377 0)
(-0.0120501 -0.00329656 0)
(-0.0100503 -0.00303595 -0)
(-0.00855273 -0.0022803 2.57041e-21)
(-0.0076161 -0.00142304 0)
(-0.00693785 -0.000815826 0)
(-0.00612038 -0.000623394 -3.37835e-21)
(-0.0049928 -0.00100043 0)
(-0.00340846 -0.00238591 0)
(-0.000488594 -0.00505755 0)
(0.00436073 -0.00740361 3.03317e-21)
(0.00994565 -0.0088951 0)
(0.0158466 -0.00984997 1.46918e-21)
(0.0218921 -0.0106169 0)
(0.0280977 -0.0112689 -0)
(0.0344081 -0.0115143 8.44719e-22)
(0.0405407 -0.0113547 0)
(0.0491485 -0.0116033 -7.54055e-22)
(0.0589386 -0.0117553 -0)
(0.0686327 -0.0115827 7.70717e-22)
(0.0780416 -0.0111689 0)
(0.0870146 -0.0105841 0)
(0.0954589 -0.00989005 0)
(0.103317 -0.00913657 -0)
(0.110563 -0.00836071 0)
(0.117196 -0.00758961 -8.11172e-22)
(0.12323 -0.00684044 -0)
(0.128686 -0.00612264 1.63312e-21)
(0.133591 -0.00544045 0)
(0.137973 -0.00479417 -1.63499e-21)
(0.141859 -0.00418202 -0)
(0.145271 -0.00360142 -0)
(0.148232 -0.00304958 1.62109e-21)
(0.150758 -0.00252418 0)
(0.152864 -0.00202411 1.60087e-21)
(0.154561 -0.0015503 -1.58755e-21)
(0.155863 -0.00110626 -0)
(0.156782 -0.000698822 -1.55494e-21)
(0.157328 -0.000337875 -1.53591e-21)
(0.157514 -3.98392e-05 -0)
(0.157408 0.000194786 0)
(0.157077 0.000391507 0)
(0.156523 0.000568219 0)
(0.155761 0.000731128 -0)
(0.154801 0.000884183 1.37584e-21)
(0.153649 0.00102831 0)
(0.152312 0.00116399 -1.30706e-21)
(0.150799 0.00129165 -0)
(0.149116 0.0014113 -0)
(0.147271 0.00152286 1.19061e-21)
(0.145272 0.00162639 0)
(0.143126 0.00172189 -1.10491e-21)
(0.140842 0.00180925 -0)
(0.138429 0.00188859 0)
(0.135895 0.00195985 -0)
(0.13325 0.00202305 9.1689e-22)
(0.130501 0.00207839 0)
(0.127659 0.00212592 -0)
(0.124733 0.00216578 7.6385e-22)
(0.121732 0.00219825 0)
(0.118665 0.00222349 6.57318e-22)
(0.115542 0.00224167 0)
(0.11237 0.00225312 0)
(0.10916 0.0022581 0)
(0.105919 0.00225691 -4.3624e-22)
(0.102657 0.00224977 -0)
(0.0993801 0.00223705 0)
(0.0960975 0.00221919 -2.65641e-22)
(0.092816 0.00219635 -2.08189e-22)
(0.0895434 0.00216894 -0)
(0.0862856 0.00213731 -9.27196e-23)
(0.0830497 0.00210177 -0)
(0.0798412 0.00206273 4.64759e-23)
(0.0766661 0.00202058 -0)
(0.073529 0.00197581 2.78892e-22)
(0.0704351 0.00192882 0)
(0.0673884 0.00188028 -5.11571e-22)
(0.0643927 0.00183088 -0)
(0.0614511 0.0017816 0)
(0.0585665 0.00173381 -0)
(0.0557405 0.00168922 9.78328e-22)
(0.0529747 0.00164994 0)
(0.0502694 0.00161809 -1.21376e-21)
(0.0476233 0.00159482 0)
(0.0457845 0.00160348 1.47552e-21)
(0.0442421 0.00162102 1.63402e-21)
(0.0427031 0.00162592 1.79894e-21)
(0.0411757 0.00161301 0)
(0.0396654 0.00158969 0)
(0.0381717 0.00156401 0)
(0.0366935 0.0015382 0)
(0.0352306 0.00151248 0)
(0.0337835 0.00148685 0)
(0.0323527 0.00146139 0)
(0.0309385 0.00143616 0)
(0.0295416 0.00141134 -3.69166e-21)
(0.0281622 0.00138714 -3.96728e-21)
(0.0268005 0.00136369 0)
(0.0254567 0.00134068 0)
(0.0241314 0.00131664 0)
(0.0228255 0.00129175 -5.26716e-21)
(0.0215394 0.00126751 0)
(0.0202728 0.00124385 0)
(0.0190258 0.00122078 0)
(0.0177985 0.00119835 0)
(0.016591 0.00117661 7.53558e-21)
(0.0154032 0.00115565 0)
(0.0142351 0.00113556 0)
(0.0130866 0.00111643 -9.4542e-21)
(0.0119576 0.00109831 1.02316e-20)
(0.0108481 0.00108129 0)
(0.00975795 0.00106567 1.20677e-20)
(0.00868719 0.00105207 0)
(0.0076354 0.00104168 -1.44057e-20)
(0.00660187 0.00103479 0)
(0.00558631 0.00103038 0)
(0.00458864 0.00102816 0)
(0.00360845 0.00102845 0)
(0.00264528 0.00103148 0)
(0.00169959 0.0010372 5.57006e-20)
(0.000772875 0.00104279 6.4208e-20)
(-0.000136885 0.00103012 0)
(-0.00103412 0.00098734 0)
(-0.0019159 0.000934963 0)
(-0.00278218 0.000885475 -5.2898e-20)
(-0.00363287 0.000840562 0)
(-0.00446774 0.000799822 0)
(-0.00528722 0.000762764 0)
(-0.00609186 0.000728893 -4.04207e-20)
(-0.00688221 0.000697756 3.83701e-20)
(-0.00765879 0.000668969 0)
(-0.00842206 0.000642227 0)
(-0.00917247 0.000617288 3.36211e-20)
(-0.00991045 0.00059395 3.23807e-20)
(-0.0106364 0.000572051 0)
(-0.0113508 0.000551455 0)
(-0.0120541 0.000532047 -2.93548e-20)
(-0.0127466 0.000513728 2.8527e-20)
(-0.0134288 0.000496426 0)
(-0.0141012 0.000480061 0)
(-0.0147641 0.000464577 2.64369e-20)
(-0.015418 0.000449921 0)
(-0.0160634 0.000436047 0)
(-0.0167006 0.000422911 2.47912e-20)
(-0.0173302 0.00041048 0)
(-0.0179526 0.000398717 2.38751e-20)
(-0.0185683 0.000387595 0)
(-0.0191778 0.000377078 0)
(-0.0197814 0.000367139 0)
(-0.0203796 0.000357749 -2.23591e-20)
(-0.020973 0.000348862 0)
(-0.0215619 0.000340458 0)
(-0.0221467 0.000332465 0)
(-0.0227276 0.000324819 0)
(-0.023305 0.00031746 0)
(-0.0238788 0.000310253 0)
(-0.0244489 0.000303058 -2.03858e-20)
(-0.0250149 0.000295697 -2.01555e-20)
(-0.0255761 0.000287876 0)
(-0.026131 0.000279195 0)
(-0.0266772 0.000269163 0)
(-0.0272116 0.00025703 1.93607e-20)
(-0.0277289 0.000241539 0)
(-0.0282207 0.000221301 -3.81352e-20)
(-0.0286776 0.000192266 3.7929e-20)
(-0.0290708 0.000152643 3.78199e-20)
(-0.029402 7.78782e-05 -3.78585e-20)
(-0.0294835 -3.93958e-05 3.80456e-20)
(-0.0295082 -0.000356547 -3.83978e-20)
(-0.0279736 -0.000616889 0)
(-0.0293462 -0.000516219 -2.43317e-18)
(-0.0327699 -0.00134241 -2.26976e-18)
(-0.0364134 -0.00203338 -3.00927e-36)
(-0.0395343 -0.00257607 -4.06087e-18)
(-0.0424843 -0.00301862 -7.75782e-18)
(-0.0455568 -0.00342167 -3.71958e-18)
(-0.0487799 -0.00381911 3.5681e-18)
(-0.0521159 -0.00429876 -5.41668e-35)
(-0.0555992 -0.00475678 6.01853e-36)
(-0.059299 -0.00508195 3.14748e-18)
(-0.0632379 -0.00540905 3.028e-18)
(-0.0674291 -0.00580751 6.01853e-36)
(-0.0719105 -0.00624927 0)
(-0.0767251 -0.00671036 0)
(-0.0819187 -0.00720492 -7.06237e-35)
(-0.0875397 -0.00774596 7.68303e-35)
(-0.0936581 -0.00834586 1.71528e-34)
(-0.100329 -0.00900881 -4.15795e-18)
(-0.107692 -0.00972946 -3.81218e-18)
(-0.116752 -0.0106226 0)
(-0.127569 -0.0116263 6.13658e-18)
(-0.138424 -0.0127333 1.0349e-17)
(-0.153649 -0.0139269 -6.01853e-36)
(-0.162849 -0.015294 -5.09784e-18)
(-0.191963 -0.016982 -3.00927e-35)
)
;
    }
    frontAndBack
    {
        type            empty;
    }
}


// ************************************************************************* //
