/*--------------------------------*- C++ -*----------------------------------*\
  =========                 |
  \\      /  F ield         | OpenFOAM: The Open Source CFD Toolbox
   \\    /   O peration     | Website:  https://openfoam.org
    \\  /    A nd           | Version:  8
     \\/     M anipulation  |
\*---------------------------------------------------------------------------*/
FoamFile
{
    version     2.0;
    format      ascii;
    class       volScalarField;
    location    "1100";
    object      k;
}
// * * * * * * * * * * * * * * * * * * * * * * * * * * * * * * * * * * * * * //

dimensions      [0 2 -2 0 0 0 0];

internalField   nonuniform List<scalar> 
12225
(
2.12583
3.92885
7.59082
4.32842
5.52012
4.0591
2.56696
2.4638
2.42289
2.31698
2.13312
1.79926
1.72319
1.81275
1.81915
1.61849
1.56394
3.14986
0.475778
0.554998
0.863661
0.912693
1.01506
1.10773
1.10134
1.14152
1.18285
1.11588
1.07114
1.03446
1.01437
1.02333
0.994224
0.977585
0.971424
1.00663
0.366416
0.399077
0.434509
0.457816
0.471529
0.480476
0.493938
0.513647
0.522968
0.51484
0.515075
0.514674
0.511168
0.510692
0.51106
0.513843
0.519444
0.524044
0.370403
0.374273
0.380772
0.388586
0.390954
0.390553
0.393989
0.3944
0.396527
0.39526
0.393104
0.391152
0.388938
0.387587
0.38524
0.384039
0.381995
0.381667
0.373379
0.370472
0.3699
0.369938
0.371328
0.369905
0.371011
0.371269
0.370505
0.36921
0.367467
0.365714
0.363678
0.361848
0.359622
0.35774
0.355503
0.353777
0.373795
0.371382
0.369608
0.368157
0.367094
0.365929
0.364923
0.363818
0.36261
0.361239
0.359785
0.358258
0.35667
0.355073
0.353419
0.351805
0.350172
0.348621
0.373851
0.371536
0.369486
0.367547
0.36584
0.364212
0.36274
0.36128
0.359883
0.358457
0.357074
0.355667
0.354292
0.352907
0.351558
0.350217
0.348918
0.347653
0.37385
0.371558
0.369446
0.367426
0.365567
0.363802
0.362173
0.3606
0.359113
0.357652
0.356261
0.35489
0.353575
0.352279
0.351036
0.349819
0.34865
0.347515
0.373838
0.37157
0.369442
0.36741
0.365503
0.363692
0.361994
0.360371
0.358832
0.357351
0.355945
0.354586
0.35329
0.352035
0.350836
0.349675
0.348566
0.347498
0.373835
0.371564
0.369424
0.367391
0.365471
0.36365
0.361926
0.360283
0.358723
0.357231
0.355813
0.354455
0.353163
0.351925
0.350741
0.349609
0.348526
0.347489
0.373831
0.371561
0.369417
0.367381
0.365454
0.363624
0.361889
0.360237
0.358667
0.357171
0.355744
0.354389
0.353095
0.351859
0.350683
0.349556
0.348483
0.347458
0.373829
0.371558
0.369407
0.367368
0.365434
0.363603
0.361856
0.360202
0.358625
0.357125
0.355698
0.354338
0.353042
0.351807
0.350626
0.349503
0.348429
0.347408
0.373829
0.371554
0.3694
0.367356
0.365423
0.363577
0.361835
0.360169
0.358593
0.357087
0.355658
0.354295
0.352996
0.351757
0.350576
0.34945
0.348375
0.347351
0.373827
0.371553
0.369394
0.367353
0.365407
0.363568
0.36181
0.36015
0.358564
0.357061
0.355625
0.354261
0.352957
0.351717
0.350534
0.349405
0.348329
0.347301
0.373827
0.371549
0.369394
0.367345
0.365403
0.363554
0.3618
0.360133
0.358547
0.357038
0.355601
0.354233
0.352928
0.351685
0.350499
0.349369
0.348289
0.347259
0.373824
0.371551
0.369389
0.367341
0.365395
0.363546
0.361791
0.360121
0.358534
0.357022
0.355584
0.354212
0.352907
0.35166
0.350473
0.349339
0.348258
0.347226
0.373825
0.371548
0.369386
0.367337
0.365388
0.36354
0.361782
0.360113
0.358523
0.357011
0.355571
0.354198
0.352891
0.351643
0.350455
0.349319
0.348237
0.347203
0.373828
0.371545
0.369388
0.367328
0.36539
0.363531
0.361783
0.360103
0.358522
0.357001
0.355568
0.354189
0.352886
0.351634
0.350448
0.349309
0.348228
0.347191
0.373825
0.371549
0.369382
0.367335
0.365381
0.36354
0.361774
0.360112
0.358515
0.35701
0.355562
0.354196
0.352883
0.35164
0.350446
0.349314
0.348228
0.347195
0.373828
0.371548
0.369388
0.367334
0.365391
0.363537
0.361786
0.360111
0.358527
0.35701
0.355575
0.354199
0.352895
0.351645
0.350458
0.349321
0.34824
0.347204
0.373826
0.371551
0.369389
0.367341
0.365394
0.363548
0.361793
0.360123
0.358536
0.357023
0.355586
0.354213
0.352908
0.351661
0.350473
0.34934
0.348257
0.347225
0.37383
0.371551
0.369393
0.367345
0.365404
0.363559
0.361805
0.36014
0.358551
0.357045
0.355603
0.354239
0.35293
0.351691
0.350502
0.349374
0.348292
0.347264
0.373823
0.371556
0.369399
0.367357
0.365416
0.363575
0.361826
0.360164
0.358587
0.357085
0.355661
0.354301
0.353011
0.351775
0.350603
0.349478
0.348409
0.347381
0.373822
0.371562
0.36941
0.367376
0.365453
0.363632
0.361909
0.360284
0.358748
0.357294
0.355916
0.354605
0.353357
0.352162
0.351019
0.349917
0.34886
0.347838
0.373763
0.371595
0.369503
0.367554
0.365742
0.364056
0.362479
0.361016
0.359634
0.358332
0.357091
0.355898
0.354749
0.353621
0.352526
0.35143
0.350365
0.349294
0.37355
0.371832
0.370472
0.369068
0.367837
0.366657
0.365497
0.364408
0.363317
0.362277
0.361217
0.360159
0.359097
0.357989
0.356882
0.355684
0.354487
0.353208
0.373223
0.374251
0.376649
0.378592
0.378972
0.37839
0.377455
0.376513
0.375501
0.374539
0.373398
0.372322
0.371136
0.36989
0.368668
0.367218
0.365791
0.364122
0.3764
0.397025
0.414431
0.420045
0.421777
0.422178
0.421142
0.419591
0.417915
0.416732
0.415703
0.413897
0.413068
0.412416
0.410842
0.41019
0.410072
0.410208
0.354567
0.502137
0.554289
0.57424
0.587557
0.600748
0.612389
0.624717
0.636284
0.647852
0.658281
0.667731
0.675963
0.682675
0.688863
0.693301
0.698349
0.701525
0.614897
1.17058
1.49756
1.6273
1.6887
1.69777
1.69061
1.6733
1.64693
1.61876
1.59098
1.56447
1.53982
1.51698
1.49606
1.47686
1.45927
1.44321
1.14896e-08
2.8328e-07
1.40956e-06
5.35782e-06
1.74017e-05
5.19351e-05
0.000126819
0.00023687
0.000362056
0.000476663
0.000561367
0.000589184
0.000574089
0.000515489
0.000408974
0.000308376
0.00024267
0.00018895
0.000140714
9.56643e-05
5.94853e-05
3.46206e-05
1.97264e-05
1.17259e-05
7.99746e-06
7.79505e-06
1.66179e-05
3.00872e-05
0.000110907
0.000203462
0.000281612
0.000292499
0.000341699
0.000436716
0.000509339
0.00107088
0.00213894
0.00576596
0.0211756
0.0521706
0.0747808
0.0678827
0.0960448
0.0995691
0.113832
0.148611
0.160913
0.185952
0.168835
0.189018
0.148449
0.137573
0.148699
0.145235
0.15467
0.160388
0.166167
0.171195
0.176171
0.181171
0.18577
0.190564
0.195008
0.199588
0.203954
0.208372
0.212675
0.216986
0.221232
0.22547
0.229665
0.233849
0.238002
0.242138
0.246253
0.250344
0.25442
0.258465
0.262497
0.26649
0.27047
0.274403
0.278319
0.282179
0.286019
0.289791
0.293537
0.297207
0.300835
0.30438
0.307864
0.311281
0.314644
0.317962
0.321268
0.324579
0.327796
0.330985
0.334112
0.33719
0.34021
0.34317
0.346068
0.348899
0.351663
0.354353
0.35697
0.359508
0.361965
0.364337
0.366622
0.368816
0.370916
0.372919
0.374819
0.376618
0.378308
0.37989
0.381356
0.38271
0.38394
0.385053
0.386037
0.3869
0.387627
0.38823
0.388692
0.389026
0.389214
0.389266
0.38921
0.389074
0.388837
0.38822
0.387861
0.386837
0.386224
0.384884
0.383783
0.382489
0.381083
0.379574
0.377899
0.376153
0.374279
0.372314
0.370247
0.368086
0.365832
0.363495
0.361083
0.358602
0.35606
0.353463
0.350817
0.348125
0.345406
0.342665
0.339913
0.337158
0.334408
0.331672
0.328959
0.326276
0.323634
0.32104
0.318492
0.315991
0.313531
0.311157
0.308825
0.306487
0.304156
0.301805
0.299364
0.296755
0.293713
0.289875
0.284922
0.260564
6.50259e-08
1.81974e-06
1.21203e-05
5.03868e-05
0.000181096
0.000476688
0.00102438
0.00176893
0.00260486
0.00342362
0.00414633
0.00464693
0.00498648
0.00497663
0.00484678
0.00458584
0.00405802
0.00335372
0.00257341
0.00177216
0.00115525
0.000730495
0.000459257
0.000297597
0.000217076
0.000155001
0.000277017
0.000424082
0.00143877
0.00263933
0.00369456
0.0043203
0.00614636
0.00935756
0.016026
0.0294827
0.0539916
0.0771078
0.0992958
0.117434
0.130158
0.142566
0.152387
0.161522
0.172697
0.1839
0.195259
0.207745
0.221311
0.233705
0.246922
0.263249
0.278131
0.292523
0.308889
0.323021
0.337526
0.351138
0.364727
0.377817
0.390776
0.403469
0.416032
0.428454
0.440789
0.453056
0.465282
0.477487
0.489686
0.501897
0.514129
0.526393
0.538697
0.551045
0.563445
0.575894
0.588402
0.600958
0.613573
0.626231
0.638944
0.651691
0.664484
0.677297
0.690145
0.702998
0.715867
0.728718
0.741549
0.754319
0.767022
0.779641
0.792153
0.80453
0.816744
0.828821
0.84095
0.853015
0.865076
0.877092
0.88907
0.900996
0.912862
0.92466
0.936378
0.948008
0.95954
0.970962
0.982265
0.993435
1.00446
1.01533
1.02604
1.03656
1.04689
1.05701
1.06691
1.07657
1.08598
1.09512
1.10399
1.11256
1.12082
1.12876
1.13635
1.14359
1.15047
1.15696
1.16306
1.16875
1.17403
1.17889
1.18331
1.18728
1.1908
1.19383
1.19641
1.1985
1.20016
1.2012
1.20179
1.20201
1.20157
1.20075
1.19942
1.19764
1.1954
1.1927
1.18955
1.18596
1.18195
1.17754
1.17275
1.16758
1.16205
1.15618
1.15001
1.14355
1.13683
1.12987
1.12271
1.11535
1.10783
1.10017
1.09239
1.08452
1.07655
1.06852
1.06043
1.05232
1.04413
1.03578
1.02729
1.0186
1.00961
1.00021
0.989848
0.978608
0.965266
0.918025
1.72025e-07
5.06791e-06
3.84128e-05
0.000166848
0.000572197
0.00135944
0.00262396
0.00410571
0.00558335
0.00692733
0.00799381
0.00873647
0.00914814
0.00912924
0.00893121
0.00855933
0.00792637
0.00715146
0.00624931
0.00528403
0.00418436
0.00314423
0.0021943
0.00157204
0.00111595
0.00110034
0.00179447
0.00330333
0.00884266
0.0162021
0.0217167
0.0286767
0.0438912
0.0607284
0.0782969
0.0974639
0.113769
0.12943
0.144636
0.160381
0.176889
0.194215
0.218276
0.244205
0.272848
0.303668
0.334193
0.364413
0.393358
0.421298
0.447487
0.472151
0.495497
0.518022
0.539639
0.560232
0.580187
0.599472
0.618298
0.636682
0.654744
0.672526
0.690098
0.707504
0.724785
0.741977
0.759107
0.776202
0.793281
0.810359
0.827451
0.844567
0.861715
0.878902
0.896132
0.913407
0.93073
0.948097
0.96551
0.982963
1.00046
1.01798
1.03553
1.05311
1.0707
1.0883
1.10591
1.12352
1.14112
1.15869
1.17624
1.19378
1.21129
1.2288
1.24629
1.26378
1.28124
1.29865
1.31601
1.33329
1.35048
1.36758
1.38457
1.40144
1.41816
1.43474
1.45115
1.46737
1.4834
1.49922
1.51481
1.53015
1.54523
1.56002
1.57452
1.58869
1.60253
1.61601
1.62911
1.64181
1.65409
1.66593
1.67732
1.68821
1.69861
1.70848
1.71781
1.72658
1.73477
1.74236
1.74934
1.7557
1.76141
1.76647
1.77085
1.77454
1.77755
1.77986
1.78141
1.7822
1.7825
1.78209
1.78084
1.77891
1.77627
1.77295
1.76896
1.76432
1.75902
1.7531
1.74658
1.73947
1.7318
1.72359
1.71489
1.70571
1.69608
1.68605
1.67564
1.66488
1.65382
1.64248
1.6309
1.61912
1.60715
1.59505
1.58282
1.57048
1.55805
1.54555
1.53297
1.52029
1.50748
1.49452
1.48131
1.4678
1.4536
1.4389
1.42298
1.37962
6.81137e-07
2.05115e-05
0.000160889
0.000629626
0.0017507
0.00397345
0.00662219
0.00930362
0.0116767
0.013567
0.0147892
0.0154615
0.0154286
0.0151833
0.0145233
0.013587
0.0124864
0.0112768
0.010007
0.00871873
0.00741005
0.00611506
0.00508029
0.00359269
0.0037749
0.00601692
0.0149107
0.0297946
0.0449367
0.0569434
0.0683358
0.081339
0.0943323
0.108331
0.124827
0.143442
0.162447
0.184877
0.209976
0.238275
0.269182
0.302889
0.337793
0.373552
0.409452
0.445065
0.479739
0.51324
0.545521
0.57641
0.606105
0.634547
0.661889
0.688291
0.713807
0.738526
0.762571
0.786029
0.809
0.831555
0.853768
0.875703
0.897413
0.918948
0.940348
0.961651
0.982886
1.00408
1.02525
1.04642
1.06761
1.08882
1.11007
1.13135
1.15269
1.17407
1.1955
1.21699
1.23853
1.26011
1.28173
1.3034
1.32509
1.34682
1.36857
1.39035
1.41213
1.43393
1.45573
1.47752
1.49931
1.52108
1.54286
1.56462
1.58635
1.60804
1.62968
1.65124
1.67272
1.69409
1.71534
1.73645
1.75741
1.77819
1.79879
1.81918
1.83934
1.85927
1.87893
1.8983
1.91738
1.93614
1.95455
1.97259
1.99025
2.00749
2.02431
2.04066
2.05654
2.0719
2.08674
2.10102
2.11472
2.12781
2.14026
2.15206
2.16319
2.1736
2.18329
2.19223
2.20041
2.20779
2.21437
2.22013
2.22504
2.2291
2.2323
2.23461
2.23594
2.23649
2.23639
2.23525
2.23318
2.23024
2.22644
2.2218
2.21632
2.21003
2.20294
2.19508
2.18646
2.17712
2.16708
2.15639
2.14507
2.13316
2.1207
2.10773
2.0943
2.08043
2.06618
2.05158
2.03668
2.02151
2.00612
1.99054
1.97482
1.95897
1.94301
1.92698
1.91088
1.89471
1.87847
1.86214
1.84569
1.82912
1.81223
1.79529
1.77818
1.73924
2.55788e-06
7.63552e-05
0.000559571
0.00205079
0.00547376
0.0101272
0.014697
0.0184477
0.020975
0.0223335
0.0226378
0.0223817
0.021642
0.0204948
0.0191625
0.01771
0.0161907
0.0146526
0.0131608
0.0117746
0.010448
0.00888294
0.0082191
0.00936558
0.0168524
0.0342148
0.0586897
0.0768333
0.0870151
0.0952539
0.104344
0.116438
0.131853
0.151228
0.173368
0.198747
0.227432
0.2595
0.293991
0.330428
0.368031
0.406326
0.444662
0.48286
0.520605
0.557723
0.594015
0.629386
0.66384
0.697293
0.729816
0.761413
0.792122
0.822026
0.851173
0.879629
0.90747
0.934766
0.961589
0.988006
1.01408
1.03986
1.06541
1.09078
1.116
1.14111
1.16614
1.19113
1.21609
1.24105
1.26603
1.29103
1.31607
1.34116
1.3663
1.3915
1.41676
1.44207
1.46744
1.49287
1.51835
1.54388
1.56945
1.59505
1.62069
1.64636
1.67204
1.69774
1.72344
1.74913
1.77481
1.80047
1.82611
1.85172
1.87727
1.90276
1.92817
1.95348
1.97867
2.00373
2.02863
2.05336
2.07789
2.1022
2.12628
2.1501
2.17364
2.19687
2.21979
2.24236
2.26455
2.28636
2.30774
2.32868
2.34916
2.36913
2.38859
2.40749
2.42582
2.44354
2.46062
2.47704
2.49277
2.50777
2.52202
2.5355
2.54816
2.56
2.57097
2.58105
2.59023
2.59847
2.60577
2.61209
2.61742
2.62175
2.62507
2.62731
2.62844
2.62876
2.62811
2.62631
2.62345
2.61956
2.61466
2.60877
2.60191
2.59408
2.58532
2.57565
2.5651
2.5537
2.54149
2.5285
2.51478
2.50036
2.48529
2.46963
2.45341
2.43668
2.41949
2.4019
2.38394
2.36567
2.34713
2.32837
2.30944
2.29037
2.27119
2.25195
2.23265
2.21332
2.19397
2.17463
2.1553
2.13605
2.1168
2.0979
2.07953
2.04342
9.28773e-06
0.000263032
0.0018066
0.00621898
0.0138695
0.0207947
0.025415
0.0276798
0.0282719
0.0279912
0.0271416
0.0258828
0.0244548
0.0229213
0.0213253
0.0196935
0.0180332
0.0163038
0.0144236
0.0124556
0.0107942
0.0109095
0.0157847
0.0300664
0.0568193
0.0824738
0.0980919
0.106344
0.112141
0.121242
0.134961
0.15343
0.175634
0.202094
0.23183
0.264804
0.300176
0.337332
0.375549
0.4144
0.453509
0.492673
0.5317
0.570518
0.609015
0.647113
0.68473
0.7218
0.758287
0.794122
0.829298
0.8638
0.89763
0.930809
0.963362
0.995326
1.02674
1.05767
1.08814
1.11823
1.14798
1.17745
1.20668
1.23571
1.2646
1.29337
1.32206
1.3507
1.37932
1.40794
1.43657
1.46523
1.49394
1.5227
1.55152
1.58041
1.60937
1.6384
1.66749
1.69665
1.72586
1.75514
1.78446
1.81383
1.84323
1.87266
1.90212
1.93158
1.96105
1.9905
2.01992
2.04931
2.07866
2.10796
2.13719
2.16633
2.19536
2.22426
2.25302
2.28162
2.31002
2.33822
2.36617
2.39386
2.42127
2.44837
2.47514
2.50155
2.52757
2.55317
2.57834
2.60305
2.62725
2.65094
2.67408
2.69663
2.71858
2.73988
2.76051
2.78044
2.79963
2.81805
2.83567
2.85246
2.86838
2.8834
2.89749
2.91062
2.92277
2.9339
2.94398
2.953
2.96092
2.96773
2.97341
2.97795
2.98134
2.98347
2.9844
2.98441
2.98316
2.98068
2.97701
2.97218
2.96619
2.95906
2.95082
2.94149
2.9311
2.91966
2.90722
2.89382
2.87948
2.86426
2.8482
2.83135
2.81376
2.79547
2.77656
2.75706
2.73703
2.71654
2.69563
2.67436
2.65278
2.63096
2.60893
2.58675
2.56447
2.54213
2.51977
2.49741
2.4751
2.45288
2.43081
2.40899
2.38744
2.36655
2.34638
2.31208
3.34125e-05
0.000860178
0.00529123
0.0158357
0.0254875
0.0306912
0.032672
0.0328415
0.0322822
0.0310269
0.0294269
0.0276766
0.0258689
0.024056
0.0222735
0.0205699
0.019077
0.0179639
0.0176433
0.0186202
0.0225878
0.0310026
0.0493622
0.0758177
0.097488
0.110933
0.117588
0.123909
0.134635
0.150884
0.171646
0.197061
0.226268
0.258777
0.293591
0.330197
0.367891
0.40627
0.445017
0.483977
0.523049
0.562199
0.601382
0.640579
0.679743
0.718822
0.757747
0.796443
0.834851
0.872905
0.910554
0.947757
0.984486
1.02073
1.05648
1.09175
1.12656
1.16094
1.19493
1.22855
1.26187
1.29491
1.32772
1.36034
1.39282
1.42519
1.45747
1.48971
1.52193
1.55415
1.58639
1.61867
1.651
1.6834
1.71586
1.7484
1.78102
1.81372
1.84649
1.87934
1.91225
1.94523
1.97826
2.01135
2.04447
2.07762
2.11079
2.14397
2.17714
2.21028
2.24339
2.27645
2.30945
2.34239
2.37523
2.40796
2.44055
2.473
2.50528
2.53736
2.56921
2.60081
2.63214
2.66316
2.69384
2.72417
2.7541
2.78361
2.81267
2.84125
2.86932
2.89685
2.92381
2.95017
2.97589
3.00094
3.0253
3.04891
3.07177
3.09381
3.11502
3.13536
3.15479
3.17327
3.19077
3.20726
3.22269
3.23704
3.25028
3.26237
3.27329
3.283
3.29149
3.29872
3.30468
3.30936
3.31275
3.31473
3.31545
3.315
3.31316
3.30997
3.30546
3.29963
3.29252
3.28414
3.27451
3.26366
3.25161
3.23841
3.22408
3.20867
3.19222
3.17478
3.1564
3.13712
3.11702
3.09614
3.07455
3.05231
3.02947
3.00611
2.98227
2.95804
2.93346
2.9086
2.88352
2.85828
2.83294
2.80756
2.78218
2.75684
2.73161
2.70656
2.68178
2.6574
2.6335
2.61046
2.58822
2.5546
0.00010558
0.00246766
0.0132277
0.027279
0.0344204
0.0371497
0.0375379
0.0367983
0.0351588
0.0331376
0.0309881
0.0288351
0.0267355
0.0247032
0.0227757
0.0212256
0.0203187
0.0203795
0.0228257
0.0293483
0.043424
0.0650771
0.0882771
0.106328
0.117486
0.124248
0.132139
0.145168
0.163276
0.18647
0.213872
0.24484
0.278334
0.313655
0.350132
0.387385
0.425094
0.463121
0.501395
0.539912
0.578681
0.617723
0.657044
0.696643
0.736489
0.776525
0.816688
0.856909
0.89711
0.937217
0.977157
1.01687
1.0563
1.09542
1.13419
1.17261
1.21066
1.24837
1.28574
1.32281
1.35961
1.39616
1.4325
1.46867
1.50471
1.54064
1.57651
1.61234
1.64815
1.68397
1.71983
1.75573
1.79169
1.82773
1.86384
1.90004
1.93633
1.9727
2.00916
2.0457
2.08231
2.11899
2.15572
2.19251
2.22933
2.26618
2.30305
2.33992
2.37677
2.41358
2.45034
2.48704
2.52367
2.56021
2.59664
2.63293
2.66907
2.70504
2.7408
2.77633
2.8116
2.84658
2.88124
2.91555
2.94948
2.98298
3.01604
3.04861
3.08066
3.11217
3.14308
3.17338
3.20302
3.23197
3.26021
3.28768
3.31436
3.34021
3.3652
3.38928
3.41242
3.43458
3.45572
3.47581
3.49479
3.51265
3.52933
3.54481
3.55905
3.57202
3.58367
3.594
3.60295
3.61052
3.61668
3.62142
3.62474
3.62651
3.62694
3.62596
3.62348
3.61953
3.61411
3.60725
3.59897
3.58929
3.57823
3.56583
3.55211
3.53712
3.52088
3.50346
3.48488
3.46522
3.44451
3.42282
3.40021
3.37675
3.35249
3.32752
3.30188
3.27567
3.24893
3.22175
3.19419
3.16632
3.13821
3.10993
3.08156
3.05314
3.02476
2.99646
2.96833
2.94046
2.91295
2.88597
2.85963
2.83429
2.80978
2.77598
0.000275754
0.00599498
0.0241373
0.0365719
0.0416056
0.0428088
0.0420295
0.0400896
0.0376122
0.0349883
0.032459
0.030195
0.0283605
0.0270486
0.0264594
0.02681
0.0288612
0.0331754
0.0424276
0.0586402
0.0777215
0.0960497
0.110661
0.120315
0.127908
0.137943
0.152687
0.172772
0.197449
0.226093
0.257572
0.291102
0.325937
0.361631
0.397869
0.434497
0.471436
0.508692
0.5463
0.584314
0.622782
0.661751
0.701244
0.741255
0.781753
0.822698
0.864025
0.905663
0.94753
0.989542
1.03162
1.07367
1.11565
1.15748
1.19912
1.24054
1.28172
1.32265
1.36333
1.40378
1.444
1.48402
1.52387
1.56358
1.60317
1.64269
1.68215
1.72159
1.76103
1.80049
1.83999
1.87955
1.91918
1.9589
1.9987
2.03859
2.07858
2.11865
2.15882
2.19907
2.23939
2.27978
2.32022
2.36071
2.40123
2.44177
2.48232
2.52285
2.56336
2.60381
2.64419
2.68449
2.72471
2.76481
2.80479
2.8446
2.88424
2.92366
2.96286
3.00179
3.04043
3.07874
3.11668
3.15422
3.19132
3.22795
3.26406
3.29962
3.33459
3.36893
3.40261
3.43558
3.46782
3.49927
3.52991
3.5597
3.5886
3.61657
3.64357
3.66956
3.69451
3.71836
3.74109
3.76265
3.78299
3.80209
3.81989
3.83637
3.85148
3.8652
3.87747
3.88828
3.89759
3.90538
3.91163
3.91632
3.91944
3.92095
3.92096
3.91937
3.91617
3.91136
3.90497
3.89701
3.88751
3.87648
3.86396
3.84997
3.83455
3.81775
3.7996
3.78015
3.75945
3.73756
3.71454
3.69044
3.66535
3.63932
3.61242
3.58474
3.55634
3.5273
3.49769
3.4676
3.43709
3.40625
3.37515
3.34387
3.31248
3.28107
3.24971
3.21848
3.18747
3.15678
3.12655
3.09694
3.06808
3.04032
3.01342
2.97881
0.000588839
0.0120931
0.0343683
0.0447258
0.0481271
0.048101
0.0462032
0.0433807
0.0402584
0.0372468
0.0346105
0.0325031
0.0314035
0.031071
0.032299
0.0359506
0.0433719
0.0550041
0.0701829
0.0858545
0.100401
0.111966
0.12097
0.129811
0.141766
0.158156
0.179528
0.205175
0.234068
0.265347
0.298162
0.331995
0.366466
0.40138
0.436644
0.472251
0.508232
0.544661
0.58161
0.619161
0.657379
0.696317
0.735989
0.776401
0.817529
0.859334
0.901755
0.94472
0.988146
1.03194
1.07602
1.1203
1.16468
1.2091
1.2535
1.29783
1.34204
1.38612
1.43004
1.47382
1.51744
1.56092
1.60428
1.64753
1.69071
1.73384
1.77694
1.82004
1.86315
1.9063
1.94951
1.99278
2.03614
2.07958
2.12312
2.16675
2.21048
2.2543
2.2982
2.34219
2.38624
2.43034
2.4745
2.51868
2.56288
2.60709
2.65128
2.69544
2.73956
2.78359
2.82753
2.87137
2.9151
2.95868
3.00211
3.04536
3.0884
3.1312
3.17373
3.21597
3.25787
3.2994
3.34052
3.38118
3.42135
3.46099
3.50004
3.53847
3.57623
3.61329
3.64959
3.6851
3.71978
3.75359
3.78648
3.81842
3.84937
3.87928
3.90812
3.93585
3.96242
3.98779
4.01192
4.03477
4.05629
4.07644
4.09519
4.11249
4.1283
4.14259
4.15532
4.16646
4.17596
4.18382
4.19001
4.1945
4.1973
4.1984
4.19785
4.19557
4.19153
4.18577
4.17832
4.16918
4.15839
4.14595
4.13191
4.1163
4.09915
4.08051
4.06043
4.03895
4.01613
3.99203
3.96671
3.94023
3.91268
3.88412
3.85462
3.82427
3.79315
3.76134
3.72891
3.69596
3.66257
3.62881
3.59478
3.56056
3.52624
3.4919
3.45763
3.42352
3.38968
3.35621
3.32328
3.29104
3.25962
3.22938
3.20002
3.16424
0.00105421
0.0202856
0.0434009
0.0524101
0.0546475
0.0536645
0.0509091
0.0474813
0.0441032
0.0412366
0.0393493
0.0386892
0.0392538
0.0420107
0.0473461
0.0554918
0.0660727
0.0782721
0.0907606
0.102028
0.111709
0.12061
0.130889
0.144317
0.162151
0.184312
0.210195
0.238789
0.269244
0.300938
0.333402
0.366386
0.399751
0.433466
0.467549
0.502068
0.537104
0.572755
0.609115
0.646275
0.684303
0.723243
0.763121
0.803946
0.845697
0.888339
0.931814
0.976052
1.02097
1.06647
1.11247
1.15887
1.20557
1.2525
1.29957
1.34673
1.39392
1.4411
1.48824
1.53532
1.58234
1.62929
1.67617
1.72301
1.76982
1.81661
1.8634
1.91021
1.95706
2.00397
2.05094
2.098
2.14514
2.19238
2.23971
2.28714
2.33465
2.38225
2.42992
2.47766
2.52545
2.57327
2.62111
2.66897
2.71681
2.76462
2.81239
2.8601
2.90773
2.95525
3.00263
3.04987
3.09697
3.1439
3.19063
3.23715
3.28342
3.32942
3.37512
3.42048
3.46547
3.51004
3.55415
3.59775
3.6408
3.68325
3.72505
3.76616
3.80651
3.84607
3.88479
3.92262
3.95952
3.99545
4.03036
4.06422
4.09697
4.12859
4.15902
4.18823
4.21617
4.2428
4.26808
4.29196
4.3144
4.33537
4.35481
4.37269
4.38896
4.4036
4.41656
4.4278
4.4373
4.44503
4.45096
4.45508
4.45738
4.45788
4.45667
4.45352
4.44852
4.4417
4.43308
4.42267
4.41051
4.3966
4.381
4.36372
4.34482
4.32434
4.30232
4.27883
4.25391
4.22763
4.20005
4.17125
4.1413
4.11027
4.07825
4.04532
4.01156
3.97706
3.94191
3.9062
3.87002
3.83345
3.79659
3.75954
3.72238
3.68521
3.64813
3.61123
3.57464
3.53848
3.50289
3.46806
3.4341
3.40137
3.36955
3.3324
0.00166597
0.0282723
0.0519719
0.0601762
0.0617696
0.0600586
0.0567577
0.0532244
0.0502946
0.0487479
0.0483528
0.0495289
0.0526966
0.0579314
0.0651394
0.0738896
0.0834429
0.0930065
0.102035
0.110716
0.120104
0.131671
0.146481
0.165265
0.187821
0.213416
0.241237
0.270538
0.3008
0.33169
0.36301
0.39469
0.426724
0.459164
0.492086
0.525591
0.559783
0.594773
0.630663
0.66754
0.705468
0.744498
0.784656
0.825953
0.868373
0.911881
0.956425
1.00194
1.04833
1.09552
1.1434
1.19188
1.24086
1.29025
1.33996
1.38992
1.44005
1.49031
1.54065
1.59105
1.64147
1.6919
1.74235
1.79282
1.8433
1.89381
1.94436
1.99497
2.04564
2.09638
2.1472
2.19812
2.24912
2.30021
2.35139
2.40265
2.45399
2.50538
2.55683
2.60831
2.65981
2.71131
2.76279
2.81424
2.86563
2.91694
2.96816
3.01927
3.07025
3.12107
3.17169
3.22213
3.27237
3.32239
3.37218
3.42171
3.47095
3.51987
3.56845
3.61665
3.66443
3.71175
3.75856
3.80481
3.85045
3.89542
3.93966
3.98313
4.02577
4.06752
4.10834
4.14818
4.18698
4.2247
4.2613
4.29673
4.33095
4.36393
4.3956
4.42595
4.45491
4.48245
4.50853
4.53311
4.55614
4.57757
4.59738
4.61553
4.63196
4.64664
4.65954
4.67062
4.67984
4.68718
4.69262
4.69613
4.69773
4.69747
4.69538
4.69119
4.68508
4.67706
4.66716
4.65539
4.64177
4.62633
4.60912
4.59016
4.56949
4.54717
4.52325
4.49778
4.47081
4.44242
4.41267
4.38163
4.34939
4.31601
4.28159
4.2462
4.20994
4.17291
4.13518
4.09686
4.05804
4.01882
3.9793
3.93956
3.89972
3.85988
3.82014
3.7806
3.7414
3.70266
3.66454
3.62721
3.59079
3.55562
3.52139
3.48284
0.00258979
0.0356249
0.0607335
0.0685346
0.0696665
0.0673079
0.0637046
0.0604704
0.0587166
0.0582041
0.0591289
0.0619129
0.0663022
0.0720592
0.0788232
0.0861403
0.0936732
0.101448
0.110005
0.120195
0.132912
0.148865
0.168241
0.190763
0.215746
0.24249
0.270412
0.299098
0.328296
0.357883
0.387817
0.418128
0.448877
0.48016
0.512082
0.544762
0.578313
0.612852
0.648472
0.685259
0.723276
0.762574
0.803178
0.845098
0.888318
0.932807
0.978514
1.02538
1.07331
1.12222
1.17202
1.2226
1.27386
1.3257
1.37804
1.43078
1.48386
1.5372
1.59075
1.64448
1.69834
1.75231
1.80637
1.86053
1.91476
1.96907
2.02346
2.07793
2.13249
2.18713
2.24186
2.29668
2.35159
2.40657
2.46161
2.51672
2.57186
2.62703
2.68221
2.73738
2.79251
2.84758
2.90257
2.95746
3.01223
3.06685
3.1213
3.17557
3.22964
3.28347
3.33704
3.39034
3.44338
3.49614
3.5486
3.60073
3.65253
3.70397
3.75501
3.80562
3.85576
3.90539
3.95446
4.00292
4.0507
4.09774
4.14399
4.18939
4.23387
4.27738
4.31986
4.36124
4.4015
4.44056
4.47839
4.51494
4.55017
4.58404
4.61651
4.64753
4.67706
4.70506
4.7315
4.75632
4.7795
4.80099
4.82075
4.83876
4.85495
4.86931
4.88178
4.89235
4.90097
4.90762
4.91227
4.91492
4.91556
4.91437
4.91108
4.90568
4.8983
4.88895
4.87765
4.86441
4.84926
4.83224
4.81339
4.79273
4.77032
4.7462
4.72042
4.69305
4.66413
4.63374
4.60195
4.56882
4.53443
4.49888
4.46223
4.42458
4.38603
4.34666
4.30657
4.26586
4.22463
4.18298
4.14101
4.09883
4.05654
4.01425
3.97206
3.9301
3.88849
3.84737
3.80689
3.76723
3.72848
3.69102
3.65449
3.61462
0.00365793
0.043972
0.0699275
0.0773505
0.0780608
0.0749899
0.0711447
0.068557
0.0675515
0.0675263
0.0693662
0.0725309
0.0767645
0.0818151
0.0875294
0.0939375
0.101385
0.11036
0.121504
0.13527
0.152049
0.171727
0.193925
0.21808
0.243614
0.270079
0.297164
0.32469
0.352577
0.380825
0.409477
0.438618
0.468347
0.498783
0.530042
0.562255
0.595532
0.629981
0.665692
0.702745
0.741198
0.781097
0.822457
0.865282
0.909557
0.95525
1.00231
1.05068
1.10027
1.15101
1.2028
1.25554
1.30912
1.36346
1.41846
1.47402
1.53007
1.58653
1.64334
1.70044
1.75779
1.81534
1.87307
1.93096
1.98899
2.04714
2.1054
2.16378
2.22225
2.28082
2.33947
2.39819
2.45697
2.5158
2.57467
2.63354
2.6924
2.75123
2.81001
2.86869
2.92727
2.98571
3.04398
3.10205
3.1599
3.21751
3.27485
3.33191
3.38866
3.44508
3.50113
3.55683
3.61215
3.66712
3.7217
3.77588
3.82966
3.88301
3.9359
3.98831
4.0402
4.09153
4.14224
4.19228
4.24159
4.2901
4.33775
4.38446
4.43018
4.47483
4.51836
4.56071
4.60181
4.64162
4.68009
4.71716
4.75281
4.78699
4.81966
4.85077
4.8803
4.9082
4.93442
4.95895
4.98174
5.00276
5.02197
5.03934
5.05483
5.06841
5.08003
5.08968
5.09732
5.10292
5.10645
5.1079
5.10741
5.10493
5.1002
5.09341
5.08459
5.07375
5.06092
5.04612
5.02939
5.01075
4.99025
4.96792
4.94381
4.91796
4.89043
4.86128
4.83056
4.79834
4.76468
4.72966
4.69337
4.65587
4.61725
4.57761
4.53703
4.49561
4.45345
4.41065
4.36731
4.32354
4.27944
4.23511
4.19068
4.14624
4.10191
4.05782
4.01408
3.97085
3.92826
3.88651
3.84567
3.80611
3.76746
3.72645
0.00480719
0.0522136
0.0790449
0.0860903
0.0862723
0.0821906
0.0778559
0.0753829
0.0744983
0.0745424
0.0764092
0.0793176
0.0832506
0.088241
0.0945338
0.102439
0.112334
0.124544
0.139342
0.156718
0.176496
0.198238
0.221493
0.245833
0.27092
0.296537
0.32256
0.348959
0.375754
0.403022
0.430848
0.459348
0.488635
0.518841
0.550082
0.582474
0.616112
0.651093
0.687493
0.725379
0.764796
0.805776
0.848331
0.892463
0.938153
0.985372
1.03407
1.08419
1.13567
1.18842
1.24235
1.29738
1.35341
1.41033
1.46807
1.52651
1.58558
1.64519
1.70527
1.76576
1.82659
1.88772
1.9491
2.01071
2.0725
2.13446
2.19656
2.25878
2.3211
2.3835
2.44595
2.50845
2.57097
2.63348
2.69596
2.75838
2.82072
2.88293
2.945
3.00688
3.06854
3.12995
3.19108
3.25188
3.31235
3.37243
3.43212
3.49139
3.55023
3.60861
3.66649
3.72388
3.78079
3.83722
3.89316
3.94861
4.00357
4.05802
4.11195
4.16533
4.21814
4.27032
4.32184
4.37263
4.42263
4.47178
4.52001
4.56724
4.61339
4.6584
4.7022
4.74472
4.7859
4.82569
4.86404
4.90089
4.93622
4.96998
5.00214
5.03264
5.06147
5.08857
5.11392
5.1375
5.15927
5.1792
5.19727
5.21344
5.22767
5.23995
5.25024
5.25851
5.26473
5.26889
5.27093
5.2709
5.26901
5.26479
5.25846
5.25007
5.23964
5.22719
5.21273
5.19631
5.17796
5.1577
5.13559
5.11165
5.08593
5.05849
5.02936
4.99861
4.9663
4.93248
4.89722
4.8606
4.82268
4.78356
4.7433
4.70201
4.65976
4.61666
4.57281
4.52831
4.48326
4.43776
4.39192
4.34585
4.29967
4.25348
4.20739
4.16154
4.11605
4.07106
4.02672
3.98319
3.94055
3.8992
3.85867
3.8168
0.00607078
0.0604106
0.0878147
0.0944819
0.0937128
0.0884216
0.0834301
0.0808456
0.0799268
0.0800562
0.0822295
0.0857604
0.0908838
0.0977336
0.10652
0.117424
0.130602
0.14613
0.16387
0.183534
0.204788
0.227269
0.25068
0.27478
0.299413
0.324509
0.350055
0.376102
0.402712
0.429971
0.457978
0.486856
0.516719
0.54769
0.579868
0.613361
0.64825
0.684617
0.72252
0.762008
0.803109
0.845842
0.89021
0.936209
0.983817
1.03301
1.08374
1.13596
1.18961
1.24462
1.3009
1.35838
1.41695
1.47653
1.53702
1.59833
1.66038
1.72308
1.78635
1.85011
1.91431
1.97888
2.04377
2.10892
2.17429
2.23985
2.30555
2.37136
2.43724
2.50317
2.56911
2.63502
2.70088
2.76665
2.83229
2.89777
2.96305
3.0281
3.09287
3.15733
3.22143
3.28514
3.34841
3.41121
3.47351
3.53528
3.59648
3.65711
3.71715
3.77657
3.83534
3.89347
3.95098
4.00786
4.06414
4.11982
4.1749
4.22938
4.28326
4.33653
4.38916
4.44112
4.49235
4.54282
4.59245
4.64118
4.68894
4.73565
4.78122
4.82558
4.86866
4.91039
4.9507
4.98955
5.02685
5.06258
5.09669
5.12918
5.15999
5.18905
5.21636
5.24188
5.26559
5.28748
5.30751
5.32567
5.34193
5.35627
5.36865
5.37907
5.38751
5.39391
5.39826
5.40056
5.40072
5.39907
5.39512
5.38904
5.38091
5.37075
5.35857
5.34439
5.32826
5.3102
5.29024
5.26842
5.24478
5.21936
5.19221
5.16336
5.13287
5.10078
5.06716
5.03206
4.99554
4.95768
4.91854
4.87819
4.83673
4.79422
4.75076
4.70645
4.66139
4.61567
4.5694
4.52267
4.47559
4.42828
4.38084
4.33339
4.28604
4.23891
4.19214
4.14584
4.10016
4.05528
4.01123
3.96847
3.92637
3.88402
0.00757373
0.0678343
0.0956089
0.101781
0.0995293
0.0927833
0.0873439
0.0846215
0.0840839
0.0852273
0.088965
0.094523
0.102084
0.111659
0.123379
0.137478
0.154207
0.172947
0.193393
0.215252