/*--------------------------------*- C++ -*----------------------------------*\
  =========                 |
  \\      /  F ield         | OpenFOAM: The Open Source CFD Toolbox
   \\    /   O peration     | Website:  https://openfoam.org
    \\  /    A nd           | Version:  8
     \\/     M anipulation  |
\*---------------------------------------------------------------------------*/
FoamFile
{
    version     2.0;
    format      ascii;
    class       volScalarField;
    location    "1100";
    object      omega;
}
// * * * * * * * * * * * * * * * * * * * * * * * * * * * * * * * * * * * * * //

dimensions      [0 0 -1 0 0 0 0];

internalField   nonuniform List<scalar> 
12225
(
32582.3
32582.3
32582.3
41645.9
32582.3
58983.5
61308.4
81995.3
64651
54437.5
44430.5
40912.1
48144.4
43669.9
40706
39114.7
41189.8
32582.3
3105.12
5116.2
7480.64
10412.3
10815.1
13175.3
12105.5
20127.1
17626
15850.7
14748.5
14503.3
14989.9
15393.6
15663.9
15331.8
15735.3
15121
798.528
1221.15
1929.21
2758.92
3125.09
3622.93
3655.31
4320.04
4488.29
4610.37
4716.46
4882.2
5011.72
5193.98
5342.32
5481.87
5610.33
5727.73
417.369
665.014
907.593
1114.12
1246.55
1355.76
1414.72
1530.01
1613.26
1708.08
1784.67
1877.88
1941.94
2029.56
2081.33
2156.04
2206.6
2277.59
418.775
485.35
577.012
653.412
699.118
733.04
758.452
797.757
829.483
872.233
904.886
947.843
976.295
1016.41
1039.47
1074.96
1093.2
1128.35
432.186
446.135
467.797
498.719
519.971
535.408
541.322
556.588
568.915
587.304
601.179
620.539
633.575
652.359
663.446
680.925
689.787
706.734
437.813
437.976
440.629
448.654
455.82
462.483
463.682
468.475
472.537
479.596
484.867
492.889
498.4
506.7
511.779
519.956
524.177
532.263
438.693
436.977
435.856
436.875
438.174
440.66
441.438
441.604
442.447
444.773
446.535
449.711
451.888
455.52
457.772
461.595
463.612
467.643
438.977
436.932
434.974
433.77
432.734
432.228
431.536
431.043
430.969
431.153
431.133
431.648
432.078
433.11
433.768
435.106
435.82
437.492
439.043
436.923
434.887
433.082
431.397
429.927
428.534
427.307
426.203
425.339
424.476
423.881
423.278
422.953
422.598
422.465
422.307
422.431
439.047
436.921
434.883
432.981
431.161
429.478
427.858
426.373
424.938
423.655
422.404
421.312
420.24
419.328
418.417
417.678
416.887
416.314
439.046
436.916
434.88
432.962
431.126
429.402
427.743
426.189
424.691
423.29
421.941
420.686
419.473
418.355
417.267
416.274
415.299
414.419
439.047
436.911
434.878
432.951
431.12
429.377
427.721
426.145
424.644
423.217
421.854
420.561
419.324
418.151
417.028
415.964
414.945
413.98
439.047
436.909
434.875
432.948
431.11
429.369
427.705
426.129
424.623
423.193
421.827
420.528
419.286
418.103
416.974
415.897
414.869
413.887
439.048
436.906
434.875
432.943
431.107
429.36
427.698
426.117
424.611
423.178
421.811
420.508
419.265
418.08
416.948
415.869
414.837
413.853
439.046
436.907
434.872
432.94
431.102
429.354
427.692
426.109
424.602
423.166
421.799
420.494
419.25
418.063
416.93
415.848
414.816
413.83
439.046
436.906
434.87
432.937
431.098
429.35
427.686
426.103
424.595
423.158
421.789
420.483
419.239
418.05
416.917
415.834
414.801
413.813
439.049
436.903
434.872
432.931
431.099
429.343
427.686
426.096
424.594
423.152
421.787
420.477
419.235
418.043
416.911
415.827
414.794
413.805
439.046
436.907
434.867
432.937
431.093
429.35
427.68
426.102
424.589
423.157
421.783
420.482
419.233
418.047
416.911
415.83
414.794
413.808
439.048
436.906
434.872
432.935
431.1
429.348
427.688
426.102
424.597
423.158
421.792
420.484
419.241
418.051
416.92
415.835
414.804
413.815
439.047
436.907
434.873
432.939
431.102
429.355
427.693
426.109
424.604
423.167
421.801
420.496
419.255
418.069
416.939
415.86
414.832
413.849
439.051
436.906
434.876
432.941
431.109
429.36
427.704
426.124
424.626
423.199
421.846
420.559
419.341
418.18
417.084
416.037
415.052
414.108
439.045
436.905
434.881
432.941
431.124
429.382
427.778
426.241
424.838
423.502
422.297
421.154
420.133
419.159
418.308
417.474
416.771
416.057
439.007
436.895
434.869
432.982
431.319
429.826
428.679
427.612
426.88
426.236
425.912
425.645
425.635
425.691
425.859
426.068
426.469
426.713
438.583
436.867
435.218
434.439
434.192
434.737
436.259
437.886
440.383
442.866
446.098
449.103
452.708
455.858
459.548
462.582
466.219
469.026
435.584
437.127
443.747
447.543
456.428
466.626
478.911
490.569
503.738
515.841
529.224
541.03
553.898
564.725
576.609
586.115
596.922
605.12
411.563
459.943
507.509
532.774
578.227
622.181
667.846
708.632
751.133
788.203
827.333
860.259
895.261
923.328
954.067
977.377
1004.15
1023.36
336.186
688.702
957.925
1033.65
1196.85
1350.61
1500.97
1630.97
1758.42
1864.93
1972.49
2058.77
2148.4
2216.48
2291.4
2344.77
2407.97
2450.33
575.437
2522.32
3562.95
4281.47
4925.01
5464.66
5925.65
6296.91
6615.01
6864.67
7087.37
7255.56
7416.79
7530.43
7652.01
7728.32
7826.49
7878.39
19609.9
23001.7
25095.2
25590.3
26005.3
26037.9
25982.7
25848.4
25644.5
25425.8
25208.3
24998.5
24801.1
24616.4
24445.6
24287.7
24142.2
24008.5
11463.3
2494.65
2496.87
2499.12
2501.38
2503.67
2505.98
2508.3
2510.65
2513.02
2515.42
2517.83
2520.27
2522.73
2525.21
2527.72
2530.25
2532.8
2535.37
2537.97
2540.6
2543.25
2545.92
2548.62
2551.34
2554.09
2556.87
2559.67
2562.5
2565.35
2568.23
2571.14
2574.08
2577.04
2580.04
2583.06
2586.11
2589.19
2592.3
2595.43
2598.6
3069.63
3186.71
3278.91
3302.16
3224.14
3159.3
2621.66
3218.34
2628.54
2632.03
3189.84
3182.76
3143.89
3165.41
3241.37
3304.78
3358.37
3407.78
3459.14
3504.81
3552.54
3596.3
3640.94
3683.35
3725.77
3766.94
3807.82
3847.87
3887.58
3926.67
3965.42
4003.68
4041.58
4079.11
4116.24
4153.08
4189.48
4225.62
4261.29
4296.71
4331.61
4366.27
4400.36
4434.18
4467.38
4500.28
4532.52
4564.35
4595.5
4626.11
4656.16
4685.76
4714.96
4744.01
4773.13
4801.49
4829.64
4857.31
4884.6
4911.47
4937.9
4963.9
4989.41
5014.45
5038.99
5063.02
5086.52
5109.47
5131.86
5153.67
5174.88
5195.46
5215.43
5234.72
5253.36
5271.29
5288.54
5305.03
5320.81
5335.79
5350.04
5363.44
5376.09
5387.86
5398.85
5408.94
5418.21
5426.55
5434.05
5440.95
5447.31
5451.52
5457.06
5458.54
5462.99
5461.69
5463.58
5461.97
5460.92
5458.63
5455.8
5451.79
5447.34
5441.93
5435.9
5429.14
5421.68
5413.54
5404.76
5395.4
5385.49
5375.09
5364.23
5352.96
5341.27
5329.33
5317.2
5304.95
5292.64
5280.33
5268.09
5255.99
5244.09
5232.47
5221.21
5210.28
5199.7
5189.41
5179.8
5170.51
5161.13
5151.77
5142.2
5131.81
5119.9
5104.16
5081.31
5048.44
4838.03
11463.3
2015.65
993.034
793.095
678.679
641
651.039
649.004
638.281
618.259
596.307
575.526
560.388
547.234
545.176
561.564
609.77
699.392
803.39
900.196
976.591
1005.67
987.439
938.725
819.454
694.261
591.419
523.714
498.867
508.807
522.528
593.445
678.722
988.129
1403.97
1778.82
1991.03
2126.23
2160.67
2172.68
2150.02
2138.69
2070.17
2003.88
1931.97
1855.67
1772.76
1683.69
1657.89
1600.44
1584.17
1574.92
1545.66
1523.34
1510.68
1504.95
1502.95
1500.15
1501.18
1503.56
1506.5
1510.95
1515.63
1521.29
1527.19
1533.65
1540.33
1547.33
1554.48
1561.82
1569.25
1576.78
1584.35
1591.97
1599.59
1607.21
1614.8
1622.35
1629.85
1637.28
1644.65
1651.92
1659.1
1666.16
1673.12
1679.94
1686.65
1693.23
1699.7
1706.08
1712.45
1718.89
1725.52
1732.54
1740.26
1748.78
1756.75
1764.82
1772.67
1780.45
1788.07
1795.57
1802.93
1810.16
1817.24
1824.17
1830.94
1837.56
1844.02
1850.32
1856.44
1862.39
1868.16
1873.74
1879.14
1884.35
1889.36
1894.17
1898.78
1903.19
1907.38
1911.36
1915.12
1918.67
1922
1925.1
1927.98
1930.63
1933.07
1935.28
1937.31
1939.09
1940.57
1941.95
1942.87
1943.82
1944.17
1944.69
1944.71
1944.73
1944.4
1943.88
1943.11
1942.17
1940.99
1939.63
1938.06
1936.31
1934.38
1932.29
1929.99
1927.53
1924.92
1922.16
1919.28
1916.27
1913.17
1910
1906.76
1903.47
1900.14
1896.8
1893.44
1890.1
1886.76
1883.45
1880.2
1877.01
1873.93
1871
1868.18
1865.44
1862.78
1860.29
1857.95
1855.91
1854.19
1853.61
1854.33
1857.91
11463.3
2026.84
847.92
711.132
748.118
745.092
713.303
655.059
596.333
541.036
492.038
450.663
417.018
390.751
373.023
358.627
357.695
363.569
379.641
411.593
453.539
492.682
521.023
519.488
498.709
458.561
416.508
418.754
460.135
582.377
771.081
1051.9
1275.44
1467.86
1615.39
1685.85
1707.18
1646.71
1582.13
1503.22
1427.99
1356.05
1288.57
1230.18
1181.62
1139.6
1103.7
1076.27
1057.11
1041.63
1032.4
1022.9
1018.03
1011.75
1010.35
1009.82
1010.17
1011.64
1013.71
1016.34
1019.33
1022.73
1026.36
1030.26
1034.32
1038.56
1042.9
1047.35
1051.87
1056.45
1061.08
1065.74
1070.41
1075.1
1079.79
1084.47
1089.15
1093.81
1098.44
1103.05
1107.63
1112.18
1116.69
1121.17
1125.62
1130.04
1134.43
1138.81
1143.2
1147.6
1152.04
1156.56
1161.19
1165.94
1170.79
1175.64
1180.36
1185.05
1189.65
1194.17
1198.61
1202.97
1207.25
1211.44
1215.53
1219.54
1223.45
1227.26
1230.97
1234.58
1238.08
1241.47
1244.75
1247.92
1250.97
1253.9
1256.71
1259.4
1261.96
1264.39
1266.69
1268.86
1270.9
1272.8
1274.56
1276.19
1277.67
1279.02
1280.23
1281.29
1282.22
1283
1283.62
1284.11
1284.43
1284.62
1284.62
1284.58
1284.28
1283.91
1283.37
1282.71
1281.9
1280.96
1279.88
1278.66
1277.32
1275.85
1274.26
1272.55
1270.73
1268.79
1266.76
1264.62
1262.4
1260.09
1257.7
1255.26
1252.75
1250.19
1247.58
1244.94
1242.26
1239.57
1236.85
1234.12
1231.4
1228.68
1226
1223.37
1220.81
1218.32
1215.91
1213.64
1211.58
1209.89
1208.77
1209.08
1211.57
1223.01
11463.3
2114.56
1174.72
1100.26
976.66
844.466
727.771
623.989
536.69
466.072
411.608
370.916
341.041
319.435
304.338
294.231
287.927
288.146
291.383
300.195
317.871
341.97
366.338
380.074
394.647
441.975
519.245
665.327
865.885
1072.49
1240.13
1325.91
1392.48
1430.85
1444.27
1347.15
1264.58
1195.53
1127.56
1067.74
1015.96
971.76
935.126
905.382
881.953
863.114
848.377
837.713
829.746
824.459
821.837
818.722
818.002
817.48
818.439
819.867
821.78
824.127
826.766
829.668
832.769
836.05
839.465
843
846.625
850.33
854.096
857.913
861.768
865.655
869.565
873.492
877.43
881.375
885.322
889.267
893.209
897.142
901.067
904.98
908.881
912.767
916.641
920.502
924.352
928.194
932.031
935.87
939.714
943.567
947.437
951.33
955.244
959.171
963.079
966.939
970.734
974.477
978.155
981.772
985.321
988.802
992.213
995.552
998.815
1002
1005.11
1008.13
1011.07
1013.92
1016.69
1019.36
1021.93
1024.41
1026.79
1029.07
1031.24
1033.31
1035.27
1037.11
1038.85
1040.47
1041.97
1043.36
1044.62
1045.76
1046.78
1047.68
1048.44
1049.08
1049.59
1049.97
1050.21
1050.33
1050.31
1050.16
1049.87
1049.47
1048.91
1048.23
1047.44
1046.51
1045.45
1044.28
1042.98
1041.56
1040.03
1038.38
1036.62
1034.76
1032.79
1030.73
1028.57
1026.32
1023.99
1021.58
1019.1
1016.55
1013.94
1011.28
1008.57
1005.82
1003.02
1000.19
997.339
994.465
991.58
988.693
985.811
982.956
980.147
977.393
974.714
972.158
969.791
967.752
966.214
965.966
967.51
975.309
11463.3
2591.32
1677.61
1273.08
1002.36
783.233
606.205
481.022
398.744
346.718
312.55
289.042
272.514
261.128
253.496
249.046
248.04
249.497
253.277
260.698
274.926
299.471
341.815
400.264
487.813
634.223
851.475
1036.93
1154.07
1216.89
1254.02
1270.49
1262.6
1177.63
1085.3
1019.5
961.848
913.429
870.658
835.454
805.997
782.007
762.825
747.77
736.246
727.53
721.226
717.023
714.351
713.252
713.008
713.357
714.549
716.223
718.411
720.917
723.689
726.683
729.845
733.15
736.568
740.08
743.669
747.321
751.024
754.77
758.55
762.358
766.189
770.036
773.897
777.768
781.646
785.528
789.412
793.295
797.176
801.053
804.925
808.79
812.647
816.496
820.337
824.169
827.994
831.812
835.623
839.43
843.232
847.026
850.812
854.589
858.349
862.084
865.78
869.427
873.02
876.56
880.042
883.465
886.825
890.121
893.35
896.509
899.596
902.61
905.547
908.405
911.18
913.87
916.472
918.984
921.403
923.727
925.952
928.075
930.095
932.009
933.814
935.507
937.086
938.549
939.893
941.116
942.215
943.189
944.035
944.752
945.336
945.788
946.103
946.282
946.326
946.245
946.015
945.646
945.139
944.499
943.713
942.798
941.752
940.571
939.256
937.814
936.249
934.56
932.751
930.825
928.785
926.635
924.38
922.023
919.569
917.024
914.393
911.68
908.892
906.035
903.115
900.137
897.107
894.035
890.927
887.786
884.616
881.421
878.21
874.995
871.776
868.571
865.398
862.273
859.215
856.264
853.48
850.975
848.893
847.76
848.219
852.371
11463.3
3350.8
1875.1
1254.25
845.271
588.654
453.499
380.091
333.08
299.971
275.695
257.221
243.68
234.262
228.523
226.117
226.783
230.981
240.962
258.709
284.427
327.675
407.242
541.828
745.974
940.325
1060.64
1125.33
1150.38
1163.81
1141.65
1058.22
982.969
913.858
860.747
818.475
782.175
752.029
726.553
705.804
688.901
675.503
665.144
657.361
651.756
647.947
645.829
645.03
644.936
645.849
647.398
649.46
651.966
654.812
657.937
661.271
664.769
668.399
672.132
675.947
679.828
683.762
687.738
691.749
695.788
699.849
703.928
708.022
712.127
716.242
720.363
724.488
728.616
732.746
736.875
741.002
745.126
749.246
753.359
757.466
761.565
765.655
769.736
773.805
777.864
781.911
785.945
789.965
793.97
797.955
801.916
805.851
809.755
813.621
817.443
821.215
824.935
828.599
832.206
835.752
839.234
842.651
845.998
849.273
852.474
855.597
858.642
861.604
864.479
867.265
869.958
872.555
875.053
877.45
879.742
881.925
883.997
885.955
887.795
889.515
891.111
892.58
893.921
895.129
896.201
897.137
897.931
898.584
899.091
899.451
899.653
899.713
899.633
899.397
899.005
898.459
897.761
896.91
895.906
894.754
893.455
892.007
890.413
888.677
886.808
884.803
882.665
880.399
878.009
875.5
872.876
870.142
867.304
864.367
861.337
858.219
855.021
851.748
848.406
845.003
841.543
838.035
834.486
830.9
827.283
823.641
819.981
816.32
812.667
809.03
805.42
801.852
798.346
794.937
791.676
788.652
785.984
784
783.255
784.854
11463.3
3700.38
1824.05
1005.03
622.016
456.12
372.054
322.126
289.094
265.838
249.043
236.93
227.868
221.766
219.318
220.69
226.137
234.304
251.541
284.512
342.577
445.237
618.993
806.675
949.589
1031.37
1062.47
1078.94
1059.92
983.294
910.295
848.225
797.955
756.159
723.493
696.254
673.305
654.279
638.578
625.955
615.992
608.398
602.868
599.09
596.994
596.19
596.17
597.175
598.876
601.209
604.022
607.224
610.736
614.492
618.441
622.537
626.747
631.045
635.41
639.826
644.282
648.767
653.275
657.8
662.338
666.885
671.44
676.001
680.565
685.131
689.698
694.265
698.83
703.392
707.95
712.504
717.051
721.591
726.123
730.644
735.154
739.651
744.134
748.601
753.051
757.483
761.894
766.283
770.646
774.981
779.283
783.552
787.786
791.976
796.117
800.205
804.237
808.21
812.121
815.968
819.746
823.452
827.084
830.637
834.108
837.492
840.782
843.979
847.081
850.083
852.982
855.775
858.459
861.03
863.484
865.818
868.029
870.112
872.065
873.884
875.565
877.106
878.502
879.751
880.849
881.793
882.581
883.21
883.678
883.974
884.097
884.073
883.878
883.512
882.973
882.263
881.382
880.332
879.112
877.725
876.173
874.457
872.577
870.532
868.317
865.948
863.432
860.773
857.976
855.047
851.992
848.816
845.526
842.128
838.628
835.033
831.35
827.586
823.748
819.843
815.878
811.861
807.798
803.697
799.564
795.405
791.228
787.053
782.88
778.722
774.588
770.494
766.46
762.515
758.704
755.099
751.792
749.012
747.074
746.864
11463.3
3710.07
1492.77
771.136
522.581
411.562
347.435
308.287
281.321
260.862
245.249
233.847
226.685
223.657
225.137
232.448
247.166
272.823
313.732
385.587
518.947
680.369
824.479
929.235
976.109
997.791
996.34
934.183
864.226
804.115
755.324
715.574
683.526
657.174
635.704
617.65
602.591
590.23
580.282
572.518
566.691
562.584
560.095
559.009
558.842
559.67
561.308
563.667
566.608
570.036
573.855
577.992
582.381
586.969
591.712
596.574
601.527
606.546
611.616
616.721
621.851
626.999
632.157
637.322
642.49
647.659
652.828
657.994
663.159
668.32
673.475
678.625
683.768
688.903
694.029
699.145
704.25
709.342
714.42
719.483
724.529
729.556
734.561
739.544
744.501
749.431
754.332
759.201
764.035
768.83
773.585
778.3
782.967
787.582
792.14
796.635
801.066
805.43
809.722
813.941
818.082
822.141
826.116
830.001
833.793
837.489
841.085
844.577
847.961
851.234
854.391
857.428
860.342
863.129
865.784
868.304
870.685
872.922
875.012
876.951
878.735
880.36
881.821
883.116
884.241
885.192
885.966
886.561
886.973
887.183
887.218
887.07
886.731
886.198
885.473
884.555
883.445
882.143
880.652
878.973
877.108
875.059
872.829
870.422
867.844
865.098
862.189
859.123
855.907
852.546
849.047
845.416
841.661
837.789
833.806
829.721
825.541
821.274
816.927
812.509
808.028
803.49
798.905
794.279
789.619
784.934
780.227
775.485
770.74
766.009
761.303
756.637
752.03
747.509
743.11
738.892
734.927
731.372
728.403
726.579
11463.3
3288.38
1171.37
637.962
457.311
375.704
332.342
301.944
279.363
262.415
249.586
240.858
236.27
235.801
243.384
261.749
296.636
358.369
455.653
581.777
707.779
816.221
884.108
918.295
929.433
896.112
835.249
774.304
726.983
687.411
655.889
629.985
608.683
590.94
576.168
563.828
553.691
545.565
539.263
534.621
531.465
529.821
529.299
529.7
531.036
533.183
536.024
539.464
543.407
547.775
552.49
557.492
562.723
568.137
573.695
579.363
585.115
590.928
596.784
602.671
608.579
614.499
620.425
626.35
632.271
638.187
644.095
649.995
655.89
661.774
667.646
673.506
679.353
685.184
691
696.798
702.577
708.335
714.069
719.776
725.452
731.102
736.724
742.315
747.874
753.397
758.881
764.325
769.723
775.072
780.368
785.606
790.786
795.902
800.951
805.928
810.83
815.655
820.398
825.056
829.625
834.1
838.479
842.755
846.926
850.987
854.933
858.76
862.464
866.041
869.486
872.795
875.963
878.986
881.859
884.579
887.14
889.539
891.77
893.83
895.714
897.417
898.935
900.265
901.401
902.341
903.08
903.617
903.939
904.048
903.952
903.646
903.124
902.385
901.43
900.258
898.87
897.267
895.452
893.426
891.192
888.754
886.116
883.282
880.257
877.047
873.659
870.098
866.371
862.487
858.452
854.274
849.961
845.522
840.964
836.296
831.528
826.666
821.721
816.701
811.615
806.471
801.278
796.044
790.777
785.486
780.18
774.868
769.559
764.264
758.997
753.771
748.605
743.521
738.552
733.745
729.156
724.899
721.067
717.873
11463.3
2732.62
981.46
584.89
440.904
372.849
335.142
310.913
293.013
279.546
270.854
268.378
272.867
286.524
312.726
359.181
429.966
520.508
620.367
716.175
790.362
835.533
856.195
856.731
806.127
754.489
707.781
667.778
636.709
610.714
589.466
571.67
556.75
544.234
533.807
525.235
518.371
513.084
509.246
506.799
505.685
505.515
506.333
508.04
510.55
513.77
517.614
522.001
526.855
532.108
537.695
543.56
549.654
555.934
562.362
568.907
575.538
582.235
588.977
595.75
602.548
609.36
616.176
622.988
629.792
636.585
643.36
650.11
656.823
663.521
670.206
676.874
683.525
690.155
696.765
703.35
709.91
716.442
722.945
729.418
735.859
742.26
748.617
754.927
761.188
767.398
773.552
779.648
785.683
791.65
797.545
803.369
809.119
814.792
820.384
825.891
831.311
836.638
841.871
847.003
852.032
856.953
861.76
866.45
871.018
875.457
879.765
883.935
887.963
891.845
895.575
899.149
902.562
905.809
908.885
911.785
914.505
917.04
919.385
921.535
923.485
925.23
926.766
928.088
929.192
930.073
930.729
931.153
931.337
931.288
931.002
930.477
929.711
928.703
927.453
925.96
924.227
922.255
920.046
917.603
914.93
912.031
908.912
905.578
902.035
898.289
894.349
890.221
885.913
881.435
876.794
872
867.061
861.988
856.789
851.474
846.053
840.535
834.931
829.249
823.5
817.692
811.836
805.941
800.015
794.068
788.11
782.149
776.197
770.263
764.362
758.505
752.711
747.001
741.402
735.953
730.697
725.719
721.063
716.764
11463.3
2193.98
834.102
535.615
428.83
379.977
352.857
334.911
322.035
315.271
313.741
320.801
339.758
373.553
423.628
488.072
561.964
637.555
703.747
752.565
783.354
795.775
774.367
734.082
691.492
654.379
623.054
597.067
575.933
557.993
542.892
530.082
519.266
510.218
502.78
496.83
492.269
489.008
487.059
486.295
486.419
487.521
489.51
492.305
495.833
500.021
504.798
510.097
515.855
522.011
528.505
535.285
542.305
549.524
556.911
564.433
572.053
579.747
587.493
595.266
603.034
610.795
618.565
626.341
634.117
641.886
649.645
657.394
665.138
672.868
680.574
688.249
695.89
703.495
711.06
718.583
726.062
733.493
740.873
748.199
755.468
762.678
769.825
776.907
783.921
790.864
797.733
804.524
811.235
817.86
824.396
830.841
837.194
843.453
849.613
855.672
861.625
867.468
873.198
878.81
884.3
889.662
894.892
899.984
904.933
909.733
914.379
918.866
923.188
927.341
931.319
935.117
938.729
942.152
945.379
948.406
951.228
953.839
956.234
958.409
960.358
962.075
963.557
964.797
965.792
966.537
967.028
967.26
967.228
966.932
966.369
965.54
964.444
963.079
961.445
959.544
957.377
954.946
952.255
949.306
946.107
942.661
938.974
935.055
930.909
926.545
921.971
917.196
912.228
907.079
901.758
896.274
890.638
884.861
878.953
872.925
866.788
860.552
854.228
847.827
841.359
834.835
828.265
821.658
815.025
808.375
801.719
795.067
788.429
781.816
775.241
768.718
762.262
755.892
749.633
743.517
737.576
731.878
726.435
721.116
11463.3
1971.72
808.273
537.523
443.743
403.235
383.063
372.464
368.356
369.319
379.504
400.196
432.452
475.621
527.179
582.423
635.113
678.831
712.467
731.519
734.816
705.809
674.153
641.551
612.208
587.372
566.343
548.527
533.413
520.396
509.253
499.762
491.78
485.206
479.955
475.957
473.147
471.572
471.053
471.463
472.811
475.048
478.108
481.927
486.444
491.597
497.327
503.578
510.307
517.447
524.939
532.733
540.782
549.035
557.425
565.931
574.56
583.294
592.112
600.997
609.939
618.925
627.937
636.961
645.978
654.98
663.961
672.914
681.835
690.709
699.538
708.318
717.047
725.72
734.333
742.884
751.367
759.779
768.117
776.376
784.554
792.646
800.651
808.563
816.382
824.103
831.725
839.244
846.657
853.959
861.148
868.222
875.181
882.022
888.741
895.336
901.803
908.139
914.338
920.397
926.31
932.072
937.678
943.122
948.397
953.499
958.42
963.155
967.699
972.047
976.193
980.131
983.856
987.364
990.65
993.707
996.532
999.117
1001.46
1003.55
1005.39
1006.97
1008.29
1009.34
1010.11
1010.6
1010.82
1010.74
1010.38
1009.71
1008.76
1007.51
1005.97
1004.13
1002
999.573
996.859
993.859
990.575
987.013
983.181
979.083
974.728
970.124
965.278
960.201
954.902
949.39
943.677
937.774
931.691
925.44
919.032
912.48
905.794
898.988
892.071
885.057
877.956
870.781
863.542
856.251
848.918
841.554
834.17
826.777
819.384
812.002
804.642
797.316
790.036
782.814
775.666
768.61
761.667
754.864
748.225
741.807
735.604
729.362
11463.3
1898.3
791.658
544.598
464.046
433.045
420.958
417.463
419.794
430.073
448.559
475.103
508.537
546.192
584.298
618.786
647.864
671.308
681.463
671.727
650.036
624.935
601.015
578.646
559.039
542.034
527.222
514.319
503.092
493.34
484.963
477.885
472.048
467.409
463.923
461.547
460.348
460.103
460.814
462.449
464.97
468.348
472.527
477.434
483.018
489.225
496.001
503.278
510.96
519.039
527.502
536.311
545.426
554.812
564.443
574.278
584.272
594.403
604.644
614.961
625.331
635.732
646.136
656.527
666.901
677.249
687.563
697.836
708.058
718.22
728.317
738.342
748.291
758.157
767.935
777.62
787.207
796.69
806.066
815.329
824.475
833.501
842.404
851.179
859.824
868.337
876.715
884.957
893.059
901.018
908.831
916.498
924.019
931.391
938.614
945.684
952.597
959.351
965.941
972.363
978.611
984.68
990.564
996.256
1001.75
1007.04
1012.12
1016.98
1021.62
1026.04
1030.22
1034.16
1037.86
1041.31
1044.5
1047.44
1050.12
1052.53
1054.66
1056.52
1058.09
1059.38
1060.37
1061.07
1061.46
1061.55
1061.33
1060.79
1059.92
1058.74
1057.25
1055.43
1053.29
1050.83
1048.06
1044.97
1041.57
1037.86
1033.85
1029.55
1024.96
1020.09
1014.95
1009.54
1003.89
997.992
991.865
985.52
978.968
972.221
965.292
958.193
950.937
943.537
936.005
928.355
920.598
912.748
904.816
896.816
888.758
880.655
872.518
864.358
856.187
848.014
839.852
831.711
823.601
815.534
807.523
799.58
791.719
783.957
776.312
768.808
761.464
754.327
747.385
740.297
11463.3
1861.78
789.086
558.686
488.138
464.541
458.11
458.094
465.938
479.798
499.014
522.111
547.051
571.409
594.175
615.648
628.359
630.831
617.526
603.413
585.7
568.238
551.907
536.779
523.162
510.968
500.091
490.461
482.025
474.742
468.587
463.543
459.587
456.711
454.972
454.301
454.548
455.726
457.792
460.712
464.43
468.854
473.979
479.836
486.399
493.628
501.479
509.906
518.886
528.361
538.268
548.558
559.19
570.138
581.355
592.785
604.378
616.086
627.879
639.74
651.65
663.587
675.529
687.459
699.362
711.226
723.039
734.79
746.467
758.06
769.558
780.953
792.237
803.401
814.437
825.339
836.098
846.71
857.167
867.465
877.599
887.565
897.358
906.977
916.418
925.679
934.76
943.66
952.377
960.908
969.252
977.409
985.38
993.167
1000.77
1008.18
1015.4
1022.43
1029.26
1035.89
1042.31
1048.52
1054.52
1060.28
1065.82
1071.11
1076.16
1080.96
1085.5
1089.78
1093.79
1097.53
1101
1104.18
1107.07
1109.68
1111.99
1114.01
1115.72
1117.13
1118.22
1118.99
1119.45
1119.58
1119.39
1118.86
1117.99
1116.78
1115.22
1113.33
1111.09
1108.52
1105.6
1102.34
1098.74
1094.82
1090.57
1085.99
1081.1
1075.9
1070.41
1064.62
1058.56
1052.23
1045.64
1038.81
1031.75
1024.46
1016.97
1009.29
1001.43
993.398
985.217
976.898
968.453
959.898
951.244
942.505
933.695
924.825
915.908
906.956
897.981
888.995
880.008
871.032
862.077
853.155
844.277
835.453
826.695
818.017
809.43
800.952
792.598
784.389
776.338
768.488
760.827
752.958
11463.3
1830.86
790.966
573.843
510.274
490.526
485.823
487.08
494.729
506.002
519.735
534.972
551.257
568.121
581.304
586.41
582.832
575.47
564.921
553.973
541.964
530.285
519.169
508.752
499.19
490.529
482.812
476.105
470.481
465.761
461.929
458.998
456.962
455.834
455.475
455.905
457.25
459.533
462.738
466.841
471.818
477.665
484.346
491.807
500.011
508.918
518.482
528.658
539.407
550.696
562.441
574.573
587.032
599.754
612.705
625.856
639.169
652.605
666.133
679.727
693.362
707.015
720.664
734.287
747.867
761.386
774.829
788.179
801.423
814.544
827.53
840.369
853.047
865.554
877.878
890.011
901.943
913.666
925.173
936.458
947.515
958.34
968.929
979.281
989.393
999.265
1008.9
1018.29
1027.45
1036.36
1045.04
1053.48
1061.69
1069.67
1077.42
1084.93
1092.22
1099.28
1106.1
1112.68
1119.02
1125.11
1130.94
1136.51
1141.81
1146.83
1151.57
1156.01
1160.17
1164.02
1167.57
1170.82
1173.75
1176.36
1178.66
1180.64
1182.3
1183.62
1184.62
1185.29
1185.62
1185.58
1185.26
1184.54
1183.47
1182.06
1180.28
1178.15
1175.65
1172.8
1169.59
1166.01
1162.09
1157.81
1153.19
1148.22
1142.91
1137.28
1131.33
1125.07
1118.5
1111.65
1104.52
1097.12
1089.47
1081.58
1073.46
1065.13
1056.6
1047.89
1039.01
1029.97
1020.79
1011.49
1002.07
992.556
982.957
973.286
963.558
953.785
943.979
934.153
924.318
914.486
904.668
894.875
885.117
875.406
865.752
856.166
846.66
837.244
827.932
818.738
809.677
800.767
792.018
783.469
775.112
766.522
11463.3
1817.96
796.334
586.433
525.254
505.21
498.916
497.755
501.128
508.199
518.007
529.262
539.227
543.82
544.372
541.196
537.83
532.853
526.962
520.804
514.357
508.201
502.175
496.272
490.645
485.407
480.617
476.25
472.182
468.882
466.449
464.952
464.389
464.786
466.179
468.576
471.945
476.282
481.572
487.798
494.939
502.984
511.893
521.615
532.097
543.311
555.193
567.661
580.645
594.058
607.861
622.013
636.465
651.168
666.083
681.173
696.403
711.738
727.147
742.602
758.076
773.544
788.982
804.367
819.676
834.889
849.985
864.945
879.748
894.377
908.813
923.039
937.038
950.797
964.301
977.537
990.495
1003.16
1015.53
1027.6
1039.36
1050.81
1061.93
1072.75
1083.24
1093.42
1103.29
1112.85
1122.1
1131.06
1139.71
1148.07
1156.15
1163.94
1171.45
1178.69
1185.65
1192.34
1198.76
1204.89
1210.74
1216.3
1221.57
1226.53
1231.19
1235.53
1239.55
1243.23
1246.59
1249.61
1252.3
1254.64
1256.64
1258.28
1259.59
1260.56
1261.16
1261.41
1261.3
1260.89
1260.07
1258.89
1257.37
1255.47
1253.21
1250.58
1247.57
1244.2
1240.46
1236.36
1231.88
1227.04
1221.85
1216.29
1210.4
1204.15
1197.58
1190.68
1183.46
1175.94
1168.13
1160.04
1151.69
1143.08
1134.23
1125.15
1115.87
1106.39
1096.72
1086.89
1076.91
1066.8
1056.56
1046.22
1035.78
1025.26
1014.68
1004.05
993.381
982.686
971.977
961.266
950.565
939.885
929.236
918.629
908.075
897.582
887.162
876.824
866.58
856.439
846.415
836.52
826.767
817.174
807.748
798.526
789.501
780.253
11463.3
1803.65
798.214
592.529
530.122
507.077
497.816
494.867
494.858
498.019
500.994
503.824
506.008
507.887
511.437
513.94
515.629
516.254
516.182
514.984
512.818
509.579
505.789
502.021
498.484
495.318
492.627
490.527
489.223
488.71
489.074
490.384
492.689
496.011
500.387
505.818
512.262
519.693
528.08
537.397
547.616
558.718
570.683
583.467
596.95
611.016
625.598
640.656
656.136
671.979
688.138
704.566
721.218
738.055
755.038
772.133
789.307
806.532
823.779
841.02
858.232
875.388
892.465
909.437
926.282
942.973
959.489
975.802
991.893
1007.73
1023.31
1038.58
1053.55
1068.19
1082.48
1096.4
1109.95
1123.11
1135.87
1148.24
1160.19
1171.73
1182.86
1193.59
1203.9
1213.82
1223.34
1232.47
1241.23
1249.63
1257.65
1265.33
1272.66
1279.66
1286.33
1292.68
1298.72
1304.44
1309.85
1314.94
1319.71
1324.15
1328.27
1332.05
1335.49
1338.57
1341.3
1343.65
1345.65
1347.3
1348.57
1349.47
1349.99
1350.13
1349.94
1349.4
1348.46
1347.15
1345.47
1343.45
1341.05
1338.28
1335.15
1331.65
1327.78
1323.55
1318.94
1313.97
1308.63
1302.93
1296.86
1290.45
1283.68
1276.58
1269.13
1261.36
1253.28
1244.89
1236.2
1227.23
1217.99
1208.5
1198.76
1188.8
1178.62
1168.25
1157.69
1146.96
1136.08
1125.06
1113.92
1102.68
1091.33
1079.91
1068.43
1056.89
1045.32
1033.71
1022.1
1010.49
998.881
987.298
975.746
964.236
952.777
941.379
930.052
918.804
907.646
896.585
885.632
874.798
864.093
853.528
843.117
832.876
822.806
812.949
803.295
793.46
11463.3
1792.76
797.299
592.064
527.134
500.067
485.916
478.399
475.667
476.623
482.554
490.131
498.403
506.495
513.584
519.388
524.334
528.261
531.299
533.353
534.648
535.507
536.203
536.887
537.751
538.953
540.631
542.947
546.068
550.019
554.864
560.666
567.452
575.248
584.058
593.88
604.672
616.399
629.008
642.459
656.709
671.773
687.531
703.832
720.623
737.83
755.392
773.251
791.357
809.66
828.117
846.683
865.326
884.011
902.709
921.394
940.045
958.641
977.16
995.584
1013.89
1032.06
1050.07
1067.91
1085.53
1102.93
1120.06
1136.91
1153.45
1169.65
1185.49
1200.93
1215.96
1230.55
1244.69
1258.35
1271.53
1284.21
1296.38
1308.05
1319.2
1329.84
1339.97
1349.59
1358.73
1367.37
1375.55
1383.28
1390.56
1397.41
1403.85
1409.89
1415.54
1420.82
1425.74
1430.31
1434.53
1438.41
1441.95
1445.14
1447.98
1450.48
1452.64
1454.43
1455.85
1456.9
1457.57
1457.83
1457.72
1457.29
1456.44
1455.2