/*--------------------------------*- C++ -*----------------------------------*\
  =========                 |
  \\      /  F ield         | OpenFOAM: The Open Source CFD Toolbox
   \\    /   O peration     | Website:  https://openfoam.org
    \\  /    A nd           | Version:  8
     \\/     M anipulation  |
\*---------------------------------------------------------------------------*/
FoamFile
{
    version     2.0;
    format      ascii;
    class       surfaceScalarField;
    location    "1100";
    object      phi;
}
// * * * * * * * * * * * * * * * * * * * * * * * * * * * * * * * * * * * * * //

dimensions      [0 3 -1 0 0 0 0];

internalField   nonuniform List<scalar> 
24170
(
3.04811e-06
8.61197e-08
2.95786e-06
9.057e-08
2.85964e-06
9.87291e-08
2.77024e-06
9.0062e-08
2.69244e-06
7.89056e-08
2.62818e-06
6.51822e-08
2.57411e-06
5.44634e-08
2.52238e-06
5.17711e-08
2.47791e-06
4.4379e-08
2.43551e-06
4.2319e-08
2.40191e-06
3.32855e-08
2.37148e-06
3.02471e-08
2.34323e-06
2.80287e-08
2.31811e-06
2.4942e-08
2.29522e-06
2.27395e-08
2.27393e-06
2.11678e-08
2.25321e-06
2.06406e-08
2.69498e-08
2.22612e-06
3.50519e-06
3.76701e-08
3.534e-06
6.39826e-08
3.5383e-06
9.60543e-08
3.53015e-06
9.93697e-08
3.50324e-06
1.06842e-07
3.45982e-06
1.09154e-07
3.40611e-06
1.08086e-07
3.36163e-06
9.59134e-08
3.33399e-06
7.17536e-08
3.31319e-06
6.29909e-08
3.29238e-06
5.39352e-08
3.26991e-06
5.27561e-08
3.24961e-06
4.83837e-08
3.23094e-06
4.37698e-08
3.21226e-06
4.15797e-08
3.19417e-06
3.94438e-08
3.17788e-06
3.70459e-08
3.71043e-08
3.16786e-06
3.82257e-06
2.73567e-08
3.82709e-06
5.86807e-08
3.84087e-06
8.18889e-08
3.85184e-06
8.84252e-08
3.86015e-06
9.8682e-08
3.86439e-06
1.04999e-07
3.86507e-06
1.07223e-07
3.8618e-06
9.9051e-08
3.85291e-06
8.06706e-08
3.84503e-06
7.09007e-08
3.83546e-06
6.34629e-08
3.82751e-06
6.07458e-08
3.81967e-06
5.62412e-08
3.81092e-06
5.25708e-08
3.80234e-06
5.02357e-08
3.79417e-06
4.77192e-08
3.78647e-06
4.48153e-08
4.26411e-08
3.78096e-06
4.20827e-06
2.35458e-08
4.21159e-06
5.54253e-08
4.22039e-06
7.31954e-08
4.22851e-06
8.03567e-08
4.23694e-06
9.00581e-08
4.24507e-06
9.62486e-08
4.25338e-06
9.8011e-08
4.25975e-06
9.19192e-08
4.26084e-06
7.9184e-08
4.26092e-06
7.06151e-08
4.25981e-06
6.45526e-08
4.25946e-06
6.11828e-08
4.25869e-06
5.7208e-08
4.25738e-06
5.41078e-08
4.25624e-06
5.16595e-08
4.25519e-06
4.90238e-08
4.25412e-06
4.60927e-08
4.3213e-08
4.25379e-06
4.64018e-06
2.06297e-08
4.64487e-06
4.99731e-08
4.65131e-06
6.62435e-08
4.65742e-06
7.40136e-08
4.6646e-06
8.27641e-08
4.67231e-06
8.83477e-08
4.68061e-06
8.95199e-08
4.68778e-06
8.46967e-08
4.69152e-06
7.5443e-08
4.69397e-06
6.81658e-08
4.69561e-06
6.28952e-08
4.69756e-06
5.92784e-08
4.69914e-06
5.56602e-08
4.70052e-06
5.28076e-08
4.70199e-06
5.02726e-08
4.70353e-06
4.75953e-08
4.70504e-06
4.4693e-08
4.16192e-08
4.70658e-06
5.11732e-06
1.77706e-08
5.12207e-06
4.48225e-08
5.12806e-06
5.99693e-08
5.13384e-06
6.79494e-08
5.14064e-06
7.54635e-08
5.14806e-06
8.01953e-08
5.15585e-06
8.09099e-08
5.16273e-06
7.71607e-08
5.16728e-06
7.04551e-08
5.1706e-06
6.45891e-08
5.17332e-06
6.00667e-08
5.17607e-06
5.65594e-08
5.17855e-06
5.32838e-08
5.18096e-06
5.05655e-08
5.18343e-06
4.80076e-08
5.18592e-06
4.53217e-08
5.18831e-06
4.24339e-08
3.96069e-08
5.19061e-06
5.64324e-06
1.54503e-08
5.64799e-06
3.94847e-08
5.65409e-06
5.34327e-08
5.66005e-06
6.1763e-08
5.66679e-06
6.85018e-08
5.67408e-06
7.26958e-08
5.68152e-06
7.33311e-08
5.68815e-06
7.04529e-08
5.69313e-06
6.54737e-08
5.697e-06
6.06596e-08
5.70037e-06
5.66894e-08
5.70358e-06
5.33344e-08
5.7066e-06
5.03073e-08
5.70956e-06
4.7649e-08
5.71256e-06
4.5108e-08
5.7155e-06
4.247e-08
5.71836e-06
3.97351e-08
3.6951e-08
5.72099e-06
4.40749e-06
1.39663e-08
4.41096e-06
3.55948e-08
4.41548e-06
4.85958e-08
4.41998e-06
5.69456e-08
4.4248e-06
6.32514e-08
4.42988e-06
6.7074e-08
4.43495e-06
6.77444e-08
4.43952e-06
6.5476e-08
4.44322e-06
6.14808e-08
4.44629e-06
5.73731e-08
4.44905e-06
5.38152e-08
4.45165e-06
5.06834e-08
4.45412e-06
4.78414e-08
4.45654e-06
4.52622e-08
4.45895e-06
4.27796e-08
4.4613e-06
4.02073e-08
4.46353e-06
3.75401e-08
3.49908e-08
4.46564e-06
5.14117e-06
1.25842e-08
5.14479e-06
3.1601e-08
5.14952e-06
4.35549e-08
5.15441e-06
5.1803e-08
5.15967e-06
5.77431e-08
5.16521e-06
6.13141e-08
5.17072e-06
6.20764e-08
5.17575e-06
6.03797e-08
5.17999e-06
5.71717e-08
5.18361e-06
5.36976e-08
5.18687e-06
5.05073e-08
5.18992e-06
4.7618e-08
5.19282e-06
4.49469e-08
5.19564e-06
4.2493e-08
5.19842e-06
4.00593e-08
5.20111e-06
3.76029e-08
5.20368e-06
3.5084e-08
3.25718e-08
5.20608e-06
5.9971e-06
1.12067e-08
6.00072e-06
2.76604e-08
6.00556e-06
3.84265e-08
6.01078e-06
4.63239e-08
6.01644e-06
5.17994e-08
6.02243e-06
5.50594e-08
6.0284e-06
5.59136e-08
6.03394e-06
5.47199e-08
6.03876e-06
5.224e-08
6.04298e-06
4.93907e-08
6.0468e-06
4.66195e-08
6.05037e-06
4.40201e-08
6.05375e-06
4.15888e-08
6.057e-06
3.92098e-08
6.06019e-06
3.69447e-08
6.06325e-06
3.45724e-08
6.06613e-06
3.21819e-08
2.98743e-08
6.06886e-06
6.9956e-06
9.81036e-09
6.99918e-06
2.38233e-08
7.00408e-06
3.32604e-08
7.00957e-06
4.0561e-08
7.01559e-06
4.55456e-08
7.02197e-06
4.84742e-08
7.02837e-06
4.94013e-08
7.03439e-06
4.86252e-08
7.0398e-06
4.67805e-08
7.04464e-06
4.44851e-08
7.04908e-06
4.21545e-08
7.05323e-06
3.9879e-08
7.0571e-06
3.7618e-08
7.06087e-06
3.54768e-08
7.06446e-06
3.32861e-08
7.06794e-06
3.11247e-08
7.07119e-06
2.8908e-08
2.68188e-08
7.07425e-06
8.16041e-06
8.36526e-09
8.16388e-06
2.01014e-08
8.16882e-06
2.80858e-08
8.17456e-06
3.46101e-08
8.18089e-06
3.90347e-08
8.18762e-06
4.16191e-08
8.19443e-06
4.25782e-08
8.20093e-06
4.21575e-08
8.2069e-06
4.07884e-08
8.21238e-06
3.90252e-08
8.21747e-06
3.70688e-08
8.2222e-06
3.50969e-08
8.22666e-06
3.30979e-08
8.23091e-06
3.11406e-08
8.23501e-06
2.91629e-08
8.2389e-06
2.72063e-08
8.24256e-06
2.52224e-08
2.33717e-08
8.24597e-06
9.51913e-06
6.89495e-09
9.52256e-06
1.64513e-08
9.52751e-06
2.29116e-08
9.53346e-06
2.84583e-08
9.54008e-06
3.22313e-08
9.54716e-06
3.45089e-08
9.55435e-06
3.54273e-08
9.5613e-06
3.5236e-08
9.56787e-06
3.43219e-08
9.57397e-06
3.29215e-08
9.57973e-06
3.13805e-08
9.58506e-06
2.96625e-08
9.59015e-06
2.79928e-08
9.59492e-06
2.62304e-08
9.59957e-06
2.45688e-08
9.6039e-06
2.28213e-08
9.60803e-06
2.11629e-08
1.95588e-08
9.61187e-06
1.11041e-05
5.4129e-09
1.11075e-05
1.29006e-08
1.11125e-05
1.77625e-08
1.11186e-05
2.21552e-08
1.11256e-05
2.52538e-08
1.1133e-05
2.70846e-08
1.11405e-05
2.79103e-08
1.1148e-05
2.78922e-08
1.11551e-05
2.72354e-08
1.11619e-05
2.62317e-08
1.11683e-05
2.49699e-08
1.11743e-05
2.36386e-08
1.118e-05
2.22082e-08
1.11855e-05
2.08305e-08
1.11906e-05
1.93946e-08
1.11955e-05
1.80109e-08
1.12001e-05
1.65943e-08
1.53308e-08
1.12045e-05
1.2953e-05
3.94971e-09
1.29564e-05
9.43722e-09
1.29615e-05
1.2623e-08
1.29679e-05
1.57612e-08
1.29751e-05
1.79762e-08
1.29829e-05
1.93435e-08
1.2991e-05
1.9953e-08
1.29989e-05
1.99634e-08
1.30067e-05
1.95281e-08
1.30141e-05
1.87991e-08
1.30212e-05
1.78824e-08
1.30279e-05
1.68696e-08
1.30343e-05
1.58088e-08
1.30404e-05
1.47353e-08
1.30462e-05
1.36476e-08
1.30517e-05
1.25675e-08
1.30569e-05
1.14938e-08
1.05175e-08
1.30617e-05
1.51099e-05
2.49915e-09
1.51134e-05
5.94593e-09
1.51187e-05
7.35818e-09
1.51253e-05
9.07686e-09
1.5133e-05
1.03396e-08
1.51413e-05
1.10906e-08
1.51499e-05
1.14064e-08
1.51584e-05
1.13753e-08
1.51669e-05
1.10811e-08
1.5175e-05
1.06018e-08
1.51829e-05
1.00029e-08
1.51904e-05
9.33251e-09
1.51976e-05
8.6262e-09
1.52044e-05
7.89975e-09
1.52109e-05
7.16497e-09
1.52171e-05
6.43131e-09
1.52229e-05
5.7099e-09
5.05908e-09
1.52284e-05
1.76259e-05
9.99906e-10
1.76297e-05
2.13273e-09
1.76354e-05
1.65967e-09
1.76427e-05
1.84315e-09
1.7651e-05
2.02778e-09
1.76599e-05
2.10726e-09
1.76692e-05
2.07734e-09
1.76786e-05
1.96201e-09
1.76879e-05
1.75577e-09
1.76969e-05
1.50769e-09
1.77057e-05
1.20008e-09
1.77141e-05
8.86461e-10
1.77222e-05
5.37201e-10
1.77299e-05
1.9761e-10
1.77373e-05
-1.63745e-10
1.77442e-05
-5.06548e-10
1.77508e-05
-8.54377e-10
-1.13779e-09
1.7757e-05
1.78276e-05
-4.58821e-10
1.78314e-05
-1.80384e-09
1.78371e-05
-4.11061e-09
1.78442e-05
-5.36303e-09
1.78524e-05
-6.20131e-09
1.78612e-05
-6.73722e-09
1.78703e-05
-7.06976e-09
1.78795e-05
-7.28372e-09
1.78886e-05
-7.38012e-09
1.78975e-05
-7.45249e-09
1.79062e-05
-7.44627e-09
1.79144e-05
-7.46869e-09
1.79224e-05
-7.43026e-09
1.79299e-05
-7.43888e-09
1.79373e-05
-7.39707e-09
1.7944e-05
-7.40379e-09
1.79506e-05
-7.35918e-09
-7.32465e-09
1.79567e-05
1.58826e-05
-1.77856e-09
1.58861e-05
-5.57748e-09
1.58915e-05
-9.54982e-09
1.58981e-05
-1.21041e-08
1.59056e-05
-1.37579e-08
1.59135e-05
-1.47732e-08
1.59217e-05
-1.53314e-08
1.593e-05
-1.556e-08
1.59381e-05
-1.55639e-08
1.5946e-05
-1.53947e-08
1.59536e-05
-1.51567e-08
1.5961e-05
-1.48303e-08
1.5968e-05
-1.45109e-08
1.59747e-05
-1.41414e-08
1.5981e-05
-1.38101e-08
1.59871e-05
-1.34435e-08
1.59928e-05
-1.31194e-08
-1.27406e-08
1.59983e-05
1.41498e-05
-3.04987e-09
1.41533e-05
-9.19507e-09
1.41585e-05
-1.48936e-08
1.41649e-05
-1.85877e-08
1.4172e-05
-2.09479e-08
1.41795e-05
-2.23068e-08
1.41871e-05
-2.29879e-08
1.41947e-05
-2.31737e-08
1.42021e-05
-2.30094e-08
1.42092e-05
-2.26175e-08
1.42161e-05
-2.20789e-08
1.42227e-05
-2.14697e-08
1.4229e-05
-2.08133e-08
1.42349e-05
-2.01527e-08
1.42406e-05
-1.94857e-08
1.42459e-05
-1.8844e-08
1.42511e-05
-1.82038e-08
-1.75823e-08
1.42558e-05
1.26062e-05
-4.22938e-09
1.26096e-05
-1.28038e-08
1.26149e-05
-2.03171e-08
1.26213e-05
-2.50666e-08
1.26282e-05
-2.79055e-08
1.26354e-05
-2.94849e-08
1.26425e-05
-3.02008e-08
1.26496e-05
-3.02662e-08
1.26564e-05
-2.98689e-08
1.2663e-05
-2.92051e-08
1.26692e-05
-2.83703e-08
1.26752e-05
-2.74651e-08
1.26809e-05
-2.64934e-08
1.26862e-05
-2.55398e-08
1.26913e-05
-2.45715e-08
1.2696e-05
-2.36615e-08
1.27006e-05
-2.27497e-08
-2.18864e-08
1.27049e-05
1.12308e-05
-5.3884e-09
1.12344e-05
-1.63951e-08
1.124e-05
-2.59434e-08
1.12464e-05
-3.15067e-08
1.12532e-05
-3.47082e-08
1.12601e-05
-3.64222e-08
1.12669e-05
-3.7073e-08
1.12736e-05
-3.69067e-08
1.12799e-05
-3.62328e-08
1.1286e-05
-3.52515e-08
1.12917e-05
-3.41194e-08
1.12971e-05
-3.28772e-08
1.13022e-05
-3.16317e-08
1.1307e-05
-3.03602e-08
1.13115e-05
-2.91574e-08
1.13158e-05
-2.79525e-08
1.13198e-05
-2.68377e-08
-2.57151e-08
1.13237e-05
1.00056e-05
-6.29533e-09
1.00091e-05
-2.02008e-08
1.00152e-05
-3.20411e-08
1.00218e-05
-3.81652e-08
1.00284e-05
-4.13756e-08
1.00351e-05
-4.31141e-08
1.00416e-05
-4.3605e-08
1.00478e-05
-4.31643e-08
1.00537e-05
-4.21463e-08
1.00593e-05
-4.08354e-08
1.00645e-05
-3.93642e-08
1.00695e-05
-3.78293e-08
1.00741e-05
-3.62682e-08
1.00784e-05
-3.47476e-08
1.00825e-05
-3.32566e-08
1.00864e-05
-3.18509e-08
1.009e-05
-3.04777e-08
-2.92011e-08
1.00934e-05
8.91375e-06
-7.16804e-09
8.91769e-06
-2.41759e-08
8.92406e-06
-3.83326e-08
8.93066e-06
-4.46073e-08
8.93722e-06
-4.79956e-08
8.94374e-06
-4.96943e-08
8.94997e-06
-4.99136e-08
8.95583e-06
-4.90538e-08
8.96133e-06
-4.76606e-08
8.96649e-06
-4.60212e-08
8.97132e-06
-4.42281e-08
8.97585e-06
-4.23735e-08
8.98008e-06
-4.05284e-08
8.98405e-06
-3.87349e-08
8.98776e-06
-3.70165e-08
8.99127e-06
-3.53698e-08
8.99455e-06
-3.38077e-08
-3.23071e-08
8.99767e-06
7.94081e-06
-7.23778e-09
7.94563e-06
-2.90858e-08
7.95204e-06
-4.47803e-08
7.95829e-06
-5.09855e-08
7.96479e-06
-5.44401e-08
7.97127e-06
-5.62013e-08
7.97741e-06
-5.60538e-08
7.98311e-06
-5.47979e-08
7.9884e-06
-5.30167e-08
7.99333e-06
-5.09723e-08
7.9979e-06
-4.88231e-08
8.00215e-06
-4.66317e-08
8.00608e-06
-4.44917e-08
8.00974e-06
-4.24269e-08
8.01314e-06
-4.04554e-08
8.01632e-06
-3.85833e-08
8.0193e-06
-3.68155e-08
-3.51489e-08
8.0221e-06
7.07179e-06
-4.77208e-09
7.07929e-06
-3.65125e-08
7.08614e-06
-5.1437e-08
7.09252e-06
-5.71917e-08
7.09916e-06
-6.10875e-08
7.10576e-06
-6.2808e-08
7.11195e-06
-6.2302e-08
7.11769e-06
-6.05735e-08
7.12297e-06
-5.82975e-08
7.12781e-06
-5.5845e-08
7.13224e-06
-5.32656e-08
7.13626e-06
-5.06879e-08
7.13992e-06
-4.81717e-08
7.14325e-06
-4.57888e-08
7.14629e-06
-4.35216e-08
7.14907e-06
-4.13934e-08
7.15161e-06
-3.93902e-08
-3.74987e-08
7.15391e-06
6.29498e-06
2.84271e-09
6.30627e-06
-4.73251e-08
6.31501e-06
-6.02756e-08
6.32344e-06
-6.56398e-08
6.33177e-06
-6.93086e-08
6.33924e-06
-7.02476e-08
6.34581e-06
-6.88557e-08
6.35163e-06
-6.6367e-08
6.35674e-06
-6.34857e-08
6.36125e-06
-6.03668e-08
6.36518e-06
-5.72031e-08
6.36857e-06
-5.40732e-08
6.37146e-06
-5.10995e-08
6.37393e-06
-4.82689e-08
6.37601e-06
-4.56325e-08
6.37777e-06
-4.31741e-08
6.37925e-06
-4.09011e-08
-3.88166e-08
6.38054e-06
5.61033e-06
7.57095e-09
5.6239e-06
-6.02421e-08
5.63401e-06
-7.01528e-08
5.64503e-06
-7.65277e-08
5.65645e-06
-8.05833e-08
5.66616e-06
-7.98868e-08
5.6738e-06
-7.64491e-08
5.67951e-06
-7.20515e-08
5.68347e-06
-6.74633e-08
5.68599e-06
-6.28933e-08
5.68728e-06
-5.84777e-08
5.68752e-06
-5.434e-08
5.68692e-06
-5.05031e-08
5.68562e-06
-4.69814e-08
5.68376e-06
-4.37743e-08
5.68147e-06
-4.08925e-08
5.67886e-06
-3.83088e-08
-3.60301e-08
5.67604e-06
5.04205e-06
-3.19903e-08
5.06459e-06
-8.19131e-08
5.07379e-06
-7.90088e-08
5.07874e-06
-8.13024e-08
5.08094e-06
-8.26102e-08
5.07875e-06
-7.76135e-08
5.0724e-06
-7.00329e-08
5.0625e-06
-6.21083e-08
5.04983e-06
-5.48021e-08
5.03524e-06
-4.83008e-08
5.01941e-06
-4.26463e-08
5.00287e-06
-3.78114e-08
4.98606e-06
-3.36941e-08
4.96927e-06
-3.01878e-08
4.9527e-06
-2.7209e-08
4.93652e-06
-2.47126e-08
4.92087e-06
-2.26806e-08
-2.15374e-08
4.90636e-06
4.4246e-06
4.34272e-06
4.26373e-06
4.18245e-06
4.09985e-06
4.02224e-06
3.95221e-06
3.89011e-06
3.8353e-06
3.787e-06
3.74436e-06
3.70654e-06
3.67285e-06
3.64266e-06
3.61545e-06
3.59074e-06
3.56805e-06
3.54651e-06
-7.88453e-09
7.77809e-09
-2.14773e-08
1.34628e-08
-3.57623e-08
1.41182e-08
-4.71624e-08
1.13042e-08
-5.08844e-08
3.57526e-09
-4.21666e-08
-8.81978e-09
-2.05396e-08
-2.17347e-08
1.09129e-08
-3.15826e-08
4.7886e-08
-3.704e-08
8.56611e-08
-3.78662e-08
1.20291e-07
-3.46697e-08
1.48975e-07
-2.87257e-08
1.70008e-07
-2.10638e-08
1.82479e-07
-1.24652e-08
1.85956e-07
-3.50667e-09
1.80735e-07
5.26058e-09
1.67536e-07
1.31776e-08
1.47982e-07
1.96059e-08
1.23984e-07
2.39882e-08
9.81321e-08
2.58969e-08
7.29967e-08
2.51266e-08
5.11904e-08
2.18348e-08
3.46272e-08
1.65533e-08
2.46255e-08
1.00121e-08
2.18227e-08
2.77954e-09
2.62504e-08
-4.45194e-09
3.77946e-08
-1.15849e-08
5.57998e-08
-1.80754e-08
7.80105e-08
-2.22568e-08
9.9661e-08
-2.17346e-08
1.166e-07
-1.69786e-08
1.27976e-07
-1.14185e-08
1.35286e-07
-7.28875e-09
1.40906e-07
-5.65896e-09
1.39885e-07
1.19236e-09
1.22069e-07
1.75841e-08
8.06899e-08
4.16656e-08
1.09869e-08
6.93214e-08
-8.11279e-08
9.23221e-08
-1.93171e-07
1.11856e-07
-3.21412e-07
1.28341e-07
-4.62558e-07
1.4112e-07
-6.11422e-07
1.48903e-07
-7.63981e-07
1.52544e-07
-9.1669e-07
1.5272e-07
-1.06533e-06
1.48593e-07
-1.20706e-06
1.41734e-07
-1.33876e-06
1.31643e-07
-1.46165e-06
1.22896e-07
-1.57458e-06
1.12868e-07
-1.67534e-06
1.00772e-07
-1.76696e-06
9.15801e-08
-1.8501e-06
8.31617e-08
-1.92444e-06
7.43114e-08
-1.99059e-06
6.61742e-08
-2.05052e-06
5.99159e-08
-2.10508e-06
5.45888e-08
-2.15485e-06
4.97651e-08
-2.20045e-06
4.56245e-08
-2.24253e-06
4.20823e-08
-2.28154e-06
3.90357e-08
-2.31793e-06
3.63967e-08
-2.35201e-06
3.41042e-08
-2.38409e-06
3.20905e-08
-2.41438e-06
3.03158e-08
-2.44309e-06
2.87294e-08
-2.47037e-06
2.73047e-08
-2.49636e-06
2.60057e-08
-2.52115e-06
2.48134e-08
-2.54483e-06
2.37047e-08
-2.56747e-06
2.26656e-08
-2.58912e-06
2.16797e-08
-2.60983e-06
2.07373e-08
-2.62961e-06
1.98291e-08
-2.64853e-06
1.89451e-08
-2.66657e-06
1.80813e-08
-2.68377e-06
1.72278e-08
-2.7001e-06
1.6385e-08
-2.71563e-06
1.55423e-08
-2.73029e-06
1.47039e-08
-2.74414e-06
1.38578e-08
-2.75712e-06
1.30118e-08
-2.76928e-06
1.21518e-08
-2.78054e-06
1.12891e-08
-2.79096e-06
1.04068e-08
-2.80044e-06
9.5171e-09
-2.80903e-06
8.59673e-09
-2.81668e-06
7.65627e-09
-2.82338e-06
6.67684e-09
-2.8291e-06
5.65096e-09
-2.83373e-06
4.58461e-09
-2.8372e-06
3.47103e-09
-2.83949e-06
2.29769e-09
-2.84053e-06
1.06803e-09
-2.84034e-06
-1.62727e-10
-2.83905e-06
-1.24404e-09
-2.83682e-06
-2.20625e-09
-2.83363e-06
-3.15654e-09
-2.82951e-06
-4.11786e-09
-2.82441e-06
-5.09265e-09
-2.81833e-06
-6.0902e-09
-2.81124e-06
-7.10342e-09
-2.80313e-06
-8.13948e-09
-2.79397e-06
-9.19159e-09
-2.78375e-06
-1.02656e-08
-2.77244e-06
-1.13561e-08
-2.76002e-06
-1.24672e-08
-2.74648e-06
-1.3595e-08
-2.73179e-06
-1.47418e-08
-2.71594e-06
-1.59052e-08
-2.69892e-06
-1.70858e-08
-2.6807e-06
-1.82823e-08
-2.66127e-06
-1.94935e-08
-2.64062e-06
-2.07199e-08
-2.61872e-06
-2.19579e-08
-2.59558e-06
-2.321e-08
-2.57117e-06
-2.447e-08
-2.5455e-06
-2.57423e-08
-2.51854e-06
-2.70184e-08
-2.4903e-06
-2.83046e-08
-2.46076e-06
-2.959e-08
-2.42994e-06
-3.08824e-08
-2.39781e-06
-3.21688e-08
-2.3644e-06
-3.34586e-08
-2.3297e-06
-3.47372e-08
-2.29372e-06
-3.60149e-08
-2.25646e-06
-3.72763e-08
-2.21794e-06
-3.85318e-08
-2.17818e-06
-3.97655e-08
-2.13718e-06
-4.09861e-08
-2.09497e-06
-4.2179e-08
-2.05158e-06
-4.33509e-08
-2.00704e-06
-4.45033e-08
-1.9614e-06
-4.56267e-08
-1.91465e-06
-4.67203e-08
-1.86685e-06
-4.77796e-08
-1.818e-06
-4.87954e-08
-1.76817e-06
-4.97794e-08
-1.7174e-06
-5.07091e-08
-1.66574e-06
-5.16059e-08
-1.61323e-06
-5.24587e-08
-1.55991e-06
-5.3266e-08
-1.50583e-06
-5.4022e-08
-1.45104e-06
-5.47275e-08
-1.3956e-06
-5.53853e-08
-1.33956e-06
-5.59957e-08
-1.28297e-06
-5.65617e-08
-1.22587e-06
-5.7079e-08
-1.16832e-06
-5.75467e-08
-1.11037e-06
-5.79608e-08
-1.05206e-06
-5.83223e-08
-9.93439e-07
-5.86328e-08
-9.34564e-07
-5.88952e-08
-8.75475e-07
-5.9111e-08
-8.16216e-07
-5.92828e-08
-7.56828e-07
-5.94128e-08
-6.97349e-07
-5.95037e-08
-6.37816e-07
-5.95576e-08
-5.78263e-07
-5.95777e-08
-5.18719e-07
-5.95674e-08
-4.59213e-07
-5.95295e-08
-3.99769e-07
-5.94675e-08
-3.40408e-07
-5.93846e-08
-2.81149e-07
-5.92836e-08
-2.22002e-07
-5.91707e-08
-1.62975e-07
-5.90514e-08
-1.04073e-07
-5.89256e-08
-4.53352e-08
-5.87634e-08
1.31607e-08
-5.85191e-08
7.14744e-08
-5.83395e-08
1.29578e-07
-5.81252e-08
1.87281e-07
-5.77263e-08
2.44467e-07
-5.72046e-08
3.0092e-07
-5.64731e-08
3.56282e-07
-5.53774e-08
4.09878e-07
-5.36136e-08
4.6049e-07
-5.06249e-08
5.05382e-07
-4.49082e-08
5.40884e-07
-3.5515e-08
3.19934e-09
5.3767e-07
-4.04725e-09
1.16303e-08
-1.05936e-08
1.97659e-08
-1.28838e-08
1.60252e-08
-3.0027e-09
1.18113e-09
2.22089e-08
-2.19045e-08
6.02484e-08
-4.69934e-08
1.05479e-07
-6.70738e-08
1.52267e-07
-7.84593e-08
1.9611e-07
-8.0937e-08
2.34249e-07
-7.60667e-08
2.65499e-07
-6.59544e-08
2.8935e-07
-5.26078e-08
3.05853e-07
-3.75918e-08
3.15387e-07
-2.19989e-08
3.18466e-07
-6.60154e-09
3.15714e-07
8.03557e-09
3.07387e-07
2.14977e-08
2.93747e-07
3.32815e-08
2.75062e-07
4.26777e-08
2.52127e-07
4.88665e-08
2.26214e-07
5.10507e-08
1.99415e-07
4.86677e-08
1.74329e-07
4.16527e-08
1.53882e-07
3.0486e-08
1.40459e-07
1.6205e-08
1.35831e-07
1.65113e-10
1.3941e-07
-1.51887e-08
1.47135e-07
-2.58564e-08
1.53189e-07
-2.83481e-08
1.51909e-07
-2.05254e-08
1.39493e-07
-4.58445e-09
1.10593e-07
1.74296e-08
5.64568e-08
4.68873e-08
-3.19428e-08
8.27086e-08
-1.5294e-07
1.22241e-07
-2.97171e-07
1.61751e-07
-4.54562e-07
1.99076e-07
-6.17963e-07
2.32655e-07
-7.85005e-07
2.59381e-07
-9.51825e-07
2.78658e-07
-1.11392e-06
2.90461e-07
-1.26724e-06
2.94454e-07
-1.40903e-06
2.90705e-07
-1.53681e-06
2.80339e-07
-1.64927e-06
2.65177e-07
-1.74725e-06
2.46552e-07
-1.83154e-06
2.26013e-07
-1.90487e-06
2.04946e-07
-1.96684e-06
1.84846e-07
-2.02005e-06
1.66046e-07
-2.06763e-06
1.48343e-07
-2.10915e-06
1.33078e-07
-2.14577e-06
1.19788e-07
-2.17941e-06
1.07934e-07
-2.21084e-06
9.76166e-08
-2.23992e-06
8.89938e-08
-2.26698e-06
8.16588e-08
-2.29251e-06
7.52984e-08
-2.31669e-06
6.98144e-08
-2.33967e-06
6.50718e-08
-2.36157e-06
6.09461e-08
-2.38249e-06
5.73275e-08
-2.4025e-06
5.41282e-08
-2.42167e-06
5.12708e-08
-2.44003e-06
4.86961e-08
-2.45764e-06
4.63497e-08
-2.47451e-06
4.41912e-08
-2.49067e-06
4.2183e-08
-2.50613e-06
4.02981e-08
-2.52092e-06
3.85093e-08
-2.53503e-06
3.67982e-08
-2.54847e-06
3.51473e-08
-2.56126e-06
3.35424e-08
-2.57337e-06
3.19711e-08
-2.58482e-06
3.04236e-08
-2.5956e-06
2.88916e-08
-2.60571e-06
2.73669e-08
-2.61514e-06
2.58448e-08
-2.62389e-06
2.43185e-08
-2.63195e-06
2.27861e-08
-2.63932e-06
2.1241e-08
-2.64598e-06
1.96839e-08
-2.65193e-06
1.81081e-08
-2.65714e-06
1.65163e-08
-2.66164e-06
1.49009e-08
-2.66537e-06
1.32645e-08
-2.66836e-06
1.15977e-08
-2.6706e-06
9.90283e-09
-2.67213e-06
8.17075e-09
-2.67293e-06
6.41012e-09
-2.673e-06
4.62629e-09
-2.67235e-06
2.82769e-09
-2.67106e-06
1.02257e-09
-2.66919e-06
-7.75126e-10
-2.66677e-06
-2.54805e-09
-2.66366e-06
-4.32493e-09
-2.65969e-06
-6.14324e-09
-2.65483e-06
-8.00112e-09
-2.64904e-06
-9.89731e-09
-2.6423e-06
-1.18328e-08
-2.63458e-06
-1.38084e-08
-2.62588e-06
-1.58226e-08
-2.61616e-06
-1.78763e-08
-2.60541e-06
-1.99676e-08
-2.59361e-06
-2.20977e-08
-2.58074e-06
-2.42646e-08
-2.56677e-06
-2.64691e-08
-2.55169e-06
-2.8709e-08
-2.53549e-06
-3.09849e-08
-2.51815e-06
-3.32941e-08
-2.49964e-06
-3.56369e-08
-2.47996e-06
-3.80104e-08
-2.45908e-06
-4.04143e-08
-2.43701e-06
-4.28454e-08
-2.41371e-06
-4.53027e-08
-2.38918e-06
-4.7783e-08
-2.36342e-06
-5.02843e-08
-2.3364e-06
-5.28035e-08
-2.30813e-06
-5.53373e-08
-2.27859e-06
-5.78829e-08
-2.24779e-06
-6.04355e-08
-2.21572e-06
-6.29927e-08
-2.18237e-06
-6.55481e-08
-2.14776e-06
-6.80998e-08
-2.11189e-06
-7.06401e-08
-2.07475e-06
-7.31678e-08
-2.03637e-06
-7.5674e-08
-1.99675e-06
-7.81576e-08
-1.95591e-06
-8.06085e-08
-1.91386e-06
-8.30233e-08
-1.87063e-06
-8.53938e-08
-1.82623e-06
-8.77209e-08
-1.78071e-06
-9e-08
-1.7341e-06
-9.22265e-08
-1.68642e-06
-9.43899e-08
-1.6377e-06
-9.64837e-08
-1.58796e-06
-9.84995e-08
-1.53727e-06
-1.00437e-07
-1.48566e-06
-1.02287e-07
-1.43317e-06
-1.04059e-07
-1.37986e-06
-1.05744e-07
-1.32575e-06
-1.07336e-07
-1.27091e-06
-1.08826e-07
-1.21539e-06
-1.10219e-07
-1.15922e-06
-1.11515e-07
-1.10248e-06
-1.12716e-07
-1.0452e-06
-1.13823e-07
-9.87437e-07
-1.14834e-07
-9.29238e-07
-1.15745e-07
-8.7065e-07
-1.16553e-07
-8.1172e-07
-1.17259e-07
-7.52496e-07
-1.17865e-07
-6.93026e-07
-1.18377e-07
-6.33352e-07
-1.18797e-07
-5.73517e-07
-1.19131e-07
-5.13561e-07
-1.19383e-07
-4.53521e-07
-1.19557e-07
-3.93433e-07
-1.19659e-07
-3.3333e-07
-1.19695e-07
-2.73239e-07
-1.19671e-07
-2.13187e-07
-1.19594e-07
-1.53196e-07
-1.19471e-07
-9.32859e-08
-1.19308e-07
-3.34737e-08
-1.19109e-07
2.62261e-08
-1.18883e-07
8.58098e-08
-1.18648e-07
1.45271e-07
-1.18399e-07
2.04616e-07
-1.18121e-07
2.6388e-07
-1.17795e-07
3.22927e-07
-1.17399e-07
3.81655e-07
-1.16864e-07
4.40051e-07
-1.16135e-07
4.98005e-07
-1.15169e-07
5.55334e-07
-1.13813e-07
6.11728e-07
-1.11781e-07
6.66683e-07
-1.0858e-07
7.19241e-07
-1.03192e-07
7.68253e-07
-9.39315e-08
8.1009e-07
-7.73604e-08
-3.31853e-08
8.46463e-07
-4.81022e-10
1.19334e-08
3.70839e-09
1.52828e-08
2.30247e-08
-3.57032e-09
6.2829e-08
-3.87661e-08
1.17343e-07
-7.65226e-08
1.75334e-07
-1.05053e-07
2.27994e-07
-1.19786e-07
2.70998e-07
-1.21514e-07
3.0344e-07
-1.13413e-07
3.26274e-07
-9.89371e-08
3.4116e-07
-8.08652e-08
3.49655e-07
-6.1123e-08
3.52983e-07
-4.09372e-08
3.5204e-07
-2.10551e-08
3.47376e-07
-1.94653e-09
3.39504e-07
1.59259e-08
3.28831e-07
3.2171e-08
3.15761e-07
4.63819e-08
3.00403e-07
5.80416e-08
2.82832e-07
6.64766e-08
2.63087e-07
7.08144e-08
2.41805e-07
6.99974e-08
2.20263e-07
6.32263e-08
2.00482e-07
5.03087e-08
1.84402e-07
3.23106e-08
1.72366e-07
1.22064e-08
1.58052e-07
-8.76484e-10
1.2996e-07
2.20124e-09
8.19505e-08
1.96457e-08
1.18514e-08
4.95341e-08
-8.41214e-08
9.13729e-08
-2.06809e-07
1.40104e-07
-3.50824e-07
1.90906e-07
-5.09473e-07
2.41339e-07
-6.75189e-07
2.87962e-07
-8.41056e-07
3.27583e-07
-1.0003e-06
3.58316e-07
-1.14732e-06
3.79649e-07
-1.27924e-06
3.91303e-07
-1.39427e-06
3.93682e-07
-1.49157e-06
3.8778e-07
-1.57191e-06
3.74806e-07
-1.63751e-06
3.56325e-07
-1.69124e-06
3.3407e-07
-1.73575e-06
3.09692e-07
-1.77374e-06
2.84533e-07
-1.80742e-06
2.5968e-07
-1.83846e-06
2.35972e-07
-1.86761e-06
2.13982e-07
-1.89554e-06
1.93957e-07
-1.92306e-06
1.7585e-07
-1.94987e-06
1.59871e-07
-1.97592e-06
1.45842e-07
-2.00148e-06
1.33487e-07
-2.02655e-06
1.22679e-07
-2.05086e-06
1.13308e-07
-2.07435e-06
1.05155e-07
-2.09707e-06
9.80147e-08
-2.11899e-06
9.17458e-08
-2.14013e-06
8.62171e-08
-2.16049e-06
8.13134e-08
-2.18009e-06
7.69336e-08
-2.19895e-06
7.29915e-08
-2.21708e-06
6.94127e-08
-2.23451e-06
6.61351e-08
-2.25125e-06
6.31047e-08
-2.26733e-06
6.02777e-08
-2.28274e-06
5.7615e-08
-2.29752e-06
5.50849e-08
-2.31165e-06
5.26608e-08
-2.32516e-06
5.03197e-08
-2.33804e-06
4.80415e-08
-2.35029e-06
4.58111e-08
-2.36191e-06
4.36144e-08
-2.3729e-06
4.14392e-08
-2.38327e-06
3.9276e-08
-2.39299e-06
3.71162e-08
-2.40208e-06
3.49532e-08
-2.41053e-06
3.27806e-08
-2.41832e-06
3.05942e-08
-2.42546e-06
2.83894e-08
-2.43193e-06
2.61638e-08
-2.43773e-06
2.39138e-08
-2.44284e-06
2.16386e-08
-2.44727e-06
1.93348e-08
-2.451e-06
1.70021e-08
-2.45403e-06
1.46361e-08
-2.45637e-06
1.22363e-08
-2.45802e-06
9.80141e-09
-2.45897e-06
7.33277e-09
-2.4592e-06
4.84255e-09
-2.4587e-06
2.33538e-09
-2.45747e-06
-1.84357e-10
-2.4555e-06
-2.71939e-09
-2.45274e-06
-5.27786e-09
-2.44915e-06
-7.88894e-09
-2.4447e-06
-1.05656e-08
-2.43938e-06
-1.33079e-08
-2.43316e-06
-1.61105e-08
-2.42601e-06
-1.89759e-08
-2.41793e-06
-2.18997e-08
-2.40888e-06
-2.48836e-08
-2.39884e-06
-2.79247e-08
-2.3878e-06
-3.10241e-08
-2.37574e-06
-3.41794e-08
-2.36264e-06
-3.73914e-08
-2.34848e-06
-4.06577e-08
-2.33323e-06
-4.39782e-08
-2.3169e-06
-4.73507e-08
-2.29945e-06
-5.0774e-08
-2.28087e-06
-5.42459e-08
-2.26115e-06
-5.77643e-08
-2.24027e-06
-6.13269e-08
-2.21822e-06
-6.49304e-08
-2.19498e-06
-6.85726e-08
-2.17055e-06
-7.22489e-08
-2.14491e-06
-7.59568e-08
-2.11806e-06
-7.96907e-08
-2.08998e-06
-8.34477e-08
-2.06067e-06
-8.7221e-08
-2.03013e-06
-9.10069e-08
-1.99836e-06
-9.47978e-08
-1.96534e-06
-9.85891e-08
-1.93109e-06
-1.02373e-07
-1.89561e-06
-1.06143e-07
-1.8589e-06
-1.09891e-07
-1.82098e-06
-1.13611e-07
-1.78185e-06
-1.17294e-07
-1.74153e-06
-1.20932e-07
-1.70003e-06
-1.24515e-07
-1.65738e-06
-1.28036e-07
-1.61359e-06
-1.31489e-07
-1.56871e-06
-1.34869e-07
-1.52277e-06
-1.38169e-07
-1.47578e-06
-1.41374e-07
-1.42778e-06
-1.44475e-07
-1.3788e-06
-1.47464e-07
-1.32888e-06
-1.50334e-07
-1.27806e-06
-1.5308e-07
-1.2264e-06
-1.55703e-07
-1.17393e-06
-1.58195e-07
-1.1207e-06
-1.60548e-07
-1.06675e-06
-1.62753e-07
-1.01213e-06
-1.64812e-07
-9.56898e-07
-1.66727e-07
-9.01099e-07
-1.68498e-07
-8.44783e-07
-1.70126e-07
-7.88e-07
-1.7161e-07
-7.30796e-07
-1.72946e-07
-6.73216e-07
-1.74131e-07
-6.15306e-07
-1.75167e-07
-5.57113e-07
-1.76057e-07
-4.98682e-07
-1.76808e-07
-4.40055e-07
-1.77424e-07
-3.81273e-07
-1.77913e-07
-3.22374e-07
-1.78281e-07
-2.63396e-07
-1.78535e-07
-2.0437e-07
-1.78684e-07
-1.45328e-07
-1.78736e-07
-8.62975e-08
-1.78702e-07
-2.73014e-08
-1.78591e-07
3.16396e-08
-1.78413e-07
9.05061e-08
-1.78176e-07
1.49286e-07
-1.77891e-07
2.07968e-07
-1.77568e-07
2.66537e-07
-1.77221e-07
3.24983e-07
-1.7685e-07
3.83307e-07
-1.7645e-07
4.41499e-07
-1.75992e-07
4.99508e-07
-1.75414e-07
5.57283e-07
-1.74645e-07
6.14778e-07
-1.73637e-07
6.71899e-07
-1.72295e-07
7.2849e-07
-1.70412e-07
7.84314e-07
-1.6761e-07
8.38997e-07
-1.63269e-07
8.91996e-07
-1.56195e-07
9.42651e-07
-1.44592e-07
9.90037e-07
-1.24751e-07
-8.19299e-08
1.03878e-06
1.22187e-10
1.16497e-08
1.97176e-08
-4.56487e-09
6.97149e-08
-5.37043e-08
1.37364e-07
-1.06496e-07
2.03397e-07
-1.42606e-07
2.55849e-07
-1.57548e-07
2.91452e-07
-1.55419e-07
3.12278e-07
-1.42371e-07
3.22271e-07
-1.23429e-07
3.25097e-07
-1.01786e-07
3.23402e-07
-7.91894e-08
3.18805e-07
-5.65355e-08
3.12152e-07
-3.42975e-08
3.03881e-07
-1.27776e-08
2.94197e-07
7.73537e-09
2.83195e-07
2.69498e-08
2.70832e-07
4.45398e-08
2.57161e-07
6.00866e-08
2.42187e-07
7.30307e-08
2.26001e-07
8.27152e-08
2.08446e-07
8.83986e-08
1.89559e-07
8.89569e-08
1.69851e-07
8.29768e-08
1.50014e-07
7.02112e-08
1.25233e-07
5.71198e-08
8.49779e-08
5.24749e-08
2.24131e-08
6.16899e-08
-6.39968e-08
8.8592e-08
-1.75091e-07
1.30733e-07
-3.09112e-07
1.83539e-07
-4.59221e-07
2.41482e-07
-6.17854e-07
2.98724e-07
-7.7769e-07
3.50746e-07
-9.30985e-07
3.94615e-07
-1.07085e-06
4.27832e-07
-1.19322e-06
4.49923e-07
-1.29651e-06
4.61607e-07
-1.38054e-06
4.63666e-07
-1.44664e-06
4.57408e-07
-1.49728e-06
4.44316e-07
-1.53547e-06
4.25987e-07
-1.5646e-06
4.03938e-07
-1.58783e-06
3.79571e-07
-1.60784e-06
3.54075e-07
-1.62654e-06
3.28397e-07
-1.64525e-06
3.0324e-07
-1.66471e-06
2.79136e-07
-1.68523e-06
2.56475e-07
-1.70675e-06
2.35496e-07
-1.72911e-06
2.16305e-07
-1.75214e-06
1.98879e-07
-1.77551e-06
1.83228e-07
-1.79891e-06
1.6924e-07
-1.82219e-06
1.56764e-07
-1.84519e-06
1.45675e-07
-1.86772e-06
1.35841e-07
-1.88968e-06
1.27117e-07
-1.91102e-06
1.19356e-07
-1.9317e-06
1.12431e-07
-1.95171e-06
1.06225e-07
-1.97103e-06
1.00637e-07
-1.98966e-06
9.55743e-08
-2.00762e-06
9.09563e-08
-2.02492e-06
8.67124e-08
-2.04155e-06
8.27813e-08
-2.05755e-06
7.91098e-08
-2.07291e-06
7.56517e-08
-2.08766e-06
7.23678e-08
-2.10178e-06
6.92244e-08
-2.1153e-06
6.61918e-08
-2.12822e-06
6.32457e-08
-2.14053e-06
6.03657e-08
-2.15223e-06
5.75329e-08
-2.16333e-06
5.47321e-08
-2.17383e-06
5.19508e-08
-2.18371e-06
4.91777e-08
-2.19298e-06
4.64035e-08
-2.20163e-06
4.36205e-08
-2.20966e-06
4.08222e-08
-2.21706e-06
3.80033e-08
-2.22382e-06
3.51593e-08
-2.22994e-06
3.22871e-08
-2.2354e-06
2.93835e-08
-2.2402e-06
2.64468e-08
-2.24434e-06
2.34746e-08
-2.2478e-06
2.04654e-08
-2.25057e-06
1.74169e-08
-2.25266e-06
1.43277e-08
-2.25408e-06
1.11949e-08
-2.25479e-06
8.02299e-09
-2.25477e-06
4.81488e-09
-2.254e-06
1.57523e-09
-2.25246e-06
-1.69631e-09
-2.25015e-06
-5.00882e-09
-2.24702e-06
-8.37387e-09
-2.24307e-06
-1.18117e-08
-2.23829e-06
-1.5331e-08
-2.23265e-06
-1.89344e-08
-2.22613e-06
-2.26183e-08
-2.21872e-06
-2.63838e-08
-2.2104e-06
-3.02272e-08
-2.20114e-06
-3.41496e-08
-2.19093e-06
-3.8148e-08
-2.17974e-06
-4.22234e-08
-2.16757e-06
-4.6373e-08
-2.15438e-06
-5.05973e-08
-2.14016e-06
-5.48936e-08
-2.1249e-06
-5.92613e-08
-2.10858e-06
-6.36976e-08
-2.09117e-06
-6.82011e-08
-2.07268e-06
-7.27684e-08
-2.05307e-06
-7.73973e-08
-2.03234e-06
-8.20841e-08
-2.01047e-06
-8.68253e-08
-1.98745e-06
-9.16171e-08
-1.96327e-06
-9.64544e-08
-1.93792e-06