/*--------------------------------*- C++ -*----------------------------------*\
  =========                 |
  \\      /  F ield         | OpenFOAM: The Open Source CFD Toolbox
   \\    /   O peration     | Website:  https://openfoam.org
    \\  /    A nd           | Version:  8
     \\/     M anipulation  |
\*---------------------------------------------------------------------------*/
FoamFile
{
    version     2.0;
    format      ascii;
    class       volVectorField;
    location    "1100";
    object      wallShearStress;
}
// * * * * * * * * * * * * * * * * * * * * * * * * * * * * * * * * * * * * * //

dimensions      [0 2 -2 0 0 0 0];

internalField   uniform (0 0 0);

boundaryField
{
    inlet
    {
        type            calculated;
        value           uniform (0 0 0);
    }
    outlet
    {
        type            calculated;
        value           uniform (0 0 0);
    }
    upperWall
    {
        type            calculated;
        value           nonuniform List<vector> 
223
(
(-0.440931 -0.0461834 0)
(-0.492272 -0.0453826 0)
(-0.534628 -0.0338444 0)
(-0.541906 -0.0219457 0)
(-0.538264 -0.0133068 0)
(-0.528538 -0.00776343 0)
(-0.517864 -0.00429095 0)
(-0.507071 -0.00213527 0)
(-0.49626 -0.000808543 0)
(-0.486223 3.60689e-06 0)
(-0.477084 0.000496675 0)
(-0.468821 0.000791448 0)
(-0.461377 0.000961303 0)
(-0.454661 0.00105322 0)
(-0.448597 0.0010967 0)
(-0.443103 0.00111357 0)
(-0.438093 0.00111585 0)
(-0.433533 0.00115661 0)
(-0.42983 0.00122888 0)
(-0.426869 0.0012844 5.31639e-22)
(-0.423951 0.00129906 0)
(-0.421096 0.00128594 0)
(-0.418304 0.00125567 0)
(-0.41558 0.0012133 5.44923e-22)
(-0.412931 0.00116492 0)
(-0.410357 0.00111228 0)
(-0.40786 0.00105936 0)
(-0.405436 0.00100606 -1.11392e-21)
(-0.403085 0.000954751 1.11973e-21)
(-0.400804 0.00090484 1.12546e-21)
(-0.398592 0.000857828 0)
(-0.396445 0.000812917 -1.13675e-21)
(-0.394361 0.000771037 0)
(-0.392338 0.000731506 1.14784e-21)
(-0.390373 0.000694672 1.15332e-21)
(-0.388464 0.000660203 -1.15877e-21)
(-0.386608 0.000628336 0)
(-0.384803 0.000598768 0)
(-0.383047 0.000571332 0)
(-0.381338 0.000546041 0)
(-0.379673 0.000522753 -1.18589e-21)
(-0.378051 0.000501524 0)
(-0.376467 0.00048214 0)
(-0.374922 0.000464527 1.20214e-21)
(-0.373412 0.000448705 0)
(-0.371935 0.000434362 1.21301e-21)
(-0.370489 0.000421545 -1.21845e-21)
(-0.369073 0.000410163 1.2239e-21)
(-0.367682 0.00040008 0)
(-0.366318 0.000391201 0)
(-0.364975 0.000383452 0)
(-0.363655 0.00037662 1.24576e-21)
(-0.362353 0.000370889 -1.25122e-21)
(-0.361071 0.000365944 0)
(-0.359803 0.000361767 0)
(-0.358552 0.000358304 0)
(-0.357312 0.000355478 0)
(-0.356086 0.000353226 0)
(-0.35487 0.000351647 0)
(-0.353664 0.000350452 0)
(-0.352465 0.000349676 0)
(-0.351274 0.000349465 1.29934e-21)
(-0.350087 0.000349665 -1.30446e-21)
(-0.348906 0.000350317 0)
(-0.347725 0.000351222 0)
(-0.346549 0.000352437 0)
(-0.34537 0.000353949 -1.32399e-21)
(-0.344194 0.000355649 0)
(-0.343012 0.000357655 0)
(-0.341833 0.000359898 0)
(-0.340642 0.000362299 0)
(-0.339456 0.000364818 0)
(-0.338252 0.000367518 -2.69869e-21)
(-0.337057 0.000370532 0)
(-0.335831 0.000373896 0)
(-0.334622 0.00037714 0)
(-0.333375 0.000380598 0)
(-0.332137 0.00038486 0)
(-0.330882 0.000388233 0)
(-0.32959 0.00039303 0)
(-0.328322 0.000396298 2.74652e-21)
(-0.327043 0.000407346 0)
(-0.325601 0.000533065 0)
(-0.324303 0.000511633 0)
(-0.32268 0.000102558 -2.7546e-21)
(-0.32219 6.76088e-05 0)
(-0.32008 0.000299876 -2.76863e-21)
(-0.316848 0.00012314 0)
(-0.449029 -0.000127362 0)
(-0.453514 -0.000183927 0)
(-0.398534 0.000339802 -3.58223e-21)
(-0.365755 0.000884896 0)
(-0.347538 0.00080128 3.14302e-21)
(-0.332877 0.000412793 3.01409e-21)
(-0.311273 4.33156e-05 0)
(-0.425008 0.000140858 3.85397e-21)
(-0.471476 0.00200429 0)
(-0.420145 0.00137345 0)
(-0.381492 0.0022651 0)
(-0.354852 0.00165428 -3.15921e-21)
(-0.381298 0.00660719 0)
(-0.356894 0.00700541 -2.99167e-21)
(-0.352884 0.00148962 3.09293e-21)
(-0.346746 0.00082742 0)
(-0.324315 -0.00107464 0)
(-0.312 -0.00125026 0)
(-0.298029 -0.00109174 0)
(-0.296543 -0.00071087 0)
(-0.295456 -0.000739403 0)
(-0.411577 -0.00104805 0)
(-0.449379 -0.00130313 -4.16733e-21)
(-0.458098 -0.00152216 0)
(-0.461935 -0.00106086 0)
(-0.452233 0.00164056 0)
(-0.387737 0.00145072 0)
(-0.341169 0.000808537 0)
(-0.300402 0.00144787 0)
(-0.283598 -1.11625e-05 0)
(-0.36581 -0.000698322 0)
(-0.379128 0.000860172 0)
(-0.406635 0.000508525 0)
(-0.402116 0.0019401 0)
(-0.347862 0.0072848 0)
(-0.288676 0.00508311 -4.44713e-21)
(-0.273977 0.00274878 0)
(-0.273018 0.00110981 0)
(-0.270842 -0.00211966 0)
(-0.298472 -0.00254969 4.5891e-21)
(-0.340516 -0.00221272 0)
(-0.350945 -0.00170976 0)
(-0.335759 -0.000543737 4.68456e-21)
(-0.338934 0.000265816 0)
(-0.30695 -0.00019232 -3.96185e-21)
(-0.304476 0.00236785 0)
(-0.272391 0.00523131 0)
(-0.25549 0.00433184 0)
(-0.253799 0.00403329 2.48905e-21)
(-0.252304 0.00349886 0)
(-0.250504 -0.000200167 -2.05243e-21)
(-0.248145 2.39884e-05 0)
(-0.247422 9.19514e-05 0)
(-0.274326 0.000316812 0)
(-0.244523 0.000239004 0)
(-0.280816 0.000142558 0)
(-0.241528 0.000231213 0)
(-0.275282 8.9808e-05 0)
(-0.237923 0.000186554 0)
(-0.263425 -0.00239658 0)
(-0.262512 0.000576695 0)
(-0.231169 0.000599671 0)
(-0.24687 0.000743323 1.1746e-21)
(-0.227506 0.000812363 -1.37416e-21)
(-0.237326 0.000580283 0)
(-0.223652 0.000722842 0)
(-0.227109 0.000963409 0)
(-0.219427 0.00193992 0)
(-0.25078 0.00017759 -3.83857e-21)
(-0.26201 -0.000781638 4.78532e-21)
(-0.2476 -0.000374302 -5.10442e-21)
(-0.239301 -0.000849582 0)
(-0.217796 -0.0015 -5.97799e-21)
(-0.197691 -0.00044949 -1.23205e-20)
(-0.194878 0.00121206 0)
(-0.205103 0.00290038 -1.42224e-20)
(-0.195426 0.00242896 1.40641e-20)
(-0.201374 -0.000171733 0)
(-0.194271 -0.00196054 0)
(-0.188454 -0.0011382 0)
(-0.185004 0.00140926 0)
(-0.187538 0.00145901 0)
(-0.183022 0.000445105 -2.23989e-20)
(-0.181643 0.000415213 0)
(-0.1781 -0.000203368 -2.48577e-20)
(-0.173418 -0.000161245 0)
(-0.169965 -0.000642969 0)
(-0.16657 0.00125379 0)
(-0.170406 0.00140488 0)
(-0.167204 0.00095975 0)
(-0.168513 0.00244 3.24649e-20)
(-0.168543 0.00174351 0)
(-0.167525 0.000842759 0)
(-0.165563 0.000477511 -3.72592e-20)
(-0.163654 0.000448541 0)
(-0.1615 0.000403624 0)
(-0.158376 0.000251736 0)
(-0.153299 3.80325e-05 4.66517e-20)
(-0.145986 0.000120577 0)
(-0.136894 0.000461406 0)
(-0.12672 0.00086512 0)
(-0.11657 0.0011175 0)
(-0.107403 0.00116417 -7.7646e-20)
(-0.0998036 0.00101815 0)
(-0.093759 0.000861137 0)
(-0.0883527 0.000795553 0)
(-0.0833487 0.000904603 1.05594e-19)
(-0.075591 0.00114935 0)
(-0.0710528 0.00186043 0)
(-0.0423905 0.00160876 -1.48013e-19)
(-0.0730965 0.00105107 0)
(-0.107186 0.00636843 1.28644e-17)
(-0.130417 0.0107143 2.31957e-17)
(-0.142759 0.0132739 2.18744e-17)
(-0.150194 0.0146981 2.10624e-17)
(-0.155927 0.0155873 2.03926e-17)
(-0.160539 0.0162164 -1.98141e-17)
(-0.164161 0.0166839 -1.92817e-17)
(-0.16724 0.0170453 -1.20371e-35)
(-0.170149 0.0173495 -3.65993e-17)
(-0.173173 0.0176391 -1.78066e-17)
(-0.1764 0.0179379 5.35649e-34)
(-0.180007 0.0182636 0)
(-0.184062 0.0186299 -3.21981e-17)
(-0.188628 0.019043 -3.08247e-17)
(-0.193796 0.0195128 -2.92759e-17)
(-0.199575 0.0200415 0)
(-0.206082 0.0206359 5.12333e-17)
(-0.213449 0.0213115 2.34377e-17)
(-0.221514 0.0220539 1.20371e-35)
(-0.231339 0.0229491 -3.63807e-17)
(-0.240484 0.0238206 -1.19786e-20)
(-0.256297 0.0251871 0)
(-0.260828 0.0259891 1.36156e-17)
(-0.291271 0.027883 -7.64577e-18)
)
;
    }
    lowerWall
    {
        type            calculated;
        value           nonuniform List<vector> 
250
(
(-0.662813 0.104608 0)
(-0.832645 0.103056 0)
(-1.06031 0.0893014 0)
(-0.81513 0.0431174 0)
(-0.87104 0.0187455 0)
(-0.749198 -0.00553762 0)
(-0.608031 -0.0166306 0)
(-0.587376 -0.0104299 0)
(-0.570676 0.0055263 0)
(-0.551779 0.0076323 0)
(-0.525902 0.00822221 0)
(-0.485896 0.00408806 0)
(-0.480469 0.00408867 0)
(-0.47519 0.00492873 0)
(-0.471262 0.00307512 0)
(-0.465212 0.00267706 0)
(-0.460726 0.00286535 0)
(-0.571771 0.00268954 0)
(0.00305445 -0.00762044 0)
(0.00318857 -0.0117343 0)
(0.0033332 -0.0157487 0)
(0.00353484 -0.0196183 7.0584e-20)
(0.00389922 -0.0232395 -6.33608e-20)
(0.00468175 -0.0276315 5.89461e-20)
(0.00333584 -0.0319918 -5.61328e-20)
(-0.00129366 -0.0505569 0)
(-0.0778073 -0.116562 0)
(0.000220939 -0.000251395 0)
(9.20468e-05 -0.000759576 0)
(3.3513e-05 -0.000902545 0)
(6.81331e-05 -0.000957927 0)
(-1.23089e-05 -0.000760943 1.54848e-19)
(-0.000338462 0.0001666 -1.36504e-19)
(-0.000996194 0.00240495 0)
(-0.00161903 0.00599579 -1.42504e-19)
(-0.00176173 0.00985245 1.12632e-19)
(-0.00140556 0.0129554 0)
(-0.000792757 0.014799 0)
(-0.000147835 0.0152496 0)
(0.000396276 0.0144055 0)
(0.000880926 0.0126442 0)
(0.00137784 0.00995608 0)
(0.00190605 0.00640495 0)
(0.0024758 0.00209791 0)
(0.00290641 -0.00287576 0)
(-0.000128138 -0.000262421 0)
(0.000168926 -0.00041906 0)
(0.000465793 -0.000456516 0)
(0.000751172 -0.000374638 0)
(0.000952899 -0.000150929 -0)
(0.000947203 0.000188397 -0)
(0.000688861 0.000568454 1.56751e-20)
(0.000213107 0.000890323 -1.74764e-20)
(-0.000399608 0.00108202 -0)
(-0.0010606 0.00112282 -1.07513e-20)
(-0.00169536 0.00102965 -0)
(-0.00224577 0.000835934 0)
(-0.00267358 0.000577414 -0)
(-0.00295839 0.000285062 6.43043e-21)
(-0.00309299 -2.07375e-05 0)
(-0.00306756 -0.000316062 0)
(-0.00288839 -0.000568676 -6.54083e-21)
(-0.00257933 -0.000750125 -0)
(-0.00217387 -0.000838453 0)
(-0.00171509 -0.00082114 -0)
(-0.00125572 -0.000701462 1.02113e-20)
(-0.000849063 -0.000503494 0)
(-0.000536405 -0.000267568 1.48474e-20)
(-0.000336505 -3.38536e-05 0)
(-0.000251605 0.000183104 0)
(-0.000293668 0.000366709 1.96e-20)
(-0.00044202 0.000516818 0)
(-0.000693976 0.000649893 -1.42381e-20)
(-0.00104782 0.00074367 0)
(-0.00144889 0.000743569 1.00781e-20)
(-0.00179555 0.000642831 0)
(-0.00202576 0.000506033 0)
(-0.00212835 0.000422088 0)
(-0.00216926 0.0004631 0)
(-0.00220088 0.000562025 0)
(-0.00219066 0.000559085 -7.83783e-21)
(-0.00195311 0.000204078 0)
(-0.00124307 -0.000531732 1.98345e-20)
(0.000188317 -0.00113865 0)
(0.00186547 -0.00180495 -9.1992e-21)
(0.00377655 -0.00259161 0)
(0.00602719 -0.00335411 0)
(0.00850137 -0.00388968 3.6491e-21)
(0.0110742 -0.00423335 0)
(0.0136783 -0.00441849 2.73485e-21)
(0.0164249 -0.00442172 -2.49322e-21)
(0.0195289 -0.00437811 -0)
(0.0231792 -0.00423942 -2.3428e-21)
(0.024532 -0.00385576 -2.10438e-21)
(0.0278771 -0.00367811 -0)
(0.0271288 -0.00286432 0)
(0.0284803 -0.00258463 0)
(0.0301685 -0.0023822 0)
(0.0313219 -0.00206905 -0)
(0.0331916 -0.00182686 1.61118e-21)
(0.0347393 -0.00167658 0)
(0.0362439 -0.00155691 -1.58073e-21)
(0.0376212 -0.00142763 -0)
(0.0389239 -0.00131298 -0)
(0.0401744 -0.00121552 1.54904e-21)
(0.0413438 -0.00113088 0)
(0.0424901 -0.00105828 -1.53375e-21)
(0.0435705 -0.000994724 -0)
(0.044632 -0.000939418 0)
(0.0456475 -0.000890592 -0)
(0.0466433 -0.000847196 1.50902e-21)
(0.047607 -0.000808312 0)
(0.0485516 -0.000773073 -0)
(0.0494721 -0.000740796 1.49212e-21)
(0.0503748 -0.000710893 0)
(0.0512575 -0.00068297 1.48064e-21)
(0.0521238 -0.000656528 0)
(0.0529724 -0.000631296 0)
(0.0538048 -0.000606998 0)
(0.0546207 -0.000583471 -1.45552e-21)
(0.0554206 -0.000560457 -0)
(0.0562046 -0.000537728 0)
(0.0569713 -0.000515258 -1.43381e-21)
(0.0577223 -0.000492869 -1.42589e-21)
(0.0584549 -0.000470514 -0)
(0.0591712 -0.000447982 -1.4089e-21)
(0.0598676 -0.000425332 0)
(0.0605467 -0.000402298 -2.7805e-21)
(0.061204 -0.000378931 -0)
(0.0618423 -0.000354927 -2.73958e-21)
(0.062457 -0.00033033 -0)
(0.0630505 -0.000304801 2.6948e-21)
(0.0636186 -0.000278424 0)
(0.0641631 -0.000250696 0)
(0.0646798 -0.000221278 0)
(0.0651678 -0.000190118 -2.59289e-21)
(0.0656252 -0.000157318 -0)
(0.0660514 -0.000123012 2.53579e-21)
(0.0664451 -8.81751e-05 0)
(0.0668077 -5.51728e-05 -2.47508e-21)
(0.0671404 -2.80644e-05 -2.44268e-21)
(0.0674441 -4.81319e-06 -2.40889e-21)
(0.0677227 1.83099e-05 0)
(0.0679729 4.15143e-05 0)
(0.068195 6.49218e-05 0)
(0.0683883 8.87961e-05 0)
(0.0685509 0.000113009 0)
(0.0686828 0.000137601 0)
(0.0687824 0.000162557 0)
(0.068849 0.000187902 0)
(0.0688815 0.000213517 2.03697e-21)
(0.0688791 0.000239525 1.98703e-21)
(0.0688407 0.000265784 0)
(0.0687657 0.000292356 0)
(0.068653 0.000319159 0)
(0.0685017 0.000346224 1.7673e-21)
(0.0683112 0.000373498 0)
(0.0680805 0.000400978 0)
(0.067809 0.000428639 0)
(0.0674956 0.000456407 0)
(0.0671401 0.000484327 -1.44276e-21)
(0.0667413 0.000512249 0)
(0.0662996 0.000540255 0)
(0.0658132 0.000568258 1.21793e-21)
(0.0652826 0.000596195 -1.13747e-21)
(0.0647072 0.000624017 0)
(0.0640868 0.000651834 -9.67689e-22)
(0.0634205 0.000679307 0)
(0.0627095 0.000706654 7.854e-22)
(0.0619525 0.000733683 0)
(0.0611505 0.000760457 0)
(0.0603029 0.0007867 0)
(0.0594111 0.000812657 0)
(0.0584741 0.000838092 0)
(0.0574931 0.000863044 -3.06804e-22)
(0.0564707 0.000887257 -6.81978e-23)
(0.0554095 0.000910729 0)
(0.0543091 0.000934019 0)
(0.0531546 0.000955882 0)
(0.0519834 0.000977594 -9.78987e-22)
(0.0507453 0.000997815 0)
(0.0494999 0.00101759 0)
(0.0481881 0.00103634 0)
(0.0468623 0.0010537 -2.19521e-21)
(0.0455017 0.00107068 2.52984e-21)
(0.0441118 0.0010865 0)
(0.0426947 0.00110139 0)
(0.0412491 0.00111517 3.61832e-21)
(0.0397812 0.00112804 4.0123e-21)
(0.0382902 0.0011399 0)
(0.0367796 0.00115093 0)
(0.0352507 0.00116108 -5.30172e-21)
(0.0337058 0.00117036 5.77167e-21)
(0.0321463 0.00117883 0)
(0.0305743 0.00118641 0)
(0.0289918 0.00119315 7.32511e-21)
(0.0274009 0.00119914 0)
(0.0258033 0.00120449 0)
(0.0242008 0.00120927 9.14077e-21)
(0.0225949 0.00121358 0)
(0.0209872 0.00121751 1.05365e-20)
(0.0193793 0.00122119 0)
(0.0177725 0.00122472 0)
(0.0161682 0.00122822 0)
(0.0145674 0.00123185 -1.39363e-20)
(0.0129709 0.00123575 0)
(0.0113797 0.00124007 0)
(0.00979425 0.00124499 0)
(0.00821525 0.00125079 0)
(0.00664303 0.00125834 0)
(0.00507743 0.00126846 0)
(0.00351821 0.00128061 -2.33478e-20)
(0.00196571 0.00129342 -2.53286e-20)
(0.000419928 0.00129998 0)
(-0.00111907 0.00128093 0)
(-0.00264934 0.00124201 0)
(-0.00416828 0.00120188 2.45074e-20)
(-0.00567401 0.00116205 0)
(-0.00716167 0.00112086 -4.49493e-20)
(-0.00862455 0.00107495 4.32549e-20)
(-0.010044 0.00102063 4.17645e-20)
(-0.0114131 0.000941491 -4.04863e-20)
(-0.0125901 0.000837479 3.94562e-20)
(-0.0138385 0.000620772 -3.87863e-20)
(-0.013415 0.000127374 0)
(-0.0157766 0.00034623 -2.39757e-18)
(-0.0194341 -0.000102713 -2.23171e-18)
(-0.0230787 -0.000577688 0)
(-0.0265364 -0.000993369 -3.9448e-18)
(-0.0300692 -0.0013949 -7.45672e-18)
(-0.0337719 -0.00179859 -3.53136e-18)
(-0.0376654 -0.00220982 3.34913e-18)
(-0.0417554 -0.00263514 -1.80556e-35)
(-0.0460999 -0.00308191 6.01853e-36)
(-0.0507267 -0.0035549 2.87092e-18)
(-0.0556588 -0.00405816 2.72801e-18)
(-0.0609289 -0.00459594 6.01853e-36)
(-0.0665726 -0.00517216 0)
(-0.0726273 -0.00579141 0)
(-0.079162 -0.00645876 -7.07648e-35)
(-0.0861677 -0.00717805 -2.58609e-35)
(-0.0938752 -0.00796084 6.92131e-35)
(-0.102 -0.00880309 -3.57694e-18)
(-0.11138 -0.00973277 -3.28837e-18)
(-0.120751 -0.0107401 6.01853e-36)
(-0.132687 -0.011825 5.26123e-18)
(-0.143425 -0.0131375 8.89431e-18)
(-0.160656 -0.0143153 0)
(-0.169212 -0.0161615 -4.38322e-18)
(-0.205184 -0.0171643 -1.80556e-35)
)
;
    }
    frontAndBack
    {
        type            empty;
    }
}


// ************************************************************************* //
