/*--------------------------------*- C++ -*----------------------------------*\
  =========                 |
  \\      /  F ield         | OpenFOAM: The Open Source CFD Toolbox
   \\    /   O peration     | Website:  https://openfoam.org
    \\  /    A nd           | Version:  8
     \\/     M anipulation  |
\*---------------------------------------------------------------------------*/
FoamFile
{
    version     2.0;
    format      ascii;
    class       volScalarField;
    location    "1600";
    object      nut;
}
// * * * * * * * * * * * * * * * * * * * * * * * * * * * * * * * * * * * * * //

dimensions      [0 2 -1 0 0 0 0];

internalField   nonuniform List<scalar> 
12225
(
5.94874e-06
1.65164e-05
2.47761e-05
2.73651e-05
3.56128e-05
3.82475e-05
3.83788e-05
2.96821e-05
2.1658e-05
1.90725e-05
2.81816e-05
2.98337e-05
2.75373e-05
3.27991e-05
3.23776e-05
2.57877e-05
2.19825e-05
2.03119e-05
0.00010744
5.28774e-05
4.73152e-05
4.74159e-05
5.25518e-05
5.31186e-05
5.82281e-05
5.44687e-05
4.88902e-05
4.43121e-05
4.89355e-05
5.06243e-05
5.10371e-05
4.96085e-05
4.96226e-05
4.85237e-05
5.04308e-05
5.05126e-05
0.000425854
0.000274343
0.000174624
0.000125828
0.000100092
8.22773e-05
7.54881e-05
6.97451e-05
6.58302e-05
6.11014e-05
5.7387e-05
5.44802e-05
5.1787e-05
4.94839e-05
4.88016e-05
4.80348e-05
4.81067e-05
4.75091e-05
0.000756926
0.000651602
0.000506067
0.000386552
0.000322145
0.000266736
0.000235155
0.000209936
0.000193711
0.000176763
0.000163392
0.000150553
0.0001412
0.000132472
0.000127366
0.000121838
0.000119011
0.00011425
0.000900388
0.000868551
0.000797462
0.000697591
0.000629042
0.000559864
0.000511891
0.000466074
0.000434585
0.00040062
0.000375188
0.000347941
0.000329203
0.000309619
0.000297956
0.000284373
0.000277782
0.000266976
0.000933328
0.000928655
0.000906493
0.000867947
0.000829564
0.000784771
0.000749552
0.000709115
0.000677661
0.000640969
0.000611653
0.000578829
0.000554588
0.00052871
0.000512091
0.000492897
0.000483186
0.000467923
0.000936504
0.000935971
0.000931614
0.000922445
0.000908412
0.000889866
0.00087441
0.000853476
0.000834798
0.000810512
0.000788479
0.000762762
0.000741457
0.000718565
0.000702275
0.000684011
0.000673719
0.000659098
0.000936588
0.000936905
0.000935371
0.000932595
0.000927827
0.000920726
0.000913834
0.000904837
0.000895681
0.000882797
0.000869374
0.000853267
0.000838263
0.000822187
0.000809452
0.000795696
0.000786722
0.000775424
0.000936822
0.00093653
0.000935529
0.000934494
0.000932716
0.00093015
0.00092754
0.000923724
0.000919589
0.000914466
0.0009075
0.000898874
0.000889945
0.000880007
0.000871666
0.000862275
0.000856126
0.000847532
0.000936974
0.000936305
0.000935433
0.000934678
0.00093376
0.000932749
0.000931594
0.000930453
0.000928696
0.000926594
0.000924347
0.000920887
0.000916704
0.000911608
0.000907118
0.000901983
0.000898155
0.000893467
0.000937037
0.000936229
0.00093541
0.000934648
0.000933905
0.000933191
0.000932445
0.000931798
0.000931037
0.000930055
0.000929058
0.000927708
0.000926162
0.000924146
0.000922331
0.000920066
0.000918386
0.000916126
0.000937057
0.000936204
0.000935401
0.000934626
0.000933906
0.000933208
0.000932549
0.000931922
0.000931335
0.000930696
0.000930082
0.000929372
0.00092867
0.000927819
0.000927047
0.000926123
0.000925372
0.000924455
0.000937058
0.000936197
0.000935389
0.000934612
0.000933886
0.000933184
0.000932528
0.000931892
0.000931303
0.00093072
0.000930172
0.000929618
0.000929093
0.000928551
0.000928044
0.000927517
0.000927037
0.000926538
0.000937057
0.000936194
0.000935379
0.000934602
0.000933866
0.000933164
0.000932497
0.000931862
0.000931257
0.000930679
0.000930128
0.000929598
0.000929092
0.000928604
0.000928137
0.000927686
0.000927255
0.000926839
0.000937055
0.000936192
0.000935374
0.000934594
0.000933853
0.000933147
0.000932476
0.000931836
0.000931226
0.000930643
0.000930087
0.000929555
0.000929047
0.000928561
0.000928096
0.000927649
0.000927222
0.000926813
0.000937055
0.000936192
0.000935369
0.000934588
0.000933844
0.000933135
0.000932461
0.000931817
0.000931204
0.000930618
0.000930058
0.000929523
0.000929011
0.000928522
0.000928053
0.000927604
0.000927175
0.000926763
0.000937055
0.00093619
0.000935367
0.000934584
0.000933838
0.000933128
0.000932451
0.000931806
0.00093119
0.000930602
0.00093004
0.000929503
0.000928989
0.000928497
0.000928026
0.000927575
0.000927143
0.00092673
0.000937055
0.000936188
0.000935366
0.00093458
0.000933837
0.000933124
0.000932449
0.0009318
0.000931186
0.000930595
0.000930034
0.000929494
0.00092898
0.000928486
0.000928015
0.000927562
0.00092713
0.000926714
0.000937055
0.000936189
0.000935365
0.000934582
0.000933835
0.000933127
0.000932448
0.000931805
0.000931186
0.000930599
0.000930034
0.000929498
0.000928981
0.00092849
0.000928016
0.000927566
0.000927132
0.000926718
0.000937055
0.000936191
0.000935368
0.000934586
0.000933842
0.000933132
0.000932457
0.000931812
0.000931197
0.000930609
0.000930048
0.00092951
0.000928996
0.000928503
0.000928031
0.000927579
0.000927146
0.00092673
0.000937054
0.000936195
0.000935372
0.000934594
0.00093385
0.000933146
0.000932469
0.000931829
0.000931212
0.000930627
0.000930061
0.000929522
0.000928999
0.0009285
0.000928014
0.000927551
0.000927098
0.000926668
0.000937046
0.000936206
0.000935378
0.000934608
0.00093386
0.000933162
0.000932475
0.000931835
0.000931186
0.000930579
0.000929946
0.000929351
0.00092872
0.000928127
0.000927494
0.000926904
0.00092627
0.000925689
0.000937
0.000936257
0.000935395
0.00093462
0.000933838
0.000933073
0.000932269
0.000931448
0.000930499
0.000929533
0.000928366
0.000927224
0.000925843
0.000924533
0.000922996
0.000921592
0.000919966
0.000918536
0.00093681
0.000936545
0.000935413
0.000934307
0.000932969
0.000931331
0.000929398
0.000926894
0.000924016
0.000920475
0.000916672
0.000912629
0.000907868
0.000903443
0.000898429
0.000893994
0.000888989
0.000884753
0.000936575
0.000937454
0.000933684
0.000928043
0.00092302
0.00091576
0.000906888
0.000897096
0.000884964
0.000873096
0.000859733
0.000847488
0.000834243
0.000822644
0.000810238
0.000799782
0.000788432
0.000779249
0.00093838
0.000934266
0.000903676
0.000889083
0.000862142
0.000834434
0.000802992
0.000773868
0.000743399
0.000716931
0.00069015
0.000667774
0.000645186
0.000626872
0.000608036
0.000593201
0.000577404
0.000565394
0.000942428
0.000866197
0.000789065
0.000705605
0.000636114
0.000579489
0.000528418
0.000487763
0.000451284
0.000422905
0.000396774
0.000376656
0.000357359
0.000342697
0.000327916
0.000316918
0.000305211
0.000296742
0.00115993
0.000517553
0.000402055
0.000313187
0.000261747
0.000226522
0.00020008
0.000181
0.000165907
0.000154753
0.000145398
0.000138339
0.000132083
0.000127306
0.000122778
0.000119348
0.000115875
0.00011329
0.000373578
0.000110217
8.14056e-05
6.99687e-05
6.38592e-05
6.03142e-05
5.83327e-05
5.72403e-05
5.69133e-05
5.70525e-05
5.76457e-05
5.85072e-05
5.96864e-05
6.09095e-05
6.23629e-05
6.38286e-05
6.44008e-05
6.43865e-05
8.75517e-06
1.56973e-05
1.95217e-05
2.15703e-05
2.26635e-05
2.30392e-05
2.31842e-05
2.3089e-05
2.28556e-05
2.25617e-05
2.22487e-05
2.19371e-05
2.16407e-05
2.13648e-05
2.11129e-05
2.08848e-05
2.06802e-05
2.05007e-05
1.64715e-12
1.86179e-10
9.47162e-10
3.71951e-09
1.23821e-08
3.75418e-08
9.78412e-08
1.93678e-07
3.12867e-07
4.38212e-07
5.50493e-07
6.37418e-07
6.95419e-07
7.17088e-07
7.07584e-07
6.7885e-07
6.24671e-07
5.34097e-07
4.55331e-07
3.87327e-07
3.22761e-07
2.59959e-07
1.99207e-07
1.42858e-07
9.27338e-08
5.40182e-08
2.84729e-08
1.42336e-08
7.20103e-09
3.90216e-09
2.36392e-09
1.80053e-09
2.06977e-09
4.45582e-09
1.03945e-08
6.33282e-08
1.38459e-07
3.00633e-07
4.4592e-07
4.80973e-07
4.41224e-07
3.53391e-07
2.95417e-07
2.9167e-07
3.18685e-07
4.22069e-07
5.59898e-07
1.10632e-06
2.48002e-06
7.65778e-06
2.05514e-05
3.69911e-05
4.97316e-05
5.5513e-05
5.41357e-05
5.10083e-05
4.6212e-05
4.32612e-05
3.82907e-05
3.54263e-05
3.70601e-05
2.91155e-05
3.32037e-05
3.2659e-05
3.36706e-05
3.42033e-05
3.4792e-05
3.53983e-05
3.59564e-05
3.65303e-05
3.70801e-05
3.76324e-05
3.81716e-05
3.87098e-05
3.92401e-05
3.97679e-05
4.0291e-05
4.0811e-05
4.13284e-05
4.18426e-05
4.23551e-05
4.28648e-05
4.33734e-05
4.38795e-05
4.43849e-05
4.48881e-05
4.53906e-05
4.58911e-05
4.63905e-05
4.68877e-05
4.73832e-05
4.78767e-05
4.83677e-05
4.88555e-05
4.93396e-05
4.98198e-05
5.02964e-05
5.07708e-05
5.1246e-05
5.17278e-05
5.2223e-05
5.27136e-05
5.32099e-05
5.37107e-05
5.42169e-05
5.47293e-05
5.5248e-05
5.57739e-05
5.63073e-05
5.68487e-05
5.7399e-05
5.79584e-05
5.85282e-05
5.91082e-05
5.97003e-05
6.03042e-05
6.09219e-05
6.15532e-05
6.22004e-05
6.28632e-05
6.35442e-05
6.42434e-05
6.49633e-05
6.57042e-05
6.64685e-05
6.72572e-05
6.80723e-05
6.89197e-05
6.98119e-05
7.07173e-05
7.16935e-05
7.26582e-05
7.37127e-05
7.47964e-05
7.59568e-05
7.71721e-05
7.83282e-05
7.80845e-05
7.78316e-05
7.75644e-05
7.72858e-05
7.69957e-05
7.66941e-05
7.63826e-05
7.60606e-05
7.57297e-05
7.53897e-05
7.50445e-05
7.46829e-05
7.4328e-05
7.39502e-05
7.35813e-05
7.3191e-05
7.28069e-05
7.24101e-05
7.20131e-05
7.16103e-05
7.12061e-05
7.07994e-05
7.03916e-05
6.9983e-05
6.95741e-05
6.91653e-05
6.87566e-05
6.83487e-05
6.79417e-05
6.75367e-05
6.7134e-05
6.67344e-05
6.6338e-05
6.59452e-05
6.55551e-05
6.51673e-05
6.47783e-05
6.43851e-05
6.39788e-05
6.35496e-05
6.30677e-05
6.24772e-05
6.08947e-05
7.21763e-12
1.1692e-09
1.58146e-08
8.42036e-08
3.64391e-07
1.19434e-06
2.76358e-06
5.0401e-06
7.80088e-06
1.09459e-05
1.41257e-05
1.70653e-05
1.95594e-05
2.14404e-05
2.25367e-05
2.28641e-05
2.25206e-05
2.17135e-05
1.94406e-05
1.62805e-05
1.25322e-05
9.20726e-06
6.47611e-06
4.35745e-06
2.73865e-06
1.68832e-06
1.02862e-06
6.36768e-07
3.98928e-07
2.60944e-07
1.88973e-07
1.6737e-07
1.59394e-07
3.07162e-07
4.75814e-07
3.66946e-06
7.88597e-06
1.57375e-05
2.15405e-05
2.35012e-05
2.21321e-05
1.97728e-05
1.74221e-05
1.6354e-05
1.68895e-05
1.70665e-05
1.99822e-05
2.70332e-05
3.80624e-05
4.88752e-05
6.08294e-05
7.14234e-05
8.1318e-05
9.03761e-05
0.000101054
0.000111298
0.00012083
0.000135724
0.000147892
0.000160667
0.000175048
0.000184959
0.000199048
0.00021122
0.000223435
0.000235248
0.000246607
0.000257513
0.000268024
0.000278192
0.000288066
0.000297654
0.000307018
0.000316157
0.000325118
0.000333902
0.000342538
0.000351029
0.000359393
0.000367632
0.000375757
0.00038377
0.000391677
0.000399479
0.000407183
0.000414787
0.000422298
0.000429714
0.000437039
0.00044427
0.000451408
0.000458446
0.00046538
0.000472194
0.000478869
0.000485372
0.000491658
0.000497657
0.000503267
0.000508357
0.000512816
0.000517381
0.000521711
0.000525973
0.000530085
0.000534082
0.000537944
0.000541676
0.000545273
0.000548733
0.000552054
0.000555234
0.00055827
0.000561161
0.000563906
0.000566502
0.000568949
0.000571245
0.00057339
0.000575382
0.000577222
0.000578907
0.000580437
0.000581811
0.000583028
0.000584087
0.000584984
0.000585716
0.000586282
0.000586697
0.000586981
0.000586993
0.000587009
0.000586719
0.00058644
0.000586158
0.000585877
0.000585774
0.000585481
0.000585052
0.00058449
0.000583796
0.000582973
0.000582025
0.000580953
0.00057976
0.000578442
0.000576989
0.000575588
0.000573836
0.000572255
0.000570291
0.000568453
0.000566367
0.000564268
0.000562049
0.000559761
0.0005574
0.000554972
0.000552487
0.000549948
0.000547359
0.000544723
0.00054204
0.000539312
0.000536542
0.000533734
0.000530892
0.000528022
0.000525127
0.000522203
0.000519244
0.000516248
0.000513169
0.000509961
0.000506545
0.000502786
0.00049838
0.000492571
0.000476412
1.90483e-11
3.25429e-09
6.14045e-08
3.71781e-07
1.10725e-06
2.96968e-06
6.29227e-06
1.09223e-05
1.66309e-05
2.31127e-05
2.99856e-05
3.68184e-05
4.29756e-05
4.81015e-05
5.19826e-05
5.45301e-05
5.59068e-05
5.62144e-05
5.4671e-05
5.17747e-05
4.70676e-05
4.10843e-05
3.38405e-05
2.6589e-05
1.99447e-05
1.42394e-05
9.65667e-06
6.43159e-06
4.07981e-06
2.70882e-06
1.92611e-06
1.54034e-06
1.31221e-06
2.24643e-06
4.23938e-06
1.75601e-05
3.68666e-05
5.51778e-05
6.43576e-05
6.24186e-05
5.06078e-05
4.15182e-05
4.10683e-05
4.73896e-05
5.44741e-05
6.37565e-05
7.65038e-05
8.85654e-05
0.000101191
0.00011837
0.000137255
0.000158994
0.000183024
0.000209442
0.000238626
0.000268806
0.000299306
0.000331766
0.000361512
0.000391341
0.000419824
0.000447184
0.000474022
0.000499108
0.000523395
0.000546647
0.000568883
0.000590314
0.000611044
0.000631165
0.000650761
0.000669884
0.000688606
0.000706956
0.000724983
0.000742708
0.000760158
0.000777348
0.000794293
0.000811003
0.000827486
0.000843749
0.000859795
0.000875628
0.000891251
0.000906663
0.000921864
0.000936853
0.000951626
0.000966175
0.000980491
0.00099456
0.00100836
0.00102187
0.00103506
0.00104789
0.00106031
0.00107229
0.00108378
0.00109479
0.00110547
0.00111599
0.0011262
0.00113618
0.00114586
0.00115528
0.00116441
0.00117326
0.0011818
0.00119005
0.00119799
0.00120562
0.00121293
0.00121993
0.00122661
0.00123296
0.00123899
0.00124469
0.00125006
0.0012551
0.00125981
0.00126419
0.00126823
0.00127194
0.00127532
0.00127835
0.00128105
0.00128341
0.00128544
0.00128713
0.0012885
0.00128953
0.00129029
0.00129063
0.00129082
0.00129087
0.00129072
0.00129041
0.00128977
0.00128882
0.00128759
0.00128606
0.00128423
0.00128213
0.00127975
0.00127711
0.0012742
0.00127103
0.00126772
0.001264
0.00126025
0.00125605
0.00125181
0.00124723
0.0012425
0.00123756
0.00123244
0.00122716
0.00122174
0.00121619
0.00121052
0.00120475
0.00119887
0.00119289
0.00118682
0.00118066
0.00117443
0.00116813
0.00116177
0.00115537
0.00114891
0.00114239
0.00113578
0.00112902
0.00112199
0.00111454
0.00110635
0.00109667
0.00108362
0.00105429
7.02118e-11
1.18552e-08
1.87053e-07
8.37799e-07
2.53832e-06
6.99489e-06
1.38306e-05
2.30168e-05
3.38491e-05
4.52255e-05
5.62206e-05
6.62579e-05
7.48593e-05
8.14131e-05
8.63334e-05
8.94527e-05
9.07044e-05
9.04426e-05
8.88029e-05
8.55827e-05
8.09403e-05
7.53404e-05
6.789e-05
5.90109e-05
4.92e-05
3.93649e-05
3.03128e-05
2.27788e-05
1.70014e-05
1.23608e-05
9.58277e-06
7.14562e-06
7.79913e-06
1.18683e-05
2.70298e-05
5.05709e-05
6.95895e-05
7.90791e-05
7.65238e-05
7.37143e-05
7.39231e-05
7.7683e-05
8.54717e-05
9.65722e-05
0.000110955
0.000122541
0.000141723
0.00016468
0.000190933
0.000223472
0.000258817
0.000298443
0.00034039
0.000384566
0.000429791
0.00047532
0.0005201
0.000564213
0.000606338
0.000647523
0.000686758
0.000724458
0.000761099
0.00079604
0.000829665
0.00086211
0.000893486
0.000923961
0.000953635
0.000982605
0.00101096
0.00103875
0.00106605
0.00109289
0.00111931
0.00114534
0.00117099
0.00119629
0.00122124
0.00124585
0.00127013
0.00129408
0.0013177
0.00134099
0.00136395
0.00138658
0.00140888
0.00143083
0.00145244
0.00147369
0.00149456
0.00151505
0.00153514
0.00155479
0.001574
0.00159274
0.00161099
0.00162874
0.00164601
0.00166283
0.00167928
0.00169536
0.00171104
0.00172633
0.0017412
0.00175565
0.00176967
0.00178325
0.00179638
0.00180906
0.00182127
0.00183302
0.00184429
0.00185508
0.0018654
0.00187523
0.00188457
0.00189343
0.00190179
0.00190967
0.00191705
0.00192394
0.00193034
0.00193625
0.00194166
0.00194658
0.00195101
0.00195495
0.00195841
0.00196139
0.00196388
0.0019659
0.00196746
0.00196848
0.00196923
0.00196964
0.00196965
0.00196928
0.00196845
0.00196718
0.00196547
0.00196333
0.00196076
0.00195778
0.00195439
0.00195061
0.00194644
0.0019419
0.00193704
0.00193175
0.00192621
0.00192022
0.00191399
0.00190737
0.00190048
0.00189328
0.00188582
0.00187811
0.00187019
0.00186207
0.00185377
0.0018453
0.00183668
0.00182791
0.001819
0.00180995
0.00180079
0.00179153
0.00178218
0.00177278
0.00176329
0.00175372
0.00174402
0.00173411
0.00172387
0.00171308
0.00170134
0.00168757
0.00166928
0.00163451
2.41043e-10
3.58233e-08
4.22029e-07
1.98275e-06
6.86989e-06
1.64693e-05
3.0475e-05
4.71055e-05
6.44121e-05
8.07009e-05
9.48161e-05
0.000105893
0.000114082
0.00011968
0.000122755
0.000123902
0.00012339
0.00012149
0.000118409
0.000114137
0.000108697
0.00010264
9.51704e-05
8.63887e-05
7.62765e-05
6.51386e-05
5.37972e-05
4.35419e-05
3.49978e-05
2.81883e-05
2.20787e-05
2.07078e-05
2.61912e-05
4.39867e-05
6.86927e-05
8.46327e-05
9.24914e-05
9.60746e-05
9.90006e-05
0.000104205
0.000113251
0.000126986
0.000139761
0.000152719
0.000174092
0.00020294
0.000234866
0.00027375
0.000316873
0.000365079
0.000415606
0.000469025
0.000523517
0.0005788
0.000633847
0.000688292
0.000741444
0.000793268
0.000843321
0.000891886
0.00093876
0.000984356
0.00102828
0.00107074
0.00111191
0.00115191
0.00119086
0.00122889
0.00126609
0.00130254
0.00133832
0.00137349
0.00140809
0.00144216
0.00147573
0.00150882
0.00154145
0.00157362
0.00160533
0.00163661
0.00166744
0.00169783
0.00172778
0.00175728
0.00178633
0.00181493
0.00184308
0.00187076
0.00189797
0.00192471
0.00195095
0.00197669
0.00200192
0.00202663
0.0020508
0.00207442
0.00209751
0.00212006
0.0021421
0.00216362
0.00218467
0.00220521
0.00222525
0.00224476
0.00226374
0.00228218
0.00230006
0.00231738
0.00233412
0.00235028
0.00236585
0.00238082
0.0023952
0.00240897
0.00242214
0.00243469
0.00244664
0.00245797
0.00246869
0.0024788
0.00248829
0.00249718
0.00250545
0.00251311
0.00252016
0.00252661
0.00253245
0.00253769
0.00254234
0.0025464
0.00254986
0.00255276
0.00255503
0.00255667
0.00255798
0.00255876
0.00255901
0.00255874
0.00255791
0.00255655
0.00255465
0.00255223
0.00254928
0.00254581
0.00254185
0.0025374
0.00253248
0.0025271
0.00252129
0.00251501
0.00250833
0.00250118
0.00249366
0.00248571
0.00247739
0.00246869
0.00245966
0.00245032
0.00244069
0.00243081
0.0024207
0.00241036
0.00239982
0.00238908
0.00237815
0.00236705
0.00235579
0.00234439
0.00233288
0.00232125
0.00230951
0.00229767
0.00228567
0.00227346
0.00226089
0.00224775
0.00223362
0.00221746
0.00219634
0.00216135
7.69765e-10
8.79466e-08
1.05858e-06
5.37297e-06
1.74343e-05
3.66759e-05
5.97025e-05
8.30907e-05
0.00010348
0.000119588
0.000131573
0.000140321
0.000145687
0.000148585
0.000149519
0.000148872
0.000146894
0.000143783
0.000139684
0.000134555
0.000128532
0.000121922
0.000114143
0.000105283
9.45551e-05
7.88837e-05
6.37199e-05
4.96157e-05
3.8731e-05
3.361e-05
3.43499e-05
4.56374e-05
6.73106e-05
8.93478e-05
0.000104837
0.000114268
0.000120358
0.000126866
0.000137351
0.000153782
0.000164914
0.00017847
0.000201666
0.000230773
0.000266114
0.00030865
0.000355794
0.000408678
0.000464494
0.000523349
0.000583573
0.000645048
0.000706705
0.000768197
0.000828928
0.000888693
0.000946864
0.00100364
0.00105925
0.00111334
0.00116581
0.00121688
0.00126648
0.00131476
0.00136183
0.0014078
0.00145277
0.00149681
0.00154003
0.00158249
0.00162423
0.00166532
0.00170579
0.00174567
0.00178497
0.00182371
0.00186189
0.00189953
0.00193662
0.00197315
0.00200914
0.00204457
0.00207945
0.00211378
0.00214754
0.00218075
0.00221338
0.00224545
0.00227694
0.00230786
0.00233818
0.00236792
0.00239705
0.00242558
0.00245351
0.00248082
0.00250754
0.00253366
0.0025592
0.00258414
0.0026085
0.00263226
0.00265541
0.00267795
0.00269985
0.00272111
0.00274173
0.00276169
0.00278098
0.00279959
0.00281752
0.00283476
0.00285131
0.00286717
0.00288234
0.00289681
0.00291059
0.00292366
0.00293605
0.00294773
0.00295873
0.00296903
0.00297865
0.00298758
0.00299582
0.00300338
0.00301027
0.00301649
0.00302208
0.00302697
0.0030312
0.00303481
0.00303767
0.00303991
0.00304169
0.00304285
0.00304341
0.00304336
0.00304271
0.00304146
0.00303961
0.00303718
0.00303418
0.00303059
0.00302646
0.00302178
0.00301658
0.00301087
0.00300465
0.00299793
0.00299074
0.00298305
0.00297491
0.0029663
0.00295726
0.00294779
0.00293794
0.00292773
0.00291719
0.00290634
0.0028952
0.0028838
0.00287215
0.00286026
0.00284813
0.00283579
0.00282325
0.00281055
0.00279769
0.00278469
0.00277156
0.00275831
0.00274489
0.00273126
0.0027173
0.00270282
0.00268745
0.00267024
0.00264854
0.00261553
2.47729e-09
2.25652e-07
2.80624e-06
1.46422e-05
3.80103e-05
6.73312e-05
9.50467e-05
0.000117704
0.000134963
0.000147803
0.000156759
0.000162218
0.000165074
0.000165986
0.000165394
0.000163591
0.000160762
0.000157
0.000152253
0.000146444
0.000139814
0.000132156
0.000123176
0.00010724
9.14712e-05
7.75741e-05
6.49439e-05
5.53865e-05
5.30707e-05
6.15514e-05
7.61326e-05
0.000100861
0.000119465
0.000132633
0.000142207
0.000150523
0.000161544
0.000178354
0.000187831
0.000200853
0.000223304
0.000251536
0.000287194
0.000329424
0.000378193
0.000432656
0.000490851
0.000552435
0.00061579
0.000680672
0.000746175
0.000811967
0.00087747
0.000942406
0.00100618
0.00106879
0.00113065
0.00119105
0.00125012
0.00130782
0.00136414
0.00141915
0.00147288
0.00152542
0.00157684
0.00162724
0.00167667
0.00172523
0.00177297
0.00181994
0.00186619
0.00191175
0.00195665
0.00200091
0.00204453
0.00208752
0.00212988
0.0021716
0.00221268
0.00225312
0.00229291
0.00233205
0.00237054
0.00240837
0.00244554
0.00248206
0.00251791
0.00255311
0.00258765
0.00262152
0.00265474
0.00268728
0.00271917
0.00275038
0.00278092
0.0028108
0.00284
0.00286852
0.00289636
0.00292353
0.00295004
0.00297588
0.00300104
0.00302551
0.00304928
0.00307234
0.0030947
0.00311634
0.00313725
0.00315744
0.00317691
0.00319565
0.00321364
0.00323089
0.00324739
0.00326314
0.00327814
0.0032924
0.00330591
0.00331868
0.0033307
0.00334199
0.00335254
0.00336236
0.00337145
0.00337982
0.00338746
0.00339442
0.00340071
0.00340622
0.00341104
0.0034152
0.00341855
0.0034213
0.00342349
0.00342502
0.00342589
0.00342612
0.00342572
0.00342468
0.00342301
0.00342074
0.00341787
0.00341446
0.00341048
0.00340594
0.00340084
0.0033952
0.00338903
0.00338234
0.00337513
0.00336741
0.00335919
0.00335049
0.00334131
0.00333168
0.00332163
0.00331118
0.00330036
0.0032892
0.00327772
0.00326593
0.00325386
0.0032415
0.00322886
0.00321598
0.00320286
0.00318954
0.00317603
0.00316236
0.00314854
0.00313457
0.00312044
0.0031061
0.00309149
0.00307644
0.00306066
0.0030434
0.00302261
0.00299268
7.46448e-09
5.97606e-07
7.56382e-06
3.11863e-05
6.52746e-05
9.94572e-05
0.00012784
0.000148768
0.000163108
0.000171805
0.000176184
0.000177944
0.00017798
0.000176683
0.000174372
0.000171207
0.000167156
0.000162126
0.000156228
0.000149608
0.000142148
0.000133533
0.000117181
0.000100611
8.69649e-05
7.75173e-05
7.48683e-05
7.8084e-05
8.66056e-05
0.000106871
0.00013183
0.000154698
0.000168988
0.000179056
0.000190575
0.000201007
0.000208134
0.000220726
0.000240711
0.000266798
0.000300637
0.000340927
0.000388154
0.000441335
0.000499642
0.000561666
0.000626081
0.000692317
0.000759546
0.000827425
0.000895444
0.00096329
0.00103045
0.00109667
0.0011624
0.00122707
0.00129063
0.00135297
0.0014141
0.00147401
0.0015327
0.00159021
0.00164659
0.0017019
0.00175619
0.00180952
0.00186195
0.00191354
0.00196435
0.0020144
0.00206374
0.00211239
0.00216036
0.00220766
0.00225428
0.00230021
0.00234546
0.00239001
0.00243385
0.00247696
0.00251935
0.002561
0.00260192
0.0026421
0.00268155
0.00272025
0.00275822
0.00279546
0.00283199
0.00286779
0.00290287
0.00293723
0.00297088
0.00300381
0.00303604
0.00306754
0.00309832
0.00312836
0.00315769
0.00318631
0.00321424
0.00324145
0.00326794
0.00329371
0.00331875
0.00334305
0.00336661
0.00338941
0.00341146
0.00343275
0.00345326
0.00347301
0.00349198
0.00351017
0.00352759
0.00354423
0.00356009
0.00357519
0.00358951
0.00360306
0.00361585
0.00362787
0.00363914
0.00364966
0.00365942
0.00366844
0.00367673
0.00368435
0.00369121
0.00369731
0.00370271
0.00370742
0.0037113
0.00371462
0.00371729
0.00371928
0.00372061
0.00372129
0.00372132
0.0037207
0.00371945
0.00371759
0.00371511
0.00371203
0.00370837
0.00370413
0.00369932
0.00369396
0.00368805
0.0036816
0.00367462
0.00366711
0.00365908
0.00365055
0.00364152
0.00363203
0.00362209
0.00361173
0.00360097
0.00358984
0.00357836
0.00356654
0.0035544
0.00354194
0.00352918
0.00351613
0.00350282
0.00348927
0.0034755
0.00346155
0.00344742
0.00343312
0.00341866
0.003404
0.00338912
0.00337394
0.00335832
0.00334159
0.00332214
0.00329586
1.94285e-08
1.48594e-06
1.67655e-05
5.23058e-05
9.33612e-05
0.000128113
0.000153777
0.000170936
0.000181665
0.000187173
0.000188849
0.000187809
0.000185019
0.000181199
0.000176742
0.000171761
0.000166175
0.000160013
0.000153177
0.000145771
0.000137498
0.000126525
0.000113994
0.000106038
0.000100897
9.64938e-05
0.000101124
0.000116601
0.000136728
0.000157891
0.000177892
0.000194587
0.000206656
0.000215625
0.000224953
0.000236977
0.000254892
0.000278316
0.000309029
0.000346295
0.000390364
0.000440388
0.000496064
0.000556291
0.000619942
0.00068584
0.000753156
0.000821419
0.000890157
0.000959059
0.00102782
0.00109578
0.00116334
0.00123037
0.00129647
0.00136157
0.00142562
0.00148858
0.00155044
0.0016112
0.00167087
0.00172949
0.00178709
0.00184372
0.00189943
0.00195426
0.00200826
0.00206147
0.00211394
0.00216571
0.0022168
0.00226723
0.00231702
0.00236614
0.00241457
0.00246231
0.00250933
0.00255562
0.00260115
0.00264591
0.00268988
0.00273305
0.00277543
0.00281703
0.00285785
0.00289793
0.00293722
0.00297571
0.00301342
0.00305035
0.00308651
0.0031219
0.00315653
0.00319041
0.00322353
0.00325591
0.00328756
0.00331848
0.00334867
0.00337813
0.00340687
0.00343487
0.00346213
0.00348865
0.00351442
0.00353944
0.0035637
0.00358719
0.00360991
0.00363186
0.00365302
0.00367341
0.00369301
0.00371183
0.00372986
0.0037471
0.00376357
0.00377925
0.00379415
0.00380828
0.00382164
0.00383424
0.00384608
0.00385715
0.00386748
0.00387705
0.00388591
0.0038941
0.00390148
0.00390814
0.0039141
0.00391935
0.0039238
0.00392769
0.0039309
0.00393344
0.00393531
0.00393654
0.00393712
0.00393706
0.00393638
0.00393509
0.00393319
0.0039307
0.00392763
0.00392399
0.00391978
0.00391503
0.00390973
0.00390389
0.00389751
0.00389061
0.00388318
0.00387523
0.00386679
0.00385787
0.00384849
0.00383869
0.00382846
0.00381785
0.00380686
0.00379551
0.0037838
0.00377175
0.00375937
0.00374667
0.00373368
0.00372042
0.00370692
0.0036932
0.00367928
0.00366517
0.00365088
0.00363642
0.00362176
0.00360685
0.00359155
0.00357542
0.00355717
0.00353409
4.32538e-08
3.4298e-06
3.01704e-05
7.6263e-05
0.000120654
0.000154261
0.000176382
0.000190279
0.000196844
0.000197958
0.000195541
0.000190989
0.000185242
0.000178887
0.000172156
0.000164981
0.00015762
0.000149616
0.000141708
0.000133566
0.000125147
0.000117361
0.000111854
0.000111279
0.000117183
0.000128997
0.000144862
0.000162639
0.000180834
0.000197975
0.000212384
0.000223806
0.000235787
0.000249055
0.000265841
0.000286998
0.000314506
0.000348188
0.000388327
0.000434314
0.000485849
0.000542242
0.000602831
0.000666585
0.000732508
0.000799778
0.000867849
0.000936362
0.00100501
0.00107327
0.00114101
0.00120874
0.00127565
0.00134178
0.00140701
0.00147129
0.00153456
0.00159683
0.00165808
0.00171832
0.00177756
0.00183585
0.00189323
0.00194974
0.00200544
0.00206037
0.00211457
0.00216801
0.00222081
0.002273
0.0023246
0.00237563
0.00242611
0.00247607
0.00252558
0.0025745
0.00262269
0.00267009
0.00271669
0.00276246
0.00280736
0.0028514
0.00289457
0.00293686
0.00297827
0.00301879
0.00305848
0.00309738
0.00313548
0.00317281
0.00320938
0.00324519
0.00328025
0.00331456
0.00334814
0.00338098
0.00341309
0.00344448
0.00347514
0.00350506
0.00353425
0.0035627
0.00359041
0.00361737
0.00364358
0.00366904
0.00369374
0.00371768
0.00374086
0.00376327
0.0037849
0.00380575
0.00382583
0.00384513
0.00386364
0.00388138
0.00389834
0.00391452
0.00392993
0.00394458
0.00395846
0.00397159
0.00398396
0.00399558
0.00400646
0.00401659
0.00402605
0.00403476
0.00404273
0.00404998
0.00405654
0.00406238
0.0040675
0.00407202
0.00407585
0.00407902
0.00408155
0.00408343
0.00408468
0.00408532
0.00408534
0.00408477
0.00408361
0.00408187
0.00407956
0.00407669
0.00407328
0.00406933
0.00406484
0.00405982
0.00405427
0.0040482
0.00404161
0.0040345
0.00402689
0.0040188
0.00401025
0.00400127
0.00399186
0.00398205
0.00397184
0.00396125
0.00395029
0.00393896
0.00392727
0.00391524
0.00390289
0.00389025
0.00387733
0.00386416
0.00385077
0.00383717
0.00382337
0.0038094
0.00379525
0.00378092
0.00376631
0.0037511
0.00373426
0.00371466
8.21006e-08
7.00696e-06
4.47041e-05
9.70746e-05
0.000142969
0.00017544
0.000195623
0.000205121
0.000207167
0.000204317
0.000198461
0.000190911
0.000182487
0.000173532
0.000164812
0.000156061
0.000148111
0.000141075
0.000135569
0.000131409
0.000129498
0.000130814
0.000135834
0.000144437
0.000156272
0.000170468
0.00018591
0.00020161
0.000216169
0.000228698
0.000241899
0.000256955
0.000273763
0.000293699
0.000318506
0.000348728
0.000384821
0.000426433
0.0004733
0.000524908
0.000580823
0.000640428
0.000703012
0.000767723
0.000833796
0.000900643
0.000967859
0.00103516
0.00110192
0.00116856
0.0012348
0.00130042
0.00136522
0.00142915
0.00149212
0.00155415
0.00161521
0.00167532
0.00173449
0.00179275
0.00185005
0.00190648
0.00196213
0.00201706
0.00207133
0.00212502
0.00217828
0.00223136
0.00228395
0.00233601
0.00238755
0.00243857
0.0024891
0.0025391
0.00258849
0.00263727
0.00268539
0.00273278
0.00277943
0.0028253
0.00287033
0.00291451
0.00295782
0.00300027
0.00304186
0.00308262
0.00312259
0.00316176
0.00320014
0.00323776
0.00327461
0.00331071
0.00334606
0.00338068
0.00341457
0.00344772
0.00348015
0.00351185
0.00354282
0.00357307
0.00360259
0.00363137
0.00365943
0.00368674
0.00371332
0.00373916
0.00376426
0.0037886
0.0038122
0.00383504
0.00385713
0.00387845
0.00389901
0.0039188
0.00393782
0.00395608
0.00397357
0.00399029
0.00400626
0.00402148
0.00403594
0.00404966
0.00406264
0.00407488
0.00408638
0.00409719
0.00410727
0.00411663
0.00412527
0.00413321
0.00414046
0.00414701
0.00415289
0.00415814
0.00416271
0.00416663
0.00416992
0.00417259
0.00417464
0.00417609
0.00417695
0.00417723
0.00417694
0.00417608
0.00417468
0.00417274
0.00417027
0.00416727
0.00416376
0.00415972
0.00415517
0.0041501
0.00414451
0.00413841
0.00413182
0.00412475
0.00411722
0.00410925
0.00410086
0.00409206
0.00408285
0.00407325
0.00406325
0.00405286
0.00404209
0.00403095
0.00401948
0.00400768
0.00399558
0.00398321
0.00397058
0.00395771
0.00394464
0.00393137
0.00391794
0.00390436
0.00389058
0.00387638
0.00386086
0.00384426
1.30915e-07
1.19478e-05
6.04154e-05
0.00011842
0.000164427
0.000194961
0.000211216
0.000216854
0.000215393
0.00020955
0.000201303
0.000191726
0.000182254
0.000173171
0.000165342
0.000158564
0.000153485
0.000150609
0.000149771
0.000151218
0.000155209
0.000161785
0.000170745
0.000181697
0.00019417
0.000207619
0.000220993
0.000233501
0.000246762
0.000262422
0.000280009
0.000299239
0.00032226