/*--------------------------------*- C++ -*----------------------------------*\
  =========                 |
  \\      /  F ield         | OpenFOAM: The Open Source CFD Toolbox
   \\    /   O peration     | Website:  https://openfoam.org
    \\  /    A nd           | Version:  8
     \\/     M anipulation  |
\*---------------------------------------------------------------------------*/
FoamFile
{
    version     2.0;
    format      ascii;
    class       volScalarField;
    location    "1600";
    object      p;
}
// * * * * * * * * * * * * * * * * * * * * * * * * * * * * * * * * * * * * * //

dimensions      [0 2 -2 0 0 0 0];

internalField   nonuniform List<scalar> 
12225
(
-4.23639
-5.13156
-5.52335
-5.65142
-5.78339
-5.92947
-6.05247
-6.1497
-6.2358
-6.31709
-6.39107
-6.4583
-6.52021
-6.58063
-6.6453
-6.71673
-6.79968
-6.88958
-4.51001
-5.1569
-5.48635
-5.61341
-5.74959
-5.8991
-6.02227
-6.11516
-6.19932
-6.28498
-6.36563
-6.43724
-6.50162
-6.56529
-6.62648
-6.68848
-6.75847
-6.82439
-4.72486
-5.15801
-5.46997
-5.62273
-5.76222
-5.90602
-6.02527
-6.11765
-6.20165
-6.28583
-6.36515
-6.43597
-6.49931
-6.55913
-6.61652
-6.6737
-6.73456
-6.78905
-4.87422
-5.18643
-5.48045
-5.64026
-5.76997
-5.90186
-6.01613
-6.10855
-6.19243
-6.2746
-6.35188
-6.4215
-6.48417
-6.54282
-6.5992
-6.65478
-6.71062
-6.76028
-4.99982
-5.23628
-5.49865
-5.65553
-5.77779
-5.90155
-6.01274
-6.10546
-6.18896
-6.26892
-6.34388
-6.412
-6.47386
-6.53158
-6.58683
-6.64033
-6.69182
-6.73719
-5.11478
-5.29109
-5.51627
-5.66844
-5.78675
-5.90395
-6.01138
-6.10313
-6.18545
-6.26314
-6.33585
-6.40246
-6.46339
-6.52012
-6.5739
-6.62502
-6.67293
-6.71514
-5.22044
-5.34864
-5.53721
-5.68191
-5.79615
-5.90667
-6.00955
-6.09957
-6.18056
-6.25632
-6.32711
-6.3923
-6.45221
-6.50784
-6.56007
-6.609
-6.6542
-6.69414
-5.30209
-5.39921
-5.5593
-5.69481
-5.80455
-5.90931
-6.00797
-6.09603
-6.17565
-6.24981
-6.31901
-6.38292
-6.4418
-6.49639
-6.54729
-6.59458
-6.63793
-6.67638
-5.36835
-5.44465
-5.58145
-5.70751
-5.81277
-5.91237
-6.00701
-6.09295
-6.1711
-6.24373
-6.31144
-6.37415
-6.43202
-6.48563
-6.53537
-6.58131
-6.62326
-6.66055
-5.43423
-5.49361
-5.60796
-5.72292
-5.82275
-5.91674
-6.00678
-6.08993
-6.16614
-6.23695
-6.30298
-6.36426
-6.42091
-6.47332
-6.52181
-6.56639
-6.60701
-6.64329
-5.49872
-5.54482
-5.63868
-5.7413
-5.8346
-5.92262
-6.00752
-6.08721
-6.16098
-6.22962
-6.29371
-6.3533
-6.40848
-6.45955
-6.50665
-6.5499
-6.58929
-6.62465
-5.5609
-5.59664
-5.67271
-5.76242
-5.84821
-5.92997
-6.00935
-6.08499
-6.15577
-6.22191
-6.28376
-6.34142
-6.39494
-6.44447
-6.49016
-6.53208
-6.57032
-6.60481
-5.61936
-5.64734
-5.70861
-5.78567
-5.86324
-5.93851
-6.01219
-6.08328
-6.15065
-6.21394
-6.27333
-6.32883
-6.38051
-6.42838
-6.47262
-6.51323
-6.55039
-6.58407
-5.67278
-5.6949
-5.74434
-5.80982
-5.87898
-5.9477
-6.01565
-6.08202
-6.14559
-6.20583
-6.26255
-6.31579
-6.36547
-6.41168
-6.45439
-6.49376
-6.52984
-6.56278
-5.71906
-5.73689
-5.77729
-5.83289
-5.89412
-5.95654
-6.01904
-6.08073
-6.14048
-6.19754
-6.25159
-6.3025
-6.3502
-6.39467
-6.43594
-6.47407
-6.5092
-6.54139
-5.75545
-5.77027
-5.80414
-5.85209
-5.9066
-5.96348
-6.02118
-6.07866
-6.13485
-6.18893
-6.24044
-6.28916
-6.33499
-6.37785
-6.41777
-6.45479
-6.48905
-6.52061
-5.77797
-5.79089
-5.82068
-5.86357
-5.91335
-5.96615
-6.02024
-6.07452
-6.12791
-6.17958
-6.22903
-6.27595
-6.32022
-6.36175
-6.40056
-6.43668
-6.47025
-6.50132
-5.78047
-5.79281
-5.82134
-5.86254
-5.9106
-5.96173
-6.01432
-6.06712
-6.11923
-6.16966
-6.21804
-6.26393
-6.30734
-6.34806
-6.38624
-6.42181
-6.45498
-6.48577
-5.76284
-5.77592
-5.80597
-5.84895
-5.8984
-5.95056
-6.00383
-6.05724
-6.10965
-6.16031
-6.20866
-6.25455
-6.29777
-6.33839
-6.37635
-6.41183
-6.44484
-6.47563
-5.73028
-5.74524
-5.77934
-5.82696
-5.88024
-5.93531
-5.99102
-6.04644
-6.10047
-6.15227
-6.20148
-6.24792
-6.29158
-6.33241
-6.37057
-6.40611
-6.43923
-6.47004
-5.68593
-5.7041
-5.74496
-5.79983
-5.8587
-5.91801
-5.97734
-6.03585
-6.09228
-6.14587
-6.19639
-6.24381
-6.28815
-6.32947
-6.36792
-6.40367
-6.43692
-6.46786
-5.63146
-5.65477
-5.70572
-5.77025
-5.83577
-5.90009
-5.96393
-6.02625
-6.08556
-6.14126
-6.19336
-6.24197
-6.28711
-6.329
-6.36777
-6.40376
-6.43711
-6.46816
-5.56784
-5.5991
-5.66426
-5.74035
-5.81286
-5.88265
-5.95165
-6.01818
-6.08054
-6.13848
-6.19229
-6.24212
-6.28813
-6.33051
-6.36962
-6.40573
-6.43917
-6.47021
-5.49502
-5.53889
-5.62335
-5.71186
-5.79076
-5.86634
-5.94104
-6.01193
-6.07728
-6.13742
-6.19291
-6.24394
-6.29071
-6.33353
-6.37282
-6.409
-6.4424
-6.47343
-5.41263
-5.47588
-5.58576
-5.68614
-5.76996
-5.8514
-5.93208
-6.00723
-6.07541
-6.13766
-6.19475
-6.24687
-6.29427
-6.33737
-6.3767
-6.41274
-6.44594
-6.47679
-5.31972
-5.4116
-5.55261
-5.66334
-5.75066
-5.8377
-5.92395
-6.00287
-6.0736
-6.1379
-6.19662
-6.24992
-6.29804
-6.34152
-6.38092
-6.41688
-6.44992
-6.48074
-5.21534
-5.34966
-5.52102
-5.63855
-5.73051
-5.82472
-5.91663
-5.99888
-6.07185
-6.13792
-6.19796
-6.25213
-6.30073
-6.34436
-6.38364
-6.41935
-6.45215
-6.48281
-5.0891
-5.30223
-5.49536
-5.60853
-5.7056
-5.81053
-5.91051
-5.99781
-6.07457
-6.14368
-6.20598
-6.26159
-6.311
-6.35486
-6.39384
-6.42897
-6.46139
-6.49249
-4.90219
-5.27691
-5.50253
-5.59978
-5.6926
-5.8018
-5.90502
-5.99382
-6.07195
-6.1426
-6.20636
-6.26314
-6.31333
-6.35752
-6.39626
-6.43023
-6.46071
-6.48908
-4.64731
-5.20276
-5.49233
-5.59944
-5.69995
-5.81781
-5.92676
-6.01843
-6.09797
-6.16944
-6.23364
-6.29059
-6.34064
-6.38434
-6.42212
-6.45363
-6.47966
-6.50072
-7.42901
-7.42912
-7.42916
-7.42914
-7.42883
-7.42762
-7.42509
-7.42174
-7.41855
-7.41651
-7.41664
-7.41913
-7.42346
-7.42886
-7.43457
-7.4399
-7.44429
-7.44733
-7.44898
-7.4496
-7.44946
-7.44876
-7.44774
-7.44668
-7.44584
-7.44531
-7.44505
-7.4449
-7.44469
-7.44431
-7.44377
-7.44308
-7.44217
-7.44096
-7.43952
-7.43812
-7.4374
-7.43804
-7.44015
-7.44307
-7.44587
-7.44807
-7.44984
-7.45162
-7.45383
-7.45698
-7.46072
-7.46399
-7.46636
-7.46972
-7.47778
-7.4947
-7.52071
-7.55459
-7.59623
-7.64663
-7.70514
-7.77026
-7.84061
-7.91391
-7.9879
-8.06067
-8.1311
-8.19824
-8.26111
-8.31928
-8.37264
-8.4211
-8.46472
-8.50358
-8.53778
-8.5674
-8.59254
-8.61323
-8.62954
-8.64147
-8.64903
-8.65219
-8.65094
-8.64523
-8.63503
-8.62028
-8.60094
-8.57692
-8.54818
-8.51463
-8.47622
-8.43286
-8.3845
-8.33107
-8.27251
-8.20878
-8.13981
-8.06556
-7.98597
-7.90097
-7.81054
-7.7147
-7.61356
-7.50703
-7.39466
-7.2763
-7.15218
-7.02237
-6.88691
-6.74582
-6.59915
-6.44695
-6.28927
-6.12618
-5.95776
-5.78409
-5.60528
-5.42144
-5.23268
-5.03913
-4.84092
-4.63818
-4.43106
-4.21971
-4.00428
-3.78493
-3.56181
-3.3351
-3.10496
-2.87157
-2.6351
-2.39575
-2.15368
-1.90908
-1.66215
-1.41312
-1.16221
-0.909656
-0.655669
-0.400536
-0.144452
0.112667
0.370723
0.629306
0.888197
1.14717
1.40604
1.66458
1.9226
2.17988
2.43626
2.69152
2.94549
3.198
3.44887
3.69797
3.94514
4.19022
4.43309
4.6736
4.91165
5.14713
5.37995
5.61001
5.83724
6.06156
6.28287
6.50111
6.71618
6.92799
7.13647
7.34154
7.54311
7.7411
7.93542
8.12598
8.31268
8.49542
8.67409
8.84862
9.0193
9.18601
9.3518
9.50787
-7.43023
-7.43041
-7.43077
-7.43115
-7.43113
-7.43031
-7.42838
-7.42591
-7.42415
-7.42405
-7.4259
-7.42955
-7.43447
-7.44002
-7.44556
-7.45061
-7.45478
-7.45788
-7.45971
-7.46008
-7.45907
-7.45701
-7.45434
-7.45155
-7.44905
-7.44713
-7.44582
-7.44496
-7.44428
-7.44364
-7.44303
-7.44244
-7.44179
-7.44098
-7.43997
-7.43916
-7.43928
-7.44086
-7.44367
-7.44676
-7.44899
-7.44993
-7.45004
-7.44938
-7.4481
-7.44774
-7.45066
-7.45727
-7.46388
-7.47054
-7.4808
-7.49612
-7.51805
-7.54987
-7.59391
-7.64906
-7.71312
-7.78378
-7.85809
-7.93352
-8.00808
-8.08058
-8.14969
-8.21422
-8.27411
-8.32936
-8.37994
-8.42592
-8.46739
-8.50444
-8.53715
-8.56558
-8.58978
-8.60977
-8.62556
-8.63713
-8.64446
-8.64752
-8.64626
-8.64063
-8.63058
-8.61604
-8.59696
-8.57328
-8.54492
-8.51181
-8.47389
-8.43107
-8.3833
-8.3305
-8.27263
-8.20963
-8.14144
-8.068
-7.98924
-7.90508
-7.81544
-7.72024
-7.61932
-7.51261
-7.40037
-7.28269
-7.15942
-7.03051
-6.89596
-6.75579
-6.61004
-6.45875
-6.30198
-6.13979
-5.97225
-5.79947
-5.62153
-5.43854
-5.25062
-5.05789
-4.86048
-4.65853
-4.45218
-4.24158
-4.02689
-3.80825
-3.58583
-3.35979
-3.1303
-2.89753
-2.66166
-2.42288
-2.18135
-1.93726
-1.69081
-1.44221
-1.19168
-0.939402
-0.685527
-0.430191
-0.173622
0.0837043
0.341573
0.599977
0.858705
1.11756
1.37632
1.63479
1.89277
2.15004
2.40642
2.66173
2.91577
3.16836
3.41935
3.66859
3.91592
4.1612
4.40427
4.64502
4.88331
5.11905
5.35213
5.58247
5.80998
6.03459
6.2562
6.47475
6.69013
6.90227
7.11109
7.3165
7.51842
7.71678
7.91149
8.10246
8.28964
8.47296
8.65232
8.82767
8.99917
9.16625
9.33409
9.48948
-7.43154
-7.43153
-7.43156
-7.43163
-7.43171
-7.43175
-7.43197
-7.43289
-7.43501
-7.43845
-7.44301
-7.44833
-7.45399
-7.45955
-7.46463
-7.46894
-7.47227
-7.47451
-7.47558
-7.47541
-7.47405
-7.4716
-7.46826
-7.46424
-7.45977
-7.45515
-7.45067
-7.44661
-7.44317
-7.44044
-7.43836
-7.43671
-7.43522
-7.4339
-7.43322
-7.43388
-7.43642
-7.44059
-7.44504
-7.44792
-7.44791
-7.44583
-7.44376
-7.44331
-7.44404
-7.44575
-7.45085
-7.46081
-7.4749
-7.49364
-7.51798
-7.54809
-7.58447
-7.62775
-7.67802
-7.73423
-7.79496
-7.85874
-7.92389
-7.98907
-8.05324
-8.11569
-8.17573
-8.23268
-8.28623
-8.33622
-8.38251
-8.42504
-8.46375
-8.49863
-8.52965
-8.55679
-8.58003
-8.59931
-8.61461
-8.62588
-8.63306
-8.63609
-8.6349
-8.62944
-8.61964
-8.60542
-8.58672
-8.56348
-8.53562
-8.50306
-8.46574
-8.42359
-8.37652
-8.32448
-8.2674
-8.20522
-8.13789
-8.06535
-7.98752
-7.90434
-7.81575
-7.72167
-7.62198
-7.51659
-7.40556
-7.289
-7.16684
-7.03906
-6.90566
-6.76666
-6.62207
-6.47194
-6.31632
-6.15528
-5.98889
-5.81725
-5.64043
-5.45856
-5.27173
-5.08009
-4.88375
-4.68286
-4.47754
-4.26796
-4.05426
-3.8366
-3.61513
-3.39002
-3.16143
-2.92954
-2.69452
-2.45655
-2.2158
-1.97246
-1.72673
-1.47881
-1.22892
-0.977267
-0.724005
-0.469285
-0.213319
0.0435182
0.300996
0.55903
0.817416
1.07597
1.33447
1.59271
1.85048
2.1076
2.36387
2.61908
2.87306
3.12562
3.37661
3.62589
3.87328
4.11865
4.36184
4.60272
4.84117
5.07707
5.31033
5.54085
5.76854
5.99332
6.21512
6.43385
6.64942
6.86174
7.07074
7.27632
7.4784
7.67692
7.87179
8.06294
8.25024
8.43364
8.61315
8.78875
8.96097
9.12865
9.29924
9.45057
-7.43268
-7.4324
-7.43203
-7.43205
-7.43323
-7.43599
-7.44012
-7.44525
-7.45104
-7.45717
-7.46336
-7.46934
-7.4749
-7.47984
-7.484
-7.48724
-7.48946
-7.4906
-7.49062
-7.4895
-7.48726
-7.48396
-7.4797
-7.47455
-7.46863
-7.46206
-7.45503
-7.44785
-7.44087
-7.43446
-7.42889
-7.42436
-7.42113
-7.41966
-7.4207
-7.42449
-7.42999
-7.43522
-7.43867
-7.43997
-7.43967
-7.43929
-7.44044
-7.44387
-7.45004
-7.45967
-7.47365
-7.49271
-7.51699
-7.54619
-7.57985
-7.61766
-7.65938
-7.70481
-7.75373
-7.80574
-7.8603
-7.91668
-7.97401
-8.03145
-8.08825
-8.1438
-8.19756
-8.24907
-8.29798
-8.34404
-8.38705
-8.42687
-8.46339
-8.4965
-8.52612
-8.55217
-8.57458
-8.59327
-8.60816
-8.61917
-8.62622
-8.62924
-8.62813
-8.62283
-8.61326
-8.59934
-8.581
-8.55816
-8.53075
-8.49871
-8.46195
-8.4204
-8.37399
-8.32264
-8.26629
-8.20488
-8.13835
-8.06663
-7.98963
-7.9073
-7.81955
-7.72633
-7.62756
-7.52319
-7.41324
-7.29773
-7.17663
-7.04991
-6.91757
-6.77963
-6.6361
-6.48704
-6.33249
-6.17251
-6.00718
-5.83658
-5.6608
-5.47996
-5.29415
-5.10351
-4.90817
-4.70825
-4.5039
-4.29527
-4.08251
-3.86576
-3.6452
-3.42096
-3.19324
-2.96218
-2.72798
-2.49079
-2.25079
-2.00818
-1.76314
-1.51589
-1.26664
-1.01558
-0.76288
-0.508729
-0.253349
0.00299115
0.260071
0.517742
0.775802
1.03406
1.2923
1.55032
1.8079
2.06486
2.321
2.57612
2.83003
3.08255
3.33354
3.58283
3.83028
4.07572
4.319
4.56
4.79858
5.03462
5.26803
5.49871
5.72656
5.95151
6.17347
6.39236
6.60809
6.82056
7.0297
7.23542
7.43763
7.63627
7.83125
8.0225
8.20994
8.39353
8.57326
8.74911
8.92174
9.0894
9.26073
9.40583
-7.435
-7.43441
-7.43403
-7.43548
-7.43978
-7.44617
-7.45357
-7.46129
-7.46885
-7.47594
-7.4824
-7.48816
-7.49318
-7.49739
-7.50071
-7.50305
-7.50435
-7.50456
-7.50365
-7.5016
-7.49842
-7.49414
-7.48881
-7.48247
-7.47522
-7.46709
-7.45819
-7.44873
-7.43903
-7.42962
-7.42108
-7.41422
-7.41
-7.40939
-7.41234
-7.41703
-7.42176
-7.4258
-7.42901
-7.4318
-7.43495
-7.43956
-7.44663
-7.4571
-7.47182
-7.49111
-7.51461
-7.54175
-7.5723
-7.60591
-7.64233
-7.6815
-7.72332
-7.76772
-7.81449
-7.8633
-7.91374
-7.96529
-8.01737
-8.06941
-8.12088
-8.17132
-8.22031
-8.26749
-8.31257
-8.35529
-8.39544
-8.43284
-8.46734
-8.49879
-8.52707
-8.55205
-8.57362
-8.59166
-8.60607
-8.61675
-8.62359
-8.62649
-8.62536
-8.62011
-8.61066
-8.59692
-8.57882
-8.55626
-8.52919
-8.49753
-8.4612
-8.42013
-8.37425
-8.32346
-8.26772
-8.20695
-8.14109
-8.07007
-7.9938
-7.91221
-7.82523
-7.73279
-7.63484
-7.53133
-7.42226
-7.30762
-7.18738
-7.06152
-6.93004
-6.79296
-6.6503
-6.50209
-6.34839
-6.18925
-6.02476
-5.85499
-5.68004
-5.50001
-5.31501
-5.12516
-4.93061
-4.73147
-4.52789
-4.32002
-4.10801
-3.892
-3.67216
-3.44864
-3.22161
-2.99124
-2.75769
-2.52113
-2.28175
-2.03973
-1.79527
-1.54857
-1.29984
-1.04926
-0.797001
-0.543285
-0.288326
-0.0323713
0.224383
0.481753
0.73955
0.997563
1.25559
1.51342
1.77085
2.02768
2.28371
2.53874
2.79259
3.04508
3.29606
3.54537
3.79285
4.03835
4.28171
4.52279
4.76147
4.99763
5.23116
5.46197
5.68996
5.91505
6.13716
6.35619
6.57206
6.78468
6.99396
7.19983
7.40219
7.60097
7.7961
7.9875
8.1751
8.35885
8.53875
8.71468
8.8873
9.0543
9.2251
9.36342
-7.43931
-7.4384
-7.43895
-7.44351
-7.45107
-7.45966
-7.46836
-7.47668
-7.48433
-7.49124
-7.4974
-7.5028
-7.50737
-7.51106
-7.51379
-7.51549
-7.51612
-7.51564
-7.51403
-7.51126
-7.50737
-7.50236
-7.49625
-7.48904
-7.48074
-7.47143
-7.46126
-7.45043
-7.4393
-7.42854
-7.41898
-7.41184
-7.4082
-7.40792
-7.40958
-7.41198
-7.41507
-7.41919
-7.42465
-7.4314
-7.4397
-7.45073
-7.46549
-7.48413
-7.50642
-7.53197
-7.56051
-7.59166
-7.62518
-7.6609
-7.69865
-7.73836
-7.7799
-7.82315
-7.86792
-7.91396
-7.96096
-8.00859
-8.05647
-8.1042
-8.15143
-8.19783
-8.24304
-8.28679
-8.32878
-8.36878
-8.40657
-8.44196
-8.47475
-8.50478
-8.53188
-8.55591
-8.57671
-8.59415
-8.60809
-8.61841
-8.62499
-8.62771
-8.62649
-8.62121
-8.61179
-8.59813
-8.58016
-8.55778
-8.53093
-8.49954
-8.46352
-8.4228
-8.3773
-8.32695
-8.27168
-8.21141
-8.14609
-8.07562
-7.99993
-7.91894
-7.83257
-7.74077
-7.64348
-7.54065
-7.43225
-7.31827
-7.19869
-7.07348
-6.94265
-6.80621
-6.66418
-6.5166
-6.36352
-6.205
-6.04111
-5.87194
-5.69758
-5.51813
-5.33372
-5.14445
-4.95046
-4.75189
-4.54888
-4.34157
-4.13011
-3.91465
-3.69535
-3.47237
-3.24586
-3.016
-2.78295
-2.54688
-2.30797
-2.0664
-1.82239
-1.57612
-1.32779
-1.07757
-0.825665
-0.572285
-0.317648
-0.0619856
0.19451
0.451649
0.709236
0.967059
1.22492
1.48259
1.73989
1.9966
2.25253
2.50748
2.76127
3.01372
3.26469
3.514
3.76149
4.00701
4.25041
4.49153
4.73027
4.96649
5.2001
5.43099
5.65907
5.88425
6.10645
6.32559
6.54156
6.75429
6.96368
7.16965
7.37212
7.57101
7.76625
7.95775
8.14545
8.32927
8.50919
8.68501
8.85732
9.02335
9.19335
9.32507
-7.44465
-7.4442
-7.447
-7.45433
-7.46324
-7.4721
-7.48054
-7.48841
-7.49567
-7.50228
-7.50818
-7.5133
-7.51756
-7.52089
-7.52322
-7.5245
-7.52469
-7.52375
-7.52167
-7.51845
-7.51411
-7.50865
-7.502
-7.4941
-7.48507
-7.47511
-7.46442
-7.45328
-7.44215
-7.4318
-7.42338
-7.41769
-7.41425
-7.41219
-7.41145
-7.41249
-7.41593
-7.4217
-7.42969
-7.4405
-7.45471
-7.47231
-7.4931
-7.51686
-7.54335
-7.57227
-7.60338
-7.63653
-7.67155
-7.70827
-7.74653
-7.78619
-7.82711
-7.86916
-7.91219
-7.95602
-8.00043
-8.04518
-8.09001
-8.13466
-8.17885
-8.22231
-8.26477
-8.30596
-8.34565
-8.38359
-8.41958
-8.4534
-8.48486
-8.51376
-8.53991
-8.56315
-8.5833
-8.6002
-8.61371
-8.62368
-8.62998
-8.6325
-8.63113
-8.62575
-8.61628
-8.60261
-8.58467
-8.56238
-8.53564
-8.5044
-8.46857
-8.42809
-8.38286
-8.33282
-8.27789
-8.218
-8.15307
-8.08302
-8.00777
-7.92723
-7.84133
-7.75001
-7.6532
-7.55087
-7.44296
-7.32946
-7.21035
-7.0856
-6.95521
-6.81921
-6.6776
-6.53044
-6.37776
-6.21964
-6.05614
-5.88736
-5.71338
-5.53432
-5.35028
-5.16139
-4.96777
-4.76958
-4.56695
-4.36002
-4.14895
-3.93388
-3.71496
-3.49236
-3.26623
-3.03675
-2.80406
-2.56834
-2.32977
-2.08855
-1.84488
-1.59892
-1.3509
-1.10096
-0.849318
-0.596198
-0.341815
-0.0863731
0.16992
0.426885
0.684305
0.941983
1.1997
1.45726
1.71445
1.97106
2.22689
2.48177
2.73549
2.9879
3.23883
3.48812
3.7356
3.98112
4.22451
4.46564
4.70438
4.94062
5.17425
5.40516
5.63328
5.85851
6.08078
6.29997
6.516
6.72878
6.93822
7.14425
7.34678
7.54574
7.74103
7.93258
8.12031
8.30411
8.48394
8.65952
8.83138
8.99633
9.16557
9.29117
-7.44879
-7.44965
-7.45512
-7.46352
-7.47208
-7.4803
-7.48817
-7.49563
-7.5026
-7.50899
-7.5147
-7.51964
-7.52371
-7.52684
-7.52896
-7.53001
-7.52997
-7.5288
-7.52649
-7.52306
-7.51851
-7.51276
-7.50572
-7.49755
-7.48849
-7.47866
-7.4683
-7.45784
-7.44806
-7.43969
-7.43305
-7.42757
-7.42276
-7.4193
-7.41809
-7.41946
-7.42385
-7.43177
-7.44332
-7.45834
-7.47657
-7.49778
-7.52172
-7.54813
-7.57678
-7.60746
-7.63998
-7.67417
-7.70986
-7.7469
-7.78513
-7.82444
-7.86471
-7.90579
-7.94756
-7.98985
-8.03251
-8.07536
-8.11819
-8.16079
-8.20293
-8.2444
-8.28497
-8.3244
-8.36248
-8.39899
-8.4337
-8.4664
-8.49689
-8.52495
-8.55039
-8.57302
-8.59265
-8.60912
-8.62225
-8.6319
-8.63793
-8.64021
-8.63864
-8.63311
-8.62351
-8.60976
-8.59177
-8.56946
-8.54274
-8.51155
-8.47581
-8.43545
-8.39038
-8.34054
-8.28584
-8.22621
-8.16156
-8.0918
-8.01686
-7.93664
-7.85108
-7.76009
-7.66363
-7.56162
-7.45404
-7.34085
-7.22203
-7.09757
-6.96745
-6.8317
-6.69034
-6.5434
-6.39095
-6.23305
-6.06976
-5.90119
-5.72742
-5.54856
-5.36472
-5.17603
-4.98263
-4.78466
-4.58226
-4.37557
-4.16474
-3.94992
-3.73126
-3.50891
-3.28305
-3.05382
-2.82139
-2.58591
-2.3476
-2.10663
-1.86321
-1.61749
-1.36968
-1.11995
-0.868525
-0.61561
-0.361422
-0.106153
0.149988
0.406813
0.664105
0.921664
1.17928
1.43673
1.69382
1.95034
2.20609
2.46089
2.71455
2.9669
3.2178
3.46706
3.71451
3.95999
4.20335
4.44444
4.68316
4.91937
5.15298
5.38389
5.61201
5.83726
6.05955
6.27875
6.4948
6.7076
6.91706
7.12311
7.32566
7.52464
7.71996
7.91152
8.09923
8.28296
8.46263
8.6379
8.80923
8.97311
9.14166
9.26176
-7.45003
-7.45258
-7.45962
-7.46769
-7.47557
-7.48328
-7.49079
-7.49801
-7.50483
-7.51113
-7.51678
-7.52168
-7.52572
-7.52882
-7.53092
-7.53196
-7.53192
-7.53076
-7.52847
-7.52506
-7.52047
-7.51463
-7.50763
-7.49972
-7.49108
-7.48194
-7.47277
-7.46404
-7.45614
-7.44907
-7.44263
-7.43669
-7.43163
-7.42843
-7.42797
-7.4308
-7.4373
-7.44755
-7.4613
-7.47836
-7.49847
-7.52135
-7.54675
-7.57441
-7.60411
-7.63565
-7.66883
-7.70348
-7.73944
-7.77656
-7.81471
-7.85376
-7.89358
-7.93405
-7.97504
-8.01641
-8.05803
-8.09973
-8.14135
-8.18271
-8.22361
-8.26387
-8.30327
-8.34163
-8.37871
-8.41432
-8.44824
-8.48023
-8.5101
-8.53761
-8.56257
-8.58476
-8.60401
-8.62013
-8.63294
-8.64228
-8.64803
-8.65005
-8.64824
-8.6425
-8.63272
-8.61881
-8.60069
-8.57827
-8.55148
-8.52024
-8.48449
-8.44416
-8.39918
-8.34943
-8.29487
-8.23539
-8.17092
-8.10135
-8.02661
-7.9466
-7.86125
-7.77047
-7.6742
-7.57239
-7.46499
-7.35197
-7.2333
-7.10897
-6.97898
-6.84332
-6.70206
-6.5552
-6.40282
-6.24498
-6.08176
-5.91324
-5.73953
-5.56073
-5.37696
-5.18834
-4.99502
-4.79714
-4.59485
-4.38829
-4.1776
-3.96292
-3.74442
-3.52224
-3.29654
-3.06749
-2.83522
-2.59992
-2.36179
-2.12101
-1.87776
-1.63223
-1.38458
-1.13501
-0.883746
-0.630996
-0.376951
-0.121822
0.134206
0.390913
0.648104
0.905558
1.16308
1.42044
1.67744
1.93387
2.18953
2.44425
2.69784
2.95013
3.20097
3.45019
3.6976
3.94302
4.18631
4.42735
4.666
4.90216
5.13572
5.3666
5.59469
5.81993
6.0422
6.26139
6.47742
6.6902
6.89965
7.10569
7.30824
7.50722
7.70254
7.89409
8.08174
8.26536
8.44483
8.61973
8.79052
8.95336
9.12127
9.23658
-7.44683
-7.45077
-7.45797
-7.46548
-7.47302
-7.48054
-7.48795
-7.49514
-7.502
-7.50838
-7.51417
-7.51923
-7.52346
-7.52677
-7.52906
-7.5303
-7.53044
-7.52944
-7.5273
-7.524
-7.51951
-7.51387
-7.50726
-7.49996
-7.49222
-7.48437
-7.47666
-7.46916
-7.46194
-7.45509
-7.44876
-7.44329
-7.43931
-7.43758
-7.4387
-7.44306
-7.4509
-7.46227
-7.47704
-7.49501
-7.51594
-7.53957
-7.56561
-7.59383
-7.624
-7.65593
-7.68943
-7.72432
-7.76044
-7.79767
-7.83584
-7.87483
-7.91449
-7.95472
-7.99539
-8.03638
-8.07754
-8.11873
-8.15979
-8.20057
-8.2409
-8.28059
-8.31945
-8.3573
-8.39392
-8.4291
-8.46264
-8.49429
-8.52382
-8.55102
-8.57567
-8.59756
-8.6165
-8.63231
-8.64481
-8.65385
-8.65929
-8.66103
-8.65895
-8.65295
-8.64294
-8.62883
-8.61051
-8.58792
-8.56098
-8.52962
-8.49379
-8.45342
-8.40843
-8.35872
-8.3042
-8.2448
-8.18041
-8.11094
-8.0363
-7.9564
-7.87115
-7.78047
-7.68429
-7.58256
-7.47523
-7.36226
-7.24362
-7.1193
-6.9893
-6.85364
-6.71233
-6.56543
-6.413
-6.25511
-6.09183
-5.92326
-5.7495
-5.57065
-5.38683
-5.19818
-5.00484
-4.80697
-4.60471
-4.39819
-4.18756
-3.97296
-3.75454
-3.53246
-3.30687
-3.07792
-2.84577
-2.6106
-2.3726
-2.13196
-1.88885
-1.64345
-1.39593
-1.1465
-0.895374
-0.642757
-0.388835
-0.133815
0.122109
0.378718
0.635813
0.893175
1.1506
1.40786
1.66476
1.92109
2.17666
2.43129
2.68479
2.93701
3.1878
3.43698
3.68431
3.92965
4.17285
4.41379
4.65236
4.88843
5.12192
5.35272
5.58076
5.80597
6.02821
6.24737
6.46336
6.67609
6.8855
7.09151
7.29403
7.493
7.6883
7.87981
8.06738
8.25085
8.43009
8.60459
8.77482
8.93668
9.10397
9.21524
-7.43722
-7.44181
-7.44871
-7.4562
-7.46393
-7.47164
-7.47922
-7.48662
-7.49372
-7.50041
-7.50652
-7.51193
-7.51649
-7.52011
-7.5227
-7.52422
-7.52461
-7.52386
-7.52197
-7.51894
-7.51484
-7.50979
-7.50399
-7.49763
-7.49085
-7.48381
-7.47669
-7.46958
-7.46263
-7.45609
-7.4504
-7.44598
-7.44328
-7.44284
-7.44517
-7.45062
-7.45938
-7.4715
-7.4869
-7.5054
-7.52676
-7.55073
-7.57707
-7.60555
-7.63598
-7.66816
-7.7019
-7.73703
-7.7734
-7.81085
-7.84922
-7.88838
-7.92821
-7.96858
-8.00935
-8.05041
-8.0916
-8.1328
-8.17387
-8.21463
-8.25493
-8.29458
-8.33339
-8.37117
-8.40772
-8.44283
-8.47626
-8.50781
-8.53722
-8.56428
-8.58875
-8.61044
-8.62914
-8.64467
-8.65686
-8.66558
-8.6707
-8.67212
-8.66972
-8.66342
-8.65313
-8.63875
-8.62019
-8.59737
-8.57021
-8.53866
-8.50268
-8.46221
-8.41715
-8.3674
-8.31287
-8.25347
-8.18909
-8.11965
-8.04504
-7.96517
-7.87994
-7.78928
-7.69311
-7.59137
-7.48402
-7.37101
-7.25232
-7.12793
-6.99784
-6.86206
-6.72063
-6.57361
-6.42104
-6.26302
-6.0996
-5.93091
-5.75702
-5.57805
-5.39411
-5.20536
-5.01194
-4.81403
-4.61175
-4.40523
-4.19462
-3.98006
-3.76169
-3.53968
-3.31416
-3.0853
-2.85325
-2.61817
-2.38028
-2.13975
-1.89676
-1.65148
-1.40409
-1.15479
-0.903797
-0.651299
-0.397499
-0.142582
0.113231
0.369742
0.62673
0.883993
1.14131
1.39847
1.65526
1.91149
2.16696
2.42149
2.6749
2.92703
3.17776
3.42687
3.67411
3.91934
4.16242
4.40324
4.64169
4.87765
5.11104
5.34175
5.56972
5.79489
6.0171
6.23619
6.45211
6.66479
6.87414
7.08011
7.28259
7.48154
7.67682
7.86827
8.05574
8.23905
8.41802
8.59212
8.76178
8.92272
9.08941
9.19736
-7.41964
-7.42422
-7.43128
-7.43954
-7.44797
-7.45615
-7.4641
-7.47184
-7.47935
-7.4865
-7.49311
-7.49899
-7.50398
-7.50799
-7.51098
-7.51287
-7.51366
-7.51333
-7.5119
-7.50941
-7.50594
-7.50158
-7.49646
-7.49071
-7.48448
-7.47788
-7.47105
-7.4642
-7.45764
-7.4517
-7.44671
-7.44308
-7.44131
-7.44187
-7.44517
-7.45151
-7.46104
-7.4738
-7.4897
-7.50857
-7.53021
-7.5544
-7.58094
-7.60963
-7.64029
-7.67273
-7.70678
-7.74225
-7.77898
-7.81682
-7.85561
-7.89523
-7.93554
-7.9764
-8.01767
-8.05918
-8.10082
-8.14244
-8.1839
-8.22502
-8.26566
-8.30563
-8.34474
-8.38279
-8.41958
-8.45488
-8.48846
-8.5201
-8.54955
-8.57658
-8.60094
-8.62245
-8.64091
-8.65614
-8.66798
-8.67629
-8.68098
-8.68198
-8.67919
-8.67253
-8.66191
-8.64722
-8.62836
-8.60525
-8.5778
-8.54599
-8.50981
-8.46921
-8.42407
-8.37427
-8.31969
-8.26025
-8.19585
-8.12639
-8.05178
-7.9719
-7.88666
-7.79597
-7.69975
-7.59796
-7.49054
-7.37745
-7.25866
-7.13415
-7.00392
-6.86798
-6.72639
-6.57919
-6.42645
-6.26825
-6.10468
-5.93582
-5.76177
-5.58265
-5.39857
-5.20967
-5.01617
-4.8182
-4.6159
-4.40939
-4.1988
-3.98428
-3.76596
-3.54401
-3.31858
-3.08982
-2.85786
-2.62288
-2.38509
-2.14469
-1.90183
-1.65669
-1.40945
-1.1603
-0.90945
-0.657087
-0.403411
-0.148614
0.107081
0.363475
0.620349
0.877494
1.13469
1.39173
1.6484
1.90451
2.15986
2.41428
2.66758
2.91961
3.17029
3.41936
3.6665
3.91159
4.15452
4.3952
4.6335
4.86934
5.1026
5.33321
5.5611
5.78622
6.00839
6.22741
6.44324
6.65584
6.86513
7.07103
7.27348
7.4724
7.66766
7.85906
8.04641
8.22954
8.40823
8.58193
8.75104
8.91113
9.0772
9.18255
-7.39368
-7.3981
-7.40608
-7.41575
-7.42518
-7.43393
-7.44229
-7.45054
-7.45874
-7.46666
-7.47399
-7.4805
-7.48603
-7.49054
-7.49402
-7.49642
-7.49774
-7.49797
-7.49711
-7.49521
-7.49232
-7.48853
-7.48391
-7.47859
-7.47267
-7.46632
-7.45975
-7.45324
-7.44706
-7.44153
-7.43706
-7.43411
-7.43312
-7.43452
-7.43866
-7.44577
-7.45596
-7.46923
-7.48551
-7.50465
-7.52648
-7.55085
-7.57758
-7.6065
-7.63745
-7.67026
-7.70474
-7.74071
-7.77799
-7.81642
-7.85586
-7.89616
-7.93717
-7.97875
-8.02074
-8.06299
-8.10536
-8.14771
-8.18986
-8.23165
-8.2729
-8.31346
-8.35312
-8.39168
-8.42892
-8.46462
-8.49852
-8.53038
-8.55991
-8.58683
-8.61096
-8.63212
-8.65017
-8.66494
-8.67622
-8.68393
-8.68806
-8.68855
-8.68532
-8.67829
-8.66737
-8.65241
-8.63329
-8.60989
-8.58212
-8.54995
-8.51352
-8.47281
-8.42762
-8.37777
-8.32314
-8.26366
-8.19924
-8.12978
-8.05518
-7.97531
-7.89005
-7.79932
-7.70305
-7.60119
-7.49371
-7.38054
-7.26166
-7.13703
-7.00665
-6.87056
-6.72881
-6.58144
-6.42854
-6.27018
-6.10646
-5.93745
-5.76328
-5.58403
-5.39982
-5.2108
-5.01722
-4.81922
-4.61692
-4.41043
-4.19989
-3.98542
-3.76719
-3.54534
-3.32004
-3.09143
-2.85962
-2.62479
-2.38715
-2.14693
-1.90426
-1.65931
-1.41226
-1.1633
-0.912633
-0.66045
-0.406933
-0.152307
0.103234
0.359465
0.616185
0.873168
1.13021
1.38708
1.6436
1.89956
2.15477
2.40904
2.6622
2.9141
3.16479
3.4139
3.66094
3.90586
4.14862
4.38914
4.62729
4.86299
5.09613
5.32663
5.55443
5.77956
6.00172
6.22065
6.43638
6.64889
6.85811
7.06396
7.26636
7.46526
7.66051
7.85185
8.03909
8.22202
8.40044
8.57372
8.74231
8.90161
9.067
9.17045
-7.36057
-7.36531
-7.37481
-7.38628
-7.39681
-7.40629
-7.41542
-7.42437
-7.43326
-7.44207
-7.45046
-7.45794
-7.46416
-7.46914
-7.4731
-7.47605
-7.47795
-7.47876
-7.47847
-7.47711
-7.47471
-7.47133
-7.46703
-7.46195
-7.45624
-7.45009
-7.4437
-7.43735
-7.43139
-7.42621
-7.42221
-7.41984
-7.41952
-7.42162
-7.4264
-7.43407
-7.44471
-7.45831
-7.47483
-7.49416
-7.51617
-7.54071
-7.56764
-7.59682
-7.62811
-7.66132
-7.69627
-7.7328
-7.77072
-7.80987
-7.8501
-7.89124
-7.93313
-7.97559
-8.0185
-8.06168
-8.10498
-8.14824
-8.19127
-8.23391
-8.27596
-8.31723
-8.35752
-8.39663
-8.43433
-8.47037
-8.50448
-8.53638
-8.56576
-8.59232
-8.6159
-8.63644
-8.65386
-8.66793
-8.67835
-8.68514
-8.68852
-8.6885
-8.68494
-8.67773
-8.66673
-8.65172
-8.63253
-8.609
-8.58094
-8.54836
-8.51165
-8.47087
-8.42567
-8.37578
-8.32107
-8.26152
-8.19706
-8.12761
-8.05303
-7.97315
-7.88785
-7.79705
-7.7007
-7.59877
-7.49121
-7.37797
-7.259
-7.13424
-7.00371
-6.86745
-6.72553
-6.578
-6.42495
-6.26645
-6.10259
-5.93345
-5.75916
-5.57984
-5.39564
-5.20667
-5.01311
-4.81508
-4.61275
-4.40622
-4.19566
-3.9812
-3.76301
-3.54124
-3.31607
-3.08764
-2.8561
-2.62163
-2.38436
-2.14448
-1.90212
-1.65748
-1.41073
-1.16208
-0.91172
-0.65983
-0.406609
-0.152278
0.102965
0.3589
0.615318
0.871996
1.12873
1.38529
1.6415
1.89715
2.15206
2.40602
2.65886
2.91047
3.16102
3.41007
3.65692
3.90161
4.14417
4.38449
4.62248
4.85802
5.09103
5.3214
5.54916
5.7744
5.99663
6.21547
6.4311
6.64353
6.85268
7.05849
7.26087
7.4598
7.65509
7.84639
8.03349
8.21623
8.39437
8.56727
8.73535
8.89391
9.05858
9.16079
-7.32333
-7.32896
-7.34051
-7.35418
-7.36588
-7.37564
-7.38517
-7.39517
-7.40533
-7.41526
-7.42468
-7.43316
-7.44014
-7.44564
-7.45004
-7.45352
-7.45597
-7.45731
-7.45751
-7.45658
-7.45452
-7.45141
-7.44732
-7.44238
-7.43673
-7.43059
-7.42422
-7.41794
-7.41214
-7.40722
-7.40358
-7.40163
-7.40174
-7.40424
-7.40935
-7.41725
-7.42802
-7.44168
-7.45821
-7.47753
-7.49955
-7.52416
-7.55123
-7.58064
-7.61223
-7.64583
-7.68126
-7.71837
-7.75698
-7.79691
-7.838
-7.88006
-7.92292
-7.96641
-8.01034
-8.05455
-8.09884
-8.143
-8.18686
-8.23022
-8.27289
-8.31468
-8.35537
-8.39476
-8.43262
-8.46869
-8.50269
-8.53431
-8.56317
-8.58882
-8.61129
-8.63081
-8.64738
-8.6606
-8.66975
-8.675
-8.67724
-8.67663
-8.6729
-8.66581
-8.65508
-8.64039
-8.62149
-8.5983
-8.57086
-8.53919
-8.50319
-8.46273
-8.41762
-8.36769
-8.31293
-8.2533
-8.1888
-8.11929
-8.04464
-7.96468
-7.87927
-7.78833
-7.69184
-7.58977
-7.48207
-7.36867
-7.24952
-7.12457
-6.99381
-6.85732
-6.71515
-6.5674
-6.41411
-6.25539
-6.09131
-5.92198
-5.74751
-5.56807
-5.38383
-5.19488
-5.0013
-4.80322
-4.6008
-4.39422
-4.18361
-3.96915
-3.75099
-3.52929
-3.30423
-3.07597
-2.84471
-2.6106
-2.37375
-2.13422
-1.89222
-1.64792
-1.40154
-1.15326
-0.903273
-0.651747
-0.39891
-0.144955
0.109894
0.365438
0.621449
0.877717
1.13402
1.39016
1.64594
1.90114
2.15558
2.40905
2.66134
2.91229
3.16174
3.4096
3.65572
3.89994
4.14211
4.38208
4.61974
4.85498
5.08767
5.31776
5.5453
5.77052
5.99274
6.21145
6.42697
6.63931
6.84842
7.0542
7.25658
7.45562
7.65107
7.84238
8.02937
8.21193
8.38981
8.56234
8.72995
8.88782
9.05172
9.15333
-7.28555
-7.29242
-7.30648
-7.32209
-7.33412
-7.34433
-7.35496
-7.3661
-7.37731
-7.38827
-7.39868
-7.40805
-7.41577
-7.42185
-7.42681
-7.43085
-7.43383
-7.43565
-7.43626
-7.43566
-7.43383
-7.43085
-7.42679
-7.42178
-7.41602
-7.40974
-7.40324
-7.39687
-7.391
-7.38604
-7.38238
-7.3804
-7.38043
-7.38277
-7.38766
-7.39526
-7.40568
-7.41897
-7.43514
-7.45413
-7.47592
-7.50043
-7.52754
-7.55715
-7.58906
-7.6231
-7.65909
-7.69687
-7.73625
-7.77706
-7.81907
-7.86208
-7.9059
-7.95032
-7.99515
-8.04018
-8.0852
-8.12999
-8.17435
-8.2181
-8.26102
-8.30294
-8.34364
-8.38292
-8.42056
-8.45634
-8.48997
-8.52108
-8.54906
-8.57294
-8.59306
-8.61058
-8.62591
-8.6388
-8.64861
-8.65488
-8.65755
-8.65686
-8.653
-8.64585
-8.63512
-8.62046
-8.60161
-8.5786
-8.55175
-8.52096
-8.48565
-8.44546
-8.40043
-8.35056
-8.29584
-8.23629
-8.17181
-8.10231
-8.02765
-7.94768
-7.86225
-7.7713
-7.67482
-7.57274
-7.465
-7.35156
-7.23234
-7.10729
-6.97644
-6.83985
-6.69758
-6.54969
-6.39628
-6.23743
-6.07323
-5.90377
-5.7292
-5.54968
-5.36534
-5.17633
-4.98272