/*--------------------------------*- C++ -*----------------------------------*\
  =========                 |
  \\      /  F ield         | OpenFOAM: The Open Source CFD Toolbox
   \\    /   O peration     | Website:  https://openfoam.org
    \\  /    A nd           | Version:  8
     \\/     M anipulation  |
\*---------------------------------------------------------------------------*/
FoamFile
{
    version     2.0;
    format      ascii;
    class       surfaceScalarField;
    location    "1600";
    object      phi;
}
// * * * * * * * * * * * * * * * * * * * * * * * * * * * * * * * * * * * * * //

dimensions      [0 3 -1 0 0 0 0];

internalField   nonuniform List<scalar> 
24170
(
3.00362e-06
1.30308e-07
2.85902e-06
1.44714e-07
2.7321e-06
1.27079e-07
2.6202e-06
1.12015e-07
2.52238e-06
9.80572e-08
2.43898e-06
8.36727e-08
2.37132e-06
6.79007e-08
2.31415e-06
5.70792e-08
2.26381e-06
5.02676e-08
2.22181e-06
4.18781e-08
2.18646e-06
3.52911e-08
2.15564e-06
3.0757e-08
2.12919e-06
2.64271e-08
2.10827e-06
2.0912e-08
2.09222e-06
1.60838e-08
2.08112e-06
1.11546e-08
2.07375e-06
7.41233e-09
1.48727e-09
2.07226e-06
3.51238e-06
7.44629e-08
3.5466e-06
1.11112e-07
3.5621e-06
1.12141e-07
3.56221e-06
1.12382e-07
3.55043e-06
1.10322e-07
3.53083e-06
1.03671e-07
3.50302e-06
9.58885e-08
3.46944e-06
9.05083e-08
3.4367e-06
8.2813e-08
3.40661e-06
7.1804e-08
3.378e-06
6.38035e-08
3.35057e-06
5.80907e-08
3.32391e-06
5.30253e-08
3.29744e-06
4.73117e-08
3.27125e-06
4.22276e-08
3.24523e-06
3.71315e-08
3.22079e-06
3.18022e-08
2.47154e-08
3.19751e-06
3.83212e-06
5.45632e-08
3.85077e-06
9.23672e-08
3.86554e-06
9.73186e-08
3.87853e-06
9.93777e-08
3.88903e-06
9.98802e-08
3.89619e-06
9.66299e-08
3.89995e-06
9.21709e-08
3.90188e-06
8.85152e-08
3.90214e-06
8.24941e-08
3.89978e-06
7.41163e-08
3.89604e-06
6.75372e-08
3.89172e-06
6.24009e-08
3.88678e-06
5.79555e-08
3.88079e-06
5.33051e-08
3.87432e-06
4.87195e-08
3.86741e-06
4.40607e-08
3.86027e-06
3.89438e-08
3.20326e-08
3.85293e-06
4.21615e-06
4.30223e-08
4.22943e-06
7.94678e-08
4.23921e-06
8.7871e-08
4.24788e-06
9.10207e-08
4.25578e-06
9.22646e-08
4.26249e-06
9.01501e-08
4.26823e-06
8.64893e-08
4.27386e-06
8.2803e-08
4.27877e-06
7.74718e-08
4.28203e-06
7.07823e-08
4.28449e-06
6.50147e-08
4.28667e-06
6.0181e-08
4.28867e-06
5.59193e-08
4.29029e-06
5.16548e-08
4.29168e-06
4.73094e-08
4.29285e-06
4.28561e-08
4.29373e-06
3.8022e-08
3.2168e-08
4.29354e-06
4.646e-06
3.43515e-08
4.65735e-06
6.79715e-08
4.66605e-06
7.90633e-08
4.67364e-06
8.33544e-08
4.68066e-06
8.52372e-08
4.6868e-06
8.40001e-08
4.69227e-06
8.09987e-08
4.69764e-06
7.73947e-08
4.7025e-06
7.25868e-08
4.70631e-06
6.69645e-08
4.70954e-06
6.17867e-08
4.71255e-06
5.71749e-08
4.71548e-06
5.2987e-08
4.71829e-06
4.88487e-08
4.72098e-06
4.46323e-08
4.72351e-06
4.03261e-08
4.72574e-06
3.57744e-08
3.07927e-08
4.72714e-06
5.12158e-06
2.73941e-08
5.13163e-06
5.8188e-08
5.14004e-06
7.09009e-08
5.14751e-06
7.61039e-08
5.15449e-06
7.84565e-08
5.16072e-06
7.78973e-08
5.16631e-06
7.5442e-08
5.17163e-06
7.20429e-08
5.17646e-06
6.77188e-08
5.18053e-06
6.28598e-08
5.1841e-06
5.81845e-08
5.18741e-06
5.3826e-08
5.1906e-06
4.97499e-08
5.1937e-06
4.57252e-08
5.19665e-06
4.16542e-08
5.1994e-06
3.75321e-08
5.20185e-06
3.33072e-08
2.89204e-08
5.20366e-06
5.64659e-06
2.18103e-08
5.65558e-06
4.9044e-08
5.66379e-06
6.25558e-08
5.67132e-06
6.85009e-08
5.67845e-06
7.12786e-08
5.68496e-06
7.13623e-08
5.69088e-06
6.94937e-08
5.6964e-06
6.65028e-08
5.70141e-06
6.27021e-08
5.7058e-06
5.84809e-08
5.70972e-06
5.42617e-08
5.71335e-06
5.01951e-08
5.7168e-06
4.62828e-08
5.72011e-06
4.24172e-08
5.72321e-06
3.85378e-08
5.72609e-06
3.46481e-08
5.72862e-06
3.07403e-08
2.68747e-08
5.73068e-06
4.40938e-06
1.8539e-08
4.41525e-06
4.33437e-08
4.42111e-06
5.68463e-08
4.42659e-06
6.31678e-08
4.43181e-06
6.61689e-08
4.43667e-06
6.65821e-08
4.44113e-06
6.50609e-08
4.44525e-06
6.23894e-08
4.449e-06
5.89474e-08
4.45237e-06
5.51105e-08
4.45542e-06
5.11917e-08
4.45825e-06
4.73468e-08
4.46091e-06
4.35984e-08
4.46342e-06
3.9892e-08
4.46575e-06
3.61827e-08
4.46789e-06
3.24917e-08
4.46978e-06
2.88346e-08
2.52502e-08
4.47138e-06
5.14282e-06
1.55896e-08
5.14865e-06
3.73746e-08
5.15477e-06
5.06361e-08
5.16067e-06
5.72119e-08
5.16639e-06
6.04281e-08
5.17178e-06
6.1165e-08
5.17679e-06
6.00402e-08
5.18144e-06
5.77373e-08
5.18571e-06
5.46918e-08
5.18958e-06
5.12396e-08
5.19312e-06
4.76477e-08
5.1964e-06
4.40561e-08
5.19947e-06
4.05149e-08
5.20234e-06
3.69953e-08
5.205e-06
3.3507e-08
5.20742e-06
3.00441e-08
5.20957e-06
2.66527e-08
2.33965e-08
5.21143e-06
5.99844e-06
1.29069e-08
6.00411e-06
3.17502e-08
6.01042e-06
4.43885e-08
6.01669e-06
5.09956e-08
6.02287e-06
5.42919e-08
6.02879e-06
5.52766e-08
6.03435e-06
5.45021e-08
6.03955e-06
5.25562e-08
6.04437e-06
4.98974e-08
6.04879e-06
4.68249e-08
6.05286e-06
4.35755e-08
6.05663e-06
4.02689e-08
6.06015e-06
3.69661e-08
6.06344e-06
3.37101e-08
6.06646e-06
3.04561e-08
6.06922e-06
2.72794e-08
6.07168e-06
2.41865e-08
2.12358e-08
6.07384e-06
6.99662e-06
1.05754e-08
7.00202e-06
2.62926e-08
7.00843e-06
3.79485e-08
7.01502e-06
4.44045e-08
7.02162e-06
4.76843e-08
7.02806e-06
4.88536e-08
7.03417e-06
4.83862e-08
7.03993e-06
4.68198e-08
7.04531e-06
4.453e-08
7.05029e-06
4.18506e-08
7.05491e-06
3.89437e-08
7.0592e-06
3.59526e-08
7.06322e-06
3.29634e-08
7.06694e-06
2.99707e-08
7.07038e-06
2.70322e-08
7.0735e-06
2.41489e-08
7.07631e-06
2.13781e-08
1.87399e-08
7.07881e-06
8.16109e-06
8.45993e-09
8.16616e-06
2.12133e-08
8.17259e-06
3.15139e-08
8.17944e-06
3.75509e-08
8.18643e-06
4.06931e-08
8.19335e-06
4.19345e-08
8.20002e-06
4.17481e-08
8.20634e-06
4.04868e-08
8.2123e-06
3.86054e-08
8.21785e-06
3.62807e-08
8.22303e-06
3.37631e-08
8.22787e-06
3.11193e-08
8.23238e-06
2.846e-08
8.23658e-06
2.57958e-08
8.24043e-06
2.31849e-08
8.24396e-06
2.06318e-08
8.24714e-06
1.81958e-08
1.58863e-08
8.25001e-06
9.5196e-06
6.60208e-09
9.5243e-06
1.65038e-08
9.53066e-06
2.51534e-08
9.53771e-06
3.05052e-08
9.54505e-06
3.33576e-08
9.55244e-06
3.45867e-08
9.55963e-06
3.45397e-08
9.56655e-06
3.36198e-08
9.57307e-06
3.20501e-08
9.57924e-06
3.01483e-08
9.58499e-06
2.79864e-08
9.59041e-06
2.57481e-08
9.59544e-06
2.34309e-08
9.60014e-06
2.11499e-08
9.60443e-06
1.88684e-08
9.60839e-06
1.66924e-08
9.61197e-06
1.4588e-08
1.263e-08
9.61522e-06
1.11044e-05
4.88899e-09
1.11088e-05
1.2095e-08
1.1115e-05
1.88856e-08
1.11222e-05
2.32816e-08
1.11299e-05
2.57086e-08
1.11377e-05
2.67754e-08
1.11455e-05
2.68361e-08
1.11529e-05
2.61253e-08
1.11601e-05
2.49143e-08
1.11669e-05
2.33567e-08
1.11733e-05
2.16169e-08
1.11793e-05
1.97507e-08
1.11849e-05
1.78537e-08
1.11901e-05
1.59321e-08
1.11949e-05
1.40653e-08
1.11993e-05
1.22498e-08
1.12034e-05
1.0541e-08
8.92529e-09
1.1207e-05
1.29532e-05
3.29713e-09
1.29574e-05
7.89346e-09
1.29635e-05
1.26607e-08
1.29708e-05
1.59134e-08
1.29788e-05
1.77121e-08
1.29871e-05
1.85196e-08
1.29954e-05
1.85598e-08
1.30035e-05
1.80273e-08
1.30113e-05
1.70969e-08
1.30188e-05
1.5902e-08
1.30258e-05
1.45496e-08
1.30325e-05
1.31025e-08
1.30387e-05
1.16175e-08
1.30445e-05
1.01295e-08
1.30499e-05
8.67822e-09
1.30548e-05
7.28416e-09
1.30593e-05
5.97016e-09
4.74551e-09
1.30635e-05
1.511e-05
1.75774e-09
1.5114e-05
3.75664e-09
1.51202e-05
6.4398e-09
1.51277e-05
8.30748e-09
1.51361e-05
9.32621e-09
1.51449e-05
9.73304e-09
1.51538e-05
9.65776e-09
1.51626e-05
9.22867e-09
1.51711e-05
8.53995e-09
1.51794e-05
7.68568e-09
1.51872e-05
6.7251e-09
1.51946e-05
5.70996e-09
1.52015e-05
4.67209e-09
1.5208e-05
3.64336e-09
1.5214e-05
2.64545e-09
1.52195e-05
1.69727e-09
1.52247e-05
8.09818e-10
-4.5423e-12
1.52294e-05
1.7626e-05
1.97649e-10
1.76302e-05
-4.39151e-10
1.76366e-05
-5.96577e-12
1.76446e-05
2.85476e-10
1.76536e-05
3.58222e-10
1.76631e-05
2.12529e-10
1.76728e-05
-4.05914e-11
1.76825e-05
-4.50205e-10
1.76919e-05
-9.02637e-10
1.77011e-05
-1.44258e-09
1.77098e-05
-1.98052e-09
1.7718e-05
-2.55577e-09
1.77258e-05
-3.1028e-09
1.77331e-05
-3.65124e-09
1.77398e-05
-4.15459e-09
1.77462e-05
-4.63405e-09
1.7752e-05
-5.05987e-09
-5.44334e-09
1.77574e-05
1.78277e-05
-1.30116e-09
1.78318e-05
-4.44285e-09
1.78381e-05
-6.23682e-09
1.78459e-05
-7.46324e-09
1.78547e-05
-8.40649e-09
1.7864e-05
-9.04292e-09
1.78735e-05
-9.57035e-09
1.7883e-05
-9.90344e-09
1.78922e-05
-1.02101e-08
1.79013e-05
-1.03872e-08
1.79098e-05
-1.05759e-08
1.7918e-05
-1.06746e-08
1.79256e-05
-1.07925e-08
1.79328e-05
-1.08412e-08
1.79395e-05
-1.09023e-08
1.79458e-05
-1.09051e-08
1.79516e-05
-1.09131e-08
-1.08656e-08
1.79571e-05
1.58828e-05
-2.72309e-09
1.58867e-05
-8.24348e-09
1.58926e-05
-1.20124e-08
1.58998e-05
-1.46089e-08
1.59078e-05
-1.63312e-08
1.59162e-05
-1.7456e-08
1.59248e-05
-1.80863e-08
1.59333e-05
-1.84253e-08
1.59416e-05
-1.84701e-08
1.59495e-05
-1.83977e-08
1.59572e-05
-1.81711e-08
1.59643e-05
-1.79158e-08
1.59712e-05
-1.75753e-08
1.59775e-05
-1.72415e-08
1.59835e-05
-1.68588e-08
1.5989e-05
-1.6494e-08
1.59943e-05
-1.60973e-08
-1.57151e-08
1.59991e-05
1.41502e-05
-4.18082e-09
1.41541e-05
-1.21757e-08
1.416e-05
-1.78005e-08
1.4167e-05
-2.15367e-08
1.41746e-05
-2.38981e-08
1.41825e-05
-2.53085e-08
1.41905e-05
-2.60381e-08
1.41983e-05
-2.62223e-08
1.42059e-05
-2.60586e-08
1.42132e-05
-2.5637e-08
1.422e-05
-2.50753e-08
1.42265e-05
-2.44076e-08
1.42326e-05
-2.36962e-08
1.42384e-05
-2.2953e-08
1.42437e-05
-2.22137e-08
1.42487e-05
-2.14726e-08
1.42533e-05
-2.07541e-08
-2.00368e-08
1.42576e-05
1.26066e-05
-5.79934e-09
1.2611e-05
-1.64591e-08
1.2617e-05
-2.38336e-08
1.2624e-05
-2.84548e-08
1.26314e-05
-3.12804e-08
1.2639e-05
-3.28792e-08
1.26466e-05
-3.35569e-08
1.26539e-05
-3.35484e-08
1.26609e-05
-3.30832e-08
1.26676e-05
-3.2315e-08
1.26739e-05
-3.138e-08
1.26799e-05
-3.03207e-08
1.26854e-05
-2.92353e-08
1.26906e-05
-2.81161e-08
1.26954e-05
-2.70339e-08
1.26999e-05
-2.59568e-08
1.2704e-05
-2.49357e-08
-2.39304e-08
1.27079e-05
1.12317e-05
-7.65776e-09
1.12365e-05
-2.13205e-08
1.1243e-05
-3.02505e-08
1.125e-05
-3.55147e-08
1.12573e-05
-3.85876e-08
1.12647e-05
-4.02426e-08
1.12719e-05
-4.07707e-08
1.12789e-05
-4.04838e-08
1.12855e-05
-3.96616e-08
1.12917e-05
-3.85262e-08
1.12975e-05
-3.71839e-08
1.13029e-05
-3.57581e-08
1.1308e-05
-3.42726e-08
1.13127e-05
-3.28234e-08
1.13171e-05
-3.13833e-08
1.13211e-05
-3.00259e-08
1.13249e-05
-2.86987e-08
-2.74566e-08
1.13284e-05
1.00069e-05
-9.95109e-09
1.00125e-05
-2.68831e-08
1.00193e-05
-3.70847e-08
1.00265e-05
-4.26465e-08
1.00338e-05
-4.5864e-08
1.0041e-05
-4.74592e-08
1.0048e-05
-4.77369e-08
1.00546e-05
-4.70875e-08
1.00608e-05
-4.58786e-08
1.00666e-05
-4.43307e-08
1.0072e-05
-4.25924e-08
1.0077e-05
-4.07572e-08
1.00817e-05
-3.89177e-08
1.0086e-05
-3.71043e-08
1.00899e-05
-3.53711e-08
1.00937e-05
-3.37019e-08
1.00971e-05
-3.21393e-08
-3.06337e-08
1.01003e-05
8.91599e-06
-1.28038e-08
8.92254e-06
-3.34658e-08
8.92981e-06
-4.43712e-08
8.93706e-06
-4.99444e-08
8.94432e-06
-5.31262e-08
8.95142e-06
-5.45535e-08
8.95816e-06
-5.44817e-08
8.96449e-06
-5.34203e-08
8.9704e-06
-5.17767e-08
8.97588e-06
-4.98072e-08
8.98094e-06
-4.7647e-08
8.98561e-06
-4.54218e-08
8.9899e-06
-4.32039e-08
8.99385e-06
-4.10574e-08
8.99751e-06
-3.90047e-08
9.00088e-06
-3.70791e-08
9.00403e-06
-3.52627e-08
-3.35563e-08
9.00693e-06
7.94438e-06
-1.65441e-08
7.95217e-06
-4.12332e-08
7.95981e-06
-5.20167e-08
7.96719e-06
-5.73244e-08
7.97449e-06
-6.04494e-08
7.98153e-06
-6.16021e-08
7.98813e-06
-6.10924e-08
7.99427e-06
-5.95576e-08
7.99994e-06
-5.7458e-08
8.00517e-06
-5.50317e-08
8.00997e-06
-5.24428e-08
8.01436e-06
-4.98066e-08
8.01838e-06
-4.72191e-08
8.02207e-06
-4.47287e-08
8.02545e-06
-4.23854e-08
8.02857e-06
-4.01886e-08
8.03146e-06
-3.81462e-08
-3.62208e-08
8.03414e-06
7.07931e-06
-2.15108e-08
7.08853e-06
-5.04803e-08
7.09668e-06
-6.02194e-08
7.10437e-06
-6.50544e-08
7.11191e-06
-6.80086e-08
7.11908e-06
-6.8778e-08
7.12573e-06
-6.77561e-08
7.13187e-06
-6.57056e-08
7.13751e-06
-6.3094e-08
7.14268e-06
-6.01938e-08
7.14738e-06
-5.71447e-08
7.15166e-06
-5.40833e-08
7.15554e-06
-5.10981e-08
7.15906e-06
-4.82423e-08
7.16227e-06
-4.55747e-08
7.1652e-06
-4.31084e-08
7.16789e-06
-4.08287e-08
-3.87051e-08
7.1704e-06
6.30999e-06
-2.89918e-08
6.32084e-06
-6.14595e-08
6.33023e-06
-6.95815e-08
6.33911e-06
-7.39555e-08
6.34768e-06
-7.66098e-08
6.35568e-06
-7.67951e-08
6.36302e-06
-7.51113e-08
6.36973e-06
-7.24124e-08
6.37582e-06
-6.91934e-08
6.38131e-06
-6.56805e-08
6.38622e-06
-6.20538e-08
6.39059e-06
-5.84468e-08
6.39446e-06
-5.49392e-08
6.39784e-06
-5.16283e-08
6.40082e-06
-4.8545e-08
6.40344e-06
-4.57177e-08
6.40575e-06
-4.31241e-08
-4.07373e-08
6.4078e-06
5.62937e-06
-4.34871e-08
5.64453e-06
-7.67563e-08
5.65852e-06
-8.35974e-08
5.67189e-06
-8.7364e-08
5.68425e-06
-8.90118e-08
5.69526e-06
-8.78249e-08
5.70485e-06
-8.47037e-08
5.71302e-06
-8.05935e-08
5.71981e-06
-7.59848e-08
5.72528e-06
-7.11472e-08
5.72951e-06
-6.62839e-08
5.73263e-06
-6.15367e-08
5.73472e-06
-5.70143e-08
5.73589e-06
-5.27881e-08
5.73628e-06
-4.8927e-08
5.73604e-06
-4.54612e-08
5.7353e-06
-4.23679e-08
-3.98244e-08
5.7344e-06
5.05259e-06
-9.38003e-08
5.08744e-06
-1.11783e-07
5.11375e-06
-1.09957e-07
5.1319e-06
-1.05556e-07
5.14238e-06
-9.95288e-08
5.14618e-06
-9.16538e-08
5.14448e-06
-8.30157e-08
5.13836e-06
-7.44747e-08
5.12877e-06
-6.64013e-08
5.11656e-06
-5.89345e-08
5.10242e-06
-5.21283e-08
5.08689e-06
-4.59881e-08
5.07042e-06
-4.05176e-08
5.05335e-06
-3.57013e-08
5.03595e-06
-3.15211e-08
5.01857e-06
-2.806e-08
5.00156e-06
-2.53397e-08
-2.36449e-08
4.98539e-06
4.36274e-06
4.25095e-06
4.14099e-06
4.03543e-06
3.9359e-06
3.84424e-06
3.76123e-06
3.68675e-06
3.62035e-06
3.56142e-06
3.50929e-06
3.46331e-06
3.4228e-06
3.3871e-06
3.35558e-06
3.32752e-06
3.30219e-06
3.27855e-06
-8.26135e-09
8.26559e-09
-2.23983e-08
1.41512e-08
-3.78018e-08
1.54141e-08
-5.104e-08
1.32525e-08
-5.6955e-08
5.92908e-09
-4.94841e-08
-7.4622e-09
-2.65279e-08
-2.29403e-08
9.49649e-09
-3.60216e-08
5.44677e-08
-4.4958e-08
1.03569e-07
-4.91015e-08
1.52353e-07
-4.87765e-08
1.97707e-07
-4.53529e-08
2.37612e-07
-3.99014e-08
2.70827e-07
-3.32093e-08
2.96627e-07
-2.58006e-08
3.14616e-07
-1.79767e-08
3.24487e-07
-9.87428e-09
3.25949e-07
-1.44523e-09
3.18758e-07
7.18846e-09
3.03132e-07
1.56435e-08
2.79633e-07
2.34964e-08
2.49282e-07
3.03617e-08
2.13456e-07
3.58237e-08
1.74038e-07
3.94167e-08
1.33361e-07
4.06773e-08
9.40763e-08
3.92695e-08
5.8924e-08
3.51556e-08
3.00859e-08
2.88161e-08
8.75534e-09
2.13449e-08
-5.34461e-09
1.40773e-08
-1.30433e-08
7.73131e-09
-1.49274e-08
1.85047e-09
-1.06122e-08
-4.26182e-09
9.32705e-10
-1.16032e-08
2.15437e-08
-2.05478e-08
5.09823e-08
-2.95021e-08
8.55651e-08
-3.45258e-08
1.18831e-07
-3.33024e-08
1.45416e-07
-2.65459e-08
1.62009e-07
-1.6591e-08
1.68794e-07
-6.75443e-09
1.68535e-07
3.0373e-10
1.64642e-07
3.92155e-09
1.60684e-07
4.03653e-09
1.58684e-07
2.02028e-09
1.53242e-07
5.54025e-09
1.3501e-07
1.82263e-08
9.61942e-08
3.89106e-08
3.11024e-08
6.50551e-08
-5.76099e-08
8.87662e-08
-1.65238e-07
1.07593e-07
-2.88861e-07
1.2362e-07
-4.25042e-07
1.36165e-07
-5.6913e-07
1.44058e-07
-7.16056e-07
1.46926e-07
-8.63215e-07
1.47133e-07
-1.00644e-06
1.43238e-07
-1.14309e-06
1.36635e-07
-1.27189e-06
1.28825e-07
-1.39209e-06
1.202e-07
-1.50292e-06
1.10845e-07
-1.60412e-06
1.01206e-07
-1.69694e-06
9.28322e-08
-1.78221e-06
8.52843e-08
-1.86043e-06
7.82223e-08
-1.93238e-06
7.19544e-08
-1.99882e-06
6.64557e-08
-2.06043e-06
6.16116e-08
-2.11779e-06
5.73676e-08
-2.17141e-06
5.36284e-08
-2.22172e-06
5.03182e-08
-2.26907e-06
4.73648e-08
-2.31377e-06
4.47044e-08
-2.35604e-06
4.22856e-08
-2.3961e-06
4.00606e-08
-2.43407e-06
3.79959e-08
-2.47013e-06
3.60575e-08
-2.50433e-06
3.42258e-08
-2.53681e-06
3.2476e-08
-2.56759e-06
3.07982e-08
-2.59676e-06
2.91735e-08
-2.62435e-06
2.75984e-08
-2.65041e-06
2.60581e-08
-2.67495e-06
2.45524e-08
-2.69802e-06
2.30696e-08
-2.71962e-06
2.1611e-08
-2.73978e-06
2.01661e-08
-2.75851e-06
1.8735e-08
-2.77582e-06
1.7306e-08
-2.79169e-06
1.58785e-08
-2.80612e-06
1.44406e-08
-2.81908e-06
1.29906e-08
-2.83057e-06
1.15177e-08
-2.84055e-06
1.00139e-08
-2.849e-06
8.46859e-09
-2.85586e-06
6.87136e-09
-2.86106e-06
5.21247e-09
-2.86453e-06
3.4784e-09
-2.8662e-06
1.68088e-09
-2.86611e-06
-8.7107e-11
-2.86447e-06
-1.63143e-09
-2.86148e-06
-2.98454e-09
-2.85717e-06
-4.29921e-09
-2.85156e-06
-5.59833e-09
-2.84465e-06
-6.89642e-09
-2.83643e-06
-8.1935e-09
-2.82692e-06
-9.4918e-09
-2.81611e-06
-1.07872e-08
-2.80401e-06
-1.20825e-08
-2.79062e-06
-1.33709e-08
-2.77594e-06
-1.46575e-08
-2.75998e-06
-1.59332e-08
-2.74276e-06
-1.7205e-08
-2.72428e-06
-1.84622e-08
-2.70456e-06
-1.97136e-08
-2.68359e-06
-2.09471e-08
-2.66142e-06
-2.21727e-08
-2.63803e-06
-2.33783e-08
-2.61347e-06
-2.4574e-08
-2.58773e-06
-2.57485e-08
-2.56083e-06
-2.6911e-08
-2.5328e-06
-2.80518e-08
-2.50365e-06
-2.91783e-08
-2.47339e-06
-3.02827e-08
-2.44206e-06
-3.13702e-08
-2.40966e-06
-3.24358e-08
-2.37622e-06
-3.34819e-08
-2.34177e-06
-3.45054e-08
-2.30631e-06
-3.55033e-08
-2.26988e-06
-3.64736e-08
-2.23249e-06
-3.74191e-08
-2.19417e-06
-3.83387e-08
-2.15498e-06
-3.92228e-08
-2.11495e-06
-4.00703e-08
-2.07413e-06
-4.08586e-08
-2.03259e-06
-4.15867e-08
-1.99037e-06
-4.2232e-08
-1.94739e-06
-4.2989e-08
-1.90361e-06
-4.38003e-08
-1.85915e-06
-4.45071e-08
-1.81402e-06
-4.51742e-08
-1.76828e-06
-4.58087e-08
-1.72191e-06
-4.6397e-08
-1.67499e-06
-4.69563e-08
-1.62752e-06
-4.74736e-08
-1.57954e-06
-4.79651e-08
-1.53107e-06
-4.84148e-08
-1.48216e-06
-4.88421e-08
-1.43283e-06
-4.92321e-08
-1.38315e-06
-4.96057e-08
-1.33312e-06
-4.99505e-08
-1.28279e-06
-5.02718e-08
-1.23217e-06
-5.05594e-08
-1.18131e-06
-5.08165e-08
-1.13022e-06
-5.10438e-08
-1.07894e-06
-5.12455e-08
-1.02748e-06
-5.14259e-08
-9.75865e-07
-5.15914e-08
-9.24093e-07
-5.17466e-08
-8.72176e-07
-5.18965e-08
-8.20109e-07
-5.20449e-08
-7.67898e-07
-5.21925e-08
-7.15538e-07
-5.23398e-08
-6.63035e-07
-5.24832e-08
-6.10392e-07
-5.26246e-08
-5.57608e-07
-5.27627e-08
-5.04686e-07
-5.29039e-08
-4.51616e-07
-5.30479e-08
-3.98396e-07
-5.32007e-08
-3.45015e-07
-5.33562e-08
-2.91483e-07
-5.35108e-08
-2.37813e-07
-5.364e-08
-1.84072e-07
-5.3718e-08
-1.30356e-07
-5.36817e-08
-7.68786e-08
-5.34517e-08
-2.40702e-08
-5.27693e-08
2.74243e-08
-5.14672e-08
7.59301e-08
-4.8465e-08
1.207e-07
-4.4742e-08
-1.99397e-08
1.40684e-07
-3.50311e-09
1.17769e-08
-9.72409e-09
2.03976e-08
-1.26954e-08
1.8405e-08
-5.24544e-09
5.83284e-09
1.77213e-08
-1.70178e-08
5.53441e-08
-4.50734e-08
1.03102e-07
-7.06889e-08
1.55416e-07
-8.83329e-08
2.07158e-07
-9.66941e-08
2.55047e-07
-9.69891e-08
2.97611e-07
-9.13368e-08
3.34152e-07
-8.18923e-08
3.64563e-07
-7.03107e-08
3.89044e-07
-5.76848e-08
4.07917e-07
-4.46724e-08
4.21579e-07
-3.16308e-08
4.30437e-07
-1.87314e-08
4.35065e-07
-6.06112e-09
4.35838e-07
6.41665e-09
4.32679e-07
1.88133e-08
4.25092e-07
3.10846e-08
4.12479e-07
4.2981e-08
3.94251e-07
5.40524e-08
3.7004e-07
6.36271e-08
3.3986e-07
7.0857e-08
3.04301e-07
7.48219e-08
2.64714e-07
7.47432e-08
2.23259e-07
7.02602e-08
1.82999e-07
6.16124e-08
1.47535e-07
4.95253e-08
1.2047e-07
3.48199e-08
1.04239e-07
1.80535e-08
1.00462e-07
-4.46119e-10
1.08572e-07
-1.97568e-08
1.26659e-07
-3.85999e-08
1.49294e-07
-5.21804e-08
1.69455e-07
-5.4663e-08
1.82006e-07
-4.58788e-08
1.85312e-07
-2.9834e-08
1.79251e-07
-1.05249e-08
1.65167e-07
7.35684e-09
1.44671e-07
2.08523e-08
1.12912e-07
3.57197e-08
6.01598e-08
5.68792e-08
-2.2681e-08
8.49007e-08
-1.36513e-07
1.19432e-07
-2.73635e-07
1.55361e-07
-4.24081e-07
1.89378e-07
-5.79898e-07
2.20876e-07
-7.38338e-07
2.47215e-07
-8.97096e-07
2.66351e-07
-1.05209e-06
2.78613e-07
-1.19985e-06
2.83924e-07
-1.33777e-06
2.81961e-07
-1.46416e-06
2.7332e-07
-1.57715e-06
2.60109e-07
-1.67759e-06
2.43679e-07
-1.7663e-06
2.25347e-07
-1.84443e-06
2.06963e-07
-1.91344e-06
1.89209e-07
-1.97508e-06
1.72495e-07
-2.0309e-06
1.57038e-07
-2.08152e-06
1.43459e-07
-2.12781e-06
1.31574e-07
-2.1707e-06
1.2112e-07
-2.21074e-06
1.11997e-07
-2.24833e-06
1.04049e-07
-2.2838e-06
9.70918e-08
-2.3174e-06
9.09688e-08
-2.34929e-06
8.55337e-08
-2.37963e-06
8.0663e-08
-2.40851e-06
7.6252e-08
-2.43601e-06
7.22121e-08
-2.46219e-06
6.8472e-08
-2.48709e-06
6.49725e-08
-2.51075e-06
6.16674e-08
-2.53321e-06
5.85177e-08
-2.55447e-06
5.54948e-08
-2.57456e-06
5.25732e-08
-2.59349e-06
4.97354e-08
-2.61127e-06
4.6964e-08
-2.62792e-06
4.42487e-08
-2.64343e-06
4.15768e-08
-2.65782e-06
3.89424e-08
-2.67108e-06
3.63358e-08
-2.68322e-06
3.37528e-08
-2.69424e-06
3.11852e-08
-2.70412e-06
2.86278e-08
-2.71289e-06
2.60747e-08
-2.72053e-06
2.3516e-08
-2.72702e-06
2.09498e-08
-2.73238e-06
1.83705e-08
-2.73661e-06
1.57724e-08
-2.73973e-06
1.31539e-08
-2.74176e-06
1.05127e-08
-2.74273e-06
7.85206e-09
-2.7427e-06
5.17937e-09
-2.74173e-06
2.51152e-09
-2.73993e-06
-1.16989e-10
-2.73733e-06
-2.67732e-09
-2.73375e-06
-5.20913e-09
-2.72897e-06
-7.75916e-09
-2.72294e-06
-1.03149e-08
-2.71566e-06
-1.2874e-08
-2.70711e-06
-1.54368e-08
-2.69728e-06
-1.80033e-08
-2.68619e-06
-2.05702e-08
-2.67382e-06
-2.31361e-08
-2.66019e-06
-2.56973e-08
-2.6453e-06
-2.82511e-08
-2.62914e-06
-3.07946e-08
-2.61173e-06
-3.33242e-08
-2.59308e-06
-3.58381e-08
-2.5732e-06
-3.83316e-08
-2.5521e-06
-4.08044e-08
-2.52979e-06
-4.32509e-08
-2.50629e-06
-4.56723e-08
-2.4816e-06
-4.80628e-08
-2.45575e-06
-5.0425e-08
-2.42875e-06
-5.2753e-08
-2.40063e-06
-5.50501e-08
-2.37138e-06
-5.73103e-08
-2.34104e-06
-5.95369e-08
-2.30962e-06
-6.17237e-08
-2.27715e-06
-6.38737e-08
-2.24363e-06
-6.59813e-08
-2.20909e-06
-6.80485e-08
-2.17356e-06
-7.007e-08
-2.13705e-06
-7.20445e-08
-2.09958e-06
-7.3965e-08
-2.06118e-06
-7.58337e-08
-2.02189e-06
-7.76489e-08
-1.98172e-06
-7.94076e-08
-1.94072e-06
-8.11047e-08
-1.89887e-06
-8.27362e-08
-1.85618e-06
-8.42947e-08
-1.81263e-06
-8.57885e-08
-1.76833e-06
-8.72945e-08
-1.72336e-06
-8.87801e-08
-1.67772e-06
-9.01775e-08
-1.63143e-06
-9.1502e-08
-1.58452e-06
-9.27562e-08
-1.53701e-06
-9.39344e-08
-1.48893e-06
-9.50453e-08
-1.44032e-06
-9.60856e-08
-1.3912e-06
-9.70612e-08
-1.34161e-06
-9.79692e-08
-1.29158e-06
-9.88199e-08
-1.24114e-06
-9.96123e-08
-1.19034e-06
-1.00358e-07
-1.13919e-06
-1.01054e-07
-1.08773e-06
-1.01694e-07
-1.03598e-06
-1.02275e-07
-9.83983e-07
-1.02792e-07
-9.31752e-07
-1.03252e-07
-8.79319e-07
-1.03661e-07
-8.26702e-07
-1.04027e-07
-7.7392e-07
-1.04364e-07
-7.20977e-07
-1.04678e-07
-6.67883e-07
-1.04983e-07
-6.14636e-07
-1.05283e-07
-5.61238e-07
-1.05584e-07
-5.07686e-07
-1.05883e-07
-4.53983e-07
-1.06179e-07
-4.0013e-07
-1.06469e-07
-3.46128e-07
-1.06757e-07
-2.91974e-07
-1.07048e-07
-2.37663e-07
-1.07349e-07
-1.83189e-07
-1.07664e-07
-1.28543e-07
-1.07989e-07
-7.37305e-08
-1.08309e-07
-1.87664e-08
-1.08587e-07
3.63019e-08
-1.08769e-07
9.13933e-08
-1.08752e-07
1.46322e-07
-1.0836e-07
2.0084e-07
-1.07264e-07
2.54318e-07
-1.04925e-07
3.06182e-07
-1.00306e-07
3.53079e-07
-9.16178e-08
-6.46856e-08
3.97854e-07
4.04706e-10
1.1381e-08
4.1505e-09
1.6674e-08
1.90461e-08
3.52697e-09
5.29625e-08
-2.80696e-08
1.04292e-07
-6.83397e-08
1.63249e-07
-1.04025e-07
2.19946e-07
-1.27382e-07
2.68871e-07
-1.37256e-07
3.08414e-07
-1.36234e-07
3.39278e-07
-1.27852e-07
3.6306e-07
-1.15116e-07
3.81293e-07
-1.00123e-07
3.95159e-07
-8.4175e-08
4.05477e-07
-6.79979e-08
4.1278e-07
-5.19731e-08
4.17443e-07
-3.62867e-08
4.19737e-07
-2.10236e-08
4.19914e-07
-6.22903e-09
4.18254e-07
8.07934e-09
4.15132e-07
2.19443e-08
4.10803e-07
3.54159e-08
4.05314e-07
4.84771e-08
3.98379e-07
6.09887e-08
3.89397e-07
7.26115e-08
3.77502e-07
8.27534e-08
3.61772e-07
9.05501e-08
3.41592e-07
9.49241e-08
3.17094e-07
9.47528e-08
2.89536e-07
8.91732e-08
2.61276e-07
7.77787e-08
2.35354e-07
6.07503e-08
2.14549e-07
3.88453e-08
2.00596e-07
1.35193e-08
1.93395e-07
-1.258e-08
1.88592e-07
-3.37854e-08
1.78584e-07
-4.21984e-08
1.59461e-07
-3.5531e-08
1.31244e-07
-1.76766e-08
9.46743e-08
6.75601e-09
4.76997e-08
3.64586e-08
-1.52243e-08
7.03182e-08
-1.00859e-07
1.06525e-07
-2.10982e-07
1.45874e-07
-3.42471e-07
1.88395e-07
-4.89321e-07
2.31766e-07
-6.42855e-07
2.72982e-07
-7.9685e-07
3.09362e-07
-9.46309e-07
3.38848e-07
-1.08596e-06
3.60532e-07
-1.21275e-06
3.74011e-07
-1.3256e-06
3.79206e-07
-1.42377e-06
3.76792e-07
-1.50756e-06
3.67717e-07
-1.57869e-06
3.5308e-07
-1.63967e-06
3.34306e-07
-1.69265e-06
3.13084e-07
-1.73977e-06
2.90801e-07
-1.78292e-06
2.68491e-07
-1.82314e-06
2.47185e-07
-1.86127e-06
2.27343e-07
-1.89798e-06
2.09207e-07
-1.93373e-06
1.92799e-07
-1.9685e-06
1.78229e-07
-2.00229e-06
1.65368e-07
-2.03517e-06
1.54008e-07
-2.06714e-06
1.43971e-07
-2.09817e-06
1.35082e-07
-2.12824e-06
1.27164e-07
-2.15732e-06
1.20059e-07
-2.18541e-06
1.13628e-07
-2.21249e-06
1.0775e-07
-2.23856e-06
1.02325e-07
-2.26361e-06
9.72654e-08
-2.28763e-06
9.25024e-08
-2.31063e-06
8.79778e-08
-2.3326e-06
8.36455e-08
-2.35355e-06
7.94679e-08
-2.37346e-06
7.54155e-08
-2.39234e-06
7.1464e-08
-2.4102e-06
6.75949e-08
-2.42702e-06
6.3792e-08
-2.44282e-06
6.00436e-08
-2.45758e-06
5.63386e-08
-2.4713e-06
5.26688e-08
-2.48399e-06
4.9026e-08
-2.49564e-06
4.54044e-08
-2.50624e-06
4.17965e-08
-2.51581e-06
3.8197e-08
-2.52433e-06
3.45977e-08
-2.53181e-06
3.09945e-08
-2.53823e-06
2.738e-08
-2.5436e-06
2.37511e-08
-2.54791e-06
2.0106e-08
-2.55119e-06
1.64423e-08
-2.55343e-06
1.2761e-08
-2.55464e-06
9.06693e-09
-2.55483e-06
5.36614e-09
-2.55398e-06
1.67e-09
-2.55209e-06
-2.01279e-09
-2.54907e-06
-5.6876e-09
-2.5449e-06
-9.38557e-09
-2.53953e-06
-1.31196e-08
-2.53296e-06
-1.68778e-08
-2.52518e-06
-2.06521e-08
-2.51617e-06
-2.44385e-08
-2.50593e-06
-2.82324e-08
-2.49446e-06
-3.2029e-08
-2.48176e-06
-3.5825e-08
-2.46783e-06
-3.96142e-08
-2.45267e-06
-4.33939e-08
-2.43629e-06
-4.71575e-08
-2.4187e-06
-5.09028e-08
-2.3999e-06
-5.46228e-08
-2.37991e-06
-5.83158e-08
-2.35873e-06
-6.1975e-08
-2.33637e-06
-6.5599e-08
-2.31286e-06
-6.91821e-08
-2.2882e-06
-7.27236e-08
-2.2624e-06
-7.62194e-08
-2.23549e-06
-7.9669e-08
-2.20748e-06
-8.30693e-08
-2.17838e-06
-8.64195e-08
-2.14821e-06
-8.97168e-08
-2.11699e-06
-9.29595e-08
-2.08474e-06
-9.6145e-08
-2.05147e-06
-9.92711e-08
-2.0172e-06
-1.02336e-07
-1.98196e-06
-1.05335e-07
-1.94576e-06
-1.08265e-07
-1.90863e-06
-1.11119e-07
-1.87058e-06
-1.13896e-07
-1.83164e-06
-1.16596e-07
-1.79185e-06
-1.19217e-07
-1.75123e-06
-1.21754e-07
-1.70979e-06
-1.24206e-07
-1.66753e-06
-1.26568e-07
-1.62448e-06
-1.28849e-07
-1.5807e-06
-1.31077e-07
-1.53626e-06
-1.33238e-07
-1.49116e-06
-1.35303e-07
-1.44543e-06
-1.37268e-07
-1.39908e-06
-1.39131e-07
-1.35215e-06
-1.40888e-07
-1.30466e-06
-1.42544e-07
-1.25665e-06
-1.44099e-07
-1.20815e-06
-1.45555e-07
-1.15918e-06
-1.46914e-07
-1.10978e-06
-1.48186e-07
-1.05999e-06
-1.49374e-07
-1.00983e-06
-1.50489e-07
-9.59326e-07
-1.51529e-07
-9.08513e-07
-1.52487e-07
-8.57413e-07
-1.53357e-07
-8.06056e-07
-1.54135e-07
-7.54467e-07
-1.54828e-07
-7.02671e-07
-1.55446e-07
-6.50689e-07
-1.56001e-07
-5.98535e-07
-1.5651e-07
-5.46219e-07
-1.56988e-07
-4.93748e-07
-1.57449e-07
-4.41122e-07
-1.57903e-07
-3.88343e-07
-1.58359e-07
-3.35408e-07
-1.58813e-07
-2.82319e-07
-1.59264e-07
-2.29076e-07
-1.59707e-07
-1.75679e-07
-1.6015e-07
-1.22126e-07
-1.60598e-07
-6.84091e-08
-1.61062e-07
-1.4522e-08
-1.61547e-07
3.95429e-08
-1.62049e-07
9.37836e-08
-1.62546e-07
1.4819e-07
-1.62989e-07
2.02721e-07
-1.63296e-07
2.57301e-07
-1.63326e-07
3.11795e-07
-1.62851e-07
3.66003e-07
-1.61466e-07
4.19574e-07
-1.58492e-07
4.72085e-07
-1.52811e-07
5.22578e-07
-1.42107e-07
-1.16628e-07
5.74528e-07
-1.32409e-10
1.15253e-08
1.32689e-08
3.29004e-09
5.37455e-08
-3.69371e-08
1.16448e-07
-9.07649e-08
1.83795e-07
-1.35683e-07
2.41615e-07
-1.61842e-07
2.84425e-07
-1.70189e-07
3.13216e-07
-1.66045e-07
3.31619e-07
-1.54635e-07
3.43304e-07
-1.39534e-07
3.50943e-07
-1.22752e-07
3.56129e-07
-1.05307e-07
3.59667e-07
-8.77096e-08
3.619e-07
-7.02267e-08
3.62942e-07
-5.30115e-08
3.62827e-07
-3.6165e-08
3.61569e-07
-1.97616e-08
3.59214e-07
-3.86427e-09
3.55825e-07
1.14722e-08
3.51559e-07
2.62206e-08
3.46622e-07
4.03568e-08
3.41262e-07
5.38449e-08
3.35642e-07
6.66125e-08
3.29768e-07
7.84905e-08
3.23375e-07
8.91483e-08
3.15927e-07
9.80006e-08
3.06673e-07
1.04181e-07
2.94878e-07
1.06547e-07
2.80174e-07
1.0388e-07
2.62739e-07
9.52081e-08
2.4357e-07
7.99269e-08
2.24e-07
5.8402e-08
2.04597e-07
3.2934e-08
1.81722e-07
1.0275e-08
1.48337e-07
-3.83612e-10
1.01684e-07
4.43415e-09
4.30708e-08
2.31033e-08
-2.83839e-08
5.37756e-08
-1.15357e-07
9.37507e-08
-2.18765e-07
1.39884e-07
-3.37421e-07
1.88993e-07
-4.69203e-07
2.38328e-07
-6.09357e-07
2.86044e-07
-7.51622e-07
3.30675e-07
-8.90031e-07
3.70185e-07
-1.01908e-06
4.02045e-07
-1.1348e-06
4.25081e-07
-1.23545e-06
4.39508e-07
-1.32047e-06
4.45559e-07
-1.39047e-06
4.44021e-07
-1.44726e-06
4.36e-07
-1.49312e-06
4.22657e-07
-1.53065e-06
4.05247e-07
-1.56251e-06
3.84944e-07
-1.5911e-06
3.6289e-07
-1.61816e-06
3.40148e-07
-1.64491e-06
3.17547e-07
-1.6721e-06
2.95684e-07
-1.69996e-06
2.75048e-07
-1.72851e-06
2.55894e-07
-1.75764e-06
2.38337e-07
-1.7872e-06
2.22365e-07
-1.81693e-06
2.07961e-07
-1.84658e-06
1.95026e-07
-1.87598e-06
1.83413e-07
-1.90498e-06
1.72968e-07
-1.93343e-06
1.63539e-07
-1.96124e-06
1.5498e-07
-1.98833e-06
1.47155e-07
-2.01464e-06
1.39942e-07
-2.04012e-06
1.33236e-07
-2.06474e-06
1.26946e-07
-2.08846e-06
1.20994e-07
-2.11127e-06
1.15316e-07
-2.13315e-06
1.0986e-07
-2.15408e-06
1.04582e-07
-2.17406e-06
9.94485e-08
-2.19307e-06
9.44313e-08
-2.21111e-06
8.95084e-08
-2.22817e-06
8.46622e-08
-2.24425e-06
7.9878e-08
-2.25935e-06
7.51443e-08
-2.27346e-06
7.0451e-08
-2.28658e-06
6.57899e-08
-2.29871e-06
6.11537e-08
-2.30984e-06
5.65356e-08
-2.31996e-06
5.19291e-08
-2.32909e-06
4.73274e-08
-2.33722e-06
4.2725e-08
-2.34434e-06
3.81112e-08
-2.35044e-06
3.34855e-08
-2.35551e-06
2.88402e-08
-2.35957e-06
2.41738e-08
-2.3626e-06
1.94832e-08
-2.36461e-06
1.47686e-08
-2.36557e-06
1.0032e-08
-2.36548e-06
5.27635e-09
-2.36432e-06
5.06193e-10
-2.36206e-06
-4.27935e-09
-2.35865e-06
-9.08797e-09
-2.3541e-06
-1.39364e-08
-2.34839e-06
-1.8827e-08
-2.34151e-06
-2.37522e-08
-2.33346e-06
-2.8702e-08
-2.32422e-06
-3.3671e-08
-2.31379e-06
-3.86514e-08
-2.30217e-06
-4.36374e-08
-2.28936e-06
-4.86226e-08
-2.27537e-06
-5.36004e-08
-2.26018e-06
-5.85657e-08
-2.24382e-06
-6.35109e-08
-2.22628e-06
-6.84323e-08
-2.20757e-06
-7.33212e-08
-2.1877e-06
-7.81751e-08
-2.16668e-06
-8.29847e-08
-2.14453e-06
-8.7749e-08
-2.12125e-06
-9.24587e-08
-2.09685e-06