/*--------------------------------*- C++ -*----------------------------------*\
  =========                 |
  \\      /  F ield         | OpenFOAM: The Open Source CFD Toolbox
   \\    /   O peration     | Website:  https://openfoam.org
    \\  /    A nd           | Version:  8
     \\/     M anipulation  |
\*---------------------------------------------------------------------------*/
FoamFile
{
    version     2.0;
    format      ascii;
    class       volVectorField;
    location    "1600";
    object      U;
}
// * * * * * * * * * * * * * * * * * * * * * * * * * * * * * * * * * * * * * //

dimensions      [0 1 -1 0 0 0 0];

internalField   nonuniform List<vector> 
12225
(
(9.77836 0.045286 0)
(9.34236 0.0878241 0)
(8.92142 0.0911715 0)
(8.53377 0.0827514 0)
(8.19544 0.073276 0)
(7.90682 0.0616234 0)
(7.66294 0.0549741 0)
(7.47435 0.0621904 0)
(7.29894 0.0551328 0)
(7.15133 0.0291028 0)
(7.0297 0.0133353 0)
(6.92628 0.00976651 0)
(6.83282 0.011903 0)
(6.75787 0.0085425 0)
(6.69789 0.0136934 0)
(6.65467 0.0176846 0)
(6.62712 0.0206744 0)
(6.61843 0.0104253 0)
(10.0736 0.056737 0)
(10.2214 0.0884944 0)
(10.2998 0.0870387 0)
(10.3182 0.0840765 0)
(10.2949 0.0804195 0)
(10.2483 0.0754607 0)
(10.183 0.0685283 0)
(10.0913 0.0611653 0)
(9.98721 0.0583127 0)
(9.89754 0.0574804 0)
(9.81502 0.0550617 0)
(9.73324 0.0506151 0)
(9.65642 0.0442309 0)
(9.57787 0.0397175 0)
(9.50452 0.0342159 0)
(9.42576 0.028596 0)
(9.35406 0.0225563 0)
(9.28458 0.0175351 0)
(10.0197 0.0417311 0)
(10.0744 0.0652033 0)
(10.1238 0.0682528 0)
(10.1593 0.0731412 0)
(10.1889 0.0783211 0)
(10.2125 0.0799604 0)
(10.2277 0.0789507 0)
(10.2349 0.0777908 0)
(10.2364 0.0749433 0)
(10.2334 0.0703241 0)
(10.2256 0.0672188 0)
(10.2147 0.0652918 0)
(10.2029 0.0637888 0)
(10.1886 0.0603399 0)
(10.1723 0.0557706 0)
(10.1545 0.0510554 0)
(10.1358 0.0463752 0)
(10.1167 0.0385126 0)
(10.0086 0.0310383 0)
(10.0414 0.0549643 0)
(10.0725 0.0625057 0)
(10.094 0.0676494 0)
(10.1127 0.0712403 0)
(10.13 0.0720108 0)
(10.1452 0.0715991 0)
(10.1589 0.0714575 0)
(10.1711 0.0695156 0)
(10.1805 0.0656318 0)
(10.1873 0.0625767 0)
(10.1929 0.060324 0)
(10.1978 0.0584503 0)
(10.2022 0.0563149 0)
(10.2059 0.0539037 0)
(10.2088 0.0508657 0)
(10.2113 0.0468961 0)
(10.2126 0.0409763 0)
(10.0046 0.0241839 0)
(10.0292 0.0480777 0)
(10.0537 0.0572679 0)
(10.0712 0.0623201 0)
(10.0861 0.0658342 0)
(10.1002 0.0671459 0)
(10.113 0.0672476 0)
(10.1247 0.0670293 0)
(10.1356 0.0654707 0)
(10.1448 0.0626684 0)
(10.1523 0.0601257 0)
(10.159 0.0579881 0)
(10.1654 0.0560545 0)
(10.1717 0.0539067 0)
(10.1777 0.0514407 0)
(10.1833 0.0485532 0)
(10.1884 0.0449152 0)
(10.1927 0.0400091 0)
(10.003 0.019194 0)
(10.0216 0.0412308 0)
(10.042 0.0513761 0)
(10.0578 0.0569125 0)
(10.0714 0.0608095 0)
(10.0842 0.0626517 0)
(10.0959 0.0630751 0)
(10.1066 0.0627582 0)
(10.1164 0.0613785 0)
(10.125 0.0591555 0)
(10.1324 0.056934 0)
(10.1391 0.0548647 0)
(10.1455 0.0528787 0)
(10.1517 0.0506927 0)
(10.1576 0.0481843 0)
(10.1632 0.0452904 0)
(10.1683 0.0418523 0)
(10.1727 0.0377098 0)
(10.0021 0.0153878 0)
(10.016 0.0348535 0)
(10.0331 0.0454304 0)
(10.0476 0.051414 0)
(10.0602 0.0555308 0)
(10.0722 0.057727 0)
(10.0834 0.0584429 0)
(10.0935 0.0582241 0)
(10.1028 0.0571032 0)
(10.111 0.0553333 0)
(10.1184 0.0534052 0)
(10.1251 0.0514592 0)
(10.1313 0.0494809 0)
(10.1373 0.047303 0)
(10.143 0.0448321 0)
(10.1484 0.0420326 0)
(10.1532 0.0388471 0)
(10.1573 0.0352677 0)
(10.0015 0.0127042 0)
(10.0125 0.0303519 0)
(10.0272 0.0409163 0)
(10.0406 0.0470425 0)
(10.0525 0.0511405 0)
(10.0639 0.0534417 0)
(10.0746 0.054274 0)
(10.0843 0.0541299 0)
(10.0932 0.0532069 0)
(10.1012 0.0517551 0)
(10.1085 0.050053 0)
(10.1152 0.0482252 0)
(10.1214 0.0462788 0)
(10.1273 0.0441323 0)
(10.1328 0.0417223 0)
(10.1379 0.0390434 0)
(10.1424 0.0360856 0)
(10.1465 0.0328976 0)
(10.0012 0.0106895 0)
(10.0099 0.0263568 0)
(10.0226 0.036689 0)
(10.0349 0.0428761 0)
(10.0462 0.0469962 0)
(10.0569 0.0494199 0)
(10.0671 0.0504291 0)
(10.0765 0.050454 0)
(10.0852 0.049725 0)
(10.093 0.0484767 0)
(10.1002 0.0469301 0)
(10.1069 0.0452062 0)
(10.113 0.0433305 0)
(10.1188 0.0412539 0)
(10.1242 0.0389463 0)
(10.1292 0.0364022 0)
(10.1336 0.0336453 0)
(10.1376 0.0307309 0)
(10.0009 0.00892293 0)
(10.0077 0.022512 0)
(10.0185 0.0323661 0)
(10.0296 0.0384802 0)
(10.0401 0.0425381 0)
(10.0501 0.0450079 0)
(10.0597 0.0461478 0)
(10.0688 0.0463096 0)
(10.0771 0.0457564 0)
(10.0848 0.0446927 0)
(10.0918 0.0433059 0)
(10.0984 0.0416982 0)
(10.1045 0.0399084 0)
(10.1101 0.0379343 0)
(10.1154 0.0357474 0)
(10.1202 0.0333716 0)
(10.1246 0.0308317 0)
(10.1285 0.0281999 0)
(10.0007 0.00736378 0)
(10.006 0.0188837 0)
(10.015 0.0280034 0)
(10.0248 0.0338895 0)
(10.0344 0.0377813 0)
(10.0437 0.040218 0)
(10.0527 0.0414238 0)
(10.0612 0.0417008 0)
(10.0692 0.041289 0)
(10.0766 0.0403942 0)
(10.0834 0.0391567 0)
(10.0898 0.0376736 0)
(10.0958 0.0360013 0)
(10.1013 0.0341498 0)
(10.1064 0.0321135 0)
(10.1111 0.0299269 0)
(10.1153 0.0276225 0)
(10.1192 0.0252497 0)
(10.0005 0.00598038 0)
(10.0046 0.0154344 0)
(10.012 0.0235805 0)
(10.0206 0.0290706 0)
(10.0293 0.0327057 0)
(10.0378 0.0350292 0)
(10.0462 0.0362559 0)
(10.0542 0.0366072 0)
(10.0617 0.0363257 0)
(10.0687 0.0355683 0)
(10.0753 0.0344783 0)
(10.0815 0.0331296 0)
(10.0872 0.0316017 0)
(10.0925 0.0298853 0)
(10.0975 0.0280328 0)
(10.102 0.0260416 0)
(10.1061 0.0239756 0)
(10.1099 0.0218577 0)
(10.0004 0.00474037 0)
(10.0036 0.0122397 0)
(10.0096 0.0191987 0)
(10.017 0.0240939 0)
(10.0248 0.0273612 0)
(10.0325 0.0294849 0)
(10.0402 0.0306493 0)
(10.0477 0.0310382 0)
(10.0548 0.0308431 0)
(10.0614 0.030214 0)
(10.0677 0.0292587 0)
(10.0736 0.0280677 0)
(10.079 0.0266774 0)
(10.0842 0.0251394 0)
(10.0889 0.0234585 0)
(10.0932 0.0216887 0)
(10.0972 0.0198474 0)
(10.1008 0.0179872 0)
(10.0003 0.00362305 0)
(10.0028 0.00926914 0)
(10.0077 0.0148864 0)
(10.014 0.0189951 0)
(10.0209 0.0217775 0)
(10.0279 0.0236002 0)
(10.035 0.0246153 0)
(10.0419 0.0249842 0)
(10.0485 0.0248305 0)
(10.0548 0.0243044 0)
(10.0607 0.0234754 0)
(10.0663 0.022432 0)
(10.0715 0.0212027 0)
(10.0764 0.0198383 0)
(10.0809 0.0183531 0)
(10.0851 0.0168021 0)
(10.0889 0.0151982 0)
(10.0923 0.0135839 0)
(10.0003 0.00258566 0)
(10.0023 0.00646502 0)
(10.0063 0.0106304 0)
(10.0117 0.0137944 0)
(10.0177 0.0159588 0)
(10.0241 0.0173715 0)
(10.0305 0.0181601 0)
(10.0369 0.0184188 0)
(10.043 0.0182718 0)
(10.049 0.0177961 0)
(10.0546 0.017083 0)
(10.0599 0.0161676 0)
(10.0649 0.0151088 0)
(10.0695 0.0139179 0)
(10.0738 0.0126522 0)
(10.0778 0.0113203 0)
(10.0815 0.00996867 0)
(10.0848 0.00860018 0)
(10.0002 0.00160058 0)
(10.0019 0.00374945 0)
(10.0053 0.00639853 0)
(10.0099 0.00847347 0)
(10.0153 0.00988077 0)
(10.0211 0.0107786 0)
(10.027 0.0112322 0)
(10.0329 0.0113168 0)
(10.0387 0.0110997 0)
(10.0442 0.0106455 0)
(10.0495 0.0100056 0)
(10.0546 0.00921743 0)
(10.0593 0.0083135 0)
(10.0638 0.00732038 0)
(10.0679 0.00626744 0)
(10.0717 0.0051758 0)
(10.0753 0.00406756 0)
(10.0785 0.0029601 0)
(10.0002 0.000622917 0)
(10.0017 0.00104246 0)
(10.0047 0.00211524 0)
(10.0089 0.00295574 0)
(10.0138 0.00348258 0)
(10.0191 0.00373425 0)
(10.0246 0.00376671 0)
(10.0301 0.00358253 0)
(10.0356 0.00324445 0)
(10.0409 0.00275546 0)
(10.0459 0.00216928 0)
(10.0508 0.00148303 0)
(10.0553 0.000738041 0)
(10.0596 -6.76676e-05 0)
(10.0636 -0.000899582 0)
(10.0673 -0.00175791 0)
(10.0707 -0.00261715 0)
(10.0739 -0.00347222 0)
(10.0002 -0.000345608 0)
(10.0017 -0.00160414 0)
(10.0045 -0.00213865 0)
(10.0086 -0.00256499 0)
(10.0133 -0.00300074 0)
(10.0185 -0.00343259 0)
(10.0238 -0.00389333 0)
(10.0292 -0.00436917 0)
(10.0344 -0.00488504 0)
(10.0396 -0.00541622 0)
(10.0445 -0.00598731 0)
(10.0492 -0.00656945 0)
(10.0536 -0.00718428 0)
(10.0578 -0.00780148 0)
(10.0617 -0.00843853 0)
(10.0654 -0.00906649 0)
(10.0688 -0.0097022 0)
(10.0719 -0.0103131 0)
(10.0002 -0.00127257 0)
(10.0018 -0.00412871 0)
(10.0048 -0.006177 0)
(10.009 -0.00779391 0)
(10.014 -0.00911948 0)
(10.0192 -0.0101943 0)
(10.0246 -0.0110978 0)
(10.03 -0.011855 0)
(10.0353 -0.0125145 0)
(10.0404 -0.0130943 0)
(10.0454 -0.0136304 0)
(10.05 -0.0141279 0)
(10.0544 -0.0146068 0)
(10.0586 -0.015066 0)
(10.0625 -0.0155157 0)
(10.0661 -0.0159519 0)
(10.0695 -0.0163799 0)
(10.0726 -0.0167894 0)
(10.0002 -0.00218462 0)
(10.002 -0.00663954 0)
(10.0055 -0.0100865 0)
(10.0102 -0.0127652 0)
(10.0155 -0.0148333 0)
(10.021 -0.0164516 0)
(10.0267 -0.0177026 0)
(10.0323 -0.0186779 0)
(10.0378 -0.0194213 0)
(10.043 -0.0200204 0)
(10.048 -0.0204929 0)
(10.0528 -0.0209006 0)
(10.0572 -0.0212378 0)
(10.0614 -0.021551 0)
(10.0653 -0.0218262 0)
(10.0689 -0.0220941 0)
(10.0723 -0.0223398 0)
(10.0755 -0.022576 0)
(10.0003 -0.00315526 0)
(10.0025 -0.00930597 0)
(10.0066 -0.0140926 0)
(10.012 -0.0176742 0)
(10.0179 -0.0203671 0)
(10.0239 -0.0224024 0)
(10.0299 -0.0239237 0)
(10.0358 -0.0250159 0)
(10.0416 -0.0258036 0)
(10.047 -0.026353 0)
(10.0522 -0.0267544 0)
(10.057 -0.0270265 0)
(10.0616 -0.0272365 0)
(10.0658 -0.0273793 0)
(10.0698 -0.0275074 0)
(10.0735 -0.0275984 0)
(10.0769 -0.0276954 0)
(10.0801 -0.0277619 0)
(10.0003 -0.00424788 0)
(10.0032 -0.0122682 0)
(10.0083 -0.018319 0)
(10.0146 -0.022649 0)
(10.0212 -0.0258224 0)
(10.0277 -0.0281785 0)
(10.0343 -0.0298601 0)
(10.0406 -0.0310046 0)
(10.0467 -0.031754 0)
(10.0524 -0.032226 0)
(10.0577 -0.032501 0)
(10.0628 -0.0326377 0)
(10.0674 -0.0326823 0)
(10.0718 -0.0326732 0)
(10.0758 -0.0326298 0)
(10.0796 -0.0325756 0)
(10.083 -0.0325106 0)
(10.0863 -0.0324465 0)
(10.0005 -0.00554886 0)
(10.0042 -0.0156424 0)
(10.0107 -0.0228263 0)
(10.0181 -0.0277134 0)
(10.0255 -0.0312515 0)
(10.0327 -0.0338303 0)
(10.0398 -0.0355848 0)
(10.0466 -0.0366961 0)
(10.0531 -0.0373552 0)
(10.0591 -0.037704 0)
(10.0647 -0.0378258 0)
(10.0699 -0.0378005 0)
(10.0747 -0.0376722 0)
(10.0792 -0.0374984 0)
(10.0833 -0.0372925 0)
(10.0872 -0.037087 0)
(10.0907 -0.0368809 0)
(10.094 -0.0366811 0)
(10.0007 -0.00715659 0)
(10.0058 -0.0196017 0)
(10.0141 -0.0276597 0)
(10.0228 -0.032866 0)
(10.031 -0.0366563 0)
(10.039 -0.0393807 0)
(10.0468 -0.0411321 0)
(10.0542 -0.0421476 0)
(10.061 -0.0426691 0)
(10.0674 -0.0428543 0)
(10.0733 -0.0427986 0)
(10.0788 -0.0425823 0)
(10.0838 -0.0422743 0)
(10.0884 -0.0419179 0)
(10.0927 -0.0415544 0)
(10.0966 -0.0411974 0)
(10.1003 -0.0408676 0)
(10.1036 -0.0405432 0)
(10.001 -0.00920304 0)
(10.0082 -0.0243028 0)
(10.0188 -0.0328578 0)
(10.0289 -0.0381548 0)
(10.0381 -0.0420773 0)
(10.047 -0.0448513 0)
(10.0556 -0.0465263 0)
(10.0637 -0.0474035 0)
(10.0712 -0.0477559 0)
(10.078 -0.0477502 0)
(10.0843 -0.0474886 0)
(10.0901 -0.0470634 0)
(10.0954 -0.0465469 0)
(10.1002 -0.0459957 0)
(10.1047 -0.0454517 0)
(10.1088 -0.0449415 0)
(10.1126 -0.0444695 0)
(10.116 -0.0440256 0)
(10.0016 -0.0119406 0)
(10.0118 -0.0296773 0)
(10.0256 -0.0383605 0)
(10.0374 -0.0437025 0)
(10.0479 -0.0476683 0)
(10.0581 -0.0503096 0)
(10.068 -0.0517633 0)
(10.0771 -0.0524203 0)
(10.0854 -0.052564 0)
(10.0931 -0.0523586 0)
(10.1 -0.0519021 0)
(10.1064 -0.0512882 0)
(10.1121 -0.0505944 0)
(10.1174 -0.049871 0)
(10.1221 -0.0491802 0)
(10.1264 -0.0485389 0)
(10.1304 -0.0479559 0)
(10.134 -0.0474018 0)
(10.0028 -0.0161496 0)
(10.0186 -0.0354139 0)
(10.0366 -0.043456 0)
(10.0516 -0.0491167 0)
(10.065 -0.0534327 0)
(10.078 -0.0560113 0)
(10.0903 -0.0571818 0)
(10.1015 -0.0575011 0)
(10.1116 -0.0572948 0)
(10.1208 -0.0567324 0)
(10.1291 -0.0559252 0)
(10.1364 -0.0549823 0)
(10.143 -0.0539766 0)
(10.1487 -0.0529824 0)
(10.1537 -0.0520553 0)
(10.1582 -0.0512296 0)
(10.1621 -0.0504918 0)
(10.1654 -0.0497933 0)
(10.0064 -0.0241806 0)
(10.0375 -0.0433172 0)
(10.0661 -0.0485897 0)
(10.0906 -0.0536603 0)
(10.1127 -0.0585697 0)
(10.1335 -0.0618026 0)
(10.1521 -0.063441 0)
(10.168 -0.0640509 0)
(10.1813 -0.0639774 0)
(10.1922 -0.0633732 0)
(10.2008 -0.0623891 0)
(10.2073 -0.061152 0)
(10.2119 -0.0597749 0)
(10.2148 -0.0583669 0)
(10.2162 -0.0570094 0)
(10.2162 -0.0557985 0)
(10.2153 -0.0547678 0)
(10.2136 -0.0539843 0)
(10.0443 -0.0348803 0)
(10.1366 -0.0637597 0)
(10.2032 -0.069172 0)
(10.2459 -0.0707508 0)
(10.2725 -0.0717994 0)
(10.2864 -0.0715719 0)
(10.2884 -0.0701974 0)
(10.2803 -0.0682042 0)
(10.2641 -0.0658927 0)
(10.242 -0.0633761 0)
(10.2154 -0.0607427 0)
(10.1855 -0.0580674 0)
(10.1533 -0.0554215 0)
(10.1197 -0.0528741 0)
(10.0851 -0.0505129 0)
(10.0502 -0.0484044 0)
(10.0156 -0.0465721 0)
(9.98223 -0.0454849 0)
(9.88669 -0.0366461 0)
(9.66325 -0.0683061 0)
(9.42114 -0.0787455 0)
(9.17507 -0.0808666 0)
(8.94098 -0.0793058 0)
(8.72566 -0.0751885 0)
(8.52999 -0.0696418 0)
(8.35336 -0.0634456 0)
(8.19535 -0.0570868 0)
(8.05486 -0.0509194 0)
(7.9305 -0.0450929 0)
(7.82067 -0.0396747 0)
(7.72388 -0.0347043 0)
(7.6386 -0.0302005 0)
(7.56343 -0.0261605 0)
(7.49704 -0.0226874 0)
(7.43737 -0.0198875 0)
(7.38366 -0.0180955 0)
(-0.00280544 0.00763919 0)
(-0.0128818 0.0126872 0)
(-0.0266699 0.0137517 0)
(-0.0411911 0.0116562 0)
(-0.0517428 0.00577891 0)
(-0.050697 -0.00386491 0)
(-0.0347257 -0.0168999 -8.1883e-19)
(-0.00725802 -0.0304648 9.27922e-19)
(0.0284881 -0.0405967 0)
(0.0695679 -0.0455373 5.31613e-19)
(0.112995 -0.0459348 0)
(0.155331 -0.0429843 0)
(0.193817 -0.0377576 0)
(0.22679 -0.0310739 -2.61015e-19)
(0.253373 -0.0235018 0)
(0.273151 -0.0154041 0)
(0.285782 -0.00698184 2.25657e-19)
(0.291475 0.00183338 0)
(0.2891 0.0109354 0)
(0.278857 0.0198442 0)
(0.261383 0.0278024 -2.41858e-19)
(0.237318 0.0340147 0)
(0.207601 0.0377436 -2.86255e-19)
(0.173632 0.0383599 0)
(0.137282 0.0354255 0)
(0.100836 0.0289248 -4.66816e-19)
(0.0668279 0.019556 0)
(0.0377165 0.00905645 7.81302e-19)
(0.0153103 0.000128355 0)
(1.6701e-05 -0.00515465 -1.31875e-18)
(-0.00950821 -0.00758973 0)
(-0.0142771 -0.00931282 0)
(-0.0130801 -0.0115607 0)
(-0.00549992 -0.0152424 0)
(0.00950408 -0.0208437 0)
(0.0322339 -0.0270533 8.49282e-19)
(0.0611406 -0.031468 0)
(0.0919945 -0.0316771 -9.96256e-19)
(0.119662 -0.0272988 0)
(0.139914 -0.0197766 7.89429e-19)
(0.150887 -0.0116503 0)
(0.153786 -0.00505644 0)
(0.15115 -0.00137236 -7.76299e-19)
(0.146954 -0.0015367 0)
(0.14433 -0.00639995 -8.0421e-19)
(0.141735 -0.015412 8.10328e-19)
(0.132894 -0.0236674 0)
(0.11034 -0.0211045 8.8347e-19)
(0.0689559 -0.00315807 1.03323e-18)
(-0.00304542 0.0159713 0)
(-0.100093 0.0354981 0)
(-0.205585 0.0606574 0)
(-0.323032 0.0847696 0)
(-0.450583 0.101797 0)
(-0.584798 0.109736 -1.89153e-19)
(-0.720037 0.114651 0)
(-0.852383 0.112162 1.49646e-19)
(-0.98233 0.106874 0)
(-1.10381 0.101587 0)
(-1.2182 0.0954408 -1.15716e-19)
(-1.32423 0.0870612 0)
(-1.42227 0.0774845 1.04158e-19)
(-1.51165 0.0707293 0)
(-1.59396 0.065034 0)
(-1.66986 0.0591411 0)
(-1.73975 0.0539419 -8.97019e-20)
(-1.80436 0.0494583 0)
(-1.86437 0.0454969 0)
(-1.92033 0.0420646 -8.33556e-20)
(-1.97273 0.039055 0)
(-2.02201 0.0364114 -8.01277e-20)
(-2.06851 0.0340701 0)
(-2.11252 0.0319793 0)
(-2.15428 0.030094 0)
(-2.194 0.028377 7.49827e-20)
(-2.23181 0.0267989 0)
(-2.26785 0.025334 0)
(-2.30223 0.0239647 7.17944e-20)
(-2.33503 0.0226726 7.08115e-20)
(-2.36632 0.0214484 0)
(-2.39614 0.0202782 6.89328e-20)
(-2.42456 0.0191575 0)
(-2.45159 0.0180753 1.34285e-19)
(-2.47727 0.0170295 0)
(-2.50163 0.0160109 1.30831e-19)
(-2.52467 0.0150181 0)
(-2.54642 0.0140428 -1.27463e-19)
(-2.56688 0.0130831 0)
(-2.58607 0.0121304 0)
(-2.60398 0.0111817 0)
(-2.6206 0.0102278 1.2085e-19)
(-2.6359 0.00926504 0)
(-2.64987 0.00828369 -1.17559e-19)
(-2.6625 0.00727639 0)
(-2.67374 0.00623555 1.14259e-19)
(-2.68356 0.00515615 1.12604e-19)
(-2.69188 0.00404031 1.10944e-19)
(-2.69866 0.00290453 0)
(-2.70383 0.00180298 0)
(-2.7073 0.000824824 0)
(-2.70908 2.86946e-05 0)
(-2.70969 -0.000664948 0)
(-2.70903 -0.00133767 0)
(-2.70716 -0.00199683 0)
(-2.70407 -0.00264943 0)
(-2.69976 -0.00329537 -9.49609e-20)
(-2.69423 -0.00393528 -9.29876e-20)
(-2.68747 -0.00456752 0)
(-2.67948 -0.00519307 0)
(-2.67026 -0.00580906 0)
(-2.65982 -0.00641762 -8.45994e-20)
(-2.64815 -0.0070148 0)
(-2.63525 -0.00760392 0)
(-2.62114 -0.00818019 0)
(-2.60582 -0.00874792 0)
(-2.5893 -0.00930181 7.28675e-20)
(-2.57158 -0.00984685 0)
(-2.55268 -0.0103777 0)
(-2.5326 -0.0108995 -6.50881e-20)
(-2.51136 -0.0114072 6.23627e-20)
(-2.48896 -0.0119059 0)
(-2.46543 -0.012391 5.6703e-20)
(-2.44077 -0.012867 0)
(-2.41499 -0.0133303 -5.07525e-20)
(-2.38811 -0.0137845 0)
(-2.36014 -0.0142279 0)
(-2.3311 -0.0146631 0)
(-2.30101 -0.0150871 0)
(-2.26987 -0.0154965 0)
(-2.2377 -0.0158868 6.19246e-20)
(-2.20453 -0.0162707 5.46986e-20)
(-2.17036 -0.0166364 0)
(-2.13525 -0.0169669 0)
(-2.09921 -0.0172417 0)
(-2.06229 -0.0173875 -2.37169e-20)
(-2.02456 -0.017332 0)
(-1.98607 -0.0170725 0)
(-1.94677 -0.0171112 0)
(-1.90658 -0.017453 1.10509e-20)
(-1.86558 -0.0177148 -2.04488e-20)
(-1.82382 -0.0179702 0)
(-1.78131 -0.0182131 0)
(-1.73808 -0.0184406 -5.06296e-20)
(-1.69415 -0.0186594 -6.1415e-20)
(-1.64956 -0.0188653 0)
(-1.60433 -0.0190647 0)
(-1.55847 -0.0192526 9.62518e-20)
(-1.51202 -0.0194364 -1.08768e-19)
(-1.46502 -0.0196073 0)
(-1.41749 -0.0197791 0)
(-1.36949 -0.0199424 -1.49464e-19)
(-1.32101 -0.0201023 0)
(-1.27209 -0.0202533 0)
(-1.22276 -0.0203989 -1.95643e-19)
(-1.17305 -0.02054 0)
(-1.12297 -0.0206783 -2.30111e-19)
(-1.07255 -0.0208171 0)
(-1.02181 -0.0209591 0)
(-0.970741 -0.0211071 0)
(-0.919358 -0.0212637 3.10152e-19)
(-0.867656 -0.0214308 0)
(-0.815631 -0.0216095 0)
(-0.763281 -0.0218006 0)
(-0.710602 -0.0220039 0)
(-0.657594 -0.0222216 0)
(-0.604257 -0.0224551 0)
(-0.550586 -0.0227086 5.03622e-19)
(-0.496574 -0.0229842 5.39532e-19)
(-0.442209 -0.0232857 0)
(-0.387478 -0.023613 0)
(-0.332374 -0.0239659 0)
(-0.276905 -0.02434 -7.16223e-19)
(-0.221099 -0.0247445 0)
(-0.165032 -0.0251597 1.6644e-18)
(-0.108869 -0.0255228 -1.79985e-18)
(-0.0529891 -0.025689 -1.95136e-18)
(0.0024487 -0.025197 2.04717e-18)
(0.0541448 -0.0234117 -2.02217e-18)
(0.111293 -0.0209097 1.95933e-18)
(0.127401 -0.00945219 0)
(-0.000294325 0.0205422 0)
(-0.0058608 0.0359605 0)
(-0.0124744 0.0370804 2.18303e-18)
(-0.0129049 0.0275564 0)
(0.00122644 0.00547699 -2.27416e-18)
(0.0310355 -0.0318203 -1.44331e-18)
(0.0703402 -0.0734512 -4.55229e-19)
(0.115119 -0.107444 -3.25237e-19)
(0.161399 -0.128256 0)
(0.205761 -0.135604 -2.12951e-19)
(0.246025 -0.132149 0)
(0.28125 -0.121288 0)
(0.311115 -0.105907 3.17551e-19)
(0.335637 -0.0880894 1.51274e-19)
(0.355038 -0.0691835 -2.94913e-19)
(0.369635 -0.0499619 -2.91499e-19)
(0.37981 -0.0308077 -1.45776e-19)
(0.385743 -0.0118563 0)
(0.388424 0.00690574 0)
(0.387761 0.0253087 0)
(0.383367 0.0429961 -1.54129e-19)
(0.374736 0.0594237 0)
(0.3613 0.0738371 4.93394e-19)
(0.342566 0.08524 0)
(0.318316 0.0924906 0)
(0.288771 0.0944821 1.99977e-19)
(0.254819 0.0904648 0)
(0.21811 0.0804929 -2.53669e-19)
(0.181008 0.0656427 -5.94903e-19)
(0.14647 0.0477381 3.56551e-19)
(0.117663 0.0284244 0)
(0.0979278 0.00856577 0)
(0.0886338 -0.0119954 0)
(0.0915225 -0.0322965 -1.04747e-18)
(0.104668 -0.0524718 -8.78448e-19)
(0.124386 -0.0698525 -3.62004e-19)
(0.144591 -0.0772595 0)
(0.159465 -0.0715089 5.22039e-19)
(0.166516 -0.0556473 0)
(0.1654 -0.0350924 -5.06872e-19)
(0.156781 -0.0164748 0)
(0.141469 -0.00401204 0)
(0.119317 0.00337219 6.46672e-19)
(0.0844815 0.0100274 0)
(0.0274414 0.0228323 2.52263e-18)
(-0.0648516 0.0531144 -6.44537e-19)
(-0.184367 0.0956288 0)
(-0.315408 0.140279 -2.75032e-19)
(-0.452951 0.18326 -2.04068e-19)
(-0.596786 0.219518 0)
(-0.742416 0.247047 0)
(-0.885672 0.266327 0)
(-1.02435 0.277257 0)
(-1.15562 0.279671 0)
(-1.27768 0.274423 8.50429e-20)
(-1.3872 0.263951 1.60113e-19)
(-1.48546 0.249499 -7.56404e-20)
(-1.57214 0.231964 0)
(-1.64895 0.213572 1.39396e-19)
(-1.71666 0.195269 -6.76202e-20)
(-1.77742 0.177806 0)
(-1.832 0.161443 -6.35587e-20)
(-1.88168 0.146725 0)
(-1.92725 0.133636 0)
(-1.96938 0.122098 -1.19541e-19)
(-2.00873 0.112002 5.86308e-20)
(-2.04578 0.103204 -1.1539e-19)
(-2.08082 0.0955272 1.13536e-19)
(-2.11411 0.0888066 5.59012e-20)
(-2.14583 0.0828871 0)
(-2.17612 0.0776329 5.43179e-20)
(-2.20509 0.0729273 0)
(-2.23282 0.0686712 0)
(-2.25937 0.0647845 0)
(-2.28477 0.0611991 5.14033e-20)
(-2.30907 0.0578636 0)
(-2.3323 0.0547324 1.00282e-19)
(-2.35446 0.0517741 -1.48568e-19)
(-2.37559 0.048958 -4.89286e-20)
(-2.39569 0.0462661 0)
(-2.41477 0.0436769 -4.77032e-20)
(-2.43284 0.0411806 0)
(-2.4499 0.0387615 -9.29966e-20)
(-2.46596 0.0364147 0)
(-2.48102 0.0341279 -9.0609e-20)
(-2.49507 0.031898 1.78716e-19)
(-2.50812 0.0297147 8.82274e-20)
(-2.52015 0.0275741 0)
(-2.53118 0.0254671 0)
(-2.5412 0.0233876 0)
(-2.55018 0.0213294 -8.34232e-20)
(-2.55813 0.0192883 0)
(-2.56506 0.0172566 8.09784e-20)
(-2.57096 0.015229 0)
(-2.57586 0.0131984 -2.35505e-19)
(-2.57978 0.0111596 -7.72433e-20)
(-2.58274 0.0091075 -7.59792e-20)
(-2.58481 0.00704212 0)
(-2.58605 0.00499183 0)
(-2.58657 0.0030261 0)
(-2.58641 0.00121418 0)
(-2.58511 -0.000492576 0)
(-2.58268 -0.00215954 -1.36037e-19)
(-2.57907 -0.00379657 -1.332e-19)
(-2.57427 -0.00541141 0)
(-2.56828 -0.00700489 6.35912e-20)
(-2.56109 -0.00857661 6.20864e-20)
(-2.55269 -0.010125 0)
(-2.54308 -0.0116494 1.18244e-19)
(-2.53227 -0.0131469 0)
(-2.52025 -0.0146181 -5.60808e-20)
(-2.50702 -0.0160588 0)
(-2.49259 -0.017471 0)
(-2.47696 -0.0188494 1.01835e-19)
(-2.46014 -0.0201973 0)
(-2.44214 -0.021509 -4.72209e-20)
(-2.42296 -0.0227887 0)
(-2.40261 -0.0240305 0)
(-2.38111 -0.0252396 -4.21428e-20)
(-2.35846 -0.0264102 -3.97957e-20)
(-2.33468 -0.0275476 0)
(-2.30977 -0.0286464 3.6378e-20)
(-2.28375 -0.0297114 0)
(-2.25664 -0.030738 -3.2368e-20)
(-2.22844 -0.0317296 -6.00878e-20)
(-2.19916 -0.032683 0)
(-2.16884 -0.0336005 0)
(-2.13747 -0.0344797 0)
(-2.10508 -0.0353209 0)
(-2.07168 -0.0361225 -3.77981e-20)
(-2.03728 -0.0368847 -1.0093e-19)
(-2.00192 -0.0376101 0)
(-1.96562 -0.0382985 0)
(-1.9284 -0.038955 0)
(-1.89028 -0.0395916 1.41721e-20)
(-1.85124 -0.0402209 0)
(-1.81126 -0.0408354 0)
(-1.77038 -0.0414231 5.93674e-22)
(-1.72871 -0.0419444 4.80852e-21)
(-1.68628 -0.0424047 1.15344e-20)
(-1.64309 -0.04282 0)
(-1.59916 -0.0431964 0)
(-1.55451 -0.043529 2.80584e-20)
(-1.50916 -0.0438266 -3.2249e-20)
(-1.46314 -0.0440856 0)
(-1.41648 -0.0443129 0)
(-1.3692 -0.0445036 -5.15149e-20)
(-1.32133 -0.0446685 1.71342e-19)
(-1.27291 -0.0448029 0)
(-1.22395 -0.0449174 0)
(-1.17451 -0.0450079 7.67252e-20)
(-1.12458 -0.0450749 0)
(-1.07421 -0.0451143 1.78412e-19)
(-1.0234 -0.0451267 -9.52031e-20)
(-0.9722 -0.0451154 0)
(-0.92062 -0.0450837 1.10994e-19)
(-0.868684 -0.0450365 2.34782e-19)
(-0.816404 -0.0449799 0)
(-0.76379 -0.0449184 0)
(-0.710846 -0.0448574 -1.40911e-19)
(-0.65757 -0.0447996 0)
(-0.603958 -0.0447477 3.11806e-19)
(-0.550006 -0.0447009 0)
(-0.49571 -0.0446585 0)
(-0.441068 -0.0446206 0)
(-0.386077 -0.044589 0)
(-0.330733 -0.0445669 -1.99608e-19)
(-0.275025 -0.0445575 -2.08758e-19)
(-0.218945 -0.0445636 0)
(-0.162478 -0.0445848 0)
(-0.105616 -0.0446167 0)
(-0.0483657 -0.0446422 2.47608e-19)
(0.0092494 -0.0446275 0)
(0.0671748 -0.0445217 -5.14338e-19)
(0.125296 -0.0442642 5.15921e-19)
(0.18333 -0.043716 5.17531e-19)
(0.241199 -0.0425341 5.16061e-19)
(0.296646 -0.040271 5.22199e-19)
(0.354746 -0.0360869 5.24444e-19)
(0.39101 -0.0234892 0)
(0.000282537 0.0233278 0)
(0.000758891 0.0403435 0)
(0.0065723 0.0328981 -2.33543e-18)
(0.0268723 -0.000999018 -1.63392e-18)
(0.066768 -0.0613174 9.70838e-19)
(0.118386 -0.127535 6.31043e-19)
(0.171286 -0.179811 -3.6619e-22)
(0.218593 -0.209664 0)
(0.257689 -0.21805 0)
(0.288611 -0.210205 0)
(0.312585 -0.191929 0)
(0.331068 -0.167926 0)
(0.345274 -0.141388 -7.22584e-19)
(0.356062 -0.114208 0)
(0.363996 -0.0873984 2.30546e-19)
(0.369451 -0.0614356 2.29967e-19)
(0.372694 -0.036504 0)
(0.373922 -0.0126722 0)
(0.373387 0.0100896 0)
(0.371413 0.0319513 0)
(0.368263 0.053053 2.44941e-19)
(0.364111 0.0733283 0)
(0.358874 0.0924022 -2.62532e-19)
(0.352153 0.109515 0)
(0.343252 0.123534 0)
(0.3313 0.133019 0)
(0.315498 0.136468 -6.57598e-19)
(0.295516 0.132664 0)
(0.271913 0.121109 3.90869e-19)
(0.246327 0.102174 -8.72824e-19)
(0.221355 0.0770164 0)
(0.19997 0.0470559 0)
(0.184783 0.0139851 0)
(0.175967 -0.0212146 6.42719e-19)
(0.172264 -0.0549378 5.64566e-19)
(0.166921 -0.0766965 0)
(0.153377 -0.0773843 0)
(0.131542 -0.0600898 -7.70996e-19)
(0.102387 -0.0326634 -7.94359e-19)
(0.0660368 0.00021592 8.83078e-19)
(0.0203333 0.0339775 0)
(-0.0449559 0.0657162 0)
(-0.135778 0.104187 0)
(-0.246243 0.153246 0)
(-0.373049 0.207731 -4.05965e-19)
(-0.510807 0.263233 -3.21881e-19)
(-0.652107 0.315844 2.64168e-19)
(-0.790968 0.360783 0)
(-0.923193 0.396439 0)
(-1.04502 0.421782 0)
(-1.15454 0.435763 0)
(-1.25108 0.438951 -1.46266e-19)
(-1.33424 0.432365 0)
(-1.40511 0.417261 0)
(-1.46569 0.395458 -1.21907e-19)
(-1.51798 0.369371 -1.15218e-19)
(-1.56425 0.341097 0)
(-1.60604 0.312255 2.15343e-19)
(-1.64491 0.28448 -1.03398e-19)
(-1.68165 0.258559 1.00408e-19)
(-1.71695 0.234925 0)
(-1.75124 0.21364 0)
(-1.78474 0.194963 0)
(-1.81742 0.178687 0)
(-1.84931 0.164467 8.93757e-20)
(-1.88042 0.152062 1.75471e-19)
(-1.91075 0.141219 8.60557e-20)
(-1.94026 0.13169 -8.45477e-20)
(-1.96893 0.123254 0)
(-1.99676 0.115723 1.63442e-19)
(-2.02371 0.108934 1.6081e-19)
(-2.04979 0.102755 1.58287e-19)
(-2.07498 0.0970741 -1.55857e-19)
(-2.09929 0.0918029 0)
(-2.1227 0.0868682 -2.26915e-19)
(-2.14521 0.0822127 0)
(-2.16683 0.0777896 7.33443e-20)
(-2.18754 0.0735631 7.24315e-20)
(-2.20735 0.069503 0)
(-2.22625 0.0655871 0)
(-2.24424 0.0617953 1.38549e-19)
(-2.26132 0.058114 0)
(-2.27749 0.054529 1.3456e-19)
(-2.29274 0.0510316 0)
(-2.30707 0.0476115 -1.30634e-19)
(-2.32047 0.0442621 -2.5747e-19)
(-2.33294 0.0409748 0)
(-2.34448 0.0377436 0)
(-2.35508 0.0345605 0)
(-2.36474 0.0314189 -1.20938e-19)
(-2.37345 0.0283137 0)
(-2.38121 0.0252414 -1.17058e-19)
(-2.38801 0.0221996 0)
(-2.39386 0.0191874 0)
(-2.39877 0.0162065 2.22409e-19)
(-2.40273 0.0132635 0)
(-2.40575 0.0103676 1.07269e-19)
(-2.40783 0.00753194 0)
(-2.40895 0.00476476 1.0327e-19)
(-2.40908 0.00205457 0)
(-2.40814 -0.000638792 0)
(-2.40611 -0.00332681 0)
(-2.40295 -0.00598995 2.84262e-19)
(-2.39866 -0.00862361 9.24869e-20)
(-2.39322 -0.0112259 0)
(-2.38662 -0.013795 0)
(-2.37885 -0.0163281 0)
(-2.36992 -0.0188235 0)
(-2.35981 -0.0212778 -8.11039e-20)
(-2.34853 -0.0236893 1.579e-19)
(-2.33607 -0.0260546 7.63365e-20)
(-2.32244 -0.0283723 -1.48292e-19)
(-2.30764 -0.0306394 -1.4339e-19)
(-2.29168 -0.0328543 -6.89427e-20)
(-2.27456 -0.0350147 0)
(-2.25628 -0.0371193 -1.28287e-19)
(-2.23685 -0.0391668 0)
(-2.21629 -0.0411561 1.17893e-19)
(-2.19461 -0.0430871 5.59718e-20)
(-2.1718 -0.0449591 0)
(-2.14789 -0.0467725 -1.01826e-19)
(-2.12288 -0.0485265 -4.78132e-20)
(-2.09678 -0.0502217 0)
(-2.06961 -0.0518568 -4.2986e-20)
(-2.04138 -0.0534327 1.18937e-19)
(-2.0121 -0.054948 0)
(-1.98179 -0.0564034 0)
(-1.95045 -0.0577972 0)
(-1.91811 -0.0591284 0)
(-1.88478 -0.0603938 5.03881e-20)
(-1.85047 -0.0615946 4.34866e-20)
(-1.81521 -0.0627317 0)
(-1.77902 -0.0638047 0)
(-1.74191 -0.0648112 0)
(-1.70392 -0.0657521 0)
(-1.66502 -0.0666277 0)
(-1.62524 -0.0674487 0)
(-1.58461 -0.0682363 -3.71392e-22)
(-1.5432 -0.0689748 -1.02431e-21)
(-1.50103 -0.0696433 0)
(-1.45811 -0.0702455 0)
(-1.41447 -0.0707821 -2.56492e-20)
(-1.37011 -0.0712523 0)
(-1.32507 -0.0716611 4.02372e-20)
(-1.27937 -0.0720093 4.59924e-20)
(-1.23303 -0.0723004 0)
(-1.18609 -0.0725356 0)
(-1.13857 -0.0727216 -6.79866e-20)
(-1.0905 -0.0728611 -1.47865e-19)
(-1.04191 -0.0729608 0)
(-0.992818 -0.0730208 0)
(-0.943254 -0.0730376 0)
(-0.893235 -0.0730096 -1.03919e-19)
(-0.842788 -0.0729352 1.11267e-19)
(-0.791938 -0.0728196 0)
(-0.740706 -0.0726681 2.49901e-19)
(-0.689112 -0.0724879 1.31274e-19)
(-0.637169 -0.0722877 -2.80024e-19)
(-0.584888 -0.0720743 0)
(-0.532271 -0.0718559 0)
(-0.479319 -0.0716366 -3.25944e-19)
(-0.426029 -0.0714205 -1.7192e-19)
(-0.372394 -0.0712057 0)
(-0.318411 -0.0709917 0)
(-0.264077 -0.0707769 0)
(-0.209389 -0.070564 0)
(-0.15434 -0.0703559 -4.20256e-19)
(-0.0989221 -0.0701571 0)
(-0.0431232 -0.0699699 0)
(0.0130697 -0.0697927 0)
(0.0696676 -0.0696156 0)
(0.126671 -0.0694167 0)
(0.18406 -0.0691521 0)
(0.24178 -0.0687554 -4.94633e-19)
(0.299742 -0.0681372 0)
(0.357722 -0.0671264 0)
(0.41571 -0.0654216 -1.02948e-18)
(0.472141 -0.0625126 5.2056e-19)
(0.530904 -0.0573888 -5.31819e-19)
(0.577093 -0.0447313 5.43283e-19)
(-0.00119067 0.0235088 0)
(0.00202133 0.0270492 5.06559e-18)
(0.0239795 -0.0153357 0)
(0.0722359 -0.0992458 8.65262e-19)
(0.133362 -0.187465 0)
(0.191012 -0.251294 0)
(0.236028 -0.282192 -3.26125e-19)
(0.267195 -0.285244 0)
(0.287341 -0.269941 0)
(0.300102 -0.244626 0)
(0.30837 -0.214777 0)
(0.313973 -0.183433 0)
(0.317889 -0.152113 8.15694e-19)
(0.320571 -0.121515 4.01165e-19)
(0.322179 -0.0919468 -3.98581e-19)
(0.322754 -0.0635436 0)
(0.322307 -0.0363647 0)
(0.320852 -0.0104469 0)
(0.318443 0.0141999 0)
(0.315174 0.0376073 0)
(0.311189 0.0598186 4.31339e-19)
(0.306708 0.0808437 4.43e-19)
(0.301945 0.100593 -4.59363e-19)
(0.297008 0.118752 4.81697e-19)
(0.291797 0.13468 0)
(0.285961 0.147334 0)
(0.278888 0.155257 5.83906e-19)
(0.269811 0.156722 0)
(0.258141 0.15014 0)
(0.243709 0.134396 7.53137e-19)
(0.227198 0.10929 8.40968e-19)
(0.209759 0.0758535 9.53193e-19)
(0.192789 0.0363532 0)
(0.17543 -0.00456396 0)
(0.150699 -0.034636 -9.69288e-19)
(0.113818 -0.0406583 0)
(0.0663466 -0.0234363 0)
(0.00918382 0.0104078 7.71132e-19)
(-0.0607024 0.0553485 -6.90462e-19)
(-0.146499 0.109496 5.53705e-19)
(-0.246876 0.170368 0)
(-0.361082 0.233513 0)
(-0.485617 0.297193 5.94735e-19)
(-0.614775 0.360162 0)
(-0.743187 0.418868 4.26163e-19)
(-0.865772 0.468244 5.60955e-19)
(-0.977662 0.506031 -5.00266e-19)
(-1.07643 0.53212 3.02336e-19)
(-1.16128 0.546284 0)
(-1.2319 0.549154 0)
(-1.28969 0.541888 2.39782e-19)
(-1.33654 0.52604 1.11764e-19)
(-1.37465 0.503448 0)
(-1.40654 0.475895 0)
(-1.43452 0.445253 9.59491e-20)
(-1.46051 0.413388 1.85552e-19)
(-1.48583 0.381713 0)
(-1.51133 0.351213 -1.71027e-19)
(-1.53746 0.322703 1.66604e-19)
(-1.56432 0.296543 -1.61595e-19)
(-1.59182 0.272849 0)
(-1.61984 0.251551 0)
(-1.64819 0.232608 0)
(-1.67663 0.215826 0)
(-1.70496 0.200947 0)
(-1.73304 0.187733 -1.39491e-19)
(-1.76073 0.175954 0)
(-1.78792 0.165393 0)
(-1.81454 0.155857 0)