/*--------------------------------*- C++ -*----------------------------------*\
  =========                 |
  \\      /  F ield         | OpenFOAM: The Open Source CFD Toolbox
   \\    /   O peration     | Website:  https://openfoam.org
    \\  /    A nd           | Version:  8
     \\/     M anipulation  |
\*---------------------------------------------------------------------------*/
FoamFile
{
    version     2.0;
    format      ascii;
    class       volScalarField;
    location    "627";
    object      epsilon;
}
// * * * * * * * * * * * * * * * * * * * * * * * * * * * * * * * * * * * * * //

dimensions      [0 2 -3 0 0 0 0];

internalField   nonuniform List<scalar> 
12225
(
473.958
501.36
499.615
487.143
461.864
435.641
411.952
392.692
377.809
365.859
357.452
350.989
347.379
344.704
344.011
343.667
346.286
345.583
132.855
267.426
271.64
266.179
258.224
258.474
261.013
266.668
276.518
286.598
299.418
310.482
324.659
335.237
350.402
359.503
375.503
388.949
36.6322
90.978
115.918
126.414
130.092
132.24
134.039
135.789
138.619
141.562
145.689
149.917
155.273
160.425
166.141
172.07
177.131
184.718
18.905
36.7054
50.547
60.2199
66.4671
70.6641
73.6563
75.8714
77.7882
79.5257
81.19
82.9927
84.6844
86.7975
88.4672
90.9817
92.4718
95.52
15.3199
21.2944
27.5697
33.0367
37.4073
40.8418
43.524
45.6583
47.3638
48.8574
50.0584
51.2776
52.2081
53.3628
54.1269
55.3189
55.9513
57.2884
14.7067
16.6873
19.1469
21.9371
24.45
26.6415
28.5025
30.0941
31.4143
32.5879
33.5419
34.4617
35.1703
35.9531
36.4884
37.2169
37.6048
38.3633
14.7597
15.2478
16.012
17.277
18.5708
19.8101
20.9442
21.9776
22.8804
23.7041
24.4048
25.068
25.6098
26.164
26.579
27.0728
27.3713
27.8601
14.7927
14.8855
15.0993
15.6427
16.3072
17.0124
17.7028
18.3651
18.9702
19.5371
20.0378
20.5131
20.9184
21.3216
21.6427
22.0004
22.2383
22.588
14.8065
14.7543
14.7789
14.947
15.2322
15.6004
15.9938
16.3954
16.7815
17.1558
17.4993
17.8297
18.1219
18.4105
18.6509
18.9101
19.0939
19.3496
14.8194
14.7126
14.6403
14.6505
14.6969
14.8243
14.9941
15.1874
15.3904
15.5994
15.8015
16.002
16.1864
16.3708
16.5304
16.7014
16.8282
17.0011
14.825
14.7079
14.6008
14.5289
14.4775
14.4757
14.4926
14.5352
14.6016
14.6815
14.7674
14.8588
14.9483
15.042
15.1265
15.2199
15.2905
15.3907
14.8264
14.7088
14.5956
14.4965
14.4074
14.3385
14.2856
14.2486
14.2264
14.2191
14.2217
14.23
14.2453
14.2674
14.2888
14.3184
14.3389
14.3781
14.8267
14.7089
14.5962
14.4909
14.3919
14.3015
14.22
14.1476
14.0842
14.0298
13.9836
13.9446
13.9115
13.885
13.8617
13.8451
13.8273
13.8205
14.8268
14.7087
14.5964
14.4902
14.3895
14.2945
14.2052
14.1216
14.0436
13.9713
13.9045
13.843
13.7863
13.7345
13.6865
13.6434
13.6023
13.5673
14.8269
14.7086
14.5964
14.49
14.3891
14.2934
14.2026
14.1166
14.0351
13.958
13.885
13.8162
13.7511
13.6898
13.6319
13.5776
13.526
13.4781
14.8269
14.7085
14.5962
14.4898
14.3888
14.293
14.202
14.1156
14.0334
13.9554
13.8812
13.8106
13.7436
13.6798
13.6192
13.5615
13.5066
13.4546
14.8268
14.7084
14.5962
14.4897
14.3886
14.2927
14.2017
14.1151
14.0329
13.9546
13.8802
13.8094
13.7419
13.6777
13.6165
13.5582
13.5026
13.4496
14.8268
14.7084
14.5961
14.4896
14.3885
14.2926
14.2015
14.1149
14.0326
13.9543
13.8799
13.809
13.7415
13.6772
13.616
13.5576
13.502
13.449
14.8268
14.7084
14.5961
14.4896
14.3885
14.2926
14.2015
14.115
14.0327
13.9546
13.8804
13.8098
13.7427
13.6789
13.6183
13.5606
13.5058
13.4536
14.8268
14.7084
14.5961
14.4896
14.3886
14.2928
14.2021
14.1162
14.0349
13.9582
13.8858
13.8175
13.7531
13.6924
13.6354
13.5815
13.5311
13.483
14.8269
14.7085
14.596
14.4897
14.3895
14.2954
14.2079
14.1267
14.0519
13.9831
13.9202
13.8627
13.8103
13.7624
13.7189
13.6788
13.6428
13.6084
14.8272
14.708
14.5958
14.4931
14.3999
14.3182
14.2496
14.1918
14.1447
14.1071
14.0778
14.0553
14.0386
14.0262
14.0181
14.0119
14.0096
14.0069
14.828
14.7055
14.6042
14.5281
14.4745
14.4532
14.4581
14.4764
14.5111
14.5574
14.61
14.6657
14.7235
14.7803
14.8378
14.8911
14.9468
14.9921
14.8279
14.7127
14.699
14.7369
14.836
15.0037
15.1995
15.4055
15.6131
15.8149
16.0086
16.1903
16.3618
16.519
16.6684
16.801
16.9325
17.0393
14.8401
14.8571
15.1569
15.6026
16.1686
16.7441
17.2979
17.811
18.28
18.7018
19.0836
19.4234
19.7331
20.0061
20.2607
20.4795
20.6957
20.8661
15.0427
15.5941
17.032
18.5679
19.9844
21.2261
22.293
23.1997
23.9774
24.6402
25.2192
25.7155
26.1617
26.543
26.9018
27.1998
27.5044
27.7349
15.9218
19.1689
23.5957
27.0561
29.6846
31.6957
33.2607
34.4956
35.5063
36.3339
37.0505
37.6518
38.2071
38.6746
39.1417
39.5221
39.9446
40.2585
20.1813
34.9178
44.4769
49.798
52.9939
55.0815
56.5784
57.7169
58.6705
59.4813
60.2514
60.9403
61.655
62.2937
63.0024
63.6113
64.335
64.9132
50.1534
90.5871
102.015
104.516
105.268
105.755
106.324
107.05
107.959
108.979
110.138
111.324
112.629
113.891
115.283
116.564
118.014
119.294
223.554
231.721
231.786
229.732
225.012
218.592
212.088
205.982
200.361
195.362
190.884
186.979
183.509
180.509
177.849
175.557
173.534
171.786
0.145238
0.187419
0.351218
0.495101
0.628727
0.779312
0.954389
1.16656
1.42244
1.72465
2.06668
2.44279
2.84273
3.26123
3.68962
4.12459
4.55866
4.98942
5.40958
5.81562
6.20099
6.56015
6.88729
7.17404
7.41683
7.60596
7.74379
7.82533
7.84266
7.80172
7.71089
7.6516
7.62085
7.97168
8.26399
8.49189
8.69805
8.89378
8.9305
8.69811
8.98656
40.9718
43.1731
47.0459
50.0117
53.8179
57.4571
61.4494
65.5231
69.8192
74.2682
78.9089
83.7259
88.732
93.925
99.3115
104.892
110.672
116.652
122.836
129.226
135.823
142.628
149.644
156.87
164.307
171.953
179.808
187.87
196.138
204.608
213.277
222.141
231.195
240.433
249.85
259.439
269.192
279.1
289.157
299.35
309.67
320.106
330.646
341.277
351.985
362.754
373.568
384.41
395.259
406.093
416.887
427.615
438.25
448.768
459.156
469.431
479.677
489.751
499.699
509.487
519.112
528.55
537.791
546.814
555.606
564.149
572.428
580.429
588.136
595.535
602.613
609.356
615.752
621.79
627.457
632.746
637.645
642.146
646.242
649.927
653.195
656.042
658.464
660.458
662.023
663.156
663.928
664.162
664.027
663.379
662.288
660.89
659.165
656.941
654.331
651.332
647.957
644.218
640.126
635.693
630.933
625.859
620.484
614.824
608.892
602.705
596.276
589.623
582.76
575.704
568.47
561.076
553.536
545.868
538.086
530.208
522.25
514.229
506.168
498.102
490.132
483.071
479.133
476.097
473.117
470.127
467.122
464.108
461.09
458.07
455.049
452.019
448.964
445.845
442.581
439.007
434.678
428.603
403.81
0.749868
0.471491
0.47798
0.539011
0.633384
0.756967
0.91233
1.10292
1.33043
1.59398
1.89032
2.21496
2.56321
2.93059
3.31341
3.70794
4.11147
4.5208
4.93385
5.34745
5.75997
6.16798
6.5698
6.96078
7.33711
7.70609
8.09261
8.49942
8.94745
9.4752
10.1361
10.9985
11.9776
12.6276
13.9065
14.8533
15.8532
17.1762
18.8184
20.3297
23.9032
27.0607
28.3796
30.1422
31.8183
33.6367
35.4833
37.4155
39.4039
41.4661
43.5952
45.797
48.0704
50.4179
52.84
55.3379
57.9123
60.5642
63.2938
66.1018
68.9884
71.9538
74.9978
78.1205
81.3214
84.5999
87.9554
91.3869
94.8933
98.4733
102.125
105.848
109.639
113.496
117.417
121.399
125.439
129.535
133.683
137.878
142.118
146.398
150.714
155.061
159.433
163.825
168.231
172.645
177.059
181.467
185.86
190.231
194.574
198.883
203.16
207.415
211.673
215.995
220.258
224.472
228.626
232.716
236.735
240.678
244.536
248.305
251.978
255.549
259.012
262.362
265.592
268.697
271.673
274.513
277.214
279.77
282.178
284.433
286.533
288.473
290.251
291.865
293.312
294.59
295.699
296.636
297.402
298
298.409
298.647
298.698
298.585
298.322
297.909
297.309
296.545
295.621
294.539
293.303
291.919
290.389
288.719
286.914
284.978
282.916
280.735
278.439
276.034
273.527
270.923
268.228
265.449
262.591
259.662
256.667
253.613
250.506
247.354
244.162
240.941
237.705
234.495
231.495
229.096
226.942
224.836
222.74
220.646
218.557
216.472
214.397
212.332
210.279
208.239
206.212
204.199
202.183
200.225
198.252
195.008
1.61764
0.845836
0.765025
0.798336
0.880656
1.00059
1.15675
1.34943
1.57821
1.84108
2.13477
2.45528
2.79885
3.162
3.5422
3.93714
4.34555
4.76605
5.19849
5.64242
6.09896
6.56896
7.0554
7.5617
8.09509
8.65647
9.23989
9.85809
10.5212
11.2395
12.0185
12.8515
13.7042
14.5638
15.5588
16.5581
17.6893
18.9423
20.2902
21.7673
23.4359
24.9134
26.2507
27.6712
29.13
30.6512
32.2231
33.8506
35.5317
37.2686
39.0612
40.9109
42.8178
44.7829
46.8065
48.8893
51.0317
53.234
55.4965
57.8195
60.2031
62.6473
65.1521
67.7172
70.3424
73.0272
75.7711
78.5734
81.4333
84.3498
87.3217
90.3479
93.4269
96.557
99.7364
102.963
106.235
109.551
112.906
116.299
119.727
123.187
126.675
130.188
133.722
137.273
140.837
144.409
147.986
151.563
155.135
158.701
162.256
165.8
169.334
172.86
176.384
179.898
183.374
186.809
190.197
193.534
196.813
200.031
203.18
206.257
209.256
212.173
215.002
217.738
220.378
222.916
225.348
227.67
229.879
231.969
233.939
235.785
237.503
239.091
240.547
241.869
243.054
244.102
245.011
245.779
246.407
246.893
247.234
247.424
247.475
247.398
247.184
246.84
246.353
245.732
244.979
244.097
243.09
241.961
240.714
239.351
237.878
236.297
234.614
232.833
230.959
228.995
226.947
224.82
222.618
220.347
218.012
215.618
213.17
210.673
208.133
205.555
202.945
200.311
197.662
195.026
192.477
190.141
187.926
185.755
183.602
181.459
179.327
177.207
175.102
173.015
170.949
168.91
166.906
164.948
163.054
161.315
159.761
158.313
2.63747
1.27236
1.09497
1.1005
1.17839
1.30293
1.46707
1.66836
1.90502
2.17462
2.4741
2.79999
3.14914
3.51874
3.90688
4.31204
4.73367
5.17144
5.62606
6.09836
6.59042
7.10439
7.64361
8.21124
8.81061
9.44332
10.1095
10.811
11.5476
12.3175
13.1166
13.942
14.7825
15.6527
16.6087
17.6142
18.6993
19.825
21.0031
22.2686
23.5875
24.9022
26.2263
27.5943
29.0081
30.4722
31.9862
33.551
35.167
36.8353
38.5565
40.3313
42.1605
44.0447
45.9845
47.9804
50.033
52.1426
54.3097
56.5347
58.8177
61.1591
63.5589
66.0172
68.5338
71.1085
73.7411
76.4311
79.1779
81.9807
84.8388
87.7511
90.7163
93.7331
96.8
99.9153
103.077
106.283
109.531
112.819
116.144
119.502
122.892
126.309
129.751
133.213
136.692
140.184
143.686
147.194
150.704
154.213
157.718
161.217
164.708
168.19
171.658
175.102
178.511
181.879
185.202
188.473
191.688
194.841
197.926
200.939
203.874
206.726
209.49
212.162
214.737
217.21
219.577
221.834
223.976
226.001
227.904
229.683
231.335
232.856
234.246
235.501
236.62
237.601
238.443
239.146
239.708
240.129
240.404
240.526
240.53
240.393
240.12
239.714
239.172
238.497
237.693
236.762
235.708
234.535
233.245
231.843
230.333
228.719
227.005
225.196
223.297
221.311
219.245
217.102
214.889
212.609
210.269
207.872
205.425
202.933
200.4
197.832
195.235
192.616
189.983
187.357
184.775
182.293
179.883
177.511
175.16
172.826
170.507
168.207
165.928
163.674
161.45
159.261
157.115
155.035
153.049
151.246
149.665
148.352
3.68359
1.71761
1.43721
1.41358
1.48368
1.60942
1.77835
1.98542
2.22763
2.50216
2.80608
3.13629
3.49002
3.86482
4.25903
4.67139
5.10148
5.54918
6.0152
6.50043
7.00665
7.53577
8.09038
8.67288
9.28559
9.93004
10.607
11.3166
12.0582
12.8307
13.6337
14.4675
15.3318
16.2353
17.1892
18.1919
19.2459
20.3442
21.4852
22.6771
23.9281
25.2136
26.5379
27.9076
29.3244
30.7904
32.3067
33.8741
35.4935
37.1661
38.8926
40.6741
42.5114
44.4056
46.3577
48.3682
50.4376
52.5668
54.7564
57.0069
59.3191
61.6932
64.1299
66.6292
69.1915
71.8169
74.5052
77.2563
80.0699
82.9455
85.8824
88.8798
91.9367
95.0519
98.2239
101.451
104.732
108.064
111.445
114.872
118.344
121.856
125.406
128.991
132.606
136.248
139.914
143.599
147.299
151.01
154.729
158.45
162.17
165.885
169.59
173.279
176.945
180.582
184.182
187.739
191.247
194.7
198.092
201.417
204.67
207.844
210.934
213.935
216.84
219.644
222.343
224.932
227.405
229.759
231.988
234.09
236.061
237.896
239.593
241.15
242.564
243.832
244.954
245.926
246.75
247.423
247.945
248.315
248.521
248.583
248.508
248.282
247.911
247.396
246.738
245.941
245.007
243.939
242.742
241.419
239.974
238.412
236.737
234.954
233.067
231.082
229.004
226.837
224.587
222.26
219.861
217.396
214.869
212.287
209.654
206.977
204.261
201.511
198.734
195.936
193.126
190.317
187.534
184.805
182.123
179.473
176.848
174.244
171.662
169.104
166.575
164.078
161.621
159.211
156.861
154.595
152.444
150.485
148.753
147.244
4.69424
2.15519
1.77148
1.71798
1.77775
1.90163
2.07198
2.28134
2.52557
2.80143
3.10603
3.43651
3.79037
4.16542
4.56013
4.97333
5.40464
5.85389
6.32166
6.80869
7.31641
7.84636
8.40064
8.98129
9.59048
10.23
10.9012
11.6051
12.3423
13.1131
13.9185
14.7594
15.6376
16.5566
17.52
18.5293
19.585
20.6863
21.8329
23.0277
24.2722
25.5633
26.9015
28.2883
29.7251
31.2133
32.7543
34.3493
35.9997
37.7065
39.471
41.2944
43.1779
45.1225
47.1292
49.1995
51.3345
53.5355
55.8034
58.1393
60.5442
63.0188
65.5639
68.1801
70.868
73.628
76.4602
79.3648
82.3417
85.3906
88.5109
91.7021
94.963
98.2926
101.689
105.152
108.678
112.265
115.912
119.615
123.37
127.176
131.029
134.923
138.857
142.825
146.823
150.846
154.889
158.948
163.018
167.093
171.168
175.236
179.293
183.329
187.34
191.317
195.253
199.142
202.976
206.748
210.453
214.083
217.631
221.091
224.456
227.721
230.878
233.922
236.848
239.649
242.32
244.857
247.254
249.508
251.615
253.57
255.37
257.013
258.496
259.816
260.973
261.964
262.788
263.446
263.936
264.253
264.392
264.384
264.211
263.875
263.378
262.723
261.913
260.95
259.838
258.582
257.184
255.65
253.985
252.194
250.281
248.252
246.112
243.868
241.525
239.089
236.565
233.961
231.281
228.533
225.722
222.854
219.935
216.972
213.97
210.935
207.875
204.795
201.703
198.611
195.535
192.493
189.485
186.507
183.556
180.631
177.734
174.868
172.038
169.25
166.51
163.829
161.222
158.713
156.334
154.152
152.184
150.369
5.62902
2.56677
2.08333
1.9993
2.04655
2.16569
2.33417
2.54228
2.78478
3.05803
3.35909
3.68527
4.03431
4.40425
4.79371
5.20168
5.62781
6.07202
6.53486
7.01704
7.51983
8.04462
8.59327
9.16769
9.76999
10.4021
11.066
11.7632
12.4952
13.2632
14.0685
14.9125
15.7968
16.7234
17.694
18.7099
19.7721
20.8812
22.0377
23.2432
24.499
25.8055
27.1637
28.5745
30.0393
31.5596
33.1369
34.7729
36.469
38.2268
40.048
41.9342
43.8868
45.9075
47.998
50.1597
52.3945
54.7038
57.0891
59.5518
62.0933
64.7149
67.4177
70.2027
73.0708
76.0227
79.059
82.18
85.3858
88.6764
92.0514
95.5101
99.0517
102.675
106.378
110.16
114.019
117.951
121.954
126.025
130.16
134.357
138.61
142.915
147.268
151.663
156.096
160.56
165.051
169.561
174.085
178.616
183.148
187.672
192.182
196.669
201.126
205.545
209.917
214.234
218.489
222.675
226.782
230.804
234.732
238.559
242.278
245.881
249.362
252.714
255.929
259.002
261.927
264.699
267.312
269.761
272.042
274.151
276.084
277.839
279.412
280.801
282.005
283.022
283.852
284.493
284.947
285.199
285.27
285.165
284.875
284.404
283.755
282.929
281.932
280.766
279.437
277.947
276.303
274.51
272.573
270.499
268.292
265.96
263.508
260.944
258.274
255.504
252.642
249.694
246.667
243.568
240.404
237.182
233.908
230.588
227.231
223.842
220.428
216.996
213.554
210.112
206.681
203.275
199.897
196.55
193.232
189.945
186.693
183.479
180.309
177.19
174.13
171.141
168.237
165.445
162.794
160.34
158.085
155.92
6.45835
2.93814
2.36161
2.24698
2.27986
2.39157
2.5551
2.75863
2.99591
3.26289
3.55657
3.8744
4.21434
4.57467
4.95422
5.35218
5.76832
6.20273
6.65608
7.12916
7.62325
8.13965
8.67995
9.24617
9.8404
10.4646
11.1209
11.8109
12.5367
13.2998
14.1017
14.9442
15.8287
16.7568
17.73
18.7496
19.817
20.9332
22.0996
23.3177
24.5889
25.9148
27.2964
28.735
30.2325
31.7906
33.4112
35.0963
36.848
38.6683
40.5593
42.523
44.5615
46.6769
48.8714
51.1471
53.506
55.9503
58.4818
61.1027
63.8146
66.6194
69.5186
72.5136
75.6058
78.7962
82.0856
85.4748
88.964
92.5533
96.2424
100.031
103.918
107.901
111.981
116.154
120.417
124.769
129.206
133.725
138.32
142.989
147.725
152.524
157.38
162.288
167.24
172.231
177.253
182.299
187.361
192.431
197.501
202.563
207.607
212.624
217.606
222.543
227.425
232.244
236.991
241.657
246.233
250.709
255.077
259.328
263.454
267.447
271.298
275
278.546
281.928
285.14
288.176
291.03
293.697
296.171
298.449
300.527
302.401
304.069
305.529
306.778
307.816
308.642
309.256
309.654
309.831
309.811
309.583
309.151
308.516
307.683
306.654
305.434
304.028
302.44
300.677
298.743
296.646
294.392
291.987
289.438
286.753
283.94
281.004
277.955
274.799
271.545
268.2
264.773
261.269
257.698
254.067
250.384
246.655
242.889
239.092
235.272
231.435
227.591
223.747
219.915
216.104
212.32
208.567
204.849
201.167
197.526
193.933
190.391
186.91
183.499
180.169
176.938
173.829
170.871
168.109
165.529
162.995
7.16334
3.25969
2.599
2.45435
2.47139
2.57332
2.72913
2.92513
3.15418
3.41183
3.69502
4.00133
4.32892
4.67631
5.04259
5.42713
5.82969
6.25063
6.69098
7.15179
7.6345
8.14075
8.67273
9.23143
9.81843
10.4356
11.0849
11.7683
12.4877
13.2448
14.0416
14.8797
15.7607
16.6865
17.6585
18.6785
19.748
20.8687
22.0423
23.2706
24.5557
25.8997
27.3055
28.7755
30.3103
31.9112
33.5812
35.3231
37.1394
39.0327
41.0058
43.061
45.2012
47.4291
49.7472
52.1584
54.6653
57.2706
59.9767
62.7863
65.7017
68.725
71.8585
75.1039
78.463
81.9373
85.5277
89.2353
93.0606
97.0037
101.064
105.242
109.536
113.944
118.465
123.096
127.834
132.676
137.619
142.657
147.786
153
158.295
163.663
169.097
174.592
180.138
185.728
191.354
197.007
202.677
208.356
214.033
219.698
225.341
230.952
236.52
242.034
247.483
252.858
258.148
263.343
268.432
273.405
278.253
282.965
287.531
291.943
296.191
300.268
304.164
307.872
311.385
314.696
317.799
320.688
323.357
325.802
328.02
330.006
331.758
333.274
334.553
335.593
336.395
336.958
337.275
337.356
337.208
336.829
336.22
335.388
334.334
333.065
331.583
329.897
328.01
325.931
323.665
321.221
318.605
315.825
312.889
309.807
306.585
303.233
299.759
296.172
292.48
288.693
284.819
280.866
276.844
272.76
268.623
264.442
260.223
255.976
251.707
247.426
243.138
238.855
234.583
230.334
226.114
221.927
217.78
213.676
209.621
205.621
201.682
197.814
194.026
190.331
186.746
183.293
179.999
176.901
173.97
171.059
7.73393
3.52596
2.79176
2.61834
2.61862
2.70882
2.85457
3.04058
3.25893
3.50484
3.77521
4.06771
4.38059
4.71256
5.06346
5.43339
5.82323
6.23295
6.66262
7.11304
7.58549
8.08128
8.60175
9.14868
9.7238
10.3293
10.9673
11.6397
12.3486
13.0959
13.8836
14.7138
15.5885
16.5095
17.479
18.4989
19.5712
20.6982
21.882
23.1249
24.4293
25.7976
27.2318
28.7342
30.3082
31.9579
33.6851
35.4932
37.3856
39.3653
41.4356
43.5996
45.8608
48.2223
50.6877
53.2603
55.9433
58.7401
61.6539
64.6877
67.8444
71.127
74.5378
78.0792
81.7534
85.5619
89.5063
93.5876
97.8064
102.163
106.657
111.287
116.053
120.952
125.982
131.14
136.422
141.826
147.344
152.974
158.707
164.539
170.462
176.468
182.55
188.699
194.906
201.16
207.453
213.774
220.112
226.456
232.794
239.115
245.407
251.658
257.856
263.988
270.043
276.009
281.874
287.626
293.254
298.747
304.092
309.279
314.298
319.138
323.79
328.243
332.489
336.52
340.327
343.903
347.242
350.338
353.184
355.777
358.112
360.186
361.996
363.54
364.818
365.828
366.572
367.047
367.252
367.197
366.882
366.31
365.486
364.414
363.099
361.545
359.76
357.75
355.522
353.083
350.442
347.606
344.585
341.388
338.023
334.5
330.829
327.019
323.079
319.02
314.852
310.583
306.224
301.784
297.273
292.7
288.075
283.405
278.7
273.969
269.219
264.46
259.699
254.945
250.207
245.494
240.813
236.171
231.573
227.026
222.536
218.109
213.754
209.478
205.294
201.214
197.255
193.438
189.786
186.33
183.032
179.74
8.16776
3.7354
2.93965
2.73799
2.72222
2.79918
2.93298
3.10701
3.31274
3.54503
3.80085
4.07861
4.37762
4.69728
5.03601
5.39322
5.76856
6.16215
6.57534
7.00942
7.46574
7.94569
8.45087
8.98324
9.54499
10.1378
10.7636
11.4244
12.1224
12.8597
13.6386
14.4613
15.3302
16.2476
17.2159
18.2377
19.3154
20.4518
21.6495
22.9114
24.2404
25.6396
27.1119
28.6607
30.2899
32.0003
33.7972
35.6865
37.6724
39.7585
41.9485
44.2463
46.6558
49.1812
51.8264
54.5957
57.493
60.5222
63.6872
66.9916
70.439
74.0326
77.7753
81.6699
85.7187
89.9236
94.2861
98.8072
103.488
108.327
113.325
118.48
123.791
129.255
134.869
140.629
146.53
152.568
158.736
165.029
171.438
177.956
184.575
191.286
198.078
204.941
211.866
218.84
225.852
232.889
239.94
246.99
254.028
261.04
268.012
274.93
281.781
288.552
295.228
301.797
308.245
314.559
320.727
326.735
332.572
338.226
343.684
348.936
353.971
358.779
363.35
367.675
371.746
375.555
379.096
382.361
385.346
388.046
390.457
392.575
394.398
395.925
397.154
398.087
398.723
399.064
399.111
398.868
398.336
397.523
396.434
395.074
393.448
391.564
389.427
387.047
384.431
381.588
378.526
375.257
371.789
368.132
364.298
360.295
356.136
351.831
347.39
342.824
338.144
333.362
328.486
323.529
318.5
313.409
308.266
303.082
297.865
292.625
287.37
282.11
276.853
271.608
266.383
261.188
256.03
250.916
245.854
240.85
235.911
231.045
226.259
221.564
216.971
212.492
208.145
203.949
199.924
196.095
192.42
188.747
8.46944
3.88891
3.04394
2.81663
2.78488
2.84769
2.96814
3.12864
3.32098
3.54078
3.78502
4.05069
4.3358
4.63865
4.95945
5.29832
5.6557
6.03263
6.42999
6.84869
7.29004
7.75547
8.24669
8.76553
9.31399
9.89404
10.5078
11.1575
11.8455
12.5742
13.3461
14.164
15.0305
15.9485
16.9209
17.9506
19.041
20.1953
21.4168
22.7089
24.0752
25.5203
27.0471
28.6585
30.3555
32.1476
34.0405
36.0383
38.1471
40.3723
42.7179
45.1884
47.7886
50.5233
53.3973
56.4156
59.5827
62.9033
66.3818
70.0222
73.8285
77.8043
81.9529
86.2771
90.7792
95.4611
100.324
105.369
110.596
116.004
121.593
127.359
133.301
139.414
145.696
152.139
158.74
165.491
172.384
179.413
186.567
193.838
201.215
208.687
216.243
223.871
231.558
239.291
247.056
254.84
262.629
270.407
278.159
285.872
293.529
301.115
308.615
316.015
323.299
330.453
337.462
344.312
350.989
357.48
363.771
369.849
375.703
381.32
386.688
391.798
396.64
401.203
405.48
409.462
413.143
416.516
419.576
422.318
424.739
426.836
428.607
430.051
431.168
431.959
432.425
432.568
432.395
431.902
431.092
429.978
428.566
426.862
424.872
422.603
420.063
417.263
414.21
410.916
407.391
403.644
399.688
395.533
391.191
386.673
381.992
377.159
372.186
367.085
361.867
356.544
351.128
345.63
340.061
334.432
328.754
323.037
317.292
311.527
305.752
299.978
294.212
288.463
282.741
277.054
271.411
265.819
260.286
254.818
249.425
244.113
238.891
233.77
228.762
223.878
219.135
214.552
210.145
205.937
201.881
197.834
8.6522
3.99096
3.10835
2.85837
2.81091
2.85926
2.96698
3.11671
3.2979
3.50447
3.73256
3.98082
4.2482
4.53441
4.83919
5.16249
5.50471
5.8666
6.24911
6.65335
7.08071
7.5327
8.01111
8.51783
9.05499
9.62479
10.2296
10.8719
11.5545
12.28
13.0516
13.8725
14.7458
15.6749
16.6633
17.7146
18.8331
20.0236
21.2891
22.6333
24.0594
25.5689
27.1688
28.8667
30.671
32.5866
34.6191
36.7743
39.0585
41.4781
44.0384
46.7449
49.6033
52.6192
55.7983
59.1461
62.6677
66.3681
70.2522
74.3242
78.5882
83.0478
87.7061
92.5657
97.6285
102.896
108.368
114.046
119.928
126.012
132.296
138.777
145.45
152.311
159.354
166.571
173.955
181.499
189.192
197.024
204.986
213.065
221.249
229.526
237.882
246.303
254.774
263.281
271.808
280.339
288.86
297.352
305.8
314.188
322.498
330.715
338.822
346.803
354.641
362.322
369.829
377.148
384.263
391.162
397.829
404.252
410.418
416.314
421.93
427.253
432.274
436.984
441.374
445.437
449.166
452.554
455.597
458.291
460.632
462.618
464.249
465.524
466.443
467.009
467.223
467.095
466.622
465.799
464.642
463.16
461.359
459.247
456.83
454.118
451.121
447.848
444.309
440.517
436.483
432.218
427.735
423.046
418.163
413.1
407.869
402.482
396.953
391.295
385.519
379.639
373.667
367.614
361.493
355.316
349.093
342.836
336.555
330.26
323.961
317.669
311.391
305.138
298.918
292.74
286.612
280.543
274.541
268.613
262.767
257.012
251.357
245.812
240.389
235.101
229.963
224.992
220.202
215.616
211.183
206.771
8.71245
4.04191
3.1355
2.86756
2.80763
2.84534
2.9415
3.07652
3.24176
3.43219
3.64524
3.87879
4.13173
4.40352
4.69403
5.00341
5.33218
5.68111
6.05124
6.44382
6.86037
7.30258
7.77243
8.2721
8.80403
9.3708
9.9751
10.6198
11.3081
12.0434
12.8294
13.6707
14.5709
15.5337
16.563
17.663
18.8366
20.0854
21.4179
22.8408
24.3605
25.9849
27.72
29.5725
31.55
33.6592
35.9068
38.3003
40.8474
43.5541
46.4275
49.4744
52.7013
56.1146
59.7204
63.5245
67.5322
71.7484
76.1776
80.8238
85.6905
90.7806
96.0963
101.639
107.41
113.408
119.633
126.084
132.757
139.648
146.754
154.069
161.587
169.301
177.202
185.281
193.529
201.936
210.489
219.178
227.988
236.906
245.919
255.011
264.167
273.372
282.609
291.861
301.112
310.345
319.542
328.686
337.759
346.743
355.622
364.378
372.994
381.452
389.736
397.831
405.72
413.387
420.818
427.998
434.914
441.551
447.898
453.941
459.67
465.074
470.142
474.867
479.239
483.253
486.9
490.178
493.08
495.603
497.746
499.506
500.884
501.879
502.496
502.734
502.605
502.111
501.236
500.001
498.416
496.487
494.224
491.634
488.725
485.509
481.996
478.197
474.124
469.789
465.204
460.384
455.34
450.086
444.636
439.003
433.201
427.243
421.144
414.916
408.573
402.128
395.595
388.985
382.312
375.586
368.821
362.027
355.216
348.397
341.582
334.78
328
321.252
314.544
307.886
301.286
294.752
288.293
281.917
275.631
269.445
263.368
257.411
251.584
245.9
240.375
235.023
229.859
224.901
220.1
215.341
8.69701
4.05265
3.13407
2.85564
2.78458
2.80789
2.88912
3.01038
3.16227
3.33962
3.53955
3.76029
4.00087
4.26084
4.5402
4.83927
5.15874
5.49959
5.86309
6.25071
6.66419
7.10556
7.57717
8.0817
8.62244
9.20304
9.82617
10.4952
11.214
11.9862
12.8152
13.7027
14.6547
15.6782
16.7793
17.964
19.2392
20.613
22.0909
23.6802
25.3888
27.2255
29.1983
31.315
33.5838
36.0129
38.6104
41.3846
44.3437
47.4961
50.8501
54.4131
58.1922
62.1936
66.4233
70.8863
75.587
80.5289
85.7151
91.1478
96.8288
102.759
108.938
115.365
122.039
128.956
136.114
143.507
151.13
158.977
167.04
175.312
183.783
192.444
201.284
210.291
219.454
228.759
238.193
247.743
257.392
267.126
276.93
286.786
296.678
306.589
316.503
326.4
336.263
346.076
355.818
365.473
375.023
384.45
393.735
402.862
411.813
420.572
429.121
437.445
445.529
453.355
460.911
468.183
475.155
481.817
488.154
494.156
499.812
505.111
510.045
514.606
518.786
522.579
525.979
528.982
531.585
533.785
535.581
536.972
537.96
538.542
538.731
538.533
537.945
536.956
535.587
533.845
531.74
529.28
526.476
523.335
519.868
516.086
512.001
507.625
502.972
498.053
492.884
487.476
481.846
476.005
469.97
463.754
457.371
450.836
444.163
437.366
430.459
423.456
416.369
409.213
401.999
394.74
387.449
380.136
372.813
365.491
358.18
350.89
343.63
336.41
329.238
322.124
315.075
308.101
301.209
294.408
287.706
281.111
274.634
268.284
262.073
256.013
250.118
244.403
238.879
233.566
228.415
223.332
8.65017
4.04405
3.11717
2.82488
2.74094
2.75234
2.82207
2.93191
3.07278
3.23973
3.43008
3.64228
3.87556
4.12964
4.40474
4.70147
5.02092
5.36471
5.73515
6.13359
6.56221
7.02351
7.52029
8.05525
8.63039
9.24785
9.91427
10.6351
11.4159
12.2621
13.1801
14.1775
15.2609
16.4369
17.7134
19.0986
20.6018
22.2326
23.9997
25.9123
27.9801
30.2129
32.6206
35.2126
37.9982
40.9865
44.1863
47.6055
51.2502
55.1292
59.2547
63.6354
68.2752
73.1794
78.352
83.7951
89.509
95.4936
101.748
108.27
115.058
122.108
129.416
136.978
144.786
152.835
161.118
169.625
178.347
187.276
196.401
205.709
215.191
224.833
234.622
244.545
254.589
264.738
274.978
285.293
295.668
306.086
316.531
326.987
337.436
347.861
358.245
368.57
378.819
388.973
399.017
408.931
418.699
428.303
437.727
446.954
455.967
464.751
473.289
481.567
489.57
497.283
504.692
511.786
518.551
524.975
531.046
536.755
542.091
547.046
551.611
555.78
559.546
562.904
565.849
568.38
570.492
572.183
573.459
574.311
574.754
574.766
574.413
573.622
572.43
570.844
568.872
566.52
563.801
560.725
557.3
553.537
549.447
545.042
540.336
535.34
530.069
524.537
518.757
512.744
506.512
500.077
493.452
486.654
479.695
472.592
465.358
458.008
450.556
443.016
435.401
427.724
419.999
412.238
404.453
396.655
388.856
381.066
373.296
365.555
357.853
350.198
342.6
335.068
327.609
320.231
312.943
305.754
298.67
291.701
284.857
278.146
271.581
265.174
258.937
252.884
247.026
241.383
235.907
230.53
8.55273
4.01266
3.08019
2.77938
2.68737
2.69039
2.75239
2.8555
2.99099
3.15432
3.3433
3.55733
3.79565
4.05824
4.34573
4.6591
4.99953
5.36783
5.76444
6.19413
6.66096
7.16901
7.72274
8.32711
8.98814
9.71279
10.5069
11.3777
12.3334
13.3826
14.535
15.8011
17.1912
18.7157
20.3856
22.2124
24.2084
26.3855
28.7556
31.3302
34.1204
37.1374
40.3918
43.8933
47.6508
51.6722
55.9647
60.5345
65.3854
70.5204
75.94
81.6455
87.6425
93.9418
100.544
107.441
114.622
122.08
129.804
137.787
146.019
154.491
163.193
172.116
181.248
190.579
200.096
209.789
219.646
229.654
239.8
250.072
260.458
270.943
281.514
292.157
302.859
313.605
324.381
335.173
345.964
356.741
367.487
378.188
388.827
399.389
409.858
420.218
430.453
440.548
450.486
460.252
469.83
479.205
488.361
497.285
505.961
514.374
522.512
530.359
537.904
545.132
552.033
558.595
564.806
570.656
576.135
581.233
585.942
590.255
594.166
597.667
600.755
603.426
605.674
607.502
608.906
609.875
610.44
610.56
610.299
609.607
608.498
606.985
605.073
602.77
600.083
597.022
593.6
589.826
585.71
581.263
576.497
571.425
566.061
560.416
554.507
548.345
541.947
535.327
528.499
521.479
514.28
506.919
499.41
491.767
484.005
476.138
468.18
460.146
452.047
443.898
435.711
427.498
419.271
411.041
402.819
394.616
386.442
378.305
370.215
362.182
354.212
346.315
338.498
330.77
323.138
315.61
308.194
300.898
293.732
286.706
279.829
273.115
266.574
260.221
254.064
248.125
242.357
236.723
8.45208
3.95931
3.03079
2.72925
2.63624
2.63977
2.70516
2.81461
2.95973
3.13618
3.34146
3.57315
3.83288
4.12241
4.44382
4.79969
5.19331
5.6289
6.11215
6.64773
7.24222
7.90318
8.63914
9.45949
10.375
11.3976
12.5394
13.8138
15.2346
16.8167
18.576
20.5289
22.6919
25.0809
27.7112
30.5975
33.7544
37.1955
40.9325
44.9747
49.3299
54.005
59.0069
64.3386
69.9994
75.9881
82.3043
88.9481
95.9093
103.176
110.733
118.569
126.672
135.027
143.641
152.514
161.615
170.924
180.422
190.096
199.931
209.912
220.027
230.264
240.609
251.052
261.579
272.181
282.846
293.563
304.321
315.11
325.919
336.738
347.555
358.361
369.144
379.894
390.599
401.247
411.828
422.329
432.739
443.044
453.233
463.294
473.212
482.977
492.574
501.991
511.214
520.232
529.032
537.599
545.923
553.99
561.788
569.305
576.529
583.448
590.051
596.327
602.265
607.858
613.094
617.964
622.46
626.573
630.297
633.628
636.558
639.08