/*--------------------------------*- C++ -*----------------------------------*\
  =========                 |
  \\      /  F ield         | OpenFOAM: The Open Source CFD Toolbox
   \\    /   O peration     | Website:  https://openfoam.org
    \\  /    A nd           | Version:  8
     \\/     M anipulation  |
\*---------------------------------------------------------------------------*/
FoamFile
{
    version     2.0;
    format      ascii;
    class       volScalarField;
    location    "627";
    object      nut;
}
// * * * * * * * * * * * * * * * * * * * * * * * * * * * * * * * * * * * * * //

dimensions      [0 2 -1 0 0 0 0];

internalField   nonuniform List<scalar> 
12225
(
6.43079e-05
6.80181e-05
6.776e-05
6.61176e-05
6.26255e-05
5.90871e-05
5.58778e-05
5.32657e-05
5.12473e-05
4.96264e-05
4.84856e-05
4.76107e-05
4.71165e-05
4.67649e-05
4.66381e-05
4.67811e-05
4.68683e-05
4.78878e-05
0.000520272
0.000302549
0.000266116
0.000219322
0.000194589
0.000178313
0.000168148
0.000163112
0.000158195
0.000154848
0.00015211
0.000150801
0.000149257
0.000148523
0.000147578
0.00014701
0.000147519
0.000144636
0.00102751
0.000541772
0.000430291
0.000379349
0.000339834
0.00031134
0.000289321
0.000273543
0.000259901
0.000249522
0.000239601
0.000232143
0.000224502
0.000218499
0.000213111
0.000207497
0.000204909
0.000199488
0.00158979
0.000946735
0.000726093
0.000614648
0.000550563
0.000504716
0.000468947
0.000441469
0.000418718
0.000399713
0.000383499
0.000368716
0.00035661
0.000344007
0.000334958
0.000323717
0.000317101
0.000306863
0.00182204
0.00140648
0.00113129
0.000961735
0.000851345
0.000776241
0.000720381
0.00067588
0.000640512
0.000610262
0.000585871
0.000562898
0.000545034
0.000526131
0.000512546
0.000496234
0.000485726
0.000470715
0.0018563
0.00168024
0.00149952
0.00132793
0.00119864
0.00109949
0.00102461
0.000963953
0.000914824
0.000872483
0.000838309
0.000806607
0.000781561
0.000756166
0.00073723
0.000715636
0.000701407
0.000681582
0.00183903
0.0017885
0.00171874
0.00160565
0.00150062
0.00140698
0.00132926
0.0012629
0.00120663
0.00115703
0.00111562
0.00107754
0.00104622
0.00101563
0.000991566
0.000965654
0.000947509
0.000923888
0.00183222
0.00181574
0.00179181
0.00173379
0.00166586
0.00159613
0.00153182
0.00147267
0.00142018
0.00137228
0.00133065
0.001292
0.00125899
0.00122714
0.00120096
0.00117366
0.00115345
0.0011284
0.0018303
0.00182511
0.0018158
0.00179249
0.00175705
0.00171266
0.0016669
0.00162151
0.0015787
0.00153792
0.00150086
0.00146574
0.0014346
0.00140448
0.00137875
0.00135232
0.00133183
0.00130713
0.00182899
0.00182779
0.00182555
0.00181582
0.00180356
0.00178206
0.00175604
0.00172773
0.0016987
0.00166935
0.00164114
0.00161348
0.00158786
0.00156267
0.00154028
0.00151728
0.00149865
0.00147654
0.00182852
0.00182782
0.00182759
0.00182479
0.00182115
0.00181238
0.00180202
0.00178896
0.00177328
0.00175622
0.00173865
0.00172063
0.00170306
0.00168522
0.00166866
0.00165139
0.00163679
0.00161948
0.00182841
0.00182769
0.00182745
0.00182659
0.00182569
0.00182334
0.00181984
0.00181504
0.0018089
0.00180128
0.00179276
0.00178381
0.00177421
0.00176401
0.00175409
0.00174342
0.001734
0.00172268
0.00182838
0.00182771
0.00182724
0.00182668
0.00182622
0.00182554
0.00182456
0.00182314
0.00182123
0.00181873
0.00181565
0.00181208
0.00180813
0.00180366
0.00179909
0.00179394
0.00178917
0.00178333
0.00182836
0.00182773
0.00182718
0.00182664
0.00182615
0.00182568
0.0018252
0.00182465
0.00182402
0.00182324
0.00182229
0.00182115
0.00181985
0.00181831
0.00181668
0.00181476
0.0018129
0.00181059
0.00182835
0.00182774
0.00182716
0.00182662
0.00182611
0.00182563
0.00182517
0.00182474
0.00182431
0.00182389
0.00182345
0.00182298
0.00182248
0.00182193
0.00182136
0.00182071
0.00182005
0.00181928
0.00182835
0.00182774
0.00182716
0.00182661
0.00182609
0.0018256
0.00182513
0.00182469
0.00182428
0.00182388
0.0018235
0.00182313
0.00182278
0.00182243
0.00182208
0.00182174
0.0018214
0.00182105
0.00182835
0.00182774
0.00182715
0.0018266
0.00182608
0.00182559
0.00182512
0.00182467
0.00182425
0.00182384
0.00182346
0.0018231
0.00182275
0.00182241
0.0018221
0.00182179
0.00182149
0.00182121
0.00182835
0.00182773
0.00182715
0.0018266
0.00182608
0.00182558
0.00182511
0.00182466
0.00182424
0.00182383
0.00182345
0.00182308
0.00182273
0.00182239
0.00182207
0.00182176
0.00182147
0.00182118
0.00182835
0.00182773
0.00182715
0.0018266
0.00182608
0.00182558
0.00182511
0.00182467
0.00182425
0.00182384
0.00182346
0.00182308
0.00182272
0.00182236
0.00182201
0.00182166
0.0018213
0.00182095
0.00182835
0.00182773
0.00182715
0.0018266
0.00182609
0.0018256
0.00182514
0.0018247
0.00182425
0.0018238
0.00182332
0.00182281
0.00182225
0.00182166
0.001821
0.00182032
0.00181955
0.00181879
0.00182834
0.00182772
0.00182717
0.00182664
0.00182614
0.00182564
0.00182507
0.00182439
0.00182354
0.0018225
0.00182125
0.00181978
0.00181808
0.0018162
0.00181412
0.00181192
0.0018095
0.00180713
0.00182829
0.00182775
0.0018273
0.00182668
0.00182596
0.00182482
0.0018229
0.00182035
0.00181705
0.00181304
0.00180836
0.00180316
0.0017975
0.00179155
0.00178529
0.00177899
0.00177243
0.00176607
0.00182807
0.00182815
0.00182732
0.00182519
0.00182204
0.00181595
0.00180727
0.00179744
0.00178582
0.00177292
0.00175933
0.00174546
0.00173143
0.00171761
0.00170386
0.00169073
0.00167754
0.00166561
0.0018277
0.00182906
0.00182177
0.00181157
0.00179593
0.00177196
0.0017449
0.00171684
0.00168844
0.00166061
0.00163367
0.0016081
0.00158375
0.00156105
0.0015394
0.0015196
0.00150027
0.00148342
0.0018266
0.00182232
0.00179023
0.00174671
0.00169089
0.00163276
0.00157899
0.0015298
0.00148425
0.00144324
0.00140604
0.00137269
0.0013422
0.00131492
0.00128955
0.00126712
0.00124552
0.00122721
0.00181208
0.00177249
0.00165831
0.00154193
0.00144079
0.00135578
0.00128699
0.00122882
0.00117879
0.00113616
0.00109892
0.00106671
0.00103783
0.0010127
0.000989489
0.000969485
0.000950154
0.000934158
0.00174447
0.00155742
0.0013186
0.00116746
0.00106159
0.000985827
0.000924677
0.000876129
0.000835952
0.000802594
0.000773809
0.000749392
0.000727529
0.000708864
0.000691495
0.000676833
0.000662496
0.000650842
0.00152165
0.00105446
0.000856158
0.000752466
0.000680741
0.000626755
0.000585785
0.000553921
0.000528053
0.000507002
0.00048899
0.000474009
0.000460619
0.000449446
0.000439
0.000430404
0.000421954
0.000415198
0.000866524
0.000570144
0.000479099
0.000414173
0.000369435
0.000339361
0.000318325
0.000303187
0.000291682
0.000282898
0.000275699
0.000270033
0.000265058
0.000261139
0.000257443
0.000254653
0.000251801
0.000249619
0.000124118
0.000128499
0.000128553
0.000127437
0.000124804
0.000121251
0.000117644
0.000114258
0.00011114
0.000108367
0.000105883
0.000103717
0.000101793
0.000100128
9.86528e-05
9.73808e-05
9.62598e-05
9.52894e-05
1.57286e-07
4.28097e-06
8.02352e-06
1.12937e-05
1.43238e-05
1.7717e-05
2.16807e-05
2.64653e-05
3.22882e-05
3.91409e-05
4.69605e-05
5.5488e-05
6.45956e-05
7.39974e-05
8.36186e-05
9.3182e-05
0.000102667
0.000111794
0.000120572
0.000128748
0.000136353
0.000143203
0.000149407
0.000154972
0.000160106
0.000165096
0.000170242
0.000174282
0.000180046
0.000191324
0.000202884
0.00021534
0.00022603
0.000234895
0.000237292
0.000237536
0.000235026
0.000230502
0.000225982
0.000221985
0.000206303
4.64198e-05
4.91481e-05
4.97049e-05
5.1043e-05
5.21773e-05
5.33189e-05
5.44737e-05
5.56073e-05
5.67482e-05
5.78776e-05
5.9007e-05
6.01298e-05
6.12498e-05
6.23649e-05
6.34765e-05
6.45837e-05
6.56872e-05
6.67863e-05
6.78815e-05
6.8972e-05
7.00583e-05
7.11396e-05
7.22161e-05
7.32872e-05
7.43527e-05
7.54121e-05
7.64653e-05
7.75116e-05
7.85507e-05
7.9582e-05
8.06052e-05
8.16196e-05
8.26249e-05
8.36203e-05
8.46055e-05
8.55797e-05
8.65426e-05
8.74934e-05
8.84317e-05
8.93568e-05
9.02681e-05
9.1165e-05
9.20469e-05
9.29131e-05
9.3763e-05
9.45959e-05
9.5411e-05
9.62075e-05
9.69845e-05
9.7741e-05
9.84758e-05
9.91878e-05
9.98757e-05
0.000100539
0.000101177
0.000101793
0.000102393
0.000102967
0.00010352
0.00010405
0.000104558
0.000105043
0.000105505
0.000105942
0.000106356
0.000106746
0.000107111
0.000107451
0.000107766
0.000108056
0.00010832
0.000108558
0.000108771
0.000108958
0.000109119
0.000109253
0.000109362
0.000109444
0.0001095
0.00010953
0.000109534
0.000109512
0.000109464
0.000109391
0.000109291
0.000109167
0.00010902
0.000108843
0.000108645
0.000108417
0.000108164
0.000107892
0.000107602
0.000107283
0.000106942
0.000106579
0.000106193
0.000105787
0.000105359
0.000104911
0.000104444
0.000103957
0.000103451
0.000102928
0.000102388
0.00010183
0.000101257
0.000100668
0.000100064
9.94464e-05
9.88153e-05
9.81715e-05
9.75158e-05
9.68488e-05
9.61713e-05
9.5484e-05
9.47878e-05
9.40835e-05
9.33723e-05
9.26563e-05
9.19417e-05
9.128e-05
9.08123e-05
9.03998e-05
8.99894e-05
8.95768e-05
8.91619e-05
8.87448e-05
8.83261e-05
8.79057e-05
8.74838e-05
8.70599e-05
8.66328e-05
8.62e-05
8.57565e-05
8.52912e-05
8.47753e-05
8.41433e-05
8.22561e-05
8.15727e-07
2.33998e-05
5.38555e-05
7.52819e-05
8.89151e-05
9.77891e-05
0.000104752
0.00011151
0.000118956
0.000127398
0.000136835
0.00014708
0.00015791
0.000169075
0.000180374
0.000191597
0.00020258
0.000213134
0.000223111
0.000232339
0.000240704
0.000248105
0.000254552
0.000260142
0.000265145
0.00026946
0.000272632
0.000275196
0.000277595
0.000279673
0.000280425
0.000279287
0.000277921
0.000283147
0.000275977
0.000277528
0.000279988
0.0002782
0.000274993
0.000281813
0.000261913
0.000252565
0.000263709
0.000269669
0.000277629
0.00028547
0.000293605
0.000301749
0.000310069
0.00031846
0.000326955
0.000335527
0.00034418
0.000352907
0.000361711
0.000370589
0.000379545
0.000388577
0.000397689
0.00040688
0.000416153
0.000425509
0.000434947
0.000444468
0.000454072
0.000463759
0.000473527
0.000483376
0.000493302
0.000503305
0.00051338
0.000523525
0.000533736
0.000544009
0.00055434
0.000564723
0.000575153
0.000585625
0.000596134
0.000606673
0.000617236
0.000627818
0.000638411
0.000649011
0.00065961
0.000670203
0.000680784
0.000691348
0.000701889
0.0007124
0.000722873
0.000733296
0.000743647
0.000753892
0.000763972
0.000773783
0.000783146
0.000791753
0.000800272
0.000808644
0.000816885
0.000824986
0.000832944
0.000840751
0.000848402
0.000855891
0.000863211
0.000870358
0.000877325
0.000884107
0.000890699
0.000897096
0.000903293
0.000909285
0.000915068
0.000920638
0.000925992
0.000931124
0.000936033
0.000940714
0.000945166
0.000949385
0.000953369
0.000957118
0.000960629
0.000963903
0.000966938
0.00096973
0.000972324
0.000974694
0.000976764
0.000978424
0.000979916
0.000981368
0.000982509
0.000983381
0.000984016
0.000984415
0.000984583
0.000984523
0.000984238
0.000983732
0.000983008
0.000982072
0.000980928
0.00097958
0.000978034
0.000976294
0.000974366
0.000972256
0.000969969
0.000967513
0.000964892
0.000962114
0.000959184
0.00095611
0.000952897
0.000949551
0.000946076
0.00094247
0.000938718
0.000934721
0.000929983
0.000923388
0.000915923
0.000908174
0.0009003
0.000892353
0.000884354
0.000876315
0.000868242
0.000860139
0.000852004
0.000843826
0.000835579
0.000827214
0.000818577
0.000809413
0.000798221
0.000768265
1.76347e-06
3.95451e-05
8.66027e-05
0.000122284
0.000148025
0.000166621
0.000180658
0.000192245
0.000202863
0.000213405
0.000224304
0.00023568
0.00024748
0.000259561
0.000271754
0.000283879
0.000295759
0.000307213
0.000318063
0.00032813
0.000337255
0.000345308
0.000352221
0.000357993
0.000362691
0.000366866
0.000371523
0.000376942
0.000383558
0.000391575
0.00040084
0.000411013
0.000421928
0.00043374
0.000442216
0.000452876
0.000462162
0.000471034
0.000480752
0.000490565
0.000497019
0.000509325
0.000525886
0.000541731
0.00055814
0.00057466
0.000591392
0.000608249
0.000625266
0.000642414
0.000659701
0.000677117
0.000694666
0.000712345
0.000730157
0.000748104
0.000766188
0.000784411
0.000802775
0.00082128
0.000839928
0.000858719
0.000877653
0.000896727
0.000915941
0.000935291
0.000954775
0.000974386
0.000994121
0.00101397
0.00103394
0.001054
0.00107417
0.00109441
0.00111474
0.00113513
0.00115558
0.00117607
0.0011966
0.00121715
0.00123771
0.00125826
0.00127881
0.00129932
0.00131979
0.0013402
0.00136055
0.00138081
0.00140096
0.001421
0.00144089
0.0014606
0.0014801
0.00149932
0.00151821
0.00153669
0.00155465
0.00157216
0.00158942
0.00160641
0.00162312
0.00163954
0.00165566
0.00167145
0.00168692
0.00170204
0.00171681
0.00173121
0.00174523
0.00175887
0.00177211
0.00178494
0.00179735
0.00180933
0.00182088
0.00183199
0.00184264
0.00185283
0.00186256
0.00187182
0.0018806
0.0018889
0.00189672
0.00190404
0.00191088
0.00191722
0.00192308
0.00192845
0.00193335
0.00193782
0.00194173
0.00194482
0.00194753
0.00195006
0.00195199
0.0019534
0.00195432
0.00195475
0.00195471
0.0019542
0.00195323
0.0019518
0.00194993
0.00194763
0.00194489
0.00194174
0.00193818
0.00193423
0.00192988
0.00192517
0.00192009
0.00191466
0.0019089
0.00190281
0.00189641
0.00188971
0.00188273
0.00187548
0.00186796
0.00186017
0.0018521
0.00184361
0.00183422
0.00182309
0.00181085
0.00179806
0.00178496
0.00177165
0.00175819
0.00174462
0.00173094
0.00171716
0.0017033
0.00168932
0.00167518
0.00166077
0.00164582
0.00162959
0.00160928
0.00156521
2.87721e-06
5.23755e-05
0.000112198
0.000158571
0.000192551
0.000217602
0.000236733
0.000252295
0.000265979
0.000278891
0.000291661
0.00030458
0.00031772
0.000331033
0.000344409
0.000357715
0.00037081
0.000383546
0.000395779
0.000407369
0.000418198
0.000428184
0.000437328
0.000445739
0.000453686
0.00046165
0.000470249
0.000480033
0.000491514
0.000505023
0.000520583
0.000537824
0.000556579
0.000576014
0.000594029
0.000612549
0.000630692
0.000650018
0.000670117
0.000689719
0.000709476
0.000731093
0.000753965
0.000777009
0.000800295
0.000823761
0.000847416
0.000871246
0.000895253
0.000919431
0.000943782
0.000968306
0.000993003
0.00101788
0.00104293
0.00106816
0.00109358
0.00111918
0.00114497
0.00117096
0.00119712
0.00122348
0.00125002
0.00127674
0.00130364
0.00133071
0.00135794
0.00138534
0.00141288
0.00144056
0.00146838
0.00149631
0.00152435
0.00155248
0.00158069
0.00160897
0.0016373
0.00166567
0.00169405
0.00172244
0.00175081
0.00177915
0.00180744
0.00183565
0.00186378
0.0018918
0.00191968
0.00194741
0.00197496
0.00200231
0.00202941
0.00205625
0.00208277
0.00210893
0.00213468
0.00215996
0.00218477
0.00220917
0.0022332
0.00225686
0.00228012
0.00230298
0.00232541
0.0023474
0.00236892
0.00238997
0.00241053
0.00243058
0.00245011
0.0024691
0.00248754
0.00250541
0.00252271
0.00253942
0.00255552
0.00257101
0.00258588
0.00260012
0.00261372
0.00262666
0.00263895
0.00265058
0.00266153
0.00267182
0.00268143
0.00269036
0.00269862
0.00270621
0.00271317
0.00271958
0.002725
0.00272952
0.00273358
0.00273718
0.00274001
0.00274214
0.00274359
0.00274438
0.00274451
0.00274398
0.00274282
0.00274103
0.00273863
0.00273561
0.002732
0.00272781
0.00272305
0.00271774
0.00271189
0.00270551
0.00269863
0.00269125
0.0026834
0.00267509
0.00266635
0.00265718
0.0026476
0.00263764
0.00262731
0.0026166
0.00260549
0.00259388
0.00258143
0.00256765
0.00255281
0.0025373
0.00252135
0.00250509
0.00248858
0.00247187
0.002455
0.00243799
0.00242084
0.00240356
0.00238615
0.00236843
0.00235005
0.00233007
0.0023052
0.00225899
4.02153e-06
6.31721e-05
0.000133761
0.000189101
0.000230299
0.000261004
0.000284569
0.000303593
0.00031997
0.000334985
0.000349439
0.000363768
0.000378169
0.000392691
0.000407303
0.000421936
0.000436509
0.000450937
0.000465141
0.000479052
0.000492623
0.000505842
0.00051876
0.000531511
0.000544337
0.000557595
0.000571714
0.000587122
0.000604183
0.000623089
0.000643783
0.000666003
0.00068948
0.000713635
0.00073795
0.000762641
0.00078771
0.000813525
0.000840121
0.000867073
0.000893937
0.000921564
0.000949693
0.000978054
0.00100664
0.00103543
0.00106443
0.00109364
0.00112305
0.00115267
0.00118249
0.00121252
0.00124276
0.0012732
0.00130384
0.0013347
0.00136577
0.00139706
0.00142856
0.00146028
0.00149221
0.00152436
0.0015567
0.00158925
0.00162198
0.00165491
0.001688
0.00172126
0.00175467
0.00178823
0.00182191
0.0018557
0.00188959
0.00192357
0.00195761
0.00199169
0.00202581
0.00205993
0.00209405
0.00212813
0.00216216
0.00219613
0.00222999
0.00226374
0.00229736
0.0023308
0.00236406
0.00239711
0.00242991
0.00246245
0.00249468
0.00252658
0.00255811
0.00258925
0.00261997
0.00265027
0.00268011
0.00270952
0.0027385
0.00276702
0.00279508
0.00282265
0.00284972
0.00287626
0.00290225
0.00292769
0.00295254
0.00297679
0.00300042
0.00302342
0.00304577
0.00306746
0.00308846
0.00310877
0.00312838
0.00314726
0.00316541
0.00318282
0.00319947
0.00321536
0.00323048
0.00324482
0.00325836
0.00327112
0.00328309
0.00329425
0.00330463
0.00331422
0.00332318
0.00333123
0.00333825
0.00334425
0.00334979
0.00335461
0.00335857
0.00336171
0.00336405
0.00336559
0.00336636
0.00336635
0.00336558
0.00336406
0.0033618
0.00335882
0.00335512
0.00335073
0.00334565
0.0033399
0.0033335
0.00332647
0.00331882
0.00331057
0.00330175
0.00329236
0.00328243
0.00327199
0.00326105
0.00324962
0.00323773
0.00322539
0.00321257
0.00319921
0.0031851
0.00316998
0.00315394
0.00313721
0.00311996
0.00310231
0.00308435
0.00306612
0.00304768
0.00302904
0.00301024
0.00299127
0.0029721
0.00295262
0.00293251
0.00291078
0.0028842
0.00284063
5.12798e-06
7.23333e-05
0.000152053
0.000215137
0.000262816
0.000298686
0.000326344
0.000348589
0.000367491
0.000384498
0.000400563
0.000416262
0.000431914
0.000447667
0.000463572
0.00047963
0.000495824
0.000512128
0.000528524
0.000545003
0.000561573
0.000578264
0.000595144
0.000612324
0.000629972
0.00064831
0.000667592
0.000688072
0.000709954
0.000733333
0.000758172
0.000784306
0.00081152
0.000839514
0.000868067
0.00089713
0.000926704
0.000956863
0.000987606
0.00101877
0.00105023
0.0010821
0.00111432
0.0011468
0.00117953
0.00121249
0.00124568
0.00127908
0.00131271
0.00134655
0.00138062
0.00141491
0.00144942
0.00148416
0.00151914
0.00155434
0.00158975
0.00162539
0.00166123
0.00169729
0.00173355
0.00177002
0.00180667
0.00184352
0.00188055
0.00191774
0.0019551
0.0019926
0.00203024
0.00206801
0.00210588
0.00214384
0.00218189
0.00221999
0.00225814
0.00229631
0.00233449
0.00237265
0.00241078
0.00244885
0.00248685
0.00252474
0.00256252
0.00260015
0.00263761
0.00267489
0.00271194
0.00274875
0.00278529
0.00282153
0.00285744
0.00289301
0.00292819
0.00296297
0.00299733
0.00303125
0.00306471
0.00309771
0.00313023
0.00316226
0.00319378
0.00322477
0.00325521
0.00328507
0.00331434
0.00334299
0.00337101
0.00339838
0.00342507
0.00345108
0.00347638
0.00350096
0.00352479
0.00354787
0.00357019
0.00359171
0.00361244
0.00363236
0.00365146
0.00366973
0.00368715
0.00370372
0.00371944
0.00373428
0.00374826
0.00376137
0.0037736
0.00378505
0.00379579
0.00380536
0.00381394
0.00382147
0.0038285
0.00383462
0.00383983
0.00384415
0.00384758
0.00385014
0.00385185
0.00385269
0.0038527
0.00385187
0.00385023
0.00384778
0.00384454
0.00384051
0.00383572
0.00383019
0.00382392
0.00381694
0.00380927
0.00380092
0.00379191
0.00378227
0.00377202
0.00376117
0.00374975
0.00373778
0.00372527
0.00371225
0.00369869
0.00368457
0.00366977
0.00365415
0.00363773
0.00362064
0.003603
0.00358492
0.00356646
0.00354768
0.00352865
0.0035094
0.00348996
0.00347035
0.00345057
0.00343054
0.00340998
0.00338796
0.00336166
0.00332239
6.1526e-06
7.99703e-05
0.000167351
0.000237182
0.000290716
0.000331386
0.000362931
0.000388293
0.000409681
0.000428683
0.000446387
0.000463498
0.000480447
0.000497478
0.000514724
0.000532249
0.000550091
0.00056827
0.00058681
0.000605738
0.000625093
0.000644923
0.000665292
0.000686279
0.000707985
0.000730528
0.000754038
0.000778634
0.000804407
0.000831394
0.000859563
0.000888815
0.000919015
0.000950002
0.000981646
0.00101387
0.00104664
0.00107995
0.00111376
0.00114802
0.00118264
0.00121763
0.00125293
0.00128852
0.00132438
0.00136048
0.00139681
0.00143337
0.00147015
0.00150715
0.00154437
0.00158181
0.00161946
0.00165733
0.00169542
0.00173372
0.00177223
0.00181094
0.00184985
0.00188896
0.00192827
0.00196775
0.00200742
0.00204726
0.00208726
0.00212742
0.00216772
0.00220815
0.0022487
0.00228936
0.00233011
0.00237094
0.00241182
0.00245276
0.00249372
0.00253469
0.00257566
0.00261659
0.00265747
0.00269829
0.00273902
0.00277963
0.00282011
0.00286043
0.00290058
0.00294051
0.00298022
0.00301968
0.00305885
0.00309772
0.00313627
0.00317445
0.00321226
0.00324967
0.00328666
0.0033232
0.00335929
0.0033949
0.00343003
0.00346464
0.00349872
0.00353225
0.0035652
0.00359756
0.0036293
0.0036604
0.00369085
0.00372061
0.00374968
0.00377803
0.00380564
0.0038325
0.00385858
0.00388388
0.00390838
0.00393205
0.00395489
0.00397689
0.00399803
0.00401829
0.00403767
0.00405616
0.00407375
0.00409043
0.0041062
0.00412104
0.00413498
0.00414819
0.00416039
0.00417154
0.00418163
0.00419075
0.0041992
0.00420668
0.00421322
0.00421881
0.00422347
0.00422721
0.00423003
0.00423196
0.00423298
0.00423313
0.0042324
0.0042308
0.00422837
0.00422509
0.004221
0.00421611
0.00421043
0.00420398
0.00419678
0.00418885
0.0041802
0.00417087
0.00416086
0.00415021
0.00413892
0.00412703
0.00411456
0.00410151
0.00408789
0.00407369
0.00405885
0.00404329
0.00402702
0.00401011
0.00399264
0.00397469
0.00395633
0.00393763
0.00391863
0.00389939
0.00387996
0.00386038
0.00384066
0.00382078
0.00380051
0.00377907
0.00375407
0.00371911
7.06264e-06
8.61706e-05
0.000179865
0.000255529
0.000314333
0.000359469
0.000394732
0.000423152
0.000447038
0.000468088
0.000487503
0.000506101
0.000524414
0.000542775
0.000561388
0.000580377
0.000599822
0.000619777
0.000640285
0.000661391
0.000683143
0.000705596
0.000728817
0.000752837
0.000777708
0.000803484
0.00083022
0.000857957
0.000886722
0.000916512
0.000947294
0.000979001
0.00101155
0.00104484
0.00107879
0.00111332
0.0011484
0.00118399
0.00122004
0.00125651
0.00129335
0.00133054
0.00136804
0.00140586
0.00144394
0.00148228
0.00152085
0.00155964
0.00159863
0.00163784
0.00167724
0.00171684
0.00175664
0.00179663
0.00183682
0.0018772
0.00191776
0.0019585
0.00199943
0.00204053
0.0020818
0.00212323
0.00216483
0.00220658
0.00224847
0.0022905
0.00233266
0.00237494
0.00241732
0.00245981
0.00250237
0.002545
0.00258769
0.00263042
0.00267317
0.00271593
0.00275868
0.00280141
0.00284409
0.0028867
0.00292922
0.00297164
0.00301393
0.00305607
0.00309804
0.00313981
0.00318137
0.00322268
0.00326372
0.00330448
0.00334491
0.00338501
0.00342475
0.0034641
0.00350304
0.00354155
0.00357962
0.00361722
0.00365432
0.00369092
0.00372698
0.00376249
0.00379742
0.00383176
0.00386546
0.00389853
0.00393093
0.00396264
0.00399364
0.00402392
0.00405345
0.00408221
0.00411019
0.00413736
0.00416371
0.00418923
0.0042139
0.0042377
0.00426062
0.00428265
0.00430378
0.00432399
0.00434327
0.00436162
0.00437903
0.00439548
0.00441106
0.00442584
0.00443948
0.00445217
0.00446376
0.00447446
0.00448432
0.0044932
0.0045011
0.00450804
0.00451401
0.00451903
0.0045231
0.00452624
0.00452845
0.00452973
0.00453012
0.0045296
0.0045282
0.00452593
0.00452281
0.00451884
0.00451405
0.00450845
0.00450206
0.00449489
0.00448698
0.00447833
0.00446896
0.00445891
0.00444818
0.0044368
0.0044248
0.00441218
0.00439897
0.00438514
0.0043707
0.00435559
0.00433982
0.00432344
0.00430649
0.00428905
0.00427118
0.00425293
0.00423436
0.00421554
0.00419653
0.00417739
0.00415816
0.00413885
0.00411931
0.0040989
0.0040757
0.00404535
7.83755e-06
9.10291e-05
0.000189786
0.000270414
0.000333911
0.000383173
0.000421977
0.000453389
0.000479781
0.00050293
0.000524128
0.000544284
0.00056402
0.000583745
0.000603724
0.000624135
0.000645116
0.000666729
0.000689005
0.000711981
0.000735694
0.000760167
0.0007854
0.0008115
0.000838526
0.000866499
0.000895432
0.000925324
0.000956168
0.000987942
0.00102061
0.00105411
0.00108839
0.00112339
0.00115902
0.00119524
0.001232
0.00126925
0.00130695
0.00134505
0.00138352
0.00142229
0.00146131
0.00150052
0.00153998
0.00157973
0.0016197
0.00165986
0.00170021
0.00174073
0.00178141
0.00182227
0.0018633
0.00190448
0.00194583
0.00198735
0.00202902
0.00207085
0.00211283
0.00215497
0.00219726
0.0022397
0.00228228
0.00232501
0.00236786
0.00241085
0.00245397
0.00249719
0.00254053
0.00258397
0.00262749
0.00267109
0.00271476
0.00275849
0.00280225
0.00284604
0.00288984
0.00293363
0.0029774
0.00302112
0.00306479
0.00310838
0.00315186
0.00319522
0.00323844
0.0032815
0.00332436
0.00336701
0.00340942
0.00345158
0.00349344
0.003535
0.00357622
0.00361708
0.00365756
0.00369764
0.00373729
0.00377648
0.0038152
0.00385343
0.00389113
0.00392829
0.00396488
0.00400087
0.00403625
0.004071
0.00410508
0.00413848
0.00417117
0.00420313
0.00423435
0.0042648
0.00429445
0.00432331
0.00435133
0.00437852
0.00440485
0.0044303
0.00445486
0.00447853
0.00450127
0.00452309
0.00454397
0.00456391
0.00458288
0.00460089
0.00461805
0.00463424
0.00464939
0.00466359
0.0046767
0.00468895
0.00470026
0.00471056
0.00471987
0.0047282
0.00473554
0.00474192
0.00474733
0.00475178
0.00475528
0.00475785
0.00475948
0.00476019
0.00476
0.00475891
0.00475694
0.0047541
0.00475041
0.00474588
0.00474053
0.00473438
0.00472745
0.00471975
0.0047113
0.00470213
0.00469226
0.0046817
0.00467048
0.00465861
0.00464612
0.004633
0.00461926
0.00460488
0.00458986
0.00457425
0.00455807
0.00454138
0.00452424
0.0045067
0.00448883
0.0044707
0.00445238
0.00443394
0.00441546
0.00439698
0.00437841
0.00435924
0.00433798
0.00431203
8.4657e-06
9.46502e-05
0.000197312
0.000282076
0.00034968
0.000402705
0.000444844
0.00047915
0.000508023
0.000533291
0.000556312
0.000578068
0.000599266
0.000620385
0.000641673
0.000663294
0.000685319
0.000707917
0.000731252
0.000755398
0.000780399
0.000806296
0.000833142
0.000860939
0.000889704
0.000919403
0.000950018
0.00098153
0.00101391
0.00104713
0.00108115
0.00111591
0.00115136
0.00118745
0.00122412
0.00126132
0.001299
0.00133711
0.00137562
0.00141449
0.00145367
0.00149315
0.00153292
0.00157298
0.00161325
0.00165365
0.00169423
0.00173496
0.00177581
0.00181678
0.00185788
0.00189911
0.00194047
0.00198196
0.00202358
0.00206534
0.00210723
0.00214926
0.00219143
0.00223374
0.0022762
0.00231879
0.00236153
0.00240442
0.00244744
0.00249061
0.00253392
0.00257736
0.00262093
0.00266463
0.00270845
0.00275238
0.00279641
0.00284054
0.00288474
0.00292901
0.00297333
0.00301769
0.00306208
0.00310647
0.00315084
0.00319519
0.00323947
0.00328369
0.00332781
0.0033718
0.00341566
0.00345934
0.00350283
0.00354611
0.00358913
0.00363189
0.00367435
0.00371649
0.00375828
0.0037997
0.00384071
0.0038813
0.00392144
0.0039611
0.00400026
0.00403889
0.00407697
0.00411448
0.00415138
0.00418765
0.00422328
0.00425823
0.00429248
0.00432601
0.00435879
0.00439082
0.00442205
0.00445249
0.00448209
0.00451086
0.00453877
0.0045658
0.00459194
0.00461717
0.00464148
0.00466486
0.0046873
0.00470878
0.00472929
0.00474884
0.0047675
0.00478513
0.0048018
0.0048175
0.00483218
0.00484595
0.00485875
0.00487052
0.00488128
0.00489104
0.00489983
0.00490763
0.00491445
0.00492031
0.0049252
0.00492914
0.00493213
0.00493419
0.00493533
0.00493556
0.00493489
0.00493333
0.0049309
0.00492761
0.00492349
0.00491854
0.00491278
0.00490624
0.00489892
0.00489086
0.00488206
0.00487255
0.00486235
0.00485147
0.00483994
0.00482777
0.00481496
0.00480152
0.00478745
0.00477279
0.00475756
0.0047418
0.00472558
0.00470894
0.00469196
0.0046747
0.00465724
0.00463969
0.00462212
0.00460462
0.00458714
0.00456929
0.00454992
0.00452756
8.94442e-06
9.71455e-05
0.000202634
0.000290871
0.000361871
0.000418281
0.000463514
0.000500573
0.000531855
0.000559227
0.000584073
0.000607329
0.00062965
0.000651532
0.000673515
0.000695908
0.000718953
0.0007428
0.000767456
0.000792941
0.000819286
0.000846518
0.000874652
0.000903664
0.000933519
0.000964231
0.000995789
0.00102817
0.00106133
0.00109525
0.00112988
0.00116517
0.00120107
0.00123753
0.00127451
0.00131196
0.00134983
0.00138808
0.00142667
0.00146555
0.0015047
0.00154409
0.00158371
0.00162354
0.00166351
0.00170376
0.00174418
0.00178465
0.00182515
0.0018657
0.00190632
0.00194703
0.00198784
0.00202875
0.00206977
0.00211091
0.00215217
0.00219357
0.00223511
0.0022768
0.00231864
0.00236065
0.00240283
0.00244518
0.00248771
0.00253043
0.00257333
0.00261641
0.00265968
0.00270314
0.00274677
0.00279057
0.00283454
0.00287867
0.00292294
0.00296735
0.00301188
0.00305652
0.00310125
0.00314605
0.0031909
0.00323578
0.00328068
0.00332556
0.00337041
0.0034152
0.0034599
0.00350448
0.00354893
0.0035932
0.00363728
0.00368114
0.00372474
0.00376806
0.00381107
0.00385373
0.00389603
0.00393793
0.00397941
0.00402043
0.00406098
0.00410102
0.00414053
0.00417947
0.00421783
0.00425558
0.00429269
0.00432914
0.0043649
0.00439995
0.00443427
0.00446782
0.0045006
0.00453257
0.00456373
0.00459404
0.0046235
0.00465208
0.00467978
0.00470656
0.00473243
0.00475736
0.00478134
0.00480436
0.00482642
0.00484751
0.00486764
0.00488678
0.00490499
0.00492221
0.00493845
0.00495382
0.00496817
0.00498142
0.00499368
0.00500495
0.00501523
0.00502453
0.00503284
0.00504018
0.00504655
0.00505196
0.00505642
0.00505994
0.00506252
0.00506419
0.00506494
0.0050648
0.00506377
0.00506187
0.00505912
0.00505553
0.00505112
0.00504589
0.00503988
0.0050331
0.00502556
0.00501729
0.0050083
0.00499862
0.00498825
0.00497722
0.00496554
0.00495322
0.00494027
0.00492672
0.00491258
0.00489792
0.00488276
0.00486717
0.00485122
0.00483497
0.00481853
0.00480198
0.00478544
0.004769
0.00475267
0.00473614
0.00471855
0.00469919
9.27825e-06
9.86558e-05
0.000206013
0.000296961
0.000370783
0.000430157
0.000478202
0.000517837
0.000551296
0.000580307
0.000606301
0.000630528
0.000653889
0.000677069
0.000700372
0.000724038
0.000748245
0.000773053
0.000798557
0.000824827
0.000851895
0.000879776
0.000908481
0.000937998
0.000968311
0.000999403
0.00103125
0.00106383
0.0010971
0.00113102
0.00116555
0.00120064
0.00123626
0.00127235
0.00130888
0.0013458
0.00138306
0.00142062
0.00145844
0.00149649
0.00153473
0.0015731
0.00161163
0.00165039
0.00168953
0.00172874
0.00176795
0.0018072
0.00184643
0.00188562
0.00192484
0.00196412
0.00200348
0.00204293
0.0020825
0.0021222
0.00216204
0.00220205
0.00224223
0.00228261
0.00232319
0.002364
0.00240505
0.00244634
0.00248789
0.0025297
0.00257179
0.00261414
0.00265677
0.00269968
0.00274285
0.00278629
0.00283
0.00287395
0.00291814
0.00296255
0.00300718
0.003052
0.003097
0.00314215
0.00318743
0.00323282
0.0032783
0.00332384
0.00336941
0.00341498
0.00346052
0.00350601
0.00355141
0.0035967