/*--------------------------------*- C++ -*----------------------------------*\
  =========                 |
  \\      /  F ield         | OpenFOAM: The Open Source CFD Toolbox
   \\    /   O peration     | Website:  https://openfoam.org
    \\  /    A nd           | Version:  8
     \\/     M anipulation  |
\*---------------------------------------------------------------------------*/
FoamFile
{
    version     2.0;
    format      ascii;
    class       surfaceScalarField;
    location    "627";
    object      phi;
}
// * * * * * * * * * * * * * * * * * * * * * * * * * * * * * * * * * * * * * //

dimensions      [0 3 -1 0 0 0 0];

internalField   nonuniform List<scalar> 
24170
(
3.1142e-06
1.96893e-08
3.05406e-06
6.01396e-08
3.00058e-06
5.34783e-08
2.9391e-06
6.14828e-08
2.87579e-06
6.33051e-08
2.81799e-06
5.78026e-08
2.76806e-06
4.99316e-08
2.72533e-06
4.27323e-08
2.68844e-06
3.68887e-08
2.6563e-06
3.21454e-08
2.6281e-06
2.8197e-08
2.6032e-06
2.49047e-08
2.58103e-06
2.21703e-08
2.56107e-06
1.99648e-08
2.54295e-06
1.81202e-08
2.52541e-06
1.75349e-08
2.50864e-06
1.67724e-08
2.40214e-08
2.48462e-06
3.49876e-06
-2.26341e-08
3.49468e-06
6.42124e-08
3.48025e-06
6.79037e-08
3.46811e-06
7.3625e-08
3.45485e-06
7.65612e-08
3.43926e-06
7.33941e-08
3.4214e-06
6.77948e-08
3.40212e-06
6.20133e-08
3.38241e-06
5.66017e-08
3.36289e-06
5.16669e-08
3.34387e-06
4.72102e-08
3.32554e-06
4.32364e-08
3.308e-06
3.97159e-08
3.29125e-06
3.67122e-08
3.27539e-06
3.39898e-08
3.2603e-06
3.26259e-08
3.24674e-06
3.0327e-08
3.38503e-08
3.23692e-06
3.80492e-06
-1.53618e-08
3.81694e-06
5.2193e-08
3.8221e-06
6.27438e-08
3.82651e-06
6.92173e-08
3.82879e-06
7.42806e-08
3.8282e-06
7.39784e-08
3.82517e-06
7.08296e-08
3.82026e-06
6.69218e-08
3.81399e-06
6.28731e-08
3.80679e-06
5.88649e-08
3.79898e-06
5.50206e-08
3.79079e-06
5.14255e-08
3.78239e-06
4.8114e-08
3.77392e-06
4.51905e-08
3.76538e-06
4.25289e-08
3.75722e-06
4.07891e-08
3.7488e-06
3.87473e-08
3.93595e-08
3.74329e-06
4.1941e-06
-4.90167e-09
4.2044e-06
4.1886e-08
4.21085e-06
5.62946e-08
4.2167e-06
6.3365e-08
4.2217e-06
6.92775e-08
4.22498e-06
7.06989e-08
4.22676e-06
6.90537e-08
4.22736e-06
6.63219e-08
4.22699e-06
6.32434e-08
4.22583e-06
6.00263e-08
4.22404e-06
5.68083e-08
4.22176e-06
5.37033e-08
4.21911e-06
5.07708e-08
4.21618e-06
4.81152e-08
4.21302e-06
4.56899e-08
4.20998e-06
4.38362e-08
4.20671e-06
4.202e-08
4.12036e-08
4.20486e-06
4.63154e-06
8.69903e-10
4.6381e-06
3.53283e-08
4.64319e-06
5.12017e-08
4.6481e-06
5.84537e-08
4.65322e-06
6.41606e-08
4.65758e-06
6.63302e-08
4.66103e-06
6.5609e-08
4.66369e-06
6.36625e-08
4.66567e-06
6.12577e-08
4.66708e-06
5.86235e-08
4.66799e-06
5.58973e-08
4.66849e-06
5.32023e-08
4.66865e-06
5.061e-08
4.66856e-06
4.82082e-08
4.66826e-06
4.59916e-08
4.66798e-06
4.41177e-08
4.66765e-06
4.23475e-08
4.09059e-08
4.66795e-06
5.11171e-06
3.75916e-09
5.11603e-06
3.10121e-08
5.12056e-06
4.66645e-08
5.1251e-06
5.39213e-08
5.13007e-06
5.91874e-08
5.13473e-06
6.1669e-08
5.13876e-06
6.15781e-08
5.14222e-06
6.02054e-08
5.14518e-06
5.82913e-08
5.14772e-06
5.6089e-08
5.14988e-06
5.37393e-08
5.15171e-06
5.13652e-08
5.15328e-06
4.90452e-08
5.15464e-06
4.68487e-08
5.15585e-06
4.47872e-08
5.15704e-06
4.29211e-08
5.15826e-06
4.11314e-08
3.94081e-08
5.15976e-06
5.63941e-06
5.35839e-09
5.64289e-06
2.75353e-08
5.64738e-06
4.21748e-08
5.65185e-06
4.94502e-08
5.65668e-06
5.4355e-08
5.6614e-06
5.69482e-08
5.66568e-06
5.72966e-08
5.66953e-06
5.63643e-08
5.67299e-06
5.48311e-08
5.67611e-06
5.2967e-08
5.67893e-06
5.09175e-08
5.68149e-06
4.88012e-08
5.68384e-06
4.66988e-08
5.68602e-06
4.46661e-08
5.68809e-06
4.27191e-08
5.69014e-06
4.08732e-08
5.69221e-06
3.90605e-08
3.7219e-08
5.6944e-06
4.40552e-06
5.95335e-09
4.4077e-06
2.53598e-08
4.41092e-06
3.89497e-08
4.4142e-06
4.61721e-08
4.41763e-06
5.09208e-08
4.42106e-06
5.35266e-08
4.42425e-06
5.40984e-08
4.42718e-06
5.34339e-08
4.42988e-06
5.21399e-08
4.43236e-06
5.04861e-08
4.43465e-06
4.8624e-08
4.43678e-06
4.667e-08
4.43878e-06
4.47032e-08
4.44067e-06
4.27731e-08
4.4425e-06
4.08958e-08
4.4443e-06
3.90736e-08
4.4461e-06
3.72574e-08
3.53893e-08
4.44793e-06
5.13956e-06
6.25006e-09
5.14185e-06
2.30704e-08
5.14528e-06
3.55265e-08
5.14884e-06
4.26036e-08
5.15259e-06
4.71733e-08
5.15635e-06
4.9764e-08
5.15993e-06
5.05272e-08
5.16325e-06
5.01102e-08
5.16634e-06
4.90462e-08
5.16923e-06
4.75991e-08
5.17193e-06
4.59223e-08
5.17447e-06
4.4129e-08
5.17688e-06
4.22962e-08
5.17919e-06
4.0469e-08
5.18142e-06
3.86635e-08
5.18362e-06
3.68773e-08
5.1858e-06
3.5077e-08
3.32191e-08
5.18797e-06
5.99581e-06
6.23078e-09
5.99819e-06
2.06975e-08
6.00179e-06
3.19266e-08
6.00566e-06
3.87332e-08
6.00975e-06
4.30851e-08
6.01388e-06
4.56273e-08
6.01786e-06
4.65479e-08
6.02162e-06
4.63565e-08
6.02515e-06
4.55128e-08
6.02848e-06
4.42701e-08
6.03162e-06
4.2779e-08
6.0346e-06
4.11484e-08
6.03745e-06
3.94524e-08
6.04018e-06
3.77332e-08
6.04284e-06
3.60088e-08
6.04544e-06
3.42776e-08
6.048e-06
3.25198e-08
3.07115e-08
6.05051e-06
6.99459e-06
5.91192e-09
6.99701e-06
1.82717e-08
7.00076e-06
2.81769e-08
7.00493e-06
3.45619e-08
7.00937e-06
3.86493e-08
7.0139e-06
4.10957e-08
7.01832e-06
4.21263e-08
7.02255e-06
4.21317e-08
7.02657e-06
4.14953e-08
7.03038e-06
4.0453e-08
7.03401e-06
3.91492e-08
7.03748e-06
3.76863e-08
7.04079e-06
3.61343e-08
7.04399e-06
3.45353e-08
7.04709e-06
3.29089e-08
7.05011e-06
3.12587e-08
7.05305e-06
2.95772e-08
2.78567e-08
7.05591e-06
8.15958e-06
5.3489e-09
8.16205e-06
1.57964e-08
8.16592e-06
2.43146e-08
8.17036e-06
3.01153e-08
8.17514e-06
3.38742e-08
8.18007e-06
3.61664e-08
8.18495e-06
3.72432e-08
8.18968e-06
3.7403e-08
8.19422e-06
3.69516e-08
8.19858e-06
3.61005e-08
8.20274e-06
3.49833e-08
8.20673e-06
3.36939e-08
8.21057e-06
3.22982e-08
8.21427e-06
3.08369e-08
8.21785e-06
2.93329e-08
8.22131e-06
2.77958e-08
8.22466e-06
2.62273e-08
2.46342e-08
8.22788e-06
9.51847e-06
4.60964e-09
9.521e-06
1.32668e-08
9.52494e-06
2.03734e-08
9.52962e-06
2.54326e-08
9.53472e-06
2.87774e-08
9.54004e-06
3.08485e-08
9.54538e-06
3.18972e-08
9.55063e-06
3.21537e-08
9.55573e-06
3.1854e-08
9.56065e-06
3.1176e-08
9.5654e-06
3.02397e-08
9.56996e-06
2.91284e-08
9.57436e-06
2.79019e-08
9.5786e-06
2.65998e-08
9.58268e-06
2.52468e-08
9.58662e-06
2.38577e-08
9.59041e-06
2.24411e-08
2.10122e-08
9.59403e-06
1.11036e-05
3.75682e-09
1.11061e-05
1.06786e-08
1.11102e-05
1.63683e-08
1.1115e-05
2.05497e-08
1.11204e-05
2.33767e-08
1.11261e-05
2.51513e-08
1.11319e-05
2.6092e-08
1.11377e-05
2.63794e-08
1.11434e-05
2.6187e-08
1.11489e-05
2.56572e-08
1.11542e-05
2.48907e-08
1.11594e-05
2.39591e-08
1.11644e-05
2.29143e-08
1.11692e-05
2.1793e-08
1.11738e-05
2.06204e-08
1.11783e-05
1.94136e-08
1.11825e-05
1.81856e-08
1.69548e-08
1.11866e-05
1.29525e-05
2.83604e-09
1.29552e-05
8.02575e-09
1.29593e-05
1.22872e-08
1.29644e-05
1.54786e-08
1.29701e-05
1.76758e-08
1.29761e-05
1.90675e-08
1.29824e-05
1.982e-08
1.29887e-05
2.00681e-08
1.2995e-05
1.99346e-08
1.30011e-05
1.95235e-08
1.30071e-05
1.89134e-08
1.30129e-05
1.81615e-08
1.30185e-05
1.73102e-08
1.30239e-05
1.63906e-08
1.30291e-05
1.5426e-08
1.30341e-05
1.44335e-08
1.30388e-05
1.34267e-08
1.24244e-08
1.30434e-05
1.51094e-05
1.86948e-09
1.51122e-05
5.2907e-09
1.51164e-05
8.08634e-09
1.51216e-05
1.01875e-08
1.51277e-05
1.16399e-08
1.51342e-05
1.25543e-08
1.5141e-05
1.30378e-08
1.51479e-05
1.31788e-08
1.51547e-05
1.30552e-08
1.51615e-05
1.27341e-08
1.51682e-05
1.22683e-08
1.51746e-05
1.16975e-08
1.51809e-05
1.10522e-08
1.51869e-05
1.03556e-08
1.51927e-05
9.6258e-09
1.51983e-05
8.87726e-09
1.52036e-05
8.12149e-09
7.37475e-09
1.52087e-05
1.76255e-05
8.57739e-10
1.76283e-05
2.43094e-09
1.76327e-05
3.67809e-09
1.76383e-05
4.57379e-09
1.76448e-05
5.1605e-09
1.76519e-05
5.49785e-09
1.76593e-05
5.63342e-09
1.76669e-05
5.60643e-09
1.76745e-05
5.45153e-09
1.7682e-05
5.19884e-09
1.76894e-05
4.872e-09
1.76966e-05
4.48996e-09
1.77036e-05
4.06792e-09
1.77103e-05
3.61846e-09
1.77168e-05
3.15201e-09
1.7723e-05
2.6774e-09
1.77289e-05
2.20212e-09
1.73791e-09
1.77346e-05
1.78271e-05
-8.16612e-11
1.78298e-05
-2.40802e-10
1.7834e-05
-4.862e-10
1.78393e-05
-7.88649e-10
1.78456e-05
-1.0769e-09
1.78524e-05
-1.32976e-09
1.78596e-05
-1.55724e-09
1.7867e-05
-1.76823e-09
1.78744e-05
-1.96719e-09
1.78817e-05
-2.16098e-09
1.7889e-05
-2.35506e-09
1.7896e-05
-2.55254e-09
1.79028e-05
-2.75389e-09
1.79094e-05
-2.95828e-09
1.79157e-05
-3.16414e-09
1.79218e-05
-3.36875e-09
1.79275e-05
-3.56988e-09
-3.75988e-09
1.7933e-05
1.58821e-05
-8.62495e-10
1.58844e-05
-2.50174e-09
1.5888e-05
-4.10931e-09
1.58927e-05
-5.52175e-09
1.58983e-05
-6.59964e-09
1.59043e-05
-7.3743e-09
1.59107e-05
-7.91967e-09
1.59172e-05
-8.28257e-09
1.59237e-05
-8.50513e-09
1.59302e-05
-8.63026e-09
1.59365e-05
-8.69234e-09
1.59427e-05
-8.71387e-09
1.59486e-05
-8.70969e-09
1.59544e-05
-8.68979e-09
1.59599e-05
-8.66007e-09
1.59651e-05
-8.624e-09
1.59701e-05
-8.58265e-09
-8.53322e-09
1.59749e-05
1.41493e-05
-1.47598e-09
1.41512e-05
-4.40875e-09
1.41544e-05
-7.37086e-09
1.41588e-05
-9.86473e-09
1.41638e-05
-1.16554e-08
1.41694e-05
-1.28874e-08
1.41751e-05
-1.36996e-08
1.4181e-05
-1.41675e-08
1.41869e-05
-1.43749e-08
1.41927e-05
-1.4407e-08
1.41983e-05
-1.43247e-08
1.42038e-05
-1.41678e-08
1.4209e-05
-1.39638e-08
1.42141e-05
-1.37317e-08
1.42189e-05
-1.34842e-08
1.42235e-05
-1.32288e-08
1.42279e-05
-1.29699e-08
-1.27071e-08
1.4232e-05
1.26054e-05
-1.82759e-09
1.26069e-05
-5.9435e-09
1.26099e-05
-1.03917e-08
1.2614e-05
-1.3951e-08
1.26187e-05
-1.63729e-08
1.26239e-05
-1.80118e-08
1.26292e-05
-1.90403e-08
1.26346e-05
-1.95541e-08
1.26399e-05
-1.96993e-08
1.26451e-05
-1.96089e-08
1.26502e-05
-1.93667e-08
1.2655e-05
-1.9026e-08
1.26597e-05
-1.86251e-08
1.26641e-05
-1.81909e-08
1.26684e-05
-1.77405e-08
1.26724e-05
-1.72841e-08
1.26763e-05
-1.68284e-08
-1.63744e-08
1.268e-05
1.12297e-05
-1.68146e-09
1.12307e-05
-7.04223e-09
1.12336e-05
-1.32874e-08
1.12375e-05
-1.78392e-08
1.1242e-05
-2.08013e-08
1.12468e-05
-2.28257e-08
1.12518e-05
-2.40243e-08
1.12567e-05
-2.45226e-08
1.12616e-05
-2.45622e-08
1.12663e-05
-2.4325e-08
1.12708e-05
-2.39103e-08
1.12752e-05
-2.3382e-08
1.12794e-05
-2.27878e-08
1.12833e-05
-2.21604e-08
1.12871e-05
-2.15194e-08
1.12907e-05
-2.08771e-08
1.12941e-05
-2.02403e-08
-1.96121e-08
1.12974e-05
1.00036e-05
-6.6518e-10
1.00042e-05
-7.60017e-09
1.0007e-05
-1.61437e-08
1.00107e-05
-2.15356e-08
1.00149e-05
-2.49898e-08
1.00195e-05
-2.74141e-08
1.00242e-05
-2.87348e-08
1.00288e-05
-2.91625e-08
1.00333e-05
-2.90641e-08
1.00377e-05
-2.86605e-08
1.00418e-05
-2.80594e-08
1.00458e-05
-2.73353e-08
1.00495e-05
-2.65448e-08
1.00531e-05
-2.57247e-08
1.00565e-05
-2.48967e-08
1.00597e-05
-2.40736e-08
1.00627e-05
-2.32632e-08
-2.24679e-08
1.00655e-05
8.91078e-06
1.64672e-09
8.91073e-06
-7.55239e-09
8.91345e-06
-1.88641e-08
8.91691e-06
-2.49928e-08
8.92102e-06
-2.91065e-08
8.92559e-06
-3.19834e-08
8.9302e-06
-3.33458e-08
8.93467e-06
-3.36265e-08
8.93894e-06
-3.33398e-08
8.94301e-06
-3.27286e-08
8.94686e-06
-3.19052e-08
8.95048e-06
-3.09559e-08
8.95388e-06
-2.99463e-08
8.95707e-06
-2.8916e-08
8.96006e-06
-2.7888e-08
8.96287e-06
-2.68753e-08
8.96549e-06
-2.58853e-08
-2.49197e-08
8.96794e-06
7.93598e-06
6.33699e-09
7.93587e-06
-7.4478e-09
7.93841e-06
-2.14044e-08
7.94173e-06
-2.83106e-08
7.94612e-06
-3.34969e-08
7.95098e-06
-3.68482e-08
7.95573e-06
-3.8088e-08
7.96018e-06
-3.80764e-08
7.96432e-06
-3.74867e-08
7.96816e-06
-3.65693e-08
7.9717e-06
-3.54409e-08
7.97494e-06
-3.41999e-08
7.97792e-06
-3.29179e-08
7.98064e-06
-3.16356e-08
7.98312e-06
-3.03757e-08
7.9854e-06
-2.91503e-08
7.98748e-06
-2.79659e-08
-2.68215e-08
7.98938e-06
7.06384e-06
1.68284e-08
7.06584e-06
-9.44721e-09
7.06928e-06
-2.48443e-08
7.07326e-06
-3.22939e-08
7.07842e-06
-3.86516e-08
7.08376e-06
-4.21848e-08
7.08866e-06
-4.29907e-08
7.09304e-06
-4.24611e-08
7.09693e-06
-4.13767e-08
7.10035e-06
-3.99823e-08
7.10331e-06
-3.84079e-08
7.10588e-06
-3.67632e-08
7.10808e-06
-3.5123e-08
7.10997e-06
-3.35237e-08
7.11158e-06
-3.19867e-08
7.11295e-06
-3.0519e-08
7.11411e-06
-2.9125e-08
-2.77911e-08
7.11508e-06
6.28205e-06
3.72877e-08
6.28862e-06
-1.60114e-08
6.29493e-06
-3.11538e-08
6.30131e-06
-3.86701e-08
6.30801e-06
-4.53478e-08
6.31383e-06
-4.80096e-08
6.31852e-06
-4.76764e-08
6.32224e-06
-4.61804e-08
6.32512e-06
-4.42648e-08
6.32727e-06
-4.21292e-08
6.32877e-06
-3.9911e-08
6.32973e-06
-3.77231e-08
6.33024e-06
-3.5632e-08
6.33038e-06
-3.36614e-08
6.33022e-06
-3.18237e-08
6.32981e-06
-3.0115e-08
6.32922e-06
-2.85344e-08
-2.70593e-08
6.32849e-06
5.59336e-06
5.88316e-08
5.6017e-06
-2.43414e-08
5.6088e-06
-3.8261e-08
5.61727e-06
-4.71363e-08
5.62528e-06
-5.33577e-08
5.63094e-06
-5.36705e-08
5.63412e-06
-5.08528e-08
5.63529e-06
-4.73494e-08
5.63492e-06
-4.38916e-08
5.63338e-06
-4.05932e-08
5.63099e-06
-3.75225e-08
5.62799e-06
-3.47265e-08
5.62457e-06
-3.22126e-08
5.62087e-06
-2.99578e-08
5.61699e-06
-2.79426e-08
5.61302e-06
-2.61485e-08
5.60904e-06
-2.45564e-08
-2.30451e-08
5.60503e-06
5.03342e-06
2.77196e-08
5.03159e-06
-2.25023e-08
5.02637e-06
-3.30345e-08
5.02522e-06
-4.59864e-08
5.02423e-06
-5.23687e-08
5.02049e-06
-4.99334e-08
5.01355e-06
-4.39089e-08
5.00413e-06
-3.79334e-08
4.99319e-06
-3.29481e-08
4.98149e-06
-2.88923e-08
4.96956e-06
-2.55893e-08
4.95772e-06
-2.28895e-08
4.94617e-06
-2.06619e-08
4.93501e-06
-1.88003e-08
4.9243e-06
-1.72309e-08
4.91409e-06
-1.59384e-08
4.9045e-06
-1.49657e-08
-1.47979e-08
4.89625e-06
4.48427e-06
4.46177e-06
4.42873e-06
4.38275e-06
4.33038e-06
4.28044e-06
4.23654e-06
4.1986e-06
4.16565e-06
4.13676e-06
4.11117e-06
4.08828e-06
4.06762e-06
4.04882e-06
4.03159e-06
4.01565e-06
4.00069e-06
3.98589e-06
1.07344e-08
-1.06644e-08
2.43567e-08
-1.3544e-08
3.47043e-08
-1.0243e-08
4.01256e-08
-5.3533e-09
4.04361e-08
-2.11875e-10
3.60597e-08
4.45657e-09
2.78909e-08
8.26138e-09
1.68205e-08
1.11699e-08
3.56615e-09
1.33289e-08
-1.13115e-08
1.49941e-08
-2.7637e-08
1.63608e-08
-4.50433e-08
1.75379e-08
-6.36185e-08
1.86016e-08
-8.30755e-08
1.96112e-08
-1.03646e-07
2.05789e-08
-1.24991e-07
2.15249e-08
-1.47422e-07
2.24365e-08
-1.70559e-07
2.33295e-08
-1.94752e-07
2.41888e-08
-2.196e-07
2.50242e-08
-2.45485e-07
2.58179e-08
-2.71954e-07
2.65806e-08
-2.9935e-07
2.72912e-08
-3.27312e-07
2.79546e-08
-3.56029e-07
2.85654e-08
-3.85308e-07
2.91438e-08
-4.15163e-07
2.97184e-08
-4.4573e-07
3.03713e-08
-4.76981e-07
3.11936e-08
-5.09462e-07
3.23225e-08
-5.43312e-07
3.38704e-08
-5.774e-07
3.40485e-08
-6.09667e-07
3.23341e-08
-6.42679e-07
3.3123e-08
-6.79525e-07
3.69056e-08
-7.19077e-07
3.97325e-08
-7.60912e-07
4.1827e-08
-8.05707e-07
4.4866e-08
-8.59117e-07
5.33367e-08
-9.10002e-07
5.07811e-08
-9.50433e-07
4.03423e-08
-9.92584e-07
4.20361e-08
-1.03608e-06
4.34403e-08
-1.08142e-06
4.52711e-08
-1.12752e-06
4.60552e-08
-1.1734e-06
4.58394e-08
-1.2193e-06
4.58628e-08
-1.26515e-06
4.58264e-08
-1.31089e-06
4.57097e-08
-1.35644e-06
4.55226e-08
-1.40174e-06
4.5289e-08
-1.44679e-06
4.50196e-08
-1.49153e-06
4.47258e-08
-1.53596e-06
4.44114e-08
-1.58005e-06
4.4081e-08
-1.6238e-06
4.37348e-08
-1.66719e-06
4.3374e-08
-1.7102e-06
4.29969e-08
-1.75281e-06
4.26029e-08
-1.79501e-06
4.21895e-08
-1.83677e-06
4.17553e-08
-1.87808e-06
4.12974e-08
-1.9189e-06
4.08143e-08
-1.95921e-06
4.03029e-08
-1.99898e-06
3.9762e-08
-2.03817e-06
3.91885e-08
-2.07676e-06
3.85815e-08
-2.1147e-06
3.79382e-08
-2.15196e-06
3.72579e-08
-2.18851e-06
3.65383e-08
-2.22429e-06
3.5779e-08
-2.25927e-06
3.49782e-08
-2.29341e-06
3.41356e-08
-2.32667e-06
3.325e-08
-2.35899e-06
3.23215e-08
-2.39034e-06
3.1349e-08
-2.42068e-06
3.03332e-08
-2.44995e-06
2.92733e-08
-2.47813e-06
2.81701e-08
-2.50515e-06
2.70231e-08
-2.53099e-06
2.58333e-08
-2.55559e-06
2.46005e-08
-2.57892e-06
2.33258e-08
-2.60093e-06
2.20087e-08
-2.62158e-06
2.06501e-08
-2.64083e-06
1.92496e-08
-2.65864e-06
1.78072e-08
-2.67496e-06
1.63214e-08
-2.68975e-06
1.47906e-08
-2.70296e-06
1.32115e-08
-2.71454e-06
1.15783e-08
-2.72442e-06
9.88434e-09
-2.73255e-06
8.12093e-09
-2.73882e-06
6.27604e-09
-2.74316e-06
4.33232e-09
-2.74544e-06
2.28294e-09
-2.74565e-06
2.00841e-10
-2.74394e-06
-1.70456e-09
-2.74054e-06
-3.40526e-09
-2.7355e-06
-5.04742e-09
-2.72882e-06
-6.67383e-09
-2.72052e-06
-8.30103e-09
-2.71059e-06
-9.93197e-09
-2.69902e-06
-1.1567e-08
-2.68582e-06
-1.32044e-08
-2.67097e-06
-1.48427e-08
-2.65449e-06
-1.64795e-08
-2.63638e-06
-1.81129e-08
-2.61664e-06
-1.97407e-08
-2.59527e-06
-2.13608e-08
-2.5723e-06
-2.29709e-08
-2.54773e-06
-2.45689e-08
-2.52157e-06
-2.61527e-08
-2.49385e-06
-2.77202e-08
-2.46458e-06
-2.92692e-08
-2.43378e-06
-3.07975e-08
-2.40147e-06
-3.23032e-08
-2.36769e-06
-3.3784e-08
-2.33245e-06
-3.52381e-08
-2.29578e-06
-3.6663e-08
-2.25773e-06
-3.80571e-08
-2.21831e-06
-3.9418e-08
-2.17756e-06
-4.0744e-08
-2.13553e-06
-4.20332e-08
-2.09224e-06
-4.32842e-08
-2.04775e-06
-4.44957e-08
-2.00208e-06
-4.56671e-08
-1.95528e-06
-4.67969e-08
-1.9074e-06
-4.78854e-08
-1.85847e-06
-4.89306e-08
-1.80854e-06
-4.99277e-08
-1.75767e-06
-5.08735e-08
-1.7059e-06
-5.17728e-08
-1.65327e-06
-5.263e-08
-1.59983e-06
-5.34381e-08
-1.54563e-06
-5.41936e-08
-1.49074e-06
-5.48974e-08
-1.43519e-06
-5.55499e-08
-1.37904e-06
-5.61511e-08
-1.32234e-06
-5.67009e-08
-1.26514e-06
-5.71997e-08
-1.20749e-06
-5.7648e-08
-1.14944e-06
-5.80465e-08
-1.09105e-06
-5.83955e-08
-1.03235e-06
-5.8696e-08
-9.73403e-07
-5.89487e-08
-9.14252e-07
-5.9155e-08
-8.54941e-07
-5.93158e-08
-7.95514e-07
-5.94324e-08
-7.36014e-07
-5.9506e-08
-6.76481e-07
-5.95384e-08
-6.16957e-07
-5.95311e-08
-5.57477e-07
-5.94863e-08
-4.98078e-07
-5.94057e-08
-4.38794e-07
-5.92913e-08
-3.79657e-07
-5.91449e-08
-3.20697e-07
-5.89671e-08
-2.61945e-07
-5.87593e-08
-2.03431e-07
-5.85223e-08
-1.45181e-07
-5.82575e-08
-8.72221e-08
-5.79665e-08
-2.96252e-08
-5.76047e-08
2.75669e-08
-5.72e-08
8.43764e-08
-5.68171e-08
1.40773e-07
-5.64041e-08
1.9673e-07
-5.59635e-08
2.52275e-07
-5.55515e-08
3.07431e-07
-5.51627e-08
3.62212e-07
-5.4787e-08
4.16618e-07
-5.44116e-08
4.70632e-07
-5.40193e-08
5.24212e-07
-5.35845e-08
5.77272e-07
-5.30642e-08
6.2965e-07
-5.23821e-08
6.8104e-07
-5.13933e-08
7.30833e-07
-4.97965e-08
7.77722e-07
-4.68915e-08
8.18561e-07
-4.08419e-08
8.45242e-07
-2.66828e-08
1.80926e-08
8.27146e-07
9.41511e-09
-2.00146e-08
1.33676e-08
-1.74291e-08
1.25197e-08
-9.33327e-09
8.3726e-09
-1.16464e-09
1.67256e-09
6.53831e-09
-7.35444e-09
1.35268e-08
-1.86688e-08
1.96213e-08
-3.22065e-08
2.47548e-08
-4.78376e-08
2.89974e-08
-6.53043e-08
3.25121e-08
-8.44088e-08
3.54911e-08
-1.04921e-07
3.81041e-08
-1.2678e-07
4.04812e-08
-1.4981e-07
4.27092e-08
-1.74055e-07
4.48412e-08
-1.99363e-07
4.69095e-08
-2.25841e-07
4.89321e-08
-2.5334e-07
5.09216e-08
-2.82025e-07
5.28853e-08
-3.11747e-07
5.4833e-08
-3.42709e-07
5.677e-08
-3.7478e-07
5.87091e-08
-4.08183e-07
6.06537e-08
-4.42859e-07
6.26219e-08
-4.78995e-07
6.46224e-08
-5.16639e-07
6.66928e-08
-5.55876e-07
6.88646e-08
-5.96804e-07
7.11654e-08
-6.39243e-07
7.35823e-08
-6.83025e-07
7.60143e-08
-7.27415e-07
7.82789e-08
-7.73241e-07
7.99037e-08
-8.22033e-07
8.11922e-08
-8.71776e-07
8.29932e-08
-9.20062e-07
8.52366e-08
-9.67701e-07
8.74642e-08
-1.01543e-06
8.95322e-08
-1.06237e-06
9.17832e-08
-1.10303e-06
9.39326e-08
-1.14523e-06
9.29049e-08
-1.19458e-06
8.96503e-08
-1.24127e-06
8.86805e-08
-1.28638e-06
8.8529e-08
-1.32983e-06
8.86849e-08
-1.37233e-06
8.85362e-08
-1.41452e-06
8.80054e-08
-1.45609e-06
8.7418e-08
-1.4971e-06
8.68139e-08
-1.53759e-06
8.6182e-08
-1.5776e-06
8.55204e-08
-1.61715e-06
8.48319e-08
-1.65627e-06
8.412e-08
-1.69494e-06
8.33875e-08
-1.73317e-06
8.26349e-08
-1.77096e-06
8.18618e-08
-1.8083e-06
8.10662e-08
-1.84518e-06
8.02456e-08
-1.88159e-06
7.93963e-08
-1.91751e-06
7.85146e-08
-1.95292e-06
7.75961e-08
-1.98781e-06
7.6637e-08
-2.02215e-06
7.56327e-08
-2.05592e-06
7.45794e-08
-2.08909e-06
7.34728e-08
-2.12165e-06
7.23095e-08
-2.15355e-06
7.10858e-08
-2.18477e-06
6.97986e-08
-2.21528e-06
6.84449e-08
-2.24505e-06
6.70224e-08
-2.27404e-06
6.55284e-08
-2.30222e-06
6.39614e-08
-2.32957e-06
6.23195e-08
-2.35604e-06
6.06016e-08
-2.38159e-06
5.88067e-08
-2.40621e-06
5.69342e-08
-2.42985e-06
5.49836e-08
-2.45247e-06
5.2955e-08
-2.47405e-06
5.08483e-08
-2.49454e-06
4.86641e-08
-2.51392e-06
4.64029e-08
-2.53216e-06
4.40655e-08
-2.54921e-06
4.16527e-08
-2.56505e-06
3.91657e-08
-2.57965e-06
3.66053e-08
-2.59297e-06
3.39729e-08
-2.60499e-06
3.12691e-08
-2.61568e-06
2.84951e-08
-2.62501e-06
2.56515e-08
-2.63296e-06
2.27391e-08
-2.63951e-06
1.97581e-08
-2.64464e-06
1.67093e-08
-2.64835e-06
1.35944e-08
-2.65065e-06
1.04171e-08
-2.65156e-06
7.1848e-09
-2.65114e-06
3.91358e-09
-2.6495e-06
6.42016e-10
-2.64672e-06
-2.57745e-09
-2.64268e-06
-5.75473e-09
-2.63715e-06
-8.93626e-09
-2.63006e-06
-1.21306e-08
-2.6214e-06
-1.53368e-08
-2.61115e-06
-1.85563e-08
-2.59929e-06
-2.17874e-08
-2.58583e-06
-2.50276e-08
-2.57076e-06
-2.82731e-08
-2.55408e-06
-3.15201e-08
-2.5358e-06
-3.47644e-08
-2.51591e-06
-3.80017e-08
-2.49442e-06
-4.12279e-08
-2.47134e-06
-4.44386e-08
-2.44668e-06
-4.76296e-08
-2.42045e-06
-5.07964e-08
-2.39267e-06
-5.3935e-08
-2.36335e-06
-5.7041e-08
-2.3325e-06
-6.01102e-08
-2.30016e-06
-6.31384e-08
-2.26634e-06
-6.61216e-08
-2.23107e-06
-6.90555e-08
-2.19437e-06
-7.19361e-08
-2.15627e-06
-7.47592e-08
-2.11681e-06
-7.7521e-08
-2.07601e-06
-8.02172e-08
-2.03391e-06
-8.28441e-08
-1.99054e-06
-8.5398e-08
-1.94595e-06
-8.78758e-08
-1.90017e-06
-9.02746e-08
-1.85324e-06
-9.25928e-08
-1.80521e-06
-9.48287e-08
-1.75612e-06
-9.69816e-08
-1.706e-06
-9.90476e-08
-1.65491e-06
-1.01019e-07
-1.60289e-06
-1.02891e-07
-1.54999e-06
-1.04671e-07
-1.49626e-06
-1.06362e-07
-1.44174e-06
-1.07956e-07
-1.38649e-06
-1.09447e-07
-1.33055e-06
-1.10835e-07
-1.27398e-06
-1.12122e-07
-1.21683e-06
-1.13306e-07
-1.15914e-06
-1.14387e-07
-1.10097e-06
-1.15368e-07
-1.04237e-06
-1.16247e-07
-9.83392e-07
-1.17027e-07
-9.24078e-07
-1.17709e-07
-8.64481e-07
-1.18294e-07
-8.04648e-07
-1.18783e-07
-7.44625e-07
-1.1918e-07
-6.84457e-07
-1.19486e-07
-6.24188e-07
-1.19704e-07
-5.6386e-07
-1.19837e-07
-5.03514e-07
-1.19888e-07
-4.43189e-07
-1.1986e-07
-3.82921e-07
-1.19757e-07
-3.22747e-07
-1.19583e-07
-2.62699e-07
-1.19342e-07
-2.02809e-07
-1.19038e-07
-1.43107e-07
-1.18673e-07
-8.36192e-08
-1.1825e-07
-2.43746e-08
-1.1777e-07
3.46037e-08
-1.17239e-07
9.32984e-08
-1.16665e-07
1.51722e-07
-1.16031e-07
2.09855e-07
-1.15336e-07
2.67616e-07
-1.14582e-07
3.24993e-07
-1.13784e-07
3.82012e-07
-1.12986e-07
4.38679e-07
-1.12221e-07
4.95e-07
-1.11486e-07
5.50976e-07
-1.10766e-07
6.06602e-07
-1.1004e-07
6.61856e-07
-1.09275e-07
7.1669e-07
-1.08422e-07
7.71018e-07
-1.07393e-07
8.24675e-07
-1.06042e-07
8.77367e-07
-1.04086e-07
9.28558e-07
-1.00989e-07
9.77187e-07
-9.55223e-08
1.02158e-06
-8.52367e-08
1.05835e-06
-6.34559e-08
-1.15775e-08
1.08802e-06
1.1404e-09
-2.11069e-08
-4.00306e-09
-1.22378e-08
-1.19825e-08
-1.31525e-09
-2.17761e-08
8.65467e-09
-3.29963e-08
1.77863e-08
-4.55585e-08
2.61141e-08
-5.95194e-08
3.36062e-08
-7.49764e-08
4.0239e-08
-9.20096e-08
4.60503e-08
-1.10607e-07
5.11382e-08
-1.30745e-07
5.56413e-08
-1.52311e-07
5.97016e-08
-1.75269e-07
6.34454e-08
-1.99494e-07
6.69703e-08
-2.24997e-07
7.03474e-08
-2.5167e-07
7.36252e-08
-2.79574e-07
7.68372e-08
-3.08609e-07
8.00082e-08
-3.38879e-07
8.31555e-08
-3.70291e-07
8.62978e-08
-4.02974e-07
8.94486e-08
-4.36859e-07
9.26277e-08
-4.72069e-07
9.58467e-08
-5.08581e-07
9.91237e-08
-5.46457e-07
1.02462e-07
-5.85686e-07
1.05858e-07
-6.2615e-07
1.09283e-07
-6.6773e-07
1.12675e-07
-7.1011e-07
1.15935e-07
-7.53028e-07
1.18916e-07
-7.96212e-07
1.21478e-07
-8.39737e-07
1.23483e-07
-8.8353e-07
1.25029e-07
-9.26968e-07
1.26498e-07
-9.6949e-07
1.27788e-07
-1.01101e-06
1.28982e-07
-1.05147e-06
1.29973e-07
-1.09047e-06
1.30739e-07
-1.1276e-06
1.31017e-07
-1.16501e-06
1.30286e-07
-1.20416e-06
1.28778e-07
-1.24304e-06
1.27547e-07
-1.28121e-06
1.2669e-07
-1.31857e-06
1.26027e-07
-1.3553e-06
1.25259e-07
-1.39168e-06
1.24368e-07
-1.42771e-06
1.23437e-07
-1.4634e-06
1.22489e-07
-1.49875e-06
1.21525e-07
-1.53378e-06
1.20545e-07
-1.56851e-06
1.19548e-07
-1.60293e-06
1.18532e-07
-1.63704e-06
1.17495e-07
-1.67085e-06
1.16434e-07
-1.70434e-06
1.15343e-07
-1.7375e-06
1.14219e-07
-1.77032e-06
1.13057e-07
-1.80277e-06
1.1185e-07
-1.83486e-06
1.10592e-07
-1.86654e-06
1.09278e-07
-1.89781e-06
1.07901e-07
-1.92864e-06
1.06456e-07
-1.959e-06
1.04936e-07
-1.98886e-06
1.03337e-07
-2.01821e-06
1.01654e-07
-2.04701e-06
9.98811e-08
-2.07523e-06
9.80147e-08
-2.10284e-06
9.60506e-08
-2.1298e-06
9.39856e-08
-2.15609e-06
9.18163e-08
-2.18167e-06
8.95405e-08
-2.20651e-06
8.71558e-08
-2.23057e-06
8.46605e-08
-2.25382e-06
8.20535e-08
-2.27622e-06
7.93338e-08
-2.29774e-06
7.6501e-08
-2.31834e-06
7.35551e-08
-2.33799e-06
7.04964e-08
-2.35665e-06
6.73255e-08
-2.3743e-06
6.40435e-08
-2.39088e-06
6.06516e-08
-2.40638e-06
5.71514e-08
-2.42076e-06
5.35448e-08
-2.43399e-06
4.98338e-08
-2.44604e-06
4.60206e-08
-2.45688e-06
4.21079e-08
-2.46648e-06
3.80984e-08
-2.47483e-06
3.39951e-08
-2.48189e-06
2.98015e-08
-2.48765e-06
2.55218e-08
-2.4921e-06
2.11611e-08
-2.49524e-06
1.67264e-08
-2.49705e-06
1.22273e-08
-2.49754e-06
7.67612e-09
-2.49672e-06
3.09038e-09
-2.49457e-06
-1.5075e-09
-2.49104e-06
-6.10627e-09
-2.48607e-06
-1.0726e-08
-2.47962e-06
-1.53876e-08
-2.47167e-06
-2.00875e-08
-2.46219e-06
-2.48191e-08
-2.45117e-06
-2.95767e-08
-2.4386e-06
-3.43549e-08
-2.42448e-06
-3.91478e-08
-2.4088e-06
-4.39495e-08
-2.39157e-06
-4.87537e-08
-2.37278e-06
-5.35543e-08
-2.35243e-06
-5.83449e-08
-2.33054e-06
-6.31191e-08
-2.30711e-06
-6.78706e-08
-2.28214e-06
-7.2593e-08
-2.25566e-06
-7.72799e-08
-2.22767e-06
-8.1925e-08
-2.19819e-06
-8.6522e-08
-2.16723e-06
-9.10647e-08
-2.13482e-06
-9.55468e-08
-2.10098e-06
-9.99623e-08
-2.06573e-06
-1.04305e-07
-2.0291e-06
-1.08569e-07
-1.99111e-06
-1.12748e-07
-1.95179e-06
-1.16836e-07
-1.91118e-06
-1.20828e-07
-1.86931e-06
-1.24717e-07
-1.8262e-06
-1.28498e-07
-1.78191e-06
-1.32166e-07
-1.73647e-06
-1.35717e-07
-1.68992e-06
-1.39148e-07
-1.64229e-06
-1.42456e-07
-1.59363e-06
-1.4564e-07
-1.54398e-06
-1.48695e-07
-1.49339e-06
-1.51611e-07
-1.4419e-06
-1.54384e-07
-1.38955e-06
-1.57016e-07
-1.3364e-06
-1.59513e-07
-1.28249e-06
-1.61867e-07
-1.22787e-06
-1.6407e-07
-1.17258e-06
-1.66122e-07
-1.11668e-06
-1.68021e-07
-1.06022e-06
-1.69768e-07
-1.00324e-06
-1.71364e-07
-9.45803e-07
-1.72808e-07
-8.87947e-07
-1.74103e-07
-8.29724e-07
-1.7525e-07
-7.71182e-07
-1.76251e-07
-7.12369e-07
-1.77107e-07
-6.5333e-07
-1.77822e-07
-5.94112e-07
-1.78399e-07
-5.34757e-07
-1.78842e-07
-4.75309e-07
-1.79153e-07
-4.15809e-07
-1.79338e-07
-3.56297e-07
-1.79402e-07
-2.96809e-07
-1.79348e-07
-2.37384e-07
-1.79184e-07
-1.78053e-07
-1.78915e-07
-1.18851e-07
-1.78547e-07
-5.98054e-08
-1.78085e-07
-9.43683e-10
-1.77536e-07
5.77071e-08
-1.76902e-07
1.16124e-07
-1.76188e-07
1.74287e-07
-1.75404e-07
2.32178e-07
-1.74557e-07
2.89795e-07
-1.7365e-07
3.47137e-07
-1.72679e-07
4.04193e-07
-1.71638e-07
4.6095e-07
-1.70543e-07
5.17404e-07
-1.69441e-07
5.73545e-07
-1.68363e-07
6.29369e-07
-1.67311e-07
6.84871e-07
-1.66269e-07
7.4004e-07
-1.6521e-07
7.94852e-07
-1.64089e-07
8.49261e-07
-1.62831e-07
9.03181e-07
-1.61315e-07
9.56465e-07
-1.59326e-07
1.00886e-06
-1.5648e-07
1.05993e-06
-1.52062e-07
1.10901e-06
-1.44606e-07
1.1552e-06
-1.3142e-07
1.19803e-06
-1.06291e-07
-5.57316e-08
1.24218e-06
-6.87336e-09
-1.41943e-08
-1.821e-08
-8.6549e-10
-3.10037e-08
1.15037e-08
-4.47082e-08
2.23773e-08
-5.92063e-08
3.23016e-08
-7.45264e-08
4.14517e-08
-9.07743e-08
4.98679e-08
-1.08071e-07
5.7555e-08
-1.26551e-07
6.4539e-08
-1.46273e-07
7.08808e-08
-1.673e-07
7.66726e-08
-1.89598e-07
8.20194e-08
-2.13179e-07
8.70246e-08
-2.37964e-07
9.17763e-08
-2.63969e-07
9.63452e-08
-2.91105e-07
1.00785e-07
-3.19408e-07
1.05132e-07
-3.48789e-07
1.09417e-07
-3.79298e-07
1.13657e-07
-4.10845e-07
1.17871e-07
-4.43469e-07
1.22068e-07
-4.77085e-07
1.26258e-07
-5.1169e-07
1.30444e-07
-5.47199e-07
1.3462e-07
-5.8352e-07
1.38767e-07
-6.20541e-07
1.42844e-07
-6.58064e-07
1.46786e-07
-6.95913e-07
1.50498e-07
-7.33858e-07
1.53873e-07
-7.71713e-07
1.56787e-07
-8.09371e-07
1.5915e-07
-8.46777e-07
1.60935e-07
-8.8394e-07
1.62216e-07
-9.20588e-07
1.63174e-07
-9.56668e-07
1.6387e-07
-9.92072e-07
1.64363e-07
-1.02675e-06
1.64626e-07
-1.06068e-06
1.64625e-07
-1.09397e-06
1.64276e-07
-1.12718e-06
1.6349e-07
-1.16075e-06
1.62341e-07
-1.19432e-06
1.61117e-07
-1.22759e-06
1.59959e-07
-1.26044e-06
1.58878e-07
-1.29299e-06
1.57795e-07
-1.3253e-06
1.56679e-07
-1.35742e-06
1.55545e-07
-1.38933e-06
1.54396e-07
-1.42105e-06
1.53234e-07
-1.45257e-06
1.52056e-07
-1.48389e-06
1.5086e-07
-1.515e-06
1.49639e-07
-1.5459e-06
1.48391e-07
-1.57658e-06
1.47107e-07
-1.60703e-06
1.45783e-07
-1.63722e-06
1.44411e-07
-1.66715e-06
1.42983e-07
-1.6968e-06
1.41491e-07
-1.72614e-06
1.3993e-07
-1.75516e-06
1.38289e-07
-1.78382e-06
1.36563e-07
-1.81211e-06
1.34743e-07
-1.84e-06
1.32823e-07
-1.86746e-06
1.30796e-07
-1.89447e-06
1.28655e-07
-1.92098e-06
1.26396e-07
-1.94698e-06
1.24011e-07
-1.97243e-06
1.21498e-07
-1.9973e-06
1.1885e-07
-2.02155e-06
1.16065e-07
-2.04515e-06
1.1314e-07
-2.06807e-06
1.10071e-07
-2.09026e-06
1.06857e-07
-2.11171e-06
1.03496e-07
-2.13236e-06
9.99875e-08
-2.15219e-06
9.63304e-08
-2.17116e-06
9.25251e-08
-2.18924e-06
8.85721e-08
-2.20639e-06
8.44724e-08
-2.22257e-06
8.02274e-08
-2.23776e-06
7.58392e-08
-2.25192e-06
7.13099e-08
-2.26502e-06
6.66424e-08
-2.27703e-06
6.18399e-08
-2.28791e-06
5.69057e-08
-2.29765e-06
5.1844e-08
-2.30621e-06
4.6659e-08
-2.31357e-06
4.1356e-08
-2.31971e-06
3.59404e-08
-2.32461e-06
3.04188e-08
-2.32824e-06
2.47987e-08
-2.33061e-06
1.90891e-08
-2.33168e-06
1.33003e-08
-2.33145e-06
7.44419e-09
-2.3299e-06
1.53368e-09
-2.32699e-06
-4.4197e-09
-2.32268e-06
-1.04141e-08
-2.31695e-06
-1.64602e-08
-2.30977e-06
-2.25652e-08
-2.30113e-06
-2.87239e-08
-2.29103e-06
-3.4928e-08
-2.27943e-06
-4.11689e-08
-2.26635e-06
-4.74386e-08
-2.25177e-06
-5.37285e-08
-2.23569e-06
-6.00308e-08
-2.21811e-06
-6.63368e-08
-2.19902e-06
-7.26384e-08
-2.17844e-06
-7.89272e-08
-2.15636e-06
-8.51948e-08
-2.1328e-06
-9.14328e-08
-2.10776e-06
-9.76328e-08
-2.08125e-06
-1.03786e-07
-2.05329e-06
-1.09885e-07
-2.02389e-06
-1.15921e-07
-1.99307e-06
-1.21886e-07
-1.96084e-06
-1.27771e-07
-1.92723e-06
-1.33569e-07