/*--------------------------------*- C++ -*----------------------------------*\
  =========                 |
  \\      /  F ield         | OpenFOAM: The Open Source CFD Toolbox
   \\    /   O peration     | Website:  https://openfoam.org
    \\  /    A nd           | Version:  8
     \\/     M anipulation  |
\*---------------------------------------------------------------------------*/
FoamFile
{
    version     2.0;
    format      ascii;
    class       volVectorField;
    location    "627";
    object      wallShearStress;
}
// * * * * * * * * * * * * * * * * * * * * * * * * * * * * * * * * * * * * * //

dimensions      [0 2 -2 0 0 0 0];

internalField   uniform (0 0 0);

boundaryField
{
    inlet
    {
        type            calculated;
        value           uniform (0 0 0);
    }
    outlet
    {
        type            calculated;
        value           uniform (0 0 0);
    }
    upperWall
    {
        type            calculated;
        value           nonuniform List<vector> 
223
(
(-0.439499 -0.0738929 0)
(-0.452054 -0.060169 0)
(-0.451523 -0.033588 0)
(-0.44597 -0.0165555 0)
(-0.4396 -0.00752693 0)
(-0.433871 -0.0030931 0)
(-0.42895 -0.000994826 0)
(-0.424738 -2.39945e-05 0)
(-0.421121 0.000414282 0)
(-0.417992 0.000603045 0)
(-0.41525 0.000676316 0)
(-0.412815 0.000698081 0)
(-0.410626 0.000697893 0)
(-0.408644 0.000690102 0)
(-0.406833 0.000680889 0)
(-0.40517 0.000676124 0)
(-0.403622 0.000679456 0)
(-0.402168 0.000724244 0)
(-0.401072 0.000806555 0)
(-0.400317 0.000872695 3.58835e-22)
(-0.399573 0.000901757 0)
(-0.398849 0.000905772 0)
(-0.398147 0.00089465 0)
(-0.397467 0.000875255 3.70039e-22)
(-0.396813 0.000852067 0)
(-0.396184 0.000827772 0)
(-0.395579 0.000804148 0)
(-0.394995 0.000782219 -7.61057e-22)
(-0.394431 0.000762214 7.66261e-22)
(-0.393885 0.000744384 7.71468e-22)
(-0.393357 0.0007288 0)
(-0.392844 0.000715173 -7.81868e-22)
(-0.392346 0.000703208 0)
(-0.391861 0.000692926 7.92261e-22)
(-0.39139 0.000684046 7.97459e-22)
(-0.39093 0.000676421 -8.02657e-22)
(-0.390481 0.000669792 0)
(-0.390043 0.000664084 0)
(-0.389615 0.000659232 0)
(-0.389196 0.000654964 0)
(-0.388787 0.000651287 -8.2864e-22)
(-0.388385 0.000648114 0)
(-0.387992 0.000645315 0)
(-0.387606 0.000642772 8.4424e-22)
(-0.387227 0.00064048 0)
(-0.386855 0.000638443 8.54644e-22)
(-0.38649 0.000636516 -8.59844e-22)
(-0.38613 0.000634669 8.65043e-22)
(-0.385776 0.000632993 0)
(-0.385427 0.000631447 0)
(-0.385083 0.000629961 0)
(-0.384744 0.000628565 8.85839e-22)
(-0.384408 0.00062722 -8.91033e-22)
(-0.384076 0.000625853 0)
(-0.383748 0.000624486 0)
(-0.383423 0.000623108 0)
(-0.3831 0.000621611 0)
(-0.38278 0.000620087 0)
(-0.382462 0.000618536 0)
(-0.382146 0.00061687 0)
(-0.381832 0.000615237 0)
(-0.381519 0.000613555 9.37402e-22)
(-0.381207 0.000611789 -9.42462e-22)
(-0.380896 0.000610088 0)
(-0.380585 0.000608382 0)
(-0.380274 0.000606729 0)
(-0.379962 0.000605143 -9.62366e-22)
(-0.37965 0.000603551 0)
(-0.379337 0.000602053 0)
(-0.379023 0.000600664 0)
(-0.378707 0.000599399 0)
(-0.378388 0.000598314 0)
(-0.378066 0.000597294 -1.98114e-21)
(-0.377742 0.000596431 0)
(-0.377414 0.000595737 0)
(-0.377082 0.000595227 0)
(-0.376746 0.000594947 0)
(-0.376404 0.000594827 0)
(-0.376057 0.000594914 0)
(-0.375705 0.000595256 0)
(-0.375345 0.000595818 2.04497e-21)
(-0.374979 0.000596609 0)
(-0.374605 0.000597628 0)
(-0.374223 0.000598922 0)
(-0.373832 0.000600453 -2.06894e-21)
(-0.373431 0.000602225 0)
(-0.373021 0.000604276 -2.07816e-21)
(-0.3726 0.000606568 0)
(-0.372168 0.000609136 0)
(-0.371724 0.000611984 0)
(-0.371267 0.000615035 -2.08973e-21)
(-0.370798 0.000618357 0)
(-0.370314 0.000621983 2.09148e-21)
(-0.369816 0.000625835 2.0912e-21)
(-0.369302 0.000629909 0)
(-0.368772 0.000634198 2.08812e-21)
(-0.368226 0.000638765 0)
(-0.367662 0.000643532 0)
(-0.36708 0.000648524 0)
(-0.366479 0.000653699 -2.07054e-21)
(-0.365859 0.000659046 0)
(-0.365218 0.00066462 -2.05523e-21)
(-0.364556 0.000670342 2.04577e-21)
(-0.363873 0.000676203 0)
(-0.363167 0.00068222 0)
(-0.362437 0.000688349 0)
(-0.361684 0.00069454 0)
(-0.360906 0.000700847 0)
(-0.360103 0.000707251 0)
(-0.359274 0.00071371 0)
(-0.358419 0.000720171 -1.91907e-21)
(-0.357536 0.000726625 0)
(-0.356626 0.000733108 0)
(-0.355687 0.000739555 0)
(-0.35472 0.000745974 0)
(-0.353722 0.000752317 0)
(-0.352695 0.000758566 0)
(-0.351638 0.00076471 0)
(-0.350549 0.0007707 0)
(-0.34943 0.00077658 0)
(-0.348279 0.000782247 0)
(-0.347096 0.000787744 0)
(-0.345881 0.000793058 0)
(-0.344633 0.000798117 -2.91709e-21)
(-0.343353 0.000802913 0)
(-0.342041 0.000807441 0)
(-0.340695 0.000811703 0)
(-0.339317 0.000815628 2.47111e-21)
(-0.337906 0.000819303 0)
(-0.336463 0.000822551 0)
(-0.334987 0.000825522 2.07783e-21)
(-0.333478 0.000828041 0)
(-0.331938 0.000830167 -1.78594e-21)
(-0.330366 0.000831718 0)
(-0.328765 0.000833271 0)
(-0.327132 0.000834425 0)
(-0.32547 0.000834687 1.12709e-21)
(-0.323776 0.000834806 0)
(-0.322051 0.000834493 -7.58747e-22)
(-0.320299 0.000833768 0)
(-0.318518 0.00083408 0)
(-0.316712 0.000830432 0)
(-0.314877 0.000830412 0)
(-0.313021 0.000827077 0)
(-0.311136 0.000822899 0)
(-0.309232 0.00082252 0)
(-0.307303 0.000817552 0)
(-0.305356 0.000814404 0)
(-0.303388 0.000808875 0)
(-0.301403 0.000803561 0)
(-0.299401 0.000797952 2.03634e-21)
(-0.297385 0.000792081 -2.31642e-21)
(-0.295354 0.000785853 0)
(-0.293311 0.000779249 0)
(-0.291258 0.000772262 0)
(-0.289197 0.000765014 0)
(-0.287127 0.000757293 -3.82904e-21)
(-0.285053 0.000749282 4.15411e-21)
(-0.282974 0.000740941 -4.48678e-21)
(-0.280893 0.000732417 0)
(-0.278811 0.000723634 -5.17476e-21)
(-0.276731 0.000714714 -1.10601e-20)
(-0.274652 0.000705607 0)
(-0.272577 0.000696499 -1.25269e-20)
(-0.270506 0.000687292 1.32833e-20)
(-0.26844 0.00067817 0)
(-0.266379 0.000668994 0)
(-0.264324 0.000660061 0)
(-0.262275 0.000651195 0)
(-0.260232 0.00064262 0)
(-0.258194 0.000634235 -1.815e-20)
(-0.256161 0.000626299 0)
(-0.254133 0.000618659 -1.99039e-20)
(-0.252108 0.000611615 0)
(-0.250085 0.000605036 0)
(-0.248063 0.00059919 0)
(-0.246038 0.000594056 0)
(-0.244009 0.000589905 0)
(-0.241972 0.000586709 2.56222e-20)
(-0.239921 0.000584766 0)
(-0.237852 0.000584159 0)
(-0.235759 0.000585198 -2.87967e-20)
(-0.233633 0.000588107 0)
(-0.231465 0.000593153 0)
(-0.229242 0.000600873 0)
(-0.226952 0.000611539 3.35015e-20)
(-0.224575 0.000626125 0)
(-0.222094 0.000644981 0)
(-0.219479 0.000669825 0)
(-0.2167 0.000701365 0)
(-0.21371 0.00074296 -4.06487e-20)
(-0.210451 0.000796485 0)
(-0.206857 0.000870168 0)
(-0.202728 0.000970277 0)
(-0.19814 0.00113275 4.85693e-20)
(-0.191728 0.00137707 0)
(-0.185818 0.0021203 0)
(-0.165835 0.00245832 -5.99594e-20)
(-0.173849 0.00975453 0)
(-0.198363 0.0164957 6.99511e-18)
(-0.214836 0.0197809 1.29891e-17)
(-0.223574 0.0215724 1.25453e-17)
(-0.230743 0.0227723 1.21694e-17)
(-0.237721 0.0237579 1.1752e-17)
(-0.244055 0.0246116 -1.13808e-17)
(-0.249861 0.0253685 -1.10491e-17)
(-0.255265 0.0260447 3.00927e-36)
(-0.260539 0.0266663 -2.08291e-17)
(-0.265836 0.0272601 -1.00977e-17)
(-0.271258 0.0278432 6.71066e-34)
(-0.276911 0.0284334 0)
(-0.282919 0.0290468 -1.81536e-17)
(-0.289378 0.0296956 -1.73691e-17)
(-0.296385 0.030391 -1.65072e-17)
(-0.304085 0.0311487 0)
(-0.312564 0.0319794 2.8949e-17)
(-0.322098 0.0329096 1.32647e-17)
(-0.332523 0.0339329 1.80556e-35)
(-0.344773 0.0351143 -2.07205e-17)
(-0.357194 0.0363688 -8.32667e-21)
(-0.374939 0.0379786 -1.50463e-36)
(-0.386078 0.0394372 7.71025e-18)
(-0.417073 0.0416668 -4.91063e-18)
)
;
    }
    lowerWall
    {
        type            calculated;
        value           nonuniform List<vector> 
250
(
(-0.619705 0.142617 0)
(-0.630044 0.109914 0)
(-0.622387 0.0565088 0)
(-0.607783 0.0250743 0)
(-0.592938 0.00989646 0)
(-0.57988 0.00316724 0)
(-0.568703 0.000329393 0)
(-0.559213 -0.00083802 0)
(-0.551083 -0.00129926 0)
(-0.544066 -0.00146795 0)
(-0.537935 -0.00151097 0)
(-0.532556 -0.00150706 0)
(-0.527774 -0.00148614 0)
(-0.523515 -0.00146526 0)
(-0.519615 -0.00144163 0)
(-0.516218 -0.00152406 0)
(-0.512037 -0.0015511 0)
(-0.510525 -0.00146233 0)
(0.000635788 -0.0148991 0)
(0.000804589 -0.0157274 0)
(0.00108157 -0.0167191 0)
(0.00152766 -0.0179449 6.22505e-20)
(0.00225092 -0.0195337 -5.8996e-20)
(0.00375159 -0.0217624 5.56681e-20)
(0.00511974 -0.0237939 -4.85423e-20)
(0.00997972 -0.0470178 0)
(-0.0671986 -0.130879 0)
(-0.000353129 0.000351743 0)
(-0.000338201 0.00125134 0)
(-3.80901e-05 0.00163723 0)
(0.000297661 0.00137392 0)
(0.000550125 0.000643088 7.28903e-20)
(0.000718525 -0.00039445 -6.72398e-20)
(0.000810753 -0.00162523 0)
(0.000851077 -0.00296621 -1.02904e-19)
(0.000854006 -0.0043507 9.24962e-20)
(0.000828949 -0.00572678 0)
(0.000783572 -0.0070549 0)
(0.000724617 -0.00830632 0)
(0.000658637 -0.00946267 0)
(0.000591603 -0.0105143 0)
(0.000532575 -0.011466 0)
(0.000492915 -0.0123404 0)
(0.000486147 -0.0131773 0)
(0.000533494 -0.0140524 0)
(0.00018285 0.000374182 0)
(-0.000235048 0.000547178 0)
(-0.00053949 0.000479178 0)
(-0.000714023 0.000298539 0)
(-0.000770889 8.10859e-05 0)
(-0.000719801 -0.000122202 0)
(-0.000592128 -0.000282331 6.59244e-21)
(-0.000413324 -0.000397132 -6.19975e-21)
(-0.000200636 -0.000474043 -0)
(3.48994e-05 -0.000524273 -5.20505e-21)
(0.000288176 -0.000558607 -0)
(0.000557088 -0.000585576 0)
(0.000841927 -0.00060966 -0)
(0.00114246 -0.000633403 2.89331e-21)
(0.00145908 -0.000657286 0)
(0.00179117 -0.000681884 0)
(0.00213875 -0.000706842 -2.11022e-21)
(0.00250121 -0.000732549 -0)
(0.00287863 -0.000758608 0)
(0.00327065 -0.000785024 -0)
(0.00367739 -0.00081097 1.57363e-21)
(0.00409834 -0.000835801 0)
(0.00453309 -0.000858328 1.42101e-21)
(0.00498135 -0.000877024 0)
(0.00544186 -0.000890414 -0)
(0.00591392 -0.000897226 1.2819e-21)
(0.00639502 -0.000898045 0)
(0.00688559 -0.000897282 -1.23207e-21)
(0.00738531 -0.000899181 -0)
(0.00789662 -0.000911827 1.20433e-21)
(0.00846657 -0.000938575 0)
(0.00909348 -0.000849982 0)
(0.00961415 -0.000629206 0)
(0.0100253 -0.000673965 0)
(0.0106145 -0.00100721 0)
(0.0113356 -0.00129484 -1.0183e-21)
(0.0120299 -0.00156789 -0)
(0.0126531 -0.00192376 1.91732e-21)
(0.0136046 -0.00259167 0)
(0.0148349 -0.00218146 -2.38715e-21)
(0.0154817 -0.00102435 0)
(0.0158567 -0.000957499 0)
(0.0168641 -0.001085 2.34122e-21)
(0.0179557 -0.00127309 0)
(0.0191286 -0.00136212 2.28239e-21)
(0.020348 -0.00135899 -2.25539e-21)
(0.0215353 -0.00137449 -0)
(0.0227772 -0.00139285 -2.20347e-21)
(0.0240386 -0.00140666 -2.18011e-21)
(0.0253301 -0.00141739 -0)
(0.0266432 -0.00142577 0)
(0.0279807 -0.00143244 0)
(0.0293397 -0.00143781 0)
(0.0307208 -0.00144208 -0)
(0.0321227 -0.00144536 2.07273e-21)
(0.033545 -0.00144764 0)
(0.0349866 -0.001449 -2.0462e-21)
(0.0364472 -0.00144952 -0)
(0.037926 -0.00144909 -0)
(0.0394222 -0.00144752 2.01238e-21)
(0.0409344 -0.00144484 0)
(0.0424621 -0.00144103 -1.99288e-21)
(0.0440039 -0.00143592 -0)
(0.0455587 -0.00142938 0)
(0.0471249 -0.00142146 -0)
(0.0487016 -0.00141193 1.95869e-21)
(0.0502863 -0.00140078 0)
(0.0518783 -0.00138794 -0)
(0.0534752 -0.00137326 1.93539e-21)
(0.0550753 -0.00135673 0)
(0.0566763 -0.00133827 1.92015e-21)
(0.0582764 -0.00131787 0)
(0.0598733 -0.00129545 0)
(0.0614647 -0.00127104 0)
(0.0630485 -0.00124446 -1.88853e-21)
(0.0646214 -0.00121579 -0)
(0.0661819 -0.00118509 0)
(0.0677268 -0.00115217 -1.86222e-21)
(0.0692535 -0.00111716 -1.8527e-21)
(0.0707594 -0.00108006 -0)
(0.0722417 -0.00104081 -1.83222e-21)
(0.0736974 -0.000999492 0)
(0.075124 -0.000956104 -3.61899e-21)
(0.0765184 -0.000910585 -0)
(0.0778777 -0.000863049 -3.56827e-21)
(0.0791992 -0.000813331 -0)
(0.0804793 -0.000761396 3.51149e-21)
(0.0817153 -0.000707115 0)
(0.0829035 -0.000650389 0)
(0.0840413 -0.000590919 0)
(0.0851246 -0.000528149 -3.37659e-21)
(0.086149 -0.000461806 -0)
(0.0871109 -0.000391313 3.29701e-21)
(0.088005 -0.000316267 0)
(0.0888264 -0.000237048 -3.20868e-21)
(0.0895705 -0.000155401 -3.16129e-21)
(0.0902327 -7.58767e-05 -3.11184e-21)
(0.0908143 -6.35056e-06 0)
(0.0913268 5.49042e-05 0)
(0.0917713 0.000114772 0)
(0.0921461 0.000174145 0)
(0.0924502 0.000233623 0)
(0.092682 0.000293121 0)
(0.0928411 0.000352733 0)
(0.0929254 0.000412388 0)
(0.0929344 0.000471918 2.52592e-21)
(0.0928671 0.000531292 2.44421e-21)
(0.0927228 0.000590444 0)
(0.0925004 0.000649237 0)
(0.0921999 0.000707546 0)
(0.0918207 0.000765299 2.08014e-21)
(0.091363 0.000822428 0)
(0.0908264 0.0008789 0)
(0.0902106 0.000934506 0)
(0.0895168 0.00098912 0)
(0.0887453 0.00104278 -1.53533e-21)
(0.0878965 0.00109542 0)
(0.0869708 0.00114689 0)
(0.0859696 0.00119708 1.15668e-21)
(0.0848941 0.00124597 -1.02133e-21)
(0.0837454 0.00129351 0)
(0.0825245 0.00133957 -7.36358e-22)
(0.0812337 0.00138415 0)
(0.079874 0.00142716 4.31699e-22)
(0.0784478 0.00146849 0)
(0.0769572 0.00150826 0)
(0.0754035 0.00154643 0)
(0.0737914 0.00158286 0)
(0.0721178 0.00161762 0)
(0.0703896 0.0016506 1.21987e-21)
(0.0686058 0.00168154 1.6073e-21)
(0.066771 0.00171082 0)
(0.0648907 0.00173856 0)
(0.0629673 0.00176456 0)
(0.0609985 0.00178862 -3.2856e-21)
(0.0589901 0.00181084 0)
(0.056945 0.00183128 0)
(0.0548658 0.00184997 0)
(0.0527558 0.0018669 -5.19387e-21)
(0.050618 0.00188213 5.71161e-21)
(0.0484555 0.00189572 0)
(0.046271 0.00190772 0)
(0.0440677 0.00191814 7.37586e-21)
(0.0418486 0.00192711 7.97106e-21)
(0.0396162 0.00193466 0)
(0.0373738 0.00194081 0)
(0.0351242 0.00194572 -9.89602e-21)
(0.0328698 0.00194943 1.05893e-20)
(0.0306132 0.00195201 0)
(0.0283571 0.00195357 0)
(0.0261039 0.00195418 1.28513e-20)
(0.0238559 0.00195395 0)
(0.0216154 0.00195299 0)
(0.0193844 0.0019514 1.54405e-20)
(0.017165 0.00194928 0)
(0.0149589 0.00194673 1.73934e-20)
(0.012768 0.00194382 0)
(0.010594 0.00194058 0)
(0.00843847 0.00193717 0)
(0.00630294 0.00193424 -2.20205e-20)
(0.00418866 0.00193215 0)
(0.00209631 0.00192879 0)
(2.62369e-05 0.00191193 0)
(-0.00202139 0.00187201 0)
(-0.00405224 0.00182092 0)
(-0.00606707 0.0017714 0)
(-0.00806683 0.00172498 -2.37158e-20)
(-0.0100522 0.00168135 -2.31615e-20)
(-0.012024 0.00164001 0)
(-0.0139824 0.00160045 0)
(-0.0159273 0.00156208 0)
(-0.0178578 0.00152412 2.12536e-20)
(-0.0197718 0.00148541 0)
(-0.0216647 0.00144413 -4.08984e-20)
(-0.0235296 0.00139634 4.01649e-20)
(-0.025345 0.00133675 3.94878e-20)
(-0.0270994 0.00124191 -3.88911e-20)
(-0.0286244 0.00109877 3.84255e-20)
(-0.0301269 0.000715293 -3.82812e-20)
(-0.02951 -4.00111e-05 0)
(-0.0319771 -0.00014262 -2.43599e-18)
(-0.0368474 -0.0011067 -2.30939e-18)
(-0.0415731 -0.00185215 3.00927e-36)
(-0.0458531 -0.00242419 -4.21466e-18)
(-0.0501861 -0.00294173 -8.07339e-18)
(-0.0547377 -0.00344545 -3.86678e-18)
(-0.0595021 -0.00394925 3.70309e-18)
(-0.0645026 -0.00446745 -2.40741e-35)
(-0.0697795 -0.00500981 6.01853e-36)
(-0.0753586 -0.00558158 3.23883e-18)
(-0.0812618 -0.00618678 3.08886e-18)
(-0.0875112 -0.00682874 3.00927e-36)
(-0.0941318 -0.00751041 0)
(-0.101142 -0.00823477 0)
(-0.108583 -0.00900369 1.01093e-35)
(-0.116462 -0.00982262 3.34311e-35)
(-0.124868 -0.0106889 1.2338e-34)
(-0.133743 -0.0116208 -3.99617e-18)
(-0.143403 -0.012592 -3.64128e-18)
(-0.153298 -0.0136723 6.01853e-36)
(-0.165113 -0.0147471 5.71572e-18)
(-0.175325 -0.0160573 9.44303e-18)
(-0.192536 -0.0171782 0)
(-0.19933 -0.0189922 -4.45963e-18)
(-0.233369 -0.0196001 1.50463e-35)
)
;
    }
    frontAndBack
    {
        type            empty;
    }
}


// ************************************************************************* //
