/*--------------------------------*- C++ -*----------------------------------*\
| =========                 |                                                 |
| \\      /  F ield         | OpenFOAM: The Open Source CFD Toolbox           |
|  \\    /   O peration     | Version:  v2012                                 |
|   \\  /    A nd           | Website:  www.openfoam.com                      |
|    \\/     M anipulation  |                                                 |
\*---------------------------------------------------------------------------*/
FoamFile
{
    version     2.0;
    format      ascii;
    class       volScalarField;
    location    "1200";
    object      nuTilda;
}
// * * * * * * * * * * * * * * * * * * * * * * * * * * * * * * * * * * * * * //

dimensions      [0 2 -1 0 0 0 0];


internalField   nonuniform List<scalar> 
12225
(
0.0122671
0.00158833
0.000666932
0.0004122
0.000298016
0.000234158
0.000195366
0.000157553
0.000177043
0.000222662
0.000230375
0.000221268
0.000203463
0.000178139
0.000172632
0.000158592
0.000147184
0.000136909
0.0323823
0.00744532
0.00330641
0.00204337
0.00146819
0.00114457
0.000939066
0.000785442
0.000691115
0.000627787
0.000570641
0.000520036
0.000476786
0.000437435
0.000407128
0.000374786
0.000350018
0.000324471
0.0490123
0.01515
0.00728196
0.00457856
0.00330642
0.00258052
0.00211335
0.00178198
0.00154689
0.00137268
0.0012317
0.00111558
0.0010187
0.000936518
0.000867175
0.000804851
0.000754196
0.000701734
0.063054
0.0237783
0.0122894
0.00788815
0.00573398
0.00448498
0.00367443
0.00310422
0.0026872
0.00237002
0.00211798
0.00191325
0.00174413
0.00160236
0.00148259
0.0013788
0.00129129
0.00120478
0.074932
0.0328517
0.0181452
0.0119262
0.00874549
0.00686413
0.00563087
0.0047613
0.00411869
0.00362573
0.00323518
0.00291879
0.00265805
0.00244011
0.00225604
0.00209841
0.00196344
0.00183991
0.0849536
0.0420208
0.0246655
0.0166359
0.0123325
0.00972587
0.00799541
0.0067674
0.00585404
0.00515005
0.00459192
0.00413985
0.00376745
0.00345638
0.00319356
0.00296911
0.00277617
0.00260662
0.0933822
0.0510219
0.0316642
0.0219415
0.016474
0.0130717
0.0107779
0.00913539
0.00790598
0.00695437
0.00619833
0.00558533
0.00508011
0.00465803
0.00430139
0.00399705
0.00373537
0.00350916
0.0993794
0.0583363
0.0378386
0.0268568
0.0204171
0.0163053
0.0134892
0.011453
0.00991905
0.00872671
0.00777697
0.0070057
0.00636944
0.00583763
0.00538817
0.0050047
0.00467517
0.00439184
0.104023
0.0645454
0.0433804
0.0314239
0.0241571
0.0194092
0.0161097
0.0137018
0.0118767
0.0104523
0.00931473
0.0083894
0.00762525
0.00698616
0.00644587
0.00598492
0.005589
0.00524917
0.108368
0.0708939
0.0493757
0.0365496
0.0284517
0.0230231
0.0191863
0.0163548
0.0141927
0.0124969
0.0111382
0.0100306
0.00911457
0.00834785
0.00769937
0.00714608
0.00667098
0.00626329
0.112368
0.0772557
0.0557282
0.0421918
0.0332976
0.0271652
0.0227468
0.0194433
0.0168984
0.0148904
0.013275
0.0119546
0.0108607
0.00994396
0.00916816
0.00850608
0.0079376
0.0074494
0.115994
0.0834975
0.0623054
0.0482611
0.0386474
0.0318167
0.026789
0.0229739
0.0200047
0.0176453
0.0157379
0.0141737
0.012875
0.0117851
0.010862
0.0100738
0.0093969
0.00881485
0.119234
0.0894856
0.0689377
0.0546109
0.0443919
0.0369007
0.0312597
0.0269089
0.0234837
0.02074
0.0185097
0.0166735
0.015145
0.0138601
0.0127705
0.0118397
0.0110399
0.010351
0.122086
0.095084
0.075415
0.0610223
0.0503361
0.0422535
0.0360231
0.0311353
0.0272402
0.0240931
0.0215191
0.0193909
0.0176141
0.0161175
0.0148467
0.0137601
0.0128258
0.0120198
0.124546
0.100135
0.0814619
0.0671726
0.056158
0.047577
0.0408126
0.0354174
0.031066
0.0275197
0.0246013
0.0221778
0.0201482
0.018435
0.0169783
0.0157315
0.0146584
0.0137312
0.126578
0.104396
0.0866605
0.0725515
0.0613228
0.0523526
0.0451453
0.0393148
0.0345631
0.0306611
0.0274325
0.024741
0.0224806
0.020569
0.0189413
0.0175468
0.0163455
0.0153062
0.128011
0.107322
0.0902141
0.0762353
0.0648743
0.0556509
0.0481493
0.0420254
0.0370012
0.0328553
0.0294126
0.0265352
0.0241143
0.0220643
0.0203171
0.0188191
0.0175275
0.0164083
0.128006
0.107313
0.0902048
0.0762269
0.0648674
0.0556454
0.048145
0.0420221
0.0369988
0.0328537
0.0294117
0.0265349
0.0241147
0.0220651
0.0203184
0.0188205
0.0175286
0.0164082
0.126509
0.104255
0.0864922
0.0723807
0.0611613
0.052205
0.0450128
0.0391967
0.0344584
0.0305685
0.0273506
0.0246684
0.0224163
0.0205118
0.0188902
0.0175006
0.0163023
0.015263
0.124267
0.0995604
0.0807712
0.0664676
0.0554886
0.0469631
0.0402594
0.0349227
0.0306248
0.0271258
0.0242487
0.0218611
0.0198625
0.0181762
0.0167425
0.0155151
0.0144574
0.0135404
0.12136
0.0936399
0.0737261
0.0593348
0.0487592
0.0408248
0.0347467
0.0300003
0.0262308
0.0231928
0.0207127
0.018665
0.0169572
0.0155197
0.0142998
0.0132566
0.0123582
0.0115797
0.117686
0.0865903
0.0656967
0.0514791
0.0415374
0.0343608
0.0290183
0.0249322
0.0217348
0.0191848
0.0171184
0.0154211
0.0140105
0.0128262
0.0118228
0.0109656
0.0102279
0.00958885
0.11305
0.0784122
0.056921
0.0432687
0.0342296
0.0279652
0.0234365
0.0200435
0.0174263
0.0153598
0.0136967
0.012337
0.0112107
0.0102671
0.00946865
0.00878716
0.00820096
0.00769339
0.107169
0.0691009
0.0476372
0.035029
0.0271566
0.021922
0.0182437
0.0155401
0.0134818
0.0118708
0.0105819
0.00953233
0.00866518
0.00793989
0.00732687
0.00680391
0.00635419
0.00596495
0.0996761
0.0587036
0.0381279
0.0270699
0.0205782
0.0164329
0.0135949
0.0115437
0.00999935
0.00879954
0.00784425
0.00706856
0.00642887
0.00589439
0.005443
0.00505799
0.00472684
0.00444039
0.0901097
0.0473665
0.0287363
0.0196847
0.0146976
0.0116311
0.0095785
0.0081152
0.00702351
0.00618082
0.00551239
0.00497027
0.00452358
0.0041503
0.00383535
0.00356656
0.00333506
0.00313497
0.0779076
0.0353826
0.0198606
0.0131383
0.00966106
0.00759296
0.00623349
0.00527411
0.00456426
0.00402039
0.00359049
0.00324081
0.00295245
0.0027105
0.00250709
0.00233296
0.00218202
0.00205185
0.06238
0.0232554
0.0119461
0.00765493
0.00556338
0.00435255
0.00356722
0.00301618
0.00261335
0.00231039
0.0020722
0.00187462
0.00171107
0.00157138
0.00145568
0.00135494
0.0012658
0.00118898
0.0426105
0.0117794
0.00546931
0.00341388
0.00246076
0.00192014
0.0015728
0.00132961
0.00115855
0.00104152
0.00095004
0.000865231
0.000793486
0.000729283
0.000673068
0.000622939
0.000580645
0.000539708
0.0168348
0.0025599
0.00110031
0.000684193
0.00049518
0.000389159
0.000321434
0.000273103
0.000272203
0.000339066
0.000377114
0.00035683
0.00032397
0.00029257
0.000263349
0.000235166
0.000223277
0.000181903
3.70879e-06
1.38337e-05
2.56104e-05
3.82456e-05
4.60371e-05
4.98326e-05
5.02212e-05
4.77882e-05
4.45795e-05
3.94308e-05
3.40859e-05
2.93589e-05
2.67546e-05
2.73258e-05
2.96454e-05
3.13338e-05
3.11034e-05
2.80674e-05
2.27779e-05
1.91749e-05
1.97016e-05
2.60361e-05
3.89774e-05
6.52164e-05
8.76342e-05
0.000101059
0.000113687
0.000124653
0.000134578
0.000143045
0.000150599
0.000157189
0.000163025
0.000168157
0.000172671
0.000176682
0.000180256
0.000183465
0.000186353
0.000188956
0.000191299
0.000193399
0.000195272
0.00019693
0.000198386
0.00019965
0.000200731
0.000201635
0.00020236
0.000202901
0.000203143
0.000203374
0.000203419
0.0002033
0.000203022
0.000202606
0.000202049
0.000201355
0.000200526
0.000199563
0.000198469
0.000197247
0.000195899
0.000194428
0.000192837
0.000191128
0.000189304
0.000187367
0.00018532
0.000183168
0.000180912
0.000178555
0.000176101
0.000173552
0.00017091
0.000168177
0.000165356
0.000162448
0.000159454
0.000156375
0.000153211
0.000149963
0.00014663
0.000143212
0.000139707
0.000136111
0.000132417
0.000128617
0.000124699
0.000120646
0.000116441
0.000112069
0.000107529
0.000102876
9.83194e-05
9.43567e-05
9.15592e-05
8.98177e-05
8.85076e-05
8.73037e-05
8.61206e-05
8.4942e-05
8.37662e-05
8.2594e-05
8.14261e-05
8.02636e-05
7.91079e-05
7.79632e-05
7.68509e-05
7.58998e-05
7.49657e-05
7.4038e-05
7.31184e-05
7.2207e-05
7.13042e-05
7.04103e-05
6.95259e-05
6.8651e-05
6.77863e-05
6.69315e-05
6.60871e-05
6.52533e-05
6.44303e-05
6.36186e-05
6.28181e-05
6.20288e-05
6.12517e-05
6.05148e-05
5.98376e-05
5.91691e-05
5.85057e-05
5.78566e-05
5.72255e-05
5.65985e-05
5.59764e-05
5.53623e-05
5.47574e-05
5.4162e-05
5.35764e-05
5.30003e-05
5.24337e-05
5.18764e-05
5.13283e-05
5.07892e-05
5.0259e-05
4.97377e-05
4.92251e-05
4.8721e-05
4.82255e-05
4.77384e-05
4.72596e-05
4.67892e-05
4.63271e-05
4.58733e-05
4.54277e-05
4.49905e-05
4.45616e-05
4.41412e-05
4.37294e-05
4.33263e-05
4.29322e-05
4.25473e-05
4.21718e-05
4.1806e-05
4.14501e-05
4.11041e-05
4.07681e-05
4.04418e-05
4.01249e-05
3.98163e-05
3.95147e-05
3.92185e-05
3.89238e-05
3.86305e-05
3.83195e-05
3.80225e-05
3.75931e-05
3.72863e-05
3.63552e-05
3.48373e-05
5.88289e-06
3.99473e-05
9.09085e-05
0.000151936
0.000191211
0.000213573
0.000222523
0.000221106
0.000213136
0.000197478
0.00017838
0.000160489
0.000151704
0.000156454
0.000168629
0.000176139
0.000178035
0.000178818
0.000183792
0.000192725
0.000207765
0.000224953
0.000241197
0.000256488
0.000267387
0.000276848
0.00028543
0.000298273
0.000316712
0.000330334
0.000342776
0.000353482
0.000363234
0.00037216
0.000379931
0.000387032
0.000393653
0.000400011
0.000406235
0.000412388
0.000418463
0.000424418
0.000430201
0.000435771
0.000441099
0.00044617
0.000450968
0.000455479
0.000459707
0.000463656
0.000467334
0.000470764
0.000473935
0.000476856
0.000479528
0.000481953
0.000484131
0.000486063
0.000487749
0.000489189
0.000490385
0.000491337
0.000492047
0.00049252
0.000492765
0.000492789
0.000492585
0.000492149
0.000491499
0.000490637
0.00048957
0.000488304
0.000486846
0.000485202
0.000483381
0.000481387
0.00047923
0.000476917
0.000474454
0.000471851
0.000469114
0.000466252
0.000463273
0.000460186
0.000456999
0.000453721
0.000450359
0.000446922
0.000443417
0.000439852
0.000436233
0.000432564
0.000428846
0.000425071
0.00042122
0.000417266
0.000413196
0.000409037
0.00040484
0.000400629
0.000396412
0.000392191
0.000387972
0.000383756
0.000379549
0.000375353
0.00037117
0.000367004
0.000362854
0.000358718
0.000354607
0.000350525
0.000346474
0.000342456
0.000338473
0.000334526
0.000330617
0.000326747
0.000322919
0.000319132
0.000315387
0.000311686
0.00030803
0.00030442
0.000300857
0.00029734
0.00029387
0.000290444
0.000287062
0.000283727
0.000280437
0.000277201
0.00027402
0.000270876
0.000267769
0.000264706
0.000261688
0.000258718
0.000255794
0.000252917
0.000250086
0.0002473
0.00024456
0.000241863
0.00023921
0.000236601
0.000234034
0.000231508
0.000229025
0.000226582
0.000224181
0.000221819
0.000219499
0.000217218
0.000214978
0.000212779
0.00021062
0.000208503
0.000206428
0.000204396
0.000202408
0.000200466
0.00019857
0.000196724
0.000194928
0.000193183
0.00019149
0.00018985
0.000188262
0.000186723
0.00018523
0.000183781
0.000182357
0.000180988
0.00017955
0.000178341
0.000176497
0.00017597
0.000173233
0.000171903
1.28774e-05
7.44395e-05
0.000173989
0.000251173
0.000302736
0.000332275
0.000342959
0.000339989
0.000327229
0.000308296
0.0002891
0.000277079
0.000275199
0.000281965
0.000292208
0.000302966
0.000315733
0.000332557
0.000353846
0.000378856
0.000405969
0.000433915
0.00047297
0.000518871
0.000564262
0.000608181
0.000651116
0.000694661
0.000733632
0.00076464
0.000789427
0.000809085
0.000824674
0.000837049
0.000846988
0.000855261
0.000862565
0.000869537
0.000876712
0.00088444
0.000892824
0.000901739
0.000910946
0.00092021
0.000929354
0.00093826
0.000946851
0.000955081
0.000962912
0.000970318
0.000977271
0.000983751
0.000989747
0.000995255
0.00100027
0.0010048
0.00100883
0.00101238
0.00101543
0.00101799
0.00102005
0.00102162
0.0010227
0.00102325
0.0010234
0.00102311
0.00102232
0.00102107
0.00101939
0.00101727
0.00101473
0.00101178
0.00100845
0.00100473
0.00100065
0.000996222
0.000991456
0.000986369
0.000980977
0.000975294
0.000969335
0.000963117
0.000956653
0.000949961
0.000943054
0.000935947
0.000928656
0.000921194
0.000913575
0.000905813
0.000897918
0.000889902
0.000881775
0.000873545
0.000865219
0.000856808
0.000848324
0.000839783
0.000831201
0.000822593
0.000813967
0.000805335
0.000796702
0.000788077
0.000779468
0.000770881
0.000762322
0.000753797
0.000745313
0.000736875
0.000728488
0.000720157
0.000711888
0.000703684
0.000695548
0.000687485
0.000679498
0.000671588
0.00066376
0.000656014
0.000648354
0.00064078
0.000633295
0.000625901
0.000618599
0.000611389
0.000604272
0.000597248
0.000590318
0.000583483
0.000576742
0.000570098
0.000563547
0.000557083
0.000550706
0.000544418
0.000538221
0.000532116
0.000526103
0.000520181
0.00051435
0.000508608
0.000502956
0.000497391
0.000491912
0.000486519
0.00048121
0.000475984
0.00047084
0.000465776
0.000460793
0.000455888
0.00045106
0.00044631
0.000441635
0.000437034
0.000432507
0.000428053
0.000423669
0.000419355
0.00041511
0.000410932
0.000406818
0.000402768
0.000398778
0.000394845
0.000390965
0.000387132
0.000383341
0.000379581
0.000375842
0.00037211
0.000368358
0.000364575
0.000360666
0.000356724
0.000352262
0.000348082
0.000341643
0.000330139
2.18292e-05
0.00010651
0.000220168
0.000312462
0.000374792
0.000411433
0.000426563
0.00042677
0.000416764
0.000403576
0.000395841
0.000395289
0.000404794
0.000422124
0.000444924
0.000472711
0.000506076
0.000545297
0.000589553
0.000653242
0.000727205
0.000807055
0.000890806
0.000960982
0.00102309
0.00107894
0.00112911
0.00117379
0.00121285
0.00124656
0.00127566
0.00130088
0.00132291
0.00134239
0.00135988
0.00137587
0.00139078
0.00140493
0.00141858
0.00143193
0.00144509
0.00145813
0.00147109
0.00148394
0.00149663
0.00150908
0.00152121
0.00153291
0.00154409
0.00155468
0.00156463
0.00157389
0.00158246
0.00159032
0.00159745
0.00160385
0.00160952
0.00161445
0.00161865
0.00162211
0.00162483
0.0016268
0.00162796
0.00162839
0.00162826
0.00162734
0.00162571
0.00162339
0.00162039
0.00161673
0.00161243
0.00160751
0.00160199
0.00159588
0.00158922
0.00158203
0.00157432
0.00156612
0.00155745
0.00154834
0.00153881
0.00152888
0.00151858
0.00150792
0.00149694
0.00148565
0.00147407
0.00146224
0.00145016
0.00143787
0.00142537
0.00141269
0.00139984
0.00138684
0.00137371
0.00136047
0.00134712
0.00133369
0.00132021
0.00130668
0.00129313
0.00127956
0.00126599
0.00125244
0.00123891
0.00122541
0.00121196
0.00119857
0.00118524
0.00117198
0.0011588
0.0011457
0.00113271
0.00111981
0.00110702
0.00109434
0.00108178
0.00106934
0.00105702
0.00104484
0.00103278
0.00102086
0.00100907
0.00099743
0.000985926
0.000974565
0.000963347
0.000952274
0.000941346
0.000930564
0.000919929
0.000909439
0.000899093
0.000888886
0.000878816
0.000868886
0.000859097
0.000849449
0.000839942
0.000830575
0.000821347
0.000812257
0.000803304
0.000794485
0.0007858
0.000777246
0.000768822
0.000760526
0.000752356
0.00074431
0.000736387
0.000728585
0.000720902
0.000713337
0.000705887
0.000698551
0.000691327
0.000684213
0.000677207
0.000670307
0.000663511
0.000656815
0.000650217
0.000643713
0.000637299
0.000630971
0.000624721
0.000618543
0.000612427
0.00060636
0.000600325
0.000594303
0.000588262
0.000582168
0.000575948
0.000569577
0.000562776
0.000555805
0.000547388
0.000531208
2.69634e-05
0.000121972
0.000240954
0.000357449
0.000435165
0.000482023
0.000505308
0.000513663
0.00051529
0.000516519
0.000523752
0.000540265
0.000566641
0.000601903
0.000645302
0.000696885
0.000757471
0.000841282
0.000937285
0.00103294
0.00112164
0.00120576
0.00128479
0.0013572
0.00142371
0.0014849
0.00154116
0.00159284
0.00164028
0.00168392
0.00172424
0.00176171
0.00179677
0.00182979
0.00186108
0.00189089
0.0019194
0.00194676
0.00197307
0.00199838
0.00202273
0.00204612
0.00206856
0.00209001
0.00211047
0.00212989
0.00214826
0.00216553
0.00218168
0.00219669
0.00221056
0.00222328
0.00223487
0.00224534
0.0022547
0.00226298
0.00227019
0.00227635
0.00228148
0.00228558
0.00228867
0.00229071
0.00229162
0.00229171
0.00229083
0.00228895
0.00228611
0.00228233
0.00227764
0.00227206
0.00226561
0.00225832
0.00225022
0.00224133
0.0022317
0.00222134
0.00221029
0.00219859
0.00218625
0.00217332
0.00215982
0.00214579
0.00213125
0.00211624
0.00210078
0.00208492
0.00206867
0.00205207
0.00203515
0.00201794
0.00200045
0.00198273
0.00196479
0.00194665
0.00192834
0.00190989
0.00189131
0.00187264
0.00185388
0.00183507
0.00181623
0.00179738
0.00177852
0.00175969
0.0017409
0.00172215
0.00170347
0.00168486
0.00166635
0.00164793
0.00162963
0.00161144
0.00159339
0.00157548
0.00155771
0.0015401
0.00152265
0.00150536
0.00148825
0.00147131
0.00145456
0.00143798
0.0014216
0.0014054
0.0013894
0.0013736
0.00135799
0.00134257
0.00132736
0.00131234
0.00129753
0.00128291
0.00126849
0.00125426
0.00124023
0.00122638
0.00121273
0.00119927
0.001186
0.00117292
0.00116003
0.00114733
0.00113482
0.00112249
0.00111034
0.00109837
0.00108657
0.00107495
0.0010635
0.00105222
0.0010411
0.00103015
0.00101937
0.00100874
0.000998262
0.000987943
0.000977775
0.000967755
0.000957881
0.00094815
0.000938558
0.000929102
0.000919778
0.000910581
0.000901506
0.000892547
0.000883696
0.000874944
0.000866279
0.000857686
0.000849146
0.000840634
0.000832117
0.00082355
0.000814864
0.000805998
0.000796748
0.00078715
0.000777
0.000757257
3.08068e-05
0.000135316
0.000261408
0.000392198
0.000488187
0.000549565
0.000587164
0.000610576
0.000628466
0.000648065
0.000674561
0.00071054
0.000756708
0.000813339
0.000880991
0.000971854
0.00107721
0.0011788
0.00127785
0.00137307
0.00146351
0.00154926
0.00163026
0.0017065
0.00177826
0.00184589
0.00190975
0.00197015
0.00202744
0.00208194
0.00213396
0.00218381
0.00223172
0.00227791
0.00232252
0.00236569
0.0024075
0.00244801
0.00248724
0.0025252
0.00256189
0.00259728
0.00263136
0.00266408
0.00269541
0.0027253
0.00275372
0.00278062
0.00280597
0.00282973
0.00285188
0.0028724
0.00289126
0.00290846
0.00292399
0.00293786
0.00295006
0.00296059
0.00296948
0.00297674
0.0029824
0.00298648
0.0029889
0.0029898
0.00298933
0.00298735
0.00298401
0.0029793
0.0029733
0.00296604
0.00295759
0.00294799
0.0029373
0.00292557
0.00291285
0.00289918
0.00288461
0.00286919
0.00285296
0.00283597
0.00281825
0.00279986
0.00278082
0.00276119
0.00274099
0.00272028
0.00269909
0.00267746
0.00265543
0.00263303
0.0026103
0.00258727
0.00256397
0.00254044
0.00251671
0.0024928
0.00246875
0.00244458
0.00242032
0.002396
0.00237164
0.00234727
0.00232291
0.00229858
0.0022743
0.00225009
0.00222596
0.00220193
0.00217803
0.00215425
0.00213062
0.00210714
0.00208383
0.00206071
0.00203777
0.00201503
0.00199249
0.00197017
0.00194806
0.00192619
0.00190454
0.00188312
0.00186195
0.00184102
0.00182033
0.00179989
0.00177971
0.00175977
0.00174008
0.00172065
0.00170147
0.00168254
0.00166386
0.00164542
0.00162723
0.00160929
0.00159159
0.00157413
0.00155692
0.00153995
0.00152321
0.00150671
0.00149045
0.00147442
0.00145862
0.00144304
0.00142768
0.00141255
0.00139763
0.00138292
0.00136842
0.00135413
0.00134005
0.00132616
0.00131247
0.00129897
0.00128566
0.00127254
0.00125961
0.00124685
0.00123426
0.00122185
0.0012096
0.00119752
0.00118559
0.00117381
0.00116216
0.00115064
0.00113924
0.00112794
0.00111672
0.00110555
0.00109439
0.0010832
0.00107191
0.00106045
0.00104864
0.00103649
0.00102422
0.00100179
3.23487e-05
0.000142484
0.000273869
0.000409601
0.000527338
0.00060841
0.000664426
0.000706445
0.000743676
0.000783341
0.000830449
0.000887903
0.000957435
0.00105015
0.0011574
0.00126399
0.00137002
0.00147324
0.00157312
0.00166927
0.00176145
0.00184969
0.00193406
0.00201473
0.00209195
0.002166
0.00223714
0.00230564
0.00237177
0.00243574
0.00249778
0.00255806
0.00261673
0.00267389
0.00272965
0.00278405
0.00283712
0.00288888
0.00293932
0.00298843
0.00303617
0.00308251
0.0031274
0.00317079
0.00321263
0.00325287
0.00329145
0.00332832
0.00336344
0.00339675
0.00342821
0.00345778
0.00348543
0.00351113
0.00353485
0.00355657
0.00357627
0.00359395
0.0036096
0.00362323
0.00363482
0.0036444
0.00365198
0.00365759
0.00366124
0.00366286
0.00366277
0.00366078
0.003657
0.00365148
0.00364427
0.00363543
0.00362501
0.00361308
0.00359969
0.00358492
0.00356883
0.00355148
0.00353295
0.0035133
0.00349259
0.00347091
0.0034483
0.00342484
0.00340058
0.0033756
0.00334996
0.0033237
0.0032969
0.00326959
0.00324184
0.00321368
0.00318518
0.00315636
0.00312728
0.00309797
0.00306848
0.00303883
0.00300906
0.00297922
0.00294932
0.0029194
0.00288949
0.00285962
0.0028298
0.00280006
0.00277043
0.00274091
0.00271154
0.00268233
0.00265329
0.00262444
0.00259579
0.00256737
0.00253917
0.0025112
0.00248349
0.00245604
0.00242884
0.00240193
0.00237529
0.00234893
0.00232286
0.00229709
0.00227161
0.00224643
0.00222155
0.00219697
0.00217269
0.00214872
0.00212506
0.00210169
0.00207863
0.00205586
0.00203339
0.00201122
0.00198934
0.00196776
0.00194646
0.00192546
0.00190474
0.00188431
0.00186415
0.00184428
0.00182468
0.00180535
0.00178629
0.00176749
0.00174895
0.00173067
0.00171264
0.00169486
0.00167732
0.00166002
0.00164296
0.00162613
0.00160953
0.00159316
0.001577
0.00156106
0.00154533
0.00152981
0.00151449
0.00149936
0.00148443
0.00146967
0.00145508
0.00144066
0.00142638
0.00141222
0.00139818
0.00138421
0.00137028
0.00135634
0.00134233
0.00132817
0.00131371
0.00129899
0.00128394
0.00125972
3.27892e-05
0.000144072
0.000275147
0.000409109
0.000538806
0.000642017
0.000719148
0.000780643
0.000836643
0.000894846
0.000963273
0.00105587
0.00116601
0.00128747
0.00140294
0.00151411
0.00162182
0.00172624
0.00182733
0.00192503
0.00201935
0.00211038
0.00219828
0.00228322
0.00236543
0.00244513
0.00252255
0.00259789
0.00267136
0.00274311
0.00281329
0.00288202
0.00294938
0.00301544
0.00308025
0.00314382
0.00320615
0.00326722
0.00332701
0.00338547
0.00344257
0.00349823
0.00355241
0.00360504
0.00365605
0.00370539
0.00375298
0.00379876
0.00384267
0.00388465
0.00392464
0.0039626
0.00399848
0.00403223
0.00406382
0.00409322
0.00412039
0.00414532
0.00416799
0.00418839
0.00420651
0.00422236
0.00423594
0.00424727
0.00425635
0.00426322
0.00426794
0.00427039
0.00427083
0.00426918
0.00426551
0.00425986
0.0042523
0.00424287
0.00423163
0.00421866
0.00420401
0.00418775
0.00416995
0.00415069
0.00413002
0.00410803
0.00408478
0.00406035
0.00403481
0.00400823
0.00398068
0.00395224
0.00392297
0.00389294
0.00386221
0.00383085
0.00379892
0.00376648
0.00373358
0.00370029
0.00366665
0.00363272
0.00359854
0.00356417
0.00352965
0.00349502
0.00346032
0.00342559
0.00339086
0.00335617
0.00332154
0.00328701
0.00325261
0.00321834
0.00318425
0.00315034
0.00311664
0.00308317
0.00304994
0.00301697
0.00298426
0.00295184
0.00291971
0.00288788
0.00285637
0.00282517
0.00279429
0.00276375
0.00273354
0.00270367
0.00267414
0.00264495
0.00261611
0.00258762
0.00255948
0.00253168
0.00250423
0.00247712
0.00245035
0.00242393
0.00239784
0.0023721
0.00234668
0.00232161
0.00229686
0.00227244
0.00224835
0.00222458
0.00220112
0.00217798
0.00215515
0.00213263
0.00211041
0.00208848
0.00206685
0.0020455
0.00202444
0.00200366
0.00198315
0.00196292
0.00194295
0.00192325
0.0019038
0.00188461
0.00186566
0.00184695
0.00182849
0.00181025
0.00179223
0.00177443
0.00175683
0.00173942
0.0017222
0.00170512
0.00168819
0.00167136
0.00165459
0.00163784
0.00162104
0.00160413
0.00158694
0.00156955
0.00155161
0.00152548
3.22259e-05
0.000141106
0.000268669
0.000397578
0.000521164
0.000633006
0.000726727
0.000808104
0.000891983
0.000987866
0.00109765
0.00122274
0.00135919
0.00148656
0.00160673
0.00172163
0.00183222
0.00193885
0.00204186
0.00214159
0.00223827
0.00233209
0.00242327
0.002512
0.00259849
0.00268296
0.00276558
0.00284652
0.00292596
0.003004
0.00308076
0.00315632
0.00323073
0.00330403
0.00337623
0.00344731
0.00351726
0.00358605
0.00365362
0.00371991
0.00378487
0.00384841
0.00391047
0.00397097
0.00402983
0.00408698
0.00414232
0.0041958
0.00424734
0.00429686
0.00434431
0.00438961
0.00443273
0.00447359
0.00451217
0.00454841
0.00458228
0.00461376
0.00464282
0.00466944
0.00469362
0.00471534
0.00473462
0.00475145
0.00476585
0.00477784
0.00478744
0.00479468
0.00479961
0.00480217
0.00480256
0.00480074
0.00479678
0.00479072
0.00478261
0.00477253
0.00476053
0.00474667
0.00473103
0.00471367
0.00469467
0.00467408
0.00465199
0.00462846
0.00460358
0.00457741
0.00455002
0.0045215
0.0044919
0.00446131
0.00442979
0.0043974
0.00436423
0.00433033
0.00429576
0.0042606
0.00422489
0.00418871
0.00415211
0.00411514
0.00407786
0.00404032
0.00400257
0.00396466
0.00392662
0.00388851
0.00385036
0.0038122
0.00377408
0.00373602
0.00369806
0.00366023
0.00362255
0.00358504
0.00354773
0.00351065
0.0034738
0.00343721
0.00340089
0.00336486
0.00332913
0.00329372
0.00325863
0.00322387
0.00318945
0.00315538
0.00312166
0.0030883
0.0030553
0.00302268
0.00299042
0.00295853
0.00292701
0.00289586
0.00286508
0.00283467
0.00280463
0.00277496
0.00274565
0.00271671
0.00268814
0.00265993
0.00263207
0.00260457
0.00257742
0.00255062
0.00252416
0.00249805
0.00247227
0.00244682
0.0024217
0.0023969
0.00237242
0.00234826
0.00232441
0.00230086
0.00227761
0.00225466
0.002232
0.00220963
0.00218754
0.00216572
0.00214417
0.00212289
0.00210186
0.00208107
0.00206052
0.0020402
0.00202007
0.00200014
0.00198036
0.00196072
0.00194117
0.00192165
0.00190211
0.00188247
0.00186259
0.00184254
0.00182179
0.00179347
3.08513e-05
0.000135011
0.000257904
0.000383067
0.000504917
0.000620948
0.000731688
0.000841033
0.000956352
0.00108266
0.00122111
0.00137113
0.0015133
0.00164514
0.00176927
0.00188758
0.00200118
0.0021107
0.00221654
0.0023189
0.00241818
0.00251476
0.00260894
0.00270098
0.00279111
0.00287953
0.00296643
0.00305196
0.00313625
0.00321941
0.00330153
0.00338266
0.00346284
0.00354208
0.00362038
0.0036977
0.003774
0.00384924
0.00392335
0.00399625
0.00406786
0.0041381
0.00420689
0.00427412
0.00433971
0.00440357
0.00446561
0.00452574
0.00458387
0.00463994
0.00469387
0.00474558
0.004795
0.0048421
0.0048868
0.00492906
0.00496884
0.00500611
0.00504084
0.00507301
0.0051026
0.00512961
0.00515403
0.00517587
0.00519513
0.00521183
0.005226
0.00523765
0.00524682
0.00525354
0.00525786
0.0052598
0.00525946
0.00525685
0.00525203
0.00524507
0.00523601
0.00522493
0.00521189
0.00519696
0.0051802
0.00516168
0.00514148
0.00511966
0.0050963
0.00507148
0.00504526
0.00501771
0.00498892
0.00495894
0.00492786
0.00489574
0.00486265
0.00482866
0.00479383
0.00475823
0.00472193
0.00468498
0.00464746
0.00460941
0.00457089
0.00453197
0.0044927
0.00445312
0.00441329
0.00437325
0.00433306
0.00429274
0.00425234
0.00421191
0.00417147
0.00413106
0.00409072
0.00405047
0.00401035
0.00397037
0.00393057
0.00389097
0.00385158
0.00381243
0.00377354
0.00373491
0.00369658
0.00365855
0.00362083
0.00358343
0.00354637
0.00350965
0.00347328
0.00343726
0.00340161
0.00336632
0.0033314
0.00329686
0.00326268
0.00322889
0.00319546
0.00316242
0.00312975
0.00309746
0.00306555
0.00303401
0.00300285
0.00297206
0.00294164
0.00291158
0.00288189
0.00285256
0.00282359
0.00279497
0.00276671
0.00273879
0.00271121
0.00268397
0.00265707
0.00263049
0.00260424
0.00257832
0.00255271
0.00252741
0.00250242
0.00247773
0.00245334
0.00242923
0.00240541
0.00238186
0.00235857
0.00233553
0.00231271
0.00229011
0.00226769
0.00224543
0.00222327
0.00220117
0.00217907
0.00215688
0.00213449
0.00211192
0.00208862
0.00205796
2.93023e-05
0.000128712
0.000248086
0.000372264
0.00049688
0.000620871
0.00074579
0.00087538
0.00101304
0.0011607
0.0013185
0.00148007
0.00162766
0.00176395
0.00189192
0.00201356
0.00213013
0.00224246
0.00235108
0.00245638
0.00255865
0.0026581
0.00275516
0.0028502
0.00294348
0.00303526
0.00312574
0.00321506
0.00330336
0.00339075
0.0034773
0.00356305
0.00364802
0.00373222
0.00381562
0.00389818
0.00397984
0.00406054
0.0041402
0.00421874
0.00429604
0.00437203
0.00444659
0.00451963
0.00459103
0.0046607
0.00472854
0.00479445
0.00485834
0.00492012
0.0049797
0.00503702
0.00509199
0.00514455
0.00519465
0.00524222
0.00528724
0.00532964
0.00536942
0.00540653
0.00544096
0.00547271
0.00550176
0.00552812
0.00555179
0.00557279
0.00559114
0.00560687
0.00561999
0.00563054
0.00563857
0.00564412
0.00564723
0.00564795
0.00564635
0.00564247
0.00563638
0.00562814
0.0056178
0.00560543
0.00559111
0.0055749
0.00555687
0.00553709
0.00551564
0.00549258
0.00546799
0.00544195
0.00541452
0.00538577
0.00535578
0.00532461
0.00529234
0.00525903
0.00522475
0.00518956
0.00515353
0.00511674
0.00507922
0.00504106
0.00500231
0.00496303
0.00492326
0.00488308
0.00484252
0.00480164
0.00476049
0.00471911
0.00467755
0.00463584
0.00459403
0.00455216
0.00451026
0.00446836
0.00442651
0.00438472
0.00434303
0.00430147
0.00426005
0.00421881
0.00417776
0.00413693
0.00409633
0.00405598
0.0040159
0.0039761
0.00393659
0.00389739
0.0038585
0.00381994
0.00378172
0.00374384
0.0037063
0.00366912
0.00363229
0.00359583
0.00355973
0.00352399
0.00348863
0.00345364
0.00341902
0.00338477
0.0033509
0.0033174
0.00328427
0.00325151
0.00321912
0.00318709
0.00315543
0.00312414
0.0030932
0.00306262
0.00303239
0.00300251
0.00297298
0.0029438
0.00291495
0.00288644
0.00285827
0.00283042
0.00280289
0.00277569
0.00274879
0.00272221
0.00269592
0.00266992
0.00264421
0.00261876
0.00259356
0.00256858
0.00254382
0.00251922
0.00249475
0.00247036
0.00244598
0.00242154
0.00239692
0.00237213
0.00234662
0.00231381
2.76154e-05
0.000122124
0.000238101
0.000361645
0.000489133
0.000619963
0.000756388
0.000900191
0.00105298
0.00121525
0.00138749
0.00155322
0.0017048
0.00184494
0.00197641
0.00210117
0.00222055
0.0023355
0.00244666
0.00255453
0.00265951
0.00276188
0.00286193
0.00295984
0.00305603
0.00315081
0.0032444
0.00333698
0.00342872
0.0035197
0.00361
0.00369967
0.00378872
0.00387713
0.00396489
0.00405192
0.00413817
0.00422356
0.004308
0.00439138
0.0044736
0.00455455
0.00463412
0.00471218
0.00478864
0.00486337
0.00493626
0.00500722
0.00507613
0.00514291
0.00520746
0.0052697
0.00532955
0.00538693
0.0054418
0.00549408
0.00554374
0.00559072
0.00563499
0.00567653
0.00571531
0.00575133
0.00578457
0.00581503
0.00584272
0.00586766
0.00588985
0.00590933
0.00592612
0.00594026
0.00595178
0.00596071
0.00596712
0.00597105
0.00597254
0.00597167
0.00596851
0.00596308
0.00595546
0.00594571
0.0059339
0.00592011
0.00590439
0.00588682
0.00586747
0.00584641
0.00582372
0.00579947
0.00577373
0.00574656
0.00571805
0.00568825
0.00565724
0.00562509
0.00559186
0.00555762
0.00552243
0.00548636
0.00544948
0.00541184
0.00537351
0.00533454
0.00529499
0.00525492
0.00521438
0.00517341
0.00513207
0.00509041
0.00504848
0.00500631
0.00496394
0.00492143
0.0048788