/*--------------------------------*- C++ -*----------------------------------*\
  =========                 |
  \\      /  F ield         | OpenFOAM: The Open Source CFD Toolbox
   \\    /   O peration     | Website:  https://openfoam.org
    \\  /    A nd           | Version:  8
     \\/     M anipulation  |
\*---------------------------------------------------------------------------*/
FoamFile
{
    version     2.0;
    format      ascii;
    class       surfaceScalarField;
    location    "1200";
    object      phi;
}
// * * * * * * * * * * * * * * * * * * * * * * * * * * * * * * * * * * * * * //

dimensions      [0 3 -1 0 0 0 0];

internalField   nonuniform List<scalar> 
24170
(
3.92539e-06
-7.91498e-07
3.76465e-06
1.6075e-07
3.63345e-06
1.31209e-07
3.43331e-06
2.00144e-07
3.28028e-06
1.53027e-07
3.18901e-06
9.11908e-08
3.13091e-06
5.81106e-08
3.08609e-06
4.58914e-08
3.04613e-06
4.23238e-08
3.01059e-06
3.8163e-08
2.97876e-06
3.38027e-08
2.94904e-06
3.07705e-08
2.92188e-06
2.73779e-08
2.89642e-06
2.52e-08
2.87227e-06
2.36051e-08
2.85194e-06
1.94831e-08
2.84098e-06
9.85587e-09
-6.38211e-09
2.84669e-06
3.58445e-06
-9.19499e-07
3.80424e-06
-5.90412e-08
3.74282e-06
1.92629e-07
3.6906e-06
2.52375e-07
3.63729e-06
2.06333e-07
3.59023e-06
1.3828e-07
3.55289e-06
9.55999e-08
3.52309e-06
7.56601e-08
3.49853e-06
6.65701e-08
3.47732e-06
5.92155e-08
3.45871e-06
5.25295e-08
3.44253e-06
4.72647e-08
3.42795e-06
4.23378e-08
3.41466e-06
3.87861e-08
3.40269e-06
3.57298e-08
3.39122e-06
3.10513e-08
3.38037e-06
2.08401e-08
4.77575e-09
3.36944e-06
3.68518e-06
-7.92482e-07
3.83639e-06
-2.1025e-07
3.91494e-06
1.14082e-07
3.94502e-06
2.22293e-07
3.94408e-06
2.07265e-07
3.92749e-06
1.54898e-07
3.90755e-06
1.15615e-07
3.88932e-06
9.36449e-08
3.874e-06
8.1197e-08
3.86056e-06
7.19163e-08
3.84834e-06
6.42563e-08
3.83728e-06
5.81354e-08
3.82692e-06
5.27791e-08
3.8174e-06
4.84749e-08
3.80891e-06
4.44332e-08
3.80098e-06
3.92526e-08
3.79195e-06
3.02055e-08
1.7793e-08
3.77944e-06
4.05359e-06
-6.4151e-07
4.1146e-06
-2.71259e-07
4.20799e-06
2.06918e-08
4.26635e-06
1.63933e-07
4.2907e-06
1.82927e-07
4.29287e-06
1.52749e-07
4.28571e-06
1.22819e-07
4.27631e-06
1.02844e-07
4.26727e-06
8.96866e-08
4.25873e-06
7.98179e-08
4.25056e-06
7.19499e-08
4.24283e-06
6.56349e-08
4.23535e-06
6.02463e-08
4.22824e-06
5.5693e-08
4.22149e-06
5.13521e-08
4.21464e-06
4.63445e-08
4.20599e-06
3.91821e-08
3.06563e-08
4.19351e-06
4.50491e-06
-5.09114e-07
4.51536e-06
-2.81708e-07
4.58529e-06
-4.92339e-08
4.64665e-06
1.02566e-07
4.68258e-06
1.46993e-07
4.69688e-06
1.38474e-07
4.69946e-06
1.20238e-07
4.69723e-06
1.04926e-07
4.69331e-06
9.32555e-08
4.68868e-06
8.40577e-08
4.68367e-06
7.66422e-08
4.67851e-06
7.06082e-08
4.67321e-06
6.54946e-08
4.66783e-06
6.11057e-08
4.66227e-06
5.70047e-08
4.65606e-06
5.27025e-08
4.64786e-06
4.75895e-08
4.26025e-08
4.63612e-06
5.00014e-06
-3.94663e-07
4.98614e-06
-2.67704e-07
5.03069e-06
-9.37787e-08
5.08506e-06
4.81983e-08
5.12454e-06
1.07517e-07
5.14609e-06
1.16941e-07
5.15584e-06
1.1049e-07
5.1594e-06
1.01286e-07
5.15985e-06
9.26083e-08
5.15859e-06
8.5084e-08
5.15629e-06
7.87433e-08
5.15333e-06
7.34429e-08
5.14984e-06
6.89338e-08
5.14589e-06
6.50636e-08
5.14136e-06
6.15865e-08
5.13584e-06
5.83088e-08
5.12839e-06
5.51473e-08
5.30492e-08
5.11808e-06
5.54382e-06
-2.97475e-07
5.51664e-06
-2.40529e-07
5.54055e-06
-1.17685e-07
5.58388e-06
4.87069e-09
5.62166e-06
6.97348e-08
5.64656e-06
9.20466e-08
5.66107e-06
9.59689e-08
5.66906e-06
9.32476e-08
5.67315e-06
8.84248e-08
5.67482e-06
8.33015e-08
5.67491e-06
7.85521e-08
5.6739e-06
7.43758e-08
5.67204e-06
7.07658e-08
5.6694e-06
6.76958e-08
5.66591e-06
6.50994e-08
5.66127e-06
6.29875e-08
5.65494e-06
6.15461e-08
6.15305e-08
5.6465e-06
4.34788e-06
-2.39242e-07
4.32251e-06
-2.15162e-07
4.33078e-06
-1.25951e-07
4.35419e-06
-1.85359e-08
4.3784e-06
4.55264e-08
4.39646e-06
7.39853e-08
4.40841e-06
8.40232e-08
4.41597e-06
8.56741e-08
4.42059e-06
8.37681e-08
4.42325e-06
8.0598e-08
4.42456e-06
7.71968e-08
4.4249e-06
7.40029e-08
4.42447e-06
7.11801e-08
4.42335e-06
6.88102e-08
4.42151e-06
6.69366e-08
4.41885e-06
6.56703e-08
4.41514e-06
6.52678e-08
6.63475e-08
4.41035e-06
5.08621e-06
-1.85599e-07
5.05777e-06
-1.86718e-07
5.0584e-06
-1.26578e-07
5.07686e-06
-3.7002e-08
5.09918e-06
2.32144e-08
5.11773e-06
5.54366e-08
5.13124e-06
7.05075e-08
5.14059e-06
7.63171e-08
5.14686e-06
7.74759e-08
5.15094e-06
7.64974e-08
5.15345e-06
7.46764e-08
5.15477e-06
7.26664e-08
5.15514e-06
7.07968e-08
5.15468e-06
6.9264e-08
5.15341e-06
6.82097e-08
5.15128e-06
6.78126e-08
5.14821e-06
6.83495e-08
7.02707e-08
5.14429e-06
5.94839e-06
-1.38193e-07
5.91832e-06
-1.56649e-07
5.91161e-06
-1.19865e-07
5.924e-06
-4.93964e-08
5.94286e-06
4.35908e-09
5.96058e-06
3.77172e-08
5.9748e-06
5.62916e-08
5.98546e-06
6.56468e-08
5.9932e-06
6.97361e-08
5.99867e-06
7.10175e-08
6.00242e-06
7.09156e-08
6.00485e-06
7.02397e-08
6.00618e-06
6.94578e-08
6.00658e-06
6.88668e-08
6.0061e-06
6.86872e-08
6.00478e-06
6.91346e-08
6.00267e-06
7.04604e-08
7.29739e-08
5.99997e-06
6.95439e-06
-9.83129e-08
6.92401e-06
-1.26278e-07
6.91113e-06
-1.06984e-07
6.9168e-06
-5.50653e-08
6.93087e-06
-9.71e-09
6.94635e-06
2.22398e-08
6.96015e-06
4.24933e-08
6.9714e-06
5.43966e-08
6.98017e-06
6.09618e-08
6.98684e-06
6.43479e-08
6.9918e-06
6.59552e-08
6.99538e-06
6.66645e-08
6.9978e-06
6.70302e-08
6.99924e-06
6.74235e-08
6.99982e-06
6.81124e-08
6.99963e-06
6.93232e-08
6.99883e-06
7.12659e-08
7.41273e-08
6.99768e-06
8.12719e-06
-6.64876e-08
8.09793e-06
-9.70208e-08
8.08056e-06
-8.96085e-08
8.07955e-06
-5.40583e-08
8.08793e-06
-1.80889e-08
8.09985e-06
1.03233e-08
8.11198e-06
3.03593e-08
8.12286e-06
4.35224e-08
8.13202e-06
5.17957e-08
8.1395e-06
5.68679e-08
8.14548e-06
5.99755e-08
8.15018e-06
6.19698e-08
8.15378e-06
6.34308e-08
8.15645e-06
6.47563e-08
8.15833e-06
6.62325e-08
8.15958e-06
6.80729e-08
8.1604e-06
7.04393e-08
7.34371e-08
8.16109e-06
9.49368e-06
-4.24386e-08
9.4668e-06
-7.01425e-08
9.44683e-06
-6.96399e-08
9.43991e-06
-4.71314e-08
9.44229e-06
-2.04675e-08
9.44965e-06
2.95586e-09
9.45895e-06
2.10648e-08
9.4684e-06
3.40708e-08
9.47716e-06
4.30365e-08
9.48491e-06
4.91207e-08
9.49159e-06
5.32934e-08
9.49727e-06
5.62912e-08
9.50205e-06
5.86457e-08
9.50607e-06
6.07374e-08
9.50947e-06
6.28331e-08
9.51243e-06
6.51188e-08
9.51515e-06
6.77129e-08
7.06686e-08
9.51792e-06
1.10854e-05
-2.51589e-08
1.10618e-05
-4.65023e-08
1.1041e-05
-4.88064e-08
1.10294e-05
-3.55513e-08
1.10261e-05
-1.71694e-08
1.10284e-05
6.05272e-10
1.1034e-05
1.5475e-08
1.10411e-05
2.6971e-08
1.10487e-05
3.54918e-08
1.10561e-05
4.17156e-08
1.1063e-05
4.6313e-08
1.10695e-05
4.98423e-08
1.10754e-05
5.2734e-08
1.10808e-05
5.53019e-08
1.10859e-05
5.77664e-08
1.10908e-05
6.02713e-08
1.10956e-05
6.2897e-08
6.56669e-08
1.11006e-05
1.29396e-05
-1.31185e-08
1.29194e-05
-2.62784e-08
1.28988e-05
-2.82516e-08
1.28839e-05
-2.06872e-08
1.28758e-05
-8.99542e-09
1.28732e-05
3.14519e-09
1.28748e-05
1.39402e-08
1.28789e-05
2.27885e-08
1.28847e-05
2.97445e-08
1.28913e-05
3.51429e-08
1.28982e-05
3.93829e-08
1.29052e-05
4.28275e-08
1.29122e-05
4.57688e-08
1.29191e-05
4.84238e-08
1.29259e-05
5.09416e-08
1.29327e-05
5.34138e-08
1.29398e-05
5.58835e-08
5.83537e-08
1.29471e-05
1.50998e-05
-4.48298e-09
1.50822e-05
-8.67572e-09
1.50621e-05
-8.11319e-09
1.50448e-05
-3.45784e-09
1.50327e-05
3.10999e-09
1.50259e-05
9.9389e-09
1.50237e-05
1.61619e-08
1.5025e-05
2.14642e-08
1.50289e-05
2.5853e-08
1.50346e-05
2.94843e-08
1.50414e-05
3.25538e-08
1.5049e-05
3.52422e-08
1.50571e-05
3.76926e-08
1.50655e-05
4.00063e-08
1.50742e-05
4.2246e-08
1.50832e-05
4.4441e-08
1.50925e-05
4.65939e-08
4.86863e-08
1.51021e-05
1.76171e-05
2.89322e-09
1.75999e-05
8.52343e-09
1.75787e-05
1.303e-08
1.7559e-05
1.62781e-08
1.75436e-05
1.84727e-08
1.75336e-05
1.99577e-08
1.75287e-05
2.10521e-08
1.75282e-05
2.19933e-08
1.75311e-05
2.29392e-08
1.75366e-05
2.39847e-08
1.7544e-05
2.51765e-08
1.75527e-05
2.65268e-08
1.75624e-05
2.80248e-08
1.75727e-05
2.96448e-08
1.75836e-05
3.13505e-08
1.7595e-05
3.31008e-08
1.76067e-05
3.48497e-08
3.65527e-08
1.76188e-05
1.78181e-05
1.10004e-08
1.77994e-05
2.72129e-08
1.77768e-05
3.56244e-08
1.7756e-05
3.70587e-08
1.77402e-05
3.43263e-08
1.77302e-05
2.99464e-08
1.77257e-05
2.54998e-08
1.7726e-05
2.17776e-08
1.77298e-05
1.90743e-08
1.77364e-05
1.73993e-08
1.77449e-05
1.66315e-08
1.77549e-05
1.66024e-08
1.77658e-05
1.71401e-08
1.77773e-05
1.80877e-08
1.77894e-05
1.93129e-08
1.78017e-05
2.07021e-08
1.78144e-05
2.21662e-08
2.36288e-08
1.78274e-05
1.58702e-05
2.21335e-08
1.58478e-05
4.95816e-08
1.58233e-05
6.01325e-08
1.58032e-05
5.72347e-08
1.57899e-05
4.76107e-08
1.57834e-05
3.63716e-08
1.57827e-05
2.61977e-08
1.57864e-05
1.81462e-08
1.57931e-05
1.23649e-08
1.58019e-05
8.6118e-09
1.5812e-05
6.49647e-09
1.5823e-05
5.62814e-09
1.58345e-05
5.66412e-09
1.58462e-05
6.32769e-09
1.58581e-05
7.39882e-09
1.58701e-05
8.71433e-09
1.58821e-05
1.01454e-08
1.16034e-08
1.58942e-05
1.41313e-05
3.95387e-08
1.41021e-05
7.87071e-08
1.40745e-05
8.77879e-08
1.40557e-05
7.60386e-08
1.40469e-05
5.64137e-08
1.40462e-05
3.70402e-08
1.40512e-05
2.12108e-08
1.40597e-05
9.5831e-09
1.40704e-05
1.7632e-09
1.4082e-05
-3.0484e-09
1.40941e-05
-5.60418e-09
1.41063e-05
-6.56003e-09
1.41184e-05
-6.41549e-09
1.41303e-05
-5.56005e-09
1.41419e-05
-4.26345e-09
1.41534e-05
-2.72425e-09
1.41646e-05
-1.07992e-09
5.71921e-10
1.41756e-05
1.25772e-05
6.73555e-08
1.25392e-05
1.1674e-07
1.25091e-05
1.17889e-07
1.24942e-05
9.08911e-08
1.24928e-05
5.78143e-08
1.25002e-05
2.96839e-08
1.25122e-05
9.13284e-09
1.25264e-05
-4.49423e-09
1.25409e-05
-1.28331e-08
1.25552e-05
-1.73452e-08
1.25689e-05
-1.92803e-08
1.25819e-05
-1.94982e-08
1.25941e-05
-1.86525e-08
1.26057e-05
-1.71583e-08
1.26167e-05
-1.5315e-08
1.26273e-05
-1.33133e-08
1.26375e-05
-1.12754e-08
-9.29334e-09
1.26473e-05
1.11862e-05
1.10916e-07
1.11384e-05
1.6457e-07
1.11088e-05
1.47521e-07
1.11022e-05
9.7485e-08
1.11117e-05
4.83136e-08
1.11289e-05
1.24032e-08
1.11486e-05
-1.04583e-08
1.11678e-05
-2.37227e-08
1.11855e-05
-3.0502e-08
1.12014e-05
-3.3284e-08
1.12157e-05
-3.35503e-08
1.12285e-05
-3.23511e-08
1.12402e-05
-3.03002e-08
1.12508e-05
-2.78606e-08
1.12608e-05
-2.52746e-08
1.12701e-05
-2.26731e-08
1.1279e-05
-2.01614e-08
-1.77802e-08
1.12875e-05
9.93908e-06
1.76452e-07
9.88248e-06
2.21163e-07
9.85873e-06
1.71262e-07
9.86593e-06
9.02758e-08
9.88961e-06
2.46396e-08
9.9176e-06
-1.55536e-08
9.94392e-06
-3.67909e-08
9.96668e-06
-4.6403e-08
9.98571e-06
-4.96016e-08
1.00017e-05
-4.92784e-08
1.00152e-05
-4.71146e-08
1.00269e-05
-4.39958e-08
1.00371e-05
-4.0523e-08
1.00462e-05
-3.70144e-08
1.00546e-05
-3.36414e-08
1.00623e-05
-3.04406e-08
1.00696e-05
-2.74409e-08
-2.47049e-08
1.00765e-05
8.81963e-06
2.69916e-07
8.75785e-06
2.82944e-07
8.74788e-06
1.81226e-07
8.77481e-06
6.33232e-08
8.81458e-06
-1.51282e-08
8.85212e-06
-5.30897e-08
8.88269e-06
-6.72247e-08
8.90623e-06
-7.00188e-08
8.92427e-06
-6.76059e-08
8.93842e-06
-6.33585e-08
8.94983e-06
-5.83947e-08
8.95924e-06
-5.33305e-08
8.96721e-06
-4.84663e-08
8.97418e-06
-4.40025e-08
8.98049e-06
-3.99942e-08
8.98632e-06
-3.62921e-08
8.99174e-06
-3.2905e-08
-2.98873e-08
8.99691e-06
7.81391e-06
3.96675e-07
7.75391e-06
3.42943e-07
7.76868e-06
1.6644e-07
7.82054e-06
1.14612e-08
7.87567e-06
-7.02735e-08
7.91913e-06
-9.64894e-08
7.94967e-06
-9.78324e-08
7.97057e-06
-9.06426e-08
7.98484e-06
-8.15754e-08
7.99524e-06
-7.35382e-08
8.00315e-06
-6.60958e-08
8.00936e-06
-5.94353e-08
8.01442e-06
-5.33077e-08
8.01874e-06
-4.81907e-08
8.02269e-06
-4.38825e-08
8.02632e-06
-3.99555e-08
8.02969e-06
-3.63291e-08
-3.32002e-08
8.03296e-06
6.90424e-06
5.66768e-07
6.86137e-06
3.85805e-07
6.91717e-06
1.10634e-07
6.99674e-06
-6.81331e-08
7.06253e-06
-1.36071e-07
7.10529e-06
-1.39267e-07
7.13032e-06
-1.22546e-07
7.14448e-06
-1.04615e-07
7.15208e-06
-8.89759e-08
7.15709e-06
-7.57944e-08
7.16036e-06
-6.66437e-08
7.16269e-06
-5.96183e-08
7.16412e-06
-5.41357e-08
7.16536e-06
-4.91607e-08
7.16661e-06
-4.52166e-08
7.16779e-06
-4.16574e-08
7.16889e-06
-3.77472e-08
-3.46634e-08
7.17011e-06
6.07162e-06
7.97662e-07
6.08526e-06
3.72164e-07
6.19865e-06
-2.77351e-09
6.2999e-06
-1.69398e-07
6.36526e-06
-2.01462e-07
6.39754e-06
-1.71504e-07
6.41011e-06
-1.35219e-07
6.41343e-06
-1.06943e-07
6.41239e-06
-8.57931e-08
6.40989e-06
-7.4008e-08
6.40746e-06
-6.45102e-08
6.40486e-06
-5.76811e-08
6.40233e-06
-5.11083e-08
6.39997e-06
-4.64765e-08
6.39809e-06
-4.37501e-08
6.39676e-06
-4.01718e-08
6.39514e-06
-3.64423e-08
-3.40958e-08
6.39391e-06
5.35805e-06
1.05451e-06
5.50649e-06
2.23716e-07
5.64777e-06
-1.44085e-07
5.73564e-06
-2.57314e-07
5.77646e-06
-2.42347e-07
5.78324e-06
-1.78425e-07
5.77528e-06
-1.26643e-07
5.76328e-06
-9.40044e-08
5.74975e-06
-7.56513e-08
5.73931e-06
-6.40094e-08
5.73029e-06
-5.65008e-08
5.72239e-06
-5.00014e-08
5.71428e-06
-4.41824e-08
5.70724e-06
-3.97257e-08
5.70186e-06
-3.77856e-08
5.69671e-06
-3.54022e-08
5.6917e-06
-3.1465e-08
-2.96536e-08
5.68737e-06
5.04576e-06
1.01105e-06
5.36491e-06
-9.54497e-08
5.35251e-06
-1.31766e-07
5.33285e-06
-2.37745e-07
5.296e-06
-2.05651e-07
5.25016e-06
-1.32589e-07
5.20891e-06
-8.47325e-08
5.17485e-06
-6.08213e-08
5.14634e-06
-4.98259e-08
5.12483e-06
-4.29546e-08
5.10676e-06
-3.93126e-08
5.09059e-06
-3.559e-08
5.07487e-06
-3.02686e-08
5.06152e-06
-2.66321e-08
5.05062e-06
-2.70199e-08
5.0397e-06
-2.44148e-08
5.02919e-06
-2.02437e-08
-2.11068e-08
5.0213e-06
5.4676e-06
5.37215e-06
5.24037e-06
5.00261e-06
4.79694e-06
4.66444e-06
4.57967e-06
4.51835e-06
4.46847e-06
4.42535e-06
4.38573e-06
4.34971e-06
4.31933e-06
4.29269e-06
4.26567e-06
4.24143e-06
4.22142e-06
4.20064e-06
2.3122e-08
-2.31197e-08
2.372e-07
-2.14078e-07
4.89325e-07
-2.52094e-07
7.09593e-07
-2.20245e-07
8.77309e-07
-1.67696e-07
9.88439e-07
-1.11119e-07
1.0441e-06
-5.56518e-08
1.04652e-06
-2.4215e-09
1.00102e-06
4.5513e-08
9.17749e-07
8.3268e-08
8.11948e-07
1.05811e-07
7.02759e-07
1.09177e-07
6.09974e-07
9.27818e-08
5.43685e-07
6.62994e-08
4.92541e-07
5.11621e-08
4.33362e-07
5.98804e-08
3.47057e-07
8.61669e-08
2.2196e-07
1.2587e-07
4.36584e-08
1.77886e-07
-2.018e-07
2.44831e-07
-5.04334e-07
3.02277e-07
-8.45321e-07
3.40736e-07
-1.20966e-06
3.64345e-07
-1.58705e-06
3.77404e-07
-1.96865e-06
3.81639e-07
-2.34448e-06
3.7585e-07
-2.70651e-06
3.62056e-07
-3.04959e-06
3.43087e-07
-3.36988e-06
3.20304e-07
-3.66505e-06
2.95176e-07
-3.93424e-06
2.69192e-07
-4.17776e-06
2.43526e-07
-4.39664e-06
2.18884e-07
-4.59237e-06
1.95723e-07
-4.76663e-06
1.74268e-07
-4.92123e-06
1.54602e-07
-5.05792e-06
1.36685e-07
-5.17832e-06
1.20401e-07
-5.28391e-06
1.05589e-07
-5.37598e-06
9.20679e-08
-5.45563e-06
7.96566e-08
-5.52382e-06
6.81822e-08
-5.5813e-06
5.74896e-08
-5.62875e-06
4.74448e-08
-5.66669e-06
3.79387e-08
-5.69557e-06
2.88841e-08
-5.71578e-06
2.02096e-08
-5.72767e-06
1.18855e-08
-5.73171e-06
4.03959e-09
-5.72877e-06
-2.93991e-09
-5.71993e-06
-8.83831e-09
-5.70597e-06
-1.39649e-08
-5.68728e-06
-1.86812e-08
-5.66414e-06
-2.31486e-08
-5.63669e-06
-2.74451e-08
-5.60509e-06
-3.15989e-08
-5.56947e-06
-3.56246e-08
-5.52994e-06
-3.95293e-08
-5.48662e-06
-4.33138e-08
-5.43965e-06
-4.69772e-08
-5.38913e-06
-5.05168e-08
-5.3352e-06
-5.39292e-08
-5.27799e-06
-5.7211e-08
-5.21763e-06
-6.03589e-08
-5.15426e-06
-6.33704e-08
-5.08802e-06
-6.62425e-08
-5.01905e-06
-6.89715e-08
-4.94749e-06
-7.15554e-08
-4.8735e-06
-7.39924e-08
-4.79722e-06
-7.62813e-08
-4.71879e-06
-7.84214e-08
-4.63838e-06
-8.04122e-08
-4.55613e-06
-8.22541e-08
-4.47218e-06
-8.39478e-08
-4.38669e-06
-8.54942e-08
-4.29979e-06
-8.68952e-08
-4.21164e-06
-8.81529e-08
-4.12237e-06
-8.92699e-08
-4.03212e-06
-9.02491e-08
-3.94102e-06
-9.10942e-08
-3.84921e-06
-9.18091e-08
-3.75682e-06
-9.23982e-08
-3.66395e-06
-9.28663e-08
-3.57073e-06
-9.3219e-08
-3.47727e-06
-9.34624e-08
-3.38366e-06
-9.36037e-08
-3.29001e-06
-9.36515e-08
-3.1964e-06
-9.36161e-08
-3.10289e-06
-9.35103e-08
-3.00954e-06
-9.335e-08
-2.91638e-06
-9.3156e-08
-2.82343e-06
-9.29535e-08
-2.73067e-06
-9.27606e-08
-2.63811e-06
-9.2557e-08
-2.54585e-06
-9.22575e-08
-2.45409e-06
-9.17609e-08
-2.36311e-06
-9.09816e-08
-2.27318e-06
-8.9937e-08
-2.18439e-06
-8.87838e-08
-2.09677e-06
-8.76291e-08
-2.01029e-06
-8.6473e-08
-1.92499e-06
-8.52996e-08
-1.84089e-06
-8.41016e-08
-1.75802e-06
-8.28781e-08
-1.67639e-06
-8.16315e-08
-1.59602e-06
-8.03657e-08
-1.51694e-06
-7.90843e-08
-1.43915e-06
-7.77903e-08
-1.36267e-06
-7.64814e-08
-1.28754e-06
-7.5137e-08
-1.21377e-06
-7.3769e-08
-1.14137e-06
-7.24054e-08
-1.07033e-06
-7.10409e-08
-1.00065e-06
-6.96769e-08
-9.32338e-07
-6.83144e-08
-8.65385e-07
-6.69548e-08
-7.99786e-07
-6.56004e-08
-7.35533e-07
-6.42539e-08
-6.72617e-07
-6.29172e-08
-6.11029e-07
-6.15898e-08
-5.50758e-07
-6.02722e-08
-4.91791e-07
-5.89673e-08
-4.34111e-07
-5.76811e-08
-3.77692e-07
-5.64193e-08
-3.22515e-07
-5.51776e-08
-2.68563e-07
-5.39528e-08
-2.15814e-07
-5.27487e-08
-1.64249e-07
-5.15646e-08
-1.1386e-07
-5.03885e-08
-6.46385e-08
-4.92205e-08
-1.67065e-08
-4.79307e-08
3.00669e-08
-4.67721e-08
7.59889e-08
-4.59207e-08
1.20954e-07
-4.49641e-08
1.64859e-07
-4.39044e-08
2.07701e-07
-4.28409e-08
2.49496e-07
-4.17947e-08
2.90276e-07
-4.07783e-08
3.3007e-07
-3.97938e-08
3.68911e-07
-3.88397e-08
4.06825e-07
-3.79142e-08
4.43842e-07
-3.70159e-08
4.79985e-07
-3.61436e-08
5.15282e-07
-3.52967e-08
5.49757e-07
-3.44746e-08
5.83434e-07
-3.36769e-08
6.16338e-07
-3.29035e-08
6.48493e-07
-3.21541e-08
6.79922e-07
-3.14288e-08
7.1065e-07
-3.07274e-08
7.407e-07
-3.00499e-08
7.70097e-07
-2.93965e-08
7.98865e-07
-2.87672e-08
8.27027e-07
-2.81618e-08
8.54608e-07
-2.75806e-08
8.81632e-07
-2.70234e-08
9.08123e-07
-2.649e-08
9.34104e-07
-2.59802e-08
9.59598e-07
-2.54934e-08
9.84628e-07
-2.5029e-08
1.00921e-06
-2.45856e-08
1.03338e-06
-2.41613e-08
1.05713e-06
-2.37534e-08
1.08049e-06
-2.33577e-08
1.10346e-06
-2.29686e-08
1.12604e-06
-2.2578e-08
1.14821e-06
-2.21745e-08
1.16996e-06
-2.17423e-08
1.19122e-06
-2.12593e-08
1.21191e-06
-2.06945e-08
1.23192e-06
-2.00035e-08
1.25104e-06
-1.91227e-08
1.269e-06
-1.79545e-08
1.28535e-06
-1.63547e-08
1.2994e-06
-1.40482e-08
1.31003e-06
-1.06244e-08
1.3146e-06
-4.56027e-09
1.30775e-06
6.85471e-09
1.27821e-06
2.95347e-08
7.23284e-08
1.20589e-06
2.54187e-07
-2.77327e-07
4.90087e-07
-4.49974e-07
6.39674e-07
-4.01676e-07
7.24308e-07
-3.04877e-07
7.63823e-07
-2.07203e-07
7.69771e-07
-1.17071e-07
7.48841e-07
-3.4715e-08
7.0666e-07
3.97522e-08
6.46301e-07
1.05877e-07
5.67675e-07
1.61885e-07
4.70062e-07
2.03431e-07
3.51794e-07
2.27434e-07
2.06833e-07
2.37749e-07
2.36377e-08
2.4951e-07
-2.08577e-07
2.83383e-07
-4.94216e-07
3.45613e-07
-8.32174e-07
4.24213e-07
-1.21203e-06
5.05742e-07
-1.61584e-06
5.8166e-07
-2.01729e-06
6.46217e-07
-2.40731e-06
6.9225e-07
-2.78278e-06
7.162e-07
-3.13773e-06
7.19288e-07
-3.46515e-06
7.04832e-07
-3.75991e-06
6.76406e-07
-4.02106e-06
6.36999e-07
-4.249e-06
5.90001e-07
-4.44501e-06
5.39105e-07
-4.61201e-06
4.87301e-07
-4.75349e-06
4.36663e-07
-4.87284e-06
3.88539e-07
-4.97321e-06
3.43903e-07
-5.0575e-06
3.03169e-07
-5.1282e-06
2.66425e-07
-5.18744e-06
2.33506e-07
-5.23695e-06
2.04112e-07
-5.27813e-06
1.77872e-07
-5.31213e-06
1.54395e-07
-5.33984e-06
1.33298e-07
-5.362e-06
1.14231e-07
-5.37922e-06
9.68821e-08
-5.39203e-06
8.09856e-08
-5.40086e-06
6.63196e-08
-5.40612e-06
5.27022e-08
-5.40816e-06
3.99868e-08
-5.40734e-06
2.80583e-08
-5.40397e-06
1.68391e-08
-5.39838e-06
6.29417e-09
-5.39072e-06
-3.62037e-09
-5.38056e-06
-1.30943e-08
-5.36703e-06
-2.23677e-08
-5.34953e-06
-3.14698e-08
-5.32787e-06
-4.03349e-08
-5.30206e-06
-4.89593e-08
-5.27216e-06
-5.73499e-08
-5.23825e-06
-6.55128e-08
-5.20042e-06
-7.3451e-08
-5.15878e-06
-8.11638e-08
-5.11345e-06
-8.8648e-08
-5.06453e-06
-9.58979e-08
-5.01214e-06
-1.02907e-07
-4.9564e-06
-1.09667e-07
-4.89744e-06
-1.16171e-07
-4.83539e-06
-1.22411e-07
-4.77038e-06
-1.28383e-07
-4.70254e-06
-1.34081e-07
-4.63201e-06
-1.39496e-07
-4.55894e-06
-1.44624e-07
-4.48347e-06
-1.49463e-07
-4.40575e-06
-1.54009e-07
-4.32591e-06
-1.58261e-07
-4.2441e-06
-1.62219e-07
-4.16047e-06
-1.65882e-07
-4.07517e-06
-1.69253e-07
-3.98833e-06
-1.72333e-07
-3.9001e-06
-1.75126e-07
-3.81061e-06
-1.77636e-07
-3.72001e-06
-1.79868e-07
-3.62843e-06
-1.81829e-07
-3.536e-06
-1.83524e-07
-3.44285e-06
-1.84962e-07
-3.3491e-06
-1.8615e-07
-3.25487e-06
-1.87099e-07
-3.16027e-06
-1.87818e-07
-3.06541e-06
-1.88317e-07
-2.97041e-06
-1.88609e-07
-2.87536e-06
-1.88705e-07
-2.78035e-06
-1.88618e-07
-2.6855e-06
-1.88361e-07
-2.59091e-06
-1.87947e-07
-2.49667e-06
-1.87387e-07
-2.40294e-06
-1.8669e-07
-2.30985e-06
-1.85849e-07
-2.21757e-06
-1.84837e-07
-2.12622e-06
-1.8361e-07
-2.03584e-06
-1.82138e-07
-1.94641e-06
-1.80418e-07
-1.85786e-06
-1.7849e-07
-1.77021e-06
-1.76432e-07
-1.68354e-06
-1.74297e-07
-1.59792e-06
-1.72098e-07
-1.51338e-06
-1.69837e-07
-1.42997e-06
-1.67516e-07
-1.34771e-06
-1.65137e-07
-1.26664e-06
-1.62706e-07
-1.18677e-06
-1.60229e-07
-1.10815e-06
-1.57711e-07
-1.03078e-06
-1.55156e-07
-9.547e-07
-1.52565e-07
-8.79899e-07
-1.49939e-07
-8.06378e-07
-1.47291e-07
-7.3415e-07
-1.44635e-07
-6.63218e-07
-1.41973e-07
-5.93586e-07
-1.3931e-07
-5.25252e-07
-1.3665e-07
-4.58214e-07
-1.33993e-07
-3.9247e-07
-1.31346e-07
-3.28013e-07
-1.28712e-07
-2.64834e-07
-1.26097e-07
-2.02922e-07
-1.23503e-07
-1.42269e-07
-1.20927e-07
-8.28621e-08
-1.18375e-07
-2.46956e-08
-1.15848e-07
3.22444e-08
-1.1336e-07
8.79861e-08
-1.1092e-07
1.42547e-07
-1.08514e-07
1.95937e-07
-1.06139e-07
2.48172e-07
-1.038e-07
2.99279e-07
-1.01495e-07
3.49287e-07
-9.92283e-08
3.98354e-07
-9.69974e-08
4.46455e-07
-9.48724e-08
4.93372e-07
-9.28379e-08
5.39174e-07
-9.07653e-08
5.83937e-07
-8.86676e-08
6.27694e-07
-8.65977e-08
6.70474e-07
-8.45745e-08
7.12302e-07
-8.26051e-08
7.53199e-07
-8.06907e-08
7.9319e-07
-7.88302e-08
8.32297e-07
-7.70219e-08
8.70546e-07
-7.52641e-08
9.07958e-07
-7.35556e-08
9.44557e-07
-7.18956e-08
9.80366e-07
-7.02834e-08
1.01541e-06
-6.87186e-08
1.0497e-06
-6.72007e-08
1.08328e-06
-6.57298e-08
1.11616e-06
-6.43056e-08
1.14836e-06
-6.29281e-08
1.17991e-06
-6.15974e-08
1.21082e-06
-6.03134e-08
1.24113e-06
-5.90763e-08
1.27086e-06
-5.78859e-08
1.30002e-06
-5.67422e-08
1.32864e-06
-5.5645e-08
1.35675e-06
-5.45939e-08
1.38435e-06
-5.35882e-08
1.41149e-06
-5.26267e-08
1.43817e-06
-5.17077e-08
1.46441e-06
-5.08285e-08
1.49023e-06
-4.99852e-08
1.51565e-06
-4.91723e-08
1.54068e-06
-4.83819e-08
1.56531e-06
-4.76029e-08
1.58956e-06
-4.68201e-08
1.61339e-06
-4.60121e-08
1.6368e-06
-4.51494e-08
1.65973e-06
-4.41909e-08
1.68212e-06
-4.30791e-08
1.70385e-06
-4.17323e-08
1.72476e-06
-4.00325e-08
1.74461e-06
-3.7803e-08
1.76303e-06
-3.47743e-08
1.77946e-06
-3.04857e-08
1.79303e-06
-2.41847e-08
1.80275e-06
-1.42777e-08
1.80762e-06
1.99324e-09
1.80574e-06
3.14196e-08
8.8028e-08
1.79003e-06
2.46014e-07
-5.2336e-07
3.42331e-07
-5.46295e-07
3.5862e-07
-4.17962e-07
3.47577e-07
-2.93824e-07
3.19877e-07
-1.79496e-07
2.75795e-07
-7.29881e-08
2.14621e-07
2.64625e-08
1.35303e-07
1.19066e-07
3.67804e-08
2.04402e-07
-8.31097e-08
2.81773e-07
-2.30073e-07
3.50395e-07
-4.14629e-07
4.1199e-07
-6.50188e-07
4.73306e-07
-9.43672e-07
5.42998e-07
-1.28492e-06
6.24629e-07
-1.65202e-06
7.12711e-07
-2.02413e-06
7.96317e-07
-2.38438e-06
8.65986e-07
-2.71889e-06
9.16157e-07
-3.01712e-06
9.44429e-07
-3.27519e-06
9.50318e-07
-3.49408e-06
9.35101e-07
-3.67679e-06
9.02e-07
-3.82735e-06
8.55399e-07
-3.95049e-06
7.99549e-07
-4.05162e-06
7.38133e-07
-4.13608e-06
6.74455e-07
-4.20824e-06
6.11272e-07
-4.27156e-06
5.50616e-07
-4.32864e-06
4.93742e-07
-4.38135e-06
4.41256e-07
-4.43084e-06
3.93392e-07
-4.47774e-06
3.50066e-07
-4.52231e-06
3.10998e-07
-4.5646e-06
2.75796e-07
-4.60451e-06
2.44022e-07
-4.64187e-06
2.15234e-07
-4.6765e-06
1.89018e-07
-4.7082e-06
1.64997e-07
-4.73681e-06
1.42839e-07
-4.76219e-06
1.22263e-07
-4.78423e-06
1.03031e-07
-4.80286e-06
8.49432e-08
-4.81799e-06
6.78361e-08
-4.82957e-06
5.15694e-08
-4.83754e-06
3.6024e-08
-4.8418e-06
2.1098e-08
-4.8422e-06
6.6976e-09
-4.83854e-06
-7.28386e-09
-4.83067e-06
-2.09607e-08
-4.81865e-06
-3.43925e-08
-4.80255e-06
-4.7567e-08
-4.78242e-06
-6.04618e-08
-4.75831e-06
-7.30685e-08
-4.73028e-06
-8.53808e-08
-4.6984e-06
-9.73928e-08
-4.66275e-06
-1.09098e-07
-4.62343e-06
-1.20487e-07
-4.58053e-06
-1.3155e-07
-4.53415e-06
-1.42275e-07
-4.48441e-06
-1.52651e-07
-4.43141e-06
-1.62664e-07
-4.37528e-06
-1.723e-07
-4.31614e-06
-1.8155e-07
-4.25412e-06
-1.90405e-07
-4.18935e-06
-1.98855e-07
-4.12195e-06
-2.06889e-07
-4.05208e-06
-2.145e-07
-3.97986e-06
-2.21683e-07
-3.90543e-06
-2.28434e-07
-3.82894e-06
-2.3475e-07
-3.75053e-06
-2.40629e-07
-3.67034e-06
-2.46073e-07
-3.58851e-06
-2.51084e-07
-3.50518e-06
-2.55663e-07
-3.42049e-06
-2.59816e-07
-3.33458e-06
-2.6355e-07
-3.24758e-06
-2.6687e-07
-3.15962e-06
-2.69786e-07
-3.07084e-06
-2.72307e-07
-2.98135e-06
-2.74444e-07
-2.8913e-06
-2.76208e-07
-2.80078e-06
-2.77612e-07
-2.70993e-06
-2.78669e-07
-2.61885e-06
-2.79394e-07
-2.52766e-06
-2.798e-07
-2.43646e-06
-2.79904e-07
-2.34536e-06
-2.79719e-07
-2.25446e-06
-2.7926e-07
-2.16387e-06
-2.7854e-07
-2.07369e-06
-2.77571e-07
-1.98402e-06
-2.76359e-07
-1.89496e-06
-2.74902e-07
-1.80661e-06
-2.73188e-07
-1.71902e-06
-2.71202e-07
-1.63222e-06
-2.68941e-07
-1.54621e-06
-2.66422e-07
-1.46102e-06
-2.6368e-07
-1.3767e-06
-2.60761e-07
-1.29329e-06
-2.577e-07
-1.21088e-06
-2.54517e-07
-1.12949e-06
-2.51225e-07
-1.04917e-06
-2.47832e-07
-9.6996e-07
-2.44349e-07
-8.91881e-07
-2.40785e-07
-8.14963e-07
-2.37148e-07
-7.39227e-07
-2.33448e-07
-6.64693e-07
-2.2969e-07
-5.91376e-07
-2.25883e-07
-5.19281e-07
-2.22035e-07
-4.48416e-07
-2.18157e-07
-3.78793e-07
-2.14259e-07
-3.10416e-07
-2.10351e-07
-2.43288e-07
-2.06439e-07
-1.77409e-07
-2.0253e-07
-1.12777e-07
-1.98626e-07
-4.93878e-08
-1.94735e-07
1.27641e-08
-1.90864e-07
7.36832e-08
-1.87017e-07
1.33378e-07
-1.83198e-07
1.91861e-07
-1.7941e-07
2.49144e-07
-1.75659e-07
3.05244e-07
-1.71949e-07
3.60172e-07
-1.68288e-07
4.13934e-07
-1.64682e-07
4.66546e-07
-1.61126e-07
5.18028e-07
-1.57621e-07
5.68399e-07
-1.5417e-07
6.17682e-07
-1.50778e-07
6.65905e-07
-1.47451e-07
7.13112e-07
-1.44204e-07
7.59285e-07
-1.41045e-07
8.04391e-07
-1.37944e-07
8.48477e-07
-1.34852e-07
8.91589e-07
-1.3178e-07
9.33749e-07
-1.28757e-07
9.74976e-07
-1.25802e-07
1.01529e-06
-1.22918e-07
1.05471e-06
-1.20109e-07
1.09325e-06
-1.17374e-07
1.13094e-06
-1.14712e-07
1.1678e-06
-1.12123e-07
1.20385e-06
-1.09605e-07
1.23911e-06
-1.07157e-07
1.27361e-06
-1.0478e-07
1.30736e-06
-1.02472e-07
1.34039e-06
-1.00232e-07
1.37272e-06
-9.80621e-08
1.40438e-06
-9.59606e-08
1.43538e-06
-9.39278e-08
1.46575e-06
-9.19638e-08
1.4955e-06
-9.00686e-08
1.52467e-06
-8.82421e-08
1.55327e-06
-8.64845e-08
1.58132e-06
-8.47954e-08
1.60885e-06
-8.31746e-08
1.63588e-06
-8.16215e-08
1.66242e-06
-8.01348e-08
1.68851e-06
-7.87131e-08
1.71416e-06
-7.73537e-08
1.73938e-06
-7.60526e-08
1.7642e-06
-7.48043e-08
1.78863e-06
-7.36009e-08
1.81268e-06
-7.24311e-08
1.83635e-06
-7.12794e-08
1.85966e-06
-7.0124e-08
1.88258e-06
-6.89352e-08
1.9051e-06
-6.76714e-08
1.92719e-06
-6.62756e-08
1.94878e-06
-6.46674e-08
1.96978e-06
-6.27338e-08
1.99006e-06
-6.0312e-08
2.00942e-06
-5.71612e-08
2.02756e-06
-5.29183e-08
2.04407e-06
-4.69925e-08
2.05833e-06
-3.84441e-08
2.06957e-06
-2.55133e-08
2.07691e-06
-5.35621e-09
2.08082e-06
2.75155e-08
8.54862e-08
2.08336e-06
9.374e-08
-6.17109e-07
6.2399e-08
-5.14965e-07
1.39174e-08
-3.69472e-07
-4.31717e-08
-2.36727e-07
-1.12667e-07
-1.09995e-07
-1.98036e-07
1.2386e-08
-3.02264e-07
1.30693e-07
-4.27767e-07
2.44569e-07
-5.77121e-07
3.53755e-07
-7.53708e-07
4.58361e-07
-9.62289e-07
5.58973e-07
-1.20718e-06
6.5688e-07
-1.48716e-06
7.53288e-07
-1.79145e-06
8.47281e-07
-2.10134e-06
9.34508e-07
-2.39719e-06
1.00856e-06
-2.66454e-06
1.06365e-06
-2.89509e-06
1.09652e-06
-3.08559e-06
1.10665e-06
-3.23685e-06
1.09569e-06
-3.35323e-06
1.0667e-06
-3.44127e-06
1.02315e-06
-3.50809e-06
9.68822e-07
-3.5602e-06
9.07519e-07
-3.6031e-06
8.42451e-07
-3.64122e-06
7.7625e-07
-3.67779e-06
7.11029e-07
-3.71486e-06
6.48338e-07
-3.75342e-06
5.89178e-07
-3.79375e-06
5.3407e-07
-3.83566e-06
4.83169e-07
-3.87866e-06
4.36394e-07
-3.92211e-06
3.93514e-07
-3.96532e-06
3.54207e-07
-4.00763e-06
3.18112e-07
-4.04847e-06
2.84857e-07
-4.08732e-06
2.54086e-07
-4.12377e-06
2.25468e-07
-4.15748e-06
1.98702e-07
-4.18816e-06
1.73525e-07
-4.2156e-06
1.49707e-07
-4.23963e-06
1.27051e-07
-4.26008e-06
1.05392e-07
-4.27683e-06
8.45882e-08
-4.28978e-06
6.45193e-08
-4.29884e-06
4.50841e-08
-4.30394e-06
2.61964e-08
-4.30502e-06
7.7793e-09
-4.30206e-06
-1.02408e-08
-4.2951e-06
-2.79251e-08
-4.28419e-06
-4.53016e-08
-4.26939e-06
-6.2367e-08
-4.25074e-06
-7.91086e-08
-4.2283e-06
-9.5514e-08
-4.20211e-06
-1.11569e-07
-4.17224e-06
-1.27261e-07
-4.13876e-06
-1.42572e-07
-4.10176e-06
-1.57487e-07
-4.06133e-06
-1.71987e-07
-4.01755e-06
-1.86056e-07
-3.97052e-06
-1.99674e-07
-3.92036e-06
-2.12823e-07
-3.86718e-06
-2.25483e-07
-3.81109e-06
-2.37639e-07
-3.75222e-06
-2.49279e-07
-3.69068e-06
-2.6039e-07
-3.62662e-06
-2.70957e-07
-3.56014e-06
-2.80971e-07
-3.4914e-06
-2.90423e-07
-3.42053e-06
-2.99309e-07
-3.34765e-06
-3.07625e-07
-3.27291e-06
-3.15368e-07
-3.19645e-06
-3.22538e-07
-3.11839e-06
-3.29139e-07
-3.03888e-06
-3.35173e-07
-2.95805e-06
-3.40646e-07
-2.87604e-06
-3.45567e-07
-2.79296e-06
-3.49944e-07
-2.70896e-06
-3.53787e-07
-2.62416e-06
-3.57109e-07
-2.53868e-06
-3.59924e-07
-2.45264e-06
-3.62245e-07
-2.36617e-06
-3.64089e-07
-2.27936e-06
-3.65472e-07
-2.19235e-06
-3.66411e-07
-2.10522e-06
-3.66924e-07
-2.0181e-06
-3.67028e-07
-1.93107e-06
-3.66743e-07
-1.84425e-06
-3.66084e-07
-1.75772e-06
-3.65067e-07
-1.67159e-06
-3.63707e-07
-1.58593e-06
-3.62014e-07
-1.50084e-06
-3.59996e-07
-1.41637e-06
-3.57653e-07
-1.33258e-06
-3.54989e-07
-1.24951e-06
-3.52012e-07
-1.16719e-06
-3.48744e-07
-1.08566e-06
-3.45214e-07
-1.00496e-06
-3.41458e-07
-9.25156e-07
-3.37506e-07
-8.4629e-07
-3.33383e-07
-7.68409e-07
-3.29106e-07
-6.91551e-07
-3.24691e-07
-6.15749e-07
-3.20152e-07
-5.41032e-07
-3.15502e-07
-4.67426e-07
-3.10755e-07
-3.94952e-07
-3.05922e-07
-3.23628e-07
-3.01014e-07
-2.53468e-07
-2.96044e-07
-1.84482e-07
-2.91022e-07
-1.16679e-07
-2.8596e-07
-5.00677e-08
-2.80871e-07
1.53463e-08
-2.75765e-07
7.95586e-08
-2.70652e-07