/*--------------------------------*- C++ -*----------------------------------*\
| =========                 |                                                 |
| \\      /  F ield         | OpenFOAM: The Open Source CFD Toolbox           |
|  \\    /   O peration     | Version:  v2012                                 |
|   \\  /    A nd           | Website:  www.openfoam.com                      |
|    \\/     M anipulation  |                                                 |
\*---------------------------------------------------------------------------*/
FoamFile
{
    version     2.0;
    format      ascii;
    class       volVectorField;
    location    "1200";
    object      U;
}
// * * * * * * * * * * * * * * * * * * * * * * * * * * * * * * * * * * * * * //

dimensions      [0 1 -1 0 0 0 0];


internalField   nonuniform List<vector> 
12225
(
(9.2745 -4.73371 0)
(13.1094 -1.71343 0)
(12.4776 -0.395208 0)
(11.2768 -0.0422184 0)
(10.6311 0.0141934 0)
(10.2977 -0.000764187 0)
(10.0738 -0.003903 0)
(9.90471 -0.0202785 0)
(9.76602 -0.0503993 0)
(9.64444 -0.0475535 0)
(9.53085 -0.0363658 0)
(9.4243 -0.0323579 0)
(9.32643 -0.0304088 0)
(9.23713 -0.0235536 0)
(9.15591 -0.00816536 0)
(9.09014 0.00282203 0)
(9.02975 0.0103024 0)
(9.05328 0.021561 0)
(10.2592 0.0928025 0)
(10.7814 0.199338 0)
(10.9593 0.24565 0)
(10.7468 0.229137 0)
(10.5874 0.172972 0)
(10.4521 0.115302 0)
(10.329 0.0819306 0)
(10.2315 0.0693292 0)
(10.1584 0.0652138 0)
(10.0981 0.0585548 0)
(10.0454 0.0524417 0)
(9.99828 0.0500677 0)
(9.95538 0.0495379 0)
(9.91577 0.0483034 0)
(9.87818 0.0443275 0)
(9.84355 0.0387413 0)
(9.80748 0.0217489 0)
(9.77567 -0.00133148 0)
(9.87768 -0.24504 0)
(9.74284 0.0057908 0)
(10.1971 0.125738 0)
(10.3244 0.179357 0)
(10.3563 0.161543 0)
(10.3308 0.119986 0)
(10.2777 0.0911833 0)
(10.2263 0.0753435 0)
(10.183 0.0658097 0)
(10.1458 0.0604852 0)
(10.1137 0.0571764 0)
(10.0848 0.0544314 0)
(10.0578 0.0517061 0)
(10.0325 0.0486763 0)
(10.0087 0.0450449 0)
(9.98675 0.0400388 0)
(9.96319 0.0289383 0)
(9.93578 0.0101192 0)
(9.83416 -0.443933 0)
(9.57654 -0.163148 0)
(9.91602 0.033663 0)
(10.0932 0.134215 0)
(10.1892 0.145462 0)
(10.2166 0.120725 0)
(10.2052 0.0985161 0)
(10.1835 0.0839292 0)
(10.161 0.0740805 0)
(10.1394 0.0682925 0)
(10.1196 0.0645514 0)
(10.1012 0.0615453 0)
(10.0837 0.0588762 0)
(10.0668 0.0564257 0)
(10.0505 0.0536791 0)
(10.0344 0.0494929 0)
(10.0157 0.0411528 0)
(9.99144 0.0293991 0)
(9.87825 -0.387477 0)
(9.61653 -0.19615 0)
(9.81622 -0.018679 0)
(9.96134 0.0916017 0)
(10.0698 0.122184 0)
(10.1218 0.113648 0)
(10.1356 0.0996348 0)
(10.134 0.088365 0)
(10.1264 0.0798978 0)
(10.1163 0.0742519 0)
(10.1055 0.0704005 0)
(10.0946 0.0675259 0)
(10.0836 0.0651905 0)
(10.0724 0.0631235 0)
(10.0609 0.0607997 0)
(10.0484 0.0575273 0)
(10.033 0.0521634 0)
(10.0121 0.0460505 0)
(9.91439 -0.288041 0)
(9.68303 -0.18518 0)
(9.78716 -0.0532171 0)
(9.88916 0.0509869 0)
(9.98794 0.0936678 0)
(10.0476 0.0992289 0)
(10.0753 0.0940668 0)
(10.0867 0.087425 0)
(10.0896 0.0814367 0)
(10.088 0.0769504 0)
(10.0841 0.0737319 0)
(10.0788 0.0713687 0)
(10.0726 0.069532 0)
(10.0656 0.0679835 0)
(10.0575 0.0663836 0)
(10.0478 0.064449 0)
(10.0354 0.0619816 0)
(10.0183 0.0603181 0)
(9.93763 -0.214042 0)
(9.74855 -0.167539 0)
(9.79243 -0.0752234 0)
(9.85608 0.0162109 0)
(9.93594 0.0644148 0)
(9.99283 0.080616 0)
(10.0262 0.0836394 0)
(10.045 0.0821313 0)
(10.0549 0.0793329 0)
(10.0594 0.0767285 0)
(10.0605 0.0746856 0)
(10.0596 0.0731813 0)
(10.057 0.072098 0)
(10.0532 0.0713356 0)
(10.0479 0.0707684 0)
(10.0408 0.0704088 0)
(10.0312 0.0705138 0)
(10.0182 0.0722717 0)
(9.95263 -0.167336 0)
(9.79947 -0.149683 0)
(9.81178 -0.0846552 0)
(9.84959 -0.00623137 0)
(9.91141 0.0419049 0)
(9.9611 0.0638734 0)
(9.9944 0.0725197 0)
(10.0157 0.0751426 0)
(10.029 0.0752353 0)
(10.0368 0.0745473 0)
(10.041 0.0737903 0)
(10.0428 0.0732342 0)
(10.0427 0.0729656 0)
(10.041 0.073029 0)
(10.0377 0.0734593 0)
(10.0327 0.0744296 0)
(10.0255 0.0763474 0)
(10.0157 0.0801857 0)
(9.96406 -0.132092 0)
(9.84003 -0.131995 0)
(9.83337 -0.0877034 0)
(9.85306 -0.0213528 0)
(9.89928 0.0243911 0)
(9.94105 0.0494911 0)
(9.97214 0.0620893 0)
(9.99396 0.0679517 0)
(10.0087 0.07045 0)
(10.0185 0.0714846 0)
(10.0246 0.0719905 0)
(10.0283 0.0724219 0)
(10.0299 0.0730075 0)
(10.0298 0.0739014 0)
(10.0282 0.0752561 0)
(10.0249 0.07734 0)
(10.0198 0.0806121 0)
(10.0128 0.0858671 0)
(9.97418 -0.100208 0)
(9.87757 -0.112396 0)
(9.85857 -0.0853801 0)
(9.86388 -0.0323539 0)
(9.89487 0.0089022 0)
(9.92745 0.0351945 0)
(9.95445 0.0506673 0)
(9.97511 0.0593749 0)
(9.99023 0.0642296 0)
(10.001 0.0670845 0)
(10.0085 0.0689921 0)
(10.0136 0.0705495 0)
(10.0167 0.0721107 0)
(10.0181 0.0739362 0)
(10.018 0.0762673 0)
(10.0165 0.0794249 0)
(10.0136 0.0838533 0)
(10.0094 0.0901627 0)
(9.98253 -0.0727121 0)
(9.91035 -0.0922033 0)
(9.88507 -0.07826 0)
(9.88002 -0.0386322 0)
(9.89747 -0.00340721 0)
(9.92045 0.0221255 0)
(9.94201 0.0391146 0)
(9.96006 0.0499536 0)
(9.97433 0.05686 0)
(9.98524 0.0614549 0)
(9.99345 0.0647901 0)
(9.99947 0.0675363 0)
(10.0037 0.0701424 0)
(10.0065 0.0729422 0)
(10.0079 0.0762389 0)
(10.0081 0.0803621 0)
(10.0073 0.0856964 0)
(10.0057 0.092672 0)
(9.98894 -0.0502601 0)
(9.93733 -0.0723855 0)
(9.91073 -0.0674654 0)
(9.89917 -0.0400107 0)
(9.90567 -0.0116892 0)
(9.91957 0.0113967 0)
(9.935 0.0284464 0)
(9.94939 0.0404488 0)
(9.96175 0.0488377 0)
(9.97193 0.0548757 0)
(9.98013 0.059499 0)
(9.98663 0.0633786 0)
(9.99167 0.0669955 0)
(9.99547 0.0707256 0)
(9.99821 0.0748877 0)
(10.0001 0.0797925 0)
(10.0012 0.0857388 0)
(10.002 0.0930188 0)
(9.99348 -0.0329126 0)
(9.9582 -0.053819 0)
(9.93368 -0.0543027 0)
(9.91899 -0.0368186 0)
(9.91756 -0.015499 0)
(9.92368 0.00393023 0)
(9.93304 0.019682 0)
(9.94321 0.0317428 0)
(9.95294 0.0408304 0)
(9.96166 0.0477943 0)
(9.96925 0.053376 0)
(9.97572 0.0581659 0)
(9.98119 0.0626234 0)
(9.98578 0.0671143 0)
(9.98963 0.0719419 0)
(9.9929 0.0773651 0)
(9.99578 0.083616 0)
(9.99856 0.0908535 0)
(9.99643 -0.020207 0)
(9.97327 -0.0372186 0)
(9.95261 -0.0400666 0)
(9.93731 -0.0298453 0)
(9.9309 -0.0148741 0)
(9.93104 0.00029565 0)
(9.93506 0.0136761 0)
(9.94107 0.0247091 0)
(9.94784 0.0335855 0)
(9.95466 0.0407748 0)
(9.96118 0.04679 0)
(9.96724 0.0520878 0)
(9.9728 0.057056 0)
(9.97788 0.0620043 0)
(9.98256 0.0671907 0)
(9.98697 0.072815 0)
(9.99123 0.0790335 0)
(9.99557 0.0859367 0)
(9.99816 -0.0112925 0)
(9.9833 -0.0229401 0)
(9.96682 -0.025785 0)
(9.95243 -0.0201131 0)
(9.94344 -0.0102948 0)
(9.93953 0.000601334 0)
(9.93941 0.0109305 0)
(9.94183 0.0200132 0)
(9.94583 0.0277583 0)
(9.95069 0.0343663 0)
(9.95596 0.0401378 0)
(9.96138 0.0453848 0)
(9.96678 0.0503821 0)
(9.97211 0.0553655 0)
(9.97736 0.0605157 0)
(9.98259 0.0659751 0)
(9.98789 0.0718287 0)
(9.99336 0.0781244 0)
(9.99906 -0.00508566 0)
(9.98922 -0.010791 0)
(9.97612 -0.0119392 0)
(9.96309 -0.00851946 0)
(9.9531 -0.00248769 0)
(9.94686 0.00450516 0)
(9.94399 0.01146 0)
(9.94384 0.0178943 0)
(9.94569 0.0236804 0)
(9.94895 0.0288866 0)
(9.95315 0.033669 0)
(9.95796 0.0382047 0)
(9.96316 0.0426584 0)
(9.96861 0.047169 0)
(9.97426 0.0518407 0)
(9.98007 0.0567452 0)
(9.98607 0.0619181 0)
(9.9923 0.0673623 0)
(9.99942 -0.000371888 0)
(9.99181 0.000140189 0)
(9.98042 0.00180884 0)
(9.96821 0.0045581 0)
(9.9579 0.00786791 0)
(9.9506 0.011332 0)
(9.94641 0.0147242 0)
(9.94497 0.017972 0)
(9.94575 0.0210877 0)
(9.94822 0.024142 0)
(9.95194 0.0272126 0)
(9.95656 0.0303805 0)
(9.9618 0.0337058 0)
(9.96748 0.0372363 0)
(9.97351 0.0409941 0)
(9.97979 0.0449874 0)
(9.98632 0.0492004 0)
(9.99306 0.0536049 0)
(9.99935 0.00408059 0)
(9.9911 0.011158 0)
(9.97897 0.0161088 0)
(9.96616 0.0187005 0)
(9.95552 0.0195644 0)
(9.94818 0.0194825 0)
(9.94418 0.0190791 0)
(9.9431 0.0187607 0)
(9.94435 0.0187712 0)
(9.94737 0.0192236 0)
(9.95169 0.0201625 0)
(9.95692 0.0215802 0)
(9.96279 0.0234498 0)
(9.96909 0.0257252 0)
(9.97571 0.0283587 0)
(9.98255 0.0312915 0)
(9.98957 0.0344702 0)
(9.99673 0.0378291 0)
(9.99882 0.00972608 0)
(9.98675 0.024031 0)
(9.97122 0.0318212 0)
(9.95642 0.0332583 0)
(9.94558 0.0306597 0)
(9.93942 0.0262948 0)
(9.93733 0.0216819 0)
(9.93843 0.0176585 0)
(9.94183 0.0145981 0)
(9.94682 0.0125917 0)
(9.95285 0.0115863 0)
(9.95955 0.0114605 0)
(9.96664 0.01208 0)
(9.97396 0.0133084 0)
(9.98142 0.0150256 0)
(9.98893 0.0171202 0)
(9.99648 0.0194991 0)
(10.004 0.0220753 0)
(9.99757 0.0182069 0)
(9.97774 0.0404375 0)
(9.95665 0.0495515 0)
(9.93945 0.047445 0)
(9.92962 0.0393822 0)
(9.92659 0.0296023 0)
(9.92848 0.0204383 0)
(9.93355 0.0129114 0)
(9.94052 0.00728125 0)
(9.94851 0.00344051 0)
(9.95696 0.001123 0)
(9.96557 4.42968e-05 0)
(9.97416 -5.83937e-05 0)
(9.98262 0.000587719 0)
(9.99093 0.00179971 0)
(9.99908 0.00342722 0)
(10.0071 0.00534817 0)
(10.0149 0.00746497 0)
(9.99502 0.0318122 0)
(9.96178 0.062117 0)
(9.93372 0.069527 0)
(9.91535 0.0600819 0)
(9.90933 0.0439136 0)
(9.9125 0.0276215 0)
(9.92085 0.0139588 0)
(9.93162 0.00359996 0)
(9.9432 -0.003672 0)
(9.95475 -0.00840493 0)
(9.96585 -0.0111734 0)
(9.97639 -0.012469 0)
(9.98635 -0.0126881 0)
(9.99577 -0.0121226 0)
(10.0047 -0.011004 0)
(10.0133 -0.00949629 0)
(10.0215 -0.0077315 0)
(10.0294 -0.00580944 0)
(9.99018 0.0534601 0)
(9.93561 0.0901377 0)
(9.90098 0.0906052 0)
(9.88516 0.0687259 0)
(9.88782 0.0417843 0)
(9.90124 0.0186273 0)
(9.91858 0.0013894 0)
(9.93628 -0.0104131 0)
(9.95286 -0.0179428 0)
(9.96782 -0.0223629 0)
(9.98119 -0.0246162 0)
(9.99316 -0.0253853 0)
(10.004 -0.0251512 0)
(10.0139 -0.0242382 0)
(10.023 -0.0228804 0)
(10.0316 -0.021228 0)
(10.0397 -0.0194004 0)
(10.0473 -0.0174908 0)
(9.9819 0.0862461 0)
(9.89548 0.124246 0)
(9.85818 0.109864 0)
(9.85211 0.0697448 0)
(9.87036 0.0303048 0)
(9.89846 0.00141836 0)
(9.92662 -0.0172226 0)
(9.95139 -0.028328 0)
(9.97224 -0.0343685 0)
(9.9896 -0.0372168 0)
(10.0041 -0.0380705 0)
(10.0165 -0.0377125 0)
(10.0273 -0.0365812 0)
(10.0369 -0.0350349 0)
(10.0456 -0.0332358 0)
(10.0536 -0.0313021 0)
(10.0611 -0.0292959 0)
(10.0681 -0.0273042 0)
(9.96925 0.133989 0)
(9.83823 0.16308 0)
(9.80793 0.122573 0)
(9.82313 0.0587724 0)
(9.86516 0.00727268 0)
(9.91144 -0.0240593 0)
(9.9504 -0.0406109 0)
(9.98057 -0.0483584 0)
(10.0036 -0.0511608 0)
(10.0213 -0.0513244 0)
(10.0352 -0.0501608 0)
(10.0466 -0.0482873 0)
(10.0562 -0.046111 0)
(10.0644 -0.0438122 0)
(10.0718 -0.0415601 0)
(10.0786 -0.0392977 0)
(10.0849 -0.0370893 0)
(10.0908 -0.0350033 0)
(9.94951 0.20714 0)
(9.76128 0.207016 0)
(9.75726 0.123462 0)
(9.81044 0.0319838 0)
(9.88386 -0.0279012 0)
(9.9488 -0.0560398 0)
(9.99535 -0.0660977 0)
(10.0268 -0.0678356 0)
(10.0482 -0.0660002 0)
(10.0632 -0.062899 0)
(10.0742 -0.0595141 0)
(10.0827 -0.0561801 0)
(10.0896 -0.0529613 0)
(10.0953 -0.0500229 0)
(10.1004 -0.0474057 0)
(10.1052 -0.0449365 0)
(10.1096 -0.0425423 0)
(10.1137 -0.0403825 0)
(9.91094 0.322718 0)
(9.65922 0.254541 0)
(9.71887 0.107393 0)
(9.8333 -0.0119519 0)
(9.94177 -0.0727014 0)
(10.02 -0.0902332 0)
(10.0662 -0.0893813 0)
(10.0918 -0.0833241 0)
(10.1062 -0.0763745 0)
(10.1145 -0.0702137 0)
(10.1196 -0.0650065 0)
(10.1232 -0.060527 0)
(10.1257 -0.0565025 0)
(10.1274 -0.0531429 0)
(10.129 -0.0504722 0)
(10.1308 -0.0479837 0)
(10.1325 -0.0454451 0)
(10.1339 -0.0432677 0)
(9.84404 0.43511 0)
(9.53797 0.261025 0)
(9.7269 0.059122 0)
(9.92369 -0.0731449 0)
(10.0584 -0.12161 0)
(10.1345 -0.120284 0)
(10.1665 -0.105377 0)
(10.1757 -0.0911101 0)
(10.1758 -0.0799024 0)
(10.1726 -0.071764 0)
(10.1686 -0.0658726 0)
(10.1647 -0.0608473 0)
(10.1605 -0.0562159 0)
(10.1562 -0.052354 0)
(10.1527 -0.0499894 0)
(10.1502 -0.0478892 0)
(10.1478 -0.0453346 0)
(10.1454 -0.0431416 0)
(9.83598 0.319667 0)
(9.5502 0.0912489 0)
(9.91738 -0.0687337 0)
(10.1507 -0.160135 0)
(10.2635 -0.172185 0)
(10.3033 -0.142825 0)
(10.2975 -0.112243 0)
(10.2753 -0.0910018 0)
(10.2514 -0.0771099 0)
(10.2305 -0.068338 0)
(10.2132 -0.0629922 0)
(10.1986 -0.0584163 0)
(10.1847 -0.0530413 0)
(10.1709 -0.0482596 0)
(10.1593 -0.0461584 0)
(10.1501 -0.0436929 0)
(10.1415 -0.0400675 0)
(10.1332 -0.0381828 0)
(10.2049 -0.0633776 0)
(10.4095 -0.19171 0)
(10.7164 -0.282555 0)
(10.6879 -0.282293 0)
(10.6191 -0.23012 0)
(10.5417 -0.163757 0)
(10.4537 -0.117627 0)
(10.375 -0.0936255 0)
(10.3135 -0.0804841 0)
(10.2654 -0.0696274 0)
(10.2259 -0.0603529 0)
(10.1925 -0.0554455 0)
(10.1611 -0.0548745 0)
(10.1323 -0.053859 0)
(10.1093 -0.0487312 0)
(10.0865 -0.045554 0)
(10.0656 -0.046671 0)
(10.0492 -0.045438 0)
(9.41631 4.45107 0)
(12.7294 2.07612 0)
(12.5649 0.621225 0)
(11.5691 0.127667 0)
(10.9311 0.00343096 0)
(10.5862 -0.00225675 0)
(10.363 0.013867 0)
(10.2007 0.0311913 0)
(10.0779 0.0447351 0)
(9.97623 0.0439348 0)
(9.88411 0.0337059 0)
(9.79769 0.0307928 0)
(9.72389 0.0382814 0)
(9.6628 0.0362855 0)
(9.60116 0.0137363 0)
(9.54426 0.0033713 0)
(9.494 0.013457 0)
(9.44618 0.008905 0)
(-0.0249537 0.0908939 0)
(0.137492 -0.182622 0)
(0.325909 -0.304467 0)
(0.525697 -0.313562 0)
(0.70237 -0.270733 0)
(0.831881 -0.209997 0)
(0.907213 -0.145196 -8.60113e-20)
(0.936883 -0.0812777 8.66952e-20)
(0.914849 -0.0190157 0)
(0.8532 0.0356476 9.20727e-20)
(0.765348 0.0747647 0)
(0.66576 0.0923348 0)
(0.571981 0.0875672 0)
(0.499561 0.0662211 -1.44143e-19)
(0.449641 0.0372698 0)
(0.405456 0.00983897 0)
(0.344929 -0.00844009 1.8979e-19)
(0.258986 -0.00781962 0)
(0.122926 0.0110277 0)
(-0.0759086 0.111968 0)
(-0.305578 0.206995 -1.39548e-19)
(-0.601725 0.247795 0)
(-0.929699 0.269644 -7.48309e-20)
(-1.26465 0.296764 0)
(-1.6033 0.323533 0)
(-1.94216 0.336041 -4.11378e-20)
(-2.27367 0.335048 0)
(-2.58991 0.325747 3.44528e-20)
(-2.88771 0.309488 0)
(-3.16378 0.288643 -3.12927e-20)
(-3.4172 0.265514 0)
(-3.64763 0.241675 0)
(-3.8558 0.218148 0)
(-4.04281 0.195628 0)
(-4.21011 0.174485 0)
(-4.35926 0.154919 2.82054e-20)
(-4.49183 0.136963 0)
(-4.60931 0.120543 -5.55232e-20)
(-4.71306 0.105532 0)
(-4.80431 0.0917696 5.4724e-20)
(-4.88409 0.0790945 0)
(-4.95329 0.0673558 0)
(-5.01268 0.0564259 -5.35002e-20)
(-5.06285 0.0462097 0)
(-5.10432 0.0366483 -5.2607e-20)
(-5.13749 0.0277261 5.21284e-20)
(-5.16276 0.0194891 0)
(-5.18051 0.0120848 5.11001e-20)
(-5.19101 0.00577649 5.05474e-20)
(-5.19443 0.000712911 0)
(-5.19204 -0.00320772 0)
(-5.18507 -0.00646031 0)
(-5.17363 -0.00940845 0)
(-5.15806 -0.0121167 0)
(-5.13851 -0.0146834 -4.61215e-20)
(-5.11512 -0.0171218 0)
(-5.08801 -0.0194435 4.42545e-20)
(-5.05727 -0.0216571 0)
(-5.02302 -0.0237649 0)
(-4.98534 -0.0257687 -4.10736e-20)
(-4.94435 -0.0276688 0)
(-4.90016 -0.0294653 3.8696e-20)
(-4.85286 -0.031158 0)
(-4.80258 -0.0327467 0)
(-4.74944 -0.0342314 0)
(-4.69354 -0.035612 -3.33123e-20)
(-4.63502 -0.036889 0)
(-4.574 -0.0380633 0)
(-4.51061 -0.0391354 -2.87113e-20)
(-4.44497 -0.0401061 0)
(-4.37723 -0.0409769 -2.53674e-20)
(-4.3075 -0.0417491 0)
(-4.23592 -0.0424244 0)
(-4.16263 -0.0430047 0)
(-4.08775 -0.0434918 1.79839e-20)
(-4.01141 -0.0438879 0)
(-3.93375 -0.0441951 0)
(-3.85488 -0.0444158 1.17966e-20)
(-3.77494 -0.0445521 9.60088e-21)
(-3.69405 -0.0446066 0)
(-3.61231 -0.0445818 4.99497e-21)
(-3.52986 -0.0444812 0)
(-3.44681 -0.0443085 1.65132e-22)
(-3.36325 -0.0440693 0)
(-3.27929 -0.0437704 -1.03342e-20)
(-3.19503 -0.0434219 0)
(-3.11056 -0.0430371 2.15875e-20)
(-3.02596 -0.0426358 0)
(-2.94129 -0.0422467 0)
(-2.85661 -0.0419123 0)
(-2.77196 -0.041695 -4.68068e-20)
(-2.68737 -0.0416772 0)
(-2.60285 -0.0419481 6.10996e-20)
(-2.51836 -0.0425622 0)
(-2.43385 -0.0434571 -7.67902e-20)
(-2.3496 -0.0443563 -8.51795e-20)
(-2.26583 -0.0447987 -9.38982e-20)
(-2.18282 -0.0445792 0)
(-2.10071 -0.0439702 0)
(-2.01954 -0.0432713 0)
(-1.93931 -0.0425664 0)
(-1.86003 -0.0418664 0)
(-1.78172 -0.0411721 0)
(-1.70441 -0.0404854 0)
(-1.62813 -0.0398101 0)
(-1.55289 -0.039152 1.93174e-19)
(-1.47872 -0.0385183 2.07524e-19)
(-1.40562 -0.0379142 0)
(-1.33362 -0.0373285 0)
(-1.26273 -0.0367028 0)
(-1.193 -0.0360452 2.74947e-19)
(-1.12443 -0.0354124 0)
(-1.05702 -0.0347981 0)
(-0.990769 -0.0342037 0)
(-0.925685 -0.0336312 0)
(-0.861764 -0.0330823 -3.91936e-19)
(-0.799007 -0.03256 0)
(-0.737408 -0.0320669 0)
(-0.676961 -0.0316072 4.90488e-19)
(-0.61766 -0.0311816 -5.30357e-19)
(-0.559497 -0.0307947 0)
(-0.502466 -0.0304564 -6.24417e-19)
(-0.446552 -0.0301917 0)
(-0.391739 -0.0300451 7.44062e-19)
(-0.338004 -0.0300258 0)
(-0.285335 -0.030094 0)
(-0.233717 -0.0302396 0)
(-0.183118 -0.0304725 0)
(-0.133517 -0.0308096 0)
(-0.084959 -0.0312698 -2.86366e-18)
(-0.0376724 -0.0317288 -3.29959e-18)
(0.00843296 -0.0313814 0)
(0.0538946 -0.0298364 0)
(0.0986788 -0.0279846 0)
(0.142641 -0.0262727 2.67433e-18)
(0.18569 -0.0247443 0)
(0.227802 -0.0233747 0)
(0.269001 -0.02214 0)
(0.309324 -0.021021 2.03426e-18)
(0.348802 -0.0199998 -1.92864e-18)
(0.387464 -0.0190629 0)
(0.425333 -0.0181984 0)
(0.46243 -0.0173978 -1.6833e-18)
(0.498779 -0.0166533 -1.61898e-18)
(0.534405 -0.015959 0)
(0.569332 -0.0153093 0)
(0.603585 -0.0147 1.46149e-18)
(0.637187 -0.0141274 -1.41821e-18)
(0.670161 -0.0135886 0)
(0.70253 -0.0130811 0)
(0.734315 -0.0126026 -1.30845e-18)
(0.765537 -0.0121513 0)
(0.796219 -0.0117253 0)
(0.82638 -0.0113233 -1.22131e-18)
(0.856044 -0.0109436 0)
(0.885231 -0.0105854 -1.17239e-18)
(0.913965 -0.0102472 0)
(0.942268 -0.00992832 0)
(0.970163 -0.00962736 0)
(0.997672 -0.00934361 1.09056e-18)
(1.02482 -0.00907571 0)
(1.05162 -0.00882263 0)
(1.0781 -0.00858278 0)
(1.10426 -0.0083544 0)
(1.13013 -0.00813527 0)
(1.15571 -0.00792226 0)
(1.18098 -0.00771174 9.81834e-19)
(1.20594 -0.00749812 9.68938e-19)
(1.23054 -0.00727481 0)
(1.25471 -0.00703164 0)
(1.27835 -0.00675573 0)
(1.3013 -0.00642747 -9.23768e-19)
(1.32332 -0.00601865 0)
(1.34399 -0.00548728 1.81269e-18)
(1.36287 -0.00475398 -1.79948e-18)
(1.37856 -0.00370582 -1.79088e-18)
(1.39111 -0.00195396 1.78928e-18)
(1.39136 0.00138173 -1.79516e-18)
(1.38871 0.00811072 1.80769e-18)
(1.30925 0.0198622 0)
(0.096955 -0.272072 0)
(0.333021 -0.681676 0)
(0.512999 -0.705251 1.57228e-19)
(0.610181 -0.56938 0)
(0.660752 -0.406611 -1.11191e-19)
(0.680673 -0.251381 -1.08222e-19)
(0.67414 -0.109622 -5.63668e-20)
(0.643226 0.0181993 -5.62874e-20)
(0.59992 0.127916 0)
(0.540239 0.214111 -6.09599e-20)
(0.462916 0.268934 0)
(0.367874 0.283755 0)
(0.251308 0.256079 1.71524e-19)
(0.102774 0.211526 9.90043e-20)
(-0.0835251 0.208509 -1.84204e-19)
(-0.311284 0.275668 -1.42646e-19)
(-0.590603 0.387392 -5.67574e-20)
(-0.916724 0.516028 0)
(-1.27143 0.64277 0)
(-1.62853 0.75527 0)
(-1.98138 0.841502 -2.83426e-20)
(-2.32718 0.894857 0)
(-2.65681 0.917598 6.88321e-20)
(-2.96292 0.91359 0)
(-3.24164 0.88675 0)
(-3.49123 0.842305 1.98053e-20)
(-3.71052 0.785622 0)
(-3.90042 0.722212 -1.97569e-20)
(-4.06292 0.656243 -4.17852e-20)
(-4.20153 0.590398 2.0169e-20)
(-4.31918 0.526784 0)
(-4.41874 0.467148 0)
(-4.50291 0.412303 0)
(-4.57409 0.362588 -4.42473e-20)
(-4.63432 0.317956 -4.47509e-20)
(-4.68528 0.278131 -2.21835e-20)
(-4.72833 0.242702 0)
(-4.76457 0.211186 4.52871e-20)
(-4.79488 0.183088 0)
(-4.81999 0.157928 -4.58521e-20)
(-4.84046 0.135268 0)
(-4.8568 0.114717 0)
(-4.86942 0.0959342 4.60546e-20)
(-4.87869 0.0786331 0)
(-4.88495 0.0625739 1.38051e-19)
(-4.88851 0.0475643 -4.55691e-20)
(-4.88965 0.0334703 0)
(-4.88861 0.0202643 -4.48967e-20)
(-4.88566 0.0080646 -4.44379e-20)
(-4.88105 -0.00296604 0)
(-4.87386 -0.0128909 0)
(-4.86299 -0.0220064 0)
(-4.84843 -0.0305496 0)
(-4.8301 -0.0386356 0)
(-4.80801 -0.0463335 4.01661e-20)
(-4.78223 -0.0536799 7.90613e-20)
(-4.75283 -0.0606955 -3.83874e-20)
(-4.7199 -0.0673914 0)
(-4.68353 -0.0737734 7.33787e-20)
(-4.64381 -0.0798437 -3.59124e-20)
(-4.60083 -0.0856032 0)
(-4.5547 -0.0910514 -3.32107e-20)
(-4.50553 -0.0961883 0)
(-4.45342 -0.101015 0)
(-4.39848 -0.105534 -5.97753e-20)
(-4.34084 -0.109744 2.83261e-20)
(-4.28061 -0.113647 -5.45804e-20)
(-4.21791 -0.117244 5.18599e-20)
(-4.15287 -0.120539 2.42318e-20)
(-4.08562 -0.123538 0)
(-4.01627 -0.126245 2.1297e-20)
(-3.94496 -0.128666 0)
(-3.87182 -0.130807 0)
(-3.79698 -0.132677 0)
(-3.72055 -0.134282 1.55667e-20)
(-3.64268 -0.135632 0)
(-3.56348 -0.136736 2.36255e-20)
(-3.48307 -0.137603 -2.97586e-20)
(-3.40159 -0.138245 -7.86842e-21)
(-3.31915 -0.138672 0)
(-3.23586 -0.138895 -4.0651e-21)
(-3.15183 -0.138926 0)
(-3.06718 -0.138776 -1.33748e-22)
(-2.98201 -0.138458 0)
(-2.89643 -0.137984 8.27806e-21)
(-2.81052 -0.137366 -2.39044e-20)
(-2.72439 -0.136614 -1.71377e-20)
(-2.63813 -0.13574 0)
(-2.55182 -0.134752 0)
(-2.46556 -0.133654 0)
(-2.37944 -0.132447 3.63702e-20)
(-2.29358 -0.13112 0)
(-2.20812 -0.129647 -4.68499e-20)
(-2.1232 -0.127971 0)
(-2.03896 -0.12604 1.72491e-19)
(-1.95548 -0.123881 6.38415e-20)
(-1.87276 -0.121596 6.98787e-20)
(-1.79075 -0.119291 0)
(-1.70942 -0.117024 0)
(-1.62883 -0.11479 0)
(-1.54905 -0.112568 0)
(-1.47012 -0.110343 0)
(-1.3921 -0.108113 2.20017e-19)
(-1.315 -0.105876 2.3553e-19)
(-1.23886 -0.103637 0)
(-1.16371 -0.101398 -1.35058e-19)
(-1.08957 -0.0991627 -1.43851e-19)
(-1.01647 -0.0969322 0)
(-0.944437 -0.0947086 -3.23716e-19)
(-0.873478 -0.0924965 0)
(-0.803588 -0.0903096 1.81699e-19)
(-0.734779 -0.0881533 0)
(-0.667061 -0.0860281 0)
(-0.600439 -0.083936 -4.35343e-19)
(-0.534913 -0.0818789 0)
(-0.470487 -0.0798579 2.45341e-19)
(-0.407159 -0.0778765 0)
(-0.344928 -0.07594 0)
(-0.283788 -0.0740575 2.90395e-19)
(-0.22373 -0.0722264 3.09754e-19)
(-0.164747 -0.0704422 0)
(-0.106834 -0.0687072 -3.47166e-19)
(-0.0499964 -0.0670219 0)
(0.00577107 -0.0653771 3.83042e-19)
(0.0605132 -0.0637673 7.65975e-19)
(0.11426 -0.0622035 0)
(0.16701 -0.0607005 0)
(0.218765 -0.0592618 0)
(0.269538 -0.0578861 0)
(0.319363 -0.0565758 7.0907e-19)
(0.368311 -0.0553199 2.09596e-18)
(0.416467 -0.0539361 0)
(0.463731 -0.0522809 0)
(0.50997 -0.0505047 0)
(0.555264 -0.0487589 -6.65501e-19)
(0.599689 -0.0470922 0)
(0.643271 -0.0455133 0)
(0.686027 -0.0440189 1.28774e-18)
(0.727979 -0.0426029 6.36862e-19)
(0.769151 -0.0412571 6.32346e-19)
(0.809562 -0.0399756 0)
(0.849233 -0.0387525 0)
(0.888184 -0.0375842 6.15832e-19)
(0.926436 -0.0364665 -6.09608e-19)
(0.96401 -0.0353971 0)
(1.00093 -0.0343722 0)
(1.03722 -0.0333903 -5.96772e-19)
(1.07289 -0.0324485 1.77636e-18)
(1.10798 -0.0315466 0)
(1.14249 -0.0306821 0)
(1.17647 -0.029855 5.80325e-19)
(1.20991 -0.0290634 0)
(1.24285 -0.028307 1.14494e-18)
(1.27531 -0.0275842 -5.68536e-19)
(1.30731 -0.0268945 0)
(1.33886 -0.0262368 5.62402e-19)
(1.37 -0.0256101 1.11749e-18)
(1.40073 -0.0250135 0)
(1.43109 -0.0244456 0)
(1.4611 -0.0239054 -5.495e-19)
(1.49076 -0.0233907 0)
(1.52011 -0.0228999 1.08621e-18)
(1.54916 -0.0224294 0)
(1.57791 -0.0219764 0)
(1.60639 -0.0215348 0)
(1.63459 -0.021099 0)
(1.6625 -0.0206591 -5.28827e-19)
(1.69011 -0.0202038 -5.26062e-19)
(1.71738 -0.0197158 0)
(1.74426 -0.0191729 0)
(1.77065 -0.0185431 0)
(1.79641 -0.0177808 5.16035e-19)
(1.82134 -0.0168185 0)
(1.84511 -0.0155537 -1.02478e-18)
(1.86729 -0.0138079 1.02262e-18)
(1.88699 -0.0112981 1.0223e-18)
(1.90373 -0.00728688 1.02351e-18)
(1.91392 -0.000491257 1.02891e-18)
(1.92614 0.0124791 1.02038e-18)
(1.90658 0.0362589 0)
(0.11865 -0.8616 0)
(0.266946 -1.05282 0)
(0.31384 -0.823072 -1.25626e-19)
(0.312904 -0.581125 -1.0815e-19)
(0.295177 -0.370536 1.00632e-19)
(0.263639 -0.18528 1.00914e-19)
(0.217079 -0.0197448 -6.47715e-22)
(0.154791 0.128003 0)
(0.0766243 0.25845 0)
(-0.018682 0.369106 0)
(-0.134794 0.454334 0)
(-0.279924 0.515065 0)
(-0.467075 0.56926 -2.65948e-19)
(-0.706405 0.645067 0)
(-0.993566 0.758629 6.58466e-20)
(-1.31252 0.900696 5.68225e-20)
(-1.64544 1.04792 0)
(-1.97576 1.18048 0)
(-2.2886 1.28625 0)
(-2.57169 1.35926 0)
(-2.81929 1.39457 3.48241e-20)
(-3.03176 1.39105 0)
(-3.21058 1.3538 -3.22897e-20)
(-3.35878 1.29072 0)
(-3.48072 1.20906 0)
(-3.58095 1.11515 0)
(-3.66427 1.01496 -6.8562e-20)
(-3.735 0.913788 0)
(-3.79665 0.815696 3.31211e-20)
(-3.85196 0.723428 -7.069e-20)
(-3.90284 0.638471 0)
(-3.95056 0.561535 0)
(-3.99586 0.492657 0)
(-4.0391 0.431443 3.65598e-20)
(-4.08039 0.377241 3.71437e-20)
(-4.11968 0.329278 0)
(-4.15682 0.286763 0)
(-4.19165 0.248938 -7.7759e-20)
(-4.22399 0.215112 -7.81467e-20)
(-4.25367 0.184679 7.83749e-20)
(-4.28056 0.157124 0)
(-4.30453 0.132021 0)
(-4.32551 0.109025 0)
(-4.34341 0.087854 0)
(-4.35818 0.0682757 -7.69421e-20)
(-4.36975 0.0500917 -7.68407e-20)
(-4.37807 0.0331187 7.61956e-20)
(-4.38299 0.0171559 0)
(-4.38433 0.00194665 0)
(-4.38195 -0.0127956 0)
(-4.37579 -0.0271974 0)
(-4.36589 -0.0411703 -7.10218e-20)
(-4.35233 -0.0546264 0)
(-4.33513 -0.0675529 0)
(-4.31434 -0.079954 -6.69068e-20)
(-4.29 -0.0918384 -6.488e-20)
(-4.26218 -0.103213 0)
(-4.23096 -0.114083 1.24388e-19)
(-4.19641 -0.124449 -5.99389e-20)
(-4.15861 -0.134311 5.81613e-20)
(-4.11765 -0.143668 0)
(-4.07364 -0.152517 0)
(-4.02666 -0.160856 0)
(-3.97683 -0.168684 0)
(-3.92425 -0.176005 4.83243e-20)
(-3.86903 -0.18282 9.35778e-20)
(-3.81128 -0.189127 4.39568e-20)
(-3.75113 -0.194931 -4.16835e-20)
(-3.68869 -0.200237 0)
(-3.62409 -0.205053 7.52173e-20)
(-3.55744 -0.209385 7.03317e-20)
(-3.48888 -0.213243 6.53297e-20)
(-3.41853 -0.216637 -6.02119e-20)
(-3.3465 -0.21958 0)
(-3.27294 -0.222082 -7.37679e-20)
(-3.19795 -0.224159 0)
(-3.12167 -0.225824 1.99823e-20)
(-3.04422 -0.227092 1.57573e-20)
(-2.96571 -0.227981 0)
(-2.88627 -0.228506 0)
(-2.806 -0.228685 1.51224e-20)
(-2.72502 -0.228536 0)
(-2.64345 -0.228077 2.68121e-21)
(-2.56138 -0.227327 0)
(-2.47893 -0.226304 1.02486e-20)
(-2.39618 -0.225029 3.5232e-20)
(-2.31326 -0.22352 0)
(-2.23024 -0.221796 0)
(-2.14723 -0.219878 0)
(-2.06431 -0.217781 4.48506e-20)
(-1.9816 -0.215521 0)
(-1.89918 -0.21311 5.96788e-20)
(-1.81715 -0.210547 0)
(-1.7356 -0.207819 0)
(-1.65461 -0.204899 -1.67628e-19)
(-1.5742 -0.201772 0)
(-1.49439 -0.198452 -9.96111e-20)
(-1.4152 -0.194984 0)
(-1.33664 -0.191425 -1.16903e-19)
(-1.25878 -0.187812 0)
(-1.18167 -0.184164 0)
(-1.10538 -0.180487 0)
(-1.02993 -0.176789 -4.63719e-19)
(-0.955365 -0.173075 -1.65396e-19)
(-0.881714 -0.169353 0)
(-0.809004 -0.165629 0)
(-0.73726 -0.161909 0)
(-0.666503 -0.158199 0)
(-0.596752 -0.154502 2.19249e-19)
(-0.528016 -0.150824 -4.59313e-19)
(-0.460302 -0.147175 -2.43112e-19)
(-0.393622 -0.143564 5.08569e-19)
(-0.327986 -0.139995 5.34402e-19)
(-0.2634 -0.136474 2.81872e-19)
(-0.199864 -0.133005 0)
(-0.137382 -0.129586 6.17297e-19)
(-0.0759529 -0.126222 0)
(-0.0155791 -0.122915 -6.74326e-19)
(0.0437469 -0.119666 -3.45342e-19)
(0.102038 -0.116478 0)
(0.159301 -0.113353 6.93469e-19)
(0.21554 -0.110293 3.49e-19)
(0.270767 -0.1073 0)
(0.32499 -0.104361 3.48883e-19)
(0.378219 -0.101468 -1.05329e-18)
(0.430461 -0.0986296 0)
(0.48173 -0.0958555 0)
(0.532044 -0.0931487 0)
(0.58142 -0.0905103 0)
(0.62988 -0.0879454 -7.08036e-19)
(0.677457 -0.0854616 -7.10528e-19)
(0.724174 -0.0830741 0)
(0.769995 -0.0807667 0)
(0.814907 -0.0784986 0)
(0.858965 -0.0762715 0)
(0.902211 -0.0741022 0)
(0.944659 -0.0719992 0)
(0.986322 -0.0699651 -7.14313e-19)
(1.02722 -0.0679995 -1.08727e-21)
(1.06737 -0.0661005 0)
(1.10678 -0.0642666 0)
(1.14549 -0.0624956 -7.14166e-19)
(1.1835 -0.0607863 0)
(1.22084 -0.0591366 7.1522e-19)
(1.25754 -0.0575454 7.14366e-19)
(1.2936 -0.0560103 0)
(1.32905 -0.0545307 0)
(1.36391 -0.0531045 -7.14902e-19)
(1.39821 -0.0517317 -1.42802e-18)
(1.43196 -0.0504107 0)
(1.46519 -0.0491416 0)
(1.49791 -0.0479228 0)
(1.53015 -0.0467542 -7.13568e-19)
(1.56192 -0.0456341 7.13171e-19)
(1.59325 -0.0445624 0)
(1.62416 -0.0435374 1.42339e-18)
(1.65468 -0.0425585 7.10648e-19)
(1.68481 -0.0416242 -1.42122e-18)
(1.71458 -0.0407328 0)
(1.74402 -0.0398829 0)
(1.77314 -0.0390712 -1.41721e-18)
(1.80196 -0.0382955 -7.08289e-19)
(1.83049 -0.0375504 0)
(1.85876 -0.0368315 0)
(1.88676 -0.0361297 0)
(1.91451 -0.0354366 0)
(1.94199 -0.0347368 -1.40681e-18)
(1.96921 -0.0340136 0)
(1.99612 -0.0332405 0)
(2.02269 -0.0323843 0)
(2.04883 -0.0313958 0)
(2.07444 -0.0302076 0)
(2.09933 -0.0287178 0)
(2.12325 -0.0267755 -1.39777e-18)
(2.14586 -0.0241281 0)
(2.1665 -0.0203713 0)
(2.18491 -0.0147121 -2.81755e-18)
(2.19832 -0.00582823 1.41888e-18)
(2.21295 0.00893825 -1.41689e-18)
(2.20784 0.0363397 1.41262e-18)
(0.033259 -1.16459 0)
(0.0682138 -1.02598 3.60225e-19)
(0.0322069 -0.743092 0)
(-0.0126203 -0.502587 1.1087e-19)
(-0.0684565 -0.27966 0)
(-0.136841 -0.069851 0)
(-0.220629 0.127184 -8.26178e-20)
(-0.322205 0.310684 0)
(-0.443701 0.480217 0)
(-0.587758 0.636366 0)
(-0.758251 0.781734 0)
(-0.960384 0.922501 0)
(-1.1966 1.06672 2.03244e-19)
(-1.46097 1.21753 9.20273e-20)
(-1.73883 1.36834 -8.33485e-20)
(-2.01188 1.50575 0)
(-2.26464 1.61611 0)
(-2.48736 1.69036 0)
(-2.67542 1.72509 0)
(-2.82726 1.72184 0)
(-2.94537 1.68437 6.00606e-20)
(-3.03548 1.61762 5.87572e-20)
(-3.10382 1.52852 -5.79238e-20)
(-3.15674 1.42487 5.76436e-20)
(-3.19953 1.31332 0)
(-3.2365 1.19924 0)
(-3.27107 1.08695 5.5842e-20)
(-3.30553 0.979675 0)
(-3.34114 0.879485 0)
(-3.37839 0.787389 5.8698e-20)
(-3.41726 0.703609 6.15021e-20)
(-3.45743 0.627908 6.22113e-20)
(-3.49833 0.55975 0)
(-3.53938 0.498438 0)
(-3.57995 0.443212 -6.40112e-20)
(-3.61948 0.393318 0)
(-3.65749 0.348049 0)
(-3.69357 0.306765 6.42767e-20)
(-3.72737 0.268906 -6.59867e-20)
(-3.75862 0.233985 6.59945e-20)
(-3.78709 0.20159 0)
(-3.81259 0.171374 0)
(-3.83499 0.143042 1.2991e-19)
(-3.85415 0.116345 0)
(-3.86996 0.0910722 1.28513e-19)
(-3.88233 0.0670494 1.90862e-19)
(-3.89118 0.0441336 -1.89215e-19)
(-3.89645 0.0222051 1.25205e-19)
(-3.89809 0.00114742 0)
(-3.89609 -0.0191549 0)
(-3.89051 -0.0387782 1.19737e-19)
(-3.88139 -0.0577407 5.83369e-20)
(-3.86877 -0.0760384 0)
(-3.85267 -0.0936697 0)
(-3.83315 -0.110634 5.4828e-20)
(-3.81023 -0.12693 1.08105e-19)
(-3.78399 -0.142556 0)
(-3.75448 -0.15751 -1.01649e-19)
(-3.72178 -0.171787 9.98179e-20)
(-3.68595 -0.185382 -9.68445e-20)
(-3.64709 -0.198291 0)
(-3.60528 -0.210508 0)
(-3.56061 -0.222028 0)
(-3.51317 -0.232848 0)
(-3.46309 -0.242973 0)
(-3.41045 -0.252402 -7.57618e-20)
(-3.35537 -0.261135 0)
(-3.29796 -0.269176 0)
(-3.23834 -0.276533 0)
(-3.17662 -0.283214 -1.22287e-19)
(-3.11292 -0.28923 -5.65341e-20)
(-3.04736 -0.294593 -5.24311e-20)
(-2.98006 -0.299317 9.7694e-20)
(-2.91115 -0.303417 -4.51878e-20)
(-2.84074 -0.306911 3.96337e-20)
(-2.76895 -0.309817 0)
(-2.6959 -0.312154 -3.07072e-20)
(-2.62171 -0.313944 0)
(-2.5465 -0.315209 0)
(-2.47038 -0.31597 0)