/*--------------------------------*- C++ -*----------------------------------*\
| =========                 |                                                 |
| \\      /  F ield         | OpenFOAM: The Open Source CFD Toolbox           |
|  \\    /   O peration     | Version:  v2012                                 |
|   \\  /    A nd           | Website:  www.openfoam.com                      |
|    \\/     M anipulation  |                                                 |
\*---------------------------------------------------------------------------*/
FoamFile
{
    version     2.0;
    format      ascii;
    class       volScalarField;
    location    "100";
    object      nut;
}
// * * * * * * * * * * * * * * * * * * * * * * * * * * * * * * * * * * * * * //

dimensions      [0 2 -1 0 0 0 0];


internalField   nonuniform List<scalar> 
12225
(
2.68176e-05
3.54258e-05
4.03684e-05
4.29514e-05
4.4151e-05
4.4559e-05
4.45481e-05
4.43101e-05
4.40272e-05
4.36603e-05
4.33058e-05
4.29686e-05
4.26673e-05
4.23864e-05
4.21524e-05
4.19236e-05
4.17645e-05
4.15584e-05
0.000212639
8.33015e-05
5.47256e-05
4.31752e-05
3.76114e-05
3.47134e-05
3.32804e-05
3.25489e-05
3.23719e-05
3.24356e-05
3.28102e-05
3.32344e-05
3.38937e-05
3.44997e-05
3.53126e-05
3.60088e-05
3.68823e-05
3.76637e-05
0.000672724
0.000310874
0.000195698
0.000143065
0.000113852
9.49466e-05
8.23973e-05
7.36035e-05
6.70526e-05
6.21618e-05
5.82316e-05
5.52534e-05
5.26833e-05
5.08164e-05
4.90363e-05
4.79116e-05
4.65776e-05
4.56994e-05
0.000875664
0.000622526
0.000467536
0.000363503
0.000300136
0.000256
0.000225216
0.000202132
0.000185007
0.00017113
0.000160488
0.000151267
0.000144097
0.000137491
0.000132419
0.000127382
0.000123532
0.000119506
0.000881113
0.000787923
0.000712931
0.000617767
0.000543912
0.000484127
0.00043848
0.000401179
0.000372543
0.000347923
0.000328994
0.000311686
0.00029864
0.000285805
0.000276554
0.00026659
0.000259927
0.000251945
0.00086418
0.000837726
0.000818734
0.00077499
0.000728418
0.000681719
0.000640734
0.000603102
0.000571932
0.000543187
0.000520103
0.000498006
0.000480928
0.000463489
0.000450902
0.000436676
0.000427502
0.000415232
0.000854473
0.00085206
0.000844945
0.000833281
0.000817256
0.000794258
0.000770954
0.000746251
0.00072361
0.000700778
0.000681155
0.000661264
0.000645091
0.000627983
0.00061509
0.000600209
0.000590345
0.000576908
0.000852235
0.000852215
0.000850459
0.000847136
0.000840851
0.000831985
0.000821478
0.000808241
0.000794837
0.000780326
0.000767045
0.000752807
0.000740606
0.000727321
0.000716718
0.000704503
0.000695731
0.000684202
0.000851802
0.000851651
0.000851177
0.00085028
0.000848414
0.00084518
0.00084092
0.000835289
0.000828337
0.000820962
0.000813281
0.000804685
0.00079683
0.000788023
0.000780512
0.000771992
0.00076502
0.000756731
0.00085177
0.000851405
0.000851079
0.000850689
0.000850164
0.000849196
0.000847832
0.000845885
0.000843392
0.000840195
0.000836873
0.000832765
0.000828839
0.000824184
0.000819997
0.000815091
0.000810981
0.000805679
0.000851783
0.000851364
0.000851007
0.000850643
0.000850326
0.000849914
0.000849464
0.000848801
0.000848059
0.000846957
0.000845822
0.000844273
0.000842772
0.000840821
0.000839069
0.000836777
0.000834947
0.000832332
0.000851785
0.000851364
0.00085099
0.000850615
0.000850291
0.00084995
0.000849653
0.000849298
0.000848979
0.00084855
0.000848148
0.000847598
0.000847086
0.00084639
0.000845771
0.000844923
0.000844222
0.000843235
0.000851783
0.000851365
0.000850981
0.000850607
0.000850268
0.000849932
0.000849631
0.000849325
0.000849052
0.000848762
0.0008485
0.000848209
0.000847944
0.000847637
0.000847358
0.000847025
0.000846724
0.000846362
0.000851781
0.000851365
0.000850975
0.000850602
0.000850254
0.000849919
0.000849607
0.000849306
0.000849026
0.000848753
0.000848499
0.000848249
0.000848015
0.000847782
0.000847563
0.000847342
0.000847133
0.000846921
0.00085178
0.000851363
0.00085097
0.000850596
0.000850244
0.000849908
0.000849591
0.000849289
0.000849003
0.000848729
0.00084847
0.000848221
0.000847985
0.000847758
0.000847542
0.000847333
0.000847134
0.000846942
0.000851779
0.000851362
0.000850967
0.000850592
0.000850237
0.0008499
0.000849579
0.000849275
0.000848986
0.00084871
0.000848447
0.000848196
0.000847956
0.000847727
0.000847508
0.000847298
0.000847097
0.000846904
0.000851779
0.000851362
0.000850965
0.00085059
0.000850233
0.000849894
0.000849572
0.000849266
0.000848974
0.000848696
0.000848431
0.000848178
0.000847935
0.000847704
0.000847482
0.00084727
0.000847067
0.000846873
0.000851779
0.000851362
0.000850965
0.000850588
0.000850231
0.000849891
0.000849568
0.000849261
0.000848968
0.000848689
0.000848422
0.000848168
0.000847924
0.000847691
0.000847469
0.000847255
0.000847051
0.000846855
0.000851779
0.000851362
0.000850966
0.000850589
0.000850232
0.000849892
0.000849569
0.000849261
0.000848968
0.000848688
0.000848421
0.000848166
0.000847922
0.000847689
0.000847465
0.000847251
0.000847046
0.00084685
0.000851779
0.000851363
0.000850966
0.000850591
0.000850234
0.000849895
0.000849572
0.000849265
0.000848971
0.000848692
0.000848424
0.000848169
0.000847923
0.000847688
0.000847461
0.000847244
0.000847033
0.000846832
0.000851779
0.000851364
0.000850968
0.000850595
0.000850237
0.000849901
0.000849577
0.000849271
0.000848972
0.000848689
0.000848408
0.00084814
0.000847868
0.000847608
0.000847339
0.000847081
0.00084681
0.000846553
0.000851778
0.000851367
0.000850969
0.000850603
0.000850242
0.000849905
0.000849559
0.000849223
0.000848857
0.000848487
0.000848068
0.000847639
0.000847144
0.000846645
0.000846064
0.000845498
0.000844834
0.000844214
0.000851779
0.000851383
0.000850973
0.000850622
0.000850189
0.000849724
0.000849092
0.000848358
0.00084739
0.000846282
0.000844924
0.00084344
0.000841719
0.000839926
0.000837892
0.000835915
0.000833642
0.000831577
0.000851859
0.000851472
0.000850928
0.000850331
0.000848933
0.00084706
0.000844293
0.000840946
0.000836713
0.000832072
0.000826771
0.000821306
0.000815406
0.000809448
0.000803443
0.000797537
0.000791353
0.000785867
0.000852724
0.000851367
0.000849164
0.000844912
0.00083667
0.000827515
0.00081543
0.000802405
0.000787996
0.000773899
0.000759244
0.000745537
0.00073163
0.000719025
0.000706213
0.000695023
0.000683368
0.000673679
0.000857406
0.00084308
0.000830279
0.000805598
0.000773689
0.000741328
0.000708092
0.000677835
0.000648459
0.000622852
0.000598277
0.00057734
0.000557081
0.000540134
0.000523389
0.000509741
0.000495727
0.000484758
0.000862012
0.000792008
0.000724529
0.000644825
0.000578076
0.000523876
0.000476986
0.000439659
0.000406908
0.000380972
0.000357399
0.000338887
0.000321359
0.000307805
0.000294364
0.000284183
0.000273551
0.00026577
0.000782215
0.000562152
0.000424431
0.000338335
0.000281873
0.00024102
0.000209937
0.00018706
0.000168469
0.000154493
0.000142413
0.000133311
0.000124951
0.00011873
0.00011265
0.00010824
0.000103638
0.000100405
0.000343385
0.000180401
0.000124375
9.65863e-05
7.95191e-05
6.85109e-05
6.11006e-05
5.60939e-05
5.25291e-05
5.00612e-05
4.82378e-05
4.70027e-05
4.60667e-05
4.54979e-05
4.50537e-05
4.48674e-05
4.47074e-05
4.47588e-05
3.41128e-05
4.01588e-05
4.47618e-05
4.78934e-05
5.046e-05
5.25065e-05
5.40877e-05
5.5275e-05
5.61287e-05
5.67199e-05
5.70945e-05
5.7312e-05
5.7396e-05
5.73927e-05
5.72966e-05
5.72038e-05
5.70409e-05
5.68568e-05
5.81644e-06
1.78029e-05
2.17272e-05
2.4549e-05
2.66117e-05
2.81625e-05
2.93337e-05
3.02263e-05
3.11452e-05
3.19236e-05
3.2639e-05
3.33744e-05
3.41777e-05
3.51141e-05
3.62344e-05
3.75849e-05
3.90438e-05
4.05683e-05
4.21472e-05
4.38014e-05
4.5521e-05
4.7328e-05
4.92213e-05
5.11838e-05
5.31937e-05
5.52549e-05
5.73451e-05
5.94627e-05
6.15842e-05
6.37098e-05
6.58166e-05
6.79048e-05
6.99586e-05
7.19781e-05
7.39523e-05
7.58826e-05
7.77617e-05
7.95924e-05
8.13708e-05
8.30998e-05
8.47776e-05
8.64075e-05
8.79892e-05
8.95253e-05
9.10169e-05
9.24662e-05
9.38746e-05
9.52441e-05
9.6576e-05
9.7872e-05
9.91334e-05
0.000100363
0.000101561
0.00010273
0.00010387
0.000104982
0.000106066
0.000107123
0.000108154
0.000109158
0.000110136
0.000111087
0.000112012
0.000112911
0.000113783
0.000114629
0.000115447
0.000116238
0.000117002
0.00011774
0.00011845
0.000119132
0.000119786
0.000120409
0.000121003
0.000121568
0.000122108
0.000122622
0.000123115
0.000123584
0.000124026
0.000124423
0.000124781
0.000125186
0.000125544
0.000125886
0.000126239
0.000126569
0.00012691
0.000127253
0.000127618
0.000127854
0.000128303
0.000128905
0.00012887
0.000128668
0.000129004
0.000129082
0.000129302
0.000129612
0.000129859
0.000130137
0.000130342
0.000130362
0.000130361
0.00013031
0.00012994
0.000128683
0.00013004
0.000131745
0.000129392
0.000131253
0.000130499
0.000132046
0.000131519
0.000131294
0.000129766
0.000130681
0.000129882
0.000129409
0.000130479
0.000130107
0.000129947
0.000129631
0.000129301
0.000128925
0.000128506
0.000128043
0.000127533
0.000126978
0.00012638
0.00012573
0.000125023
0.000124258
0.000123432
0.000122548
0.000121638
0.000120633
0.000119562
0.000118439
0.000117247
0.000115988
0.000114679
0.000113321
0.000111814
0.00011032
0.000108923
0.000106529
0.00010459
0.000103452
0.000102403
0.000101341
0.000100258
9.91552e-05
9.80433e-05
9.69492e-05
9.58301e-05
9.467e-05
9.3476e-05
9.23714e-05
9.12801e-05
9.0152e-05
8.90137e-05
8.78898e-05
8.67902e-05
8.57074e-05
8.46417e-05
8.35998e-05
8.25809e-05
8.1586e-05
8.06157e-05
7.96692e-05
7.87462e-05
7.78374e-05
7.6961e-05
7.60436e-05
7.52375e-05
7.4098e-05
7.38045e-05
7.08428e-05
9.86037e-06
6.15175e-05
0.000125069
0.000173719
0.000207543
0.000231313
0.000247796
0.000258491
0.000263958
0.000266596
0.000268193
0.000269797
0.000271921
0.000274757
0.000278239
0.000282174
0.000286432
0.000291189
0.000296586
0.000302709
0.000309593
0.000317295
0.000325846
0.000335323
0.000345747
0.000357134
0.000369451
0.000382679
0.000396707
0.00041158
0.000427178
0.000443409
0.000460146
0.000477295
0.000494726
0.000512342
0.000530018
0.000547681
0.000565235
0.000582627
0.000599785
0.000616679
0.00063326
0.000649519
0.000665422
0.000680973
0.000696151
0.000710966
0.000725401
0.000739463
0.000753122
0.000766442
0.000779443
0.000792148
0.000804553
0.000816679
0.000828518
0.000840088
0.000851377
0.0008624
0.000873142
0.000883615
0.000893801
0.000903709
0.000913319
0.000922637
0.000931642
0.000940339
0.000948709
0.000956763
0.000964488
0.000971904
0.000978971
0.000985658
0.00099195
0.000997855
0.00100336
0.00100848
0.00101319
0.0010175
0.0010214
0.00102497
0.00102832
0.00103147
0.00103424
0.00103687
0.00103933
0.00104159
0.00104373
0.00104569
0.00104748
0.001049
0.00105069
0.0010517
0.00105122
0.00105243
0.00105453
0.00105647
0.00105934
0.00106236
0.00106548
0.00106882
0.0010721
0.00107559
0.00107975
0.00108402
0.00108799
0.00109138
0.00109651
0.00109852
0.00109878
0.00110406
0.00110644
0.00110643
0.00111263
0.00111135
0.00111629
0.00111821
0.00112213
0.00112406
0.00112865
0.00113
0.00113533
0.00113793
0.00114056
0.00114283
0.00114476
0.00114627
0.00114732
0.00114785
0.0011479
0.00114738
0.0011461
0.00114411
0.00114135
0.00113781
0.00113359
0.00112865
0.00112285
0.00111626
0.00110891
0.0011008
0.00109201
0.00108265
0.00107243
0.00106144
0.00105096
0.00103758
0.00102038
0.00100192
0.000982897
0.000963587
0.000944165
0.00092477
0.000905448
0.000886369
0.000867254
0.000848525
0.000830074
0.000812244
0.000794957
0.000777915
0.00076127
0.000745111
0.000729407
0.000714065
0.000699132
0.000684646
0.000670573
0.000656916
0.000643656
0.000630785
0.000618204
0.000606049
0.000593817
0.000582368
0.000569631
0.000558635
0.00054154
0.000488282
1.24753e-05
9.02389e-05
0.000189247
0.000272497
0.000338242
0.0003886
0.000426531
0.000454624
0.000474916
0.000489449
0.000500093
0.000508417
0.000515649
0.000522702
0.000530219
0.000538641
0.000548288
0.000559408
0.000572158
0.000586621
0.000602832
0.000620814
0.000640579
0.000662137
0.000685464
0.000710495
0.000737093
0.000765516
0.00079621
0.000828399
0.000861649
0.000895711
0.000930388
0.000965519
0.00100093
0.00103644
0.00107181
0.00110695
0.00114176
0.00117615
0.00121003
0.00124336
0.00127608
0.00130817
0.0013396
0.00137037
0.00140046
0.00142989
0.00145865
0.00148676
0.00151423
0.00154109
0.00156736
0.00159306
0.00161821
0.00164283
0.0016669
0.00169046
0.0017135
0.00173602
0.00175803
0.00177952
0.00180049
0.00182094
0.00184084
0.0018602
0.001879
0.00189723
0.00191486
0.0019319
0.00194832
0.00196412
0.00197926
0.00199372
0.00200749
0.00202056
0.0020329
0.00204452
0.00205542
0.0020656
0.00207511
0.002084
0.0020923
0.00210001
0.00210711
0.0021137
0.00211976
0.00212533
0.00213042
0.00213503
0.00213919
0.00214293
0.00214632
0.00214919
0.00215157
0.00215499
0.00215864
0.00216236
0.00216641
0.00217042
0.00217446
0.0021786
0.00218286
0.00218746
0.00219239
0.00219729
0.00220196
0.00220621
0.00221053
0.00221316
0.00221587
0.00222076
0.00222403
0.00222536
0.00222937
0.00223141
0.00223663
0.00224059
0.0022438
0.00224604
0.0022497
0.0022519
0.00225543
0.00225755
0.00225917
0.00226011
0.00226029
0.00225961
0.00225797
0.00225526
0.00225143
0.00224638
0.00223998
0.00223221
0.002223
0.00221233
0.00220024
0.00218675
0.0021718
0.00215538
0.00213752
0.00211829
0.00209777
0.00207609
0.00205317
0.00202905
0.00200449
0.00197777
0.00194777
0.00191584
0.00188286
0.00184932
0.00181551
0.00178166
0.00174789
0.00171442
0.00168135
0.00164892
0.00161717
0.00158697
0.00155761
0.00152828
0.00149976
0.00147221
0.00144549
0.00141925
0.00139373
0.001369
0.00134493
0.00132155
0.00129881
0.00127666
0.00125497
0.00123383
0.00121261
0.00119221
0.0011703
0.00114882
0.00112912
0.0010604
1.44063e-05
0.000117579
0.000243529
0.000350906
0.000437922
0.000506964
0.000560957
0.000602635
0.000634458
0.000658681
0.000677374
0.000692408
0.000705425
0.000717807
0.000730665
0.000744834
0.000760908
0.000779271
0.000800145
0.000823635
0.000849768
0.00087853
0.000909884
0.000943775
0.00098014
0.00101891
0.00106005
0.00110316
0.00114759
0.00119323
0.00123996
0.00128752
0.00133566
0.00138433
0.00143337
0.00148268
0.00153193
0.00158087
0.00162932
0.00167718
0.00172436
0.00177079
0.00181642
0.00186121
0.00190515
0.00194823
0.00199043
0.00203175
0.00207222
0.00211184
0.00215064
0.00218862
0.00222581
0.00226224
0.00229792
0.00233286
0.00236707
0.00240058
0.00243337
0.00246547
0.00249686
0.00252756
0.00255754
0.00258682
0.00261537
0.00264319
0.00267026
0.00269656
0.00272208
0.00274679
0.00277068
0.00279372
0.00281589
0.00283716
0.00285751
0.00287692
0.00289537
0.00291284
0.00292935
0.0029449
0.00295953
0.00297327
0.00298612
0.00299811
0.00300925
0.00301957
0.00302909
0.00303785
0.00304586
0.00305317
0.00305982
0.00306586
0.00307136
0.00307637
0.00308108
0.00308594
0.00309071
0.00309534
0.00309984
0.00310412
0.00310822
0.00311219
0.00311612
0.00312011
0.00312412
0.00312792
0.00313138
0.00313446
0.00313737
0.0031396
0.00314129
0.00314419
0.00314775
0.00314947
0.00315096
0.00315137
0.00315353
0.00315501
0.00315624
0.00315684
0.00315769
0.00315786
0.00315803
0.00315731
0.00315586
0.00315355
0.00315028
0.00314594
0.00314039
0.00313353
0.00312524
0.00311542
0.00310394
0.00309074
0.00307574
0.00305892
0.00304028
0.00301985
0.00299773
0.00297383
0.00294811
0.00292064
0.00289152
0.00286088
0.00282878
0.0027953
0.00276075
0.00272438
0.00268561
0.00264504
0.0026033
0.00256087
0.00251807
0.00247517
0.00243233
0.00238977
0.00234768
0.00230626
0.00226557
0.00222609
0.00218769
0.00215055
0.00211495
0.00208079
0.00204784
0.00201519
0.00198355
0.00195306
0.00192334
0.00189448
0.00186645
0.00183912
0.00181235
0.00178612
0.00175997
0.00173436
0.00170779
0.00168046
0.00165742
0.00159136
1.59342e-05
0.000140869
0.00029066
0.000418616
0.000523264
0.000607582
0.000674749
0.000727899
0.000769793
0.000802914
0.000829524
0.000851692
0.000871275
0.000889891
0.000908887
0.000929316
0.000951948
0.000977298
0.00100567
0.0010372
0.00107193
0.00110981
0.00115074
0.0011946
0.00124123
0.00129041
0.00134193
0.00139544
0.00145061
0.00150717
0.00156491
0.00162362
0.00168307
0.00174292
0.00180293
0.00186285
0.00192243
0.00198157
0.00204015
0.00209807
0.00215523
0.00221155
0.00226699
0.0023215
0.00237505
0.00242762
0.0024792
0.00252979
0.00257941
0.00262805
0.00267574
0.00272249
0.00276833
0.00281326
0.00285731
0.00290049
0.00294282
0.00298431
0.00302496
0.00306479
0.00310379
0.00314196
0.0031793
0.00321581
0.00325146
0.00328625
0.00332016
0.00335317
0.00338525
0.00341639
0.00344656
0.00347573
0.00350386
0.00353094
0.00355692
0.00358178
0.00360548
0.00362803
0.0036494
0.0036696
0.00368865
0.00370655
0.00372332
0.00373897
0.00375352
0.00376699
0.00377939
0.00379076
0.00380114
0.00381056
0.00381908
0.00382676
0.00383367
0.00383988
0.00384555
0.0038508
0.00385561
0.00385995
0.00386382
0.00386719
0.00387009
0.0038726
0.00387479
0.00387674
0.00387854
0.00387997
0.00388111
0.00388166
0.00388231
0.00388309
0.00388352
0.00388303
0.00388266
0.00388158
0.00388007
0.00387831
0.00387678
0.00387495
0.00387282
0.0038703
0.00386758
0.00386438
0.00386076
0.00385642
0.00385132
0.00384534
0.00383838
0.00383032
0.00382101
0.00381033
0.00379815
0.00378435
0.0037688
0.00375141
0.00373209
0.00371079
0.0036875
0.00366224
0.00363515
0.00360593
0.00357469
0.00354154
0.00350658
0.00346994
0.00343172
0.00339201
0.00335093
0.00330821
0.00326363
0.0032175
0.00317025
0.00312229
0.00307393
0.00302542
0.00297697
0.00292879
0.00288108
0.00283402
0.00278774
0.00274251
0.00269836
0.00265544
0.00261393
0.0025743
0.00253667
0.00250049
0.00246586
0.00243278
0.00240035
0.00236891
0.00233845
0.00230874
0.00227967
0.00225109
0.0022227
0.00219468
0.00216619
0.00213671
0.00211125
0.00204786
1.71555e-05
0.000161017
0.000332259
0.000478646
0.000598857
0.000696741
0.000775698
0.000839274
0.000890523
0.000932143
0.00096656
0.000995968
0.00102234
0.00104741
0.00107265
0.00109922
0.00112802
0.00115966
0.00119453
0.0012328
0.00127454
0.00131968
0.0013681
0.00141962
0.00147401
0.00153103
0.00159039
0.00165177
0.00171487
0.00177941
0.0018451
0.00191168
0.0019789
0.00204647
0.00211416
0.00218173
0.00224898
0.00231577
0.00238198
0.00244748
0.00251219
0.00257602
0.00263893
0.00270085
0.00276177
0.00282165
0.00288049
0.00293828
0.00299502
0.00305072
0.0031054
0.00315906
0.00321174
0.00326343
0.00331417
0.00336396
0.00341283
0.00346078
0.00350782
0.00355396
0.0035992
0.00364354
0.00368698
0.0037295
0.0037711
0.00381175
0.00385144
0.00389014
0.00392784
0.00396448
0.00400006
0.00403452
0.00406784
0.00409997
0.00413088
0.00416052
0.00418886
0.00421587
0.00424153
0.00426583
0.00428876
0.00431032
0.00433052
0.00434935
0.00436683
0.00438298
0.0043978
0.00441133
0.0044236
0.00443465
0.00444453
0.0044533
0.00446101
0.00446773
0.00447355
0.00447855
0.00448274
0.00448613
0.00448872
0.00449052
0.00449157
0.00449193
0.00449164
0.00449081
0.00448979
0.004488
0.00448608
0.00448382
0.00448103
0.00447793
0.00447409
0.00446985
0.00446523
0.00446009
0.00445454
0.00444868
0.00444267
0.0044364
0.00442985
0.00442298
0.00441581
0.00440823
0.00440019
0.00439157
0.00438228
0.00437223
0.00436131
0.0043494
0.00433637
0.00432209
0.00430641
0.00428921
0.00427034
0.0042497
0.00422718
0.00420271
0.00417625
0.00414779
0.00411733
0.00408483
0.00405032
0.00401387
0.00397559
0.00393557
0.00389391
0.00385073
0.0038061
0.00375997
0.00371231
0.00366332
0.0036133
0.00356258
0.00351142
0.00346008
0.00340876
0.00335766
0.00330699
0.00325691
0.00320759
0.0031592
0.00311184
0.00306563
0.00302072
0.00297738
0.00293579
0.00289651
0.00285944
0.00282453
0.00279124
0.00275941
0.0027287
0.00269851
0.00266893
0.00263971
0.00261075
0.00258207
0.0025532
0.00252356
0.00249667
0.00244052
1.81597e-05
0.000178703
0.000368744
0.000531569
0.000665843
0.000776175
0.000866112
0.00093954
0.000999764
0.00104966
0.00109178
0.0011284
0.00116155
0.00119301
0.00122431
0.00125669
0.0012911
0.00132824
0.00136855
0.00141228
0.00145951
0.00151019
0.0015642
0.00162134
0.00168137
0.00174402
0.00180898
0.00187596
0.00194465
0.00201474
0.00208596
0.00215804
0.0022307
0.0023037
0.0023768
0.0024498
0.00252251
0.00259478
0.00266647
0.00273748
0.00280771
0.00287707
0.00294551
0.00301298
0.00307944
0.00314486
0.00320923
0.00327255
0.0033348
0.00339599
0.00345615
0.00351526
0.00357336
0.00363046
0.00368658
0.00374173
0.00379592
0.00384918
0.0039015
0.0039529
0.00400337
0.00405292
0.00410154
0.00414922
0.00419594
0.00424169
0.00428643
0.00433015
0.00437281
0.00441437
0.00445479
0.00449402
0.00453203
0.00456877
0.00460417
0.00463819
0.00467079
0.00470192
0.00473154
0.00475962
0.00478613
0.00481107
0.00483441
0.00485615
0.00487628
0.00489481
0.00491175
0.00492712
0.00494094
0.00495325
0.00496408
0.00497348
0.0049815
0.0049882
0.00499363
0.00499786
0.00500092
0.00500284
0.00500363
0.00500332
0.00500193
0.00499958
0.00499621
0.00499171
0.00498678
0.00498174
0.00497661
0.00497007
0.00496282
0.00495495
0.0049464
0.00493728
0.00492765
0.00491751
0.00490691
0.00489596
0.00488472
0.00487322
0.00486145
0.00484942
0.00483712
0.00482451
0.00481155
0.00479817
0.00478432
0.00476991
0.00475485
0.00473904
0.00472234
0.00470463
0.00468577
0.0046656
0.00464401
0.00462084
0.00459598
0.00456933
0.00454083
0.00451043
0.00447812
0.00444388
0.00440774
0.00436974
0.00432996
0.00428847
0.00424537
0.00420076
0.00415471
0.00410727
0.00405848
0.00400851
0.00395759
0.00390598
0.00385393
0.00380165
0.00374934
0.00369719
0.00364541
0.00359417
0.00354363
0.00349393
0.00344519
0.00339751
0.00335103
0.00330594
0.0032624
0.00322075
0.00318169
0.00314553
0.0031117
0.00307978
0.00304936
0.00301996
0.00299141
0.00296296
0.00293477
0.00290675
0.00287866
0.00285005
0.00282294
0.00277429
1.91221e-05
0.000193512
0.000399568
0.000576997
0.000724106
0.000846016
0.000946331
0.00102919
0.0010981
0.00115607
0.00120575
0.00124945
0.00128925
0.00132692
0.001364
0.00140178
0.00144123
0.00148311
0.00152792
0.00157596
0.00162735
0.00168208
0.00174006
0.00180108
0.00186492
0.00193131
0.00199997
0.00207059
0.00214287
0.00221653
0.00229129
0.00236688
0.00244305
0.00251956
0.00259619
0.00267276
0.00274908
0.00282501
0.00290041
0.00297518
0.00304922
0.00312245
0.00319481
0.00326624
0.0033367
0.00340617
0.00347462
0.00354204
0.00360844
0.00367381
0.00373816
0.0038015
0.00386384
0.00392521
0.00398562
0.00404508
0.00410361
0.00416122
0.00421793
0.00427374
0.00432864
0.00438265
0.00443574
0.00448792
0.00453915
0.00458943
0.00463871
0.00468696
0.00473415
0.00478022
0.00482514
0.00486883
0.00491126
0.00495234
0.00499203
0.00503025
0.00506695
0.00510205
0.0051355
0.00516726
0.00519727
0.0052255
0.00525192
0.0052765
0.00529922
0.00532006
0.00533904
0.00535614
0.00537139
0.00538481
0.00539642
0.00540627
0.00541438
0.00542082
0.00542562
0.00542884
0.00543053
0.00543074
0.00542949
0.00542681
0.00542265
0.00541677
0.0054097
0.00540225
0.00539428
0.00538513
0.00537494
0.00536365
0.00535143
0.00533836
0.0053245
0.00530992
0.0052947
0.0052789
0.0052626
0.00524588
0.00522882
0.00521149
0.00519392
0.00517614
0.00515819
0.00514007
0.00512176
0.00510326
0.00508453
0.00506552
0.00504617
0.00502637
0.00500602
0.00498499
0.00496315
0.00494036
0.00491646
0.0048913
0.00486474
0.00483666
0.00480698
0.00477562
0.00474255
0.00470775
0.00467123
0.004633
0.00459312
0.00455163
0.0045086
0.00446411
0.00441823
0.00437103
0.00432261
0.0042731
0.00422269
0.0041716
0.00412006
0.00406824
0.00401633
0.00396453
0.00391302
0.00386197
0.00381157
0.00376192
0.00371315
0.00366535
0.00361865
0.00357321
0.00352918
0.00348679
0.00344656
0.00340973
0.0033758
0.00334414
0.00331426
0.00328573
0.00325827
0.00323143
0.00320498
0.00317849
0.00315193
0.003125
0.0030986
0.00305656
2.0239e-05
0.000203339
0.000423017
0.000613884
0.00077299
0.000905806
0.00101599
0.00110787
0.00118513
0.0012509
0.0013079
0.00135846
0.00140466
0.00144826
0.0014908
0.00153355
0.00157751
0.00162347
0.00167196
0.00172334
0.00177777
0.00183531
0.00189587
0.00195931
0.00202542
0.00209397
0.00216467
0.00223726
0.00231145
0.00238697
0.00246357
0.00254098
0.00261897
0.00269733
0.00277584
0.00285435
0.00293267
0.00301067
0.00308822
0.00316521
0.00324156
0.00331717
0.00339199
0.00346597
0.00353906
0.00361123
0.00368245
0.00375272
0.00382203
0.00389038
0.00395778
0.00402423
0.00408975
0.00415436
0.00421808
0.00428092
0.0043429
0.00440404
0.00446434
0.00452381
0.00458246
0.00464028
0.00469726
0.00475339
0.00480865
0.00486301
0.00491644
0.00496889
0.00502032
0.00507067
0.00511988
0.00516788
0.0052146
0.00525997
0.0053039
0.00534631
0.00538712
0.00542625
0.00546361
0.00549914
0.00553277
0.00556443
0.00559406
0.00562163
0.00564708
0.00567039
0.00569155
0.00571053
0.00572733
0.00574196
0.00575445
0.00576481
0.00577307
0.00577928
0.00578348
0.00578572
0.00578606
0.00578456
0.00578127
0.00577605
0.00576873
0.00575969
0.00574964
0.00573881
0.00572676
0.00571312
0.00569812
0.00568185
0.00566441
0.0056459
0.00562641
0.00560604
0.00558489
0.00556304
0.0055406
0.00551768
0.00549437
0.00547078
0.00544698
0.00542305
0.00539905
0.00537504
0.00535105
0.00532711
0.00530322
0.00527938
0.00525554
0.00523165
0.0052076
0.00518329
0.00515859
0.00513336
0.00510746
0.00508069
0.0050529
0.00502397
0.00499377
0.0049622
0.00492919
0.00489474
0.00485882
0.00482142
0.00478253
0.00474218
0.0047004
0.00465723
0.00461274
0.00456701
0.00452011
0.00447217
0.00442336
0.0043739
0.00432395
0.00427368
0.00422325
0.00417284
0.00412265
0.00407285
0.00402361
0.00397506
0.00392729
0.0038804
0.0038345
0.00378976
0.00374631
0.00370438
0.00366436
0.00362756
0.00359404
0.003563
0.00353391
0.00350636
0.00348004
0.00345463
0.00342988
0.00340551
0.003381
0.00335606
0.00333099
0.00329454
2.11073e-05
0.000209808
0.000440368
0.000642763
0.000812526
0.000955215
0.00107466
0.00117502
0.00126015
0.0013333
0.00139723
0.00145429
0.00150652
0.00155569
0.00160329
0.00165056
0.00169851
0.00174793
0.0017994
0.00185329
0.00190984
0.00196913
0.00203115
0.00209578
0.00216286
0.00223218
0.00230352
0.00237662
0.00245125
0.00252714
0.00260406
0.00268178
0.00276009
0.00283879
0.0029177
0.00299665
0.00307549
0.0031541
0.00323234
0.00331013
0.00338738
0.00346399
0.00353992
0.00361511
0.00368952
0.00376311
0.00383586
0.00390776
0.0039788
0.00404898
0.0041183
0.00418679
0.00425446
0.00432132
0.0043874
0.00445273
0.00451731
0.00458116
0.00464431
0.00470675
0.00476849
0.00482954
0.00488987
0.00494948
0.00500835
0.00506644
0.0051237
0.00518011
0.00523559
0.00529007
0.0053435
0.00539578
0.00544683
0.00549654
0.00554484
0.0055916
0.00563672
0.00568011
0.00572165
0.00576124
0.00579879
0.00583421
0.00586742
0.00589833
0.0059269
0.00595305
0.00597676
0.00599798
0.00601669
0.0060329
0.00604659
0.00605778
0.00606649
0.00607277
0.00607664
0.00607816
0.00607739
0.0060744
0.00606924
0.00606154
0.00605169
0.00603995
0.00602694
0.00601249
0.00599616
0.0059781
0.00595839
0.00593715
0.00591448
0.00589049
0.0058653
0.00583902
0.00581178
0.00578371
0.00575493
0.00572557
0.00569576
0.00566565
0.00563535
0.00560497
0.00557464
0.00554445
0.00551449
0.00548483
0.00545554
0.00542663
0.00539813
0.00536999
0.00534215
0.00531451
0.00528698
0.00525942
0.00523172
0.0052036
0.00517493
0.00514556
0.00511535
0.00508415
0.00505186
0.00501846
0.00498392
0.00494817
0.00491116
0.00487286
0.00483326
0.00479238
0.00475025
0.00470692
0.00466248
0.00461702
0.00457068
0.00452372
0.00447626
0.0044284
0.0043803
0.00433214
0.00428409
0.00423636
0.00418913
0.0041425
0.00409655
0.00405137
0.00400708
0.00396385
0.00392185
0.00388127
0.00384249
0.00380674
0.00377422
0.00374417
0.00371612
0.00368967
0.00366455
0.00364049
0.00361728
0.00359471
0.00357242
0.0035496
0.00352616
0.00349441
2.1812e-05
0.000214017
0.000452698
0.000664425
0.000843377
0.000994604
0.00112216
0.00123012
0.00132241
0.0014023
0.00147257
0.00153558
0.00159334
0.00164756
0.0016997
0.00175097
0.00180236
0.00185466
0.00190844
0.00196413
0.00202198
0.00208214
0.00214462
0.00220938
0.0022763
0.00234522
0.00241595
0.00248828
0.002562
0.00263689
0.00271276
0.0027894
0.00286663
0.00294426
0.00302213
0.00310011
0.00317805
0.00325585
0.0033334
0.00341059
0.00348736
0.00356361
0.00363931
0.00371438
0.0037888
0.00386254
0.00393556
0.00400787
0.00407945
0.0041503
0.00422043
0.00428986
0.00435862
0.00442672
0.00449421
0.00456111
0.00462743
0.00469321
0.00475845
0.00482316
0.00488737
0.00495106
0.00501424
0.00507689
0.00513899
0.00520049
0.00526136
0.00532154
0.00538096
0.00543956
0.00549722
0.00555388
0.0056094
0.00566368
0.00571661
0.00576804
0.00581784
0.0058659
0.00591206
0.0059562
0.0059982
0.00603792
0.00607526
0.0061101
0.00614237
0.00617196
0.00619882
0.00622287
0.00624409
0.00626244
0.00627791
0.00629049
0.0063002
0.00630705
0.0063111
0.00631238
0.00631095
0.00630689
0.00630016
0.00629067
0.00627878
0.0062647
0.00624875
0.00623077
0.00621065
0.00618847
0.00616433
0.00613833
0.00611062
0.00608131
0.00605053
0.00601844
0.00598517
0.00595088
0.00591573
0.00587988
0.0058435
0.00580675
0.00576981
0.00573284
0.005696
0.00565943
0.00562329
0.0055877
0.00555279
0.00551862
0.00548526
0.00545273
0.00542097
0.00538991
0.00535949
0.00532962
0.00530028
0.00527099
0.00524167
0.00521219
0.00518237
0.00515199
0.00512088
0.00508909
0.00505653
0.0050231
0.00498868
0.00495317
0.00491651
0.00487869
0.0048397
0.00479956
0.00475834
0.00471611
0.00467292
0.00462922
0.004585
0.00454028
0.00449522
0.00445
0.00440478
0.00435979
0.00431528
0.00427126
0.0042278
0.004185
0.00414298
0.00410195
0.00406209
0.00402361
0.00398692
0.00395312
0.00392214
0.00389345
0.00386666
0.00384145
0.00381758
0.00379484
0.00377306
0.00375206
0.00373158
0.00371082
0.00368909
0.00366128
2.23657e-05
0.000216275
0.000460467
0.000679219
0.000865506
0.00102376
0.00115813
0.00127259
0.00137105
0.00145681
0.00153262
0.00160081
0.00166336
0.00172194
0.00177795
0.00183257
0.00188674
0.00194125
0.00199666
0.00205341
0.0021118
0.00217198
0.00223405
0.00229797
0.00236371
0.00243113
0.0025001
0.00257045
0.00264202
0.00271463
0.00278812
0.00286234
0.00293712
0.00301229
0.00308772
0.00316331
0.00323895
0.00331453
0.00338997
0.00346517
0.00354006
0.00361458
0.00368867
0.00376229
0.00383539
0.00390796
0.00397997
0.00405142
0.0041223
0.00419263
0.0042624
0.00433164
0.00440038
0.00446868
0.00453658
0.00460413
0.00467132
0.0047382
0.00480477
0.00487107
0.00493711
0.00500289
0.00506843
0.0051337
0.00519869
0.00526335
0.00532764
0.0053915
0.00545485