/*--------------------------------*- C++ -*----------------------------------*\
| =========                 |                                                 |
| \\      /  F ield         | OpenFOAM: The Open Source CFD Toolbox           |
|  \\    /   O peration     | Version:  v2012                                 |
|   \\  /    A nd           | Website:  www.openfoam.com                      |
|    \\/     M anipulation  |                                                 |
\*---------------------------------------------------------------------------*/
FoamFile
{
    version     2.0;
    format      ascii;
    class       volScalarField;
    location    "700";
    object      nuTilda;
}
// * * * * * * * * * * * * * * * * * * * * * * * * * * * * * * * * * * * * * //

dimensions      [0 2 -1 0 0 0 0];


internalField   nonuniform List<scalar> 
12225
(
0.0122671
0.00158833
0.000666932
0.0004122
0.000298016
0.000234158
0.000195366
0.000157553
0.000177044
0.000222663
0.000230376
0.000221268
0.000203464
0.000178139
0.000172633
0.000158593
0.000147186
0.000136914
0.0323823
0.00744532
0.00330641
0.00204337
0.00146819
0.00114457
0.000939065
0.000785442
0.000691115
0.000627788
0.000570642
0.000520037
0.000476787
0.000437435
0.000407128
0.000374786
0.000350018
0.000324474
0.0490123
0.01515
0.00728196
0.00457856
0.00330642
0.00258052
0.00211335
0.00178198
0.00154689
0.00137268
0.0012317
0.00111558
0.0010187
0.000936519
0.000867176
0.000804852
0.000754197
0.000701737
0.063054
0.0237783
0.0122894
0.00788815
0.00573398
0.00448498
0.00367443
0.00310422
0.0026872
0.00237002
0.00211798
0.00191325
0.00174413
0.00160236
0.00148259
0.0013788
0.00129129
0.00120478
0.074932
0.0328517
0.0181452
0.0119262
0.00874549
0.00686413
0.00563087
0.0047613
0.00411869
0.00362573
0.00323518
0.00291879
0.00265805
0.00244011
0.00225604
0.00209841
0.00196344
0.00183991
0.0849536
0.0420208
0.0246655
0.0166359
0.0123325
0.00972587
0.00799541
0.0067674
0.00585404
0.00515005
0.00459192
0.00413985
0.00376745
0.00345638
0.00319356
0.00296911
0.00277618
0.00260663
0.0933822
0.0510219
0.0316642
0.0219415
0.016474
0.0130717
0.0107779
0.00913539
0.00790598
0.00695437
0.00619833
0.00558533
0.00508011
0.00465804
0.00430139
0.00399705
0.00373537
0.00350917
0.0993794
0.0583363
0.0378386
0.0268568
0.0204171
0.0163053
0.0134892
0.011453
0.00991905
0.00872671
0.00777697
0.0070057
0.00636944
0.00583764
0.00538817
0.0050047
0.00467518
0.00439184
0.104023
0.0645454
0.0433804
0.0314239
0.0241571
0.0194092
0.0161097
0.0137018
0.0118767
0.0104523
0.00931473
0.0083894
0.00762525
0.00698616
0.00644587
0.00598492
0.005589
0.00524918
0.108368
0.0708939
0.0493757
0.0365496
0.0284517
0.0230231
0.0191863
0.0163548
0.0141927
0.0124969
0.0111382
0.0100306
0.00911457
0.00834785
0.00769937
0.00714608
0.00667099
0.00626329
0.112368
0.0772557
0.0557282
0.0421918
0.0332976
0.0271652
0.0227468
0.0194433
0.0168984
0.0148904
0.013275
0.0119546
0.0108607
0.00994397
0.00916816
0.00850608
0.0079376
0.00744941
0.115994
0.0834975
0.0623054
0.0482612
0.0386474
0.0318167
0.026789
0.0229739
0.0200047
0.0176453
0.0157379
0.0141737
0.012875
0.0117851
0.010862
0.0100738
0.0093969
0.00881485
0.119234
0.0894856
0.0689377
0.0546109
0.0443919
0.0369007
0.0312597
0.0269089
0.0234837
0.02074
0.0185097
0.0166735
0.015145
0.0138601
0.0127706
0.0118397
0.0110399
0.010351
0.122086
0.095084
0.075415
0.0610223
0.0503361
0.0422535
0.0360231
0.0311353
0.0272402
0.0240931
0.0215191
0.0193909
0.0176141
0.0161175
0.0148467
0.0137602
0.0128258
0.0120198
0.124546
0.100135
0.0814619
0.0671726
0.056158
0.047577
0.0408126
0.0354174
0.031066
0.0275197
0.0246013
0.0221778
0.0201482
0.018435
0.0169783
0.0157315
0.0146584
0.0137312
0.126578
0.104396
0.0866605
0.0725515
0.0613228
0.0523526
0.0451453
0.0393148
0.0345631
0.0306611
0.0274325
0.024741
0.0224806
0.020569
0.0189413
0.0175468
0.0163455
0.0153062
0.128011
0.107322
0.0902141
0.0762353
0.0648743
0.0556509
0.0481493
0.0420254
0.0370012
0.0328553
0.0294126
0.0265352
0.0241143
0.0220643
0.0203171
0.0188191
0.0175275
0.0164083
0.128006
0.107313
0.0902048
0.0762269
0.0648674
0.0556454
0.048145
0.0420221
0.0369988
0.0328537
0.0294117
0.0265349
0.0241147
0.0220651
0.0203184
0.0188205
0.0175286
0.0164082
0.126509
0.104255
0.0864922
0.0723807
0.0611613
0.052205
0.0450128
0.0391967
0.0344584
0.0305685
0.0273506
0.0246684
0.0224163
0.0205118
0.0188902
0.0175006
0.0163023
0.015263
0.124267
0.0995604
0.0807712
0.0664676
0.0554886
0.0469631
0.0402594
0.0349228
0.0306248
0.0271258
0.0242487
0.0218611
0.0198625
0.0181762
0.0167425
0.0155151
0.0144574
0.0135404
0.12136
0.0936399
0.0737261
0.0593348
0.0487592
0.0408248
0.0347467
0.0300003
0.0262308
0.0231928
0.0207127
0.018665
0.0169572
0.0155197
0.0142998
0.0132566
0.0123582
0.0115797
0.117686
0.0865903
0.0656967
0.0514791
0.0415374
0.0343608
0.0290183
0.0249322
0.0217348
0.0191848
0.0171184
0.0154211
0.0140105
0.0128263
0.0118228
0.0109656
0.0102279
0.00958885
0.11305
0.0784122
0.056921
0.0432687
0.0342296
0.0279652
0.0234365
0.0200435
0.0174263
0.0153598
0.0136967
0.012337
0.0112107
0.0102671
0.00946865
0.00878716
0.00820096
0.00769339
0.107169
0.0691009
0.0476372
0.035029
0.0271566
0.021922
0.0182437
0.0155401
0.0134818
0.0118708
0.0105819
0.00953233
0.00866517
0.0079399
0.00732686
0.0068039
0.00635418
0.00596494
0.0996761
0.0587036
0.0381279
0.0270699
0.0205782
0.0164329
0.0135949
0.0115437
0.00999935
0.00879954
0.00784425
0.00706857
0.00642885
0.00589443
0.00544295
0.00505793
0.00472682
0.00444036
0.0901097
0.0473665
0.0287363
0.0196847
0.0146976
0.0116311
0.0095785
0.0081152
0.00702351
0.00618082
0.00551238
0.0049703
0.00452351
0.00415047
0.00383515
0.00356632
0.00333503
0.0031349
0.0779076
0.0353826
0.0198606
0.0131383
0.00966106
0.00759296
0.00623349
0.00527411
0.00456426
0.00402039
0.00359046
0.00324091
0.00295216
0.00271114
0.00250639
0.00233218
0.00218202
0.00205169
0.06238
0.0232554
0.0119461
0.00765493
0.00556338
0.00435255
0.00356722
0.00301618
0.00261335
0.00231041
0.00207212
0.00187489
0.00171026
0.00157314
0.00145384
0.00135331
0.00126593
0.00118883
0.0426105
0.0117794
0.00546931
0.00341388
0.00246076
0.00192014
0.0015728
0.00132961
0.00115855
0.00104154
0.00094995
0.000865541
0.000792561
0.000731077
0.000672202
0.0006232
0.00057874
0.00054302
0.0168348
0.0025599
0.00110031
0.000684193
0.00049518
0.000389159
0.000321434
0.000273103
0.00027221
0.000339065
0.000377213
0.000356584
0.000324566
0.0002913
0.000262384
0.00024227
0.000202966
0.000242319
3.70898e-06
1.38338e-05
2.56105e-05
3.82458e-05
4.60377e-05
4.98335e-05
5.0222e-05
4.77892e-05
4.45804e-05
3.94312e-05
3.40857e-05
2.93581e-05
2.67531e-05
2.73245e-05
2.9645e-05
3.13348e-05
3.1105e-05
2.80696e-05
2.27814e-05
1.91761e-05
1.97006e-05
2.60341e-05
3.89734e-05
6.51975e-05
8.76279e-05
0.000101051
0.00011368
0.000124647
0.000134572
0.000143039
0.000150593
0.000157183
0.000163019
0.000168152
0.000172666
0.000176677
0.000180251
0.00018346
0.000186348
0.000188952
0.000191294
0.000193395
0.000195267
0.000196925
0.000198381
0.000199646
0.000200727
0.000201631
0.000202355
0.000202896
0.000203139
0.00020337
0.000203415
0.000203296
0.000203018
0.000202603
0.000202046
0.000201352
0.000200522
0.00019956
0.000198466
0.000197244
0.000195896
0.000194425
0.000192834
0.000191126
0.000189302
0.000187365
0.000185319
0.000183166
0.00018091
0.000178554
0.0001761
0.000173551
0.000170909
0.000168176
0.000165355
0.000162447
0.000159453
0.000156375
0.000153213
0.000149968
0.00014664
0.000143227
0.000139727
0.000136136
0.000132446
0.000128647
0.000124726
0.000120669
0.000116458
0.00011208
0.000107534
0.000102878
9.83197e-05
9.4356e-05
9.15586e-05
8.98172e-05
8.8507e-05
8.7303e-05
8.61198e-05
8.49409e-05
8.3765e-05
8.25926e-05
8.14246e-05
8.02619e-05
7.9106e-05
7.79611e-05
7.68487e-05
7.58977e-05
7.49633e-05
7.40356e-05
7.31157e-05
7.22042e-05
7.13013e-05
7.04074e-05
6.95229e-05
6.86481e-05
6.77832e-05
6.69286e-05
6.60842e-05
6.52504e-05
6.44276e-05
6.36162e-05
6.2816e-05
6.2027e-05
6.12502e-05
6.05134e-05
5.98364e-05
5.91682e-05
5.8505e-05
5.78555e-05
5.72242e-05
5.65978e-05
5.59763e-05
5.53628e-05
5.47586e-05
5.41639e-05
5.3579e-05
5.30036e-05
5.24376e-05
5.18808e-05
5.13332e-05
5.07945e-05
5.02647e-05
4.97437e-05
4.92315e-05
4.87279e-05
4.8233e-05
4.77464e-05
4.72682e-05
4.67982e-05
4.63365e-05
4.58829e-05
4.54376e-05
4.50005e-05
4.45717e-05
4.41513e-05
4.37396e-05
4.33364e-05
4.29422e-05
4.25572e-05
4.21815e-05
4.18155e-05
4.14593e-05
4.11131e-05
4.07768e-05
4.04503e-05
4.0133e-05
3.98242e-05
3.95223e-05
3.92259e-05
3.8931e-05
3.86375e-05
3.83263e-05
3.80292e-05
3.76003e-05
3.72946e-05
3.63635e-05
3.48437e-05
5.88264e-06
3.99472e-05
9.09089e-05
0.000151937
0.000191214
0.000213577
0.000222528
0.000221112
0.000213142
0.000197482
0.000178382
0.000160487
0.000151699
0.00015645
0.00016863
0.000176144
0.000178042
0.000178824
0.000183795
0.000192727
0.000207764
0.000224951
0.000241193
0.000256487
0.000267385
0.000276845
0.000285427
0.000298267
0.000316708
0.00033033
0.000342773
0.000353478
0.000363231
0.000372157
0.000379928
0.00038703
0.000393651
0.000400011
0.000406235
0.000412388
0.000418464
0.000424419
0.000430202
0.000435772
0.000441101
0.000446171
0.000450969
0.000455481
0.000459708
0.000463657
0.000467336
0.000470766
0.000473936
0.000476857
0.000479529
0.000481954
0.000484132
0.000486064
0.00048775
0.000489191
0.000490387
0.000491339
0.000492049
0.000492522
0.000492768
0.000492792
0.000492587
0.000492152
0.000491502
0.00049064
0.000489573
0.000488307
0.000486849
0.000485206
0.000483384
0.000481391
0.000479234
0.000476921
0.000474458
0.000471855
0.00046912
0.000466259
0.000463282
0.000460197
0.000457011
0.000453734
0.000450373
0.000446936
0.00044343
0.000439863
0.000436241
0.00043257
0.00042885
0.000425073
0.000421221
0.000417267
0.000413195
0.000409036
0.000404839
0.000400627
0.000396409
0.000392188
0.000387968
0.000383752
0.000379543
0.000375346
0.000371163
0.000366996
0.000362845
0.000358708
0.000354597
0.000350514
0.000346463
0.000342444
0.000338461
0.000334513
0.000330604
0.000326734
0.000322906
0.000319119
0.000315375
0.000311674
0.000308019
0.00030441
0.000300847
0.000297332
0.000293862
0.000290438
0.000287057
0.000283724
0.000280435
0.000277201
0.000274021
0.000270879
0.000267776
0.000264716
0.000261702
0.000258735
0.000255815
0.000252941
0.000250113
0.00024733
0.000244592
0.000241897
0.000239246
0.000236638
0.000234073
0.000231551
0.00022907
0.00022663
0.000224231
0.000221873
0.000219554
0.000217275
0.000215036
0.000212838
0.00021068
0.000208562
0.000206487
0.000204454
0.000202465
0.000200521
0.000198624
0.000196774
0.000194975
0.000193226
0.000191529
0.000189883
0.000188289
0.000186743
0.000185243
0.000183786
0.000182355
0.000180977
0.000179533
0.000178312
0.000176475
0.000175931
0.000173149
0.000171872
1.28772e-05
7.44396e-05
0.000173991
0.000251179
0.000302747
0.000332289
0.000342976
0.000340006
0.000327246
0.000308311
0.000289113
0.000277089
0.000275209
0.000281976
0.000292222
0.00030298
0.000315746
0.000332569
0.000353856
0.000378864
0.000405977
0.000433922
0.000472969
0.00051887
0.00056426
0.000608178
0.00065111
0.000694651
0.000733623
0.000764633
0.000789421
0.00080908
0.000824669
0.000837044
0.000846984
0.000855257
0.000862561
0.000869535
0.000876712
0.000884441
0.000892826
0.000901742
0.00091095
0.000920214
0.000929358
0.000938264
0.000946856
0.000955086
0.000962917
0.000970323
0.000977276
0.000983756
0.000989752
0.00099526
0.00100028
0.0010048
0.00100884
0.00101238
0.00101543
0.00101799
0.00102006
0.00102163
0.00102271
0.00102325
0.00102341
0.00102312
0.00102233
0.00102108
0.00101939
0.00101728
0.00101474
0.00101179
0.00100846
0.00100474
0.00100066
0.000996231
0.000991465
0.000986379
0.000980986
0.000975303
0.000969345
0.000963127
0.000956664
0.000949972
0.000943065
0.000935959
0.000928667
0.000921205
0.000913586
0.000905822
0.000897926
0.000889909
0.000881781
0.000873549
0.000865222
0.000856809
0.000848324
0.000839782
0.0008312
0.00082259
0.000813963
0.000805329
0.000796695
0.000788069
0.000779458
0.000770869
0.000762309
0.000753783
0.000745298
0.000736858
0.00072847
0.000720138
0.000711868
0.000703663
0.000695527
0.000687464
0.000679476
0.000671566
0.000663738
0.000655993
0.000648334
0.000640761
0.000633278
0.000625886
0.000618587
0.00061138
0.000604266
0.000597245
0.000590319
0.000583488
0.000576752
0.000570112
0.000563566
0.000557107
0.000550735
0.000544453
0.000538263
0.000532164
0.000526157
0.000520241
0.000514416
0.000508679
0.000503031
0.00049747
0.000491995
0.000486605
0.000481299
0.000476077
0.000470937
0.000465877
0.000460897
0.000455994
0.000451169
0.000446419
0.000441745
0.000437143
0.000432615
0.000428158
0.000423772
0.000419454
0.000415204
0.000411021
0.000406901
0.000402844
0.000398847
0.000394906
0.000391018
0.000387177
0.000383376
0.000379608
0.00037586
0.000372119
0.000368358
0.000364568
0.000360652
0.000356702
0.000352237
0.000348054
0.000341586
0.000330107
2.18291e-05
0.000106511
0.000220171
0.000312471
0.000374808
0.000411455
0.000426588
0.000426798
0.000416793
0.000403603
0.000395866
0.000395313
0.000404817
0.000422147
0.000444946
0.000472733
0.000506096
0.000545317
0.000589571
0.000653249
0.000727209
0.000807055
0.000890814
0.000960997
0.00102311
0.00107896
0.00112913
0.00117382
0.00121287
0.00124658
0.00127568
0.0013009
0.00132293
0.00134241
0.0013599
0.00137589
0.00139079
0.00140494
0.00141859
0.00143194
0.0014451
0.00145815
0.0014711
0.00148395
0.00149664
0.00150909
0.00152122
0.00153292
0.0015441
0.00155469
0.00156464
0.00157391
0.00158247
0.00159033
0.00159746
0.00160387
0.00160953
0.00161447
0.00161866
0.00162212
0.00162484
0.00162682
0.00162797
0.0016284
0.00162827
0.00162736
0.00162573
0.00162341
0.00162041
0.00161675
0.00161245
0.00160753
0.001602
0.0015959
0.00158924
0.00158205
0.00157434
0.00156614
0.00155747
0.00154836
0.00153883
0.0015289
0.0015186
0.00150794
0.00149696
0.00148567
0.00147409
0.00146225
0.00145018
0.00143788
0.00142538
0.0014127
0.00139985
0.00138685
0.00137372
0.00136047
0.00134712
0.0013337
0.00132021
0.00130668
0.00129312
0.00127955
0.00126598
0.00125243
0.00123889
0.0012254
0.00121195
0.00119855
0.00118521
0.00117195
0.00115877
0.00114568
0.00113268
0.00111978
0.00110699
0.00109431
0.00108175
0.00106931
0.00105699
0.00104481
0.00103276
0.00102084
0.00100906
0.000997416
0.000985917
0.000974561
0.000963349
0.000952282
0.000941361
0.000930586
0.000919958
0.000909477
0.000899138
0.000888939
0.000878879
0.000868958
0.000859179
0.00084954
0.000840042
0.000830683
0.000821463
0.000812381
0.000803434
0.000794621
0.000785941
0.000777392
0.000768972
0.000760681
0.000752515
0.000744472
0.000736552
0.000728751
0.000721069
0.000713503
0.000706052
0.000698713
0.000691485
0.000684366
0.000677354
0.000670446
0.000663642
0.000656937
0.000650329
0.000643814
0.00063739
0.000631049
0.000624788
0.000618598
0.000612469
0.00060639
0.000600344
0.000594311
0.000588259
0.000582156
0.000575927
0.000569548
0.000562741
0.000555766
0.000547336
0.000531163
2.69634e-05
0.000121972
0.000240955
0.000357459
0.000435184
0.000482052
0.000505343
0.000513701
0.000515329
0.000516558
0.000523789
0.0005403
0.000566674
0.000601935
0.000645332
0.000696913
0.000757495
0.000841302
0.000937302
0.00103297
0.00112168
0.0012058
0.00128484
0.00135725
0.00142376
0.00148495
0.00154122
0.0015929
0.00164034
0.00168398
0.0017243
0.00176177
0.00179683
0.00182985
0.00186114
0.00189094
0.00191945
0.00194681
0.00197312
0.00199843
0.00202277
0.00204616
0.00206859
0.00209005
0.0021105
0.00212993
0.00214829
0.00216555
0.00218171
0.00219672
0.00221059
0.00222331
0.00223489
0.00224536
0.00225473
0.00226301
0.00227022
0.00227638
0.0022815
0.0022856
0.00228869
0.00229074
0.00229165
0.00229174
0.00229086
0.00228897
0.00228614
0.00228236
0.00227767
0.00227209
0.00226564
0.00225835
0.00225025
0.00224136
0.00223173
0.00222137
0.00221032
0.00219862
0.00218628
0.00217335
0.00215985
0.00214582
0.00213128
0.00211626
0.00210081
0.00208494
0.0020687
0.0020521
0.00203518
0.00201796
0.00200047
0.00198275
0.0019648
0.00194666
0.00192836
0.0019099
0.00189132
0.00187264
0.00185388
0.00183507
0.00181623
0.00179737
0.00177851
0.00175968
0.00174088
0.00172213
0.00170345
0.00168484
0.00166632
0.0016479
0.0016296
0.00161141
0.00159336
0.00157544
0.00155768
0.00154007
0.00152261
0.00150533
0.00148822
0.00147128
0.00145453
0.00143796
0.00142158
0.0014054
0.0013894
0.0013736
0.001358
0.0013426
0.00132739
0.00131239
0.00129758
0.00128298
0.00126857
0.00125435
0.00124033
0.0012265
0.00121286
0.00119941
0.00118615
0.00117309
0.00116021
0.00114752
0.00113501
0.00112269
0.00111054
0.00109858
0.00108679
0.00107517
0.00106373
0.00105245
0.00104133
0.00103038
0.00101959
0.00100896
0.000998483
0.000988158
0.000977983
0.000967954
0.000958071
0.000948328
0.000938724
0.000929254
0.000919916
0.000910704
0.000901613
0.000892638
0.000883771
0.000875003
0.000866322
0.000857714
0.000849159
0.000840633
0.000832102
0.000823523
0.000814826
0.00080595
0.000796692
0.000787087
0.000776931
0.000757187
3.0807e-05
0.000135318
0.000261413
0.000392208
0.00048821
0.000549598
0.000587205
0.000610623
0.000628515
0.000648116
0.000674611
0.00071059
0.000756757
0.000813386
0.000881037
0.000971899
0.00107725
0.00117885
0.00127791
0.00137314
0.00146359
0.00154934
0.00163035
0.00170659
0.00177835
0.00184599
0.00190985
0.00197025
0.00202754
0.00208204
0.00213407
0.00218391
0.00223183
0.00227801
0.00232262
0.00236579
0.0024076
0.0024481
0.00248733
0.00252529
0.00256198
0.00259737
0.00263144
0.00266416
0.00269549
0.00272538
0.00275379
0.00278069
0.00280604
0.0028298
0.00285195
0.00287246
0.00289132
0.00290852
0.00292405
0.00293791
0.00295011
0.00296065
0.00296954
0.0029768
0.00298245
0.00298653
0.00298895
0.00298985
0.00298938
0.0029874
0.00298406
0.00297935
0.00297334
0.00296609
0.00295763
0.00294804
0.00293735
0.00292562
0.00291289
0.00289922
0.00288466
0.00286924
0.00285301
0.00283601
0.0028183
0.0027999
0.00278086
0.00276123
0.00274103
0.00272032
0.00269913
0.0026775
0.00265546
0.00263306
0.00261032
0.00258729
0.00256399
0.00254046
0.00251673
0.00249281
0.00246876
0.00244458
0.00242032
0.002396
0.00237164
0.00234726
0.0023229
0.00229857
0.00227428
0.00225007
0.00222594
0.00220191
0.002178
0.00215422
0.00213058
0.0021071
0.0020838
0.00206067
0.00203773
0.00201499
0.00199245
0.00197013
0.00194803
0.00192616
0.00190452
0.00188311
0.00186194
0.00184102
0.00182034
0.00179992
0.00177974
0.00175981
0.00174014
0.00172072
0.00170155
0.00168264
0.00166397
0.00164556
0.00162738
0.00160946
0.00159177
0.00157433
0.00155713
0.00154017
0.00152345
0.00150696
0.00149071
0.00147469
0.00145889
0.00144332
0.00142797
0.00141284
0.00139792
0.00138322
0.00136872
0.00135443
0.00134034
0.00132644
0.00131274
0.00129924
0.00128592
0.00127278
0.00125983
0.00124706
0.00123446
0.00122203
0.00120976
0.00119766
0.00118571
0.0011739
0.00116224
0.0011507
0.00113928
0.00112796
0.00111672
0.00110553
0.00109435
0.00108315
0.00107185
0.00106037
0.00104856
0.0010364
0.00102412
0.00100169
3.23489e-05
0.000142485
0.000273874
0.000409611
0.000527361
0.000608446
0.000664472
0.000706499
0.000743734
0.000783402
0.000830512
0.000887967
0.000957499
0.00105022
0.00115747
0.00126406
0.00137011
0.00147333
0.00157322
0.00166938
0.00176157
0.0018498
0.00193418
0.00201486
0.00209209
0.00216614
0.00223728
0.00230579
0.00237192
0.00243589
0.00249793
0.00255821
0.00261688
0.00267404
0.0027298
0.00278419
0.00283727
0.00288903
0.00293947
0.00298858
0.00303632
0.00308265
0.00312754
0.00317092
0.00321276
0.003253
0.00329158
0.00332845
0.00336356
0.00339687
0.00342832
0.00345789
0.00348554
0.00351124
0.00353495
0.00355667
0.00357638
0.00359406
0.0036097
0.00362332
0.00363492
0.0036445
0.00365207
0.00365768
0.00366133
0.00366295
0.00366286
0.00366087
0.00365709
0.00365157
0.00364436
0.00363551
0.00362509
0.00361315
0.00359977
0.00358499
0.0035689
0.00355155
0.00353302
0.00351337
0.00349266
0.00347097
0.00344836
0.00342489
0.00340064
0.00337566
0.00335001
0.00332375
0.00329694
0.00326963
0.00324188
0.00321372
0.00318521
0.00315639
0.00312731
0.003098
0.0030685
0.00303884
0.00300908
0.00297923
0.00294932
0.0029194
0.00288949
0.00285961
0.00282979
0.00280004
0.0027704
0.00274089
0.00271151
0.00268229
0.00265325
0.0026244
0.00259575
0.00256732
0.00253912
0.00251116
0.00248345
0.002456
0.00242881
0.0024019
0.00237527
0.00234892
0.00232286
0.0022971
0.00227163
0.00224646
0.0022216
0.00219704
0.00217278
0.00214882
0.00212518
0.00210183
0.00207879
0.00205604
0.00203359
0.00201144
0.00198958
0.00196801
0.00194673
0.00192574
0.00190504
0.00188462
0.00186448
0.00184461
0.00182502
0.0018057
0.00178664
0.00176785
0.00174931
0.00173103
0.00171299
0.00169521
0.00167766
0.00166035
0.00164328
0.00162644
0.00160982
0.00159343
0.00157725
0.00156129
0.00154554
0.00153
0.00151465
0.0014995
0.00148454
0.00146976
0.00145515
0.0014407
0.00142639
0.00141222
0.00139815
0.00138416
0.00137021
0.00135626
0.00134224
0.00132807
0.00131359
0.00129886
0.0012838
0.00125957
3.27894e-05
0.000144074
0.000275153
0.000409121
0.000538826
0.000642051
0.000719194
0.000780699
0.000836706
0.000894914
0.000963342
0.00105594
0.00116608
0.00128756
0.00140304
0.00151422
0.00162193
0.00172637
0.00182747
0.00192517
0.0020195
0.00211054
0.00219844
0.00228339
0.0023656
0.00244531
0.00252273
0.00259808
0.00267155
0.0027433
0.00281348
0.00288221
0.00294958
0.00301564
0.00308045
0.00314402
0.00320634
0.00326742
0.0033272
0.00338567
0.00344276
0.00349842
0.0035526
0.00360523
0.00365624
0.00370557
0.00375316
0.00379894
0.00384284
0.00388482
0.00392481
0.00396277
0.00399865
0.0040324
0.00406398
0.00409338
0.00412055
0.00414547
0.00416814
0.00418854
0.00420666
0.00422251
0.00423608
0.00424741
0.00425649
0.00426336
0.00426808
0.00427053
0.00427096
0.00426931
0.00426564
0.00425999
0.00425242
0.00424299
0.00423175
0.00421877
0.00420412
0.00418786
0.00417006
0.00415079
0.00413012
0.00410812
0.00408487
0.00406044
0.0040349
0.00400832
0.00398077
0.00395232
0.00392305
0.00389301
0.00386228
0.00383092
0.00379898
0.00376653
0.00373363
0.00370033
0.00366669
0.00363275
0.00359857
0.00356419
0.00352967
0.00349503
0.00346032
0.00342559
0.00339086
0.00335616
0.00332153
0.00328699
0.00325258
0.00321831
0.00318421
0.0031503
0.0031166
0.00308313
0.0030499
0.00301693
0.00298423
0.00295181
0.00291968
0.00288786
0.00285635
0.00282516
0.0027943
0.00276377
0.00273357
0.00270372
0.00267421
0.00264504
0.00261622
0.00258775
0.00255962
0.00253185
0.00250442
0.00247733
0.00245059
0.00242418
0.00239812
0.00237239
0.002347
0.00232194
0.00229721
0.0022728
0.00224872
0.00222496
0.00220151
0.00217838
0.00215555
0.00213303
0.00211081
0.00208888
0.00206724
0.00204588
0.00202481
0.00200402
0.0019835
0.00196325
0.00194326
0.00192353
0.00190406
0.00188484
0.00186587
0.00184714
0.00182864
0.00181037
0.00179233
0.0017745
0.00175687
0.00173944
0.00172218
0.00170509
0.00168813
0.00167127
0.00165449
0.00163772
0.00162091
0.00160398
0.00158678
0.00156938
0.00155143
0.0015253
3.22262e-05
0.000141108
0.000268675
0.00039759
0.000521183
0.000633035
0.000726769
0.000808159
0.000892048
0.000987939
0.00109773
0.00122283
0.00135929
0.00148667
0.00160686
0.00172177
0.00183237
0.00193902
0.00204203
0.00214177
0.00223845
0.00233229
0.00242347
0.00251221
0.00259871
0.00268318
0.0027658
0.00284676
0.00292619
0.00300424
0.003081
0.00315656
0.00323098
0.00330427
0.00337647
0.00344755
0.00351751
0.00358629
0.00365386
0.00372015
0.00378511
0.00384865
0.00391071
0.00397121
0.00403007
0.00408721
0.00414255
0.00419603
0.00424756
0.00429708
0.00434453
0.00438983
0.00443294
0.00447381
0.00451238
0.00454862
0.00458249
0.00461397
0.00464302
0.00466964
0.00469382
0.00471554
0.00473481
0.00475164
0.00476604
0.00477803
0.00478763
0.00479486
0.00479979
0.00480235
0.00480274
0.00480092
0.00479695
0.00479088
0.00478278
0.00477269
0.00476069
0.00474683
0.00473119
0.00471382
0.00469481
0.00467422
0.00465213
0.0046286
0.00460371
0.00457753
0.00455015
0.00452161
0.00449202
0.00446142
0.00442989
0.0043975
0.00436432
0.00433041
0.00429584
0.00426067
0.00422496
0.00418877
0.00415216
0.00411519
0.0040779
0.00404036
0.0040026
0.00396468
0.00392664
0.00388852
0.00385036
0.0038122
0.00377407
0.00373601
0.00369804
0.00366021
0.00362252
0.00358501
0.0035477
0.00351062
0.00347377
0.00343718
0.00340087
0.00336485
0.00332913
0.00329372
0.00325864
0.0032239
0.00318949
0.00315544
0.00312174
0.0030884
0.00305542
0.00302281
0.00299057
0.00295871
0.00292721
0.00289608
0.00286533
0.00283494
0.00280492
0.00277527
0.00274599
0.00271706
0.0026885
0.0026603
0.00263246
0.00260497
0.00257783
0.00255103
0.00252458
0.00249846
0.00247268
0.00244722
0.0024221
0.00239729
0.0023728
0.00234862
0.00232474
0.00230117
0.0022779
0.00225493
0.00223224
0.00220984
0.00218772
0.00216587
0.0021443
0.00212298
0.00210192
0.00208111
0.00206053
0.00204017
0.00202002
0.00200006
0.00198027
0.0019606
0.00194103
0.0019215
0.00190194
0.00188228
0.00186239
0.00184233
0.00182158
0.00179325
3.08517e-05
0.000135014
0.000257912
0.000383082
0.000504941
0.000620983
0.000731735
0.000841092
0.000956422
0.00108274
0.0012212
0.00137124
0.00151342
0.00164528
0.00176943
0.00188775
0.00200136
0.0021109
0.00221674
0.00231911
0.0024184
0.00251499
0.00260918
0.00270123
0.00279136
0.00287979
0.00296669
0.00305222
0.00313652
0.00321969
0.00330181
0.00338294
0.00346313
0.00354237
0.00362066
0.00369798
0.00377429
0.00384953
0.00392363
0.00399653
0.00406815
0.00413839
0.00420717
0.0042744
0.00433999
0.00440385
0.00446588
0.00452601
0.00458415
0.00464021
0.00469413
0.00474584
0.00479527
0.00484236
0.00488705
0.00492931
0.0049691
0.00500636
0.00504109
0.00507326
0.00510285
0.00512985
0.00515427
0.0051761
0.00519536
0.00521206
0.00522623
0.00523788
0.00524705
0.00525377
0.00525808
0.00526002
0.00525967
0.00525706
0.00525224
0.00524527
0.00523622
0.00522513
0.00521209
0.00519715
0.00518039
0.00516186
0.00514166
0.00511983
0.00509647
0.00507164
0.00504542
0.00501787
0.00498907
0.00495909
0.004928
0.00489588
0.00486278
0.00482878
0.00479395
0.00475834
0.00472203
0.00468508
0.00464754
0.00460949
0.00457097
0.00453204
0.00449276
0.00445317
0.00441333
0.00437329
0.00433308
0.00429276
0.00425236
0.00421192
0.00417147
0.00413106
0.00409071
0.00405046
0.00401034
0.00397036
0.00393056
0.00389095
0.00385157
0.00381243
0.00377354
0.00373493
0.0036966
0.00365858
0.00362088
0.00358349
0.00354645
0.00350975
0.00347339
0.0034374
0.00340177
0.0033665
0.00333161
0.00329708
0.00326293
0.00322916
0.00319575
0.00316273
0.00313008
0.00309781
0.00306591
0.00303438
0.00300323
0.00297245
0.00294203
0.00291198
0.00288229
0.00285296
0.00282399
0.00279536
0.00276708
0.00273915
0.00271156
0.0026843
0.00265737
0.00263077
0.0026045
0.00257855
0.00255291
0.00252758
0.00250256
0.00247784
0.00245342
0.00242929
0.00240543
0.00238185
0.00235853
0.00233546
0.00231262
0.00229
0.00226756
0.00224527
0.0022231
0.00220098
0.00217887
0.00215666
0.00213426
0.00211169
0.00208838
0.00205772
2.93031e-05
0.000128716
0.000248096
0.000372281
0.000496908
0.000620909
0.000745841
0.000875442
0.00101312
0.00116079
0.0013186
0.00148019
0.0016278
0.00176411
0.00189209
0.00201375
0.00213034
0.00224268
0.00235131
0.00245662
0.0025589
0.00265836
0.00275543
0.00285047
0.00294377
0.00303556
0.00312603
0.00321536
0.00330367
0.00339107
0.00347762
0.00356337
0.00364834
0.00373254
0.00381594
0.0038985
0.00398017
0.00406087
0.00414053
0.00421906
0.00429637
0.00437235
0.00444691
0.00451995
0.00459135
0.00466102
0.00472886
0.00479477
0.00485865
0.00492043
0.00498001
0.00503733
0.00509229
0.00514485
0.00519495
0.00524252
0.00528753
0.00532994
0.00536971
0.00540682
0.00544125
0.005473
0.00550204
0.0055284
0.00555207
0.00557307
0.00559142
0.00560714
0.00562026
0.00563081
0.00563884
0.00564438
0.00564748
0.0056482
0.0056466
0.00564272
0.00563662
0.00562837
0.00561803
0.00560567
0.00559134
0.00557512
0.00555709
0.00553731
0.00551585
0.00549279
0.00546819
0.00544214
0.0054147
0.00538595
0.00535595
0.00532478
0.0052925
0.00525918
0.00522489
0.0051897
0.00515367
0.00511686
0.00507934
0.00504117
0.00500241
0.00496312
0.00492335
0.00488316
0.00484259
0.00480171
0.00476054
0.00471916
0.00467758
0.00463587
0.00459405
0.00455218
0.00451027
0.00446837
0.00442651
0.00438472
0.00434303
0.00430147
0.00426006
0.00421882
0.00417778
0.00413695
0.00409636
0.00405602
0.00401595
0.00397616
0.00393667
0.00389749
0.00385862
0.00382008
0.00378187
0.00374401
0.00370649
0.00366933
0.00363253
0.00359608
0.00356
0.00352429
0.00348894
0.00345396
0.00341936
0.00338512
0.00335126
0.00331776
0.00328464
0.00325188
0.00321949
0.00318746
0.00315579
0.00312449
0.00309354
0.00306294
0.0030327
0.0030028
0.00297325
0.00294404
0.00291517
0.00288663
0.00285842
0.00283055
0.00280299
0.00277576
0.00274883
0.00272222
0.0026959
0.00266987
0.00264413
0.00261866
0.00259343
0.00256844
0.00254365
0.00251904
0.00249455
0.00247015
0.00244576
0.0024213
0.00239668
0.00237188
0.00234637
0.00231355
2.76163e-05
0.000122129
0.000238112
0.000361665
0.000489163
0.000620004
0.000756442
0.000900257
0.00105306
0.00121534
0.00138759
0.00155335
0.00170495
0.00184511
0.0019766
0.00210138
0.00222078
0.00233574
0.00244691
0.0025548
0.00265978
0.00276217
0.00286223
0.00296015
0.00305635
0.00315113
0.00324472
0.00333732
0.00342905
0.00352004
0.00361035
0.00370002
0.00378907
0.00387749
0.00396524
0.00405228
0.00413853
0.00422392
0.00430836
0.00439174
0.00447396
0.00455491
0.00463447
0.00471254
0.00478899
0.00486372
0.00493662
0.00500757
0.00507648
0.00514326
0.00520781
0.00527004
0.00532989
0.00538728
0.00544214
0.00549442
0.00554407
0.00559105
0.00563532
0.00567686
0.00571564
0.00575165
0.00578489
0.00581535
0.00584304
0.00586797
0.00589017
0.00590964
0.00592643
0.00594056
0.00595208
0.00596101
0.00596742
0.00597134
0.00597283
0.00597195
0.00596879
0.00596335
0.00595573
0.00594598
0.00593417
0.00592036
0.00590464
0.00588707
0.00586771
0.00584665
0.00582396
0.0057997
0.00577395
0.00574678
0.00571825
0.00568845
0.00565744
0.00562528
0.00559204
0.00555779
0.00552259
0.00548652
0.00544963
0.00541198
0.00537364
0.00533466
0.00529511
0.00525502
0.00521447
0.0051735
0.00513215
0.00509048
0.00504854
0.00500636
0.00496399
0.00492147
0.00487883
0.00483612