/*--------------------------------*- C++ -*----------------------------------*\
| =========                 |                                                 |
| \\      /  F ield         | OpenFOAM: The Open Source CFD Toolbox           |
|  \\    /   O peration     | Version:  v2012                                 |
|   \\  /    A nd           | Website:  www.openfoam.com                      |
|    \\/     M anipulation  |                                                 |
\*---------------------------------------------------------------------------*/
FoamFile
{
    version     2.0;
    format      ascii;
    class       volVectorField;
    location    "700";
    object      U;
}
// * * * * * * * * * * * * * * * * * * * * * * * * * * * * * * * * * * * * * //

dimensions      [0 1 -1 0 0 0 0];


internalField   nonuniform List<vector> 
12225
(
(9.2745 -4.73371 0)
(13.1094 -1.71343 0)
(12.4776 -0.395208 0)
(11.2768 -0.0422185 0)
(10.6311 0.0141935 0)
(10.2977 -0.000763696 0)
(10.0738 -0.00390221 0)
(9.90471 -0.0202797 0)
(9.76602 -0.0504043 0)
(9.64444 -0.0475596 0)
(9.53086 -0.0363684 0)
(9.42431 -0.0323573 0)
(9.32645 -0.0304074 0)
(9.23715 -0.0235542 0)
(9.15594 -0.00816665 0)
(9.0902 0.00281569 0)
(9.02985 0.0102911 0)
(9.05343 0.0215292 0)
(10.2592 0.0928025 0)
(10.7814 0.199338 0)
(10.9593 0.24565 0)
(10.7468 0.229137 0)
(10.5874 0.172972 0)
(10.4521 0.115303 0)
(10.329 0.0819318 0)
(10.2315 0.0693286 0)
(10.1584 0.0652106 0)
(10.0981 0.0585495 0)
(10.0454 0.0524365 0)
(9.99829 0.0500628 0)
(9.9554 0.0495339 0)
(9.91579 0.0483 0)
(9.87821 0.0443267 0)
(9.84359 0.0387421 0)
(9.80754 0.0217498 0)
(9.77576 -0.00134736 0)
(9.87768 -0.24504 0)
(9.74284 0.00579089 0)
(10.1971 0.125738 0)
(10.3244 0.179358 0)
(10.3563 0.161544 0)
(10.3308 0.119987 0)
(10.2777 0.0911848 0)
(10.2263 0.0753434 0)
(10.183 0.0658077 0)
(10.1458 0.0604823 0)
(10.1137 0.057173 0)
(10.0848 0.0544281 0)
(10.0579 0.0517035 0)
(10.0325 0.0486749 0)
(10.0087 0.0450443 0)
(9.98679 0.0400385 0)
(9.96324 0.0289323 0)
(9.93584 0.0100942 0)
(9.83416 -0.443933 0)
(9.57654 -0.163148 0)
(9.91602 0.0336631 0)
(10.0932 0.134215 0)
(10.1892 0.145463 0)
(10.2166 0.120727 0)
(10.2052 0.0985177 0)
(10.1835 0.0839299 0)
(10.161 0.0740799 0)
(10.1394 0.0682908 0)
(10.1196 0.0645494 0)
(10.1012 0.0615437 0)
(10.0837 0.0588752 0)
(10.0669 0.0564248 0)
(10.0505 0.0536778 0)
(10.0344 0.0494896 0)
(10.0158 0.0411422 0)
(9.99148 0.0293744 0)
(9.87825 -0.387477 0)
(9.61653 -0.19615 0)
(9.81622 -0.0186789 0)
(9.96134 0.0916022 0)
(10.0698 0.122185 0)
(10.1218 0.113649 0)
(10.1356 0.0996365 0)
(10.134 0.0883663 0)
(10.1264 0.0798984 0)
(10.1163 0.0742519 0)
(10.1055 0.0704005 0)
(10.0946 0.0675259 0)
(10.0836 0.0651902 0)
(10.0724 0.0631223 0)
(10.0609 0.0607972 0)
(10.0484 0.0575223 0)
(10.033 0.0521523 0)
(10.0121 0.0460289 0)
(9.91439 -0.288041 0)
(9.68303 -0.18518 0)
(9.78716 -0.0532169 0)
(9.88916 0.0509874 0)
(9.98794 0.0936689 0)
(10.0476 0.0992305 0)
(10.0753 0.0940686 0)
(10.0867 0.0874266 0)
(10.0896 0.0814381 0)
(10.088 0.0769516 0)
(10.0841 0.0737329 0)
(10.0788 0.0713692 0)
(10.0726 0.0695318 0)
(10.0656 0.0679822 0)
(10.0575 0.0663808 0)
(10.0479 0.0644437 0)
(10.0354 0.0619712 0)
(10.0183 0.0602998 0)
(9.93763 -0.214042 0)
(9.74855 -0.167539 0)
(9.79243 -0.075223 0)
(9.85608 0.0162117 0)
(9.93594 0.0644161 0)
(9.99283 0.0806177 0)
(10.0262 0.0836413 0)
(10.045 0.0821333 0)
(10.0549 0.079335 0)
(10.0594 0.0767306 0)
(10.0605 0.0746874 0)
(10.0596 0.0731825 0)
(10.0571 0.0720984 0)
(10.0532 0.0713347 0)
(10.0479 0.0707659 0)
(10.0408 0.0704036 0)
(10.0312 0.0705041 0)
(10.0182 0.0722563 0)
(9.95263 -0.167336 0)
(9.79947 -0.149683 0)
(9.81178 -0.084655 0)
(9.84959 -0.00623099 0)
(9.91141 0.0419055 0)
(9.9611 0.0638742 0)
(9.9944 0.0725206 0)
(10.0157 0.0751437 0)
(10.029 0.0752364 0)
(10.0368 0.0745483 0)
(10.041 0.073791 0)
(10.0428 0.0732343 0)
(10.0427 0.0729649 0)
(10.041 0.073027 0)
(10.0377 0.0734556 0)
(10.0327 0.0744235 0)
(10.0255 0.0763379 0)
(10.0158 0.0801722 0)
(9.96406 -0.132092 0)
(9.84003 -0.131995 0)
(9.83337 -0.0877031 0)
(9.85306 -0.0213523 0)
(9.89928 0.0243919 0)
(9.94105 0.049492 0)
(9.97214 0.0620903 0)
(9.99396 0.0679529 0)
(10.0087 0.0704513 0)
(10.0185 0.071486 0)
(10.0247 0.0719916 0)
(10.0283 0.0724224 0)
(10.0299 0.073007 0)
(10.0298 0.0738996 0)
(10.0282 0.0752526 0)
(10.0249 0.0773344 0)
(10.0198 0.0806035 0)
(10.0128 0.0858554 0)
(9.97418 -0.100208 0)
(9.87757 -0.112396 0)
(9.85857 -0.0853798 0)
(9.86388 -0.0323534 0)
(9.89487 0.00890288 0)
(9.92745 0.0351953 0)
(9.95445 0.0506681 0)
(9.97511 0.0593759 0)
(9.99024 0.0642309 0)
(10.001 0.0670857 0)
(10.0085 0.068993 0)
(10.0136 0.0705498 0)
(10.0167 0.0721101 0)
(10.0181 0.0739343 0)
(10.0181 0.076264 0)
(10.0165 0.0794196 0)
(10.0136 0.0838458 0)
(10.0094 0.0901528 0)
(9.98253 -0.0727121 0)
(9.91035 -0.0922031 0)
(9.88507 -0.0782597 0)
(9.88002 -0.0386318 0)
(9.89747 -0.00340675 0)
(9.92045 0.022126 0)
(9.94201 0.0391151 0)
(9.96006 0.0499543 0)
(9.97433 0.0568608 0)
(9.98525 0.0614556 0)
(9.99345 0.0647905 0)
(9.99947 0.0675361 0)
(10.0037 0.0701414 0)
(10.0065 0.0729402 0)
(10.0079 0.0762357 0)
(10.0081 0.0803574 0)
(10.0073 0.0856898 0)
(10.0057 0.0926637 0)
(9.98894 -0.0502601 0)
(9.93733 -0.0723852 0)
(9.91073 -0.0674652 0)
(9.89917 -0.0400105 0)
(9.90567 -0.011689 0)
(9.91957 0.0113969 0)
(9.935 0.0284467 0)
(9.94939 0.0404491 0)
(9.96175 0.048838 0)
(9.97193 0.0548759 0)
(9.98014 0.0594989 0)
(9.98663 0.063378 0)
(9.99167 0.0669943 0)
(9.99548 0.0707237 0)
(9.99822 0.0748848 0)
(10.0001 0.0797885 0)
(10.0012 0.0857334 0)
(10.002 0.093012 0)
(9.99348 -0.0329127 0)
(9.9582 -0.0538187 0)
(9.93368 -0.0543026 0)
(9.91899 -0.0368185 0)
(9.91756 -0.015499 0)
(9.92368 0.00393029 0)
(9.93304 0.0196822 0)
(9.94322 0.031743 0)
(9.95294 0.0408306 0)
(9.96166 0.0477944 0)
(9.96925 0.0533758 0)
(9.97573 0.0581654 0)
(9.9812 0.0626224 0)
(9.98578 0.0671128 0)
(9.98963 0.0719396 0)
(9.9929 0.0773619 0)
(9.99578 0.0836118 0)
(9.99856 0.0908482 0)
(9.99643 -0.0202072 0)
(9.97327 -0.0372184 0)
(9.95261 -0.0400666 0)
(9.93731 -0.0298453 0)
(9.9309 -0.0148742 0)
(9.93104 0.000295647 0)
(9.93506 0.0136762 0)
(9.94107 0.0247094 0)
(9.94784 0.0335858 0)
(9.95467 0.040775 0)
(9.96119 0.0467902 0)
(9.96725 0.0520876 0)
(9.9728 0.0570555 0)
(9.97788 0.0620033 0)
(9.98257 0.0671891 0)
(9.98697 0.0728127 0)
(9.99124 0.0790304 0)
(9.99557 0.0859327 0)
(9.99816 -0.0112927 0)
(9.9833 -0.0229397 0)
(9.96682 -0.025785 0)
(9.95243 -0.0201132 0)
(9.94344 -0.0102948 0)
(9.93953 0.000601412 0)
(9.93941 0.0109308 0)
(9.94184 0.0200137 0)
(9.94583 0.0277589 0)
(9.95069 0.0343669 0)
(9.95597 0.0401384 0)
(9.96138 0.0453851 0)
(9.96678 0.0503822 0)
(9.97211 0.0553652 0)
(9.97736 0.0605148 0)
(9.98259 0.0659737 0)
(9.98789 0.0718268 0)
(9.99335 0.0781216 0)
(9.99906 -0.00508589 0)
(9.98922 -0.0107904 0)
(9.97612 -0.0119391 0)
(9.96309 -0.00851937 0)
(9.9531 -0.00248756 0)
(9.94686 0.00450546 0)
(9.94399 0.0114605 0)
(9.94384 0.0178949 0)
(9.94569 0.0236812 0)
(9.94895 0.0288876 0)
(9.95315 0.03367 0)
(9.95796 0.0382056 0)
(9.96316 0.0426592 0)
(9.96862 0.0471696 0)
(9.97426 0.0518409 0)
(9.98007 0.0567451 0)
(9.98607 0.0619175 0)
(9.9923 0.067361 0)
(9.99942 -0.000372167 0)
(9.99181 0.000140923 0)
(9.98042 0.00180918 0)
(9.96821 0.00455839 0)
(9.9579 0.00786827 0)
(9.95061 0.0113325 0)
(9.94642 0.0147249 0)
(9.94497 0.017973 0)
(9.94575 0.021089 0)
(9.94822 0.0241436 0)
(9.95195 0.0272144 0)
(9.95656 0.0303824 0)
(9.9618 0.0337079 0)
(9.96749 0.0372384 0)
(9.97351 0.040996 0)
(9.97979 0.044989 0)
(9.98632 0.0492017 0)
(9.99306 0.0536054 0)
(9.99935 0.00408026 0)
(9.9911 0.0111587 0)
(9.97897 0.016109 0)
(9.96616 0.0187007 0)
(9.95552 0.0195648 0)
(9.94818 0.0194831 0)
(9.94419 0.01908 0)
(9.9431 0.018762 0)
(9.94435 0.018773 0)
(9.94738 0.019226 0)
(9.95169 0.0201653 0)
(9.95692 0.0215836 0)
(9.96279 0.0234536 0)
(9.96909 0.0257295 0)
(9.97571 0.028363 0)
(9.98255 0.0312958 0)
(9.98957 0.0344741 0)
(9.99672 0.0378321 0)
(9.99882 0.00972571 0)
(9.98675 0.0240311 0)
(9.97123 0.0318209 0)
(9.95642 0.0332581 0)
(9.94559 0.0306597 0)
(9.93942 0.0262951 0)
(9.93734 0.0216827 0)
(9.93843 0.0176598 0)
(9.94184 0.0146002 0)
(9.94682 0.0125945 0)
(9.95286 0.0115902 0)
(9.95955 0.0114653 0)
(9.96664 0.012086 0)
(9.97397 0.0133153 0)
(9.98142 0.0150331 0)
(9.98893 0.0171277 0)
(9.99647 0.0195061 0)
(10.004 0.0220811 0)
(9.99757 0.0182065 0)
(9.97774 0.0404371 0)
(9.95665 0.0495507 0)
(9.93945 0.0474441 0)
(9.92962 0.0393814 0)
(9.92659 0.0296018 0)
(9.92849 0.0204382 0)
(9.93356 0.012912 0)
(9.94052 0.00728274 0)
(9.94851 0.00344308 0)
(9.95697 0.00112703 0)
(9.96558 5.01443e-05 0)
(9.97416 -5.03552e-05 0)
(9.98263 0.000597592 0)
(9.99094 0.00181116 0)
(9.99908 0.00343785 0)
(10.0071 0.00535786 0)
(10.0149 0.00747248 0)
(9.99502 0.0318118 0)
(9.96178 0.0621162 0)
(9.93372 0.0695257 0)
(9.91535 0.0600803 0)
(9.90934 0.0439118 0)
(9.91251 0.0276198 0)
(9.92085 0.0139574 0)
(9.93162 0.00359895 0)
(9.94321 -0.00367233 0)
(9.95475 -0.00840402 0)
(9.96586 -0.0111707 0)
(9.9764 -0.0124635 0)
(9.98636 -0.012679 0)
(9.99578 -0.0121084 0)
(10.0047 -0.0109886 0)
(10.0133 -0.00948112 0)
(10.0215 -0.00772268 0)
(10.0294 -0.00580439 0)
(9.99018 0.0534598 0)
(9.93561 0.0901368 0)
(9.90099 0.0906036 0)
(9.88516 0.0687238 0)
(9.88782 0.0417817 0)
(9.90124 0.0186243 0)
(9.91858 0.00138615 0)
(9.93629 -0.0104164 0)
(9.95286 -0.0179459 0)
(9.96783 -0.0223653 0)
(9.9812 -0.0246169 0)
(9.99317 -0.0253821 0)
(10.004 -0.0251428 0)
(10.0139 -0.0242205 0)
(10.023 -0.0228531 0)
(10.0316 -0.0212098 0)
(10.0396 -0.0193974 0)
(10.0473 -0.0174991 0)
(9.9819 0.0862458 0)
(9.89549 0.124245 0)
(9.85818 0.109862 0)
(9.85211 0.0697424 0)
(9.87037 0.0303017 0)
(9.89846 0.00141435 0)
(9.92662 -0.0172276 0)
(9.95139 -0.0283336 0)
(9.97225 -0.0343751 0)
(9.98962 -0.0372233 0)
(10.0042 -0.0380759 0)
(10.0166 -0.0377142 0)
(10.0274 -0.036577 0)
(10.0369 -0.0350105 0)
(10.0456 -0.0331916 0)
(10.0536 -0.0312725 0)
(10.061 -0.0293039 0)
(10.0681 -0.0273427 0)
(9.96925 0.133989 0)
(9.83823 0.16308 0)
(9.80793 0.122572 0)
(9.82313 0.05877 0)
(9.86516 0.00726924 0)
(9.91144 -0.0240641 0)
(9.95041 -0.0406172 0)
(9.98058 -0.0483662 0)
(10.0036 -0.0511696 0)
(10.0213 -0.0513348 0)
(10.0352 -0.0501713 0)
(10.0466 -0.0482922 0)
(10.0562 -0.0461206 0)
(10.0645 -0.0437888 0)
(10.0718 -0.0414728 0)
(10.0785 -0.0392354 0)
(10.0848 -0.0371225 0)
(10.0907 -0.0351043 0)
(9.94951 0.20714 0)
(9.76128 0.207016 0)
(9.75726 0.123461 0)
(9.81044 0.0319816 0)
(9.88386 -0.0279046 0)
(9.9488 -0.0560449 0)
(9.99535 -0.0661047 0)
(10.0268 -0.067844 0)
(10.0482 -0.0660109 0)
(10.0632 -0.0629113 0)
(10.0742 -0.0595297 0)
(10.0827 -0.0561855 0)
(10.0896 -0.0530008 0)
(10.0954 -0.0500145 0)
(10.1005 -0.0472418 0)
(10.105 -0.0448099 0)
(10.1094 -0.0426258 0)
(10.1135 -0.0405916 0)
(9.91094 0.322718 0)
(9.65922 0.254541 0)
(9.71887 0.107391 0)
(9.8333 -0.0119539 0)
(9.94177 -0.0727044 0)
(10.02 -0.0902379 0)
(10.0662 -0.0893881 0)
(10.0918 -0.083332 0)
(10.1062 -0.0763858 0)
(10.1145 -0.070226 0)
(10.1196 -0.0650308 0)
(10.1232 -0.0605311 0)
(10.1257 -0.0565986 0)
(10.1277 -0.0531959 0)
(10.1291 -0.0501532 0)
(10.1305 -0.0477161 0)
(10.132 -0.0455872 0)
(10.1336 -0.0436448 0)
(9.84404 0.43511 0)
(9.53797 0.261024 0)
(9.7269 0.059121 0)
(9.92369 -0.0731464 0)
(10.0584 -0.121612 0)
(10.1345 -0.120288 0)
(10.1665 -0.105383 0)
(10.1757 -0.091117 0)
(10.1758 -0.0799127 0)
(10.1726 -0.0717752 0)
(10.1686 -0.0659117 0)
(10.1647 -0.0608371 0)
(10.1606 -0.0564428 0)
(10.1567 -0.0526001 0)
(10.1529 -0.0493653 0)
(10.1495 -0.0471821 0)
(10.147 -0.0454946 0)
(10.1449 -0.0438229 0)
(9.83598 0.319667 0)
(9.5502 0.0912489 0)
(9.91739 -0.0687341 0)
(10.1507 -0.160136 0)
(10.2635 -0.172187 0)
(10.3033 -0.142829 0)
(10.2975 -0.112247 0)
(10.2753 -0.0910067 0)
(10.2514 -0.0771222 0)
(10.2305 -0.0683428 0)
(10.2132 -0.0630474 0)
(10.1985 -0.0583836 0)
(10.1849 -0.053583 0)
(10.1718 -0.048531 0)
(10.1595 -0.044261 0)
(10.1491 -0.0425993 0)
(10.1406 -0.0410533 0)
(10.1325 -0.0381485 0)
(10.2049 -0.0633776 0)
(10.4095 -0.191709 0)
(10.7164 -0.282554 0)
(10.6879 -0.282292 0)
(10.6191 -0.23012 0)
(10.5417 -0.163758 0)
(10.4537 -0.117628 0)
(10.3751 -0.0936287 0)
(10.3136 -0.0804893 0)
(10.2654 -0.0696547 0)
(10.2261 -0.0603197 0)
(10.1921 -0.0558109 0)
(10.1623 -0.0544832 0)
(10.1334 -0.0538867 0)
(10.1075 -0.0526087 0)
(10.087 -0.0471077 0)
(10.0675 -0.0410623 0)
(10.0488 -0.0379079 0)
(9.41631 4.45107 0)
(12.7294 2.07612 0)
(12.5649 0.621225 0)
(11.5691 0.127667 0)
(10.9311 0.00342987 0)
(10.5862 -0.00225782 0)
(10.363 0.0138665 0)
(10.2007 0.0311953 0)
(10.0779 0.0446944 0)
(9.97634 0.0440353 0)
(9.88362 0.0333174 0)
(9.79872 0.0320179 0)
(9.72204 0.034676 0)
(9.65808 0.033525 0)
(9.60326 0.0293267 0)
(9.54835 0.0111235 0)
(9.49646 -0.00367523 0)
(9.44986 -0.0188416 0)
(-0.0249689 0.0909201 0)
(0.137489 -0.1826 0)
(0.325901 -0.304449 0)
(0.525687 -0.313547 0)
(0.702365 -0.270719 0)
(0.831879 -0.209984 0)
(0.907213 -0.145183 -8.60705e-20)
(0.936881 -0.081262 8.67546e-20)
(0.914842 -0.018996 0)
(0.853187 0.0356715 9.2136e-20)
(0.765328 0.0747909 0)
(0.665732 0.0923601 0)
(0.571943 0.0875877 0)
(0.499518 0.0662345 -1.44249e-19)
(0.449597 0.0372763 0)
(0.405417 0.00984364 0)
(0.344902 -0.00843544 1.8992e-19)
(0.258972 -0.00781584 0)
(0.122942 0.0110294 0)
(-0.0758624 0.111941 0)
(-0.305504 0.206972 -1.3966e-19)
(-0.601622 0.24778 0)
(-0.929579 0.269628 -7.48917e-20)
(-1.26452 0.296739 0)
(-1.60315 0.323514 0)
(-1.942 0.336028 -4.11673e-20)
(-2.27351 0.335037 0)
(-2.58974 0.32574 3.44749e-20)
(-2.88754 0.309483 0)
(-3.1636 0.288639 -3.13106e-20)
(-3.41702 0.265512 0)
(-3.64745 0.241674 0)
(-3.85562 0.218147 0)
(-4.04263 0.195628 0)
(-4.20993 0.174484 0)
(-4.35908 0.154919 2.8218e-20)
(-4.49165 0.136963 0)
(-4.60913 0.120544 -5.55469e-20)
(-4.71288 0.105533 0)
(-4.80412 0.0917707 5.47465e-20)
(-4.8839 0.079096 0)
(-4.95311 0.0673577 0)
(-5.01249 0.0564282 -5.35212e-20)
(-5.06267 0.0462124 0)
(-5.10414 0.0366515 -5.26273e-20)
(-5.13731 0.0277298 5.21485e-20)
(-5.16258 0.019493 0)
(-5.18033 0.0120888 5.11196e-20)
(-5.19083 0.0057804 5.05667e-20)
(-5.19426 0.000716495 0)
(-5.19188 -0.0032043 0)
(-5.1849 -0.00645675 0)
(-5.17347 -0.00940484 0)
(-5.1579 -0.0121129 0)
(-5.13836 -0.0146794 -4.614e-20)
(-5.11498 -0.0171177 0)
(-5.08787 -0.0194392 4.42728e-20)
(-5.05714 -0.0216527 0)
(-5.02289 -0.0237604 0)
(-4.98522 -0.025764 -4.10917e-20)
(-4.94423 -0.0276642 0)
(-4.90004 -0.0294606 3.8714e-20)
(-4.85275 -0.0311532 0)
(-4.80248 -0.0327418 0)
(-4.74934 -0.0342266 0)
(-4.69345 -0.0356072 -3.33302e-20)
(-4.63493 -0.0368842 0)
(-4.57392 -0.0380585 0)
(-4.51053 -0.0391307 -2.87292e-20)
(-4.4449 -0.0401014 0)
(-4.37716 -0.0409723 -2.53852e-20)
(-4.30744 -0.0417445 0)
(-4.23587 -0.0424198 0)
(-4.16257 -0.0429999 0)
(-4.0877 -0.0434869 1.80017e-20)
(-4.01136 -0.0438827 0)
(-3.9337 -0.0441895 0)
(-3.85484 -0.0444094 1.18143e-20)
(-3.7749 -0.044545 9.61851e-21)
(-3.69401 -0.0445985 0)
(-3.61228 -0.0445731 5.01246e-21)
(-3.52983 -0.0444721 0)
(-3.44678 -0.0442999 1.9955e-22)
(-3.36322 -0.044062 0)
(-3.27927 -0.0437657 -1.03008e-20)
(-3.19501 -0.0434204 0)
(-3.11054 -0.0430395 2.15558e-20)
(-3.02593 -0.0426416 0)
(-2.94126 -0.042255 0)
(-2.85659 -0.0419218 0)
(-2.77194 -0.0417041 -4.67791e-20)
(-2.68735 -0.0416848 0)
(-2.60282 -0.0419539 6.1074e-20)
(-2.51832 -0.0425663 0)
(-2.43382 -0.0434598 -7.67659e-20)
(-2.34956 -0.0443577 -8.51557e-20)
(-2.26579 -0.0447991 -9.38747e-20)
(-2.18278 -0.0445789 0)
(-2.10067 -0.0439696 0)
(-2.01949 -0.0432706 0)
(-1.93926 -0.0425655 0)
(-1.85998 -0.0418652 0)
(-1.78167 -0.0411706 0)
(-1.70437 -0.0404836 0)
(-1.62809 -0.0398079 0)
(-1.55285 -0.0391493 1.93143e-19)
(-1.47868 -0.038515 2.0749e-19)
(-1.40559 -0.0379103 0)
(-1.33359 -0.0373237 0)
(-1.26271 -0.0366972 0)
(-1.19299 -0.0360386 2.74893e-19)
(-1.12443 -0.035405 0)
(-1.05703 -0.0347894 0)
(-0.990792 -0.034194 0)
(-0.92572 -0.0336201 0)
(-0.861815 -0.03307 -3.91811e-19)
(-0.799073 -0.0325459 0)
(-0.737492 -0.0320515 0)
(-0.677064 -0.0315898 4.90268e-19)
(-0.617782 -0.0311626 -5.3009e-19)
(-0.559641 -0.0307733 0)
(-0.502632 -0.0304328 -6.24017e-19)
(-0.446741 -0.0301655 0)
(-0.39195 -0.0300167 7.43452e-19)
(-0.338236 -0.029995 0)
(-0.285586 -0.0300611 0)
(-0.233987 -0.0302036 0)
(-0.183407 -0.0304335 0)
(-0.133823 -0.0307665 0)
(-0.0852821 -0.0312218 -2.85808e-18)
(-0.0380025 -0.0316755 -3.29196e-18)
(0.00808495 -0.0313417 0)
(0.053497 -0.0298119 0)
(0.0982277 -0.0279611 0)
(0.142139 -0.0262487 2.67877e-18)
(0.185137 -0.0247209 0)
(0.227202 -0.0233524 0)
(0.268359 -0.0221193 0)
(0.308643 -0.0210016 2.03659e-18)
(0.348087 -0.0199817 -1.93066e-18)
(0.386719 -0.0190456 0)
(0.424564 -0.018182 0)
(0.461642 -0.0173823 -1.68462e-18)
(0.497978 -0.0166385 -1.62012e-18)
(0.533591 -0.0159455 0)
(0.568501 -0.0152974 0)
(0.602726 -0.0146919 1.46219e-18)
(0.63629 -0.0141236 -1.41877e-18)
(0.669218 -0.0135901 0)
(0.701539 -0.0130873 0)
(0.73328 -0.0126132 -1.30865e-18)
(0.764464 -0.0121652 0)
(0.795115 -0.0117424 0)
(0.825257 -0.0113426 -1.22134e-18)
(0.854912 -0.0109654 0)
(0.884107 -0.0106086 -1.17243e-18)
(0.912863 -0.0102721 0)
(0.941204 -0.00995388 0)
(0.969152 -0.00965386 0)
(0.996729 -0.00937003 1.09084e-18)
(1.02396 -0.0091022 0)
(1.05085 -0.0088483 0)
(1.07744 -0.00860761 0)
(1.10372 -0.00837777 0)
(1.12971 -0.00815701 0)
(1.15541 -0.00794208 0)
(1.18081 -0.00772938 9.82638e-19)
(1.20589 -0.00751361 9.69767e-19)
(1.2306 -0.00728788 0)
(1.25488 -0.00704264 0)
(1.27862 -0.00676443 0)
(1.30165 -0.00643446 -9.24515e-19)
(1.32374 -0.00602383 0)
(1.34447 -0.00549138 1.81391e-18)
(1.36339 -0.00475709 -1.80054e-18)
(1.37911 -0.00370869 -1.79176e-18)
(1.39168 -0.00195787 1.79001e-18)
(1.39195 0.00137666 -1.79572e-18)
(1.38931 0.00811065 1.80808e-18)
(1.30982 0.0198674 0)
(0.0969556 -0.27202 0)
(0.333026 -0.681645 0)
(0.513011 -0.705242 1.57349e-19)
(0.610197 -0.569379 0)
(0.660771 -0.406611 -1.11273e-19)
(0.680694 -0.251381 -1.08301e-19)
(0.674161 -0.109617 -5.64064e-20)
(0.643247 0.0182101 -5.63281e-20)
(0.599943 0.127934 0)
(0.540262 0.214137 -6.10037e-20)
(0.46294 0.268967 0)
(0.367899 0.283791 0)
(0.251337 0.256111 1.71653e-19)
(0.102814 0.211544 9.90779e-20)
(-0.0834695 0.208502 -1.84352e-19)
(-0.311207 0.275642 -1.42767e-19)
(-0.5905 0.387351 -5.68052e-20)
(-0.916596 0.515979 0)
(-1.27128 0.642717 0)
(-1.62836 0.755217 0)
(-1.98121 0.841455 -2.83652e-20)
(-2.32699 0.894819 0)
(-2.65662 0.917567 6.88857e-20)
(-2.96273 0.913566 0)
(-3.24145 0.886733 0)
(-3.49104 0.842294 1.98194e-20)
(-3.71034 0.785614 0)
(-3.90024 0.722208 -1.97695e-20)
(-4.06274 0.656241 -4.18092e-20)
(-4.20135 0.590397 2.01806e-20)
(-4.319 0.526785 0)
(-4.41856 0.467149 0)
(-4.50274 0.412304 0)
(-4.57392 0.362589 -4.42681e-20)
(-4.63416 0.317957 -4.47713e-20)
(-4.68511 0.278133 -2.21935e-20)
(-4.72816 0.242703 0)
(-4.7644 0.211188 4.53066e-20)
(-4.79472 0.183089 0)
(-4.81982 0.15793 -4.58711e-20)
(-4.8403 0.135271 0)
(-4.85664 0.11472 0)
(-4.86926 0.095938 4.60729e-20)
(-4.87853 0.0786375 0)
(-4.88479 0.0625791 1.38105e-19)
(-4.88835 0.0475703 -4.55868e-20)
(-4.88949 0.0334771 0)
(-4.88846 0.0202718 -4.49141e-20)
(-4.8855 0.00807255 -4.44552e-20)
(-4.8809 -0.00295778 0)
(-4.87371 -0.0128823 0)
(-4.86284 -0.0219973 0)
(-4.84829 -0.0305401 0)
(-4.82996 -0.0386255 0)
(-4.80787 -0.0463231 4.01826e-20)
(-4.7821 -0.053669 7.9094e-20)
(-4.7527 -0.0606843 -3.84037e-20)
(-4.71978 -0.0673799 0)
(-4.68341 -0.0737616 7.34109e-20)
(-4.64369 -0.0798317 -3.59284e-20)
(-4.60072 -0.0855911 0)
(-4.5546 -0.0910392 -3.32267e-20)
(-4.50543 -0.0961762 0)
(-4.45333 -0.101003 0)
(-4.3984 -0.105522 -5.98068e-20)
(-4.34076 -0.109732 2.83418e-20)
(-4.28054 -0.113635 -5.46117e-20)
(-4.21784 -0.117232 5.18911e-20)
(-4.15281 -0.120529 2.42474e-20)
(-4.08556 -0.123528 0)
(-4.01622 -0.126235 2.13125e-20)
(-3.94491 -0.128656 0)
(-3.87178 -0.130798 0)
(-3.79694 -0.132668 0)
(-3.72051 -0.134274 1.5582e-20)
(-3.64264 -0.135624 0)
(-3.56345 -0.136729 2.36561e-20)
(-3.48305 -0.137597 -2.98043e-20)
(-3.40157 -0.13824 -7.88363e-21)
(-3.31912 -0.138667 0)
(-3.23583 -0.138891 -4.08013e-21)
(-3.15181 -0.138923 0)
(-3.06716 -0.138774 -1.63247e-22)
(-2.982 -0.138456 0)
(-2.89641 -0.137983 8.24946e-21)
(-2.81051 -0.137364 -2.38481e-20)
(-2.72438 -0.136613 -1.71103e-20)
(-2.63811 -0.135739 0)
(-2.55181 -0.13475 0)
(-2.46555 -0.133652 0)
(-2.37943 -0.132445 3.6346e-20)
(-2.29357 -0.131118 0)
(-2.20811 -0.129645 -4.68276e-20)
(-2.12319 -0.127969 0)
(-2.03895 -0.126038 1.72428e-19)
(-1.95547 -0.123879 6.38209e-20)
(-1.87274 -0.121594 6.98584e-20)
(-1.79073 -0.11929 0)
(-1.7094 -0.117022 0)
(-1.62881 -0.114788 0)
(-1.54903 -0.112565 0)
(-1.4701 -0.110341 0)
(-1.39208 -0.108109 2.19973e-19)
(-1.31498 -0.105872 2.35484e-19)
(-1.23885 -0.103632 0)
(-1.1637 -0.101392 -1.35032e-19)
(-1.08957 -0.0991559 -1.43823e-19)
(-1.01647 -0.0969243 0)
(-0.94444 -0.0946996 -3.23652e-19)
(-0.873488 -0.0924862 0)
(-0.803607 -0.0902979 1.81661e-19)
(-0.734808 -0.0881403 0)
(-0.667101 -0.0860134 0)
(-0.60049 -0.0839199 -4.35232e-19)
(-0.534979 -0.0818609 0)
(-0.470567 -0.0798383 2.45267e-19)
(-0.407256 -0.0778549 0)
(-0.345043 -0.075917 0)
(-0.283922 -0.0740327 2.90285e-19)
(-0.223885 -0.0722001 3.09623e-19)
(-0.164924 -0.0704138 0)
(-0.107034 -0.0686771 -3.46993e-19)
(-0.0502209 -0.0669897 0)
(0.00551905 -0.065343 3.8293e-19)
(0.0602278 -0.0637302 7.65963e-19)
(0.113939 -0.0621635 0)
(0.166652 -0.0606573 0)
(0.218369 -0.0592159 0)
(0.269104 -0.0578369 0)
(0.318891 -0.0565233 7.0903e-19)
(0.367802 -0.0552628 2.09582e-18)
(0.415925 -0.0538791 0)
(0.463162 -0.0522262 0)
(0.509377 -0.050451 0)
(0.554645 -0.0487061 -6.65417e-19)
(0.599046 -0.0470415 0)
(0.642605 -0.045465 0)
(0.68534 -0.043974 1.2875e-18)
(0.727276 -0.0425607 6.36728e-19)
(0.768433 -0.0412177 6.32205e-19)
(0.808833 -0.0399381 0)
(0.848498 -0.0387168 0)
(0.887446 -0.0375498 6.15656e-19)
(0.925699 -0.0364333 -6.09412e-19)
(0.963276 -0.0353648 0)
(1.0002 -0.0343427 0)
(1.03648 -0.0333655 -5.96555e-19)
(1.07215 -0.0324313 1.77568e-18)
(1.10722 -0.0315373 0)
(1.14173 -0.0306818 0)
(1.17569 -0.0298623 5.80111e-19)
(1.20913 -0.0290781 0)
(1.24207 -0.0283281 1.14458e-18)
(1.27453 -0.0276115 -5.68383e-19)
(1.30654 -0.0269277 0)
(1.33811 -0.0262752 5.62332e-19)
(1.36927 -0.0256539 1.11745e-18)
(1.40004 -0.0250616 0)
(1.43045 -0.0244982 0)
(1.4605 -0.0239609 -5.49648e-19)
(1.49023 -0.0234494 0)
(1.51965 -0.0229599 1.08674e-18)
(1.54877 -0.022491 0)
(1.57761 -0.0220373 0)
(1.60618 -0.0215955 0)
(1.63446 -0.0211573 0)
(1.66247 -0.0207153 -5.29288e-19)
(1.69017 -0.020256 -5.26534e-19)
(1.71752 -0.0197642 0)
(1.74448 -0.0192164 0)
(1.77094 -0.0185816 0)
(1.79677 -0.0178139 5.1645e-19)
(1.82175 -0.0168464 0)
(1.84557 -0.0155768 -1.02545e-18)
(1.86779 -0.0138265 1.0232e-18)
(1.88752 -0.0113135 1.02277e-18)
(1.90427 -0.0072993 1.02389e-18)
(1.91447 -0.00050072 1.0292e-18)
(1.92667 0.0124742 1.02056e-18)
(1.90711 0.0362628 0)
(0.118661 -0.861568 0)
(0.266961 -1.05282 0)
(0.313861 -0.823078 -1.25721e-19)
(0.312927 -0.58113 -1.08229e-19)
(0.295202 -0.370538 1.00705e-19)
(0.263666 -0.185278 1.00985e-19)
(0.217108 -0.019738 -6.48001e-22)
(0.154824 0.128016 0)
(0.0766615 0.25847 0)
(-0.0186374 0.369132 0)
(-0.134738 0.454361 0)
(-0.279852 0.515085 0)
(-0.46698 0.56926 -2.66162e-19)
(-0.706286 0.64504 0)
(-0.993425 0.758578 6.59012e-20)
(-1.31236 0.90063 5.68698e-20)
(-1.64526 1.04785 0)
(-1.97558 1.18041 0)
(-2.28842 1.28618 0)
(-2.57151 1.3592 0)
(-2.81912 1.39453 3.48516e-20)
(-3.03159 1.39101 0)
(-3.21041 1.35377 -3.23137e-20)
(-3.35863 1.29071 0)
(-3.48057 1.20905 0)
(-3.5808 1.11514 0)
(-3.66412 1.01496 -6.86014e-20)
(-3.73485 0.91379 0)
(-3.79651 0.815701 3.31397e-20)
(-3.85182 0.723433 -7.07261e-20)
(-3.9027 0.638476 0)
(-3.95042 0.56154 0)
(-3.99572 0.492661 0)
(-4.03897 0.431447 3.65767e-20)
(-4.08026 0.377244 3.71604e-20)
(-4.11954 0.329282 0)
(-4.15668 0.286767 0)
(-4.19151 0.248941 -7.77909e-20)
(-4.22385 0.215115 -7.81783e-20)
(-4.25353 0.184682 7.8406e-20)
(-4.28042 0.157128 0)
(-4.30439 0.132026 0)
(-4.32537 0.10903 0)
(-4.34327 0.0878602 0)
(-4.35803 0.0682827 -7.69713e-20)
(-4.36961 0.0500996 -7.68695e-20)
(-4.37793 0.0331275 7.62241e-20)
(-4.38285 0.0171656 0)
(-4.38419 0.00195755 0)
(-4.38182 -0.0127835 0)
(-4.37565 -0.027184 0)
(-4.36576 -0.0411558 -7.10489e-20)
(-4.3522 -0.054611 0)
(-4.33501 -0.0675365 0)
(-4.31421 -0.0799368 -6.69333e-20)
(-4.28988 -0.0918206 -6.49064e-20)
(-4.26207 -0.103195 0)
(-4.23085 -0.114064 1.2444e-19)
(-4.1963 -0.12443 -5.99648e-20)
(-4.15851 -0.134292 5.8187e-20)
(-4.11756 -0.143648 0)
(-4.07355 -0.152497 0)
(-4.02658 -0.160836 0)
(-3.97675 -0.168664 0)
(-3.92418 -0.175985 4.83495e-20)
(-3.86896 -0.1828 9.36278e-20)
(-3.81122 -0.189108 4.39817e-20)
(-3.75107 -0.194912 -4.17083e-20)
(-3.68864 -0.200219 0)
(-3.62404 -0.205035 7.52664e-20)
(-3.5574 -0.209368 7.03807e-20)
(-3.48884 -0.213227 6.53785e-20)
(-3.41849 -0.216622 -6.02604e-20)
(-3.34647 -0.219565 0)
(-3.27291 -0.222068 -7.38402e-20)
(-3.19793 -0.224146 0)
(-3.12165 -0.225812 2.00061e-20)
(-3.0442 -0.227081 1.57811e-20)
(-2.9657 -0.227971 0)
(-2.88626 -0.228497 0)
(-2.80599 -0.228677 1.5169e-20)
(-2.72502 -0.228528 0)
(-2.64344 -0.22807 2.72684e-21)
(-2.56138 -0.22732 0)
(-2.47892 -0.226299 1.02043e-20)
(-2.39618 -0.225024 3.51451e-20)
(-2.31326 -0.223516 0)
(-2.23024 -0.221793 0)
(-2.14723 -0.219875 0)
(-2.06432 -0.217779 4.48115e-20)
(-1.9816 -0.215519 0)
(-1.89918 -0.213108 5.96432e-20)
(-1.81715 -0.210546 0)
(-1.73561 -0.207818 0)
(-1.65461 -0.204897 -1.67565e-19)
(-1.5742 -0.20177 0)
(-1.49439 -0.19845 -9.95812e-20)
(-1.41519 -0.194982 0)
(-1.33664 -0.191422 -1.16874e-19)
(-1.25878 -0.187809 0)
(-1.18167 -0.18416 0)
(-1.10538 -0.180482 0)
(-1.02993 -0.176783 -4.63626e-19)
(-0.955368 -0.173068 -1.65363e-19)
(-0.88172 -0.169344 0)
(-0.809014 -0.165619 0)
(-0.737274 -0.161898 0)
(-0.666524 -0.158185 0)
(-0.596779 -0.154487 2.19206e-19)
(-0.528051 -0.150807 -4.59224e-19)
(-0.460346 -0.147156 -2.43062e-19)
(-0.393677 -0.143542 5.08462e-19)
(-0.328053 -0.13997 5.34284e-19)
(-0.26348 -0.136447 2.81805e-19)
(-0.199959 -0.132975 0)
(-0.137493 -0.129554 6.17134e-19)
(-0.0760818 -0.126187 0)
(-0.0157276 -0.122877 -6.74172e-19)
(0.0435761 -0.119625 -3.45284e-19)
(0.101843 -0.116434 0)
(0.159079 -0.113305 6.93346e-19)
(0.21529 -0.110242 3.48933e-19)
(0.270488 -0.107245 0)
(0.324682 -0.104304 3.48813e-19)
(0.37788 -0.101408 -1.05306e-18)
(0.430092 -0.0985665 0)
(0.481332 -0.0957905 0)
(0.531616 -0.0930822 0)
(0.580963 -0.0904423 0)
(0.629394 -0.0878759 -7.07839e-19)
(0.676944 -0.0853898 -7.10318e-19)
(0.723637 -0.0829995 0)
(0.769437 -0.0806904 0)
(0.81433 -0.0784234 0)
(0.858371 -0.0761985 0)
(0.9016 -0.0740327 0)
(0.944034 -0.0719339 0)
(0.985686 -0.0699047 -7.14014e-19)
(1.02657 -0.0679438 -1.09255e-21)
(1.06672 -0.0660493 0)
(1.10613 -0.0642191 0)
(1.14484 -0.0624516 -7.13808e-19)
(1.18286 -0.060745 0)
(1.22021 -0.0590981 7.14846e-19)
(1.25691 -0.0575095 7.1397e-19)
(1.29298 -0.0559796 0)
(1.32845 -0.0545068 0)
(1.36332 -0.0530907 -7.14502e-19)
(1.39762 -0.0517283 -1.4272e-18)
(1.43138 -0.0504185 0)
(1.46461 -0.0491591 0)
(1.49735 -0.0479499 0)
(1.5296 -0.0467897 -7.13271e-19)
(1.56139 -0.0456779 7.12921e-19)
(1.59274 -0.0446136 0)
(1.62368 -0.0435958 1.42312e-18)
(1.65422 -0.0426236 7.10585e-19)
(1.68439 -0.0416951 -1.42125e-18)
(1.71421 -0.0408095 0)
(1.74369 -0.0399635 0)
(1.77286 -0.039156 -1.41774e-18)
(1.80173 -0.0383822 -7.08622e-19)
(1.83033 -0.0376392 0)
(1.85865 -0.0369197 0)
(1.88672 -0.0362178 0)
(1.91453 -0.0355217 0)
(1.94209 -0.0348194 -1.40804e-18)
(1.96937 -0.034091 0)
(1.99635 -0.0333132 0)
(2.02297 -0.0324503 0)
(2.04917 -0.0314556 0)
(2.07482 -0.0302599 0)
(2.09975 -0.0287633 0)
(2.12371 -0.026814 -1.39872e-18)
(2.14635 -0.0241603 0)
(2.16701 -0.0203979 0)
(2.18544 -0.0147334 -2.81874e-18)
(2.19886 -0.00584433 1.41937e-18)
(2.2135 0.00892953 -1.41728e-18)
(2.20838 0.0363378 1.41291e-18)
(0.0332721 -1.16457 0)
(0.0682272 -1.02598 3.60507e-19)
(0.0322253 -0.743096 0)
(-0.0125982 -0.502591 1.10951e-19)
(-0.0684293 -0.279664 0)
(-0.136808 -0.0698536 0)
(-0.220589 0.127183 -8.26793e-20)
(-0.322156 0.310684 0)
(-0.443641 0.480219 0)
(-0.587682 0.636365 0)
(-0.758156 0.781723 0)
(-0.960267 0.922474 0)
(-1.19646 1.06668 2.03405e-19)
(-1.46081 1.21746 9.20998e-20)
(-1.73866 1.36826 -8.34137e-20)
(-2.01171 1.50567 0)
(-2.26447 1.61603 0)
(-2.4872 1.6903 0)
(-2.67526 1.72503 0)
(-2.82711 1.7218 0)
(-2.94524 1.68433 6.01006e-20)
(-3.03535 1.6176 5.87949e-20)
(-3.1037 1.52851 -5.79593e-20)
(-3.15662 1.42486 5.76774e-20)
(-3.19942 1.31332 0)
(-3.23639 1.19925 0)
(-3.27096 1.08696 5.58728e-20)
(-3.30542 0.979681 0)
(-3.34103 0.879491 0)
(-3.37828 0.787395 5.87268e-20)
(-3.41715 0.703614 6.15302e-20)
(-3.45731 0.627913 6.2239e-20)
(-3.49822 0.559754 0)
(-3.53926 0.498441 0)
(-3.57983 0.443214 -6.40379e-20)
(-3.61936 0.39332 0)
(-3.65737 0.34805 0)
(-3.69345 0.306767 6.43024e-20)
(-3.72724 0.268908 -6.60119e-20)
(-3.75849 0.233987 6.60194e-20)
(-3.78696 0.201594 0)
(-3.81247 0.171378 0)
(-3.83486 0.143047 1.29959e-19)
(-3.85402 0.116351 0)
(-3.86983 0.0910803 1.2856e-19)
(-3.8822 0.067059 1.90932e-19)
(-3.89106 0.0441447 -1.89284e-19)
(-3.89632 0.0222179 1.25251e-19)
(-3.89796 0.0011618 0)
(-3.89597 -0.0191388 0)
(-3.89039 -0.0387606 1.19781e-19)
(-3.88128 -0.0577215 5.83588e-20)
(-3.86865 -0.0760178 0)
(-3.85256 -0.0936479 0)
(-3.83304 -0.110611 5.48493e-20)
(-3.81013 -0.126906 1.08147e-19)
(-3.78389 -0.142531 0)
(-3.75439 -0.157484 -1.0169e-19)
(-3.72169 -0.17176 9.98591e-20)
(-3.68587 -0.185355 -9.68855e-20)
(-3.64701 -0.198264 0)
(-3.6052 -0.210481 0)
(-3.56053 -0.222001 0)
(-3.51311 -0.232821 0)
(-3.46302 -0.242946 0)
(-3.41039 -0.252376 -7.58018e-20)
(-3.35532 -0.261109 0)
(-3.29791 -0.26915 0)
(-3.2383 -0.276508 0)
(-3.17658 -0.28319 -1.22365e-19)
(-3.11289 -0.289207 -5.65731e-20)
(-3.04733 -0.294571 -5.247e-20)
(-2.98004 -0.299296 9.77711e-20)
(-2.91113 -0.303397 -4.52261e-20)
(-2.84072 -0.306892 3.96719e-20)
(-2.76893 -0.309799 0)
(-2.69589 -0.312138 -3.0745e-20)
(-2.62171 -0.313929 0)
(-2.5465 -0.315195 0)