/*--------------------------------*- C++ -*----------------------------------*\
  =========                 |
  \\      /  F ield         | OpenFOAM: The Open Source CFD Toolbox
   \\    /   O peration     | Website:  https://openfoam.org
    \\  /    A nd           | Version:  8
     \\/     M anipulation  |
\*---------------------------------------------------------------------------*/
FoamFile
{
    version     2.0;
    format      ascii;
    class       volScalarField;
    location    "1800";
    object      nuTilda;
}
// * * * * * * * * * * * * * * * * * * * * * * * * * * * * * * * * * * * * * //

dimensions      [0 2 -1 0 0 0 0];

internalField   nonuniform List<scalar> 
12225
(
0.0122671
0.00158833
0.000666932
0.000412201
0.000298001
0.000234419
0.000192049
0.000186518
0.000141364
0.000110263
9.73201e-05
9.07193e-05
8.20034e-05
7.63423e-05
7.17077e-05
7.01738e-05
6.81339e-05
7.40046e-05
0.0323823
0.00744533
0.00330642
0.00204338
0.00146818
0.00114477
0.000936743
0.000800567
0.000680243
0.00057806
0.000507247
0.000453561
0.000411868
0.000380373
0.000352023
0.000329997
0.000313758
0.000295893
0.0490123
0.01515
0.00728196
0.00457856
0.00330642
0.00258059
0.00211241
0.00178924
0.00154196
0.00134781
0.00119795
0.00107898
0.000982392
0.000902878
0.000836443
0.000781454
0.00073617
0.000687905
0.063054
0.0237783
0.0122894
0.00788815
0.00573398
0.004485
0.00367415
0.00310736
0.00268476
0.00235811
0.00210119
0.00189468
0.00172543
0.00158465
0.0014663
0.00136624
0.00128169
0.00119816
0.074932
0.0328517
0.0181452
0.0119262
0.00874549
0.00686413
0.00563081
0.00476256
0.0041175
0.00362033
0.00322735
0.00290997
0.00264905
0.0024315
0.00224807
0.00209197
0.00195837
0.0018364
0.0849536
0.0420208
0.0246655
0.0166359
0.0123325
0.00972587
0.0079954
0.00676786
0.00585347
0.00514771
0.00458846
0.0041359
0.00376338
0.00345244
0.00318988
0.00296602
0.00277367
0.00260479
0.0933822
0.0510219
0.0316642
0.0219415
0.016474
0.0130717
0.0107779
0.00913552
0.00790571
0.00695341
0.00619691
0.00558369
0.00507839
0.00465635
0.00429979
0.00399565
0.00373419
0.00350824
0.0993794
0.0583363
0.0378386
0.0268568
0.0204171
0.0163053
0.0134892
0.011453
0.00991892
0.0087263
0.00777636
0.00700499
0.00636868
0.00583687
0.00538743
0.00500401
0.00467455
0.00439131
0.104023
0.0645454
0.0433804
0.0314239
0.0241571
0.0194092
0.0161097
0.0137018
0.0118766
0.0104521
0.00931444
0.00838905
0.00762487
0.00698576
0.00644547
0.00598452
0.00558861
0.00524881
0.108368
0.0708939
0.0493756
0.0365496
0.0284517
0.0230231
0.0191863
0.0163548
0.0141926
0.0124968
0.011138
0.0100304
0.00911435
0.00834761
0.00769912
0.00714581
0.00667071
0.00626301
0.112368
0.0772557
0.0557282
0.0421918
0.0332976
0.0271652
0.0227468
0.0194432
0.0168984
0.0148903
0.0132749
0.0119545
0.0108605
0.0099438
0.00916798
0.00850588
0.00793738
0.00744917
0.115994
0.0834975
0.0623053
0.0482611
0.0386474
0.0318167
0.026789
0.0229739
0.0200046
0.0176452
0.0157379
0.0141736
0.0128749
0.011785
0.0108618
0.0100736
0.00939673
0.00881466
0.119234
0.0894856
0.0689377
0.0546109
0.0443919
0.0369007
0.0312597
0.0269088
0.0234836
0.02074
0.0185097
0.0166735
0.0151449
0.01386
0.0127704
0.0118396
0.0110397
0.0103508
0.122086
0.095084
0.075415
0.0610223
0.0503361
0.0422534
0.0360231
0.0311353
0.0272402
0.024093
0.021519
0.0193909
0.017614
0.0161174
0.0148466
0.0137601
0.0128257
0.0120196
0.124546
0.100135
0.0814619
0.0671725
0.056158
0.047577
0.0408126
0.0354174
0.031066
0.0275196
0.0246012
0.0221777
0.0201481
0.0184349
0.0169782
0.0157314
0.0146583
0.0137312
0.126578
0.104396
0.0866605
0.0725515
0.0613228
0.0523526
0.0451453
0.0393148
0.0345631
0.0306611
0.0274325
0.0247409
0.0224806
0.020569
0.0189413
0.0175468
0.0163454
0.0153061
0.128011
0.107322
0.0902141
0.0762353
0.0648743
0.0556509
0.0481493
0.0420254
0.0370012
0.0328553
0.0294126
0.0265352
0.0241143
0.0220643
0.0203172
0.0188191
0.0175275
0.0164083
0.128006
0.107313
0.0902048
0.0762269
0.0648674
0.0556454
0.048145
0.0420222
0.0369988
0.0328537
0.0294117
0.0265349
0.0241147
0.0220652
0.0203185
0.0188206
0.0175287
0.0164083
0.126509
0.104255
0.0864922
0.0723807
0.0611613
0.052205
0.0450128
0.0391967
0.0344584
0.0305686
0.0273506
0.0246684
0.0224163
0.0205118
0.0188903
0.0175006
0.0163024
0.0152631
0.124267
0.0995604
0.0807712
0.0664676
0.0554886
0.0469631
0.0402594
0.0349228
0.0306248
0.0271258
0.0242488
0.0218611
0.0198626
0.0181762
0.0167426
0.0155152
0.0144575
0.0135405
0.12136
0.0936399
0.0737261
0.0593348
0.0487592
0.0408249
0.0347467
0.0300003
0.0262308
0.0231928
0.0207127
0.018665
0.0169572
0.0155198
0.0142999
0.0132567
0.0123583
0.0115798
0.117686
0.0865903
0.0656967
0.0514791
0.0415374
0.0343608
0.0290184
0.0249322
0.0217348
0.0191848
0.0171184
0.0154211
0.0140106
0.0128263
0.0118229
0.0109656
0.010228
0.00958894
0.11305
0.0784122
0.056921
0.0432687
0.0342296
0.0279652
0.0234365
0.0200435
0.0174263
0.0153597
0.0136966
0.0123369
0.0112106
0.010267
0.00946865
0.00878718
0.00820101
0.00769346
0.107169
0.0691009
0.0476372
0.035029
0.0271566
0.021922
0.0182437
0.0155401
0.0134817
0.0118706
0.0105816
0.00953197
0.00866487
0.00793965
0.0073267
0.00680377
0.00635412
0.00596494
0.0996761
0.0587036
0.0381279
0.0270699
0.0205782
0.016433
0.0135949
0.0115438
0.00999923
0.00879909
0.00784342
0.00706756
0.00642794
0.00589354
0.00544235
0.00505735
0.00472642
0.00444005
0.0901097
0.0473665
0.0287363
0.0196847
0.0146976
0.0116312
0.00957853
0.00811528
0.00702332
0.00617995
0.0055106
0.00496792
0.00452125
0.00414797
0.00383352
0.0035646
0.00333368
0.0031336
0.0779076
0.0353826
0.0198606
0.0131383
0.00966107
0.00759298
0.00623353
0.00527431
0.00456401
0.00401885
0.00358704
0.00323603
0.00294756
0.0027053
0.00250301
0.00232828
0.00217893
0.00204803
0.06238
0.0232554
0.0119461
0.00765494
0.00556339
0.00435258
0.00356726
0.00301643
0.00261313
0.00230799
0.00206674
0.00186701
0.00170321
0.00156266
0.00144905
0.00134691
0.00126221
0.00118204
0.0426105
0.0117794
0.00546931
0.00341388
0.00246077
0.00192015
0.0015729
0.00132905
0.00115971
0.00103885
0.000944564
0.000858189
0.000786145
0.000721528
0.000667076
0.000615681
0.000585671
0.000535992
0.0168348
0.0025599
0.00110031
0.000684192
0.000495179
0.000389152
0.00032166
0.000270752
0.000280902
0.000338984
0.000384495
0.000373999
0.000343772
0.000315049
0.000284098
0.000258111
0.000317681
0.000270266
3.78292e-06
1.43243e-05
2.60318e-05
3.85421e-05
4.60191e-05
4.9675e-05
5.01631e-05
4.78389e-05
4.46481e-05
3.95793e-05
3.42406e-05
2.94623e-05
2.67593e-05
2.74194e-05
2.95918e-05
3.14337e-05
3.12809e-05
2.84061e-05
2.36569e-05
1.94765e-05
1.94425e-05
2.62721e-05
3.92507e-05
6.37091e-05
8.71454e-05
0.000100546
0.000113286
0.000124298
0.000134293
0.000142801
0.000150397
0.00015702
0.000162885
0.000168043
0.000172577
0.000176606
0.000180194
0.000183415
0.000186313
0.000188925
0.000191275
0.000193382
0.00019526
0.000196923
0.000198383
0.000199652
0.000200737
0.000201646
0.000202378
0.000202803
0.000203294
0.000203377
0.000203437
0.000203321
0.000203044
0.00020263
0.000202074
0.000201382
0.000200553
0.000199592
0.0001985
0.000197279
0.000195932
0.000194462
0.000192872
0.000191165
0.000189342
0.000187405
0.00018536
0.000183208
0.000180953
0.000178597
0.000176144
0.000173595
0.000170954
0.000168224
0.000165406
0.000162503
0.000159517
0.000156448
0.000153297
0.000150062
0.000146743
0.000143334
0.000139834
0.000136238
0.000132539
0.000128731
0.000124804
0.000120745
0.000116536
0.000112161
0.000107619
0.000102963
9.83997e-05
9.44175e-05
9.15947e-05
8.98384e-05
8.85241e-05
8.73193e-05
8.61359e-05
8.49571e-05
8.37812e-05
8.26088e-05
8.14408e-05
8.02781e-05
7.91222e-05
7.79772e-05
7.68641e-05
7.59095e-05
7.49755e-05
7.40476e-05
7.31277e-05
7.2216e-05
7.1313e-05
7.04189e-05
6.95342e-05
6.86592e-05
6.77942e-05
6.69393e-05
6.60947e-05
6.52607e-05
6.44376e-05
6.36258e-05
6.28252e-05
6.20359e-05
6.12587e-05
6.05193e-05
5.98421e-05
5.91735e-05
5.85102e-05
5.78601e-05
5.72283e-05
5.66016e-05
5.59798e-05
5.53659e-05
5.47612e-05
5.41661e-05
5.35806e-05
5.30048e-05
5.24385e-05
5.18814e-05
5.13336e-05
5.07948e-05
5.02649e-05
4.97438e-05
4.92314e-05
4.87277e-05
4.82324e-05
4.77456e-05
4.72672e-05
4.6797e-05
4.63352e-05
4.58816e-05
4.54363e-05
4.49992e-05
4.45705e-05
4.41502e-05
4.37385e-05
4.33354e-05
4.29413e-05
4.25563e-05
4.21807e-05
4.18148e-05
4.14586e-05
4.11124e-05
4.0776e-05
4.04495e-05
4.0132e-05
3.98232e-05
3.95208e-05
3.92252e-05
3.89275e-05
3.86408e-05
3.83119e-05
3.80562e-05
3.75484e-05
3.73536e-05
3.63028e-05
3.49086e-05
5.89551e-06
4.05849e-05
9.24553e-05
0.000153697
0.000192562
0.000214586
0.000223398
0.000221982
0.000214155
0.000198602
0.000179575
0.000161572
0.000152396
0.000156822
0.000169071
0.000177028
0.000179116
0.0001802
0.000185102
0.000193805
0.000208057
0.000224376
0.000240285
0.000256125
0.000267019
0.000276609
0.000285158
0.000297609
0.000316286
0.000329955
0.000342478
0.000353229
0.000363013
0.000371991
0.000379792
0.000386918
0.000393556
0.000399928
0.000406161
0.000412322
0.000418405
0.000424368
0.000430159
0.000435735
0.00044107
0.000446147
0.00045095
0.000455466
0.000459698
0.000463644
0.000467343
0.000470761
0.000473938
0.00047686
0.000479534
0.000481961
0.00048414
0.000486074
0.000487761
0.000489203
0.0004904
0.000491353
0.000492065
0.000492539
0.000492785
0.00049281
0.000492607
0.000492173
0.000491524
0.000490663
0.000489597
0.000488333
0.000486876
0.000485233
0.000483413
0.000481421
0.000479266
0.000476955
0.000474496
0.000471896
0.000469164
0.000466306
0.000463331
0.000460247
0.000457062
0.000453784
0.00045042
0.000446981
0.000443473
0.000439905
0.000436283
0.000432613
0.000428894
0.000425118
0.000421267
0.000417315
0.000413246
0.000409088
0.000404891
0.00040068
0.000396462
0.000392241
0.000388021
0.000383805
0.000379597
0.0003754
0.000371217
0.000367049
0.000362899
0.000358762
0.00035465
0.000350567
0.000346515
0.000342496
0.000338512
0.000334564
0.000330654
0.000326783
0.000322953
0.000319165
0.00031542
0.000311719
0.000308062
0.000304451
0.000300887
0.00029737
0.000293899
0.000290473
0.000287091
0.000283756
0.000280465
0.000277229
0.000274047
0.000270903
0.000267798
0.000264736
0.000261719
0.00025875
0.000255828
0.000252952
0.000250123
0.000247338
0.000244599
0.000241904
0.000239252
0.000236644
0.000234078
0.000231554
0.000229072
0.000226631
0.000224231
0.000221871
0.000219552
0.000217272
0.000215033
0.000212835
0.000210677
0.00020856
0.000206484
0.000204452
0.000202463
0.00020052
0.000198623
0.000196775
0.000194976
0.000193228
0.000191531
0.000189887
0.000188293
0.000186749
0.000185248
0.000183794
0.000182358
0.000180994
0.00017951
0.000178387
0.000176291
0.000175968
0.000172989
0.000172126
1.2873e-05
7.40519e-05
0.000174296
0.000251894
0.000303705
0.000333438
0.00034431
0.000341506
0.000328914
0.000310026
0.000290693
0.000278246
0.000275981
0.000282396
0.000292433
0.000302972
0.00031543
0.000332056
0.000353325
0.000378189
0.000405324
0.000433403
0.000471172
0.000517314
0.000562775
0.000606786
0.000649773
0.000693349
0.000732652
0.000763921
0.000788917
0.000808733
0.000824442
0.000836905
0.000846905
0.000855216
0.00086254
0.000869519
0.000876692
0.000884414
0.000892794
0.000901708
0.000910918
0.000920186
0.000929336
0.000938248
0.000946846
0.000955081
0.000962918
0.000970328
0.000977289
0.00098377
0.00098977
0.000995282
0.0010003
0.00100483
0.00100887
0.00101242
0.00101547
0.00101803
0.0010201
0.00102167
0.00102276
0.0010233
0.00102346
0.00102317
0.00102238
0.00102114
0.00101945
0.00101734
0.0010148
0.00101186
0.00100852
0.00100481
0.00100073
0.000996306
0.000991542
0.000986458
0.000981069
0.000975389
0.000969433
0.000963218
0.000956757
0.000950067
0.000943162
0.000936056
0.000928766
0.000921305
0.000913686
0.000905923
0.000898029
0.000890013
0.000881887
0.000873656
0.000865331
0.00085692
0.000848436
0.000839895
0.000831313
0.000822704
0.000814078
0.000805444
0.00079681
0.000788185
0.000779574
0.000770985
0.000762425
0.000753899
0.000745413
0.000736972
0.000728583
0.000720251
0.000711979
0.000703773
0.000695636
0.000687571
0.000679581
0.00067167
0.00066384
0.000656093
0.000648431
0.000640856
0.00063337
0.000625975
0.000618673
0.000611462
0.000604345
0.000597321
0.000590391
0.000583556
0.000576816
0.000570172
0.000563622
0.000557159
0.000550783
0.000544497
0.000538303
0.0005322
0.000526189
0.00052027
0.000514442
0.000508703
0.000503052
0.00049749
0.000492013
0.000486622
0.000481315
0.000476091
0.000470949
0.000465888
0.000460906
0.000456003
0.000451177
0.000446428
0.000441753
0.000437153
0.000432626
0.000428171
0.000423787
0.000419471
0.000415224
0.000411044
0.000406927
0.000402874
0.00039888
0.000394942
0.000391057
0.00038722
0.000383423
0.000379658
0.000375913
0.000372175
0.000368418
0.000364625
0.000360723
0.000356745
0.000352325
0.000348023
0.000341565
0.000330413
2.17689e-05
0.00010643
0.000220253
0.000312868
0.00037557
0.000412577
0.000428023
0.000428413
0.00041848
0.000405172
0.000397035
0.000396159
0.000405237
0.000422255
0.000444807
0.000472359
0.000505515
0.000544647
0.00058895
0.000650806
0.000724477
0.000804106
0.000888323
0.000958978
0.0010214
0.00107752
0.00112794
0.00117285
0.00121213
0.00124602
0.00127527
0.00130061
0.00132274
0.00134228
0.00135982
0.00137584
0.00139076
0.00140493
0.00141859
0.00143194
0.0014451
0.00145815
0.00147111
0.00148396
0.00149665
0.00150911
0.00152124
0.00153294
0.00154413
0.00155473
0.00156468
0.00157395
0.00158253
0.00159039
0.00159752
0.00160393
0.0016096
0.00161454
0.00161874
0.0016222
0.00162492
0.0016269
0.00162806
0.0016285
0.00162837
0.00162746
0.00162583
0.00162351
0.00162052
0.00161686
0.00161256
0.00160764
0.00160212
0.00159602
0.00158937
0.00158218
0.00157447
0.00156627
0.00155761
0.00154851
0.00153898
0.00152905
0.00151875
0.0015081
0.00149711
0.00148583
0.00147425
0.00146242
0.00145034
0.00143805
0.00142555
0.00141287
0.00140003
0.00138703
0.0013739
0.00136065
0.00134731
0.00133388
0.0013204
0.00130687
0.00129331
0.00127974
0.00126617
0.00125262
0.00123908
0.00122559
0.00121214
0.00119874
0.0011854
0.00117214
0.00115896
0.00114586
0.00113286
0.00111996
0.00110717
0.00109449
0.00108192
0.00106948
0.00105716
0.00104497
0.00103292
0.00102099
0.00100921
0.000997562
0.000986058
0.000974696
0.000963479
0.000952406
0.000941478
0.000930698
0.000920064
0.000909576
0.000899231
0.000889026
0.00087896
0.000869033
0.000859247
0.000849602
0.000840099
0.000830735
0.000821511
0.000812425
0.000803475
0.00079466
0.000785978
0.000777427
0.000769005
0.000760712
0.000752544
0.0007445
0.000736579
0.000728778
0.000721096
0.000713531
0.000706082
0.000698745
0.00069152
0.000684404
0.000677395
0.000670492
0.000663691
0.000656991
0.000650388
0.000643878
0.000637458
0.000631123
0.000624867
0.000618682
0.000612558
0.000606483
0.000600442
0.000594412
0.000588365
0.000582263
0.000576042
0.000569647
0.000562896
0.000555735
0.000547514
0.000531416
2.69688e-05
0.00012201
0.000241122
0.000357863
0.000435907
0.000483086
0.00050659
0.000515001
0.00051654
0.000517476
0.000524266
0.000540301
0.000566207
0.000601034
0.000644002
0.00069513
0.000755042
0.000838289
0.000933811
0.00103002
0.00111901
0.0012034
0.00128275
0.00135546
0.00142224
0.00148367
0.00154015
0.00159201
0.00163962
0.0016834
0.00172384
0.00176142
0.00179656
0.00182964
0.00186098
0.00189082
0.00191937
0.00194675
0.00197308
0.00199841
0.00202277
0.00204618
0.00206862
0.00209009
0.00211055
0.00212998
0.00214835
0.00216563
0.00218179
0.00219681
0.00221068
0.00222341
0.002235
0.00224547
0.00225484
0.00226312
0.00227034
0.00227651
0.00228163
0.00228574
0.00228883
0.00229088
0.0022918
0.00229189
0.00229101
0.00228913
0.0022863
0.00228253
0.00227784
0.00227226
0.00226581
0.00225853
0.00225043
0.00224155
0.00223192
0.00222157
0.00221053
0.00219882
0.00218649
0.00217357
0.00216007
0.00214604
0.0021315
0.0021165
0.00210105
0.00208518
0.00206894
0.00205234
0.00203542
0.00201821
0.00200073
0.001983
0.00196506
0.00194693
0.00192862
0.00191017
0.00189159
0.00187291
0.00185415
0.00183535
0.0018165
0.00179764
0.00177879
0.00175995
0.00174116
0.00172241
0.00170372
0.00168511
0.00166659
0.00164817
0.00162986
0.00161168
0.00159362
0.00157571
0.00155794
0.00154032
0.00152286
0.00150558
0.00148846
0.00147152
0.00145476
0.00143819
0.0014218
0.00140561
0.0013896
0.0013738
0.00135819
0.00134278
0.00132756
0.00131255
0.00129774
0.00128312
0.00126871
0.00125448
0.00124045
0.00122661
0.00121296
0.00119951
0.00118624
0.00117317
0.00116029
0.00114759
0.00113508
0.00112275
0.00111061
0.00109864
0.00108684
0.00107523
0.00106378
0.0010525
0.00104139
0.00103044
0.00101965
0.00100902
0.000998543
0.000988221
0.00097805
0.000968027
0.000958148
0.000948411
0.000938813
0.000929349
0.000920017
0.000910812
0.000901728
0.000892759
0.000883899
0.000875137
0.000866462
0.00085786
0.00084931
0.000840789
0.000832263
0.000823688
0.000814995
0.000806116
0.000796885
0.000787155
0.000777198
0.000757413
3.07984e-05
0.000135321
0.000261516
0.000392494
0.000488781
0.000550393
0.000588105
0.000611471
0.00062914
0.000648364
0.000674391
0.000709878
0.000755567
0.000811737
0.000878776
0.00096915
0.00107418
0.00117587
0.00127506
0.00137057
0.00146128
0.00154729
0.00162854
0.00170502
0.00177699
0.00184483
0.00190886
0.00196942
0.00202684
0.00208146
0.00213359
0.00218353
0.00223152
0.00227776
0.00232244
0.00236565
0.0024075
0.00244804
0.0024873
0.00252529
0.002562
0.00259742
0.00263152
0.00266425
0.00269559
0.0027255
0.00275392
0.00278083
0.00280619
0.00282996
0.00285212
0.00287264
0.0028915
0.00290871
0.00292424
0.00293811
0.00295031
0.00296085
0.00296974
0.00297701
0.00298266
0.00298674
0.00298917
0.00299007
0.00298961
0.00298764
0.0029843
0.00297959
0.00297359
0.00296634
0.00295789
0.0029483
0.00293761
0.00292589
0.00291317
0.0028995
0.00288494
0.00286953
0.0028533
0.00283631
0.0028186
0.00280021
0.00278118
0.00276154
0.00274135
0.00272065
0.00269946
0.00267783
0.0026558
0.0026334
0.00261067
0.00258764
0.00256435
0.00254082
0.00251708
0.00249318
0.00246912
0.00244495
0.00242069
0.00239637
0.00237201
0.00234763
0.00232327
0.00229894
0.00227465
0.00225044
0.0022263
0.00220227
0.00217836
0.00215458
0.00213094
0.00210746
0.00208415
0.00206102
0.00203808
0.00201533
0.00199279
0.00197046
0.00194836
0.00192648
0.00190483
0.00188341
0.00186224
0.0018413
0.00182062
0.00180018
0.00177999
0.00176006
0.00174037
0.00172094
0.00170176
0.00168284
0.00166416
0.00164573
0.00162755
0.00160961
0.00159192
0.00157447
0.00155726
0.00154029
0.00152356
0.00150707
0.00149081
0.00147479
0.00145899
0.00144341
0.00142806
0.00141293
0.00139801
0.0013833
0.00136881
0.00135452
0.00134043
0.00132654
0.00131284
0.00129934
0.00128603
0.0012729
0.00125996
0.00124719
0.0012346
0.00122217
0.00120992
0.00119782
0.00118588
0.00117408
0.00116242
0.0011509
0.00113948
0.00112817
0.00111693
0.00110575
0.00109458
0.00108338
0.00107208
0.00106061
0.0010488
0.00103659
0.00102442
0.00100195
3.23491e-05
0.000142507
0.000273987
0.000409888
0.000527833
0.000609049
0.000665086
0.000706975
0.000743924
0.000783184
0.00082981
0.000886755
0.000955631
0.00104784
0.00115475
0.00126131
0.0013674
0.00147075
0.00157083
0.00166719
0.0017596
0.00184805
0.00193263
0.0020135
0.0020909
0.00216511
0.0022364
0.00230504
0.00237129
0.00243537
0.0024975
0.00255786
0.0026166
0.00267384
0.00272965
0.0027841
0.00283722
0.00288902
0.0029395
0.00298864
0.00303641
0.00308278
0.00312769
0.0031711
0.00321295
0.00325321
0.0032918
0.00332868
0.00336381
0.00339713
0.00342859
0.00345817
0.00348583
0.00351153
0.00353525
0.00355698
0.00357668
0.00359437
0.00361002
0.00362364
0.00363524
0.00364482
0.0036524
0.00365802
0.00366167
0.00366329
0.0036632
0.00366122
0.00365744
0.00365192
0.00364472
0.00363588
0.00362546
0.00361353
0.00360015
0.00358538
0.00356929
0.00355195
0.00353342
0.00351377
0.00349307
0.00347138
0.00344877
0.00342531
0.00340107
0.00337609
0.00335044
0.00332419
0.00329739
0.00327008
0.00324233
0.00321417
0.00318567
0.00315685
0.00312777
0.00309846
0.00306896
0.00303931
0.00300955
0.0029797
0.0029498
0.00291988
0.00288996
0.00286008
0.00283026
0.00280052
0.00277087
0.00274136
0.00271198
0.00268276
0.00265371
0.00262486
0.00259621
0.00256777
0.00253957
0.0025116
0.00248388
0.00245642
0.00242923
0.00240231
0.00237566
0.00234931
0.00232324
0.00229746
0.00227198
0.0022468
0.00222193
0.00219735
0.00217308
0.00214911
0.00212545
0.00210209
0.00207903
0.00205628
0.00203381
0.00201165
0.00198978
0.0019682
0.00194691
0.00192591
0.0019052
0.00188477
0.00186462
0.00184476
0.00182516
0.00180583
0.00178678
0.00176798
0.00174944
0.00173116
0.00171313
0.00169534
0.0016778
0.0016605
0.00164343
0.0016266
0.00160999
0.0015936
0.00157744
0.00156148
0.00154574
0.00153021
0.00151487
0.00149973
0.00148478
0.00147001
0.00145541
0.00144097
0.00142667
0.0014125
0.00139844
0.00138446
0.00137052
0.00135657
0.00134255
0.00132838
0.00131391
0.00129916
0.00128415
0.00125991
3.27983e-05
0.000144138
0.000275343
0.000409486
0.000539417
0.00064272
0.000719786
0.000781104
0.000836792
0.00089453
0.000961964
0.00105378
0.00116329
0.00128499
0.00140055
0.0015118
0.00161963
0.0017242
0.00182546
0.00192334
0.00201785
0.00210907
0.00219713
0.00228224
0.00236461
0.00244445
0.002522
0.00259746
0.00267104
0.00274288
0.00281315
0.00288196
0.0029494
0.00301553
0.00308039
0.00314401
0.00320639
0.0032675
0.00332733
0.00338583
0.00344295
0.00349865
0.00355285
0.0036055
0.00365654
0.00370589
0.00375349
0.00379929
0.00384321
0.0038852
0.0039252
0.00396317
0.00399905
0.00403281
0.00406441
0.0040938
0.00412098
0.00414591
0.00416858
0.00418899
0.00420711
0.00422296
0.00423654
0.00424787
0.00425696
0.00426383
0.00426855
0.00427101
0.00427144
0.00426979
0.00426612
0.00426048
0.00425292
0.00424349
0.00423225
0.00421928
0.00420463
0.00418838
0.00417058
0.00415131
0.00413065
0.00410866
0.00408541
0.00406098
0.00403544
0.00400886
0.00398132
0.00395288
0.00392361
0.00389358
0.00386285
0.00383149
0.00379955
0.00376711
0.00373421
0.00370091
0.00366727
0.00363334
0.00359916
0.00356478
0.00353025
0.00349562
0.00346091
0.00342617
0.00339144
0.00335674
0.00332211
0.00328757
0.00325316
0.00321889
0.00318478
0.00315087
0.00311716
0.00308369
0.00305045
0.00301747
0.00298476
0.00295233
0.0029202
0.00288837
0.00285685
0.00282565
0.00279477
0.00276423
0.00273402
0.00270415
0.00267462
0.00264544
0.0026166
0.00258811
0.00255997
0.00253218
0.00250474
0.00247764
0.00245088
0.00242446
0.00239838
0.00237264
0.00234724
0.00232217
0.00229743
0.00227301
0.00224893
0.00222516
0.00220171
0.00217857
0.00215574
0.00213322
0.002111
0.00208907
0.00206743
0.00204608
0.00202502
0.00200423
0.00198372
0.00196347
0.0019435
0.00192378
0.00190432
0.00188511
0.00186615
0.00184743
0.00182894
0.00181068
0.00179265
0.00177483
0.00175722
0.00173979
0.00172255
0.00170546
0.00168851
0.00167166
0.00165488
0.00163812
0.00162131
0.00160438
0.00158719
0.00156979
0.00155186
0.00152572
3.22407e-05
0.000141214
0.000268945
0.000398085
0.000521957
0.0006341
0.00072787
0.000808898
0.000891734
0.000986915
0.00109601
0.0012206
0.00135695
0.00148445
0.00160474
0.00171975
0.00183047
0.00193724
0.00204039
0.00214028
0.00223712
0.0023311
0.00242242
0.00251129
0.00259792
0.00268251
0.00276524
0.0028463
0.00292583
0.00300397
0.00308081
0.00315644
0.00323092
0.00330428
0.00337654
0.00344767
0.00351767
0.0035865
0.00365411
0.00372044
0.00378543
0.003849
0.00391109
0.00397161
0.00403049
0.00408765
0.00414301
0.00419651
0.00424805
0.00429759
0.00434504
0.00439036
0.00443348
0.00447435
0.00451293
0.00454918
0.00458306
0.00461454
0.0046436
0.00467023
0.00469441
0.00471613
0.00473541
0.00475224
0.00476664
0.00477863
0.00478824
0.00479547
0.00480041
0.00480297
0.00480336
0.00480154
0.00479758
0.00479152
0.00478341
0.00477333
0.00476133
0.00474748
0.00473184
0.00471448
0.00469547
0.00467489
0.00465279
0.00462927
0.00460438
0.00457821
0.00455082
0.0045223
0.0044927
0.00446211
0.00443058
0.0043982
0.00436502
0.00433111
0.00429654
0.00426137
0.00422566
0.00418948
0.00415287
0.00411589
0.00407861
0.00404106
0.0040033
0.00396538
0.00392734
0.00388922
0.00385106
0.00381289
0.00377476
0.0037367
0.00369873
0.00366088
0.00362319
0.00358568
0.00354836
0.00351127
0.00347441
0.00343782
0.00340149
0.00336546
0.00332973
0.00329431
0.00325921
0.00322445
0.00319003
0.00315596
0.00312225
0.00308889
0.0030559
0.00302327
0.00299102
0.00295913
0.00292762
0.00289647
0.0028657
0.0028353
0.00280527
0.0027756
0.0027463
0.00271737
0.0026888
0.00266059
0.00263274
0.00260525
0.0025781
0.0025513
0.00252485
0.00249873
0.00247295
0.0024475
0.00242237
0.00239757
0.00237308
0.00234891
0.00232505
0.00230149
0.00227823
0.00225526
0.00223259
0.0022102
0.00218809
0.00216626
0.00214469
0.00212339
0.00210234
0.00208153
0.00206097
0.00204062
0.00202048
0.00200053
0.00198074
0.00196108
0.00194151
0.00192199
0.00190244
0.00188278
0.0018629
0.00184284
0.00182209
0.00179377
3.08718e-05
0.000135128
0.000258144
0.000383444
0.000505406
0.00062147
0.000732086
0.00084098
0.000955728
0.00108148
0.00121948
0.00136917
0.00151146
0.00164344
0.00176769
0.00188612
0.00199984
0.00210949
0.00221546
0.00231795
0.00241737
0.00251408
0.00260839
0.00270056
0.00279081
0.00287934
0.00296634
0.00305196
0.00313634
0.00321959
0.00330178
0.00338299
0.00346323
0.00354253
0.00362088
0.00369825
0.0037746
0.00384988
0.00392402
0.00399696
0.0040686
0.00413887
0.00420768
0.00427494
0.00434055
0.00440442
0.00446648
0.00452662
0.00458477
0.00464085
0.00469479
0.0047465
0.00479594
0.00484304
0.00488775
0.00493001
0.0049698
0.00500708
0.00504181
0.00507398
0.00510358
0.00513058
0.005155
0.00517684
0.0051961
0.00521281
0.00522697
0.00523863
0.0052478
0.00525452
0.00525884
0.00526078
0.00526044
0.00525783
0.00525301
0.00524605
0.00523699
0.00522591
0.00521287
0.00519794
0.00518118
0.00516266
0.00514245
0.00512063
0.00509727
0.00507245
0.00504622
0.00501868
0.00498988
0.0049599
0.00492882
0.0048967
0.0048636
0.0048296
0.00479477
0.00475917
0.00472286
0.0046859
0.00464837
0.00461031
0.00457179
0.00453286
0.00449358
0.00445399
0.00441415
0.00437411
0.0043339
0.00429357
0.00425316
0.00421272
0.00417227
0.00413185
0.0040915
0.00405124
0.00401111
0.00397112
0.00393131
0.0038917
0.0038523
0.00381315
0.00377425
0.00373562
0.00369728
0.00365924
0.00362152
0.00358412
0.00354706
0.00351034
0.00347397
0.00343796
0.00340231
0.00336702
0.00333211
0.00329757
0.0032634
0.00322961
0.00319619
0.00316315
0.00313049
0.00309821
0.0030663
0.00303477
0.00300361
0.00297282
0.0029424
0.00291235
0.00288266
0.00285332
0.00282435
0.00279573
0.00276745
0.00273953
0.00271194
0.00268469
0.00265777
0.00263119
0.00260492
0.00257898
0.00255336
0.00252804
0.00250303
0.00247833
0.00245391
0.00242979
0.00240595
0.00238238
0.00235907
0.00233601
0.00231318
0.00229056
0.00226813
0.00224585
0.00222368
0.00220157
0.00217946
0.00215726
0.00213486
0.00211229
0.00208898
0.00205833
2.93204e-05
0.000128805
0.000248263
0.000372502
0.000497124
0.000621026
0.000745629
0.000874909
0.0010121
0.0011593
0.00131661
0.00147839
0.00162619
0.00176263
0.00189073
0.00201249
0.00212918
0.00224163
0.00235037
0.00245578
0.00255818
0.00265774
0.00275492
0.00285006
0.00294346
0.00303534
0.0031259
0.00321531
0.0033037
0.00339116
0.00347778
0.00356359
0.00364863
0.00373288
0.00381633
0.00389893
0.00398064
0.00406138
0.00414108
0.00421964
0.00429698
0.00437299
0.00444757
0.00452063
0.00459205
0.00466174
0.0047296
0.00479552
0.00485943
0.00492122
0.00498081
0.00503813
0.00509311
0.00514568
0.00519578
0.00524336
0.00528838
0.00533079
0.00537056
0.00540768
0.00544212
0.00547386
0.00550292
0.00552928
0.00555295
0.00557395
0.0055923
0.00560802
0.00562115
0.0056317
0.00563973
0.00564527
0.00564838
0.00564911
0.0056475
0.00564362
0.00563753
0.00562929
0.00561895
0.00560658
0.00559226
0.00557604
0.00555801
0.00553823
0.00551677
0.00549371
0.00546912
0.00544307
0.00541564
0.00538689
0.00535689
0.00532572
0.00529344
0.00526012
0.00522583
0.00519064
0.00515461
0.0051178
0.00508028
0.00504211
0.00500335
0.00496406
0.00492429
0.00488409
0.00484353
0.00480264
0.00476147
0.00472008
0.0046785
0.00463678
0.00459496
0.00455308
0.00451117
0.00446926
0.00442739
0.0043856
0.0043439
0.00430232
0.0042609
0.00421965
0.00417859
0.00413775
0.00409714
0.00405679
0.0040167
0.0039769
0.00393739
0.00389819
0.0038593
0.00382074
0.00378252
0.00374464
0.0037071
0.00366992
0.0036331
0.00359664
0.00356054
0.00352481
0.00348946
0.00345447
0.00341985
0.00338561
0.00335173
0.00331823
0.0032851
0.00325234
0.00321995
0.00318792
0.00315626
0.00312496
0.00309401
0.00306342
0.00303318
0.0030033
0.00297375
0.00294455
0.00291569
0.00288717
0.00285897
0.00283111
0.00280356
0.00277634
0.00274943
0.00272282
0.00269652
0.0026705
0.00264477
0.0026193
0.00259408
0.0025691
0.00254432
0.00251971
0.00249523
0.00247083
0.00244644
0.00242199
0.00239737
0.00237257
0.00234706
0.00231425
2.76261e-05
0.000122203
0.000238232
0.000361785
0.000489221
0.00061991
0.000756111
0.000899602
0.00105207
0.00121401
0.00138594
0.00155189
0.00170368
0.00184399
0.00197559
0.00210047
0.00221997
0.00233502
0.0024463
0.00255428
0.00265936
0.00276184
0.00286199
0.00296
0.00305629
0.00315115
0.00324482
0.00333749
0.0034293
0.00352035
0.00361072
0.00370045
0.00378955
0.00387801
0.00396581
0.00405289
0.00413918
0.00422461
0.00430907
0.00439249
0.00447473
0.00455571
0.00463529
0.00471338
0.00478985
0.0048646
0.00493751
0.00500848
0.0050774
0.00514419
0.00520875
0.005271
0.00533085
0.00538824
0.00544311
0.0054954
0.00554506
0.00559204
0.00563632
0.00567786
0.00571664
0.00575266
0.0057859
0.00581636
0.00584405
0.00586899
0.00589118
0.00591066
0.00592745
0.00594159
0.0059531
0.00596204
0.00596845
0.00597237
0.00597386
0.00597299
0.00596982
0.00596439
0.00595677
0.00594702
0.00593521
0.00592141
0.00590568
0.00588811
0.00586876
0.0058477
0.005825
0.00580075
0.005775
0.00574783
0.00571931
0.0056895
0.00565849
0.00562633
0.00559309
0.00555884
0.00552365
0.00548757
0.00545068
0.00541303
0.00537469
0.00533571
0.00529615
0.00525607
0.00521551
0.00517454
0.00513319
0.00509151
0.00504956
0.00500738
0.004965
0.00492248
0.00487983
0.00483712
0.00479436
0.00475159
0.00470884
0.00466615
0.00462353
0.00458103
0.00453865
0.00449642
0.00445438
0.00441252
0.00437088
0.00432947
0.00428831
0.0042474
0.00420677
0.00416643
0.00412638