/*--------------------------------*- C++ -*----------------------------------*\
| =========                 |                                                 |
| \\      /  F ield         | OpenFOAM: The Open Source CFD Toolbox           |
|  \\    /   O peration     | Version:  v2012                                 |
|   \\  /    A nd           | Website:  www.openfoam.com                      |
|    \\/     M anipulation  |                                                 |
\*---------------------------------------------------------------------------*/
FoamFile
{
    version     2.0;
    format      ascii;
    class       volScalarField;
    location    "300";
    object      epsilon;
}
// * * * * * * * * * * * * * * * * * * * * * * * * * * * * * * * * * * * * * //

dimensions      [0 2 -3 0 0 0 0];


internalField   nonuniform List<scalar> 
12225
(
1130.08
2611.29
3861.02
4651.1
5051.63
5192.43
5173.79
5117.76
5004.83
4882.45
4764.39
4653.34
4555.47
4464.77
4390.68
4317.09
4268.2
4200.04
82.7568
272.883
458.211
608.763
717.645
788.437
828.464
852.892
867.813
877.417
885.925
893.354
902.053
910.612
920.257
930.125
939.041
951.534
20.0886
50.8906
83.5821
112.872
137.268
156.515
170.102
179.717
185.838
190.103
192.527
194.542
195.611
197.02
197.916
199.238
200.774
203.222
14.519
21.3621
28.9795
37.1664
44.5716
51.1738
56.5301
61.0197
64.388
67.1754
69.1016
70.7341
71.7459
72.6637
73.1552
73.6269
73.916
74.4472
14.2883
16.0541
17.8297
20.5347
23.1894
25.7698
28.0362
30.1111
31.8169
33.362
34.5579
35.6659
36.4534
37.2384
37.7146
38.2746
38.52
38.9502
14.5465
14.8884
15.1705
15.9441
16.8554
17.8616
18.8183
19.7628
20.5881
21.3849
22.0376
22.6819
23.1654
23.6821
24.013
24.4344
24.6326
25.0117
14.7165
14.5889
14.5778
14.6594
14.8298
15.1344
15.4605
15.8262
16.1697
16.5298
16.838
17.163
17.4155
17.7005
17.8903
18.1422
18.2662
18.5025
14.7576
14.5798
14.4527
14.3666
14.343
14.3687
14.4292
14.5394
14.6593
14.8017
14.9293
15.078
15.1956
15.3383
15.435
15.5688
15.6379
15.7702
14.7658
14.5893
14.4322
14.2945
14.1852
14.1069
14.0534
14.0267
14.0271
14.0368
14.0563
14.0935
14.1225
14.1702
14.2001
14.2501
14.2778
14.3315
14.7663
14.5938
14.4319
14.2813
14.1436
14.0221
13.9158
13.8253
13.7501
13.6906
13.6379
13.6012
13.5658
13.5448
13.5201
13.5095
13.4899
13.4917
14.7659
14.5945
14.4325
14.2802
14.1367
14.0032
13.8788
13.765
13.6595
13.5655
13.4777
13.4011
13.3285
13.2668
13.2061
13.157
13.1043
13.0668
14.7658
14.5942
14.4323
14.2799
14.1357
14
13.8717
13.7515
13.6377
13.5319
13.4316
13.339
13.2509
13.1702
13.0928
13.0229
12.9544
12.8939
14.7657
14.594
14.432
14.2794
14.1351
13.999
13.8701
13.7486
13.6333
13.5246
13.4213
13.3241
13.2316
13.1446
13.0618
12.984
12.9096
12.84
14.7657
14.5939
14.4318
14.2789
14.1346
13.9982
13.8693
13.7473
13.6318
13.5225
13.4187
13.3204
13.2271
13.1386
13.0544
12.9746
12.8986
12.8265
14.7657
14.5938
14.4316
14.2786
14.1341
13.9977
13.8686
13.7464
13.6308
13.5212
13.4173
13.3187
13.2251
13.1363
13.0518
12.9716
12.8952
12.8225
14.7657
14.5937
14.4315
14.2784
14.1338
13.9972
13.868
13.7458
13.63
13.5203
13.4162
13.3175
13.2238
13.1348
13.0502
12.9698
12.8933
12.8205
14.7657
14.5937
14.4314
14.2783
14.1336
13.9969
13.8677
13.7453
13.6294
13.5196
13.4155
13.3167
13.2229
13.1338
13.0491
12.9686
12.892
12.8191
14.7657
14.5937
14.4314
14.2782
14.1336
13.9968
13.8675
13.7451
13.6292
13.5193
13.4151
13.3163
13.2224
13.1332
13.0485
12.9679
12.8913
12.8183
14.7657
14.5937
14.4314
14.2782
14.1336
13.9969
13.8675
13.7451
13.6292
13.5193
13.4151
13.3162
13.2224
13.1332
13.0484
12.9679
12.8912
12.8183
14.7657
14.5937
14.4315
14.2783
14.1337
13.997
13.8677
13.7453
13.6294
13.5196
13.4154
13.3166
13.2228
13.1336
13.049
12.9685
12.892
12.8191
14.7657
14.5937
14.4316
14.2785
14.1339
13.9972
13.868
13.7457
13.63
13.5203
13.4165
13.318
13.2248
13.1362
13.0523
12.9726
12.8971
12.8252
14.7657
14.5938
14.4317
14.2786
14.1342
13.9978
13.8692
13.7478
13.6336
13.5258
13.4247
13.3292
13.2398
13.1553
13.0764
13.0015
12.932
12.8654
14.7657
14.5936
14.4318
14.2789
14.1364
14.0033
13.881
13.7678
13.665
13.5705
13.4854
13.4074
13.3375
13.273
13.2161
13.1619
13.1157
13.0694
14.7644
14.5919
14.4335
14.2883
14.1666
14.0626
13.981
13.9156
13.8697
13.8353
13.8154
13.802
13.7989
13.8003
13.8055
13.8121
13.8266
13.8322
14.7487
14.5941
14.4766
14.4122
14.4254
14.4639
14.5577
14.6738
14.8188
14.9641
15.1253
15.2746
15.4343
15.5742
15.7246
15.8472
15.9863
16.0875
14.663
14.7651
14.9036
15.2739
15.8077
16.391
17.0247
17.6299
18.249
18.8061
19.3671
19.85
20.3397
20.7417
21.1615
21.4849
21.8437
22.0937
14.6005
15.9621
17.5928
19.7721
21.9975
24.1068
26.1672
28.0117
29.8009
31.3255
32.8218
34.0253
35.2442
36.1557
37.1348
37.7976
38.5826
39.0429
16.3556
24.4598
33.7011
42.1658
50.1567
57.5552
64.5061
70.6095
76.2579
80.9069
85.2565
88.5377
91.7806
93.929
96.3356
97.6238
99.4627
100.149
42.1599
92.2657
140.376
183.843
226.192
266.307
302.447
333.554
359.958
381.447
399.368
413.163
425.127
433.481
441.788
446.667
453.302
455.786
570.028
929.811
1287.43
1576.94
1844.37
2077.97
2271.59
2424.47
2538.82
2619.88
2672.52
2703.16
2715.56
2712.73
2704.97
2688.02
2666.2
2640.96
0.153721
0.154789
0.269178
0.395678
0.519729
0.635164
0.740346
0.835486
0.921588
1.00168
1.08437
1.16948
1.2593
1.35631
1.46224
1.57777
1.70288
1.8376
1.98382
2.14893
2.35158
2.61355
2.93191
3.30243
3.72852
4.21806
4.781
5.4282
6.17018
7.01595
7.97063
9.03443
10.2106
11.4981
12.8962
14.4034
16.0191
17.7417
19.5701
21.504
23.5437
25.6911
27.9498
30.3262
32.83
35.4769
38.2893
41.3013
44.4897
47.807
51.2815
54.9061
58.6906
62.6369
66.7505
71.0355
75.4962
80.1373
84.9625
89.9764
95.1823
100.584
106.185
111.989
117.997
124.213
130.638
137.274
144.121
151.182
158.454
165.939
173.635
181.54
189.652
197.968
206.485
215.198
224.102
233.193
242.462
251.905
261.512
271.276
281.186
291.234
301.408
311.697
322.088
332.57
343.126
353.742
364.401
375.083
385.769
396.436
407.058
417.609
428.061
438.392
448.594
458.701
468.743
478.616
488.357
497.933
507.338
516.551
525.557
534.341
542.885
551.174
559.192
566.926
574.359
581.479
588.272
594.725
600.827
606.566
611.932
616.916
621.508
625.701
629.489
632.866
635.827
638.369
640.489
642.185
643.449
644.264
644.819
644.808
644.382
643.432
642.165
640.582
638.535
636.108
633.296
630.115
626.572
622.682
618.46
613.921
609.069
603.919
598.483
592.776
586.812
580.603
574.166
567.513
560.661
553.623
546.416
539.054
531.553
523.928
516.196
508.372
500.478
492.539
484.607
476.952
471.731
468.805
466.083
463.35
460.584
457.781
454.933
452.025
449.021
445.839
442.318
437.988
431.904
407.861
0.597906
0.357198
0.325981
0.339155
0.37057
0.411911
0.460255
0.515052
0.576964
0.647589
0.729205
0.822229
0.927934
1.04804
1.18439
1.33881
1.51315
1.70944
1.93001
2.17701
2.45573
2.77434
3.13539
3.53996
3.99005
4.48835
5.03735
5.63827
6.28972
6.98552
7.71393
8.48608
9.30095
10.157
11.0537
11.9928
12.9685
13.9821
15.0346
16.128
17.2643
18.4464
19.6774
20.9611
22.3011
23.7011
25.1643
26.6916
28.2797
29.9278
31.6399
33.4163
35.2592
37.1699
39.1501
41.2011
43.3243
45.521
47.7924
50.1395
52.5632
55.0646
57.6442
60.3028
63.0407
65.8584
68.7558
71.7332
74.7903
77.9267
81.1419
84.4352
87.8056
91.2522
94.7734
98.3679
102.034
105.769
109.571
113.439
117.368
121.356
125.4
129.497
133.642
137.833
142.063
146.329
150.627
154.95
159.292
163.649
168.012
172.375
176.731
181.071
185.388
189.675
193.929
198.151
202.357
206.579
210.835
215.025
219.164
223.24
227.25
231.186
235.041
238.811
242.487
246.065
249.538
252.9
256.145
259.269
262.265
265.129
267.855
270.44
272.878
275.167
277.302
279.28
281.098
282.754
284.245
285.57
286.727
287.715
288.533
289.183
289.677
289.975
290.092
290.042
289.828
289.477
288.948
288.261
287.416
286.416
285.266
283.968
282.529
280.953
279.243
277.403
275.44
273.357
271.16
268.854
266.445
263.937
261.338
258.651
255.884
253.042
250.131
247.157
244.127
241.048
237.926
234.774
231.612
228.528
225.919
223.791
221.765
219.753
217.737
215.716
213.69
211.659
209.623
207.58
205.516
203.468
201.33
197.655
1.31338
0.647101
0.510839
0.482955
0.492176
0.521801
0.566646
0.624665
0.695731
0.780751
0.881303
0.998898
1.13504
1.29121
1.46881
1.66924
1.89399
2.14476
2.42373
2.73384
3.07654
3.45066
3.8558
4.29142
4.75671
5.25076
5.77269
6.32198
6.89914
7.5073
8.15351
8.8315
9.5413
10.2841
11.0565
11.8469
12.6714
13.5323
14.4312
15.3697
16.3495
17.3719
18.4385
19.5508
20.7101
21.9175
23.1738
24.48
25.8355
27.2411
28.6981
30.2074
31.7702
33.3874
35.06
36.7888
38.5748
40.4187
42.3213
44.2832
46.305
48.3871
50.5301
52.7343
55
57.3274
59.7164
62.1672
64.6794
67.2529
69.8871
72.5816
75.3357
78.1485
81.019
83.946
86.9283
89.9644
93.0526
96.1911
99.3778
102.611
105.887
109.205
112.56
115.951
119.374
122.826
126.302
129.799
133.313
136.84
140.375
143.913
147.451
150.984
154.508
158.021
161.522
165.013
168.497
171.977
175.437
178.856
182.232
185.56
188.833
192.047
195.196
198.275
201.279
204.202
207.041
209.79
212.443
214.998
217.449
219.792
222.024
224.14
226.136
228.011
229.76
231.381
232.872
234.231
235.455
236.543
237.494
238.308
238.983
239.52
239.92
240.171
240.262
240.237
240.073
239.783
239.356
238.797
238.109
237.295
236.356
235.298
234.123
232.836
231.438
229.935
228.33
226.628
224.832
222.947
220.977
218.927
216.801
214.605
212.342
210.017
207.637
205.204
202.726
200.207
197.653
195.073
192.484
189.932
187.55
185.355
183.23
181.126
179.03
176.94
174.859
172.79
170.739
168.721
166.751
164.909
163.194
161.504
2.07939
0.935737
0.713553
0.659527
0.660776
0.690963
0.741834
0.810737
0.897313
1.00228
1.12687
1.2724
1.4401
1.63098
1.84577
2.08502
2.34911
2.63836
2.95298
3.29299
3.65791
4.04677
4.45874
4.89326
5.35011
5.82949
6.33203
6.85887
7.41155
7.9919
8.60132
9.23944
9.90628
10.6015
11.328
12.0954
12.8997
13.7412
14.6214
15.5415
16.5032
17.5064
18.5519
19.6404
20.7727
21.9488
23.1687
24.4319
25.7414
27.0984
28.5038
29.9586
31.4636
33.0199
34.6284
36.2898
38.0052
39.7752
41.6008
43.4826
45.4212
47.4172
49.4711
51.5834
53.7545
55.9847
58.2744
60.6235
63.0322
65.5003
68.0276
70.6139
73.2587
75.9613
78.721
81.5369
84.4079
87.3328
90.3102
93.3384
96.4157
99.5401
102.709
105.921
109.173
112.462
115.785
119.139
122.52
125.926
129.351
132.794
136.248
139.712
143.18
146.649
150.116
153.578
157.033
160.479
163.914
167.332
170.721
174.073
177.382
180.643
183.851
186.999
190.082
193.096
196.035
198.894
201.667
204.351
206.939
209.428
211.814
214.091
216.257
218.306
220.237
222.045
223.727
225.282
226.706
227.998
229.155
230.177
231.062
231.809
232.419
232.89
233.223
233.399
233.442
233.356
233.134
232.783
232.297
231.682
230.94
230.072
229.083
227.976
226.755
225.422
223.983
222.44
220.799
219.063
217.236
215.323
213.329
211.257
209.114
206.902
204.628
202.296
199.91
197.477
195.001
192.487
189.942
187.373
184.795
182.236
179.756
177.371
175.035
172.723
170.427
168.144
165.88
163.64
161.433
159.28
157.204
155.285
153.547
152.033
2.76758
1.20898
0.923885
0.853156
0.850994
0.885085
0.944572
1.02573
1.12765
1.25065
1.39549
1.56301
1.75381
1.96819
2.20612
2.46724
2.75104
3.05687
3.38407
3.73199
4.10001
4.48768
4.89491
5.32197
5.76957
6.23881
6.73106
7.2479
7.79095
8.36176
8.96165
9.59165
10.2529
10.9469
11.6757
12.4414
13.2442
14.0847
14.9637
15.882
16.8397
17.8385
18.8793
19.9628
21.0898
22.2612
23.4783
24.7427
26.0541
27.4134
28.8215
30.2796
31.7885
33.3494
34.9633
36.6313
38.3544
40.1336
41.9701
43.865
45.8188
47.8323
49.9062
52.0414
54.2384
56.4979
58.8204
61.2063
63.6559
66.1694
68.7469
71.3884
74.0936
76.8621
79.6935
82.587
85.5418
88.5568
91.6306
94.7619
97.9489
101.19
104.482
107.824
111.212
114.644
118.117
121.628
125.172
128.747
132.348
135.971
139.613
143.269
146.934
150.606
154.279
157.949
161.612
165.263
168.895
172.502
176.078
179.613
183.104
186.543
189.924
193.241
196.49
199.662
202.754
205.759
208.672
211.487
214.199
216.803
219.295
221.67
223.923
226.05
228.049
229.914
231.644
233.235
234.685
235.992
237.154
238.169
239.037
239.757
240.328
240.751
241.017
241.123
241.096
240.923
240.605
240.147
239.547
238.81
237.937
236.933
235.8
234.543
233.165
231.671
230.066
228.352
226.536
224.622
222.615
220.519
218.34
216.083
213.752
211.352
208.89
206.37
203.798
201.178
198.517
195.821
193.095
190.347
187.589
184.841
182.135
179.483
176.869
174.28
171.713
169.167
166.649
164.167
161.734
159.371
157.112
155.026
153.133
151.436
3.34084
1.47539
1.13794
1.05395
1.05007
1.08855
1.15615
1.24793
1.36225
1.49885
1.65791
1.83965
2.04409
2.27094
2.51958
2.78921
3.07892
3.38786
3.71532
4.06084
4.42427
4.80578
5.20597
5.62575
6.06637
6.52928
7.01608
7.52839
8.06782
8.63587
9.23395
9.86337
10.5255
11.2216
11.9532
12.7214
13.5272
14.3712
15.2545
16.1779
17.1422
18.1485
19.1979
20.2912
21.4296
22.6139
23.8454
25.1251
26.4539
27.8329
29.2632
30.7461
32.2829
33.8747
35.523
37.2289
38.9939
40.8191
42.7056
44.6547
46.6677
48.746
50.8909
53.1033
55.3844
57.7351
60.1563
62.6487
65.213
67.8497
70.5592
73.3417
76.1973
79.1258
82.1269
85.2
88.3444
91.5591
94.8427
98.1939
101.611
105.092
108.634
112.235
115.892
119.602
123.361
127.166
131.013
134.898
138.816
142.763
146.734
150.725
154.729
158.742
162.758
166.773
170.778
174.77
178.739
182.68
186.584
190.445
194.255
198.008
201.696
205.314
208.854
212.309
215.673
218.94
222.103
225.157
228.095
230.911
233.602
236.16
238.582
240.864
243
244.987
246.823
248.503
250.025
251.387
252.587
253.623
254.496
255.203
255.746
256.122
256.318
256.357
256.237
255.956
255.517
254.922
254.172
253.271
252.223
251.031
249.699
248.233
246.635
244.913
243.07
241.111
239.043
236.871
234.599
232.234
229.781
227.247
224.636
221.954
219.208
216.403
213.545
210.64
207.694
204.714
201.706
198.678
195.64
192.608
189.6
186.628
183.688
180.775
177.89
175.034
172.216
169.444
166.735
164.112
161.608
159.285
157.147
155.137
3.79602
1.71875
1.34421
1.25076
1.24602
1.28815
1.36193
1.46134
1.58399
1.72898
1.89597
2.08467
2.29466
2.52531
2.7758
3.04524
3.33277
3.63772
3.95968
4.29861
4.65479
5.02887
5.42184
5.83493
6.26956
6.72729
7.20969
7.71837
8.25484
8.82058
9.41699
10.0454
10.7072
11.4036
12.1359
12.9052
13.7127
14.5593
15.4463
16.3746
17.3453
18.3597
19.4188
20.5238
21.676
22.8766
24.1268
25.4279
26.7814
28.1885
29.6508
31.1699
32.7472
34.3845
36.0833
37.8452
39.672
41.5653
43.5268
45.5581
47.661
49.8371
52.088
54.4154
56.8206
59.3051
61.8701
64.5167
67.2461
70.0591
72.9563
75.9384
79.0056
82.1579
85.3953
88.7174
92.1234
95.6124
99.1831
102.834
106.563
110.368
114.247
118.196
122.213
126.294
130.434
134.63
138.878
143.172
147.507
151.878
156.279
160.704
165.148
169.603
174.063
178.521
182.97
187.401
191.807
196.18
200.511
204.793
209.017
213.176
217.262
221.267
225.182
229.002
232.717
236.321
239.806
243.166
246.394
249.483
252.428
255.224
257.863
260.342
262.656
264.801
266.773
268.569
270.186
271.621
272.873
273.941
274.823
275.519
276.03
276.347
276.471
276.422
276.191
275.781
275.194
274.432
273.499
272.399
271.135
269.713
268.137
266.413
264.546
262.543
260.408
258.148
255.769
253.278
250.68
247.983
245.193
242.316
239.359
236.328
233.231
230.073
226.861
223.603
220.304
216.972
213.614
210.238
206.853
203.472
200.108
196.772
193.466
190.191
186.949
183.745
180.589
177.49
174.467
171.543
168.75
166.139
163.699
161.329
4.1638
1.94152
1.53822
1.436
1.42942
1.4731
1.55022
1.65374
1.78053
1.92912
2.09869
2.28863
2.49828
2.72691
2.97372
3.23797
3.51904
3.81658
4.13051
4.46112
4.80901
5.17508
5.56049
5.96654
6.39468
6.84642
7.32331
7.82688
8.35862
8.91998
9.51237
10.1372
10.7957
11.4891
12.2189
12.9864
13.7929
14.6397
15.5281
16.4594
17.435
18.4562
19.5244
20.641
21.8074
23.0253
24.2963
25.6218
27.0037
28.4437
29.9439
31.5061
33.1324
34.8248
36.5854
38.4161
40.3193
42.297
44.3514
46.4848
48.6992
50.9969
53.3799
55.8504
58.4102
61.0612
63.8052
66.6438
69.5784
72.6102
75.7404
78.9698
82.2988
85.728
89.2571
92.886
96.614
100.44
104.363
108.381
112.492
116.693
120.981
125.354
129.807
134.336
138.937
143.605
148.334
153.119
157.953
162.83
167.744
172.687
177.651
182.63
187.614
192.595
197.566
202.515
207.435
212.317
217.149
221.925
226.634
231.267
235.815
240.269
244.621
248.862
252.982
256.974
260.829
264.54
268.1
271.5
274.735
277.798
280.683
283.384
285.896
288.216
290.338
292.259
293.977
295.489
296.793
297.887
298.772
299.447
299.913
300.154
300.194
300.03
299.663
299.095
298.329
297.369
296.218
294.882
293.364
291.672
289.81
287.784
285.603
283.271
280.796
278.185
275.446
272.585
269.61
266.529
263.348
260.076
256.72
253.287
249.784
246.22
242.602
238.937
235.232
231.496
227.735
223.96
220.177
216.399
212.636
208.9
205.194
201.523
197.893
194.309
190.783
187.326
183.956
180.697
177.578
174.642
171.863
169.111
4.85677
2.21646
1.73682
1.61088
1.5959
1.63651
1.71311
1.817
1.94411
2.09234
2.26049
2.44768
2.65317
2.87625
3.11627
3.37271
3.64523
3.93374
4.23845
4.55983
4.89867
5.25599
5.63297
6.03092
6.45112
6.89496
7.3641
7.86009
8.38441
8.93856
9.52402
10.1423
10.7951
11.4837
12.2092
12.973
13.7765
14.6212
15.5088
16.4407
17.4187
18.4444
19.5198
20.6471
21.8283
23.065
24.3587
25.7113
27.1248
28.6019
30.1452
31.7571
33.4401
35.1967
37.0296
38.9414
40.9347
43.0124
45.1771
47.4316
49.7787
52.2211
54.7616
57.4026
60.1467
62.9963
65.9537
69.0209
72.1998
75.4921
78.8992
82.4222
86.062
89.819
93.6932
97.6846
101.792
106.015
110.352
114.8
119.358
124.022
128.789
133.654
138.614
143.663
148.797
154.008
159.291
164.639
170.045
175.5
180.998
186.528
192.083
197.653
203.229
208.8
214.356
219.887
225.382
230.831
236.222
241.546
246.791
251.948
257.006
261.954
266.783
271.482
276.043
280.454
284.709
288.797
292.71
296.441
299.981
303.324
306.464
309.394
312.108
314.603
316.873
318.915
320.726
322.303
323.645
324.75
325.619
326.253
326.644
326.795
326.717
326.409
325.874
325.115
324.136
322.941
321.535
319.923
318.112
316.108
313.917
311.548
309.007
306.303
303.444
300.437
297.292
294.016
290.618
287.106
283.49
279.777
275.976
272.095
268.143
264.129
260.059
255.944
251.791
247.608
243.404
239.187
234.967
230.753
226.558
222.389
218.255
214.161
210.115
206.126
202.203
198.362
194.618
190.997
187.523
184.232
181.086
177.94
5.83596
2.5356
1.93556
1.77104
1.74077
1.77349
1.84577
1.94668
2.07096
2.21586
2.37977
2.56164
2.76068
2.97626
3.20788
3.45522
3.71817
3.99686
4.29164
4.60302
4.93179
5.27924
5.64669
6.03564
6.44785
6.88449
7.34651
7.83529
8.35229
8.899
9.47693
10.0876
10.7325
11.4129
12.1308
12.8876
13.6853
14.5258
15.411
16.3429
17.3233
18.3544
19.4381
20.5765
21.7717
23.0263
24.3428
25.7247
27.1743
28.6942
30.2876
31.9577
33.7075
35.5401
37.4587
39.4665
41.5669
43.7633
46.0591
48.4578
50.9626
53.5771
56.3044
59.1479
62.1107
65.1956
68.4055
71.7429
75.2101
78.8092
82.542
86.4097
90.4134
94.5536
98.8304
103.244
107.792
112.475
117.29
122.234
127.305
132.499
137.812
143.239
148.774
154.412
160.147
165.97
171.875
177.853
183.895
189.993
196.137
202.317
208.521
214.74
220.962
227.175
233.368
239.529
245.645
251.703
257.693
263.602
269.418
275.129
280.724
286.191
291.518
296.694
301.71
306.553
311.215
315.685
319.955
324.015
327.857
331.475
334.86
338.007
340.909
343.562
345.961
348.102
349.982
351.599
352.951
354.038
354.86
355.418
355.704
355.73
355.496
355.005
354.263
353.274
352.041
350.57
348.867
346.938
344.79
342.431
339.869
337.113
334.17
331.051
327.764
324.319
320.725
316.993
313.13
309.148
305.055
300.862
296.577
292.21
287.771
283.269
278.713
274.112
269.475
264.811
260.13
255.44
250.752
246.074
241.417
236.791
232.205
227.667
223.184
218.768
214.429
210.181
206.044
202.038
198.186
194.518
190.987
187.442
6.809
2.83985
2.11448
1.90749
1.85884
1.88072
1.94596
2.04134
2.16046
2.29992
2.45776
2.63275
2.82405
3.03112
3.25358
3.49117
3.74391
4.01234
4.29723
4.59972
4.92057
5.26027
5.61982
6.00038
6.403
6.82883
7.2794
7.75645
8.2616
8.79643
9.36258
9.9617
10.5955
11.2659
11.9748
12.7244
13.5167
14.3537
15.2377
16.1708
17.1556
18.1944
19.2899
20.4446
21.6615
22.9436
24.2938
25.7151
27.209
28.781
30.4361
32.1779
34.0101
35.9364
37.9605
40.0864
42.3182
44.66
47.1159
49.69
52.3867
55.2098
58.1633
61.2511
64.477
67.8443
71.3564
75.0162
78.8265
82.7896
86.9073
91.1812
95.6122
100.201
104.947
109.85
114.909
120.122
125.485
130.997
136.653
142.449
148.379
154.438
160.618
166.914
173.316
179.816
186.405
193.074
199.812
206.609
213.452
220.33
227.232
234.143
241.052
247.945
254.809
261.629
268.392
275.085
281.693
288.203
294.602
300.876
307.013
312.999
318.822
324.471
329.932
335.195
340.25
345.084
349.689
354.056
358.175
362.038
365.638
368.969
372.025
374.799
377.289
379.489
381.397
383.012
384.331
385.355
386.084
386.519
386.659
386.51
386.072
385.352
384.355
383.088
381.555
379.761
377.714
375.421
372.891
370.133
367.156
363.969
360.583
357.006
353.251
349.328
345.247
341.019
336.655
332.166
327.563
322.855
318.054
313.169
308.212
303.193
298.12
293.006
287.858
282.688
277.505
272.318
267.137
261.973
256.835
251.734
246.68
241.681
236.746
231.888
227.117
222.45
217.902
213.495
209.249
205.189
201.263
197.319
7.72527
3.11285
2.26573
2.0162
1.94801
1.95747
2.01389
2.102
2.21436
2.34699
2.49761
2.66479
2.84758
3.0457
3.25914
3.48828
3.73327
3.99396
4.27064
4.56368
4.87353
5.2016
5.54913
5.91734
6.30751
6.72124
7.16022
7.62585
8.11972
8.64355
9.19912
9.78835
10.4132
11.0759
11.7786
12.5237
13.3135
14.1507
15.0378
15.9776
16.9731
18.0271
19.1427
20.3233
21.5729
22.8942
24.2901
25.7621
27.3177
28.9623
30.7001
32.5366
34.4774
36.5261
38.6874
40.9658
43.3663
45.8939
48.5534
51.3498
54.2879
57.3726
60.6083
63.9995
67.5505
71.2651
75.147
79.1996
83.4255
87.8272
92.4066
97.1651
102.103
107.221
112.518
117.994
123.645
129.469
135.463
141.622
147.942
154.416
161.039
167.802
174.697
181.716
188.849
196.086
203.416
210.828
218.309
225.847
233.429
241.041
248.669
256.299
263.915
271.504
279.049
286.535
293.948
301.271
308.49
315.59
322.555
329.373
336.027
342.506
348.794
354.879
360.749
366.391
371.794
376.946
381.838
386.46
390.802
394.857
398.616
402.074
405.224
408.06
410.58
412.779
414.654
416.205
417.43
418.329
418.904
419.158
419.093
418.71
418.008
417
415.694
414.094
412.205
410.036
407.594
404.889
401.929
398.725
395.287
391.627
387.754
383.681
379.42
374.981
370.378
365.622
360.724
355.698
350.554
345.305
339.961
334.534
329.036
323.477
317.868
312.22
306.544
300.85
295.148
289.448
283.761
278.097
272.466
266.88
261.347
255.878
250.484
245.175
239.965
234.869
229.903
225.086
220.437
215.977
211.651
207.313
8.56053
3.34878
2.38727
2.09694
2.00874
2.0053
2.05181
2.13151
2.23598
2.36086
2.50383
2.66371
2.83985
3.03125
3.23742
3.458
3.69273
3.94244
4.20775
4.48939
4.78851
5.10607
5.44312
5.80088
6.18073
6.5842
7.01293
7.46863
7.95308
8.46821
9.01607
9.59888
10.219
10.8789
11.5812
12.3287
13.1242
13.9706
14.8713
15.8298
16.85
17.9347
19.0873
20.3112
21.6081
22.9835
24.444
25.9968
27.6467
29.399
31.2589
33.2327
35.3267
37.5461
39.8963
42.383
45.012
47.7891
50.7201
53.8106
57.0661
60.4919
64.0931
67.8745
71.8406
75.9955
80.3428
84.8858
89.6271
94.5687
99.712
105.058
110.606
116.355
122.305
128.452
134.794
141.325
148.042
154.938
162.007
169.241
176.631
184.17
191.846
199.649
207.567
215.589
223.701
231.891
240.145
248.447
256.783
265.137
273.495
281.838
290.152
298.42
306.625
314.749
322.777
330.693
338.479
346.119
353.598
360.901
368.012
374.917
381.601
388.051
394.255
400.198
405.87
411.259
416.355
421.148
425.628
429.788
433.62
437.118
440.275
443.088
445.553
447.665
449.424
450.828
451.878
452.573
452.917
452.913
452.574
451.875
450.841
449.48
447.798
445.802
443.499
440.896
438.004
434.833
431.394
427.697
423.754
419.577
415.179
410.572
405.769
400.783
395.627
390.314
384.858
379.27
373.565
367.754
361.85
355.864
349.81
343.698
337.541
331.35
325.136
318.909
312.682
306.463
300.265
294.098
287.971
281.897
275.885
269.946
264.092
258.333
252.683
247.157
241.771
236.543
231.489
226.628
221.905
217.185
9.30332
3.54612
2.47978
2.1515
2.04315
2.02723
2.06333
2.13443
2.23192
2.35061
2.4874
2.64034
2.80795
2.99009
3.18659
3.39746
3.62323
3.86413
4.12072
4.39374
4.68416
4.99305
5.32163
5.67125
6.04344
6.43987
6.86239
7.31293
7.79356
8.3065
8.85416
9.43916
10.0643
10.733
11.4484
12.2136
13.0317
13.9063
14.8409
15.8381
16.9003
18.0341
19.2451
20.5388
21.9219
23.3997
24.9784
26.6647
28.4648
30.3853
32.433
34.6153
36.9385
39.4095
42.0351
44.822
47.7771
50.9068
54.2177
57.7158
61.407
65.2967
69.3901
73.6917
78.2059
82.9363
87.886
93.0573
98.452
104.071
109.915
115.982
122.272
128.781
135.507
142.445
149.59
156.936
164.476
172.201
180.104
188.175
196.402
204.775
213.282
221.909
230.645
239.474
248.381
257.353
266.372
275.423
284.49
293.554
302.6
311.609
320.564
329.447
338.24
346.925
355.486
363.903
372.162
380.243
388.132
395.813
403.269
410.486
417.449
424.145
430.561
436.684
442.502
448.004
453.179
458.019
462.515
466.657
470.441
473.859
476.907
479.581
481.876
483.792
485.326
486.478
487.25
487.642
487.658
487.32
486.593
485.502
484.056
482.264
480.134
477.672
474.887
471.79
468.39
464.699
460.729
456.492
452
447.268
442.308
437.134
431.76
426.201
420.469
414.579
408.546
402.383
396.103
389.72
383.247
376.697
370.082
363.416
356.709
349.975
343.225
336.469
329.72
322.989
316.285
309.621
303.006
296.453
289.97
283.57
277.264
271.064
264.983
259.036
253.237
247.605
242.152
236.899
231.789
226.702
9.9482
3.70454
2.54472
2.1824
2.05546
2.02796
2.05574
2.11965
2.20937
2.31987
2.44843
2.59335
2.7538
2.92907
3.11887
3.32325
3.5425
3.77711
4.02775
4.2953
4.58077
4.8854
5.21056
5.55784
5.92903
6.32619
6.75185
7.20828
7.69776
8.22297
8.78682
9.39235
10.0425
10.7399
11.4866
12.2886
13.1508
14.078
15.0754
16.1487
17.3042
18.5472
19.8838
21.3211
22.8666
24.5275
26.311
28.2248
30.2765
32.474
34.8252
37.3383
40.0215
42.8831
45.9315
49.1739
52.6176
56.2698
60.137
64.2249
68.5388
73.0834
77.8628
82.8804
88.1389
93.6405
99.3865
105.377
111.613
118.091
124.81
131.767
138.958
146.377
154.019
161.876
169.941
178.206
186.66
195.294
204.095
213.053
222.154
231.385
240.731
250.18
259.714
269.319
278.979
288.676
298.394
308.115
317.822
327.496
337.121
346.677
356.145
365.509
374.748
383.847
392.785
401.547
410.114
418.47
426.598
434.483
442.109
449.462
456.528
463.293
469.744
475.87
481.659
487.1
492.184
496.902
501.246
505.209
508.784
511.967
514.753
517.139
519.123
520.703
521.878
522.65
523.022
522.991
522.59
521.771
520.57
518.991
517.042
514.735
512.077
509.075
505.74
502.083
498.117
493.853
489.304
484.484
479.406
474.084
468.533
462.767
456.801
450.65
444.328
437.851
431.234
424.491
417.635
410.682
403.644
396.536
389.369
382.158
374.915
367.651
360.379
353.11
345.857
338.63
331.44
324.298
317.215
310.201
303.269
296.428
289.69
283.068
276.574
270.223
264.029
258.009
252.173
246.544
241.064
235.634
10.5167
3.82892
2.58657
2.19483
2.05208
2.01498
2.03298
2.08819
2.17074
2.27522
2.39848
2.5387
2.69482
2.86624
3.05275
3.25444
3.47174
3.70535
3.9564
4.22602
4.51533
4.82584
5.1593
5.51765
5.90294
6.3172
6.76192
7.23978
7.75499
8.3114
8.91295
9.56385
10.2687
11.0327
11.8617
12.7607
13.7357
14.7933
15.9404
17.1846
18.534
19.9963
21.5795
23.2925
25.144
27.143
29.2987
31.62
34.1159
36.7954
39.667
42.7379
46.0168
49.515
53.2441
57.2091
61.4167
65.8738
70.5854
75.5553
80.7857
86.2784
92.0341
98.053
104.334
110.877
117.678
124.735
132.043
139.597
147.392
155.421
163.675
172.148
180.828
189.708
198.775
208.018
217.426
226.985
236.683
246.504
256.436
266.463
276.57
286.741
296.96
307.211
317.476
327.74
337.984
348.19
358.342
368.421
378.41
388.289
398.042
407.65
417.095
426.36
435.428
444.281
452.904
461.279
469.392
477.228
484.771
492.009
498.928
505.515
511.759
517.65
523.175
528.326
533.095
537.472
541.452
545.028
548.195
550.949
553.287
555.207
556.706
557.788
558.443
558.688
558.521
557.952
556.959
555.566
553.779
551.608
549.061
546.149
542.881
539.264
535.311
531.035
526.447
521.562
516.393
510.954
505.259
499.323
493.162
486.79
480.222
473.475
466.563
459.503
452.308
444.995
437.578
430.071
422.487
414.842
407.148
399.417
391.664
383.9
376.136
368.386
360.66
352.97
345.326
337.74
330.221
322.782
315.432
308.183
301.046
294.032
287.156
280.43
273.869
267.487
261.295
255.314
249.491
243.75
11.0654
3.93398
2.61203
2.19336
2.03695
1.99008
2.00145
2.05195
2.13112
2.23338
2.35565
2.4964
2.65436
2.82901
3.02034
3.22865
3.45453
3.69868
3.96161
4.24446
4.54978
4.87993
5.23742
5.62505
6.04594
6.50366
7.0026
7.54712
8.14167
8.79158
9.50272
10.2815
11.135
12.0709
13.0974
14.2226
15.4553
16.8051
18.2817
19.8955
21.6573
23.5777
25.6677
27.9379
30.3989
33.0614
35.9357
39.0321
42.3597
45.9272
49.7425
53.813
58.145
62.743
67.6097
72.7517
78.175
83.8921
89.9005
96.1973
102.777
109.632
116.759
124.15
131.798
139.696
147.837
156.213
164.813
173.629
182.65
191.867
201.268
210.841
220.575
230.458
240.477
250.619
260.87
271.218
281.647
292.144
302.695
313.285
323.898
334.52
345.136
355.729
366.284
376.785
387.216
397.561
407.802
417.924
427.911
437.744
447.408
456.887
466.164
475.223
484.048
492.625
500.938
508.973
516.715
524.151
531.267
538.053
544.495
550.583
556.307
561.657
566.623
571.196
575.372
579.142
582.5
585.441
587.964
590.06
591.735
592.982
593.8
594.202
594.156
593.738
592.859
591.575
589.883
587.791
585.306
582.438
579.197
575.595
571.639
567.339
562.709
557.761
552.509
546.966
541.148
535.067
528.741
522.182
515.407
508.431
501.27
493.939
486.455
478.832
471.086
463.233
455.286
447.26
439.169
431.027
422.848
414.643
406.425
398.207
390.001
381.817
373.668
365.565
357.517
349.536
341.631
333.815
326.095
318.485
310.994
303.634
296.418
289.359
282.47
275.765
269.253
262.958
256.825
250.814
11.6139
4.01998
2.62349
2.18348
2.01729
1.96738
1.97886
2.03201
2.11598
2.22494
2.35546
2.50499
2.6734
2.86087
3.06795
3.2956
3.54521
3.81864
4.11849
4.44764
4.8091
5.20664
5.64456
6.12782
6.66215
7.25407
7.91089
8.64033
9.45075
10.3515
11.3529
12.4664
13.7038
15.0778
16.6017
18.2892
20.1543
22.2113
24.4742
26.9568
29.6725
32.6347
35.856
39.3466
43.1155
47.1713
51.5223
56.1758
61.1349
66.4014
71.9776
77.8679
84.0681
90.5707
97.3664
104.447
111.806
119.428
127.317
135.487
143.906
152.556
161.423
170.491
179.748
189.182
198.779
208.529
218.419
228.438
238.574
248.815
259.151
269.569
280.058
290.608
301.206
311.842
322.503
333.179
343.858
354.529
365.178
375.795
386.367
396.882
407.328