/*--------------------------------*- C++ -*----------------------------------*\
| =========                 |                                                 |
| \\      /  F ield         | OpenFOAM: The Open Source CFD Toolbox           |
|  \\    /   O peration     | Version:  v2012                                 |
|   \\  /    A nd           | Website:  www.openfoam.com                      |
|    \\/     M anipulation  |                                                 |
\*---------------------------------------------------------------------------*/
FoamFile
{
    version     2.0;
    format      ascii;
    class       volScalarField;
    location    "300";
    object      k;
}
// * * * * * * * * * * * * * * * * * * * * * * * * * * * * * * * * * * * * * //

dimensions      [0 2 -2 0 0 0 0];


internalField   nonuniform List<scalar> 
12225
(
0.580288
1.01383
1.31598
1.48985
1.57421
1.60333
1.60025
1.58728
1.56462
1.53889
1.51395
1.49033
1.46936
1.44979
1.4337
1.41764
1.4069
1.39192
0.442181
0.502559
0.527839
0.540393
0.547595
0.551489
0.553406
0.555482
0.558571
0.562496
0.568153
0.574588
0.582688
0.591101
0.600751
0.610363
0.620226
0.631332
0.387492
0.419264
0.42632
0.423525
0.416694
0.406294
0.394562
0.383313
0.371971
0.362281
0.352765
0.345485
0.338158
0.333369
0.328063
0.32547
0.321831
0.320896
0.375846
0.384398
0.388021
0.387391
0.385553
0.381462
0.37608
0.370124
0.363719
0.357312
0.350869
0.344692
0.338691
0.333028
0.327719
0.322692
0.318134
0.313739
0.37401
0.3749
0.375831
0.375403
0.374368
0.372279
0.369559
0.366316
0.362838
0.359065
0.35531
0.351354
0.347639
0.343727
0.340218
0.336468
0.333284
0.329757
0.373731
0.372267
0.371498
0.370518
0.369353
0.367808
0.366005
0.363888
0.361665
0.359216
0.356796
0.354198
0.351736
0.349112
0.346714
0.344143
0.341877
0.339409
0.373791
0.371642
0.369947
0.36841
0.366965
0.365454
0.363909
0.362238
0.36054
0.358732
0.356943
0.355062
0.353251
0.35136
0.34958
0.347723
0.346015
0.344221
0.373824
0.37156
0.369556
0.367732
0.366064
0.364454
0.362905
0.361338
0.359798
0.358222
0.356682
0.355104
0.353578
0.352024
0.350538
0.349026
0.347603
0.346144
0.373832
0.371558
0.36945
0.367489
0.36568
0.363971
0.362363
0.360803
0.359302
0.357819
0.356386
0.35496
0.353582
0.352209
0.35089
0.349574
0.34832
0.347062
0.373831
0.371562
0.369424
0.367407
0.365519
0.363738
0.362065
0.360471
0.358957
0.357498
0.356103
0.354747
0.353445
0.352175
0.350955
0.349761
0.348617
0.347493
0.373829
0.371561
0.369416
0.367384
0.365464
0.363647
0.361931
0.360304
0.358762
0.357293
0.355895
0.354556
0.353279
0.35205
0.350875
0.349741
0.348655
0.347606
0.373828
0.371558
0.36941
0.367373
0.365444
0.363613
0.361879
0.360233
0.358671
0.357186
0.355775
0.354431
0.353151
0.35193
0.350764
0.349649
0.348583
0.347563
0.373827
0.371556
0.369404
0.367365
0.365431
0.363596
0.361855
0.3602
0.358629
0.357135
0.355714
0.354362
0.353074
0.351848
0.350679
0.349564
0.348499
0.347484
0.373826
0.371554
0.3694
0.367358
0.365421
0.363583
0.361838
0.36018
0.358604
0.357105
0.355679
0.354322
0.353029
0.351797
0.350623
0.349504
0.348436
0.347417
0.373826
0.371552
0.369397
0.367353
0.365414
0.363574
0.361826
0.360165
0.358586
0.357084
0.355655
0.354294
0.352998
0.351763
0.350585
0.349462
0.348391
0.347369
0.373825
0.371551
0.369395
0.367349
0.365409
0.363566
0.361816
0.360153
0.358572
0.357068
0.355636
0.354273
0.352974
0.351737
0.350557
0.349432
0.348358
0.347334
0.373825
0.371551
0.369393
0.367347
0.365405
0.363561
0.36181
0.360145
0.358563
0.357057
0.355623
0.354259
0.352958
0.351719
0.350537
0.34941
0.348335
0.347309
0.373825
0.37155
0.369393
0.367346
0.365404
0.363559
0.361807
0.360142
0.358558
0.357051
0.355617
0.354251
0.35295
0.35171
0.350527
0.349399
0.348323
0.347296
0.373825
0.371551
0.369393
0.367347
0.365404
0.36356
0.361808
0.360142
0.358558
0.357051
0.355617
0.354251
0.352949
0.351709
0.350526
0.349398
0.348322
0.347295
0.373825
0.371551
0.369394
0.367348
0.365406
0.363562
0.361811
0.360146
0.358562
0.357056
0.355622
0.354256
0.352955
0.351715
0.350533
0.349405
0.348329
0.347303
0.373826
0.371552
0.369396
0.367351
0.365409
0.363567
0.361816
0.360152
0.35857
0.357065
0.355633
0.354269
0.35297
0.351732
0.350552
0.349427
0.348353
0.347328
0.373826
0.371553
0.369398
0.367354
0.365415
0.363575
0.361828
0.360169
0.358593
0.357095
0.35567
0.354314
0.353021
0.351789
0.350613
0.34949
0.348418
0.347392
0.373826
0.371554
0.3694
0.367362
0.365432
0.363608
0.361882
0.360247
0.358695
0.35722
0.355813
0.354471
0.353186
0.351957
0.350776
0.349645
0.348556
0.34751
0.373827
0.371552
0.369412
0.36742
0.365552
0.363806
0.362155
0.360591
0.359091
0.35765
0.356254
0.354904
0.35359
0.352316
0.351074
0.349868
0.348693
0.347554
0.373817
0.371557
0.369579
0.367832
0.366203
0.364681
0.363181
0.361704
0.360211
0.358724
0.357223
0.35573
0.354238
0.352765
0.351296
0.34986
0.348437
0.347055
0.373752
0.371904
0.370798
0.369755
0.368638
0.367447
0.365995
0.364405
0.36263
0.360789
0.35884
0.35688
0.354865
0.352869
0.350859
0.348896
0.346931
0.345032
0.373955
0.374792
0.376338
0.376384
0.375898
0.374613
0.372423
0.369951
0.367103
0.364195
0.36108
0.358005
0.354819
0.351728
0.348594
0.345564
0.342544
0.339651
0.377029
0.39087
0.398672
0.398152
0.396367
0.392634
0.387945
0.383145
0.377878
0.372746
0.367378
0.362233
0.357063
0.352122
0.347359
0.34277
0.338551
0.334382
0.401068
0.430057
0.440456
0.444207
0.447069
0.450283
0.453163
0.455993
0.458391
0.460661
0.462689
0.464547
0.466507
0.468146
0.470299
0.471904
0.47455
0.476118
0.464822
0.644117
0.800194
0.916058
1.0169
1.10105
1.16842
1.22028
1.25835
1.285
1.30215
1.31209
1.3161
1.31536
1.31243
1.30727
1.30012
1.29188
0.00216676
0.00361945
0.00523338
0.00676487
0.0081124
0.00927144
0.0102667
0.0111264
0.0118759
0.0125506
0.0132284
0.0139079
0.0146068
0.015343
0.0161269
0.0169606
0.0178404
0.0187638
0.0197397
0.020811
0.0220854
0.0236819
0.025557
0.0276574
0.0299778
0.0325366
0.0353588
0.0384691
0.0418859
0.0456171
0.0496532
0.0539637
0.0585353
0.0633405
0.068357
0.0735635
0.0789434
0.08448
0.0901604
0.095975
0.101918
0.107987
0.114186
0.120525
0.127023
0.133709
0.140628
0.147847
0.155302
0.162861
0.170589
0.17846
0.18649
0.194675
0.203018
0.211523
0.220189
0.229019
0.238013
0.247173
0.256497
0.265986
0.275639
0.285455
0.295432
0.305567
0.315858
0.326302
0.336895
0.347632
0.358508
0.369519
0.380657
0.391917
0.40329
0.414772
0.426351
0.438022
0.449773
0.461598
0.473483
0.485421
0.4974
0.509409
0.521437
0.533471
0.545499
0.557509
0.569487
0.58142
0.593293
0.605091
0.616797
0.628395
0.639864
0.651185
0.662334
0.673286
0.684019
0.694514
0.704771
0.714831
0.724726
0.734357
0.743765
0.752924
0.76183
0.77047
0.778833
0.786908
0.794685
0.802152
0.809302
0.816123
0.822608
0.828748
0.834535
0.839961
0.845021
0.849708
0.854015
0.85794
0.861477
0.864623
0.867375
0.869732
0.871692
0.873254
0.874419
0.875187
0.875552
0.875506
0.875206
0.874395
0.873199
0.871527
0.869566
0.867312
0.864633
0.861607
0.858229
0.854511
0.850461
0.846091
0.841413
0.836439
0.831174
0.825629
0.819815
0.813742
0.807422
0.800865
0.794084
0.78709
0.779896
0.772511
0.764951
0.757225
0.749348
0.741331
0.733189
0.724935
0.716586
0.708166
0.699721
0.691478
0.685408
0.681708
0.678234
0.674748
0.671227
0.667665
0.664055
0.660382
0.656609
0.652659
0.648371
0.643286
0.636464
0.611834
0.0053586
0.00832984
0.0118593
0.0147383
0.017169
0.0193168
0.0212895
0.023164
0.0249995
0.026842
0.0287342
0.0307492
0.0329349
0.035317
0.0379028
0.0406879
0.043663
0.0468218
0.0501664
0.0537091
0.0574657
0.0614514
0.0656807
0.0701667
0.0749248
0.0799768
0.0853477
0.0910628
0.0971432
0.103602
0.11044
0.117639
0.125195
0.133104
0.141359
0.149949
0.158858
0.168081
0.177613
0.18745
0.197587
0.208025
0.21876
0.229793
0.241123
0.25275
0.264674
0.276892
0.289393
0.302174
0.315246
0.328612
0.342276
0.356243
0.370519
0.385106
0.400009
0.415233
0.430781
0.446655
0.462859
0.479395
0.496263
0.513465
0.531
0.548869
0.567069
0.585599
0.604455
0.623633
0.643129
0.662936
0.683048
0.703458
0.724155
0.745132
0.766378
0.78788
0.809626
0.831604
0.853798
0.876193
0.898774
0.921522
0.944419
0.967447
0.990585
1.01381
1.03711
1.06045
1.08382
1.10718
1.13051
1.15378
1.17697
1.20004
1.22295
1.24568
1.26816
1.29036
1.31221
1.33363
1.35461
1.3753
1.39567
1.41569
1.43535
1.45462
1.47348
1.4919
1.50987
1.52735
1.54433
1.56079
1.57671
1.59206
1.60683
1.621
1.63455
1.64747
1.65974
1.67135
1.68228
1.69253
1.70208
1.71092
1.71905
1.72646
1.73314
1.73909
1.74432
1.74883
1.75262
1.75567
1.75797
1.75933
1.76001
1.7602
1.75959
1.75827
1.75625
1.75355
1.75017
1.74613
1.74144
1.73613
1.7302
1.72367
1.71657
1.70891
1.7007
1.69196
1.68273
1.673
1.66281
1.65218
1.64113
1.62967
1.61784
1.60565
1.59314
1.58031
1.56721
1.55385
1.54028
1.52659
1.51319
1.50011
1.48696
1.47369
1.46033
1.44687
1.43334
1.41973
1.40602
1.39217
1.37799
1.36341
1.34688
1.31219
0.00905931
0.0136247
0.0184171
0.0221721
0.0253517
0.0282222
0.0309393
0.0336099
0.0363167
0.0391292
0.0421075
0.0453015
0.048747
0.0524635
0.0564563
0.0607204
0.0652464
0.0700251
0.0750512
0.0803266
0.0858611
0.0916686
0.0977608
0.104151
0.110856
0.117897
0.125297
0.133074
0.141246
0.149824
0.158821
0.168256
0.178135
0.18846
0.199232
0.21044
0.222071
0.234122
0.246586
0.259456
0.272725
0.286386
0.300434
0.314862
0.329666
0.34484
0.360381
0.376286
0.392551
0.409178
0.426172
0.443537
0.461275
0.479393
0.497892
0.516778
0.536054
0.555723
0.575788
0.596252
0.617117
0.638383
0.660051
0.682121
0.704591
0.727461
0.750727
0.774385
0.79843
0.822858
0.847661
0.872831
0.89836
0.924239
0.950455
0.976996
1.00385
1.031
1.05844
1.08614
1.11409
1.14227
1.17066
1.19924
1.22798
1.25687
1.28588
1.31498
1.34415
1.37335
1.40257
1.43177
1.46092
1.48999
1.51894
1.54774
1.57636
1.60476
1.63291
1.66078
1.68832
1.71552
1.74237
1.76884
1.79491
1.82054
1.8457
1.87036
1.8945
1.91808
1.94106
1.96343
1.98515
2.0062
2.02655
2.04618
2.06505
2.08315
2.10045
2.11694
2.13259
2.14739
2.16132
2.17436
2.1865
2.19773
2.20804
2.21742
2.22587
2.23338
2.23995
2.24559
2.25028
2.25403
2.25682
2.25851
2.25925
2.25928
2.25832
2.25645
2.25368
2.25003
2.2455
2.24013
2.23393
2.22692
2.21912
2.21055
2.20124
2.1912
2.18047
2.16906
2.157
2.14433
2.13105
2.11721
2.10282
2.08792
2.07254
2.0567
2.04044
2.02379
2.00677
1.98944
1.97184
1.95405
1.9363
1.91863
1.90086
1.88297
1.86498
1.8469
1.82875
1.81057
1.79237
1.77416
1.75587
1.73753
1.71769
1.68694
0.012311
0.0192188
0.0252323
0.0297958
0.0336465
0.037146
0.0404946
0.0438247
0.0472354
0.0508058
0.054599
0.0586622
0.063026
0.067705
0.0727002
0.0780033
0.0836022
0.0894856
0.0956467
0.102085
0.108805
0.115819
0.12314
0.130791
0.138798
0.147187
0.155989
0.165229
0.174932
0.185116
0.195798
0.206986
0.218683
0.230883
0.24358
0.256764
0.270434
0.284582
0.299199
0.314275
0.329803
0.345773
0.362179
0.379014
0.396274
0.413954
0.43205
0.450563
0.46949
0.488836
0.508603
0.528797
0.549421
0.57048
0.591978
0.61392
0.636311
0.659153
0.68245
0.706205
0.730421
0.755098
0.780238
0.80584
0.831904
0.858428
0.885409
0.912843
0.940726
0.969051
0.997811
1.027
1.0566
1.08661
1.11702
1.1478
1.17895
1.21046
1.24229
1.27443
1.30687
1.33958
1.37254
1.40573
1.43911
1.47267
1.50636
1.54018
1.57407
1.60802
1.64199
1.67594
1.70985
1.74367
1.77737
1.81091
1.84426
1.87738
1.91024
1.9428
1.97502
2.00688
2.03833
2.06934
2.09988
2.1299
2.15937
2.18825
2.2165
2.24409
2.27097
2.29713
2.32252
2.34711
2.37087
2.39376
2.41577
2.43685
2.457
2.47617
2.49435
2.51152
2.52765
2.54274
2.55676
2.56969
2.58154
2.59229
2.60193
2.61046
2.61787
2.62417
2.62937
2.63343
2.63636
2.63803
2.63864
2.63828
2.63681
2.63425
2.63064
2.62598
2.6203
2.61362
2.60597
2.59737
2.58783
2.5774
2.5661
2.55394
2.54097
2.52722
2.5127
2.49746
2.48152
2.46492
2.44768
2.42986
2.41147
2.39255
2.37314
2.35328
2.33301
2.31237
2.29142
2.27024
2.24898
2.22767
2.20625
2.18471
2.16307
2.14136
2.11963
2.09792
2.07629
2.0548
2.0335
2.01248
1.99051
1.96178
0.0148997
0.0248168
0.0320991
0.0375056
0.0420446
0.046162
0.0501011
0.0540188
0.0580287
0.0622177
0.0666517
0.0713771
0.0764223
0.0817993
0.087507
0.0935364
0.0998757
0.106515
0.11345
0.120683
0.128225
0.136093
0.144312
0.152908
0.161912
0.171357
0.18127
0.191678
0.202601
0.214054
0.226048
0.238587
0.25167
0.265293
0.279451
0.294139
0.30935
0.325076
0.341307
0.358037
0.375258
0.392961
0.411142
0.429795
0.448917
0.468506
0.48856
0.50908
0.53007
0.551531
0.573469
0.595888
0.618794
0.642192
0.666087
0.690484
0.715389
0.740806
0.76674
0.793194
0.820172
0.847676
0.875707
0.904267
0.933356
0.962971
0.993111
1.02377
1.05495
1.08664
1.11884
1.15153
1.1847
1.21835
1.25246
1.28701
1.322
1.3574
1.39319
1.42935
1.46586
1.50269
1.53982
1.57723
1.61487
1.65273
1.69077
1.72895
1.76725
1.80561
1.84402
1.88243
1.92079
1.95908
1.99725
2.03525
2.07306
2.11062
2.14789
2.18484
2.22142
2.25758
2.29329
2.32849
2.36315
2.39721
2.43064
2.4634
2.49543
2.5267
2.55716
2.58679
2.61552
2.64334
2.67021
2.69608
2.72092
2.74471
2.76742
2.789
2.80945
2.82873
2.84683
2.86371
2.87938
2.8938
2.90697
2.91887
2.92951
2.93887
2.94695
2.95375
2.95929
2.96353
2.96647
2.968
2.96837
2.96754
2.96546
2.96215
2.95763
2.95193
2.94507
2.93707
2.92796
2.91778
2.90654
2.89428
2.88103
2.86682
2.85169
2.83568
2.8188
2.80111
2.78264
2.76342
2.7435
2.72291
2.70169
2.67988
2.65753
2.63468
2.61137
2.58766
2.5636
2.53927
2.51477
2.49017
2.46543
2.44058
2.41563
2.39065
2.3657
2.34083
2.31615
2.29178
2.26781
2.24439
2.22048
2.19203
0.0168945
0.0301211
0.0387566
0.0450417
0.0502783
0.0549991
0.0594888
0.063927
0.0684407
0.0731241
0.0780468
0.0832575
0.0887857
0.0946449
0.100837
0.107357
0.114198
0.121357
0.128834
0.13664
0.144792
0.153312
0.162227
0.171568
0.181366
0.191648
0.202441
0.213765
0.225637
0.238069
0.251065
0.264631
0.278764
0.293462
0.308721
0.324536
0.340901
0.357811
0.375259
0.393239
0.411746
0.430777
0.450327
0.470395
0.490979
0.51208
0.533699
0.555837
0.5785
0.601691
0.625416
0.64968
0.67449
0.699853
0.725774
0.752261
0.779319
0.806956
0.835176
0.863985
0.893388
0.923387
0.953987
0.985188
1.01699
1.0494
1.08241
1.11602
1.15022
1.18501
1.22039
1.25634
1.29285
1.32992
1.36752
1.40565
1.44428
1.48339
1.52297
1.56298
1.60342
1.64423
1.68541
1.72691
1.76871
1.81076
1.85304
1.8955
1.93811
1.98082
2.0236
2.06639
2.10915
2.15185
2.19442
2.23683
2.27902
2.32096
2.36258
2.40383
2.44468
2.48505
2.52491
2.56421
2.60288
2.64089
2.67819
2.71471
2.75042
2.78527
2.81921
2.85219
2.88418
2.91512
2.94498
2.97372
3.00129
3.02768
3.05283
3.07672
3.09932
3.12061
3.14055
3.15913
3.17632
3.19212
3.2065
3.21946
3.23098
3.24107
3.24972
3.25693
3.2627
3.26704
3.2699
3.27121
3.27125
3.26988
3.26712
3.26299
3.25751
3.25071
3.24261
3.23324
3.22264
3.21084
3.19787
3.18376
3.16855
3.15229
3.135
3.11673
3.09752
3.0774
3.05643
3.03463
3.01206
2.98876
2.96477
2.94014
2.91492
2.88915
2.86289
2.83619
2.80911
2.78174
2.75414
2.72639
2.69849
2.67048
2.6424
2.61432
2.58631
2.55846
2.53091
2.5038
2.47729
2.45153
2.42561
2.39631
0.0183978
0.0350384
0.0449867
0.0521343
0.0580485
0.0633402
0.0683316
0.0732226
0.0781522
0.0832226
0.088509
0.0940645
0.0999236
0.106106
0.112619
0.119466
0.126649
0.13417
0.142039
0.150271
0.158885
0.167907
0.177364
0.187284
0.197695
0.208621
0.220082
0.232097
0.244678
0.257834
0.271571
0.285891
0.300795
0.316282
0.332349
0.348995
0.366216
0.384009
0.402371
0.4213
0.440793
0.46085
0.481471
0.502656
0.524406
0.546724
0.569613
0.593079
0.617125
0.641759
0.666987
0.692816
0.719255
0.746312
0.773994
0.80231
0.831268
0.860877
0.891142
0.922073
0.953673
0.98595
1.01891
1.05255
1.08688
1.1219
1.1576
1.19399
1.23107
1.26882
1.30724
1.34633
1.38607
1.42644
1.46745
1.50906
1.55125
1.59402
1.63732
1.68115
1.72546
1.77022
1.81542
1.861
1.90693
1.95317
1.99969
2.04643
2.09336
2.14042
2.18757
2.23476
2.28193
2.32904
2.37603
2.42285
2.46943
2.51573
2.56169
2.60725
2.65234
2.69692
2.74092
2.78428
2.82696
2.86889
2.91001
2.95028
2.98963
3.02802
3.06539
3.10169
3.13687
3.17088
3.20368
3.23523
3.26547
3.29438
3.32192
3.34805
3.37273
3.39594
3.41766
3.43785
3.45651
3.4736
3.48911
3.50304
3.51537
3.5261
3.53523
3.54277
3.5487
3.55305
3.55574
3.5568
3.55639
3.55443
3.55092
3.54591
3.5394
3.53144
3.52205
3.51126
3.49912
3.48566
3.47091
3.45492
3.43773
3.41938
3.39992
3.37938
3.35781
3.33527
3.31179
3.28742
3.26222
3.23622
3.20949
3.18206
3.15401
3.12537
3.0962
3.06657
3.03653
3.00616
2.97554
2.94473
2.91377
2.8827
2.85159
2.82051
2.78955
2.75882
2.72848
2.69872
2.6697
2.64157
2.6135
2.58265
0.0195666
0.0394343
0.050599
0.0585525
0.0650936
0.0709037
0.076338
0.0816146
0.0868834
0.0922544
0.0978092
0.103608
0.109691
0.116086
0.122811
0.129876
0.137292
0.145068
0.153219
0.161762
0.17072
0.180116
0.189975
0.200323
0.211182
0.222574
0.234515
0.24702
0.2601
0.273764
0.288018
0.302864
0.318307
0.334347
0.350985
0.368221
0.386057
0.404492
0.423527
0.443163
0.463401
0.484244
0.505695
0.527757
0.550434
0.573732
0.597657
0.622215
0.647415
0.673264
0.699771
0.726947
0.7548
0.783341
0.81258
0.842529
0.873196
0.904593
0.936728
0.969611
1.00325
1.03765
1.07283
1.10877
1.1455
1.18301
1.2213
1.26038
1.30024
1.34087
1.38227
1.42443
1.46734
1.51099
1.55535
1.60042
1.64616
1.69256
1.73959
1.78722
1.83541
1.88413
1.93336
1.98303
2.03312
2.08358
2.13435
2.1854
2.23667
2.28811
2.33966
2.39127
2.44288
2.49442
2.54584
2.59708
2.64807
2.69874
2.74904
2.79889
2.84823
2.89699
2.94512
2.99253
3.03918
3.085
3.12992
3.17389
3.21685
3.25873
3.29948
3.33904
3.37736
3.41438
3.45006
3.48435
3.51719
3.54856
3.5784
3.60669
3.63338
3.65844
3.68184
3.70357
3.72359
3.74189
3.75845
3.77326
3.78631
3.7976
3.80713
3.8149
3.82091
3.82519
3.82764
3.82838
3.82745
3.82482
3.8205
3.81453
3.80694
3.79776
3.78702
3.77477
3.76104
3.74588
3.72932
3.71142
3.69222
3.67176
3.6501
3.62729
3.60337
3.57839
3.55241
3.52549
3.49766
3.469
3.43954
3.40936
3.3785
3.34703
3.315
3.28248
3.24953
3.21623
3.18265
3.14886
3.11492
3.08088
3.04682
3.01283
2.979
2.94548
2.91243
2.88004
2.84852
2.81798
2.78765
2.75516
0.0216629
0.0434185
0.0555498
0.064172
0.0712409
0.0774897
0.0832961
0.088891
0.0944324
0.100037
0.105791
0.111762
0.117998
0.124535
0.131398
0.138607
0.146178
0.154127
0.162472
0.171232
0.180428
0.190082
0.200216
0.210852
0.222011
0.233708
0.245961
0.258782
0.272181
0.286168
0.300749
0.315931
0.331718
0.348116
0.365128
0.382759
0.401011
0.41989
0.439399
0.459543
0.480328
0.501758
0.523841
0.546582
0.56999
0.594074
0.618842
0.644303
0.670469
0.69735
0.724958
0.753304
0.782403
0.812265
0.842905
0.874335
0.906569
0.939618
0.973495
1.00821
1.04378
1.0802
1.1175
1.15566
1.19471
1.23465
1.27547
1.31718
1.35977
1.40325
1.4476
1.49281
1.53888
1.58578
1.63351
1.68203
1.73133
1.78138
1.83215
1.8836
1.93569
1.9884
2.04167
2.09547
2.14974
2.20443
2.25949
2.31487
2.3705
2.42633
2.48229
2.53832
2.59436
2.65033
2.70618
2.76182
2.81718
2.8722
2.9268
2.98091
3.03445
3.08735
3.13954
3.19094
3.2415
3.29114
3.33978
3.38737
3.43384
3.47913
3.52316
3.56589
3.60724
3.64717
3.68562
3.72254
3.75787
3.79158
3.82362
3.85394
3.88252
3.90931
3.9343
3.95744
3.97871
3.99811
4.0156
4.03119
4.04485
4.0566
4.06642
4.07433
4.08033
4.08444
4.08659
4.08691
4.08539
4.08201
4.07681
4.06983
4.06109
4.05064
4.03851
4.02475
4.0094
3.99251
3.97412
3.95429
3.93306
3.91049
3.88664
3.86155
3.83529
3.8079
3.77945
3.75
3.71959
3.68829
3.65617
3.62327
3.58967
3.55542
3.52059
3.48525
3.44946
3.41331
3.37686
3.34018
3.30336
3.26645
3.22953
3.19272
3.15612
3.11988
3.08418
3.04923
3.0152
2.98224
2.94958
2.91532
0.0244876
0.0469098
0.0597514
0.0688907
0.0763754
0.0829742
0.0890784
0.0949269
0.100683
0.106467
0.11237
0.118466
0.124807
0.131437
0.138388
0.145687
0.153353
0.161409
0.169872
0.178763
0.188102
0.197908
0.208202
0.219002
0.230327
0.242191
0.254611
0.267598
0.281164
0.295318
0.31007
0.325429
0.341402
0.357997
0.375221
0.393082
0.411588
0.430747
0.450566
0.471054
0.492221
0.514076
0.536629
0.55989
0.583872
0.608585
0.634042
0.660257
0.687242
0.715013
0.743583
0.772969
0.803187
0.834252
0.86618
0.898987
0.93269
0.967303
1.00284
1.03932
1.07675
1.11514
1.1545
1.19485
1.23619
1.27852
1.32185
1.36618
1.41151
1.45783
1.50514
1.55342
1.60266
1.65285
1.70396
1.75596
1.80884
1.86257
1.9171
1.97239
2.02842
2.08513
2.14247
2.2004
2.25885
2.31778
2.37712
2.43681
2.49679
2.55698
2.61732
2.67773
2.73815
2.79849
2.85869
2.91865
2.97831
3.03758
3.09639
3.15464
3.21226
3.26918
3.32531
3.38057
3.43489
3.4882
3.54042
3.59148
3.6413
3.68982
3.73698
3.78269
3.82691
3.86958
3.91062
3.94999
3.98764
4.02352
4.05758
4.08978
4.12007
4.14844
4.17483
4.19923
4.22161
4.24195
4.26023
4.27645
4.29059
4.30266
4.31266
4.32058
4.32646
4.33029
4.33206
4.33186
4.32966
4.32546
4.31932
4.31126
4.30133
4.28956
4.27601
4.26071
4.24372
4.22508
4.20486
4.1831
4.15986
4.1352
4.10918
4.08185
4.05329
4.02354
3.99267
3.96074
3.92782
3.89396
3.85924
3.82371
3.78745
3.75052
3.71299
3.67493
3.63641
3.5975
3.55829
3.51885
3.47926
3.4396
3.39995
3.36044
3.32117
3.28232
3.24406
3.20659
3.17011
3.13473
3.09973
3.06352
0.0271438
0.0497299
0.0630998
0.072633
0.0804348
0.0873013
0.0936333
0.0996756
0.105595
0.111513
0.117526
0.123709
0.130121
0.136808
0.143809
0.151152
0.158865
0.166968
0.175483
0.18443
0.193827
0.203694
0.214049
0.224909
0.23629
0.248207
0.260674
0.273704
0.28731
0.301503
0.316296
0.3317
0.347726
0.364385
0.381689
0.399648
0.418275
0.437582
0.457581
0.478286
0.499708
0.521863
0.544762
0.568422
0.592857
0.618084
0.644119
0.67098
0.698685
0.727249
0.756693
0.787036
0.818297
0.850497
0.883654
0.917788
0.952917
0.98906
1.02623
1.06445
1.10373
1.14409
1.18553
1.22808
1.27172
1.31648
1.36235
1.40934
1.45744
1.50665
1.55696
1.60835
1.66081
1.71432
1.76886
1.82439
1.88089
1.93832
1.99663
2.0558
2.11576
2.17647
2.23787
2.29991
2.36253
2.42565
2.48922
2.55316
2.6174
2.68186
2.74648
2.81116
2.87583
2.9404
3.00479
3.06892
3.1327
3.19604
3.25885
3.32104
3.38254
3.44325
3.50309
3.56197
3.61982
3.67655
3.73209
3.78636
3.83928
3.89078
3.94079
3.98924
4.03606
4.08119
4.12457
4.16615
4.20586
4.24365
4.27949
4.31332
4.3451
4.3748
4.40239
4.42783
4.4511
4.47219
4.49107
4.50774
4.52219
4.53442
4.54444
4.55224
4.55786
4.5613
4.56258
4.56177
4.5588
4.5537
4.54654
4.53735
4.52618
4.51307
4.49806
4.48122
4.46258
4.44221
4.42017
4.39651
4.3713
4.3446
4.31647
4.28697
4.25618
4.22415
4.19095
4.15665
4.12131
4.08501
4.04781
4.00978
3.97099
3.93151
3.89141
3.85077
3.80965
3.76814
3.72632
3.68427
3.64207
3.5998
3.55758
3.51551
3.47373
3.43239
3.39168
3.3518
3.31293
3.27518
3.23789
3.1997
0.0295324
0.0518632
0.0655881
0.0753995
0.0834256
0.0904816
0.0969748
0.103154
0.109187
0.115199
0.121286
0.127525
0.133977
0.140691
0.147707
0.155059
0.162775
0.170878
0.179391
0.188333
0.197721
0.207573
0.217906
0.228736
0.240078
0.251948
0.264359
0.277328
0.290869
0.304997
0.319726
0.335071
0.351047
0.367668
0.384951
0.402911
0.421564
0.440928
0.461018
0.481853
0.503449
0.525824
0.548996
0.572983
0.597804
0.623482
0.650038
0.677495
0.705872
0.735194
0.765484
0.796765
0.829061
0.862396
0.896793
0.932274
0.968859
1.00657
1.04543
1.08544
1.12664
1.16903
1.21263
1.25745
1.30349
1.35076
1.39926
1.449
1.49997
1.55216
1.60555
1.66013
1.71589
1.77279
1.83081
1.88992
1.95007
2.01123
2.07334
2.13637
2.20025
2.26492
2.33033
2.39641
2.46309
2.5303
2.59796
2.66601
2.73435
2.8029
2.87158
2.94031
3.00899
3.07754
3.14587
3.21387
3.28147
3.34856
3.41506
3.48087
3.54589
3.61005
3.67324
3.73538
3.79639
3.85617
3.91465
3.97175
4.02739
4.08149
4.13398
4.18479
4.23385
4.28108
4.32644
4.36986
4.41129
4.45066
4.48794
4.52308
4.55604
4.58678
4.61527
4.64148
4.66539
4.68697
4.70621
4.72311
4.73766
4.74985
4.75971
4.76723
4.77243
4.77535
4.776
4.7745
4.77066
4.76458
4.75634
4.74597
4.73353
4.71905
4.70259
4.68421
4.66395
4.64189
4.61808
4.59258
4.56547
4.53681
4.50666
4.4751
4.44219
4.40801
4.37262
4.33609
4.29849
4.2599
4.22038
4.18001
4.13887
4.09702
4.05453
4.01149
3.96797
3.92406
3.87982
3.83535
3.79074
3.74608
3.70147
3.65703
3.6129
3.56924
3.52623
3.48408
3.44294
3.40294
3.36345
3.32335
0.0316295
0.0533484
0.0672659
0.0772462
0.0854075
0.0925769
0.099166
0.105426
0.111526
0.11759
0.123716
0.129979
0.136443
0.143158
0.150164
0.157497
0.165183
0.173246
0.181708
0.190588
0.199905
0.209674
0.219914
0.230641
0.241869
0.253614
0.265891
0.27872
0.292118
0.306103
0.320695
0.33591
0.351769
0.36829
0.385494
0.403401
0.422032
0.441409
0.461554
0.482489
0.504237
0.52682
0.550259
0.574573
0.599782
0.625916
0.653007
0.68108
0.710165
0.74029
0.771484
0.803774
0.837189
0.871756
0.907501
0.944449
0.982621
1.02204
1.06273
1.1047
1.14797
1.19257
1.23849
1.28575
1.33435
1.38431
1.43561
1.48826
1.54224
1.59754
1.65415
1.71205
1.7712
1.83157
1.89314
1.95586
2.01969
2.08457
2.15045
2.21728
2.28499
2.35352
2.4228
2.49276
2.56332
2.63439
2.70591
2.77778
2.84992
2.92225
2.99466
3.06707
3.13938
3.21149
3.28332
3.35477
3.42573
3.4961
3.56581
3.63473
3.70278
3.76987
3.8359
3.90078
3.96442
4.02673
4.08764
4.14705
4.20488
4.26107
4.31553
4.3682
4.41899
4.46785
4.51471
4.55952
4.6022
4.64273
4.68103
4.71707
4.75082
4.78222
4.81125
4.83789
4.86211
4.88388
4.90321
4.92007
4.93446
4.94639
4.95587
4.96292
4.96755
4.96979
4.9697
4.96738
4.96256
4.95544
4.94606
4.93449
4.92076
4.90491
4.88702
4.86713
4.84531
4.82162
4.79612
4.76889
4.73999
4.70949
4.67747
4.644
4.60914
4.57297
4.53557
4.497
4.45735
4.41668
4.37506
4.33258
4.28931
4.24532
4.20069
4.15549
4.10981
4.06373
4.01732
3.97069
3.92391
3.87709
3.83033
3.78375
3.7375
3.69173
3.64663
3.60238
3.55915
3.51705
3.47551
3.43365
0.0334386
0.0542489
0.068211
0.0782587
0.0864702
0.0936786
0.100299
0.106583
0.112701
0.118779
0.124912
0.131175
0.137629
0.144321
0.151291
0.158572
0.166191
0.174174
0.182541
0.191312
0.200506
0.210141
0.220236
0.23081
0.241884
0.253485
0.265618
0.278301
0.291553
0.305395
0.319849
0.334937
0.350681
0.367107
0.384238
0.402099
0.420714
0.440114
0.460328
0.481384
0.503309
0.526129
0.549871
0.574567
0.600242
0.626933
0.654679
0.683509
0.713456
0.744554
0.776837
0.810341
0.845096
0.881134
0.91848
0.957161
0.997199
1.03861
1.08142
1.12565
1.1713
1.21839
1.26692
1.31691
1.36836
1.42126
1.47561
1.5314
1.58861
1.64722
1.70721
1.76854
1.83119
1.89511
1.96026
2.02659
2.09405
2.16257
2.23211
2.30259
2.37394
2.44609
2.51897
2.59249
2.66657
2.74113
2.81608
2.89133
2.96679
3.04236
3.11796
3.19348
3.26882
3.3439
3.4186
3.49283
3.56649
3.63948
3.7117
3.78304
3.85342
3.92274
3.9909
4.05781
4.12338
4.18752
4.25015
4.31119
4.37055
4.42815
4.48393
4.53781
4.58972
4.63959
4.68736
4.73297
4.77636
4.81749
4.8563
4.89276
4.92681
4.95843
4.98758
5.01424
5.03839
5.06
5.07907
5.09559
5.10955
5.12096
5.12984
5.1362
5.14006
5.14147
5.14057
5.13727
5.13139
5.12316
5.11262
5.09982
5.08481
5.06763
5.04835
5.02703
5.00374
4.97852
4.95147
4.92264
4.89212
4.85996
4.82626
4.79107
4.75448
4.71656
4.67739
4.63704
4.59558
4.5531
4.50966
4.46535
4.42024
4.3744
4.32792
4.28087
4.23333
4.18539
4.13712
4.08862
4.03997
3.99129
3.94267
3.89424
3.84614
3.79853
3.75158
3.70547
3.66035
3.61637
3.573
3.52959
0.0349723
0.0546265
0.068495
0.0785193
0.0867051
0.0938847
0.100477
0.106736
0.112831
0.118884
0.12499
0.131222
0.13764
0.144293
0.151216
0.158439
0.16599
0.173892
0.182166
0.190833
0.199911
0.20942
0.219378
0.229804
0.240714
0.252122
0.264051
0.276531
0.289589
0.303249
0.317541
0.332493
0.348134
0.364497
0.381614
0.399516
0.418236
0.437805
0.458255
0.479625
0.501951
0.525259
0.549575
0.57492
0.601341
0.628887
0.657596
0.68751
0.718666
0.751104
0.784864
0.819992
0.856524
0.894486
0.933908
0.97481
1.01721
1.06112
1.10655
1.15351
1.20202
1.25207
1.30367
1.35681
1.4115
1.46771
1.52543
1.58465
1.64533
1.70745
1.77096
1.83584
1.90202
1.96948
2.03814
2.10796
2.17886
2.2508
2.32369
2.39746
2.47205
2.54736
2.62332
2.69985
2.77686
2.85425
2.93195
3.00985
3.08787
3.16591
3.24388
3.32167
3.39918
3.47633
3.55301
3.62911
3.70455
3.77921
3.85301
3.92584
3.99761
4.06823
4.13759
4.20561
4.2722
4.33727
4.40075
4.46254
4.52257
4.58077
4.63705
4.69135
4.74361
4.79375
4.84171
4.88744
4.93088
4.97198
5.01069
5.04697
5.08079
5.1121
5.14089
5.16711
5.19076
5.21182
5.23027
5.24612
5.25934
5.26996
5.278
5.28346
5.28638
5.28681
5.28501
5.28057
5.27359
5.26422
5.25251
5.2385
5.22225
5.2038
5.18323
5.1606
5.13596
5.10939
5.08095
5.05073
5.0188
4.98522
4.95008
4.91345
4.87541
4.83603
4.7954
4.75357
4.71065
4.66669
4.62177
4.57598
4.52938
4.48206
4.43409
4.38555
4.33652
4.28708
4.23731
4.18731
4.13716
4.08697
4.03684
3.98689
3.93727
3.88813
3.83963
3.79195
3.74524
3.69964
3.65468
3.61
0.0362967
0.0546312
0.0683575
0.0783064
0.0864179
0.0935259
0.100052
0.106249
0.112286
0.118287
0.124342
0.130523
0.136882
0.143464
0.150303
0.15743
0.164867
0.172638
0.180767
0.189274
0.198183
0.207514
0.217288
0.22753
0.238263
0.249515
0.261318
0.273697
0.286684
0.300308
0.314603
0.329604
0.345349
0.361876
0.379237
0.397463
0.41659
0.436655
0.457693
0.479728
0.502768
0.526894
0.552166
0.578646
0.606385
0.635414
0.665771
0.697496
0.730627
0.765201
0.801252
0.838805
0.877897
0.918577
0.960885
1.00483
1.0504
1.0976
1.14642
1.19686
1.24891
1.30258
1.35783
1.41467
1.47306
1.53299
1.59441
1.65731
1.72163
1.78734
1.85438
1.92271
1.99227
2.06301
2.13485
2.20774
2.2816
2.35637
2.43198
2.50834
2.58538
2.66302
2.74117
2.81976
2.89869
2.97789
3.05725
3.1367
3.21614
3.29548
3.37462
3.45347
3.53194
3.60993
3.68734
3.76408
3.84005
3.91516
3.98931
4.06241
4.13437
4.20509
4.27448
4.34247
4.40895
4.47385
4.53708
4.59858
4.65826
4.71605
4.77188
4.82568
4.87739
4.92694
4.97427
5.01932
5.06205
5.1024
5.14033
5.1758
5.20877
5.23921
5.26709
5.29239
5.31509
5.33518
5.35263
5.36746
5.37964
5.3892
5.39616
5.40052
5.40232
5.40176
5.39887
5.39322
5.38512
5.37462
5.36177
5.34662
5.32922
5.30964
5.28792
5.26414
5.23837
5.21066
5.18109
5.14974
5.11669
5.08199
5.04574
5.008
4.96887
4.9284
4.88668
4.84378
4.79978
4.75475
4.70877
4.66192
4.61427
4.56589
4.51687
4.46728
4.4172
4.3667
4.31587
4.2648
4.21357
4.16229
4.11106
4.06
4.00925
3.95895
3.90927
3.86037
3.81239
3.7655
3.71926
3.67363
0.0375535
0.0544784
0.067915
0.0776793
0.0856224
0.0925732
0.0989555
0.105023
0.110945
0.116841
0.122798
0.128881
0.135142
0.141621
0.14835
0.155361
0.162683
0.170342
0.17836
0.186761
0.195569
0.204812
0.214518
0.224715
0.235433
0.246706
0.25857
0.271066
0.284247
0.298143
0.312791
0.328235
0.344518