/*--------------------------------*- C++ -*----------------------------------*\
| =========                 |                                                 |
| \\      /  F ield         | OpenFOAM: The Open Source CFD Toolbox           |
|  \\    /   O peration     | Version:  v2012                                 |
|   \\  /    A nd           | Website:  www.openfoam.com                      |
|    \\/     M anipulation  |                                                 |
\*---------------------------------------------------------------------------*/
FoamFile
{
    version     2.0;
    format      ascii;
    class       surfaceScalarField;
    location    "300";
    object      phi;
}
// * * * * * * * * * * * * * * * * * * * * * * * * * * * * * * * * * * * * * //

dimensions      [0 3 -1 0 0 0 0];
oriented        oriented;


internalField   nonuniform List<scalar> 
24170
(
3.05907e-06
7.48199e-08
2.95467e-06
1.04405e-07
2.85725e-06
9.74114e-08
2.76453e-06
9.27288e-08
2.67732e-06
8.72012e-08
2.599e-06
7.83197e-08
2.53066e-06
6.83442e-08
2.47155e-06
5.91072e-08
2.4205e-06
5.10571e-08
2.37635e-06
4.41415e-08
2.33814e-06
3.82184e-08
2.305e-06
3.31371e-08
2.27626e-06
2.87389e-08
2.25136e-06
2.48942e-08
2.23002e-06
2.13469e-08
2.21176e-06
1.82555e-08
2.1963e-06
1.54586e-08
1.13645e-08
2.18494e-06
3.51041e-06
2.08513e-08
3.52828e-06
8.65325e-08
3.5346e-06
9.10963e-08
3.53272e-06
9.46111e-08
3.52364e-06
9.62718e-08
3.50883e-06
9.31372e-08
3.48963e-06
8.75396e-08
3.46733e-06
8.14052e-08
3.44307e-06
7.53155e-08
3.41778e-06
6.94311e-08
3.39218e-06
6.38231e-08
3.36677e-06
5.85415e-08
3.34195e-06
5.35647e-08
3.31797e-06
4.88695e-08
3.29504e-06
4.42755e-08
3.27339e-06
3.99112e-08
3.25391e-06
3.49382e-08
2.80758e-08
3.2372e-06
3.81757e-06
1.54741e-08
3.83013e-06
7.39741e-08
3.8403e-06
8.0921e-08
3.851e-06
8.39168e-08
3.86076e-06
8.65058e-08
3.86838e-06
8.55191e-08
3.87373e-06
8.21923e-08
3.87703e-06
7.8107e-08
3.87854e-06
7.38066e-08
3.87854e-06
6.94296e-08
3.8773e-06
6.5059e-08
3.87508e-06
6.07656e-08
3.87208e-06
5.65608e-08
3.86853e-06
5.2424e-08
3.86456e-06
4.82388e-08
3.86056e-06
4.39179e-08
3.85656e-06
3.89311e-08
3.26986e-08
3.85194e-06
4.20345e-06
1.65808e-08
4.21507e-06
6.2354e-08
4.22329e-06
7.26992e-08
4.23089e-06
7.63178e-08
4.23811e-06
7.9289e-08
4.24433e-06
7.92932e-08
4.24966e-06
7.68667e-08
4.25432e-06
7.34485e-08
4.25842e-06
6.9705e-08
4.26203e-06
6.58225e-08
4.2652e-06
6.18883e-08
4.26799e-06
5.79695e-08
4.27047e-06
5.40804e-08
4.2727e-06
5.01936e-08
4.27473e-06
4.62096e-08
4.27664e-06
4.20066e-08
4.27825e-06
3.73265e-08
3.18946e-08
4.27905e-06
4.63768e-06
1.62125e-08
4.64712e-06
5.2911e-08
4.65389e-06
6.59232e-08
4.65984e-06
7.03736e-08
4.66578e-06
7.33455e-08
4.67129e-06
7.37884e-08
4.67625e-06
7.19013e-08
4.68079e-06
6.89115e-08
4.68497e-06
6.55199e-08
4.68885e-06
6.19425e-08
4.69247e-06
5.82683e-08
4.69588e-06
5.45624e-08
4.69912e-06
5.08447e-08
4.70222e-06
4.70916e-08
4.7052e-06
4.32278e-08
4.70805e-06
3.91605e-08
4.71061e-06
3.47598e-08
2.99232e-08
4.71258e-06
5.11602e-06
1.47836e-08
5.12361e-06
4.53282e-08
5.13002e-06
5.95139e-08
5.13574e-06
6.46506e-08
5.14152e-06
6.75651e-08
5.147e-06
6.83037e-08
5.152e-06
6.69042e-08
5.15657e-06
6.43378e-08
5.16081e-06
6.12822e-08
5.16477e-06
5.7981e-08
5.16851e-06
5.45341e-08
5.17206e-06
5.10101e-08
5.17546e-06
4.74392e-08
5.17875e-06
4.38096e-08
5.1819e-06
4.00749e-08
5.18488e-06
3.61775e-08
5.18758e-06
3.20639e-08
2.77279e-08
5.18977e-06
5.64261e-06
1.31811e-08
5.64907e-06
3.8869e-08
5.65559e-06
5.29916e-08
5.6615e-06
5.87422e-08
5.66735e-06
6.1718e-08
5.67294e-06
6.27111e-08
5.67809e-06
6.17554e-08
5.68283e-06
5.95963e-08
5.68725e-06
5.68671e-08
5.69139e-06
5.38351e-08
5.69531e-06
5.06146e-08
5.69904e-06
4.7279e-08
5.70261e-06
4.38698e-08
5.70603e-06
4.03903e-08
5.70928e-06
3.68217e-08
5.71232e-06
3.3139e-08
5.71505e-06
2.93397e-08
2.54659e-08
5.71731e-06
4.40729e-06
1.20057e-08
4.41138e-06
3.47719e-08
4.41607e-06
4.83089e-08
4.42045e-06
5.43637e-08
4.42471e-06
5.74516e-08
4.42884e-06
5.85875e-08
4.43269e-06
5.78962e-08
4.43628e-06
5.60149e-08
4.43962e-06
5.35225e-08
4.44277e-06
5.06895e-08
4.44574e-06
4.76403e-08
4.44856e-06
4.44541e-08
4.45125e-06
4.118e-08
4.45381e-06
3.78322e-08
4.45623e-06
3.44091e-08
4.45846e-06
3.09064e-08
4.46045e-06
2.7343e-08
2.37746e-08
4.46215e-06
5.1411e-06
1.07666e-08
5.14519e-06
3.06785e-08
5.15012e-06
4.33785e-08
5.1549e-06
4.95841e-08
5.15961e-06
5.27452e-08
5.1642e-06
5.39966e-08
5.16854e-06
5.35559e-08
5.1726e-06
5.19559e-08
5.1764e-06
4.97145e-08
5.17999e-06
4.71012e-08
5.18339e-06
4.42477e-08
5.1866e-06
4.12388e-08
5.18965e-06
3.81306e-08
5.19253e-06
3.49493e-08
5.19523e-06
3.17088e-08
5.19772e-06
2.84224e-08
5.19994e-06
2.51221e-08
2.18695e-08
5.20184e-06
5.99709e-06
9.46547e-09
6.00113e-06
2.66443e-08
6.00623e-06
3.82762e-08
6.01138e-06
4.44355e-08
6.01652e-06
4.76036e-08
6.02159e-06
4.8928e-08
6.02644e-06
4.87092e-08
6.03101e-06
4.73827e-08
6.03533e-06
4.53989e-08
6.0394e-06
4.30217e-08
6.04326e-06
4.03879e-08
6.04692e-06
3.75859e-08
6.05037e-06
3.46781e-08
6.05362e-06
3.17017e-08
6.05664e-06
2.86834e-08
6.05942e-06
2.56496e-08
6.0619e-06
2.26385e-08
1.97108e-08
6.06406e-06
6.99561e-06
8.12459e-09
6.99954e-06
2.27125e-08
7.00475e-06
3.3064e-08
7.01023e-06
3.89558e-08
7.01578e-06
4.2051e-08
7.02132e-06
4.33953e-08
7.02667e-06
4.33517e-08
7.03178e-06
4.2277e-08
7.03663e-06
4.05495e-08
7.04123e-06
3.84193e-08
7.04559e-06
3.6026e-08
7.04972e-06
3.346e-08
7.05361e-06
3.07877e-08
7.05726e-06
2.8055e-08
7.06064e-06
2.52977e-08
7.06374e-06
2.255e-08
7.06653e-06
1.9851e-08
1.72563e-08
7.06898e-06
8.16036e-06
6.77623e-09
8.16418e-06
1.8897e-08
8.16944e-06
2.78038e-08
8.1752e-06
3.3199e-08
8.18113e-06
3.61169e-08
8.18711e-06
3.74178e-08
8.19297e-06
3.74902e-08
8.19861e-06
3.66329e-08
8.20401e-06
3.51528e-08
8.20915e-06
3.32765e-08
8.21404e-06
3.11417e-08
8.21866e-06
2.8839e-08
8.22301e-06
2.64359e-08
8.22708e-06
2.39834e-08
8.23086e-06
2.15222e-08
8.23432e-06
1.90895e-08
8.23745e-06
1.67214e-08
1.44665e-08
8.24024e-06
9.51906e-06
5.44527e-09
9.52276e-06
1.51971e-08
9.52802e-06
2.25466e-08
9.53399e-06
2.72253e-08
9.54027e-06
2.98339e-08
9.54668e-06
3.10147e-08
9.55303e-06
3.11352e-08
9.55921e-06
3.04494e-08
9.56517e-06
2.91997e-08
9.57086e-06
2.75797e-08
9.57629e-06
2.57187e-08
9.58142e-06
2.3704e-08
9.58626e-06
2.16014e-08
9.59078e-06
1.94621e-08
9.59497e-06
1.73276e-08
9.59883e-06
1.5234e-08
9.60234e-06
1.32125e-08
1.13037e-08
9.6055e-06
1.1104e-05
4.14478e-09
1.11076e-05
1.16004e-08
1.11128e-05
1.73166e-08
1.1119e-05
2.10845e-08
1.11256e-05
2.32334e-08
1.11324e-05
2.42012e-08
1.11392e-05
2.42947e-08
1.1146e-05
2.37253e-08
1.11525e-05
2.26787e-08
1.11587e-05
2.13107e-08
1.11647e-05
1.97342e-08
1.11704e-05
1.80284e-08
1.11758e-05
1.6253e-08
1.11808e-05
1.44554e-08
1.11854e-05
1.26736e-08
1.11897e-05
1.09395e-08
1.11936e-05
9.27835e-09
7.72281e-09
1.11972e-05
1.29529e-05
2.8743e-09
1.29564e-05
8.0772e-09
1.29616e-05
1.21006e-08
1.29679e-05
1.47943e-08
1.29748e-05
1.63287e-08
1.29821e-05
1.69764e-08
1.29894e-05
1.69617e-08
1.29967e-05
1.64468e-08
1.30038e-05
1.55675e-08
1.30107e-05
1.44393e-08
1.30172e-05
1.31515e-08
1.30235e-05
1.17693e-08
1.30294e-05
1.03421e-08
1.3035e-05
8.90896e-09
1.30401e-05
7.50119e-09
1.30449e-05
6.14412e-09
1.30493e-05
4.8562e-09
3.66265e-09
1.30534e-05
1.51097e-05
1.61765e-09
1.51132e-05
4.56874e-09
1.51185e-05
6.83335e-09
1.5125e-05
8.31158e-09
1.51322e-05
9.08323e-09
1.51399e-05
9.29643e-09
1.51478e-05
9.08829e-09
1.51556e-05
8.56426e-09
1.51634e-05
7.81171e-09
1.51709e-05
6.90536e-09
1.51782e-05
5.90492e-09
1.51851e-05
4.85569e-09
1.51916e-05
3.79234e-09
1.51978e-05
2.74213e-09
1.52036e-05
1.72656e-09
1.5209e-05
7.6271e-10
1.5214e-05
-1.3808e-10
-9.57838e-10
1.52186e-05
1.76257e-05
3.40419e-10
1.76293e-05
9.677e-10
1.76348e-05
1.36971e-09
1.76416e-05
1.4903e-09
1.76493e-05
1.35666e-09
1.76576e-05
1.02246e-09
1.76662e-05
5.38443e-10
1.76748e-05
-5.33882e-11
1.76833e-05
-7.15867e-10
1.76916e-05
-1.41685e-09
1.76997e-05
-2.13055e-09
1.77074e-05
-2.837e-09
1.77147e-05
-3.52063e-09
1.77216e-05
-4.1691e-09
1.77281e-05
-4.77292e-09
1.77342e-05
-5.32467e-09
1.77398e-05
-5.82057e-09
-6.24983e-09
1.77451e-05
1.78274e-05
-8.57078e-10
1.78308e-05
-2.42822e-09
1.7836e-05
-3.81608e-09
1.78425e-05
-5.03153e-09
1.78499e-05
-6.07519e-09
1.78579e-05
-6.97199e-09
1.78662e-05
-7.75348e-09
1.78746e-05
-8.43837e-09
1.78829e-05
-9.03628e-09
1.78911e-05
-9.55612e-09
1.78989e-05
-1.00064e-08
1.79065e-05
-1.03934e-08
1.79137e-05
-1.07211e-08
1.79205e-05
-1.09924e-08
1.7927e-05
-1.12098e-08
1.7933e-05
-1.13753e-08
1.79387e-05
-1.14918e-08
-1.1555e-08
1.7944e-05
1.58824e-05
-1.92183e-09
1.58854e-05
-5.44672e-09
1.589e-05
-8.44586e-09
1.58959e-05
-1.08575e-08
1.59025e-05
-1.26953e-08
1.59096e-05
-1.40754e-08
1.5917e-05
-1.51129e-08
1.59244e-05
-1.58745e-08
1.59318e-05
-1.64084e-08
1.5939e-05
-1.6762e-08
1.59459e-05
-1.69759e-08
1.59526e-05
-1.70797e-08
1.5959e-05
-1.70946e-08
1.5965e-05
-1.70367e-08
1.59708e-05
-1.6919e-08
1.59761e-05
-1.6751e-08
1.59812e-05
-1.65413e-08
-1.62902e-08
1.59859e-05
1.41497e-05
-2.91015e-09
1.41525e-05
-8.26387e-09
1.41568e-05
-1.28032e-08
1.41623e-05
-1.63129e-08
1.41684e-05
-1.88252e-08
1.41749e-05
-2.06006e-08
1.41817e-05
-2.18409e-08
1.41884e-05
-2.2644e-08
1.41951e-05
-2.30928e-08
1.42016e-05
-2.32745e-08
1.42079e-05
-2.32594e-08
1.42139e-05
-2.30963e-08
1.42197e-05
-2.28211e-08
1.42251e-05
-2.24622e-08
1.42302e-05
-2.20411e-08
1.4235e-05
-2.15737e-08
1.42396e-05
-2.10726e-08
-2.05414e-08
1.42438e-05
1.26059e-05
-3.82862e-09
1.26087e-05
-1.09802e-08
1.26129e-05
-1.70786e-08
1.26182e-05
-2.15837e-08
1.2624e-05
-2.46358e-08
1.26301e-05
-2.67281e-08
1.26364e-05
-2.8119e-08
1.26427e-05
-2.89139e-08
1.26488e-05
-2.9241e-08
1.26548e-05
-2.92338e-08
1.26605e-05
-2.89867e-08
1.2666e-05
-2.85629e-08
1.26712e-05
-2.80109e-08
1.26761e-05
-2.73695e-08
1.26807e-05
-2.66678e-08
1.26851e-05
-2.59265e-08
1.26892e-05
-2.51615e-08
-2.43795e-08
1.2693e-05
1.12306e-05
-4.614e-09
1.12333e-05
-1.36617e-08
1.12376e-05
-2.14444e-08
1.12428e-05
-2.67666e-08
1.12484e-05
-3.01894e-08
1.12542e-05
-3.2544e-08
1.12601e-05
-3.40438e-08
1.1266e-05
-3.47781e-08
1.12717e-05
-3.49445e-08
1.12772e-05
-3.47271e-08
1.12824e-05
-3.42386e-08
1.12874e-05
-3.3553e-08
1.12921e-05
-3.27306e-08
1.12966e-05
-3.18191e-08
1.13008e-05
-3.08535e-08
1.13047e-05
-2.98577e-08
1.13084e-05
-2.88485e-08
-2.78328e-08
1.13118e-05
1.00051e-05
-5.13196e-09
1.00078e-05
-1.63382e-08
1.00124e-05
-2.60502e-08
1.00176e-05
-3.19107e-08
1.00229e-05
-3.55244e-08
1.00284e-05
-3.80879e-08
1.0034e-05
-3.96366e-08
1.00395e-05
-4.02581e-08
1.00448e-05
-4.02402e-08
1.00499e-05
-3.98054e-08
1.00547e-05
-3.90732e-08
1.00593e-05
-3.81282e-08
1.00636e-05
-3.70425e-08
1.00677e-05
-3.5873e-08
1.00715e-05
-3.46588e-08
1.0075e-05
-3.3427e-08
1.00784e-05
-3.21974e-08
-3.09805e-08
1.00815e-05
8.91321e-06
-5.24329e-09
8.91599e-06
-1.9119e-08
8.92077e-06
-3.08321e-08
8.92577e-06
-3.69081e-08
8.93094e-06
-4.06961e-08
8.9363e-06
-4.34476e-08
8.94161e-06
-4.49474e-08
8.94674e-06
-4.5388e-08
8.95167e-06
-4.51644e-08
8.95637e-06
-4.45106e-08
8.96084e-06
-4.35397e-08
8.96505e-06
-4.23446e-08
8.96902e-06
-4.10086e-08
8.97274e-06
-3.9596e-08
8.97623e-06
-3.81499e-08
8.97951e-06
-3.6699e-08
8.98257e-06
-3.52597e-08
-3.38298e-08
8.98542e-06
7.93989e-06
-4.47041e-09
7.94346e-06
-2.26865e-08
7.94815e-06
-3.5518e-08
7.95266e-06
-4.14151e-08
7.95763e-06
-4.56661e-08
7.9629e-06
-4.87271e-08
7.9681e-06
-5.01471e-08
7.97309e-06
-5.03709e-08
7.97784e-06
-4.99182e-08
7.98235e-06
-4.90245e-08
7.98661e-06
-4.7799e-08
7.99061e-06
-4.6345e-08
7.99436e-06
-4.47553e-08
7.99787e-06
-4.31002e-08
8.00114e-06
-4.14266e-08
8.00421e-06
-3.97659e-08
8.00709e-06
-3.81438e-08
-3.65734e-08
8.00984e-06
7.07055e-06
-6.94006e-10
7.07639e-06
-2.8526e-08
7.08148e-06
-4.06046e-08
7.08586e-06
-4.57975e-08
7.09084e-06
-5.06424e-08
7.09612e-06
-5.40056e-08
7.10131e-06
-5.53373e-08
7.10631e-06
-5.53758e-08
7.11111e-06
-5.47152e-08
7.11566e-06
-5.35762e-08
7.11994e-06
-5.20803e-08
7.12394e-06
-5.03486e-08
7.12768e-06
-4.84874e-08
7.13115e-06
-4.65723e-08
7.13438e-06
-4.46566e-08
7.13739e-06
-4.2773e-08
7.14018e-06
-4.09364e-08
-3.91021e-08
7.14271e-06
6.29311e-06
8.71241e-09
6.30159e-06
-3.70074e-08
6.30863e-06
-4.76461e-08
6.31509e-06
-5.22578e-08
6.32175e-06
-5.73006e-08
6.32805e-06
-6.0307e-08
6.33383e-06
-6.11206e-08
6.33924e-06
-6.07802e-08
6.34434e-06
-5.98163e-08
6.34912e-06
-5.83649e-08
6.35359e-06
-5.65408e-08
6.35771e-06
-5.44769e-08
6.36152e-06
-5.22902e-08
6.36501e-06
-5.00619e-08
6.3682e-06
-4.78532e-08
6.37113e-06
-4.5705e-08
6.37385e-06
-4.3653e-08
-4.17128e-08
6.37646e-06
5.60783e-06
1.57779e-08
5.61537e-06
-4.4548e-08
5.62311e-06
-5.53826e-08
5.63272e-06
-6.18672e-08
5.64339e-06
-6.79713e-08
5.65354e-06
-7.04579e-08
5.6626e-06
-7.01793e-08
5.67057e-06
-6.87489e-08
5.6775e-06
-6.67519e-08
5.68346e-06
-6.4318e-08
5.68848e-06
-6.15634e-08
5.69264e-06
-5.8637e-08
5.696e-06
-5.56521e-08
5.69864e-06
-5.27027e-08
5.70064e-06
-4.98469e-08
5.70208e-06
-4.71487e-08
5.70305e-06
-4.46264e-08
-4.23414e-08
5.70368e-06
5.0423e-06
-2.42173e-08
5.05633e-06
-5.85775e-08
5.0672e-06
-6.62498e-08
5.07698e-06
-7.16465e-08
5.08581e-06
-7.68077e-08
5.09242e-06
-7.70608e-08
5.0959e-06
-7.36625e-08
5.09601e-06
-6.88568e-08
5.09293e-06
-6.368e-08
5.0871e-06
-5.84814e-08
5.07898e-06
-5.34494e-08
5.06906e-06
-4.87101e-08
5.05773e-06
-4.43249e-08
5.04536e-06
-4.03337e-08
5.03226e-06
-3.67421e-08
5.01868e-06
-3.35729e-08
5.00491e-06
-3.08575e-08
-2.90621e-08
4.99163e-06
4.43233e-06
4.37375e-06
4.3075e-06
4.23586e-06
4.15905e-06
4.08199e-06
4.00833e-06
3.93947e-06
3.87579e-06
3.81731e-06
3.76386e-06
3.71515e-06
3.67082e-06
3.63049e-06
3.59375e-06
3.56018e-06
3.52932e-06
3.50026e-06
5.338e-09
-5.33884e-09
1.66519e-08
-1.13154e-08
3.01135e-08
-1.34628e-08
4.33922e-08
-1.32799e-08
5.5103e-08
-1.17118e-08
6.45338e-08
-9.43206e-09
7.14163e-08
-6.88346e-09
7.57415e-08
-4.32647e-09
7.76457e-08
-1.90508e-09
7.735e-08
2.94357e-10
7.51681e-08
2.18108e-09
7.14619e-08
3.70482e-09
6.65469e-08
4.914e-09
6.06437e-08
5.90177e-09
5.38745e-08
6.76817e-09
4.62682e-08
7.60462e-09
3.77854e-08
8.48156e-09
2.83397e-08
9.44372e-09
1.78238e-08
1.05144e-08
6.13698e-09
1.16845e-08
-6.86813e-09
1.30036e-08
-2.14326e-08
1.45622e-08
-3.77387e-08
1.63046e-08
-5.59336e-08
1.81928e-08
-7.61807e-08
2.0246e-08
-9.86372e-08
2.24546e-08
-1.23431e-07
2.47927e-08
-1.50655e-07
2.72224e-08
-1.80352e-07
2.96965e-08
-2.12515e-07
3.21611e-08
-2.47073e-07
3.45573e-08
-2.83898e-07
3.68233e-08
-3.22813e-07
3.89149e-08
-3.63619e-07
4.08038e-08
-4.06089e-07
4.24698e-08
-4.4999e-07
4.38994e-08
-4.95076e-07
4.50853e-08
-5.41108e-07
4.60308e-08
-5.87855e-07
4.6747e-08
-6.35107e-07
4.72502e-08
-6.82669e-07
4.75608e-08
-7.30372e-07
4.77013e-08
-7.78068e-07
4.76955e-08
-8.25637e-07
4.7567e-08
-8.72977e-07
4.73389e-08
-9.20013e-07
4.70344e-08
-9.66696e-07
4.66818e-08
-1.01301e-06
4.6316e-08
-1.05898e-06
4.59662e-08
-1.10462e-06
4.56359e-08
-1.14994e-06
4.53187e-08
-1.19495e-06
4.50138e-08
-1.23967e-06
4.4719e-08
-1.28411e-06
4.44329e-08
-1.32826e-06
4.41538e-08
-1.37214e-06
4.38794e-08
-1.41575e-06
4.36076e-08
-1.45909e-06
4.33358e-08
-1.50215e-06
4.3061e-08
-1.54493e-06
4.27803e-08
-1.58742e-06
4.24906e-08
-1.62961e-06
4.21889e-08
-1.67148e-06
4.18719e-08
-1.71302e-06
4.15366e-08
-1.7542e-06
4.11802e-08
-1.795e-06
4.07996e-08
-1.83539e-06
4.03922e-08
-1.87535e-06
3.99553e-08
-1.91484e-06
3.94867e-08
-1.95382e-06
3.8984e-08
-1.99227e-06
3.84453e-08
-2.03014e-06
3.78686e-08
-2.06739e-06
3.72524e-08
-2.10399e-06
3.65951e-08
-2.13988e-06
3.58957e-08
-2.17504e-06
3.51529e-08
-2.2094e-06
3.4366e-08
-2.24294e-06
3.35343e-08
-2.2756e-06
3.26574e-08
-2.30733e-06
3.17349e-08
-2.3381e-06
3.07667e-08
-2.36785e-06
2.97528e-08
-2.39655e-06
2.86935e-08
-2.42414e-06
2.75889e-08
-2.45058e-06
2.64395e-08
-2.47582e-06
2.52458e-08
-2.49983e-06
2.40082e-08
-2.52256e-06
2.27275e-08
-2.54396e-06
2.14043e-08
-2.564e-06
2.00388e-08
-2.58263e-06
1.86311e-08
-2.59982e-06
1.71807e-08
-2.61551e-06
1.5687e-08
-2.62966e-06
1.41476e-08
-2.64222e-06
1.25589e-08
-2.65313e-06
1.09152e-08
-2.66235e-06
9.2098e-09
-2.66978e-06
7.433e-09
-2.67535e-06
5.57e-09
-2.67896e-06
3.60367e-09
-2.68051e-06
1.54775e-09
-2.68003e-06
-4.80649e-10
-2.67773e-06
-2.30665e-09
-2.67376e-06
-3.96654e-09
-2.66817e-06
-5.59292e-09
-2.66096e-06
-7.21069e-09
-2.65213e-06
-8.83061e-09
-2.64168e-06
-1.04538e-08
-2.6296e-06
-1.20794e-08
-2.61589e-06
-1.37057e-08
-2.60056e-06
-1.53309e-08
-2.58361e-06
-1.69528e-08
-2.56504e-06
-1.85694e-08
-2.54487e-06
-2.01787e-08
-2.52309e-06
-2.17784e-08
-2.49972e-06
-2.33667e-08
-2.47478e-06
-2.49413e-08
-2.44828e-06
-2.65002e-08
-2.42024e-06
-2.80416e-08
-2.39068e-06
-2.95633e-08
-2.35962e-06
-3.10633e-08
-2.32708e-06
-3.25397e-08
-2.29309e-06
-3.39905e-08
-2.25768e-06
-3.54139e-08
-2.22088e-06
-3.68077e-08
-2.18271e-06
-3.81704e-08
-2.14321e-06
-3.94998e-08
-2.10241e-06
-4.07945e-08
-2.06036e-06
-4.20526e-08
-2.01709e-06
-4.32736e-08
-1.97263e-06
-4.44571e-08
-1.92703e-06
-4.56033e-08
-1.88032e-06
-4.67099e-08
-1.83254e-06
-4.77781e-08
-1.78373e-06
-4.88063e-08
-1.73395e-06
-4.9785e-08
-1.68323e-06
-5.07167e-08
-1.63162e-06
-5.16087e-08
-1.57916e-06
-5.24571e-08
-1.52591e-06
-5.32584e-08
-1.47189e-06
-5.40125e-08
-1.41717e-06
-5.472e-08
-1.36179e-06
-5.53806e-08
-1.30579e-06
-5.59951e-08
-1.24922e-06
-5.65638e-08
-1.19213e-06
-5.70877e-08
-1.13455e-06
-5.75674e-08
-1.07654e-06
-5.80042e-08
-1.01813e-06
-5.83987e-08
-9.59374e-07
-5.87516e-08
-9.00302e-07
-5.90641e-08
-8.40958e-07
-5.93369e-08
-7.8138e-07
-5.95712e-08
-7.21606e-07
-5.9768e-08
-6.61673e-07
-5.99286e-08
-6.01614e-07
-6.00542e-08
-5.41464e-07
-6.01462e-08
-4.81255e-07
-6.02059e-08
-4.21018e-07
-6.02349e-08
-3.60782e-07
-6.02339e-08
-3.00578e-07
-6.02037e-08
-2.40433e-07
-6.01446e-08
-1.80374e-07
-6.00588e-08
-1.20425e-07
-5.99494e-08
-6.06156e-08
-5.98112e-08
-1.07787e-09
-5.95395e-08
5.82286e-08
-5.93088e-08
1.17348e-07
-5.91224e-08
1.76165e-07
-5.88201e-08
2.34675e-07
-5.8513e-08
2.92866e-07
-5.81952e-08
3.50703e-07
-5.78416e-08
4.08107e-07
-5.74099e-08
4.64929e-07
-5.68269e-08
5.20882e-07
-5.59594e-08
5.75399e-07
-5.45238e-08
6.27296e-07
-5.19042e-08
6.73662e-07
-4.63722e-08
7.0771e-07
-3.40548e-08
7.67839e-09
7.00029e-07
1.10784e-08
-1.64182e-08
2.31232e-08
-2.33616e-08
3.21704e-08
-2.25108e-08
3.82501e-08
-1.93605e-08
4.18751e-08
-1.53374e-08
4.34028e-08
-1.09605e-08
4.30454e-08
-6.52653e-09
4.0946e-08
-2.22779e-09
3.72235e-08
1.81686e-09
3.19744e-08
5.54285e-09
2.52296e-08
8.92535e-09
1.69602e-08
1.19735e-08
7.13471e-09
1.4739e-08
-4.27554e-09
1.73113e-08
-1.73072e-08
1.97992e-08
-3.20122e-08
2.23089e-08
-4.84605e-08
2.49293e-08
-6.67438e-08
2.77262e-08
-8.69687e-08
3.07387e-08
-1.09271e-07
3.39859e-08
-1.33749e-07
3.74808e-08
-1.60416e-07
4.12282e-08
-1.89321e-07
4.5209e-08
-2.20518e-07
4.9389e-08
-2.53992e-07
5.37199e-08
-2.89674e-07
5.81351e-08
-3.27435e-07
6.25531e-08
-3.67096e-07
6.68834e-08
-4.08435e-07
7.10348e-08
-4.512e-07
7.49253e-08
-4.95138e-07
7.84952e-08
-5.40015e-07
8.16993e-08
-5.85598e-07
8.44977e-08
-6.31664e-07
8.68684e-08
-6.78001e-07
8.88068e-08
-7.24422e-07
9.03199e-08
-7.70762e-07
9.14245e-08
-8.16885e-07
9.2153e-08
-8.62684e-07
9.25459e-08
-9.08082e-07
9.26471e-08
-9.53023e-07
9.25016e-08
-9.97476e-07
9.21534e-08
-1.04143e-06
9.16445e-08
-1.08487e-06
9.10137e-08
-1.12783e-06
9.02962e-08
-1.17032e-06
8.95249e-08
-1.21237e-06
8.87308e-08
-1.254e-06
8.79408e-08
-1.2952e-06
8.7172e-08
-1.336e-06
8.6429e-08
-1.37639e-06
8.57111e-08
-1.4164e-06
8.50172e-08
-1.45602e-06
8.43441e-08
-1.49528e-06
8.36881e-08
-1.53417e-06
8.30447e-08
-1.5727e-06
8.24089e-08
-1.61087e-06
8.17753e-08
-1.64867e-06
8.11383e-08
-1.6861e-06
8.04921e-08
-1.72315e-06
7.98308e-08
-1.75981e-06
7.91486e-08
-1.79606e-06
7.84398e-08
-1.83189e-06
7.76987e-08
-1.86727e-06
7.69199e-08
-1.90219e-06
7.60984e-08
-1.93662e-06
7.52292e-08
-1.97054e-06
7.43077e-08
-2.00391e-06
7.33296e-08
-2.03672e-06
7.22911e-08
-2.06892e-06
7.11884e-08
-2.1005e-06
7.00183e-08
-2.13141e-06
6.87778e-08
-2.16162e-06
6.74644e-08
-2.1911e-06
6.60759e-08
-2.21982e-06
6.46104e-08
-2.24773e-06
6.30662e-08
-2.27481e-06
6.14423e-08
-2.30101e-06
5.97377e-08
-2.32631e-06
5.79518e-08
-2.35065e-06
5.60842e-08
-2.37402e-06
5.4135e-08
-2.39638e-06
5.21044e-08
-2.41767e-06
4.99928e-08
-2.43789e-06
4.78009e-08
-2.45698e-06
4.55296e-08
-2.47491e-06
4.31799e-08
-2.49166e-06
4.0753e-08
-2.50718e-06
3.82503e-08
-2.52145e-06
3.56733e-08
-2.53443e-06
3.3023e-08
-2.5461e-06
3.03006e-08
-2.55643e-06
2.75071e-08
-2.56539e-06
2.46437e-08
-2.57295e-06
2.1711e-08
-2.57911e-06
1.87097e-08
-2.58383e-06
1.56412e-08
-2.58713e-06
1.2508e-08
-2.58902e-06
9.31452e-09
-2.58952e-06
6.06939e-09
-2.58871e-06
2.79495e-09
-2.5867e-06
-4.63724e-10
-2.58352e-06
-3.66651e-09
-2.57899e-06
-6.83621e-09
-2.57294e-06
-1.00127e-08
-2.56534e-06
-1.32001e-08
-2.55615e-06
-1.63977e-08
-2.54537e-06
-1.96063e-08
-2.533e-06
-2.28235e-08
-2.51904e-06
-2.60462e-08
-2.50347e-06
-2.92705e-08
-2.48631e-06
-3.24925e-08
-2.46756e-06
-3.57081e-08
-2.44722e-06
-3.89131e-08
-2.42529e-06
-4.21034e-08
-2.4018e-06
-4.5275e-08
-2.37674e-06
-4.84236e-08
-2.35014e-06
-5.15453e-08
-2.322e-06
-5.4636e-08
-2.29235e-06
-5.76917e-08
-2.26121e-06
-6.07085e-08
-2.22859e-06
-6.36825e-08
-2.19452e-06
-6.66098e-08
-2.15903e-06
-6.94865e-08
-2.12213e-06
-7.23089e-08
-2.08387e-06
-7.50731e-08
-2.04426e-06
-7.77757e-08
-2.00335e-06
-8.04128e-08
-1.96117e-06
-8.29811e-08
-1.91774e-06
-8.54773e-08
-1.87312e-06
-8.78994e-08
-1.82733e-06
-9.02462e-08
-1.78041e-06
-9.25176e-08
-1.73241e-06
-9.47122e-08
-1.68336e-06
-9.68296e-08
-1.6333e-06
-9.88651e-08
-1.58228e-06
-1.00807e-07
-1.53034e-06
-1.02657e-07
-1.47752e-06
-1.04425e-07
-1.42387e-06
-1.06106e-07
-1.36944e-06
-1.07694e-07
-1.31426e-06
-1.09189e-07
-1.25839e-06
-1.10592e-07
-1.20187e-06
-1.11902e-07
-1.14474e-06
-1.13121e-07
-1.08705e-06
-1.14249e-07
-1.02885e-06
-1.15288e-07
-9.70169e-07
-1.1624e-07
-9.11064e-07
-1.17105e-07
-8.51572e-07
-1.17886e-07
-7.91734e-07
-1.18585e-07
-7.31591e-07
-1.19203e-07
-6.71183e-07
-1.19741e-07
-6.10548e-07
-1.20203e-07
-5.49722e-07
-1.20591e-07
-4.88742e-07
-1.20905e-07
-4.27644e-07
-1.21151e-07
-3.66459e-07
-1.21329e-07
-3.05222e-07
-1.21442e-07
-2.43961e-07
-1.21495e-07
-1.82706e-07
-1.21488e-07
-1.21486e-07
-1.21424e-07
-6.03261e-08
-1.21304e-07
7.45669e-10
-1.21131e-07
6.17097e-08
-1.20914e-07
1.22544e-07
-1.20646e-07
1.83283e-07
-1.2028e-07
2.43822e-07
-1.1985e-07
3.04063e-07
-1.19365e-07
3.64052e-07
-1.18811e-07
4.23771e-07
-1.18234e-07
4.8319e-07
-1.17617e-07
5.42259e-07
-1.16914e-07
6.00888e-07
-1.16042e-07
6.5892e-07
-1.14863e-07
7.16071e-07
-1.13115e-07
7.71839e-07
-1.10297e-07
8.25222e-07
-1.05292e-07
8.74668e-07
-9.58232e-08
9.16561e-07
-7.59533e-08
-2.79641e-08
9.522e-07
9.38638e-09
-2.58054e-08
1.58932e-08
-2.98696e-08
1.872e-08
-2.53382e-08
1.88016e-08
-1.94427e-08
1.68047e-08
-1.33409e-08
1.31246e-08
-7.28088e-09
7.96846e-09
-1.37078e-09
1.42477e-09
4.31546e-09
-6.48872e-09
9.72999e-09
-1.57999e-08
1.48536e-08
-2.65696e-08
1.96948e-08
-3.88844e-08
2.42879e-08
-5.28398e-08
2.8694e-08
-6.8526e-08
3.29971e-08
-8.60196e-08
3.72925e-08
-1.05384e-07
4.16726e-08
-1.26669e-07
4.62146e-08
-1.49916e-07
5.09728e-08
-1.75153e-07
5.59754e-08
-2.02392e-07
6.12241e-08
-2.31609e-07
6.66972e-08
-2.62735e-07
7.23538e-08
-2.95662e-07
7.81361e-08
-3.30244e-07
8.39698e-08
-3.66292e-07
8.97677e-08
-4.03591e-07
9.54343e-08
-4.41911e-07
1.00873e-07
-4.81019e-07
1.05991e-07
-5.20695e-07
1.1071e-07
-5.60741e-07
1.14971e-07
-6.00977e-07
1.18731e-07
-6.41243e-07
1.21964e-07
-6.81406e-07
1.24661e-07
-7.21364e-07
1.26826e-07
-7.61033e-07
1.28475e-07
-8.00357e-07
1.29644e-07
-8.39314e-07
1.30381e-07
-8.77899e-07
1.30738e-07
-9.16117e-07
1.30763e-07
-9.53981e-07
1.30511e-07
-9.91509e-07
1.3003e-07
-1.02872e-06
1.29368e-07
-1.06565e-06
1.2857e-07
-1.10231e-06
1.27673e-07
-1.13873e-06
1.26711e-07
-1.17491e-06
1.25714e-07
-1.21089e-06
1.24706e-07
-1.24666e-06
1.23706e-07
-1.28221e-06
1.22724e-07
-1.31755e-06
1.21767e-07
-1.35267e-06
1.20835e-07
-1.38758e-06
1.19925e-07
-1.42227e-06
1.19035e-07
-1.45674e-06
1.1816e-07
-1.49099e-06
1.17292e-07
-1.52501e-06
1.16427e-07
-1.55879e-06
1.15555e-07
-1.59232e-06
1.1467e-07
-1.62559e-06
1.13764e-07
-1.65859e-06
1.12828e-07
-1.6913e-06
1.11856e-07
-1.7237e-06
1.1084e-07
-1.75577e-06
1.09772e-07
-1.7875e-06
1.08645e-07
-1.81885e-06
1.07453e-07
-1.84981e-06
1.06188e-07
-1.88035e-06
1.04845e-07
-1.91044e-06
1.03417e-07
-1.94005e-06
1.01901e-07
-1.96915e-06
1.0029e-07
-1.99771e-06
9.85801e-08
-2.0257e-06
9.67678e-08
-2.05309e-06
9.48494e-08
-2.07983e-06
9.28219e-08
-2.10591e-06
9.06826e-08
-2.13127e-06
8.84295e-08
-2.15589e-06
8.60609e-08
-2.17973e-06
8.35756e-08
-2.20275e-06
8.09728e-08
-2.22492e-06
7.8252e-08
-2.2462e-06
7.54132e-08
-2.26655e-06
7.24569e-08
-2.28594e-06
6.93837e-08
-2.30433e-06
6.61946e-08
-2.32169e-06
6.28911e-08
-2.33799e-06
5.94749e-08
-2.35318e-06
5.59478e-08
-2.36725e-06
5.23123e-08
-2.38014e-06
4.85708e-08
-2.39185e-06
4.47259e-08
-2.40233e-06
4.07803e-08
-2.41156e-06
3.6737e-08
-2.41952e-06
3.25997e-08
-2.42618e-06
2.83723e-08
-2.43153e-06
2.40595e-08
-2.43556e-06
1.96677e-08
-2.43825e-06
1.52048e-08
-2.43962e-06
1.06816e-08
-2.43967e-06
6.11205e-09
-2.43839e-06
1.51587e-09
-2.43577e-06
-3.08517e-09
-2.43175e-06
-7.68704e-09
-2.42627e-06
-1.23128e-08
-2.41931e-06
-1.69774e-08
-2.41083e-06
-2.16746e-08
-2.40083e-06
-2.63981e-08
-2.3893e-06
-3.11424e-08
-2.37622e-06
-3.59016e-08
-2.3616e-06
-4.06698e-08
-2.34543e-06
-4.54412e-08
-2.32771e-06
-5.02095e-08
-2.30845e-06
-5.49685e-08
-2.28765e-06
-5.97123e-08
-2.26532e-06
-6.44345e-08
-2.24147e-06
-6.91292e-08
-2.2161e-06
-7.37903e-08
-2.18924e-06
-7.84118e-08
-2.16088e-06
-8.29876e-08
-2.13106e-06
-8.7512e-08
-2.09979e-06
-9.19791e-08
-2.0671e-06
-9.6383e-08
-2.03299e-06
-1.00718e-07
-1.9975e-06
-1.04979e-07
-1.96065e-06
-1.09159e-07
-1.92247e-06
-1.13255e-07
-1.88298e-06
-1.17259e-07
-1.84223e-06
-1.21167e-07
-1.80024e-06
-1.24973e-07
-1.75704e-06
-1.28673e-07
-1.71268e-06
-1.32264e-07
-1.66718e-06
-1.35742e-07
-1.62059e-06
-1.39107e-07
-1.57294e-06
-1.42359e-07
-1.52428e-06
-1.45495e-07
-1.47464e-06
-1.48509e-07
-1.42405e-06
-1.51389e-07
-1.37257e-06
-1.54135e-07
-1.32024e-06
-1.56756e-07
-1.2671e-06
-1.59247e-07
-1.2132e-06
-1.61601e-07
-1.15857e-06
-1.63818e-07
-1.10326e-06
-1.65898e-07
-1.04732e-06
-1.67841e-07
-9.90794e-07
-1.69649e-07
-9.33719e-07
-1.71322e-07
-8.76141e-07
-1.72863e-07
-8.18103e-07
-1.74274e-07
-7.59647e-07
-1.75558e-07
-7.00815e-07
-1.76716e-07
-6.41646e-07
-1.77751e-07
-5.82181e-07
-1.78665e-07
-5.22459e-07
-1.79462e-07
-4.62515e-07
-1.80145e-07
-4.02389e-07
-1.80716e-07
-3.42114e-07
-1.81179e-07
-2.81726e-07
-1.81538e-07
-2.21256e-07
-1.81797e-07
-1.60737e-07
-1.81961e-07
-1.00198e-07
-1.82033e-07
-3.96675e-08
-1.82018e-07
2.08293e-08
-1.8192e-07
8.12655e-08
-1.8174e-07
1.41617e-07
-1.81482e-07
2.01858e-07
-1.81155e-07
2.61966e-07
-1.80754e-07
3.21947e-07
-1.80262e-07
3.81775e-07
-1.79677e-07
4.41409e-07
-1.78999e-07
5.00836e-07
-1.78239e-07
5.60023e-07
-1.77421e-07
6.18928e-07
-1.76522e-07
6.77493e-07
-1.75478e-07
7.35625e-07
-1.74175e-07
7.93176e-07
-1.72414e-07
8.49897e-07
-1.69836e-07
9.05376e-07
-1.65777e-07
9.5897e-07
-1.58887e-07
1.0098e-06
-1.46655e-07
1.05726e-06
-1.23414e-07
-7.66122e-08
1.10591e-06
4.30988e-09
-3.01161e-08
4.09211e-09
-2.96528e-08
1.20916e-09
-2.24558e-08
-3.48377e-09
-1.47503e-08
-9.63212e-09
-7.19288e-09
-1.70613e-08
1.47962e-10
-2.56986e-08
7.26619e-09
-3.55397e-08
1.41562e-08
-4.66266e-08
2.08166e-08
-5.90304e-08
2.72571e-08
-7.28391e-08
3.35031e-08
-8.8148e-08
3.95965e-08
-1.05049e-07
4.55948e-08
-1.23619e-07
5.15668e-08
-1.43911e-07
5.75841e-08
-1.6595e-07
6.37111e-08
-1.89731e-07
6.99958e-08
-2.15221e-07
7.64627e-08
-2.42356e-07
8.31102e-08
-2.71042e-07
8.99096e-08
-3.01153e-07
9.68079e-08
-3.32533e-07
1.03733e-07
-3.65e-07
1.10602e-07
-3.98353e-07
1.17322e-07
-4.32385e-07
1.23799e-07
-4.66893e-07
1.29942e-07
-5.01689e-07
1.35668e-07
-5.36608e-07
1.4091e-07
-5.71515e-07
1.45616e-07
-6.06299e-07
1.49755e-07
-6.40877e-07
1.53309e-07
-6.7519e-07
1.56276e-07
-7.09199e-07
1.5867e-07
-7.42893e-07
1.60519e-07
-7.7628e-07
1.61862e-07
-8.09383e-07
1.62747e-07
-8.4223e-07
1.63228e-07
-8.74851e-07
1.63358e-07
-9.07278e-07
1.6319e-07
-9.39542e-07
1.62774e-07
-9.71671e-07
1.62159e-07
-1.00369e-06
1.61386e-07
-1.03562e-06
1.60496e-07
-1.06747e-06
1.59523e-07
-1.09925e-06
1.58496e-07
-1.13098e-06
1.57438e-07
-1.16264e-06
1.56368e-07
-1.19424e-06
1.55301e-07
-1.22576e-06
1.54246e-07
-1.2572e-06
1.53208e-07
-1.28855e-06
1.52185e-07
-1.3198e-06
1.51178e-07
-1.35095e-06
1.5018e-07
-1.38198e-06
1.49187e-07
-1.41287e-06
1.48191e-07
-1.44363e-06
1.47185e-07
-1.47424e-06
1.4616e-07
-1.50468e-06
1.45107e-07
-1.53493e-06
1.44018e-07
-1.56499e-06
1.42882e-07
-1.59482e-06
1.41691e-07
-1.62442e-06
1.40435e-07
-1.65375e-06
1.39106e-07
-1.6828e-06
1.37695e-07
-1.71154e-06
1.36194e-07
-1.73995e-06
1.34595e-07
-1.768e-06
1.32891e-07
-1.79565e-06
1.31074e-07
-1.82289e-06
1.29138e-07
-1.84968e-06
1.27077e-07
-1.87599e-06
1.24886e-07
-1.90178e-06
1.2256e-07
-1.92702e-06
1.20094e-07
-1.95168e-06
1.17484e-07
-1.97573e-06
1.14728e-07
-1.99912e-06
1.11822e-07
-2.02183e-06
1.08766e-07
-2.04381e-06
1.05556e-07
-2.06503e-06
1.02193e-07
-2.08545e-06
9.86748e-08
-2.10504e-06
9.50028e-08
-2.12376e-06
9.11772e-08
-2.14158e-06
8.71989e-08
-2.15845e-06
8.30694e-08
-2.17435e-06
7.87907e-08
-2.18924e-06
7.43651e-08
-2.20309e-06
6.97955e-08
-2.21586e-06
6.50851e-08
-2.22753e-06
6.02377e-08
-2.23806e-06
5.52571e-08
-2.24743e-06
5.01478e-08
-2.25561e-06
4.49146e-08
-2.26257e-06
3.95633e-08
-2.2683e-06
3.41002e-08
-2.27277e-06
2.85325e-08
-2.27598e-06
2.28691e-08
-2.27789e-06
1.712e-08
-2.27851e-06
1.12968e-08
-2.27781e-06
5.41242e-09
-2.27578e-06
-5.19526e-10
-2.27237e-06
-6.48885e-09
-2.26756e-06
-1.24968e-08
-2.26132e-06
-1.85547e-08
-2.25363e-06
-2.46663e-08
-2.24448e-06
-3.08245e-08
-2.23386e-06
-3.70204e-08
-2.22176e-06
-4.32458e-08
-2.20817e-06
-4.94921e-08
-2.19309e-06
-5.57511e-08