/*--------------------------------*- C++ -*----------------------------------*\
| =========                 |                                                 |
| \\      /  F ield         | OpenFOAM: The Open Source CFD Toolbox           |
|  \\    /   O peration     | Version:  v2012                                 |
|   \\  /    A nd           | Website:  www.openfoam.com                      |
|    \\/     M anipulation  |                                                 |
\*---------------------------------------------------------------------------*/
FoamFile
{
    version     2.0;
    format      ascii;
    class       volScalarField;
    location    "3900";
    object      nuTilda;
}
// * * * * * * * * * * * * * * * * * * * * * * * * * * * * * * * * * * * * * //

dimensions      [0 2 -1 0 0 0 0];


internalField   nonuniform List<scalar> 
12225
(
0.0122671
0.00158833
0.000666932
0.0004122
0.000298016
0.000234159
0.000195366
0.000157557
0.000177097
0.000222707
0.000230392
0.000221274
0.000203464
0.000178139
0.000172628
0.000158586
0.000147172
0.000136883
0.0323823
0.00744532
0.00330641
0.00204337
0.00146819
0.00114457
0.000939066
0.000785447
0.000691135
0.000627804
0.000570648
0.000520037
0.000476784
0.00043743
0.000407123
0.00037478
0.000350014
0.000324455
0.0490123
0.01515
0.00728196
0.00457856
0.00330642
0.00258052
0.00211335
0.00178199
0.0015469
0.00137269
0.0012317
0.00111557
0.00101869
0.00093651
0.000867167
0.000804843
0.00075419
0.000701719
0.063054
0.0237783
0.0122894
0.00788815
0.00573398
0.00448498
0.00367443
0.00310422
0.00268721
0.00237002
0.00211798
0.00191325
0.00174413
0.00160235
0.00148258
0.00137879
0.00129128
0.00120476
0.074932
0.0328517
0.0181452
0.0119262
0.00874549
0.00686413
0.00563087
0.00476131
0.0041187
0.00362573
0.00323518
0.00291878
0.00265804
0.0024401
0.00225603
0.0020984
0.00196343
0.0018399
0.0849536
0.0420208
0.0246655
0.0166359
0.0123325
0.00972587
0.00799541
0.00676741
0.00585404
0.00515005
0.00459191
0.00413984
0.00376744
0.00345637
0.00319355
0.0029691
0.00277616
0.00260661
0.0933822
0.0510219
0.0316642
0.0219415
0.016474
0.0130717
0.0107779
0.00913539
0.00790598
0.00695436
0.00619833
0.00558533
0.0050801
0.00465803
0.00430138
0.00399704
0.00373536
0.00350915
0.0993794
0.0583363
0.0378386
0.0268568
0.0204171
0.0163053
0.0134892
0.011453
0.00991905
0.0087267
0.00777697
0.0070057
0.00636943
0.00583763
0.00538817
0.00500469
0.00467517
0.00439183
0.104023
0.0645454
0.0433804
0.0314239
0.0241571
0.0194092
0.0161097
0.0137018
0.0118767
0.0104523
0.00931473
0.0083894
0.00762525
0.00698616
0.00644587
0.00598491
0.00558899
0.00524917
0.108368
0.0708939
0.0493757
0.0365496
0.0284517
0.0230231
0.0191863
0.0163548
0.0141927
0.0124969
0.0111382
0.0100306
0.00911457
0.00834784
0.00769937
0.00714607
0.00667098
0.00626328
0.112368
0.0772557
0.0557282
0.0421918
0.0332976
0.0271652
0.0227468
0.0194433
0.0168984
0.0148904
0.013275
0.0119546
0.0108606
0.00994396
0.00916816
0.00850607
0.00793759
0.0074494
0.115994
0.0834975
0.0623053
0.0482611
0.0386474
0.0318167
0.026789
0.0229739
0.0200047
0.0176452
0.0157379
0.0141737
0.012875
0.0117851
0.010862
0.0100738
0.0093969
0.00881485
0.119234
0.0894856
0.0689377
0.0546109
0.0443919
0.0369007
0.0312597
0.0269089
0.0234837
0.02074
0.0185097
0.0166735
0.015145
0.0138601
0.0127705
0.0118397
0.0110398
0.010351
0.122086
0.095084
0.075415
0.0610223
0.0503361
0.0422535
0.0360231
0.0311353
0.0272402
0.0240931
0.0215191
0.0193909
0.0176141
0.0161175
0.0148467
0.0137601
0.0128258
0.0120198
0.124546
0.100135
0.0814619
0.0671726
0.056158
0.047577
0.0408126
0.0354174
0.031066
0.0275197
0.0246013
0.0221778
0.0201482
0.018435
0.0169783
0.0157315
0.0146584
0.0137312
0.126578
0.104396
0.0866605
0.0725515
0.0613228
0.0523526
0.0451453
0.0393148
0.0345631
0.0306611
0.0274325
0.024741
0.0224806
0.020569
0.0189413
0.0175468
0.0163455
0.0153062
0.128011
0.107322
0.0902141
0.0762353
0.0648743
0.0556509
0.0481493
0.0420254
0.0370012
0.0328553
0.0294126
0.0265352
0.0241143
0.0220643
0.0203171
0.0188191
0.0175275
0.0164083
0.128006
0.107313
0.0902048
0.0762269
0.0648674
0.0556454
0.048145
0.0420221
0.0369988
0.0328537
0.0294117
0.0265349
0.0241147
0.0220651
0.0203184
0.0188205
0.0175286
0.0164082
0.126509
0.104255
0.0864922
0.0723807
0.0611613
0.052205
0.0450128
0.0391967
0.0344584
0.0305685
0.0273506
0.0246684
0.0224163
0.0205118
0.0188902
0.0175006
0.0163023
0.015263
0.124267
0.0995604
0.0807712
0.0664676
0.0554886
0.0469631
0.0402594
0.0349227
0.0306248
0.0271258
0.0242487
0.0218611
0.0198625
0.0181762
0.0167425
0.0155151
0.0144574
0.0135404
0.12136
0.0936399
0.0737261
0.0593348
0.0487592
0.0408248
0.0347467
0.0300003
0.0262308
0.0231928
0.0207127
0.018665
0.0169572
0.0155197
0.0142998
0.0132566
0.0123582
0.0115797
0.117686
0.0865903
0.0656967
0.0514791
0.0415374
0.0343608
0.0290183
0.0249322
0.0217348
0.0191848
0.0171184
0.0154211
0.0140105
0.0128262
0.0118228
0.0109656
0.0102279
0.00958885
0.11305
0.0784122
0.056921
0.0432687
0.0342296
0.0279652
0.0234365
0.0200435
0.0174263
0.0153598
0.0136967
0.012337
0.0112107
0.0102671
0.00946865
0.00878716
0.00820096
0.00769339
0.107169
0.0691009
0.0476372
0.035029
0.0271566
0.021922
0.0182437
0.0155401
0.0134818
0.0118708
0.0105819
0.00953231
0.00866515
0.00793988
0.00732685
0.00680389
0.00635418
0.00596494
0.0996761
0.0587036
0.0381279
0.0270699
0.0205782
0.0164329
0.0135949
0.0115437
0.00999935
0.00879953
0.00784423
0.00706854
0.00642882
0.0058944
0.00544292
0.00505791
0.00472683
0.00444036
0.0901097
0.0473665
0.0287363
0.0196847
0.0146976
0.0116311
0.0095785
0.00811521
0.00702351
0.00618081
0.00551236
0.00497026
0.00452346
0.00415042
0.00383511
0.0035663
0.00333506
0.00313492
0.0779076
0.0353826
0.0198606
0.0131383
0.00966106
0.00759296
0.0062335
0.00527412
0.00456427
0.0040204
0.00359045
0.00324086
0.00295212
0.00271106
0.00250637
0.00233219
0.00218221
0.00205178
0.06238
0.0232554
0.0119461
0.00765493
0.00556338
0.00435255
0.00356723
0.00301619
0.00261337
0.00231042
0.00207212
0.00187482
0.00171031
0.00157289
0.00145404
0.00135328
0.00126676
0.00118923
0.0426105
0.0117794
0.00546931
0.00341388
0.00246076
0.00192014
0.0015728
0.00132962
0.00115857
0.00104155
0.00095
0.000865361
0.000793016
0.000729823
0.000674454
0.000622354
0.00058361
0.000546061
0.0168348
0.0025599
0.00110031
0.000684193
0.00049518
0.00038916
0.000321436
0.000273103
0.000272254
0.0003391
0.000377454
0.000355871
0.000326996
0.000283226
0.000288675
0.000233575
0.000267255
0.000264299
3.70922e-06
1.38332e-05
2.56098e-05
3.82443e-05
4.6038e-05
4.98343e-05
5.02196e-05
4.77931e-05
4.45842e-05
3.94352e-05
3.40895e-05
2.93613e-05
2.67524e-05
2.73211e-05
2.96405e-05
3.13303e-05
3.11011e-05
2.80732e-05
2.28038e-05
1.91807e-05
1.96942e-05
2.60198e-05
3.89514e-05
6.5154e-05
8.76144e-05
0.000101036
0.000113668
0.000124635
0.000134563
0.000143031
0.000150587
0.000157178
0.000163015
0.000168148
0.000172663
0.000176675
0.00018025
0.000183459
0.000186347
0.000188951
0.000191294
0.000193395
0.000195268
0.000196926
0.000198382
0.000199647
0.000200729
0.000201633
0.000202357
0.000202899
0.000203142
0.000203374
0.000203418
0.000203299
0.000203021
0.000202606
0.000202049
0.000201356
0.000200526
0.000199564
0.000198471
0.000197249
0.000195901
0.00019443
0.000192839
0.000191131
0.000189307
0.00018737
0.000185324
0.000183172
0.000180916
0.00017856
0.000176105
0.000173556
0.000170913
0.000168179
0.000165356
0.000162445
0.000159447
0.000156363
0.000153193
0.000149938
0.0001466
0.000143178
0.000139673
0.00013608
0.000132394
0.000128603
0.000124693
0.000120648
0.000116448
0.000112078
0.000107538
0.000102885
9.83274e-05
9.43622e-05
9.15618e-05
8.98186e-05
8.85079e-05
8.73039e-05
8.61207e-05
8.4942e-05
8.37662e-05
8.25939e-05
8.14259e-05
8.02634e-05
7.91076e-05
7.79628e-05
7.68505e-05
7.58992e-05
7.4965e-05
7.40374e-05
7.31177e-05
7.22063e-05
7.13035e-05
7.04098e-05
6.95253e-05
6.86506e-05
6.77859e-05
6.69313e-05
6.6087e-05
6.52534e-05
6.44306e-05
6.36193e-05
6.28191e-05
6.20302e-05
6.12534e-05
6.05169e-05
5.98399e-05
5.91717e-05
5.85083e-05
5.78583e-05
5.72264e-05
5.65996e-05
5.59779e-05
5.53643e-05
5.47597e-05
5.41647e-05
5.35794e-05
5.30037e-05
5.24375e-05
5.18806e-05
5.13327e-05
5.0794e-05
5.02641e-05
4.9743e-05
4.92306e-05
4.87267e-05
4.82314e-05
4.77444e-05
4.72658e-05
4.67956e-05
4.63335e-05
4.58798e-05
4.54343e-05
4.4997e-05
4.45682e-05
4.41477e-05
4.37358e-05
4.33327e-05
4.29385e-05
4.25534e-05
4.21778e-05
4.18118e-05
4.14557e-05
4.11095e-05
4.07733e-05
4.04469e-05
4.01297e-05
3.98209e-05
3.95192e-05
3.92228e-05
3.89279e-05
3.86344e-05
3.83233e-05
3.80261e-05
3.75968e-05
3.72906e-05
3.63592e-05
3.48398e-05
5.88201e-06
3.99439e-05
9.09027e-05
0.000151926
0.000191207
0.000213575
0.00022253
0.000221115
0.000213151
0.000197494
0.000178395
0.000160496
0.000151697
0.000156437
0.000168614
0.000176135
0.000178033
0.000178819
0.000183785
0.000192714
0.00020774
0.000224925
0.000241169
0.00025647
0.000267371
0.000276834
0.000285414
0.000298238
0.000316688
0.000330312
0.000342757
0.000353464
0.000363217
0.000372146
0.000379918
0.00038702
0.000393642
0.000400001
0.000406225
0.000412377
0.000418453
0.000424408
0.000430191
0.000435761
0.00044109
0.000446161
0.000450959
0.000455471
0.000459699
0.000463648
0.000467327
0.000470757
0.000473928
0.000476849
0.000479522
0.000481947
0.000484125
0.000486057
0.000487744
0.000489184
0.00049038
0.000491333
0.000492043
0.000492516
0.000492762
0.000492786
0.000492582
0.000492147
0.000491497
0.000490635
0.000489568
0.000488303
0.000486844
0.000485201
0.000483379
0.000481385
0.000479227
0.000476912
0.000474448
0.000471842
0.000469103
0.000466239
0.000463259
0.000460172
0.000456985
0.000453709
0.000450349
0.000446915
0.000443413
0.00043985
0.000436232
0.000432564
0.000428846
0.00042507
0.000421219
0.000417266
0.000413195
0.000409036
0.000404839
0.000400628
0.00039641
0.000392189
0.00038797
0.000383754
0.000379546
0.00037535
0.000371167
0.000367001
0.000362851
0.000358714
0.000354603
0.000350521
0.00034647
0.000342452
0.000338469
0.000334523
0.000330614
0.000326745
0.000322916
0.00031913
0.000315386
0.000311686
0.00030803
0.000304421
0.000300859
0.000297343
0.000293873
0.000290449
0.000287067
0.000283733
0.000280444
0.000277207
0.000274025
0.000270882
0.000267777
0.000264716
0.000261701
0.000258732
0.000255811
0.000252936
0.000250106
0.000247323
0.000244584
0.000241889
0.000239237
0.000236629
0.000234062
0.000231538
0.000229055
0.000226614
0.000224213
0.000221852
0.000219532
0.000217252
0.000215013
0.000212814
0.000210655
0.000208538
0.000206462
0.00020443
0.000202441
0.000200498
0.000198601
0.000196754
0.000194956
0.000193209
0.000191514
0.000189871
0.000188279
0.000186736
0.000185239
0.000183786
0.000182358
0.000180983
0.000179541
0.000178325
0.000176484
0.000175947
0.000173186
0.000171884
1.28758e-05
7.44328e-05
0.00017398
0.000251171
0.000302743
0.00033229
0.000342982
0.000340017
0.000327261
0.000308328
0.000289127
0.000277094
0.000275205
0.000281965
0.000292208
0.000302966
0.000315731
0.000332552
0.000353836
0.00037884
0.000405953
0.000433901
0.000472895
0.000518802
0.000564195
0.000608115
0.000651049
0.000694593
0.000733577
0.000764596
0.000789392
0.000809057
0.000824652
0.000837031
0.000846974
0.000855249
0.000862553
0.000869527
0.000876701
0.000884428
0.000892812
0.000901726
0.000910933
0.000920197
0.000929341
0.000938247
0.000946838
0.000955069
0.0009629
0.000970307
0.00097726
0.000983741
0.000989737
0.000995245
0.00100026
0.00100479
0.00100883
0.00101237
0.00101542
0.00101798
0.00102005
0.00102162
0.0010227
0.00102324
0.0010234
0.00102311
0.00102232
0.00102107
0.00101939
0.00101727
0.00101473
0.00101178
0.00100845
0.00100473
0.00100065
0.000996223
0.000991457
0.00098637
0.000980977
0.000975293
0.000969334
0.000963115
0.000956651
0.000949958
0.000943051
0.000935945
0.000928655
0.000921194
0.000913576
0.000905813
0.000897919
0.000889903
0.000881776
0.000873545
0.000865219
0.000856807
0.000848323
0.000839782
0.0008312
0.000822591
0.000813965
0.000805332
0.000796699
0.000788073
0.000779464
0.000770876
0.000762317
0.000753792
0.000745307
0.000736869
0.000728481
0.000720151
0.000711882
0.000703678
0.000695543
0.000687481
0.000679493
0.000671585
0.000663757
0.000656013
0.000648354
0.000640782
0.000633299
0.000625907
0.000618607
0.0006114
0.000604285
0.000597264
0.000590336
0.000583504
0.000576766
0.000570123
0.000563574
0.000557112
0.000550738
0.000544454
0.00053826
0.000532158
0.000526149
0.00052023
0.000514402
0.000508664
0.000503014
0.000497451
0.000491974
0.000486583
0.000481275
0.00047605
0.000470907
0.000465844
0.000460861
0.000455956
0.000451129
0.000446378
0.000441703
0.000437101
0.000432573
0.000428116
0.000423731
0.000419414
0.000415166
0.000410984
0.000406867
0.000402813
0.000398818
0.00039488
0.000390994
0.000387156
0.000383358
0.000379593
0.000375848
0.000372109
0.000368351
0.000364563
0.000360648
0.0003567
0.000352235
0.000348051
0.000341595
0.000330101
2.18273e-05
0.000106505
0.000220167
0.000312465
0.000374803
0.000411453
0.000426592
0.000426805
0.000416801
0.00040361
0.000395864
0.000395304
0.000404799
0.000422122
0.000444915
0.000472695
0.000506054
0.000545271
0.000589521
0.000653149
0.000727093
0.000806924
0.000890696
0.000960892
0.00102301
0.00107887
0.00112905
0.00117374
0.00121281
0.00124652
0.00127563
0.00130085
0.00132289
0.00134237
0.00135987
0.00137586
0.00139076
0.00140491
0.00141857
0.00143191
0.00144507
0.00145812
0.00147108
0.00148392
0.00149661
0.00150907
0.00152119
0.00153289
0.00154407
0.00155467
0.00156461
0.00157388
0.00158245
0.00159031
0.00159744
0.00160384
0.00160951
0.00161445
0.00161864
0.0016221
0.00162482
0.0016268
0.00162795
0.00162839
0.00162826
0.00162734
0.00162571
0.00162339
0.00162039
0.00161673
0.00161243
0.00160751
0.00160199
0.00159589
0.00158923
0.00158203
0.00157432
0.00156613
0.00155746
0.00154835
0.00153882
0.00152889
0.00151858
0.00150793
0.00149694
0.00148565
0.00147408
0.00146224
0.00145017
0.00143787
0.00142537
0.00141269
0.00139984
0.00138685
0.00137372
0.00136047
0.00134712
0.00133369
0.00132021
0.00130668
0.00129312
0.00127955
0.00126599
0.00125243
0.0012389
0.00122541
0.00121196
0.00119856
0.00118523
0.00117197
0.00115879
0.0011457
0.0011327
0.0011198
0.00110701
0.00109434
0.00108178
0.00106934
0.00105702
0.00104484
0.00103278
0.00102087
0.00100909
0.000997445
0.000985945
0.000974588
0.000963375
0.000952306
0.000941382
0.000930605
0.000919974
0.000909489
0.000899147
0.000888944
0.00087888
0.000868955
0.000859171
0.000849528
0.000840025
0.000830663
0.00082144
0.000812354
0.000803404
0.000794589
0.000785906
0.000777354
0.000768931
0.000760636
0.000752466
0.000744421
0.000736497
0.000728694
0.00072101
0.000713443
0.000705991
0.000698652
0.000691425
0.000684307
0.000677297
0.000670391
0.000663589
0.000656887
0.000650282
0.000643771
0.00063735
0.000631013
0.000624755
0.000618569
0.000612444
0.000606368
0.000600325
0.000594294
0.000588245
0.000582144
0.000575916
0.000569539
0.000562731
0.000555756
0.00054733
0.000531148
2.69615e-05
0.000121967
0.000240952
0.00035745
0.000435174
0.000482043
0.000505335
0.000513692
0.000515317
0.000516537
0.000523757
0.000540256
0.000566617
0.000601864
0.000645247
0.000696813
0.000757373
0.000841163
0.000937148
0.00103282
0.00112154
0.00120566
0.00128471
0.00135713
0.00142364
0.00148484
0.00154111
0.0015928
0.00164024
0.00168389
0.00172421
0.00176169
0.00179675
0.00182978
0.00186107
0.00189087
0.00191939
0.00194675
0.00197306
0.00199837
0.00202271
0.00204611
0.00206854
0.00209
0.00211045
0.00212988
0.00214824
0.00216551
0.00218166
0.00219668
0.00221055
0.00222327
0.00223486
0.00224533
0.00225469
0.00226298
0.00227019
0.00227635
0.00228147
0.00228557
0.00228867
0.00229071
0.00229163
0.00229171
0.00229083
0.00228895
0.00228612
0.00228234
0.00227765
0.00227207
0.00226562
0.00225833
0.00225023
0.00224134
0.00223171
0.00222135
0.00221031
0.0021986
0.00218626
0.00217333
0.00215983
0.0021458
0.00213126
0.00211625
0.00210079
0.00208493
0.00206868
0.00205208
0.00203516
0.00201795
0.00200046
0.00198274
0.00196479
0.00194666
0.00192835
0.00190989
0.00189131
0.00187264
0.00185388
0.00183507
0.00181623
0.00179737
0.00177852
0.00175969
0.00174089
0.00172214
0.00170346
0.00168485
0.00166634
0.00164792
0.00162962
0.00161144
0.00159338
0.00157547
0.00155771
0.0015401
0.00152265
0.00150537
0.00148825
0.00147132
0.00145457
0.001438
0.00142162
0.00140543
0.00138944
0.00137363
0.00135803
0.00134262
0.00132742
0.00131241
0.0012976
0.00128299
0.00126857
0.00125435
0.00124032
0.00122649
0.00121284
0.00119939
0.00118613
0.00117305
0.00116017
0.00114748
0.00113497
0.00112264
0.00111049
0.00109852
0.00108673
0.00107511
0.00106366
0.00105237
0.00104126
0.00103031
0.00101951
0.00100888
0.000998403
0.000988078
0.000977904
0.000967878
0.000957997
0.000948257
0.000938656
0.000929191
0.000919857
0.000910649
0.000901563
0.000892593
0.000883731
0.000874967
0.00086629
0.000857686
0.000849135
0.000840612
0.000832084
0.000823507
0.000814812
0.000805937
0.00079668
0.000787075
0.000776918
0.000757169
3.08052e-05
0.000135311
0.000261402
0.000392195
0.000488193
0.000549579
0.000587183
0.000610595
0.000628478
0.000648066
0.000674547
0.00071051
0.000756661
0.000813275
0.000880902
0.000971745
0.00107708
0.00117868
0.00127774
0.00137297
0.00146343
0.00154918
0.0016302
0.00170644
0.00177821
0.00184585
0.00190971
0.00197012
0.00202741
0.00208191
0.00213395
0.00218379
0.00223171
0.0022779
0.00232251
0.00236568
0.00240749
0.002448
0.00248723
0.00252519
0.00256188
0.00259728
0.00263135
0.00266407
0.0026954
0.00272529
0.00275371
0.00278061
0.00280596
0.00282973
0.00285188
0.00287239
0.00289126
0.00290846
0.00292399
0.00293786
0.00295006
0.0029606
0.00296949
0.00297675
0.0029824
0.00298648
0.00298891
0.00298981
0.00298934
0.00298737
0.00298402
0.00297932
0.00297331
0.00296606
0.0029576
0.00294801
0.00293732
0.00292559
0.00291287
0.0028992
0.00288463
0.00286921
0.00285298
0.00283599
0.00281827
0.00279988
0.00278084
0.0027612
0.00274101
0.0027203
0.00269911
0.00267748
0.00265544
0.00263304
0.00261031
0.00258728
0.00256398
0.00254045
0.00251671
0.00249281
0.00246875
0.00244458
0.00242032
0.002396
0.00237164
0.00234727
0.00232291
0.00229857
0.00227429
0.00225008
0.00222595
0.00220193
0.00217802
0.00215424
0.00213061
0.00210713
0.00208383
0.0020607
0.00203777
0.00201503
0.00199249
0.00197017
0.00194808
0.0019262
0.00190456
0.00188315
0.00186199
0.00184106
0.00182038
0.00179995
0.00177977
0.00175984
0.00174016
0.00172074
0.00170157
0.00168265
0.00166398
0.00164555
0.00162737
0.00160944
0.00159174
0.0015743
0.00155709
0.00154012
0.0015234
0.0015069
0.00149065
0.00147462
0.00145882
0.00144324
0.00142789
0.00141275
0.00139783
0.00138312
0.00136862
0.00135433
0.00134023
0.00132634
0.00131264
0.00129914
0.00128582
0.00127269
0.00125974
0.00124697
0.00123438
0.00122195
0.00120969
0.00119759
0.00118565
0.00117385
0.00116219
0.00115066
0.00113925
0.00112793
0.00111669
0.00110551
0.00109433
0.00108313
0.00107183
0.00106036
0.00104854
0.00103639
0.00102411
0.00100167
3.23472e-05
0.000142479
0.000273865
0.0004096
0.000527343
0.000608421
0.000664439
0.000706455
0.000743677
0.000783328
0.00083042
0.000887856
0.000957362
0.00105006
0.00115729
0.00126388
0.00136992
0.00147315
0.00157304
0.0016692
0.00176139
0.00184963
0.00193401
0.00201469
0.00209192
0.00216597
0.00223712
0.00230563
0.00237176
0.00243574
0.00249778
0.00255806
0.00261673
0.0026739
0.00272965
0.00278405
0.00283712
0.00288889
0.00293933
0.00298844
0.00303618
0.00308252
0.00312741
0.0031708
0.00321264
0.00325288
0.00329146
0.00332833
0.00336345
0.00339676
0.00342822
0.00345779
0.00348544
0.00351114
0.00353486
0.00355658
0.00357629
0.00359397
0.00360962
0.00362324
0.00363484
0.00364442
0.003652
0.00365761
0.00366126
0.00366288
0.0036628
0.00366081
0.00365703
0.00365151
0.0036443
0.00363546
0.00362504
0.00361311
0.00359972
0.00358495
0.00356886
0.00355151
0.00353298
0.00351333
0.00349262
0.00347093
0.00344832
0.00342486
0.00340061
0.00337563
0.00334998
0.00332372
0.00329692
0.00326961
0.00324185
0.0032137
0.00318519
0.00315637
0.00312729
0.00309798
0.00306848
0.00303883
0.00300907
0.00297922
0.00294932
0.0029194
0.00288949
0.00285961
0.0028298
0.00280006
0.00277042
0.00274091
0.00271153
0.00268232
0.00265328
0.00262443
0.00259579
0.00256736
0.00253917
0.00251121
0.0024835
0.00245605
0.00242886
0.00240195
0.00237532
0.00234897
0.00232291
0.00229714
0.00227167
0.0022465
0.00222163
0.00219706
0.0021728
0.00214884
0.00212519
0.00210183
0.00207878
0.00205603
0.00203357
0.00201141
0.00198954
0.00196796
0.00194668
0.00192568
0.00190497
0.00188454
0.0018644
0.00184452
0.00182493
0.0018056
0.00178654
0.00176774
0.0017492
0.00173091
0.00171288
0.00169509
0.00167754
0.00166024
0.00164316
0.00162632
0.00160971
0.00159332
0.00157715
0.0015612
0.00154546
0.00152992
0.00151458
0.00149944
0.00148448
0.00146971
0.0014551
0.00144066
0.00142636
0.00141219
0.00139813
0.00138415
0.0013702
0.00135625
0.00134223
0.00132806
0.00131358
0.00129885
0.0012838
0.00125957
3.27882e-05
0.00014407
0.000275147
0.000409114
0.000538819
0.000642034
0.000719163
0.000780654
0.000836644
0.000894829
0.000963216
0.00105578
0.00116589
0.00128738
0.00140285
0.00151402
0.00162174
0.00172618
0.00182727
0.00192498
0.00201931
0.00211035
0.00219825
0.0022832
0.00236541
0.00244512
0.00252255
0.0025979
0.00267136
0.00274312
0.0028133
0.00288203
0.0029494
0.00301546
0.00308027
0.00314384
0.00320617
0.00326724
0.00332703
0.0033855
0.00344259
0.00349825
0.00355243
0.00360506
0.00365608
0.00370541
0.003753
0.00379878
0.00384269
0.00388467
0.00392467
0.00396263
0.00399851
0.00403226
0.00406385
0.00409325
0.00412042
0.00414535
0.00416802
0.00418842
0.00420654
0.00422239
0.00423598
0.0042473
0.00425639
0.00426326
0.00426798
0.00427043
0.00427086
0.00426922
0.00426555
0.0042599
0.00425233
0.0042429
0.00423167
0.0042187
0.00420405
0.00418779
0.00416999
0.00415072
0.00413005
0.00410806
0.00408481
0.00406038
0.00403484
0.00400826
0.00398071
0.00395227
0.003923
0.00389296
0.00386224
0.00383087
0.00379894
0.0037665
0.0037336
0.0037003
0.00366666
0.00363273
0.00359855
0.00356418
0.00352965
0.00349502
0.00346032
0.00342559
0.00339086
0.00335616
0.00332154
0.00328701
0.0032526
0.00321834
0.00318424
0.00315034
0.00311664
0.00308317
0.00304994
0.00301697
0.00298427
0.00295186
0.00291973
0.00288791
0.00285641
0.00282522
0.00279435
0.00276382
0.00273362
0.00270376
0.00267424
0.00264507
0.00261624
0.00258776
0.00255963
0.00253185
0.00250441
0.00247731
0.00245056
0.00242415
0.00239807
0.00237234
0.00234693
0.00232187
0.00229713
0.00227271
0.00224863
0.00222486
0.00220141
0.00217827
0.00215544
0.00213291
0.00211068
0.00208875
0.00206711
0.00204575
0.00202468
0.00200389
0.00198338
0.00196313
0.00194315
0.00192342
0.00190396
0.00188475
0.00186578
0.00184706
0.00182857
0.00181031
0.00179228
0.00177445
0.00175684
0.00173941
0.00172216
0.00170507
0.00168812
0.00167127
0.00165449
0.00163773
0.00162092
0.00160399
0.00158679
0.00156939
0.00155144
0.0015253
3.22253e-05
0.000141106
0.000268673
0.00039759
0.000521187
0.000633042
0.000726766
0.000808131
0.000891969
0.000987824
0.00109758
0.00122265
0.0013591
0.00148648
0.00160666
0.00172157
0.00183217
0.00193881
0.00204182
0.00214156
0.00223825
0.00233208
0.00242326
0.002512
0.0025985
0.00268297
0.00276559
0.00284655
0.00292598
0.00300403
0.00308079
0.00315635
0.00323077
0.00330407
0.00337626
0.00344735
0.0035173
0.00358609
0.00365366
0.00371995
0.00378491
0.00384845
0.00391052
0.00397102
0.00402988
0.00408702
0.00414237
0.00419585
0.00424738
0.00429691
0.00434435
0.00438966
0.00443277
0.00447364
0.00451221
0.00454846
0.00458233
0.00461381
0.00464287
0.00466949
0.00469367
0.0047154
0.00473467
0.0047515
0.0047659
0.00477789
0.0047875
0.00479473
0.00479966
0.00480223
0.00480261
0.0048008
0.00479683
0.00479077
0.00478266
0.00477258
0.00476058
0.00474672
0.00473108
0.00471372
0.00469471
0.00467412
0.00465203
0.0046285
0.00460362
0.00457745
0.00455006
0.00452153
0.00449193
0.00446134
0.00442981
0.00439743
0.00436425
0.00433035
0.00429578
0.00426061
0.00422491
0.00418872
0.00415212
0.00411515
0.00407786
0.00404032
0.00400257
0.00396466
0.00392662
0.00388851
0.00385035
0.0038122
0.00377407
0.00373602
0.00369806
0.00366023
0.00362255
0.00358504
0.00354774
0.00351066
0.00347381
0.00343723
0.00340092
0.0033649
0.00332918
0.00329377
0.00325869
0.00322394
0.00318953
0.00315548
0.00312177
0.00308843
0.00305544
0.00302283
0.00299058
0.00295871
0.0029272
0.00289606
0.0028653
0.0028349
0.00280488
0.00277522
0.00274592
0.00271699
0.00268842
0.00266022
0.00263237
0.00260487
0.00257772
0.00255092
0.00252446
0.00249834
0.00247256
0.0024471
0.00242197
0.00239716
0.00237267
0.0023485
0.00232463
0.00230107
0.0022778
0.00225483
0.00223215
0.00220976
0.00218765
0.00216581
0.00214424
0.00212294
0.00210189
0.00208108
0.00206051
0.00204016
0.00202002
0.00200007
0.00198028
0.00196061
0.00194105
0.00192152
0.00190196
0.00188231
0.00186242
0.00184236
0.00182161
0.00179328
3.08511e-05
0.000135012
0.000257908
0.000383076
0.00050493
0.000620963
0.000731699
0.000841028
0.000956324
0.00108261
0.00122104
0.00137106
0.00151323
0.00164508
0.00176923
0.00188754
0.00200115
0.00211068
0.00221653
0.00231889
0.00241818
0.00251476
0.00260895
0.002701
0.00279114
0.00287956
0.00296646
0.00305199
0.00313629
0.00321946
0.00330158
0.00338271
0.00346289
0.00354214
0.00362043
0.00369775
0.00377406
0.0038493
0.00392341
0.00399631
0.00406792
0.00413816
0.00420695
0.00427418
0.00433977
0.00440363
0.00446567
0.0045258
0.00458394
0.00464001
0.00469393
0.00474564
0.00479507
0.00484216
0.00488686
0.00492913
0.00496891
0.00500618
0.00504091
0.00507308
0.00510267
0.00512968
0.0051541
0.00517594
0.0051952
0.0052119
0.00522606
0.00523772
0.00524689
0.00525361
0.00525793
0.00525986
0.00525952
0.00525691
0.00525209
0.00524513
0.00523607
0.00522499
0.00521195
0.00519702
0.00518025
0.00516173
0.00514153
0.00511971
0.00509635
0.00507152
0.0050453
0.00501775
0.00498896
0.00495898
0.0049279
0.00489577
0.00486268
0.00482869
0.00479386
0.00475826
0.00472195
0.004685
0.00464747
0.00460942
0.0045709
0.00453198
0.0044927
0.00445313
0.00441329
0.00437325
0.00433305
0.00429274
0.00425234
0.00421191
0.00417147
0.00413106
0.00409072
0.00405048
0.00401036
0.00397038
0.00393059
0.00389099
0.00385161
0.00381247
0.00377358
0.00373497
0.00369665
0.00365862
0.00362092
0.00358353
0.00354648
0.00350977
0.00347342
0.00343742
0.00340178
0.0033665
0.0033316
0.00329707
0.00326291
0.00322912
0.00319571
0.00316268
0.00313002
0.00309774
0.00306584
0.00303431
0.00300315
0.00297236
0.00294194
0.00291188
0.00288219
0.00285286
0.00282388
0.00279525
0.00276697
0.00273904
0.00271145
0.0026842
0.00265728
0.00263069
0.00260442
0.00257847
0.00255284
0.00252753
0.00250252
0.00247781
0.00245339
0.00242927
0.00240542
0.00238185
0.00235854
0.00233547
0.00231264
0.00229002
0.00226759
0.00224531
0.00222314
0.00220103
0.00217891
0.00215671
0.00213431
0.00211173
0.00208843
0.00205776
2.93023e-05
0.000128713
0.000248089
0.000372269
0.000496886
0.000620873
0.000745781
0.000875359
0.00101301
0.00116065
0.00131843
0.00148001
0.00162762
0.00176392
0.00189189
0.00201354
0.00213013
0.00224246
0.00235109
0.00245639
0.00255868
0.00265813
0.0027552
0.00285024
0.00294353
0.00303531
0.00312579
0.00321512
0.00330342
0.00339082
0.00347737
0.00356312
0.00364809
0.00373229
0.00381569
0.00389825
0.00397992
0.00406062
0.00414028
0.00421881
0.00429612
0.00437211
0.00444667
0.0045197
0.00459111
0.00466078
0.00472862
0.00479453
0.00485842
0.0049202
0.00497979
0.0050371
0.00509207
0.00514464
0.00519473
0.00524231
0.00528732
0.00532973
0.0053695
0.00540662
0.00544105
0.0054728
0.00550185
0.00552821
0.00555188
0.00557288
0.00559123
0.00560695
0.00562007
0.00563063
0.00563866
0.0056442
0.00564731
0.00564803
0.00564642
0.00564255
0.00563645
0.00562821
0.00561787
0.0056055
0.00559118
0.00557496
0.00555693
0.00553715
0.00551569
0.00549264
0.00546805
0.005442
0.00541456
0.00538581
0.00535582
0.00532465
0.00529237
0.00525906
0.00522477
0.00518959
0.00515356
0.00511676
0.00507924
0.00504108
0.00500232
0.00496304
0.00492327
0.00488309
0.00484253
0.00480165
0.00476049
0.00471911
0.00467755
0.00463584
0.00459403
0.00455216
0.00451026
0.00446837
0.00442652
0.00438473
0.00434305
0.00430149
0.00426008
0.00421885
0.00417781
0.00413698
0.00409639
0.00405606
0.00401598
0.0039762
0.0039367
0.00389751
0.00385864
0.00382009
0.00378188
0.00374401
0.00370649
0.00366932
0.00363251
0.00359606
0.00355997
0.00352425
0.00348889
0.00345391
0.0034193
0.00338506
0.00335119
0.00331769
0.00328456
0.0032518
0.0032194
0.00318737
0.00315571
0.0031244
0.00309345
0.00306286
0.00303262
0.00300273
0.00297318
0.00294398
0.00291511
0.00288658
0.00285839
0.00283052
0.00280297
0.00277575
0.00274883
0.00272222
0.00269592
0.0026699
0.00264416
0.0026187
0.00259348
0.00256849
0.00254371
0.0025191
0.00249462
0.00247021
0.00244582
0.00242137
0.00239674
0.00237194
0.00234643
0.00231361
2.76155e-05
0.000122125
0.000238103
0.000361648
0.000489134
0.000619959
0.000756376
0.000900168
0.00105295
0.0012152
0.00138743
0.00155318
0.00170477
0.00184493
0.00197641
0.00210117
0.00222057
0.00233552
0.00244669
0.00255457
0.00265955
0.00276193
0.00286198
0.0029599
0.0030561
0.00315088
0.00324447
0.00333706
0.00342879
0.00351978
0.00361009
0.00369976
0.00378881
0.00387722
0.00396497
0.00405201
0.00413827
0.00422366
0.00430809
0.00439147
0.0044737
0.00455465
0.00463421
0.00471228
0.00478873
0.00486347
0.00493636
0.00500732
0.00507623
0.00514301
0.00520756
0.0052698
0.00532965
0.00538704
0.0054419
0.00549419
0.00554384
0.00559082
0.0056351
0.00567664
0.00571542
0.00575143
0.00578467
0.00581513
0.00584283
0.00586776
0.00588996
0.00590943
0.00592622
0.00594036
0.00595187
0.00596081
0.00596722
0.00597114
0.00597263
0.00597176
0.00596859
0.00596316
0.00595554
0.00594579
0.00593398
0.00592018
0.00590446
0.00588689
0.00586753
0.00584648
0.00582378
0.00579953
0.00577378
0.00574661
0.0057181
0.0056883
0.00565728
0.00562513
0.00559189
0.00555765
0.00552246
0.00548639
0.0054495
0.00541186
0.00537353
0.00533456
0.00529501
0.00525493
0.00521438
0.00517342
0.00513208
0.00509042
0.00504848
0.00500631
0.00496394
0.00492143