/*--------------------------------*- C++ -*----------------------------------*\
| =========                 |                                                 |
| \\      /  F ield         | OpenFOAM: The Open Source CFD Toolbox           |
|  \\    /   O peration     | Version:  v2012                                 |
|   \\  /    A nd           | Website:  www.openfoam.com                      |
|    \\/     M anipulation  |                                                 |
\*---------------------------------------------------------------------------*/
FoamFile
{
    version     2.0;
    format      ascii;
    class       volScalarField;
    location    "3900";
    object      p;
}
// * * * * * * * * * * * * * * * * * * * * * * * * * * * * * * * * * * * * * //

dimensions      [0 2 -2 0 0 0 0];


internalField   nonuniform List<scalar> 
12225
(
514.685
55.5374
2.37333
0.291725
-1.88818
-3.36377
-3.80465
-4.00718
-4.21505
-4.3647
-4.40727
-4.40802
-4.40891
-4.43857
-4.49242
-4.56631
-4.72188
-4.93647
-122.17
0.248057
-2.70895
-0.755121
-2.20594
-3.51429
-3.94075
-4.12654
-4.26461
-4.35591
-4.42753
-4.48842
-4.54452
-4.58407
-4.61484
-4.64726
-4.72323
-4.84649
-200.637
-16.1393
-2.33704
-0.348426
-1.89038
-3.23404
-3.75933
-4.01347
-4.1851
-4.30141
-4.39509
-4.46487
-4.51555
-4.54416
-4.56497
-4.58438
-4.62296
-4.61994
-110.608
-10.9651
-2.16785
-0.422253
-1.77745
-3.01802
-3.58891
-3.90036
-4.11323
-4.25802
-4.36167
-4.43212
-4.4798
-4.50884
-4.5287
-4.5389
-4.5412
-4.4759
-61.5641
-8.13698
-3.61341
-1.20039
-2.00511
-2.98769
-3.51772
-3.8416
-4.06886
-4.22477
-4.33321
-4.40702
-4.457
-4.48791
-4.50447
-4.50335
-4.4784
-4.38855
-45.7222
-8.77651
-5.24974
-2.19091
-2.42008
-3.09077
-3.52606
-3.8266
-4.04668
-4.20208
-4.31202
-4.38842
-4.44002
-4.47071
-4.48292
-4.4729
-4.43295
-4.33767
-35.7861
-9.26787
-6.37167
-3.11555
-2.91237
-3.28014
-3.59431
-3.84816
-4.04683
-4.19363
-4.30067
-4.37655
-4.42774
-4.45728
-4.46646
-4.45201
-4.40757
-4.31925
-27.7697
-8.89879
-6.96533
-3.79409
-3.35283
-3.48952
-3.69205
-3.8939
-4.06582
-4.19959
-4.30043
-4.37348
-4.42324
-4.45197
-4.46038
-4.44598
-4.40433
-4.32831
-21.6818
-8.5119
-7.12625
-4.30227
-3.72056
-3.69772
-3.80859
-3.95878
-4.101
-4.21856
-4.31065
-4.37918
-4.42671
-4.45465
-4.46336
-4.45118
-4.41552
-4.35333
-16.6047
-8.13274
-7.08014
-4.74748
-4.0753
-3.92666
-3.95213
-4.04696
-4.15474
-4.25201
-4.33238
-4.39452
-4.43897
-4.46621
-4.47635
-4.4686
-4.44205
-4.39657
-12.6311
-7.67309
-6.89838
-5.09408
-4.39931
-4.16311
-4.11527
-4.15584
-4.22708
-4.30132
-4.36767
-4.42192
-4.46268
-4.48957
-4.5025
-4.50137
-4.48658
-4.4596
-9.69135
-7.14116
-6.62167
-5.31917
-4.67149
-4.39027
-4.28809
-4.28111
-4.31707
-4.36742
-4.41857
-4.46404
-4.50096
-4.5281
-4.54518
-4.55253
-4.55118
-4.54329
-7.65856
-6.59726
-6.29862
-5.42435
-4.87619
-4.59066
-4.45745
-4.41485
-4.42071
-4.44903
-4.48549
-4.52247
-4.55599
-4.58425
-4.60669
-4.62369
-4.63641
-4.64685
-6.36358
-6.10572
-5.97848
-5.43324
-5.009
-4.75107
-4.60996
-4.5467
-4.53112
-4.5421
-4.56654
-4.59666
-4.6281
-4.65858
-4.6873
-4.71435
-4.74068
-4.76767
-5.61542
-5.71514
-5.70187
-5.38384
-5.07909
-4.86639
-4.73543
-4.66617
-4.63946
-4.63995
-4.65685
-4.68314
-4.71454
-4.7486
-4.78419
-4.82109
-4.85968
-4.90076
-5.23616
-5.45301
-5.50102
-5.32058
-5.1082
-4.94131
-4.82923
-4.76444
-4.73596
-4.73328
-4.7481
-4.7745
-4.8085
-4.84765
-4.89057
-4.93665
-4.98576
-5.03812
-5.09495
-5.33712
-5.40988
-5.29198
-5.12808
-4.98909
-4.89158
-4.83381
-4.80882
-4.80873
-4.82664
-4.85728
-4.89687
-4.94289
-4.99372
-5.0484
-5.10643
-5.16761
-5.13259
-5.39288
-5.46705
-5.34102
-5.1673
-5.02171
-4.92154
-4.86445
-4.84258
-4.84749
-4.87167
-4.9095
-4.95681
-5.01083
-5.06962
-5.13204
-5.19728
-5.26497
-5.38472
-5.64715
-5.68296
-5.46795
-5.2189
-5.02867
-4.90773
-4.84476
-4.8258
-4.83809
-4.87171
-4.91947
-4.97649
-5.03955
-5.10657
-5.17619
-5.24767
-5.32054
-5.99384
-6.12877
-6.03465
-5.62732
-5.23955
-4.98005
-4.83378
-4.76904
-4.75966
-4.78607
-4.83458
-4.89628
-4.9656
-5.03918
-5.11497
-5.19183
-5.26909
-5.34657
-7.24122
-6.88117
-6.48597
-5.75388
-5.17544
-4.84573
-4.68949
-4.6397
-4.65385
-4.70451
-4.77471
-4.85451
-4.93847
-5.02359
-5.10844
-5.19227
-5.27489
-5.35638
-9.6325
-7.95602
-6.97416
-5.76369
-4.97181
-4.60496
-4.47534
-4.46752
-4.52284
-4.60845
-4.70623
-4.80709
-4.90664
-5.0033
-5.09656
-5.1866
-5.2737
-5.35842
-13.9735
-9.38232
-7.39452
-5.56118
-4.58692
-4.25708
-4.20859
-4.27389
-4.3866
-4.51467
-4.64293
-4.76511
-4.87936
-4.98598
-5.08604
-5.18075
-5.2711
-5.35798
-20.881
-10.9451
-7.54538
-5.04871
-4.00792
-3.82868
-3.92367
-4.08845
-4.26751
-4.43914
-4.59597
-4.73679
-4.86289
-4.97664
-5.08095
-5.1782
-5.27024
-5.35805
-29.7276
-11.9404
-7.02458
-4.11745
-3.25597
-3.37077
-3.66467
-3.9413
-4.18445
-4.39367
-4.57263
-4.72658
-4.85976
-4.97726
-5.08294
-5.1805
-5.27258
-5.36011
-43.0975
-12.605
-5.46378
-2.72017
-2.40503
-2.95604
-3.47782
-3.85637
-4.14817
-4.38246
-4.57474
-4.73445
-4.86896
-4.98593
-5.09053
-5.18666
-5.27784
-5.36448
-84.5905
-17.3645
-3.65502
-1.25656
-1.68764
-2.71423
-3.42944
-3.86312
-4.16605
-4.40243
-4.59912
-4.76121
-4.89183
-5.00251
-5.10101
-5.19357
-5.28426
-5.36939
-177.877
-26.8406
-3.67107
-0.761293
-1.52662
-2.83526
-3.60721
-4.00723
-4.2588
-4.45402
-4.63918
-4.80734
-4.94092
-5.04534
-5.12894
-5.20951
-5.2978
-5.37997
-154.782
-9.61833
-3.26333
-1.05938
-1.83459
-3.21295
-3.90648
-4.21601
-4.4045
-4.54345
-4.68695
-4.84371
-4.99153
-5.11631
-5.204
-5.27361
-5.35717
-5.44222
428.066
66.6145
7.06498
1.60829
-0.907112
-2.84898
-3.64463
-3.986
-4.30283
-4.57219
-4.69684
-4.73332
-4.78542
-4.88011
-5.01287
-5.14381
-5.23455
-5.31811
-8.50302
-8.49023
-8.48016
-8.52208
-8.61498
-8.71795
-8.79688
-8.83579
-8.83853
-8.82034
-8.79273
-8.76419
-8.74273
-8.73417
-8.73924
-8.75156
-8.76228
-8.76704
-8.76863
-8.77378
-8.78515
-8.81786
-8.90807
-9.08183
-9.33664
-9.65581
-10.0281
-10.4424
-10.8835
-11.3351
-11.7822
-12.2131
-12.6186
-12.9921
-13.3294
-13.628
-13.8872
-14.1068
-14.2875
-14.4304
-14.5367
-14.6078
-14.645
-14.6498
-14.6233
-14.5669
-14.4823
-14.3718
-14.2365
-14.0744
-13.8826
-13.6627
-13.4173
-13.148
-12.8563
-12.5431
-12.2095
-11.8564
-11.485
-11.0963
-10.6913
-10.2711
-9.83697
-9.38998
-8.93133
-8.46219
-7.98378
-7.49729
-7.00391
-6.50483
-6.00121
-5.49419
-4.98489
-4.47439
-3.96372
-3.45389
-2.94587
-2.44055
-1.9388
-1.44143
-0.949189
-0.462788
0.0171318
0.489978
0.955217
1.41237
1.861
2.30075
2.7313
3.15239
3.56382
3.9654
4.35697
4.7385
5.11025
5.4722
5.8239
6.16495
6.49535
6.81534
7.12516
7.425
7.71506
7.99551
8.26655
8.52837
8.78119
9.02521
9.26067
9.48776
9.70671
9.91777
10.1212
10.3172
10.5061
10.688
10.8633
11.0321
11.1947
11.3513
11.5022
11.6476
11.7876
11.9225
12.0526
12.1779
12.2987
12.4152
12.5275
12.6358
12.7403
12.8414
12.9392
13.0338
13.1251
13.2133
13.2985
13.3809
13.4606
13.5376
13.6122
13.6844
13.7543
13.8221
13.8878
13.9514
14.0131
14.073
14.131
14.1873
14.2419
14.2949
14.3463
14.3962
14.4445
14.4914
14.5369
14.5809
14.6236
14.6649
14.7048
14.7435
14.7808
14.8168
14.8516
14.8851
14.9174
14.9485
14.9786
15.0076
15.0359
15.0635
15.0909
15.1185
15.1472
15.1779
15.2133
15.2549
15.3129
15.3734
-8.56091
-8.59227
-8.66643
-8.75988
-8.8628
-8.95424
-9.01462
-9.03811
-9.02008
-8.95869
-8.86845
-8.77181
-8.69094
-8.64062
-8.61914
-8.61622
-8.62621
-8.653
-8.69236
-8.71398
-8.73586
-8.81546
-8.98081
-9.22429
-9.53383
-9.90691
-10.3338
-10.7942
-11.2667
-11.7336
-12.1826
-12.6045
-12.9928
-13.344
-13.6562
-13.9292
-14.1635
-14.36
-14.5199
-14.6444
-14.7346
-14.7916
-14.8164
-14.81
-14.773
-14.7062
-14.61
-14.4843
-14.3298
-14.1495
-13.9472
-13.7231
-13.4762
-13.2068
-12.9154
-12.6028
-12.2699
-11.9177
-11.547
-11.159
-10.7547
-10.3352
-9.90167
-9.45521
-8.997
-8.52823
-8.0501
-7.56381
-7.07055
-6.57151
-6.06784
-5.5607
-5.05119
-4.54039
-4.02935
-3.51908
-3.01052
-2.50461
-2.00219
-1.50408
-1.01104
-0.523773
-0.042935
0.430879
0.897125
1.35531
1.805
2.24579
2.67734
3.09934
3.51153
3.91367
4.30555
4.68704
5.05825
5.41938
5.77064
6.11203
6.44343
6.7647
7.07591
7.37717
7.66864
7.95049
8.2229
8.48607
8.74019
8.9855
9.22221
9.45057
9.67079
9.88311
10.0877
10.285
10.475
10.6581
10.8345
11.0044
11.1681
11.3258
11.4777
11.624
11.765
11.901
12.032
12.1584
12.2803
12.3979
12.5113
12.6207
12.7263
12.8281
12.926
13.0206
13.1121
13.2005
13.286
13.3686
13.4485
13.5259
13.6008
13.6733
13.7436
13.8116
13.8776
13.9415
14.0035
14.0637
14.122
14.1786
14.2335
14.2867
14.3383
14.3884
14.437
14.4841
14.5298
14.574
14.6169
14.6584
14.6985
14.7373
14.7748
14.811
14.8459
14.8795
14.912
14.9433
14.9735
15.0027
15.031
15.0588
15.0863
15.114
15.1427
15.1733
15.2081
15.2477
15.3014
15.3513
-8.68825
-8.76986
-8.88762
-8.993
-9.07524
-9.12836
-9.14824
-9.13364
-9.08324
-8.99943
-8.89146
-8.7762
-8.67729
-8.61396
-8.58616
-8.58212
-8.60253
-8.66225
-8.77062
-8.9208
-9.11131
-9.3528
-9.64855
-9.98901
-10.3621
-10.7584
-11.168
-11.5789
-11.9808
-12.3666
-12.7316
-13.0722
-13.3856
-13.6702
-13.9251
-14.1496
-14.3437
-14.5075
-14.6411
-14.7448
-14.8191
-14.8643
-14.8809
-14.8692
-14.8297
-14.7629
-14.669
-14.5482
-14.4003
-14.2263
-14.0278
-13.8056
-13.5603
-13.2925
-13.0029
-12.6921
-12.3611
-12.0107
-11.6418
-11.2555
-10.8528
-10.4347
-10.0025
-9.55719
-9.10003
-8.63215
-8.15477
-7.66908
-7.17628
-6.67754
-6.17405
-5.66693
-5.15732
-4.64629
-4.1349
-3.62415
-3.11502
-2.60841
-2.1052
-1.60622
-1.11221
-0.623903
-0.141947
0.333053
0.800549
1.26005
1.71111
2.15334
2.58641
3.01002
3.42394
3.82797
4.22196
4.60582
4.97953
5.34309
5.69654
6.03989
6.3731
6.69617
7.00919
7.31226
7.60554
7.88917
8.16335
8.42826
8.68411
8.93111
9.16949
9.39947
9.62128
9.83515
10.0413
10.24
10.4315
10.616
10.7937
10.965
11.13
11.289
11.4421
11.5897
11.7319
11.8689
12.0009
12.1281
12.2507
12.369
12.4831
12.5932
12.6994
12.8018
12.9008
12.9965
13.089
13.1783
13.2647
13.3482
13.429
13.5071
13.5827
13.656
13.7269
13.7956
13.8621
13.9266
13.9892
14.0498
14.1086
14.1657
14.221
14.2747
14.3267
14.3772
14.4261
14.4736
14.5196
14.5642
14.6073
14.6491
14.6895
14.7286
14.7663
14.8027
14.8378
14.8717
14.9043
14.9358
14.9661
14.9955
15.024
15.0518
15.0793
15.1069
15.1354
15.1654
15.1989
15.2355
15.2829
15.3165
-8.72611
-8.82316
-8.92417
-9.01045
-9.07452
-9.11377
-9.12572
-9.10777
-9.06001
-8.9876
-8.90195
-8.82002
-8.75994
-8.73438
-8.74798
-8.80285
-8.90302
-9.05234
-9.25145
-9.49462
-9.77238
-10.0778
-10.4052
-10.7483
-11.1019
-11.4607
-11.8193
-12.1726
-12.5159
-12.8454
-13.1576
-13.45
-13.7204
-13.9671
-14.1889
-14.385
-14.5548
-14.6977
-14.8137
-14.9027
-14.9647
-14.9998
-15.008
-14.9895
-14.9445
-14.8731
-14.7756
-14.6524
-14.5039
-14.3308
-14.1337
-13.9131
-13.6694
-13.4033
-13.1154
-12.8063
-12.4769
-12.1281
-11.7608
-11.3759
-10.9744
-10.5576
-10.1263
-9.68192
-9.22545
-8.75812
-8.28113
-7.79568
-7.30294
-6.80412
-6.30038
-5.79288
-5.28273
-4.77102
-4.25881
-3.74713
-3.23693
-2.72914
-2.22465
-1.72427
-1.22878
-0.738892
-0.255279
0.221454
0.690751
1.15211
1.60509
2.0493
2.48439
2.91007
3.32611
3.7323
4.12852
4.51466
4.89069
5.25657
5.61228
5.95779
6.29311
6.61827
6.93337
7.23851
7.53383
7.8195
8.09568
8.36257
8.62037
8.86929
9.10954
9.34136
9.56496
9.78058
9.98846
10.1889
10.382
10.5681
10.7474
10.9202
11.0867
11.247
11.4015
11.5504
11.6938
11.8321
11.9653
12.0937
12.2175
12.3369
12.4521
12.5632
12.6704
12.7739
12.8739
12.9706
13.0641
13.1544
13.2417
13.326
13.4076
13.4865
13.5629
13.6368
13.7084
13.7778
13.8449
13.9101
13.9732
14.0344
14.0937
14.1513
14.2071
14.2612
14.3137
14.3646
14.414
14.4618
14.5082
14.5531
14.5966
14.6387
14.6794
14.7188
14.7568
14.7935
14.8288
14.8629
14.8957
14.9274
14.9578
14.9873
15.0158
15.0436
15.0709
15.0982
15.126
15.1549
15.1862
15.2187
15.258
15.2766
-8.5125
-8.59733
-8.69743
-8.79446
-8.87163
-8.92409
-8.95088
-8.95294
-8.93482
-8.90496
-8.87552
-8.86051
-8.87265
-8.92141
-9.01288
-9.15009
-9.33303
-9.55702
-9.81358
-10.0947
-10.3947
-10.7097
-11.0351
-11.366
-11.6981
-12.0277
-12.3513
-12.666
-12.9689
-13.2577
-13.5303
-13.7852
-14.0209
-14.2361
-14.4299
-14.6015
-14.75
-14.8751
-14.9761
-15.0528
-15.1049
-15.1321
-15.1343
-15.1114
-15.0633
-14.9901
-14.8918
-14.7686
-14.6207
-14.4487
-14.2528
-14.0335
-13.7912
-13.5266
-13.2401
-12.9325
-12.6046
-12.2572
-11.8912
-11.5075
-11.1072
-10.6913
-10.2609
-9.81715
-9.36123
-8.89431
-8.41757
-7.93221
-7.43943
-6.94041
-6.43633
-5.92834
-5.41757
-4.9051
-4.39201
-3.87932
-3.36799
-2.85897
-2.35313
-1.8513
-1.35427
-0.862756
-0.377428
0.101098
0.572263
1.03556
1.49054
1.93681
2.37402
2.80188
3.22013
3.62859
4.0271
4.41555
4.79388
5.16205
5.52001
5.86776
6.20531
6.53271
6.85002
7.15737
7.45489
7.74274
8.02108
8.2901
8.55
8.80098
9.04329
9.27712
9.50271
9.72027
9.93005
10.1323
10.3272
10.5151
10.6961
10.8706
11.0386
11.2006
11.3567
11.507
11.6519
11.7916
11.9262
12.056
12.1812
12.3019
12.4183
12.5306
12.639
12.7436
12.8447
12.9424
13.0369
13.1281
13.2163
13.3015
13.384
13.4637
13.5409
13.6156
13.6879
13.758
13.8259
13.8917
13.9554
14.0172
14.0772
14.1353
14.1916
14.2463
14.2993
14.3507
14.4005
14.4488
14.4956
14.5409
14.5848
14.6272
14.6683
14.708
14.7463
14.7833
14.8189
14.8532
14.8862
14.918
14.9486
14.9781
15.0066
15.0342
15.0613
15.088
15.1148
15.1421
15.1706
15.1984
15.23
15.2361
-8.09182
-8.18033
-8.30143
-8.42422
-8.52943
-8.6098
-8.66813
-8.7104
-8.74432
-8.77973
-8.82759
-8.89816
-8.99938
-9.13596
-9.31002
-9.52045
-9.76254
-10.0307
-10.3195
-10.6233
-10.9366
-11.2548
-11.5738
-11.8903
-12.2014
-12.5051
-12.7994
-13.0828
-13.3539
-13.6112
-13.8536
-14.0801
-14.2895
-14.4809
-14.6534
-14.8061
-14.9382
-15.0492
-15.1383
-15.205
-15.249
-15.2696
-15.2667
-15.2399
-15.1891
-15.1141
-15.0149
-14.8914
-14.7439
-14.5726
-14.3776
-14.1595
-13.9185
-13.6552
-13.3701
-13.064
-12.7375
-12.3915
-12.0268
-11.6443
-11.2451
-10.8303
-10.4008
-9.95775
-9.50243
-9.03596
-8.55952
-8.07431
-7.58153
-7.08236
-6.57797
-6.06953
-5.55816
-5.04497
-4.53102
-4.01734
-3.50491
-2.99466
-2.4875
-1.98424
-1.48568
-0.992548
-0.505515
-0.0252011
0.447828
0.913063
1.37005
1.81838
2.25772
2.68775
3.10823
3.51894
3.91975
4.31051
4.69115
5.06162
5.42188
5.77191
6.11174
6.44142
6.76102
7.07064
7.37043
7.66052
7.94111
8.21235
8.47444
8.7276
8.97202
9.20794
9.43557
9.65515
9.86692
10.0711
10.2679
10.4577
10.6405
10.8168
10.9866
11.1503
11.308
11.46
11.6065
11.7477
11.8838
12.0151
12.1416
12.2637
12.3814
12.495
12.6047
12.7106
12.8128
12.9116
13.0071
13.0994
13.1885
13.2748
13.3581
13.4388
13.5168
13.5924
13.6656
13.7364
13.8051
13.8716
13.936
13.9985
14.0591
14.1178
14.1748
14.23
14.2836
14.3355
14.3858
14.4346
14.4819
14.5277
14.572
14.6148
14.6563
14.6963
14.735
14.7722
14.8082
14.8427
14.876
14.9079
14.9386
14.9681
14.9965
15.0239
15.0505
15.0764
15.1021
15.1274
15.1528
15.1757
15.2
15.1954
-7.62767
-7.72645
-7.86869
-8.01766
-8.15575
-8.27458
-8.37783
-8.47489
-8.5752
-8.68767
-8.81984
-8.97652
-9.16038
-9.37181
-9.60907
-9.87
-10.1516
-10.4492
-10.7574
-11.0714
-11.3866
-11.6999
-12.0083
-12.31
-12.6034
-12.8871
-13.1601
-13.4216
-13.6706
-13.9064
-14.1281
-14.3348
-14.5257
-14.7
-14.8569
-14.9956
-15.1153
-15.2153
-15.295
-15.3536
-15.3907
-15.4057
-15.3981
-15.3677
-15.314
-15.237
-15.1363
-15.0121
-14.8642
-14.6929
-14.4983
-14.2807
-14.0405
-13.7781
-13.4941
-13.1891
-12.8638
-12.5189
-12.1554
-11.7742
-11.3761
-10.9624
-10.5339
-10.0918
-9.63735
-9.17162
-8.69581
-8.2111
-7.7187
-7.21979
-6.71552
-6.20707
-5.69556
-5.18209
-4.66772
-4.1535
-3.64039
-3.12935
-2.62125
-2.11695
-1.61723
-1.12282
-0.634407
-0.15261
0.321999
0.788906
1.24765
1.69782
2.13907
2.57108
2.9936
3.40642
3.80935
4.20229
4.58512
4.95779
5.32026
5.67252
6.01458
6.3465
6.66835
6.98023
7.28227
7.57461
7.85742
8.13087
8.39516
8.65049
8.89706
9.13511
9.36484
9.58649
9.80029
10.0065
10.2053
10.397
10.5817
10.7598
10.9315
11.0969
11.2564
11.4101
11.5582
11.701
11.8387
11.9715
12.0995
12.223
12.3422
12.4571
12.5681
12.6753
12.7787
12.8787
12.9753
13.0687
13.159
13.2462
13.3306
13.4122
13.4912
13.5677
13.6417
13.7134
13.7829
13.8502
13.9154
13.9786
14.0399
14.0993
14.1569
14.2128
14.2669
14.3194
14.3703
14.4196
14.4674
14.5137
14.5584
14.6018
14.6436
14.684
14.7231
14.7607
14.7969
14.8317
14.8651
14.8972
14.928
14.9575
14.9857
15.0128
15.0388
15.0639
15.0881
15.1112
15.1333
15.1514
15.1691
15.1552
-7.27425
-7.36759
-7.51981
-7.68577
-7.85288
-8.01427
-8.16947
-8.32637
-8.49315
-8.67559
-8.87769
-9.10056
-9.34273
-9.60336
-9.88184
-10.1758
-10.4815
-10.7945
-11.1107
-11.4264
-11.7389
-12.0457
-12.3451
-12.6358
-12.9167
-13.1869
-13.4459
-13.693
-13.9275
-14.1489
-14.3566
-14.5499
-14.7281
-14.8905
-15.0363
-15.1649
-15.2755
-15.3673
-15.4396
-15.4919
-15.5234
-15.5337
-15.5222
-15.4884
-15.432
-15.3527
-15.2504
-15.1248
-14.976
-14.804
-14.609
-14.3912
-14.151
-13.8888
-13.6051
-13.3005
-12.9758
-12.6315
-12.2687
-11.8882
-11.4909
-11.0779
-10.6502
-10.209
-9.75534
-9.2904
-8.81535
-8.33137
-7.83965
-7.34135
-6.83765
-6.32968
-5.81857
-5.30541
-4.79126
-4.27714
-3.76404
-3.25289
-2.74457
-2.23993
-1.73975
-1.24477
-0.755657
-0.273048
0.202489
0.670436
1.13033
1.58176
2.02436
2.45782
2.88188
3.29631
3.70093
4.09561
4.48024
4.85475
5.21909
5.57327
5.91729
6.2512
6.57507
6.88899
7.19309
7.48751
7.7724
8.04794
8.31432
8.57174
8.82039
9.06049
9.29227
9.51595
9.73176
9.93993
10.1407
10.3343
10.521
10.7009
10.8744
11.0416
11.2028
11.3582
11.5081
11.6525
11.7918
11.9261
12.0557
12.1807
12.3013
12.4176
12.53
12.6384
12.7432
12.8444
12.9422
13.0367
13.1281
13.2164
13.3019
13.3845
13.4645
13.5419
13.6169
13.6895
13.7598
13.8279
13.8939
13.9579
14.0199
14.08
14.1383
14.1948
14.2496
14.3027
14.3542
14.4041
14.4524
14.4992
14.5445
14.5882
14.6305
14.6714
14.7108
14.7487
14.7853
14.8203
14.854
14.8862
14.917
14.9465
14.9745
15.0012
15.0265
15.0505
15.0731
15.0939
15.1127
15.126
15.1377
15.1157
-7.08642
-7.17256
-7.3269
-7.4995
-7.6832
-7.87594
-8.07433
-8.28036
-8.4985
-8.73108
-8.97839
-9.24041
-9.51703
-9.80784
-10.1109
-10.423
-10.7404
-11.0599
-11.3784
-11.6932
-12.0023
-12.3041
-12.5971
-12.8804
-13.1532
-13.4149
-13.665
-13.903
-14.1284
-14.3407
-14.5395
-14.7241
-14.894
-15.0485
-15.187
-15.3086
-15.4128
-15.4988
-15.5659
-15.6134
-15.6407
-15.6472
-15.6323
-15.5956
-15.5367
-15.4553
-15.3511
-15.224
-15.0738
-14.9008
-14.7049
-14.4864
-14.2456
-13.983
-13.699
-13.3943
-13.0695
-12.7253
-12.3626
-11.9823
-11.5854
-11.1728
-10.7457
-10.305
-9.85195
-9.38767
-8.91332
-8.43007
-7.93908
-7.44153
-6.93858
-6.43135
-5.92096
-5.40848
-4.89498
-4.38146
-3.8689
-3.35821
-2.85029
-2.34595
-1.84599
-1.35112
-0.862022
-0.379322
0.0964138
0.564669
1.02498
1.47693
1.92015
2.35434
2.77923
3.19458
3.60022
3.99601
4.38184
4.75762
5.12331
5.4789
5.8244
6.15984
6.4853
6.80087
7.10666
7.40281
7.68947
7.96681
8.235
8.49424
8.74474
8.98669
9.22033
9.44586
9.66351
9.87352
10.0761
10.2715
10.46
10.6417
10.8169
10.9859
11.1488
11.3059
11.4573
11.6034
11.7443
11.8801
12.0112
12.1376
12.2596
12.3774
12.4911
12.6009
12.7069
12.8094
12.9084
13.0041
13.0966
13.186
13.2725
13.3562
13.4372
13.5156
13.5915
13.665
13.7361
13.8051
13.8719
13.9367
13.9995
14.0604
14.1194
14.1766
14.232
14.2858
14.3378
14.3883
14.4372
14.4845
14.5303
14.5745
14.6173
14.6586
14.6984
14.7367
14.7735
14.8089
14.8427
14.8751
14.906
14.9353
14.9631
14.9893
15.0139
15.0367
15.0576
15.076
15.0914
15.1003
15.1065
15.0774
-7.06122
-7.14826
-7.29607
-7.46504
-7.65205
-7.85697
-8.07663
-8.30905
-8.55448
-8.81344
-9.08537
-9.36944
-9.66537
-9.97197
-10.2865
-10.6061
-10.9277
-11.2487
-11.5667
-11.8796
-12.1858
-12.4838
-12.7727
-13.0515
-13.3195
-13.5764
-13.8214
-14.0544
-14.2747
-14.482
-14.6758
-14.8555
-15.0206
-15.1705
-15.3045
-15.4219
-15.522
-15.6042
-15.6677
-15.7119
-15.7361
-15.7397
-15.7222
-15.6831
-15.622
-15.5386
-15.4326
-15.3038
-15.1522
-14.9778
-14.7808
-14.5613
-14.3196
-14.0563
-13.7717
-13.4665
-13.1413
-12.7969
-12.4342
-12.0539
-11.6571
-11.2448
-10.818
-10.3778
-9.92537
-9.46176
-8.98816
-8.50573
-8.01563
-7.51902
-7.01704
-6.51081
-6.00143
-5.48998
-4.97749
-4.46497
-3.95338
-3.44362
-2.93658
-2.43307
-1.93386
-1.43968
-0.951199
-0.469021
0.006286
0.474213
0.934298
1.38613
1.82936
2.26366
2.68876
3.10443
3.51049
3.90679
4.29323
4.6697
5.03618
5.39264
5.73909
6.07556
6.40213
6.71888
7.02592
7.32337
7.61139
7.89013
8.15978
8.42051
8.67253
8.91603
9.15123
9.37835
9.59761
9.80923
10.0134
10.2105
10.4005
10.5839
10.7607
10.9312
11.0957
11.2543
11.4073
11.5549
11.6972
11.8346
11.9671
12.0949
12.2183
12.3374
12.4524
12.5635
12.6708
12.7744
12.8746
12.9714
13.0651
13.1556
13.2431
13.3279
13.4098
13.4892
13.566
13.6404
13.7125
13.7823
13.8499
13.9155
13.9791
14.0407
14.1004
14.1583
14.2144
14.2688
14.3215
14.3725
14.422
14.4698
14.5161
14.5609
14.6041
14.6459
14.6861
14.7248
14.7619
14.7975
14.8316
14.8641
14.895
14.9242
14.9517
14.9774
15.0011
15.0227
15.0419
15.0578
15.07
15.0746
15.0758
15.0407
-7.17463
-7.25302
-7.38396
-7.53996
-7.7188
-7.92015
-8.14131
-8.37967
-8.6336
-8.90171
-9.18231
-9.47426
-9.77662
-10.0874
-10.4041
-10.7242
-11.0451
-11.3646
-11.6806
-11.9912
-12.295
-12.5907
-12.8772
-13.1538
-13.4198
-13.6747
-13.9178
-14.1489
-14.3673
-14.5727
-14.7645
-14.9423
-15.1053
-15.2531
-15.3849
-15.5001
-15.5981
-15.6781
-15.7394
-15.7815
-15.8036
-15.8052
-15.7857
-15.7447
-15.6818
-15.5966
-15.4889
-15.3585
-15.2055
-15.0298
-14.8315
-14.6109
-14.3683
-14.1041
-13.8188
-13.513
-13.1875
-12.8429
-12.48
-12.0998
-11.7033
-11.2914
-10.8651
-10.4256
-9.97391
-9.51122
-9.03865
-8.55736
-8.06849
-7.57319
-7.07258
-6.56778
-6.05988
-5.54993
-5.03896
-4.52796
-4.01786
-3.50958
-3.00397
-2.50184
-2.00395
-1.511
-1.02367
-0.542556
-0.0682193
0.398835
0.858152
1.30932
1.75199
2.18584
2.6106
3.02605
3.43199
3.82828
4.2148
4.59147
4.95825
5.3151
5.66204
5.9991
6.32634
6.64385
6.95172
7.25009
7.53909
7.81889
8.08964
8.35153
8.60476
8.84951
9.086
9.31445
9.53505
9.74804
9.95364
10.1521
10.3435
10.5283
10.7065
10.8785
11.0444
11.2044
11.3588
11.5078
11.6515
11.7902
11.924
12.0532
12.1779
12.2982
12.4145
12.5268
12.6353
12.7401
12.8414
12.9393
13.034
13.1256
13.2142
13.2999
13.3829
13.4632
13.5409
13.6162
13.6891
13.7598
13.8282
13.8946
13.9589
14.0212
14.0816
14.1402
14.197
14.252
14.3054
14.357
14.407
14.4555
14.5023
14.5476
14.5913
14.6335
14.6741
14.7131
14.7506
14.7865
14.8208
14.8534
14.8842
14.9133
14.9405
14.9656
14.9885
15.0089
15.0263
15.0398
15.0488
15.0495
15.0462
15.0058
-7.35265
-7.41719
-7.52809
-7.66659
-7.83056
-8.01948
-8.23102
-8.46247
-8.71137
-8.97536
-9.25221
-9.54072
-9.83966
-10.1468
-10.4597
-10.776
-11.0934
-11.4097
-11.7229
-12.0314
-12.3336
-12.6282
-12.9142
-13.1907
-13.4568
-13.7121
-13.9558
-14.1874
-14.4064
-14.6123
-14.8045
-14.9825
-15.1456
-15.2932
-15.4247
-15.5393
-15.6366
-15.7156
-15.7759
-15.8168
-15.8376
-15.8377
-15.8168
-15.7743
-15.7099
-15.6232
-15.514
-15.3822
-15.2279
-15.0509
-14.8515
-14.6299
-14.3864
-14.1215
-13.8357
-13.5296
-13.2039
-12.8593
-12.4967
-12.1169
-11.721
-11.3098
-10.8845
-10.4461
-9.99576
-9.53452
-9.06354
-8.58396
-8.09691
-7.60352
-7.1049
-6.60215
-6.09633
-5.5885
-5.07966
-4.57078
-4.0628
-3.55661
-3.05305
-2.5529
-2.05694
-1.56584
-1.08028
-0.600832
-0.128063
0.337532
0.795504
1.24545
1.68701
2.11987
2.54377
2.95848
3.36381
3.7596
4.14575
4.52217
4.8888
5.24563
5.59265
5.9299
6.25744
6.57534
6.8837
7.18265
7.47231
7.75284
8.0244
8.28717
8.54134
8.78708
9.02462
9.25415
9.47588
9.69003
9.89681
10.0965
10.2892
10.4752
10.6547
10.8279
10.9951
11.1564
11.3121
11.4623
11.6073
11.7472
11.8823
12.0127
12.1386
12.2602
12.3776
12.491
12.6006
12.7066
12.809
12.908
13.0037
13.0963
13.1859
13.2726
13.3565
13.4377
13.5163
13.5924
13.6662
13.7377
13.8069
13.8741
13.9391
14.0022
14.0633
14.1226
14.18
14.2357
14.2897
14.3419
14.3925
14.4415
14.4889
14.5346
14.5788
14.6215
14.6625
14.702
14.7398
14.7759
14.8104
14.8431
14.874
14.9029
14.9297
14.9543
14.9763
14.9954
15.011
15.0223
15.0283
15.0253
15.018
14.9731
-7.52721
-7.57868
-7.67126
-7.7919
-7.93864
-8.11092
-8.30667
-8.5235
-8.75893
-9.0104
-9.27589
-9.55427
-9.84412
-10.1432
-10.4491
-10.7594
-11.0719
-11.3845
-11.6951
-12.002
-12.3036
-12.5985
-12.8856
-13.1637
-13.432
-13.6896
-13.9359
-14.1701
-14.3917
-14.6
-14.7943
-14.9742
-15.1389
-15.2877
-15.4201
-15.5354
-15.6329
-15.712
-15.772
-15.8123
-15.8323
-15.8316
-15.8097
-15.766
-15.7004
-15.6125
-15.5021
-15.3692
-15.2138
-15.0359
-14.8356
-14.6134
-14.3694
-14.1042
-13.8183
-13.5123
-13.1869
-12.8429
-12.481
-12.1023
-11.7075
-11.2978
-10.8741
-10.4376
-9.98921
-9.53014
-9.06149
-8.58437
-8.0999
-7.60919
-7.11334
-6.61341
-6.11047
-5.60554
-5.09961
-4.59363
-4.08853
-3.58518
-3.0844
-2.58697
-2.09363
-1.60508
-1.12194
-0.644821
-0.174252
0.289269
0.7453
1.19344
1.63334
2.06468
2.4872
2.90067
3.3049
3.69974
4.08507
4.46081
4.82689
5.1833
5.53003
5.86711
6.1946
6.51256
6.8211
7.12033
7.41036
7.69136
7.96347
8.22687
8.48174
8.72825
8.96662
9.19703
9.4197
9.63484
9.84264
10.0433
10.2371
10.4243
10.6049
10.7793
10.9476
11.1101
11.2669
11.4184
11.5645
11.7056
11.8418
11.9734
12.1004
12.2231
12.3417
12.4562
12.5669
12.6739
12.7774
12.8774
12.9741
13.0677
13.1582
13.2458
13.3307
13.4128
13.4923
13.5693
13.6438
13.7161
13.7862
13.854
13.9198
13.9836
14.0455
14.1054
14.1635
14.2198
14.2744
14.3273
14.3785
14.428
14.4759
14.5222
14.5669
14.61
14.6514
14.6913
14.7294
14.7659
14.8006
14.8334
14.8642
14.893
14.9195
14.9435
14.9646
14.9825
14.9964
15.0055
15.0087
15.0024
14.9914
14.9428
-7.65406
-7.69625
-7.77345
-7.87743
-8.00675
-8.16092
-8.3382
-8.53661
-8.75412
-8.98853
-9.23847
-9.50321
-9.78128
-10.0704
-10.3681
-10.6719
-10.9796
-11.2889
-11.5978
-11.9043
-12.2067
-12.5034
-12.7932
-13.0746
-13.3468
-13.6085
-13.859
-14.0974
-14.3229
-14.5349
-14.7327
-14.9156
-15.0829
-15.2339
-15.368
-15.4846
-15.583
-15.6626
-15.7227
-15.7629
-15.7826
-15.7813
-15.7586
-15.7142
-15.6476
-15.5589
-15.4477
-15.314
-15.1579
-14.9794
-14.7788
-14.5564
-14.3125
-14.0476
-13.7623
-13.4571
-13.1327
-12.79
-12.4298
-12.0529
-11.6602
-11.2529
-10.8318
-10.398
-9.95259
-9.49667
-9.03133
-8.55765
-8.07674
-7.58968
-7.09756
-6.60141
-6.10229
-5.60118
-5.09906
-4.59687
-4.0955
-3.59582
-3.09864
-2.60473
-2.11479
-1.62951
-1.14953
-0.675421
-0.20772
0.253088
0.706562
1.15231
1.58997
2.01925
2.43987
2.8516
3.25426
3.6477
4.03178
4.40642
4.77157
5.12719
5.47327
5.80986
6.13698
6.45471
6.76314
7.06237
7.35252
7.63374
7.90618
8.16999
8.42535
8.67245
8.91146
9.14259
9.36604
9.582
9.79068
9.9923
10.1871
10.3752
10.5568
10.7323
10.9017
11.0652
11.2232
11.3757
11.5229
11.6651
11.8025
11.9351
12.0632
12.187
12.3066
12.4222
12.534
12.642
12.7464
12.8475
12.9452
13.0397
13.1312
13.2197
13.3054
13.3884
13.4687
13.5466
13.622
13.695
13.7659
13.8345
13.901
13.9655
14.0281
14.0887
14.1475
14.2044
14.2596
14.3131
14.3649
14.415
14.4634
14.5102
14.5554
14.599
14.6409
14.6811
14.7196
14.7564
14.7913
14.8242
14.8551
14.8837
14.9099
14.9333
14.9536
14.9703
14.9827
14.9896
14.9903
14.981
14.9666
14.9148
-7.70922
-7.74739
-7.81293
-7.90195
-8.01424
-8.14974
-8.3074
-8.48587
-8.68359
-8.89902
-9.13166
-9.38142
-9.64691
-9.92574
-10.2153
-10.5132
-10.8169
-11.124
-11.4323
-11.7398
-12.0445
-12.3445
-12.6383
-12.9245
-13.2017
-13.4688
-13.7246
-13.9682
-14.1987
-14.4152
-14.6171
-14.8036
-14.974
-15.1277
-15.2639
-15.3821
-15.4816
-15.562
-15.6225
-15.6628
-15.6824
-15.6808
-15.6577
-15.6128
-15.5457
-15.4565
-15.345
-15.2111
-15.0549
-14.8766
-14.6764
-14.4546
-14.2116
-13.9479
-13.664
-13.3606
-13.0384
-12.698
-12.3405
-11.9666
-11.5772
-11.1733
-10.7559
-10.3261
-9.88487
-9.43327
-8.97239
-8.50331
-8.0271
-7.54482
-7.05753
-6.56625
-6.07199
-5.57574
-5.07844
-4.58101
-4.08432
-3.58922
-3.09651
-2.60695
-2.12124
-1.64003
-1.16394
-0.693566
-0.229418
0.228019
0.67831
1.12106
1.55593
1.9826
2.4008
2.81031
3.21094
3.60252
3.98494
4.3581
4.72194
5.07642
5.42153
5.7573
6.08377
6.40099
6.70904
7.00804
7.29808
7.57931
7.85186
8.1159
8.37158
8.61908
8.85859
9.09029
9.31438
9.53104
9.74049
9.94292
10.1385
10.3275
10.5101
10.6865
10.8569
11.0215
11.1804
11.334
11.4823
11.6255
11.7639
11.8976
12.0268
12.1516
12.2723
12.3889
12.5016
12.6107
12.7161
12.8181
12.9167
13.0122
13.1046
13.194
13.2806
13.3645
13.4457
13.5243
13.6005
13.6744
13.746
13.8154
13.8826
13.9478
14.0111
14.0724
14.1318
14.1894
14.2452
14.2993
14.3517
14.4024
14.4514
14.4988
14.5445
14.5885
14.6309
14.6715
14.7104
14.7475
14.7826
14.8157
14.8466
14.8751
14.901
14.9239
14.9435
14.959
14.9699
14.9749
14.9732
14.9612
14.9438
14.8894
-7.69456
-7.72863
-7.78531
-7.86053
-7.95564
-8.07144
-8.20796
-8.36482
-8.54124
-8.73652
-8.95112
-9.18552
-9.43848
-9.70751
-9.98991
-10.283
-10.5841
-10.8906
-11.2001
-11.5102
-11.8186
-12.1234
-12.4226
-12.7146
-12.9978
-13.2709
-13.5326
-13.7819
-14.0176
-14.239
-14.4452
-14.6353
-14.8089
-14.965
-15.1033
-15.2231
-15.3238
-15.4049
-15.466
-15.5065
-15.5262
-15.5246
-15.5015
-15.4565
-15.3895
-15.3005
-15.1893
-15.0559
-14.9005
-14.7233
-14.5244
-14.3043
-14.0633
-13.8019
-13.5208
-13.2204
-12.9016
-12.565
-12.2114
-11.8418
-11.4571
-11.0581
-10.6458
-10.2213
-9.78559
-9.33966
-8.88457
-8.42139
-7.95115
-7.4749
-6.99365
-6.50842
-6.02018
-5.52989
-5.03848
-4.54684
-4.05583
-3.56627
-3.07895
-2.59461
-2.11396
-1.63763
-1.16623
-0.700311
-0.240406
0.213007
0.659493
1.09866
1.53017
1.9537
2.36898
2.7758
3.17394
3.56326
3.94363
4.31493
4.67711
5.03013
5.37397
5.70865
6.03419
6.35065
6.6581
6.95664
7.24637
7.52741
7.79991
8.064
8.31985
8.56762
8.80749
9.03964
9.26425
9.48151
9.69162
9.89477
10.0912
10.281
10.4644
10.6417
10.813
10.9785
11.1385
11.293
11.4423
11.5866
11.726
11.8607
11.9909
12.1167
12.2384
12.356
12.4698
12.5798
12.6862
12.7891
12.8887
12.9851
13.0784
13.1688
13.2562
13.3409
13.4229
13.5024
13.5794
13.6541
13.7264
13.7966
13.8646
13.9305
13.9944
14.0564
14.1165
14.1748
14.2313
14.286
14.339
14.3902
14.4398
14.4877
14.534
14.5785
14.6214
14.6625
14.7018
14.7392
14.7746
14.8078
14.8388
14.8673
14.8929
14.9154
14.9342
14.9487
14.9582
14.9615
14.9576
14.9432
14.9231
14.8665
-7.62988
-7.65499
-7.70111
-7.75975
-7.83451
-7.92745
-8.03978
-8.17237
-8.32545
-8.4993
-8.69532
-8.91452
-9.15568
-9.41609
-9.69278
-9.98275
-10.283
-10.5907
-10.903
-11.2171
-11.5306
-11.8411
-12.1464
-12.4448
-12.7343