/*--------------------------------*- C++ -*----------------------------------*\
  =========                 |
  \\      /  F ield         | OpenFOAM: The Open Source CFD Toolbox
   \\    /   O peration     | Website:  https://openfoam.org
    \\  /    A nd           | Version:  8
     \\/     M anipulation  |
\*---------------------------------------------------------------------------*/
FoamFile
{
    version     2.0;
    format      ascii;
    class       surfaceScalarField;
    location    "3900";
    object      phi;
}
// * * * * * * * * * * * * * * * * * * * * * * * * * * * * * * * * * * * * * //

dimensions      [0 3 -1 0 0 0 0];

internalField   nonuniform List<scalar> 
24170
(
3.92539e-06
-7.91498e-07
3.76465e-06
1.6075e-07
3.63345e-06
1.31209e-07
3.43331e-06
2.00144e-07
3.28028e-06
1.53027e-07
3.18901e-06
9.11907e-08
3.13091e-06
5.81105e-08
3.08609e-06
4.58914e-08
3.04612e-06
4.23241e-08
3.01059e-06
3.81636e-08
2.97876e-06
3.38032e-08
2.94904e-06
3.07709e-08
2.92187e-06
2.73782e-08
2.89642e-06
2.52002e-08
2.87227e-06
2.36054e-08
2.85193e-06
1.94838e-08
2.84097e-06
9.85682e-09
-6.37778e-09
2.84668e-06
3.58445e-06
-9.19499e-07
3.80424e-06
-5.90412e-08
3.74282e-06
1.92629e-07
3.6906e-06
2.52375e-07
3.63729e-06
2.06333e-07
3.59023e-06
1.3828e-07
3.55289e-06
9.55998e-08
3.52309e-06
7.56602e-08
3.49853e-06
6.65705e-08
3.47732e-06
5.92161e-08
3.45871e-06
5.25301e-08
3.44252e-06
4.72651e-08
3.42795e-06
4.23381e-08
3.41466e-06
3.87865e-08
3.40269e-06
3.57304e-08
3.39122e-06
3.10524e-08
3.38036e-06
2.0842e-08
4.78058e-09
3.36943e-06
3.68518e-06
-7.92482e-07
3.83639e-06
-2.1025e-07
3.91494e-06
1.14082e-07
3.94502e-06
2.22293e-07
3.94408e-06
2.07265e-07
3.92749e-06
1.54898e-07
3.90755e-06
1.15615e-07
3.88932e-06
9.3645e-08
3.874e-06
8.11973e-08
3.86056e-06
7.19167e-08
3.84834e-06
6.42568e-08
3.83728e-06
5.81359e-08
3.82691e-06
5.27797e-08
3.8174e-06
4.84756e-08
3.80891e-06
4.44342e-08
3.80097e-06
3.92541e-08
3.79195e-06
3.02081e-08
1.77978e-08
3.77944e-06
4.05359e-06
-6.4151e-07
4.1146e-06
-2.71259e-07
4.20799e-06
2.06918e-08
4.26635e-06
1.63932e-07
4.29069e-06
1.82927e-07
4.29287e-06
1.52749e-07
4.28571e-06
1.22819e-07
4.27631e-06
1.02844e-07
4.26727e-06
8.96869e-08
4.25873e-06
7.98183e-08
4.25056e-06
7.19504e-08
4.24283e-06
6.56354e-08
4.23534e-06
6.0247e-08
4.22823e-06
5.56939e-08
4.22149e-06
5.13533e-08
4.21464e-06
4.63465e-08
4.20598e-06
3.91851e-08
3.06609e-08
4.19351e-06
4.50491e-06
-5.09114e-07
4.51536e-06
-2.81708e-07
4.58529e-06
-4.9234e-08
4.64665e-06
1.02566e-07
4.68258e-06
1.46993e-07
4.69688e-06
1.38474e-07
4.69946e-06
1.20238e-07
4.69723e-06
1.04926e-07
4.69331e-06
9.32558e-08
4.68868e-06
8.40581e-08
4.68366e-06
7.66427e-08
4.67851e-06
7.06089e-08
4.67321e-06
6.54954e-08
4.66783e-06
6.11069e-08
4.66227e-06
5.70063e-08
4.65606e-06
5.27047e-08
4.64786e-06
4.75926e-08
4.26069e-08
4.63612e-06
5.00014e-06
-3.94663e-07
4.98614e-06
-2.67704e-07
5.03069e-06
-9.37788e-08
5.08506e-06
4.81982e-08
5.12454e-06
1.07517e-07
5.14608e-06
1.16941e-07
5.15584e-06
1.1049e-07
5.1594e-06
1.01286e-07
5.15985e-06
9.26086e-08
5.15859e-06
8.50844e-08
5.15629e-06
7.87438e-08
5.15333e-06
7.34437e-08
5.14984e-06
6.89349e-08
5.14589e-06
6.5065e-08
5.14136e-06
6.15883e-08
5.13584e-06
5.83113e-08
5.12839e-06
5.51504e-08
5.30533e-08
5.11808e-06
5.54382e-06
-2.97475e-07
5.51664e-06
-2.40529e-07
5.54055e-06
-1.17685e-07
5.58388e-06
4.87066e-09
5.62166e-06
6.97348e-08
5.64656e-06
9.20466e-08
5.66107e-06
9.5969e-08
5.66906e-06
9.32478e-08
5.67315e-06
8.84251e-08
5.67481e-06
8.3302e-08
5.6749e-06
7.85528e-08
5.6739e-06
7.43767e-08
5.67204e-06
7.0767e-08
5.6694e-06
6.76973e-08
5.66591e-06
6.51014e-08
5.66127e-06
6.29901e-08
5.65494e-06
6.15492e-08
6.15344e-08
5.6465e-06
4.34788e-06
-2.39242e-07
4.32251e-06
-2.15162e-07
4.33078e-06
-1.25951e-07
4.35419e-06
-1.8536e-08
4.3784e-06
4.55264e-08
4.39646e-06
7.39854e-08
4.40841e-06
8.40234e-08
4.41597e-06
8.56744e-08
4.42059e-06
8.37685e-08
4.42325e-06
8.05986e-08
4.42456e-06
7.71976e-08
4.4249e-06
7.40039e-08
4.42446e-06
7.11814e-08
4.42334e-06
6.88118e-08
4.42151e-06
6.69386e-08
4.41884e-06
6.56729e-08
4.41514e-06
6.52709e-08
6.63511e-08
4.41035e-06
5.08621e-06
-1.85599e-07
5.05777e-06
-1.86718e-07
5.0584e-06
-1.26578e-07
5.07686e-06
-3.7002e-08
5.09918e-06
2.32145e-08
5.11773e-06
5.54368e-08
5.13124e-06
7.05077e-08
5.14059e-06
7.63175e-08
5.14686e-06
7.74764e-08
5.15094e-06
7.64981e-08
5.15344e-06
7.46773e-08
5.15477e-06
7.26675e-08
5.15514e-06
7.07981e-08
5.15468e-06
6.92657e-08
5.15341e-06
6.82118e-08
5.15128e-06
6.78152e-08
5.14821e-06
6.83525e-08
7.02741e-08
5.14429e-06
5.94839e-06
-1.38193e-07
5.91832e-06
-1.56649e-07
5.91161e-06
-1.19866e-07
5.924e-06
-4.93964e-08
5.94286e-06
4.35915e-09
5.96058e-06
3.77174e-08
5.97479e-06
5.62919e-08
5.98546e-06
6.56472e-08
5.9932e-06
6.97366e-08
5.99867e-06
7.10182e-08
6.00242e-06
7.09165e-08
6.00484e-06
7.02409e-08
6.00618e-06
6.94593e-08
6.00657e-06
6.88686e-08
6.0061e-06
6.86893e-08
6.00478e-06
6.91371e-08
6.00267e-06
7.04633e-08
7.29772e-08
5.99997e-06
6.95439e-06
-9.83129e-08
6.92401e-06
-1.26278e-07
6.91113e-06
-1.06984e-07
6.9168e-06
-5.50653e-08
6.93087e-06
-9.7099e-09
6.94635e-06
2.224e-08
6.96015e-06
4.24936e-08
6.9714e-06
5.4397e-08
6.98017e-06
6.09623e-08
6.98684e-06
6.43486e-08
6.9918e-06
6.59562e-08
6.99537e-06
6.66657e-08
6.9978e-06
6.70317e-08
6.99924e-06
6.74253e-08
6.99982e-06
6.81145e-08
6.99963e-06
6.93256e-08
6.99883e-06
7.12687e-08
7.41303e-08
6.99768e-06
8.12719e-06
-6.64876e-08
8.09793e-06
-9.70208e-08
8.08056e-06
-8.96086e-08
8.07955e-06
-5.40583e-08
8.08793e-06
-1.80888e-08
8.09985e-06
1.03235e-08
8.11198e-06
3.03597e-08
8.12286e-06
4.35229e-08
8.13202e-06
5.17963e-08
8.1395e-06
5.68687e-08
8.14548e-06
5.99765e-08
8.15018e-06
6.1971e-08
8.15378e-06
6.34323e-08
8.15644e-06
6.47581e-08
8.15832e-06
6.62345e-08
8.15958e-06
6.80752e-08
8.1604e-06
7.04419e-08
7.34399e-08
8.16109e-06
9.49368e-06
-4.24386e-08
9.4668e-06
-7.01426e-08
9.44683e-06
-6.964e-08
9.43991e-06
-4.71313e-08
9.44229e-06
-2.04673e-08
9.44965e-06
2.95611e-09
9.45895e-06
2.10652e-08
9.4684e-06
3.40713e-08
9.47716e-06
4.30372e-08
9.48491e-06
4.91216e-08
9.49159e-06
5.32945e-08
9.49727e-06
5.62925e-08
9.50205e-06
5.86473e-08
9.50607e-06
6.07391e-08
9.50947e-06
6.28351e-08
9.51242e-06
6.5121e-08
9.51515e-06
6.77153e-08
7.06712e-08
9.51792e-06
1.10854e-05
-2.5159e-08
1.10618e-05
-4.65024e-08
1.1041e-05
-4.88064e-08
1.10294e-05
-3.55512e-08
1.10261e-05
-1.71692e-08
1.10284e-05
6.05548e-10
1.1034e-05
1.54754e-08
1.10411e-05
2.69715e-08
1.10487e-05
3.54925e-08
1.10561e-05
4.17165e-08
1.1063e-05
4.63141e-08
1.10695e-05
4.98436e-08
1.10754e-05
5.27355e-08
1.10808e-05
5.53036e-08
1.10859e-05
5.77683e-08
1.10908e-05
6.02734e-08
1.10956e-05
6.28993e-08
6.56692e-08
1.11006e-05
1.29396e-05
-1.31185e-08
1.29194e-05
-2.62784e-08
1.28988e-05
-2.82516e-08
1.28839e-05
-2.06872e-08
1.28758e-05
-8.99525e-09
1.28732e-05
3.14548e-09
1.28748e-05
1.39407e-08
1.28789e-05
2.27891e-08
1.28847e-05
2.97452e-08
1.28913e-05
3.51438e-08
1.28982e-05
3.9384e-08
1.29052e-05
4.28288e-08
1.29122e-05
4.57703e-08
1.29191e-05
4.84255e-08
1.29259e-05
5.09434e-08
1.29327e-05
5.34157e-08
1.29398e-05
5.58856e-08
5.83559e-08
1.29471e-05
1.50998e-05
-4.483e-09
1.50822e-05
-8.67577e-09
1.50621e-05
-8.11319e-09
1.50448e-05
-3.45777e-09
1.50327e-05
3.11016e-09
1.50259e-05
9.9392e-09
1.50237e-05
1.61623e-08
1.5025e-05
2.14648e-08
1.50289e-05
2.58538e-08
1.50346e-05
2.94852e-08
1.50414e-05
3.25549e-08
1.5049e-05
3.52434e-08
1.50571e-05
3.76939e-08
1.50655e-05
4.00079e-08
1.50742e-05
4.22477e-08
1.50832e-05
4.44428e-08
1.50925e-05
4.65957e-08
4.86882e-08
1.51021e-05
1.76171e-05
2.8932e-09
1.75999e-05
8.52339e-09
1.75787e-05
1.303e-08
1.7559e-05
1.62782e-08
1.75436e-05
1.84729e-08
1.75336e-05
1.9958e-08
1.75287e-05
2.10525e-08
1.75282e-05
2.19938e-08
1.75311e-05
2.29399e-08
1.75366e-05
2.39856e-08
1.7544e-05
2.51774e-08
1.75527e-05
2.65279e-08
1.75624e-05
2.8026e-08
1.75727e-05
2.96462e-08
1.75836e-05
3.1352e-08
1.7595e-05
3.31024e-08
1.76067e-05
3.48514e-08
3.65545e-08
1.76188e-05
1.78181e-05
1.10004e-08
1.77994e-05
2.72128e-08
1.77768e-05
3.56244e-08
1.7756e-05
3.70588e-08
1.77402e-05
3.43264e-08
1.77302e-05
2.99467e-08
1.77257e-05
2.55002e-08
1.7726e-05
2.17782e-08
1.77298e-05
1.9075e-08
1.77364e-05
1.74001e-08
1.77449e-05
1.66324e-08
1.77549e-05
1.66034e-08
1.77658e-05
1.71412e-08
1.77773e-05
1.8089e-08
1.77894e-05
1.93143e-08
1.78017e-05
2.07035e-08
1.78144e-05
2.21676e-08
2.36303e-08
1.78274e-05
1.58702e-05
2.21334e-08
1.58478e-05
4.95816e-08
1.58233e-05
6.01325e-08
1.58032e-05
5.72349e-08
1.57899e-05
4.76109e-08
1.57834e-05
3.63719e-08
1.57827e-05
2.61981e-08
1.57864e-05
1.81467e-08
1.57931e-05
1.23656e-08
1.58019e-05
8.61253e-09
1.5812e-05
6.49731e-09
1.5823e-05
5.62909e-09
1.58345e-05
5.66516e-09
1.58462e-05
6.32881e-09
1.58581e-05
7.40001e-09
1.58701e-05
8.71558e-09
1.58821e-05
1.01467e-08
1.16047e-08
1.58942e-05
1.41313e-05
3.95387e-08
1.41021e-05
7.87071e-08
1.40745e-05
8.7788e-08
1.40557e-05
7.60388e-08
1.40469e-05
5.64139e-08
1.40462e-05
3.70406e-08
1.40512e-05
2.12112e-08
1.40597e-05
9.5836e-09
1.40704e-05
1.76379e-09
1.4082e-05
-3.04772e-09
1.40941e-05
-5.60341e-09
1.41063e-05
-6.55916e-09
1.41184e-05
-6.41455e-09
1.41303e-05
-5.55903e-09
1.41419e-05
-4.26238e-09
1.41534e-05
-2.72313e-09
1.41646e-05
-1.07877e-09
5.73093e-10
1.41756e-05
1.25772e-05
6.73555e-08
1.25392e-05
1.1674e-07
1.25091e-05
1.17889e-07
1.24942e-05
9.08913e-08
1.24928e-05
5.78146e-08
1.25002e-05
2.96842e-08
1.25122e-05
9.13325e-09
1.25264e-05
-4.49375e-09
1.25409e-05
-1.28325e-08
1.25552e-05
-1.73446e-08
1.25689e-05
-1.92796e-08
1.25819e-05
-1.94974e-08
1.25941e-05
-1.86517e-08
1.26057e-05
-1.71574e-08
1.26167e-05
-1.53141e-08
1.26273e-05
-1.33123e-08
1.26375e-05
-1.12743e-08
-9.29231e-09
1.26473e-05
1.11862e-05
1.10916e-07
1.11384e-05
1.6457e-07
1.11088e-05
1.47521e-07
1.11022e-05
9.74851e-08
1.11117e-05
4.83139e-08
1.11289e-05
1.24036e-08
1.11486e-05
-1.04579e-08
1.11678e-05
-2.37222e-08
1.11855e-05
-3.05015e-08
1.12014e-05
-3.32834e-08
1.12157e-05
-3.35497e-08
1.12285e-05
-3.23504e-08
1.12402e-05
-3.02995e-08
1.12508e-05
-2.78598e-08
1.12608e-05
-2.52737e-08
1.12701e-05
-2.26722e-08
1.1279e-05
-2.01605e-08
-1.77792e-08
1.12875e-05
9.93908e-06
1.76452e-07
9.88248e-06
2.21163e-07
9.85873e-06
1.71262e-07
9.86593e-06
9.0276e-08
9.88961e-06
2.46399e-08
9.9176e-06
-1.55532e-08
9.94392e-06
-3.67905e-08
9.96668e-06
-4.64026e-08
9.98571e-06
-4.96011e-08
1.00017e-05
-4.92779e-08
1.00152e-05
-4.71141e-08
1.00269e-05
-4.39951e-08
1.00371e-05
-4.05223e-08
1.00462e-05
-3.70136e-08
1.00546e-05
-3.36407e-08
1.00623e-05
-3.04398e-08
1.00696e-05
-2.74402e-08
-2.47041e-08
1.00765e-05
8.81963e-06
2.69916e-07
8.75785e-06
2.82944e-07
8.74788e-06
1.81226e-07
8.77481e-06
6.33234e-08
8.81458e-06
-1.51279e-08
8.85212e-06
-5.30894e-08
8.88269e-06
-6.72243e-08
8.90623e-06
-7.00183e-08
8.92427e-06
-6.76055e-08
8.93842e-06
-6.3358e-08
8.94983e-06
-5.83942e-08
8.95924e-06
-5.33299e-08
8.96721e-06
-4.84657e-08
8.97418e-06
-4.40019e-08
8.98049e-06
-3.99935e-08
8.98632e-06
-3.62914e-08
8.99174e-06
-3.29043e-08
-2.98866e-08
8.99691e-06
7.81391e-06
3.96675e-07
7.75391e-06
3.42943e-07
7.76868e-06
1.6644e-07
7.82054e-06
1.14614e-08
7.87567e-06
-7.02732e-08
7.91913e-06
-9.6489e-08
7.94967e-06
-9.78319e-08
7.97057e-06
-9.06422e-08
7.98484e-06
-8.15749e-08
7.99524e-06
-7.35376e-08
8.00315e-06
-6.60952e-08
8.00936e-06
-5.94347e-08
8.01442e-06
-5.33071e-08
8.01874e-06
-4.81901e-08
8.02269e-06
-4.3882e-08
8.02632e-06
-3.9955e-08
8.02969e-06
-3.63286e-08
-3.31997e-08
8.03296e-06
6.90424e-06
5.66768e-07
6.86137e-06
3.85805e-07
6.91717e-06
1.10634e-07
6.99674e-06
-6.81329e-08
7.06253e-06
-1.36071e-07
7.10529e-06
-1.39267e-07
7.13032e-06
-1.22546e-07
7.14448e-06
-1.04614e-07
7.15208e-06
-8.8975e-08
7.15709e-06
-7.57936e-08
7.16036e-06
-6.66429e-08
7.16269e-06
-5.96176e-08
7.16412e-06
-5.4135e-08
7.16536e-06
-4.91601e-08
7.16661e-06
-4.52162e-08
7.16779e-06
-4.16571e-08
7.16889e-06
-3.77469e-08
-3.46631e-08
7.17011e-06
6.07162e-06
7.97662e-07
6.08526e-06
3.72164e-07
6.19865e-06
-2.77341e-09
6.2999e-06
-1.69398e-07
6.36526e-06
-2.01462e-07
6.39754e-06
-1.71503e-07
6.41011e-06
-1.35218e-07
6.41343e-06
-1.06942e-07
6.41239e-06
-8.57927e-08
6.40989e-06
-7.40069e-08
6.40746e-06
-6.45091e-08
6.40486e-06
-5.76801e-08
6.40233e-06
-5.11077e-08
6.39997e-06
-4.64761e-08
6.39809e-06
-4.37498e-08
6.39676e-06
-4.01716e-08
6.39514e-06
-3.64421e-08
-3.40958e-08
6.39391e-06
5.35805e-06
1.05451e-06
5.50649e-06
2.23716e-07
5.64777e-06
-1.44085e-07
5.73564e-06
-2.57314e-07
5.77646e-06
-2.42347e-07
5.78324e-06
-1.78425e-07
5.77528e-06
-1.26643e-07
5.76328e-06
-9.40041e-08
5.74975e-06
-7.56506e-08
5.73931e-06
-6.40086e-08
5.73029e-06
-5.65e-08
5.72239e-06
-5.00008e-08
5.71428e-06
-4.4182e-08
5.70724e-06
-3.97254e-08
5.70186e-06
-3.77855e-08
5.69671e-06
-3.54021e-08
5.6917e-06
-3.1465e-08
-2.96536e-08
5.68737e-06
5.04576e-06
1.01105e-06
5.36491e-06
-9.54497e-08
5.35251e-06
-1.31766e-07
5.33285e-06
-2.37745e-07
5.296e-06
-2.05651e-07
5.25016e-06
-1.32589e-07
5.20891e-06
-8.47327e-08
5.17485e-06
-6.08214e-08
5.14634e-06
-4.98254e-08
5.12483e-06
-4.29546e-08
5.10676e-06
-3.93126e-08
5.09059e-06
-3.559e-08
5.07487e-06
-3.02685e-08
5.06152e-06
-2.6632e-08
5.05062e-06
-2.70199e-08
5.0397e-06
-2.44148e-08
5.02919e-06
-2.02437e-08
-2.11068e-08
5.0213e-06
5.4676e-06
5.37215e-06
5.24037e-06
5.00261e-06
4.79694e-06
4.66444e-06
4.57967e-06
4.51835e-06
4.46847e-06
4.42535e-06
4.38573e-06
4.34971e-06
4.31933e-06
4.29269e-06
4.26567e-06
4.24143e-06
4.22142e-06
4.20064e-06
2.31247e-08
-2.31238e-08
2.37201e-07
-2.14078e-07
4.89325e-07
-2.52093e-07
7.0959e-07
-2.20244e-07
8.77305e-07
-1.67695e-07
9.88434e-07
-1.11119e-07
1.0441e-06
-5.56516e-08
1.04652e-06
-2.42196e-09
1.00102e-06
4.55119e-08
9.17743e-07
8.32661e-08
8.11944e-07
1.05808e-07
7.02756e-07
1.09173e-07
6.09973e-07
9.27784e-08
5.43684e-07
6.62971e-08
4.92539e-07
5.11621e-08
4.33357e-07
5.98822e-08
3.47048e-07
8.61696e-08
2.21943e-07
1.25874e-07
4.36343e-08
1.7789e-07
-2.01835e-07
2.44838e-07
-5.04374e-07
3.02282e-07
-8.45366e-07
3.4074e-07
-1.20971e-06
3.64348e-07
-1.5871e-06
3.77406e-07
-1.9687e-06
3.8164e-07
-2.34453e-06
3.7585e-07
-2.70656e-06
3.62057e-07
-3.04964e-06
3.43087e-07
-3.36993e-06
3.20304e-07
-3.6651e-06
2.95176e-07
-3.93429e-06
2.69192e-07
-4.17781e-06
2.43526e-07
-4.39669e-06
2.18884e-07
-4.59241e-06
1.95723e-07
-4.76668e-06
1.74268e-07
-4.92128e-06
1.54602e-07
-5.05797e-06
1.36685e-07
-5.17837e-06
1.20401e-07
-5.28396e-06
1.05589e-07
-5.37602e-06
9.2068e-08
-5.45568e-06
7.96566e-08
-5.52386e-06
6.81823e-08
-5.58135e-06
5.74898e-08
-5.6288e-06
4.74449e-08
-5.66674e-06
3.79389e-08
-5.69562e-06
2.88843e-08
-5.71583e-06
2.02098e-08
-5.72772e-06
1.18856e-08
-5.73176e-06
4.03973e-09
-5.72882e-06
-2.93981e-09
-5.71998e-06
-8.83825e-09
-5.70602e-06
-1.39649e-08
-5.68734e-06
-1.86812e-08
-5.66419e-06
-2.31486e-08
-5.63674e-06
-2.74451e-08
-5.60514e-06
-3.15989e-08
-5.56952e-06
-3.56247e-08
-5.52999e-06
-3.95293e-08
-5.48668e-06
-4.33139e-08
-5.4397e-06
-4.69772e-08
-5.38918e-06
-5.05168e-08
-5.33525e-06
-5.39292e-08
-5.27804e-06
-5.7211e-08
-5.21768e-06
-6.03589e-08
-5.15431e-06
-6.33704e-08
-5.08807e-06
-6.62424e-08
-5.0191e-06
-6.89714e-08
-4.94754e-06
-7.15553e-08
-4.87355e-06
-7.39922e-08
-4.79727e-06
-7.6281e-08
-4.71885e-06
-7.8421e-08
-4.63844e-06
-8.04118e-08
-4.55619e-06
-8.22536e-08
-4.47224e-06
-8.39473e-08
-4.38674e-06
-8.54938e-08
-4.29985e-06
-8.6895e-08
-4.2117e-06
-8.81528e-08
-4.12243e-06
-8.92698e-08
-4.03218e-06
-9.0249e-08
-3.94109e-06
-9.10937e-08
-3.84928e-06
-9.18087e-08
-3.75688e-06
-9.23982e-08
-3.66401e-06
-9.28683e-08
-3.57079e-06
-9.32244e-08
-3.47732e-06
-9.347e-08
-3.38371e-06
-9.36102e-08
-3.29006e-06
-9.36516e-08
-3.19645e-06
-9.36099e-08
-3.10294e-06
-9.35059e-08
-3.00959e-06
-9.33544e-08
-2.91643e-06
-9.31635e-08
-2.82348e-06
-9.29538e-08
-2.73072e-06
-9.27583e-08
-2.63816e-06
-9.25596e-08
-2.5459e-06
-9.22596e-08
-2.45414e-06
-9.17616e-08
-2.36316e-06
-9.09835e-08
-2.27322e-06
-8.99386e-08
-2.18443e-06
-8.87857e-08
-2.0968e-06
-8.76311e-08
-2.01033e-06
-8.64752e-08
-1.92503e-06
-8.5302e-08
-1.84092e-06
-8.41042e-08
-1.75804e-06
-8.28809e-08
-1.67641e-06
-8.16346e-08
-1.59604e-06
-8.0369e-08
-1.51695e-06
-7.9088e-08
-1.43916e-06
-7.77943e-08
-1.36268e-06
-7.64858e-08
-1.28754e-06
-7.51417e-08
-1.21376e-06
-7.37742e-08
-1.14135e-06
-7.24108e-08
-1.07031e-06
-7.10468e-08
-1.00063e-06
-6.96832e-08
-9.32309e-07
-6.83211e-08
-8.65349e-07
-6.69619e-08
-7.99743e-07
-6.5608e-08
-7.35483e-07
-6.42619e-08
-6.7256e-07
-6.29257e-08
-6.10963e-07
-6.15987e-08
-5.50685e-07
-6.02815e-08
-4.9171e-07
-5.8977e-08
-4.34022e-07
-5.76913e-08
-3.77596e-07
-5.64298e-08
-3.22411e-07
-5.51885e-08
-2.6845e-07
-5.3964e-08
-2.15694e-07
-5.27602e-08
-1.64122e-07
-5.15763e-08
-1.13725e-07
-5.04004e-08
-6.44973e-08
-4.92325e-08
-1.65601e-08
-4.79419e-08
3.02195e-08
-4.67845e-08
7.61487e-08
-4.59337e-08
1.2112e-07
-4.49755e-08
1.6503e-07
-4.39149e-08
2.07877e-07
-4.28504e-08
2.49676e-07
-4.18033e-08
2.90458e-07
-4.07859e-08
3.30255e-07
-3.98004e-08
3.69096e-07
-3.88453e-08
4.07011e-07
-3.79188e-08
4.44027e-07
-3.70194e-08
4.8017e-07
-3.6146e-08
5.15465e-07
-3.52979e-08
5.49938e-07
-3.44747e-08
5.83612e-07
-3.3676e-08
6.16512e-07
-3.29016e-08
6.48663e-07
-3.21513e-08
6.80088e-07
-3.14252e-08
7.10811e-07
-3.07231e-08
7.40856e-07
-3.00451e-08
7.70247e-07
-2.93911e-08
7.99009e-07
-2.87613e-08
8.27164e-07
-2.81557e-08
8.54739e-07
-2.75742e-08
8.81756e-07
-2.70168e-08
9.08239e-07
-2.64833e-08
9.34213e-07
-2.59735e-08
9.597e-07
-2.54868e-08
9.84722e-07
-2.50225e-08
1.0093e-06
-2.45793e-08
1.03346e-06
-2.41552e-08
1.0572e-06
-2.37475e-08
1.08056e-06
-2.33522e-08
1.10352e-06
-2.29633e-08
1.12609e-06
-2.2573e-08
1.14826e-06
-2.21697e-08
1.17e-06
-2.17378e-08
1.19125e-06
-2.1255e-08
1.21194e-06
-2.06903e-08
1.23194e-06
-1.99994e-08
1.25106e-06
-1.91187e-08
1.26901e-06
-1.79506e-08
1.28536e-06
-1.63509e-08
1.29941e-06
-1.40444e-08
1.31003e-06
-1.06209e-08
1.3146e-06
-4.55655e-09
1.30774e-06
6.85834e-09
1.2782e-06
2.95374e-08
7.23282e-08
1.20587e-06
2.54185e-07
-2.7733e-07
4.90083e-07
-4.49973e-07
6.39668e-07
-4.01673e-07
7.243e-07
-3.04874e-07
7.63814e-07
-2.072e-07
7.69761e-07
-1.17069e-07
7.48829e-07
-3.47138e-08
7.06646e-07
3.97526e-08
6.46286e-07
1.05877e-07
5.67658e-07
1.61884e-07
4.70043e-07
2.03429e-07
3.51772e-07
2.27432e-07
2.06807e-07
2.37748e-07
2.36071e-08
2.49512e-07
-2.08613e-07
2.83388e-07
-4.94258e-07
3.4562e-07
-8.32221e-07
4.24221e-07
-1.21208e-06
5.05749e-07
-1.6159e-06
5.81667e-07
-2.01734e-06
6.46224e-07
-2.40737e-06
6.92255e-07
-2.78284e-06
7.16203e-07
-3.13778e-06
7.1929e-07
-3.46521e-06
7.04834e-07
-3.75996e-06
6.76406e-07
-4.02111e-06
6.36999e-07
-4.24905e-06
5.9e-07
-4.44506e-06
5.39104e-07
-4.61205e-06
4.87301e-07
-4.75354e-06
4.36662e-07
-4.87288e-06
3.88538e-07
-4.97326e-06
3.43902e-07
-5.05754e-06
3.03169e-07
-5.12824e-06
2.66424e-07
-5.18748e-06
2.33506e-07
-5.23699e-06
2.04112e-07
-5.27818e-06
1.77872e-07
-5.31217e-06
1.54395e-07
-5.33988e-06
1.33298e-07
-5.36204e-06
1.14231e-07
-5.37927e-06
9.68822e-08
-5.39207e-06
8.09857e-08
-5.4009e-06
6.63197e-08
-5.40616e-06
5.27024e-08
-5.40821e-06
3.99869e-08
-5.40738e-06
2.80585e-08
-5.40401e-06
1.68392e-08
-5.39842e-06
6.29428e-09
-5.39076e-06
-3.62027e-09
-5.38061e-06
-1.30942e-08
-5.36708e-06
-2.23676e-08
-5.34957e-06
-3.14697e-08
-5.32792e-06
-4.03348e-08
-5.30211e-06
-4.89593e-08
-5.2722e-06
-5.73499e-08
-5.23829e-06
-6.55128e-08
-5.20046e-06
-7.3451e-08
-5.15883e-06
-8.11638e-08
-5.1135e-06
-8.8648e-08
-5.06458e-06
-9.5898e-08
-5.01219e-06
-1.02907e-07
-4.95645e-06
-1.09667e-07
-4.89749e-06
-1.16171e-07
-4.83544e-06
-1.22411e-07
-4.77042e-06
-1.28383e-07
-4.70258e-06
-1.34081e-07
-4.63206e-06
-1.39496e-07
-4.55899e-06
-1.44624e-07
-4.48352e-06
-1.49463e-07
-4.40579e-06
-1.54009e-07
-4.32595e-06
-1.58261e-07
-4.24415e-06
-1.62219e-07
-4.16052e-06
-1.65882e-07
-4.07521e-06
-1.69253e-07
-3.98837e-06
-1.72333e-07
-3.90014e-06
-1.75126e-07
-3.81066e-06
-1.77637e-07
-3.72006e-06
-1.79869e-07
-3.62848e-06
-1.81829e-07
-3.53605e-06
-1.83524e-07
-3.4429e-06
-1.84962e-07
-3.34914e-06
-1.86152e-07
-3.25491e-06
-1.87102e-07
-3.16031e-06
-1.87822e-07
-3.06546e-06
-1.88321e-07
-2.97046e-06
-1.88612e-07
-2.87541e-06
-1.88705e-07
-2.7804e-06
-1.88617e-07
-2.68555e-06
-1.88362e-07
-2.59095e-06
-1.8795e-07
-2.49672e-06
-1.87391e-07
-2.40299e-06
-1.86692e-07
-2.30989e-06
-1.85851e-07
-2.21761e-06
-1.8484e-07
-2.12626e-06
-1.83612e-07
-2.03588e-06
-1.82141e-07
-1.94645e-06
-1.80421e-07
-1.85789e-06
-1.78493e-07
-1.77024e-06
-1.76435e-07
-1.68357e-06
-1.74301e-07
-1.59795e-06
-1.72103e-07
-1.51341e-06
-1.69842e-07
-1.42999e-06
-1.67521e-07
-1.34773e-06
-1.65142e-07
-1.26665e-06
-1.62712e-07
-1.18679e-06
-1.60236e-07
-1.10816e-06
-1.57718e-07
-1.03079e-06
-1.55164e-07
-9.54704e-07
-1.52574e-07
-8.79898e-07
-1.49948e-07
-8.06372e-07
-1.47301e-07
-7.34139e-07
-1.44645e-07
-6.63202e-07
-1.41984e-07
-5.93564e-07
-1.39323e-07
-5.25224e-07
-1.36662e-07
-4.5818e-07
-1.34007e-07
-3.92429e-07
-1.3136e-07
-3.27966e-07
-1.28727e-07
-2.6478e-07
-1.26113e-07
-2.02861e-07
-1.23519e-07
-1.422e-07
-1.20944e-07
-8.27865e-08
-1.18393e-07
-2.46127e-08
-1.15867e-07
3.23347e-08
-1.13379e-07
8.80838e-08
-1.1094e-07
1.42652e-07
-1.08534e-07
1.96049e-07
-1.06159e-07
2.48291e-07
-1.0382e-07
2.99404e-07
-1.01516e-07
3.49418e-07
-9.92484e-08
3.98492e-07
-9.70172e-08
4.46598e-07
-9.48921e-08
4.93519e-07
-9.2857e-08
5.39325e-07
-9.07829e-08
5.84092e-07
-8.86837e-08
6.27852e-07
-8.66123e-08
6.70635e-07
-8.45876e-08
7.12464e-07
-8.26166e-08
7.53362e-07
-8.07006e-08
7.93354e-07
-7.88383e-08
8.32461e-07
-7.70281e-08
8.70709e-07
-7.52685e-08
9.08119e-07
-7.35581e-08
9.44716e-07
-7.18962e-08
9.80522e-07
-7.02821e-08
1.01556e-06
-6.87155e-08
1.04985e-06
-6.71961e-08
1.08343e-06
-6.57236e-08
1.1163e-06
-6.42981e-08
1.1485e-06
-6.29194e-08
1.18004e-06
-6.15876e-08
1.21095e-06
-6.03028e-08
1.24125e-06
-5.90649e-08
1.27097e-06
-5.78739e-08
1.30013e-06
-5.67298e-08
1.32874e-06
-5.56324e-08
1.35684e-06
-5.45811e-08
1.38444e-06
-5.35754e-08
1.41157e-06
-5.2614e-08
1.43824e-06
-5.16952e-08
1.46448e-06
-5.08163e-08
1.4903e-06
-4.99734e-08
1.51571e-06
-4.91609e-08
1.54073e-06
-4.83709e-08
1.56536e-06
-4.75924e-08
1.58959e-06
-4.681e-08
1.61343e-06
-4.60024e-08
1.63683e-06
-4.51401e-08
1.65976e-06
-4.41819e-08
1.68214e-06
-4.30704e-08
1.70386e-06
-4.17239e-08
1.72477e-06
-4.00243e-08
1.74461e-06
-3.77949e-08
1.76303e-06
-3.47664e-08
1.77946e-06
-3.04779e-08
1.79302e-06
-2.41772e-08
1.80273e-06
-1.42705e-08
1.8076e-06
1.99987e-09
1.80571e-06
3.1425e-08
8.80307e-08
1.79e-06
2.4601e-07
-5.2336e-07
3.42324e-07
-5.46291e-07
3.58611e-07
-4.17959e-07
3.47567e-07
-2.9382e-07
3.19865e-07
-1.79493e-07
2.75782e-07
-7.2985e-08
2.14605e-07
2.64652e-08
1.35285e-07
1.19068e-07
3.67591e-08
2.04404e-07
-8.3135e-08
2.81774e-07
-2.30103e-07
3.50397e-07
-4.14664e-07
4.11993e-07
-6.50229e-07
4.7331e-07
-9.43718e-07
5.43005e-07
-1.28497e-06
6.24637e-07
-1.65207e-06
7.1272e-07
-2.02418e-06
7.96325e-07
-2.38443e-06
8.65993e-07
-2.71894e-06
9.16162e-07
-3.01716e-06
9.44433e-07
-3.27523e-06
9.50321e-07
-3.49412e-06
9.35102e-07
-3.67683e-06
9.02001e-07
-3.82739e-06
8.55398e-07
-3.95053e-06
7.99548e-07
-4.05166e-06
7.38132e-07
-4.13611e-06
6.74454e-07
-4.20828e-06
6.11271e-07
-4.27159e-06
5.50615e-07
-4.32867e-06
4.93741e-07
-4.38139e-06
4.41255e-07
-4.43088e-06
3.93392e-07
-4.47777e-06
3.50066e-07
-4.52235e-06
3.10998e-07
-4.56464e-06
2.75796e-07
-4.60455e-06
2.44021e-07
-4.64191e-06
2.15234e-07
-4.67653e-06
1.89018e-07
-4.70823e-06
1.64997e-07
-4.73684e-06
1.4284e-07
-4.76222e-06
1.22263e-07
-4.78427e-06
1.03031e-07
-4.80289e-06
8.49434e-08
-4.81802e-06
6.78363e-08
-4.82961e-06
5.15696e-08
-4.83757e-06
3.60242e-08
-4.84183e-06
2.10982e-08
-4.84224e-06
6.69781e-09
-4.83857e-06
-7.28365e-09
-4.83071e-06
-2.09605e-08
-4.81868e-06
-3.43923e-08
-4.80259e-06
-4.75668e-08
-4.78246e-06
-6.04616e-08
-4.75835e-06
-7.30684e-08
-4.73032e-06
-8.53807e-08
-4.69844e-06
-9.73927e-08
-4.66279e-06
-1.09098e-07
-4.62347e-06
-1.20487e-07
-4.58057e-06
-1.3155e-07
-4.53419e-06
-1.42275e-07
-4.48445e-06
-1.52651e-07
-4.43145e-06
-1.62664e-07
-4.37532e-06
-1.723e-07
-4.31618e-06
-1.8155e-07
-4.25416e-06
-1.90405e-07
-4.18939e-06
-1.98856e-07
-4.12199e-06
-2.0689e-07
-4.05212e-06
-2.14501e-07
-3.9799e-06
-2.21683e-07
-3.90547e-06
-2.28434e-07
-3.82898e-06
-2.3475e-07
-3.75057e-06
-2.4063e-07
-3.67038e-06
-2.46074e-07
-3.58855e-06
-2.51084e-07
-3.50522e-06
-2.55664e-07
-3.42053e-06
-2.59817e-07
-3.33462e-06
-2.6355e-07
-3.24761e-06
-2.66871e-07
-3.15966e-06
-2.69787e-07
-3.07087e-06
-2.72308e-07
-2.98139e-06
-2.74445e-07
-2.89133e-06
-2.7621e-07
-2.80082e-06
-2.77615e-07
-2.70997e-06
-2.78672e-07
-2.6189e-06
-2.79397e-07
-2.5277e-06
-2.79803e-07
-2.4365e-06
-2.79905e-07
-2.3454e-06
-2.7972e-07
-2.2545e-06
-2.79262e-07
-2.16391e-06
-2.78544e-07
-2.07373e-06
-2.77574e-07
-1.98406e-06
-2.76362e-07
-1.895e-06
-2.74905e-07
-1.80665e-06
-2.73192e-07
-1.71906e-06
-2.71206e-07
-1.63225e-06
-2.68946e-07
-1.54625e-06
-2.66426e-07
-1.46106e-06
-2.63685e-07
-1.37673e-06
-2.60766e-07
-1.29332e-06
-2.57706e-07
-1.2109e-06
-2.54523e-07
-1.12951e-06
-2.51232e-07
-1.04919e-06
-2.4784e-07
-9.69978e-07
-2.44357e-07
-8.91897e-07
-2.40794e-07
-8.14975e-07
-2.37158e-07
-7.39236e-07
-2.33458e-07
-6.64698e-07
-2.29702e-07
-5.91377e-07
-2.25896e-07
-5.19278e-07
-2.22048e-07
-4.48409e-07
-2.18171e-07
-3.7878e-07
-2.14274e-07
-3.10399e-07
-2.10367e-07
-2.43265e-07
-2.06456e-07
-1.77381e-07
-2.02548e-07
-1.12743e-07
-1.98646e-07
-4.93482e-08
-1.94756e-07
1.28097e-08
-1.90886e-07
7.37352e-08
-1.87039e-07
1.33436e-07
-1.83221e-07
1.91926e-07
-1.79434e-07
2.49216e-07
-1.75684e-07
3.05323e-07
-1.71974e-07
3.60257e-07
-1.68314e-07
4.14025e-07
-1.64709e-07
4.66643e-07
-1.61153e-07
5.18131e-07
-1.57648e-07
5.68508e-07
-1.54197e-07
6.17796e-07
-1.50804e-07
6.66024e-07
-1.47478e-07
7.13235e-07
-1.44229e-07
7.59412e-07
-1.4107e-07
8.04521e-07
-1.37967e-07
8.48611e-07
-1.34873e-07
8.91726e-07
-1.31799e-07
9.33888e-07
-1.28775e-07
9.75117e-07
-1.25817e-07
1.01543e-06
-1.22931e-07
1.05485e-06
-1.2012e-07
1.09339e-06
-1.17382e-07
1.13108e-06
-1.14718e-07
1.16794e-06
-1.12127e-07
1.20399e-06
-1.09606e-07
1.23925e-06
-1.07156e-07
1.27374e-06
-1.04776e-07
1.30749e-06
-1.02466e-07
1.34052e-06
-1.00224e-07
1.37285e-06
-9.80521e-08
1.4045e-06
-9.59488e-08
1.43549e-06
-9.39145e-08
1.46585e-06
-9.19491e-08
1.4956e-06
-9.00527e-08
1.52476e-06
-8.82253e-08
1.55336e-06
-8.64669e-08
1.5814e-06
-8.47773e-08
1.60893e-06
-8.31562e-08
1.63595e-06
-8.16029e-08
1.66249e-06
-8.01163e-08
1.68857e-06
-7.86948e-08
1.71421e-06
-7.73357e-08
1.73943e-06
-7.6035e-08
1.76424e-06
-7.47873e-08
1.78867e-06
-7.35845e-08
1.81271e-06
-7.24153e-08
1.83638e-06
-7.12642e-08
1.85968e-06
-7.01094e-08
1.8826e-06
-6.89211e-08
1.90512e-06
-6.76578e-08
1.9272e-06
-6.62624e-08
1.94878e-06
-6.46545e-08
1.96978e-06
-6.27212e-08
1.99005e-06
-6.02996e-08
2.00941e-06
-5.7149e-08
2.02755e-06
-5.29062e-08
2.04405e-06
-4.69806e-08
2.05831e-06
-3.84324e-08
2.06954e-06
-2.55021e-08
2.07688e-06
-5.3458e-09
2.08078e-06
2.75244e-08
8.54926e-08
2.08332e-06
9.37355e-08
-6.17106e-07
6.2392e-08
-5.14961e-07
1.39085e-08
-3.69467e-07
-4.31827e-08
-2.36722e-07
-1.1268e-07
-1.0999e-07
-1.98052e-07
1.23909e-08
-3.02283e-07
1.30698e-07
-4.27789e-07
2.44574e-07
-5.77146e-07
3.5376e-07
-7.53738e-07
4.58366e-07
-9.62322e-07
5.58979e-07
-1.20721e-06
6.56886e-07
-1.48721e-06
7.53296e-07
-1.79149e-06
8.47288e-07
-2.10138e-06
9.34516e-07
-2.39723e-06
1.00856e-06
-2.66457e-06
1.06365e-06
-2.89512e-06
1.09653e-06
-3.08562e-06
1.10665e-06
-3.23688e-06
1.09569e-06
-3.35326e-06
1.0667e-06
-3.4413e-06
1.02315e-06
-3.50811e-06
9.68822e-07
-3.56023e-06
9.07519e-07
-3.60313e-06
8.4245e-07
-3.64124e-06
7.76249e-07
-3.67782e-06
7.11028e-07
-3.71488e-06
6.48337e-07
-3.75344e-06
5.89177e-07
-3.79377e-06
5.3407e-07
-3.83569e-06
4.83168e-07
-3.87869e-06
4.36394e-07
-3.92213e-06
3.93514e-07
-3.96534e-06
3.54207e-07
-4.00766e-06
3.18112e-07
-4.0485e-06
2.84857e-07
-4.08735e-06
2.54086e-07
-4.1238e-06
2.25468e-07
-4.1575e-06
1.98702e-07
-4.18819e-06
1.73525e-07
-4.21563e-06
1.49707e-07
-4.23965e-06
1.27052e-07
-4.2601e-06
1.05393e-07
-4.27686e-06
8.45885e-08
-4.28981e-06
6.45196e-08
-4.29887e-06
4.50845e-08
-4.30397e-06
2.61967e-08
-4.30505e-06
7.77966e-09
-4.30209e-06
-1.02405e-08
-4.29513e-06
-2.79248e-08
-4.28422e-06
-4.53012e-08
-4.26942e-06
-6.23667e-08
-4.25077e-06
-7.91084e-08
-4.22833e-06
-9.55137e-08
-4.20214e-06
-1.11569e-07
-4.17227e-06
-1.2726e-07
-4.1388e-06
-1.42572e-07
-4.1018e-06
-1.57487e-07
-4.06136e-06
-1.71987e-07
-4.01758e-06
-1.86056e-07
-3.97056e-06
-1.99674e-07
-3.9204e-06
-2.12823e-07
-3.86721e-06
-2.25483e-07
-3.81112e-06
-2.37639e-07
-3.75225e-06
-2.49279e-07
-3.69072e-06
-2.6039e-07
-3.62665e-06
-2.70957e-07
-3.56018e-06
-2.80971e-07
-3.49144e-06
-2.90424e-07
-3.42056e-06
-2.9931e-07
-3.34769e-06
-3.07625e-07
-3.27295e-06
-3.15368e-07
-3.19648e-06
-3.22539e-07
-3.11843e-06
-3.29139e-07
-3.03892e-06
-3.35174e-07
-2.95809e-06
-3.40647e-07
-2.87607e-06
-3.45568e-07
-2.793e-06
-3.49945e-07
-2.709e-06
-3.53788e-07
-2.62419e-06
-3.57111e-07
-2.53871e-06
-3.59926e-07
-2.45268e-06
-3.62247e-07
-2.3662e-06
-3.64091e-07
-2.2794e-06
-3.65474e-07
-2.19238e-06
-3.66413e-07
-2.10526e-06
-3.66926e-07
-2.01813e-06
-3.67031e-07
-1.93111e-06
-3.66745e-07
-1.84428e-06
-3.66087e-07
-1.75776e-06
-3.65071e-07
-1.67162e-06
-3.63711e-07
-1.58596e-06
-3.62018e-07
-1.50087e-06
-3.6e-07
-1.4164e-06
-3.57658e-07
-1.33262e-06
-3.54994e-07
-1.24954e-06
-3.52018e-07
-1.16722e-06
-3.48749e-07
-1.08569e-06
-3.4522e-07
-1.00499e-06
-3.41464e-07
-9.25179e-07
-3.37514e-07
-8.46312e-07
-3.33391e-07
-7.68429e-07
-3.29115e-07
-6.91569e-07
-3.247e-07
-6.15764e-07
-3.20162e-07
-5.41045e-07
-3.15514e-07
-4.67435e-07
-3.10768e-07
-3.94958e-07
-3.05936e-07
-3.23631e-07
-3.01029e-07
-2.53467e-07
-2.9606e-07
-1.84477e-07
-2.91039e-07
-1.1667e-07
-2.85978e-07
-5.00547e-08
-2.8089e-07
1.5364e-08
-2.75786e-07
7.95811e-08
-2.70674e-07
1.42595e-07