/*--------------------------------*- C++ -*----------------------------------*\
| =========                 |                                                 |
| \\      /  F ield         | OpenFOAM: The Open Source CFD Toolbox           |
|  \\    /   O peration     | Version:  v2012                                 |
|   \\  /    A nd           | Website:  www.openfoam.com                      |
|    \\/     M anipulation  |                                                 |
\*---------------------------------------------------------------------------*/
FoamFile
{
    version     2.0;
    format      ascii;
    class       volVectorField;
    location    "3900";
    object      U;
}
// * * * * * * * * * * * * * * * * * * * * * * * * * * * * * * * * * * * * * //

dimensions      [0 1 -1 0 0 0 0];


internalField   nonuniform List<vector> 
12225
(
(9.2745 -4.73371 0)
(13.1094 -1.71343 0)
(12.4776 -0.395207 0)
(11.2768 -0.0422174 0)
(10.6311 0.0141946 0)
(10.2977 -0.000764396 0)
(10.0739 -0.00392086 0)
(9.90482 -0.0203179 0)
(9.76617 -0.0504272 0)
(9.6446 -0.0475169 0)
(9.53099 -0.0361928 0)
(9.42439 -0.0319879 0)
(9.32645 -0.0298339 0)
(9.23709 -0.0228153 0)
(9.15584 -0.0073291 0)
(9.09003 0.00369682 0)
(9.02949 0.0111763 0)
(9.05265 0.0225088 0)
(10.2592 0.0928024 0)
(10.7814 0.199338 0)
(10.9593 0.24565 0)
(10.7468 0.229137 0)
(10.5874 0.172972 0)
(10.4521 0.115299 0)
(10.329 0.0819162 0)
(10.2315 0.0693015 0)
(10.1586 0.0651848 0)
(10.0983 0.0585492 0)
(10.0454 0.0524794 0)
(9.99831 0.0501471 0)
(9.95535 0.0496463 0)
(9.91568 0.0484294 0)
(9.87806 0.0444621 0)
(9.84338 0.038876 0)
(9.80721 0.0218618 0)
(9.77523 -0.00114939 0)
(9.87768 -0.24504 0)
(9.74284 0.00579074 0)
(10.1971 0.125738 0)
(10.3244 0.179358 0)
(10.3563 0.161543 0)
(10.3308 0.11998 0)
(10.2777 0.0911634 0)
(10.2264 0.0753139 0)
(10.183 0.065796 0)
(10.1459 0.0605127 0)
(10.1137 0.0572503 0)
(10.0848 0.0545388 0)
(10.0578 0.0518287 0)
(10.0325 0.0488018 0)
(10.0086 0.0451636 0)
(9.98667 0.0401448 0)
(9.96305 0.0290306 0)
(9.93557 0.010272 0)
(9.83416 -0.443933 0)
(9.57654 -0.163148 0)
(9.91602 0.0336632 0)
(10.0932 0.134215 0)
(10.1892 0.145462 0)
(10.2166 0.120718 0)
(10.2052 0.0984955 0)
(10.1835 0.0839038 0)
(10.161 0.074074 0)
(10.1394 0.0683192 0)
(10.1196 0.0646076 0)
(10.1012 0.0616195 0)
(10.0837 0.0589576 0)
(10.0668 0.056508 0)
(10.0505 0.0537577 0)
(10.0343 0.0495657 0)
(10.0157 0.0412266 0)
(9.99137 0.0295261 0)
(9.87825 -0.387477 0)
(9.61653 -0.19615 0)
(9.81622 -0.0186788 0)
(9.96134 0.0916019 0)
(10.0698 0.122183 0)
(10.1218 0.113641 0)
(10.1356 0.0996171 0)
(10.134 0.0883462 0)
(10.1264 0.0798958 0)
(10.1162 0.0742735 0)
(10.1055 0.0704411 0)
(10.0946 0.0675775 0)
(10.0836 0.0652468 0)
(10.0724 0.0631807 0)
(10.0609 0.0608555 0)
(10.0484 0.0575817 0)
(10.033 0.052225 0)
(10.0121 0.046146 0)
(9.91439 -0.288041 0)
(9.68303 -0.18518 0)
(9.78716 -0.053217 0)
(9.88916 0.0509869 0)
(9.98794 0.0936667 0)
(10.0476 0.099223 0)
(10.0753 0.0940532 0)
(10.0866 0.087412 0)
(10.0896 0.0814367 0)
(10.088 0.0769666 0)
(10.084 0.0737608 0)
(10.0788 0.0714049 0)
(10.0726 0.0695716 0)
(10.0656 0.0680243 0)
(10.0575 0.0664244 0)
(10.0479 0.0644909 0)
(10.0354 0.0620303 0)
(10.0183 0.0603858 0)
(9.93763 -0.214042 0)
(9.74855 -0.167539 0)
(9.79243 -0.0752234 0)
(9.85608 0.0162107 0)
(9.93594 0.0644133 0)
(9.99283 0.0806107 0)
(10.0262 0.0836293 0)
(10.045 0.0821233 0)
(10.0549 0.079335 0)
(10.0593 0.0767424 0)
(10.0605 0.0747085 0)
(10.0595 0.0732096 0)
(10.057 0.072129 0)
(10.0532 0.0713676 0)
(10.0479 0.0708007 0)
(10.0408 0.0704422 0)
(10.0313 0.0705517 0)
(10.0182 0.0723184 0)
(9.95263 -0.167336 0)
(9.79947 -0.149683 0)
(9.81178 -0.0846549 0)
(9.84959 -0.00623098 0)
(9.91141 0.0419047 0)
(9.9611 0.0638713 0)
(9.99439 0.0725166 0)
(10.0157 0.0751445 0)
(10.0289 0.0752472 0)
(10.0367 0.0745693 0)
(10.041 0.0738195 0)
(10.0428 0.0732674 0)
(10.0427 0.0730005 0)
(10.041 0.073064 0)
(10.0377 0.0734939 0)
(10.0327 0.0744641 0)
(10.0255 0.0763834 0)
(10.0158 0.0802226 0)
(9.96406 -0.132092 0)
(9.84003 -0.131995 0)
(9.83337 -0.0877031 0)
(9.85306 -0.0213526 0)
(9.89928 0.0243906 0)
(9.94105 0.0494888 0)
(9.97213 0.0620862 0)
(9.99395 0.0679525 0)
(10.0087 0.0704584 0)
(10.0185 0.0715009 0)
(10.0246 0.0720125 0)
(10.0283 0.0724472 0)
(10.0299 0.0730341 0)
(10.0298 0.0739282 0)
(10.0282 0.0752825 0)
(10.0249 0.0773665 0)
(10.0198 0.0806394 0)
(10.0129 0.0858942 0)
(9.97418 -0.100207 0)
(9.87757 -0.112396 0)
(9.85857 -0.0853799 0)
(9.86388 -0.0323538 0)
(9.89487 0.00890167 0)
(9.92745 0.0351927 0)
(9.95445 0.0506655 0)
(9.9751 0.0593767 0)
(9.99022 0.064238 0)
(10.001 0.0670995 0)
(10.0085 0.069012 0)
(10.0136 0.0705722 0)
(10.0167 0.0721345 0)
(10.0181 0.0739599 0)
(10.0181 0.0762906 0)
(10.0165 0.0794477 0)
(10.0136 0.0838758 0)
(10.0094 0.090183 0)
(9.98253 -0.072712 0)
(9.91035 -0.0922032 0)
(9.88507 -0.0782597 0)
(9.88002 -0.038632 0)
(9.89747 -0.00340743 0)
(9.92045 0.0221247 0)
(9.942 0.0391145 0)
(9.96006 0.049957 0)
(9.97431 0.0568688 0)
(9.98524 0.0614689 0)
(9.99344 0.064808 0)
(9.99947 0.0675565 0)
(10.0037 0.0701635 0)
(10.0065 0.0729633 0)
(10.0079 0.0762596 0)
(10.0081 0.0803821 0)
(10.0073 0.0857149 0)
(10.0057 0.0926884 0)
(9.98894 -0.05026 0)
(9.93733 -0.0723854 0)
(9.91073 -0.0674652 0)
(9.89917 -0.0400104 0)
(9.90567 -0.011689 0)
(9.91957 0.0113969 0)
(9.935 0.0284479 0)
(9.94938 0.0404532 0)
(9.96174 0.0488463 0)
(9.97193 0.0548883 0)
(9.98013 0.0595147 0)
(9.98663 0.0633962 0)
(9.99167 0.067014 0)
(9.99547 0.0707443 0)
(9.99822 0.0749059 0)
(10.0001 0.07981 0)
(10.0012 0.0857549 0)
(10.002 0.0930332 0)
(9.99348 -0.0329125 0)
(9.9582 -0.0538188 0)
(9.93368 -0.0543024 0)
(9.91899 -0.0368181 0)
(9.91756 -0.0154984 0)
(9.92367 0.00393138 0)
(9.93303 0.0196846 0)
(9.94321 0.0317479 0)
(9.95293 0.0408388 0)
(9.96166 0.0478057 0)
(9.96924 0.0533899 0)
(9.97572 0.0581814 0)
(9.98119 0.0626398 0)
(9.98578 0.0671309 0)
(9.98963 0.0719583 0)
(9.9929 0.0773807 0)
(9.99579 0.083631 0)
(9.99856 0.0908674 0)
(9.99643 -0.020207 0)
(9.97327 -0.0372184 0)
(9.95261 -0.0400662 0)
(9.93731 -0.0298446 0)
(9.9309 -0.014873 0)
(9.93103 0.000297575 0)
(9.93505 0.0136795 0)
(9.94106 0.0247147 0)
(9.94783 0.0335936 0)
(9.95466 0.0407853 0)
(9.96118 0.0468025 0)
(9.96724 0.0521016 0)
(9.9728 0.0570707 0)
(9.97788 0.0620194 0)
(9.98256 0.0672058 0)
(9.98697 0.0728299 0)
(9.99124 0.0790482 0)
(9.99557 0.0859512 0)
(9.99816 -0.0112925 0)
(9.9833 -0.0229397 0)
(9.96682 -0.0257845 0)
(9.95243 -0.0201122 0)
(9.94344 -0.0102932 0)
(9.93953 0.000603823 0)
(9.93941 0.0109345 0)
(9.94183 0.020019 0)
(9.94583 0.0277662 0)
(9.95069 0.0343761 0)
(9.95596 0.0401493 0)
(9.96138 0.0453975 0)
(9.96678 0.0503957 0)
(9.97211 0.0553797 0)
(9.97736 0.0605301 0)
(9.98259 0.0659898 0)
(9.98789 0.0718435 0)
(9.99335 0.0781393 0)
(9.99906 -0.00508567 0)
(9.98922 -0.0107902 0)
(9.97612 -0.0119384 0)
(9.96309 -0.00851821 0)
(9.9531 -0.00248588 0)
(9.94686 0.00450799 0)
(9.94399 0.011464 0)
(9.94384 0.0178998 0)
(9.94569 0.0236876 0)
(9.94895 0.0288955 0)
(9.95315 0.0336794 0)
(9.95796 0.0382164 0)
(9.96316 0.0426712 0)
(9.96861 0.0471826 0)
(9.97426 0.0518548 0)
(9.98007 0.0567597 0)
(9.98607 0.0619329 0)
(9.9923 0.0673771 0)
(9.99942 -0.000371919 0)
(9.99181 0.000141468 0)
(9.98042 0.00181016 0)
(9.96821 0.00455957 0)
(9.9579 0.00787001 0)
(9.9506 0.0113346 0)
(9.94641 0.0147278 0)
(9.94497 0.0179765 0)
(9.94575 0.0210936 0)
(9.94822 0.0241494 0)
(9.95194 0.0272216 0)
(9.95656 0.030391 0)
(9.9618 0.0337178 0)
(9.96748 0.0372494 0)
(9.97351 0.041008 0)
(9.97979 0.0450018 0)
(9.98631 0.049215 0)
(9.99306 0.0536193 0)
(9.99935 0.00408052 0)
(9.9911 0.0111598 0)
(9.97897 0.0161104 0)
(9.96616 0.0187022 0)
(9.95552 0.0195663 0)
(9.94818 0.0194847 0)
(9.94418 0.0190812 0)
(9.9431 0.0187635 0)
(9.94435 0.0187745 0)
(9.94738 0.0192283 0)
(9.95169 0.0201688 0)
(9.95692 0.0215886 0)
(9.96279 0.0234603 0)
(9.96909 0.0257375 0)
(9.97571 0.0283725 0)
(9.98255 0.031306 0)
(9.98956 0.0344849 0)
(9.99672 0.0378433 0)
(9.99882 0.00972596 0)
(9.98675 0.0240327 0)
(9.97122 0.0318226 0)
(9.95642 0.0332599 0)
(9.94558 0.0306613 0)
(9.93942 0.0262961 0)
(9.93733 0.0216828 0)
(9.93843 0.0176584 0)
(9.94183 0.0145977 0)
(9.94682 0.0125918 0)
(9.95286 0.0115881 0)
(9.95955 0.0114652 0)
(9.96664 0.0120881 0)
(9.97397 0.0133199 0)
(9.98142 0.0150394 0)
(9.98893 0.0171356 0)
(9.99647 0.0195145 0)
(10.004 0.0220902 0)
(9.99757 0.0182067 0)
(9.97774 0.0404388 0)
(9.95664 0.0495527 0)
(9.93945 0.0474462 0)
(9.92962 0.0393835 0)
(9.92659 0.029603 0)
(9.92848 0.0204375 0)
(9.93355 0.0129083 0)
(9.94052 0.00727593 0)
(9.94851 0.0034333 0)
(9.95697 0.00111687 0)
(9.96558 4.21837e-05 0)
(9.97417 -5.52428e-05 0)
(9.98263 0.000597016 0)
(9.99094 0.00181333 0)
(9.99908 0.00344301 0)
(10.0071 0.00536383 0)
(10.0149 0.00748006 0)
(9.99502 0.0318119 0)
(9.96178 0.0621179 0)
(9.93372 0.0695278 0)
(9.91535 0.0600828 0)
(9.90933 0.0439145 0)
(9.9125 0.027622 0)
(9.92084 0.0139573 0)
(9.93161 0.00359436 0)
(9.9432 -0.00368422 0)
(9.95475 -0.00842186 0)
(9.96586 -0.0111912 0)
(9.97641 -0.0124837 0)
(9.98637 -0.0126942 0)
(9.99579 -0.0121191 0)
(10.0047 -0.0109922 0)
(10.0133 -0.00948203 0)
(10.0215 -0.00771897 0)
(10.0294 -0.00579929 0)
(9.99018 0.0534599 0)
(9.93561 0.0901382 0)
(9.90098 0.0906055 0)
(9.88516 0.0687265 0)
(9.88782 0.0417852 0)
(9.90123 0.0186278 0)
(9.91857 0.00138752 0)
(9.93627 -0.0104211 0)
(9.95284 -0.0179603 0)
(9.96781 -0.0223918 0)
(9.9812 -0.0246528 0)
(9.99318 -0.0254201 0)
(10.004 -0.0251758 0)
(10.0139 -0.0242448 0)
(10.023 -0.0228695 0)
(10.0316 -0.0212179 0)
(10.0397 -0.0194 0)
(10.0473 -0.0174944 0)
(9.9819 0.0862458 0)
(9.89548 0.124246 0)
(9.85818 0.109864 0)
(9.85211 0.0697452 0)
(9.87036 0.0303058 0)
(9.89845 0.00141951 0)
(9.9266 -0.0172232 0)
(9.95137 -0.0283355 0)
(9.97222 -0.0343924 0)
(9.98958 -0.03726 0)
(10.0041 -0.0381309 0)
(10.0166 -0.0377745 0)
(10.0274 -0.0366366 0)
(10.037 -0.0350591 0)
(10.0456 -0.0332302 0)
(10.0536 -0.031295 0)
(10.0611 -0.0293146 0)
(10.0681 -0.0273391 0)
(9.96925 0.133989 0)
(9.83823 0.16308 0)
(9.80793 0.122573 0)
(9.82313 0.0587726 0)
(9.86516 0.00727391 0)
(9.91143 -0.0240568 0)
(9.95039 -0.0406085 0)
(9.98054 -0.0483624 0)
(10.0035 -0.0511832 0)
(10.0212 -0.0513808 0)
(10.0352 -0.0502486 0)
(10.0466 -0.0483913 0)
(10.0562 -0.046216 0)
(10.0645 -0.0438751 0)
(10.0719 -0.0415365 0)
(10.0786 -0.0392879 0)
(10.0849 -0.0371457 0)
(10.0908 -0.0351043 0)
(9.94951 0.20714 0)
(9.76128 0.207016 0)
(9.75726 0.123462 0)
(9.81043 0.0319842 0)
(9.88386 -0.0278994 0)
(9.9488 -0.056035 0)
(9.99533 -0.066089 0)
(10.0267 -0.067829 0)
(10.0481 -0.0660165 0)
(10.0631 -0.0629614 0)
(10.0741 -0.0596321 0)
(10.0827 -0.0563162 0)
(10.0896 -0.0531356 0)
(10.0955 -0.0501315 0)
(10.1006 -0.0473417 0)
(10.1051 -0.0448869 0)
(10.1095 -0.0426661 0)
(10.1136 -0.0405906 0)
(9.91094 0.322718 0)
(9.65922 0.254541 0)
(9.71887 0.107392 0)
(9.8333 -0.0119515 0)
(9.94177 -0.0726986 0)
(10.02 -0.0902253 0)
(10.0662 -0.0893642 0)
(10.0918 -0.0833001 0)
(10.1061 -0.076379 0)
(10.1144 -0.0702721 0)
(10.1195 -0.0651464 0)
(10.1231 -0.060683 0)
(10.1257 -0.0567466 0)
(10.1277 -0.0533154 0)
(10.1292 -0.0502283 0)
(10.1306 -0.0477697 0)
(10.1322 -0.0456047 0)
(10.1338 -0.0435884 0)
(9.84404 0.43511 0)
(9.53797 0.261025 0)
(9.7269 0.0591219 0)
(9.92369 -0.0731441 0)
(10.0584 -0.121606 0)
(10.1345 -0.120273 0)
(10.1665 -0.105351 0)
(10.1757 -0.0910747 0)
(10.1758 -0.079889 0)
(10.1725 -0.0718349 0)
(10.1685 -0.066091 0)
(10.1646 -0.0610952 0)
(10.1606 -0.0566913 0)
(10.1567 -0.0527949 0)
(10.153 -0.0494443 0)
(10.1496 -0.0472122 0)
(10.1472 -0.045474 0)
(10.145 -0.0435214 0)
(9.83598 0.319667 0)
(9.5502 0.091249 0)
(9.91739 -0.0687336 0)
(10.1507 -0.160134 0)
(10.2635 -0.172181 0)
(10.3033 -0.142813 0)
(10.2976 -0.112212 0)
(10.2753 -0.0909652 0)
(10.2515 -0.0771181 0)
(10.2304 -0.0684615 0)
(10.2132 -0.0633406 0)
(10.1984 -0.0588077 0)
(10.1848 -0.0541226 0)
(10.1718 -0.0490795 0)
(10.1594 -0.0446309 0)
(10.149 -0.0428199 0)
(10.1406 -0.0412166 0)
(10.1325 -0.0380264 0)
(10.2049 -0.0633777 0)
(10.4095 -0.191709 0)
(10.7164 -0.282554 0)
(10.6879 -0.282291 0)
(10.6191 -0.230116 0)
(10.5417 -0.163742 0)
(10.4538 -0.117599 0)
(10.3752 -0.0935915 0)
(10.3137 -0.0804633 0)
(10.2656 -0.0697372 0)
(10.2263 -0.060657 0)
(10.1921 -0.0564778 0)
(10.1622 -0.055234 0)
(10.1332 -0.0545293 0)
(10.1071 -0.0531584 0)
(10.0863 -0.0473441 0)
(10.0663 -0.0418418 0)
(10.0485 -0.0401337 0)
(9.41631 4.45107 0)
(12.7294 2.07612 0)
(12.5649 0.621225 0)
(11.5691 0.127667 0)
(10.9311 0.00343211 0)
(10.5863 -0.00224996 0)
(10.3631 0.0138794 0)
(10.2009 0.0311975 0)
(10.0782 0.0445894 0)
(9.97679 0.0436996 0)
(9.88401 0.0327083 0)
(9.79902 0.0313324 0)
(9.72209 0.033651 0)
(9.65787 0.0315093 0)
(9.60332 0.0278433 0)
(9.54802 0.00959074 0)
(9.49687 -0.010447 0)
(9.44944 -0.0110522 0)
(-0.0249857 0.0909233 0)
(0.137456 -0.182587 0)
(0.325855 -0.304462 0)
(0.525636 -0.313553 0)
(0.702329 -0.270805 0)
(0.831868 -0.210053 0)
(0.907223 -0.14524 -8.59967e-20)
(0.936909 -0.0813102 8.66788e-20)
(0.914895 -0.0190394 0)
(0.853258 0.0356344 9.20536e-20)
(0.765409 0.0747667 0)
(0.665811 0.0923555 0)
(0.572 0.0876077 0)
(0.499532 0.0662825 -1.44109e-19)
(0.44956 0.0373517 0)
(0.405345 0.00993777 0)
(0.344826 -0.00835327 1.89658e-19)
(0.25892 -0.00779952 0)
(0.123039 0.0109281 0)
(-0.0756388 0.111582 0)
(-0.3052 0.206815 -1.39615e-19)
(-0.601229 0.247745 0)
(-0.929163 0.269616 -7.48473e-20)
(-1.26411 0.29671 0)
(-1.60275 0.323499 0)
(-1.94162 0.336032 -4.11378e-20)
(-2.27315 0.335049 0)
(-2.58941 0.325761 3.44503e-20)
(-2.88725 0.309511 0)
(-3.16334 0.28867 -3.12892e-20)
(-3.4168 0.265544 0)
(-3.64726 0.241706 0)
(-3.85546 0.218179 0)
(-4.04251 0.195657 0)
(-4.20983 0.174512 0)
(-4.35901 0.154945 2.82011e-20)
(-4.4916 0.136987 0)
(-4.6091 0.120565 -5.55143e-20)
(-4.71287 0.105552 0)
(-4.80414 0.0917891 5.47148e-20)
(-4.88393 0.079113 0)
(-4.95315 0.0673735 0)
(-5.01255 0.056443 -5.34904e-20)
(-5.06274 0.0462263 0)
(-5.10423 0.0366644 -5.25968e-20)
(-5.13741 0.0277416 5.2118e-20)
(-5.16269 0.0195037 0)
(-5.18045 0.0120981 5.10891e-20)
(-5.19097 0.00578777 5.05362e-20)
(-5.19441 0.000721962 0)
(-5.19203 -0.00320015 0)
(-5.18506 -0.00645334 0)
(-5.17363 -0.009402 0)
(-5.15807 -0.0121104 0)
(-5.13853 -0.0146772 -4.61088e-20)
(-5.11515 -0.0171157 0)
(-5.08805 -0.0194375 4.42413e-20)
(-5.05732 -0.0216512 0)
(-5.02308 -0.0237592 0)
(-4.98541 -0.0257632 -4.10594e-20)
(-4.94443 -0.0276636 0)
(-4.90024 -0.0294604 3.86811e-20)
(-4.85295 -0.0311533 0)
(-4.80268 -0.0327423 0)
(-4.74954 -0.0342275 0)
(-4.69366 -0.0356086 -3.32958e-20)
(-4.63514 -0.0368862 0)
(-4.57413 -0.0380611 0)
(-4.51075 -0.0391339 -2.86935e-20)
(-4.44512 -0.0401055 0)
(-4.37738 -0.0409774 -2.53486e-20)
(-4.30765 -0.0417508 0)
(-4.23608 -0.0424276 0)
(-4.16279 -0.0430093 0)
(-4.08791 -0.0434981 1.79628e-20)
(-4.01158 -0.0438957 0)
(-3.93392 -0.0442044 0)
(-3.85505 -0.0444259 1.17734e-20)
(-3.77511 -0.0445624 9.57697e-21)
(-3.69422 -0.044616 0)
(-3.61249 -0.0445891 4.96954e-21)
(-3.53004 -0.044485 0)
(-3.44698 -0.0443079 1.11124e-22)
(-3.36343 -0.0440637 0)
(-3.27947 -0.0437603 -1.03915e-20)
(-3.19522 -0.0434085 0)
(-3.11075 -0.0430224 2.16487e-20)
(-3.02614 -0.042622 0)
(-2.94148 -0.0422356 0)
(-2.8568 -0.0419047 0)
(-2.77215 -0.0416905 -4.68782e-20)
(-2.68756 -0.0416745 0)
(-2.60303 -0.041946 6.11762e-20)
(-2.51854 -0.0425598 0)
(-2.43403 -0.0434542 -7.6871e-20)
(-2.34978 -0.0443538 -8.52623e-20)
(-2.26601 -0.0447974 -9.39828e-20)
(-2.183 -0.044579 0)
(-2.10089 -0.0439701 0)
(-2.01972 -0.0432711 0)
(-1.93948 -0.0425657 0)
(-1.8602 -0.0418653 0)
(-1.78189 -0.0411704 0)
(-1.70459 -0.0404833 0)
(-1.6283 -0.0398074 0)
(-1.55307 -0.0391487 1.93265e-19)
(-1.4789 -0.0385142 2.07613e-19)
(-1.4058 -0.0379094 0)
(-1.3338 -0.0373228 0)
(-1.26291 -0.0366965 0)
(-1.19319 -0.0360379 2.75022e-19)
(-1.12462 -0.0354044 0)
(-1.05721 -0.0347888 0)
(-0.99096 -0.0341936 0)
(-0.925878 -0.0336197 0)
(-0.861961 -0.0330699 -3.9195e-19)
(-0.799206 -0.0325459 0)
(-0.737611 -0.0320519 0)
(-0.677167 -0.0315903 4.90417e-19)
(-0.617868 -0.0311636 -5.30244e-19)
(-0.559708 -0.0307744 0)
(-0.502678 -0.0304345 -6.24185e-19)
(-0.446766 -0.0301674 0)
(-0.391951 -0.0300197 7.43643e-19)
(-0.338212 -0.0299992 0)
(-0.285534 -0.030067 0)
(-0.233903 -0.0302109 0)
(-0.183291 -0.0304428 0)
(-0.133671 -0.0307777 0)
(-0.0850915 -0.0312353 -2.8588e-18)
(-0.0377659 -0.0316891 -3.29271e-18)
(0.00837104 -0.0313529 0)
(0.0538172 -0.0298189 0)
(0.0985707 -0.0279659 0)
(0.142501 -0.0262527 2.67929e-18)
(0.185517 -0.0247246 0)
(0.227605 -0.0233547 0)
(0.268787 -0.0221204 0)
(0.309091 -0.0210015 2.03675e-18)
(0.348544 -0.0199815 -1.93076e-18)
(0.387177 -0.0190457 0)
(0.425017 -0.0181831 0)
(0.462093 -0.0173837 -1.68452e-18)
(0.498429 -0.0166408 -1.61998e-18)
(0.53405 -0.0159474 0)
(0.568977 -0.0152993 0)
(0.603233 -0.0146914 1.462e-18)
(0.63684 -0.0141209 -1.4186e-18)
(0.669817 -0.0135841 0)
(0.702185 -0.013079 0)
(0.733965 -0.0126028 -1.3085e-18)
(0.765179 -0.012154 0)
(0.79585 -0.0117303 0)
(0.826004 -0.0113306 -1.22108e-18)
(0.855662 -0.0109531 0)
(0.88485 -0.0105968 -1.17204e-18)
(0.91359 -0.0102605 0)
(0.941907 -0.00994299 0)
(0.969823 -0.00964338 0)
(0.997361 -0.00936051 1.09013e-18)
(1.02454 -0.00909339 0)
(1.05139 -0.0088406 0)
(1.07792 -0.00860091 0)
(1.10415 -0.00837224 0)
(1.13008 -0.00815264 0)
(1.15573 -0.00793882 0)
(1.18108 -0.00772726 9.81576e-19)
(1.20611 -0.00751241 9.68701e-19)
(1.23078 -0.00728766 0)
(1.25502 -0.00704305 0)
(1.27873 -0.00676559 0)
(1.30174 -0.00643595 -9.2354e-19)
(1.32381 -0.00602574 0)
(1.34453 -0.00549328 1.81214e-18)
(1.36344 -0.00475899 -1.79888e-18)
(1.37916 -0.00371017 -1.7902e-18)
(1.39173 -0.00195833 1.78854e-18)
(1.392 0.0013777 -1.79434e-18)
(1.38935 0.00811211 1.80679e-18)
(1.30986 0.0198675 0)
(0.0969487 -0.27194 0)
(0.333017 -0.68159 0)
(0.513014 -0.705243 1.57204e-19)
(0.610217 -0.569432 0)
(0.660802 -0.406675 -1.1117e-19)
(0.680732 -0.251443 -1.08199e-19)
(0.674211 -0.109679 -5.63531e-20)
(0.643312 0.018147 -5.62738e-20)
(0.600016 0.127872 0)
(0.540348 0.214081 -6.09434e-20)
(0.46304 0.268928 0)
(0.368014 0.283784 0)
(0.251469 0.256139 1.71472e-19)
(0.10297 0.211579 9.8971e-20)
(-0.0832834 0.208488 -1.84204e-19)
(-0.310958 0.27554 -1.42681e-19)
(-0.590169 0.387157 -5.67662e-20)
(-0.916196 0.515689 0)
(-1.27085 0.642361 0)
(-1.62795 0.75494 0)
(-1.98083 0.841304 -2.8343e-20)
(-2.32665 0.894769 0)
(-2.6563 0.917573 6.8826e-20)
(-2.96244 0.913606 0)
(-3.2412 0.886796 0)
(-3.49083 0.842374 1.9802e-20)
(-3.71018 0.785704 0)
(-3.90012 0.722301 -1.97533e-20)
(-4.06265 0.656334 -4.1778e-20)
(-4.2013 0.590488 2.01652e-20)
(-4.31898 0.52687 0)
(-4.41856 0.467228 0)
(-4.50277 0.412376 0)
(-4.57396 0.362654 -4.42393e-20)
(-4.63421 0.318015 -4.47428e-20)
(-4.68518 0.278185 -2.21793e-20)
(-4.72824 0.24275 0)
(-4.76449 0.211229 4.52786e-20)
(-4.79481 0.183127 0)
(-4.81993 0.157964 -4.58434e-20)
(-4.84041 0.135301 0)
(-4.85675 0.114748 0)
(-4.86938 0.0959636 4.60455e-20)
(-4.87865 0.0786613 0)
(-4.88492 0.0626012 1.38023e-19)
(-4.88848 0.047591 -4.55595e-20)
(-4.88963 0.0334963 0)
(-4.8886 0.0202895 -4.48868e-20)
(-4.88564 0.00808839 -4.44279e-20)
(-4.88104 -0.00294391 0)
(-4.87386 -0.01287 0)
(-4.86299 -0.0219861 0)
(-4.84845 -0.0305297 0)
(-4.83012 -0.0386159 0)
(-4.80804 -0.0463141 4.01551e-20)
(-4.78227 -0.0536607 7.90387e-20)
(-4.75288 -0.0606767 -3.83759e-20)
(-4.71996 -0.0673729 0)
(-4.6836 -0.0737552 7.33546e-20)
(-4.64388 -0.0798259 -3.59001e-20)
(-4.60091 -0.0855858 0)
(-4.55479 -0.0910344 -3.31979e-20)
(-4.50563 -0.096172 0)
(-4.45353 -0.100999 0)
(-4.3986 -0.105519 -5.97476e-20)
(-4.34097 -0.10973 2.8312e-20)
(-4.28074 -0.113633 -5.45514e-20)
(-4.21805 -0.11723 5.18301e-20)
(-4.15302 -0.120527 2.42166e-20)
(-4.08577 -0.123526 0)
(-4.01643 -0.126234 2.12809e-20)
(-3.94513 -0.128655 0)
(-3.87199 -0.130798 0)
(-3.79715 -0.132667 0)
(-3.72073 -0.134273 1.55489e-20)
(-3.64286 -0.135624 0)
(-3.56366 -0.136728 2.35877e-20)
(-3.48327 -0.137596 -2.97002e-20)
(-3.40179 -0.138239 -7.84837e-21)
(-3.31934 -0.138666 0)
(-3.23606 -0.13889 -4.04384e-21)
(-3.15203 -0.138921 0)
(-3.06739 -0.138773 -8.86289e-23)
(-2.98222 -0.138456 0)
(-2.89664 -0.137983 8.32602e-21)
(-2.81073 -0.137366 -2.40039e-20)
(-2.7246 -0.136615 -1.71887e-20)
(-2.63833 -0.135742 0)
(-2.55202 -0.134754 0)
(-2.46576 -0.133656 0)
(-2.37964 -0.132448 3.64286e-20)
(-2.29378 -0.131121 0)
(-2.20832 -0.129648 -4.6912e-20)
(-2.1234 -0.127973 0)
(-2.03916 -0.126042 1.72687e-19)
(-1.95568 -0.123883 6.39079e-20)
(-1.87296 -0.121599 6.99463e-20)
(-1.79094 -0.119294 0)
(-1.70962 -0.117026 0)
(-1.62903 -0.114792 0)
(-1.54924 -0.11257 0)
(-1.47032 -0.110345 0)
(-1.39229 -0.108114 2.20164e-19)
(-1.3152 -0.105877 2.35677e-19)
(-1.23906 -0.103637 0)
(-1.16391 -0.101398 -1.35131e-19)
(-1.08977 -0.0991617 -1.43923e-19)
(-1.01668 -0.0969307 0)
(-0.944643 -0.0947065 -3.23859e-19)
(-0.873686 -0.0924939 0)
(-0.8038 -0.0903061 1.81768e-19)
(-0.734995 -0.0881494 0)
(-0.667281 -0.0860233 0)
(-0.600662 -0.0839308 -4.35456e-19)
(-0.535142 -0.0818728 0)
(-0.470721 -0.0798513 2.45382e-19)
(-0.407398 -0.0778691 0)
(-0.345173 -0.0759325 0)
(-0.284038 -0.0740495 2.9041e-19)
(-0.223986 -0.0722185 3.0975e-19)
(-0.165009 -0.0704336 0)
(-0.107102 -0.0686985 -3.47129e-19)
(-0.0502702 -0.0670126 0)
(0.00548825 -0.0653676 3.83099e-19)
(0.0602144 -0.0637558 7.66334e-19)
(0.113943 -0.0621902 0)
(0.166674 -0.0606848 0)
(0.21841 -0.0592443 0)
(0.269165 -0.0578659 0)
(0.318972 -0.0565516 7.0929e-19)
(0.367905 -0.0552894 2.09655e-18)
(0.416052 -0.0539031 0)
(0.463315 -0.0522479 0)
(0.509553 -0.0504715 0)
(0.554842 -0.0487262 -6.65587e-19)
(0.599263 -0.0470611 0)
(0.642844 -0.045483 0)
(0.685602 -0.0439898 1.28775e-18)
(0.727556 -0.0425747 6.36837e-19)
(0.768727 -0.041231 6.32295e-19)
(0.809136 -0.0399515 0)
(0.848806 -0.0387312 0)
(0.88776 -0.0375646 6.15698e-19)
(0.926019 -0.036449 -6.09445e-19)
(0.963605 -0.0353806 0)
(1.00054 -0.0343579 0)
(1.03684 -0.0333777 -5.96545e-19)
(1.07253 -0.0324392 1.77562e-18)
(1.10764 -0.03154 0)
(1.14217 -0.0306796 0)
(1.17616 -0.0298559 5.80024e-19)
(1.20961 -0.0290687 0)
(1.24257 -0.0283159 1.14428e-18)
(1.27504 -0.0275974 -5.68194e-19)
(1.30704 -0.0269113 0)
(1.33862 -0.0262576 5.6206e-19)
(1.36977 -0.0256344 1.11681e-18)
(1.40053 -0.0250413 0)
(1.43092 -0.0244765 0)
(1.46095 -0.0239391 -5.49199e-19)
(1.49066 -0.0234269 0)
(1.52005 -0.022938 1.08569e-18)
(1.54914 -0.0224692 0)
(1.57795 -0.0220169 0)
(1.60648 -0.021576 0)
(1.63473 -0.0211397 0)
(1.6627 -0.0206991 -5.28665e-19)
(1.69037 -0.0202421 -5.25911e-19)
(1.7177 -0.0197522 0)
(1.74463 -0.0192066 0)
(1.77107 -0.0185738 0)
(1.79688 -0.0178082 5.15883e-19)
(1.82186 -0.0168425 0)
(1.84566 -0.0155744 -1.02443e-18)
(1.86788 -0.0138253 1.02223e-18)
(1.8876 -0.0113127 1.02186e-18)
(1.90436 -0.00729858 1.02303e-18)
(1.91456 -0.000499282 1.0284e-18)
(1.92678 0.0124778 1.01982e-18)
(1.90722 0.0362667 0)
(0.118673 -0.861505 0)
(0.266991 -1.05284 0)
(0.313912 -0.823137 -1.256e-19)
(0.312989 -0.581202 -1.08125e-19)
(0.295271 -0.370616 1.00606e-19)
(0.263743 -0.185361 1.00884e-19)
(0.217197 -0.0198255 -6.46717e-22)
(0.154926 0.127923 0)
(0.0767793 0.258371 0)
(-0.0185008 0.369033 0)
(-0.134576 0.454274 0)
(-0.279655 0.51501 0)
(-0.466735 0.569184 -2.65953e-19)
(-0.705985 0.644947 0)
(-0.993076 0.758456 6.58519e-20)
(-1.31198 0.900474 5.68266e-20)
(-1.64488 1.04765 0)
(-1.97522 1.18016 0)
(-2.28811 1.28594 0)
(-2.57127 1.35902 0)
(-2.81893 1.39446 3.48201e-20)
(-3.03145 1.39104 0)
(-3.21031 1.35385 -3.22848e-20)
(-3.35856 1.29082 0)
(-3.48053 1.20919 0)
(-3.58078 1.11528 0)
(-3.66413 1.01511 -6.85503e-20)
(-3.73487 0.913931 0)
(-3.79654 0.815833 3.31147e-20)
(-3.85186 0.723556 -7.06773e-20)
(-3.90275 0.638587 0)
(-3.95047 0.56164 0)
(-3.99578 0.492751 0)
(-4.03902 0.431526 3.65528e-20)
(-4.08031 0.377314 3.71367e-20)
(-4.1196 0.329344 0)
(-4.15675 0.286822 0)
(-4.19158 0.248991 -7.77447e-20)
(-4.22392 0.21516 -7.81323e-20)
(-4.25361 0.184723 7.83603e-20)
(-4.2805 0.157165 0)
(-4.30448 0.132059 0)
(-4.32546 0.109061 0)
(-4.34336 0.0878886 0)
(-4.35814 0.0683089 -7.69265e-20)
(-4.36972 0.0501238 -7.68248e-20)
(-4.37804 0.0331499 7.61794e-20)
(-4.38297 0.0171866 0)
(-4.38432 0.00197744 0)
(-4.38194 -0.0127642 0)
(-4.37579 -0.0271656 0)
(-4.3659 -0.0411384 -7.10045e-20)
(-4.35235 -0.0545945 0)
(-4.33515 -0.0675212 0)
(-4.31437 -0.0799225 -6.68886e-20)
(-4.29004 -0.0918072 -6.48616e-20)
(-4.26223 -0.103183 0)
(-4.23102 -0.114053 1.24349e-19)
(-4.19647 -0.124419 -5.99194e-20)
(-4.15868 -0.134282 5.81414e-20)
(-4.11774 -0.14364 0)
(-4.07373 -0.152489 0)
(-4.02676 -0.160829 0)
(-3.97694 -0.168658 0)
(-3.92436 -0.17598 4.83022e-20)
(-3.86915 -0.182796 9.35324e-20)
(-3.81141 -0.189105 4.39336e-20)
(-3.75127 -0.194909 -4.16598e-20)
(-3.68884 -0.200217 0)
(-3.62424 -0.205034 7.51674e-20)
(-3.5576 -0.209367 7.02806e-20)
(-3.48904 -0.213227 6.52773e-20)
(-3.41869 -0.216623 -6.01582e-20)
(-3.34667 -0.219566 0)
(-3.27311 -0.22207 -7.36833e-20)
(-3.19813 -0.224148 0)
(-3.12186 -0.225814 1.99525e-20)
(-3.04441 -0.227084 1.57269e-20)
(-2.9659 -0.227974 0)
(-2.88646 -0.2285 0)
(-2.8062 -0.22868 1.50561e-20)
(-2.72522 -0.228532 0)
(-2.64365 -0.228074 2.61094e-21)
(-2.56158 -0.227324 0)
(-2.47913 -0.226302 1.03232e-20)
(-2.39639 -0.225027 3.53855e-20)
(-2.31346 -0.223519 0)
(-2.23044 -0.221796 0)
(-2.14743 -0.219878 0)
(-2.06452 -0.217781 4.49369e-20)
(-1.9818 -0.215522 0)
(-1.89938 -0.21311 5.97703e-20)
(-1.81735 -0.210548 0)
(-1.7358 -0.20782 0)
(-1.65481 -0.2049 -1.67824e-19)
(-1.5744 -0.201774 0)
(-1.49459 -0.198455 -9.97125e-20)
(-1.4154 -0.194987 0)
(-1.33684 -0.191427 -1.17007e-19)
(-1.25898 -0.187814 0)
(-1.18188 -0.184166 0)
(-1.10558 -0.180488 0)
(-1.03014 -0.176789 -4.64042e-19)
(-0.955574 -0.173075 -1.65503e-19)
(-0.881925 -0.169352 0)
(-0.809218 -0.165627 0)
(-0.737477 -0.161906 0)
(-0.666724 -0.158195 0)
(-0.596976 -0.154497 2.19353e-19)
(-0.528244 -0.150818 -4.59522e-19)
(-0.460536 -0.147168 -2.43212e-19)
(-0.393861 -0.143555 5.08766e-19)
(-0.328232 -0.139985 5.34592e-19)
(-0.263652 -0.136464 2.8196e-19)
(-0.200124 -0.132993 0)
(-0.137649 -0.129573 6.17452e-19)
(-0.0762282 -0.126208 0)
(-0.0158637 -0.1229 -6.74533e-19)
(0.0434509 -0.11965 -3.4548e-19)
(0.101729 -0.116461 0)
(0.158978 -0.113334 6.93715e-19)
(0.215202 -0.110272 3.49111e-19)
(0.270414 -0.107276 0)
(0.324623 -0.104336 3.48982e-19)
(0.377837 -0.101442 -1.05354e-18)
(0.430066 -0.098602 0)
(0.481323 -0.0958275 0)
(0.531624 -0.0931206 0)
(0.580989 -0.0904818 0)
(0.629439 -0.0879153 -7.0811e-19)
(0.677009 -0.0854281 -7.10574e-19)
(0.723722 -0.0830355 0)
(0.769542 -0.0807243 0)
(0.814453 -0.0784559 0)
(0.858511 -0.0762304 0)
(0.901757 -0.0740631 0)
(0.944209 -0.071962 0)
(0.985878 -0.06993 -7.14178e-19)
(1.02678 -0.0679667 -1.08903e-21)
(1.06693 -0.0660711 0)
(1.10636 -0.0642406 0)
(1.14507 -0.0624733 -7.13913e-19)
(1.1831 -0.0607669 0)
(1.22045 -0.0591202 7.14918e-19)
(1.25716 -0.0575313 7.14034e-19)
(1.29324 -0.0559993 0)
(1.32872 -0.0545226 0)
(1.36361 -0.0531006 -7.14508e-19)
(1.39793 -0.0517319 -1.42718e-18)
(1.4317 -0.0504161 0)
(1.46495 -0.0491518 0)
(1.49769 -0.0479385 0)
(1.52995 -0.0467747 -7.13098e-19)
(1.56174 -0.0456601 7.12697e-19)
(1.5931 -0.0445931 0)
(1.62403 -0.0435733 1.42244e-18)
(1.65457 -0.0425988 7.10185e-19)
(1.68473 -0.041669 -1.42033e-18)
(1.71454 -0.0407815 0)
(1.74401 -0.0399352 0)
(1.77316 -0.0391267 -1.41649e-18)
(1.80202 -0.0383533 -7.07956e-19)
(1.83059 -0.0376103 0)
(1.8589 -0.0368923 0)
(1.88695 -0.0361913 0)
(1.91474 -0.0354975 0)
(1.94227 -0.0347969 -1.40643e-18)
(1.96953 -0.0340714 0)
(1.9965 -0.0332957 0)
(2.0231 -0.0324358 0)
(2.04929 -0.0314435 0)
(2.07493 -0.0302506 0)
(2.09985 -0.0287563 0)
(2.1238 -0.0268091 -1.39737e-18)
(2.14644 -0.024157 0)
(2.1671 -0.0203956 0)
(2.18553 -0.0147315 -2.81647e-18)
(2.19895 -0.00584213 1.41829e-18)
(2.21359 0.00893257 -1.41628e-18)
(2.20848 0.0363433 1.41197e-18)
(0.0332967 -1.16458 0)
(0.0682726 -1.02607 3.60148e-19)
(0.0322856 -0.743185 0)
(-0.0125257 -0.502687 1.10848e-19)
(-0.0683427 -0.27977 0)
(-0.136705 -0.0699704 0)
(-0.220467 0.127056 -8.26051e-20)
(-0.322012 0.310548 0)
(-0.443474 0.480073 0)
(-0.58749 0.636211 0)
(-0.757934 0.781562 0)
(-0.960011 0.922308 0)
(-1.19617 1.06651 2.03235e-19)
(-1.4605 1.21731 9.20224e-20)
(-1.73835 1.36814 -8.33445e-20)
(-2.0114 1.50558 0)
(-2.2642 1.61596 0)
(-2.48698 1.69023 0)
(-2.67511 1.72497 0)
(-2.82703 1.72178 0)
(-2.94521 1.68438 6.00567e-20)
(-3.03536 1.6177 5.87518e-20)
(-3.10373 1.52865 -5.79167e-20)
(-3.15666 1.42502 5.76351e-20)
(-3.19946 1.31348 0)
(-3.23644 1.19941 0)
(-3.27101 1.08711 5.58312e-20)
(-3.30547 0.979825 0)
(-3.34108 0.879623 0)
(-3.37832 0.787515 5.86866e-20)
(-3.41719 0.703723 6.14909e-20)
(-3.45735 0.628011 6.22e-20)
(-3.49826 0.559842 0)
(-3.53931 0.498521 0)
(-3.57988 0.443286 -6.39996e-20)
(-3.61941 0.393385 0)
(-3.65743 0.34811 0)
(-3.6935 0.306822 6.42648e-20)
(-3.72731 0.268959 -6.59747e-20)
(-3.75856 0.234035 6.59823e-20)
(-3.78703 0.201638 0)
(-3.81254 0.17142 0)
(-3.83494 0.143086 1.29885e-19)
(-3.85411 0.116388 0)
(-3.86992 0.0911147 1.28487e-19)
(-3.8823 0.0670915 1.90822e-19)
(-3.89116 0.0441755 -1.89174e-19)
(-3.89643 0.022247 1.25178e-19)
(-3.89807 0.0011895 0)
(-3.89609 -0.0191124 0)
(-3.89052 -0.0387355 1.19709e-19)
(-3.8814 -0.0576977 5.83227e-20)
(-3.86879 -0.0759953 0)
(-3.8527 -0.0936267 0)
(-3.83318 -0.110591 5.48131e-20)
(-3.81027 -0.126887 1.08074e-19)
(-3.78404 -0.142514 0)
(-3.75454 -0.157468 -1.01617e-19)
(-3.72185 -0.171746 9.97856e-20)
(-3.68603 -0.185342 -9.68115e-20)
(-3.64717 -0.198252 0)
(-3.60537 -0.21047 0)
(-3.5607 -0.221991 0)
(-3.51328 -0.232812 0)
(-3.4632 -0.242939 0)
(-3.41057 -0.252369 -7.57251e-20)
(-3.3555 -0.261103 0)
(-3.29809 -0.269146 0)
(-3.23848 -0.276505 0)
(-3.17676 -0.283188 -1.22207e-19)
(-3.11307 -0.289206 -5.64931e-20)
(-3.04752 -0.29457 -5.23892e-20)
(-2.98023 -0.299296 9.76079e-20)
(-2.91132 -0.303398 -4.51437e-20)
(-2.84091 -0.306894 3.95887e-20)
(-2.76912 -0.309802 0)
(-2.69608 -0.312141 -3.066e-20)
(-2.6219 -0.313933 0)
(-2.54669 -0.315198 0)
(-2.47057 -0.315961 0)