/*--------------------------------*- C++ -*----------------------------------*\
  =========                 |
  \\      /  F ield         | OpenFOAM: The Open Source CFD Toolbox
   \\    /   O peration     | Website:  https://openfoam.org
    \\  /    A nd           | Version:  8
     \\/     M anipulation  |
\*---------------------------------------------------------------------------*/
FoamFile
{
    version     2.0;
    format      ascii;
    class       volScalarField;
    location    "1300";
    object      nut;
}
// * * * * * * * * * * * * * * * * * * * * * * * * * * * * * * * * * * * * * //

dimensions      [0 2 -1 0 0 0 0];

internalField   nonuniform List<scalar> 
12225
(
0.0122671
0.00158819
0.000666129
0.000410105
0.000294025
0.00022806
0.000183261
0.000170806
0.000132697
0.000106844
9.46738e-05
8.80089e-05
7.89863e-05
7.22336e-05
6.77332e-05
6.45094e-05
6.12128e-05
6.46357e-05
0.0323823
0.00744532
0.00330638
0.00204329
0.00146801
0.0011445
0.000936338
0.000799976
0.000679511
0.000577235
0.000506287
0.000452433
0.000410541
0.000378809
0.000350184
0.000327771
0.000311177
0.000292832
0.0490123
0.01515
0.00728196
0.00457855
0.00330639
0.00258054
0.00211233
0.00178913
0.00154181
0.00134762
0.00119772
0.0010787
0.00098206
0.000902486
0.000835985
0.000780918
0.000735559
0.000687193
0.063054
0.0237783
0.0122894
0.00788814
0.00573397
0.00448498
0.00367413
0.00310733
0.00268471
0.00235805
0.00210111
0.00189459
0.00172531
0.00158451
0.00146614
0.00136606
0.00128148
0.00119792
0.074932
0.0328517
0.0181452
0.0119262
0.00874548
0.00686412
0.0056308
0.00476254
0.00411748
0.0036203
0.00322732
0.00290993
0.002649
0.00243144
0.002248
0.0020919
0.00195828
0.00183629
0.0849536
0.0420208
0.0246655
0.0166359
0.0123325
0.00972587
0.00799539
0.00676785
0.00585346
0.0051477
0.00458845
0.00413588
0.00376335
0.00345241
0.00318984
0.00296598
0.00277362
0.00260474
0.0933822
0.0510219
0.0316642
0.0219415
0.016474
0.0130717
0.0107779
0.00913552
0.00790571
0.0069534
0.0061969
0.00558368
0.00507838
0.00465633
0.00429978
0.00399563
0.00373417
0.00350821
0.0993794
0.0583363
0.0378386
0.0268568
0.0204171
0.0163053
0.0134892
0.011453
0.00991891
0.00872629
0.00777636
0.00700498
0.00636867
0.00583686
0.00538742
0.005004
0.00467454
0.00439129
0.104023
0.0645454
0.0433804
0.0314239
0.0241571
0.0194092
0.0161097
0.0137018
0.0118766
0.0104521
0.00931444
0.00838905
0.00762486
0.00698576
0.00644546
0.00598451
0.00558861
0.0052488
0.108368
0.0708939
0.0493756
0.0365496
0.0284517
0.0230231
0.0191863
0.0163547
0.0141926
0.0124968
0.011138
0.0100304
0.00911435
0.00834761
0.00769912
0.00714581
0.0066707
0.006263
0.112368
0.0772557
0.0557282
0.0421918
0.0332976
0.0271652
0.0227468
0.0194432
0.0168984
0.0148903
0.0132749
0.0119544
0.0108605
0.0099438
0.00916798
0.00850588
0.00793738
0.00744917
0.115994
0.0834975
0.0623053
0.0482611
0.0386474
0.0318167
0.026789
0.0229739
0.0200046
0.0176452
0.0157379
0.0141736
0.0128749
0.011785
0.0108618
0.0100736
0.00939673
0.00881466
0.119234
0.0894856
0.0689377
0.0546109
0.0443919
0.0369007
0.0312597
0.0269088
0.0234836
0.02074
0.0185096
0.0166735
0.0151449
0.01386
0.0127704
0.0118396
0.0110397
0.0103508
0.122086
0.095084
0.075415
0.0610223
0.0503361
0.0422534
0.0360231
0.0311353
0.0272402
0.024093
0.021519
0.0193909
0.017614
0.0161174
0.0148466
0.0137601
0.0128257
0.0120196
0.124546
0.100135
0.0814619
0.0671725
0.056158
0.047577
0.0408126
0.0354174
0.031066
0.0275196
0.0246012
0.0221777
0.0201481
0.0184349
0.0169782
0.0157314
0.0146583
0.0137312
0.126578
0.104396
0.0866605
0.0725515
0.0613228
0.0523526
0.0451453
0.0393148
0.0345631
0.0306611
0.0274325
0.0247409
0.0224806
0.020569
0.0189413
0.0175468
0.0163454
0.0153061
0.128011
0.107322
0.0902141
0.0762353
0.0648743
0.0556509
0.0481493
0.0420254
0.0370012
0.0328553
0.0294126
0.0265352
0.0241143
0.0220643
0.0203172
0.0188191
0.0175275
0.0164083
0.128006
0.107313
0.0902048
0.0762269
0.0648674
0.0556454
0.048145
0.0420222
0.0369988
0.0328537
0.0294117
0.0265349
0.0241147
0.0220652
0.0203185
0.0188206
0.0175287
0.0164083
0.126509
0.104255
0.0864922
0.0723807
0.0611613
0.052205
0.0450128
0.0391967
0.0344584
0.0305686
0.0273506
0.0246684
0.0224163
0.0205118
0.0188903
0.0175006
0.0163024
0.0152631
0.124267
0.0995604
0.0807712
0.0664676
0.0554886
0.0469631
0.0402594
0.0349228
0.0306248
0.0271258
0.0242488
0.0218611
0.0198626
0.0181762
0.0167426
0.0155152
0.0144575
0.0135405
0.12136
0.0936399
0.0737261
0.0593348
0.0487592
0.0408249
0.0347467
0.0300003
0.0262308
0.0231928
0.0207127
0.018665
0.0169572
0.0155198
0.0142999
0.0132567
0.0123583
0.0115798
0.117686
0.0865903
0.0656967
0.0514791
0.0415374
0.0343608
0.0290184
0.0249322
0.0217348
0.0191848
0.0171184
0.0154211
0.0140106
0.0128263
0.0118228
0.0109656
0.010228
0.00958894
0.11305
0.0784122
0.056921
0.0432687
0.0342296
0.0279652
0.0234365
0.0200435
0.0174263
0.0153597
0.0136966
0.0123369
0.0112106
0.010267
0.00946865
0.00878718
0.008201
0.00769346
0.107169
0.0691009
0.0476372
0.035029
0.0271566
0.021922
0.0182437
0.0155401
0.0134817
0.0118706
0.0105816
0.00953197
0.00866487
0.00793964
0.00732669
0.00680376
0.00635411
0.00596494
0.0996761
0.0587036
0.0381279
0.0270699
0.0205782
0.0164329
0.0135949
0.0115438
0.00999922
0.00879908
0.00784341
0.00706755
0.00642792
0.00589353
0.00544233
0.00505735
0.00472636
0.00444011
0.0901097
0.0473665
0.0287363
0.0196847
0.0146976
0.0116312
0.00957853
0.00811528
0.00702332
0.00617994
0.00551058
0.0049679
0.00452123
0.00414795
0.00383347
0.00356466
0.00333341
0.00313389
0.0779076
0.0353826
0.0198606
0.0131383
0.00966107
0.00759298
0.00623352
0.00527429
0.004564
0.00401882
0.00358701
0.00323599
0.00294751
0.00270526
0.00250288
0.00232854
0.00217789
0.00204896
0.06238
0.0232554
0.0119461
0.00765493
0.00556337
0.00435256
0.00356724
0.00301639
0.00261307
0.00230792
0.00206665
0.00186689
0.00170308
0.00156251
0.00144869
0.00134759
0.00125905
0.00118366
0.0426105
0.0117794
0.0054693
0.00341385
0.00246071
0.00192005
0.00157275
0.00132885
0.00115943
0.00103846
0.000944041
0.000857504
0.000785385
0.000720531
0.000665872
0.000615686
0.000576584
0.000531849
0.0168348
0.00255985
0.00110002
0.000683428
0.000493724
0.000386803
0.000318219
0.000266307
0.000272613
0.00032205
0.000354121
0.00033789
0.000300242
0.000268119
0.000240451
0.00020596
0.000197179
0.000141444
3.98285e-09
5.91362e-07
2.00133e-06
6.29081e-06
1.08079e-05
1.35413e-05
1.32704e-05
1.18096e-05
9.08023e-06
5.96015e-06
3.53121e-06
2.02765e-06
1.40708e-06
1.49759e-06
2.055e-06
2.55166e-06
2.43813e-06
2.05127e-06
2.5126e-06
8.33417e-06
7.96329e-06
5.51464e-06
6.70148e-06
2.62738e-05
5.66736e-05
7.43312e-05
9.09107e-05
0.000104766
0.000116999
0.000127167
0.000136077
0.000143729
0.000150424
0.000156254
0.000161339
0.000165828
0.000169804
0.000173356
0.00017654
0.0001794
0.000181966
0.00018426
0.0001863
0.000188104
0.000189685
0.000191056
0.000192229
0.000193209
0.000193998
0.000194471
0.000194969
0.000195077
0.000195139
0.000195014
0.000194716
0.00019427
0.000193671
0.000192924
0.000192031
0.000190993
0.000189812
0.00018849
0.00018703
0.000185435
0.000183706
0.000181847
0.000179857
0.00017774
0.000175498
0.000173134
0.000170649
0.000168047
0.000165327
0.000162493
0.000159545
0.000156485
0.00015331
0.000150023
0.00014662
0.0001431
0.000139461
0.0001357
0.000131812
0.000127793
0.000123636
0.000119332
0.000114868
0.00011023
0.000105396
0.000100343
9.50417e-05
8.94665e-05
8.36104e-05
7.75395e-05
7.15292e-05
6.62477e-05
6.24893e-05
6.0148e-05
5.83956e-05
5.67897e-05
5.52136e-05
5.36452e-05
5.2083e-05
5.05287e-05
4.8984e-05
4.74511e-05
4.59326e-05
4.44347e-05
4.29855e-05
4.17486e-05
4.05446e-05
3.93548e-05
3.81823e-05
3.70277e-05
3.58919e-05
3.47756e-05
3.36797e-05
3.26049e-05
3.15518e-05
3.05208e-05
2.95123e-05
2.85268e-05
2.75648e-05
2.66269e-05
2.5713e-05
2.4823e-05
2.39581e-05
2.3146e-05
2.24118e-05
2.16962e-05
2.09956e-05
2.03183e-05
1.9669e-05
1.90342e-05
1.84132e-05
1.78093e-05
1.72235e-05
1.66558e-05
1.61062e-05
1.55742e-05
1.50595e-05
1.45616e-05
1.40801e-05
1.36145e-05
1.31645e-05
1.27297e-05
1.23096e-05
1.19038e-05
1.15121e-05
1.1134e-05
1.07691e-05
1.04171e-05
1.00776e-05
9.75045e-06
9.43517e-06
9.13153e-06
8.83925e-06
8.55808e-06
8.28779e-06
8.02818e-06
7.77905e-06
7.54023e-06
7.31154e-06
7.0928e-06
6.8838e-06
6.6843e-06
6.49396e-06
6.31237e-06
6.13897e-06
5.97301e-06
5.81369e-06
5.65942e-06
5.50978e-06
5.35979e-06
5.21404e-06
5.04799e-06
4.89402e-06
4.64763e-06
4.48945e-06
3.59435e-06
1.6797e-07
6.13697e-06
6.38662e-05
0.000139671
0.000183249
0.000207037
0.000216433
0.000214954
0.000206628
0.000189932
0.00016913
0.00014894
0.000138399
0.000143496
0.000157395
0.000166256
0.000168555
0.000169661
0.000174998
0.000184689
0.000200029
0.000217357
0.000234239
0.000250775
0.00026209
0.000272005
0.000280819
0.000293618
0.000312744
0.000326696
0.00033945
0.00035038
0.000360314
0.000369418
0.000377323
0.000384538
0.000391255
0.000397699
0.000404
0.000410224
0.000416367
0.000422387
0.00042823
0.000433855
0.000439235
0.000444353
0.000449193
0.000453744
0.000458007
0.000461981
0.000465706
0.000469149
0.000472346
0.000475288
0.000477979
0.000480421
0.000482615
0.00048456
0.000486258
0.000487709
0.000488913
0.000489872
0.000490588
0.000491065
0.000491313
0.000491338
0.000491134
0.000490697
0.000490044
0.000489179
0.000488107
0.000486835
0.00048537
0.000483719
0.000481888
0.000479885
0.000477718
0.000475393
0.000472918
0.0004703
0.000467548
0.000464669
0.000461672
0.000458564
0.000455354
0.00045205
0.00044866
0.000445194
0.000441659
0.000438061
0.000434409
0.000430707
0.000426955
0.000423145
0.000419258
0.000415269
0.00041116
0.000406959
0.000402719
0.000398462
0.000394197
0.000389928
0.000385658
0.00038139
0.000377129
0.000372877
0.000368637
0.000364412
0.000360201
0.000356003
0.000351827
0.000347679
0.00034356
0.000339472
0.000335417
0.000331397
0.000327413
0.000323466
0.000319559
0.000315691
0.000311864
0.000308079
0.000304337
0.000300639
0.000296987
0.000293378
0.000289814
0.000286294
0.000282814
0.00027938
0.000275989
0.00027265
0.000269364
0.000266114
0.0002629
0.000259727
0.000256598
0.000253514
0.000250475
0.000247481
0.000244531
0.000241624
0.000238761
0.000235939
0.00023316
0.000230422
0.000227724
0.000225067
0.000222449
0.000219871
0.000217332
0.000214831
0.00021237
0.000209946
0.000207562
0.000205216
0.00020291
0.000200643
0.000198418
0.000196234
0.000194093
0.000191997
0.000189947
0.000187946
0.000185995
0.000184095
0.000182248
0.000180454
0.000178712
0.000177021
0.000175375
0.000173776
0.000172198
0.000170684
0.000169073
0.000167751
0.000165619
0.000164903
0.000162096
0.000160722
7.68444e-07
4.45235e-05
0.000164276
0.000246544
0.000299909
0.00033026
0.000341322
0.000338469
0.000325644
0.000306351
0.000286523
0.0002737
0.00027136
0.000277977
0.000288307
0.000299122
0.000311874
0.000328839
0.000350474
0.000375701
0.000403153
0.000431499
0.000469557
0.000515971
0.000561638
0.000605807
0.000648918
0.000692595
0.000731977
0.000763299
0.000788334
0.000808178
0.000823907
0.000836387
0.000846399
0.00085472
0.000862051
0.000869039
0.000876219
0.00088395
0.000892338
0.000901261
0.00091048
0.000919757
0.000928916
0.000937835
0.00094644
0.000954683
0.000962525
0.000969941
0.000976907
0.000983394
0.000989399
0.000994914
0.000999939
0.00100447
0.00100851
0.00101206
0.00101512
0.00101768
0.00101975
0.00102133
0.00102241
0.00102295
0.00102311
0.00102283
0.00102204
0.00102079
0.0010191
0.00101699
0.00101445
0.0010115
0.00100817
0.00100445
0.00100037
0.000995942
0.000991175
0.000986088
0.000980695
0.00097501
0.00096905
0.00096283
0.000956364
0.000949667
0.000942756
0.000935645
0.000928348
0.00092088
0.000913255
0.000905485
0.000897583
0.000889559
0.000881424
0.000873185
0.000864851
0.000856431
0.000847937
0.000839386
0.000830794
0.000822174
0.000813537
0.000804892
0.000796246
0.000787608
0.000778985
0.000770383
0.000761809
0.00075327
0.00074477
0.000736315
0.00072791
0.000719562
0.000711275
0.000703053
0.000694899
0.000686817
0.000678809
0.00067088
0.000663031
0.000655265
0.000647583
0.000639989
0.000632482
0.000625066
0.000617742
0.00061051
0.00060337
0.000596322
0.000589369
0.00058251
0.000575745
0.000569076
0.0005625
0.000556011
0.000549609
0.000543295
0.000537073
0.000530942
0.000524902
0.000518953
0.000513095
0.000507325
0.000501644
0.000496049
0.00049054
0.000485116
0.000479776
0.000474518
0.000469341
0.000464245
0.000459228
0.000454288
0.000449425
0.000444639
0.000439926
0.000435288
0.000430722
0.000426227
0.000421802
0.000417446
0.000413158
0.000408935
0.000404777
0.00040068
0.000396642
0.00039266
0.00038873
0.000384847
0.000381004
0.000377191
0.000373398
0.00036961
0.000365801
0.000361954
0.000357995
0.000353954
0.000349473
0.000345079
0.000338589
0.00032713
5.06575e-07
8.12808e-05
0.000212984
0.000309238
0.000373048
0.000410487
0.000426082
0.000426477
0.000416452
0.000403008
0.00039478
0.000393893
0.000403069
0.000420256
0.000443004
0.000470758
0.000504116
0.00054344
0.000587916
0.000649952
0.000723784
0.000803539
0.000887856
0.000958578
0.00102105
0.00107721
0.00112765
0.00117258
0.00121188
0.00124578
0.00127504
0.00130039
0.00132252
0.00134207
0.00135961
0.00137564
0.00139057
0.00140474
0.0014184
0.00143175
0.00144492
0.00145797
0.00147093
0.00148379
0.00149648
0.00150894
0.00152107
0.00153278
0.00154397
0.00155457
0.00156452
0.0015738
0.00158237
0.00159024
0.00159737
0.00160378
0.00160946
0.00161439
0.00161859
0.00162206
0.00162478
0.00162676
0.00162792
0.00162835
0.00162823
0.00162732
0.00162569
0.00162337
0.00162037
0.00161672
0.00161242
0.0016075
0.00160198
0.00159588
0.00158922
0.00158203
0.00157432
0.00156612
0.00155746
0.00154835
0.00153882
0.00152889
0.00151859
0.00150793
0.00149695
0.00148566
0.00147409
0.00146225
0.00145017
0.00143787
0.00142537
0.00141269
0.00139984
0.00138684
0.00137371
0.00136046
0.00134711
0.00133368
0.00132019
0.00130665
0.00129309
0.00127952
0.00126595
0.00125239
0.00123885
0.00122535
0.00121189
0.00119849
0.00118515
0.00117188
0.00115869
0.00114559
0.00113258
0.00111968
0.00110688
0.00109419
0.00108162
0.00106917
0.00105685
0.00104465
0.00103258
0.00102065
0.00100886
0.000997207
0.000985694
0.000974324
0.000963098
0.000952016
0.00094108
0.000930289
0.000919645
0.000909148
0.000898793
0.000888577
0.0008785
0.000868563
0.000858766
0.00084911
0.000839595
0.00083022
0.000820984
0.000811885
0.000802923
0.000794095
0.0007854
0.000776836
0.000768402
0.000760094
0.000751913
0.000743855
0.00073592
0.000728105
0.000720408
0.000712829
0.000705364
0.000698012
0.000690771
0.000683639
0.000676615
0.000669695
0.000662878
0.000656161
0.000649541
0.000643015
0.000636578
0.000630225
0.000623951
0.000617748
0.000611606
0.000605512
0.000599452
0.000593402
0.000587334
0.000581211
0.000574967
0.000568549
0.000561772
0.00055458
0.000546338
0.000530147
1.49311e-06
0.000102055
0.00023513
0.000355089
0.000434031
0.000481559
0.000505203
0.000513659
0.000515206
0.000516146
0.000522968
0.000539077
0.00056509
0.000600041
0.000643135
0.000694382
0.000754404
0.000837767
0.000933385
0.00102967
0.00111871
0.00120314
0.00128252
0.00135526
0.00142205
0.00148349
0.00153998
0.00159186
0.00163948
0.00168327
0.00172371
0.00176129
0.00179644
0.00182952
0.00186086
0.00189071
0.00191926
0.00194665
0.00197298
0.00199831
0.00202267
0.00204608
0.00206852
0.00208999
0.00211046
0.00212989
0.00214826
0.00216554
0.0021817
0.00219672
0.00221059
0.00222332
0.00223491
0.00224539
0.00225476
0.00226304
0.00227026
0.00227642
0.00228155
0.00228566
0.00228875
0.0022908
0.00229172
0.00229181
0.00229093
0.00228905
0.00228622
0.00228245
0.00227776
0.00227218
0.00226574
0.00225845
0.00225035
0.00224147
0.00223184
0.00222149
0.00221045
0.00219874
0.00218641
0.00217348
0.00215999
0.00214596
0.00213142
0.00211641
0.00210096
0.0020851
0.00206885
0.00205225
0.00203533
0.00201812
0.00200063
0.00198291
0.00196497
0.00194683
0.00192852
0.00191007
0.00189149
0.00187281
0.00185405
0.00183524
0.00181639
0.00179753
0.00177868
0.00175984
0.00174104
0.00172229
0.0017036
0.00168499
0.00166647
0.00164804
0.00162973
0.00161154
0.00159348
0.00157557
0.00155779
0.00154017
0.00152272
0.00150542
0.0014883
0.00147136
0.0014546
0.00143802
0.00142163
0.00140543
0.00138943
0.00137362
0.001358
0.00134259
0.00132737
0.00131235
0.00129753
0.00128291
0.00126849
0.00125426
0.00124022
0.00122638
0.00121272
0.00119926
0.00118599
0.00117291
0.00116002
0.00114732
0.0011348
0.00112247
0.00111032
0.00109834
0.00108654
0.00107492
0.00106346
0.00105218
0.00104106
0.0010301
0.0010193
0.00100867
0.000998183
0.000987853
0.000977674
0.000967643
0.000957756
0.000948011
0.000938405
0.000928933
0.000919593
0.000910379
0.000901287
0.00089231
0.00088344
0.00087467
0.000865986
0.000857374
0.000848816
0.000840285
0.000831749
0.000823163
0.00081446
0.000805569
0.000796325
0.000786581
0.000776613
0.000756792
2.27154e-06
0.000118204
0.000256381
0.000390182
0.000487287
0.000549215
0.000587075
0.000610518
0.00062824
0.000647515
0.000673604
0.000709166
0.000754936
0.000811188
0.000878304
0.000968758
0.00107386
0.00117559
0.00127483
0.00137037
0.0014611
0.00154713
0.0016284
0.00170488
0.00177687
0.00184471
0.00190875
0.00196932
0.00202675
0.00208137
0.0021335
0.00218344
0.00223143
0.00227769
0.00232236
0.00236558
0.00240743
0.00244797
0.00248724
0.00252523
0.00256194
0.00259736
0.00263145
0.00266419
0.00269553
0.00272544
0.00275386
0.00278078
0.00280613
0.0028299
0.00285206
0.00287258
0.00289145
0.00290865
0.00292419
0.00293806
0.00295026
0.0029608
0.00296969
0.00297695
0.00298261
0.00298669
0.00298912
0.00299002
0.00298956
0.00298759
0.00298424
0.00297954
0.00297354
0.00296629
0.00295784
0.00294825
0.00293756
0.00292584
0.00291312
0.00289945
0.00288489
0.00286947
0.00285325
0.00283626
0.00281855
0.00280016
0.00278112
0.00276149
0.0027413
0.00272059
0.00269941
0.00267778
0.00265574
0.00263335
0.00261061
0.00258758
0.00256429
0.00254076
0.00251702
0.00249312
0.00246906
0.00244489
0.00242063
0.0023963
0.00237194
0.00234757
0.0023232
0.00229887
0.00227458
0.00225037
0.00222623
0.0022022
0.00217829
0.00215451
0.00213087
0.00210739
0.00208407
0.00206094
0.002038
0.00201525
0.00199271
0.00197038
0.00194827
0.00192639
0.00190474
0.00188332
0.00186214
0.00184121
0.00182052
0.00180008
0.00177989
0.00175995
0.00174026
0.00172083
0.00170165
0.00168272
0.00166404
0.00164561
0.00162742
0.00160948
0.00159178
0.00157433
0.00155712
0.00154014
0.00152341
0.00150692
0.00149065
0.00147462
0.00145882
0.00144324
0.00142789
0.00141275
0.00139783
0.00138312
0.00136862
0.00135432
0.00134023
0.00132633
0.00131263
0.00129913
0.00128581
0.00127268
0.00125973
0.00124696
0.00123436
0.00122193
0.00120967
0.00119757
0.00118562
0.00117382
0.00116216
0.00115063
0.00113921
0.00112789
0.00111665
0.00110546
0.00109428
0.00108308
0.00107177
0.0010603
0.00104848
0.00103626
0.00102408
0.0010016
2.80588e-06
0.000126827
0.000269299
0.000407766
0.00052655
0.000608086
0.000664278
0.00070626
0.000743278
0.0007826
0.000829288
0.000886296
0.000955232
0.00104751
0.00115447
0.00126108
0.00136719
0.00147057
0.00157067
0.00166705
0.00175947
0.00184793
0.00193252
0.0020134
0.00209081
0.00216503
0.00223632
0.00230497
0.00237121
0.0024353
0.00249744
0.0025578
0.00261654
0.00267378
0.00272959
0.00278404
0.00283717
0.00288897
0.00293945
0.00298859
0.00303636
0.00308273
0.00312764
0.00317105
0.00321291
0.00325316
0.00329176
0.00332864
0.00336377
0.00339708
0.00342855
0.00345813
0.00348579
0.00351149
0.00353521
0.00355694
0.00357664
0.00359433
0.00360998
0.00362361
0.0036352
0.00364479
0.00365236
0.00365798
0.00366163
0.00366325
0.00366317
0.00366118
0.00365741
0.00365189
0.00364468
0.00363584
0.00362542
0.00361349
0.00360011
0.00358534
0.00356925
0.00355191
0.00353338
0.00351373
0.00349303
0.00347134
0.00344874
0.00342528
0.00340103
0.00337605
0.00335041
0.00332415
0.00329735
0.00327004
0.00324229
0.00321413
0.00318563
0.00315681
0.00312773
0.00309842
0.00306892
0.00303927
0.00300951
0.00297966
0.00294976
0.00291984
0.00288992
0.00286004
0.00283022
0.00280047
0.00277083
0.00274131
0.00271193
0.00268271
0.00265367
0.00262481
0.00259616
0.00256773
0.00253952
0.00251155
0.00248383
0.00245637
0.00242918
0.00240226
0.00237561
0.00234925
0.00232318
0.00229741
0.00227193
0.00224674
0.00222186
0.00219729
0.00217301
0.00214905
0.00212538
0.00210202
0.00207896
0.0020562
0.00203373
0.00201157
0.00198969
0.00196811
0.00194682
0.00192582
0.0019051
0.00188467
0.00186452
0.00184465
0.00182505
0.00180573
0.00178666
0.00176787
0.00174932
0.00173104
0.001713
0.00169522
0.00167767
0.00166037
0.0016433
0.00162646
0.00160985
0.00159346
0.00157729
0.00156133
0.00154559
0.00153005
0.00151471
0.00149957
0.00148462
0.00146984
0.00145524
0.00144079
0.00142649
0.00141232
0.00139826
0.00138428
0.00137033
0.00135638
0.00134236
0.00132818
0.00131371
0.00129895
0.00128394
0.00125969
2.94315e-06
0.000128748
0.000270699
0.00040736
0.000538187
0.000641853
0.000719095
0.000780517
0.000836279
0.000894081
0.000961572
0.00105345
0.00116302
0.00128477
0.00140035
0.00151164
0.00161948
0.00172407
0.00182535
0.00192324
0.00201775
0.00210898
0.00219705
0.00228217
0.00236453
0.00244438
0.00252194
0.0025974
0.00267098
0.00274283
0.0028131
0.00288191
0.00294935
0.00301548
0.00308035
0.00314397
0.00320634
0.00326746
0.00332729
0.00338579
0.00344292
0.00349861
0.00355281
0.00360547
0.0036565
0.00370585
0.00375346
0.00379925
0.00384317
0.00388516
0.00392517
0.00396314
0.00399902
0.00403278
0.00406437
0.00409377
0.00412095
0.00414588
0.00416855
0.00418896
0.00420708
0.00422293
0.00423652
0.00424784
0.00425693
0.0042638
0.00426852
0.00427098
0.00427141
0.00426977
0.0042661
0.00426045
0.00425289
0.00424346
0.00423223
0.00421926
0.00420461
0.00418835
0.00417056
0.00415129
0.00413062
0.00410863
0.00408538
0.00406096
0.00403542
0.00400884
0.00398129
0.00395285
0.00392358
0.00389355
0.00386282
0.00383146
0.00379953
0.00376708
0.00373418
0.00370089
0.00366724
0.00363331
0.00359913
0.00356475
0.00353023
0.00349559
0.00346088
0.00342615
0.00339141
0.00335672
0.00332208
0.00328755
0.00325313
0.00321886
0.00318475
0.00315084
0.00311714
0.00308366
0.00305042
0.00301744
0.00298473
0.0029523
0.00292017
0.00288834
0.00285682
0.00282561
0.00279474
0.00276419
0.00273398
0.00270411
0.00267458
0.0026454
0.00261656
0.00258807
0.00255993
0.00253214
0.00250469
0.00247759
0.00245083
0.00242441
0.00239833
0.00237258
0.00234718
0.00232211
0.00229736
0.00227295
0.00224886
0.00222509
0.00220164
0.0021785
0.00215567
0.00213314
0.00211091
0.00208898
0.00206735
0.002046
0.00202493
0.00200414
0.00198362
0.00196338
0.0019434
0.00192368
0.00190421
0.001885
0.00186604
0.00184732
0.00182883
0.00181057
0.00179254
0.00177472
0.0017571
0.00173967
0.00172243
0.00170534
0.00168838
0.00167153
0.00165475
0.00163799
0.00162118
0.00160425
0.00158705
0.00156965
0.00155171
0.00152557
2.76027e-06
0.000125288
0.000264083
0.000395837
0.000520644
0.000633209
0.000727194
0.000808349
0.00089128
0.000986543
0.00109571
0.00122035
0.00135674
0.00148427
0.00160459
0.00171962
0.00183035
0.00193713
0.0020403
0.00214019
0.00223704
0.00233102
0.00242235
0.00251123
0.00259786
0.00268245
0.00276519
0.00284625
0.00292578
0.00300392
0.00308077
0.0031564
0.00323088
0.00330425
0.0033765
0.00344764
0.00351764
0.00358647
0.00365408
0.00372041
0.00378539
0.00384897
0.00391106
0.00397158
0.00403046
0.00408762
0.00414299
0.00419648
0.00424803
0.00429756
0.00434502
0.00439033
0.00443345
0.00447433
0.00451291
0.00454915
0.00458303
0.00461451
0.00464358
0.0046702
0.00469438
0.00471611
0.00473539
0.00475222
0.00476662
0.00477861
0.00478822
0.00479545
0.00480039
0.00480295
0.00480334
0.00480152
0.00479756
0.0047915
0.0047834
0.00477331
0.00476131
0.00474746
0.00473182
0.00471446
0.00469545
0.00467487
0.00465277
0.00462925
0.00460436
0.00457819
0.00455081
0.00452228
0.00449268
0.00446209
0.00443056
0.00439818
0.004365
0.00433109
0.00429652
0.00426135
0.00422565
0.00418946
0.00415285
0.00411587
0.00407859
0.00404104
0.00400329
0.00396536
0.00392732
0.0038892
0.00385104
0.00381288
0.00377474
0.00373668
0.00369871
0.00366087
0.00362318
0.00358566
0.00354835
0.00351125
0.0034744
0.0034378
0.00340148
0.00336544
0.00332971
0.00329429
0.00325919
0.00322443
0.00319001
0.00315594
0.00312222
0.00308886
0.00305587
0.00302324
0.00299099
0.0029591
0.00292759
0.00289644
0.00286567
0.00283526
0.00280523
0.00277556
0.00274626
0.00271733
0.00268876
0.00266055
0.00263269
0.0026052
0.00257805
0.00255125
0.00252479
0.00249867
0.00247289
0.00244743
0.00242231
0.0023975
0.00237302
0.00234884
0.00232498
0.00230142
0.00227815
0.00225519
0.00223251
0.00221012
0.00218801
0.00216618
0.00214461
0.0021233
0.00210225
0.00208145
0.00206088
0.00204053
0.00202039
0.00200044
0.00198065
0.00196099
0.00194142
0.0019219
0.00190234
0.00188269
0.0018628
0.00184274
0.00182199
0.00179366
2.34526e-06
0.000118008
0.000252881
0.000381022
0.000504006
0.000620542
0.000731416
0.00084047
0.00095533
0.00108117
0.00121923
0.00136897
0.00151129
0.00164329
0.00176757
0.00188601
0.00199974
0.0021094
0.00221538
0.00231788
0.0024173
0.00251402
0.00260833
0.0027005
0.00279076
0.00287929
0.00296629
0.00305192
0.0031363
0.00321955
0.00330175
0.00338295
0.0034632
0.0035425
0.00362085
0.00369822
0.00377457
0.00384985
0.00392399
0.00399693
0.00406858
0.00413885
0.00420766
0.00427491
0.00434052
0.0044044
0.00446645
0.0045266
0.00458475
0.00464083
0.00469477
0.00474648
0.00479592
0.00484302
0.00488773
0.00492999
0.00496978
0.00500706
0.00504179
0.00507396
0.00510356
0.00513057
0.00515499
0.00517682
0.00519609
0.00521279
0.00522696
0.00523861
0.00524779
0.00525451
0.00525883
0.00526076
0.00526042
0.00525782
0.005253
0.00524603
0.00523698
0.0052259
0.00521286
0.00519793
0.00518116
0.00516264
0.00514244
0.00512062
0.00509726
0.00507243
0.00504621
0.00501866
0.00498987
0.00495989
0.00492881
0.00489668
0.00486359
0.00482959
0.00479476
0.00475915
0.00472284
0.00468589
0.00464836
0.0046103
0.00457178
0.00453285
0.00449357
0.00445398
0.00441414
0.00437409
0.00433389
0.00429356
0.00425315
0.00421271
0.00417226
0.00413184
0.00409149
0.00405123
0.0040111
0.00397111
0.0039313
0.00389169
0.00385229
0.00381314
0.00377424
0.00373561
0.00369727
0.00365923
0.00362151
0.00358411
0.00354705
0.00351033
0.00347396
0.00343794
0.00340229
0.003367
0.00333209
0.00329755
0.00326338
0.00322958
0.00319617
0.00316313
0.00313046
0.00309818
0.00306627
0.00303473
0.00300357
0.00297278
0.00294236
0.0029123
0.00288261
0.00285328
0.0028243
0.00279568
0.0027674
0.00273947
0.00271189
0.00268464
0.00265772
0.00263113
0.00260486
0.00257892
0.0025533
0.00252798
0.00250297
0.00247826
0.00245385
0.00242973
0.00240588
0.00238231
0.002359
0.00233594
0.00231311
0.00229049
0.00226806
0.00224578
0.00222361
0.0022015
0.00217939
0.00215719
0.00213479
0.00211221
0.00208891
0.00205825
1.92751e-06
0.000110323
0.000242586
0.000369937
0.000495676
0.000620095
0.000744981
0.000874435
0.00101175
0.00115902
0.0013164
0.00147821
0.00162604
0.00176251
0.00189062
0.00201239
0.0021291
0.00224155
0.0023503
0.00245572
0.00255812
0.00265769
0.00275487
0.00285001
0.00294341
0.00303529
0.00312586
0.00321527
0.00330366
0.00339113
0.00347775
0.00356356
0.0036486
0.00373285
0.0038163
0.00389891
0.00398061
0.00406136
0.00414105
0.00421962
0.00429695
0.00437297
0.00444755
0.00452061
0.00459203
0.00466172
0.00472958
0.00479551
0.00485941
0.0049212
0.00498079
0.00503811
0.00509309
0.00514566
0.00519576
0.00524334
0.00528836
0.00533077
0.00537055
0.00540767
0.0054421
0.00547385
0.0055029
0.00552926
0.00555294
0.00557394
0.00559229
0.00560801
0.00562114
0.00563169
0.00563972
0.00564526
0.00564837
0.0056491
0.00564749
0.00564361
0.00563752
0.00562928
0.00561894
0.00560657
0.00559225
0.00557604
0.005558
0.00553822
0.00551676
0.0054937
0.00546911
0.00544306
0.00541563
0.00538688
0.00535688
0.00532571
0.00529343
0.00526011
0.00522583
0.00519063
0.0051546
0.00511779
0.00508027
0.00504211
0.00500334
0.00496405
0.00492428
0.00488408
0.00484352
0.00480263
0.00476146
0.00472007
0.0046785
0.00463678
0.00459496
0.00455307
0.00451116
0.00446926
0.00442739
0.00438559
0.00434389
0.00430232
0.00426089
0.00421964
0.00417859
0.00413774
0.00409714
0.00405678
0.0040167
0.00397689
0.00393738
0.00389818
0.00385929
0.00382073
0.00378251
0.00374462
0.00370709
0.00366991
0.00363308
0.00359662
0.00356052
0.00352479
0.00348943
0.00345444
0.00341982
0.00338558
0.0033517
0.0033182
0.00328507
0.00325231
0.00321992
0.00318789
0.00315622
0.00312492
0.00309397
0.00306338
0.00303314
0.00300325
0.00297371
0.00294451
0.00291564
0.00288712
0.00285892
0.00283106
0.00280351
0.00277629
0.00274938
0.00272277
0.00269646
0.00267045
0.00264471
0.00261925
0.00259403
0.00256905
0.00254426
0.00251966
0.00249518
0.00247078
0.00244639
0.00242194
0.00239731
0.00237251
0.002347
0.00231419
1.54391e-06
0.000102179
0.000232087
0.000359068
0.000487727
0.000618976
0.000755479
0.000899153
0.00105173
0.00121376
0.00138574
0.00155174
0.00170354
0.00184387
0.00197549
0.00210038
0.00221989
0.00233495
0.00244623
0.00255422
0.0026593
0.00276179
0.00286194
0.00295995
0.00305624
0.00315111
0.00324478
0.00333745
0.00342926
0.00352032
0.00361069
0.00370042
0.00378952
0.00387799
0.00396579
0.00405286
0.00413916
0.00422458
0.00430905
0.00439246
0.00447471
0.00455569
0.00463528
0.00471336
0.00478983
0.00486458
0.00493749
0.00500846
0.00507739
0.00514418
0.00520874
0.00527098
0.00533084
0.00538823
0.0054431
0.00549539
0.00554504
0.00559203
0.00563631
0.00567785
0.00571663
0.00575265
0.00578589
0.00581635
0.00584404
0.00586898
0.00589118
0.00591066
0.00592745
0.00594158
0.0059531
0.00596203
0.00596844
0.00597236
0.00597385
0.00597298
0.00596982
0.00596439
0.00595676
0.00594701
0.0059352
0.0059214
0.00590568
0.00588811
0.00586875
0.00584769
0.005825
0.00580074
0.00577499
0.00574782
0.0057193
0.0056895
0.00565848
0.00562632
0.00559309
0.00555884
0.00552364
0.00548757
0.00545067
0.00541303
0.00537468
0.0053357
0.00529615
0.00525606
0.00521551
0.00517453
0.00513318
0.00509151
0.00504956
0.00500738
0.004965
0.00492247
0.00487983
0.00483711
0.00479436
0.00475159
0.00470884
0.00466615
0.00462353
0.00458103
0.00453865
0.00449642
0.00445437
0.00441252
0.00437088
0.00432947
0.0042883
0.0042474
0.00420677
0.00416642
0.00412637