/*--------------------------------*- C++ -*----------------------------------*\
| =========                 |                                                 |
| \\      /  F ield         | OpenFOAM: The Open Source CFD Toolbox           |
|  \\    /   O peration     | Version:  v2012                                 |
|   \\  /    A nd           | Website:  www.openfoam.com                      |
|    \\/     M anipulation  |                                                 |
\*---------------------------------------------------------------------------*/
FoamFile
{
    version     2.0;
    format      ascii;
    class       volScalarField;
    location    "400";
    object      k;
}
// * * * * * * * * * * * * * * * * * * * * * * * * * * * * * * * * * * * * * //

dimensions      [0 2 -2 0 0 0 0];


internalField   nonuniform List<scalar> 
12225
(
0.533755
0.814936
0.986924
1.07554
1.10269
1.09728
1.08013
1.05023
1.01812
0.987344
0.958833
0.932627
0.910051
0.888659
0.872553
0.854714
0.845778
0.829947
0.36803
0.380293
0.394667
0.414602
0.43062
0.44715
0.462756
0.482368
0.501785
0.526349
0.543417
0.566447
0.581294
0.602501
0.614948
0.634145
0.643723
0.66046
0.368665
0.368866
0.369003
0.367312
0.364211
0.359301
0.35442
0.349327
0.345173
0.341895
0.339053
0.337018
0.335159
0.334096
0.333003
0.332672
0.331967
0.332204
0.371884
0.369736
0.368107
0.365705
0.363494
0.360146
0.357008
0.35295
0.349333
0.345113
0.341464
0.337394
0.333935
0.330103
0.326844
0.323357
0.320338
0.317253
0.373315
0.370862
0.368793
0.366397
0.364392
0.361921
0.359705
0.356985
0.354522
0.351643
0.349076
0.346131
0.343541
0.340664
0.338181
0.335427
0.333122
0.330511
0.373765
0.371402
0.369284
0.367032
0.365082
0.362978
0.361089
0.358994
0.357058
0.354928
0.352964
0.350832
0.348878
0.34678
0.344896
0.342866
0.341095
0.339147
0.37385
0.371562
0.369463
0.367343
0.365423
0.363494
0.361729
0.35992
0.358227
0.356477
0.354829
0.353127
0.351528
0.34988
0.34835
0.346766
0.345324
0.343807
0.37385
0.371584
0.369483
0.367424
0.365514
0.363653
0.361923
0.36022
0.358616
0.357021
0.355508
0.353995
0.352561
0.351122
0.349767
0.348402
0.347131
0.345831
0.373843
0.371581
0.369469
0.367434
0.365526
0.363693
0.361973
0.360314
0.358746
0.357223
0.355775
0.35436
0.353014
0.351691
0.350436
0.349196
0.348028
0.34686
0.373837
0.371574
0.369447
0.367419
0.365506
0.363681
0.36196
0.360316
0.358759
0.357266
0.355848
0.354482
0.353182
0.351925
0.350729
0.349567
0.348462
0.347382
0.373832
0.371567
0.369429
0.367398
0.365478
0.363652
0.361924
0.360279
0.35872
0.357233
0.35582
0.354471
0.353186
0.351956
0.350783
0.349658
0.348583
0.347551
0.373829
0.371561
0.369416
0.367381
0.365453
0.363622
0.361886
0.360237
0.35867
0.357179
0.355762
0.354412
0.353127
0.351901
0.350732
0.349616
0.34855
0.347531
0.373828
0.371557
0.369406
0.367367
0.365433
0.363598
0.361856
0.3602
0.358627
0.357131
0.355707
0.354351
0.35306
0.35183
0.350657
0.349539
0.34847
0.347451
0.373827
0.371554
0.369399
0.367357
0.365419
0.363579
0.361832
0.360172
0.358593
0.357092
0.355662
0.354302
0.353005
0.35177
0.350591
0.349468
0.348395
0.347372
0.373826
0.371552
0.369395
0.367349
0.365408
0.363565
0.361814
0.36015
0.358568
0.357062
0.355628
0.354263
0.352962
0.351722
0.35054
0.349412
0.348335
0.347308
0.373825
0.37155
0.369392
0.367344
0.365401
0.363555
0.361802
0.360135
0.358549
0.35704
0.355603
0.354235
0.35293
0.351687
0.350502
0.349371
0.348291
0.347261
0.373825
0.371549
0.36939
0.367341
0.365396
0.363549
0.361793
0.360124
0.358536
0.357025
0.355586
0.354215
0.352909
0.351663
0.350475
0.349342
0.34826
0.347228
0.373825
0.371549
0.369389
0.36734
0.365394
0.363546
0.36179
0.360119
0.35853
0.357017
0.355577
0.354205
0.352897
0.35165
0.350461
0.349326
0.348243
0.347209
0.373825
0.371549
0.36939
0.367341
0.365395
0.363547
0.36179
0.360119
0.35853
0.357017
0.355576
0.354203
0.352895
0.351647
0.350457
0.349322
0.348239
0.347205
0.373825
0.37155
0.369391
0.367343
0.365398
0.36355
0.361794
0.360124
0.358535
0.357022
0.355581
0.354209
0.352901
0.351653
0.350464
0.349329
0.348246
0.347212
0.373826
0.371551
0.369394
0.367347
0.365403
0.363556
0.361801
0.360132
0.358544
0.357032
0.355593
0.354221
0.352914
0.351667
0.350478
0.349344
0.348261
0.347227
0.373826
0.371554
0.369398
0.367353
0.365411
0.363566
0.361813
0.360146
0.358559
0.357049
0.35561
0.354239
0.352931
0.351684
0.350494
0.349358
0.348273
0.347237
0.373826
0.371558
0.369403
0.367362
0.365422
0.363581
0.361829
0.360162
0.358574
0.357061
0.355617
0.354241
0.352925
0.35167
0.350467
0.349318
0.348216
0.347163
0.373824
0.371565
0.369411
0.367374
0.365435
0.363594
0.361834
0.360156
0.358547
0.35701
0.355537
0.354128
0.352773
0.351475
0.350222
0.349021
0.347859
0.346747
0.373809
0.371577
0.369407
0.367366
0.365409
0.363551
0.361748
0.360013
0.358323
0.3567
0.355124
0.353612
0.352138
0.35072
0.349331
0.347996
0.346686
0.345432
0.373735
0.37156
0.369324
0.367244
0.365224
0.363319
0.361382
0.359487
0.357583
0.355743
0.353919
0.352161
0.350417
0.348734
0.347061
0.345453
0.343855
0.342331
0.37336
0.371409
0.369098
0.366965
0.364847
0.362817
0.360565
0.358311
0.355929
0.353626
0.351278
0.349025
0.346759
0.344585
0.342418
0.340346
0.3383
0.336361
0.372463
0.371502
0.369365
0.367582
0.365372
0.363113
0.360288
0.357473
0.354359
0.351453
0.348488
0.34578
0.343169
0.34077
0.338604
0.336567
0.334873
0.333167
0.374591
0.375562
0.378292
0.382811
0.386926
0.391498
0.395815
0.400612
0.405522
0.411098
0.416983
0.423406
0.430373
0.437548
0.44551
0.453162
0.461252
0.46822
0.442678
0.578874
0.685086
0.765572
0.82265
0.862269
0.887014
0.902641
0.911835
0.91601
0.915397
0.912506
0.907586
0.900865
0.892346
0.883963
0.87586
0.868097
4.20774e-06
3.33265e-05
8.57655e-05
0.00016645
0.000265901
0.00038443
0.000583382
0.000913897
0.00140819
0.00205152
0.00274661
0.00345432
0.00411469
0.00469793
0.00519666
0.00560074
0.00590912
0.00611946
0.00624571
0.00624439
0.00618765
0.00608899
0.00585309
0.0054695
0.00492184
0.00419458
0.00330161
0.00229981
0.00132257
0.000571031
0.000168581
4.57712e-05
3.51809e-05
3.85998e-05
4.48186e-05
5.29318e-05
6.11701e-05
6.66332e-05
8.20999e-05
0.000127643
0.000328491
0.000738015
0.00135299
0.00187602
0.00218383
0.00216978
0.00205464
0.00183833
0.00161005
0.00144006
0.00147734
0.00183306
0.00228196
0.00251806
0.00302686
0.0041313
0.00934274
0.0252442
0.0441733
0.0627477
0.0802265
0.096625
0.111993
0.126554
0.140447
0.153912
0.166784
0.178846
0.19038
0.201327
0.211854
0.221956
0.231736
0.241211
0.250441
0.259442
0.268241
0.276861
0.285322
0.293631
0.301801
0.309837
0.317744
0.325523
0.333176
0.340701
0.348097
0.355359
0.362482
0.369461
0.376287
0.382951
0.389444
0.395754
0.401871
0.407785
0.41349
0.418987
0.424286
0.42942
0.434449
0.439296
0.443965
0.448462
0.452778
0.456912
0.46086
0.464616
0.468177
0.47154
0.474701
0.477656
0.480404
0.482941
0.485267
0.487378
0.489274
0.490954
0.492417
0.493663
0.494693
0.495506
0.496104
0.496486
0.496652
0.496622
0.496534
0.496146
0.495543
0.49473
0.493611
0.492287
0.490733
0.489024
0.487139
0.48509
0.482832
0.480349
0.47773
0.474925
0.471965
0.468845
0.465573
0.462157
0.458601
0.454915
0.451103
0.447174
0.443134
0.438991
0.434764
0.4304
0.42601
0.421467
0.416941
0.41226
0.407639
0.402876
0.39821
0.393395
0.388663
0.383837
0.379039
0.374215
0.369386
0.364554
0.359726
0.354908
0.350105
0.345315
0.340536
0.335756
0.33096
0.326126
0.321204
0.316116
0.310808
0.305195
0.300662
0.28493
2.05605e-05
1.38396e-05
4.70491e-05
0.000121352
0.000309488
0.000894772
0.00210588
0.0039546
0.00619571
0.00851794
0.0106929
0.0126159
0.014105
0.0151418
0.0157818
0.0160297
0.0159746
0.0157629
0.0153632
0.0147895
0.0140287
0.01306
0.0119166
0.0105842
0.00915412
0.00757101
0.00604954
0.00461523
0.00328112
0.00213645
0.00127337
0.000712975
0.000394378
0.00022486
0.000139841
0.000100985
8.7067e-05
8.88174e-05
0.000355993
0.000624811
0.00216105
0.004578
0.00781184
0.0102192
0.0113882
0.0112919
0.0107883
0.00939783
0.00832638
0.0085888
0.0103039
0.0143164
0.018357
0.0252843
0.0356316
0.0501255
0.0707956
0.0966806
0.121289
0.14777
0.173817
0.200573
0.227225
0.25396
0.280377
0.306356
0.331663
0.356215
0.379983
0.402949
0.425169
0.446691
0.467596
0.487974
0.507865
0.527354
0.546469
0.565272
0.58381
0.602102
0.620182
0.63806
0.655755
0.673273
0.69062
0.707798
0.724807
0.741644
0.758302
0.774774
0.791049
0.807113
0.822952
0.838544
0.853866
0.868892
0.883591
0.897931
0.911875
0.925389
0.938455
0.951253
0.963772
0.97601
0.987956
0.9996
1.01093
1.02193
1.0326
1.04293
1.05289
1.0625
1.07172
1.08057
1.08902
1.09707
1.10472
1.11196
1.11879
1.12519
1.13117
1.13673
1.14187
1.14658
1.15087
1.15476
1.15825
1.16134
1.16408
1.16649
1.16862
1.17033
1.17146
1.17237
1.1727
1.17289
1.17272
1.17196
1.17087
1.1694
1.16757
1.16538
1.16284
1.15996
1.15676
1.15324
1.14941
1.1453
1.14091
1.13626
1.13133
1.12619
1.12076
1.11516
1.10929
1.10331
1.09709
1.09082
1.08435
1.07786
1.07122
1.06453
1.05775
1.05091
1.04401
1.03706
1.03008
1.02308
1.01608
1.00907
1.00207
0.995054
0.987992
0.980843
0.973521
0.965887
0.957761
0.948768
0.937085
0.910277
2.46055e-05
1.16932e-05
5.38262e-05
0.000235561
0.000745123
0.0022126
0.00479322
0.00783835
0.0109346
0.013811
0.0163002
0.0183142
0.0198319
0.0208818
0.0215023
0.0217743
0.0217368
0.0215747
0.0211867
0.02065
0.0199809
0.0191768
0.0182331
0.0171303
0.0158317
0.0143783
0.0126431
0.0107151
0.00871739
0.00673477
0.00493451
0.003311
0.00212211
0.00136317
0.000901807
0.000651266
0.00051532
0.0004291
0.00120777
0.00219806
0.00648906
0.0132747
0.0192756
0.0233396
0.0253612
0.0262043
0.0266644
0.0273549
0.0300303
0.0372849
0.0501265
0.068021
0.0841912
0.106141
0.130539
0.158342
0.188798
0.220779
0.255774
0.292323
0.329924
0.368042
0.405975
0.443276
0.479508
0.514441
0.547958
0.580067
0.610849
0.640428
0.668954
0.696573
0.723403
0.749579
0.77518
0.8003
0.825008
0.849362
0.8734
0.897154
0.92065
0.943904
0.966927
0.989727
1.01231
1.03467
1.0568
1.07871
1.10039
1.12182
1.14301
1.16393
1.18457
1.20493
1.225
1.24475
1.26418
1.28329
1.30206
1.3205
1.33862
1.3564
1.37382
1.39085
1.40748
1.42369
1.43948
1.45482
1.4697
1.4841
1.49801
1.51142
1.52432
1.5367
1.54854
1.55983
1.57057
1.58075
1.59037
1.59941
1.60787
1.61575
1.62305
1.62978
1.63592
1.64149
1.64648
1.65091
1.65477
1.65808
1.66082
1.66297
1.6645
1.66545
1.66581
1.66582
1.66519
1.66398
1.66226
1.66002
1.65728
1.65403
1.65031
1.64611
1.64146
1.63637
1.63085
1.62493
1.61862
1.61194
1.60488
1.5975
1.58974
1.58171
1.57333
1.56475
1.55587
1.54685
1.53757
1.52819
1.51863
1.50896
1.49917
1.48927
1.47928
1.46921
1.45908
1.4489
1.43871
1.42852
1.41832
1.40813
1.3979
1.38763
1.37723
1.36663
1.35565
1.34402
1.32975
1.30504
2.48393e-05
2.75787e-05
0.000186412
0.000856599
0.00244968
0.00603987
0.0104609
0.0148547
0.0187986
0.0220621
0.0245623
0.0263202
0.027387
0.0279282
0.0279804
0.0278288
0.0274466
0.0268684
0.0261805
0.025412
0.0245802
0.0236823
0.0227128
0.0216541
0.0204802
0.0191696
0.0176815
0.0159869
0.01409
0.0120582
0.00997674
0.00800348
0.00611745
0.00450867
0.00324915
0.00241387
0.00198275
0.00203398
0.00432034
0.00975296
0.0224139
0.0339989
0.0421859
0.0471118
0.0496648
0.0529882
0.0615916
0.0762265
0.0922939
0.108823
0.126592
0.144758
0.166623
0.194561
0.225395
0.261423
0.299854
0.340826
0.383178
0.426162
0.469178
0.511793
0.553628
0.594449
0.634083
0.672454
0.709549
0.745427
0.780168
0.813885
0.846696
0.878713
0.910027
0.940748
0.970949
1.0007
1.03006
1.05907
1.08776
1.11616
1.14428
1.17214
1.19975
1.22711
1.25422
1.28108
1.30768
1.33402
1.36009
1.38588
1.41139
1.4366
1.4615
1.48609
1.51035
1.53427
1.55785
1.58108
1.60393
1.62641
1.64848
1.67013
1.69132
1.71206
1.7323
1.75202
1.77122
1.78988
1.80796
1.82546
1.84236
1.85865
1.8743
1.88931
1.90366
1.91735
1.93036
1.94267
1.95429
1.96521
1.97542
1.98492
1.9937
2.00177
2.00912
2.01576
2.02168
2.02688
2.03138
2.03516
2.03823
2.04059
2.0422
2.04304
2.04329
2.04293
2.04186
2.04012
2.03773
2.03471
2.03106
2.02681
2.02196
2.01654
2.01056
2.00404
1.997
1.98946
1.98144
1.97295
1.96401
1.95466
1.94488
1.93473
1.92419
1.91334
1.90216
1.89075
1.87906
1.8672
1.85512
1.84289
1.83051
1.81798
1.80533
1.79258
1.77974
1.76684
1.75391
1.74097
1.72804
1.71511
1.7022
1.68927
1.67632
1.66328
1.65004
1.63643
1.62073
1.59788
3.28332e-05
9.36626e-05
0.000644827
0.00241389
0.00686416
0.0133089
0.0194742
0.0246471
0.0285423
0.0311731
0.0327339
0.0334781
0.0335642
0.0333473
0.0328149
0.032064
0.0312102
0.0303035
0.0293771
0.0284489
0.0275239
0.0265941
0.025645
0.0246561
0.0236026
0.0224552
0.0211831
0.019754
0.018133
0.0163148
0.0143469
0.0123378
0.0103796
0.00855757
0.00723193
0.00574489
0.00594542
0.00858148
0.0183959
0.0382525
0.0569724
0.0708997
0.0804115
0.0881386
0.0974429
0.108868
0.121649
0.134757
0.149024
0.165567
0.18684
0.212985
0.244433
0.280723
0.320053
0.362105
0.405248
0.449326
0.493635
0.537928
0.581969
0.625605
0.668678
0.711061
0.752656
0.793398
0.833259
0.872253
0.910412
0.947788
0.98445
1.02047
1.05591
1.09084
1.12532
1.1594
1.19312
1.2265
1.25958
1.29236
1.32486
1.35709
1.38905
1.42074
1.45216
1.4833
1.51416
1.54472
1.57498
1.60492
1.63455
1.66384
1.6928
1.72139
1.74962
1.77747
1.80492
1.83195
1.85856
1.88471
1.91038
1.93555
1.96019
1.98428
2.0078
2.03072
2.05302
2.07467
2.09566
2.11597
2.13557
2.15445
2.17259
2.18997
2.20659
2.22242
2.23745
2.25168
2.26509
2.27767
2.28943
2.30034
2.31042
2.31965
2.32804
2.33558
2.34228
2.34814
2.35315
2.35732
2.36066
2.36317
2.36479
2.36553
2.36561
2.36491
2.3634
2.36111
2.35807
2.35428
2.34977
2.34455
2.33865
2.33206
2.32483
2.31697
2.30849
2.29943
2.2898
2.27963
2.26894
2.25775
2.24607
2.23395
2.22138
2.20844
2.19512
2.18149
2.16756
2.15339
2.13898
2.12437
2.10958
2.09461
2.0795
2.06425
2.0489
2.03347
2.018
2.00252
1.98705
1.97161
1.95621
1.94085
1.92554
1.91027
1.89496
1.87952
1.86253
1.84028
2.72456e-05
0.000284573
0.00188148
0.00659236
0.0157321
0.0241294
0.0304822
0.0346873
0.037102
0.0382383
0.0385006
0.0382609
0.0376151
0.0366672
0.0355787
0.0344286
0.0332753
0.0321576
0.0310972
0.0301012
0.0291644
0.028271
0.0273997
0.0265243
0.0256138
0.0246336
0.0235528
0.0223454
0.0209912
0.0194702
0.017803
0.0160602
0.0143327
0.0123466
0.0113844
0.0123054
0.0180976
0.0343363
0.0599018
0.0841352
0.103243
0.116538
0.125819
0.133673
0.141872
0.151211
0.162289
0.176444
0.196045
0.220498
0.250688
0.285579
0.324263
0.365431
0.407944
0.451334
0.495082
0.539103
0.583214
0.627379
0.671539
0.715628
0.759555
0.803221
0.846531
0.889403
0.931773
0.97361
1.0149
1.05567
1.09593
1.13572
1.17508
1.21404
1.25263
1.2909
1.32885
1.3665
1.40387
1.44097
1.47778
1.51433
1.55059
1.58657
1.62226
1.65765
1.69273
1.72749
1.76191
1.79598
1.82969
1.86304
1.896
1.92855
1.96069
1.99239
2.02364
2.05441
2.08468
2.11442
2.14361
2.17222
2.20023
2.2276
2.25432
2.28035
2.30568
2.33026
2.35409
2.37713
2.39936
2.42077
2.44133
2.46103
2.47984
2.49775
2.51475
2.53083
2.54597
2.56016
2.5734
2.58567
2.59699
2.60733
2.6167
2.62511
2.63254
2.639
2.6445
2.64904
2.65261
2.65525
2.65686
2.65749
2.65737
2.65631
2.65436
2.65152
2.64782
2.64327
2.6379
2.63172
2.62475
2.61702
2.60855
2.59936
2.58947
2.57891
2.5677
2.55588
2.54346
2.53048
2.51695
2.5029
2.48835
2.47336
2.45795
2.44217
2.42605
2.40963
2.39295
2.37602
2.35889
2.34155
2.32404
2.30637
2.28858
2.2707
2.25277
2.23482
2.21689
2.19901
2.18119
2.16347
2.14587
2.12841
2.11107
2.09377
2.07532
2.05275
7.06626e-05
0.000905888
0.00517899
0.0160734
0.0274746
0.0352562
0.0397932
0.0421119
0.0430227
0.0430016
0.0424879
0.0414346
0.0401167
0.0386646
0.0371748
0.0357199
0.0343498
0.0330934
0.0319613
0.0309495
0.0300419
0.029214
0.0284369
0.0276752
0.0268906
0.026036
0.0250709
0.0239671
0.0226956
0.0212195
0.0195084
0.0176088
0.0158758
0.0160714
0.0198045
0.0321577
0.0557638
0.0846616
0.111424
0.132189
0.145492
0.152883
0.157803
0.163186
0.170618
0.182216
0.198978
0.221042
0.248743
0.281238
0.317854
0.357184
0.398177
0.440051
0.482424
0.525143
0.568135
0.611424
0.655024
0.698959
0.743223
0.787775
0.832544
0.877434
0.922341
0.967174
1.01186
1.05633
1.10055
1.1445
1.18817
1.23157
1.2747
1.31757
1.3602
1.40259
1.44474
1.48665
1.52833
1.56975
1.61092
1.65182
1.69244
1.73276
1.77278
1.81247
1.85183
1.89084
1.92948
1.96774
2.00559
2.04303
2.08004
2.1166
2.15268
2.18827
2.22335
2.25788
2.29184
2.3252
2.35794
2.39002
2.42141
2.4521
2.48204
2.5112
2.53957
2.5671
2.59378
2.61957
2.64444
2.66839
2.69137
2.71338
2.73439
2.75438
2.77334
2.79125
2.80811
2.82389
2.8386
2.85222
2.86475
2.87619
2.88652
2.89577
2.90391
2.91096
2.91692
2.92179
2.92558
2.92832
2.92989
2.93043
2.93004
2.92862
2.92619
2.92277
2.91838
2.91305
2.90679
2.89962
2.89158
2.88268
2.87295
2.86241
2.85109
2.83903
2.82623
2.81274
2.79859
2.7838
2.7684
2.75242
2.73589
2.71885
2.70134
2.68342
2.66511
2.64646
2.62751
2.60828
2.58881
2.56911
2.54921
2.52914
2.50892
2.4886
2.46823
2.44783
2.42746
2.40716
2.38694
2.36687
2.34698
2.32731
2.30787
2.28862
2.26849
2.24496
0.000616166
0.00271717
0.0123882
0.0281773
0.0383944
0.0439684
0.0467316
0.0477681
0.0476837
0.0469222
0.0455264
0.0438147
0.0419448
0.0400429
0.0382053
0.0364995
0.0349658
0.0336202
0.0324583
0.0314608
0.0305984
0.0298356
0.0291311
0.0284388
0.0276959
0.0268769
0.0259901
0.0250618
0.0241431
0.0234251
0.0233067
0.0245077
0.0284305
0.0368238
0.0541274
0.0803072
0.1081
0.133437
0.15276
0.164231
0.169898
0.17311
0.177157
0.185466
0.198835
0.217795
0.242215
0.271573
0.30515
0.341836
0.380615
0.420517
0.461026
0.501921
0.543165
0.584794
0.62687
0.669471
0.712659
0.756476
0.800931
0.845989
0.891578
0.93762
0.98402
1.03068
1.07752
1.12447
1.17146
1.21844
1.26539
1.31228
1.3591
1.40583
1.45246
1.49897
1.54535
1.59156
1.6376
1.68343
1.72902
1.77436
1.81943
1.86419
1.90864
1.95274
1.99649
2.03984
2.0828
2.12533
2.16741
2.20903
2.25017
2.29081
2.33091
2.37046
2.40943
2.44779
2.48551
2.52255
2.5589
2.59451
2.62935
2.66339
2.6966
2.72894
2.76038
2.7909
2.82045
2.84901
2.87654
2.90304
2.92845
2.95278
2.97599
2.99806
3.01897
3.03872
3.05727
3.07463
3.09079
3.10573
3.11945
3.13194
3.14322
3.15326
3.16208
3.16968
3.17606
3.18123
3.18521
3.188
3.18951
3.18991
3.18921
3.18738
3.18443
3.18039
3.17527
3.1691
3.16191
3.15372
3.14456
3.13445
3.12342
3.11151
3.09873
3.08512
3.07071
3.05552
3.03961
3.02299
3.00569
2.98775
2.96921
2.9501
2.93048
2.9104
2.8899
2.86901
2.84778
2.82624
2.80443
2.78236
2.76007
2.73758
2.71494
2.69218
2.66936
2.64652
2.62371
2.60097
2.57836
2.55591
2.53369
2.51177
2.49016
2.46884
2.44684
2.42187
0.00226197
0.00654614
0.0235685
0.0389546
0.0471069
0.0510858
0.0526761
0.0527474
0.051902
0.0502626
0.0481889
0.0458849
0.0435182
0.041222
0.0390934
0.0371934
0.0355499
0.0341626
0.0330091
0.0320539
0.0312532
0.0305569
0.0299138
0.0292488
0.0285343
0.0277497
0.0270008
0.0264097
0.0262488
0.0273629
0.0310007
0.0391114
0.0541793
0.0759549
0.101224
0.126061
0.147871
0.164216
0.173941
0.178701
0.181957
0.187481
0.1974
0.212788
0.233581
0.259367
0.289403
0.322818
0.358705
0.396161
0.434501
0.473316
0.512487
0.552039
0.592061
0.632656
0.673928
0.715972
0.758868
0.802658
0.847344
0.892906
0.939295
0.98644
1.03426
1.08266
1.13155
1.18086
1.2305
1.28043
1.33058
1.38091
1.43139
1.48197
1.53261
1.58328
1.63394
1.68453
1.73502
1.78535
1.83548
1.88538
1.93501
1.98433
2.03331
2.08193
2.13017
2.17798
2.22535
2.27225
2.31865
2.36454
2.4099
2.45469
2.49889
2.54247
2.5854
2.62765
2.66918
2.70997
2.74997
2.78914
2.82746
2.86489
2.90139
2.93692
2.97145
3.00495
3.03738
3.0687
3.09888
3.1279
3.15573
3.18235
3.20772
3.23183
3.25466
3.27619
3.29641
3.31529
3.33284
3.34904
3.36389
3.37739
3.38954
3.40032
3.40976
3.41784
3.42458
3.42998
3.43407
3.43685
3.43823
3.43842
3.43736
3.43505
3.43152
3.42679
3.42088
3.41383
3.40565
3.39638
3.38605
3.37468
3.36231
3.34896
3.33468
3.31949
3.30342
3.28651
3.2688
3.25032
3.23109
3.21117
3.19059
3.1694
3.14765
3.1254
3.10269
3.07955
3.05603
3.03218
3.00802
2.98357
2.95888
2.93398
2.90891
2.88371
2.85845
2.83317
2.80792
2.78275
2.75772
2.73289
2.70832
2.68409
2.66024
2.63676
2.61275
2.58605
0.00479238
0.0126769
0.0348232
0.0484335
0.0549156
0.0577299
0.0583831
0.0576668
0.0559682
0.0536298
0.050923
0.048069
0.0452527
0.0426171
0.0402594
0.038231
0.0365441
0.035183
0.0341108
0.0332787
0.0326421
0.0321529
0.0317997
0.031613
0.0316799
0.032172
0.0333153
0.0354966
0.0394017
0.0463463
0.0584826
0.0750268
0.094764
0.115988
0.136535
0.154176
0.167509
0.176372
0.182061
0.187358
0.195082
0.207198
0.22437
0.246454
0.27281
0.302668
0.335218
0.369707
0.405469
0.441982
0.478944
0.516263
0.553994
0.59225
0.631161
0.670856
0.711456
0.753063
0.795748
0.839557
0.884511
0.9306
0.977789
1.02602
1.07523
1.12533
1.17624
1.22787
1.28014
1.33298
1.38632
1.4401
1.49426
1.54873
1.60344
1.65834
1.71336
1.76842
1.82346
1.8784
1.93319
1.98775
2.04204
2.09602
2.14965
2.20289
2.25571
2.30806
2.35992
2.41126
2.46206
2.51228
2.56191
2.61091
2.65925
2.7069
2.75383
2.79999
2.84536
2.88989
2.93355
2.97629
3.01808
3.05887
3.09863
3.13732
3.1749
3.21134
3.24659
3.28061
3.31338
3.34486
3.37502
3.40385
3.4313
3.45737
3.48202
3.50524
3.52701
3.54732
3.56616
3.58352
3.5994
3.6138
3.62671
3.63813
3.64808
3.65654
3.66353
3.66906
3.67316
3.67582
3.67701
3.67687
3.67536
3.67249
3.66828
3.66278
3.656
3.64798
3.63874
3.62832
3.61674
3.60405
3.59027
3.57545
3.55962
3.5428
3.52504
3.50636
3.48681
3.46643
3.44525
3.42331
3.40067
3.37738
3.35349
3.32906
3.30414
3.27875
3.25295
3.22678
3.20027
3.17345
3.14636
3.11905
3.09156
3.06394
3.03624
3.00853
2.98084
2.95325
2.9258
2.89857
2.87163
2.84507
2.81894
2.79324
2.76714
2.73879
0.00731741
0.0207558
0.0449313
0.0568219
0.0622146
0.0642279
0.0641769
0.0627367
0.0603581
0.0573893
0.0541227
0.0508063
0.0476412
0.0447756
0.0423015
0.0402597
0.0386458
0.0374332
0.0365644
0.0359796
0.035696
0.0355899
0.0358032
0.0364911
0.0379455
0.0407068
0.045415
0.0527673
0.0632068
0.0766755
0.091971
0.108711
0.125841
0.142024
0.15605
0.167259
0.175878
0.183092
0.190859
0.201193
0.215463
0.234117
0.256887
0.283171
0.312254
0.343472
0.376241
0.41008
0.444615
0.479617
0.515011
0.550847
0.587243
0.624344
0.662297
0.701243
0.741302
0.782573
0.825137
0.869052
0.914349
0.961033
1.00909
1.05847
1.10911
1.16096
1.21393
1.26793
1.32288
1.3787
1.4353
1.4926
1.55052
1.60896
1.66784
1.72707
1.78654
1.84617
1.90585
1.9655
2.02503
2.08435
2.14339
2.20211
2.26045
2.31836
2.37582
2.43276
2.48915
2.54497
2.60017
2.65474
2.70864
2.76185
2.81432
2.86601
2.9169
2.96693
3.01608
3.0643
3.11155
3.15778
3.20294
3.247
3.28992
3.33165
3.37215
3.4114
3.44933
3.48592
3.52112
3.55491
3.58725
3.61812
3.64749
3.67535
3.70165
3.7264
3.74956
3.77112
3.79109
3.80944
3.82618
3.84131
3.85482
3.86672
3.87701
3.88569
3.89279
3.89831
3.90226
3.90467
3.90554
3.90494
3.90285
3.89929
3.89431
3.88793
3.88018
3.87109
3.8607
3.84904
3.83615
3.82206
3.80681
3.79045
3.77301
3.75452
3.73502
3.71455
3.69315
3.67084
3.64768
3.62371
3.599
3.5736
3.54758
3.52098
3.49385
3.46623
3.43817
3.4097
3.38086
3.35169
3.32223
3.29253
3.26265
3.23264
3.20255
3.17243
3.14235
3.11235
3.0825
3.05289
3.02358
2.99468
2.96624
2.93829
2.91004
2.8799
0.00920344
0.0294704
0.0537256
0.0648924
0.0696505
0.071044
0.0704013
0.0683547
0.0653981
0.0619231
0.0582561
0.0546651
0.0513577
0.0484799
0.0461151
0.0442993
0.0430089
0.0422575
0.0419849
0.042066
0.0426883
0.0439926
0.0462088
0.049609
0.0544812
0.0610563
0.0694719
0.0797066
0.0915886
0.104678
0.118276
0.131768
0.144504
0.155972
0.166043
0.175078
0.184058
0.194293
0.207053
0.223141
0.242776
0.265693
0.291381
0.319274
0.348858
0.379706
0.41148
0.443928
0.476889
0.510304
0.54421
0.578715
0.613961
0.650106
0.687299
0.725677
0.765366
0.806472
0.849083
0.893267
0.93907
0.986514
1.03559
1.08628
1.13854
1.19229
1.24748
1.30401
1.36179
1.42074
1.48075
1.54172
1.60355
1.66612
1.7293
1.79297
1.857
1.92128
1.9857
2.05012
2.11444
2.17855
2.24238
2.30585
2.36891
2.4315
2.49356
2.55506
2.61593
2.67615
2.73569
2.79452
2.85261
2.90992
2.9664
3.02202
3.07673
3.13048
3.18325
3.23499
3.28564
3.33516
3.3835
3.43062
3.47647
3.52101
3.56421
3.60601
3.64638
3.68528
3.72266
3.75849
3.79275
3.8254
3.85643
3.8858
3.9135
3.9395
3.96379
3.98635
4.00718
4.02627
4.04363
4.05924
4.07312
4.08526
4.09568
4.10437
4.11136
4.11666
4.12029
4.12227
4.12262
4.12141
4.11858
4.11419
4.10828
4.10089
4.09204
4.08178
4.07013
4.05714
4.04284
4.02728
4.01049
3.99253
3.97343
3.95323
3.93197
3.90968
3.88641
3.86216
3.83701
3.81102
3.78425
3.75677
3.72864
3.69991
3.67062
3.64082
3.61054
3.57983
3.54871
3.51723
3.48545
3.45343
3.42123
3.38889
3.35646
3.32401
3.29158
3.25923
3.22703
3.19507
3.16344
3.13222
3.10149
3.07129
3.0409
3.00891
0.0102986
0.0370128
0.0619451
0.0729206
0.0773248
0.0783301
0.0772143
0.0746699
0.0712805
0.0675055
0.0637092
0.0601677
0.0570736
0.0545537
0.0526867
0.0515601
0.0511301
0.0511999
0.0519755
0.0534833
0.055832
0.0591398
0.0635377
0.0691221
0.0759386
0.0839602
0.0930858
0.103115
0.113754
0.124659
0.135485
0.146014
0.156148
0.165988
0.175944
0.186714
0.199093
0.213757
0.231105
0.251184
0.273766
0.298472
0.324891
0.352659
0.381477
0.411122
0.441435
0.472319
0.503741
0.535734
0.568388
0.601837
0.636225
0.671708
0.708436
0.746553
0.786183
0.827432
0.870394
0.915148
0.961757
1.01025
1.06065
1.11294
1.1671
1.22307
1.28079
1.34017
1.4011
1.46348
1.52719
1.59211
1.65811
1.72501
1.79266
1.86089
1.92955
1.9985
2.06762
2.13677
2.20581
2.27464
2.34316
2.41129
2.47895
2.54609
2.61262
2.67849
2.74366
2.8081
2.87177
2.93464
2.99669
3.05786
3.1181
3.17736
3.23561
3.29279
3.34887
3.4038
3.45752
3.50999
3.56115
3.61095
3.65936
3.70633
3.75183
3.79581
3.83822
3.87903
3.91819
3.95567
3.99144
4.02548
4.05776
4.08826
4.11696
4.14384
4.16888
4.19207
4.21341
4.23289
4.25052
4.26629
4.28021
4.29229
4.30253
4.31095
4.31756
4.32237
4.32543
4.32674
4.32638
4.32434
4.32056
4.31515
4.30815
4.29959
4.28951
4.27794
4.26492
4.25049
4.23469
4.21758
4.19918
4.17956
4.15876
4.13681
4.11377
4.08967
4.06453
4.03835
4.01123
3.98325
3.95448
3.92497
3.89479
3.86399
3.83262
3.80071
3.76831
3.73543
3.70212
3.66842
3.63442
3.60018
3.56575
3.53118
3.49653
3.46184
3.42716
3.39255
3.35809
3.32387
3.28998
3.25652
3.22355
3.19116
3.15865
3.12488
0.0109647
0.0437132
0.0701729
0.0812234
0.0853798
0.0860912
0.0845494
0.0815865
0.0779157
0.0740907
0.0705072
0.0674182
0.0649675
0.0632092
0.0623147
0.0620815
0.0625483
0.0637918
0.0658242
0.0686785
0.0723761
0.0769425
0.0823874
0.088682
0.0957684
0.10355
0.111903
0.120684
0.12977
0.139082
0.148596
0.158389
0.168658
0.179736
0.192047
0.206005
0.221911
0.239903
0.25994
0.281839
0.305342
0.330177
0.356104
0.382935
0.410532
0.438808
0.467721
0.497272
0.527507
0.558505
0.590372
0.623234
0.657237
0.692533
0.729275
0.767606
0.807662
0.849562
0.893389
0.93924
0.98719
1.03729
1.08957
1.14403
1.20065
1.25939
1.32019
1.38295
1.44755
1.51383
1.58166
1.65087
1.72128
1.79273
1.86496
1.93776
2.01095
2.08438
2.15795
2.23153
2.30501
2.37825
2.45117
2.52366
2.59565
2.66704
2.73769
2.80757
2.87666
2.94492
3.01233
3.07883
3.1444
3.20898
3.27252
3.33495
3.39624
3.45633
3.51519
3.57277
3.62902
3.68387
3.73728
3.78921
3.8396
3.88842
3.93564
3.9812
4.02508
4.06722
4.10758
4.14614
4.18286
4.21772
4.25071
4.2818
4.31097
4.33821
4.3635
4.38683
4.40819
4.4276
4.44505
4.46055
4.47411
4.48572
4.49541
4.50319
4.50907
4.51308
4.51525
4.51562
4.5143
4.51112
4.50617
4.49954
4.49126
4.48136
4.46988
4.45685
4.44233
4.42636
4.40897
4.39023
4.37016
4.34883
4.32629
4.30258
4.27776
4.25185
4.22489
4.19682
4.1678
4.13791
4.10721
4.07577
4.04364
4.01088
3.97753
3.94363
3.90922
3.87432
3.83893
3.80316
3.76708
3.73076
3.69425
3.65761
3.62088
3.58411
3.54732
3.51058
3.47399
3.43764
3.40163
3.36604
3.33095
3.29646
3.26193
3.22648
0.0112371
0.0504815
0.0781698
0.0894577
0.0935072
0.0940288
0.0920914
0.0886817
0.0847834
0.0811307
0.0781088
0.0758539
0.0744031
0.0737473
0.0736426
0.0743049
0.0757399
0.0779136
0.080807
0.0844077
0.088699
0.0936612
0.0992574
0.105448
0.112189
0.119442
0.127181
0.135405
0.14415
0.15349
0.163555
0.174534
0.186633
0.200068
0.215012
0.231563
0.249728
0.269434
0.29055
0.312917
0.336361
0.360736
0.385933
0.411875
0.438527
0.465888
0.493983
0.522865
0.552611
0.583318
0.615102
0.6481
0.682459
0.718337
0.755894
0.795296
0.836695
0.88014
0.925697
0.973521
1.0237
1.07629
1.13132
1.18881
1.24875
1.31109
1.37575
1.44261
1.51153
1.5823
1.65472
1.72855
1.80359
1.87959
1.95623
2.03329
2.11054
2.18783
2.26514
2.34244
2.41967
2.49669
2.57337
2.64964
2.72535
2.80035
2.87453
2.94785
3.0203
3.0918
3.16232
3.23182
3.30024
3.36755
3.43366
3.49854
3.56212
3.62436
3.68522
3.74467
3.80264
3.85908
3.91394
3.96718
4.01874
4.0686
4.11672
4.16308
4.20762
4.25031
4.2911
4.32996
4.36687
4.40182
4.43478
4.46575
4.4947
4.52162
4.5465
4.56933
4.59012
4.60886
4.62557
4.64025
4.65291
4.66357
4.67223
4.67891
4.68363
4.68644
4.68736
4.68649
4.68379
4.67917
4.67278
4.66467
4.65487
4.64341
4.63034
4.61569
4.59952
4.58186
4.56276
4.54228
4.52046
4.49736
4.47302
4.44751
4.42086
4.39314
4.36437
4.33452
4.30373
4.27206
4.23958
4.20634
4.1724
4.13781
4.10263
4.06691
4.03067
3.99391
3.95664
3.91899
3.88103
3.84284
3.80446
3.76594
3.72733
3.68868
3.64997
3.61129
3.57276
3.53447
3.49652
3.45898
3.42193
3.3855
3.34909
3.31215
0.0112629
0.056946
0.0858607
0.0973771
0.101303
0.101566
0.0991471
0.0954968
0.0918132
0.0887344
0.0864842
0.0851596
0.0846288
0.084601
0.0852676
0.0866523
0.0887202
0.0914341
0.0947642
0.0986889
0.103191
0.108257
0.113882
0.120072
0.126848
0.134249
0.142334
0.151171
0.160865
0.17153
0.183294
0.19627
0.210536
0.226136
0.243072
0.261302
0.280752
0.301335
0.322966
0.345533
0.368937
0.393139
0.418117
0.443878
0.470453
0.497889
0.526249
0.555613
0.586076
0.617744
0.650738
0.685192
0.721249
0.759072
0.798815
0.840626
0.884634
0.930925
0.979621
1.03082
1.08457
1.1409
1.19984
1.26139
1.32552
1.39218
1.46129
1.53272
1.6063
1.68179
1.75888
1.83718
1.91633
1.99611
2.07638
2.15693
2.23747
2.31788
2.39827
2.47857
2.55869
2.63846
2.71783
2.79685
2.87527
2.95292
3.02973
3.10561
3.18045
3.2542
3.3268
3.39822
3.46842
3.53734
3.6049
3.67105
3.73575
3.79896
3.86065
3.92078
3.9793
4.03616
4.09129
4.14467
4.19625
4.246
4.29391
4.33995
4.38408
4.42625
4.46643
4.50457
4.54068
4.57475
4.60676
4.63669
4.66455
4.69032
4.71398
4.73554
4.755
4.77236
4.78765
4.80088
4.81205
4.82118