/*--------------------------------*- C++ -*----------------------------------*\
  =========                 |
  \\      /  F ield         | OpenFOAM: The Open Source CFD Toolbox
   \\    /   O peration     | Website:  https://openfoam.org
    \\  /    A nd           | Version:  8
     \\/     M anipulation  |
\*---------------------------------------------------------------------------*/
FoamFile
{
    version     2.0;
    format      ascii;
    class       surfaceScalarField;
    location    "400";
    object      phi;
}
// * * * * * * * * * * * * * * * * * * * * * * * * * * * * * * * * * * * * * //

dimensions      [0 3 -1 0 0 0 0];

internalField   nonuniform List<scalar> 
24170
(
2.99455e-06
1.39365e-07
2.85056e-06
1.44044e-07
2.72172e-06
1.28849e-07
2.60653e-06
1.1519e-07
2.50586e-06
1.00736e-07
2.42145e-06
8.459e-08
2.35183e-06
6.98318e-08
2.29306e-06
5.87701e-08
2.24285e-06
5.02257e-08
2.20087e-06
4.2002e-08
2.1671e-06
3.37568e-08
2.14024e-06
2.68417e-08
2.11811e-06
2.20958e-08
2.0989e-06
1.91827e-08
2.08299e-06
1.58948e-08
2.07155e-06
1.14295e-08
2.06469e-06
6.87503e-09
-3.65306e-10
2.06508e-06
3.52044e-06
7.53481e-08
3.55025e-06
1.14121e-07
3.56295e-06
1.16109e-07
3.56135e-06
1.16794e-07
3.54827e-06
1.13899e-07
3.52723e-06
1.05735e-07
3.49952e-06
9.74916e-08
3.46588e-06
9.21514e-08
3.43028e-06
8.55332e-08
3.39553e-06
7.65124e-08
3.36336e-06
6.5744e-08
3.33441e-06
5.57076e-08
3.30776e-06
4.86956e-08
3.28203e-06
4.48776e-08
3.25769e-06
4.02194e-08
3.23506e-06
3.40649e-08
3.21294e-06
2.9011e-08
2.31342e-08
3.18946e-06
3.83309e-06
5.44596e-08
3.85094e-06
9.62851e-08
3.86606e-06
1.01021e-07
3.87906e-06
1.03813e-07
3.88939e-06
1.03618e-07
3.89647e-06
9.87647e-08
3.90068e-06
9.33473e-08
3.90325e-06
8.95726e-08
3.90413e-06
8.46661e-08
3.90301e-06
7.76527e-08
3.89972e-06
6.90531e-08
3.89453e-06
6.09019e-08
3.88834e-06
5.48824e-08
3.88242e-06
5.07993e-08
3.87641e-06
4.62161e-08
3.86956e-06
4.09168e-08
3.86249e-06
3.60783e-08
3.04277e-08
3.85519e-06
4.21679e-06
4.22186e-08
4.22945e-06
8.36063e-08
4.23963e-06
9.08613e-08
4.24881e-06
9.4669e-08
4.257e-06
9.54802e-08
4.2637e-06
9.20947e-08
4.26936e-06
8.76069e-08
4.275e-06
8.37512e-08
4.28038e-06
7.90868e-08
4.28494e-06
7.29181e-08
4.28822e-06
6.56648e-08
4.29026e-06
5.87859e-08
4.29174e-06
5.33637e-08
4.29344e-06
4.90695e-08
4.29499e-06
4.46588e-08
4.2959e-06
4.00019e-08
4.29656e-06
3.54199e-08
3.04721e-08
4.29653e-06
4.64602e-06
3.35084e-08
4.65745e-06
7.21885e-08
4.66631e-06
8.20226e-08
4.67434e-06
8.66598e-08
4.68167e-06
8.81898e-08
4.68783e-06
8.59475e-08
4.6932e-06
8.22404e-08
4.69849e-06
7.84569e-08
4.70365e-06
7.39483e-08
4.70827e-06
6.8339e-08
4.71197e-06
6.19885e-08
4.71483e-06
5.59353e-08
4.71736e-06
5.08365e-08
4.71998e-06
4.64451e-08
4.7225e-06
4.21347e-08
4.7247e-06
3.7805e-08
4.72665e-06
3.34787e-08
2.90449e-08
4.72802e-06
5.12124e-06
2.68714e-08
5.13172e-06
6.17694e-08
5.1402e-06
7.35975e-08
5.14803e-06
7.88712e-08
5.1553e-06
8.09507e-08
5.16157e-06
7.96537e-08
5.1671e-06
7.66299e-08
5.17239e-06
7.30486e-08
5.17745e-06
6.87736e-08
5.18201e-06
6.36812e-08
5.18583e-06
5.80917e-08
5.18899e-06
5.27159e-08
5.19185e-06
4.79404e-08
5.19464e-06
4.36256e-08
5.1973e-06
3.94657e-08
5.19973e-06
3.5381e-08
5.20186e-06
3.13269e-08
2.73605e-08
5.20357e-06
5.64624e-06
2.16443e-08
5.65567e-06
5.23473e-08
5.66394e-06
6.53557e-08
5.67174e-06
7.11008e-08
5.67912e-06
7.35771e-08
5.68569e-06
7.30693e-08
5.69158e-06
7.07223e-08
5.69712e-06
6.75066e-08
5.70233e-06
6.35908e-08
5.70704e-06
5.90094e-08
5.71109e-06
5.40649e-08
5.71457e-06
4.92328e-08
5.71774e-06
4.47768e-08
5.72073e-06
4.06317e-08
5.72353e-06
3.66661e-08
5.7261e-06
3.28168e-08
5.72837e-06
2.90659e-08
2.5451e-08
5.73024e-06
4.40923e-06
1.8529e-08
4.41532e-06
4.63358e-08
4.42121e-06
5.95173e-08
4.42683e-06
6.55189e-08
4.43219e-06
6.82236e-08
4.43709e-06
6.81335e-08
4.44155e-06
6.62046e-08
4.44571e-06
6.33015e-08
4.44957e-06
5.9691e-08
4.45308e-06
5.54753e-08
4.45617e-06
5.0944e-08
4.45891e-06
4.64702e-08
4.46141e-06
4.22628e-08
4.46372e-06
3.8299e-08
4.46587e-06
3.45138e-08
4.46784e-06
3.08569e-08
4.46957e-06
2.73242e-08
2.39654e-08
4.47105e-06
5.14275e-06
1.56467e-08
5.14876e-06
4.03265e-08
5.15494e-06
5.33569e-08
5.16097e-06
5.95055e-08
5.1668e-06
6.23786e-08
5.17225e-06
6.26595e-08
5.17727e-06
6.11448e-08
5.18198e-06
5.85956e-08
5.18636e-06
5.53248e-08
5.19035e-06
5.15e-08
5.19392e-06
4.73823e-08
5.19711e-06
4.32774e-08
5.20002e-06
3.93492e-08
5.20271e-06
3.56165e-08
5.20518e-06
3.20399e-08
5.20743e-06
2.86152e-08
5.20943e-06
2.53269e-08
2.22223e-08
5.21115e-06
5.99843e-06
1.30095e-08
6.00427e-06
3.45153e-08
6.01067e-06
4.69903e-08
6.01706e-06
5.31239e-08
6.02335e-06
5.60741e-08
6.02933e-06
5.66512e-08
6.03493e-06
5.55187e-08
6.04021e-06
5.33189e-08
6.04514e-06
5.04022e-08
6.04966e-06
4.69821e-08
6.05375e-06
4.32946e-08
6.05745e-06
3.95811e-08
6.06082e-06
3.59782e-08
6.06391e-06
3.25109e-08
6.06676e-06
2.92084e-08
6.06934e-06
2.60313e-08
6.07165e-06
2.30164e-08
2.01814e-08
6.07367e-06
6.99664e-06
1.06397e-08
7.00223e-06
2.89272e-08
7.00877e-06
4.04531e-08
7.01549e-06
4.63977e-08
7.0222e-06
4.93384e-08
7.0287e-06
5.01243e-08
7.03487e-06
4.93254e-08
7.04071e-06
4.74727e-08
7.04619e-06
4.49247e-08
7.05126e-06
4.19149e-08
7.0559e-06
3.86645e-08
7.06012e-06
3.53554e-08
7.06398e-06
3.2104e-08
7.06753e-06
2.8968e-08
7.07078e-06
2.59487e-08
7.07374e-06
2.30812e-08
7.07639e-06
2.03477e-08
1.78165e-08
7.07875e-06
8.16114e-06
8.51235e-09
8.16642e-06
2.36475e-08
8.17301e-06
3.38543e-08
8.18001e-06
3.93921e-08
8.18712e-06
4.22114e-08
8.19411e-06
4.31083e-08
8.20084e-06
4.25918e-08
8.20725e-06
4.10757e-08
8.21329e-06
3.88978e-08
8.21891e-06
3.6309e-08
8.2241e-06
3.34849e-08
8.22885e-06
3.05988e-08
8.23322e-06
2.77218e-08
8.23723e-06
2.49418e-08
8.24093e-06
2.22615e-08
8.24428e-06
1.97166e-08
8.24733e-06
1.73088e-08
1.50755e-08
8.25004e-06
9.51963e-06
6.6068e-09
9.52458e-06
1.86908e-08
9.53115e-06
2.72734e-08
9.53837e-06
3.2162e-08
9.54583e-06
3.47239e-08
9.5533e-06
3.56409e-08
9.56058e-06
3.53191e-08
9.56756e-06
3.41138e-08
9.57417e-06
3.23143e-08
9.58036e-06
3.01304e-08
9.58613e-06
2.77551e-08
9.59142e-06
2.52731e-08
9.59633e-06
2.28255e-08
9.60083e-06
2.04108e-08
9.60499e-06
1.81191e-08
9.60877e-06
1.59171e-08
9.61223e-06
1.38671e-08
1.19551e-08
9.61535e-06
1.11044e-05
4.87528e-09
1.11091e-05
1.40215e-08
1.11156e-05
2.07708e-08
1.1123e-05
2.47633e-08
1.11308e-05
2.69253e-08
1.11387e-05
2.7721e-08
1.11465e-05
2.75191e-08
1.11541e-05
2.65772e-08
1.11613e-05
2.51245e-08
1.11681e-05
2.33579e-08
1.11744e-05
2.14003e-08
1.11803e-05
1.93785e-08
1.11858e-05
1.73376e-08
1.11908e-05
1.53633e-08
1.11955e-05
1.34525e-08
1.11998e-05
1.16567e-08
1.12037e-05
9.95771e-09
8.40921e-09
1.12072e-05
1.29532e-05
3.27031e-09
1.29577e-05
9.57818e-09
1.29641e-05
1.43425e-08
1.29716e-05
1.72247e-08
1.29797e-05
1.87916e-08
1.29881e-05
1.93566e-08
1.29965e-05
1.91637e-08
1.30046e-05
1.84182e-08
1.30125e-05
1.72854e-08
1.30199e-05
1.59076e-08
1.3027e-05
1.43894e-08
1.30335e-05
1.28122e-08
1.30396e-05
1.12334e-08
1.30453e-05
9.69563e-09
1.30505e-05
8.22224e-09
1.30553e-05
6.833e-09
1.30598e-05
5.53409e-09
4.34795e-09
1.30638e-05
1.511e-05
1.73263e-09
1.51143e-05
5.22447e-09
1.51208e-05
7.89429e-09
1.51285e-05
9.45451e-09
1.51371e-05
1.0266e-08
1.5146e-05
1.04538e-08
1.51549e-05
1.01788e-08
1.51638e-05
9.56113e-09
1.51724e-05
8.70916e-09
1.51805e-05
7.70552e-09
1.51883e-05
6.6225e-09
1.51956e-05
5.50823e-09
1.52024e-05
4.40401e-09
1.52088e-05
3.33448e-09
1.52147e-05
2.31928e-09
1.52201e-05
1.36948e-09
1.52252e-05
4.91865e-10
-3.00109e-10
1.52298e-05
1.7626e-05
1.81291e-10
1.76305e-05
7.56526e-10
1.76372e-05
1.16546e-09
1.76454e-05
1.23492e-09
1.76546e-05
1.11099e-09
1.76642e-05
8.22055e-10
1.7674e-05
3.75078e-10
1.76837e-05
-1.54039e-10
1.76931e-05
-7.63507e-10
1.77022e-05
-1.39163e-09
1.77109e-05
-2.04222e-09
1.7719e-05
-2.66975e-09
1.77267e-05
-3.28202e-09
1.77339e-05
-3.84849e-09
1.77406e-05
-4.37836e-09
1.77468e-05
-4.85254e-09
1.77526e-05
-5.28101e-09
-5.64484e-09
1.77579e-05
1.78277e-05
-1.30834e-09
1.7832e-05
-3.58959e-09
1.78386e-05
-5.36294e-09
1.78466e-05
-6.7829e-09
1.78555e-05
-7.80349e-09
1.78649e-05
-8.60327e-09
1.78745e-05
-9.20153e-09
1.7884e-05
-9.69258e-09
1.78933e-05
-1.00483e-08
1.79022e-05
-1.03535e-08
1.79108e-05
-1.05687e-08
1.79188e-05
-1.07583e-08
1.79264e-05
-1.08803e-08
1.79335e-05
-1.09843e-08
1.79402e-05
-1.10341e-08
1.79464e-05
-1.10673e-08
1.79522e-05
-1.10548e-08
-1.1019e-08
1.79575e-05
1.58828e-05
-2.72741e-09
1.58869e-05
-7.6733e-09
1.58929e-05
-1.14412e-08
1.59003e-05
-1.41242e-08
1.59084e-05
-1.59316e-08
1.59169e-05
-1.71002e-08
1.59255e-05
-1.78408e-08
1.5934e-05
-1.82137e-08
1.59423e-05
-1.83647e-08
1.59503e-05
-1.83165e-08
1.59578e-05
-1.81725e-08
1.5965e-05
-1.7926e-08
1.59718e-05
-1.7643e-08
1.59781e-05
-1.73055e-08
1.5984e-05
-1.6958e-08
1.59896e-05
-1.65797e-08
1.59947e-05
-1.62028e-08
-1.57999e-08
1.59995e-05
1.41501e-05
-4.18401e-09
1.41543e-05
-1.1835e-08
1.41603e-05
-1.74461e-08
1.41674e-05
-2.12268e-08
1.41751e-05
-2.36191e-08
1.4183e-05
-2.50806e-08
1.4191e-05
-2.58422e-08
1.41989e-05
-2.60888e-08
1.42065e-05
-2.59508e-08
1.42137e-05
-2.55796e-08
1.42206e-05
-2.50417e-08
1.4227e-05
-2.44103e-08
1.42331e-05
-2.3715e-08
1.42388e-05
-2.29947e-08
1.42441e-05
-2.22597e-08
1.4249e-05
-2.1531e-08
1.42537e-05
-2.08075e-08
-2.00967e-08
1.42579e-05
1.26066e-05
-5.79714e-09
1.26111e-05
-1.62883e-08
1.26173e-05
-2.36303e-08
1.26244e-05
-2.82728e-08
1.26318e-05
-3.10972e-08
1.26394e-05
-3.27199e-08
1.2647e-05
-3.34265e-08
1.26544e-05
-3.34517e-08
1.26614e-05
-3.30117e-08
1.2668e-05
-3.22729e-08
1.26743e-05
-3.13463e-08
1.26802e-05
-3.0319e-08
1.26857e-05
-2.92327e-08
1.26909e-05
-2.81403e-08
1.26957e-05
-2.70489e-08
1.27001e-05
-2.59892e-08
1.27043e-05
-2.49552e-08
-2.39578e-08
1.27081e-05
1.12317e-05
-7.65769e-09
1.12367e-05
-2.12868e-08
1.12432e-05
-3.01557e-08
1.12503e-05
-3.53796e-08
1.12577e-05
-3.84567e-08
1.1265e-05
-4.01259e-08
1.12723e-05
-4.06902e-08
1.12792e-05
-4.04202e-08
1.12858e-05
-3.9616e-08
1.1292e-05
-3.84939e-08
1.12978e-05
-3.71745e-08
1.13032e-05
-3.57485e-08
1.13082e-05
-3.42861e-08
1.13129e-05
-3.2823e-08
1.13172e-05
-3.14019e-08
1.13213e-05
-3.00225e-08
1.1325e-05
-2.87114e-08
-2.74437e-08
1.13285e-05
1.00069e-05
-9.95833e-09
1.00126e-05
-2.69509e-08
1.00195e-05
-3.70632e-08
1.00267e-05
-4.25711e-08
1.0034e-05
-4.57472e-08
1.00412e-05
-4.73582e-08
1.00482e-05
-4.76507e-08
1.00548e-05
-4.70332e-08
1.0061e-05
-4.58514e-08
1.00668e-05
-4.43125e-08
1.00722e-05
-4.25872e-08
1.00772e-05
-4.07619e-08
1.00818e-05
-3.89264e-08
1.00861e-05
-3.71183e-08
1.009e-05
-3.53722e-08
1.00937e-05
-3.37039e-08
1.00971e-05
-3.21173e-08
-3.06139e-08
1.01002e-05
8.91605e-06
-1.28849e-08
8.92264e-06
-3.35561e-08
8.92994e-06
-4.43785e-08
8.93721e-06
-4.98369e-08
8.94445e-06
-5.3013e-08
8.95154e-06
-5.44509e-08
8.95827e-06
-5.44121e-08
8.96459e-06
-5.33609e-08
8.97049e-06
-5.17365e-08
8.97594e-06
-4.97902e-08
8.98099e-06
-4.76439e-08
8.98563e-06
-4.54347e-08
8.98991e-06
-4.32189e-08
8.99384e-06
-4.1073e-08
8.99747e-06
-3.90135e-08
9.00082e-06
-3.70679e-08
9.00393e-06
-3.5234e-08
-3.35016e-08
9.00681e-06
7.94458e-06
-1.68065e-08
7.95222e-06
-4.1176e-08
7.95988e-06
-5.20115e-08
7.96725e-06
-5.72322e-08
7.97456e-06
-6.03235e-08
7.98158e-06
-6.14899e-08
7.98819e-06
-6.09857e-08
7.99431e-06
-5.94848e-08
7.99997e-06
-5.742e-08
8.00519e-06
-5.50118e-08
8.00998e-06
-5.2442e-08
8.01437e-06
-4.98162e-08
8.01837e-06
-4.72397e-08
8.02205e-06
-4.4751e-08
8.02542e-06
-4.23951e-08
8.02852e-06
-4.01762e-08
8.03138e-06
-3.81067e-08
-3.61526e-08
8.03402e-06
7.07961e-06
-2.2079e-08
7.08857e-06
-5.01128e-08
7.09675e-06
-6.02297e-08
7.10448e-06
-6.49702e-08
7.11204e-06
-6.78909e-08
7.11921e-06
-6.86461e-08
7.12585e-06
-6.76369e-08
7.13197e-06
-6.55965e-08
7.13762e-06
-6.30473e-08
7.14278e-06
-6.01745e-08
7.14749e-06
-5.71477e-08
7.15177e-06
-5.41074e-08
7.15567e-06
-5.11262e-08
7.1592e-06
-4.82836e-08
7.16241e-06
-4.56004e-08
7.16534e-06
-4.31071e-08
7.16803e-06
-4.08004e-08
-3.86474e-08
7.17052e-06
6.31021e-06
-2.97674e-08
6.32109e-06
-6.11461e-08
6.33063e-06
-6.96475e-08
6.33958e-06
-7.39307e-08
6.34814e-06
-7.64546e-08
6.35609e-06
-7.65925e-08
6.36339e-06
-7.49088e-08
6.37007e-06
-7.22833e-08
6.37617e-06
-6.91209e-08
6.38168e-06
-6.56695e-08
6.38661e-06
-6.20821e-08
6.39102e-06
-5.84973e-08
6.39492e-06
-5.50256e-08
6.39836e-06
-5.17144e-08
6.40139e-06
-4.86266e-08
6.40407e-06
-4.57818e-08
6.40644e-06
-4.31704e-08
-4.07537e-08
6.40855e-06
5.62972e-06
-4.46117e-08
5.64561e-06
-7.71377e-08
5.65969e-06
-8.36628e-08
5.67293e-06
-8.71506e-08
5.68514e-06
-8.86631e-08
5.69605e-06
-8.74893e-08
5.7056e-06
-8.44558e-08
5.71379e-06
-8.04473e-08
5.72063e-06
-7.59257e-08
5.72616e-06
-7.11733e-08
5.73048e-06
-6.63789e-08
5.73368e-06
-6.17006e-08
5.7359e-06
-5.72295e-08
5.73724e-06
-5.30384e-08
5.73781e-06
-4.91861e-08
5.73776e-06
-4.5717e-08
5.7372e-06
-4.26047e-08
-4.0031e-08
5.73647e-06
5.05131e-06
-9.36415e-08
5.08679e-06
-1.12741e-07
5.11218e-06
-1.08992e-07
5.13019e-06
-1.05129e-07
5.14098e-06
-9.94568e-08
5.14519e-06
-9.16879e-08
5.14385e-06
-8.31037e-08
5.13804e-06
-7.46042e-08
5.12874e-06
-6.65768e-08
5.1168e-06
-5.92005e-08
5.10294e-06
-5.2504e-08
5.08771e-06
-4.64581e-08
5.07154e-06
-4.10434e-08
5.05477e-06
-3.62457e-08
5.03766e-06
-3.2056e-08
5.02049e-06
-2.85337e-08
5.0036e-06
-2.57076e-08
-2.39121e-08
4.98748e-06
4.3629e-06
4.25017e-06
4.14118e-06
4.03605e-06
3.93659e-06
3.84491e-06
3.76181e-06
3.68721e-06
3.62064e-06
3.56144e-06
3.50894e-06
3.46248e-06
3.42145e-06
3.3852e-06
3.35315e-06
3.32462e-06
3.29891e-06
3.275e-06
-8.22709e-09
8.21954e-09
-2.23018e-08
1.40687e-08
-3.75605e-08
1.52492e-08
-5.05185e-08
1.29557e-08
-5.59539e-08
5.43128e-09
-4.78839e-08
-8.07582e-09
-2.44073e-08
-2.34722e-08
1.1975e-08
-3.6395e-08
5.71082e-08
-4.5123e-08
1.06114e-07
-4.90198e-08
1.54638e-07
-4.85169e-08
1.99599e-07
-4.49746e-08
2.39055e-07
-3.94532e-08
2.71775e-07
-3.27293e-08
2.97085e-07
-2.53154e-08
3.14586e-07
-1.7505e-08
3.24003e-07
-9.42776e-09
3.25038e-07
-1.03054e-09
3.17473e-07
7.55089e-09
3.01562e-07
1.59227e-08
2.77881e-07
2.36631e-08
2.475e-07
3.03937e-08
2.11782e-07
3.57027e-08
1.72653e-07
3.9135e-08
1.32387e-07
4.02466e-08
9.36476e-08
3.8734e-08
5.90337e-08
3.45928e-08
3.06974e-08
2.83209e-08
9.69745e-09
2.09728e-08
-4.08588e-09
1.37701e-08
-1.1457e-08
7.34524e-09
-1.26898e-08
1.23687e-09
-7.49238e-09
-5.21343e-09
5.28314e-09
-1.27669e-08
2.68538e-08
-2.15717e-08
5.66354e-08
-2.98032e-08
9.03878e-08
-3.37469e-08
1.21957e-07
-3.16199e-08
1.46309e-07
-2.43478e-08
1.60581e-07
-1.43295e-08
1.65776e-07
-5.19201e-09
1.6488e-07
8.39635e-10
1.61417e-07
3.45248e-09
1.58743e-07
2.61273e-09
1.57452e-07
1.27862e-09
1.49533e-07
7.91071e-09
1.26076e-07
2.34304e-08
7.95796e-08
4.66419e-08
6.67816e-09
7.28757e-08
-8.83333e-08
9.51581e-08
-2.02027e-07
1.13678e-07
-3.30884e-07
1.28872e-07
-4.70348e-07
1.39443e-07
-6.15427e-07
1.45053e-07
-7.62583e-07
1.47136e-07
-9.08326e-07
1.45729e-07
-1.04927e-06
1.40938e-07
-1.18322e-06
1.33934e-07
-1.30895e-06
1.25742e-07
-1.42543e-06
1.16466e-07
-1.53286e-06
1.07436e-07
-1.63101e-06
9.81318e-08
-1.72077e-06
8.97712e-08
-1.80358e-06
8.2793e-08
-1.87954e-06
7.59716e-08
-1.94963e-06
7.00724e-08
-2.01446e-06
6.48412e-08
-2.07471e-06
6.02296e-08
-2.13087e-06
5.6185e-08
-2.18349e-06
5.26013e-08
-2.2329e-06
4.94262e-08
-2.27949e-06
4.65717e-08
-2.32347e-06
4.39963e-08
-2.36512e-06
4.16337e-08
-2.40455e-06
3.94577e-08
-2.44199e-06
3.74201e-08
-2.47747e-06
3.55064e-08
-2.51116e-06
3.36826e-08
-2.54308e-06
3.1942e-08
-2.57334e-06
3.02608e-08
-2.60196e-06
2.86365e-08
-2.629e-06
2.70528e-08
-2.65449e-06
2.55084e-08
-2.67848e-06
2.39923e-08
-2.70096e-06
2.25027e-08
-2.72198e-06
2.10327e-08
-2.74155e-06
1.95785e-08
-2.75967e-06
1.81364e-08
-2.77637e-06
1.67034e-08
-2.79164e-06
1.52677e-08
-2.80548e-06
1.38335e-08
-2.81788e-06
1.239e-08
-2.82881e-06
1.09307e-08
-2.83826e-06
9.44616e-09
-2.84618e-06
7.92387e-09
-2.85252e-06
6.35646e-09
-2.85724e-06
4.72714e-09
-2.86025e-06
3.02942e-09
-2.86152e-06
1.27772e-09
-2.8611e-06
-4.0766e-10
-2.85922e-06
-1.87855e-09
-2.85603e-06
-3.18815e-09
-2.85157e-06
-4.46726e-09
-2.84584e-06
-5.73309e-09
-2.83885e-06
-7.00007e-09
-2.8306e-06
-8.26792e-09
-2.82108e-06
-9.53776e-09
-2.81028e-06
-1.0809e-08
-2.79822e-06
-1.20798e-08
-2.78489e-06
-1.33508e-08
-2.77029e-06
-1.46184e-08
-2.75443e-06
-1.58844e-08
-2.7373e-06
-1.7144e-08
-2.71892e-06
-1.84e-08
-2.69929e-06
-1.96464e-08
-2.67843e-06
-2.08871e-08
-2.65633e-06
-2.2115e-08
-2.63301e-06
-2.33348e-08
-2.60849e-06
-2.45389e-08
-2.58277e-06
-2.57324e-08
-2.55588e-06
-2.69072e-08
-2.52783e-06
-2.80689e-08
-2.49863e-06
-2.92088e-08
-2.46832e-06
-3.03329e-08
-2.4369e-06
-3.14328e-08
-2.4044e-06
-3.25147e-08
-2.37084e-06
-3.35708e-08
-2.33625e-06
-3.46064e-08
-2.30065e-06
-3.56099e-08
-2.26407e-06
-3.65925e-08
-2.22653e-06
-3.75415e-08
-2.18807e-06
-3.84589e-08
-2.14874e-06
-3.93357e-08
-2.1086e-06
-4.01638e-08
-2.0677e-06
-4.09313e-08
-2.02611e-06
-4.16311e-08
-1.98384e-06
-4.2282e-08
-1.94082e-06
-4.30315e-08
-1.89705e-06
-4.3796e-08
-1.85264e-06
-4.44671e-08
-1.80761e-06
-4.50949e-08
-1.762e-06
-4.56891e-08
-1.71583e-06
-4.62358e-08
-1.66914e-06
-4.67534e-08
-1.62195e-06
-4.72256e-08
-1.5743e-06
-4.76716e-08
-1.52618e-06
-4.80699e-08
-1.47765e-06
-4.84449e-08
-1.42874e-06
-4.87873e-08
-1.37949e-06
-4.91174e-08
-1.32993e-06
-4.94238e-08
-1.28009e-06
-4.97192e-08
-1.22997e-06
-4.99803e-08
-1.17961e-06
-5.02271e-08
-1.12902e-06
-5.04423e-08
-1.07824e-06
-5.06481e-08
-1.02726e-06
-5.08356e-08
-9.76111e-07
-5.102e-08
-9.2477e-07
-5.12015e-08
-8.73255e-07
-5.13861e-08
-8.21547e-07
-5.15715e-08
-7.69657e-07
-5.17653e-08
-7.17568e-07
-5.19576e-08
-6.65296e-07
-5.21544e-08
-6.12826e-07
-5.2348e-08
-5.60173e-07
-5.25463e-08
-5.07317e-07
-5.27465e-08
-4.54264e-07
-5.29562e-08
-4.00994e-07
-5.31733e-08
-3.4751e-07
-5.33971e-08
-2.93807e-07
-5.36159e-08
-2.39914e-07
-5.38125e-08
-1.85882e-07
-5.39546e-08
-1.3183e-07
-5.39779e-08
-7.79584e-08
-5.38048e-08
-2.47206e-08
-5.31711e-08
2.72262e-08
-5.18954e-08
7.6212e-08
-4.8939e-08
1.21473e-07
-4.52394e-08
-2.0162e-08
1.41682e-07
-3.48328e-09
1.16896e-08
-9.63267e-09
2.02104e-08
-1.23652e-08
1.79624e-08
-4.41842e-09
5.00206e-09
1.90714e-08
-1.80687e-08
5.71099e-08
-4.6121e-08
1.05082e-07
-7.1444e-08
1.57344e-07
-8.86641e-08
2.08827e-07
-9.66035e-08
2.56349e-07
-9.65492e-08
2.98493e-07
-9.06584e-08
3.3459e-07
-8.10778e-08
3.64574e-07
-6.94374e-08
3.88647e-07
-5.68058e-08
4.07151e-07
-4.38219e-08
4.20476e-07
-3.08323e-08
4.29044e-07
-1.80004e-08
4.33428e-07
-5.41127e-09
4.34001e-07
6.97113e-09
4.30668e-07
1.92615e-08
4.22922e-07
3.14013e-08
4.10194e-07
4.31283e-08
3.91906e-07
5.39836e-08
3.67748e-07
6.32951e-08
3.37766e-07
7.02214e-08
3.02633e-07
7.38639e-08
2.63735e-07
7.34819e-08
2.23297e-07
6.87535e-08
1.84321e-07
5.99358e-08
1.50346e-07
4.77422e-08
1.24719e-07
3.29578e-08
1.09841e-07
1.61239e-08
1.0691e-07
-2.28943e-09
1.15583e-07
-2.14322e-08
1.33526e-07
-3.95128e-08
1.5517e-07
-5.14614e-08
1.7342e-07
-5.19932e-08
1.83739e-07
-4.19773e-08
1.84743e-07
-2.53514e-08
1.76362e-07
-5.99738e-09
1.60478e-07
1.06959e-08
1.37402e-07
2.38569e-08
1.00239e-07
4.06395e-08
3.86525e-08
6.41547e-08
-5.49044e-08
9.48533e-08
-1.77917e-07
1.30946e-07
-3.21127e-07
1.6666e-07
-4.74472e-07
2.00028e-07
-6.31675e-07
2.30094e-07
-7.90557e-07
2.54063e-07
-9.4789e-07
2.71012e-07
-1.10001e-06
2.80986e-07
-1.24403e-06
2.83456e-07
-1.37754e-06
2.7855e-07
-1.49837e-06
2.67968e-07
-1.60618e-06
2.53533e-07
-1.70188e-06
2.36635e-07
-1.78663e-06
2.18684e-07
-1.86156e-06
2.00674e-07
-1.92835e-06
1.83248e-07
-1.98798e-06
1.67073e-07
-2.0422e-06
1.5234e-07
-2.09167e-06
1.39246e-07
-2.13685e-06
1.27969e-07
-2.17889e-06
1.18014e-07
-2.21819e-06
1.09359e-07
-2.25514e-06
1.01798e-07
-2.29008e-06
9.51597e-08
-2.32318e-06
8.9296e-08
-2.35465e-06
8.40661e-08
-2.38458e-06
7.93591e-08
-2.41309e-06
7.50714e-08
-2.44021e-06
7.1127e-08
-2.46604e-06
6.74543e-08
-2.49058e-06
6.4004e-08
-2.51388e-06
6.07286e-08
-2.53597e-06
5.7598e-08
-2.55686e-06
5.4581e-08
-2.57657e-06
5.166e-08
-2.59512e-06
4.88142e-08
-2.61251e-06
4.60334e-08
-2.62875e-06
4.33037e-08
-2.64385e-06
4.06184e-08
-2.65781e-06
3.7968e-08
-2.67065e-06
3.53473e-08
-2.68235e-06
3.27494e-08
-2.69294e-06
3.01696e-08
-2.70239e-06
2.76037e-08
-2.71073e-06
2.5043e-08
-2.71795e-06
2.24885e-08
-2.72405e-06
1.99312e-08
-2.72904e-06
1.73712e-08
-2.73291e-06
1.4805e-08
-2.73569e-06
1.22274e-08
-2.7374e-06
9.63728e-09
-2.73806e-06
7.03597e-09
-2.73775e-06
4.42905e-09
-2.73654e-06
1.83436e-09
-2.73454e-06
-7.15977e-10
-2.73174e-06
-3.20181e-09
-2.72795e-06
-5.6674e-09
-2.72299e-06
-8.14907e-09
-2.71682e-06
-1.06386e-08
-2.70943e-06
-1.31323e-08
-2.7008e-06
-1.56332e-08
-2.69094e-06
-1.81396e-08
-2.67984e-06
-2.06513e-08
-2.66749e-06
-2.31657e-08
-2.65391e-06
-2.56813e-08
-2.63907e-06
-2.81956e-08
-2.623e-06
-3.07064e-08
-2.60569e-06
-3.32112e-08
-2.58714e-06
-3.57072e-08
-2.56736e-06
-3.81924e-08
-2.54636e-06
-4.06632e-08
-2.52414e-06
-4.3118e-08
-2.50072e-06
-4.55528e-08
-2.4761e-06
-4.79664e-08
-2.45029e-06
-5.03544e-08
-2.42332e-06
-5.27158e-08
-2.39519e-06
-5.50459e-08
-2.36593e-06
-5.73438e-08
-2.33554e-06
-5.96046e-08
-2.30406e-06
-6.18274e-08
-2.27149e-06
-6.40073e-08
-2.23787e-06
-6.61443e-08
-2.20322e-06
-6.82341e-08
-2.16756e-06
-7.02764e-08
-2.13091e-06
-7.22653e-08
-2.0933e-06
-7.41996e-08
-2.05477e-06
-7.60737e-08
-2.01535e-06
-7.78842e-08
-1.97506e-06
-7.96258e-08
-1.93395e-06
-8.12953e-08
-1.89201e-06
-8.28911e-08
-1.84925e-06
-8.44098e-08
-1.80567e-06
-8.58716e-08
-1.76138e-06
-8.73318e-08
-1.71644e-06
-8.8749e-08
-1.67087e-06
-9.00735e-08
-1.62469e-06
-9.13208e-08
-1.57794e-06
-9.24936e-08
-1.53063e-06
-9.35894e-08
-1.4828e-06
-9.46153e-08
-1.43448e-06
-9.55696e-08
-1.38569e-06
-9.64549e-08
-1.33645e-06
-9.72717e-08
-1.2868e-06
-9.80286e-08
-1.23676e-06
-9.87373e-08
-1.18639e-06
-9.94064e-08
-1.13569e-06
-1.00039e-07
-1.08469e-06
-1.0063e-07
-1.03342e-06
-1.01173e-07
-9.81891e-07
-1.01669e-07
-9.30127e-07
-1.02122e-07
-8.78151e-07
-1.02538e-07
-8.2597e-07
-1.02933e-07
-7.73597e-07
-1.03309e-07
-7.2103e-07
-1.03685e-07
-6.68273e-07
-1.0406e-07
-6.15317e-07
-1.04446e-07
-5.62163e-07
-1.0484e-07
-5.08802e-07
-1.05241e-07
-4.55239e-07
-1.05644e-07
-4.01466e-07
-1.06049e-07
-3.47489e-07
-1.06457e-07
-2.93295e-07
-1.06875e-07
-2.38885e-07
-1.07308e-07
-1.84243e-07
-1.07758e-07
-1.29368e-07
-1.08221e-07
-7.42559e-08
-1.08677e-07
-1.89377e-08
-1.09085e-07
3.65425e-08
-1.0939e-07
9.20959e-08
-1.09493e-07
1.47542e-07
-1.09215e-07
2.02623e-07
-1.08222e-07
2.56712e-07
-1.05958e-07
3.09201e-07
-1.01409e-07
3.56673e-07
-9.27009e-08
-6.55209e-08
4.02057e-07
3.87649e-10
1.1294e-08
4.20165e-09
1.63867e-08
1.95709e-08
2.58084e-09
5.41076e-08
-2.95418e-08
1.05842e-07
-6.98052e-08
1.64764e-07
-1.05048e-07
2.21107e-07
-1.27786e-07
2.6951e-07
-1.37072e-07
3.08507e-07
-1.35598e-07
3.38877e-07
-1.26922e-07
3.62247e-07
-1.14026e-07
3.80134e-07
-9.89688e-08
3.93716e-07
-8.30168e-08
4.03783e-07
-6.68737e-08
4.10867e-07
-5.09064e-08
4.1533e-07
-3.52937e-08
4.17448e-07
-2.01185e-08
4.17467e-07
-5.42636e-09
4.15675e-07
8.76222e-09
4.12449e-07
2.24925e-08
4.08036e-07
3.58105e-08
4.0248e-07
4.86902e-08
3.9548e-07
6.09802e-08
3.86452e-07
7.23279e-08
3.74542e-07
8.21275e-08
3.589e-07
8.95096e-08
3.3897e-07
9.34082e-08
3.14985e-07
9.27396e-08
2.88214e-07
8.67055e-08
2.61017e-07
7.49439e-08
2.36294e-07
5.76821e-08
2.16671e-07
3.57575e-08
2.03704e-07
1.06867e-08
1.96837e-07
-1.45572e-08
1.90917e-07
-3.35844e-08
1.78566e-07
-3.91188e-08
1.56589e-07
-3.00095e-08
1.25492e-07
-1.09015e-08
8.55755e-08
1.45765e-08
3.3838e-08
4.57118e-08
-3.62394e-08
8.07842e-08
-1.30581e-07
1.1819e-07
-2.48941e-07
1.59007e-07
-3.87136e-07
2.02354e-07
-5.37801e-07
2.45525e-07
-6.92375e-07
2.85537e-07
-8.45406e-07
3.19702e-07
-9.91764e-07
3.46403e-07
-1.12689e-06
3.6523e-07
-1.24861e-06
3.75783e-07
-1.35591e-06
3.78314e-07
-1.44842e-06
3.73495e-07
-1.52717e-06
3.62201e-07
-1.59439e-06
3.45765e-07
-1.65239e-06
3.25962e-07
-1.70327e-06
3.04414e-07
-1.74896e-06
2.82323e-07
-1.79094e-06
2.6067e-07
-1.83034e-06
2.40074e-07
-1.86802e-06
2.20921e-07
-1.90439e-06
2.03451e-07
-1.93982e-06
1.87767e-07
-1.9744e-06
1.73824e-07
-2.00798e-06
1.61542e-07
-2.04065e-06
1.5069e-07
-2.0724e-06
1.411e-07
-2.10319e-06
1.32589e-07
-2.13302e-06
1.24984e-07
-2.16185e-06
1.18134e-07
-2.1897e-06
1.11906e-07
-2.21652e-06
1.06188e-07
-2.24234e-06
1.00884e-07
-2.26712e-06
9.59143e-08
-2.29088e-06
9.12132e-08
-2.31361e-06
8.67293e-08
-2.3353e-06
8.24188e-08
-2.35594e-06
7.82491e-08
-2.37555e-06
7.41924e-08
-2.39411e-06
7.02287e-08
-2.41163e-06
6.63404e-08
-2.42811e-06
6.25149e-08
-2.44354e-06
5.87408e-08
-2.45792e-06
5.50097e-08
-2.47126e-06
5.13137e-08
-2.48355e-06
4.76467e-08
-2.4948e-06
4.40028e-08
-2.505e-06
4.0377e-08
-2.51416e-06
3.67641e-08
-2.52227e-06
3.31605e-08
-2.52934e-06
2.95576e-08
-2.53537e-06
2.59582e-08
-2.54035e-06
2.23577e-08
-2.5443e-06
1.87552e-08
-2.54721e-06
1.51483e-08
-2.5491e-06
1.15382e-08
-2.54998e-06
7.9253e-09
-2.54985e-06
4.31598e-09
-2.54873e-06
7.15787e-10
-2.54657e-06
-2.867e-09
-2.54332e-06
-6.44528e-09
-2.53894e-06
-1.00462e-08
-2.53341e-06
-1.36819e-08
-2.52671e-06
-1.7341e-08
-2.51883e-06
-2.10186e-08
-2.50975e-06
-2.4711e-08
-2.49949e-06
-2.84154e-08
-2.48802e-06
-3.21289e-08
-2.47534e-06
-3.58482e-08
-2.46146e-06
-3.95703e-08
-2.44638e-06
-4.32913e-08
-2.43009e-06
-4.70083e-08
-2.41259e-06
-5.07167e-08
-2.3939e-06
-5.44138e-08
-2.37401e-06
-5.80943e-08
-2.35292e-06
-6.17556e-08
-2.33066e-06
-6.53922e-08
-2.30722e-06
-6.90014e-08
-2.28262e-06
-7.25779e-08
-2.25686e-06
-7.61188e-08
-2.22997e-06
-7.96189e-08
-2.20195e-06
-8.30749e-08
-2.17282e-06
-8.64817e-08
-2.14259e-06
-8.98356e-08
-2.1113e-06
-9.31315e-08
-2.07895e-06
-9.63659e-08
-2.04556e-06
-9.95342e-08
-2.01117e-06
-1.02634e-07
-1.97579e-06
-1.05661e-07
-1.93945e-06
-1.0861e-07
-1.90217e-06
-1.11477e-07
-1.86399e-06
-1.14258e-07
-1.82492e-06
-1.16947e-07
-1.78501e-06
-1.1954e-07
-1.74429e-06
-1.22035e-07
-1.70276e-06
-1.24433e-07
-1.66045e-06
-1.26734e-07
-1.61737e-06
-1.28949e-07
-1.57361e-06
-1.31098e-07
-1.52921e-06
-1.33162e-07
-1.48419e-06
-1.35118e-07
-1.43858e-06
-1.36969e-07
-1.39239e-06
-1.38711e-07
-1.34567e-06
-1.40347e-07
-1.29843e-06
-1.41878e-07
-1.25071e-06
-1.43308e-07
-1.20253e-06
-1.44638e-07
-1.15391e-06
-1.45871e-07
-1.10488e-06
-1.47019e-07
-1.05547e-06
-1.48094e-07
-1.00573e-06
-1.49112e-07
-9.55654e-07
-1.5007e-07
-9.05281e-07
-1.50968e-07
-8.54621e-07
-1.51795e-07
-8.03703e-07
-1.52553e-07
-7.52542e-07
-1.53247e-07
-7.0116e-07
-1.53891e-07
-6.49564e-07
-1.54498e-07
-5.97767e-07
-1.5508e-07
-5.45771e-07
-1.55654e-07
-4.93577e-07
-1.56233e-07
-4.41179e-07
-1.56821e-07
-3.88576e-07
-1.57425e-07
-3.3576e-07
-1.58036e-07
-2.82735e-07
-1.58655e-07
-2.29494e-07
-1.59273e-07
-1.7604e-07
-1.59901e-07
-1.22363e-07
-1.6054e-07
-6.84601e-08
-1.61203e-07
-1.43208e-08
-1.61888e-07
4.00577e-08
-1.62593e-07
9.46777e-08
-1.63289e-07
1.49524e-07
-1.63925e-07
2.04556e-07
-1.64414e-07
2.59688e-07
-1.64617e-07
3.14781e-07
-1.64299e-07
3.69622e-07
-1.63055e-07
4.23857e-07
-1.60184e-07
4.77036e-07
-1.54581e-07
5.28182e-07
-1.43843e-07
-1.18157e-07
5.80828e-07
-7.55147e-11
1.13654e-08
1.37342e-08
2.56746e-09
5.49202e-08
-3.86064e-08
1.17885e-07
-9.25128e-08
1.8492e-07
-1.36837e-07
2.42064e-07
-1.62196e-07
2.84134e-07
-1.69852e-07
3.12292e-07
-1.65232e-07
3.30243e-07
-1.53545e-07
3.41624e-07
-1.38306e-07
3.49068e-07
-1.21467e-07
3.54109e-07
-1.04011e-07
3.57527e-07
-8.64309e-08
3.59638e-07
-6.89846e-08
3.60557e-07
-5.18214e-08
3.60308e-07
-3.50413e-08
3.58912e-07
-1.87191e-08
3.56411e-07
-2.91957e-09
3.52876e-07
1.23e-08
3.48463e-07
2.69124e-08
3.43384e-07
4.08911e-08
3.37886e-07
5.41963e-08
3.32118e-07
6.67488e-08
3.26086e-07
7.83682e-08
3.19519e-07
8.86949e-08
3.11909e-07
9.71282e-08
3.02523e-07
1.02796e-07
2.90703e-07
1.04573e-07
2.76075e-07
1.01336e-07
2.5889e-07
9.21478e-08
2.40116e-07
7.6466e-08
2.21015e-07
5.48805e-08
2.01469e-07
3.02465e-08
1.7681e-07
1.01119e-08
1.40381e-07
2.85411e-09
9.04206e-08
1.08363e-08
2.78547e-08
3.25666e-08
-4.89243e-08
6.58691e-08
-1.4214e-07
1.078e-07
-2.51757e-07
1.55326e-07
-3.76043e-07
2.05076e-07
-5.12138e-07
2.54285e-07
-6.54294e-07
3.01169e-07
-7.96225e-07
3.44289e-07
-9.32038e-07
3.81343e-07
-1.05653e-06
4.10039e-07
-1.16673e-06
4.29908e-07
-1.26159e-06
4.41268e-07
-1.34089e-06
4.44532e-07
-1.40579e-06
4.4068e-07
-1.45824e-06
4.30765e-07
-1.50069e-06
4.15943e-07
-1.53589e-06
3.97397e-07
-1.56649e-06
3.76362e-07
-1.59459e-06
3.54062e-07
-1.62165e-06
3.31477e-07
-1.64864e-06
3.09314e-07
-1.67607e-06
2.88094e-07
-1.70414e-06
2.68148e-07
-1.73289e-06
2.4967e-07
-1.76219e-06
2.32753e-07
-1.79184e-06
2.17415e-07
-1.82161e-06
2.03594e-07
-1.85126e-06
1.91185e-07
-1.8806e-06
1.80036e-07
-1.9095e-06
1.69996e-07
-1.93783e-06
1.60914e-07
-1.96549e-06
1.52644e-07
-1.99241e-06
1.45056e-07
-2.01854e-06
1.38033e-07
-2.04382e-06
1.31475e-07
-2.06823e-06
1.25295e-07
-2.09174e-06
1.19421e-07
-2.11432e-06
1.13795e-07
-2.13596e-06
1.08366e-07
-2.15663e-06
1.03097e-07
-2.17634e-06
9.7957e-08
-2.19507e-06
9.29211e-08
-2.2128e-06
8.79708e-08
-2.22955e-06
8.30905e-08
-2.2453e-06
7.82685e-08
-2.26005e-06
7.34949e-08
-2.27379e-06
6.87617e-08
-2.28654e-06
6.4062e-08
-2.29827e-06
5.93901e-08
-2.30901e-06
5.47406e-08
-2.31873e-06
5.01087e-08
-2.32745e-06
4.54899e-08
-2.33517e-06
4.0877e-08
-2.34188e-06
3.62706e-08
-2.34758e-06
3.1661e-08
-2.35227e-06
2.7051e-08
-2.35595e-06
2.24378e-08
-2.35861e-06
1.78187e-08
-2.36025e-06
1.3193e-08
-2.36087e-06
8.55855e-09
-2.36046e-06
3.9172e-09
-2.359e-06
-7.32531e-10
-2.35647e-06
-5.39174e-09
-2.35284e-06
-1.00737e-08
-2.34809e-06
-1.47921e-08
-2.34222e-06
-1.95521e-08
-2.33522e-06
-2.43452e-08
-2.32708e-06
-2.91663e-08
-2.31779e-06
-3.40098e-08
-2.30734e-06
-3.88715e-08
-2.29573e-06
-4.37468e-08
-2.28295e-06
-4.86312e-08
-2.26901e-06
-5.35205e-08
-2.2539e-06
-5.84095e-08
-2.23762e-06
-6.32943e-08
-2.22018e-06
-6.81689e-08
-2.20157e-06
-7.30295e-08
-2.1818e-06
-7.78693e-08
-2.16088e-06
-8.26846e-08
-2.13881e-06
-8.74679e-08
-2.11561e-06
-9.22162e-08