/*--------------------------------*- C++ -*----------------------------------*\
| =========                 |                                                 |
| \\      /  F ield         | OpenFOAM: The Open Source CFD Toolbox           |
|  \\    /   O peration     | Version:  v2012                                 |
|   \\  /    A nd           | Website:  www.openfoam.com                      |
|    \\/     M anipulation  |                                                 |
\*---------------------------------------------------------------------------*/
FoamFile
{
    version     2.0;
    format      ascii;
    class       volVectorField;
    location    "400";
    object      U;
}
// * * * * * * * * * * * * * * * * * * * * * * * * * * * * * * * * * * * * * //

dimensions      [0 1 -1 0 0 0 0];


internalField   nonuniform List<vector> 
12225
(
(9.78903 0.0431487 0)
(9.34758 0.0787767 0)
(8.92342 0.0843859 0)
(8.52656 0.0813073 0)
(8.17086 0.0747235 0)
(7.85926 0.0664961 0)
(7.58766 0.0577212 0)
(7.35235 0.0491225 0)
(7.14987 0.0414071 0)
(6.97455 0.0349579 0)
(6.82174 0.029546 0)
(6.68949 0.0249014 0)
(6.57479 0.0207531 0)
(6.47684 0.0169648 0)
(6.39399 0.0132857 0)
(6.32647 0.00925859 0)
(6.27687 0.00507893 0)
(6.24114 -0.00685605 0)
(10.0643 0.0570821 0)
(10.2168 0.0906133 0)
(10.2947 0.090399 0)
(10.3185 0.0874519 0)
(10.3093 0.0851167 0)
(10.2779 0.0819484 0)
(10.2293 0.0779649 0)
(10.1681 0.0736469 0)
(10.0991 0.0692629 0)
(10.0269 0.0650101 0)
(9.95461 0.0610155 0)
(9.88313 0.0570885 0)
(9.81399 0.0531275 0)
(9.74739 0.0489772 0)
(9.68461 0.0444579 0)
(9.62543 0.0390319 0)
(9.57178 0.0318082 0)
(9.51781 0.0194667 0)
(10.0183 0.0427376 0)
(10.074 0.0654643 0)
(10.1239 0.0685609 0)
(10.1595 0.0726525 0)
(10.1889 0.0766861 0)
(10.2136 0.0783382 0)
(10.2323 0.0779685 0)
(10.2448 0.076476 0)
(10.2517 0.0743896 0)
(10.2543 0.0719869 0)
(10.2534 0.0692692 0)
(10.2498 0.0662496 0)
(10.244 0.0629129 0)
(10.2367 0.0591869 0)
(10.2284 0.0548728 0)
(10.2191 0.0494025 0)
(10.2091 0.0422781 0)
(10.1954 0.0309653 0)
(10.0085 0.0308901 0)
(10.0411 0.0547424 0)
(10.0719 0.0622511 0)
(10.0943 0.0673583 0)
(10.1136 0.0710542 0)
(10.132 0.0723885 0)
(10.1485 0.0720255 0)
(10.1628 0.0708275 0)
(10.175 0.0691891 0)
(10.1856 0.0672369 0)
(10.1947 0.0650049 0)
(10.2026 0.0625067 0)
(10.2095 0.0596906 0)
(10.2155 0.0564499 0)
(10.2208 0.0525752 0)
(10.2252 0.0476599 0)
(10.2284 0.04141 0)
(10.2292 0.033201 0)
(10.0049 0.0241869 0)
(10.0289 0.048198 0)
(10.0524 0.0570522 0)
(10.0701 0.0619244 0)
(10.0853 0.0654324 0)
(10.1 0.0670295 0)
(10.1137 0.0670974 0)
(10.1259 0.0662978 0)
(10.1368 0.0649947 0)
(10.1467 0.0633199 0)
(10.1559 0.0613343 0)
(10.1643 0.0590356 0)
(10.1722 0.0563746 0)
(10.1795 0.0532515 0)
(10.1863 0.0495133 0)
(10.1923 0.044919 0)
(10.1974 0.0393719 0)
(10.2007 0.0328673 0)
(10.0032 0.0191658 0)
(10.0213 0.0417081 0)
(10.0408 0.0512366 0)
(10.0564 0.0563976 0)
(10.0697 0.0601412 0)
(10.0826 0.0620969 0)
(10.0948 0.0625047 0)
(10.1058 0.0619608 0)
(10.1157 0.0608526 0)
(10.1249 0.0593276 0)
(10.1335 0.0574522 0)
(10.1416 0.0552298 0)
(10.1492 0.0526321 0)
(10.1563 0.0495848 0)
(10.1629 0.0459919 0)
(10.1688 0.0417276 0)
(10.1738 0.0367972 0)
(10.1774 0.0313567 0)
(10.0022 0.0153232 0)
(10.0158 0.0357445 0)
(10.0321 0.0455883 0)
(10.0463 0.0510784 0)
(10.0585 0.0549456 0)
(10.0703 0.0570981 0)
(10.0814 0.0577438 0)
(10.0917 0.0574121 0)
(10.101 0.0564782 0)
(10.1097 0.0550899 0)
(10.1179 0.0533182 0)
(10.1255 0.0511797 0)
(10.1327 0.0486666 0)
(10.1395 0.0457327 0)
(10.1457 0.0423294 0)
(10.1513 0.0384101 0)
(10.156 0.034035 0)
(10.1597 0.0293991 0)
(10.0016 0.0126454 0)
(10.0122 0.0311937 0)
(10.0264 0.0410624 0)
(10.0393 0.0466892 0)
(10.0507 0.0505507 0)
(10.0617 0.0527871 0)
(10.0722 0.0535846 0)
(10.0819 0.0534082 0)
(10.0909 0.0526048 0)
(10.0992 0.0513226 0)
(10.1071 0.049637 0)
(10.1144 0.0475767 0)
(10.1214 0.0451499 0)
(10.1278 0.0423353 0)
(10.1337 0.0391182 0)
(10.139 0.0354978 0)
(10.1435 0.0315555 0)
(10.1472 0.0274717 0)
(10.0012 0.0106598 0)
(10.0098 0.0274269 0)
(10.022 0.0370934 0)
(10.0339 0.0427645 0)
(10.0447 0.0466017 0)
(10.055 0.0488852 0)
(10.0649 0.049794 0)
(10.0742 0.0497392 0)
(10.0828 0.0490409 0)
(10.0909 0.0478496 0)
(10.0984 0.0462425 0)
(10.1055 0.0442601 0)
(10.1122 0.0419227 0)
(10.1184 0.03923 0)
(10.124 0.0361897 0)
(10.1291 0.0328287 0)
(10.1334 0.029234 0)
(10.137 0.0255667 0)
(10.0009 0.00892017 0)
(10.0077 0.0237326 0)
(10.0182 0.032959 0)
(10.0289 0.0385698 0)
(10.0389 0.0423262 0)
(10.0486 0.0446149 0)
(10.0579 0.0456113 0)
(10.0667 0.045663 0)
(10.0749 0.045063 0)
(10.0827 0.043962 0)
(10.0899 0.0424413 0)
(10.0967 0.0405512 0)
(10.1031 0.0383233 0)
(10.1089 0.0357767 0)
(10.1143 0.0329365 0)
(10.1191 0.0298483 0)
(10.1233 0.0265959 0)
(10.1269 0.0233173 0)
(10.0007 0.00737995 0)
(10.006 0.0201476 0)
(10.0148 0.0287118 0)
(10.0244 0.0341301 0)
(10.0336 0.0377328 0)
(10.0425 0.0399689 0)
(10.0512 0.0410157 0)
(10.0595 0.0411543 0)
(10.0673 0.0406436 0)
(10.0746 0.0396335 0)
(10.0815 0.0382091 0)
(10.088 0.0364273 0)
(10.094 0.034331 0)
(10.0996 0.0319542 0)
(10.1047 0.0293357 0)
(10.1092 0.0265297 0)
(10.1132 0.0236125 0)
(10.1167 0.0206963 0)
(10.0005 0.00601057 0)
(10.0047 0.0167281 0)
(10.0119 0.0244094 0)
(10.0203 0.0294764 0)
(10.0287 0.0328435 0)
(10.0369 0.0349594 0)
(10.0449 0.0360057 0)
(10.0527 0.0362027 0)
(10.06 0.035769 0)
(10.0669 0.034849 0)
(10.0734 0.0335299 0)
(10.0796 0.0318738 0)
(10.0852 0.0299315 0)
(10.0905 0.0277472 0)
(10.0953 0.0253676 0)
(10.0996 0.0228485 0)
(10.1034 0.0202553 0)
(10.1068 0.0176774 0)
(10.0004 0.00478939 0)
(10.0037 0.0135134 0)
(10.0096 0.0201167 0)
(10.0168 0.0246567 0)
(10.0243 0.0276916 0)
(10.0318 0.02961 0)
(10.0391 0.030591 0)
(10.0463 0.0308055 0)
(10.0532 0.0304297 0)
(10.0597 0.0295949 0)
(10.0658 0.0283878 0)
(10.0715 0.0268726 0)
(10.0769 0.0251036 0)
(10.0818 0.0231303 0)
(10.0863 0.0210014 0)
(10.0904 0.0187695 0)
(10.0941 0.0164884 0)
(10.0973 0.0142285 0)
(10.0003 0.00368944 0)
(10.0029 0.0105069 0)
(10.0077 0.0158864 0)
(10.0139 0.0197245 0)
(10.0205 0.0223148 0)
(10.0272 0.0239494 0)
(10.0339 0.0247896 0)
(10.0405 0.0249683 0)
(10.0469 0.0246206 0)
(10.053 0.0238585 0)
(10.0587 0.0227633 0)
(10.0641 0.0213974 0)
(10.0691 0.0198142 0)
(10.0737 0.0180628 0)
(10.078 0.0161897 0)
(10.0819 0.0142412 0)
(10.0854 0.01226 0)
(10.0885 0.0103017 0)
(10.0003 0.00268204 0)
(10.0023 0.00768273 0)
(10.0063 0.0117429 0)
(10.0115 0.0147224 0)
(10.0173 0.0167458 0)
(10.0233 0.0180029 0)
(10.0294 0.0186211 0)
(10.0355 0.0187007 0)
(10.0413 0.0183404 0)
(10.0469 0.0176287 0)
(10.0523 0.0166355 0)
(10.0573 0.015417 0)
(10.062 0.0140216 0)
(10.0664 0.0124933 0)
(10.0704 0.0108729 0)
(10.0741 0.00919868 0)
(10.0775 0.00750384 0)
(10.0805 0.00583175 0)
(10.0002 0.00173718 0)
(10.0019 0.00498892 0)
(10.0052 0.00766704 0)
(10.0097 0.00965623 0)
(10.0148 0.0109902 0)
(10.0202 0.0117713 0)
(10.0257 0.0120835 0)
(10.0312 0.0119951 0)
(10.0366 0.0115729 0)
(10.0418 0.0108796 0)
(10.0468 0.00996878 0)
(10.0515 0.0088855 0)
(10.056 0.00766921 0)
(10.0601 0.00635568 0)
(10.0639 0.00497741 0)
(10.0674 0.00356417 0)
(10.0707 0.00214035 0)
(10.0737 0.000739729 0)
(10.0002 0.000818511 0)
(10.0016 0.00234405 0)
(10.0045 0.00358617 0)
(10.0084 0.00447737 0)
(10.013 0.00500919 0)
(10.0179 0.00521766 0)
(10.023 0.00514099 0)
(10.0281 0.0048151 0)
(10.0331 0.00427661 0)
(10.0379 0.00356194 0)
(10.0426 0.00270461 0)
(10.047 0.00173463 0)
(10.0512 0.000679238 0)
(10.0551 -0.000436584 0)
(10.0588 -0.00159005 0)
(10.0622 -0.00276045 0)
(10.0653 -0.00393128 0)
(10.0682 -0.00507735 0)
(10.0002 -7.10336e-05 0)
(10.0015 -0.000223985 0)
(10.0042 -0.000403891 0)
(10.0079 -0.000629061 0)
(10.0122 -0.000932143 0)
(10.0168 -0.00133146 0)
(10.0216 -0.00183242 0)
(10.0264 -0.00243069 0)
(10.0312 -0.00311784 0)
(10.0358 -0.00388321 0)
(10.0403 -0.00471456 0)
(10.0445 -0.00559841 0)
(10.0485 -0.00652107 0)
(10.0523 -0.00746896 0)
(10.0558 -0.0084293 0)
(10.0591 -0.00938978 0)
(10.0622 -0.010341 0)
(10.0651 -0.011265 0)
(10.0002 -0.000903225 0)
(10.0016 -0.00262315 0)
(10.0043 -0.00411575 0)
(10.0081 -0.00535766 0)
(10.0124 -0.006415 0)
(10.017 -0.00736326 0)
(10.0217 -0.0082482 0)
(10.0265 -0.00909384 0)
(10.0311 -0.00991766 0)
(10.0357 -0.0107333 0)
(10.04 -0.0115482 0)
(10.0442 -0.0123642 0)
(10.0481 -0.0131799 0)
(10.0518 -0.0139921 0)
(10.0553 -0.0147966 0)
(10.0586 -0.0155881 0)
(10.0616 -0.0163625 0)
(10.0645 -0.0171075 0)
(10.0002 -0.00170972 0)
(10.0018 -0.00492856 0)
(10.0048 -0.00761688 0)
(10.0089 -0.00973133 0)
(10.0135 -0.0114125 0)
(10.0182 -0.0128081 0)
(10.023 -0.0139995 0)
(10.0278 -0.0150338 0)
(10.0326 -0.015954 0)
(10.0371 -0.0167968 0)
(10.0415 -0.0175864 0)
(10.0456 -0.0183372 0)
(10.0495 -0.0190583 0)
(10.0532 -0.0197551 0)
(10.0567 -0.0204302 0)
(10.06 -0.0210839 0)
(10.063 -0.0217158 0)
(10.0659 -0.0223178 0)
(10.0002 -0.00256057 0)
(10.0022 -0.00731332 0)
(10.0058 -0.0111114 0)
(10.0104 -0.0139518 0)
(10.0153 -0.016125 0)
(10.0203 -0.0178691 0)
(10.0254 -0.0192878 0)
(10.0304 -0.0204474 0)
(10.0352 -0.021418 0)
(10.0398 -0.0222581 0)
(10.0443 -0.0230053 0)
(10.0485 -0.023684 0)
(10.0524 -0.0243119 0)
(10.0561 -0.0249018 0)
(10.0596 -0.0254621 0)
(10.0629 -0.025997 0)
(10.066 -0.0265091 0)
(10.0689 -0.0269924 0)
(10.0003 -0.00352792 0)
(10.0028 -0.00992327 0)
(10.0072 -0.0147315 0)
(10.0126 -0.0181293 0)
(10.018 -0.0206653 0)
(10.0234 -0.0226642 0)
(10.0287 -0.0242311 0)
(10.034 -0.0254522 0)
(10.039 -0.0264289 0)
(10.0438 -0.0272376 0)
(10.0483 -0.0279242 0)
(10.0526 -0.0285204 0)
(10.0566 -0.0290518 0)
(10.0604 -0.0295379 0)
(10.064 -0.0299916 0)
(10.0673 -0.0304204 0)
(10.0704 -0.0308286 0)
(10.0733 -0.0312122 0)
(10.0004 -0.00470589 0)
(10.0038 -0.0128904 0)
(10.0094 -0.0185461 0)
(10.0157 -0.0223034 0)
(10.0217 -0.0250879 0)
(10.0274 -0.0272606 0)
(10.0332 -0.0288992 0)
(10.0387 -0.030122 0)
(10.044 -0.0310665 0)
(10.049 -0.0318203 0)
(10.0537 -0.0324315 0)
(10.0581 -0.032937 0)
(10.0622 -0.0333693 0)
(10.0661 -0.0337538 0)
(10.0698 -0.0341073 0)
(10.0732 -0.0344401 0)
(10.0764 -0.0347575 0)
(10.0794 -0.0350558 0)
(10.0006 -0.00622601 0)
(10.0055 -0.0163267 0)
(10.0126 -0.0225809 0)
(10.0198 -0.0264702 0)
(10.0264 -0.0294088 0)
(10.0327 -0.0316951 0)
(10.0389 -0.0333481 0)
(10.0448 -0.0345308 0)
(10.0504 -0.0354169 0)
(10.0557 -0.036098 0)
(10.0606 -0.0366204 0)
(10.0653 -0.0370261 0)
(10.0696 -0.0373542 0)
(10.0737 -0.0376362 0)
(10.0774 -0.0378931 0)
(10.081 -0.0381379 0)
(10.0843 -0.0383763 0)
(10.0874 -0.0386037 0)
(10.001 -0.00823814 0)
(10.008 -0.0202807 0)
(10.0169 -0.0268849 0)
(10.0253 -0.030692 0)
(10.0326 -0.0336855 0)
(10.0396 -0.0360106 0)
(10.0464 -0.0376306 0)
(10.0529 -0.038757 0)
(10.059 -0.0395806 0)
(10.0647 -0.0401838 0)
(10.07 -0.0406085 0)
(10.075 -0.0409026 0)
(10.0796 -0.0411126 0)
(10.084 -0.0412775 0)
(10.0879 -0.0414246 0)
(10.0917 -0.0415714 0)
(10.0952 -0.0417245 0)
(10.0984 -0.0418733 0)
(10.0016 -0.0109474 0)
(10.0118 -0.0247024 0)
(10.0232 -0.0314936 0)
(10.033 -0.0352049 0)
(10.0414 -0.0382009 0)
(10.0495 -0.0404111 0)
(10.0574 -0.0418673 0)
(10.0648 -0.0428648 0)
(10.0717 -0.0435887 0)
(10.0781 -0.0440962 0)
(10.084 -0.0444183 0)
(10.0895 -0.0446047 0)
(10.0946 -0.0447062 0)
(10.0993 -0.0447675 0)
(10.1036 -0.0448222 0)
(10.1075 -0.0448924 0)
(10.1112 -0.0449891 0)
(10.1147 -0.045089 0)
(10.0028 -0.0154388 0)
(10.0178 -0.0298078 0)
(10.0334 -0.0360055 0)
(10.0462 -0.0398775 0)
(10.057 -0.0431358 0)
(10.0674 -0.0452847 0)
(10.0773 -0.0465105 0)
(10.0864 -0.0472656 0)
(10.0947 -0.0477526 0)
(10.1022 -0.0480127 0)
(10.1092 -0.04808 0)
(10.1155 -0.0480122 0)
(10.1212 -0.0478682 0)
(10.1263 -0.0477015 0)
(10.1309 -0.0475539 0)
(10.135 -0.0474527 0)
(10.1388 -0.0474107 0)
(10.1421 -0.0473735 0)
(10.0078 -0.0234084 0)
(10.0337 -0.0380101 0)
(10.0602 -0.0406929 0)
(10.0806 -0.043407 0)
(10.0979 -0.0468883 0)
(10.1139 -0.0494472 0)
(10.1283 -0.0510219 0)
(10.1406 -0.052065 0)
(10.1511 -0.0527618 0)
(10.1602 -0.0531236 0)
(10.1678 -0.0531931 0)
(10.1741 -0.0530411 0)
(10.179 -0.0527525 0)
(10.1828 -0.0523997 0)
(10.1855 -0.0520663 0)
(10.1872 -0.0518182 0)
(10.1884 -0.0516711 0)
(10.1888 -0.0516612 0)
(10.0286 -0.0334371 0)
(10.1121 -0.0574672 0)
(10.1704 -0.0598883 0)
(10.2052 -0.0590065 0)
(10.2274 -0.0585884 0)
(10.2411 -0.0579 0)
(10.2471 -0.0568902 0)
(10.2462 -0.0558636 0)
(10.24 -0.0548657 0)
(10.2294 -0.0538049 0)
(10.2155 -0.0526455 0)
(10.1987 -0.0514084 0)
(10.1797 -0.050146 0)
(10.1589 -0.0489316 0)
(10.1369 -0.0478317 0)
(10.1144 -0.0469567 0)
(10.0918 -0.0463549 0)
(10.0698 -0.0463947 0)
(9.90778 -0.026051 0)
(9.70491 -0.0519119 0)
(9.50217 -0.0593212 0)
(9.30037 -0.0614718 0)
(9.11053 -0.06139 0)
(8.93563 -0.0598363 0)
(8.77456 -0.0573354 0)
(8.62564 -0.054423 0)
(8.48819 -0.0513451 0)
(8.36196 -0.04816 0)
(8.24636 -0.0449384 0)
(8.14074 -0.0417486 0)
(8.04433 -0.0386441 0)
(7.95639 -0.0356794 0)
(7.8761 -0.0329779 0)
(7.80207 -0.0307257 0)
(7.73291 -0.0289455 0)
(7.66843 -0.0279366 0)
(-0.00344016 0.00955903 0)
(-0.0159372 0.0156411 0)
(-0.0328494 0.0170145 0)
(-0.0514092 0.0145628 0)
(-0.0675253 0.0074707 0)
(-0.0725035 -0.00382618 0)
(-0.0581377 -0.0186605 -6.74004e-19)
(-0.0289156 -0.035647 7.99559e-19)
(0.0118349 -0.0499409 0)
(0.0601525 -0.0581116 5.55373e-19)
(0.113137 -0.0604555 0)
(0.167071 -0.0586138 0)
(0.218158 -0.0538366 0)
(0.264006 -0.0471548 -2.29102e-19)
(0.303377 -0.0393412 0)
(0.335692 -0.0309224 0)
(0.36068 -0.0222018 1.83807e-19)
(0.37818 -0.0132956 0)
(0.388126 -0.00410643 0)
(0.390274 0.00558847 0)
(0.383493 0.0156861 -1.78215e-19)
(0.368273 0.0256405 0)
(0.345032 0.034688 -1.92441e-19)
(0.31424 0.0420359 0)
(0.276741 0.0469216 0)
(0.233867 0.0485857 -2.58628e-19)
(0.187481 0.04638 0)
(0.139958 0.0399508 3.73032e-19)
(0.0940993 0.0294819 0)
(0.0530293 0.0161312 -6.55568e-19)
(0.0199507 0.00277589 0)
(-0.00289343 -0.00604919 0)
(-0.0174425 -0.00784114 0)
(-0.0265869 -0.00480474 0)
(-0.0322743 -0.000464663 0)
(-0.036739 0.00220691 9.55426e-19)
(-0.0407432 0.00175858 0)
(-0.0413405 -0.00213266 -1.86731e-18)
(-0.034018 -0.0089793 0)
(-0.0167601 -0.0177193 2.20426e-18)
(0.00972564 -0.0263025 0)
(0.0427248 -0.03175 0)
(0.0778112 -0.031962 -1.08645e-18)
(0.109976 -0.0273397 0)
(0.134834 -0.0196763 -8.11481e-19)
(0.150039 -0.011041 7.7555e-19)
(0.155675 -0.00309334 0)
(0.152898 0.00216301 7.81413e-19)
(0.146466 0.00373018 8.05806e-19)
(0.140609 0.00335224 0)
(0.139156 -9.47389e-06 0)
(0.148133 -0.0130565 0)
(0.157629 -0.0309129 0)
(0.158242 -0.0483722 0)
(0.135037 -0.0508155 -7.97399e-19)
(0.0837968 -0.0287927 0)
(-0.0106267 0.0153144 8.92453e-19)
(-0.151927 0.0611029 0)
(-0.308399 0.0946316 0)
(-0.477714 0.11716 -2.41212e-19)
(-0.652277 0.129754 0)
(-0.825502 0.133555 1.58509e-19)
(-0.992226 0.130244 0)
(-1.14873 0.122424 0)
(-1.29283 0.112256 0)
(-1.42367 0.101168 -1.04989e-19)
(-1.5414 0.0901931 0)
(-1.64689 0.0799147 0)
(-1.74119 0.0706426 -9.05661e-20)
(-1.82556 0.0625003 0)
(-1.90125 0.0554723 -8.49376e-20)
(-1.96947 0.0494732 0)
(-2.03128 0.0443783 0)
(-2.08761 0.0400546 0)
(-2.13926 0.036375 7.76909e-20)
(-2.18687 0.0332235 0)
(-2.23098 0.0305012 0)
(-2.27202 0.0281272 7.38907e-20)
(-2.31034 0.0260348 7.2785e-20)
(-2.34624 0.0241687 0)
(-2.37993 0.0224859 7.07294e-20)
(-2.4116 0.0209517 0)
(-2.4414 0.0195384 1.37643e-19)
(-2.46944 0.018224 0)
(-2.49582 0.0169904 1.34024e-19)
(-2.52062 0.015823 0)
(-2.54389 0.0147089 -1.30531e-19)
(-2.56569 0.0136374 0)
(-2.58605 0.0125983 0)
(-2.605 0.011582 0)
(-2.62255 0.0105792 1.23747e-19)
(-2.63872 0.00958041 0)
(-2.65349 0.00857607 -1.20392e-19)
(-2.66686 0.00755698 0)
(-2.67881 0.00651472 1.17037e-19)
(-2.6893 0.00544291 1.15356e-19)
(-2.69828 0.00433927 1.13672e-19)
(-2.7057 0.00321347 0)
(-2.71151 0.00210261 0)
(-2.71564 0.00108551 0)
(-2.71805 0.000244064 0)
(-2.7191 -0.000454381 0)
(-2.71893 -0.00110285 0)
(-2.71754 -0.00173444 0)
(-2.71494 -0.00235709 0)
(-2.71113 -0.00297349 -9.76662e-20)
(-2.70611 -0.00358408 -9.57106e-20)
(-2.69988 -0.00418867 0)
(-2.69243 -0.00478698 0)
(-2.68375 -0.0053784 0)
(-2.67386 -0.00596258 -8.74342e-20)
(-2.66274 -0.00653886 0)
(-2.65041 -0.0071069 0)
(-2.63685 -0.00766602 0)
(-2.62209 -0.00821594 0)
(-2.60612 -0.00875598 7.59193e-20)
(-2.58895 -0.00928588 0)
(-2.57059 -0.00980494 0)
(-2.55104 -0.0103129 -6.82924e-20)
(-2.53033 -0.010809 6.56186e-20)
(-2.50846 -0.0112927 0)
(-2.48544 -0.0117628 6.0061e-20)
(-2.4613 -0.0122181 0)
(-2.43603 -0.0126561 -5.42093e-20)
(-2.40968 -0.0130724 0)
(-2.38225 -0.0134551 0)
(-2.35377 -0.0137762 0)
(-2.32428 -0.0140077 0)
(-2.29382 -0.0141097 0)
(-2.26246 -0.0140604 6.93865e-20)
(-2.23016 -0.0141481 6.22778e-20)
(-2.19687 -0.0144658 0)
(-2.16262 -0.0147831 0)
(-2.12746 -0.015076 0)
(-2.09141 -0.0153555 -3.17882e-20)
(-2.05452 -0.0156191 0)
(-2.01681 -0.0158688 0)
(-1.9783 -0.0161088 0)
(-1.93902 -0.0163391 2.55094e-21)
(-1.899 -0.0165576 -1.18229e-20)
(-1.85826 -0.0167652 0)
(-1.81683 -0.016962 0)
(-1.77473 -0.0171478 -4.15197e-20)
(-1.732 -0.0173243 -5.21033e-20)
(-1.68865 -0.0174915 0)
(-1.6447 -0.0176515 0)
(-1.60018 -0.0178043 8.61974e-20)
(-1.55512 -0.0179522 -9.84245e-20)
(-1.50953 -0.0180954 0)
(-1.46344 -0.0182348 0)
(-1.41686 -0.018372 -1.38095e-19)
(-1.36983 -0.0185004 0)
(-1.32235 -0.0186298 0)
(-1.27447 -0.0187525 -1.8305e-19)
(-1.22618 -0.0188795 0)
(-1.17754 -0.0190037 -2.16549e-19)
(-1.12851 -0.0191382 0)
(-1.07914 -0.0192749 0)
(-1.02939 -0.0194271 0)
(-0.979312 -0.019585 2.94303e-19)
(-0.928841 -0.0197612 0)
(-0.878011 -0.0199525 0)
(-0.826791 -0.0201583 0)
(-0.775185 -0.0203824 0)
(-0.723184 -0.0206245 0)
(-0.670782 -0.0208883 0)
(-0.617967 -0.0211772 4.82899e-19)
(-0.564724 -0.0214948 5.18087e-19)
(-0.511033 -0.0218439 0)
(-0.456876 -0.0222256 0)
(-0.402241 -0.0226374 0)
(-0.347133 -0.023073 -6.9232e-19)
(-0.291588 -0.0235239 0)
(-0.235681 -0.0239924 1.61548e-18)
(-0.179575 -0.0244346 -1.75105e-18)
(-0.12357 -0.0247195 -1.90333e-18)
(-0.0681614 -0.0247008 2.0751e-18)
(-0.0160333 -0.0237898 -2.23275e-18)
(0.0426357 -0.0217787 2.25659e-18)
(0.0563971 -0.0106181 0)
(-1.91903e-05 0.0252585 0)
(-0.00660173 0.0441004 0)
(-0.015225 0.0470308 2.01432e-18)
(-0.0193178 0.0392622 0)
(-0.00893653 0.0185208 -2.36899e-18)
(0.0225337 -0.0201887 -1.64628e-18)
(0.0648348 -0.0707061 -4.73753e-19)
(0.115254 -0.116351 -3.19904e-19)
(0.169498 -0.14798 0)
(0.223413 -0.163529 -1.96684e-19)
(0.273972 -0.16504 0)
(0.319379 -0.156488 0)
(0.359013 -0.141714 2.76848e-19)
(0.392862 -0.123416 1.29825e-19)
(0.421057 -0.103452 -2.49483e-19)
(0.443887 -0.0829679 -2.42847e-19)
(0.46171 -0.0625501 -1.19469e-19)
(0.474889 -0.0424383 0)
(0.483729 -0.0226126 0)
(0.488823 -0.00290037 0)
(0.490928 0.0168609 -1.2305e-19)
(0.489655 0.0365355 0)
(0.484448 0.0557986 3.79963e-19)
(0.474582 0.074202 0)
(0.459214 0.0910292 0)
(0.437536 0.105264 1.40592e-19)
(0.408942 0.115607 0)
(0.373264 0.120617 -1.61231e-19)
(0.330947 0.119037 -3.5757e-19)
(0.283159 0.110245 2.04047e-19)
(0.231894 0.0947915 0)
(0.179971 0.0746787 0)
(0.130663 0.0526582 0)
(0.0881219 0.0316148 -1.01712e-18)
(0.0564243 0.0142939 -1.3565e-18)
(0.0377459 0.00156572 -8.70349e-19)
(0.0318279 -0.00972281 0)
(0.0400281 -0.0232179 1.74525e-18)
(0.0575492 -0.0409017 0)
(0.083356 -0.0619929 -9.54498e-19)
(0.114521 -0.0799465 0)
(0.145087 -0.0868531 0)
(0.169414 -0.0806535 5.00995e-19)
(0.185409 -0.0645242 0)
(0.192629 -0.0436069 1.41294e-18)
(0.191958 -0.0222186 -4.96935e-19)
(0.184583 -0.00404531 0)
(0.173505 0.00600426 -5.69591e-19)
(0.160609 0.00490537 -6.20232e-19)
(0.143213 -0.00482496 0)
(0.110131 -0.0146095 0)
(0.0422319 -0.00533982 0)
(-0.0913233 0.0473119 0)
(-0.266314 0.118653 0)
(-0.452237 0.185311 2.32195e-19)
(-0.641813 0.244882 3.42969e-19)
(-0.829955 0.2938 -1.35359e-19)
(-1.01241 0.326581 0)
(-1.18278 0.341419 1.97216e-19)
(-1.33843 0.341034 -8.91321e-20)
(-1.47671 0.328897 0)
(-1.59721 0.308494 -7.49967e-20)
(-1.70073 0.283183 0)
(-1.789 0.25577 0)
(-1.86429 0.228421 -1.32728e-19)
(-1.92891 0.202589 6.39646e-20)
(-1.985 0.179119 -1.25568e-19)
(-2.03435 0.158356 1.22756e-19)
(-2.07842 0.140321 5.99182e-20)
(-2.11833 0.12485 0)
(-2.15493 0.111675 5.78919e-20)
(-2.18883 0.100486 0)
(-2.22046 0.0909754 0)
(-2.25016 0.0828561 0)
(-2.27812 0.0758766 5.45878e-20)
(-2.30453 0.0698228 0)
(-2.32952 0.0645177 1.06173e-19)
(-2.35316 0.059817 -1.57158e-19)
(-2.37553 0.055604 -5.17132e-20)
(-2.39667 0.0517854 0)
(-2.41664 0.0482878 -5.03826e-20)
(-2.43547 0.0450527 0)
(-2.45317 0.0420337 -9.81726e-20)
(-2.46978 0.039194 0)
(-2.4853 0.036504 -9.562e-20)
(-2.49976 0.0339397 1.88614e-19)
(-2.51315 0.0314811 9.30849e-20)
(-2.5255 0.0291119 0)
(-2.5368 0.0268178 0)
(-2.54706 0.0245865 0)
(-2.55627 0.0224069 -8.79999e-20)
(-2.56445 0.0202685 0)
(-2.5716 0.0181614 8.54248e-20)
(-2.57772 0.0160764 0)
(-2.58282 0.0140053 -2.48473e-19)
(-2.58693 0.0119405 -8.15008e-20)
(-2.59009 0.00987449 -8.01758e-20)
(-2.59235 0.00780308 0)
(-2.59377 0.00573965 0)
(-2.59445 0.00373795 0)
(-2.59447 0.00187397 0)
(-2.59353 0.000140702 0)
(-2.59146 -0.00152854 -1.4381e-19)
(-2.58824 -0.00316269 -1.4088e-19)
(-2.58384 -0.00477135 0)
(-2.57825 -0.006358 6.73501e-20)
(-2.57148 -0.00792306 6.58073e-20)
(-2.5635 -0.00946585 0)
(-2.55433 -0.0109853 1.25537e-19)
(-2.54396 -0.0124802 0)
(-2.53238 -0.0139491 -5.96607e-20)
(-2.5196 -0.0153908 0)
(-2.50561 -0.016804 0)
(-2.49043 -0.0181872 1.0886e-19)
(-2.47405 -0.0195394 0)
(-2.45648 -0.0208592 -5.06958e-20)
(-2.43773 -0.0221456 0)
(-2.4178 -0.0233975 0)
(-2.39671 -0.0246141 -4.55359e-20)
(-2.37446 -0.0257941 -4.31767e-20)
(-2.35107 -0.0269372 0)
(-2.32655 -0.0280422 3.96929e-20)
(-2.30091 -0.0291087 0)
(-2.27418 -0.0301361 -3.56195e-20)
(-2.24637 -0.0311241 -6.65283e-20)
(-2.21749 -0.0320732 0)
(-2.18757 -0.0329873 0)
(-2.15661 -0.0338756 0)
(-2.12462 -0.0347479 0)
(-2.0916 -0.0356014 -4.3796e-20)
(-2.05758 -0.0364184 -1.1856e-19)
(-2.02261 -0.0371728 0)
(-1.98674 -0.0378626 0)
(-1.94997 -0.0384972 0)
(-1.91232 -0.0390893 1.96302e-20)
(-1.87382 -0.0396443 0)
(-1.8345 -0.0401595 0)
(-1.79437 -0.0406357 -9.63645e-21)
(-1.75346 -0.0410747 -1.80687e-22)
(-1.7118 -0.0414783 6.62093e-21)
(-1.66943 -0.0418458 0)
(-1.62635 -0.0421779 0)
(-1.58261 -0.0424747 2.34516e-20)
(-1.53821 -0.0427386 -2.77862e-20)
(-1.49319 -0.0429703 0)
(-1.44757 -0.0431727 0)
(-1.40138 -0.0433475 -4.72728e-20)
(-1.35462 -0.0434978 1.58947e-19)
(-1.30733 -0.0436256 0)
(-1.25953 -0.043731 0)
(-1.21124 -0.0438186 7.28289e-20)
(-1.16247 -0.0438797 0)
(-1.11325 -0.0439213 1.71052e-19)
(-1.0636 -0.0439388 -9.16705e-20)
(-1.01354 -0.0439412 0)
(-0.963093 -0.0439273 1.07576e-19)
(-0.912255 -0.0439076 2.28187e-19)
(-0.861056 -0.0438816 0)
(-0.809474 -0.0438595 0)
(-0.757532 -0.0438411 -1.37925e-19)
(-0.705196 -0.0438296 0)
(-0.652479 -0.0438298 3.06419e-19)
(-0.599359 -0.043835 0)
(-0.545834 -0.0438496 0)
(-0.491895 -0.0438722 0)
(-0.437535 -0.0439056 0)
(-0.382742 -0.0439538 -1.97786e-19)
(-0.3275 -0.0440199 -2.07177e-19)
(-0.271791 -0.0441064 0)
(-0.215594 -0.0442121 0)
(-0.158896 -0.0443313 0)
(-0.101693 -0.0444476 2.47281e-19)
(-0.0440162 -0.0445308 0)
(0.014063 -0.0445201 -5.30111e-19)
(0.0724492 -0.044339 5.33712e-19)
(0.130888 -0.043861 5.35057e-19)
(0.189245 -0.0429089 5.33251e-19)
(0.245464 -0.041111 5.3946e-19)
(0.305038 -0.0373709 5.41923e-19)
(0.341668 -0.025557 0)
(0.000954166 0.027297 0)
(0.00185819 0.0499635 0)
(0.00615659 0.047271 -2.18535e-18)
(0.0233764 0.0185323 -1.73412e-18)
(0.062724 -0.0438006 1.04528e-18)
(0.119331 -0.122626 6.39812e-19)
(0.181348 -0.192502 -3.3404e-22)
(0.239243 -0.23878 0)
(0.288691 -0.259223 0)
(0.328889 -0.258624 0)
(0.360871 -0.243613 0)
(0.386289 -0.220044 0)
(0.40666 -0.192291 -6.30051e-19)
(0.42306 -0.163106 0)
(0.436205 -0.133995 1.95735e-19)
(0.446548 -0.105705 1.92571e-19)
(0.454384 -0.0785266 0)
(0.459912 -0.0525093 0)
(0.463305 -0.0276035 0)
(0.464694 -0.00368721 0)
(0.464449 0.0194823 1.98676e-19)
(0.462867 0.0422743 0)
(0.460271 0.0649569 -2.04452e-19)
(0.456827 0.0875585 0)
(0.452413 0.109776 0)
(0.446517 0.130911 0)
(0.43824 0.149832 -4.75029e-19)
(0.426305 0.164997 0)
(0.409296 0.174622 2.63471e-19)
(0.386012 0.177014 -5.64896e-19)
(0.355999 0.171028 0)
(0.32004 0.156547 0)
(0.280417 0.134545 0)
(0.240814 0.106881 4.54356e-19)
(0.205528 0.0758955 5.36835e-19)
(0.178477 0.0435408 0)
(0.162802 0.0102384 0)
(0.158389 -0.0248076 -1.4492e-18)
(0.165198 -0.0611986 -1.25812e-18)
(0.178728 -0.0940248 1.03529e-18)
(0.19045 -0.112072 0)
(0.193363 -0.10898 0)
(0.186647 -0.0892932 0)
(0.171517 -0.0601887 0)
(0.149199 -0.0299467 -7.75436e-19)
(0.120946 -0.00307191 -8.63792e-19)
(0.0863808 0.021184 1.01677e-18)
(0.039331 0.0403283 0)
(-0.0419256 0.0601953 0)
(-0.169625 0.110729 0)
(-0.33234 0.182124 0)
(-0.515406 0.259759 -3.63768e-19)
(-0.705511 0.335962 0)
(-0.891727 0.403285 0)
(-1.06463 0.455937 -1.92313e-19)
(-1.21916 0.493467 -1.67618e-19)
(-1.34994 0.514 0)
(-1.45654 0.51691 2.78158e-19)
(-1.5417 0.503837 -1.28032e-19)
(-1.60915 0.478189 1.20517e-19)
(-1.66311 0.443913 0)
(-1.70761 0.404866 0)
(-1.74601 0.364362 0)
(-1.78086 0.324942 0)
(-1.81381 0.288299 9.91354e-20)
(-1.84578 0.255357 1.94305e-19)
(-1.8772 0.226436 9.40673e-20)
(-1.9082 0.201448 -9.18979e-20)
(-1.93872 0.180066 0)
(-1.96865 0.161857 1.76557e-19)
(-1.99785 0.146358 1.73039e-19)
(-2.02622 0.133127 1.69781e-19)
(-2.05366 0.121762 -1.66719e-19)
(-2.08012 0.111917 0)
(-2.10554 0.103307 -2.41658e-19)
(-2.1299 0.0956974 0)
(-2.15321 0.088898 7.7938e-20)
(-2.17544 0.0827536 7.68265e-20)
(-2.19662 0.0771411 0)
(-2.21674 0.0719634 0)
(-2.23582 0.0671439 1.46667e-19)
(-2.25387 0.0626211 0)
(-2.27089 0.0583465 1.423e-19)
(-2.2869 0.0542807 0)
(-2.30191 0.0503921 -1.38042e-19)
(-2.31592 0.0466546 -2.71973e-19)
(-2.32894 0.0430466 0)
(-2.34098 0.03955 0)
(-2.35203 0.0361492 0)
(-2.36211 0.0328312 -1.27637e-19)
(-2.37121 0.0295849 0)
(-2.37934 0.0264011 -1.23507e-19)
(-2.38651 0.0232726 0)
(-2.3927 0.0201948 0)
(-2.39793 0.0171661 2.34603e-19)
(-2.40221 0.0141886 0)
(-2.40554 0.0112683 1.13147e-19)
(-2.40793 0.00841388 0)
(-2.40937 0.00563338 1.08965e-19)
(-2.40983 0.00292052 0)
(-2.40926 0.000240197 0)
(-2.4076 -0.00243189 0)
(-2.40483 -0.00508528 3.00265e-19)
(-2.40094 -0.00770971 9.77426e-20)
(-2.39591 -0.0103029 0)
(-2.38974 -0.0128634 0)
(-2.3824 -0.0153895 0)
(-2.37391 -0.0178794 0)
(-2.36425 -0.0203309 -8.60116e-20)
(-2.35341 -0.0227419 1.67587e-19)
(-2.34141 -0.0251101 8.11322e-20)
(-2.32824 -0.0274332 -1.57769e-19)
(-2.31389 -0.0297091 -1.5277e-19)
(-2.29838 -0.0319357 -7.3592e-20)
(-2.2817 -0.0341108 0)
(-2.26386 -0.0362325 -1.37402e-19)
(-2.24486 -0.038299 0)
(-2.22472 -0.0403085 1.26837e-19)
(-2.20344 -0.0422594 6.04006e-20)
(-2.18104 -0.0441502 0)
(-2.15752 -0.0459792 -1.10502e-19)
(-2.13289 -0.0477451 -5.2099e-20)
(-2.10717 -0.0494464 0)
(-2.08038 -0.0510815 -4.71748e-20)
(-2.05253 -0.0526489 1.31309e-19)
(-2.02363 -0.0541463 0)
(-1.99371 -0.0555723 0)
(-1.96277 -0.0569284 0)
(-1.93084 -0.0582176 0)
(-1.89791 -0.0594461 5.79547e-20)
(-1.86403 -0.060626 5.08768e-20)
(-1.82923 -0.0617502 0)
(-1.79353 -0.0628025 0)
(-1.75695 -0.0637803 0)
(-1.71951 -0.0646883 0)
(-1.68124 -0.0655329 0)
(-1.64215 -0.066313 0)
(-1.60226 -0.067029 6.004e-21)
(-1.56161 -0.0676831 -1.0276e-21)
(-1.52022 -0.0682771 0)
(-1.47812 -0.068811 0)
(-1.43533 -0.0692859 -1.97934e-20)
(-1.39187 -0.0697029 0)
(-1.34777 -0.0700644 3.45994e-20)
(-1.30305 -0.0703729 4.04651e-20)
(-1.25773 -0.0706314 0)
(-1.21185 -0.0708436 0)
(-1.1654 -0.0710135 -6.27162e-20)
(-1.11843 -0.0711445 -1.3752e-19)
(-1.07095 -0.0712384 0)
(-1.02298 -0.0712972 0)
(-0.974524 -0.0713165 0)
(-0.925621 -0.0712973 -9.90069e-20)
(-0.876278 -0.0712411 1.06428e-19)
(-0.826526 -0.0711524 0)
(-0.77637 -0.0710386 2.4052e-19)
(-0.725832 -0.0709057 1.26655e-19)
(-0.674909 -0.070763 -2.70858e-19)
(-0.623616 -0.0706157 0)
(-0.571939 -0.0704725 0)
(-0.519878 -0.070333 -3.17055e-19)
(-0.467421 -0.0702049 -1.67506e-19)
(-0.41456 -0.0700803 0)
(-0.361288 -0.0699619 0)
(-0.307595 -0.0698486 0)
(-0.253474 -0.0697434 0)
(-0.198913 -0.069651 -4.12126e-19)
(-0.143896 -0.0695756 0)
(-0.0884037 -0.0695188 0)
(-0.0324184 -0.0694779 0)
(0.0240726 -0.0694385 0)
(0.081079 -0.0693761 0)
(0.138587 -0.069253 0)
(0.196549 -0.0689993 -4.94381e-19)
(0.254881 -0.0685146 0)
(0.313373 -0.0676354 0)
(0.372013 -0.0661214 -1.03006e-18)
(0.429285 -0.0635184 5.21038e-19)
(0.489283 -0.0588261 -5.3281e-19)
(0.536359 -0.0470506 5.448e-19)
(-0.00123434 0.026677 0)
(0.000664456 0.0389107 4.81944e-18)
(0.0188314 0.00577352 0)
(0.0673999 -0.0802293 9.39267e-19)
(0.136397 -0.184747 0)
(0.206531 -0.270778 0)
(0.264566 -0.321464 -3.03793e-19)
(0.306683 -0.338136 0)
(0.33505 -0.330163 0)
(0.353737 -0.307516 0)
(0.36643 -0.277504 0)
(0.375648 -0.24452 0)
(0.382842 -0.210896 7.06255e-19)
(0.388712 -0.177756 3.43326e-19)
(0.393519 -0.145596 -3.3706e-19)
(0.397312 -0.114616 0)
(0.400059 -0.0848773 0)
(0.401726 -0.0563721 0)
(0.402302 -0.0290649 0)
(0.401799 -0.00290152 0)
(0.400313 0.0222267 3.51413e-19)
(0.397968 0.046469 3.54518e-19)
(0.395003 0.0699837 -3.60128e-19)
(0.391731 0.092921 3.68379e-19)
(0.388454 0.115322 0)
(0.385359 0.137027 0)
(0.382422 0.1576 4.14521e-19)
(0.379285 0.176207 0)
(0.375158 0.191559 0)
(0.368855 0.20193 4.90734e-19)
(0.359062 0.205359 5.23036e-19)
(0.344803 0.200049 5.61814e-19)
(0.325954 0.184813 0)
(0.303544 0.159425 0)
(0.279722 0.124873 -7.62945e-19)
(0.257451 0.0830265 0)
(0.239587 0.0363546 0)
(0.227575 -0.0126764 1.05416e-18)
(0.219792 -0.0605005 -9.25595e-19)
(0.208103 -0.0933484 7.81686e-19)
(0.186554 -0.0992114 0)
(0.154645 -0.0813749 0)
(0.112975 -0.0493324 1.43121e-18)
(0.062776 -0.0086321 0)
(0.00236225 0.0361467 1.75712e-18)
(-0.0808232 0.0833464 2.28779e-18)
(-0.191362 0.141934 -1.72743e-18)
(-0.327095 0.2136 8.66022e-19)
(-0.486947 0.293167 0)
(-0.660555 0.377041 0)
(-0.835099 0.457241 4.34922e-19)
(-0.998911 0.526159 1.83726e-19)
(-1.14395 0.578237 0)
(-1.2656 0.61178 0)
(-1.36355 0.627926 1.31098e-19)
(-1.43886 0.628574 2.44297e-19)
(-1.49373 0.615721 0)
(-1.53245 0.591347 -2.12433e-19)
(-1.55989 0.55807 2.03195e-19)
(-1.58061 0.518888 -1.93232e-19)
(-1.59837 0.476735 0)
(-1.61577 0.434082 0)
(-1.6344 0.392804 0)