/*--------------------------------*- C++ -*----------------------------------*\
  =========                 |
  \\      /  F ield         | OpenFOAM: The Open Source CFD Toolbox
   \\    /   O peration     | Website:  https://openfoam.org
    \\  /    A nd           | Version:  8
     \\/     M anipulation  |
\*---------------------------------------------------------------------------*/
FoamFile
{
    version     2.0;
    format      ascii;
    class       surfaceScalarField;
    location    "200";
    object      phi;
}
// * * * * * * * * * * * * * * * * * * * * * * * * * * * * * * * * * * * * * //

dimensions      [0 3 -1 0 0 0 0];

internalField   nonuniform List<scalar> 
24170
(
3.92539e-06
-7.915e-07
3.76467e-06
1.60739e-07
3.6335e-06
1.31196e-07
3.4334e-06
2.00125e-07
3.2804e-06
1.53006e-07
3.18919e-06
9.12035e-08
3.13104e-06
5.81692e-08
3.0859e-06
4.52433e-08
3.04546e-06
4.0603e-08
3.00951e-06
3.61242e-08
2.9775e-06
3.21517e-08
2.94779e-06
2.98089e-08
2.92074e-06
2.71142e-08
2.89592e-06
2.48577e-08
2.87229e-06
2.36534e-08
2.85203e-06
2.0238e-08
2.84147e-06
1.04778e-08
-6.2316e-09
2.84761e-06
3.58445e-06
-9.19501e-07
3.80425e-06
-5.9053e-08
3.74285e-06
1.92613e-07
3.69065e-06
2.52351e-07
3.63737e-06
2.06304e-07
3.59034e-06
1.38258e-07
3.55308e-06
9.54906e-08
3.52347e-06
7.49657e-08
3.49911e-06
6.51267e-08
3.47794e-06
5.74965e-08
3.45926e-06
5.10431e-08
3.44296e-06
4.62963e-08
3.42833e-06
4.18985e-08
3.41482e-06
3.84801e-08
3.40262e-06
3.59403e-08
3.39114e-06
3.17566e-08
3.38044e-06
2.11566e-08
4.47648e-09
3.36978e-06
3.68518e-06
-7.92485e-07
3.8364e-06
-2.10268e-07
3.91495e-06
1.14055e-07
3.94505e-06
2.22253e-07
3.94414e-06
2.07212e-07
3.92758e-06
1.54812e-07
3.90765e-06
1.15397e-07
3.88949e-06
9.30899e-08
3.87429e-06
8.02759e-08
3.8609e-06
7.08149e-08
3.84865e-06
6.32258e-08
3.83756e-06
5.73451e-08
3.82718e-06
5.22546e-08
3.81756e-06
4.8088e-08
3.80912e-06
4.43906e-08
3.80145e-06
3.94389e-08
3.79255e-06
3.00542e-08
1.7049e-08
3.78005e-06
4.05359e-06
-6.41514e-07
4.1146e-06
-2.71277e-07
4.20801e-06
2.06608e-08
4.26638e-06
1.63886e-07
4.29075e-06
1.8286e-07
4.29294e-06
1.52636e-07
4.28577e-06
1.22587e-07
4.27639e-06
1.02466e-07
4.26744e-06
8.91987e-08
4.25897e-06
7.92472e-08
4.25081e-06
7.13547e-08
4.24307e-06
6.50822e-08
4.23558e-06
5.97616e-08
4.22845e-06
5.52571e-08
4.22181e-06
5.10671e-08
4.21518e-06
4.60997e-08
4.20664e-06
3.8636e-08
2.96152e-08
4.19414e-06
4.50491e-06
-5.09118e-07
4.51537e-06
-2.81732e-07
4.5853e-06
-4.92759e-08
4.64668e-06
1.02503e-07
4.68263e-06
1.46902e-07
4.69693e-06
1.38329e-07
4.69949e-06
1.20008e-07
4.69727e-06
1.04652e-07
4.69343e-06
9.29778e-08
4.68888e-06
8.37376e-08
4.68391e-06
7.62595e-08
4.67877e-06
7.01747e-08
4.67347e-06
6.50273e-08
4.6681e-06
6.06153e-08
4.66263e-06
5.6534e-08
4.65658e-06
5.21647e-08
4.64845e-06
4.678e-08
4.14197e-08
4.6367e-06
5.00015e-06
-3.94669e-07
4.98615e-06
-2.6773e-07
5.0307e-06
-9.38248e-08
5.08509e-06
4.81283e-08
5.12458e-06
1.07417e-07
5.14613e-06
1.16793e-07
5.15586e-06
1.10289e-07
5.15943e-06
1.0108e-07
5.15995e-06
9.24249e-08
5.15877e-06
8.48782e-08
5.15653e-06
7.84692e-08
5.1536e-06
7.30856e-08
5.15012e-06
6.84971e-08
5.14619e-06
6.45555e-08
5.14173e-06
6.10166e-08
5.13631e-06
5.76153e-08
5.12889e-06
5.42249e-08
5.18318e-08
5.11854e-06
5.54382e-06
-2.97483e-07
5.51665e-06
-2.40562e-07
5.54057e-06
-1.17743e-07
5.5839e-06
4.78524e-09
5.6217e-06
6.96164e-08
5.6466e-06
9.18879e-08
5.6611e-06
9.57776e-08
5.6691e-06
9.30595e-08
5.67324e-06
8.82495e-08
5.67498e-06
8.31015e-08
5.67513e-06
7.82865e-08
5.67416e-06
7.40232e-08
5.67232e-06
7.03219e-08
5.66971e-06
6.71606e-08
5.66626e-06
6.44667e-08
5.66166e-06
6.22195e-08
5.65532e-06
6.05872e-08
6.03538e-08
5.64682e-06
4.34788e-06
-2.3925e-07
4.32252e-06
-2.15196e-07
4.33079e-06
-1.2601e-07
4.3542e-06
-1.86241e-08
4.37842e-06
4.54047e-08
4.39649e-06
7.38258e-08
4.40844e-06
8.38348e-08
4.41601e-06
8.54868e-08
4.42066e-06
8.35883e-08
4.42335e-06
8.03937e-08
4.42469e-06
7.69295e-08
4.42506e-06
7.36488e-08
4.42464e-06
7.07311e-08
4.42354e-06
6.82635e-08
4.42172e-06
6.6284e-08
4.41907e-06
6.48844e-08
4.41534e-06
6.43164e-08
6.5232e-08
4.4105e-06
5.08622e-06
-1.85609e-07
5.05778e-06
-1.86757e-07
5.05841e-06
-1.26644e-07
5.07688e-06
-3.70983e-08
5.0992e-06
2.30844e-08
5.11776e-06
5.52702e-08
5.13127e-06
7.03151e-08
5.14063e-06
7.61193e-08
5.14693e-06
7.7275e-08
5.15105e-06
7.62681e-08
5.15358e-06
7.43875e-08
5.15493e-06
7.22964e-08
5.15532e-06
7.03362e-08
5.15487e-06
6.87094e-08
5.15361e-06
6.7552e-08
5.15146e-06
6.70342e-08
5.14836e-06
6.74375e-08
6.92254e-08
5.14437e-06
5.94839e-06
-1.38204e-07
5.91832e-06
-1.56691e-07
5.91162e-06
-1.19936e-07
5.92402e-06
-4.94975e-08
5.94289e-06
4.22457e-09
5.96061e-06
3.75487e-08
5.97483e-06
5.60967e-08
5.98551e-06
6.54375e-08
5.99327e-06
6.9511e-08
5.99877e-06
7.07587e-08
6.00256e-06
7.06001e-08
6.005e-06
6.98506e-08
6.00634e-06
6.89885e-08
6.00674e-06
6.83086e-08
6.00626e-06
6.80353e-08
6.00492e-06
6.83809e-08
6.00275e-06
6.95994e-08
7.20254e-08
5.99997e-06
6.95439e-06
-9.83246e-08
6.92402e-06
-1.26325e-07
6.91115e-06
-1.07059e-07
6.91682e-06
-5.51717e-08
6.9309e-06
-9.84945e-09
6.94639e-06
2.20679e-08
6.96019e-06
4.22941e-08
6.97145e-06
5.41751e-08
6.98024e-06
6.07153e-08
6.98694e-06
6.40636e-08
6.99192e-06
6.56178e-08
6.99551e-06
6.62633e-08
6.99794e-06
6.65533e-08
6.99938e-06
6.68704e-08
6.99993e-06
6.74781e-08
6.9997e-06
6.86071e-08
6.99883e-06
7.04773e-08
7.32805e-08
6.99757e-06
8.12719e-06
-6.65008e-08
8.09794e-06
-9.70724e-08
8.08057e-06
-8.96886e-08
8.07957e-06
-5.41696e-08
8.08796e-06
-1.82329e-08
8.09988e-06
1.01481e-08
8.11202e-06
3.01534e-08
8.1229e-06
4.32888e-08
8.13209e-06
5.15305e-08
8.13958e-06
5.65634e-08
8.14558e-06
5.96224e-08
8.15028e-06
6.1557e-08
8.15388e-06
6.29572e-08
8.15653e-06
6.42157e-08
8.15838e-06
6.56285e-08
8.15957e-06
6.74107e-08
8.16031e-06
6.97301e-08
7.27067e-08
8.16089e-06
9.49368e-06
-4.24522e-08
9.46681e-06
-7.0198e-08
9.44685e-06
-6.97235e-08
9.43993e-06
-4.72463e-08
9.44231e-06
-2.06139e-08
9.44969e-06
2.77516e-09
9.45898e-06
2.08524e-08
9.46844e-06
3.38255e-08
9.47721e-06
4.27565e-08
9.48497e-06
4.88014e-08
9.49166e-06
5.29287e-08
9.49734e-06
5.58789e-08
9.5021e-06
5.81806e-08
9.5061e-06
6.02236e-08
9.50945e-06
6.22737e-08
9.51233e-06
6.45255e-08
9.51497e-06
6.70978e-08
7.00602e-08
9.51762e-06
1.10854e-05
-2.51734e-08
1.10618e-05
-4.65617e-08
1.1041e-05
-4.88942e-08
1.10294e-05
-3.56695e-08
1.10261e-05
-1.73215e-08
1.10285e-05
4.20514e-10
1.1034e-05
1.52554e-08
1.10411e-05
2.67174e-08
1.10487e-05
3.52029e-08
1.10561e-05
4.13897e-08
1.10631e-05
4.59488e-08
1.10695e-05
4.94386e-08
1.10754e-05
5.22936e-08
1.10808e-05
5.48282e-08
1.10858e-05
5.72679e-08
1.10906e-05
5.97577e-08
1.10953e-05
6.23863e-08
6.51821e-08
1.11002e-05
1.29396e-05
-1.31337e-08
1.29194e-05
-2.63442e-08
1.28988e-05
-2.83452e-08
1.2884e-05
-2.0812e-08
1.28758e-05
-9.15182e-09
1.28732e-05
2.95521e-09
1.28748e-05
1.37174e-08
1.2879e-05
2.25332e-08
1.28847e-05
2.94568e-08
1.28913e-05
3.48231e-08
1.28982e-05
3.90323e-08
1.29052e-05
4.24486e-08
1.29121e-05
4.53658e-08
1.29189e-05
4.8003e-08
1.29257e-05
5.05119e-08
1.29325e-05
5.29872e-08
1.29394e-05
5.54764e-08
5.79906e-08
1.29466e-05
1.50998e-05
-4.49911e-09
1.50822e-05
-8.75035e-09
1.50621e-05
-8.21366e-09
1.50449e-05
-3.58835e-09
1.50327e-05
2.95033e-09
1.50259e-05
9.74864e-09
1.50237e-05
1.59435e-08
1.5025e-05
2.12172e-08
1.50289e-05
2.55794e-08
1.50345e-05
2.9185e-08
1.50414e-05
3.22318e-08
1.50489e-05
3.49013e-08
1.50569e-05
3.73383e-08
1.50653e-05
3.96462e-08
1.50739e-05
4.18894e-08
1.50828e-05
4.41002e-08
1.5092e-05
4.62843e-08
4.84307e-08
1.51016e-05
1.76171e-05
2.87612e-09
1.75999e-05
8.44355e-09
1.75787e-05
1.29242e-08
1.7559e-05
1.61487e-08
1.75436e-05
1.83145e-08
1.75336e-05
1.97774e-08
1.75287e-05
2.08468e-08
1.75281e-05
2.17677e-08
1.7531e-05
2.26925e-08
1.75365e-05
2.37202e-08
1.75438e-05
2.48968e-08
1.75525e-05
2.62356e-08
1.75621e-05
2.77291e-08
1.75724e-05
2.93506e-08
1.75833e-05
3.10687e-08
1.75945e-05
3.28413e-08
1.76062e-05
3.46282e-08
3.63878e-08
1.76182e-05
1.78181e-05
1.09848e-08
1.77994e-05
2.71338e-08
1.77768e-05
3.55254e-08
1.7756e-05
3.69325e-08
1.77402e-05
3.41829e-08
1.77302e-05
2.97815e-08
1.77257e-05
2.53208e-08
1.77259e-05
2.15824e-08
1.77297e-05
1.88676e-08
1.77363e-05
1.71807e-08
1.77448e-05
1.64024e-08
1.77547e-05
1.6368e-08
1.77655e-05
1.6902e-08
1.7777e-05
1.78568e-08
1.7789e-05
1.90932e-08
1.78013e-05
2.05083e-08
1.78139e-05
2.20066e-08
2.3524e-08
1.78268e-05
1.58702e-05
2.21188e-08
1.58478e-05
4.95125e-08
1.58233e-05
6.00404e-08
1.58031e-05
5.71242e-08
1.57899e-05
4.74799e-08
1.57834e-05
3.62302e-08
1.57827e-05
2.60477e-08
1.57863e-05
1.79902e-08
1.5793e-05
1.22044e-08
1.58017e-05
8.44574e-09
1.58118e-05
6.32593e-09
1.58228e-05
5.44981e-09
1.58342e-05
5.48547e-09
1.58459e-05
6.14906e-09
1.58578e-05
7.23314e-09
1.58697e-05
8.56541e-09
1.58817e-05
1.00295e-08
1.153e-08
1.58937e-05
1.41313e-05
3.95267e-08
1.41021e-05
7.86475e-08
1.40745e-05
8.77064e-08
1.40557e-05
7.59355e-08
1.40469e-05
5.6299e-08
1.40462e-05
3.69219e-08
1.40512e-05
2.10873e-08
1.40597e-05
9.46785e-09
1.40703e-05
1.64583e-09
1.40819e-05
-3.15378e-09
1.40939e-05
-5.71069e-09
1.41061e-05
-6.67035e-09
1.41181e-05
-6.53558e-09
1.413e-05
-5.68321e-09
1.41416e-05
-4.3832e-09
1.4153e-05
-2.83217e-09
1.41642e-05
-1.16635e-09
5.2031e-10
1.41752e-05
1.25772e-05
6.73445e-08
1.25392e-05
1.16688e-07
1.25091e-05
1.17815e-07
1.24942e-05
9.07985e-08
1.24928e-05
5.77115e-08
1.25002e-05
2.9578e-08
1.25122e-05
9.04245e-09
1.25263e-05
-4.59287e-09
1.25409e-05
-1.28883e-08
1.25551e-05
-1.73855e-08
1.25687e-05
-1.93053e-08
1.25816e-05
-1.95338e-08
1.25938e-05
-1.87021e-08
1.26054e-05
-1.72154e-08
1.26164e-05
-1.53834e-08
1.26269e-05
-1.33769e-08
1.26371e-05
-1.13377e-08
-9.33076e-09
1.2647e-05
1.11862e-05
1.10907e-07
1.11384e-05
1.64527e-07
1.11088e-05
1.47453e-07
1.11022e-05
9.73978e-08
1.11117e-05
4.82177e-08
1.1129e-05
1.23141e-08
1.11486e-05
-1.05557e-08
1.11678e-05
-2.37713e-08
1.11855e-05
-3.05404e-08
1.12013e-05
-3.32334e-08
1.12155e-05
-3.34674e-08
1.12283e-05
-3.22571e-08
1.12399e-05
-3.02513e-08
1.12505e-05
-2.78408e-08
1.12605e-05
-2.52632e-08
1.12698e-05
-2.26904e-08
1.12786e-05
-2.01851e-08
-1.78137e-08
1.12871e-05
9.93908e-06
1.76444e-07
9.88248e-06
2.21126e-07
9.85873e-06
1.71203e-07
9.86595e-06
9.01943e-08
9.88963e-06
2.4546e-08
9.91761e-06
-1.56556e-08
9.94394e-06
-3.68599e-08
9.96669e-06
-4.64859e-08
9.98574e-06
-4.95281e-08
1.00016e-05
-4.91158e-08
1.00151e-05
-4.6877e-08
1.00266e-05
-4.38052e-08
1.00368e-05
-4.03397e-08
1.00459e-05
-3.68657e-08
1.00542e-05
-3.35048e-08
1.00619e-05
-3.03612e-08
1.00692e-05
-2.74333e-08
-2.47137e-08
1.00761e-05
8.81963e-06
2.69911e-07
8.75784e-06
2.82915e-07
8.74788e-06
1.81171e-07
8.77482e-06
6.32454e-08
8.8146e-06
-1.52271e-08
8.85215e-06
-5.31871e-08
8.8827e-06
-6.7355e-08
8.90632e-06
-7.00373e-08
8.92435e-06
-6.76125e-08
8.93841e-06
-6.31131e-08
8.94965e-06
-5.8066e-08
8.959e-06
-5.29192e-08
8.96691e-06
-4.8181e-08
8.97388e-06
-4.37312e-08
8.98013e-06
-3.97006e-08
8.98593e-06
-3.60905e-08
8.99138e-06
-3.28528e-08
-2.98772e-08
8.99656e-06
7.81391e-06
3.96671e-07
7.7539e-06
3.4292e-07
7.76868e-06
1.66392e-07
7.82054e-06
1.1386e-08
7.8757e-06
-7.0375e-08
7.91915e-06
-9.66296e-08
7.94973e-06
-9.79451e-08
7.97064e-06
-9.08923e-08
7.98503e-06
-8.18277e-08
7.99527e-06
-7.32893e-08
8.00304e-06
-6.56501e-08
8.0091e-06
-5.90212e-08
8.01419e-06
-5.30904e-08
8.01852e-06
-4.79736e-08
8.02236e-06
-4.34318e-08
8.02592e-06
-3.96371e-08
8.02938e-06
-3.63089e-08
-3.31693e-08
8.03268e-06
6.90424e-06
5.66766e-07
6.86136e-06
3.85789e-07
6.91716e-06
1.1059e-07
6.99675e-06
-6.82073e-08
7.06255e-06
-1.36185e-07
7.10532e-06
-1.39418e-07
7.13032e-06
-1.22837e-07
7.14451e-06
-1.05062e-07
7.15245e-06
-8.97777e-08
7.15717e-06
-7.78717e-08
7.16022e-06
-6.86151e-08
7.16241e-06
-6.09363e-08
7.16401e-06
-5.46476e-08
7.16535e-06
-4.92908e-08
7.16638e-06
-4.45082e-08
7.16746e-06
-4.07327e-08
7.16875e-06
-3.76116e-08
-3.44666e-08
7.16999e-06
6.07162e-06
7.97661e-07
6.08525e-06
3.7215e-07
6.19865e-06
-2.81046e-09
6.2999e-06
-1.69463e-07
6.36527e-06
-2.01568e-07
6.39754e-06
-1.71675e-07
6.41005e-06
-1.35483e-07
6.4133e-06
-1.08008e-07
6.41228e-06
-8.88395e-08
6.40997e-06
-7.55458e-08
6.40751e-06
-6.60822e-08
6.40501e-06
-5.85025e-08
6.40257e-06
-5.23592e-08
6.40041e-06
-4.70444e-08
6.3982e-06
-4.23221e-08
6.39642e-06
-3.89972e-08
6.39529e-06
-3.65528e-08
-3.33822e-08
6.39423e-06
5.35805e-06
1.05451e-06
5.50648e-06
2.23706e-07
5.64777e-06
-1.44101e-07
5.73565e-06
-2.57352e-07
5.77647e-06
-2.42414e-07
5.78321e-06
-1.78533e-07
5.77499e-06
-1.27138e-07
5.76255e-06
-9.56312e-08
5.75002e-06
-7.64636e-08
5.7393e-06
-6.50555e-08
5.73044e-06
-5.73509e-08
5.72248e-06
-5.07846e-08
5.71504e-06
-4.51113e-08
5.70825e-06
-4.04339e-08
5.70194e-06
-3.60908e-08
5.69653e-06
-3.36598e-08
5.6925e-06
-3.25333e-08
-2.92508e-08
5.68831e-06
5.04576e-06
1.01105e-06
5.3649e-06
-9.54599e-08
5.35252e-06
-1.31741e-07
5.33287e-06
-2.37723e-07
5.29602e-06
-2.05641e-07
5.25005e-06
-1.32661e-07
5.20825e-06
-8.53554e-08
5.17406e-06
-6.15446e-08
5.14654e-06
-4.92602e-08
5.12468e-06
-4.35372e-08
5.10672e-06
-3.96703e-08
5.09087e-06
-3.53594e-08
5.07618e-06
-3.08686e-08
5.06264e-06
-2.71585e-08
5.05045e-06
-2.4038e-08
5.03988e-06
-2.31796e-08
5.03114e-06
-2.38393e-08
-2.10611e-08
5.02292e-06
5.4676e-06
5.37214e-06
5.2404e-06
5.00266e-06
4.79701e-06
4.66434e-06
4.57898e-06
4.51738e-06
4.46806e-06
4.42447e-06
4.38473e-06
4.34927e-06
4.31833e-06
4.29114e-06
4.26708e-06
4.24389e-06
4.22004e-06
4.19897e-06
1.87535e-08
-1.88561e-08
2.3078e-07
-2.12008e-07
4.83356e-07
-2.52678e-07
7.0575e-07
-2.22431e-07
8.76463e-07
-1.70777e-07
9.91089e-07
-1.14732e-07
1.05057e-06
-5.95262e-08
1.0568e-06
-6.35059e-09
1.01477e-06
4.20066e-08
9.33767e-07
8.09097e-08
8.28413e-07
1.05363e-07
7.17236e-07
1.11158e-07
6.2053e-07
9.67448e-08
5.50868e-07
6.97418e-08
5.00434e-07
5.04996e-08
4.45729e-07
5.48406e-08
3.67499e-07
7.83323e-08
2.52073e-07
1.15539e-07
8.70568e-08
1.65153e-07
-1.42439e-07
2.29615e-07
-4.32658e-07
2.90309e-07
-7.65438e-07
3.32932e-07
-1.12513e-06
3.59732e-07
-1.49911e-06
3.74138e-07
-1.87961e-06
3.80499e-07
-2.25642e-06
3.76945e-07
-2.62101e-06
3.64563e-07
-2.96754e-06
3.46636e-07
-3.29218e-06
3.24579e-07
-3.59194e-06
2.9983e-07
-3.86591e-06
2.73905e-07
-4.11398e-06
2.48114e-07
-4.33727e-06
2.23219e-07
-4.53698e-06
1.99751e-07
-4.71501e-06
1.77961e-07
-4.87295e-06
1.57979e-07
-5.01279e-06
1.39774e-07
-5.13602e-06
1.23257e-07
-5.24434e-06
1.08262e-07
-5.33893e-06
9.46262e-08
-5.42114e-06
8.21534e-08
-5.49179e-06
7.06825e-08
-5.55187e-06
6.00394e-08
-5.60194e-06
5.0092e-08
-5.64269e-06
4.07081e-08
-5.67449e-06
3.18048e-08
-5.69783e-06
2.32974e-08
-5.71297e-06
1.51396e-08
-5.72035e-06
7.33138e-09
-5.72048e-06
1.29121e-10
-5.71454e-06
-5.99697e-09
-5.70344e-06
-1.11089e-08
-5.68775e-06
-1.57384e-08
-5.66769e-06
-2.00805e-08
-5.64351e-06
-2.42288e-08
-5.6153e-06
-2.82344e-08
-5.58324e-06
-3.2113e-08
-5.54741e-06
-3.58704e-08
-5.50794e-06
-3.95171e-08
-5.46495e-06
-4.30499e-08
-5.41852e-06
-4.64707e-08
-5.36881e-06
-4.97766e-08
-5.31589e-06
-5.29647e-08
-5.25992e-06
-5.60347e-08
-5.20099e-06
-5.89798e-08
-5.13926e-06
-6.18044e-08
-5.0748e-06
-6.44991e-08
-5.00782e-06
-6.7072e-08
-4.93835e-06
-6.95079e-08
-4.86662e-06
-7.1823e-08
-4.79266e-06
-7.39977e-08
-4.71671e-06
-7.60509e-08
-4.63879e-06
-7.79614e-08
-4.55916e-06
-7.97547e-08
-4.47779e-06
-8.14021e-08
-4.39499e-06
-8.29347e-08
-4.3107e-06
-8.43212e-08
-4.22522e-06
-8.55967e-08
-4.1385e-06
-8.67268e-08
-4.05084e-06
-8.77522e-08
-3.96216e-06
-8.8635e-08
-3.8728e-06
-8.94214e-08
-3.78265e-06
-9.00699e-08
-3.69205e-06
-9.0633e-08
-3.60089e-06
-9.10666e-08
-3.5095e-06
-9.14265e-08
-3.41777e-06
-9.16617e-08
-3.3259e-06
-9.18294e-08
-3.23383e-06
-9.19047e-08
-3.14162e-06
-9.18855e-08
-3.04954e-06
-9.18365e-08
-2.95762e-06
-9.17604e-08
-2.86585e-06
-9.16855e-08
-2.77419e-06
-9.16473e-08
-2.68265e-06
-9.15569e-08
-2.59124e-06
-9.15001e-08
-2.50001e-06
-9.13169e-08
-2.40932e-06
-9.08109e-08
-2.31936e-06
-9.00262e-08
-2.23038e-06
-8.90423e-08
-2.14241e-06
-8.79856e-08
-2.05548e-06
-8.69384e-08
-1.96958e-06
-8.58551e-08
-1.88478e-06
-8.47599e-08
-1.80109e-06
-8.36178e-08
-1.71855e-06
-8.24592e-08
-1.63718e-06
-8.12607e-08
-1.55702e-06
-8.00504e-08
-1.47808e-06
-7.88091e-08
-1.40039e-06
-7.75574e-08
-1.32397e-06
-7.62643e-08
-1.24887e-06
-7.49411e-08
-1.1751e-06
-7.3599e-08
-1.10266e-06
-7.22596e-08
-1.03157e-06
-7.09098e-08
-9.61818e-07
-6.95576e-08
-8.93418e-07
-6.82017e-08
-8.26368e-07
-6.68448e-08
-7.60669e-07
-6.5492e-08
-6.96311e-07
-6.41404e-08
-6.33298e-07
-6.27988e-08
-5.71614e-07
-6.14578e-08
-5.11264e-07
-6.01335e-08
-4.52218e-07
-5.88151e-08
-3.94479e-07
-5.75245e-08
-3.38015e-07
-5.62422e-08
-2.82824e-07
-5.49927e-08
-2.28864e-07
-5.37583e-08
-1.76132e-07
-5.25527e-08
-1.2461e-07
-5.13532e-08
-7.42889e-08
-5.01908e-08
-2.52237e-08
-4.89388e-08
2.26763e-08
-4.77621e-08
6.98001e-08
-4.69471e-08
1.1604e-07
-4.60656e-08
1.6119e-07
-4.49833e-08
2.05181e-07
-4.38897e-08
2.48074e-07
-4.28041e-08
2.89917e-07
-4.17536e-08
3.30784e-07
-4.07238e-08
3.7066e-07
-3.97291e-08
4.09575e-07
-3.87516e-08
4.47506e-07
-3.78167e-08
4.84513e-07
-3.69033e-08
5.20591e-07
-3.60299e-08
5.55793e-07
-3.51746e-08
5.90105e-07
-3.43578e-08
6.23591e-07
-3.35606e-08
6.5628e-07
-3.27943e-08
6.88236e-07
-3.20469e-08
7.19476e-07
-3.13218e-08
7.50028e-07
-3.06155e-08
7.79902e-07
-2.99361e-08
8.09129e-07
-2.9278e-08
8.37725e-07
-2.86479e-08
8.65726e-07
-2.80404e-08
8.93146e-07
-2.74614e-08
9.20021e-07
-2.69057e-08
9.46367e-07
-2.63794e-08
9.72217e-07
-2.58755e-08
9.97587e-07
-2.53986e-08
1.02251e-06
-2.49412e-08
1.04699e-06
-2.45069e-08
1.07106e-06
-2.40861e-08
1.09471e-06
-2.36773e-08
1.11796e-06
-2.32674e-08
1.14079e-06
-2.2849e-08
1.16318e-06
-2.24025e-08
1.18507e-06
-2.19088e-08
1.20639e-06
-2.13322e-08
1.227e-06
-2.06333e-08
1.24673e-06
-1.97438e-08
1.26528e-06
-1.85699e-08
1.28223e-06
-1.69653e-08
1.29687e-06
-1.46613e-08
1.30809e-06
-1.12384e-08
1.31333e-06
-5.2537e-09
1.30725e-06
6.07139e-09
1.27832e-06
2.89267e-08
7.19518e-08
1.20637e-06
2.53004e-07
-2.71919e-07
4.90722e-07
-4.4974e-07
6.4288e-07
-4.04889e-07
7.3007e-07
-3.09656e-07
7.72122e-07
-2.1287e-07
7.80636e-07
-1.23312e-07
7.62316e-07
-4.12428e-08
7.22595e-07
3.32894e-08
6.64657e-07
9.99195e-08
5.88514e-07
1.56997e-07
4.9365e-07
2.00228e-07
3.78985e-07
2.25823e-07
2.39753e-07
2.36011e-07
6.54636e-08
2.44099e-07
-1.55373e-07
2.7139e-07
-4.28657e-07
3.28183e-07
-7.54713e-07
4.04426e-07
-1.12531e-06
4.8616e-07
-1.52399e-06
5.63858e-07
-1.92589e-06
6.31531e-07
-2.31765e-06
6.82087e-07
-2.69554e-06
7.10862e-07
-3.05423e-06
7.1844e-07
-3.38766e-06
7.07612e-07
-3.68919e-06
6.82042e-07
-3.9571e-06
6.4491e-07
-4.19184e-06
5.99303e-07
-4.39418e-06
5.49015e-07
-4.56686e-06
4.97249e-07
-4.71328e-06
4.4628e-07
-4.83693e-06
3.97533e-07
-4.94092e-06
3.52134e-07
-5.02832e-06
3.1059e-07
-5.10162e-06
2.73063e-07
-5.16312e-06
2.39434e-07
-5.21456e-06
2.09425e-07
-5.25749e-06
1.82676e-07
-5.29302e-06
1.58797e-07
-5.32219e-06
1.374e-07
-5.34569e-06
1.18126e-07
-5.36421e-06
1.00653e-07
-5.37823e-06
8.47029e-08
-5.38826e-06
7.00406e-08
-5.39464e-06
5.64764e-08
-5.39781e-06
4.38531e-08
-5.39806e-06
3.20487e-08
-5.39576e-06
2.0965e-08
-5.39118e-06
1.0548e-08
-5.38466e-06
7.74463e-10
-5.37612e-06
-8.42358e-09
-5.36481e-06
-1.7335e-08
-5.34985e-06
-2.60994e-08
-5.33098e-06
-3.46379e-08
-5.30815e-06
-4.2938e-08
-5.2814e-06
-5.10069e-08
-5.25081e-06
-5.88532e-08
-5.21648e-06
-6.6484e-08
-5.17849e-06
-7.39005e-08
-5.13694e-06
-8.11047e-08
-5.09194e-06
-8.80926e-08
-5.04359e-06
-9.48619e-08
-4.99201e-06
-1.01407e-07
-4.9373e-06
-1.07722e-07
-4.87958e-06
-1.13803e-07
-4.81897e-06
-1.19642e-07
-4.75559e-06
-1.25239e-07
-4.68955e-06
-1.30587e-07
-4.621e-06
-1.35686e-07
-4.55003e-06
-1.40527e-07
-4.47681e-06
-1.45113e-07
-4.40142e-06
-1.49439e-07
-4.32403e-06
-1.53509e-07
-4.24474e-06
-1.57316e-07
-4.1637e-06
-1.60868e-07
-4.08101e-06
-1.64159e-07
-3.99683e-06
-1.67196e-07
-3.91124e-06
-1.69974e-07
-3.8244e-06
-1.72504e-07
-3.73638e-06
-1.7478e-07
-3.64736e-06
-1.76817e-07
-3.55739e-06
-1.78608e-07
-3.46665e-06
-1.80174e-07
-3.37518e-06
-1.81507e-07
-3.28317e-06
-1.82631e-07
-3.19066e-06
-1.83539e-07
-3.09782e-06
-1.84255e-07
-3.00469e-06
-1.84768e-07
-2.91138e-06
-1.85099e-07
-2.81787e-06
-1.8523e-07
-2.72431e-06
-1.85206e-07
-2.63092e-06
-1.85038e-07
-2.53781e-06
-1.84758e-07
-2.44508e-06
-1.84383e-07
-2.35284e-06
-1.83892e-07
-2.26121e-06
-1.83267e-07
-2.17032e-06
-1.82468e-07
-2.08032e-06
-1.81438e-07
-1.99109e-06
-1.80132e-07
-1.90264e-06
-1.78564e-07
-1.81491e-06
-1.76811e-07
-1.728e-06
-1.74929e-07
-1.64196e-06
-1.72967e-07
-1.55688e-06
-1.70922e-07
-1.47279e-06
-1.68806e-07
-1.38975e-06
-1.66614e-07
-1.30778e-06
-1.64359e-07
-1.22693e-06
-1.62039e-07
-1.14722e-06
-1.59666e-07
-1.0687e-06
-1.57239e-07
-9.91384e-07
-1.54766e-07
-9.15295e-07
-1.52242e-07
-8.40436e-07
-1.4968e-07
-7.66819e-07
-1.4709e-07
-6.94461e-07
-1.44485e-07
-6.2337e-07
-1.41864e-07
-5.53553e-07
-1.39234e-07
-4.85012e-07
-1.36596e-07
-4.17752e-07
-1.33958e-07
-3.51769e-07
-1.3132e-07
-2.87065e-07
-1.28693e-07
-2.2363e-07
-1.26076e-07
-1.61462e-07
-1.23474e-07
-1.00546e-07
-1.20892e-07
-4.08729e-08
-1.18339e-07
1.75812e-08
-1.15828e-07
7.48403e-08
-1.1337e-07
1.30921e-07
-1.10947e-07
1.85813e-07
-1.08544e-07
2.39532e-07
-1.06171e-07
2.92089e-07
-1.03833e-07
3.43503e-07
-1.01543e-07
3.93913e-07
-9.92999e-08
4.4336e-07
-9.71523e-08
4.91588e-07
-9.5108e-08
5.38621e-07
-9.30202e-08
5.84571e-07
-9.08699e-08
6.29463e-07
-8.87356e-08
6.73334e-07
-8.6641e-08
7.16226e-07
-8.45984e-08
7.58174e-07
-8.26038e-08
7.9919e-07
-8.06621e-08
8.39286e-07
-7.87701e-08
8.78471e-07
-7.69366e-08
9.1677e-07
-7.51552e-08
9.54201e-07
-7.34304e-08
9.90786e-07
-7.17578e-08
1.02654e-06
-7.01402e-08
1.0615e-06
-6.85733e-08
1.0957e-06
-6.70545e-08
1.12918e-06
-6.55813e-08
1.16196e-06
-6.41501e-08
1.19407e-06
-6.27653e-08
1.22552e-06
-6.14267e-08
1.25635e-06
-6.01372e-08
1.28657e-06
-5.88945e-08
1.3162e-06
-5.77018e-08
1.34527e-06
-5.6557e-08
1.37381e-06
-5.54629e-08
1.40182e-06
-5.44167e-08
1.42935e-06
-5.34183e-08
1.45639e-06
-5.24632e-08
1.48298e-06
-5.15496e-08
1.50913e-06
-5.0671e-08
1.53485e-06
-4.98213e-08
1.56014e-06
-4.8986e-08
1.58501e-06
-4.81522e-08
1.60945e-06
-4.7297e-08
1.63342e-06
-4.63916e-08
1.65689e-06
-4.53935e-08
1.67979e-06
-4.42468e-08
1.70201e-06
-4.28684e-08
1.7234e-06
-4.11412e-08
1.7437e-06
-3.88883e-08
1.76256e-06
-3.58437e-08
1.77943e-06
-3.15424e-08
1.79342e-06
-2.52444e-08
1.8035e-06
-1.53408e-08
1.80869e-06
8.76881e-10
1.80718e-06
3.04308e-08
8.71922e-08
1.79196e-06
2.4865e-07
-5.20627e-07
3.49068e-07
-5.50185e-07
3.68032e-07
-4.23902e-07
3.59128e-07
-3.00794e-07
3.33641e-07
-1.87419e-07
2.91984e-07
-8.17239e-08
2.33601e-07
1.71173e-08
1.57452e-07
1.09358e-07
6.27812e-08
1.94582e-07
-5.22405e-08
2.71971e-07
-1.92464e-07
3.40462e-07
-3.67625e-07
4.0099e-07
-5.9116e-07
4.59571e-07
-8.72422e-07
5.25389e-07
-1.20477e-06
6.03762e-07
-1.56747e-06
6.90902e-07
-1.93926e-06
7.76232e-07
-2.3026e-06
8.49519e-07
-2.64303e-06
9.04298e-07
-2.94908e-06
9.37595e-07
-3.21554e-06
9.48545e-07
-3.44263e-06
9.37974e-07
-3.63284e-06
9.08658e-07
-3.78999e-06
8.64786e-07
-3.91869e-06
8.10747e-07
-4.02408e-06
7.50332e-07
-4.1117e-06
6.86924e-07
-4.1861e-06
6.23439e-07
-4.25095e-06
5.62091e-07
-4.30897e-06
5.04321e-07
-4.36229e-06
4.5084e-07
-4.41211e-06
4.01978e-07
-4.45925e-06
3.57713e-07
-4.50398e-06
3.17805e-07
-4.54645e-06
2.81884e-07
-4.58653e-06
2.49518e-07
-4.62415e-06
2.20266e-07
-4.65905e-06
1.93707e-07
-4.69113e-06
1.69454e-07
-4.72017e-06
1.47166e-07
-4.74609e-06
1.2655e-07
-4.76875e-06
1.07357e-07
-4.78811e-06
8.93768e-08
-4.80408e-06
7.24383e-08
-4.81664e-06
5.6396e-08
-4.82573e-06
4.11274e-08
-4.83132e-06
2.65262e-08
-4.83328e-06
1.25004e-08
-4.83149e-06
-1.04256e-09
-4.82571e-06
-1.42188e-08
-4.81593e-06
-2.71346e-08
-4.80225e-06
-3.98014e-08
-4.78472e-06
-5.21906e-08
-4.76338e-06
-6.42961e-08
-4.7383e-06
-7.61138e-08
-4.70953e-06
-8.76416e-08
-4.67717e-06
-9.88774e-08
-4.64128e-06
-1.09816e-07
-4.60196e-06
-1.20453e-07
-4.5593e-06
-1.3078e-07
-4.51341e-06
-1.40791e-07
-4.46438e-06
-1.50475e-07
-4.41231e-06
-1.59824e-07
-4.35733e-06
-1.68828e-07
-4.29953e-06
-1.77477e-07
-4.23905e-06
-1.85769e-07
-4.17598e-06
-1.93698e-07
-4.11046e-06
-2.01255e-07
-4.04259e-06
-2.08434e-07
-3.97252e-06
-2.15236e-07
-3.90035e-06
-2.21655e-07
-3.82622e-06
-2.27691e-07
-3.75025e-06
-2.33344e-07
-3.67256e-06
-2.38615e-07
-3.59327e-06
-2.43503e-07
-3.51252e-06
-2.48012e-07
-3.4304e-06
-2.52142e-07
-3.34705e-06
-2.55901e-07
-3.26258e-06
-2.5929e-07
-3.1771e-06
-2.62318e-07
-3.09073e-06
-2.6499e-07
-3.00358e-06
-2.67318e-07
-2.91576e-06
-2.69309e-07
-2.8274e-06
-2.70976e-07
-2.73859e-06
-2.72328e-07
-2.64945e-06
-2.73378e-07
-2.56008e-06
-2.7413e-07
-2.47054e-06
-2.74591e-07
-2.38087e-06
-2.74773e-07
-2.29121e-06
-2.74676e-07
-2.20176e-06
-2.74354e-07
-2.11265e-06
-2.73824e-07
-2.02394e-06
-2.73097e-07
-1.93571e-06
-2.72167e-07
-1.84805e-06
-2.71018e-07
-1.76101e-06
-2.69612e-07
-1.67463e-06
-2.6793e-07
-1.58889e-06
-2.65957e-07
-1.50381e-06
-2.63712e-07
-1.41942e-06
-2.61239e-07
-1.3358e-06
-2.58584e-07
-1.25299e-06
-2.5577e-07
-1.17109e-06
-2.52824e-07
-1.09012e-06
-2.49748e-07
-1.01014e-06
-2.46563e-07
-9.31179e-07
-2.4327e-07
-8.53287e-07
-2.39885e-07
-7.76481e-07
-2.3641e-07
-7.00801e-07
-2.32859e-07
-6.2626e-07
-2.29235e-07
-5.52882e-07
-2.25548e-07
-4.80675e-07
-2.21807e-07
-4.09659e-07
-2.18027e-07
-3.39844e-07
-2.14214e-07
-2.71242e-07
-2.10379e-07
-2.03859e-07
-2.06527e-07
-1.377e-07
-2.02665e-07
-7.27657e-08
-1.98802e-07
-9.05063e-09
-1.94944e-07
5.34469e-08
-1.91102e-07
1.14731e-07
-1.87274e-07
1.74806e-07
-1.83467e-07
2.3368e-07
-1.79687e-07
2.91358e-07
-1.75944e-07
3.4785e-07
-1.72248e-07
4.03151e-07
-1.68606e-07
4.57275e-07
-1.6501e-07
5.1024e-07
-1.61455e-07
5.62066e-07
-1.57947e-07
6.12766e-07
-1.54495e-07
6.62364e-07
-1.51111e-07
7.10897e-07
-1.47808e-07
7.58366e-07
-1.44591e-07
8.04725e-07
-1.4143e-07
8.50015e-07
-1.38268e-07
8.94283e-07
-1.35106e-07
9.37552e-07
-1.31982e-07
9.79845e-07
-1.28917e-07
1.02119e-06
-1.2592e-07
1.06162e-06
-1.22992e-07
1.10115e-06
-1.20136e-07
1.13978e-06
-1.17355e-07
1.17753e-06
-1.14652e-07
1.21443e-06
-1.12025e-07
1.25049e-06
-1.09475e-07
1.28574e-06
-1.07002e-07
1.32018e-06
-1.04607e-07
1.35386e-06
-1.02286e-07
1.3868e-06
-1.00036e-07
1.41904e-06
-9.78532e-08
1.4506e-06
-9.57377e-08
1.4815e-06
-9.36901e-08
1.51177e-06
-9.17135e-08
1.54143e-06
-8.98073e-08
1.57049e-06
-8.79729e-08
1.59899e-06
-8.62094e-08
1.62694e-06
-8.45186e-08
1.65436e-06
-8.28987e-08
1.68129e-06
-8.13503e-08
1.70774e-06
-7.98689e-08
1.73372e-06
-7.8452e-08
1.75926e-06
-7.70933e-08
1.78437e-06
-7.57863e-08
1.80907e-06
-7.45191e-08
1.83335e-06
-7.32756e-08
1.85724e-06
-7.20335e-08
1.8807e-06
-7.07648e-08
1.90374e-06
-6.94262e-08
1.9263e-06
-6.79613e-08
1.94834e-06
-6.629e-08
1.96977e-06
-6.42997e-08
1.99046e-06
-6.18267e-08
2.0102e-06
-5.86323e-08
2.02871e-06
-5.43542e-08
2.04556e-06
-4.83989e-08
2.06014e-06
-3.98352e-08
2.07166e-06
-2.68709e-08
2.07925e-06
-6.72723e-09
2.08339e-06
2.62831e-08
8.43632e-08
2.0862e-06
9.89921e-08
-6.1968e-07
7.0646e-08
-5.21877e-07
2.46971e-08
-3.78005e-07
-2.94351e-08
-2.46714e-07
-9.55098e-08
-1.21381e-07
-1.77005e-07
-2.92007e-10
-2.7675e-07
1.16841e-07
-3.97125e-07
2.29679e-07
-5.40405e-07
3.37855e-07
-7.09821e-07
4.4136e-07
-9.09986e-07
5.40636e-07
-1.14596e-06
6.36965e-07
-1.41833e-06
7.31954e-07
-1.71843e-06
8.25503e-07
-2.02864e-06
9.1399e-07
-2.32886e-06
9.91131e-07
-2.60329e-06
1.05067e-06
-2.84239e-06
1.08864e-06
-3.04198e-06
1.10388e-06
-3.20194e-06
1.09757e-06
-3.32582e-06
1.07242e-06
-3.41975e-06
1.03191e-06
-3.49084e-06
9.7975e-07
-3.54579e-06
9.19743e-07
-3.59033e-06
8.55282e-07
-3.62909e-06
7.8911e-07
-3.66564e-06
7.23469e-07
-3.70223e-06
6.60048e-07
-3.74012e-06
5.99976e-07
-3.77968e-06
5.43886e-07
-3.82085e-06
4.92007e-07
-3.86318e-06
4.44314e-07
-3.90608e-06
4.00607e-07
-3.94885e-06
3.60587e-07
-3.99088e-06
3.23899e-07
-4.03154e-06
2.90178e-07
-4.07035e-06
2.59062e-07
-4.10686e-06
2.30216e-07
-4.14076e-06
2.03334e-07
-4.17174e-06
1.78143e-07
-4.19962e-06
1.54407e-07
-4.22419e-06
1.31921e-07
-4.24535e-06
1.10511e-07
-4.26294e-06
9.00289e-08
-4.27692e-06
7.03487e-08
-4.28716e-06
5.13633e-08
-4.29364e-06
3.2981e-08
-4.29627e-06
1.51226e-08
-4.29505e-06
-2.28552e-09
-4.28997e-06
-1.93157e-08
-4.2811e-06
-3.6018e-08
-4.26851e-06
-5.24037e-08
-4.25225e-06
-6.8465e-08
-4.23237e-06
-8.41941e-08
-4.20892e-06
-9.95825e-08
-4.18196e-06
-1.14621e-07
-4.15155e-06
-1.293e-07
-4.11778e-06
-1.43609e-07
-4.08072e-06
-1.57535e-07
-4.04046e-06
-1.71067e-07
-3.99708e-06
-1.8419e-07
-3.9507e-06
-1.96892e-07
-3.90139e-06
-2.09161e-07
-3.84927e-06
-2.20981e-07
-3.79443e-06
-2.3234e-07
-3.73701e-06
-2.43232e-07
-3.67709e-06
-2.53647e-07
-3.6148e-06
-2.63577e-07
-3.55026e-06
-2.73016e-07
-3.48358e-06
-2.81956e-07
-3.41487e-06
-2.90397e-07
-3.34427e-06
-2.98337e-07
-3.27189e-06
-3.05773e-07
-3.19785e-06
-3.12707e-07
-3.12226e-06
-3.1914e-07
-3.04524e-06
-3.25075e-07
-2.96691e-06
-3.30515e-07
-2.88738e-06
-3.35465e-07
-2.80677e-06
-3.39933e-07
-2.72518e-06
-3.43925e-07
-2.64273e-06
-3.47451e-07
-2.55952e-06
-3.50522e-07
-2.47567e-06
-3.53149e-07
-2.39128e-06
-3.55347e-07
-2.30647e-06
-3.57125e-07
-2.22133e-06
-3.585e-07
-2.13597e-06
-3.5948e-07
-2.05045e-06
-3.60077e-07
-1.96481e-06
-3.60289e-07
-1.87921e-06
-3.60155e-07
-1.79379e-06
-3.59681e-07
-1.70869e-06
-3.5891e-07
-1.62396e-06
-3.57857e-07
-1.53968e-06
-3.5652e-07
-1.45591e-06
-3.54893e-07
-1.37268e-06
-3.52953e-07
-1.29002e-06
-3.50691e-07
-1.20795e-06
-3.48104e-07
-1.12651e-06
-3.4521e-07
-1.04575e-06
-3.42042e-07
-9.65718e-07
-3.38636e-07
-8.86479e-07
-3.35016e-07
-8.08086e-07
-3.3121e-07
-7.3059e-07
-3.2723e-07
-6.54032e-07
-3.23098e-07
-5.78451e-07
-3.18821e-07
-5.0388e-07
-3.14419e-07
-4.30351e-07
-3.09898e-07
-3.5789e-07
-3.05275e-07
-2.86519e-07
-3.00556e-07
-2.16256e-07
-2.95759e-07
-1.47117e-07
-2.9089e-07
-7.9118e-08
-2.85968e-07
-1.22703e-08
-2.81002e-07
5.34153e-08