/*--------------------------------*- C++ -*----------------------------------*\
| =========                 |                                                 |
| \\      /  F ield         | OpenFOAM: The Open Source CFD Toolbox           |
|  \\    /   O peration     | Version:  v2012                                 |
|   \\  /    A nd           | Website:  www.openfoam.com                      |
|    \\/     M anipulation  |                                                 |
\*---------------------------------------------------------------------------*/
FoamFile
{
    version     2.0;
    format      ascii;
    class       volVectorField;
    location    "200";
    object      U;
}
// * * * * * * * * * * * * * * * * * * * * * * * * * * * * * * * * * * * * * //

dimensions      [0 1 -1 0 0 0 0];


internalField   nonuniform List<vector> 
12225
(
(9.2745 -4.73371 0)
(13.1094 -1.71344 0)
(12.4777 -0.39522 0)
(11.2769 -0.0422347 0)
(10.6312 0.0141747 0)
(10.2979 -0.00075719 0)
(10.0743 -0.00418008 0)
(9.90541 -0.0199925 0)
(9.76706 -0.0493455 0)
(9.64586 -0.0472734 0)
(9.53262 -0.0372837 0)
(9.42642 -0.0325884 0)
(9.32917 -0.029996 0)
(9.24042 -0.0238786 0)
(9.16012 -0.00914754 0)
(9.09551 -0.000127702 0)
(9.03741 0.0067111 0)
(9.06323 0.0186054 0)
(10.2592 0.0928014 0)
(10.7814 0.199331 0)
(10.9593 0.245635 0)
(10.7469 0.229114 0)
(10.5875 0.172945 0)
(10.4523 0.115285 0)
(10.3293 0.0819396 0)
(10.2319 0.069285 0)
(10.159 0.0650868 0)
(10.0989 0.0585708 0)
(10.0466 0.0526385 0)
(10.0001 0.0500238 0)
(9.95766 0.0491874 0)
(9.91866 0.0479509 0)
(9.88176 0.0440123 0)
(9.84824 0.0385721 0)
(9.81377 0.0212889 0)
(9.78413 -0.00342918 0)
(9.87768 -0.245042 0)
(9.74285 0.00578064 0)
(10.1971 0.125715 0)
(10.3245 0.179324 0)
(10.3565 0.161502 0)
(10.331 0.119949 0)
(10.278 0.0911415 0)
(10.2268 0.075311 0)
(10.1836 0.0657822 0)
(10.1467 0.060422 0)
(10.1149 0.0570411 0)
(10.0864 0.0542491 0)
(10.06 0.0514502 0)
(10.0352 0.0482748 0)
(10.012 0.0444581 0)
(9.9909 0.0391106 0)
(9.96835 0.0274405 0)
(9.94203 0.00730153 0)
(9.83416 -0.443936 0)
(9.57654 -0.163163 0)
(9.91605 0.0336324 0)
(10.0933 0.134169 0)
(10.1893 0.145404 0)
(10.2168 0.120663 0)
(10.2055 0.0984406 0)
(10.184 0.0838586 0)
(10.1616 0.0740018 0)
(10.1402 0.0681391 0)
(10.1207 0.0643042 0)
(10.1026 0.0612474 0)
(10.0855 0.0584843 0)
(10.0691 0.0558525 0)
(10.0533 0.0528514 0)
(10.0378 0.048254 0)
(10.0198 0.0392869 0)
(9.99616 0.0263959 0)
(9.87825 -0.387481 0)
(9.61654 -0.196169 0)
(9.81625 -0.0187179 0)
(9.9614 0.0915429 0)
(10.0699 0.122107 0)
(10.122 0.113558 0)
(10.1359 0.0995243 0)
(10.1344 0.0882389 0)
(10.127 0.0797394 0)
(10.117 0.074013 0)
(10.1065 0.0700651 0)
(10.0958 0.067105 0)
(10.0851 0.064643 0)
(10.0743 0.0623783 0)
(10.0632 0.0597749 0)
(10.0511 0.0560857 0)
(10.0362 0.0501068 0)
(10.0156 0.0430228 0)
(9.91439 -0.288047 0)
(9.68304 -0.185203 0)
(9.78719 -0.0532644 0)
(9.88922 0.0509148 0)
(9.98805 0.0935718 0)
(10.0478 0.0991097 0)
(10.0756 0.0939176 0)
(10.087 0.0872426 0)
(10.0901 0.0812035 0)
(10.0887 0.0766326 0)
(10.0849 0.0733107 0)
(10.0799 0.0708371 0)
(10.0739 0.0688504 0)
(10.0671 0.0670903 0)
(10.0594 0.0651975 0)
(10.0501 0.0628529 0)
(10.0379 0.0598101 0)
(10.0209 0.057346 0)
(9.93763 -0.214049 0)
(9.74856 -0.167567 0)
(9.79246 -0.0752784 0)
(9.85613 0.0161267 0)
(9.93604 0.0643002 0)
(9.99299 0.0804694 0)
(10.0265 0.0834531 0)
(10.0454 0.0818971 0)
(10.0554 0.079034 0)
(10.0599 0.0763386 0)
(10.0612 0.0741846 0)
(10.0604 0.0725514 0)
(10.0581 0.071301 0)
(10.0545 0.0703152 0)
(10.0494 0.0694515 0)
(10.0425 0.0686987 0)
(10.0331 0.0682874 0)
(10.02 0.0694025 0)
(9.95263 -0.167345 0)
(9.79948 -0.149716 0)
(9.8118 -0.0847198 0)
(9.84964 -0.00633116 0)
(9.91151 0.041767 0)
(9.96124 0.0636934 0)
(9.99461 0.0722896 0)
(10.016 0.0748508 0)
(10.0293 0.0748654 0)
(10.0373 0.0740773 0)
(10.0416 0.0732021 0)
(10.0435 0.0725061 0)
(10.0436 0.0720622 0)
(10.042 0.0719003 0)
(10.0389 0.0720444 0)
(10.034 0.0726514 0)
(10.0269 0.0741207 0)
(10.0171 0.0774365 0)
(9.96406 -0.132101 0)
(9.84004 -0.132031 0)
(9.8334 -0.0877738 0)
(9.85311 -0.0214616 0)
(9.89936 0.0242404 0)
(9.94118 0.0492935 0)
(9.97233 0.0618363 0)
(9.99423 0.0676314 0)
(10.0091 0.0700459 0)
(10.0189 0.0709755 0)
(10.0252 0.071357 0)
(10.0289 0.0716413 0)
(10.0307 0.0720468 0)
(10.0307 0.0727172 0)
(10.0292 0.0737955 0)
(10.026 0.075543 0)
(10.0209 0.0784147 0)
(10.0138 0.0832296 0)
(9.97418 -0.100219 0)
(9.87758 -0.112436 0)
(9.85859 -0.0854573 0)
(9.86392 -0.0324731 0)
(9.89495 0.00873632 0)
(9.92757 0.0349764 0)
(9.95463 0.0503875 0)
(9.97535 0.0590214 0)
(9.99055 0.0637853 0)
(10.0014 0.0665298 0)
(10.009 0.068307 0)
(10.0142 0.0697126 0)
(10.0173 0.0710926 0)
(10.0189 0.0726999 0)
(10.0189 0.0747719 0)
(10.0174 0.0776246 0)
(10.0144 0.0817085 0)
(10.0101 0.0876591 0)
(9.98253 -0.0727252 0)
(9.91035 -0.092248 0)
(9.8851 -0.0783454 0)
(9.88006 -0.0387636 0)
(9.89754 -0.00359017 0)
(9.92056 0.0218843 0)
(9.94217 0.0388055 0)
(9.96028 0.0495638 0)
(9.9746 0.0563738 0)
(9.98558 0.0608535 0)
(9.99385 0.0640556 0)
(9.99994 0.0666482 0)
(10.0042 0.0690759 0)
(10.007 0.0716678 0)
(10.0085 0.0747267 0)
(10.0087 0.0785817 0)
(10.0078 0.0836274 0)
(10.0061 0.0903254 0)
(9.98894 -0.0502753 0)
(9.93734 -0.0724351 0)
(9.91075 -0.0675592 0)
(9.89921 -0.0401545 0)
(9.90574 -0.011889 0)
(9.91967 0.0111332 0)
(9.93514 0.0281092 0)
(9.94957 0.0400255 0)
(9.96198 0.0483127 0)
(9.97221 0.0542334 0)
(9.98046 0.0587221 0)
(9.987 0.0624503 0)
(9.99208 0.0658942 0)
(9.99591 0.0694323 0)
(9.99865 0.0733798 0)
(10.0005 0.0780573 0)
(10.0016 0.083771 0)
(10.0022 0.0908474 0)
(9.99348 -0.0329301 0)
(9.95821 -0.053874 0)
(9.9337 -0.0544052 0)
(9.91902 -0.0369745 0)
(9.91762 -0.0157151 0)
(9.92376 0.00364598 0)
(9.93315 0.0193197 0)
(9.94336 0.0312902 0)
(9.95312 0.0402739 0)
(9.96188 0.0471193 0)
(9.9695 0.0525685 0)
(9.976 0.0572105 0)
(9.98148 0.0615063 0)
(9.98607 0.0658212 0)
(9.98989 0.0704645 0)
(9.99311 0.0756986 0)
(9.99591 0.0817741 0)
(9.99855 0.0888708 0)
(9.99643 -0.0202269 0)
(9.97328 -0.037279 0)
(9.95263 -0.0401776 0)
(9.93734 -0.0300125 0)
(9.93095 -0.0151047 0)
(9.9311 -6.45669e-06 0)
(9.93514 0.0132931 0)
(9.94117 0.0242337 0)
(9.94797 0.0330061 0)
(9.95481 0.0400783 0)
(9.96135 0.0459655 0)
(9.96742 0.0511227 0)
(9.97297 0.0559429 0)
(9.97803 0.0607358 0)
(9.98267 0.0657673 0)
(9.98701 0.0712428 0)
(9.99119 0.0773346 0)
(9.99541 0.0841546 0)
(9.99816 -0.0113143 0)
(9.98331 -0.0230052 0)
(9.96684 -0.0259028 0)
(9.95246 -0.0202894 0)
(9.94348 -0.0105366 0)
(9.93958 0.000286113 0)
(9.93946 0.0105329 0)
(9.9419 0.0195237 0)
(9.9459 0.0271661 0)
(9.95077 0.0336622 0)
(9.95605 0.0393116 0)
(9.96145 0.0444307 0)
(9.96683 0.0492945 0)
(9.97213 0.0541464 0)
(9.97733 0.0591693 0)
(9.9825 0.0645178 0)
(9.9877 0.0702854 0)
(9.99306 0.0765453 0)
(9.99906 -0.00510896 0)
(9.98923 -0.0108598 0)
(9.97613 -0.0120618 0)
(9.96311 -0.00870177 0)
(9.95312 -0.00273586 0)
(9.94688 0.00418304 0)
(9.94402 0.0110566 0)
(9.94386 0.0174008 0)
(9.94571 0.0230893 0)
(9.94896 0.0281901 0)
(9.95315 0.0328614 0)
(9.95794 0.0372823 0)
(9.96311 0.0416213 0)
(9.96852 0.0460218 0)
(9.97411 0.0505936 0)
(9.97985 0.0554173 0)
(9.98577 0.0605394 0)
(9.9919 0.065981 0)
(9.99942 -0.000395917 0)
(9.99181 6.9124e-05 0)
(9.98042 0.00168357 0)
(9.96821 0.00437484 0)
(9.9579 0.00761881 0)
(9.9506 0.0110123 0)
(9.94641 0.0143254 0)
(9.94495 0.0174897 0)
(9.94572 0.0205141 0)
(9.94817 0.0234741 0)
(9.95187 0.0264456 0)
(9.95645 0.0295152 0)
(9.96165 0.0327438 0)
(9.96728 0.0361855 0)
(9.97325 0.0398665 0)
(9.97947 0.0438038 0)
(9.98592 0.0479911 0)
(9.99258 0.052416 0)
(9.99935 0.00405726 0)
(9.9911 0.011086 0)
(9.97897 0.0159854 0)
(9.96615 0.0185203 0)
(9.95551 0.019323 0)
(9.94816 0.0191736 0)
(9.94415 0.0186992 0)
(9.94305 0.0183033 0)
(9.94427 0.0182347 0)
(9.94727 0.0186034 0)
(9.95155 0.019459 0)
(9.95674 0.020793 0)
(9.96255 0.0225841 0)
(9.96881 0.0247877 0)
(9.97536 0.027363 0)
(9.98214 0.0302558 0)
(9.98908 0.0334236 0)
(9.99617 0.0368114 0)
(9.99882 0.00970461 0)
(9.98675 0.0239613 0)
(9.97122 0.0317034 0)
(9.95641 0.0330871 0)
(9.94556 0.0304315 0)
(9.93938 0.0260051 0)
(9.93728 0.0213276 0)
(9.93835 0.0172371 0)
(9.94172 0.0141081 0)
(9.94667 0.0120312 0)
(9.95267 0.0109563 0)
(9.95931 0.0107615 0)
(9.96635 0.011317 0)
(9.97361 0.0124876 0)
(9.981 0.0141588 0)
(9.98844 0.0162228 0)
(9.99592 0.0185956 0)
(10.0034 0.0211989 0)
(9.99757 0.0181879 0)
(9.97774 0.0403734 0)
(9.95664 0.0494421 0)
(9.93944 0.0472863 0)
(9.92959 0.0391698 0)
(9.92654 0.0293347 0)
(9.92841 0.0201125 0)
(9.93346 0.0125287 0)
(9.94039 0.00683884 0)
(9.94833 0.00294236 0)
(9.95674 0.000566688 0)
(9.96529 -0.000566036 0)
(9.97381 -0.00072169 0)
(9.98221 -0.000121079 0)
(9.99046 0.00105335 0)
(9.99853 0.00265633 0)
(10.0065 0.00457059 0)
(10.0142 0.00670861 0)
(9.99502 0.031796 0)
(9.96177 0.0620598 0)
(9.93371 0.0694282 0)
(9.91533 0.0599368 0)
(9.9093 0.0437197 0)
(9.91245 0.0273764 0)
(9.92077 0.013663 0)
(9.93151 0.00325249 0)
(9.94306 -0.00406519 0)
(9.95455 -0.00884543 0)
(9.9656 -0.0116569 0)
(9.97608 -0.0129967 0)
(9.98597 -0.0132558 0)
(9.99532 -0.0127265 0)
(10.0042 -0.0116371 0)
(10.0127 -0.0101506 0)
(10.0208 -0.00839584 0)
(10.0287 -0.00646189 0)
(9.99018 0.0534467 0)
(9.93561 0.0900881 0)
(9.90097 0.0905172 0)
(9.88513 0.0685955 0)
(9.88778 0.041609 0)
(9.90118 0.0184058 0)
(9.91849 0.00112147 0)
(9.93616 -0.0107243 0)
(9.9527 -0.0182943 0)
(9.96761 -0.0227486 0)
(9.98092 -0.0250327 0)
(9.99282 -0.0258306 0)
(10.0036 -0.0256284 0)
(10.0134 -0.0247407 0)
(10.0224 -0.0234042 0)
(10.0309 -0.0217706 0)
(10.0389 -0.0199588 0)
(10.0465 -0.0180504 0)
(9.9819 0.0862352 0)
(9.89548 0.124204 0)
(9.85816 0.109787 0)
(9.85208 0.0696291 0)
(9.87032 0.0301484 0)
(9.89839 0.00121983 0)
(9.92652 -0.017464 0)
(9.95126 -0.0286083 0)
(9.97208 -0.0346811 0)
(9.98939 -0.0375544 0)
(10.0039 -0.0384245 0)
(10.0162 -0.0380834 0)
(10.0269 -0.0369695 0)
(10.0364 -0.0354388 0)
(10.045 -0.0336433 0)
(10.0529 -0.0317262 0)
(10.0603 -0.029746 0)
(10.0672 -0.0277766 0)
(9.96925 0.13398 0)
(9.83822 0.163045 0)
(9.80792 0.122507 0)
(9.8231 0.0586712 0)
(9.86511 0.0071349 0)
(9.91136 -0.0242357 0)
(9.9503 -0.040828 0)
(9.98044 -0.0486132 0)
(10.0034 -0.0514456 0)
(10.021 -0.0516256 0)
(10.0349 -0.0504636 0)
(10.0462 -0.0485828 0)
(10.0557 -0.0464231 0)
(10.0639 -0.0441229 0)
(10.0712 -0.0418448 0)
(10.0779 -0.0395876 0)
(10.084 -0.0374206 0)
(10.0898 -0.0353922 0)
(9.9495 0.207134 0)
(9.76127 0.206988 0)
(9.75724 0.123406 0)
(9.81041 0.0318968 0)
(9.88381 -0.0280206 0)
(9.94872 -0.0561949 0)
(9.99523 -0.0662946 0)
(10.0266 -0.0680704 0)
(10.048 -0.0662653 0)
(10.0629 -0.0631746 0)
(10.0739 -0.059775 0)
(10.0823 -0.0564133 0)
(10.0891 -0.0532167 0)
(10.0949 -0.0502655 0)
(10.0999 -0.0475552 0)
(10.1045 -0.0450738 0)
(10.1087 -0.0427501 0)
(10.1127 -0.0406776 0)
(9.91094 0.322713 0)
(9.65922 0.254519 0)
(9.71885 0.107346 0)
(9.83327 -0.0120246 0)
(9.94171 -0.0728022 0)
(10.0199 -0.0903665 0)
(10.0661 -0.0895594 0)
(10.0917 -0.0835441 0)
(10.106 -0.0766163 0)
(10.1142 -0.0704673 0)
(10.1194 -0.0652298 0)
(10.1229 -0.0606999 0)
(10.1253 -0.0567284 0)
(10.1272 -0.0533641 0)
(10.1288 -0.0504323 0)
(10.1303 -0.0479388 0)
(10.1317 -0.0454849 0)
(10.1329 -0.0434088 0)
(9.84404 0.435107 0)
(9.53797 0.261008 0)
(9.72688 0.0590844 0)
(9.92366 -0.0732033 0)
(10.0584 -0.121691 0)
(10.1344 -0.120394 0)
(10.1663 -0.105535 0)
(10.1755 -0.0913046 0)
(10.1756 -0.0801217 0)
(10.1723 -0.0719929 0)
(10.1684 -0.0660563 0)
(10.1644 -0.0609264 0)
(10.1604 -0.0564764 0)
(10.1564 -0.052693 0)
(10.1529 -0.049728 0)
(10.1499 -0.0475632 0)
(10.1473 -0.0450792 0)
(10.1446 -0.042866 0)
(9.83598 0.319664 0)
(9.5502 0.0912367 0)
(9.91737 -0.0687606 0)
(10.1507 -0.160178 0)
(10.2634 -0.172246 0)
(10.3031 -0.142911 0)
(10.2973 -0.112376 0)
(10.275 -0.0911573 0)
(10.2512 -0.0773033 0)
(10.2302 -0.0685789 0)
(10.213 -0.063195 0)
(10.1984 -0.0584435 0)
(10.1848 -0.05354 0)
(10.1718 -0.0485628 0)
(10.16 -0.0445339 0)
(10.1499 -0.0422193 0)
(10.1411 -0.0392543 0)
(10.1324 -0.0375333 0)
(10.2049 -0.063379 0)
(10.4095 -0.191717 0)
(10.7164 -0.282567 0)
(10.6879 -0.282316 0)
(10.6191 -0.230158 0)
(10.5415 -0.163818 0)
(10.4535 -0.117702 0)
(10.3747 -0.0937551 0)
(10.3132 -0.0806934 0)
(10.2652 -0.0699147 0)
(10.2259 -0.0607389 0)
(10.1923 -0.0562062 0)
(10.1625 -0.0546782 0)
(10.1346 -0.0536749 0)
(10.1092 -0.0508192 0)
(10.0856 -0.045766 0)
(10.0645 -0.0452987 0)
(10.0488 -0.0435804 0)
(9.41631 4.45107 0)
(12.7294 2.07611 0)
(12.5649 0.621218 0)
(11.5691 0.127653 0)
(10.931 0.00340414 0)
(10.5861 -0.00227063 0)
(10.3626 0.0136976 0)
(10.2002 0.0311597 0)
(10.0772 0.0450129 0)
(9.97517 0.0441526 0)
(9.88206 0.034702 0)
(9.79635 0.0331318 0)
(9.71998 0.0350745 0)
(9.65506 0.0319132 0)
(9.59707 0.0258765 0)
(9.54285 -0.000985146 0)
(9.49444 -0.000521991 0)
(9.44716 0.00885638 0)
(-0.0221836 0.08978 0)
(0.146379 -0.190849 0)
(0.339542 -0.312174 0)
(0.542209 -0.318138 0)
(0.720544 -0.272524 0)
(0.849823 -0.20976 0)
(0.923445 -0.143192 -8.73586e-20)
(0.949962 -0.0774468 8.81918e-20)
(0.92365 -0.0134483 0)
(0.857433 0.0423247 9.4393e-20)
(0.765026 0.0814412 0)
(0.661649 0.0977577 0)
(0.565757 0.090844 0)
(0.49304 0.0670229 -1.50527e-19)
(0.442967 0.0358343 0)
(0.397129 0.00691587 0)
(0.33318 -0.0112294 2.00926e-19)
(0.236613 -0.0068827 0)
(0.103323 0.0422785 0)
(-0.0901289 0.131202 0)
(-0.355482 0.198227 -1.54834e-19)
(-0.652972 0.24301 0)
(-0.977054 0.272159 -7.45757e-20)
(-1.31266 0.300803 0)
(-1.65066 0.325147 0)
(-1.98766 0.334956 -4.17169e-20)
(-2.31541 0.33256 0)
(-2.62734 0.321968 3.5084e-20)
(-2.92004 0.30472 0)
(-3.1908 0.283338 -3.18932e-20)
(-3.43869 0.259957 0)
(-3.66366 0.236068 0)
(-3.86648 0.212634 0)
(-4.04836 0.190313 0)
(-4.2108 0.169437 0)
(-4.35538 0.150202 2.8631e-20)
(-4.48369 0.132607 0)
(-4.59725 0.116588 -5.62749e-20)
(-4.69741 0.101996 0)
(-4.7854 0.0886876 5.53896e-20)
(-4.86228 0.0764806 0)
(-4.92895 0.0652395 0)
(-4.98618 0.0548167 -5.40578e-20)
(-5.03462 0.0451231 0)
(-5.07479 0.036074 -5.31062e-20)
(-5.10711 0.0276481 5.26033e-20)
(-5.13193 0.0198397 0)
(-5.14965 0.01273 5.15356e-20)
(-5.16063 0.00653305 5.09689e-20)
(-5.16507 0.00147542 0)
(-5.16376 -0.00229934 0)
(-5.15831 -0.00531438 0)
(-5.14871 -0.00809183 0)
(-5.13535 -0.010554 0)
(-5.11839 -0.0128317 -4.65791e-20)
(-5.09797 -0.015008 0)
(-5.0742 -0.0171084 4.47713e-20)
(-5.04718 -0.0190898 0)
(-5.01701 -0.020982 0)
(-4.98377 -0.0227728 -4.17314e-20)
(-4.94756 -0.0244758 0)
(-4.90848 -0.0260847 3.94859e-20)
(-4.86661 -0.0276078 0)
(-4.82206 -0.0290409 0)
(-4.77491 -0.0303884 0)
(-4.72528 -0.0316467 -3.44689e-20)
(-4.67325 -0.0328177 0)
(-4.61893 -0.0339043 0)
(-4.5624 -0.034907 -3.02396e-20)
(-4.50379 -0.0358321 0)
(-4.44318 -0.0366708 -2.7193e-20)
(-4.38068 -0.0374354 0)
(-4.31639 -0.0381161 0)
(-4.25041 -0.0387266 0)
(-4.18285 -0.0392519 2.05334e-20)
(-4.11378 -0.039711 0)
(-4.04332 -0.0400852 0)
(-3.97155 -0.0403981 1.50121e-20)
(-3.89856 -0.0406279 1.30629e-20)
(-3.82445 -0.0408043 0)
(-3.7493 -0.0409023 8.99075e-21)
(-3.6732 -0.0409591 0)
(-3.59625 -0.0409467 9.33898e-21)
(-3.51854 -0.0409089 0)
(-3.44016 -0.0408104 1.53449e-22)
(-3.36122 -0.0406929 0)
(-3.28181 -0.0405084 9.6308e-21)
(-3.20191 -0.0402987 0)
(-3.12153 -0.0400529 0)
(-3.04067 -0.0397272 0)
(-2.95957 -0.0397099 -3.14127e-20)
(-2.87846 -0.0388597 0)
(-2.79742 -0.0391828 4.36269e-20)
(-2.71601 -0.0390516 0)
(-2.63483 -0.0390963 -5.6916e-20)
(-2.55314 -0.0397946 -6.39892e-20)
(-2.47159 -0.0404324 -7.15647e-20)
(-2.38943 -0.0419774 0)
(-2.30771 -0.0422035 0)
(-2.22609 -0.042823 0)
(-2.14516 -0.0422228 0)
(-2.06481 -0.0418101 0)
(-1.98518 -0.0411548 0)
(-1.90626 -0.040578 0)
(-1.82808 -0.0399653 0)
(-1.75068 -0.039377 1.56779e-19)
(-1.6741 -0.0387783 1.68946e-19)
(-1.59837 -0.0382058 0)
(-1.52353 -0.0376404 0)
(-1.4496 -0.0371131 0)
(-1.37661 -0.0365944 2.25841e-19)
(-1.30459 -0.0360634 0)
(-1.23359 -0.0354768 0)
(-1.16364 -0.0348949 0)
(-1.09475 -0.0343251 0)
(-1.02694 -0.0337746 -3.22911e-19)
(-0.960216 -0.0332345 0)
(-0.894594 -0.0327165 0)
(-0.830086 -0.0322166 4.03009e-19)
(-0.766697 -0.0317435 -4.34982e-19)
(-0.704432 -0.0312991 0)
(-0.643293 -0.0308903 -5.09425e-19)
(-0.583282 -0.030529 0)
(-0.524401 -0.0302277 6.02134e-19)
(-0.466645 -0.0300152 0)
(-0.41001 -0.0299164 0)
(-0.354478 -0.0299635 0)
(-0.300043 -0.0301085 0)
(-0.246681 -0.0303358 0)
(-0.194385 -0.03064 -2.18867e-18)
(-0.143115 -0.0310445 -2.47334e-18)
(-0.0929131 -0.0315403 0)
(-0.043993 -0.0320297 0)
(0.00386977 -0.0317011 0)
(0.0513185 -0.0301531 3.23243e-18)
(0.0981279 -0.0282358 0)
(0.144084 -0.0264839 0)
(0.189022 -0.0249232 0)
(0.232976 -0.0235358 2.25905e-18)
(0.276014 -0.0222805 -2.11433e-18)
(0.318181 -0.0211451 0)
(0.359457 -0.0200988 0)
(0.399834 -0.0191497 -1.79211e-18)
(0.439309 -0.0182737 -1.7112e-18)
(0.477925 -0.0174751 0)
(0.515703 -0.0167305 0)
(0.552669 -0.0160432 1.51904e-18)
(0.588832 -0.0154001 -1.46789e-18)
(0.624245 -0.0148003 0)
(0.658962 -0.014234 0)
(0.693035 -0.0136977 -1.34081e-18)
(0.72648 -0.0131861 0)
(0.759304 -0.0127021 0)
(0.791518 -0.0122453 -1.24207e-18)
(0.823145 -0.0118115 0)
(0.854206 -0.0114009 -1.18749e-18)
(0.884727 -0.0110152 0)
(0.914729 -0.0106526 0)
(0.944239 -0.0103156 0)
(0.973275 -0.00999834 1.09761e-18)
(1.00187 -0.00969465 0)
(1.03004 -0.00941305 0)
(1.0578 -0.00915046 0)
(1.08519 -0.00890004 0)
(1.1122 -0.0086601 0)
(1.13885 -0.00842764 0)
(1.16514 -0.00820262 9.80884e-19)
(1.19103 -0.00797633 9.6725e-19)
(1.2165 -0.00773527 0)
(1.24146 -0.00747126 0)
(1.26583 -0.00717543 0)
(1.28942 -0.0068328 -9.199e-19)
(1.31201 -0.00641183 0)
(1.33318 -0.00586634 1.80356e-18)
(1.35247 -0.00511279 -1.78987e-18)
(1.36854 -0.00405054 -1.78064e-18)
(1.38134 -0.00230381 1.77912e-18)
(1.38208 0.00105392 -1.78318e-18)
(1.37941 0.00779051 1.79703e-18)
(1.30052 0.0195295 0)
(0.102542 -0.295248 0)
(0.340917 -0.703721 0)
(0.519868 -0.715035 1.57365e-19)
(0.615045 -0.571643 0)
(0.663935 -0.404898 -1.12344e-19)
(0.682048 -0.246888 -1.09743e-19)
(0.673449 -0.102488 -5.72779e-20)
(0.640559 0.027837 -5.72426e-20)
(0.59518 0.139601 0)
(0.532717 0.226799 -6.23307e-20)
(0.452102 0.280849 0)
(0.353271 0.29259 0)
(0.231903 0.260699 1.77662e-19)
(0.0776156 0.215609 1.0151e-19)
(-0.114229 0.218541 -1.83777e-19)
(-0.348912 0.291353 -1.41589e-19)
(-0.635675 0.406366 -5.67158e-20)
(-0.967122 0.536605 0)
(-1.32103 0.663953 0)
(-1.67669 0.772494 0)
(-2.02814 0.851182 -2.89583e-20)
(-2.36778 0.898896 0)
(-2.6914 0.917172 7.03817e-20)
(-2.99121 0.908516 0)
(-3.26383 0.878138 0)
(-3.50718 0.831152 2.03928e-20)
(-3.72052 0.772886 0)
(-3.90463 0.708781 -2.03038e-20)
(-4.0621 0.642583 -4.27873e-20)
(-4.19622 0.576808 2.06817e-20)
(-4.30987 0.513648 0)
(-4.40593 0.454668 0)
(-4.48706 0.4006 0)
(-4.55558 0.351732 -4.50273e-20)
(-4.6135 0.307957 -4.54825e-20)
(-4.66246 0.268996 -2.2543e-20)
(-4.70378 0.234402 0)
(-4.73854 0.203708 4.58994e-20)
(-4.76761 0.176404 0)
(-4.79168 0.152034 -4.63666e-20)
(-4.81132 0.130147 0)
(-4.827 0.110378 0)
(-4.83912 0.0923744 4.64505e-20)
(-4.84807 0.0758718 0)
(-4.85417 0.0606247 1.39023e-19)
(-4.85773 0.0464657 -4.58838e-20)
(-4.85905 0.0332398 0)
(-4.85837 0.0208938 -4.51799e-20)
(-4.85588 0.00946859 -4.47221e-20)
(-4.85183 -0.000852107 0)
(-4.84581 -0.0100722 0)
(-4.83641 -0.0184555 0)
(-4.82374 -0.0262715 0)
(-4.80765 -0.0336223 0)
(-4.78819 -0.040601 4.05237e-20)
(-4.76541 -0.047233 7.97863e-20)
(-4.73938 -0.0535553 -3.88071e-20)
(-4.71019 -0.0595713 0)
(-4.67793 -0.0653046 7.43322e-20)
(-4.64267 -0.0707511 -3.64103e-20)
(-4.6045 -0.0759266 0)
(-4.56351 -0.0808259 -3.38871e-20)
(-4.51979 -0.0854596 0)
(-4.47343 -0.0898243 0)
(-4.42452 -0.0939285 -6.15235e-20)
(-4.37317 -0.0977763 2.93263e-20)
(-4.31945 -0.10137 -5.67048e-20)
(-4.26348 -0.104719 5.41914e-20)
(-4.20533 -0.107822 2.55469e-20)
(-4.14512 -0.110688 0)
(-4.08294 -0.113316 2.28588e-20)
(-4.0189 -0.115723 0)
(-3.95308 -0.1179 0)
(-3.88559 -0.119871 0)
(-3.81652 -0.121619 1.76308e-20)
(-3.74596 -0.123172 0)
(-3.67401 -0.124512 2.85132e-20)
(-3.60075 -0.12567 -3.76772e-20)
(-3.52627 -0.126625 -1.07255e-20)
(-3.45065 -0.127416 0)
(-3.37399 -0.128015 -7.3255e-21)
(-3.29637 -0.128471 0)
(-3.21789 -0.12875 -7.52763e-21)
(-3.13862 -0.128909 0)
(-3.05868 -0.128905 -6.18822e-23)
(-2.97817 -0.128794 -6.38485e-21)
(-2.89716 -0.128516 -7.77012e-21)
(-2.81566 -0.128124 0)
(-2.73364 -0.127578 0)
(-2.65115 -0.126935 0)
(-2.56849 -0.126256 2.47573e-20)
(-2.48583 -0.125568 0)
(-2.40304 -0.124879 -3.39924e-20)
(-2.32059 -0.124058 0)
(-2.23802 -0.123241 1.30036e-19)
(-2.15597 -0.12216 4.88878e-20)
(-2.07402 -0.120926 5.42488e-20)
(-1.9928 -0.119299 0)
(-1.91184 -0.117551 0)
(-1.83141 -0.115645 0)
(-1.75134 -0.113751 0)
(-1.67172 -0.111861 0)
(-1.59262 -0.109967 1.79306e-19)
(-1.51412 -0.108068 1.93014e-19)
(-1.43627 -0.106135 0)
(-1.35911 -0.104192 -1.11827e-19)
(-1.2827 -0.102216 -1.196e-19)
(-1.20708 -0.100234 0)
(-1.13227 -0.0982252 -2.70958e-19)
(-1.05832 -0.0962141 0)
(-0.985262 -0.0941818 1.52979e-19)
(-0.913132 -0.0921524 0)
(-0.841942 -0.0901175 0)
(-0.771703 -0.0881044 -3.69618e-19)
(-0.702441 -0.0860991 0)
(-0.634172 -0.084117 2.09291e-19)
(-0.566911 -0.0821485 0)
(-0.500671 -0.0802084 0)
(-0.435461 -0.0782924 2.48902e-19)
(-0.37129 -0.0764101 2.66074e-19)
(-0.308163 -0.0745693 0)
(-0.246082 -0.0727754 -2.98839e-19)
(-0.185046 -0.0710209 0)
(-0.125056 -0.0693095 3.38499e-19)
(-0.0661161 -0.0676503 7.23127e-19)
(-0.0082216 -0.0660303 0)
(0.0487019 -0.0644392 0)
(0.104677 -0.0628833 0)
(0.159675 -0.0613917 0)
(0.21368 -0.0599647 7.24885e-19)
(0.266696 -0.0586205 2.1385e-18)
(0.318736 -0.0573666 0)
(0.369868 -0.0562209 0)
(0.420218 -0.0549682 0)
(0.469642 -0.0533762 -6.74781e-19)
(0.517926 -0.0515886 0)
(0.56519 -0.0498156 0)
(0.611524 -0.0481123 1.30093e-18)
(0.656974 -0.0464977 6.42712e-19)
(0.701585 -0.0449597 6.37742e-19)
(0.745385 -0.0434979 0)
(0.788369 -0.0421004 0)
(0.830534 -0.0407767 6.19576e-19)
(0.871883 -0.0395144 -6.12758e-19)
(0.912438 -0.0383166 0)
(0.952215 -0.0371705 0)
(0.991233 -0.0360782 -5.98865e-19)
(1.02951 -0.0350308 1.78159e-18)
(1.06707 -0.0340271 0)
(1.10398 -0.0330613 0)
(1.14027 -0.0321289 5.81313e-19)
(1.17595 -0.0312312 0)
(1.21105 -0.0303668 1.14592e-18)
(1.24557 -0.0295398 -5.6878e-19)
(1.27954 -0.0287456 0)
(1.31297 -0.027988 5.62339e-19)
(1.3459 -0.0272632 1.11695e-18)
(1.37833 -0.0265729 0)
(1.41029 -0.0259132 0)
(1.4418 -0.0252868 -5.48783e-19)
(1.47288 -0.0246842 0)
(1.50355 -0.0241131 1.08413e-18)
(1.53382 -0.0235638 0)
(1.5637 -0.0230355 0)
(1.5932 -0.0225187 0)
(1.62233 -0.0220111 0)
(1.65107 -0.0214988 -5.27122e-19)
(1.67942 -0.0209744 -5.24229e-19)
(1.70734 -0.0204137 0)
(1.73476 -0.019801 0)
(1.7616 -0.0191002 0)
(1.78772 -0.0182713 5.13741e-19)
(1.81292 -0.0172396 0)
(1.83687 -0.0159122 -1.01975e-18)
(1.85916 -0.0140964 1.01738e-18)
(1.87888 -0.0115443 1.01667e-18)
(1.89557 -0.00747787 1.01782e-18)
(1.9057 -0.000664861 1.02146e-18)
(1.91762 0.0122706 1.01453e-18)
(1.89817 0.0360305 0)
(0.11856 -0.889734 0)
(0.263422 -1.06533 0)
(0.306999 -0.824426 -1.28335e-19)
(0.304136 -0.578455 -1.10227e-19)
(0.28474 -0.365383 1.02639e-19)
(0.251387 -0.177713 1.02961e-19)
(0.202717 -0.00960502 -5.53923e-22)
(0.138136 0.140989 0)
(0.0574701 0.274227 0)
(-0.0405661 0.386908 0)
(-0.159876 0.472731 0)
(-0.308787 0.533094 0)
(-0.500605 0.587427 -2.66104e-19)
(-0.744677 0.664722 0)
(-1.03503 0.779974 6.62927e-20)
(-1.35508 0.921937 5.74252e-20)
(-1.68676 1.0669 0)
(-2.01322 1.1956 0)
(-2.31962 1.29643 0)
(-2.59519 1.36301 0)
(-2.8359 1.39134 3.57069e-20)
(-3.04225 1.38222 0)
(-3.21516 1.34113 -3.31365e-20)
(-3.35827 1.27518 0)
(-3.47611 1.19122 0)
(-3.57309 1.09591 0)
(-3.65397 0.995157 -7.00196e-20)
(-3.72285 0.894125 0)
(-3.78309 0.7967 3.38795e-20)
(-3.83726 0.705368 -7.20015e-20)
(-3.88716 0.621532 0)
(-3.93398 0.545806 0)
(-3.97838 0.478157 0)
(-4.02069 0.418154 3.71445e-20)
(-4.06098 0.365119 3.76893e-20)
(-4.09922 0.318276 0)
(-4.13525 0.276831 0)
(-4.16893 0.240034 -7.85459e-20)
(-4.20011 0.2072 -7.88541e-20)
(-4.22863 0.177741 7.90055e-20)
(-4.2544 0.151147 0)
(-4.27731 0.127005 0)
(-4.29732 0.104967 0)
(-4.31439 0.0847565 0)
(-4.32847 0.0661404 -7.73363e-20)
(-4.33954 0.0489287 -7.7177e-20)
(-4.34756 0.0329461 7.65066e-20)
(-4.35248 0.0180245 0)
(-4.35415 0.00394695 0)
(-4.35245 -0.00956643 0)
(-4.34728 -0.0227159 0)
(-4.33871 -0.0354493 -7.13772e-20)
(-4.32682 -0.0476772 0)
(-4.31165 -0.0593841 0)
(-4.29324 -0.0705817 -6.7368e-20)
(-4.27165 -0.0812836 -6.54476e-20)
(-4.24695 -0.091507 0)
(-4.2192 -0.101259 1.25667e-19)
(-4.18849 -0.110551 -6.07198e-20)
(-4.15489 -0.119389 5.90313e-20)
(-4.11848 -0.12778 0)
(-4.07933 -0.135727 0)
(-4.03755 -0.143237 0)
(-3.9932 -0.150311 0)
(-3.94639 -0.156955 4.9787e-20)
(-3.89719 -0.163176 9.66474e-20)
(-3.84571 -0.168981 4.57298e-20)
(-3.79204 -0.174376 -4.3626e-20)
(-3.73625 -0.179368 0)
(-3.67846 -0.183967 7.96757e-20)
(-3.61876 -0.188177 7.51893e-20)
(-3.55724 -0.192013 7.06075e-20)
(-3.49399 -0.195477 -6.59305e-20)
(-3.42912 -0.198585 0)
(-3.36271 -0.201339 -8.38467e-20)
(-3.29485 -0.203753 0)
(-3.22564 -0.205828 2.37406e-20)
(-3.15515 -0.207584 1.99576e-20)
(-3.08347 -0.20902 0)
(-3.0107 -0.21016 0)
(-2.9369 -0.211004 2.50932e-20)
(-2.86218 -0.211581 0)
(-2.78661 -0.211888 1.39045e-20)
(-2.7103 -0.21196 0)
(-2.63333 -0.211789 -2.30041e-21)
(-2.5558 -0.211402 8.58861e-21)
(-2.4778 -0.21078 0)
(-2.39934 -0.209934 0)
(-2.32041 -0.20886 0)
(-2.24107 -0.207599 2.87162e-20)
(-2.16157 -0.206235 0)
(-2.0821 -0.204776 4.20094e-20)
(-2.0027 -0.203285 0)
(-1.92347 -0.201689 0)
(-1.84438 -0.200013 -1.2739e-19)
(-1.76559 -0.198188 0)
(-1.68702 -0.196186 -7.78904e-20)
(-1.60881 -0.193937 0)
(-1.53087 -0.191432 -9.35035e-20)
(-1.45326 -0.188713 0)
(-1.37598 -0.185831 0)
(-1.29911 -0.182843 0)
(-1.2227 -0.179782 -3.83287e-19)
(-1.14684 -0.176657 -1.37677e-19)
(-1.07158 -0.173483 0)
(-0.99696 -0.17026 0)
(-0.923035 -0.167001 0)
(-0.849841 -0.163707 0)
(-0.777416 -0.160388 1.87175e-19)
(-0.705794 -0.157047 -3.93501e-19)
(-0.635006 -0.15369 -2.09254e-19)
(-0.565077 -0.150321 4.39158e-19)
(-0.496026 -0.146949 4.63183e-19)
(-0.427875 -0.143586 2.45314e-19)
(-0.360646 -0.140238 0)
(-0.294355 -0.136914 5.40622e-19)
(-0.229017 -0.133618 0)
(-0.164646 -0.130352 -5.9727e-19)
(-0.10125 -0.127119 -3.14922e-19)
(-0.0388431 -0.123928 0)
(0.0225768 -0.120772 6.77559e-19)
(0.083026 -0.117654 3.42168e-19)
(0.142499 -0.114585 0)
(0.200989 -0.111575 3.42726e-19)
(0.258494 -0.108629 -1.03632e-18)
(0.315008 -0.105749 0)
(0.370528 -0.102916 0)
(0.425054 -0.100124 0)
(0.478598 -0.0973836 0)
(0.53117 -0.0947006 -6.998e-19)
(0.582779 -0.0920867 -7.0292e-19)
(0.633438 -0.0895534 0)
(0.683176 -0.0871074 0)
(0.732014 -0.0847552 0)
(0.779907 -0.0824737 0)
(0.82683 -0.0801989 0)
(0.872836 -0.0779417 0)
(0.917968 -0.0757288 -7.09406e-19)
(0.962254 -0.073574 -1.20721e-21)
(1.00573 -0.0714785 0)
(1.04841 -0.0694462 0)
(1.0903 -0.0674795 -7.10382e-19)
(1.13139 -0.0655838 0)
(1.17171 -0.0637553 7.12044e-19)
(1.21126 -0.0619937 7.11337e-19)
(1.25006 -0.0602949 0)
(1.28813 -0.0586586 0)
(1.32548 -0.0570797 -7.12593e-19)
(1.36216 -0.0555546 -1.42364e-18)
(1.3982 -0.0540788 0)
(1.43363 -0.0526494 0)
(1.46847 -0.0512694 0)
(1.50274 -0.0499385 -7.12096e-19)
(1.53645 -0.0486587 7.11831e-19)
(1.56963 -0.0474284 0)
(1.60229 -0.0462499 1.42109e-18)
(1.63446 -0.0451182 7.0956e-19)
(1.66616 -0.0440367 -1.41937e-18)
(1.6974 -0.0429986 0)
(1.72821 -0.042007 0)
(1.75861 -0.0410558 -1.41595e-18)
(1.7886 -0.040147 -7.07785e-19)
(1.81822 -0.0392692 0)
(1.84746 -0.0384232 0)
(1.87634 -0.037594 0)
(1.90486 -0.0367784 0)
(1.93303 -0.0359545 -1.40623e-18)
(1.96082 -0.0351103 0)
(1.98821 -0.0342148 0)
(2.01516 -0.0332406 0)
(2.04158 -0.0321331 0)
(2.06736 -0.0308296 0)
(2.09235 -0.0292244 0)
(2.11626 -0.0271734 -1.39665e-18)
(2.13879 -0.0244241 0)
(2.15925 -0.0205796 0)
(2.17744 -0.0148378 -2.81293e-18)
(2.19051 -0.00594084 1.41465e-18)
(2.20474 0.00886158 -1.41457e-18)
(2.19934 0.0361924 1.40409e-18)
(0.0290041 -1.18074 0)
(0.0586827 -1.02583 3.69454e-19)
(0.0197764 -0.740753 0)
(-0.0274287 -0.497226 1.12079e-19)
(-0.0857825 -0.270858 0)
(-0.156875 -0.0576265 0)
(-0.243466 0.142769 -8.22649e-20)
(-0.347845 0.329513 0)
(-0.471936 0.501987 0)
(-0.618221 0.660335 0)
(-0.7905 0.806787 0)
(-0.993918 0.947485 0)
(-1.23067 1.09067 2.04605e-19)
(-1.4942 1.23942 9.29064e-20)
(-1.76933 1.38692 -8.43831e-20)
(-2.03779 1.51966 0)
(-2.28462 1.62434 0)
(-2.50073 1.69249 0)
(-2.68215 1.7213 0)
(-2.82785 1.71254 0)
(-2.94113 1.67033 6.11298e-20)
(-3.02778 1.60005 5.97769e-20)
(-3.09365 1.5087 -5.88908e-20)
(-3.14495 1.40384 5.85695e-20)
(-3.1868 1.29174 0)
(-3.22334 1.17767 0)
(-3.25779 1.06582 5.67723e-20)
(-3.29226 0.959292 0)
(-3.32784 0.860021 0)
(-3.36493 0.768904 5.94862e-20)
(-3.40349 0.686115 6.21549e-20)
(-3.44313 0.611389 6.28302e-20)
(-3.48331 0.544174 0)
(-3.52344 0.483775 0)
(-3.56293 0.429437 -6.45274e-20)
(-3.60126 0.380424 0)
(-3.63797 0.336041 0)
(-3.67268 0.295666 6.47198e-20)
(-3.70509 0.258752 -6.6313e-20)
(-3.73497 0.224826 6.62837e-20)
(-3.76211 0.193487 0)
(-3.78637 0.164391 0)
(-3.80764 0.137247 1.30344e-19)
(-3.82582 0.111809 0)
(-3.84084 0.0878649 1.28832e-19)
(-3.85263 0.0652365 1.91303e-19)
(-3.86113 0.0437715 -1.89601e-19)
(-3.86632 0.0233446 1.25412e-19)
(-3.86815 0.00384135 0)
(-3.86665 -0.0148516 0)
(-3.86187 -0.0328264 1.20033e-19)
(-3.85386 -0.0501188 5.85505e-20)
(-3.84269 -0.0667374 0)
(-3.82839 -0.0826908 0)
(-3.81101 -0.0979899 5.51457e-20)
(-3.7906 -0.112645 1.08723e-19)
(-3.76722 -0.126666 0)
(-3.74093 -0.140061 -1.02609e-19)
(-3.71181 -0.152837 1.00789e-19)
(-3.67991 -0.164998 -9.79629e-20)
(-3.64532 -0.176552 0)
(-3.60811 -0.187503 0)
(-3.56835 -0.197856 0)
(-3.52614 -0.207614 0)
(-3.48156 -0.216781 0)
(-3.43468 -0.225368 -7.82457e-20)
(-3.3856 -0.233385 0)
(-3.3344 -0.240841 0)
(-3.28118 -0.247743 0)
(-3.22603 -0.254102 -1.29373e-19)
(-3.16903 -0.259929 -6.04761e-20)
(-3.11027 -0.265238 -5.671e-20)
(-3.04985 -0.270039 1.06799e-19)
(-2.98786 -0.274347 -5.00291e-20)
(-2.92439 -0.278171 4.50089e-20)
(-2.85952 -0.281526 0)
(-2.79333 -0.284421 -3.68815e-20)
(-2.72592 -0.286874 0)