/*--------------------------------*- C++ -*----------------------------------*\
  =========                 |
  \\      /  F ield         | OpenFOAM: The Open Source CFD Toolbox
   \\    /   O peration     | Website:  https://openfoam.org
    \\  /    A nd           | Version:  8
     \\/     M anipulation  |
\*---------------------------------------------------------------------------*/
FoamFile
{
    version     2.0;
    format      ascii;
    class       volScalarField;
    location    "700";
    object      nut;
}
// * * * * * * * * * * * * * * * * * * * * * * * * * * * * * * * * * * * * * //

dimensions      [0 2 -1 0 0 0 0];

internalField   nonuniform List<scalar> 
12225
(
1.38117e-05
2.11269e-05
3.55873e-05
2.74249e-05
2.39364e-05
2.0105e-05
2.14686e-05
1.87103e-05
1.80643e-05
1.80618e-05
1.73687e-05
2.76276e-05
3.34024e-05
2.63848e-05
2.44566e-05
1.87201e-05
2.56737e-05
2.23238e-05
0.000223751
7.76424e-05
7.85984e-05
5.881e-05
4.77237e-05
5.1859e-05
4.21977e-05
4.00511e-05
3.96935e-05
3.96708e-05
4.25425e-05
4.8156e-05
5.38264e-05
5.15274e-05
5.30937e-05
5.26379e-05
5.47718e-05
5.33535e-05
0.0011146
0.000360843
0.00023966
0.000184315
0.000147134
0.000132127
0.000115943
0.00010324
9.41004e-05
8.75824e-05
8.44242e-05
7.90195e-05
7.61909e-05
7.33386e-05
7.11516e-05
6.84909e-05
6.76735e-05
6.58432e-05
0.00118758
0.000889907
0.000620391
0.000492027
0.000409579
0.000361471
0.000319657
0.000287505
0.000261994
0.000241518
0.000225734
0.000208774
0.000195456
0.000183769
0.000175024
0.000166749
0.000162458
0.000156397
0.00123996
0.00116506
0.000978683
0.000847511
0.000749335
0.000676511
0.000619245
0.000571131
0.00053398
0.000498389
0.000469886
0.000439426
0.00041512
0.000391263
0.000374729
0.000357677
0.000348849
0.000336307
0.00124971
0.00123424
0.00116675
0.00108657
0.00101648
0.000952139
0.000900269
0.00085261
0.000814901
0.000775652
0.000742212
0.000705616
0.000675298
0.0006441
0.000621724
0.000598287
0.000584581
0.000568145
0.00125094
0.00124619
0.00122972
0.00119676
0.00116325
0.00112578
0.00109282
0.00105948
0.00103134
0.00100027
0.000971789
0.000939638
0.000911383
0.00088156
0.000858656
0.000834804
0.000819207
0.000802096
0.00124902
0.00124941
0.00124289
0.00123024
0.0012151
0.00119636
0.00117809
0.00115812
0.00114016
0.00111938
0.00109909
0.00107548
0.00105358
0.00103005
0.00101084
0.000990871
0.000977009
0.000961281
0.00124862
0.00124849
0.00124617
0.00124129
0.00123492
0.00122701
0.00121785
0.00120713
0.00119691
0.00118475
0.00117213
0.00115694
0.00114196
0.00112558
0.00111126
0.00109659
0.00108545
0.00107283
0.00124878
0.00124785
0.00124665
0.00124465
0.00124215
0.00123895
0.00123502
0.00123059
0.0012255
0.00121978
0.00121349
0.00120568
0.00119705
0.00118744
0.00117863
0.00116929
0.00116192
0.00115308
0.0012489
0.00124767
0.00124657
0.0012453
0.00124398
0.0012425
0.00124079
0.0012389
0.00123681
0.00123434
0.00123157
0.00122809
0.00122394
0.0012201
0.00121574
0.00121078
0.00120646
0.00120173
0.00124893
0.00124765
0.0012465
0.00124536
0.00124426
0.00124318
0.0012421
0.00124099
0.00123988
0.00123866
0.00123737
0.00123583
0.00123411
0.00123218
0.00123025
0.00122803
0.00122617
0.00122388
0.00124893
0.00124766
0.00124648
0.00124534
0.00124427
0.00124323
0.00124226
0.0012413
0.0012404
0.00123949
0.00123862
0.00123769
0.00123676
0.00123575
0.00123478
0.00123372
0.00123277
0.00123172
0.00124893
0.00124766
0.00124646
0.00124532
0.00124424
0.00124321
0.00124224
0.0012413
0.00124041
0.00123955
0.00123874
0.00123794
0.00123718
0.00123643
0.0012357
0.00123498
0.0012343
0.00123362
0.00124892
0.00124766
0.00124646
0.00124531
0.00124423
0.00124319
0.00124221
0.00124127
0.00124037
0.00123952
0.00123871
0.00123792
0.00123718
0.00123646
0.00123578
0.00123512
0.00123448
0.00123388
0.00124892
0.00124766
0.00124645
0.0012453
0.00124421
0.00124318
0.00124219
0.00124125
0.00124035
0.00123949
0.00123867
0.00123789
0.00123714
0.00123642
0.00123573
0.00123508
0.00123445
0.00123385
0.00124892
0.00124765
0.00124645
0.0012453
0.00124421
0.00124317
0.00124218
0.00124123
0.00124033
0.00123947
0.00123865
0.00123786
0.00123711
0.00123639
0.0012357
0.00123504
0.00123441
0.00123381
0.00124892
0.00124766
0.00124645
0.0012453
0.00124421
0.00124317
0.00124217
0.00124123
0.00124033
0.00123946
0.00123864
0.00123785
0.0012371
0.00123638
0.00123568
0.00123503
0.00123439
0.00123379
0.00124892
0.00124766
0.00124645
0.0012453
0.00124421
0.00124317
0.00124218
0.00124123
0.00124033
0.00123947
0.00123864
0.00123785
0.0012371
0.00123638
0.00123569
0.00123502
0.00123439
0.00123378
0.00124892
0.00124766
0.00124645
0.00124531
0.00124422
0.00124318
0.00124219
0.00124124
0.00124033
0.00123946
0.00123862
0.00123783
0.00123706
0.00123634
0.00123563
0.00123496
0.0012343
0.00123368
0.00124892
0.00124766
0.00124646
0.00124532
0.00124424
0.0012432
0.00124218
0.00124117
0.00124018
0.00123921
0.00123827
0.00123739
0.00123653
0.00123572
0.00123491
0.00123414
0.00123334
0.00123259
0.0012489
0.00124768
0.00124647
0.00124533
0.0012443
0.00124313
0.0012418
0.00124029
0.00123865
0.00123696
0.00123531
0.00123374
0.00123226
0.00123086
0.00122951
0.00122819
0.00122664
0.00122531
0.0012488
0.00124779
0.00124641
0.0012453
0.0012441
0.00124182
0.00123858
0.0012341
0.00122914
0.00122378
0.00121886
0.00121388
0.00120966
0.00120548
0.00120257
0.00119764
0.00119312
0.00118888
0.00124854
0.00124795
0.00124595
0.00124348
0.00123985
0.00123243
0.00122089
0.00120548
0.00118923
0.00117237
0.0011579
0.0011426
0.00113006
0.00111858
0.00110993
0.00110016
0.00109274
0.00108173
0.00124758
0.00124473
0.00124096
0.00122406
0.0012053
0.0011834
0.00114812
0.00111138
0.00107212
0.0010375
0.00100652
0.000978671
0.000957107
0.000938594
0.000925815
0.000910937
0.000893829
0.000885557
0.00123278
0.00122273
0.00119881
0.00113335
0.00108323
0.001024
0.000957048
0.000886743
0.000831713
0.000775983
0.00074074
0.00070478
0.000683464
0.000658867
0.000643048
0.000632473
0.000617514
0.000611421
0.00112317
0.00110336
0.000989341
0.000853044
0.000770588
0.000675227
0.000603365
0.000529181
0.000482763
0.000437512
0.0004108
0.000386125
0.000370449
0.000355732
0.000345922
0.000336666
0.000331808
0.000327126
0.00074042
0.000648018
0.000495734
0.000392801
0.00033195
0.000277233
0.000240718
0.000208629
0.000188807
0.000171862
0.000162778
0.000154448
0.000150235
0.000146629
0.000145096
0.00014325
0.000142932
0.000142747
0.000255927
0.000159185
0.000116143
9.71904e-05
8.6433e-05
7.9767e-05
7.60317e-05
7.32316e-05
7.12034e-05
7.10004e-05
7.10601e-05
7.11881e-05
7.17508e-05
7.31948e-05
7.52416e-05
7.71965e-05
7.8504e-05
7.87075e-05
1.35451e-05
1.72124e-05
2.01044e-05
2.18663e-05
2.29264e-05
2.32538e-05
2.33786e-05
2.33218e-05
2.30767e-05
2.27818e-05
2.24694e-05
2.21616e-05
2.18727e-05
2.16131e-05
2.13833e-05
2.11845e-05
2.10111e-05
2.08623e-05
1.74828e-12
1.97644e-10
1.00453e-09
3.93722e-09
1.30661e-08
3.91575e-08
1.02223e-07
2.02714e-07
3.27746e-07
4.59168e-07
5.76878e-07
6.67916e-07
7.28491e-07
7.51114e-07
7.41106e-07
7.10424e-07
6.53819e-07
5.58096e-07
4.76565e-07
4.058e-07
3.38e-07
2.71888e-07
2.07698e-07
1.48258e-07
9.55944e-08
5.52096e-08
2.88907e-08
1.44037e-08
7.31095e-09
4.00487e-09
2.47065e-09
1.94166e-09
2.62839e-09
6.04782e-09
1.52251e-08
7.31108e-08
1.78247e-07
3.56291e-07
5.03492e-07
5.12646e-07
4.64526e-07
3.68216e-07
3.04684e-07
2.99489e-07
3.26638e-07
4.48779e-07
6.15522e-07
1.30152e-06
3.05314e-06
9.65771e-06
2.2654e-05
3.50498e-05
3.86697e-05
2.75196e-05
3.60978e-05
3.48043e-05
4.10205e-05
4.14732e-05
3.57088e-05
3.7179e-05
2.9106e-05
3.2435e-05
3.2727e-05
3.34131e-05
3.41324e-05
3.46654e-05
3.53355e-05
3.58892e-05
3.65013e-05
3.70563e-05
3.76366e-05
3.81842e-05
3.87446e-05
3.92842e-05
3.98305e-05
4.03629e-05
4.08987e-05
4.14249e-05
4.19527e-05
4.24739e-05
4.29953e-05
4.35123e-05
4.40285e-05
4.4542e-05
4.50538e-05
4.55639e-05
4.60716e-05
4.65784e-05
4.70828e-05
4.75863e-05
4.80876e-05
4.85863e-05
4.90822e-05
4.95743e-05
5.00624e-05
5.05465e-05
5.10267e-05
5.15055e-05
5.19851e-05
5.2472e-05
5.2973e-05
5.34702e-05
5.39735e-05
5.44822e-05
5.49967e-05
5.55185e-05
5.6047e-05
5.65839e-05
5.71287e-05
5.76832e-05
5.82469e-05
5.88217e-05
5.94072e-05
6.00056e-05
6.06165e-05
6.12421e-05
6.18823e-05
6.25395e-05
6.32137e-05
6.39074e-05
6.46212e-05
6.53574e-05
6.61173e-05
6.69035e-05
6.77181e-05
6.85649e-05
6.94491e-05
7.03486e-05
7.13235e-05
7.22739e-05
7.33291e-05
7.43683e-05
7.5506e-05
7.67034e-05
7.79548e-05
7.92302e-05
7.89725e-05
7.87072e-05
7.84253e-05
7.81329e-05
7.78296e-05
7.7516e-05
7.71932e-05
7.68599e-05
7.65183e-05
7.61671e-05
7.58081e-05
7.54475e-05
7.50641e-05
7.46925e-05
7.42924e-05
7.39099e-05
7.34957e-05
7.31025e-05
7.2682e-05
7.22716e-05
7.1855e-05
7.14357e-05
7.1017e-05
7.05973e-05
7.01781e-05
6.97594e-05
6.93414e-05
6.89246e-05
6.85092e-05
6.80961e-05
6.76858e-05
6.72792e-05
6.68764e-05
6.64782e-05
6.6084e-05
6.56939e-05
6.53058e-05
6.49173e-05
6.45236e-05
6.41184e-05
6.36904e-05
6.32089e-05
6.26176e-05
6.09697e-05
7.57465e-12
1.23581e-09
1.65128e-08
8.67272e-08
3.81134e-07
1.21755e-06
2.83009e-06
5.16807e-06
8.01736e-06
1.12405e-05
1.45023e-05
1.75113e-05
2.00538e-05
2.1989e-05
2.3082e-05
2.34206e-05
2.30519e-05
2.22187e-05
1.98761e-05
1.65966e-05
1.27553e-05
9.36264e-06
6.58219e-06
4.42655e-06
2.78154e-06
1.71074e-06
1.0467e-06
6.50933e-07
4.06265e-07
2.71885e-07
2.00117e-07
1.81575e-07
1.95479e-07
4.01093e-07
7.95014e-07
4.13334e-06
9.81241e-06
1.79706e-05
2.3345e-05
2.44961e-05
2.28529e-05
1.97352e-05
1.68555e-05
1.59505e-05
1.66506e-05
1.73688e-05
2.12394e-05
2.94528e-05
4.06124e-05
5.20268e-05
6.35097e-05
7.31133e-05
8.14409e-05
8.77083e-05
9.92615e-05
0.000109964
0.00012238
0.000138951
0.000149699
0.00016558
0.000175493
0.000190567
0.000203499
0.000216087
0.000228675
0.000240358
0.000251839
0.000262633
0.000273307
0.000283477
0.000293412
0.000303037
0.000312429
0.000321604
0.000330586
0.000339398
0.000348055
0.00035657
0.000364959
0.000373223
0.00038138
0.000389427
0.000397378
0.00040523
0.000412992
0.000420662
0.000428246
0.000435742
0.000443155
0.000450483
0.000457731
0.000464885
0.000471939
0.000478876
0.000485674
0.000492299
0.0004987
0.00050481
0.000510521
0.000515713
0.000520261
0.000524908
0.000529329
0.000533674
0.000537873
0.000541954
0.000545901
0.000549716
0.000553394
0.000556933
0.00056033
0.000563582
0.000566686
0.000569639
0.00057244
0.000575086
0.000577574
0.000579903
0.00058207
0.000584075
0.000585913
0.000587584
0.000589085
0.000590415
0.000591572
0.000592553
0.000593358
0.000593995
0.000594481
0.000594754
0.000594932
0.000594787
0.000594573
0.00059427
0.000593853
0.000593519
0.000593308
0.000592947
0.000592435
0.000591779
0.00059099
0.000590072
0.000589029
0.000587858
0.000586559
0.000585119
0.000583737
0.000581922
0.000580457
0.00057837
0.00057671
0.000574411
0.000572583
0.000570153
0.00056791
0.000565521
0.000563033
0.000560514
0.000557926
0.000555288
0.000552605
0.000549877
0.000547107
0.000544295
0.000541444
0.000538559
0.000535644
0.000532706
0.000529748
0.000526771
0.000523774
0.000520757
0.000517692
0.000514542
0.000511265
0.000507781
0.000503952
0.000499461
0.000493555
0.000476902
1.83163e-11
3.10105e-09
5.83639e-08
3.40644e-07
1.23836e-06
3.01302e-06
6.41598e-06
1.11292e-05
1.69205e-05
2.34863e-05
3.04292e-05
3.73524e-05
4.35884e-05
4.87837e-05
5.26718e-05
5.52411e-05
5.66019e-05
5.69187e-05
5.53164e-05
5.236e-05
4.75434e-05
4.14186e-05
3.40751e-05
2.67244e-05
2.00596e-05
1.4303e-05
9.73469e-06
6.49012e-06
4.14758e-06
2.78688e-06
1.97032e-06
1.66194e-06
1.34905e-06
2.84469e-06
5.95158e-06
2.10242e-05
4.29229e-05
6.00595e-05
6.72617e-05
6.34952e-05
4.94438e-05
4.09977e-05
4.15059e-05
4.81694e-05
5.56299e-05
6.57846e-05
7.88718e-05
9.1661e-05
0.000105394
0.000123315
0.000142483
0.000163941
0.000187038
0.000214294
0.000245241
0.000276483
0.000308805
0.000340596
0.000371285
0.000401406
0.000429886
0.00045824
0.000484713
0.000509964
0.0005343
0.000557673
0.00057984
0.000601405
0.000622256
0.000642457
0.00066215
0.000681358
0.000700157
0.000718587
0.000736686
0.000754487
0.000772011
0.000789279
0.000806306
0.000823105
0.000839685
0.000856053
0.000872217
0.000888178
0.000903941
0.000919504
0.000934868
0.00095003
0.000964987
0.000979731
0.000994254
0.00100854
0.00102256
0.00103629
0.0010497
0.00106274
0.00107537
0.00108755
0.00109924
0.00111044
0.00112132
0.00113203
0.00114243
0.00115259
0.00116247
0.00117207
0.00118139
0.00119042
0.00119914
0.00120757
0.00121568
0.00122348
0.00123095
0.0012381
0.00124492
0.0012514
0.00125754
0.00126334
0.00126879
0.00127389
0.00127863
0.00128302
0.00128705
0.00129072
0.00129402
0.00129695
0.00129952
0.00130172
0.00130356
0.00130503
0.00130617
0.00130682
0.0013072
0.00130739
0.00130741
0.00130716
0.00130671
0.00130593
0.00130482
0.00130339
0.00130166
0.00129964
0.00129734
0.00129475
0.00129191
0.00128881
0.00128554
0.00128182
0.00127818
0.00127394
0.00126986
0.00126514
0.00126066
0.00125553
0.00125048
0.00124517
0.00123968
0.00123407
0.00122833
0.00122248
0.00121653
0.00121048
0.00120434
0.00119811
0.0011918
0.00118542
0.00117898
0.00117249
0.00116597
0.00115941
0.00115282
0.00114618
0.00113944
0.00113255
0.0011254
0.00111782
0.00110949
0.00109964
0.00108638
0.00105609
7.25238e-11
1.22489e-08
1.93992e-07
8.14292e-07
2.59792e-06
7.09998e-06
1.40437e-05
2.33341e-05
3.42716e-05
4.57538e-05
5.68541e-05
6.6985e-05
7.5663e-05
8.22619e-05
8.72182e-05
9.0354e-05
9.1581e-05
9.12727e-05
8.95689e-05
8.62605e-05
8.1528e-05
7.5801e-05
6.81982e-05
5.91503e-05
4.92404e-05
3.93225e-05
3.03155e-05
2.27979e-05
1.70797e-05
1.25215e-05
9.71555e-06
7.5416e-06
8.64308e-06
1.42851e-05
3.18833e-05
5.65945e-05
7.47696e-05
8.14439e-05
7.78426e-05
7.4695e-05
7.49534e-05
7.9088e-05
8.73499e-05
9.91019e-05
0.000113337
0.000125992
0.000147151
0.000170273
0.000198512
0.00023183
0.000268223
0.00030845
0.000351127
0.00039649
0.000442731
0.000488759
0.000534465
0.000578529
0.000621597
0.000662789
0.000702583
0.000740546
0.000776992
0.00081228
0.000845997
0.000878649
0.000910172
0.000940851
0.000970701
0.000999835
0.00102834
0.00105629
0.00108372
0.0011107
0.00113726
0.00116342
0.0011892
0.00121464
0.00123973
0.00126449
0.00128892
0.00131304
0.00133684
0.00136032
0.00138349
0.00140634
0.00142887
0.00145106
0.00147292
0.00149443
0.00151558
0.00153635
0.00155672
0.00157666
0.00159615
0.00161516
0.00163368
0.0016517
0.00166923
0.0016863
0.00170299
0.00171932
0.00173524
0.00175077
0.00176587
0.00178055
0.0017948
0.0018086
0.00182195
0.00183484
0.00184726
0.0018592
0.00187067
0.00188164
0.00189212
0.0019021
0.00191158
0.00192055
0.001929
0.00193694
0.00194436
0.00195126
0.00195763
0.00196347
0.00196879
0.00197357
0.00197783
0.00198155
0.00198474
0.00198739
0.00198954
0.00199107
0.00199214
0.00199296
0.00199336
0.00199328
0.00199277
0.00199179
0.00199034
0.00198842
0.00198606
0.00198327
0.00198005
0.00197643
0.00197242
0.00196804
0.0019633
0.00195813
0.00195274
0.00194683
0.00194076
0.00193417
0.00192747
0.00192023
0.00191285
0.00190516
0.00189722
0.00188907
0.00188073
0.0018722
0.00186352
0.00185469
0.00184572
0.00183661
0.00182738
0.00181804
0.0018086
0.00179909
0.00178953
0.00177992
0.00177026
0.00176052
0.00175065
0.00174059
0.0017302
0.00171924
0.00170733
0.00169333
0.00167478
0.0016389
2.46939e-10
3.6751e-08
4.26832e-07
2.02981e-06
6.9755e-06
1.67092e-05
3.0841e-05
4.76158e-05
6.50798e-05
8.15207e-05
9.5768e-05
0.000106961
0.000115238
0.000120906
0.000124003
0.000125124
0.000124566
0.000122604
0.000119442
0.000115052
0.000109498
0.000103301
9.56585e-05
8.66748e-05
7.63694e-05
6.50569e-05
5.36786e-05
4.34538e-05
3.50782e-05
2.79221e-05
2.23084e-05
2.18494e-05
2.91079e-05
4.97255e-05
7.41157e-05
8.87704e-05
9.55982e-05
9.85198e-05
0.000101264
0.000106753
0.00011632
0.000130838
0.000142738
0.000156701
0.000179992
0.000209578
0.000243572
0.000283383
0.000328434
0.000377496
0.000429277
0.000483557
0.000539001
0.00059523
0.000651051
0.000706032
0.000759924
0.000812073
0.000862865
0.000911576
0.000958983
0.0010048
0.00104898
0.0010918
0.00113324
0.00117354
0.00121277
0.00125108
0.00128853
0.00132523
0.00136124
0.00139662
0.00143143
0.0014657
0.00149946
0.00153274
0.00156555
0.00159791
0.00162983
0.0016613
0.00169234
0.00172295
0.00175312
0.00178286
0.00181217
0.00184103
0.00186945
0.00189742
0.00192492
0.00195195
0.0019785
0.00200455
0.00203008
0.00205509
0.00207956
0.00210348
0.00212684
0.00214966
0.00217196
0.00219374
0.00221502
0.0022358
0.00225606
0.00227579
0.00229498
0.00231361
0.00233169
0.00234919
0.00236612
0.00238245
0.00239819
0.00241332
0.00242785
0.00244176
0.00245505
0.00246771
0.00247975
0.00249115
0.00250191
0.00251204
0.00252153
0.00253038
0.00253859
0.00254615
0.00255306
0.00255934
0.00256497
0.00256996
0.00257429
0.00257796
0.00258102
0.00258336
0.00258513
0.00258657
0.00258737
0.00258759
0.00258725
0.00258632
0.00258482
0.00258276
0.00258016
0.00257703
0.00257338
0.00256923
0.00256458
0.00255948
0.00255392
0.00254788
0.00254144
0.00253452
0.00252723
0.00251946
0.00251137
0.0025028
0.00249392
0.00248468
0.00247513
0.0024653
0.0024552
0.00244488
0.00243434
0.0024236
0.00241266
0.00240155
0.00239027
0.00237883
0.00236726
0.00235559
0.0023438
0.00233195
0.00232001
0.00230798
0.00229581
0.00228343
0.0022707
0.00225739
0.00224311
0.00222671
0.00220531
0.00216928
7.92158e-10
9.01437e-08
1.07933e-06
5.45547e-06
1.76874e-05
3.71502e-05
6.03772e-05
8.40336e-05
0.000104671
0.00012096
0.000133062
0.000141903
0.000147319
0.000150231
0.000151153
0.000150468
0.000148433
0.000145244
0.000141039
0.000135768
0.000129608
0.000122829
0.000114827
0.000105743
9.41617e-05
7.8256e-05
6.28928e-05
4.86706e-05
3.754e-05
3.33143e-05
3.56844e-05
4.9858e-05
7.32868e-05
9.47556e-05
0.000109243
0.000117894
0.000123581
0.000130305
0.000141534
0.00015902
0.000168525
0.000183162
0.000207909
0.000238022
0.000275318
0.000319159
0.000368188
0.000422217
0.000479572
0.000539394
0.000600761
0.000663145
0.000725704
0.000788024
0.000849488
0.000909889
0.000968794
0.00102604
0.00108235
0.00113684
0.00118982
0.00124128
0.0012913
0.00134001
0.00138748
0.00143383
0.00147916
0.00152357
0.00156712
0.00160989
0.00165194
0.00169332
0.00173407
0.00177421
0.00181377
0.00185276
0.00189119
0.00192907
0.0019664
0.00200319
0.00203943
0.00207513
0.00211028
0.00214489
0.00217894
0.00221243
0.00224536
0.00227773
0.00230952
0.00234074
0.00237137
0.00240141
0.00243084
0.00245966
0.00248786
0.00251543
0.00254239
0.00256875
0.0025945
0.00261964
0.00264418
0.0026681
0.00269141
0.00271408
0.00273611
0.00275748
0.0027782
0.00279825
0.00281762
0.0028363
0.00285429
0.00287159
0.00288819
0.00290408
0.00291927
0.00293374
0.00294751
0.00296056
0.0029729
0.00298452
0.00299543
0.00300563
0.00301512
0.00302389
0.00303195
0.00303931
0.00304597
0.00305195
0.00305711
0.00306162
0.00306546
0.00306849
0.00307094
0.00307292
0.00307419
0.00307481
0.00307479
0.00307413
0.00307285
0.00307094
0.00306844
0.00306536
0.00306171
0.00305748
0.0030527
0.00304741
0.00304159
0.00303526
0.00302844
0.00302112
0.00301333
0.00300506
0.00299635
0.00298717
0.00297758
0.0029676
0.00295724
0.00294655
0.00293555
0.00292426
0.00291271
0.00290091
0.00288887
0.00287661
0.00286413
0.00285146
0.00283863
0.00282564
0.00281253
0.00279931
0.00278599
0.00277256
0.00275898
0.00274519
0.00273108
0.00271644
0.00270089
0.00268348
0.00266149
0.00262762
2.56558e-09
2.3159e-07
2.86219e-06
1.4887e-05
3.85661e-05
6.82363e-05
9.63744e-05
0.000119296
0.000136739
0.000149672
0.000158693
0.000164218
0.000167119
0.000168053
0.000167457
0.000165615
0.000162709
0.000158835
0.000153951
0.000147968
0.000141149
0.000133242
0.000123968
0.000107001
9.12196e-05
7.73562e-05
6.51164e-05
5.66432e-05
5.6353e-05
6.62652e-05
8.09293e-05
0.000107302
0.000124723
0.000137266
0.000146416
0.000154769
0.000166442
0.000184016
0.000191754
0.000206228
0.00022989
0.000259078
0.000296451
0.000340157
0.000390766
0.000446637
0.000506356
0.000569101
0.000633713
0.000699604
0.000766139
0.000832839
0.000899202
0.000964944
0.0010294
0.00109274
0.00115542
0.00121645
0.00127618
0.00133444
0.00139131
0.00144685
0.00150109
0.00155414
0.00160604
0.00165691
0.0017068
0.00175578
0.00180394
0.0018513
0.00189794
0.00194386
0.00198912
0.00203371
0.00207766
0.00212096
0.00216362
0.00220565
0.00224703
0.00228777
0.00232786
0.00236729
0.00240608
0.00244421
0.00248169
0.00251851
0.00255466
0.00259016
0.00262499
0.00265915
0.00269264
0.00272546
0.0027576
0.00278906
0.00281983
0.0028499
0.00287928
0.00290795
0.00293592
0.0029632
0.00298979
0.00301569
0.00304088
0.00306537
0.00308914
0.00311219
0.00313451
0.0031561
0.00317696
0.0031971
0.00321649
0.00323514
0.00325303
0.00327017
0.00328655
0.00330218
0.00331705
0.00333115
0.00334451
0.00335711
0.00336895
0.00338005
0.0033904
0.00340001
0.00340887
0.003417
0.00342443
0.0034311
0.00343694
0.00344211
0.00344657
0.00345019
0.00345324
0.00345571
0.00345745
0.00345851
0.00345889
0.00345861
0.00345767
0.00345609
0.00345388
0.00345106
0.00344765
0.00344371
0.00343921
0.00343415
0.00342854
0.00342239
0.00341571
0.00340851
0.0034008
0.00339258
0.00338387
0.00337468
0.00336502
0.00335494
0.00334445
0.00333358
0.00332235
0.0033108
0.00329895
0.0032868
0.00327437
0.00326168
0.00324873
0.00323555
0.00322217
0.0032086
0.00319487
0.00318101
0.00316702
0.0031529
0.00313863
0.00312417
0.00310943
0.00309426
0.00307837
0.00306098
0.00303998
0.00300933
7.79144e-09
6.15931e-07
7.74784e-06
3.17995e-05
6.65212e-05
0.000101066
0.000129619
0.000150684
0.000165123
0.000173955
0.000178458
0.000180268
0.000180351
0.000179085
0.000176779
0.000173581
0.000169444
0.000164276
0.000158167
0.000151301
0.000143511
0.000134397
0.000116301
9.93993e-05
8.55094e-05
7.60784e-05
7.38442e-05
7.79514e-05
8.91295e-05
0.000111178
0.000137007
0.000160263
0.00017436
0.000184303
0.000196063
0.000205051
0.00021265
0.000226185
0.000247241
0.000274511
0.000309705
0.000351397
0.000400337
0.000455075
0.000514959
0.000578299
0.000644004
0.000711369
0.000779704
0.000848574
0.000917555
0.000986302
0.00105424
0.00112128
0.00118791
0.00125336
0.0013177
0.00138075
0.00144257
0.00150311
0.00156243
0.00162055
0.00167753
0.00173341
0.00178826
0.00184213
0.00189509
0.00194719
0.00199849
0.00204902
0.00209881
0.0021479
0.0021963
0.00224401
0.00229102
0.00233734
0.00238296
0.00242786
0.00247205
0.0025155
0.00255822
0.0026002
0.00264144
0.00268194
0.0027217
0.0027607
0.00279897
0.00283649
0.00287328
0.00290934
0.00294466
0.00297925
0.0030131
0.00304621
0.00307859
0.00311022
0.00314109
0.00317119
0.00320055
0.00322918
0.00325707
0.00328422
0.00331063
0.00333628
0.00336118
0.00338533
0.0034087
0.00343131
0.00345314
0.0034742
0.00349447
0.00351396
0.00353267
0.00355059
0.00356773
0.00358409
0.00359967
0.00361448
0.00362851
0.00364178
0.00365428
0.00366602
0.00367701
0.00368725
0.00369674
0.0037055
0.00371359
0.00372085
0.00372733
0.00373313
0.00373822
0.00374247
0.00374617
0.00374923
0.00375157
0.00375322
0.00375418
0.00375448
0.00375413
0.00375312
0.00375149
0.00374923
0.00374637
0.00374291
0.00373886
0.00373424
0.00372904
0.00372329
0.003717
0.00371015
0.00370278
0.00369488
0.00368646
0.00367754
0.00366813
0.00365826
0.00364796
0.00363725
0.00362615
0.0036147
0.0036029
0.00359078
0.00357834
0.0035656
0.00355257
0.00353927
0.00352573
0.00351198
0.00349804
0.00348393
0.00346967
0.00345526
0.00344069
0.00342597
0.00341109
0.00339596
0.00338032
0.00336354
0.00334398
0.00331717
2.04193e-08
1.53865e-06
1.72114e-05
5.337e-05
9.45538e-05
0.000129377
0.000155523
0.000173057
0.000183985
0.000189647
0.00019145
0.000190532
0.000187823
0.000184047
0.000179592
0.000174549
0.000168856
0.000162525
0.000155508
0.000147887
0.000139532
0.000127046
0.000114714
0.000107595
0.000102705
9.85705e-05
0.000103655
0.000119698
0.00014024
0.000162168
0.000182599
0.000199322
0.000211074
0.000220169
0.000229779
0.000242542
0.000261182
0.00028576
0.000317704
0.000356307
0.00040182
0.000453351
0.000510606
0.000572283
0.000637298
0.000704412
0.000772886
0.000842229
0.000912006
0.000981888
0.00105152
0.00112036
0.00118887
0.00125676
0.00132371
0.00138962
0.00145446
0.00151816
0.00158074
0.0016422
0.00170255
0.00176183
0.00182008
0.00187734
0.00193367
0.00198911
0.0020437
0.00209749
0.00215054
0.00220286
0.0022545
0.00230546
0.00235575
0.00240537
0.00245427
0.00250246
0.00254992
0.00259662
0.00264256
0.0026877
0.00273203
0.00277557
0.00281829
0.00286021
0.00290134
0.00294172
0.00298129
0.00302005
0.00305799
0.00309514
0.00313149
0.00316706
0.00320183
0.00323582
0.00326902
0.00330144
0.00333308
0.00336397
0.00339409
0.00342345
0.00345204
0.00347986
0.00350691
0.00353318
0.00355867
0.00358338
0.0036073
0.00363044
0.00365278
0.00367432
0.00369507
0.00371503
0.00373419
0.00375256
0.00377014
0.00378694
0.00380296
0.0038182
0.00383267
0.00384638
0.00385934
0.00387155
0.00388301
0.00389374
0.00390373
0.00391304
0.00392166
0.00392944
0.00393653
0.00394294
0.00394863
0.00395354
0.00395792
0.00396161
0.00396462
0.00396695
0.00396862
0.00396963
0.00397
0.00396974
0.00396885
0.00396735
0.00396525
0.00396255
0.00395927
0.00395541
0.00395099
0.00394601
0.00394048
0.0039344
0.00392777
0.00392061
0.00391292
0.00390471
0.003896
0.00388682
0.00387718
0.00386712
0.00385664
0.00384578
0.00383455
0.00382297
0.00381103
0.00379876
0.00378617
0.00377328
0.00376012
0.00374671
0.00373309
0.00371926
0.00370525
0.00369108
0.00367675
0.00366225
0.00364758
0.00363268
0.00361741
0.00360131
0.00358305
0.00355963
4.5675e-08
3.56492e-06
3.09393e-05
7.75443e-05
0.000122472
0.000156673
0.000178963
0.000192948
0.000199644
0.000200881
0.00019857
0.000194099
0.000188409
0.000182065
0.000175336
0.000168047
0.000160541
0.000152242
0.00014391
0.000135242
0.000126259
0.000117956
0.000112247
0.00011176
0.000118137
0.000130617
0.00014719
0.000165615
0.000184391
0.000201969
0.000216558
0.000228423
0.00024088
0.000254561
0.000271961
0.000294046
0.000322579
0.000357489
0.000398912
0.000446256
0.000499211
0.000557049
0.000619063
0.000684138
0.000751293
0.000819708
0.000888872
0.000958425
0.00102807
0.00109725
0.00116597
0.0012346
0.0013024
0.00136938
0.00143545
0.00150053
0.00156458
0.0016276
0.00168959
0.00175054
0.00181048
0.00186946
0.00192752
0.00198472
0.00204109
0.00209669
0.00215153
0.00220563
0.0022591
0.00231194
0.00236419
0.00241586
0.00246696
0.00251751
0.00256761
0.00261707
0.00266578
0.00271367
0.00276073
0.00280693
0.00285225
0.00289668
0.00294021
0.00298285
0.00302459
0.00306541
0.00310537
0.0031445
0.00318281
0.00322032
0.00325703
0.00329295
0.00332808
0.00336244
0.00339601
0.00342881
0.00346084
0.00349211
0.0035226
0.00355232
0.00358127
0.00360943
0.0036368
0.0036634
0.0036892
0.00371422
0.00373845
0.00376188
0.00378452
0.00380636
0.00382741
0.00384767
0.00386713
0.00388581
0.0039037
0.00392082
0.00393716
0.00395275
0.00396758
0.00398166
0.003995
0.00400762
0.00401951
0.00403069
0.00404117
0.00405102
0.00406012
0.00406848
0.00407618
0.00408322
0.00408957
0.00409521
0.00410029
0.0041047
0.00410846
0.00411157
0.00411404
0.00411589
0.00411711
0.00411772
0.00411773
0.00411714
0.00411596
0.00411421
0.00411188
0.00410898
0.00410553
0.00410153
0.00409698
0.00409189
0.00408625
0.00408007
0.00407336
0.00406612
0.00405837
0.00405013
0.00404144
0.0040323
0.00402273
0.00401276
0.0040024
0.00399165
0.00398053
0.00396905
0.00395721
0.00394506
0.0039326
0.00391986
0.00390688
0.00389366
0.00388024
0.00386662
0.00385284
0.00383889
0.0038248
0.00381053
0.00379602
0.00378092
0.00376415
0.00374437
8.68798e-08
7.29462e-06
4.58984e-05
9.90523e-05
0.000145376
0.000178134
0.000198503
0.000208132
0.000210296
0.000207542
0.000201743
0.000194198
0.000185745
0.000176612
0.000167715
0.000158594
0.000150183
0.000142713
0.000136712
0.000132111
0.000129813
0.000130921
0.000135985
0.000144984
0.000157387
0.000172244
0.000188366
0.000204651
0.000219663
0.00023277
0.000246673
0.000262259
0.000279631
0.000300269
0.000325937
0.000357181
0.00039438
0.0004372
0.000485328
0.000538253
0.000595521
0.000656479
0.000720372
0.000786315
0.000853548
0.000921494
0.000989766
0.001058
0.00112571
0.00119336
0.00126051
0.00132698
0.00139262
0.00145734
0.0015211
0.00158388
0.00164568
0.00170652
0.00176641
0.00182536
0.00188333
0.00194046
0.00199682
0.00205247
0.00210747
0.00216193
0.00221601
0.00226984
0.00232318
0.00237599
0.00242829
0.00248007
0.00253134
0.00258208
0.00263218
0.00268164
0.00273041
0.00277841
0.00282562
0.002872
0.00291751
0.00296212
0.00300584
0.00304865
0.00309057
0.00313164
0.00317186
0.00321124
0.0032498
0.00328754
0.00332449
0.00336065
0.00339602
0.00343061
0.00346443
0.00349747
0.00352974
0.00356125
0.00359198
0.00362194
0.00365113
0.00367955
0.00370718
0.00373403
0.00376011
0.0037854
0.0038099
0.00383362
0.00385656
0.0038787
0.00390005
0.00392062
0.00394041
0.00395942
0.00397766
0.00399512
0.00401183
0.0040278
0.00404303
0.00405753
0.00407131
0.00408439
0.00409678
0.00410847
0.00411951
0.00412989
0.00413958
0.0041486
0.00415698
0.00416472
0.0041718
0.00417826
0.00418413
0.00418935
0.00419396
0.00419794
0.00420133
0.00420411
0.00420631
0.00420791
0.00420893
0.00420938
0.00420927
0.00420859
0.00420735
0.00420557
0.00420325
0.00420038
0.00419698
0.00419304
0.00418856
0.00418354
0.00417797
0.00417188
0.00416527
0.00415818
0.00415061
0.00414259
0.00413414
0.00412527
0.00411599
0.0041063
0.00409622
0.00408574
0.0040749
0.0040637
0.00405218
0.00404035
0.00402824
0.00401588
0.00400327
0.00399045
0.00397744
0.00396426
0.00395095
0.0039375
0.00392389
0.00390987
0.00389452
0.00387788
1.38566e-07
1.24243e-05
6.18987e-05
0.000120706
0.000167155
0.000197948
0.000214376
0.000220144
0.000218773
0.000212958
0.000204672
0.000194973
0.000185195
0.000175784
0.000167434
0.000160211
0.000154547
0.000151247
0.000150056
0.000151272
0.000155197
0.000161906
0.000171198
0.000182647
0.00019571
0.000209763
0.000223699
0.000236803
0.00025076
0.000267153
0.000285315
0.00030525
0.000329
0.000357221
0.000390512
0.00042888
0.000472147
0.000519919
0.000571821
0.000627431
0.000686295
0.000747834
0.000811378
0.000876233
0.000941802
0.00100765
0.00107312
0.00113836
0.00120329
0.00126757
0.00133112
0.00139381
0.00145555
0.0015162
0.00157578
0.0016344
0.00169213
0.00174901
0.00180515
0.0018607
0.00191606
0.00197092
0.00202515
0.00207878
0.00213183
0.00218438
0.00223641