/*--------------------------------*- C++ -*----------------------------------*\
  =========                 |
  \\      /  F ield         | OpenFOAM: The Open Source CFD Toolbox
   \\    /   O peration     | Website:  https://openfoam.org
    \\  /    A nd           | Version:  8
     \\/     M anipulation  |
\*---------------------------------------------------------------------------*/
FoamFile
{
    version     2.0;
    format      ascii;
    class       volScalarField;
    location    "700";
    object      omega;
}
// * * * * * * * * * * * * * * * * * * * * * * * * * * * * * * * * * * * * * //

dimensions      [0 0 -1 0 0 0 0];

internalField   nonuniform List<scalar> 
12225
(
32582.3
32582.3
32582.3
43976.3
48436.3
48945
48499.9
48117.5
45979.4
49837.9
44577.8
32582.3
32582.3
46503.8
41538.2
40764.6
32582.3
45183.3
2695.84
8097.12
9708.29
12925.2
16140
15478.1
19743.3
20950.4
20685.7
21589.1
20015.3
18255.2
17275.6
18331.7
17748.3
17743.3
17147.3
17605.1
499.305
1540.43
2349.06
3048.67
3770.73
4147.22
4723.16
5250.23
5694.19
6055.88
6209.91
6473.15
6628.33
6857.35
6977.65
7192.29
7241.23
7392.2
463.142
615.075
880.925
1102.89
1307.75
1466.47
1639.17
1803.96
1957.31
2092.85
2202.04
2331.84
2440.68
2543.95
2623.79
2708.27
2744.93
2816.7
442.525
468.613
555.201
636.691
713.598
783.472
848.593
912.493
967.919
1026.33
1076.12
1134.85
1184.67
1238.51
1276.54
1320.23
1340.45
1376.19
438.754
441.932
464.916
496.119
526.628
558.221
586.411
615.077
639.362
666.664
691.03
720.058
745.226
773.503
794.055
817.698
830.744
848.328
438.284
437.464
440.853
450.377
460.603
473.078
484.567
497.007
507.771
520.442
532.343
546.776
559.786
574.548
585.881
598.62
606.526
615.919
438.961
436.253
436.077
438.103
441.115
445.572
450.123
455.55
460.424
466.551
472.634
480.291
487.479
495.73
502.363
509.731
514.479
520.412
439.11
436.534
434.871
434.179
434.094
434.624
435.721
437.475
439.15
441.576
444.212
447.849
451.504
455.828
459.523
463.533
466.322
469.858
439.057
436.734
434.663
432.977
431.574
430.499
429.787
429.332
429.186
429.304
429.654
430.559
431.797
433.433
434.874
436.591
437.714
439.449
439.016
436.789
434.662
432.72
430.914
429.268
427.804
426.502
425.351
424.397
423.605
423.093
422.86
422.56
422.5
422.701
422.764
423.017
439.002
436.788
434.668
432.676
430.787
429.005
427.328
425.761
424.285
422.929
421.671
420.561
419.572
418.713
417.906
417.255
416.547
416.032
439.001
436.78
434.665
432.663
430.76
428.955
427.238
425.613
424.063
422.604
421.214
419.918
418.689
417.555
416.469
415.473
414.499
413.614
439.001
436.776
434.661
432.655
430.749
428.938
427.215
425.577
424.018
422.535
421.123
419.781
418.503
417.29
416.134
415.037
413.988
412.992
439.001
436.773
434.658
432.649
430.741
428.927
427.202
425.561
423.998
422.511
421.093
419.743
418.455
417.228
416.056
414.94
413.872
412.855
439.001
436.772
434.656
432.646
430.736
428.92
427.193
425.55
423.985
422.495
421.075
419.722
418.431
417.201
416.026
414.905
413.834
412.812
439.001
436.772
434.655
432.644
430.733
428.916
427.187
425.543
423.977
422.485
421.064
419.709
418.417
417.184
416.008
414.885
413.813
412.79
439.001
436.772
434.655
432.643
430.732
428.915
427.185
425.541
423.973
422.482
421.059
419.704
418.41
417.178
416
414.878
413.804
412.781
439.001
436.772
434.655
432.645
430.733
428.916
427.188
425.542
423.977
422.484
421.063
419.707
418.415
417.181
416.005
414.881
413.81
412.785
439.001
436.773
434.657
432.647
430.736
428.92
427.193
425.55
423.987
422.499
421.08
419.728
418.439
417.209
416.036
414.917
413.85
412.833
439.003
436.773
434.659
432.65
430.739
428.926
427.211
425.587
424.051
422.59
421.203
419.879
418.62
417.415
416.275
415.184
414.162
413.179
439.012
436.768
434.662
432.655
430.736
428.969
427.351
425.884
424.544
423.302
422.131
421.017
419.95
418.924
417.953
417.03
416.238
415.424
439.049
436.735
434.692
432.689
430.839
429.437
428.426
427.889
427.586
427.513
427.381
427.378
427.205
427.106
426.631
426.94
427.145
427.319
439.151
436.679
434.892
433.369
432.374
432.65
434.366
437.474
441.028
445.024
448.353
452.29
455.363
458.225
460.067
462.503
464.009
467.169
439.512
437.832
436.776
440.323
444.833
450.22
460.982
472.748
486.537
499.363
511.413
523.119
532.17
540.328
545.529
552.396
560.842
564.179
444.907
445.932
452.524
475.73
495.065
519.173
550.523
587.496
619.787
657.544
682.056
711.779
728.539
752.014
766.425
776.547
792.309
798.061
489.141
495.383
549.715
633.131
696.587
784.594
866.263
968.201
1043.65
1131.1
1184.08
1245.35
1280.51
1323.74
1344.19
1374.13
1387.39
1411.23
748.277
852.62
1109.54
1392.18
1636.27
1920.63
2163.14
2422.28
2605.07
2782.23
2882.03
2976.44
3025.17
3072.86
3094.49
3119.73
3130.93
3159.91
2280.69
3709.25
5168.46
6302.07
7180.56
7825.74
8274.72
8611.74
8822.2
8931.07
8971.4
8956.14
8946.87
8916.15
8873.57
8848.46
8845.96
8831.71
16112.1
21823.1
23783.3
24734.3
25192.6
25227.3
25161
24990.4
24736.7
24465.4
24194.2
23937.2
23701.4
23489
23298.9
23130.4
22979.5
22846
11463.3
2494.65
2496.87
2499.12
2501.38
2503.67
2505.98
2508.3
2510.65
2513.02
2515.42
2517.83
2520.27
2522.73
2525.21
2527.72
2530.25
2532.8
2535.37
2537.97
2540.6
2543.25
2545.92
2548.62
2551.34
2554.09
2556.87
2559.67
2562.5
2565.35
2568.23
2571.14
2574.08
2577.04
2580.04
2583.06
2586.11
2589.19
2592.3
2595.43
2598.6
2601.8
2605.03
2608.29
2611.59
2614.91
2618.27
2621.66
2625.08
2628.54
2632.03
2635.55
2639.11
3130.17
3158.89
3185.02
3155.94
2657.44
3309.42
2665.03
3134.2
3216.82
3352.12
3438.93
3537.16
3617.26
3701.87
3778.39
3855.29
3927.44
3999.12
4067.55
4135.24
4200.55
4265
4327.64
4389.35
4449.6
4508.89
4566.94
4624.02
4680.02
4735.01
4789.01
4841.97
4893.99
4944.92
4994.91
5043.79
5091.69
5138.48
5184.12
5228.57
5271.78
5313.68
5354.25
5393.45
5431.35
5468.06
5503.92
5539.28
5573.32
5606.45
5638.57
5669.66
5699.76
5728.8
5756.83
5783.77
5809.68
5834.48
5858.23
5880.86
5902.42
5922.86
5942.21
5960.44
5977.58
5993.59
6008.52
6022.33
6035.06
6046.7
6057.28
6066.83
6075.38
6083.16
6090.02
6094.4
6100.31
6101.57
6104.83
6105.71
6107.1
6107.18
6106.42
6103.72
6100.48
6096.09
6090.97
6085.1
6078.51
6071.26
6063.29
6054.71
6045.47
6035.78
6025.28
6014.6
6002.9
5991.27
5978.61
5966.18
5952.65
5939.41
5925.54
5911.64
5897.63
5883.54
5869.46
5855.4
5841.4
5827.47
5813.64
5799.94
5786.45
5773.18
5760.24
5747.64
5735.44
5723.6
5712.13
5700.84
5689.55
5677.83
5665.1
5650.37
5630.85
5601.42
5476.97
11463.3
1993.18
1001.6
817.809
701.394
627.758
635.337
632.644
620.697
598.647
574.335
550.796
528.945
510.787
498.353
489.441
488.813
490.927
517.475
568.226
654.272
757.342
868.489
978.736
1075.69
1151.38
1187.82
1176.17
1138.74
1042.97
916.728
756.728
635.283
554.669
491.749
461.504
461.416
470.615
495.207
527.483
556.679
609.444
714.112
849.762
1064.15
1384.44
1679.99
1880.43
2014.6
2071.01
2087.27
2070.78
2039.57
2028.76
1959.99
1908.6
1872.94
1778.78
1766.64
1717.31
1729.37
1705.17
1698.37
1691.25
1686.04
1684.75
1684.73
1687.57
1690.48
1695.19
1700.54
1706.67
1713.39
1720.49
1727.98
1735.66
1743.55
1751.52
1759.57
1767.64
1775.69
1783.69
1791.62
1799.45
1807.16
1814.72
1822.12
1829.34
1836.34
1843.15
1849.7
1856.03
1862.11
1867.99
1873.71
1879.34
1885.01
1890.92
1897.39
1904.79
1913.56
1921.41
1929.36
1936.93
1944.34
1951.48
1958.4
1965.08
1971.52
1977.73
1983.7
1989.43
1994.92
2000.18
2005.2
2009.99
2014.54
2018.86
2022.95
2026.82
2030.46
2033.88
2037.08
2040.07
2042.86
2045.46
2047.86
2050.04
2051.98
2053.82
2055.28
2056.8
2058.09
2059.25
2059.95
2060.08
2059.48
2058.61
2057.54
2056.32
2054.92
2053.37
2051.65
2049.8
2047.82
2045.78
2043.03
2041.21
2037.71
2035.81
2032.02
2029.92
2025.82
2023.31
2019.81
2016.47
2013.16
2009.7
2006.24
2002.75
1999.23
1995.7
1992.17
1988.64
1985.12
1981.63
1978.17
1974.75
1971.4
1968.12
1964.92
1961.79
1958.77
1955.92
1953.27
1950.92
1948.92
1947.9
1946.91
1955.9
11463.3
2009.73
815.312
645.046
686.636
689.427
662.165
606.503
546.616
490.101
440.256
397.52
363.972
337.699
317.516
302.01
291.268
282.99
281.021
283.495
294.38
313.759
346.932
392.234
448.09
509.96
570.477
617.242
644.349
637.901
618.445
567.634
504.416
437.473
391.497
391.263
403.772
428.978
470.268
547.026
663.809
829.238
1027.73
1202.36
1347.27
1476.86
1559.54
1580.01
1571.87
1521.91
1467.12
1406.23
1351.18
1301.79
1255.33
1219.52
1189.56
1165.25
1148.99
1136.66
1129.33
1121.83
1118.2
1116.1
1115.17
1115.16
1116.7
1118.57
1121.05
1124.05
1127.39
1131.03
1134.9
1138.94
1143.12
1147.39
1151.74
1156.12
1160.53
1164.95
1169.36
1173.75
1178.1
1182.41
1186.67
1190.86
1194.99
1199.05
1203.03
1206.94
1210.78
1214.57
1218.3
1222.01
1225.73
1229.48
1233.32
1237.28
1241.39
1245.66
1249.92
1253.95
1257.92
1261.73
1265.43
1268.99
1272.42
1275.72
1278.89
1281.92
1284.82
1287.59
1290.23
1292.73
1295.1
1297.33
1299.44
1301.4
1303.24
1304.95
1306.52
1307.97
1309.29
1310.48
1311.55
1312.5
1313.32
1314.01
1314.58
1315.04
1315.37
1315.61
1315.72
1315.71
1315.45
1314.99
1314.32
1313.54
1312.65
1311.67
1310.59
1309.41
1308.14
1306.78
1305.33
1303.78
1302.06
1300.44
1298.44
1296.71
1294.54
1292.7
1290.36
1288.39
1286.1
1283.85
1281.56
1279.21
1276.83
1274.42
1271.97
1269.51
1267.02
1264.52
1262.01
1259.49
1256.97
1254.45
1251.95
1249.47
1247.02
1244.63
1242.32
1240.13
1238.13
1236.46
1235.29
1235.31
1236.92
1247.72
11463.3
2037.46
1014.78
988.114
913.567
783.668
665.746
557.982
472.813
409.178
361.234
323.789
294.636
272.278
255.215
242.225
232.519
225.513
220.889
219.276
220.469
223.738
232.429
247.303
269.546
299.149
333.999
369.651
400.216
423.026
426.501
418.524
397.344
404.631
456.794
544.16
604.314
661.06
735.234
843.758
980.649
1094.22
1172.26
1239.3
1290.1
1305.86
1261.97
1222.15
1172.92
1120.19
1074.68
1033.45
999.756
971.236
948.281
930.639
916.653
906.88
899.438
894.671
891.421
889.778
889.232
889.234
890.268
891.752
893.796
896.134
898.789
901.686
904.77
908.008
911.367
914.82
918.347
921.928
925.55
929.197
932.86
936.527
940.189
943.84
947.472
951.08
954.658
958.202
961.711
965.181
968.614
972.014
975.38
978.72
982.038
985.344
988.646
991.952
995.266
998.589
1001.91
1005.19
1008.39
1011.47
1014.47
1017.37
1020.16
1022.85
1025.44
1027.93
1030.31
1032.58
1034.74
1036.8
1038.74
1040.58
1042.31
1043.92
1045.43
1046.82
1048.1
1049.27
1050.33
1051.27
1052.11
1052.83
1053.45
1053.95
1054.34
1054.63
1054.81
1054.88
1054.85
1054.71
1054.45
1054.08
1053.56
1052.9
1052.12
1051.24
1050.27
1049.22
1048.07
1046.84
1045.53
1044.14
1042.66
1041.1
1039.45
1037.75
1035.92
1034.1
1032.14
1030.2
1028.11
1026.08
1023.92
1021.74
1019.52
1017.24
1014.94
1012.6
1010.22
1007.82
1005.4
1002.96
1000.5
998.021
995.537
993.046
990.552
988.07
985.612
983.194
980.84
978.592
976.512
974.713
973.354
973.01
974.149
980.846
11463.3
2311.4
1483.03
1200.23
952.794
736.635
569.159
456.605
379.718
325.883
287.426
259.837
239.838
224.805
213.284
204.476
197.864
193.086
189.928
188.543
188.945
190.378
194.483
201.659
212.963
229.511
251.164
275.573
299.67
317.993
335.176
364.331
439.51
546.791
630.728
697.022
767.829
844.278
916.298
980.1
1035.71
1083.66
1111.51
1117.36
1082.14
1037.38
997.803
957.283
919.177
885.754
858.158
834.842
816.235
801.202
789.693
781.103
774.791
770.726
768.065
767.029
766.723
767.205
768.421
770.116
772.285
774.764
777.526
780.489
783.631
786.913
790.31
793.799
797.363
800.986
804.656
808.36
812.09
815.835
819.589
823.344
827.093
830.831
834.553
838.255
841.933
845.583
849.203
852.793
856.351
859.877
863.375
866.842
870.28
873.69
877.071
880.423
883.737
887.006
890.215
893.354
896.404
899.364
902.233
905.007
907.686
910.266
912.746
915.124
917.4
919.573
921.639
923.599
925.45
927.192
928.822
930.342
931.748
933.042
934.222
935.287
936.238
937.074
937.794
938.399
938.888
939.262
939.518
939.66
939.691
939.622
939.427
939.118
938.693
938.149
937.476
936.682
935.776
934.771
933.669
932.475
931.188
929.812
928.349
926.803
925.173
923.453
921.655
919.784
917.827
915.816
913.724
911.591
909.375
907.132
904.819
902.461
900.057
897.607
895.117
892.59
890.03
887.442
884.83
882.195
879.541
876.871
874.187
871.498
868.813
866.136
863.479
860.856
858.29
855.815
853.488
851.4
849.675
848.715
849.02
852.429
11463.3
2947.62
1752.23
1223.5
843.209
594.941
450.528
360.999
305.425
269.287
244.195
225.75
211.606
200.522
191.698
184.698
179.319
175.421
172.928
171.97
172.393
173.892
177.384
182.906
191.181
203.521
220.788
243.305
273.388
318.946
378.484
478.187
590.229
674.94
741.822
803.146
854.358
894.441
929.399
962.61
978.76
979.371
948.791
918.149
884.111
850.282
819.973
791.993
768.191
748.245
731.967
718.747
708.44
700.563
694.909
691.077
688.917
688.153
688.032
688.919
690.473
692.574
695.119
698.001
701.164
704.54
708.091
711.781
715.585
719.483
723.458
727.496
731.585
735.715
739.877
744.062
748.261
752.469
756.678
760.883
765.077
769.256
773.416
777.552
781.662
785.74
789.785
793.795
797.766
801.702
805.596
809.45
813.261
817.025
820.741
824.403
828.005
831.535
834.988
838.358
841.637
844.822
847.911
850.902
853.791
856.575
859.252
861.82
864.277
866.624
868.857
870.972
872.97
874.848
876.603
878.236
879.745
881.128
882.385
883.516
884.518
885.392
886.137
886.753
887.238
887.593
887.814
887.899
887.886
887.733
887.448
887.033
886.49
885.819
885.017
884.089
883.042
881.883
880.616
879.244
877.769
876.193
874.519
872.756
870.9
868.951
866.915
864.794
862.591
860.315
857.965
855.554
853.073
850.539
847.943
845.293
842.593
839.845
837.054
834.224
831.36
828.466
825.546
822.603
819.639
816.658
813.663
810.66
807.659
804.665
801.69
798.748
795.857
793.048
790.369
787.895
785.731
784.139
783.489
784.681
11463.3
3465.71
1797
1047.98
658.914
463.799
363.852
307.369
271.413
246.237
227.341
212.521
200.577
190.69
182.502
175.856
170.69
166.986
164.838
164.372
165.345
168.093
173.129
180.876
192.18
207.554
230.63
267.512
325.871
416.256
525.102
613.544
682.046
740.537
786.294
820.923
849.172
870.547
879.298
874.032
850.705
828.617
801.38
775.712
750.009
726.44
705.856
688.025
673.248
661.141
651.481
643.993
638.492
634.703
632.652
631.875
631.851
632.912
634.688
637.121
640.052
643.386
647.043
650.954
655.069
659.345
663.752
668.264
672.863
677.532
682.261
687.038
691.853
696.699
701.568
706.451
711.341
716.231
721.114
725.985
730.838
735.668
740.471
745.243
749.979
754.677
759.331
763.939
768.499
773.008
777.465
781.866
786.207
790.485
794.697
798.838
802.905
806.892
810.796
814.605
818.313
821.918
825.416
828.803
832.075
835.23
838.264
841.172
843.953
846.598
849.111
851.491
853.736
855.843
857.812
859.64
861.326
862.869
864.268
865.522
866.631
867.593
868.409
869.077
869.596
869.968
870.179
870.25
870.2
869.99
869.632
869.129
868.481
867.692
866.76
865.691
864.49
863.163
861.713
860.144
858.46
856.662
854.751
852.72
850.583
848.344
846.008
843.578
841.057
838.453
835.77
833.014
830.187
827.294
824.337
821.321
818.249
815.127
811.96
808.75
805.504
802.228
798.924
795.597
792.248
788.881
785.501
782.114
778.727
775.35
771.992
768.665
765.388
762.185
759.1
756.188
753.525
751.294
749.683
749.241
11463.3
3609.55
1577.09
823.505
521.306
387.174
317.884
277.354
251.09
232.567
218.335
206.441
196.03
187.023
179.401
173.241
168.737
166.053
165.149
165.874
168.465
173.548
181.823
195.207
216.366
248.086
296.829
373.724
464.957
546.745
611.712
666.208
711.76
748.032
777.432
795.064
800.794
793.233
775.799
757.966
736.931
717.136
696.704
677.536
659.458
643.518
629.9
618.479
609.204
601.861
596.294
592.339
590.001
589.029
588.928
589.884
591.679
594.24
597.408
601.089
605.184
609.615
614.317
619.238
624.333
629.57
634.922
640.367
645.889
651.472
657.106
662.779
668.483
674.21
679.953
685.701
691.447
697.184
702.903
708.599
714.266
719.9
725.494
731.044
736.547
741.999
747.394
752.728
757.998
763.203
768.338
773.4
778.384
783.286
788.103
792.832
797.47
802.016
806.457
810.784
814.994
819.081
823.042
826.874
830.572
834.133
837.554
840.83
843.96
846.941
849.772
852.448
854.97
857.334
859.539
861.582
863.462
865.177
866.728
868.113
869.331
870.381
871.263
871.976
872.519
872.89
873.076
873.116
872.998
872.704
872.243
871.616
870.827
869.878
868.771
867.51
866.101
864.549
862.858
861.032
859.076
856.992
854.785
852.46
850.02
847.469
844.81
842.049
839.188
836.235
833.195
830.075
826.878
823.607
820.268
816.864
813.402
809.886
806.321
802.712
799.065
795.385
791.678
787.945
784.19
780.418
776.633
772.842
769.053
765.275
761.517
757.792
754.114
750.505
746.982
743.592
740.404
737.55
735.112
733.299
11463.3
3424.48
1289.96
667.049
448.8
352.75
300.65
269.054
247.296
230.818
217.703
206.804
197.538
189.621
183.091
178.181
175.201
174.324
175.803
179.761
186.987
198.979
217.424
246.614
292.155
353.88
424.6
489.721
547.675
597.263
639.365
674.656
705.105
725.337
732.196
728.066
715.272
700.687
684.132
668.308
652.452
637.381
622.602
608.832
596.347
585.588
576.588
569.263
563.539
559.306
556.495
555.137
554.789
555.426
557.021
559.473
562.659
566.488
570.858
575.686
580.894
586.417
592.197
598.187
604.35
610.653
617.072
623.587
630.175
636.821
643.512
650.235
656.978
663.733
670.496
677.254
683.996
690.715
697.402
704.051
710.656
717.212
723.713
730.153
736.524
742.809
749.023
755.163
761.226
767.207
773.106
778.915
784.629
790.245
795.757
801.162
806.453
811.621
816.66
821.567
826.334
830.96
835.438
839.766
843.938
847.952
851.803
855.487
859.001
862.343
865.511
868.502
871.314
873.944
876.391
878.653
880.727
882.612
884.309
885.815
887.13
888.254
889.185
889.924
890.469
890.811
890.951
890.928
890.709
890.297
889.695
888.908
887.937
886.786
885.459
883.958
882.292
880.464
878.479
876.344
874.062
871.638
869.078
866.387
863.568
860.627
857.568
854.396
851.115
847.732
844.254
840.688
837.038
833.308
829.505
825.633
821.7
817.71
813.669
809.581
805.453
801.292
797.101
792.885
788.647
784.393
780.128
775.859
771.594
767.343
763.114
758.919
754.772
750.691
746.704
742.845
739.158
735.742
732.618
729.733
11463.3
2984.55
1039.93
567.827
404.981
331.287
292.112
266.391
248.603
235.446
224.841
215.853
208.216
202.03
197.638
195.75
196.47
200.759
208.66
220.759
239.016
265.711
302.498
348.307
398.078
448.347
495.625
537.789
575.185
607.279
635.63
658.447
668.555
669.55
662.336
651.783
638.918
626.209
613.766
602.012
590.56
579.519
568.92
559.187
550.602
543.364
537.493
532.956
529.702
527.822
527.119
527.293
528.527
530.683
533.687
537.456
541.902
546.945
552.505
558.513
564.904
571.614
578.59
585.784
593.159
600.681
608.33
616.088
623.917
631.797
639.714
647.648
655.58
663.487
671.33
679.137
686.919
694.672
702.383
710.047
717.657
725.207
732.693
740.108
747.448
754.716
761.892
768.966
775.933
782.794
789.542
796.172
802.679
809.057
815.304
821.414
827.382
833.2
838.866
844.374
849.719
854.896
859.901
864.73
869.378
873.842
878.117
882.198
886.084
889.771
893.256
896.538
899.614
902.483
905.141
907.588
909.821
911.839
913.641
915.228
916.598
917.75
918.684
919.4
919.896
920.157
920.211
920.058
919.687
919.1
918.302
917.295
916.084
914.671
913.062
911.261
909.274
907.107
904.767
902.258
899.587
896.76
893.783
890.661
887.4
884.005
880.482
876.837
873.074
869.2
865.223
861.149
856.986
852.738
848.412
844.015
839.554
835.034
830.462
825.842
821.18
816.483
811.756
807.004
802.23
797.443
792.648
787.852
783.063
778.29
773.544
768.833
764.17
759.574
755.065
750.675
746.434
742.418
738.616
734.75
11463.3
2499.58
889.861
522.103
389.056
327.075
292.618
272.037
258.184
247.889
239.745
233.271
228.586
226.475
226.805
231.003
239.269
250.846
266.02
287.019
314.187
346.521
382.237
419.081
455.138
489.314
520.703
548.391
573.586
596.32
609.737
613.758
612.19
606.61
597.986
588.497
578.909
569.824
561.116
552.711
544.466
536.482
528.953
522.18
516.38
511.679
508.113
505.714
504.575
504.356
505.149
506.915
509.622
513.202
517.587
522.703
528.476
534.837
541.716
549.056
556.82
564.924
573.307
581.923
590.727
599.667
608.679
617.709
626.811
635.971
645.171
654.39
663.6
672.785
681.947
691.063
700.122
709.123
718.045
726.884
735.637
744.3
752.869
761.339
769.7
777.942
786.055
794.037
801.886
809.598
817.174
824.602
831.88
839
845.96
852.755
859.38
865.83
872.098
878.18
884.069
889.76
895.251
900.536
905.612
910.473
915.116
919.537
923.732
927.699
931.435
934.94
938.21
941.244
944.041
946.598
948.914
950.987
952.819
954.408
955.754
956.855
957.713
958.326
958.688
958.802
958.68
958.317
957.714
956.872
955.796
954.491
952.959
951.206
949.237
947.057
944.672
942.09
939.317
936.361
933.226
929.922
926.454
922.83
919.055
915.137
911.082
906.895
902.584
898.153
893.613
888.97
884.231
879.404
874.497
869.518
864.474
859.371
854.215
849.009
843.761
838.477
833.163
827.824
822.466
817.098
811.726
806.357
800.999
795.662
790.353
785.082
779.862
774.709
769.643
764.688
759.866
755.239
750.783
746.033
11463.3
2085.59
793.124
492.493
381.758
328.736
300.7
284.111
273.367
265.954
260.802
258.044
257.417
259.693
265.592
275.188
287.918
303.488
322.781
345.473
370.693
397.315
424.245
450.589
475.611
498.584
520.122
540.481
555.376
561.954
563.532
562.721
558.656
552.93
546.404
539.849
533.476
527.332
521.303
515.342
509.473
503.851
498.692
494.231
490.637
488.01
486.546
486.078
486.552
488.036
490.488
493.876
498.171
503.351
509.351
516.07
523.444
531.404
539.878
548.772
557.94
567.426
577.233
587.324
597.654
608.179
618.87
629.707
640.614
651.543
662.463
673.357
684.172
694.879
705.464
715.911
726.209
736.355
746.372
756.27
766.055
775.727
785.287
794.726
804.031
813.19
822.192
831.032
839.707
848.219
856.56
864.725
872.705
880.496
888.094
895.495
902.694
909.686
916.464
923.023
929.355
935.457
941.324
946.954
952.342
957.484
962.376
967.014
971.396
975.519
979.382
982.983
986.321
989.394
992.201
994.743
997.017
999.022
1000.76
1002.23
1003.43
1004.36
1005.02
1005.41
1005.53
1005.38
1004.96
1004.28
1003.34
1002.13
1000.67
998.965
997.011
994.817
992.389
989.734
986.858
983.768
980.472
976.978
973.294
969.427
965.385
961.177
956.809
952.29
947.626
942.825
937.894
932.839
927.669
922.389
917.011
911.545
905.998
900.381
894.7
888.96
883.167
877.326
871.442
865.522
859.572
853.598
847.611
841.618
835.626
829.643
823.675
817.731
811.819
805.949
800.133
794.387
788.728
783.178
777.752
772.5
767.404
761.839
11463.3
1958.17
775.934
489.473
384.777
337.517
313.393
299.832
291.74
287.137
285.236
285.161
287.921
293.648
302.3
313.59
327.188
343.123
360.953
380.087
399.933
419.731
438.899
457.183
474.899
492.046
506.08
514.486
518.48
519.992
519.992
518.073
514.895
511.126
507.126
503.103
499.088
495.07
491.037
487.04
483.194
479.675
476.673
474.376
473.053
472.637
473.212
474.901
477.542
481.123
485.621
490.999
497.186
504.042
511.549
519.803
528.778
538.416
548.651
559.427
570.728
582.46
594.553
606.951
619.602
632.441
645.41
658.473
671.53
684.488
697.278
709.83
722.131
734.17
745.941
757.447
768.704
779.743
790.606
801.323
811.909
822.376
832.728
842.949
853.015
862.911
872.624
882.147
891.476
900.609
909.543
918.267
926.772
935.053
943.105
950.926
958.51
965.854
972.949
979.79
986.369
992.682
998.725
1004.5
1009.99
1015.21
1020.15
1024.8
1029.17
1033.24
1037.03
1040.53
1043.74
1046.65
1049.28
1051.61
1053.66
1055.41
1056.87
1058.05
1058.93
1059.51
1059.81
1059.81
1059.54
1058.96
1058.1
1056.95
1055.52
1053.82
1051.84
1049.6
1047.09
1044.33
1041.33
1038.08
1034.6
1030.89
1026.97
1022.83
1018.5
1013.97
1009.26
1004.38
999.331
994.125
988.77
983.275
977.648
971.896
966.027
960.043
953.962
947.796
941.554
935.243
928.871
922.443
915.963
909.437
902.871
896.267
889.634
882.983
876.325
869.667
863.017
856.382
849.767
843.18
836.628
830.123
823.677
817.306
811.026
804.855
798.804
792.914
787.184
780.854
11463.3
1873.87
750.204
486.935
392.023
349.5
328.441
317.121
310.969
308.21
307.604
309.47
314.061
321.012
330.025
340.753
352.919
366.246
380.348
394.819
409.21
423.399
437.561
451.357
463.114
471.323
477.05
481.003
483.067
483.901
484.022
483.235
481.871
480.196
478.338
476.368
474.325
472.262
470.268
468.503
467.227
466.526
466.368
466.956
468.389
470.627
473.572
477.131
481.632
487.137
493.646
501.133
509.566
518.951
529.264
540.436
552.417
565.125
578.478
592.406
606.848
621.7
636.867
652.273
667.884
683.563
699.171
714.571
729.681
744.438
758.778
772.647
786.022
798.899
811.282
823.202
834.723
845.938
856.967
867.877
878.678
889.402
900.063
910.624
921.017
931.235
941.261
951.08
960.683
970.069
979.227
988.148
996.821
1005.24
1013.39
1021.28
1028.91
1036.26
1043.33
1050.12
1056.61
1062.8
1068.69
1074.28
1079.56
1084.53
1089.2
1093.55
1097.59
1101.31
1104.73
1107.83
1110.62
1113.1
1115.28
1117.15
1118.72
1119.96
1120.9
1121.53
1121.85
1121.86
1121.58
1120.97
1120.07
1118.86
1117.35
1115.54
1113.44
1111.06
1108.4
1105.47
1102.26
1098.79
1095.06
1091.09
1086.87
1082.42
1077.74
1072.85
1067.75
1062.46
1056.97
1051.32
1045.49
1039.5
1033.37
1027.1
1020.69
1014.17
1007.53
1000.77
993.928
987.006
980.014
972.958
965.844
958.676
951.462
944.205
936.911
929.58
922.224
914.859
907.495
900.139
892.798
885.477
878.183
870.921
863.698
856.528
849.425
842.404
835.48
828.667
821.974
815.433
809.072
802.019
11463.3
1857.4
750.325
494.171
403.563
363.385
343.572
333.046
327.602
325.375
325.08
327.469
332.205
338.731
346.62
355.52
365.213
375.465
386.027
396.68
407.599
418.123
427.162
434.609
440.722
445.989
450.144
453.427
455.992
458.07
459.824
461.351
462.582
463.578
464.408
465.136
465.828
466.555
467.375
468.304
469.19
470.634
472.894
476.244
480.586
485.923
492.299
499.812
508.416
518.142
528.993
540.917
553.866
567.814
582.716
598.544
615.258
632.633
650.528
668.823
687.405
706.148
724.928
743.614
762.037
780.115
797.761
814.859
831.295
846.964
861.796
875.769
888.92
901.286
912.859
923.705
933.973
943.852
953.699
963.627
973.535
983.506
993.594
1003.7
1013.74
1023.64
1033.37
1042.88
1052.16
1061.21
1070.02
1078.58
1086.87
1094.89
1102.62
1110.06
1117.21
1124.07
1130.63
1136.87
1142.8
1148.4
1153.66
1158.61
1163.22
1167.5
1171.46
1175.07
1178.36
1181.31
1183.93
1186.22
1188.19
1189.85
1191.19
1192.23
1192.93
1193.31
1193.36
1193.14
1192.57
1191.69
1190.5
1189.01
1187.2
1185.09
1182.67
1179.96
1176.96
1173.67
1170.1
1166.26
1162.14
1157.76
1153.12
1148.23
1143.1
1137.73
1132.14
1126.33
1120.31
1114.1
1107.71
1101.13
1094.4
1087.51
1080.47
1073.3
1066.01
1058.6
1051.09
1043.51
1035.85
1028.13
1020.34
1012.49
1004.58
996.629
988.633
980.601
972.54
964.445
956.335
948.228
940.131
932.05
923.99
915.958
907.959
899.997
892.078
884.221
876.442
868.753
861.168
853.699
846.353
839.154
832.167
824.43
11463.3
1834.69
749.933
502.473
413.608
374.5
355.452
344.946
339.35
337.005
336.592
338.593
342.607
348.019
354.412
361.515
369.21
377.385
385.825
393.975
401.74
409.074
416.189
422.827
429.081
435.027
440.63
445.925
450.867
455.434
459.545
462.971
466.136
469.215
472.297
475.47
478.826
482.463
486.485
491.035
496.402
502.709
510.248
519.257
529.338
540.537
552.898
566.469
581.206
597.148
614.393
632.683
651.853
671.769
692.293
713.239
734.435
755.83
777.311
798.757
820.044
841.056
861.684
881.825
901.378
920.265
938.411
955.734
972.139
987.482
1001.67
1014.79
1027
1038.42
1049.1
1059.08
1068.38
1077.08
1085.36
1093.36
1101.24
1109.4
1118.08
1126.9
1135.73
1144.43
1152.95
1161.25
1169.31
1177.14
1184.73
1192.06
1199.12
1205.9
1212.39
1218.58
1224.48
1230.09
1235.4
1240.38
1245.03
1249.34
1253.31
1256.95
1260.26
1263.23
1265.87
1268.16
1270.12
1271.75
1273.05
1274.02
1274.67
1275
1275.01
1274.77
1274.19
1273.28
1272.07
1270.57
1268.78
1266.68
1264.29
1261.61
1258.64
1255.38
1251.84
1248
1243.89
1239.5
1234.83
1229.91
1224.72
1219.28
1213.59
1207.67
1201.5
1195.11
1188.51
1181.69
1174.68
1167.48
1160.11
1152.57
1144.87
1137.02
1129.04
1120.94
1112.72
1104.39
1095.96
1087.49
1078.95
1070.35
1061.69
1052.97
1044.2
1035.39
1026.54
1017.67
1008.78
999.888
991.011
982.147
973.301
964.476
955.678
946.914
938.19
929.509
920.881
912.329
903.865
895.502
887.249
879.119
871.118
863.262
855.655
847.279
11463.3
1821.33
752.321
507.886
420.174
382.135
363.325
352.679
346.962
344.499
343.994
345.738
349.407
354.454
360.46
367.187
374.445
382.077
389.979
398.284
406.518
414.631
422.737
430.785
438.829
446.905
455.03
463.216
471.298
479.304
487.299
495.442
503.754
512.324
521.249
530.634
540.59
551.232
562.666
575.023
588.455
602.952
618.483
634.805
652.116
670.463
689.891
710.451
731.974
754.263
777.117
800.715
824.726
848.92
873.119
897.139
920.834
944.071
966.738
988.721
1009.95
1030.37
1049.93
1068.6
1086.35
1103.17
1119.05
1133.99
1148
1161.1
1173.33
1184.49
1194.89
1204.67
1213.93
1222.68
1230.75
1238.18
1244.88
1251.01
1256.96
1263.36
1269.89
1276.33
1282.63
1288.74
1294.66
1300.37
1305.88
1311.19
1316.29
1321.17
1325.81
1330.2
1334.34
1338.22
1341.85
1345.23
1348.34
1351.17
1353.69
1355.89
1357.78
1359.38
1360.69
1361.7
1362.4
1362.8
1362.89
1362.72
1362.23
1361.44
1360.38
1359.04
1357.44
1355.57
1353.43
1351.01
1348.33
1345.38
1342.18
1338.73
1335.02
1331.05
1326.83
1322.36
1317.63
1312.65
1307.41
1301.93
1296.2
1290.24
1284.04
1277.61
1270.96
1264.09
1257.01
1249.71
1242.23
1234.55
1226.69
1218.65
1210.46
1202.11
1193.61
1184.98
1176.22
1167.34
1158.36
1149.26
1140.07
1130.8
1121.45
1112.04
1102.56
1093.02
1083.44
1073.82
1064.16
1054.48
1044.78
1035.1
1025.44
1015.8
1006.17
996.568
986.998
977.467
967.986
958.572
949.244
940.006
930.866
921.835
912.92
904.137
895.49
886.992
878.779
869.817
11463.3
1809.01
753.873
510.883
423.639
387.762
369.565
359.641
355.409
353.928
354.512
357.676
362.631
368.936
376.54
385.643
395.292
405.488
416.715
429.106
441.978
455.263
469.218
483.861
499.171
515.119
531.675
548.765
566.428
584.663
603.496
622.959
642.966
663.513
684.648
706.445
729.032
752.588
777.015
802.214
828.081
854.469
881.195
908.072
935.135
962.392
989.937
1018.36
1046.77
1074.67
1101.64
1127.4
1152.03
1175.55
1197.88
1218.99
1238.79
1257.27
1274.42
1290.3
1304.91
1318.33
1330.58
1341.74
1351.82
1360.89
1369.02
1376.27
1382.76
1388.67
1394.29
1399.66
1404.74
1409.39
1413.62
1417.38
1420.48
1423.27
1426
1429
1432.34
1435.49
1438.03
1440.22
1442.21
1444.06
1445.8
1447.46
1449.01
1450.46
1451.8
1453.01
1454.09
1455.02
1455.8
1456.43
1456.91
1457.21
1457.34
1457.28
1456.99
1456.41
1455.64
1454.67
1453.47
1452.06
1450.42
1448.55
1446.44
1444.12
1441.58
1438.82
1435.85
1432.68
1429.3
1425.71
1421.92