/*--------------------------------*- C++ -*----------------------------------*\
  =========                 |
  \\      /  F ield         | OpenFOAM: The Open Source CFD Toolbox
   \\    /   O peration     | Website:  https://openfoam.org
    \\  /    A nd           | Version:  8
     \\/     M anipulation  |
\*---------------------------------------------------------------------------*/
FoamFile
{
    version     2.0;
    format      ascii;
    class       volScalarField;
    location    "700";
    object      p;
}
// * * * * * * * * * * * * * * * * * * * * * * * * * * * * * * * * * * * * * //

dimensions      [0 2 -2 0 0 0 0];

internalField   nonuniform List<scalar> 
12225
(
-4.16313
-5.06274
-5.45379
-5.57544
-5.70654
-5.85287
-5.9709
-6.06377
-6.14809
-6.22795
-6.30003
-6.37164
-6.44404
-6.51628
-6.59133
-6.66858
-6.75917
-6.8588
-4.42502
-5.08698
-5.4203
-5.53865
-5.66661
-5.81095
-5.93293
-6.03561
-6.12437
-6.20473
-6.28021
-6.35242
-6.4234
-6.49325
-6.56598
-6.64571
-6.72824
-6.79928
-4.64765
-5.09358
-5.40499
-5.54554
-5.67388
-5.81264
-5.93432
-6.0372
-6.12468
-6.20374
-6.27952
-6.35171
-6.42157
-6.49046
-6.56134
-6.63555
-6.70811
-6.76708
-4.80645
-5.12243
-5.41457
-5.56355
-5.6841
-5.81262
-5.92923
-6.02873
-6.1147
-6.19364
-6.26922
-6.34124
-6.41063
-6.47875
-6.54723
-6.616
-6.68133
-6.73555
-4.93943
-5.17479
-5.43387
-5.58116
-5.69577
-5.81647
-5.92864
-6.02546
-6.11043
-6.18895
-6.26371
-6.33471
-6.40284
-6.46921
-6.5346
-6.5984
-6.65783
-6.70764
-5.05639
-5.23159
-5.45332
-5.5969
-5.70853
-5.82281
-5.93031
-6.02436
-6.10791
-6.18533
-6.25868
-6.32823
-6.39477
-6.45909
-6.52146
-6.58102
-6.63573
-6.68213
-5.16203
-5.28958
-5.47546
-5.61287
-5.72142
-5.82934
-5.93183
-6.02303
-6.10496
-6.18106
-6.25293
-6.32099
-6.38586
-6.44806
-6.50752
-6.56343
-6.61435
-6.6582
-5.24375
-5.34022
-5.49825
-5.62764
-5.73254
-5.8351
-5.93319
-6.02182
-6.10217
-6.17693
-6.24742
-6.31405
-6.37733
-6.43757
-6.4946
-6.54775
-6.59604
-6.63797
-5.31017
-5.3857
-5.52087
-5.64185
-5.74293
-5.84062
-5.93466
-6.02082
-6.09955
-6.17292
-6.24204
-6.30729
-6.36904
-6.42748
-6.48244
-6.53338
-6.57961
-6.6201
-5.37631
-5.43489
-5.54784
-5.65874
-5.755
-5.84732
-5.93675
-6.01992
-6.09659
-6.16821
-6.23566
-6.29926
-6.35926
-6.41576
-6.46858
-6.51739
-6.56171
-6.60085
-5.4412
-5.48639
-5.579
-5.67847
-5.7688
-5.85534
-5.93967
-6.01929
-6.09342
-6.16289
-6.22834
-6.29003
-6.34809
-6.4025
-6.45322
-6.49994
-6.5425
-6.58035
-5.5037
-5.53861
-5.61354
-5.70086
-5.78426
-5.8647
-5.94356
-6.01909
-6.0902
-6.15712
-6.22026
-6.27978
-6.33569
-6.38797
-6.43655
-6.48132
-6.52217
-6.55886
-5.56265
-5.58982
-5.65006
-5.72533
-5.80105
-5.87519
-5.94839
-6.01941
-6.08704
-6.15106
-6.21159
-6.26872
-6.32232
-6.37242
-6.4189
-6.4618
-6.50107
-6.5366
-5.61656
-5.63801
-5.68655
-5.75069
-5.81846
-5.88627
-5.95381
-6.02011
-6.08395
-6.14478
-6.20251
-6.25703
-6.3083
-6.35614
-6.40067
-6.44176
-6.47962
-6.51405
-5.66351
-5.68079
-5.72041
-5.77503
-5.83525
-5.89697
-5.95914
-6.02078
-6.08073
-6.13827
-6.19308
-6.24499
-6.29386
-6.33962
-6.38223
-6.42175
-6.45824
-6.49174
-5.70081
-5.71519
-5.74844
-5.79563
-5.84941
-5.90576
-5.96318
-6.0206
-6.07691
-6.13131
-6.18335
-6.23278
-6.27943
-6.32324
-6.36416
-6.40226
-6.43757
-6.47021
-5.7246
-5.73717
-5.76644
-5.80874
-5.85795
-5.9103
-5.96412
-6.01826
-6.07167
-6.1235
-6.17323
-6.22059
-6.26539
-6.30757
-6.34708
-6.38399
-6.41834
-6.45026
-5.72864
-5.74066
-5.76873
-5.80944
-5.85696
-5.90768
-5.9599
-6.01253
-6.06445
-6.11491
-6.1633
-6.20945
-6.25308
-6.29424
-6.33281
-6.36897
-6.40266
-6.43413
-5.71242
-5.72518
-5.75486
-5.79739
-5.84635
-5.89801
-5.95091
-6.00395
-6.05612
-6.10652
-6.15479
-6.2006
-6.24394
-6.28467
-6.32292
-6.35866
-6.39211
-6.42329
-5.68099
-5.69565
-5.72948
-5.7767
-5.82948
-5.88405
-5.93929
-5.99427
-6.04784
-6.09926
-6.14814
-6.19439
-6.2379
-6.27874
-6.31692
-6.35263
-6.38594
-6.4171
-5.63747
-5.65547
-5.69621
-5.75075
-5.80907
-5.86784
-5.92665
-5.98458
-6.04039
-6.09341
-6.14344
-6.19047
-6.2345
-6.27563
-6.31398
-6.34975
-6.38307
-6.41419
-5.58373
-5.60696
-5.65802
-5.72222
-5.78717
-5.85094
-5.91419
-5.97576
-6.03427
-6.08921
-6.14065
-6.18865
-6.23335
-6.27484
-6.31343
-6.34924
-6.38261
-6.41369
-5.52046
-5.55207
-5.61763
-5.6934
-5.76527
-5.8345
-5.90278
-5.96836
-6.0297
-6.08667
-6.13959
-6.18863
-6.23395
-6.27582
-6.31453
-6.35043
-6.38372
-6.41479
-5.44774
-5.49256
-5.57782
-5.66596
-5.74415
-5.81911
-5.8929
-5.96258
-6.02665
-6.08558
-6.13991
-6.18991
-6.23578
-6.2779
-6.31667
-6.35248
-6.3857
-6.41664
-5.36469
-5.43008
-5.54119
-5.64123
-5.72419
-5.80484
-5.88437
-5.95805
-6.02471
-6.08552
-6.14121
-6.19205
-6.23833
-6.28054
-6.31919
-6.35477
-6.38772
-6.41848
-5.27146
-5.36575
-5.50805
-5.61878
-5.70537
-5.79154
-5.87652
-5.95386
-6.02296
-6.08563
-6.14275
-6.19447
-6.24121
-6.28351
-6.322
-6.3573
-6.38995
-6.42058
-5.16979
-5.30389
-5.47587
-5.59372
-5.6856
-5.7792
-5.86998
-5.95063
-6.0219
-6.0862
-6.14449
-6.1969
-6.24387
-6.28602
-6.32417
-6.35906
-6.3913
-6.42161
-5.04628
-5.25936
-5.45306
-5.5655
-5.66205
-5.76615
-5.86474
-5.95019
-6.02492
-6.09194
-6.15215
-6.20576
-6.25325
-6.29543
-6.33316
-6.36749
-6.39937
-6.43007
-4.84585
-5.23163
-5.46234
-5.559
-5.65033
-5.75808
-5.85944
-5.94622
-6.02217
-6.09071
-6.15236
-6.20716
-6.25551
-6.29813
-6.33574
-6.36913
-6.39957
-6.42844
-4.57608
-5.1522
-5.45238
-5.5611
-5.66023
-5.77623
-5.88304
-5.97251
-6.0497
-6.11894
-6.1809
-6.2356
-6.28347
-6.32509
-6.36094
-6.39107
-6.41655
-6.43773
-7.41406
-7.41417
-7.41422
-7.41422
-7.41394
-7.41273
-7.41014
-7.40667
-7.40333
-7.40116
-7.40119
-7.40363
-7.40797
-7.4134
-7.41913
-7.42446
-7.42883
-7.43179
-7.43334
-7.43385
-7.4336
-7.43281
-7.43174
-7.43068
-7.42988
-7.42943
-7.42926
-7.42917
-7.42898
-7.4286
-7.42805
-7.42734
-7.42641
-7.42518
-7.42373
-7.42242
-7.42195
-7.42303
-7.42563
-7.42894
-7.43193
-7.43412
-7.43577
-7.43737
-7.43944
-7.4425
-7.44609
-7.44911
-7.45134
-7.45525
-7.4649
-7.4841
-7.51237
-7.54814
-7.5913
-7.64315
-7.70368
-7.771
-7.84309
-7.91739
-7.99192
-8.0653
-8.13622
-8.20328
-8.26583
-8.3235
-8.3762
-8.42385
-8.46661
-8.50452
-8.53776
-8.5664
-8.5906
-8.61039
-8.62587
-8.63704
-8.64394
-8.64654
-8.64481
-8.63873
-8.62822
-8.61323
-8.59367
-8.5695
-8.5406
-8.50696
-8.46841
-8.42489
-8.37623
-8.32236
-8.2633
-8.19894
-8.12919
-8.05395
-7.97312
-7.88666
-7.79455
-7.69692
-7.59376
-7.48475
-7.36947
-7.24797
-7.12042
-6.98689
-6.8474
-6.70199
-6.55067
-6.3935
-6.2305
-6.06175
-5.88729
-5.70723
-5.52163
-5.3306
-5.13426
-4.93272
-4.72611
-4.51459
-4.29831
-4.07744
-3.85215
-3.62264
-3.38912
-3.15177
-2.91085
-2.66656
-2.41915
-2.16887
-1.91599
-1.66079
-1.40355
-1.14449
-0.883868
-0.62198
-0.359233
-0.0958857
0.168124
0.432722
0.697501
0.962196
1.22651
1.49022
1.75308
2.01492
2.27555
2.5348
2.79253
3.04858
3.30282
3.55509
3.80525
4.05316
4.29868
4.5417
4.78209
5.01977
5.25466
5.48667
5.71575
5.94185
6.1649
6.38486
6.60166
6.81526
7.02558
7.23258
7.43619
7.63637
7.83305
8.02618
8.21568
8.40148
8.58349
8.76161
8.93578
9.10603
9.27269
9.43549
9.59777
9.75086
-7.41531
-7.41549
-7.41588
-7.41629
-7.41631
-7.41549
-7.4135
-7.41092
-7.40904
-7.40885
-7.41066
-7.41429
-7.41923
-7.4248
-7.43036
-7.43541
-7.43955
-7.4426
-7.44434
-7.44457
-7.44341
-7.4412
-7.43839
-7.43551
-7.43298
-7.43109
-7.42986
-7.42907
-7.42845
-7.42784
-7.42727
-7.42671
-7.42608
-7.4253
-7.42434
-7.42372
-7.42422
-7.42632
-7.42964
-7.43302
-7.43527
-7.43605
-7.43588
-7.43481
-7.43323
-7.43289
-7.43622
-7.44298
-7.44958
-7.45691
-7.4684
-7.48502
-7.50848
-7.5422
-7.58865
-7.64662
-7.71309
-7.7855
-7.86106
-7.93757
-8.01329
-8.08635
-8.15522
-8.21937
-8.27885
-8.33348
-8.38334
-8.42848
-8.46904
-8.5051
-8.53681
-8.56423
-8.58745
-8.6065
-8.62142
-8.63221
-8.63886
-8.64133
-8.63959
-8.63358
-8.62323
-8.60847
-8.58921
-8.5654
-8.53693
-8.50374
-8.46573
-8.42277
-8.37474
-8.32158
-8.26328
-8.19974
-8.13086
-8.05653
-7.97666
-7.89114
-7.79987
-7.7027
-7.5995
-7.49031
-7.37538
-7.25467
-7.12805
-6.99548
-6.85699
-6.71257
-6.56225
-6.40608
-6.24408
-6.07633
-5.90287
-5.72379
-5.53918
-5.34912
-5.15374
-4.95314
-4.74746
-4.53685
-4.32145
-4.10144
-3.87698
-3.64827
-3.41551
-3.17891
-2.93868
-2.69506
-2.44827
-2.19857
-1.94622
-1.69151
-1.43468
-1.17595
-0.915557
-0.653711
-0.39068
-0.126786
0.137488
0.401969
0.66664
0.93124
1.19549
1.45916
1.72202
1.98389
2.24458
2.50392
2.76176
3.01795
3.27235
3.5248
3.77516
4.02329
4.26905
4.51232
4.75299
4.99097
5.22615
5.45847
5.68787
5.91429
6.13767
6.35796
6.5751
6.78904
6.99972
7.20707
7.41105
7.61159
7.80865
8.00217
8.19207
8.37832
8.56087
8.73961
8.9145
9.08539
9.25257
9.41564
9.58
9.73235
-7.41663
-7.41662
-7.41666
-7.41675
-7.41685
-7.41688
-7.41708
-7.41799
-7.42009
-7.42353
-7.42812
-7.43349
-7.43919
-7.44478
-7.44988
-7.45417
-7.45746
-7.45962
-7.46058
-7.46028
-7.45875
-7.45613
-7.4526
-7.4484
-7.44379
-7.43905
-7.43449
-7.43039
-7.42695
-7.42425
-7.42222
-7.42063
-7.41918
-7.41794
-7.41747
-7.41857
-7.42174
-7.42654
-7.43134
-7.43419
-7.43389
-7.43156
-7.4294
-7.42885
-7.42946
-7.43139
-7.43717
-7.44787
-7.46285
-7.48288
-7.5087
-7.54039
-7.57843
-7.62349
-7.67567
-7.73381
-7.79616
-7.8611
-7.92711
-7.99301
-8.05788
-8.12071
-8.1807
-8.23737
-8.29049
-8.33987
-8.38542
-8.42709
-8.46487
-8.49875
-8.52875
-8.55485
-8.57706
-8.59538
-8.60978
-8.62023
-8.62669
-8.62911
-8.62743
-8.62158
-8.61148
-8.59706
-8.57823
-8.5549
-8.52698
-8.49439
-8.45703
-8.41478
-8.36751
-8.31516
-8.2577
-8.19506
-8.12711
-8.05375
-7.97492
-7.89049
-7.8004
-7.7045
-7.60263
-7.49478
-7.38107
-7.26151
-7.13608
-7.00473
-6.86747
-6.7243
-6.57525
-6.42034
-6.25962
-6.09313
-5.92095
-5.74314
-5.55979
-5.37099
-5.17684
-4.97747
-4.77301
-4.56358
-4.34935
-4.13047
-3.90712
-3.6795
-3.44777
-3.21217
-2.9729
-2.7302
-2.48428
-2.2354
-1.98383
-1.72984
-1.47367
-1.21556
-0.955738
-0.694466
-0.431999
-0.168639
0.095235
0.359415
0.623802
0.88814
1.15217
1.41565
1.67837
1.94013
2.20075
2.46006
2.7179
2.97411
3.22856
3.48108
3.73154
3.97979
4.2257
4.46914
4.71
4.94818
5.18358
5.41613
5.64575
5.8724
6.096
6.31652
6.53388
6.74804
6.95894
7.1665
7.37068
7.57142
7.76866
7.96234
8.15242
8.33879
8.52139
8.7002
8.87523
9.04649
9.21456
9.37831
9.54534
9.69342
-7.41777
-7.41748
-7.4171
-7.41712
-7.41833
-7.42114
-7.42535
-7.43057
-7.43645
-7.44268
-7.44895
-7.45499
-7.4606
-7.46556
-7.46972
-7.47293
-7.47508
-7.47612
-7.47601
-7.47472
-7.47229
-7.46877
-7.46427
-7.45887
-7.45269
-7.44586
-7.4386
-7.4312
-7.42404
-7.41752
-7.41189
-7.40738
-7.40426
-7.4031
-7.40468
-7.40919
-7.41535
-7.42097
-7.42455
-7.42578
-7.42537
-7.42505
-7.42637
-7.43009
-7.43678
-7.44725
-7.46232
-7.48258
-7.50813
-7.53866
-7.57367
-7.61284
-7.65593
-7.70276
-7.7531
-7.80648
-7.86226
-7.9196
-7.97765
-8.03562
-8.09282
-8.14854
-8.20223
-8.25345
-8.30188
-8.3473
-8.38954
-8.42846
-8.464
-8.49606
-8.52461
-8.54958
-8.57093
-8.5886
-8.60254
-8.6127
-8.619
-8.62139
-8.61977
-8.61409
-8.60424
-8.59015
-8.57172
-8.54886
-8.52148
-8.48948
-8.45276
-8.4112
-8.36467
-8.31312
-8.2565
-8.19471
-8.12764
-8.05518
-7.97724
-7.89371
-7.80451
-7.70953
-7.6087
-7.50198
-7.3894
-7.27097
-7.14666
-7.01645
-6.88034
-6.73832
-6.59043
-6.43669
-6.27715
-6.11184
-5.94083
-5.7642
-5.58202
-5.39438
-5.20139
-5.00317
-4.79982
-4.59151
-4.37836
-4.16055
-3.93823
-3.71161
-3.48086
-3.2462
-3.00783
-2.76598
-2.52088
-2.27278
-2.02195
-1.76864
-1.5131
-1.25556
-0.996277
-0.73552
-0.47357
-0.210715
0.0527636
0.316649
0.580768
0.844858
1.10867
1.37197
1.63455
1.89621
2.15676
2.41603
2.67386
2.9301
3.18458
3.43716
3.6877
3.93605
4.18209
4.42567
4.66669
4.90504
5.14063
5.37337
5.6032
5.83004
6.05385
6.27456
6.49212
6.70647
6.91755
7.12529
7.32963
7.53052
7.72789
7.9217
8.11188
8.29838
8.48114
8.66012
8.83539
9.00693
9.17547
9.3392
9.50684
9.64844
-7.42012
-7.41951
-7.41911
-7.4206
-7.42499
-7.43153
-7.4391
-7.44699
-7.4547
-7.46191
-7.46847
-7.4743
-7.47936
-7.48358
-7.48687
-7.48916
-7.49036
-7.49044
-7.48937
-7.48712
-7.4837
-7.47915
-7.47352
-7.46687
-7.45926
-7.45078
-7.4415
-7.43168
-7.42165
-7.41197
-7.40326
-7.39643
-7.39249
-7.39245
-7.3961
-7.40142
-7.40663
-7.411
-7.41442
-7.4174
-7.42084
-7.42588
-7.43355
-7.44487
-7.46069
-7.48122
-7.50597
-7.53435
-7.56612
-7.60091
-7.63848
-7.67879
-7.72177
-7.76734
-7.81528
-7.86519
-7.91658
-7.9689
-8.02155
-8.07396
-8.12564
-8.17609
-8.22488
-8.27167
-8.31619
-8.35819
-8.39749
-8.43393
-8.46737
-8.49771
-8.52485
-8.54868
-8.56912
-8.58609
-8.59951
-8.60929
-8.61535
-8.61761
-8.61597
-8.61035
-8.60066
-8.5868
-8.56867
-8.54618
-8.51924
-8.48773
-8.45156
-8.41059
-8.36471
-8.31384
-8.25795
-8.19691
-8.13062
-8.05896
-7.98181
-7.8991
-7.81071
-7.71658
-7.61662
-7.51084
-7.3992
-7.28171
-7.15833
-7.02905
-6.89387
-6.7528
-6.60585
-6.45307
-6.29447
-6.13011
-5.96005
-5.78437
-5.60313
-5.41642
-5.22436
-5.02704
-4.8246
-4.61716
-4.40488
-4.1879
-3.96641
-3.74057
-3.51059
-3.27665
-3.03899
-2.7978
-2.55334
-2.30584
-2.05558
-1.80279
-1.54772
-1.29062
-1.03174
-0.771359
-0.509778
-0.247253
0.0159454
0.279609
0.543511
0.807409
1.07105
1.3342
1.59666
1.85823
2.11872
2.37796
2.63578
2.89203
3.14653
3.39916
3.64975
3.89817
4.14429
4.38798
4.62911
4.86759
5.10331
5.3362
5.56618
5.79318
6.01715
6.23803
6.45576
6.67027
6.8815
7.08939
7.29389
7.49493
7.69246
7.88642
8.07675
8.2634
8.44632
8.62547
8.80089
8.97249
9.14096
9.30396
9.47095
9.60554
-7.42452
-7.42358
-7.42414
-7.42883
-7.43658
-7.44538
-7.45428
-7.46279
-7.4706
-7.47763
-7.48388
-7.48934
-7.49395
-7.49763
-7.50032
-7.50194
-7.50246
-7.50182
-7.50001
-7.49702
-7.49284
-7.48752
-7.48107
-7.47349
-7.46478
-7.45504
-7.44443
-7.43315
-7.42161
-7.41054
-7.40082
-7.39382
-7.39059
-7.39087
-7.39307
-7.39597
-7.39952
-7.40412
-7.41011
-7.4174
-7.42635
-7.43824
-7.45408
-7.47391
-7.49745
-7.52427
-7.55407
-7.58644
-7.62115
-7.658
-7.69685
-7.7376
-7.78016
-7.82439
-7.8701
-7.91698
-7.96471
-8.01291
-8.06119
-8.10916
-8.15645
-8.2027
-8.2476
-8.29083
-8.33216
-8.37134
-8.40818
-8.44249
-8.47414
-8.50295
-8.52881
-8.5516
-8.57119
-8.58748
-8.60037
-8.60975
-8.61554
-8.61762
-8.6159
-8.61029
-8.60068
-8.58698
-8.56908
-8.54688
-8.52028
-8.48917
-8.45345
-8.41298
-8.36763
-8.31735
-8.26207
-8.20167
-8.13603
-8.06502
-7.98854
-7.90648
-7.81877
-7.72532
-7.62608
-7.52102
-7.41011
-7.29333
-7.17067
-7.0421
-6.90764
-6.76728
-6.62104
-6.46896
-6.31108
-6.14743
-5.97808
-5.8031
-5.62255
-5.43654
-5.24515
-5.0485
-4.84672
-4.63993
-4.42827
-4.2119
-3.991
-3.76573
-3.53628
-3.30286
-3.06569
-2.82497
-2.58095
-2.33387
-2.08399
-1.83155
-1.57679
-1.31998
-1.06137
-0.801258
-0.539921
-0.277613
-0.0145949
0.248912
0.51266
0.776411
1.03991
1.30296
1.56532
1.82681
2.08724
2.34645
2.60424
2.86047
3.11497
3.3676
3.61821
3.86666
4.11281
4.35654
4.59772
4.83626
5.07205
5.30501
5.53507
5.76217
5.98623
6.2072
6.42503
6.63964
6.85098
7.05898
7.26358
7.46473
7.66235
7.85641
8.04684
8.23358
8.41659
8.5958
8.77121
8.94266
9.11076
9.2727
9.43876
9.56656
-7.42995
-7.42951
-7.43241
-7.43996
-7.44911
-7.45818
-7.46682
-7.47488
-7.48229
-7.48901
-7.495
-7.50017
-7.50446
-7.50777
-7.51005
-7.51123
-7.51128
-7.51017
-7.50787
-7.50439
-7.49974
-7.49395
-7.48691
-7.47861
-7.46914
-7.45871
-7.44756
-7.43598
-7.42447
-7.41388
-7.40544
-7.39999
-7.39692
-7.39524
-7.3949
-7.39644
-7.40049
-7.40692
-7.41566
-7.42738
-7.44264
-7.46138
-7.48339
-7.50842
-7.53619
-7.56637
-7.59873
-7.6331
-7.66929
-7.70713
-7.74644
-7.78709
-7.82894
-7.87185
-7.91565
-7.96015
-8.00511
-8.05027
-8.09536
-8.1401
-8.1842
-8.22738
-8.26938
-8.30994
-8.34882
-8.38581
-8.42072
-8.45334
-8.4835
-8.51105
-8.53584
-8.55771
-8.57655
-8.59222
-8.60461
-8.6136
-8.61909
-8.62097
-8.61914
-8.61349
-8.60391
-8.59031
-8.57257
-8.5506
-8.52427
-8.49349
-8.45814
-8.41807
-8.37318
-8.32337
-8.2686
-8.20873
-8.14361
-8.07312
-7.99716
-7.91562
-7.82842
-7.7355
-7.6368
-7.53226
-7.42189
-7.30562
-7.18347
-7.0554
-6.92144
-6.78157
-6.63583
-6.48424
-6.32685
-6.16369
-5.99483
-5.82032
-5.64025
-5.45471
-5.26379
-5.0676
-4.86626
-4.65991
-4.44867
-4.23271
-4.01219
-3.78729
-3.55819
-3.3251
-3.08823
-2.8478
-2.60404
-2.35722
-2.10756
-1.85533
-1.60075
-1.3441
-1.08566
-0.825711
-0.564517
-0.302345
-0.0394302
0.223966
0.487615
0.751253
1.01466
1.27761
1.5399
1.80132
2.0617
2.32085
2.57861
2.8348
3.08927
3.34186
3.59245
3.84088
4.08702
4.33074
4.57191
4.81044
5.04623
5.27919
5.50926
5.73637
5.96047
6.18148
6.39935
6.61401
6.82539
7.03343
7.23807
7.43925
7.63692
7.83102
8.0215
8.20827
8.39128
8.57044
8.74574
8.91691
9.08449
9.24527
9.41044
9.53194
-7.43419
-7.43511
-7.4408
-7.44945
-7.45825
-7.46667
-7.47473
-7.48236
-7.48947
-7.49598
-7.50177
-7.50675
-7.51084
-7.51394
-7.516
-7.51695
-7.51675
-7.51539
-7.51285
-7.50914
-7.50428
-7.49816
-7.49072
-7.48213
-7.47263
-7.46236
-7.45157
-7.44075
-7.4307
-7.42222
-7.41566
-7.41037
-7.40581
-7.40266
-7.40186
-7.40377
-7.40889
-7.41772
-7.43028
-7.44641
-7.46582
-7.48827
-7.51349
-7.54119
-7.57114
-7.6031
-7.63686
-7.67226
-7.7091
-7.74723
-7.7865
-7.82676
-7.8679
-7.90976
-7.95221
-7.99506
-8.03816
-8.08128
-8.12423
-8.16678
-8.2087
-8.24975
-8.28971
-8.32836
-8.36548
-8.40087
-8.43432
-8.46566
-8.49469
-8.52124
-8.54515
-8.56627
-8.58446
-8.59959
-8.61152
-8.62014
-8.62534
-8.627
-8.62503
-8.6193
-8.60972
-8.59617
-8.57854
-8.55673
-8.53062
-8.5001
-8.46505
-8.42532
-8.38079
-8.33139
-8.27703
-8.21758
-8.15287
-8.08278
-8.00721
-7.92605
-7.83923
-7.74668
-7.64835
-7.54418
-7.43414
-7.31822
-7.19639
-7.06864
-6.93498
-6.79542
-6.64998
-6.4987
-6.3416
-6.17874
-6.01018
-5.83597
-5.6562
-5.47094
-5.28031
-5.0844
-4.88333
-4.67724
-4.46626
-4.25053
-4.03024
-3.80554
-3.57663
-3.34372
-3.107
-2.86672
-2.6231
-2.37639
-2.12683
-1.87467
-1.62016
-1.36359
-1.10523
-0.845353
-0.584229
-0.322116
-0.0592557
0.204081
0.467658
0.731224
0.994562
1.25744
1.51967
1.78103
2.04135
2.30044
2.55815
2.81428
3.06869
3.32123
3.57177
3.82015
4.06624
4.30989
4.551
4.78946
5.0252
5.25811
5.48814
5.71523
5.9393
6.16031
6.37817
6.59281
6.80417
7.0122
7.21683
7.41801
7.61568
7.80979
8.00026
8.18702
8.36998
8.54905
8.72415
8.89495
9.06195
9.22157
9.38593
9.50177
-7.43554
-7.43821
-7.44551
-7.45383
-7.46192
-7.46982
-7.47752
-7.48491
-7.49187
-7.49827
-7.50401
-7.50895
-7.513
-7.51608
-7.5181
-7.51903
-7.51884
-7.51748
-7.51496
-7.51126
-7.50634
-7.50014
-7.49275
-7.48443
-7.47538
-7.46586
-7.45631
-7.4473
-7.43924
-7.43214
-7.42575
-7.41995
-7.4151
-7.41225
-7.41228
-7.41579
-7.42315
-7.43441
-7.44926
-7.46751
-7.48886
-7.51303
-7.53975
-7.56874
-7.59976
-7.63259
-7.66703
-7.70289
-7.74
-7.77821
-7.81738
-7.85736
-7.89802
-7.93922
-7.98082
-8.02268
-8.06464
-8.10652
-8.14815
-8.18932
-8.22986
-8.26955
-8.3082
-8.34559
-8.38155
-8.41585
-8.44832
-8.47874
-8.50694
-8.53274
-8.55597
-8.57648
-8.59413
-8.60878
-8.6203
-8.62856
-8.63346
-8.6349
-8.63275
-8.62692
-8.6173
-8.60376
-8.5862
-8.5645
-8.53855
-8.50824
-8.47344
-8.43399
-8.38978
-8.34069
-8.28668
-8.22756
-8.16316
-8.09338
-8.01808
-7.93719
-7.85061
-7.7583
-7.66018
-7.55622
-7.44637
-7.33063
-7.20896
-7.08137
-6.94786
-6.80845
-6.66315
-6.51201
-6.35506
-6.19235
-6.02393
-5.84986
-5.67023
-5.48512
-5.29462
-5.09885
-4.89792
-4.69195
-4.48109
-4.26547
-4.04526
-3.82064
-3.5918
-3.35893
-3.12227
-2.88201
-2.63841
-2.39171
-2.14216
-1.88997
-1.63547
-1.3789
-1.12055
-0.860676
-0.599568
-0.337458
-0.0746267
0.188684
0.452207
0.715727
0.979
1.24182
1.50398
1.76528
2.02554
2.28457
2.54219
2.79824
3.05256
3.30502
3.55548
3.80379
4.04978
4.29333
4.53433
4.7727
5.00832
5.24115
5.47109
5.6981
5.92212
6.14307
6.36088
6.57547
6.78678
6.99476
7.19934
7.40048
7.59813
7.79222
7.98266
8.16936
8.35224
8.53116
8.70603
8.87642
9.0428
9.20131
9.36491
9.47582
-7.43239
-7.43651
-7.44394
-7.45168
-7.45942
-7.46713
-7.47472
-7.48208
-7.48908
-7.49559
-7.50146
-7.50658
-7.51083
-7.51411
-7.51634
-7.51747
-7.51746
-7.51626
-7.51388
-7.51029
-7.50548
-7.49949
-7.49251
-7.48483
-7.47672
-7.46853
-7.46052
-7.4528
-7.44543
-7.43855
-7.43225
-7.42694
-7.42322
-7.4219
-7.4236
-7.42871
-7.43746
-7.4499
-7.46582
-7.48503
-7.50727
-7.53223
-7.55962
-7.5892
-7.62072
-7.65398
-7.68876
-7.72489
-7.76219
-7.80052
-7.83972
-7.87963
-7.92012
-7.96105
-8.0023
-8.04371
-8.08514
-8.12642
-8.16739
-8.20788
-8.2477
-8.28667
-8.32461
-8.36131
-8.39659
-8.43026
-8.46211
-8.49195
-8.51958
-8.54482
-8.56751
-8.58751
-8.60466
-8.61885
-8.62995
-8.63785
-8.64244
-8.64364
-8.64131
-8.63537
-8.62568
-8.61214
-8.59462
-8.57301
-8.5472
-8.51707
-8.48248
-8.44328
-8.39932
-8.35052
-8.29677
-8.23791
-8.17374
-8.10415
-8.02903
-7.94829
-7.86185
-7.76965
-7.67163
-7.56774
-7.45796
-7.34225
-7.22062
-7.09305
-6.95956
-6.82017
-6.67489
-6.52377
-6.36684
-6.20416
-6.03576
-5.86173
-5.68212
-5.49703
-5.30657
-5.11083
-4.90993
-4.70399
-4.49314
-4.27753
-4.05732
-3.83268
-3.60382
-3.37092
-3.1342
-2.8939
-2.65025
-2.40349
-2.15385
-1.90159
-1.64703
-1.39042
-1.13203
-0.872129
-0.610991
-0.348864
-0.0860331
0.177257
0.440748
0.704225
0.967447
1.23021
1.4923
1.75353
2.0137
2.27264
2.53017
2.78611
3.04032
3.29267
3.54303
3.79124
4.0371
4.28051
4.52137
4.75958
4.99506
5.22774
5.45756
5.68445
5.90838
6.12926
6.34699
6.56149
6.77271
6.9806
7.18511
7.38619
7.58379
7.77783
7.96822
8.15484
8.3376
8.51634
8.69093
8.86088
9.02664
9.18408
9.34697
9.45371
-7.42267
-7.42745
-7.43456
-7.44226
-7.45019
-7.45809
-7.46587
-7.47345
-7.48071
-7.48754
-7.49376
-7.49924
-7.50384
-7.50745
-7.51
-7.51141
-7.51166
-7.51072
-7.50859
-7.50528
-7.50086
-7.49547
-7.48931
-7.48259
-7.47548
-7.46813
-7.46074
-7.45342
-7.44631
-7.43973
-7.43409
-7.42984
-7.42744
-7.42747
-7.43044
-7.43671
-7.44644
-7.45966
-7.47627
-7.49606
-7.51877
-7.54413
-7.57188
-7.60178
-7.6336
-7.66715
-7.70222
-7.73864
-7.77623
-7.8148
-7.85422
-7.89433
-7.93499
-7.97605
-8.01738
-8.05883
-8.10024
-8.14146
-8.18234
-8.2227
-8.26236
-8.30113
-8.33883
-8.37526
-8.41024
-8.44357
-8.47506
-8.50451
-8.53172
-8.55654
-8.57878
-8.59832
-8.61501
-8.62875
-8.63942
-8.64695
-8.65123
-8.65217
-8.64966
-8.64359
-8.63383
-8.62027
-8.60278
-8.58124
-8.55553
-8.52555
-8.49115
-8.45217
-8.40844
-8.35984
-8.30632
-8.24763
-8.18363
-8.11415
-8.03914
-7.95846
-7.87207
-7.77987
-7.68185
-7.57794
-7.46813
-7.35237
-7.23067
-7.10303
-6.96946
-6.82999
-6.68464
-6.53345
-6.37647
-6.21373
-6.04529
-5.8712
-5.69155
-5.50641
-5.31591
-5.12013
-4.9192
-4.71323
-4.50233
-4.28667
-4.0664
-3.8417
-3.61276
-3.37978
-3.14297
-2.90259
-2.65884
-2.41196
-2.1622
-1.90985
-1.6552
-1.39853
-1.14007
-0.880126
-0.618943
-0.356809
-0.093973
0.169284
0.432748
0.696168
0.959336
1.22203
1.48405
1.74519
2.00527
2.2641
2.5215
2.77731
3.03137
3.28357
3.53382
3.7819
4.0276
4.27083
4.5115
4.74952
4.98482
5.21733
5.44699
5.67374
5.89756
6.11835
6.33597
6.55036
6.76147
6.96925
7.17367
7.37467
7.5722
7.7662
7.95653
8.14305
8.32567
8.50421
8.67849
8.848
9.01313
9.16958
9.33177
9.43509
-7.40471
-7.40946
-7.41673
-7.42523
-7.43388
-7.44228
-7.45043
-7.45837
-7.46607
-7.47339
-7.48015
-7.48613
-7.49118
-7.49521
-7.49817
-7.49998
-7.50064
-7.50012
-7.49846
-7.4957
-7.49191
-7.48721
-7.48174
-7.47564
-7.46906
-7.46214
-7.45503
-7.44795
-7.44123
-7.43523
-7.43029
-7.42685
-7.42543
-7.42651
-7.43051
-7.43773
-7.44829
-7.46222
-7.47938
-7.49961
-7.52266
-7.54831
-7.57632
-7.6065
-7.63864
-7.67252
-7.70797
-7.74478
-7.78279
-7.82181
-7.86169
-7.9023
-7.94347
-7.98504
-8.02685
-8.06874
-8.11056
-8.15213
-8.19332
-8.23392
-8.27377
-8.31269
-8.35048
-8.38695
-8.42191
-8.45515
-8.48647
-8.51568
-8.5426
-8.56703
-8.58884
-8.60792
-8.62412
-8.63736
-8.64755
-8.65463
-8.65853
-8.65917
-8.65644
-8.65022
-8.64039
-8.62681
-8.60933
-8.58783
-8.5622
-8.53234
-8.49813
-8.45936
-8.41582
-8.36744
-8.31408
-8.25555
-8.19166
-8.12228
-8.0473
-7.96664
-7.88023
-7.788
-7.68991
-7.58593
-7.47601
-7.36015
-7.23834
-7.11057
-6.97687
-6.83727
-6.69181
-6.54052
-6.38344
-6.22061
-6.05209
-5.87792
-5.69818
-5.51295
-5.32236
-5.12652
-4.92554
-4.71952
-4.50858
-4.29286
-4.07252
-3.84775
-3.61873
-3.38567
-3.14879
-2.90832
-2.66448
-2.4175
-2.16763
-1.91516
-1.66041
-1.40366
-1.14514
-0.885147
-0.623935
-0.361795
-0.0989778
0.164248
0.427665
0.691026
0.954122
1.21673
1.47866
1.7397
1.99966
2.25835
2.5156
2.77125
3.02514
3.27717
3.52732
3.77529
4.02079
4.26379
4.50422
4.74202
4.97711
5.20942
5.4389
5.66549
5.88919
6.10988
6.32738
6.54162
6.7526
6.96026
7.16457
7.36548
7.56295
7.7569
7.94716
8.13358
8.31604
8.49436
8.66833
8.83738
9.00191
9.15744
9.31892
9.41956
-7.37808
-7.38265
-7.39088
-7.40083
-7.41051
-7.41949
-7.42809
-7.43657
-7.44499
-7.45312
-7.46064
-7.46729
-7.47292
-7.47748
-7.48095
-7.48329
-7.4845
-7.48456
-7.48348
-7.48131
-7.47811
-7.47396
-7.46898
-7.46327
-7.45696
-7.45024
-7.44334
-7.43656
-7.43019
-7.42458
-7.42016
-7.41743
-7.41683
-7.41881
-7.42372
-7.43177
-7.44306
-7.45758
-7.4752
-7.49578
-7.51912
-7.54504
-7.57334
-7.60384
-7.63637
-7.67072
-7.70669
-7.74409
-7.78271
-7.8224
-7.86299
-7.90432
-7.94623
-7.98854
-8.0311
-8.07371
-8.11624
-8.15849
-8.20028
-8.24142
-8.28174
-8.32105
-8.35917
-8.39588
-8.431
-8.4643
-8.49559
-8.52463
-8.5512
-8.57514
-8.59635
-8.61477
-8.6303
-8.64284
-8.65236
-8.65886
-8.66231
-8.66262
-8.65969
-8.65338
-8.64355
-8.63
-8.61258
-8.59111
-8.56549
-8.53572
-8.50171
-8.46319
-8.41988
-8.3717
-8.31852
-8.26015
-8.19637
-8.12709
-8.05215
-7.97151
-7.88506
-7.79278
-7.69461
-7.59055
-7.48053
-7.36456
-7.2426
-7.1147
-6.98085
-6.84113
-6.69555
-6.54417
-6.387
-6.2241
-6.05551
-5.88128
-5.70145
-5.51614
-5.32548
-5.12958
-4.92857
-4.72252
-4.51155
-4.29579
-4.07542
-3.85061
-3.62155
-3.38846
-3.15154
-2.91103
-2.66716
-2.42014
-2.17022
-1.91768
-1.66286
-1.40604
-1.1475
-0.887497
-0.626315
-0.364208
-0.101466
0.161694
0.425011
0.688276
0.951251
1.21374
1.47553
1.73642
1.99622
2.25473
2.51178
2.76722
3.02089
3.27276
3.52288
3.77078
4.01605
4.25879
4.49897
4.73653
4.97139
5.20349
5.43277
5.65919
5.88282
6.10344
6.3208
6.53489
6.74572
6.95325
7.15745
7.35827
7.55569
7.74961
7.93981
8.12611
8.30841
8.4865
8.66016
8.82877
8.99272
9.1474
9.30813
9.40679
-7.34404
-7.34896
-7.35876
-7.37056
-7.38137
-7.3911
-7.40049
-7.4097
-7.41884
-7.42791
-7.43654
-7.44422
-7.45057
-7.45564
-7.45962
-7.46255
-7.46437
-7.46503
-7.46453
-7.46289
-7.46016
-7.45639
-7.45167
-7.44614
-7.43996
-7.43336
-7.42656
-7.41987
-7.41367
-7.40838
-7.40443
-7.4023
-7.40242
-7.40515
-7.41078
-7.41948
-7.43131
-7.44626
-7.46424
-7.48512
-7.50876
-7.53497
-7.5636
-7.59448
-7.62745
-7.66231
-7.69886
-7.7369
-7.77625
-7.81675
-7.85821
-7.90044
-7.94328
-7.98652
-8.03001
-8.07356
-8.11699
-8.16009
-8.20267
-8.24452
-8.28545
-8.32525
-8.36374
-8.4007
-8.43594
-8.46922
-8.5003
-8.52894
-8.55489
-8.57802
-8.59833
-8.61583
-8.63046
-8.64205
-8.65056
-8.65626
-8.65923
-8.65932
-8.65637
-8.6502
-8.64061
-8.62733
-8.61014
-8.58878
-8.56316
-8.53344
-8.49965
-8.46142
-8.41836
-8.37036
-8.31735
-8.25911
-8.19547
-8.12628
-8.05141
-7.97074
-7.88422
-7.79183
-7.69356
-7.58938
-7.47925
-7.36313
-7.24101
-7.11292
-6.97892
-6.83904
-6.69334
-6.54185
-6.38461
-6.22164
-6.053
-5.87875
-5.69897
-5.51374
-5.32314
-5.12727
-4.92622
-4.72011
-4.50907
-4.29324
-4.07278
-3.8479
-3.61877
-3.38561
-3.14864
-2.90809
-2.66421
-2.41725
-2.16747
-1.91512
-1.66047
-1.40376
-1.14533
-0.885454
-0.624423
-0.362497
-0.0999497
0.162995
0.426081
0.689095
0.951809
1.21402
1.47552
1.7361
1.99557
2.25372
2.5104
2.76545
3.01872
3.27024
3.52019
3.76792
4.01287
4.25528
4.49517
4.73245
4.96706
5.19893
5.428
5.65425
5.87789
6.09857
6.31582
6.52975
6.74043
6.94783
7.15194
7.35269
7.55009
7.74404
7.9342
8.12038
8.30252
8.48038
8.65374
8.82191
8.98531
9.13919
9.29914
9.3965
-7.30574
-7.31159
-7.32352
-7.33758
-7.34957
-7.35959
-7.36938
-7.37968
-7.39014
-7.40037
-7.41009
-7.41881
-7.42599
-7.43161
-7.4361
-7.43959
-7.44199
-7.4432
-7.4432
-7.44198
-7.43955
-7.43598
-7.43138
-7.42587
-7.41964
-7.41292
-7.40602
-7.39931
-7.39319
-7.38811
-7.38451
-7.38281
-7.3834
-7.3866
-7.39264
-7.40168
-7.41377
-7.42891
-7.44705
-7.46808
-7.49187
-7.5183
-7.5472
-7.57845
-7.61185
-7.64721
-7.68434
-7.72306
-7.7632
-7.80456
-7.84695
-7.89018
-7.93405
-7.97835
-8.02289
-8.06746
-8.11182
-8.15574
-8.19902
-8.24144
-8.28279
-8.32285
-8.36145
-8.39837
-8.43341
-8.46633
-8.49688
-8.52473
-8.54955
-8.57128
-8.5902
-8.60653
-8.62014
-8.63049
-8.63745
-8.64179
-8.64402
-8.64392
-8.64119
-8.63551
-8.62653
-8.61389
-8.59741
-8.57705
-8.55269
-8.52413
-8.49113
-8.45339
-8.41066
-8.36289
-8.31007
-8.25198
-8.18846
-8.11932
-8.04443
-7.96364
-7.87697
-7.78439
-7.6859
-7.58147
-7.47109
-7.35469
-7.23228
-7.10388
-6.96959
-6.82944
-6.6835
-6.53179
-6.37437
-6.21124
-6.04248
-5.86816
-5.68839
-5.50321
-5.31266
-5.1168
-4.91571
-4.70954
-4.49843
-4.28253
-4.062
-3.83704
-3.60784
-3.37463
-3.1376
-2.89703
-2.65315
-2.40626
-2.15663
-1.9045
-1.65004
-1.39353
-1.13528
-0.875606
-0.614786
-0.353121
-0.0908331
0.171805
0.434578
0.697238
0.959588
1.22141
1.48249
1.74262
2.0016
2.25924
2.51537
2.76981
3.02241
3.27305
3.52164
3.76811
4.01236
4.25424
4.49365
4.7305
4.9647
5.19617
5.42485
5.65074
5.87424
6.09489
6.31197
6.5257
6.73623
6.94353
7.14755
7.34826
7.54573
7.73984
7.93003
8.11612
8.2981
8.47577
8.64884
8.81662
8.97951
9.13265
9.29177
9.38849
-7.26693
-7.27407
-7.28858
-7.30461
-7.31692
-7.32739
-7.33831
-7.34976
-7.36131
-7.37261
-7.38338
-7.39306
-7.40103
-7.40731
-7.41242
-7.41653
-7.41951
-7.42124
-7.42165
-7.42072
-7.41846
-7.41492
-7.4102
-7.40447
-7.39795
-7.39092
-7.38373
-7.37676
-7.37046
-7.36526
-7.36159
-7.35985
-7.36039
-7.36352
-7.36944
-7.37832
-7.39021
-7.40516
-7.42311
-7.444
-7.46775
-7.49426
-7.52339
-7.55498
-7.58882
-7.62473
-7.66251
-7.702
-7.743
-7.7853
-7.82868
-7.8729
-7.91776
-7.96302
-8.00846
-8.05382
-8.09885
-8.14331
-8.18696
-8.22958
-8.27096
-8.3109
-8.34922
-8.38571
-8.42019
-8.45244
-8.4822
-8.50896
-8.53199
-8.55118
-8.56751
-8.58202
-8.59489
-8.60553
-8.61341
-8.61834
-8.62058
-8.62037
-8.61771
-8.61224
-8.60358
-8.59133
-8.57538
-8.55592
-8.53279
-8.50539
-8.47315
-8.43592
-8.39357
-8.34621
-8.29373
-8.23594
-8.17262
-8.10361
-8.02876
-7.94799
-7.86127
-7.76861
-7.67001
-7.56543
-7.45485
-7.33824
-7.21561
-7.08701
-6.95251
-6.81219
-6.66608
-6.51422
-6.35667
-6.19346
-6.02464
-5.85028
-5.67048
-5.48529
-5.29475
-5.09893
-4.89792
-4.69185
-4.48085