/*--------------------------------*- C++ -*----------------------------------*\
  =========                 |
  \\      /  F ield         | OpenFOAM: The Open Source CFD Toolbox
   \\    /   O peration     | Website:  https://openfoam.org
    \\  /    A nd           | Version:  8
     \\/     M anipulation  |
\*---------------------------------------------------------------------------*/
FoamFile
{
    version     2.0;
    format      ascii;
    class       volScalarField;
    location    "1500";
    object      k;
}
// * * * * * * * * * * * * * * * * * * * * * * * * * * * * * * * * * * * * * //

dimensions      [0 2 -2 0 0 0 0];

internalField   nonuniform List<scalar> 
12225
(
0.329537
1.21245
2.76992
2.10832
2.51147
2.08264
1.72958
2.52671
3.17418
3.46641
2.8913
3.06115
2.43602
1.74142
1.55482
2.30473
2.1963
2.56884
0.202997
0.242797
0.363508
0.451646
0.512568
0.546008
0.601079
0.62699
0.715049
0.743909
0.745705
0.762214
0.779135
0.801866
0.814048
0.858345
0.871813
0.900693
0.19917
0.201769
0.209516
0.218718
0.227562
0.230647
0.239671
0.239658
0.243569
0.246976
0.24723
0.24818
0.250733
0.257592
0.261847
0.26967
0.275021
0.282499
0.199159
0.19811
0.198499
0.19946
0.200438
0.200628
0.200784
0.200642
0.199939
0.198384
0.196897
0.195044
0.193463
0.19233
0.191087
0.190265
0.189027
0.188339
0.199309
0.198098
0.197274
0.196697
0.196344
0.195914
0.195455
0.194594
0.1938
0.192655
0.191666
0.190453
0.189392
0.188264
0.187268
0.186177
0.185166
0.184068
0.199394
0.198155
0.197121
0.196129
0.195372
0.19455
0.193857
0.193001
0.192234
0.191343
0.190553
0.189683
0.188903
0.188078
0.187341
0.186549
0.185829
0.185051
0.199396
0.198179
0.197094
0.196021
0.195084
0.194153
0.193321
0.192469
0.191682
0.190881
0.190142
0.189399
0.18871
0.188024
0.187386
0.186748
0.186147
0.185545
0.19939
0.198178
0.197068
0.195991
0.195002
0.194045
0.193162
0.192301
0.191495
0.19071
0.189973
0.189261
0.188589
0.187941
0.187327
0.186734
0.186168
0.185621
0.199383
0.198177
0.197053
0.195975
0.194966
0.194002
0.193097
0.19223
0.19141
0.190626
0.189884
0.189175
0.188503
0.187862
0.187252
0.186671
0.186115
0.185584
0.199379
0.198173
0.197038
0.195959
0.194941
0.193973
0.193057
0.192186
0.191358
0.19057
0.189822
0.18911
0.188433
0.187789
0.187175
0.186592
0.186033
0.185504
0.199376
0.198169
0.197029
0.195947
0.194923
0.193951
0.193029
0.192154
0.191321
0.190529
0.189776
0.18906
0.188376
0.187728
0.187108
0.18652
0.185957
0.185423
0.199375
0.198166
0.197021
0.195937
0.194909
0.193934
0.193007
0.192128
0.191292
0.190497
0.189739
0.189019
0.188332
0.187679
0.187055
0.186462
0.185895
0.185355
0.199374
0.198163
0.197016
0.195929
0.194898
0.19392
0.192991
0.192108
0.191269
0.19047
0.189711
0.188987
0.188297
0.18764
0.187014
0.186417
0.185846
0.185303
0.199374
0.198162
0.197012
0.195923
0.19489
0.19391
0.192978
0.192093
0.191251
0.190451
0.189687
0.188962
0.188269
0.187611
0.186981
0.186382
0.185808
0.185263
0.199374
0.19816
0.19701
0.195919
0.194884
0.193902
0.192969
0.192082
0.191238
0.190435
0.18967
0.188942
0.188248
0.187587
0.186956
0.186355
0.185781
0.185233
0.199373
0.19816
0.197009
0.195917
0.194881
0.193897
0.192963
0.192074
0.191229
0.190425
0.18966
0.18893
0.188235
0.187572
0.186941
0.186338
0.185763
0.185214
0.199373
0.198159
0.197008
0.195916
0.194879
0.193896
0.19296
0.192072
0.191226
0.190422
0.189656
0.188926
0.18823
0.187567
0.186935
0.186332
0.185756
0.185207
0.199374
0.198159
0.197008
0.195915
0.194879
0.193893
0.192959
0.192069
0.191224
0.190418
0.189653
0.188921
0.188227
0.187562
0.18693
0.186326
0.185751
0.1852
0.199373
0.198159
0.197007
0.195915
0.194877
0.193894
0.192957
0.192068
0.191221
0.190416
0.189648
0.188919
0.188221
0.187558
0.186924
0.186321
0.185744
0.185194
0.199373
0.19816
0.197009
0.195916
0.19488
0.193895
0.19296
0.19207
0.191225
0.190419
0.189653
0.188921
0.188226
0.187561
0.186929
0.186324
0.185749
0.185198
0.199374
0.198161
0.19701
0.195919
0.194883
0.1939
0.192965
0.192077
0.191232
0.190427
0.189661
0.188931
0.188236
0.187573
0.186941
0.186337
0.185761
0.185212
0.199374
0.198162
0.197013
0.195923
0.194889
0.193907
0.192974
0.192087
0.191243
0.19044
0.189675
0.188947
0.188252
0.187591
0.18696
0.186358
0.185783
0.185235
0.199375
0.198165
0.197017
0.195929
0.194896
0.193916
0.192985
0.192101
0.191259
0.190459
0.189697
0.188971
0.18828
0.187621
0.186994
0.186393
0.185823
0.185276
0.199375
0.198169
0.197021
0.195937
0.194905
0.193929
0.193002
0.192125
0.19129
0.190498
0.189744
0.189028
0.188346
0.187697
0.187077
0.186485
0.185919
0.185377
0.19938
0.198176
0.19702
0.19594
0.194912
0.19396
0.193058
0.192215
0.191412
0.190655
0.189932
0.189247
0.188591
0.187962
0.187357
0.186773
0.18621
0.185661
0.199402
0.19817
0.196981
0.195944
0.19501
0.194212
0.193449
0.19276
0.192067
0.19142
0.190767
0.190144
0.189519
0.188905
0.188293
0.187679
0.187077
0.186467
0.199414
0.19821
0.197108
0.196536
0.196277
0.196149
0.195945
0.195719
0.195351
0.194953
0.194434
0.193894
0.193267
0.192601
0.191905
0.191143
0.190412
0.189594
0.199257
0.200699
0.201111
0.203395
0.206669
0.20923
0.21147
0.212848
0.213989
0.214502
0.214922
0.214966
0.21494
0.21484
0.21477
0.214649
0.214684
0.214545
0.20553
0.218089
0.244363
0.276499
0.30829
0.335243
0.359957
0.378824
0.397875
0.412194
0.427858
0.439828
0.454091
0.465298
0.479273
0.490591
0.504928
0.516594
0.315699
0.862233
1.1601
1.35851
1.46433
1.51894
1.52158
1.51246
1.49242
1.46168
1.42908
1.39678
1.36593
1.33723
1.3108
1.2869
1.2651
1.24574
1.7171e-08
4.23276e-07
2.15951e-06
8.52013e-06
2.85296e-05
8.74504e-05
0.000227979
0.000453336
0.000734484
0.00103151
0.00129757
0.00150524
0.00164332
0.00169549
0.00167416
0.00160593
0.00147528
0.00126029
0.00107143
0.000910285
0.000758491
0.000611371
0.000469517
0.000337813
0.000220703
0.000130029
6.9713e-05
3.55336e-05
1.8278e-05
1.00302e-05
6.09304e-06
4.57817e-06
4.82919e-06
9.78164e-06
1.99661e-05
0.000125289
0.000278096
0.000646704
0.00100486
0.00113427
0.00105381
0.000856793
0.000715402
0.000697244
0.000762722
0.000980355
0.00125796
0.00233373
0.00494732
0.0141289
0.0410902
0.079733
0.114844
0.13603
0.13774
0.125831
0.170757
0.166097
0.155656
0.167009
0.153469
0.166276
0.17956
0.160798
0.176645
0.183724
0.192382
0.200292
0.20832
0.216042
0.223718
0.231237
0.238687
0.246014
0.253289
0.260452
0.267571
0.274587
0.281558
0.288433
0.295258
0.301987
0.308662
0.31524
0.321756
0.328172
0.334519
0.340763
0.346921
0.352968
0.358908
0.36473
0.370431
0.37599
0.381404
0.386653
0.391734
0.396637
0.401366
0.405941
0.4104
0.414783
0.41898
0.423052
0.426969
0.430744
0.43436
0.437826
0.441128
0.444273
0.447247
0.450059
0.452696
0.455165
0.457457
0.459577
0.461519
0.463285
0.464874
0.466285
0.467522
0.46858
0.469466
0.470175
0.470718
0.471087
0.471299
0.471345
0.471297
0.471094
0.470492
0.470113
0.469079
0.468306
0.467258
0.466224
0.465014
0.463643
0.462014
0.460287
0.458406
0.456414
0.454302
0.452081
0.449753
0.447326
0.444803
0.442196
0.439509
0.436746
0.433911
0.431008
0.428044
0.42502
0.421949
0.418835
0.415691
0.412525
0.409346
0.406165
0.402983
0.399808
0.396642
0.393489
0.390351
0.387235
0.384145
0.381089
0.378072
0.3751
0.372173
0.369286
0.366426
0.363573
0.360675
0.357646
0.354374
0.350523
0.345525
0.330561
7.85647e-08
2.20154e-06
1.49199e-05
6.51814e-05
0.00023901
0.000719504
0.00165991
0.00300915
0.00457664
0.00619154
0.0076684
0.00888956
0.00979028
0.0103709
0.0106474
0.0106151
0.0104401
0.0101117
0.00953776
0.00874725
0.00774756
0.00658602
0.00531956
0.00403354
0.00279925
0.00185415
0.0011777
0.000729564
0.000443923
0.000272443
0.000175033
0.000130362
9.8175e-05
0.00015714
0.000188942
0.00136225
0.00293956
0.00633066
0.00940739
0.0112633
0.0113421
0.0110086
0.0110248
0.0121806
0.0155951
0.0202752
0.0284224
0.0432557
0.0672848
0.0910119
0.116157
0.137825
0.155869
0.17108
0.184617
0.197101
0.214883
0.230109
0.246825
0.265783
0.283379
0.302473
0.320726
0.339353
0.358227
0.376864
0.395083
0.413133
0.430932
0.448553
0.466008
0.483326
0.500529
0.51763
0.53465
0.55159
0.568465
0.585269
0.602013
0.618687
0.635298
0.651832
0.668295
0.68467
0.700965
0.717158
0.733257
0.749242
0.765111
0.780845
0.796435
0.811875
0.827146
0.842226
0.857091
0.871713
0.886067
0.900117
0.913833
0.927174
0.940107
0.95266
0.965009
0.977067
0.988868
1.00038
1.0116
1.02251
1.03311
1.04338
1.05332
1.0629
1.07212
1.08098
1.08947
1.09757
1.10528
1.11259
1.11949
1.126
1.13208
1.13775
1.143
1.14783
1.15223
1.15621
1.15976
1.16289
1.1656
1.16789
1.16976
1.17126
1.17219
1.1728
1.17305
1.17313
1.17284
1.17235
1.17169
1.1706
1.16916
1.16735
1.16521
1.16272
1.15991
1.15678
1.15334
1.14961
1.1456
1.14132
1.13678
1.13197
1.12692
1.12162
1.1161
1.11038
1.10447
1.09839
1.09218
1.08583
1.07937
1.07282
1.06617
1.05944
1.05263
1.04576
1.03883
1.03187
1.02488
1.01787
1.01086
1.00384
0.996779
0.989654
0.982385
0.974843
0.966833
0.957987
0.946436
0.920958
2.14967e-07
6.46193e-06
4.92631e-05
0.000235522
0.000687883
0.00194755
0.00393759
0.0062638
0.00860459
0.0107338
0.0125151
0.0138897
0.0148546
0.0154353
0.0156901
0.0156575
0.0154793
0.0151272
0.0146005
0.0139435
0.0131502
0.0122156
0.0111196
0.00987255
0.00847101
0.00688566
0.0052532
0.00379924
0.00254171
0.00168991
0.00116271
0.000869373
0.000663476
0.000907021
0.00143008
0.00585956
0.0126903
0.0208726
0.0271194
0.0309508
0.0325504
0.0348322
0.0413824
0.0558909
0.0726598
0.0896767
0.108784
0.129364
0.148745
0.169385
0.190399
0.211944
0.234379
0.257706
0.282825
0.310455
0.339104
0.366933
0.394888
0.422835
0.450272
0.477401
0.503863
0.52982
0.55515
0.580005
0.604359
0.628344
0.651991
0.675367
0.698512
0.721467
0.744262
0.766918
0.789456
0.811884
0.834211
0.856439
0.87857
0.9006
0.922525
0.944339
0.966038
0.98761
1.00905
1.03035
1.0515
1.07248
1.09329
1.11391
1.13433
1.15455
1.17454
1.1943
1.2138
1.23304
1.25199
1.27064
1.289
1.30704
1.32477
1.3422
1.35929
1.37603
1.39239
1.40837
1.42395
1.43911
1.45383
1.4681
1.48191
1.49523
1.50807
1.52041
1.53222
1.54352
1.55427
1.56449
1.57414
1.58325
1.59178
1.59975
1.60714
1.61396
1.62019
1.62585
1.63094
1.63544
1.63937
1.64273
1.64551
1.64773
1.64937
1.65047
1.651
1.6512
1.65091
1.65009
1.6488
1.64699
1.64467
1.64187
1.63859
1.63484
1.63063
1.62598
1.62089
1.6154
1.6095
1.60323
1.59657
1.58956
1.58219
1.57449
1.56647
1.55815
1.54956
1.54072
1.53167
1.52242
1.513
1.50342
1.49371
1.48387
1.47392
1.46386
1.45372
1.44351
1.43326
1.42298
1.41269
1.40239
1.39208
1.38172
1.37128
1.36066
1.34967
1.33804
1.32388
1.29998
7.73264e-07
2.32698e-05
0.000181989
0.000766192
0.00217703
0.00515885
0.00869335
0.0121492
0.0151571
0.0175411
0.0192636
0.0203639
0.0209471
0.0210667
0.0209444
0.0206083
0.0200628
0.0194037
0.0186605
0.0178493
0.0169711
0.016023
0.0149878
0.0138466
0.0125799
0.0111663
0.009627
0.00802025
0.00651788
0.00502512
0.0039594
0.00289858
0.0029616
0.00436278
0.010284
0.0238456
0.0377894
0.049033
0.0576624
0.0656941
0.0754953
0.0882151
0.10326
0.11815
0.133378
0.149622
0.168734
0.189556
0.212076
0.237213
0.263997
0.292739
0.322972
0.354451
0.386881
0.419987
0.453113
0.485972
0.518525
0.550633
0.58222
0.613263
0.643676
0.673552
0.702893
0.731783
0.760269
0.788424
0.816295
0.843935
0.871382
0.898668
0.925821
0.952858
0.979792
1.00663
1.03338
1.06003
1.08658
1.11302
1.13936
1.16557
1.19164
1.21757
1.24335
1.26896
1.29439
1.31962
1.34465
1.36946
1.39403
1.41836
1.44244
1.46626
1.48979
1.51303
1.53596
1.55857
1.58085
1.60277
1.62434
1.64551
1.66628
1.68661
1.70649
1.72589
1.7448
1.7632
1.78106
1.79837
1.81512
1.83127
1.84683
1.86177
1.87607
1.88974
1.90274
1.91509
1.92675
1.93773
1.94802
1.95761
1.96651
1.9747
1.98218
1.98896
1.99503
2.0004
2.00507
2.00903
2.0123
2.01488
2.01677
2.01794
2.01844
2.01851
2.01789
2.01661
2.01471
2.0122
2.00908
2.00536
2.00106
1.99618
1.99075
1.98477
1.97826
1.97125
1.96374
1.95577
1.94733
1.93845
1.92914
1.91941
1.90929
1.8988
1.88798
1.87685
1.86544
1.85378
1.8419
1.82982
1.81757
1.80516
1.79259
1.7799
1.7671
1.75421
1.74127
1.72829
1.7153
1.70231
1.68934
1.67637
1.66339
1.65035
1.63712
1.6235
1.60788
1.58552
2.62542e-06
7.87348e-05
0.000588373
0.00223689
0.00614894
0.0114465
0.0163958
0.0203607
0.0231804
0.0249488
0.0258703
0.0261394
0.0260026
0.025586
0.0249069
0.0241061
0.0232344
0.0223286
0.0214094
0.0204852
0.0195517
0.0186004
0.0176133
0.016569
0.0154429
0.0142029
0.0128444
0.0114138
0.0100187
0.00861245
0.00717855
0.00741123
0.0107021
0.0217257
0.0411058
0.0600848
0.0761119
0.0887891
0.0995134
0.109917
0.121008
0.133027
0.14598
0.160592
0.178193
0.198694
0.221977
0.248062
0.276359
0.306757
0.338605
0.371752
0.405761
0.440401
0.475452
0.51073
0.545963
0.581056
0.615917
0.650464
0.684651
0.718446
0.751817
0.784805
0.817428
0.84973
0.881751
0.913535
0.945122
0.976549
1.00785
1.03904
1.07015
1.10118
1.13214
1.16304
1.19387
1.22462
1.25529
1.28585
1.31631
1.34663
1.37682
1.40685
1.43671
1.46639
1.49586
1.52511
1.55413
1.5829
1.61141
1.63964
1.66759
1.69524
1.72258
1.74957
1.77622
1.8025
1.82838
1.85386
1.8789
1.90348
1.92757
1.95117
1.97423
1.99674
2.01867
2.04
2.0607
2.08076
2.10016
2.11886
2.13687
2.15415
2.1707
2.18649
2.20152
2.21577
2.22923
2.24188
2.25373
2.26476
2.27498
2.28437
2.29294
2.30068
2.3076
2.3137
2.31897
2.32343
2.32707
2.3299
2.33194
2.33309
2.33352
2.33335
2.33238
2.33064
2.32817
2.32498
2.32108
2.3165
2.31123
2.3053
2.29871
2.2915
2.28367
2.27524
2.26624
2.25669
2.2466
2.23599
2.22489
2.2133
2.20125
2.18877
2.17589
2.16265
2.14908
2.13521
2.12107
2.1067
2.09211
2.07733
2.06238
2.04727
2.03203
2.01669
2.00127
1.98582
1.97036
1.95491
1.93951
1.92416
1.90887
1.89364
1.87838
1.86296
1.84603
1.82411
8.33343e-06
0.000243838
0.00173605
0.00614692
0.013841
0.0206279
0.0254637
0.0284483
0.0300154
0.0306102
0.0305498
0.030137
0.0293391
0.0283637
0.0272922
0.0261875
0.0250912
0.0240294
0.0230133
0.0220427
0.0211073
0.0201925
0.0192745
0.0183243
0.0173162
0.0161868
0.0148798
0.0133499
0.0117543
0.0115217
0.0133987
0.0209728
0.0376405
0.0606312
0.0830273
0.101365
0.114925
0.124879
0.133388
0.14227
0.152444
0.165222
0.181216
0.200343
0.222855
0.248481
0.276673
0.306947
0.338731
0.371767
0.405714
0.440408
0.475651
0.511337
0.547366
0.583651
0.620074
0.656566
0.693049
0.729451
0.765719
0.801818
0.837727
0.873445
0.908981
0.944353
0.979583
1.0147
1.04973
1.08469
1.11962
1.15451
1.18939
1.22426
1.25912
1.29395
1.32875
1.36351
1.3982
1.43281
1.46732
1.5017
1.53595
1.57003
1.60393
1.63763
1.6711
1.70434
1.73731
1.77001
1.80241
1.8345
1.86628
1.89771
1.92879
1.95948
1.98977
2.01963
2.04904
2.07797
2.10641
2.13431
2.16166
2.18843
2.2146
2.24013
2.26501
2.28919
2.31267
2.33541
2.35739
2.37858
2.39897
2.41854
2.43727
2.45513
2.47212
2.48821
2.50341
2.51768
2.53103
2.54346
2.55494
2.56548
2.57508
2.58374
2.59146
2.59823
2.60406
2.60896
2.61293
2.61597
2.6181
2.61923
2.61956
2.61911
2.61776
2.61555
2.61251
2.60864
2.60398
2.59853
2.5923
2.58533
2.57761
2.56918
2.56005
2.55024
2.53978
2.52869
2.51699
2.50471
2.49185
2.47845
2.46453
2.45011
2.43525
2.41996
2.4043
2.38829
2.37198
2.35538
2.33854
2.32148
2.30422
2.28677
2.26917
2.25146
2.23366
2.21581
2.19797
2.18015
2.1624
2.14475
2.12723
2.10985
2.09258
2.07533
2.05695
2.03461
2.65408e-05
0.000728544
0.0047041
0.0143934
0.0236533
0.0295861
0.0328533
0.0343967
0.0348419
0.0346173
0.0339085
0.0328184
0.031536
0.0301635
0.0287789
0.0274384
0.0261764
0.02501
0.0239401
0.0229565
0.0220413
0.0211685
0.020305
0.0194095
0.0185125
0.0176881
0.0170988
0.0171718
0.0189761
0.0244163
0.0363955
0.0568309
0.080287
0.102406
0.120359
0.133015
0.141687
0.14879
0.156404
0.16659
0.180229
0.197358
0.218044
0.242029
0.268919
0.298066
0.328854
0.360864
0.393808
0.427542
0.461936
0.496925
0.53245
0.568475
0.604965
0.641875
0.67914
0.716696
0.754476
0.79242
0.830472
0.868591
0.906746
0.944919
0.983103
1.0213
1.05952
1.09776
1.13606
1.17442
1.21284
1.25134
1.28992
1.32857
1.36728
1.40603
1.44481
1.48358
1.52232
1.56101
1.59961
1.6381
1.67645
1.71463
1.75263
1.7904
1.82794
1.86521
1.90219
1.93887
1.97521
2.01121
2.04685
2.0821
2.11695
2.15136
2.18531
2.21878
2.25174
2.28416
2.31601
2.34726
2.37789
2.40786
2.43715
2.46572
2.49356
2.52062
2.54687
2.5723
2.59687
2.62056
2.64334
2.66519
2.68609
2.70602
2.72497
2.7429
2.75982
2.77571
2.79055
2.80434
2.81707
2.82875
2.83936
2.8489
2.85739
2.86481
2.87118
2.87649
2.88075
2.88398
2.88616
2.88723
2.88743
2.88668
2.88494
2.88223
2.87858
2.87403
2.86857
2.86223
2.85504
2.84699
2.83813
2.82847
2.81803
2.80683
2.7949
2.78227
2.76895
2.75498
2.74038
2.72517
2.70938
2.69304
2.67619
2.65888
2.64114
2.62301
2.60454
2.58574
2.56667
2.54734
2.52779
2.50803
2.48809
2.46802
2.44786
2.42765
2.40744
2.38727
2.36719
2.34725
2.32748
2.30793
2.28859
2.26941
2.24936
2.22599
7.91992e-05
0.0019985
0.0111151
0.0242581
0.0323464
0.0366161
0.038616
0.0392051
0.0389151
0.0379966
0.0366139
0.0349901
0.0332591
0.0315265
0.0298694
0.0283389
0.0269601
0.0257376
0.0246612
0.0237114
0.0228634
0.0220867
0.0213123
0.0205697
0.02005
0.0201337
0.0217686
0.026535
0.0369464
0.0539152
0.0749458
0.0963093
0.116152
0.132284
0.143753
0.151643
0.158311
0.166376
0.177326
0.191825
0.210014
0.231637
0.256337
0.283556
0.312686
0.34316
0.374605
0.406831
0.439744
0.473309
0.507508
0.542342
0.577813
0.613926
0.650668
0.68801
0.72591
0.764319
0.803183
0.842448
0.882059
0.921972
0.962149
1.00256
1.04319
1.08403
1.12508
1.16632
1.20777
1.24943
1.2913
1.33337
1.37563
1.41807
1.46066
1.50338
1.54619
1.58906
1.63194
1.67479
1.71758
1.76027
1.80283
1.84521
1.8874
1.92935
1.97105
2.01245
2.05354
2.09428
2.13465
2.17463
2.21421
2.25336
2.29205
2.33025
2.36794
2.40508
2.44165
2.47761
2.51293
2.54758
2.58154
2.61475
2.64721
2.67886
2.70969
2.73965
2.76872
2.79686
2.82404
2.85023
2.87541
2.89955
2.92263
2.94462
2.96551
2.98528
3.00391
3.02139
3.0377
3.05284
3.0668
3.07957
3.09116
3.10157
3.11078
3.11882
3.12567
3.13135
3.13586
3.13923
3.14142
3.1424
3.14241
3.14132
3.13914
3.1359
3.13162
3.12632
3.12003
3.11277
3.10456
3.09543
3.08538
3.07445
3.06267
3.05006
3.03663
3.02243
3.00748
2.9918
2.97543
2.95839
2.94071
2.92244
2.9036
2.88426
2.86444
2.84419
2.82355
2.80256
2.78125
2.75966
2.73782
2.71574
2.69347
2.67105
2.64853
2.62595
2.60338
2.58085
2.55843
2.53617
2.51412
2.49235
2.47087
2.44964
2.42772
2.40286
0.000204844
0.00471347
0.0203252
0.0330854
0.0396431
0.0427241
0.0438202
0.0436664
0.0426987
0.0411057
0.0391639
0.0370519
0.0349163
0.0328726
0.0310019
0.0293534
0.0279502
0.0267965
0.0258861
0.0251981
0.0247571
0.0246524
0.0249553
0.0260586
0.0283289
0.0326267
0.0406073
0.0535561
0.0699549
0.0883419
0.106946
0.123815
0.137737
0.148324
0.156488
0.164104
0.173212
0.185149
0.200545
0.2194
0.241418
0.266126
0.292999
0.321486
0.351116
0.38157
0.412695
0.44445
0.476841
0.509899
0.543658
0.578159
0.613433
0.649496
0.686348
0.723981
0.762368
0.801477
0.841261
0.881676
0.922671
0.964205
1.00624
1.04873
1.09167
1.13503
1.17879
1.22295
1.2675
1.31243
1.35773
1.40339
1.44937
1.49565
1.5422
1.58898
1.63592
1.68299
1.73012
1.77727
1.82437
1.87138
1.91826
1.96497
2.01146
2.05771
2.10368
2.14932
2.19461
2.23951
2.284
2.32806
2.37167
2.41479
2.4574
2.49946
2.54095
2.58182
2.62205
2.6616
2.70045
2.73854
2.77585
2.81235
2.84799
2.88274
2.91657
2.94944
2.98131
3.01216
3.04194
3.07062
3.09817
3.12458
3.14981
3.17383
3.19664
3.2182
3.2385
3.25752
3.27525
3.29168
3.30681
3.32062
3.33313
3.34432
3.35421
3.36279
3.37006
3.37604
3.38074
3.38417
3.3863
3.38715
3.38688
3.38539
3.38271
3.37887
3.37388
3.36779
3.36061
3.35237
3.3431
3.33281
3.32153
3.3093
3.29613
3.28206
3.26711
3.25131
3.23469
3.21729
3.19913
3.18023
3.16065
3.14041
3.11958
3.09819
3.07629
3.05392
3.03112
3.00793
2.98439
2.96053
2.93639
2.91199
2.88739
2.86262
2.83774
2.8128
2.78785
2.76296
2.73819
2.71359
2.68923
2.66518
2.64148
2.6181
2.59416
2.56751
0.000454459
0.0095111
0.0296345
0.0410145
0.0463546
0.0485836
0.0489802
0.0481946
0.0465701
0.044414
0.0419639
0.0394243
0.036964
0.034713
0.0327604
0.0311586
0.0299334
0.0290583
0.0286048
0.0284761
0.028817
0.0299318
0.0323796
0.0369168
0.0442257
0.0546241
0.0676773
0.0823518
0.0979839
0.113422
0.127534
0.139614
0.149702
0.158483
0.167316
0.177676
0.19068
0.20678
0.225952
0.247868
0.272089
0.298144
0.325587
0.354035
0.383222
0.413018
0.443396
0.47439
0.506057
0.538465
0.571678
0.605754
0.640732
0.676645
0.71351
0.751332
0.790101
0.829795
0.870383
0.911828
0.954091
0.997132
1.04091
1.0854
1.13057
1.17639
1.22284
1.2699
1.31755
1.36578
1.41455
1.46385
1.51364
1.56387
1.61448
1.66542
1.71662
1.76801
1.81953
1.87109
1.92264
1.9741
2.02542
2.07656
2.12747
2.17812
2.22845
2.27843
2.32801
2.37716
2.42584
2.47404
2.52174
2.5689
2.61548
2.66144
2.70676
2.75139
2.79531
2.83847
2.88084
2.92238
2.96305
3.0028
3.04161
3.07943
3.11622
3.15195
3.18659
3.22008
3.2524
3.28351
3.31337
3.34196
3.36926
3.39523
3.41986
3.44312
3.46499
3.48547
3.50452
3.52214
3.53834
3.55309
3.5664
3.57828
3.58873
3.59775
3.60534
3.61151
3.61629
3.61968
3.62166
3.6223
3.62164
3.61967
3.6164
3.61186
3.6061
3.59913
3.59098
3.58169
3.57128
3.55977
3.54721
3.53361
3.51901
3.50344
3.48692
3.46949
3.45117
3.432
3.41202
3.39125
3.36973
3.34753
3.32468
3.30125
3.27726
3.25277
3.22781
3.20242
3.17665
3.15054
3.1241
3.09739
3.07045
3.04334
3.01611
2.98881
2.9615
2.93425
2.90711
2.88015
2.85345
2.82709
2.8011
2.7755
2.74945
2.72112
0.000863244
0.0163883
0.0378182
0.048219
0.0528697
0.0545348
0.0544159
0.053084
0.0509465
0.0483254
0.0454937
0.0426863
0.0400966
0.0378722
0.0361207
0.03491
0.0343515
0.0342978
0.0349303
0.0364582
0.0391795
0.0434294
0.0494746
0.057466
0.0673548
0.0788738
0.0914941
0.104488
0.117211
0.129108
0.139915
0.149734
0.15916
0.169158
0.18074
0.194643
0.211192
0.230326
0.251765
0.275132
0.300047
0.326163
0.353185
0.380902
0.409197
0.438047
0.46749
0.497599
0.528458
0.560157
0.592769
0.626362
0.660992
0.696704
0.73353
0.771489
0.810584
0.85081
0.892149
0.934578
0.978068
1.02259
1.0681
1.11457
1.16198
1.21028
1.25946
1.30948
1.36032
1.41193
1.4643
1.51736
1.57107
1.62537
1.68017
1.73541
1.79099
1.84684
1.90286
1.95897
2.01506
2.07108
2.12694
2.18261
2.23802
2.29314
2.3479
2.40227
2.45619
2.50962
2.56252
2.61489
2.66669
2.71788
2.76843
2.81829
2.86741
2.91577
2.96334
3.01005
3.05589
3.1008
3.14475
3.18767
3.22955
3.27033
3.30998
3.34846
3.38573
3.42174
3.45646
3.48985
3.52187
3.5525
3.58171
3.60947
3.63576
3.66056
3.68384
3.7056
3.72581
3.74446
3.76155
3.77708
3.79105
3.80345
3.8143
3.8236
3.83135
3.83758
3.84229
3.8455
3.84721
3.84748
3.84633
3.84374
3.83977
3.83444
3.82779
3.81984
3.81064
3.8002
3.78857
3.77578
3.76185
3.74683
3.73074
3.71362
3.69549
3.67639
3.65635
3.63539
3.61356
3.59089
3.56744
3.54326
3.51841
3.49293
3.46687
3.44028
3.41318
3.38562
3.35765
3.32929
3.30058
3.27158
3.24234
3.21291
3.18336
3.15372
3.12407
3.09447
3.06498
3.03567
3.00662
2.97792
2.94962
2.92175
2.89353
2.86335
0.00138317
0.0235441
0.0456101
0.0555127
0.0596919
0.0609229
0.060395
0.0586433
0.0561276
0.0532258
0.0502565
0.0474864
0.0451342
0.0433662
0.0424062
0.0421561
0.0426851
0.044103
0.0465458
0.0501538
0.0550485
0.0612974
0.0688872
0.0777072
0.0875452
0.0980517
0.108827
0.119504
0.129879
0.139883
0.149689
0.159764
0.170765
0.183309
0.19784
0.214534
0.233325
0.25399
0.276237
0.299781
0.324362
0.34977
0.375845
0.402497
0.429699
0.457484
0.485926
0.515118
0.545159
0.576142
0.608155
0.641276
0.675573
0.711105
0.747915
0.786038
0.825492
0.866288
0.908425
0.951895
0.996681
1.04276
1.09009
1.13866
1.18842
1.23935
1.2914
1.34453
1.39871
1.45389
1.51002
1.56704
1.62487
1.68341
1.74256
1.80224
1.86234
1.92277
1.9834
2.04413
2.10485
2.16548
2.22594
2.28616
2.3461
2.40569
2.46488
2.52361
2.58183
2.63949
2.69656
2.75303
2.80885
2.864
2.91842
2.97206
3.02488
3.07684
3.1279
3.17803
3.22717
3.27528
3.32232
3.36823
3.41297
3.4565
3.49879
3.53979
3.57946
3.61775
3.65463
3.69005
3.72399
3.7564
3.78726
3.81655
3.84425
3.87033
3.89478
3.91756
3.93868
3.95812
3.97587
3.99194
4.00632
4.01902
4.03006
4.03942
4.04713
4.0532
4.05764
4.06049
4.06175
4.06148
4.05968
4.05633
4.05151
4.04525
4.03758
4.02854
4.01817
4.00649
3.99355
3.97938
3.96402
3.94751
3.92987
3.91115
3.89138
3.87059
3.8488
3.82604
3.80235
3.77779
3.75241
3.72628
3.69944
3.67195
3.64386
3.6152
3.58601
3.55634
3.5262
3.49564
3.46472
3.43348
3.40199
3.3703
3.33848
3.30657
3.27463
3.24273
3.21093
3.1793
3.14792
3.1169
3.08629
3.05614
3.02573
2.99365
0.00205855
0.0299954
0.052826
0.062762
0.0667849
0.0677917
0.0669791
0.0649215
0.062185
0.059237
0.0564495
0.0541046
0.0524195
0.051641
0.0515627
0.0524372
0.0542456
0.0570361
0.0608421
0.0656706
0.0715059
0.0782845
0.0859008
0.0941999
0.103007
0.11214
0.121472
0.130926
0.140554
0.150537
0.161208
0.172958
0.186134
0.200958
0.217501
0.235691
0.255362
0.27631
0.298329
0.321243
0.344906
0.369217
0.394112
0.419578
0.44564
0.47237
0.499853
0.528193
0.557493
0.587856
0.619377
0.652145
0.686241
0.721736
0.758687
0.797135
0.837117
0.878663
0.921787
0.966495
1.01278
1.06063
1.11002
1.16094
1.21333
1.26716
1.32239
1.37895
1.4368
1.49586
1.55606
1.61731
1.67951
1.74251
1.8062
1.87044
1.93514
2.00017
2.06542
2.13076
2.19608
2.26128
2.32628
2.391
2.45537
2.51933
2.58281
2.64576
2.70812
2.76985
2.83091
2.89128
2.95093
3.00981
3.06786
3.12504
3.1813
3.23658
3.29087
3.3441
3.39625
3.44724
3.49704
3.5456
3.59286
3.63879
3.68335
3.72651
3.76821
3.80841
3.84707
3.88415
3.91961
3.95343
3.98557
4.01602
4.04475
4.07174
4.09698
4.12044
4.14212
4.162
4.18008
4.19636
4.21084
4.22354
4.23446
4.24361
4.251
4.25665
4.26058
4.26283
4.26341
4.26241
4.25974
4.25545
4.2496
4.24225
4.23342
4.22316
4.21149
4.19846
4.18411
4.16848
4.1516
4.13353
4.11429
4.09393
4.07248
4.04998
4.02645
4.0019
3.97636
3.94993
3.92266
3.89461
3.86585
3.83641
3.80634
3.77569
3.74449
3.71278
3.68056
3.64789
3.61483
3.58144
3.54779
3.51394
3.47995
3.44586
3.41173
3.37761
3.34357
3.30968
3.27605
3.24276
3.20988
3.1775
3.14492
3.11098
0.00286829
0.0358515
0.0601507
0.0702742
0.0741973
0.0750373
0.0739978
0.0717032
0.0688291
0.0660098
0.0636925
0.0621432
0.0614655
0.0614272
0.0623569
0.0642054
0.0669362
0.0705195
0.0749277
0.0801182
0.0860369
0.0926088
0.099762
0.107424
0.115552
0.124109
0.133116
0.142657
0.152888
0.163999
0.176198
0.189646
0.204433
0.220559
0.237954
0.256501
0.276061
0.296504
0.317714
0.339609
0.362128
0.385248
0.408971
0.433334
0.458397
0.484247
0.510983
0.538711
0.56753
0.597545
0.628859
0.661571
0.69577
0.73154
0.76895
0.808065
0.848941
0.891624
0.936146
0.982529
1.03078
1.08088
1.13284
1.1866
1.24214
1.29941
1.35835
1.41887
1.48088
1.54428
1.60895
1.67476
1.74158
1.80924
1.87755
1.94638
2.01558
2.08507
2.15474
2.22449
2.2942
2.36375
2.43306
2.50205
2.57063
2.63869
2.70614
2.77297
2.83913
2.90459
2.96927
3.03317
3.09624
3.15844
3.2197
3.27998
3.33921
3.39735
3.45437
3.51022
3.56485
3.61821
3.67025
3.72091
3.77016
3.81795
3.86424
3.909
3.95218
3.99374
4.03364
4.07183
4.10828
4.14296
4.17585
4.20693
4.23619
4.26359
4.28913
4.31279
4.33456
4.35443
4.3724
4.38847
4.40265
4.41495
4.42538
4.43395
4.44068
4.44559
4.44872
4.45007
4.44974
4.44774
4.44393
4.43848
4.43143
4.4228
4.41264
4.401
4.3879
4.3734
4.35753
4.34035
4.32188
4.30219
4.2813
4.25927
4.23613
4.21192
4.18667
4.16035
4.13301
4.10477
4.07568
4.04581
4.0152
3.98391
3.95197
3.91943
3.88633
3.8527
3.81853
3.78386
3.7488
3.7134
3.67774
3.64187
3.60584
3.5697
3.53351
3.4973
3.46114
3.42512
3.38933
3.35388
3.31884
3.28431
3.24965
3.21395
0.0037444
0.041939
0.0673289
0.0777283
0.0816257
0.0823342
0.080954
0.0783675
0.0755447
0.0731621
0.0716098
0.0709586
0.0709123
0.0716869
0.0733256
0.0757844
0.0790039
0.0829339
0.0875365
0.0927755
0.0986241
0.10506
0.112078
0.119672
0.127874
0.136728
0.146319
0.156729
0.168069
0.180419
0.193834
0.208323
0.223859
0.240375
0.257788
0.276014
0.294976
0.314618
0.334899
0.355807
0.377343
0.399535
0.422423
0.446082
0.470588
0.496015
0.522468
0.550058
0.578896
0.609093
0.64076
0.674006
0.708934
0.745639
0.784209
0.824724
0.867255
0.911867
0.958612
1.00752
1.05859
1.11182
1.16718
1.22464
1.28414
1.34562
1.40899
1.47414
1.5409
1.60912
1.67861
1.74919
1.82069
1.89294
1.96572
2.03886
2.11214
2.18557
2.25912
2.33277
2.40633
2.47971
2.55283
2.62558
2.69783
2.76945
2.84036
2.91059
2.98007
3.04871
3.11645
3.18328
3.24916
3.31403
3.37784
3.44052
3.50202
3.5623
3.62132
3.67903
3.7354
3.79037
3.84389
3.8959
3.94636
3.99524
4.04249
4.08808
4.13199
4.17416
4.21455
4.25311
4.28982
4.32465
4.35759
4.38862
4.41772
4.44488
4.47009
4.49333
4.51459
4.53388
4.55118
4.56651
4.57988
4.5913
4.60078
4.60833
4.61397
4.61775
4.61968
4.61981
4.61829
4.61487
4.60969
4.60282
4.5943
4.58417
4.57249
4.55928
4.54459
4.52846
4.51095
4.4921
4.47195
4.45054
4.42794
4.40417
4.37929
4.35334
4.32636
4.29833
4.2693
4.23936
4.20858
4.17701
4.14469
4.11167
4.078
4.04372
4.00887
3.97349
3.93753
3.90105
3.86417
3.82696
3.78947
3.75176
3.71389
3.67589
3.63782
3.5997
3.56159
3.5236
3.48584
3.4484
3.41134
3.37481
3.33819
3.30092
0.0046432
0.0478117
0.0743105
0.0849399
0.0887767
0.0893147
0.0875514
0.084844
0.082322
0.080582
0.0797886
0.0796408
0.0802115
0.0815186
0.0836195
0.086453
0.0899661
0.0941227
0.0989083
0.104317
0.110358
0.117043
0.124407
0.132485
0.141331
0.150989
0.161516
0.172941
0.185282
0.198521
0.212651
0.227632
0.243403
0.259903
0.277085
0.294916
0.313378
0.332475
0.352215
0.372629
0.393757
0.415671
0.438464
0.462252
0.48703
0.512848
0.5399
0.568309
0.598176
0.629619
0.662752
0.697696
0.734559
0.773448
0.814453
0.857663
0.903156
0.950996
1.00124
1.05393
1.10903
1.16649
1.22626
1.28826
1.35245
1.41873
1.48699
1.55711
1.62888
1.70206
1.77632
1.85139
1.92713
2.00343
2.08011
2.15694
2.23371
2.31053
2.3874
2.46418
2.5407
2.61698
2.69304
2.76868
2.84373
2.91809
2.99175
3.06459
3.13651
3.20742
3.27729
3.34606
3.41373
3.48024
3.54552
3.60951
3.67217
3.73346
3.79335
3.85181
3.90879
3.96425
4.01813
4.07037
4.12094
4.1698
4.21693
4.2623
4.30589
4.34765
4.38752
4.42547
4.46148
4.49553
4.5276
4.5577
4.5858
4.6119
4.63598
4.65805
4.67808
4.69609
4.71207
4.72604
4.738
4.74798
4.75599
4.76204
4.76614
4.76836
4.76871
4.7674
4.76418
4.7591
4.75227
4.74375
4.73357
4.72178
4.70841
4.69351
4.67713
4.65931
4.6401
4.61955
4.5977
4.5746
4.5503
4.52484
4.49828
4.47065
4.442
4.41239
4.38185
4.35041
4.31811
4.28502
4.25117
4.2166
4.18138
4.14554
4.10912
4.07218
4.03468
3.99666
3.95823
3.91946
3.8804