/*--------------------------------*- C++ -*----------------------------------*\
  =========                 |
  \\      /  F ield         | OpenFOAM: The Open Source CFD Toolbox
   \\    /   O peration     | Website:  https://openfoam.org
    \\  /    A nd           | Version:  8
     \\/     M anipulation  |
\*---------------------------------------------------------------------------*/
FoamFile
{
    version     2.0;
    format      ascii;
    class       volScalarField;
    location    "900";
    object      nut;
}
// * * * * * * * * * * * * * * * * * * * * * * * * * * * * * * * * * * * * * //

dimensions      [0 2 -1 0 0 0 0];

internalField   nonuniform List<scalar> 
12225
(
1.63813e-06
1.77367e-05
1.84054e-05
1.92699e-05
1.71981e-05
2.7199e-05
2.86264e-05
3.44553e-05
2.76134e-05
2.00809e-05
1.82989e-05
1.75045e-05
1.66067e-05
2.65699e-05
2.81417e-05
2.6172e-05
2.9499e-05
2.42354e-05
7.7733e-05
4.18317e-05
3.12221e-05
2.80411e-05
3.29259e-05
3.46408e-05
3.41739e-05
3.8515e-05
3.67252e-05
3.45192e-05
3.3863e-05
3.4767e-05
3.57552e-05
4.01189e-05
4.08506e-05
4.39968e-05
4.51121e-05
4.64529e-05
0.000291988
0.000217016
0.000122153
8.16778e-05
5.96936e-05
4.9605e-05
4.38715e-05
3.96835e-05
3.67745e-05
3.37558e-05
3.22825e-05
3.11332e-05
3.01294e-05
3.04049e-05
3.06002e-05
3.14387e-05
3.1509e-05
3.20834e-05
0.000422856
0.000410915
0.000360972
0.000270473
0.0002106
0.000169289
0.000144462
0.000124914
0.000112826
0.00010162
9.47985e-05
8.80387e-05
8.4618e-05
7.8975e-05
7.6914e-05
7.23246e-05
7.03704e-05
6.70845e-05
0.000454393
0.000441516
0.000440403
0.000416749
0.000375683
0.000334675
0.000301563
0.000272399
0.000251876
0.000234865
0.000221657
0.000210424
0.000204558
0.000196943
0.000191867
0.000184912
0.000180309
0.000172685
0.000453796
0.000451767
0.000451325
0.00044794
0.000435475
0.00042047
0.000401611
0.000384181
0.000367745
0.000354609
0.000343615
0.000331415
0.000319251
0.00031964
0.000307599
0.000309124
0.000307973
0.000302888
0.000454127
0.000453465
0.000454203
0.000454506
0.000451643
0.00044692
0.000440866
0.000433357
0.000426521
0.000420174
0.000413634
0.00040844
0.000402138
0.000397159
0.000394899
0.000388295
0.000389142
0.000387831
0.000454158
0.000453571
0.000453593
0.000453333
0.000452474
0.000452246
0.000450676
0.000447597
0.000444775
0.000442235
0.000439384
0.000436979
0.000434092
0.000432056
0.000428717
0.000426846
0.000426057
0.000423967
0.000454178
0.00045364
0.000453374
0.000452964
0.000452678
0.000452128
0.00045152
0.000450628
0.000449671
0.000448659
0.000447739
0.000446781
0.000445984
0.000445058
0.000444323
0.000443478
0.000442961
0.000442154
0.00045418
0.000453672
0.000453306
0.000452872
0.000452552
0.00045214
0.000451784
0.000451329
0.000450927
0.000450439
0.000450055
0.000449598
0.00044927
0.000448859
0.000448559
0.000448183
0.00044791
0.000447549
0.000454169
0.000453688
0.000453284
0.000452857
0.000452496
0.000452112
0.000451779
0.00045142
0.000451106
0.000450768
0.000450474
0.000450165
0.000449898
0.000449621
0.000449377
0.000449127
0.000448901
0.000448669
0.00045416
0.000453694
0.00045327
0.000452853
0.000452471
0.000452097
0.00045175
0.000451411
0.000451095
0.000450786
0.000450497
0.000450216
0.000449951
0.000449695
0.000449452
0.000449219
0.000448997
0.000448784
0.000454155
0.000453695
0.000453262
0.000452848
0.000452457
0.000452084
0.000451731
0.000451392
0.000451072
0.000450764
0.000450472
0.000450191
0.000449924
0.000449668
0.000449423
0.000449189
0.000448965
0.000448751
0.000454154
0.000453694
0.000453258
0.000452843
0.00045245
0.000452074
0.000451718
0.000451378
0.000451055
0.000450746
0.000450451
0.000450169
0.000449899
0.000449642
0.000449395
0.000449159
0.000448933
0.000448717
0.000454155
0.000453695
0.000453261
0.000452846
0.000452454
0.000452079
0.000451724
0.000451384
0.000451061
0.000450752
0.000450459
0.000450176
0.000449908
0.000449649
0.000449404
0.000449167
0.000448943
0.000448726
0.000454165
0.000453724
0.000453309
0.000452909
0.000452534
0.000452171
0.000451832
0.000451502
0.000451193
0.000450892
0.000450612
0.000450335
0.00045008
0.000449826
0.000449593
0.000449359
0.000449148
0.000448931
0.000454192
0.000453805
0.000453435
0.000453082
0.000452745
0.000452422
0.000452115
0.00045182
0.000451539
0.000451269
0.000451011
0.000450763
0.000450526
0.000450298
0.00045008
0.00044987
0.000449669
0.000449476
0.000454191
0.000453805
0.000453433
0.00045308
0.000452742
0.00045242
0.000452111
0.000451817
0.000451534
0.000451264
0.000451005
0.000450757
0.000450518
0.000450291
0.00045007
0.000449862
0.000449658
0.000449467
0.000454163
0.000453723
0.000453303
0.000452904
0.000452523
0.000452163
0.000451816
0.000451489
0.000451173
0.000450875
0.000450587
0.000450315
0.00045005
0.000449801
0.000449558
0.000449331
0.000449108
0.0004489
0.000454153
0.000453695
0.000453257
0.000452842
0.000452446
0.000452069
0.00045171
0.000451369
0.000451042
0.000450731
0.000450433
0.000450149
0.000449877
0.000449617
0.000449368
0.00044913
0.000448902
0.000448684
0.000454153
0.000453693
0.000453255
0.000452838
0.000452441
0.000452064
0.000451704
0.000451361
0.000451034
0.000450721
0.000450422
0.000450137
0.000449864
0.000449602
0.000449352
0.000449113
0.000448884
0.000448665
0.000454151
0.000453696
0.000453256
0.000452844
0.000452445
0.000452071
0.00045171
0.00045137
0.000451041
0.000450731
0.000450431
0.000450147
0.000449872
0.000449612
0.000449359
0.00044912
0.000448887
0.000448665
0.000454143
0.000453708
0.000453251
0.000452857
0.000452444
0.000452086
0.000451709
0.000451381
0.000451033
0.000450726
0.0004504
0.00045011
0.0004498
0.000449523
0.000449226
0.000448958
0.000448669
0.000448406
0.000454116
0.000453748
0.000453224
0.000452878
0.000452405
0.000452071
0.000451588
0.000451218
0.000450699
0.000450275
0.00044968
0.000449198
0.000448538
0.000448005
0.000447297
0.000446714
0.000445952
0.000445313
0.000454109
0.000453868
0.000453079
0.000452547
0.000451741
0.000451108
0.000449625
0.000448352
0.000446411
0.000444409
0.000442077
0.000439834
0.000437019
0.000434707
0.000431731
0.000429356
0.000426286
0.000423847
0.0004548
0.000454237
0.000450889
0.000445397
0.000443075
0.000438157
0.000429347
0.000421794
0.000411484
0.000402948
0.000392519
0.000384292
0.000374622
0.000367182
0.00035842
0.000351792
0.00034384
0.00033797
0.000462743
0.000444481
0.000425675
0.000384438
0.000370277
0.000343843
0.000314726
0.000291746
0.000269022
0.00025204
0.000235349
0.000223213
0.000210894
0.000202084
0.000192689
0.00018609
0.000178652
0.000173566
0.00053574
0.000357573
0.000256112
0.000201192
0.000159529
0.000131473
0.000112147
9.93555e-05
8.95254e-05
8.25756e-05
7.68628e-05
7.2721e-05
6.90618e-05
6.64721e-05
6.40294e-05
6.23379e-05
6.06205e-05
5.94503e-05
0.000350281
9.78142e-05
6.09323e-05
4.94502e-05
4.51312e-05
4.30077e-05
4.24179e-05
4.2132e-05
4.25373e-05
4.28795e-05
4.37337e-05
4.4423e-05
4.55697e-05
4.65141e-05
4.78853e-05
4.90377e-05
5.05063e-05
5.06729e-05
4.28446e-06
1.15681e-05
1.591e-05
1.90385e-05
2.09033e-05
2.20058e-05
2.23634e-05
2.24866e-05
2.24434e-05
2.22108e-05
2.1924e-05
2.16181e-05
2.13131e-05
2.10223e-05
2.07503e-05
2.05032e-05
2.02763e-05
2.00762e-05
1.53854e-12
1.74184e-10
8.86601e-10
3.48387e-09
1.16144e-08
3.52762e-08
9.23842e-08
1.83773e-07
2.97907e-07
4.18427e-07
5.26456e-07
6.10345e-07
6.66158e-07
6.87049e-07
6.78204e-07
6.50429e-07
5.97686e-07
5.11431e-07
4.34565e-07
3.6893e-07
3.0718e-07
2.47506e-07
1.90079e-07
1.36869e-07
8.94883e-08
5.26937e-08
2.81563e-08
1.42517e-08
7.2658e-09
3.94574e-09
2.37308e-09
1.76183e-09
1.83094e-09
3.56692e-09
7.2942e-09
4.75832e-08
1.06735e-07
2.49072e-07
3.90983e-07
4.45671e-07
4.13596e-07
3.36539e-07
2.77288e-07
2.64237e-07
2.85783e-07
3.733e-07
4.83654e-07
9.14281e-07
1.98457e-06
5.72403e-06
1.57047e-05
2.78559e-05
3.45094e-05
2.46519e-05
2.92834e-05
3.2658e-05
4.00126e-05
3.84789e-05
4.21127e-05
3.95442e-05
3.31e-05
3.00579e-05
3.16123e-05
3.23071e-05
3.30128e-05
3.36106e-05
3.41793e-05
3.47508e-05
3.5329e-05
3.58628e-05
3.6424e-05
3.69489e-05
3.74886e-05
3.8008e-05
3.85328e-05
3.90463e-05
3.9561e-05
4.0069e-05
4.05766e-05
4.10801e-05
4.15824e-05
4.20821e-05
4.25803e-05
4.30768e-05
4.35717e-05
4.40653e-05
4.45571e-05
4.50479e-05
4.5537e-05
4.60251e-05
4.65116e-05
4.69959e-05
4.74779e-05
4.7957e-05
4.84327e-05
4.89048e-05
4.93732e-05
4.9839e-05
5.03037e-05
5.07718e-05
5.12494e-05
5.17324e-05
5.22155e-05
5.27037e-05
5.31967e-05
5.36954e-05
5.42003e-05
5.47117e-05
5.52303e-05
5.57565e-05
5.6291e-05
5.68343e-05
5.73871e-05
5.795e-05
5.8524e-05
5.91096e-05
5.97079e-05
6.03197e-05
6.0946e-05
6.1588e-05
6.22468e-05
6.29237e-05
6.36202e-05
6.43378e-05
6.50783e-05
6.58438e-05
6.66366e-05
6.74592e-05
6.8321e-05
6.9217e-05
7.01105e-05
7.10986e-05
7.20469e-05
7.31065e-05
7.41972e-05
7.53606e-05
7.65743e-05
7.73181e-05
7.70629e-05
7.67978e-05
7.65196e-05
7.62309e-05
7.59321e-05
7.56226e-05
7.53042e-05
7.49759e-05
7.46395e-05
7.42935e-05
7.39394e-05
7.35771e-05
7.32077e-05
7.28318e-05
7.24501e-05
7.20634e-05
7.16721e-05
7.12769e-05
7.08793e-05
7.048e-05
7.00801e-05
6.96806e-05
6.92821e-05
6.8885e-05
6.84898e-05
6.80966e-05
6.77057e-05
6.73177e-05
6.69325e-05
6.65512e-05
6.61735e-05
6.58006e-05
6.54314e-05
6.50661e-05
6.47027e-05
6.43397e-05
6.3972e-05
6.35922e-05
6.31905e-05
6.27351e-05
6.21759e-05
6.07318e-05
6.95378e-12
1.12742e-09
1.52864e-08
8.1346e-08
3.51578e-07
1.1476e-06
2.66763e-06
4.87933e-06
7.57052e-06
1.06432e-05
1.37531e-05
1.66381e-05
1.90879e-05
2.09251e-05
2.20198e-05
2.23413e-05
2.20001e-05
2.12402e-05
1.89699e-05
1.59457e-05
1.2286e-05
9.03065e-06
6.35856e-06
4.28387e-06
2.7006e-06
1.67123e-06
1.02117e-06
6.34662e-07
3.98429e-07
2.60456e-07
1.87362e-07
1.62668e-07
1.49e-07
2.59584e-07
3.2581e-07
2.8693e-06
6.35658e-06
1.36837e-05
1.97933e-05
2.23736e-05
2.13794e-05
1.92208e-05
1.6845e-05
1.55729e-05
1.62207e-05
1.63775e-05
1.83521e-05
2.43416e-05
3.51671e-05
4.57816e-05
5.74241e-05
6.74443e-05
7.66025e-05
8.35999e-05
9.38462e-05
0.000103979
0.000116343
0.00012959
0.000145485
0.000156797
0.000169583
0.000179013
0.000193187
0.000205804
0.000217419
0.00022942
0.00024051
0.000251356
0.000261681
0.000271773
0.000281474
0.000290972
0.000300179
0.000309212
0.000318028
0.000326695
0.000335191
0.000343559
0.000351787
0.000359898
0.000367888
0.000375771
0.000383546
0.00039122
0.000398794
0.000406273
0.000413657
0.000420951
0.000428153
0.000435266
0.000442291
0.000449221
0.000456054
0.000462779
0.000469381
0.000475835
0.000482106
0.00048814
0.000493856
0.000499147
0.000503867
0.000508299
0.000512683
0.000516917
0.00052105
0.000525056
0.000528943
0.000532706
0.000536342
0.000539849
0.000543225
0.000546468
0.000549576
0.000552546
0.000555376
0.000558064
0.000560609
0.000563007
0.000565258
0.00056736
0.00056931
0.000571106
0.000572747
0.00057423
0.000575554
0.000576716
0.000577716
0.000578555
0.000579234
0.000579777
0.000580123
0.000580391
0.000580345
0.000580209
0.000579912
0.000579564
0.000579172
0.000578866
0.000578594
0.000578169
0.000577604
0.000576908
0.000576084
0.000575136
0.000574068
0.00057288
0.000571577
0.00057016
0.000568631
0.000566995
0.000565256
0.000563416
0.000561489
0.000559476
0.000557372
0.000555194
0.000552948
0.000550641
0.000548284
0.000545884
0.000543449
0.000540982
0.000538488
0.000535966
0.000533418
0.000530846
0.000528253
0.000525641
0.000523013
0.00052037
0.000517712
0.000515027
0.0005123
0.00050951
0.000506603
0.000503491
0.000500065
0.000496008
0.000490609
0.000475476
1.82483e-11
3.11843e-09
5.88643e-08
3.56061e-07
1.0801e-06
2.86098e-06
6.08788e-06
1.05989e-05
1.61881e-05
2.25539e-05
2.93279e-05
3.60521e-05
4.21176e-05
4.71729e-05
5.1023e-05
5.35382e-05
5.49126e-05
5.52323e-05
5.37659e-05
5.09373e-05
4.63933e-05
4.0544e-05
3.34426e-05
2.63172e-05
1.97732e-05
1.41475e-05
9.61179e-06
6.41673e-06
4.07303e-06
2.7049e-06
1.91485e-06
1.51541e-06
1.29505e-06
1.94623e-06
3.34068e-06
1.49565e-05
3.21328e-05
5.10292e-05
6.18686e-05
6.17617e-05
5.14585e-05
4.09502e-05
3.8618e-05
4.39879e-05
5.10625e-05
5.9655e-05
7.21123e-05
8.44837e-05
9.71246e-05
0.000113529
0.000131974
0.000152374
0.000174454
0.000197725
0.000226383
0.000256646
0.000288207
0.000319995
0.000350763
0.000379773
0.000407336
0.000435057
0.000461173
0.000487017
0.000510559
0.0005337
0.000555767
0.00057693
0.000597407
0.000617296
0.000636618
0.000655504
0.000673954
0.000692057
0.000709817
0.000727287
0.000744473
0.000761406
0.000778091
0.000794545
0.000810773
0.000826785
0.000842583
0.000858174
0.000873558
0.000888738
0.000903714
0.000918485
0.000933048
0.000947399
0.000961533
0.000975435
0.00098909
0.00100248
0.00101557
0.00102833
0.00104073
0.00105271
0.00106425
0.00107532
0.00108598
0.0010964
0.00110661
0.00111654
0.00112624
0.00113566
0.00114483
0.00115372
0.00116233
0.00117066
0.0011787
0.00118645
0.00119391
0.00120106
0.00120791
0.00121445
0.00122068
0.00122659
0.00123218
0.00123745
0.00124239
0.00124701
0.00125129
0.00125523
0.00125884
0.00126211
0.00126504
0.00126763
0.00126988
0.0012718
0.00127335
0.00127461
0.00127545
0.00127595
0.00127613
0.00127624
0.00127608
0.00127572
0.0012751
0.00127416
0.0012729
0.00127135
0.00126951
0.00126738
0.00126497
0.0012623
0.00125937
0.00125619
0.00125276
0.00124909
0.00124519
0.00124108
0.00123676
0.00123225
0.00122755
0.00122268
0.00121765
0.0012125
0.00120724
0.00120187
0.00119644
0.00119093
0.00118536
0.00117974
0.00117406
0.00116834
0.00116256
0.00115676
0.00115092
0.00114505
0.00113916
0.00113322
0.00112719
0.00112103
0.00111462
0.0011078
0.00110029
0.00109137
0.00107916
0.00105176
6.69564e-11
1.13273e-08
1.79776e-07
8.03362e-07
2.43808e-06
6.74022e-06
1.33865e-05
2.23429e-05
3.29481e-05
4.41139e-05
5.49292e-05
6.4912e-05
7.34602e-05
8.00102e-05
8.49201e-05
8.80396e-05
8.92791e-05
8.90309e-05
8.74303e-05
8.43572e-05
7.98551e-05
7.43908e-05
6.71286e-05
5.84601e-05
4.88504e-05
3.91712e-05
3.02152e-05
2.27299e-05
1.69788e-05
1.23251e-05
9.54231e-06
7.0001e-06
7.43257e-06
1.07854e-05
2.37286e-05
4.6475e-05
6.59294e-05
7.75404e-05
7.51489e-05
7.17339e-05
7.11879e-05
7.41331e-05
8.10253e-05
9.1329e-05
0.000105821
0.000117764
0.000134724
0.000158356
0.000182895
0.000214551
0.000248534
0.00028666
0.00032712
0.000369808
0.000414648
0.000459536
0.000503975
0.00054759
0.000589713
0.00063024
0.000668202
0.000706781
0.000742382
0.000777439
0.000810503
0.000842629
0.000873641
0.000903722
0.000933014
0.0009616
0.000989557
0.00101697
0.00104387
0.00107033
0.00109636
0.00112201
0.00114728
0.0011722
0.00119678
0.00122103
0.00124495
0.00126854
0.00129182
0.00131478
0.00133741
0.00135973
0.00138173
0.0014034
0.00142473
0.00144573
0.00146637
0.00148665
0.00150654
0.00152604
0.00154511
0.00156373
0.00158189
0.00159958
0.00161679
0.00163354
0.00164989
0.00166589
0.00168152
0.00169677
0.00171163
0.00172609
0.00174015
0.00175379
0.00176701
0.0017798
0.00179215
0.00180406
0.00181552
0.00182653
0.00183709
0.00184718
0.0018568
0.00186595
0.00187463
0.00188282
0.00189054
0.00189777
0.0019045
0.00191075
0.0019165
0.00192176
0.00192652
0.00193079
0.00193456
0.00193783
0.00194059
0.00194287
0.00194462
0.00194583
0.00194661
0.0019472
0.00194727
0.00194694
0.00194615
0.0019449
0.00194318
0.00194102
0.00193843
0.00193542
0.00193199
0.00192817
0.00192395
0.00191936
0.00191441
0.0019091
0.00190346
0.00189749
0.00189122
0.00188466
0.00187782
0.00187072
0.0018634
0.00185588
0.00184819
0.00184034
0.00183238
0.0018243
0.00181613
0.00180786
0.00179951
0.00179109
0.00178258
0.00177402
0.00176541
0.00175676
0.00174807
0.00173931
0.00173044
0.00172138
0.001712
0.00170209
0.00169127
0.00167852
0.00166138
0.00162895
2.28647e-10
3.41371e-08
4.0605e-07
1.8965e-06
6.59094e-06
1.58726e-05
2.95172e-05
4.57914e-05
6.27756e-05
7.87324e-05
9.24252e-05
0.000102835
0.000110489
0.000115839
0.000118967
0.00012041
0.000120322
0.000118832
0.000116113
0.000112222
0.000107081
0.000101164
9.40828e-05
8.55769e-05
7.57517e-05
6.48748e-05
5.37145e-05
4.35383e-05
3.50633e-05
2.82983e-05
2.22814e-05
2.07097e-05
2.49723e-05
4.08909e-05
6.5385e-05
8.18715e-05
9.01227e-05
9.37236e-05
9.61668e-05
0.000100508
0.000108447
0.000120884
0.000135094
0.000147107
0.000166473
0.000194865
0.000224995
0.000263363
0.00030445
0.000351625
0.000400515
0.000452608
0.000505857
0.000560119
0.000614629
0.000668309
0.000720887
0.000772185
0.000821577
0.000869809
0.000915799
0.000961206
0.00100438
0.00104648
0.00108707
0.00112658
0.00116502
0.00120253
0.00123922
0.00127516
0.00131043
0.00134509
0.00137919
0.00141276
0.00144584
0.00147845
0.0015106
0.0015423
0.00157356
0.00160439
0.00163479
0.00166476
0.00169429
0.0017234
0.00175207
0.00178031
0.00180811
0.00183546
0.00186237
0.00188881
0.00191479
0.00194029
0.0019653
0.00198981
0.00201381
0.00203728
0.00206023
0.00208265
0.00210457
0.00212598
0.00214691
0.00216738
0.00218735
0.00220683
0.0022258
0.00224426
0.00226219
0.00227958
0.00229643
0.00231272
0.00232846
0.00234363
0.00235823
0.00237226
0.00238571
0.00239857
0.00241085
0.00242253
0.00243362
0.00244411
0.002454
0.00246328
0.00247196
0.00248003
0.0024875
0.00249435
0.0025006
0.00250624
0.00251127
0.00251569
0.0025195
0.00252268
0.00252525
0.00252714
0.00252855
0.00252957
0.00252997
0.00252981
0.00252908
0.00252777
0.0025259
0.00252349
0.00252054
0.00251706
0.00251307
0.00250859
0.00250362
0.00249818
0.0024923
0.00248597
0.00247923
0.00247209
0.00246455
0.00245665
0.0024484
0.00243983
0.00243097
0.00242184
0.00241248
0.00240293
0.00239319
0.00238331
0.00237329
0.00236314
0.00235287
0.00234248
0.00233199
0.00232141
0.00231075
0.00230003
0.00228922
0.00227832
0.0022673
0.00225607
0.0022445
0.00223237
0.0022193
0.00220423
0.00218443
0.00215179
7.25879e-10
8.38272e-08
1.01081e-06
5.12737e-06
1.67619e-05
3.54571e-05
5.8071e-05
8.1223e-05
0.000101555
0.000117673
0.000129593
0.000138264
0.000143482
0.000146149
0.000146899
0.000146179
0.000144251
0.000141271
0.000137364
0.000132496
0.000126702
0.000120288
0.000112842
0.000104278
9.38246e-05
7.85201e-05
6.36991e-05
4.97568e-05
3.79486e-05
3.23001e-05
3.27894e-05
4.30988e-05
6.38203e-05
8.59458e-05
0.000101878
0.0001115
0.000117408
0.000123202
0.000132475
0.000147338
0.00016039
0.000172675
0.000194108
0.000222211
0.000255653
0.000297087
0.00034248
0.000394269
0.000448307
0.000505955
0.000564692
0.000624986
0.000685551
0.000746131
0.00080615
0.000865063
0.000922677
0.000978721
0.00103351
0.00108697
0.00113864
0.00118914
0.00123803
0.00128571
0.00133213
0.00137747
0.0014218
0.00146522
0.00150781
0.00154964
0.00159078
0.00163127
0.00167114
0.00171044
0.00174917
0.00178735
0.00182499
0.0018621
0.00189867
0.00193471
0.00197021
0.00200518
0.00203962
0.00207351
0.00210687
0.00213968
0.00217195
0.00220367
0.00223484
0.00226545
0.0022955
0.00232498
0.00235389
0.00238221
0.00240995
0.00243709
0.00246365
0.00248963
0.00251504
0.00253987
0.00256413
0.00258782
0.00261093
0.00263344
0.00265535
0.00267665
0.00269733
0.00271738
0.00273679
0.00275556
0.00277367
0.00279113
0.00280792
0.00282406
0.00283952
0.00285432
0.00286845
0.0028819
0.00289467
0.00290677
0.00291819
0.00292893
0.00293899
0.00294837
0.00295707
0.00296509
0.00297243
0.0029791
0.0029851
0.00299046
0.00299506
0.00299901
0.00300229
0.0030048
0.00300681
0.00300828
0.00300907
0.00300922
0.00300873
0.00300761
0.00300586
0.0030035
0.00300055
0.00299701
0.00299289
0.00298821
0.00298299
0.00297724
0.00297098
0.00296423
0.002957
0.00294931
0.00294118
0.00293262
0.00292366
0.00291431
0.00290463
0.00289462
0.00288434
0.00287381
0.00286306
0.00285211
0.00284098
0.00282968
0.00281821
0.00280659
0.00279484
0.00278296
0.00277097
0.00275889
0.00274671
0.00273443
0.00272201
0.00270939
0.00269645
0.00268301
0.0026687
0.0026526
0.00263223
0.00260139
2.31956e-09
2.13711e-07
2.67301e-06
1.40111e-05
3.67344e-05
6.54551e-05
9.23055e-05
0.000114188
0.000131071
0.000144031
0.000153405
0.000159218
0.000162275
0.000163292
0.000162767
0.000161029
0.000158284
0.000154642
0.00015006
0.000144465
0.000138048
0.000130647
0.000121966
0.000106353
9.10065e-05
7.75095e-05
6.54429e-05
5.64542e-05
5.43599e-05
6.12413e-05
7.37275e-05
9.73056e-05
0.000116407
0.000129515
0.00013897
0.000146791
0.000156707
0.000172078
0.00018354
0.000195055
0.000215971
0.000243105
0.000276998
0.000317797
0.000364776
0.000417888
0.000474521
0.000534815
0.000596646
0.000660251
0.000724429
0.000789079
0.000853541
0.000917551
0.000980522
0.00104224
0.00110319
0.00116279
0.00122101
0.00127793
0.00133342
0.00138767
0.00144062
0.00149241
0.00154309
0.00159274
0.00164144
0.00168927
0.00173629
0.00178256
0.00182812
0.001873
0.00191724
0.00196085
0.00200384
0.00204622
0.00208798
0.00212914
0.00216967
0.00220958
0.00224886
0.00228752
0.00232554
0.00236293
0.00239968
0.0024358
0.00247129
0.00250614
0.00254035
0.00257393
0.00260687
0.00263917
0.00267082
0.00270184
0.0027322
0.00276192
0.00279098
0.00281939
0.00284713
0.00287422
0.00290066
0.00292646
0.0029516
0.00297607
0.00299987
0.00302299
0.00304543
0.00306717
0.00308821
0.00310856
0.00312821
0.00314716
0.0031654
0.00318292
0.00319972
0.00321579
0.00323115
0.00324578
0.00325969
0.00327287
0.00328533
0.00329706
0.00330808
0.00331837
0.00332795
0.0033368
0.00334495
0.00335238
0.00335913
0.00336518
0.00337044
0.00337503
0.0033789
0.00338196
0.00338452
0.00338644
0.00338765
0.00338818
0.00338804
0.00338722
0.00338576
0.00338364
0.0033809
0.00337756
0.00337366
0.00336917
0.00336411
0.00335849
0.00335232
0.00334562
0.00333841
0.00333069
0.00332249
0.00331383
0.00330472
0.00329518
0.00328526
0.00327499
0.00326439
0.0032535
0.00324234
0.00323094
0.00321931
0.00320747
0.00319543
0.00318319
0.00317078
0.00315821
0.0031455
0.00313266
0.00311971
0.00310664
0.00309343
0.00308003
0.00306636
0.00305227
0.00303747
0.0030212
0.00300153
0.00297355
6.95861e-09
5.64148e-07
7.17326e-06
3.00109e-05
6.35362e-05
9.71606e-05
0.000125145
0.000145945
0.000160252
0.000168976
0.00017333
0.000175091
0.000175199
0.000173996
0.00017179
0.000168749
0.00016485
0.000159984
0.000154231
0.000147773
0.000140473
0.000131943
0.000115214
9.86127e-05
8.46949e-05
7.48145e-05
7.13701e-05
7.53793e-05
8.4004e-05
0.000103579
0.000128493
0.000151181
0.000165561
0.000175117
0.000185853
0.000197543
0.000203905
0.000215281
0.000233976
0.00025874
0.000291042
0.000329888
0.000375403
0.000427042
0.000483754
0.00054441
0.000607401
0.000672303
0.000738153
0.000804759
0.00087153
0.000938225
0.00100439
0.00106964
0.0011343
0.00119803
0.00126063
0.00132206
0.00138227
0.00144128
0.00149908
0.00155573
0.00161125
0.00166571
0.00171916
0.00177166
0.00182329
0.00187408
0.00192409
0.00197337
0.00202195
0.00206986
0.00211711
0.00216371
0.00220966
0.00225495
0.00229957
0.00234352
0.00238678
0.00242935
0.00247122
0.00251238
0.00255282
0.00259256
0.00263159
0.00266991
0.00270751
0.00274442
0.00278063
0.00281615
0.00285097
0.0028851
0.00291855
0.0029513
0.00298337
0.00301474
0.00304542
0.00307538
0.00310464
0.00313321
0.00316109
0.00318829
0.00321479
0.00324059
0.00326567
0.00329004
0.00331369
0.00333661
0.0033588
0.00338024
0.00340094
0.0034209
0.0034401
0.00345855
0.00347625
0.0034932
0.0035094
0.00352486
0.00353956
0.00355352
0.00356673
0.0035792
0.00359093
0.00360193
0.00361219
0.00362173
0.00363054
0.00363863
0.00364608
0.00365273
0.00365864
0.00366387
0.00366836
0.00367205
0.00367523
0.00367772
0.0036795
0.00368059
0.00368099
0.00368072
0.00367978
0.00367819
0.00367595
0.00367307
0.00366958
0.00366547
0.00366076
0.00365548
0.00364962
0.0036432
0.00363624
0.00362876
0.00362075
0.00361225
0.00360327
0.00359383
0.00358397
0.00357372
0.00356311
0.00355217
0.00354092
0.00352938
0.00351758
0.00350553
0.00349323
0.0034807
0.00346796
0.00345502
0.00344192
0.00342866
0.00341526
0.00340173
0.00338805
0.0033742
0.00336012
0.00334571
0.00333076
0.0033148
0.00329626
0.00327159
1.80952e-08
1.39955e-06
1.60129e-05
5.05342e-05
8.98778e-05
0.000123579
0.00014938
0.000167268
0.000178317
0.000184034
0.00018588
0.000185018
0.000182395
0.000178734
0.000174439
0.00016962
0.0001642
0.000158206
0.00015158
0.000144397
0.000136523
0.00012511
0.000112902
0.000105698
0.000101793
9.7069e-05
0.000100378
0.00011444
0.000133599
0.000154491
0.00017444
0.000191148
0.000203332
0.000211981
0.000220781
0.000231837
0.000248767
0.000270897
0.000300236
0.000336076
0.000378627
0.000427136
0.000481217
0.000539956
0.000602165
0.000666732
0.000732722
0.00079969
0.000867132
0.000934781
0.00100233
0.00106916
0.00113553
0.0012015
0.00126653
0.0013306
0.00139364
0.00145561
0.00151649
0.00157629
0.00163501
0.00169269
0.00174936
0.00180508
0.00185988
0.00191383
0.00196695
0.0020193
0.00207092
0.00212186
0.00217215
0.00222179
0.00227081
0.0023192
0.00236693
0.00241398
0.00246035
0.00250601
0.00255095
0.00259515
0.00263859
0.00268127
0.00272318
0.00276433
0.00280474
0.00284444
0.00288338
0.00292155
0.00295897
0.00299564
0.00303156
0.00306675
0.00310121
0.00313494
0.00316795
0.00320024
0.0032318
0.00326267
0.00329282
0.00332227
0.00335101
0.00337904
0.00340635
0.00343293
0.00345878
0.00348388
0.00350825
0.00353187
0.00355474
0.00357684
0.00359819
0.00361878
0.0036386
0.00365765
0.00367594
0.00369347
0.00371024
0.00372625
0.00374151
0.00375602
0.00376978
0.0037828
0.00379509
0.00380664
0.00381746
0.00382755
0.00383693
0.00384564
0.00385365
0.00386088
0.00386742
0.00387328
0.0038784
0.00388278
0.00388661
0.00388974
0.00389218
0.00389394
0.00389503
0.00389544
0.0038952
0.0038943
0.00389275
0.00389057
0.00388777
0.00388435
0.00388033
0.00387571
0.00387052
0.00386475
0.00385843
0.00385156
0.00384415
0.00383622
0.00382779
0.00381887
0.0038095
0.00379971
0.00378953
0.00377898
0.00376809
0.00375688
0.00374536
0.00373355
0.00372146
0.0037091
0.00369649
0.00368366
0.00367062
0.00365741
0.00364402
0.00363048
0.00361678
0.00360293
0.00358888
0.00357458
0.00355989
0.00354434
0.00352677
0.00350487
4.03158e-08
3.23071e-06
2.89527e-05
7.38094e-05
0.000117637
0.000151437
0.000173765
0.000187277
0.000193839
0.00019506
0.000192806
0.000188443
0.000182898
0.000176737
0.000170241
0.000163246
0.000156097
0.000148229
0.000140394
0.000132209
0.000123704
0.0001158
0.000110315
0.000109512
0.000115105
0.000126532
0.000142145
0.000159471
0.000177386
0.000194445
0.000208883
0.000219994
0.000231484
0.000244174
0.000260162
0.000280212
0.000306531
0.000338888
0.000377662
0.000422236
0.000472308
0.000527226
0.000586343
0.000648703
0.000713293
0.000779283
0.000846085
0.000913339
0.000980731
0.00104782
0.00111434
0.00118083
0.00124656
0.00131159
0.00137573
0.00143893
0.00150116
0.00156239
0.00162262
0.00168186
0.00174011
0.00179741
0.00185381
0.00190936
0.00196411
0.00201811
0.00207139
0.00212393
0.00217583
0.00222715
0.0022779
0.0023281
0.00237778
0.00242695
0.00247571
0.00252391
0.00257143
0.00261819
0.00266418
0.00270938
0.00275375
0.00279729
0.00283999
0.00288184
0.00292286
0.00296302
0.00300237
0.00304095
0.00307877
0.00311586
0.00315221
0.00318783
0.00322274
0.00325693
0.00329041
0.00332319
0.00335526
0.00338663
0.0034173
0.00344726
0.0034765
0.00350502
0.00353281
0.00355988
0.0035862
0.00361179
0.00363663
0.00366071
0.00368404
0.00370662
0.00372843
0.00374947
0.00376975
0.00378926
0.00380801
0.003826
0.00384323
0.00385971
0.00387544
0.00389042
0.00390467
0.00391818
0.00393097
0.00394303
0.00395438
0.00396502
0.00397498
0.00398429
0.00399285
0.00400072
0.00400791
0.00401443
0.00402025
0.00402539
0.00402993
0.0040338
0.004037
0.00403954
0.00404142
0.00404266
0.00404324
0.00404319
0.0040425
0.00404118
0.00403925
0.0040367
0.00403356
0.00402982
0.0040255
0.00402061
0.00401515
0.00400913
0.00400255
0.00399544
0.00398779
0.00397965
0.00397103
0.00396196
0.00395247
0.00394259
0.00393233
0.00392172
0.00391076
0.00389948
0.00388788
0.00387597
0.00386379
0.00385135
0.00383867
0.00382578
0.00381269
0.00379943
0.003786
0.00377241
0.00375866
0.00374471
0.00373049
0.00371565
0.00369923
0.00368044
7.67757e-08
6.63276e-06
4.25916e-05
9.29802e-05
0.000138315
0.000171576
0.000192187
0.000201888
0.000204123
0.000201484
0.000195853
0.000188526
0.000180347
0.000171555
0.000163026
0.000154383
0.000146476
0.000139484
0.000133976
0.000129735
0.0001276
0.00012857
0.000133163
0.000141524
0.000153147
0.000167157
0.000182441
0.000197944
0.0002124
0.000224788
0.000237551
0.000252089
0.000268274
0.000287372
0.000311171
0.000340238
0.000375118
0.000415451
0.000461005
0.000511261
0.00056579
0.000624008
0.000685231
0.000748639
0.000813453
0.000879073
0.000945074
0.00101118
0.00107678
0.00114217
0.00120723
0.00127166
0.00133532
0.00139813
0.00146002
0.00152097
0.00158097
0.00164003
0.00169817
0.0017554
0.0018117
0.00186711
0.00192175
0.00197569
0.00202897
0.00208168
0.00213396
0.00218608
0.00223774
0.00228889
0.00233955
0.00238972
0.00243941
0.00248861
0.00253724
0.00258528
0.0026327
0.00267942
0.00272544
0.00277071
0.00281519
0.00285885
0.00290168
0.00294367
0.00298483
0.00302521
0.00306482
0.00310368
0.00314178
0.00317915
0.00321579
0.00325171
0.00328693
0.00332145
0.00335526
0.00338838
0.00342081
0.00345254
0.00348357
0.00351389
0.00354351
0.00357242
0.00360061
0.00362808
0.00365482
0.00368082
0.00370609
0.00373061
0.00375438
0.00377741
0.00379967
0.00382118
0.00384193
0.00386192
0.00388115
0.00389963
0.00391735
0.00393433
0.00395057
0.00396608
0.00398086
0.00399492
0.00400826
0.0040209
0.00403285
0.0040441
0.0040547
0.00406463
0.00407386
0.00408243
0.00409035
0.00409762
0.00410422
0.0041102
0.00411556
0.00412026
0.00412432
0.00412775
0.00413055
0.00413273
0.00413427
0.00413519
0.0041355
0.00413518
0.00413426
0.00413274
0.00413063
0.00412793
0.00412465
0.00412079
0.00411637
0.00411137
0.00410581
0.00409969
0.00409302
0.00408583
0.00407815
0.00407
0.0040614
0.00405238
0.00404296
0.00403316
0.00402298
0.00401243
0.00400154
0.0039903
0.00397876
0.00396692
0.00395482
0.00394248
0.00392991
0.00391714
0.00390418
0.00389106
0.00387778
0.00386435
0.00385072
0.00383666
0.00382132
0.00380519
1.23094e-07
1.14749e-05
5.94019e-05
0.000116864
0.000162369
0.000192193
0.000208097
0.000213704
0.000212378
0.000206732
0.000198696
0.000189323
0.000179911
0.000170892
0.00016301
0.000156231
0.000151048
0.000148058
0.000147058
0.000148312
0.000152091
0.000158455
0.000167219
0.000178023
0.000190359
0.000203699
0.000216969
0.000229366
0.00024221
0.000257411
0.000274458
0.000293075
0.00031528
0.000341713
0.000373013
0.000409227
0.00045023
0.00049563