/*--------------------------------*- C++ -*----------------------------------*\
  =========                 |
  \\      /  F ield         | OpenFOAM: The Open Source CFD Toolbox
   \\    /   O peration     | Website:  https://openfoam.org
    \\  /    A nd           | Version:  8
     \\/     M anipulation  |
\*---------------------------------------------------------------------------*/
FoamFile
{
    version     2.0;
    format      ascii;
    class       volVectorField;
    location    "900";
    object      U;
}
// * * * * * * * * * * * * * * * * * * * * * * * * * * * * * * * * * * * * * //

dimensions      [0 1 -1 0 0 0 0];

internalField   nonuniform List<vector> 
12225
(
(9.76753 0.049895 0)
(9.30079 0.0999221 0)
(8.85656 0.102098 0)
(8.44199 0.0966462 0)
(8.07811 0.0831783 0)
(7.7777 0.0625527 0)
(7.52384 0.0475865 0)
(7.31109 0.0450917 0)
(7.13389 0.048312 0)
(6.96935 0.0416719 0)
(6.84525 0.0346423 0)
(6.73709 0.0250496 0)
(6.65545 0.00747454 0)
(6.59776 -0.00379241 0)
(6.5476 -0.007335 0)
(6.50773 -0.00966922 0)
(6.47753 -4.91373e-05 0)
(6.47721 0.00363949 0)
(10.082 0.0588795 0)
(10.2508 0.0917156 0)
(10.3387 0.0917648 0)
(10.3678 0.0866743 0)
(10.3488 0.083165 0)
(10.3029 0.0806389 0)
(10.2383 0.0756947 0)
(10.1568 0.0680554 0)
(10.0611 0.0614205 0)
(9.96761 0.0571463 0)
(9.86993 0.0527262 0)
(9.77364 0.0482209 0)
(9.68383 0.0444062 0)
(9.59829 0.040934 0)
(9.5207 0.037214 0)
(9.44934 0.0325378 0)
(9.38203 0.0228983 0)
(9.30793 0.0132475 0)
(10.0193 0.0427423 0)
(10.0783 0.0654222 0)
(10.1308 0.0694265 0)
(10.1725 0.0754347 0)
(10.2084 0.0799458 0)
(10.2388 0.0805101 0)
(10.2615 0.0801825 0)
(10.2768 0.0796466 0)
(10.2861 0.0786432 0)
(10.2915 0.0757762 0)
(10.2914 0.0720951 0)
(10.2871 0.0676138 0)
(10.2779 0.062379 0)
(10.2639 0.0580125 0)
(10.2479 0.0543561 0)
(10.231 0.0503267 0)
(10.2132 0.0450602 0)
(10.1923 0.0379599 0)
(10.0074 0.031416 0)
(10.0413 0.05611 0)
(10.0724 0.0640121 0)
(10.0953 0.069529 0)
(10.1152 0.0725977 0)
(10.1337 0.072295 0)
(10.1501 0.0709509 0)
(10.1648 0.0698398 0)
(10.1785 0.0686268 0)
(10.1913 0.0663841 0)
(10.203 0.0635737 0)
(10.2131 0.0599665 0)
(10.2209 0.0560149 0)
(10.2269 0.0527144 0)
(10.2318 0.0498682 0)
(10.2361 0.0468866 0)
(10.2395 0.0433269 0)
(10.2418 0.0387853 0)
(10.0043 0.0239202 0)
(10.0284 0.0494086 0)
(10.053 0.0588322 0)
(10.0715 0.063848 0)
(10.0868 0.0666767 0)
(10.1009 0.0670735 0)
(10.1135 0.0664319 0)
(10.1248 0.0656619 0)
(10.1354 0.0646324 0)
(10.1455 0.0628656 0)
(10.1551 0.0604872 0)
(10.1638 0.0573982 0)
(10.1712 0.0539961 0)
(10.1777 0.0508402 0)
(10.1835 0.0478772 0)
(10.1891 0.0448258 0)
(10.1941 0.0413637 0)
(10.1985 0.0374472 0)
(10.003 0.0192286 0)
(10.0209 0.0428133 0)
(10.0414 0.0528109 0)
(10.0581 0.0581047 0)
(10.072 0.0614197 0)
(10.0847 0.0625866 0)
(10.0962 0.0624492 0)
(10.1064 0.0617708 0)
(10.1159 0.0606566 0)
(10.1249 0.0589161 0)
(10.1333 0.0566083 0)
(10.1409 0.0537309 0)
(10.1476 0.0506068 0)
(10.1536 0.0475657 0)
(10.159 0.0446288 0)
(10.1642 0.0416373 0)
(10.1689 0.0383729 0)
(10.1731 0.0348732 0)
(10.0021 0.0155236 0)
(10.0156 0.0366166 0)
(10.0328 0.0469815 0)
(10.048 0.0525502 0)
(10.0608 0.0560903 0)
(10.0727 0.0576908 0)
(10.0836 0.0579021 0)
(10.0935 0.057385 0)
(10.1026 0.056355 0)
(10.111 0.0547675 0)
(10.1189 0.0526426 0)
(10.126 0.0500397 0)
(10.1324 0.0472193 0)
(10.1381 0.044391 0)
(10.1434 0.0415891 0)
(10.1482 0.0387277 0)
(10.1527 0.0356902 0)
(10.1566 0.0325266 0)
(10.0016 0.0128328 0)
(10.0122 0.0318317 0)
(10.027 0.0423441 0)
(10.0409 0.048054 0)
(10.053 0.051628 0)
(10.0643 0.0534392 0)
(10.0747 0.0538668 0)
(10.0843 0.0534707 0)
(10.0931 0.0525123 0)
(10.1013 0.0510384 0)
(10.1088 0.0490764 0)
(10.1157 0.0467102 0)
(10.1219 0.0441203 0)
(10.1275 0.0414656 0)
(10.1326 0.0387838 0)
(10.1373 0.0360421 0)
(10.1416 0.0331867 0)
(10.1454 0.0302534 0)
(10.0012 0.0108474 0)
(10.0099 0.0278333 0)
(10.0227 0.0381526 0)
(10.0354 0.0439124 0)
(10.0468 0.0474995 0)
(10.0574 0.0494541 0)
(10.0674 0.0500823 0)
(10.0767 0.0498497 0)
(10.0852 0.0490211 0)
(10.0932 0.0476786 0)
(10.1005 0.0458627 0)
(10.1072 0.0436686 0)
(10.1133 0.0412527 0)
(10.1188 0.0387417 0)
(10.1239 0.0361879 0)
(10.1285 0.0335792 0)
(10.1326 0.0308928 0)
(10.1363 0.0281582 0)
(10.0009 0.00909555 0)
(10.0078 0.0239177 0)
(10.0188 0.0337724 0)
(10.0303 0.0394906 0)
(10.0409 0.0430509 0)
(10.0508 0.0450876 0)
(10.0602 0.0458744 0)
(10.0691 0.0457798 0)
(10.0774 0.0450698 0)
(10.085 0.0438495 0)
(10.0921 0.0421885 0)
(10.0987 0.0401786 0)
(10.1046 0.0379502 0)
(10.11 0.0356158 0)
(10.1149 0.0332165 0)
(10.1194 0.0307689 0)
(10.1235 0.0282692 0)
(10.1271 0.0257495 0)
(10.0007 0.00753003 0)
(10.0062 0.0201582 0)
(10.0153 0.0292794 0)
(10.0255 0.0348241 0)
(10.0353 0.0382829 0)
(10.0445 0.0403294 0)
(10.0534 0.0412189 0)
(10.0618 0.0412458 0)
(10.0697 0.0406421 0)
(10.077 0.0395492 0)
(10.0839 0.0380452 0)
(10.0901 0.0362239 0)
(10.0959 0.0341984 0)
(10.1011 0.0320549 0)
(10.1059 0.0298364 0)
(10.1103 0.0275742 0)
(10.1143 0.0252772 0)
(10.1178 0.0229721 0)
(10.0005 0.00612437 0)
(10.0048 0.0165742 0)
(10.0124 0.0247155 0)
(10.0213 0.0299137 0)
(10.0301 0.0331851 0)
(10.0387 0.0351622 0)
(10.0469 0.036101 0)
(10.0549 0.0362152 0)
(10.0623 0.0357233 0)
(10.0693 0.034755 0)
(10.0758 0.0334171 0)
(10.0819 0.0317903 0)
(10.0874 0.0299777 0)
(10.0925 0.0280349 0)
(10.0971 0.0260235 0)
(10.1014 0.0239622 0)
(10.1052 0.021881 0)
(10.1087 0.0198012 0)
(10.0004 0.00485692 0)
(10.0038 0.013222 0)
(10.01 0.0201724 0)
(10.0176 0.0248236 0)
(10.0255 0.0277956 0)
(10.0334 0.0296193 0)
(10.041 0.030525 0)
(10.0484 0.0306903 0)
(10.0554 0.0302862 0)
(10.0621 0.0294469 0)
(10.0683 0.028271 0)
(10.074 0.026846 0)
(10.0793 0.0252387 0)
(10.0842 0.0235177 0)
(10.0887 0.0217166 0)
(10.0928 0.0198784 0)
(10.0965 0.0180215 0)
(10.0999 0.0161764 0)
(10.0003 0.00370784 0)
(10.003 0.0100887 0)
(10.008 0.0156982 0)
(10.0145 0.019605 0)
(10.0216 0.0221501 0)
(10.0287 0.0237189 0)
(10.0357 0.0245055 0)
(10.0426 0.0246651 0)
(10.0491 0.0243156 0)
(10.0554 0.0235913 0)
(10.0613 0.0225687 0)
(10.0667 0.0213328 0)
(10.0718 0.0199348 0)
(10.0765 0.0184312 0)
(10.0809 0.0168548 0)
(10.0848 0.0152494 0)
(10.0885 0.0136289 0)
(10.0918 0.0120254 0)
(10.0003 0.00264402 0)
(10.0024 0.00713547 0)
(10.0065 0.0112995 0)
(10.0121 0.0142936 0)
(10.0183 0.0162646 0)
(10.0247 0.0174656 0)
(10.0311 0.0180501 0)
(10.0375 0.0181219 0)
(10.0436 0.0177923 0)
(10.0495 0.0171431 0)
(10.0551 0.0162598 0)
(10.0603 0.015193 0)
(10.0651 0.0139988 0)
(10.0697 0.0127095 0)
(10.0738 0.0113695 0)
(10.0777 0.0100013 0)
(10.0812 0.00863003 0)
(10.0844 0.00727275 0)
(10.0002 0.00163698 0)
(10.002 0.00429927 0)
(10.0055 0.00695059 0)
(10.0102 0.00887968 0)
(10.0157 0.0101236 0)
(10.0215 0.0108408 0)
(10.0275 0.0111157 0)
(10.0333 0.0110313 0)
(10.0391 0.0106532 0)
(10.0446 0.0100473 0)
(10.0499 0.00926726 0)
(10.0549 0.00835621 0)
(10.0595 0.00735055 0)
(10.0639 0.0062804 0)
(10.0679 0.00517373 0)
(10.0717 0.00405212 0)
(10.0751 0.00293062 0)
(10.0783 0.00182956 0)
(10.0002 0.000644132 0)
(10.0017 0.00149615 0)
(10.0048 0.00256923 0)
(10.009 0.00328534 0)
(10.014 0.00366755 0)
(10.0194 0.00376497 0)
(10.0249 0.00363761 0)
(10.0304 0.00330489 0)
(10.0359 0.00282303 0)
(10.0412 0.00220665 0)
(10.0462 0.0015029 0)
(10.051 0.000720733 0)
(10.0555 -0.00010481 0)
(10.0597 -0.000967435 0)
(10.0636 -0.00184034 0)
(10.0673 -0.00271855 0)
(10.0706 -0.00358657 0)
(10.0738 -0.00443246 0)
(10.0002 -0.000332564 0)
(10.0016 -0.00123524 0)
(10.0045 -0.00176934 0)
(10.0086 -0.00230453 0)
(10.0134 -0.00286703 0)
(10.0186 -0.00343852 0)
(10.0239 -0.00404033 0)
(10.0293 -0.00465447 0)
(10.0346 -0.00529491 0)
(10.0397 -0.00594096 0)
(10.0446 -0.00660649 0)
(10.0493 -0.00727056 0)
(10.0537 -0.00794433 0)
(10.0578 -0.00860772 0)
(10.0617 -0.00926959 0)
(10.0653 -0.00991187 0)
(10.0687 -0.0105459 0)
(10.0718 -0.0111457 0)
(10.0002 -0.00125817 0)
(10.0017 -0.00381433 0)
(10.0048 -0.00585956 0)
(10.009 -0.00757534 0)
(10.0139 -0.00901661 0)
(10.0191 -0.0102247 0)
(10.0245 -0.0112637 0)
(10.0299 -0.0121545 0)
(10.0352 -0.0129321 0)
(10.0404 -0.0136171 0)
(10.0453 -0.0142375 0)
(10.05 -0.0148038 0)
(10.0544 -0.0153308 0)
(10.0585 -0.015823 0)
(10.0624 -0.0162882 0)
(10.066 -0.0167277 0)
(10.0693 -0.0171475 0)
(10.0724 -0.0175371 0)
(10.0002 -0.00216039 0)
(10.002 -0.00633073 0)
(10.0054 -0.00977137 0)
(10.01 -0.012543 0)
(10.0152 -0.0147336 0)
(10.0208 -0.0164891 0)
(10.0264 -0.0178857 0)
(10.032 -0.018996 0)
(10.0375 -0.0198618 0)
(10.0428 -0.0205595 0)
(10.0478 -0.0211141 0)
(10.0525 -0.0215789 0)
(10.057 -0.0219582 0)
(10.0612 -0.0222907 0)
(10.0651 -0.0225732 0)
(10.0687 -0.0228308 0)
(10.0721 -0.0230595 0)
(10.0752 -0.0232636 0)
(10.0003 -0.00310808 0)
(10.0024 -0.00895177 0)
(10.0064 -0.0137205 0)
(10.0116 -0.0174032 0)
(10.0174 -0.0202297 0)
(10.0233 -0.0224244 0)
(10.0293 -0.0241103 0)
(10.0353 -0.025355 0)
(10.041 -0.0262682 0)
(10.0465 -0.0269207 0)
(10.0517 -0.0273976 0)
(10.0566 -0.0277261 0)
(10.0611 -0.0279657 0)
(10.0654 -0.0281227 0)
(10.0693 -0.0282428 0)
(10.073 -0.0283167 0)
(10.0764 -0.0283804 0)
(10.0796 -0.0284071 0)
(10.0003 -0.00416314 0)
(10.003 -0.0118088 0)
(10.0079 -0.0178241 0)
(10.014 -0.0222669 0)
(10.0204 -0.0256045 0)
(10.0269 -0.0281563 0)
(10.0333 -0.030037 0)
(10.0397 -0.0313539 0)
(10.0457 -0.0322421 0)
(10.0515 -0.0328205 0)
(10.0568 -0.0331726 0)
(10.0619 -0.0333577 0)
(10.0666 -0.0334258 0)
(10.0709 -0.0334171 0)
(10.0749 -0.033357 0)
(10.0787 -0.0332694 0)
(10.0821 -0.0331621 0)
(10.0853 -0.0330423 0)
(10.0005 -0.00540195 0)
(10.004 -0.0150222 0)
(10.01 -0.0221432 0)
(10.0171 -0.0271634 0)
(10.0243 -0.0309091 0)
(10.0313 -0.0337376 0)
(10.0383 -0.0357299 0)
(10.0451 -0.0370353 0)
(10.0516 -0.0378439 0)
(10.0576 -0.0383057 0)
(10.0632 -0.0385071 0)
(10.0684 -0.0385274 0)
(10.0732 -0.0384159 0)
(10.0777 -0.0382328 0)
(10.0818 -0.0379981 0)
(10.0856 -0.0377461 0)
(10.0891 -0.0374825 0)
(10.0923 -0.0372133 0)
(10.0007 -0.00693241 0)
(10.0054 -0.0187092 0)
(10.013 -0.026678 0)
(10.0213 -0.0320484 0)
(10.0291 -0.0361328 0)
(10.0368 -0.0391879 0)
(10.0445 -0.0412219 0)
(10.0518 -0.0424491 0)
(10.0586 -0.0431258 0)
(10.0649 -0.0434253 0)
(10.0708 -0.0434461 0)
(10.0763 -0.04327 0)
(10.0813 -0.0429721 0)
(10.0859 -0.0426017 0)
(10.0901 -0.0422046 0)
(10.094 -0.0417983 0)
(10.0976 -0.0414076 0)
(10.1009 -0.0410172 0)
(10.001 -0.00888456 0)
(10.0076 -0.0229807 0)
(10.0172 -0.0314485 0)
(10.0265 -0.0369292 0)
(10.0351 -0.0412497 0)
(10.0436 -0.044456 0)
(10.052 -0.0464883 0)
(10.06 -0.0476312 0)
(10.0673 -0.0481814 0)
(10.0741 -0.0483182 0)
(10.0803 -0.048145 0)
(10.0861 -0.0477588 0)
(10.0914 -0.0472404 0)
(10.0962 -0.0466555 0)
(10.1006 -0.0460525 0)
(10.1047 -0.0454644 0)
(10.1084 -0.044904 0)
(10.1119 -0.0443669 0)
(10.0015 -0.0114442 0)
(10.0108 -0.027681 0)
(10.0228 -0.0364223 0)
(10.0336 -0.0420913 0)
(10.0432 -0.0465822 0)
(10.0528 -0.0497154 0)
(10.0624 -0.0515506 0)
(10.0713 -0.0525063 0)
(10.0795 -0.0528812 0)
(10.0871 -0.0528625 0)
(10.0941 -0.0525414 0)
(10.1005 -0.0520178 0)
(10.1064 -0.0513752 0)
(10.1118 -0.0506702 0)
(10.1167 -0.0499674 0)
(10.1212 -0.0492931 0)
(10.1254 -0.0486615 0)
(10.1292 -0.0480418 0)
(10.0025 -0.0153575 0)
(10.0162 -0.0324921 0)
(10.0318 -0.0409109 0)
(10.0456 -0.0473361 0)
(10.0579 -0.0524556 0)
(10.0704 -0.0556254 0)
(10.0826 -0.0571909 0)
(10.094 -0.0577788 0)
(10.1045 -0.057758 0)
(10.1142 -0.0573119 0)
(10.1231 -0.056565 0)
(10.1313 -0.0556403 0)
(10.1388 -0.0546254 0)
(10.1456 -0.0536019 0)
(10.1518 -0.0526291 0)
(10.1574 -0.0517548 0)
(10.1625 -0.0509833 0)
(10.1671 -0.0502454 0)
(10.0064 -0.0231093 0)
(10.033 -0.0390372 0)
(10.0604 -0.0442662 0)
(10.0853 -0.0503485 0)
(10.1085 -0.0564488 0)
(10.1315 -0.0606727 0)
(10.1532 -0.0631391 0)
(10.1728 -0.0644674 0)
(10.1901 -0.0650386 0)
(10.2051 -0.0649752 0)
(10.2181 -0.0644301 0)
(10.229 -0.0635371 0)
(10.2379 -0.0624168 0)
(10.2449 -0.0611882 0)
(10.2503 -0.0599347 0)
(10.2542 -0.0587691 0)
(10.257 -0.0577512 0)
(10.2586 -0.0570044 0)
(10.0429 -0.0364169 0)
(10.1435 -0.0633127 0)
(10.219 -0.0680413 0)
(10.2712 -0.0701266 0)
(10.3085 -0.0721697 0)
(10.3325 -0.0728588 0)
(10.3432 -0.0722543 0)
(10.3422 -0.0708922 0)
(10.3317 -0.0690938 0)
(10.3139 -0.0669913 0)
(10.2905 -0.0646847 0)
(10.2631 -0.0622669 0)
(10.2326 -0.0598156 0)
(10.2001 -0.0574014 0)
(10.1662 -0.0550788 0)
(10.1315 -0.0529839 0)
(10.0963 -0.0511054 0)
(10.062 -0.0498825 0)
(9.8883 -0.0292866 0)
(9.66837 -0.0631405 0)
(9.43383 -0.0771408 0)
(9.18497 -0.0832913 0)
(8.94315 -0.0841638 0)
(8.7171 -0.0813338 0)
(8.50952 -0.0762069 0)
(8.32046 -0.0701278 0)
(8.15 -0.0636674 0)
(7.99731 -0.0571781 0)
(7.86135 -0.0509501 0)
(7.74039 -0.045118 0)
(7.63317 -0.0397446 0)
(7.53803 -0.03484 0)
(7.45384 -0.0304066 0)
(7.37905 -0.0264709 0)
(7.31228 -0.02311 0)
(7.25246 -0.0207756 0)
(-0.00271174 0.00747631 0)
(-0.0126686 0.0124363 0)
(-0.0262352 0.0135167 0)
(-0.0405271 0.0115206 0)
(-0.0509163 0.00580259 0)
(-0.0500025 -0.00362736 0)
(-0.0344213 -0.0163903 -8.21426e-19)
(-0.00746295 -0.0297445 9.34609e-19)
(0.0277192 -0.039807 0)
(0.068218 -0.0447842 5.37823e-19)
(0.111113 -0.0452789 0)
(0.152994 -0.0424531 0)
(0.191128 -0.0373574 0)
(0.223857 -0.0308052 -2.63082e-19)
(0.250308 -0.0233648 0)
(0.270061 -0.0154032 0)
(0.282782 -0.00712234 2.27051e-19)
(0.288664 0.00153479 0)
(0.286652 0.0104705 0)
(0.276901 0.0192182 0)
(0.260034 0.0270374 -2.42748e-19)
(0.23669 0.0331529 0)
(0.207775 0.0368545 -2.86399e-19)
(0.174657 0.0375433 0)
(0.139142 0.0348072 0)
(0.10344 0.0286459 -4.61959e-19)
(0.0699785 0.0197202 0)
(0.041109 0.00963758 7.60991e-19)
(0.0185625 0.000862383 0)
(0.00286935 -0.00456531 -1.31809e-18)
(-0.00697917 -0.00703601 0)
(-0.0121445 -0.00858208 0)
(-0.0117229 -0.010469 0)
(-0.00516978 -0.0136774 0)
(0.00827577 -0.0186594 0)
(0.02925 -0.0244724 8.75814e-19)
(0.056581 -0.0290381 0)
(0.0864857 -0.0299055 -1.02608e-18)
(0.11404 -0.0263383 0)
(0.134874 -0.0194057 8.00948e-19)
(0.146722 -0.0114271 0)
(0.150349 -0.00466063 0)
(0.148083 -0.000666748 -7.81913e-19)
(0.14383 -0.000250153 0)
(0.141065 -0.0043548 -8.11003e-19)
(0.139384 -0.0128152 8.16142e-19)
(0.133053 -0.0221213 0)
(0.114297 -0.022593 8.66576e-19)
(0.0777133 -0.00643298 9.88486e-19)
(0.0127237 0.0136683 0)
(-0.0838548 0.030832 0)
(-0.187422 0.0523209 0)
(-0.301645 0.0763541 0)
(-0.424705 0.0986717 0)
(-0.554216 0.112655 -1.87756e-19)
(-0.687338 0.117004 0)
(-0.818834 0.115909 1.48922e-19)
(-0.946278 0.111377 0)
(-1.06802 0.103652 0)
(-1.18217 0.0943499 -1.18603e-19)
(-1.28844 0.0861436 0)
(-1.38623 0.0786799 1.05702e-19)
(-1.47632 0.0709764 0)
(-1.55893 0.064679 0)
(-1.63494 0.0593227 0)
(-1.70514 0.0541219 -9.07653e-20)
(-1.76998 0.0496298 0)
(-1.83018 0.0456118 0)
(-1.88628 0.0421459 -8.42487e-20)
(-1.9388 0.0391123 0)
(-1.98815 0.036444 -8.09599e-20)
(-2.03471 0.0340877 0)
(-2.07876 0.0319852 0)
(-2.12056 0.0300926 0)
(-2.1603 0.0283734 7.5752e-20)
(-2.19813 0.0267948 0)
(-2.2342 0.0253347 0)
(-2.26861 0.0239703 7.2543e-20)
(-2.30145 0.0226882 7.15565e-20)
(-2.33278 0.0214732 0)
(-2.36267 0.0203168 6.96741e-20)
(-2.39116 0.0192085 0)
(-2.41829 0.0181433 1.35769e-19)
(-2.4441 0.017113 0)
(-2.4686 0.0161144 1.32323e-19)
(-2.49184 0.0151406 0)
(-2.51381 0.0141891 -1.28969e-19)
(-2.53453 0.0132524 0)
(-2.554 0.0123273 0)
(-2.57221 0.01141 0)
(-2.58917 0.0104908 1.22404e-19)
(-2.60488 0.00956498 0)
(-2.61932 0.00862453 -1.1915e-19)
(-2.63247 0.00766124 0)
(-2.6443 0.00666867 1.15891e-19)
(-2.65477 0.00563919 1.14256e-19)
(-2.66382 0.00457413 1.12615e-19)
(-2.6714 0.00347981 0)
(-2.67745 0.00239225 0)
(-2.68188 0.00137678 0)
(-2.68465 0.000510005 0)
(-2.68599 -0.000215499 0)
(-2.68615 -0.000875928 0)
(-2.68509 -0.0015201 0)
(-2.68285 -0.00215327 0)
(-2.67942 -0.00278082 -9.69162e-20)
(-2.6748 -0.00340192 -9.49851e-20)
(-2.66898 -0.00401728 0)
(-2.66195 -0.00462621 0)
(-2.65372 -0.00522841 0)
(-2.64428 -0.00582377 -8.67949e-20)
(-2.63362 -0.00641157 0)
(-2.62176 -0.00699215 0)
(-2.60869 -0.00756466 0)
(-2.59441 -0.00812964 0)
(-2.57892 -0.00868634 7.53899e-20)
(-2.56223 -0.00923526 0)
(-2.54434 -0.00977595 0)
(-2.52526 -0.0103087 -6.7847e-20)
(-2.50499 -0.0108334 6.52052e-20)
(-2.48354 -0.01135 0)
(-2.46092 -0.0118589 5.97172e-20)
(-2.43714 -0.0123596 0)
(-2.4122 -0.0128527 -5.39403e-20)
(-2.38613 -0.0133374 0)
(-2.35893 -0.0138142 0)
(-2.33061 -0.0142817 0)
(-2.3012 -0.0147394 0)
(-2.27071 -0.0151818 0)
(-2.23917 -0.015621 6.92571e-20)
(-2.20659 -0.0160401 6.2167e-20)
(-2.173 -0.0164447 0)
(-2.13841 -0.0168273 0)
(-2.10286 -0.0171558 0)
(-2.06639 -0.0174086 -3.16608e-20)
(-2.02906 -0.0175103 0)
(-1.99097 -0.017414 0)
(-1.95214 -0.0172582 0)
(-1.9125 -0.017393 2.70575e-21)
(-1.87201 -0.0177049 -1.19969e-20)
(-1.83073 -0.0179551 0)
(-1.78875 -0.018192 0)
(-1.74611 -0.0184192 -4.1804e-20)
(-1.70286 -0.0186286 -5.2428e-20)
(-1.65902 -0.0188271 0)
(-1.61464 -0.0190041 0)
(-1.56974 -0.0191689 8.65731e-20)
(-1.52438 -0.0193139 -9.87771e-20)
(-1.47855 -0.0194447 0)
(-1.43228 -0.0195584 0)
(-1.38558 -0.0196564 -1.38196e-19)
(-1.33849 -0.0197401 0)
(-1.29104 -0.0198115 0)
(-1.24325 -0.0198731 -1.82422e-19)
(-1.19517 -0.0199266 0)
(-1.14681 -0.019976 -2.15045e-19)
(-1.09818 -0.0200239 0)
(-1.04931 -0.0200759 0)
(-1.00018 -0.0201338 0)
(-0.950816 -0.0202035 2.89607e-19)
(-0.901191 -0.0202855 0)
(-0.851297 -0.0203853 0)
(-0.801118 -0.0205009 0)
(-0.750639 -0.0206371 0)
(-0.699847 -0.0207912 0)
(-0.648726 -0.0209693 0)
(-0.597262 -0.0211702 4.64299e-19)
(-0.545434 -0.0214013 4.96068e-19)
(-0.493221 -0.0216612 0)
(-0.440599 -0.0219553 0)
(-0.387545 -0.0222784 0)
(-0.334051 -0.0226273 -6.50154e-19)
(-0.280131 -0.0229895 0)
(-0.225842 -0.0233624 1.49905e-18)
(-0.171314 -0.023714 -1.61394e-18)
(-0.116819 -0.0239373 -1.74143e-18)
(-0.0627822 -0.0238872 1.88339e-18)
(-0.0117475 -0.0230027 -2.01122e-18)
(0.0447854 -0.0211476 2.03015e-18)
(0.0615828 -0.0106809 0)
(-0.000274557 0.0201794 0)
(-0.00580867 0.0353425 0)
(-0.0123234 0.0364624 2.17609e-18)
(-0.0127814 0.0270629 0)
(0.000952074 0.00540415 -2.27952e-18)
(0.0300649 -0.0310566 -1.45955e-18)
(0.0686645 -0.0719911 -4.60316e-19)
(0.112826 -0.105656 -3.28527e-19)
(0.158597 -0.126456 0)
(0.202558 -0.133981 -2.14692e-19)
(0.242521 -0.130792 0)
(0.277534 -0.120228 0)
(0.307265 -0.105148 3.19616e-19)
(0.331724 -0.0876252 1.52198e-19)
(0.351128 -0.0690058 -2.96584e-19)
(0.365786 -0.0500695 -2.93015e-19)
(0.376072 -0.031204 -1.46471e-19)
(0.382177 -0.0125535 0)
(0.385043 0.00589469 0)
(0.384624 0.0239846 0)
(0.380547 0.0413751 -1.54701e-19)
(0.372327 0.0575368 0)
(0.359408 0.0717394 4.94416e-19)
(0.341316 0.0830265 0)
(0.317832 0.0903014 0)
(0.28917 0.0925065 1.995e-19)
(0.256177 0.0889156 0)
(0.220428 0.0795639 -2.51494e-19)
(0.184164 0.0654356 -5.87079e-19)
(0.150201 0.048271 3.49976e-19)
(0.121546 0.029696 0)
(0.101366 0.0106221 0)
(0.0911149 -0.00906079 0)
(0.0924489 -0.0285913 -1.04522e-18)
(0.103959 -0.0480396 -8.89301e-19)
(0.122594 -0.0655062 -3.694e-19)
(0.142841 -0.0745122 0)
(0.158603 -0.07085 5.30617e-19)
(0.166862 -0.0566902 0)
(0.167035 -0.037034 -5.02747e-19)
(0.159683 -0.018129 0)
(0.145755 -0.00502306 0)
(0.125805 0.002282 6.3342e-19)
(0.0949077 0.00760018 0)
(0.0443899 0.0175364 2.63965e-18)
(-0.0395804 0.0435469 -7.38436e-19)
(-0.155125 0.0851274 0)
(-0.284389 0.129873 -2.97096e-19)
(-0.419653 0.17382 -2.16064e-19)
(-0.560499 0.211617 0)
(-0.703933 0.240321 0)
(-0.845436 0.260206 0)
(-0.983605 0.271392 0)
(-1.11467 0.27475 0)
(-1.2368 0.271081 8.607e-20)
(-1.34846 0.261451 1.61845e-19)
(-1.44845 0.247592 -7.63039e-20)
(-1.53704 0.231213 0)
(-1.61521 0.213603 1.41188e-19)
(-1.68435 0.195664 -6.86395e-20)
(-1.74565 0.178344 0)
(-1.8008 0.162182 -6.42601e-20)
(-1.85084 0.147398 0)
(-1.89668 0.134191 0)
(-1.9391 0.122583 -1.20673e-19)
(-1.9786 0.112386 5.9179e-20)
(-2.01575 0.103505 -1.16464e-19)
(-2.05086 0.0957534 1.14591e-19)
(-2.0842 0.0889742 5.64206e-20)
(-2.11596 0.083005 0)
(-2.14628 0.0777179 5.48317e-20)
(-2.17528 0.0729851 0)
(-2.20305 0.0687158 0)
(-2.22963 0.0648195 0)
(-2.25508 0.0612362 5.19214e-20)
(-2.27944 0.057905 0)
(-2.30273 0.0547879 1.0132e-19)
(-2.32498 0.0518454 -1.50128e-19)
(-2.3462 0.0490541 -4.94501e-20)
(-2.36641 0.0463881 0)
(-2.38563 0.0438329 -4.82303e-20)
(-2.40385 0.041371 0)
(-2.42108 0.038993 -9.40646e-20)
(-2.43734 0.0366861 0)
(-2.45262 0.0344444 -9.16937e-20)
(-2.46692 0.0322574 1.80899e-19)
(-2.48025 0.0301209 8.93313e-20)
(-2.4926 0.0280251 0)
(-2.50396 0.0259664 0)
(-2.51432 0.0239385 0)
(-2.52369 0.021934 -8.45756e-20)
(-2.53208 0.0199481 0)
(-2.53947 0.0179743 8.21636e-20)
(-2.54587 0.0160074 0)
(-2.55128 0.0140416 -2.39154e-19)
(-2.55572 0.0120694 -7.84809e-20)
(-2.55921 0.0100872 -7.72333e-20)
(-2.56178 0.00808922 0)
(-2.56351 0.0060901 0)
(-2.56447 0.00413302 0)
(-2.56475 0.00229078 0)
(-2.56416 0.000576369 0)
(-2.56247 -0.00106354 -1.38799e-19)
(-2.55965 -0.00267114 -1.36003e-19)
(-2.55567 -0.00425342 0)
(-2.55054 -0.0058169 6.50444e-20)
(-2.54423 -0.00736059 6.35631e-20)
(-2.53675 -0.00888494 0)
(-2.52809 -0.0103884 1.21279e-19)
(-2.51824 -0.0118699 0)
(-2.50721 -0.0133285 -5.76422e-20)
(-2.49498 -0.0147627 0)
(-2.48157 -0.0161719 0)
(-2.46698 -0.0175544 1.05176e-19)
(-2.45119 -0.01891 0)
(-2.43422 -0.0202369 -4.89791e-20)
(-2.41607 -0.0215349 0)
(-2.39674 -0.0228026 0)
(-2.37624 -0.0240397 -4.39959e-20)
(-2.35457 -0.0252451 -4.17184e-20)
(-2.33175 -0.0264181 0)
(-2.30777 -0.0275582 3.83611e-20)
(-2.28265 -0.028664 0)
(-2.2564 -0.0297351 -3.44368e-20)
(-2.22904 -0.0307698 -6.43279e-20)
(-2.20056 -0.031768 0)
(-2.17099 -0.0327286 0)
(-2.14035 -0.0336526 0)
(-2.10864 -0.0345395 0)
(-2.0759 -0.0353899 -4.23703e-20)
(-2.04215 -0.0362005 -1.14765e-19)
(-2.0074 -0.0369679 0)
(-1.97168 -0.0376888 0)
(-1.93502 -0.0383628 0)
(-1.89744 -0.0390007 1.88823e-20)
(-1.85896 -0.0396206 0)
(-1.8196 -0.0402298 0)
(-1.77935 -0.0408143 -8.84656e-21)
(-1.73827 -0.0413465 9.12251e-23)
(-1.69643 -0.0417957 6.86103e-21)
(-1.65385 -0.0421767 0)
(-1.61057 -0.0425065 0)
(-1.56663 -0.0428018 2.34501e-20)
(-1.52208 -0.0430563 -2.76294e-20)
(-1.47695 -0.0432787 0)
(-1.43128 -0.043461 0)
(-1.3851 -0.0436113 -4.69068e-20)
(-1.33844 -0.0437242 1.5743e-19)
(-1.29131 -0.0438034 0)
(-1.24374 -0.0438474 0)
(-1.19575 -0.0438568 7.19134e-20)
(-1.14736 -0.0438345 0)
(-1.0986 -0.0437832 1.6839e-19)
(-1.0495 -0.0437049 -9.00737e-20)
(-1.00008 -0.0436048 0)
(-0.950364 -0.0434865 1.05425e-19)
(-0.900367 -0.0433577 2.23224e-19)
(-0.850098 -0.0432232 0)
(-0.799562 -0.0430912 0)
(-0.748756 -0.0429656 -1.34124e-19)
(-0.697669 -0.0428539 0)
(-0.646289 -0.0427572 2.96647e-19)
(-0.594595 -0.0426792 0)
(-0.542572 -0.0426175 0)
(-0.490201 -0.0425737 0)
(-0.437466 -0.0425466 0)
(-0.384347 -0.04254 -1.89097e-19)
(-0.330824 -0.0425551 -1.97555e-19)
(-0.276873 -0.042595 0)
(-0.222468 -0.0426587 0)
(-0.167587 -0.0427437 0)
(-0.112218 -0.0428364 2.33302e-19)
(-0.0563692 -0.0429104 0)
(-0.000109034 -0.0429123 -5.00859e-19)
(0.0564578 -0.042764 5.07072e-19)
(0.113121 -0.0423395 5.08456e-19)
(0.169787 -0.0414702 5.06814e-19)
(0.224505 -0.0397505 5.12556e-19)
(0.282363 -0.0362412 5.14382e-19)
(0.318986 -0.0250298 0)
(0.000302564 0.0229291 0)
(0.000727726 0.03958 0)
(0.00642383 0.0322612 -2.33129e-18)
(0.0262141 -0.000780349 -1.64479e-18)
(0.0652004 -0.0596597 9.81947e-19)
(0.115946 -0.124833 6.37879e-19)
(0.168236 -0.176773 -3.56814e-22)
(0.21518 -0.206787 0)
(0.254083 -0.215562 0)
(0.284913 -0.208177 0)
(0.308855 -0.19036 0)
(0.327341 -0.166791 0)
(0.341577 -0.140657 -7.26617e-19)
(0.352416 -0.113854 0)
(0.360422 -0.0874026 2.31724e-19)
(0.365974 -0.0617879 2.31086e-19)
(0.369336 -0.0371997 0)
(0.370708 -0.0137114 0)
(0.37033 0.00870506 0)
(0.36853 0.030213 0)
(0.365566 0.050954 2.46032e-19)
(0.361618 0.0708723 0)
(0.356612 0.0896124 -2.63434e-19)
(0.350171 0.106453 0)
(0.341625 0.12031 0)
(0.330137 0.129807 0)
(0.314929 0.133495 -6.57522e-19)
(0.295664 0.130192 0)
(0.272842 0.119393 3.89309e-19)
(0.247995 0.101441 -8.66962e-19)
(0.223578 0.0774498 0)
(0.202456 0.0488042 0)
(0.187158 0.0171208 0)
(0.178062 -0.0166634 6.43453e-19)
(0.174427 -0.0497802 5.7129e-19)
(0.170385 -0.0730499 0)
(0.158893 -0.0767081 0)
(0.13895 -0.0619498 -7.72876e-19)
(0.111662 -0.0365229 -7.87723e-19)
(0.0773467 -0.0053781 8.57877e-19)
(0.0346921 0.0275202 0)
(-0.0243776 0.0580743 0)
(-0.109737 0.0933059 0)
(-0.216356 0.140035 0)
(-0.340151 0.193702 -4.33292e-19)
(-0.475996 0.24923 -3.3949e-19)
(-0.616572 0.303012 2.75843e-19)
(-0.755331 0.349461 0)
(-0.887654 0.386525 0)
(-1.00995 0.413461 0)
(-1.12012 0.428966 0)
(-1.21785 0.433489 -1.48972e-19)
(-1.30282 0.428201 0)
(-1.37558 0.414607 0)
(-1.43761 0.394364 -1.23521e-19)
(-1.49094 0.36941 -1.16639e-19)
(-1.53779 0.34185 0)
(-1.58003 0.313541 2.1781e-19)
(-1.619 0.285877 -1.04578e-19)
(-1.65584 0.259829 1.01602e-19)
(-1.69117 0.236016 0)
(-1.72541 0.214719 0)
(-1.75877 0.195858 0)
(-1.79135 0.179358 0)
(-1.82316 0.165007 9.02987e-20)
(-1.85417 0.152478 1.77293e-19)
(-1.8844 0.141534 8.69427e-20)
(-1.91382 0.131919 -8.54228e-20)
(-1.94242 0.123421 0)
(-1.97018 0.115842 1.65173e-19)
(-1.99708 0.109024 1.62535e-19)
(-2.02312 0.102826 1.60006e-19)
(-2.04828 0.0971402 -1.57574e-19)
(-2.07257 0.0918723 0)
(-2.09597 0.0869509 -2.29485e-19)
(-2.11849 0.0823155 0)
(-2.14013 0.0779208 7.42065e-20)
(-2.16088 0.0737285 7.32877e-20)
(-2.18074 0.06971 0)
(-2.19971 0.0658409 0)
(-2.21779 0.0621028 1.40273e-19)
(-2.23498 0.0584791 0)
(-2.25127 0.0549575 1.36293e-19)
(-2.26667 0.051526 0)
(-2.28118 0.0481756 -1.3238e-19)
(-2.29478 0.0448968 -2.60982e-19)
(-2.30748 0.0416824 0)
(-2.31928 0.0385241 0)
(-2.33016 0.0354158 0)
(-2.34012 0.0323506 -1.22735e-19)
(-2.34916 0.0293219 0)
(-2.35728 0.0263254 -1.18885e-19)
(-2.36448 0.0233575 0)
(-2.37076 0.0204178 0)
(-2.37611 0.0175064 2.2618e-19)
(-2.38055 0.0146285 0)
(-2.38405 0.011791 1.09188e-19)
(-2.38664 0.00900567 0)
(-2.3883 0.00628275 1.05256e-19)
(-2.38901 0.0036228 0)
(-2.38871 0.00100022 0)
(-2.38736 -0.00161199 0)
(-2.38493 -0.00421148 2.90529e-19)
(-2.3814 -0.00678597 9.46057e-20)
(-2.37675 -0.00933263 0)
(-2.37098 -0.0118502 0)
(-2.36408 -0.014337 0)
(-2.35603 -0.0167912 0)
(-2.34684 -0.0192108 -8.33476e-20)
(-2.3365 -0.0215939 1.62414e-19)
(-2.32501 -0.0239386 7.86401e-20)
(-2.31237 -0.0262431 -1.5293e-19)
(-2.29857 -0.0285057 -1.48096e-19)
(-2.28362 -0.0307247 -7.13506e-20)
(-2.26751 -0.0328987 0)
(-2.25025 -0.0350261 -1.33223e-19)
(-2.23184 -0.0371056 0)
(-2.21229 -0.0391356 1.23e-19)
(-2.1916 -0.0411151 5.85878e-20)
(-2.16976 -0.0430428 0)
(-2.1468 -0.0449177 -1.07201e-19)
(-2.12272 -0.0467383 -5.05613e-20)
(-2.09752 -0.0485035 0)
(-2.07121 -0.0502117 -4.57896e-20)
(-2.04381 -0.0518613 1.27521e-19)
(-2.01533 -0.0534509 0)
(-1.98578 -0.054979 0)
(-1.95517 -0.0564454 0)
(-1.92353 -0.0578492 0)
(-1.89087 -0.0591901 5.63871e-20)
(-1.85721 -0.0604632 4.95172e-20)
(-1.82258 -0.0616641 0)
(-1.787 -0.0627878 0)
(-1.75048 -0.0638303 0)
(-1.71306 -0.0647942 0)
(-1.67476 -0.0656904 0)
(-1.6356 -0.0665196 0)
(-1.59561 -0.0672885 5.54731e-21)
(-1.55483 -0.0680004 -1.04281e-21)
(-1.5133 -0.0686323 0)
(-1.47105 -0.0691772 0)
(-1.42813 -0.0696468 -1.99735e-20)
(-1.38455 -0.0700508 0)
(-1.34038 -0.0703896 3.47153e-20)
(-1.29563 -0.0706673 4.05132e-20)
(-1.25035 -0.0708839 0)
(-1.20457 -0.0710416 0)
(-1.15831 -0.0711408 -6.26361e-20)
(-1.1116 -0.0711828 -1.37195e-19)
(-1.06444 -0.0711686 0)
(-1.01687 -0.0711016 0)
(-0.968908 -0.070985 0)
(-0.920576 -0.0708229 -9.84725e-20)
(-0.871899 -0.0706175 1.05736e-19)
(-0.822896 -0.0703759 0)
(-0.773588 -0.0701035 2.38419e-19)
(-0.723988 -0.0698116 1.25418e-19)
(-0.674103 -0.0695076 -2.67799e-19)
(-0.623938 -0.0692037 0)
(-0.573487 -0.0689058 0)
(-0.522742 -0.0686247 -3.12101e-19)
(-0.471687 -0.0683629 -1.64579e-19)
(-0.420303 -0.0681251 0)
(-0.368571 -0.0679077 0)
(-0.316472 -0.0677123 0)
(-0.263988 -0.0675363 0)
(-0.211099 -0.0673841 -4.01453e-19)
(-0.157782 -0.0672568 0)
(-0.104013 -0.0671576 0)
(-0.0497677 -0.0670834 0)
(0.0049709 -0.067025 0)
(0.0602153 -0.0669615 0)
(0.115973 -0.0668575 0)
(0.172216 -0.0666504 -4.80941e-19)
(0.228879 -0.0662446 0)
(0.285769 -0.0654819 0)
(0.342876 -0.0641292 -1.00022e-18)
(0.398737 -0.0617154 5.05611e-19)
(0.457293 -0.0573356 -5.16339e-19)
(0.503537 -0.0461469 5.26788e-19)
(-0.00112145 0.0229882 0)
(0.0019837 0.0264347 5.05508e-18)
(0.0233718 -0.0148319 0)
(0.0705364 -0.0967865 8.75466e-19)
(0.130703 -0.183746 0)
(0.187838 -0.247346 0)
(0.232706 -0.278646 -3.28717e-19)
(0.263909 -0.282308 0)
(0.284153 -0.267603 0)
(0.297012 -0.242811 0)
(0.305364 -0.213419 0)
(0.311036 -0.182485 0)
(0.315014 -0.151551 8.20752e-19)
(0.317758 -0.121328 4.03589e-19)
(0.319437 -0.0921292 -4.00957e-19)
(0.320094 -0.0640953 0)
(0.319744 -0.0372871 0)
(0.318404 -0.0117424 0)
(0.316122 0.0125306 0)
(0.312995 0.0355645 0)
(0.309163 0.0574017 4.33558e-19)
(0.30484 0.0780575 4.44958e-19)
(0.300239 0.0974496 -4.61073e-19)
(0.295474 0.115286 4.83113e-19)
(0.290457 0.130962 0)
(0.284859 0.143489 0)
(0.278097 0.151476 5.84267e-19)
(0.269438 0.15327 0)
(0.258295 0.14734 0)
(0.244485 0.132597 7.50447e-19)
(0.228631 0.108824 8.35748e-19)
(0.211812 0.076978 9.44025e-19)
(0.195434 0.039143 0)
(0.179163 -0.00079101 0)
(0.156786 -0.0320237 -9.76626e-19)
(0.122965 -0.0411117 0)
(0.0782447 -0.0272288 0)
(0.0241698 0.00383043 7.85262e-19)
(-0.0415537 0.0460601 -7.31454e-19)
(-0.123338 0.0973765 5.86345e-19)
(-0.220127 0.156267 0)
(-0.331287 0.218506 0)
(-0.454112 0.28182 6.23035e-19)
(-0.582612 0.344793 0)
(-0.711142 0.404458 4.40808e-19)
(-0.834538 0.455494 5.7721e-19)
(-0.947721 0.494927 -5.13034e-19)
(-1.04779 0.522643 3.08796e-19)
(-1.13404 0.53842 0)
(-1.20617 0.542894 0)
(-1.26533 0.537166 2.43672e-19)
(-1.31349 0.522704 1.13534e-19)
(-1.35272 0.501351 0)
(-1.38542 0.474975 0)
(-1.41381 0.445327 9.72546e-20)
(-1.43981 0.414063 1.87862e-19)
(-1.46492 0.382709 0)
(-1.4901 0.352392 -1.73053e-19)
(-1.51583 0.323845 1.68514e-19)
(-1.54232 0.297532 -1.63437e-19)
(-1.56951 0.273657 0)
(-1.59724 0.252263 0)
(-1.62533 0.233181 0)
(-1.65354 0.216253 0)
(-1.68169 0.201264 0)
(-1.70959 0.187955 -1.41015e-19)
(-1.73714 0.1761 0)
(-1.76421 0.165479 0)
(-1.79072 0.155902 0)