/*--------------------------------*- C++ -*----------------------------------*\
| =========                 |                                                 |
| \\      /  F ield         | OpenFOAM: The Open Source CFD Toolbox           |
|  \\    /   O peration     | Version:  v2012                                 |
|   \\  /    A nd           | Website:  www.openfoam.com                      |
|    \\/     M anipulation  |                                                 |
\*---------------------------------------------------------------------------*/
FoamFile
{
    version     2.0;
    format      ascii;
    class       volScalarField;
    location    "1900";
    object      nut;
}
// * * * * * * * * * * * * * * * * * * * * * * * * * * * * * * * * * * * * * //

dimensions      [0 2 -1 0 0 0 0];


internalField   nonuniform List<scalar> 
12225
(
5.322e-06
8.144e-06
1.00339e-05
1.11555e-05
1.16641e-05
1.18324e-05
1.18672e-05
1.17393e-05
1.15646e-05
1.13828e-05
1.12062e-05
1.1037e-05
1.08933e-05
1.07472e-05
1.065e-05
1.05167e-05
1.04779e-05
1.03522e-05
0.000133616
5.7533e-05
4.22113e-05
3.63522e-05
3.35263e-05
3.25016e-05
3.21548e-05
3.26178e-05
3.32122e-05
3.30056e-05
3.26126e-05
3.28037e-05
3.2708e-05
3.31242e-05
3.31934e-05
3.3775e-05
3.39893e-05
3.47609e-05
0.000646285
0.000308297
0.000210514
0.000160488
0.000133252
0.000113875
0.000102275
9.25199e-05
8.61101e-05
7.90407e-05
7.4327e-05
6.92804e-05
6.60919e-05
6.25573e-05
6.0494e-05
5.79883e-05
5.66951e-05
5.49409e-05
0.000865277
0.000671226
0.000541784
0.000441205
0.00038033
0.000327675
0.000295714
0.000264578
0.00024538
0.000223461
0.000209863
0.000193866
0.000184373
0.000172503
0.000165914
0.000156976
0.000152566
0.000145409
0.000867465
0.000817298
0.000768441
0.000696462
0.000643246
0.000584809
0.000545419
0.000502507
0.000474586
0.000442475
0.000421741
0.000396714
0.000381224
0.000361547
0.000350277
0.000334659
0.000326851
0.000313832
0.000855279
0.000847299
0.000833285
0.000812694
0.000788908
0.00075499
0.000729075
0.000696439
0.000672671
0.0006439
0.000623528
0.000598776
0.000582061
0.000561145
0.000548194
0.000530582
0.000521227
0.000506057
0.000852337
0.000850789
0.000848214
0.000843047
0.000835229
0.000825276
0.000814812
0.000799322
0.00078676
0.000769976
0.000756822
0.000740161
0.000727813
0.000712335
0.000701822
0.000687941
0.000679706
0.00066728
0.000851791
0.000850683
0.000850064
0.000848128
0.000846107
0.000842199
0.000837832
0.000832237
0.000826286
0.000818213
0.00081106
0.000801683
0.00079414
0.000784602
0.000777562
0.000768496
0.000762578
0.000753963
0.000851671
0.000850599
0.000850098
0.000848993
0.000848255
0.000846649
0.000845198
0.000842627
0.000840392
0.000837051
0.000833452
0.000829251
0.000825091
0.00082002
0.000815813
0.000810719
0.000806813
0.000801798
0.000851614
0.000850625
0.000849983
0.000849087
0.000848495
0.000847573
0.000846892
0.00084578
0.000844798
0.000843403
0.000842022
0.000840136
0.000838412
0.000836122
0.000834172
0.000831729
0.000829869
0.000827245
0.000851574
0.00085066
0.000849918
0.000849095
0.000848435
0.000847681
0.000847072
0.00084635
0.000845734
0.000844967
0.000844292
0.000843406
0.000842632
0.000841619
0.000840765
0.000839662
0.000838806
0.000837659
0.000851552
0.000850674
0.000849885
0.000849094
0.000848386
0.000847671
0.000847033
0.000846383
0.000845801
0.000845193
0.000844646
0.000844056
0.000843522
0.000842935
0.000842408
0.000841825
0.000841311
0.00084074
0.000851543
0.000850677
0.000849868
0.000849088
0.000848359
0.000847653
0.000846994
0.000846356
0.000845759
0.000845177
0.000844633
0.0008441
0.000843598
0.000843105
0.00084264
0.000842182
0.000841749
0.000841323
0.000851539
0.000850676
0.000849859
0.00084908
0.000848342
0.000847637
0.000846968
0.000846329
0.000845722
0.000845142
0.000844589
0.00084406
0.000843556
0.000843073
0.000842612
0.000842169
0.000841746
0.000841339
0.000851538
0.000850674
0.000849854
0.000849073
0.000848331
0.000847623
0.00084695
0.000846308
0.000845697
0.000845113
0.000844556
0.000844023
0.000843515
0.000843029
0.000842564
0.000842119
0.000841693
0.000841286
0.000851537
0.000850673
0.000849851
0.000849068
0.000848324
0.000847614
0.000846939
0.000846294
0.00084568
0.000845093
0.000844533
0.000843998
0.000843486
0.000842997
0.000842529
0.000842081
0.000841652
0.000841242
0.000851538
0.000850676
0.000849855
0.000849073
0.000848328
0.000847618
0.000846942
0.000846296
0.000845681
0.000845092
0.000844531
0.000843994
0.00084348
0.000842989
0.000842519
0.00084207
0.000841639
0.000841227
0.000851538
0.000850676
0.000849854
0.000849071
0.000848326
0.000847616
0.000846938
0.000846292
0.000845674
0.000845085
0.000844522
0.000843984
0.000843469
0.000842976
0.000842505
0.000842054
0.000841623
0.00084121
0.000851537
0.000850672
0.000849849
0.000849065
0.000848318
0.000847606
0.000846927
0.00084628
0.000845661
0.000845071
0.000844507
0.000843967
0.000843451
0.000842958
0.000842486
0.000842034
0.000841602
0.000841188
0.000851537
0.000850673
0.00084985
0.000849067
0.00084832
0.000847609
0.00084693
0.000846283
0.000845664
0.000845074
0.000844509
0.00084397
0.000843454
0.00084296
0.000842488
0.000842036
0.000841603
0.000841188
0.000851537
0.000850675
0.000849852
0.000849071
0.000848324
0.000847616
0.000846937
0.000846292
0.000845672
0.000845082
0.000844514
0.000843974
0.000843452
0.000842955
0.000842474
0.000842016
0.000841572
0.000841148
0.000851534
0.00085068
0.000849854
0.000849078
0.000848327
0.000847625
0.000846942
0.000846296
0.000845655
0.000845046
0.000844436
0.000843859
0.000843275
0.000842726
0.000842164
0.000841636
0.000841088
0.000840578
0.000851514
0.000850697
0.000849848
0.000849061
0.000848282
0.000847568
0.000846814
0.000846056
0.000845203
0.000844335
0.000843388
0.000842456
0.000841442
0.000840484
0.000839409
0.000838409
0.000837269
0.000836258
0.00085142
0.00085079
0.000849697
0.000848615
0.000847494
0.00084626
0.000844789
0.000843065
0.000840752
0.000838244
0.000835469
0.000832633
0.000829696
0.000826706
0.000823626
0.000820418
0.000817364
0.000814562
0.000851042
0.000851253
0.00084811
0.000843549
0.00083919
0.000832879
0.000828271
0.00082247
0.000814056
0.00080576
0.000796622
0.000788349
0.000779537
0.000771824
0.000763485
0.000756353
0.000748394
0.000741844
0.000849675
0.000844248
0.000822804
0.000805484
0.000783409
0.000775546
0.000756476
0.000736476
0.000714175
0.000694484
0.000674479
0.000657757
0.000640815
0.000626969
0.000612533
0.000600962
0.000588375
0.000578585
0.000816315
0.00079069
0.00072353
0.000668306
0.000626619
0.000588696
0.000549619
0.000516599
0.000485026
0.000460055
0.00043637
0.000418158
0.000400321
0.000386835
0.000372964
0.000362679
0.00035148
0.000343392
0.000613534
0.000542243
0.000422414
0.000353979
0.000304732
0.000269804
0.000241937
0.000221542
0.000204216
0.000191466
0.000180041
0.000171767
0.000163894
0.000158352
0.000152688
0.000148843
0.000144584
0.000141762
0.000204719
0.000137422
0.000104246
8.58976e-05
7.46252e-05
6.75862e-05
6.29297e-05
5.99488e-05
5.78902e-05
5.66461e-05
5.58325e-05
5.55223e-05
5.53996e-05
5.563e-05
5.58974e-05
5.57554e-05
5.51717e-05
5.46001e-05
6.20812e-06
8.102e-06
9.64415e-06
1.08701e-05
1.17904e-05
1.24714e-05
1.29426e-05
1.3282e-05
1.35265e-05
1.36934e-05
1.37855e-05
1.3838e-05
1.38546e-05
1.38375e-05
1.37876e-05
1.37341e-05
1.36803e-05
1.36269e-05
3.73153e-10
1.36279e-08
3.50574e-08
6.80086e-08
1.08539e-07
1.56442e-07
2.35968e-07
3.67138e-07
5.61546e-07
8.133e-07
1.0839e-06
1.35715e-06
1.61027e-06
1.83218e-06
2.02004e-06
2.17077e-06
2.28575e-06
2.36208e-06
2.40842e-06
2.40721e-06
2.38027e-06
2.3429e-06
2.25403e-06
2.10999e-06
1.90394e-06
1.62886e-06
1.28864e-06
9.03121e-07
5.22613e-07
2.26556e-07
6.68577e-08
1.80923e-08
1.3833e-08
1.50708e-08
1.74e-08
2.06144e-08
2.42519e-08
2.70707e-08
3.13167e-08
4.81438e-08
1.21135e-07
2.75812e-07
5.12993e-07
7.15417e-07
8.42608e-07
8.39877e-07
7.98584e-07
7.20034e-07
6.2736e-07
5.52398e-07
5.46633e-07
6.41955e-07
8.39748e-07
9.16595e-07
1.07371e-06
1.41529e-06
2.7559e-06
7.56981e-06
1.30988e-05
1.79854e-05
2.21499e-05
2.51793e-05
2.66104e-05
2.78662e-05
2.90233e-05
3.01465e-05
3.12327e-05
3.22038e-05
3.31396e-05
3.4009e-05
3.48492e-05
3.56466e-05
3.6421e-05
3.71667e-05
3.78946e-05
3.86023e-05
3.92951e-05
3.99728e-05
4.06405e-05
4.12959e-05
4.19437e-05
4.25818e-05
4.32134e-05
4.38372e-05
4.44552e-05
4.50666e-05
4.56726e-05
4.62727e-05
4.68673e-05
4.74562e-05
4.80394e-05
4.86164e-05
4.9187e-05
4.97508e-05
5.03076e-05
5.08571e-05
5.14e-05
5.19372e-05
5.24715e-05
5.30073e-05
5.35512e-05
5.40955e-05
5.46382e-05
5.51832e-05
5.57303e-05
5.62806e-05
5.68342e-05
5.73916e-05
5.79533e-05
5.85198e-05
5.90916e-05
5.96692e-05
6.02534e-05
6.08446e-05
6.14437e-05
6.20513e-05
6.26683e-05
6.32956e-05
6.39342e-05
6.45851e-05
6.52496e-05
6.59289e-05
6.66244e-05
6.73379e-05
6.80712e-05
6.88264e-05
6.96098e-05
7.04188e-05
7.12425e-05
7.20984e-05
7.21165e-05
7.18843e-05
7.16308e-05
7.13588e-05
7.10719e-05
7.07682e-05
7.04439e-05
7.01027e-05
6.97449e-05
6.93706e-05
6.89804e-05
6.85744e-05
6.81532e-05
6.77172e-05
6.72668e-05
6.68028e-05
6.63266e-05
6.58336e-05
6.53377e-05
6.48142e-05
6.42965e-05
6.37477e-05
6.32095e-05
6.26379e-05
6.20824e-05
6.14913e-05
6.09223e-05
6.03151e-05
5.97351e-05
5.91188e-05
5.85193e-05
5.79043e-05
5.72889e-05
5.66685e-05
5.60449e-05
5.54185e-05
5.47902e-05
5.41606e-05
5.35303e-05
5.28994e-05
5.22676e-05
5.16338e-05
5.09969e-05
5.03547e-05
4.97022e-05
4.90324e-05
4.83409e-05
4.76687e-05
4.71358e-05
4.53113e-05
1.82143e-09
7.08189e-09
4.55073e-08
1.37685e-07
3.98989e-07
1.37195e-06
3.18099e-06
5.82998e-06
9.25008e-06
1.26561e-05
1.64187e-05
2.08978e-05
2.44499e-05
2.73679e-05
2.9539e-05
3.08667e-05
3.13178e-05
3.11695e-05
3.04066e-05
2.82358e-05
2.53854e-05
2.12077e-05
1.69646e-05
1.31427e-05
9.96541e-06
7.33144e-06
5.29878e-06
3.75225e-06
2.52846e-06
1.6262e-06
9.83568e-07
5.77245e-07
3.55734e-07
2.37001e-07
1.74943e-07
1.43743e-07
1.4451e-07
2.38925e-07
6.269e-07
1.2687e-06
4.65539e-06
9.98999e-06
1.69738e-05
2.15795e-05
2.34456e-05
2.23556e-05
2.06923e-05
1.64381e-05
1.26836e-05
1.1373e-05
1.2091e-05
1.20615e-05
1.15166e-05
1.24808e-05
1.54583e-05
2.0351e-05
2.7563e-05
3.76811e-05
4.72311e-05
5.84718e-05
7.09763e-05
8.4691e-05
9.94865e-05
0.000114915
0.000130881
0.000146892
0.000162815
0.000178296
0.000193249
0.000207514
0.000221081
0.00023394
0.000245943
0.000257632
0.000268525
0.000279118
0.000289276
0.000298907
0.0003083
0.000317344
0.000326166
0.00033474
0.000343123
0.000351315
0.000359342
0.000367214
0.000374943
0.000382537
0.000390005
0.000397351
0.000404579
0.000411687
0.000418672
0.000425526
0.000432233
0.000438767
0.000445091
0.000451147
0.000456851
0.000462084
0.000466697
0.000471093
0.000475405
0.000479575
0.000483633
0.000487562
0.000491367
0.000495042
0.000498586
0.000501997
0.000505272
0.00050841
0.000511408
0.000514264
0.000516976
0.000519543
0.000521964
0.000524236
0.000526359
0.000528331
0.000530153
0.000531823
0.000533341
0.000534709
0.000535928
0.000537003
0.000537941
0.000538778
0.000539515
0.000540227
0.000541018
0.000541663
0.000542169
0.000542474
0.000542687
0.000542824
0.000542801
0.000542623
0.000542322
0.000541894
0.000541341
0.000540665
0.000539867
0.000538949
0.000537909
0.000536743
0.000535437
0.000534251
0.000532581
0.000531291
0.000529369
0.000527898
0.000525766
0.000524123
0.000521806
0.000520012
0.000517546
0.000515629
0.000513067
0.000510965
0.000508463
0.00050607
0.000503604
0.000501105
0.000498572
0.000496009
0.000493425
0.000490824
0.000488213
0.000485593
0.000482961
0.000480307
0.000477617
0.000474873
0.000472003
0.000468923
0.000465482
0.000461215
0.000455176
0.000438624
2.17043e-09
5.74756e-09
6.49765e-08
3.65546e-07
1.09269e-06
2.97589e-06
6.61741e-06
1.15063e-05
1.77034e-05
2.48869e-05
3.27263e-05
4.08567e-05
4.8935e-05
5.61569e-05
6.21612e-05
6.68489e-05
7.00109e-05
7.20409e-05
7.26881e-05
7.20511e-05
6.9583e-05
6.53198e-05
5.97873e-05
5.22055e-05
4.35934e-05
3.50556e-05
2.68916e-05
1.9887e-05
1.42481e-05
9.94002e-06
6.77627e-06
4.35822e-06
2.80505e-06
1.85146e-06
1.31799e-06
1.06325e-06
9.39995e-07
8.57238e-07
2.92943e-06
5.79563e-06
1.73474e-05
3.47762e-05
4.89229e-05
5.71986e-05
6.03794e-05
5.59804e-05
4.72905e-05
3.31002e-05
2.64648e-05
2.67726e-05
2.98657e-05
3.5379e-05
4.23545e-05
5.43599e-05
7.03044e-05
8.64395e-05
0.000106486
0.000129443
0.000157505
0.000189287
0.000224393
0.000261198
0.000299262
0.000337001
0.000374073
0.000409507
0.000443227
0.000474906
0.000504668
0.00053257
0.000558632
0.000583459
0.000606683
0.000629154
0.000650581
0.000671056
0.000690831
0.000709923
0.000728504
0.000746565
0.000764207
0.00078144
0.000798319
0.000814859
0.000831088
0.000847021
0.000862671
0.000878048
0.000893157
0.000907999
0.000922573
0.000936869
0.000950875
0.000964571
0.000977929
0.000990917
0.00100349
0.00101562
0.00102725
0.00103837
0.00104908
0.00105956
0.0010698
0.00107976
0.00108947
0.0010989
0.00110805
0.00111692
0.00112551
0.00113379
0.00114178
0.00114947
0.00115685
0.00116391
0.00117066
0.00117709
0.0011832
0.00118898
0.00119443
0.00119956
0.00120435
0.00120882
0.00121295
0.00121676
0.00122025
0.00122342
0.0012263
0.00122891
0.00123125
0.00123336
0.00123527
0.00123684
0.00123807
0.00123888
0.0012394
0.00123986
0.00123985
0.00123954
0.00123893
0.00123803
0.00123683
0.00123536
0.0012336
0.00123158
0.00122928
0.00122671
0.00122391
0.00122097
0.00121755
0.00121423
0.0012103
0.00120655
0.00120213
0.00119799
0.00119313
0.00118864
0.00118344
0.00117865
0.00117317
0.00116808
0.00116253
0.00115703
0.00115141
0.00114571
0.00113992
0.00113407
0.00112816
0.00112222
0.00111625
0.00111026
0.00110425
0.00109819
0.00109204
0.00108577
0.00107925
0.00107231
0.00106463
0.00105527
0.00104223
0.00101269
2.17606e-09
1.3506e-08
1.91589e-07
8.65895e-07
2.53671e-06
6.87738e-06
1.39097e-05
2.34398e-05
3.51468e-05
4.80816e-05
6.12232e-05
7.40758e-05
8.55989e-05
9.52933e-05
0.00010265
0.000108296
0.000112018
0.000113871
0.000114213
0.000113168
0.000110801
0.00010666
0.000101634
9.45886e-05
8.60608e-05
7.56784e-05
6.40912e-05
5.20748e-05
4.07421e-05
3.10415e-05
2.31249e-05
1.70053e-05
1.21919e-05
8.79279e-06
6.32589e-06
4.91694e-06
4.21001e-06
4.21502e-06
1.11532e-05
2.21829e-05
4.54716e-05
6.26536e-05
7.23352e-05
7.502e-05
6.65701e-05
5.40855e-05
5.06403e-05
5.36376e-05
5.75634e-05
6.41409e-05
7.57682e-05
9.30803e-05
0.000110335
0.000135763
0.000163401
0.000198055
0.000239008
0.000285257
0.000336168
0.000389804
0.000445037
0.000500215
0.000554591
0.00060703
0.000657288
0.000704902
0.000749946
0.000792463
0.00083244
0.000870361
0.000906288
0.0009409
0.000973726
0.00100536
0.00103583
0.00106527
0.00109384
0.00112162
0.00114871
0.00117516
0.00120103
0.00122636
0.00125119
0.00127554
0.00129944
0.0013229
0.00134593
0.00136854
0.00139074
0.00141252
0.00143388
0.00145481
0.0014753
0.00149533
0.00151488
0.00153394
0.00155248
0.00157051
0.00158802
0.00160504
0.00162165
0.00163789
0.00165374
0.00166919
0.00168424
0.00169886
0.00171306
0.00172683
0.00174015
0.00175303
0.00176545
0.00177741
0.0017889
0.00179992
0.00181046
0.00182052
0.00183009
0.00183917
0.00184777
0.00185586
0.00186347
0.00187059
0.00187721
0.00188335
0.00188901
0.00189419
0.00189893
0.00190321
0.00190706
0.00191047
0.00191345
0.00191594
0.00191792
0.00191931
0.00192037
0.00192108
0.00192122
0.0019209
0.00192013
0.00191892
0.00191728
0.00191521
0.00191272
0.00190983
0.00190653
0.00190284
0.0018988
0.00189441
0.00188956
0.00188451
0.00187893
0.00187319
0.00186692
0.00186055
0.00185363
0.00184671
0.00183926
0.00183187
0.00182398
0.00181617
0.00180801
0.00179976
0.00179136
0.00178281
0.00177414
0.00176536
0.00175649
0.00174755
0.00173856
0.00172954
0.00172047
0.00171133
0.00170208
0.00169264
0.00168289
0.00167259
0.00166135
0.00164798
0.00162987
0.00159517
2.88864e-09
4.24865e-08
4.38129e-07
1.85362e-06
6.48128e-06
1.60047e-05
3.01112e-05
4.78524e-05
6.73096e-05
8.6603e-05
0.000104324
0.000118944
0.000130001
0.000138578
0.000144618
0.000148434
0.000150482
0.000150957
0.00015002
0.000147863
0.000144631
0.000140045
0.000134647
0.000127961
0.000120074
0.000110439
9.91729e-05
8.64526e-05
7.27254e-05
5.92116e-05
4.71462e-05
3.69979e-05
2.87597e-05
2.22505e-05
1.82336e-05
1.43675e-05
1.46901e-05
1.92856e-05
3.64142e-05
6.248e-05
8.57012e-05
9.5347e-05
9.04478e-05
8.4291e-05
8.16594e-05
8.24223e-05
8.67262e-05
9.52837e-05
0.000109741
0.000127644
0.000146701
0.000176336
0.000211443
0.000254787
0.000303501
0.00035981
0.000420245
0.000484297
0.000550418
0.000617207
0.0006836
0.000748613
0.000811699
0.000872328
0.000930395
0.000985807
0.00103822
0.00108833
0.0011365
0.00118229
0.00122621
0.00126847
0.00130915
0.00134848
0.00138659
0.0014236
0.00145963
0.00149476
0.00152907
0.00156262
0.00159545
0.00162761
0.00165913
0.00169004
0.00172035
0.00175009
0.00177926
0.00180787
0.00183593
0.00186344
0.0018904
0.0019168
0.00194264
0.00196792
0.00199261
0.00201673
0.00204028
0.00206325
0.00208568
0.00210757
0.00212896
0.00214985
0.00217022
0.00219007
0.00220939
0.00222816
0.00224638
0.00226404
0.00228113
0.00229765
0.00231358
0.00232892
0.00234366
0.0023578
0.00237134
0.00238426
0.00239657
0.00240826
0.00241934
0.00242979
0.00243964
0.00244886
0.00245747
0.00246548
0.00247288
0.00247969
0.00248592
0.00249157
0.00249667
0.00250114
0.00250506
0.00250838
0.00251103
0.00251302
0.00251463
0.00251567
0.00251608
0.00251592
0.0025152
0.00251393
0.00251212
0.00250979
0.00250693
0.00250357
0.00249971
0.00249536
0.00249057
0.0024853
0.00247956
0.00247341
0.00246676
0.00245975
0.00245224
0.00244441
0.00243611
0.00242756
0.00241858
0.00240941
0.00239984
0.00239015
0.00238015
0.00236996
0.00235957
0.00234898
0.00233822
0.00232731
0.00231627
0.00230512
0.00229388
0.00228256
0.00227117
0.00225969
0.00224808
0.00223626
0.0022241
0.00221138
0.0021977
0.00218191
0.00216106
0.00212633
2.42321e-09
9.87965e-08
1.0026e-06
4.82748e-06
1.6388e-05
3.55433e-05
5.9564e-05
8.58442e-05
0.000110374
0.000130531
0.000145982
0.00015777
0.000166307
0.000172007
0.000175533
0.000177309
0.000177685
0.000176891
0.000175068
0.000172308
0.000168641
0.000163869
0.000158364
0.000151942
0.000144246
0.00013517
0.000124586
0.000112478
9.89811e-05
8.40409e-05
6.823e-05
5.4245e-05
4.30841e-05
3.421e-05
2.91016e-05
2.86047e-05
3.5622e-05
5.62637e-05
8.38988e-05
0.000101418
0.000108862
0.00011017
0.000109458
0.000110385
0.000115392
0.000126211
0.000143448
0.000154955
0.000178563
0.00020908
0.000247637
0.000295071
0.000349172
0.00041067
0.000476379
0.000546589
0.00061873
0.000692401
0.000766289
0.000839539
0.000911459
0.000981514
0.00104944
0.00111476
0.00117746
0.00123817
0.00129635
0.00135222
0.00140603
0.00145779
0.00150775
0.00155606
0.00160286
0.00164828
0.00169245
0.00173547
0.00177742
0.00181839
0.00185843
0.0018976
0.00193593
0.00197347
0.00201024
0.00204628
0.00208159
0.0021162
0.00215013
0.00218337
0.00221594
0.00224785
0.0022791
0.0023097
0.00233963
0.00236891
0.00239754
0.00242551
0.00245285
0.00247955
0.00250564
0.00253112
0.00255599
0.00258025
0.00260389
0.0026269
0.00264928
0.00267102
0.0026921
0.00271253
0.00273228
0.00275137
0.00276977
0.00278749
0.00280452
0.00282086
0.0028365
0.00285144
0.00286568
0.00287921
0.00289204
0.00290417
0.0029156
0.00292633
0.00293636
0.00294571
0.00295438
0.00296238
0.0029697
0.00297639
0.00298243
0.00298772
0.00299239
0.0029964
0.00299965
0.00300222
0.00300433
0.00300577
0.00300654
0.00300666
0.00300616
0.00300506
0.00300335
0.00300105
0.00299817
0.00299472
0.00299072
0.00298617
0.0029811
0.0029755
0.00296938
0.00296276
0.00295563
0.00294803
0.00293992
0.00293138
0.00292238
0.00291299
0.00290319
0.00289308
0.00288259
0.00287185
0.0028608
0.0028495
0.00283794
0.00282614
0.00281412
0.00280191
0.00278952
0.00277699
0.00276434
0.00275158
0.00273872
0.00272575
0.00271263
0.00269932
0.00268567
0.00267151
0.00265647
0.00263958
0.00261815
0.00258547
5.91093e-09
2.51574e-07
2.61731e-06
1.33271e-05
3.611e-05
6.68086e-05
9.88795e-05
0.000125811
0.000146991
0.000162837
0.000175036
0.000183419
0.000188982
0.000192381
0.000194143
0.000194657
0.000194163
0.00019279
0.000190604
0.000187655
0.000183874
0.000179116
0.0001737
0.000167329
0.000159726
0.000146645
0.000130259
0.000114703
9.96641e-05
8.46087e-05
6.94726e-05
5.54588e-05
4.44714e-05
4.01332e-05
4.32872e-05
5.95711e-05
8.59653e-05
0.000109234
0.000124613
0.000132525
0.000135316
0.00013736
0.000143158
0.000155487
0.000168768
0.00018031
0.000204235
0.000234944
0.00027422
0.000321586
0.000377241
0.000440367
0.00050873
0.000581501
0.00065667
0.000733918
0.000811791
0.000889788
0.000967091
0.00104317
0.00111768
0.00118987
0.00125995
0.00132858
0.00139461
0.00145854
0.0015203
0.00158001
0.0016378
0.00169377
0.00174805
0.00180075
0.00185201
0.00190191
0.00195055
0.00199802
0.00204437
0.00208967
0.00213396
0.00217729
0.00221969
0.00226119
0.00230182
0.0023416
0.00238055
0.0024187
0.00245606
0.00249263
0.00252845
0.0025635
0.00259781
0.00263138
0.00266423
0.00269634
0.00272773
0.00275841
0.00278838
0.00281763
0.00284617
0.00287401
0.00290116
0.00292762
0.00295338
0.00297844
0.00300279
0.00302642
0.00304934
0.00307152
0.00309297
0.00311369
0.00313366
0.00315289
0.00317137
0.00318911
0.00320609
0.00322232
0.00323781
0.00325257
0.00326657
0.00327982
0.00329232
0.00330408
0.0033151
0.00332538
0.00333493
0.00334376
0.00335187
0.00335932
0.00336602
0.00337196
0.00337723
0.0033818
0.00338555
0.00338865
0.00339119
0.00339304
0.00339422
0.00339474
0.00339462
0.00339385
0.00339246
0.00339044
0.00338782
0.0033846
0.0033808
0.00337642
0.00337148
0.00336599
0.00335995
0.00335337
0.00334625
0.00333861
0.00333046
0.00332181
0.00331269
0.00330312
0.00329312
0.00328275
0.00327199
0.0032609
0.00324949
0.00323777
0.00322575
0.00321345
0.00320089
0.00318809
0.00317508
0.00316189
0.00314853
0.00313504
0.00312142
0.00310767
0.00309377
0.00307968
0.00306529
0.00305049
0.00303498
0.00301798
0.00299741
0.00296779
5.24749e-08
7.06345e-07
6.9062e-06
2.98408e-05
6.57409e-05
0.000103859
0.000136181
0.000161261
0.000179394
0.000192073
0.000199569
0.000203626
0.000205432
0.000205821
0.000205314
0.000204227
0.000202737
0.000200872
0.000198484
0.000195335
0.000191297
0.000186298
0.000180439
0.000173299
0.000156444
0.000139879
0.000124762
0.000110668
9.75063e-05
8.51445e-05
7.44736e-05
6.82287e-05
6.99702e-05
8.0841e-05
9.40174e-05
0.000121066
0.000146368
0.000157065
0.00016327
0.000167368
0.000173604
0.000185501
0.000193172
0.000204362
0.000225655
0.000254831
0.000293027
0.000338748
0.000392682
0.000453999
0.00052195
0.000594843
0.000670853
0.000749107
0.000828533
0.000908625
0.000988566
0.0010679
0.00114618
0.00122263
0.0012973
0.00137094
0.00144236
0.00151195
0.00157949
0.00164511
0.00170883
0.00177074
0.00183092
0.00188944
0.00194642
0.00200194
0.00205608
0.00210893
0.00216055
0.002211
0.00226032
0.00230855
0.00235573
0.00240189
0.00244705
0.00249123
0.00253446
0.00257676
0.00261816
0.00265866
0.00269829
0.00273707
0.00277501
0.00281212
0.00284843
0.00288395
0.00291867
0.00295263
0.00298581
0.00301822
0.00304987
0.00308075
0.00311085
0.00314022
0.00316885
0.00319675
0.0032239
0.00325031
0.00327598
0.00330088
0.00332503
0.00334842
0.00337104
0.00339288
0.00341396
0.00343425
0.00345377
0.0034725
0.00349046
0.00350764
0.00352403
0.00353965
0.00355449
0.00356855
0.00358184
0.00359437
0.00360613
0.00361713
0.00362738
0.00363688
0.00364566
0.00365378
0.00366106
0.00366761
0.00367347
0.00367861
0.00368292
0.00368662
0.00368969
0.00369205
0.00369371
0.0036947
0.00369503
0.0036947
0.00369373
0.00369212
0.0036899
0.00368706
0.00368363
0.0036796
0.003675
0.00366983
0.00366409
0.00365779
0.00365094
0.00364354
0.00363562
0.00362717
0.00361823
0.00360881
0.00359895
0.00358867
0.00357799
0.00356694
0.00355553
0.00354377
0.00353169
0.00351929
0.00350659
0.00349361
0.00348038
0.00346694
0.0034533
0.00343949
0.00342552
0.00341139
0.00339712
0.00338267
0.00336811
0.00335324
0.00333784
0.00332131
0.00330203
0.00327599
1.94583e-07
1.74806e-06
1.61425e-05
5.22854e-05
9.59276e-05
0.000134133
0.000163735
0.000185652
0.000200185
0.000208589
0.000213003
0.000214513
0.000214127
0.00021264
0.000210595
0.00020829
0.000205807
0.000203063
0.000199835
0.000196083
0.000191642
0.000186328
0.000179923
0.000162489
0.000146126
0.000131251
0.00011706
0.000104248
9.41651e-05
8.96805e-05
9.13014e-05
9.21829e-05
0.000104577
0.000127254
0.000153934
0.00017761
0.000196273
0.000205002
0.000211295
0.00021447
0.000216812
0.000226679
0.000244737
0.000271103
0.000306237
0.00034927
0.00040011
0.000457813
0.000522298
0.000592498
0.000667115
0.000744566
0.000823684
0.000903808
0.000984283
0.00106465
0.0011444
0.00122298
0.00129995
0.00137604
0.0014505
0.00152335
0.00159438
0.00166368
0.00173122
0.00179706
0.00186124
0.00192382
0.00198485
0.00204441
0.00210257
0.00215941
0.00221499
0.00226938
0.00232262
0.00237474
0.00242576
0.00247571
0.0025246
0.00257244
0.00261925
0.00266504
0.00270982
0.00275362
0.00279645
0.00283835
0.00287934
0.00291948
0.00295872
0.00299709
0.00303459
0.00307123
0.00310705
0.00314204
0.00317623
0.00320961
0.00324219
0.003274
0.00330503
0.0033353
0.00336481
0.00339355
0.00342152
0.00344873
0.00347516
0.00350081
0.00352568
0.00354978
0.00357308
0.0035956
0.00361733
0.00363827
0.00365842
0.00367778
0.00369635
0.00371413
0.00373112
0.00374733
0.00376275
0.00377739
0.00379126
0.00380436
0.00381669
0.00382826
0.00383907
0.00384914
0.00385851
0.00386717
0.00387501
0.00388214
0.00388857
0.00389428
0.00389919
0.00390351
0.00390716
0.00391012
0.00391239
0.00391399
0.00391494
0.00391524
0.00391491
0.00391394
0.00391237
0.00391019
0.00390741
0.00390404
0.0039001
0.00389559
0.00389052
0.00388488
0.00387869
0.00387194
0.00386466
0.00385684
0.00384853
0.00383972
0.00383046
0.00382076
0.00381064
0.00380012
0.00378922
0.00377794
0.00376631
0.00375432
0.00374201
0.00372938
0.00371647
0.00370331
0.00368991
0.00367631
0.00366252
0.00364855
0.00363441
0.0036201
0.00360559
0.00359085
0.00357571
0.00355971
0.00354159
0.00351865
4.13959e-07
3.85366e-06
3.00839e-05
7.81517e-05
0.000126029
0.00016429
0.00019126
0.000207954
0.000217861
0.000222227
0.000222541
0.000220432
0.000217061
0.000213198
0.000209287
0.000205513
0.000201817
0.00019807
0.000193936
0.000189436
0.000184212
0.000178405
0.000167069
0.000152722
0.000140735
0.000131457
0.000126004
0.000123826
0.00011631
0.000114616
0.000122744
0.000139372
0.000159875
0.000181387
0.00020109
0.000216547
0.000226213
0.000231942
0.000237323
0.000246426
0.000262137
0.000285005
0.000316443
0.000355798
0.000402639
0.000456145
0.000515909
0.000581298
0.000651783
0.00072621
0.000803298
0.0008819
0.00096125
0.00104084
0.00112021
0.00119904
0.00127642
0.00135289
0.00142831
0.00150224
0.00157462
0.00164543
0.00171461
0.00178222
0.00184829
0.00191289
0.00197606
0.00203786
0.00209833
0.00215748
0.00221543
0.00227224
0.00232796
0.00238263
0.00243631
0.00248906
0.00254098
0.00259199
0.00264194
0.00269082
0.00273861
0.00278533
0.00283098
0.00287557
0.00291913
0.00296169
0.00300325
0.00304383
0.00308348
0.00312225
0.00316017
0.00319725
0.0032335
0.00326895
0.0033036
0.00333746
0.00337055
0.00340286
0.00343441
0.00346518
0.00349518
0.0035244
0.00355285
0.00358052
0.00360742
0.00363353
0.00365886
0.00368341
0.00370717
0.00373014
0.00375232
0.00377372
0.00379433
0.00381415
0.00383318
0.00385143
0.0038689
0.00388559
0.0039015
0.00391664
0.00393102
0.00394463
0.00395748
0.00396959
0.00398095
0.00399157
0.00400153
0.00401071
0.00401915
0.00402689
0.00403394
0.00404028
0.00404588
0.00405087
0.00405519
0.00405884
0.00406182
0.00406415
0.00406584
0.0040669
0.00406734
0.00406717
0.00406641
0.00406505
0.0040631
0.00406059
0.00405751
0.00405387
0.00404967
0.00404492
0.00403962
0.00403376
0.00402736
0.00402044
0.00401301
0.00400509
0.00399671
0.00398787
0.0039786
0.00396892
0.00395883
0.00394835
0.00393748
0.00392624
0.00391463
0.00390269
0.00389043
0.00387788
0.00386507
0.00385201
0.00383873
0.00382525
0.00381157
0.00379771
0.00378369
0.00376947
0.00375496
0.00373983
0.00372306
0.0037035
6.32766e-07
7.52971e-06
4.56908e-05
0.000100005
0.000149266
0.000186541
0.000211149
0.000224726
0.000230026
0.000229923
0.000226531
0.00022133
0.000215341
0.000209209
0.000203248
0.000197607
0.000191871
0.000186247
0.000180403
0.000174223
0.000167777
0.000160657
0.00015245
0.000143751
0.000135644
0.000129628
0.000127683
0.000131152
0.00014023
0.000154114
0.000170426
0.000187964
0.00020538
0.000221117
0.000233391
0.000242442
0.000251761
0.000262088
0.000277263
0.000297576
0.000325461
0.000360707
0.000403213
0.000452126
0.000506854
0.000566824
0.000631646
0.000700775
0.00077348
0.0008487
0.000925395
0.00100275
0.0010802
0.00115738
0.00123356
0.00130868
0.00138311
0.00145611
0.00152777
0.00159799
0.00166675
0.00173404
0.00179978
0.00186414
0.00192721
0.00198908
0.00204982
0.00210953
0.00216836
0.00222659
0.00228387
0.00234015
0.00239546
0.00244982
0.00250328
0.00255586
0.0026075
0.00265821
0.00270798
0.00275674
0.0028045
0.00285125
0.00289696
0.00294164
0.0029853
0.00302798
0.0030697
0.00311051
0.00315044
0.00318949
0.0032277
0.00326508
0.00330165
0.00333742
0.00337241
0.00340661
0.00344004
0.0034727
0.0035046
0.00353573
0.00356609
0.00359568
0.0036245
0.00365255
0.00367983
0.00370633
0.00373206
0.00375701
0.00378119
0.00380459
0.00382721
0.00384905
0.00387011
0.00389039
0.0039099
0.00392864
0.00394661
0.00396381
0.00398025
0.00399594
0.00401087
0.00402505
0.00403849
0.00405119
0.00406315
0.00407443
0.00408499
0.00409482
0.00410395
0.00411238
0.00412014
0.00412721
0.0041336
0.00413937
0.00414447
0.00414891
0.00415272
0.0041559
0.00415846
0.0041604
0.00416175
0.00416251
0.00416269
0.00416229
0.00416133
0.00415982
0.00415775
0.00415514
0.00415199
0.00414829
0.00414405
0.00413926
0.00413393
0.00412809
0.00412173
0.00411489
0.00410758
0.00409981
0.00409161
0.00408298
0.00407393
0.00406447
0.00405459
0.00404432
0.00403366
0.00402264
0.00401127
0.00399959
0.0039876
0.00397534
0.00396281
0.00395005
0.00393707
0.0039239
0.00391056
0.00389705
0.00388333
0.00386916
0.00385366
0.00383702
7.95956e-07
1.30786e-05
6.35673e-05
0.000125157
0.000175329
0.000209397
0.000228886
0.000237452
0.000238595
0.000235001
0.000228634
0.000220878
0.00021264
0.000204513
0.00019639
0.000188873
0.000181693