/*--------------------------------*- C++ -*----------------------------------*\
  =========                 |
  \\      /  F ield         | OpenFOAM: The Open Source CFD Toolbox
   \\    /   O peration     | Website:  https://openfoam.org
    \\  /    A nd           | Version:  8
     \\/     M anipulation  |
\*---------------------------------------------------------------------------*/
FoamFile
{
    version     2.0;
    format      ascii;
    class       surfaceScalarField;
    location    "1900";
    object      phi;
}
// * * * * * * * * * * * * * * * * * * * * * * * * * * * * * * * * * * * * * //

dimensions      [0 3 -1 0 0 0 0];

internalField   nonuniform List<scalar> 
24170
(
2.99663e-06
1.37343e-07
2.85423e-06
1.42534e-07
2.72566e-06
1.28726e-07
2.6111e-06
1.14674e-07
2.51138e-06
9.98413e-08
2.42711e-06
8.43744e-08
2.35823e-06
6.89657e-08
2.30069e-06
5.74041e-08
2.25012e-06
5.04655e-08
2.20534e-06
4.46605e-08
2.16664e-06
3.86905e-08
2.13472e-06
3.19045e-08
2.10937e-06
2.53946e-08
2.08944e-06
1.99879e-08
2.07373e-06
1.57936e-08
2.06191e-06
1.19132e-08
2.05439e-06
7.66983e-09
7.86543e-10
2.05377e-06
3.52127e-06
7.25855e-08
3.55375e-06
1.10459e-07
3.56803e-06
1.14845e-07
3.56579e-06
1.17282e-07
3.55117e-06
1.14817e-07
3.52852e-06
1.07351e-07
3.50017e-06
9.75333e-08
3.47033e-06
8.72802e-08
3.44079e-06
7.99855e-08
3.41124e-06
7.41583e-08
3.38167e-06
6.82493e-08
3.35214e-06
6.13721e-08
3.32204e-06
5.54604e-08
3.29221e-06
4.97599e-08
3.26473e-06
4.32367e-08
3.23982e-06
3.68054e-08
3.21684e-06
3.06729e-08
2.35533e-08
3.19406e-06
3.83229e-06
5.25338e-08
3.85042e-06
9.22704e-08
3.86602e-06
9.92055e-08
3.87975e-06
1.0352e-07
3.89047e-06
1.04082e-07
3.89768e-06
1.00152e-07
3.90158e-06
9.36053e-08
3.90263e-06
8.6123e-08
3.90235e-06
8.01612e-08
3.90109e-06
7.5354e-08
3.89862e-06
7.07207e-08
3.89456e-06
6.5422e-08
3.88962e-06
6.04272e-08
3.88402e-06
5.53967e-08
3.87763e-06
4.96862e-08
3.87066e-06
4.38411e-08
3.86336e-06
3.80537e-08
3.12429e-08
3.85573e-06
4.2163e-06
4.08358e-08
4.2287e-06
8.01655e-08
4.23882e-06
8.93427e-08
4.24838e-06
9.42223e-08
4.257e-06
9.56904e-08
4.26428e-06
9.3084e-08
4.27026e-06
8.77684e-08
4.27487e-06
8.15669e-08
4.27879e-06
7.62388e-08
4.28241e-06
7.17479e-08
4.28571e-06
6.74135e-08
4.28841e-06
6.271e-08
4.29079e-06
5.80112e-08
4.29291e-06
5.32561e-08
4.29446e-06
4.81085e-08
4.29544e-06
4.28469e-08
4.296e-06
3.74972e-08
3.16248e-08
4.29559e-06
4.64574e-06
3.24267e-08
4.65682e-06
6.89596e-08
4.66558e-06
8.05003e-08
4.6738e-06
8.59194e-08
4.68143e-06
8.80194e-08
4.68812e-06
8.63551e-08
4.6938e-06
8.20555e-08
4.69847e-06
7.6813e-08
4.70262e-06
7.20283e-08
4.70656e-06
6.77739e-08
4.71036e-06
6.36187e-08
4.71387e-06
5.91973e-08
4.7172e-06
5.46897e-08
4.72037e-06
5.01098e-08
4.72318e-06
4.53313e-08
4.72559e-06
4.04668e-08
4.72759e-06
3.55197e-08
3.04453e-08
4.72884e-06
5.12107e-06
2.59855e-08
5.13123e-06
5.90812e-08
5.13962e-06
7.23532e-08
5.14754e-06
7.82149e-08
5.15502e-06
8.07502e-08
5.16171e-06
7.98392e-08
5.16746e-06
7.64327e-08
5.17234e-06
7.19995e-08
5.17672e-06
6.76939e-08
5.18087e-06
6.36547e-08
5.18484e-06
5.96513e-08
5.18859e-06
5.54331e-08
5.19214e-06
5.11074e-08
5.1955e-06
4.67148e-08
5.19855e-06
4.22374e-08
5.20126e-06
3.77256e-08
5.20356e-06
3.32028e-08
2.86733e-08
5.20526e-06
5.64612e-06
2.08907e-08
5.65527e-06
4.97968e-08
5.66348e-06
6.40293e-08
5.67132e-06
7.0305e-08
5.67885e-06
7.3184e-08
5.68572e-06
7.29538e-08
5.69174e-06
7.03806e-08
5.69698e-06
6.6727e-08
5.70171e-06
6.29217e-08
5.70618e-06
5.91891e-08
5.71042e-06
5.53989e-08
5.71442e-06
5.14334e-08
5.71817e-06
4.73389e-08
5.72169e-06
4.31968e-08
5.7249e-06
3.90238e-08
5.72776e-06
3.48552e-08
5.73021e-06
3.07217e-08
2.67307e-08
5.73218e-06
4.40917e-06
1.78419e-08
4.41509e-06
4.40849e-08
4.42094e-06
5.83543e-08
4.42657e-06
6.48561e-08
4.432e-06
6.79066e-08
4.43705e-06
6.8038e-08
4.44157e-06
6.59469e-08
4.44559e-06
6.27709e-08
4.44925e-06
5.92972e-08
4.45268e-06
5.57871e-08
4.45592e-06
5.21663e-08
4.45896e-06
4.83856e-08
4.4618e-06
4.44873e-08
4.46443e-06
4.05536e-08
4.46683e-06
3.66054e-08
4.46897e-06
3.26954e-08
4.47082e-06
2.88601e-08
2.51467e-08
4.47236e-06
5.14268e-06
1.50447e-08
5.14854e-06
3.81129e-08
5.15467e-06
5.21506e-08
5.16071e-06
5.87905e-08
5.16661e-06
6.20136e-08
5.17216e-06
6.24875e-08
5.17722e-06
6.09025e-08
5.18178e-06
5.82061e-08
5.18597e-06
5.51108e-08
5.1899e-06
5.1859e-08
5.1936e-06
4.84624e-08
5.19707e-06
4.49031e-08
5.2003e-06
4.12409e-08
5.20329e-06
3.75356e-08
5.20601e-06
3.38629e-08
5.20845e-06
3.0227e-08
5.21058e-06
2.66937e-08
2.33446e-08
5.21239e-06
5.99836e-06
1.24477e-08
6.00405e-06
3.25062e-08
6.0104e-06
4.58991e-08
6.01681e-06
5.24735e-08
6.02316e-06
5.57474e-08
6.02922e-06
5.64986e-08
6.03481e-06
5.53593e-08
6.03993e-06
5.31128e-08
6.04468e-06
5.03862e-08
6.04914e-06
4.74138e-08
6.05334e-06
4.42683e-08
6.05727e-06
4.09597e-08
6.06093e-06
3.75508e-08
6.06432e-06
3.41543e-08
6.0674e-06
3.07476e-08
6.07017e-06
2.74463e-08
6.07262e-06
2.4248e-08
2.12198e-08
6.07474e-06
6.99659e-06
1.01592e-08
7.00201e-06
2.70574e-08
7.00849e-06
3.94185e-08
7.01522e-06
4.57745e-08
7.02199e-06
4.90146e-08
7.02855e-06
4.99874e-08
7.03469e-06
4.9238e-08
7.04039e-06
4.74432e-08
7.04572e-06
4.50701e-08
7.05073e-06
4.24192e-08
7.05544e-06
3.95431e-08
7.05985e-06
3.65231e-08
7.06398e-06
3.34484e-08
7.06778e-06
3.03364e-08
7.07126e-06
2.72909e-08
7.07438e-06
2.43087e-08
7.07718e-06
2.1461e-08
1.87647e-08
7.07963e-06
8.16107e-06
8.0674e-09
8.1662e-06
2.19544e-08
8.17273e-06
3.29157e-08
8.17973e-06
3.88039e-08
8.18688e-06
4.18974e-08
8.19391e-06
4.29785e-08
8.20061e-06
4.25745e-08
8.2069e-06
4.1134e-08
8.21283e-06
3.91688e-08
8.2184e-06
3.68176e-08
8.22365e-06
3.42908e-08
8.22858e-06
3.16012e-08
8.23318e-06
2.88713e-08
8.23743e-06
2.61166e-08
8.2413e-06
2.34253e-08
8.24482e-06
2.08009e-08
8.24798e-06
1.83101e-08
1.59577e-08
8.2508e-06
9.51959e-06
6.23006e-09
9.52436e-06
1.72e-08
9.53086e-06
2.64529e-08
9.53806e-06
3.16361e-08
9.54555e-06
3.44424e-08
9.55305e-06
3.55321e-08
9.56029e-06
3.53186e-08
9.56721e-06
3.42597e-08
9.57372e-06
3.2596e-08
9.57992e-06
3.06499e-08
9.58572e-06
2.8444e-08
9.59122e-06
2.61667e-08
9.59631e-06
2.37814e-08
9.60105e-06
2.14428e-08
9.60535e-06
1.9095e-08
9.6093e-06
1.68752e-08
9.61284e-06
1.47266e-08
1.27421e-08
9.61605e-06
1.11044e-05
4.54321e-09
1.11089e-05
1.27138e-08
1.11153e-05
2.00602e-08
1.11226e-05
2.42865e-08
1.11304e-05
2.66611e-08
1.11384e-05
2.762e-08
1.11462e-05
2.75478e-08
1.11537e-05
2.67197e-08
1.11609e-05
2.54257e-08
1.11677e-05
2.38047e-08
1.11741e-05
2.20213e-08
1.11802e-05
2.0105e-08
1.11859e-05
1.81638e-08
1.11911e-05
1.61885e-08
1.11959e-05
1.4283e-08
1.12003e-05
1.24317e-08
1.12043e-05
1.06987e-08
9.06509e-09
1.12079e-05
1.29532e-05
2.97768e-09
1.29575e-05
8.42608e-09
1.29637e-05
1.36892e-08
1.29712e-05
1.67798e-08
1.29794e-05
1.85343e-08
1.29877e-05
1.92522e-08
1.29961e-05
1.9189e-08
1.30043e-05
1.85645e-08
1.30121e-05
1.75569e-08
1.30196e-05
1.63016e-08
1.30268e-05
1.49003e-08
1.30335e-05
1.34097e-08
1.30397e-05
1.18833e-08
1.30456e-05
1.03586e-08
1.30509e-05
8.87853e-09
1.30559e-05
7.46316e-09
1.30604e-05
6.13378e-09
4.90251e-09
1.30645e-05
1.51099e-05
1.47006e-09
1.51141e-05
4.20647e-09
1.51204e-05
7.31792e-09
1.51281e-05
9.03924e-09
1.51366e-05
1.00128e-08
1.51455e-05
1.03546e-08
1.51545e-05
1.01986e-08
1.51634e-05
9.69694e-09
1.5172e-05
8.9413e-09
1.51803e-05
8.0325e-09
1.51882e-05
7.02472e-09
1.51956e-05
5.97052e-09
1.52026e-05
4.8987e-09
1.52091e-05
3.84354e-09
1.52151e-05
2.82637e-09
1.52207e-05
1.86574e-09
1.52258e-05
9.70159e-10
1.56485e-10
1.52306e-05
1.76259e-05
-3.40647e-11
1.76302e-05
-5.39336e-11
1.76368e-05
7.25963e-10
1.76449e-05
8.76048e-10
1.76541e-05
9.20642e-10
1.76637e-05
7.1038e-10
1.76735e-05
4.04342e-10
1.76833e-05
-7.35029e-11
1.76928e-05
-5.72434e-10
1.7702e-05
-1.16513e-09
1.77108e-05
-1.73726e-09
1.77191e-05
-2.34877e-09
1.77269e-05
-2.91799e-09
1.77342e-05
-3.48694e-09
1.7741e-05
-4.00025e-09
1.77474e-05
-4.48717e-09
1.77532e-05
-4.91455e-09
-5.29261e-09
1.77587e-05
1.78276e-05
-1.45817e-09
1.78318e-05
-4.07856e-09
1.78381e-05
-5.65153e-09
1.78462e-05
-6.97697e-09
1.7855e-05
-7.97498e-09
1.78645e-05
-8.64518e-09
1.7874e-05
-9.24061e-09
1.78837e-05
-9.60732e-09
1.7893e-05
-9.97116e-09
1.79021e-05
-1.01733e-08
1.79107e-05
-1.04029e-08
1.79189e-05
-1.05166e-08
1.79266e-05
-1.06593e-08
1.79339e-05
-1.07139e-08
1.79406e-05
-1.07859e-08
1.79469e-05
-1.07875e-08
1.79527e-05
-1.07973e-08
-1.07395e-08
1.79582e-05
1.58827e-05
-2.80867e-09
1.58866e-05
-7.89523e-09
1.58926e-05
-1.15322e-08
1.58999e-05
-1.42361e-08
1.5908e-05
-1.59862e-08
1.59165e-05
-1.71671e-08
1.59252e-05
-1.7828e-08
1.59337e-05
-1.82238e-08
1.59422e-05
-1.82909e-08
1.59502e-05
-1.82586e-08
1.59579e-05
-1.80451e-08
1.59651e-05
-1.78151e-08
1.5972e-05
-1.74788e-08
1.59783e-05
-1.71569e-08
1.59844e-05
-1.67717e-08
1.59899e-05
-1.64095e-08
1.59952e-05
-1.60067e-08
-1.56164e-08
1.6e-05
1.41501e-05
-4.21583e-09
1.4154e-05
-1.18197e-08
1.416e-05
-1.7411e-08
1.4167e-05
-2.12307e-08
1.41747e-05
-2.36432e-08
1.41827e-05
-2.50878e-08
1.41907e-05
-2.58655e-08
1.41987e-05
-2.60741e-08
1.42063e-05
-2.59449e-08
1.42137e-05
-2.55434e-08
1.42205e-05
-2.50015e-08
1.42271e-05
-2.43439e-08
1.42332e-05
-2.3639e-08
1.4239e-05
-2.28974e-08
1.42443e-05
-2.21571e-08
1.42494e-05
-2.14115e-08
1.4254e-05
-2.06873e-08
-1.99574e-08
1.42584e-05
1.26066e-05
-5.79006e-09
1.26109e-05
-1.61013e-08
1.2617e-05
-2.35112e-08
1.2624e-05
-2.82372e-08
1.26315e-05
-3.10916e-08
1.26391e-05
-3.27275e-08
1.26468e-05
-3.34308e-08
1.26542e-05
-3.34541e-08
1.26613e-05
-3.30139e-08
1.2668e-05
-3.2258e-08
1.26743e-05
-3.13404e-08
1.26803e-05
-3.02818e-08
1.26859e-05
-2.92072e-08
1.26911e-05
-2.80809e-08
1.26959e-05
-2.70015e-08
1.27004e-05
-2.5913e-08
1.27046e-05
-2.48883e-08
-2.38674e-08
1.27085e-05
1.12316e-05
-7.6338e-09
1.12364e-05
-2.09282e-08
1.12429e-05
-2.99702e-08
1.125e-05
-3.5329e-08
1.12574e-05
-3.84624e-08
1.12648e-05
-4.01461e-08
1.12721e-05
-4.0703e-08
1.12791e-05
-4.04291e-08
1.12857e-05
-3.96175e-08
1.12919e-05
-3.8497e-08
1.12978e-05
-3.71566e-08
1.13032e-05
-3.57397e-08
1.13084e-05
-3.42481e-08
1.1313e-05
-3.28051e-08
1.13175e-05
-3.13554e-08
1.13215e-05
-2.9999e-08
1.13253e-05
-2.86584e-08
-2.74092e-08
1.13288e-05
1.00069e-05
-9.89845e-09
1.00124e-05
-2.64703e-08
1.00193e-05
-3.68499e-08
1.00264e-05
-4.25436e-08
1.00338e-05
-4.57821e-08
1.0041e-05
-4.74049e-08
1.0048e-05
-4.76937e-08
1.00547e-05
-4.70611e-08
1.00609e-05
-4.5859e-08
1.00668e-05
-4.43115e-08
1.00722e-05
-4.25742e-08
1.00772e-05
-4.07364e-08
1.00819e-05
-3.88969e-08
1.00862e-05
-3.70797e-08
1.00902e-05
-3.53454e-08
1.00939e-05
-3.36683e-08
1.00973e-05
-3.21039e-08
-3.05858e-08
1.01005e-05
8.91599e-06
-1.28081e-08
8.92241e-06
-3.29325e-08
8.92968e-06
-4.41385e-08
8.93697e-06
-4.98304e-08
8.94427e-06
-5.30858e-08
8.95139e-06
-5.45337e-08
8.95815e-06
-5.4479e-08
8.9645e-06
-5.34123e-08
8.97043e-06
-5.17623e-08
8.97592e-06
-4.97955e-08
8.98099e-06
-4.76321e-08
8.98567e-06
-4.54021e-08
8.98997e-06
-4.31798e-08
8.99392e-06
-4.10264e-08
8.99759e-06
-3.89703e-08
9.00096e-06
-3.70402e-08
9.0041e-06
-3.52205e-08
-3.35073e-08
9.00701e-06
7.9445e-06
-1.66469e-08
7.95199e-06
-4.04345e-08
7.95963e-06
-5.17845e-08
7.96704e-06
-5.72563e-08
7.97438e-06
-6.04272e-08
7.98144e-06
-6.16052e-08
7.98807e-06
-6.11047e-08
7.99423e-06
-5.9568e-08
7.99991e-06
-5.74597e-08
8.00516e-06
-5.50266e-08
8.00997e-06
-5.24329e-08
8.01437e-06
-4.97938e-08
8.0184e-06
-4.71958e-08
8.02209e-06
-4.46972e-08
8.02547e-06
-4.23462e-08
8.0286e-06
-4.01462e-08
8.03149e-06
-3.81016e-08
-3.6172e-08
8.03418e-06
7.07946e-06
-2.17782e-08
7.08829e-06
-4.9275e-08
7.09645e-06
-5.99652e-08
7.1042e-06
-6.4997e-08
7.11181e-06
-6.80387e-08
7.11903e-06
-6.88284e-08
7.12572e-06
-6.78095e-08
7.13189e-06
-6.57578e-08
7.13755e-06
-6.3099e-08
7.14273e-06
-6.02008e-08
7.14745e-06
-5.7149e-08
7.15175e-06
-5.40808e-08
7.15565e-06
-5.10929e-08
7.15918e-06
-4.82158e-08
7.1624e-06
-4.55462e-08
7.16534e-06
-4.30772e-08
7.16806e-06
-4.07996e-08
-3.86701e-08
7.17058e-06
6.30977e-06
-2.90358e-08
6.32066e-06
-6.01725e-08
6.33015e-06
-6.94304e-08
6.33917e-06
-7.4022e-08
6.34785e-06
-7.67252e-08
6.35591e-06
-7.68932e-08
6.36328e-06
-7.51967e-08
6.37003e-06
-7.24525e-08
6.37611e-06
-6.92274e-08
6.38162e-06
-6.56989e-08
6.38656e-06
-6.20772e-08
6.39096e-06
-5.84791e-08
6.39487e-06
-5.49509e-08
6.39827e-06
-5.1642e-08
6.40129e-06
-4.855e-08
6.40395e-06
-4.57259e-08
6.4063e-06
-4.31373e-08
-4.07487e-08
6.4084e-06
5.6289e-06
-4.30388e-08
5.64493e-06
-7.61774e-08
5.65912e-06
-8.36164e-08
5.67269e-06
-8.75842e-08
5.68514e-06
-8.91722e-08
5.69613e-06
-8.79017e-08
5.7057e-06
-8.47409e-08
5.71388e-06
-8.06138e-08
5.72065e-06
-7.60156e-08
5.72613e-06
-7.11887e-08
5.7304e-06
-6.63451e-08
5.73357e-06
-6.16042e-08
5.73572e-06
-5.70887e-08
5.73695e-06
-5.28658e-08
5.7374e-06
-4.90056e-08
5.73723e-06
-4.55418e-08
5.73655e-06
-4.24542e-08
-3.99061e-08
5.73574e-06
5.05071e-06
-9.14409e-08
5.08791e-06
-1.13351e-07
5.1143e-06
-1.09993e-07
5.13218e-06
-1.05462e-07
5.14244e-06
-9.94414e-08
5.14616e-06
-9.16245e-08
5.14448e-06
-8.3037e-08
5.13842e-06
-7.4531e-08
5.12889e-06
-6.65126e-08
5.11678e-06
-5.90838e-08
5.10275e-06
-5.23054e-08
5.08736e-06
-4.61715e-08
5.071e-06
-4.07036e-08
5.05402e-06
-3.58874e-08
5.03671e-06
-3.16975e-08
5.01939e-06
-2.82164e-08
5.00243e-06
-2.54762e-08
-2.37723e-08
4.98631e-06
4.36511e-06
4.25176e-06
4.14177e-06
4.0363e-06
3.93686e-06
3.84524e-06
3.76221e-06
3.68767e-06
3.62116e-06
3.56208e-06
3.50978e-06
3.46361e-06
3.42291e-06
3.38702e-06
3.35532e-06
3.32711e-06
3.30164e-06
3.27787e-06
-8.2561e-09
8.23517e-09
-2.24252e-08
1.41336e-08
-3.78495e-08
1.53929e-08
-5.11128e-08
1.32328e-08
-5.70577e-08
5.92216e-09
-4.96169e-08
-7.4727e-09
-2.66386e-08
-2.29869e-08
9.45649e-09
-3.61299e-08
5.45879e-08
-4.51267e-08
1.03878e-07
-4.93193e-08
1.5291e-07
-4.90187e-08
1.98489e-07
-4.56045e-08
2.38655e-07
-4.01547e-08
2.72091e-07
-3.34614e-08
2.98151e-07
-2.6052e-08
3.16356e-07
-1.82312e-08
3.26492e-07
-1.01345e-08
3.28182e-07
-1.71874e-09
3.21272e-07
6.90587e-09
3.05877e-07
1.53638e-08
2.82634e-07
2.3237e-08
2.52461e-07
3.0137e-08
2.16794e-07
3.56579e-08
1.77414e-07
3.93351e-08
1.36688e-07
4.07133e-08
9.71851e-08
3.94497e-08
6.16655e-08
3.54933e-08
3.2317e-08
2.92851e-08
1.04026e-08
2.18727e-08
-4.23316e-09
1.45689e-08
-1.2458e-08
8.16918e-09
-1.48073e-08
2.28429e-09
-1.10847e-08
-3.78027e-09
-1.49106e-10
-1.10025e-08
1.96029e-08
-1.97927e-08
4.83293e-08
-2.87849e-08
8.24584e-08
-3.41515e-08
1.15775e-07
-3.33771e-08
1.42751e-07
-2.69852e-08
1.59889e-07
-1.72032e-08
1.67126e-07
-7.28022e-09
1.67062e-07
-2.20021e-11
1.63256e-07
3.76196e-09
1.59162e-07
4.00727e-09
1.57333e-07
1.87184e-09
1.52302e-07
4.8843e-09
1.35059e-07
1.74636e-08
9.65477e-08
3.81879e-08
3.15723e-08
6.53623e-08
-5.85643e-08
8.98118e-08
-1.66779e-07
1.08418e-07
-2.902e-07
1.2332e-07
-4.25285e-07
1.35173e-07
-5.68679e-07
1.43429e-07
-7.15802e-07
1.4717e-07
-8.61939e-07
1.46187e-07
-1.00423e-06
1.42316e-07
-1.14114e-06
1.36944e-07
-1.27018e-06
1.29052e-07
-1.38982e-06
1.1968e-07
-1.5007e-06
1.10879e-07
-1.60208e-06
1.01412e-07
-1.69485e-06
9.27653e-08
-1.78025e-06
8.54346e-08
-1.85852e-06
7.8262e-08
-1.93053e-06
7.20497e-08
-1.99708e-06
6.65296e-08
-2.05872e-06
6.1683e-08
-2.11618e-06
5.74319e-08
-2.16985e-06
5.36996e-08
-2.22027e-06
5.03941e-08
-2.2677e-06
4.74607e-08
-2.31256e-06
4.48155e-08
-2.35496e-06
4.24268e-08
-2.39522e-06
4.02259e-08
-2.43341e-06
3.81978e-08
-2.46974e-06
3.6291e-08
-2.50424e-06
3.44991e-08
-2.53706e-06
3.27854e-08
-2.56822e-06
3.11466e-08
-2.5978e-06
2.95584e-08
-2.62584e-06
2.8016e-08
-2.65236e-06
2.65075e-08
-2.67742e-06
2.50236e-08
-2.70099e-06
2.35645e-08
-2.72316e-06
2.21148e-08
-2.74386e-06
2.0685e-08
-2.76313e-06
1.92521e-08
-2.78094e-06
1.78143e-08
-2.79724e-06
1.63823e-08
-2.8121e-06
1.49154e-08
-2.82547e-06
1.34225e-08
-2.83734e-06
1.18954e-08
-2.84767e-06
1.03243e-08
-2.85639e-06
8.70962e-09
-2.86347e-06
7.02941e-09
-2.8688e-06
5.29067e-09
-2.87231e-06
3.46942e-09
-2.87395e-06
1.61073e-09
-2.87377e-06
-1.9392e-10
-2.87199e-06
-1.76869e-09
-2.86881e-06
-3.17343e-09
-2.86424e-06
-4.53271e-09
-2.85832e-06
-5.88138e-09
-2.85104e-06
-7.22304e-09
-2.84241e-06
-8.56427e-09
-2.83244e-06
-9.90199e-09
-2.82113e-06
-1.12346e-08
-2.80849e-06
-1.25636e-08
-2.79453e-06
-1.38812e-08
-2.77926e-06
-1.51947e-08
-2.76268e-06
-1.64907e-08
-2.74483e-06
-1.7782e-08
-2.72569e-06
-1.90504e-08
-2.70532e-06
-2.03135e-08
-2.68369e-06
-2.15493e-08
-2.66086e-06
-2.2779e-08
-2.63682e-06
-2.39782e-08
-2.61161e-06
-2.51708e-08
-2.58523e-06
-2.6331e-08
-2.55773e-06
-2.74837e-08
-2.5291e-06
-2.86031e-08
-2.49939e-06
-2.97138e-08
-2.46859e-06
-3.07912e-08
-2.43675e-06
-3.1858e-08
-2.40387e-06
-3.28922e-08
-2.36999e-06
-3.39136e-08
-2.33512e-06
-3.49014e-08
-2.2993e-06
-3.58686e-08
-2.26255e-06
-3.68062e-08
-2.22489e-06
-3.7721e-08
-2.18635e-06
-3.86016e-08
-2.14696e-06
-3.94527e-08
-2.10676e-06
-4.0251e-08
-2.06582e-06
-4.09943e-08
-2.0242e-06
-4.16705e-08
-1.98195e-06
-4.23038e-08
-1.93897e-06
-4.30388e-08
-1.89523e-06
-4.38038e-08
-1.85083e-06
-4.4474e-08
-1.80579e-06
-4.51073e-08
-1.76017e-06
-4.5708e-08
-1.71397e-06
-4.62688e-08
-1.66724e-06
-4.68013e-08
-1.62e-06
-4.72963e-08
-1.57228e-06
-4.77658e-08
-1.52408e-06
-4.81976e-08
-1.47546e-06
-4.8606e-08
-1.42644e-06
-4.89868e-08
-1.37705e-06
-4.93501e-08
-1.32732e-06
-4.96929e-08
-1.27728e-06
-5.00086e-08
-1.22694e-06
-5.02985e-08
-1.17635e-06
-5.05573e-08
-1.12553e-06
-5.0788e-08
-1.07451e-06
-5.09985e-08
-1.0233e-06
-5.11882e-08
-9.71919e-07
-5.13666e-08
-9.20368e-07
-5.15354e-08
-8.68657e-07
-5.17008e-08
-8.1678e-07
-5.18645e-08
-7.64743e-07
-5.20279e-08
-7.12542e-07
-5.21893e-08
-6.60184e-07
-5.23468e-08
-6.07671e-07
-5.25e-08
-5.5501e-07
-5.26502e-08
-5.02196e-07
-5.28005e-08
-4.49233e-07
-5.29541e-08
-3.96112e-07
-5.31128e-08
-3.42832e-07
-5.32749e-08
-2.89397e-07
-5.34318e-08
-2.35833e-07
-5.35636e-08
-1.82194e-07
-5.36407e-08
-1.28593e-07
-5.3603e-08
-7.52306e-08
-5.33654e-08
-2.25627e-08
-5.26704e-08
2.87894e-08
-5.13557e-08
7.7125e-08
-4.83378e-08
1.21716e-07
-4.45944e-08
-1.98514e-08
1.41572e-07
-3.51296e-09
1.171e-08
-9.78052e-09
2.034e-08
-1.27524e-08
1.83001e-08
-5.29161e-09
5.70859e-09
1.76801e-08
-1.70913e-08
5.53256e-08
-4.51529e-08
1.03181e-07
-7.08532e-08
1.55653e-07
-8.86217e-08
2.07607e-07
-9.7081e-08
2.55702e-07
-9.74299e-08
2.98484e-07
-9.17973e-08
3.35218e-07
-8.23522e-08
3.65828e-07
-7.07607e-08
3.90474e-07
-5.81221e-08
4.09524e-07
-4.50989e-08
4.23329e-07
-3.20512e-08
4.32344e-07
-1.91502e-08
4.37092e-07
-6.48356e-09
4.3801e-07
5.98447e-09
4.3499e-07
1.8366e-08
4.27593e-07
3.0627e-08
4.15185e-07
4.25251e-08
3.97211e-07
5.36222e-08
3.73265e-07
6.32581e-08
3.43368e-07
7.05969e-08
3.08062e-07
7.47254e-08
2.68676e-07
7.48597e-08
2.27309e-07
7.06152e-08
1.86948e-07
6.22003e-08
1.51144e-07
5.03227e-08
1.23449e-07
3.58125e-08
1.06422e-07
1.92435e-08
1.01653e-07
9.27844e-10
1.08845e-07
-1.8258e-08
1.26161e-07
-3.71465e-08
1.48557e-07
-5.12289e-08
1.68933e-07
-5.45488e-08
1.81956e-07
-4.64433e-08
1.85759e-07
-3.08044e-08
1.80159e-07
-1.16485e-08
1.66391e-07
6.4601e-09
1.46258e-07
2.00315e-08
1.15563e-07
3.44394e-08
6.42057e-08
5.52905e-08
-1.72204e-08
8.33288e-08
-1.3052e-07
1.18101e-07
-2.675e-07
1.54482e-07
-4.18209e-07
1.88845e-07
-5.73557e-07
2.20734e-07
-7.31146e-07
2.47355e-07
-8.89177e-07
2.66459e-07
-1.04434e-06
2.78479e-07
-1.19278e-06
2.83623e-07
-1.33126e-06
2.81935e-07
-1.45796e-06
2.73879e-07
-1.57238e-06
2.60628e-07
-1.67415e-06
2.44098e-07
-1.76341e-06
2.26217e-07
-1.8422e-06
2.07838e-07
-1.91225e-06
1.89747e-07
-1.97432e-06
1.72948e-07
-2.03042e-06
1.57522e-07
-2.0814e-06
1.43744e-07
-2.12777e-06
1.31822e-07
-2.1708e-06
1.21293e-07
-2.21089e-06
1.1215e-07
-2.24854e-06
1.0418e-07
-2.28406e-06
9.72144e-08
-2.31772e-06
9.1091e-08
-2.34968e-06
8.5669e-08
-2.38012e-06
8.08189e-08
-2.40909e-06
7.64411e-08
-2.43672e-06
7.24387e-08
-2.46304e-06
6.87466e-08
-2.48813e-06
6.52974e-08
-2.51199e-06
6.20503e-08
-2.53467e-06
5.89587e-08
-2.55618e-06
5.59981e-08
-2.57655e-06
5.31364e-08
-2.59578e-06
5.03581e-08
-2.61388e-06
4.76415e-08
-2.63085e-06
4.49751e-08
-2.6467e-06
4.23455e-08
-2.66144e-06
3.97428e-08
-2.67505e-06
3.71604e-08
-2.68755e-06
3.45885e-08
-2.69891e-06
3.20248e-08
-2.70914e-06
2.94557e-08
-2.71818e-06
2.68866e-08
-2.72604e-06
2.42908e-08
-2.73275e-06
2.16742e-08
-2.73832e-06
1.90239e-08
-2.74276e-06
1.63359e-08
-2.74606e-06
1.36173e-08
-2.74825e-06
1.0868e-08
-2.74935e-06
8.09507e-09
-2.74942e-06
5.3122e-09
-2.74852e-06
2.53981e-09
-2.74675e-06
-1.84045e-10
-2.74411e-06
-2.84707e-09
-2.74039e-06
-5.48587e-09
-2.73541e-06
-8.13938e-09
-2.72912e-06
-1.0792e-08
-2.72152e-06
-1.3446e-08
-2.71261e-06
-1.60972e-08
-2.70238e-06
-1.87483e-08
-2.69083e-06
-2.13925e-08
-2.67798e-06
-2.40302e-08
-2.66383e-06
-2.6655e-08
-2.64839e-06
-2.92656e-08
-2.63166e-06
-3.18575e-08
-2.61367e-06
-3.44274e-08
-2.59442e-06
-3.69735e-08
-2.57392e-06
-3.94905e-08
-2.5522e-06
-4.1979e-08
-2.52927e-06
-4.44322e-08
-2.50515e-06
-4.68535e-08
-2.47986e-06
-4.92348e-08
-2.45342e-06
-5.15819e-08
-2.42584e-06
-5.38858e-08
-2.39715e-06
-5.61543e-08
-2.36736e-06
-5.83771e-08
-2.33651e-06
-6.05631e-08
-2.3046e-06
-6.27015e-08
-2.27167e-06
-6.48011e-08
-2.23772e-06
-6.68515e-08
-2.2028e-06
-6.88606e-08
-2.16691e-06
-7.08173e-08
-2.13008e-06
-7.27269e-08
-2.09235e-06
-7.45811e-08
-2.05373e-06
-7.6384e-08
-2.01424e-06
-7.81268e-08
-1.97392e-06
-7.98113e-08
-1.93278e-06
-8.14253e-08
-1.89084e-06
-8.29739e-08
-1.84809e-06
-8.44534e-08
-1.80454e-06
-8.58867e-08
-1.76029e-06
-8.7328e-08
-1.71539e-06
-8.87409e-08
-1.66984e-06
-9.00686e-08
-1.62367e-06
-9.13278e-08
-1.57691e-06
-9.25199e-08
-1.52958e-06
-9.36433e-08
-1.48172e-06
-9.47035e-08
-1.43334e-06
-9.56996e-08
-1.38449e-06
-9.66344e-08
-1.33518e-06
-9.75083e-08
-1.28544e-06
-9.83276e-08
-1.2353e-06
-9.90996e-08
-1.18479e-06
-9.98286e-08
-1.13394e-06
-1.00517e-07
-1.08278e-06
-1.01151e-07
-1.03132e-06
-1.01733e-07
-9.79601e-07
-1.02255e-07
-9.27648e-07
-1.02723e-07
-8.75484e-07
-1.03147e-07
-8.23126e-07
-1.03533e-07
-7.70591e-07
-1.03892e-07
-7.17883e-07
-1.04234e-07
-6.65011e-07
-1.04567e-07
-6.11972e-07
-1.04897e-07
-5.58768e-07
-1.05226e-07
-5.05397e-07
-1.05553e-07
-4.51863e-07
-1.05873e-07
-3.98168e-07
-1.06187e-07
-3.44314e-07
-1.06496e-07
-2.903e-07
-1.06806e-07
-2.36125e-07
-1.07124e-07
-1.81782e-07
-1.07452e-07
-1.27269e-07
-1.07787e-07
-7.25877e-08
-1.08113e-07
-1.77643e-08
-1.08391e-07
3.71571e-08
-1.08566e-07
9.20868e-08
-1.08539e-07
1.46846e-07
-1.0813e-07
2.01182e-07
-1.07013e-07
2.54471e-07
-1.0465e-07
3.06131e-07
-1.00004e-07
3.52834e-07
-9.13035e-08
-6.44111e-08
3.97393e-07
3.96587e-10
1.12806e-08
4.02008e-09
1.66552e-08
1.89269e-08
3.34264e-09
5.28931e-08
-2.82941e-08
1.04318e-07
-6.85329e-08
1.6345e-07
-1.04303e-07
2.20401e-07
-1.2781e-07
2.69573e-07
-1.37806e-07
3.09338e-07
-1.36847e-07
3.40379e-07
-1.28481e-07
3.64316e-07
-1.15734e-07
3.82672e-07
-1.00718e-07
3.96657e-07
-8.47426e-08
4.07067e-07
-6.85404e-08
4.14465e-07
-5.2495e-08
4.19199e-07
-3.67933e-08
4.2157e-07
-2.152e-08
4.21798e-07
-6.72035e-09
4.20194e-07
7.58746e-09
4.17104e-07
2.14464e-08
4.12818e-07
3.49097e-08
4.07367e-07
4.79634e-08
4.00508e-07
6.04751e-08
3.91634e-07
7.21163e-08
3.79912e-07
8.23086e-08
3.64415e-07
9.02055e-08
3.44514e-07
9.47443e-08
3.20297e-07
9.48099e-08
2.92942e-07
8.95327e-08
2.64746e-07
7.84891e-08
2.38694e-07
6.18332e-08
2.17611e-07
4.02888e-08
2.03234e-07
1.52691e-08
1.95712e-07
-1.07749e-08
1.90954e-07
-3.24128e-08
1.81431e-07
-4.17337e-08
1.6284e-07
-3.59704e-08
1.35056e-07
-1.86861e-08
9.89121e-08
5.33698e-09
5.25942e-08
3.46463e-08
-9.28332e-09
6.83263e-08
-9.3834e-08
1.04563e-07
-2.03368e-07
1.43964e-07
-3.34803e-07
1.86714e-07
-4.81959e-07
2.30485e-07
-6.35996e-07
2.72114e-07
-7.90471e-07
3.08958e-07
-9.40498e-07
3.3884e-07
-1.08056e-06
3.60796e-07
-1.20773e-06
3.74493e-07
-1.32112e-06
3.79846e-07
-1.4202e-06
3.77556e-07
-1.50514e-06
3.68569e-07
-1.57724e-06
3.54044e-07
-1.63874e-06
3.35393e-07
-1.69226e-06
3.14156e-07
-1.73994e-06
2.91778e-07
-1.78321e-06
2.69495e-07
-1.82348e-06
2.48104e-07
-1.8618e-06
2.28074e-07
-1.8986e-06
2.09751e-07
-1.93432e-06
1.9325e-07
-1.96914e-06
1.78559e-07
-2.00292e-06
1.65607e-07
-2.0358e-06
1.54174e-07
-2.06774e-06
1.44095e-07
-2.09873e-06
1.35181e-07
-2.12877e-06
1.27254e-07
-2.15784e-06
1.20157e-07
-2.18591e-06
1.13748e-07
-2.213e-06
1.07907e-07
-2.23909e-06
1.02531e-07
-2.26419e-06
9.75325e-08
-2.28829e-06
9.28406e-08
-2.31139e-06
8.83941e-08
-2.33349e-06
8.41471e-08
-2.3546e-06
8.0058e-08
-2.37471e-06
7.60965e-08
-2.39382e-06
7.22347e-08
-2.41193e-06
6.84522e-08
-2.42903e-06
6.47299e-08
-2.44511e-06
6.10532e-08
-2.46019e-06
5.74091e-08
-2.47424e-06
5.37866e-08
-2.48727e-06
5.01773e-08
-2.49927e-06
4.65727e-08
-2.51023e-06
4.29665e-08
-2.52014e-06
3.93525e-08
-2.52896e-06
3.57193e-08
-2.5367e-06
3.20718e-08
-2.54338e-06
2.83841e-08
-2.549e-06
2.46595e-08
-2.55357e-06
2.0896e-08
-2.55707e-06
1.70986e-08
-2.5595e-06
1.32694e-08
-2.56087e-06
9.42342e-09
-2.56117e-06
5.56514e-09
-2.56037e-06
1.71603e-09
-2.55845e-06
-2.12305e-09
-2.55535e-06
-5.95532e-09
-2.55102e-06
-9.81316e-09
-2.54545e-06
-1.36989e-08
-2.53862e-06
-1.76043e-08
-2.53052e-06
-2.15179e-08
-2.52115e-06
-2.54366e-08
-2.5105e-06
-2.93537e-08
-2.49859e-06
-3.32643e-08
-2.48542e-06
-3.71638e-08
-2.47098e-06
-4.10453e-08
-2.4553e-06
-4.49061e-08
-2.43837e-06
-4.8738e-08
-2.42021e-06
-5.25401e-08
-2.40083e-06
-5.63036e-08
-2.38026e-06
-6.00287e-08
-2.35849e-06
-6.37065e-08
-2.33555e-06
-6.73384e-08
-2.31145e-06
-7.09162e-08
-2.28621e-06
-7.44425e-08
-2.25986e-06
-7.79106e-08
-2.2324e-06
-8.13236e-08
-2.20386e-06
-8.46761e-08
-2.17426e-06
-8.79705e-08
-2.14361e-06
-9.12023e-08
-2.11195e-06
-9.43729e-08
-2.07927e-06
-9.74784e-08
-2.04562e-06
-1.00519e-07
-2.011e-06
-1.03492e-07
-1.97544e-06
-1.06396e-07
-1.93897e-06
-1.09226e-07
-1.9016e-06
-1.1198e-07
-1.86335e-06
-1.14656e-07
-1.82426e-06
-1.17249e-07
-1.78435e-06
-1.19757e-07
-1.74363e-06
-1.22175e-07
-1.70212e-06
-1.24508e-07
-1.65984e-06
-1.26759e-07
-1.61681e-06
-1.28938e-07
-1.5731e-06
-1.31067e-07
-1.52875e-06
-1.33126e-07
-1.48376e-06
-1.35091e-07
-1.43817e-06
-1.36962e-07
-1.39199e-06
-1.38736e-07
-1.34525e-06
-1.40414e-07
-1.29799e-06
-1.41998e-07
-1.25023e-06
-1.43489e-07
-1.20199e-06
-1.4489e-07
-1.15329e-06
-1.46202e-07
-1.10418e-06
-1.47433e-07
-1.05467e-06
-1.48593e-07
-1.00481e-06
-1.49687e-07
-9.546e-07
-1.50716e-07
-9.04077e-07
-1.51668e-07
-8.53264e-07
-1.52539e-07
-8.02188e-07
-1.53326e-07
-7.50874e-07
-1.54032e-07
-6.99347e-07
-1.54672e-07
-6.47623e-07
-1.55255e-07
-5.95718e-07
-1.55798e-07
-5.4364e-07
-1.56312e-07
-4.91394e-07
-1.56814e-07
-4.38981e-07
-1.5731e-07
-3.86403e-07
-1.57806e-07
-3.33657e-07
-1.58299e-07
-2.80747e-07
-1.58784e-07
-2.27674e-07
-1.5926e-07
-1.74438e-07
-1.59732e-07
-1.2104e-07
-1.60205e-07
-6.7474e-08
-1.6069e-07
-1.37353e-08
-1.6119e-07
4.0179e-08
-1.61701e-07
9.42666e-08
-1.622e-07
1.48514e-07
-1.62637e-07
2.02879e-07
-1.6293e-07
2.57282e-07
-1.6294e-07
3.1159e-07
-1.62436e-07
3.656e-07
-1.6102e-07
4.18963e-07
-1.58011e-07
4.71256e-07
-1.52295e-07
5.21529e-07
-1.41575e-07
-1.16116e-07
5.73239e-07
-1.72071e-10
1.14253e-08
1.31354e-08
3.29623e-09
5.36599e-08
-3.72062e-08
1.16486e-07
-9.1141e-08
1.84109e-07
-1.36163e-07
2.42265e-07
-1.62471e-07
2.85384e-07
-1.70931e-07
3.14398e-07
-1.6683e-07
3.32963e-07
-1.55412e-07
3.44751e-07
-1.40278e-07
3.52473e-07
-1.23454e-07
3.57715e-07
-1.05967e-07
3.61308e-07
-8.83321e-08
3.63579e-07
-7.08177e-08
3.64666e-07
-5.3577e-08
3.64578e-07
-3.67108e-08
3.63354e-07
-2.02922e-08
3.61012e-07
-4.38357e-09
3.57643e-07
1.09598e-08
3.53371e-07
2.57123e-08
3.48431e-07
3.98504e-08
3.43048e-07
5.33386e-08
3.37412e-07
6.61072e-08
3.31525e-07
7.79929e-08
3.25154e-07
8.86722e-08
3.17768e-07
9.75766e-08
3.08638e-07
1.03862e-07
2.97022e-07
1.06409e-07
2.82525e-07
1.04011e-07
2.65293e-07
9.56989e-08
2.46258e-07
8.08439e-08
2.26777e-07
5.97409e-08
2.07503e-07
3.4517e-08
1.85133e-07
1.15666e-08
1.52571e-07
1.34816e-10
1.0676e-07
4.05581e-09
4.88712e-08
2.1914e-08
-2.17906e-08
5.1965e-08
-1.08024e-07
9.15682e-08
-2.10983e-07
1.37602e-07
-3.29578e-07
1.86923e-07
-4.6168e-07
2.36661e-07
-6.02562e-07
2.84848e-07
-7.45753e-07
3.29897e-07
-8.8512e-07
3.69854e-07
-1.01518e-06
4.02156e-07
-1.13174e-06
4.25518e-07
-1.23314e-06
4.40213e-07
-1.31883e-06
4.46481e-07
-1.38947e-06
4.45112e-07
-1.44686e-06
4.3723e-07
-1.49327e-06
4.2397e-07
-1.53128e-06
4.06576e-07
-1.56348e-06
3.86254e-07
-1.59224e-06
3.6416e-07
-1.6194e-06
3.41328e-07
-1.64621e-06
3.18596e-07
-1.67334e-06
2.96625e-07
-1.70109e-06
2.75859e-07
-1.72956e-06
2.56543e-07
-1.75862e-06
2.38818e-07
-1.78809e-06
2.22723e-07
-1.81774e-06
2.08212e-07
-1.84732e-06
1.95187e-07
-1.87665e-06
1.83504e-07
-1.90556e-06
1.73013e-07
-1.93394e-06
1.6356e-07
-1.96168e-06
1.54998e-07
-1.98871e-06
1.47189e-07
-2.01497e-06
1.40011e-07
-2.04043e-06
1.33358e-07
-2.06503e-06
1.27138e-07
-2.08877e-06
1.2127e-07
-2.11162e-06
1.1569e-07
-2.13357e-06
1.10342e-07
-2.15461e-06
1.05182e-07
-2.17473e-06
1.0017e-07
-2.19392e-06
9.52773e-08
-2.21217e-06
9.04773e-08
-2.22948e-06
8.57492e-08
-2.24583e-06
8.10748e-08
-2.26123e-06
7.6439e-08
-2.27566e-06
7.18287e-08
-2.28911e-06
6.72329e-08
-2.30159e-06
6.26423e-08
-2.31307e-06
5.80482e-08
-2.32356e-06
5.34437e-08
-2.33304e-06
4.88208e-08
-2.34147e-06
4.41794e-08
-2.34888e-06
3.94947e-08
-2.35525e-06
3.47794e-08
-2.3606e-06
3.00129e-08
-2.36492e-06
2.51968e-08
-2.36818e-06
2.03354e-08
-2.37038e-06
1.54311e-08
-2.3715e-06
1.04964e-08
-2.3715e-06
5.53424e-09
-2.37037e-06
5.58032e-10
-2.36807e-06
-4.43806e-09
-2.36458e-06
-9.45596e-09
-2.35987e-06
-1.45136e-08
-2.35396e-06
-1.96045e-08
-2.34682e-06
-2.4724e-08
-2.33846e-06
-2.98573e-08
-2.32887e-06
-3.50004e-08
-2.31805e-06
-4.01419e-08
-2.306e-06
-4.52766e-08
-2.29273e-06
-5.0396e-08
-2.27825e-06
-5.5493e-08
-2.26256e-06
-6.05622e-08
-2.24566e-06
-6.55945e-08
-2.22758e-06
-7.05875e-08
-2.20832e-06
-7.55302e-08
-2.18789e-06
-8.04232e-08
-2.16631e-06
-8.52537e-08
-2.14359e-06
-9.00253e-08
-2.11976e-06
-9.47244e-08
-2.09482e-06
-9.93581e-08