/*--------------------------------*- C++ -*----------------------------------*\
| =========                 |                                                 |
| \\      /  F ield         | OpenFOAM: The Open Source CFD Toolbox           |
|  \\    /   O peration     | Version:  v2012                                 |
|   \\  /    A nd           | Website:  www.openfoam.com                      |
|    \\/     M anipulation  |                                                 |
\*---------------------------------------------------------------------------*/
FoamFile
{
    version     2.0;
    format      ascii;
    class       volVectorField;
    location    "1900";
    object      U;
}
// * * * * * * * * * * * * * * * * * * * * * * * * * * * * * * * * * * * * * //

dimensions      [0 1 -1 0 0 0 0];


internalField   nonuniform List<vector> 
12225
(
(9.76986 0.0437169 0)
(9.33433 0.0792576 0)
(8.91221 0.0854408 0)
(8.51578 0.0821802 0)
(8.16115 0.0753945 0)
(7.85089 0.0669892 0)
(7.58053 0.0581066 0)
(7.34635 0.0494513 0)
(7.14472 0.0417095 0)
(6.97001 0.0352411 0)
(6.81765 0.0298055 0)
(6.68574 0.0251316 0)
(6.57132 0.0209511 0)
(6.47362 0.0171304 0)
(6.391 0.0134245 0)
(6.32364 0.00939189 0)
(6.27429 0.00515012 0)
(6.23832 -0.00652952 0)
(10.0798 0.0579766 0)
(10.2241 0.0918843 0)
(10.3011 0.0914474 0)
(10.3234 0.0881976 0)
(10.3131 0.0856254 0)
(10.2804 0.0823077 0)
(10.2307 0.0782146 0)
(10.1686 0.0738276 0)
(10.099 0.0694053 0)
(10.0263 0.0651322 0)
(9.95378 0.0611206 0)
(9.88209 0.0571761 0)
(9.81279 0.0531955 0)
(9.74606 0.0490265 0)
(9.68319 0.044498 0)
(9.62391 0.039064 0)
(9.57023 0.0319634 0)
(9.51615 0.0197778 0)
(10.0184 0.0424232 0)
(10.0768 0.0652586 0)
(10.1249 0.068127 0)
(10.1602 0.0722019 0)
(10.1894 0.0762644 0)
(10.214 0.0779876 0)
(10.2326 0.0776746 0)
(10.245 0.0762326 0)
(10.2518 0.0741932 0)
(10.2543 0.0718303 0)
(10.2534 0.0691437 0)
(10.2498 0.0661459 0)
(10.244 0.0628242 0)
(10.2367 0.0591105 0)
(10.2283 0.0548151 0)
(10.219 0.0493775 0)
(10.209 0.0423458 0)
(10.1953 0.0312492 0)
(10.0081 0.0307311 0)
(10.0421 0.055242 0)
(10.0729 0.0623984 0)
(10.0952 0.0674275 0)
(10.1144 0.0710284 0)
(10.1326 0.0723163 0)
(10.1491 0.0719338 0)
(10.1633 0.0707329 0)
(10.1755 0.0690956 0)
(10.186 0.0671465 0)
(10.1951 0.0649162 0)
(10.203 0.0624187 0)
(10.2099 0.0596037 0)
(10.2159 0.0563682 0)
(10.2212 0.0525104 0)
(10.2256 0.0476276 0)
(10.2288 0.0414582 0)
(10.2297 0.0333886 0)
(10.0047 0.0237617 0)
(10.0289 0.0486359 0)
(10.0532 0.0572533 0)
(10.071 0.0620866 0)
(10.0862 0.0655176 0)
(10.1008 0.0670602 0)
(10.1144 0.0670962 0)
(10.1265 0.0662807 0)
(10.1374 0.0649668 0)
(10.1473 0.0632851 0)
(10.1564 0.061292 0)
(10.1648 0.0589866 0)
(10.1727 0.0563207 0)
(10.18 0.0531983 0)
(10.1868 0.0494716 0)
(10.1928 0.0449019 0)
(10.1979 0.0394036 0)
(10.2013 0.0329718 0)
(10.0031 0.0188998 0)
(10.021 0.0420203 0)
(10.0412 0.0514133 0)
(10.0569 0.0565813 0)
(10.0704 0.0602804 0)
(10.0833 0.0621882 0)
(10.0955 0.0625588 0)
(10.1064 0.0619913 0)
(10.1164 0.0608654 0)
(10.1255 0.0593272 0)
(10.1341 0.0574393 0)
(10.1421 0.0552057 0)
(10.1497 0.052599 0)
(10.1567 0.0495482 0)
(10.1633 0.0459595 0)
(10.1693 0.0417082 0)
(10.1743 0.0367992 0)
(10.1781 0.0313822 0)
(10.0021 0.0151827 0)
(10.0155 0.0358959 0)
(10.0323 0.0457108 0)
(10.0465 0.0512169 0)
(10.0589 0.0550664 0)
(10.0707 0.0571952 0)
(10.0819 0.0578164 0)
(10.0922 0.0574656 0)
(10.1015 0.0565144 0)
(10.1102 0.055112 0)
(10.1183 0.0533263 0)
(10.126 0.0511751 0)
(10.1332 0.0486508 0)
(10.1399 0.0457096 0)
(10.1461 0.0423036 0)
(10.1517 0.0383852 0)
(10.1565 0.0340093 0)
(10.1602 0.0293635 0)
(10.0015 0.012561 0)
(10.0121 0.0312202 0)
(10.0264 0.041124 0)
(10.0394 0.0467627 0)
(10.0509 0.0506148 0)
(10.062 0.0528404 0)
(10.0725 0.0536264 0)
(10.0823 0.0534409 0)
(10.0913 0.0526284 0)
(10.0996 0.0513373 0)
(10.1075 0.0496411 0)
(10.1148 0.0475699 0)
(10.1217 0.0451321 0)
(10.1281 0.0423081 0)
(10.1341 0.0390825 0)
(10.1394 0.0354528 0)
(10.1439 0.0314952 0)
(10.1476 0.0273814 0)
(10.0012 0.010605 0)
(10.0097 0.0274102 0)
(10.0221 0.0371419 0)
(10.034 0.042825 0)
(10.0448 0.0466538 0)
(10.0552 0.0489274 0)
(10.0651 0.0498269 0)
(10.0745 0.0497658 0)
(10.0831 0.0490619 0)
(10.0911 0.047864 0)
(10.0987 0.0462487 0)
(10.1058 0.044257 0)
(10.1125 0.0419095 0)
(10.1186 0.0392066 0)
(10.1243 0.0361549 0)
(10.1294 0.0327797 0)
(10.1337 0.0291621 0)
(10.1374 0.0254559 0)
(10.0009 0.00888495 0)
(10.0077 0.0236895 0)
(10.0182 0.0329882 0)
(10.029 0.0386105 0)
(10.039 0.0423617 0)
(10.0487 0.0446416 0)
(10.058 0.0456297 0)
(10.0668 0.0456758 0)
(10.0751 0.0450717 0)
(10.0828 0.0439664 0)
(10.0901 0.0424401 0)
(10.0969 0.0405427 0)
(10.1033 0.0383059 0)
(10.1092 0.0357484 0)
(10.1145 0.0328947 0)
(10.1194 0.0297877 0)
(10.1236 0.0265074 0)
(10.1272 0.0231855 0)
(10.0007 0.00735721 0)
(10.006 0.0200986 0)
(10.0148 0.0287251 0)
(10.0244 0.0341535 0)
(10.0336 0.0377543 0)
(10.0425 0.0399834 0)
(10.0513 0.0410228 0)
(10.0596 0.0411557 0)
(10.0674 0.0406403 0)
(10.0747 0.0396257 0)
(10.0816 0.0381958 0)
(10.0881 0.0364072 0)
(10.0942 0.0343023 0)
(10.0997 0.0319143 0)
(10.1048 0.0292807 0)
(10.1094 0.0264537 0)
(10.1134 0.023506 0)
(10.117 0.0205473 0)
(10.0005 0.00599466 0)
(10.0047 0.0166847 0)
(10.0119 0.0244119 0)
(10.0203 0.029487 0)
(10.0287 0.0328543 0)
(10.0369 0.034965 0)
(10.045 0.0360049 0)
(10.0527 0.036196 0)
(10.0601 0.0357569 0)
(10.067 0.0348313 0)
(10.0735 0.0335058 0)
(10.0796 0.0318421 0)
(10.0853 0.0298901 0)
(10.0906 0.0276936 0)
(10.0954 0.0252974 0)
(10.0997 0.0227564 0)
(10.1036 0.0201331 0)
(10.107 0.0175164 0)
(10.0004 0.00477725 0)
(10.0037 0.0134783 0)
(10.0096 0.0201124 0)
(10.0168 0.0246579 0)
(10.0243 0.0276937 0)
(10.0318 0.0296085 0)
(10.0392 0.030584 0)
(10.0463 0.0307927 0)
(10.0532 0.0304108 0)
(10.0597 0.0295693 0)
(10.0658 0.0283548 0)
(10.0716 0.0268307 0)
(10.0769 0.025051 0)
(10.0819 0.023064 0)
(10.0864 0.020918 0)
(10.0905 0.0186639 0)
(10.0942 0.0163558 0)
(10.0975 0.0140616 0)
(10.0003 0.00367969 0)
(10.0029 0.0104792 0)
(10.0077 0.0158779 0)
(10.0139 0.0197189 0)
(10.0205 0.0223098 0)
(10.0272 0.0239415 0)
(10.034 0.0247769 0)
(10.0406 0.0249499 0)
(10.0469 0.0245958 0)
(10.053 0.0238265 0)
(10.0587 0.022723 0)
(10.0641 0.0213472 0)
(10.0691 0.0197524 0)
(10.0738 0.0179868 0)
(10.078 0.0160968 0)
(10.0819 0.0141279 0)
(10.0854 0.0121229 0)
(10.0886 0.0101372 0)
(10.0003 0.00267405 0)
(10.0023 0.00766069 0)
(10.0063 0.0117318 0)
(10.0115 0.0147119 0)
(10.0173 0.0167351 0)
(10.0233 0.0179893 0)
(10.0294 0.0186031 0)
(10.0355 0.018677 0)
(10.0413 0.0183102 0)
(10.047 0.017591 0)
(10.0523 0.0165891 0)
(10.0574 0.0153606 0)
(10.0621 0.0139532 0)
(10.0664 0.0124115 0)
(10.0705 0.0107753 0)
(10.0742 0.00908385 0)
(10.0775 0.00736919 0)
(10.0806 0.00567622 0)
(10.0002 0.00173062 0)
(10.0019 0.00497145 0)
(10.0052 0.00765441 0)
(10.0097 0.00964228 0)
(10.0148 0.0109746 0)
(10.0202 0.0117526 0)
(10.0257 0.0120603 0)
(10.0312 0.0119666 0)
(10.0366 0.011538 0)
(10.0419 0.0108373 0)
(10.0468 0.00991806 0)
(10.0516 0.00882518 0)
(10.056 0.00759805 0)
(10.0601 0.00627249 0)
(10.0639 0.00488099 0)
(10.0674 0.00345356 0)
(10.0707 0.0020147 0)
(10.0737 0.0005983 0)
(10.0002 0.00081326 0)
(10.0016 0.00233 0)
(10.0045 0.00357235 0)
(10.0084 0.00446029 0)
(10.013 0.0049894 0)
(10.0179 0.00519425 0)
(10.023 0.00511322 0)
(10.0281 0.00478227 0)
(10.0331 0.0042379 0)
(10.038 0.00351667 0)
(10.0426 0.00265185 0)
(10.047 0.00167368 0)
(10.0512 0.000609164 0)
(10.0551 -0.000516333 0)
(10.0588 -0.00168022 0)
(10.0622 -0.00286127 0)
(10.0653 -0.00404306 0)
(10.0682 -0.00520026 0)
(10.0002 -7.49733e-05 0)
(10.0015 -0.000236077 0)
(10.0042 -0.000419561 0)
(10.0079 -0.000649283 0)
(10.0122 -0.000956002 0)
(10.0168 -0.00135907 0)
(10.0216 -0.00186393 0)
(10.0264 -0.00246658 0)
(10.0312 -0.00315848 0)
(10.0358 -0.00392928 0)
(10.0403 -0.00476643 0)
(10.0445 -0.00565683 0)
(10.0485 -0.00658627 0)
(10.0523 -0.00754162 0)
(10.0558 -0.00850935 0)
(10.0591 -0.00947769 0)
(10.0622 -0.0104363 0)
(10.065 -0.0113682 0)
(10.0002 -0.000905917 0)
(10.0016 -0.0026347 0)
(10.0043 -0.00413418 0)
(10.0081 -0.00538127 0)
(10.0124 -0.00644272 0)
(10.017 -0.00739434 0)
(10.0217 -0.00828244 0)
(10.0265 -0.00913135 0)
(10.0311 -0.00995867 0)
(10.0357 -0.0107782 0)
(10.04 -0.0115973 0)
(10.0442 -0.012418 0)
(10.0481 -0.0132386 0)
(10.0518 -0.014056 0)
(10.0553 -0.0148657 0)
(10.0586 -0.0156626 0)
(10.0616 -0.0164422 0)
(10.0644 -0.0171927 0)
(10.0002 -0.00171075 0)
(10.0018 -0.00493977 0)
(10.0048 -0.00763839 0)
(10.0089 -0.00975872 0)
(10.0135 -0.0114445 0)
(10.0182 -0.0128427 0)
(10.023 -0.0140363 0)
(10.0278 -0.0150724 0)
(10.0326 -0.0159947 0)
(10.0371 -0.0168399 0)
(10.0415 -0.0176323 0)
(10.0456 -0.0183861 0)
(10.0495 -0.0191105 0)
(10.0532 -0.0198106 0)
(10.0567 -0.0204893 0)
(10.0599 -0.0211464 0)
(10.063 -0.021782 0)
(10.0658 -0.0223876 0)
(10.0002 -0.00255908 0)
(10.0022 -0.00732359 0)
(10.0058 -0.011138 0)
(10.0104 -0.0139857 0)
(10.0153 -0.0161627 0)
(10.0203 -0.0179081 0)
(10.0254 -0.0193271 0)
(10.0304 -0.0204875 0)
(10.0352 -0.021459 0)
(10.0399 -0.0223 0)
(10.0443 -0.0230485 0)
(10.0485 -0.0237287 0)
(10.0524 -0.0243583 0)
(10.0561 -0.0249502 0)
(10.0596 -0.0255124 0)
(10.0629 -0.0260495 0)
(10.066 -0.0265634 0)
(10.0688 -0.0270494 0)
(10.0003 -0.00352229 0)
(10.0028 -0.00993063 0)
(10.0072 -0.0147668 0)
(10.0126 -0.0181729 0)
(10.018 -0.0207126 0)
(10.0234 -0.0227102 0)
(10.0287 -0.0242755 0)
(10.034 -0.0254952 0)
(10.039 -0.0264707 0)
(10.0438 -0.0272791 0)
(10.0483 -0.0279653 0)
(10.0526 -0.0285618 0)
(10.0566 -0.0290934 0)
(10.0604 -0.0295798 0)
(10.0639 -0.0300339 0)
(10.0673 -0.0304633 0)
(10.0704 -0.0308723 0)
(10.0733 -0.0312568 0)
(10.0004 -0.00469041 0)
(10.0038 -0.0128979 0)
(10.0094 -0.0185993 0)
(10.0157 -0.0223651 0)
(10.0217 -0.0251483 0)
(10.0275 -0.0273161 0)
(10.0332 -0.0289489 0)
(10.0387 -0.0301678 0)
(10.044 -0.0311094 0)
(10.049 -0.0318606 0)
(10.0537 -0.0324701 0)
(10.0581 -0.0329739 0)
(10.0622 -0.0334049 0)
(10.0661 -0.0337879 0)
(10.0697 -0.0341403 0)
(10.0731 -0.0344721 0)
(10.0763 -0.0347889 0)
(10.0793 -0.0350865 0)
(10.0006 -0.00619085 0)
(10.0054 -0.0163506 0)
(10.0125 -0.0226635 0)
(10.0198 -0.0265555 0)
(10.0264 -0.0294829 0)
(10.0327 -0.0317584 0)
(10.0389 -0.033401 0)
(10.0448 -0.0345768 0)
(10.0504 -0.0354572 0)
(10.0557 -0.0361335 0)
(10.0606 -0.0366518 0)
(10.0652 -0.0370538 0)
(10.0696 -0.0373786 0)
(10.0736 -0.0376574 0)
(10.0774 -0.0379117 0)
(10.0809 -0.0381543 0)
(10.0842 -0.038391 0)
(10.0873 -0.0386164 0)
(10.001 -0.00816103 0)
(10.0079 -0.0203809 0)
(10.0169 -0.0270053 0)
(10.0253 -0.0308014 0)
(10.0326 -0.0337684 0)
(10.0396 -0.0360741 0)
(10.0465 -0.0376785 0)
(10.053 -0.038794 0)
(10.059 -0.0396086 0)
(10.0647 -0.0402047 0)
(10.07 -0.0406234 0)
(10.075 -0.0409129 0)
(10.0796 -0.0411183 0)
(10.0839 -0.0412798 0)
(10.0878 -0.0414239 0)
(10.0916 -0.0415688 0)
(10.095 -0.0417203 0)
(10.0983 -0.041866 0)
(10.0015 -0.010819 0)
(10.0115 -0.0249827 0)
(10.0233 -0.0316538 0)
(10.0332 -0.035353 0)
(10.0416 -0.0382869 0)
(10.0497 -0.0404586 0)
(10.0576 -0.0418901 0)
(10.0649 -0.0428731 0)
(10.0717 -0.0435876 0)
(10.0781 -0.0440885 0)
(10.084 -0.0444067 0)
(10.0895 -0.0445905 0)
(10.0945 -0.0446905 0)
(10.0992 -0.0447505 0)
(10.1035 -0.0448047 0)
(10.1074 -0.0448751 0)
(10.1111 -0.0449717 0)
(10.1145 -0.0450686 0)
(10.0028 -0.0151864 0)
(10.0177 -0.0302668 0)
(10.0339 -0.0361026 0)
(10.0467 -0.0399543 0)
(10.0574 -0.0431594 0)
(10.0677 -0.0452733 0)
(10.0776 -0.0464844 0)
(10.0866 -0.0472303 0)
(10.0948 -0.0477136 0)
(10.1023 -0.0479724 0)
(10.1092 -0.0480403 0)
(10.1155 -0.0479745 0)
(10.1212 -0.0478323 0)
(10.1263 -0.0476674 0)
(10.1309 -0.0475223 0)
(10.135 -0.0474238 0)
(10.1388 -0.0473841 0)
(10.1421 -0.0473454 0)
(10.008 -0.022976 0)
(10.0349 -0.0380691 0)
(10.0613 -0.0404578 0)
(10.0814 -0.043238 0)
(10.0984 -0.0467234 0)
(10.1143 -0.0492971 0)
(10.1285 -0.0508972 0)
(10.1408 -0.0519598 0)
(10.1513 -0.0526753 0)
(10.1604 -0.0530533 0)
(10.168 -0.0531379 0)
(10.1743 -0.0529995 0)
(10.1793 -0.0527215 0)
(10.1831 -0.0523782 0)
(10.1858 -0.0520521 0)
(10.1877 -0.0518106 0)
(10.1888 -0.0516687 0)
(10.1893 -0.0516614 0)
(10.0341 -0.0335367 0)
(10.1157 -0.0582897 0)
(10.1718 -0.0600996 0)
(10.2054 -0.0590685 0)
(10.2273 -0.0586058 0)
(10.2409 -0.0579002 0)
(10.2469 -0.056889 0)
(10.2461 -0.0558642 0)
(10.24 -0.0548711 0)
(10.2296 -0.0538172 0)
(10.2157 -0.0526643 0)
(10.199 -0.051432 0)
(10.1801 -0.0501731 0)
(10.1594 -0.0489599 0)
(10.1375 -0.0478617 0)
(10.1149 -0.046986 0)
(10.0924 -0.0463802 0)
(10.0704 -0.0464164 0)
(9.89907 -0.0265745 0)
(9.70005 -0.0519761 0)
(9.49843 -0.059492 0)
(9.29806 -0.0616214 0)
(9.10872 -0.0616454 0)
(8.93414 -0.0600949 0)
(8.77321 -0.0575784 0)
(8.62436 -0.0546431 0)
(8.48694 -0.0515437 0)
(8.36068 -0.0483407 0)
(8.24504 -0.0451041 0)
(8.13934 -0.0419002 0)
(8.04285 -0.0387806 0)
(7.95482 -0.0358005 0)
(7.87445 -0.0330819 0)
(7.80036 -0.0308108 0)
(7.73116 -0.0290133 0)
(7.66665 -0.0279895 0)
(-0.00345668 0.00961175 0)
(-0.0160863 0.0157207 0)
(-0.0331383 0.0170661 0)
(-0.0518935 0.014572 0)
(-0.0682902 0.0074329 0)
(-0.0736282 -0.00388613 0)
(-0.0594747 -0.0186873 -6.61282e-19)
(-0.0303666 -0.0356961 7.81933e-19)
(0.0103993 -0.0500787 0)
(0.0587948 -0.0583762 5.54346e-19)
(0.11194 -0.0608045 0)
(0.166137 -0.0590096 0)
(0.21755 -0.0542622 0)
(0.263743 -0.0475881 -2.25992e-19)
(0.303454 -0.0397628 0)
(0.336097 -0.03132 0)
(0.36139 -0.0225691 1.80835e-19)
(0.379176 -0.0136298 0)
(0.389361 -0.00440781 0)
(0.391765 0.00532449 0)
(0.385173 0.0154772 -1.75096e-19)
(0.370092 0.0255109 0)
(0.346924 0.0346592 -1.88931e-19)
(0.316137 0.0421206 0)
(0.278562 0.0471218 0)
(0.23553 0.0488927 -2.53874e-19)
(0.188907 0.0467656 0)
(0.141075 0.0403655 3.66631e-19)
(0.0948649 0.0298492 0)
(0.0534436 0.0163594 -6.4696e-19)
(0.0200966 0.00279455 0)
(-0.00288951 -0.00621961 0)
(-0.0174906 -0.00807302 0)
(-0.0265649 -0.00494767 0)
(-0.0321084 -0.000400591 0)
(-0.0364905 0.00253212 9.47316e-19)
(-0.0407467 0.00232584 0)
(-0.0421834 -0.00138106 -1.84019e-18)
(-0.0357886 -0.00819756 0)
(-0.0193207 -0.017066 2.11903e-18)
(0.00672302 -0.0260667 0)
(0.0397133 -0.0321343 0)
(0.0752024 -0.0328814 -1.09767e-18)
(0.108199 -0.0285953 0)
(0.134186 -0.0210409 -8.04469e-19)
(0.150599 -0.0123449 7.63993e-19)
(0.157289 -0.00416322 0)
(0.155196 0.00162989 7.66308e-19)
(0.148685 0.00366344 7.89463e-19)
(0.142281 0.00342771 0)
(0.139172 0.00129142 0)
(0.146757 -0.010002 0)
(0.15669 -0.0269988 0)
(0.160188 -0.0452833 0)
(0.141929 -0.0518225 -7.73296e-19)
(0.0958972 -0.0346846 0)
(0.0112898 0.00636075 9.24862e-19)
(-0.126089 0.0541877 0)
(-0.280779 0.0897881 0)
(-0.449032 0.114237 -2.49458e-19)
(-0.623941 0.128498 0)
(-0.798505 0.133772 1.60394e-19)
(-0.967292 0.131481 0)
(-1.12631 0.124203 0)
(-1.27306 0.114284 0)
(-1.40654 0.103211 -1.04461e-19)
(-1.52669 0.0921157 0)
(-1.63439 0.0816447 0)
(-1.73061 0.0721482 -8.96907e-20)
(-1.81662 0.0637832 0)
(-1.89371 0.0565494 -8.39789e-20)
(-1.9631 0.0503722 0)
(-2.02589 0.0451272 0)
(-2.08305 0.0406822 0)
(-2.13539 0.036907 7.66787e-20)
(-2.1836 0.0336815 0)
(-2.22822 0.0309034 0)
(-2.26973 0.0284881 7.28791e-20)
(-2.30848 0.0263654 7.17771e-20)
(-2.34477 0.0244776 0)
(-2.37883 0.0227791 6.9734e-20)
(-2.41087 0.0212337 0)
(-2.44101 0.0198121 1.35688e-19)
(-2.4694 0.0184915 0)
(-2.49612 0.0172528 1.32113e-19)
(-2.52126 0.0160809 0)
(-2.54487 0.0149626 -1.28672e-19)
(-2.56701 0.0138866 0)
(-2.5877 0.0128424 0)
(-2.60697 0.0118209 0)
(-2.62484 0.0108114 1.21999e-19)
(-2.64132 0.00980524 0)
(-2.6564 0.00879227 -1.18701e-19)
(-2.67007 0.00776298 0)
(-2.68231 0.00670881 1.15399e-19)
(-2.69308 0.00562316 1.13743e-19)
(-2.70233 0.0045052 1.12082e-19)
(-2.71001 0.00336561 0)
(-2.71608 0.00224365 0)
(-2.72045 0.00121507 0)
(-2.72308 0.000354102 0)
(-2.72428 -0.000361315 0)
(-2.72425 -0.00101694 0)
(-2.72299 -0.00165495 0)
(-2.7205 -0.00228267 0)
(-2.71679 -0.00290389 -9.6203e-20)
(-2.71185 -0.00351889 -9.42525e-20)
(-2.70569 -0.00412773 0)
(-2.69829 -0.00473019 0)
(-2.68966 -0.00532578 0)
(-2.67979 -0.00591432 -8.59846e-20)
(-2.66869 -0.00649517 0)
(-2.65635 -0.00706827 0)
(-2.64278 -0.00763289 0)
(-2.62798 -0.00818908 0)
(-2.61195 -0.00873609 7.44625e-20)
(-2.59471 -0.00927403 0)
(-2.57625 -0.00980219 0)
(-2.55659 -0.0103207 -6.68233e-20)
(-2.53573 -0.0108287 6.41434e-20)
(-2.51369 -0.0113261 0)
(-2.49048 -0.0118117 5.85696e-20)
(-2.4661 -0.0122842 0)
(-2.44059 -0.0127401 -5.2694e-20)
(-2.41394 -0.0131735 0)
(-2.38619 -0.0135721 0)
(-2.35735 -0.0139102 0)
(-2.32747 -0.0141603 0)
(-2.29658 -0.0142745 0)
(-2.26475 -0.0142299 6.60638e-20)
(-2.23194 -0.0143334 5.88759e-20)
(-2.1981 -0.0146718 0)
(-2.16327 -0.0150064 0)
(-2.12749 -0.0153205 0)
(-2.09078 -0.0156217 -2.79429e-20)
(-2.05318 -0.0159096 0)
(-2.01473 -0.0161848 0)
(-1.97543 -0.0164487 0)
(-1.93533 -0.0167009 7.09051e-21)
(-1.89445 -0.0169422 -1.65835e-20)
(-1.85282 -0.0171726 0)
(-1.81046 -0.0173929 0)
(-1.76742 -0.0176032 -4.70756e-20)
(-1.72371 -0.0178047 -5.79724e-20)
(-1.67936 -0.017998 0)
(-1.6344 -0.0181839 0)
(-1.58884 -0.0183636 9.31664e-20)
(-1.54274 -0.0185331 -1.05823e-19)
(-1.49609 -0.0187002 0)
(-1.44895 -0.0188547 0)
(-1.4013 -0.0190077 -1.46961e-19)
(-1.35323 -0.0191485 0)
(-1.30471 -0.0192892 0)
(-1.25583 -0.0194194 -1.93735e-19)
(-1.20655 -0.0195537 0)
(-1.15696 -0.0196817 -2.28654e-19)
(-1.10701 -0.0198192 0)
(-1.05677 -0.019955 0)
(-1.0062 -0.0201044 0)
(-0.955345 -0.0202582 3.0984e-19)
(-0.904165 -0.020424 0)
(-0.852688 -0.0206021 0)
(-0.800901 -0.0207898 0)
(-0.748811 -0.0209903 0)
(-0.696418 -0.0212053 0)
(-0.643722 -0.0214383 0)
(-0.590715 -0.0216927 5.06947e-19)
(-0.537386 -0.0219722 5.4369e-19)
(-0.483721 -0.022279 0)
(-0.429705 -0.0226133 0)
(-0.375331 -0.0229721 0)
(-0.32061 -0.0233481 -7.25374e-19)
(-0.265582 -0.0237364 0)
(-0.210329 -0.0241399 1.69101e-18)
(-0.15502 -0.0245024 -1.83195e-18)
(-0.0999635 -0.0246967 -1.99014e-18)
(-0.0455819 -0.0245582 2.16842e-18)
(0.00513423 -0.0233245 -2.27597e-18)
(0.0621847 -0.0210908 2.24675e-18)
(0.0754073 -0.00992417 0)
(4.1012e-06 0.0254464 0)
(-0.00673273 0.0445537 0)
(-0.015473 0.0475122 1.97089e-18)
(-0.0198261 0.0398265 0)
(-0.00975197 0.0192327 -2.33519e-18)
(0.0216759 -0.0193806 -1.63722e-18)
(0.0638849 -0.0701018 -4.68971e-19)
(0.114306 -0.116092 -3.15742e-19)
(0.168668 -0.148126 0)
(0.222803 -0.164044 -1.93512e-19)
(0.273639 -0.165821 0)
(0.31934 -0.157415 0)
(0.359257 -0.142694 2.71727e-19)
(0.393369 -0.124396 1.2735e-19)
(0.421811 -0.104394 -2.44666e-19)
(0.444869 -0.0838464 -2.38077e-19)
(0.462899 -0.0633516 -1.17079e-19)
(0.476257 -0.0431605 0)
(0.485261 -0.0232544 0)
(0.490461 -0.00345666 0)
(0.49268 0.0164115 -1.20659e-19)
(0.491506 0.036214 0)
(0.48639 0.0556137 3.72173e-19)
(0.476603 0.0741778 0)
(0.461286 0.0911886 0)
(0.439615 0.105626 1.37613e-19)
(0.41096 0.116177 0)
(0.375129 0.121378 -1.5776e-19)
(0.332548 0.119937 -3.49894e-19)
(0.284372 0.111193 1.99741e-19)
(0.232597 0.0956674 0)
(0.180054 0.0753607 0)
(0.130025 0.0530457 0)
(0.0867228 0.0316824 -1.00904e-18)
(0.054342 0.0142161 -1.35851e-18)
(0.0351106 0.00181958 -8.80795e-19)
(0.0286597 -0.00866806 0)
(0.0364071 -0.0215686 1.81882e-18)
(0.0536273 -0.0390814 0)
(0.0792506 -0.0605128 -9.74297e-19)
(0.110583 -0.0794388 0)
(0.141819 -0.0876258 0)
(0.167121 -0.0824774 4.95687e-19)
(0.184268 -0.0669919 0)
(0.192604 -0.0461795 1.37921e-18)
(0.192941 -0.0246146 -4.82607e-19)
(0.186386 -0.0057074 0)
(0.175757 0.00583829 -5.53597e-19)
(0.163232 0.00647058 -6.03445e-19)
(0.147229 -0.00211598 0)
(0.118432 -0.0132084 0)
(0.0591428 -0.0100061 0)
(-0.0635283 0.0350785 0)
(-0.23479 0.10618 0)
(-0.419931 0.174128 2.43141e-19)
(-0.610237 0.235245 3.53584e-19)
(-0.79953 0.28671 -1.3798e-19)
(-0.98417 0.322896 0)
(-1.15741 0.340843 1.97973e-19)
(-1.31637 0.342867 -8.90676e-20)
(-1.45816 0.332479 0)
(-1.58204 0.313138 -7.44486e-20)
(-1.68863 0.288314 0)
(-1.77952 0.260924 0)
(-1.85695 0.233284 -1.31201e-19)
(-1.92327 0.206976 6.31622e-20)
(-1.98066 0.182952 -1.23969e-19)
(-2.03102 0.161629 1.21144e-19)
(-2.07584 0.143069 5.90992e-20)
(-2.11634 0.127134 0)
(-2.15339 0.113561 5.70767e-20)
(-2.18766 0.102044 0)
(-2.2196 0.0922695 0)
(-2.24956 0.0839413 0)
(-2.27777 0.0768001 5.37856e-20)
(-2.30441 0.0706238 0)
(-2.32962 0.0652271 1.04582e-19)
(-2.35348 0.0604596 -1.54788e-19)
(-2.37607 0.0561983 -5.09298e-20)
(-2.39743 0.0523459 0)
(-2.41763 0.0488245 -4.96134e-20)
(-2.43668 0.0455731 0)
(-2.45461 0.0425426 -9.66688e-20)
(-2.47144 0.0396944 0)
(-2.4872 0.0369974 -9.41569e-20)
(-2.50189 0.0344266 1.85721e-19)
(-2.51552 0.0319615 9.16671e-20)
(-2.52809 0.0295846 0)
(-2.53962 0.0272816 0)
(-2.55009 0.0250396 0)
(-2.55952 0.0228471 -8.66789e-20)
(-2.56791 0.0206942 0)
(-2.57525 0.0185716 8.41521e-20)
(-2.58156 0.0164705 0)
(-2.58685 0.0143826 -2.44788e-19)
(-2.59113 0.0122998 -8.02955e-20)
(-2.59444 0.010214 -7.89901e-20)
(-2.59684 0.00812003 0)
(-2.59837 0.00603161 0)
(-2.59915 0.00400082 0)
(-2.59926 0.00210174 0)
(-2.59844 0.000337806 0)
(-2.59647 -0.00135308 -1.41619e-19)
(-2.59334 -0.00300767 -1.38707e-19)
(-2.58902 -0.00463526 0)
(-2.5835 -0.00624061 6.62776e-20)
(-2.57678 -0.00782405 6.47397e-20)
(-2.56885 -0.00938525 0)
(-2.5597 -0.0109232 1.23413e-19)
(-2.54934 -0.0124368 0)
(-2.53776 -0.013925 -5.86e-20)
(-2.52497 -0.0153863 0)
(-2.51096 -0.01682 0)
(-2.49573 -0.0182244 1.06741e-19)
(-2.47929 -0.0195988 0)
(-2.46164 -0.0209417 -4.96364e-20)
(-2.44279 -0.0222526 0)
(-2.42274 -0.02353 0)
(-2.40151 -0.0247734 -4.44664e-20)
(-2.37909 -0.0259814 -4.21079e-20)
(-2.35551 -0.0271538 0)
(-2.33078 -0.0282892 3.86122e-20)
(-2.3049 -0.0293875 0)
(-2.27789 -0.0304479 -3.45267e-20)
(-2.24977 -0.0314706 -6.43274e-20)
(-2.22056 -0.0324564 0)
(-2.19026 -0.0334091 0)
(-2.15889 -0.0343372 0)
(-2.12645 -0.0352489 0)
(-2.09295 -0.0361402 -4.14468e-20)
(-2.05841 -0.0369942 -1.11391e-19)
(-2.02289 -0.0377848 0)
(-1.98642 -0.0385093 0)
(-1.94902 -0.0391816 0)
(-1.9107 -0.0398113 1.69946e-20)
(-1.8715 -0.0404015 0)
(-1.83143 -0.0409502 0)
(-1.79052 -0.0414571 -3.87233e-21)
(-1.74881 -0.041924 2.78757e-21)
(-1.70632 -0.0423524 9.7351e-21)
(-1.66308 -0.0427427 0)
(-1.61911 -0.043096 0)
(-1.57445 -0.0434132 2.69601e-20)
(-1.52913 -0.0436959 -3.13966e-20)
(-1.48316 -0.0439454 0)
(-1.43658 -0.0441629 0)
(-1.38942 -0.0443527 -5.14387e-20)
(-1.3417 -0.0445084 1.71963e-19)
(-1.29343 -0.0446423 0)
(-1.24467 -0.0447428 0)
(-1.19541 -0.0448183 7.77987e-20)
(-1.1457 -0.0448606 0)
(-1.09555 -0.0448784 1.81842e-19)
(-1.04502 -0.0448657 -9.72796e-20)
(-0.994095 -0.0448352 0)
(-0.942838 -0.0447827 1.1377e-19)
(-0.891224 -0.0447223 2.41012e-19)
(-0.839311 -0.0446498 0)
(-0.787062 -0.0445773 0)
(-0.734521 -0.0445067 -1.45215e-19)
(-0.681656 -0.0444345 0)
(-0.628486 -0.0443697 3.22075e-19)
(-0.575001 -0.0443044 0)
(-0.521205 -0.0442419 0)
(-0.467099 -0.0441833 0)
(-0.412679 -0.0441323 0)
(-0.35794 -0.0440933 -2.07085e-19)
(-0.302871 -0.0440705 -2.16746e-19)
(-0.247456 -0.0440659 0)
(-0.191683 -0.0440778 0)
(-0.135541 -0.0440994 0)
(-0.0790351 -0.044114 2.57803e-19)
(-0.0221996 -0.0440909 0)
(0.0349033 -0.043974 -5.46941e-19)
(0.0921664 -0.0436917 5.48011e-19)
(0.14932 -0.0431153 5.49155e-19)
(0.206279 -0.0420385 5.47225e-19)
(0.260919 -0.040033 5.53287e-19)
(0.318651 -0.0361339 5.55728e-19)
(0.354001 -0.0242225 0)
(0.000987343 0.0274513 0)
(0.00185508 0.0505502 0)
(0.00603334 0.0480144 -2.14326e-18)
(0.023012 0.0195011 -1.7128e-18)
(0.0621179 -0.0426453 1.03493e-18)
(0.11865 -0.121626 6.31927e-19)
(0.180793 -0.192006 -3.32516e-22)
(0.238954 -0.238928 0)
(0.288714 -0.259942 0)
(0.329211 -0.259745 0)
(0.361451 -0.244967 0)
(0.387081 -0.221495 0)
(0.407634 -0.193739 -6.1821e-19)
(0.424196 -0.164495 0)
(0.437488 -0.135296 1.91966e-19)
(0.447964 -0.106901 1.8881e-19)
(0.455924 -0.0796085 0)
(0.461563 -0.0534712 0)
(0.465057 -0.0284398 0)
(0.466532 -0.00439273 0)
(0.466354 0.0189089 1.94778e-19)
(0.464825 0.0418395 0)
(0.462269 0.0646744 -2.00329e-19)
(0.458857 0.087452 0)
(0.454469 0.109878 0)
(0.448598 0.13126 0)
(0.440333 0.150466 -4.64881e-19)
(0.42838 0.165943 0)
(0.411292 0.175886 2.57734e-19)
(0.387824 0.178567 -5.52574e-19)
(0.357475 0.172799 0)
(0.320982 0.158422 0)
(0.280603 0.136386 0)
(0.240041 0.108565 4.46478e-19)
(0.203676 0.0773775 5.29616e-19)
(0.17557 0.0449369 0)
(0.159007 0.0116633 0)
(0.15418 -0.0232583 -1.4683e-18)
(0.160963 -0.0597111 -1.27292e-18)
(0.174948 -0.0933851 1.03948e-18)
(0.187857 -0.113237 0)
(0.192278 -0.111782 0)
(0.187028 -0.0931087 0)
(0.173302 -0.0644139 0)
(0.152233 -0.0335487 -7.52602e-19)
(0.125226 -0.00628274 -8.30245e-19)
(0.0921985 0.018136 9.68623e-19)
(0.0487771 0.0380647 0)
(-0.0247481 0.0549885 0)
(-0.144837 0.0995704 0)
(-0.302542 0.168617 0)
(-0.483537 0.245891 -3.77343e-19)
(-0.673926 0.323096 0)
(-0.862242 0.39283 0)
(-1.03845 0.448361 -1.93992e-19)
(-1.19738 0.488883 -1.68235e-19)
(-1.33305 0.512729 0)
(-1.44407 0.518779 2.77075e-19)
(-1.53295 0.508276 -1.27222e-19)
(-1.60328 0.484433 1.19542e-19)
(-1.6593 0.451197 0)
(-1.70515 0.412511 0)
(-1.74434 0.37183 0)
(-1.7796 0.331865 0)
(-1.81272 0.294469 9.79419e-20)
(-1.84475 0.260697 1.9199e-19)
(-1.87619 0.230962 9.28799e-20)
(-1.90721 0.205229 -9.07152e-20)
(-1.93776 0.183198 0)
(-1.96775 0.164442 1.74235e-19)
(-1.99704 0.148495 1.70719e-19)
(-2.02552 0.134908 1.67464e-19)
(-2.05308 0.123263 -1.64399e-19)
(-2.07967 0.113201 0)
(-2.10524 0.104428 -2.382e-19)
(-2.12977 0.0966979 0)
(-2.15324 0.0898108 7.67954e-20)
(-2.17565 0.0836039 7.56973e-20)
(-2.19702 0.0779476 0)
(-2.21733 0.0727404 0)
(-2.23661 0.0679011 1.44464e-19)
(-2.25486 0.0633652 0)
(-2.2721 0.0590813 1.40153e-19)
(-2.28832 0.0550081 0)
(-2.30355 0.0511125 -1.35962e-19)
(-2.31778 0.0473672 -2.67897e-19)
(-2.33102 0.0437498 0)
(-2.34328 0.0402414 0)
(-2.35455 0.0368263 0)
(-2.36484 0.0334906 -1.2575e-19)
(-2.37415 0.0302231 0)
(-2.38248 0.0270147 -1.217e-19)
(-2.38983 0.0238587 0)
(-2.39621 0.0207511 0)
(-2.40162 0.0176907 2.31217e-19)
(-2.40606 0.01468 0)
(-2.40955 0.0117251 1.11519e-19)
(-2.41208 0.00883501 0)
(-2.41365 0.00601802 1.07398e-19)
(-2.41422 0.00326917 0)
(-2.41376 0.000556724 0)
(-2.4122 -0.00214561 0)
(-2.40952 -0.00483052 2.95824e-19)
(-2.40571 -0.00748576 9.62767e-20)
(-2.40074 -0.010109 0)
(-2.39462 -0.012699 0)
(-2.38733 -0.0152544 0)
(-2.37886 -0.0177735 0)
(-2.36921 -0.0202544 -8.45903e-20)
(-2.35839 -0.0226951 1.64751e-19)
(-2.34638 -0.0250937 7.97188e-20)
(-2.33318 -0.0274483 -1.54944e-19)
(-2.3188 -0.0297568 -1.49949e-19)
(-2.30323 -0.0320174 -7.21844e-20)
(-2.28649 -0.0342282 0)
(-2.26856 -0.0363875 -1.34584e-19)
(-2.24947 -0.0384934 0)
(-2.2292 -0.0405445 1.24017e-19)
(-2.20778 -0.0425391 5.89916e-20)
(-2.18521 -0.0444757 0)
(-2.1615 -0.0463528 -1.0767e-19)
(-2.13665 -0.0481688 -5.0681e-20)
(-2.11069 -0.0499222 0)
(-2.08362 -0.0516112 -4.57438e-20)
(-2.05546 -0.053234 1.26994e-19)
(-2.02623 -0.0547887 0)
(-1.99593 -0.0562741 0)
(-1.96459 -0.0576904 0)
(-1.93221 -0.0590392 0)
(-1.89881 -0.0603264 5.49378e-20)
(-1.86441 -0.0615646 4.78058e-20)
(-1.82906 -0.0627465 0)
(-1.79278 -0.0638544 0)
(-1.75558 -0.0648872 0)
(-1.71749 -0.0658508 0)
(-1.67852 -0.0667479 0)
(-1.63871 -0.0675772 0)
(-1.59808 -0.0683384 2.41068e-21)
(-1.55665 -0.0690329 -1.05246e-21)
(-1.51446 -0.0696627 0)
(-1.47152 -0.0702289 0)
(-1.42788 -0.0707329 -2.38309e-20)
(-1.38355 -0.0711763 0)
(-1.33857 -0.0715613 3.8954e-20)
(-1.29295 -0.0718901 4.4939e-20)
(-1.24674 -0.0721644 0)
(-1.19995 -0.0723897 0)
(-1.1526 -0.0725628 -6.77364e-20)
(-1.10474 -0.0726909 -1.47823e-19)
(-1.05637 -0.0727709 0)
(-1.00752 -0.0728029 0)
(-0.958209 -0.0727858 0)
(-0.908478 -0.0727202 -1.04994e-19)
(-0.858344 -0.07261 1.12635e-19)
(-0.807839 -0.0724601 0)
(-0.756978 -0.0722788 2.53698e-19)
(-0.705786 -0.0720721 1.33404e-19)
(-0.654267 -0.0718494 -2.8491e-19)
(-0.602439 -0.0716139 0)
(-0.550299 -0.0713788 0)
(-0.49785 -0.0711366 -3.32406e-19)
(-0.445091 -0.0708972 -1.75432e-19)
(-0.392021 -0.0706529 0)
(-0.338639 -0.0704056 0)
(-0.284945 -0.070157 0)
(-0.230937 -0.0699118 0)
(-0.176606 -0.0696752 -4.29778e-19)
(-0.121943 -0.0694519 0)
(-0.0669317 -0.0692442 0)
(-0.0115587 -0.0690486 0)
(0.0441879 -0.0688527 0)
(0.100309 -0.0686324 0)
(0.156789 -0.0683475 0)
(0.213576 -0.0679267 -5.09579e-19)
(0.270588 -0.0672739 0)
(0.327619 -0.0662319 0)
(0.384687 -0.0645504 -1.05943e-18)
(0.440278 -0.0617766 5.35607e-19)
(0.498426 -0.0569646 -5.47237e-19)
(0.543949 -0.0450532 5.5937e-19)
(-0.00124414 0.026766 0)
(0.000569876 0.0396745 4.72612e-18)
(0.0184512 0.00696597 0)
(0.0667632 -0.0788079 9.30254e-19)
(0.135778 -0.183575 0)
(0.206203 -0.27029 0)
(0.264665 -0.321793 -2.9874e-19)
(0.307193 -0.339146 0)
(0.335881 -0.331613 0)
(0.354793 -0.309189 0)
(0.367636 -0.279252 0)
(0.37696 -0.246259 0)
(0.384239 -0.212575 6.9275e-19)
(0.390185 -0.179348 3.36704e-19)
(0.395066 -0.147085 -3.30461e-19)
(0.398932 -0.11599 0)
(0.401752 -0.0861277 0)
(0.403492 -0.0574923 0)
(0.404138 -0.0300478 0)
(0.403702 -0.00373894 0)
(0.402278 0.0215423 3.44359e-19)
(0.399991 0.0459469 3.47348e-19)
(0.397076 0.069636 -3.52781e-19)
(0.393847 0.0927632 3.60762e-19)
(0.390608 0.115379 0)
(0.38755 0.137334 0)
(0.384652 0.1582 4.05494e-19)
(0.381555 0.177151 0)
(0.377465 0.192893 0)
(0.371178 0.203696 4.79609e-19)
(0.361341 0.207576 5.11002e-19)
(0.34693 0.202692 5.48722e-19)
(0.32777 0.187796 0)
(0.304875 0.16262 0)
(0.280402 0.128144 -7.45849e-19)
(0.257415 0.0862562 0)
(0.238917 0.0394434 0)
(0.226585 -0.00986532 1.05416e-18)
(0.219053 -0.0588145 -9.26084e-19)
(0.208498 -0.0940016 7.74621e-19)
(0.188709 -0.102665 0)
(0.158498 -0.0864104 0)
(0.118756 -0.0551758 1.38369e-18)
(0.0702378 -0.0153867 0)
(0.0125804 0.0290373 1.73163e-18)
(-0.0651806 0.0751254 2.3502e-18)
(-0.171063 0.130671 -1.78985e-18)
(-0.302342 0.200225 8.95391e-19)
(-0.458718 0.278589 0)
(-0.631386 0.36235 0)
(-0.807113 0.443965 4.42153e-19)
(-0.974321 0.515661 1.85731e-19)
(-1.12378 0.571243 0)
(-1.25016 0.608283 0)
(-1.35261 0.627493 1.30735e-19)
(-1.43209 0.630796 2.43258e-19)
(-1.49042 0.620139 0)
(-1.53164 0.597539 -2.10887e-19)
(-1.56064 0.565449 2.01565e-19)
(-1.58212 0.526881 -1.91555e-19)
(-1.60004 0.484831 0)