/*--------------------------------*- C++ -*----------------------------------*\
  =========                 |
  \\      /  F ield         | OpenFOAM: The Open Source CFD Toolbox
   \\    /   O peration     | Website:  https://openfoam.org
    \\  /    A nd           | Version:  8
     \\/     M anipulation  |
\*---------------------------------------------------------------------------*/
FoamFile
{
    version     2.0;
    format      ascii;
    class       volScalarField;
    location    "900";
    object      k;
}
// * * * * * * * * * * * * * * * * * * * * * * * * * * * * * * * * * * * * * //

dimensions      [0 2 -2 0 0 0 0];

internalField   nonuniform List<scalar> 
12225
(
1.07336
2.43562
2.74974
3.78417
2.75651
2.98045
2.51125
1.8649
1.4914
2.82507
2.19457
2.04913
1.46417
2.23489
1.86345
1.59079
2.03607
2.60044
0.545628
0.665563
0.662871
0.745896
0.780633
0.820691
0.794473
0.788366
0.765423
0.81705
0.834675
0.855668
0.843768
0.869019
0.885662
0.900082
0.924656
0.955516
0.542444
0.552376
0.553352
0.551187
0.547093
0.544226
0.532456
0.522442
0.511084
0.506163
0.501595
0.497524
0.492913
0.490533
0.488496
0.486145
0.486292
0.488616
0.545449
0.546556
0.544466
0.541022
0.536874
0.531812
0.524861
0.517385
0.509587
0.50215
0.49539
0.488375
0.482104
0.475578
0.469958
0.463931
0.458915
0.453958
0.547461
0.545517
0.542971
0.540011
0.536683
0.532762
0.528292
0.523254
0.5182
0.512844
0.507905
0.502614
0.497869
0.492728
0.488245
0.483292
0.47909
0.474399
0.547998
0.545113
0.542427
0.539618
0.536738
0.533552
0.530216
0.526546
0.522905
0.51904
0.515382
0.511528
0.507957
0.504178
0.500749
0.49706
0.493804
0.490217
0.548209
0.545011
0.54212
0.539301
0.536578
0.533767
0.530965
0.528022
0.525119
0.522114
0.519217
0.516242
0.513414
0.510505
0.507779
0.504942
0.502346
0.499574
0.548268
0.54499
0.54198
0.539106
0.536389
0.533707
0.531103
0.528471
0.525898
0.5233
0.520782
0.518247
0.515812
0.513356
0.51102
0.508641
0.506421
0.504109
0.548285
0.544986
0.541911
0.53899
0.536245
0.5336
0.531071
0.52859
0.526189
0.523815
0.521518
0.519243
0.517052
0.514875
0.51279
0.510702
0.508731
0.506718
0.548288
0.544976
0.541864
0.538912
0.536132
0.533485
0.530974
0.528558
0.526244
0.523998
0.521837
0.519731
0.517705
0.515721
0.513819
0.511942
0.510157
0.508371
0.548284
0.544968
0.541836
0.538866
0.536058
0.533395
0.530873
0.528469
0.526181
0.523987
0.52189
0.519871
0.517938
0.516069
0.514278
0.512537
0.510875
0.509246
0.548282
0.54496
0.541816
0.538835
0.536011
0.533333
0.530794
0.528382
0.526089
0.523905
0.521824
0.519835
0.517937
0.516117
0.514379
0.512708
0.51111
0.509568
0.54828
0.544953
0.541801
0.538812
0.535979
0.533291
0.53074
0.528316
0.526012
0.52382
0.521735
0.519747
0.517853
0.516046
0.514321
0.512673
0.511098
0.50959
0.548279
0.544948
0.54179
0.538796
0.535956
0.533261
0.530701
0.528269
0.525956
0.523756
0.521662
0.519668
0.517768
0.515957
0.51423
0.512582
0.511009
0.509508
0.548278
0.544944
0.541783
0.538784
0.53594
0.533239
0.530673
0.528235
0.525916
0.523709
0.521609
0.519608
0.517702
0.515885
0.514153
0.5125
0.510923
0.509418
0.548277
0.544942
0.541778
0.538777
0.535928
0.533224
0.530654
0.528211
0.525888
0.523677
0.521572
0.519567
0.517656
0.515834
0.514097
0.51244
0.510858
0.509349
0.548277
0.544941
0.541775
0.538772
0.535921
0.533214
0.530642
0.528197
0.52587
0.523656
0.521548
0.51954
0.517626
0.515801
0.514061
0.512401
0.510816
0.509304
0.548277
0.54494
0.541775
0.53877
0.53592
0.533211
0.530638
0.528191
0.525864
0.523648
0.521539
0.519529
0.517614
0.515788
0.514046
0.512384
0.510799
0.509285
0.548277
0.544941
0.541775
0.538773
0.535922
0.533215
0.530641
0.528196
0.525868
0.523653
0.521543
0.519535
0.517619
0.515793
0.514051
0.51239
0.510803
0.509289
0.548278
0.544942
0.541779
0.538778
0.535929
0.533223
0.530652
0.528207
0.525882
0.523668
0.521561
0.519552
0.517638
0.515813
0.514071
0.512408
0.51082
0.509302
0.548279
0.544945
0.541784
0.538786
0.535941
0.533238
0.530668
0.528225
0.525901
0.52369
0.521585
0.519578
0.517663
0.515834
0.514084
0.512409
0.510804
0.509268
0.54828
0.544949
0.541793
0.538801
0.535959
0.533255
0.530681
0.528233
0.525904
0.523693
0.521585
0.519574
0.517643
0.515787
0.513994
0.512262
0.51059
0.508975
0.548282
0.544954
0.541811
0.53883
0.53598
0.533249
0.530635
0.528149
0.525788
0.523555
0.52142
0.51937
0.517374
0.515419
0.513487
0.511581
0.509713
0.507879
0.548284
0.544966
0.541864
0.538884
0.535964
0.533109
0.530343
0.527723
0.525241
0.522923
0.520688
0.518521
0.516343
0.514142
0.511879
0.509573
0.507275
0.504975
0.548287
0.545028
0.542005
0.538965
0.535785
0.532559
0.529392
0.526421
0.523645
0.521108
0.518641
0.516244
0.513711
0.511018
0.50811
0.505036
0.501934
0.498785
0.548352
0.545263
0.542374
0.539112
0.535332
0.531231
0.52721
0.523459
0.520013
0.517013
0.514112
0.511308
0.508119
0.504561
0.500523
0.496101
0.49161
0.487021
0.548806
0.54614
0.543518
0.539967
0.535032
0.529024
0.523305
0.517728
0.512772
0.508611
0.504905
0.501471
0.497406
0.492738
0.487081
0.48063
0.474071
0.467404
0.551161
0.550757
0.549226
0.546433
0.539767
0.53001
0.52162
0.51214
0.504353
0.497378
0.493599
0.489733
0.486598
0.484604
0.479976
0.473303
0.467268
0.460596
0.573428
0.585826
0.601459
0.608844
0.617582
0.618902
0.624254
0.626332
0.625893
0.630381
0.641637
0.652089
0.666054
0.675292
0.687783
0.695512
0.70876
0.716372
1.0196
1.24741
1.43138
1.53481
1.59022
1.59326
1.58502
1.56428
1.5334
1.50098
1.46966
1.44018
1.41331
1.38862
1.36637
1.34605
1.32776
1.31141
1.91839e-08
4.70949e-07
2.40387e-06
9.49334e-06
3.17331e-05
9.67118e-05
0.000251776
0.00050059
0.000810266
0.00113781
0.00143148
0.00166159
0.00181576
0.00187793
0.00185611
0.00178531
0.00164671
0.00141561
0.00120843
0.00102983
0.000860029
0.000694519
0.000534078
0.000384994
0.000251636
0.000147748
7.84965e-05
3.94379e-05
2e-05
1.08902e-05
6.61915e-06
5.05095e-06
5.58365e-06
1.20866e-05
2.65494e-05
0.000149159
0.000341698
0.000750558
0.00111936
0.00119239
0.00109055
0.000869317
0.000730698
0.000740233
0.000840009
0.00115509
0.0015919
0.00329152
0.00761752
0.0240218
0.0599865
0.101865
0.123313
0.133317
0.132764
0.135515
0.119173
0.143967
0.15063
0.1361
0.143567
0.159418
0.170039
0.178044
0.188047
0.196457
0.20531
0.21358
0.221967
0.229952
0.238019
0.245795
0.253596
0.261203
0.268792
0.276242
0.283654
0.290951
0.298203
0.305348
0.312443
0.319432
0.326365
0.33319
0.33995
0.346602
0.353177
0.359643
0.366013
0.372266
0.378401
0.384406
0.390277
0.395992
0.401545
0.406919
0.412109
0.417117
0.421952
0.426658
0.431306
0.435754
0.440063
0.44422
0.448215
0.452057
0.455726
0.459234
0.462563
0.465722
0.468698
0.471497
0.47411
0.47654
0.478782
0.480837
0.482705
0.484382
0.485873
0.487171
0.488285
0.489207
0.489945
0.490491
0.490854
0.491024
0.491014
0.490919
0.490699
0.49009
0.489529
0.488642
0.487745
0.486736
0.485615
0.484301
0.482693
0.480967
0.479073
0.47705
0.474886
0.472596
0.470178
0.467654
0.465031
0.462287
0.459488
0.456534
0.453551
0.450438
0.447257
0.444061
0.440684
0.437366
0.43386
0.430456
0.426872
0.423356
0.419779
0.41621
0.412636
0.409067
0.405509
0.401965
0.398444
0.394953
0.391502
0.3881
0.384757
0.381476
0.378261
0.375108
0.372001
0.368909
0.365783
0.362553
0.359086
0.355024
0.349778
0.33287
8.03845e-08
2.25154e-06
1.5308e-05
6.73574e-05
0.00025062
0.000765899
0.00177674
0.00323452
0.0049257
0.00666497
0.00825322
0.00956347
0.0105243
0.0111489
0.0114264
0.0113896
0.0112035
0.0108526
0.0102474
0.00941177
0.00834941
0.00711385
0.00575574
0.00438447
0.00304398
0.0020167
0.00128033
0.000792746
0.00048181
0.000296154
0.000190438
0.000142786
0.000107726
0.000184626
0.000250942
0.00156498
0.00350666
0.00714825
0.0102558
0.011847
0.0117786
0.0113474
0.0114732
0.0132575
0.0176535
0.02384
0.0351831
0.0543666
0.0806694
0.106073
0.131109
0.150849
0.166026
0.179277
0.192618
0.209069
0.224958
0.244881
0.263794
0.28281
0.303612
0.324978
0.345509
0.365444
0.385509
0.404949
0.424274
0.443225
0.462016
0.480547
0.498944
0.517161
0.535271
0.553255
0.571152
0.588951
0.606675
0.624313
0.64188
0.659361
0.676768
0.694081
0.711312
0.728439
0.745472
0.762389
0.779197
0.795879
0.812432
0.828838
0.845083
0.86116
0.877048
0.892719
0.908146
0.923295
0.938137
0.952632
0.966744
0.980427
0.993665
1.0067
1.01943
1.03189
1.04403
1.05587
1.06739
1.07856
1.08939
1.09985
1.10994
1.11964
1.12895
1.13785
1.14635
1.15442
1.16206
1.16928
1.17605
1.18238
1.18826
1.19369
1.19867
1.20319
1.20726
1.21087
1.21403
1.21674
1.219
1.22081
1.22219
1.22295
1.22351
1.22372
1.22374
1.22339
1.22284
1.22191
1.22057
1.21884
1.21672
1.21422
1.21135
1.20812
1.20455
1.20067
1.19642
1.19189
1.187
1.18183
1.17643
1.17064
1.16465
1.15831
1.15179
1.14498
1.138
1.13081
1.12346
1.11597
1.10835
1.10063
1.09281
1.0849
1.07692
1.06889
1.06083
1.05275
1.0447
1.03667
1.02867
1.02071
1.01276
1.00478
0.996699
0.988421
0.979697
0.970203
0.958064
0.929762
2.2156e-07
6.65212e-06
5.1003e-05
0.000246835
0.000731861
0.00208444
0.00421838
0.00669813
0.00917896
0.0114275
0.0133034
0.0147496
0.0157632
0.0163735
0.0166313
0.0165955
0.0164067
0.0160396
0.015489
0.0148008
0.0139695
0.0129864
0.0118329
0.010509
0.00903494
0.00735338
0.00561995
0.00406965
0.00273709
0.00182528
0.00125692
0.000951038
0.000722182
0.00106465
0.00178169
0.00672565
0.0145498
0.0228704
0.0290188
0.0325708
0.0340945
0.037147
0.0457137
0.0628442
0.0812087
0.100359
0.121939
0.143681
0.16429
0.186152
0.207871
0.23035
0.254126
0.279948
0.307853
0.336905
0.366393
0.396447
0.426198
0.455802
0.485093
0.513723
0.541584
0.568749
0.595363
0.621397
0.646968
0.672134
0.696964
0.721503
0.745808
0.769909
0.79384
0.817619
0.841266
0.864788
0.888195
0.911485
0.934663
0.957721
0.980659
1.00347
1.02614
1.04867
1.07106
1.09328
1.11533
1.13721
1.15889
1.18037
1.20163
1.22267
1.24346
1.26401
1.28427
1.30424
1.32391
1.34326
1.36229
1.381
1.39938
1.41741
1.43507
1.45234
1.4692
1.48563
1.50162
1.51713
1.53217
1.5467
1.56073
1.57422
1.58716
1.59955
1.61137
1.62262
1.63327
1.64333
1.65279
1.66164
1.66987
1.67749
1.68449
1.69086
1.69662
1.70176
1.70628
1.7102
1.7135
1.71619
1.7183
1.71979
1.72069
1.72107
1.72108
1.72045
1.71932
1.71764
1.71543
1.71267
1.70938
1.70556
1.70124
1.69642
1.69111
1.68534
1.67908
1.67242
1.66527
1.65774
1.64981
1.64142
1.6327
1.62353
1.61408
1.60424
1.59415
1.58376
1.57315
1.56233
1.55133
1.54017
1.52888
1.51746
1.50594
1.49435
1.48271
1.47104
1.45939
1.44777
1.43621
1.4247
1.41324
1.40181
1.39035
1.37879
1.36695
1.35461
1.33987
1.31371
8.24343e-07
2.47845e-05
0.000195048
0.00081311
0.00234152
0.00552894
0.00928011
0.0129261
0.0160898
0.0185946
0.020402
0.0215522
0.0221577
0.022273
0.0221414
0.0217811
0.021203
0.0205078
0.0197259
0.018874
0.0179528
0.0169583
0.0158722
0.014671
0.0133371
0.0118444
0.0102151
0.00851954
0.00691841
0.00537633
0.00422631
0.00315329
0.0033013
0.00512667
0.0123121
0.0273107
0.0415797
0.0528851
0.0616551
0.0702403
0.081285
0.0956469
0.112188
0.128362
0.14521
0.16351
0.184788
0.207205
0.231858
0.258768
0.28754
0.318329
0.350756
0.384555
0.419196
0.454148
0.489143
0.523937
0.558281
0.592154
0.625433
0.658006
0.689946
0.721265
0.752059
0.782372
0.812282
0.841847
0.871124
0.900159
0.928994
0.957657
0.986175
1.01456
1.04283
1.07099
1.09903
1.12696
1.15478
1.18246
1.21001
1.23741
1.26466
1.29174
1.31865
1.34536
1.37188
1.39818
1.42425
1.45009
1.47567
1.50099
1.52605
1.55082
1.57528
1.59943
1.62325
1.64673
1.66984
1.69257
1.71491
1.73681
1.75826
1.77923
1.79971
1.81965
1.83905
1.85788
1.87611
1.89374
1.91073
1.92707
1.94274
1.95773
1.97202
1.98561
1.99847
2.0106
2.02199
2.03263
2.04253
2.05166
2.06004
2.06766
2.07453
2.08064
2.08599
2.0906
2.09446
2.09759
2.09998
2.10164
2.10251
2.10279
2.10246
2.10139
2.09964
2.09723
2.09416
2.09043
2.08606
2.08105
2.07542
2.06919
2.06236
2.05496
2.04699
2.03848
2.02944
2.01989
2.00986
1.9993
1.9883
1.97682
1.96494
1.95263
1.93999
1.927
1.91373
1.9002
1.88646
1.87252
1.85841
1.84415
1.82977
1.8153
1.80076
1.7862
1.77164
1.75713
1.74269
1.72833
1.71406
1.69989
1.68579
1.67173
1.65759
1.64323
1.62702
1.60301
2.82194e-06
8.46662e-05
0.000632263
0.00240676
0.00659799
0.0122119
0.0174181
0.0215788
0.0245296
0.0263751
0.0273322
0.0276052
0.0274587
0.0270156
0.0262981
0.0254535
0.0245346
0.0235806
0.022613
0.0216412
0.0206603
0.0196611
0.0186243
0.0175259
0.0163383
0.0150308
0.013602
0.0121001
0.0106347
0.00908629
0.00774396
0.0082221
0.0125568
0.0255511
0.0463304
0.0661159
0.0824944
0.0954408
0.10663
0.117845
0.129923
0.143113
0.157418
0.173892
0.193696
0.216421
0.242089
0.270313
0.300897
0.333415
0.367495
0.402845
0.439095
0.475964
0.51315
0.550433
0.58768
0.624743
0.661505
0.69792
0.733912
0.769434
0.80452
0.839182
0.873468
0.907418
0.941081
0.974499
1.00772
1.04077
1.07368
1.10648
1.13918
1.17179
1.20431
1.23675
1.2691
1.30134
1.33348
1.36549
1.39736
1.42908
1.46064
1.492
1.52318
1.55413
1.58487
1.61536
1.64559
1.67555
1.70523
1.73461
1.76369
1.79244
1.82085
1.8489
1.87657
1.90384
1.93069
1.95708
1.983
2.00842
2.0333
2.05763
2.08138
2.10451
2.127
2.14882
2.16995
2.19037
2.21004
2.22895
2.24709
2.26442
2.28093
2.29662
2.31145
2.32543
2.33855
2.35079
2.36215
2.37262
2.38221
2.39091
2.39872
2.40564
2.41168
2.41685
2.42114
2.42457
2.42714
2.42882
2.42958
2.42969
2.42898
2.42743
2.42509
2.42196
2.41807
2.41341
2.40801
2.40187
2.39502
2.38746
2.37921
2.3703
2.36074
2.35055
2.33975
2.32836
2.31639
2.30386
2.29079
2.27719
2.26311
2.24856
2.23361
2.21827
2.2026
2.18663
2.17039
2.15394
2.13728
2.12046
2.10349
2.08641
2.06925
2.05206
2.03488
2.01774
2.00069
1.98375
1.96695
1.9503
1.93381
1.9175
1.9013
1.88512
1.8676
1.84442
9.02166e-06
0.000263848
0.00187281
0.00661773
0.0147806
0.0219113
0.026971
0.0300843
0.0317079
0.0323147
0.0322418
0.0317963
0.0309513
0.0299237
0.0287971
0.0276368
0.0264856
0.0253713
0.0243049
0.0232865
0.022305
0.0213449
0.0203796
0.0193786
0.0183057
0.0170954
0.0156884
0.0140591
0.0125029
0.0125732
0.0151905
0.0245095
0.0436592
0.0681808
0.0911803
0.109737
0.123328
0.133472
0.142507
0.152218
0.163515
0.177996
0.195979
0.217344
0.242308
0.270309
0.300832
0.333296
0.367287
0.40248
0.438614
0.475489
0.512938
0.550827
0.589026
0.627434
0.66597
0.704543
0.743065
0.781473
0.819708
0.857737
0.895553
0.933158
0.970566
1.0078
1.04489
1.08187
1.11875
1.15556
1.19233
1.22907
1.26577
1.30245
1.33909
1.37569
1.41223
1.4487
1.48507
1.52134
1.55747
1.59344
1.62924
1.66484
1.70024
1.73539
1.7703
1.80494
1.83928
1.87333
1.90705
1.94044
1.97349
2.00616
2.03845
2.07032
2.10176
2.13273
2.16322
2.19318
2.2226
2.25144
2.27968
2.30729
2.33423
2.36046
2.38597
2.41072
2.43468
2.45782
2.48012
2.50155
2.52208
2.54169
2.56038
2.5781
2.59486
2.61064
2.62542
2.6392
2.65197
2.66373
2.67447
2.68419
2.69289
2.70058
2.70725
2.71292
2.71758
2.72126
2.72396
2.72561
2.72625
2.72612
2.72502
2.72298
2.72003
2.71618
2.71147
2.70589
2.69947
2.69221
2.68415
2.67529
2.66567
2.65528
2.64417
2.63235
2.61984
2.60666
2.59284
2.5784
2.56334
2.54771
2.53152
2.51483
2.49766
2.48007
2.4621
2.44379
2.42518
2.40632
2.38723
2.36795
2.3485
2.32892
2.30925
2.28954
2.26984
2.25019
2.23063
2.21122
2.19197
2.17293
2.15413
2.13562
2.11738
2.09935
2.08037
2.05702
2.9071e-05
0.000794124
0.00508659
0.0154342
0.025155
0.0313428
0.0347371
0.0363317
0.036779
0.0365302
0.0357682
0.0346131
0.0332598
0.0318155
0.0303605
0.0289542
0.0276314
0.0264103
0.0252905
0.0242619
0.0233042
0.0223894
0.0214822
0.0205391
0.0196271
0.0188217
0.018351
0.0187563
0.0213096
0.0280879
0.0422709
0.0646388
0.0891536
0.111894
0.129899
0.142411
0.151146
0.158685
0.167105
0.178764
0.194136
0.213332
0.236321
0.262683
0.291935
0.323312
0.356252
0.390366
0.425425
0.46128
0.497823
0.534985
0.572712
0.610959
0.649673
0.688801
0.728279
0.768029
0.807983
0.848079
0.888263
0.928493
0.968744
1.009
1.04926
1.08954
1.12983
1.17016
1.21054
1.25098
1.29148
1.33206
1.3727
1.4134
1.45413
1.49489
1.53563
1.57634
1.61698
1.65753
1.69795
1.73823
1.77832
1.81821
1.85788
1.89728
1.93642
1.97525
2.01376
2.05193
2.08974
2.12718
2.16422
2.20085
2.23704
2.27276
2.30798
2.34268
2.37682
2.41038
2.44332
2.47561
2.50723
2.53813
2.56829
2.59765
2.6262
2.65389
2.6807
2.70658
2.73152
2.75546
2.77841
2.80031
2.82116
2.84094
2.85961
2.87718
2.89362
2.90893
2.9231
2.93612
2.94799
2.95871
2.96828
2.9767
2.98397
2.99011
2.99511
2.999
3.00178
3.00336
3.00389
3.00346
3.00194
2.99938
2.99579
2.9912
2.98564
2.97912
2.97165
2.96327
2.95398
2.94382
2.9328
2.92094
2.90828
2.89483
2.88062
2.86567
2.85001
2.83366
2.81664
2.79899
2.78073
2.7619
2.74257
2.72276
2.70253
2.68192
2.66098
2.63974
2.61826
2.59655
2.57466
2.55262
2.53048
2.50829
2.4861
2.46396
2.44193
2.42006
2.39839
2.37697
2.35585
2.33512
2.31477
2.29478
2.27411
2.24988
8.77161e-05
0.00218974
0.0120454
0.0258737
0.0342961
0.0387172
0.0407752
0.0413646
0.0410409
0.0400554
0.03859
0.0368761
0.0350535
0.0332338
0.0314967
0.0298961
0.0284567
0.0271844
0.0260666
0.0250843
0.0242096
0.0234109
0.0226087
0.0218767
0.0213969
0.0217594
0.0240436
0.0301531
0.0424754
0.0612622
0.0835806
0.105922
0.126186
0.142317
0.15362
0.161538
0.16878
0.177913
0.190336
0.206665
0.226914
0.250766
0.277746
0.30719
0.338458
0.370985
0.404457
0.438713
0.473686
0.509345
0.545678
0.582687
0.620376
0.658742
0.697762
0.737395
0.777595
0.818306
0.859469
0.901027
0.942924
0.985117
1.02757
1.07026
1.11317
1.1563
1.19964
1.24319
1.28696
1.33094
1.37514
1.41953
1.46411
1.50885
1.55372
1.59868
1.64369
1.68872
1.73372
1.77865
1.82347
1.86814
1.91263
1.9569
2.00094
2.04469
2.08814
2.13126
2.17402
2.21641
2.25838
2.29994
2.34106
2.3817
2.42186
2.46148
2.50055
2.53903
2.5769
2.6141
2.65062
2.68642
2.72146
2.75571
2.78912
2.82166
2.85328
2.88395
2.91363
2.94228
2.96987
2.99636
3.02172
3.04593
3.06895
3.09077
3.11136
3.1307
3.14879
3.16561
3.18115
3.19541
3.20838
3.22007
3.23046
3.23957
3.24741
3.25397
3.25926
3.26331
3.26613
3.26761
3.26796
3.26717
3.2652
3.26206
3.25779
3.25242
3.24597
3.23846
3.22992
3.22036
3.20982
3.19832
3.18588
3.17252
3.15829
3.14319
3.12726
3.11053
3.09302
3.07476
3.05578
3.0361
3.01577
2.99483
2.97333
2.95131
2.92884
2.90594
2.88268
2.8591
2.83523
2.81111
2.78679
2.7623
2.7377
2.71303
2.68836
2.66375
2.63925
2.61492
2.59081
2.56699
2.54352
2.5205
2.49795
2.47587
2.45329
2.42766
0.000228618
0.00517034
0.0218639
0.0351503
0.0419318
0.0451065
0.0462165
0.0460269
0.0449812
0.0432879
0.0412328
0.0390052
0.0367588
0.0346162
0.0326614
0.0309475
0.0294967
0.0283165
0.0273993
0.026729
0.0263422
0.0263348
0.0268684
0.028263
0.03105
0.0362805
0.0458105
0.0601318
0.0778323
0.0972788
0.116581
0.133813
0.147807
0.158433
0.166848
0.17515
0.185395
0.198863
0.216064
0.236921
0.261042
0.287883
0.316854
0.347364
0.378956
0.411342
0.444413
0.478145
0.512559
0.54769
0.583576
0.62026
0.65777
0.696116
0.735291
0.775278
0.816047
0.857555
0.899753
0.942592
0.986021
1.03
1.07448
1.11944
1.16486
1.21072
1.25701
1.30371
1.35082
1.39832
1.44621
1.49445
1.54301
1.59186
1.64094
1.69021
1.73961
1.78908
1.83856
1.88798
1.93732
1.98651
2.03551
2.08429
2.1328
2.18101
2.22888
2.27638
2.32349
2.37017
2.4164
2.46216
2.50743
2.55216
2.59635
2.63994
2.68292
2.72524
2.76687
2.80777
2.84791
2.88725
2.92574
2.96335
3.00004
3.03576
3.07046
3.10411
3.13666
3.16808
3.19831
3.22733
3.25509
3.28157
3.30674
3.33056
3.35303
3.37411
3.39379
3.41206
3.42892
3.44436
3.45837
3.47096
3.48212
3.49185
3.50017
3.50708
3.5126
3.51673
3.5195
3.52082
3.52091
3.5197
3.51719
3.5134
3.50838
3.50216
3.49475
3.4862
3.47652
3.46574
3.45389
3.441
3.4271
3.41222
3.39638
3.37961
3.36194
3.34341
3.32403
3.30385
3.28289
3.26118
3.23878
3.21572
3.19206
3.16786
3.14315
3.11799
3.09242
3.0665
3.04026
3.01375
2.987
2.96008
2.93302
2.90589
2.87875
2.85167
2.8247
2.7979
2.77135
2.7451
2.71924
2.69388
2.66904
2.64475
2.62011
2.59276
0.000509476
0.0104144
0.0316781
0.0434405
0.0489523
0.0512345
0.0516046
0.0507419
0.0490022
0.0467098
0.0441141
0.0414331
0.0388453
0.03649
0.0344604
0.0328144
0.0315741
0.0307308
0.0303299
0.030291
0.0308361
0.0323023
0.0353297
0.040691
0.0490633
0.0606463
0.0747004
0.0903569
0.106809
0.12284
0.137326
0.149658
0.160001
0.169235
0.178872
0.190423
0.204939
0.22278
0.243834
0.267707
0.293905
0.321915
0.351267
0.381578
0.412608
0.444255
0.476519
0.50945
0.543111
0.577575
0.612912
0.649177
0.686406
0.72463
0.763861
0.804097
0.845321
0.887507
0.930617
0.974613
1.01945
1.0651
1.11151
1.15866
1.20651
1.25505
1.30425
1.3541
1.40457
1.45563
1.50727
1.55943
1.61207
1.66513
1.71855
1.77225
1.82616
1.88019
1.93428
1.98834
2.04231
2.09613
2.14976
2.20315
2.25624
2.309
2.36138
2.41335
2.46487
2.51592
2.56647
2.61648
2.66595
2.71482
2.76308
2.81067
2.85758
2.90376
2.94917
2.99377
3.03752
3.08038
3.12231
3.16326
3.20319
3.24205
3.27979
3.31637
3.35174
3.38586
3.41867
3.45014
3.48024
3.50892
3.53614
3.56189
3.58613
3.60885
3.63003
3.64966
3.66773
3.68423
3.69917
3.71255
3.72435
3.7346
3.74329
3.75044
3.75606
3.76017
3.76277
3.76386
3.76356
3.76182
3.75867
3.75415
3.74828
3.74112
3.73267
3.72299
3.7121
3.70003
3.68681
3.67247
3.65706
3.64059
3.62311
3.60463
3.5852
3.56484
3.54358
3.52146
3.49851
3.47477
3.45028
3.42512
3.39931
3.37293
3.34601
3.3186
3.29075
3.26252
3.23393
3.20504
3.17589
3.14654
3.11705
3.08748
3.05788
3.02834
2.99891
2.96965
2.94064
2.91195
2.88368
2.85593
2.82875
2.80217
2.77538
2.74633
0.000967577
0.0178372
0.0401879
0.0509672
0.055767
0.0574539
0.0572745
0.0558273
0.0535363
0.0507419
0.0477333
0.0447629
0.042037
0.0397155
0.0379118
0.0367183
0.0362322
0.0362984
0.0371453
0.0390011
0.0421946
0.0470606
0.0538604
0.0627225
0.0735354
0.085955
0.0993675
0.11305
0.126334
0.138688
0.149905
0.160185
0.170252
0.18116
0.193945
0.2093
0.22748
0.248353
0.271587
0.29677
0.323495
0.351399
0.380185
0.409653
0.439711
0.470355
0.501642
0.533655
0.566488
0.600233
0.634966
0.670754
0.707654
0.745707
0.784942
0.825372
0.866997
0.909805
0.953777
0.998884
1.0451
1.09238
1.14071
1.19004
1.24035
1.29161
1.34379
1.39685
1.45077
1.50551
1.56101
1.61723
1.67408
1.73149
1.78937
1.84764
1.90619
1.96492
2.02373
2.08254
2.14126
2.19981
2.25815
2.31621
2.37395
2.43132
2.48825
2.54472
2.60069
2.65613
2.71101
2.76529
2.81895
2.87194
2.92424
2.97581
3.02661
3.07659
3.12572
3.17395
3.22124
3.26754
3.3128
3.35699
3.40005
3.44194
3.4826
3.52197
3.56002
3.59669
3.63194
3.66571
3.69798
3.7287
3.75782
3.78533
3.81118
3.83537
3.85786
3.87867
3.89777
3.91517
3.93086
3.94485
3.95713
3.96771
3.9766
3.98382
3.98939
3.99332
3.99562
3.99633
3.99549
3.99309
3.98917
3.98378
3.97695
3.96873
3.95914
3.94823
3.93604
3.92259
3.90792
3.89207
3.87508
3.85699
3.83782
3.81761
3.79638
3.77418
3.75103
3.72696
3.70201
3.67624
3.6497
3.62244
3.59452
3.56599
3.5369
3.50729
3.4772
3.44669
3.4158
3.38457
3.35305
3.32132
3.28944
3.25747
3.22547
3.1935
3.16164
3.12995
3.0985
3.06738
3.03669
3.00653
2.97698
2.94808
2.91905
2.88813
0.001542
0.0253654
0.0483226
0.0585841
0.0628916
0.0641235
0.0635057
0.0616034
0.0588989
0.0557933
0.052627
0.0496884
0.0472147
0.0453868
0.0444576
0.0442835
0.0450058
0.0466885
0.0494985
0.0535837
0.0590586
0.0659764
0.0742966
0.0838839
0.094477
0.10569
0.117104
0.128367
0.13929
0.149847
0.160279
0.171131
0.183107
0.196833
0.212729
0.230921
0.251298
0.273596
0.297503
0.322713
0.348961
0.376031
0.403771
0.432099
0.46101
0.490552
0.52081
0.551889
0.583893
0.616919
0.651058
0.686389
0.722981
0.760889
0.800156
0.840812
0.882874
0.926349
0.971234
1.01752
1.06518
1.1142
1.16455
1.21619
1.26909
1.32323
1.37854
1.435
1.49256
1.55116
1.61074
1.6712
1.73246
1.79439
1.8569
1.91987
1.98319
2.04672
2.11036
2.17398
2.2375
2.30083
2.3639
2.42666
2.48904
2.55098
2.61243
2.67335
2.7337
2.79346
2.85258
2.91104
2.96879
3.0258
3.08203
3.13743
3.19197
3.24561
3.29829
3.34998
3.40062
3.45015
3.49855
3.54576
3.59173
3.63641
3.67974
3.72167
3.76214
3.80111
3.83853
3.87435
3.90853
3.94102
3.97178
4.00078
4.02798
4.05336
4.07691
4.09862
4.1185
4.13653
4.15272
4.16707
4.17957
4.19025
4.19911
4.20617
4.21145
4.21499
4.2168
4.21691
4.21536
4.21212
4.20727
4.20085
4.19292
4.1835
4.17265
4.1604
4.1468
4.13187
4.11567
4.09824
4.07961
4.05983
4.03894
4.01697
3.99394
3.96989
3.94484
3.91883
3.89191
3.86414
3.83558
3.80628
3.7763
3.74569
3.7145
3.68276
3.65051
3.6178
3.58466
3.55117
3.51737
3.48334
3.44915
3.41485
3.38051
3.3462
3.31197
3.2779
3.24406
3.21055
3.17747
3.14494
3.11302
3.08179
3.05051
3.01767
0.0022939
0.0321879
0.0559181
0.0661918
0.0703196
0.0713079
0.0703732
0.0681308
0.065177
0.0620091
0.059025
0.0565305
0.0547747
0.0540125
0.0540074
0.0550842
0.0571641
0.0603127
0.0645586
0.0699056
0.0763218
0.0837293
0.0919986
0.100961
0.11042
0.120193
0.130149
0.140232
0.150515
0.161232
0.172755
0.185499
0.199811
0.2159
0.233809
0.253436
0.274592
0.297054
0.320608
0.345072
0.370299
0.396188
0.422686
0.449786
0.477532
0.506001
0.535293
0.565518
0.596788
0.629206
0.662873
0.69788
0.734309
0.772229
0.811694
0.852747
0.895426
0.939757
0.985755
1.03343
1.08276
1.13375
1.18638
1.24062
1.29642
1.35375
1.41255
1.47276
1.53431
1.59711
1.66108
1.72609
1.792
1.85866
1.92594
1.99371
2.06183
2.13018
2.19862
2.26702
2.33527
2.40331
2.47103
2.53837
2.60526
2.67162
2.73741
2.8026
2.86715
2.93102
2.99418
3.05658
3.11819
3.17896
3.23884
3.2978
3.35579
3.41278
3.4687
3.52351
3.57716
3.62959
3.68076
3.73062
3.77912
3.82621
3.87183
3.91592
3.95842
3.9993
4.03848
4.07594
4.11163
4.1455
4.1775
4.20761
4.23577
4.26197
4.2862
4.30845
4.32874
4.34705
4.36339
4.37775
4.39015
4.4006
4.4091
4.4157
4.42042
4.42329
4.42434
4.42364
4.42113
4.41683
4.41084
4.40322
4.394
4.38324
4.37098
4.35725
4.34212
4.32561
4.30779
4.28869
4.26837
4.24686
4.22421
4.20045
4.17562
4.14975
4.12283
4.09491
4.06606
4.03636
4.00585
3.9746
3.94265
3.91005
3.87686
3.84309
3.8088
3.774
3.73874
3.70309
3.66713
3.63092
3.59454
3.55805
3.5215
3.48495
3.44846
3.41211
3.37597
3.34016
3.30478
3.26994
3.23571
3.20219
3.1687
3.13398
0.00318289
0.0384594
0.0636111
0.0740674
0.0780839
0.078889
0.0776983
0.0751887
0.0720755
0.0690372
0.0665533
0.0649129
0.0642237
0.0642376
0.0653406
0.0674365
0.0704869
0.07446
0.0793192
0.0850168
0.0914832
0.0986372
0.106394
0.11468
0.123442
0.132651
0.142332
0.152595
0.163615
0.175604
0.188779
0.203306
0.219263
0.236636
0.25534
0.275242
0.296196
0.318061
0.340723
0.364094
0.38812
0.41278
0.438086
0.464079
0.490831
0.518437
0.547008
0.576649
0.607469
0.639576
0.673077
0.708075
0.74466
0.782916
0.822915
0.864725
0.908401
0.953994
1.00154
1.05106
1.10256
1.15604
1.21149
1.26888
1.32816
1.38928
1.45216
1.5167
1.58277
1.65027
1.71904
1.78892
1.85972
1.93125
2.00334
2.07584
2.14861
2.22156
2.29455
2.36748
2.44023
2.5127
2.58481
2.65647
2.72754
2.79796
2.86773
2.93682
3.00517
3.07277
3.13954
3.20545
3.27046
3.33452
3.39758
3.4596
3.52054
3.58035
3.63898
3.69638
3.75249
3.80726
3.86063
3.91258
3.96303
4.01195
4.05927
4.10494
4.1489
4.19109
4.23147
4.26999
4.30662
4.3413
4.374
4.40467
4.43328
4.4598
4.48424
4.50658
4.52682
4.54497
4.56102
4.57497
4.58684
4.59663
4.60438
4.61012
4.61389
4.61573
4.61568
4.61388
4.61009
4.60448
4.59714
4.58809
4.5774
4.56511
4.55126
4.53592
4.51913
4.50094
4.4814
4.46057
4.43849
4.41521
4.39078
4.36524
4.33862
4.31096
4.28224
4.25249
4.2218
4.19026
4.15793
4.12484
4.09105
4.05661
4.02156
3.98593
3.94975
3.91302
3.87579
3.83816
3.80021
3.762
3.72361
3.68509
3.6465
3.60788
3.56929
3.5308
3.49252
3.45455
3.417
3.37997
3.34355
3.30784
3.27223
3.23574
0.004124
0.0447304
0.0711106
0.0818836
0.0858712
0.086527
0.0849533
0.082125
0.0790701
0.0765052
0.0748402
0.0741523
0.0741225
0.075018
0.0768602
0.0795951
0.0831518
0.0874761
0.0925221
0.0982508
0.104626
0.111627
0.119237
0.127456
0.136312
0.145861
0.156193
0.167406
0.179612
0.192907
0.207338
0.222916
0.239604
0.257328
0.276
0.295528
0.315835
0.336861
0.358568
0.380944
0.403998
0.427755
0.452271
0.477621
0.503865
0.531104
0.559455
0.589029
0.619942
0.652308
0.686242
0.721855
0.759253
0.798536
0.839794
0.883113
0.928573
0.976247
1.02619
1.07844
1.13301
1.18989
1.24907
1.31051
1.37415
1.43991
1.50767
1.57728
1.64853
1.72123
1.79514
1.87005
1.94576
2.02205
2.0987
2.17551
2.25237
2.32928
2.40621
2.48308
2.55972
2.63605
2.71198
2.78735
2.86203
2.93598
3.0092
3.08161
3.15319
3.22386
3.29359
3.36233
3.43004
3.49666
3.56215
3.62647
3.68957
3.75142
3.81196
3.87114
3.9289
3.98519
4.03996
4.09316
4.14476
4.19469
4.24291
4.28935
4.33397
4.37669
4.41748
4.45629
4.4931
4.52785
4.56051
4.59104
4.61941
4.64562
4.66965
4.69147
4.71108
4.72849
4.74369
4.7567
4.76751
4.77615
4.78265
4.78705
4.78942
4.7898
4.78836
4.78494
4.77957
4.77237
4.76338
4.75265
4.74024
4.72619
4.71058
4.69343
4.67483
4.65481
4.63345
4.61078
4.58687
4.56176
4.53551
4.50815
4.47974
4.45031
4.41985
4.38839
4.35603
4.32283
4.28883
4.25408
4.21863
4.18252
4.1458
4.1085
4.07065
4.03221
3.99324
3.95386
3.91415
3.87418
3.83401
3.79369
3.75328
3.71282
3.67233
3.63192
3.5917
3.55178
3.51225
3.47323
3.43478
3.39705
3.35946
3.3214
0.0051082
0.0509676
0.0784667
0.0894732
0.0933782
0.0938408
0.0918462
0.0888935
0.0861694
0.0842912
0.0834379
0.0832832
0.0839063
0.0853664
0.0876949
0.0908196
0.0946787
0.0992326
0.10446
0.110356
0.116922
0.124173
0.132138
0.140861
0.150392
0.160787
0.172099
0.184371
0.197613
0.211819
0.226976
0.243046
0.259961
0.277662
0.296102
0.315245
0.335079
0.355603
0.376829
0.398787
0.42153
0.445141
0.469745
0.495339
0.521929
0.549699
0.578817
0.609368
0.641466
0.675224
0.710761
0.7482
0.787656
0.829238
0.873047
0.919185
0.967741
1.0188
1.07245
1.12871
1.18756
1.24896
1.31288
1.37926
1.44802
1.51906
1.59223
1.66731
1.74405
1.82209
1.90103
1.98059
2.06069
2.14115
2.22174
2.3022
2.3825
2.46278
2.54296
2.62288
2.70241
2.78158
2.86038
2.93855
3.01601
3.09267
3.16843
3.2432
3.31696
3.38967
3.46127
3.53172
3.60097
3.66898
3.7357
3.80111
3.86517
3.92784
3.98908
4.04883
4.10703
4.16364
4.2186
4.27188
4.32345
4.37325
4.42123
4.46735
4.51152
4.5537
4.59385
4.63194
4.66793
4.70179
4.73347
4.76294
4.79018
4.81516
4.83789
4.85835
4.87653
4.89246
4.90613
4.91754
4.92672
4.93366
4.93841
4.94104
4.94164
4.94038
4.93708
4.93175
4.92452
4.91543
4.90455
4.89191
4.87759
4.86163
4.8441
4.82506
4.80456
4.78267
4.75945
4.73496
4.70924
4.68235
4.65434
4.62526
4.59514
4.56405
4.53201
4.49909
4.46528
4.43065
4.39523
4.35905
4.32217
4.28463
4.24648
4.20775
4.16848
4.12862
4.08823
4.04742
4.00626
3.96482
3.92315
3.88132
3.83937
3.79736
3.75526
3.71321