/*--------------------------------*- C++ -*----------------------------------*\
  =========                 |
  \\      /  F ield         | OpenFOAM: The Open Source CFD Toolbox
   \\    /   O peration     | Website:  https://openfoam.org
    \\  /    A nd           | Version:  8
     \\/     M anipulation  |
\*---------------------------------------------------------------------------*/
FoamFile
{
    version     2.0;
    format      ascii;
    class       volScalarField;
    location    "900";
    object      omega;
}
// * * * * * * * * * * * * * * * * * * * * * * * * * * * * * * * * * * * * * //

dimensions      [0 0 -1 0 0 0 0];

internalField   nonuniform List<scalar> 
12225
(
32582.3
32582.3
32582.3
32582.3
39846.7
32582.3
46140
49016.3
42975.8
32582.3
48228.8
42375.5
40591.6
32582.3
42020.5
38541.7
32582.3
32582.3
4321.13
8440.45
11841
11790.7
13785.7
13452.4
15286.1
17436
17382.6
16200.1
18642.2
18076.2
17798.6
16582.2
16662.8
16380.9
16021.3
15742.6
889.994
1531.73
2416.12
2906.96
3768.65
3995.25
4585.51
5068.95
5585.29
5641.15
6106.09
6232.17
6430.64
6452.75
6520.33
6697.09
6763.31
6885.39
488.998
682.273
860.054
1039.82
1283.75
1436.78
1640.11
1799.59
1964.85
2076.63
2175.39
2270.92
2340.72
2424.67
2473.7
2563.49
2603.52
2686.39
437.527
504.021
541.026
607.005
686.543
757.443
830.56
901.31
961.353
1019.39
1061.77
1110.08
1141.79
1185.72
1210.9
1252.75
1272.41
1312.58
434.762
453.967
460.372
482.246
509.546
539.374
568.257
599.702
626.119
654.688
676.242
701.474
718.781
741.72
755.702
777.32
788.117
808.98
437.38
439.93
440.968
444.531
452.152
462.559
472.836
485.559
496.738
509.902
520.466
533.063
542.332
554.11
561.934
573.115
579.472
590.394
438.612
437.024
436.007
436.003
437.178
440.249
443.582
448.516
453.114
459.205
464.349
470.802
475.749
482.112
486.513
492.755
496.472
502.785
438.915
436.774
434.735
433.429
432.43
432.542
432.811
433.728
434.919
437.103
439.084
441.89
444.102
447.183
449.33
452.564
454.465
457.965
438.981
436.797
434.616
432.789
431.073
429.77
428.65
427.908
427.278
427.211
427.286
427.597
427.981
428.785
429.331
430.375
430.992
432.32
438.99
436.8
434.651
432.69
430.803
429.105
427.496
426.092
424.772
423.689
422.719
421.976
421.262
420.813
420.302
420.091
419.72
419.733
438.996
436.788
434.665
432.675
430.766
428.982
427.271
425.682
424.161
422.769
421.443
420.254
419.109
418.109
417.123
416.292
415.445
414.773
438.999
436.78
434.664
432.664
430.756
428.953
427.23
425.603
424.046
422.579
421.175
419.858
418.596
417.417
416.283
415.231
414.216
413.28
439.001
436.776
434.661
432.656
430.748
428.938
427.214
425.576
424.015
422.532
421.117
419.773
418.488
417.269
416.103
414.996
413.936
412.932
439.001
436.774
434.658
432.65
430.741
428.927
427.202
425.56
423.997
422.51
421.092
419.741
418.452
417.224
416.052
414.934
413.866
412.847
439.001
436.773
434.656
432.646
430.736
428.92
427.193
425.549
423.985
422.494
421.074
419.721
418.431
417.2
416.025
414.904
413.833
412.811
439.001
436.772
434.655
432.644
430.733
428.916
427.187
425.542
423.976
422.485
421.063
419.708
418.416
417.184
416.008
414.885
413.813
412.79
439.001
436.771
434.655
432.643
430.732
428.914
427.185
425.54
423.973
422.481
421.059
419.703
418.411
417.177
416.001
414.877
413.805
412.781
439
436.772
434.655
432.645
430.733
428.916
427.187
425.542
423.975
422.483
421.061
419.706
418.413
417.18
416.004
414.882
413.81
412.787
439.001
436.773
434.657
432.647
430.736
428.92
427.193
425.549
423.984
422.493
421.073
419.718
418.429
417.199
416.029
414.912
413.85
412.836
439.001
436.774
434.659
432.651
430.741
428.932
427.209
425.574
424.021
422.536
421.13
419.789
418.524
417.32
416.191
415.122
414.124
413.178
439
436.777
434.658
432.652
430.755
428.991
427.314
425.756
424.287
422.881
421.585
420.377
419.248
418.193
417.279
416.461
415.792
415.197
438.988
436.789
434.594
432.684
430.918
429.403
428.1
427.043
426.183
425.317
424.742
424.236
423.632
423.199
423.085
423.165
423.665
424.292
438.913
436.741
434.449
433.507
432.217
432.104
432.763
434.199
436.159
437.669
440.121
441.867
443.666
444.281
446.22
448.831
452.195
455.645
438.21
436.755
437.724
439.342
443.341
448.543
456.214
465.511
474.016
482.88
491.742
496.998
500.74
506.467
513.344
521.481
530.491
539.483
434.34
440.958
457.586
472.044
491.708
515.309
541.409
570.525
595.421
617.658
634.379
649.313
662.627
677.933
694.322
712.667
731.751
750.713
407.357
478.932
556.665
618.034
690.839
765.939
841.629
921.22
984.769
1040.45
1080.1
1112.43
1141.01
1171.39
1204.87
1239.72
1277.42
1312.65
280.426
731.542
1088.17
1362.42
1636.9
1873.02
2097.24
2302.42
2453.64
2586.78
2677.59
2717.9
2758.77
2794.88
2851.74
2897
2966.61
3013.9
110.287
3184.4
5062.4
6302.06
7232.57
7876.17
8303.67
8588.37
8716.61
8781.83
8776.01
8744.5
8710.24
8692.33
8695.25
8701.64
8728.05
8739.99
16112.1
21804.3
23799.2
24745.3
25208.1
25233.5
25161.1
24988.8
24738.8
24478.3
24225.2
23983.9
23760.4
23551.3
23360.6
23184.4
23025.3
22881.3
11463.3
2494.65
2496.87
2499.12
2501.38
2503.67
2505.98
2508.3
2510.65
2513.02
2515.42
2517.83
2520.27
2522.73
2525.21
2527.72
2530.25
2532.8
2535.37
2537.97
2540.6
2543.25
2545.92
2548.62
2551.34
2554.09
2556.87
2559.67
2562.5
2565.35
2568.23
2571.14
2574.08
2577.04
2580.04
2583.06
2586.11
2589.19
2592.3
2595.43
2598.6
2601.8
2605.03
2608.29
2611.59
2614.91
2618.27
2621.66
2625.08
2628.54
2632.03
2635.55
2639.11
2642.71
2646.33
2650
3217.96
3123.25
2661.21
3144.42
3134.52
3211.67
3363.97
3439.47
3535.53
3618.41
3701.22
3777.84
3854.62
3926.19
3997.78
4065.76
4133.15
4198.1
4262.18
4324.43
4385.77
4445.59
4504.52
4562.11
4618.83
4674.33
4728.97
4782.46
4835.07
4886.61
4937.23
4986.82
5035.43
5082.99
5129.53
5174.96
5219.28
5262.38
5304.25
5344.8
5384.02
5421.97
5458.71
5494.59
5530.01
5564.12
5597.31
5629.51
5660.68
5690.88
5720.01
5748.13
5775.19
5801.21
5826.15
5850.03
5872.83
5894.55
5915.21
5934.77
5953.27
5970.67
5987.02
6002.27
6016.48
6029.6
6041.67
6052.65
6062.58
6071.39
6079.14
6086.52
6092.58
6098.34
6101.7
6105.28
6107.71
6109.87
6111.31
6111.62
6110.08
6107.85
6104.57
6100.5
6095.53
6089.75
6083.16
6075.87
6067.87
6059.43
6049.9
6040.3
6029.43
6018.54
6006.84
5994.26
5981.91
5968.09
5954.88
5940.23
5926.12
5911.18
5896.32
5881.24
5866.11
5850.95
5835.78
5820.67
5805.65
5790.79
5776.15
5761.82
5747.86
5734.31
5721.2
5708.51
5696.13
5683.81
5671.17
5657.65
5642.22
5622
5592.19
5467.16
11463.3
1994.09
998.633
813.371
696.23
625.964
633.209
630.836
617.909
596.514
572.275
548.821
527.031
509.008
496.54
487.748
486.845
488.768
513.475
561.554
645.137
746.235
856.191
965.722
1063.78
1139.61
1183.87
1176.99
1145.96
1059.85
941.56
791.968
660.201
572.483
503.788
466.193
459.881
467.584
489.037
520.509
549.663
593.115
685.197
814.283
1027.63
1359.67
1668.71
1876.18
2012.52
2070.63
2086.76
2069.07
2023.7
1982.4
1939.51
1881.18
1869.94
1797.07
1753.48
1752.26
1719.05
1705.72
1696.67
1689.22
1682.95
1681.91
1681.44
1683.35
1686.57
1690.86
1696.19
1702.11
1708.73
1715.69
1723.07
1730.65
1738.48
1746.39
1754.43
1762.48
1770.57
1778.62
1786.64
1794.59
1802.45
1810.2
1817.81
1825.26
1832.52
1839.58
1846.38
1852.98
1859.32
1865.45
1871.4
1877.23
1883.08
1889.13
1895.69
1903.13
1912.03
1919.95
1928
1935.66
1943.16
1950.39
1957.41
1964.18
1970.72
1977.03
1983.11
1988.95
1994.56
1999.94
2005.1
2010.02
2014.72
2019.19
2023.44
2027.46
2031.26
2034.84
2038.19
2041.34
2044.27
2047
2049.55
2051.96
2054.13
2056.13
2057.88
2059.56
2061.05
2062.39
2063.39
2063.75
2063.27
2062.6
2061.72
2060.64
2059.37
2057.91
2056.29
2054.55
2052.77
2049.96
2048.22
2044.99
2042.9
2040.45
2036.5
2034.37
2030.12
2027.77
2023.26
2020.56
2016.28
2012.85
2009.01
2005.2
2001.34
1997.45
1993.55
1989.65
1985.75
1981.88
1978.05
1974.27
1970.56
1966.94
1963.42
1959.98
1956.69
1953.58
1950.7
1948.15
1945.98
1944.82
1943.78
1952.63
11463.3
2014.9
818.063
644.803
686.08
686.931
659.105
603.544
543.986
487.793
438.106
395.674
362.337
336.215
316.085
300.643
289.813
281.697
279.198
281.476
291.426
309.945
341.893
385.845
440.548
501.084
561.957
608.668
639.823
635.983
619.166
572.448
511.701
444.739
394.907
387.469
398.11
422.233
462.485
538.359
653.542
815.193
1016.03
1194.3
1341.57
1473.71
1557.29
1580.61
1573.05
1522.63
1467.3
1405.25
1348.14
1298.26
1255.71
1218.05
1189.51
1165.74
1148.64
1137.58
1127.66
1121.68
1116.03
1114.01
1112.75
1112.58
1113.74
1115.57
1118.02
1120.94
1124.24
1127.84
1131.68
1135.7
1139.88
1144.15
1148.52
1152.95
1157.41
1161.89
1166.38
1170.87
1175.33
1179.75
1184.14
1188.48
1192.75
1196.96
1201.09
1205.15
1209.14
1213.06
1216.93
1220.77
1224.6
1228.46
1232.39
1236.43
1240.63
1244.98
1249.32
1253.43
1257.48
1261.36
1265.14
1268.77
1272.29
1275.66
1278.91
1282.03
1285.02
1287.88
1290.61
1293.2
1295.67
1298.01
1300.21
1302.28
1304.23
1306.04
1307.72
1309.27
1310.69
1311.99
1313.16
1314.21
1315.14
1315.95
1316.63
1317.2
1317.63
1317.97
1318.17
1318.23
1318.1
1317.72
1317.11
1316.4
1315.56
1314.62
1313.55
1312.38
1311.11
1309.73
1308.25
1306.53
1304.94
1303.01
1301.27
1299.31
1297.04
1295.1
1292.63
1290.55
1287.93
1285.71
1283.06
1280.59
1277.99
1275.36
1272.7
1270.01
1267.31
1264.59
1261.86
1259.13
1256.41
1253.71
1251.02
1248.37
1245.77
1243.23
1240.78
1238.48
1236.39
1234.66
1233.44
1233.44
1235.05
1245.85
11463.3
2040.44
1017.93
981.505
910.054
779.818
662.255
555.135
470.458
407.191
359.5
322.133
293.132
270.904
253.906
240.967
231.246
224.216
219.555
217.751
218.75
221.801
230.06
244.346
265.847
294.609
328.906
363.951
394.93
417.985
424.062
417.225
396.451
399.487
441.151
530.345
596.865
657.595
733.11
840.028
977.361
1094.02
1171.95
1238.72
1289.57
1307.27
1264.93
1221.89
1173.4
1119.88
1074.22
1032.54
998.517
970.161
947.562
929.49
915.514
905.598
898.299
893.408
890.032
888.368
887.104
887.148
888.012
889.423
891.371
893.671
896.284
899.141
902.199
905.416
908.767
912.223
915.764
919.37
923.028
926.723
930.444
934.18
937.92
941.657
945.382
949.088
952.769
956.42
960.037
963.615
967.154
970.652
974.112
977.543
980.95
984.34
987.721
991.101
994.486
997.876
1001.26
1004.61
1007.88
1011.03
1014.09
1017.05
1019.92
1022.67
1025.33
1027.89
1030.34
1032.68
1034.92
1037.06
1039.08
1041
1042.81
1044.51
1046.1
1047.57
1048.94
1050.19
1051.33
1052.36
1053.28
1054.09
1054.78
1055.37
1055.85
1056.21
1056.47
1056.62
1056.65
1056.58
1056.39
1056.08
1055.63
1055.02
1054.28
1053.44
1052.5
1051.47
1050.33
1049.1
1047.77
1046.36
1044.84
1043.21
1041.54
1039.74
1037.93
1035.99
1033.93
1031.9
1029.7
1027.54
1025.21
1022.94
1020.52
1018.11
1015.64
1013.14
1010.6
1008.03
1005.45
1002.84
1000.23
997.603
994.978
992.356
989.74
987.145
984.587
982.08
979.654
977.348
975.228
973.409
972.047
971.725
972.887
979.619
11463.3
2320.12
1479.32
1194.08
947.613
732.848
566.374
454.467
377.819
324.12
285.77
258.504
238.628
223.632
212.1
203.25
196.614
191.829
188.665
187.228
187.577
188.952
192.882
199.798
210.726
226.75
247.897
271.765
295.42
313.688
330.737
359.566
428.668
531.711
621.001
691.92
765.007
844.21
918.135
981.894
1037.26
1084.87
1112.52
1118.88
1084.1
1037.46
998.081
956.601
918.724
884.969
857.329
833.861
815.174
800.133
788.554
779.848
773.485
769.299
766.84
765.532
765.155
765.477
766.548
768.197
770.282
772.701
775.403
778.321
781.422
784.671
788.044
791.519
795.08
798.71
802.397
806.13
809.899
813.693
817.503
821.322
825.142
828.957
832.758
836.542
840.302
844.036
847.738
851.407
855.04
858.635
862.196
865.724
869.221
872.688
876.124
879.527
882.892
886.211
889.471
892.66
895.762
898.773
901.696
904.526
907.262
909.903
912.445
914.889
917.231
919.473
921.611
923.643
925.568
927.385
929.091
930.686
932.169
933.537
934.792
935.931
936.955
937.862
938.654
939.329
939.889
940.333
940.661
940.871
940.962
940.95
940.818
940.57
940.2
939.71
939.093
938.349
937.487
936.521
935.453
934.284
933.013
931.645
930.18
928.625
926.969
925.22
923.392
921.468
919.485
917.403
915.238
913.024
910.718
908.373
905.938
903.476
900.935
898.362
895.738
893.076
890.379
887.654
884.905
882.137
879.355
876.561
873.762
870.963
868.178
865.414
862.68
859.994
857.378
854.869
852.522
850.43
848.719
847.792
848.128
851.582
11463.3
2944.97
1743.49
1216.35
838.791
592.124
448.504
359.238
303.817
267.828
242.836
224.418
210.268
199.208
190.412
183.448
178.098
174.24
171.775
170.83
171.239
172.71
176.087
181.429
189.551
201.609
218.581
240.865
270.775
315.15
372.503
467.984
578.881
668.11
738.61
802.87
856.06
896.959
931.842
964.75
980.448
981.005
949.616
918.359
884.097
849.719
819.384
791.163
767.414
747.359
731.043
717.75
707.382
699.441
693.7
689.805
687.67
686.77
686.659
687.447
688.93
690.933
693.4
696.22
699.318
702.637
706.136
709.782
713.55
717.42
721.377
725.407
729.499
733.642
737.827
742.045
746.286
750.544
754.809
759.075
763.334
767.581
771.809
776.013
780.188
784.329
788.434
792.499
796.52
800.498
804.429
808.317
812.16
815.957
819.702
823.393
827.024
830.584
834.069
837.471
840.786
844.009
847.141
850.177
853.116
855.953
858.688
861.317
863.837
866.248
868.548
870.733
872.8
874.748
876.574
878.277
879.854
881.306
882.63
883.825
884.892
885.829
886.636
887.314
887.861
888.279
888.567
888.714
888.744
888.651
888.427
888.073
887.59
886.979
886.238
885.369
884.378
883.272
882.054
880.725
879.285
877.739
876.087
874.336
872.481
870.527
868.479
866.336
864.111
861.795
859.396
856.925
854.375
851.76
849.071
846.327
843.519
840.663
837.757
834.808
831.822
828.805
825.762
822.699
819.618
816.524
813.424
810.323
807.231
804.158
801.115
798.117
795.184
792.346
789.652
787.178
785.026
783.464
782.853
784.081
11463.3
3452.47
1786.79
1042.42
655.778
461.659
361.755
305.411
269.607
244.619
225.862
211.15
199.276
189.46
181.342
174.771
169.672
166.038
163.976
163.598
164.632
167.467
172.522
180.244
191.304
206.532
229.758
266.777
324.844
414.374
519.44
607.368
678.083
739.269
787.048
822.706
851.288
872.618
881.159
875.081
851.224
828.626
801.058
775.224
749.381
725.673
705.076
687.195
672.412
660.245
650.537
642.988
637.417
633.553
631.422
630.596
630.565
631.585
633.323
635.685
638.552
641.816
645.409
649.26
653.318
657.542
661.902
666.375
670.943
675.591
680.308
685.084
689.908
694.773
699.67
704.59
709.524
714.465
719.403
724.332
729.244
734.133
738.993
743.819
748.605
753.346
758.039
762.68
767.266
771.792
776.26
780.669
785.016
789.3
793.517
797.663
801.735
805.731
809.644
813.466
817.193
820.821
824.348
827.769
831.082
834.283
837.369
840.335
843.178
845.893
848.473
850.92
853.233
855.408
857.444
859.338
861.089
862.695
864.155
865.47
866.637
867.657
868.529
869.254
869.832
870.263
870.542
870.661
870.663
870.515
870.222
869.786
869.209
868.491
867.632
866.637
865.509
864.254
862.874
861.371
859.746
858.001
856.133
854.142
852.035
849.819
847.497
845.072
842.55
839.932
837.224
834.431
831.555
828.602
825.573
822.477
819.315
816.097
812.826
809.507
806.149
802.756
799.335
795.89
792.427
788.95
785.466
781.981
778.505
775.048
771.621
768.237
764.916
761.682
758.577
755.661
753.007
750.799
749.222
748.813
11463.3
3594.37
1569.94
820.388
519.496
385.333
316.183
275.793
249.637
231.192
217.014
205.173
194.845
185.952
178.462
172.456
168.115
165.605
164.835
165.717
168.541
173.985
182.562
196.675
218.884
251.281
301.429
377.588
465.345
543.889
608.727
664.35
711.455
748.735
778.617
796.445
802.076
793.755
775.883
757.689
736.471
716.547
696.037
676.833
658.71
642.742
629.113
617.659
608.342
600.939
595.315
591.301
588.891
587.863
587.734
588.665
590.431
592.95
596.073
599.697
603.735
608.107
612.752
617.616
622.659
627.848
633.158
638.569
644.064
649.632
655.259
660.937
666.656
672.408
678.183
683.973
689.765
695.553
701.326
707.077
712.797
718.48
724.12
729.711
735.247
740.725
746.137
751.481
756.752
761.949
767.067
772.109
777.072
781.953
786.749
791.458
796.077
800.608
805.038
809.361
813.572
817.669
821.647
825.504
829.235
832.837
836.305
839.634
842.822
845.864
848.758
851.5
854.088
856.517
858.785
860.891
862.832
864.606
866.213
867.653
868.924
870.027
870.961
871.728
872.326
872.758
873.01
873.096
873.039
872.813
872.426
871.879
871.173
870.312
869.296
868.129
866.816
865.36
863.764
862.03
860.162
858.161
856.031
853.774
851.392
848.89
846.272
843.54
840.7
837.755
834.712
831.575
828.348
825.034
821.639
818.169
814.629
811.027
807.367
803.655
799.9
796.107
792.283
788.434
784.564
780.68
776.788
772.896
769.014
765.151
761.319
757.531
753.803
750.156
746.614
743.214
740.027
737.186
734.772
732.988
11463.3
3413.65
1286.28
665.221
446.81
350.864
299.022
267.583
245.902
229.525
216.525
205.796
196.71
189.018
182.752
178.141
175.527
175.038
177.024
181.458
189.438
202.392
221.755
253.18
299.68
360.685
428.212
490.356
546.767
596.009
638.605
674.426
705.289
725.818
732.689
728.104
715.004
700.133
683.476
667.604
651.744
636.672
621.889
608.112
595.609
584.825
575.79
568.421
562.649
558.365
555.494
554.088
553.711
554.317
555.882
558.302
561.454
565.242
569.567
574.345
579.501
584.969
590.695
596.634
602.748
609.009
615.392
621.878
628.447
635.084
641.776
648.512
655.277
662.062
668.867
675.67
682.462
689.233
695.973
702.672
709.324
715.92
722.454
728.919
735.304
741.596
747.806
753.932
759.97
765.916
771.769
777.527
783.19
788.754
794.215
799.57
804.815
809.943
814.949
819.831
824.582
829.202
833.684
838.026
842.223
846.27
850.163
853.896
857.466
860.868
864.099
867.154
870.03
872.723
875.231
877.552
879.682
881.621
883.368
884.923
886.285
887.454
888.433
889.22
889.816
890.221
890.42
890.448
890.298
889.962
889.444
888.749
887.878
886.833
885.617
884.234
882.688
880.984
879.124
877.111
874.949
872.641
870.188
867.597
864.868
862.007
859.018
855.904
852.67
849.321
845.864
842.303
838.642
834.887
831.043
827.119
823.119
819.051
814.921
810.735
806.501
802.227
797.919
793.583
789.226
784.854
780.475
776.099
771.733
767.388
763.076
758.81
754.604
750.476
746.455
742.577
738.883
735.47
732.363
729.502
11463.3
2981.49
1037.64
566.214
403.797
330.176
290.9
265.134
247.42
234.411
223.998
215.268
207.958
202.181
198.374
197.075
198.659
203.879
212.801
225.917
245.436
273.082
310.247
354.714
402.845
451.144
496.648
537.759
574.77
606.819
635.254
658.228
668.309
669.183
661.759
651.024
638.102
625.385
612.989
601.278
589.858
578.83
568.229
558.482
549.872
542.601
536.692
532.112
528.813
526.883
526.151
526.294
527.499
529.624
532.596
536.331
540.74
545.742
551.258
557.217
563.558
570.219
577.145
584.294
591.627
599.115
606.739
614.48
622.302
630.187
638.119
646.078
654.045
661.993
669.879
677.74
685.582
693.393
701.16
708.874
716.525
724.107
731.614
739.037
746.372
753.62
760.761
767.788
774.697
781.485
788.15
794.692
801.111
807.403
813.565
819.594
825.486
831.237
836.846
842.308
847.618
852.774
857.771
862.605
867.271
871.763
876.077
880.207
884.148
887.896
891.445
894.792
897.933
900.864
903.582
906.085
908.369
910.434
912.28
913.905
915.312
916.501
917.474
918.23
918.772
919.091
919.195
919.102
918.801
918.296
917.591
916.688
915.591
914.302
912.825
911.164
909.324
907.31
905.124
902.772
900.254
897.576
894.742
891.754
888.618
885.337
881.916
878.36
874.672
870.859
866.927
862.882
858.729
854.474
850.124
845.687
841.171
836.582
831.926
827.211
822.444
817.634
812.787
807.911
803.012
798.099
793.182
788.269
783.369
778.494
773.654
768.861
764.129
759.475
754.923
750.502
746.243
742.222
738.428
734.578
11463.3
2502.55
894.637
523.557
388.851
326.076
291.429
270.884
257.181
247.121
239.276
233.195
229.065
227.486
228.673
233.735
242.815
255.103
271.071
292.809
320.198
352.08
386.771
422.278
457.151
490.324
520.976
548.265
573.273
595.876
609.157
613.069
611.392
605.734
597.067
587.592
578.066
569.047
560.401
552.037
543.814
535.833
528.293
521.499
515.671
510.937
507.335
504.886
503.706
503.46
504.225
505.958
508.63
512.174
516.521
521.598
527.33
533.646
540.479
547.771
555.486
563.545
571.889
580.471
589.247
598.167
607.164
616.197
625.315
634.506
643.749
653.023
662.298
671.555
680.795
689.987
699.119
708.185
717.163
726.045
734.826
743.503
752.069
760.518
768.84
777.026
785.067
792.962
800.71
808.307
815.754
823.051
830.196
837.188
844.023
850.701
857.217
863.569
869.755
875.768
881.605
887.262
892.735
898.018
903.108
907.998
912.683
917.155
921.411
925.444
929.251
932.826
936.165
939.265
942.123
944.734
947.097
949.212
951.076
952.693
954.063
955.189
956.071
956.712
957.111
957.266
957.19
956.884
956.35
955.592
954.613
953.419
952.012
950.397
948.577
946.558
944.346
941.943
939.356
936.587
933.64
930.52
927.23
923.776
920.162
916.393
912.474
908.409
904.203
899.863
895.394
890.803
886.097
881.283
876.37
871.365
866.278
861.114
855.881
850.585
845.234
839.835
834.399
828.931
823.442
817.941
812.438
806.942
801.463
796.011
790.599
785.235
779.935
774.713
769.592
764.595
759.746
755.104
750.647
745.907
11463.3
2091.15
793.274
491.548
380.42
327.323
299.411
283.027
272.534
265.429
260.678
258.458
258.309
261.379
267.938
278.11
291.275
307.245
326.768
349.431
374.261
400.229
426.393
452.023
476.41
498.943
520.207
540.226
554.778
561.182
562.684
561.808
557.718
552.013
545.541
539.055
532.754
526.666
520.677
514.736
508.872
503.242
498.066
493.579
489.955
487.292
485.781
485.28
485.716
487.162
489.574
492.917
497.163
502.287
508.235
514.902
522.223
530.131
538.554
547.4
556.526
565.973
575.75
585.822
596.149
606.687
617.414
628.303
639.278
650.293
661.314
672.324
683.261
694.089
704.791
715.345
725.733
735.954
746.025
755.956
765.752
775.413
784.937
794.317
803.54
812.593
821.469
830.166
838.682
847.018
855.172
863.145
870.936
878.544
885.967
893.204
900.254
907.113
913.779
920.245
926.509
932.564
938.408
944.034
949.439
954.617
959.56
964.262
968.717
972.921
976.867
980.552
983.97
987.119
989.995
992.595
994.916
996.956
998.716
1000.2
1001.41
1002.35
1003.02
1003.42
1003.56
1003.43
1003.05
1002.41
1001.52
1000.4
999.032
997.435
995.608
993.559
991.292
988.814
986.129
983.242
980.158
976.881
973.416
969.766
965.937
961.935
957.763
953.428
948.935
944.29
939.496
934.56
929.488
924.287
918.967
913.536
908.003
902.377
896.666
890.876
885.015
879.088
873.104
867.07
860.996
854.891
848.766
842.633
836.502
830.382
824.283
818.216
812.19
806.216
800.309
794.483
788.759
783.156
777.693
772.418
767.313
761.751
11463.3
1960.3
775.292
488.089
382.956
336.04
312.159
298.856
291.045
286.836
285.28
285.774
289.077
295.286
304.315
315.882
329.643
345.639
363.422
382.35
401.778
421.12
439.835
457.804
475.298
492.066
505.741
513.785
517.686
519.168
519.144
517.226
514.078
510.359
506.416
502.447
498.476
494.487
490.47
486.475
482.621
479.084
476.059
473.73
472.36
471.91
472.43
474.066
476.652
480.173
484.607
489.917
496.038
502.84
510.271
518.445
527.338
536.897
547.059
557.769
569.015
580.713
592.795
605.21
617.909
630.829
643.915
657.128
670.359
683.51
696.511
709.283
721.807
734.061
746.029
757.705
769.094
780.223
791.133
801.864
812.431
822.847
833.114
843.22
853.141
862.859
872.368
881.665
890.752
899.626
908.288
916.737
924.974
932.998
940.808
948.404
955.786
962.952
969.897
976.618
983.109
989.365
995.381
1001.15
1006.68
1011.95
1016.96
1021.7
1026.16
1030.34
1034.24
1037.84
1041.15
1044.17
1046.88
1049.28
1051.38
1053.17
1054.65
1055.83
1056.71
1057.28
1057.57
1057.56
1057.28
1056.7
1055.85
1054.73
1053.34
1051.69
1049.8
1047.65
1045.27
1042.65
1039.81
1036.74
1033.47
1029.98
1026.28
1022.39
1018.3
1014.02
1009.55
1004.91
1000.09
995.097
989.946
984.639
979.18
973.577
967.833
961.956
955.959
949.852
943.645
937.345
930.958
924.493
917.955
911.351
904.689
897.975
891.219
884.435
877.636
870.833
864.038
857.259
850.505
843.786
837.111
830.494
823.946
817.486
811.13
804.898
798.801
792.88
787.135
780.802
11463.3
1873.61
748.83
485.374
390.531
348.168
327.286
316.2
310.392
307.974
307.639
310.015
314.936
322.159
331.35
342.183
354.375
367.655
381.63
395.883
410.004
424.003
438.026
451.488
462.827
470.819
476.38
480.331
482.363
483.18
483.299
482.529
481.192
479.549
477.722
475.777
473.751
471.693
469.694
467.912
466.605
465.862
465.675
466.219
467.606
469.799
472.704
476.195
480.613
486.022
492.423
499.789
508.09
517.325
527.486
538.501
550.33
562.897
576.126
589.957
604.335
619.167
634.363
649.857
665.622
681.513
697.39
713.108
728.586
743.748
758.512
772.807
786.595
799.855
812.584
824.791
836.51
847.83
858.872
869.756
880.489
891.098
901.602
911.968
922.131
932.064
941.772
951.251
960.495
969.505
978.274
986.806
995.1
1003.16
1010.98
1018.56
1025.91
1033.02
1039.89
1046.52
1052.9
1059.02
1064.88
1070.47
1075.8
1080.85
1085.62
1090.09
1094.27
1098.14
1101.7
1104.95
1107.88
1110.48
1112.77
1114.72
1116.35
1117.65
1118.62
1119.27
1119.6
1119.59
1119.29
1118.66
1117.73
1116.5
1114.97
1113.15
1111.06
1108.7
1106.07
1103.2
1100.09
1096.75
1093.17
1089.38
1085.36
1081.13
1076.69
1072.05
1067.21
1062.18
1056.97
1051.57
1046
1040.26
1034.36
1028.3
1022.1
1015.75
1009.26
1002.64
995.909
989.072
982.137
975.111
967.999
960.81
953.549
946.224
938.843
931.407
923.932
916.435
908.929
901.426
893.936
886.468
879.029
871.631
864.279
856.988
849.775
842.657
835.649
828.768
822.023
815.446
809.067
802.006
11463.3
1857.29
749.189
492.675
402.061
362.068
342.453
332.154
326.988
325.02
324.927
327.708
332.635
339.305
347.266
356.189
365.849
376.022
386.455
397.037
407.901
418.185
426.967
434.249
440.271
445.437
449.524
452.78
455.318
457.375
459.114
460.624
461.864
462.871
463.711
464.446
465.142
465.867
466.682
467.602
468.484
469.888
472.093
475.374
479.655
484.916
491.188
498.576
507.023
516.556
527.186
538.862
551.538
565.188
579.781
595.286
611.705
628.823
646.508
664.659
683.17
701.934
720.832
739.739
758.483
776.991
795.169
812.891
830.035
846.478
862.101
876.838
890.689
903.682
915.853
927.2
937.762
947.764
957.499
967.349
977.132
986.901
996.74
1006.55
1016.24
1025.75
1035.05
1044.09
1052.89
1061.42
1069.7
1077.72
1085.49
1093
1100.26
1107.26
1114.02
1120.54
1126.81
1132.82
1138.58
1144.06
1149.28
1154.22
1158.89
1163.27
1167.36
1171.14
1174.62
1177.78
1180.62
1183.13
1185.3
1187.13
1188.63
1189.79
1190.61
1191.08
1191.2
1191.02
1190.47
1189.59
1188.38
1186.84
1184.99
1182.83
1180.36
1177.6
1174.56
1171.25
1167.67
1163.85
1159.79
1155.5
1150.99
1146.25
1141.3
1136.14
1130.78
1125.21
1119.46
1113.52
1107.4
1101.1
1094.64
1088.01
1081.22
1074.29
1067.22
1060.02
1052.7
1045.28
1037.76
1030.14
1022.43
1014.63
1006.74
998.782
990.754
982.667
974.529
966.338
958.116
949.881
941.646
933.42
925.212
917.031
908.886
900.785
892.733
884.752
876.859
869.069
861.397
853.857
846.456
839.217
832.208
824.46
11463.3
1835.46
749.183
501.172
412.177
373.214
354.323
343.987
338.594
336.442
336.171
338.47
342.594
348.075
354.482
361.588
369.264
377.396
385.681
393.716
401.319
408.559
415.558
422.111
428.297
434.185
439.743
445.009
449.937
454.502
458.626
462.091
465.263
468.346
471.435
474.614
477.975
481.616
485.641
490.186
495.53
501.797
509.258
518.182
528.186
539.265
551.453
564.795
579.234
594.782
611.592
629.41
648.071
667.456
687.448
707.892
728.621
749.618
770.797
792.059
813.298
834.411
855.294
875.846
895.958
915.544
934.515
952.772
970.21
986.706
1002.07
1016.26
1029.39
1041.58
1052.9
1063.41
1073.13
1082.13
1090.57
1098.67
1106.51
1114.45
1122.86
1131.35
1139.78
1148.04
1156.05
1163.77
1171.23
1178.41
1185.32
1191.97
1198.34
1204.46
1210.32
1215.93
1221.31
1226.45
1231.37
1236.03
1240.45
1244.61
1248.5
1252.14
1255.51
1258.6
1261.41
1263.93
1266.15
1268.05
1269.65
1270.92
1271.85
1272.44
1272.7
1272.63
1272.22
1271.44
1270.32
1268.88
1267.1
1264.98
1262.55
1259.81
1256.76
1253.41
1249.77
1245.85
1241.66
1237.21
1232.51
1227.57
1222.4
1217.01
1211.4
1205.59
1199.57
1193.36
1186.95
1180.36
1173.6
1166.66
1159.55
1152.28
1144.85
1137.27
1129.55
1121.69
1113.71
1105.59
1097.38
1089.09
1080.71
1072.23
1063.67
1055.01
1046.29
1037.49
1028.62
1019.71
1010.75
1001.78
992.803
983.821
974.843
965.879
956.938
948.029
939.162
930.348
921.587
912.911
904.334
895.871
887.532
879.332
871.277
863.38
855.75
847.359
11463.3
1824.14
752.734
506.83
418.808
380.851
362.133
351.606
346.038
343.721
343.315
345.278
349.007
354.088
360.079
366.78
373.99
381.543
389.399
397.581
405.712
413.737
421.753
429.724
437.702
445.717
453.785
461.922
469.992
477.984
485.968
494.093
502.401
510.973
519.907
529.309
539.29
549.965
561.441
573.841
587.311
601.841
617.402
633.726
650.967
669.166
688.354
708.559
729.63
751.379
773.546
796.375
819.552
842.884
866.216
889.417
912.364
934.982
957.181
978.887
1000.05
1020.61
1040.54
1059.8
1078.34
1096.12
1113.12
1129.28
1144.57
1158.97
1172.47
1184.97
1196.5
1207.24
1217.27
1226.65
1235.36
1243.36
1250.63
1257.09
1263.18
1269.57
1275.95
1282.13
1288.03
1293.66
1298.99
1304.03
1308.82
1313.36
1317.67
1321.75
1325.6
1329.23
1332.66
1335.89
1338.93
1341.8
1344.49
1346.98
1349.27
1351.34
1353.19
1354.83
1356.24
1357.42
1358.36
1359.04
1359.45
1359.59
1359.48
1359.05
1358.28
1357.24
1355.89
1354.23
1352.26
1349.97
1347.36
1344.46
1341.25
1337.75
1333.96
1329.89
1325.54
1320.93
1316.07
1310.96
1305.6
1300.01
1294.21
1288.18
1281.96
1275.54
1268.93
1262.13
1255.15
1247.99
1240.67
1233.19
1225.54
1217.74
1209.79
1201.7
1193.46
1185.08
1176.57
1167.93
1159.17
1150.29
1141.3
1132.21
1123.02
1113.74
1104.37
1094.92
1085.38
1075.79
1066.13
1056.42
1046.67
1036.92
1027.17
1017.42
1007.68
997.955
988.255
978.591
968.979
959.43
949.976
940.621
931.376
922.251
913.257
904.408
895.71
887.173
878.935
869.957
11463.3
1815.22
755.524
510.19
422.316
386.44
368.301
358.468
354.289
352.89
353.588
356.781
361.679
367.881
375.416
384.42
393.993
404.087
415.193
427.428
440.251
453.439
467.303
481.86
497.092
512.967
529.461
546.506
564.118
582.308
601.101
620.533
640.532
661.095
682.267
704.132
726.813
750.494
775.088
800.489
826.58
853.196
880.136
907.164
934.273
961.438
988.715
1016.6
1044.35
1071.45
1097.5
1122.17
1145.62
1167.88
1188.97
1208.87
1227.6
1245.16
1261.61
1277.03
1291.46
1305
1317.67
1329.54
1340.64
1350.96
1360.52
1369.34
1377.43
1384.87
1391.88
1398.62
1405.05
1411.04
1416.48
1421.34
1425.44
1429
1432.33
1435.74
1439.32
1442.64
1445.12
1447.04
1448.61
1449.89
1450.97
1451.86
1452.61
1453.22
1453.69
1454.05
1454.29
1454.43
1454.49
1454.47
1454.37
1454.17
1453.96
1453.58
1453.11
1452.5
1451.76
1450.89
1449.87
1448.7
1447.35
1445.81
1444.07
1442.11
1439.94
1437.54
1434.9
1432.02