/*--------------------------------*- C++ -*----------------------------------*\
  =========                 |
  \\      /  F ield         | OpenFOAM: The Open Source CFD Toolbox
   \\    /   O peration     | Website:  https://openfoam.org
    \\  /    A nd           | Version:  8
     \\/     M anipulation  |
\*---------------------------------------------------------------------------*/
FoamFile
{
    version     2.0;
    format      ascii;
    class       surfaceScalarField;
    location    "900";
    object      phi;
}
// * * * * * * * * * * * * * * * * * * * * * * * * * * * * * * * * * * * * * //

dimensions      [0 3 -1 0 0 0 0];

internalField   nonuniform List<scalar> 
24170
(
3.00578e-06
1.28168e-07
2.86502e-06
1.40671e-07
2.74131e-06
1.23676e-07
2.63293e-06
1.08392e-07
2.53916e-06
9.39039e-08
2.45704e-06
8.23378e-08
2.38546e-06
7.17683e-08
2.32685e-06
5.86495e-08
2.28035e-06
4.65429e-08
2.24091e-06
3.94611e-08
2.20674e-06
3.41325e-08
2.17901e-06
2.76966e-08
2.15641e-06
2.256e-08
2.1376e-06
1.87616e-08
2.1226e-06
1.49464e-08
2.11185e-06
1.07057e-08
2.1054e-06
6.45184e-09
7.34774e-10
2.10467e-06
3.50937e-06
7.53135e-08
3.53921e-06
1.11154e-07
3.55116e-06
1.11997e-07
3.54801e-06
1.11755e-07
3.53401e-06
1.08105e-07
3.51342e-06
1.03068e-07
3.4873e-06
9.79424e-08
3.45801e-06
8.79212e-08
3.42792e-06
7.66196e-08
3.39744e-06
6.99421e-08
3.36819e-06
6.3381e-08
3.34067e-06
5.5224e-08
3.31504e-06
4.82068e-08
3.29085e-06
4.29644e-08
3.26774e-06
3.8051e-08
3.24614e-06
3.23072e-08
3.22609e-06
2.65199e-08
2.18792e-08
3.20494e-06
3.83257e-06
5.4967e-08
3.85037e-06
9.31947e-08
3.86349e-06
9.87264e-08
3.87455e-06
1.00641e-07
3.88255e-06
1.00138e-07
3.88813e-06
9.75919e-08
3.89214e-06
9.40008e-08
3.89309e-06
8.69838e-08
3.89068e-06
7.90523e-08
3.88716e-06
7.34673e-08
3.88285e-06
6.76738e-08
3.87702e-06
6.10277e-08
3.87018e-06
5.50169e-08
3.86318e-06
4.99433e-08
3.85615e-06
4.50411e-08
3.84862e-06
3.98245e-08
3.84055e-06
3.46062e-08
2.97002e-08
3.83276e-06
4.2169e-06
4.26642e-08
4.22989e-06
8.03917e-08
4.23944e-06
8.93218e-08
4.24789e-06
9.23245e-08
4.25524e-06
9.29161e-08
4.26171e-06
9.12057e-08
4.26783e-06
8.78811e-08
4.27261e-06
8.21836e-08
4.27577e-06
7.58751e-08
4.27855e-06
7.06744e-08
4.28082e-06
6.53949e-08
4.28209e-06
5.97467e-08
4.28268e-06
5.44313e-08
4.28299e-06
4.96232e-08
4.28309e-06
4.49279e-08
4.28275e-06
4.01705e-08
4.28189e-06
3.54814e-08
3.09126e-08
4.28068e-06
4.64636e-06
3.36359e-08
4.65764e-06
6.89584e-08
4.66632e-06
8.05124e-08
4.6739e-06
8.46709e-08
4.68072e-06
8.60911e-08
4.68693e-06
8.50146e-08
4.69281e-06
8.20211e-08
4.6978e-06
7.7195e-08
4.70185e-06
7.18387e-08
4.70561e-06
6.6919e-08
4.70902e-06
6.19784e-08
4.71184e-06
5.69145e-08
4.71419e-06
5.20555e-08
4.71631e-06
4.74865e-08
4.71819e-06
4.30333e-08
4.71972e-06
3.86312e-08
4.72087e-06
3.43358e-08
3.01637e-08
4.72167e-06
5.12157e-06
2.66835e-08
5.13171e-06
5.89524e-08
5.14014e-06
7.21853e-08
5.14764e-06
7.72774e-08
5.1545e-06
7.93102e-08
5.16082e-06
7.87472e-08
5.16668e-06
7.61622e-08
5.17181e-06
7.2055e-08
5.17624e-06
6.74011e-08
5.18034e-06
6.28133e-08
5.18411e-06
5.82065e-08
5.18745e-06
5.35714e-08
5.19043e-06
4.90727e-08
5.19315e-06
4.47531e-08
5.19563e-06
4.05539e-08
5.1978e-06
3.64578e-08
5.19966e-06
3.24925e-08
2.86168e-08
5.20119e-06
5.64645e-06
2.12505e-08
5.65552e-06
4.97555e-08
5.66377e-06
6.38066e-08
5.67135e-06
6.96339e-08
5.67844e-06
7.21988e-08
5.68502e-06
7.21705e-08
5.69108e-06
7.00975e-08
5.69648e-06
6.66545e-08
5.70128e-06
6.26112e-08
5.70569e-06
5.84114e-08
5.70975e-06
5.41475e-08
5.71344e-06
4.9878e-08
5.71679e-06
4.57023e-08
5.71988e-06
4.16541e-08
5.7227e-06
3.77261e-08
5.72523e-06
3.39238e-08
5.72747e-06
3.02509e-08
2.67048e-08
5.72941e-06
4.40932e-06
1.80464e-08
4.41522e-06
4.3923e-08
4.42109e-06
5.79907e-08
4.42658e-06
6.4199e-08
4.43177e-06
6.70496e-08
4.43664e-06
6.73331e-08
4.44113e-06
6.5616e-08
4.44518e-06
6.25998e-08
4.44886e-06
5.8944e-08
4.45223e-06
5.50383e-08
4.45535e-06
5.10313e-08
4.45821e-06
4.70119e-08
4.46085e-06
4.30637e-08
4.46327e-06
3.92245e-08
4.46549e-06
3.55043e-08
4.46749e-06
3.1917e-08
4.46928e-06
2.84682e-08
2.51477e-08
4.47084e-06
5.14277e-06
1.51409e-08
5.14859e-06
3.80153e-08
5.1547e-06
5.17952e-08
5.16062e-06
5.82304e-08
5.16634e-06
6.13161e-08
5.17176e-06
6.19086e-08
5.17681e-06
6.05741e-08
5.18142e-06
5.79909e-08
5.18563e-06
5.47414e-08
5.18951e-06
5.11696e-08
5.19308e-06
4.74573e-08
5.19638e-06
4.3712e-08
5.19942e-06
4.00204e-08
5.20222e-06
3.6418e-08
5.20478e-06
3.29362e-08
5.20711e-06
2.95847e-08
5.2092e-06
2.63744e-08
2.33114e-08
5.21104e-06
5.9984e-06
1.25077e-08
6.00403e-06
3.23868e-08
6.01032e-06
4.551e-08
6.01661e-06
5.19484e-08
6.02282e-06
5.51244e-08
6.02878e-06
5.59562e-08
6.03439e-06
5.49761e-08
6.03959e-06
5.28063e-08
6.04438e-06
4.99622e-08
6.0488e-06
4.67528e-08
6.05289e-06
4.3371e-08
6.05666e-06
3.99358e-08
6.06015e-06
3.65295e-08
6.06336e-06
3.32067e-08
6.0663e-06
2.99853e-08
6.06898e-06
2.6902e-08
6.0714e-06
2.3954e-08
2.11551e-08
6.07357e-06
6.99659e-06
1.01915e-08
7.00193e-06
2.69979e-08
7.00832e-06
3.90826e-08
7.01493e-06
4.53223e-08
7.02158e-06
4.84764e-08
7.02805e-06
4.94819e-08
7.03421e-06
4.88216e-08
7.03998e-06
4.70464e-08
7.04536e-06
4.45973e-08
7.05035e-06
4.17714e-08
7.05498e-06
3.87464e-08
7.05926e-06
3.56498e-08
7.06323e-06
3.25689e-08
7.06688e-06
2.95464e-08
7.07024e-06
2.66304e-08
7.0733e-06
2.38299e-08
7.07609e-06
2.11717e-08
1.8645e-08
7.07861e-06
8.16107e-06
8.11802e-09
8.16608e-06
2.1953e-08
8.1725e-06
3.26381e-08
8.17937e-06
3.84439e-08
8.1864e-06
4.14459e-08
8.19335e-06
4.25309e-08
8.20005e-06
4.21393e-08
8.20638e-06
4.07129e-08
8.21233e-06
3.86567e-08
8.21789e-06
3.62129e-08
8.22307e-06
3.35708e-08
8.22788e-06
3.08391e-08
8.23234e-06
2.81095e-08
8.23647e-06
2.54265e-08
8.24026e-06
2.28341e-08
8.24374e-06
2.03521e-08
8.24692e-06
1.79952e-08
1.57735e-08
8.24981e-06
9.51956e-06
6.28721e-09
9.52423e-06
1.72574e-08
9.53061e-06
2.62478e-08
9.53767e-06
3.13682e-08
9.54504e-06
3.40793e-08
9.55244e-06
3.5139e-08
9.55965e-06
3.49299e-08
9.56655e-06
3.38241e-08
9.57307e-06
3.21248e-08
9.57922e-06
3.00782e-08
9.58495e-06
2.78242e-08
9.59032e-06
2.54898e-08
9.59529e-06
2.31314e-08
9.59991e-06
2.08226e-08
9.60415e-06
1.85757e-08
9.60807e-06
1.64416e-08
9.61165e-06
1.44062e-08
1.25042e-08
9.61492e-06
1.11044e-05
4.62486e-09
1.11087e-05
1.28569e-08
1.1115e-05
1.99446e-08
1.11222e-05
2.41376e-08
1.11299e-05
2.6401e-08
1.11377e-05
2.7319e-08
1.11455e-05
2.72119e-08
1.11529e-05
2.63545e-08
1.11601e-05
2.50005e-08
1.11668e-05
2.33314e-08
1.11731e-05
2.14879e-08
1.11791e-05
1.95547e-08
1.11846e-05
1.76092e-08
1.11897e-05
1.56841e-08
1.11945e-05
1.38294e-08
1.11988e-05
1.20525e-08
1.12029e-05
1.03814e-08
8.8097e-09
1.12066e-05
1.29532e-05
3.08714e-09
1.29573e-05
8.66537e-09
1.29635e-05
1.37102e-08
1.29709e-05
1.67615e-08
1.29789e-05
1.84089e-08
1.29871e-05
1.90636e-08
1.29954e-05
1.89567e-08
1.30035e-05
1.82886e-08
1.30112e-05
1.72352e-08
1.30186e-05
1.59372e-08
1.30256e-05
1.44982e-08
1.30322e-05
1.29905e-08
1.30383e-05
1.14677e-08
1.3044e-05
9.96786e-09
1.30493e-05
8.52057e-09
1.30542e-05
7.14458e-09
1.30587e-05
5.85072e-09
4.6489e-09
1.30629e-05
1.51099e-05
1.6067e-09
1.5114e-05
4.54913e-09
1.51202e-05
7.45743e-09
1.51278e-05
9.16675e-09
1.51362e-05
1.00344e-08
1.51449e-05
1.03013e-08
1.51538e-05
1.00973e-08
1.51625e-05
9.54793e-09
1.5171e-05
8.75499e-09
1.51792e-05
7.80966e-09
1.51869e-05
6.7759e-09
1.51942e-05
5.70413e-09
1.5201e-05
4.62883e-09
1.52074e-05
3.57812e-09
1.52133e-05
2.57125e-09
1.52188e-05
1.6229e-09
1.52239e-05
7.38756e-10
-7.03418e-11
1.52287e-05
1.76259e-05
1.05613e-10
1.76302e-05
3.27142e-10
1.76367e-05
9.52892e-10
1.76447e-05
1.13231e-09
1.76537e-05
1.07059e-09
1.76631e-05
8.20765e-10
1.76728e-05
4.44848e-10
1.76824e-05
-5.18771e-11
1.76918e-05
-6.05928e-10
1.77008e-05
-1.2122e-09
1.77094e-05
-1.82601e-09
1.77175e-05
-2.44578e-09
1.77252e-05
-3.04214e-09
1.77324e-05
-3.61506e-09
1.77391e-05
-4.14579e-09
1.77453e-05
-4.63568e-09
1.77511e-05
-5.07635e-09
-5.46516e-09
1.77566e-05
1.78277e-05
-1.34895e-09
1.78318e-05
-3.75289e-09
1.78381e-05
-5.36232e-09
1.78459e-05
-6.67104e-09
1.78546e-05
-7.68966e-09
1.78639e-05
-8.43301e-09
1.78734e-05
-9.02561e-09
1.78828e-05
-9.45938e-09
1.7892e-05
-9.81735e-09
1.79009e-05
-1.00815e-08
1.79094e-05
-1.03104e-08
1.79174e-05
-1.04798e-08
1.7925e-05
-1.06279e-08
1.79321e-05
-1.07304e-08
1.79388e-05
-1.08133e-08
1.7945e-05
-1.0856e-08
1.79508e-05
-1.08795e-08
-1.08622e-08
1.79562e-05
1.58827e-05
-2.73924e-09
1.58866e-05
-7.62037e-09
1.58925e-05
-1.12334e-08
1.58997e-05
-1.3871e-08
1.59077e-05
-1.56555e-08
1.59161e-05
-1.68349e-08
1.59246e-05
-1.75376e-08
1.59331e-05
-1.79196e-08
1.59413e-05
-1.80334e-08
1.59492e-05
-1.80008e-08
1.59568e-05
-1.78407e-08
1.59639e-05
-1.76229e-08
1.59706e-05
-1.7344e-08
1.59769e-05
-1.70458e-08
1.59828e-05
-1.67169e-08
1.59883e-05
-1.63824e-08
1.59935e-05
-1.60304e-08
-1.56719e-08
1.59983e-05
1.41501e-05
-4.18635e-09
1.41541e-05
-1.15724e-08
1.41599e-05
-1.70798e-08
1.41669e-05
-2.0836e-08
1.41745e-05
-2.32549e-08
1.41824e-05
-2.4715e-08
1.41903e-05
-2.54751e-08
1.41981e-05
-2.56977e-08
1.42057e-05
-2.5567e-08
1.42129e-05
-2.5189e-08
1.42197e-05
-2.46671e-08
1.42261e-05
-2.40504e-08
1.42321e-05
-2.33884e-08
1.42378e-05
-2.27018e-08
1.42431e-05
-2.20124e-08
1.4248e-05
-2.13244e-08
1.42526e-05
-2.06486e-08
-1.99768e-08
1.4257e-05
1.26066e-05
-5.78577e-09
1.26109e-05
-1.58654e-08
1.2617e-05
-2.31422e-08
1.26239e-05
-2.78103e-08
1.26314e-05
-3.06795e-08
1.2639e-05
-3.23095e-08
1.26465e-05
-3.30035e-08
1.26538e-05
-3.30087e-08
1.26608e-05
-3.25543e-08
1.26675e-05
-3.18148e-08
1.26737e-05
-3.09071e-08
1.26796e-05
-2.99009e-08
1.2685e-05
-2.88627e-08
1.26902e-05
-2.78124e-08
1.26949e-05
-2.67849e-08
1.26994e-05
-2.57761e-08
1.27035e-05
-2.48045e-08
-2.38555e-08
1.27074e-05
1.12317e-05
-7.66507e-09
1.12365e-05
-2.06816e-08
1.12429e-05
-2.95746e-08
1.125e-05
-3.48984e-08
1.12574e-05
-3.80522e-08
1.12648e-05
-3.9728e-08
1.1272e-05
-4.02454e-08
1.1279e-05
-3.99393e-08
1.12856e-05
-3.91123e-08
1.12917e-05
-3.79706e-08
1.12975e-05
-3.665e-08
1.13028e-05
-3.52518e-08
1.13078e-05
-3.38347e-08
1.13125e-05
-3.24468e-08
1.13168e-05
-3.10928e-08
1.13208e-05
-2.97967e-08
1.13245e-05
-2.85466e-08
-2.73539e-08
1.1328e-05
1.00069e-05
-9.96089e-09
1.00125e-05
-2.62506e-08
1.00193e-05
-3.64549e-08
1.00266e-05
-4.21434e-08
1.0034e-05
-4.54313e-08
1.00413e-05
-4.70239e-08
1.00483e-05
-4.72607e-08
1.00549e-05
-4.65556e-08
1.00611e-05
-4.52873e-08
1.00668e-05
-4.37053e-08
1.00721e-05
-4.19551e-08
1.00771e-05
-4.0156e-08
1.00816e-05
-3.83724e-08
1.00858e-05
-3.66445e-08
1.00897e-05
-3.49895e-08
1.00933e-05
-3.34132e-08
1.00967e-05
-3.192e-08
-3.04952e-08
1.00999e-05
8.91604e-06
-1.29054e-08
8.92253e-06
-3.27456e-08
8.92988e-06
-4.38127e-08
8.9373e-06
-4.95695e-08
8.94471e-06
-5.28454e-08
8.95191e-06
-5.42242e-08
8.95869e-06
-5.40501e-08
8.965e-06
-5.28677e-08
8.97083e-06
-5.11152e-08
8.97619e-06
-4.90613e-08
8.98111e-06
-4.68769e-08
8.98564e-06
-4.4672e-08
8.98981e-06
-4.25275e-08
8.99364e-06
-4.04693e-08
8.99718e-06
-3.85221e-08
9.00046e-06
-3.66836e-08
9.0035e-06
-3.49551e-08
-3.33241e-08
9.00633e-06
7.94452e-06
-1.67536e-08
7.95221e-06
-4.04388e-08
7.96004e-06
-5.16462e-08
7.96766e-06
-5.71856e-08
7.97514e-06
-6.03311e-08
7.98226e-06
-6.13473e-08
7.98885e-06
-6.06574e-08
7.9949e-06
-5.89206e-08
8.00043e-06
-5.66463e-08
8.00549e-06
-5.41184e-08
8.01011e-06
-5.1496e-08
8.01433e-06
-4.88962e-08
8.01819e-06
-4.63815e-08
8.02171e-06
-4.39958e-08
8.02495e-06
-4.17495e-08
8.02792e-06
-3.9655e-08
8.03067e-06
-3.77002e-08
-3.58667e-08
8.03322e-06
7.07946e-06
-2.18758e-08
7.08873e-06
-4.97266e-08
7.09719e-06
-6.01038e-08
7.10517e-06
-6.51725e-08
7.11287e-06
-6.80291e-08
7.12005e-06
-6.85346e-08
7.1266e-06
-6.72132e-08
7.13255e-06
-6.48905e-08
7.13796e-06
-6.20612e-08
7.14289e-06
-5.90431e-08
7.14735e-06
-5.59645e-08
7.15139e-06
-5.29358e-08
7.15504e-06
-5.00333e-08
7.15832e-06
-4.72772e-08
7.16128e-06
-4.47115e-08
7.16396e-06
-4.2334e-08
7.1664e-06
-4.01428e-08
-3.81175e-08
7.16865e-06
6.31008e-06
-2.9445e-08
6.32145e-06
-6.10422e-08
6.33116e-06
-6.986e-08
6.34022e-06
-7.42301e-08
6.34879e-06
-7.66015e-08
6.35661e-06
-7.63656e-08
6.36363e-06
-7.42553e-08
6.36994e-06
-7.11808e-08
6.37556e-06
-6.77001e-08
6.38055e-06
-6.40431e-08
6.38496e-06
-6.03708e-08
6.38879e-06
-5.67832e-08
6.3921e-06
-5.33275e-08
6.39489e-06
-5.00869e-08
6.39726e-06
-4.70812e-08
6.39927e-06
-4.43465e-08
6.40098e-06
-4.18581e-08
-3.96162e-08
6.40248e-06
5.62941e-06
-4.39409e-08
5.64523e-06
-7.68409e-08
5.65887e-06
-8.3531e-08
5.67159e-06
-8.69591e-08
5.68313e-06
-8.81542e-08
5.69316e-06
-8.64122e-08
5.70164e-06
-8.27358e-08
5.70859e-06
-7.81327e-08
5.71401e-06
-7.31357e-08
5.71797e-06
-6.80201e-08
5.72058e-06
-6.29824e-08
5.72197e-06
-5.81725e-08
5.72234e-06
-5.3701e-08
5.72187e-06
-4.9625e-08
5.72074e-06
-4.5964e-08
5.71912e-06
-4.27298e-08
5.71714e-06
-3.98808e-08
-3.76168e-08
5.71514e-06
5.04797e-06
-8.95955e-08
5.07972e-06
-1.08563e-07
5.10258e-06
-1.06425e-07
5.11803e-06
-1.02424e-07
5.12634e-06
-9.64778e-08
5.12829e-06
-8.83791e-08
5.12496e-06
-7.94067e-08
5.11725e-06
-7.04231e-08
5.10601e-06
-6.19239e-08
5.09214e-06
-5.41666e-08
5.07644e-06
-4.72868e-08
5.05962e-06
-4.1343e-08
5.04221e-06
-3.62996e-08
5.0246e-06
-3.20333e-08
5.00705e-06
-2.84211e-08
4.98976e-06
-2.5455e-08
4.97302e-06
-2.31386e-08
-2.18359e-08
4.95724e-06
4.36696e-06
4.25839e-06
4.15196e-06
4.04954e-06
3.95306e-06
3.86468e-06
3.78527e-06
3.71484e-06
3.65292e-06
3.59875e-06
3.55146e-06
3.51012e-06
3.47382e-06
3.44178e-06
3.41336e-06
3.3879e-06
3.36476e-06
3.34293e-06
-8.30384e-09
8.32025e-09
-2.24703e-08
1.4182e-08
-3.79251e-08
1.54878e-08
-5.12832e-08
1.33546e-08
-5.7264e-08
6.02561e-09
-4.98767e-08
-7.42057e-09
-2.6779e-08
-2.30411e-08
9.42844e-09
-3.62523e-08
5.47531e-08
-4.52668e-08
1.04194e-07
-4.9481e-08
1.53426e-07
-4.91853e-08
1.99161e-07
-4.57672e-08
2.39499e-07
-4.03004e-08
2.73055e-07
-3.35846e-08
2.99226e-07
-2.61466e-08
3.17497e-07
-1.82971e-08
3.27679e-07
-1.01731e-08
3.29397e-07
-1.73553e-09
3.22485e-07
6.90601e-09
3.07107e-07
1.53754e-08
2.83846e-07
2.32481e-08
2.53722e-07
3.01411e-08
2.18071e-07
3.56419e-08
1.788e-07
3.92946e-08
1.38146e-07
4.06455e-08
9.8787e-08
3.93748e-08
6.33272e-08
3.54445e-08
3.40247e-08
2.93033e-08
1.20376e-08
2.19529e-08
-2.59259e-09
1.4629e-08
-1.07792e-08
8.11999e-09
-1.28257e-08
2.07338e-09
-8.68865e-09
-4.21353e-09
2.993e-09
-1.16124e-08
2.33311e-08
-2.03885e-08
5.23491e-08
-2.89636e-08
8.59793e-08
-3.36388e-08
1.18234e-07
-3.22668e-08
1.43749e-07
-2.54981e-08
1.5924e-07
-1.55553e-08
1.65092e-07
-5.84405e-09
1.64118e-07
9.0407e-10
1.6015e-07
3.94942e-09
1.56928e-07
3.19392e-09
1.56264e-07
6.64079e-10
1.50993e-07
5.29292e-09
1.31514e-07
1.94786e-08
8.98893e-08
4.16757e-08
2.10975e-08
6.87509e-08
-7.15814e-08
9.27197e-08
-1.83391e-07
1.11779e-07
-3.10717e-07
1.27342e-07
-4.50539e-07
1.39819e-07
-5.99021e-07
1.48466e-07
-7.48877e-07
1.49864e-07
-8.96921e-07
1.48016e-07
-1.0417e-06
1.44812e-07
-1.18e-06
1.38277e-07
-1.30922e-06
1.29257e-07
-1.42922e-06
1.19973e-07
-1.53976e-06
1.10575e-07
-1.64079e-06
1.01005e-07
-1.73331e-06
9.25627e-08
-1.81818e-06
8.48446e-08
-1.89585e-06
7.77073e-08
-1.96732e-06
7.1443e-08
-2.0332e-06
6.59176e-08
-2.09426e-06
6.1054e-08
-2.15102e-06
5.67908e-08
-2.20405e-06
5.30271e-08
-2.25371e-06
4.96942e-08
-2.30041e-06
4.67121e-08
-2.34442e-06
4.40256e-08
-2.38596e-06
4.15806e-08
-2.42528e-06
3.93312e-08
-2.46248e-06
3.72466e-08
-2.49776e-06
3.52907e-08
-2.53116e-06
3.34507e-08
-2.56285e-06
3.16946e-08
-2.59283e-06
3.00236e-08
-2.62125e-06
2.84064e-08
-2.64806e-06
2.6854e-08
-2.67343e-06
2.53351e-08
-2.69726e-06
2.38672e-08
-2.71971e-06
2.24203e-08
-2.7407e-06
2.10157e-08
-2.76034e-06
1.96247e-08
-2.77859e-06
1.82639e-08
-2.79553e-06
1.69064e-08
-2.81112e-06
1.5557e-08
-2.82532e-06
1.41937e-08
-2.83809e-06
1.28178e-08
-2.84946e-06
1.14102e-08
-2.85938e-06
9.96432e-09
-2.86782e-06
8.46708e-09
-2.87473e-06
6.90848e-09
-2.88002e-06
5.28023e-09
-2.88362e-06
3.56419e-09
-2.88543e-06
1.77729e-09
-2.88548e-06
-1.06127e-12
-2.88396e-06
-1.55723e-09
-2.88108e-06
-2.928e-09
-2.87685e-06
-4.26053e-09
-2.8713e-06
-5.59342e-09
-2.86439e-06
-6.92462e-09
-2.85615e-06
-8.27212e-09
-2.84653e-06
-9.61837e-09
-2.83556e-06
-1.09786e-08
-2.82321e-06
-1.23343e-08
-2.80951e-06
-1.36984e-08
-2.79442e-06
-1.50544e-08
-2.77798e-06
-1.6412e-08
-2.76018e-06
-1.77585e-08
-2.74104e-06
-1.90997e-08
-2.72056e-06
-2.0427e-08
-2.69877e-06
-2.17423e-08
-2.67567e-06
-2.30415e-08
-2.6513e-06
-2.43222e-08
-2.62566e-06
-2.55851e-08
-2.59878e-06
-2.68242e-08
-2.57069e-06
-2.80439e-08
-2.54141e-06
-2.9236e-08
-2.51096e-06
-3.04079e-08
-2.47938e-06
-3.15503e-08
-2.44668e-06
-3.26724e-08
-2.4129e-06
-3.37649e-08
-2.37805e-06
-3.48356e-08
-2.34218e-06
-3.58709e-08
-2.30531e-06
-3.68795e-08
-2.26746e-06
-3.78543e-08
-2.22868e-06
-3.88011e-08
-2.18898e-06
-3.9714e-08
-2.14842e-06
-4.0581e-08
-2.10704e-06
-4.13952e-08
-2.06493e-06
-4.21437e-08
-2.02215e-06
-4.28096e-08
-1.97861e-06
-4.35482e-08
-1.93426e-06
-4.43661e-08
-1.88918e-06
-4.51016e-08
-1.84342e-06
-4.57958e-08
-1.79701e-06
-4.64525e-08
-1.74998e-06
-4.70817e-08
-1.70233e-06
-4.76687e-08
-1.65412e-06
-4.82297e-08
-1.60536e-06
-4.87544e-08
-1.55608e-06
-4.92538e-08
-1.5063e-06
-4.97244e-08
-1.45607e-06
-5.01688e-08
-1.4054e-06
-5.05883e-08
-1.35434e-06
-5.09861e-08
-1.30294e-06
-5.13486e-08
-1.2512e-06
-5.16932e-08
-1.19918e-06
-5.19928e-08
-1.1469e-06
-5.22618e-08
-1.0944e-06
-5.24912e-08
-1.04172e-06
-5.26929e-08
-9.88866e-07
-5.2868e-08
-9.35879e-07
-5.30151e-08
-8.82766e-07
-5.31498e-08
-8.29545e-07
-5.32659e-08
-7.76223e-07
-5.33721e-08
-7.22813e-07
-5.34639e-08
-6.69326e-07
-5.35442e-08
-6.15774e-07
-5.36084e-08
-5.6217e-07
-5.36607e-08
-5.08522e-07
-5.37009e-08
-4.54838e-07
-5.37363e-08
-4.01117e-07
-5.37681e-08
-3.47362e-07
-5.38013e-08
-2.93569e-07
-5.38343e-08
-2.39754e-07
-5.38563e-08
-1.85939e-07
-5.38522e-08
-1.3218e-07
-5.3794e-08
-7.85894e-08
-5.36205e-08
-2.54251e-08
-5.31907e-08
2.68921e-08
-5.23377e-08
7.77401e-08
-5.08616e-08
1.25227e-07
-4.74896e-08
1.68322e-07
-4.30877e-08
-1.6922e-08
1.85246e-07
-3.43688e-09
1.17857e-08
-9.54393e-09
2.03122e-08
-1.23429e-08
1.8359e-08
-4.791e-09
5.80232e-09
1.83362e-08
-1.70314e-08
5.60056e-08
-4.51085e-08
1.03908e-07
-7.09033e-08
1.56407e-07
-8.87681e-08
2.08464e-07
-9.72958e-08
2.56648e-07
-9.768e-08
2.99533e-07
-9.20476e-08
3.3633e-07
-8.2577e-08
3.66992e-07
-7.0944e-08
3.91654e-07
-5.82583e-08
4.10707e-07
-4.51873e-08
4.24493e-07
-3.2094e-08
4.33478e-07
-1.9153e-08
4.3819e-07
-6.45576e-09
4.39059e-07
6.03399e-09
4.36005e-07
1.84282e-08
4.28564e-07
3.06838e-08
4.16158e-07
4.2556e-08
3.98198e-07
5.35985e-08
3.74356e-07
6.31503e-08
3.44628e-07
7.03731e-08
3.09645e-07
7.43637e-08
2.7073e-07
7.43556e-08
2.30047e-07
6.99854e-08
1.90509e-07
6.14708e-08
1.55612e-07
4.9521e-08
1.28721e-07
3.49656e-08
1.12422e-07
1.83835e-08
1.08032e-07
1.22053e-10
1.15475e-07
-1.90164e-08
1.32634e-07
-3.75715e-08
1.54421e-07
-5.07246e-08
1.73665e-07
-5.28804e-08
1.85442e-07
-4.40604e-08
1.88042e-07
-2.80884e-08
1.81271e-07
-8.84146e-09
1.66782e-07
8.64221e-09
1.45858e-07
2.17432e-08
1.12882e-07
3.69299e-08
5.70499e-08
5.89691e-08
-3.08184e-08
8.85466e-08
-1.50443e-07
1.24924e-07
-2.92858e-07
1.61904e-07
-4.47601e-07
1.96432e-07
-6.06998e-07
2.28149e-07
-7.68553e-07
2.54282e-07
-9.29747e-07
2.72973e-07
-1.08681e-06
2.84406e-07
-1.2356e-06
2.88609e-07
-1.3728e-06
2.85664e-07
-1.49867e-06
2.75735e-07
-1.61166e-06
2.60999e-07
-1.71097e-06
2.44125e-07
-1.79835e-06
2.25655e-07
-1.87573e-06
2.06643e-07
-1.94418e-06
1.88422e-07
-2.00513e-06
1.71532e-07
-2.06024e-06
1.56111e-07
-2.1102e-06
1.42529e-07
-2.15597e-06
1.30617e-07
-2.19841e-06
1.20154e-07
-2.238e-06
1.11038e-07
-2.27515e-06
1.03079e-07
-2.31019e-06
9.61031e-08
-2.34334e-06
8.99534e-08
-2.37479e-06
8.4482e-08
-2.40465e-06
7.95715e-08
-2.43304e-06
7.51173e-08
-2.46003e-06
7.10343e-08
-2.48568e-06
6.72523e-08
-2.51004e-06
6.37163e-08
-2.53315e-06
6.03813e-08
-2.55505e-06
5.721e-08
-2.57575e-06
5.41769e-08
-2.5953e-06
5.12552e-08
-2.61368e-06
4.84321e-08
-2.63096e-06
4.56861e-08
-2.6471e-06
4.30122e-08
-2.66216e-06
4.03918e-08
-2.67612e-06
3.78246e-08
-2.68899e-06
3.52941e-08
-2.70077e-06
3.28024e-08
-2.71148e-06
3.03343e-08
-2.7211e-06
2.78873e-08
-2.72967e-06
2.54518e-08
-2.73715e-06
2.301e-08
-2.74351e-06
2.05593e-08
-2.74875e-06
1.80897e-08
-2.7529e-06
1.55896e-08
-2.75596e-06
1.3058e-08
-2.75797e-06
1.04882e-08
-2.75895e-06
7.88589e-09
-2.75894e-06
5.25594e-09
-2.75802e-06
2.61876e-09
-2.75629e-06
7.72263e-12
-2.75377e-06
-2.54832e-09
-2.75028e-06
-5.09108e-09
-2.74557e-06
-7.66815e-09
-2.7396e-06
-1.02671e-08
-2.73233e-06
-1.28864e-08
-2.72375e-06
-1.55246e-08
-2.71385e-06
-1.81835e-08
-2.70262e-06
-2.08557e-08
-2.69006e-06
-2.35422e-08
-2.67616e-06
-2.62331e-08
-2.66091e-06
-2.8929e-08
-2.64433e-06
-3.16194e-08
-2.62641e-06
-3.43044e-08
-2.60717e-06
-3.69739e-08
-2.58661e-06
-3.96276e-08
-2.56474e-06
-4.22567e-08
-2.54159e-06
-4.48597e-08
-2.51716e-06
-4.74302e-08
-2.49147e-06
-4.99655e-08
-2.46456e-06
-5.24615e-08
-2.43643e-06
-5.49145e-08
-2.40711e-06
-5.73233e-08
-2.37664e-06
-5.9683e-08
-2.34502e-06
-6.19954e-08
-2.31229e-06
-6.42553e-08
-2.27848e-06
-6.64666e-08
-2.24361e-06
-6.86233e-08
-2.20771e-06
-7.07294e-08
-2.17081e-06
-7.27757e-08
-2.13293e-06
-7.47657e-08
-2.0941e-06
-7.6693e-08
-2.05434e-06
-7.8562e-08
-2.0137e-06
-8.03672e-08
-1.97219e-06
-8.21061e-08
-1.92983e-06
-8.3774e-08
-1.88662e-06
-8.53709e-08
-1.84255e-06
-8.68955e-08
-1.79768e-06
-8.84183e-08
-1.75212e-06
-8.99321e-08
-1.70587e-06
-9.13721e-08
-1.65894e-06
-9.2747e-08
-1.61137e-06
-9.40578e-08
-1.56317e-06
-9.53059e-08
-1.51437e-06
-9.64851e-08
-1.465e-06
-9.76034e-08
-1.41509e-06
-9.86596e-08
-1.36466e-06
-9.9658e-08
-1.31374e-06
-1.00602e-07
-1.26237e-06
-1.01494e-07
-1.21057e-06
-1.02333e-07
-1.15839e-06
-1.03127e-07
-1.10585e-06
-1.03857e-07
-1.05298e-06
-1.04534e-07
-9.99826e-07
-1.05133e-07
-9.46418e-07
-1.05665e-07
-8.92786e-07
-1.06123e-07
-8.38969e-07
-1.06522e-07
-7.84988e-07
-1.06864e-07
-7.30871e-07
-1.07158e-07
-6.76635e-07
-1.07414e-07
-6.22297e-07
-1.07641e-07
-5.67866e-07
-1.0784e-07
-5.13356e-07
-1.08017e-07
-4.58775e-07
-1.08166e-07
-4.04138e-07
-1.0829e-07
-3.49453e-07
-1.08386e-07
-2.9473e-07
-1.08465e-07
-2.39973e-07
-1.08531e-07
-1.85183e-07
-1.08594e-07
-1.30359e-07
-1.08659e-07
-7.54973e-08
-1.08727e-07
-2.06056e-08
-1.08778e-07
3.43001e-08
-1.08785e-07
8.91691e-08
-1.08688e-07
1.439e-07
-1.08371e-07
1.98337e-07
-1.07646e-07
2.52175e-07
-1.06188e-07
3.04711e-07
-1.03406e-07
3.55401e-07
-9.81784e-08
4.00945e-07
-8.86253e-08
-5.99303e-08
4.43959e-07
5.2442e-10
1.12881e-08
4.39504e-09
1.64701e-08
1.94664e-08
3.3392e-09
5.34739e-08
-2.82026e-08
1.04971e-07
-6.85011e-08
1.64238e-07
-1.04384e-07
2.21347e-07
-1.27994e-07
2.70628e-07
-1.38059e-07
3.10478e-07
-1.3713e-07
3.41546e-07
-1.28757e-07
3.65488e-07
-1.15975e-07
3.8381e-07
-1.00907e-07
3.9775e-07
-8.48715e-08
4.08094e-07
-6.86082e-08
4.15422e-07
-5.25053e-08
4.20075e-07
-3.67518e-08
4.22364e-07
-2.14357e-08
4.22509e-07
-6.60441e-09
4.20822e-07
7.72289e-09
4.17662e-07
2.15881e-08
4.13308e-07
3.50373e-08
4.07812e-07
4.80546e-08
4.00911e-07
6.04989e-08
3.92032e-07
7.20343e-08
3.80331e-07
8.20709e-08
3.64944e-07
8.97567e-08
3.45265e-07
9.40294e-08
3.21454e-07
9.37943e-08
2.94693e-07
8.82225e-08
2.67275e-07
7.69329e-08
2.4209e-07
6.01313e-08
2.21885e-07
3.85934e-08
2.08203e-07
1.379e-08
2.00971e-07
-1.17654e-08
1.9568e-07
-3.22796e-08
1.84972e-07
-4.00057e-08
1.64978e-07
-3.28769e-08
1.35836e-07
-1.4931e-08
9.81664e-08
9.58747e-09
4.95647e-08
3.97169e-08
-1.60843e-08
7.42837e-08
-1.05883e-07
1.11508e-07
-2.2119e-07
1.52229e-07
-3.58289e-07
1.9606e-07
-5.10202e-07
2.4046e-07
-6.6752e-07
2.82244e-07
-8.24229e-07
3.18614e-07
-9.75404e-07
3.47613e-07
-1.1158e-06
3.68544e-07
-1.2426e-06
3.81088e-07
-1.35485e-06
3.85231e-07
-1.45208e-06
3.81645e-07
-1.5348e-06
3.71326e-07
-1.60468e-06
3.55545e-07
-1.66469e-06
3.35738e-07
-1.7173e-06
3.13614e-07
-1.76399e-06
2.90816e-07
-1.80661e-06
2.68272e-07
-1.84664e-06
2.46674e-07
-1.88482e-06
2.26598e-07
-1.92161e-06
2.08326e-07
-1.95739e-06
1.91891e-07
-1.99216e-06
1.77304e-07
-2.02596e-06
1.64413e-07
-2.05882e-06
1.53018e-07
-2.09072e-06
1.42943e-07
-2.12163e-06
1.34001e-07
-2.15154e-06
1.26018e-07
-2.18042e-06
1.18838e-07
-2.20825e-06
1.12326e-07
-2.23503e-06
1.06364e-07
-2.26075e-06
1.00852e-07
-2.28542e-06
9.57096e-08
-2.30902e-06
9.08693e-08
-2.33156e-06
8.62758e-08
-2.35304e-06
8.18867e-08
-2.37348e-06
7.76665e-08
-2.39287e-06
7.35882e-08
-2.41123e-06
6.96287e-08
-2.42856e-06
6.57715e-08
-2.44487e-06
6.20002e-08
-2.46015e-06
5.83043e-08
-2.47443e-06
5.46707e-08
-2.4877e-06
5.10925e-08
-2.49996e-06
4.75582e-08
-2.51122e-06
4.40626e-08
-2.52148e-06
4.05938e-08
-2.53073e-06
3.71461e-08
-2.53901e-06
3.37052e-08
-2.54628e-06
3.02639e-08
-2.55252e-06
2.6808e-08
-2.55774e-06
2.33287e-08
-2.56194e-06
1.98229e-08
-2.56515e-06
1.62819e-08
-2.56737e-06
1.27057e-08
-2.56859e-06
9.09771e-09
-2.56881e-06
5.46289e-09
-2.56803e-06
1.81477e-09
-2.56621e-06
-1.84104e-09
-2.56328e-06
-5.50784e-09
-2.55918e-06
-9.22323e-09
-2.55388e-06
-1.29973e-08
-2.54735e-06
-1.68236e-08
-2.53956e-06
-2.06881e-08
-2.53051e-06
-2.4592e-08
-2.52018e-06
-2.85237e-08
-2.50857e-06
-3.2483e-08
-2.49565e-06
-3.64579e-08
-2.48143e-06
-4.04463e-08
-2.46592e-06
-4.44365e-08
-2.4491e-06
-4.84243e-08
-2.43098e-06
-5.2399e-08
-2.41158e-06
-5.63551e-08
-2.3909e-06
-6.02835e-08
-2.36895e-06
-6.4178e-08
-2.34575e-06
-6.80312e-08
-2.32131e-06
-7.18367e-08
-2.29566e-06
-7.55891e-08
-2.2688e-06
-7.92824e-08
-2.24078e-06
-8.29131e-08
-2.21159e-06
-8.64758e-08
-2.18128e-06
-8.99688e-08
-2.14987e-06
-9.33882e-08
-2.11737e-06
-9.67333e-08
-2.08382e-06
-1.00002e-07
-2.04924e-06
-1.03193e-07
-2.01366e-06
-1.06306e-07
-1.9771e-06
-1.09337e-07
-1.93958e-06
-1.12285e-07
-1.90113e-06
-1.15147e-07
-1.86178e-06
-1.17923e-07
-1.82154e-06
-1.2061e-07
-1.78045e-06
-1.23206e-07
-1.73853e-06
-1.25711e-07
-1.69579e-06
-1.28127e-07
-1.65224e-06
-1.30458e-07
-1.60794e-06
-1.32732e-07
-1.56293e-06
-1.34946e-07
-1.51725e-06
-1.37073e-07
-1.47091e-06
-1.39115e-07
-1.42393e-06
-1.41067e-07
-1.37633e-06
-1.42927e-07
-1.32814e-06
-1.44691e-07
-1.27939e-06
-1.46363e-07
-1.23011e-06
-1.47946e-07
-1.18031e-06
-1.49441e-07
-1.13004e-06
-1.50853e-07
-1.07932e-06
-1.52188e-07
-1.02818e-06
-1.53442e-07
-9.76662e-07
-1.54625e-07
-9.2479e-07
-1.55714e-07
-8.72599e-07
-1.56714e-07
-8.20119e-07
-1.57607e-07
-7.67388e-07
-1.58392e-07
-7.14437e-07
-1.59073e-07
-6.613e-07
-1.59658e-07
-6.08005e-07
-1.60163e-07
-5.54575e-07
-1.60592e-07
-5.01031e-07
-1.60964e-07
-4.47389e-07
-1.61288e-07
-3.93663e-07
-1.61574e-07
-3.39861e-07
-1.61824e-07
-2.85997e-07
-1.62036e-07
-2.3208e-07
-1.6221e-07
-1.7812e-07
-1.62349e-07
-1.24123e-07
-1.62462e-07
-7.00936e-08
-1.62562e-07
-1.60264e-08
-1.6266e-07
3.80805e-08
-1.62765e-07
9.2229e-08
-1.62873e-07
1.46415e-07
-1.62963e-07
2.00622e-07
-1.62989e-07
2.54805e-07
-1.62869e-07
3.08893e-07
-1.62458e-07
3.62763e-07
-1.61515e-07
4.16193e-07
-1.59617e-07
4.68819e-07
-1.56032e-07
5.20237e-07
-1.49595e-07
5.69513e-07
-1.37901e-07
-1.10636e-07
6.20216e-07
-1.16697e-10
1.14355e-08
1.33638e-08
3.01266e-09
5.40282e-08
-3.72933e-08
1.17047e-07
-9.12237e-08
1.84898e-07
-1.36336e-07
2.43219e-07
-1.62713e-07
2.86437e-07
-1.712e-07
3.15468e-07
-1.67098e-07
3.34002e-07
-1.55654e-07
3.45712e-07
-1.40475e-07
3.53343e-07
-1.23594e-07
3.58473e-07
-1.06043e-07
3.61956e-07
-8.83427e-08
3.64108e-07
-7.07646e-08
3.65079e-07
-5.34652e-08
3.6487e-07
-3.65473e-08
3.63532e-07
-2.00875e-08
3.61075e-07
-4.1505e-09
3.57596e-07
1.12091e-08
3.5322e-07
2.59625e-08
3.48181e-07
4.00804e-08
3.4271e-07
5.3527e-08
3.36982e-07
6.62278e-08
3.31007e-07
7.80117e-08
3.24541e-07
8.85362e-08
3.17077e-07
9.72201e-08
3.07893e-07
1.03208e-07
2.96308e-07
1.05383e-07
2.81923e-07
1.02594e-07
2.64947e-07
9.39181e-08
2.46272e-07
7.87941e-08
2.27265e-07
5.76251e-08
2.08198e-07
3.28503e-08
1.8517e-07
1.12902e-08
1.51219e-07
1.67245e-09
1.03922e-07
7.30534e-09
4.41366e-08
2.69102e-08
-2.93995e-08
5.85946e-08
-1.19426e-07
9.961e-08
-2.2668e-07
1.46953e-07
-3.49706e-07
1.97303e-07
-4.85974e-07
2.47764e-07
-6.30116e-07
2.96368e-07
-7.75486e-07
3.41426e-07
-9.1585e-07
3.80823e-07
-1.04567e-06
4.12064e-07
-1.16125e-06
4.34194e-07
-1.26119e-06
4.47557e-07
-1.34511e-06
4.52469e-07
-1.41384e-06
4.49827e-07
-1.46934e-06
4.4073e-07
-1.51404e-06
4.2635e-07
-1.55069e-06
4.07973e-07
-1.58198e-06
3.86841e-07
-1.61034e-06
3.64095e-07
-1.6375e-06
3.40777e-07
-1.66445e-06
3.17769e-07
-1.69184e-06
2.95658e-07
-1.71998e-06
2.74813e-07
-1.74887e-06
2.55483e-07
-1.77833e-06
2.37789e-07
-1.80817e-06
2.21723e-07
-1.8381e-06
2.07242e-07
-1.86792e-06
1.94225e-07
-1.89742e-06
1.8252e-07
-1.92644e-06
1.71974e-07
-1.95487e-06
1.62431e-07
-1.98259e-06
1.53747e-07
-2.00953e-06
1.45789e-07
-2.03564e-06
1.38437e-07
-2.06085e-06
1.3159e-07
-2.08515e-06
1.25162e-07
-2.10851e-06
1.19077e-07
-2.1309e-06
1.13277e-07
-2.15232e-06
1.07712e-07
-2.17276e-06
1.02344e-07
-2.19222e-06
9.71407e-08
-2.2107e-06
9.20775e-08
-2.22819e-06
8.71341e-08
-2.2447e-06
8.22947e-08
-2.26024e-06
7.7545e-08
-2.27481e-06
7.2874e-08
-2.28841e-06
6.82708e-08
-2.30104e-06
6.37263e-08
-2.31272e-06
5.92308e-08
-2.32343e-06
5.47751e-08
-2.33318e-06
5.03494e-08
-2.34198e-06
4.59429e-08
-2.34983e-06
4.15464e-08
-2.35672e-06
3.71378e-08
-2.36263e-06
3.27181e-08
-2.36755e-06
2.82679e-08
-2.37149e-06
2.37838e-08
-2.37446e-06
1.92557e-08
-2.37644e-06
1.46817e-08
-2.37742e-06
1.00612e-08
-2.37737e-06
5.39661e-09
-2.37627e-06
6.9197e-10
-2.37408e-06
-4.05594e-09
-2.37076e-06
-8.85567e-09
-2.36628e-06
-1.37283e-08
-2.36063e-06
-1.86747e-08
-2.35378e-06
-2.36916e-08
-2.34572e-06
-2.87642e-08
-2.33644e-06
-3.38912e-08
-2.32591e-06
-3.90573e-08
-2.31414e-06
-4.42612e-08
-2.30111e-06
-4.94863e-08
-2.28683e-06
-5.47304e-08
-2.27128e-06
-5.99764e-08
-2.25447e-06
-6.52205e-08
-2.23641e-06
-7.04465e-08
-2.2171e-06
-7.56491e-08
-2.19655e-06
-8.08139e-08
-2.17477e-06
-8.59346e-08
-2.15177e-06
-9.09997e-08
-2.12758e-06
-9.60019e-08