/*--------------------------------*- C++ -*----------------------------------*\
  =========                 |
  \\      /  F ield         | OpenFOAM: The Open Source CFD Toolbox
   \\    /   O peration     | Website:  https://openfoam.org
    \\  /    A nd           | Version:  8
     \\/     M anipulation  |
\*---------------------------------------------------------------------------*/
FoamFile
{
    version     2.0;
    format      ascii;
    class       volVectorField;
    location    "900";
    object      U;
}
// * * * * * * * * * * * * * * * * * * * * * * * * * * * * * * * * * * * * * //

dimensions      [0 1 -1 0 0 0 0];

internalField   nonuniform List<vector> 
12225
(
(9.78212 0.0485872 0)
(9.35471 0.089197 0)
(8.94492 0.0909515 0)
(8.56877 0.0849652 0)
(8.24238 0.0691015 0)
(7.96726 0.0665124 0)
(7.71781 0.0721596 0)
(7.50987 0.0548659 0)
(7.34322 0.0344953 0)
(7.21169 0.0360727 0)
(7.09207 0.0336715 0)
(6.99279 0.017879 0)
(6.91535 0.00496589 0)
(6.84783 0.00337443 0)
(6.79408 0.0033981 0)
(6.75401 -0.00594086 0)
(6.72448 -0.00901715 0)
(6.71039 -0.00594972 0)
(10.0742 0.0553467 0)
(10.204 0.0856414 0)
(10.2732 0.0841998 0)
(10.2825 0.0807441 0)
(10.248 0.079597 0)
(10.2016 0.0743765 0)
(10.1318 0.0668441 0)
(10.0472 0.062971 0)
(9.96119 0.0584788 0)
(9.87714 0.052048 0)
(9.78429 0.0475245 0)
(9.70506 0.0452581 0)
(9.62597 0.0429127 0)
(9.55794 0.0389511 0)
(9.48598 0.0347988 0)
(9.42257 0.0318046 0)
(9.36095 0.0256278 0)
(9.30444 0.0182672 0)
(10.0184 0.0422935 0)
(10.0762 0.0658432 0)
(10.1211 0.0698468 0)
(10.1518 0.0740067 0)
(10.1754 0.0770558 0)
(10.1933 0.0786844 0)
(10.2063 0.0791474 0)
(10.2123 0.0759767 0)
(10.2104 0.0717685 0)
(10.2026 0.0690869 0)
(10.1915 0.065994 0)
(10.1784 0.0617657 0)
(10.1615 0.0579352 0)
(10.1436 0.0545717 0)
(10.1248 0.0507661 0)
(10.1057 0.0465059 0)
(10.085 0.0420446 0)
(10.0636 0.0367058 0)
(10.0085 0.0307936 0)
(10.0439 0.0556703 0)
(10.0735 0.0634121 0)
(10.0944 0.0684117 0)
(10.1122 0.0715291 0)
(10.1287 0.0728532 0)
(10.1437 0.0729756 0)
(10.1566 0.070688 0)
(10.166 0.0675791 0)
(10.1731 0.0656589 0)
(10.179 0.0633309 0)
(10.1831 0.0600648 0)
(10.1853 0.0568136 0)
(10.1865 0.0538782 0)
(10.1868 0.0507626 0)
(10.1865 0.0470688 0)
(10.1851 0.0430617 0)
(10.1825 0.0389261 0)
(10.0051 0.0238066 0)
(10.0302 0.0486548 0)
(10.0544 0.0581042 0)
(10.0718 0.0631203 0)
(10.0865 0.0663692 0)
(10.1005 0.0679841 0)
(10.1136 0.0682438 0)
(10.1253 0.0667211 0)
(10.135 0.0644761 0)
(10.1434 0.0626371 0)
(10.1511 0.0604739 0)
(10.1578 0.0577408 0)
(10.1634 0.0549347 0)
(10.1682 0.0522255 0)
(10.1725 0.0493221 0)
(10.1761 0.0460523 0)
(10.1791 0.0425148 0)
(10.1812 0.0387761 0)
(10.0032 0.0188168 0)
(10.0217 0.0417828 0)
(10.0424 0.0522576 0)
(10.0581 0.05776 0)
(10.0716 0.061419 0)
(10.0843 0.0633439 0)
(10.0963 0.0637445 0)
(10.107 0.0626646 0)
(10.1163 0.0609044 0)
(10.1246 0.0591196 0)
(10.1323 0.0570625 0)
(10.1392 0.0546444 0)
(10.1454 0.0521054 0)
(10.151 0.0495163 0)
(10.1561 0.0467487 0)
(10.1606 0.043738 0)
(10.1646 0.0405361 0)
(10.1679 0.037147 0)
(10.0021 0.0150088 0)
(10.0158 0.035356 0)
(10.0332 0.0463512 0)
(10.0476 0.0523011 0)
(10.0603 0.056263 0)
(10.0723 0.0584343 0)
(10.0836 0.0590237 0)
(10.0937 0.0583103 0)
(10.1027 0.0569139 0)
(10.1108 0.0552649 0)
(10.1183 0.053344 0)
(10.1252 0.0511469 0)
(10.1314 0.0487996 0)
(10.1371 0.0463411 0)
(10.1424 0.0437308 0)
(10.1471 0.0409519 0)
(10.1514 0.0380273 0)
(10.1551 0.034945 0)
(10.0015 0.0123895 0)
(10.0124 0.030806 0)
(10.0273 0.0417247 0)
(10.0406 0.0477713 0)
(10.0525 0.0517526 0)
(10.0638 0.0539815 0)
(10.0745 0.0546906 0)
(10.0842 0.0542637 0)
(10.0929 0.0531707 0)
(10.1009 0.0517064 0)
(10.1083 0.049947 0)
(10.115 0.0479371 0)
(10.1213 0.0457522 0)
(10.127 0.0434235 0)
(10.1323 0.0409516 0)
(10.1371 0.0383446 0)
(10.1414 0.0356111 0)
(10.1452 0.0327529 0)
(10.0011 0.0103902 0)
(10.0098 0.0267818 0)
(10.0226 0.0375023 0)
(10.0349 0.0436217 0)
(10.0461 0.047666 0)
(10.0569 0.0500109 0)
(10.0671 0.0508799 0)
(10.0765 0.0506552 0)
(10.085 0.0497458 0)
(10.0929 0.0484104 0)
(10.1001 0.0467604 0)
(10.1068 0.0448639 0)
(10.113 0.0427924 0)
(10.1187 0.0405791 0)
(10.1239 0.0382426 0)
(10.1286 0.0357951 0)
(10.1329 0.0332502 0)
(10.1368 0.0306112 0)
(10.0008 0.00864064 0)
(10.0077 0.022932 0)
(10.0185 0.0331629 0)
(10.0295 0.0392017 0)
(10.04 0.0432021 0)
(10.0501 0.0455863 0)
(10.0598 0.0465763 0)
(10.0688 0.0465324 0)
(10.0771 0.0458087 0)
(10.0848 0.0446277 0)
(10.0919 0.0431171 0)
(10.0984 0.0413583 0)
(10.1045 0.0394214 0)
(10.1101 0.0373458 0)
(10.1152 0.0351545 0)
(10.1199 0.0328733 0)
(10.1241 0.0305121 0)
(10.128 0.0280889 0)
(10.0006 0.00710067 0)
(10.006 0.0193139 0)
(10.0149 0.0287816 0)
(10.0248 0.0345676 0)
(10.0343 0.0384017 0)
(10.0437 0.040745 0)
(10.0527 0.0418077 0)
(10.0613 0.0419081 0)
(10.0693 0.0413465 0)
(10.0767 0.0403235 0)
(10.0835 0.038964 0)
(10.0899 0.0373577 0)
(10.0958 0.0355723 0)
(10.1013 0.0336505 0)
(10.1063 0.0316233 0)
(10.1109 0.0295182 0)
(10.1151 0.0273526 0)
(10.1189 0.0251366 0)
(10.0005 0.00573564 0)
(10.0046 0.0158969 0)
(10.012 0.024356 0)
(10.0206 0.0297228 0)
(10.0292 0.0332897 0)
(10.0378 0.0355168 0)
(10.0462 0.0365995 0)
(10.0542 0.0367994 0)
(10.0617 0.0363733 0)
(10.0688 0.0354951 0)
(10.0754 0.0342887 0)
(10.0815 0.0328391 0)
(10.0872 0.0312172 0)
(10.0924 0.0294601 0)
(10.0973 0.0276131 0)
(10.1018 0.025693 0)
(10.1058 0.0237291 0)
(10.1096 0.0217268 0)
(10.0004 0.0045204 0)
(10.0036 0.012718 0)
(10.0096 0.0199568 0)
(10.017 0.0247242 0)
(10.0248 0.0279156 0)
(10.0325 0.0299378 0)
(10.0402 0.0309699 0)
(10.0477 0.0312188 0)
(10.0547 0.0308921 0)
(10.0614 0.0301431 0)
(10.0676 0.0290825 0)
(10.0735 0.0277948 0)
(10.0789 0.0263376 0)
(10.084 0.024762 0)
(10.0886 0.0230952 0)
(10.0929 0.021377 0)
(10.0968 0.0196125 0)
(10.1005 0.0178341 0)
(10.0003 0.00343079 0)
(10.0028 0.00975634 0)
(10.0077 0.0156199 0)
(10.0141 0.0196108 0)
(10.0209 0.0223079 0)
(10.028 0.0240294 0)
(10.035 0.0249284 0)
(10.0419 0.0251655 0)
(10.0485 0.0248963 0)
(10.0547 0.0242537 0)
(10.0606 0.0233291 0)
(10.0661 0.0221991 0)
(10.0713 0.0209141 0)
(10.0761 0.0195212 0)
(10.0806 0.0180497 0)
(10.0847 0.0165336 0)
(10.0884 0.014984 0)
(10.0919 0.0134248 0)
(10.0002 0.00242918 0)
(10.0023 0.00696066 0)
(10.0063 0.0113482 0)
(10.0117 0.0144047 0)
(10.0178 0.0164796 0)
(10.0241 0.0177978 0)
(10.0305 0.018475 0)
(10.0369 0.0186261 0)
(10.043 0.0183677 0)
(10.0489 0.0177958 0)
(10.0544 0.0169909 0)
(10.0597 0.0160075 0)
(10.0646 0.014897 0)
(10.0692 0.013689 0)
(10.0734 0.0124232 0)
(10.0774 0.0111152 0)
(10.081 0.00979086 0)
(10.0843 0.00845798 0)
(10.0002 0.00148125 0)
(10.0019 0.00425768 0)
(10.0053 0.00710485 0)
(10.01 0.00908646 0)
(10.0154 0.0104097 0)
(10.0212 0.011216 0)
(10.027 0.0115756 0)
(10.0329 0.0115645 0)
(10.0386 0.0112556 0)
(10.0441 0.0107167 0)
(10.0494 0.0100018 0)
(10.0543 0.009154 0)
(10.059 0.00820756 0)
(10.0634 0.00719137 0)
(10.0675 0.00612996 0)
(10.0713 0.00504318 0)
(10.0748 0.00394394 0)
(10.078 0.00284982 0)
(10.0002 0.000542344 0)
(10.0017 0.00155387 0)
(10.0047 0.00279443 0)
(10.0089 0.00357133 0)
(10.0138 0.00401902 0)
(10.0191 0.00419891 0)
(10.0246 0.0041477 0)
(10.0301 0.0038904 0)
(10.0355 0.00347234 0)
(10.0407 0.00291876 0)
(10.0458 0.00226634 0)
(10.0505 0.00153246 0)
(10.055 0.000743525 0)
(10.0592 -8.77741e-05 0)
(10.0632 -0.000941416 0)
(10.0669 -0.0018079 0)
(10.0703 -0.00267613 0)
(10.0734 -0.00353323 0)
(10.0002 -0.000389521 0)
(10.0016 -0.00112301 0)
(10.0045 -0.00150607 0)
(10.0086 -0.0019736 0)
(10.0133 -0.00246168 0)
(10.0185 -0.00295335 0)
(10.0237 -0.00347073 0)
(10.0291 -0.00401 0)
(10.0343 -0.00457948 0)
(10.0394 -0.00516989 0)
(10.0443 -0.0057872 0)
(10.0489 -0.00641945 0)
(10.0533 -0.00706978 0)
(10.0574 -0.00772494 0)
(10.0613 -0.00838658 0)
(10.0649 -0.00904185 0)
(10.0683 -0.00969482 0)
(10.0714 -0.0103276 0)
(10.0002 -0.00128873 0)
(10.0017 -0.00369273 0)
(10.0048 -0.00560742 0)
(10.009 -0.00724488 0)
(10.0139 -0.00859851 0)
(10.0191 -0.00971415 0)
(10.0245 -0.010654 0)
(10.0299 -0.011454 0)
(10.0352 -0.0121506 0)
(10.0402 -0.0127741 0)
(10.0451 -0.0133484 0)
(10.0497 -0.0138881 0)
(10.0541 -0.0144046 0)
(10.0582 -0.0149033 0)
(10.0621 -0.0153883 0)
(10.0657 -0.0158597 0)
(10.069 -0.0163201 0)
(10.0721 -0.0167606 0)
(10.0002 -0.00218503 0)
(10.002 -0.00623029 0)
(10.0055 -0.00957106 0)
(10.0101 -0.0122507 0)
(10.0154 -0.0143419 0)
(10.021 -0.0159799 0)
(10.0266 -0.0172539 0)
(10.0322 -0.0182453 0)
(10.0376 -0.0190165 0)
(10.0428 -0.019637 0)
(10.0478 -0.0201447 0)
(10.0525 -0.0205817 0)
(10.0569 -0.0209629 0)
(10.061 -0.0213136 0)
(10.0649 -0.0216363 0)
(10.0685 -0.0219444 0)
(10.0719 -0.022236 0)
(10.075 -0.0225109 0)
(10.0003 -0.0031442 0)
(10.0024 -0.0089046 0)
(10.0066 -0.0136065 0)
(10.012 -0.0171932 0)
(10.0178 -0.0199031 0)
(10.0238 -0.0219513 0)
(10.0299 -0.0234738 0)
(10.0358 -0.0245706 0)
(10.0415 -0.0253593 0)
(10.0469 -0.0259246 0)
(10.052 -0.0263407 0)
(10.0568 -0.0266478 0)
(10.0613 -0.0268913 0)
(10.0655 -0.0270866 0)
(10.0695 -0.0272599 0)
(10.0731 -0.0274106 0)
(10.0765 -0.0275546 0)
(10.0797 -0.0276788 0)
(10.0003 -0.00423506 0)
(10.0031 -0.0118529 0)
(10.0083 -0.0178457 0)
(10.0146 -0.0221939 0)
(10.0212 -0.0253944 0)
(10.0278 -0.027755 0)
(10.0343 -0.0294242 0)
(10.0407 -0.0305508 0)
(10.0467 -0.0312869 0)
(10.0524 -0.0317524 0)
(10.0577 -0.0320337 0)
(10.0627 -0.0321919 0)
(10.0673 -0.0322776 0)
(10.0716 -0.0323206 0)
(10.0756 -0.0323403 0)
(10.0793 -0.0323483 0)
(10.0827 -0.0323499 0)
(10.0859 -0.0323444 0)
(10.0005 -0.00553921 0)
(10.0042 -0.0152108 0)
(10.0107 -0.0223646 0)
(10.0182 -0.0272966 0)
(10.0256 -0.0308759 0)
(10.0329 -0.0334535 0)
(10.0401 -0.0351789 0)
(10.047 -0.0362484 0)
(10.0534 -0.0368663 0)
(10.0594 -0.037181 0)
(10.0649 -0.0372869 0)
(10.07 -0.0372701 0)
(10.0747 -0.0371829 0)
(10.0791 -0.0370662 0)
(10.0831 -0.0369327 0)
(10.0869 -0.036801 0)
(10.0904 -0.0366708 0)
(10.0936 -0.0365441 0)
(10.0007 -0.00716445 0)
(10.0058 -0.0191328 0)
(10.0142 -0.0272253 0)
(10.023 -0.0325257 0)
(10.0314 -0.0363687 0)
(10.0395 -0.0390728 0)
(10.0474 -0.0407621 0)
(10.0548 -0.041696 0)
(10.0616 -0.0421294 0)
(10.0678 -0.042239 0)
(10.0736 -0.0421414 0)
(10.0789 -0.0419273 0)
(10.0838 -0.0416575 0)
(10.0883 -0.0413675 0)
(10.0924 -0.0410821 0)
(10.0962 -0.0408088 0)
(10.0997 -0.0405565 0)
(10.103 -0.0403162 0)
(10.001 -0.0092367 0)
(10.0083 -0.0237731 0)
(10.0191 -0.0325213 0)
(10.0294 -0.0379614 0)
(10.0388 -0.0419197 0)
(10.0479 -0.0446136 0)
(10.0566 -0.0461621 0)
(10.0646 -0.0468876 0)
(10.0719 -0.0470981 0)
(10.0785 -0.0469853 0)
(10.0846 -0.0466674 0)
(10.0902 -0.0462383 0)
(10.0953 -0.0457679 0)
(10.0999 -0.0452921 0)
(10.1042 -0.0448371 0)
(10.1081 -0.0444159 0)
(10.1116 -0.0440322 0)
(10.115 -0.0436763 0)
(10.0016 -0.0120558 0)
(10.0121 -0.029138 0)
(10.0262 -0.0381794 0)
(10.0384 -0.0436851 0)
(10.0492 -0.047636 0)
(10.0595 -0.0501231 0)
(10.0693 -0.0513735 0)
(10.0782 -0.0518133 0)
(10.0862 -0.051761 0)
(10.0935 -0.0514219 0)
(10.1002 -0.0508974 0)
(10.1062 -0.0502731 0)
(10.1116 -0.049614 0)
(10.1165 -0.0489587 0)
(10.1209 -0.0483427 0)
(10.1249 -0.0477814 0)
(10.1285 -0.0472779 0)
(10.1317 -0.0468177 0)
(10.003 -0.0164559 0)
(10.0192 -0.0351751 0)
(10.038 -0.0435817 0)
(10.0533 -0.0492686 0)
(10.0668 -0.0534583 0)
(10.0796 -0.055808 0)
(10.0916 -0.0567109 0)
(10.1022 -0.0567617 0)
(10.1116 -0.056331 0)
(10.12 -0.0556239 0)
(10.1275 -0.0547571 0)
(10.134 -0.0538184 0)
(10.1397 -0.0528575 0)
(10.1445 -0.051924 0)
(10.1486 -0.051058 0)
(10.152 -0.0502907 0)
(10.155 -0.0496239 0)
(10.1574 -0.0490389 0)
(10.0078 -0.0245969 0)
(10.0381 -0.0438346 0)
(10.0673 -0.0492973 0)
(10.0907 -0.0542632 0)
(10.1115 -0.0588969 0)
(10.1307 -0.0617149 0)
(10.1474 -0.0629083 0)
(10.1613 -0.0630761 0)
(10.1723 -0.0625998 0)
(10.1806 -0.0616604 0)
(10.1864 -0.0604067 0)
(10.1899 -0.0589866 0)
(10.1914 -0.0575122 0)
(10.1913 -0.0560746 0)
(10.1898 -0.054728 0)
(10.1873 -0.0535509 0)
(10.184 -0.052566 0)
(10.1802 -0.0518563 0)
(10.0412 -0.034096 0)
(10.1238 -0.0624587 0)
(10.184 -0.0677015 0)
(10.2205 -0.069148 0)
(10.2425 -0.0699292 0)
(10.2524 -0.0692849 0)
(10.251 -0.0674094 0)
(10.2397 -0.0649076 0)
(10.2203 -0.0621417 0)
(10.1949 -0.0592621 0)
(10.1649 -0.0563813 0)
(10.1322 -0.0535895 0)
(10.0977 -0.0509571 0)
(10.0626 -0.048541 0)
(10.0273 -0.0463683 0)
(9.9924 -0.0444923 0)
(9.9582 -0.0429263 0)
(9.92552 -0.0422421 0)
(9.89178 -0.0322719 0)
(9.67582 -0.0652852 0)
(9.44224 -0.0759901 0)
(9.20337 -0.0785589 0)
(8.9759 -0.0768848 0)
(8.76759 -0.0724164 0)
(8.5796 -0.0665015 0)
(8.41145 -0.0598461 0)
(8.2631 -0.0530432 0)
(8.13303 -0.0465323 0)
(8.01964 -0.0405366 0)
(7.92056 -0.0351743 0)
(7.83388 -0.0304853 0)
(7.75743 -0.0264228 0)
(7.68989 -0.0229202 0)
(7.62974 -0.0199833 0)
(7.57551 -0.0176339 0)
(7.52617 -0.0162097 0)
(-0.00281155 0.00770856 0)
(-0.0129284 0.0128028 0)
(-0.0267098 0.0139038 0)
(-0.0413133 0.0117825 0)
(-0.0520151 0.00581018 0)
(-0.0511157 -0.0039755 0)
(-0.0350647 -0.0171535 -8.07512e-19)
(-0.00735644 -0.0308722 9.2272e-19)
(0.02864 -0.0411048 0)
(0.069957 -0.0461016 5.29494e-19)
(0.113721 -0.0465184 0)
(0.156432 -0.0435701 0)
(0.195293 -0.0383273 0)
(0.228615 -0.0316192 -2.58106e-19)
(0.255517 -0.0240134 0)
(0.275587 -0.0158821 0)
(0.288482 -0.0074286 2.22754e-19)
(0.294418 0.00140723 0)
(0.292288 0.0105375 0)
(0.282277 0.0194866 0)
(0.265019 0.0274911 -2.38339e-19)
(0.241164 0.033752 0)
(0.211635 0.0375343 -2.81476e-19)
(0.177826 0.038227 0)
(0.141586 0.035415 0)
(0.105167 0.029116 -4.5529e-19)
(0.0710356 0.0200296 0)
(0.0415558 0.00980545 7.52608e-19)
(0.0185064 0.000926905 0)
(0.0025471 -0.0046051 -1.31114e-18)
(-0.00735723 -0.00727063 0)
(-0.0124084 -0.0091401 0)
(-0.0112371 -0.0113824 0)
(-0.00370492 -0.0149207 0)
(0.0111607 -0.0201029 0)
(0.0335898 -0.0257794 8.18501e-19)
(0.0619695 -0.0297061 0)
(0.0920827 -0.0296244 -9.80852e-19)
(0.118891 -0.0251026 0)
(0.138119 -0.0175047 7.87695e-19)
(0.148116 -0.00937216 0)
(0.150043 -0.00298403 0)
(0.146914 0.000279635 -7.82728e-19)
(0.142985 -0.000597496 0)
(0.141372 -0.00638975 -8.09918e-19)
(0.139626 -0.0162969 8.10219e-19)
(0.130537 -0.0245587 0)
(0.106552 -0.020564 8.82237e-19)
(0.0625796 -0.0013145 1.04165e-18)
(-0.0149561 0.0188297 0)
(-0.114822 0.0404793 0)
(-0.22373 0.0655923 0)
(-0.344864 0.0903806 0)
(-0.475159 0.108698 0)
(-0.612478 0.110742 -1.85896e-19)
(-0.751781 0.111575 0)
(-0.884707 0.114697 1.42273e-19)
(-1.01439 0.111155 0)
(-1.13762 0.102275 0)
(-1.25239 0.0942567 -1.13004e-19)
(-1.35818 0.0863544 0)
(-1.45579 0.077475 1.01486e-19)
(-1.54503 0.0707518 0)
(-1.62712 0.0646876 0)
(-1.70257 0.0586708 0)
(-1.772 0.053537 -8.78854e-20)
(-1.83616 0.0489967 0)
(-1.89568 0.0450177 0)
(-1.95114 0.041558 -8.18706e-20)
(-2.00303 0.0385246 0)
(-2.05176 0.035856 -7.87971e-20)
(-2.09768 0.0334915 0)
(-2.14109 0.031378 0)
(-2.18222 0.0294747 0)
(-2.22128 0.0277418 7.38483e-20)
(-2.25841 0.0261545 0)
(-2.29376 0.0246841 0)
(-2.32743 0.0233183 7.07296e-20)
(-2.35951 0.0220339 6.97579e-20)
(-2.39008 0.0208283 0)
(-2.4192 0.0196804 6.78856e-20)
(-2.44692 0.0185939 0)
(-2.47329 0.017548 1.3217e-19)
(-2.49834 0.0165502 0)
(-2.52209 0.0155795 1.28673e-19)
(-2.54458 0.0146452 0)
(-2.56582 0.0137266 -1.2525e-19)
(-2.58583 0.0128304 0)
(-2.60464 0.0119393 0)
(-2.62226 0.0110509 0)
(-2.63865 0.0101522 1.1852e-19)
(-2.65378 0.00924114 0)
(-2.66763 0.00830321 -1.15168e-19)
(-2.68019 0.00733303 0)
(-2.69142 0.0063211 1.11826e-19)
(-2.70128 0.00526397 1.10158e-19)
(-2.70969 0.00416626 1.08493e-19)
(-2.71659 0.00304825 0)
(-2.72191 0.00196716 0)
(-2.72554 0.000996518 0)
(-2.72745 0.00020006 0)
(-2.7282 -0.000500707 0)
(-2.72765 -0.00118442 0)
(-2.72587 -0.00186495 0)
(-2.72283 -0.00254118 0)
(-2.71853 -0.00322141 -9.26902e-20)
(-2.71295 -0.00389659 -9.0748e-20)
(-2.70609 -0.00457415 0)
(-2.69793 -0.00524455 0)
(-2.68846 -0.00591404 0)
(-2.6777 -0.0065741 -8.2458e-20)
(-2.66562 -0.00722945 0)
(-2.65224 -0.00787334 0)
(-2.63755 -0.00850866 0)
(-2.62157 -0.0091309 0)
(-2.6043 -0.00974099 7.07119e-20)
(-2.58576 -0.0103369 0)
(-2.56595 -0.0109176 0)
(-2.54488 -0.0114835 -6.28137e-20)
(-2.52259 -0.012032 6.00282e-20)
(-2.49908 -0.0125654 0)
(-2.47437 -0.0130803 5.42189e-20)
(-2.44848 -0.0135807 0)
(-2.42144 -0.0140628 -4.80817e-20)
(-2.39326 -0.0145319 0)
(-2.36396 -0.0149849 0)
(-2.33356 -0.0154256 0)
(-2.30209 -0.0158421 0)
(-2.26957 -0.0162431 0)
(-2.23603 -0.0166244 5.51394e-20)
(-2.20148 -0.0169897 4.76421e-20)
(-2.16594 -0.0173267 0)
(-2.12946 -0.0176007 0)
(-2.09208 -0.017765 0)
(-2.05387 -0.0177346 -1.55146e-20)
(-2.01489 -0.0174753 0)
(-1.97512 -0.0174242 0)
(-1.93445 -0.0177044 0)
(-1.89294 -0.0179709 2.05102e-20)
(-1.85063 -0.018222 -3.02561e-20)
(-1.80756 -0.0184617 0)
(-1.76375 -0.0186945 0)
(-1.71922 -0.0189169 -6.1574e-20)
(-1.67399 -0.0191369 -7.27797e-20)
(-1.62807 -0.0193516 0)
(-1.58152 -0.0195637 0)
(-1.53431 -0.0197758 1.09047e-19)
(-1.48651 -0.0199829 -1.22131e-19)
(-1.43812 -0.0201918 0)
(-1.38919 -0.0203979 0)
(-1.33975 -0.0205959 -1.64819e-19)
(-1.28981 -0.0208002 0)
(-1.23943 -0.0209882 0)
(-1.1886 -0.0211762 -2.1361e-19)
(-1.13741 -0.0213542 0)
(-1.08582 -0.0215337 -2.50285e-19)
(-1.03392 -0.0217091 0)
(-0.981696 -0.0218839 0)
(-0.929174 -0.0220639 0)
(-0.876361 -0.0222457 3.36197e-19)
(-0.823268 -0.0224333 0)
(-0.769902 -0.0226251 0)
(-0.71627 -0.0228227 0)
(-0.662381 -0.0230254 0)
(-0.608246 -0.0232362 0)
(-0.553872 -0.0234568 0)
(-0.499264 -0.0236916 5.46757e-19)
(-0.44442 -0.023943 5.8616e-19)
(-0.389338 -0.0242148 0)
(-0.334012 -0.0245082 0)
(-0.278443 -0.0248238 0)
(-0.222643 -0.0251744 -7.81226e-19)
(-0.166645 -0.0255557 0)
(-0.110534 -0.0259233 1.82068e-18)
(-0.0545191 -0.0261866 -1.97228e-18)
(0.000989674 -0.0259523 -2.07129e-18)
(0.0560325 -0.0248017 2.04331e-18)
(0.106905 -0.0226429 -1.96867e-18)
(0.162737 -0.0200055 1.91474e-18)
(0.177149 -0.00808237 0)
(-0.000215907 0.0206329 0)
(-0.00576083 0.0359433 0)
(-0.0121784 0.0371625 2.16071e-18)
(-0.0125275 0.0276779 0)
(0.00166048 0.00561688 -2.25242e-18)
(0.0315713 -0.0316185 -1.43171e-18)
(0.0709651 -0.0735019 -4.50214e-19)
(0.115892 -0.107869 -3.20981e-19)
(0.162403 -0.128995 0)
(0.207045 -0.13654 -2.09699e-19)
(0.24759 -0.133165 0)
(0.283072 -0.122302 0)
(0.313163 -0.106866 3.12304e-19)
(0.337878 -0.0889707 1.48742e-19)
(0.357439 -0.0699803 -2.8998e-19)
(0.372173 -0.0506802 -2.86623e-19)
(0.382458 -0.0314581 -1.43317e-19)
(0.388492 -0.0124629 0)
(0.391241 0.00632241 0)
(0.390661 0.0247402 0)
(0.386374 0.0424316 -1.517e-19)
(0.377896 0.0588609 0)
(0.364672 0.0732801 4.85763e-19)
(0.346226 0.0847085 0)
(0.322355 0.0920212 0)
(0.29329 0.0941392 1.96452e-19)
(0.259916 0.0903364 0)
(0.223853 0.0806662 -2.47647e-19)
(0.187399 0.0661581 -5.77452e-19)
(0.15345 0.0485838 3.43448e-19)
(0.125055 0.0295672 0)
(0.105429 0.0099214 0)
(0.0957792 -0.0105069 0)
(0.0979148 -0.030856 -9.87038e-19)
(0.110267 -0.0509752 -8.37085e-19)
(0.129291 -0.0680867 -3.48491e-19)
(0.148904 -0.0751644 0)
(0.163135 -0.0692551 5.11573e-19)
(0.169497 -0.0533953 0)
(0.16765 -0.0329639 -5.02289e-19)
(0.15841 -0.0149096 0)
(0.142775 -0.00333369 0)
(0.120043 0.00296578 6.40719e-19)
(0.0835438 0.00878948 0)
(0.0227594 0.0224446 2.45348e-18)
(-0.0751873 0.0562894 -6.07751e-19)
(-0.199837 0.101477 0)
(-0.334789 0.147692 -2.59334e-19)
(-0.475881 0.191516 -1.93312e-19)
(-0.622946 0.227862 0)
(-0.770867 0.255053 0)
(-0.916371 0.273352 0)
(-1.0567 0.282961 0)
(-1.18797 0.284696 0)
(-1.30956 0.278809 8.27664e-20)
(-1.41876 0.26638 1.55753e-19)
(-1.51602 0.250634 -7.32624e-20)
(-1.60199 0.232675 0)
(-1.67791 0.213773 1.36236e-19)
(-1.745 0.195052 -6.62101e-20)
(-1.80511 0.177255 0)
(-1.85911 0.160775 -6.22391e-20)
(-1.9082 0.145976 0)
(-1.95325 0.132846 0)
(-1.99495 0.12128 -1.17288e-19)
(-2.03393 0.111174 5.75643e-20)
(-2.07059 0.102368 -1.13344e-19)
(-2.10525 0.0946759 1.1158e-19)
(-2.13815 0.0879374 5.49615e-20)
(-2.16948 0.0819901 0)
(-2.19937 0.0767078 5.34425e-20)
(-2.22791 0.0719678 0)
(-2.2552 0.0676796 0)
(-2.28128 0.0637606 0)
(-2.30621 0.0601477 5.06227e-20)
(-2.33002 0.0567899 0)
(-2.35275 0.0536428 9.87449e-20)
(-2.37442 0.0506789 -1.46266e-19)
(-2.39504 0.0478641 -4.81561e-20)
(-2.41465 0.0451872 0)
(-2.43326 0.0426194 -4.69223e-20)
(-2.45087 0.0401602 0)
(-2.46751 0.0377836 -9.13989e-20)
(-2.48317 0.0354955 0)
(-2.49785 0.0332724 -8.89637e-20)
(-2.51158 0.031123 1.75389e-19)
(-2.52433 0.0290248 8.65317e-20)
(-2.53612 0.0269817 0)
(-2.54694 0.0249754 0)
(-2.5568 0.0229976 0)
(-2.56567 0.0210371 -8.16336e-20)
(-2.57352 0.0190883 0)
(-2.58036 0.0171374 7.91469e-20)
(-2.58621 0.0151806 0)
(-2.59109 0.0132078 -2.29918e-19)
(-2.59502 0.0112148 -7.53797e-20)
(-2.59802 0.00919538 -7.41153e-20)
(-2.60014 0.0071509 0)
(-2.60146 0.00511287 0)
(-2.60206 0.00314628 0)
(-2.602 0.00132656 0)
(-2.6008 -0.000396409 0)
(-2.59844 -0.00208742 -1.32481e-19)
(-2.59488 -0.00376206 -1.29698e-19)
(-2.5901 -0.00542109 0)
(-2.58408 -0.00707243 6.19066e-20)
(-2.5768 -0.00870656 6.04303e-20)
(-2.56826 -0.0103298 0)
(-2.55845 -0.011931 1.15031e-19)
(-2.54736 -0.0135156 0)
(-2.53499 -0.015073 -5.45209e-20)
(-2.52133 -0.0166075 0)
(-2.50638 -0.0181101 0)
(-2.49016 -0.0195834 9.88007e-20)
(-2.47266 -0.0210209 0)
(-2.4539 -0.0224235 -4.56953e-20)
(-2.43388 -0.0237873 0)
(-2.41262 -0.0251111 0)
(-2.39013 -0.0263941 -4.05942e-20)
(-2.36643 -0.0276333 -3.81882e-20)
(-2.34153 -0.0288305 0)
(-2.31546 -0.0299816 3.47281e-20)
(-2.28823 -0.0310908 0)
(-2.25986 -0.0321534 -3.06206e-20)
(-2.23038 -0.0331747 -5.64415e-20)
(-2.1998 -0.0341497 0)
(-2.16815 -0.0350835 0)
(-2.13545 -0.0359699 0)
(-2.10172 -0.0368136 0)
(-2.06698 -0.0376114 -3.34667e-20)
(-2.03124 -0.0383677 -8.75959e-20)
(-1.99455 -0.0390818 0)
(-1.95692 -0.0397596 0)
(-1.91836 -0.0404107 0)
(-1.87888 -0.0410518 9.1601e-21)
(-1.83847 -0.0416805 0)
(-1.79713 -0.0422841 0)
(-1.75498 -0.0428289 1.13434e-20)
(-1.71203 -0.0433107 1.02908e-20)
(-1.6683 -0.0437508 1.71795e-20)
(-1.6238 -0.0441519 0)
(-1.57857 -0.044518 0)
(-1.5326 -0.0448439 3.40767e-20)
(-1.48593 -0.045137 -3.83638e-20)
(-1.43859 -0.0453971 0)
(-1.39058 -0.0456278 0)
(-1.34194 -0.045832 -5.80597e-20)
(-1.2927 -0.0460112 1.91414e-19)
(-1.24287 -0.0461648 0)
(-1.19249 -0.0462996 0)
(-1.14159 -0.0464015 8.39493e-20)
(-1.09019 -0.0464839 0)
(-1.03834 -0.0465304 1.93644e-19)
(-0.986044 -0.0465492 -1.03005e-19)
(-0.933358 -0.0465358 0)
(-0.880288 -0.0464998 1.19389e-19)
(-0.826886 -0.046444 2.52109e-19)
(-0.773153 -0.0463687 0)
(-0.71912 -0.0462841 0)
(-0.664796 -0.0461913 -1.50607e-19)
(-0.610191 -0.0460931 0)
(-0.555313 -0.0459912 3.32599e-19)
(-0.500169 -0.0458842 0)
(-0.444768 -0.0457733 0)
(-0.389119 -0.0456587 0)
(-0.333228 -0.0455447 0)
(-0.277097 -0.0454349 -2.12117e-19)
(-0.220727 -0.0453337 -2.21691e-19)
(-0.164111 -0.0452442 0)
(-0.107244 -0.0451674 0)
(-0.0501258 -0.0450954 0)
(0.00724114 -0.0450089 2.59163e-19)
(0.0648353 -0.0448773 0)
(0.12258 -0.0446588 -5.25069e-19)
(0.180365 -0.0442724 5.26422e-19)
(0.23789 -0.0434849 5.27798e-19)
(0.295035 -0.0419416 5.26166e-19)
(0.349457 -0.0393482 5.3212e-19)
(0.406278 -0.0348188 5.34371e-19)
(0.441113 -0.0214401 0)
(0.000350431 0.0232535 0)
(0.000930492 0.0401029 0)
(0.00691975 0.0327423 -2.3085e-18)
(0.0272927 -0.00104201 -1.61688e-18)
(0.0672366 -0.061259 9.60909e-19)
(0.11907 -0.127727 6.23604e-19)
(0.172339 -0.18049 -3.66231e-22)
(0.219999 -0.210791 0)
(0.259397 -0.219454 0)
(0.290544 -0.211708 0)
(0.314678 -0.193401 0)
(0.333268 -0.169291 0)
(0.347545 -0.142612 -7.10691e-19)
(0.358377 -0.115285 0)
(0.366334 -0.0883395 2.26738e-19)
(0.371797 -0.0622604 2.26173e-19)
(0.375033 -0.0372371 0)
(0.376248 -0.0133421 0)
(0.375685 0.009454 0)
(0.373678 0.0313216 0)
(0.370497 0.0523995 2.41027e-19)
(0.366327 0.0726268 0)
(0.361097 0.0916279 -2.58469e-19)
(0.354433 0.108654 0)
(0.345661 0.122578 0)
(0.333949 0.131983 0)
(0.318523 0.135385 -6.48153e-19)
(0.299075 0.131593 0)
(0.276147 0.120133 3.84351e-19)
(0.251332 0.101404 -8.56085e-19)
(0.227121 0.0765603 0)
(0.206388 0.0470183 0)
(0.191521 0.0144774 0)
(0.182711 -0.0202377 6.17604e-19)
(0.178775 -0.0533355 5.43749e-19)
(0.173014 -0.0742385 0)
(0.158938 -0.0743311 0)
(0.136338 -0.0571209 -7.61453e-19)
(0.106107 -0.0300007 -7.85284e-19)
(0.0686355 0.00272672 8.81106e-19)
(0.0213707 0.0362956 0)
(-0.0473306 0.0683758 0)
(-0.142692 0.108614 0)
(-0.258173 0.159945 0)
(-0.389895 0.216592 -3.91401e-19)
(-0.531697 0.273819 -3.09679e-19)
(-0.675911 0.327225 2.54016e-19)
(-0.816738 0.37209 0)
(-0.950077 0.407213 0)
(-1.07218 0.431593 0)
(-1.1814 0.444327 0)
(-1.27725 0.446003 -1.41801e-19)
(-1.35952 0.43774 0)
(-1.42932 0.42104 0)
(-1.48888 0.397686 -1.18728e-19)
(-1.54054 0.37026 -1.12234e-19)
(-1.58634 0.341272 0)
(-1.62785 0.312083 2.10166e-19)
(-1.66643 0.283826 -1.01003e-19)
(-1.70311 0.25755 9.81909e-20)
(-1.73847 0.233746 0)
(-1.77285 0.212479 0)
(-1.80638 0.193826 0)
(-1.83909 0.177544 0)
(-1.87099 0.163324 8.76166e-20)
(-1.90208 0.150922 1.72098e-19)
(-1.93234 0.140064 8.44487e-20)
(-1.96174 0.130504 -8.30052e-20)
(-1.99026 0.122028 0)
(-2.01789 0.114447 1.60583e-19)
(-2.0446 0.107605 1.58051e-19)
(-2.0704 0.101368 1.55616e-19)
(-2.09527 0.0956329 -1.53264e-19)
(-2.11921 0.0903109 0)
(-2.14223 0.085333 -2.23192e-19)
(-2.16433 0.0806445 0)
(-2.1855 0.0762002 7.21547e-20)
(-2.20575 0.0719672 7.1226e-20)
(-2.22509 0.0679148 0)
(-2.24351 0.0640239 0)
(-2.26103 0.0602721 1.36159e-19)
(-2.27765 0.0566483 0)
(-2.29337 0.0531346 1.32127e-19)
(-2.3082 0.049725 0)
(-2.32213 0.0464045 -1.28135e-19)
(-2.33516 0.0431695 -2.52388e-19)
(-2.3473 0.0400059 0)
(-2.35855 0.0369081 0)
(-2.3689 0.0338634 0)
(-2.37836 0.0308595 -1.18268e-19)
(-2.3869 0.0278877 0)
(-2.39452 0.0249399 -1.14328e-19)
(-2.40121 0.0220106 0)
(-2.40699 0.0190963 0)
(-2.41187 0.0161974 2.16861e-19)
(-2.41583 0.0133213 0)
(-2.41889 0.0104765 1.04492e-19)
(-2.42104 0.00767733 0)
(-2.42224 0.00492951 1.00528e-19)
(-2.42246 0.00222458 0)
(-2.42162 -0.000480737 0)
(-2.41966 -0.0031976 0)
(-2.41657 -0.00590814 2.76472e-19)
(-2.41231 -0.00860506 8.99448e-20)
(-2.40687 -0.0112881 0)
(-2.40022 -0.0139523 0)
(-2.39236 -0.0165955 0)
(-2.38327 -0.0192124 0)
(-2.37294 -0.0217991 -7.87945e-20)
(-2.36136 -0.0243507 1.53358e-19)
(-2.34854 -0.0268623 7.41054e-20)
(-2.33446 -0.0293297 -1.43899e-19)
(-2.31914 -0.0317477 -1.39055e-19)
(-2.30257 -0.0341128 -6.67886e-20)
(-2.28476 -0.0364204 0)
(-2.26571 -0.0386677 -1.24039e-19)
(-2.24545 -0.0408508 0)
(-2.22397 -0.0429676 1.13619e-19)
(-2.2013 -0.0450153 5.37938e-20)
(-2.17745 -0.0469925 0)
(-2.15244 -0.0488978 -9.73862e-20)
(-2.12628 -0.0507304 -4.55227e-20)
(-2.099 -0.0524902 0)
(-2.0706 -0.054177 -4.06416e-20)
(-2.04112 -0.0557921 1.11603e-19)
(-2.01057 -0.0573352 0)
(-1.97898 -0.0588077 0)
(-1.94635 -0.0602076 0)
(-1.91271 -0.0615357 0)
(-1.87809 -0.062791 4.47989e-20)
(-1.84249 -0.0639759 3.77018e-20)
(-1.80594 -0.0650895 0)
(-1.76846 -0.0661315 0)
(-1.73006 -0.0671019 0)
(-1.69077 -0.0680066 0)
(-1.65058 -0.0688522 0)
(-1.60952 -0.0696599 0)
(-1.56764 -0.0704236 -7.07546e-21)
(-1.52499 -0.0711231 -1.05105e-21)
(-1.48156 -0.0717624 0)
(-1.43738 -0.0723418 0)
(-1.39247 -0.0728614 -3.2742e-20)
(-1.34683 -0.0733201 0)
(-1.3005 -0.0737227 4.75377e-20)
(-1.25349 -0.074071 5.33617e-20)
(-1.20583 -0.0743683 0)
(-1.15755 -0.074618 0)
(-1.10867 -0.0748246 -7.56665e-20)
(-1.05921 -0.0749869 -1.63365e-19)
(-1.00921 -0.075111 0)
(-0.958685 -0.0751852 0)
(-0.907677 -0.0752144 0)
(-0.8562 -0.0751896 -1.12236e-19)
(-0.804298 -0.0751114 1.19737e-19)
(-0.75199 -0.0749834 0)
(-0.699318 -0.0748099 2.6748e-19)
(-0.646299 -0.074601 1.40227e-19)
(-0.59296 -0.0743575 -2.98453e-19)
(-0.539319 -0.0740908 0)
(-0.485393 -0.0738055 0)
(-0.431191 -0.0735049 -3.45793e-19)
(-0.376721 -0.0731921 -1.82153e-19)
(-0.321991 -0.0728649 0)
(-0.267008 -0.0725245 0)
(-0.211781 -0.0721714 0)
(-0.156314 -0.0718102 0)
(-0.100607 -0.0714456 -4.43117e-19)
(-0.04466 -0.0710842 0)
(0.0115385 -0.0707304 0)
(0.0679962 -0.0703835 0)
(0.124717 -0.0700324 0)
(0.181695 -0.0696473 0)
(0.238905 -0.0691858 0)
(0.296291 -0.0685936 -5.09404e-19)
(0.353774 -0.0677733 0)
(0.411125 -0.0665396 0)
(0.468318 -0.064568 -1.05748e-18)
(0.523768 -0.0613287 5.34351e-19)
(0.58138 -0.0557646 -5.4542e-19)
(0.626362 -0.0422647 5.57196e-19)
(-0.00121014 0.02331 0)
(0.00210648 0.0265251 5.02098e-18)
(0.0241477 -0.0158923 0)
(0.0725591 -0.0997408 8.56931e-19)
(0.134077 -0.188184 0)
(0.192219 -0.25248 0)
(0.237657 -0.283782 -3.21152e-19)
(0.269111 -0.287046 0)
(0.289415 -0.271769 0)
(0.302238 -0.246354 0)
(0.310509 -0.216342 0)
(0.316079 -0.18481 0)
(0.319946 -0.153304 8.02377e-19)
(0.322568 -0.122534 3.94584e-19)
(0.324109 -0.0928154 -3.91991e-19)
(0.324612 -0.0642859 0)
(0.324087 -0.0370081 0)
(0.322555 -0.0110208 0)
(0.32006 0.0136651 0)
(0.316701 0.0370804 0)
(0.312622 0.0592618 4.2447e-19)
(0.308045 0.0802198 4.36008e-19)
(0.303183 0.0998617 -4.52277e-19)
(0.298152 0.117874 4.74534e-19)
(0.292859 0.133612 0)
(0.286978 0.146038 0)
(0.279922 0.153712 5.76516e-19)
(0.270968 0.154948 0)
(0.259524 0.14821 0)
(0.245463 0.132437 7.44577e-19)
(0.229405 0.107517 8.30651e-19)
(0.212458 0.0745274 9.38095e-19)
(0.195883 0.0357146 0)
(0.178524 -0.00432815 0)
(0.153538 -0.0329995 -9.32347e-19)
(0.116276 -0.0376351 0)
(0.068231 -0.0193899 0)
(0.00963846 0.0149998 7.67067e-19)
(-0.0628411 0.0606154 -6.82025e-19)
(-0.151716 0.116106 5.43923e-19)
(-0.255892 0.178724 0)
(-0.374289 0.243727 0)
(-0.502765 0.309301 5.76381e-19)
(-0.635226 0.373679 0)
(-0.76595 0.432985 4.12092e-19)
(-0.889701 0.482046 5.42409e-19)
(-1.00179 0.518924 -4.83776e-19)
(-1.10016 0.543703 2.92734e-19)
(-1.18415 0.556343 0)
(-1.25366 0.557645 0)
(-1.31029 0.548803 2.32763e-19)
(-1.356 0.531395 1.08554e-19)
(-1.39319 0.507322 0)
(-1.42443 0.478506 0)
(-1.45207 0.446798 9.34539e-20)
(-1.47801 0.414035 1.80841e-19)
(-1.50348 0.381788 0)
(-1.52922 0.350995 -1.66901e-19)
(-1.5556 0.322226 1.62662e-19)
(-1.58275 0.295856 -1.57891e-19)
(-1.61057 0.272025 0)
(-1.63889 0.250664 0)
(-1.66747 0.231681 0)
(-1.6961 0.214849 0)
(-1.72456 0.199912 0)
(-1.75272 0.18663 -1.36742e-19)
(-1.78042 0.174768 0)
(-1.80758 0.164112 0)
(-1.8341 0.154473 0)
(-1.85993 0.145686 -2.54485e-19)