/*--------------------------------*- C++ -*----------------------------------*\
  =========                 |
  \\      /  F ield         | OpenFOAM: The Open Source CFD Toolbox
   \\    /   O peration     | Website:  https://openfoam.org
    \\  /    A nd           | Version:  8
     \\/     M anipulation  |
\*---------------------------------------------------------------------------*/
FoamFile
{
    version     2.0;
    format      ascii;
    class       volVectorField;
    location    "900";
    object      wallShearStress;
}
// * * * * * * * * * * * * * * * * * * * * * * * * * * * * * * * * * * * * * //

dimensions      [0 2 -2 0 0 0 0];

internalField   uniform (0 0 0);

boundaryField
{
    inlet
    {
        type            calculated;
        value           uniform (0 0 0);
    }
    outlet
    {
        type            calculated;
        value           uniform (0 0 0);
    }
    upperWall
    {
        type            calculated;
        value           nonuniform List<vector> 
223
(
(-0.468217 0.00300486 0)
(-0.495963 0.00558721 0)
(-0.511155 0.00678668 0)
(-0.512259 0.00720588 0)
(-0.506706 0.00714515 0)
(-0.495303 0.00674214 0)
(-0.483664 0.00620128 0)
(-0.471683 0.00558197 0)
(-0.459679 0.00494097 0)
(-0.448594 0.00433103 0)
(-0.438631 0.00377545 0)
(-0.429724 0.00328452 0)
(-0.421843 0.00286066 0)
(-0.414804 0.00249721 0)
(-0.408555 0.00218658 0)
(-0.402952 0.00192934 0)
(-0.39792 0.00172483 0)
(-0.393394 0.00161235 0)
(-0.389717 0.00157118 0)
(-0.386779 0.00156348 5.75085e-22)
(-0.383875 0.00153475 0)
(-0.381021 0.00148344 0)
(-0.37824 0.00141522 0)
(-0.375568 0.00133791 5.87171e-22)
(-0.37299 0.00125482 0)
(-0.370535 0.00117067 0)
(-0.36818 0.00108913 0)
(-0.365918 0.00101008 -1.19609e-21)
(-0.363759 0.00093587 1.20113e-21)
(-0.361673 0.000865692 1.206e-21)
(-0.359681 0.000800032 0)
(-0.357763 0.000740598 -1.21532e-21)
(-0.355905 0.000685343 0)
(-0.354132 0.000636243 1.22422e-21)
(-0.352402 0.000591765 1.22861e-21)
(-0.350741 0.000551532 -1.23294e-21)
(-0.349133 0.000516924 0)
(-0.347552 0.000485878 0)
(-0.346035 0.000463287 0)
(-0.344527 0.000450522 0)
(-0.34305 0.000439745 -1.2552e-21)
(-0.341593 0.000423986 0)
(-0.340163 0.000402211 0)
(-0.338782 0.000377118 1.26919e-21)
(-0.33746 0.000350849 0)
(-0.336196 0.000325109 1.27866e-21)
(-0.334984 0.000300454 -1.28343e-21)
(-0.333823 0.000277493 1.28821e-21)
(-0.332706 0.000256522 0)
(-0.331631 0.000237461 0)
(-0.330595 0.000220522 0)
(-0.329593 0.00020552 1.30726e-21)
(-0.328625 0.000192537 -1.31203e-21)
(-0.327687 0.000181433 0)
(-0.326775 0.000172031 0)
(-0.325892 0.000164293 0)
(-0.325028 0.000158107 0)
(-0.32419 0.000153562 0)
(-0.323365 0.000150486 0)
(-0.322561 0.000148823 0)
(-0.321766 0.000148639 0)
(-0.320985 0.000149764 1.35552e-21)
(-0.320208 0.000152236 -1.36044e-21)
(-0.319439 0.000155734 0)
(-0.318667 0.000160264 0)
(-0.317905 0.000165436 0)
(-0.317125 0.000171254 -1.38024e-21)
(-0.316367 0.000177512 0)
(-0.315575 0.000184179 0)
(-0.314806 0.000191263 0)
(-0.314021 0.000198212 0)
(-0.313195 0.000206691 0)
(-0.312455 0.000213863 -2.81978e-21)
(-0.311559 0.000223734 0)
(-0.310762 0.000227307 0)
(-0.309875 0.000202632 0)
(-0.30888 0.000241348 0)
(-0.308651 0.000332645 0)
(-0.308892 0.000397515 0)
(-0.307286 0.000506617 0)
(-0.306462 0.000493174 2.90713e-21)
(-0.306001 0.000382042 0)
(-0.305746 0.000212793 0)
(-0.342064 0.000348501 0)
(-0.324824 0.00109462 -3.11457e-21)
(-0.340675 0.0016782 0)
(-0.327126 0.000997238 -3.13609e-21)
(-0.331064 0.000405023 0)
(-0.317452 0.000571921 0)
(-0.3126 0.00090902 0)
(-0.308894 0.000865755 -3.07383e-21)
(-0.313489 0.000432404 0)
(-0.314193 0.000168863 3.20003e-21)
(-0.304723 0.000315137 3.12902e-21)
(-0.301296 0.000312258 0)
(-0.306545 2.89482e-05 3.1827e-21)
(-0.30094 -0.000269066 0)
(-0.33622 0.000125755 0)
(-0.321116 0.000536369 0)
(-0.315292 0.000262117 -3.28322e-21)
(-0.311165 0.000171758 0)
(-0.299425 -0.000108959 -3.12645e-21)
(-0.334446 0.000329105 3.49768e-21)
(-0.317316 0.000676766 0)
(-0.316376 0.000267461 0)
(-0.297795 3.46366e-05 0)
(-0.348466 0.000202544 0)
(-0.32184 0.00105779 0)
(-0.322583 0.00181187 0)
(-0.300929 0.00159063 0)
(-0.29465 0.0008188 -2.99135e-21)
(-0.303591 -5.04581e-05 0)
(-0.293923 -0.000288275 0)
(-0.293451 8.21367e-05 0)
(-0.292703 0.000460916 0)
(-0.292003 0.00048093 0)
(-0.291331 0.000347648 0)
(-0.290698 -9.11298e-06 0)
(-0.313537 -8.92841e-05 0)
(-0.292583 0.000237983 0)
(-0.304227 0.000255814 0)
(-0.338509 0.000413832 0)
(-0.35256 0.000516968 0)
(-0.331412 0.000337567 -6.57809e-21)
(-0.338625 0.000958333 0)
(-0.309095 0.00138987 0)
(-0.282622 0.00119493 0)
(-0.281135 0.00110467 5.12209e-21)
(-0.279934 0.000622357 0)
(-0.278983 0.000139306 0)
(-0.307497 0.000251846 5.39277e-21)
(-0.322577 0.000307895 0)
(-0.317361 0.000755155 -5.36084e-21)
(-0.288809 0.00151432 0)
(-0.272526 0.00104323 0)
(-0.271622 0.000226925 0)
(-0.289537 0.000653156 4.29862e-21)
(-0.268914 0.000802205 0)
(-0.292859 0.000993197 -3.99981e-21)
(-0.266164 0.000859108 0)
(-0.291628 0.000870911 0)
(-0.263372 0.000730853 0)
(-0.286689 0.000711931 0)
(-0.260379 0.000700952 0)
(-0.28088 -2.28727e-05 0)
(-0.278166 0.000512334 0)
(-0.25538 0.00065667 0)
(-0.263761 0.000720773 0)
(-0.251909 0.000721952 0)
(-0.254725 0.000683641 0)
(-0.248474 0.00174594 -9.19135e-22)
(-0.246814 0.00201372 6.22777e-22)
(-0.245294 0.00105995 0)
(-0.243407 0.000528441 0)
(-0.257534 0.000116015 0)
(-0.252403 -0.00052721 0)
(-0.234777 0.00028921 -9.51696e-22)
(-0.257237 0.00167066 1.41494e-21)
(-0.232104 0.00192104 -1.62264e-21)
(-0.230955 0.00177831 0)
(-0.229497 0.00143518 -2.34973e-21)
(-0.227549 0.000885189 -5.52099e-21)
(-0.225302 0.00083441 0)
(-0.223793 0.000124543 -7.1138e-21)
(-0.220997 -0.000381618 8.32956e-21)
(-0.219263 0.000297329 0)
(-0.23768 0.0014992 0)
(-0.216733 0.00128761 0)
(-0.214813 0.000282449 0)
(-0.22453 0.000644883 0)
(-0.222442 0.000136082 -1.48917e-20)
(-0.20886 -0.000757562 0)
(-0.202399 -0.000217605 -1.70218e-20)
(-0.200145 1.71826e-05 0)
(-0.196477 0.000797123 0)
(-0.196122 0.00143113 0)
(-0.194233 0.000788487 0)
(-0.192452 0.00114721 0)
(-0.191504 0.00118958 2.36213e-20)
(-0.189587 0.00118666 0)
(-0.188088 0.000963878 0)
(-0.184781 2.00676e-05 -2.8387e-20)
(-0.179645 -4.97476e-05 0)
(-0.175263 0.000370634 0)
(-0.170854 0.000475291 0)
(-0.167656 0.000901518 3.68466e-20)
(-0.167686 0.00137449 0)
(-0.168597 0.00121466 0)
(-0.167183 0.000750076 0)
(-0.162516 0.000394551 0)
(-0.154055 0.000324081 -4.83022e-20)
(-0.141797 0.000757583 0)
(-0.12714 0.00135574 0)
(-0.11116 0.00182498 0)
(-0.0963701 0.0020193 8.51258e-20)
(-0.0806666 0.00195765 0)
(-0.0716552 0.00225785 0)
(-0.0394594 0.00169083 -1.36133e-19)
(-0.0722447 0.000697935 6.01853e-36)
(-0.108058 0.00614811 1.17075e-17)
(-0.132703 0.0107456 2.08731e-17)
(-0.145858 0.0134765 1.95501e-17)
(-0.153608 0.0150171 1.87564e-17)
(-0.159331 0.0159501 1.81359e-17)
(-0.163738 0.0166078 -1.76189e-17)
(-0.166788 0.0170558 -1.71477e-17)
(-0.16899 0.0173525 -6.01853e-36)
(-0.17097 0.0175731 -3.27995e-17)
(-0.1728 0.0177565 -1.60564e-17)
(-0.174703 0.0179216 3.25001e-34)
(-0.176909 0.0180982 -1.20371e-35)
(-0.179613 0.0183167 -2.96866e-17)
(-0.18298 0.0185917 -2.86093e-17)
(-0.186989 0.0189364 -2.73476e-17)
(-0.191823 0.0193513 -2.40741e-35)
(-0.197339 0.0198435 4.83765e-17)
(-0.203868 0.0204192 2.22407e-17)
(-0.210984 0.0210692 2.40741e-35)
(-0.219794 0.0218523 -3.48135e-17)
(-0.227936 0.0226295 -1.23756e-20)
(-0.241902 0.0238106 -3.00927e-36)
(-0.245726 0.0245246 1.30756e-17)
(-0.272455 0.0261047 -7.26228e-18)
)
;
    }
    lowerWall
    {
        type            calculated;
        value           nonuniform List<vector> 
250
(
(-0.624717 -0.00597046 0)
(-0.672369 -0.010613 0)
(-0.674553 -0.0112655 0)
(-0.734221 -0.0119505 0)
(-0.622119 -0.00871582 0)
(-0.620494 -0.00855781 0)
(-0.561319 -0.00839782 0)
(-0.485336 -0.00578995 0)
(-0.468552 -0.00380328 0)
(-0.549752 -0.00457748 0)
(-0.488879 -0.0038427 0)
(-0.469064 -0.00221077 0)
(-0.441253 -0.000919805 0)
(-0.475546 -0.00078353 0)
(-0.439034 -0.000645859 0)
(-0.430958 0.000236161 0)
(-0.450071 0.000621045 0)
(-0.494506 0.000462992 0)
(0.00215386 0.000281916 0)
(0.00238869 -0.00253394 0)
(0.00264399 -0.00543116 0)
(0.00298461 -0.00848873 1.11465e-19)
(0.00344838 -0.0115539 -9.39224e-20)
(0.00387566 -0.0155209 8.23962e-20)
(0.00353403 -0.0152923 -7.4843e-20)
(0.0095672 -0.0344992 0)
(-0.0432785 -0.108714 0)
(0.000225279 -0.000278439 0)
(5.66277e-05 -0.000794987 0)
(-9.8113e-06 -0.000875846 0)
(5.80863e-05 -0.000873247 0)
(3.72699e-05 -0.00084504 1.54098e-19)
(-0.000138076 -0.000276083 -1.50021e-19)
(-0.000578163 0.0011713 0)
(-0.00118481 0.00389069 -1.7173e-19)
(-0.00156871 0.00735719 1.31159e-19)
(-0.00151171 0.0106268 0)
(-0.00111151 0.0130344 0)
(-0.000572126 0.0142943 0)
(-5.7997e-05 0.0143843 0)
(0.000348188 0.0135015 0)
(0.000686443 0.0119276 0)
(0.00101893 0.00970961 0)
(0.00138559 0.00688652 0)
(0.00180014 0.00351442 0)
(-0.00014436 -0.000280458 0)
(0.00016988 -0.000450929 0)
(0.000481161 -0.000503764 0)
(0.000804814 -0.000433656 0)
(0.00106419 -0.000197074 -0)
(0.00111331 0.000196502 -0)
(0.000863779 0.000668329 1.42826e-20)
(0.000345394 0.00110969 -1.63244e-20)
(-0.000371357 0.00142959 0)
(-0.00119157 0.00159037 -9.36611e-21)
(-0.0020382 0.0016051 0)
(-0.00284597 0.00150363 0)
(-0.00356901 0.00132245 0)
(-0.00418192 0.00109264 4.57157e-21)
(-0.00467307 0.000835164 0)
(-0.00503824 0.000561999 0)
(-0.00527487 0.00028152 -3.95778e-21)
(-0.00538762 -1.18937e-05 -0)
(-0.0053522 -0.000316296 0)
(-0.00516628 -0.000610803 -0)
(-0.00483854 -0.000874872 4.25388e-21)
(-0.00438089 -0.00108811 -0)
(-0.00381138 -0.00122923 5.03152e-21)
(-0.00315749 -0.00127902 0)
(-0.00245724 -0.00122338 -0)
(-0.00175951 -0.0010599 8.14617e-21)
(-0.00112087 -0.000805111 0)
(-0.000596926 -0.000502332 -1.34702e-20)
(-0.000221606 -0.000219902 0)
(1.62188e-05 -2.00854e-05 2.34827e-20)
(0.000165707 9.91813e-05 0)
(0.000252963 0.000199433 0)
(0.000244218 0.00031526 0)
(0.000130424 0.000466634 0)
(-0.000121347 0.000662293 0)
(-0.000534045 0.000862216 -1.46997e-20)
(-0.00108634 0.000991567 0)
(-0.001689 0.000980486 1.76294e-20)
(-0.0022254 0.000819165 0)
(-0.00259776 0.000556954 -1.41797e-20)
(-0.00277031 0.000280583 0)
(-0.00277245 6.63062e-05 0)
(-0.00266753 -3.89515e-05 1.4125e-20)
(-0.00253675 -1.08857e-05 0)
(-0.00244887 0.000138527 1.4636e-20)
(-0.00240328 0.000344134 -1.46545e-20)
(-0.00233347 0.000445602 0)
(-0.00208203 0.000197546 -1.59904e-20)
(-0.00139144 -0.000497739 -1.8898e-20)
(-3.49053e-07 -0.00122215 0)
(0.00178144 -0.00187488 0)
(0.00374181 -0.00256683 0)
(0.00599004 -0.00325097 0)
(0.00850713 -0.00375595 -0)
(0.0111209 -0.00383613 3.43805e-21)
(0.0136576 -0.0038313 0)
(0.016115 -0.00386086 -2.64396e-21)
(0.018563 -0.00372906 -0)
(0.0210286 -0.00347645 -0)
(0.0229533 -0.00317644 2.10342e-21)
(0.0249065 -0.00291068 0)
(0.0274919 -0.00270211 -1.94412e-21)
(0.0299113 -0.0025286 -0)
(0.0320752 -0.00235289 0)
(0.0342932 -0.00218439 -0)
(0.0363097 -0.00202957 1.8227e-21)
(0.0382851 -0.00189216 0)
(0.0401491 -0.0017679 -0)
(0.0419612 -0.0016588 1.77903e-21)
(0.0436885 -0.00156087 0)
(0.0453728 -0.00147395 1.75895e-21)
(0.0469904 -0.00139545 0)
(0.0485693 -0.00132457 0)
(0.0500956 -0.00125962 0)
(0.0515857 -0.00119969 -1.72834e-21)
(0.0530316 -0.00114379 -0)
(0.0544432 -0.00109127 0)
(0.0558153 -0.00104152 -1.70762e-21)
(0.0571543 -0.000993986 -1.70057e-21)
(0.0584561 -0.0009485 -0)
(0.0597256 -0.000904434 -1.68567e-21)
(0.0609586 -0.000861897 0)
(0.0621594 -0.000820257 -3.33902e-21)
(0.0633239 -0.000779654 -0)
(0.0644551 -0.000739536 -3.30368e-21)
(0.0655499 -0.000700196 -0)
(0.0666104 -0.000660917 3.26492e-21)
(0.0676338 -0.000622039 0)
(0.0686215 -0.000582968 0)
(0.0695715 -0.000543324 0)
(0.070482 -0.000502494 -3.17544e-21)
(0.0713509 -0.000460514 -0)
(0.0721767 -0.000416969 3.12375e-21)
(0.0729571 -0.000371581 0)
(0.07369 -0.000323881 -3.0675e-21)
(0.0743725 -0.000273573 -3.03764e-21)
(0.0750015 -0.00022075 -3.00669e-21)
(0.0755744 -0.000166231 -0)
(0.0760894 -0.000111961 0)
(0.0765461 -6.09323e-05 0)
(0.0769491 -1.85295e-05 0)
(0.0773047 1.85951e-05 0)
(0.0776125 5.55039e-05 0)
(0.0778729 9.22197e-05 0)
(0.078084 0.000128983 0)
(0.0782462 0.000166049 2.66435e-21)
(0.0783574 0.000203051 2.61685e-21)
(0.0784183 0.000240257 0)
(0.078427 0.000277318 0)
(0.0783837 0.000314292 0)
(0.0782881 0.00035091 2.40397e-21)
(0.0781396 0.000387338 0)
(0.0779381 0.000423209 0)
(0.0776838 0.00045862 0)
(0.0773769 0.000493335 0)
(0.0770175 0.000527374 -2.08143e-21)
(0.0766062 0.000560641 0)
(0.0761432 0.00059312 0)
(0.0756289 0.000624656 1.8555e-21)
(0.0750646 0.00065517 -1.77462e-21)
(0.0744508 0.000684825 0)
(0.073788 0.000713392 -1.60442e-21)
(0.0730776 0.000740988 0)
(0.0723201 0.000767486 1.4229e-21)
(0.0715169 0.000793133 0)
(0.0706682 0.000817752 0)
(0.0697757 0.000841463 0)
(0.068846 0.000863852 0)
(0.0678779 0.00088524 0)
(0.0668577 0.000905296 -1.61937e-21)
(0.0658106 0.000924523 -1.39454e-21)
(0.0647168 0.000942008 0)
(0.063595 0.000956545 0)
(0.0624411 0.00096614 0)
(0.0612574 0.000967361 4.32353e-22)
(0.0600448 0.000959114 0)
(0.0587989 0.000959264 0)
(0.0575219 0.000972532 0)
(0.0562131 0.000984672 -6.39619e-22)
(0.0548777 0.000995722 9.27795e-22)
(0.0535169 0.0010059 0)
(0.0521325 0.00101546 0)
(0.0507255 0.00102427 1.8473e-21)
(0.0492978 0.0010327 2.17381e-21)
(0.0478505 0.00104051 0)
(0.046385 0.00104792 0)
(0.0449034 0.00105506 -3.22157e-21)
(0.0434043 0.00106156 3.59611e-21)
(0.0418931 0.00106786 0)
(0.0403678 0.00107361 0)
(0.0388319 0.00107878 4.80669e-21)
(0.0372881 0.00108389 0)
(0.0357327 0.00108798 0)
(0.0341739 0.00109184 6.1704e-21)
(0.0326067 0.00109491 0)
(0.0310392 0.00109794 7.18291e-21)
(0.0294659 0.00110036 0)
(0.0278938 0.00110274 0)
(0.0263203 0.0011051 0)
(0.0247476 0.00110744 -9.52089e-21)
(0.0231758 0.00110987 0)
(0.0216055 0.00111238 0)
(0.0200371 0.00111502 0)
(0.018471 0.00111775 0)
(0.0169077 0.0011207 0)
(0.0153477 0.00112395 0)
(0.0137911 0.00112771 -1.51268e-20)
(0.012238 0.00113207 -1.61642e-20)
(0.0106884 0.0011372 0)
(0.00914197 0.00114313 0)
(0.00759862 0.00114984 0)
(0.00605849 0.00115772 2.12745e-20)
(0.00452201 0.00116643 0)
(0.00299102 0.00117396 -4.92808e-20)
(0.00147 0.00117634 5.32191e-20)
(-3.07762e-05 0.00115996 5.57115e-20)
(-0.00151069 0.00110323 -5.47686e-20)
(-0.00286568 0.00102132 5.25479e-20)
(-0.00435956 0.000848347 -5.08222e-20)
(-0.00463326 0.000441146 0)
(-0.00661405 0.000993203 -3.04754e-18)
(-0.00978394 0.000753921 -2.77385e-18)
(-0.0129261 0.000393126 0)
(-0.0161241 5.76413e-05 -4.74658e-18)
(-0.0195189 -0.000288845 -8.8474e-18)
(-0.0231256 -0.000651514 -4.13626e-18)
(-0.0269555 -0.00103272 3.87623e-18)
(-0.0310297 -0.00143706 -4.21297e-35)
(-0.035378 -0.00186852 -3.00927e-36)
(-0.0400187 -0.00233177 3.21785e-18)
(-0.0449693 -0.00281506 3.0285e-18)
(-0.0502401 -0.00330053 0)
(-0.0558611 -0.00382792 0)
(-0.0618792 -0.00442887 0)
(-0.0683524 -0.00508833 -6.02323e-35)
(-0.075281 -0.00580114 -2.31337e-35)
(-0.0828186 -0.00656953 3.61112e-35)
(-0.0908187 -0.00739853 -3.7653e-18)
(-0.0998588 -0.00829907 -3.43157e-18)
(-0.108994 -0.00927394 1.20371e-35)
(-0.120643 -0.0103468 5.40427e-18)
(-0.130272 -0.0115239 8.97375e-18)
(-0.147826 -0.0127656 1.20371e-35)
(-0.155285 -0.0142857 -4.33053e-18)
(-0.190213 -0.0166464 0)
)
;
    }
    frontAndBack
    {
        type            empty;
    }
}


// ************************************************************************* //
