/*--------------------------------*- C++ -*----------------------------------*\
  =========                 |
  \\      /  F ield         | OpenFOAM: The Open Source CFD Toolbox
   \\    /   O peration     | Website:  https://openfoam.org
    \\  /    A nd           | Version:  8
     \\/     M anipulation  |
\*---------------------------------------------------------------------------*/
FoamFile
{
    version     2.0;
    format      ascii;
    class       volScalarField;
    location    "1100";
    object      p;
}
// * * * * * * * * * * * * * * * * * * * * * * * * * * * * * * * * * * * * * //

dimensions      [0 2 -2 0 0 0 0];

internalField   nonuniform List<scalar> 
12225
(
514.675
55.5275
2.36311
0.280985
-1.89951
-3.37509
-3.81236
-4.02282
-4.23264
-4.36963
-4.41689
-4.42665
-4.42983
-4.45804
-4.51177
-4.57877
-4.72486
-4.9495
-122.18
0.238212
-2.71911
-0.765813
-2.2172
-3.52568
-3.95345
-4.1376
-4.28135
-4.38542
-4.46046
-4.51892
-4.57005
-4.60266
-4.62391
-4.64996
-4.71726
-4.81267
-200.646
-16.1491
-2.34713
-0.359042
-1.90155
-3.24556
-3.77301
-4.0233
-4.19606
-4.3204
-4.4132
-4.48054
-4.52935
-4.55481
-4.57016
-4.58615
-4.61852
-4.60243
-110.617
-10.9748
-2.17784
-0.432756
-1.78848
-3.02959
-3.60212
-3.90936
-4.11869
-4.26458
-4.36706
-4.43787
-4.48675
-4.51554
-4.53314
-4.54131
-4.54059
-4.47224
-61.5735
-8.14656
-3.62331
-1.21076
-2.01601
-2.99916
-3.53008
-3.84991
-4.07248
-4.22724
-4.33498
-4.40976
-4.46127
-4.49257
-4.50807
-4.5057
-4.4797
-4.38966
-45.7315
-8.786
-5.25952
-2.20112
-2.43076
-3.10195
-3.53745
-3.83447
-4.05052
-4.20442
-4.31357
-4.39041
-4.44299
-4.47407
-4.48579
-4.4752
-4.43522
-4.34067
-35.7954
-9.27726
-6.38132
-3.12556
-2.92279
-3.29091
-3.60486
-3.85581
-4.05129
-4.19654
-4.30262
-4.37851
-4.43023
-4.46009
-4.46914
-4.45463
-4.41068
-4.32355
-27.7788
-8.90804
-6.97479
-3.80383
-3.36287
-3.49975
-3.70185
-3.90138
-4.0708
-4.20313
-4.30298
-4.37582
-4.42583
-4.45476
-4.46318
-4.44893
-4.40794
-4.33311
-21.6909
-8.52101
-7.1355
-4.3117
-3.73018
-3.70736
-3.81769
-3.96609
-4.10644
-4.22277
-4.31391
-4.38205
-4.42958
-4.4576
-4.46636
-4.45442
-4.41939
-4.35829
-16.6136
-8.14169
-7.08916
-4.7566
-4.08449
-3.93573
-3.96064
-4.05414
-4.16055
-4.25681
-4.33633
-4.398
-4.44229
-4.46952
-4.47974
-4.47225
-4.44627
-4.40168
-12.6399
-7.68189
-6.90719
-5.10291
-4.40812
-4.17172
-4.12334
-4.16294
-4.23318
-4.30658
-4.37222
-4.426
-4.46654
-4.49337
-4.50638
-4.50552
-4.49118
-4.46491
-9.70004
-7.14982
-6.6303
-5.32775
-4.67998
-4.39852
-4.29587
-4.28818
-4.32339
-4.37309
-4.42364
-4.4687
-4.50538
-4.53245
-4.5496
-4.55717
-4.5562
-4.54881
-7.6671
-6.60577
-6.30707
-5.43273
-4.88442
-4.59865
-4.46506
-4.42193
-4.42724
-4.45505
-4.49105
-4.52767
-4.56098
-4.58916
-4.61165
-4.62881
-4.64181
-4.65263
-6.37202
-6.11411
-5.9868
-5.44146
-5.01707
-4.75891
-4.61749
-4.55385
-4.53786
-4.54846
-4.57254
-4.60238
-4.63363
-4.66404
-4.69276
-4.71995
-4.74647
-4.77375
-5.62378
-5.72346
-5.71011
-5.39197
-5.08706
-4.87416
-4.74295
-4.6734
-4.6464
-4.64661
-4.66325
-4.68934
-4.72059
-4.75458
-4.79019
-4.82717
-4.86591
-4.90718
-5.24447
-5.46127
-5.5092
-5.32865
-5.11612
-4.94906
-4.83678
-4.77179
-4.7431
-4.74023
-4.75489
-4.78114
-4.81505
-4.85416
-4.89709
-4.94322
-4.99246
-5.04495
-5.10323
-5.34536
-5.41803
-5.30003
-5.13599
-4.99687
-4.8992
-4.84129
-4.81616
-4.81595
-4.83376
-4.86433
-4.90388
-4.94989
-5.00073
-5.05547
-5.11358
-5.17485
-5.14097
-5.40117
-5.47526
-5.34909
-5.17526
-5.02951
-4.92922
-4.87198
-4.85004
-4.85485
-4.87901
-4.9168
-4.96413
-5.01817
-5.07703
-5.13949
-5.20482
-5.27257
-5.39325
-5.65561
-5.69129
-5.47614
-5.22689
-5.03648
-4.91533
-4.85223
-4.83314
-4.84538
-4.87899
-4.92679
-4.98388
-5.04704
-5.11415
-5.18389
-5.25545
-5.32841
-6.00265
-6.13744
-6.04319
-5.63565
-5.24762
-4.98781
-4.84124
-4.77626
-4.7667
-4.79303
-4.84155
-4.90335
-4.97285
-5.04662
-5.12262
-5.19964
-5.27706
-5.35463
-7.25027
-6.89008
-6.49474
-5.7624
-5.18359
-4.85342
-4.69677
-4.64657
-4.66046
-4.71094
-4.78113
-4.86111
-4.94538
-5.03086
-5.11605
-5.20019
-5.28304
-5.36472
-9.64179
-7.96516
-6.98316
-5.77241
-4.98005
-4.61261
-4.48236
-4.47409
-4.5289
-4.6142
-4.71192
-4.81304
-4.91307
-5.01029
-5.10412
-5.19462
-5.28211
-5.36711
-13.983
-9.39164
-7.40374
-5.57008
-4.59526
-4.26467
-4.21549
-4.28009
-4.39221
-4.51967
-4.64776
-4.77026
-4.88526
-4.99271
-5.09356
-5.18893
-5.27981
-5.36719
-20.8906
-10.9546
-7.55476
-5.0578
-4.01639
-3.83634
-3.93043
-4.09454
-4.27262
-4.44346
-4.60001
-4.7413
-4.86832
-4.98318
-5.08851
-5.18662
-5.27933
-5.36785
-29.7372
-11.95
-7.03411
-4.12669
-3.2646
-3.37849
-3.67154
-3.94728
-4.18956
-4.39759
-4.57618
-4.73059
-4.86502
-4.98378
-5.09068
-5.18933
-5.28209
-5.37059
-43.1071
-12.6146
-5.4734
-2.72954
-2.41382
-2.96398
-3.48478
-3.86286
-4.15407
-4.38639
-4.57809
-4.73843
-4.87484
-4.99289
-5.09852
-5.19594
-5.28787
-5.37563
-84.6001
-17.3741
-3.66471
-1.26604
-1.6966
-2.72239
-3.43673
-3.87045
-4.17392
-4.41107
-4.60686
-4.76869
-4.89992
-5.01075
-5.1105
-5.20286
-5.2929
-5.38012
-177.886
-26.8502
-3.68077
-0.770826
-1.5357
-2.84365
-3.61465
-4.01578
-4.27154
-4.46761
-4.65113
-4.81669
-4.95223
-5.05652
-5.1402
-5.21842
-5.30367
-5.39027
-154.791
-9.62791
-3.27301
-1.06891
-1.84371
-3.22147
-3.91427
-4.22556
-4.41797
-4.55957
-4.70211
-4.85519
-5.00367
-5.12728
-5.2188
-5.28586
-5.36014
-5.45266
428.057
66.6049
7.05533
1.59879
-0.916216
-2.85752
-3.65355
-3.99521
-4.31085
-4.57727
-4.70851
-4.75422
-4.80395
-4.89434
-5.01708
-5.14698
-5.24293
-5.30815
-8.52579
-8.51294
-8.50223
-8.54354
-8.63659
-8.74038
-8.82043
-8.86055
-8.86428
-8.84663
-8.81918
-8.79054
-8.76878
-8.75988
-8.76481
-8.77743
-8.78865
-8.79377
-8.79285
-8.79033
-8.79424
-8.82666
-8.91657
-9.08745
-9.34015
-9.65769
-10.0287
-10.4424
-10.8833
-11.3354
-11.7835
-12.2156
-12.6225
-12.9975
-13.3363
-13.6365
-13.897
-14.1178
-14.2997
-14.4437
-14.551
-14.6229
-14.6609
-14.6663
-14.6404
-14.5846
-14.5004
-14.3903
-14.2554
-14.0936
-13.9022
-13.6826
-13.4374
-13.1684
-12.8769
-12.5639
-12.2304
-11.8775
-11.5062
-11.1176
-10.7127
-10.2926
-9.85854
-9.41162
-8.95301
-8.48392
-8.00553
-7.51906
-7.02568
-6.5266
-6.02296
-5.51592
-5.00658
-4.49602
-3.9853
-3.4754
-2.9673
-2.46189
-1.96004
-1.46257
-0.970218
-0.483695
-0.0036466
0.469336
0.934716
1.39201
1.8408
2.28071
2.71141
3.13266
3.54426
3.94601
4.33775
4.71946
5.09137
5.4535
5.80538
6.14662
6.47721
6.79738
7.10737
7.40739
7.69762
7.97824
8.24945
8.51143
8.76441
9.00859
9.2442
9.47144
9.69054
9.90175
10.1053
10.3015
10.4904
10.6725
10.8479
11.0169
11.1796
11.3363
11.4873
11.6328
11.773
11.908
12.0381
12.1636
12.2845
12.4011
12.5135
12.6219
12.7265
12.8276
12.9256
13.0203
13.1117
13.2
13.2853
13.3678
13.4476
13.5248
13.5994
13.6718
13.7418
13.8097
13.8755
13.9392
14.0011
14.061
14.1192
14.1756
14.2304
14.2835
14.335
14.385
14.4335
14.4805
14.5261
14.5703
14.6131
14.6545
14.6946
14.7333
14.7707
14.8069
14.8417
14.8753
14.9077
14.939
14.9691
14.9983
15.0266
15.0543
15.0818
15.1095
15.1382
15.169
15.2044
15.246
15.3039
15.3643
-8.5832
-8.61445
-8.6884
-8.78203
-8.88558
-8.97789
-9.03927
-9.06377
-9.04682
-8.98645
-8.89669
-8.79977
-8.71798
-8.66648
-8.64426
-8.64093
-8.6504
-8.67584
-8.71117
-8.73129
-8.75544
-8.83288
-8.99185
-9.23091
-9.53742
-9.90809
-10.3337
-10.7938
-11.2667
-11.7346
-12.1849
-12.6082
-12.9982
-13.3509
-13.6646
-13.939
-14.1745
-14.3722
-14.5331
-14.6585
-14.7495
-14.8073
-14.8328
-14.827
-14.7906
-14.7242
-14.6284
-14.5032
-14.349
-14.169
-13.967
-13.7431
-13.4964
-13.2272
-12.936
-12.6236
-12.2908
-11.9387
-11.5682
-11.1803
-10.7761
-10.3567
-9.92323
-9.47683
-9.01868
-8.54995
-8.07184
-7.58557
-7.09231
-6.59326
-6.08958
-5.58241
-5.07286
-4.56201
-4.05091
-3.54057
-3.03194
-2.52594
-2.02342
-1.52521
-1.03206
-0.544679
-0.0637163
0.41023
0.876614
1.33495
1.78478
2.22573
2.65744
3.07961
3.49197
3.89429
4.28634
4.66802
5.03941
5.40071
5.75214
6.09371
6.42528
6.74673
7.05812
7.35955
7.65119
7.93321
8.20579
8.46912
8.72341
8.96887
9.20573
9.43424
9.65462
9.86707
10.0719
10.2692
10.4594
10.6426
10.8191
10.9892
11.153
11.3108
11.4628
11.6093
11.7504
11.8864
12.0176
12.1441
12.2661
12.3837
12.4972
12.6068
12.7125
12.8144
12.9124
13.0072
13.0987
13.1872
13.2728
13.3555
13.4356
13.5131
13.5881
13.6607
13.7311
13.7992
13.8653
13.9294
13.9915
14.0518
14.1102
14.1669
14.2219
14.2753
14.3271
14.3773
14.426
14.4732
14.519
14.5634
14.6064
14.648
14.6882
14.7272
14.7648
14.801
14.8361
14.8698
14.9024
14.9337
14.964
14.9933
15.0217
15.0496
15.0771
15.1049
15.1336
15.1643
15.1991
15.2387
15.2924
15.3422
-8.71028
-8.79212
-8.91017
-9.0161
-9.0991
-9.15306
-9.17379
-9.16007
-9.11056
-9.0275
-8.91993
-8.80439
-8.70435
-8.63951
-8.61055
-8.60557
-8.62441
-8.68097
-8.78446
-8.9314
-9.12149
-9.36179
-9.65537
-9.99419
-10.366
-10.7616
-11.171
-11.5823
-11.985
-12.3717
-12.7377
-13.0793
-13.3938
-13.6796
-13.9355
-14.161
-14.3561
-14.5207
-14.6551
-14.7596
-14.8346
-14.8804
-14.8975
-14.8864
-14.8474
-14.781
-14.6875
-14.567
-14.4195
-14.2458
-14.0475
-13.8256
-13.5805
-13.3129
-13.0235
-12.7129
-12.382
-12.0317
-11.663
-11.2768
-10.8742
-10.4562
-10.024
-9.57881
-9.12169
-8.65385
-8.1765
-7.69083
-7.19803
-6.69929
-6.19578
-5.68863
-5.17898
-4.66791
-4.15646
-3.64564
-3.13643
-2.62974
-2.12644
-1.62735
-1.13324
-0.644811
-0.162731
0.312401
0.780036
1.23968
1.69089
2.13328
2.5665
2.99028
3.40437
3.80858
4.20274
4.58678
4.96066
5.3244
5.67803
6.02155
6.35494
6.67819
6.99138
7.29463
7.58807
7.87188
8.14622
8.4113
8.66731
8.91447
9.153
9.38314
9.6051
9.81911
10.0254
10.2243
10.4159
10.6005
10.7784
10.9498
11.1149
11.274
11.4273
11.5749
11.7172
11.8543
11.9864
12.1138
12.2365
12.3549
12.4691
12.5793
12.6856
12.7881
12.8872
12.983
13.0756
13.1651
13.2516
13.3352
13.416
13.4943
13.57
13.6433
13.7144
13.7832
13.8498
13.9145
13.9771
14.0379
14.0968
14.154
14.2095
14.2633
14.3154
14.366
14.4151
14.4627
14.5088
14.5535
14.5968
14.6387
14.6792
14.7184
14.7563
14.7928
14.828
14.862
14.8947
14.9263
14.9567
14.9861
15.0147
15.0426
15.0702
15.0979
15.1264
15.1565
15.19
15.2266
15.2739
15.3075
-8.74999
-8.8475
-8.94884
-9.03542
-9.09993
-9.1397
-9.15222
-9.13487
-9.08762
-9.01547
-8.92962
-8.84684
-8.78535
-8.75807
-8.7699
-8.82292
-8.92102
-9.06785
-9.26406
-9.50465
-9.78077
-10.0852
-10.4119
-10.7546
-11.1079
-11.4667
-11.8255
-12.1791
-12.5231
-12.8532
-13.1662
-13.4593
-13.7305
-13.9781
-14.2008
-14.3977
-14.5681
-14.7118
-14.8285
-14.9181
-14.9807
-15.0163
-15.025
-15.007
-14.9624
-14.8914
-14.7943
-14.6714
-14.5232
-14.3504
-14.1535
-13.9331
-13.6897
-13.4238
-13.136
-12.8271
-12.4979
-12.1492
-11.782
-11.3972
-10.9958
-10.579
-10.1479
-9.70353
-9.24711
-8.77982
-8.30286
-7.81742
-7.32469
-6.82587
-6.32211
-5.81458
-5.30439
-4.79264
-4.28038
-3.76862
-3.25835
-2.75048
-2.24589
-1.74541
-1.24981
-0.759808
-0.276071
0.200792
0.670227
1.13173
1.58486
2.02922
2.46447
2.89032
3.30652
3.71289
4.10928
4.4956
4.87181
5.23787
5.59375
5.93944
6.27494
6.60028
6.91555
7.22086
7.51635
7.80219
8.07854
8.3456
8.60356
8.85263
9.09305
9.32502
9.54877
9.76454
9.97256
10.1731
10.3664
10.5526
10.7321
10.905
11.0716
11.232
11.3867
11.5356
11.6792
11.8175
11.9509
12.0794
12.2033
12.3228
12.4381
12.5493
12.6566
12.7602
12.8603
12.9572
13.0507
13.1411
13.2285
13.313
13.3947
13.4737
13.5502
13.6242
13.6959
13.7654
13.8327
13.8979
13.9612
14.0225
14.082
14.1396
14.1956
14.2498
14.3024
14.3535
14.403
14.451
14.4975
14.5425
14.5861
14.6283
14.6692
14.7086
14.7468
14.7835
14.819
14.8532
14.8861
14.9178
14.9484
14.9779
15.0065
15.0344
15.0618
15.0892
15.117
15.1459
15.1773
15.2098
15.2491
15.2677
-8.5384
-8.62335
-8.72346
-8.82058
-8.89797
-8.95073
-8.97785
-8.98012
-8.962
-8.93178
-8.90152
-8.88522
-8.89568
-8.94249
-9.03187
-9.16698
-9.34793
-9.57017
-9.82526
-10.1052
-10.4043
-10.7185
-11.0435
-11.3741
-11.7062
-12.0359
-12.3598
-12.6748
-12.9782
-13.2675
-13.5408
-13.7963
-14.0326
-14.2485
-14.443
-14.6152
-14.7643
-14.89
-14.9916
-15.0688
-15.1213
-15.149
-15.1516
-15.1291
-15.0814
-15.0085
-14.9106
-14.7877
-14.6401
-14.4683
-14.2726
-14.0536
-13.8115
-13.547
-13.2608
-12.9533
-12.6256
-12.2783
-11.9124
-11.5288
-11.1286
-10.7128
-10.2824
-9.83877
-9.38289
-8.91601
-8.4393
-7.95396
-7.46118
-6.96216
-6.45806
-5.95004
-5.43923
-4.92672
-4.41358
-3.90082
-3.38942
-2.88031
-2.37438
-1.87245
-1.37531
-0.883683
-0.398232
0.0804244
0.551726
1.01517
1.4703
1.91672
2.35409
2.78211
3.20053
3.60916
4.00784
4.39647
4.77498
5.14332
5.50147
5.8494
6.18712
6.51469
6.83218
7.13971
7.4374
7.72542
8.00393
8.27311
8.53318
8.78432
9.02678
9.26077
9.48651
9.70422
9.91415
10.1165
10.3116
10.4996
10.6808
10.8553
11.0235
11.1856
11.3418
11.4923
11.6373
11.7771
11.9118
12.0417
12.167
12.2878
12.4043
12.5167
12.6252
12.73
12.8312
12.929
13.0235
13.1149
13.2031
13.2885
13.371
13.4509
13.5282
13.603
13.6755
13.7456
13.8136
13.8795
13.9434
14.0053
14.0654
14.1236
14.1801
14.2349
14.288
14.3395
14.3895
14.4379
14.4848
14.5303
14.5743
14.6169
14.6581
14.6979
14.7363
14.7733
14.8091
14.8435
14.8766
14.9085
14.9392
14.9687
14.9973
15.025
15.0521
15.0789
15.1058
15.1331
15.1617
15.1895
15.2211
15.2272
-8.1185
-8.20689
-8.32782
-8.45051
-8.55574
-8.63616
-8.69445
-8.73647
-8.76985
-8.80435
-8.85094
-8.91992
-9.01936
-9.15408
-9.3263
-9.53506
-9.77568
-10.0426
-10.3304
-10.6335
-10.9464
-11.2643
-11.5833
-11.8998
-12.2111
-12.515
-12.8097
-13.0934
-13.3649
-13.6227
-13.8657
-14.0926
-14.3026
-14.4945
-14.6674
-14.8206
-14.9533
-15.0647
-15.1543
-15.2215
-15.2658
-15.2869
-15.2844
-15.2579
-15.2074
-15.1328
-15.0338
-14.9106
-14.7634
-14.5923
-14.3976
-14.1796
-13.9388
-13.6757
-13.3908
-13.0848
-12.7585
-12.4126
-12.048
-11.6656
-11.2665
-10.8518
-10.4223
-9.97937
-9.52409
-9.05766
-8.58126
-8.09607
-7.60329
-7.10411
-6.59971
-6.09124
-5.57984
-5.0666
-4.5526
-4.03885
-3.52634
-3.01602
-2.50876
-2.00541
-1.50674
-1.01349
-0.526333
-0.0458893
0.427276
0.892654
1.34979
1.79828
2.23777
2.66796
3.08861
3.4995
3.90047
4.29141
4.67223
5.04288
5.40331
5.75353
6.09354
6.42339
6.74316
7.05296
7.35292
7.64319
7.92394
8.19535
8.45761
8.71092
8.95551
9.19158
9.41936
9.63909
9.851
10.0553
10.2523
10.4422
10.6252
10.8015
10.9715
11.1353
11.2931
11.4453
11.5919
11.7332
11.8694
12.0008
12.1274
12.2496
12.3675
12.4812
12.5909
12.6969
12.7993
12.8982
12.9938
13.0861
13.1754
13.2617
13.3452
13.426
13.5042
13.5798
13.6531
13.7241
13.7928
13.8595
13.924
13.9867
14.0474
14.1062
14.1633
14.2187
14.2723
14.3244
14.3749
14.4238
14.4712
14.5171
14.5615
14.6045
14.646
14.6862
14.725
14.7623
14.7984
14.833
14.8663
14.8984
14.9292
14.9587
14.9872
15.0147
15.0414
15.0674
15.0931
15.1184
15.1439
15.1669
15.1912
15.1867
-7.65323
-7.75192
-7.89396
-8.04274
-8.18066
-8.29925
-8.40208
-8.49847
-8.59781
-8.70904
-8.83978
-8.99494
-9.17728
-9.38725
-9.62316
-9.88291
-10.1635
-10.4604
-10.7681
-11.0817
-11.3969
-11.7101
-12.0187
-12.3206
-12.6142
-12.8982
-13.1716
-13.4335
-13.6829
-13.9191
-14.1412
-14.3483
-14.5397
-14.7145
-14.8718
-15.0109
-15.131
-15.2315
-15.3115
-15.3705
-15.4079
-15.4233
-15.416
-15.3859
-15.3326
-15.2558
-15.1554
-15.0314
-14.8838
-14.7127
-14.5183
-14.3009
-14.0609
-13.7987
-13.5148
-13.21
-12.8848
-12.5401
-12.1767
-11.7955
-11.3976
-10.9839
-10.5555
-10.1135
-9.65904
-9.19335
-8.71756
-8.23287
-7.74048
-7.24156
-6.73728
-6.2288
-5.71725
-5.20374
-4.68932
-4.17503
-3.66185
-3.15072
-2.64254
-2.13813
-1.6383
-1.14378
-0.655244
-0.173318
0.301427
0.768477
1.22737
1.6777
2.1191
2.55128
2.97396
3.38695
3.79006
4.18317
4.56618
4.93903
5.30168
5.65412
5.99636
6.32845
6.65048
6.96253
7.26475
7.55726
7.84024
8.11386
8.37831
8.6338
8.88054
9.11874
9.34862
9.57042
9.78437
9.99071
10.1897
10.3815
10.5664
10.7446
10.9164
11.0819
11.2415
11.3953
11.5436
11.6865
11.8243
11.9572
12.0853
12.209
12.3282
12.4433
12.5544
12.6616
12.7652
12.8653
12.962
13.0555
13.1459
13.2332
13.3177
13.3995
13.4786
13.5552
13.6293
13.7011
13.7707
13.8381
13.9034
13.9668
14.0282
14.0877
14.1455
14.2014
14.2557
14.3083
14.3594
14.4088
14.4567
14.5031
14.548
14.5914
14.6334
14.6739
14.7131
14.7508
14.7871
14.822
14.8555
14.8877
14.9186
14.9481
14.9765
15.0036
15.0297
15.0548
15.0791
15.1023
15.1245
15.1426
15.1603
15.1464
-7.29711
-7.39063
-7.54266
-7.70836
-7.87516
-8.03607
-8.19057
-8.34655
-8.51226
-8.69352
-8.89437
-9.11605
-9.35712
-9.61674
-9.89431
-10.1875
-10.4927
-10.8054
-11.1214
-11.4371
-11.7495
-12.0565
-12.3562
-12.6471
-12.9284
-13.199
-13.4583
-13.7058
-13.9407
-14.1625
-14.3706
-14.5643
-14.7429
-14.9056
-15.0519
-15.1808
-15.2917
-15.3839
-15.4566
-15.5092
-15.541
-15.5516
-15.5403
-15.5068
-15.4507
-15.3717
-15.2696
-15.1443
-14.9957
-14.8239
-14.6291
-14.4115
-14.1715
-13.9095
-13.6259
-13.3215
-12.9968
-12.6527
-12.29
-11.9095
-11.5123
-11.0994
-10.6718
-10.2307
-9.77706
-9.31216
-8.83713
-8.35317
-7.86145
-7.36315
-6.85943
-6.35144
-5.84029
-5.32709
-4.81288
-4.2987
-3.78553
-3.27429
-2.76588
-2.26114
-1.76085
-1.26575
-0.776521
-0.293782
0.181892
0.649982
1.11002
1.5616
2.00437
2.43799
2.86222
3.27682
3.68161
4.07647
4.46127
4.83596
5.20049
5.55484
5.89904
6.23313
6.55717
6.87127
7.17555
7.47014
7.7552
8.03091
8.29746
8.55503
8.80385
9.04411
9.27604
9.49988
9.71583
9.92415
10.1251
10.3188
10.5056
10.6857
10.8593
11.0266
11.188
11.3435
11.4935
11.638
11.7774
11.9119
12.0415
12.1666
12.2873
12.4038
12.5162
12.6248
12.7297
12.831
12.9289
13.0235
13.115
13.2035
13.289
13.3718
13.4519
13.5294
13.6045
13.6772
13.7476
13.8158
13.882
13.9461
14.0082
14.0685
14.1269
14.1835
14.2384
14.2917
14.3433
14.3933
14.4417
14.4886
14.534
14.5779
14.6203
14.6613
14.7008
14.7389
14.7755
14.8107
14.8444
14.8767
14.9076
14.9371
14.9653
14.992
15.0175
15.0415
15.0642
15.085
15.1039
15.1173
15.1289
15.107
-7.10633
-7.19243
-7.34653
-7.51888
-7.70224
-7.89448
-8.09218
-8.29733
-8.5145
-8.74615
-8.99257
-9.25373
-9.52956
-9.81969
-10.1222
-10.4339
-10.7512
-11.0705
-11.389
-11.704
-12.0133
-12.3153
-12.6087
-12.8923
-13.1655
-13.4276
-13.6781
-13.9164
-14.1422
-14.3549
-14.554
-14.739
-14.9093
-15.0642
-15.2029
-15.3249
-15.4295
-15.5158
-15.5831
-15.6309
-15.6585
-15.6653
-15.6507
-15.6143
-15.5556
-15.4745
-15.3705
-15.2435
-15.0936
-14.9208
-14.7251
-14.5067
-14.2662
-14.0037
-13.7199
-13.4153
-13.0906
-12.7465
-12.3839
-12.0038
-11.6069
-11.1944
-10.7673
-10.3267
-9.8737
-9.40946
-8.93513
-8.4519
-7.96092
-7.46337
-6.96039
-6.45314
-5.94271
-5.4302
-4.91664
-4.40305
-3.89041
-3.37965
-2.87163
-2.36719
-1.86712
-1.37214
-0.882916
-0.400085
0.0757877
0.544186
1.00464
1.45675
1.90013
2.33448
2.75954
3.17506
3.58088
3.97685
4.36285
4.73881
5.10468
5.46045
5.80613
6.14175
6.46739
6.78313
7.0891
7.38542
7.67225
7.94976
8.21812
8.47753
8.72818
8.9703
9.20409
9.42977
9.64758
9.85773
10.0605
10.256
10.4446
10.6265
10.8018
10.9709
11.1339
11.2911
11.4427
11.5889
11.7299
11.8658
11.997
12.1236
12.2457
12.3636
12.4774
12.5873
12.6934
12.796
12.8951
12.9909
13.0835
13.1731
13.2597
13.3435
13.4246
13.5031
13.5791
13.6527
13.724
13.7931
13.86
13.9249
13.9878
14.0488
14.108
14.1653
14.2208
14.2747
14.3269
14.3775
14.4265
14.4739
14.5199
14.5642
14.6071
14.6485
14.6884
14.7268
14.7638
14.7992
14.8332
14.8656
14.8966
14.926
14.9539
14.9801
15.0048
15.0277
15.0487
15.0671
15.0826
15.0915
15.0978
15.0688
-7.07798
-7.16479
-7.31248
-7.48126
-7.66796
-7.87248
-8.09165
-8.32348
-8.56821
-8.82646
-9.09774
-9.38121
-9.67662
-9.98282
-10.2971
-10.6165
-10.9381
-11.2592
-11.5774
-11.8905
-12.197
-12.4954
-12.7846
-13.0637
-13.3322
-13.5894
-13.8349
-14.0682
-14.2889
-14.4966
-14.6907
-14.8708
-15.0363
-15.1865
-15.3208
-15.4385
-15.5389
-15.6214
-15.6852
-15.7296
-15.7541
-15.758
-15.7408
-15.7019
-15.6411
-15.5579
-15.4521
-15.3235
-15.1721
-14.9979
-14.801
-14.5817
-14.3402
-14.077
-13.7926
-13.4875
-13.1625
-12.8182
-12.4555
-12.0754
-11.6787
-11.2665
-10.8397
-10.3996
-9.94717
-9.48359
-9.01002
-8.52761
-8.03751
-7.5409
-7.03889
-6.53264
-6.02323
-5.51173
-4.99919
-4.4866
-3.97493
-3.46509
-2.95796
-2.45434
-1.95503
-1.46073
-0.972122
-0.489814
-0.0143689
0.453701
0.913937
1.36593
1.80931
2.24377
2.66904
3.08489
3.49113
3.8876
4.27421
4.65087
5.01753
5.37416
5.72079
6.05745
6.38419
6.70112
7.00833
7.30596
7.59415
7.87307
8.14288
8.40378
8.65596
8.89962
9.13498
9.36226
9.58167
9.79343
9.99778
10.1949
10.3851
10.5686
10.7456
10.9162
11.0808
11.2396
11.3927
11.5404
11.6829
11.8203
11.9529
12.0809
12.2044
12.3236
12.4387
12.5499
12.6573
12.7611
12.8613
12.9583
13.052
13.1427
13.2303
13.3152
13.3972
13.4767
13.5537
13.6282
13.7004
13.7703
13.8381
13.9038
13.9674
14.0292
14.089
14.147
14.2032
14.2578
14.3106
14.3618
14.4113
14.4593
14.5058
14.5506
14.594
14.6358
14.6761
14.7149
14.7522
14.7879
14.8221
14.8546
14.8856
14.9149
14.9425
14.9682
14.9921
15.0138
15.033
15.049
15.0612
15.0659
15.0672
15.0321
-7.18848
-7.26685
-7.3978
-7.55368
-7.73231
-7.93337
-8.15416
-8.39211
-8.64557
-8.91322
-9.1934
-9.48499
-9.78705
-10.0976
-10.4142
-10.7343
-11.0554
-11.375
-11.6913
-12.0022
-12.3063
-12.6024
-12.8893
-13.1663
-13.4327
-13.688
-13.9315
-14.163
-14.3818
-14.5875
-14.7797
-14.9578
-15.1212
-15.2693
-15.4014
-15.517
-15.6152
-15.6955
-15.7571
-15.7994
-15.8218
-15.8236
-15.8044
-15.7636
-15.7009
-15.6159
-15.5085
-15.3783
-15.2255
-15.0499
-14.8518
-14.6314
-14.3889
-14.1249
-13.8397
-13.5341
-13.2087
-12.8642
-12.5014
-12.1214
-11.7249
-11.313
-10.8868
-10.4474
-9.99575
-9.5331
-9.06056
-8.57928
-8.09042
-7.59511
-7.09448
-6.58965
-6.08171
-5.57171
-5.06069
-4.54962
-4.03945
-3.53108
-3.02538
-2.52314
-2.02514
-1.53208
-1.04462
-0.563378
-0.0889023
0.378297
0.837763
1.28909
1.73192
2.16593
2.59086
3.00648
3.4126
3.80906
4.19576
4.57262
4.93957
5.2966
5.64372
5.98096
6.30838
6.62606
6.93412
7.23266
7.52184
7.8018
8.07273
8.33479
8.58818
8.83309
9.06974
9.29834
9.5191
9.73224
9.93798
10.1365
10.3282
10.5131
10.6914
10.8635
11.0295
11.1897
11.3442
11.4933
11.6371
11.7759
11.9099
12.0391
12.1639
12.2844
12.4008
12.5132
12.6218
12.7267
12.8282
12.9262
13.021
13.1127
13.2014
13.2872
13.3703
13.4507
13.5286
13.604
13.677
13.7478
13.8164
13.8828
13.9473
14.0097
14.0703
14.129
14.1859
14.2411
14.2945
14.3463
14.3964
14.445
14.4919
14.5373
14.5811
14.6234
14.6642
14.7033
14.7409
14.7769
14.8112
14.8439
14.8749
14.904
14.9313
14.9565
14.9795
14.9999
15.0174
15.031
15.0401
15.0408
15.0376
14.9973
-7.36475
-7.42933
-7.54024
-7.67867
-7.84248
-8.0312
-8.24247
-8.47363
-8.72223
-8.98594
-9.26254
-9.55084
-9.84964
-10.1567
-10.4697
-10.7861
-11.1036
-11.4201
-11.7336
-12.0424
-12.345
-12.64
-12.9264
-13.2032
-13.4698
-13.7255
-13.9696
-14.2016
-14.421
-14.6273
-14.8198
-14.9981
-15.1616
-15.3095
-15.4413
-15.5563
-15.6538
-15.7331
-15.7937
-15.8348
-15.8558
-15.8563
-15.8356
-15.7933
-15.7291
-15.6426
-15.5336
-15.4021
-15.2479
-15.0711
-14.8719
-14.6504
-14.4071
-14.1424
-13.8567
-13.5507
-13.2251
-12.8807
-12.5181
-12.1385
-11.7426
-11.3315
-10.9063
-10.468
-10.0177
-9.55645
-9.08549
-8.60592
-8.11887
-7.62547
-7.12684
-6.62406
-6.11821
-5.61032
-5.10142
-4.59248
-4.08442
-3.57815
-3.07449
-2.57424
-2.07816
-1.58695
-1.10126
-0.621681
-0.148772
0.316968
0.775091
1.22519
1.66691
2.09994
2.52401
2.93889
3.34439
3.74037
4.12669
4.50329
4.8701
5.22711
5.57431
5.91174
6.23946
6.55754
6.86608
7.1652
7.45504
7.73574
8.00748
8.27042
8.52474
8.77065
9.00835
9.23803
9.45992
9.67422
9.88115
10.0809
10.2738
10.4599
10.6396
10.8129
10.9802
11.1417
11.2975
11.4478
11.5929
11.733
11.8682
11.9987
12.1247
12.2464
12.3639
12.4775
12.5872
12.6932
12.7957
12.8949
12.9907
13.0834
13.1731
13.2599
13.3439
13.4252
13.504
13.5802
13.6541
13.7257
13.7951
13.8624
13.9276
13.9907
14.052
14.1114
14.169
14.2248
14.2788
14.3312
14.3819
14.431
14.4785
14.5244
14.5687
14.6115
14.6526
14.6922
14.7301
14.7663
14.8009
14.8337
14.8646
14.8936
14.9205
14.9452
14.9673
14.9865
15.0022
15.0135
15.0196
15.0167
15.0094
14.9646
-7.53854
-7.59003
-7.6826
-7.80318
-7.94979
-8.12191
-8.31747
-8.5341
-8.76934
-9.02065
-9.28598
-9.56423
-9.85401
-10.1531
-10.459
-10.7695
-11.0822
-11.395
-11.7059
-12.0131
-12.315
-12.6103
-12.8978
-13.1763
-13.445
-13.703
-13.9497
-14.1843
-14.4063
-14.6149
-14.8097
-14.9899
-15.1549
-15.3041
-15.4368
-15.5524
-15.6502
-15.7295
-15.7898
-15.8304
-15.8507
-15.8502
-15.8285
-15.7851
-15.7197
-15.632
-15.5218
-15.3892
-15.2339
-15.0562
-14.8561
-14.634
-14.3902
-14.1251
-13.8394
-13.5335
-13.2082
-12.8643
-12.5026
-12.1239
-11.7292
-11.3196
-10.896
-10.4595
-10.0112
-9.55212
-9.08349
-8.60638
-8.12191
-7.63119
-7.13532
-6.63536
-6.13238
-5.6274
-5.12141
-4.61536
-4.11018
-3.60674
-3.10587
-2.60833
-2.11489
-1.62621
-1.14295
-0.665693
-0.194985
0.268683
0.724865
1.17316
1.61322
2.04473
2.46742
2.88106
3.28547
3.68048
4.06599
4.44191
4.80817
5.16476
5.51167
5.84893
6.1766
6.49475
6.80346
7.10286
7.39308
7.67425
7.94653
8.2101
8.46513
8.71181
8.95034
9.18091
9.40373
9.61902
9.82697
10.0278
10.2218
10.409
10.5898
10.7643
10.9328
11.0954
11.2523
11.4039
11.5501
11.6914
11.8277
11.9594
12.0865
12.2094
12.328
12.4427
12.5535
12.6606
12.7641
12.8643
12.9611
13.0548
13.1455
13.2332
13.3181
13.4003
13.48
13.5571
13.6318
13.7042
13.7744
13.8424
13.9083
13.9722
14.0342
14.0943
14.1525
14.2089
14.2636
14.3166
14.3679
14.4176
14.4656
14.512
14.5568
14.6
14.6416
14.6815
14.7198
14.7563
14.7911
14.824
14.8549
14.8838
14.9103
14.9344
14.9556
14.9736
14.9876
14.9967
15
14.9938
14.9828
14.9343
-7.66533
-7.7075
-7.78468
-7.88861
-8.01783
-8.17187
-8.349
-8.54726
-8.76463
-8.99893
-9.24875
-9.51338
-9.79139
-10.0805
-10.3782
-10.6822
-10.99
-11.2995
-11.6086
-11.9154
-12.2182
-12.5153
-12.8054
-13.0872
-13.3597
-13.6219
-13.8727
-14.1115
-14.3375
-14.5499
-14.748
-14.9312
-15.0988
-15.2502
-15.3847
-15.5016
-15.6002
-15.6801
-15.7405
-15.781
-15.8009
-15.7999
-15.7775
-15.7333
-15.667
-15.5784
-15.4674
-15.334
-15.178
-14.9998
-14.7994
-14.5771
-14.3334
-14.0686
-13.7834
-13.4783
-13.1541
-12.8115
-12.4514
-12.0746
-11.682
-11.2747
-10.8537
-10.4199
-9.97459
-9.5187
-9.05337
-8.57971
-8.09879
-7.61173
-7.11958
-6.6234
-6.12424
-5.62308
-5.1209
-4.61863
-4.11718
-3.61741
-3.12014
-2.62612
-2.13607
-1.65067
-1.17056
-0.696314
-0.228472
0.232482
0.686108
1.13201
1.56984
1.99928
2.42007
2.83198
3.23481
3.62842
4.01268
4.3875
4.75283
5.10863
5.4549
5.79166
6.11896
6.43687
6.74548
7.04489
7.33522
7.61661
7.88922
8.1532
8.40873
8.65599
8.89517
9.12646
9.35006
9.56617
9.77501
9.97677
10.1717
10.3599
10.5417
10.7173
10.8868
11.0505
11.2085
11.3612
11.5085
11.6509
11.7883
11.9211
12.0493
12.1732
12.293
12.4087
12.5205
12.6287
12.7332
12.8344
12.9322
13.0268
13.1184
13.2071
13.2929
13.376
13.4565
13.5344
13.61
13.6832
13.7541
13.8229
13.8895
13.9542
14.0168
14.0776
14.1365
14.1935
14.2489
14.3024
14.3543
14.4046
14.4531
14.5001
14.5454
14.589
14.6311
14.6714
14.71
14.7468
14.7818
14.8148
14.8458
14.8745
14.9008
14.9243
14.9447
14.9614
14.9739
14.9809
14.9816
14.9724
14.9581
14.9064
-7.72082
-7.75905
-7.82463
-7.91361
-8.02581
-8.16119
-8.31871
-8.49704
-8.69463
-8.90993
-9.14244
-9.39207
-9.65746
-9.93625
-10.2259
-10.5238
-10.8275
-11.1348
-11.4434
-11.7511
-12.056
-12.3564
-12.6505
-12.9371
-13.2146
-13.4821
-13.7382
-13.9822
-14.2131
-14.43
-14.6323
-14.8192
-14.9899
-15.1439
-15.2805
-15.399
-15.4988
-15.5795
-15.6403
-15.6809
-15.7008
-15.6994
-15.6766
-15.6319
-15.5651
-15.4761
-15.3648
-15.2311
-15.0751
-14.897
-14.6969
-14.4753
-14.2325
-13.9689
-13.6852
-13.3819
-13.0598
-12.7196
-12.3622
-11.9883
-11.599
-11.1952
-10.7779
-10.3481
-9.90692
-9.45535
-8.99448
-8.52541
-8.04919
-7.5669
-7.07958
-6.58827
-6.09397
-5.59766
-5.1003
-4.60279
-4.10602
-3.61083
-3.11802
-2.62836
-2.14253
-1.6612
-1.18499
-0.714475
-0.250186
0.207398
0.657841
1.10075
1.53578
1.96261
2.38098
2.79067
3.19147
3.58323
3.96583
4.33916
4.70318
5.05784
5.40314
5.73909
6.06573
6.38313
6.69137
6.99054
7.28076
7.56216
7.83489
8.0991
8.35495
8.60262
8.84229
9.07415
9.29839
9.5152
9.7248
9.92737
10.1231
10.3123
10.495
10.6715
10.842
11.0067
11.1658
11.3195
11.4679
11.6113
11.7498
11.8836
12.0129
12.1378
12.2586
12.3754
12.4882
12.5974
12.7029
12.805
12.9038
12.9994
13.0919
13.1814
13.2681
13.3521
13.4334
13.5122
13.5885
13.6625
13.7342
13.8038
13.8712
13.9365
13.9999
14.0613
14.1209
14.1786
14.2345
14.2887
14.3412
14.392
14.4412
14.4886
14.5344
14.5786
14.6211
14.6618
14.7008
14.7379
14.7732
14.8063
14.8373
14.8659
14.8919
14.9149
14.9345
14.9502
14.9611
14.9662
14.9646
14.9526
14.9353
14.881
-7.70647
-7.74114
-7.79796
-7.8731
-7.9681
-8.08378
-8.22017
-8.37688
-8.55315
-8.74827
-8.96268
-9.19688
-9.44967
-9.71858
-10.0009
-10.294
-10.5951
-10.9017
-11.2113
-11.5216
-11.8303
-12.1353
-12.4348
-12.7271
-13.0107
-13.2841
-13.5462
-13.7958
-14.0319
-14.2537
-14.4602
-14.6508
-14.8246
-14.9812
-15.1198
-15.2399
-15.3409
-15.4223
-15.4837
-15.5246
-15.5446
-15.5432
-15.5203
-15.4756
-15.4089
-15.3201
-15.2091
-15.076
-14.9208
-14.7437
-14.545
-14.3251
-14.0843
-13.8231
-13.542
-13.2418
-12.9231
-12.5866
-12.2332
-11.8637
-11.479
-11.08
-10.6678
-10.2434
-9.80769
-9.36177
-8.90671
-8.44353
-7.97328
-7.49701
-7.01574
-6.53047
-6.04218
-5.55183
-5.06035
-4.56864
-4.07755
-3.5879
-3.10048
-2.61603
-2.13527
-1.65882
-1.18728
-0.721232
-0.261185
0.192374
0.639012
1.07834
1.51
1.9337
2.34915
2.75614
3.15446
3.54396
3.92449
4.29598
4.65834
5.01154
5.35556
5.69042
6.01614
6.33278
6.64041
6.93912
7.22903
7.51025
7.78292
8.04718
8.3032
8.55114
8.79117
9.02348
9.24824
9.46566
9.67591
9.87921
10.0757
10.2657
10.4493
10.6267
10.7981
10.9638
11.1238
11.2785
11.4279
11.5723
11.7118
11.8467
11.977
12.103
12.2247
12.3425
12.4563
12.5665
12.673
12.776
12.8758
12.9723
13.0657
13.1561
13.2437
13.3285
13.4107
13.4903
13.5675
13.6423
13.7147
13.785
13.8532
13.9192
13.9833
14.0454
14.1056
14.164
14.2206
14.2754
14.3285
14.3799
14.4296
14.4776
14.524
14.5687
14.6116
14.6528
14.6922
14.7296
14.7651
14.7985
14.8296
14.8581
14.8838
14.9064
14.9253
14.9399
14.9495
14.9528
14.9491
14.9347
14.9147
14.8582
-7.64279
-7.66851
-7.71464
-7.77328
-7.84803
-7.94091
-8.05312
-8.18556
-8.33846
-8.51209
-8.70785
-8.92677
-9.16766
-9.42785
-9.70436
-9.99421
-10.2944
-10.6021
-10.9144
-11.2286
-11.5423
-11.8529
-12.1586
-12.4572
-12.7471
-13.0267
-13.2946
-13.5496
-13.7907
-14.0169
-14.2273
-14.4212
-14.5978
-14.7567
-14.8971
-15.0186
-15.1208
-15.2031