/*--------------------------------*- C++ -*----------------------------------*\
  =========                 |
  \\      /  F ield         | OpenFOAM: The Open Source CFD Toolbox
   \\    /   O peration     | Website:  https://openfoam.org
    \\  /    A nd           | Version:  8
     \\/     M anipulation  |
\*---------------------------------------------------------------------------*/
FoamFile
{
    version     2.0;
    format      ascii;
    class       surfaceScalarField;
    location    "1100";
    object      phi;
}
// * * * * * * * * * * * * * * * * * * * * * * * * * * * * * * * * * * * * * //

dimensions      [0 3 -1 0 0 0 0];

internalField   nonuniform List<scalar> 
24170
(
3.92539e-06
-7.91498e-07
3.76465e-06
1.6075e-07
3.63345e-06
1.31209e-07
3.43331e-06
2.00143e-07
3.28028e-06
1.53027e-07
3.18901e-06
9.11902e-08
3.13092e-06
5.81102e-08
3.0861e-06
4.58902e-08
3.04613e-06
4.23209e-08
3.0106e-06
3.81586e-08
2.97877e-06
3.3797e-08
2.94906e-06
3.07634e-08
2.9219e-06
2.73682e-08
2.89646e-06
2.51859e-08
2.87233e-06
2.35844e-08
2.85203e-06
1.94452e-08
2.84111e-06
9.81356e-09
-6.54488e-09
2.84698e-06
3.58445e-06
-9.19499e-07
3.80424e-06
-5.90414e-08
3.74282e-06
1.92629e-07
3.6906e-06
2.52374e-07
3.6373e-06
2.06332e-07
3.59023e-06
1.38279e-07
3.55289e-06
9.55982e-08
3.5231e-06
7.5657e-08
3.49854e-06
6.65652e-08
3.47733e-06
5.9209e-08
3.45873e-06
5.25214e-08
3.44254e-06
4.72543e-08
3.42797e-06
4.23235e-08
3.41469e-06
3.87654e-08
3.40273e-06
3.56997e-08
3.39127e-06
3.09989e-08
3.38045e-06
2.07596e-08
4.59614e-09
3.36953e-06
3.68518e-06
-7.92482e-07
3.83639e-06
-2.10251e-07
3.91494e-06
1.14082e-07
3.94502e-06
2.22292e-07
3.94408e-06
2.07263e-07
3.92749e-06
1.54895e-07
3.90755e-06
1.15612e-07
3.88933e-06
9.36404e-08
3.87401e-06
8.11906e-08
3.86057e-06
7.19078e-08
3.84835e-06
6.42454e-08
3.8373e-06
5.81209e-08
3.82694e-06
5.2759e-08
3.81744e-06
4.84462e-08
3.80895e-06
4.43918e-08
3.80103e-06
3.91872e-08
3.79202e-06
3.01064e-08
1.7622e-08
3.7795e-06
4.05359e-06
-6.4151e-07
4.1146e-06
-2.7126e-07
4.20799e-06
2.06907e-08
4.26635e-06
1.63931e-07
4.2907e-06
1.82924e-07
4.29287e-06
1.52746e-07
4.28572e-06
1.22815e-07
4.27632e-06
1.02837e-07
4.26728e-06
8.96783e-08
4.25875e-06
7.98071e-08
4.25058e-06
7.19357e-08
4.24285e-06
6.56158e-08
4.23537e-06
6.02202e-08
4.22827e-06
5.56566e-08
4.22153e-06
5.1301e-08
4.21469e-06
4.62697e-08
4.20604e-06
3.90753e-08
3.04971e-08
4.19355e-06
4.50491e-06
-5.09114e-07
4.51536e-06
-2.81709e-07
4.58529e-06
-4.92354e-08
4.64665e-06
1.02564e-07
4.68259e-06
1.46989e-07
4.69688e-06
1.38469e-07
4.69946e-06
1.20232e-07
4.69723e-06
1.04918e-07
4.69332e-06
9.32451e-08
4.68869e-06
8.40443e-08
4.68368e-06
7.66245e-08
4.67853e-06
7.05847e-08
4.67323e-06
6.5463e-08
4.66786e-06
6.10629e-08
4.66231e-06
5.69464e-08
4.6561e-06
5.26221e-08
4.64791e-06
4.7481e-08
4.24567e-08
4.63615e-06
5.00014e-06
-3.94663e-07
4.98614e-06
-2.67705e-07
5.03069e-06
-9.37805e-08
5.08506e-06
4.81954e-08
5.12454e-06
1.07513e-07
5.14609e-06
1.16935e-07
5.15584e-06
1.10482e-07
5.1594e-06
1.01276e-07
5.15986e-06
9.25955e-08
5.1586e-06
8.50676e-08
5.15631e-06
7.8722e-08
5.15335e-06
7.34151e-08
5.14987e-06
6.88973e-08
5.14592e-06
6.50155e-08
5.14139e-06
6.15234e-08
5.13587e-06
5.82261e-08
5.12842e-06
5.50414e-08
5.29165e-08
5.1181e-06
5.54382e-06
-2.97475e-07
5.51664e-06
-2.4053e-07
5.54055e-06
-1.17688e-07
5.58388e-06
4.86725e-09
5.62166e-06
6.97298e-08
5.64656e-06
9.20398e-08
5.66108e-06
9.59598e-08
5.66907e-06
9.32359e-08
5.67316e-06
8.84098e-08
5.67483e-06
8.32823e-08
5.67492e-06
7.85276e-08
5.67392e-06
7.43443e-08
5.67206e-06
7.07255e-08
5.66943e-06
6.76442e-08
5.66594e-06
6.50339e-08
5.6613e-06
6.29052e-08
5.65496e-06
6.14451e-08
6.14107e-08
5.64651e-06
4.34788e-06
-2.39242e-07
4.32251e-06
-2.15163e-07
4.33078e-06
-1.25953e-07
4.35419e-06
-1.85398e-08
4.3784e-06
4.55207e-08
4.39647e-06
7.39776e-08
4.40841e-06
8.40131e-08
4.41597e-06
8.5661e-08
4.4206e-06
8.37514e-08
4.42326e-06
8.05769e-08
4.42457e-06
7.71702e-08
4.42491e-06
7.39692e-08
4.42448e-06
7.11375e-08
4.42336e-06
6.87568e-08
4.42153e-06
6.68703e-08
4.41886e-06
6.55894e-08
4.41515e-06
6.51715e-08
6.62363e-08
4.41035e-06
5.08621e-06
-1.856e-07
5.05777e-06
-1.86719e-07
5.0584e-06
-1.2658e-07
5.07686e-06
-3.70063e-08
5.09918e-06
2.32082e-08
5.11773e-06
5.54281e-08
5.13124e-06
7.04962e-08
5.14059e-06
7.63027e-08
5.14687e-06
7.74577e-08
5.15095e-06
7.64745e-08
5.15346e-06
7.46478e-08
5.15478e-06
7.26306e-08
5.15516e-06
7.07525e-08
5.1547e-06
6.92096e-08
5.15343e-06
6.81438e-08
5.15129e-06
6.77342e-08
5.14821e-06
6.82585e-08
7.01685e-08
5.14429e-06
5.94839e-06
-1.38194e-07
5.91832e-06
-1.5665e-07
5.91161e-06
-1.19868e-07
5.924e-06
-4.94012e-08
5.94286e-06
4.35215e-09
5.96058e-06
3.77078e-08
5.9748e-06
5.62793e-08
5.98547e-06
6.56311e-08
5.9932e-06
6.97163e-08
5.99868e-06
7.09929e-08
6.00243e-06
7.08852e-08
6.00486e-06
7.02024e-08
6.00619e-06
6.94124e-08
6.00659e-06
6.88123e-08
6.00611e-06
6.86226e-08
6.00479e-06
6.90597e-08
6.00267e-06
7.03755e-08
7.28807e-08
5.99996e-06
6.95439e-06
-9.83133e-08
6.92402e-06
-1.2628e-07
6.91113e-06
-1.06987e-07
6.9168e-06
-5.50706e-08
6.93088e-06
-9.71757e-09
6.94635e-06
2.22296e-08
6.96015e-06
4.24799e-08
6.9714e-06
5.43797e-08
6.98018e-06
6.09406e-08
6.98685e-06
6.43219e-08
6.99181e-06
6.59235e-08
6.99538e-06
6.66262e-08
6.99781e-06
6.69845e-08
6.99925e-06
6.73697e-08
6.99982e-06
6.80502e-08
6.99963e-06
6.92527e-08
6.99882e-06
7.11877e-08
7.4043e-08
6.99766e-06
8.12719e-06
-6.64881e-08
8.09793e-06
-9.70226e-08
8.08056e-06
-8.96121e-08
8.07955e-06
-5.4064e-08
8.08793e-06
-1.80971e-08
8.09985e-06
1.03122e-08
8.11199e-06
3.03451e-08
8.12286e-06
4.35045e-08
8.13203e-06
5.17735e-08
8.13951e-06
5.68409e-08
8.14549e-06
5.99431e-08
8.15018e-06
6.19313e-08
8.15378e-06
6.33858e-08
8.15645e-06
6.47044e-08
8.15833e-06
6.61736e-08
8.15957e-06
6.80075e-08
8.16039e-06
7.03682e-08
7.33615e-08
8.16107e-06
9.49368e-06
-4.24392e-08
9.4668e-06
-7.01446e-08
9.44683e-06
-6.96438e-08
9.43991e-06
-4.71375e-08
9.44229e-06
-2.04762e-08
9.44966e-06
2.94428e-09
9.45895e-06
2.10499e-08
9.4684e-06
3.40523e-08
9.47716e-06
4.30138e-08
9.48491e-06
4.90934e-08
9.49159e-06
5.32611e-08
9.49727e-06
5.62534e-08
9.50205e-06
5.86023e-08
9.50607e-06
6.06882e-08
9.50947e-06
6.27784e-08
9.51241e-06
6.50591e-08
9.51513e-06
6.76489e-08
7.06015e-08
9.51789e-06
1.10854e-05
-2.51596e-08
1.10618e-05
-4.65045e-08
1.1041e-05
-4.88105e-08
1.10294e-05
-3.55577e-08
1.10261e-05
-1.71784e-08
1.10284e-05
5.9331e-10
1.1034e-05
1.54598e-08
1.10411e-05
2.69522e-08
1.10487e-05
3.5469e-08
1.10561e-05
4.16886e-08
1.1063e-05
4.62814e-08
1.10695e-05
4.9806e-08
1.10754e-05
5.26929e-08
1.10808e-05
5.52562e-08
1.10859e-05
5.77164e-08
1.10907e-05
6.02175e-08
1.10955e-05
6.28402e-08
6.56078e-08
1.11005e-05
1.29396e-05
-1.31192e-08
1.29194e-05
-2.62807e-08
1.28988e-05
-2.82559e-08
1.28839e-05
-2.06939e-08
1.28758e-05
-9.00463e-09
1.28732e-05
3.13311e-09
1.28748e-05
1.3925e-08
1.28789e-05
2.27699e-08
1.28847e-05
2.97221e-08
1.28913e-05
3.51167e-08
1.28982e-05
3.93528e-08
1.29052e-05
4.27934e-08
1.29122e-05
4.57308e-08
1.2919e-05
4.83822e-08
1.29259e-05
5.08967e-08
1.29327e-05
5.33661e-08
1.29397e-05
5.58337e-08
5.83024e-08
1.2947e-05
1.50998e-05
-4.48372e-09
1.50822e-05
-8.67818e-09
1.50621e-05
-8.11762e-09
1.50448e-05
-3.46451e-09
1.50327e-05
3.1008e-09
1.50259e-05
9.92694e-09
1.50237e-05
1.61469e-08
1.5025e-05
2.14461e-08
1.50289e-05
2.58316e-08
1.50346e-05
2.94594e-08
1.50414e-05
3.25256e-08
1.5049e-05
3.52108e-08
1.50571e-05
3.76582e-08
1.50655e-05
3.99692e-08
1.50742e-05
4.22065e-08
1.50831e-05
4.43995e-08
1.50924e-05
4.65509e-08
4.86424e-08
1.51021e-05
1.76171e-05
2.89252e-09
1.75999e-05
8.52097e-09
1.75787e-05
1.30257e-08
1.7559e-05
1.62716e-08
1.75436e-05
1.84637e-08
1.75336e-05
1.99461e-08
1.75287e-05
2.10376e-08
1.75282e-05
2.19758e-08
1.75311e-05
2.29188e-08
1.75366e-05
2.39615e-08
1.7544e-05
2.51505e-08
1.75527e-05
2.64984e-08
1.75623e-05
2.79941e-08
1.75727e-05
2.96124e-08
1.75836e-05
3.13165e-08
1.75949e-05
3.30656e-08
1.76067e-05
3.48136e-08
3.65161e-08
1.76188e-05
1.78181e-05
1.09998e-08
1.77994e-05
2.72105e-08
1.77768e-05
3.56202e-08
1.7756e-05
3.70524e-08
1.77402e-05
3.43175e-08
1.77302e-05
2.9935e-08
1.77257e-05
2.54857e-08
1.77259e-05
2.17607e-08
1.77298e-05
1.90548e-08
1.77364e-05
1.73772e-08
1.77449e-05
1.66074e-08
1.77549e-05
1.65763e-08
1.77657e-05
1.71129e-08
1.77773e-05
1.80595e-08
1.77893e-05
1.9284e-08
1.78017e-05
2.06727e-08
1.78144e-05
2.21364e-08
2.35989e-08
1.78273e-05
1.58702e-05
2.21329e-08
1.58478e-05
4.95795e-08
1.58233e-05
6.01287e-08
1.58031e-05
5.72288e-08
1.57899e-05
4.76023e-08
1.57834e-05
3.63606e-08
1.57827e-05
2.61838e-08
1.57864e-05
1.81298e-08
1.57931e-05
1.23459e-08
1.58019e-05
8.59068e-09
1.5812e-05
6.47331e-09
1.5823e-05
5.60419e-09
1.58344e-05
5.63936e-09
1.58462e-05
6.30333e-09
1.58581e-05
7.37472e-09
1.58701e-05
8.69041e-09
1.58821e-05
1.01215e-08
1.15793e-08
1.58941e-05
1.41313e-05
3.95382e-08
1.41021e-05
7.87052e-08
1.40745e-05
8.77845e-08
1.40557e-05
7.60332e-08
1.40469e-05
5.64058e-08
1.40462e-05
3.70296e-08
1.40512e-05
2.11976e-08
1.40597e-05
9.567e-09
1.40703e-05
1.74496e-09
1.4082e-05
-3.06854e-09
1.40941e-05
-5.62552e-09
1.41063e-05
-6.58266e-09
1.41184e-05
-6.43727e-09
1.41303e-05
-5.58e-09
1.41419e-05
-4.28126e-09
1.41533e-05
-2.7409e-09
1.41646e-05
-1.09671e-09
5.54811e-10
1.41756e-05
1.25772e-05
6.73551e-08
1.25392e-05
1.16738e-07
1.25091e-05
1.17886e-07
1.24942e-05
9.08863e-08
1.24928e-05
5.78071e-08
1.25002e-05
2.9674e-08
1.25122e-05
9.11987e-09
1.25264e-05
-4.5097e-09
1.25409e-05
-1.2851e-08
1.25552e-05
-1.73646e-08
1.25689e-05
-1.93013e-08
1.25819e-05
-1.95174e-08
1.25941e-05
-1.86718e-08
1.26057e-05
-1.71724e-08
1.26167e-05
-1.53213e-08
1.26273e-05
-1.33172e-08
1.26375e-05
-1.1281e-08
-9.30111e-09
1.26473e-05
1.11862e-05
1.10916e-07
1.11384e-05
1.64569e-07
1.11088e-05
1.47518e-07
1.11022e-05
9.74806e-08
1.11117e-05
4.83071e-08
1.11289e-05
1.2394e-08
1.11486e-05
-1.04706e-08
1.11678e-05
-2.37385e-08
1.11855e-05
-3.05198e-08
1.12014e-05
-3.33036e-08
1.12157e-05
-3.35676e-08
1.12285e-05
-3.23721e-08
1.12402e-05
-3.03158e-08
1.12508e-05
-2.78657e-08
1.12608e-05
-2.52599e-08
1.12701e-05
-2.26514e-08
1.1279e-05
-2.01486e-08
-1.77743e-08
1.12874e-05
9.93908e-06
1.76451e-07
9.88248e-06
2.21162e-07
9.85873e-06
1.7126e-07
9.86593e-06
9.02722e-08
9.8896e-06
2.4634e-08
9.91759e-06
-1.55619e-08
9.94391e-06
-3.68025e-08
9.96668e-06
-4.64179e-08
9.98571e-06
-4.96204e-08
1.00017e-05
-4.92966e-08
1.00152e-05
-4.7136e-08
1.00269e-05
-4.4004e-08
1.00371e-05
-4.05444e-08
1.00463e-05
-3.70118e-08
1.00546e-05
-3.35796e-08
1.00623e-05
-3.03691e-08
1.00696e-05
-2.74014e-08
-2.46864e-08
1.00764e-05
8.81963e-06
2.69916e-07
8.75785e-06
2.82943e-07
8.74788e-06
1.81224e-07
8.77481e-06
6.33202e-08
8.81458e-06
-1.51328e-08
8.85212e-06
-5.30967e-08
8.88268e-06
-6.72351e-08
8.90622e-06
-7.00331e-08
8.92427e-06
-6.76243e-08
8.93842e-06
-6.33783e-08
8.94984e-06
-5.84076e-08
8.95924e-06
-5.33452e-08
8.96724e-06
-4.84803e-08
8.97425e-06
-4.40057e-08
8.98052e-06
-3.98685e-08
8.98629e-06
-3.61302e-08
8.99171e-06
-3.28455e-08
-2.98702e-08
8.9969e-06
7.81391e-06
3.96675e-07
7.75391e-06
3.42942e-07
7.76868e-06
1.66439e-07
7.82053e-06
1.14589e-08
7.87567e-06
-7.02771e-08
7.91912e-06
-9.64949e-08
7.94967e-06
-9.78403e-08
7.97057e-06
-9.06552e-08
7.98484e-06
-8.15951e-08
7.99524e-06
-7.35579e-08
8.00315e-06
-6.61201e-08
8.00937e-06
-5.94096e-08
8.01445e-06
-5.33407e-08
8.01887e-06
-4.82347e-08
8.02275e-06
-4.3714e-08
8.02627e-06
-3.97025e-08
8.02966e-06
-3.62907e-08
-3.32319e-08
8.03299e-06
6.90424e-06
5.66768e-07
6.86137e-06
3.85804e-07
6.91716e-06
1.10633e-07
6.99674e-06
-6.81347e-08
7.06253e-06
-1.36073e-07
7.10529e-06
-1.39271e-07
7.13032e-06
-1.22552e-07
7.14447e-06
-1.04624e-07
7.15207e-06
-8.90002e-08
7.15709e-06
-7.5815e-08
7.16038e-06
-6.66712e-08
7.16267e-06
-5.95429e-08
7.16415e-06
-5.41067e-08
7.16553e-06
-4.94751e-08
7.1667e-06
-4.50493e-08
7.16772e-06
-4.08461e-08
7.16887e-06
-3.76477e-08
-3.50866e-08
7.17017e-06
6.07162e-06
7.97662e-07
6.08526e-06
3.72163e-07
6.19865e-06
-2.77424e-09
6.29989e-06
-1.69399e-07
6.36526e-06
-2.01464e-07
6.39754e-06
-1.71506e-07
6.41011e-06
-1.35221e-07
6.41342e-06
-1.06954e-07
6.41239e-06
-8.58103e-08
6.4099e-06
-7.40287e-08
6.40749e-06
-6.45209e-08
6.40486e-06
-5.75402e-08
6.40228e-06
-5.12998e-08
6.40025e-06
-4.70092e-08
6.3984e-06
-4.29535e-08
6.39644e-06
-3.92293e-08
6.39488e-06
-3.69197e-08
-3.48474e-08
6.39417e-06
5.35805e-06
1.05451e-06
5.50649e-06
2.23716e-07
5.64777e-06
-1.44086e-07
5.73564e-06
-2.57315e-07
5.77646e-06
-2.42348e-07
5.78324e-06
-1.78425e-07
5.77527e-06
-1.26645e-07
5.76328e-06
-9.40079e-08
5.74976e-06
-7.56638e-08
5.73932e-06
-6.39951e-08
5.73032e-06
-5.65441e-08
5.72231e-06
-4.99459e-08
5.71436e-06
-4.46306e-08
5.70774e-06
-4.03635e-08
5.70166e-06
-3.70225e-08
5.69614e-06
-3.37368e-08
5.69173e-06
-3.21209e-08
-3.15429e-08
5.68768e-06
5.04576e-06
1.01105e-06
5.36491e-06
-9.54501e-08
5.35251e-06
-1.31768e-07
5.33284e-06
-2.37746e-07
5.296e-06
-2.05651e-07
5.25016e-06
-1.32588e-07
5.20891e-06
-8.47325e-08
5.17485e-06
-6.08199e-08
5.14637e-06
-4.98208e-08
5.12486e-06
-4.2921e-08
5.10677e-06
-3.9394e-08
5.09048e-06
-3.56685e-08
5.07525e-06
-3.13609e-08
5.06188e-06
-2.74892e-08
5.04948e-06
-2.44379e-08
5.03873e-06
-2.23426e-08
5.03026e-06
-2.33331e-08
-2.34201e-08
5.02298e-06
5.4676e-06
5.37214e-06
5.24037e-06
5.0026e-06
4.79694e-06
4.66444e-06
4.57967e-06
4.51836e-06
4.46849e-06
4.4254e-06
4.38565e-06
4.3495e-06
4.31801e-06
4.29055e-06
4.26625e-06
4.24405e-06
4.22101e-06
4.19839e-06
2.29737e-08
-2.29756e-08
2.37035e-07
-2.14066e-07
4.8925e-07
-2.52186e-07
7.0965e-07
-2.20381e-07
8.7751e-07
-1.67842e-07
9.88782e-07
-1.11263e-07
1.04458e-06
-5.57857e-08
1.04712e-06
-2.5398e-09
1.00171e-06
4.54234e-08
9.18468e-07
8.32283e-08
8.12635e-07
1.05843e-07
7.03329e-07
1.09294e-07
6.1037e-07
9.29551e-08
5.43975e-07
6.64138e-08
4.92914e-07
5.10798e-08
4.33983e-07
5.9622e-08
3.48041e-07
8.58054e-08
2.23348e-07
1.25439e-07
4.54813e-08
1.77458e-07
-1.99701e-07
2.44563e-07
-5.02184e-07
3.02231e-07
-8.43206e-07
3.40775e-07
-1.20762e-06
3.64417e-07
-1.58507e-06
3.7746e-07
-1.96676e-06
3.81728e-07
-2.34271e-06
3.75973e-07
-2.70488e-06
3.62194e-07
-3.04811e-06
3.43236e-07
-3.36856e-06
3.20458e-07
-3.66388e-06
2.95328e-07
-3.93321e-06
2.69336e-07
-4.17687e-06
2.43658e-07
-4.39587e-06
2.19004e-07
-4.5917e-06
1.9583e-07
-4.76606e-06
1.74362e-07
-4.92074e-06
1.54683e-07
-5.05749e-06
1.36756e-07
-5.17796e-06
1.20462e-07
-5.2836e-06
1.05641e-07
-5.37571e-06
9.21127e-08
-5.45541e-06
7.96951e-08
-5.52362e-06
6.82154e-08
-5.58114e-06
5.75183e-08
-5.62861e-06
4.74697e-08
-5.66657e-06
3.79605e-08
-5.69547e-06
2.89032e-08
-5.7157e-06
2.02265e-08
-5.7276e-06
1.19004e-08
-5.73165e-06
4.05228e-09
-5.72872e-06
-2.92999e-09
-5.71989e-06
-8.83074e-09
-5.70594e-06
-1.39585e-08
-5.68726e-06
-1.86757e-08
-5.66412e-06
-2.31438e-08
-5.63668e-06
-2.74408e-08
-5.60508e-06
-3.1595e-08
-5.56946e-06
-3.56212e-08
-5.52993e-06
-3.95262e-08
-5.48662e-06
-4.3311e-08
-5.43965e-06
-4.69747e-08
-5.38913e-06
-5.05146e-08
-5.3352e-06
-5.39273e-08
-5.27799e-06
-5.72094e-08
-5.21764e-06
-6.03575e-08
-5.15427e-06
-6.33693e-08
-5.08803e-06
-6.62415e-08
-5.01905e-06
-6.89708e-08
-4.9475e-06
-7.15549e-08
-4.87351e-06
-7.3992e-08
-4.79723e-06
-7.62811e-08
-4.7188e-06
-7.84212e-08
-4.63839e-06
-8.04122e-08
-4.55614e-06
-8.22542e-08
-4.47219e-06
-8.3948e-08
-4.38669e-06
-8.54947e-08
-4.2998e-06
-8.68961e-08
-4.21164e-06
-8.81541e-08
-4.12237e-06
-8.92715e-08
-4.03212e-06
-9.02512e-08
-3.94102e-06
-9.10966e-08
-3.84921e-06
-9.18117e-08
-3.75681e-06
-9.24008e-08
-3.66394e-06
-9.28688e-08
-3.57071e-06
-9.32213e-08
-3.47725e-06
-9.34645e-08
-3.38364e-06
-9.36056e-08
-3.28999e-06
-9.36533e-08
-3.19637e-06
-9.36177e-08
-3.10286e-06
-9.35119e-08
-3.00951e-06
-9.33516e-08
-2.91635e-06
-9.31575e-08
-2.82339e-06
-9.2955e-08
-2.73063e-06
-9.27621e-08
-2.63807e-06
-9.25584e-08
-2.54581e-06
-9.22589e-08
-2.45405e-06
-9.1762e-08
-2.36307e-06
-9.09826e-08
-2.27313e-06
-8.99378e-08
-2.18434e-06
-8.87846e-08
-2.09671e-06
-8.76299e-08
-2.01024e-06
-8.64739e-08
-1.92494e-06
-8.53006e-08
-1.84084e-06
-8.41026e-08
-1.75796e-06
-8.28792e-08
-1.67633e-06
-8.16327e-08
-1.59596e-06
-8.03669e-08
-1.51688e-06
-7.90857e-08
-1.43909e-06
-7.77918e-08
-1.36261e-06
-7.64831e-08
-1.28747e-06
-7.51387e-08
-1.2137e-06
-7.3771e-08
-1.14129e-06
-7.24075e-08
-1.07025e-06
-7.10432e-08
-1.00058e-06
-6.96794e-08
-9.32262e-07
-6.8317e-08
-8.65306e-07
-6.69576e-08
-7.99705e-07
-6.56034e-08
-7.35451e-07
-6.42571e-08
-6.72533e-07
-6.29207e-08
-6.10942e-07
-6.15934e-08
-5.50669e-07
-6.0276e-08
-4.917e-07
-5.89712e-08
-4.34018e-07
-5.76852e-08
-3.77597e-07
-5.64235e-08
-3.22418e-07
-5.51819e-08
-2.68463e-07
-5.39572e-08
-2.15712e-07
-5.27531e-08
-1.64146e-07
-5.1569e-08
-1.13755e-07
-5.0393e-08
-6.45322e-08
-4.92249e-08
-1.65998e-08
-4.79345e-08
3.0175e-08
-4.67766e-08
7.60992e-08
-4.59258e-08
1.21066e-07
-4.49681e-08
1.64973e-07
-4.39078e-08
2.07815e-07
-4.28438e-08
2.49612e-07
-4.1797e-08
2.90391e-07
-4.07801e-08
3.30186e-07
-3.97952e-08
3.69027e-07
-3.88406e-08
4.06941e-07
-3.79146e-08
4.43957e-07
-3.70158e-08
4.801e-07
-3.61432e-08
5.15395e-07
-3.52959e-08
5.49868e-07
-3.44734e-08
5.83543e-07
-3.36755e-08
6.16444e-07
-3.29019e-08
6.48596e-07
-3.21523e-08
6.80023e-07
-3.14269e-08
7.10748e-07
-3.07254e-08
7.40795e-07
-3.0048e-08
7.7019e-07
-2.93945e-08
7.98955e-07
-2.87652e-08
8.27114e-07
-2.816e-08
8.54693e-07
-2.75788e-08
8.81715e-07
-2.70217e-08
9.08203e-07
-2.64884e-08
9.34182e-07
-2.59788e-08
9.59675e-07
-2.54922e-08
9.84703e-07
-2.5028e-08
1.00929e-06
-2.45848e-08
1.03345e-06
-2.41608e-08
1.0572e-06
-2.37531e-08
1.08056e-06
-2.33577e-08
1.10353e-06
-2.29688e-08
1.12611e-06
-2.25784e-08
1.14828e-06
-2.21751e-08
1.17003e-06
-2.1743e-08
1.19128e-06
-2.12601e-08
1.21198e-06
-2.06953e-08
1.23198e-06
-2.00043e-08
1.25111e-06
-1.91234e-08
1.26906e-06
-1.79551e-08
1.28541e-06
-1.63552e-08
1.29946e-06
-1.40485e-08
1.31009e-06
-1.06247e-08
1.31466e-06
-4.56025e-09
1.30781e-06
6.85507e-09
1.27827e-06
2.95361e-08
7.23297e-08
1.20593e-06
2.54225e-07
-2.77222e-07
4.9025e-07
-4.50089e-07
6.39972e-07
-4.01906e-07
7.24727e-07
-3.05134e-07
7.64351e-07
-2.07457e-07
7.70397e-07
-1.17314e-07
7.49559e-07
-3.49423e-08
7.07464e-07
3.95471e-08
6.47189e-07
1.05704e-07
5.68652e-07
1.61756e-07
4.71145e-07
2.03358e-07
3.53022e-07
2.27406e-07
2.08278e-07
2.37707e-07
2.53674e-08
2.49342e-07
-2.06575e-07
2.83032e-07
-4.92032e-07
3.45172e-07
-8.29928e-07
4.23789e-07
-1.20986e-06
5.05384e-07
-1.61384e-06
5.81395e-07
-2.0154e-06
6.46073e-07
-2.40546e-06
6.92237e-07
-2.78099e-06
7.16302e-07
-3.13606e-06
7.19477e-07
-3.46367e-06
7.05079e-07
-3.75863e-06
6.76691e-07
-4.01996e-06
6.3731e-07
-4.24808e-06
5.90318e-07
-4.44425e-06
5.39413e-07
-4.61138e-06
4.8759e-07
-4.75298e-06
4.36927e-07
-4.87242e-06
3.88776e-07
-4.97287e-06
3.44111e-07
-5.05721e-06
3.03349e-07
-5.12796e-06
2.66579e-07
-5.18724e-06
2.33638e-07
-5.23678e-06
2.04224e-07
-5.27799e-06
1.77967e-07
-5.312e-06
1.54475e-07
-5.33973e-06
1.33366e-07
-5.36191e-06
1.14288e-07
-5.37914e-06
9.6931e-08
-5.39195e-06
8.10273e-08
-5.40079e-06
6.63553e-08
-5.40605e-06
5.2733e-08
-5.40811e-06
4.00134e-08
-5.40729e-06
2.80814e-08
-5.40392e-06
1.68591e-08
-5.39833e-06
6.31155e-09
-5.39067e-06
-3.60524e-09
-5.38052e-06
-1.30807e-08
-5.367e-06
-2.23552e-08
-5.3495e-06
-3.14585e-08
-5.32785e-06
-4.03247e-08
-5.30204e-06
-4.89501e-08
-5.27214e-06
-5.73416e-08
-5.23823e-06
-6.55053e-08
-5.20041e-06
-7.34442e-08
-5.15878e-06
-8.11577e-08
-5.11345e-06
-8.86426e-08
-5.06453e-06
-9.58932e-08
-5.01214e-06
-1.02903e-07
-4.9564e-06
-1.09664e-07
-4.89744e-06
-1.16168e-07
-4.83539e-06
-1.22408e-07
-4.77038e-06
-1.28381e-07
-4.70254e-06
-1.34079e-07
-4.63202e-06
-1.39495e-07
-4.55895e-06
-1.44624e-07
-4.48348e-06
-1.49462e-07
-4.40575e-06
-1.54009e-07
-4.32591e-06
-1.58262e-07
-4.2441e-06
-1.6222e-07
-4.16047e-06
-1.65884e-07
-4.07516e-06
-1.69255e-07
-3.98832e-06
-1.72335e-07
-3.90009e-06
-1.75129e-07
-3.81061e-06
-1.77639e-07
-3.72e-06
-1.79872e-07
-3.62842e-06
-1.81832e-07
-3.53599e-06
-1.83528e-07
-3.44284e-06
-1.84966e-07
-3.34908e-06
-1.86154e-07
-3.25485e-06
-1.87103e-07
-3.16025e-06
-1.87822e-07
-3.06539e-06
-1.88321e-07
-2.97038e-06
-1.88612e-07
-2.87533e-06
-1.88708e-07
-2.78032e-06
-1.88621e-07
-2.68547e-06
-1.88364e-07
-2.59087e-06
-1.8795e-07
-2.49664e-06
-1.8739e-07
-2.4029e-06
-1.86693e-07
-2.30981e-06
-1.85852e-07
-2.21753e-06
-1.84839e-07
-2.12618e-06
-1.83612e-07
-2.0358e-06
-1.8214e-07
-1.94636e-06
-1.8042e-07
-1.85781e-06
-1.78492e-07
-1.77016e-06
-1.76434e-07
-1.68349e-06
-1.74299e-07
-1.59786e-06
-1.721e-07
-1.51332e-06
-1.69839e-07
-1.42991e-06
-1.67518e-07
-1.34765e-06
-1.65139e-07
-1.26657e-06
-1.62708e-07
-1.18671e-06
-1.60231e-07
-1.10808e-06
-1.57714e-07
-1.03072e-06
-1.55159e-07
-9.54632e-07
-1.52568e-07
-8.79829e-07
-1.49942e-07
-8.06307e-07
-1.47295e-07
-7.34077e-07
-1.44639e-07
-6.63144e-07
-1.41977e-07
-5.9351e-07
-1.39315e-07
-5.25174e-07
-1.36654e-07
-4.58134e-07
-1.33999e-07
-3.92388e-07
-1.31351e-07
-3.27929e-07
-1.28717e-07
-2.64748e-07
-1.26103e-07
-2.02834e-07
-1.23509e-07
-1.42178e-07
-1.20933e-07
-8.27698e-08
-1.18381e-07
-2.46013e-08
-1.15855e-07
3.23409e-08
-1.13367e-07
8.80848e-08
-1.10927e-07
1.42648e-07
-1.08521e-07
1.9604e-07
-1.06147e-07
2.48277e-07
-1.03807e-07
2.99386e-07
-1.01503e-07
3.49395e-07
-9.92355e-08
3.98464e-07
-9.70044e-08
4.46566e-07
-9.48793e-08
4.93485e-07
-9.28445e-08
5.39287e-07
-9.0771e-08
5.84051e-07
-8.86726e-08
6.27809e-07
-8.66018e-08
6.70589e-07
-8.45779e-08
7.12417e-07
-8.26078e-08
7.53314e-07
-8.06926e-08
7.93304e-07
-7.88313e-08
8.32412e-07
-7.70221e-08
8.70659e-07
-7.52635e-08
9.0807e-07
-7.35543e-08
9.44667e-07
-7.18936e-08
9.80474e-07
-7.02808e-08
1.01551e-06
-6.87155e-08
1.04981e-06
-6.71972e-08
1.08338e-06
-6.5726e-08
1.11626e-06
-6.43016e-08
1.14845e-06
-6.29239e-08
1.18e-06
-6.15932e-08
1.21091e-06
-6.03092e-08
1.24122e-06
-5.90721e-08
1.27094e-06
-5.78818e-08
1.3001e-06
-5.67383e-08
1.32872e-06
-5.56413e-08
1.35682e-06
-5.45905e-08
1.38443e-06
-5.3585e-08
1.41156e-06
-5.26239e-08
1.43824e-06
-5.17052e-08
1.46448e-06
-5.08264e-08
1.4903e-06
-4.99835e-08
1.51572e-06
-4.9171e-08
1.54075e-06
-4.8381e-08
1.56538e-06
-4.76025e-08
1.58962e-06
-4.682e-08
1.61346e-06
-4.60123e-08
1.63686e-06
-4.51498e-08
1.6598e-06
-4.41914e-08
1.68218e-06
-4.30797e-08
1.70391e-06
-4.17329e-08
1.72482e-06
-4.00331e-08
1.74467e-06
-3.78035e-08
1.76308e-06
-3.47747e-08
1.77952e-06
-3.04858e-08
1.79308e-06
-2.41847e-08
1.8028e-06
-1.42774e-08
1.80767e-06
1.99392e-09
1.80578e-06
3.14211e-08
8.80301e-08
1.79007e-06
2.46185e-07
-5.23429e-07
3.42682e-07
-5.46591e-07
3.59074e-07
-4.18296e-07
3.48106e-07
-2.94157e-07
3.20479e-07
-1.79826e-07
2.76477e-07
-7.33118e-08
2.15389e-07
2.61476e-08
1.36167e-07
1.18764e-07
3.77558e-08
2.04116e-07
-8.19987e-08
2.81507e-07
-2.28786e-07
3.50146e-07
-4.13118e-07
4.11737e-07
-6.48425e-07
4.73012e-07
-9.41726e-07
5.42647e-07
-1.28295e-06
6.24251e-07
-1.65014e-06
7.1237e-07
-2.02242e-06
7.96062e-07
-2.38288e-06
8.65834e-07
-2.7176e-06
9.16106e-07
-3.01602e-06
9.44477e-07
-3.27425e-06
9.50472e-07
-3.4933e-06
9.35361e-07
-3.67616e-06
9.02332e-07
-3.82684e-06
8.55771e-07
-3.95009e-06
7.99939e-07
-4.0513e-06
7.38524e-07
-4.13581e-06
6.74829e-07
-4.20802e-06
6.1162e-07
-4.27136e-06
5.50932e-07
-4.32846e-06
4.94023e-07
-4.38118e-06
4.41504e-07
-4.43068e-06
3.93608e-07
-4.47758e-06
3.50253e-07
-4.52216e-06
3.11159e-07
-4.56446e-06
2.75934e-07
-4.60438e-06
2.4414e-07
-4.64174e-06
2.15336e-07
-4.67638e-06
1.89105e-07
-4.70808e-06
1.65072e-07
-4.7367e-06
1.42904e-07
-4.76209e-06
1.2232e-07
-4.78414e-06
1.0308e-07
-4.80277e-06
8.49861e-08
-4.81791e-06
6.78737e-08
-4.8295e-06
5.16025e-08
-4.83747e-06
3.60533e-08
-4.84174e-06
2.11241e-08
-4.84215e-06
6.721e-09
-4.83849e-06
-7.26271e-09
-4.83063e-06
-2.09414e-08
-4.81861e-06
-3.43749e-08
-4.80252e-06
-4.75509e-08
-4.78239e-06
-6.04471e-08
-4.75829e-06
-7.30552e-08
-4.73026e-06
-8.53687e-08
-4.69839e-06
-9.73818e-08
-4.66274e-06
-1.09088e-07
-4.62342e-06
-1.20478e-07
-4.58052e-06
-1.31542e-07
-4.53415e-06
-1.42268e-07
-4.48441e-06
-1.52644e-07
-4.43141e-06
-1.62658e-07
-4.37528e-06
-1.72296e-07
-4.31615e-06
-1.81546e-07
-4.25413e-06
-1.90402e-07
-4.18935e-06
-1.98853e-07
-4.12196e-06
-2.06888e-07
-4.05208e-06
-2.145e-07
-3.97986e-06
-2.21683e-07
-3.90543e-06
-2.28435e-07
-3.82895e-06
-2.34751e-07
-3.75053e-06
-2.40631e-07
-3.67034e-06
-2.46076e-07
-3.58851e-06
-2.51087e-07
-3.50518e-06
-2.55666e-07
-3.42048e-06
-2.5982e-07
-3.33457e-06
-2.63554e-07
-3.24757e-06
-2.66875e-07
-3.15961e-06
-2.69791e-07
-3.07082e-06
-2.72312e-07
-2.98134e-06
-2.74449e-07
-2.89128e-06
-2.76214e-07
-2.80076e-06
-2.77618e-07
-2.70991e-06
-2.78675e-07
-2.61883e-06
-2.79399e-07
-2.52764e-06
-2.79806e-07
-2.43643e-06
-2.79909e-07
-2.34533e-06
-2.79724e-07
-2.25443e-06
-2.79265e-07
-2.16383e-06
-2.78545e-07
-2.07365e-06
-2.77576e-07
-1.98398e-06
-2.76363e-07
-1.89492e-06
-2.74906e-07
-1.80657e-06
-2.73192e-07
-1.71898e-06
-2.71206e-07
-1.63217e-06
-2.68945e-07
-1.54616e-06
-2.66425e-07
-1.46097e-06
-2.63683e-07
-1.37664e-06
-2.60764e-07
-1.29324e-06
-2.57703e-07
-1.21082e-06
-2.5452e-07
-1.12943e-06
-2.51228e-07
-1.04911e-06
-2.47835e-07
-9.69898e-07
-2.44352e-07
-8.91818e-07
-2.40788e-07
-8.14898e-07
-2.37152e-07
-7.39161e-07
-2.33451e-07
-6.64626e-07
-2.29694e-07
-5.91307e-07
-2.25887e-07
-5.19211e-07
-2.22039e-07
-4.48344e-07
-2.18161e-07
-3.78719e-07
-2.14264e-07
-3.10341e-07
-2.10356e-07
-2.43211e-07
-2.06445e-07
-1.7733e-07
-2.02536e-07
-1.12696e-07
-1.98633e-07
-4.93058e-08
-1.94743e-07
1.28478e-08
-1.90872e-07
7.37689e-08
-1.87025e-07
1.33465e-07
-1.83206e-07
1.9195e-07
-1.79419e-07
2.49236e-07
-1.75668e-07
3.05338e-07
-1.71958e-07
3.60268e-07
-1.68298e-07
4.14031e-07
-1.64692e-07
4.66645e-07
-1.61136e-07
5.18129e-07
-1.57631e-07
5.68501e-07
-1.5418e-07
6.17785e-07
-1.50787e-07
6.6601e-07
-1.47461e-07
7.13218e-07
-1.44213e-07
7.59392e-07
-1.41054e-07
8.04498e-07
-1.37951e-07
8.48585e-07
-1.34858e-07
8.91698e-07
-1.31785e-07
9.33858e-07
-1.28762e-07
9.75085e-07
-1.25805e-07
1.0154e-06
-1.22921e-07
1.05482e-06
-1.2011e-07
1.09336e-06
-1.17374e-07
1.13105e-06
-1.14712e-07
1.16791e-06
-1.12121e-07
1.20395e-06
-1.09602e-07
1.23921e-06
-1.07154e-07
1.27371e-06
-1.04776e-07
1.30746e-06
-1.02467e-07
1.34049e-06
-1.00227e-07
1.37282e-06
-9.80562e-08
1.40447e-06
-9.59544e-08
1.43547e-06
-9.39214e-08
1.46583e-06
-9.19572e-08
1.49559e-06
-9.00619e-08
1.52475e-06
-8.82355e-08
1.55334e-06
-8.6478e-08
1.5814e-06
-8.47892e-08
1.60892e-06
-8.31687e-08
1.63595e-06
-8.16159e-08
1.66249e-06
-8.01297e-08
1.68858e-06
-7.87085e-08
1.71422e-06
-7.73495e-08
1.73944e-06
-7.6049e-08
1.76426e-06
-7.48013e-08
1.78869e-06
-7.35985e-08
1.81274e-06
-7.24293e-08
1.83641e-06
-7.12781e-08
1.85972e-06
-7.01232e-08
1.88264e-06
-6.89347e-08
1.90516e-06
-6.76713e-08
1.92724e-06
-6.62756e-08
1.94883e-06
-6.46675e-08
1.96983e-06
-6.27339e-08
1.99011e-06
-6.03119e-08
2.00947e-06
-5.7161e-08
2.02761e-06
-5.29178e-08
2.04412e-06
-4.69917e-08
2.05837e-06
-3.84429e-08
2.06961e-06
-2.55116e-08
2.07695e-06
-5.35406e-09
2.08086e-06
2.75184e-08
8.549e-08
2.0834e-06
9.39546e-08
-6.17394e-07
6.27143e-08
-5.15364e-07
1.43056e-08
-3.6988e-07
-4.27034e-08
-2.37142e-07
-1.12109e-07
-1.10415e-07
-1.9738e-07
1.19632e-08
-3.01502e-07
1.30271e-07
-4.26891e-07
2.44152e-07
-5.76121e-07
3.53346e-07
-7.52576e-07
4.57962e-07
-9.61016e-07
5.58583e-07
-1.20578e-06
6.565e-07
-1.4857e-06
7.52926e-07
-1.79001e-06
8.46957e-07
-2.10002e-06
9.34254e-07
-2.39606e-06
1.0084e-06
-2.6636e-06
1.06359e-06
-2.89435e-06
1.09657e-06
-3.08504e-06
1.10679e-06
-3.23647e-06
1.09591e-06
-3.35299e-06
1.06699e-06
-3.44113e-06
1.0235e-06
-3.50801e-06
9.69214e-07
-3.56016e-06
9.07923e-07
-3.60307e-06
8.42851e-07
-3.64118e-06
7.76634e-07
-3.67774e-06
7.11389e-07
-3.71478e-06
6.48668e-07
-3.75333e-06
5.89476e-07
-3.79364e-06
5.34336e-07
-3.83554e-06
4.83404e-07
-3.87853e-06
4.36601e-07
-3.92198e-06
3.93696e-07
-3.96518e-06
3.54366e-07
-4.0075e-06
3.18251e-07
-4.04834e-06
2.84978e-07
-4.0872e-06
2.54192e-07
-4.12365e-06
2.25561e-07
-4.15736e-06
1.98784e-07
-4.18806e-06
1.73597e-07
-4.21551e-06
1.4977e-07
-4.23953e-06
1.27108e-07
-4.25999e-06
1.05442e-07
-4.27675e-06
8.46326e-08
-4.28971e-06
6.45591e-08
-4.29877e-06
4.51199e-08
-4.30388e-06
2.62287e-08
-4.30497e-06
7.80859e-09
-4.30201e-06
-1.02141e-08
-4.29506e-06
-2.79007e-08
-4.28415e-06
-4.52792e-08
-4.26936e-06
-6.23464e-08
-4.25071e-06
-7.90898e-08
-4.22827e-06
-9.54967e-08
-4.20209e-06
-1.11554e-07
-4.17222e-06
-1.27246e-07
-4.13875e-06
-1.42559e-07
-4.10175e-06
-1.57475e-07
-4.06132e-06
-1.71977e-07
-4.01754e-06
-1.86047e-07
-3.97052e-06
-1.99666e-07
-3.92036e-06
-2.12816e-07
-3.86718e-06
-2.25477e-07
-3.81109e-06
-2.37634e-07
-3.75222e-06
-2.49276e-07
-3.69068e-06
-2.60387e-07
-3.62662e-06
-2.70955e-07
-3.56015e-06
-2.8097e-07
-3.49141e-06
-2.90424e-07
-3.42053e-06
-2.99311e-07
-3.34765e-06
-3.07627e-07
-3.27291e-06
-3.1537e-07
-3.19645e-06
-3.22542e-07
-3.11839e-06
-3.29143e-07
-3.03888e-06
-3.35178e-07
-2.95805e-06
-3.40652e-07
-2.87603e-06
-3.45573e-07
-2.79295e-06
-3.4995e-07
-2.70895e-06
-3.53794e-07
-2.62415e-06
-3.57116e-07
-2.53866e-06
-3.59931e-07
-2.45262e-06
-3.62253e-07
-2.36614e-06
-3.64097e-07
-2.27934e-06
-3.65479e-07
-2.19232e-06
-3.66418e-07
-2.10519e-06
-3.66931e-07
-2.01807e-06
-3.67036e-07
-1.93104e-06
-3.6675e-07
-1.84422e-06
-3.66091e-07
-1.75769e-06
-3.65074e-07
-1.67155e-06
-3.63714e-07
-1.58589e-06
-3.62021e-07
-1.50079e-06
-3.60002e-07
-1.41633e-06
-3.57659e-07
-1.33254e-06
-3.54994e-07
-1.24946e-06
-3.52017e-07
-1.16714e-06
-3.48748e-07
-1.08561e-06
-3.45218e-07
-1.00491e-06
-3.41462e-07
-9.251e-07
-3.37511e-07
-8.46232e-07
-3.33387e-07
-7.6835e-07
-3.2911e-07
-6.91491e-07
-3.24695e-07
-6.15687e-07
-3.20156e-07
-5.40969e-07
-3.15507e-07
-4.67361e-07
-3.1076e-07
-3.94885e-07
-3.05927e-07
-3.2356e-07
-3.01019e-07
-2.53399e-07
-2.96049e-07
-1.84411e-07
-2.91027e-07
-1.16607e-07
-2.85966e-07
-4.99944e-08
-2.80877e-07
1.54211e-08
-2.75772e-07
7.96349e-08