/*--------------------------------*- C++ -*----------------------------------*\
  =========                 |
  \\      /  F ield         | OpenFOAM: The Open Source CFD Toolbox
   \\    /   O peration     | Website:  https://openfoam.org
    \\  /    A nd           | Version:  8
     \\/     M anipulation  |
\*---------------------------------------------------------------------------*/
FoamFile
{
    version     2.0;
    format      ascii;
    class       volVectorField;
    location    "4400";
    object      U;
}
// * * * * * * * * * * * * * * * * * * * * * * * * * * * * * * * * * * * * * //

dimensions      [0 1 -1 0 0 0 0];

internalField   nonuniform List<vector> 
12225
(
(9.2745 -4.73371 0)
(13.1094 -1.71343 0)
(12.4778 -0.395198 0)
(11.2771 -0.0422042 0)
(10.6314 0.0141383 0)
(10.2979 -9.41457e-05 0)
(10.0776 -0.0165235 0)
(9.91228 -0.00288851 0)
(9.77909 0.0348743 0)
(9.66231 0.0428924 0)
(9.55574 0.0248829 0)
(9.45767 0.00214195 0)
(9.36675 -0.0227918 0)
(9.28211 -0.0302252 0)
(9.20232 -0.0217879 0)
(9.13253 -0.0212277 0)
(9.07016 -0.0210398 0)
(9.08962 -0.0276976 0)
(10.2592 0.0928019 0)
(10.7814 0.199339 0)
(10.9594 0.245656 0)
(10.7469 0.229143 0)
(10.5875 0.172969 0)
(10.4527 0.115534 0)
(10.33 0.0823312 0)
(10.2327 0.0647296 0)
(10.155 0.0524763 0)
(10.0894 0.0472334 0)
(10.0323 0.0469924 0)
(9.98212 0.04899 0)
(9.93785 0.0517974 0)
(9.89833 0.0519423 0)
(9.8615 0.0483247 0)
(9.82885 0.0438428 0)
(9.79428 0.0300799 0)
(9.76827 0.010283 0)
(9.87768 -0.24504 0)
(9.74285 0.00579108 0)
(10.1971 0.125744 0)
(10.3245 0.179364 0)
(10.3564 0.161548 0)
(10.3311 0.120077 0)
(10.2777 0.0904937 0)
(10.2252 0.0746653 0)
(10.1812 0.0658747 0)
(10.1438 0.0600284 0)
(10.1103 0.0562081 0)
(10.0799 0.0536507 0)
(10.052 0.0511361 0)
(10.026 0.0487618 0)
(10.0023 0.046075 0)
(9.98118 0.0417675 0)
(9.95915 0.0316701 0)
(9.93458 0.0135773 0)
(9.83416 -0.443933 0)
(9.57654 -0.163146 0)
(9.91603 0.0336706 0)
(10.0933 0.134224 0)
(10.1892 0.145473 0)
(10.2168 0.120738 0)
(10.205 0.0978948 0)
(10.1824 0.0839089 0)
(10.1599 0.0756291 0)
(10.1389 0.0697118 0)
(10.119 0.065134 0)
(10.1001 0.0616371 0)
(10.0821 0.0586128 0)
(10.0648 0.0562289 0)
(10.0483 0.0538543 0)
(10.0325 0.0501444 0)
(10.0148 0.0424182 0)
(9.99178 0.0306132 0)
(9.87825 -0.387476 0)
(9.61653 -0.196147 0)
(9.81623 -0.0186702 0)
(9.96136 0.0916129 0)
(10.0698 0.122196 0)
(10.1219 0.113628 0)
(10.1354 0.0992638 0)
(10.1332 0.0884205 0)
(10.1257 0.0809479 0)
(10.1162 0.0753961 0)
(10.1056 0.0711236 0)
(10.0946 0.0678813 0)
(10.0833 0.0652537 0)
(10.0718 0.0631561 0)
(10.0601 0.0610442 0)
(10.0477 0.0581062 0)
(10.0328 0.0530809 0)
(10.0125 0.0469033 0)
(9.91439 -0.28804 0)
(9.68304 -0.185176 0)
(9.78717 -0.0532074 0)
(9.88917 0.0509993 0)
(9.98796 0.0936799 0)
(10.0476 0.0992037 0)
(10.0751 0.0938739 0)
(10.0861 0.0875176 0)
(10.0892 0.0821199 0)
(10.0879 0.077764 0)
(10.0842 0.0743503 0)
(10.0789 0.0717596 0)
(10.0726 0.0697413 0)
(10.0654 0.0681715 0)
(10.0572 0.0667254 0)
(10.0476 0.065043 0)
(10.0354 0.0627831 0)
(10.0185 0.0611708 0)
(9.93763 -0.214041 0)
(9.74856 -0.167536 0)
(9.79244 -0.0752154 0)
(9.85608 0.0162205 0)
(9.93595 0.0644219 0)
(9.99281 0.080595 0)
(10.0261 0.0835609 0)
(10.0447 0.082243 0)
(10.0546 0.0797788 0)
(10.0593 0.0772868 0)
(10.0606 0.0751753 0)
(10.0596 0.0735585 0)
(10.057 0.0723887 0)
(10.053 0.0716348 0)
(10.0477 0.0711903 0)
(10.0407 0.0710157 0)
(10.0312 0.0712781 0)
(10.0182 0.0731523 0)
(9.95263 -0.167334 0)
(9.79947 -0.149677 0)
(9.81177 -0.0846413 0)
(9.84959 -0.0062103 0)
(9.9114 0.0419318 0)
(9.96107 0.0638969 0)
(9.99432 0.0725496 0)
(10.0156 0.0752857 0)
(10.0288 0.0755293 0)
(10.0367 0.0749029 0)
(10.041 0.0741472 0)
(10.0427 0.0735812 0)
(10.0425 0.0733226 0)
(10.0408 0.0734482 0)
(10.0375 0.0740055 0)
(10.0325 0.0751362 0)
(10.0254 0.0772047 0)
(10.0157 0.0812047 0)
(9.96406 -0.132089 0)
(9.84003 -0.131988 0)
(9.83337 -0.0876899 0)
(9.85306 -0.0213327 0)
(9.89927 0.0244155 0)
(9.94102 0.0495128 0)
(9.97207 0.062123 0)
(9.99385 0.0680763 0)
(10.0086 0.0706954 0)
(10.0184 0.071794 0)
(10.0246 0.072317 0)
(10.0282 0.0727529 0)
(10.0298 0.0733599 0)
(10.0297 0.0743185 0)
(10.028 0.0757867 0)
(10.0248 0.0780075 0)
(10.0197 0.0814107 0)
(10.0129 0.0868079 0)
(9.97418 -0.100205 0)
(9.87757 -0.11239 0)
(9.85857 -0.0853663 0)
(9.86387 -0.0323329 0)
(9.89487 0.0089288 0)
(9.92743 0.0352238 0)
(9.95439 0.0507167 0)
(9.97502 0.0594965 0)
(9.99014 0.0644436 0)
(10.0009 0.0673588 0)
(10.0085 0.0692975 0)
(10.0135 0.0708773 0)
(10.0166 0.0724759 0)
(10.018 0.0743687 0)
(10.0179 0.0768014 0)
(10.0164 0.080076 0)
(10.0136 0.0846177 0)
(10.0095 0.0910431 0)
(9.98253 -0.0727091 0)
(9.91035 -0.0921963 0)
(9.88507 -0.0782443 0)
(9.88001 -0.0386075 0)
(9.89746 -0.00337403 0)
(9.92043 0.0221688 0)
(9.94196 0.0391841 0)
(9.95999 0.0500807 0)
(9.97425 0.0570558 0)
(9.98518 0.0617045 0)
(9.99339 0.065079 0)
(9.99941 0.0678629 0)
(10.0037 0.0705159 0)
(10.0064 0.0733841 0)
(10.0078 0.0767695 0)
(10.0081 0.0809916 0)
(10.0073 0.0864243 0)
(10.0058 0.0935034 0)
(9.98894 -0.0502566 0)
(9.93733 -0.0723782 0)
(9.91073 -0.0674481 0)
(9.89917 -0.0399828 0)
(9.90566 -0.0116498 0)
(9.91955 0.0114521 0)
(9.93496 0.0285305 0)
(9.94934 0.0405802 0)
(9.96169 0.0490242 0)
(9.97188 0.0551113 0)
(9.98009 0.0597793 0)
(9.98659 0.0637025 0)
(9.99163 0.0673709 0)
(9.99544 0.071164 0)
(9.9982 0.0754029 0)
(10.0001 0.0803901 0)
(10.0013 0.086426 0)
(10.0021 0.0937938 0)
(9.99348 -0.0329086 0)
(9.9582 -0.053811 0)
(9.93368 -0.0542835 0)
(9.91898 -0.0367872 0)
(9.91755 -0.0154534 0)
(9.92366 0.00399487 0)
(9.93301 0.0197754 0)
(9.94318 0.0318765 0)
(9.9529 0.0410105 0)
(9.96163 0.0480203 0)
(9.96922 0.053647 0)
(9.9757 0.0584832 0)
(9.98118 0.062992 0)
(9.98578 0.0675409 0)
(9.98965 0.0724338 0)
(9.99294 0.0779307 0)
(9.99587 0.0842535 0)
(9.99869 0.0915735 0)
(9.99643 -0.0202025 0)
(9.97327 -0.0372098 0)
(9.95261 -0.0400454 0)
(9.93731 -0.0298106 0)
(9.93089 -0.0148235 0)
(9.93102 0.000366561 0)
(9.93504 0.0137742 0)
(9.94104 0.0248427 0)
(9.94782 0.0337587 0)
(9.95465 0.0409908 0)
(9.96117 0.0470493 0)
(9.96724 0.0523943 0)
(9.97281 0.057411 0)
(9.9779 0.0624144 0)
(9.98261 0.0676586 0)
(9.98704 0.0733459 0)
(9.99135 0.079627 0)
(9.99573 0.0865954 0)
(9.99816 -0.0112876 0)
(9.9833 -0.0229305 0)
(9.96682 -0.0257626 0)
(9.95243 -0.0200766 0)
(9.94344 -0.0102417 0)
(9.93952 0.000675062 0)
(9.9394 0.01103 0)
(9.94183 0.0201438 0)
(9.94582 0.0279249 0)
(9.95069 0.0345714 0)
(9.95597 0.040385 0)
(9.96139 0.0456754 0)
(9.96681 0.0507209 0)
(9.97215 0.0557533 0)
(9.97744 0.0609567 0)
(9.9827 0.0664677 0)
(9.98803 0.0723756 0)
(9.99354 0.0787211 0)
(9.99906 -0.00508081 0)
(9.98922 -0.0107806 0)
(9.97612 -0.0119167 0)
(9.96309 -0.00848249 0)
(9.9531 -0.00243438 0)
(9.94685 0.0045789 0)
(9.94399 0.0115576 0)
(9.94384 0.0180207 0)
(9.9457 0.0238387 0)
(9.94896 0.0290803 0)
(9.95317 0.0339009 0)
(9.95799 0.0384772 0)
(9.96321 0.042974 0)
(9.96868 0.0475287 0)
(9.97435 0.0522453 0)
(9.98019 0.0571938 0)
(9.98623 0.0624095 0)
(9.99249 0.0678948 0)
(9.99942 -0.000367186 0)
(9.9918 0.000152031 0)
(9.98042 0.0018327 0)
(9.96821 0.00459419 0)
(9.9579 0.00792068 0)
(9.95061 0.0114022 0)
(9.94642 0.0148173 0)
(9.94498 0.0180891 0)
(9.94576 0.0212342 0)
(9.94825 0.0243188 0)
(9.95198 0.0274242 0)
(9.9566 0.0306276 0)
(9.96186 0.0339911 0)
(9.96757 0.037559 0)
(9.97362 0.041355 0)
(9.97993 0.045384 0)
(9.98648 0.0496317 0)
(9.99325 0.0540684 0)
(9.99935 0.00408484 0)
(9.9911 0.0111736 0)
(9.97897 0.0161339 0)
(9.96616 0.0187374 0)
(9.95552 0.0196138 0)
(9.94819 0.0195475 0)
(9.94419 0.0191608 0)
(9.94311 0.0188636 0)
(9.94438 0.0188964 0)
(9.94741 0.0193764 0)
(9.95174 0.0203443 0)
(9.95698 0.0217948 0)
(9.96287 0.0236972 0)
(9.96919 0.0260068 0)
(9.97583 0.0286721 0)
(9.98269 0.0316365 0)
(9.98974 0.034842 0)
(9.99692 0.0382281 0)
(9.99882 0.0097298 0)
(9.98675 0.0240492 0)
(9.97122 0.0318472 0)
(9.95641 0.0332947 0)
(9.94558 0.0307054 0)
(9.93942 0.0263516 0)
(9.93734 0.0217491 0)
(9.93845 0.0177405 0)
(9.94186 0.0146961 0)
(9.94687 0.0127117 0)
(9.95291 0.0117315 0)
(9.95962 0.0116365 0)
(9.96674 0.0122877 0)
(9.97408 0.0135495 0)
(9.98155 0.0152969 0)
(9.98908 0.0174201 0)
(9.99665 0.0198226 0)
(10.0042 0.0224203 0)
(9.99757 0.01821 0)
(9.97773 0.0404556 0)
(9.95664 0.0495781 0)
(9.93945 0.0474797 0)
(9.92961 0.039425 0)
(9.92659 0.0296486 0)
(9.92848 0.0204919 0)
(9.93357 0.0129685 0)
(9.94055 0.0073502 0)
(9.94856 0.00351901 0)
(9.95704 0.00122357 0)
(9.96567 0.000174228 0)
(9.97428 0.000107617 0)
(9.98276 0.000790531 0)
(9.99109 0.0020365 0)
(9.99925 0.00369265 0)
(10.0073 0.00563702 0)
(10.0151 0.00777157 0)
(9.99502 0.0318145 0)
(9.96177 0.0621339 0)
(9.93372 0.069552 0)
(9.91534 0.0601158 0)
(9.90932 0.0439519 0)
(9.91249 0.0276613 0)
(9.92084 0.013995 0)
(9.93162 0.00364035 0)
(9.94322 -0.00364101 0)
(9.95479 -0.00837317 0)
(9.96594 -0.0111301 0)
(9.97652 -0.0123941 0)
(9.98651 -0.0125708 0)
(9.99595 -0.0119598 0)
(10.0049 -0.0107976 0)
(10.0135 -0.00925643 0)
(10.0217 -0.0074675 0)
(10.0296 -0.005529 0)
(9.99018 0.0534618 0)
(9.93561 0.0901521 0)
(9.90098 0.0906281 0)
(9.88515 0.0687574 0)
(9.8878 0.0418195 0)
(9.90121 0.0186591 0)
(9.91856 0.00141777 0)
(9.93626 -0.0103958 0)
(9.95285 -0.0179405 0)
(9.96786 -0.0223929 0)
(9.98129 -0.0246488 0)
(9.99332 -0.02539 0)
(10.0042 -0.0250952 0)
(10.0141 -0.0241195 0)
(10.0232 -0.0227007 0)
(10.0318 -0.021007 0)
(10.0399 -0.0191553 0)
(10.0476 -0.0172271 0)
(9.9819 0.0862471 0)
(9.89548 0.124258 0)
(9.85817 0.109884 0)
(9.85209 0.0697742 0)
(9.87033 0.0303384 0)
(9.89842 0.00144909 0)
(9.92658 -0.0172042 0)
(9.95134 -0.0283205 0)
(9.9722 -0.0344198 0)
(9.9896 -0.0373295 0)
(10.0042 -0.0382059 0)
(10.0168 -0.0378006 0)
(10.0276 -0.0366177 0)
(10.0372 -0.0349806 0)
(10.0459 -0.0330919 0)
(10.0539 -0.031092 0)
(10.0613 -0.0290586 0)
(10.0684 -0.0270535 0)
(9.96925 0.13399 0)
(9.83823 0.163089 0)
(9.80793 0.122591 0)
(9.82311 0.0588002 0)
(9.86512 0.00730841 0)
(9.91138 -0.0240264 0)
(9.95035 -0.0405904 0)
(9.98048 -0.048371 0)
(10.0034 -0.0512353 0)
(10.0212 -0.0515372 0)
(10.0353 -0.0504152 0)
(10.0469 -0.0485125 0)
(10.0565 -0.0462603 0)
(10.0649 -0.0438596 0)
(10.0723 -0.0414376 0)
(10.079 -0.0390865 0)
(10.0852 -0.0368581 0)
(10.0911 -0.0347639 0)
(9.94951 0.20714 0)
(9.76128 0.207022 0)
(9.75726 0.123478 0)
(9.81042 0.0320112 0)
(9.88382 -0.0278608 0)
(9.94874 -0.0559947 0)
(9.99526 -0.0660724 0)
(10.0266 -0.067801 0)
(10.048 -0.0659724 0)
(10.063 -0.0631914 0)
(10.0743 -0.0598828 0)
(10.083 -0.0564955 0)
(10.09 -0.0531568 0)
(10.0959 -0.0501243 0)
(10.101 -0.0472805 0)
(10.1057 -0.0446752 0)
(10.11 -0.0423212 0)
(10.1141 -0.0401934 0)
(9.91094 0.322718 0)
(9.65923 0.254545 0)
(9.71887 0.107407 0)
(9.83329 -0.011923 0)
(9.94173 -0.0726524 0)
(10.0199 -0.0901624 0)
(10.0662 -0.0893219 0)
(10.0917 -0.0831378 0)
(10.1058 -0.0760382 0)
(10.1141 -0.0696162 0)
(10.1197 -0.0644926 0)
(10.1236 -0.0600805 0)
(10.1262 -0.0564002 0)
(10.1281 -0.053201 0)
(10.1298 -0.0501629 0)
(10.1314 -0.0476196 0)
(10.1329 -0.0455468 0)
(10.1344 -0.0434255 0)
(9.84404 0.43511 0)
(9.53798 0.261026 0)
(9.7269 0.059135 0)
(9.92367 -0.0731154 0)
(10.0584 -0.121552 0)
(10.1344 -0.120192 0)
(10.1664 -0.10528 0)
(10.1758 -0.0906169 0)
(10.1759 -0.078483 0)
(10.1725 -0.0703767 0)
(10.1686 -0.0644299 0)
(10.1646 -0.0597639 0)
(10.1606 -0.0556877 0)
(10.1569 -0.0524174 0)
(10.1536 -0.0496134 0)
(10.1503 -0.0474481 0)
(10.1479 -0.0458478 0)
(10.146 -0.0439271 0)
(9.83598 0.319666 0)
(9.55021 0.0912513 0)
(9.91739 -0.0687253 0)
(10.1507 -0.160112 0)
(10.2634 -0.172136 0)
(10.3032 -0.142726 0)
(10.2978 -0.112095 0)
(10.276 -0.0899553 0)
(10.2516 -0.0753902 0)
(10.2302 -0.0674553 0)
(10.2132 -0.0619264 0)
(10.1983 -0.0574415 0)
(10.1844 -0.0528831 0)
(10.1713 -0.0486262 0)
(10.1597 -0.0448462 0)
(10.1497 -0.0425166 0)
(10.141 -0.0407809 0)
(10.1325 -0.0380693 0)
(10.2049 -0.0633775 0)
(10.4095 -0.191706 0)
(10.7164 -0.282558 0)
(10.6879 -0.282287 0)
(10.6191 -0.230103 0)
(10.5417 -0.163667 0)
(10.4545 -0.117044 0)
(10.3763 -0.092501 0)
(10.3137 -0.0798721 0)
(10.2654 -0.0678615 0)
(10.2262 -0.0588597 0)
(10.1916 -0.0542989 0)
(10.1603 -0.0534855 0)
(10.1322 -0.0530821 0)
(10.107 -0.0522528 0)
(10.0852 -0.048244 0)
(10.0638 -0.0440349 0)
(10.0436 -0.0449086 0)
(9.41631 4.45107 0)
(12.7294 2.07612 0)
(12.5649 0.621213 0)
(11.569 0.127657 0)
(10.9309 0.00343442 0)
(10.5866 -0.00206817 0)
(10.3638 0.012309 0)
(10.2022 0.0302324 0)
(10.0795 0.0411899 0)
(9.97728 0.0358285 0)
(9.88476 0.0250301 0)
(9.79908 0.0218946 0)
(9.72266 0.024985 0)
(9.65612 0.0228077 0)
(9.59983 0.0197965 0)
(9.54588 0.0108823 0)
(9.49516 -0.0143901 0)
(9.45193 -0.010935 0)
(-0.0275107 0.0934198 0)
(0.137022 -0.183523 0)
(0.324992 -0.305908 0)
(0.52548 -0.315126 0)
(0.702954 -0.272078 0)
(0.833502 -0.211084 0)
(0.909819 -0.146344 -8.60173e-20)
(0.9404 -0.0824996 8.66415e-20)
(0.919528 -0.0201778 0)
(0.858846 0.0345315 9.1862e-20)
(0.771692 0.0739535 0)
(0.672434 0.0919983 0)
(0.578515 0.0877176 0)
(0.505717 0.0666583 -1.43198e-19)
(0.455766 0.0377067 0)
(0.412419 0.00997176 0)
(0.352881 -0.00897414 1.87923e-19)
(0.262715 -0.00867931 0)
(0.135164 0.0293091 0)
(-0.0448433 0.112957 0)
(-0.300567 0.186499 -1.648e-19)
(-0.594273 0.235265 0)
(-0.915699 0.266822 -7.6234e-20)
(-1.25195 0.296043 0)
(-1.59138 0.323659 0)
(-1.93112 0.336466 -4.13209e-20)
(-2.26355 0.335616 0)
(-2.58066 0.326493 3.45396e-20)
(-2.87943 0.310355 0)
(-3.15645 0.289554 -3.13409e-20)
(-3.4108 0.266418 0)
(-3.64209 0.242537 0)
(-3.85106 0.218947 0)
(-4.0388 0.196353 0)
(-4.20675 0.175131 0)
(-4.35647 0.155488 2.82294e-20)
(-4.48953 0.13746 0)
(-4.60744 0.120976 -5.55702e-20)
(-4.71157 0.105907 0)
(-4.80314 0.092095 5.47716e-20)
(-4.8832 0.0793774 0)
(-4.95265 0.0676024 0)
(-5.01225 0.056642 -5.35496e-20)
(-5.06262 0.0463995 0)
(-5.10425 0.0368155 -5.26579e-20)
(-5.13757 0.027873 5.21801e-20)
(-5.16297 0.0196163 0)
(-5.18084 0.0121931 5.11533e-20)
(-5.19145 0.00585147 5.06009e-20)
(-5.19497 0.000801736 0)
(-5.19265 -0.00315185 0)
(-5.18573 -0.0064502 0)
(-5.17435 -0.00937269 0)
(-5.15882 -0.0120834 0)
(-5.13932 -0.0146521 -4.61814e-20)
(-5.11598 -0.0170922 0)
(-5.08891 -0.0194152 4.43162e-20)
(-5.05822 -0.02163 0)
(-5.024 -0.0237388 0)
(-4.98636 -0.0257435 -4.11382e-20)
(-4.94541 -0.0276445 0)
(-4.90125 -0.0294419 3.87625e-20)
(-4.85399 -0.0311353 0)
(-4.80374 -0.0327247 0)
(-4.75063 -0.0342102 0)
(-4.69477 -0.0355916 -3.3383e-20)
(-4.63628 -0.0368692 0)
(-4.57529 -0.0380442 0)
(-4.51193 -0.0391168 -2.87857e-20)
(-4.44632 -0.0400879 0)
(-4.3786 -0.0409587 -2.54443e-20)
(-4.3089 -0.0417306 0)
(-4.23735 -0.042405 0)
(-4.16408 -0.0429835 0)
(-4.08922 -0.0434685 1.80669e-20)
(-4.01291 -0.0438624 0)
(-3.93527 -0.0441688 0)
(-3.85642 -0.0443916 1.18851e-20)
(-3.7765 -0.0445352 9.69139e-21)
(-3.69562 -0.0446025 0)
(-3.61391 -0.0445927 5.08964e-21)
(-3.53147 -0.0445013 0)
(-3.44842 -0.0443198 3.63193e-22)
(-3.36487 -0.0440493 0)
(-3.28093 -0.0437126 -1.01253e-20)
(-3.1967 -0.0433536 0)
(-3.11224 -0.0430149 2.13702e-20)
(-3.02764 -0.0426918 0)
(-2.94296 -0.0423318 0)
(-2.85828 -0.041933 0)
(-2.77365 -0.0416457 -4.65584e-20)
(-2.68908 -0.0416505 0)
(-2.60456 -0.0419582 6.08387e-20)
(-2.52007 -0.0425393 0)
(-2.43558 -0.0434174 -7.65065e-20)
(-2.35133 -0.044333 -8.48858e-20)
(-2.26756 -0.0447837 -9.35937e-20)
(-2.18453 -0.0445769 0)
(-2.10242 -0.043972 0)
(-2.02124 -0.0432735 0)
(-1.941 -0.0425686 0)
(-1.86171 -0.0418684 0)
(-1.78339 -0.0411739 0)
(-1.70608 -0.0404869 0)
(-1.62979 -0.0398112 0)
(-1.55454 -0.0391525 1.92707e-19)
(-1.48036 -0.0385179 2.07028e-19)
(-1.40726 -0.0379129 0)
(-1.33525 -0.0373263 0)
(-1.26436 -0.036701 0)
(-1.19462 -0.0360433 2.74299e-19)
(-1.12605 -0.0354092 0)
(-1.05863 -0.0347936 0)
(-0.992378 -0.034198 0)
(-0.927292 -0.0336239 0)
(-0.86337 -0.0330734 -3.90946e-19)
(-0.800613 -0.032549 0)
(-0.739016 -0.0320539 0)
(-0.678571 -0.0315917 4.89134e-19)
(-0.619274 -0.0311637 -5.28837e-19)
(-0.561116 -0.0307735 0)
(-0.50409 -0.0304316 -6.2246e-19)
(-0.448184 -0.0301619 0)
(-0.393377 -0.0300088 7.41459e-19)
(-0.339649 -0.0299833 0)
(-0.286987 -0.030047 0)
(-0.235374 -0.0301867 0)
(-0.184782 -0.0304136 0)
(-0.135186 -0.0307431 0)
(-0.086631 -0.031194 -2.84704e-18)
(-0.039327 -0.031648 -3.27791e-18)
(0.0067789 -0.0313469 0)
(0.0521973 -0.0298477 0)
(0.0969378 -0.0279971 0)
(0.140859 -0.0262793 2.68445e-18)
(0.183868 -0.0247466 0)
(0.225945 -0.0233732 0)
(0.267112 -0.0221358 0)
(0.307402 -0.0210143 2.03976e-18)
(0.346845 -0.0199917 -1.9335e-18)
(0.38547 -0.0190536 0)
(0.423302 -0.0181887 0)
(0.460367 -0.0173877 -1.68677e-18)
(0.496688 -0.0166431 -1.62212e-18)
(0.53229 -0.0159488 0)
(0.567194 -0.0152996 0)
(0.601423 -0.0146913 1.46387e-18)
(0.635 -0.0141202 -1.42039e-18)
(0.667948 -0.0135833 0)
(0.700289 -0.0130778 0)
(0.732047 -0.0126014 -1.31012e-18)
(0.763243 -0.0121522 0)
(0.793901 -0.0117283 0)
(0.824044 -0.0113283 -1.22262e-18)
(0.853695 -0.0109507 0)
(0.882877 -0.0105943 -1.17354e-18)
(0.911614 -0.0102579 0)
(0.939929 -0.00994051 0)
(0.967845 -0.00964098 0)
(0.995384 -0.00935826 1.09155e-18)
(1.02257 -0.00909125 0)
(1.04942 -0.00883867 0)
(1.07595 -0.00859907 0)
(1.10218 -0.00837066 0)
(1.12812 -0.00815116 0)
(1.15376 -0.00793768 0)
(1.17911 -0.00772632 9.82752e-19)
(1.20414 -0.00751197 9.69832e-19)
(1.22882 -0.00728759 0)
(1.25306 -0.0070437 0)
(1.27677 -0.00676673 0)
(1.29978 -0.00643815 -9.24486e-19)
(1.32186 -0.00602819 0)
(1.34259 -0.00549814 1.81386e-18)
(1.36153 -0.00476096 -1.80049e-18)
(1.37727 -0.00372524 -1.79176e-18)
(1.38986 -0.00195375 1.79006e-18)
(1.39027 0.00132806 -1.79544e-18)
(1.38757 0.00807586 1.80877e-18)
(1.3083 0.0198892 0)
(0.0963196 -0.269022 0)
(0.334073 -0.681299 0)
(0.514174 -0.706531 1.57355e-19)
(0.61181 -0.571348 0)
(0.662804 -0.408896 -1.11137e-19)
(0.683243 -0.253823 -1.08103e-19)
(0.677216 -0.112173 -5.62541e-20)
(0.646843 0.0155835 -5.61994e-20)
(0.603866 0.1254 0)
(0.544671 0.211918 -6.0808e-20)
(0.467861 0.267393 0)
(0.373377 0.283192 0)
(0.257573 0.256424 1.70491e-19)
(0.110239 0.21143 9.82841e-20)
(-0.0747918 0.206286 -1.84458e-19)
(-0.301067 0.271841 -1.43792e-19)
(-0.579054 0.383419 -5.71878e-20)
(-0.904992 0.513256 0)
(-1.25859 0.642619 0)
(-1.61669 0.756446 0)
(-1.97231 0.842 -2.85748e-20)
(-2.3179 0.895565 0)
(-2.6478 0.919049 6.90624e-20)
(-2.95451 0.915467 0)
(-3.23401 0.88903 0)
(-3.48465 0.844862 1.98195e-20)
(-3.70502 0.788295 0)
(-3.89597 0.72486 -1.97619e-20)
(-4.05936 0.658786 -4.17981e-20)
(-4.19874 0.592785 2.01688e-20)
(-4.31704 0.528959 0)
(-4.41713 0.469091 0)
(-4.50174 0.414011 0)
(-4.57327 0.364072 -4.42596e-20)
(-4.63378 0.319233 -4.47659e-20)
(-4.68496 0.279224 -2.21902e-20)
(-4.72819 0.243632 0)
(-4.76458 0.211977 4.53081e-20)
(-4.79502 0.183759 0)
(-4.82022 0.1585 -4.58798e-20)
(-4.84078 0.135756 0)
(-4.85719 0.115135 0)
(-4.86987 0.0962958 4.60903e-20)
(-4.87919 0.0789474 0)
(-4.88549 0.0628495 1.38172e-19)
(-4.88909 0.0478077 -4.56108e-20)
(-4.89026 0.0336867 0)
(-4.88925 0.0204559 -4.49416e-20)
(-4.88632 0.00823172 -4.4485e-20)
(-4.88173 -0.00282387 0)
(-4.87458 -0.0127667 0)
(-4.86375 -0.0218927 0)
(-4.84925 -0.030445 0)
(-4.83096 -0.0385381 0)
(-4.80891 -0.0462417 4.0219e-20)
(-4.78317 -0.0535926 7.91684e-20)
(-4.75382 -0.0606121 -3.84417e-20)
(-4.72093 -0.0673114 0)
(-4.68459 -0.0736963 7.349e-20)
(-4.64491 -0.0797694 -3.59687e-20)
(-4.60196 -0.0855313 0)
(-4.55587 -0.090982 -3.32686e-20)
(-4.50673 -0.0961212 0)
(-4.45466 -0.10095 0)
(-4.39976 -0.105471 -5.98955e-20)
(-4.34215 -0.109684 2.83871e-20)
(-4.28195 -0.113588 -5.47038e-20)
(-4.21928 -0.117187 5.1985e-20)
(-4.15427 -0.120485 2.42954e-20)
(-4.08704 -0.123487 0)
(-4.01772 -0.126196 2.13624e-20)
(-3.94644 -0.128619 0)
(-3.87333 -0.130763 0)
(-3.7985 -0.132635 0)
(-3.7221 -0.134243 1.56358e-20)
(-3.64425 -0.135596 0)
(-3.56507 -0.136703 2.37688e-20)
(-3.48468 -0.137573 -2.99775e-20)
(-3.40322 -0.138217 -7.94279e-21)
(-3.32079 -0.138645 0)
(-3.23751 -0.138868 -4.14211e-21)
(-3.15351 -0.138899 0)
(-3.06887 -0.13875 -2.93318e-22)
(-2.98372 -0.138436 0)
(-2.89814 -0.137968 8.11216e-21)
(-2.81224 -0.137356 -2.35673e-20)
(-2.72611 -0.136607 -1.69661e-20)
(-2.63985 -0.135727 0)
(-2.55356 -0.134731 0)
(-2.46732 -0.133633 0)
(-2.3812 -0.132436 3.61829e-20)
(-2.29534 -0.131117 0)
(-2.20988 -0.129642 -4.66573e-20)
(-2.12496 -0.127968 0)
(-2.04071 -0.126046 1.71881e-19)
(-1.95723 -0.12389 6.3633e-20)
(-1.8745 -0.121607 6.96642e-20)
(-1.79248 -0.119302 0)
(-1.71115 -0.117034 0)
(-1.63056 -0.1148 0)
(-1.55077 -0.112578 0)
(-1.47184 -0.110353 0)
(-1.39381 -0.108122 2.19495e-19)
(-1.3167 -0.105886 2.34987e-19)
(-1.24056 -0.103646 0)
(-1.1654 -0.101408 -1.34763e-19)
(-1.09126 -0.0991717 -1.43543e-19)
(-1.01816 -0.0969407 0)
(-0.946113 -0.0947166 -3.23041e-19)
(-0.875149 -0.0925038 0)
(-0.805256 -0.0903157 1.81326e-19)
(-0.736445 -0.0881582 0)
(-0.668725 -0.0860316 0)
(-0.602101 -0.0839382 -4.34458e-19)
(-0.536577 -0.0818794 0)
(-0.472152 -0.0798568 2.44837e-19)
(-0.408826 -0.0778735 0)
(-0.346599 -0.0759351 0)
(-0.285465 -0.0740504 2.89776e-19)
(-0.225413 -0.0722175 3.09082e-19)
(-0.166439 -0.070431 0)
(-0.108535 -0.0686938 -3.46378e-19)
(-0.0517077 -0.0670062 0)
(0.00404666 -0.0653596 3.8264e-19)
(0.0587694 -0.063747 7.66176e-19)
(0.112494 -0.0621798 0)
(0.165221 -0.0606728 0)
(0.216951 -0.0592303 0)
(0.267697 -0.0578502 0)
(0.317495 -0.0565347 7.09226e-19)
(0.366412 -0.0552726 2.0964e-18)
(0.414537 -0.0538936 0)
(0.46178 -0.0522475 0)
(0.508003 -0.0504732 0)
(0.553273 -0.0487263 -6.65614e-19)
(0.597674 -0.0470586 0)
(0.641233 -0.0454785 0)
(0.683967 -0.0439833 1.28791e-18)
(0.725897 -0.0425667 6.36935e-19)
(0.767046 -0.0412212 6.3241e-19)
(0.807434 -0.0399401 0)
(0.847082 -0.038718 0)
(0.886013 -0.0375505 6.15866e-19)
(0.924248 -0.036434 -6.0963e-19)
(0.961807 -0.0353654 0)
(0.998712 -0.0343422 0)
(1.03499 -0.0333624 -5.96772e-19)
(1.07065 -0.0324241 1.77634e-18)
(1.10572 -0.0315256 0)
(1.14022 -0.0306655 0)
(1.17418 -0.0298426 5.80306e-19)
(1.20761 -0.0290556 0)
(1.24054 -0.0283036 1.14491e-18)
(1.27299 -0.0275854 -5.68522e-19)
(1.30498 -0.0269002 0)
(1.33654 -0.0262469 5.6241e-19)
(1.36768 -0.0256245 1.11754e-18)
(1.39843 -0.025032 0)
(1.4288 -0.0244681 0)
(1.45883 -0.0239312 -5.49577e-19)
(1.48852 -0.0234198 0)
(1.5179 -0.0229313 1.08645e-18)
(1.54699 -0.0224631 0)
(1.57579 -0.0220112 0)
(1.60431 -0.0215707 0)
(1.63256 -0.0211348 0)
(1.66053 -0.0206948 -5.29003e-19)
(1.68819 -0.0202385 -5.26236e-19)
(1.71552 -0.0197494 0)
(1.74245 -0.019205 0)
(1.76889 -0.0185737 0)
(1.7947 -0.0178097 5.16141e-19)
(1.81968 -0.0168462 0)
(1.84349 -0.0155799 -1.02487e-18)
(1.86572 -0.013834 1.02261e-18)
(1.88546 -0.0113238 1.02222e-18)
(1.90226 -0.00730871 1.02331e-18)
(1.91246 -0.000517926 1.02848e-18)
(1.92476 0.0124259 1.02037e-18)
(1.90519 0.0361873 0)
(0.116436 -0.859743 0)
(0.269005 -1.05684 0)
(0.316092 -0.826005 -1.26328e-19)
(0.315397 -0.584231 -1.08167e-19)
(0.297966 -0.373768 1.00488e-19)
(0.266756 -0.188642 1.00669e-19)
(0.220573 -0.023184 -6.44759e-22)
(0.158676 0.124557 0)
(0.0809373 0.255098 0)
(-0.0138785 0.366014 0)
(-0.12933 0.451724 0)
(-0.273481 0.512788 0)
(-0.459248 0.566619 -2.67321e-19)
(-0.697116 0.641363 0)
(-0.983347 0.753927 6.62737e-20)
(-1.30208 0.895897 5.71733e-20)
(-1.63537 1.04401 0)
(-1.96631 1.17802 0)
(-2.27964 1.2854 0)
(-2.56353 1.3591 0)
(-2.81263 1.39484 3.49032e-20)
(-3.02657 1.39239 0)
(-3.20671 1.35643 -3.23463e-20)
(-3.3559 1.29418 0)
(-3.4786 1.21298 0)
(-3.57942 1.11921 0)
(-3.66317 1.01896 -6.8588e-20)
(-3.73421 0.917572 0)
(-3.79608 0.819165 3.31176e-20)
(-3.85154 0.726541 -7.07017e-20)
(-3.90251 0.641212 0)
(-3.9503 0.563916 0)
(-3.99566 0.494703 0)
(-4.03895 0.433189 3.65648e-20)
(-4.08029 0.378724 3.71522e-20)
(-4.11963 0.330536 0)
(-4.15682 0.287829 0)
(-4.19171 0.249842 -7.78014e-20)
(-4.2241 0.215881 -7.81943e-20)
(-4.25385 0.185336 7.84273e-20)
(-4.28079 0.157687 0)
(-4.30482 0.132506 0)
(-4.32585 0.109445 0)
(-4.34381 0.0882198 0)
(-4.35862 0.0685959 -7.70109e-20)
(-4.37025 0.0503738 -7.69129e-20)
(-4.37862 0.0333694 7.627e-20)
(-4.38358 0.0173817 0)
(-4.38498 0.00215433 0)
(-4.38265 -0.0125991 0)
(-4.37653 -0.0270117 0)
(-4.36668 -0.0409967 -7.11063e-20)
(-4.35316 -0.0544624 0)
(-4.336 -0.0673975 0)
(-4.31525 -0.0798062 -6.69947e-20)
(-4.29095 -0.0916973 -6.4969e-20)
(-4.26317 -0.103078 0)
(-4.23199 -0.113953 1.2457e-19)
(-4.19747 -0.124324 -6.0031e-20)
(-4.15971 -0.13419 5.82544e-20)
(-4.11879 -0.143551 0)
(-4.07481 -0.152404 0)
(-4.02787 -0.160747 0)
(-3.97807 -0.168579 0)
(-3.92552 -0.175903 4.84228e-20)
(-3.87033 -0.182721 9.37766e-20)
(-3.81261 -0.189033 4.40575e-20)
(-3.75249 -0.19484 -4.17854e-20)
(-3.69008 -0.20015 0)
(-3.6255 -0.204969 7.54253e-20)
(-3.55888 -0.209305 7.05423e-20)
(-3.49034 -0.213167 6.55428e-20)
(-3.42001 -0.216565 -6.04276e-20)
(-3.34801 -0.219511 0)
(-3.27447 -0.222018 -7.40999e-20)
(-3.19951 -0.224098 0)
(-3.12325 -0.225767 2.00957e-20)
(-3.04581 -0.22704 1.58726e-20)
(-2.96732 -0.227932 0)
(-2.88789 -0.228462 0)
(-2.80764 -0.228645 1.53626e-20)
(-2.72668 -0.2285 0)
(-2.64512 -0.228043 2.92784e-21)
(-2.56306 -0.227294 0)
(-2.48061 -0.226274 9.99524e-21)
(-2.39788 -0.225002 3.47179e-20)
(-2.31495 -0.223499 0)
(-2.23194 -0.221781 0)
(-2.14894 -0.219865 0)
(-2.06603 -0.217767 4.45793e-20)
(-1.98332 -0.215508 0)
(-1.9009 -0.213101 5.94004e-20)
(-1.81887 -0.210543 0)
(-1.73732 -0.207816 0)
(-1.65632 -0.2049 -1.67046e-19)
(-1.57591 -0.201778 0)
(-1.4961 -0.198462 -9.93095e-20)
(-1.4169 -0.194997 0)
(-1.33834 -0.191438 -1.16589e-19)
(-1.26048 -0.187827 0)
(-1.18337 -0.184179 0)
(-1.10707 -0.180503 0)
(-1.03162 -0.176805 -4.62678e-19)
(-0.957047 -0.173091 -1.65039e-19)
(-0.883391 -0.169369 0)
(-0.810676 -0.165645 0)
(-0.738928 -0.161924 0)
(-0.668167 -0.158213 0)
(-0.598412 -0.154515 2.18833e-19)
(-0.529673 -0.150836 -4.58456e-19)
(-0.461958 -0.147186 -2.42666e-19)
(-0.395277 -0.143572 5.07647e-19)
(-0.329641 -0.140001 5.33444e-19)
(-0.265055 -0.136479 2.81372e-19)
(-0.201522 -0.133007 0)
(-0.139044 -0.129586 6.16211e-19)
(-0.0776196 -0.126219 0)
(-0.0172522 -0.122909 -6.73542e-19)
(0.0420647 -0.119658 -3.45154e-19)
(0.100345 -0.116467 0)
(0.157594 -0.113338 6.93114e-19)
(0.213819 -0.110274 3.48826e-19)
(0.269029 -0.107277 0)
(0.323234 -0.104336 3.48719e-19)
(0.376444 -0.10144 -1.0528e-18)
(0.428666 -0.0985976 0)
(0.479915 -0.0958206 0)
(0.530207 -0.093111 0)
(0.57956 -0.0904696 0)
(0.627997 -0.087901 -7.0774e-19)
(0.675551 -0.0854123 -7.10231e-19)
(0.722245 -0.0830184 0)
(0.768047 -0.0807066 0)
(0.81294 -0.0784378 0)
(0.856977 -0.0762107 0)
(0.900202 -0.0740415 0)
(0.942631 -0.0719387 0)
(0.984276 -0.0699051 -7.14007e-19)
(1.02515 -0.0679404 -1.08868e-21)
(1.06528 -0.0660431 0)
(1.10468 -0.064211 0)
(1.14337 -0.0624422 -7.13841e-19)
(1.18137 -0.0607349 0)
(1.2187 -0.0590875 7.14889e-19)
(1.25538 -0.0574984 7.14028e-19)
(1.29144 -0.0559665 0)
(1.32688 -0.0544904 0)
(1.36174 -0.0530691 -7.14562e-19)
(1.39603 -0.0517014 -1.42733e-18)
(1.42977 -0.0503865 0)
(1.46299 -0.0491232 0)
(1.49571 -0.0479108 0)
(1.52794 -0.0467482 -7.13258e-19)
(1.55972 -0.0456345 7.12878e-19)
(1.59105 -0.0445688 0)
(1.62196 -0.0435501 1.42288e-18)
(1.65248 -0.0425771 7.10422e-19)
(1.68263 -0.0416484 -1.42083e-18)
(1.71242 -0.0407625 0)
(1.74187 -0.0399173 0)
(1.77101 -0.0391103 -1.41702e-18)
(1.79986 -0.038338 -7.08224e-19)
(1.82842 -0.0375962 0)
(1.85671 -0.0368791 0)
(1.88475 -0.0361792 0)
(1.91253 -0.0354864 0)
(1.94006 -0.034787 -1.40689e-18)
(1.96731 -0.0340628 0)
(1.99427 -0.0332888 0)
(2.02087 -0.0324309 0)
(2.04705 -0.031441 0)
(2.07269 -0.0302509 0)
(2.09762 -0.0287598 0)
(2.12157 -0.0268162 -1.39755e-18)
(2.14422 -0.0241686 0)
(2.16489 -0.0204117 0)
(2.18334 -0.0147532 -2.81632e-18)
(2.19678 -0.00587574 1.41818e-18)
(2.21147 0.00887834 -1.41629e-18)
(2.20637 0.0362567 1.41174e-18)
(0.0333113 -1.16608 0)
(0.0696679 -1.02976 3.59928e-19)
(0.0339107 -0.746795 0)
(-0.0105492 -0.506317 1.10876e-19)
(-0.0658877 -0.283597 0)
(-0.133756 -0.0740083 0)
(-0.217005 0.122845 -8.28037e-20)
(-0.318009 0.306227 0)
(-0.438892 0.475697 0)
(-0.58226 0.631811 0)
(-0.751969 0.777108 0)
(-0.953229 0.917688 0)
(-1.18867 1.06166 2.04187e-19)
(-1.4527 1.21244 9.24317e-20)
(-1.73084 1.36376 -8.36843e-20)
(-2.00474 1.50229 0)
(-2.25865 1.61418 0)
(-2.48254 1.69011 0)
(-2.6716 1.72634 0)
(-2.82442 1.72415 0)
(-2.94357 1.68739 6.01615e-20)
(-3.03459 1.62131 5.8845e-20)
(-3.10358 1.53276 -5.79922e-20)
(-3.15688 1.42938 5.76909e-20)
(-3.19987 1.31788 0)
(-3.2369 1.20367 0)
(-3.27143 1.09111 5.58442e-20)
(-3.30581 0.983479 0)
(-3.34133 0.882901 0)
(-3.37849 0.790417 5.86987e-20)
(-3.4173 0.706267 6.15167e-20)
(-3.45742 0.630226 6.22284e-20)
(-3.4983 0.561762 0)
(-3.53934 0.500179 0)
(-3.57992 0.444718 -6.40385e-20)
(-3.61949 0.394622 0)
(-3.65754 0.349179 0)
(-3.69366 0.307747 6.43115e-20)
(-3.72751 0.269761 -6.60315e-20)
(-3.75881 0.234732 6.6042e-20)
(-3.78733 0.202246 0)
(-3.8129 0.171952 0)
(-3.83535 0.143553 1.30017e-19)
(-3.85456 0.1168 0)
(-3.87043 0.0914805 1.28629e-19)
(-3.88285 0.0674177 1.9104e-19)
(-3.89175 0.0444681 -1.89398e-19)
(-3.89707 0.0225113 1.25331e-19)
(-3.89875 0.00143028 0)
(-3.89681 -0.018891 0)
(-3.89127 -0.0385306 1.19875e-19)
(-3.88219 -0.0575074 5.84065e-20)
(-3.86961 -0.0758174 0)
(-3.85355 -0.0934595 0)
(-3.83406 -0.110433 5.49003e-20)
(-3.81119 -0.126738 1.08251e-19)
(-3.78498 -0.142371 0)
(-3.75551 -0.157332 -1.01798e-19)
(-3.72284 -0.171615 9.99689e-20)
(-3.68705 -0.185216 -9.6997e-20)
(-3.64822 -0.19813 0)
(-3.60644 -0.210353 0)
(-3.5618 -0.221878 0)
(-3.5144 -0.232703 0)
(-3.46434 -0.242833 0)
(-3.41173 -0.252267 -7.5924e-20)
(-3.35668 -0.261004 0)
(-3.2993 -0.269051 0)
(-3.23971 -0.276413 0)
(-3.17801 -0.283099 -1.22624e-19)
(-3.11434 -0.28912 -5.67046e-20)
(-3.0488 -0.294488 -5.26034e-20)
(-2.98153 -0.299217 9.80417e-20)
(-2.91264 -0.303323 -4.53634e-20)
(-2.84225 -0.306822 3.98114e-20)
(-2.77048 -0.309733 0)
(-2.69745 -0.312076 -3.08888e-20)
(-2.62328 -0.313872 0)
(-2.54808 -0.315141 0)
(-2.47198 -0.315908 0)
(-2.39507 -0.316195 -2.54916e-20)
(-2.31748 -0.316025 8.48581e-21)
(-2.2393 -0.315422 4.76827e-21)
(-2.16065 -0.314412 -2.98089e-21)