/*--------------------------------*- C++ -*----------------------------------*\
  =========                 |
  \\      /  F ield         | OpenFOAM: The Open Source CFD Toolbox
   \\    /   O peration     | Website:  https://openfoam.org
    \\  /    A nd           | Version:  8
     \\/     M anipulation  |
\*---------------------------------------------------------------------------*/
FoamFile
{
    version     2.0;
    format      ascii;
    class       volScalarField;
    location    "600";
    object      nut;
}
// * * * * * * * * * * * * * * * * * * * * * * * * * * * * * * * * * * * * * //

dimensions      [0 2 -1 0 0 0 0];

internalField   nonuniform List<scalar> 
12225
(
1.00709e-05
2.37995e-05
2.71793e-05
3.94201e-05
2.86447e-05
3.1629e-05
2.71625e-05
2.05426e-05
1.63091e-05
3.3258e-05
2.58744e-05
2.18604e-05
2.19614e-05
2.38567e-05
2.01154e-05
1.88471e-05
1.83101e-05
1.98864e-05
0.000386255
6.62539e-05
5.54235e-05
6.21294e-05
5.9614e-05
6.16019e-05
5.02994e-05
4.60543e-05
4.19482e-05
4.91774e-05
4.84557e-05
5.23955e-05
4.69159e-05
4.61808e-05
4.40125e-05
5.11594e-05
4.86696e-05
5.05123e-05
0.00191785
0.000300126
0.000224385
0.000178889
0.000132645
0.000119589
0.000109148
0.000100201
9.10403e-05
8.63295e-05
7.97365e-05
7.75689e-05
7.47336e-05
7.16152e-05
6.96826e-05
6.98188e-05
6.95958e-05
6.90161e-05
0.00153513
0.000686467
0.000560488
0.00046197
0.000347157
0.000299256
0.000289383
0.0002688
0.00024972
0.000232622
0.000218043
0.000205702
0.000196375
0.000186333
0.000179671
0.000173276
0.000169925
0.000164022
0.00138517
0.000863975
0.000770086
0.000712619
0.000627693
0.000558496
0.000548757
0.00053072
0.000506021
0.000477781
0.000456592
0.00043359
0.000417873
0.000399319
0.000387737
0.000373464
0.000365986
0.000353272
0.00132931
0.00108537
0.00099795
0.000941519
0.000896129
0.000827765
0.000823695
0.000808003
0.0007834
0.000751546
0.000727282
0.000699837
0.000680862
0.000657935
0.0006433
0.000623922
0.000613208
0.000595589
0.00127536
0.00120322
0.00115017
0.00111221
0.00106886
0.00104557
0.00104374
0.00102897
0.00100873
0.000981985
0.000960495
0.000936397
0.000918887
0.000897978
0.000883711
0.000864795
0.00085336
0.000835387
0.0012555
0.00123598
0.00121358
0.00118704
0.0011687
0.00115354
0.00114802
0.00113997
0.00112632
0.00110762
0.00109182
0.00107415
0.00106068
0.00104472
0.00103315
0.00101804
0.00100815
0.000993123
0.00125131
0.00124531
0.00123598
0.00122618
0.00121619
0.0012096
0.00119995
0.00119649
0.00118896
0.00117777
0.00116758
0.00115617
0.00114688
0.00113601
0.0011276
0.00111712
0.00110961
0.00109872
0.00124945
0.0012473
0.00124422
0.00124121
0.00123762
0.00123421
0.00123064
0.00122716
0.00122166
0.00121645
0.00121079
0.00120461
0.00119865
0.00119213
0.00118671
0.00118032
0.00117615
0.00117014
0.00124899
0.00124762
0.0012461
0.00124457
0.00124307
0.00124148
0.00123991
0.00123809
0.00123587
0.00123328
0.00123067
0.00122775
0.001225
0.00122188
0.00121919
0.00121603
0.00121364
0.00121022
0.00124893
0.00124765
0.00124644
0.00124523
0.00124412
0.001243
0.00124196
0.00124084
0.0012397
0.00123841
0.00123716
0.00123577
0.0012345
0.00123306
0.00123178
0.00123029
0.00122905
0.00122746
0.00124893
0.00124766
0.00124647
0.00124532
0.00124425
0.00124321
0.00124224
0.00124128
0.00124037
0.00123945
0.00123858
0.00123769
0.00123686
0.001236
0.00123521
0.00123437
0.0012336
0.00123277
0.00124892
0.00124766
0.00124646
0.00124532
0.00124424
0.00124321
0.00124223
0.0012413
0.00124041
0.00123955
0.00123874
0.00123795
0.0012372
0.00123647
0.00123578
0.0012351
0.00123446
0.00123383
0.00124892
0.00124766
0.00124646
0.00124531
0.00124423
0.00124319
0.00124221
0.00124127
0.00124038
0.00123952
0.00123871
0.00123793
0.00123718
0.00123647
0.00123579
0.00123513
0.00123451
0.00123391
0.00124892
0.00124766
0.00124645
0.0012453
0.00124421
0.00124318
0.00124219
0.00124125
0.00124035
0.00123949
0.00123867
0.00123789
0.00123714
0.00123642
0.00123574
0.00123508
0.00123445
0.00123385
0.00124892
0.00124765
0.00124645
0.0012453
0.00124421
0.00124317
0.00124218
0.00124123
0.00124033
0.00123947
0.00123865
0.00123786
0.00123711
0.00123639
0.0012357
0.00123504
0.00123441
0.00123381
0.00124892
0.00124765
0.00124645
0.0012453
0.00124421
0.00124317
0.00124217
0.00124123
0.00124032
0.00123946
0.00123864
0.00123785
0.0012371
0.00123638
0.00123568
0.00123503
0.00123439
0.00123379
0.00124892
0.00124766
0.00124645
0.0012453
0.00124421
0.00124317
0.00124218
0.00124123
0.00124033
0.00123947
0.00123864
0.00123785
0.0012371
0.00123637
0.00123568
0.00123502
0.00123438
0.00123378
0.00124892
0.00124766
0.00124645
0.00124531
0.00124422
0.00124318
0.00124219
0.00124124
0.00124034
0.00123947
0.00123863
0.00123782
0.00123704
0.00123629
0.00123557
0.00123488
0.00123422
0.00123359
0.00124893
0.00124766
0.00124646
0.00124532
0.00124422
0.0012432
0.0012422
0.00124123
0.00124027
0.00123929
0.0012383
0.00123731
0.0012363
0.00123535
0.00123438
0.00123351
0.00123262
0.00123186
0.00124894
0.00124765
0.00124645
0.00124536
0.00124423
0.00124328
0.00124199
0.00124076
0.00123925
0.00123751
0.00123554
0.00123337
0.00123106
0.00122885
0.00122659
0.00122465
0.00122254
0.00122094
0.00124898
0.00124763
0.00124639
0.00124551
0.00124416
0.00124289
0.00123945
0.00123682
0.0012317
0.00122738
0.00122066
0.00121315
0.00120566
0.00119861
0.00119182
0.00118568
0.00117946
0.00117452
0.00124911
0.00124777
0.00124597
0.00124474
0.00124214
0.00123502
0.0012247
0.00120975
0.00119348
0.00117458
0.00115602
0.00113725
0.00111893
0.00110259
0.00108725
0.00107389
0.00106108
0.00105162
0.00125037
0.0012482
0.00123805
0.00122849
0.00121431
0.00118848
0.00115482
0.00111302
0.00107325
0.00103164
0.000994765
0.000959868
0.000929678
0.00090325
0.000880166
0.00086247
0.000845684
0.000832453
0.00125828
0.00123735
0.00117891
0.00115028
0.00110188
0.00103068
0.000958256
0.000884762
0.000820426
0.000762676
0.000714238
0.000673902
0.000640023
0.000613728
0.000591552
0.000575917
0.000561194
0.000553392
0.0013128
0.00115019
0.000982669
0.000893117
0.000791343
0.000691411
0.00060629
0.000533056
0.000474542
0.000427341
0.000389947
0.000360972
0.000339177
0.000321636
0.000309596
0.000300036
0.00029312
0.000287282
0.00187089
0.000772984
0.000522616
0.000410611
0.000340176
0.000287033
0.000246811
0.000214307
0.000189952
0.000170693
0.000156028
0.000145148
0.000137377
0.000131538
0.000127522
0.000125525
0.000124692
0.000124817
0.00103147
0.000183613
0.000119278
9.76207e-05
8.72352e-05
8.06551e-05
7.69977e-05
7.41403e-05
7.19794e-05
7.16626e-05
7.17482e-05
7.11548e-05
7.24317e-05
7.25859e-05
7.23853e-05
7.26971e-05
7.41617e-05
7.48311e-05
1.41036e-05
1.74262e-05
2.01816e-05
2.18757e-05
2.29208e-05
2.32427e-05
2.33801e-05
2.33168e-05
2.30821e-05
2.27921e-05
2.24741e-05
2.21514e-05
2.18508e-05
2.15738e-05
2.13198e-05
2.10949e-05
2.09023e-05
2.07417e-05
1.78434e-12
2.01382e-10
1.02239e-09
4.00478e-09
1.32941e-08
4.01631e-08
1.03927e-07
2.04985e-07
3.30193e-07
4.61461e-07
5.78772e-07
6.69648e-07
7.30014e-07
7.53336e-07
7.43813e-07
7.14543e-07
6.58688e-07
5.65769e-07
4.83293e-07
4.12092e-07
3.4429e-07
2.78304e-07
2.14097e-07
1.54476e-07
1.00957e-07
5.91724e-08
3.12884e-08
1.56094e-08
7.85148e-09
4.23438e-09
2.54852e-09
1.92975e-09
2.09008e-09
4.49043e-09
9.72368e-09
5.98822e-08
1.35122e-07
3.0182e-07
4.54628e-07
4.93308e-07
4.54786e-07
3.62004e-07
3.03472e-07
3.00257e-07
3.27794e-07
4.43125e-07
6.00228e-07
1.23684e-06
2.8715e-06
9.11886e-06
2.307e-05
3.94009e-05
4.81529e-05
5.23392e-05
4.64125e-05
4.39471e-05
3.98934e-05
3.31194e-05
3.69282e-05
3.75316e-05
2.89784e-05
3.2367e-05
3.26035e-05
3.33935e-05
3.40605e-05
3.4592e-05
3.52753e-05
3.58064e-05
3.64288e-05
3.6971e-05
3.75519e-05
3.80942e-05
3.86507e-05
3.91876e-05
3.97291e-05
4.02596e-05
4.07911e-05
4.13156e-05
4.18398e-05
4.23592e-05
4.2878e-05
4.33931e-05
4.39075e-05
4.4419e-05
4.49298e-05
4.54383e-05
4.59457e-05
4.64515e-05
4.69558e-05
4.74584e-05
4.7959e-05
4.84571e-05
4.89523e-05
4.94437e-05
4.99313e-05
5.04146e-05
5.08942e-05
5.13715e-05
5.18488e-05
5.23319e-05
5.28287e-05
5.33236e-05
5.38231e-05
5.43285e-05
5.48391e-05
5.53575e-05
5.58823e-05
5.64162e-05
5.69578e-05
5.751e-05
5.80714e-05
5.86448e-05
5.92294e-05
5.98276e-05
6.0439e-05
6.10659e-05
6.17083e-05
6.23683e-05
6.30465e-05
6.37448e-05
6.44644e-05
6.52069e-05
6.59746e-05
6.67692e-05
6.75942e-05
6.84513e-05
6.93442e-05
7.02627e-05
7.12523e-05
7.21949e-05
7.32629e-05
7.42979e-05
7.54474e-05
7.66465e-05
7.7912e-05
7.90707e-05
7.88095e-05
7.85385e-05
7.82522e-05
7.79552e-05
7.76485e-05
7.7332e-05
7.70076e-05
7.66732e-05
7.63316e-05
7.59809e-05
7.56235e-05
7.52578e-05
7.48857e-05
7.45063e-05
7.41237e-05
7.373e-05
7.3339e-05
7.29363e-05
7.25358e-05
7.21307e-05
7.17243e-05
7.13175e-05
7.09106e-05
7.05041e-05
7.00985e-05
6.96936e-05
6.929e-05
6.88876e-05
6.84869e-05
6.80885e-05
6.76927e-05
6.73004e-05
6.69116e-05
6.6527e-05
6.61457e-05
6.57681e-05
6.53917e-05
6.50143e-05
6.4631e-05
6.42345e-05
6.38143e-05
6.33416e-05
6.27567e-05
6.11311e-05
7.59123e-12
1.23036e-09
1.65302e-08
8.7612e-08
3.80497e-07
1.24487e-06
2.85353e-06
5.19962e-06
8.03779e-06
1.12647e-05
1.45219e-05
1.75244e-05
2.00709e-05
2.19966e-05
2.31211e-05
2.34672e-05
2.31261e-05
2.23006e-05
2.00287e-05
1.68184e-05
1.29867e-05
9.58128e-06
6.76333e-06
4.58386e-06
2.89044e-06
1.78872e-06
1.09117e-06
6.78419e-07
4.21764e-07
2.78389e-07
2.00072e-07
1.77192e-07
1.58421e-07
3.09966e-07
4.42267e-07
3.44372e-06
7.69062e-06
1.57016e-05
2.169e-05
2.37748e-05
2.23727e-05
2.02825e-05
1.75518e-05
1.65557e-05
1.71286e-05
1.75584e-05
2.10931e-05
2.89555e-05
4.04794e-05
5.19648e-05
6.38495e-05
7.37645e-05
8.22585e-05
9.01176e-05
9.93499e-05
0.000111971
0.000122056
0.000132679
0.000149301
0.000163684
0.000174138
0.000189408
0.000202196
0.000214725
0.000227467
0.000239132
0.000250645
0.000261525
0.000272141
0.000282357
0.000292274
0.000301917
0.000311305
0.000320488
0.000329468
0.000338283
0.000346937
0.000355453
0.000363835
0.000372098
0.000380246
0.000388288
0.000396228
0.000404071
0.000411822
0.000419482
0.000427054
0.000434541
0.000441948
0.000449273
0.000456522
0.000463684
0.000470755
0.000477718
0.000484553
0.000491228
0.000497697
0.000503892
0.000509708
0.000515019
0.000519653
0.000524343
0.000528814
0.000533212
0.000537462
0.000541595
0.000545592
0.000549456
0.00055318
0.000556763
0.000560199
0.000563486
0.000566619
0.000569598
0.000572416
0.000575074
0.000577567
0.000579893
0.00058205
0.000584037
0.000585849
0.000587485
0.000588943
0.000590221
0.000591317
0.000592233
0.000592971
0.000593556
0.000594004
0.000594223
0.000594316
0.000594087
0.000593819
0.000593389
0.000592948
0.000592561
0.000592277
0.000591847
0.000591271
0.000590554
0.000589709
0.000588741
0.000587656
0.000586455
0.000585144
0.000583721
0.000582194
0.00058056
0.000578824
0.000577031
0.000575069
0.000573132
0.000570975
0.000568827
0.000566575
0.000564246
0.000561867
0.000559428
0.000556941
0.000554411
0.00055184
0.000549231
0.000546584
0.000543898
0.000541175
0.000538418
0.000535632
0.000532822
0.00052999
0.000527135
0.000524256
0.000521347
0.000518391
0.000515342
0.000512162
0.000508763
0.000505014
0.000500604
0.000494765
0.000478254
1.94186e-11
3.30697e-09
6.21961e-08
3.67614e-07
1.14535e-06
3.05749e-06
6.46494e-06
1.12015e-05
1.7025e-05
2.36231e-05
3.06032e-05
3.75645e-05
4.38306e-05
4.9042e-05
5.29826e-05
5.5576e-05
5.69773e-05
5.72837e-05
5.57755e-05
5.28571e-05
4.81559e-05
4.21165e-05
3.47906e-05
2.7424e-05
2.06641e-05
1.48304e-05
1.00993e-05
6.75985e-06
4.30332e-06
2.87003e-06
2.01701e-06
1.63047e-06
1.37955e-06
2.25779e-06
4.1717e-06
1.74749e-05
3.68071e-05
5.53574e-05
6.47279e-05
6.28762e-05
5.04915e-05
4.14218e-05
4.10185e-05
4.7661e-05
5.50775e-05
6.50087e-05
7.84134e-05
9.12348e-05
0.000104804
0.000122668
0.000141838
0.000163506
0.000187348
0.000214168
0.000243467
0.000274599
0.000304751
0.000337054
0.000368919
0.0003986
0.000427029
0.000455223
0.000482099
0.000507316
0.000531767
0.000555198
0.000577505
0.000599071
0.00061993
0.000640166
0.000659863
0.000679091
0.000697898
0.000716341
0.000734447
0.000752255
0.000769783
0.000787055
0.000804083
0.000820882
0.000837459
0.000853825
0.000869983
0.00088594
0.000901698
0.000917259
0.000932623
0.000947789
0.000962756
0.000977517
0.000992065
0.00100638
0.00102045
0.00103424
0.00104772
0.00106086
0.00107359
0.00108589
0.00109771
0.00110903
0.00112001
0.00113083
0.00114134
0.00115161
0.00116161
0.00117133
0.00118076
0.0011899
0.00119873
0.00120725
0.00121546
0.00122333
0.00123088
0.00123808
0.00124494
0.00125144
0.00125759
0.00126338
0.00126881
0.00127386
0.00127855
0.00128286
0.00128679
0.00129035
0.00129352
0.00129633
0.00129875
0.00130082
0.00130252
0.00130383
0.0013048
0.00130528
0.0013055
0.0013056
0.00130543
0.00130503
0.00130442
0.00130349
0.00130224
0.00130067
0.00129882
0.00129669
0.0012943
0.00129165
0.00128875
0.0012856
0.00128222
0.00127862
0.0012748
0.00127078
0.00126652
0.00126214
0.00125744
0.00125266
0.00124767
0.00124252
0.00123724
0.00123183
0.00122631
0.00122069
0.00121498
0.00120919
0.00120332
0.00119736
0.00119133
0.00118522
0.00117905
0.00117283
0.00116657
0.00116027
0.00115392
0.0011475
0.00114098
0.00113429
0.00112733
0.00111992
0.00111176
0.00110205
0.00108892
0.00105889
7.41196e-11
1.25276e-08
1.97604e-07
8.02554e-07
2.65963e-06
7.17561e-06
1.41743e-05
2.35521e-05
3.45852e-05
4.61511e-05
5.73786e-05
6.76812e-05
7.64263e-05
8.30218e-05
8.79417e-05
9.10069e-05
9.21903e-05
9.18839e-05
9.02291e-05
8.70132e-05
8.23826e-05
7.67624e-05
6.92772e-05
6.03522e-05
5.04516e-05
4.05103e-05
3.13029e-05
2.36186e-05
1.76671e-05
1.29062e-05
9.99301e-06
7.41712e-06
8.07519e-06
1.2088e-05
2.75596e-05
5.10949e-05
7.04181e-05
7.93424e-05
7.68016e-05
7.40133e-05
7.42888e-05
7.82677e-05
8.63597e-05
9.79129e-05
0.000112946
0.000125226
0.000145744
0.000169328
0.000196884
0.000230139
0.000266141
0.000306183
0.000348571
0.000393295
0.000438956
0.00048484
0.000529665
0.000574694
0.000617721
0.000658815
0.000698561
0.000736474
0.000773232
0.000808539
0.000842383
0.000875083
0.000906671
0.00093737
0.000967251
0.000996418
0.00102495
0.00105293
0.00108039
0.0011074
0.00113398
0.00116016
0.00118597
0.00121142
0.00123653
0.0012613
0.00128575
0.00130988
0.00133368
0.00135717
0.00138035
0.00140321
0.00142574
0.00144795
0.00146983
0.00149136
0.00151254
0.00153335
0.00155377
0.00157377
0.00159334
0.00161244
0.00163106
0.0016492
0.00166684
0.00168404
0.00170085
0.00171732
0.00173338
0.00174905
0.0017643
0.00177913
0.00179352
0.00180746
0.00182095
0.00183396
0.00184649
0.00185853
0.00187008
0.00188111
0.00189163
0.00190163
0.00191111
0.00192005
0.00192846
0.00193633
0.00194366
0.00195044
0.00195668
0.00196237
0.00196752
0.00197213
0.0019762
0.00197973
0.00198271
0.00198516
0.00198709
0.00198838
0.00198926
0.00198994
0.00199011
0.00198984
0.00198913
0.00198797
0.00198634
0.00198427
0.00198176
0.00197884
0.00197552
0.00197182
0.00196774
0.00196331
0.00195852
0.00195339
0.00194795
0.00194218
0.0019361
0.00192975
0.00192306
0.00191613
0.00190893
0.00190149
0.00189384
0.00188599
0.00187798
0.0018698
0.00186149
0.00185303
0.00184445
0.00183574
0.0018269
0.00181795
0.0018089
0.00179978
0.00179059
0.00178134
0.00177201
0.00176258
0.00175302
0.00174323
0.00173309
0.00172237
0.00171068
0.00169687
0.00167848
0.00164292
2.50932e-10
3.71379e-08
4.29866e-07
2.06451e-06
7.06731e-06
1.69203e-05
3.12156e-05
4.8137e-05
6.57246e-05
8.22842e-05
9.64709e-05
0.000107293
0.000115318
0.000120843
0.000123951
0.000125219
0.000124872
0.0001231
0.000120092
0.000115876
0.000110474
0.000104347
9.68601e-05
8.80443e-05
7.78679e-05
6.66475e-05
5.51857e-05
4.47931e-05
3.6187e-05
2.89964e-05
2.29935e-05
2.17178e-05
2.68868e-05
4.48225e-05
6.95965e-05
8.56284e-05
9.35416e-05
9.71207e-05
0.000100082
0.000105445
0.00011475
0.000128936
0.000142242
0.000155729
0.000178256
0.000207964
0.000241318
0.000281112
0.000325437
0.000374322
0.000425607
0.000479597
0.0005347
0.000590588
0.000646193
0.000701098
0.00075473
0.000807409
0.000857756
0.000906718
0.000954133
0.00100003
0.00104431
0.00108717
0.00112868
0.00116903
0.0012083
0.00124664
0.00128413
0.00132087
0.00135692
0.00139235
0.0014272
0.00146151
0.00149532
0.00152864
0.00156149
0.00159388
0.00162582
0.00165732
0.00168839
0.00171901
0.0017492
0.00177895
0.00180826
0.00183713
0.00186556
0.00189353
0.00192104
0.00194809
0.00197466
0.00200073
0.00202631
0.00205136
0.00207589
0.00209988
0.00212332
0.00214624
0.00216863
0.00219052
0.00221192
0.00223283
0.00225322
0.00227309
0.00229243
0.00231121
0.00232942
0.00234706
0.00236411
0.00238056
0.0023964
0.00241162
0.00242621
0.00244017
0.00245348
0.00246615
0.00247816
0.00248952
0.00250022
0.00251026
0.00251964
0.00252836
0.00253641
0.00254381
0.00255055
0.00255663
0.00256207
0.00256685
0.00257096
0.00257439
0.00257723
0.00257933
0.00258095
0.0025822
0.00258279
0.00258282
0.00258229
0.0025812
0.00257954
0.00257735
0.00257463
0.0025714
0.00256768
0.00256348
0.00255881
0.00255369
0.00254814
0.00254216
0.00253578
0.002529
0.00252183
0.00251429
0.00250636
0.00249809
0.00248949
0.00248058
0.00247139
0.00246194
0.00245226
0.00244236
0.00243227
0.00242199
0.00241152
0.00240088
0.00239007
0.0023791
0.00236799
0.00235675
0.0023454
0.00233396
0.00232242
0.00231076
0.00229893
0.00228686
0.00227442
0.00226137
0.00224733
0.00223115
0.00220992
0.0021742
8.06603e-10
9.12779e-08
1.09607e-06
5.54548e-06
1.79321e-05
3.75894e-05
6.10185e-05
8.47746e-05
0.00010526
0.000121283
0.000133202
0.000141933
0.000147332
0.000150245
0.000151197
0.000150582
0.000148655
0.000145594
0.000141543
0.000136462
0.000130465
0.000123831
0.000116032
0.000107146
9.57846e-05
7.99644e-05
6.4644e-05
5.03003e-05
3.8291e-05
3.3229e-05
3.42474e-05
4.66001e-05
6.8887e-05
9.10114e-05
0.000106546
0.000115992
0.000122131
0.000128817
0.000139631
0.000156588
0.00016794
0.000181998
0.000206176
0.000236076
0.000272772
0.000316397
0.00036484
0.000418616
0.000475426
0.00053499
0.000595974
0.000658109
0.00072044
0.000782593
0.000843968
0.000904336
0.000963213
0.00102063
0.00107681
0.00113137
0.00118436
0.00123588
0.00128595
0.0013347
0.00138222
0.00142861
0.00147399
0.00151843
0.00156203
0.00160485
0.00164696
0.00168839
0.00172919
0.00176939
0.001809
0.00184804
0.00188652
0.00192445
0.00196182
0.00199865
0.00203492
0.00207064
0.0021058
0.00214042
0.00217447
0.00220797
0.0022409
0.00227327
0.00230506
0.00233628
0.00236691
0.00239695
0.0024264
0.00245524
0.00248347
0.00251109
0.0025381
0.00256451
0.00259033
0.00261555
0.00264017
0.00266419
0.00268759
0.00271037
0.00273251
0.00275399
0.00277481
0.00279496
0.00281441
0.00283317
0.00285122
0.00286857
0.00288519
0.0029011
0.00291628
0.00293073
0.00294445
0.00295743
0.00296968
0.0029812
0.00299199
0.00300205
0.00301139
0.00302
0.00302789
0.00303507
0.00304156
0.00304732
0.00305227
0.00305658
0.00306022
0.00306305
0.00306538
0.0030672
0.00306831
0.00306879
0.00306864
0.00306787
0.00306649
0.00306452
0.00306197
0.00305886
0.0030552
0.00305099
0.00304627
0.00304104
0.00303531
0.00302911
0.00302244
0.00301531
0.00300774
0.00299974
0.0029913
0.00298246
0.00297323
0.00296363
0.00295369
0.00294344
0.0029329
0.00292209
0.00291103
0.00289974
0.0028882
0.00287645
0.00286447
0.00285229
0.00283994
0.00282742
0.00281475
0.00280196
0.00278904
0.00277599
0.00276275
0.00274929
0.00273546
0.00272108
0.00270576
0.00268856
0.00266675
0.00263313
2.61008e-09
2.35035e-07
2.90462e-06
1.51043e-05
3.90111e-05
6.88377e-05
9.68677e-05
0.000119534
0.000136616
0.000149489
0.000158509
0.000163975
0.000166842
0.000167766
0.000167192
0.000165418
0.00016263
0.000158915
0.000154199
0.000148407
0.000141767
0.000134052
0.000124998
0.000108569
9.29246e-05
7.91084e-05
6.68814e-05
5.83569e-05
5.7645e-05
6.59146e-05
7.9011e-05
0.000104117
0.000121929
0.000135069
0.000144721
0.000153222
0.000164626
0.00018197
0.000191214
0.000204968
0.000228159
0.000257082
0.000293924
0.000337243
0.000387336
0.000442869
0.000502151
0.000564611
0.00062886
0.000694503
0.000760764
0.000827266
0.000893484
0.000959137
0.00102358
0.00108689
0.00114952
0.00121058
0.00127028
0.00132856
0.00138546
0.00144103
0.00149531
0.00154839
0.00160034
0.00165124
0.00170117
0.00175021
0.00179841
0.00184583
0.00189252
0.00193851
0.00198382
0.00202848
0.00207249
0.00211585
0.00215857
0.00220065
0.00224208
0.00228286
0.00232298
0.00236245
0.00240125
0.0024394
0.00247688
0.0025137
0.00254985
0.00258533
0.00262015
0.0026543
0.00268777
0.00272057
0.0027527
0.00278414
0.00281491
0.00284498
0.00287437
0.00290306
0.00293105
0.00295835
0.00298497
0.0030109
0.00303613
0.00306066
0.00308447
0.00310756
0.00312993
0.00315156
0.00317246
0.00319262
0.00321203
0.00323068
0.00324856
0.00326567
0.00328201
0.00329758
0.00331238
0.0033264
0.00333966
0.00335214
0.00336387
0.00337483
0.00338504
0.0033945
0.00340322
0.0034112
0.00341849
0.00342494
0.00343062
0.00343563
0.00343993
0.00344341
0.00344638
0.00344875
0.00345041
0.00345139
0.00345172
0.0034514
0.00345044
0.00344887
0.0034467
0.00344394
0.00344063
0.00343681
0.00343244
0.00342755
0.00342212
0.00341619
0.00340975
0.00340283
0.00339542
0.00338753
0.00337917
0.00337037
0.00336113
0.00335148
0.00334145
0.00333105
0.00332032
0.00330928
0.00329793
0.0032863
0.00327438
0.00326219
0.00324974
0.00323705
0.00322413
0.00321102
0.00319772
0.00318426
0.00317065
0.00315689
0.00314294
0.00312877
0.00311429
0.00309935
0.00308367
0.00306646
0.00304561
0.00301517
7.89916e-09
6.24361e-07
7.86246e-06
3.21005e-05
6.70245e-05
0.000101588
0.000130006
0.000150938
0.000165277
0.000173867
0.000178135
0.000179883
0.000179897
0.000178584
0.000176269
0.000173113
0.000169074
0.00016406
0.000158198
0.000151576
0.000144021
0.000135106
0.000117673
0.000100621
8.65212e-05
7.71143e-05
7.45343e-05
7.86738e-05
8.90013e-05
0.000109987
0.000135415
0.000158435
0.000172361
0.0001826
0.000194451
0.000204604
0.000211992
0.00022515
0.000245735
0.00027258
0.000307336
0.000348636
0.000397099
0.000451441
0.000510926
0.000573951
0.000639336
0.000706446
0.000774527
0.000843194
0.000911982
0.000980577
0.00104843
0.00111538
0.00118192
0.00124732
0.00131163
0.00137467
0.00143647
0.00149703
0.00155636
0.00161451
0.00167151
0.00172742
0.0017823
0.00183622
0.00188922
0.00194137
0.00199272
0.0020433
0.00209316
0.00214231
0.00219077
0.00223855
0.00228563
0.00233201
0.00237769
0.00242266
0.0024669
0.0025104
0.00255316
0.00259518
0.00263644
0.00267696
0.00271673
0.00275574
0.00279399
0.00283151
0.00286828
0.0029043
0.00293959
0.00297414
0.00300794
0.00304101
0.00307334
0.00310492
0.00313576
0.00316582
0.00319514
0.00322372
0.00325156
0.00327867
0.00330504
0.00333066
0.00335553
0.00337964
0.00340298
0.00342556
0.00344735
0.00346836
0.00348858
0.00350802
0.00352666
0.00354452
0.00356158
0.00357786
0.00359335
0.00360805
0.00362198
0.00363513
0.00364752
0.00365914
0.00367001
0.00368012
0.00368949
0.00369816
0.00370612
0.00371318
0.00371957
0.00372527
0.00373024
0.00373442
0.00373811
0.00374113
0.00374345
0.0037451
0.00374609
0.00374644
0.00374616
0.00374526
0.00374375
0.00374164
0.00373897
0.0037357
0.00373188
0.00372751
0.0037226
0.00371715
0.00371118
0.00370469
0.0036977
0.0036902
0.0036822
0.00367372
0.00366477
0.00365538
0.00364557
0.00363537
0.00362479
0.00361385
0.00360257
0.00359096
0.00357902
0.00356677
0.00355422
0.00354138
0.00352829
0.00351495
0.00350141
0.00348767
0.00347375
0.00345965
0.00344537
0.0034309
0.00341625
0.00340132
0.00338584
0.00336921
0.00334977
0.00332312
2.06e-08
1.55656e-06
1.73769e-05
5.3654e-05
9.45509e-05
0.000129117
0.000155289
0.000172841
0.000183748
0.000189282
0.000190915
0.000189805
0.000186964
0.000183111
0.000178632
0.00017364
0.00016804
0.000161876
0.000155037
0.000147725
0.00013962
0.000128474
0.000116466
0.000109266
0.000103935
0.000100074
0.000105183
0.000120513
0.000140325
0.000161659
0.00018179
0.000198485
0.000210435
0.000219545
0.000229096
0.000241621
0.000259985
0.00028414
0.000315652
0.000353854
0.000398972
0.00045012
0.000506979
0.000568304
0.000633
0.000699845
0.000768075
0.000837203
0.000906778
0.000976481
0.00104597
0.00111468
0.00118305
0.00125084
0.00131771
0.00138356
0.00144836
0.00151205
0.00157462
0.00163607
0.00169643
0.00175573
0.001814
0.0018713
0.00192766
0.00198314
0.00203777
0.00209161
0.0021447
0.00219707
0.00224876
0.00229977
0.00235013
0.00239981
0.00244878
0.00249703
0.00254456
0.00259133
0.00263732
0.00268252
0.00272692
0.0027705
0.00281326
0.00285521
0.00289636
0.00293675
0.00297633
0.00301508
0.00305302
0.00309014
0.00312645
0.00316196
0.00319667
0.00323058
0.00326371
0.00329604
0.00332758
0.00335836
0.00338837
0.00341761
0.00344608
0.00347377
0.00350069
0.00352684
0.00355221
0.00357679
0.00360059
0.0036236
0.00364582
0.00366724
0.00368788
0.00370771
0.00372676
0.00374501
0.00376248
0.00377916
0.00379506
0.00381019
0.00382455
0.00383815
0.003851
0.0038631
0.00387446
0.00388509
0.003895
0.00390425
0.00391273
0.00392041
0.00392744
0.0039338
0.00393943
0.00394435
0.00394875
0.00395247
0.00395553
0.00395793
0.0039597
0.00396084
0.00396136
0.00396128
0.0039606
0.00395934
0.00395751
0.00395511
0.00395214
0.00394863
0.00394458
0.00393999
0.00393486
0.00392922
0.00392304
0.00391635
0.00390914
0.00390143
0.00389323
0.00388456
0.00387544
0.0038659
0.00385595
0.00384561
0.00383489
0.0038238
0.00381235
0.00380055
0.00378841
0.00377595
0.00376319
0.00375016
0.00373688
0.00372338
0.00370967
0.00369576
0.00368167
0.00366738
0.00365289
0.00363814
0.00362301
0.00360701
0.00358884
0.00356554
4.5857e-08
3.5944e-06
3.1197e-05
7.76824e-05
0.000122223
0.000156355
0.000178631
0.000192576
0.000199104
0.00020016
0.000197686
0.000193083
0.00018729
0.00018089
0.000174077
0.000166829
0.000159324
0.000151191
0.000143141
0.000134786
0.000126347
0.000118756
0.000113877
0.00011402
0.000120502
0.000132743
0.000148765
0.000166556
0.000184749
0.000201935
0.000216343
0.000227955
0.000240241
0.000253809
0.000271028
0.000292812
0.00032101
0.000355538
0.000396592
0.000443583
0.000496186
0.000553673
0.000615345
0.000680113
0.000746996
0.000815171
0.000884117
0.000953471
0.00102293
0.00109196
0.00116051
0.001229
0.00129668
0.00136358
0.00142957
0.00149459
0.00155862
0.00162162
0.0016836
0.00174456
0.00180451
0.00186351
0.0019216
0.00197882
0.00203522
0.00209085
0.00214574
0.00219987
0.00225336
0.00230624
0.00235852
0.00241021
0.00246134
0.00251193
0.00256205
0.00261156
0.00266033
0.0027083
0.00275543
0.0028017
0.0028471
0.0028916
0.0029352
0.00297789
0.00301969
0.00306056
0.00310055
0.0031397
0.00317802
0.00321552
0.0032522
0.00328807
0.00332315
0.00335741
0.00339089
0.00342356
0.00345546
0.00348657
0.00351689
0.00354642
0.00357515
0.0036031
0.00363026
0.00365663
0.00368222
0.00370701
0.00373101
0.00375423
0.00377666
0.00379829
0.00381914
0.00383921
0.00385849
0.003877
0.00389473
0.00391169
0.00392789
0.00394334
0.00395805
0.00397202
0.00398526
0.00399778
0.00400959
0.00402069
0.00403113
0.00404091
0.0040499
0.00405823
0.0040659
0.00407293
0.00407927
0.00408498
0.00409012
0.00409461
0.00409848
0.00410172
0.00410435
0.00410639
0.00410783
0.00410869
0.00410898
0.00410871
0.00410787
0.00410649
0.00410456
0.00410208
0.00409908
0.00409555
0.00409148
0.00408689
0.00408177
0.00407612
0.00406994
0.00406324
0.00405604
0.00404836
0.00404021
0.00403161
0.00402258
0.00401312
0.00400327
0.00399301
0.00398235
0.00397131
0.00395989
0.00394813
0.00393603
0.00392363
0.00391095
0.00389802
0.00388484
0.00387145
0.00385785
0.00384408
0.00383012
0.00381597
0.00380156
0.00378653
0.00376982
0.00375012
8.68227e-08
7.32633e-06
4.5345e-05
9.76511e-05
0.000143869
0.000177409
0.000198022
0.0002076
0.000209633
0.000206752
0.000200865
0.000193289
0.000184819
0.000175843
0.000167061
0.000158308
0.000150387
0.000143355
0.000137942
0.000133905
0.000132188
0.000133707
0.000138872
0.000147768
0.00015986
0.000174255
0.000189828
0.000205586
0.000220167
0.000232872
0.000246432
0.000261819
0.000279022
0.000299465
0.000324895
0.000355848
0.000392739
0.000435235
0.000483036
0.000535631
0.000592562
0.000653185
0.000716759
0.000782411
0.000849384
0.000917096
0.000985155
0.00105323
0.00112077
0.00118824
0.00125524
0.00132161
0.00138715
0.00145181
0.00151552
0.00157827
0.00164006
0.0017009
0.0017608
0.00181977
0.00187779
0.00193495
0.00199134
0.00204701
0.00210202
0.00215647
0.0022105
0.00226434
0.00231768
0.00237049
0.00242279
0.00247456
0.00252583
0.00257657
0.00262668
0.00267616
0.00272497
0.00277301
0.00282027
0.00286672
0.00291231
0.00295701
0.00300081
0.0030437
0.00308571
0.00312686
0.00316715
0.00320661
0.00324522
0.00328301
0.00331997
0.00335612
0.00339146
0.00342599
0.00345971
0.00349263
0.00352475
0.00355607
0.00358659
0.00361631
0.00364523
0.00367336
0.00370069
0.00372723
0.00375298
0.00377794
0.00380212
0.00382552
0.00384813
0.00386998
0.00389104
0.00391134
0.00393087
0.00394965
0.00396766
0.00398493
0.00400146
0.00401727
0.00403235
0.00404673
0.00406041
0.0040734
0.0040857
0.00409733
0.00410835
0.00411866
0.0041283
0.00413731
0.00414569
0.00415345
0.00416057
0.00416711
0.00417308
0.00417842
0.00418317
0.00418733
0.00419092
0.00419394
0.0041964
0.0041983
0.00419966
0.00420048
0.00420076
0.00420051
0.00419973
0.00419843
0.00419661
0.00419428
0.00419142
0.00418804
0.00418414
0.00417969
0.00417471
0.00416921
0.00416319
0.00415667
0.00414968
0.00414222
0.00413431
0.00412597
0.00411719
0.00410798
0.00409834
0.00408829
0.00407784
0.004067
0.00405581
0.00404428
0.00403244
0.00402031
0.00400792
0.00399528
0.00398242
0.00396937
0.00395616
0.0039428
0.00392925
0.00391528
0.00389997
0.00388338
1.37832e-07
1.24387e-05
6.20307e-05
0.000120977
0.000167594
0.000198012
0.000214131
0.000219685
0.00021819
0.000212346
0.000204101
0.000194534
0.0001851
0.000176003
0.000168181
0.000161379
0.000156331
0.000153487
0.000152722
0.00015426
0.000158362
0.000165062
0.00017416
0.00018528
0.000197927
0.00021151
0.000224983
0.000237659
0.000251205
0.000267292
0.00028525
0.000304971
0.000328536
0.000356547
0.000389598
0.000427694
0.000470666
0.000518126
0.000569703
0.000624978
0.000683502
0.000744708
0.00080794
0.000872512
0.000937832
0.00100346
0.00106876
0.00113381
0.0011986
0.00126276
0.00132621
0.00138884
0.00145054
0.00151121
0.00157079
0.00162943
0.00168719
0.00174411
0.00180028
0.00185586
0.00191116
0.00196606
0.00202034
0.00207401
0.00212709
0.00217965