/*--------------------------------*- C++ -*----------------------------------*\
  =========                 |
  \\      /  F ield         | OpenFOAM: The Open Source CFD Toolbox
   \\    /   O peration     | Website:  https://openfoam.org
    \\  /    A nd           | Version:  8
     \\/     M anipulation  |
\*---------------------------------------------------------------------------*/
FoamFile
{
    version     2.0;
    format      ascii;
    class       volScalarField;
    location    "600";
    object      p;
}
// * * * * * * * * * * * * * * * * * * * * * * * * * * * * * * * * * * * * * //

dimensions      [0 2 -2 0 0 0 0];

internalField   nonuniform List<scalar> 
12225
(
-4.23161
-5.10823
-5.49418
-5.61448
-5.74248
-5.89111
-6.01598
-6.11508
-6.20214
-6.2817
-6.35273
-6.41646
-6.4816
-6.55046
-6.62108
-6.69754
-6.79033
-6.89069
-4.49586
-5.13525
-5.46889
-5.58657
-5.71214
-5.8552
-5.9762
-6.07721
-6.16513
-6.24778
-6.32372
-6.39099
-6.45604
-6.52489
-6.60035
-6.67578
-6.75311
-6.82414
-4.69413
-5.14067
-5.4535
-5.59339
-5.72105
-5.85816
-5.97675
-6.07641
-6.16391
-6.24552
-6.32022
-6.38783
-6.45285
-6.51945
-6.58912
-6.65781
-6.72523
-6.78332
-4.8406
-5.1669
-5.46092
-5.60977
-5.73061
-5.85793
-5.97171
-6.06863
-6.15478
-6.2349
-6.30889
-6.37661
-6.44114
-6.50591
-6.57182
-6.63635
-6.69796
-6.75116
-4.97876
-5.21841
-5.47929
-5.627
-5.74232
-5.86219
-5.97206
-6.06694
-6.15159
-6.22993
-6.30259
-6.36963
-6.43338
-6.49634
-6.55901
-6.61967
-6.67642
-6.72523
-5.10243
-5.27636
-5.49908
-5.64326
-5.75545
-5.86899
-5.9746
-6.06701
-6.14971
-6.22613
-6.29725
-6.36335
-6.4261
-6.48713
-6.54675
-6.60366
-6.65618
-6.70149
-5.21076
-5.33549
-5.52182
-5.65982
-5.76866
-5.87585
-5.9767
-6.06634
-6.14704
-6.2217
-6.29136
-6.35641
-6.41795
-6.47704
-6.53382
-6.58735
-6.63634
-6.679
-5.29228
-5.38654
-5.54485
-5.67472
-5.77971
-5.88152
-5.97813
-6.0652
-6.14411
-6.21724
-6.28557
-6.34952
-6.40983
-6.46722
-6.52173
-6.57269
-6.61918
-6.65997
-5.35791
-5.43194
-5.56728
-5.68862
-5.78971
-5.88671
-5.97941
-6.06403
-6.1412
-6.21284
-6.27988
-6.34269
-6.4018
-6.45766
-6.51027
-6.55918
-6.60375
-6.64314
-5.42308
-5.48071
-5.59377
-5.70489
-5.8011
-5.89281
-5.98105
-6.06274
-6.1378
-6.20766
-6.27312
-6.33452
-6.39218
-6.44638
-6.4971
-6.54403
-6.58684
-6.62493
-5.48697
-5.53159
-5.62425
-5.72383
-5.81407
-5.90006
-5.98333
-6.06155
-6.1341
-6.20183
-6.26541
-6.32511
-6.38109
-6.4335
-6.48233
-6.52741
-6.56857
-6.60545
-5.54847
-5.58307
-5.65801
-5.74535
-5.8286
-5.90853
-5.98644
-6.06068
-6.13028
-6.19555
-6.25695
-6.31465
-6.36874
-6.41927
-6.46623
-6.50955
-6.54918
-6.58493
-5.60638
-5.63342
-5.69365
-5.76887
-5.84438
-5.91804
-5.99038
-6.06023
-6.12647
-6.18896
-6.24791
-6.30339
-6.35542
-6.404
-6.44912
-6.49076
-6.52897
-6.56364
-5.65927
-5.68066
-5.72917
-5.79322
-5.86075
-5.92807
-5.99483
-6.06008
-6.12268
-6.18215
-6.23845
-6.29157
-6.34144
-6.38805
-6.43137
-6.47144
-6.50831
-6.54198
-5.70516
-5.72243
-5.76201
-5.81649
-5.87643
-5.93766
-5.99911
-6.05983
-6.11871
-6.17509
-6.22869
-6.2794
-6.32712
-6.3718
-6.41342
-6.45202
-6.48769
-6.52045
-5.74135
-5.75573
-5.78892
-5.83596
-5.88944
-5.94532
-6.0021
-6.05873
-6.11415
-6.16759
-6.21864
-6.26708
-6.31279
-6.3557
-6.39578
-6.43308
-6.46768
-6.49965
-5.76395
-5.77653
-5.80574
-5.84788
-5.89681
-5.94874
-6.00202
-6.05552
-6.1082
-6.15926
-6.20821
-6.25478
-6.29882
-6.34025
-6.37907
-6.41532
-6.44906
-6.4804
-5.76684
-5.77887
-5.80689
-5.84746
-5.89475
-5.94511
-5.99691
-6.049
-6.10038
-6.15021
-6.19802
-6.24352
-6.28657
-6.32712
-6.36516
-6.40074
-6.43393
-6.46487
-5.74968
-5.76246
-5.7921
-5.83451
-5.88324
-5.93463
-5.98715
-6.0398
-6.0915
-6.14148
-6.18926
-6.23463
-6.27749
-6.31778
-6.35556
-6.39088
-6.42385
-6.45462
-5.71757
-5.73224
-5.76602
-5.81311
-5.86567
-5.91997
-5.9749
-6.02954
-6.0828
-6.13389
-6.18246
-6.22838
-6.27157
-6.31206
-6.34991
-6.38524
-6.41818
-6.44891
-5.67357
-5.69154
-5.7322
-5.78656
-5.84465
-5.90314
-5.96167
-6.01934
-6.07492
-6.12774
-6.1776
-6.22447
-6.26832
-6.30924
-6.34734
-6.3828
-6.41578
-6.44652
-5.6195
-5.64266
-5.69356
-5.75753
-5.82219
-5.88565
-5.94862
-6.00999
-6.06836
-6.12324
-6.17467
-6.22268
-6.26734
-6.30877
-6.34718
-6.38278
-6.4158
-6.44651
-5.55615
-5.58749
-5.65281
-5.72824
-5.79974
-5.86863
-5.93664
-6.00207
-6.06337
-6.1204
-6.17345
-6.22265
-6.26812
-6.31005
-6.34873
-6.38444
-6.41745
-6.44808
-5.48359
-5.52786
-5.61273
-5.70043
-5.77815
-5.85271
-5.92623
-5.99579
-6.05988
-6.11897
-6.17359
-6.22392
-6.27009
-6.31243
-6.35129
-6.38702
-6.41995
-6.45048
-5.40119
-5.46522
-5.57579
-5.67529
-5.75775
-5.83792
-5.91719
-5.99078
-6.05754
-6.11859
-6.17472
-6.22605
-6.27283
-6.31542
-6.35431
-6.3899
-6.42263
-6.45296
-5.3086
-5.40027
-5.54202
-5.65224
-5.73844
-5.82417
-5.909
-5.98634
-6.05562
-6.11869
-6.17637
-6.22879
-6.27619
-6.31906
-6.3579
-6.39331
-6.42576
-6.45597
-5.20528
-5.33698
-5.50867
-5.62643
-5.71831
-5.81185
-5.90267
-5.98353
-6.05509
-6.11992
-6.17884
-6.23201
-6.27975
-6.32259
-6.36111
-6.39604
-6.42803
-6.45782
-5.07711
-5.29155
-5.48515
-5.59774
-5.69442
-5.79876
-5.89758
-5.98344
-6.05872
-6.12649
-6.18753
-6.24207
-6.29054
-6.33351
-6.37163
-6.4059
-6.4374
-6.46738
-4.87512
-5.2639
-5.49457
-5.59159
-5.68307
-5.79082
-5.89219
-5.97919
-6.05563
-6.12485
-6.18737
-6.24318
-6.29264
-6.33633
-6.37475
-6.40853
-6.43894
-6.46729
-4.60782
-5.18373
-5.48315
-5.59238
-5.69195
-5.80783
-5.91453
-6.00414
-6.08188
-6.15188
-6.21495
-6.27093
-6.32014
-6.36333
-6.40087
-6.43228
-6.45833
-6.47943
-7.42855
-7.42866
-7.42871
-7.42869
-7.42838
-7.42712
-7.42451
-7.42104
-7.41775
-7.41568
-7.41585
-7.41847
-7.42298
-7.4286
-7.43452
-7.44003
-7.44458
-7.44773
-7.44945
-7.45009
-7.44994
-7.44921
-7.44815
-7.44704
-7.44615
-7.4456
-7.44533
-7.44519
-7.44499
-7.44462
-7.44408
-7.44337
-7.44244
-7.44119
-7.43971
-7.43826
-7.4375
-7.43812
-7.44021
-7.44308
-7.44582
-7.44793
-7.44962
-7.45133
-7.4535
-7.45663
-7.46035
-7.46354
-7.46587
-7.46963
-7.47883
-7.49744
-7.52503
-7.56003
-7.60246
-7.65416
-7.71489
-7.78238
-7.85468
-7.92938
-8.00441
-8.07844
-8.15022
-8.2183
-8.2819
-8.34071
-8.39456
-8.44342
-8.48735
-8.52644
-8.56082
-8.59056
-8.61578
-8.63652
-8.65285
-8.66477
-8.67231
-8.67545
-8.67416
-8.66841
-8.65815
-8.64334
-8.62391
-8.59984
-8.57103
-8.5375
-8.4991
-8.45577
-8.40733
-8.3537
-8.29488
-8.23079
-8.16138
-8.08656
-8.00626
-7.92042
-7.82905
-7.73227
-7.63002
-7.52194
-7.40754
-7.28686
-7.16004
-7.02713
-6.8881
-6.74298
-6.59175
-6.43446
-6.27111
-6.10178
-5.92652
-5.74541
-5.55856
-5.36608
-5.16812
-4.9648
-4.75631
-4.54281
-4.3245
-4.10158
-3.87427
-3.64278
-3.40737
-3.16825
-2.9257
-2.67994
-2.43127
-2.17992
-1.92621
-1.67042
-1.41283
-1.15366
-0.89318
-0.631695
-0.369617
-0.107188
0.155653
0.418831
0.681954
0.94476
1.20697
1.46837
1.72875
1.98795
2.24581
2.50219
2.75699
3.01007
3.26132
3.5106
3.75781
4.00284
4.24558
4.48594
4.72385
4.95924
5.19205
5.42222
5.64972
5.87451
6.09654
6.31578
6.53217
6.74565
6.95617
7.16366
7.36806
7.56929
7.76731
7.96201
8.15332
8.34113
8.52532
8.70578
8.8824
9.05516
9.22438
9.38979
9.55462
9.71008
-7.42981
-7.43
-7.43037
-7.43076
-7.43076
-7.42991
-7.42792
-7.42538
-7.42358
-7.42351
-7.42547
-7.42927
-7.43438
-7.44013
-7.44586
-7.45108
-7.45539
-7.4586
-7.46051
-7.4609
-7.45987
-7.45776
-7.45501
-7.45212
-7.44953
-7.44753
-7.44617
-7.44528
-7.44459
-7.44394
-7.44332
-7.4427
-7.44202
-7.44117
-7.44013
-7.4393
-7.43942
-7.44101
-7.44383
-7.44689
-7.44901
-7.44983
-7.4498
-7.44894
-7.44747
-7.44706
-7.45023
-7.45704
-7.46378
-7.47096
-7.48202
-7.49806
-7.52086
-7.554
-7.60025
-7.65802
-7.72417
-7.79646
-7.87222
-7.94911
-8.02547
-8.09949
-8.1693
-8.23447
-8.29503
-8.3508
-8.40183
-8.44815
-8.4899
-8.52714
-8.55999
-8.58852
-8.61277
-8.63277
-8.64855
-8.66009
-8.66739
-8.6704
-8.66908
-8.66339
-8.65327
-8.63865
-8.61949
-8.59572
-8.56729
-8.53416
-8.49624
-8.45343
-8.40559
-8.35265
-8.29458
-8.23131
-8.16278
-8.08889
-8.00957
-7.92471
-7.83421
-7.73787
-7.63556
-7.52729
-7.41326
-7.2934
-7.16756
-7.03567
-6.8977
-6.75363
-6.60348
-6.44725
-6.28498
-6.1167
-5.9425
-5.76243
-5.57661
-5.38515
-5.18817
-4.98582
-4.77827
-4.56569
-4.34826
-4.12619
-3.8997
-3.669
-3.43433
-3.19593
-2.95404
-2.70891
-2.46081
-2.21
-1.95677
-1.70141
-1.44417
-1.18529
-0.92497
-0.663461
-0.401043
-0.138036
0.125105
0.38822
0.651285
0.914049
1.17625
1.43767
1.6981
1.95738
2.21534
2.47186
2.72681
2.98006
3.23149
3.48097
3.72839
3.97364
4.21662
4.45724
4.69542
4.93107
5.16415
5.3946
5.62238
5.84745
6.06976
6.28928
6.50596
6.71973
6.93055
7.13834
7.34305
7.5446
7.74294
7.93798
8.12965
8.31785
8.50254
8.68358
8.86089
9.03435
9.20413
9.36979
9.53671
9.69143
-7.43114
-7.43113
-7.43116
-7.43125
-7.43134
-7.43138
-7.43163
-7.43261
-7.43481
-7.43838
-7.4431
-7.44861
-7.45445
-7.46018
-7.46542
-7.46987
-7.4733
-7.47561
-7.47671
-7.47656
-7.47517
-7.47268
-7.46926
-7.46513
-7.46054
-7.45579
-7.45118
-7.44699
-7.44343
-7.4406
-7.43842
-7.43669
-7.43512
-7.43376
-7.43309
-7.43381
-7.43647
-7.44076
-7.44526
-7.44805
-7.44779
-7.4455
-7.44334
-7.44284
-7.44348
-7.44526
-7.45079
-7.46132
-7.47614
-7.49585
-7.52122
-7.55238
-7.58994
-7.6347
-7.68681
-7.74497
-7.80734
-7.87245
-7.93879
-8.00515
-8.07061
-8.13424
-8.19514
-8.25278
-8.30695
-8.35743
-8.40412
-8.44696
-8.48592
-8.52097
-8.55211
-8.57933
-8.60259
-8.62188
-8.63716
-8.64838
-8.6555
-8.65847
-8.65721
-8.65168
-8.64179
-8.62749
-8.6087
-8.58536
-8.55742
-8.52481
-8.48746
-8.44527
-8.39813
-8.34594
-8.28868
-8.22627
-8.15864
-8.08572
-8.00743
-7.92368
-7.83438
-7.73934
-7.63839
-7.53147
-7.4187
-7.30006
-7.17547
-7.04486
-6.90821
-6.76548
-6.61667
-6.46179
-6.30087
-6.13395
-5.96108
-5.78235
-5.59784
-5.40768
-5.21197
-5.01088
-4.80454
-4.59316
-4.37689
-4.15595
-3.93054
-3.70089
-3.46722
-3.22978
-2.9888
-2.74454
-2.49725
-2.24722
-1.9947
-1.74001
-1.48337
-1.22503
-0.965216
-0.704212
-0.442287
-0.179742
0.0830651
0.345942
0.608788
0.871354
1.1334
1.39469
1.65503
1.91426
2.17221
2.42875
2.68374
2.93705
3.18856
3.43813
3.68567
3.93105
4.17418
4.41495
4.6533
4.88913
5.1224
5.35303
5.58099
5.80622
6.02871
6.24839
6.46522
6.67914
6.89011
7.09804
7.30288
7.50455
7.70301
7.89815
8.08992
8.27821
8.46292
8.64397
8.82139
8.99513
9.16575
9.33207
9.50168
9.65216
-7.4323
-7.43201
-7.43163
-7.43166
-7.43291
-7.43579
-7.44007
-7.44537
-7.45133
-7.45765
-7.46402
-7.47017
-7.47588
-7.48097
-7.48524
-7.48858
-7.49086
-7.49204
-7.49207
-7.49093
-7.48864
-7.48526
-7.48089
-7.47562
-7.46955
-7.4628
-7.45559
-7.4482
-7.44102
-7.43441
-7.42865
-7.42395
-7.42062
-7.41915
-7.4203
-7.42428
-7.42995
-7.43524
-7.43865
-7.43984
-7.43939
-7.43898
-7.44018
-7.44378
-7.45028
-7.46046
-7.47517
-7.49512
-7.52041
-7.55065
-7.58537
-7.62427
-7.66717
-7.71391
-7.76429
-7.81779
-7.87372
-7.93132
-7.98975
-8.04822
-8.10602
-8.16246
-8.21699
-8.26914
-8.31858
-8.36507
-8.40843
-8.44852
-8.48523
-8.51848
-8.5482
-8.5743
-8.59672
-8.61538
-8.63023
-8.64118
-8.64816
-8.65109
-8.64991
-8.64453
-8.63488
-8.62087
-8.60245
-8.57952
-8.55204
-8.51994
-8.48314
-8.44156
-8.39507
-8.34362
-8.28713
-8.22554
-8.15876
-8.08671
-8.00931
-7.92646
-7.83805
-7.74397
-7.64409
-7.53837
-7.4268
-7.30935
-7.18596
-7.05658
-6.92116
-6.77968
-6.63213
-6.47851
-6.31885
-6.15318
-5.98156
-5.80406
-5.62077
-5.4318
-5.23727
-5.03733
-4.83212
-4.62183
-4.40663
-4.18673
-3.96232
-3.73363
-3.50089
-3.26433
-3.0242
-2.78075
-2.53422
-2.28491
-2.03307
-1.77899
-1.52291
-1.26508
-1.00574
-0.745194
-0.483722
-0.221615
0.0408623
0.303505
0.566143
0.82852
1.0904
1.35157
1.61183
1.871
2.12894
2.38548
2.6405
2.89386
3.14543
3.39509
3.64272
3.88821
4.13146
4.37237
4.61085
4.84683
5.08025
5.31103
5.53914
5.76453
5.98715
6.20697
6.42393
6.63798
6.84906
7.0571
7.26203
7.46378
7.6623
7.8575
8.04932
8.23767
8.42247
8.60366
8.78126
8.95524
9.12628
9.29256
9.46281
9.60683
-7.43469
-7.43408
-7.43369
-7.43523
-7.43968
-7.44629
-7.45391
-7.46185
-7.46962
-7.4769
-7.48352
-7.48944
-7.4946
-7.49892
-7.50233
-7.50473
-7.50607
-7.50629
-7.50536
-7.50326
-7.5
-7.49562
-7.49015
-7.48367
-7.47623
-7.46789
-7.45876
-7.44906
-7.43912
-7.42944
-7.42067
-7.41365
-7.40937
-7.40882
-7.41191
-7.4167
-7.4215
-7.42558
-7.42881
-7.43165
-7.43489
-7.43971
-7.44711
-7.45813
-7.47359
-7.49376
-7.51817
-7.54627
-7.57781
-7.61242
-7.64984
-7.69004
-7.73297
-7.77856
-7.82658
-7.87663
-7.92824
-7.98085
-8.0339
-8.08683
-8.13912
-8.19029
-8.2399
-8.28761
-8.33313
-8.3762
-8.41664
-8.45425
-8.4889
-8.52045
-8.54877
-8.57377
-8.59531
-8.61331
-8.62765
-8.63825
-8.64499
-8.6478
-8.64658
-8.64125
-8.63171
-8.6179
-8.59971
-8.57709
-8.54996
-8.51824
-8.48189
-8.4408
-8.39487
-8.34401
-8.28818
-8.22729
-8.16125
-8.08999
-8.01339
-7.93137
-7.84379
-7.7506
-7.65166
-7.54695
-7.4364
-7.31999
-7.19762
-7.06928
-6.93489
-6.79446
-6.64794
-6.49536
-6.33672
-6.17207
-6.00146
-5.82495
-5.64263
-5.4546
-5.261
-5.06195
-4.85763
-4.64817
-4.4338
-4.21468
-3.99105
-3.76308
-3.53105
-3.29516
-3.05567
-2.81282
-2.56688
-2.3181
-2.06677
-1.81315
-1.55749
-1.30003
-1.04104
-0.780823
-0.519674
-0.257845
0.00440072
0.266867
0.52933
0.791555
1.0533
1.31435
1.57453
1.83365
2.09156
2.34809
2.60312
2.85651
3.10812
3.35782
3.6055
3.85106
4.09438
4.33538
4.57395
4.81004
5.04355
5.27444
5.50266
5.72816
5.95089
6.17082
6.38789
6.60204
6.81321
7.02134
7.22637
7.42822
7.62684
7.82214
8.01405
8.20251
8.38743
8.56875
8.74647
8.92049
9.09145
9.257
9.4266
9.56365
-7.43911
-7.43818
-7.43877
-7.44352
-7.45132
-7.46015
-7.46908
-7.47762
-7.48547
-7.49255
-7.49887
-7.5044
-7.5091
-7.51289
-7.51569
-7.51744
-7.51808
-7.51759
-7.51594
-7.51311
-7.50912
-7.50398
-7.49773
-7.49034
-7.48183
-7.4723
-7.46188
-7.45078
-7.43939
-7.42837
-7.4186
-7.41137
-7.40773
-7.40747
-7.40913
-7.41155
-7.41471
-7.41897
-7.42464
-7.43165
-7.44028
-7.45182
-7.46728
-7.48673
-7.5099
-7.5364
-7.56591
-7.59804
-7.63255
-7.66926
-7.70801
-7.74873
-7.79129
-7.83559
-7.88141
-7.92848
-7.97646
-8.02498
-8.07368
-8.12218
-8.1701
-8.21709
-8.26281
-8.30698
-8.34933
-8.38961
-8.42761
-8.46315
-8.49604
-8.52611
-8.55322
-8.57722
-8.59796
-8.61532
-8.62917
-8.63938
-8.64585
-8.64848
-8.64716
-8.64179
-8.63228
-8.61855
-8.60051
-8.57807
-8.55118
-8.51975
-8.48372
-8.44301
-8.39749
-8.34713
-8.29182
-8.23151
-8.16609
-8.09547
-8.01954
-7.93821
-7.85136
-7.75891
-7.66077
-7.55688
-7.44717
-7.33158
-7.21006
-7.08254
-6.94898
-6.80936
-6.66366
-6.51187
-6.35402
-6.19014
-6.02027
-5.84449
-5.66287
-5.47553
-5.28258
-5.08417
-4.88045
-4.67159
-4.45777
-4.2392
-4.01607
-3.7886
-3.55703
-3.32158
-3.08251
-2.84005
-2.59448
-2.34606
-2.09506
-1.84173
-1.58632
-1.3291
-1.07034
-0.810352
-0.54941
-0.287762
-0.0256627
0.236675
0.49901
0.76111
1.02274
1.2837
1.54379
1.80285
2.06071
2.31722
2.57223
2.8256
3.07719
3.32689
3.57458
3.82014
4.06347
4.30448
4.54307
4.77918
5.01272
5.24364
5.4719
5.69743
5.92021
6.14018
6.3573
6.5715
6.78273
6.99091
7.196
7.39791
7.59659
7.79195
7.98393
8.17245
8.35742
8.53878
8.71649
8.89035
9.06095
9.22545
9.39415
9.52443
-7.44453
-7.44412
-7.44706
-7.45463
-7.46379
-7.47288
-7.48154
-7.48961
-7.49706
-7.50384
-7.50989
-7.51514
-7.51951
-7.52293
-7.52532
-7.52663
-7.52682
-7.52586
-7.52373
-7.52043
-7.51598
-7.51039
-7.50357
-7.49546
-7.48621
-7.47601
-7.46509
-7.4537
-7.44234
-7.4318
-7.42327
-7.4175
-7.41398
-7.41181
-7.41105
-7.41217
-7.4158
-7.42182
-7.43015
-7.44148
-7.45633
-7.47467
-7.49629
-7.52095
-7.5484
-7.57828
-7.61038
-7.64453
-7.68055
-7.71826
-7.7575
-7.79811
-7.83998
-7.88297
-7.92691
-7.97161
-8.01683
-8.06234
-8.10787
-8.15316
-8.19791
-8.24184
-8.28471
-8.32623
-8.36618
-8.40433
-8.44046
-8.47437
-8.50586
-8.53475
-8.56086
-8.58402
-8.60408
-8.62087
-8.63426
-8.64411
-8.6503
-8.65271
-8.65123
-8.64576
-8.63621
-8.62248
-8.60449
-8.58215
-8.55539
-8.52414
-8.48834
-8.44789
-8.4027
-8.35268
-8.29779
-8.23793
-8.173
-8.10288
-8.0275
-7.94672
-7.86047
-7.76862
-7.67113
-7.56789
-7.45885
-7.34391
-7.22304
-7.09615
-6.96323
-6.82422
-6.67912
-6.52791
-6.37063
-6.20728
-6.03793
-5.86264
-5.68149
-5.49459
-5.30206
-5.10404
-4.90068
-4.69218
-4.47869
-4.26043
-4.03759
-3.8104
-3.57908
-3.34388
-3.10502
-2.86279
-2.61741
-2.36919
-2.11835
-1.86516
-1.60987
-1.35277
-1.09414
-0.834289
-0.573461
-0.311925
-0.0499084
0.212335
0.47458
0.736577
0.998116
1.25898
1.519
1.77799
2.03579
2.29224
2.5472
2.80051
3.05205
3.30169
3.54933
3.79485
4.03813
4.27908
4.51763
4.75367
4.98717
5.21805
5.44626
5.67177
5.89453
6.11449
6.33161
6.5458
6.75702
6.96521
7.17029
7.37222
7.57091
7.76629
7.9583
8.14683
8.3318
8.51311
8.69069
8.86428
9.03438
9.19775
9.36559
9.48962
-7.44872
-7.44966
-7.45537
-7.46402
-7.47281
-7.48125
-7.48932
-7.49697
-7.50412
-7.51068
-7.51654
-7.5216
-7.52578
-7.52899
-7.53116
-7.53225
-7.5322
-7.531
-7.52863
-7.52511
-7.52044
-7.51453
-7.5073
-7.49892
-7.48963
-7.47958
-7.46902
-7.45838
-7.44844
-7.43993
-7.43316
-7.42752
-7.42256
-7.41906
-7.4179
-7.41941
-7.4241
-7.43248
-7.44458
-7.46028
-7.47927
-7.50132
-7.52618
-7.55355
-7.58319
-7.61488
-7.6484
-7.6836
-7.72028
-7.75828
-7.79746
-7.83769
-7.87884
-7.92077
-7.96334
-8.00639
-8.04975
-8.09324
-8.13664
-8.17975
-8.22233
-8.26418
-8.30505
-8.34472
-8.38298
-8.4196
-8.45437
-8.48709
-8.51755
-8.54555
-8.5709
-8.59341
-8.61291
-8.62924
-8.64223
-8.65175
-8.65765
-8.65982
-8.65816
-8.65254
-8.64289
-8.62909
-8.61107
-8.58874
-8.56202
-8.53086
-8.49517
-8.45489
-8.4099
-8.36016
-8.30556
-8.24604
-8.18147
-8.11176
-8.03679
-7.95646
-7.87066
-7.77932
-7.68232
-7.57959
-7.47104
-7.35661
-7.23622
-7.10982
-6.97735
-6.83878
-6.69409
-6.54328
-6.38636
-6.22336
-6.05433
-5.87933
-5.69845
-5.51178
-5.31946
-5.12163
-4.91845
-4.7101
-4.49675
-4.27861
-4.05588
-3.82879
-3.59756
-3.36243
-3.12364
-2.88147
-2.63616
-2.38798
-2.13718
-1.88401
-1.62873
-1.37167
-1.11309
-0.853284
-0.592505
-0.331013
-0.0690411
0.193146
0.455321
0.71724
0.978701
1.23949
1.49944
1.75835
2.01608
2.27245
2.52733
2.78056
3.03201
3.28156
3.52911
3.77453
4.01771
4.25855
4.49698
4.73291
4.9663
5.19708
5.4252
5.65063
5.87332
6.09322
6.31028
6.52442
6.73558
6.94372
7.14877
7.35066
7.54933
7.74471
7.9367
8.12521
8.31014
8.49135
8.66876
8.84201
9.01155
9.17379
9.34086
9.45928
-7.44995
-7.45265
-7.45994
-7.46825
-7.47634
-7.48425
-7.49197
-7.49938
-7.50638
-7.51284
-7.51864
-7.52366
-7.5278
-7.53099
-7.53314
-7.5342
-7.53416
-7.53296
-7.53061
-7.5271
-7.52237
-7.51636
-7.50917
-7.50106
-7.49221
-7.48289
-7.47352
-7.46462
-7.45655
-7.44931
-7.4427
-7.43661
-7.43148
-7.42832
-7.42802
-7.43115
-7.43809
-7.44891
-7.46332
-7.48115
-7.50211
-7.52591
-7.55229
-7.58097
-7.6117
-7.64428
-7.6785
-7.71416
-7.75111
-7.78918
-7.82825
-7.86818
-7.90882
-7.95006
-7.99176
-8.03379
-8.076
-8.11824
-8.16032
-8.20207
-8.24331
-8.28383
-8.32344
-8.36194
-8.39911
-8.43476
-8.46866
-8.5006
-8.53037
-8.55776
-8.58257
-8.60461
-8.62369
-8.63964
-8.65229
-8.66149
-8.66711
-8.66903
-8.66714
-8.66134
-8.65153
-8.6376
-8.61947
-8.59706
-8.5703
-8.53912
-8.50348
-8.46328
-8.41843
-8.36884
-8.31447
-8.25519
-8.19088
-8.12147
-8.04681
-7.96682
-7.88137
-7.7904
-7.69376
-7.59142
-7.48324
-7.36918
-7.24914
-7.12307
-6.99091
-6.85264
-6.70821
-6.55764
-6.40093
-6.23812
-6.06925
-5.89438
-5.71359
-5.52699
-5.33472
-5.13691
-4.93374
-4.72538
-4.51202
-4.29385
-4.07109
-3.84394
-3.61267
-3.37747
-3.13864
-2.8964
-2.65104
-2.4028
-2.15194
-1.89869
-1.64337
-1.38627
-1.12768
-0.867858
-0.607085
-0.345587
-0.0836426
0.178514
0.440625
0.702483
0.963865
1.22458
1.48444
1.74327
2.0009
2.25718
2.51195
2.76506
3.01638
3.2658
3.51322
3.75851
4.00155
4.24224
4.4805
4.71627
4.9495
5.18012
5.4081
5.6334
5.85599
6.0758
6.29275
6.5068
6.71788
6.92594
7.13092
7.33276
7.53139
7.72674
7.9187
8.10716
8.29201
8.4731
8.6503
8.82316
8.99212
9.15329
9.31966
9.43319
-7.44665
-7.45078
-7.4582
-7.46593
-7.47368
-7.4814
-7.48901
-7.49639
-7.50343
-7.50998
-7.51592
-7.52111
-7.52545
-7.52883
-7.53118
-7.53245
-7.53258
-7.53154
-7.52932
-7.52591
-7.52128
-7.51547
-7.50868
-7.50118
-7.49325
-7.4852
-7.47728
-7.46956
-7.46213
-7.45509
-7.44862
-7.44308
-7.43912
-7.43753
-7.43891
-7.44366
-7.45203
-7.46407
-7.4796
-7.49844
-7.52032
-7.54495
-7.57204
-7.60133
-7.6326
-7.66561
-7.70018
-7.7361
-7.77323
-7.8114
-7.85047
-7.89029
-7.93072
-7.97166
-8.01297
-8.05451
-8.09617
-8.13778
-8.1792
-8.22027
-8.26082
-8.30067
-8.33964
-8.37753
-8.41415
-8.44928
-8.48272
-8.51424
-8.54361
-8.57063
-8.59507
-8.61676
-8.63551
-8.65113
-8.66345
-8.67234
-8.67768
-8.67933
-8.6772
-8.67118
-8.66116
-8.64706
-8.62878
-8.60623
-8.57935
-8.5481
-8.51242
-8.47223
-8.42743
-8.37795
-8.32371
-8.26458
-8.20047
-8.13125
-8.05682
-7.97706
-7.89188
-7.80116
-7.70482
-7.60274
-7.49484
-7.38103
-7.26123
-7.13538
-7.00342
-6.86531
-6.72103
-6.57058
-6.41396
-6.2512
-6.08236
-5.90749
-5.72667
-5.54001
-5.34765
-5.14974
-4.94646
-4.73797
-4.52448
-4.30617
-4.08326
-3.85597
-3.62454
-3.3892
-3.15021
-2.90784
-2.66235
-2.41397
-2.16297
-1.90959
-1.65417
-1.397
-1.13835
-0.878481
-0.61767
-0.356156
-0.0942185
0.167905
0.429966
0.691761
0.953068
1.2137
1.47347
1.7322
1.98972
2.24587
2.5005
2.75346
3.00462
3.25388
3.50115
3.74628
3.98913
4.22961
4.46766
4.70322
4.93623
5.16666
5.39446
5.61959
5.84203
6.06172
6.27855
6.49247
6.70343
6.91138
7.11627
7.31803
7.51661
7.71191
7.90383
8.09222
8.27697
8.4579
8.63485
8.80731
8.97568
9.13583
9.30154
9.41095
-7.43678
-7.44155
-7.44865
-7.45635
-7.4643
-7.47221
-7.48
-7.48759
-7.49487
-7.50173
-7.508
-7.51353
-7.51821
-7.52191
-7.52456
-7.5261
-7.52648
-7.52569
-7.52372
-7.52058
-7.51634
-7.51113
-7.50513
-7.49856
-7.49155
-7.48427
-7.47689
-7.46953
-7.46235
-7.45564
-7.44984
-7.4454
-7.44278
-7.44256
-7.44524
-7.45118
-7.46058
-7.47347
-7.48975
-7.50922
-7.53163
-7.55671
-7.5842
-7.61384
-7.64544
-7.67876
-7.71361
-7.74982
-7.78721
-7.8256
-7.86484
-7.90481
-7.94535
-7.98636
-8.02769
-8.06921
-8.11081
-8.15233
-8.19363
-8.23458
-8.275
-8.3147
-8.35351
-8.39124
-8.42769
-8.46265
-8.4959
-8.52723
-8.55641
-8.58322
-8.60744
-8.62888
-8.64736
-8.66269
-8.6747
-8.68328
-8.6883
-8.68967
-8.68726
-8.68099
-8.67074
-8.65642
-8.63792
-8.61517
-8.58811
-8.55672
-8.52095
-8.48071
-8.43592
-8.38646
-8.33229
-8.27325
-8.20925
-8.14016
-8.0659
-7.98631
-7.90132
-7.81079
-7.71465
-7.61275
-7.50506
-7.39141
-7.27179
-7.14606
-7.01422
-6.87619
-6.73197
-6.58154
-6.42493
-6.26214
-6.09324
-5.91828
-5.73735
-5.55053
-5.35798
-5.15989
-4.95641
-4.74775
-4.53405
-4.31554
-4.09241
-3.86492
-3.63327
-3.39773
-3.15855
-2.916
-2.67032
-2.42178
-2.1706
-1.91707
-1.66151
-1.40425
-1.14552
-0.8856
-0.624741
-0.363226
-0.101295
0.160779
0.42279
0.684506
0.945732
1.20626
1.46593
1.72454
1.98194
2.23794
2.4924
2.74517
2.99613
3.24519
3.49228
3.73722
3.97984
4.22007
4.45787
4.69317
4.92594
5.15614
5.38372
5.60865
5.83094
6.05049
6.26717
6.48094
6.69176
6.89959
7.10437
7.30604
7.50456
7.69983
7.89169
8.08
8.26463
8.44539
8.62206
8.79411
8.96192
9.12112
9.28619
9.39223
-7.41869
-7.42344
-7.43071
-7.43921
-7.44786
-7.45626
-7.4644
-7.47233
-7.48003
-7.48736
-7.49413
-7.50015
-7.50525
-7.50936
-7.51241
-7.51433
-7.51511
-7.51474
-7.51323
-7.51063
-7.50699
-7.50244
-7.49709
-7.49109
-7.48457
-7.47767
-7.47054
-7.46341
-7.45661
-7.45049
-7.4454
-7.44179
-7.44016
-7.44101
-7.44476
-7.4517
-7.462
-7.47565
-7.49256
-7.51253
-7.53535
-7.56078
-7.58858
-7.61855
-7.65048
-7.68415
-7.71938
-7.75597
-7.79374
-7.83253
-7.87219
-7.91257
-7.95355
-7.99498
-8.03671
-8.0786
-8.12052
-8.16235
-8.20394
-8.24512
-8.28576
-8.32566
-8.36466
-8.40256
-8.43915
-8.47421
-8.50752
-8.53886
-8.568
-8.5947
-8.61876
-8.63999
-8.65821
-8.67323
-8.68489
-8.69308
-8.69771
-8.6987
-8.69596
-8.68939
-8.67887
-8.66429
-8.64553
-8.6225
-8.59518
-8.56358
-8.5277
-8.48741
-8.44257
-8.39314
-8.33899
-8.28001
-8.21609
-8.14711
-8.07296
-7.99353
-7.90867
-7.8183
-7.72231
-7.62059
-7.51303
-7.39953
-7.28001
-7.15439
-7.0226
-6.88462
-6.74041
-6.58997
-6.43331
-6.27046
-6.10145
-5.92636
-5.74524
-5.5582
-5.36543
-5.16711
-4.96344
-4.75456
-4.54065
-4.32192
-4.09858
-3.87086
-3.639
-3.40325
-3.16388
-2.92115
-2.67529
-2.42657
-2.17523
-1.92153
-1.66583
-1.40847
-1.14967
-0.889699
-0.628816
-0.367304
-0.105409
0.156612
0.418552
0.680182
0.941306
1.20173
1.46127
1.71974
1.97698
2.2328
2.48707
2.73962
2.99035
3.23919
3.48611
3.73086
3.97321
4.21315
4.45064
4.68566
4.91816
5.14809
5.37543
5.60014
5.82227
6.04167
6.25819
6.47179
6.68244
6.89013
7.09478
7.29637
7.49482
7.69005
7.88187
8.07009
8.25459
8.43515
8.61156
8.78319
8.95045
9.10878
9.2732
9.37662
-7.39201
-7.39659
-7.40482
-7.41476
-7.42443
-7.43339
-7.44196
-7.4504
-7.4588
-7.46691
-7.47442
-7.48107
-7.48674
-7.49135
-7.49489
-7.49733
-7.49865
-7.49883
-7.49789
-7.49584
-7.49277
-7.48873
-7.48384
-7.47818
-7.47191
-7.46518
-7.45825
-7.45141
-7.44494
-7.4392
-7.43463
-7.43172
-7.43093
-7.43271
-7.43741
-7.44524
-7.45633
-7.47065
-7.48809
-7.5085
-7.53168
-7.55745
-7.5856
-7.61594
-7.64829
-7.68244
-7.7182
-7.75535
-7.7937
-7.8331
-7.87338
-7.9144
-7.95601
-7.99806
-8.04042
-8.08293
-8.12548
-8.1679
-8.21005
-8.25177
-8.2929
-8.33327
-8.37271
-8.411
-8.44794
-8.4833
-8.51684
-8.54831
-8.57742
-8.60396
-8.62773
-8.6486
-8.66641
-8.68096
-8.69207
-8.69969
-8.70381
-8.70437
-8.70127
-8.69441
-8.68366
-8.66885
-8.64983
-8.62646
-8.59878
-8.56694
-8.53097
-8.49066
-8.44584
-8.39641
-8.34229
-8.28338
-8.21954
-8.15069
-8.07667
-7.99738
-7.91265
-7.82244
-7.72658
-7.62503
-7.51762
-7.40428
-7.28486
-7.15933
-7.0276
-6.88966
-6.74546
-6.59502
-6.43833
-6.27541
-6.10631
-5.93109
-5.74979
-5.56253
-5.36953
-5.17102
-4.96717
-4.7581
-4.544
-4.32505
-4.10151
-3.87357
-3.64153
-3.4056
-3.16608
-2.92317
-2.67719
-2.42835
-2.17693
-1.92311
-1.66732
-1.40989
-1.15108
-0.891104
-0.630264
-0.368803
-0.107003
0.154924
0.416737
0.678238
0.939212
1.19948
1.45885
1.71714
1.97417
2.22977
2.48378
2.73608
2.98653
3.23518
3.482
3.72659
3.96863
4.20824
4.44542
4.68013
4.91233
5.14199
5.36908
5.59358
5.81558
6.03488
6.25122
6.46462
6.67511
6.88265
7.08719
7.28868
7.48709
7.6823
7.87407
8.0622
8.24656
8.42693
8.60307
8.7743
8.94103
9.09856
9.26228
9.36379
-7.35803
-7.36296
-7.37275
-7.38453
-7.39532
-7.40502
-7.41436
-7.4235
-7.43259
-7.44161
-7.45021
-7.45787
-7.46424
-7.46933
-7.47337
-7.47636
-7.47826
-7.47902
-7.47862
-7.47709
-7.47445
-7.47076
-7.4661
-7.4606
-7.45442
-7.44779
-7.44093
-7.43414
-7.42782
-7.42238
-7.41827
-7.41597
-7.4159
-7.41845
-7.42391
-7.43245
-7.44414
-7.45897
-7.47686
-7.49767
-7.52124
-7.54739
-7.57594
-7.60673
-7.63957
-7.67426
-7.71059
-7.74835
-7.78738
-7.8275
-7.86854
-7.91034
-7.95274
-7.99558
-8.03872
-8.08203
-8.12536
-8.16855
-8.21145
-8.25387
-8.29565
-8.33661
-8.37656
-8.41529
-8.45258
-8.48818
-8.52183
-8.55325
-8.58212
-8.6082
-8.63138
-8.65163
-8.66883
-8.68267
-8.69288
-8.69964
-8.70315
-8.70335
-8.70005
-8.69312
-8.68236
-8.66753
-8.6484
-8.62476
-8.59665
-8.56456
-8.52857
-8.48832
-8.44351
-8.39407
-8.33995
-8.28105
-8.21729
-8.14854
-8.07465
-7.99544
-7.91083
-7.8207
-7.72499
-7.62357
-7.51632
-7.4031
-7.28379
-7.15832
-7.02664
-6.88873
-6.74456
-6.59412
-6.43741
-6.27445
-6.10527
-5.92996
-5.74862
-5.56137
-5.36834
-5.16971
-4.96564
-4.75632
-4.54194
-4.32272
-4.09889
-3.87071
-3.63842
-3.40228
-3.16255
-2.91948
-2.67338
-2.42449
-2.17312
-1.91953
-1.66395
-1.40666
-1.14797
-0.888141
-0.627474
-0.366219
-0.104645
0.157035
0.418583
0.6798
0.94048
1.20044
1.45948
1.71742
1.97408
2.22928
2.48288
2.73473
2.98474
3.23301
3.47961
3.72393
3.96558
4.2048
4.44162
4.67599
4.90789
5.13726
5.36409
5.58837
5.81035
6.02966
6.24584
6.45905
6.66937
6.87676
7.0812
7.28263
7.48103
7.67628
7.86803
8.05606
8.24029
8.42047
8.59633
8.76718
8.9334
9.0902
9.25318
9.35345
-7.31989
-7.32575
-7.33764
-7.35167
-7.36364
-7.37362
-7.38336
-7.39358
-7.40395
-7.41411
-7.42376
-7.43244
-7.43959
-7.44522
-7.44972
-7.45326
-7.45572
-7.457
-7.45708
-7.45594
-7.45358
-7.45007
-7.4455
-7.44
-7.43373
-7.42694
-7.41994
-7.41309
-7.4068
-7.40154
-7.39773
-7.39584
-7.39624
-7.39927
-7.40518
-7.41411
-7.42614
-7.44126
-7.45941
-7.48049
-7.50433
-7.53081
-7.55975
-7.59098
-7.62432
-7.65954
-7.69645
-7.73486
-7.7746
-7.81547
-7.85731
-7.89994
-7.9432
-7.98692
-8.03095
-8.07512
-8.11927
-8.1632
-8.20675
-8.24974
-8.292
-8.33334
-8.37356
-8.41245
-8.4498
-8.48533
-8.51879
-8.54982
-8.578
-8.60306
-8.62513
-8.64443
-8.66083
-8.67373
-8.68249
-8.68777
-8.69043
-8.69028
-8.68704
-8.68038
-8.66998
-8.65552
-8.63685
-8.61396
-8.58691
-8.55565
-8.52005
-8.47993
-8.43515
-8.38564
-8.33146
-8.27251
-8.20874
-8.13998
-8.06609
-7.98685
-7.90222
-7.81209
-7.71641
-7.61501
-7.50781
-7.3946
-7.27532
-7.14983
-7.01814
-6.88018
-6.73597
-6.58545
-6.42866
-6.26558
-6.09628
-5.92085
-5.73944
-5.55218
-5.3591
-5.16033
-4.95603
-4.74645
-4.53179
-4.31229
-4.08818
-3.85974
-3.6272
-3.39085
-3.15091
-2.90771
-2.66148
-2.41258
-2.16127
-1.90792
-1.6526
-1.39553
-1.13703
-0.877435
-0.617011
-0.356055
-0.0947821
0.166551
0.427744
0.68857
0.948846
1.20837
1.46696
1.72442
1.98056
2.23521
2.48821
2.73941
2.98869
3.23595
3.48115
3.72424
3.96515
4.20379
4.44008
4.67397
4.90539
5.13432
5.3607
5.58459
5.80639
6.02563
6.2416
6.4546
6.66475
6.87202
7.07637
7.27776
7.47622
7.67165
7.86346
8.05142
8.23553
8.41554
8.59116
8.76166
8.92741
9.08352
9.24573
9.34541
-7.28133
-7.28846
-7.30292
-7.31891
-7.3312
-7.34164
-7.35248
-7.36385
-7.37529
-7.38648
-7.39714
-7.40675
-7.41467
-7.42092
-7.42602
-7.43015
-7.43317
-7.43495
-7.43543
-7.43457
-7.43237
-7.42887
-7.42417
-7.41841
-7.41182
-7.40466
-7.39729
-7.39012
-7.38357
-7.37812
-7.37419
-7.37221
-7.37254
-7.3755
-7.38132
-7.39016
-7.4021
-7.41714
-7.43524
-7.45633
-7.48028
-7.50698
-7.53627
-7.56795
-7.6018
-7.63761
-7.67516
-7.71428
-7.75478
-7.79647
-7.83914
-7.8826
-7.92666
-7.97115
-8.01588
-8.06068
-8.10536
-8.14973
-8.1936
-8.23681
-8.27917
-8.32049
-8.36059
-8.39927
-8.43632
-8.47149
-8.50449
-8.53484
-8.56176
-8.58473
-8.60441
-8.62196
-8.6376
-8.65066
-8.66047
-8.66671
-8.66958
-8.66937
-8.66611
-8.65951
-8.64923
-8.63491
-8.61651
-8.59431
-8.56827
-8.53778
-8.50249
-8.46246
-8.41768
-8.36821
-8.31403
-8.25512
-8.19135
-8.1226
-8.04869
-7.96949
-7.88491
-7.79488
-7.69929
-7.59801
-7.49089
-7.3778
-7.25859
-7.1332
-7.0016
-6.86373
-6.71957
-6.56909
-6.4123
-6.24922
-6.07988
-5.90439
-5.72288
-5.53548
-5.34229
-5.14342
-4.93906