/*--------------------------------*- C++ -*----------------------------------*\
  =========                 |
  \\      /  F ield         | OpenFOAM: The Open Source CFD Toolbox
   \\    /   O peration     | Website:  https://openfoam.org
    \\  /    A nd           | Version:  8
     \\/     M anipulation  |
\*---------------------------------------------------------------------------*/
FoamFile
{
    version     2.0;
    format      ascii;
    class       surfaceScalarField;
    location    "600";
    object      phi;
}
// * * * * * * * * * * * * * * * * * * * * * * * * * * * * * * * * * * * * * //

dimensions      [0 3 -1 0 0 0 0];

internalField   nonuniform List<scalar> 
24170
(
2.99892e-06
1.34931e-07
2.85432e-06
1.4447e-07
2.72952e-06
1.24787e-07
2.61862e-06
1.10902e-07
2.52176e-06
9.69311e-08
2.43956e-06
8.2355e-08
2.37085e-06
6.88768e-08
2.31402e-06
5.68297e-08
2.26862e-06
4.54139e-08
2.23154e-06
3.70889e-08
2.20156e-06
3.00229e-08
2.17715e-06
2.44959e-08
2.15488e-06
2.23484e-08
2.13545e-06
1.95104e-08
2.12115e-06
1.43723e-08
2.11057e-06
1.062e-08
2.10472e-06
5.89349e-09
-1.9068e-09
2.10664e-06
3.51907e-06
7.23048e-08
3.55494e-06
1.08692e-07
3.56945e-06
1.10397e-07
3.5683e-06
1.12134e-07
3.55537e-06
1.09916e-07
3.53244e-06
1.0535e-07
3.50221e-06
9.91e-08
3.47108e-06
8.78661e-08
3.43981e-06
7.65872e-08
3.40719e-06
6.96213e-08
3.37388e-06
6.32787e-08
3.34133e-06
5.70102e-08
3.31111e-06
5.25358e-08
3.28324e-06
4.73736e-08
3.25744e-06
4.01675e-08
3.23482e-06
3.32595e-08
3.21473e-06
2.60197e-08
1.87883e-08
3.19405e-06
3.8306e-06
5.38716e-08
3.84845e-06
9.07191e-08
3.86373e-06
9.51212e-08
3.87749e-06
9.83917e-08
3.88773e-06
9.97239e-08
3.89463e-06
9.8544e-08
3.89898e-06
9.47942e-08
3.89975e-06
8.70802e-08
3.89725e-06
7.91002e-08
3.89332e-06
7.35701e-08
3.88809e-06
6.85403e-08
3.88162e-06
6.35214e-08
3.87511e-06
5.90795e-08
3.86843e-06
5.40957e-08
3.86074e-06
4.78872e-08
3.85271e-06
4.13235e-08
3.84422e-06
3.45209e-08
2.77464e-08
3.83524e-06
4.21542e-06
4.30032e-08
4.22706e-06
7.91167e-08
4.23599e-06
8.62515e-08
4.24491e-06
8.95241e-08
4.25337e-06
9.1303e-08
4.26113e-06
9.07924e-08
4.26816e-06
8.77128e-08
4.27333e-06
8.18129e-08
4.27673e-06
7.56271e-08
4.2795e-06
7.07335e-08
4.2818e-06
6.61974e-08
4.28354e-06
6.17331e-08
4.28513e-06
5.7466e-08
4.28643e-06
5.27704e-08
4.28702e-06
4.72931e-08
4.28691e-06
4.14257e-08
4.28598e-06
3.54546e-08
2.96808e-08
4.28406e-06
4.64581e-06
3.44841e-08
4.65609e-06
6.87422e-08
4.66381e-06
7.85313e-08
4.67112e-06
8.22325e-08
4.67823e-06
8.42158e-08
4.68509e-06
8.39594e-08
4.69152e-06
8.12808e-08
4.6968e-06
7.65168e-08
4.70101e-06
7.14249e-08
4.70483e-06
6.69423e-08
4.70838e-06
6.26691e-08
4.71167e-06
5.84696e-08
4.71486e-06
5.42973e-08
4.71784e-06
4.98164e-08
4.72033e-06
4.48227e-08
4.72221e-06
3.95581e-08
4.72338e-06
3.42976e-08
2.92639e-08
4.7237e-06
5.12156e-06
2.75095e-08
5.13099e-06
5.93209e-08
5.13867e-06
7.08729e-08
5.14573e-06
7.5202e-08
5.15253e-06
7.74223e-08
5.15907e-06
7.74e-08
5.16517e-06
7.51144e-08
5.17043e-06
7.1191e-08
5.17493e-06
6.68616e-08
5.17909e-06
6.27341e-08
5.18302e-06
5.86945e-08
5.18677e-06
5.46887e-08
5.19039e-06
5.06462e-08
5.19379e-06
4.63877e-08
5.19679e-06
4.18103e-08
5.19927e-06
3.70825e-08
5.20112e-06
3.24099e-08
2.8054e-08
5.20235e-06
5.64661e-06
2.18819e-08
5.65527e-06
5.06e-08
5.66309e-06
6.30461e-08
5.67026e-06
6.80544e-08
5.67713e-06
7.05596e-08
5.6837e-06
7.08297e-08
5.6898e-06
6.89969e-08
5.69519e-06
6.57728e-08
5.7e-06
6.2068e-08
5.70445e-06
5.82982e-08
5.70866e-06
5.45039e-08
5.71267e-06
5.06873e-08
5.71652e-06
4.68147e-08
5.72012e-06
4.27914e-08
5.72335e-06
3.85934e-08
5.7261e-06
3.43343e-08
5.72833e-06
3.01933e-08
2.63003e-08
5.73002e-06
4.40939e-06
1.85841e-08
4.41514e-06
4.48517e-08
4.42084e-06
5.73503e-08
4.42612e-06
6.27874e-08
4.43116e-06
6.55065e-08
4.43598e-06
6.59875e-08
4.44044e-06
6.4483e-08
4.44448e-06
6.16969e-08
4.44814e-06
5.83771e-08
4.45154e-06
5.48763e-08
4.45473e-06
5.12923e-08
4.45775e-06
4.76503e-08
4.46061e-06
4.39433e-08
4.46328e-06
4.01158e-08
4.46569e-06
3.6179e-08
4.4678e-06
3.22286e-08
4.46958e-06
2.84052e-08
2.48273e-08
4.47103e-06
5.14284e-06
1.55834e-08
5.14859e-06
3.90528e-08
5.15462e-06
5.13171e-08
5.16037e-06
5.7047e-08
5.16593e-06
5.99408e-08
5.17126e-06
6.06395e-08
5.17624e-06
5.94788e-08
5.18079e-06
5.71248e-08
5.18497e-06
5.41933e-08
5.18886e-06
5.09913e-08
5.19251e-06
4.76424e-08
5.19595e-06
4.42098e-08
5.19919e-06
4.06996e-08
5.20221e-06
3.71069e-08
5.20494e-06
3.34463e-08
5.20735e-06
2.9822e-08
5.20943e-06
2.63282e-08
2.30547e-08
5.21118e-06
5.99846e-06
1.29014e-08
6.00411e-06
3.33891e-08
6.01034e-06
4.50772e-08
6.01649e-06
5.08978e-08
6.02254e-06
5.38744e-08
6.02839e-06
5.47625e-08
6.03391e-06
5.3935e-08
6.03903e-06
5.19912e-08
6.04377e-06
4.94395e-08
6.04821e-06
4.65559e-08
6.05237e-06
4.34831e-08
6.05628e-06
4.02966e-08
6.05995e-06
3.70355e-08
6.06335e-06
3.37019e-08
6.06644e-06
3.0367e-08
6.0692e-06
2.70672e-08
6.07161e-06
2.39142e-08
2.09532e-08
6.07368e-06
6.99662e-06
1.05385e-08
7.00205e-06
2.79219e-08
7.00841e-06
3.87086e-08
7.01489e-06
4.44089e-08
7.02138e-06
4.73685e-08
7.02772e-06
4.83878e-08
7.03378e-06
4.78546e-08
7.03947e-06
4.62816e-08
7.04481e-06
4.4094e-08
7.04982e-06
4.15439e-08
7.05452e-06
3.87758e-08
7.05894e-06
3.58801e-08
7.06306e-06
3.29008e-08
7.06688e-06
2.9892e-08
7.07036e-06
2.68757e-08
7.0735e-06
2.39474e-08
7.07626e-06
2.11241e-08
1.8518e-08
7.07869e-06
8.16109e-06
8.44748e-09
8.16623e-06
2.27575e-08
8.17262e-06
3.23076e-08
8.17936e-06
3.76556e-08
8.18623e-06
4.04758e-08
8.19305e-06
4.15486e-08
8.19963e-06
4.12604e-08
8.2059e-06
4.00118e-08
8.21182e-06
3.81693e-08
8.21741e-06
3.59573e-08
8.22267e-06
3.35164e-08
8.22761e-06
3.09448e-08
8.23221e-06
2.82905e-08
8.23646e-06
2.56251e-08
8.24037e-06
2.29774e-08
8.24389e-06
2.0411e-08
8.24706e-06
1.79638e-08
1.568e-08
8.24985e-06
9.51958e-06
6.58346e-09
9.52439e-06
1.79202e-08
9.53073e-06
2.59472e-08
9.53768e-06
3.0691e-08
9.54489e-06
3.32386e-08
9.55215e-06
3.4285e-08
9.55925e-06
3.41535e-08
9.56608e-06
3.31882e-08
9.57259e-06
3.16675e-08
9.57876e-06
2.97929e-08
9.5846e-06
2.77052e-08
9.59005e-06
2.54694e-08
9.59515e-06
2.31959e-08
9.59986e-06
2.08861e-08
9.60421e-06
1.86437e-08
9.60815e-06
1.64483e-08
9.61173e-06
1.43935e-08
1.24613e-08
9.61494e-06
1.11044e-05
4.88742e-09
1.11089e-05
1.33937e-08
1.11151e-05
1.968e-08
1.11222e-05
2.35651e-08
1.11298e-05
2.57009e-08
1.11375e-05
2.65906e-08
1.11451e-05
2.65424e-08
1.11525e-05
2.57938e-08
1.11596e-05
2.45681e-08
1.11664e-05
2.30346e-08
1.11728e-05
2.12973e-08
1.11788e-05
1.94582e-08
1.11844e-05
1.75551e-08
1.11896e-05
1.56742e-08
1.11944e-05
1.38154e-08
1.11989e-05
1.20506e-08
1.12028e-05
1.03609e-08
8.82063e-09
1.12065e-05
1.29532e-05
3.31036e-09
1.29575e-05
9.11436e-09
1.29636e-05
1.34947e-08
1.29709e-05
1.6301e-08
1.29787e-05
1.78354e-08
1.29869e-05
1.84626e-08
1.29951e-05
1.83863e-08
1.30031e-05
1.77892e-08
1.30108e-05
1.68261e-08
1.30182e-05
1.5621e-08
1.30253e-05
1.42632e-08
1.30319e-05
1.28218e-08
1.30381e-05
1.13502e-08
1.30438e-05
9.89067e-09
1.30492e-05
8.471e-09
1.30541e-05
7.11813e-09
1.30586e-05
5.84278e-09
4.67184e-09
1.30628e-05
1.511e-05
1.79315e-09
1.51141e-05
4.94105e-09
1.51203e-05
7.29827e-09
1.51278e-05
8.80381e-09
1.51361e-05
9.57554e-09
1.51447e-05
9.80067e-09
1.51535e-05
9.60253e-09
1.51622e-05
9.09161e-09
1.51707e-05
8.35718e-09
1.51788e-05
7.47629e-09
1.51866e-05
6.5061e-09
1.51939e-05
5.49166e-09
1.52008e-05
4.4687e-09
1.52072e-05
3.46334e-09
1.52131e-05
2.4966e-09
1.52187e-05
1.58317e-09
1.52238e-05
7.32369e-10
-4.17542e-11
1.52285e-05
1.7626e-05
2.50396e-10
1.76303e-05
6.55274e-10
1.76367e-05
8.29879e-10
1.76447e-05
8.41573e-10
1.76536e-05
6.85981e-10
1.7663e-05
3.93541e-10
1.76726e-05
-9.36763e-13
1.76822e-05
-4.73571e-10
1.76915e-05
-9.9999e-10
1.77005e-05
-1.55164e-09
1.77091e-05
-2.12114e-09
1.77173e-05
-2.67961e-09
1.7725e-05
-3.22971e-09
1.77322e-05
-3.74585e-09
1.77389e-05
-4.23459e-09
1.77452e-05
-4.6758e-09
1.7751e-05
-5.07924e-09
-5.42507e-09
1.77563e-05
1.78277e-05
-1.24793e-09
1.78319e-05
-3.52458e-09
1.78382e-05
-5.48519e-09
1.78459e-05
-6.93841e-09
1.78546e-05
-8.0324e-09
1.78639e-05
-8.83505e-09
1.78733e-05
-9.43765e-09
1.78827e-05
-9.88282e-09
1.78919e-05
-1.02031e-08
1.79008e-05
-1.04476e-08
1.79093e-05
-1.06128e-08
1.79173e-05
-1.07472e-08
1.79249e-05
-1.08224e-08
1.7932e-05
-1.08851e-08
1.79387e-05
-1.08989e-08
1.79449e-05
-1.09053e-08
1.79507e-05
-1.08687e-08
-1.08196e-08
1.79561e-05
1.58828e-05
-2.6746e-09
1.58867e-05
-7.49127e-09
1.58926e-05
-1.13779e-08
1.58998e-05
-1.41355e-08
1.59077e-05
-1.6001e-08
1.59161e-05
-1.72275e-08
1.59246e-05
-1.79707e-08
1.59331e-05
-1.83471e-08
1.59413e-05
-1.84627e-08
1.59493e-05
-1.83854e-08
1.59568e-05
-1.81958e-08
1.5964e-05
-1.79072e-08
1.59707e-05
-1.75813e-08
1.5977e-05
-1.72049e-08
1.59829e-05
-1.68257e-08
1.59885e-05
-1.64188e-08
1.59936e-05
-1.60232e-08
-1.56047e-08
1.59984e-05
1.41501e-05
-4.14883e-09
1.41541e-05
-1.15194e-08
1.416e-05
-1.72408e-08
1.41669e-05
-2.10995e-08
1.41745e-05
-2.36026e-08
1.41824e-05
-2.51307e-08
1.41904e-05
-2.59307e-08
1.41982e-05
-2.61813e-08
1.42057e-05
-2.60412e-08
1.4213e-05
-2.56431e-08
1.42199e-05
-2.50705e-08
1.42263e-05
-2.43973e-08
1.42324e-05
-2.36591e-08
1.42381e-05
-2.28989e-08
1.42434e-05
-2.21278e-08
1.42483e-05
-2.1371e-08
1.42529e-05
-2.06255e-08
-1.99017e-08
1.42572e-05
1.26066e-05
-5.76393e-09
1.2611e-05
-1.58554e-08
1.2617e-05
-2.32969e-08
1.2624e-05
-2.80684e-08
1.26314e-05
-3.10268e-08
1.2639e-05
-3.27414e-08
1.26465e-05
-3.35019e-08
1.26539e-05
-3.35485e-08
1.26609e-05
-3.31056e-08
1.26676e-05
-3.23515e-08
1.2674e-05
-3.1393e-08
1.26799e-05
-3.03242e-08
1.26854e-05
-2.91884e-08
1.26905e-05
-2.80489e-08
1.26953e-05
-2.69127e-08
1.26997e-05
-2.58208e-08
1.27039e-05
-2.47597e-08
-2.37482e-08
1.27077e-05
1.12317e-05
-7.6521e-09
1.12365e-05
-2.06959e-08
1.12429e-05
-2.97126e-08
1.125e-05
-3.51206e-08
1.12573e-05
-3.83841e-08
1.12647e-05
-4.01685e-08
1.1272e-05
-4.07826e-08
1.1279e-05
-4.0543e-08
1.12857e-05
-3.97496e-08
1.12919e-05
-3.85987e-08
1.12977e-05
-3.72392e-08
1.13032e-05
-3.57527e-08
1.13082e-05
-3.42318e-08
1.13129e-05
-3.27032e-08
1.13171e-05
-3.12308e-08
1.13211e-05
-2.98023e-08
1.13248e-05
-2.84635e-08
-2.71719e-08
1.13283e-05
1.00069e-05
-9.95458e-09
1.00125e-05
-2.62634e-08
1.00193e-05
-3.65529e-08
1.00265e-05
-4.23239e-08
1.00339e-05
-4.57325e-08
1.00412e-05
-4.74622e-08
1.00482e-05
-4.78217e-08
1.00549e-05
-4.72124e-08
1.00611e-05
-4.5998e-08
1.00669e-05
-4.44207e-08
1.00723e-05
-4.26251e-08
1.00773e-05
-4.07263e-08
1.00819e-05
-3.87948e-08
1.0086e-05
-3.69038e-08
1.00899e-05
-3.50784e-08
1.00934e-05
-3.3359e-08
1.00967e-05
-3.17314e-08
-3.02125e-08
1.00997e-05
8.91605e-06
-1.29082e-08
8.92254e-06
-3.27511e-08
8.92985e-06
-4.3874e-08
8.93721e-06
-4.96848e-08
8.94458e-06
-5.31032e-08
8.95176e-06
-5.46425e-08
8.95855e-06
-5.46145e-08
8.96489e-06
-5.35439e-08
8.97075e-06
-5.18613e-08
8.97615e-06
-4.98172e-08
8.98109e-06
-4.75755e-08
8.98562e-06
-4.52468e-08
8.98974e-06
-4.29243e-08
8.99351e-06
-4.06671e-08
8.99694e-06
-3.85243e-08
9.00009e-06
-3.65117e-08
9.00299e-06
-3.46455e-08
-3.28935e-08
9.00568e-06
7.94454e-06
-1.67766e-08
7.95221e-06
-4.04087e-08
7.96002e-06
-5.1664e-08
7.96759e-06
-5.72465e-08
7.97501e-06
-6.0529e-08
7.98208e-06
-6.17103e-08
7.98862e-06
-6.11644e-08
7.99464e-06
-5.95591e-08
8.00014e-06
-5.73617e-08
8.00516e-06
-5.48365e-08
8.00973e-06
-5.21458e-08
8.01389e-06
-4.94062e-08
8.01766e-06
-4.6696e-08
8.02108e-06
-4.40926e-08
8.02419e-06
-4.16397e-08
8.02704e-06
-3.93673e-08
8.02966e-06
-3.72757e-08
-3.53212e-08
8.03208e-06
7.07947e-06
-2.19062e-08
7.08874e-06
-4.96811e-08
7.09722e-06
-6.0141e-08
7.10517e-06
-6.51984e-08
7.11278e-06
-6.81318e-08
7.11984e-06
-6.87778e-08
7.12628e-06
-6.76025e-08
7.13213e-06
-6.54138e-08
7.13745e-06
-6.26731e-08
7.14227e-06
-5.96573e-08
7.14664e-06
-5.65214e-08
7.15061e-06
-5.33709e-08
7.15419e-06
-5.02748e-08
7.15741e-06
-4.73193e-08
7.16032e-06
-4.45567e-08
7.16297e-06
-4.20224e-08
7.1654e-06
-3.97177e-08
-3.75817e-08
7.16765e-06
6.31009e-06
-2.94814e-08
6.32151e-06
-6.10691e-08
6.33129e-06
-6.99224e-08
6.34032e-06
-7.42163e-08
6.34874e-06
-7.65578e-08
6.35637e-06
-7.64144e-08
6.36323e-06
-7.4466e-08
6.36943e-06
-7.15934e-08
6.375e-06
-6.82543e-08
6.38001e-06
-6.46629e-08
6.38451e-06
-6.10171e-08
6.38853e-06
-5.73893e-08
6.39206e-06
-5.38249e-08
6.39515e-06
-5.04041e-08
6.39784e-06
-4.72413e-08
6.40017e-06
-4.43651e-08
6.40221e-06
-4.17597e-08
-3.93584e-08
6.40398e-06
5.62946e-06
-4.40264e-08
5.64538e-06
-7.6972e-08
5.65892e-06
-8.34691e-08
5.67142e-06
-8.67086e-08
5.68269e-06
-8.78407e-08
5.69254e-06
-8.62723e-08
5.70106e-06
-8.29788e-08
5.70833e-06
-7.88588e-08
5.71438e-06
-7.42995e-08
5.71925e-06
-6.95371e-08
5.72303e-06
-6.4792e-08
5.72576e-06
-6.01314e-08
5.72749e-06
-5.55603e-08
5.72829e-06
-5.12078e-08
5.72825e-06
-4.72021e-08
5.72749e-06
-4.36043e-08
5.72611e-06
-4.03835e-08
-3.76771e-08
5.72442e-06
5.04739e-06
-8.91024e-08
5.07897e-06
-1.08528e-07
5.1011e-06
-1.05607e-07
5.11573e-06
-1.01337e-07
5.12358e-06
-9.56962e-08
5.12565e-06
-8.8358e-08
5.12299e-06
-8.03136e-08
5.11642e-06
-7.22773e-08
5.10678e-06
-6.46535e-08
5.09475e-06
-5.75084e-08
5.08074e-06
-5.07878e-08
5.06535e-06
-4.47479e-08
5.04928e-06
-3.94988e-08
5.03282e-06
-3.47456e-08
5.01594e-06
-3.03187e-08
4.99875e-06
-2.64147e-08
4.98166e-06
-2.32993e-08
-2.13995e-08
4.96537e-06
4.36745e-06
4.25892e-06
4.15331e-06
4.05197e-06
3.95628e-06
3.86792e-06
3.78761e-06
3.71533e-06
3.65068e-06
3.59317e-06
3.54238e-06
3.49763e-06
3.45813e-06
3.42339e-06
3.39307e-06
3.36665e-06
3.34335e-06
3.32195e-06
-8.45266e-09
8.44493e-09
-2.2921e-08
1.44598e-08
-3.86378e-08
1.57084e-08
-5.21133e-08
1.34722e-08
-5.80523e-08
5.93691e-09
-5.02727e-08
-7.78243e-09
-2.66905e-08
-2.35768e-08
1.01797e-08
-3.68751e-08
5.61124e-08
-4.59224e-08
1.06175e-07
-5.00674e-08
1.55856e-07
-4.96716e-08
2.01996e-07
-4.61442e-08
2.42583e-07
-4.05787e-08
2.76354e-07
-3.37741e-08
3.02619e-07
-2.62595e-08
3.20957e-07
-1.83375e-08
3.31104e-07
-1.01425e-08
3.32734e-07
-1.62357e-09
3.25633e-07
7.10654e-09
3.09978e-07
1.56668e-08
2.86354e-07
2.36314e-08
2.55758e-07
3.06126e-08
2.19575e-07
3.61956e-08
1.79681e-07
3.99135e-08
1.38397e-07
4.12991e-08
9.84085e-08
4.00106e-08
6.24338e-08
3.59926e-08
3.276e-08
2.96978e-08
1.05957e-08
2.21806e-08
-4.13904e-09
1.47594e-08
-1.2354e-08
8.22326e-09
-1.4498e-08
2.17224e-09
-1.04062e-08
-4.09163e-09
1.17297e-09
-1.15467e-08
2.17226e-08
-2.05492e-08
5.13113e-08
-2.95701e-08
8.6002e-08
-3.46903e-08
1.19526e-07
-3.35294e-08
1.46276e-07
-2.6745e-08
1.62903e-07
-1.66549e-08
1.69598e-07
-6.70502e-09
1.69193e-07
3.54293e-10
1.65282e-07
3.88923e-09
1.61383e-07
3.8334e-09
1.59688e-07
1.70124e-09
1.53698e-07
5.87729e-09
1.34163e-07
1.95614e-08
9.27372e-08
4.12488e-08
2.4681e-08
6.8072e-08
-6.72077e-08
9.17421e-08
-1.77633e-07
1.1046e-07
-3.03643e-07
1.25952e-07
-4.41795e-07
1.38208e-07
-5.88562e-07
1.4673e-07
-7.37222e-07
1.48694e-07
-8.84759e-07
1.47508e-07
-1.02878e-06
1.44047e-07
-1.16681e-06
1.38025e-07
-1.29687e-06
1.30084e-07
-1.41741e-06
1.20538e-07
-1.52824e-06
1.1085e-07
-1.62975e-06
1.0151e-07
-1.72282e-06
9.30806e-08
-1.8082e-06
8.53847e-08
-1.88651e-06
7.83106e-08
-1.95855e-06
7.2047e-08
-2.02506e-06
6.65149e-08
-2.08673e-06
6.16753e-08
-2.14415e-06
5.74215e-08
-2.19783e-06
5.36864e-08
-2.24821e-06
5.03785e-08
-2.29563e-06
4.74349e-08
-2.34042e-06
4.47857e-08
-2.3828e-06
4.23834e-08
-2.42298e-06
4.01774e-08
-2.46111e-06
3.8136e-08
-2.49733e-06
3.62238e-08
-2.53175e-06
3.44216e-08
-2.56446e-06
3.27043e-08
-2.59552e-06
3.10615e-08
-2.625e-06
2.94746e-08
-2.65293e-06
2.7938e-08
-2.67938e-06
2.64372e-08
-2.70435e-06
2.49683e-08
-2.72787e-06
2.35203e-08
-2.74997e-06
2.20908e-08
-2.77065e-06
2.06751e-08
-2.78992e-06
1.92703e-08
-2.80778e-06
1.78683e-08
-2.82422e-06
1.64708e-08
-2.83924e-06
1.50546e-08
-2.85283e-06
1.36188e-08
-2.86495e-06
1.21503e-08
-2.87557e-06
1.06398e-08
-2.88466e-06
9.08035e-09
-2.89214e-06
7.4555e-09
-2.89794e-06
5.76103e-09
-2.90196e-06
3.96926e-09
-2.90412e-06
2.10522e-09
-2.90441e-06
2.35888e-10
-2.90304e-06
-1.41511e-09
-2.90022e-06
-2.87127e-09
-2.89598e-06
-4.26887e-09
-2.89036e-06
-5.66494e-09
-2.88332e-06
-7.05403e-09
-2.87489e-06
-8.46329e-09
-2.86502e-06
-9.86734e-09
-2.85375e-06
-1.12908e-08
-2.84103e-06
-1.27061e-08
-2.82689e-06
-1.41364e-08
-2.81131e-06
-1.55551e-08
-2.79431e-06
-1.69829e-08
-2.77587e-06
-1.83958e-08
-2.75603e-06
-1.9811e-08
-2.73476e-06
-2.12083e-08
-2.71211e-06
-2.26006e-08
-2.68806e-06
-2.39726e-08
-2.66266e-06
-2.53322e-08
-2.63591e-06
-2.66699e-08
-2.60784e-06
-2.79877e-08
-2.57847e-06
-2.92825e-08
-2.54783e-06
-3.05499e-08
-2.51595e-06
-3.17932e-08
-2.48285e-06
-3.30014e-08
-2.44858e-06
-3.4184e-08
-2.41315e-06
-3.5324e-08
-2.37664e-06
-3.64363e-08
-2.33904e-06
-3.74976e-08
-2.30044e-06
-3.85405e-08
-2.26084e-06
-3.95304e-08
-2.22034e-06
-4.04919e-08
-2.17895e-06
-4.13953e-08
-2.13672e-06
-4.22276e-08
-2.09369e-06
-4.29761e-08
-2.04999e-06
-4.3647e-08
-2.0057e-06
-4.42301e-08
-1.96078e-06
-4.49317e-08
-1.91516e-06
-4.56566e-08
-1.86892e-06
-4.6262e-08
-1.82209e-06
-4.67996e-08
-1.77476e-06
-4.72937e-08
-1.72698e-06
-4.77344e-08
-1.67883e-06
-4.8158e-08
-1.6303e-06
-4.85382e-08
-1.58147e-06
-4.88994e-08
-1.53232e-06
-4.92173e-08
-1.48292e-06
-4.9513e-08
-1.43326e-06
-4.9772e-08
-1.38336e-06
-5.00059e-08
-1.33324e-06
-5.02086e-08
-1.28291e-06
-5.03841e-08
-1.23242e-06
-5.05291e-08
-1.18179e-06
-5.06483e-08
-1.13104e-06
-5.07462e-08
-1.0802e-06
-5.0823e-08
-1.02928e-06
-5.08907e-08
-9.78287e-07
-5.09484e-08
-9.27222e-07
-5.10077e-08
-8.76085e-07
-5.10682e-08
-8.24867e-07
-5.11402e-08
-7.7356e-07
-5.1219e-08
-7.22157e-07
-5.13114e-08
-6.70648e-07
-5.14078e-08
-6.19034e-07
-5.1515e-08
-5.67303e-07
-5.16252e-08
-5.15453e-07
-5.175e-08
-4.63464e-07
-5.1884e-08
-4.11331e-07
-5.20395e-08
-3.59023e-07
-5.22091e-08
-3.06544e-07
-5.23958e-08
-2.53874e-07
-5.2582e-08
-2.01044e-07
-5.27599e-08
-1.48087e-07
-5.28835e-08
-9.51441e-08
-5.28897e-08
-4.2416e-08
-5.26734e-08
9.58493e-09
-5.19652e-08
6.02863e-08
-5.06679e-08
1.07899e-07
-4.76056e-08
1.51482e-07
-4.35882e-08
-1.78664e-08
1.69345e-07
-3.54823e-09
1.19794e-08
-9.90396e-09
2.08055e-08
-1.29006e-08
1.86867e-08
-5.16814e-09
5.73534e-09
1.83911e-08
-1.76293e-08
5.68301e-08
-4.62235e-08
1.05489e-07
-7.22347e-08
1.58678e-07
-9.00654e-08
2.11188e-07
-9.84288e-08
2.59719e-07
-9.86006e-08
3.02815e-07
-9.27627e-08
3.39784e-07
-8.31146e-08
3.70545e-07
-7.1335e-08
3.95296e-07
-5.85254e-08
4.14387e-07
-4.53464e-08
4.28207e-07
-3.21548e-08
4.37188e-07
-1.91199e-08
4.41898e-07
-6.32773e-09
4.42749e-07
6.26157e-09
4.39659e-07
1.8766e-08
4.32149e-07
3.1149e-08
4.19608e-07
4.31664e-08
4.0144e-07
5.43733e-08
3.77268e-07
6.41005e-08
3.47081e-07
7.14979e-08
3.11468e-07
7.56388e-08
2.71748e-07
7.57255e-08
2.30091e-07
7.13699e-08
1.89503e-07
6.27806e-08
1.53607e-07
5.06738e-08
1.25954e-07
3.58837e-08
1.09159e-07
1.89944e-08
1.04731e-07
3.41174e-10
1.12387e-07
-1.91771e-08
1.30113e-07
-3.82705e-08
1.52672e-07
-5.21166e-08
1.72747e-07
-5.47596e-08
1.85178e-07
-4.59649e-08
1.88177e-07
-2.97393e-08
1.81632e-07
-1.01323e-08
1.67011e-07
7.91184e-09
1.45808e-07
2.14922e-08
1.12961e-07
3.67372e-08
5.80702e-08
5.86388e-08
-2.79777e-08
8.77517e-08
-1.45605e-07
1.23441e-07
-2.86134e-07
1.60083e-07
-4.39368e-07
1.9445e-07
-5.97363e-07
2.26055e-07
-7.57773e-07
2.52127e-07
-9.18202e-07
2.70885e-07
-1.07497e-06
2.82708e-07
-1.22421e-06
2.87448e-07
-1.3624e-06
2.84918e-07
-1.48909e-06
2.75378e-07
-1.60271e-06
2.6113e-07
-1.7032e-06
2.44533e-07
-1.79159e-06
2.26421e-07
-1.86946e-06
2.07954e-07
-1.93868e-06
1.89765e-07
-2.00055e-06
1.72728e-07
-2.05633e-06
1.57286e-07
-2.10692e-06
1.43674e-07
-2.15328e-06
1.31749e-07
-2.19625e-06
1.21285e-07
-2.23636e-06
1.12162e-07
-2.27405e-06
1.04205e-07
-2.30962e-06
9.72517e-08
-2.34333e-06
9.11322e-08
-2.37534e-06
8.57084e-08
-2.40582e-06
8.08531e-08
-2.43484e-06
7.64633e-08
-2.4625e-06
7.24497e-08
-2.48886e-06
6.87417e-08
-2.51396e-06
6.52791e-08
-2.53784e-06
6.20159e-08
-2.56052e-06
5.89124e-08
-2.58204e-06
5.59397e-08
-2.60241e-06
5.30714e-08
-2.62164e-06
5.02895e-08
-2.63974e-06
4.75755e-08
-2.65672e-06
4.49179e-08
-2.67259e-06
4.23027e-08
-2.68734e-06
3.97215e-08
-2.70099e-06
3.71636e-08
-2.71352e-06
3.46232e-08
-2.72494e-06
3.20937e-08
-2.73525e-06
2.95698e-08
-2.74441e-06
2.70488e-08
-2.75244e-06
2.45145e-08
-2.75933e-06
2.1963e-08
-2.76507e-06
1.93858e-08
-2.76968e-06
1.67735e-08
-2.77316e-06
1.41258e-08
-2.77553e-06
1.14351e-08
-2.7768e-06
8.70643e-09
-2.77703e-06
5.94554e-09
-2.77627e-06
3.17833e-09
-2.77466e-06
4.42097e-10
-2.77222e-06
-2.2365e-09
-2.76878e-06
-4.89985e-09
-2.76409e-06
-7.59542e-09
-2.75808e-06
-1.0312e-08
-2.75072e-06
-1.30475e-08
-2.742e-06
-1.5801e-08
-2.73189e-06
-1.85758e-08
-2.72041e-06
-2.13647e-08
-2.70753e-06
-2.41705e-08
-2.69326e-06
-2.69826e-08
-2.67758e-06
-2.98041e-08
-2.6605e-06
-3.26226e-08
-2.64202e-06
-3.54412e-08
-2.62214e-06
-3.82468e-08
-2.60088e-06
-4.10424e-08
-2.57824e-06
-4.38146e-08
-2.55423e-06
-4.65663e-08
-2.52887e-06
-4.92853e-08
-2.50218e-06
-5.19737e-08
-2.47417e-06
-5.46208e-08
-2.44487e-06
-5.72276e-08
-2.4143e-06
-5.97854e-08
-2.3825e-06
-6.22932e-08
-2.34948e-06
-6.47445e-08
-2.31528e-06
-6.71361e-08
-2.27994e-06
-6.94637e-08
-2.24348e-06
-7.17226e-08
-2.20594e-06
-7.39107e-08
-2.16737e-06
-7.60219e-08
-2.12779e-06
-7.80592e-08
-2.08728e-06
-8.00201e-08
-2.04587e-06
-8.19003e-08
-2.0036e-06
-8.36794e-08
-1.96047e-06
-8.53458e-08
-1.91652e-06
-8.68986e-08
-1.87177e-06
-8.83453e-08
-1.82627e-06
-8.97116e-08
-1.78014e-06
-9.10755e-08
-1.73345e-06
-9.23824e-08
-1.68616e-06
-9.35655e-08
-1.6383e-06
-9.46337e-08
-1.58995e-06
-9.56113e-08
-1.54116e-06
-9.65028e-08
-1.49199e-06
-9.7334e-08
-1.44246e-06
-9.80933e-08
-1.3926e-06
-9.87956e-08
-1.34245e-06
-9.94292e-08
-1.29203e-06
-1.00007e-07
-1.24135e-06
-1.00521e-07
-1.19044e-06
-1.00985e-07
-1.13931e-06
-1.0139e-07
-1.08798e-06
-1.01747e-07
-1.03648e-06
-1.02046e-07
-9.8483e-07
-1.02301e-07
-9.33056e-07
-1.02508e-07
-8.81179e-07
-1.02683e-07
-8.29208e-07
-1.02829e-07
-7.77153e-07
-1.02967e-07
-7.25014e-07
-1.03096e-07
-6.72791e-07
-1.03239e-07
-6.20472e-07
-1.03393e-07
-5.68051e-07
-1.03574e-07
-5.15515e-07
-1.03771e-07
-4.62857e-07
-1.0399e-07
-4.1007e-07
-1.0422e-07
-3.57144e-07
-1.04471e-07
-3.04071e-07
-1.04739e-07
-2.50835e-07
-1.0504e-07
-1.97423e-07
-1.05372e-07
-1.43814e-07
-1.05743e-07
-9.00004e-08
-1.06139e-07
-3.59785e-08
-1.06538e-07
1.82167e-08
-1.06897e-07
7.25543e-08
-1.07169e-07
1.26951e-07
-1.07245e-07
1.81251e-07
-1.06937e-07
2.35209e-07
-1.05898e-07
2.88125e-07
-1.03562e-07
3.39371e-07
-9.88449e-08
3.85605e-07
-8.98217e-08
-6.18297e-08
4.29567e-07
4.2236e-10
1.15468e-08
4.18511e-09
1.70315e-08
1.94711e-08
3.38679e-09
5.42071e-08
-2.90054e-08
1.06573e-07
-6.9998e-08
1.66506e-07
-1.06159e-07
2.23971e-07
-1.29699e-07
2.73427e-07
-1.39523e-07
3.13316e-07
-1.38315e-07
3.44404e-07
-1.29689e-07
3.68345e-07
-1.16701e-07
3.86698e-07
-1.01468e-07
4.00665e-07
-8.52981e-08
4.11059e-07
-6.89184e-08
4.18425e-07
-5.27083e-08
4.23125e-07
-3.68521e-08
4.25443e-07
-2.14335e-08
4.25617e-07
-6.49702e-09
4.23945e-07
7.94001e-09
4.20796e-07
2.19225e-08
4.16447e-07
3.55044e-08
4.10951e-07
4.86729e-08
4.0404e-07
6.12929e-08
3.95123e-07
7.30292e-08
3.83339e-07
8.32916e-08
3.67773e-07
9.1218e-08
3.4778e-07
9.5728e-08
3.23471e-07
9.56918e-08
2.96026e-07
9.02352e-08
2.67779e-07
7.89333e-08
2.41732e-07
6.19392e-08
2.20745e-07
3.99968e-08
2.06511e-07
1.45853e-08
1.99034e-07
-1.16848e-08
1.93898e-07
-3.31249e-08
1.83461e-07
-4.16712e-08
1.63626e-07
-3.49167e-08
1.34529e-07
-1.68686e-08
9.68822e-08
7.91525e-09
4.85426e-08
3.81945e-08
-1.6297e-08
7.27497e-08
-1.04575e-07
1.09749e-07
-2.17891e-07
1.50044e-07
-3.52796e-07
1.93529e-07
-5.02748e-07
2.37698e-07
-6.58705e-07
2.79385e-07
-8.14505e-07
3.15879e-07
-9.65224e-07
3.45159e-07
-1.1056e-06
3.66423e-07
-1.23286e-06
3.79381e-07
-1.34603e-06
3.8405e-07
-1.44442e-06
3.81087e-07
-1.52833e-06
3.71357e-07
-1.59941e-06
3.55987e-07
-1.6605e-06
3.36467e-07
-1.71399e-06
3.14614e-07
-1.76149e-06
2.9203e-07
-1.80469e-06
2.69615e-07
-1.84488e-06
2.4815e-07
-1.8832e-06
2.28086e-07
-1.92023e-06
2.09758e-07
-1.95622e-06
1.93272e-07
-1.99119e-06
1.78645e-07
-2.02517e-06
1.65739e-07
-2.05823e-06
1.54348e-07
-2.09036e-06
1.44289e-07
-2.12153e-06
1.35381e-07
-2.15173e-06
1.27454e-07
-2.18094e-06
1.20347e-07
-2.20916e-06
1.13923e-07
-2.23636e-06
1.08061e-07
-2.26256e-06
1.02659e-07
-2.28774e-06
9.76322e-08
-2.3119e-06
9.29093e-08
-2.33505e-06
8.84323e-08
-2.35719e-06
8.41547e-08
-2.37831e-06
8.00379e-08
-2.39843e-06
7.60517e-08
-2.41753e-06
7.21707e-08
-2.43561e-06
6.83753e-08
-2.45268e-06
6.4648e-08
-2.46874e-06
6.09755e-08
-2.48379e-06
5.73449e-08
-2.49781e-06
5.37462e-08
-2.51082e-06
5.01692e-08
-2.5228e-06
4.66065e-08
-2.53376e-06
4.30504e-08
-2.54369e-06
3.94963e-08
-2.55257e-06
3.59345e-08
-2.5604e-06
3.23603e-08
-2.56718e-06
2.87603e-08
-2.57291e-06
2.51282e-08
-2.57759e-06
2.14617e-08
-2.58123e-06
1.77554e-08
-2.58382e-06
1.40078e-08
-2.58536e-06
1.0225e-08
-2.58587e-06
6.41167e-09
-2.58531e-06
2.58795e-09
-2.58367e-06
-1.24054e-09
-2.58086e-06
-5.07475e-09
-2.57683e-06
-8.95673e-09
-2.57155e-06
-1.28961e-08
-2.56501e-06
-1.68889e-08
-2.55715e-06
-2.09185e-08
-2.54798e-06
-2.49895e-08
-2.53748e-06
-2.90882e-08
-2.52564e-06
-3.32186e-08
-2.51244e-06
-3.7367e-08
-2.49789e-06
-4.1535e-08
-2.48198e-06
-4.57089e-08
-2.46471e-06
-4.98883e-08
-2.44607e-06
-5.40599e-08
-2.42608e-06
-5.82211e-08
-2.40474e-06
-6.23596e-08
-2.38205e-06
-6.64712e-08
-2.35804e-06
-7.05452e-08
-2.33272e-06
-7.45765e-08
-2.30609e-06
-7.85568e-08
-2.27819e-06
-8.24801e-08
-2.24904e-06
-8.63398e-08
-2.21864e-06
-9.01288e-08
-2.18705e-06
-9.38418e-08
-2.15427e-06
-9.74709e-08
-2.12035e-06
-1.01012e-07
-2.0853e-06
-1.04456e-07
-2.04918e-06
-1.07802e-07
-2.012e-06
-1.1104e-07
-1.97381e-06
-1.14168e-07
-1.93465e-06
-1.17181e-07
-1.89457e-06
-1.20082e-07
-1.85361e-06
-1.2286e-07
-1.81179e-06
-1.25495e-07
-1.76914e-06
-1.27976e-07
-1.7257e-06
-1.30306e-07
-1.6815e-06
-1.32497e-07
-1.63661e-06
-1.34578e-07
-1.59111e-06
-1.36574e-07
-1.54505e-06
-1.38457e-07
-1.49841e-06
-1.40192e-07
-1.45124e-06
-1.41776e-07
-1.40359e-06
-1.43229e-07
-1.35551e-06
-1.44564e-07
-1.30704e-06
-1.45797e-07
-1.25822e-06
-1.46928e-07
-1.20907e-06
-1.47964e-07
-1.15963e-06
-1.48907e-07
-1.10992e-06
-1.49762e-07
-1.05996e-06
-1.5053e-07
-1.00977e-06
-1.51221e-07
-9.59353e-07
-1.51833e-07
-9.08744e-07
-1.52375e-07
-8.57961e-07
-1.52843e-07
-8.07026e-07
-1.53243e-07
-7.55959e-07
-1.5358e-07
-7.04776e-07
-1.53865e-07
-6.53491e-07
-1.54114e-07
-6.02108e-07
-1.54344e-07
-5.50632e-07
-1.54568e-07
-4.99056e-07
-1.54806e-07
-4.47376e-07
-1.55067e-07
-3.9558e-07
-1.55361e-07
-3.43658e-07
-1.55687e-07
-2.91599e-07
-1.56041e-07
-2.39397e-07
-1.56418e-07
-1.8704e-07
-1.56821e-07
-1.34521e-07
-1.57258e-07
-8.18227e-08
-1.57735e-07
-2.8935e-08
-1.58262e-07
2.41599e-08
-1.58837e-07
7.74701e-08
-1.59454e-07
1.31011e-07
-1.60081e-07
1.84771e-07
-1.60665e-07
2.38716e-07
-1.61117e-07
2.92761e-07
-1.61297e-07
3.46781e-07
-1.60959e-07
4.0056e-07
-1.5968e-07
4.53725e-07
-1.56728e-07
5.05828e-07
-1.50951e-07
5.55908e-07
-1.39906e-07
-1.13453e-07
6.07529e-07
-1.80032e-10
1.1718e-08
1.35183e-08
3.31993e-09
5.49833e-08
-3.80855e-08
1.18893e-07
-9.29196e-08
1.87246e-07
-1.38352e-07
2.45692e-07
-1.64608e-07
2.888e-07
-1.72806e-07
3.17686e-07
-1.68411e-07
3.36102e-07
-1.56729e-07
3.47779e-07
-1.41367e-07
3.55422e-07
-1.24341e-07
3.6062e-07
-1.06667e-07
3.64178e-07
-8.88532e-08
3.66427e-07
-7.11661e-08
3.6748e-07
-5.37574e-08
3.67359e-07
-3.67287e-08
3.66085e-07
-2.01543e-08
3.63691e-07
-4.09827e-09
3.60253e-07
1.13841e-08
3.55916e-07
2.62668e-08
3.50902e-07
4.05257e-08
3.45457e-07
5.41271e-08
3.39758e-07
6.70008e-08
3.3382e-07
7.8978e-08
3.27397e-07
8.97244e-08
3.1997e-07
9.86574e-08
3.10793e-07
1.04915e-07
2.99137e-07
1.0736e-07
2.84589e-07
1.04792e-07
2.67292e-07
9.62451e-08
2.48164e-07
8.10759e-08
2.28594e-07
5.95867e-08
2.09073e-07
3.41186e-08
1.8592e-07
1.14845e-08
1.51944e-07
8.62064e-10
1.04433e-07
5.84731e-09
4.45551e-08
2.49697e-08
-2.86089e-08
5.62979e-08
-1.17751e-07
9.70612e-08
-2.23697e-07
1.44138e-07
-3.45168e-07
1.94221e-07
-4.79867e-07
2.44442e-07
-6.22716e-07
2.92893e-07
-7.67193e-07
3.37999e-07
-9.07161e-07
3.77666e-07
-1.03713e-06
4.09349e-07
-1.15324e-06
4.31981e-07
-1.25396e-06
4.45878e-07
-1.33887e-06
4.51334e-07
-1.40873e-06
4.49231e-07
-1.46536e-06
4.40674e-07
-1.51107e-06
4.26785e-07
-1.5485e-06
4.08786e-07
-1.58041e-06
3.87886e-07
-1.60923e-06
3.65286e-07
-1.63672e-06
3.42091e-07
-1.66386e-06
3.19173e-07
-1.69134e-06
2.97089e-07
-1.71944e-06
2.76247e-07
-1.74825e-06
2.56896e-07
-1.77766e-06
2.39172e-07
-1.80747e-06
2.2308e-07
-1.83741e-06
2.08588e-07
-1.86725e-06
1.95582e-07
-1.89682e-06
1.8391e-07
-1.92594e-06
1.73419e-07
-1.95452e-06
1.63955e-07
-1.98243e-06
1.55373e-07
-2.00962e-06
1.47536e-07
-2.03602e-06
1.40324e-07
-2.06159e-06
1.3363e-07
-2.08629e-06
1.27364e-07
-2.1101e-06
1.21449e-07
-2.13301e-06
1.15818e-07
-2.155e-06
1.10419e-07
-2.17605e-06
1.05208e-07
-2.19616e-06
1.0015e-07
-2.21532e-06
9.52153e-08
-2.23353e-06
9.03807e-08
-2.25078e-06
8.56269e-08
-2.26707e-06
8.09378e-08
-2.2824e-06
7.62999e-08
-2.29676e-06
7.17012e-08
-2.31014e-06
6.71316e-08
-2.32255e-06
6.25813e-08
-2.33399e-06
5.80416e-08
-2.34445e-06
5.35049e-08
-2.35391e-06
4.89634e-08
-2.36238e-06
4.44115e-08
-2.36985e-06
3.98329e-08
-2.3763e-06
3.52263e-08
-2.38175e-06
3.05789e-08
-2.38617e-06
2.58873e-08
-2.38958e-06
2.11459e-08
-2.39194e-06
1.63532e-08
-2.39326e-06
1.15114e-08
-2.39351e-06
6.62421e-09
-2.39265e-06
1.6994e-09
-2.39066e-06
-3.26592e-09
-2.38748e-06
-8.27977e-09
-2.38309e-06
-1.33652e-08
-2.37749e-06
-1.85229e-08
-2.37065e-06
-2.37515e-08
-2.36255e-06
-2.90357e-08
-2.35317e-06
-3.43767e-08
-2.34251e-06
-3.97585e-08
-2.33055e-06
-4.51835e-08
-2.31729e-06
-5.06342e-08
-2.30271e-06
-5.61125e-08
-2.28682e-06
-6.15994e-08
-2.2696e-06
-6.70957e-08
-2.25107e-06
-7.25816e-08
-2.23122e-06
-7.80562e-08
-2.21006e-06
-8.34998e-08
-2.1876e-06
-8.89101e-08
-2.16385e-06
-9.4269e-08