/*--------------------------------*- C++ -*----------------------------------*\
  =========                 |
  \\      /  F ield         | OpenFOAM: The Open Source CFD Toolbox
   \\    /   O peration     | Website:  https://openfoam.org
    \\  /    A nd           | Version:  8
     \\/     M anipulation  |
\*---------------------------------------------------------------------------*/
FoamFile
{
    version     2.0;
    format      ascii;
    class       volVectorField;
    location    "600";
    object      U;
}
// * * * * * * * * * * * * * * * * * * * * * * * * * * * * * * * * * * * * * //

dimensions      [0 1 -1 0 0 0 0];

internalField   nonuniform List<vector> 
12225
(
(9.76262 0.0490131 0)
(9.32441 0.0888543 0)
(8.91152 0.0876814 0)
(8.52728 0.0825177 0)
(8.19337 0.0682705 0)
(7.90455 0.0669756 0)
(7.66794 0.070463 0)
(7.46746 0.051242 0)
(7.30352 0.0322136 0)
(7.17638 0.0325477 0)
(7.06753 0.0314278 0)
(6.98511 0.0267083 0)
(6.91131 0.0307718 0)
(6.8421 0.0309565 0)
(6.78691 0.0163511 0)
(6.75127 0.00294202 0)
(6.71838 -0.00631118 0)
(6.71659 -0.0151164 0)
(10.0831 0.0551355 0)
(10.2465 0.0854916 0)
(10.3224 0.085454 0)
(10.3393 0.0835918 0)
(10.3087 0.0826444 0)
(10.2645 0.0759589 0)
(10.179 0.0674988 0)
(10.0863 0.0638328 0)
(9.99794 0.0586734 0)
(9.90867 0.0510137 0)
(9.8093 0.04555 0)
(9.71485 0.0421911 0)
(9.62218 0.0381364 0)
(9.53931 0.0341783 0)
(9.45906 0.0326128 0)
(9.39053 0.0316821 0)
(9.32759 0.0268685 0)
(9.27285 0.0186627 0)
(10.0165 0.0435647 0)
(10.0667 0.0660461 0)
(10.1186 0.0682307 0)
(10.1561 0.0730822 0)
(10.1864 0.0775777 0)
(10.2095 0.0800207 0)
(10.2242 0.0797161 0)
(10.2301 0.0758825 0)
(10.2276 0.0719524 0)
(10.2194 0.0696455 0)
(10.2074 0.0666453 0)
(10.1915 0.0632864 0)
(10.1739 0.0612242 0)
(10.1568 0.0583237 0)
(10.138 0.0527741 0)
(10.1169 0.0463745 0)
(10.0954 0.0396943 0)
(10.0722 0.0323274 0)
(10.008 0.0297321 0)
(10.0368 0.0534233 0)
(10.0657 0.0606724 0)
(10.0863 0.0663902 0)
(10.1062 0.0705568 0)
(10.1258 0.07276 0)
(10.1437 0.0730252 0)
(10.158 0.0704948 0)
(10.168 0.0674535 0)
(10.1754 0.0657006 0)
(10.1815 0.0640408 0)
(10.1862 0.0621267 0)
(10.19 0.0602394 0)
(10.1934 0.0575863 0)
(10.1957 0.0535502 0)
(10.1962 0.0486042 0)
(10.195 0.0429116 0)
(10.1919 0.0368805 0)
(10.0052 0.0241995 0)
(10.0275 0.0479466 0)
(10.0497 0.0562918 0)
(10.0658 0.061163 0)
(10.0806 0.0649751 0)
(10.0958 0.0673112 0)
(10.1103 0.0678042 0)
(10.1229 0.0662393 0)
(10.133 0.0641542 0)
(10.1417 0.0626169 0)
(10.1497 0.0611066 0)
(10.157 0.0594144 0)
(10.1639 0.057559 0)
(10.1706 0.0550511 0)
(10.1765 0.0515376 0)
(10.1812 0.0472829 0)
(10.1845 0.0425151 0)
(10.1865 0.0375369 0)
(10.0035 0.0194703 0)
(10.0212 0.0418567 0)
(10.04 0.0511009 0)
(10.0546 0.0560554 0)
(10.0676 0.0599149 0)
(10.0806 0.062331 0)
(10.0932 0.0629691 0)
(10.1042 0.061983 0)
(10.1137 0.0604572 0)
(10.1222 0.0590553 0)
(10.1301 0.0575818 0)
(10.1376 0.0559291 0)
(10.1447 0.0540277 0)
(10.1516 0.0515906 0)
(10.1579 0.0484041 0)
(10.1632 0.0446309 0)
(10.1675 0.040493 0)
(10.1708 0.0362798 0)
(10.0023 0.0155288 0)
(10.016 0.0359277 0)
(10.0323 0.0457352 0)
(10.046 0.0510205 0)
(10.058 0.05494 0)
(10.0699 0.0573677 0)
(10.0812 0.0581334 0)
(10.0914 0.0575612 0)
(10.1004 0.0564331 0)
(10.1086 0.0551823 0)
(10.1163 0.0537725 0)
(10.1236 0.0521515 0)
(10.1305 0.0502448 0)
(10.1371 0.047882 0)
(10.1432 0.0449599 0)
(10.1485 0.041593 0)
(10.1529 0.0379777 0)
(10.1566 0.0343521 0)
(10.0016 0.0127489 0)
(10.0125 0.0312918 0)
(10.0268 0.0411775 0)
(10.0398 0.0466728 0)
(10.0512 0.0505521 0)
(10.0624 0.0529264 0)
(10.073 0.053777 0)
(10.0826 0.0535006 0)
(10.0913 0.0526597 0)
(10.0993 0.0515341 0)
(10.1068 0.0501694 0)
(10.1138 0.0485634 0)
(10.1205 0.0466794 0)
(10.1268 0.0444184 0)
(10.1326 0.0417414 0)
(10.1377 0.0387274 0)
(10.1421 0.0355366 0)
(10.1459 0.0323202 0)
(10.0012 0.0106883 0)
(10.01 0.0274128 0)
(10.0225 0.0371136 0)
(10.0345 0.0427086 0)
(10.0454 0.0465888 0)
(10.0559 0.0490012 0)
(10.066 0.0499804 0)
(10.0753 0.0499093 0)
(10.0838 0.0492527 0)
(10.0916 0.0482483 0)
(10.099 0.0469671 0)
(10.1058 0.0454242 0)
(10.1123 0.043597 0)
(10.1184 0.0414293 0)
(10.124 0.0389092 0)
(10.129 0.0361229 0)
(10.1334 0.0331953 0)
(10.1373 0.0302579 0)
(10.0009 0.00890555 0)
(10.0079 0.0236274 0)
(10.0186 0.0328669 0)
(10.0295 0.0384206 0)
(10.0396 0.0422355 0)
(10.0495 0.0446331 0)
(10.059 0.0457125 0)
(10.0679 0.0458236 0)
(10.0761 0.0453383 0)
(10.0838 0.0444578 0)
(10.0909 0.0432653 0)
(10.0977 0.0417965 0)
(10.104 0.040048 0)
(10.1099 0.0379961 0)
(10.1153 0.0356644 0)
(10.1202 0.0331169 0)
(10.1245 0.0304662 0)
(10.1284 0.0278013 0)
(10.0007 0.00734027 0)
(10.0061 0.0199794 0)
(10.0151 0.0285238 0)
(10.0248 0.0338792 0)
(10.0341 0.0375322 0)
(10.0433 0.0398599 0)
(10.0522 0.0409949 0)
(10.0606 0.0412418 0)
(10.0685 0.0408963 0)
(10.0759 0.0401318 0)
(10.0828 0.0390377 0)
(10.0894 0.0376601 0)
(10.0955 0.0360146 0)
(10.1011 0.0341096 0)
(10.1064 0.0319797 0)
(10.1111 0.0296859 0)
(10.1153 0.0273016 0)
(10.1191 0.024927 0)
(10.0005 0.00595538 0)
(10.0047 0.0164973 0)
(10.0121 0.0241366 0)
(10.0206 0.0291302 0)
(10.0291 0.0325253 0)
(10.0375 0.0347143 0)
(10.0457 0.0358533 0)
(10.0536 0.0361812 0)
(10.0611 0.0359391 0)
(10.0682 0.0352769 0)
(10.0748 0.0342829 0)
(10.0811 0.0330137 0)
(10.0869 0.0314906 0)
(10.0924 0.0297595 0)
(10.0974 0.0278348 0)
(10.1019 0.0257985 0)
(10.106 0.023681 0)
(10.1098 0.0215858 0)
(10.0004 0.0047217 0)
(10.0037 0.0132269 0)
(10.0097 0.019763 0)
(10.0171 0.0242179 0)
(10.0247 0.0272533 0)
(10.0323 0.0292319 0)
(10.0399 0.0303038 0)
(10.0472 0.0306572 0)
(10.0542 0.0304789 0)
(10.0609 0.0298987 0)
(10.0672 0.0290044 0)
(10.0732 0.0278437 0)
(10.0787 0.0264707 0)
(10.0839 0.0249088 0)
(10.0886 0.0232175 0)
(10.093 0.0214179 0)
(10.0969 0.0195863 0)
(10.1006 0.0177469 0)
(10.0003 0.00360849 0)
(10.0029 0.0101694 0)
(10.0078 0.0154457 0)
(10.0141 0.0191809 0)
(10.0209 0.0217471 0)
(10.0278 0.0234247 0)
(10.0347 0.0243497 0)
(10.0415 0.0246657 0)
(10.048 0.0245092 0)
(10.0543 0.0239907 0)
(10.0603 0.0231858 0)
(10.0659 0.0221458 0)
(10.0711 0.0209252 0)
(10.076 0.019555 0)
(10.0805 0.0180846 0)
(10.0846 0.0165392 0)
(10.0884 0.0149657 0)
(10.092 0.0134037 0)
(10.0003 0.00258236 0)
(10.0023 0.00729663 0)
(10.0064 0.0111985 0)
(10.0118 0.0140492 0)
(10.0178 0.0160168 0)
(10.024 0.0172905 0)
(10.0303 0.0179805 0)
(10.0366 0.0181844 0)
(10.0427 0.0180025 0)
(10.0486 0.0175194 0)
(10.0541 0.0167925 0)
(10.0594 0.0158808 0)
(10.0644 0.0148136 0)
(10.069 0.0136474 0)
(10.0733 0.012392 0)
(10.0773 0.011102 0)
(10.0809 0.00977498 0)
(10.0843 0.00847905 0)
(10.0002 0.00161017 0)
(10.0019 0.00454201 0)
(10.0054 0.00698617 0)
(10.01 0.0088015 0)
(10.0154 0.0100329 0)
(10.0211 0.0107948 0)
(10.0269 0.0111498 0)
(10.0327 0.0111664 0)
(10.0384 0.0109058 0)
(10.0439 0.0104244 0)
(10.0491 0.00976653 0)
(10.0541 0.00897057 0)
(10.0588 0.00806989 0)
(10.0632 0.00709341 0)
(10.0673 0.00606489 0)
(10.0711 0.0050078 0)
(10.0747 0.00393687 0)
(10.078 0.0028823 0)
(10.0002 0.000647355 0)
(10.0017 0.00179639 0)
(10.0047 0.00270357 0)
(10.0089 0.00334236 0)
(10.0138 0.00370908 0)
(10.0191 0.00384196 0)
(10.0245 0.0037706 0)
(10.03 0.00352396 0)
(10.0354 0.00312908 0)
(10.0406 0.0026162 0)
(10.0456 0.00200303 0)
(10.0504 0.001317 0)
(10.0549 0.000569524 0)
(10.0591 -0.000215028 0)
(10.0631 -0.00102921 0)
(10.0667 -0.00185206 0)
(10.0702 -0.00268091 0)
(10.0734 -0.00349068 0)
(10.0002 -0.000311776 0)
(10.0016 -0.000937127 0)
(10.0046 -0.00158834 0)
(10.0086 -0.00217155 0)
(10.0133 -0.00273164 0)
(10.0184 -0.00327395 0)
(10.0237 -0.00381593 0)
(10.029 -0.00436322 0)
(10.0343 -0.00491793 0)
(10.0393 -0.00548767 0)
(10.0442 -0.00606639 0)
(10.0489 -0.0066625 0)
(10.0533 -0.00726205 0)
(10.0574 -0.00787431 0)
(10.0613 -0.00848125 0)
(10.0649 -0.00909239 0)
(10.0683 -0.00968989 0)
(10.0714 -0.0102767 0)
(10.0002 -0.00123692 0)
(10.0018 -0.00357511 0)
(10.0048 -0.00569864 0)
(10.0091 -0.0074343 0)
(10.0139 -0.00885407 0)
(10.0191 -0.0100211 0)
(10.0245 -0.0109937 0)
(10.0299 -0.0118094 0)
(10.0351 -0.0125042 0)
(10.0403 -0.0131119 0)
(10.0451 -0.0136556 0)
(10.0498 -0.0141556 0)
(10.0542 -0.0146221 0)
(10.0583 -0.0150673 0)
(10.0621 -0.0154938 0)
(10.0657 -0.0159077 0)
(10.0691 -0.0163087 0)
(10.0722 -0.016692 0)
(10.0002 -0.00215343 0)
(10.002 -0.00617109 0)
(10.0055 -0.00967505 0)
(10.0102 -0.0124387 0)
(10.0154 -0.0145987 0)
(10.021 -0.0162917 0)
(10.0266 -0.0176099 0)
(10.0322 -0.0186247 0)
(10.0377 -0.0194073 0)
(10.0429 -0.0200142 0)
(10.0479 -0.0204988 0)
(10.0526 -0.0208878 0)
(10.0571 -0.0212188 0)
(10.0612 -0.0215001 0)
(10.0651 -0.0217584 0)
(10.0687 -0.0219913 0)
(10.0721 -0.022218 0)
(10.0752 -0.0224233 0)
(10.0003 -0.0031261 0)
(10.0025 -0.00888482 0)
(10.0066 -0.0137148 0)
(10.012 -0.0173792 0)
(10.0178 -0.0201607 0)
(10.0238 -0.0222772 0)
(10.0299 -0.0238552 0)
(10.0358 -0.0249959 0)
(10.0416 -0.0258024 0)
(10.047 -0.0263696 0)
(10.0522 -0.0267559 0)
(10.0571 -0.0270221 0)
(10.0616 -0.0271932 0)
(10.0658 -0.0273158 0)
(10.0698 -0.0273949 0)
(10.0734 -0.0274654 0)
(10.0768 -0.0275179 0)
(10.08 -0.0275708 0)
(10.0004 -0.00422431 0)
(10.0032 -0.0118544 0)
(10.0083 -0.0179456 0)
(10.0146 -0.0223638 0)
(10.0212 -0.0256435 0)
(10.0278 -0.0280876 0)
(10.0343 -0.0298353 0)
(10.0407 -0.0310244 0)
(10.0468 -0.0318006 0)
(10.0526 -0.0322778 0)
(10.0579 -0.0325395 0)
(10.063 -0.032646 0)
(10.0676 -0.03265 0)
(10.0719 -0.0325882 0)
(10.0759 -0.0324951 0)
(10.0796 -0.0323861 0)
(10.083 -0.0322829 0)
(10.0862 -0.0321743 0)
(10.0005 -0.00553325 0)
(10.0042 -0.0152183 0)
(10.0107 -0.0224398 0)
(10.0181 -0.0274332 0)
(10.0255 -0.0311013 0)
(10.0328 -0.0337837 0)
(10.04 -0.0356131 0)
(10.0469 -0.0367717 0)
(10.0534 -0.0374529 0)
(10.0594 -0.0377929 0)
(10.065 -0.0378885 0)
(10.0702 -0.0378081 0)
(10.075 -0.0376162 0)
(10.0793 -0.0373566 0)
(10.0834 -0.0370743 0)
(10.087 -0.0367876 0)
(10.0905 -0.0365202 0)
(10.0936 -0.036264 0)
(10.0007 -0.00716203 0)
(10.0059 -0.0191355 0)
(10.0142 -0.027272 0)
(10.0229 -0.0326218 0)
(10.0312 -0.0365691 0)
(10.0393 -0.0394015 0)
(10.0472 -0.0412185 0)
(10.0546 -0.0422608 0)
(10.0615 -0.0427751 0)
(10.0678 -0.0429213 0)
(10.0736 -0.0428044 0)
(10.0789 -0.0425061 0)
(10.0837 -0.0420931 0)
(10.0882 -0.0416262 0)
(10.0922 -0.0411466 0)
(10.0959 -0.0406896 0)
(10.0993 -0.0402638 0)
(10.1024 -0.0398725 0)
(10.001 -0.00923619 0)
(10.0083 -0.0237629 0)
(10.019 -0.0325542 0)
(10.0293 -0.0380383 0)
(10.0387 -0.042109 0)
(10.0477 -0.0449371 0)
(10.0563 -0.046614 0)
(10.0643 -0.0474549 0)
(10.0715 -0.0477459 0)
(10.0781 -0.0476585 0)
(10.0842 -0.0473058 0)
(10.0897 -0.0467716 0)
(10.0946 -0.0461296 0)
(10.0992 -0.0454457 0)
(10.1033 -0.044771 0)
(10.107 -0.0441425 0)
(10.1105 -0.0435824 0)
(10.1136 -0.0430552 0)
(10.0016 -0.0120548 0)
(10.0122 -0.0291089 0)
(10.0262 -0.0382213 0)
(10.0384 -0.0437602 0)
(10.0491 -0.0477928 0)
(10.0593 -0.0503895 0)
(10.069 -0.0517505 0)
(10.0777 -0.0523013 0)
(10.0856 -0.0523268 0)
(10.0927 -0.0520045 0)
(10.0992 -0.0514373 0)
(10.1051 -0.0507079 0)
(10.1104 -0.0498716 0)
(10.1152 -0.0490099 0)
(10.1196 -0.048177 0)
(10.1235 -0.0474153 0)
(10.1271 -0.0467439 0)
(10.1304 -0.0461237 0)
(10.003 -0.0164923 0)
(10.0192 -0.0352359 0)
(10.0382 -0.0436365 0)
(10.0535 -0.0492819 0)
(10.0669 -0.0535199 0)
(10.0794 -0.0559791 0)
(10.091 -0.0570068 0)
(10.1015 -0.0571884 0)
(10.1108 -0.0568424 0)
(10.1191 -0.0561439 0)
(10.1266 -0.0552296 0)
(10.1334 -0.0541691 0)
(10.1394 -0.05301 0)
(10.1447 -0.0518347 0)
(10.1492 -0.0507463 0)
(10.1532 -0.0497987 0)
(10.1567 -0.0489952 0)
(10.1596 -0.0482381 0)
(10.0081 -0.0245778 0)
(10.0383 -0.0439436 0)
(10.0675 -0.0494001 0)
(10.0906 -0.0542272 0)
(10.111 -0.0587506 0)
(10.1297 -0.0616136 0)
(10.1463 -0.0629735 0)
(10.1604 -0.0634087 0)
(10.1722 -0.063223 0)
(10.1819 -0.0625455 0)
(10.1896 -0.0615021 0)
(10.1954 -0.060215 0)
(10.1994 -0.0587818 0)
(10.2016 -0.0572546 0)
(10.2023 -0.0557075 0)
(10.2015 -0.0542464 0)
(10.1996 -0.0529624 0)
(10.1966 -0.051925 0)
(10.0402 -0.0340612 0)
(10.1228 -0.0622519 0)
(10.182 -0.0671471 0)
(10.2167 -0.0684339 0)
(10.2371 -0.0692988 0)
(10.2467 -0.0690196 0)
(10.2461 -0.0677214 0)
(10.2367 -0.0658841 0)
(10.22 -0.0637312 0)
(10.1981 -0.0613508 0)
(10.172 -0.058873 0)
(10.1422 -0.0562985 0)
(10.1105 -0.0535551 0)
(10.078 -0.050761 0)
(10.0447 -0.0481063 0)
(10.0105 -0.0457244 0)
(9.97597 -0.0436303 0)
(9.94232 -0.0422441 0)
(9.89297 -0.032219 0)
(9.67669 -0.0652717 0)
(9.44406 -0.0756816 0)
(9.20756 -0.0781736 0)
(8.98258 -0.0767094 0)
(8.77537 -0.0727089 0)
(8.58643 -0.0674124 0)
(8.4152 -0.0614505 0)
(8.26169 -0.055347 0)
(8.12457 -0.0493758 0)
(8.00315 -0.0435532 0)
(7.89637 -0.0381849 0)
(7.80222 -0.0334758 0)
(7.71888 -0.0291444 0)
(7.64593 -0.0249685 0)
(7.58259 -0.0211123 0)
(7.52721 -0.017937 0)
(7.47846 -0.0159374 0)
(-0.00286265 0.00780647 0)
(-0.01319 0.0129461 0)
(-0.027283 0.0139797 0)
(-0.0421054 0.01177 0)
(-0.0528182 0.00569523 0)
(-0.0515884 -0.00422145 0)
(-0.0351274 -0.0176038 -8.08281e-19)
(-0.00699415 -0.0314716 9.14619e-19)
(0.0295282 -0.0417648 0)
(0.0714379 -0.0467349 5.1975e-19)
(0.115695 -0.0470716 0)
(0.158791 -0.0440149 0)
(0.197942 -0.0386638 0)
(0.23147 -0.0318539 -2.54662e-19)
(0.258509 -0.0241605 0)
(0.27865 -0.0159485 0)
(0.29156 -0.00741851 2.20039e-19)
(0.297453 0.00150145 0)
(0.295205 0.0107216 0)
(0.284992 0.019767 0)
(0.267451 0.0278801 -2.35527e-19)
(0.243225 0.0342615 0)
(0.213243 0.0381694 -2.78327e-19)
(0.178907 0.0389686 0)
(0.142079 0.0362068 0)
(0.105049 0.0298471 -4.52115e-19)
(0.0703576 0.0205444 0)
(0.0404879 0.00996466 7.54188e-19)
(0.0172952 0.000745105 0)
(0.00129855 -0.00493615 -1.3041e-18)
(-0.00871203 -0.00762681 0)
(-0.0138295 -0.0094966 0)
(-0.0128364 -0.0117906 0)
(-0.00532325 -0.0154585 0)
(0.00964136 -0.0209778 0)
(0.032439 -0.0271444 8.35358e-19)
(0.0614819 -0.0315448 0)
(0.0925618 -0.0317831 -9.80236e-19)
(0.120451 -0.0273772 0)
(0.140783 -0.019731 7.77299e-19)
(0.15172 -0.011452 0)
(0.154456 -0.00477743 0)
(0.151729 -0.00108024 -7.6666e-19)
(0.147557 -0.00139203 0)
(0.145129 -0.00659085 -7.9611e-19)
(0.142471 -0.0159405 8.01379e-19)
(0.132917 -0.0238512 0)
(0.108981 -0.0199883 8.77775e-19)
(0.0655974 -0.000848618 1.03396e-18)
(-0.0115484 0.0186327 0)
(-0.110727 0.039405 0)
(-0.218086 0.0644993 0)
(-0.337655 0.088767 0)
(-0.466474 0.10679 0)
(-0.602217 0.109635 -1.87638e-19)
(-0.740555 0.110537 0)
(-0.873265 0.112039 1.44264e-19)
(-1.00285 0.110585 0)
(-1.12574 0.10516 0)
(-1.24109 0.0958329 -1.13723e-19)
(-1.34761 0.0863772 0)
(-1.44551 0.0777846 1.02003e-19)
(-1.5352 0.0710121 0)
(-1.61773 0.0649772 0)
(-1.69371 0.0591362 0)
(-1.76369 0.0539917 -8.81061e-20)
(-1.8284 0.0494392 0)
(-1.88849 0.0455002 0)
(-1.94452 0.0420466 -8.19503e-20)
(-1.997 0.0390442 0)
(-2.04635 0.0363982 -7.88097e-20)
(-2.09293 0.0340657 0)
(-2.13704 0.0319813 0)
(-2.17891 0.0301094 0)
(-2.21875 0.0284062 7.37831e-20)
(-2.25671 0.0268468 0)
(-2.29292 0.0254021 0)
(-2.3275 0.0240567 7.06537e-20)
(-2.36053 0.0227907 6.96864e-20)
(-2.39207 0.0215951 0)
(-2.42219 0.0204557 6.78337e-20)
(-2.45093 0.0193675 0)
(-2.47833 0.0183195 1.32126e-19)
(-2.50441 0.0173085 0)
(-2.52919 0.0163256 1.28701e-19)
(-2.55271 0.0153685 0)
(-2.57496 0.0144303 -1.25357e-19)
(-2.59595 0.0135067 0)
(-2.61568 0.0125891 0)
(-2.63414 0.0116716 0)
(-2.65133 0.0107383 1.18798e-19)
(-2.66723 0.00978464 0)
(-2.68183 0.00879835 -1.15537e-19)
(-2.69508 0.00777098 0)
(-2.70695 0.00669593 1.1227e-19)
(-2.71739 0.00556938 1.10632e-19)
(-2.72633 0.00440718 1.08992e-19)
(-2.7337 0.0032393 0)
(-2.7394 0.00213085 0)
(-2.74333 0.00113029 0)
(-2.74545 0.000295511 0)
(-2.74629 -0.000439479 0)
(-2.74579 -0.00114742 0)
(-2.74399 -0.00185028 0)
(-2.74088 -0.00254559 0)
(-2.73644 -0.00324596 -9.3332e-20)
(-2.73068 -0.00393905 -9.14029e-20)
(-2.72357 -0.00463695 0)
(-2.71511 -0.00532617 0)
(-2.70528 -0.00601824 0)
(-2.69409 -0.00670001 -8.31726e-20)
(-2.68152 -0.00738208 0)
(-2.66759 -0.00805242 0)
(-2.65228 -0.0087201 0)
(-2.6356 -0.0093749 0)
(-2.61755 -0.010024 7.14997e-20)
(-2.59815 -0.0106595 0)
(-2.57741 -0.0112864 0)
(-2.55533 -0.0118993 -6.3615e-20)
(-2.53194 -0.0125008 6.08233e-20)
(-2.50724 -0.0130884 0)
(-2.48127 -0.0136617 5.49787e-20)
(-2.45403 -0.0142211 0)
(-2.42556 -0.0147629 -4.87687e-20)
(-2.39588 -0.0152898 0)
(-2.36501 -0.0157945 0)
(-2.333 -0.0162794 0)
(-2.29987 -0.0167348 0)
(-2.26566 -0.017192 0)
(-2.23039 -0.0176139 5.5462e-20)
(-2.19415 -0.0180133 4.76947e-20)
(-2.15693 -0.0183712 0)
(-2.11878 -0.0186297 0)
(-2.07974 -0.0187443 0)
(-2.03991 -0.0186403 -1.42107e-20)
(-1.99939 -0.0183589 0)
(-1.95816 -0.0183885 0)
(-1.91616 -0.0186917 0)
(-1.87341 -0.0189103 2.34657e-20)
(-1.82996 -0.0191095 -3.36529e-20)
(-1.78587 -0.0192919 0)
(-1.7412 -0.019455 0)
(-1.696 -0.0196125 -6.62431e-20)
(-1.65032 -0.0197531 -7.78333e-20)
(-1.60419 -0.0198865 0)
(-1.55762 -0.0200024 0)
(-1.51065 -0.0201104 1.15059e-19)
(-1.46328 -0.0202049 -1.28371e-19)
(-1.41554 -0.0202918 0)
(-1.36743 -0.0203686 0)
(-1.31897 -0.020438 -1.71435e-19)
(-1.27018 -0.020498 0)
(-1.2211 -0.0205543 0)
(-1.17174 -0.0206074 -2.19973e-19)
(-1.12213 -0.02066 0)
(-1.07228 -0.0207181 -2.5598e-19)
(-1.0222 -0.0207817 0)
(-0.97189 -0.0208564 0)
(-0.921349 -0.0209433 0)
(-0.870566 -0.0210471 3.39127e-19)
(-0.819529 -0.0211671 0)
(-0.768227 -0.0213065 0)
(-0.716648 -0.0214632 0)
(-0.664784 -0.0216409 0)
(-0.612625 -0.021839 0)
(-0.560163 -0.0220635 0)
(-0.50738 -0.0223147 5.39442e-19)
(-0.454259 -0.0225989 5.76718e-19)
(-0.400777 -0.0229156 0)
(-0.346912 -0.0232673 0)
(-0.292652 -0.023651 0)
(-0.237993 -0.0240769 -7.61195e-19)
(-0.18296 -0.0245485 0)
(-0.127638 -0.0250262 1.76679e-18)
(-0.0721995 -0.0254271 -1.91033e-18)
(-0.017087 -0.0255146 -2.05051e-18)
(0.0376376 -0.0246841 2.06848e-18)
(0.0884457 -0.0226636 -1.98952e-18)
(0.144647 -0.0201393 1.93184e-18)
(0.159323 -0.00837346 0)
(-0.000273438 0.0209388 0)
(-0.00597344 0.0367274 0)
(-0.0127069 0.0377636 2.15121e-18)
(-0.0130999 0.0279886 0)
(0.00148907 0.00533914 -2.23209e-18)
(0.0320105 -0.0328373 -1.4056e-18)
(0.0720931 -0.0752791 -4.42613e-19)
(0.11765 -0.1098 -3.16118e-19)
(0.164652 -0.130809 0)
(0.209636 -0.138086 -2.07113e-19)
(0.25042 -0.134402 0)
(0.286071 -0.123245 0)
(0.316283 -0.107556 3.0921e-19)
(0.341081 -0.0894447 1.47315e-19)
(0.360701 -0.0702707 -2.87252e-19)
(0.375466 -0.0508079 -2.83944e-19)
(0.385766 -0.0314351 -1.41974e-19)
(0.39179 -0.0122848 0)
(0.394539 0.00666406 0)
(0.393944 0.0252535 0)
(0.38962 0.0431307 -1.50148e-19)
(0.381061 0.0597545 0)
(0.367691 0.0743792 4.80377e-19)
(0.349009 0.0860118 0)
(0.324782 0.0935085 0)
(0.295218 0.0957558 1.94234e-19)
(0.261188 0.0919766 0)
(0.224327 0.0821858 -2.45471e-19)
(0.186986 0.0674093 -5.74109e-19)
(0.152116 0.0494551 3.43054e-19)
(0.122871 0.0299889 0)
(0.102613 0.00991114 0)
(0.0927303 -0.0109277 0)
(0.0950395 -0.0316132 -1.00974e-18)
(0.107813 -0.0521465 -8.51788e-19)
(0.127404 -0.069886 -3.52402e-19)
(0.147659 -0.0775875 0)
(0.162497 -0.0718936 5.09704e-19)
(0.169335 -0.0558742 0)
(0.16782 -0.035034 -4.95273e-19)
(0.15872 -0.0162933 0)
(0.142887 -0.0039629 0)
(0.119986 0.00328669 6.34911e-19)
(0.0839999 0.0101314 0)
(0.0245357 0.0238178 2.45333e-18)
(-0.0717751 0.056141 -6.13933e-19)
(-0.194438 0.100183 0)
(-0.327995 0.145648 -2.62484e-19)
(-0.467745 0.189043 -1.95145e-19)
(-0.613766 0.225132 0)
(-0.76078 0.252266 0)
(-0.905563 0.270874 0)
(-1.0459 0.280912 0)
(-1.17804 0.282868 0)
(-1.30064 0.277427 8.33401e-20)
(-1.41031 0.265977 1.5674e-19)
(-1.5085 0.250769 -7.37234e-20)
(-1.59519 0.232965 0)
(-1.67189 0.214446 1.36462e-19)
(-1.73976 0.195926 -6.64388e-20)
(-1.80053 0.178203 0)
(-1.85524 0.161789 -6.23521e-20)
(-1.90492 0.147002 0)
(-1.95052 0.133871 0)
(-1.99272 0.122294 -1.17388e-19)
(-2.03219 0.112182 5.75915e-20)
(-2.06932 0.10337 -1.13362e-19)
(-2.10447 0.0956913 1.11563e-19)
(-2.13787 0.0889703 5.49371e-20)
(-2.16972 0.0830575 0)
(-2.20015 0.0778137 5.33921e-20)
(-2.22927 0.0731241 0)
(-2.25716 0.068888 0)
(-2.28388 0.0650264 0)
(-2.30948 0.0614699 5.05342e-20)
(-2.33399 0.0581675 0)
(-2.35744 0.0550728 9.85932e-20)
(-2.37986 0.0521541 -1.46068e-19)
(-2.40125 0.0493802 -4.81061e-20)
(-2.42164 0.046732 0)
(-2.44103 0.0441876 -4.68988e-20)
(-2.45943 0.0417353 0)
(-2.47683 0.0393586 -9.14184e-20)
(-2.49325 0.0370501 0)
(-2.50867 0.0347976 -8.90564e-20)
(-2.52312 0.0325971 1.7563e-19)
(-2.53657 0.0304419 8.66994e-20)
(-2.54902 0.0283278 0)
(-2.56045 0.0262487 0)
(-2.57086 0.0241954 0)
(-2.58024 0.0221556 -8.1952e-20)
(-2.58859 0.0201241 0)
(-2.5959 0.0180901 7.954e-20)
(-2.60218 0.0160485 0)
(-2.60744 0.0139886 -2.31274e-19)
(-2.61169 0.0119007 -7.58574e-20)
(-2.61495 0.0097785 -7.46126e-20)
(-2.61728 0.00762505 0)
(-2.61875 0.00548206 0)
(-2.61946 0.00341095 0)
(-2.61947 0.00149109 0)
(-2.61833 -0.000323276 0)
(-2.61598 -0.00209638 -1.33607e-19)
(-2.61238 -0.00385002 -1.30832e-19)
(-2.6075 -0.00558452 0)
(-2.60133 -0.00731141 6.2481e-20)
(-2.59386 -0.00901874 6.10082e-20)
(-2.58507 -0.0107167 0)
(-2.57495 -0.0123909 1.162e-19)
(-2.56349 -0.0140513 0)
(-2.55069 -0.015683 -5.51138e-20)
(-2.53654 -0.0172953 0)
(-2.52104 -0.0188741 0)
(-2.5042 -0.0204275 1.00014e-19)
(-2.48601 -0.0219428 0)
(-2.46648 -0.0234269 -4.6306e-20)
(-2.44562 -0.0248691 0)
(-2.42343 -0.0262746 0)
(-2.39994 -0.0276355 -4.12062e-20)
(-2.37516 -0.0289545 -3.87802e-20)
(-2.34911 -0.0302267 0)
(-2.32179 -0.0314522 3.53075e-20)
(-2.29325 -0.0326291 0)
(-2.26349 -0.0337546 -3.11527e-20)
(-2.23255 -0.0348302 -5.74074e-20)
(-2.20046 -0.0358507 0)
(-2.16723 -0.0368212 0)
(-2.13291 -0.0377347 0)
(-2.09752 -0.0385975 0)
(-2.06112 -0.0394067 -3.3784e-20)
(-2.02375 -0.0401663 -8.81511e-20)
(-1.98544 -0.0408622 0)
(-1.9462 -0.0415035 0)
(-1.90604 -0.0420976 0)
(-1.86499 -0.0426673 8.48193e-21)
(-1.82309 -0.0432096 0)
(-1.7804 -0.0437198 0)
(-1.73703 -0.0441451 1.39974e-20)
(-1.69298 -0.0444918 1.18055e-20)
(-1.64825 -0.0447706 1.9059e-20)
(-1.60287 -0.0450012 0)
(-1.55692 -0.0451837 0)
(-1.51044 -0.0453388 3.66406e-20)
(-1.46347 -0.0454559 -4.10347e-20)
(-1.41604 -0.0455475 0)
(-1.36817 -0.0456035 0)
(-1.31989 -0.0456347 -6.1296e-20)
(-1.27121 -0.0456355 2.01386e-19)
(-1.22215 -0.0456136 0)
(-1.17271 -0.0455652 0)
(-1.12292 -0.0454964 8.74293e-20)
(-1.07281 -0.0454022 0)
(-1.02237 -0.0452895 2.00483e-19)
(-0.971655 -0.0451591 -1.06378e-19)
(-0.920664 -0.0450166 0)
(-0.869417 -0.0448666 1.22377e-19)
(-0.817918 -0.0447165 2.57679e-19)
(-0.766171 -0.044569 0)
(-0.714171 -0.0444322 0)
(-0.661909 -0.0443071 -1.52378e-19)
(-0.609371 -0.0441987 0)
(-0.556543 -0.0441042 3.34588e-19)
(-0.503413 -0.0440248 0)
(-0.449967 -0.0439577 0)
(-0.396196 -0.0439058 0)
(-0.342085 -0.04387 0)
(-0.287619 -0.0438551 -2.10452e-19)
(-0.232776 -0.0438634 -2.19469e-19)
(-0.177536 -0.0438983 0)
(-0.121875 -0.043957 0)
(-0.065781 -0.0440291 0)
(-0.00926465 -0.0440917 2.56331e-19)
(0.0476386 -0.0441061 0)
(0.104888 -0.0440328 -5.21434e-19)
(0.162392 -0.0438065 5.2244e-19)
(0.219872 -0.0432496 5.23533e-19)
(0.277247 -0.0419581 5.21701e-19)
(0.332137 -0.0395821 5.27383e-19)
(0.389659 -0.0352702 5.29457e-19)
(0.425132 -0.0221887 0)
(0.00031035 0.023703 0)
(0.000741899 0.041189 0)
(0.0066905 0.033424 -2.29996e-18)
(0.0275265 -0.00152936 -1.59662e-18)
(0.0683151 -0.06318 9.45127e-19)
(0.120876 -0.130554 6.13961e-19)
(0.174567 -0.1835 -3.77481e-22)
(0.222437 -0.21352 0)
(0.261907 -0.221704 0)
(0.293069 -0.213462 0)
(0.317208 -0.194726 0)
(0.335815 -0.170272 0)
(0.35012 -0.143323 -7.04852e-19)
(0.360988 -0.115776 0)
(0.368986 -0.0886422 2.24909e-19)
(0.374489 -0.0623922 2.24351e-19)
(0.377762 -0.0372056 0)
(0.379002 -0.0131473 0)
(0.37846 0.00981644 0)
(0.376469 0.0318627 0)
(0.373298 0.0531433 2.38895e-19)
(0.369133 0.0736016 0)
(0.363903 0.0928695 -2.55918e-19)
(0.357222 0.110193 0)
(0.348402 0.124439 0)
(0.336578 0.134165 0)
(0.320943 0.137853 -6.40195e-19)
(0.301142 0.134263 0)
(0.277691 0.122863 3.79806e-19)
(0.252178 0.104002 -8.46966e-19)
(0.227166 0.0788119 0)
(0.205632 0.0487092 0)
(0.190202 0.0154323 0)
(0.181084 -0.0200465 6.23358e-19)
(0.177152 -0.0541712 5.49369e-19)
(0.171555 -0.0763352 0)
(0.157545 -0.0771962 0)
(0.134992 -0.0598807 -7.54172e-19)
(0.10488 -0.0321899 -7.75504e-19)
(0.0675193 0.00119848 8.6428e-19)
(0.0205432 0.0354662 0)
(-0.0469516 0.0678517 0)
(-0.140541 0.107483 0)
(-0.254065 0.15798 0)
(-0.383901 0.213822 -3.93457e-19)
(-0.524268 0.270401 -3.11745e-19)
(-0.667421 0.323635 2.5571e-19)
(-0.807636 0.368637 0)
(-0.940736 0.403968 0)
(-1.06306 0.428698 0)
(-1.17292 0.441959 0)
(-1.26972 0.444393 -1.42204e-19)
(-1.3531 0.436955 0)
(-1.42403 0.420922 0)
(-1.48465 0.398078 -1.19143e-19)
(-1.53716 0.371096 -1.12624e-19)
(-1.58377 0.342442 0)
(-1.62585 0.313517 2.10801e-19)
(-1.66476 0.285557 -1.01217e-19)
(-1.70158 0.259309 9.83921e-20)
(-1.73712 0.235413 0)
(-1.77168 0.214077 0)
(-1.8054 0.195354 0)
(-1.83828 0.179035 0)
(-1.87035 0.164798 8.77381e-20)
(-1.90164 0.152383 1.72299e-19)
(-1.93212 0.141528 8.45158e-20)
(-1.96177 0.131997 -8.30483e-20)
(-1.99058 0.123564 0)
(-2.01853 0.116043 1.60577e-19)
(-2.04562 0.109272 1.58006e-19)
(-2.07183 0.103117 1.55539e-19)
(-2.09716 0.097468 -1.53161e-19)
(-2.12161 0.0922347 0)
(-2.14517 0.0873439 -2.23018e-19)
(-2.16785 0.0827377 0)
(-2.18964 0.0783685 7.20839e-20)
(-2.21055 0.0741997 7.11969e-20)
(-2.23057 0.0702001 0)
(-2.2497 0.0663464 0)
(-2.26793 0.0626175 1.36178e-19)
(-2.28527 0.0589979 0)
(-2.30172 0.055472 1.3225e-19)
(-2.31726 0.0520287 0)
(-2.33189 0.0486564 -1.28375e-19)
(-2.34562 0.0453472 -2.53005e-19)
(-2.35844 0.0420935 0)
(-2.37034 0.0388897 0)
(-2.3813 0.0357292 0)
(-2.39132 0.0326021 -1.18793e-19)
(-2.40039 0.0295 0)
(-2.40851 0.0264167 -1.14964e-19)
(-2.41568 0.0233486 0)
(-2.4219 0.0202948 0)
(-2.42716 0.0172551 2.18398e-19)
(-2.43147 0.0142384 0)
(-2.43483 0.0112529 1.05318e-19)
(-2.43723 0.00831535 0)
(-2.43864 0.00543064 1.01399e-19)
(-2.43901 0.0025935 0)
(-2.43828 -0.000240678 0)
(-2.43639 -0.00308393 0)
(-2.43332 -0.00591869 2.7915e-19)
(-2.42903 -0.00873665 9.08383e-20)
(-2.42352 -0.0115394 0)
(-2.41675 -0.0143216 0)
(-2.40872 -0.0170831 0)
(-2.39941 -0.0198183 0)
(-2.3888 -0.022525 -7.9678e-20)
(-2.3769 -0.0251978 1.55122e-19)
(-2.36368 -0.0278333 7.49853e-20)
(-2.34916 -0.0304266 -1.45659e-19)
(-2.33332 -0.0329732 -1.40812e-19)
(-2.31617 -0.0354688 -6.76618e-20)
(-2.2977 -0.0379086 0)
(-2.27793 -0.0402894 -1.25779e-19)
(-2.25687 -0.0426063 0)
(-2.23451 -0.0448572 1.1533e-19)
(-2.21088 -0.0470377 5.46249e-20)
(-2.18599 -0.0491462 0)
(-2.15986 -0.0511785 -9.89951e-20)
(-2.1325 -0.0531334 -4.62807e-20)
(-2.10394 -0.0550072 0)
(-2.0742 -0.0567985 -4.13667e-20)
(-2.0433 -0.0585044 1.13531e-19)
(-2.01127 -0.0601239 0)
(-1.97814 -0.0616549 0)
(-1.94394 -0.0630961 0)
(-1.9087 -0.0644482 0)
(-1.87246 -0.0657132 4.53238e-20)
(-1.83527 -0.0668874 3.79335e-20)
(-1.79714 -0.0679585 0)
(-1.7581 -0.0689213 0)
(-1.71817 -0.0697804 0)
(-1.67739 -0.070548 0)
(-1.63579 -0.0712449 0)
(-1.59346 -0.0718933 0)
(-1.55045 -0.072467 -8.71828e-21)
(-1.50677 -0.0729434 -1.13008e-21)
(-1.46243 -0.073325 0)
(-1.41747 -0.0736272 0)
(-1.37195 -0.0738586 -3.54295e-20)
(-1.3259 -0.0740325 0)
(-1.27935 -0.074148 5.07531e-20)
(-1.23235 -0.0742121 5.67253e-20)
(-1.18491 -0.0742237 0)
(-1.13706 -0.0741883 0)
(-1.08881 -0.0741065 -7.9492e-20)
(-1.04018 -0.0739846 -1.71168e-19)
(-0.991183 -0.0738217 0)
(-0.941832 -0.073624 0)
(-0.892146 -0.0733891 0)
(-0.842146 -0.0731217 -1.16066e-19)
(-0.791849 -0.0728251 1.23456e-19)
(-0.741271 -0.0725063 0)
(-0.690424 -0.0721723 2.74263e-19)
(-0.639314 -0.0718334 1.4342e-19)
(-0.587942 -0.071495 -3.04108e-19)
(-0.536303 -0.0711676 0)
(-0.48439 -0.070854 0)
(-0.432187 -0.0705604 -3.49163e-19)
(-0.379682 -0.0702838 -1.83297e-19)
(-0.326858 -0.0700244 0)
(-0.273704 -0.069778 0)
(-0.220208 -0.0695472 0)
(-0.166354 -0.0693335 0)
(-0.112126 -0.0691422 -4.40597e-19)
(-0.0575041 -0.0689751 0)
(-0.00247116 -0.0688331 0)
(0.0529912 -0.0687094 0)
(0.108906 -0.0685909 0)
(0.165281 -0.0684507 0)
(0.222101 -0.0682441 0)
(0.279309 -0.0679132 -5.04314e-19)
(0.336817 -0.0673603 0)
(0.394398 -0.066399 0)
(0.452031 -0.0647054 -1.0454e-18)
(0.508104 -0.0617565 5.28114e-19)
(0.566517 -0.0564789 -5.39036e-19)
(0.612288 -0.0433432 5.50538e-19)
(-0.00121564 0.023888 0)
(0.00197791 0.0276645 5.00011e-18)
(0.0245766 -0.0163165 0)
(0.0738608 -0.10215 8.41908e-19)
(0.136021 -0.191708 0)
(0.194422 -0.256108 0)
(0.239822 -0.286951 -3.17758e-19)
(0.271137 -0.289595 0)
(0.291313 -0.27376 0)
(0.30407 -0.247915 0)
(0.312337 -0.217581 0)
(0.317949 -0.1858 0)
(0.321884 -0.154084 7.95843e-19)
(0.324586 -0.123125 3.91497e-19)
(0.326208 -0.0932248 -3.89055e-19)
(0.326788 -0.0645171 0)
(0.326333 -0.0370593 0)
(0.324856 -0.0108882 0)
(0.32241 0.0139862 0)
(0.319089 0.0375984 0)
(0.31504 0.0599953 4.21229e-19)
(0.310486 0.0811915 4.32487e-19)
(0.305649 0.101102 -4.48308e-19)
(0.300646 0.119418 4.6993e-19)
(0.295391 0.135501 0)
(0.289549 0.148309 0)
(0.282521 0.156385 5.69155e-19)
(0.27355 0.158003 0)
(0.26202 0.151567 0)
(0.247734 0.135936 7.33624e-19)
(0.231322 0.110887 8.18746e-19)
(0.213905 0.0774363 9.26712e-19)
(0.196852 0.0378434 0)
(0.179333 -0.00327253 0)
(0.15428 -0.0335996 -9.41593e-19)
(0.116722 -0.0396215 0)
(0.0683822 -0.0220182 0)
(0.00992196 0.0123602 7.53731e-19)
(-0.0618033 0.0580895 -6.72245e-19)
(-0.14967 0.113408 5.38298e-19)
(-0.252494 0.175614 0)
(-0.369402 0.240072 0)
(-0.496566 0.305041 5.77418e-19)
(-0.628008 0.369066 0)
(-0.758141 0.428413 4.1372e-19)
(-0.881823 0.47786 5.4464e-19)
(-0.994253 0.515292 -4.85688e-19)
(-1.09321 0.540738 2.93683e-19)
(-1.17801 0.554081 0)
(-1.24851 0.556117 0)
(-1.30618 0.548066 2.33291e-19)
(-1.3529 0.531447 1.08794e-19)
(-1.39091 0.508019 0)
(-1.42277 0.479606 0)
(-1.4509 0.448149 9.37287e-20)
(-1.47718 0.415604 1.81449e-19)
(-1.50289 0.383522 0)
(-1.52874 0.352794 -1.67446e-19)
(-1.55513 0.324051 1.63155e-19)
(-1.58222 0.297641 -1.58332e-19)
(-1.60998 0.273738 0)
(-1.63826 0.252313 0)
(-1.66683 0.233284 0)
(-1.69547 0.216434 0)
(-1.72397 0.201501 0)
(-1.7522 0.188244 -1.36944e-19)
(-1.78002 0.176432 0)
(-1.80733 0.16585 0)
(-1.83405 0.156305 0)
(-1.86013 0.147629 -2.54557e-19)
(-1.88551 0.139677 -1.25139e-19)