/*--------------------------------*- C++ -*----------------------------------*\
  =========                 |
  \\      /  F ield         | OpenFOAM: The Open Source CFD Toolbox
   \\    /   O peration     | Website:  https://openfoam.org
    \\  /    A nd           | Version:  8
     \\/     M anipulation  |
\*---------------------------------------------------------------------------*/
FoamFile
{
    version     2.0;
    format      ascii;
    class       volScalarField;
    location    "400";
    object      k;
}
// * * * * * * * * * * * * * * * * * * * * * * * * * * * * * * * * * * * * * //

dimensions      [0 2 -2 0 0 0 0];

internalField   nonuniform List<scalar> 
12225
(
0.362411
0.34386
0.327019
0.30939
0.294609
0.28334
0.275059
0.271277
0.271609
0.274482
0.279657
0.285231
0.295737
0.302331
0.314525
0.320997
0.334506
0.336642
0.443848
0.475221
0.467981
0.456049
0.458799
0.468207
0.486748
0.513808
0.541701
0.572398
0.602766
0.630466
0.659276
0.680846
0.707273
0.721465
0.746604
0.753202
0.390842
0.42004
0.42329
0.420248
0.415154
0.411696
0.412119
0.414512
0.419551
0.427175
0.436859
0.446634
0.458481
0.469049
0.481162
0.492077
0.502686
0.514498
0.377524
0.386525
0.391542
0.391902
0.391029
0.389034
0.386967
0.385495
0.38438
0.38443
0.38489
0.385893
0.387748
0.389866
0.392253
0.39537
0.39767
0.401619
0.374426
0.375539
0.377734
0.378179
0.377875
0.377023
0.375507
0.373905
0.372282
0.370792
0.369596
0.368449
0.367659
0.367009
0.366547
0.366317
0.366137
0.366298
0.373811
0.372365
0.372054
0.371647
0.370985
0.370111
0.368963
0.36762
0.366219
0.36473
0.363342
0.361935
0.360648
0.359423
0.358279
0.357262
0.356245
0.355462
0.37381
0.371634
0.370037
0.368729
0.367529
0.366349
0.365152
0.363876
0.362592
0.361249
0.359935
0.35861
0.357325
0.356074
0.354856
0.353712
0.352573
0.351553
0.373831
0.371553
0.369559
0.367811
0.366247
0.364792
0.363421
0.36207
0.360757
0.359445
0.358163
0.356896
0.355658
0.354454
0.353276
0.352153
0.351042
0.350011
0.373834
0.371556
0.36944
0.367496
0.365721
0.364076
0.362547
0.361093
0.359709
0.358371
0.35708
0.355828
0.354611
0.353438
0.352293
0.351199
0.350124
0.349114
0.373832
0.371561
0.369418
0.3674
0.365516
0.363751
0.362102
0.360547
0.35908
0.357684
0.356353
0.355081
0.353859
0.352688
0.351558
0.350479
0.34943
0.348439
0.373829
0.371561
0.369413
0.367378
0.365454
0.363637
0.361923
0.360304
0.358772
0.357322
0.355944
0.354636
0.353388
0.352199
0.351061
0.349978
0.348933
0.347946
0.373828
0.371558
0.369408
0.367369
0.365436
0.363602
0.361864
0.360216
0.358652
0.357168
0.355759
0.35442
0.353145
0.351934
0.350778
0.349679
0.348626
0.347628
0.373827
0.371555
0.369403
0.367362
0.365425
0.363587
0.361842
0.360184
0.358608
0.357111
0.355686
0.354332
0.353042
0.351815
0.350645
0.349532
0.348468
0.347457
0.373826
0.371554
0.369399
0.367356
0.365417
0.363576
0.361828
0.360167
0.358587
0.357085
0.355655
0.354294
0.352998
0.351763
0.350586
0.349465
0.348395
0.347376
0.373826
0.371552
0.369396
0.367351
0.365411
0.363568
0.361818
0.360154
0.358572
0.357068
0.355635
0.354272
0.352972
0.351735
0.350555
0.34943
0.348357
0.347334
0.373825
0.371551
0.369394
0.367348
0.365406
0.363562
0.36181
0.360145
0.358561
0.357055
0.355621
0.354255
0.352955
0.351715
0.350533
0.349407
0.348332
0.347306
0.373825
0.371551
0.369393
0.367346
0.365403
0.363558
0.361805
0.360139
0.358554
0.357046
0.355611
0.354244
0.352942
0.351701
0.350518
0.34939
0.348314
0.347287
0.373825
0.37155
0.369393
0.367345
0.365402
0.363556
0.361803
0.360136
0.35855
0.357042
0.355606
0.354238
0.352935
0.351694
0.35051
0.349381
0.348304
0.347277
0.373825
0.37155
0.369393
0.367345
0.365402
0.363557
0.361803
0.360136
0.35855
0.357042
0.355606
0.354238
0.352935
0.351693
0.350509
0.34938
0.348303
0.347275
0.373825
0.371551
0.369393
0.367347
0.365404
0.363559
0.361805
0.360139
0.358554
0.357045
0.35561
0.354242
0.35294
0.351698
0.350515
0.349386
0.348309
0.347282
0.373825
0.371551
0.369395
0.367349
0.365407
0.363562
0.36181
0.360145
0.358561
0.357054
0.355621
0.354255
0.352955
0.351716
0.350535
0.349409
0.348336
0.347311
0.373826
0.371552
0.369396
0.367351
0.365411
0.36357
0.361822
0.360162
0.358586
0.357087
0.355663
0.354307
0.353017
0.351787
0.350616
0.349498
0.348433
0.347415
0.373826
0.371553
0.369398
0.367358
0.365429
0.363606
0.361882
0.360251
0.358706
0.357239
0.355844
0.354516
0.353249
0.352039
0.350884
0.349778
0.348721
0.347706
0.373827
0.371549
0.369411
0.367419
0.365562
0.363829
0.3622
0.360661
0.359194
0.357791
0.356444
0.355147
0.353897
0.352692
0.351531
0.35041
0.349333
0.348292
0.373814
0.371554
0.369597
0.367867
0.366292
0.364819
0.36339
0.361983
0.360587
0.359204
0.357836
0.356491
0.355176
0.353893
0.352652
0.35145
0.350296
0.349182
0.373751
0.371959
0.370925
0.369944
0.368939
0.367791
0.366436
0.364949
0.363378
0.361776
0.360182
0.358618
0.357112
0.355668
0.354306
0.353011
0.35181
0.35067
0.374113
0.375061
0.376551
0.376424
0.375737
0.374152
0.372018
0.369791
0.36757
0.365465
0.36353
0.361772
0.360242
0.358891
0.357742
0.35674
0.355952
0.35525
0.377865
0.390851
0.393884
0.392213
0.388453
0.383663
0.37952
0.376231
0.37358
0.371743
0.370574
0.370031
0.370128
0.370467
0.371254
0.372334
0.373768
0.375231
0.402933
0.419146
0.414449
0.403761
0.395207
0.389469
0.388454
0.389397
0.391737
0.396189
0.4015
0.407649
0.414068
0.420921
0.427666
0.434629
0.441282
0.448111
0.366714
0.354827
0.344192
0.333282
0.322855
0.312975
0.304202
0.296722
0.290262
0.284951
0.280672
0.277303
0.274797
0.272931
0.271791
0.271023
0.270895
0.271065
0.000433888
0.00263906
0.00498874
0.00703956
0.00891082
0.0109498
0.0133297
0.0162233
0.0197824
0.0240596
0.0289998
0.0344881
0.0403763
0.0465319
0.0528241
0.0591591
0.0654382
0.071612
0.0776191
0.0834611
0.0891076
0.0946064
0.0999302
0.105122
0.110125
0.114921
0.119387
0.123412
0.126855
0.129586
0.13154
0.132642
0.132812
0.132296
0.131362
0.13047
0.13437
0.139485
0.143191
0.140942
0.144437
0.149696
0.153038
0.148899
0.158992
0.165431
0.173451
0.181061
0.189152
0.19725
0.2056
0.214062
0.222709
0.231498
0.240452
0.249557
0.258818
0.268232
0.277799
0.287516
0.297382
0.307395
0.317551
0.327848
0.338281
0.348848
0.359542
0.37036
0.381294
0.392341
0.403491
0.41474
0.426079
0.4375
0.448995
0.460556
0.472172
0.483835
0.495534
0.507259
0.519
0.530745
0.542483
0.554202
0.56589
0.577534
0.589121
0.600637
0.612066
0.623394
0.634601
0.64567
0.656579
0.667305
0.677827
0.688126
0.698192
0.708047
0.717773
0.727252
0.736519
0.745553
0.754353
0.762904
0.771198
0.779224
0.786972
0.794432
0.801595
0.808452
0.814994
0.821213
0.8271
0.832651
0.837855
0.842709
0.847206
0.851341
0.855108
0.858506
0.861529
0.864176
0.866443
0.868331
0.869839
0.870966
0.871714
0.872085
0.872079
0.871712
0.870952
0.869802
0.868191
0.866305
0.864154
0.861613
0.858695
0.855442
0.851854
0.847943
0.843718
0.839187
0.834361
0.829249
0.823862
0.818209
0.812303
0.806152
0.799768
0.793164
0.78635
0.779341
0.772147
0.764783
0.757261
0.749593
0.741794
0.733875
0.725851
0.717735
0.709544
0.701302
0.693053
0.685003
0.67887
0.675102
0.671608
0.668124
0.664629
0.661123
0.657607
0.654083
0.650545
0.646976
0.643341
0.639563
0.635484
0.630663
0.62411
0.599777
0.00227778
0.0100187
0.0154247
0.0194076
0.022871
0.026205
0.0297334
0.0336901
0.0382064
0.0433162
0.0489741
0.0550906
0.0615545
0.0682566
0.0750928
0.0819774
0.0888335
0.0956091
0.102262
0.108783
0.115169
0.121452
0.127645
0.133786
0.139864
0.145868
0.15172
0.157327
0.162601
0.167437
0.171828
0.17581
0.179771
0.184384
0.190862
0.200833
0.210348
0.219362
0.226897
0.231882
0.242613
0.256732
0.272291
0.282852
0.29495
0.307147
0.32
0.33313
0.346645
0.360477
0.374637
0.389108
0.403895
0.418993
0.434405
0.450129
0.466167
0.482519
0.499185
0.516166
0.533461
0.551069
0.568987
0.587215
0.605748
0.624584
0.643716
0.66314
0.682849
0.702837
0.723094
0.743613
0.764383
0.785393
0.806632
0.828087
0.849744
0.87159
0.893609
0.915786
0.938103
0.960542
0.983086
1.00572
1.02841
1.05115
1.07391
1.09666
1.1194
1.14208
1.16469
1.18719
1.20955
1.23174
1.25372
1.27544
1.29684
1.31787
1.33845
1.35872
1.3787
1.39837
1.4177
1.43667
1.45527
1.47347
1.49124
1.50858
1.52546
1.54185
1.55774
1.57311
1.58794
1.60221
1.61591
1.62902
1.64153
1.65342
1.66467
1.67528
1.68524
1.69453
1.70314
1.71107
1.71831
1.72486
1.73071
1.73585
1.7403
1.74405
1.7471
1.74943
1.75085
1.7516
1.75191
1.75152
1.75035
1.7485
1.74598
1.7428
1.73897
1.73451
1.72943
1.72374
1.71747
1.71062
1.70322
1.69528
1.68682
1.67786
1.66842
1.65852
1.64819
1.63745
1.62632
1.61482
1.60298
1.59082
1.57837
1.56564
1.55268
1.5395
1.52615
1.51271
1.49954
1.48673
1.47391
1.46103
1.4481
1.43514
1.42216
1.40919
1.39621
1.38324
1.37024
1.35717
1.34387
1.33026
1.3148
1.28071
0.00495376
0.017545
0.02485
0.0302262
0.0349588
0.0395514
0.0442952
0.0493777
0.0549034
0.0609035
0.0673502
0.0741792
0.0813075
0.0886505
0.0961267
0.103667
0.111213
0.118723
0.12617
0.133554
0.140886
0.148208
0.155559
0.162999
0.170563
0.178279
0.186147
0.194141
0.202253
0.210477
0.218892
0.227649
0.237025
0.247353
0.258834
0.271205
0.283354
0.295525
0.307861
0.320867
0.336027
0.352033
0.3683
0.38383
0.399839
0.416176
0.43296
0.450141
0.467723
0.485695
0.504053
0.522793
0.541913
0.561412
0.58129
0.601546
0.622181
0.643194
0.664585
0.686352
0.708495
0.73101
0.753895
0.777147
0.80076
0.824729
0.849048
0.87371
0.898706
0.924027
0.949664
0.975604
1.00183
1.02834
1.05512
1.08214
1.10939
1.13686
1.16452
1.19236
1.22035
1.24848
1.27672
1.30505
1.33344
1.36187
1.39032
1.41874
1.44712
1.47543
1.50364
1.53171
1.55961
1.58732
1.6148
1.64201
1.66893
1.69553
1.72181
1.74774
1.7733
1.79846
1.82319
1.84747
1.87127
1.89455
1.91729
1.93946
1.96104
1.98199
2.0023
2.02194
2.04089
2.05912
2.07661
2.09334
2.1093
2.12445
2.13879
2.1523
2.16497
2.17678
2.18771
2.19777
2.20694
2.21522
2.2226
2.22908
2.23465
2.23931
2.24307
2.2459
2.2477
2.24857
2.24878
2.24808
2.24645
2.24394
2.24056
2.23634
2.23128
2.22542
2.21875
2.21131
2.20312
2.19419
2.18455
2.17422
2.16323
2.1516
2.13935
2.12652
2.11313
2.09921
2.08479
2.0699
2.05457
2.03884
2.02273
2.00628
1.98952
1.97248
1.95522
1.93781
1.92045
1.90321
1.88595
1.86862
1.85123
1.83381
1.81639
1.79898
1.78161
1.7643
1.74705
1.72989
1.71275
1.69567
1.67727
1.64764
0.0081365
0.0248842
0.0339489
0.0405323
0.0462637
0.051753
0.0573216
0.0631615
0.0693782
0.0760105
0.0830447
0.0904346
0.0981148
0.106018
0.114077
0.122237
0.130453
0.138696
0.146951
0.155227
0.163545
0.171955
0.180513
0.189284
0.198328
0.207688
0.217389
0.22743
0.237819
0.248564
0.259719
0.271383
0.283683
0.296748
0.310586
0.325045
0.339856
0.355055
0.370757
0.387145
0.404398
0.422243
0.440487
0.45895
0.477784
0.496996
0.516622
0.536669
0.557143
0.578046
0.599381
0.621146
0.643343
0.665973
0.689036
0.712534
0.736465
0.760832
0.785633
0.810868
0.836536
0.862634
0.88916
0.916109
0.943478
0.971259
0.999448
1.02803
1.05701
1.08637
1.11609
1.14617
1.1766
1.20735
1.23841
1.26976
1.30139
1.33327
1.36538
1.39771
1.43022
1.46289
1.4957
1.52862
1.56161
1.59466
1.62773
1.66079
1.6938
1.72674
1.75957
1.79226
1.82478
1.85709
1.88915
1.92095
1.95243
1.98359
2.01437
2.04475
2.0747
2.10417
2.13314
2.16157
2.18943
2.21667
2.24328
2.26921
2.29444
2.31892
2.34264
2.36557
2.38767
2.40892
2.4293
2.44877
2.46732
2.48492
2.50156
2.51721
2.53187
2.5455
2.55811
2.56968
2.58019
2.58965
2.59804
2.60537
2.61163
2.61681
2.62092
2.62394
2.62579
2.62657
2.62649
2.62533
2.6231
2.61984
2.61557
2.6103
2.60405
2.59685
2.58872
2.57968
2.56976
2.55897
2.54735
2.53493
2.52173
2.50778
2.49312
2.47777
2.46178
2.44517
2.42797
2.41024
2.39199
2.37327
2.35411
2.33455
2.31464
2.2944
2.27391
2.25323
2.23248
2.21175
2.19096
2.17009
2.14918
2.12824
2.10731
2.08642
2.06562
2.04495
2.02445
2.0042
1.98423
1.96466
1.94432
1.91706
0.0114324
0.031847
0.0425681
0.0502745
0.0568954
0.0631354
0.0693553
0.0757652
0.0824839
0.0895661
0.0970171
0.10481
0.112899
0.121233
0.129759
0.138437
0.14723
0.156122
0.165105
0.174193
0.183415
0.192817
0.202456
0.212398
0.222705
0.233423
0.24459
0.256217
0.268315
0.280894
0.293978
0.307618
0.321875
0.336806
0.35241
0.368632
0.385398
0.402686
0.420517
0.438929
0.457942
0.477504
0.497553
0.518038
0.538966
0.560339
0.582166
0.604456
0.627216
0.650452
0.674167
0.698365
0.72305
0.748224
0.773889
0.800047
0.826701
0.853851
0.881498
0.909642
0.938283
0.967419
0.997048
1.02717
1.05777
1.08885
1.12041
1.15243
1.1849
1.21782
1.25118
1.28495
1.31912
1.35368
1.38861
1.42389
1.4595
1.49541
1.5316
1.56805
1.60473
1.6416
1.67865
1.71584
1.75313
1.79049
1.8279
1.86531
1.90268
1.93999
1.97718
2.01424
2.05111
2.08776
2.12415
2.16024
2.19599
2.23137
2.26633
2.30082
2.33482
2.36828
2.40115
2.43341
2.465
2.4959
2.52605
2.55543
2.584
2.61172
2.63856
2.66448
2.68945
2.71344
2.73642
2.75837
2.77926
2.79906
2.81775
2.83531
2.85172
2.86697
2.88103
2.8939
2.90557
2.91602
2.92526
2.93327
2.94007
2.94564
2.94997
2.95307
2.95485
2.95546
2.955
2.95331
2.95043
2.94638
2.94118
2.93485
2.92741
2.91889
2.90932
2.89871
2.88711
2.87453
2.86101
2.84658
2.83128
2.81513
2.79818
2.78046
2.762
2.74286
2.72306
2.70265
2.68167
2.66016
2.63816
2.61571
2.59286
2.56966
2.54617
2.52244
2.49859
2.47466
2.45065
2.42657
2.40244
2.37829
2.35417
2.33013
2.30623
2.28253
2.25912
2.23611
2.21361
2.19178
2.16963
2.14292
0.0146291
0.0382545
0.050477
0.0592132
0.0666365
0.073531
0.080295
0.0871595
0.09426
0.101669
0.109413
0.117484
0.125856
0.134496
0.143366
0.152436
0.161684
0.171098
0.180678
0.190442
0.200416
0.210646
0.221182
0.232083
0.243407
0.255201
0.267504
0.280336
0.293711
0.307637
0.322124
0.337196
0.352876
0.36919
0.386143
0.403722
0.421899
0.440655
0.459983
0.479881
0.500352
0.52138
0.542948
0.565037
0.587639
0.61075
0.634375
0.658517
0.683183
0.70838
0.734113
0.760387
0.787208
0.81458
0.842508
0.870996
0.900045
0.92966
0.959842
0.990592
1.02191
1.0538
1.08626
1.11928
1.15286
1.18699
1.22168
1.25691
1.29266
1.32894
1.36572
1.403
1.44075
1.47896
1.51761
1.55667
1.59612
1.63594
1.67609
1.71656
1.7573
1.79829
1.83949
1.88087
1.92239
1.96401
2.00569
2.0474
2.08908
2.1307
2.17222
2.21359
2.25476
2.2957
2.33635
2.37667
2.41661
2.45613
2.49517
2.5337
2.57165
2.609
2.64569
2.68168
2.71692
2.75137
2.78497
2.81771
2.84952
2.88037
2.91022
2.93903
2.96677
2.9934
3.01889
3.04321
3.06633
3.08822
3.10886
3.12822
3.14629
3.16304
3.17846
3.19253
3.20526
3.21661
3.2266
3.23521
3.24245
3.24832
3.2528
3.25591
3.25753
3.25791
3.257
3.25474
3.25116
3.24627
3.2401
3.23267
3.22401
3.21415
3.20311
3.19093
3.17764
3.16327
3.14786
3.13144
3.11405
3.09573
3.07652
3.05646
3.0356
3.01397
2.99162
2.9686
2.94495
2.92072
2.89596
2.8707
2.84501
2.81893
2.79251
2.76584
2.73898
2.712
2.68492
2.65775
2.63053
2.60331
2.57614
2.54909
2.52223
2.49565
2.46946
2.44382
2.41888
2.39482
2.37075
2.34338
0.0175951
0.0439678
0.0575082
0.0671592
0.0752929
0.0827576
0.0899831
0.0972188
0.104616
0.112265
0.120209
0.128462
0.137016
0.145855
0.154955
0.1643
0.173876
0.18368
0.193717
0.204005
0.214571
0.225453
0.236697
0.248352
0.260468
0.273089
0.286252
0.29998
0.314291
0.329193
0.344694
0.360802
0.377527
0.394881
0.412867
0.431484
0.450723
0.470573
0.491028
0.512081
0.533732
0.555975
0.578803
0.60221
0.626192
0.650747
0.675878
0.701588
0.727885
0.754775
0.782265
0.810362
0.839073
0.868406
0.898364
0.928956
0.960185
0.992057
1.02457
1.05774
1.09156
1.12603
1.16115
1.19692
1.23333
1.27039
1.30809
1.34641
1.38534
1.42489
1.46502
1.50573
1.54699
1.5888
1.63111
1.67392
1.71718
1.76088
1.80499
1.84946
1.89427
1.93937
1.98473
2.03032
2.07608
2.12197
2.16794
2.21396
2.25997
2.30593
2.35178
2.39748
2.44297
2.4882
2.53311
2.57766
2.62179
2.66544
2.70856
2.7511
2.793
2.83422
2.8747
2.91439
2.95325
2.99121
3.02824
3.06428
3.09929
3.13322
3.16604
3.19769
3.22814
3.25735
3.28529
3.31191
3.3372
3.36112
3.38363
3.40473
3.42438
3.44256
3.45927
3.47447
3.48817
3.50036
3.51102
3.52016
3.52777
3.53386
3.53843
3.54147
3.5429
3.54297
3.54156
3.53867
3.53432
3.52854
3.52136
3.51279
3.50287
3.49163
3.47911
3.46533
3.45033
3.43415
3.41683
3.39842
3.37894
3.35845
3.33699
3.31461
3.29134
3.26725
3.24238
3.21678
3.19049
3.16358
3.13608
3.10806
3.07956
3.05064
3.02136
2.99178
2.96199
2.93202
2.90194
2.87176
2.84154
2.81133
2.7812
2.75121
2.72147
2.69208
2.66318
2.63494
2.60757
2.5812
2.55504
2.52624
0.0202352
0.0488967
0.0635536
0.0739865
0.0827281
0.0906778
0.0982894
0.105827
0.113454
0.121276
0.129353
0.137715
0.146372
0.155322
0.164559
0.174076
0.183869
0.193942
0.204304
0.214973
0.225976
0.237346
0.24912
0.26134
0.274047
0.287281
0.301073
0.31545
0.330428
0.346021
0.362234
0.379076
0.396551
0.414665
0.43342
0.45282
0.472863
0.493546
0.514867
0.536824
0.559417
0.582646
0.60651
0.631008
0.656142
0.681912
0.708324
0.735383
0.763097
0.791473
0.82052
0.850248
0.880665
0.91178
0.943602
0.976137
1.00939
1.04338
1.0781
1.11356
1.14975
1.1867
1.22439
1.26282
1.30199
1.3419
1.38254
1.4239
1.46598
1.50875
1.55221
1.59633
1.6411
1.68649
1.73248
1.77903
1.82613
1.87373
1.9218
1.97031
2.01921
2.06846
2.11802
2.16784
2.21787
2.26807
2.31838
2.36874
2.41911
2.46943
2.51964
2.56969
2.61951
2.66904
2.71822
2.767
2.81531
2.86309
2.91028
2.95682
3.00265
3.04772
3.09197
3.13533
3.17777
3.21921
3.25961
3.29891
3.33707
3.37403
3.40975
3.44418
3.47727
3.50899
3.53931
3.56817
3.59554
3.6214
3.64572
3.66847
3.68962
3.70916
3.72706
3.74332
3.75791
3.77084
3.7821
3.79169
3.7996
3.80584
3.81042
3.81331
3.81451
3.81418
3.81221
3.80864
3.80348
3.79676
3.78852
3.77877
3.76755
3.75491
3.74086
3.72546
3.70873
3.69073
3.6715
3.65108
3.62952
3.60686
3.58316
3.55846
3.53282
3.50629
3.47892
3.45076
3.42187
3.3923
3.36212
3.33136
3.3001
3.26839
3.23628
3.20385
3.17117
3.13829
3.10527
3.07216
3.039
3.00587
2.97283
2.93998
2.90742
2.87527
2.84369
2.81289
2.78304
2.7543
2.72591
2.69542
0.0224882
0.0529985
0.0685623
0.0796339
0.0888731
0.0972183
0.105141
0.112915
0.120715
0.128656
0.136811
0.145226
0.153925
0.162922
0.17222
0.181824
0.191739
0.201975
0.212544
0.223465
0.234763
0.246466
0.258606
0.271219
0.28434
0.297999
0.312228
0.327048
0.34248
0.358538
0.375231
0.392569
0.410556
0.4292
0.448503
0.468472
0.489109
0.510417
0.532399
0.555057
0.578395
0.602417
0.627127
0.65253
0.67863
0.705435
0.732949
0.761183
0.790145
0.819846
0.850297
0.88151
0.913495
0.946263
0.979826
1.01419
1.04937
1.08538
1.12221
1.15988
1.19839
1.23775
1.27795
1.319
1.3609
1.40363
1.4472
1.49159
1.5368
1.58281
1.62959
1.67714
1.72543
1.77443
1.82411
1.87445
1.9254
1.97694
2.02901
2.08158
2.13461
2.18804
2.24182
2.29591
2.35024
2.40476
2.45941
2.51414
2.56888
2.62356
2.67812
2.7325
2.78664
2.84045
2.89388
2.94685
2.9993
3.05117
3.10237
3.15286
3.20256
3.25141
3.29935
3.34631
3.39224
3.43708
3.48076
3.52323
3.56443
3.60432
3.64284
3.67994
3.71557
3.7497
3.78227
3.81325
3.84261
3.8703
3.89631
3.92059
3.94313
3.96391
3.9829
4.0001
4.01549
4.02907
4.04082
4.05076
4.05887
4.06517
4.06968
4.07235
4.07325
4.07244
4.06986
4.06554
4.05952
4.05182
4.04247
4.0315
4.01896
4.00487
3.98929
3.97225
3.9538
3.93397
3.91283
3.89042
3.86678
3.84198
3.81606
3.78908
3.76109
3.73216
3.70233
3.67166
3.64022
3.60806
3.57523
3.54181
3.50785
3.4734
3.43854
3.40333
3.36783
3.33212
3.29624
3.26027
3.22426
3.18829
3.15243
3.11678
3.08147
3.04662
3.01241
2.97904
2.94671
2.91554
2.88483
2.85258
0.0243211
0.0562695
0.072533
0.084098
0.0937209
0.102369
0.110527
0.118474
0.126392
0.134404
0.142592
0.151015
0.159708
0.168696
0.177993
0.187615
0.197571
0.207878
0.218551
0.229611
0.24108
0.252983
0.265348
0.278205
0.291581
0.305505
0.320003
0.335096
0.350805
0.367146
0.384133
0.401776
0.420086
0.439071
0.458739
0.479097
0.500153
0.521915
0.544389
0.567583
0.591506
0.616166
0.641571
0.66773
0.694653
0.72235
0.750832
0.78011
0.810197
0.841107
0.872853
0.905449
0.938909
0.973248
1.00848
1.04461
1.08166
1.11963
1.15854
1.19839
1.23919
1.28094
1.32365
1.36732
1.41194
1.45751
1.50402
1.55147
1.59983
1.6491
1.69925
1.75026
1.8021
1.85474
1.90815
1.9623
2.01715
2.07264
2.12874
2.1854
2.24256
2.30018
2.35819
2.41653
2.47515
2.53398
2.59295
2.652
2.71106
2.77005
2.82891
2.88756
2.94592
3.00393
3.06151
3.11857
3.17506
3.23089
3.28599
3.34029
3.39372
3.44622
3.4977
3.54811
3.59738
3.64544
3.69224
3.73772
3.7818
3.82445
3.86559
3.90519
3.94319
3.97954
4.0142
4.04714
4.0783
4.10766
4.13519
4.16085
4.18463
4.20649
4.22643
4.24443
4.26048
4.27456
4.28669
4.29685
4.30505
4.31131
4.31563
4.31802
4.31852
4.31715
4.31389
4.30877
4.30183
4.29309
4.2826
4.27039
4.2565
4.24097
4.22384
4.20517
4.18499
4.16336
4.14034
4.11596
4.09029
4.06339
4.03531
4.0061
3.97583
3.94456
3.91235
3.87925
3.84534
3.81066
3.77529
3.73929
3.70272
3.66564
3.62811
3.59022
3.55201
3.51357
3.47496
3.43624
3.39748
3.35877
3.32019
3.28184
3.24386
3.20639
3.1696
3.13371
3.0989
3.06529
3.03221
2.99799
0.0257243
0.0587382
0.0755065
0.0874234
0.0973165
0.106176
0.114491
0.122547
0.130529
0.138564
0.146744
0.155133
0.163778
0.172712
0.181961
0.191546
0.201483
0.211791
0.222487
0.233591
0.245124
0.257109
0.269571
0.282536
0.296028
0.310072
0.324692
0.339912
0.35575
0.372227
0.389357
0.407157
0.42564
0.444819
0.464706
0.485314
0.506655
0.528739
0.551579
0.575187
0.599576
0.624758
0.650747
0.677557
0.705203
0.7337
0.763061
0.793303
0.824443
0.856496
0.889482
0.923416
0.958315
0.994195
1.03107
1.06896
1.10787
1.14782
1.18882
1.23087
1.27399
1.31818
1.36344
1.40976
1.45716
1.50562
1.55513
1.60568
1.65726
1.70984
1.7634
1.81791
1.87335
1.92968
1.98686
2.04484
2.10359
2.16305
2.22318
2.28391
2.34519
2.40695
2.46914
2.53169
2.59452
2.65757
2.72077
2.78403
2.84728
2.91045
2.97345
3.03621
3.09864
3.16066
3.22219
3.28316
3.34347
3.40305
3.46182
3.51971
3.57663
3.63252
3.6873
3.74091
3.79326
3.8443
3.89396
3.94218
3.98888
4.03402
4.07754
4.11938
4.15948
4.19781
4.23432
4.26896
4.3017
4.33249
4.36132
4.38814
4.41294
4.43569
4.45638
4.47499
4.49151
4.50594
4.51827
4.52851
4.53667
4.54276
4.54678
4.54877
4.54876
4.54679
4.54276
4.53677
4.52886
4.51905
4.50739
4.49392
4.47867
4.46169
4.44304
4.42275
4.40089
4.3775
4.35264
4.32636
4.29873
4.26981
4.23964
4.2083
4.17585
4.14235
4.10786
4.07246
4.03619
3.99913
3.96134
3.92289
3.88385
3.84427
3.80422
3.76378
3.72301
3.68199
3.64078
3.59946
3.5581
3.51678
3.47561
3.4347
3.39417
3.35418
3.31491
3.27656
3.23932
3.2033
3.16786
3.1316
0.0267109
0.0604593
0.077552
0.0896889
0.0997449
0.108725
0.117121
0.125221
0.13321
0.141222
0.149353
0.157675
0.166241
0.175092
0.184256
0.193759
0.203622
0.213865
0.224507
0.23557
0.247072
0.259036
0.271485
0.284441
0.29793
0.311975
0.326599
0.341826
0.357676
0.374171
0.391332
0.409178
0.427726
0.446995
0.467004
0.487768
0.509305
0.531631
0.554762
0.578713
0.603503
0.629149
0.655668
0.683081
0.711409
0.74067
0.770886
0.802077
0.834264
0.867467
0.901708
0.937007
0.973382
1.01085
1.04943
1.08914
1.12999
1.172
1.21517
1.25952
1.30505
1.35177
1.39968
1.44877
1.49904
1.55049
1.60309
1.65684
1.71171
1.76768
1.82472
1.8828
1.94188
2.00192
2.06288
2.1247
2.18734
2.25074
2.31484
2.37957
2.44488
2.51069
2.57694
2.64354
2.71043
2.77752
2.84473
2.91199
2.97921
3.0463
3.11318
3.17976
3.24596
3.31169
3.37687
3.44139
3.50519
3.56818
3.63027
3.69138
3.75143
3.81035
3.86806
3.92448
3.97955
4.03319
4.08533
4.13591
4.18487
4.23214
4.27766
4.32139
4.36325
4.40322
4.44123
4.47726
4.51125
4.54317
4.573
4.6007
4.62625
4.64962
4.67081
4.6898
4.70658
4.72114
4.7335
4.74364
4.75159
4.75735
4.76095
4.76241
4.76181
4.75912
4.75426
4.74734
4.73841
4.7275
4.71466
4.69992
4.68332
4.66493
4.64478
4.62293
4.59944
4.57436
4.54776
4.51968
4.49019
4.45936
4.42724
4.3939
4.3594
4.32382
4.28722
4.24966
4.21121
4.17193
4.1319
4.09119
4.04985
4.00795
3.96557
3.92277
3.87963
3.83622
3.7926
3.74887
3.70509
3.66136
3.61778
3.57446
3.53154
3.48918
3.44755
3.40686
3.36727
3.32891
3.29119
3.25293
0.0273161
0.0615068
0.0787593
0.0909951
0.101113
0.110128
0.11853
0.12661
0.134559
0.142511
0.150561
0.158784
0.167237
0.175965
0.185002
0.194377
0.204114
0.214235
0.224761
0.235714
0.247116
0.258993
0.271364
0.284247
0.297664
0.311639
0.326194
0.341356
0.357148
0.373594
0.390717
0.408541
0.42709
0.446385
0.466451
0.48731
0.508986
0.531506
0.554901
0.579196
0.604404
0.630538
0.657608
0.68565
0.714695
0.744772
0.775905
0.808122
0.841447
0.875905
0.911521
0.948315
0.986309
1.02552
1.06597
1.10767
1.15064
1.19488
1.24041
1.28724
1.33537
1.3848
1.43553
1.48756
1.54087
1.59545
1.65129
1.70836
1.76663
1.82608
1.88667
1.94836
2.01111
2.07486
2.13957
2.20518
2.27163
2.33886
2.4068
2.47537
2.54452
2.61416
2.68422
2.75461
2.82525
2.89606
2.96695
3.03784
3.10863
3.17924
3.24958
3.31955
3.38906
3.45803
3.52636
3.59396
3.66075
3.72663
3.79152
3.85534
3.918
3.97942
4.03953
4.09825
4.15551
4.21123
4.26535
4.3178
4.36851
4.41742
4.46448
4.50962
4.55279
4.59395
4.63304
4.67003
4.70488
4.73755
4.76801
4.79623
4.8222
4.84588
4.86727
4.88636
4.90313
4.91759
4.92973
4.93958
4.94713
4.9524
4.95542
4.95621
4.95495
4.95143
4.94566
4.93776
4.92779
4.91576
4.90173
4.88574
4.86783
4.84807
4.8265
4.80317
4.77815
4.75149
4.72326
4.69351
4.66232
4.62974
4.59583
4.56067
4.52433
4.48686
4.44835
4.40885
4.36843
4.32717
4.28513
4.24237
4.19898
4.15501
4.11053
4.06562
4.02035
3.97478
3.92901
3.88309
3.83713
3.79121
3.74544
3.69993
3.65483
3.61028
3.56647
3.52359
3.4818
3.44123
3.40134
3.36121
0.0275448
0.0619261
0.0791984
0.0914298
0.101523
0.110498
0.118847
0.12686
0.134726
0.142583
0.150535
0.15866
0.167011
0.17563
0.184552
0.193808
0.203423
0.213419
0.223819
0.234642
0.245911
0.257645
0.269865
0.282597
0.295863
0.30969
0.324107
0.339141
0.354822
0.371176
0.388234
0.406024
0.424576
0.443919
0.464083
0.485099
0.506995
0.5298
0.553534
0.578222
0.603899
0.630595
0.658325
0.687131
0.717051
0.748123
0.780374
0.813832
0.848529
0.884496
0.921756
0.960332
1.00024
1.0415
1.08413
1.12814
1.17354
1.22034
1.26854
1.31815
1.36917
1.4216
1.47542
1.53062
1.5872
1.64512
1.70436
1.76489
1.82668
1.88969
1.95386
2.01916
2.08554
2.15293
2.22127
2.29051
2.36057
2.43138
2.50288
2.57499
2.64762
2.72069
2.79413
2.86785
2.94176
3.01577
3.08979
3.16374
3.23751
3.31102
3.38418
3.45688
3.52904
3.60057
3.67136
3.74134
3.81041
3.87848
3.94546
4.01128
4.07584
4.13907
4.20088
4.26121
4.31998
4.37712
4.43255
4.48622
4.53805
4.58799
4.63598
4.68195
4.72586
4.76767
4.80731
4.84476
4.87998
4.91293
4.94358
4.97191
4.99789
5.02151
5.04276
5.06162
5.07808
5.09216
5.10385
5.11316
5.12011
5.12471
5.127
5.12702
5.125
5.12052
5.11379
5.10488
5.09384
5.0807
5.06551
5.04832
5.02917
5.00813
4.98523
4.96055
4.93414
4.90606
4.87637
4.84514
4.81244
4.77832
4.74285
4.70611
4.66816
4.62907
4.5889
4.54773
4.50563
4.46266
4.41889
4.3744
4.32924
4.28349
4.23722
4.19049
4.14338
4.09597
4.04833
4.00053
3.95267
3.90485
3.85716
3.80972
3.76268
3.71618
3.67041
3.62555
3.58175
3.53916
3.49728
3.45545
0.0274984
0.0618813
0.079092
0.0912673
0.1013
0.110206
0.118474
0.126395
0.13416
0.141903
0.149725
0.157697
0.165881
0.17432
0.183054
0.192116
0.201531
0.211325
0.221519
0.232136
0.243199
0.254731
0.266757
0.279307
0.292411
0.306098
0.320397
0.33534
0.35096
0.367293
0.384375
0.402242
0.420929
0.440469
0.460897
0.482248
0.504562
0.527882
0.552228
0.577627
0.604096
0.631658
0.660402
0.690358
0.721556
0.754026
0.78781
0.822945
0.85947
0.897428
0.936836
0.977712
1.02007
1.06391
1.10925
1.15609
1.20444
1.25428
1.30562
1.35847
1.41279
1.46859
1.52585
1.58454
1.64463
1.70609
1.76889
1.83298
1.89833
1.96487
2.03256
2.10133
2.17114
2.24191
2.31358
2.38608
2.45933
2.53327
2.6078
2.68285
2.75835
2.8342
2.91033
2.98663
3.06303
3.13944
3.21576
3.29191
3.36778
3.4433
3.51836
3.59287
3.66675
3.73989
3.81221
3.88362
3.95402
4.02334
4.09149
4.15837
4.22392
4.28805
4.35068
4.41175
4.47117
4.52888
4.58482
4.6389
4.69109
4.7413
4.78949
4.8356
4.87958
4.92138
4.96095
4.99827
5.03329
5.06598
5.09632
5.12428
5.14984
5.17298
5.19369
5.21197
5.2278
5.2412
5.25217
5.26072
5.26686
5.27061
5.27201
5.27124
5.26826
5.26278
5.25506
5.24513
5.23304
5.21883
5.20255
5.18424
5.16396
5.14176
5.1177
5.09183
5.06422
5.03493
5.00401
4.97154
4.93758
4.9022
4.86546
4.82743
4.78818
4.74778
4.70629
4.66379
4.62034
4.57601
4.53087
4.48499
4.43844
4.39127
4.34356
4.29538
4.2468
4.1979
4.14874
4.09942
4.05001
4.00061
3.95133
3.90229
3.85361
3.80547
3.75801
3.71143
3.66588
3.6215
3.57786
3.53457
0.0273519
0.0616365
0.0786811
0.090706
0.100584
0.109325
0.117421
0.125163
0.132741
0.140292
0.147916
0.155688
0.163672
0.171918
0.180459
0.189326
0.198547
0.208147
0.218152
0.228588
0.239482
0.250861
0.262758
0.275205
0.288239
0.301897
0.316213
0.331224
0.34697
0.363492
0.380836
0.399053
0.418189
0.438276
0.459353
0.481455
0.504607
0.528804
0.554139
0.580673
0.608468
0.637588
0.668065
0.699928
0.73321
0.76794
0.804152
0.841873
0.881129
0.92194
0.964355
1.0084
1.05408
1.10135
1.15022
1.20067
1.25269
1.30626
1.36137
1.418
1.47612
1.53571
1.59673
1.65915
1.72292
1.788
1.85434
1.92189
1.9906
2.0604
2.13123
2.20304
2.27576
2.34931
2.42362
2.49863
2.57426
2.65044
2.72708
2.8041
2.88143
2.95899
3.03669
3.11444
3.19216
3.26977
3.34718
3.42429
3.50103
3.57729
3.653
3.72807
3.8024
3.87591
3.94851
4.02012
4.09064
4.16001
4.22813
4.29493
4.36032
4.42423
4.48659
4.54733
4.60638
4.66366
4.71912
4.77269
4.82431
4.87393
4.92149
4.96692
5.01019
5.05126
5.09006
5.12659
5.16079
5.19263
5.2221
5.24918
5.27383
5.29605
5.31583
5.33316
5.34803
5.36045
5.37045
5.37801
5.38315
5.38588
5.38628
5.38467
5.3806
5.37412
5.36541
5.3545
5.34142
5.32623
5.30897
5.28969
5.26845
5.24529
5.22027
5.19346
5.1649
5.13467
5.10283
5.06943
5.03455
4.99824
4.96058
4.92164
4.88147
4.84014
4.79774
4.75431
4.70993
4.66466
4.61858
4.57174
4.52421
4.47606
4.42735
4.37815
4.32853
4.27856
4.22831
4.17787
4.12732
4.07675
4.02627
3.976
3.92606
3.87661
3.82781
3.77983
3.73282
3.68695
3.64183
3.59737
0.0270383
0.0610867
0.0778622
0.0896603
0.0993167
0.107839
0.115717
0.123245
0.130615
0.137962
0.145387
0.152966
0.16076
0.168816
0.177173
0.185866
0.194925
0.204383
0.214271
0.22462
0.235465
0.246839
0.258782
0.271335
0.284543
0.298464
0.313152
0.328641
0.344978
0.362207
0.380367
0.399471
0.419566
0.440748
0.463084
0.486634
0.511463
0.537653
0.565235
0.594261
0.624784
0.656852
0.690497
0.725748
0.762629
0.801153
0.841332
0.883172
0.926679
0.971858
1.01871
1.06727
1.11753
1.16941
1.22288
1.27789
1.33442
1.39242
1.45187
1.51272
1.57493
1.63845
1.70325
1.76927
1.83645