/*--------------------------------*- C++ -*----------------------------------*\
| =========                 |                                                 |
| \\      /  F ield         | OpenFOAM: The Open Source CFD Toolbox           |
|  \\    /   O peration     | Version:  v2012                                 |
|   \\  /    A nd           | Website:  www.openfoam.com                      |
|    \\/     M anipulation  |                                                 |
\*---------------------------------------------------------------------------*/
FoamFile
{
    version     2.0;
    format      ascii;
    class       volScalarField;
    location    "2900";
    object      p;
}
// * * * * * * * * * * * * * * * * * * * * * * * * * * * * * * * * * * * * * //

dimensions      [0 2 -2 0 0 0 0];


internalField   nonuniform List<scalar> 
12225
(
514.684
55.5358
2.37175
0.290193
-1.88966
-3.36516
-3.80597
-4.00833
-4.21598
-4.36549
-4.40795
-4.40857
-4.40931
-4.43885
-4.49256
-4.5664
-4.72211
-4.93695
-122.171
0.246453
-2.71053
-0.756656
-2.20742
-3.5157
-3.94205
-4.12773
-4.26561
-4.3567
-4.42816
-4.48892
-4.54493
-4.58441
-4.6152
-4.64772
-4.72375
-4.84731
-200.638
-16.1409
-2.33863
-0.349965
-1.89186
-3.23545
-3.76065
-4.01469
-4.18619
-4.30233
-4.39591
-4.4656
-4.51626
-4.54487
-4.56575
-4.58524
-4.62389
-4.62127
-110.609
-10.9667
-2.16944
-0.4238
-1.77894
-3.01945
-3.59026
-3.90165
-4.11448
-4.25924
-4.36289
-4.43335
-4.48105
-4.51014
-4.53006
-4.54031
-4.54276
-4.47775
-61.5657
-8.1386
-3.61501
-1.20194
-2.00662
-2.98913
-3.51912
-3.843
-4.07034
-4.22634
-4.33487
-4.40876
-4.45881
-4.48976
-4.50636
-4.50528
-4.4804
-4.39063
-45.7238
-8.77815
-5.25135
-2.19248
-2.42161
-3.09225
-3.52753
-3.82814
-4.04838
-4.20396
-4.31407
-4.39058
-4.44226
-4.47298
-4.4852
-4.47515
-4.43517
-4.33984
-35.7878
-9.26951
-6.37329
-3.11713
-2.91392
-3.28166
-3.59586
-3.84983
-4.04872
-4.19575
-4.30298
-4.37899
-4.43024
-4.45979
-4.46894
-4.45443
-4.4099
-4.32148
-27.7714
-8.90045
-6.96697
-3.79571
-3.35442
-3.4911
-3.69367
-3.89568
-4.06783
-4.20184
-4.30286
-4.37604
-4.42585
-4.45458
-4.46294
-4.44846
-4.40671
-4.33058
-21.6835
-8.51357
-7.1279
-4.30391
-3.72218
-3.69936
-3.81029
-3.96064
-4.10309
-4.22087
-4.31312
-4.38176
-4.42934
-4.45728
-4.46594
-4.45369
-4.41793
-4.3556
-16.6064
-8.13442
-7.08181
-4.74915
-4.07697
-3.92835
-3.95391
-4.04888
-4.15686
-4.25432
-4.33483
-4.39707
-4.44155
-4.46879
-4.4789
-4.47109
-4.44444
-4.39885
-12.6328
-7.67479
-6.90006
-5.09577
-4.40102
-4.16485
-4.11709
-4.15779
-4.2292
-4.30358
-4.37006
-4.42439
-4.46518
-4.49208
-4.50498
-4.5038
-4.48894
-4.46186
-9.69305
-7.14286
-6.62338
-5.32088
-4.67323
-4.39205
-4.28994
-4.28308
-4.31916
-4.36963
-4.42087
-4.46641
-4.50336
-4.5305
-4.54757
-4.55489
-4.55349
-4.54554
-7.66026
-6.59896
-6.30033
-5.42608
-4.87795
-4.59246
-4.45932
-4.4168
-4.42276
-4.45116
-4.48769
-4.52472
-4.55827
-4.58655
-4.60898
-4.62597
-4.63867
-4.64909
-6.36528
-6.10742
-5.9802
-5.43498
-5.01077
-4.75288
-4.61182
-4.54863
-4.53311
-4.54416
-4.56865
-4.5988
-4.63027
-4.66077
-4.6895
-4.71655
-4.74289
-4.76987
-5.61711
-5.71685
-5.70359
-5.38558
-5.08085
-4.86819
-4.73727
-4.66805
-4.64139
-4.64192
-4.65885
-4.68518
-4.7166
-4.75068
-4.78629
-4.82321
-4.86183
-4.90292
-5.23784
-5.4547
-5.50272
-5.3223
-5.10994
-4.94309
-4.83103
-4.76627
-4.73781
-4.73516
-4.75001
-4.77642
-4.81045
-4.84963
-4.89257
-4.93868
-4.98783
-5.04023
-5.0966
-5.33878
-5.41155
-5.29366
-5.12979
-4.99082
-4.89334
-4.83558
-4.81061
-4.81053
-4.82845
-4.85911
-4.89872
-4.94476
-4.99562
-5.05034
-5.10841
-5.16964
-5.13419
-5.39448
-5.46866
-5.34266
-5.16896
-5.0234
-4.92325
-4.86618
-4.84432
-4.84924
-4.87343
-4.91126
-4.95858
-5.01262
-5.07144
-5.13389
-5.19918
-5.26693
-5.38626
-5.6487
-5.68453
-5.46953
-5.22052
-5.03032
-4.90942
-4.84648
-4.82755
-4.83986
-4.87349
-4.92123
-4.97826
-5.04131
-5.10835
-5.178
-5.24953
-5.32246
-5.99532
-6.13026
-6.03616
-5.62886
-5.24112
-4.98168
-4.83546
-4.77079
-4.76147
-4.78793
-4.83645
-4.89815
-4.96745
-5.041
-5.11679
-5.19366
-5.27096
-5.3485
-7.24266
-6.88262
-6.48743
-5.75537
-5.17697
-4.84734
-4.69118
-4.6415
-4.65576
-4.70652
-4.77676
-4.85656
-4.94049
-5.02556
-5.11038
-5.19423
-5.27688
-5.35843
-9.63391
-7.95743
-6.97559
-5.76515
-4.97331
-4.60654
-4.47702
-4.46936
-4.52486
-4.61062
-4.70852
-4.80937
-4.9089
-5.00548
-5.09872
-5.18878
-5.27597
-5.36076
-13.9749
-9.38371
-7.39592
-5.56259
-4.58838
-4.25862
-4.21025
-4.27575
-4.38869
-4.51703
-4.64544
-4.76769
-4.88188
-4.98839
-5.0884
-5.18325
-5.27378
-5.36083
-20.8824
-10.9465
-7.54675
-5.0501
-4.00934
-3.83018
-3.92528
-4.09026
-4.26964
-4.44158
-4.59869
-4.73955
-4.86564
-4.97918
-5.08335
-5.18091
-5.27339
-5.36156
-29.7289
-11.9418
-7.02593
-4.11881
-3.25735
-3.3722
-3.6662
-3.94302
-4.18645
-4.39606
-4.57532
-4.72942
-4.86258
-4.97955
-5.08495
-5.18319
-5.27599
-5.36418
-43.0989
-12.6063
-5.4651
-2.7215
-2.40638
-2.95741
-3.47924
-3.85789
-4.14996
-4.38457
-4.57723
-4.73697
-4.87146
-4.98735
-5.09127
-5.18894
-5.28118
-5.36847
-84.5918
-17.3658
-3.65633
-1.25787
-1.68895
-2.71555
-3.43075
-3.86442
-4.16749
-4.40404
-4.60103
-4.76294
-4.89382
-5.00177
-5.09899
-5.19527
-5.28653
-5.37174
-177.878
-26.8419
-3.67235
-0.76258
-1.52791
-2.83653
-3.6084
-4.00832
-4.25985
-4.45494
-4.64026
-4.808
-4.94265
-5.04169
-5.12262
-5.21151
-5.2982
-5.3773
-154.783
-9.61961
-3.26461
-1.06065
-1.83586
-3.21419
-3.9076
-4.21694
-4.40523
-4.54384
-4.68744
-4.8435
-4.99459
-5.11165
-5.19341
-5.27851
-5.35925
-5.43238
428.065
66.6132
7.06371
1.60702
-0.908373
-2.85019
-3.64572
-3.98686
-4.30331
-4.57259
-4.6969
-4.73562
-4.78521
-4.89277
-5.03411
-5.14116
-5.23291
-5.32595
-8.50538
-8.49258
-8.48252
-8.52444
-8.61734
-8.72031
-8.79923
-8.83814
-8.84088
-8.8227
-8.79509
-8.76656
-8.7451
-8.73656
-8.74163
-8.75396
-8.76469
-8.76946
-8.77107
-8.77623
-8.78761
-8.82034
-8.91059
-9.08439
-9.33924
-9.65844
-10.0307
-10.4451
-10.8862
-11.3377
-11.7849
-12.2158
-12.6212
-12.9947
-13.332
-13.6307
-13.8898
-14.1094
-14.2901
-14.433
-14.5393
-14.6104
-14.6476
-14.6523
-14.6258
-14.5694
-14.4848
-14.3743
-14.239
-14.0768
-13.8851
-13.6651
-13.4197
-13.1505
-12.8588
-12.5455
-12.2119
-11.8589
-11.4875
-11.0987
-10.6937
-10.2736
-9.83942
-9.39244
-8.93379
-8.46466
-7.98625
-7.49976
-7.00639
-6.50732
-6.0037
-5.49669
-4.9874
-4.4769
-3.96624
-3.45642
-2.9484
-2.44309
-1.94134
-1.44398
-0.951741
-0.465342
0.014576
0.487422
0.952659
1.40981
1.85845
2.2982
2.72874
3.14983
3.56126
3.96285
4.35442
4.73596
5.10771
5.46968
5.82139
6.16245
6.49287
6.81287
7.1227
7.42256
7.71264
7.99311
8.26417
8.52601
8.77884
9.02289
9.25837
9.48548
9.70446
9.91554
10.119
10.315
10.5039
10.6859
10.8611
11.03
11.1926
11.3493
11.5002
11.6455
11.7856
11.9205
12.0506
12.1759
12.2967
12.4132
12.5255
12.6338
12.7383
12.8393
12.9372
13.0318
13.1231
13.2113
13.2965
13.3789
13.4585
13.5356
13.6101
13.6823
13.7523
13.82
13.8857
13.9493
14.011
14.0709
14.1289
14.1852
14.2398
14.2928
14.3442
14.394
14.4424
14.4893
14.5347
14.5787
14.6214
14.6626
14.7026
14.7412
14.7785
14.8145
14.8492
14.8827
14.9149
14.9461
14.9761
15.0052
15.0334
15.061
15.0884
15.1161
15.1447
15.1755
15.2109
15.2525
15.3105
15.3709
-8.56327
-8.59463
-8.66878
-8.76224
-8.86514
-8.95658
-9.01695
-9.04044
-9.02241
-8.96102
-8.87079
-8.77416
-8.69331
-8.643
-8.62153
-8.61861
-8.62862
-8.65542
-8.69479
-8.7164
-8.73831
-8.81796
-8.98336
-9.22687
-9.53645
-9.90956
-10.3365
-10.7969
-11.2694
-11.7363
-12.1853
-12.6072
-12.9955
-13.3467
-13.6589
-13.9319
-14.1661
-14.3626
-14.5225
-14.6469
-14.7371
-14.7942
-14.819
-14.8125
-14.7756
-14.7088
-14.6125
-14.4868
-14.3323
-14.152
-13.9497
-13.7256
-13.4787
-13.2092
-12.9178
-12.6052
-12.2724
-11.9201
-11.5495
-11.1615
-10.7572
-10.3377
-9.90412
-9.45766
-8.99946
-8.53069
-8.05257
-7.56628
-7.07303
-6.57399
-6.07033
-5.56319
-5.05369
-4.54289
-4.03186
-3.52159
-3.01305
-2.50714
-2.00472
-1.50662
-1.01359
-0.526328
-0.0454944
0.428316
0.894559
1.35274
1.80243
2.24322
2.67477
3.09677
3.50897
3.91112
4.303
4.6845
5.05572
5.41686
5.76812
6.10953
6.44094
6.76223
7.07345
7.37473
7.66622
7.94808
8.22051
8.4837
8.73784
8.98317
9.2199
9.44828
9.66853
9.88086
10.0855
10.2828
10.4728
10.6559
10.8323
11.0023
11.166
11.3237
11.4756
11.622
11.763
11.8989
12.03
12.1564
12.2783
12.3959
12.5093
12.6187
12.7243
12.826
12.924
13.0186
13.1101
13.1985
13.2839
13.3666
13.4465
13.5239
13.5987
13.6712
13.7415
13.8095
13.8755
13.9394
14.0014
14.0616
14.1199
14.1764
14.2313
14.2846
14.3362
14.3863
14.4349
14.482
14.5276
14.5719
14.6147
14.6561
14.6963
14.735
14.7725
14.8086
14.8435
14.8771
14.9096
14.9408
14.971
15.0002
15.0285
15.0563
15.0838
15.1115
15.1402
15.1709
15.2056
15.2452
15.2989
15.3488
-8.6906
-8.77221
-8.88996
-8.99533
-9.07757
-9.13068
-9.15056
-9.13596
-9.08555
-9.00174
-8.89379
-8.77854
-8.67965
-8.61634
-8.58854
-8.5845
-8.60491
-8.66466
-8.77305
-8.92326
-9.1138
-9.35534
-9.65113
-9.99163
-10.3647
-10.7611
-11.1706
-11.5816
-11.9835
-12.3693
-12.7343
-13.0748
-13.3882
-13.6729
-13.9277
-14.1523
-14.3464
-14.5101
-14.6437
-14.7474
-14.8217
-14.8669
-14.8834
-14.8717
-14.8322
-14.7654
-14.6715
-14.5507
-14.4028
-14.2288
-14.0302
-13.8081
-13.5628
-13.295
-13.0053
-12.6946
-12.3636
-12.0131
-11.6443
-11.2579
-10.8552
-10.4372
-10.0049
-9.55965
-9.10248
-8.63461
-8.15723
-7.67155
-7.17875
-6.68003
-6.17653
-5.66943
-5.15982
-4.6488
-4.13741
-3.62667
-3.11754
-2.61094
-2.10775
-1.60876
-1.11476
-0.62646
-0.144509
0.330488
0.797981
1.25748
1.70854
2.15077
2.58384
3.00745
3.42138
3.82541
4.21941
4.60327
4.97699
5.34056
5.69402
6.03738
6.3706
6.69369
7.00673
7.30981
7.6031
7.88676
8.16095
8.42588
8.68175
8.92878
9.16717
9.39718
9.61901
9.8329
10.0391
10.2378
10.4293
10.6138
10.7916
10.9629
11.1279
11.2869
11.4401
11.5876
11.7298
11.8668
11.9988
12.1261
12.2487
12.367
12.4811
12.5912
12.6974
12.7998
12.8988
12.9945
13.087
13.1763
13.2627
13.3462
13.4269
13.5051
13.5807
13.6539
13.7248
13.7935
13.86
13.9245
13.9871
14.0477
14.1065
14.1636
14.2189
14.2725
14.3246
14.3751
14.424
14.4715
14.5174
14.562
14.6051
14.6469
14.6873
14.7263
14.764
14.8004
14.8355
14.8693
14.9019
14.9334
14.9637
14.993
15.0215
15.0493
15.0768
15.1044
15.1329
15.163
15.1965
15.2331
15.2805
15.314
-8.72844
-8.82548
-8.92649
-9.01276
-9.07684
-9.11608
-9.12802
-9.11007
-9.06232
-8.98991
-8.90428
-8.82236
-8.76231
-8.73676
-8.75038
-8.80526
-8.90544
-9.05478
-9.25391
-9.49712
-9.7749
-10.0803
-10.4077
-10.7509
-11.1045
-11.4633
-11.8219
-12.1752
-12.5186
-12.848
-13.1603
-13.4526
-13.723
-13.9697
-14.1916
-14.3876
-14.5574
-14.7003
-14.8163
-14.9053
-14.9673
-15.0023
-15.0105
-14.9921
-14.947
-14.8756
-14.7781
-14.6549
-14.5064
-14.3333
-14.1362
-13.9156
-13.6719
-13.4058
-13.1178
-12.8088
-12.4794
-12.1306
-11.7632
-11.3783
-10.9769
-10.56
-10.1288
-9.68438
-9.22791
-8.76058
-8.2836
-7.79815
-7.30542
-6.80661
-6.30287
-5.79537
-5.28523
-4.77353
-4.26133
-3.74965
-3.23946
-2.73168
-2.22719
-1.72682
-1.23133
-0.741452
-0.257843
0.218885
0.688179
1.14954
1.60252
2.04672
2.48181
2.9075
3.32353
3.72973
4.12595
4.51211
4.88815
5.25404
5.60975
5.95528
6.29061
6.61579
6.93089
7.23605
7.53139
7.81707
8.09327
8.36018
8.618
8.86694
9.10721
9.33905
9.56268
9.77832
9.98622
10.1866
10.3798
10.5659
10.7453
10.9181
11.0846
11.2449
11.3994
11.5483
11.6918
11.83
11.9632
12.0917
12.2155
12.3349
12.4501
12.5612
12.6684
12.7719
12.8719
12.9686
13.0621
13.1524
13.2396
13.324
13.4056
13.4845
13.5608
13.6348
13.7064
13.7757
13.8429
13.908
13.9711
14.0323
14.0916
14.1492
14.205
14.2591
14.3116
14.3625
14.4119
14.4597
14.5061
14.551
14.5945
14.6365
14.6772
14.7165
14.7545
14.7911
14.8265
14.8605
14.8933
14.9249
14.9554
14.9848
15.0133
15.0411
15.0684
15.0957
15.1235
15.1524
15.1838
15.2163
15.2556
15.2742
-8.51482
-8.59964
-8.69975
-8.79677
-8.87394
-8.92639
-8.95319
-8.95524
-8.93713
-8.90728
-8.87786
-8.86287
-8.87504
-8.92383
-9.01532
-9.15256
-9.33551
-9.55951
-9.81608
-10.0972
-10.3973
-10.7122
-11.0377
-11.3686
-11.7007
-12.0303
-12.354
-12.6686
-12.9715
-13.2603
-13.533
-13.7878
-14.0235
-14.2387
-14.4325
-14.6041
-14.7526
-14.8777
-14.9787
-15.0554
-15.1074
-15.1346
-15.1368
-15.1139
-15.0658
-14.9926
-14.8943
-14.7711
-14.6232
-14.4512
-14.2553
-14.036
-13.7937
-13.529
-13.2426
-12.935
-12.6071
-12.2597
-11.8936
-11.51
-11.1096
-10.6937
-10.2633
-9.81961
-9.36369
-8.89677
-8.42004
-7.93469
-7.44191
-6.9429
-6.43882
-5.93084
-5.42007
-4.90761
-4.39453
-3.88184
-3.37052
-2.86151
-2.35567
-1.85385
-1.35683
-0.86532
-0.379998
0.0985242
0.569686
1.03298
1.48796
1.93423
2.37144
2.7993
3.21755
3.62601
4.02452
4.41299
4.79133
5.1595
5.51748
5.86524
6.2028
6.5302
6.84754
7.1549
7.45244
7.7403
8.01866
8.2877
8.54762
8.79862
9.04094
9.2748
9.50041
9.718
9.9278
10.1301
10.325
10.5129
10.6939
10.8684
11.0365
11.1985
11.3546
11.5049
11.6499
11.7895
11.9242
12.054
12.1791
12.2998
12.4162
12.5286
12.637
12.7416
12.8427
12.9404
13.0349
13.1261
13.2143
13.2995
13.3819
13.4617
13.5389
13.6136
13.6859
13.7559
13.8238
13.8896
13.9534
14.0152
14.0751
14.1332
14.1896
14.2442
14.2972
14.3486
14.3984
14.4467
14.4935
14.5388
14.5826
14.6251
14.6661
14.7057
14.744
14.7809
14.8165
14.8508
14.8838
14.9156
14.9461
14.9756
15.0041
15.0317
15.0588
15.0855
15.1124
15.1396
15.1682
15.196
15.2276
15.2337
-8.09414
-8.18265
-8.30375
-8.42654
-8.53175
-8.61211
-8.67045
-8.71272
-8.74665
-8.78207
-8.82996
-8.90055
-9.00179
-9.1384
-9.31248
-9.52294
-9.76504
-10.0332
-10.322
-10.6259
-10.9392
-11.2573
-11.5764
-11.8929
-12.204
-12.5077
-12.802
-13.0854
-13.3565
-13.6138
-13.8562
-14.0827
-14.2921
-14.4835
-14.6559
-14.8086
-14.9408
-15.0517
-15.1409
-15.2076
-15.2515
-15.2722
-15.2692
-15.2425
-15.1916
-15.1166
-15.0174
-14.8939
-14.7464
-14.575
-14.3801
-14.1619
-13.9209
-13.6576
-13.3726
-13.0665
-12.74
-12.3939
-12.0292
-11.6468
-11.2476
-10.8327
-10.4032
-9.96021
-9.50488
-9.03842
-8.56199
-8.07679
-7.58401
-7.08484
-6.58046
-6.07203
-5.56067
-5.04748
-4.53354
-4.01987
-3.50744
-2.99721
-2.49005
-1.9868
-1.48825
-0.995119
-0.50809
-0.0277816
0.445244
0.910476
1.36746
1.81579
2.25513
2.68516
3.10564
3.51636
3.91716
4.30793
4.68858
5.05906
5.41933
5.76937
6.10922
6.4389
6.75852
7.06816
7.36796
7.65807
7.93867
8.20993
8.47205
8.72522
8.96967
9.2056
9.43326
9.65286
9.86465
10.0689
10.2657
10.4555
10.6384
10.8146
10.9845
11.1482
11.3059
11.4579
11.6044
11.7456
11.8818
12.013
12.1396
12.2617
12.3794
12.493
12.6027
12.7085
12.8108
12.9096
13.0051
13.0974
13.1865
13.2728
13.3561
13.4368
13.5148
13.5904
13.6635
13.7344
13.803
13.8695
13.934
13.9965
14.0571
14.1158
14.1728
14.228
14.2815
14.3335
14.3838
14.4325
14.4798
14.5255
14.5698
14.6127
14.6541
14.6941
14.7327
14.7699
14.8058
14.8403
14.8735
14.9055
14.9361
14.9656
14.994
15.0214
15.048
15.074
15.0996
15.1249
15.1504
15.1733
15.1976
15.1931
-7.63
-7.72879
-7.87102
-8.01999
-8.15808
-8.27692
-8.38017
-8.47724
-8.57756
-8.69004
-8.82223
-8.97893
-9.16281
-9.37427
-9.61155
-9.8725
-10.1541
-10.4517
-10.76
-11.0739
-11.3892
-11.7024
-12.0109
-12.3126
-12.6059
-12.8896
-13.1627
-13.4242
-13.6732
-13.909
-14.1306
-14.3373
-14.5283
-14.7026
-14.8595
-14.9982
-15.1179
-15.2179
-15.2975
-15.3562
-15.3932
-15.4082
-15.4007
-15.3702
-15.3166
-15.2395
-15.1388
-15.0146
-14.8667
-14.6954
-14.5008
-14.2832
-14.043
-13.7806
-13.4966
-13.1915
-12.8662
-12.5214
-12.1579
-11.7766
-11.3786
-10.9648
-10.5363
-10.0943
-9.63981
-9.17409
-8.69827
-8.21358
-7.72118
-7.22227
-6.71802
-6.20957
-5.69807
-5.18461
-4.67025
-4.15603
-3.64293
-3.1319
-2.62381
-2.11952
-1.6198
-1.1254
-0.636991
-0.1552
0.319405
0.786309
1.24505
1.69522
2.13647
2.56848
2.991
3.40382
3.80676
4.1997
4.58254
4.95522
5.3177
5.66997
6.01204
6.34397
6.66583
6.97773
7.27978
7.57214
7.85496
8.12844
8.39274
8.64809
8.89469
9.13275
9.36251
9.58418
9.798
10.0042
10.203
10.3947
10.5795
10.7576
10.9293
11.0948
11.2543
11.408
11.5561
11.699
11.8367
11.9694
12.0975
12.221
12.3401
12.4551
12.5661
12.6732
12.7767
12.8767
12.9733
13.0667
13.157
13.2442
13.3286
13.4103
13.4892
13.5657
13.6397
13.7114
13.7809
13.8482
13.9134
13.9766
14.0379
14.0973
14.1549
14.2108
14.2649
14.3174
14.3683
14.4176
14.4653
14.5116
14.5563
14.5996
14.6414
14.6818
14.7208
14.7584
14.7945
14.8293
14.8627
14.8948
14.9255
14.955
14.9832
15.0103
15.0363
15.0614
15.0856
15.1087
15.1309
15.149
15.1667
15.1528
-7.27661
-7.36996
-7.52218
-7.68814
-7.85525
-8.01664
-8.17185
-8.32876
-8.49555
-8.678
-8.88011
-9.103
-9.34519
-9.60583
-9.88433
-10.1783
-10.484
-10.7971
-11.1132
-11.429
-11.7414
-12.0482
-12.3476
-12.6383
-12.9192
-13.1895
-13.4485
-13.6955
-13.9301
-14.1515
-14.3592
-14.5525
-14.7307
-14.8931
-15.0389
-15.1675
-15.278
-15.3698
-15.4422
-15.4945
-15.526
-15.5362
-15.5247
-15.4909
-15.4345
-15.3553
-15.2529
-15.1273
-14.9785
-14.8065
-14.6115
-14.3937
-14.1535
-13.8913
-13.6076
-13.303
-12.9782
-12.634
-12.2711
-11.8906
-11.4933
-11.0803
-10.6527
-10.2115
-9.7578
-9.29286
-8.81782
-8.33385
-7.84213
-7.34384
-6.84014
-6.33218
-5.82108
-5.30793
-4.79379
-4.27968
-3.76659
-3.25545
-2.74714
-2.2425
-1.74233
-1.24735
-0.758251
-0.275648
0.199884
0.667828
1.12772
1.57914
2.02174
2.45521
2.87926
3.29369
3.69832
4.093
4.47764
4.85215
5.21651
5.5707
5.91473
6.24865
6.57253
6.88647
7.19058
7.48502
7.76993
8.04549
8.31188
8.56932
8.81799
9.05812
9.28992
9.51362
9.72945
9.93764
10.1384
10.332
10.5187
10.6987
10.8722
11.0395
11.2007
11.3561
11.506
11.6504
11.7897
11.9241
12.0536
12.1786
12.2992
12.4156
12.5279
12.6364
12.7412
12.8424
12.9402
13.0347
13.1261
13.2145
13.2999
13.3826
13.4625
13.54
13.6149
13.6875
13.7578
13.8259
13.8919
13.9559
14.018
14.0781
14.1364
14.1929
14.2477
14.3008
14.3522
14.4021
14.4504
14.4971
14.5424
14.5861
14.6284
14.6692
14.7085
14.7464
14.7829
14.818
14.8516
14.8838
14.9146
14.944
14.972
14.9987
15.0241
15.0481
15.0707
15.0915
15.1103
15.1237
15.1353
15.1134
-7.08881
-7.17496
-7.3293
-7.5019
-7.68561
-7.87834
-8.07674
-8.28278
-8.50092
-8.73351
-8.98084
-9.24287
-9.51951
-9.81033
-10.1134
-10.4255
-10.743
-11.0624
-11.3809
-11.6957
-12.0049
-12.3066
-12.5996
-12.8829
-13.1558
-13.4175
-13.6676
-13.9055
-14.1309
-14.3433
-14.5421
-14.7267
-14.8966
-15.0511
-15.1895
-15.3112
-15.4154
-15.5014
-15.5684
-15.6159
-15.6432
-15.6497
-15.6349
-15.5982
-15.5393
-15.4578
-15.3536
-15.2265
-15.0763
-14.9033
-14.7074
-14.4889
-14.2481
-13.9855
-13.7015
-13.3967
-13.0719
-12.7277
-12.3651
-11.9848
-11.5879
-11.1753
-10.7481
-10.3074
-9.8544
-9.39013
-8.91578
-8.43254
-7.94156
-7.44402
-6.94107
-6.43385
-5.92347
-5.41101
-4.89752
-4.38401
-3.87145
-3.36078
-2.85286
-2.34854
-1.84858
-1.35372
-0.864628
-0.381934
0.0937964
0.562047
1.02235
1.4743
1.91752
2.35171
2.77659
3.19195
3.59759
3.99339
4.37922
4.75501
5.12071
5.47631
5.82181
6.15727
6.48274
6.79833
7.10413
7.4003
7.68697
7.96432
8.23254
8.4918
8.74231
8.98429
9.21795
9.4435
9.66118
9.87121
10.0738
10.2693
10.4577
10.6395
10.8147
10.9837
11.1466
11.3037
11.4552
11.6013
11.7422
11.878
12.0091
12.1356
12.2576
12.3754
12.4891
12.5989
12.7049
12.8074
12.9064
13.0021
13.0946
13.1841
13.2706
13.3543
13.4352
13.5136
13.5895
13.663
13.7342
13.8032
13.87
13.9348
13.9976
14.0585
14.1175
14.1747
14.2301
14.2838
14.3359
14.3863
14.4352
14.4825
14.5282
14.5724
14.6152
14.6564
14.6961
14.7344
14.7712
14.8065
14.8403
14.8727
14.9035
14.9328
14.9606
14.9868
15.0114
15.0343
15.0552
15.0736
15.089
15.0979
15.1041
15.0751
-7.06364
-7.15069
-7.2985
-7.46747
-7.65449
-7.85941
-8.07907
-8.3115
-8.55693
-8.81589
-9.08784
-9.37191
-9.66785
-9.97446
-10.289
-10.6086
-10.9302
-11.2512
-11.5692
-11.8822
-12.1883
-12.4864
-12.7752
-13.054
-13.3221
-13.5789
-13.824
-14.0569
-14.2773
-14.4846
-14.6784
-14.8581
-15.0232
-15.1731
-15.307
-15.4244
-15.5246
-15.6067
-15.6702
-15.7144
-15.7386
-15.7422
-15.7247
-15.6857
-15.6246
-15.5411
-15.4351
-15.3063
-15.1547
-14.9803
-14.7833
-14.5638
-14.3221
-14.0587
-13.7742
-13.4689
-13.1438
-12.7994
-12.4366
-12.0564
-11.6596
-11.2473
-10.8205
-10.3803
-9.92783
-9.46422
-8.99063
-8.50821
-8.01812
-7.52152
-7.01954
-6.51332
-6.00396
-5.49252
-4.98004
-4.46753
-3.95595
-3.4462
-2.93917
-2.43566
-1.93647
-1.4423
-0.953818
-0.471648
0.00365356
0.471575
0.931656
1.38349
1.82671
2.26101
2.68611
3.10178
3.50784
3.90415
4.29058
4.66707
5.03355
5.39002
5.73648
6.07296
6.39954
6.71631
7.02336
7.32083
7.60886
7.88762
8.15729
8.41804
8.67007
8.9136
9.14883
9.37597
9.59525
9.80689
10.0111
10.2082
10.3982
10.5816
10.7585
10.929
11.0935
11.2522
11.4052
11.5528
11.6951
11.8324
11.9649
12.0928
12.2162
12.3354
12.4504
12.5615
12.6688
12.7724
12.8726
12.9695
13.0631
13.1537
13.2412
13.3259
13.4079
13.4873
13.5641
13.6385
13.7106
13.7804
13.8481
13.9137
13.9772
14.0388
14.0985
14.1564
14.2125
14.2669
14.3196
14.3706
14.42
14.4679
14.5141
14.5589
14.602
14.6437
14.6839
14.7225
14.7596
14.7952
14.8292
14.8617
14.8925
14.9217
14.9492
14.9749
14.9986
15.0203
15.0395
15.0554
15.0676
15.0723
15.0735
15.0384
-7.17709
-7.25548
-7.38642
-7.54242
-7.72126
-7.92262
-8.14378
-8.38214
-8.63607
-8.90419
-9.18479
-9.47675
-9.77911
-10.0899
-10.4066
-10.7267
-11.0476
-11.3671
-11.6831
-11.9937
-12.2975
-12.5932
-12.8798
-13.1564
-13.4224
-13.6772
-13.9204
-14.1514
-14.3699
-14.5753
-14.7671
-14.9448
-15.1079
-15.2556
-15.3875
-15.5027
-15.6007
-15.6807
-15.742
-15.784
-15.8062
-15.8077
-15.7883
-15.7472
-15.6843
-15.5991
-15.4914
-15.361
-15.208
-15.0322
-14.8339
-14.6133
-14.3707
-14.1065
-13.8212
-13.5155
-13.1899
-12.8453
-12.4825
-12.1023
-11.7057
-11.2938
-10.8675
-10.428
-9.97636
-9.51368
-9.04112
-8.55984
-8.07098
-7.57569
-7.07509
-6.5703
-6.06241
-5.55247
-5.04151
-4.53052
-4.02044
-3.51217
-3.00657
-2.50445
-2.00656
-1.51363
-1.02631
-0.545199
-0.0708692
0.396179
0.855491
1.30666
1.74932
2.18317
2.60793
3.02337
3.42932
3.82561
4.21213
4.58881
4.95559
5.31245
5.6594
5.99647
6.32372
6.64124
6.94913
7.24752
7.53654
7.81635
8.08712
8.34903
8.60228
8.84705
9.08357
9.31203
9.53266
9.74567
9.95129
10.1497
10.3412
10.526
10.7043
10.8763
11.0422
11.2022
11.3567
11.5056
11.6494
11.788
11.9219
12.0511
12.1758
12.2962
12.4125
12.5248
12.6333
12.7381
12.8394
12.9374
13.0321
13.1237
13.2123
13.298
13.381
13.4613
13.539
13.6143
13.6873
13.7579
13.8264
13.8928
13.9571
14.0194
14.0799
14.1384
14.1952
14.2502
14.3035
14.3552
14.4052
14.4535
14.5003
14.5455
14.5892
14.6313
14.6719
14.7109
14.7483
14.7842
14.8184
14.8509
14.8818
14.9108
14.938
14.9631
14.986
15.0064
15.0238
15.0374
15.0465
15.0472
15.0439
15.0036
-7.35514
-7.41969
-7.53058
-7.66909
-7.83305
-8.02198
-8.23351
-8.46497
-8.71386
-8.97785
-9.25471
-9.54322
-9.84216
-10.1493
-10.4622
-10.7785
-11.0959
-11.4122
-11.7254
-12.0339
-12.3361
-12.6307
-12.9167
-13.1932
-13.4594
-13.7146
-13.9583
-14.19
-14.409
-14.6149
-14.8071
-14.985
-15.1481
-15.2957
-15.4272
-15.5419
-15.6391
-15.7182
-15.7785
-15.8193
-15.8401
-15.8403
-15.8194
-15.7768
-15.7124
-15.6257
-15.5165
-15.3847
-15.2303
-15.0534
-14.8539
-14.6323
-14.3889
-14.124
-13.8381
-13.532
-13.2063
-12.8617
-12.4991
-12.1193
-11.7234
-11.3123
-10.887
-10.4486
-9.99822
-9.53698
-9.06601
-8.58644
-8.0994
-7.60602
-7.10742
-6.60468
-6.09888
-5.59105
-5.08222
-4.57336
-4.0654
-3.55922
-3.05566
-2.55553
-2.05957
-1.56849
-1.08293
-0.603495
-0.130733
0.334855
0.792821
1.24276
1.68432
2.11718
2.54108
2.95578
3.36111
3.75691
4.14306
4.51948
4.88612
5.24295
5.58998
5.92724
6.25479
6.5727
6.88108
7.18004
7.46972
7.75027
8.02185
8.28464
8.53882
8.78459
9.02215
9.2517
9.47345
9.68763
9.89444
10.0941
10.2868
10.4729
10.6524
10.8257
10.9928
11.1542
11.3099
11.4601
11.6051
11.7451
11.8802
12.0106
12.1365
12.2581
12.3756
12.489
12.5987
12.7046
12.807
12.906
13.0018
13.0944
13.184
13.2707
13.3546
13.4358
13.5144
13.5906
13.6644
13.7359
13.8052
13.8723
13.9374
14.0005
14.0616
14.1209
14.1783
14.234
14.2879
14.3401
14.3907
14.4396
14.4869
14.5327
14.5768
14.6194
14.6603
14.6997
14.7375
14.7736
14.808
14.8406
14.8715
14.9004
14.9272
14.9518
14.9738
14.9929
15.0086
15.0199
15.026
15.023
15.0157
14.9709
-7.52974
-7.58121
-7.67378
-7.79443
-7.94116
-8.11344
-8.30919
-8.52602
-8.76145
-9.01291
-9.2784
-9.55678
-9.84663
-10.1457
-10.4516
-10.7619
-11.0745
-11.387
-11.6976
-12.0045
-12.3061
-12.601
-12.8881
-13.1662
-13.4345
-13.6922
-13.9384
-14.1727
-14.3942
-14.6025
-14.7969
-14.9767
-15.1414
-15.2903
-15.4227
-15.538
-15.6355
-15.7146
-15.7745
-15.8148
-15.8349
-15.8342
-15.8122
-15.7686
-15.7029
-15.615
-15.5046
-15.3718
-15.2163
-15.0384
-14.8381
-14.6158
-14.3719
-14.1066
-13.8207
-13.5147
-13.1893
-12.8453
-12.4835
-12.1047
-11.71
-11.3003
-10.8766
-10.44
-9.99167
-9.53261
-9.06397
-8.58686
-8.1024
-7.6117
-7.11586
-6.61595
-6.11303
-5.60811
-5.10219
-4.59622
-4.09113
-3.5878
-3.08703
-2.58961
-2.09629
-1.60774
-1.12462
-0.647504
-0.176945
0.28657
0.742594
1.19073
1.63062
2.06196
2.48448
2.89794
3.30217
3.69701
4.08235
4.45808
4.82417
5.18059
5.52733
5.86442
6.19192
6.5099
6.81845
7.11769
7.40774
7.68876
7.96089
8.22431
8.47919
8.72573
8.96412
9.19456
9.41725
9.63241
9.84024
10.041
10.2348
10.4219
10.6026
10.777
10.9453
11.1078
11.2647
11.4161
11.5623
11.7034
11.8397
11.9713
12.0983
12.2211
12.3396
12.4542
12.5649
12.6719
12.7754
12.8754
12.9722
13.0658
13.1563
13.244
13.3288
13.4109
13.4904
13.5675
13.6421
13.7144
13.7845
13.8524
13.9182
13.982
14.0438
14.1038
14.1619
14.2182
14.2727
14.3255
14.3767
14.4262
14.474
14.5202
14.5649
14.6079
14.6493
14.689
14.7271
14.7635
14.7981
14.8309
14.8617
14.8905
14.917
14.941
14.9621
14.98
14.994
15.0031
15.0064
15.0001
14.9891
14.9405
-7.65662
-7.69882
-7.77602
-7.88
-8.00931
-8.16348
-8.34075
-8.53915
-8.75666
-8.99107
-9.241
-9.50573
-9.7838
-10.0729
-10.3706
-10.6744
-10.9821
-11.2914
-11.6003
-11.9068
-12.2092
-12.506
-12.7957
-13.0772
-13.3493
-13.611
-13.8615
-14.0999
-14.3255
-14.5375
-14.7353
-14.9182
-15.0854
-15.2365
-15.3706
-15.4872
-15.5856
-15.6651
-15.7253
-15.7655
-15.7852
-15.7839
-15.7612
-15.7167
-15.6502
-15.5614
-15.4502
-15.3165
-15.1604
-14.9819
-14.7813
-14.5589
-14.315
-14.0501
-13.7647
-13.4595
-13.1352
-12.7925
-12.4322
-12.0553
-11.6627
-11.2553
-10.8342
-10.4004
-9.95506
-9.49915
-9.03381
-8.56015
-8.07925
-7.59221
-7.10009
-6.60396
-6.10485
-5.60376
-5.10166
-4.59948
-4.09812
-3.59845
-3.10129
-2.60739
-2.11747
-1.6322
-1.15223
-0.678127
-0.210436
0.250363
0.70383
1.14957
1.58723
2.0165
2.43712
2.84885
3.25151
3.64494
4.02902
4.40367
4.76882
5.12444
5.47054
5.80713
6.13426
6.45201
6.76045
7.05969
7.34986
7.6311
7.90355
8.16739
8.42277
8.66989
8.90892
9.14008
9.36355
9.57953
9.78824
9.98989
10.1847
10.3728
10.5545
10.7299
10.8993
11.0629
11.2209
11.3734
11.5207
11.6629
11.8003
11.9329
12.0611
12.1849
12.3046
12.4202
12.532
12.64
12.7445
12.8455
12.9432
13.0378
13.1293
13.2178
13.3035
13.3866
13.4669
13.5448
13.6203
13.6934
13.7642
13.8329
13.8995
13.964
14.0265
14.0871
14.1459
14.2028
14.258
14.3114
14.3631
14.4132
14.4616
14.5083
14.5534
14.5969
14.6387
14.6789
14.7173
14.754
14.7888
14.8217
14.8526
14.8812
14.9074
14.9308
14.9511
14.9678
14.9802
14.9872
14.9879
14.9787
14.9643
14.9126
-7.71184
-7.75002
-7.81556
-7.90457
-8.01686
-8.15234
-8.30999
-8.48844
-8.68615
-8.90157
-9.13421
-9.38395
-9.64943
-9.92826
-10.2179
-10.5157
-10.8194
-11.1265
-11.4349
-11.7423
-12.047
-12.347
-12.6409
-12.9271
-13.2043
-13.4713
-13.7271
-13.9707
-14.2012
-14.4178
-14.6197
-14.8062
-14.9766
-15.1303
-15.2665
-15.3847
-15.4842
-15.5646
-15.6251
-15.6654
-15.685
-15.6834
-15.6603
-15.6153
-15.5483
-15.459
-15.3475
-15.2136
-15.0574
-14.8791
-14.6788
-14.457
-14.214
-13.9503
-13.6664
-13.363
-13.0408
-12.7005
-12.3429
-11.969
-11.5796
-11.1758
-10.7584
-10.3286
-9.88734
-9.43575
-8.97488
-8.50582
-8.02962
-7.54735
-7.06008
-6.56881
-6.07457
-5.57833
-5.08105
-4.58363
-4.08696
-3.59187
-3.09917
-2.60963
-2.12393
-1.64274
-1.16666
-0.696297
-0.23216
0.225268
0.675551
1.1183
1.55316
1.97982
2.39802
2.80752
3.20815
3.59973
3.98215
4.35531
4.71915
5.07364
5.41876
5.75454
6.08102
6.39825
6.70632
7.00532
7.29539
7.57663
7.8492
8.11326
8.36896
8.61649
8.85602
9.08774
9.31185
9.52854
9.73801
9.94046
10.1361
10.3251
10.5077
10.6841
10.8545
11.0191
11.1781
11.3317
11.48
11.6233
11.7617
11.8954
12.0246
12.1495
12.2702
12.3868
12.4996
12.6087
12.7141
12.8161
12.9148
13.0103
13.1027
13.1922
13.2788
13.3627
13.4439
13.5226
13.5989
13.6728
13.7444
13.8139
13.8811
13.9464
14.0096
14.0709
14.1303
14.1879
14.2437
14.2977
14.35
14.4007
14.4496
14.4969
14.5425
14.5865
14.6287
14.6693
14.7081
14.7451
14.7802
14.8132
14.8441
14.8726
14.8985
14.9214
14.9409
14.9565
14.9674
14.9725
14.9709
14.9589
14.9415
14.8872
-7.69726
-7.73133
-7.78801
-7.86321
-7.9583
-8.07409
-8.21058
-8.36743
-8.54382
-8.73909
-8.95367
-9.18805
-9.441
-9.71003
-9.99242
-10.2855
-10.5866
-10.8931
-11.2026
-11.5127
-11.8212
-12.1259
-12.4252
-12.7172
-13.0004
-13.2735
-13.5352
-13.7845
-14.0202
-14.2416
-14.4478
-14.6379
-14.8115
-14.9677
-15.1059
-15.2257
-15.3264
-15.4075
-15.4686
-15.5091
-15.5288
-15.5272
-15.504
-15.459
-15.3921
-15.303
-15.1918
-15.0584
-14.903
-14.7258
-14.5269
-14.3068
-14.0658
-13.8044
-13.5232
-13.2229
-12.904
-12.5674
-12.2139
-11.8443
-11.4595
-11.0605
-10.6483
-10.2238
-9.78807
-9.34215
-8.88708
-8.42391
-7.95368
-7.47745
-6.99621
-6.51099
-6.02277
-5.5325
-5.0411
-4.54948
-4.05849
-3.56895
-3.08164
-2.59731
-2.11668
-1.64037
-1.16897
-0.703069
-0.243175
0.210228
0.656705
1.09587
1.52736
1.95089
2.36617
2.77298
3.17112
3.56044
3.9408
4.31211
4.67429
5.02732
5.37116
5.70585
6.0314
6.34787
6.65533
6.95389
7.24363
7.52469
7.79721
8.06132
8.31719
8.56499
8.80488
9.03705
9.26168
9.47897
9.6891
9.89228
10.0887
10.2785
10.462
10.6393
10.8106
10.9762
11.1361
11.2907
11.44
11.5843
11.7237
11.8585
11.9887
12.1146
12.2363
12.354
12.4677
12.5778
12.6842
12.7872
12.8868
12.9832
13.0765
13.1669
13.2544
13.3391
13.4212
13.5008
13.5778
13.6526
13.725
13.7951
13.8632
13.9291
13.9931
14.0551
14.1151
14.1734
14.2298
14.2845
14.3374
14.3886
14.4381
14.4859
14.5321
14.5765
14.6193
14.6603
14.6994
14.7368
14.7721
14.8053
14.8363
14.8647
14.8903
14.9128
14.9317
14.9462
14.9558
14.9591
14.9553
14.9409
14.9208
14.8644
-7.63272
-7.6578
-7.70389
-7.7625
-7.83723
-7.93013
-8.04243
-8.17499
-8.32804
-8.50186
-8.69787
-8.91705
-9.15819
-9.4186
-9.69528
-9.98525
-10.2855
-10.5932
-10.9055
-11.2196