/*--------------------------------*- C++ -*----------------------------------*\
| =========                 |                                                 |
| \\      /  F ield         | OpenFOAM: The Open Source CFD Toolbox           |
|  \\    /   O peration     | Version:  v2012                                 |
|   \\  /    A nd           | Website:  www.openfoam.com                      |
|    \\/     M anipulation  |                                                 |
\*---------------------------------------------------------------------------*/
FoamFile
{
    version     2.0;
    format      ascii;
    class       surfaceScalarField;
    location    "2900";
    object      phi;
}
// * * * * * * * * * * * * * * * * * * * * * * * * * * * * * * * * * * * * * //

dimensions      [0 3 -1 0 0 0 0];
oriented        oriented;


internalField   nonuniform List<scalar> 
24170
(
3.92539e-06
-7.91497e-07
3.76461e-06
1.60756e-07
3.63337e-06
1.31208e-07
3.43319e-06
2.00139e-07
3.28007e-06
1.53079e-07
3.18941e-06
9.06319e-08
3.12904e-06
6.02589e-08
3.08113e-06
4.76307e-08
3.04122e-06
3.94935e-08
3.00433e-06
3.63769e-08
2.96974e-06
3.40985e-08
2.93776e-06
3.15263e-08
2.9085e-06
2.88917e-08
2.88201e-06
2.61929e-08
2.85828e-06
2.35146e-08
2.83873e-06
1.94737e-08
2.83071e-06
8.12076e-09
-9.39666e-09
2.84025e-06
3.58444e-06
-9.19498e-07
3.80423e-06
-5.90409e-08
3.74279e-06
1.9262e-07
3.69054e-06
2.52363e-07
3.63724e-06
2.06336e-07
3.58983e-06
1.37988e-07
3.55256e-06
9.74009e-08
3.52376e-06
7.62014e-08
3.50036e-06
6.25524e-08
3.48088e-06
5.53829e-08
3.46383e-06
5.06468e-08
3.44835e-06
4.64966e-08
3.43408e-06
4.27177e-08
3.42064e-06
3.9255e-08
3.40804e-06
3.58115e-08
3.39626e-06
3.10475e-08
3.38463e-06
1.96997e-08
3.79905e-09
3.37116e-06
3.68518e-06
-7.92482e-07
3.83638e-06
-2.10251e-07
3.91492e-06
1.14075e-07
3.94499e-06
2.22288e-07
3.94406e-06
2.07264e-07
3.92721e-06
1.54833e-07
3.90779e-06
1.16827e-07
3.89026e-06
9.37834e-08
3.87465e-06
7.8257e-08
3.86141e-06
6.87457e-08
3.84987e-06
6.23191e-08
3.83928e-06
5.71742e-08
3.82932e-06
5.27177e-08
3.81991e-06
4.86606e-08
3.81119e-06
4.44774e-08
3.80309e-06
3.90781e-08
3.79326e-06
2.94558e-08
1.75369e-08
3.77926e-06
4.05359e-06
-6.41512e-07
4.11459e-06
-2.71265e-07
4.20798e-06
2.06776e-08
4.26634e-06
1.63915e-07
4.29067e-06
1.82906e-07
4.29272e-06
1.52759e-07
4.28601e-06
1.23512e-07
4.27703e-06
1.02771e-07
4.2676e-06
8.77666e-08
4.25883e-06
7.76106e-08
4.25084e-06
7.04017e-08
4.24332e-06
6.47363e-08
4.23612e-06
5.99245e-08
4.22915e-06
5.55867e-08
4.22237e-06
5.11721e-08
4.21539e-06
4.59469e-08
4.20618e-06
3.85416e-08
3.03378e-08
4.19312e-06
4.50491e-06
-5.09116e-07
4.51536e-06
-2.81713e-07
4.58528e-06
-4.92457e-08
4.64664e-06
1.02554e-07
4.68256e-06
1.46983e-07
4.6968e-06
1.38526e-07
4.69972e-06
1.20625e-07
4.69775e-06
1.04813e-07
4.69353e-06
9.20984e-08
4.68862e-06
8.26666e-08
4.6836e-06
7.55692e-08
4.67854e-06
6.99143e-08
4.67342e-06
6.51333e-08
4.66817e-06
6.08736e-08
4.66264e-06
5.66972e-08
4.65633e-06
5.221e-08
4.64781e-06
4.69774e-08
4.21215e-08
4.63587e-06
5.00014e-06
-3.94666e-07
4.98614e-06
-2.67712e-07
5.03068e-06
-9.3796e-08
5.08505e-06
4.81761e-08
5.12452e-06
1.07494e-07
5.14606e-06
1.16964e-07
5.15605e-06
1.10632e-07
5.15977e-06
1.01123e-07
5.16003e-06
9.19167e-08
5.15855e-06
8.42469e-08
5.15618e-06
7.80321e-08
5.15327e-06
7.29116e-08
5.14989e-06
6.85553e-08
5.14605e-06
6.47287e-08
5.14154e-06
6.11685e-08
5.13595e-06
5.77498e-08
5.12834e-06
5.45112e-08
5.23631e-08
5.11793e-06
5.54382e-06
-2.97478e-07
5.51664e-06
-2.40535e-07
5.54055e-06
-1.17699e-07
5.58387e-06
4.8532e-09
5.62165e-06
6.9718e-08
5.64657e-06
9.20521e-08
5.66123e-06
9.59896e-08
5.66931e-06
9.3086e-08
5.67329e-06
8.80087e-08
5.67481e-06
8.27968e-08
5.67485e-06
7.80772e-08
5.67387e-06
7.39633e-08
5.67207e-06
7.04001e-08
5.66951e-06
6.73178e-08
5.66603e-06
6.46381e-08
5.66134e-06
6.24142e-08
5.65491e-06
6.08796e-08
6.07996e-08
5.64642e-06
4.34788e-06
-2.39245e-07
4.32251e-06
-2.15172e-07
4.33078e-06
-1.2597e-07
4.35419e-06
-1.85621e-08
4.3784e-06
4.54982e-08
4.39647e-06
7.39683e-08
4.40847e-06
8.39973e-08
4.41605e-06
8.55182e-08
4.42064e-06
8.34495e-08
4.42326e-06
8.02125e-08
4.42457e-06
7.68139e-08
4.42493e-06
7.36421e-08
4.42454e-06
7.0826e-08
4.42345e-06
6.84197e-08
4.42162e-06
6.64614e-08
4.41893e-06
6.50935e-08
4.41518e-06
6.46139e-08
6.55868e-08
4.41032e-06
5.08622e-06
-1.85603e-07
5.05777e-06
-1.86727e-07
5.0584e-06
-1.26597e-07
5.07686e-06
-3.70294e-08
5.09918e-06
2.31824e-08
5.11774e-06
5.5407e-08
5.13129e-06
7.04557e-08
5.14066e-06
7.61703e-08
5.14691e-06
7.72172e-08
5.15097e-06
7.61811e-08
5.15347e-06
7.43435e-08
5.15481e-06
7.23287e-08
5.15521e-06
7.04423e-08
5.15477e-06
6.88602e-08
5.1535e-06
6.77263e-08
5.15134e-06
6.72428e-08
5.14822e-06
6.76964e-08
6.95515e-08
5.14425e-06
5.94839e-06
-1.38198e-07
5.91832e-06
-1.5666e-07
5.91161e-06
-1.19888e-07
5.924e-06
-4.9429e-08
5.94286e-06
4.31812e-09
5.9606e-06
3.76684e-08
5.97485e-06
5.62127e-08
5.98553e-06
6.54963e-08
5.99325e-06
6.95071e-08
5.99871e-06
7.07403e-08
6.00246e-06
7.06114e-08
6.00489e-06
6.99146e-08
6.00624e-06
6.90982e-08
6.00664e-06
6.84569e-08
6.00616e-06
6.82067e-08
6.00482e-06
6.85788e-08
6.00267e-06
6.98456e-08
7.22852e-08
5.9999e-06
6.95439e-06
-9.83183e-08
6.92401e-06
-1.26289e-07
6.91113e-06
-1.07008e-07
6.9168e-06
-5.51029e-08
6.93088e-06
-9.75999e-09
6.94638e-06
2.21735e-08
6.9602e-06
4.23939e-08
6.97146e-06
5.42406e-08
6.98023e-06
6.07481e-08
6.98689e-06
6.409e-08
6.99184e-06
6.56648e-08
6.99541e-06
6.63396e-08
6.99785e-06
6.66711e-08
6.99929e-06
6.70128e-08
6.99985e-06
6.76442e-08
6.99964e-06
6.87964e-08
6.9988e-06
7.06756e-08
7.34881e-08
6.99759e-06
8.12719e-06
-6.64935e-08
8.09793e-06
-9.70328e-08
8.08056e-06
-8.96358e-08
8.07955e-06
-5.41006e-08
8.08794e-06
-1.81472e-08
8.09987e-06
1.02429e-08
8.11202e-06
3.02455e-08
8.12291e-06
4.33638e-08
8.13207e-06
5.15882e-08
8.13955e-06
5.66212e-08
8.14552e-06
5.96902e-08
8.15021e-06
6.1653e-08
8.15381e-06
6.30713e-08
8.15647e-06
6.43571e-08
8.15833e-06
6.57828e-08
8.15955e-06
6.75739e-08
8.16034e-06
6.98925e-08
7.28395e-08
8.16097e-06
9.49368e-06
-4.24457e-08
9.4668e-06
-7.0156e-08
9.44683e-06
-6.96706e-08
9.43991e-06
-4.71791e-08
9.4423e-06
-2.05349e-08
9.44967e-06
2.86555e-09
9.45898e-06
2.09432e-08
9.46844e-06
3.39099e-08
9.4772e-06
4.28369e-08
9.48494e-06
4.88816e-08
9.49162e-06
5.30205e-08
9.49728e-06
5.59787e-08
9.50206e-06
5.83001e-08
9.50606e-06
6.03491e-08
9.50945e-06
6.2407e-08
9.51236e-06
6.4647e-08
9.51505e-06
6.72048e-08
7.01179e-08
9.51776e-06
1.10854e-05
-2.51668e-08
1.10618e-05
-4.65172e-08
1.1041e-05
-4.88399e-08
1.10294e-05
-3.56032e-08
1.10261e-05
-1.72412e-08
1.10284e-05
5.08874e-10
1.1034e-05
1.535e-08
1.10411e-05
2.68132e-08
1.10487e-05
3.52985e-08
1.10561e-05
4.14877e-08
1.10631e-05
4.6049e-08
1.10695e-05
4.95444e-08
1.10754e-05
5.23985e-08
1.10808e-05
5.49316e-08
1.10858e-05
5.73581e-08
1.10907e-05
5.98308e-08
1.10954e-05
6.24221e-08
6.51672e-08
1.11004e-05
1.29396e-05
-1.31267e-08
1.29194e-05
-2.62941e-08
1.28988e-05
-2.82856e-08
1.28839e-05
-2.07402e-08
1.28758e-05
-9.06951e-09
1.28732e-05
3.04795e-09
1.28748e-05
1.38158e-08
1.2879e-05
2.26343e-08
1.28847e-05
2.95584e-08
1.28913e-05
3.49247e-08
1.28982e-05
3.91315e-08
1.29052e-05
4.25428e-08
1.29121e-05
4.54505e-08
1.2919e-05
4.80733e-08
1.29258e-05
5.05603e-08
1.29326e-05
5.3005e-08
1.29395e-05
5.54507e-08
5.79012e-08
1.29468e-05
1.50998e-05
-4.49086e-09
1.50822e-05
-8.69299e-09
1.50621e-05
-8.14736e-09
1.50448e-05
-3.51123e-09
1.50327e-05
3.03769e-09
1.50259e-05
9.84248e-09
1.50237e-05
1.60412e-08
1.5025e-05
2.13153e-08
1.50289e-05
2.56761e-08
1.50346e-05
2.92773e-08
1.50414e-05
3.2317e-08
1.5049e-05
3.49754e-08
1.5057e-05
3.73967e-08
1.50654e-05
3.96834e-08
1.5074e-05
4.18984e-08
1.5083e-05
4.40725e-08
1.50922e-05
4.62085e-08
4.82878e-08
1.51018e-05
1.76171e-05
2.88539e-09
1.75999e-05
8.50315e-09
1.75787e-05
1.29921e-08
1.7559e-05
1.62276e-08
1.75436e-05
1.83998e-08
1.75336e-05
1.98693e-08
1.75287e-05
2.09379e-08
1.75282e-05
2.18594e-08
1.75311e-05
2.27769e-08
1.75366e-05
2.37989e-08
1.75439e-05
2.49617e-08
1.75526e-05
2.62873e-08
1.75622e-05
2.77591e-08
1.75726e-05
2.93576e-08
1.75834e-05
3.10428e-08
1.75947e-05
3.27781e-08
1.76064e-05
3.45143e-08
3.62093e-08
1.76185e-05
1.78181e-05
1.09938e-08
1.77994e-05
2.71849e-08
1.77768e-05
3.55871e-08
1.7756e-05
3.70031e-08
1.77402e-05
3.42634e-08
1.77302e-05
2.98635e-08
1.77257e-05
2.54071e-08
1.77259e-05
2.16612e-08
1.77298e-05
1.89438e-08
1.77363e-05
1.72415e-08
1.77449e-05
1.64531e-08
1.77547e-05
1.63961e-08
1.77656e-05
1.69128e-08
1.77771e-05
1.78373e-08
1.77891e-05
1.90476e-08
1.78015e-05
2.04212e-08
1.78141e-05
2.18792e-08
2.3334e-08
1.7827e-05
1.58702e-05
2.21272e-08
1.58478e-05
4.95525e-08
1.58233e-05
6.00912e-08
1.58032e-05
5.71854e-08
1.57899e-05
4.75478e-08
1.57834e-05
3.63047e-08
1.57827e-05
2.612e-08
1.57863e-05
1.80632e-08
1.5793e-05
1.22654e-08
1.58018e-05
8.49787e-09
1.58119e-05
6.35782e-09
1.58228e-05
5.46493e-09
1.58343e-05
5.47313e-09
1.5846e-05
6.11383e-09
1.58579e-05
7.16491e-09
1.58699e-05
8.46805e-09
1.58819e-05
9.88985e-09
1.13459e-08
1.58939e-05
1.41313e-05
3.95341e-08
1.41021e-05
7.86788e-08
1.40745e-05
8.77483e-08
1.40557e-05
7.59873e-08
1.40469e-05
5.63576e-08
1.40462e-05
3.69841e-08
1.40512e-05
2.11518e-08
1.40597e-05
9.5271e-09
1.40703e-05
1.70073e-09
1.40819e-05
-3.11255e-09
1.4094e-05
-5.68624e-09
1.41062e-05
-6.67179e-09
1.41182e-05
-6.56058e-09
1.41301e-05
-5.73806e-09
1.41417e-05
-4.46498e-09
1.41531e-05
-2.94469e-09
1.41643e-05
-1.30823e-09
3.38361e-10
1.41753e-05
1.25772e-05
6.73517e-08
1.25392e-05
1.16714e-07
1.25091e-05
1.17852e-07
1.24942e-05
9.08436e-08
1.24928e-05
5.77632e-08
1.25002e-05
2.96328e-08
1.25122e-05
9.09895e-09
1.25263e-05
-4.53775e-09
1.25409e-05
-1.28414e-08
1.25552e-05
-1.73506e-08
1.25688e-05
-1.92907e-08
1.25817e-05
-1.95408e-08
1.25939e-05
-1.87403e-08
1.26055e-05
-1.72844e-08
1.26165e-05
-1.54812e-08
1.26271e-05
-1.34996e-08
1.26372e-05
-1.14816e-08
-9.5017e-09
1.26471e-05
1.11862e-05
1.10914e-07
1.11384e-05
1.6455e-07
1.11088e-05
1.47487e-07
1.11022e-05
9.74404e-08
1.11117e-05
4.82656e-08
1.1129e-05
1.23679e-08
1.11486e-05
-1.04996e-08
1.11678e-05
-2.37203e-08
1.11855e-05
-3.0494e-08
1.12013e-05
-3.32e-08
1.12155e-05
-3.34526e-08
1.12283e-05
-3.22795e-08
1.12399e-05
-3.03014e-08
1.12506e-05
-2.79271e-08
1.12605e-05
-2.53853e-08
1.12699e-05
-2.28241e-08
1.12788e-05
-2.0325e-08
-1.79728e-08
1.12872e-05
9.93908e-06
1.7645e-07
9.88248e-06
2.21147e-07
9.85874e-06
1.71234e-07
9.86595e-06
9.02344e-08
9.88964e-06
2.45929e-08
9.91763e-06
-1.56033e-08
9.94396e-06
-3.67968e-08
9.96672e-06
-4.64237e-08
9.98577e-06
-4.94723e-08
1.00017e-05
-4.90735e-08
1.00151e-05
-4.68698e-08
1.00266e-05
-4.38289e-08
1.00368e-05
-4.03941e-08
1.0046e-05
-3.69645e-08
1.00543e-05
-3.36514e-08
1.00621e-05
-3.05158e-08
1.00693e-05
-2.75692e-08
-2.48503e-08
1.00762e-05
8.81963e-06
2.69916e-07
8.75785e-06
2.82933e-07
8.74788e-06
1.812e-07
8.77483e-06
6.32832e-08
8.81462e-06
-1.51833e-08
8.85218e-06
-5.31306e-08
8.88272e-06
-6.72762e-08
8.90635e-06
-6.99608e-08
8.92438e-06
-6.75449e-08
8.93842e-06
-6.30401e-08
8.94964e-06
-5.80222e-08
8.95898e-06
-5.29308e-08
8.96689e-06
-4.82114e-08
8.97388e-06
-4.38035e-08
8.98019e-06
-3.99082e-08
8.98604e-06
-3.62729e-08
8.99149e-06
-3.29422e-08
-2.99735e-08
8.99662e-06
7.81391e-06
3.96675e-07
7.7539e-06
3.42935e-07
7.76868e-06
1.66418e-07
7.82055e-06
1.14204e-08
7.87571e-06
-7.0334e-08
7.91918e-06
-9.65778e-08
7.94975e-06
-9.7846e-08
7.97067e-06
-9.07977e-08
7.98506e-06
-8.17163e-08
7.99526e-06
-7.31549e-08
8.00299e-06
-6.55552e-08
8.00904e-06
-5.90175e-08
8.0141e-06
-5.30396e-08
8.01838e-06
-4.7972e-08
8.02236e-06
-4.36513e-08
8.02603e-06
-3.98671e-08
8.02942e-06
-3.62991e-08
-3.31564e-08
8.03264e-06
6.90424e-06
5.66769e-07
6.86137e-06
3.85802e-07
6.91717e-06
1.10613e-07
6.99676e-06
-6.81785e-08
7.06257e-06
-1.36153e-07
7.10537e-06
-1.39378e-07
7.13034e-06
-1.22703e-07
7.14454e-06
-1.04951e-07
7.1525e-06
-8.96689e-08
7.15715e-06
-7.76483e-08
7.16012e-06
-6.84265e-08
7.16231e-06
-6.0871e-08
7.16381e-06
-5.44883e-08
7.16502e-06
-4.90594e-08
7.16622e-06
-4.48829e-08
7.16751e-06
-4.10999e-08
7.16865e-06
-3.73844e-08
-3.42319e-08
7.16971e-06
6.07162e-06
7.97663e-07
6.08525e-06
3.7216e-07
6.19865e-06
-2.79208e-09
6.29991e-06
-1.6944e-07
6.3653e-06
-2.01547e-07
6.3976e-06
-1.7166e-07
6.41008e-06
-1.35312e-07
6.41335e-06
-1.07913e-07
6.41236e-06
-8.87312e-08
6.40994e-06
-7.52191e-08
6.40739e-06
-6.58153e-08
6.40488e-06
-5.84684e-08
6.40226e-06
-5.19592e-08
6.39977e-06
-4.65205e-08
6.3979e-06
-4.29698e-08
6.39646e-06
-3.96838e-08
6.39494e-06
-3.59475e-08
-3.28469e-08
6.3936e-06
5.35805e-06
1.05451e-06
5.50649e-06
2.23711e-07
5.64777e-06
-1.4409e-07
5.73566e-06
-2.57338e-07
5.77649e-06
-2.42404e-07
5.78329e-06
-1.78573e-07
5.77502e-06
-1.26916e-07
5.76262e-06
-9.55985e-08
5.75013e-06
-7.6421e-08
5.73924e-06
-6.46175e-08
5.73033e-06
-5.713e-08
5.72241e-06
-5.07942e-08
5.71462e-06
-4.4454e-08
5.70742e-06
-3.95577e-08
5.70166e-06
-3.74083e-08
5.69679e-06
-3.50108e-08
5.69201e-06
-3.12418e-08
-2.85368e-08
5.68761e-06
5.04576e-06
1.01105e-06
5.36491e-06
-9.54603e-08
5.35252e-06
-1.31741e-07
5.33287e-06
-2.3772e-07
5.29604e-06
-2.05639e-07
5.25012e-06
-1.3276e-07
5.20828e-06
-8.51117e-08
5.17418e-06
-6.16579e-08
5.14675e-06
-4.93567e-08
5.12464e-06
-4.29708e-08
5.10671e-06
-3.95883e-08
5.0909e-06
-3.55087e-08
5.07577e-06
-2.99382e-08
5.06227e-06
-2.65219e-08
5.05106e-06
-2.6561e-08
5.04065e-06
-2.48461e-08
5.03061e-06
-2.13428e-08
-2.16574e-08
5.02366e-06
5.4676e-06
5.37214e-06
5.24039e-06
5.00267e-06
4.79701e-06
4.66425e-06
4.57911e-06
4.5174e-06
4.46796e-06
4.42492e-06
4.38523e-06
4.34959e-06
4.31955e-06
4.29294e-06
4.26631e-06
4.24142e-06
4.22006e-06
4.19841e-06
2.47987e-08
-2.48218e-08
2.38668e-07
-2.13863e-07
4.89984e-07
-2.51355e-07
7.09273e-07
-2.19293e-07
8.75929e-07
-1.66689e-07
9.86026e-07
-1.101e-07
1.04055e-06
-5.45602e-08
1.04183e-06
-1.27428e-09
9.95207e-07
4.66005e-08
9.11038e-07
8.41959e-08
8.04628e-07
1.064e-07
6.95392e-07
1.093e-07
6.02994e-07
9.24738e-08
5.36901e-07
6.60225e-08
4.85474e-07
5.15562e-08
4.24213e-07
6.09255e-08
3.36494e-07
8.78434e-08
2.08063e-07
1.28324e-07
3.16057e-08
1.76587e-07
-2.13971e-07
2.45878e-07
-5.19001e-07
3.05082e-07
-8.60272e-07
3.41413e-07
-1.2238e-06
3.63503e-07
-1.60034e-06
3.7656e-07
-1.98111e-06
3.80727e-07
-2.35602e-06
3.74884e-07
-2.7171e-06
3.61049e-07
-3.05915e-06
3.42034e-07
-3.3784e-06
3.19232e-07
-3.67253e-06
2.94123e-07
-3.94074e-06
2.68193e-07
-4.18334e-06
2.42601e-07
-4.40139e-06
2.18045e-07
-4.59637e-06
1.94972e-07
-4.76997e-06
1.73605e-07
-4.924e-06
1.54022e-07
-5.06018e-06
1.36181e-07
-5.18014e-06
1.19965e-07
-5.28536e-06
1.05212e-07
-5.3771e-06
9.17429e-08
-5.45647e-06
7.93752e-08
-5.52441e-06
6.79382e-08
-5.58169e-06
5.72767e-08
-5.62894e-06
4.72582e-08
-5.66672e-06
3.77739e-08
-5.69545e-06
2.87379e-08
-5.71553e-06
2.00788e-08
-5.7273e-06
1.17682e-08
-5.73124e-06
3.94175e-09
-5.72821e-06
-3.02897e-09
-5.71931e-06
-8.90519e-09
-5.7053e-06
-1.40112e-08
-5.68657e-06
-1.87316e-08
-5.66337e-06
-2.31943e-08
-5.63589e-06
-2.74876e-08
-5.60425e-06
-3.16389e-08
-5.56858e-06
-3.56627e-08
-5.52902e-06
-3.95656e-08
-5.48567e-06
-4.33487e-08
-5.43866e-06
-4.70108e-08
-5.38811e-06
-5.05492e-08
-5.33415e-06
-5.39606e-08
-5.27691e-06
-5.72414e-08
-5.21652e-06
-6.03883e-08
-5.15312e-06
-6.33989e-08
-5.08685e-06
-6.62701e-08
-5.01786e-06
-6.89982e-08
-4.94628e-06
-7.15812e-08
-4.87226e-06
-7.40172e-08
-4.79595e-06
-7.63052e-08
-4.71751e-06
-7.84443e-08
-4.63708e-06
-8.04342e-08
-4.5548e-06
-8.22751e-08
-4.47083e-06
-8.39678e-08
-4.38532e-06
-8.55133e-08
-4.29841e-06
-8.69136e-08
-4.21024e-06
-8.81705e-08
-4.12095e-06
-8.92868e-08
-4.03069e-06
-9.02653e-08
-3.93958e-06
-9.11098e-08
-3.84775e-06
-9.18238e-08
-3.75534e-06
-9.2412e-08
-3.66246e-06
-9.28788e-08
-3.56923e-06
-9.32303e-08
-3.47576e-06
-9.3472e-08
-3.38215e-06
-9.36119e-08
-3.28849e-06
-9.36581e-08
-3.19487e-06
-9.36217e-08
-3.10135e-06
-9.35154e-08
-3.00799e-06
-9.33549e-08
-2.91483e-06
-9.31612e-08
-2.82187e-06
-9.29595e-08
-2.7291e-06
-9.27674e-08
-2.63653e-06
-9.25638e-08
-2.54427e-06
-9.22621e-08
-2.45251e-06
-9.17614e-08
-2.36154e-06
-9.0977e-08
-2.27161e-06
-8.99293e-08
-2.18284e-06
-8.87758e-08
-2.09522e-06
-8.76216e-08
-2.00875e-06
-8.64656e-08
-1.92346e-06
-8.52923e-08
-1.83936e-06
-8.40941e-08
-1.75649e-06
-8.28706e-08
-1.67487e-06
-8.1624e-08
-1.59451e-06
-8.03583e-08
-1.51543e-06
-7.90773e-08
-1.43765e-06
-7.77836e-08
-1.36117e-06
-7.64751e-08
-1.28604e-06
-7.51306e-08
-1.21228e-06
-7.37631e-08
-1.13988e-06
-7.24003e-08
-1.06884e-06
-7.10367e-08
-9.99165e-07
-6.96735e-08
-9.30852e-07
-6.8312e-08
-8.63897e-07
-6.69532e-08
-7.98296e-07
-6.56001e-08
-7.3404e-07
-6.42545e-08
-6.7112e-07
-6.29191e-08
-6.09526e-07
-6.15925e-08
-5.49248e-07
-6.02765e-08
-4.90274e-07
-5.89723e-08
-4.32586e-07
-5.76876e-08
-3.76159e-07
-5.64255e-08
-3.20975e-07
-5.5184e-08
-2.67017e-07
-5.39588e-08
-2.14263e-07
-5.27555e-08
-1.62694e-07
-5.15709e-08
-1.12304e-07
-5.03948e-08
-6.3084e-08
-4.92268e-08
-1.51647e-08
-4.79321e-08
3.16174e-08
-4.67957e-08
7.75711e-08
-4.59635e-08
1.22567e-07
-4.49991e-08
1.66505e-07
-4.39388e-08
2.09376e-07
-4.28733e-08
2.51195e-07
-4.18273e-08
2.91997e-07
-4.08107e-08
3.31816e-07
-3.98268e-08
3.70688e-07
-3.88718e-08
4.08635e-07
-3.79455e-08
4.45682e-07
-3.70448e-08
4.81849e-07
-3.61714e-08
5.17166e-07
-3.53224e-08
5.51653e-07
-3.44996e-08
5.85341e-07
-3.37005e-08
6.1825e-07
-3.29264e-08
6.50412e-07
-3.21754e-08
6.81847e-07
-3.14489e-08
7.12586e-07
-3.07455e-08
7.4265e-07
-3.00659e-08
7.72064e-07
-2.94098e-08
8.00848e-07
-2.87776e-08
8.29028e-07
-2.8169e-08
8.56622e-07
-2.75842e-08
8.83657e-07
-2.70233e-08
9.10154e-07
-2.64858e-08
9.36136e-07
-2.59721e-08
9.61626e-07
-2.54811e-08
9.86645e-07
-2.50129e-08
1.01121e-06
-2.45654e-08
1.03535e-06
-2.41377e-08
1.05908e-06
-2.37264e-08
1.0824e-06
-2.33281e-08
1.10533e-06
-2.29366e-08
1.12786e-06
-2.25442e-08
1.14999e-06
-2.21394e-08
1.17168e-06
-2.17063e-08
1.19289e-06
-2.1223e-08
1.21353e-06
-2.06579e-08
1.23348e-06
-1.99674e-08
1.25254e-06
-1.90865e-08
1.27044e-06
-1.7919e-08
1.28675e-06
-1.63185e-08
1.30074e-06
-1.40132e-08
1.31131e-06
-1.05841e-08
1.31581e-06
-4.52171e-09
1.30889e-06
6.90696e-09
1.27926e-06
2.96159e-08
7.24464e-08
1.2068e-06
2.53691e-07
-2.78527e-07
4.88907e-07
-4.4908e-07
6.38059e-07
-4.00523e-07
7.22218e-07
-3.03456e-07
7.61186e-07
-2.05672e-07
7.66557e-07
-1.15474e-07
7.45057e-07
-3.30748e-08
7.02379e-07
4.14032e-08
6.41489e-07
1.07481e-07
5.62346e-07
1.63347e-07
4.64157e-07
2.04589e-07
3.45228e-07
2.28232e-07
1.99314e-07
2.38417e-07
1.46145e-08
2.50659e-07
-2.19254e-07
2.85433e-07
-5.06563e-07
3.48158e-07
-8.45279e-07
4.26559e-07
-1.2242e-06
5.07254e-07
-1.62937e-06
5.81793e-07
-2.02968e-06
6.46242e-07
-2.4175e-06
6.92921e-07
-2.79237e-06
7.16315e-07
-3.14721e-06
7.18345e-07
-3.47393e-06
7.03276e-07
-3.76768e-06
6.74471e-07
-4.02768e-06
6.34869e-07
-4.25446e-06
5.8782e-07
-4.44941e-06
5.3698e-07
-4.61549e-06
4.85302e-07
-4.7562e-06
4.34825e-07
-4.8749e-06
3.86888e-07
-4.97475e-06
3.42445e-07
-5.05861e-06
3.019e-07
-5.12897e-06
2.65329e-07
-5.18793e-06
2.32568e-07
-5.23722e-06
2.03311e-07
-5.27823e-06
1.77191e-07
-5.31208e-06
1.53815e-07
-5.33967e-06
1.32804e-07
-5.36173e-06
1.13809e-07
-5.37888e-06
9.65204e-08
-5.39162e-06
8.06744e-08
-5.40039e-06
6.60504e-08
-5.4056e-06
5.24684e-08
-5.40761e-06
3.97826e-08
-5.40675e-06
2.78791e-08
-5.40335e-06
1.66813e-08
-5.39774e-06
6.15529e-09
-5.39005e-06
-3.74336e-09
-5.37987e-06
-1.32084e-08
-5.3663e-06
-2.24738e-08
-5.34875e-06
-3.15669e-08
-5.32705e-06
-4.04267e-08
-5.3012e-06
-4.90459e-08
-5.27126e-06
-5.74317e-08
-5.23731e-06
-6.55906e-08
-5.19944e-06
-7.35252e-08
-5.15778e-06
-8.1235e-08
-5.11241e-06
-8.87164e-08
-5.06345e-06
-9.5964e-08
-5.01103e-06
-1.02971e-07
-4.95527e-06
-1.09729e-07
-4.89628e-06
-1.16231e-07
-4.8342e-06
-1.22469e-07
-4.76916e-06
-1.2844e-07
-4.70129e-06
-1.34135e-07
-4.63074e-06
-1.39549e-07
-4.55765e-06
-1.44675e-07
-4.48215e-06
-1.49512e-07
-4.4044e-06
-1.54056e-07
-4.32454e-06
-1.58307e-07
-4.24271e-06
-1.62263e-07
-4.15906e-06
-1.65924e-07
-4.07374e-06
-1.69293e-07
-3.98688e-06
-1.72372e-07
-3.89863e-06
-1.75163e-07
-3.80913e-06
-1.77671e-07
-3.71852e-06
-1.79901e-07
-3.62692e-06
-1.8186e-07
-3.53448e-06
-1.83553e-07
-3.44132e-06
-1.84989e-07
-3.34755e-06
-1.86175e-07
-3.25331e-06
-1.87122e-07
-3.1587e-06
-1.87838e-07
-3.06384e-06
-1.88335e-07
-2.96882e-06
-1.88625e-07
-2.87376e-06
-1.88719e-07
-2.77875e-06
-1.8863e-07
-2.6839e-06
-1.88371e-07
-2.58929e-06
-1.87956e-07
-2.49506e-06
-1.87395e-07
-2.40132e-06
-1.86696e-07
-2.30823e-06
-1.85854e-07
-2.21596e-06
-1.84839e-07
-2.12461e-06
-1.83608e-07
-2.03424e-06
-1.82132e-07
-1.94481e-06
-1.80409e-07
-1.85627e-06
-1.78479e-07
-1.76862e-06
-1.7642e-07
-1.68196e-06
-1.74284e-07
-1.59634e-06
-1.72085e-07
-1.51181e-06
-1.69824e-07
-1.4284e-06
-1.67502e-07
-1.34615e-06
-1.65123e-07
-1.26508e-06
-1.62692e-07
-1.18523e-06
-1.60216e-07
-1.1066e-06
-1.57698e-07
-1.02924e-06
-1.55143e-07
-9.53165e-07
-1.52553e-07
-8.78367e-07
-1.49928e-07
-8.04848e-07
-1.47281e-07
-7.32621e-07
-1.44627e-07
-6.61691e-07
-1.41967e-07
-5.92058e-07
-1.39306e-07
-5.23722e-07
-1.36647e-07
-4.56682e-07
-1.33993e-07
-3.90933e-07
-1.31348e-07
-3.26471e-07
-1.28716e-07
-2.63286e-07
-1.26104e-07
-2.01366e-07
-1.23511e-07
-1.40703e-07
-1.20938e-07
-8.12868e-08
-1.18388e-07
-2.31085e-08
-1.15865e-07
3.38464e-08
-1.1338e-07
8.96068e-08
-1.10944e-07
1.44188e-07
-1.08541e-07
1.97599e-07
-1.06168e-07
2.49857e-07
-1.0383e-07
3.00988e-07
-1.01528e-07
3.51019e-07
-9.92635e-08
4.00118e-07
-9.7037e-08
4.48238e-07
-9.49228e-08
4.95166e-07
-9.28952e-08
5.40986e-07
-9.08208e-08
5.85769e-07
-8.87222e-08
6.29544e-07
-8.66515e-08
6.72341e-07
-8.46282e-08
7.14183e-07
-8.26585e-08
7.55097e-07
-8.07437e-08
7.95107e-07
-7.88814e-08
8.34233e-07
-7.70707e-08
8.72499e-07
-7.53097e-08
9.09925e-07
-7.35987e-08
9.46535e-07
-7.19357e-08
9.82351e-07
-7.03216e-08
1.0174e-06
-6.87539e-08
1.0517e-06
-6.72342e-08
1.08528e-06
-6.57596e-08
1.11816e-06
-6.43328e-08
1.15036e-06
-6.29507e-08
1.18191e-06
-6.16164e-08
1.21284e-06
-6.03269e-08
1.24315e-06
-5.90854e-08
1.27288e-06
-5.7889e-08
1.30205e-06
-5.67403e-08
1.33067e-06
-5.56367e-08
1.35878e-06
-5.45801e-08
1.38638e-06
-5.35679e-08
1.41351e-06
-5.26006e-08
1.44018e-06
-5.16756e-08
1.46641e-06
-5.07909e-08
1.49221e-06
-4.99425e-08
1.51761e-06
-4.91248e-08
1.54261e-06
-4.83306e-08
1.56721e-06
-4.7548e-08
1.59142e-06
-4.6763e-08
1.61522e-06
-4.59526e-08
1.63859e-06
-4.50892e-08
1.66148e-06
-4.41295e-08
1.68383e-06
-4.30181e-08
1.70551e-06
-4.1671e-08
1.72638e-06
-3.99718e-08
1.74619e-06
-3.77418e-08
1.76457e-06
-3.47129e-08
1.78096e-06
-3.0423e-08
1.79448e-06
-2.41168e-08
1.80416e-06
-1.42148e-08
1.80897e-06
2.07664e-09
1.80704e-06
3.15338e-08
8.81796e-08
1.7913e-06
2.45007e-07
-5.23541e-07
3.40181e-07
-5.44256e-07
3.55933e-07
-4.16285e-07
3.44571e-07
-2.92094e-07
3.16534e-07
-1.77645e-07
2.72078e-07
-7.10177e-08
2.10467e-07
2.85248e-08
1.30686e-07
1.21186e-07
3.1625e-08
2.06533e-07
-8.88981e-08
2.83869e-07
-2.36728e-07
3.52415e-07
-4.22513e-07
4.14005e-07
-6.59608e-07
4.75512e-07
-9.54501e-07
5.45524e-07
-1.29639e-06
6.27312e-07
-1.66336e-06
7.15108e-07
-2.03477e-06
7.97981e-07
-2.39417e-06
8.66661e-07
-2.72823e-06
9.15867e-07
-3.02556e-06
9.43596e-07
-3.2818e-06
9.49176e-07
-3.49895e-06
9.33475e-07
-3.68045e-06
8.99842e-07
-3.83007e-06
8.52903e-07
-3.95249e-06
7.96885e-07
-4.05308e-06
7.35452e-07
-4.13713e-06
6.71869e-07
-4.20901e-06
6.08856e-07
-4.27213e-06
5.48415e-07
-4.32907e-06
4.91768e-07
-4.3817e-06
4.3951e-07
-4.43111e-06
3.91863e-07
-4.47795e-06
3.48737e-07
-4.52247e-06
3.09847e-07
-4.56471e-06
2.74802e-07
-4.60456e-06
2.43164e-07
-4.64186e-06
2.14493e-07
-4.67642e-06
1.88377e-07
-4.70806e-06
1.64441e-07
-4.73661e-06
1.42356e-07
-4.76193e-06
1.21841e-07
-4.78391e-06
1.0266e-07
-4.80248e-06
8.46175e-08
-4.81756e-06
6.7548e-08
-4.82909e-06
5.13132e-08
-4.83701e-06
3.57949e-08
-4.84122e-06
2.08917e-08
-4.84157e-06
6.5104e-09
-4.83786e-06
-7.45578e-09
-4.82995e-06
-2.11206e-08
-4.81788e-06
-3.45419e-08
-4.80174e-06
-4.77068e-08
-4.78157e-06
-6.05934e-08
-4.75742e-06
-7.31931e-08
-4.72936e-06
-8.54991e-08
-4.69744e-06
-9.75056e-08
-4.66176e-06
-1.09206e-07
-4.62241e-06
-1.2059e-07
-4.57947e-06
-1.3165e-07
-4.53307e-06
-1.42372e-07
-4.48329e-06
-1.52744e-07
-4.43027e-06
-1.62754e-07
-4.37411e-06
-1.72388e-07
-4.31495e-06
-1.81635e-07
-4.2529e-06
-1.90488e-07
-4.1881e-06
-1.98935e-07
-4.12068e-06
-2.06967e-07
-4.05078e-06
-2.14575e-07
-3.97854e-06
-2.21756e-07
-3.90409e-06
-2.28504e-07
-3.82758e-06
-2.34817e-07
-3.74915e-06
-2.40694e-07
-3.66894e-06
-2.46135e-07
-3.58709e-06
-2.51143e-07
-3.50374e-06
-2.55719e-07
-3.41904e-06
-2.5987e-07
-3.33311e-06
-2.636e-07
-3.24609e-06
-2.66918e-07
-3.15812e-06
-2.69831e-07
-3.06932e-06
-2.72349e-07
-2.97983e-06
-2.74482e-07
-2.88976e-06
-2.76243e-07
-2.79924e-06
-2.77644e-07
-2.70838e-06
-2.78698e-07
-2.61729e-06
-2.7942e-07
-2.5261e-06
-2.79823e-07
-2.43489e-06
-2.79923e-07
-2.34379e-06
-2.79735e-07
-2.25288e-06
-2.79274e-07
-2.16228e-06
-2.78551e-07
-2.0721e-06
-2.77579e-07
-1.98243e-06
-2.76364e-07
-1.89338e-06
-2.74904e-07
-1.80503e-06
-2.73187e-07
-1.71744e-06
-2.71197e-07
-1.63064e-06
-2.68933e-07
-1.54464e-06
-2.6641e-07
-1.45946e-06
-2.63666e-07
-1.37513e-06
-2.60745e-07
-1.29174e-06
-2.57683e-07
-1.20932e-06
-2.545e-07
-1.12794e-06
-2.51206e-07
-1.04763e-06
-2.47814e-07
-9.68421e-07
-2.4433e-07
-8.90347e-07
-2.40766e-07
-8.13433e-07
-2.3713e-07
-7.37701e-07
-2.3343e-07
-6.63171e-07
-2.29673e-07
-5.89856e-07
-2.25868e-07
-5.17763e-07
-2.22021e-07
-4.469e-07
-2.18144e-07
-3.77276e-07
-2.14249e-07
-3.08899e-07
-2.10344e-07
-2.41769e-07
-2.06435e-07
-1.75887e-07
-2.02528e-07
-1.11251e-07
-1.98628e-07
-4.78561e-08
-1.94741e-07
1.4303e-08
-1.90874e-07
7.52313e-08
-1.87031e-07
1.34937e-07
-1.83216e-07
1.93433e-07
-1.79433e-07
2.50731e-07
-1.75685e-07
3.06847e-07
-1.7198e-07
3.61791e-07
-1.68324e-07
4.1557e-07
-1.64722e-07
4.68201e-07
-1.6117e-07
5.19702e-07
-1.57668e-07
5.70093e-07
-1.54221e-07
6.19396e-07
-1.50831e-07
6.67639e-07
-1.47509e-07
7.14866e-07
-1.44267e-07
7.61056e-07
-1.41115e-07
8.06177e-07
-1.38017e-07
8.50281e-07
-1.34925e-07
8.93411e-07
-1.31851e-07
9.35587e-07
-1.28828e-07
9.76829e-07
-1.25872e-07
1.01716e-06
-1.22987e-07
1.05659e-06
-1.20177e-07
1.09514e-06
-1.17439e-07
1.13285e-06
-1.14774e-07
1.16972e-06
-1.1218e-07
1.20578e-06
-1.09659e-07
1.24105e-06
-1.07208e-07
1.27555e-06
-1.04827e-07
1.3093e-06
-1.02515e-07
1.34234e-06
-1.00273e-07
1.37467e-06
-9.80986e-08
1.40633e-06
-9.59929e-08
1.43732e-06
-9.39545e-08
1.46769e-06
-9.1985e-08
1.49745e-06
-9.00831e-08
1.52661e-06
-8.82504e-08
1.55521e-06
-8.64854e-08
1.58326e-06
-8.47895e-08
1.61079e-06
-8.31609e-08
1.63781e-06
-8.16005e-08
1.66435e-06
-8.01059e-08
1.69043e-06
-7.86767e-08
1.71607e-06
-7.73096e-08
1.74128e-06
-7.60014e-08
1.76608e-06
-7.47464e-08
1.79049e-06
-7.35367e-08
1.81452e-06
-7.23616e-08
1.83817e-06
-7.12049e-08
1.86145e-06
-7.00459e-08
1.88435e-06
-6.88536e-08
1.90684e-06
-6.75881e-08
1.9289e-06
-6.61903e-08
1.95045e-06
-6.45818e-08
1.97142e-06
-6.26472e-08
1.99167e-06
-6.02255e-08
2.011e-06
-5.70737e-08
2.02911e-06
-5.28301e-08
2.04558e-06
-4.69015e-08
2.05981e-06
-3.83497e-08
2.071e-06
-2.54194e-08
2.07831e-06
-5.23785e-09
2.08218e-06
2.76636e-08
8.5664e-08
2.08469e-06
9.23318e-08
-6.15878e-07
6.08909e-08
-5.12814e-07
1.1861e-08
-3.67261e-07
-4.57846e-08
-2.34445e-07
-1.15849e-07
-1.07588e-07
-2.01794e-07
1.49302e-08
-3.06638e-07
1.33363e-07
-4.32793e-07
2.47339e-07
-5.82861e-07
3.56598e-07
-7.60243e-07
4.61247e-07
-9.69703e-07
5.61874e-07
-1.21548e-06
6.59768e-07
-1.49606e-06
7.56094e-07
-1.80038e-06
8.49831e-07
-2.10962e-06
9.36548e-07
-2.40435e-06
1.00984e-06
-2.6704e-06
1.06403e-06
-2.89974e-06
1.09601e-06
-3.08922e-06
1.10535e-06
-3.23945e-06
1.09384e-06
-3.35474e-06
1.06447e-06
-3.44187e-06
1.02062e-06
-3.50812e-06
9.66093e-07
-3.55993e-06
9.04709e-07
-3.6027e-06
8.39659e-07
-3.64081e-06
7.73562e-07
-3.67745e-06
7.08506e-07
-3.71461e-06
6.46014e-07
-3.75327e-06
5.8707e-07
-3.79368e-06
5.32179e-07
-3.83566e-06
4.81485e-07
-3.8787e-06
4.34903e-07
-3.92216e-06
3.92199e-07
-3.96536e-06
3.5305e-07
-4.00765e-06
3.17094e-07
-4.04845e-06
2.83963e-07
-4.08726e-06
2.53299e-07
-4.12365e-06
2.24774e-07
-4.1573e-06
1.9809e-07
-4.18793e-06
1.72983e-07
-4.21532e-06
1.49226e-07
-4.23928e-06
1.26623e-07
-4.25967e-06
1.0501e-07
-4.27637e-06
8.42449e-08
-4.28926e-06
6.42098e-08
-4.29827e-06
4.48035e-08
-4.30332e-06
2.59405e-08
-4.30436e-06
7.54441e-09
-4.30135e-06
-1.04581e-08
-4.29435e-06
-2.81277e-08
-4.2834e-06
-4.54913e-08
-4.26856e-06
-6.25454e-08
-4.24987e-06
-7.92772e-08
-4.22739e-06
-9.5674e-08
-4.20117e-06
-1.11722e-07
-4.17127e-06
-1.27406e-07
-4.13776e-06
-1.42712e-07
-4.10073e-06
-1.57621e-07
-4.06027e-06
-1.72117e-07
-4.01646e-06
-1.86181e-07
-3.9694e-06
-1.99795e-07
-3.91922e-06
-2.12941e-07
-3.86601e-06
-2.25597e-07
-3.80989e-06
-2.3775e-07
-3.751e-06
-2.49387e-07
-3.68944e-06
-2.60494e-07
-3.62535e-06
-2.71058e-07
-3.55885e-06
-2.81068e-07
-3.49009e-06
-2.90518e-07
-3.4192e-06
-2.994e-07
-3.3463e-06
-3.07712e-07
-3.27154e-06
-3.15452e-07
-3.19506e-06
-3.22619e-07
-3.11699e-06
-3.29215e-07
-3.03746e-06
-3.35246e-07
-2.95661e-06
-3.40716e-07
-2.87458e-06
-3.45632e-07
-2.7915e-06
-3.50005e-07
-2.70748e-06
-3.53844e-07
-2.62267e-06
-3.57163e-07
-2.53718e-06
-3.59973e-07
-2.45113e-06
-3.6229e-07
-2.36464e-06
-3.6413e-07
-2.27783e-06
-3.65508e-07
-2.19081e-06
-3.66443e-07
-2.10368e-06
-3.66952e-07
-2.01655e-06
-3.67053e-07
-1.92952e-06
-3.66763e-07
-1.8427e-06
-3.661e-07
-1.75617e-06
-3.6508e-07
-1.67003e-06
-3.63716e-07
-1.58437e-06
-3.62019e-07
-1.49928e-06
-3.59997e-07
-1.41482e-06
-3.5765e-07
-1.33103e-06
-3.54982e-07
-1.24797e-06
-3.52002e-07
-1.16565e-06
-3.4873e-07
-1.08412e-06
-3.45197e-07
-1.00343e-06
-3.41439e-07
-9.23624e-07
-3.37486e-07
-8.44763e-07
-3.33361e-07
-7.66887e-07
-3.29083e-07
-6.90033e-07
-3.24667e-07
-6.14236e-07
-3.20128e-07
-5.39523e-07
-3.15479e-07
-4.6592e-07