/*--------------------------------*- C++ -*----------------------------------*\
  =========                 |
  \\      /  F ield         | OpenFOAM: The Open Source CFD Toolbox
   \\    /   O peration     | Website:  https://openfoam.org
    \\  /    A nd           | Version:  8
     \\/     M anipulation  |
\*---------------------------------------------------------------------------*/
FoamFile
{
    version     2.0;
    format      ascii;
    class       volVectorField;
    location    "2900";
    object      U;
}
// * * * * * * * * * * * * * * * * * * * * * * * * * * * * * * * * * * * * * //

dimensions      [0 1 -1 0 0 0 0];

internalField   nonuniform List<vector> 
12225
(
(9.2745 -4.73371 0)
(13.1094 -1.71343 0)
(12.4778 -0.395198 0)
(11.2771 -0.0422041 0)
(10.6314 0.0141384 0)
(10.2979 -9.39342e-05 0)
(10.0776 -0.0165233 0)
(9.91227 -0.00288827 0)
(9.77909 0.0348746 0)
(9.66231 0.0428928 0)
(9.55574 0.0248834 0)
(9.45767 0.00214242 0)
(9.36675 -0.0227914 0)
(9.28211 -0.0302248 0)
(9.20232 -0.0217875 0)
(9.13253 -0.0212275 0)
(9.07016 -0.0210396 0)
(9.08961 -0.027699 0)
(10.2592 0.0928019 0)
(10.7814 0.199339 0)
(10.9594 0.245656 0)
(10.7469 0.229144 0)
(10.5875 0.172969 0)
(10.4527 0.115535 0)
(10.33 0.0823315 0)
(10.2327 0.06473 0)
(10.155 0.0524767 0)
(10.0894 0.0472338 0)
(10.0323 0.0469929 0)
(9.98212 0.0489904 0)
(9.93785 0.0517977 0)
(9.89833 0.0519426 0)
(9.8615 0.048325 0)
(9.82885 0.0438428 0)
(9.79429 0.0300798 0)
(9.76827 0.0102812 0)
(9.87768 -0.24504 0)
(9.74285 0.00579116 0)
(10.1971 0.125744 0)
(10.3245 0.179364 0)
(10.3564 0.161548 0)
(10.3311 0.120077 0)
(10.2777 0.0904941 0)
(10.2252 0.0746658 0)
(10.1812 0.0658752 0)
(10.1438 0.060029 0)
(10.1103 0.0562087 0)
(10.0799 0.0536513 0)
(10.052 0.0511367 0)
(10.026 0.0487623 0)
(10.0023 0.0460754 0)
(9.98118 0.0417676 0)
(9.95915 0.0316698 0)
(9.93459 0.0135758 0)
(9.83416 -0.443933 0)
(9.57654 -0.163146 0)
(9.91603 0.0336708 0)
(10.0933 0.134225 0)
(10.1892 0.145473 0)
(10.2168 0.120739 0)
(10.205 0.0978953 0)
(10.1824 0.0839095 0)
(10.1599 0.0756297 0)
(10.1389 0.0697124 0)
(10.119 0.0651347 0)
(10.1001 0.0616378 0)
(10.0821 0.0586135 0)
(10.0648 0.0562294 0)
(10.0483 0.0538547 0)
(10.0325 0.0501446 0)
(10.0148 0.0424179 0)
(9.99178 0.0306122 0)
(9.87825 -0.387476 0)
(9.61653 -0.196147 0)
(9.81623 -0.01867 0)
(9.96136 0.0916132 0)
(10.0698 0.122197 0)
(10.1219 0.113628 0)
(10.1354 0.0992643 0)
(10.1332 0.0884211 0)
(10.1257 0.0809485 0)
(10.1162 0.0753967 0)
(10.1056 0.0711243 0)
(10.0946 0.067882 0)
(10.0833 0.0652544 0)
(10.0718 0.0631567 0)
(10.0601 0.0610446 0)
(10.0477 0.0581064 0)
(10.0328 0.0530808 0)
(10.0125 0.0469027 0)
(9.91439 -0.28804 0)
(9.68304 -0.185176 0)
(9.78717 -0.0532073 0)
(9.88917 0.0509995 0)
(9.98796 0.0936802 0)
(10.0476 0.0992041 0)
(10.0751 0.0938744 0)
(10.0861 0.0875182 0)
(10.0892 0.0821206 0)
(10.0879 0.0777647 0)
(10.0842 0.074351 0)
(10.0789 0.0717603 0)
(10.0726 0.069742 0)
(10.0654 0.0681721 0)
(10.0572 0.0667259 0)
(10.0476 0.0650433 0)
(10.0354 0.0627831 0)
(10.0185 0.0611705 0)
(9.93763 -0.214041 0)
(9.74856 -0.167535 0)
(9.79244 -0.0752152 0)
(9.85608 0.0162208 0)
(9.93595 0.0644222 0)
(9.99281 0.0805955 0)
(10.0261 0.0835614 0)
(10.0447 0.0822436 0)
(10.0546 0.0797794 0)
(10.0593 0.0772875 0)
(10.0606 0.075176 0)
(10.0596 0.0735592 0)
(10.057 0.0723894 0)
(10.053 0.0716354 0)
(10.0477 0.0711908 0)
(10.0407 0.071016 0)
(10.0312 0.0712782 0)
(10.0182 0.0731523 0)
(9.95263 -0.167334 0)
(9.79947 -0.149676 0)
(9.81177 -0.0846411 0)
(9.84959 -0.00621001 0)
(9.9114 0.0419322 0)
(9.96107 0.0638974 0)
(9.99432 0.0725501 0)
(10.0156 0.0752863 0)
(10.0288 0.07553 0)
(10.0367 0.0749036 0)
(10.041 0.0741479 0)
(10.0427 0.0735819 0)
(10.0425 0.0733233 0)
(10.0408 0.0734488 0)
(10.0375 0.0740061 0)
(10.0325 0.0751366 0)
(10.0254 0.077205 0)
(10.0157 0.0812048 0)
(9.96406 -0.132089 0)
(9.84003 -0.131988 0)
(9.83337 -0.0876897 0)
(9.85306 -0.0213324 0)
(9.89927 0.0244159 0)
(9.94102 0.0495133 0)
(9.97207 0.0621236 0)
(9.99385 0.068077 0)
(10.0086 0.0706961 0)
(10.0184 0.0717947 0)
(10.0246 0.0723177 0)
(10.0282 0.0727537 0)
(10.0298 0.0733606 0)
(10.0297 0.0743192 0)
(10.028 0.0757873 0)
(10.0248 0.078008 0)
(10.0197 0.0814111 0)
(10.0129 0.0868082 0)
(9.97418 -0.100205 0)
(9.87757 -0.11239 0)
(9.85857 -0.085366 0)
(9.86387 -0.0323326 0)
(9.89487 0.00892919 0)
(9.92743 0.0352243 0)
(9.95439 0.0507173 0)
(9.97502 0.0594971 0)
(9.99015 0.0644443 0)
(10.0009 0.0673595 0)
(10.0085 0.0692982 0)
(10.0135 0.070878 0)
(10.0166 0.0724766 0)
(10.018 0.0743694 0)
(10.0179 0.0768021 0)
(10.0164 0.0800766 0)
(10.0136 0.0846182 0)
(10.0095 0.0910435 0)
(9.98253 -0.0727091 0)
(9.91035 -0.0921962 0)
(9.88507 -0.078244 0)
(9.88001 -0.0386072 0)
(9.89746 -0.00337364 0)
(9.92043 0.0221693 0)
(9.94196 0.0391846 0)
(9.95999 0.0500813 0)
(9.97425 0.0570565 0)
(9.98518 0.0617052 0)
(9.99339 0.0650797 0)
(9.99941 0.0678637 0)
(10.0037 0.0705166 0)
(10.0064 0.0733848 0)
(10.0078 0.0767701 0)
(10.0081 0.0809922 0)
(10.0073 0.0864248 0)
(10.0058 0.0935039 0)
(9.98894 -0.0502566 0)
(9.93733 -0.072378 0)
(9.91073 -0.0674479 0)
(9.89917 -0.0399825 0)
(9.90566 -0.0116494 0)
(9.91955 0.0114526 0)
(9.93496 0.028531 0)
(9.94934 0.0405808 0)
(9.96169 0.0490249 0)
(9.97188 0.0551119 0)
(9.98009 0.05978 0)
(9.98659 0.0637032 0)
(9.99163 0.0673717 0)
(9.99544 0.0711647 0)
(9.9982 0.0754036 0)
(10.0001 0.0803908 0)
(10.0013 0.0864266 0)
(10.0021 0.0937943 0)
(9.99348 -0.0329086 0)
(9.9582 -0.0538109 0)
(9.93368 -0.0542833 0)
(9.91898 -0.0367869 0)
(9.91755 -0.015453 0)
(9.92366 0.00399534 0)
(9.93301 0.019776 0)
(9.94318 0.0318771 0)
(9.9529 0.0410111 0)
(9.96163 0.048021 0)
(9.96922 0.0536477 0)
(9.9757 0.058484 0)
(9.98118 0.0629927 0)
(9.98578 0.0675417 0)
(9.98965 0.0724345 0)
(9.99294 0.0779314 0)
(9.99587 0.0842541 0)
(9.99869 0.0915741 0)
(9.99643 -0.0202024 0)
(9.97327 -0.0372097 0)
(9.95261 -0.0400452 0)
(9.93731 -0.0298103 0)
(9.93089 -0.0148231 0)
(9.93102 0.000367021 0)
(9.93504 0.0137748 0)
(9.94104 0.0248432 0)
(9.94782 0.0337593 0)
(9.95465 0.0409915 0)
(9.96117 0.04705 0)
(9.96724 0.052395 0)
(9.97281 0.0574117 0)
(9.9779 0.0624151 0)
(9.98261 0.0676593 0)
(9.98704 0.0733466 0)
(9.99135 0.0796277 0)
(9.99573 0.086596 0)
(9.99816 -0.0112876 0)
(9.9833 -0.0229304 0)
(9.96682 -0.0257624 0)
(9.95243 -0.0200763 0)
(9.94344 -0.0102413 0)
(9.93952 0.000675506 0)
(9.9394 0.0110305 0)
(9.94183 0.0201444 0)
(9.94582 0.0279255 0)
(9.95069 0.034572 0)
(9.95597 0.0403856 0)
(9.96139 0.0456761 0)
(9.96681 0.0507216 0)
(9.97216 0.055754 0)
(9.97744 0.0609574 0)
(9.9827 0.0664684 0)
(9.98803 0.0723762 0)
(9.99354 0.0787217 0)
(9.99906 -0.00508076 0)
(9.98922 -0.0107805 0)
(9.97612 -0.0119165 0)
(9.96309 -0.00848221 0)
(9.9531 -0.00243403 0)
(9.94685 0.00457932 0)
(9.94399 0.0115581 0)
(9.94384 0.0180212 0)
(9.9457 0.0238393 0)
(9.94896 0.0290809 0)
(9.95317 0.0339015 0)
(9.95799 0.0384779 0)
(9.96321 0.0429747 0)
(9.96868 0.0475294 0)
(9.97435 0.0522461 0)
(9.98019 0.0571945 0)
(9.98623 0.0624102 0)
(9.99249 0.0678954 0)
(9.99942 -0.000367141 0)
(9.9918 0.00015213 0)
(9.98042 0.00183288 0)
(9.96821 0.00459445 0)
(9.9579 0.00792101 0)
(9.95061 0.0114026 0)
(9.94642 0.0148177 0)
(9.94498 0.0180895 0)
(9.94576 0.0212347 0)
(9.94825 0.0243194 0)
(9.95198 0.0274249 0)
(9.95661 0.0306282 0)
(9.96186 0.0339918 0)
(9.96757 0.0375597 0)
(9.97362 0.0413557 0)
(9.97993 0.0453847 0)
(9.98648 0.0496324 0)
(9.99325 0.054069 0)
(9.99935 0.00408489 0)
(9.9911 0.0111737 0)
(9.97897 0.0161341 0)
(9.96616 0.0187377 0)
(9.95552 0.0196141 0)
(9.94819 0.0195479 0)
(9.94419 0.0191612 0)
(9.94311 0.018864 0)
(9.94438 0.0188969 0)
(9.94741 0.0193769 0)
(9.95174 0.0203448 0)
(9.95698 0.0217954 0)
(9.96287 0.0236978 0)
(9.96919 0.0260075 0)
(9.97583 0.0286727 0)
(9.9827 0.0316371 0)
(9.98974 0.0348426 0)
(9.99692 0.0382286 0)
(9.99882 0.00972984 0)
(9.98675 0.0240493 0)
(9.97122 0.0318474 0)
(9.95641 0.0332949 0)
(9.94558 0.0307056 0)
(9.93942 0.0263519 0)
(9.93734 0.0217495 0)
(9.93845 0.0177409 0)
(9.94186 0.0146966 0)
(9.94687 0.0127122 0)
(9.95291 0.0117319 0)
(9.95963 0.011637 0)
(9.96674 0.0122883 0)
(9.97408 0.0135501 0)
(9.98155 0.0152975 0)
(9.98908 0.0174207 0)
(9.99665 0.0198232 0)
(10.0042 0.0224208 0)
(9.99757 0.01821 0)
(9.97773 0.0404557 0)
(9.95664 0.0495782 0)
(9.93945 0.0474799 0)
(9.92961 0.0394252 0)
(9.92659 0.0296489 0)
(9.92848 0.0204922 0)
(9.93357 0.0129688 0)
(9.94055 0.00735058 0)
(9.94856 0.00351942 0)
(9.95704 0.00122401 0)
(9.96567 0.000174687 0)
(9.97428 0.000108094 0)
(9.98276 0.000791024 0)
(9.99109 0.002037 0)
(9.99925 0.00369316 0)
(10.0073 0.00563751 0)
(10.0151 0.00777202 0)
(9.99502 0.0318146 0)
(9.96177 0.062134 0)
(9.93372 0.0695521 0)
(9.91534 0.060116 0)
(9.90932 0.0439521 0)
(9.91249 0.0276615 0)
(9.92084 0.0139953 0)
(9.93162 0.00364066 0)
(9.94322 -0.00364067 0)
(9.95479 -0.00837281 0)
(9.96594 -0.0111298 0)
(9.97652 -0.0123937 0)
(9.98651 -0.0125704 0)
(9.99595 -0.0119594 0)
(10.0049 -0.0107971 0)
(10.0135 -0.00925599 0)
(10.0217 -0.00746707 0)
(10.0296 -0.00552859 0)
(9.99018 0.0534618 0)
(9.93561 0.0901522 0)
(9.90098 0.0906282 0)
(9.88515 0.0687575 0)
(9.8878 0.0418197 0)
(9.90121 0.0186593 0)
(9.91856 0.00141802 0)
(9.93626 -0.0103955 0)
(9.95285 -0.0179402 0)
(9.96786 -0.0223926 0)
(9.98129 -0.0246485 0)
(9.99332 -0.0253897 0)
(10.0042 -0.0250948 0)
(10.0141 -0.0241192 0)
(10.0232 -0.0227003 0)
(10.0318 -0.0210067 0)
(10.0399 -0.0191549 0)
(10.0476 -0.0172267 0)
(9.9819 0.0862471 0)
(9.89548 0.124258 0)
(9.85817 0.109884 0)
(9.85209 0.0697743 0)
(9.87033 0.0303385 0)
(9.89842 0.00144928 0)
(9.92658 -0.017204 0)
(9.95135 -0.0283203 0)
(9.9722 -0.0344195 0)
(9.9896 -0.0373292 0)
(10.0042 -0.0382056 0)
(10.0168 -0.0378003 0)
(10.0276 -0.0366174 0)
(10.0372 -0.0349803 0)
(10.0459 -0.0330916 0)
(10.0539 -0.0310917 0)
(10.0613 -0.0290583 0)
(10.0684 -0.0270532 0)
(9.96925 0.13399 0)
(9.83823 0.163089 0)
(9.80793 0.122591 0)
(9.82311 0.0588003 0)
(9.86512 0.00730854 0)
(9.91138 -0.0240262 0)
(9.95035 -0.0405902 0)
(9.98048 -0.0483708 0)
(10.0034 -0.0512351 0)
(10.0212 -0.0515369 0)
(10.0353 -0.050415 0)
(10.0469 -0.0485122 0)
(10.0565 -0.04626 0)
(10.0649 -0.0438593 0)
(10.0723 -0.0414373 0)
(10.079 -0.0390863 0)
(10.0852 -0.0368579 0)
(10.0911 -0.0347637 0)
(9.94951 0.20714 0)
(9.76128 0.207022 0)
(9.75726 0.123478 0)
(9.81042 0.0320113 0)
(9.88382 -0.0278607 0)
(9.94874 -0.0559945 0)
(9.99526 -0.0660723 0)
(10.0266 -0.0678009 0)
(10.048 -0.0659722 0)
(10.063 -0.0631912 0)
(10.0743 -0.0598825 0)
(10.083 -0.0564953 0)
(10.09 -0.0531565 0)
(10.0959 -0.0501241 0)
(10.101 -0.0472803 0)
(10.1057 -0.044675 0)
(10.11 -0.042321 0)
(10.1141 -0.0401933 0)
(9.91094 0.322718 0)
(9.65923 0.254545 0)
(9.71887 0.107407 0)
(9.83329 -0.0119229 0)
(9.94173 -0.0726523 0)
(10.0199 -0.0901623 0)
(10.0662 -0.0893218 0)
(10.0917 -0.0831377 0)
(10.1058 -0.0760381 0)
(10.1141 -0.069616 0)
(10.1197 -0.0644924 0)
(10.1236 -0.0600803 0)
(10.1262 -0.0564 0)
(10.1281 -0.0532008 0)
(10.1298 -0.0501627 0)
(10.1314 -0.0476195 0)
(10.1329 -0.0455467 0)
(10.1344 -0.0434254 0)
(9.84404 0.43511 0)
(9.53798 0.261026 0)
(9.7269 0.059135 0)
(9.92367 -0.0731153 0)
(10.0584 -0.121552 0)
(10.1344 -0.120191 0)
(10.1664 -0.10528 0)
(10.1758 -0.0906168 0)
(10.1759 -0.0784829 0)
(10.1725 -0.0703766 0)
(10.1686 -0.0644298 0)
(10.1646 -0.0597637 0)
(10.1606 -0.0556875 0)
(10.1569 -0.0524172 0)
(10.1536 -0.0496132 0)
(10.1503 -0.0474479 0)
(10.1479 -0.0458476 0)
(10.146 -0.043927 0)
(9.83598 0.319666 0)
(9.55021 0.0912513 0)
(9.91739 -0.0687253 0)
(10.1507 -0.160112 0)
(10.2634 -0.172136 0)
(10.3032 -0.142726 0)
(10.2978 -0.112095 0)
(10.276 -0.0899552 0)
(10.2516 -0.0753901 0)
(10.2302 -0.0674552 0)
(10.2132 -0.0619263 0)
(10.1983 -0.0574414 0)
(10.1844 -0.0528829 0)
(10.1713 -0.0486261 0)
(10.1597 -0.0448461 0)
(10.1497 -0.0425164 0)
(10.141 -0.0407808 0)
(10.1325 -0.0380692 0)
(10.2049 -0.0633775 0)
(10.4095 -0.191706 0)
(10.7164 -0.282558 0)
(10.6879 -0.282287 0)
(10.6191 -0.230103 0)
(10.5417 -0.163667 0)
(10.4546 -0.117044 0)
(10.3763 -0.0925009 0)
(10.3137 -0.0798721 0)
(10.2654 -0.0678615 0)
(10.2262 -0.0588596 0)
(10.1916 -0.0542989 0)
(10.1603 -0.0534855 0)
(10.1322 -0.053082 0)
(10.107 -0.0522527 0)
(10.0852 -0.0482439 0)
(10.0638 -0.0440348 0)
(10.0436 -0.0449085 0)
(9.41631 4.45107 0)
(12.7294 2.07612 0)
(12.5649 0.621213 0)
(11.569 0.127657 0)
(10.9309 0.00343446 0)
(10.5866 -0.00206811 0)
(10.3638 0.012309 0)
(10.2022 0.0302325 0)
(10.0795 0.0411899 0)
(9.97728 0.0358286 0)
(9.88477 0.0250302 0)
(9.79908 0.0218947 0)
(9.72267 0.0249852 0)
(9.65612 0.0228078 0)
(9.59983 0.0197966 0)
(9.54589 0.0108825 0)
(9.49516 -0.0143899 0)
(9.45193 -0.0109349 0)
(-0.0275181 0.0934334 0)
(0.137019 -0.183509 0)
(0.324985 -0.305895 0)
(0.525472 -0.315116 0)
(0.702947 -0.272071 0)
(0.833496 -0.211079 0)
(0.909814 -0.14634 -8.60206e-20)
(0.940395 -0.082495 8.66447e-20)
(0.919523 -0.0201729 0)
(0.85884 0.0345367 9.18653e-20)
(0.771685 0.0739592 0)
(0.672424 0.0920042 0)
(0.578502 0.087723 0)
(0.505701 0.0666628 -1.43205e-19)
(0.455748 0.0377101 0)
(0.412403 0.00997417 0)
(0.352869 -0.00897251 1.87934e-19)
(0.262709 -0.00867896 0)
(0.135165 0.0293066 0)
(-0.0448288 0.112951 0)
(-0.300545 0.186494 -1.64812e-19)
(-0.594246 0.235262 0)
(-0.915669 0.26682 -7.62387e-20)
(-1.25192 0.296039 0)
(-1.59135 0.323656 0)
(-1.93109 0.336464 -4.13227e-20)
(-2.26351 0.335616 0)
(-2.58063 0.326493 3.45409e-20)
(-2.8794 0.310355 0)
(-3.15641 0.289555 -3.13418e-20)
(-3.41077 0.266418 0)
(-3.64206 0.242538 0)
(-3.85104 0.218948 0)
(-4.03878 0.196354 0)
(-4.20672 0.175132 0)
(-4.35644 0.155489 2.823e-20)
(-4.48951 0.137461 0)
(-4.60742 0.120977 -5.55714e-20)
(-4.71155 0.105908 0)
(-4.80312 0.092096 5.47727e-20)
(-4.88318 0.0793784 0)
(-4.95263 0.0676034 0)
(-5.01223 0.0566429 -5.35507e-20)
(-5.0626 0.0464004 0)
(-5.10423 0.0368164 -5.26589e-20)
(-5.13755 0.027874 5.21811e-20)
(-5.16295 0.0196173 0)
(-5.18082 0.0121941 5.11542e-20)
(-5.19143 0.00585236 5.06018e-20)
(-5.19496 0.000802546 0)
(-5.19264 -0.0031511 0)
(-5.18572 -0.00644944 0)
(-5.17433 -0.00937193 0)
(-5.15881 -0.0120827 0)
(-5.13931 -0.0146513 -4.61822e-20)
(-5.11597 -0.0170914 0)
(-5.0889 -0.0194143 4.4317e-20)
(-5.0582 -0.021629 0)
(-5.02399 -0.0237377 0)
(-4.98635 -0.0257423 -4.11389e-20)
(-4.9454 -0.0276432 0)
(-4.90124 -0.0294403 3.87632e-20)
(-4.85398 -0.0311335 0)
(-4.80373 -0.0327227 0)
(-4.75062 -0.0342078 0)
(-4.69476 -0.0355888 -3.33836e-20)
(-4.63627 -0.036866 0)
(-4.57528 -0.0380404 0)
(-4.51192 -0.0391124 -2.87862e-20)
(-4.44632 -0.040083 0)
(-4.3786 -0.0409534 -2.54449e-20)
(-4.3089 -0.0417251 0)
(-4.23735 -0.0423998 0)
(-4.16408 -0.0429793 0)
(-4.08922 -0.0434658 1.80674e-20)
(-4.01291 -0.0438614 0)
(-3.93527 -0.0441687 0)
(-3.85642 -0.0443901 1.18854e-20)
(-3.7765 -0.0445284 9.69158e-21)
(-3.69562 -0.0445861 0)
(-3.61391 -0.0445663 5.0897e-21)
(-3.53147 -0.0444721 0)
(-3.44843 -0.0443068 3.6311e-22)
(-3.36488 -0.0440745 0)
(-3.28094 -0.0437805 -1.0127e-20)
(-3.19669 -0.0434335 0)
(-3.11222 -0.0430482 2.13698e-20)
(-3.02762 -0.0426463 0)
(-2.94296 -0.0422575 0)
(-2.85829 -0.0419218 0)
(-2.77365 -0.0416973 -4.65625e-20)
(-2.68907 -0.0416689 0)
(-2.60455 -0.041931 6.08384e-20)
(-2.52007 -0.0425373 0)
(-2.43557 -0.0434265 -7.65088e-20)
(-2.35132 -0.0443291 -8.48879e-20)
(-2.26755 -0.0447845 -9.35966e-20)
(-2.18453 -0.0445767 0)
(-2.10242 -0.043972 0)
(-2.02123 -0.0432737 0)
(-1.94099 -0.0425688 0)
(-1.8617 -0.0418686 0)
(-1.78338 -0.0411742 0)
(-1.70607 -0.0404873 0)
(-1.62978 -0.0398117 0)
(-1.55453 -0.0391531 1.92713e-19)
(-1.48035 -0.0385187 2.07035e-19)
(-1.40725 -0.0379137 0)
(-1.33524 -0.0373273 0)
(-1.26434 -0.0367021 0)
(-1.19461 -0.0360445 2.74309e-19)
(-1.12603 -0.0354105 0)
(-1.05861 -0.0347951 0)
(-0.992359 -0.0341996 0)
(-0.927271 -0.0336256 0)
(-0.863348 -0.0330753 -3.90963e-19)
(-0.800589 -0.032551 0)
(-0.73899 -0.0320561 0)
(-0.678544 -0.031594 4.89159e-19)
(-0.619245 -0.0311662 -5.28865e-19)
(-0.561085 -0.0307762 0)
(-0.504058 -0.0304345 -6.22497e-19)
(-0.44815 -0.0301649 0)
(-0.393342 -0.030012 7.41509e-19)
(-0.339613 -0.0299867 0)
(-0.286949 -0.0300505 0)
(-0.235336 -0.0301904 0)
(-0.184743 -0.0304173 0)
(-0.135147 -0.0307469 0)
(-0.0865907 -0.0311979 -2.84735e-18)
(-0.0392869 -0.0316519 -3.2783e-18)
(0.00681884 -0.0313497 0)
(0.0522373 -0.0298494 0)
(0.0969774 -0.0279986 0)
(0.140898 -0.0262806 2.68426e-18)
(0.183906 -0.0247478 0)
(0.225981 -0.0233743 0)
(0.267146 -0.0221367 0)
(0.307434 -0.0210151 2.03969e-18)
(0.346874 -0.0199924 -1.93345e-18)
(0.385496 -0.0190543 0)
(0.423325 -0.0181893 0)
(0.460386 -0.0173883 -1.68676e-18)
(0.496704 -0.0166438 -1.62212e-18)
(0.532303 -0.0159494 0)
(0.567204 -0.0153003 0)
(0.601431 -0.014692 1.46388e-18)
(0.635007 -0.0141208 -1.4204e-18)
(0.667954 -0.0135838 0)
(0.700294 -0.0130782 0)
(0.732051 -0.0126017 -1.31014e-18)
(0.763245 -0.0121523 0)
(0.793902 -0.0117284 0)
(0.824043 -0.0113282 -1.22263e-18)
(0.853692 -0.0109505 0)
(0.882872 -0.010594 -1.17356e-18)
(0.911606 -0.0102576 0)
(0.939919 -0.00994003 0)
(0.967832 -0.00964043 0)
(0.995369 -0.00935764 1.09157e-18)
(1.02255 -0.00909059 0)
(1.0494 -0.00883796 0)
(1.07593 -0.00859835 0)
(1.10216 -0.00836992 0)
(1.12809 -0.00815046 0)
(1.15374 -0.00793699 0)
(1.17909 -0.0077257 9.8277e-19)
(1.20412 -0.00751139 9.6985e-19)
(1.22879 -0.0072871 0)
(1.25303 -0.00704327 0)
(1.27675 -0.00676638 0)
(1.29976 -0.00643785 -9.24506e-19)
(1.32184 -0.00602794 0)
(1.34257 -0.00549793 1.8139e-18)
(1.36151 -0.00476079 -1.80053e-18)
(1.37725 -0.0037251 -1.7918e-18)
(1.38984 -0.00195369 1.7901e-18)
(1.39026 0.00132798 -1.79548e-18)
(1.38756 0.00807558 1.8088e-18)
(1.30829 0.0198891 0)
(0.0963178 -0.268989 0)
(0.334072 -0.681275 0)
(0.514177 -0.706523 1.57362e-19)
(0.611816 -0.571346 0)
(0.662812 -0.408897 -1.11141e-19)
(0.683252 -0.253825 -1.08107e-19)
(0.677225 -0.112175 -5.6256e-20)
(0.646852 0.0155825 -5.62012e-20)
(0.603875 0.1254 0)
(0.544681 0.211921 -6.08098e-20)
(0.46787 0.267398 0)
(0.373386 0.283199 0)
(0.257583 0.256432 1.70497e-19)
(0.110251 0.211435 9.82877e-20)
(-0.0747768 0.206284 -1.84469e-19)
(-0.301047 0.271834 -1.43801e-19)
(-0.579028 0.383408 -5.71914e-20)
(-0.90496 0.513245 0)
(-1.25855 0.642608 0)
(-1.61665 0.756436 0)
(-1.97227 0.841993 -2.85762e-20)
(-2.31786 0.89556 0)
(-2.64776 0.919046 6.90656e-20)
(-2.95448 0.915466 0)
(-3.23398 0.88903 0)
(-3.48462 0.844864 1.98202e-20)
(-3.70499 0.788297 0)
(-3.89594 0.724863 -1.97625e-20)
(-4.05933 0.658789 -4.17992e-20)
(-4.19871 0.592788 2.01693e-20)
(-4.31701 0.528962 0)
(-4.41711 0.469094 0)
(-4.50172 0.414014 0)
(-4.57325 0.364075 -4.42606e-20)
(-4.63376 0.319236 -4.47669e-20)
(-4.68494 0.279226 -2.21907e-20)
(-4.72817 0.243635 0)
(-4.76456 0.211979 4.53091e-20)
(-4.795 0.183762 0)
(-4.82021 0.158502 -4.58808e-20)
(-4.84077 0.135758 0)
(-4.85718 0.115138 0)
(-4.86985 0.0962979 4.60912e-20)
(-4.87917 0.0789494 0)
(-4.88548 0.0628514 1.38175e-19)
(-4.88907 0.0478096 -4.56117e-20)
(-4.89024 0.0336885 0)
(-4.88923 0.0204577 -4.49425e-20)
(-4.8863 0.00823341 -4.44858e-20)
(-4.88171 -0.0028223 0)
(-4.87456 -0.0127652 0)
(-4.86374 -0.0218913 0)
(-4.84923 -0.0304436 0)
(-4.83094 -0.0385367 0)
(-4.8089 -0.0462403 4.02197e-20)
(-4.78316 -0.0535913 7.91698e-20)
(-4.7538 -0.0606108 -3.84424e-20)
(-4.72091 -0.0673101 0)
(-4.68458 -0.073695 7.34914e-20)
(-4.64489 -0.0797681 -3.59693e-20)
(-4.60195 -0.0855301 0)
(-4.55586 -0.0909808 -3.32693e-20)
(-4.50672 -0.09612 0)
(-4.45465 -0.100949 0)
(-4.39975 -0.10547 -5.98966e-20)
(-4.34214 -0.109683 2.83877e-20)
(-4.28194 -0.113587 -5.47048e-20)
(-4.21927 -0.117187 5.1986e-20)
(-4.15426 -0.120485 2.42959e-20)
(-4.08703 -0.123486 0)
(-4.01771 -0.126195 2.13629e-20)
(-3.94643 -0.128618 0)
(-3.87332 -0.130762 0)
(-3.79849 -0.132634 0)
(-3.72209 -0.134242 1.56362e-20)
(-3.64424 -0.135595 0)
(-3.56506 -0.136702 2.37694e-20)
(-3.48468 -0.137572 -2.99782e-20)
(-3.40321 -0.138216 -7.94299e-21)
(-3.32078 -0.138645 0)
(-3.23751 -0.13887 -4.14221e-21)
(-3.1535 -0.138903 0)
(-3.06886 -0.138754 -2.93286e-22)
(-2.98371 -0.138437 0)
(-2.89813 -0.137964 8.11292e-21)
(-2.81224 -0.137347 -2.35678e-20)
(-2.72612 -0.136597 -1.69664e-20)
(-2.63986 -0.135724 0)
(-2.55356 -0.134737 0)
(-2.46731 -0.133641 0)
(-2.3812 -0.132435 3.61854e-20)
(-2.29534 -0.131112 0)
(-2.20988 -0.129642 -4.66574e-20)
(-2.12496 -0.127971 0)
(-2.04071 -0.126045 1.71887e-19)
(-1.95722 -0.12389 6.36346e-20)
(-1.8745 -0.121607 6.96663e-20)
(-1.79248 -0.119302 0)
(-1.71115 -0.117034 0)
(-1.63055 -0.1148 0)
(-1.55076 -0.112578 0)
(-1.47183 -0.110354 0)
(-1.3938 -0.108123 2.19502e-19)
(-1.3167 -0.105887 2.34995e-19)
(-1.24055 -0.103647 0)
(-1.16539 -0.101409 -1.34767e-19)
(-1.09125 -0.099173 -1.43547e-19)
(-1.01814 -0.0969422 0)
(-0.946101 -0.0947183 -3.23052e-19)
(-0.875136 -0.0925057 0)
(-0.805242 -0.0903178 1.81332e-19)
(-0.736429 -0.0881605 0)
(-0.668708 -0.0860341 0)
(-0.602083 -0.0839408 -4.34473e-19)
(-0.536557 -0.0818822 0)
(-0.472131 -0.0798598 2.44846e-19)
(-0.408804 -0.0778767 0)
(-0.346576 -0.0759384 0)
(-0.28544 -0.0740539 2.89788e-19)
(-0.225387 -0.0722211 3.09094e-19)
(-0.166411 -0.0704347 0)
(-0.108506 -0.0686977 -3.46393e-19)
(-0.0516775 -0.0670102 0)
(0.00407796 -0.0653636 3.82649e-19)
(0.0588017 -0.0637511 7.66176e-19)
(0.112527 -0.0621839 0)
(0.165255 -0.0606768 0)
(0.216985 -0.0592343 0)
(0.267732 -0.0578542 0)
(0.317529 -0.0565386 7.09227e-19)
(0.366447 -0.0552763 2.09641e-18)
(0.414571 -0.0538968 0)
(0.461813 -0.0522501 0)
(0.508035 -0.0504753 0)
(0.553304 -0.048728 -6.65618e-19)
(0.597703 -0.04706 0)
(0.641259 -0.0454795 0)
(0.683992 -0.043984 1.28792e-18)
(0.72592 -0.0425671 6.36942e-19)
(0.767065 -0.0412214 6.32418e-19)
(0.80745 -0.0399401 0)
(0.847096 -0.038718 0)
(0.886023 -0.0375504 6.15876e-19)
(0.924254 -0.0364337 -6.0964e-19)
(0.96181 -0.035365 0)
(0.998713 -0.0343418 0)
(1.03498 -0.0333618 -5.96783e-19)
(1.07064 -0.0324233 1.77637e-18)
(1.10571 -0.0315246 0)
(1.14021 -0.0306643 0)
(1.17417 -0.0298412 5.80315e-19)
(1.2076 -0.0290541 0)
(1.24053 -0.0283019 1.14492e-18)
(1.27298 -0.0275836 -5.68528e-19)
(1.30497 -0.0268983 0)
(1.33652 -0.026245 5.62415e-19)
(1.36766 -0.0256226 1.11755e-18)
(1.3984 -0.0250301 0)
(1.42878 -0.0244662 0)
(1.4588 -0.0239294 -5.49581e-19)
(1.48849 -0.023418 0)
(1.51787 -0.0229296 1.08645e-18)
(1.54696 -0.0224615 0)
(1.57576 -0.0220098 0)
(1.60428 -0.0215694 0)
(1.63253 -0.0211338 0)
(1.66049 -0.0206939 -5.29009e-19)
(1.68815 -0.0202378 -5.26241e-19)
(1.71548 -0.019749 0)
(1.74241 -0.0192048 0)
(1.76885 -0.0185737 0)
(1.79467 -0.01781 5.16148e-19)
(1.81965 -0.0168466 0)
(1.84346 -0.0155805 -1.02488e-18)
(1.8657 -0.0138347 1.02262e-18)
(1.88544 -0.0113247 1.02224e-18)
(1.90223 -0.00730971 1.02333e-18)
(1.91244 -0.000519124 1.02849e-18)
(1.92474 0.0124244 1.02038e-18)
(1.90518 0.036186 0)
(0.11644 -0.859719 0)
(0.269013 -1.05683 0)
(0.316105 -0.826008 -1.26332e-19)
(0.315411 -0.584235 -1.08171e-19)
(0.29798 -0.373771 1.00491e-19)
(0.266771 -0.188644 1.00672e-19)
(0.220589 -0.0231854 -6.44855e-22)
(0.158692 0.124557 0)
(0.0809548 0.255099 0)
(-0.0138598 0.366016 0)
(-0.129309 0.451727 0)
(-0.273457 0.51279 0)
(-0.459219 0.566618 -2.67337e-19)
(-0.697083 0.641356 0)
(-0.98331 0.753915 6.62775e-20)
(-1.30204 0.895883 5.71765e-20)
(-1.63533 1.04399 0)
(-1.96627 1.178 0)
(-2.2796 1.28539 0)
(-2.56349 1.35909 0)
(-2.8126 1.39484 3.49048e-20)
(-3.02653 1.39239 0)
(-3.20668 1.35643 -3.23476e-20)
(-3.35587 1.29419 0)
(-3.47858 1.21298 0)
(-3.5794 1.11922 0)
(-3.66315 1.01897 -6.85899e-20)
(-3.73419 0.917577 0)
(-3.79606 0.819171 3.31185e-20)
(-3.85152 0.726546 -7.07034e-20)
(-3.90249 0.641217 0)
(-3.95028 0.563921 0)
(-3.99564 0.494708 0)
(-4.03893 0.433193 3.65656e-20)
(-4.08027 0.378728 3.7153e-20)
(-4.11961 0.33054 0)
(-4.15681 0.287833 0)
(-4.19169 0.249846 -7.7803e-20)
(-4.22409 0.215884 -7.81959e-20)
(-4.25383 0.185339 7.84289e-20)
(-4.28077 0.15769 0)
(-4.30481 0.132509 0)
(-4.32584 0.109448 0)
(-4.34379 0.0882225 0)
(-4.35861 0.0685985 -7.70124e-20)
(-4.37024 0.0503763 -7.69143e-20)
(-4.3786 0.0333718 7.62714e-20)
(-4.38357 0.017384 0)
(-4.38496 0.00215656 0)
(-4.38263 -0.0125969 0)
(-4.37651 -0.0270095 0)
(-4.36666 -0.0409946 -7.11076e-20)
(-4.35315 -0.0544603 0)
(-4.33599 -0.0673954 0)
(-4.31524 -0.0798041 -6.69959e-20)
(-4.29094 -0.0916953 -6.49702e-20)
(-4.26316 -0.103076 0)
(-4.23197 -0.113951 1.24572e-19)
(-4.19746 -0.124322 -6.00321e-20)
(-4.1597 -0.134188 5.82555e-20)
(-4.11878 -0.143549 0)
(-4.0748 -0.152402 0)
(-4.02786 -0.160745 0)
(-3.97806 -0.168577 0)
(-3.9255 -0.175901 4.84237e-20)
(-3.87031 -0.182719 9.37783e-20)
(-3.8126 -0.189031 4.40583e-20)
(-3.75248 -0.194838 -4.17861e-20)
(-3.69007 -0.200148 0)
(-3.62549 -0.204967 7.54267e-20)
(-3.55887 -0.209303 7.05435e-20)
(-3.49033 -0.213165 6.5544e-20)
(-3.42 -0.216563 -6.04287e-20)
(-3.348 -0.219509 0)
(-3.27446 -0.222016 -7.41014e-20)
(-3.1995 -0.224096 0)
(-3.12324 -0.225765 2.00961e-20)
(-3.0458 -0.227038 1.58729e-20)
(-2.96731 -0.22793 0)
(-2.88788 -0.22846 0)
(-2.80763 -0.228643 1.53628e-20)
(-2.72667 -0.228497 0)
(-2.6451 -0.228042 2.92824e-21)
(-2.56305 -0.227295 0)
(-2.48061 -0.226276 9.99492e-21)
(-2.39787 -0.225004 3.47179e-20)
(-2.31495 -0.223498 0)
(-2.23194 -0.221777 0)
(-2.14893 -0.219862 0)
(-2.06603 -0.217767 4.45802e-20)
(-1.98331 -0.21551 0)
(-1.9009 -0.213101 5.94021e-20)
(-1.81887 -0.210541 0)
(-1.73732 -0.207817 0)
(-1.65632 -0.2049 -1.67051e-19)
(-1.57591 -0.201778 0)
(-1.4961 -0.198462 -9.93124e-20)
(-1.4169 -0.194997 0)
(-1.33834 -0.191439 -1.16592e-19)
(-1.26047 -0.187827 0)
(-1.18336 -0.18418 0)
(-1.10706 -0.180504 0)
(-1.03161 -0.176806 -4.62692e-19)
(-0.957039 -0.173092 -1.65044e-19)
(-0.883382 -0.16937 0)
(-0.810667 -0.165646 0)
(-0.738918 -0.161926 0)
(-0.668156 -0.158215 0)
(-0.5984 -0.154517 2.1884e-19)
(-0.529661 -0.150839 -4.5847e-19)
(-0.461944 -0.147189 -2.42674e-19)
(-0.395262 -0.143576 5.07663e-19)
(-0.329625 -0.140005 5.33461e-19)
(-0.265039 -0.136482 2.81381e-19)
(-0.201505 -0.133011 0)
(-0.139024 -0.12959 6.16231e-19)
(-0.0775993 -0.126223 0)
(-0.0172308 -0.122914 -6.73559e-19)
(0.0420873 -0.119663 -3.4516e-19)
(0.100368 -0.116472 0)
(0.157619 -0.113343 6.93125e-19)
(0.213845 -0.11028 3.48831e-19)
(0.269055 -0.107282 0)
(0.323262 -0.104341 3.48725e-19)
(0.376472 -0.101445 -1.05282e-18)
(0.428695 -0.0986026 0)
(0.479944 -0.0958254 0)
(0.530236 -0.0931155 0)
(0.579589 -0.0904739 0)
(0.628025 -0.087905 -7.07751e-19)
(0.675579 -0.0854159 -7.10243e-19)
(0.722273 -0.0830217 0)
(0.768073 -0.0807094 0)
(0.812965 -0.07844 0)
(0.857001 -0.0762123 0)
(0.900224 -0.0740426 0)
(0.94265 -0.0719393 0)
(0.984293 -0.0699053 -7.1402e-19)
(1.02517 -0.0679401 -1.08864e-21)
(1.06529 -0.0660424 0)
(1.10469 -0.0642101 0)
(1.14338 -0.0624411 -7.13855e-19)
(1.18137 -0.0607337 0)
(1.2187 -0.0590861 7.14903e-19)
(1.25538 -0.057497 7.14041e-19)
(1.29143 -0.0559649 0)
(1.32687 -0.0544886 0)
(1.36172 -0.0530671 -7.14574e-19)
(1.39601 -0.0516992 -1.42735e-18)
(1.42976 -0.050384 0)
(1.46297 -0.0491206 0)
(1.49569 -0.047908 0)
(1.52792 -0.0467453 -7.13265e-19)
(1.55969 -0.0456316 7.12883e-19)
(1.59102 -0.0445659 0)
(1.62194 -0.0435472 1.42289e-18)
(1.65246 -0.0425742 7.10425e-19)
(1.6826 -0.0416456 -1.42083e-18)
(1.71239 -0.0407598 0)
(1.74184 -0.0399147 0)
(1.77098 -0.0391078 -1.41703e-18)
(1.79982 -0.0383357 -7.08226e-19)
(1.82838 -0.0375941 0)
(1.85668 -0.0368773 0)
(1.88472 -0.0361777 0)
(1.9125 -0.0354851 0)
(1.94002 -0.0347861 -1.4069e-18)
(1.96728 -0.0340622 0)
(1.99423 -0.0332887 0)
(2.02084 -0.032431 0)
(2.04702 -0.0314415 0)
(2.07266 -0.0302517 0)
(2.09759 -0.0287609 0)
(2.12155 -0.0268176 -1.39756e-18)
(2.1442 -0.0241702 0)
(2.16487 -0.0204136 0)
(2.18333 -0.0147552 -2.81633e-18)
(2.19676 -0.0058779 1.41818e-18)
(2.21146 0.00887595 -1.4163e-18)
(2.20636 0.0362543 1.41175e-18)
(0.0333184 -1.16607 0)
(0.0696782 -1.02976 3.59942e-19)
(0.0339236 -0.746798 0)
(-0.0105345 -0.50632 1.1088e-19)
(-0.0658711 -0.283601 0)
(-0.133738 -0.0740123 0)
(-0.216985 0.122841 -8.28079e-20)
(-0.317986 0.306223 0)
(-0.438866 0.475693 0)
(-0.582232 0.631807 0)
(-0.751937 0.777103 0)
(-0.953193 0.91768 0)
(-1.18863 1.06165 2.04197e-19)
(-1.45266 1.21243 9.24364e-20)
(-1.7308 1.36375 -8.36884e-20)
(-2.0047 1.50227 0)
(-2.25862 1.61417 0)
(-2.4825 1.6901 0)
(-2.67157 1.72634 0)
(-2.82439 1.72415 0)
(-2.94354 1.6874 6.01637e-20)
(-3.03457 1.62132 5.8847e-20)
(-3.10356 1.53276 -5.79941e-20)
(-3.15686 1.42938 5.76926e-20)
(-3.19985 1.31789 0)
(-3.23688 1.20368 0)
(-3.27141 1.09112 5.58457e-20)
(-3.3058 0.983486 0)
(-3.34132 0.882908 0)
(-3.37848 0.790423 5.87001e-20)
(-3.41728 0.706273 6.15181e-20)
(-3.4574 0.630231 6.22297e-20)
(-3.49828 0.561767 0)
(-3.53932 0.500184 0)
(-3.57991 0.444723 -6.40399e-20)
(-3.61947 0.394626 0)
(-3.65752 0.349183 0)
(-3.69364 0.307751 6.43128e-20)
(-3.72749 0.269764 -6.60328e-20)
(-3.75879 0.234735 6.60433e-20)
(-3.78732 0.202249 0)
(-3.81288 0.171955 0)
(-3.83534 0.143557 1.3002e-19)
(-3.85455 0.116803 0)
(-3.87041 0.0914835 1.28631e-19)
(-3.88283 0.0674207 1.91044e-19)
(-3.89174 0.044471 -1.89402e-19)
(-3.89705 0.0225141 1.25333e-19)
(-3.89874 0.00143304 0)
(-3.89679 -0.0188883 0)
(-3.89125 -0.0385279 1.19877e-19)
(-3.88218 -0.0575047 5.84076e-20)
(-3.86959 -0.0758148 0)
(-3.85354 -0.093457 0)
(-3.83405 -0.110431 5.49013e-20)
(-3.81117 -0.126735 1.08253e-19)
(-3.78497 -0.142369 0)
(-3.7555 -0.157329 -1.018e-19)
(-3.72283 -0.171612 9.99707e-20)
(-3.68704 -0.185214 -9.69987e-20)
(-3.64821 -0.198128 0)
(-3.60642 -0.210351 0)
(-3.56179 -0.221876 0)
(-3.51439 -0.232701 0)
(-3.46433 -0.24283 0)
(-3.41172 -0.252264 -7.59254e-20)
(-3.35667 -0.261002 0)
(-3.29929 -0.269048 0)
(-3.23969 -0.27641 0)
(-3.178 -0.283096 -1.22626e-19)
(-3.11433 -0.289117 -5.67056e-20)
(-3.04879 -0.294485 -5.26043e-20)
(-2.98152 -0.299215 9.80435e-20)
(-2.91263 -0.30332 -4.53642e-20)
(-2.84224 -0.306819 3.98122e-20)
(-2.77047 -0.309731 0)
(-2.69744 -0.312074 -3.08894e-20)
(-2.62327 -0.313869 0)
(-2.54807 -0.315139 0)
(-2.47197 -0.315906 0)
(-2.39506 -0.316192 -2.54921e-20)
(-2.31747 -0.316022 8.48608e-21)
(-2.2393 -0.315421 4.76852e-21)
(-2.16064 -0.314411 -2.98036e-21)
(-2.08162 -0.313019 -2.10049e-20)