/*--------------------------------*- C++ -*----------------------------------*\
  =========                 |
  \\      /  F ield         | OpenFOAM: The Open Source CFD Toolbox
   \\    /   O peration     | Website:  https://openfoam.org
    \\  /    A nd           | Version:  8
     \\/     M anipulation  |
\*---------------------------------------------------------------------------*/
FoamFile
{
    version     2.0;
    format      ascii;
    class       volVectorField;
    location    "4200";
    object      U;
}
// * * * * * * * * * * * * * * * * * * * * * * * * * * * * * * * * * * * * * //

dimensions      [0 1 -1 0 0 0 0];

internalField   nonuniform List<vector> 
12225
(
(9.2745 -4.73371 0)
(13.1094 -1.71343 0)
(12.4778 -0.395198 0)
(11.2771 -0.0422041 0)
(10.6314 0.0141384 0)
(10.2979 -9.39333e-05 0)
(10.0776 -0.0165232 0)
(9.91228 -0.00288813 0)
(9.7791 0.0348747 0)
(9.66231 0.0428928 0)
(9.55575 0.0248833 0)
(9.45768 0.00214249 0)
(9.36676 -0.0227912 0)
(9.28212 -0.0302246 0)
(9.20233 -0.0217868 0)
(9.13254 -0.0212272 0)
(9.07017 -0.0210386 0)
(9.08955 -0.0277105 0)
(10.2592 0.0928019 0)
(10.7814 0.199339 0)
(10.9594 0.245656 0)
(10.7469 0.229144 0)
(10.5875 0.172969 0)
(10.4527 0.115535 0)
(10.33 0.0823316 0)
(10.2327 0.0647301 0)
(10.155 0.0524769 0)
(10.0894 0.0472342 0)
(10.0323 0.0469934 0)
(9.98212 0.0489911 0)
(9.93785 0.0517986 0)
(9.89833 0.0519436 0)
(9.86151 0.048326 0)
(9.82886 0.0438431 0)
(9.7943 0.0300814 0)
(9.76827 0.0102735 0)
(9.87768 -0.24504 0)
(9.74285 0.00579116 0)
(10.1971 0.125744 0)
(10.3245 0.179364 0)
(10.3564 0.161548 0)
(10.3311 0.120077 0)
(10.2777 0.0904942 0)
(10.2252 0.074666 0)
(10.1812 0.0658756 0)
(10.1438 0.0600294 0)
(10.1103 0.0562093 0)
(10.0799 0.0536521 0)
(10.052 0.0511376 0)
(10.026 0.0487634 0)
(10.0023 0.0460766 0)
(9.98118 0.0417683 0)
(9.95916 0.0316707 0)
(9.93459 0.0135732 0)
(9.83416 -0.443933 0)
(9.57654 -0.163146 0)
(9.91603 0.0336708 0)
(10.0933 0.134225 0)
(10.1892 0.145473 0)
(10.2168 0.120739 0)
(10.205 0.0978954 0)
(10.1824 0.0839098 0)
(10.1599 0.0756301 0)
(10.1389 0.069713 0)
(10.119 0.0651354 0)
(10.1001 0.0616387 0)
(10.0821 0.0586146 0)
(10.0648 0.0562307 0)
(10.0483 0.053856 0)
(10.0325 0.0501454 0)
(10.0148 0.0424183 0)
(9.99179 0.0306104 0)
(9.87825 -0.387476 0)
(9.61653 -0.196147 0)
(9.81623 -0.01867 0)
(9.96136 0.0916132 0)
(10.0698 0.122197 0)
(10.1219 0.113628 0)
(10.1354 0.0992645 0)
(10.1332 0.0884214 0)
(10.1257 0.080949 0)
(10.1162 0.0753974 0)
(10.1056 0.0711252 0)
(10.0946 0.0678831 0)
(10.0833 0.0652556 0)
(10.0718 0.063158 0)
(10.0601 0.0610459 0)
(10.0477 0.0581072 0)
(10.0329 0.0530809 0)
(10.0125 0.0469014 0)
(9.91439 -0.28804 0)
(9.68304 -0.185176 0)
(9.78717 -0.0532072 0)
(9.88917 0.0509996 0)
(9.98796 0.0936803 0)
(10.0476 0.0992043 0)
(10.0751 0.0938747 0)
(10.0861 0.0875185 0)
(10.0892 0.0821211 0)
(10.0879 0.0777654 0)
(10.0842 0.0743519 0)
(10.0789 0.0717614 0)
(10.0726 0.0697433 0)
(10.0654 0.0681735 0)
(10.0572 0.0667271 0)
(10.0476 0.0650441 0)
(10.0354 0.0627832 0)
(10.0185 0.0611695 0)
(9.93763 -0.214041 0)
(9.74856 -0.167535 0)
(9.79244 -0.0752151 0)
(9.85608 0.0162209 0)
(9.93595 0.0644224 0)
(9.99281 0.0805957 0)
(10.0261 0.0835617 0)
(10.0447 0.082244 0)
(10.0546 0.07978 0)
(10.0593 0.0772883 0)
(10.0606 0.075177 0)
(10.0596 0.0735604 0)
(10.057 0.0723907 0)
(10.0531 0.0716367 0)
(10.0477 0.071192 0)
(10.0407 0.0710168 0)
(10.0312 0.0712784 0)
(10.0183 0.0731517 0)
(9.95263 -0.167334 0)
(9.79947 -0.149676 0)
(9.81177 -0.084641 0)
(9.84959 -0.00620992 0)
(9.9114 0.0419324 0)
(9.96107 0.0638975 0)
(9.99432 0.0725504 0)
(10.0156 0.0752867 0)
(10.0288 0.0755306 0)
(10.0367 0.0749044 0)
(10.041 0.0741489 0)
(10.0427 0.073583 0)
(10.0425 0.0733246 0)
(10.0408 0.0734501 0)
(10.0375 0.0740072 0)
(10.0325 0.0751375 0)
(10.0254 0.0772054 0)
(10.0157 0.0812046 0)
(9.96406 -0.132089 0)
(9.84003 -0.131988 0)
(9.83337 -0.0876896 0)
(9.85306 -0.0213323 0)
(9.89927 0.0244161 0)
(9.94102 0.0495135 0)
(9.97207 0.0621239 0)
(9.99385 0.0680774 0)
(10.0086 0.0706967 0)
(10.0184 0.0717955 0)
(10.0246 0.0723187 0)
(10.0282 0.0727549 0)
(10.0298 0.073362 0)
(10.0297 0.0743206 0)
(10.028 0.0757886 0)
(10.0248 0.078009 0)
(10.0197 0.0814117 0)
(10.0129 0.0868084 0)
(9.97418 -0.100205 0)
(9.87757 -0.11239 0)
(9.85857 -0.0853659 0)
(9.86387 -0.0323325 0)
(9.89487 0.00892939 0)
(9.92743 0.0352245 0)
(9.95439 0.0507177 0)
(9.97502 0.0594977 0)
(9.99014 0.064445 0)
(10.0009 0.0673604 0)
(10.0085 0.0692993 0)
(10.0135 0.0708793 0)
(10.0166 0.0724781 0)
(10.018 0.0743708 0)
(10.0179 0.0768034 0)
(10.0164 0.0800778 0)
(10.0136 0.0846192 0)
(10.0095 0.0910443 0)
(9.98253 -0.0727091 0)
(9.91035 -0.0921961 0)
(9.88507 -0.0782439 0)
(9.88001 -0.0386071 0)
(9.89746 -0.00337342 0)
(9.92043 0.0221696 0)
(9.94196 0.0391851 0)
(9.95999 0.0500819 0)
(9.97425 0.0570573 0)
(9.98518 0.0617062 0)
(9.99339 0.0650809 0)
(9.99941 0.067865 0)
(10.0037 0.0705181 0)
(10.0064 0.0733864 0)
(10.0078 0.0767717 0)
(10.0081 0.0809937 0)
(10.0073 0.0864262 0)
(10.0058 0.0935051 0)
(9.98894 -0.0502566 0)
(9.93733 -0.0723779 0)
(9.91073 -0.0674478 0)
(9.89917 -0.0399823 0)
(9.90566 -0.0116492 0)
(9.91955 0.0114529 0)
(9.93496 0.0285315 0)
(9.94934 0.0405814 0)
(9.96169 0.0490256 0)
(9.97188 0.0551129 0)
(9.98009 0.0597813 0)
(9.98659 0.0637046 0)
(9.99163 0.0673733 0)
(9.99544 0.0711664 0)
(9.9982 0.0754054 0)
(10.0001 0.0803926 0)
(10.0013 0.0864283 0)
(10.0021 0.093796 0)
(9.99348 -0.0329085 0)
(9.9582 -0.0538108 0)
(9.93368 -0.0542831 0)
(9.91898 -0.0367867 0)
(9.91755 -0.0154527 0)
(9.92366 0.00399571 0)
(9.93301 0.0197765 0)
(9.94318 0.0318778 0)
(9.9529 0.0410119 0)
(9.96163 0.048022 0)
(9.96922 0.053649 0)
(9.9757 0.0584855 0)
(9.98118 0.0629944 0)
(9.98578 0.0675435 0)
(9.98965 0.0724366 0)
(9.99294 0.0779335 0)
(9.99587 0.0842563 0)
(9.9987 0.0915763 0)
(9.99643 -0.0202024 0)
(9.97327 -0.0372095 0)
(9.95261 -0.040045 0)
(9.93731 -0.0298101 0)
(9.93089 -0.0148228 0)
(9.93102 0.000367406 0)
(9.93504 0.0137753 0)
(9.94104 0.0248439 0)
(9.94782 0.0337602 0)
(9.95465 0.0409926 0)
(9.96117 0.0470514 0)
(9.96724 0.0523966 0)
(9.97281 0.0574135 0)
(9.97791 0.0624172 0)
(9.98261 0.0676616 0)
(9.98705 0.073349 0)
(9.99135 0.0796303 0)
(9.99574 0.0865986 0)
(9.99816 -0.0112875 0)
(9.9833 -0.0229302 0)
(9.96682 -0.0257622 0)
(9.95243 -0.0200761 0)
(9.94344 -0.010241 0)
(9.93952 0.000675903 0)
(9.9394 0.011031 0)
(9.94183 0.0201451 0)
(9.94582 0.0279264 0)
(9.95069 0.0345732 0)
(9.95597 0.0403871 0)
(9.96139 0.0456779 0)
(9.96681 0.0507236 0)
(9.97216 0.0557563 0)
(9.97744 0.06096 0)
(9.9827 0.0664712 0)
(9.98803 0.0723792 0)
(9.99354 0.0787247 0)
(9.99906 -0.00508073 0)
(9.98922 -0.0107803 0)
(9.97612 -0.0119162 0)
(9.96309 -0.00848195 0)
(9.9531 -0.00243372 0)
(9.94685 0.00457972 0)
(9.94399 0.0115586 0)
(9.94384 0.0180219 0)
(9.9457 0.0238402 0)
(9.94896 0.0290821 0)
(9.95317 0.033903 0)
(9.95799 0.0384797 0)
(9.96321 0.0429769 0)
(9.96869 0.0475319 0)
(9.97435 0.052249 0)
(9.9802 0.0571977 0)
(9.98623 0.0624136 0)
(9.99249 0.0678989 0)
(9.99942 -0.000367115 0)
(9.99181 0.000152331 0)
(9.98042 0.00183311 0)
(9.96821 0.00459471 0)
(9.9579 0.00792133 0)
(9.95061 0.011403 0)
(9.94642 0.0148183 0)
(9.94498 0.0180902 0)
(9.94576 0.0212356 0)
(9.94825 0.0243206 0)
(9.95198 0.0274264 0)
(9.95661 0.0306301 0)
(9.96186 0.0339941 0)
(9.96757 0.0375625 0)
(9.97362 0.0413589 0)
(9.97993 0.0453883 0)
(9.98648 0.0496363 0)
(9.99326 0.0540729 0)
(9.99935 0.00408489 0)
(9.9911 0.0111738 0)
(9.97897 0.0161343 0)
(9.96616 0.0187379 0)
(9.95552 0.0196144 0)
(9.94819 0.0195483 0)
(9.94419 0.0191618 0)
(9.94312 0.0188648 0)
(9.94438 0.0188979 0)
(9.94741 0.0193782 0)
(9.95174 0.0203464 0)
(9.95699 0.0217975 0)
(9.96287 0.0237003 0)
(9.96919 0.0260104 0)
(9.97583 0.0286761 0)
(9.9827 0.0316411 0)
(9.98974 0.0348469 0)
(9.99692 0.0382331 0)
(9.99882 0.00972983 0)
(9.98675 0.0240494 0)
(9.97122 0.0318475 0)
(9.95641 0.0332951 0)
(9.94558 0.030706 0)
(9.93942 0.0263524 0)
(9.93734 0.0217503 0)
(9.93845 0.0177419 0)
(9.94186 0.0146978 0)
(9.94687 0.0127137 0)
(9.95292 0.0117339 0)
(9.95963 0.0116393 0)
(9.96674 0.0122909 0)
(9.97408 0.013553 0)
(9.98155 0.0153008 0)
(9.98909 0.0174247 0)
(9.99665 0.0198279 0)
(10.0042 0.0224262 0)
(9.99757 0.01821 0)
(9.97773 0.0404557 0)
(9.95664 0.0495783 0)
(9.93945 0.04748 0)
(9.92961 0.0394256 0)
(9.92659 0.0296495 0)
(9.92849 0.0204932 0)
(9.93357 0.0129702 0)
(9.94055 0.00735237 0)
(9.94856 0.00352133 0)
(9.95704 0.00122625 0)
(9.96568 0.000177062 0)
(9.97428 0.000110415 0)
(9.98277 0.000792762 0)
(9.99109 0.00203856 0)
(9.99926 0.00369565 0)
(10.0073 0.00564164 0)
(10.0151 0.00777833 0)
(9.99502 0.0318145 0)
(9.96177 0.062134 0)
(9.93372 0.0695521 0)
(9.91534 0.060116 0)
(9.90932 0.0439525 0)
(9.91249 0.0276624 0)
(9.92084 0.0139968 0)
(9.93162 0.00364287 0)
(9.94323 -0.00363806 0)
(9.9548 -0.00836983 0)
(9.96594 -0.0111268 0)
(9.97652 -0.0123914 0)
(9.98651 -0.0125692 0)
(9.99595 -0.0119614 0)
(10.0049 -0.0108018 0)
(10.0135 -0.00926017 0)
(10.0217 -0.00746662 0)
(10.0296 -0.00552204 0)
(9.99018 0.0534618 0)
(9.93561 0.0901521 0)
(9.90098 0.0906282 0)
(9.88515 0.0687575 0)
(9.8878 0.04182 0)
(9.90121 0.0186603 0)
(9.91856 0.00142012 0)
(9.93627 -0.0103921 0)
(9.95285 -0.0179356 0)
(9.96786 -0.0223873 0)
(9.98129 -0.0246441 0)
(9.99332 -0.0253858 0)
(10.0042 -0.0250946 0)
(10.0141 -0.0241277 0)
(10.0232 -0.0227195 0)
(10.0318 -0.0210276 0)
(10.0399 -0.0191663 0)
(10.0476 -0.0172193 0)
(9.9819 0.0862471 0)
(9.89548 0.124258 0)
(9.85817 0.109884 0)
(9.85209 0.0697743 0)
(9.87033 0.0303388 0)
(9.89842 0.00145042 0)
(9.92658 -0.0172015 0)
(9.95135 -0.0283155 0)
(9.9722 -0.0344122 0)
(9.9896 -0.0373205 0)
(10.0042 -0.0381971 0)
(10.0168 -0.0377948 0)
(10.0276 -0.0366137 0)
(10.0372 -0.0349965 0)
(10.0459 -0.0331426 0)
(10.0539 -0.031152 0)
(10.0614 -0.0290958 0)
(10.0684 -0.0270458 0)
(9.96925 0.13399 0)
(9.83823 0.163089 0)
(9.80793 0.122591 0)
(9.82311 0.0588002 0)
(9.86513 0.00730876 0)
(9.91139 -0.0240252 0)
(9.95035 -0.0405874 0)
(9.98049 -0.0483651 0)
(10.0034 -0.0512249 0)
(10.0212 -0.0515241 0)
(10.0353 -0.0504013 0)
(10.0469 -0.0485034 0)
(10.0565 -0.0462466 0)
(10.0648 -0.0438844 0)
(10.0722 -0.0415551 0)
(10.079 -0.039232 0)
(10.0853 -0.036955 0)
(10.0912 -0.0347594 0)
(9.94951 0.207141 0)
(9.76128 0.207022 0)
(9.75726 0.123478 0)
(9.81042 0.0320111 0)
(9.88382 -0.0278606 0)
(9.94874 -0.0559937 0)
(9.99527 -0.0660699 0)
(10.0266 -0.0677949 0)
(10.048 -0.0659594 0)
(10.063 -0.0631735 0)
(10.0743 -0.0598641 0)
(10.083 -0.0564831 0)
(10.09 -0.0531322 0)
(10.0958 -0.0501628 0)
(10.1009 -0.0474874 0)
(10.1057 -0.0449457 0)
(10.1102 -0.042507 0)
(10.1144 -0.0402044 0)
(9.91094 0.322718 0)
(9.65923 0.254545 0)
(9.71887 0.107407 0)
(9.83329 -0.0119231 0)
(9.94173 -0.0726524 0)
(10.0199 -0.0901619 0)
(10.0662 -0.0893202 0)
(10.0918 -0.0831331 0)
(10.1058 -0.0760226 0)
(10.1141 -0.0695987 0)
(10.1197 -0.0644564 0)
(10.1236 -0.0600988 0)
(10.1261 -0.0563667 0)
(10.1279 -0.053151 0)
(10.1296 -0.0505895 0)
(10.1313 -0.0482326 0)
(10.1331 -0.0457653 0)
(10.1348 -0.0436168 0)
(9.84404 0.43511 0)
(9.53798 0.261026 0)
(9.7269 0.0591349 0)
(9.92367 -0.0731156 0)
(10.0584 -0.121552 0)
(10.1345 -0.120192 0)
(10.1665 -0.105279 0)
(10.1758 -0.0906135 0)
(10.1759 -0.0784679 0)
(10.1726 -0.0703546 0)
(10.1686 -0.0644077 0)
(10.1647 -0.0598169 0)
(10.1606 -0.0555508 0)
(10.1564 -0.0522087 0)
(10.1529 -0.0502668 0)
(10.1505 -0.0484162 0)
(10.1483 -0.0464533 0)
(10.1465 -0.0445915 0)
(9.83598 0.319666 0)
(9.55021 0.0912514 0)
(9.91739 -0.0687253 0)
(10.1507 -0.160112 0)
(10.2634 -0.172136 0)
(10.3032 -0.142727 0)
(10.2978 -0.112095 0)
(10.276 -0.0899528 0)
(10.2517 -0.0753736 0)
(10.2302 -0.0674526 0)
(10.2132 -0.0619122 0)
(10.1986 -0.057519 0)
(10.1843 -0.0523939 0)
(10.1703 -0.0482588 0)
(10.1592 -0.0467817 0)
(10.15 -0.044467 0)
(10.1413 -0.0407675 0)
(10.1336 -0.0384445 0)
(10.2049 -0.0633775 0)
(10.4095 -0.191706 0)
(10.7164 -0.282557 0)
(10.6879 -0.282287 0)
(10.6191 -0.230103 0)
(10.5417 -0.163668 0)
(10.4546 -0.117043 0)
(10.3763 -0.0924963 0)
(10.3136 -0.079868 0)
(10.2654 -0.0678558 0)
(10.2261 -0.0589736 0)
(10.1924 -0.0539347 0)
(10.1597 -0.0537227 0)
(10.1304 -0.0530581 0)
(10.1083 -0.0480328 0)
(10.0862 -0.045327 0)
(10.0652 -0.0452061 0)
(10.0457 -0.0439628 0)
(9.41631 4.45107 0)
(12.7294 2.07612 0)
(12.5649 0.621213 0)
(11.569 0.127657 0)
(10.9309 0.00343467 0)
(10.5866 -0.0020674 0)
(10.3638 0.0123119 0)
(10.2022 0.0302288 0)
(10.0796 0.041244 0)
(9.97714 0.0356892 0)
(9.88539 0.02556 0)
(9.79808 0.0207387 0)
(9.72372 0.0274301 0)
(9.6625 0.0262705 0)
(9.60069 0.00255532 0)
(9.54364 -0.00733434 0)
(9.49224 -0.000598698 0)
(9.44423 -0.0226166 0)
(-0.0275212 0.0934369 0)
(0.137015 -0.183494 0)
(0.324979 -0.305883 0)
(0.525463 -0.315107 0)
(0.702939 -0.272065 0)
(0.833487 -0.211074 0)
(0.909806 -0.146336 -8.60222e-20)
(0.940387 -0.0824908 8.66464e-20)
(0.919513 -0.0201681 0)
(0.858827 0.0345423 9.18673e-20)
(0.771668 0.0739652 0)
(0.672404 0.0920099 0)
(0.578479 0.0877275 0)
(0.505678 0.0666653 -1.43213e-19)
(0.455727 0.0377106 0)
(0.412387 0.00997334 0)
(0.352859 -0.00897392 1.87943e-19)
(0.262706 -0.00868057 0)
(0.13517 0.0293035 0)
(-0.0448093 0.112945 0)
(-0.300516 0.186488 -1.64822e-19)
(-0.594213 0.235259 0)
(-0.915633 0.266817 -7.62416e-20)
(-1.25188 0.296035 0)
(-1.59131 0.323654 0)
(-1.93105 0.336464 -4.13235e-20)
(-2.26348 0.335616 0)
(-2.58059 0.326493 3.45413e-20)
(-2.87937 0.310356 0)
(-3.15638 0.289556 -3.13422e-20)
(-3.41074 0.26642 0)
(-3.64204 0.24254 0)
(-3.85101 0.218949 0)
(-4.03875 0.196355 0)
(-4.2067 0.175133 0)
(-4.35642 0.155491 2.82302e-20)
(-4.48949 0.137463 0)
(-4.6074 0.120978 -5.55719e-20)
(-4.71153 0.105909 0)
(-4.8031 0.0920971 5.47732e-20)
(-4.88316 0.0793795 0)
(-4.95262 0.0676044 0)
(-5.01222 0.0566439 -5.35511e-20)
(-5.06258 0.0464014 0)
(-5.10422 0.0368174 -5.26594e-20)
(-5.13754 0.0278748 5.21816e-20)
(-5.16294 0.019618 0)
(-5.18081 0.0121947 5.11547e-20)
(-5.19142 0.0058529 5.06023e-20)
(-5.19495 0.000802905 0)
(-5.19263 -0.00315087 0)
(-5.18571 -0.00644929 0)
(-5.17433 -0.00937186 0)
(-5.1588 -0.0120827 0)
(-5.1393 -0.0146514 -4.61828e-20)
(-5.11596 -0.0170916 0)
(-5.08889 -0.0194146 4.43177e-20)
(-5.0582 -0.0216295 0)
(-5.02398 -0.0237384 0)
(-4.98635 -0.0257432 -4.11396e-20)
(-4.94539 -0.0276443 0)
(-4.90123 -0.0294417 3.87639e-20)
(-4.85397 -0.0311353 0)
(-4.80373 -0.0327249 0)
(-4.75062 -0.0342106 0)
(-4.69475 -0.0355922 -3.33845e-20)
(-4.63627 -0.0368702 0)
(-4.57528 -0.0380455 0)
(-4.51192 -0.0391187 -2.87871e-20)
(-4.44631 -0.0400905 0)
(-4.37859 -0.0409623 -2.54458e-20)
(-4.30889 -0.0417353 0)
(-4.23734 -0.0424112 0)
(-4.16407 -0.0429916 0)
(-4.08921 -0.0434784 1.80683e-20)
(-4.0129 -0.0438736 0)
(-3.93525 -0.0441792 0)
(-3.85641 -0.0443977 1.18864e-20)
(-3.77648 -0.0445317 9.69261e-21)
(-3.69561 -0.0445842 0)
(-3.6139 -0.0445586 5.091e-21)
(-3.53146 -0.0444587 0)
(-3.44842 -0.0442891 3.66459e-22)
(-3.36488 -0.0440548 0)
(-3.28093 -0.0437622 -1.0123e-20)
(-3.19668 -0.0434198 0)
(-3.11222 -0.0430401 2.13656e-20)
(-3.02762 -0.0426418 0)
(-2.94296 -0.042253 0)
(-2.85829 -0.0419164 0)
(-2.77366 -0.0416939 -4.65576e-20)
(-2.68908 -0.0416684 0)
(-2.60456 -0.0419301 6.08327e-20)
(-2.52007 -0.0425351 0)
(-2.43558 -0.0434248 -7.65024e-20)
(-2.35133 -0.0443276 -8.4881e-20)
(-2.26756 -0.0447828 -9.35893e-20)
(-2.18454 -0.044575 0)
(-2.10243 -0.0439702 0)
(-2.02125 -0.0432718 0)
(-1.94101 -0.0425668 0)
(-1.86172 -0.0418665 0)
(-1.78341 -0.041172 0)
(-1.7061 -0.040485 0)
(-1.62981 -0.0398092 0)
(-1.55457 -0.0391505 1.92699e-19)
(-1.48039 -0.0385159 2.0702e-19)
(-1.40729 -0.0379108 0)
(-1.33528 -0.0373243 0)
(-1.26439 -0.036699 0)
(-1.19466 -0.0360413 2.74287e-19)
(-1.12608 -0.0354072 0)
(-1.05867 -0.0347917 0)
(-0.992418 -0.0341961 0)
(-0.927334 -0.033622 0)
(-0.863415 -0.0330716 -3.90925e-19)
(-0.80066 -0.0325472 0)
(-0.739065 -0.0320522 0)
(-0.678623 -0.03159 4.89103e-19)
(-0.619327 -0.0311621 -5.28801e-19)
(-0.561172 -0.030772 0)
(-0.504148 -0.0304302 -6.22409e-19)
(-0.448244 -0.0301606 0)
(-0.393439 -0.0300075 7.41387e-19)
(-0.339714 -0.0299821 0)
(-0.287053 -0.0300458 0)
(-0.235442 -0.0301856 0)
(-0.184852 -0.0304125 0)
(-0.135258 -0.030742 0)
(-0.0867037 -0.0311929 -2.84648e-18)
(-0.0394003 -0.031647 -3.27715e-18)
(0.00670461 -0.031348 0)
(0.052121 -0.0298509 0)
(0.0968599 -0.0280006 0)
(0.14078 -0.0262826 2.6849e-18)
(0.183788 -0.0247497 0)
(0.225865 -0.0233762 0)
(0.267031 -0.0221386 0)
(0.30732 -0.0210169 2.04001e-18)
(0.346763 -0.0199941 -1.93372e-18)
(0.385386 -0.0190558 0)
(0.423218 -0.0181906 0)
(0.460282 -0.0173894 -1.68695e-18)
(0.496603 -0.0166446 -1.62228e-18)
(0.532204 -0.01595 0)
(0.567108 -0.0153006 0)
(0.601338 -0.014692 1.464e-18)
(0.634917 -0.0141206 -1.42051e-18)
(0.667866 -0.0135833 0)
(0.700209 -0.0130775 0)
(0.731968 -0.0126008 -1.31021e-18)
(0.763166 -0.0121513 0)
(0.793826 -0.0117272 0)
(0.82397 -0.0113271 -1.22269e-18)
(0.853623 -0.0109494 0)
(0.882807 -0.0105929 -1.17361e-18)
(0.911545 -0.0102565 0)
(0.939861 -0.00993903 0)
(0.967779 -0.00963948 0)
(0.995319 -0.00935676 1.0916e-18)
(1.0225 -0.00908975 0)
(1.04935 -0.00883719 0)
(1.07589 -0.00859761 0)
(1.10212 -0.00836923 0)
(1.12806 -0.00814977 0)
(1.1537 -0.00793633 0)
(1.17905 -0.00772504 9.82778e-19)
(1.20409 -0.00751074 9.69856e-19)
(1.22876 -0.00728644 0)
(1.25301 -0.00704261 0)
(1.27672 -0.00676573 0)
(1.29973 -0.00643722 -9.24502e-19)
(1.32181 -0.00602733 0)
(1.34255 -0.00549734 1.81389e-18)
(1.36149 -0.00476023 -1.80052e-18)
(1.37723 -0.00372454 -1.79179e-18)
(1.38982 -0.00195312 1.79008e-18)
(1.39024 0.0013286 -1.79546e-18)
(1.38754 0.00807626 1.80878e-18)
(1.30827 0.01989 0)
(0.0963152 -0.268963 0)
(0.33407 -0.681256 0)
(0.51418 -0.706518 1.57365e-19)
(0.611823 -0.571348 0)
(0.662821 -0.408901 -1.11142e-19)
(0.683262 -0.253829 -1.08108e-19)
(0.677236 -0.112177 -5.62565e-20)
(0.646862 0.0155818 -5.62016e-20)
(0.603885 0.125402 0)
(0.54469 0.211925 -6.08102e-20)
(0.467879 0.267405 0)
(0.373395 0.283208 0)
(0.257594 0.25644 1.705e-19)
(0.110266 0.211437 9.82897e-20)
(-0.0747571 0.206279 -1.84475e-19)
(-0.301022 0.271824 -1.43807e-19)
(-0.578997 0.383397 -5.71934e-20)
(-0.904924 0.513233 0)
(-1.25851 0.642597 0)
(-1.61661 0.756428 0)
(-1.97223 0.841987 -2.85767e-20)
(-2.31782 0.895557 0)
(-2.64772 0.919044 6.90666e-20)
(-2.95444 0.915466 0)
(-3.23395 0.889032 0)
(-3.48459 0.844866 1.98204e-20)
(-3.70497 0.788301 0)
(-3.89591 0.724866 -1.97626e-20)
(-4.05931 0.658793 -4.17995e-20)
(-4.1987 0.592791 2.01694e-20)
(-4.31699 0.528966 0)
(-4.41709 0.469098 0)
(-4.50171 0.414018 0)
(-4.57324 0.364078 -4.42608e-20)
(-4.63375 0.319239 -4.47672e-20)
(-4.68493 0.279229 -2.21908e-20)
(-4.72816 0.243637 0)
(-4.76455 0.211982 4.53093e-20)
(-4.79499 0.183764 0)
(-4.8202 0.158504 -4.58811e-20)
(-4.84076 0.135761 0)
(-4.85717 0.11514 0)
(-4.86985 0.0962999 4.60916e-20)
(-4.87917 0.0789513 0)
(-4.88547 0.0628532 1.38176e-19)
(-4.88907 0.0478113 -4.56121e-20)
(-4.89024 0.0336901 0)
(-4.88923 0.0204592 -4.49429e-20)
(-4.88629 0.00823479 -4.44863e-20)
(-4.88171 -0.00282107 0)
(-4.87456 -0.0127641 0)
(-4.86373 -0.0218903 0)
(-4.84923 -0.0304426 0)
(-4.83094 -0.0385358 0)
(-4.80889 -0.0462394 4.02203e-20)
(-4.78315 -0.0535905 7.91709e-20)
(-4.7538 -0.06061 -3.8443e-20)
(-4.72091 -0.0673093 0)
(-4.68457 -0.0736943 7.34926e-20)
(-4.64489 -0.0797674 -3.597e-20)
(-4.60195 -0.0855294 0)
(-4.55585 -0.0909801 -3.32699e-20)
(-4.50672 -0.0961193 0)
(-4.45464 -0.100949 0)
(-4.39974 -0.105469 -5.9898e-20)
(-4.34213 -0.109682 2.83884e-20)
(-4.28193 -0.113586 -5.47064e-20)
(-4.21927 -0.117186 5.19876e-20)
(-4.15426 -0.120484 2.42967e-20)
(-4.08703 -0.123485 0)
(-4.01771 -0.126194 2.13637e-20)
(-3.94643 -0.128617 0)
(-3.87331 -0.13076 0)
(-3.79849 -0.132632 0)
(-3.72209 -0.13424 1.56372e-20)
(-3.64424 -0.135592 0)
(-3.56506 -0.136698 2.37714e-20)
(-3.48467 -0.137569 -2.99813e-20)
(-3.40321 -0.138213 -7.94405e-21)
(-3.32078 -0.138643 0)
(-3.23751 -0.138868 -4.14341e-21)
(-3.1535 -0.138901 0)
(-3.06886 -0.138754 -2.96039e-22)
(-2.98371 -0.138437 0)
(-2.89813 -0.137965 8.10984e-21)
(-2.81224 -0.137347 -2.3562e-20)
(-2.72611 -0.136596 -1.69632e-20)
(-2.63986 -0.135723 0)
(-2.55356 -0.134736 0)
(-2.4673 -0.133639 0)
(-2.38119 -0.132433 3.61815e-20)
(-2.29534 -0.131109 0)
(-2.20988 -0.129639 -4.66532e-20)
(-2.12496 -0.127968 0)
(-2.04071 -0.126042 1.71873e-19)
(-1.95723 -0.123887 6.36296e-20)
(-1.8745 -0.121603 6.9661e-20)
(-1.79249 -0.119298 0)
(-1.71116 -0.11703 0)
(-1.63056 -0.114796 0)
(-1.55078 -0.112573 0)
(-1.47185 -0.110349 0)
(-1.39382 -0.108118 2.19487e-19)
(-1.31671 -0.105882 2.34979e-19)
(-1.24057 -0.103642 0)
(-1.16542 -0.101403 -1.34758e-19)
(-1.09128 -0.0991673 -1.43538e-19)
(-1.01817 -0.0969362 0)
(-0.946134 -0.0947121 -3.23031e-19)
(-0.875173 -0.0924992 0)
(-0.805282 -0.0903112 1.81321e-19)
(-0.736473 -0.0881537 0)
(-0.668755 -0.0860271 0)
(-0.602134 -0.0839337 -4.34444e-19)
(-0.536611 -0.081875 0)
(-0.472188 -0.0798525 2.44829e-19)
(-0.408865 -0.0778693 0)
(-0.34664 -0.075931 0)
(-0.285508 -0.0740464 2.89765e-19)
(-0.225458 -0.0722137 3.09069e-19)
(-0.166486 -0.0704274 0)
(-0.108584 -0.0686905 -3.46363e-19)
(-0.0517584 -0.0670031 0)
(0.00399405 -0.0653568 3.82636e-19)
(0.0587149 -0.0637446 7.66196e-19)
(0.112438 -0.0621778 0)
(0.165163 -0.0606711 0)
(0.216891 -0.059229 0)
(0.267636 -0.0578493 0)
(0.317432 -0.0565342 7.09242e-19)
(0.366347 -0.0552726 2.09645e-18)
(0.41447 -0.0538943 0)
(0.461712 -0.0522491 0)
(0.507933 -0.0504752 0)
(0.553202 -0.0487284 -6.65629e-19)
(0.597601 -0.0470608 0)
(0.641159 -0.0454806 0)
(0.683892 -0.0439853 1.28793e-18)
(0.725822 -0.0425686 6.36948e-19)
(0.766969 -0.041223 6.32423e-19)
(0.807356 -0.0399418 0)
(0.847004 -0.0387196 0)
(0.885934 -0.0375519 6.15879e-19)
(0.924168 -0.0364351 -6.09642e-19)
(0.961727 -0.0353663 0)
(0.998632 -0.0343428 0)
(1.03491 -0.0333627 -5.96783e-19)
(1.07057 -0.032424 1.77637e-18)
(1.10564 -0.0315252 0)
(1.14015 -0.0306649 0)
(1.1741 -0.0298417 5.80314e-19)
(1.20754 -0.0290546 0)
(1.24047 -0.0283024 1.14492e-18)
(1.27292 -0.0275842 -5.68527e-19)
(1.30491 -0.0268989 0)
(1.33647 -0.0262456 5.62414e-19)
(1.36761 -0.0256233 1.11754e-18)
(1.39836 -0.0250307 0)
(1.42874 -0.0244668 0)
(1.45877 -0.02393 -5.49578e-19)
(1.48846 -0.0234185 0)
(1.51784 -0.0229301 1.08644e-18)
(1.54693 -0.0224618 0)
(1.57573 -0.02201 0)
(1.60426 -0.0215695 0)
(1.63251 -0.0211338 0)
(1.66047 -0.0206938 -5.28999e-19)
(1.68814 -0.0202376 -5.2623e-19)
(1.71547 -0.0197486 0)
(1.7424 -0.0192044 0)
(1.76884 -0.0185731 0)
(1.79465 -0.0178094 5.16135e-19)
(1.81963 -0.016846 0)
(1.84345 -0.0155798 -1.02485e-18)
(1.86569 -0.013834 1.0226e-18)
(1.88543 -0.011324 1.02221e-18)
(1.90223 -0.00730893 1.0233e-18)
(1.91243 -0.000518242 1.02847e-18)
(1.92474 0.0124255 1.02036e-18)
(1.90517 0.0361872 0)
(0.116443 -0.859699 0)
(0.269023 -1.05683 0)
(0.31612 -0.826016 -1.26333e-19)
(0.315428 -0.584242 -1.08172e-19)
(0.297998 -0.373776 1.00491e-19)
(0.26679 -0.188647 1.00672e-19)
(0.220607 -0.023186 -6.44969e-22)
(0.158712 0.124558 0)
(0.080975 0.255102 0)
(-0.013838 0.366021 0)
(-0.129284 0.451732 0)
(-0.273428 0.512793 0)
(-0.459187 0.566616 -2.67345e-19)
(-0.697046 0.641349 0)
(-0.98327 0.753904 6.62793e-20)
(-1.302 0.895871 5.7178e-20)
(-1.63529 1.04398 0)
(-1.96623 1.17799 0)
(-2.27956 1.28538 0)
(-2.56345 1.35909 0)
(-2.81257 1.39484 3.49053e-20)
(-3.02651 1.39239 0)
(-3.20665 1.35643 -3.23479e-20)
(-3.35585 1.29419 0)
(-3.47856 1.21299 0)
(-3.57938 1.11922 0)
(-3.66313 1.01898 -6.85903e-20)
(-3.73418 0.917584 0)
(-3.79605 0.819177 3.31187e-20)
(-3.8515 0.726552 -7.07038e-20)
(-3.90248 0.641223 0)
(-3.95027 0.563926 0)
(-3.99563 0.494713 0)
(-4.03893 0.433198 3.65658e-20)
(-4.08026 0.378732 3.71532e-20)
(-4.1196 0.330544 0)
(-4.1568 0.287836 0)
(-4.19168 0.249849 -7.78034e-20)
(-4.22408 0.215887 -7.81964e-20)
(-4.25382 0.185342 7.84294e-20)
(-4.28077 0.157693 0)
(-4.3048 0.132512 0)
(-4.32583 0.10945 0)
(-4.34378 0.0882246 0)
(-4.3586 0.0686005 -7.7013e-20)
(-4.37023 0.0503782 -7.6915e-20)
(-4.37859 0.0333735 7.62721e-20)
(-4.38356 0.0173857 0)
(-4.38496 0.00215818 0)
(-4.38263 -0.0125953 0)
(-4.37651 -0.0270079 0)
(-4.36666 -0.0409931 -7.11084e-20)
(-4.35314 -0.0544589 0)
(-4.33598 -0.067394 0)
(-4.31523 -0.0798028 -6.69967e-20)
(-4.29093 -0.091694 -6.49711e-20)
(-4.26315 -0.103075 0)
(-4.23197 -0.11395 1.24574e-19)
(-4.19745 -0.124321 -6.00331e-20)
(-4.15969 -0.134187 5.82565e-20)
(-4.11877 -0.143548 0)
(-4.07479 -0.152401 0)
(-4.02785 -0.160744 0)
(-3.97805 -0.168576 0)
(-3.9255 -0.1759 4.84249e-20)
(-3.87031 -0.182719 9.37807e-20)
(-3.81259 -0.18903 4.40595e-20)
(-3.75247 -0.194837 -4.17874e-20)
(-3.69006 -0.200147 0)
(-3.62549 -0.204966 7.54294e-20)
(-3.55887 -0.209302 7.05464e-20)
(-3.49033 -0.213164 6.55469e-20)
(-3.42 -0.216563 -6.04317e-20)
(-3.348 -0.219509 0)
(-3.27446 -0.222015 -7.41061e-20)
(-3.19949 -0.224096 0)
(-3.12323 -0.225764 2.00976e-20)
(-3.0458 -0.227037 1.58746e-20)
(-2.96731 -0.227929 0)
(-2.88788 -0.228458 0)
(-2.80763 -0.228641 1.53662e-20)
(-2.72666 -0.228495 0)
(-2.6451 -0.22804 2.93185e-21)
(-2.56305 -0.227293 0)
(-2.4806 -0.226273 9.99087e-21)
(-2.39787 -0.225001 3.47093e-20)
(-2.31495 -0.223495 0)
(-2.23194 -0.221775 0)
(-2.14893 -0.219858 0)
(-2.06602 -0.217764 4.4575e-20)
(-1.98331 -0.215506 0)
(-1.90089 -0.213097 5.93963e-20)
(-1.81887 -0.210537 0)
(-1.73732 -0.207812 0)
(-1.65632 -0.204896 -1.67038e-19)
(-1.57591 -0.201773 0)
(-1.4961 -0.198456 -9.93049e-20)
(-1.4169 -0.194991 0)
(-1.33834 -0.191433 -1.16584e-19)
(-1.26048 -0.187821 0)
(-1.18337 -0.184173 0)
(-1.10707 -0.180497 0)
(-1.03162 -0.176798 -4.62663e-19)
(-0.957054 -0.173085 -1.65034e-19)
(-0.8834 -0.169362 0)
(-0.810687 -0.165638 0)
(-0.73894 -0.161917 0)
(-0.668181 -0.158206 0)
(-0.598428 -0.154508 2.18827e-19)
(-0.529691 -0.150829 -4.58444e-19)
(-0.461977 -0.147179 -2.4266e-19)
(-0.395298 -0.143565 5.07634e-19)
(-0.329664 -0.139994 5.33431e-19)
(-0.265081 -0.136472 2.81365e-19)
(-0.20155 -0.133 0)
(-0.139073 -0.129579 6.16195e-19)
(-0.077651 -0.126213 0)
(-0.0172856 -0.122903 -6.73532e-19)
(0.0420295 -0.119652 -3.45153e-19)
(0.100308 -0.116461 0)
(0.157555 -0.113333 6.93112e-19)
(0.213778 -0.11027 3.48825e-19)
(0.268986 -0.107273 0)
(0.32319 -0.104332 3.48719e-19)
(0.376398 -0.101436 -1.0528e-18)
(0.428619 -0.0985949 0)
(0.479866 -0.0958184 0)
(0.530156 -0.0931093 0)
(0.579508 -0.0904685 0)
(0.627942 -0.0879004 -7.07741e-19)
(0.675495 -0.0854121 -7.10233e-19)
(0.722187 -0.0830186 0)
(0.767988 -0.0807072 0)
(0.812879 -0.0784387 0)
(0.856915 -0.0762118 0)
(0.900138 -0.0740428 0)
(0.942565 -0.0719401 0)
(0.984209 -0.0699066 -7.14008e-19)
(1.02509 -0.067942 -1.08884e-21)
(1.06521 -0.0660446 0)
(1.10461 -0.0642124 0)
(1.1433 -0.0624435 -7.13841e-19)
(1.1813 -0.0607361 0)
(1.21863 -0.0590885 7.14889e-19)
(1.25531 -0.0574992 7.14028e-19)
(1.29136 -0.0559669 0)
(1.32681 -0.0544905 0)
(1.36167 -0.0530689 -7.14561e-19)
(1.39596 -0.0517009 -1.42732e-18)
(1.4297 -0.0503857 0)
(1.46292 -0.0491222 0)
(1.49564 -0.0479096 0)
(1.52788 -0.046747 -7.13254e-19)
(1.55965 -0.0456333 7.12872e-19)
(1.59099 -0.0445676 0)
(1.6219 -0.0435489 1.42287e-18)
(1.65243 -0.0425759 7.10414e-19)
(1.68257 -0.0416472 -1.42081e-18)
(1.71236 -0.0407613 0)
(1.74182 -0.0399161 0)
(1.77096 -0.0391091 -1.417e-18)
(1.7998 -0.0383368 -7.08212e-19)
(1.82837 -0.037595 0)
(1.85667 -0.036878 0)
(1.88471 -0.0361782 0)
(1.91249 -0.0354855 0)
(1.94002 -0.0347862 -1.40686e-18)
(1.96727 -0.0340622 0)
(1.99423 -0.0332884 0)
(2.02084 -0.0324306 0)
(2.04702 -0.0314409 0)
(2.07266 -0.030251 0)
(2.09759 -0.0287601 0)
(2.12155 -0.0268167 -1.39752e-18)
(2.1442 -0.0241692 0)
(2.16487 -0.0204125 0)
(2.18333 -0.014754 -2.81626e-18)
(2.19677 -0.00587659 1.41815e-18)
(2.21146 0.00887747 -1.41627e-18)
(2.20636 0.0362561 1.41172e-18)
(0.0333258 -1.16607 0)
(0.0696906 -1.02977 3.59944e-19)
(0.0339393 -0.746807 0)
(-0.010517 -0.506327 1.10882e-19)
(-0.0658515 -0.283606 0)
(-0.133716 -0.0740166 0)
(-0.216962 0.122838 -8.28099e-20)
(-0.317961 0.306221 0)
(-0.438839 0.475692 0)
(-0.582202 0.631806 0)
(-0.751904 0.7771 0)
(-0.953157 0.917675 0)
(-1.18859 1.06164 2.04201e-19)
(-1.45262 1.21242 9.24381e-20)
(-1.73076 1.36374 -8.36898e-20)
(-2.00467 1.50227 0)
(-2.25859 1.61416 0)
(-2.48247 1.6901 0)
(-2.67154 1.72634 0)
(-2.82437 1.72415 0)
(-2.94353 1.6874 6.01641e-20)
(-3.03455 1.62132 5.88474e-20)
(-3.10355 1.53277 -5.79944e-20)
(-3.15685 1.42939 5.76929e-20)
(-3.19984 1.31789 0)
(-3.23687 1.20368 0)
(-3.27141 1.09112 5.5846e-20)
(-3.30579 0.983494 0)
(-3.34131 0.882915 0)
(-3.37847 0.79043 5.87003e-20)
(-3.41728 0.706279 6.15183e-20)
(-3.45739 0.630237 6.223e-20)
(-3.49828 0.561772 0)
(-3.53932 0.500189 0)
(-3.5799 0.444727 -6.40402e-20)
(-3.61946 0.39463 0)
(-3.65751 0.349187 0)
(-3.69363 0.307755 6.43131e-20)
(-3.72749 0.269768 -6.60332e-20)
(-3.75879 0.234739 6.60437e-20)
(-3.78731 0.202252 0)
(-3.81288 0.171958 0)
(-3.83533 0.143559 1.3002e-19)
(-3.85454 0.116806 0)
(-3.87041 0.0914859 1.28632e-19)
(-3.88283 0.067423 1.91045e-19)
(-3.89173 0.0444732 -1.89403e-19)
(-3.89705 0.0225162 1.25334e-19)
(-3.89873 0.00143504 0)
(-3.89679 -0.0188863 0)
(-3.89125 -0.038526 1.19878e-19)
(-3.88217 -0.0575029 5.84082e-20)
(-3.86959 -0.0758131 0)
(-3.85353 -0.0934553 0)
(-3.83404 -0.110429 5.4902e-20)
(-3.81117 -0.126734 1.08254e-19)
(-3.78496 -0.142367 0)
(-3.75549 -0.157328 -1.01802e-19)
(-3.72282 -0.171611 9.99722e-20)
(-3.68703 -0.185212 -9.70003e-20)
(-3.6482 -0.198127 0)
(-3.60642 -0.21035 0)
(-3.56178 -0.221875 0)
(-3.51438 -0.2327 0)
(-3.46432 -0.242829 0)
(-3.41172 -0.252264 -7.59273e-20)
(-3.35667 -0.261001 0)
(-3.29929 -0.269047 0)
(-3.23969 -0.276409 0)
(-3.178 -0.283096 -1.22631e-19)
(-3.11432 -0.289117 -5.67079e-20)
(-3.04879 -0.294485 -5.26067e-20)
(-2.98151 -0.299214 9.80482e-20)
(-2.91262 -0.30332 -4.53666e-20)
(-2.84223 -0.306819 3.98147e-20)
(-2.77046 -0.30973 0)
(-2.69743 -0.312073 -3.0892e-20)
(-2.62326 -0.313868 0)
(-2.54807 -0.315138 0)
(-2.47196 -0.315904 0)
(-2.39506 -0.31619 -2.54974e-20)
(-2.31747 -0.31602 8.48884e-21)
(-2.23929 -0.315418 4.77138e-21)
(-2.16064 -0.314409 -2.97439e-21)