/*--------------------------------*- C++ -*----------------------------------*\
  =========                 |
  \\      /  F ield         | OpenFOAM: The Open Source CFD Toolbox
   \\    /   O peration     | Website:  https://openfoam.org
    \\  /    A nd           | Version:  8
     \\/     M anipulation  |
\*---------------------------------------------------------------------------*/
FoamFile
{
    version     2.0;
    format      ascii;
    class       volScalarField;
    location    "1100";
    object      nut;
}
// * * * * * * * * * * * * * * * * * * * * * * * * * * * * * * * * * * * * * //

dimensions      [0 2 -1 0 0 0 0];

internalField   nonuniform List<scalar> 
12225
(
4.45484e-06
2.05617e-05
2.19353e-05
1.9986e-05
1.99676e-05
2.08171e-05
1.46962e-05
2.92258e-05
2.58343e-05
1.9777e-05
1.89288e-05
2.0557e-05
1.7863e-05
2.06359e-05
1.8109e-05
1.77987e-05
1.78975e-05
1.79335e-05
2.65042e-05
4.68228e-05
4.60449e-05
2.99512e-05
3.38998e-05
3.834e-05
3.9613e-05
4.38988e-05
4.28413e-05
4.04235e-05
4.36969e-05
4.32325e-05
4.42079e-05
4.28402e-05
4.02868e-05
3.88606e-05
4.43033e-05
4.30626e-05
0.00012388
0.000169584
0.000161212
0.000108046
9.71433e-05
8.45128e-05
7.45591e-05
6.81061e-05
6.16022e-05
5.70265e-05
5.40654e-05
5.14524e-05
4.97637e-05
4.78582e-05
4.63661e-05
4.45808e-05
4.39842e-05
4.47183e-05
0.000360616
0.000413483
0.000456372
0.000387429
0.000331758
0.000276474
0.000238312
0.000209489
0.00018749
0.000169157
0.000155276
0.000144391
0.000136167
0.000128841
0.000123528
0.00011809
0.000114696
0.000110423
0.00070933
0.000689701
0.000738288
0.000711542
0.000648316
0.000568923
0.000507538
0.000455667
0.000416651
0.000380496
0.000354432
0.000330554
0.000315717
0.000300715
0.000292333
0.000282217
0.000276579
0.000268053
0.000903511
0.000846187
0.000871007
0.000870616
0.000839706
0.000788187
0.000737185
0.000688871
0.00064759
0.000608895
0.000577166
0.000548248
0.000528809
0.000510401
0.000499459
0.000486829
0.000479869
0.000469301
0.00093703
0.00091765
0.000914544
0.000916726
0.000910157
0.000891612
0.000865138
0.000837407
0.00080868
0.00078112
0.000755061
0.000731268
0.000713312
0.000696361
0.000684201
0.000668768
0.000655357
0.000648073
0.000938051
0.000934526
0.000933013
0.000930995
0.000927971
0.000921534
0.000910055
0.000896371
0.000879981
0.000863512
0.000846379
0.000830606
0.000817018
0.000804755
0.000795223
0.000784149
0.0007761
0.000765608
0.000937426
0.00093624
0.000935511
0.000934723
0.000932784
0.00093105
0.000926728
0.000921009
0.000912864
0.000904261
0.000894705
0.000885565
0.000876904
0.000869035
0.000862137
0.000855343
0.000850282
0.000841827
0.000937167
0.000936305
0.000935509
0.000934868
0.000933879
0.000932977
0.000931523
0.000929413
0.000926908
0.000923606
0.000919498
0.000914872
0.000910426
0.000906333
0.000902366
0.00089867
0.000894922
0.000891501
0.000937089
0.000936238
0.000935432
0.000934694
0.000933954
0.000933228
0.000932492
0.00093159
0.00093045
0.000929106
0.000927628
0.000925903
0.000924244
0.000922559
0.000921029
0.000919406
0.000918066
0.000916354
0.000937068
0.000936207
0.000935406
0.000934632
0.000933916
0.000933213
0.000932565
0.000931898
0.000931233
0.00093049
0.000929783
0.000928989
0.000928267
0.0009275
0.000926832
0.000926113
0.000925504
0.000924798
0.000937062
0.000936198
0.00093539
0.000934613
0.000933888
0.000933186
0.000932531
0.000931892
0.000931292
0.000930691
0.000930128
0.000929561
0.000929034
0.000928509
0.000928023
0.000927543
0.000927096
0.00092665
0.000937058
0.000936195
0.00093538
0.000934602
0.000933867
0.000933164
0.0009325
0.000931861
0.000931258
0.000930675
0.000930125
0.000929591
0.000929088
0.000928598
0.000928138
0.00092769
0.000927268
0.000926857
0.000937056
0.000936192
0.000935372
0.000934593
0.000933852
0.000933147
0.000932476
0.000931836
0.000931226
0.000930643
0.000930087
0.000929556
0.000929047
0.000928561
0.000928095
0.00092765
0.000927222
0.000926815
0.000937055
0.00093619
0.000935368
0.000934586
0.000933843
0.000933135
0.000932461
0.000931818
0.000931204
0.000930619
0.000930058
0.000929524
0.000929011
0.000928522
0.000928053
0.000927605
0.000927174
0.000926764
0.000937055
0.00093619
0.000935367
0.000934583
0.000933838
0.000933128
0.000932452
0.000931807
0.000931191
0.000930603
0.00093004
0.000929503
0.000928988
0.000928497
0.000928025
0.000927576
0.000927142
0.00092673
0.000937054
0.000936191
0.000935366
0.000934584
0.000933836
0.000933127
0.000932447
0.000931803
0.000931184
0.000930597
0.000930031
0.000929495
0.000928977
0.000928487
0.000928012
0.000927563
0.000927128
0.000926715
0.000937055
0.000936191
0.000935368
0.000934584
0.000933839
0.000933127
0.000932452
0.000931803
0.000931189
0.000930597
0.000930036
0.000929495
0.000928982
0.000928487
0.000928017
0.000927563
0.000927132
0.000926715
0.000937055
0.000936192
0.00093537
0.000934589
0.000933843
0.000933135
0.000932458
0.000931815
0.000931197
0.000930611
0.000930047
0.000929511
0.000928994
0.000928504
0.00092803
0.00092758
0.000927145
0.000926731
0.000937055
0.000936195
0.000935373
0.000934596
0.000933851
0.000933146
0.00093247
0.00093183
0.000931213
0.000930628
0.000930062
0.000929526
0.000929004
0.000928508
0.000928024
0.000927563
0.00092711
0.000926679
0.00093706
0.000936199
0.000935375
0.000934602
0.000933855
0.000933154
0.000932468
0.000931825
0.000931181
0.000930578
0.000929959
0.000929377
0.000928769
0.000928193
0.000927581
0.000926999
0.000926373
0.000925782
0.000937101
0.000936208
0.00093532
0.00093452
0.000933733
0.000932946
0.000932148
0.000931336
0.000930431
0.000929504
0.000928414
0.000927359
0.0009261
0.000924907
0.000923467
0.000922113
0.000920493
0.000919024
0.000937458
0.000936126
0.000934254
0.000933094
0.000931593
0.000930027
0.000928294
0.000926164
0.000923318
0.000920026
0.000916602
0.000912741
0.000908808
0.000904793
0.000900069
0.000895724
0.000890672
0.000886245
0.000939526
0.000933262
0.000924019
0.000919296
0.000909748
0.000906502
0.000901261
0.000893538
0.000883036
0.000872534
0.000860443
0.000849222
0.000836826
0.000825735
0.000813568
0.000803034
0.000791397
0.000781766
0.0009454
0.000913033
0.000866619
0.000843202
0.000834086
0.000816528
0.000791903
0.000767158
0.000739846
0.00071567
0.000690717
0.000669648
0.00064798
0.000630137
0.000611436
0.000596444
0.000580264
0.000567789
0.000991286
0.000824387
0.000677087
0.000622625
0.00059628
0.000555557
0.000514937
0.000480312
0.00044746
0.000421227
0.000396531
0.000377291
0.000358559
0.000344172
0.000329465
0.000318405
0.000306507
0.000297835
0.000913473
0.000496552
0.000316279
0.000268417
0.000239929
0.000215876
0.000194029
0.000178114
0.000164567
0.000154198
0.000145299
0.000138483
0.000132374
0.00012767
0.00012317
0.000119731
0.000116223
0.00011359
0.000255238
0.000120913
8.75367e-05
7.21386e-05
6.43499e-05
6.03764e-05
5.83568e-05
5.73139e-05
5.70407e-05
5.7191e-05
5.78021e-05
5.86622e-05
5.98355e-05
6.10766e-05
6.25365e-05
6.40094e-05
6.4605e-05
6.45789e-05
1.00699e-05
1.50756e-05
1.88171e-05
2.11137e-05
2.24271e-05
2.29185e-05
2.30739e-05
2.306e-05
2.28378e-05
2.2552e-05
2.22437e-05
2.19352e-05
2.16407e-05
2.13662e-05
2.11154e-05
2.08883e-05
2.06844e-05
2.05054e-05
1.55512e-12
1.76095e-10
9.0068e-10
3.5613e-09
1.19299e-08
3.64147e-08
9.51863e-08
1.89858e-07
3.08147e-07
4.32883e-07
5.44796e-07
6.31618e-07
6.89465e-07
7.1114e-07
7.01759e-07
6.72816e-07
6.1855e-07
5.28339e-07
4.49785e-07
3.82163e-07
3.18168e-07
2.5595e-07
1.96001e-07
1.40418e-07
9.11915e-08
5.32293e-08
2.82094e-08
1.42018e-08
7.24389e-09
3.95883e-09
2.41597e-09
1.84777e-09
2.09947e-09
4.47413e-09
1.00815e-08
5.82517e-08
1.33706e-07
2.91139e-07
4.31848e-07
4.56284e-07
4.16696e-07
3.28166e-07
2.70652e-07
2.70458e-07
3.0286e-07
4.22884e-07
5.8487e-07
1.20999e-06
2.76511e-06
8.27624e-06
2.01221e-05
3.29691e-05
4.10376e-05
4.25901e-05
2.95448e-05
3.09148e-05
3.4565e-05
3.03002e-05
3.05249e-05
3.05538e-05
3.31803e-05
3.14091e-05
3.15076e-05
3.32579e-05
3.34634e-05
3.42348e-05
3.47696e-05
3.53875e-05
3.59379e-05
3.65221e-05
3.70639e-05
3.76243e-05
3.81603e-05
3.87029e-05
3.92336e-05
3.97639e-05
4.02894e-05
4.08112e-05
4.13319e-05
4.18476e-05
4.23637e-05
4.28746e-05
4.33866e-05
4.38937e-05
4.44018e-05
4.49057e-05
4.54104e-05
4.59118e-05
4.64125e-05
4.69099e-05
4.74059e-05
4.79e-05
4.83926e-05
4.88815e-05
4.93668e-05
4.98475e-05
5.0324e-05
5.07977e-05
5.12699e-05
5.17464e-05
5.22327e-05
5.27237e-05
5.32146e-05
5.37124e-05
5.42136e-05
5.4723e-05
5.52373e-05
5.57608e-05
5.62906e-05
5.68307e-05
5.73789e-05
5.79385e-05
5.8508e-05
5.90902e-05
5.96844e-05
6.02927e-05
6.09154e-05
6.15537e-05
6.2209e-05
6.28817e-05
6.35744e-05
6.42868e-05
6.50226e-05
6.5781e-05
6.65673e-05
6.73806e-05
6.82279e-05
6.91075e-05
7.00389e-05
7.0941e-05
7.19644e-05
7.29161e-05
7.4004e-05
7.51037e-05
7.62903e-05
7.75242e-05
7.82775e-05
7.80192e-05
7.77527e-05
7.74716e-05
7.71819e-05
7.68812e-05
7.65718e-05
7.62522e-05
7.59243e-05
7.55869e-05
7.52416e-05
7.48882e-05
7.45273e-05
7.41622e-05
7.37861e-05
7.34099e-05
7.30241e-05
7.2633e-05
7.22414e-05
7.18419e-05
7.14429e-05
7.10407e-05
7.06382e-05
7.02353e-05
6.98317e-05
6.94286e-05
6.90254e-05
6.86231e-05
6.8221e-05
6.78208e-05
6.74219e-05
6.70259e-05
6.66325e-05
6.62429e-05
6.58561e-05
6.54728e-05
6.50911e-05
6.4709e-05
6.43218e-05
6.39224e-05
6.3499e-05
6.30242e-05
6.24415e-05
6.08774e-05
6.79453e-12
1.09982e-09
1.50027e-08
8.05342e-08
3.47962e-07
1.18895e-06
2.72384e-06
4.99075e-06
7.74303e-06
1.08795e-05
1.40517e-05
1.6989e-05
1.94764e-05
2.1356e-05
2.24442e-05
2.27688e-05
2.24268e-05
2.16141e-05
1.93433e-05
1.61855e-05
1.2452e-05
9.14027e-06
6.43e-06
4.32181e-06
2.72024e-06
1.67923e-06
1.02656e-06
6.37549e-07
4.01174e-07
2.64365e-07
1.92307e-07
1.71597e-07
1.61349e-07
3.11621e-07
4.88397e-07
3.42063e-06
7.76758e-06
1.54652e-05
2.11299e-05
2.27791e-05
2.13944e-05
1.88635e-05
1.6214e-05
1.5613e-05
1.67539e-05
1.7353e-05
2.0799e-05
2.86384e-05
3.98549e-05
5.06786e-05
6.16641e-05
7.04661e-05
7.83653e-05
8.64879e-05
9.53657e-05
0.000106103
0.000118125
0.000130334
0.000142257
0.000159581
0.000172693
0.000184618
0.000198955
0.00021152
0.000223605
0.000235438
0.000246763
0.00025757
0.000268078
0.000278156
0.000288004
0.000297514
0.000306831
0.000315896
0.000324796
0.000333505
0.000342072
0.000350486
0.000358777
0.000366937
0.000374988
0.000382924
0.000390762
0.000398493
0.000406133
0.000413673
0.00042113
0.000428494
0.000435782
0.000442988
0.000450121
0.000457169
0.00046414
0.00047101
0.000477767
0.000484376
0.000490796
0.000496968
0.0005028
0.000508184
0.000512971
0.000517557
0.000522037
0.000526397
0.000530632
0.000534746
0.000538728
0.00054258
0.000546294
0.00054987
0.000553301
0.000556587
0.000559721
0.000562703
0.000565528
0.000568195
0.0005707
0.000573043
0.00057522
0.000577232
0.000579074
0.000580747
0.000582247
0.000583576
0.00058473
0.000585711
0.000586517
0.000587157
0.000587671
0.000587962
0.000588193
0.000588104
0.000587899
0.000587547
0.000587119
0.000586688
0.000586379
0.000586091
0.000585653
0.000585077
0.000584376
0.000583552
0.000582611
0.000581554
0.000580384
0.000579101
0.000577709
0.000576211
0.000574618
0.000572912
0.000571154
0.000569274
0.000567271
0.000565275
0.000563089
0.000560893
0.000558594
0.000556243
0.000553833
0.000551369
0.000548859
0.000546302
0.000543702
0.000541057
0.000538369
0.000535642
0.000532878
0.000530082
0.000527259
0.000524411
0.000521536
0.000518628
0.000515681
0.000512655
0.000509501
0.00050614
0.000502438
0.000498096
0.000492366
0.000476348
1.88455e-11
3.23357e-09
6.12201e-08
3.73686e-07
1.03895e-06
2.95691e-06
6.2475e-06
1.08402e-05
1.65174e-05
2.29663e-05
2.98107e-05
3.66084e-05
4.27348e-05
4.7839e-05
5.16966e-05
5.42321e-05
5.55968e-05
5.58992e-05
5.43763e-05
5.14833e-05
4.68117e-05
4.08352e-05
3.36323e-05
2.6409e-05
1.98244e-05
1.4147e-05
9.61823e-06
6.41354e-06
4.09111e-06
2.73428e-06
1.9502e-06
1.58534e-06
1.3439e-06
2.33807e-06
4.49318e-06
1.76052e-05
3.70836e-05
5.48377e-05
6.35036e-05
6.11683e-05
4.87514e-05
3.98592e-05
3.94616e-05
4.64139e-05
5.39877e-05
6.39311e-05
7.72055e-05
8.95634e-05
0.000102576
0.000119733
0.000138039
0.000158946
0.000182344
0.000208752
0.000236715
0.000267275
0.000299774
0.000330155
0.000361454
0.000391814
0.000420197
0.000446489
0.00047462
0.000499311
0.000523649
0.000546796
0.000568871
0.000590206
0.000610846
0.000630848
0.000650349
0.000669352
0.000687967
0.000706196
0.000724107
0.000741708
0.000759037
0.000776103
0.000792927
0.000809516
0.000825884
0.000842034
0.000857977
0.000873713
0.00088925
0.000904587
0.00091973
0.000934677
0.000949432
0.000963987
0.000978338
0.000992473
0.00100638
0.00102003
0.00103339
0.00104642
0.00105908
0.00107133
0.00108312
0.00109444
0.00110538
0.00111609
0.00112656
0.00113678
0.00114673
0.00115642
0.00116582
0.00117494
0.00118376
0.00119228
0.00120048
0.00120836
0.00121591
0.00122313
0.00123001
0.00123655
0.00124273
0.00124856
0.00125402
0.00125913
0.00126388
0.00126825
0.00127227
0.00127591
0.00127918
0.00128209
0.00128464
0.00128683
0.00128867
0.00129014
0.00129129
0.00129204
0.00129241
0.0012925
0.00129252
0.00129228
0.00129187
0.00129122
0.00129027
0.00128901
0.00128747
0.00128565
0.00128357
0.00128123
0.00127863
0.00127579
0.0012727
0.00126938
0.00126584
0.00126207
0.00125813
0.00125395
0.00124955
0.00124501
0.0012402
0.00123527
0.00123015
0.0012249
0.00121951
0.00121401
0.0012084
0.00120269
0.00119688
0.00119099
0.001185
0.00117893
0.00117278
0.00116657
0.00116031
0.001154
0.00114765
0.00114123
0.00113472
0.00112806
0.00112114
0.0011138
0.00110573
0.00109618
0.00108328
0.00105422
7.00065e-11
1.18517e-08
1.88296e-07
8.12129e-07
2.51085e-06
6.93033e-06
1.3716e-05
2.2826e-05
3.35745e-05
4.48731e-05
5.57941e-05
6.58343e-05
7.44323e-05
8.09784e-05
8.58708e-05
8.8963e-05
9.0174e-05
8.98958e-05
8.82573e-05
8.5078e-05
8.04842e-05
7.48931e-05
6.74814e-05
5.86334e-05
4.89042e-05
3.91164e-05
3.0166e-05
2.26883e-05
1.69682e-05
1.24072e-05
9.61199e-06
7.27674e-06
8.04882e-06
1.25586e-05
2.78372e-05
5.16537e-05
7.00527e-05
7.79003e-05
7.49045e-05
7.19242e-05
7.2196e-05
7.6278e-05
8.44558e-05
9.59038e-05
0.000110877
0.000122831
0.000142739
0.000165914
0.000192608
0.000225
0.00026008
0.000299364
0.000341153
0.000385345
0.000430469
0.00047597
0.000521171
0.000564617
0.000607572
0.000648286
0.000687455
0.000724564
0.000761644
0.000796358
0.000829841
0.00086216
0.000893397
0.000923749
0.000953297
0.000982134
0.00101035
0.00103801
0.00106517
0.00109186
0.00111814
0.00114402
0.00116953
0.00119467
0.00121948
0.00124395
0.00126809
0.0012919
0.0013154
0.00133858
0.00136145
0.001384
0.00140624
0.00142815
0.00144975
0.00147102
0.00149195
0.00151252
0.00153273
0.00155255
0.00157196
0.00159093
0.00160944
0.00162748
0.00164504
0.00166216
0.00167889
0.00169527
0.00171127
0.00172689
0.00174211
0.00175693
0.00177131
0.00178527
0.00179877
0.00181181
0.00182439
0.00183648
0.00184808
0.00185919
0.00186978
0.00187987
0.00188943
0.00189847
0.00190697
0.00191495
0.00192239
0.0019293
0.00193567
0.0019415
0.0019468
0.00195157
0.00195581
0.00195953
0.00196273
0.00196541
0.00196757
0.00196922
0.0019703
0.00197101
0.0019715
0.00197151
0.00197114
0.00197034
0.0019691
0.00196742
0.00196532
0.00196281
0.0019599
0.00195659
0.00195291
0.00194886
0.00194445
0.00193969
0.00193459
0.00192917
0.00192345
0.00191739
0.00191102
0.00190439
0.00189743
0.00189023
0.00188277
0.00187509
0.00186721
0.00185915
0.00185092
0.00184254
0.00183402
0.00182535
0.00181654
0.00180761
0.00179857
0.00178943
0.00178021
0.00177093
0.00176158
0.00175214
0.00174258
0.00173281
0.00172272
0.00171208
0.0017005
0.0016869
0.00166883
0.00163438
2.38683e-10
3.56454e-08
4.20429e-07
1.96425e-06
6.80295e-06
1.63055e-05
3.01773e-05
4.66796e-05
6.38671e-05
8.00837e-05
9.42116e-05
0.00010519
0.000113294
0.000118861
0.000121949
0.000123166
0.000122761
0.000120938
0.000117901
0.000113658
0.000108256
0.000102169
9.47157e-05
8.59537e-05
7.58818e-05
6.47891e-05
5.35581e-05
4.34038e-05
3.50258e-05
2.81106e-05
2.24409e-05
2.12497e-05
2.72856e-05
4.56679e-05
6.96474e-05
8.47878e-05
9.20424e-05
9.51987e-05
9.79471e-05
0.000103184
0.000112329
0.000126271
0.00013947
0.000152724
0.000174713
0.000203946
0.000236462
0.000275501
0.000318842
0.000366822
0.000417228
0.000470496
0.000524943
0.000580172
0.000635233
0.000689592
0.000742834
0.000794464
0.000844453
0.000892846
0.000939558
0.000984881
0.00102878
0.00107107
0.00111209
0.00115196
0.00119078
0.00122867
0.00126574
0.00130205
0.00133769
0.00137271
0.00140716
0.00144108
0.0014745
0.00150744
0.0015399
0.00157192
0.00160348
0.00163461
0.0016653
0.00169555
0.00172537
0.00175476
0.00178371
0.00181223
0.00184031
0.00186796
0.00189516
0.00192191
0.00194821
0.00197403
0.00199938
0.00202424
0.0020486
0.00207244
0.00209576
0.00211857
0.00214087
0.00216269
0.00218402
0.00220488
0.00222525
0.00224513
0.00226448
0.0022833
0.00230158
0.00231929
0.00233644
0.002353
0.00236896
0.00238431
0.00239905
0.00241316
0.00242664
0.00243948
0.00245167
0.00246321
0.0024741
0.00248433
0.0024939
0.00250281
0.00251107
0.00251867
0.00252562
0.00253192
0.00253757
0.00254259
0.00254697
0.00255073
0.00255383
0.00255633
0.00255811
0.00255949
0.00256045
0.00256081
0.00256064
0.00255993
0.00255867
0.00255688
0.00255457
0.00255175
0.00254843
0.00254462
0.00254033
0.00253559
0.0025304
0.00252477
0.00251872
0.00251226
0.00250541
0.00249815
0.00249051
0.0024825
0.00247411
0.00246539
0.00245636
0.00244703
0.00243745
0.00242762
0.00241757
0.00240732
0.00239687
0.00238623
0.00237541
0.00236443
0.00235329
0.00234202
0.00233064
0.00231915
0.00230756
0.00229587
0.00228403
0.00227198
0.00225958
0.00224662
0.00223267
0.00221669
0.00219582
0.00216117
7.59871e-10
8.72561e-08
1.04867e-06
5.31254e-06
1.72493e-05
3.63217e-05
5.92251e-05
8.25562e-05
0.000102902
0.000118953
0.000130889
0.000139652
0.000145053
0.000147979
0.000148939
0.000148319
0.000146373
0.000143286
0.000139201
0.000134074
0.000128066
0.000121438
0.000113647
0.000104805
9.34539e-05
7.79018e-05
6.28575e-05
4.88659e-05
3.76596e-05
3.31991e-05
3.4786e-05
4.73601e-05
6.95385e-05
9.08467e-05
0.000105465
0.000114261
0.000120009
0.000126479
0.000137059
0.00015365
0.000164682
0.000178521
0.00020223
0.000231647
0.000267558
0.000310417
0.000357896
0.000410765
0.000466579
0.000525232
0.000585366
0.000646759
0.000708375
0.000769796
0.000830507
0.000890168
0.000948291
0.00100496
0.00106046
0.00111434
0.0011666
0.00121749
0.00126697
0.0013151
0.00136204
0.00140787
0.0014527
0.00149662
0.0015397
0.00158202
0.00162364
0.00166459
0.00170492
0.00174465
0.00178381
0.0018224
0.00186044
0.00189793
0.00193487
0.00197127
0.00200713
0.00204244
0.00207721
0.00211143
0.0021451
0.00217823
0.00221081
0.00224284
0.00227433
0.00230525
0.00233562
0.00236542
0.00239465
0.00242331
0.00245139
0.00247888
0.00250579
0.00253212
0.00255789
0.00258308
0.0026077
0.00263174
0.0026552
0.00267805
0.00270029
0.00272191
0.00274289
0.00276321
0.00278287
0.00280185
0.00282014
0.00283774
0.00285463
0.00287082
0.00288628
0.00290103
0.00291504
0.00292833
0.00294089
0.00295271
0.0029638
0.00297415
0.00298378
0.00299268
0.00300086
0.00300832
0.00301507
0.00302111
0.00302649
0.00303108
0.00303501
0.00303824
0.0030407
0.00304272
0.00304417
0.00304496
0.00304513
0.00304469
0.00304365
0.003042
0.00303978
0.00303698
0.00303363
0.00302972
0.00302528
0.00302032
0.00301485
0.00300889
0.00300245
0.00299554
0.00298817
0.00298035
0.00297208
0.00296339
0.00295427
0.00294476
0.00293488
0.00292467
0.00291414
0.00290332
0.00289223
0.00288089
0.00286931
0.0028575
0.00284546
0.00283322
0.00282079
0.0028082
0.00279546
0.0027826
0.00276961
0.0027565
0.00274324
0.00272977
0.00271599
0.00270169
0.00268649
0.00266947
0.00264801
0.00261534
2.44134e-09
2.23104e-07
2.7774e-06
1.44814e-05
3.7665e-05
6.68524e-05
9.44728e-05
0.000116963
0.000134064
0.000146968
0.000156069
0.00016166
0.000164603
0.000165568
0.000165004
0.000163207
0.000160364
0.000156576
0.000151789
0.000145928
0.000139255
0.000131514
0.000122465
0.000106082
9.07072e-05
7.71514e-05
6.52013e-05
5.70024e-05
5.66084e-05
6.56686e-05
7.95657e-05
0.000104396
0.000120968
0.000133486
0.000142632
0.000150763
0.00016186
0.000178866
0.000187746
0.000201152
0.00022395
0.000252428
0.00028857
0.000331134
0.000380293
0.000434906
0.00049318
0.00055466
0.000617912
0.000682634
0.000748038
0.00081375
0.000879187
0.000944037
0.00100774
0.00107025
0.00113202
0.0011923
0.00125124
0.00130877
0.00136491
0.00141976
0.00147335
0.00152575
0.00157705
0.00162731
0.00167663
0.00172506
0.00177268
0.00181953
0.00186566
0.0019111
0.00195588
0.00200002
0.00204352
0.00208639
0.00212863
0.00217023
0.0022112
0.00225153
0.00229121
0.00233025
0.00236865
0.0024064
0.0024435
0.00247995
0.00251576
0.00255093
0.00258545
0.00261932
0.00265256
0.00268514
0.00271709
0.00274839
0.00277904
0.00280904
0.00283838
0.00286706
0.00289506
0.00292242
0.00294912
0.00297516
0.00300054
0.00302525
0.00304927
0.00307261
0.00309524
0.00311716
0.00313837
0.00315887
0.00317864
0.00319767
0.00321596
0.00323348
0.00325025
0.00326625
0.00328148
0.00329595
0.00330964
0.00332255
0.0033347
0.00334608
0.00335669
0.00336653
0.00337562
0.00338395
0.00339154
0.00339843
0.00340453
0.00340984
0.00341446
0.00341833
0.0034214
0.003424
0.00342594
0.00342718
0.00342775
0.00342768
0.00342696
0.0034256
0.00342363
0.00342106
0.0034179
0.00341422
0.00340997
0.00340518
0.00339984
0.00339398
0.0033876
0.00338071
0.00337333
0.00336546
0.00335711
0.00334829
0.00333902
0.00332932
0.00331921
0.00330872
0.00329789
0.00328672
0.00327524
0.00326347
0.00325143
0.00323911
0.00322653
0.00321372
0.00320068
0.00318744
0.00317404
0.00316047
0.00314677
0.00313293
0.00311893
0.00310474
0.00309029
0.0030754
0.0030598
0.00304272
0.00302213
0.00299253
7.3579e-09
5.90901e-07
7.47632e-06
3.09302e-05
6.48768e-05
9.90218e-05
0.000127361
0.000148303
0.000162718
0.000171446
0.000175831
0.000177583
0.000177641
0.00017637
0.000174072
0.000170897
0.000166806
0.000161712
0.000155729
0.000149017
0.000141396
0.000132467
0.000114941
9.82876e-05
8.4582e-05
7.56852e-05
7.38007e-05
7.80169e-05
8.91082e-05
0.00011037
0.000135173
0.000157467
0.000170223
0.000179962
0.000191391
0.000201222
0.000208384
0.00022121
0.000241452
0.000267822
0.000301995
0.000342596
0.000390199
0.000443625
0.000502112
0.000564146
0.000628505
0.000694606
0.0007617
0.000829434
0.000897334
0.000965076
0.00103213
0.00109824
0.00116389
0.00122846
0.00129191
0.00135412
0.0014151
0.00147486
0.00153339
0.00159077
0.00164702
0.00170219
0.00175636
0.00180958
0.0018619
0.00191339
0.00196409
0.00201405
0.00206329
0.00211185
0.00215973
0.00220694
0.00225347
0.00229933
0.00234449
0.00238896
0.00243272
0.00247577
0.00251808
0.00255967
0.00260053
0.00264066
0.00268005
0.00271871
0.00275665
0.00279387
0.00283037
0.00286616
0.00290124
0.00293561
0.00296928
0.00300225
0.00303451
0.00306607
0.00309692
0.00312704
0.00315644
0.00318515
0.00321316
0.00324047
0.00326708
0.00329298
0.00331816
0.00334262
0.00336634
0.00338933
0.00341158
0.00343307
0.00345379
0.00347376
0.00349295
0.00351137
0.00352901
0.00354587
0.00356194
0.00357724
0.00359174
0.00360547
0.00361841
0.00363057
0.00364196
0.00365257
0.00366242
0.0036715
0.00367985
0.00368749
0.00369425
0.00370028
0.00370561
0.00371015
0.00371391
0.00371717
0.0037197
0.00372153
0.00372268
0.00372316
0.00372297
0.00372214
0.00372068
0.0037186
0.0037159
0.0037126
0.00370872
0.00370427
0.00369926
0.00369369
0.00368759
0.00368096
0.00367381
0.00366615
0.00365797
0.0036493
0.00364016
0.00363055
0.00362052
0.00361008
0.00359926
0.00358808
0.00357656
0.00356472
0.00355256
0.0035401
0.00352735
0.00351432
0.00350105
0.00348755
0.00347384
0.00345996
0.00344592
0.00343172
0.00341737
0.00340284
0.00338809
0.00337305
0.00335759
0.00334102
0.00332175
0.00329576
1.91736e-08
1.4692e-06
1.66329e-05
5.19977e-05
9.29078e-05
0.000127371
0.00015304
0.000170332
0.000181133
0.000186712
0.000188462
0.000187505
0.000184776
0.00018099
0.000176532
0.000171512
0.00016585
0.000159606
0.000152691
0.00014527
0.000137126
0.000125553
0.000114045
0.000107405
0.000102043
9.86608e-05
0.000104397
0.000120014
0.000139795
0.000160802
0.00018033
0.000196386
0.000207775
0.00021639
0.000225558
0.000237687
0.00025573
0.00027943
0.000310419
0.000347976
0.000392344
0.000442637
0.000498547
0.00055889
0.000622571
0.000688404
0.000755616
0.000823739
0.000892331
0.000961082
0.00102968
0.00109751
0.00116497
0.00123187
0.00129785
0.00136283
0.00142675
0.00148958
0.0015513
0.00161191
0.00167145
0.00172993
0.00178741
0.00184392
0.00189952
0.00195425
0.00200816
0.00206128
0.00211367
0.00216537
0.0022164
0.00226678
0.00231651
0.00236559
0.00241398
0.00246168
0.00250867
0.00255493
0.00260043
0.00264517
0.00268912
0.00273228
0.00277464
0.00281621
0.00285701
0.00289708
0.00293636
0.00297484
0.00301254
0.00304945
0.00308559
0.00312097
0.00315559
0.00318945
0.00322256
0.00325493
0.00328654
0.00331743
0.00334759
0.00337703
0.00340574
0.00343372
0.00346097
0.00348749
0.00351327
0.00353831
0.00356261
0.00358615
0.00360894
0.00363098
0.00365225
0.00367275
0.00369249
0.00371145
0.00372964
0.00374706
0.00376371
0.00377957
0.00379467
0.00380899
0.00382253
0.00383531
0.00384732
0.00385857
0.00386907
0.00387881
0.00388786
0.00389613
0.00390357
0.00391031
0.00391633
0.00392157
0.00392609
0.00393002
0.00393324
0.00393575
0.00393758
0.00393874
0.00393924
0.00393908
0.0039383
0.00393688
0.00393485
0.00393222
0.003929
0.0039252
0.00392084
0.00391591
0.00391045
0.00390444
0.0038979
0.00389083
0.00388324
0.00387513
0.00386654
0.00385748
0.00384797
0.00383804
0.0038277
0.00381698
0.0038059
0.00379446
0.00378269
0.00377058
0.00375815
0.00374543
0.00373242
0.00371916
0.00370568
0.00369198
0.0036781
0.00366406
0.00364984
0.00363546
0.00362091
0.0036061
0.00359093
0.00357493
0.00355683
0.00353396
4.27427e-08
3.39428e-06
3.00409e-05
7.58892e-05
0.000119893
0.00015353
0.000175741
0.000189669
0.000196314
0.000197519
0.000195186
0.000190701
0.000184999
0.00017866
0.000171912
0.000164698
0.000157219
0.000149053
0.000140959
0.000132509
0.000124035
0.000116504
0.000111778
0.000112169
0.000118964
0.000131444
0.000147521
0.000165244
0.000183195
0.000199984
0.000213923
0.000225082
0.000236893
0.000250051
0.000266867
0.00028821
0.000315929
0.00034987
0.000390255
0.000436478
0.000488229
0.00054479
0.000605488
0.000669263
0.000735143
0.000802315
0.00087026
0.000938625
0.00100711
0.00107521
0.00114281
0.00121039
0.00127715
0.00134314
0.00140823
0.00147236
0.0015355
0.00159762
0.00165873
0.00171883
0.00177793
0.00183608
0.00189334
0.00194974
0.00200534
0.00206018
0.00211429
0.00216767
0.00222042
0.00227257
0.00232415
0.00237516
0.00242564
0.0024756
0.00252512
0.00257405
0.00262227
0.00266971
0.00271635
0.00276215
0.0028071
0.00285118
0.00289439
0.00293673
0.00297819
0.00301876
0.00305848
0.00309739
0.0031355
0.00317283
0.00320937
0.00324515
0.00328016
0.00331441
0.00334791
0.00338066
0.00341266
0.00344393
0.00347446
0.00350424
0.00353328
0.00356159
0.00358915
0.00361597
0.00364205
0.00366738
0.00369197
0.00371582
0.00373893
0.00376128
0.00378288
0.00380373
0.00382384
0.00384319
0.00386178
0.00387963
0.00389672
0.00391306
0.00392865
0.00394349
0.00395758
0.00397092
0.00398352
0.00399538
0.00400651
0.00401693
0.00402665
0.00403556
0.00404375
0.00405122
0.004058
0.00406401
0.00406935
0.00407404
0.00407804
0.00408134
0.00408397
0.00408593
0.00408724
0.00408791
0.00408794
0.00408735
0.00408616
0.00408436
0.00408198
0.00407902
0.0040755
0.00407143
0.0040668
0.00406163
0.00405593
0.00404969
0.00404292
0.00403563
0.00402784
0.00401957
0.00401085
0.00400169
0.00399212
0.00398215
0.00397179
0.00396106
0.00394996
0.00393851
0.00392672
0.0039146
0.00390218
0.00388948
0.00387652
0.00386333
0.00384993
0.00383634
0.00382258
0.00380865
0.00379457
0.00378031
0.00376578
0.00375067
0.00373394
0.0037145
8.12252e-08
6.94514e-06
4.40563e-05
9.56812e-05
0.00014124
0.000174329
0.000194809
0.000204457
0.000206598
0.000203819
0.000198011
0.00019048
0.000182049
0.000173057
0.000164264
0.000155463
0.00014748
0.000140425
0.000135046
0.000131053
0.000129421
0.000131076
0.00013645
0.000145566
0.000157817
0.000172276
0.000187796
0.000203385
0.000217706
0.000230123
0.00024328
0.000258233
0.000274999
0.000294996
0.000319941
0.000350353
0.000386639
0.000428448
0.000475492
0.000527259
0.000583303
0.000642993
0.000705607
0.00077029
0.000836287
0.000903024
0.000970111
0.00103724
0.00110384
0.00117035
0.00123642
0.00130188
0.00136652
0.00143028
0.0014931
0.00155496
0.00161587
0.00167582
0.00173484
0.00179294
0.00185009
0.00190637
0.00196189
0.00201671
0.00207087
0.00212448
0.00217769
0.00223072
0.00228327
0.00233531
0.00238685
0.0024379
0.00248847
0.00253853
0.00258801
0.00263689
0.00268513
0.00273264
0.00277942
0.00282541
0.00287057
0.00291488
0.0029583
0.00300086
0.00304256
0.00308342
0.00312347
0.0031627
0.00320113
0.00323877
0.00327561
0.00331168
0.00334698
0.00338151
0.00341528
0.0034483
0.00348055
0.00351206
0.00354281
0.00357282
0.00360208
0.0036306
0.00365837
0.00368541
0.00371171
0.00373727
0.0037621
0.0037862
0.00380957
0.0038322
0.00385411
0.00387529
0.00389574
0.00391547
0.00393448
0.00395275
0.00397031
0.00398714
0.00400325
0.00401864
0.00403332
0.00404727
0.00406051
0.00407304
0.00408487
0.00409603
0.00410644
0.00411613
0.00412513
0.00413343
0.00414104
0.00414794
0.00415418
0.00415976
0.00416465
0.00416886
0.00417241
0.0041753
0.00417755
0.00417917
0.00418016
0.00418054
0.00418032
0.00417951
0.00417812
0.00417616
0.00417364
0.00417057
0.00416695
0.00416279
0.0041581
0.00415286
0.00414709
0.00414079
0.00413399
0.00412671
0.00411897
0.00411078
0.00410217
0.00409315
0.00408373
0.00407392
0.00406373
0.00405315
0.00404221
0.00403093
0.00401932
0.0040074
0.00399521
0.00398275
0.00397006
0.00395716
0.00394406
0.0039308
0.00391738
0.00390383
0.0038901
0.00387595
0.00386051
0.00384402
1.29583e-07
1.18868e-05
6.03352e-05
0.000118281
0.000164346
0.00019456
0.000210646
0.000216229
0.00021476
0.00020891
0.00020065
0.000191022
0.00018146
0.00017226
0.00016435
0.000157533
0.000152539
0.000149783
0.000149113
0.00015079
0.000155068
0.000161964
0.000171252
0.000182521
0.000195243
0.000208807
0.000222175
0.000234701
0.000248029
0.00026373
0.000281271
0.000300547
0.000323629
0.00035112
0.000383603
0.00042108
0.000463381