/*--------------------------------*- C++ -*----------------------------------*\
  =========                 |
  \\      /  F ield         | OpenFOAM: The Open Source CFD Toolbox
   \\    /   O peration     | Website:  https://openfoam.org
    \\  /    A nd           | Version:  8
     \\/     M anipulation  |
\*---------------------------------------------------------------------------*/
FoamFile
{
    version     2.0;
    format      ascii;
    class       volScalarField;
    location    "1100";
    object      p;
}
// * * * * * * * * * * * * * * * * * * * * * * * * * * * * * * * * * * * * * //

dimensions      [0 2 -2 0 0 0 0];

internalField   nonuniform List<scalar> 
12225
(
-4.20707
-5.10502
-5.4983
-5.62842
-5.76304
-5.91089
-6.03659
-6.14096
-6.23149
-6.31319
-6.38791
-6.45972
-6.53005
-6.6025
-6.67949
-6.75895
-6.84552
-6.93439
-4.48361
-5.13102
-5.46289
-5.59224
-5.72719
-5.8761
-6.00183
-6.10712
-6.19979
-6.28479
-6.36263
-6.43325
-6.50524
-6.57877
-6.65241
-6.72794
-6.80444
-6.87189
-4.71115
-5.13365
-5.44653
-5.60045
-5.73913
-5.88368
-6.00783
-6.11212
-6.20351
-6.28696
-6.36391
-6.43519
-6.50675
-6.57805
-6.64687
-6.7143
-6.77907
-6.83153
-4.86021
-5.16264
-5.45709
-5.61797
-5.74762
-5.88142
-6.00091
-6.10279
-6.19295
-6.2756
-6.35213
-6.42365
-6.49355
-6.56192
-6.6275
-6.6903
-6.74888
-6.79736
-4.98061
-5.2134
-5.4761
-5.63398
-5.75679
-5.88296
-5.99898
-6.09919
-6.18819
-6.26972
-6.34536
-6.41615
-6.48415
-6.54987
-6.61266
-6.67186
-6.72616
-6.7718
-5.09478
-5.26996
-5.49542
-5.64858
-5.76778
-5.88739
-5.99901
-6.09667
-6.1838
-6.26386
-6.33833
-6.40805
-6.47431
-6.53769
-6.5978
-6.65376
-6.70451
-6.7477
-5.20196
-5.32957
-5.51859
-5.66432
-5.77966
-5.89235
-5.99876
-6.09349
-6.17868
-6.25728
-6.3305
-6.39898
-6.46357
-6.52474
-6.58224
-6.63533
-6.68323
-6.72457
-5.28556
-5.38241
-5.54305
-5.67957
-5.7905
-5.89721
-5.99886
-6.09079
-6.17413
-6.25123
-6.3231
-6.39026
-6.45328
-6.51257
-6.56795
-6.61888
-6.66481
-6.70484
-5.35372
-5.42996
-5.56735
-5.6944
-5.80088
-5.90227
-5.99948
-6.08866
-6.1701
-6.24561
-6.31607
-6.38188
-6.44344
-6.50107
-6.55467
-6.60386
-6.64826
-6.68727
-5.42153
-5.48109
-5.59602
-5.71196
-5.81299
-5.90863
-6.00087
-6.08674
-6.16583
-6.23937
-6.30808
-6.37225
-6.43216
-6.48802
-6.5398
-6.58727
-6.63021
-6.66824
-5.48815
-5.53437
-5.62879
-5.73235
-5.82683
-5.91638
-6.00321
-6.08521
-6.16148
-6.23263
-6.29923
-6.36149
-6.41954
-6.47354
-6.52347
-6.56924
-6.61078
-6.64785
-5.55231
-5.58823
-5.66482
-5.75541
-5.84232
-5.92549
-6.00658
-6.0842
-6.15716
-6.22555
-6.28971
-6.34977
-6.4058
-6.45784
-6.50593
-6.55005
-6.5902
-6.62631
-5.61291
-5.64094
-5.70268
-5.78053
-5.85915
-5.93571
-6.0109
-6.08373
-6.15296
-6.21826
-6.27971
-6.33736
-6.39119
-6.44122
-6.48747
-6.52996
-6.56879
-6.60393
-5.66829
-5.69048
-5.74033
-5.8065
-5.87661
-5.94649
-6.01579
-6.08366
-6.14888
-6.21084
-6.26938
-6.32446
-6.37602
-6.424
-6.46844
-6.50938
-6.54695
-6.58116
-5.71654
-5.73444
-5.77517
-5.83138
-5.89344
-5.95689
-6.02058
-6.08357
-6.14473
-6.20327
-6.25886
-6.31134
-6.3606
-6.40658
-6.44928
-6.48877
-6.52517
-6.55855
-5.75492
-5.7698
-5.80397
-5.85241
-5.90763
-5.96539
-6.0241
-6.08269
-6.14007
-6.19539
-6.24818
-6.2982
-6.3453
-6.38942
-6.43055
-6.46875
-6.50411
-6.53674
-5.77952
-5.79249
-5.82251
-5.86582
-5.91616
-5.96967
-6.02458
-6.07975
-6.1341
-6.18678
-6.23725
-6.28522
-6.33054
-6.37311
-6.41294
-6.45007
-6.48459
-6.51662
-5.78401
-5.79635
-5.82505
-5.86658
-5.91506
-5.96675
-6.01994
-6.07348
-6.12631
-6.17757
-6.22673
-6.27351
-6.31774
-6.35937
-6.39837
-6.43483
-6.46881
-6.50046
-5.76789
-5.78093
-5.81113
-5.85436
-5.90416
-5.95672
-6.0105
-6.06444
-6.11748
-6.16876
-6.2178
-6.26437
-6.30833
-6.34966
-6.38839
-6.42458
-6.45835
-6.48985
-5.73638
-5.75129
-5.7855
-5.83331
-5.88687
-5.94228
-5.9984
-6.05428
-6.10881
-6.16116
-6.21093
-6.25798
-6.30225
-6.34375
-6.38254
-6.41875
-6.45251
-6.484
-5.69273
-5.7109
-5.75184
-5.80685
-5.86593
-5.92551
-5.98518
-6.04409
-6.10096
-6.15502
-6.20606
-6.25402
-6.29893
-6.34084
-6.37989
-6.41624
-6.45008
-6.48163
-5.6389
-5.66218
-5.71316
-5.77777
-5.84343
-5.90796
-5.97206
-6.03472
-6.09442
-6.15056
-6.20314
-6.25225
-6.29794
-6.34037
-6.37973
-6.41626
-6.45019
-6.48179
-5.57579
-5.60703
-5.67219
-5.74829
-5.82085
-5.89077
-5.95997
-6.02677
-6.08948
-6.14783
-6.20208
-6.25241
-6.29893
-6.34186
-6.38151
-6.41817
-6.45214
-6.48373
-5.50355
-5.5473
-5.63171
-5.72016
-5.799
-5.87463
-5.94946
-6.02057
-6.08623
-6.14675
-6.20266
-6.25417
-6.30145
-6.3448
-6.38463
-6.42133
-6.45526
-6.4868
-5.42151
-5.48477
-5.5945
-5.69468
-5.77831
-5.85971
-5.94049
-6.01583
-6.08428
-6.1469
-6.20441
-6.257
-6.3049
-6.34853
-6.38837
-6.42493
-6.45865
-6.49001
-5.32877
-5.42098
-5.56166
-5.67195
-5.75891
-5.84583
-5.93214
-6.01124
-6.08226
-6.14693
-6.2061
-6.25988
-6.30852
-6.35251
-6.39243
-6.42889
-6.46244
-6.49375
-5.22427
-5.35952
-5.53037
-5.64714
-5.73852
-5.83249
-5.9244
-6.00684
-6.08011
-6.14661
-6.20715
-6.26186
-6.31101
-6.35517
-6.39497
-6.43118
-6.46447
-6.4956
-5.10197
-5.31352
-5.50528
-5.61711
-5.71332
-5.81784
-5.91777
-6.00527
-6.08238
-6.15198
-6.21484
-6.27107
-6.32107
-6.36549
-6.405
-6.44064
-6.47353
-6.50508
-4.92268
-5.29001
-5.5133
-5.60885
-5.70063
-5.80933
-5.91244
-6.0014
-6.07986
-6.15099
-6.21532
-6.2727
-6.32349
-6.36823
-6.4075
-6.44195
-6.47288
-6.50165
-4.66054
-5.21563
-5.50332
-5.60904
-5.70862
-5.82596
-5.93475
-6.02654
-6.10637
-6.17828
-6.24301
-6.30052
-6.35112
-6.39534
-6.43359
-6.46556
-6.492
-6.51341
-7.46087
-7.46098
-7.46102
-7.46101
-7.46073
-7.45956
-7.45708
-7.45376
-7.45057
-7.44852
-7.4486
-7.451
-7.45524
-7.46055
-7.46616
-7.4714
-7.47571
-7.47869
-7.48032
-7.48094
-7.48082
-7.48017
-7.47922
-7.47825
-7.47747
-7.477
-7.47676
-7.4766
-7.47636
-7.47596
-7.4754
-7.47469
-7.47376
-7.47253
-7.47109
-7.46971
-7.46904
-7.46972
-7.47178
-7.47451
-7.47698
-7.47877
-7.4801
-7.48149
-7.48339
-7.48636
-7.49002
-7.49327
-7.49571
-7.49942
-7.5082
-7.52608
-7.55295
-7.58751
-7.62971
-7.68021
-7.73854
-7.80367
-7.87398
-7.94698
-8.02064
-8.09306
-8.16302
-8.22965
-8.29201
-8.34966
-8.40247
-8.45035
-8.49338
-8.53161
-8.56518
-8.59415
-8.61865
-8.63871
-8.65443
-8.6658
-8.67287
-8.67562
-8.67406
-8.66814
-8.65786
-8.64316
-8.62403
-8.60042
-8.57231
-8.53963
-8.50228
-8.46016
-8.41313
-8.36109
-8.30406
-8.24199
-8.17486
-8.10262
-8.02522
-7.94257
-7.8546
-7.76132
-7.66272
-7.55862
-7.44854
-7.33231
-7.21007
-7.08187
-6.94771
-6.8076
-6.66152
-6.5095
-6.35156
-6.18776
-6.01815
-5.84281
-5.66185
-5.47537
-5.28353
-5.08644
-4.8843
-4.67726
-4.46553
-4.24929
-4.02878
-3.80419
-3.57578
-3.34374
-3.10836
-2.86983
-2.62844
-2.38442
-2.13805
-1.88955
-1.63915
-1.38703
-1.13346
-0.878671
-0.622999
-0.366732
-0.110019
0.147265
0.404984
0.662777
0.920397
1.17763
1.43432
1.69029
1.9454
2.19952
2.45254
2.70429
2.95464
3.20344
3.45057
3.69591
3.93932
4.1807
4.41993
4.65689
4.8915
5.12367
5.35332
5.58037
5.80476
6.02639
6.2452
6.46111
6.67403
6.88388
7.09058
7.29403
7.49418
7.69092
7.88417
8.07383
8.2598
8.44198
8.62026
8.79457
8.96516
9.1319
9.29785
9.45413
-7.46206
-7.46224
-7.4626
-7.46299
-7.46299
-7.46219
-7.46029
-7.45783
-7.45606
-7.45592
-7.4577
-7.46126
-7.46609
-7.47154
-7.477
-7.48196
-7.48606
-7.48911
-7.49091
-7.49125
-7.49025
-7.48823
-7.48563
-7.48291
-7.48051
-7.47867
-7.47743
-7.4766
-7.47592
-7.47527
-7.47466
-7.47404
-7.47336
-7.47253
-7.47153
-7.47077
-7.471
-7.47264
-7.47539
-7.47825
-7.4801
-7.48061
-7.48027
-7.47918
-7.47758
-7.4771
-7.4801
-7.48677
-7.49345
-7.50049
-7.51136
-7.52724
-7.54967
-7.58203
-7.62649
-7.68209
-7.7466
-7.81736
-7.89137
-7.96648
-8.04066
-8.11268
-8.1814
-8.24553
-8.30497
-8.35972
-8.40978
-8.4552
-8.49608
-8.53251
-8.56458
-8.59235
-8.61589
-8.63522
-8.65038
-8.66136
-8.66816
-8.67076
-8.66914
-8.66325
-8.65307
-8.63853
-8.61961
-8.59627
-8.56847
-8.53616
-8.49925
-8.45763
-8.41117
-8.3598
-8.30348
-8.24219
-8.1759
-8.10454
-8.02804
-7.94628
-7.85915
-7.76646
-7.66804
-7.56379
-7.45388
-7.33834
-7.21701
-7.08979
-6.95665
-6.81755
-6.6725
-6.52151
-6.36459
-6.2018
-6.03319
-5.85884
-5.67885
-5.49333
-5.3024
-5.10622
-4.90495
-4.69876
-4.48784
-4.2724
-4.05263
-3.82876
-3.60102
-3.36964
-3.13486
-2.89692
-2.65606
-2.41255
-2.16663
-1.91854
-1.66851
-1.41672
-1.16338
-0.908746
-0.653036
-0.396447
-0.139226
0.118265
0.375874
0.633561
0.891089
1.14826
1.40491
1.66087
1.91599
2.17015
2.42322
2.67504
2.92547
3.17437
3.42162
3.6671
3.91068
4.15224
4.39166
4.62884
4.86368
5.09609
5.32599
5.55329
5.77794
5.99984
6.21893
6.43513
6.64835
6.8585
7.06551
7.2693
7.46978
7.66686
7.86048
8.05053
8.23696
8.4197
8.59865
8.77374
8.94518
9.11232
9.28032
9.43589
-7.46334
-7.46333
-7.46336
-7.46344
-7.46353
-7.46356
-7.46377
-7.46467
-7.46673
-7.4701
-7.47459
-7.47983
-7.4854
-7.49088
-7.49589
-7.50013
-7.50339
-7.50558
-7.5066
-7.50641
-7.50503
-7.5026
-7.49929
-7.49531
-7.4909
-7.48635
-7.48195
-7.47796
-7.47459
-7.47191
-7.46986
-7.46822
-7.46674
-7.46547
-7.46491
-7.46576
-7.4685
-7.47274
-7.47702
-7.4795
-7.479
-7.47649
-7.47409
-7.47332
-7.47379
-7.47542
-7.48071
-7.49092
-7.50531
-7.52444
-7.54918
-7.57969
-7.61646
-7.66013
-7.71068
-7.76709
-7.82793
-7.89163
-7.95656
-8.0215
-8.0854
-8.14752
-8.20724
-8.26385
-8.31703
-8.36658
-8.4124
-8.4544
-8.49255
-8.52683
-8.55722
-8.5837
-8.60625
-8.62486
-8.6395
-8.65014
-8.65674
-8.65926
-8.65766
-8.65188
-8.64188
-8.62761
-8.60901
-8.58603
-8.55865
-8.52679
-8.49041
-8.44937
-8.40358
-8.35294
-8.29741
-8.23696
-8.17156
-8.10114
-8.02563
-7.94491
-7.85888
-7.76737
-7.67023
-7.56732
-7.45867
-7.34432
-7.2242
-7.09822
-6.96634
-6.82852
-6.68476
-6.53505
-6.37942
-6.21791
-6.05057
-5.87749
-5.69873
-5.51444
-5.32471
-5.1297
-4.92957
-4.72449
-4.51464
-4.30024
-4.08147
-3.85858
-3.63176
-3.40127
-3.16733
-2.9302
-2.69011
-2.44732
-2.20208
-1.95463
-1.70519
-1.45395
-1.20113
-0.946999
-0.691785
-0.435702
-0.178957
0.0781568
0.335471
0.592872
0.850141
1.10709
1.36354
1.61934
1.87433
2.12838
2.38136
2.63312
2.88352
3.1324
3.37966
3.62517
3.8688
4.11044
4.34996
4.58726
4.82223
5.05478
5.28483
5.51229
5.73709
5.95916
6.17841
6.39476
6.60814
6.81845
7.02562
7.22956
7.43018
7.62741
7.82117
8.01137
8.19791
8.38072
8.55979
8.73512
8.90723
9.07491
9.24564
9.39715
-7.46446
-7.46418
-7.46381
-7.46382
-7.46498
-7.46769
-7.47177
-7.47683
-7.48256
-7.48862
-7.49474
-7.50064
-7.50613
-7.51099
-7.51508
-7.51825
-7.52041
-7.52149
-7.52147
-7.52032
-7.51805
-7.51474
-7.51048
-7.50535
-7.49945
-7.49292
-7.48595
-7.47884
-7.47194
-7.46563
-7.46017
-7.45577
-7.4527
-7.45147
-7.45281
-7.45689
-7.46253
-7.46764
-7.47079
-7.47166
-7.47091
-7.47021
-7.47112
-7.4744
-7.48053
-7.49025
-7.50441
-7.52371
-7.54824
-7.57767
-7.61154
-7.64956
-7.69151
-7.73715
-7.78621
-7.8383
-7.89288
-7.94919
-8.00637
-8.06363
-8.12022
-8.17552
-8.22901
-8.28021
-8.32877
-8.37442
-8.41699
-8.4563
-8.49226
-8.52477
-8.55375
-8.57913
-8.60084
-8.61882
-8.633
-8.64333
-8.64975
-8.6522
-8.65061
-8.64494
-8.63511
-8.62108
-8.60277
-8.58014
-8.55315
-8.52174
-8.48584
-8.44536
-8.40019
-8.35024
-8.29546
-8.23581
-8.17124
-8.10169
-8.02706
-7.94724
-7.8621
-7.77152
-7.67537
-7.57357
-7.46609
-7.35291
-7.23395
-7.10915
-6.97846
-6.84184
-6.69929
-6.55078
-6.39635
-6.23603
-6.06987
-5.89794
-5.72033
-5.53715
-5.34852
-5.15459
-4.9555
-4.75143
-4.54256
-4.32911
-4.11126
-3.88924
-3.66327
-3.4336
-3.20044
-2.96405
-2.72467
-2.48256
-2.23796
-1.99111
-1.74222
-1.49151
-1.23919
-0.985531
-0.730777
-0.475154
-0.218863
0.0378762
0.29489
0.552007
0.809018
1.06574
1.32199
1.57762
1.83247
2.08641
2.3393
2.59098
2.84132
3.09017
3.33741
3.58293
3.8266
4.06829
4.30789
4.54528
4.78035
5.01302
5.24319
5.47079
5.69572
5.91792
6.13731
6.35381
6.56732
6.77777
6.98506
7.18911
7.38984
7.58717
7.78101
7.9713
8.15796
8.34093
8.52021
8.69576
8.86824
9.03587
9.20733
9.35261
-7.46675
-7.46616
-7.46577
-7.46718
-7.47142
-7.47774
-7.48507
-7.49273
-7.50022
-7.50724
-7.51363
-7.51933
-7.52427
-7.52841
-7.53165
-7.53392
-7.53515
-7.53529
-7.53433
-7.53223
-7.52901
-7.5247
-7.51935
-7.51302
-7.50577
-7.49766
-7.48881
-7.47941
-7.46982
-7.46055
-7.4522
-7.44561
-7.44176
-7.44157
-7.44486
-7.44971
-7.45442
-7.45829
-7.46123
-7.46371
-7.46658
-7.47098
-7.47795
-7.48843
-7.50324
-7.52265
-7.54625
-7.57349
-7.60413
-7.63782
-7.67431
-7.71355
-7.75547
-7.79996
-7.84682
-7.89568
-7.94612
-7.99762
-8.04959
-8.10148
-8.15278
-8.20301
-8.25176
-8.29866
-8.3434
-8.38574
-8.42545
-8.46235
-8.49629
-8.52713
-8.55475
-8.57902
-8.59985
-8.61713
-8.63078
-8.64071
-8.64684
-8.6491
-8.64741
-8.64172
-8.63194
-8.61802
-8.59989
-8.57749
-8.55078
-8.5197
-8.48419
-8.44415
-8.39951
-8.35012
-8.29598
-8.23702
-8.17319
-8.10442
-8.03058
-7.95159
-7.86728
-7.77758
-7.68235
-7.58154
-7.47506
-7.36289
-7.24493
-7.12114
-6.99145
-6.85585
-6.71428
-6.56677
-6.41331
-6.25395
-6.08873
-5.91773
-5.74102
-5.55871
-5.37094
-5.17782
-4.97953
-4.77622
-4.56811
-4.35536
-4.13821
-3.91684
-3.69151
-3.46243
-3.22987
-2.99403
-2.75519
-2.51359
-2.26948
-2.02308
-1.77462
-1.5243
-1.27239
-1.0191
-0.764708
-0.509418
-0.253448
0.00300976
0.259766
0.516636
0.77342
1.02993
1.286
1.54147
1.79619
2.05002
2.30281
2.55441
2.80467
3.05347
3.30069
3.5462
3.78988
4.0316
4.27124
4.50868
4.74383
4.97659
5.20686
5.43456
5.65961
5.88193
6.10144
6.31806
6.5317
6.74226
6.94968
7.15386
7.35471
7.55217
7.74615
7.93657
8.12336
8.30648
8.4859
8.66152
8.83396
9.00092
9.17186
9.31035
-7.47102
-7.47011
-7.47063
-7.47513
-7.48262
-7.49114
-7.49977
-7.50803
-7.51562
-7.52245
-7.52854
-7.53385
-7.53835
-7.54196
-7.5446
-7.54623
-7.54678
-7.54622
-7.54454
-7.54172
-7.53777
-7.53272
-7.52659
-7.51937
-7.51106
-7.50178
-7.49167
-7.48092
-7.46992
-7.45937
-7.4501
-7.44337
-7.44018
-7.44027
-7.44212
-7.4446
-7.44766
-7.45171
-7.45704
-7.46363
-7.47178
-7.48275
-7.49752
-7.51622
-7.53856
-7.56416
-7.59273
-7.6239
-7.65744
-7.69316
-7.73091
-7.77062
-7.81218
-7.85544
-7.90021
-7.94625
-7.99323
-8.0408
-8.0886
-8.13623
-8.18333
-8.22955
-8.27456
-8.31804
-8.35972
-8.39935
-8.43671
-8.4716
-8.50382
-8.53321
-8.55962
-8.58289
-8.60289
-8.61949
-8.63259
-8.64208
-8.64786
-8.64985
-8.64798
-8.64216
-8.63232
-8.6184
-8.60033
-8.57805
-8.55151
-8.52065
-8.48542
-8.44573
-8.40146
-8.35257
-8.29894
-8.24057
-8.17737
-8.10925
-8.03611
-7.9578
-7.87423
-7.78528
-7.69085
-7.59086
-7.48523
-7.37389
-7.25676
-7.13379
-7.00491
-6.87009
-6.72931
-6.58256
-6.42984
-6.2712
-6.10667
-5.93633
-5.76027
-5.57858
-5.39138
-5.19883
-5.00108
-4.79829
-4.59066
-4.37838
-4.16166
-3.94072
-3.7158
-3.48711
-3.25491
-3.01944
-2.78095
-2.53969
-2.2959
-2.0498
-1.80162
-1.55158
-1.29995
-1.04695
-0.792819
-0.537784
-0.282051
-0.0258164
0.230723
0.487381
0.743962
1.00028
1.25618
1.5115
1.76608
2.01979
2.27246
2.52395
2.77412
3.02285
3.27001
3.51547
3.75912
4.00082
4.24046
4.47791
4.71308
4.94587
5.17618
5.40394
5.62905
5.85145
6.07103
6.28773
6.50146
6.71211
6.91962
7.12389
7.32484
7.52239
7.71646
7.90697
8.09385
8.27701
8.45644
8.63193
8.80406
8.97005
9.1402
9.27212
-7.47633
-7.47587
-7.47863
-7.4859
-7.49474
-7.50354
-7.51191
-7.51972
-7.52691
-7.53343
-7.53925
-7.54428
-7.54845
-7.55169
-7.55393
-7.55512
-7.55522
-7.5542
-7.55205
-7.54876
-7.54435
-7.53884
-7.53215
-7.52424
-7.51522
-7.5053
-7.49469
-7.48367
-7.47273
-7.46267
-7.45463
-7.44936
-7.44626
-7.44439
-7.44378
-7.44492
-7.44843
-7.45422
-7.4622
-7.47301
-7.48723
-7.50485
-7.52565
-7.54943
-7.57594
-7.60486
-7.63597
-7.6691
-7.7041
-7.74079
-7.77901
-7.81862
-7.85951
-7.90153
-7.94452
-7.98831
-8.03268
-8.07738
-8.12215
-8.16673
-8.21081
-8.25413
-8.29641
-8.33737
-8.37677
-8.41436
-8.44992
-8.48323
-8.5141
-8.54232
-8.56772
-8.59013
-8.6094
-8.62539
-8.63795
-8.64699
-8.65239
-8.65406
-8.65192
-8.64589
-8.6359
-8.62188
-8.60377
-8.5815
-8.55502
-8.52428
-8.48922
-8.44976
-8.40581
-8.35725
-8.30406
-8.24617
-8.18349
-8.11592
-8.04334
-7.96562
-7.88268
-7.79436
-7.7006
-7.60128
-7.49634
-7.38566
-7.26921
-7.14687
-7.01862
-6.8844
-6.7442
-6.598
-6.44581
-6.28766
-6.1236
-5.9537
-5.77803
-5.59672
-5.40988
-5.21766
-5.0202
-4.8177
-4.61031
-4.39829
-4.18178
-3.96107
-3.73634
-3.50786
-3.27584
-3.04056
-2.80226
-2.56119
-2.31757
-2.07164
-1.82362
-1.57377
-1.32232
-1.06952
-0.815583
-0.560746
-0.305198
-0.0491512
0.207202
0.463673
0.720069
0.976217
1.23195
1.48712
1.74156
1.99512
2.24765
2.49901
2.74907
2.99769
3.24476
3.49015
3.73374
3.97538
4.21496
4.45238
4.68751
4.92028
5.15059
5.37834
5.60347
5.8259
6.04553
6.26227
6.47603
6.68673
6.89428
7.0986
7.29959
7.49719
7.69131
7.88185
8.06875
8.25188
8.43121
8.60646
8.77813
8.94305
9.11244
9.23826
-7.48046
-7.48129
-7.48673
-7.49507
-7.50358
-7.51174
-7.51953
-7.52692
-7.53381
-7.54011
-7.54573
-7.55057
-7.55454
-7.55756
-7.55958
-7.56054
-7.56039
-7.55913
-7.55674
-7.55323
-7.54861
-7.5428
-7.53571
-7.52753
-7.51849
-7.50873
-7.4985
-7.48824
-7.47871
-7.47065
-7.46433
-7.45912
-7.45451
-7.45121
-7.45015
-7.45167
-7.45622
-7.46431
-7.47598
-7.49109
-7.50938
-7.53064
-7.55461
-7.58103
-7.60968
-7.64034
-7.67283
-7.70697
-7.7426
-7.77957
-7.81774
-7.85699
-7.89719
-7.93822
-7.97993
-8.02218
-8.0648
-8.10761
-8.1504
-8.19295
-8.23502
-8.27639
-8.31681
-8.35605
-8.39386
-8.43002
-8.4643
-8.49648
-8.52635
-8.55369
-8.57831
-8.60004
-8.61869
-8.63413
-8.64619
-8.65478
-8.65976
-8.66107
-8.6586
-8.65229
-8.64207
-8.62787
-8.60962
-8.58726
-8.56074
-8.53002
-8.49504
-8.45572
-8.41195
-8.3637
-8.31083
-8.25332
-8.19106
-8.12394
-8.05182
-7.97461
-7.89216
-7.80439
-7.71117
-7.61241
-7.508
-7.39787
-7.28191
-7.16007
-7.03229
-6.89851
-6.75871
-6.61288
-6.46103
-6.30318
-6.13939
-5.96973
-5.79427
-5.61314
-5.42645
-5.23434
-5.03699
-4.83457
-4.62726
-4.41528
-4.19883
-3.97815
-3.75345
-3.525
-3.29302
-3.05779
-2.81954
-2.57853
-2.33496
-2.08909
-1.84115
-1.5914
-1.34007
-1.0874
-0.833604
-0.578908
-0.32351
-0.0676217
0.188567
0.444865
0.70109
0.957071
1.21265
1.46765
1.72194
1.97535
2.22773
2.47894
2.72886
2.97735
3.22431
3.4696
3.71308
3.95463
4.19412
4.43144
4.66651
4.89921
5.12947
5.3572
5.58231
5.80473
6.02436
6.2411
6.45487
6.66558
6.87313
7.07746
7.27847
7.47609
7.67022
7.86077
8.04764
8.2307
8.40987
8.58479
8.75594
8.9198
9.0885
9.20885
-7.48173
-7.48425
-7.49125
-7.49928
-7.5071
-7.51474
-7.52219
-7.52933
-7.53605
-7.54225
-7.5478
-7.55259
-7.55652
-7.55951
-7.56149
-7.56243
-7.56228
-7.56101
-7.55863
-7.55512
-7.55045
-7.54454
-7.5375
-7.52959
-7.521
-7.51197
-7.50293
-7.49439
-7.48672
-7.47989
-7.47366
-7.46791
-7.46303
-7.46003
-7.45979
-7.46287
-7.46962
-7.48011
-7.49404
-7.51126
-7.53148
-7.55444
-7.5799
-7.60758
-7.63727
-7.66878
-7.7019
-7.73648
-7.77235
-7.80937
-7.84742
-7.88638
-7.92612
-7.96651
-8.00744
-8.04877
-8.09036
-8.13205
-8.17366
-8.215
-8.25588
-8.29608
-8.33539
-8.37358
-8.41043
-8.44571
-8.4792
-8.51066
-8.53987
-8.5666
-8.59066
-8.61185
-8.63
-8.64495
-8.65655
-8.66468
-8.66923
-8.67011
-8.66726
-8.6606
-8.65006
-8.63559
-8.61711
-8.59457
-8.56792
-8.53713
-8.50214
-8.46288
-8.41928
-8.37119
-8.3186
-8.26139
-8.19945
-8.13269
-8.06096
-7.98416
-7.90213
-7.81481
-7.72202
-7.62371
-7.51972
-7.41
-7.29442
-7.17296
-7.04549
-6.91201
-6.77246
-6.62686
-6.47519
-6.31749
-6.15381
-5.98422
-5.80881
-5.62768
-5.44098
-5.24883
-5.05142
-4.84891
-4.64153
-4.42943
-4.21289
-3.99209
-3.76731
-3.53875
-3.30671
-3.0714
-2.83311
-2.59204
-2.34845
-2.10256
-1.85464
-1.60493
-1.35368
-1.10108
-0.847389
-0.592799
-0.337532
-0.0817843
0.174249
0.430383
0.68644
0.942253
1.19766
1.4525
1.70661
1.95985
2.21205
2.46309
2.71284
2.96118
3.208
3.45317
3.69652
3.93794
4.1773
4.41451
4.64946
4.88207
5.11225
5.33991
5.56498
5.78737
6.00698
6.2237
6.43745
6.64813
6.85567
7.05998
7.26098
7.4586
7.65273
7.84325
8.03006
8.21301
8.39197
8.56653
8.73714
8.89997
9.06805
9.18363
-7.4786
-7.48251
-7.48968
-7.49715
-7.50463
-7.51208
-7.51941
-7.52652
-7.53328
-7.53957
-7.54524
-7.55019
-7.5543
-7.55748
-7.55965
-7.56077
-7.56078
-7.55967
-7.55741
-7.554
-7.54941
-7.54371
-7.53706
-7.52976
-7.52207
-7.5143
-7.5067
-7.49934
-7.49227
-7.4856
-7.47944
-7.47417
-7.47042
-7.46896
-7.47037
-7.47504
-7.48319
-7.49485
-7.50987
-7.52805
-7.54915
-7.5729
-7.59901
-7.62726
-7.65743
-7.68931
-7.72273
-7.75751
-7.79352
-7.8306
-7.86864
-7.9075
-7.94705
-7.98719
-8.0278
-8.06875
-8.1099
-8.15111
-8.19221
-8.23303
-8.27339
-8.31308
-8.3519
-8.38964
-8.42606
-8.46095
-8.49407
-8.52516
-8.554
-8.58035
-8.60401
-8.62478
-8.64248
-8.65696
-8.66808
-8.67572
-8.67978
-8.68021
-8.67691
-8.66984
-8.65893
-8.64412
-8.62534
-8.60255
-8.5757
-8.54476
-8.50971
-8.47047
-8.42691
-8.37901
-8.32659
-8.2696
-8.20794
-8.14146
-8.07005
-7.99357
-7.91191
-7.82492
-7.7325
-7.63452
-7.53088
-7.42146
-7.30619
-7.18496
-7.05773
-6.92442
-6.78502
-6.63951
-6.4879
-6.33023
-6.16653
-5.99688
-5.82138
-5.64013
-5.45328
-5.26097
-5.06337
-4.86067
-4.65306
-4.44076
-4.224
-4.003
-3.77801
-3.54927
-3.31706
-3.08162
-2.84319
-2.60201
-2.35833
-2.11237
-1.86442
-1.61473
-1.36351
-1.11097
-0.85735
-0.602857
-0.347709
-0.0920988
0.16378
0.41975
0.675635
0.931273
1.1865
1.44115
1.69506
1.9481
2.2001
2.45094
2.7005
2.94866
3.19532
3.44034
3.68354
3.92479
4.16399
4.40104
4.63585
4.86833
5.0984
5.32597
5.55097
5.77331
5.99289
6.20956
6.42325
6.63389
6.84139
7.04567
7.24665
7.44424
7.63836
7.82884
8.01557
8.19837
8.37709
8.55127
8.72132
8.88318
9.05067
9.16222
-7.46912
-7.47369
-7.48055
-7.48799
-7.49566
-7.50329
-7.5108
-7.51811
-7.52513
-7.53171
-7.53771
-7.543
-7.54744
-7.55092
-7.55338
-7.55476
-7.55502
-7.55413
-7.5521
-7.54895
-7.54474
-7.5396
-7.53373
-7.52734
-7.52057
-7.51357
-7.5065
-7.49949
-7.49265
-7.48627
-7.48076
-7.47658
-7.47416
-7.47405
-7.47674
-7.48256
-7.49169
-7.50417
-7.51988
-7.53864
-7.56022
-7.58434
-7.61078
-7.6393
-7.66972
-7.70182
-7.73545
-7.77043
-7.80663
-7.84389
-7.88207
-7.92106
-7.96074
-8.001
-8.0417
-8.08273
-8.12395
-8.16522
-8.20637
-8.24725
-8.28766
-8.3274
-8.36625
-8.40399
-8.4404
-8.47524
-8.50828
-8.53925
-8.56793
-8.59406
-8.61744
-8.63787
-8.65516
-8.66918
-8.67979
-8.68689
-8.69043
-8.69032
-8.68652
-8.67897
-8.66762
-8.65241
-8.63327
-8.61015
-8.58302
-8.55189
-8.51672
-8.47744
-8.43396
-8.3861
-8.33385
-8.27704
-8.21558
-8.14933
-8.07819
-8.00199
-7.92064
-7.83393
-7.74182
-7.64411
-7.54074
-7.43156
-7.31651
-7.19546
-7.06837
-6.93515
-6.79581
-6.65031
-6.49867
-6.34092
-6.17711
-6.00732
-5.83163
-5.65018
-5.46308
-5.27052
-5.07264
-4.86967
-4.66176
-4.44919
-4.23213
-4.01088
-3.78562
-3.55667
-3.32424
-3.08862
-2.85002
-2.6087
-2.36488
-2.11885
-1.87086
-1.62117
-1.36997
-1.11748
-0.863928
-0.609544
-0.354523
-0.0990662
0.156646
0.412436
0.668134
0.923574
1.1786
1.43303
1.68673
1.93953
2.19131
2.44193
2.69127
2.93922
3.18572
3.43057
3.67357
3.91462
4.15362
4.39049
4.62513
4.85746
5.0874
5.31486
5.53977
5.76207
5.98159
6.19819
6.41182
6.6224
6.82984
7.03408
7.23503
7.4326
7.62669
7.81713
8.00375
8.18639
8.36486
8.53864
8.70814
8.8691
9.03599
9.14426
-7.4517
-7.45626
-7.46328
-7.47149
-7.47986
-7.48797
-7.49584
-7.5035
-7.51093
-7.51799
-7.5245
-7.53026
-7.53513
-7.539
-7.54185
-7.54359
-7.54422
-7.54373
-7.54214
-7.53949
-7.53587
-7.53137
-7.52614
-7.52031
-7.51401
-7.50739
-7.50057
-7.49378
-7.48731
-7.48153
-7.47676
-7.47342
-7.47198
-7.47294
-7.47667
-7.48345
-7.49343
-7.50661
-7.52289
-7.54208
-7.56398
-7.58836
-7.61502
-7.64375
-7.67438
-7.70672
-7.7406
-7.77587
-7.81235
-7.84993
-7.88847
-7.92786
-7.96798
-8.0087
-8.04988
-8.09139
-8.13309
-8.17483
-8.21646
-8.2578
-8.29865
-8.33881
-8.37807
-8.41618
-8.45291
-8.488
-8.52121
-8.55227
-8.58094
-8.60695
-8.63009
-8.65017
-8.66703
-8.68053
-8.69054
-8.697
-8.69987
-8.69911
-8.69471
-8.68661
-8.67477
-8.65911
-8.63954
-8.61601
-8.58853
-8.55714
-8.52185
-8.48256
-8.43908
-8.39137
-8.33922
-8.28257
-8.22128
-8.15526
-8.08436
-8.00844
-7.92734
-7.84092
-7.74905
-7.6516
-7.54845
-7.43949
-7.32461
-7.2037
-7.0767
-6.94354
-6.8042
-6.65866
-6.50695
-6.34908
-6.18511
-6.01512
-5.83921
-5.65749
-5.4701
-5.27723
-5.07904
-4.87575
-4.66754
-4.45465
-4.23732
-4.01578
-3.79028
-3.5611
-3.32846
-3.09265
-2.85388
-2.6124
-2.36845
-2.12233
-1.87431
-1.62463
-1.37345
-1.12103
-0.867568
-0.613309
-0.358439
-0.103154
0.152372
0.407961
0.66345
0.918667
1.17346
1.42765
1.68109
1.93364
2.18517
2.43553
2.68462
2.93234
3.17868
3.42338
3.66615
3.90696
4.14574
4.38239
4.61684
4.84899
5.07878
5.30611
5.53093
5.75318
5.97264
6.18917
6.40271
6.61321
6.82059
7.02478
7.22569
7.42324
7.61732
7.8077
7.99422
8.17667
8.35488
8.52826
8.69724
8.85736
9.02364
9.12934
-7.42592
-7.43032
-7.43826
-7.44788
-7.45724
-7.46593
-7.47423
-7.48242
-7.49055
-7.49838
-7.50563
-7.51203
-7.51744
-7.52182
-7.52514
-7.52737
-7.52851
-7.52854
-7.52749
-7.52538
-7.52228
-7.51829
-7.51349
-7.508
-7.50194
-7.49549
-7.48888
-7.4824
-7.4763
-7.47094
-7.46672
-7.46411
-7.46353
-7.46541
-7.47006
-7.47771
-7.48844
-7.50223
-7.51897
-7.53851
-7.56067
-7.58527
-7.61213
-7.64109
-7.67198
-7.70464
-7.73889
-7.77456
-7.8115
-7.84957
-7.88866
-7.92865
-7.9694
-8.0108
-8.0527
-8.09496
-8.13745
-8.18001
-8.22245
-8.26457
-8.30618
-8.34707
-8.38702
-8.42575
-8.46303
-8.49859
-8.53215
-8.56342
-8.5921
-8.61792
-8.64067
-8.66021
-8.67643
-8.6892
-8.69838
-8.70397
-8.70602
-8.70453
-8.69947
-8.69082
-8.67852
-8.66244
-8.64245
-8.61849
-8.5906
-8.55892
-8.52352
-8.48423
-8.44088
-8.39324
-8.34124
-8.28474
-8.22363
-8.15786
-8.08722
-8.01161
-7.93077
-7.84464
-7.75301
-7.65582
-7.5529
-7.44417
-7.32945
-7.2087
-7.08178
-6.94867
-6.80932
-6.66375
-6.51196
-6.35398
-6.18986
-6.01968
-5.84355
-5.66155
-5.47387
-5.28067
-5.0822
-4.87859
-4.67011
-4.45694
-4.23936
-4.01757
-3.79186
-3.56246
-3.32967
-3.09367
-2.85477
-2.61317
-2.36915
-2.12298
-1.87498
-1.62533
-1.37423
-1.1219
-0.868599
-0.614516
-0.359857
-0.104795
0.150489
0.405827
0.66105
0.915993
1.17049
1.42439
1.67753
1.92978
2.181
2.43107
2.67986
2.92733
3.17356
3.41818
3.66072
3.90126
4.13978
4.37621
4.61045
4.84243
5.07206
5.29926
5.524
5.74624
5.96569
6.18212
6.39556
6.60598
6.8133
7.01744
7.21831
7.41585
7.60993
7.80026
7.98666
8.16893
8.34687
8.51986
8.68833
8.84767
9.0133
9.11713
-7.39299
-7.3977
-7.40716
-7.41858
-7.42906
-7.43847
-7.44755
-7.45646
-7.4653
-7.47405
-7.48237
-7.48976
-7.49587
-7.50072
-7.50452
-7.50729
-7.50897
-7.50954
-7.509
-7.50735
-7.50466
-7.50098
-7.4964
-7.49104
-7.4851
-7.47876
-7.47226
-7.46589
-7.46
-7.45499
-7.45129
-7.44933
-7.44951
-7.45219
-7.45762
-7.46597
-7.47728
-7.49153
-7.50864
-7.52848
-7.5509
-7.57573
-7.60282
-7.63203
-7.6632
-7.69618
-7.73079
-7.76689
-7.80433
-7.843
-7.88275
-7.92347
-7.96501
-8.00725
-8.05006
-8.0933
-8.13679
-8.18037
-8.22384
-8.26697
-8.30955
-8.35133
-8.39206
-8.43148
-8.46932
-8.50529
-8.53908
-8.57039
-8.59887
-8.6242
-8.64623
-8.66491
-8.68022
-8.69198
-8.69999
-8.7044
-8.70547
-8.70326
-8.69767
-8.68867
-8.67615
-8.6599
-8.63973
-8.61548
-8.58722
-8.55525
-8.51972
-8.48047
-8.43719
-8.38969
-8.33776
-8.28136
-8.22045
-8.1549
-8.08457
-8.00922
-7.92866
-7.84275
-7.75137
-7.6544
-7.55172
-7.4432
-7.32869
-7.20806
-7.08123
-6.94814
-6.8088
-6.66319
-6.51133
-6.35325
-6.189
-6.01864
-5.84227
-5.66006
-5.47214
-5.27872
-5.07998
-4.87613
-4.66739
-4.45396
-4.23611
-4.01406
-3.7881
-3.55848
-3.32547
-3.08931
-2.85029
-2.60868
-2.36477
-2.11879
-1.87095
-1.62145
-1.37053
-1.11844
-0.865423
-0.611654
-0.357336
-0.102637
0.152265
0.407206
0.662014
0.916526
1.17058
1.42401
1.67669
1.92847
2.17922
2.42882
2.67714
2.92415
3.17011
3.41454
3.65679
3.897
4.13523
4.3714
4.60541
4.83719
5.06665
5.29372
5.5184
5.74075
5.96026
6.17661
6.38996
6.60031
6.80757
7.01168
7.21253
7.4101
7.60422
7.79453
7.98082
8.1629
8.34058
8.51319
8.68117
8.8398
9.00472
9.10734
-7.35588
-7.36149
-7.37301
-7.38664
-7.39828
-7.40799
-7.41749
-7.42746
-7.43759
-7.4475
-7.45689
-7.4653
-7.4722
-7.47757
-7.48182
-7.48509
-7.48729
-7.48833
-7.48819
-7.48687
-7.4844
-7.48085
-7.47632
-7.47096
-7.46493
-7.45848
-7.4519
-7.44554
-7.43978
-7.43505
-7.43176
-7.43032
-7.43107
-7.43431
-7.44025
-7.44903
-7.46067
-7.47518
-7.49249
-7.51248
-7.53503
-7.55999
-7.58724
-7.61665
-7.64805
-7.6813
-7.71623
-7.75273
-7.79068
-7.82994
-7.87038
-7.91189
-7.95432
-7.99753
-8.04137
-8.08569
-8.13026
-8.1749
-8.21936
-8.26341
-8.30681
-8.34929
-8.39059
-8.43043
-8.46854
-8.50461
-8.53831
-8.56932
-8.59719
-8.62149
-8.64223
-8.65965
-8.67381
-8.68435
-8.69074
-8.69337
-8.69314
-8.69015
-8.68423
-8.6752
-8.66283
-8.64685
-8.62702
-8.60329
-8.5758
-8.54457
-8.50954
-8.47054
-8.42741
-8.37992
-8.32807
-8.27175
-8.21099
-8.1456
-8.07547
-8.00029
-7.91993
-7.83416
-7.74296
-7.64614
-7.54364
-7.43524
-7.32086
-7.20029
-7.07349
-6.94039
-6.801
-6.6553
-6.50333
-6.3451
-6.18065
-6.01006
-5.83344
-5.65097
-5.4628
-5.26913
-5.0701
-4.86598
-4.65694
-4.44325
-4.22508
-4.00276
-3.77652
-3.54667
-3.31343
-3.07712
-2.83799
-2.59641
-2.35261
-2.10684
-1.85918
-1.60987
-1.35919
-1.10741
-0.854724
-0.601341
-0.347434
-0.0931827
0.16125
0.415692
0.669981
0.923948
1.17744
1.43029
1.68237
1.93353
2.18364
2.43257
2.68016
2.92634
3.17099
3.4141
3.65555
3.89522
4.13299
4.36874
4.60238
4.83381
5.06293
5.28968
5.51414
5.73646
5.95599
6.17222
6.38547
6.59576
6.80298
7.00707
7.20793
7.40561
7.59989
7.79024
7.97642
8.15835
8.33578
8.50804
8.67557
8.83353
8.99772
9.09976
-7.31824
-7.32509
-7.33912
-7.35469
-7.36665
-7.37683
-7.38743
-7.39857
-7.40979
-7.42077
-7.43121
-7.44057
-7.44825
-7.45424
-7.45904
-7.46285
-7.46553
-7.46697
-7.46713
-7.46598
-7.46357
-7.45995
-7.45524
-7.44961
-7.44327
-7.43651
-7.42965
-7.42309
-7.41723
-7.41249
-7.40926
-7.40792
-7.40877
-7.41211
-7.4181
-7.42687
-7.43846
-7.45288
-7.47007
-7.48994
-7.5124
-7.53734
-7.56466
-7.59419
-7.6258
-7.6593
-7.69459
-7.73153
-7.77002
-7.80992
-7.85109
-7.89339
-7.93665
-7.98074
-8.02548
-8.07068
-8.11611
-8.16153
-8.20669
-8.25134
-8.29521
-8.33804
-8.37954
-8.41944
-8.45745
-8.49329
-8.52664
-8.55708
-8.58392
-8.60632
-8.62456
-8.63977
-8.65252
-8.66263
-8.66954
-8.67289
-8.67276
-8.66943
-8.66316
-8.65389
-8.64139
-8.62536
-8.60563
-8.5823
-8.55552
-8.52498
-8.49038
-8.45157
-8.40848
-8.36114
-8.30941
-8.25331
-8.19273
-8.12757
-8.05762
-7.98267
-7.90251
-7.81702
-7.72606
-7.62953
-7.52725
-7.41909
-7.30488
-7.18449
-7.05782
-6.92483
-6.78552
-6.63987
-6.48789
-6.32962
-6.1651
-5.9944
-5.81765
-5.635
-5.44663
-5.25273