/*--------------------------------*- C++ -*----------------------------------*\
  =========                 |
  \\      /  F ield         | OpenFOAM: The Open Source CFD Toolbox
   \\    /   O peration     | Website:  https://openfoam.org
    \\  /    A nd           | Version:  8
     \\/     M anipulation  |
\*---------------------------------------------------------------------------*/
FoamFile
{
    version     2.0;
    format      ascii;
    class       volScalarField;
    location    "2300";
    object      nut;
}
// * * * * * * * * * * * * * * * * * * * * * * * * * * * * * * * * * * * * * //

dimensions      [0 2 -1 0 0 0 0];

internalField   nonuniform List<scalar> 
12225
(
0.0122671
0.00158819
0.000666129
0.000410105
0.000294025
0.00022806
0.000183261
0.000170805
0.000132697
0.000106844
9.46735e-05
8.80085e-05
7.89856e-05
7.2233e-05
6.77318e-05
6.4507e-05
6.12104e-05
6.46338e-05
0.0323823
0.00744532
0.00330638
0.00204329
0.00146801
0.0011445
0.000936338
0.000799975
0.00067951
0.000577234
0.000506286
0.000452432
0.00041054
0.000378806
0.000350182
0.000327767
0.000311172
0.000292818
0.0490123
0.01515
0.00728196
0.00457854
0.00330639
0.00258054
0.00211233
0.00178913
0.00154181
0.00134762
0.00119772
0.0010787
0.000982056
0.000902481
0.000835978
0.000780909
0.000735546
0.00068717
0.063054
0.0237783
0.0122894
0.00788814
0.00573397
0.00448498
0.00367412
0.00310733
0.00268471
0.00235805
0.00210111
0.00189458
0.00172531
0.00158451
0.00146613
0.00136604
0.00128146
0.00119789
0.074932
0.0328517
0.0181452
0.0119262
0.00874548
0.00686412
0.0056308
0.00476254
0.00411748
0.00362029
0.00322731
0.00290992
0.00264899
0.00243143
0.00224799
0.00209188
0.00195826
0.00183626
0.0849536
0.0420208
0.0246655
0.0166359
0.0123325
0.00972587
0.00799539
0.00676785
0.00585345
0.00514769
0.00458844
0.00413587
0.00376334
0.00345239
0.00318983
0.00296596
0.0027736
0.00260471
0.0933822
0.0510219
0.0316642
0.0219415
0.016474
0.0130717
0.0107778
0.00913551
0.0079057
0.0069534
0.0061969
0.00558367
0.00507837
0.00465632
0.00429976
0.00399561
0.00373414
0.00350818
0.0993794
0.0583363
0.0378386
0.0268568
0.0204171
0.0163053
0.0134891
0.011453
0.00991891
0.00872629
0.00777635
0.00700497
0.00636866
0.00583685
0.0053874
0.00500398
0.00467452
0.00439126
0.104023
0.0645454
0.0433804
0.0314239
0.0241571
0.0194092
0.0161097
0.0137018
0.0118766
0.0104521
0.00931443
0.00838904
0.00762485
0.00698574
0.00644544
0.00598449
0.00558858
0.00524877
0.108368
0.0708939
0.0493756
0.0365496
0.0284517
0.0230231
0.0191863
0.0163547
0.0141926
0.0124968
0.011138
0.0100303
0.00911434
0.00834759
0.0076991
0.00714579
0.00667068
0.00626298
0.112368
0.0772557
0.0557282
0.0421918
0.0332976
0.0271652
0.0227467
0.0194432
0.0168984
0.0148903
0.0132749
0.0119544
0.0108605
0.00994379
0.00916796
0.00850586
0.00793736
0.00744915
0.115994
0.0834975
0.0623053
0.0482611
0.0386474
0.0318167
0.026789
0.0229739
0.0200046
0.0176452
0.0157378
0.0141736
0.0128749
0.011785
0.0108618
0.0100736
0.00939671
0.00881464
0.119234
0.0894856
0.0689377
0.0546109
0.0443919
0.0369007
0.0312597
0.0269088
0.0234836
0.02074
0.0185096
0.0166735
0.0151449
0.01386
0.0127704
0.0118396
0.0110397
0.0103508
0.122086
0.095084
0.075415
0.0610223
0.0503361
0.0422534
0.0360231
0.0311353
0.0272402
0.024093
0.021519
0.0193909
0.017614
0.0161174
0.0148466
0.01376
0.0128257
0.0120196
0.124546
0.100135
0.0814619
0.0671725
0.056158
0.047577
0.0408126
0.0354174
0.031066
0.0275196
0.0246012
0.0221777
0.0201481
0.0184349
0.0169782
0.0157314
0.0146583
0.0137311
0.126578
0.104396
0.0866605
0.0725515
0.0613228
0.0523526
0.0451453
0.0393148
0.0345631
0.0306611
0.0274325
0.0247409
0.0224806
0.020569
0.0189413
0.0175468
0.0163454
0.0153061
0.128011
0.107322
0.0902141
0.0762353
0.0648743
0.0556509
0.0481493
0.0420254
0.0370012
0.0328553
0.0294126
0.0265352
0.0241143
0.0220643
0.0203172
0.0188191
0.0175275
0.0164083
0.128006
0.107313
0.0902048
0.0762269
0.0648674
0.0556454
0.048145
0.0420222
0.0369988
0.0328537
0.0294117
0.0265349
0.0241147
0.0220652
0.0203185
0.0188206
0.0175287
0.0164083
0.126509
0.104255
0.0864922
0.0723807
0.0611613
0.052205
0.0450128
0.0391967
0.0344584
0.0305686
0.0273506
0.0246684
0.0224163
0.0205118
0.0188903
0.0175006
0.0163024
0.0152631
0.124267
0.0995604
0.0807712
0.0664676
0.0554886
0.0469631
0.0402594
0.0349228
0.0306248
0.0271258
0.0242488
0.0218611
0.0198626
0.0181762
0.0167426
0.0155152
0.0144575
0.0135405
0.12136
0.0936399
0.0737261
0.0593348
0.0487592
0.0408249
0.0347467
0.0300003
0.0262308
0.0231928
0.0207127
0.018665
0.0169572
0.0155198
0.0142999
0.0132567
0.0123583
0.0115798
0.117686
0.0865903
0.0656967
0.0514791
0.0415374
0.0343608
0.0290184
0.0249322
0.0217348
0.0191848
0.0171184
0.0154211
0.0140106
0.0128263
0.0118229
0.0109657
0.010228
0.00958895
0.11305
0.0784122
0.056921
0.0432687
0.0342296
0.0279652
0.0234365
0.0200435
0.0174263
0.0153597
0.0136966
0.0123369
0.0112106
0.010267
0.00946866
0.00878719
0.00820102
0.00769347
0.107169
0.0691009
0.0476372
0.035029
0.0271566
0.021922
0.0182437
0.0155401
0.0134817
0.0118706
0.0105816
0.00953197
0.00866487
0.00793965
0.0073267
0.00680378
0.00635413
0.00596495
0.0996761
0.0587036
0.0381279
0.0270699
0.0205782
0.0164329
0.0135949
0.0115438
0.00999922
0.00879908
0.00784341
0.00706755
0.0064279
0.00589357
0.00544229
0.00505734
0.00472643
0.00444008
0.0901097
0.0473665
0.0287363
0.0196847
0.0146976
0.0116312
0.00957853
0.00811528
0.00702331
0.00617994
0.00551057
0.00496793
0.00452113
0.00414813
0.0038333
0.00356445
0.00333366
0.00313367
0.0779076
0.0353826
0.0198606
0.0131383
0.00966107
0.00759298
0.00623352
0.00527429
0.00456399
0.00401883
0.00358696
0.00323611
0.00294716
0.00270592
0.00250233
0.00232747
0.00217869
0.00204817
0.06238
0.0232554
0.0119461
0.00765493
0.00556337
0.00435256
0.00356724
0.00301639
0.00261307
0.00230794
0.00206655
0.00186719
0.00170218
0.00156416
0.00144769
0.00134441
0.0012608
0.00118219
0.0426105
0.0117794
0.0054693
0.00341385
0.00246071
0.00192006
0.00157275
0.00132885
0.00115942
0.00103848
0.000943994
0.000857685
0.000784587
0.00072151
0.000667762
0.000612319
0.000581062
0.000536615
0.0168348
0.00255985
0.00110002
0.000683428
0.000493724
0.000386804
0.000318219
0.00026631
0.000272591
0.000322006
0.000354515
0.000337161
0.000302488
0.0002618
0.000237263
0.000183811
0.00023452
0.000235735
3.99395e-09
5.91122e-07
2.00077e-06
6.28906e-06
1.08021e-05
1.35312e-05
1.32565e-05
1.17915e-05
9.06363e-06
5.94774e-06
3.52386e-06
2.0249e-06
1.40988e-06
1.5029e-06
2.06708e-06
2.56608e-06
2.45453e-06
2.06919e-06
2.54265e-06
8.67623e-06
9.02503e-06
5.55388e-06
6.75036e-06
2.65063e-05
5.675e-05
7.44228e-05
9.09769e-05
0.000104825
0.000117046
0.000127207
0.000136111
0.000143757
0.000150448
0.000156275
0.000161357
0.000165843
0.000169818
0.000173368
0.00017655
0.000179409
0.000181974
0.000184267
0.000186307
0.000188111
0.000189691
0.000191062
0.000192234
0.000193214
0.000194003
0.000194475
0.000194973
0.000195082
0.000195143
0.000195018
0.00019472
0.000194274
0.000193675
0.000192928
0.000192034
0.000190996
0.000189815
0.000188493
0.000187034
0.000185438
0.00018371
0.00018185
0.00017986
0.000177743
0.000175501
0.000173136
0.000170651
0.000168048
0.000165328
0.000162493
0.000159544
0.000156481
0.000153305
0.000150016
0.000146611
0.000143091
0.000139451
0.000135691
0.000131805
0.000127789
0.000123634
0.000119332
0.00011487
0.000110234
0.000105403
0.000100349
9.50449e-05
8.94691e-05
8.36142e-05
7.75427e-05
7.15316e-05
6.62499e-05
6.24907e-05
6.01491e-05
5.83966e-05
5.67907e-05
5.52145e-05
5.36461e-05
5.2084e-05
5.05296e-05
4.89849e-05
4.7452e-05
4.59335e-05
4.44356e-05
4.29863e-05
4.17494e-05
4.05454e-05
3.93556e-05
3.81831e-05
3.70285e-05
3.58926e-05
3.47763e-05
3.36804e-05
3.26056e-05
3.15525e-05
3.05214e-05
2.95129e-05
2.85273e-05
2.75653e-05
2.66274e-05
2.57134e-05
2.48234e-05
2.39585e-05
2.31464e-05
2.24121e-05
2.16965e-05
2.09958e-05
2.03185e-05
1.96691e-05
1.90342e-05
1.84132e-05
1.78093e-05
1.72233e-05
1.66556e-05
1.6106e-05
1.5574e-05
1.50593e-05
1.45614e-05
1.40798e-05
1.36142e-05
1.31642e-05
1.27294e-05
1.23093e-05
1.19036e-05
1.15118e-05
1.11337e-05
1.07688e-05
1.04168e-05
1.00774e-05
9.75023e-06
9.43497e-06
9.13135e-06
8.83908e-06
8.55794e-06
8.28768e-06
8.02809e-06
7.77898e-06
7.54018e-06
7.31151e-06
7.09279e-06
6.88381e-06
6.68432e-06
6.494e-06
6.31241e-06
6.13903e-06
5.97307e-06
5.81376e-06
5.65949e-06
5.50985e-06
5.35986e-06
5.21411e-06
5.04807e-06
4.89408e-06
4.64771e-06
4.4895e-06
3.59443e-06
1.68169e-07
6.14224e-06
6.38812e-05
0.000139684
0.000183238
0.000207003
0.000216377
0.000214884
0.000206538
0.000189835
0.000169043
0.000148908
0.000138495
0.00014371
0.00015768
0.000166604
0.000169022
0.000170205
0.000175608
0.000185309
0.000200064
0.000217503
0.000234337
0.00025084
0.000262141
0.000272044
0.00028086
0.000293704
0.000312801
0.000326748
0.000339491
0.000350415
0.000360345
0.000369443
0.000377344
0.000384557
0.000391272
0.000397714
0.000404013
0.000410237
0.000416379
0.000422397
0.000428239
0.000433864
0.000439243
0.00044436
0.0004492
0.000453751
0.000458013
0.000461987
0.000465712
0.000469154
0.000472351
0.000475293
0.000477984
0.000480426
0.000482619
0.000484564
0.000486262
0.000487713
0.000488917
0.000489876
0.000490592
0.000491068
0.000491317
0.000491341
0.000491137
0.0004907
0.000490048
0.000489182
0.00048811
0.000486838
0.000485373
0.000483721
0.00048189
0.000479887
0.000477719
0.000475393
0.000472918
0.0004703
0.000467548
0.000464669
0.000461671
0.000458564
0.000455355
0.000452051
0.000448662
0.000445197
0.000441662
0.000438065
0.000434413
0.00043071
0.000426958
0.000423148
0.000419261
0.000415271
0.000411162
0.000406962
0.000402721
0.000398465
0.0003942
0.00038993
0.00038566
0.000381393
0.000377131
0.000372879
0.00036864
0.000364414
0.000360204
0.000356005
0.000351829
0.000347681
0.000343562
0.000339475
0.00033542
0.000331399
0.000327415
0.000323468
0.000319561
0.000315693
0.000311866
0.000308081
0.000304339
0.000300641
0.000296988
0.000293379
0.000289815
0.000286294
0.000282815
0.000279381
0.00027599
0.00027265
0.000269364
0.000266113
0.000262899
0.000259726
0.000256597
0.000253513
0.000250474
0.00024748
0.000244529
0.000241623
0.000238759
0.000235938
0.000233158
0.00023042
0.000227722
0.000225065
0.000222447
0.000219869
0.00021733
0.00021483
0.000212368
0.000209945
0.000207561
0.000205215
0.000202909
0.000200643
0.000198417
0.000196233
0.000194093
0.000191997
0.000189948
0.000187946
0.000185995
0.000184096
0.000182249
0.000180455
0.000178713
0.000177022
0.000175376
0.000173777
0.000172199
0.000170684
0.000169074
0.000167751
0.000165619
0.000164903
0.000162096
0.000160723
7.68576e-07
4.45406e-05
0.000164287
0.000246521
0.000299855
0.000330177
0.000341215
0.000338347
0.000325515
0.000306241
0.000286466
0.000273744
0.000271485
0.000278166
0.000288523
0.000299353
0.000312115
0.000329069
0.000350668
0.00037583
0.00040322
0.000431576
0.000469788
0.000516176
0.000561831
0.000605987
0.00064909
0.000692763
0.000732104
0.000763395
0.000788405
0.00080823
0.000823946
0.000836415
0.00084642
0.000854736
0.000862066
0.000869053
0.000876234
0.000883965
0.000892354
0.000901277
0.000910495
0.000919772
0.00092893
0.000937849
0.000946453
0.000954695
0.000962537
0.000969952
0.000976918
0.000983404
0.000989408
0.000994924
0.000999948
0.00100448
0.00100852
0.00101207
0.00101513
0.00101769
0.00101976
0.00102133
0.00102242
0.00102296
0.00102312
0.00102283
0.00102204
0.0010208
0.00101911
0.00101699
0.00101446
0.00101151
0.00100817
0.00100446
0.00100038
0.000995948
0.000991181
0.000986094
0.0009807
0.000975016
0.000969055
0.000962835
0.000956369
0.000949672
0.000942761
0.00093565
0.000928353
0.000920885
0.00091326
0.00090549
0.000897588
0.000889564
0.000881429
0.00087319
0.000864856
0.000856436
0.000847942
0.000839391
0.000830799
0.000822179
0.000813542
0.000804896
0.000796251
0.000787613
0.000778989
0.000770388
0.000761814
0.000753274
0.000744774
0.000736319
0.000727914
0.000719566
0.000711279
0.000703056
0.000694902
0.00068682
0.000678812
0.000670883
0.000663034
0.000655267
0.000647586
0.000639991
0.000632484
0.000625068
0.000617743
0.000610511
0.00060337
0.000596323
0.00058937
0.00058251
0.000575745
0.000569076
0.000562499
0.00055601
0.000549608
0.000543294
0.000537071
0.00053094
0.0005249
0.000518951
0.000513093
0.000507323
0.000501641
0.000496047
0.000490538
0.000485114
0.000479774
0.000474516
0.00046934
0.000464243
0.000459226
0.000454287
0.000449424
0.000444638
0.000439926
0.000435288
0.000430722
0.000426227
0.000421803
0.000417448
0.000413159
0.000408937
0.000404779
0.000400682
0.000396645
0.000392663
0.000388734
0.000384851
0.000381007
0.000377195
0.000373402
0.000369613
0.000365805
0.000361958
0.000357999
0.000353958
0.000349476
0.000345083
0.000338592
0.000327134
5.07061e-07
8.12884e-05
0.00021297
0.000309203
0.000372987
0.000410399
0.000425973
0.000426364
0.000416353
0.00040295
0.000394794
0.000393958
0.000403186
0.000420397
0.000443153
0.000470907
0.00050426
0.000543571
0.000588028
0.000650262
0.000724125
0.000803917
0.00088818
0.000958843
0.00102127
0.0010774
0.00112781
0.00117272
0.00121198
0.00124587
0.00127511
0.00130045
0.00132257
0.00134211
0.00135965
0.00137567
0.00139059
0.00140476
0.00141842
0.00143177
0.00144494
0.00145799
0.00147095
0.0014838
0.0014965
0.00150896
0.00152109
0.0015328
0.00154399
0.00155458
0.00156454
0.00157381
0.00158239
0.00159025
0.00159739
0.0016038
0.00160947
0.00161441
0.00161861
0.00162207
0.00162479
0.00162677
0.00162793
0.00162836
0.00162824
0.00162733
0.0016257
0.00162338
0.00162038
0.00161673
0.00161243
0.00160751
0.00160199
0.00159589
0.00158923
0.00158204
0.00157433
0.00156613
0.00155747
0.00154836
0.00153883
0.0015289
0.0015186
0.00150794
0.00149696
0.00148567
0.00147409
0.00146226
0.00145018
0.00143788
0.00142538
0.0014127
0.00139985
0.00138685
0.00137372
0.00136047
0.00134712
0.00133369
0.00132019
0.00130666
0.0012931
0.00127953
0.00126595
0.00125239
0.00123886
0.00122536
0.0012119
0.00119849
0.00118515
0.00117189
0.0011587
0.0011456
0.00113259
0.00111968
0.00110688
0.0010942
0.00108162
0.00106917
0.00105685
0.00104465
0.00103259
0.00102066
0.00100886
0.000997208
0.000985695
0.000974325
0.000963098
0.000952016
0.000941079
0.000930289
0.000919645
0.000909147
0.000898792
0.000888576
0.000878499
0.000868561
0.000858764
0.000849108
0.000839593
0.000830218
0.000820982
0.000811883
0.000802921
0.000794093
0.000785398
0.000776834
0.0007684
0.000760093
0.000751911
0.000743854
0.000735919
0.000728104
0.000720408
0.000712829
0.000705364
0.000698013
0.000690772
0.000683641
0.000676617
0.000669698
0.000662882
0.000656166
0.000649546
0.00064302
0.000636583
0.000630231
0.000623957
0.000617754
0.000611612
0.000605519
0.000599459
0.000593409
0.000587341
0.000581218
0.000574975
0.000568556
0.000561779
0.000554587
0.000546345
0.000530154
1.49339e-06
0.000102058
0.000235122
0.000355058
0.000433975
0.000481483
0.000505121
0.000513591
0.000515166
0.000516154
0.000523034
0.000539197
0.000565254
0.00060024
0.000643367
0.000694651
0.000754735
0.000838154
0.000933827
0.00103005
0.00111906
0.00120345
0.0012828
0.0013555
0.00142226
0.00148368
0.00154014
0.001592
0.00163959
0.00168336
0.00172379
0.00176136
0.0017965
0.00182958
0.00186091
0.00189075
0.0019193
0.00194668
0.00197301
0.00199834
0.0020227
0.00204611
0.00206855
0.00209002
0.00211048
0.00212992
0.00214829
0.00216556
0.00218172
0.00219674
0.00221061
0.00222334
0.00223493
0.00224541
0.00225478
0.00226306
0.00227028
0.00227644
0.00228157
0.00228567
0.00228877
0.00229082
0.00229173
0.00229182
0.00229095
0.00228907
0.00228624
0.00228246
0.00227778
0.0022722
0.00226575
0.00225846
0.00225037
0.00224149
0.00223185
0.0022215
0.00221046
0.00219876
0.00218642
0.00217349
0.00216
0.00214597
0.00213143
0.00211642
0.00210097
0.00208511
0.00206886
0.00205226
0.00203534
0.00201813
0.00200064
0.00198292
0.00196498
0.00194684
0.00192853
0.00191007
0.00189149
0.00187281
0.00185406
0.00183525
0.0018164
0.00179754
0.00177868
0.00175985
0.00174105
0.00172229
0.00170361
0.00168499
0.00166647
0.00164805
0.00162974
0.00161155
0.00159349
0.00157557
0.0015578
0.00154018
0.00152272
0.00150543
0.00148831
0.00147136
0.0014546
0.00143802
0.00142163
0.00140543
0.00138943
0.00137361
0.001358
0.00134258
0.00132737
0.00131235
0.00129753
0.00128291
0.00126849
0.00125426
0.00124022
0.00122637
0.00121272
0.00119926
0.00118599
0.00117291
0.00116002
0.00114732
0.0011348
0.00112247
0.00111031
0.00109834
0.00108654
0.00107492
0.00106346
0.00105218
0.00104106
0.0010301
0.0010193
0.00100867
0.000998185
0.000987856
0.000977678
0.000967647
0.000957761
0.000948017
0.000938411
0.00092894
0.000919601
0.000910387
0.000901296
0.000892319
0.00088345
0.00087468
0.000865996
0.000857385
0.000848826
0.000840296
0.000831759
0.000823173
0.00081447
0.000805579
0.000796336
0.000786592
0.000776623
0.000756803
2.27163e-06
0.000118201
0.000256368
0.000390151
0.000487239
0.000549158
0.000587023
0.000610488
0.000628247
0.000647572
0.000673716
0.000709329
0.000755147
0.000811442
0.000878619
0.000969122
0.00107426
0.00117598
0.0012752
0.0013707
0.0014614
0.0015474
0.00162865
0.0017051
0.00177707
0.00184489
0.0019089
0.00196945
0.00202687
0.00208147
0.0021336
0.00218353
0.00223151
0.00227775
0.00232242
0.00236564
0.00240748
0.00244802
0.00248728
0.00252527
0.00256198
0.00259739
0.00263149
0.00266422
0.00269556
0.00272547
0.00275389
0.0027808
0.00280616
0.00282993
0.00285208
0.0028726
0.00289147
0.00290868
0.00292421
0.00293808
0.00295028
0.00296082
0.00296971
0.00297697
0.00298263
0.00298671
0.00298914
0.00299004
0.00298957
0.0029876
0.00298426
0.00297956
0.00297356
0.0029663
0.00295786
0.00294826
0.00293758
0.00292585
0.00291313
0.00289947
0.0028849
0.00286949
0.00285327
0.00283628
0.00281856
0.00280017
0.00278114
0.00276151
0.00274132
0.00272061
0.00269942
0.00267779
0.00265576
0.00263336
0.00261063
0.0025876
0.0025643
0.00254077
0.00251704
0.00249313
0.00246907
0.0024449
0.00242064
0.00239631
0.00237195
0.00234758
0.00232321
0.00229888
0.00227459
0.00225037
0.00222624
0.00220221
0.0021783
0.00215451
0.00213087
0.00210739
0.00208408
0.00206094
0.002038
0.00201525
0.00199271
0.00197038
0.00194827
0.00192639
0.00190474
0.00188332
0.00186214
0.00184121
0.00182052
0.00180008
0.00177989
0.00175995
0.00174026
0.00172083
0.00170165
0.00168272
0.00166404
0.00164561
0.00162742
0.00160948
0.00159178
0.00157432
0.00155711
0.00154014
0.00152341
0.00150691
0.00149065
0.00147462
0.00145882
0.00144324
0.00142789
0.00141275
0.00139783
0.00138312
0.00136862
0.00135432
0.00134023
0.00132634
0.00131264
0.00129913
0.00128582
0.00127268
0.00125974
0.00124697
0.00123437
0.00122194
0.00120968
0.00119758
0.00118563
0.00117383
0.00116217
0.00115064
0.00113922
0.0011279
0.00111666
0.00110547
0.0010943
0.00108309
0.00107179
0.00106031
0.0010485
0.00103628
0.0010241
0.00100162
2.80548e-06
0.00012682
0.000269278
0.000407725
0.0005265
0.000608036
0.000664242
0.000706252
0.000743311
0.000782683
0.000829427
0.00088649
0.000955498
0.00104783
0.00115483
0.00126144
0.00136755
0.00147091
0.00157099
0.00166735
0.00175974
0.00184818
0.00193274
0.0020136
0.00209099
0.00216519
0.00223647
0.0023051
0.00237133
0.00243541
0.00249753
0.00255789
0.00261662
0.00267385
0.00272966
0.00278411
0.00283722
0.00288902
0.0029395
0.00298864
0.00303641
0.00308277
0.00312768
0.00317109
0.00321294
0.00325319
0.00329179
0.00332867
0.00336379
0.00339711
0.00342858
0.00345816
0.00348581
0.00351151
0.00353524
0.00355696
0.00357667
0.00359435
0.00361001
0.00362363
0.00363523
0.00364481
0.00365239
0.003658
0.00366166
0.00366327
0.00366319
0.0036612
0.00365743
0.00365191
0.0036447
0.00363586
0.00362544
0.00361351
0.00360013
0.00358536
0.00356927
0.00355193
0.0035334
0.00351375
0.00349305
0.00347136
0.00344875
0.00342529
0.00340105
0.00337607
0.00335042
0.00332417
0.00329736
0.00327006
0.0032423
0.00321415
0.00318564
0.00315683
0.00312775
0.00309844
0.00306894
0.00303929
0.00300952
0.00297967
0.00294977
0.00291985
0.00288993
0.00286005
0.00283023
0.00280048
0.00277084
0.00274132
0.00271194
0.00268272
0.00265367
0.00262482
0.00259617
0.00256773
0.00253952
0.00251155
0.00248384
0.00245637
0.00242918
0.00240225
0.00237561
0.00234925
0.00232318
0.0022974
0.00227192
0.00224674
0.00222186
0.00219728
0.00217301
0.00214904
0.00212538
0.00210202
0.00207896
0.00205619
0.00203373
0.00201156
0.00198969
0.00196811
0.00194682
0.00192582
0.0019051
0.00188467
0.00186452
0.00184465
0.00182505
0.00180573
0.00178666
0.00176787
0.00174933
0.00173104
0.00171301
0.00169522
0.00167768
0.00166037
0.0016433
0.00162647
0.00160985
0.00159347
0.0015773
0.00156135
0.0015456
0.00153007
0.00151473
0.00149959
0.00148463
0.00146986
0.00145525
0.00144081
0.00142651
0.00141234
0.00139828
0.00138429
0.00137035
0.0013564
0.00134237
0.0013282
0.00131373
0.00129897
0.00128396
0.00125971
2.94238e-06
0.000128734
0.000270668
0.000407305
0.000538107
0.000641776
0.000719041
0.000780494
0.000836299
0.000894157
0.000961763
0.00105373
0.00116336
0.0012851
0.00140068
0.00151195
0.00161979
0.00172437
0.00182562
0.00192349
0.00201799
0.00210919
0.00219725
0.00228235
0.0023647
0.00244454
0.00252208
0.00259753
0.00267109
0.00274294
0.0028132
0.002882
0.00294943
0.00301556
0.00308042
0.00314403
0.00320641
0.00326752
0.00332734
0.00338584
0.00344296
0.00349865
0.00355286
0.00360551
0.00365654
0.00370589
0.00375349
0.00379928
0.00384321
0.0038852
0.0039252
0.00396317
0.00399905
0.00403281
0.0040644
0.0040938
0.00412098
0.00414591
0.00416858
0.00418898
0.00420711
0.00422296
0.00423654
0.00424787
0.00425696
0.00426382
0.00426855
0.004271
0.00427143
0.00426979
0.00426612
0.00426048
0.00425291
0.00424348
0.00423225
0.00421928
0.00420463
0.00418837
0.00417058
0.00415131
0.00413064
0.00410865
0.0040854
0.00406097
0.00403543
0.00400886
0.00398131
0.00395287
0.0039236
0.00389357
0.00386284
0.00383148
0.00379954
0.0037671
0.0037342
0.0037009
0.00366726
0.00363332
0.00359914
0.00356477
0.00353024
0.0034956
0.0034609
0.00342616
0.00339143
0.00335673
0.00332209
0.00328756
0.00325314
0.00321887
0.00318476
0.00315085
0.00311714
0.00308366
0.00305042
0.00301744
0.00298473
0.0029523
0.00292017
0.00288834
0.00285681
0.00282561
0.00279473
0.00276419
0.00273398
0.00270411
0.00267458
0.00264539
0.00261656
0.00258807
0.00255993
0.00253213
0.00250469
0.00247758
0.00245082
0.0024244
0.00239832
0.00237258
0.00234718
0.0023221
0.00229736
0.00227295
0.00224886
0.00222509
0.00220164
0.0021785
0.00215567
0.00213314
0.00211092
0.00208899
0.00206735
0.002046
0.00202493
0.00200415
0.00198363
0.00196339
0.00194341
0.00192369
0.00190423
0.00188502
0.00186606
0.00184733
0.00182885
0.00181059
0.00179256
0.00177474
0.00175712
0.00173969
0.00172245
0.00170536
0.0016884
0.00167156
0.00165477
0.00163801
0.0016212
0.00160427
0.00158707
0.00156967
0.00155173
0.00152559
2.75933e-06
0.000125268
0.000264042
0.000395768
0.00052054
0.000633073
0.000727061
0.000808267
0.000891331
0.00098668
0.00109593
0.00122063
0.00135704
0.00148456
0.00160487
0.00171989
0.00183061
0.00193739
0.00204054
0.00214042
0.00223724
0.00233121
0.00242253
0.00251139
0.00259801
0.00268259
0.00276532
0.00284637
0.00292589
0.00300402
0.00308086
0.00315649
0.00323096
0.00330432
0.00337657
0.0034477
0.0035177
0.00358652
0.00365413
0.00372046
0.00378544
0.00384901
0.0039111
0.00397162
0.0040305
0.00408766
0.00414302
0.00419651
0.00424806
0.00429759
0.00434505
0.00439036
0.00443348
0.00447436
0.00451294
0.00454918
0.00458306
0.00461454
0.0046436
0.00467023
0.00469441
0.00471614
0.00473541
0.00475225
0.00476665
0.00477864
0.00478824
0.00479548
0.00480041
0.00480298
0.00480336
0.00480155
0.00479758
0.00479152
0.00478342
0.00477334
0.00476134
0.00474748
0.00473184
0.00471448
0.00469547
0.00467489
0.0046528
0.00462927
0.00460438
0.00457821
0.00455083
0.0045223
0.0044927
0.00446211
0.00443058
0.0043982
0.00436502
0.00433111
0.00429654
0.00426137
0.00422566
0.00418948
0.00415287
0.00411589
0.00407861
0.00404106
0.0040033
0.00396538
0.00392734
0.00388921
0.00385105
0.00381289
0.00377476
0.00373669
0.00369872
0.00366088
0.00362318
0.00358567
0.00354835
0.00351126
0.0034744
0.0034378
0.00340148
0.00336544
0.00332971
0.00329429
0.00325919
0.00322443
0.00319001
0.00315594
0.00312222
0.00308886
0.00305587
0.00302324
0.00299099
0.0029591
0.00292758
0.00289644
0.00286567
0.00283526
0.00280523
0.00277556
0.00274626
0.00271733
0.00268876
0.00266055
0.0026327
0.0026052
0.00257805
0.00255125
0.0025248
0.00249868
0.00247289
0.00244744
0.00242232
0.00239751
0.00237303
0.00234885
0.00232499
0.00230143
0.00227817
0.00225521
0.00223253
0.00221014
0.00218803
0.0021662
0.00214463
0.00212333
0.00210228
0.00208147
0.0020609
0.00204056
0.00202042
0.00200046
0.00198067
0.00196101
0.00194145
0.00192192
0.00190237
0.00188271
0.00186282
0.00184276
0.00182201
0.00179368
2.34431e-06
0.000117988
0.000252846
0.000380972
0.000503944
0.00062048
0.000731374
0.000840489
0.000955421
0.00108133
0.00121945
0.00136923
0.00151155
0.00164354
0.00176781
0.00188624
0.00199996
0.00210962
0.00221558
0.00231807
0.00241747
0.00251418
0.00260849
0.00270065
0.00279089
0.00287941
0.00296641
0.00305202
0.0031364
0.00321964
0.00330183
0.00338303
0.00346327
0.00354257
0.00362091
0.00369828
0.00377462
0.0038499
0.00392404
0.00399698
0.00406862
0.00413889
0.0042077
0.00427495
0.00434056
0.00440444
0.00446649
0.00452663
0.00458478
0.00464086
0.0046948
0.00474652
0.00479595
0.00484305
0.00488776
0.00493002
0.00496981
0.00500709
0.00504182
0.00507399
0.00510359
0.00513059
0.00515501
0.00517685
0.00519611
0.00521282
0.00522698
0.00523864
0.00524781
0.00525453
0.00525885
0.00526079
0.00526045
0.00525784
0.00525302
0.00524606
0.005237
0.00522592
0.00521288
0.00519795
0.00518119
0.00516267
0.00514246
0.00512064
0.00509728
0.00507246
0.00504623
0.00501869
0.00498989
0.00495991
0.00492883
0.0048967
0.00486361
0.00482961
0.00479478
0.00475917
0.00472286
0.00468591
0.00464838
0.00461032
0.0045718
0.00453287
0.00449358
0.004454
0.00441416
0.00437411
0.0043339
0.00429357
0.00425317
0.00421272
0.00417227
0.00413185
0.0040915
0.00405124
0.00401111
0.00397112
0.00393131
0.00389169
0.0038523
0.00381314
0.00377424
0.00373561
0.00369727
0.00365924
0.00362151
0.00358411
0.00354705
0.00351033
0.00347396
0.00343794
0.00340229
0.00336701
0.00333209
0.00329755
0.00326338
0.00322959
0.00319617
0.00316313
0.00313047
0.00309818
0.00306627
0.00303474
0.00300358
0.00297279
0.00294237
0.00291231
0.00288262
0.00285329
0.00282431
0.00279569
0.00276742
0.00273949
0.0027119
0.00268465
0.00265773
0.00263115
0.00260488
0.00257894
0.00255332
0.002528
0.00250299
0.00247829
0.00245388
0.00242975
0.00240591
0.00238234
0.00235903
0.00233597
0.00231314
0.00229052
0.00226808
0.0022458
0.00222364
0.00220153
0.00217941
0.00215721
0.00213481
0.00211223
0.00208893
0.00205827
1.92683e-06
0.000110307
0.000242562
0.000369907
0.000495648
0.00062008
0.000745008
0.000874503
0.00101187
0.0011592
0.00131664
0.00147844
0.00162626
0.00176271
0.00189082
0.00201259
0.00212928
0.00224173
0.00235046
0.00245588
0.00255827
0.00265783
0.002755
0.00285013
0.00294352
0.0030354
0.00312596
0.00321536
0.00330374
0.00339121
0.00347782
0.00356363
0.00364866
0.00373291
0.00381636
0.00389896
0.00398066
0.0040614
0.0041411
0.00421966
0.004297
0.00437301
0.00444759
0.00452065
0.00459207
0.00466176
0.00472961
0.00479554
0.00485944
0.00492123
0.00498082
0.00503815
0.00509312
0.00514569
0.00519579
0.00524337
0.00528839
0.0053308
0.00537058
0.00540769
0.00544213
0.00547388
0.00550293
0.00552929
0.00555297
0.00557397
0.00559232
0.00560804
0.00562116
0.00563172
0.00563975
0.00564529
0.0056484
0.00564912
0.00564752
0.00564364
0.00563755
0.0056293
0.00561896
0.0056066
0.00559227
0.00557606
0.00555803
0.00553825
0.00551679
0.00549373
0.00546914
0.00544309
0.00541565
0.0053869
0.0053569
0.00532573
0.00529345
0.00526014
0.00522585
0.00519066
0.00515462
0.00511782
0.0050803
0.00504213
0.00500337
0.00496407
0.0049243
0.0048841
0.00484354
0.00480265
0.00476148
0.00472009
0.00467851
0.00463679
0.00459497
0.00455309
0.00451117
0.00446927
0.0044274
0.0043856
0.0043439
0.00430233
0.0042609
0.00421965
0.00417859
0.00413775
0.00409715
0.00405679
0.0040167
0.0039769
0.00393739
0.00389818
0.0038593
0.00382074
0.00378251
0.00374463
0.00370709
0.00366991
0.00363309
0.00359663
0.00356053
0.0035248
0.00348944
0.00345445
0.00341983
0.00338559
0.00335171
0.00331821
0.00328508
0.00325232
0.00321993
0.0031879
0.00315624
0.00312493
0.00309399
0.0030634
0.00303316
0.00300327
0.00297373
0.00294453
0.00291567
0.00288714
0.00285895
0.00283108
0.00280354
0.00277631
0.0027494
0.0027228
0.00269649
0.00267047
0.00264474
0.00261927
0.00259406
0.00256907
0.00254429
0.00251968
0.0024952
0.0024708
0.00244641
0.00242196
0.00239733
0.00237253
0.00234702
0.00231421
1.54345e-06
0.000102166
0.000232071
0.000359052
0.000487719
0.000618988
0.000755522
0.000899236
0.00105186
0.00121392
0.00138595
0.00155193
0.00170372
0.00184404
0.00197566
0.00210054
0.00222004
0.00233509
0.00244637
0.00255435
0.00265942
0.0027619
0.00286205
0.00296005
0.00305634
0.0031512
0.00324486
0.00333753
0.00342933
0.00352038
0.00361075
0.00370047
0.00378957
0.00387804
0.00396583
0.00405291
0.0041392
0.00422462
0.00430909
0.0043925
0.00447475
0.00455572
0.00463531
0.0047134
0.00478987
0.00486461
0.00493752
0.00500849
0.00507742
0.00514421
0.00520877
0.00527101
0.00533087
0.00538826
0.00544313
0.00549542
0.00554507
0.00559206
0.00563633
0.00567788
0.00571666
0.00575268
0.00578592
0.00581638
0.00584407
0.00586901
0.0058912
0.00591068
0.00592747
0.00594161
0.00595312
0.00596206
0.00596847
0.00597239
0.00597388
0.00597301
0.00596984
0.00596441
0.00595679
0.00594704
0.00593523
0.00592143
0.0059057
0.00588813
0.00586878
0.00584772
0.00582502
0.00580077
0.00577502
0.00574785
0.00571933
0.00568952
0.00565851
0.00562635
0.00559311
0.00555886
0.00552366
0.00548759
0.0054507
0.00541305
0.00537471
0.00533573
0.00529617
0.00525608
0.00521553
0.00517455
0.0051332
0.00509153
0.00504958
0.00500739
0.00496502
0.00492249
0.00487985
0.00483713
0.00479437
0.0047516
0.00470885
0.00466616
0.00462354
0.00458104
0.00453866
0.00449643
0.00445438
0.00441253
0.00437089
0.00432948
0.00428831
0.00424741
0.00420678
0.00416643
0.00412638
0.00408664
0.00404722