/*--------------------------------*- C++ -*----------------------------------*\
| =========                 |                                                 |
| \\      /  F ield         | OpenFOAM: The Open Source CFD Toolbox           |
|  \\    /   O peration     | Version:  v2012                                 |
|   \\  /    A nd           | Website:  www.openfoam.com                      |
|    \\/     M anipulation  |                                                 |
\*---------------------------------------------------------------------------*/
FoamFile
{
    version     2.0;
    format      ascii;
    class       volScalarField;
    location    "2300";
    object      nut;
}
// * * * * * * * * * * * * * * * * * * * * * * * * * * * * * * * * * * * * * //

dimensions      [0 2 -1 0 0 0 0];


internalField   nonuniform List<scalar> 
12225
(
0.0122671
0.00158819
0.000666128
0.000410104
0.00029404
0.000227812
0.000186411
0.000144155
0.000166283
0.000217523
0.000228153
0.000220685
0.000204033
0.000176134
0.000172804
0.000145343
0.000129215
0.00011586
0.0323823
0.00744532
0.00330638
0.00204329
0.00146802
0.00114434
0.000938326
0.000785034
0.000692084
0.000629543
0.000572418
0.000522168
0.000478568
0.000440461
0.000406164
0.000371747
0.000346616
0.00032034
0.0490123
0.01515
0.00728196
0.00457854
0.00330639
0.00258051
0.00211293
0.00178262
0.001548
0.00137292
0.00123121
0.00111491
0.00101802
0.000936295
0.000866
0.00080347
0.000753247
0.000699893
0.063054
0.0237783
0.0122894
0.00788815
0.00573397
0.00448498
0.00367425
0.00310477
0.00268766
0.0023694
0.00211658
0.00191155
0.00174242
0.00160086
0.00148089
0.00137729
0.00129015
0.00120348
0.074932
0.0328517
0.0181452
0.0119262
0.00874549
0.00686413
0.00563082
0.00476161
0.00411878
0.00362505
0.00323394
0.0029173
0.00265652
0.00243869
0.00225462
0.00209717
0.00196243
0.00183902
0.0849536
0.0420208
0.0246655
0.0166359
0.0123325
0.00972588
0.0079954
0.00676755
0.00585401
0.00514958
0.00459112
0.00413889
0.00376647
0.00345545
0.00319266
0.00296832
0.00277552
0.00260609
0.0933822
0.0510219
0.0316642
0.0219415
0.016474
0.0130717
0.0107779
0.00913545
0.00790594
0.00695411
0.00619792
0.00558484
0.0050796
0.00465754
0.00430093
0.00399664
0.00373504
0.00350891
0.0993794
0.0583363
0.0378386
0.0268568
0.0204171
0.0163053
0.0134892
0.011453
0.00991903
0.00872658
0.00777676
0.00700546
0.00636919
0.00583739
0.00538795
0.00500451
0.00467502
0.00439174
0.104023
0.0645454
0.0433804
0.0314239
0.0241571
0.0194092
0.0161097
0.0137018
0.0118767
0.0104522
0.00931464
0.00838929
0.00762514
0.00698605
0.00644578
0.00598484
0.00558894
0.00524914
0.108368
0.0708939
0.0493757
0.0365497
0.0284517
0.0230231
0.0191863
0.0163548
0.0141927
0.0124969
0.0111382
0.0100305
0.00911453
0.00834781
0.00769934
0.00714605
0.00667097
0.00626329
0.112368
0.0772557
0.0557282
0.0421918
0.0332976
0.0271652
0.0227468
0.0194433
0.0168984
0.0148904
0.013275
0.0119546
0.0108606
0.00994396
0.00916816
0.00850608
0.00793761
0.00744942
0.115994
0.0834975
0.0623054
0.0482612
0.0386474
0.0318167
0.026789
0.0229739
0.0200047
0.0176453
0.0157379
0.0141737
0.012875
0.0117851
0.010862
0.0100738
0.00939692
0.00881487
0.119234
0.0894856
0.0689377
0.0546109
0.0443919
0.0369007
0.0312597
0.0269089
0.0234837
0.02074
0.0185097
0.0166735
0.015145
0.0138601
0.0127706
0.0118397
0.0110399
0.010351
0.122086
0.095084
0.075415
0.0610223
0.0503361
0.0422535
0.0360231
0.0311353
0.0272402
0.0240931
0.0215191
0.0193909
0.0176141
0.0161175
0.0148467
0.0137602
0.0128258
0.0120198
0.124546
0.100135
0.0814619
0.0671726
0.056158
0.047577
0.0408126
0.0354174
0.031066
0.0275197
0.0246013
0.0221778
0.0201482
0.018435
0.0169783
0.0157315
0.0146584
0.0137312
0.126578
0.104396
0.0866605
0.0725515
0.0613228
0.0523526
0.0451453
0.0393148
0.0345631
0.0306611
0.0274325
0.024741
0.0224806
0.020569
0.0189413
0.0175468
0.0163455
0.0153062
0.128011
0.107322
0.0902141
0.0762353
0.0648743
0.0556509
0.0481493
0.0420254
0.0370012
0.0328553
0.0294126
0.0265352
0.0241143
0.0220643
0.0203171
0.0188191
0.0175275
0.0164083
0.128006
0.107313
0.0902048
0.0762269
0.0648674
0.0556454
0.048145
0.0420221
0.0369988
0.0328536
0.0294117
0.0265349
0.0241147
0.0220651
0.0203184
0.0188205
0.0175286
0.0164082
0.126509
0.104255
0.0864922
0.0723807
0.0611613
0.052205
0.0450127
0.0391967
0.0344584
0.0305685
0.0273506
0.0246684
0.0224163
0.0205118
0.0188902
0.0175005
0.0163023
0.015263
0.124267
0.0995604
0.0807712
0.0664676
0.0554886
0.0469631
0.0402594
0.0349227
0.0306248
0.0271258
0.0242487
0.0218611
0.0198625
0.0181762
0.0167425
0.0155151
0.0144574
0.0135404
0.12136
0.0936399
0.0737261
0.0593348
0.0487592
0.0408248
0.0347466
0.0300003
0.0262308
0.0231927
0.0207127
0.018665
0.0169572
0.0155197
0.0142998
0.0132566
0.0123582
0.0115796
0.117686
0.0865903
0.0656967
0.0514791
0.0415374
0.0343608
0.0290183
0.0249322
0.0217348
0.0191848
0.0171184
0.015421
0.0140105
0.0128262
0.0118228
0.0109656
0.0102278
0.00958882
0.11305
0.0784122
0.056921
0.0432687
0.0342296
0.0279652
0.0234365
0.0200435
0.0174263
0.0153597
0.0136965
0.0123369
0.0112106
0.010267
0.0094686
0.00878711
0.00820093
0.00769336
0.107169
0.0691009
0.0476372
0.035029
0.0271566
0.021922
0.0182437
0.0155401
0.0134817
0.0118705
0.0105815
0.00953195
0.00866484
0.00793963
0.00732666
0.00680374
0.00635407
0.00596487
0.0996761
0.0587036
0.0381279
0.0270699
0.0205782
0.0164329
0.0135949
0.0115437
0.0099992
0.00879906
0.00784339
0.00706753
0.00642788
0.00589357
0.00544227
0.00505734
0.00472638
0.00444003
0.0901097
0.0473665
0.0287363
0.0196847
0.0146976
0.0116311
0.00957851
0.00811521
0.00702328
0.00617986
0.00551048
0.00496783
0.00452105
0.00414813
0.00383322
0.00356453
0.00333357
0.00313363
0.0779076
0.0353826
0.0198606
0.0131383
0.00966106
0.00759296
0.0062335
0.00527418
0.00456396
0.00401868
0.00358673
0.0032358
0.00294684
0.00270584
0.00250188
0.00232778
0.00217831
0.00204799
0.06238
0.0232554
0.0119461
0.00765493
0.00556337
0.00435255
0.0035672
0.00301633
0.002613
0.00230785
0.00206607
0.00186639
0.00170108
0.00156387
0.0014457
0.00134557
0.00125961
0.00118125
0.0426105
0.0117794
0.0054693
0.00341385
0.00246071
0.00192005
0.00157263
0.00132965
0.00115814
0.00103888
0.000943551
0.000856997
0.000782746
0.000722808
0.000661542
0.0006204
0.00057947
0.000532366
0.0168348
0.00255985
0.00110002
0.00068343
0.000493725
0.000386814
0.000317978
0.000268498
0.000268034
0.000337633
0.000382638
0.00037171
0.000339328
0.000318242
0.000255583
0.000319098
0.000296672
0.000243312
5.58714e-10
1.16146e-07
1.21085e-06
5.28733e-06
9.83585e-06
1.26553e-05
1.30226e-05
1.10452e-05
8.76719e-06
5.72274e-06
3.37259e-06
1.92385e-06
1.35251e-06
1.48144e-06
2.01026e-06
2.48654e-06
2.4195e-06
1.65522e-06
8.1412e-07
4.52873e-07
4.73158e-07
1.34002e-06
5.75668e-06
2.84264e-05
5.71701e-05
7.50426e-05
9.13945e-05
0.000105202
0.000117332
0.000127448
0.000136303
0.000143916
0.000150576
0.000156377
0.000161439
0.000165908
0.000169868
0.000173407
0.00017658
0.000179431
0.000181989
0.000184276
0.000186311
0.00018811
0.000189686
0.000191054
0.000192223
0.000193199
0.000193984
0.000194575
0.000194823
0.000195073
0.000195121
0.000194993
0.000194694
0.000194246
0.000193647
0.000192899
0.000192004
0.000190964
0.000189782
0.00018846
0.000186999
0.000185402
0.000183673
0.000181812
0.000179822
0.000177703
0.000175461
0.000173097
0.000170613
0.000168013
0.000165299
0.000162474
0.000159541
0.000156502
0.000153359
0.000150113
0.000146761
0.000143297
0.000139715
0.000136002
0.000132145
0.000128131
0.000123951
0.000119596
0.000115065
0.000110356
0.00010546
0.000100358
9.50199e-05
8.94168e-05
8.35393e-05
7.7455e-05
7.14434e-05
6.61791e-05
6.24494e-05
6.01251e-05
5.83776e-05
5.67728e-05
5.51968e-05
5.36285e-05
5.20664e-05
5.05122e-05
4.89677e-05
4.74349e-05
4.59166e-05
4.44189e-05
4.29706e-05
4.17378e-05
4.05336e-05
3.93441e-05
3.81718e-05
3.70174e-05
3.58819e-05
3.47658e-05
3.36702e-05
3.25956e-05
3.15428e-05
3.05119e-05
2.95037e-05
2.85184e-05
2.75566e-05
2.66187e-05
2.57049e-05
2.4815e-05
2.39503e-05
2.31406e-05
2.24064e-05
2.16908e-05
2.09902e-05
2.0314e-05
1.96656e-05
1.90304e-05
1.84094e-05
1.78054e-05
1.72196e-05
1.66519e-05
1.61023e-05
1.55703e-05
1.50556e-05
1.45576e-05
1.4076e-05
1.36102e-05
1.31601e-05
1.27251e-05
1.23049e-05
1.1899e-05
1.15072e-05
1.1129e-05
1.07641e-05
1.04121e-05
1.00727e-05
9.74545e-06
9.43021e-06
9.12658e-06
8.83436e-06
8.55323e-06
8.28303e-06
8.02349e-06
7.77447e-06
7.53575e-06
7.30719e-06
7.08858e-06
6.87973e-06
6.68038e-06
6.49021e-06
6.3088e-06
6.13556e-06
5.96984e-06
5.81055e-06
5.65692e-06
5.50613e-06
5.36009e-06
5.2037e-06
5.06832e-06
4.84662e-06
4.74186e-06
4.27911e-06
3.70605e-06
3.35207e-09
6.47197e-06
6.3717e-05
0.000139928
0.000183172
0.000206672
0.000215807
0.000214145
0.000205599
0.000188752
0.000167855
0.0001478
0.000137781
0.000143345
0.000157293
0.000165899
0.000168422
0.00016998
0.000175897
0.00018518
0.000200666
0.000218363
0.000235095
0.000251185
0.000262446
0.000272253
0.000281088
0.000294281
0.000313165
0.00032707
0.000339742
0.000350626
0.000360528
0.000369582
0.000377456
0.000384647
0.000391346
0.000397777
0.000404068
0.000410283
0.000416419
0.00042243
0.000428265
0.000433884
0.000439258
0.00044437
0.000449205
0.000453752
0.00045801
0.000461993
0.00046569
0.000469148
0.000472339
0.00047528
0.00047797
0.000480411
0.000482603
0.000484547
0.000486244
0.000487694
0.000488897
0.000489855
0.00049057
0.000491046
0.000491293
0.000491318
0.000491113
0.000490675
0.000490022
0.000489155
0.000488083
0.000486811
0.000485345
0.000483694
0.000481865
0.000479864
0.000477701
0.000475381
0.000472913
0.000470305
0.000467562
0.000464692
0.000461701
0.000458595
0.000455383
0.000452072
0.000448672
0.000445194
0.000441648
0.000438043
0.000434385
0.000430679
0.000426923
0.000423111
0.000419222
0.00041523
0.000411119
0.000406918
0.000402677
0.00039842
0.000394155
0.000389886
0.000385616
0.000381349
0.000377088
0.000372836
0.000368597
0.000364372
0.000360162
0.000355964
0.000351789
0.000347641
0.000343523
0.000339436
0.000335381
0.000331362
0.000327378
0.000323432
0.000319525
0.000315658
0.000311832
0.000308048
0.000304306
0.000300609
0.000296956
0.000293349
0.000289785
0.000286264
0.000282785
0.000279352
0.000275961
0.000272624
0.000269338
0.000266088
0.000262873
0.000259699
0.00025657
0.000253485
0.000250446
0.000247451
0.0002445
0.000241592
0.000238728
0.000235905
0.000233124
0.000230385
0.000227686
0.000225028
0.00022241
0.000219831
0.000217292
0.000214791
0.000212328
0.000209905
0.00020752
0.000205174
0.000202867
0.0002006
0.000198374
0.00019619
0.000194049
0.000191952
0.000189902
0.000187901
0.000185949
0.000184048
0.000182201
0.000180406
0.000178663
0.00017697
0.000175324
0.000173724
0.000172145
0.000170633
0.000169017
0.00016772
0.00016554
0.000165093
0.000161805
0.000160776
7.65546e-08
3.936e-05
0.000163072
0.000245972
0.000299183
0.000329264
0.000340062
0.000337005
0.000324003
0.000304678
0.000285018
0.000272674
0.000270743
0.000277683
0.000288146
0.000299092
0.000312109
0.000329362
0.000351212
0.0003764
0.000403776
0.000432058
0.000471314
0.000517511
0.000563095
0.000607174
0.000650228
0.000693874
0.000732928
0.000763995
0.000788826
0.000808516
0.00082413
0.000836524
0.000846477
0.000854762
0.000862074
0.000869055
0.000876237
0.000883972
0.000892363
0.000901286
0.000910501
0.000919773
0.000928926
0.000937839
0.000946438
0.000954675
0.000962513
0.000969926
0.000976884
0.00098337
0.00098937
0.000994883
0.000999905
0.00100444
0.00100847
0.00101202
0.00101507
0.00101764
0.0010197
0.00102128
0.00102236
0.0010229
0.00102306
0.00102277
0.00102198
0.00102073
0.00101904
0.00101692
0.00101438
0.00101144
0.0010081
0.00100438
0.0010003
0.00099587
0.000991103
0.000986015
0.000980621
0.000974937
0.000968978
0.000962757
0.000956292
0.000949595
0.000942683
0.000935569
0.00092827
0.000920798
0.00091317
0.000905398
0.000897493
0.000889469
0.000881332
0.000873093
0.000864758
0.000856337
0.000847843
0.000839292
0.0008307
0.00082208
0.000813443
0.000804799
0.000796154
0.000787516
0.000778893
0.000770292
0.000761719
0.00075318
0.000744681
0.000736227
0.000727824
0.000719477
0.000711191
0.00070297
0.000694817
0.000686736
0.00067873
0.000670802
0.000662954
0.000655189
0.000647509
0.000639915
0.00063241
0.000624995
0.000617672
0.00061044
0.000603301
0.000596254
0.000589301
0.000582443
0.000575679
0.00056901
0.000562435
0.000555945
0.000549542
0.000543228
0.000537005
0.000530873
0.000524833
0.000518883
0.000513023
0.000507251
0.000501568
0.000495972
0.000490461
0.000485036
0.000479694
0.000474434
0.000469257
0.000464159
0.000459141
0.0004542
0.000449336
0.000444548
0.000439835
0.000435196
0.000430629
0.000426133
0.000421707
0.000417351
0.000413061
0.000408838
0.000404678
0.000400581
0.000396542
0.000392559
0.000388628
0.000384744
0.0003809
0.000377086
0.000373292
0.000369503
0.000365695
0.000361847
0.000357891
0.000353846
0.000349389
0.000344995
0.000338482
0.00032705
6.14935e-07
8.20401e-05
0.000212861
0.000308769
0.000372259
0.000409364
0.000424664
0.000424895
0.000414824
0.000401531
0.000393733
0.000393183
0.000402778
0.000420241
0.000443174
0.00047109
0.000504601
0.000544016
0.000588512
0.000652318
0.000726421
0.000806431
0.000890281
0.000960534
0.00102269
0.00107858
0.00112879
0.00117349
0.00121257
0.00124629
0.00127541
0.00130064
0.00132269
0.00134217
0.00135967
0.00137567
0.00139058
0.00140473
0.00141839
0.00143174
0.0014449
0.00145795
0.00147091
0.00148376
0.00149645
0.00150891
0.00152104
0.00153274
0.00154392
0.00155452
0.00156446
0.00157374
0.00158231
0.00159016
0.0015973
0.0016037
0.00160937
0.00161431
0.00161851
0.00162197
0.00162469
0.00162666
0.00162782
0.00162825
0.00162812
0.00162721
0.00162558
0.00162326
0.00162026
0.0016166
0.0016123
0.00160738
0.00160186
0.00159575
0.00158909
0.0015819
0.00157419
0.00156599
0.00155732
0.00154821
0.00153868
0.00152875
0.00151845
0.00150779
0.0014968
0.00148551
0.00147394
0.0014621
0.00145002
0.00143772
0.00142522
0.00141253
0.00139968
0.00138668
0.00137355
0.0013603
0.00134695
0.00133352
0.00132003
0.00130649
0.00129293
0.00127936
0.00126579
0.00125223
0.0012387
0.00122519
0.00121174
0.00119834
0.001185
0.00117173
0.00115854
0.00114545
0.00113244
0.00111954
0.00110674
0.00109405
0.00108148
0.00106904
0.00105671
0.00104452
0.00103245
0.00102053
0.00100873
0.000997081
0.00098557
0.000974201
0.000962976
0.000951895
0.000940959
0.000930169
0.000919526
0.000909029
0.000898674
0.000888459
0.000878381
0.000868443
0.000858645
0.000848987
0.000839471
0.000830094
0.000820856
0.000811756
0.000802791
0.000793961
0.000785264
0.000776698
0.000768261
0.000759952
0.000751768
0.000743709
0.000735772
0.000727955
0.000720257
0.000712675
0.000705209
0.000697856
0.000690614
0.000683481
0.000676455
0.000669534
0.000662717
0.000655999
0.000649378
0.000642851
0.000636413
0.00063006
0.000623785
0.000617581
0.000611439
0.000605345
0.000599285
0.000593236
0.000587169
0.000581047
0.000574805
0.000568388
0.000561616
0.000554425
0.000546214
0.000529988
1.40181e-06
0.000101909
0.000234952
0.000354666
0.000433287
0.000480515
0.000503966
0.000512392
0.000514048
0.000515295
0.000522564
0.000539144
0.00056561
0.000600967
0.000644451
0.000696107
0.000756754
0.000840656
0.000936764
0.00103251
0.00112127
0.00120544
0.00128451
0.00135695
0.00142348
0.00148469
0.00154097
0.00159266
0.00164011
0.00168376
0.00172409
0.00176157
0.00179664
0.00182967
0.00186096
0.00189077
0.00191929
0.00194665
0.00197296
0.00199827
0.00202262
0.00204602
0.00206845
0.00208991
0.00211037
0.0021298
0.00214816
0.00216543
0.00218159
0.0021966
0.00221047
0.0022232
0.00223479
0.00224526
0.00225462
0.0022629
0.00227012
0.00227628
0.00228141
0.00228551
0.0022886
0.00229065
0.00229156
0.00229165
0.00229077
0.00228889
0.00228605
0.00228228
0.00227759
0.002272
0.00226555
0.00225826
0.00225016
0.00224128
0.00223165
0.00222129
0.00221024
0.00219854
0.0021862
0.00217327
0.00215977
0.00214574
0.0021312
0.00211619
0.00210073
0.00208487
0.00206862
0.00205202
0.0020351
0.00201788
0.0020004
0.00198267
0.00196473
0.00194659
0.00192828
0.00190983
0.00189125
0.00187257
0.00185381
0.001835
0.00181616
0.0017973
0.00177844
0.00175961
0.00174081
0.00172206
0.00170337
0.00168476
0.00166624
0.00164782
0.00162951
0.00161132
0.00159327
0.00157535
0.00155758
0.00153996
0.00152251
0.00150522
0.0014881
0.00147116
0.0014544
0.00143782
0.00142144
0.00140524
0.00138924
0.00137343
0.00135781
0.0013424
0.00132718
0.00131217
0.00129735
0.00128273
0.00126831
0.00125408
0.00124004
0.00122619
0.00121254
0.00119907
0.0011858
0.00117272
0.00115983
0.00114712
0.0011346
0.00112227
0.00111011
0.00109813
0.00108633
0.0010747
0.00106325
0.00105196
0.00104084
0.00102988
0.00101908
0.00100844
0.000997954
0.000987623
0.000977442
0.000967409
0.000957521
0.000947775
0.000938168
0.000928695
0.000919354
0.00091014
0.000901047
0.00089207
0.000883201
0.000874431
0.000865747
0.000857137
0.000848579
0.00084005
0.000831515
0.000822932
0.000814231
0.000805344
0.000796102
0.000786363
0.000776419
0.000756572
2.32359e-06
0.000118201
0.000256237
0.000389847
0.000486675
0.000548393
0.000586162
0.00060967
0.000627622
0.000647271
0.000673818
0.000709854
0.000756082
0.000812769
0.000880467
0.000971379
0.00107678
0.00117843
0.00127752
0.00137279
0.00146327
0.00154904
0.00163007
0.00170632
0.0017781
0.00184575
0.00190962
0.00197003
0.00202732
0.00208183
0.00213386
0.00218372
0.00223163
0.00227782
0.00232244
0.00236561
0.00240743
0.00244793
0.00248716
0.00252513
0.00256182
0.00259722
0.00263129
0.00266402
0.00269535
0.00272524
0.00275366
0.00278056
0.00280591
0.00282968
0.00285183
0.00287235
0.00289121
0.00290841
0.00292395
0.00293782
0.00295001
0.00296055
0.00296945
0.00297671
0.00298236
0.00298644
0.00298887
0.00298977
0.0029893
0.00298733
0.00298399
0.00297928
0.00297328
0.00296602
0.00295757
0.00294798
0.00293729
0.00292556
0.00291283
0.00289917
0.0028846
0.00286918
0.00285295
0.00283596
0.00281825
0.00279985
0.00278081
0.00276118
0.00274099
0.00272028
0.00269909
0.00267746
0.00265542
0.00263302
0.00261029
0.00258726
0.00256396
0.00254043
0.0025167
0.00249279
0.00246873
0.00244456
0.0024203
0.00239598
0.00237162
0.00234724
0.00232288
0.00229855
0.00227426
0.00225005
0.00222592
0.00220189
0.00217798
0.0021542
0.00213056
0.00210708
0.00208377
0.00206064
0.0020377
0.00201496
0.00199242
0.00197009
0.00194799
0.00192611
0.00190446
0.00188304
0.00186187
0.00184094
0.00182025
0.00179981
0.00177962
0.00175969
0.00174
0.00172057
0.00170139
0.00168246
0.00166378
0.00164535
0.00162716
0.00160922
0.00159152
0.00157406
0.00155685
0.00153987
0.00152314
0.00150664
0.00149037
0.00147434
0.00145853
0.00144295
0.00142759
0.00141245
0.00139753
0.00138282
0.00136831
0.00135401
0.00133992
0.00132602
0.00131232
0.00129881
0.00128549
0.00127236
0.00125941
0.00124664
0.00123404
0.00122161
0.00120935
0.00119725
0.0011853
0.0011735
0.00116184
0.00115031
0.00113889
0.00112757
0.00111634
0.00110515
0.00109398
0.00108278
0.00107147
0.00106
0.00104819
0.00103598
0.00102381
0.00100132
2.79356e-06
0.000126769
0.000269142
0.000407433
0.000526024
0.000607436
0.000663625
0.000705748
0.000743047
0.000782764
0.000829917
0.000887411
0.000956974
0.00104973
0.00115702
0.00126365
0.00136972
0.00147297
0.00157289
0.00166906
0.00176127
0.00184952
0.00193391
0.0020146
0.00209184
0.00216589
0.00223704
0.00230556
0.00237169
0.00243567
0.00249772
0.002558
0.00261667
0.00267384
0.0027296
0.002784
0.00283707
0.00288884
0.00293928
0.00298839
0.00303614
0.00308247
0.00312736
0.00317076
0.0032126
0.00325284
0.00329142
0.00332829
0.00336341
0.00339672
0.00342818
0.00345776
0.00348541
0.00351111
0.00353483
0.00355655
0.00357626
0.00359394
0.00360959
0.00362321
0.00363481
0.00364439
0.00365197
0.00365759
0.00366124
0.00366286
0.00366277
0.00366078
0.00365701
0.00365149
0.00364428
0.00363544
0.00362502
0.00361309
0.0035997
0.00358493
0.00356884
0.0035515
0.00353297
0.00351332
0.00349261
0.00347092
0.00344832
0.00342486
0.0034006
0.00337563
0.00334998
0.00332372
0.00329692
0.00326961
0.00324186
0.0032137
0.0031852
0.00315638
0.0031273
0.00309799
0.00306849
0.00303884
0.00300908
0.00297923
0.00294933
0.00291941
0.0028895
0.00285962
0.0028298
0.00280006
0.00277042
0.0027409
0.00271153
0.00268231
0.00265327
0.00262442
0.00259577
0.00256734
0.00253913
0.00251117
0.00248345
0.002456
0.00242881
0.00240189
0.00237525
0.00234889
0.00232282
0.00229705
0.00227157
0.00224639
0.00222151
0.00219694
0.00217267
0.0021487
0.00212504
0.00210168
0.00207861
0.00205585
0.00203339
0.00201122
0.00198934
0.00196776
0.00194646
0.00192546
0.00190474
0.00188431
0.00186416
0.00184428
0.00182468
0.00180535
0.00178628
0.00176748
0.00174894
0.00173065
0.00171261
0.00169482
0.00167728
0.00165997
0.0016429
0.00162606
0.00160944
0.00159305
0.00157688
0.00156093
0.00154519
0.00152965
0.00151431
0.00149917
0.00148421
0.00146944
0.00145484
0.00144039
0.0014261
0.00141193
0.00139787
0.00138389
0.00136995
0.001356
0.00134198
0.00132782
0.00131335
0.0012986
0.0012836
0.00125935
2.93823e-06
0.000128649
0.000270468
0.000406944
0.000537541
0.00064113
0.000718448
0.000780052
0.000836122
0.00089437
0.000962812
0.00105543
0.0011656
0.00128713
0.00140264
0.00151385
0.00162158
0.00172604
0.00182715
0.00192487
0.00201921
0.00211026
0.00219817
0.00228312
0.00236534
0.00244506
0.00252248
0.00259784
0.00267131
0.00274306
0.00281325
0.00288198
0.00294935
0.00301542
0.00308023
0.0031438
0.00320613
0.0032672
0.00332699
0.00338546
0.00344255
0.00349822
0.0035524
0.00360503
0.00365605
0.00370538
0.00375297
0.00379875
0.00384266
0.00388465
0.00392464
0.0039626
0.00399848
0.00403224
0.00406383
0.00409322
0.0041204
0.00414533
0.004168
0.0041884
0.00420652
0.00422237
0.00423595
0.00424728
0.00425637
0.00426324
0.00426796
0.00427042
0.00427085
0.0042692
0.00426553
0.00425989
0.00425232
0.00424289
0.00423166
0.00421869
0.00420404
0.00418778
0.00416999
0.00415072
0.00413005
0.00410806
0.00408481
0.00406038
0.00403484
0.00400827
0.00398072
0.00395228
0.00392301
0.00389298
0.00386225
0.00383089
0.00379896
0.00376652
0.00373362
0.00370032
0.00366668
0.00363275
0.00359857
0.0035642
0.00352968
0.00349504
0.00346034
0.00342561
0.00339088
0.00335618
0.00332156
0.00328702
0.00325261
0.00321834
0.00318424
0.00315034
0.00311663
0.00308316
0.00304993
0.00301695
0.00298425
0.00295182
0.00291969
0.00288787
0.00285635
0.00282515
0.00279428
0.00276374
0.00273353
0.00270366
0.00267413
0.00264495
0.00261612
0.00258763
0.00255949
0.0025317
0.00250425
0.00247715
0.00245039
0.00242397
0.00239788
0.00237214
0.00234673
0.00232166
0.00229691
0.00227249
0.0022484
0.00222463
0.00220117
0.00217803
0.0021552
0.00213267
0.00211044
0.00208851
0.00206687
0.00204551
0.00202444
0.00200365
0.00198314
0.00196289
0.00194291
0.00192319
0.00190373
0.00188451
0.00186555
0.00184683
0.00182834
0.00181009
0.00179205
0.00177423
0.00175662
0.0017392
0.00172195
0.00170487
0.00168792
0.00167107
0.0016543
0.00163754
0.00162074
0.00160382
0.00158662
0.00156923
0.00155131
0.00152516
2.75415e-06
0.000125142
0.000263777
0.000395304
0.000519832
0.000632109
0.000726055
0.000807555
0.000891491
0.000987425
0.00109725
0.00122237
0.00135886
0.00148628
0.00160649
0.00172142
0.00183203
0.00193869
0.00204172
0.00214146
0.00223816
0.002332
0.00242319
0.00251193
0.00259844
0.00268291
0.00276553
0.00284649
0.00292593
0.00300398
0.00308075
0.00315631
0.00323073
0.00330403
0.00337622
0.00344731
0.00351727
0.00358605
0.00365363
0.00371992
0.00378488
0.00384842
0.00391049
0.00397099
0.00402985
0.00408699
0.00414234
0.00419582
0.00424736
0.00429688
0.00434433
0.00438964
0.00443275
0.00447362
0.00451219
0.00454844
0.00458231
0.00461379
0.00464285
0.00466948
0.00469365
0.00471538
0.00473466
0.00475149
0.00476589
0.00477788
0.00478748
0.00479472
0.00479965
0.00480222
0.0048026
0.00480079
0.00479682
0.00479076
0.00478266
0.00477258
0.00476058
0.00474672
0.00473108
0.00471372
0.00469472
0.00467413
0.00465204
0.00462851
0.00460363
0.00457746
0.00455007
0.00452155
0.00449195
0.00446136
0.00442984
0.00439745
0.00436428
0.00433037
0.00429581
0.00426064
0.00422494
0.00418875
0.00415215
0.00411518
0.0040779
0.00404036
0.0040026
0.00396469
0.00392665
0.00388853
0.00385038
0.00381222
0.0037741
0.00373604
0.00369807
0.00366024
0.00362255
0.00358504
0.00354773
0.00351064
0.0034738
0.0034372
0.00340089
0.00336486
0.00332913
0.00329372
0.00325863
0.00322387
0.00318945
0.00315539
0.00312167
0.00308832
0.00305533
0.0030227
0.00299045
0.00295856
0.00292705
0.00289591
0.00286513
0.00283473
0.00280469
0.00277503
0.00274572
0.00271679
0.00268822
0.00266
0.00263215
0.00260465
0.0025775
0.00255069
0.00252423
0.00249811
0.00247233
0.00244687
0.00242174
0.00239694
0.00237245
0.00234827
0.00232441
0.00230085
0.00227758
0.00225462
0.00223194
0.00220955
0.00218744
0.00216561
0.00214404
0.00212274
0.00210169
0.00208089
0.00206033
0.00203998
0.00201985
0.0019999
0.00198012
0.00196046
0.0019409
0.00192138
0.00190184
0.00188219
0.00186231
0.00184225
0.00182152
0.00179319
2.33812e-06
0.000117852
0.000252612
0.000380621
0.000503495
0.00062
0.000730995
0.000840485
0.000955893
0.00108226
0.00122075
0.00137081
0.00151302
0.00164491
0.00176907
0.00188741
0.00200103
0.00211057
0.00221643
0.0023188
0.00241809
0.00251469
0.00260888
0.00270094
0.00279108
0.00287951
0.00296641
0.00305194
0.00313624
0.00321941
0.00330153
0.00338267
0.00346285
0.0035421
0.00362039
0.00369772
0.00377403
0.00384927
0.00392337
0.00399628
0.00406789
0.00413814
0.00420692
0.00427416
0.00433975
0.00440361
0.00446565
0.00452578
0.00458392
0.00463999
0.00469391
0.00474562
0.00479505
0.00484214
0.00488685
0.00492911
0.00496889
0.00500616
0.0050409
0.00507307
0.00510266
0.00512967
0.00515409
0.00517592
0.00519518
0.00521189
0.00522605
0.00523771
0.00524688
0.0052536
0.00525792
0.00525986
0.00525952
0.00525691
0.00525209
0.00524513
0.00523607
0.005225
0.00521196
0.00519702
0.00518026
0.00516174
0.00514154
0.00511972
0.00509636
0.00507154
0.00504532
0.00501777
0.00498898
0.004959
0.00492792
0.0048958
0.00486271
0.00482872
0.00479389
0.00475829
0.00472198
0.00468503
0.0046475
0.00460945
0.00457094
0.00453202
0.00449274
0.00445316
0.00441333
0.00437329
0.00433309
0.00429277
0.00425237
0.00421193
0.00417149
0.00413108
0.00409073
0.00405048
0.00401036
0.00397038
0.00393058
0.00389097
0.00385158
0.00381243
0.00377354
0.00373492
0.00369659
0.00365856
0.00362084
0.00358345
0.00354639
0.00350967
0.00347331
0.0034373
0.00340165
0.00336637
0.00333146
0.00329691
0.00326275
0.00322895
0.00319554
0.0031625
0.00312983
0.00309755
0.00306564
0.0030341
0.00300294
0.00297215
0.00294172
0.00291167
0.00288197
0.00285264
0.00282366
0.00279504
0.00276676
0.00273883
0.00271124
0.00268399
0.00265707
0.00263048
0.00260422
0.00257828
0.00255265
0.00252734
0.00250233
0.00247763
0.00245322
0.0024291
0.00240526
0.00238169
0.00235838
0.00233533
0.0023125
0.00228989
0.00226746
0.00224519
0.00222303
0.00220093
0.00217882
0.00215663
0.00213424
0.00211167
0.00208838
0.00205772
1.92373e-06
0.000110196
0.000242383
0.000369674
0.000495406
0.000619909
0.000745097
0.000874848
0.00101261
0.00116032
0.00131816
0.00147979
0.00162743
0.00176375
0.00189175
0.00201341
0.00213001
0.00224236
0.00235099
0.0024563
0.00255859
0.00265805
0.00275513
0.00285017
0.00294347
0.00303526
0.00312574
0.00321507
0.00330338
0.00339077
0.00347732
0.00356308
0.00364806
0.00373226
0.00381566
0.00389822
0.00397989
0.00406059
0.00414025
0.00421879
0.0042961
0.00437208
0.00444665
0.00451968
0.00459109
0.00466076
0.0047286
0.00479452
0.00485841
0.00492018
0.00497977
0.00503709
0.00509206
0.00514462
0.00519472
0.00524229
0.00528731
0.00532972
0.00536949
0.0054066
0.00544104
0.00547279
0.00550184
0.0055282
0.00555187
0.00557287
0.00559122
0.00560694
0.00562007
0.00563062
0.00563865
0.00564419
0.0056473
0.00564803
0.00564642
0.00564255
0.00563646
0.00562821
0.00561787
0.00560551
0.00559119
0.00557498
0.00555694
0.00553717
0.00551571
0.00549265
0.00546807
0.00544202
0.00541459
0.00538584
0.00535584
0.00532468
0.0052924
0.00525909
0.00522481
0.00518962
0.00515359
0.00511679
0.00507928
0.00504112
0.00500236
0.00496307
0.00492331
0.00488312
0.00484256
0.00480168
0.00476053
0.00471914
0.00467757
0.00463586
0.00459405
0.00455218
0.00451027
0.00446838
0.00442652
0.00438473
0.00434304
0.00430148
0.00426006
0.00421882
0.00417777
0.00413694
0.00409634
0.00405599
0.00401592
0.00397612
0.00393661
0.00389742
0.00385854
0.00381998
0.00378176
0.00374388
0.00370635
0.00366918
0.00363236
0.0035959
0.0035598
0.00352407
0.00348871
0.00345372
0.0034191
0.00338486
0.00335099
0.00331748
0.00328435
0.00325159
0.0032192
0.00318717
0.0031555
0.0031242
0.00309325
0.00306266
0.00303242
0.00300253
0.00297299
0.00294379
0.00291493
0.00288641
0.00285821
0.00283035
0.00280281
0.00277559
0.00274868
0.00272208
0.00269577
0.00266976
0.00264403
0.00261857
0.00259336
0.00256838
0.00254361
0.00251901
0.00249454
0.00247014
0.00244576
0.00242132
0.0023967
0.00237191
0.00234641
0.00231361
1.53378e-06
0.000102061
0.000231939
0.000358906
0.000487609
0.000618991
0.000755708
0.000899677
0.00105257
0.0012149
0.00138718
0.00155297
0.00170459
0.00184477
0.00197627
0.00210105
0.00222045
0.00233541
0.00244659
0.00255448
0.00265947
0.00276186
0.00286191
0.00295983
0.00305604
0.00315082
0.00324441
0.00333701
0.00342875
0.00351974
0.00361005
0.00369972
0.00378877
0.00387719
0.00396494
0.00405198
0.00413824
0.00422363
0.00430807
0.00439145
0.00447367
0.00455462
0.00463419
0.00471226
0.00478872
0.00486345
0.00493634
0.0050073
0.00507622
0.005143
0.00520755
0.00526979
0.00532964
0.00538702
0.00544189
0.00549417
0.00554383
0.00559081
0.00563508
0.00567662
0.00571541
0.00575142
0.00578466
0.00581512
0.00584282
0.00586775
0.00588995
0.00590943
0.00592622
0.00594035
0.00595187
0.00596081
0.00596721
0.00597114
0.00597263
0.00597176
0.0059686
0.00596317
0.00595555
0.0059458
0.00593399
0.00592019
0.00590447
0.0058869
0.00586755
0.00584649
0.0058238
0.00579955
0.0057738
0.00574664
0.00571812
0.00568832
0.00565731
0.00562516
0.00559193
0.00555768
0.00552249
0.00548642
0.00544954
0.0054119
0.00537356
0.00533459
0.00529504
0.00525497
0.00521442
0.00517345
0.00513211
0.00509045
0.00504851
0.00500633
0.00496397
0.00492145
0.00487882
0.00483611