/*--------------------------------*- C++ -*----------------------------------*\
| =========                 |                                                 |
| \\      /  F ield         | OpenFOAM: The Open Source CFD Toolbox           |
|  \\    /   O peration     | Version:  v2012                                 |
|   \\  /    A nd           | Website:  www.openfoam.com                      |
|    \\/     M anipulation  |                                                 |
\*---------------------------------------------------------------------------*/
FoamFile
{
    version     2.0;
    format      ascii;
    class       volScalarField;
    location    "2300";
    object      nuTilda;
}
// * * * * * * * * * * * * * * * * * * * * * * * * * * * * * * * * * * * * * //

dimensions      [0 2 -1 0 0 0 0];


internalField   nonuniform List<scalar> 
12225
(
0.0122671
0.00158833
0.000666932
0.0004122
0.000298016
0.000234163
0.00019536
0.000157389
0.000177013
0.000224412
0.000234486
0.000227402
0.000211727
0.000185941
0.000182911
0.000158425
0.000144532
0.000133348
0.0323823
0.00744532
0.00330641
0.00204337
0.00146818
0.00114461
0.000938732
0.000785613
0.000692829
0.000630442
0.000573504
0.000523471
0.000480116
0.000442283
0.0004083
0.000374285
0.000349521
0.00032372
0.0490123
0.01515
0.00728196
0.00457856
0.00330642
0.00258056
0.00211301
0.00178273
0.00154815
0.00137311
0.00123145
0.0011152
0.00101836
0.000936703
0.000866477
0.000804023
0.000753876
0.000700621
0.063054
0.0237783
0.0122894
0.00788815
0.00573399
0.004485
0.00367428
0.0031048
0.00268771
0.00236946
0.00211666
0.00191165
0.00174253
0.001601
0.00148105
0.00137748
0.00129036
0.00120373
0.074932
0.0328517
0.0181452
0.0119262
0.00874549
0.00686414
0.00563083
0.00476163
0.0041188
0.00362508
0.00323397
0.00291734
0.00265657
0.00243875
0.00225469
0.00209725
0.00196252
0.00183913
0.0849536
0.0420208
0.0246655
0.0166359
0.0123325
0.00972588
0.00799541
0.00676755
0.00585402
0.0051496
0.00459114
0.00413891
0.00376649
0.00345548
0.0031927
0.00296836
0.00277557
0.00260614
0.0933822
0.0510219
0.0316642
0.0219415
0.016474
0.0130717
0.0107779
0.00913545
0.00790595
0.00695412
0.00619793
0.00558485
0.00507961
0.00465756
0.00430095
0.00399667
0.00373507
0.00350894
0.0993794
0.0583363
0.0378386
0.0268568
0.0204171
0.0163053
0.0134892
0.011453
0.00991903
0.00872658
0.00777677
0.00700546
0.0063692
0.0058374
0.00538796
0.00500452
0.00467504
0.00439176
0.104023
0.0645454
0.0433804
0.0314239
0.0241571
0.0194092
0.0161097
0.0137018
0.0118767
0.0104522
0.00931464
0.0083893
0.00762514
0.00698606
0.00644578
0.00598485
0.00558895
0.00524915
0.108368
0.0708939
0.0493757
0.0365497
0.0284517
0.0230231
0.0191863
0.0163548
0.0141927
0.0124969
0.0111382
0.0100305
0.00911453
0.00834782
0.00769935
0.00714606
0.00667098
0.0062633
0.112368
0.0772557
0.0557282
0.0421918
0.0332976
0.0271652
0.0227468
0.0194433
0.0168984
0.0148904
0.013275
0.0119546
0.0108606
0.00994396
0.00916816
0.00850609
0.00793761
0.00744943
0.115994
0.0834975
0.0623054
0.0482612
0.0386474
0.0318167
0.026789
0.0229739
0.0200047
0.0176453
0.0157379
0.0141737
0.012875
0.0117851
0.010862
0.0100738
0.00939692
0.00881488
0.119234
0.0894856
0.0689377
0.0546109
0.0443919
0.0369007
0.0312597
0.0269089
0.0234837
0.02074
0.0185097
0.0166736
0.015145
0.0138601
0.0127706
0.0118397
0.0110399
0.010351
0.122086
0.095084
0.075415
0.0610223
0.0503361
0.0422535
0.0360231
0.0311353
0.0272402
0.0240931
0.0215191
0.0193909
0.0176141
0.0161175
0.0148467
0.0137602
0.0128258
0.0120198
0.124546
0.100135
0.0814619
0.0671726
0.056158
0.047577
0.0408126
0.0354174
0.031066
0.0275197
0.0246013
0.0221778
0.0201482
0.018435
0.0169783
0.0157315
0.0146584
0.0137312
0.126578
0.104396
0.0866605
0.0725515
0.0613228
0.0523526
0.0451453
0.0393148
0.0345631
0.0306611
0.0274325
0.024741
0.0224806
0.020569
0.0189413
0.0175468
0.0163455
0.0153062
0.128011
0.107322
0.0902141
0.0762353
0.0648743
0.0556509
0.0481493
0.0420254
0.0370012
0.0328553
0.0294126
0.0265352
0.0241143
0.0220643
0.0203171
0.0188191
0.0175275
0.0164083
0.128006
0.107313
0.0902048
0.0762269
0.0648674
0.0556454
0.048145
0.0420221
0.0369988
0.0328536
0.0294117
0.0265349
0.0241147
0.0220651
0.0203184
0.0188205
0.0175286
0.0164082
0.126509
0.104255
0.0864922
0.0723807
0.0611613
0.052205
0.0450127
0.0391967
0.0344584
0.0305685
0.0273506
0.0246684
0.0224163
0.0205118
0.0188902
0.0175005
0.0163023
0.015263
0.124267
0.0995604
0.0807712
0.0664676
0.0554886
0.0469631
0.0402594
0.0349227
0.0306248
0.0271258
0.0242487
0.0218611
0.0198625
0.0181762
0.0167425
0.0155151
0.0144574
0.0135404
0.12136
0.0936399
0.0737261
0.0593348
0.0487592
0.0408248
0.0347466
0.0300003
0.0262308
0.0231927
0.0207127
0.018665
0.0169572
0.0155197
0.0142998
0.0132566
0.0123582
0.0115797
0.117686
0.0865903
0.0656967
0.0514791
0.0415374
0.0343608
0.0290183
0.0249322
0.0217348
0.0191848
0.0171184
0.015421
0.0140105
0.0128262
0.0118228
0.0109656
0.0102279
0.00958883
0.11305
0.0784122
0.056921
0.0432687
0.0342296
0.0279652
0.0234365
0.0200435
0.0174263
0.0153597
0.0136965
0.0123369
0.0112106
0.010267
0.0094686
0.00878712
0.00820093
0.00769337
0.107169
0.0691009
0.0476372
0.035029
0.0271566
0.021922
0.0182437
0.0155401
0.0134817
0.0118705
0.0105815
0.00953195
0.00866485
0.00793963
0.00732667
0.00680375
0.00635408
0.00596488
0.0996761
0.0587036
0.0381279
0.0270699
0.0205782
0.0164329
0.0135949
0.0115437
0.00999921
0.00879906
0.00784339
0.00706754
0.00642789
0.00589358
0.00544229
0.00505736
0.0047264
0.00444005
0.0901097
0.0473665
0.0287363
0.0196847
0.0146976
0.0116311
0.00957851
0.00811522
0.00702329
0.00617987
0.00551049
0.00496784
0.00452107
0.00414815
0.00383324
0.00356456
0.00333361
0.00313366
0.0779076
0.0353826
0.0198606
0.0131383
0.00966106
0.00759297
0.00623351
0.00527419
0.00456397
0.0040187
0.00358676
0.00323584
0.00294688
0.00270589
0.00250194
0.00232785
0.00217838
0.00204807
0.06238
0.0232554
0.0119461
0.00765494
0.00556338
0.00435257
0.00356723
0.00301637
0.00261305
0.00230791
0.00206615
0.00186649
0.0017012
0.00156401
0.00144587
0.00134577
0.00125984
0.0011815
0.0426105
0.0117794
0.00546931
0.00341388
0.00246077
0.00192015
0.00157277
0.00132985
0.00115841
0.00103921
0.000943952
0.000857483
0.000783329
0.000723491
0.000662357
0.000621326
0.00058053
0.00053362
0.0168348
0.0025599
0.00110031
0.000684193
0.00049518
0.000389163
0.000321406
0.00027321
0.000272762
0.000340689
0.000385037
0.000374248
0.000342354
0.000321664
0.000260743
0.000322503
0.000300582
0.000248955
3.7606e-06
1.4308e-05
2.59658e-05
3.84856e-05
4.60009e-05
4.96539e-05
5.0096e-05
4.76302e-05
4.44635e-05
3.93468e-05
3.40227e-05
2.92995e-05
2.6722e-05
2.73626e-05
2.96403e-05
3.13555e-05
3.11287e-05
2.81665e-05
2.34398e-05
2.01791e-05
2.04053e-05
2.66576e-05
3.94122e-05
6.51754e-05
8.76045e-05
0.000101063
0.000113668
0.000124645
0.000134566
0.000143035
0.000150589
0.00015718
0.000163017
0.000168149
0.000172664
0.000176675
0.00018025
0.000183459
0.000186347
0.000188951
0.000191294
0.000193394
0.000195267
0.000196926
0.000198382
0.000199647
0.000200729
0.000201634
0.000202362
0.000202911
0.000203141
0.000203374
0.000203418
0.000203299
0.000203021
0.000202606
0.000202049
0.000201356
0.000200526
0.000199564
0.000198471
0.000197249
0.000195901
0.00019443
0.00019284
0.000191132
0.000189308
0.000187372
0.000185327
0.000183177
0.000180924
0.000178573
0.000176127
0.000173591
0.000170967
0.00016826
0.000165474
0.000162609
0.000159665
0.000156642
0.000153532
0.00015033
0.000147026
0.000143614
0.000140088
0.000136446
0.000132692
0.000128829
0.000124853
0.000120756
0.000116518
0.000112122
0.000107564
0.000102899
9.83349e-05
9.43661e-05
9.15646e-05
8.9821e-05
8.85104e-05
8.73064e-05
8.61232e-05
8.49444e-05
8.37686e-05
8.25963e-05
8.14283e-05
8.02657e-05
7.911e-05
7.79651e-05
7.68526e-05
7.59011e-05
7.4967e-05
7.40392e-05
7.31195e-05
7.22079e-05
7.13051e-05
7.04112e-05
6.95266e-05
6.86517e-05
6.77869e-05
6.69321e-05
6.60877e-05
6.52537e-05
6.44307e-05
6.36189e-05
6.28184e-05
6.20289e-05
6.12519e-05
6.05146e-05
5.98373e-05
5.91687e-05
5.85053e-05
5.78562e-05
5.72252e-05
5.65982e-05
5.59762e-05
5.53622e-05
5.47574e-05
5.41622e-05
5.35767e-05
5.30008e-05
5.24344e-05
5.18771e-05
5.13291e-05
5.079e-05
5.02599e-05
4.97385e-05
4.92259e-05
4.87218e-05
4.82264e-05
4.77394e-05
4.72608e-05
4.67904e-05
4.63284e-05
4.58747e-05
4.54292e-05
4.4992e-05
4.45633e-05
4.41429e-05
4.37311e-05
4.3328e-05
4.2934e-05
4.2549e-05
4.21735e-05
4.18076e-05
4.14516e-05
4.11055e-05
4.07694e-05
4.0443e-05
4.01259e-05
3.98172e-05
3.95154e-05
3.92194e-05
3.89238e-05
3.86326e-05
3.83151e-05
3.80353e-05
3.75665e-05
3.73402e-05
3.62995e-05
3.49027e-05
5.88619e-06
4.07369e-05
9.25161e-05
0.000153717
0.00019238
0.000214199
0.000222792
0.000221225
0.000213193
0.000197519
0.000178431
0.000160576
0.000151861
0.000156683
0.000168964
0.000176667
0.000178942
0.00018035
0.000185724
0.000194226
0.00020858
0.000225206
0.000241099
0.000256511
0.000267361
0.000276846
0.000285415
0.000298251
0.000316694
0.000330318
0.000342761
0.000353468
0.000363221
0.000372149
0.00037992
0.000387022
0.000393643
0.000400001
0.000406225
0.000412377
0.000418453
0.000424408
0.000430191
0.000435761
0.00044109
0.00044616
0.000450958
0.00045547
0.000459698
0.000463652
0.000467323
0.000470758
0.000473927
0.000476849
0.000479521
0.000481947
0.000484125
0.000486057
0.000487744
0.000489185
0.000490381
0.000491333
0.000492044
0.000492517
0.000492763
0.000492787
0.000492583
0.000492149
0.000491499
0.000490638
0.000489572
0.000488307
0.000486851
0.00048521
0.000483392
0.000481404
0.000479254
0.000476949
0.000474498
0.000471906
0.000469182
0.000466332
0.000463362
0.000460279
0.00045709
0.000453803
0.00045043
0.000446979
0.000443461
0.000439885
0.000436258
0.000432583
0.000428861
0.000425082
0.000421229
0.000417275
0.000413205
0.000409046
0.000404849
0.000400638
0.00039642
0.000392199
0.00038798
0.000383764
0.000379556
0.00037536
0.000371177
0.00036701
0.00036286
0.000358724
0.000354612
0.00035053
0.000346479
0.00034246
0.000338477
0.000334529
0.00033062
0.00032675
0.000322921
0.000319134
0.00031539
0.000311689
0.000308033
0.000304422
0.000300859
0.000297342
0.000293872
0.000290446
0.000287064
0.000283729
0.000280439
0.000277204
0.000274023
0.000270879
0.000267773
0.00026471
0.000261694
0.000258724
0.000255801
0.000252925
0.000250094
0.000247309
0.000244569
0.000241872
0.000239219
0.00023661
0.000234043
0.000231518
0.000229036
0.000226594
0.000224193
0.000221833
0.000219513
0.000217233
0.000214994
0.000212795
0.000210636
0.000208519
0.000206444
0.000204411
0.000202422
0.000200479
0.000198582
0.000196733
0.000194934
0.000193185
0.000191488
0.000189843
0.000188248
0.000186703
0.000185202
0.000183746
0.000182313
0.000180942
0.00017948
0.000178309
0.000176344
0.000175942
0.000172991
0.000172071
1.2885e-05
7.40517e-05
0.000174127
0.000251505
0.000303031
0.000332471
0.000343076
0.000340072
0.00032731
0.000308396
0.000289234
0.000277253
0.000275383
0.00028211
0.000292276
0.000302942
0.000315661
0.000332567
0.000354045
0.000378877
0.000405936
0.000433951
0.000472909
0.000518838
0.000564217
0.00060814
0.000651071
0.000694615
0.000733592
0.000764607
0.0007894
0.000809063
0.000824656
0.000837034
0.000846976
0.000855251
0.000862555
0.000869528
0.000876703
0.000884429
0.000892812
0.000901726
0.000910932
0.000920196
0.00092934
0.000938245
0.000946837
0.000955067
0.000962899
0.000970306
0.000977258
0.00098374
0.000989736
0.000995244
0.00100026
0.00100479
0.00100883
0.00101237
0.00101542
0.00101798
0.00102005
0.00102162
0.0010227
0.00102324
0.0010234
0.00102311
0.00102232
0.00102108
0.00101939
0.00101727
0.00101473
0.00101179
0.00100845
0.00100474
0.00100066
0.000996231
0.000991467
0.000986382
0.000980993
0.000975313
0.000969358
0.000963143
0.000956683
0.000949992
0.000943085
0.000935978
0.000928684
0.00092122
0.000913599
0.000905834
0.000897937
0.00088992
0.000881793
0.000873562
0.000865235
0.000856824
0.00084834
0.000839799
0.000831218
0.000822609
0.000813983
0.00080535
0.000796717
0.000788092
0.000779482
0.000770894
0.000762335
0.00075381
0.000745325
0.000736886
0.000728498
0.000720167
0.000711897
0.000703692
0.000695556
0.000687493
0.000679504
0.000671594
0.000663766
0.00065602
0.000648359
0.000640786
0.000633301
0.000625907
0.000618606
0.000611396
0.000604279
0.000597256
0.000590326
0.000583492
0.000576752
0.000570109
0.000563559
0.000557096
0.00055072
0.000544433
0.000538238
0.000532134
0.000526122
0.000520202
0.000514372
0.000508631
0.000502979
0.000497414
0.000491936
0.000486543
0.000481234
0.000476009
0.000470865
0.000465803
0.00046082
0.000455915
0.000451088
0.000446338
0.000441663
0.000437061
0.000432533
0.000428077
0.000423692
0.000419376
0.000415128
0.000410946
0.000406829
0.000402775
0.00039878
0.000394842
0.000390956
0.000387118
0.00038332
0.000379554
0.000375809
0.000372071
0.000368314
0.000364521
0.000360622
0.000356638
0.00035225
0.000347927
0.000341523
0.000330299
2.1815e-05
0.00010641
0.000220014
0.000312394
0.00037479
0.000411467
0.000426621
0.00042685
0.000416873
0.000403715
0.000396002
0.000395458
0.000404949
0.000422239
0.000444974
0.000472687
0.000505995
0.000545217
0.00058954
0.000653156
0.000727098
0.000806981
0.000890732
0.000960921
0.00102303
0.00107889
0.00112907
0.00117375
0.00121281
0.00124652
0.00127563
0.00130085
0.00132289
0.00134237
0.00135986
0.00137586
0.00139076
0.00140491
0.00141857
0.00143191
0.00144507
0.00145812
0.00147107
0.00148392
0.00149661
0.00150907
0.00152119
0.00153289
0.00154407
0.00155466
0.00156461
0.00157388
0.00158245
0.00159031
0.00159744
0.00160384
0.00160951
0.00161445
0.00161864
0.0016221
0.00162482
0.0016268
0.00162795
0.00162839
0.00162826
0.00162735
0.00162572
0.0016234
0.0016204
0.00161674
0.00161244
0.00160752
0.001602
0.00159589
0.00158923
0.00158204
0.00157433
0.00156614
0.00155747
0.00154836
0.00153883
0.0015289
0.0015186
0.00150795
0.00149696
0.00148567
0.0014741
0.00146226
0.00145019
0.00143789
0.00142539
0.00141271
0.00139986
0.00138687
0.00137374
0.00136049
0.00134715
0.00133372
0.00132023
0.0013067
0.00129315
0.00127958
0.00126601
0.00125246
0.00123893
0.00122543
0.00121198
0.00119859
0.00118525
0.00117199
0.00115881
0.00114572
0.00113272
0.00111982
0.00110703
0.00109435
0.00108179
0.00106935
0.00105703
0.00104484
0.00103279
0.00102087
0.00100908
0.000997441
0.000985938
0.000974578
0.000963361
0.000952289
0.000941363
0.000930583
0.000919949
0.000909462
0.000899117
0.000888911
0.000878844
0.000868916
0.000859129
0.000849483
0.000839978
0.000830613
0.000821386
0.000812298
0.000803345
0.000794528
0.000785843
0.00077729
0.000768866
0.00076057
0.0007524
0.000744354
0.000736431
0.000728629
0.000720945
0.000713378
0.000705927
0.000698588
0.000691362
0.000684244
0.000677235
0.00067033
0.000663528
0.000656827
0.000650223
0.000643713
0.000637293
0.000630957
0.000624701
0.000618515
0.000612392
0.000606317
0.000600276
0.000594248
0.000588201
0.000582101
0.000575882
0.000569489
0.000562744
0.000555582
0.000547406
0.000531253
2.69718e-05
0.000121997
0.000240962
0.000357445
0.000435169
0.00048205
0.000505363
0.000513744
0.000515392
0.000516632
0.000523865
0.000540367
0.000566722
0.000601953
0.000645309
0.000696843
0.000757378
0.000841161
0.000937172
0.00103284
0.00112155
0.00120568
0.00128473
0.00135714
0.00142366
0.00148485
0.00154112
0.0015928
0.00164025
0.00168389
0.00172421
0.00176169
0.00179675
0.00182977
0.00186106
0.00189087
0.00191938
0.00194675
0.00197305
0.00199836
0.00202271
0.0020461
0.00206854
0.00208999
0.00211045
0.00212988
0.00214824
0.00216551
0.00218166
0.00219668
0.00221055
0.00222327
0.00223486
0.00224533
0.00225469
0.00226297
0.00227019
0.00227635
0.00228147
0.00228558
0.00228867
0.00229071
0.00229163
0.00229172
0.00229083
0.00228895
0.00228612
0.00228234
0.00227765
0.00227207
0.00226562
0.00225833
0.00225023
0.00224135
0.00223172
0.00222136
0.00221032
0.00219861
0.00218628
0.00217335
0.00215985
0.00214582
0.00213128
0.00211627
0.00210082
0.00208495
0.0020687
0.00205211
0.00203519
0.00201797
0.00200049
0.00198276
0.00196482
0.00194668
0.00192838
0.00190992
0.00189135
0.00187267
0.00185391
0.00183511
0.00181626
0.00179741
0.00177855
0.00175972
0.00174092
0.00172218
0.00170349
0.00168489
0.00166637
0.00164795
0.00162965
0.00161146
0.00159341
0.0015755
0.00155773
0.00154012
0.00152266
0.00150538
0.00148826
0.00147133
0.00145457
0.001438
0.00142161
0.00140542
0.00138942
0.00137362
0.00135801
0.0013426
0.00132739
0.00131237
0.00129756
0.00128295
0.00126853
0.0012543
0.00124027
0.00122643
0.00121278
0.00119932
0.00118606
0.00117298
0.00116009
0.00114739
0.00113488
0.00112255
0.0011104
0.00109843
0.00108663
0.00107501
0.00106356
0.00105228
0.00104117
0.00103021
0.00101942
0.00100879
0.000998313
0.000987989
0.000977816
0.000967791
0.000957911
0.000948173
0.000938574
0.00092911
0.000919777
0.000910572
0.000901488
0.000892519
0.000883659
0.000874898
0.000866224
0.000857623
0.000849075
0.000840556
0.000832032
0.000823459
0.00081477
0.000805895
0.000796666
0.000786941
0.000777012
0.000757196
3.07965e-05
0.000135286
0.000261373
0.000392161
0.000488173
0.000549575
0.000587198
0.000610629
0.000628526
0.000648122
0.000674604
0.000710562
0.000756706
0.00081331
0.000880928
0.000971758
0.00107709
0.00117868
0.00127774
0.00137298
0.00146343
0.00154919
0.0016302
0.00170645
0.00177821
0.00184586
0.00190971
0.00197012
0.00202741
0.00208191
0.00213394
0.00218379
0.0022317
0.00227789
0.00232251
0.00236568
0.00240749
0.00244799
0.00248722
0.00252518
0.00256187
0.00259727
0.00263135
0.00266407
0.0026954
0.00272529
0.00275371
0.00278061
0.00280596
0.00282972
0.00285187
0.00287239
0.00289125
0.00290846
0.00292399
0.00293786
0.00295005
0.00296059
0.00296949
0.00297675
0.0029824
0.00298648
0.00298891
0.00298981
0.00298934
0.00298737
0.00298403
0.00297932
0.00297332
0.00296606
0.00295761
0.00294802
0.00293733
0.0029256
0.00291288
0.00289921
0.00288464
0.00286923
0.002853
0.00283601
0.00281829
0.0027999
0.00278086
0.00276123
0.00274103
0.00272032
0.00269914
0.00267751
0.00265547
0.00263307
0.00261034
0.00258731
0.00256402
0.00254049
0.00251675
0.00249284
0.00246879
0.00244462
0.00242036
0.00239604
0.00237168
0.00234731
0.00232295
0.00229862
0.00227433
0.00225012
0.00222599
0.00220196
0.00217805
0.00215428
0.00213064
0.00210717
0.00208386
0.00206073
0.00203779
0.00201505
0.00199251
0.00197019
0.00194808
0.0019262
0.00190456
0.00188315
0.00186197
0.00184104
0.00182036
0.00179992
0.00177974
0.0017598
0.00174012
0.00172069
0.00170151
0.00168259
0.00166391
0.00164548
0.0016273
0.00160936
0.00159166
0.00157421
0.00155699
0.00154002
0.00152329
0.0015068
0.00149054
0.0014745
0.0014587
0.00144312
0.00142777
0.00141263
0.00139771
0.001383
0.0013685
0.00135421
0.00134012
0.00132623
0.00131253
0.00129903
0.00128571
0.00127258
0.00125964
0.00124687
0.00123427
0.00122185
0.00120959
0.0011975
0.00118556
0.00117376
0.0011621
0.00115058
0.00113917
0.00112786
0.00111662
0.00110544
0.00109428
0.00108308
0.00107179
0.00106032
0.00104852
0.00103631
0.00102416
0.00100168
3.23438e-05
0.000142462
0.000273834
0.000409556
0.000527308
0.000608401
0.000664435
0.000706464
0.000743694
0.000783347
0.000830435
0.000887865
0.000957365
0.00105006
0.00115729
0.00126388
0.00136991
0.00147314
0.00157303
0.00166919
0.00176139
0.00184963
0.00193401
0.00201469
0.00209192
0.00216597
0.00223712
0.00230563
0.00237175
0.00243573
0.00249777
0.00255805
0.00261672
0.00267389
0.00272964
0.00278404
0.00283712
0.00288888
0.00293932
0.00298843
0.00303617
0.00308251
0.0031274
0.00317079
0.00321263
0.00325287
0.00329145
0.00332833
0.00336344
0.00339675
0.00342821
0.00345779
0.00348544
0.00351113
0.00353486
0.00355658
0.00357628
0.00359397
0.00360962
0.00362324
0.00363484
0.00364442
0.003652
0.00365762
0.00366127
0.00366288
0.0036628
0.00366081
0.00365703
0.00365152
0.00364431
0.00363547
0.00362505
0.00361312
0.00359973
0.00358496
0.00356887
0.00355153
0.003533
0.00351335
0.00349264
0.00347095
0.00344835
0.00342489
0.00340064
0.00337566
0.00335001
0.00332376
0.00329695
0.00326964
0.00324189
0.00321374
0.00318523
0.00315642
0.00312733
0.00309803
0.00306853
0.00303888
0.00300912
0.00297927
0.00294937
0.00291945
0.00288954
0.00285966
0.00282984
0.0028001
0.00277047
0.00274095
0.00271158
0.00268236
0.00265332
0.00262447
0.00259582
0.00256739
0.00253919
0.00251123
0.00248351
0.00245606
0.00242887
0.00240195
0.00237531
0.00234895
0.00232289
0.00229712
0.00227164
0.00224646
0.00222159
0.00219701
0.00217274
0.00214878
0.00212512
0.00210176
0.0020787
0.00205594
0.00203347
0.00201131
0.00198943
0.00196785
0.00194656
0.00192556
0.00190484
0.00188441
0.00186426
0.00184439
0.00182479
0.00180546
0.0017864
0.0017676
0.00174906
0.00173077
0.00171273
0.00169495
0.0016774
0.0016601
0.00164303
0.00162619
0.00160958
0.0015932
0.00157703
0.00156108
0.00154534
0.0015298
0.00151447
0.00149933
0.00148438
0.00146961
0.00145501
0.00144057
0.00142627
0.00141211
0.00139805
0.00138408
0.00137014
0.0013562
0.00134218
0.00132802
0.00131356
0.00129881
0.00128382
0.00125957
3.27838e-05
0.000144052
0.000275117
0.000409072
0.000538772
0.000641998
0.00071914
0.000780639
0.000836633
0.000894817
0.000963198
0.00105575
0.00116586
0.00128735
0.00140283
0.001514
0.00162172
0.00172616
0.00182726
0.00192497
0.0020193
0.00211034
0.00219824
0.00228319
0.00236541
0.00244512
0.00252254
0.00259789
0.00267136
0.00274311
0.00281329
0.00288202
0.00294939
0.00301546
0.00308026
0.00314383
0.00320616
0.00326723
0.00332702
0.00338549
0.00344258
0.00349825
0.00355243
0.00360506
0.00365607
0.00370541
0.003753
0.00379878
0.00384269
0.00388467
0.00392467
0.00396263
0.00399851
0.00403226
0.00406385
0.00409324
0.00412042
0.00414535
0.00416802
0.00418842
0.00420654
0.00422239
0.00423597
0.0042473
0.00425639
0.00426326
0.00426798
0.00427043
0.00427087
0.00426922
0.00426555
0.00425991
0.00425234
0.00424291
0.00423168
0.00421871
0.00420406
0.0041878
0.00417001
0.00415074
0.00413008
0.00410808
0.00408484
0.00406041
0.00403487
0.00400829
0.00398075
0.0039523
0.00392303
0.003893
0.00386228
0.00383092
0.00379898
0.00376654
0.00373365
0.00370035
0.00366671
0.00363278
0.0035986
0.00356423
0.0035297
0.00349507
0.00346037
0.00342564
0.00339091
0.00335622
0.00332159
0.00328706
0.00325264
0.00321838
0.00318428
0.00315037
0.00311667
0.0030832
0.00304997
0.00301699
0.00298429
0.00295187
0.00291974
0.00288791
0.00285639
0.0028252
0.00279432
0.00276378
0.00273358
0.00270371
0.00267418
0.002645
0.00261617
0.00258769
0.00255955
0.00253176
0.00250431
0.00247721
0.00245045
0.00242403
0.00239795
0.0023722
0.0023468
0.00232172
0.00229698
0.00227256
0.00224847
0.0022247
0.00220125
0.00217811
0.00215527
0.00213275
0.00211052
0.00208859
0.00206695
0.0020456
0.00202453
0.00200374
0.00198323
0.00196298
0.001943
0.00192328
0.00190382
0.00188462
0.00186565
0.00184693
0.00182845
0.0018102
0.00179216
0.00177435
0.00175673
0.00173931
0.00172207
0.00170499
0.00168804
0.0016712
0.00165443
0.00163768
0.00162088
0.00160395
0.00158677
0.00156937
0.00155145
0.00152532
3.22212e-05
0.00014109
0.000268646
0.000397556
0.000521147
0.000633001
0.000726732
0.000808103
0.000891941
0.000987792
0.00109754
0.00122261
0.00135905
0.00148644
0.00160663
0.00172154
0.00183214
0.00193879
0.0020418
0.00214154
0.00223823
0.00233206
0.00242325
0.00251199
0.00259849
0.00268296
0.00276558
0.00284653
0.00292597
0.00300402
0.00308078
0.00315635
0.00323076
0.00330406
0.00337625
0.00344734
0.0035173
0.00358608
0.00365365
0.00371995
0.0037849
0.00384845
0.00391051
0.00397101
0.00402987
0.00408701
0.00414236
0.00419584
0.00424738
0.0042969
0.00434435
0.00438966
0.00443277
0.00447364
0.00451221
0.00454845
0.00458233
0.00461381
0.00464287
0.00466949
0.00469367
0.0047154
0.00473467
0.0047515
0.00476591
0.00477789
0.0047875
0.00479473
0.00479966
0.00480223
0.00480262
0.0048008
0.00479684
0.00479078
0.00478267
0.00477259
0.00476059
0.00474674
0.0047311
0.00471374
0.00469473
0.00467415
0.00465206
0.00462853
0.00460365
0.00457748
0.00455009
0.00452157
0.00449197
0.00446138
0.00442985
0.00439747
0.0043643
0.00433039
0.00429583
0.00426066
0.00422496
0.00418877
0.00415217
0.0041152
0.00407792
0.00404038
0.00400263
0.00396471
0.00392667
0.00388856
0.0038504
0.00381225
0.00377412
0.00373606
0.0036981
0.00366026
0.00362258
0.00358507
0.00354776
0.00351067
0.00347383
0.00343723
0.00340092
0.00336489
0.00332916
0.00329375
0.00325866
0.0032239
0.00318949
0.00315542
0.00312171
0.00308836
0.00305537
0.00302274
0.00299049
0.00295861
0.00292709
0.00289595
0.00286518
0.00283477
0.00280474
0.00277507
0.00274577
0.00271684
0.00268826
0.00266005
0.0026322
0.0026047
0.00257755
0.00255075
0.00252429
0.00249817
0.00247239
0.00244693
0.0024218
0.002397
0.00237251
0.00234834
0.00232447
0.00230091
0.00227765
0.00225469
0.00223201
0.00220963
0.00218752
0.00216569
0.00214412
0.00212282
0.00210178
0.00208098
0.00206041
0.00204007
0.00201994
0.00199999
0.00198021
0.00196056
0.001941
0.00192148
0.00190193
0.00188229
0.00186241
0.00184236
0.00182163
0.0017933
3.08474e-05
0.000134997
0.000257884
0.000383045
0.000504895
0.000620927
0.000731663
0.000840991
0.000956284
0.00108257
0.00122099
0.001371
0.00151318
0.00164504
0.00176919
0.00188751
0.00200112
0.00211065
0.0022165
0.00231887
0.00241815
0.00251474
0.00260894
0.00270099
0.00279112
0.00287955
0.00296645
0.00305198
0.00313628
0.00321944
0.00330157
0.0033827
0.00346288
0.00354213
0.00362042
0.00369774
0.00377405
0.00384929
0.0039234
0.0039963
0.00406792
0.00413816
0.00420694
0.00427418
0.00433977
0.00440363
0.00446566
0.00452579
0.00458393
0.00464
0.00469393
0.00474564
0.00479507
0.00484216
0.00488686
0.00492912
0.00496891
0.00500618
0.00504091
0.00507308
0.00510267
0.00512968
0.0051541
0.00517594
0.0051952
0.0052119
0.00522607
0.00523772
0.00524689
0.00525362
0.00525794
0.00525987
0.00525953
0.00525692
0.00525211
0.00524514
0.00523609
0.00522501
0.00521197
0.00519703
0.00518027
0.00516176
0.00514155
0.00511974
0.00509638
0.00507155
0.00504533
0.00501779
0.00498899
0.00495902
0.00492794
0.00489582
0.00486272
0.00482873
0.0047939
0.0047583
0.004722
0.00468505
0.00464752
0.00460947
0.00457096
0.00453203
0.00449276
0.00445318
0.00441335
0.00437331
0.0043331
0.00429278
0.00425239
0.00421195
0.00417151
0.0041311
0.00409076
0.00405051
0.00401038
0.0039704
0.0039306
0.00389099
0.00385161
0.00381246
0.00377357
0.00373495
0.00369661
0.00365858
0.00362087
0.00358348
0.00354642
0.0035097
0.00347334
0.00343733
0.00340168
0.0033664
0.00333149
0.00329695
0.00326278
0.00322899
0.00319557
0.00316253
0.00312987
0.00309758
0.00306567
0.00303414
0.00300298
0.00297219
0.00294176
0.00291171
0.00288202
0.00285268
0.00282371
0.00279508
0.00276681
0.00273888
0.00271129
0.00268404
0.00265712
0.00263054
0.00260427
0.00257833
0.00255271
0.0025274
0.00250239
0.00247769
0.00245328
0.00242916
0.00240532
0.00238175
0.00235845
0.00233539
0.00231257
0.00228996
0.00226753
0.00224526
0.0022231
0.002201
0.0021789
0.00215671
0.00213431
0.00211175
0.00208846
0.00205781
2.9299e-05
0.000128698
0.000248066
0.000372239
0.000496852
0.000620836
0.00074574
0.000875314
0.00101296
0.00116059
0.00131836
0.00147995
0.00162756
0.00176387
0.00189185
0.0020135
0.00213009
0.00224243
0.00235106
0.00245636
0.00255865
0.0026581
0.00275518
0.00285022
0.00294351
0.0030353
0.00312577
0.0032151
0.00330341
0.0033908
0.00347735
0.00356311
0.00364808
0.00373228
0.00381568
0.00389824
0.00397991
0.00406061
0.00414027
0.00421881
0.00429612
0.0043721
0.00444666
0.0045197
0.00459111
0.00466078
0.00472862
0.00479453
0.00485842
0.0049202
0.00497979
0.0050371
0.00509207
0.00514463
0.00519473
0.00524231
0.00528732
0.00532973
0.0053695
0.00540662
0.00544105
0.0054728
0.00550185
0.00552821
0.00555188
0.00557288
0.00559123
0.00560695
0.00562008
0.00563063
0.00563866
0.0056442
0.00564732
0.00564804
0.00564644
0.00564256
0.00563647
0.00562822
0.00561788
0.00560552
0.0055912
0.00557499
0.00555696
0.00553718
0.00551572
0.00549267
0.00546808
0.00544203
0.0054146
0.00538585
0.00535586
0.00532469
0.00529241
0.0052591
0.00522482
0.00518963
0.00515361
0.00511681
0.00507929
0.00504113
0.00500238
0.00496309
0.00492333
0.00488314
0.00484258
0.0048017
0.00476054
0.00471916
0.00467759
0.00463588
0.00459407
0.0045522
0.00451029
0.0044684
0.00442654
0.00438475
0.00434306
0.00430149
0.00426008
0.00421884
0.00417779
0.00413696
0.00409636
0.00405602
0.00401594
0.00397614
0.00393664
0.00389744
0.00385856
0.00382001
0.00378179
0.00374391
0.00370638
0.0036692
0.00363238
0.00359592
0.00355983
0.0035241
0.00348874
0.00345375
0.00341914
0.00338489
0.00335102
0.00331752
0.00328439
0.00325162
0.00321923
0.0031872
0.00315554
0.00312424
0.00309329
0.0030627
0.00303246
0.00300257
0.00297303
0.00294383
0.00291497
0.00288645
0.00285826
0.00283039
0.00280285
0.00277563
0.00274872
0.00272212
0.00269582
0.00266981
0.00264409
0.00261863
0.00259342
0.00256844
0.00254366
0.00251906
0.00249459
0.0024702
0.00244582
0.00242138
0.00239677
0.00237197
0.00234648
0.00231367
2.76115e-05
0.000122119
0.000238089
0.000361622
0.000489101
0.000619921
0.000756333
0.000900119
0.00105289
0.00121514
0.00138737
0.00155312
0.00170471
0.00184488
0.00197636
0.00210113
0.00222053
0.00233548
0.00244665
0.00255454
0.00265952
0.0027619
0.00286196
0.00295987
0.00305608
0.00315085
0.00324445
0.00333704
0.00342878
0.00351976
0.00361007
0.00369974
0.00378879
0.00387721
0.00396497
0.004052
0.00413826
0.00422365
0.00430809
0.00439147
0.00447369
0.00455464
0.00463421
0.00471228
0.00478873
0.00486346
0.00493636
0.00500732
0.00507623
0.00514301
0.00520756
0.0052698
0.00532965
0.00538704
0.0054419
0.00549419
0.00554384
0.00559082
0.0056351
0.00567664
0.00571542
0.00575143
0.00578467
0.00581513
0.00584283
0.00586776
0.00588996
0.00590944
0.00592623
0.00594036
0.00595188
0.00596082
0.00596722
0.00597115
0.00597264
0.00597177
0.00596861
0.00596318
0.00595556
0.00594581
0.005934
0.0059202
0.00590448
0.00588691
0.00586756
0.0058465
0.00582381
0.00579956
0.00577382
0.00574665
0.00571813
0.00568833
0.00565732
0.00562517
0.00559194
0.00555769
0.00552251
0.00548644
0.00544955
0.00541191
0.00537358
0.00533461
0.00529506
0.00525498
0.00521443
0.00517347
0.00513213
0.00509046
0.00504852
0.00500635
0.00496398
0.00492147
0.00487884
0.00483613
0.00479338
0.00475062