/*--------------------------------*- C++ -*----------------------------------*\
| =========                 |                                                 |
| \\      /  F ield         | OpenFOAM: The Open Source CFD Toolbox           |
|  \\    /   O peration     | Version:  v2012                                 |
|   \\  /    A nd           | Website:  www.openfoam.com                      |
|    \\/     M anipulation  |                                                 |
\*---------------------------------------------------------------------------*/
FoamFile
{
    version     2.0;
    format      ascii;
    class       surfaceScalarField;
    location    "2300";
    object      phi;
}
// * * * * * * * * * * * * * * * * * * * * * * * * * * * * * * * * * * * * * //

dimensions      [0 3 -1 0 0 0 0];
oriented        oriented;


internalField   nonuniform List<scalar> 
24170
(
3.92539e-06
-7.91497e-07
3.76461e-06
1.60757e-07
3.63337e-06
1.31208e-07
3.43319e-06
2.00139e-07
3.28007e-06
1.5308e-07
3.18942e-06
9.06235e-08
3.12907e-06
6.02529e-08
3.08116e-06
4.76241e-08
3.04128e-06
3.9462e-08
3.00442e-06
3.63405e-08
2.96984e-06
3.40779e-08
2.93787e-06
3.15176e-08
2.90863e-06
2.88808e-08
2.88214e-06
2.62116e-08
2.85845e-06
2.3504e-08
2.83894e-06
1.94649e-08
2.8309e-06
8.17544e-09
-9.43083e-09
2.84049e-06
3.58444e-06
-9.19498e-07
3.80423e-06
-5.90406e-08
3.74279e-06
1.9262e-07
3.69054e-06
2.52363e-07
3.63724e-06
2.06336e-07
3.58983e-06
1.37979e-07
3.55257e-06
9.73924e-08
3.52377e-06
7.61959e-08
3.50036e-06
6.25362e-08
3.48088e-06
5.53734e-08
3.46382e-06
5.06605e-08
3.44833e-06
4.65249e-08
3.43405e-06
4.27499e-08
3.42061e-06
3.92946e-08
3.40802e-06
3.58174e-08
3.39624e-06
3.10775e-08
3.3846e-06
1.97794e-08
3.83361e-09
3.37107e-06
3.68518e-06
-7.92482e-07
3.83638e-06
-2.1025e-07
3.91492e-06
1.14076e-07
3.94499e-06
2.22288e-07
3.94406e-06
2.07265e-07
3.92721e-06
1.54826e-07
3.9078e-06
1.16815e-07
3.89027e-06
9.37734e-08
3.87466e-06
7.82469e-08
3.86141e-06
6.87475e-08
3.84986e-06
6.234e-08
3.83927e-06
5.72051e-08
3.82931e-06
5.27538e-08
3.8199e-06
4.86885e-08
3.81117e-06
4.44866e-08
3.80306e-06
3.91184e-08
3.79323e-06
2.95254e-08
1.76052e-08
3.77919e-06
4.05359e-06
-6.41511e-07
4.11459e-06
-2.71264e-07
4.20798e-06
2.06777e-08
4.26634e-06
1.63916e-07
4.29068e-06
1.82905e-07
4.29272e-06
1.52752e-07
4.28601e-06
1.23498e-07
4.27704e-06
1.02759e-07
4.2676e-06
8.77623e-08
4.25883e-06
7.76223e-08
4.25084e-06
7.04286e-08
4.24332e-06
6.477e-08
4.23612e-06
5.99601e-08
4.22914e-06
5.56122e-08
4.22235e-06
5.11878e-08
4.21537e-06
4.59797e-08
4.20617e-06
3.85887e-08
3.03948e-08
4.19311e-06
4.50491e-06
-5.09115e-07
4.51536e-06
-2.81712e-07
4.58528e-06
-4.92454e-08
4.64664e-06
1.02554e-07
4.68256e-06
1.46982e-07
4.6968e-06
1.38519e-07
4.69972e-06
1.20611e-07
4.69775e-06
1.04801e-07
4.69353e-06
9.20975e-08
4.68862e-06
8.26807e-08
4.6836e-06
7.55941e-08
4.67854e-06
6.9943e-08
4.67342e-06
6.51608e-08
4.66817e-06
6.08921e-08
4.66263e-06
5.67085e-08
4.65632e-06
5.2227e-08
4.64782e-06
4.69981e-08
4.21369e-08
4.63591e-06
5.00014e-06
-3.94666e-07
4.98614e-06
-2.67712e-07
5.03068e-06
-9.37961e-08
5.08505e-06
4.81755e-08
5.12452e-06
1.07492e-07
5.14606e-06
1.16956e-07
5.15605e-06
1.1062e-07
5.15977e-06
1.01113e-07
5.16002e-06
9.19161e-08
5.15854e-06
8.42578e-08
5.15618e-06
7.80495e-08
5.15327e-06
7.293e-08
5.1499e-06
6.85702e-08
5.14605e-06
6.47355e-08
5.14155e-06
6.11681e-08
5.13596e-06
5.7747e-08
5.12837e-06
5.45019e-08
5.2347e-08
5.11798e-06
5.54382e-06
-2.97477e-07
5.51664e-06
-2.40535e-07
5.54055e-06
-1.17699e-07
5.58387e-06
4.85249e-09
5.62165e-06
6.97154e-08
5.64657e-06
9.20452e-08
5.66123e-06
9.59794e-08
5.66931e-06
9.30785e-08
5.67328e-06
8.80081e-08
5.67481e-06
8.28035e-08
5.67485e-06
7.80868e-08
5.67387e-06
7.39717e-08
5.67208e-06
7.04037e-08
5.66952e-06
6.73134e-08
5.66605e-06
6.46258e-08
5.66137e-06
6.23942e-08
5.65495e-06
6.08501e-08
6.07562e-08
5.64647e-06
4.34788e-06
-2.39245e-07
4.32251e-06
-2.15172e-07
4.33078e-06
-1.2597e-07
4.35419e-06
-1.85635e-08
4.3784e-06
4.54946e-08
4.39647e-06
7.39604e-08
4.40847e-06
8.39865e-08
4.41605e-06
8.55094e-08
4.42064e-06
8.3446e-08
4.42327e-06
8.02139e-08
4.42458e-06
7.68163e-08
4.42494e-06
7.36421e-08
4.42455e-06
7.08205e-08
4.42346e-06
6.84064e-08
4.42163e-06
6.64403e-08
4.41894e-06
6.5064e-08
4.4152e-06
6.45742e-08
6.55304e-08
4.41034e-06
5.08622e-06
-1.85603e-07
5.05777e-06
-1.86727e-07
5.0584e-06
-1.26597e-07
5.07687e-06
-3.70311e-08
5.09918e-06
2.31782e-08
5.11774e-06
5.53987e-08
5.13129e-06
7.04449e-08
5.14066e-06
7.61609e-08
5.14691e-06
7.72113e-08
5.15097e-06
7.61779e-08
5.15348e-06
7.43397e-08
5.15481e-06
7.23217e-08
5.15522e-06
7.04292e-08
5.15478e-06
6.88394e-08
5.15351e-06
6.76974e-08
5.15135e-06
6.72056e-08
5.14824e-06
6.76483e-08
6.94888e-08
5.14427e-06
5.94839e-06
-1.38198e-07
5.91832e-06
-1.56659e-07
5.91161e-06
-1.19888e-07
5.924e-06
-4.94313e-08
5.94286e-06
4.31302e-09
5.9606e-06
3.76598e-08
5.97485e-06
5.62018e-08
5.98553e-06
6.5486e-08
5.99325e-06
6.94985e-08
5.99871e-06
7.07324e-08
6.00246e-06
7.06017e-08
6.00489e-06
6.9901e-08
6.00624e-06
6.90782e-08
6.00665e-06
6.84299e-08
6.00617e-06
6.81725e-08
6.00483e-06
6.85357e-08
6.00269e-06
6.97929e-08
7.22174e-08
5.99992e-06
6.95439e-06
-9.83182e-08
6.92402e-06
-1.26289e-07
6.91113e-06
-1.07009e-07
6.91681e-06
-5.51058e-08
6.93088e-06
-9.7656e-09
6.94637e-06
2.21648e-08
6.9602e-06
4.23829e-08
6.97146e-06
5.42293e-08
6.98023e-06
6.07367e-08
6.98689e-06
6.40775e-08
6.99184e-06
6.56496e-08
6.99542e-06
6.63198e-08
6.99785e-06
6.66464e-08
6.9993e-06
6.69817e-08
6.99986e-06
6.76061e-08
6.99966e-06
6.87511e-08
6.99881e-06
7.06196e-08
7.3422e-08
6.9976e-06
8.12719e-06
-6.64934e-08
8.09793e-06
-9.70321e-08
8.08056e-06
-8.96368e-08
8.07955e-06
-5.41038e-08
8.08794e-06
-1.81531e-08
8.09987e-06
1.02341e-08
8.11202e-06
3.02348e-08
8.12291e-06
4.33518e-08
8.13207e-06
5.15749e-08
8.13954e-06
5.66056e-08
8.14552e-06
5.96711e-08
8.15021e-06
6.16304e-08
8.15381e-06
6.30431e-08
8.15647e-06
6.4324e-08
8.15834e-06
6.57436e-08
8.15956e-06
6.75275e-08
8.16035e-06
6.98385e-08
7.27754e-08
8.16096e-06
9.49368e-06
-4.24458e-08
9.4668e-06
-7.01553e-08
9.44683e-06
-6.96718e-08
9.43991e-06
-4.71825e-08
9.4423e-06
-2.05409e-08
9.44967e-06
2.85738e-09
9.45898e-06
2.09329e-08
9.46844e-06
3.38981e-08
9.4772e-06
4.28231e-08
9.48494e-06
4.88651e-08
9.49162e-06
5.30009e-08
9.49728e-06
5.59543e-08
9.50206e-06
5.8272e-08
9.50606e-06
6.03154e-08
9.50944e-06
6.23684e-08
9.51236e-06
6.46016e-08
9.51504e-06
6.71538e-08
7.00595e-08
9.51775e-06
1.10854e-05
-2.5167e-08
1.10618e-05
-4.65163e-08
1.1041e-05
-4.8841e-08
1.10294e-05
-3.56066e-08
1.10261e-05
-1.72466e-08
1.10284e-05
5.01318e-10
1.1034e-05
1.53409e-08
1.10411e-05
2.68023e-08
1.10487e-05
3.52855e-08
1.10561e-05
4.14719e-08
1.10631e-05
4.60296e-08
1.10695e-05
4.95214e-08
1.10754e-05
5.23707e-08
1.10808e-05
5.48993e-08
1.10858e-05
5.73204e-08
1.10906e-05
5.97885e-08
1.10954e-05
6.23746e-08
6.51155e-08
1.11003e-05
1.29396e-05
-1.31271e-08
1.29194e-05
-2.62927e-08
1.28988e-05
-2.82863e-08
1.28839e-05
-2.07428e-08
1.28758e-05
-9.07417e-09
1.28732e-05
3.04159e-09
1.28748e-05
1.38078e-08
1.2879e-05
2.26244e-08
1.28847e-05
2.95463e-08
1.28913e-05
3.491e-08
1.28982e-05
3.91136e-08
1.29052e-05
4.25212e-08
1.29121e-05
4.54248e-08
1.2919e-05
4.80433e-08
1.29258e-05
5.0526e-08
1.29326e-05
5.29667e-08
1.29395e-05
5.54087e-08
5.78553e-08
1.29468e-05
1.50998e-05
-4.49129e-09
1.50822e-05
-8.69069e-09
1.50621e-05
-8.14731e-09
1.50448e-05
-3.51309e-09
1.50327e-05
3.03383e-09
1.50259e-05
9.83678e-09
1.50237e-05
1.60335e-08
1.5025e-05
2.13057e-08
1.50289e-05
2.56644e-08
1.50346e-05
2.92634e-08
1.50414e-05
3.23006e-08
1.50489e-05
3.4956e-08
1.5057e-05
3.73743e-08
1.50654e-05
3.96576e-08
1.5074e-05
4.18692e-08
1.50829e-05
4.40399e-08
1.50922e-05
4.61729e-08
4.82486e-08
1.51018e-05
1.76171e-05
2.88494e-09
1.75999e-05
8.50594e-09
1.75787e-05
1.29927e-08
1.7559e-05
1.6226e-08
1.75436e-05
1.83962e-08
1.75336e-05
1.98633e-08
1.75287e-05
2.09299e-08
1.75282e-05
2.18492e-08
1.75311e-05
2.2765e-08
1.75365e-05
2.37856e-08
1.75439e-05
2.49468e-08
1.75526e-05
2.62713e-08
1.75622e-05
2.77412e-08
1.75725e-05
2.93379e-08
1.75834e-05
3.10205e-08
1.75947e-05
3.27531e-08
1.76063e-05
3.4486e-08
3.61773e-08
1.76184e-05
1.78181e-05
1.09933e-08
1.77994e-05
2.71873e-08
1.77768e-05
3.5587e-08
1.7756e-05
3.70015e-08
1.77402e-05
3.4259e-08
1.77302e-05
2.98569e-08
1.77257e-05
2.53974e-08
1.77259e-05
2.16497e-08
1.77298e-05
1.89303e-08
1.77363e-05
1.72273e-08
1.77449e-05
1.64393e-08
1.77547e-05
1.63824e-08
1.77656e-05
1.69002e-08
1.77771e-05
1.78243e-08
1.77891e-05
1.90341e-08
1.78014e-05
2.0405e-08
1.78141e-05
2.18601e-08
2.33096e-08
1.78269e-05
1.58702e-05
2.21266e-08
1.58478e-05
4.95538e-08
1.58233e-05
6.00908e-08
1.58032e-05
5.71827e-08
1.57899e-05
4.75433e-08
1.57834e-05
3.62969e-08
1.57827e-05
2.611e-08
1.57863e-05
1.80485e-08
1.5793e-05
1.22489e-08
1.58018e-05
8.48026e-09
1.58119e-05
6.34143e-09
1.58228e-05
5.45167e-09
1.58343e-05
5.4632e-09
1.5846e-05
6.1077e-09
1.58579e-05
7.15966e-09
1.58698e-05
8.46273e-09
1.58818e-05
9.87989e-09
1.13308e-08
1.58938e-05
1.41313e-05
3.95335e-08
1.41021e-05
7.86791e-08
1.40745e-05
8.77467e-08
1.40557e-05
7.59846e-08
1.40469e-05
5.63527e-08
1.40462e-05
3.6977e-08
1.40512e-05
2.11395e-08
1.40597e-05
9.51071e-09
1.40703e-05
1.67878e-09
1.40819e-05
-3.13783e-09
1.4094e-05
-5.7103e-09
1.41062e-05
-6.69061e-09
1.41182e-05
-6.57218e-09
1.41301e-05
-5.74248e-09
1.41417e-05
-4.46385e-09
1.41531e-05
-2.94278e-09
1.41643e-05
-1.30999e-09
3.29487e-10
1.41753e-05
1.25772e-05
6.73511e-08
1.25392e-05
1.16713e-07
1.25091e-05
1.17851e-07
1.24942e-05
9.08401e-08
1.24928e-05
5.77585e-08
1.25002e-05
2.96256e-08
1.25122e-05
9.08814e-09
1.25263e-05
-4.55729e-09
1.25409e-05
-1.28716e-08
1.25552e-05
-1.73873e-08
1.25688e-05
-1.93282e-08
1.25817e-05
-1.9574e-08
1.25939e-05
-1.87637e-08
1.26055e-05
-1.72961e-08
1.26165e-05
-1.54815e-08
1.2627e-05
-1.34967e-08
1.26372e-05
-1.14808e-08
-9.51221e-09
1.2647e-05
1.11862e-05
1.10913e-07
1.11384e-05
1.64549e-07
1.11088e-05
1.47484e-07
1.11022e-05
9.7437e-08
1.11117e-05
4.82611e-08
1.1129e-05
1.23619e-08
1.11486e-05
-1.05117e-08
1.11678e-05
-2.37424e-08
1.11855e-05
-3.05302e-08
1.12014e-05
-3.3254e-08
1.12156e-05
-3.35168e-08
1.12283e-05
-3.23411e-08
1.12399e-05
-3.03519e-08
1.12506e-05
-2.79561e-08
1.12605e-05
-2.53891e-08
1.12698e-05
-2.28255e-08
1.12787e-05
-2.03437e-08
-1.79871e-08
1.12872e-05
9.93908e-06
1.7645e-07
9.88248e-06
2.21145e-07
9.85874e-06
1.71232e-07
9.86596e-06
9.02302e-08
9.88964e-06
2.45887e-08
9.91763e-06
-1.56086e-08
9.94395e-06
-3.68047e-08
9.9667e-06
-4.64445e-08
9.98575e-06
-4.95232e-08
1.00017e-05
-4.91532e-08
1.00151e-05
-4.69712e-08
1.00267e-05
-4.39272e-08
1.00369e-05
-4.04883e-08
1.0046e-05
-3.70251e-08
1.00543e-05
-3.36786e-08
1.0062e-05
-3.05262e-08
1.00693e-05
-2.75962e-08
-2.49072e-08
1.00761e-05
8.81963e-06
2.69915e-07
8.75785e-06
2.82932e-07
8.74788e-06
1.81197e-07
8.77483e-06
6.32799e-08
8.81462e-06
-1.51868e-08
8.85217e-06
-5.31328e-08
8.88271e-06
-6.72816e-08
8.90632e-06
-6.99797e-08
8.92435e-06
-6.75913e-08
8.9384e-06
-6.31466e-08
8.94965e-06
-5.81695e-08
8.95901e-06
-5.31024e-08
8.96695e-06
-4.8381e-08
8.97392e-06
-4.39399e-08
8.98018e-06
-3.98981e-08
8.98595e-06
-3.62823e-08
8.99137e-06
-3.30492e-08
-3.01099e-08
8.99656e-06
7.81391e-06
3.96675e-07
7.7539e-06
3.42934e-07
7.76868e-06
1.66415e-07
7.82055e-06
1.14168e-08
7.87571e-06
-7.03361e-08
7.91917e-06
-9.65771e-08
7.94974e-06
-9.78398e-08
7.97064e-06
-9.07983e-08
7.98502e-06
-8.17682e-08
7.99523e-06
-7.32781e-08
8.00298e-06
-6.57658e-08
8.00908e-06
-5.92312e-08
8.01418e-06
-5.33176e-08
8.01851e-06
-4.81926e-08
8.02232e-06
-4.36988e-08
8.02585e-06
-3.98652e-08
8.02926e-06
-3.65504e-08
-3.34712e-08
8.03258e-06
6.90424e-06
5.66768e-07
6.86137e-06
3.85802e-07
6.91717e-06
1.10611e-07
6.99676e-06
-6.81808e-08
7.06257e-06
-1.36153e-07
7.10536e-06
-1.39372e-07
7.13033e-06
-1.22688e-07
7.14451e-06
-1.04932e-07
7.15244e-06
-8.96915e-08
7.15709e-06
-7.77793e-08
7.16012e-06
-6.86728e-08
7.16233e-06
-6.11668e-08
7.16393e-06
-5.48912e-08
7.16521e-06
-4.95248e-08
7.16621e-06
-4.47562e-08
7.16717e-06
-4.09293e-08
7.16842e-06
-3.78593e-08
-3.49352e-08
7.1697e-06
6.07162e-06
7.97663e-07
6.08525e-06
3.7216e-07
6.19865e-06
-2.79334e-09
6.29991e-06
-1.69442e-07
6.3653e-06
-2.01546e-07
6.3976e-06
-1.71651e-07
6.41007e-06
-1.35283e-07
6.41332e-06
-1.07873e-07
6.41231e-06
-8.87325e-08
6.40989e-06
-7.53367e-08
6.40737e-06
-6.60962e-08
6.40488e-06
-5.8745e-08
6.4024e-06
-5.25909e-08
6.40016e-06
-4.71862e-08
6.39788e-06
-4.25518e-08
6.39584e-06
-3.89586e-08
6.39461e-06
-3.67329e-08
-3.40241e-08
6.39376e-06
5.35805e-06
1.05451e-06
5.50649e-06
2.23712e-07
5.64777e-06
-1.44089e-07
5.73566e-06
-2.57338e-07
5.7765e-06
-2.42402e-07
5.7833e-06
-1.78562e-07
5.77503e-06
-1.26884e-07
5.76262e-06
-9.55386e-08
5.75011e-06
-7.63924e-08
5.73921e-06
-6.46936e-08
5.73031e-06
-5.737e-08
5.72238e-06
-5.10982e-08
5.71484e-06
-4.52778e-08
5.70795e-06
-4.04584e-08
5.70167e-06
-3.6284e-08
5.69573e-06
-3.2995e-08
5.69161e-06
-3.25128e-08
-3.03721e-08
5.68796e-06
5.04576e-06
1.01105e-06
5.36491e-06
-9.54574e-08
5.35253e-06
-1.31736e-07
5.33288e-06
-2.37716e-07
5.29605e-06
-2.05635e-07
5.25014e-06
-1.32749e-07
5.20832e-06
-8.50848e-08
5.17425e-06
-6.16049e-08
5.14683e-06
-4.93142e-08
5.12472e-06
-4.29937e-08
5.10672e-06
-3.97356e-08
5.09088e-06
-3.57511e-08
5.07622e-06
-3.10965e-08
5.06293e-06
-2.7356e-08
5.0509e-06
-2.42693e-08
5.03905e-06
-2.10642e-08
5.03e-06
-2.3356e-08
-2.33047e-08
5.023e-06
5.4676e-06
5.37214e-06
5.2404e-06
5.00268e-06
4.79703e-06
4.66428e-06
4.57918e-06
4.51752e-06
4.46813e-06
4.42508e-06
4.38525e-06
4.34939e-06
4.31824e-06
4.29088e-06
4.26662e-06
4.24559e-06
4.22225e-06
4.19897e-06
2.47933e-08
-2.481e-08
2.38674e-07
-2.13863e-07
4.89946e-07
-2.51307e-07
7.09172e-07
-2.19226e-07
8.75787e-07
-1.66646e-07
9.85854e-07
-1.10071e-07
1.04038e-06
-5.4554e-08
1.04167e-06
-1.29641e-09
9.95102e-07
4.655e-08
9.11008e-07
8.41197e-08
8.047e-07
1.06302e-07
6.95585e-07
1.09191e-07
6.03271e-07
9.23892e-08
5.37178e-07
6.60377e-08
4.85594e-07
5.17032e-08
4.24142e-07
6.11241e-08
3.36229e-07
8.80272e-08
2.07718e-07
1.28417e-07
3.13e-08
1.76553e-07
-2.14237e-07
2.45846e-07
-5.19171e-07
3.0499e-07
-8.60397e-07
3.41363e-07
-1.22389e-06
3.63464e-07
-1.60041e-06
3.76539e-07
-1.98117e-06
3.8071e-07
-2.35604e-06
3.7486e-07
-2.7171e-06
3.61026e-07
-3.05913e-06
3.42012e-07
-3.37836e-06
3.19212e-07
-3.67247e-06
2.94106e-07
-3.94066e-06
2.68179e-07
-4.18326e-06
2.4259e-07
-4.4013e-06
2.18036e-07
-4.59627e-06
1.94966e-07
-4.76987e-06
1.73601e-07
-4.92389e-06
1.5402e-07
-5.06007e-06
1.36181e-07
-5.18003e-06
1.19966e-07
-5.28525e-06
1.05214e-07
-5.37699e-06
9.17459e-08
-5.45637e-06
7.93791e-08
-5.52431e-06
6.79428e-08
-5.5816e-06
5.72821e-08
-5.62886e-06
4.72642e-08
-5.66664e-06
3.77805e-08
-5.69538e-06
2.8745e-08
-5.71547e-06
2.00863e-08
-5.72724e-06
1.17757e-08
-5.73119e-06
3.94869e-09
-5.72817e-06
-3.02274e-09
-5.71927e-06
-8.8995e-09
-5.70526e-06
-1.4006e-08
-5.68653e-06
-1.87268e-08
-5.66334e-06
-2.31897e-08
-5.63586e-06
-2.74832e-08
-5.60423e-06
-3.16346e-08
-5.56857e-06
-3.56587e-08
-5.52901e-06
-3.95618e-08
-5.48566e-06
-4.33451e-08
-5.43866e-06
-4.70074e-08
-5.38811e-06
-5.05461e-08
-5.33415e-06
-5.39577e-08
-5.27692e-06
-5.72387e-08
-5.21653e-06
-6.03858e-08
-5.15313e-06
-6.33966e-08
-5.08687e-06
-6.62679e-08
-5.01787e-06
-6.89963e-08
-4.94629e-06
-7.15794e-08
-4.87228e-06
-7.40155e-08
-4.79598e-06
-7.63034e-08
-4.71754e-06
-7.84423e-08
-4.63711e-06
-8.04319e-08
-4.55483e-06
-8.22725e-08
-4.47087e-06
-8.39647e-08
-4.38536e-06
-8.55096e-08
-4.29846e-06
-8.69093e-08
-4.21029e-06
-8.81658e-08
-4.12101e-06
-8.92821e-08
-4.03075e-06
-9.02613e-08
-3.93965e-06
-9.11072e-08
-3.84782e-06
-9.18236e-08
-3.75541e-06
-9.24148e-08
-3.66253e-06
-9.28853e-08
-3.56929e-06
-9.324e-08
-3.47581e-06
-9.34846e-08
-3.38218e-06
-9.36253e-08
-3.28852e-06
-9.36712e-08
-3.19489e-06
-9.36327e-08
-3.10137e-06
-9.35236e-08
-3.00801e-06
-9.33615e-08
-2.91486e-06
-9.31667e-08
-2.8219e-06
-9.2965e-08
-2.72913e-06
-9.27736e-08
-2.63657e-06
-9.25707e-08
-2.5443e-06
-9.22699e-08
-2.45253e-06
-9.17695e-08
-2.36155e-06
-9.09858e-08
-2.27161e-06
-8.99382e-08
-2.18283e-06
-8.87851e-08
-2.0952e-06
-8.76308e-08
-2.00873e-06
-8.6475e-08
-1.92343e-06
-8.53014e-08
-1.83933e-06
-8.41033e-08
-1.75646e-06
-8.28795e-08
-1.67483e-06
-8.16331e-08
-1.59446e-06
-8.03671e-08
-1.51538e-06
-7.90861e-08
-1.43759e-06
-7.77921e-08
-1.36111e-06
-7.64837e-08
-1.28598e-06
-7.51387e-08
-1.21221e-06
-7.37712e-08
-1.13981e-06
-7.24079e-08
-1.06877e-06
-7.10443e-08
-9.99089e-07
-6.96805e-08
-9.30775e-07
-6.83189e-08
-8.63819e-07
-6.69596e-08
-7.98217e-07
-6.56064e-08
-7.33961e-07
-6.42601e-08
-6.71042e-07
-6.29246e-08
-6.09448e-07
-6.15974e-08
-5.49173e-07
-6.02813e-08
-4.902e-07
-5.89769e-08
-4.32514e-07
-5.76919e-08
-3.76089e-07
-5.6429e-08
-3.20908e-07
-5.51869e-08
-2.66952e-07
-5.39611e-08
-2.14201e-07
-5.27575e-08
-1.62634e-07
-5.15725e-08
-1.12245e-07
-5.0396e-08
-6.30263e-08
-4.92272e-08
-1.511e-08
-4.79301e-08
3.16701e-08
-4.67934e-08
7.76224e-08
-4.59602e-08
1.22616e-07
-4.49928e-08
1.6655e-07
-4.3931e-08
2.09419e-07
-4.28647e-08
2.51234e-07
-4.18184e-08
2.92033e-07
-4.08018e-08
3.31852e-07
-3.98181e-08
3.70725e-07
-3.88631e-08
4.08675e-07
-3.79367e-08
4.45727e-07
-3.70354e-08
4.819e-07
-3.61611e-08
5.17223e-07
-3.53102e-08
5.51713e-07
-3.44855e-08
5.85399e-07
-3.36835e-08
6.18298e-07
-3.29086e-08
6.50439e-07
-3.2157e-08
6.81849e-07
-3.1432e-08
7.1256e-07
-3.07303e-08
7.42596e-07
-3.00536e-08
7.71983e-07
-2.93997e-08
8.00741e-07
-2.87711e-08
8.289e-07
-2.81653e-08
8.56477e-07
-2.7585e-08
8.83504e-07
-2.70274e-08
9.09997e-07
-2.6495e-08
9.35987e-07
-2.59849e-08
9.61491e-07
-2.5499e-08
9.86536e-07
-2.50342e-08
1.01114e-06
-2.45911e-08
1.03532e-06
-2.41663e-08
1.05909e-06
-2.37579e-08
1.08247e-06
-2.3361e-08
1.10545e-06
-2.29703e-08
1.12805e-06
-2.25775e-08
1.15023e-06
-2.21709e-08
1.17198e-06
-2.17352e-08
1.19324e-06
-2.12476e-08
1.21392e-06
-2.0678e-08
1.23391e-06
-1.99813e-08
1.253e-06
-1.90947e-08
1.27092e-06
-1.79206e-08
1.28722e-06
-1.63146e-08
1.30121e-06
-1.40045e-08
1.31177e-06
-1.05735e-08
1.31626e-06
-4.50675e-09
1.30931e-06
6.92583e-09
1.27964e-06
2.96404e-08
7.24705e-08
1.20715e-06
2.53669e-07
-2.78489e-07
4.888e-07
-4.48991e-07
6.37878e-07
-4.004e-07
7.21994e-07
-3.03343e-07
7.60918e-07
-2.05584e-07
7.66258e-07
-1.15413e-07
7.44733e-07
-3.30425e-08
7.02028e-07
4.1406e-08
6.41115e-07
1.07454e-07
5.6195e-07
1.63292e-07
4.63738e-07
2.04516e-07
3.44777e-07
2.28162e-07
1.98818e-07
2.38381e-07
1.40996e-08
2.50701e-07
-2.19742e-07
2.85552e-07
-5.06972e-07
3.4828e-07
-8.45575e-07
4.2663e-07
-1.2244e-06
5.07254e-07
-1.62955e-06
5.81739e-07
-2.02981e-06
6.46161e-07
-2.41761e-06
6.92813e-07
-2.79244e-06
7.16227e-07
-3.14726e-06
7.18278e-07
-3.47393e-06
7.03215e-07
-3.76766e-06
6.74419e-07
-4.02762e-06
6.34822e-07
-4.25439e-06
5.8778e-07
-4.44933e-06
5.36947e-07
-4.6154e-06
4.85276e-07
-4.75611e-06
4.34804e-07
-4.87481e-06
3.86873e-07
-4.97465e-06
3.42435e-07
-5.05851e-06
3.01893e-07
-5.12887e-06
2.65326e-07
-5.18784e-06
2.32567e-07
-5.23713e-06
2.03313e-07
-5.27814e-06
1.77194e-07
-5.312e-06
1.5382e-07
-5.33959e-06
1.3281e-07
-5.36166e-06
1.13816e-07
-5.37881e-06
9.65282e-08
-5.39155e-06
8.06827e-08
-5.40032e-06
6.60592e-08
-5.40554e-06
5.24774e-08
-5.40755e-06
3.97918e-08
-5.40669e-06
2.78884e-08
-5.40329e-06
1.66905e-08
-5.39768e-06
6.16423e-09
-5.39e-06
-3.73458e-09
-5.37982e-06
-1.31995e-08
-5.36626e-06
-2.24647e-08
-5.3487e-06
-3.15579e-08
-5.32701e-06
-4.04179e-08
-5.30116e-06
-4.90373e-08
-5.27122e-06
-5.74234e-08
-5.23728e-06
-6.55826e-08
-5.19942e-06
-7.35176e-08
-5.15775e-06
-8.12277e-08
-5.11239e-06
-8.87096e-08
-5.06344e-06
-9.59576e-08
-5.01102e-06
-1.02965e-07
-4.95525e-06
-1.09723e-07
-4.89627e-06
-1.16226e-07
-4.83419e-06
-1.22464e-07
-4.76915e-06
-1.28435e-07
-4.70129e-06
-1.34132e-07
-4.63074e-06
-1.39545e-07
-4.55765e-06
-1.44672e-07
-4.48216e-06
-1.4951e-07
-4.40441e-06
-1.54054e-07
-4.32454e-06
-1.58305e-07
-4.24272e-06
-1.62261e-07
-4.15907e-06
-1.65923e-07
-4.07374e-06
-1.69292e-07
-3.98688e-06
-1.72371e-07
-3.89863e-06
-1.75162e-07
-3.80913e-06
-1.77671e-07
-3.71851e-06
-1.79902e-07
-3.62691e-06
-1.81861e-07
-3.53446e-06
-1.83556e-07
-3.4413e-06
-1.84993e-07
-3.34753e-06
-1.86182e-07
-3.25329e-06
-1.8713e-07
-3.15868e-06
-1.87848e-07
-3.06382e-06
-1.88346e-07
-2.96881e-06
-1.88636e-07
-2.87376e-06
-1.88729e-07
-2.77875e-06
-1.88639e-07
-2.6839e-06
-1.8838e-07
-2.5893e-06
-1.87964e-07
-2.49507e-06
-1.87403e-07
-2.40134e-06
-1.86705e-07
-2.30825e-06
-1.85864e-07
-2.21598e-06
-1.84851e-07
-2.12463e-06
-1.83621e-07
-2.03426e-06
-1.82147e-07
-1.94482e-06
-1.80424e-07
-1.85626e-06
-1.78494e-07
-1.76862e-06
-1.76436e-07
-1.68195e-06
-1.743e-07
-1.59632e-06
-1.72102e-07
-1.51179e-06
-1.6984e-07
-1.42837e-06
-1.67518e-07
-1.34612e-06
-1.65139e-07
-1.26504e-06
-1.62708e-07
-1.18518e-06
-1.60232e-07
-1.10656e-06
-1.57714e-07
-1.02919e-06
-1.55159e-07
-9.5311e-07
-1.52569e-07
-8.78309e-07
-1.49943e-07
-8.04786e-07
-1.47296e-07
-7.32557e-07
-1.44641e-07
-6.61624e-07
-1.4198e-07
-5.91989e-07
-1.39319e-07
-5.23652e-07
-1.36659e-07
-4.5661e-07
-1.34004e-07
-3.90861e-07
-1.31358e-07
-3.264e-07
-1.28725e-07
-2.63215e-07
-1.26112e-07
-2.01297e-07
-1.23519e-07
-1.40636e-07
-1.20945e-07
-8.12219e-08
-1.18395e-07
-2.30462e-08
-1.15871e-07
3.39061e-08
-1.13385e-07
8.96637e-08
-1.10948e-07
1.44241e-07
-1.08543e-07
1.97649e-07
-1.06169e-07
2.49903e-07
-1.0383e-07
3.01029e-07
-1.01526e-07
3.51056e-07
-9.92599e-08
4.0015e-07
-9.70314e-08
4.48265e-07
-9.49156e-08
4.95188e-07
-9.28864e-08
5.41005e-07
-9.08103e-08
5.85787e-07
-8.87106e-08
6.29561e-07
-8.66394e-08
6.72356e-07
-8.4616e-08
7.14198e-07
-8.26466e-08
7.55112e-07
-8.0732e-08
7.95124e-07
-7.887e-08
8.34254e-07
-7.70592e-08
8.72523e-07
-7.52978e-08
9.09954e-07
-7.35856e-08
9.4657e-07
-7.19209e-08
9.82391e-07
-7.03041e-08
1.01744e-06
-6.87347e-08
1.05174e-06
-6.72136e-08
1.08531e-06
-6.57403e-08
1.11818e-06
-6.4315e-08
1.15038e-06
-6.29364e-08
1.18192e-06
-6.16049e-08
1.21283e-06
-6.03196e-08
1.24314e-06
-5.90818e-08
1.27286e-06
-5.78901e-08
1.30202e-06
-5.6746e-08
1.33064e-06
-5.56476e-08
1.35874e-06
-5.45965e-08
1.38635e-06
-5.35895e-08
1.41349e-06
-5.26281e-08
1.44018e-06
-5.17075e-08
1.46642e-06
-5.08282e-08
1.49226e-06
-4.99827e-08
1.51768e-06
-4.9169e-08
1.54272e-06
-4.83753e-08
1.56736e-06
-4.75943e-08
1.5916e-06
-4.68066e-08
1.61544e-06
-4.59945e-08
1.63885e-06
-4.51252e-08
1.66177e-06
-4.41604e-08
1.68415e-06
-4.30405e-08
1.70586e-06
-4.16856e-08
1.72674e-06
-3.99769e-08
1.74656e-06
-3.77386e-08
1.76494e-06
-3.47011e-08
1.78133e-06
-3.04055e-08
1.79483e-06
-2.4094e-08
1.80449e-06
-1.41859e-08
1.80929e-06
2.10838e-09
1.80733e-06
3.15701e-08
8.82146e-08
1.79157e-06
2.44939e-07
-5.23434e-07
3.4004e-07
-5.44091e-07
3.55755e-07
-4.16123e-07
3.44371e-07
-2.91956e-07
3.16312e-07
-1.77534e-07
2.71833e-07
-7.09337e-08
2.10199e-07
2.85814e-08
1.3039e-07
1.21215e-07
3.13001e-08
2.06536e-07
-8.92578e-08
2.83849e-07
-2.3712e-07
3.52377e-07
-4.2293e-07
4.13962e-07
-6.60026e-07
4.75478e-07
-9.54857e-07
5.45507e-07
-1.29661e-06
6.27303e-07
-1.66344e-06
7.15089e-07
-2.03474e-06
7.97939e-07
-2.39407e-06
8.6659e-07
-2.72809e-06
9.15781e-07
-3.02541e-06
9.43507e-07
-3.28168e-06
9.4909e-07
-3.49883e-06
9.334e-07
-3.68033e-06
8.99776e-07
-3.82996e-06
8.52845e-07
-3.95238e-06
7.96834e-07
-4.05297e-06
7.35408e-07
-4.13702e-06
6.71832e-07
-4.2089e-06
6.08827e-07
-4.27202e-06
5.48392e-07
-4.32897e-06
4.91751e-07
-4.3816e-06
4.39498e-07
-4.43102e-06
3.91856e-07
-4.47786e-06
3.48733e-07
-4.52238e-06
3.09847e-07
-4.56462e-06
2.74804e-07
-4.60447e-06
2.43167e-07
-4.64178e-06
2.14499e-07
-4.67634e-06
1.88384e-07
-4.70798e-06
1.64449e-07
-4.73653e-06
1.42365e-07
-4.76185e-06
1.21851e-07
-4.78384e-06
1.02671e-07
-4.80241e-06
8.46284e-08
-4.81749e-06
6.75594e-08
-4.82902e-06
5.13249e-08
-4.83694e-06
3.58067e-08
-4.84115e-06
2.09037e-08
-4.84151e-06
6.52248e-09
-4.8378e-06
-7.44358e-09
-4.82989e-06
-2.11082e-08
-4.81783e-06
-3.45295e-08
-4.80169e-06
-4.76944e-08
-4.78153e-06
-6.05812e-08
-4.75738e-06
-7.31811e-08
-4.72932e-06
-8.54875e-08
-4.69741e-06
-9.74944e-08
-4.66173e-06
-1.09195e-07
-4.62238e-06
-1.2058e-07
-4.57945e-06
-1.3164e-07
-4.53304e-06
-1.42362e-07
-4.48327e-06
-1.52736e-07
-4.43025e-06
-1.62746e-07
-4.37409e-06
-1.72381e-07
-4.31493e-06
-1.81629e-07
-4.25288e-06
-1.90482e-07
-4.18809e-06
-1.9893e-07
-4.12067e-06
-2.06962e-07
-4.05077e-06
-2.14571e-07
-3.97853e-06
-2.21752e-07
-3.90408e-06
-2.28501e-07
-3.82758e-06
-2.34815e-07
-3.74915e-06
-2.40692e-07
-3.66894e-06
-2.46134e-07
-3.58709e-06
-2.51142e-07
-3.50374e-06
-2.55719e-07
-3.41903e-06
-2.5987e-07
-3.3331e-06
-2.63602e-07
-3.24608e-06
-2.6692e-07
-3.15811e-06
-2.69834e-07
-3.06932e-06
-2.72353e-07
-2.97982e-06
-2.74489e-07
-2.88975e-06
-2.76251e-07
-2.79923e-06
-2.77653e-07
-2.70837e-06
-2.78708e-07
-2.61729e-06
-2.79431e-07
-2.52609e-06
-2.79834e-07
-2.43489e-06
-2.79934e-07
-2.34378e-06
-2.79746e-07
-2.25288e-06
-2.79285e-07
-2.16229e-06
-2.78563e-07
-2.07211e-06
-2.77591e-07
-1.98244e-06
-2.76377e-07
-1.89339e-06
-2.74918e-07
-1.80504e-06
-2.73203e-07
-1.71745e-06
-2.71215e-07
-1.63064e-06
-2.68951e-07
-1.54464e-06
-2.6643e-07
-1.45945e-06
-2.63686e-07
-1.37512e-06
-2.60766e-07
-1.29171e-06
-2.57704e-07
-1.2093e-06
-2.54521e-07
-1.12791e-06
-2.51228e-07
-1.04759e-06
-2.47835e-07
-9.68384e-07
-2.44352e-07
-8.90306e-07
-2.40788e-07
-8.13388e-07
-2.37151e-07
-7.37653e-07
-2.33451e-07
-6.6312e-07
-2.29694e-07
-5.89802e-07
-2.25888e-07
-5.17706e-07
-2.22041e-07
-4.4684e-07
-2.18164e-07
-3.77214e-07
-2.14268e-07
-3.08835e-07
-2.10361e-07
-2.41704e-07
-2.06451e-07
-1.75821e-07
-2.02544e-07
-1.11184e-07
-1.98643e-07
-4.779e-08
-1.94754e-07
1.43684e-08
-1.90885e-07
7.52958e-08
-1.87041e-07
1.35e-07
-1.83225e-07
1.93493e-07
-1.7944e-07
2.50788e-07
-1.75691e-07
3.06901e-07
-1.71984e-07
3.61841e-07
-1.68326e-07
4.15615e-07
-1.64722e-07
4.68241e-07
-1.61169e-07
5.19737e-07
-1.57665e-07
5.70123e-07
-1.54216e-07
6.19421e-07
-1.50825e-07
6.67659e-07
-1.47501e-07
7.14882e-07
-1.44258e-07
7.61068e-07
-1.41104e-07
8.06186e-07
-1.38005e-07
8.50288e-07
-1.34911e-07
8.93417e-07
-1.31837e-07
9.35593e-07
-1.28815e-07
9.76834e-07
-1.25858e-07
1.01716e-06
-1.22974e-07
1.05659e-06
-1.20164e-07
1.09515e-06
-1.17427e-07
1.13286e-06
-1.14761e-07
1.16974e-06
-1.12168e-07
1.2058e-06
-1.09645e-07
1.24107e-06
-1.07192e-07
1.27558e-06
-1.04809e-07
1.30934e-06
-1.02496e-07
1.34238e-06
-1.00253e-07
1.37471e-06
-9.808e-08
1.40636e-06
-9.59768e-08
1.43736e-06
-9.3942e-08
1.46773e-06
-9.19761e-08
1.49748e-06
-9.00786e-08
1.52665e-06
-8.82504e-08
1.55524e-06
-8.64906e-08
1.58329e-06
-8.48002e-08
1.61082e-06
-8.31775e-08
1.63785e-06
-8.16235e-08
1.66439e-06
-8.01353e-08
1.69048e-06
-7.8713e-08
1.71613e-06
-7.73518e-08
1.74135e-06
-7.605e-08
1.76617e-06
-7.47993e-08
1.7906e-06
-7.35944e-08
1.81465e-06
-7.24209e-08
1.83832e-06
-7.1266e-08
1.86163e-06
-7.01049e-08
1.88454e-06
-6.89104e-08
1.90706e-06
-6.76383e-08
1.92914e-06
-6.62339e-08
1.95071e-06
-6.4615e-08
1.97169e-06
-6.26703e-08
1.99195e-06
-6.02362e-08
2.01128e-06
-5.70729e-08
2.02939e-06
-5.28176e-08
2.04586e-06
-4.68797e-08
2.06008e-06
-3.8319e-08
2.07126e-06
-2.53803e-08
2.07855e-06
-5.19429e-09
2.0824e-06
2.77117e-08
8.5713e-08
2.0849e-06
9.22719e-08
-6.1571e-07
6.08158e-08
-5.12632e-07
1.17829e-08
-3.67096e-07
-4.58691e-08
-2.34299e-07
-1.15944e-07
-1.07465e-07
-2.01902e-07
1.50266e-08
-3.06757e-07
1.33431e-07
-4.32921e-07
2.47377e-07
-5.82992e-07
3.56605e-07
-7.60372e-07
4.61224e-07
-9.69816e-07
5.61822e-07
-1.21556e-06
6.59694e-07
-1.49609e-06
7.56005e-07
-1.80033e-06
8.49738e-07
-2.10949e-06
9.36458e-07
-2.40416e-06
1.00976e-06
-2.67017e-06
1.06396e-06
-2.89951e-06
1.09593e-06
-3.08899e-06
1.10528e-06
-3.23924e-06
1.09376e-06
-3.35454e-06
1.0644e-06
-3.4417e-06
1.02056e-06
-3.50796e-06
9.66041e-07
-3.55978e-06
9.04664e-07
-3.60257e-06
8.3962e-07
-3.64069e-06
7.73529e-07
-3.67734e-06
7.08478e-07
-3.7145e-06
6.45992e-07
-3.75316e-06
5.87054e-07
-3.79358e-06
5.32167e-07
-3.83556e-06
4.81477e-07
-3.8786e-06
4.34899e-07
-3.92207e-06
3.92198e-07
-3.96527e-06
3.53051e-07
-4.00756e-06
3.17098e-07
-4.04836e-06
2.83968e-07
-4.08717e-06
2.53307e-07
-4.12357e-06
2.24783e-07
-4.15722e-06
1.981e-07
-4.18785e-06
1.72994e-07
-4.21524e-06
1.49238e-07
-4.2392e-06
1.26636e-07
-4.2596e-06
1.05023e-07
-4.2763e-06
8.42588e-08
-4.28919e-06
6.42241e-08
-4.29821e-06
4.48182e-08
-4.30326e-06
2.59555e-08
-4.30429e-06
7.5596e-09
-4.30129e-06
-1.04428e-08
-4.29429e-06
-2.81122e-08
-4.28334e-06
-4.54758e-08
-4.26851e-06
-6.25301e-08
-4.24983e-06
-7.92621e-08
-4.22735e-06
-9.56591e-08
-4.20113e-06
-1.11707e-07
-4.17123e-06
-1.27392e-07
-4.13773e-06
-1.42698e-07
-4.1007e-06
-1.57609e-07
-4.06023e-06
-1.72105e-07
-4.01643e-06
-1.8617e-07
-3.96938e-06
-1.99785e-07
-3.91919e-06
-2.12931e-07
-3.86599e-06
-2.25588e-07
-3.80987e-06
-2.37742e-07
-3.75098e-06
-2.49379e-07
-3.68942e-06
-2.60488e-07
-3.62533e-06
-2.71052e-07
-3.55884e-06
-2.81064e-07
-3.49008e-06
-2.90514e-07
-3.41918e-06
-2.99397e-07
-3.34629e-06
-3.0771e-07
-3.27153e-06
-3.1545e-07
-3.19505e-06
-3.22618e-07
-3.11698e-06
-3.29215e-07
-3.03745e-06
-3.35246e-07
-2.95661e-06
-3.40717e-07
-2.87457e-06
-3.45635e-07
-2.79149e-06
-3.50008e-07
-2.70747e-06
-3.53849e-07
-2.62266e-06
-3.57168e-07
-2.53717e-06
-3.5998e-07
-2.45112e-06
-3.62299e-07
-2.36464e-06
-3.64139e-07
-2.27783e-06
-3.65519e-07
-2.1908e-06
-3.66455e-07
-2.10367e-06
-3.66964e-07
-2.01655e-06
-3.67065e-07
-1.92952e-06
-3.66776e-07
-1.84269e-06
-3.66114e-07
-1.75616e-06
-3.65094e-07
-1.67003e-06
-3.63731e-07
-1.58437e-06
-3.62035e-07
-1.49928e-06
-3.60014e-07
-1.41481e-06
-3.57669e-07
-1.33102e-06
-3.55003e-07
-1.24795e-06
-3.52023e-07
-1.16563e-06
-3.48752e-07
-1.0841e-06
-3.4522e-07
-1.0034e-06
-3.41463e-07
-9.23596e-07
-3.3751e-07
-8.44732e-07
-3.33386e-07
-7.66853e-07
-3.29108e-07
-6.89997e-07
-3.24692e-07
-6.14196e-07
-3.20153e-07
-5.39481e-07
-3.15504e-07
-4.65875e-07
-3.10758e-07
-3.93402e-07
-3.05926e-07