/*--------------------------------*- C++ -*----------------------------------*\
| =========                 |                                                 |
| \\      /  F ield         | OpenFOAM: The Open Source CFD Toolbox           |
|  \\    /   O peration     | Version:  v2012                                 |
|   \\  /    A nd           | Website:  www.openfoam.com                      |
|    \\/     M anipulation  |                                                 |
\*---------------------------------------------------------------------------*/
FoamFile
{
    version     2.0;
    format      ascii;
    class       volVectorField;
    location    "2300";
    object      U;
}
// * * * * * * * * * * * * * * * * * * * * * * * * * * * * * * * * * * * * * //

dimensions      [0 1 -1 0 0 0 0];


internalField   nonuniform List<vector> 
12225
(
(9.2745 -4.73371 0)
(13.1094 -1.71343 0)
(12.4776 -0.395207 0)
(11.2768 -0.0422175 0)
(10.6311 0.0141961 0)
(10.2977 -0.000778335 0)
(10.0739 -0.00376936 0)
(9.90479 -0.0200249 0)
(9.76615 -0.0503598 0)
(9.64463 -0.0477192 0)
(9.53112 -0.0366119 0)
(9.42462 -0.0326788 0)
(9.32671 -0.030622 0)
(9.23752 -0.0236511 0)
(9.15643 -0.00850489 0)
(9.09058 0.00345261 0)
(9.03012 0.012538 0)
(9.0537 0.0232256 0)
(10.2592 0.0928025 0)
(10.7814 0.199338 0)
(10.9593 0.24565 0)
(10.7468 0.229137 0)
(10.5874 0.172972 0)
(10.4521 0.115298 0)
(10.329 0.0819006 0)
(10.2315 0.0692772 0)
(10.1585 0.0651988 0)
(10.0982 0.058597 0)
(10.0453 0.0525322 0)
(9.99824 0.0502096 0)
(9.95532 0.049656 0)
(9.91565 0.0484941 0)
(9.8781 0.0445671 0)
(9.84357 0.0387492 0)
(9.80736 0.0216269 0)
(9.77535 -0.00113003 0)
(9.87768 -0.24504 0)
(9.74284 0.00579101 0)
(10.1971 0.125738 0)
(10.3244 0.179358 0)
(10.3563 0.161543 0)
(10.3308 0.119981 0)
(10.2777 0.0911713 0)
(10.2263 0.07533 0)
(10.183 0.0658031 0)
(10.1459 0.0605069 0)
(10.1137 0.0572438 0)
(10.0848 0.0545374 0)
(10.0578 0.0518487 0)
(10.0325 0.0488071 0)
(10.0087 0.0451912 0)
(9.98671 0.0402359 0)
(9.96312 0.029033 0)
(9.93561 0.0100657 0)
(9.83416 -0.443933 0)
(9.57654 -0.163148 0)
(9.91602 0.0336632 0)
(10.0932 0.134215 0)
(10.1892 0.145462 0)
(10.2166 0.12072 0)
(10.2052 0.0985062 0)
(10.1835 0.0839244 0)
(10.161 0.0740925 0)
(10.1394 0.0683364 0)
(10.1196 0.0646277 0)
(10.1012 0.0616405 0)
(10.0837 0.0589757 0)
(10.0668 0.0565099 0)
(10.0505 0.0537203 0)
(10.0343 0.049513 0)
(10.0157 0.0411691 0)
(9.99143 0.0294212 0)
(9.87825 -0.387477 0)
(9.61653 -0.19615 0)
(9.81622 -0.0186789 0)
(9.96134 0.091602 0)
(10.0698 0.122184 0)
(10.1218 0.113643 0)
(10.1356 0.0996254 0)
(10.134 0.08836 0)
(10.1264 0.0799055 0)
(10.1163 0.0742783 0)
(10.1055 0.0704409 0)
(10.0946 0.0675708 0)
(10.0836 0.0652316 0)
(10.0724 0.063149 0)
(10.0609 0.0608071 0)
(10.0484 0.0575374 0)
(10.033 0.0521832 0)
(10.0122 0.0460839 0)
(9.91439 -0.288041 0)
(9.68303 -0.18518 0)
(9.78716 -0.053217 0)
(9.88916 0.0509869 0)
(9.98794 0.0936672 0)
(10.0476 0.0992243 0)
(10.0753 0.0940582 0)
(10.0867 0.087419 0)
(10.0896 0.0814389 0)
(10.088 0.0769626 0)
(10.0841 0.0737495 0)
(10.0788 0.0713859 0)
(10.0726 0.0695443 0)
(10.0656 0.0679852 0)
(10.0575 0.0663766 0)
(10.0479 0.064445 0)
(10.0354 0.0619815 0)
(10.0184 0.0603181 0)
(9.93763 -0.214042 0)
(9.74855 -0.167539 0)
(9.79243 -0.0752232 0)
(9.85608 0.0162109 0)
(9.93594 0.0644138 0)
(9.99283 0.0806116 0)
(10.0262 0.0836318 0)
(10.045 0.0821255 0)
(10.0549 0.0793326 0)
(10.0594 0.0767342 0)
(10.0605 0.0746936 0)
(10.0596 0.0731879 0)
(10.0571 0.0721 0)
(10.0532 0.0713297 0)
(10.0479 0.0707559 0)
(10.0409 0.0703927 0)
(10.0313 0.0704912 0)
(10.0183 0.0722372 0)
(9.95263 -0.167336 0)
(9.79947 -0.149683 0)
(9.81178 -0.0846554 0)
(9.84959 -0.00623208 0)
(9.91142 0.041903 0)
(9.9611 0.0638688 0)
(9.9944 0.0725134 0)
(10.0157 0.0751387 0)
(10.029 0.0752362 0)
(10.0368 0.0745527 0)
(10.041 0.0737966 0)
(10.0428 0.0732383 0)
(10.0427 0.0729641 0)
(10.041 0.073019 0)
(10.0378 0.0734405 0)
(10.0327 0.0744006 0)
(10.0256 0.0763056 0)
(10.0158 0.0801228 0)
(9.96406 -0.132091 0)
(9.84003 -0.131995 0)
(9.83337 -0.0877035 0)
(9.85306 -0.0213537 0)
(9.89928 0.0243887 0)
(9.94105 0.0494859 0)
(9.97214 0.062082 0)
(9.99396 0.0679454 0)
(10.0087 0.0704465 0)
(10.0185 0.0714834 0)
(10.0247 0.0719889 0)
(10.0283 0.0724172 0)
(10.0299 0.0729971 0)
(10.0299 0.0738831 0)
(10.0282 0.0752291 0)
(10.0249 0.077303 0)
(10.0199 0.0805614 0)
(10.0129 0.0857944 0)
(9.97418 -0.100207 0)
(9.87757 -0.112396 0)
(9.85857 -0.0853803 0)
(9.86388 -0.0323551 0)
(9.89488 0.00889922 0)
(9.92745 0.0351888 0)
(9.95445 0.0506596 0)
(9.97511 0.0593676 0)
(9.99023 0.0642241 0)
(10.001 0.0670801 0)
(10.0085 0.0689864 0)
(10.0136 0.0705403 0)
(10.0167 0.0720953 0)
(10.0181 0.0739127 0)
(10.0181 0.0762347 0)
(10.0166 0.0793811 0)
(10.0136 0.0837952 0)
(10.0094 0.0900829 0)
(9.98253 -0.072712 0)
(9.91035 -0.092203 0)
(9.88507 -0.0782604 0)
(9.88002 -0.0386338 0)
(9.89747 -0.00341078 0)
(9.92045 0.0221194 0)
(9.94201 0.0391067 0)
(9.96006 0.0499455 0)
(9.97432 0.0568525 0)
(9.98525 0.0614471 0)
(9.99345 0.0647801 0)
(9.99948 0.067522 0)
(10.0037 0.0701219 0)
(10.0065 0.072914 0)
(10.0079 0.0762016 0)
(10.0081 0.0803138 0)
(10.0073 0.0856334 0)
(10.0057 0.0925897 0)
(9.98894 -0.0502601 0)
(9.93733 -0.0723851 0)
(9.91073 -0.0674661 0)
(9.89917 -0.0400127 0)
(9.90567 -0.0116932 0)
(9.91957 0.0113904 0)
(9.935 0.0284384 0)
(9.94939 0.04044 0)
(9.96175 0.0488281 0)
(9.97193 0.0548646 0)
(9.98014 0.0594849 0)
(9.98663 0.0633601 0)
(9.99168 0.0669711 0)
(9.99548 0.0706942 0)
(9.99823 0.0748475 0)
(10.0001 0.0797419 0)
(10.0012 0.0856746 0)
(10.002 0.0929385 0)
(9.99348 -0.0329127 0)
(9.9582 -0.0538186 0)
(9.93368 -0.0543035 0)
(9.91899 -0.0368209 0)
(9.91756 -0.0155033 0)
(9.92367 0.003924 0)
(9.93304 0.0196742 0)
(9.94321 0.0317336 0)
(9.95293 0.0408197 0)
(9.96166 0.0477813 0)
(9.96925 0.0533595 0)
(9.97573 0.058145 0)
(9.9812 0.0625969 0)
(9.98579 0.0670811 0)
(9.98963 0.0719008 0)
(9.9929 0.077314 0)
(9.99578 0.0835544 0)
(9.99856 0.090778 0)
(9.99643 -0.0202072 0)
(9.97327 -0.0372182 0)
(9.95261 -0.0400676 0)
(9.93731 -0.0298478 0)
(9.9309 -0.0148783 0)
(9.93103 0.000289735 0)
(9.93505 0.0136686 0)
(9.94106 0.0247001 0)
(9.94784 0.0335745 0)
(9.95466 0.0407612 0)
(9.96119 0.0467729 0)
(9.96724 0.052066 0)
(9.9728 0.0570289 0)
(9.97788 0.0619707 0)
(9.98256 0.0671498 0)
(9.98696 0.0727657 0)
(9.99123 0.0789754 0)
(9.99556 0.0858687 0)
(9.99816 -0.0112928 0)
(9.9833 -0.0229395 0)
(9.96682 -0.0257858 0)
(9.95243 -0.0201154 0)
(9.94344 -0.0102986 0)
(9.93953 0.000595908 0)
(9.93941 0.0109237 0)
(9.94183 0.0200046 0)
(9.94583 0.0277477 0)
(9.95069 0.0343529 0)
(9.95596 0.0401208 0)
(9.96138 0.0453634 0)
(9.96678 0.0503553 0)
(9.9721 0.0553329 0)
(9.97736 0.0604763 0)
(9.98258 0.0659291 0)
(9.98787 0.0717754 0)
(9.99334 0.078064 0)
(9.99906 -0.00508604 0)
(9.98922 -0.0107899 0)
(9.97612 -0.0119397 0)
(9.96309 -0.00852137 0)
(9.9531 -0.00249113 0)
(9.94686 0.00450026 0)
(9.94399 0.0114534 0)
(9.94384 0.0178858 0)
(9.94569 0.0236698 0)
(9.94895 0.0288733 0)
(9.95315 0.0336524 0)
(9.95796 0.0381841 0)
(9.96316 0.0426333 0)
(9.96861 0.0471387 0)
(9.97425 0.0518049 0)
(9.98006 0.0567037 0)
(9.98605 0.0618711 0)
(9.99228 0.0673091 0)
(9.99942 -0.000372333 0)
(9.99181 0.000141766 0)
(9.98042 0.00180879 0)
(9.96821 0.00455653 0)
(9.9579 0.00786483 0)
(9.95061 0.0113271 0)
(9.94642 0.0147174 0)
(9.94497 0.0179632 0)
(9.94575 0.0210767 0)
(9.94822 0.0241287 0)
(9.95194 0.0271965 0)
(9.95655 0.0303614 0)
(9.96179 0.0336832 0)
(9.96748 0.0372098 0)
(9.97349 0.0409632 0)
(9.97978 0.0449519 0)
(9.98629 0.0491601 0)
(9.99303 0.0535593 0)
(9.99935 0.0040801 0)
(9.9911 0.0111597 0)
(9.97897 0.0161087 0)
(9.96616 0.0186989 0)
(9.95552 0.019561 0)
(9.94818 0.0194772 0)
(9.94419 0.0190713 0)
(9.9431 0.0187508 0)
(9.94435 0.0187589 0)
(9.94738 0.0192095 0)
(9.95169 0.0201466 0)
(9.95692 0.0215625 0)
(9.96278 0.0234304 0)
(9.96908 0.0257034 0)
(9.97569 0.0283341 0)
(9.98253 0.031263 0)
(9.98954 0.0344375 0)
(9.99669 0.0377907 0)
(9.99882 0.00972556 0)
(9.98675 0.024032 0)
(9.97123 0.0318206 0)
(9.95642 0.0332562 0)
(9.94559 0.0306559 0)
(9.93942 0.0262887 0)
(9.93734 0.0216733 0)
(9.93843 0.0176467 0)
(9.94184 0.0145838 0)
(9.94682 0.0125754 0)
(9.95286 0.0115693 0)
(9.95955 0.0114435 0)
(9.96664 0.0120634 0)
(9.97396 0.0132919 0)
(9.9814 0.0150079 0)
(9.98891 0.0171 0)
(9.99645 0.0194741 0)
(10.004 0.0220443 0)
(9.99757 0.0182064 0)
(9.97774 0.0404377 0)
(9.95665 0.0495504 0)
(9.93945 0.0474426 0)
(9.92962 0.0393782 0)
(9.92659 0.0295959 0)
(9.92848 0.0204286 0)
(9.93355 0.0128977 0)
(9.94052 0.00726365 0)
(9.94851 0.00341974 0)
(9.95697 0.00110177 0)
(9.96558 2.50433e-05 0)
(9.97416 -7.45952e-05 0)
(9.98262 0.000574792 0)
(9.99093 0.00178803 0)
(9.99906 0.00341418 0)
(10.007 0.0053297 0)
(10.0149 0.00743973 0)
(9.99502 0.0318117 0)
(9.96178 0.0621166 0)
(9.93372 0.0695254 0)
(9.91535 0.0600792 0)
(9.90933 0.0439094 0)
(9.9125 0.0276153 0)
(9.92085 0.0139489 0)
(9.93162 0.00358449 0)
(9.9432 -0.00369489 0)
(9.95475 -0.00843305 0)
(9.96586 -0.011203 0)
(9.9764 -0.0124961 0)
(9.98636 -0.0127093 0)
(9.99578 -0.0121372 0)
(10.0047 -0.0110133 0)
(10.0133 -0.00950664 0)
(10.0215 -0.00774762 0)
(10.0294 -0.00583587 0)
(9.99018 0.0534597 0)
(9.93561 0.0901369 0)
(9.90099 0.0906032 0)
(9.88516 0.0687229 0)
(9.88782 0.0417803 0)
(9.90124 0.0186214 0)
(9.91857 0.00137954 0)
(9.93627 -0.0104307 0)
(9.95285 -0.0179709 0)
(9.96782 -0.022402 0)
(9.9812 -0.0246613 0)
(9.99318 -0.0254289 0)
(10.004 -0.0251869 0)
(10.0139 -0.0242604 0)
(10.023 -0.0228895 0)
(10.0315 -0.0212403 0)
(10.0396 -0.019428 0)
(10.0473 -0.0175252 0)
(9.9819 0.0862457 0)
(9.89549 0.124245 0)
(9.85818 0.109862 0)
(9.85211 0.0697418 0)
(9.87036 0.030301 0)
(9.89846 0.00141325 0)
(9.92661 -0.0172314 0)
(9.95137 -0.028346 0)
(9.97223 -0.0344041 0)
(9.98959 -0.0372718 0)
(10.0042 -0.0381398 0)
(10.0166 -0.0377806 0)
(10.0274 -0.0366417 0)
(10.0369 -0.0350707 0)
(10.0456 -0.0332481 0)
(10.0536 -0.0313138 0)
(10.061 -0.0293379 0)
(10.068 -0.0273672 0)
(9.96925 0.133989 0)
(9.83823 0.163079 0)
(9.80793 0.122571 0)
(9.82313 0.0587694 0)
(9.86516 0.00726932 0)
(9.91144 -0.0240631 0)
(9.95039 -0.0406172 0)
(9.98055 -0.0483751 0)
(10.0035 -0.0512002 0)
(10.0212 -0.051399 0)
(10.0352 -0.0502608 0)
(10.0466 -0.0483953 0)
(10.0562 -0.0462131 0)
(10.0645 -0.0438764 0)
(10.0719 -0.0415416 0)
(10.0786 -0.0392943 0)
(10.0848 -0.037162 0)
(10.0907 -0.0351276 0)
(9.94951 0.20714 0)
(9.76128 0.207015 0)
(9.75726 0.12346 0)
(9.81044 0.0319812 0)
(9.88386 -0.0279037 0)
(9.9488 -0.0560413 0)
(9.99533 -0.0660989 0)
(10.0267 -0.0678452 0)
(10.0481 -0.0660404 0)
(10.0631 -0.0629904 0)
(10.0741 -0.0596525 0)
(10.0827 -0.0563266 0)
(10.0896 -0.0531232 0)
(10.0955 -0.0501211 0)
(10.1005 -0.047344 0)
(10.1051 -0.0448723 0)
(10.1094 -0.0426868 0)
(10.1136 -0.0406118 0)
(9.91094 0.322718 0)
(9.65922 0.254541 0)
(9.71887 0.107391 0)
(9.8333 -0.0119541 0)
(9.94177 -0.0727026 0)
(10.02 -0.0902315 0)
(10.0662 -0.0893748 0)
(10.0918 -0.0833203 0)
(10.1061 -0.0764085 0)
(10.1144 -0.0703161 0)
(10.1196 -0.0651844 0)
(10.1231 -0.0607153 0)
(10.1257 -0.0567471 0)
(10.1277 -0.0533325 0)
(10.1292 -0.0502685 0)
(10.1306 -0.0477509 0)
(10.1321 -0.0456881 0)
(10.1339 -0.0436807 0)
(9.84404 0.43511 0)
(9.53797 0.261024 0)
(9.7269 0.0591207 0)
(9.92369 -0.0731463 0)
(10.0584 -0.12161 0)
(10.1345 -0.120279 0)
(10.1665 -0.105362 0)
(10.1757 -0.0910917 0)
(10.1757 -0.0799236 0)
(10.1725 -0.0718994 0)
(10.1685 -0.0661607 0)
(10.1646 -0.061193 0)
(10.1606 -0.0567603 0)
(10.1567 -0.0529412 0)
(10.153 -0.0497111 0)
(10.1496 -0.0472651 0)
(10.1472 -0.0457225 0)
(10.1455 -0.0438003 0)
(9.83598 0.319667 0)
(9.5502 0.091249 0)
(9.91739 -0.0687342 0)
(10.1507 -0.160136 0)
(10.2635 -0.172184 0)
(10.3033 -0.142819 0)
(10.2976 -0.112222 0)
(10.2753 -0.0909765 0)
(10.2514 -0.0771516 0)
(10.2304 -0.0685094 0)
(10.2132 -0.0633452 0)
(10.1985 -0.058872 0)
(10.1848 -0.054264 0)
(10.1718 -0.0493538 0)
(10.1598 -0.0448474 0)
(10.149 -0.0419786 0)
(10.1404 -0.0406919 0)
(10.1334 -0.0381434 0)
(10.2049 -0.0633776 0)
(10.4095 -0.191709 0)
(10.7164 -0.282554 0)
(10.6879 -0.282292 0)
(10.6191 -0.230118 0)
(10.5417 -0.163749 0)
(10.4538 -0.117611 0)
(10.3752 -0.0936094 0)
(10.3137 -0.0804713 0)
(10.2656 -0.069696 0)
(10.2261 -0.0606483 0)
(10.1921 -0.0565095 0)
(10.1619 -0.0554611 0)
(10.134 -0.0545119 0)
(10.1085 -0.0522625 0)
(10.0855 -0.0462802 0)
(10.0647 -0.038954 0)
(10.0469 -0.0393458 0)
(9.41631 4.45107 0)
(12.7294 2.07612 0)
(12.5649 0.621225 0)
(11.5691 0.127666 0)
(10.9311 0.00342963 0)
(10.5863 -0.00225551 0)
(10.3631 0.0138973 0)
(10.2009 0.0313069 0)
(10.0782 0.0447205 0)
(9.97663 0.043579 0)
(9.88394 0.032971 0)
(9.79858 0.0318283 0)
(9.72245 0.0358028 0)
(9.65715 0.0333904 0)
(9.60108 0.0263474 0)
(9.54926 0.0112343 0)
(9.4985 -0.028781 0)
(9.44919 -0.0361488 0)
(-0.0249883 0.0909292 0)
(0.137478 -0.182616 0)
(0.325849 -0.304427 0)
(0.52558 -0.313489 0)
(0.702218 -0.27073 0)
(0.831708 -0.20998 0)
(0.907035 -0.14518 -8.60347e-20)
(0.936713 -0.0812815 8.67172e-20)
(0.914729 -0.0190521 0)
(0.853154 0.0355823 9.20896e-20)
(0.765392 0.0746796 0)
(0.665911 0.0922464 0)
(0.572229 0.087504 0)
(0.499846 0.0662179 -1.44066e-19)
(0.449872 0.0373507 0)
(0.405531 0.0100262 0)
(0.344904 -0.00810861 1.89631e-19)
(0.258757 -0.00747852 0)
(0.122609 0.0113572 0)
(-0.0757151 0.1121 0)
(-0.30546 0.206656 -1.39918e-19)
(-0.601657 0.247519 0)
(-0.929502 0.269432 -7.48822e-20)
(-1.26441 0.296666 0)
(-1.60299 0.323499 0)
(-1.94186 0.336007 -4.11481e-20)
(-2.27336 0.335027 0)
(-2.58959 0.325733 3.446e-20)
(-2.88739 0.309483 0)
(-3.16347 0.288644 -3.12981e-20)
(-3.41689 0.26552 0)
(-3.64733 0.241685 0)
(-3.85552 0.21816 0)
(-4.04254 0.195642 0)
(-4.20986 0.174499 0)
(-4.35902 0.154934 2.82088e-20)
(-4.49161 0.136978 0)
(-4.6091 0.120558 -5.55296e-20)
(-4.71287 0.105547 0)
(-4.80412 0.091785 5.47302e-20)
(-4.88391 0.07911 0)
(-4.95314 0.0673714 0)
(-5.01253 0.0564417 -5.35062e-20)
(-5.06272 0.0462255 0)
(-5.10421 0.0366642 -5.2613e-20)
(-5.13739 0.0277418 5.21344e-20)
(-5.16267 0.0195042 0)
(-5.18044 0.0120981 5.1106e-20)
(-5.19095 0.00578715 5.05534e-20)
(-5.19439 0.000722235 0)
(-5.19201 -0.0031987 0)
(-5.18505 -0.00645218 0)
(-5.17362 -0.00940102 0)
(-5.15806 -0.0121093 0)
(-5.13852 -0.0146758 -4.61278e-20)
(-5.11515 -0.0171141 0)
(-5.08805 -0.0194356 4.42609e-20)
(-5.05732 -0.0216489 0)
(-5.02307 -0.0237564 0)
(-4.98541 -0.0257598 -4.10801e-20)
(-4.94443 -0.0276594 0)
(-4.90024 -0.0294552 3.87025e-20)
(-4.85296 -0.0311469 0)
(-4.80269 -0.0327343 0)
(-4.74955 -0.0342175 0)
(-4.69366 -0.0355962 -3.33187e-20)
(-4.63515 -0.0368707 0)
(-4.57414 -0.0380418 0)
(-4.51076 -0.0391101 -2.87177e-20)
(-4.44513 -0.0400761 0)
(-4.37739 -0.0409414 -2.53737e-20)
(-4.30767 -0.0417072 0)
(-4.23611 -0.0423754 0)
(-4.16282 -0.0429482 0)
(-4.08795 -0.0434283 1.79904e-20)
(-4.01162 -0.0438189 0)
(-3.93397 -0.0441233 0)
(-3.85511 -0.0443455 1.18032e-20)
(-3.77518 -0.0444894 9.60739e-21)
(-3.69429 -0.0445583 0)
(-3.61257 -0.0445553 5.00063e-21)
(-3.53012 -0.044482 0)
(-3.44706 -0.0443397 1.72383e-22)
(-3.3635 -0.0441292 0)
(-3.27953 -0.043853 -1.03328e-20)
(-3.19526 -0.0435166 0)
(-3.11078 -0.0431324 2.1592e-20)
(-3.02617 -0.0427214 0)
(-2.9415 -0.0423166 0)
(-2.85682 -0.041966 0)
(-2.77218 -0.0417347 -4.68232e-20)
(-2.68759 -0.0417061 0)
(-2.60307 -0.041969 6.11249e-20)
(-2.51857 -0.0425772 0)
(-2.43407 -0.0434682 -7.68251e-20)
(-2.34981 -0.0443655 -8.52192e-20)
(-2.26604 -0.0448082 -9.39427e-20)
(-2.18302 -0.0445895 0)
(-2.1009 -0.043981 0)
(-2.01972 -0.0432823 0)
(-1.93948 -0.0425776 0)
(-1.86019 -0.0418776 0)
(-1.78187 -0.0411835 0)
(-1.70456 -0.0404969 0)
(-1.62827 -0.0398217 0)
(-1.55303 -0.0391636 1.9326e-19)
(-1.47885 -0.03853 2.07616e-19)
(-1.40575 -0.0379258 0)
(-1.33374 -0.0373401 0)
(-1.26285 -0.0367143 0)
(-1.19311 -0.0360567 2.75064e-19)
(-1.12454 -0.0354237 0)
(-1.05713 -0.0348092 0)
(-0.990875 -0.0342145 0)
(-0.92579 -0.0336418 0)
(-0.86187 -0.0330924 -3.9209e-19)
(-0.799113 -0.0325697 0)
(-0.737516 -0.032076 0)
(-0.677072 -0.0316157 4.90665e-19)
(-0.617774 -0.0311893 -5.30541e-19)
(-0.559615 -0.0308014 0)
(-0.502588 -0.0304619 -6.24613e-19)
(-0.446679 -0.0301958 0)
(-0.391871 -0.0300471 7.44266e-19)
(-0.338142 -0.0300257 0)
(-0.285479 -0.0300919 0)
(-0.233867 -0.0302355 0)
(-0.183276 -0.0304665 0)
(-0.133682 -0.0308016 0)
(-0.0851306 -0.0312595 -2.86417e-18)
(-0.037852 -0.0317171 -3.3002e-18)
(0.00823751 -0.0313709 0)
(0.0536845 -0.0298271 0)
(0.0984564 -0.0279747 0)
(0.142405 -0.0262613 2.67574e-18)
(0.18544 -0.0247321 0)
(0.227537 -0.0233625 0)
(0.268722 -0.0221278 0)
(0.309033 -0.0210089 2.03546e-18)
(0.348505 -0.0199875 -1.92979e-18)
(0.387164 -0.0190503 0)
(0.425032 -0.0181854 0)
(0.46213 -0.0173849 -1.68438e-18)
(0.49848 -0.01664 -1.62001e-18)
(0.534104 -0.0159459 0)
(0.569024 -0.0152963 0)
(0.603258 -0.0146888 1.46236e-18)
(0.636831 -0.014118 -1.41899e-18)
(0.669768 -0.0135821 0)
(0.702098 -0.0130769 0)
(0.733846 -0.012601 -1.30901e-18)
(0.765036 -0.0121516 0)
(0.79569 -0.0117279 0)
(0.825833 -0.0113274 -1.22181e-18)
(0.855486 -0.0109497 0)
(0.884674 -0.0105927 -1.17295e-18)
(0.91342 -0.0102561 0)
(0.941747 -0.00993796 0)
(0.969679 -0.00963803 0)
(0.997236 -0.00935451 1.09137e-18)
(1.02444 -0.00908693 0)
(1.05131 -0.0088335 0)
(1.07787 -0.00859317 0)
(1.10412 -0.00836386 0)
(1.13008 -0.00814347 0)
(1.15575 -0.00792903 0)
(1.18112 -0.00771662 9.83076e-19)
(1.20616 -0.00750126 9.70186e-19)
(1.23084 -0.00727577 0)
(1.25508 -0.00703088 0)
(1.27879 -0.00675294 0)
(1.30178 -0.00642333 -9.24861e-19)
(1.32383 -0.00601313 0)
(1.34452 -0.00548104 1.81455e-18)
(1.36341 -0.00474789 -1.80113e-18)
(1.37908 -0.00370084 -1.79241e-18)
(1.39163 -0.00194942 1.79052e-18)
(1.39186 0.00138546 -1.79628e-18)
(1.38919 0.00811801 1.80864e-18)
(1.30968 0.0198695 0)
(0.0969051 -0.272013 0)
(0.332961 -0.681559 0)
(0.512842 -0.705058 1.57274e-19)
(0.609982 -0.569191 0)
(0.660536 -0.406461 -1.11223e-19)
(0.680435 -0.251296 -1.08251e-19)
(0.67388 -0.109609 -5.63788e-20)
(0.642951 0.0181382 -5.63033e-20)
(0.599624 0.127791 0)
(0.539933 0.213933 -6.09785e-20)
(0.462603 0.268715 0)
(0.367547 0.283514 0)
(0.25095 0.255884 1.71513e-19)
(0.102404 0.211524 9.89605e-20)
(-0.0838183 0.208723 -1.83999e-19)
(-0.311464 0.275868 -1.42474e-19)
(-0.590635 0.387423 -5.6709e-20)
(-0.916598 0.515873 0)
(-1.27124 0.642505 0)
(-1.62835 0.755018 0)
(-1.98115 0.841266 -2.83491e-20)
(-2.32692 0.894705 0)
(-2.65656 0.917506 6.88471e-20)
(-2.96264 0.913519 0)
(-3.24136 0.886709 0)
(-3.49095 0.842284 1.98089e-20)
(-3.71026 0.785621 0)
(-3.90018 0.722225 -1.976e-20)
(-4.06269 0.656265 -4.17909e-20)
(-4.20132 0.590428 2.01717e-20)
(-4.31898 0.526819 0)
(-4.41856 0.467184 0)
(-4.50275 0.41234 0)
(-4.57395 0.362624 -4.42518e-20)
(-4.63419 0.317991 -4.47553e-20)
(-4.68515 0.278165 -2.21857e-20)
(-4.72821 0.242734 0)
(-4.76446 0.211217 4.52916e-20)
(-4.79478 0.183118 0)
(-4.8199 0.157957 -4.58567e-20)
(-4.84038 0.135296 0)
(-4.85673 0.114744 0)
(-4.86935 0.0959617 4.60595e-20)
(-4.87863 0.0786604 0)
(-4.88489 0.0626012 1.38066e-19)
(-4.88846 0.0475915 -4.55743e-20)
(-4.8896 0.0334974 0)
(-4.88857 0.020291 -4.49022e-20)
(-4.88562 0.0080902 -4.44436e-20)
(-4.88101 -0.00294218 0)
(-4.87383 -0.0128683 0)
(-4.86297 -0.0219845 0)
(-4.84842 -0.030528 0)
(-4.8301 -0.0386143 0)
(-4.80802 -0.0463125 4.01723e-20)
(-4.78225 -0.0536592 7.90737e-20)
(-4.75286 -0.0606752 -3.83936e-20)
(-4.71994 -0.0673716 0)
(-4.68358 -0.0737541 7.33912e-20)
(-4.64386 -0.079825 -3.59186e-20)
(-4.6009 -0.0855852 0)
(-4.55478 -0.0910342 -3.3217e-20)
(-4.50561 -0.0961721 0)
(-4.45352 -0.101 0)
(-4.39859 -0.10552 -5.97874e-20)
(-4.34096 -0.109731 2.83322e-20)
(-4.28074 -0.113635 -5.45922e-20)
(-4.21805 -0.117234 5.18716e-20)
(-4.15301 -0.120531 2.42378e-20)
(-4.08576 -0.123532 0)
(-4.01642 -0.12624 2.13029e-20)
(-3.94512 -0.128663 0)
(-3.87199 -0.130807 0)
(-3.79714 -0.132679 0)
(-3.72072 -0.134287 1.55714e-20)
(-3.64285 -0.13564 0)
(-3.56365 -0.136746 2.36357e-20)
(-3.48325 -0.137615 -2.97742e-20)
(-3.40176 -0.138258 -7.87363e-21)
(-3.31932 -0.138685 0)
(-3.23602 -0.138907 -4.06965e-21)
(-3.152 -0.138936 0)
(-3.06735 -0.138783 -1.40542e-22)
(-2.98219 -0.138461 0)
(-2.8966 -0.137984 8.27459e-21)
(-2.8107 -0.137362 -2.38965e-20)
(-2.72458 -0.136608 -1.71381e-20)
(-2.63832 -0.135734 0)
(-2.55202 -0.134746 0)
(-2.46576 -0.13365 0)
(-2.37965 -0.132445 3.63815e-20)
(-2.29379 -0.131121 0)
(-2.20833 -0.129651 -4.68691e-20)
(-2.12341 -0.127977 0)
(-2.03917 -0.126049 1.72572e-19)
(-1.95569 -0.123891 6.38727e-20)
(-1.87296 -0.121608 6.99136e-20)
(-1.79094 -0.119304 0)
(-1.70961 -0.117037 0)
(-1.62901 -0.114803 0)
(-1.54922 -0.112581 0)
(-1.47029 -0.110356 0)
(-1.39226 -0.108125 2.20126e-19)
(-1.31516 -0.105888 2.35645e-19)
(-1.23902 -0.103649 0)
(-1.16386 -0.10141 -1.35123e-19)
(-1.08972 -0.0991743 -1.4392e-19)
(-1.01662 -0.0969433 0)
(-0.944574 -0.0947194 -3.2387e-19)
(-0.873612 -0.0925067 0)
(-0.80372 -0.0903193 1.81784e-19)
(-0.734909 -0.0881623 0)
(-0.66719 -0.0860364 0)
(-0.600567 -0.0839436 -4.35545e-19)
(-0.535042 -0.0818857 0)
(-0.470616 -0.0798638 2.45452e-19)
(-0.407289 -0.0778816 0)
(-0.345061 -0.0759441 0)
(-0.283924 -0.0740607 2.90521e-19)
(-0.22387 -0.0722285 3.09885e-19)
(-0.164893 -0.0704433 0)
(-0.106985 -0.0687073 -3.47306e-19)
(-0.0501546 -0.0670211 0)
(0.00560554 -0.0653751 3.83229e-19)
(0.0603394 -0.0637642 7.6643e-19)
(0.114077 -0.062199 0)
(0.166817 -0.0606945 0)
(0.218561 -0.0592543 0)
(0.269323 -0.0578771 0)
(0.319136 -0.0565652 7.095e-19)
(0.368072 -0.0553069 2.09724e-18)
(0.416214 -0.0539197 0)
(0.463466 -0.0522618 0)
(0.509696 -0.0504841 0)
(0.554981 -0.0487371 -6.65901e-19)
(0.599399 -0.0470701 0)
(0.642972 -0.0454916 0)
(0.685721 -0.0439979 1.28849e-18)
(0.727668 -0.0425825 6.3723e-19)
(0.768836 -0.041237 6.32709e-19)
(0.809246 -0.0399556 0)
(0.848918 -0.0387324 0)
(0.88787 -0.0375639 6.16182e-19)
(0.926124 -0.0364456 -6.0995e-19)
(0.963701 -0.0353756 0)
(1.00062 -0.0343508 0)
(1.0369 -0.0333703 -5.97098e-19)
(1.07257 -0.0324313 1.77732e-18)
(1.10764 -0.031533 0)
(1.14214 -0.0306727 0)
(1.1761 -0.0298497 5.80651e-19)
(1.20953 -0.0290621 0)
(1.24246 -0.0283099 1.14565e-18)
(1.27492 -0.0275911 -5.68916e-19)
(1.30691 -0.0269058 0)
(1.33847 -0.0262518 5.62847e-19)
(1.36962 -0.0256294 1.11846e-18)
(1.40037 -0.0250362 0)
(1.43076 -0.0244722 0)
(1.46079 -0.0239346 -5.50114e-19)
(1.4905 -0.0234229 0)
(1.51989 -0.0229334 1.08761e-18)
(1.54899 -0.0224646 0)
(1.5778 -0.0220113 0)
(1.60634 -0.0215697 0)
(1.6346 -0.0211319 0)
(1.66257 -0.02069 -5.29634e-19)
(1.69024 -0.020231 -5.26863e-19)
(1.71757 -0.0197393 0)
(1.7445 -0.0191918 0)
(1.77093 -0.0185572 0)
(1.79672 -0.01779 5.16712e-19)
(1.82168 -0.0168232 0)
(1.84546 -0.015554 -1.02593e-18)
(1.86765 -0.0138056 1.02363e-18)
(1.88735 -0.0112927 1.02323e-18)
(1.90407 -0.00727781 1.02423e-18)
(1.91425 -0.000482514 1.02957e-18)
(1.92643 0.0124886 1.02092e-18)
(1.90685 0.0362688 0)
(0.118616 -0.861387 0)
(0.26686 -1.05252 0)
(0.313711 -0.822774 -1.25684e-19)
(0.312761 -0.580898 -1.08186e-19)
(0.295026 -0.370387 1.00659e-19)
(0.263477 -0.185203 1.00933e-19)
(0.216904 -0.0197314 -6.44904e-22)
(0.154604 0.12796 0)
(0.0764239 0.258353 0)
(-0.0188963 0.368966 0)
(-0.135023 0.454178 0)
(-0.280158 0.514935 0)
(-0.46728 0.569181 -2.65851e-19)
(-0.706523 0.645028 0)
(-0.993538 0.758572 6.58384e-20)
(-1.31235 0.900563 5.68234e-20)
(-1.64514 1.0477 0)
(-1.97537 1.18017 0)
(-2.28817 1.28592 0)
(-2.57128 1.35894 0)
(-2.81893 1.39432 3.48332e-20)
(-3.03146 1.39087 0)
(-3.21031 1.3537 -3.22965e-20)
(-3.35855 1.29067 0)
(-3.48051 1.20905 0)
(-3.58076 1.11516 0)
(-3.6641 1.01499 -6.85714e-20)
(-3.73484 0.913831 0)
(-3.7965 0.815747 3.31251e-20)
(-3.85182 0.723483 -7.06976e-20)
(-3.90271 0.638527 0)
(-3.95043 0.561591 0)
(-3.99574 0.49271 0)
(-4.03899 0.431493 3.65632e-20)
(-4.08028 0.377289 3.71471e-20)
(-4.11956 0.329324 0)
(-4.15671 0.286806 0)
(-4.19154 0.248979 -7.77659e-20)
(-4.22388 0.215151 -7.81539e-20)
(-4.25357 0.184716 7.83822e-20)
(-4.28046 0.15716 0)
(-4.30444 0.132056 0)
(-4.32542 0.109059 0)
(-4.34333 0.0878878 0)
(-4.3581 0.0683088 -7.69507e-20)
(-4.36968 0.0501243 -7.68493e-20)
(-4.378 0.0331509 7.62044e-20)
(-4.38293 0.017188 0)
(-4.38428 0.00197913 0)
(-4.38191 -0.0127621 0)
(-4.37575 -0.027163 0)
(-4.36586 -0.0411357 -7.10317e-20)
(-4.35231 -0.0545917 0)
(-4.33512 -0.0675183 0)
(-4.31434 -0.0799196 -6.6917e-20)
(-4.29001 -0.0918044 -6.48904e-20)
(-4.2622 -0.10318 0)
(-4.23099 -0.11405 1.24408e-19)
(-4.19644 -0.124417 -5.99493e-20)
(-4.15866 -0.13428 5.81717e-20)
(-4.11771 -0.143637 0)
(-4.07371 -0.152487 0)
(-4.02674 -0.160827 0)
(-3.97692 -0.168657 0)
(-3.92434 -0.175979 4.83344e-20)
(-3.86913 -0.182795 9.35977e-20)
(-3.81139 -0.189104 4.39666e-20)
(-3.75125 -0.194909 -4.16932e-20)
(-3.68882 -0.200217 0)
(-3.62422 -0.205034 7.52359e-20)
(-3.55758 -0.209367 7.03499e-20)
(-3.48903 -0.213227 6.53476e-20)
(-3.41868 -0.216623 -6.02294e-20)
(-3.34666 -0.219567 0)
(-3.2731 -0.222071 -7.37931e-20)
(-3.19812 -0.224149 0)
(-3.12184 -0.225815 1.99908e-20)
(-3.04439 -0.227085 1.57651e-20)
(-2.96588 -0.227975 0)
(-2.88644 -0.228502 0)
(-2.80617 -0.228683 1.51381e-20)
(-2.7252 -0.228535 0)
(-2.64363 -0.228077 2.69537e-21)
(-2.56156 -0.227328 0)
(-2.47911 -0.226307 1.02377e-20)
(-2.39637 -0.225032 3.52166e-20)
(-2.31345 -0.223524 0)
(-2.23043 -0.221801 0)
(-2.14742 -0.219883 0)
(-2.06451 -0.217787 4.48581e-20)
(-1.9818 -0.215528 0)
(-1.89938 -0.213118 5.96989e-20)
(-1.81735 -0.210558 0)
(-1.7358 -0.207832 0)
(-1.6548 -0.204913 -1.67708e-19)
(-1.57439 -0.201788 0)
(-1.49458 -0.19847 -9.96622e-20)
(-1.41538 -0.195002 0)
(-1.33682 -0.191443 -1.16964e-19)
(-1.25895 -0.187831 0)
(-1.18184 -0.184183 0)
(-1.10554 -0.180506 0)
(-1.03009 -0.176808 -4.63954e-19)
(-0.955521 -0.173094 -1.65479e-19)
(-0.881866 -0.169371 0)
(-0.809153 -0.165647 0)
(-0.737406 -0.161927 0)
(-0.666646 -0.158215 0)
(-0.596892 -0.154518 2.19356e-19)
(-0.528154 -0.150839 -4.59536e-19)
(-0.460439 -0.14719 -2.4323e-19)
(-0.393758 -0.143577 5.08813e-19)
(-0.328122 -0.140006 5.34658e-19)
(-0.263536 -0.136485 2.82006e-19)
(-0.200002 -0.133014 0)
(-0.137521 -0.129594 6.17585e-19)
(-0.0760954 -0.126228 0)
(-0.0157253 -0.122919 -6.7467e-19)
(0.0435961 -0.119669 -3.45537e-19)
(0.101882 -0.11648 0)
(0.159138 -0.113353 6.93859e-19)
(0.21537 -0.110292 3.49196e-19)
(0.270588 -0.107296 0)
(0.324802 -0.104356 3.49079e-19)
(0.378021 -0.10146 -1.05388e-18)
(0.430252 -0.0986191 0)
(0.481512 -0.0958428 0)
(0.531815 -0.0931338 0)
(0.58118 -0.0904932 0)
(0.629629 -0.0879262 -7.08423e-19)
(0.677196 -0.0854401 -7.10915e-19)
(0.723903 -0.0830507 0)
(0.769716 -0.0807417 0)
(0.81462 -0.0784723 0)
(0.858673 -0.0762443 0)
(0.901913 -0.0740749 0)
(0.944356 -0.0719724 0)
(0.986015 -0.0699392 -7.14677e-19)
(1.02691 -0.0679745 -1.08869e-21)
(1.06705 -0.0660762 0)
(1.10647 -0.0642426 0)
(1.14518 -0.0624719 -7.14521e-19)
(1.1832 -0.0607624 0)
(1.22054 -0.0591124 7.15572e-19)
(1.25724 -0.0575208 7.14711e-19)
(1.2933 -0.0559866 0)
(1.32876 -0.0545088 0)
(1.36362 -0.0530863 -7.15251e-19)
(1.39792 -0.051718 -1.42872e-18)
(1.43166 -0.0504021 0)
(1.46489 -0.049138 0)
(1.49761 -0.0479244 0)
(1.52985 -0.046761 -7.14011e-19)
(1.56163 -0.0456461 7.13653e-19)
(1.59296 -0.0445797 0)
(1.62388 -0.0435598 1.42454e-18)
(1.65441 -0.0425862 7.11285e-19)
(1.68456 -0.0416564 -1.42261e-18)
(1.71435 -0.0407699 0)
(1.74381 -0.0399234 0)
(1.77296 -0.0391157 -1.41898e-18)
(1.80181 -0.0383419 -7.0922e-19)
(1.83038 -0.0375992 0)
(1.85868 -0.03688 0)
(1.88672 -0.0361786 0)
(1.91451 -0.0354829 0)
(1.94203 -0.034781 -1.40899e-18)
(1.96929 -0.034053 0)
(1.99624 -0.0332755 0)
(2.02284 -0.032413 0)
(2.04901 -0.0314187 0)
(2.07463 -0.0302238 0)
(2.09954 -0.028728 0)
(2.12347 -0.0267799 -1.39935e-18)
(2.14609 -0.0241278 0)
(2.16673 -0.0203674 0)
(2.18513 -0.0147046 -2.81971e-18)
(2.19854 -0.00581865 1.41986e-18)
(2.21315 0.00895017 -1.41775e-18)
(2.20802 0.0363496 1.41338e-18)
(0.0332577 -1.16426 0)
(0.0681738 -1.02564 3.60336e-19)
(0.0321707 -0.742815 0)
(-0.0126501 -0.502365 1.10889e-19)
(-0.0684798 -0.279496 0)
(-0.13686 -0.0697478 0)
(-0.220641 0.127224 -8.26128e-20)
(-0.322206 0.310662 0)
(-0.443686 0.480137 0)
(-0.587717 0.636233 0)
(-0.758172 0.781553 0)
(-0.960249 0.922279 0)
(-1.19639 1.06647 2.03252e-19)
(-1.46067 1.21725 9.20327e-20)
(-1.73845 1.36806 -8.33584e-20)
(-2.01144 1.50549 0)
(-2.26419 1.61588 0)
(-2.48693 1.69017 0)
(-2.67502 1.72492 0)
(-2.82691 1.72171 0)
(-2.94508 1.68428 6.00787e-20)
(-3.03524 1.61757 5.87722e-20)
(-3.10361 1.52851 -5.7936e-20)
(-3.15656 1.42488 5.76537e-20)
(-3.19937 1.31335 0)
(-3.23636 1.19929 0)
(-3.27094 1.08701 5.58487e-20)
(-3.3054 0.979733 0)
(-3.34102 0.879544 0)
(-3.37826 0.787448 5.87037e-20)
(-3.41714 0.703668 6.15075e-20)
(-3.45731 0.627965 6.22166e-20)
(-3.49821 0.559805 0)
(-3.53926 0.49849 0)
(-3.57983 0.443261 -6.40164e-20)
(-3.61937 0.393365 0)
(-3.65738 0.348095 0)
(-3.69346 0.30681 6.42824e-20)
(-3.72726 0.268949 -6.5992e-20)
(-3.75851 0.234028 6.6e-20)
(-3.78698 0.201633 0)
(-3.8125 0.171416 0)
(-3.8349 0.143084 1.29923e-19)
(-3.85406 0.116387 0)
(-3.86988 0.0911148 1.28526e-19)
(-3.88226 0.0670924 1.90882e-19)
(-3.89112 0.044177 -1.89236e-19)
(-3.89639 0.0222491 1.25219e-19)
(-3.89803 0.00119206 0)
(-3.89605 -0.0191095 0)
(-3.89048 -0.0387322 1.19753e-19)
(-3.88136 -0.0576942 5.8345e-20)
(-3.86875 -0.0759917 0)
(-3.85266 -0.0936231 0)
(-3.83314 -0.110587 5.48363e-20)
(-3.81024 -0.126884 1.08121e-19)
(-3.78401 -0.14251 0)
(-3.75451 -0.157465 -1.01666e-19)
(-3.72181 -0.171742 9.98346e-20)
(-3.686 -0.185339 -9.68611e-20)
(-3.64714 -0.198249 0)
(-3.60534 -0.210467 0)
(-3.56067 -0.221989 0)
(-3.51325 -0.23281 0)
(-3.46317 -0.242936 0)
(-3.41054 -0.252367 -7.5778e-20)
(-3.35547 -0.261102 0)
(-3.29807 -0.269145 0)
(-3.23845 -0.276504 0)
(-3.17674 -0.283187 -1.22317e-19)
(-3.11305 -0.289204 -5.65489e-20)
(-3.04749 -0.294569 -5.24456e-20)
(-2.9802 -0.299295 9.77226e-20)
(-2.91129 -0.303397 -4.5202e-20)
(-2.84089 -0.306893 3.96473e-20)
(-2.7691 -0.309801 0)
(-2.69606 -0.312141 -3.07204e-20)
(-2.62187 -0.313933 0)
(-2.54667 -0.3152 0)