/*--------------------------------*- C++ -*----------------------------------*\
  =========                 |
  \\      /  F ield         | OpenFOAM: The Open Source CFD Toolbox
   \\    /   O peration     | Website:  https://openfoam.org
    \\  /    A nd           | Version:  8
     \\/     M anipulation  |
\*---------------------------------------------------------------------------*/
FoamFile
{
    version     2.0;
    format      ascii;
    class       volVectorField;
    location    "300";
    object      wallShearStress;
}
// * * * * * * * * * * * * * * * * * * * * * * * * * * * * * * * * * * * * * //

dimensions      [0 2 -2 0 0 0 0];

internalField   uniform (0 0 0);

boundaryField
{
    inlet
    {
        type            calculated;
        value           uniform (0 0 0);
    }
    outlet
    {
        type            calculated;
        value           uniform (0 0 0);
    }
    upperWall
    {
        type            calculated;
        value           nonuniform List<vector> 
223
(
(-0.446159 0.00305409 0)
(-0.485385 0.00558094 0)
(-0.503222 0.00685723 0)
(-0.50595 0.0073475 0)
(-0.500981 0.00735276 0)
(-0.490509 0.00700502 0)
(-0.478624 0.00649692 0)
(-0.46652 0.00592292 0)
(-0.454123 0.00532374 0)
(-0.442447 0.00474474 0)
(-0.431715 0.00420311 0)
(-0.42198 0.00370439 0)
(-0.413248 0.003251 0)
(-0.405456 0.00284392 0)
(-0.398534 0.00248228 0)
(-0.392389 0.00217612 0)
(-0.386885 0.00193002 0)
(-0.381981 0.00178302 0)
(-0.378053 0.00170669 0)
(-0.374946 0.00165907 7.11156e-22)
(-0.371913 0.00159104 0)
(-0.368961 0.0015118 0)
(-0.36609 0.00142683 0)
(-0.363301 0.00133952 7.23028e-22)
(-0.3606 0.0012516 0)
(-0.35799 0.00116495 0)
(-0.355471 0.00108054 0)
(-0.353043 0.000999119 -1.46672e-21)
(-0.350706 0.000920988 1.4716e-21)
(-0.348458 0.000846402 1.47639e-21)
(-0.346299 0.000775513 0)
(-0.344226 0.000708471 -1.48574e-21)
(-0.342238 0.000645079 0)
(-0.340333 0.000585525 1.49485e-21)
(-0.338508 0.000529667 1.49934e-21)
(-0.336761 0.000477472 -1.50379e-21)
(-0.33509 0.00042882 0)
(-0.333491 0.000383634 0)
(-0.331963 0.00034183 0)
(-0.330502 0.000303356 0)
(-0.329105 0.000268164 -1.52566e-21)
(-0.32777 0.000235969 0)
(-0.326494 0.000206774 0)
(-0.325273 0.000180463 1.5387e-21)
(-0.324104 0.000156924 0)
(-0.322984 0.000135993 1.54744e-21)
(-0.321912 0.000117575 -1.55183e-21)
(-0.320883 0.000101764 1.55625e-21)
(-0.319894 8.836e-05 0)
(-0.318942 7.74111e-05 0)
(-0.318024 6.8903e-05 0)
(-0.317135 6.25988e-05 1.57422e-21)
(-0.316275 5.83756e-05 -1.57881e-21)
(-0.315436 5.61815e-05 0)
(-0.31462 5.57324e-05 0)
(-0.313819 5.69016e-05 0)
(-0.313036 5.95043e-05 0)
(-0.312261 6.33387e-05 0)
(-0.311502 6.82389e-05 0)
(-0.310743 7.40161e-05 0)
(-0.310003 8.05175e-05 0)
(-0.309248 8.76669e-05 1.62188e-21)
(-0.308526 9.52073e-05 -1.62692e-21)
(-0.307763 0.000103269 0)
(-0.307064 0.000111471 0)
(-0.306268 0.000120157 0)
(-0.305639 0.0001289 -1.64725e-21)
(-0.304664 0.000136457 0)
(-0.304496 0.000151252 0)
(-0.302252 0.000160208 0)
(-0.305301 0.000157709 0)
(-0.301588 0.000156802 0)
(-0.317956 0.00017562 -3.53977e-21)
(-0.363492 2.84483e-05 0)
(-0.371573 0.000688419 0)
(-0.351978 0.00113731 0)
(-0.339621 0.000603443 0)
(-0.324766 0.000282219 0)
(-0.31613 0.000135269 0)
(-0.307011 0.000305435 0)
(-0.316859 0.000488378 3.6563e-21)
(-0.308012 0.000515275 0)
(-0.303986 0.000710916 0)
(-0.301505 0.000408811 0)
(-0.338739 0.000471339 -4.05331e-21)
(-0.32546 0.000731222 0)
(-0.321449 0.000579241 -3.88521e-21)
(-0.31609 0.000450035 0)
(-0.309696 1.57132e-05 0)
(-0.306275 -0.000135885 0)
(-0.296858 -2.46979e-05 -3.71203e-21)
(-0.324714 -3.72437e-05 0)
(-0.338615 -3.06927e-05 4.27922e-21)
(-0.329575 9.70058e-05 4.18569e-21)
(-0.361269 9.3986e-05 0)
(-0.365545 0.000655617 4.67833e-21)
(-0.342086 0.00134618 0)
(-0.311531 0.00105892 0)
(-0.312239 0.000597212 0)
(-0.302277 0.000369302 -3.91704e-21)
(-0.292888 0.000360165 0)
(-0.292531 -4.9342e-05 -3.81874e-21)
(-0.314854 0.000404806 4.13266e-21)
(-0.301439 0.000887375 0)
(-0.301642 0.000273535 0)
(-0.290912 0.000230547 0)
(-0.290396 0.000243971 0)
(-0.289902 8.17396e-05 0)
(-0.321303 7.88087e-05 0)
(-0.322493 0.000105429 0)
(-0.347325 0.00082 -4.54943e-21)
(-0.324326 0.00138963 0)
(-0.290312 0.00102858 0)
(-0.285884 0.00110977 0)
(-0.28484 0.000901567 0)
(-0.284165 0.000539704 0)
(-0.283259 0.000716626 0)
(-0.28221 0.000924943 0)
(-0.281008 0.000775407 0)
(-0.28006 0.000100833 0)
(-0.298497 -0.000242746 0)
(-0.326208 -0.000131994 0)
(-0.313086 0.000267687 0)
(-0.341249 0.000335284 -8.69909e-21)
(-0.319852 0.000202432 0)
(-0.327112 0.000611627 0)
(-0.331767 0.000687797 0)
(-0.312767 0.000448546 7.65939e-21)
(-0.292566 0.000381666 0)
(-0.296525 0.000797288 0)
(-0.272952 0.00134495 6.32917e-21)
(-0.265881 0.00104455 0)
(-0.264878 0.000451752 -5.88982e-21)
(-0.264691 0.000301305 0)
(-0.275327 0.000982834 0)
(-0.260059 0.00113363 0)
(-0.276456 0.000541095 5.56899e-21)
(-0.282529 0.00100126 0)
(-0.256102 0.000941284 -4.78332e-21)
(-0.274036 0.000984657 0)
(-0.253553 0.000855476 0)
(-0.268898 0.000944054 0)
(-0.25084 0.00126511 0)
(-0.249429 0.000544616 0)
(-0.253552 -9.38549e-06 0)
(-0.254924 0.000381197 0)
(-0.276265 0.000556173 0)
(-0.269751 0.000109702 0)
(-0.247077 0.000213827 0)
(-0.237647 0.000300884 0)
(-0.235139 0.000459354 -1.85688e-21)
(-0.232262 0.000565072 1.58601e-21)
(-0.229661 0.00111824 0)
(-0.249883 0.002206 0)
(-0.228862 0.00119909 0)
(-0.227592 0.000362703 0)
(-0.247507 0.00116859 -2.32156e-23)
(-0.226074 0.00157011 3.48633e-22)
(-0.225545 0.00144314 -6.74534e-22)
(-0.224499 0.00113729 0)
(-0.22343 0.000815783 -1.37329e-21)
(-0.221571 -1.66817e-05 -3.55254e-21)
(-0.220232 9.52835e-05 0)
(-0.229376 0.00106212 -5.34212e-21)
(-0.239635 0.000882511 6.41765e-21)
(-0.234744 0.000587436 0)
(-0.246117 0.00165416 0)
(-0.214489 0.00174937 0)
(-0.21408 0.00162656 0)
(-0.213756 -8.39352e-05 0)
(-0.210675 -0.000550279 -1.08716e-20)
(-0.211548 0.000530651 0)
(-0.207868 -0.00035769 -1.24383e-20)
(-0.204517 0.000238947 0)
(-0.210566 0.0011929 0)
(-0.215448 0.000221975 0)
(-0.199793 -0.00020815 0)
(-0.208848 0.00127913 0)
(-0.19871 0.00200258 1.73295e-20)
(-0.198244 0.00161686 0)
(-0.196379 0.000771064 0)
(-0.192832 1.2371e-05 -2.09752e-20)
(-0.187165 -0.000221789 0)
(-0.182047 0.000359169 0)
(-0.179264 0.00112179 0)
(-0.177474 0.0014711 2.67541e-20)
(-0.173831 0.00104755 0)
(-0.165305 0.000318151 0)
(-0.151283 0.000276454 0)
(-0.134911 0.00075046 0)
(-0.119121 0.0011424 -5.16918e-20)
(-0.106235 0.00118467 0)
(-0.0961269 0.00112816 0)
(-0.0879149 0.0010531 0)
(-0.0807354 0.00115986 7.99796e-20)
(-0.0711353 0.00134207 0)
(-0.0653787 0.00191614 0)
(-0.0361731 0.00158613 -1.20388e-19)
(-0.0665369 0.000565729 0)
(-0.0996987 0.00548179 1.05677e-17)
(-0.122384 0.00973848 1.88908e-17)
(-0.134715 0.0122601 1.76645e-17)
(-0.141473 0.0137428 1.69664e-17)
(-0.145879 0.0145984 1.64594e-17)
(-0.14831 0.0151139 -1.60236e-17)
(-0.149605 0.0153697 -1.57135e-17)
(-0.150411 0.0155102 0)
(-0.150997 0.0155989 -3.04191e-17)
(-0.152032 0.0156697 -1.49573e-17)
(-0.153001 0.0157735 5.7176e-34)
(-0.155015 0.0158806 0)
(-0.156892 0.0161047 -2.8001e-17)
(-0.160161 0.0163177 -2.72376e-17)
(-0.163121 0.0166639 -2.60968e-17)
(-0.168113 0.0169979 -2.40741e-35)
(-0.172692 0.01751 4.67666e-17)
(-0.179771 0.0180158 2.18031e-17)
(-0.186235 0.0187173 2.40741e-35)
(-0.196135 0.0194681 -3.45946e-17)
(-0.203976 0.0203232 -1.39577e-20)
(-0.219914 0.0215371 0)
(-0.223363 0.0223488 1.24378e-17)
(-0.253148 0.0241758 -7.54376e-18)
)
;
    }
    lowerWall
    {
        type            calculated;
        value           nonuniform List<vector> 
250
(
(-0.62548 -0.00570017 0)
(-0.597287 -0.00958855 0)
(-0.643403 -0.011158 0)
(-0.702172 -0.0113358 0)
(-0.692592 -0.0115523 0)
(-0.589565 -0.00941876 0)
(-0.523685 -0.00678844 0)
(-0.479857 -0.00500465 0)
(-0.468902 -0.00404978 0)
(-0.454307 -0.00331318 0)
(-0.478227 -0.00262534 0)
(-0.495748 -0.00194308 0)
(-0.490937 -0.00118474 0)
(-0.468907 -0.000765759 0)
(-0.49478 -0.00146207 0)
(-0.449176 -0.00151008 0)
(-0.422612 -0.000935863 0)
(-0.422027 -0.000196111 0)
(0.00217417 0.00055585 0)
(0.00245537 -0.00227866 0)
(0.00276392 -0.0052529 0)
(0.00317858 -0.0084763 1.33302e-19)
(0.00363762 -0.011802 -1.12848e-19)
(0.00397959 -0.0158164 1.01109e-19)
(0.00392298 -0.0162517 -9.1059e-20)
(0.00887768 -0.0363996 0)
(-0.0483317 -0.108685 0)
(0.000218139 -0.00027281 0)
(5.24556e-05 -0.000777009 0)
(-9.60708e-06 -0.000857345 0)
(5.13906e-05 -0.000845304 0)
(2.87328e-05 -0.000794048 1.7934e-19)
(-0.000142359 -0.000238656 -1.74843e-19)
(-0.000537286 0.00111675 0)
(-0.00107322 0.00359613 -2.07216e-19)
(-0.00143326 0.00678452 1.59739e-19)
(-0.00142152 0.00987552 0)
(-0.00109887 0.0122603 0)
(-0.000621729 0.013642 0)
(-0.00012847 0.0139392 0)
(0.000283702 0.0132363 0)
(0.000633357 0.011834 0)
(0.000977936 0.00976579 0)
(0.00135613 0.00706447 0)
(0.00178691 0.00376845 0)
(-0.000140801 -0.000273504 0)
(0.000168704 -0.000437672 0)
(0.000475209 -0.000480774 0)
(0.000787033 -0.00039552 0)
(0.00101621 -0.000146634 -0)
(0.00102381 0.000239038 -0)
(0.000752582 0.000687392 1.76828e-20)
(0.000230523 0.00109616 -1.90532e-20)
(-0.000468528 0.0013821 0)
(-0.00125606 0.00151699 -1.07358e-20)
(-0.00205789 0.00151644 0)
(-0.00281365 0.00141156 0)
(-0.0034847 0.00123812 0)
(-0.00405219 0.00102478 5.499e-21)
(-0.00450823 0.00079004 0)
(-0.00485064 0.000544713 0)
(-0.0050791 0.000295257 -4.77271e-21)
(-0.00519713 3.83341e-05 -0)
(-0.00519139 -0.000228107 0)
(-0.00505327 -0.000491427 -0)
(-0.00478947 -0.000735047 5.02923e-21)
(-0.00440918 -0.000943619 -0)
(-0.00392475 -0.00110021 5.78307e-21)
(-0.00335478 -0.00118779 0)
(-0.00272575 -0.00119085 -0)
(-0.00207364 -0.00109926 8.67771e-21)
(-0.00144332 -0.000913629 0)
(-0.000886052 -0.000653397 -1.33535e-20)
(-0.000448857 -0.000364894 0)
(-0.000149324 -0.000113956 2.28799e-20)
(3.84251e-05 5.88585e-05 0)
(0.000150612 0.000180325 0)
(0.00018711 0.000298266 0)
(0.00011277 0.000420772 0)
(-5.42275e-05 0.000561837 0)
(-0.000341699 0.000727914 -2.13546e-20)
(-0.000770002 0.000885526 0)
(-0.00129819 0.00096113 2.48916e-20)
(-0.00184239 0.00091446 0)
(-0.00230407 0.000747989 -1.81378e-20)
(-0.0026114 0.000514357 0)
(-0.0027511 0.000288664 0)
(-0.00275673 0.000119177 1.6678e-20)
(-0.00266872 4.77579e-05 0)
(-0.00256235 9.91028e-05 1.69116e-20)
(-0.00246646 0.000235329 -1.70472e-20)
(-0.00234539 0.000349172 0)
(-0.00210552 0.000229889 -1.84442e-20)
(-0.00152158 -0.000344222 -2.13037e-20)
(-0.000261451 -0.00110361 0)
(0.00151422 -0.00180358 0)
(0.0034666 -0.00251796 0)
(0.00571479 -0.00324977 0)
(0.00826692 -0.00383271 -0)
(0.0109646 -0.00394472 4.11442e-21)
(0.0136767 -0.00391186 0)
(0.0169585 -0.00409366 -3.30329e-21)
(0.0193764 -0.0038885 -0)
(0.0209344 -0.00347119 -0)
(0.0230783 -0.00324524 2.42254e-21)
(0.0252957 -0.00300075 0)
(0.0283028 -0.00280922 -2.27629e-21)
(0.0307592 -0.0026196 -0)
(0.0330358 -0.00243824 0)
(0.0353107 -0.00225832 -0)
(0.0373868 -0.00209568 2.12166e-21)
(0.0393997 -0.00195117 0)
(0.0413229 -0.00182374 -0)
(0.0431605 -0.00171144 2.06487e-21)
(0.0449408 -0.00161278 0)
(0.0466526 -0.00152549 2.03946e-21)
(0.0483161 -0.0014478 0)
(0.049928 -0.00137789 0)
(0.0514966 -0.00131431 0)
(0.0530231 -0.00125586 -2.0028e-21)
(0.0545109 -0.00120134 -0)
(0.055961 -0.00114997 0)
(0.0573749 -0.00110101 -1.98056e-21)
(0.0587528 -0.00105381 -1.97342e-21)
(0.0600953 -0.00100792 -0)
(0.0614018 -0.000962985 -1.95903e-21)
(0.0626728 -0.00091844 0)
(0.0639061 -0.000874026 -3.88806e-21)
(0.0651022 -0.000829378 -0)
(0.0662585 -0.000784283 -3.85595e-21)
(0.0673754 -0.000738229 -0)
(0.0684491 -0.00069089 3.82105e-21)
(0.0694794 -0.00064188 0)
(0.0704629 -0.000590837 0)
(0.0713982 -0.000537463 0)
(0.0722821 -0.000481391 -3.73997e-21)
(0.0731121 -0.00042267 -0)
(0.0738853 -0.000361575 3.69301e-21)
(0.0745984 -0.000298852 0)
(0.0752485 -0.000235722 -3.64201e-21)
(0.075833 -0.000172965 -3.61518e-21)
(0.0763498 -0.000112262 -3.58751e-21)
(0.0768022 -5.71511e-05 0)
(0.0771988 -8.28538e-06 0)
(0.0775384 3.78956e-05 0)
(0.0778222 8.35435e-05 0)
(0.0780494 0.000129308 0)
(0.0782189 0.000175213 0)
(0.0783303 0.000221368 0)
(0.0783824 0.000267621 0)
(0.0783743 0.000313945 3.23946e-21)
(0.0783054 0.000360129 3.18829e-21)
(0.0781757 0.000406156 0)
(0.0779844 0.000451904 0)
(0.0777315 0.000497268 0)
(0.0774171 0.000542116 2.95395e-21)
(0.0770413 0.000586347 0)
(0.0766045 0.000629909 0)
(0.0761068 0.000672528 0)
(0.0755498 0.000714169 0)
(0.074934 0.000754714 -2.58886e-21)
(0.0742609 0.000794155 0)
(0.0735318 0.000832203 0)
(0.0727491 0.000868901 2.32906e-21)
(0.0719155 0.000903916 -2.2356e-21)
(0.0710346 0.000937272 0)
(0.0701112 0.000968261 -2.03865e-21)
(0.0691526 0.000996721 0)
(0.0681593 0.00102175 1.82874e-21)
(0.0670897 0.00104653 0)
(0.0659771 0.00106752 0)
(0.0648228 0.00108526 0)
(0.0635714 0.00109731 0)
(0.0623992 0.00110526 0)
(0.0610766 0.00110339 -2.22582e-21)
(0.0598384 0.0010935 -1.968e-21)
(0.0585206 0.00109162 0)
(0.0572105 0.00110063 0)
(0.0558685 0.00110719 0)
(0.0545119 0.00111088 8.77073e-22)
(0.053142 0.00111232 0)
(0.0517628 0.00111196 0)
(0.0503763 0.00110956 0)
(0.0489849 0.00110539 -2.99461e-22)
(0.0475909 0.00109934 6.06033e-22)
(0.0461969 0.00109164 0)
(0.0448054 0.00108206 0)
(0.0434193 0.00107106 1.55232e-21)
(0.0420407 0.00105853 1.87603e-21)
(0.0406711 0.00104473 0)
(0.0393118 0.00102945 0)
(0.0379649 0.00101287 -2.87063e-21)
(0.0366314 0.000995167 3.20987e-21)
(0.0353132 0.000976551 0)
(0.0340115 0.000957342 0)
(0.0327272 0.000937605 4.25065e-21)
(0.0314612 0.000917432 0)
(0.0302138 0.000896854 0)
(0.0289861 0.000876183 5.3274e-21)
(0.0277782 0.00085543 0)
(0.0265906 0.000834732 6.0681e-21)
(0.0254232 0.000814122 0)
(0.0242755 0.000793892 0)
(0.0231472 0.000774353 0)
(0.0220374 0.000755658 -7.62222e-21)
(0.0209444 0.000737956 0)
(0.0198678 0.000721431 0)
(0.0188044 0.000706218 0)
(0.017755 0.000692545 0)
(0.0167135 0.000680275 0)
(0.0156804 0.000670403 0)
(0.01465 0.000661308 -1.07485e-20)
(0.013626 0.000655472 -1.12712e-20)
(0.012595 0.000651437 0)
(0.0115656 0.000649251 0)
(0.0105229 0.000649322 0)
(0.00947601 0.000651818 1.36737e-20)
(0.00841251 0.000656074 0)
(0.00733696 0.000660723 -3.03016e-20)
(0.00624686 0.000665259 3.1972e-20)
(0.00514552 0.000668402 3.37944e-20)
(0.00404056 0.000666687 -3.57899e-20)
(0.00294714 0.000652442 3.79744e-20)
(0.00177194 0.000587062 -4.03212e-20)
(0.0014311 0.000440765 0)
(-0.000245841 0.00140485 -2.82819e-18)
(-0.00286233 0.00118813 -2.66959e-18)
(-0.00538787 0.000956873 0)
(-0.0082649 0.000721195 -4.41906e-18)
(-0.0114702 0.000423534 -8.1224e-18)
(-0.014981 9.73442e-05 -3.75259e-18)
(-0.0188337 -0.000258159 3.48103e-18)
(-0.0230579 -0.000652899 1.20371e-35)
(-0.0276774 -0.00108825 3.00927e-36)
(-0.0327074 -0.00156559 2.84041e-18)
(-0.0381574 -0.00208752 2.66618e-18)
(-0.0440889 -0.00266959 0)
(-0.0505056 -0.00326336 0)
(-0.0573492 -0.00387912 0)
(-0.0646811 -0.00458487 -3.94966e-35)
(-0.0725291 -0.00537745 1.34241e-35)
(-0.0809871 -0.00623864 2.40741e-35)
(-0.0900002 -0.00717048 -3.41488e-18)
(-0.0999798 -0.00816975 -3.1418e-18)
(-0.110217 -0.00925331 0)
(-0.122879 -0.0104267 5.06152e-18)
(-0.133612 -0.0117065 8.50154e-18)
(-0.152491 -0.0130751 6.01853e-36)
(-0.160555 -0.0146618 -4.18023e-18)
(-0.197523 -0.0172385 6.01853e-36)
)
;
    }
    frontAndBack
    {
        type            empty;
    }
}


// ************************************************************************* //
