/*--------------------------------*- C++ -*----------------------------------*\
  =========                 |
  \\      /  F ield         | OpenFOAM: The Open Source CFD Toolbox
   \\    /   O peration     | Website:  https://openfoam.org
    \\  /    A nd           | Version:  8
     \\/     M anipulation  |
\*---------------------------------------------------------------------------*/
FoamFile
{
    version     2.0;
    format      ascii;
    class       volScalarField;
    location    "400";
    object      nut;
}
// * * * * * * * * * * * * * * * * * * * * * * * * * * * * * * * * * * * * * //

dimensions      [0 2 -1 0 0 0 0];

internalField   nonuniform List<scalar> 
12225
(
3.93225e-05
3.62225e-05
3.34916e-05
3.15008e-05
2.96972e-05
2.87276e-05
2.79252e-05
2.79773e-05
2.80876e-05
2.87587e-05
2.96055e-05
3.04148e-05
3.18215e-05
3.27049e-05
3.42315e-05
3.4973e-05
3.6802e-05
3.62463e-05
0.000278535
0.000186788
0.000157741
0.000143129
0.000132936
0.000129528
0.000125991
0.000126727
0.00012558
0.000127099
0.000126178
0.000127041
0.000126179
0.000126385
0.000125727
0.000125318
0.000125116
0.000124251
0.000510486
0.000388228
0.00032056
0.00028174
0.000251815
0.000231541
0.000213258
0.000200077
0.000186128
0.000177224
0.0001686
0.000162536
0.000157153
0.000152644
0.000149431
0.000145824
0.000144053
0.000141089
0.000560838
0.000529931
0.000473588
0.000431115
0.000396165
0.000368013
0.00034374
0.00032312
0.000304746
0.00028758
0.000273106
0.00025848
0.000248189
0.000235726
0.000228335
0.000217846
0.000212466
0.000203957
0.000574224
0.000567143
0.000549812
0.000527763
0.000504254
0.000481588
0.00046161
0.000441831
0.000425638
0.000407925
0.000394632
0.000378327
0.000367499
0.000352679
0.000343844
0.000330497
0.000323327
0.000311561
0.000575244
0.000573999
0.000571068
0.000563646
0.000554566
0.000544043
0.000533251
0.00052063
0.000510158
0.000497679
0.000488051
0.000476045
0.000467328
0.000456001
0.000448147
0.000437623
0.000430523
0.000420618
0.000575195
0.000574554
0.000574293
0.000572599
0.000570423
0.000566752
0.000562972
0.000557713
0.000552746
0.000546827
0.000541132
0.000535112
0.000529222
0.000523207
0.000517501
0.000511567
0.000506109
0.000499976
0.000575158
0.000574593
0.000574407
0.000573765
0.000573177
0.00057187
0.000570544
0.000568465
0.000566345
0.000563648
0.000560952
0.000557795
0.000554832
0.000551338
0.000548344
0.000544598
0.000541779
0.000537717
0.000575129
0.000574625
0.000574344
0.000573892
0.000573597
0.000573027
0.000572523
0.000571686
0.000570861
0.000569682
0.000568559
0.000567038
0.000565707
0.000563893
0.000562452
0.000560401
0.000558949
0.000556703
0.000575107
0.000574648
0.000574309
0.000573898
0.0005736
0.000573212
0.000572911
0.000572482
0.000572126
0.000571596
0.000571152
0.000570488
0.000569951
0.000569151
0.000568535
0.000567613
0.000566941
0.000565921
0.000575093
0.000574659
0.000574291
0.000573901
0.000573574
0.00057322
0.000572928
0.000572597
0.000572325
0.000571995
0.000571726
0.000571381
0.000571099
0.000570729
0.000570426
0.000570027
0.000569702
0.000569275
0.000575086
0.000574664
0.000574281
0.000573902
0.000573559
0.000573216
0.000572909
0.000572598
0.000572321
0.000572036
0.000571782
0.000571518
0.000571281
0.000571032
0.000570806
0.000570566
0.000570347
0.000570115
0.000575082
0.000574665
0.000574275
0.0005739
0.000573549
0.000573211
0.000572895
0.00057259
0.000572304
0.000572027
0.000571768
0.000571517
0.00057128
0.000571051
0.000570835
0.000570625
0.000570426
0.000570234
0.000575081
0.000574665
0.000574272
0.000573897
0.000573543
0.000573206
0.000572886
0.000572581
0.000572292
0.000572016
0.000571754
0.000571503
0.000571264
0.000571036
0.000570819
0.000570612
0.000570414
0.000570225
0.000575081
0.000574664
0.00057427
0.000573895
0.000573539
0.000573201
0.00057288
0.000572575
0.000572284
0.000572007
0.000571743
0.000571491
0.000571252
0.000571023
0.000570804
0.000570596
0.000570397
0.000570207
0.00057508
0.000574664
0.000574268
0.000573893
0.000573537
0.000573198
0.000572876
0.000572569
0.000572278
0.000572
0.000571735
0.000571483
0.000571242
0.000571012
0.000570793
0.000570584
0.000570384
0.000570193
0.00057508
0.000574663
0.000574268
0.000573892
0.000573535
0.000573196
0.000572873
0.000572566
0.000572274
0.000571995
0.00057173
0.000571477
0.000571235
0.000571005
0.000570785
0.000570575
0.000570374
0.000570182
0.00057508
0.000574663
0.000574267
0.000573891
0.000573534
0.000573195
0.000572872
0.000572564
0.000572272
0.000571993
0.000571727
0.000571474
0.000571232
0.000571001
0.000570781
0.00057057
0.000570369
0.000570177
0.00057508
0.000574663
0.000574268
0.000573892
0.000573534
0.000573195
0.000572872
0.000572565
0.000572272
0.000571993
0.000571727
0.000571474
0.000571232
0.000571001
0.00057078
0.000570569
0.000570368
0.000570176
0.00057508
0.000574664
0.000574268
0.000573892
0.000573535
0.000573196
0.000572874
0.000572566
0.000572274
0.000571995
0.000571729
0.000571476
0.000571234
0.000571003
0.000570782
0.000570572
0.000570371
0.000570178
0.00057508
0.000574664
0.000574269
0.000573894
0.000573537
0.000573199
0.000572876
0.00057257
0.000572277
0.000571999
0.000571733
0.00057148
0.000571238
0.000571007
0.000570785
0.000570574
0.000570371
0.000570177
0.00057508
0.000574666
0.000574269
0.000573897
0.000573539
0.000573203
0.000572879
0.000572575
0.00057228
0.000572002
0.000571731
0.000571475
0.000571223
0.000570985
0.000570749
0.000570525
0.000570302
0.000570091
0.000575078
0.000574668
0.00057427
0.000573902
0.000573542
0.000573208
0.000572873
0.000572559
0.000572234
0.000571926
0.000571598
0.000571285
0.000570946
0.000570622
0.000570268
0.000569934
0.000569565
0.000569223
0.000575074
0.000574676
0.000574274
0.000573909
0.000573509
0.000573113
0.000572642
0.000572149
0.000571554
0.000570936
0.000570204
0.000569468
0.000568613
0.000567784
0.000566833
0.000565945
0.000564926
0.000564011
0.000575072
0.000574715
0.000574231
0.000573649
0.000572742
0.000571592
0.000570055
0.000568293
0.000566211
0.000564001
0.000561551
0.000559089
0.000556431
0.000553888
0.000551144
0.000548635
0.000545876
0.000543475
0.000575215
0.000574506
0.000572597
0.00056959
0.000565119
0.000559826
0.000553715
0.000547409
0.000540801
0.000534321
0.00052782
0.000521601
0.000515498
0.000509771
0.000504073
0.000498892
0.000493531
0.00048898
0.000575193
0.000567749
0.000555502
0.000541006
0.00052443
0.000508594
0.000493364
0.000479708
0.000466711
0.000455325
0.00044434
0.000434846
0.000425512
0.000417504
0.000409401
0.000402604
0.000395446
0.000389589
0.000556591
0.000516457
0.000469978
0.000435612
0.00040654
0.000383409
0.000364191
0.000348495
0.000334741
0.000323592
0.000313231
0.000305099
0.000296995
0.000290411
0.000283912
0.000278656
0.00027304
0.000268704
0.000419857
0.000313591
0.000271601
0.000245146
0.000226508
0.000215775
0.000207232
0.000200822
0.000196504
0.000193555
0.000191098
0.000189447
0.00018792
0.000186909
0.00018582
0.000185232
0.000184464
0.000184135
8.15215e-05
7.76813e-05
7.43762e-05
7.15177e-05
6.88451e-05
6.65877e-05
6.46164e-05
6.29913e-05
6.1595e-05
6.05349e-05
5.96447e-05
5.90364e-05
5.85382e-05
5.82732e-05
5.80647e-05
5.80494e-05
5.80908e-05
5.81894e-05
1.38166e-07
3.85341e-06
7.27036e-06
1.02457e-05
1.29745e-05
1.59728e-05
1.9471e-05
2.37122e-05
2.89224e-05
3.51598e-05
4.2352e-05
5.03361e-05
5.89117e-05
6.79043e-05
7.71313e-05
8.64738e-05
9.57764e-05
0.000104968
0.000113922
0.000122635
0.000131007
0.000139124
0.000146928
0.000154588
0.000162085
0.000169613
0.0001771
0.000184599
0.000191903
0.000199904
0.000206827
0.000210889
0.000214216
0.000215307
0.000214343
0.000209351
0.000206573
0.000200223
0.000199858
0.000192531
4.21688e-05
4.5611e-05
4.57251e-05
4.77576e-05
4.98352e-05
5.03906e-05
5.17003e-05
5.27374e-05
5.38784e-05
5.49794e-05
5.60938e-05
5.71979e-05
5.83023e-05
5.94011e-05
6.04976e-05
6.15896e-05
6.26786e-05
6.37633e-05
6.48448e-05
6.59219e-05
6.69955e-05
6.80644e-05
6.91294e-05
7.01893e-05
7.12447e-05
7.22946e-05
7.33392e-05
7.43775e-05
7.54098e-05
7.64351e-05
7.74535e-05
7.84639e-05
7.94664e-05
8.046e-05
8.14447e-05
8.24196e-05
8.33843e-05
8.43382e-05
8.52809e-05
8.62116e-05
8.713e-05
8.80353e-05
8.89271e-05
8.98047e-05
9.06676e-05
9.15151e-05
9.23466e-05
9.31615e-05
9.39589e-05
9.47383e-05
9.54987e-05
9.62392e-05
9.69587e-05
9.76561e-05
9.83303e-05
9.89803e-05
9.96061e-05
0.000100209
0.000100796
0.000101359
0.000101901
0.000102421
0.000102919
0.000103395
0.000103848
0.000104279
0.000104686
0.000105069
0.000105429
0.000105765
0.000106077
0.000106364
0.000106627
0.000106865
0.000107078
0.000107265
0.000107428
0.000107565
0.000107677
0.000107764
0.000107826
0.000107862
0.000107872
0.000107858
0.000107819
0.000107754
0.000107665
0.000107551
0.000107413
0.000107253
0.000107065
0.000106854
0.000106613
0.000106354
0.000106077
0.000105776
0.00010545
0.000105102
0.000104733
0.000104343
0.000103932
0.000103501
0.00010305
0.000102581
0.000102093
0.000101587
0.000101064
0.000100524
9.9968e-05
9.93958e-05
9.88085e-05
9.82068e-05
9.75916e-05
9.69633e-05
9.63229e-05
9.56709e-05
9.50083e-05
9.43357e-05
9.36539e-05
9.29639e-05
9.22666e-05
9.15634e-05
9.08575e-05
9.0162e-05
8.95894e-05
8.91736e-05
8.87754e-05
8.8377e-05
8.79768e-05
8.7575e-05
8.71717e-05
8.6767e-05
8.63604e-05
8.5951e-05
8.55363e-05
8.51113e-05
8.46653e-05
8.41688e-05
8.35554e-05
8.17383e-05
7.25059e-07
2.20769e-05
5.13295e-05
7.19665e-05
8.51091e-05
9.36235e-05
0.000100147
0.000106382
0.000113244
0.000121098
0.000129973
0.000139731
0.000150155
0.000161028
0.000172144
0.000183332
0.000194436
0.000205334
0.000215911
0.000226089
0.000235801
0.000245026
0.000253752
0.000262019
0.000269859
0.000277329
0.000284441
0.000291201
0.000297257
0.00030217
0.000304882
0.000305203
0.000303176
0.000298227
0.000289914
0.000278481
0.000267252
0.000256011
0.000258405
0.000237957
0.00022886
0.000242846
0.000246789
0.000264298
0.000269824
0.000276835
0.000284096
0.000291782
0.000299657
0.000307735
0.000315912
0.000324208
0.000332586
0.000341053
0.000349598
0.000358223
0.000366924
0.000375704
0.000384562
0.0003935
0.000402518
0.000411616
0.000420797
0.000430059
0.000439402
0.000448827
0.000458332
0.000467916
0.000477577
0.000487313
0.000497121
0.000506998
0.000516941
0.000526946
0.000537009
0.000547124
0.000557288
0.000567494
0.000577738
0.000588013
0.000598314
0.000608635
0.00061897
0.000629311
0.000639655
0.000649994
0.000660322
0.000670634
0.000680925
0.000691189
0.000701421
0.000711612
0.000721752
0.000731823
0.000741794
0.000751614
0.00076119
0.000770365
0.000778864
0.000787142
0.000795301
0.000803326
0.000811216
0.000818965
0.000826569
0.000834022
0.000841318
0.000848453
0.00085542
0.000862214
0.000868831
0.000875265
0.000881513
0.000887569
0.000893428
0.000899088
0.000904544
0.000909792
0.000914828
0.00091965
0.000924255
0.000928639
0.0009328
0.000936735
0.000940444
0.000943925
0.000947177
0.000950201
0.000952998
0.000955573
0.000957941
0.000960125
0.000961836
0.000963324
0.000964749
0.000965988
0.000966929
0.000967632
0.000968107
0.000968356
0.000968381
0.000968186
0.000967775
0.000967152
0.000966319
0.000965282
0.000964043
0.00096261
0.000960986
0.000959175
0.000957183
0.000955016
0.000952679
0.000950179
0.000947524
0.000944719
0.000941771
0.000938687
0.000935473
0.000932135
0.000928676
0.000925092
0.000921349
0.000917258
0.000911892
0.000904926
0.000897445
0.000889782
0.00088203
0.000874221
0.000866369
0.000858482
0.000850559
0.000842593
0.00083456
0.000826409
0.000817985
0.000809022
0.000798077
0.000769999
1.57389e-06
3.74512e-05
8.28738e-05
0.00011741
0.000142358
0.000160376
0.000173936
0.000185065
0.000195221
0.000205309
0.000215789
0.000226813
0.00023835
0.000250277
0.000262441
0.000274685
0.000286859
0.000298831
0.000310483
0.00032172
0.000332467
0.000342683
0.000352356
0.000361508
0.000370179
0.000378413
0.000386224
0.000393569
0.00040057
0.000407252
0.000413701
0.000419519
0.000424541
0.000428661
0.000432066
0.000435384
0.000439655
0.000445817
0.000454534
0.000460323
0.000472563
0.000489093
0.000504623
0.000523953
0.000539323
0.000555256
0.000571246
0.000587482
0.0006039
0.000620505
0.000637265
0.000654177
0.00067123
0.000688423
0.000705752
0.000723218
0.000740823
0.000758566
0.00077645
0.000794475
0.000812642
0.00083095
0.0008494
0.000867989
0.000886717
0.00090558
0.000924576
0.0009437
0.000962947
0.000982313
0.00100179
0.00102137
0.00104105
0.00106082
0.00108066
0.00110058
0.00112055
0.00114058
0.00116064
0.00118073
0.00120084
0.00122095
0.00124105
0.00126112
0.00128117
0.00130116
0.0013211
0.00134096
0.00136073
0.00138039
0.00139994
0.00141933
0.00143856
0.00145757
0.00147633
0.00149477
0.00151281
0.00153037
0.00154746
0.00156428
0.00158084
0.00159712
0.00161311
0.00162881
0.0016442
0.00165928
0.00167402
0.00168841
0.00170246
0.00171614
0.00172945
0.00174237
0.00175491
0.00176704
0.00177876
0.00179006
0.00180094
0.00181138
0.00182139
0.00183094
0.00184005
0.00184869
0.00185687
0.00186459
0.00187183
0.0018786
0.0018849
0.00189073
0.00189609
0.00190099
0.00190543
0.00190949
0.0019127
0.0019154
0.00191793
0.00192
0.00192153
0.00192257
0.00192314
0.00192324
0.00192289
0.00192208
0.00192082
0.00191913
0.00191701
0.00191447
0.00191151
0.00190816
0.00190441
0.00190027
0.00189576
0.0018909
0.00188568
0.00188013
0.00187426
0.00186807
0.0018616
0.00185484
0.00184782
0.00184054
0.00183301
0.00182523
0.00181714
0.00180852
0.00179862
0.00178713
0.00177482
0.00176212
0.00174918
0.00173608
0.00172285
0.00170952
0.00169609
0.00168254
0.00166884
0.00165488
0.00164035
0.00162453
0.0016047
0.00156263
2.57913e-06
4.97794e-05
0.000107603
0.000152566
0.000185593
0.000209977
0.0002286
0.000243732
0.00025703
0.000269597
0.000282079
0.000294783
0.000307799
0.000321087
0.000334548
0.000348058
0.000361493
0.000374734
0.000387679
0.000400246
0.00041238
0.000424064
0.000435323
0.000446234
0.000456921
0.00046755
0.000478306
0.000489365
0.000500865
0.000512851
0.000525285
0.000538026
0.000550976
0.000564151
0.000577749
0.00059213
0.000607921
0.000625695
0.00064388
0.000662882
0.000683452
0.000704827
0.000727166
0.000750018
0.000772607
0.000795407
0.000818349
0.000841474
0.000864781
0.000888274
0.00091195
0.000935808
0.000959847
0.000984065
0.00100846
0.00103304
0.00105781
0.00108276
0.0011079
0.00113323
0.00115874
0.00118444
0.00121032
0.00123639
0.00126263
0.00128904
0.00131562
0.00134236
0.00136925
0.00139628
0.00142344
0.00145073
0.00147813
0.00150562
0.0015332
0.00156086
0.00158857
0.00161632
0.0016441
0.0016719
0.00169968
0.00172745
0.00175517
0.00178284
0.00181043
0.00183792
0.0018653
0.00189255
0.00191964
0.00194654
0.00197325
0.00199971
0.00202591
0.0020518
0.00207735
0.00210249
0.00212719
0.00215141
0.00217521
0.00219864
0.00222171
0.00224439
0.00226668
0.00228855
0.00230999
0.00233098
0.00235151
0.00237157
0.00239113
0.00241019
0.00242874
0.00244675
0.00246422
0.00248113
0.00249747
0.00251323
0.00252841
0.00254298
0.00255695
0.0025703
0.00258303
0.00259512
0.00260657
0.00261737
0.00262753
0.00263703
0.00264589
0.00265409
0.00266164
0.00266854
0.00267493
0.00268056
0.00268519
0.00268913
0.00269282
0.00269578
0.00269804
0.00269963
0.00270057
0.00270086
0.00270052
0.00269954
0.00269795
0.00269575
0.00269295
0.00268957
0.00268561
0.00268108
0.00267601
0.0026704
0.00266427
0.00265763
0.0026505
0.00264289
0.00263483
0.00262634
0.00261742
0.00260811
0.00259841
0.00258835
0.00257794
0.00256717
0.002556
0.00254424
0.00253143
0.00251736
0.00250243
0.00248697
0.00247116
0.0024551
0.00243883
0.00242241
0.00240583
0.0023891
0.00237218
0.00235494
0.00233711
0.00231768
0.00229343
0.00224907
3.61609e-06
6.01162e-05
0.000128435
0.000182168
0.000222286
0.000252259
0.000275304
0.00029393
0.000309984
0.000324738
0.000338991
0.00035319
0.000367535
0.000382078
0.000396783
0.000411578
0.000426376
0.000441095
0.000455666
0.000470037
0.000484186
0.000498129
0.000511925
0.000525686
0.000539576
0.0005538
0.000568583
0.000584133
0.000600598
0.000618038
0.000636414
0.0006556
0.000675451
0.000695885
0.000716945
0.000738801
0.000761775
0.000786193
0.000811212
0.000836445
0.000862295
0.000888922
0.000916342
0.000944243
0.000972064
0.00100007
0.00102827
0.00105668
0.0010853
0.00111412
0.00114315
0.00117239
0.00120185
0.00123151
0.00126138
0.00129146
0.00132175
0.00135225
0.00138298
0.00141392
0.00144507
0.00147643
0.001508
0.00153977
0.00157173
0.00160387
0.00163619
0.00166869
0.00170133
0.00173413
0.00176705
0.0018001
0.00183325
0.00186649
0.0018998
0.00193317
0.00196658
0.00200001
0.00203344
0.00206686
0.00210023
0.00213355
0.00216679
0.00219994
0.00223296
0.00226583
0.00229854
0.00233107
0.00236337
0.00239543
0.00242723
0.00245873
0.0024899
0.00252071
0.00255113
0.00258113
0.00261071
0.00263986
0.00266857
0.00269684
0.00272468
0.00275206
0.00277896
0.00280537
0.00283126
0.00285663
0.00288145
0.00290571
0.00292938
0.00295246
0.00297493
0.00299676
0.00301796
0.0030385
0.00305837
0.00307756
0.00309605
0.00311384
0.00313091
0.00314725
0.00316286
0.00317772
0.00319183
0.00320517
0.00321775
0.00322956
0.0032406
0.00325087
0.00326036
0.00326916
0.00327733
0.00328442
0.00329051
0.0032959
0.00330079
0.00330485
0.00330809
0.00331055
0.00331222
0.00331313
0.00331328
0.00331269
0.00331135
0.00330929
0.0033065
0.00330302
0.00329884
0.00329398
0.00328846
0.00328229
0.00327549
0.00326807
0.00326005
0.00325146
0.00324231
0.00323262
0.00322241
0.00321172
0.00320054
0.00318892
0.00317686
0.00316436
0.0031514
0.00313785
0.00312346
0.00310809
0.00309192
0.00307518
0.00305801
0.00304051
0.00302276
0.00300479
0.00298664
0.00296832
0.00294979
0.00293094
0.00291145
0.00289031
0.00286444
0.00282255
4.62032e-06
6.88859e-05
0.000146104
0.000207419
0.000253905
0.000288983
0.000316101
0.000337961
0.000356575
0.000373364
0.000389269
0.000404868
0.000420473
0.000436227
0.000452169
0.000468287
0.000484542
0.000500894
0.00051731
0.000533775
0.000550293
0.0005669
0.000583666
0.0006007
0.000618147
0.000636182
0.000654992
0.000674748
0.000695575
0.000717526
0.000740573
0.000764611
0.000789499
0.000815111
0.000841388
0.000868347
0.000896083
0.000924682
0.000953944
0.000983717
0.001014
0.00104477
0.00107603
0.00110764
0.00113948
0.00117154
0.00120384
0.00123636
0.0012691
0.00130207
0.00133525
0.00136866
0.0014023
0.00143616
0.00147025
0.00150458
0.00153913
0.0015739
0.00160888
0.00164408
0.00167948
0.00171509
0.0017509
0.00178689
0.00182307
0.00185943
0.00189594
0.00193262
0.00196943
0.00200638
0.00204344
0.0020806
0.00211785
0.00215517
0.00219254
0.00222995
0.00226737
0.0023048
0.0023422
0.00237957
0.00241687
0.00245409
0.00249121
0.0025282
0.00256504
0.00260171
0.00263819
0.00267445
0.00271046
0.00274621
0.00278166
0.00281678
0.00285156
0.00288596
0.00291996
0.00295354
0.00298669
0.00301938
0.00305161
0.00308338
0.00311466
0.00314544
0.0031757
0.00320542
0.00323457
0.00326315
0.00329113
0.0033185
0.00334523
0.0033713
0.00339672
0.00342144
0.00344547
0.00346878
0.00349136
0.00351319
0.00353427
0.00355457
0.0035741
0.00359283
0.00361075
0.00362786
0.00364415
0.0036596
0.00367422
0.00368799
0.00370091
0.00371299
0.00372424
0.00373482
0.00374446
0.00375307
0.00376059
0.00376745
0.00377361
0.00377886
0.00378323
0.00378674
0.00378939
0.00379119
0.00379216
0.00379229
0.00379161
0.00379011
0.00378782
0.00378474
0.00378089
0.00377629
0.00377093
0.00376485
0.00375806
0.00375057
0.0037424
0.00373358
0.00372413
0.00371406
0.00370341
0.00369219
0.00368042
0.00366813
0.00365534
0.00364205
0.00362825
0.00361388
0.00359879
0.0035829
0.0035663
0.00354912
0.00353147
0.00351346
0.00349514
0.00347658
0.00345782
0.00343887
0.00341975
0.00340037
0.00338043
0.00335903
0.00333345
0.0032957
5.55115e-06
7.61966e-05
0.000160882
0.000228801
0.000281035
0.000320842
0.000351808
0.00037677
0.000397869
0.000416654
0.000434195
0.000451185
0.000468046
0.000485014
0.000502203
0.00051966
0.000537398
0.000555415
0.000573712
0.000592298
0.000611198
0.000630455
0.000650132
0.000670316
0.000691114
0.000712644
0.000735032
0.000758391
0.000782802
0.000808301
0.000834865
0.000862422
0.000890863
0.000920081
0.000949988
0.000980544
0.00101175
0.0010436
0.00107605
0.00110901
0.00114245
0.0011763
0.00121055
0.00124514
0.00128
0.00131513
0.00135051
0.00138612
0.00142195
0.00145801
0.00149429
0.00153079
0.00156751
0.00160445
0.00164161
0.00167899
0.00171658
0.00175438
0.00179238
0.00183059
0.00186899
0.00190757
0.00194635
0.00198529
0.00202441
0.00206369
0.00210311
0.00214268
0.00218237
0.00222218
0.00226209
0.00230208
0.00234215
0.00238227
0.00242243
0.00246261
0.0025028
0.00254298
0.00258312
0.0026232
0.00266321
0.00270313
0.00274294
0.0027826
0.00282211
0.00286143
0.00290055
0.00293943
0.00297807
0.00301642
0.00305447
0.00309219
0.00312957
0.00316656
0.00320315
0.00323933
0.00327507
0.00331036
0.00334517
0.00337951
0.00341333
0.00344664
0.0034794
0.00351159
0.00354321
0.00357422
0.00360461
0.00363435
0.00366343
0.00369184
0.00371954
0.00374653
0.00377279
0.0037983
0.00382304
0.00384701
0.00387018
0.00389255
0.00391409
0.00393481
0.00395467
0.00397369
0.00399184
0.00400911
0.0040255
0.004041
0.00405561
0.00406932
0.00408222
0.00409438
0.00410541
0.00411551
0.00412446
0.00413278
0.00414023
0.00414675
0.00415234
0.00415701
0.00416078
0.00416365
0.00416563
0.00416672
0.00416695
0.00416631
0.00416482
0.00416249
0.00415933
0.00415535
0.00415058
0.00414502
0.00413869
0.00413161
0.0041238
0.00411527
0.00410606
0.00409617
0.00408564
0.00407449
0.00406273
0.0040504
0.00403751
0.00402408
0.0040101
0.00399555
0.00398036
0.00396448
0.00394794
0.00393085
0.00391327
0.0038953
0.003877
0.00385843
0.00383965
0.00382071
0.00380162
0.00378236
0.00376269
0.00374183
0.00371751
0.00368389
6.37928e-06
8.21386e-05
0.000172978
0.000246603
0.000304
0.000348192
0.000382817
0.000410794
0.000434356
0.000455154
0.000474363
0.000492783
0.000510933
0.000529133
0.000547571
0.000566352
0.000585533
0.000605149
0.000625222
0.000645776
0.000666843
0.000688466
0.000710701
0.000733621
0.000757279
0.000781744
0.000807085
0.000833363
0.00086062
0.000888867
0.000918087
0.000948227
0.000979212
0.00101096
0.0010434
0.00107647
0.00111013
0.00114435
0.0011791
0.00121433
0.00124999
0.00128604
0.00132246
0.00135921
0.00139626
0.00143358
0.00147114
0.00150894
0.00154696
0.00158518
0.00162361
0.00166225
0.00170109
0.00174012
0.00177936
0.00181879
0.00185841
0.00189822
0.00193821
0.00197838
0.00201873
0.00205925
0.00209993
0.00214078
0.00218177
0.00222291
0.00226418
0.00230558
0.00234709
0.00238871
0.00243042
0.0024722
0.00251406
0.00255596
0.0025979
0.00263986
0.00268183
0.00272378
0.0027657
0.00280757
0.00284937
0.00289108
0.00293268
0.00297415
0.00301547
0.00305661
0.00309756
0.00313828
0.00317877
0.00321898
0.00325891
0.00329852
0.00333779
0.0033767
0.00341523
0.00345335
0.00349104
0.00352829
0.00356507
0.00360137
0.00363716
0.00367243
0.00370715
0.0037413
0.00377486
0.00380781
0.00384013
0.0038718
0.00390279
0.0039331
0.00396269
0.00399156
0.00401968
0.00404703
0.00407361
0.00409938
0.00412435
0.00414849
0.00417179
0.00419423
0.00421581
0.00423651
0.00425632
0.00427524
0.00429324
0.00431033
0.00432649
0.00434174
0.00435622
0.00436974
0.00438223
0.00439374
0.00440419
0.00441392
0.00442269
0.00443051
0.00443737
0.00444329
0.00444827
0.00445232
0.00445545
0.00445766
0.00445896
0.00445937
0.00445888
0.00445752
0.00445529
0.00445221
0.00444829
0.00444354
0.00443799
0.00443164
0.00442452
0.00441664
0.00440803
0.00439871
0.00438869
0.00437801
0.00436668
0.00435473
0.00434218
0.00432905
0.00431535
0.00430106
0.00428617
0.00427064
0.00425451
0.00423783
0.00422067
0.00420309
0.00418516
0.00416696
0.00414855
0.00412999
0.00411133
0.00409258
0.00407358
0.00405369
0.00403108
0.00400171
7.08583e-06
8.68055e-05
0.000182585
0.000261065
0.000323048
0.000371277
0.000409368
0.000440272
0.000466281
0.000489117
0.00051004
0.000529937
0.000549412
0.000568862
0.000588537
0.000608593
0.000629136
0.000650254
0.000671949
0.000694245
0.000717168
0.000740746
0.000765003
0.000789948
0.000815671
0.000842244
0.000869706
0.000898082
0.000927381
0.000957601
0.00098872
0.0010207
0.00105347
0.00108699
0.00112119
0.001156
0.00119139
0.00122732
0.00126373
0.0013006
0.00133787
0.00137549
0.00141337
0.0014515
0.00148991
0.0015286
0.00156755
0.00160671
0.00164606
0.00168559
0.0017253
0.00176519
0.00180524
0.00184547
0.00188587
0.00192644
0.00196717
0.00200806
0.00204911
0.00209032
0.00213169
0.00217321
0.00221488
0.0022567
0.00229865
0.00234075
0.00238297
0.00242532
0.00246778
0.00251034
0.00255301
0.00259576
0.00263859
0.00268148
0.00272442
0.0027674
0.0028104
0.00285341
0.00289641
0.00293938
0.0029823
0.00302517
0.00306795
0.00311062
0.00315317
0.00319558
0.00323781
0.00327986
0.00332169
0.00336328
0.00340461
0.00344565
0.00348638
0.00352678
0.00356682
0.00360648
0.00364573
0.00368456
0.00372294
0.00376084
0.00379825
0.00383515
0.0038715
0.00390729
0.0039425
0.0039771
0.00401108
0.0040444
0.00407705
0.00410901
0.00414026
0.00417078
0.00420054
0.00422954
0.00425775
0.00428515
0.00431174
0.00433749
0.00436239
0.00438643
0.00440958
0.00443185
0.00445322
0.00447367
0.0044932
0.0045118
0.00452945
0.0045462
0.00456213
0.00457701
0.00459095
0.00460388
0.00461583
0.00462695
0.00463709
0.00464624
0.00465443
0.00466165
0.00466792
0.00467324
0.00467761
0.00468104
0.00468355
0.00468513
0.00468579
0.00468556
0.00468443
0.00468242
0.00467955
0.00467582
0.00467126
0.00466587
0.00465967
0.00465269
0.00464494
0.00463645
0.00462723
0.0046173
0.0046067
0.00459543
0.00458353
0.00457102
0.0045579
0.00454419
0.00452988
0.00451496
0.00449947
0.00448343
0.0044669
0.00444995
0.00443264
0.00441504
0.00439724
0.0043793
0.00436131
0.0043433
0.00432518
0.00430645
0.00428569
0.00426058
7.66053e-06
9.02986e-05
0.000189892
0.000272423
0.000338406
0.000390309
0.000431652
0.000465373
0.000493788
0.000518667
0.000541332
0.000562735
0.000583557
0.000604282
0.000625178
0.000646396
0.000668021
0.000690059
0.000712716
0.000736076
0.000760183
0.000785064
0.000810752
0.00083729
0.00086469
0.00089297
0.000922129
0.000952151
0.000983024
0.00101473
0.00104724
0.00108051
0.0011145
0.00114916
0.00118444
0.00122028
0.00125664
0.00129347
0.00133074
0.0013684
0.00140641
0.00144476
0.00148343
0.0015224
0.00156162
0.00160099
0.00164056
0.00168029
0.00172015
0.00176015
0.00180029
0.00184056
0.00188097
0.00192152
0.00196221
0.00200303
0.002044
0.0020851
0.00212636
0.00216775
0.00220929
0.00225098
0.00229281
0.0023348
0.00237693
0.0024192
0.00246162
0.00250418
0.00254687
0.0025897
0.00263265
0.00267572
0.0027189
0.00276218
0.00280554
0.00284899
0.0028925
0.00293605
0.00297965
0.00302326
0.00306687
0.00311047
0.00315403
0.00319753
0.00324095
0.00328427
0.00332747
0.00337052
0.0034134
0.00345609
0.00349855
0.00354077
0.00358271
0.00362436
0.00366568
0.00370665
0.00374725
0.00378744
0.00382721
0.00386653
0.00390537
0.00394372
0.00398154
0.00401881
0.00405551
0.00409161
0.0041271
0.00416194
0.00419611
0.0042296
0.00426239
0.00429444
0.00432574
0.00435628
0.00438603
0.00441497
0.00444309
0.00447037
0.0044968
0.00452235
0.00454703
0.00457081
0.00459368
0.00461563
0.00463665
0.00465672
0.00467584
0.00469408
0.00471136
0.00472768
0.00474306
0.00475744
0.00477089
0.00478344
0.00479497
0.0048055
0.00481506
0.00482365
0.00483127
0.00483793
0.00484363
0.00484837
0.00485218
0.00485504
0.00485698
0.00485799
0.0048581
0.00485731
0.00485563
0.00485308
0.00484967
0.00484541
0.00484033
0.00483443
0.00482774
0.00482028
0.00481206
0.00480311
0.00479345
0.0047831
0.00477208
0.00476041
0.00474812
0.00473521
0.0047217
0.00470759
0.0046929
0.00467768
0.00466196
0.0046458
0.00462927
0.00461245
0.00459542
0.00457827
0.00456109
0.00454396
0.00452682
0.00450931
0.00449033
0.00446864
8.10041e-06
9.27242e-05
0.000195089
0.000281013
0.000350312
0.000405509
0.000449859
0.00048625
0.000516992
0.000543881
0.000568301
0.000591182
0.000613176
0.000634689
0.000656193
0.000678021
0.000700376
0.000723443
0.000747285
0.00077188
0.000797243
0.000823396
0.000850358
0.000878143
0.000906742
0.000936129
0.0009663
0.000997257
0.00102898
0.00106146
0.00109465
0.00112852
0.00116302
0.00119812
0.00123377
0.00126992
0.00130652
0.00134354
0.00138092
0.00141864
0.00145667
0.00149496
0.00153351
0.00157228
0.00161123
0.00165045
0.00168988
0.00172939
0.00176895
0.00180856
0.00184826
0.00188804
0.00192793
0.00196793
0.00200804
0.00204827
0.00208864
0.00212913
0.00216977
0.00221056
0.0022515
0.00229261
0.00233389
0.00237535
0.00241698
0.0024588
0.0025008
0.00254299
0.00258537
0.00262794
0.00267068
0.00271361
0.0027567
0.00279996
0.00284337
0.00288693
0.00293061
0.00297441
0.00301832
0.00306231
0.00310636
0.00315047
0.0031946
0.00323873
0.00328285
0.00332692
0.00337093
0.00341485
0.00345864
0.0035023
0.00354578
0.00358906
0.00363211
0.00367491
0.00371741
0.00375961
0.00380146
0.00384294
0.00388403
0.00392468
0.00396489
0.00400461
0.00404383
0.00408251
0.00412064
0.00415819
0.00419513
0.00423143
0.00426709
0.00430206
0.00433633
0.00436987
0.00440267
0.00443471
0.00446596
0.0044964
0.00452603
0.00455481
0.00458274
0.0046098
0.00463598
0.00466125
0.00468562
0.00470906
0.00473156
0.00475312
0.00477372
0.00479339
0.00481209
0.00482987
0.00484671
0.00486258
0.00487752
0.00489159
0.00490454
0.0049165
0.00492748
0.00493749
0.00494653
0.0049546
0.00496171
0.00496786
0.00497305
0.0049773
0.00498061
0.00498299
0.00498445
0.004985
0.00498465
0.00498341
0.0049813
0.00497832
0.0049745
0.00496985
0.00496438
0.00495812
0.00495108
0.00494329
0.00493475
0.0049255
0.00491555
0.00490493
0.00489365
0.00488173
0.0048692
0.00485606
0.00484234
0.00482807
0.0048133
0.00479807
0.00478246
0.00476655
0.00475041
0.00473416
0.0047179
0.00470171
0.00468562
0.00466932
0.00465199
0.00463312
8.4096e-06
9.42137e-05
0.000198419
0.000286988
0.000359043
0.000417122
0.000464199
0.000503096
0.000536014
0.000564645
0.000590223
0.000613984
0.000636793
0.000659322
0.000681982
0.000704958
0.000728416
0.000752469
0.00077712
0.00080246
0.00082853
0.000855348
0.000882917
0.000911247
0.00094033
0.000970148
0.00100069
0.00103193
0.00106385
0.00109642
0.0011296
0.00116337
0.00119768
0.00123249
0.00126776
0.00130346
0.00133953
0.00137593
0.00141261
0.00144956
0.00148674
0.00152409
0.00156159
0.00159934
0.00163742
0.00167569
0.00171399
0.00175233
0.00179069
0.001829
0.00186734
0.00190574