/*--------------------------------*- C++ -*----------------------------------*\
  =========                 |
  \\      /  F ield         | OpenFOAM: The Open Source CFD Toolbox
   \\    /   O peration     | Website:  https://openfoam.org
    \\  /    A nd           | Version:  8
     \\/     M anipulation  |
\*---------------------------------------------------------------------------*/
FoamFile
{
    version     2.0;
    format      ascii;
    class       volScalarField;
    location    "4100";
    object      nuTilda;
}
// * * * * * * * * * * * * * * * * * * * * * * * * * * * * * * * * * * * * * //

dimensions      [0 2 -1 0 0 0 0];

internalField   nonuniform List<scalar> 
12225
(
0.0122671
0.00158833
0.000666932
0.000412201
0.000298001
0.000234418
0.000192049
0.000186517
0.000141364
0.000110263
9.73199e-05
9.07189e-05
8.20028e-05
7.63417e-05
7.17067e-05
7.0172e-05
6.81329e-05
7.4004e-05
0.0323823
0.00744533
0.00330642
0.00204338
0.00146818
0.00114477
0.000936743
0.000800566
0.000680243
0.000578059
0.000507246
0.00045356
0.000411866
0.000380371
0.00035202
0.000329993
0.000313754
0.000295881
0.0490123
0.01515
0.00728196
0.00457856
0.00330642
0.00258059
0.00211241
0.00178924
0.00154196
0.00134781
0.00119795
0.00107898
0.000982388
0.000902873
0.000836437
0.000781445
0.000736159
0.000687885
0.063054
0.0237783
0.0122894
0.00788815
0.00573398
0.004485
0.00367415
0.00310736
0.00268476
0.00235811
0.00210119
0.00189468
0.00172542
0.00158464
0.0014663
0.00136623
0.00128167
0.00119814
0.074932
0.0328517
0.0181452
0.0119262
0.00874549
0.00686413
0.00563081
0.00476256
0.0041175
0.00362032
0.00322735
0.00290996
0.00264904
0.00243149
0.00224806
0.00209196
0.00195835
0.00183637
0.0849536
0.0420208
0.0246655
0.0166359
0.0123325
0.00972587
0.0079954
0.00676785
0.00585346
0.00514771
0.00458846
0.00413589
0.00376337
0.00345242
0.00318986
0.002966
0.00277365
0.00260477
0.0933822
0.0510219
0.0316642
0.0219415
0.016474
0.0130717
0.0107779
0.00913552
0.00790571
0.00695341
0.00619691
0.00558368
0.00507838
0.00465634
0.00429978
0.00399563
0.00373417
0.00350821
0.0993794
0.0583363
0.0378386
0.0268568
0.0204171
0.0163053
0.0134892
0.011453
0.00991891
0.00872629
0.00777635
0.00700498
0.00636867
0.00583686
0.00538741
0.00500399
0.00467453
0.00439128
0.104023
0.0645454
0.0433804
0.0314239
0.0241571
0.0194092
0.0161097
0.0137018
0.0118766
0.0104521
0.00931443
0.00838904
0.00762486
0.00698575
0.00644545
0.0059845
0.00558859
0.00524878
0.108368
0.0708939
0.0493756
0.0365496
0.0284517
0.0230231
0.0191863
0.0163547
0.0141926
0.0124968
0.011138
0.0100304
0.00911434
0.0083476
0.0076991
0.00714579
0.00667069
0.00626298
0.112368
0.0772557
0.0557282
0.0421918
0.0332976
0.0271652
0.0227467
0.0194432
0.0168984
0.0148903
0.0132749
0.0119544
0.0108605
0.00994379
0.00916797
0.00850586
0.00793736
0.00744915
0.115994
0.0834975
0.0623053
0.0482611
0.0386474
0.0318167
0.026789
0.0229739
0.0200046
0.0176452
0.0157378
0.0141736
0.0128749
0.011785
0.0108618
0.0100736
0.00939671
0.00881464
0.119234
0.0894856
0.0689377
0.0546109
0.0443919
0.0369007
0.0312597
0.0269088
0.0234836
0.02074
0.0185096
0.0166735
0.0151449
0.01386
0.0127704
0.0118396
0.0110397
0.0103508
0.122086
0.095084
0.075415
0.0610223
0.0503361
0.0422534
0.0360231
0.0311353
0.0272402
0.024093
0.021519
0.0193909
0.017614
0.0161174
0.0148466
0.01376
0.0128257
0.0120196
0.124546
0.100135
0.0814619
0.0671725
0.056158
0.047577
0.0408126
0.0354174
0.031066
0.0275196
0.0246012
0.0221777
0.0201481
0.0184349
0.0169782
0.0157314
0.0146583
0.0137311
0.126578
0.104396
0.0866605
0.0725515
0.0613228
0.0523526
0.0451453
0.0393148
0.0345631
0.0306611
0.0274325
0.0247409
0.0224806
0.020569
0.0189413
0.0175468
0.0163454
0.0153061
0.128011
0.107322
0.0902141
0.0762353
0.0648743
0.0556509
0.0481493
0.0420254
0.0370012
0.0328553
0.0294126
0.0265352
0.0241143
0.0220643
0.0203172
0.0188191
0.0175275
0.0164083
0.128006
0.107313
0.0902048
0.0762269
0.0648674
0.0556454
0.048145
0.0420222
0.0369988
0.0328537
0.0294117
0.0265349
0.0241147
0.0220652
0.0203185
0.0188206
0.0175287
0.0164083
0.126509
0.104255
0.0864922
0.0723807
0.0611613
0.052205
0.0450128
0.0391967
0.0344584
0.0305686
0.0273506
0.0246684
0.0224163
0.0205118
0.0188903
0.0175006
0.0163024
0.0152631
0.124267
0.0995604
0.0807712
0.0664676
0.0554886
0.0469631
0.0402594
0.0349228
0.0306248
0.0271258
0.0242488
0.0218611
0.0198626
0.0181762
0.0167426
0.0155152
0.0144575
0.0135405
0.12136
0.0936399
0.0737261
0.0593348
0.0487592
0.0408249
0.0347467
0.0300003
0.0262308
0.0231928
0.0207127
0.018665
0.0169572
0.0155198
0.0142999
0.0132567
0.0123583
0.0115798
0.117686
0.0865903
0.0656967
0.0514791
0.0415374
0.0343608
0.0290184
0.0249322
0.0217348
0.0191848
0.0171184
0.0154211
0.0140106
0.0128263
0.0118229
0.0109657
0.010228
0.00958896
0.11305
0.0784122
0.056921
0.0432687
0.0342296
0.0279652
0.0234365
0.0200435
0.0174263
0.0153597
0.0136966
0.0123369
0.0112106
0.0102671
0.00946867
0.0087872
0.00820103
0.00769348
0.107169
0.0691009
0.0476372
0.035029
0.0271566
0.021922
0.0182437
0.0155401
0.0134817
0.0118706
0.0105816
0.00953198
0.00866487
0.00793966
0.0073267
0.00680379
0.00635416
0.00596497
0.0996761
0.0587036
0.0381279
0.0270699
0.0205782
0.016433
0.0135949
0.0115438
0.00999923
0.00879908
0.00784341
0.00706756
0.00642792
0.00589358
0.00544231
0.00505735
0.00472649
0.00444015
0.0901097
0.0473665
0.0287363
0.0196847
0.0146976
0.0116312
0.00957853
0.00811528
0.00702332
0.00617995
0.00551058
0.00496794
0.00452117
0.0041481
0.00383339
0.00356442
0.00333379
0.00313399
0.0779076
0.0353826
0.0198606
0.0131383
0.00966107
0.00759298
0.00623353
0.00527431
0.00456401
0.00401885
0.00358701
0.00323609
0.00294736
0.00270568
0.00250276
0.00232748
0.00217884
0.00204926
0.06238
0.0232554
0.0119461
0.00765494
0.00556339
0.00435258
0.00356726
0.00301643
0.00261312
0.00230799
0.00206672
0.00186707
0.0017029
0.00156322
0.00144918
0.00134527
0.00126058
0.00118479
0.0426105
0.0117794
0.00546931
0.00341388
0.00246077
0.00192015
0.0015729
0.00132905
0.00115971
0.00103882
0.000944722
0.000857719
0.000787254
0.000718773
0.000673871
0.000622109
0.000576931
0.000538748
0.0168348
0.0025599
0.00110031
0.000684192
0.000495179
0.000389151
0.00032166
0.000270751
0.000280924
0.00033875
0.000385621
0.000370715
0.000353005
0.000289077
0.00035387
0.000325483
0.000259483
0.000226809
3.7813e-06
1.43224e-05
2.60297e-05
3.85381e-05
4.60114e-05
4.96625e-05
5.01553e-05
4.78132e-05
4.46228e-05
3.95542e-05
3.42198e-05
2.94486e-05
2.67711e-05
2.74486e-05
2.96322e-05
3.14818e-05
3.13388e-05
2.85147e-05
2.38726e-05
2.02114e-05
2.08241e-05
2.64235e-05
3.93424e-05
6.39048e-05
8.72008e-05
0.000100613
0.000113335
0.000124343
0.000134329
0.000142832
0.000150424
0.000157043
0.000162904
0.000168059
0.000172591
0.000176617
0.000180204
0.000183423
0.00018632
0.000188931
0.00019128
0.000193386
0.000195264
0.000196927
0.000198386
0.000199655
0.00020074
0.000201648
0.000202381
0.000202805
0.000203296
0.000203379
0.000203438
0.000203323
0.000203045
0.000202631
0.000202075
0.000201383
0.000200555
0.000199593
0.000198501
0.00019728
0.000195933
0.000194463
0.000192873
0.000191166
0.000189343
0.000187407
0.000185362
0.00018321
0.000180955
0.000178599
0.000176145
0.000173597
0.000170955
0.000168224
0.000165404
0.000162498
0.000159507
0.000156432
0.000153274
0.000150032
0.000146707
0.000143298
0.0001398
0.000136211
0.000132521
0.000128722
0.000124801
0.000120744
0.000116537
0.000112163
0.000107621
0.000102966
9.8402e-05
9.44194e-05
9.15958e-05
8.98391e-05
8.85247e-05
8.73199e-05
8.61366e-05
8.49578e-05
8.37819e-05
8.26095e-05
8.14415e-05
8.02789e-05
7.9123e-05
7.7978e-05
7.68649e-05
7.59102e-05
7.49763e-05
7.40484e-05
7.31285e-05
7.22169e-05
7.13139e-05
7.04198e-05
6.95351e-05
6.86601e-05
6.77951e-05
6.69402e-05
6.60956e-05
6.52615e-05
6.44384e-05
6.36265e-05
6.2826e-05
6.20366e-05
6.12593e-05
6.05199e-05
5.98426e-05
5.9174e-05
5.85106e-05
5.78604e-05
5.72285e-05
5.66017e-05
5.59797e-05
5.53658e-05
5.4761e-05
5.41657e-05
5.35802e-05
5.30044e-05
5.24379e-05
5.18809e-05
5.1333e-05
5.07941e-05
5.02642e-05
4.97431e-05
4.92306e-05
4.87269e-05
4.82316e-05
4.77448e-05
4.72663e-05
4.67962e-05
4.63343e-05
4.58808e-05
4.54354e-05
4.49984e-05
4.45697e-05
4.41495e-05
4.37377e-05
4.33348e-05
4.29407e-05
4.25558e-05
4.21802e-05
4.18143e-05
4.14582e-05
4.1112e-05
4.07758e-05
4.04493e-05
4.01319e-05
3.98231e-05
3.95208e-05
3.92253e-05
3.89276e-05
3.8641e-05
3.83121e-05
3.80565e-05
3.75488e-05
3.7354e-05
3.63034e-05
3.49092e-05
5.89801e-06
4.05887e-05
9.24658e-05
0.000153707
0.000192551
0.000214555
0.000223347
0.00022192
0.000214076
0.000198519
0.000179503
0.000161549
0.000152481
0.000157007
0.00016932
0.000177334
0.000179532
0.000180675
0.00018563
0.000194339
0.000208076
0.000224511
0.000240375
0.000256185
0.000267065
0.000276644
0.000285194
0.00029769
0.000316339
0.000330002
0.000342515
0.000353261
0.000363041
0.000372012
0.000379809
0.000386933
0.000393569
0.000399939
0.000406172
0.000412331
0.000418414
0.000424376
0.000430165
0.000435741
0.000441076
0.000446151
0.000450954
0.00045547
0.000459701
0.000463646
0.000467345
0.000470763
0.000473939
0.000476862
0.000479536
0.000481962
0.000484141
0.000486075
0.000487762
0.000489204
0.000490401
0.000491354
0.000492066
0.00049254
0.000492786
0.000492811
0.000492608
0.000492174
0.000491525
0.000490664
0.000489598
0.000488333
0.000486877
0.000485234
0.000483414
0.000481422
0.000479267
0.000476955
0.000474495
0.000471894
0.00046916
0.000466301
0.000463325
0.000460241
0.000457056
0.000453778
0.000450417
0.000446979
0.000443472
0.000439905
0.000436284
0.000432614
0.000428895
0.000425119
0.000421268
0.000417317
0.000413248
0.00040909
0.000404893
0.000400682
0.000396464
0.000392243
0.000388023
0.000383807
0.000379599
0.000375402
0.000371219
0.000367052
0.000362902
0.000358765
0.000354653
0.00035057
0.000346518
0.000342499
0.000338515
0.000334567
0.000330657
0.000326786
0.000322957
0.000319169
0.000315423
0.000311722
0.000308065
0.000304454
0.00030089
0.000297373
0.000293901
0.000290475
0.000287092
0.000283757
0.000280466
0.000277229
0.000274047
0.000270903
0.000267797
0.000264734
0.000261718
0.000258748
0.000255826
0.00025295
0.00025012
0.000247336
0.000244596
0.000241901
0.000239249
0.00023664
0.000234074
0.000231551
0.000229068
0.000226627
0.000224227
0.000221867
0.000219548
0.000217269
0.00021503
0.000212831
0.000210674
0.000208557
0.000206482
0.00020445
0.000202461
0.000200518
0.000198622
0.000196773
0.000194975
0.000193227
0.000191531
0.000189886
0.000188293
0.000186749
0.000185248
0.000183794
0.000182358
0.000180995
0.000179511
0.000178388
0.000176292
0.000175969
0.00017299
0.000172129
1.28767e-05
7.40665e-05
0.000174305
0.000251873
0.000303655
0.000333361
0.000344212
0.000341394
0.000328797
0.000309928
0.000290647
0.000278294
0.000276104
0.000282579
0.000292642
0.000303196
0.000315665
0.00033228
0.000353514
0.000378314
0.000405388
0.000433477
0.000471397
0.000517512
0.000562961
0.00060696
0.000649939
0.000693509
0.000732772
0.000764009
0.00078898
0.000808778
0.000824472
0.000836925
0.000846918
0.000855225
0.000862546
0.000869526
0.000876699
0.000884422
0.000892803
0.000901717
0.000910927
0.000920195
0.000929344
0.000938256
0.000946852
0.000955087
0.000962923
0.000970333
0.000977293
0.000983774
0.000989774
0.000995285
0.00100031
0.00100484
0.00100887
0.00101242
0.00101547
0.00101803
0.0010201
0.00102168
0.00102276
0.0010233
0.00102346
0.00102318
0.00102238
0.00102114
0.00101946
0.00101734
0.0010148
0.00101186
0.00100853
0.00100481
0.00100074
0.000996308
0.000991545
0.000986461
0.000981071
0.000975391
0.000969435
0.000963219
0.000956758
0.000950068
0.000943162
0.000936058
0.000928768
0.000921307
0.000913688
0.000905926
0.000898031
0.000890016
0.000881889
0.000873659
0.000865334
0.000856923
0.00084844
0.000839899
0.000831317
0.000822708
0.000814082
0.000805448
0.000796815
0.000788189
0.000779579
0.00077099
0.00076243
0.000753904
0.000745418
0.000736978
0.000728589
0.000720257
0.000711985
0.00070378
0.000695642
0.000687577
0.000679588
0.000671676
0.000663846
0.000656099
0.000648437
0.000640862
0.000633376
0.00062598
0.000618677
0.000611467
0.000604348
0.000597324
0.000590394
0.000583558
0.000576817
0.000570173
0.000563621
0.000557158
0.000550782
0.000544495
0.0005383
0.000532197
0.000526185
0.000520266
0.000514437
0.000508697
0.000503047
0.000497484
0.000492007
0.000486616
0.000481309
0.000476085
0.000470943
0.000465881
0.0004609
0.000455997
0.000451171
0.000446422
0.000441748
0.000437148
0.000432621
0.000428167
0.000423783
0.000419468
0.000415221
0.000411041
0.000406925
0.000402872
0.000398879
0.000394942
0.000391057
0.00038722
0.000383424
0.00037966
0.000375916
0.000372178
0.000368422
0.00036463
0.000360728
0.00035675
0.000352331
0.000348029
0.000341571
0.000330421
2.17715e-05
0.000106433
0.000220239
0.000312835
0.000375513
0.000412496
0.000427924
0.000428311
0.000418393
0.000405124
0.000397056
0.000396228
0.000405354
0.000422395
0.000444954
0.000472506
0.000505658
0.000544776
0.00058906
0.000651109
0.000724811
0.000804475
0.000888639
0.000959236
0.00102162
0.00107771
0.0011281
0.00117298
0.00121223
0.0012461
0.00127533
0.00130066
0.00132277
0.00134231
0.00135984
0.00137586
0.00139078
0.00140494
0.0014186
0.00143195
0.00144511
0.00145816
0.00147112
0.00148397
0.00149666
0.00150912
0.00152125
0.00153295
0.00154414
0.00155473
0.00156469
0.00157396
0.00158253
0.00159039
0.00159753
0.00160393
0.00160961
0.00161454
0.00161874
0.00162221
0.00162493
0.00162691
0.00162806
0.0016285
0.00162837
0.00162746
0.00162584
0.00162352
0.00162052
0.00161686
0.00161257
0.00160765
0.00160213
0.00159603
0.00158937
0.00158218
0.00157447
0.00156628
0.00155762
0.00154851
0.00153898
0.00152905
0.00151875
0.0015081
0.00149712
0.00148583
0.00147426
0.00146242
0.00145035
0.00143805
0.00142556
0.00141288
0.00140003
0.00138704
0.00137391
0.00136066
0.00134731
0.00133389
0.0013204
0.00130687
0.00129332
0.00127975
0.00126618
0.00125262
0.00123909
0.0012256
0.00121214
0.00119875
0.00118541
0.00117215
0.00115897
0.00114587
0.00113287
0.00111997
0.00110718
0.0010945
0.00108193
0.00106949
0.00105717
0.00104498
0.00103292
0.001021
0.00100921
0.000997568
0.000986063
0.000974701
0.000963483
0.000952409
0.000941481
0.000930699
0.000920064
0.000909576
0.00089923
0.000889024
0.000878957
0.000869029
0.000859242
0.000849597
0.000840093
0.000830729
0.000821504
0.000812417
0.000803467
0.000794651
0.000785969
0.000777418
0.000768996
0.000760703
0.000752535
0.000744492
0.000736571
0.00072877
0.000721089
0.000713524
0.000706074
0.000698738
0.000691514
0.000684398
0.000677391
0.000670488
0.000663688
0.000656988
0.000650386
0.000643877
0.000637458
0.000631124
0.000624869
0.000618684
0.000612562
0.000606488
0.000600447
0.000594419
0.000588372
0.000582271
0.000576051
0.000569657
0.000562906
0.000555746
0.000547525
0.000531429
2.6971e-05
0.000122011
0.000241114
0.000357834
0.000435854
0.000483017
0.000506517
0.000514942
0.000516509
0.000517492
0.000524337
0.000540423
0.000566371
0.000601232
0.000644232
0.000695395
0.000755367
0.000838669
0.000934244
0.00103039
0.00111935
0.0012037
0.00128302
0.0013557
0.00142244
0.00148384
0.00154029
0.00159214
0.00163973
0.00168349
0.00172392
0.00176148
0.00179661
0.00182968
0.00186102
0.00189086
0.0019194
0.00194678
0.0019731
0.00199843
0.00202279
0.00204619
0.00206864
0.0020901
0.00211056
0.00213
0.00214836
0.00216564
0.0021818
0.00219682
0.00221069
0.00222341
0.00223501
0.00224548
0.00225485
0.00226313
0.00227035
0.00227651
0.00228164
0.00228574
0.00228884
0.00229089
0.0022918
0.00229189
0.00229101
0.00228914
0.00228631
0.00228253
0.00227785
0.00227227
0.00226582
0.00225853
0.00225044
0.00224156
0.00223193
0.00222158
0.00221053
0.00219883
0.0021865
0.00217357
0.00216008
0.00214605
0.00213151
0.0021165
0.00210105
0.00208519
0.00206895
0.00205235
0.00203543
0.00201822
0.00200073
0.00198301
0.00196507
0.00194693
0.00192863
0.00191017
0.0018916
0.00187292
0.00185416
0.00183535
0.00181651
0.00179765
0.0017788
0.00175996
0.00174117
0.00172242
0.00170373
0.00168512
0.0016666
0.00164818
0.00162988
0.00161169
0.00159363
0.00157572
0.00155795
0.00154033
0.00152288
0.00150559
0.00148847
0.00147153
0.00145477
0.0014382
0.00142181
0.00140561
0.00138961
0.0013738
0.00135819
0.00134278
0.00132757
0.00131255
0.00129774
0.00128312
0.0012687
0.00125448
0.00124044
0.0012266
0.00121295
0.0011995
0.00118623
0.00117316
0.00116028
0.00114758
0.00113507
0.00112274
0.00111059
0.00109863
0.00108683
0.00107522
0.00106377
0.00105249
0.00104138
0.00103043
0.00101964
0.00100901
0.000998535
0.000988214
0.000978044
0.000968021
0.000958143
0.000948407
0.00093881
0.000929347
0.000920017
0.000910812
0.00090173
0.000892762
0.000883903
0.000875142
0.000866469
0.000857867
0.000849319
0.0008408
0.000832274
0.0008237
0.000815009
0.00080613
0.0007969
0.000787171
0.000777215
0.000757432
3.07978e-05
0.000135318
0.000261503
0.000392464
0.000488737
0.000550342
0.00058806
0.000611448
0.000629154
0.000648427
0.000674506
0.000710043
0.000755777
0.000811989
0.000879087
0.000969509
0.00107457
0.00117624
0.00127542
0.0013709
0.00146158
0.00154756
0.00162879
0.00170523
0.00177718
0.00184499
0.001909
0.00196955
0.00202696
0.00208156
0.00213368
0.0021836
0.00223158
0.00227783
0.00232249
0.0023657
0.00240755
0.00244808
0.00248734
0.00252533
0.00256203
0.00259745
0.00263154
0.00266427
0.00269561
0.00272552
0.00275394
0.00278085
0.0028062
0.00282997
0.00285213
0.00287265
0.00289151
0.00290872
0.00292425
0.00293812
0.00295032
0.00296086
0.00296975
0.00297702
0.00298267
0.00298675
0.00298918
0.00299008
0.00298961
0.00298764
0.0029843
0.0029796
0.0029736
0.00296635
0.0029579
0.00294831
0.00293762
0.0029259
0.00291318
0.00289951
0.00288495
0.00286953
0.00285331
0.00283632
0.00281861
0.00280022
0.00278118
0.00276155
0.00274136
0.00272066
0.00269947
0.00267784
0.00265581
0.00263341
0.00261068
0.00258765
0.00256436
0.00254083
0.00251709
0.00249319
0.00246913
0.00244496
0.0024207
0.00239638
0.00237202
0.00234765
0.00232328
0.00229895
0.00227466
0.00225045
0.00222632
0.00220229
0.00217838
0.00215459
0.00213096
0.00210748
0.00208417
0.00206103
0.00203809
0.00201534
0.0019928
0.00197048
0.00194837
0.00192649
0.00190484
0.00188342
0.00186224
0.00184131
0.00182062
0.00180019
0.00178
0.00176006
0.00174037
0.00172094
0.00170176
0.00168284
0.00166416
0.00164573
0.00162754
0.0016096
0.00159191
0.00157446
0.00155725
0.00154028
0.00152355
0.00150706
0.0014908
0.00147477
0.00145897
0.0014434
0.00142805
0.00141291
0.001398
0.00138329
0.0013688
0.0013545
0.00134042
0.00132653
0.00131283
0.00129933
0.00128602
0.0012729
0.00125995
0.00124719
0.00123459
0.00122217
0.00120992
0.00119782
0.00118588
0.00117409
0.00116243
0.0011509
0.00113949
0.00112818
0.00111695
0.00110576
0.0010946
0.0010834
0.0010721
0.00106063
0.00104882
0.00103661
0.00102444
0.00100198
3.23479e-05
0.0001425
0.000273967
0.000409848
0.000527785
0.000609003
0.000665054
0.000706971
0.000743961
0.000783271
0.00082995
0.00088695
0.000955895
0.00104816
0.0011551
0.00126167
0.00136774
0.00147108
0.00157114
0.00166748
0.00175986
0.00184829
0.00193284
0.00201369
0.00209108
0.00216527
0.00223654
0.00230517
0.0023714
0.00243547
0.00249759
0.00255795
0.00261668
0.00267391
0.00272971
0.00278416
0.00283727
0.00288907
0.00293954
0.00298868
0.00303645
0.00308281
0.00312772
0.00317112
0.00321298
0.00325323
0.00329182
0.00332871
0.00336383
0.00339714
0.00342861
0.00345819
0.00348584
0.00351154
0.00353527
0.00355699
0.0035767
0.00359438
0.00361003
0.00362366
0.00363525
0.00364484
0.00365241
0.00365803
0.00366168
0.0036633
0.00366322
0.00366123
0.00365745
0.00365194
0.00364473
0.00363589
0.00362547
0.00361354
0.00360016
0.00358539
0.0035693
0.00355196
0.00353343
0.00351378
0.00349308
0.00347139
0.00344879
0.00342533
0.00340108
0.0033761
0.00335046
0.0033242
0.0032974
0.00327009
0.00324234
0.00321419
0.00318568
0.00315687
0.00312778
0.00309847
0.00306898
0.00303933
0.00300956
0.00297971
0.00294981
0.00291989
0.00288998
0.0028601
0.00283027
0.00280053
0.00277089
0.00274137
0.00271199
0.00268278
0.00265373
0.00262488
0.00259622
0.00256779
0.00253958
0.00251162
0.0024839
0.00245644
0.00242924
0.00240232
0.00237568
0.00234932
0.00232325
0.00229747
0.00227199
0.00224681
0.00222193
0.00219735
0.00217308
0.00214911
0.00212545
0.00210209
0.00207903
0.00205627
0.0020338
0.00201164
0.00198976
0.00196818
0.0019469
0.0019259
0.00190518
0.00188476
0.00186461
0.00184474
0.00182514
0.00180582
0.00178676
0.00176796
0.00174943
0.00173115
0.00171311
0.00169533
0.00167779
0.00166049
0.00164342
0.00162659
0.00160998
0.0015936
0.00157743
0.00156148
0.00154574
0.00153021
0.00151488
0.00149974
0.00148479
0.00147002
0.00145542
0.00144098
0.00142668
0.00141252
0.00139846
0.00138448
0.00137054
0.00135659
0.00134257
0.00132841
0.00131394
0.00129919
0.00128418
0.00125994
3.27956e-05
0.000144125
0.000275311
0.000409431
0.000539336
0.000642644
0.000719734
0.000781083
0.000836813
0.000894608
0.000962155
0.00105406
0.00116364
0.00128532
0.00140087
0.00151212
0.00161993
0.00172449
0.00182573
0.0019236
0.00201808
0.00210928
0.00219733
0.00228242
0.00236477
0.0024446
0.00252213
0.00259759
0.00267115
0.00274298
0.00281324
0.00288204
0.00294947
0.0030156
0.00308046
0.00314407
0.00320644
0.00326755
0.00332738
0.00338587
0.00344299
0.00349868
0.00355289
0.00360553
0.00365657
0.00370592
0.00375352
0.00379931
0.00384323
0.00388522
0.00392522
0.00396319
0.00399907
0.00403283
0.00406442
0.00409382
0.004121
0.00414593
0.0041686
0.004189
0.00420713
0.00422298
0.00423656
0.00424789
0.00425698
0.00426385
0.00426857
0.00427102
0.00427145
0.00426981
0.00426614
0.0042605
0.00425293
0.0042435
0.00423227
0.0042193
0.00420465
0.00418839
0.0041706
0.00415133
0.00413067
0.00410867
0.00408543
0.004061
0.00403546
0.00400888
0.00398134
0.00395289
0.00392362
0.00389359
0.00386286
0.0038315
0.00379957
0.00376713
0.00373423
0.00370093
0.00366729
0.00363335
0.00359917
0.0035648
0.00353027
0.00349564
0.00346093
0.00342619
0.00339146
0.00335676
0.00332213
0.00328759
0.00325318
0.00321891
0.0031848
0.00315089
0.00311718
0.0030837
0.00305047
0.00301749
0.00298478
0.00295235
0.00292021
0.00288838
0.00285686
0.00282566
0.00279478
0.00276423
0.00273402
0.00270415
0.00267462
0.00264544
0.0026166
0.00258811
0.00255997
0.00253218
0.00250473
0.00247763
0.00245087
0.00242445
0.00239837
0.00237263
0.00234722
0.00232215
0.00229741
0.002273
0.00224891
0.00222514
0.00220169
0.00217856
0.00215573
0.00213321
0.00211098
0.00208906
0.00206742
0.00204607
0.00202501
0.00200422
0.00198371
0.00196347
0.00194349
0.00192378
0.00190432
0.00188511
0.00186615
0.00184743
0.00182895
0.00181069
0.00179266
0.00177484
0.00175723
0.00173981
0.00172256
0.00170548
0.00168853
0.00167168
0.00165491
0.00163815
0.00162134
0.00160441
0.00158722
0.00156982
0.00155189
0.00152575
3.22374e-05
0.000141196
0.000268903
0.000398014
0.000521851
0.000633961
0.000727735
0.000808814
0.000891783
0.000987051
0.00109623
0.00122088
0.00135724
0.00148473
0.00160501
0.00172002
0.00183072
0.00193748
0.00204062
0.0021405
0.00223732
0.00233128
0.00242259
0.00251145
0.00259807
0.00268264
0.00276537
0.00284641
0.00292593
0.00300406
0.0030809
0.00315652
0.003231
0.00330435
0.0033766
0.00344773
0.00351773
0.00358655
0.00365416
0.00372048
0.00378547
0.00384904
0.00391112
0.00397164
0.00403052
0.00408768
0.00414304
0.00419653
0.00424808
0.00429761
0.00434507
0.00439038
0.0044335
0.00447438
0.00451296
0.0045492
0.00458308
0.00461456
0.00464362
0.00467025
0.00469443
0.00471615
0.00473543
0.00475226
0.00476667
0.00477866
0.00478826
0.00479549
0.00480043
0.00480299
0.00480338
0.00480157
0.0047976
0.00479154
0.00478344
0.00477335
0.00476135
0.0047475
0.00473186
0.0047145
0.00469549
0.00467491
0.00465281
0.00462929
0.0046044
0.00457823
0.00455084
0.00452232
0.00449272
0.00446213
0.0044306
0.00439822
0.00436504
0.00433113
0.00429656
0.00426139
0.00422569
0.0041895
0.00415289
0.00411592
0.00407863
0.00404108
0.00400333
0.0039654
0.00392736
0.00388924
0.00385108
0.00381292
0.00377479
0.00373672
0.00369875
0.00366091
0.00362322
0.0035857
0.00354838
0.00351129
0.00347443
0.00343784
0.00340151
0.00336548
0.00332974
0.00329432
0.00325923
0.00322446
0.00319004
0.00315597
0.00312225
0.00308889
0.0030559
0.00302327
0.00299101
0.00295913
0.00292761
0.00289647
0.00286569
0.00283529
0.00280526
0.00277559
0.00274629
0.00271736
0.00268879
0.00266058
0.00263273
0.00260523
0.00257809
0.00255129
0.00252483
0.00249872
0.00247294
0.00244749
0.00242236
0.00239756
0.00237308
0.0023489
0.00232504
0.00230148
0.00227823
0.00225526
0.00223259
0.0022102
0.0021881
0.00216626
0.0021447
0.0021234
0.00210235
0.00208155
0.00206098
0.00204064
0.0020205
0.00200055
0.00198076
0.00196111
0.00194154
0.00192202
0.00190247
0.00188282
0.00186293
0.00184287
0.00182213
0.0017938
3.08681e-05
0.00013511
0.000258109
0.000383391
0.000505342
0.000621405
0.000732042
0.000840995
0.000955815
0.00108164
0.00121969
0.00136943
0.00151171
0.00164368
0.00176792
0.00188634
0.00200005
0.0021097
0.00221565
0.00231813
0.00241754
0.00251424
0.00260854
0.0027007
0.00279093
0.00287946
0.00296645
0.00305206
0.00313643
0.00321967
0.00330186
0.00338306
0.0034633
0.00354259
0.00362094
0.0036983
0.00377465
0.00384993
0.00392407
0.003997
0.00406864
0.00413891
0.00420772
0.00427497
0.00434058
0.00440446
0.00446651
0.00452665
0.0045848
0.00464088
0.00469481
0.00474653
0.00479597
0.00484307
0.00488777
0.00493004
0.00496983
0.0050071
0.00504183
0.00507401
0.0051036
0.00513061
0.00515503
0.00517687
0.00519613
0.00521283
0.005227
0.00523865
0.00524783
0.00525455
0.00525887
0.0052608
0.00526046
0.00525785
0.00525304
0.00524607
0.00523702
0.00522594
0.0052129
0.00519796
0.0051812
0.00516268
0.00514248
0.00512066
0.0050973
0.00507247
0.00504625
0.0050187
0.0049899
0.00495993
0.00492884
0.00489672
0.00486362
0.00482963
0.00479479
0.00475919
0.00472288
0.00468593
0.00464839
0.00461034
0.00457182
0.00453289
0.0044936
0.00445402
0.00441418
0.00437413
0.00433392
0.0042936
0.00425319
0.00421274
0.0041723
0.00413188
0.00409153
0.00405127
0.00401113
0.00397115
0.00393133
0.00389172
0.00385232
0.00381317
0.00377427
0.00373564
0.0036973
0.00365926
0.00362154
0.00358414
0.00354707
0.00351035
0.00347398
0.00343796
0.00340231
0.00336703
0.00333211
0.00329757
0.0032634
0.0032296
0.00319619
0.00316315
0.00313048
0.0030982
0.00306629
0.00303476
0.0030036
0.00297281
0.00294239
0.00291234
0.00288265
0.00285332
0.00282434
0.00279572
0.00276745
0.00273952
0.00271194
0.00268469
0.00265777
0.00263119
0.00260493
0.00257899
0.00255336
0.00252805
0.00250304
0.00247834
0.00245393
0.00242981
0.00240597
0.0023824
0.00235909
0.00233603
0.0023132
0.00229059
0.00226816
0.00224588
0.00222371
0.00220161
0.00217949
0.0021573
0.0021349
0.00211232
0.00208902
0.00205836
2.93174e-05
0.000128791
0.000248237
0.000372468
0.000497092
0.000621007
0.000745652
0.000874971
0.00101222
0.00115947
0.00131685
0.00147861
0.00162639
0.00176283
0.00189092
0.00201267
0.00212936
0.0022418
0.00235053
0.00245593
0.00255832
0.00265788
0.00275504
0.00285018
0.00294356
0.00303543
0.00312599
0.00321539
0.00330378
0.00339124
0.00347785
0.00356366
0.00364869
0.00373293
0.00381638
0.00389898
0.00398069
0.00406142
0.00414112
0.00421968
0.00429701
0.00437303
0.00444761
0.00452066
0.00459209
0.00466178
0.00472963
0.00479555
0.00485946
0.00492124
0.00498084
0.00503816
0.00509314
0.00514571
0.00519581
0.00524339
0.0052884
0.00533082
0.00537059
0.00540771
0.00544214
0.00547389
0.00550294
0.0055293
0.00555298
0.00557398
0.00559233
0.00560805
0.00562117
0.00563173
0.00563976
0.0056453
0.00564841
0.00564913
0.00564753
0.00564365
0.00563756
0.00562931
0.00561897
0.00560661
0.00559229
0.00557607
0.00555804
0.00553826
0.0055168
0.00549374
0.00546915
0.0054431
0.00541567
0.00538691
0.00535692
0.00532574
0.00529347
0.00526015
0.00522586
0.00519067
0.00515464
0.00511783
0.00508031
0.00504214
0.00500338
0.00496409
0.00492432
0.00488412
0.00484355
0.00480266
0.0047615
0.00472011
0.00467853
0.00463681
0.00459499
0.00455311
0.00451119
0.00446929
0.00442742
0.00438562
0.00434392
0.00430235
0.00426092
0.00421967
0.00417861
0.00413777
0.00409716
0.00405681
0.00401672
0.00397691
0.0039374
0.0038982
0.00385931
0.00382075
0.00378252
0.00374464
0.00370711
0.00366992
0.0036331
0.00359664
0.00356054
0.00352481
0.00348945
0.00345446
0.00341984
0.0033856
0.00335173
0.00331823
0.0032851
0.00325234
0.00321995
0.00318792
0.00315626
0.00312495
0.00309401
0.00306342
0.00303318
0.0030033
0.00297376
0.00294456
0.0029157
0.00288717
0.00285898
0.00283112
0.00280358
0.00277635
0.00274944
0.00272284
0.00269654
0.00267052
0.00264479
0.00261932
0.00259411
0.00256913
0.00254435
0.00251974
0.00249526
0.00247086
0.00244648
0.00242203
0.00239741
0.00237261
0.0023471
0.00231429
2.76227e-05
0.000122192
0.000238215
0.000361766
0.000489209
0.000619918
0.000756147
0.000899679
0.00105218
0.00121417
0.00138614
0.00155208
0.00170385
0.00184415
0.00197575
0.00210062
0.00222011
0.00233516
0.00244642
0.0025544
0.00265947
0.00276195
0.00286209
0.00296009
0.00305637
0.00315123
0.0032449
0.00333756
0.00342936
0.00352041
0.00361077
0.0037005
0.0037896
0.00387806
0.00396585
0.00405293
0.00413922
0.00422464
0.00430911
0.00439252
0.00447477
0.00455574
0.00463533
0.00471341
0.00478988
0.00486463
0.00493754
0.00500851
0.00507743
0.00514422
0.00520878
0.00527102
0.00533088
0.00538827
0.00544314
0.00549543
0.00554509
0.00559207
0.00563635
0.00567789
0.00571667
0.00575269
0.00578593
0.00581639
0.00584408
0.00586902
0.00589121
0.00591069
0.00592748
0.00594162
0.00595313
0.00596207
0.00596848
0.0059724
0.00597389
0.00597302
0.00596985
0.00596442
0.0059568
0.00594705
0.00593524
0.00592144
0.00590572
0.00588814
0.00586879
0.00584773
0.00582503
0.00580078
0.00577503
0.00574786
0.00571934
0.00568953
0.00565852
0.00562636
0.00559312
0.00555887
0.00552368
0.0054876
0.00545071
0.00541306
0.00537472
0.00533574
0.00529618
0.0052561
0.00521554
0.00517456
0.00513322
0.00509154
0.00504959
0.00500741
0.00496503
0.0049225
0.00487986
0.00483715
0.00479439
0.00475162
0.00470887
0.00466618
0.00462356
0.00458105
0.00453867
0.00449645
0.0044544
0.00441254
0.0043709
0.00432949
0.00428832
0.00424742
0.00420679
0.00416644
0.00412639