/*--------------------------------*- C++ -*----------------------------------*\
  =========                 |
  \\      /  F ield         | OpenFOAM: The Open Source CFD Toolbox
   \\    /   O peration     | Website:  https://openfoam.org
    \\  /    A nd           | Version:  8
     \\/     M anipulation  |
\*---------------------------------------------------------------------------*/
FoamFile
{
    version     2.0;
    format      ascii;
    class       volScalarField;
    location    "800";
    object      omega;
}
// * * * * * * * * * * * * * * * * * * * * * * * * * * * * * * * * * * * * * //

dimensions      [0 0 -1 0 0 0 0];

internalField   nonuniform List<scalar> 
12225
(
32582.3
41760.6
41510.6
38669.1
40248.4
32582.3
39608.6
32582.3
44757.3
44962.7
49643.4
48335
42284.6
32582.3
46843
41508.6
32582.3
32582.3
7459.58
8411.77
12030.9
13504.7
14510.8
14246.5
16566.4
16877.4
17531.7
16448.9
19720.6
19247.9
18504.2
17794.7
18463.1
17785.7
17271.3
16872
88.7796
1085.01
2211.01
3025.49
3724.51
4618.07
5371.25
5717.05
6128.35
6273.55
6669.08
6973.05
7208.57
7313.56
7468.39
7649.45
7708.14
7813.99
375.067
557.591
802.092
976.567
1145.93
1371.4
1577.93
1760.16
1905.7
2043.45
2156.5
2289.01
2382.68
2484.41
2545.48
2632.96
2665.57
2762.66
475.704
499.709
557.771
601.491
642.056
703.704
762.602
828.62
880.155
939.127
981.554
1035.52
1071.02
1117.84
1144.27
1184.4
1202.79
1240.3
494.012
495.39
504.46
517.841
532.296
542.254
558.524
581.469
599.363
622.816
639.46
661.895
676.68
697.365
709.503
728.278
737.368
755.121
497.682
495.347
495.156
495.931
497.422
499.919
501.805
507.465
512.075
519.688
524.972
533.142
538.508
546.752
551.697
559.758
563.837
571.717
498.322
495.636
493.346
491.582
490.039
489.02
488.591
488.83
489.486
491.021
492.278
494.69
496.278
499.24
501.018
504.218
505.928
509.357
498.472
495.686
493.039
490.637
488.324
486.35
484.581
483.3
482.11
481.46
480.812
480.57
480.497
480.612
480.804
481.286
481.622
482.527
498.505
495.679
492.961
490.446
487.985
485.764
483.609
481.738
479.913
478.369
476.865
475.615
474.398
473.472
472.482
471.851
471.029
470.666
498.511
495.668
492.938
490.393
487.93
485.648
483.435
481.4
479.422
477.616
475.853
474.26
472.694
471.309
469.928
468.735
467.523
466.498
498.515
495.658
492.932
490.368
487.915
485.608
483.398
481.32
479.324
477.45
475.646
473.955
472.325
470.8
469.329
467.956
466.629
465.392
498.516
495.651
492.929
490.354
487.904
485.586
483.377
481.285
479.289
477.397
475.589
473.875
472.236
470.681
469.193
467.78
466.428
465.144
498.517
495.648
492.925
490.345
487.895
485.57
483.361
481.261
479.265
477.365
475.556
473.834
472.193
470.63
469.138
467.717
466.359
465.065
498.517
495.646
492.922
490.339
487.887
485.559
483.346
481.244
479.244
477.341
475.529
473.804
472.16
470.593
469.099
467.674
466.314
465.017
498.516
495.643
492.917
490.331
487.875
485.544
483.328
481.222
479.218
477.312
475.496
473.768
472.12
470.551
469.052
467.626
466.261
464.963
498.508
495.619
492.88
490.282
487.816
485.474
483.25
481.136
479.125
477.212
475.39
473.656
472.003
470.429
468.927
467.495
466.129
464.826
498.507
495.62
492.88
490.283
487.815
485.475
483.248
481.135
479.122
477.209
475.386
473.652
471.998
470.423
468.92
467.488
466.121
464.817
498.517
495.642
492.917
490.329
487.874
485.54
483.324
481.214
479.21
477.3
475.484
473.752
472.104
470.53
469.032
467.601
466.238
464.935
498.517
495.645
492.92
490.336
487.882
485.552
483.336
481.231
479.227
477.321
475.505
473.777
472.129
470.559
469.061
467.633
466.27
464.97
498.518
495.645
492.923
490.339
487.888
485.558
483.346
481.241
479.24
477.335
475.523
473.796
472.151
470.583
469.09
467.664
466.306
465.009
498.52
495.646
492.928
490.343
487.898
485.567
483.363
481.258
479.268
477.367
475.571
473.853
472.232
470.679
469.215
467.812
466.491
465.223
498.526
495.643
492.934
490.349
487.93
485.603
483.441
481.364
479.449
477.616
475.94
474.336
472.877
471.479
470.217
469.001
467.919
466.858
498.541
495.617
492.918
490.446
488.188
486.07
484.26
482.551
481.199
479.94
479.063
478.237
477.725
477.238
477.003
476.785
476.767
476.705
498.485
495.447
493.181
491.912
490.999
491.039
491.543
492.259
493.935
495.684
498.491
500.978
504.313
507.121
510.685
513.571
517.222
520.012
497.186
497.84
499.518
505.541
514.042
522.92
534.985
546.772
560.858
573.676
588.409
601.095
615.485
627.394
640.922
651.735
664.336
673.886
497.838
527.219
559.028
599.415
649.161
699.402
755.674
807.369
861.352
908.415
957.743
998.806
1042.98
1078.42
1117.4
1147.87
1182.67
1208.41
592.371
825.414
1048.8
1256.25
1480.18
1700.29
1921.26
2113.46
2292.38
2440.76
2579.59
2691.47
2800.69
2887.83
2976.57
3049.02
3126.11
3186.79
2221.53
4043.62
5377.75
6467.42
7382.05
8082.45
8582.9
8934.97
9164.61
9299.56
9373.95
9393.38
9385.53
9363.98
9334.87
9295.53
9273.45
9247.46
19168.1
21828.5
23492.4
24434
24929.1
25038.8
24983.9
24839.9
24599.8
24333.6
24062.7
23799.1
23550.1
23319.4
23107.3
22915.3
22739.9
22584.2
11463.3
2494.65
2496.87
2499.12
2501.38
2503.67
2505.98
2508.3
2510.65
2513.02
2515.42
2517.83
2520.27
2522.73
2525.21
2527.72
2530.25
2532.8
2535.37
2537.97
2540.6
2543.25
2545.92
2548.62
2551.34
2554.09
2556.87
2559.67
2562.5
2565.35
2568.23
2571.14
2574.08
2577.04
2580.04
2583.06
2586.11
2589.19
2592.3
2595.43
2598.6
2601.8
2605.03
2608.29
2611.59
2614.91
2618.27
2621.66
2625.08
2628.54
2632.03
2635.55
2639.11
3147.66
3201.94
3225.23
3161.97
2657.44
2661.21
3271.09
3409.5
2672.76
3316.13
3391.18
3476.39
3568.04
3644.11
3724.84
3797.81
3871.44
3940.81
4009.59
4075.69
4140.76
4203.98
4266.05
4326.69
4386.18
4444.47
4501.63
4557.75
4612.75
4666.82
4719.77
4771.87
4822.84
4873.01
4922.05
4970.25
5017.33
5063.42
5108.47
5152.45
5195.3
5236.98
5277.43
5316.64
5354.57
5391.34
5427.09
5462.3
5496.5
5529.72
5562.03
5593.38
5623.8
5653.24
5681.74
5709.22
5735.75
5761.21
5785.73
5809.14
5831.6
5852.94
5873.31
5892.54
5910.8
5927.91
5944.05
5959.04
5973.04
5985.91
5997.79
6008.55
6018.31
6026.95
6034.67
6041.96
6047.31
6052.97
6055.45
6058.69
6060.64
6062.42
6063.15
6062.89
6060.68
6057.92
6054
6049.37
6043.89
6037.69
6030.71
6023.08
6014.78
6006.03
5996.25
5986.32
5975.12
5964.04
5951.65
5939.59
5926.18
5912.98
5899.15
5885.15
5870.88
5856.46
5841.91
5827.35
5812.76
5798.22
5783.7
5769.29
5755.01
5740.94
5727.12
5713.63
5700.49
5687.74
5675.3
5663.16
5651.02
5638.58
5625.09
5609.72
5589.72
5560.13
5440.72
11463.3
1993.27
994.736
806.927
689.067
623.185
630.256
625.952
614.356
591.705
567.593
544.158
522.652
504.853
492.846
484.021
483.715
486.124
512.294
562.134
647.051
748.743
859.122
968.503
1066.59
1142.03
1184.68
1178.15
1135.49
1054.78
928.798
772.832
642.183
559.408
494.295
459.358
454.95
463.476
486.071
518.304
550.255
587.126
683.725
819.239
1033.17
1348.62
1646.31
1852.56
1983.52
2051.3
2069.26
2058.58
2029.59
2023
1957.43
1901.13
1841.12
1776.81
1754.07
1730.45
1700.81
1663.37
1683.68
1669.5
1666.34
1664.53
1663.72
1665.52
1668.42
1672.76
1677.71
1683.62
1689.91
1696.76
1703.86
1711.26
1718.81
1726.51
1734.28
1742.1
1749.94
1757.77
1765.57
1773.31
1780.98
1788.55
1796.01
1803.35
1810.55
1817.56
1824.42
1831.08
1837.55
1843.84
1849.95
1855.96
1861.94
1868.06
1874.55
1881.83
1890.42
1898.7
1906.77
1914.63
1922.26
1929.67
1936.84
1943.78
1950.49
1956.96
1963.2
1969.21
1974.98
1980.51
1985.81
1990.87
1995.7
2000.3
2004.67
2008.8
2012.71
2016.4
2019.87
2023.11
2026.15
2028.97
2031.6
2034.04
2036.31
2038.32
2040.19
2041.77
2043.33
2044.7
2045.92
2046.74
2046.99
2046.5
2045.69
2044.68
2043.5
2042.13
2040.6
2038.92
2037.12
2035.27
2032.47
2030.83
2027.36
2025.58
2021.75
2019.75
2015.57
2013.11
2009.49
2006.19
2002.68
1999.15
1995.52
1991.88
1988.19
1984.48
1980.76
1977.02
1973.3
1969.59
1965.92
1962.28
1958.7
1955.19
1951.78
1948.46
1945.21
1942.14
1939.27
1936.69
1934.48
1933.17
1931.87
1940.57
11463.3
2009.44
815.832
644.17
684.171
682.909
654.005
597.93
538.151
482.181
432.761
390.821
357.923
332.167
312.375
297.176
286.621
278.544
276.598
279.059
289.551
308.43
340.968
385.04
440.372
500.673
562.321
608.834
640.136
637.875
615.851
573.223
510.043
441.225
390.642
383.674
395.353
420.562
459.992
534.378
646.974
802.676
996.915
1171.88
1319.32
1450.38
1533.32
1560.35
1557.97
1510.29
1457.35
1397.31
1342.49
1293.52
1246.47
1208.26
1177.8
1154.53
1138.79
1124.35
1115.9
1108.01
1105.23
1102.53
1100.98
1100.9
1101.87
1103.65
1105.99
1108.82
1112
1115.51
1119.22
1123.13
1127.18
1131.34
1135.58
1139.89
1144.24
1148.61
1153
1157.38
1161.76
1166.11
1170.44
1174.72
1178.96
1183.16
1187.29
1191.37
1195.38
1199.35
1203.27
1207.16
1211.04
1214.95
1218.91
1222.97
1227.18
1231.55
1235.96
1240.2
1244.33
1248.33
1252.2
1255.95
1259.56
1263.05
1266.4
1269.61
1272.7
1275.65
1278.46
1281.14
1283.69
1286.09
1288.37
1290.51
1292.52
1294.39
1296.14
1297.75
1299.23
1300.58
1301.81
1302.9
1303.88
1304.73
1305.47
1306.07
1306.57
1306.93
1307.2
1307.34
1307.36
1307.12
1306.69
1306.04
1305.26
1304.38
1303.4
1302.31
1301.12
1299.83
1298.45
1296.96
1295.26
1293.69
1291.71
1290.01
1287.84
1286
1283.63
1281.63
1279.29
1277
1274.63
1272.21
1269.74
1267.24
1264.71
1262.14
1259.56
1256.96
1254.35
1251.73
1249.12
1246.51
1243.92
1241.35
1238.82
1236.36
1233.97
1231.71
1229.65
1227.91
1226.65
1226.54
1227.95
1238.27
11463.3
2040.89
1019.79
980.99
904.019
773.404
655.965
549.037
464.809
402.114
354.636
317.387
288.807
267.068
250.547
238.024
228.654
221.824
217.249
215.641
216.715
219.824
228.229
242.547
264.248
292.935
327.645
362.686
394.232
417.338
423.626
417.471
394.298
395.811
434.722
525.419
591.865
649.582
721.384
823.576
956.321
1071.44
1150.1
1217.96
1269.89
1289.77
1252.76
1210.25
1164.4
1111
1065.96
1024.35
990.602
961.935
938.63
920.377
906.568
896.438
889.345
884.041
880.602
878.973
877.953
877.914
878.676
880.047
881.918
884.161
886.699
889.482
892.456
895.592
898.852
902.217
905.665
909.18
912.747
916.355
919.992
923.648
927.316
930.987
934.655
938.311
941.953
945.573
949.169
952.738
956.278
959.781
963.256
966.705
970.134
973.548
976.955
980.362
983.776
987.198
990.622
994.024
997.354
1000.58
1003.71
1006.74
1009.67
1012.5
1015.22
1017.84
1020.36
1022.77
1025.07
1027.26
1029.34
1031.32
1033.18
1034.93
1036.57
1038.1
1039.52
1040.82
1042.01
1043.1
1044.07
1044.93
1045.67
1046.31
1046.84
1047.26
1047.57
1047.77
1047.88
1047.87
1047.75
1047.52
1047.17
1046.66
1046.02
1045.24
1044.37
1043.4
1042.34
1041.19
1039.95
1038.62
1037.21
1035.69
1034.08
1032.42
1030.62
1028.81
1026.86
1024.93
1022.83
1020.78
1018.6
1016.4
1014.13
1011.83
1009.47
1007.08
1004.66
1002.21
999.735
997.241
994.733
992.212
989.685
987.156
984.634
982.123
979.64
977.204
974.837
972.582
970.5
968.696
967.326
966.929
967.964
974.332
11463.3
2326.59
1477.57
1186.4
940.08
725.681
559.662
448.695
372.935
319.834
282.371
256.075
236.797
222.118
210.673
201.748
194.945
190.018
186.767
185.267
185.536
186.979
190.913
197.805
208.733
224.67
245.852
269.73
293.799
312.386
328.739
353.998
420.386
523.786
613.618
682.111
751.554
827.108
899.007
962.25
1017.38
1065.04
1095.23
1103.67
1073.25
1026.99
989.73
948.297
911.135
877.088
849.595
826.059
807.437
792.317
780.697
771.951
765.67
761.377
758.84
757.609
757.162
757.481
758.542
760.134
762.17
764.541
767.186
770.045
773.079
776.257
779.553
782.947
786.423
789.968
793.568
797.216
800.9
804.613
808.348
812.096
815.851
819.607
823.359
827.099
830.825
834.532
838.217
841.876
845.506
849.105
852.672
856.21
859.721
863.204
866.66
870.084
873.476
876.825
880.12
883.348
886.493
889.547
892.511
895.381
898.157
900.836
903.417
905.897
908.277
910.554
912.728
914.798
916.76
918.615
920.362
921.999
923.525
924.94
926.243
927.434
928.51
929.475
930.325
931.062
931.685
932.193
932.587
932.867
933.031
933.079
933.039
932.869
932.585
932.183
931.661
931.009
930.234
929.346
928.356
927.267
926.082
924.8
923.425
921.958
920.404
918.752
917.015
915.198
913.288
911.318
909.258
907.151
904.953
902.722
900.413
898.054
895.641
893.181
890.676
888.132
885.553
882.944
880.311
877.657
874.985
872.299
869.604
866.904
864.209
861.53
858.879
856.27
853.724
851.276
848.978
846.917
845.223
844.267
844.522
847.738
11463.3
2945.1
1734.83
1206.99
830.365
585.473
442.919
354.786
300.447
265.244
240.688
222.502
208.488
197.519
188.78
181.831
176.467
172.562
170.03
168.978
169.31
170.746
174.069
179.368
187.357
199.233
215.951
237.717
266.389
308.775
363.961
454.854
567.005
657.9
726.035
787.765
839.622
879.927
914.469
947.95
965.494
967.961
939.84
908.653
876.082
841.873
812.22
783.885
760.28
740.105
723.851
710.566
700.249
692.322
686.607
682.69
680.525
679.593
679.456
680.235
681.662
683.639
686.068
688.839
691.888
695.153
698.592
702.172
705.869
709.662
713.537
717.482
721.486
725.541
729.637
733.769
737.927
742.106
746.298
750.497
754.696
758.89
763.072
767.238
771.383
775.503
779.593
783.65
787.671
791.649
795.587
799.482
803.335
807.143
810.902
814.609
818.256
821.835
825.339
828.761
832.094
835.335
838.481
841.53
844.481
847.33
850.077
852.718
855.252
857.677
859.993
862.198
864.29
866.266
868.125
869.866
871.486
872.986
874.363
875.617
876.747
877.753
878.633
879.388
880.016
880.518
880.891
881.137
881.242
881.249
881.128
880.873
880.49
879.98
879.341
878.572
877.678
876.664
875.537
874.3
872.955
871.503
869.947
868.291
866.539
864.686
862.739
860.701
858.573
856.365
854.075
851.716
849.28
846.784
844.217
841.592
838.91
836.176
833.395
830.572
827.712
824.821
821.904
818.964
816.005
813.031
810.046
807.057
804.07
801.097
798.15
795.242
792.392
789.631
787
784.571
782.448
780.884
780.223
781.311
11463.3
3442.47
1775.72
1031.96
647.785
455.922
357.447
302.26
267.34
242.692
224.089
209.567
197.809
188.061
179.972
173.381
168.222
164.49
162.306
161.768
162.666
165.306
170.152
177.596
188.389
203.126
225.236
260.012
314.358
398.955
504.979
595.988
666.277
726.217
772.975
808.006
836.132
858.265
867.55
864.748
842.18
819.66
793.262
767.614
742.403
718.772
698.354
680.422
665.682
653.51
643.851
636.334
630.8
626.954
624.832
623.972
623.916
624.883
626.579
628.902
631.716
634.935
638.477
642.273
646.271
650.43
654.721
659.118
663.604
668.166
672.793
677.475
682.204
686.974
691.778
696.608
701.457
706.318
711.183
716.046
720.901
725.74
730.558
735.349
740.109
744.832
749.514
754.149
758.734
763.264
767.736
772.15
776.504
780.795
785.019
789.172
793.249
797.249
801.164
804.986
808.708
812.33
815.847
819.258
822.559
825.748
828.823
831.781
834.619
837.334
839.921
842.379
844.709
846.908
848.976
850.91
852.71
854.372
855.897
857.282
858.528
859.632
860.595
861.416
862.095
862.63
863.023
863.262
863.353
863.333
863.159
862.84
862.379
861.776
861.033
860.15
859.131
857.98
856.702
855.302
853.78
852.139
850.381
848.503
846.505
844.396
842.182
839.866
837.452
834.945
832.352
829.677
826.921
824.092
821.191
818.223
815.194
812.108
808.972
805.791
802.57
799.316
796.033
792.727
789.401
786.059
782.707
779.35
775.996
772.656
769.341
766.064
762.844
759.703
756.679
753.825
751.227
749.051
747.47
746.971
11463.3
3580.05
1557.38
812.328
513.414
380.983
312.963
273.205
247.514
229.472
215.59
203.828
193.596
184.766
177.293
171.246
166.81
164.134
163.126
163.747
166.244
171.26
179.228
192.236
212.703
242.813
289.1
362.494
450.286
531.577
597.202
652.73
699.31
736.164
765.611
784.281
790.835
784.192
767.275
749.642
728.843
709.136
689.091
670.074
652.2
636.281
622.714
611.271
601.998
594.63
589.043
585.055
582.65
581.618
581.476
582.361
584.079
586.542
589.606
593.174
597.15
601.46
606.04
610.836
615.806
620.917
626.144
631.467
636.869
642.338
647.864
653.439
659.053
664.701
670.376
676.07
681.773
687.479
693.178
698.864
704.527
710.163
715.763
721.322
726.835
732.298
737.703
743.044
748.317
753.515
758.638
763.684
768.65
773.533
778.33
783.036
787.65
792.17
796.587
800.893
805.083
809.155
813.106
816.933
820.635
824.209
827.651
830.958
834.129
837.161
840.051
842.798
845.4
847.854
850.158
852.311
854.31
856.153
857.839
859.367
860.735
861.943
862.99
863.875
864.598
865.159
865.556
865.774
865.84
865.76
865.512
865.101
864.53
863.801
862.915
861.875
860.683
859.344
857.863
856.242
854.486
852.595
850.575
848.427
846.157
843.767
841.262
838.644
835.919
833.091
830.168
827.154
824.054
820.871
817.61
814.276
810.877
807.417
803.903
800.34
796.735
793.094
789.424
785.728
782.011
778.278
774.535
770.788
767.045
763.317
759.615
755.951
752.341
748.806
745.376
742.094
738.991
736.211
733.83
732.006
11463.3
3396.84
1276.07
659.241
444.111
348.987
297.049
265.695
244.18
228.056
215.309
204.805
195.865
188.231
181.943
177.216
174.383
173.591
175.159
179.003
186.225
198.162
216.038
245.029
289.019
348.009
415.481
478.153
535.436
585.295
627.922
663.52
693.999
715.112
722.675
719.316
706.586
692.421
676.099
660.453
644.803
629.938
615.407
601.783
589.407
578.684
569.71
562.382
556.648
552.389
549.525
548.116
547.729
548.301
549.824
552.187
555.275
558.993
563.245
567.947
573.026
578.416
584.061
589.916
595.942
602.109
608.393
614.777
621.24
627.767
634.347
640.968
647.62
654.294
660.99
667.693
674.393
681.081
687.747
694.383
700.981
707.533
714.031
720.469
726.836
733.117
739.323
745.45
751.491
757.442
763.298
769.059
774.721
780.282
785.736
791.078
796.306
801.409
806.387
811.235
815.948
820.524
824.961
829.255
833.404
837.407
841.258
844.956
848.498
851.88
855.1
858.157
861.048
863.77
866.322
868.701
870.903
872.929
874.775
876.441
877.925
879.226
880.344
881.278
882.028
882.594
882.97
883.145
883.159
882.99
882.637
882.101
881.386
880.493
879.425
878.184
876.775
875.201
873.467
871.578
869.536
867.345
865.009
862.534
859.922
857.178
854.306
851.311
848.197
844.971
841.638
838.206
834.679
831.062
827.36
823.58
819.73
815.816
811.844
807.82
803.751
799.644
795.506
791.342
787.155
782.953
778.742
774.529
770.323
766.133
761.971
757.849
753.78
749.783
745.883
742.116
738.523
735.196
732.15
729.291
11463.3
2967.17
1028.23
561.869
401.046
327.731
288.822
263.383
246.034
233.339
223.187
214.656
207.477
201.738
197.887
196.436
197.678
202.324
210.467
222.414
240.448
266.326
301.702
344.965
392.284
440.435
486.278
527.736
565.022
597.057
625.243
648.66
659.411
660.722
653.704
643.494
630.818
618.374
606.137
594.583
583.34
572.501
562.082
552.466
543.957
536.752
530.893
526.344
523.063
521.129
520.388
520.495
521.658
523.728
526.634
530.293
534.619
539.532
544.956
550.82
557.063
563.625
570.451
577.496
584.723
592.099
599.603
607.227
614.93
622.694
630.503
638.342
646.191
654.026
661.81
669.568
677.315
685.044
692.741
700.396
707.999
715.544
723.022
730.427
737.752
744.998
752.146
759.183
766.103
772.898
779.568
786.111
792.525
798.807
804.952
810.957
816.816
822.528
828.09
833.499
838.75
843.842
848.772
853.537
858.136
862.564
866.82
870.9
874.801
878.52
882.054
885.401
888.558
891.524
894.296
896.871
899.247
901.422
903.394
905.16
906.72
908.074
909.22
910.158
910.889
911.412
911.715
911.81
911.71
911.404
910.892
910.177
909.262
908.149
906.841
905.342
903.656
901.787
899.74
897.521
895.132
892.579
889.867
887.001
883.985
880.825
877.525
874.091
870.527
866.84
863.038
859.127
855.113
851.002
846.8
842.517
838.159
833.735
829.25
824.71
820.122
815.495
810.835
806.148
801.439
796.715
791.985
787.257
782.537
777.837
773.167
768.539
763.965
759.462
755.051
750.762
746.624
742.71
739.004
735.191
11463.3
2490.96
894.271
524.087
388.242
324.264
289.628
269.385
255.999
246.226
238.631
232.727
228.698
227.074
228.027
232.73
241.207
252.673
267.597
288.009
313.952
344.556
378.364
413.437
448.143
481.339
512.114
539.381
564.254
587.062
600.848
605.07
603.646
598.284
589.882
580.642
571.269
562.407
553.902
545.694
537.64
529.825
522.431
515.747
509.998
505.315
501.742
499.294
498.101
497.835
498.551
500.224
502.825
506.286
510.542
515.518
521.143
527.346
534.063
541.233
548.818
556.752
564.969
573.423
582.07
590.865
599.749
608.647
617.626
626.678
635.786
644.928
654.078
663.219
672.35
681.447
690.499
699.501
708.43
717.276
726.032
734.694
743.254
751.705
760.039
768.244
776.309
784.228
791.996
799.608
807.061
814.356
821.491
828.464
835.271
841.908
848.374
854.666
860.78
866.716
872.469
878.036
883.414
888.603
893.599
898.401
903.006
907.411
911.611
915.604
919.389
922.96
926.318
929.459
932.382
935.084
937.562
939.814
941.837
943.63
945.192
946.522
947.621
948.487
949.122
949.522
949.682
949.616
949.323
948.803
948.056
947.085
945.893
944.483
942.859
941.025
938.985
936.746
934.311
931.687
928.878
925.891
922.73
919.401
915.911
912.264
908.468
904.527
900.448
896.237
891.901
887.447
882.884
878.219
873.459
868.615
863.695
858.705
853.652
848.544
843.386
838.186
832.952
827.691
822.41
817.117
811.82
806.529
801.252
795.997
790.775
785.598
780.476
775.426
770.466
765.621
760.913
756.401
752.057
747.381
11463.3
2079.27
785.995
486.586
376.538
324.721
297.482
281.521
271.334
264.463
259.92
257.773
257.521
260.25
266.379
275.949
288.421
303.621
322.132
343.767
367.715
393.038
418.813
444.232
468.511
490.887
511.945
532.008
546.859
553.542
555.153
554.514
550.61
545.093
538.787
532.453
526.285
520.338
514.493
508.704
502.991
497.496
492.43
488.022
484.446
481.804
480.283
479.763
480.149
481.535
483.87
487.123
491.264
496.263
502.088
508.624
515.807
523.572
531.85
540.557
549.562
558.855
568.467
578.369
588.522
598.885
609.428
620.144
630.956
641.818
652.696
663.574
674.4
685.135
695.762
706.261
716.617
726.819
736.886
746.825
756.638
766.324
775.881
785.302
794.574
803.684
812.616
821.363
829.92
838.281
846.446
854.417
862.194
869.773
877.152
884.329
891.303
898.073
904.637
910.993
917.137
923.067
928.78
934.276
939.553
944.61
949.444
954.052
958.43
962.577
966.489
970.163
973.599
976.794
979.746
982.453
984.912
987.121
989.076
990.777
992.224
993.415
994.349
995.03
995.453
995.622
995.531
995.19
994.598
993.758
992.672
991.341
989.771
987.964
985.925
983.659
981.172
978.468
975.554
972.436
969.12
965.612
961.918
958.045
954
949.789
945.419
940.898
936.232
931.425
926.489
921.427
916.25
910.969
905.593
900.131
894.592
888.983
883.311
877.582
871.803
865.982
860.125
854.242
848.342
842.434
836.528
830.633
824.756
818.905
813.092
807.325
801.617
795.983
790.44
785.009
779.708
774.582
769.614
764.141
11463.3
1945.28
766.836
483.968
380.06
333.809
310.311
297.282
289.673
285.592
284.038
284.367
287.424
293.255
301.8
312.799
325.931
341.209
358.289
376.592
395.52
414.5
432.972
450.686
467.915
484.603
498.354
506.634
510.615
512.094
512.14
510.392
507.383
503.803
499.995
496.156
492.315
488.458
484.573
480.705
476.965
473.521
470.56
468.265
466.89
466.418
466.868
468.436
470.937
474.36
478.683
483.874
489.876
496.575
503.86
511.868
520.586
529.961
539.931
550.439
561.462
572.938
584.791
596.968
609.425
622.106
634.956
647.947
660.983
673.969
686.832
699.5
711.948
724.158
736.113
747.807
759.243
770.441
781.437
792.26
802.923
813.435
823.804
834.021
844.064
853.91
863.534
872.928
882.087
891.011
899.699
908.152
916.374
924.36
932.11
939.621
946.897
953.937
960.742
967.307
973.632
979.714
985.551
991.144
996.493
1001.6
1006.45
1011.06
1015.41
1019.51
1023.35
1026.94
1030.26
1033.31
1036.1
1038.63
1040.89
1042.88
1044.59
1046.03
1047.19
1048.07
1048.68
1049.02
1049.07
1048.86
1048.36
1047.6
1046.57
1045.27
1043.7
1041.88
1039.8
1037.47
1034.9
1032.08
1029.03
1025.75
1022.25
1018.53
1014.6
1010.47
1006.15
1001.64
996.947
992.084
987.057
981.874
976.541
971.066
965.458
959.718
953.862
947.904
941.853
935.718
929.506
923.225
916.883
910.484
904.036
897.545
891.02
884.471
877.91
871.348
864.794
858.257
851.743
845.261
838.819
832.428
826.1
819.85
813.695
807.653
801.737
795.986
790.4
784.176
11463.3
1888.54
750.376
483.199
388.085
345.943
325.282
314.374
308.675
306.255
305.826
307.919
312.541
319.38
328.133
338.488
350.182
362.963
376.479
390.335
404.137
417.83
431.564
444.867
456.185
464.161
469.739
473.615
475.694
476.561
476.731
476.091
474.866
473.336
471.622
469.789
467.871
465.915
464.006
462.295
461.027
460.292
460.092
460.589
461.917
464.05
466.915
470.304
474.598
479.867
486.116
493.321
501.45
510.489
520.449
531.246
542.848
555.174
568.149
581.705
595.786
610.311
625.188
640.348
655.757
671.319
686.892
702.343
717.584
732.553
747.178
761.394
775.162
788.46
801.284
813.639
825.556
837.107
848.397
859.52
870.481
881.304
892.019
902.603
913.014
923.207
933.127
942.77
952.146
961.249
970.079
978.638
986.927
994.946
1002.69
1010.17
1017.38
1024.32
1031
1037.42
1043.57
1049.46
1055.08
1060.43
1065.51
1070.33
1074.89
1079.18
1083.2
1086.95
1090.42
1093.62
1096.54
1099.18
1101.54
1103.62
1105.42
1106.94
1108.16
1109.09
1109.74
1110.09
1110.14
1109.93
1109.41
1108.6
1107.51
1106.13
1104.48
1102.55
1100.34
1097.86
1095.11
1092.11
1088.84
1085.33
1081.58
1077.59
1073.37
1068.93
1064.27
1059.41
1054.35
1049.09
1043.65
1038.04
1032.26
1026.33
1020.25
1014.02
1007.67
1001.18
994.585
987.891
981.109
974.246
967.309
960.304
953.24
946.124
938.962
931.759
924.522
917.268
910.012
902.762
895.528
888.317
881.135
873.991
866.89
859.843
852.867
845.976
839.187
832.514
825.967
819.578
813.379
806.443
11463.3
1848.61
744.582
489.002
399.079
359.496
340.105
329.959
324.84
322.823
322.615
325.084
329.723
336.06
343.667
352.225
361.52
371.343
381.458
391.733
402.305
412.37
421.018
428.197
434.13
439.249
443.309
446.546
449.106
451.203
452.999
454.592
455.896
456.968
457.868
458.658
459.398
460.153
460.982
461.902
462.781
464.123
466.215
469.318
473.445
478.542
484.624
491.821
500.067
509.389
519.802
531.263
543.722
557.144
571.501
586.729
602.884
619.725
637.111
654.931
673.081
691.453
709.933
728.407
746.725
764.794
782.55
799.891
816.711
832.903
848.359
863.044
876.942
890.078
902.483
914.158
925.155
935.641
945.894
956.204
966.41
976.564
986.776
996.954
1007
1016.84
1026.43
1035.77
1044.82
1053.57
1062.01
1070.15
1077.98
1085.51
1092.72
1099.64
1106.26
1112.59
1118.64
1124.4
1129.88
1135.07
1139.98
1144.61
1148.96
1153.03
1156.83
1160.35
1163.6
1166.56
1169.25
1171.65
1173.77
1175.6
1177.15
1178.41
1179.4
1180.09
1180.48
1180.57
1180.39
1179.9
1179.1
1178.02
1176.65
1174.99
1173.03
1170.79
1168.27
1165.47
1162.38
1159.02
1155.39
1151.5
1147.35
1142.95
1138.31
1133.43
1128.32
1122.99
1117.44
1111.69
1105.74
1099.6
1093.27
1086.78
1080.12
1073.32
1066.36
1059.28
1052.07
1044.77
1037.38
1029.9
1022.33
1014.69
1006.98
999.2
991.368
983.488
975.57
967.617
959.635
951.648
943.669
935.706
927.765
919.854
911.979
904.147
896.362
888.639
880.996
873.448
866.009
858.693
851.506
844.47
837.661
830.05
11463.3
1831.63
744.783
497.446
408.965
370.362
351.657
341.452
336.086
333.876
333.506
335.518
339.395
344.614
350.756
357.577
364.959
372.809
380.836
388.648
396.071
403.159
410.033
416.482
422.583
428.406
433.914
439.144
444.049
448.601
452.716
456.169
459.371
462.484
465.592
468.774
472.117
475.712
479.66
484.089
489.261
495.298
502.445
510.972
520.667
531.423
543.28
556.301
570.434
585.689
602.195
619.767
638.224
657.433
677.27
697.585
718.153
738.954
759.893
780.859
801.742
822.437
842.845
862.875
882.44
901.468
919.898
937.662
954.678
970.84
985.941
1000.07
1013.29
1025.67
1037.3
1048.21
1058.45
1068.04
1077.11
1085.83
1094.28
1102.77
1111.75
1120.82
1129.77
1138.51
1147.02
1155.27
1163.2
1170.79
1178.05
1184.98
1191.58
1197.83
1203.74
1209.32
1214.6
1219.57
1224.25
1228.65
1232.75
1236.56
1240.09
1243.34
1246.31
1249.01
1251.46
1253.63
1255.53
1257.18
1258.55
1259.64
1260.46
1261.01
1261.29
1261.29
1261.07
1260.53
1259.69
1258.58
1257.19
1255.52
1253.56
1251.32
1248.81
1246.01
1242.94
1239.59
1235.97
1232.08
1227.91
1223.48
1218.79
1213.85
1208.66
1203.23
1197.57
1191.68
1185.56
1179.24
1172.71
1165.97
1159.05
1151.95
1144.67
1137.24
1129.64
1121.91
1114.04
1106.05
1097.94
1089.75
1081.49
1073.14
1064.72
1056.22
1047.65
1039.03
1030.35
1021.64
1012.9
1004.15
995.407
986.675
977.959
969.264
960.598
951.968
943.381
934.846
926.363
917.954
909.638
901.427
893.333
885.369
877.54
869.858
862.443
854.198
11463.3
1820.02
748.035
502.885
415.375
377.759
359.207
348.8
343.231
340.85
340.357
342.075
345.601
350.463
356.21
362.651
369.601
376.899
384.517
392.483
400.455
408.334
416.219
424.078
431.959
439.896
447.899
455.984
464.006
471.961
479.916
488.023
496.296
504.817
513.674
522.961
532.781
543.241
554.44
566.498
579.554
593.615
608.667
624.521
641.237
658.905
677.569
697.275
717.935
739.378
761.361
784.037
807.189
830.583
854.035
877.379
900.451
923.144
945.342
966.947
987.883
1008.1
1027.57
1046.26
1064.16
1081.25
1097.55
1113.06
1127.76
1141.68
1154.82
1167.13
1178.59
1189.4
1199.64
1209.37
1218.58
1227.13
1235
1242.11
1248.92
1255.97
1263.18
1270.24
1277.03
1283.52
1289.69
1295.52
1301.02
1306.18
1311.01
1315.51
1319.7
1323.54
1327.06
1330.27
1333.23
1335.92
1338.35
1340.53
1342.46
1344.13
1345.56
1346.75
1347.71
1348.45
1348.97
1349.27
1349.32
1349.18
1348.82
1348.19
1347.33
1346.25
1344.93
1343.39
1341.61
1339.59
1337.32
1334.8
1332.03
1329.01
1325.74
1322.22
1318.46
1314.45
1310.19
1305.68
1300.93
1295.93
1290.68
1285.2
1279.47
1273.53
1267.35
1260.96
1254.36
1247.55
1240.54
1233.33
1225.93
1218.35
1210.6
1202.67
1194.59
1186.35
1177.98
1169.46
1160.82
1152.06
1143.18
1134.2
1125.13
1115.97
1106.74
1097.43
1088.05
1078.62
1069.15
1059.64
1050.1
1040.56
1031.05
1021.55
1012.07
1002.62
993.197
983.817
974.487
965.22
956.039
946.955
937.977
929.112
920.37
911.764
903.301
894.985
886.976
878.145
11463.3
1811.67
750.891
506.07
418.728
383.101
365.082
355.309
351.076
349.61
350.127
353.125
357.808
363.774
370.994
379.652
389.036
398.866
409.69
421.669
434.345
447.34
461.017
475.402
490.475
506.206
522.566
539.491
557
575.1
593.81
613.157
633.04
653.451
674.423
696.018
718.34
741.548
765.576
790.322
815.682
841.508
867.64
893.883
920.202
946.619
973.202
1000.35
1027.73
1054.75
1081.01
1106.13
1130.17
1153.13
1174.98
1195.66
1215.13
1233.32
1250.25
1265.93
1280.42
1293.76
1306.02
1317.29
1327.6
1337.03
1345.65
1353.53
1360.74
1367.42
1373.87
1380.09
1386.12
1391.9
1397.36
1402.47
1407.14
1411.3
1415.25
1419.26
1423.63
1427.98
1431.69
1434.86
1437.63
1440.05
1442.19
1444.05
1445.67
1447.04
1448.15
1449.01
1449.61
1449.98
1450.08
1450
1449.81
1449.41
1448.85
1448.12
1447.23
1446.17
1444.96
1443.6
1442.1
1440.46
1438.68
1436.76
1434.68
1432.44
1430.05
1427.49
1424.77
1421.88
1418.83
1415.6
1412.19
1408.6
1404.81