/*--------------------------------*- C++ -*----------------------------------*\
  =========                 |
  \\      /  F ield         | OpenFOAM: The Open Source CFD Toolbox
   \\    /   O peration     | Website:  https://openfoam.org
    \\  /    A nd           | Version:  8
     \\/     M anipulation  |
\*---------------------------------------------------------------------------*/
FoamFile
{
    version     2.0;
    format      ascii;
    class       volScalarField;
    location    "800";
    object      p;
}
// * * * * * * * * * * * * * * * * * * * * * * * * * * * * * * * * * * * * * //

dimensions      [0 2 -2 0 0 0 0];

internalField   nonuniform List<scalar> 
12225
(
-4.20443
-5.08456
-5.47472
-5.60281
-5.73693
-5.89093
-6.01961
-6.11919
-6.2071
-6.28917
-6.36575
-6.43889
-6.50887
-6.57689
-6.64678
-6.71825
-6.79767
-6.88485
-4.46614
-5.10736
-5.43944
-5.56698
-5.69766
-5.85197
-5.98509
-6.08572
-6.17408
-6.25765
-6.33641
-6.41218
-6.48618
-6.55611
-6.62398
-6.69691
-6.76927
-6.82841
-4.66968
-5.10851
-5.42356
-5.57527
-5.71015
-5.85894
-5.98858
-6.08914
-6.17655
-6.25861
-6.33621
-6.41088
-6.48286
-6.55043
-6.61496
-6.68052
-6.74359
-6.79296
-4.81934
-5.13708
-5.43414
-5.59322
-5.72059
-5.85708
-5.98026
-6.07966
-6.16606
-6.24696
-6.32389
-6.39741
-6.46752
-6.53372
-6.5969
-6.65864
-6.71606
-6.76181
-4.95061
-5.18684
-5.45179
-5.6094
-5.73095
-5.8585
-5.977
-6.0756
-6.1614
-6.24137
-6.3173
-6.38926
-6.4574
-6.52175
-6.58272
-6.64043
-6.69274
-6.73512
-5.06938
-5.24304
-5.46971
-5.62347
-5.74196
-5.86223
-5.97559
-6.07237
-6.1571
-6.23579
-6.3102
-6.38034
-6.44645
-6.50869
-6.56713
-6.62136
-6.66989
-6.71018
-5.17656
-5.30229
-5.49169
-5.63828
-5.7532
-5.86614
-5.97373
-6.06805
-6.1515
-6.22883
-6.30166
-6.3701
-6.43432
-6.49451
-6.55056
-6.60196
-6.64779
-6.68671
-5.25892
-5.35468
-5.51528
-5.65266
-5.76336
-5.87008
-5.9725
-6.06423
-6.14625
-6.22218
-6.29351
-6.36039
-6.42295
-6.48133
-6.53541
-6.58477
-6.62884
-6.66678
-5.32594
-5.40168
-5.53883
-5.66661
-5.77302
-5.8743
-5.972
-6.06109
-6.14154
-6.21603
-6.28587
-6.35126
-6.41228
-6.46904
-6.52144
-6.5692
-6.61195
-6.64917
-5.39271
-5.45213
-5.56677
-5.68322
-5.78433
-5.87984
-5.97235
-6.05819
-6.13659
-6.20926
-6.27732
-6.34099
-6.4003
-6.45532
-6.50601
-6.55221
-6.59371
-6.6302
-5.45833
-5.50466
-5.59883
-5.70272
-5.79737
-5.88682
-5.97373
-6.05572
-6.13152
-6.20199
-6.26796
-6.32967
-6.38711
-6.44029
-6.48927
-6.53391
-6.57422
-6.61
-5.52167
-5.55777
-5.63419
-5.72497
-5.81208
-5.89519
-5.97626
-6.05383
-6.12648
-6.19434
-6.25795
-6.31746
-6.37286
-6.42415
-6.47137
-6.51453
-6.55368
-6.58874
-5.58144
-5.60974
-5.6714
-5.74936
-5.82816
-5.9047
-5.97981
-6.05256
-6.12156
-6.18647
-6.24743
-6.30456
-6.35778
-6.40714
-6.45262
-6.49434
-6.53235
-6.56669
-5.63615
-5.65855
-5.70841
-5.77466
-5.84492
-5.91481
-5.98401
-6.05175
-6.11679
-6.17842
-6.23657
-6.29116
-6.34218
-6.38955
-6.43338
-6.47368
-6.51063
-6.54422
-5.68373
-5.70181
-5.7426
-5.7989
-5.86108
-5.92454
-5.98813
-6.05098
-6.11195
-6.17024
-6.22548
-6.27755
-6.32635
-6.37185
-6.41406
-6.45306
-6.48896
-6.52185
-5.72145
-5.73647
-5.77072
-5.81926
-5.87457
-5.93235
-5.99097
-6.04943
-6.10664
-6.16174
-6.21426
-6.26396
-6.3107
-6.35445
-6.39519
-6.433
-6.46797
-6.50021
-5.74534
-5.75842
-5.78853
-5.83192
-5.88236
-5.93589
-5.99075
-6.04582
-6.10005
-6.15256
-6.20284
-6.25057
-6.29562
-6.33792
-6.37744
-6.41427
-6.44847
-6.48018
-5.7491
-5.76157
-5.79034
-5.83198
-5.88053
-5.9323
-5.98545
-6.03896
-6.09169
-6.14288
-6.19189
-6.23853
-6.28255
-6.32398
-6.36274
-6.39897
-6.43268
-6.46408
-5.73239
-5.74556
-5.77587
-5.81921
-5.86913
-5.92175
-5.97556
-6.02946
-6.08249
-6.1337
-6.18269
-6.22911
-6.27297
-6.31411
-6.35267
-6.38865
-6.42223
-6.45347
-5.70042
-5.7155
-5.74985
-5.79783
-5.85154
-5.90705
-5.96317
-6.01907
-6.07358
-6.12592
-6.17563
-6.22261
-6.26676
-6.30813
-6.34676
-6.38281
-6.41637
-6.44767
-5.65647
-5.67479
-5.71591
-5.77117
-5.83047
-5.89014
-5.94984
-6.00877
-6.06567
-6.11973
-6.17072
-6.21862
-6.26342
-6.30521
-6.34411
-6.38031
-6.41397
-6.44532
-5.60233
-5.6258
-5.67701
-5.74198
-5.80793
-5.87254
-5.93666
-5.99939
-6.05916
-6.1153
-6.16786
-6.21689
-6.2625
-6.30479
-6.34402
-6.38038
-6.41415
-6.44554
-5.53898
-5.57038
-5.63582
-5.71246
-5.78536
-5.85532
-5.92455
-5.99148
-6.0543
-6.11267
-6.1669
-6.21717
-6.2636
-6.30643
-6.34592
-6.38244
-6.41623
-6.44763
-5.46642
-5.51037
-5.59515
-5.68431
-5.76353
-5.83918
-5.91411
-5.98542
-6.05123
-6.11178
-6.16768
-6.21914
-6.26633
-6.30959
-6.3493
-6.38586
-6.41965
-6.45101
-5.38418
-5.44761
-5.55791
-5.659
-5.74294
-5.82436
-5.90537
-5.98107
-6.04974
-6.11242
-6.16992
-6.22247
-6.27028
-6.31378
-6.3535
-6.38993
-6.42351
-6.45468
-5.29159
-5.38389
-5.52569
-5.63713
-5.72434
-5.81125
-5.89787
-5.97734
-6.04857
-6.11332
-6.17247
-6.22619
-6.2747
-6.31855
-6.35832
-6.39464
-6.42803
-6.45916
-5.18849
-5.32326
-5.49597
-5.61402
-5.70564
-5.79958
-5.89164
-5.97423
-6.0475
-6.11392
-6.17434
-6.22886
-6.27781
-6.32176
-6.3614
-6.39748
-6.43061
-6.46158
-5.06548
-5.2779
-5.47191
-5.58487
-5.68135
-5.786
-5.88607
-5.97358
-6.05053
-6.11991
-6.18251
-6.23844
-6.28813
-6.33228
-6.37161
-6.40714
-6.4399
-6.47136
-4.88056
-5.25467
-5.48008
-5.57631
-5.66823
-5.77714
-5.8805
-5.96954
-6.04788
-6.11881
-6.18285
-6.2399
-6.29033
-6.33477
-6.37383
-6.40815
-6.43901
-6.46773
-4.62321
-5.18074
-5.47045
-5.57623
-5.67563
-5.7931
-5.90217
-5.99412
-6.07391
-6.14566
-6.21016
-6.26739
-6.31769
-6.36168
-6.39975
-6.43159
-6.45806
-6.47951
-7.41703
-7.41714
-7.41718
-7.41715
-7.41682
-7.41561
-7.41312
-7.40983
-7.4067
-7.40475
-7.40494
-7.40746
-7.41181
-7.41721
-7.4229
-7.42819
-7.43255
-7.43555
-7.43717
-7.43775
-7.43757
-7.43683
-7.43577
-7.43467
-7.43378
-7.43321
-7.43293
-7.43277
-7.43257
-7.4322
-7.43165
-7.43095
-7.43003
-7.42882
-7.42737
-7.42598
-7.42524
-7.42583
-7.42783
-7.43063
-7.43334
-7.43551
-7.43732
-7.43918
-7.44149
-7.4447
-7.4484
-7.45155
-7.45388
-7.45762
-7.46666
-7.48505
-7.51257
-7.54742
-7.58904
-7.63912
-7.69772
-7.76296
-7.83315
-7.90612
-7.97975
-8.05207
-8.1221
-8.18897
-8.25158
-8.30956
-8.36275
-8.41108
-8.4546
-8.49337
-8.52749
-8.55703
-8.58206
-8.60261
-8.61872
-8.6304
-8.63764
-8.64041
-8.63871
-8.63246
-8.62166
-8.60621
-8.58612
-8.56128
-8.53171
-8.49733
-8.4582
-8.41425
-8.36544
-8.31165
-8.25276
-8.18873
-8.11957
-8.04528
-7.96585
-7.88126
-7.79152
-7.69672
-7.59698
-7.49229
-7.38224
-7.26654
-7.14529
-7.01862
-6.88652
-6.74901
-6.60608
-6.45773
-6.30395
-6.14477
-5.9802
-5.81029
-5.63505
-5.45456
-5.26886
-5.07805
-4.88219
-4.68141
-4.4758
-4.2655
-4.05063
-3.83137
-3.60785
-3.38026
-3.14878
-2.91361
-2.67496
-2.43302
-2.18803
-1.94023
-1.68987
-1.4372
-1.18245
-0.925886
-0.66779
-0.408513
-0.148309
0.112927
0.375078
0.637737
0.900589
1.16338
1.42584
1.68778
1.94896
2.20919
2.46823
2.72594
2.98213
3.23665
3.4893
3.73989
3.98826
4.23424
4.47768
4.71845
4.95642
5.19148
5.42353
5.6525
5.87828
6.10081
6.32
6.53578
6.74806
6.95679
7.16189
7.36329
7.56095
7.7548
7.94478
8.13082
8.31285
8.4908
8.66461
8.83426
9.0001
9.16199
9.32303
9.47466
-7.41823
-7.41841
-7.41876
-7.41912
-7.41909
-7.41827
-7.41638
-7.41397
-7.41227
-7.41223
-7.41413
-7.4178
-7.42273
-7.42826
-7.43379
-7.4388
-7.44294
-7.446
-7.4478
-7.44813
-7.4471
-7.44502
-7.44234
-7.43953
-7.43702
-7.43508
-7.43375
-7.43287
-7.43218
-7.43153
-7.43092
-7.43032
-7.42965
-7.42883
-7.42781
-7.42698
-7.42706
-7.42854
-7.43122
-7.43419
-7.43631
-7.43723
-7.43736
-7.43675
-7.43559
-7.43542
-7.43861
-7.44528
-7.45186
-7.45894
-7.47007
-7.48622
-7.50866
-7.5406
-7.58513
-7.64108
-7.70543
-7.7759
-7.84985
-7.92494
-7.99914
-8.07142
-8.14038
-8.20469
-8.26439
-8.31949
-8.36996
-8.41586
-8.45727
-8.49428
-8.52695
-8.55534
-8.57946
-8.59934
-8.61497
-8.62631
-8.63335
-8.63604
-8.63434
-8.62818
-8.61753
-8.6023
-8.58246
-8.55793
-8.5287
-8.49471
-8.45597
-8.41246
-8.36414
-8.31089
-8.25259
-8.18922
-8.12076
-8.04723
-7.9686
-7.88485
-7.79595
-7.70183
-7.6024
-7.49753
-7.3874
-7.27213
-7.15164
-7.02581
-6.8946
-6.75799
-6.61598
-6.46855
-6.31571
-6.15746
-5.99383
-5.82485
-5.65055
-5.47098
-5.28622
-5.09631
-4.90137
-4.70147
-4.49674
-4.28729
-4.07326
-3.8548
-3.63206
-3.40523
-3.17449
-2.94002
-2.70203
-2.46073
-2.21633
-1.96909
-1.71925
-1.46704
-1.21269
-0.956418
-0.698422
-0.438932
-0.178237
0.0832041
0.345191
0.607677
0.870379
1.13304
1.39542
1.65729
1.91845
2.17867
2.43775
2.69551
2.9518
3.20644
3.45923
3.71001
3.95858
4.20478
4.44847
4.68951
4.92777
5.16313
5.3955
5.62479
5.8509
6.07377
6.29331
6.50945
6.72211
6.93121
7.1367
7.3385
7.53656
7.73082
7.92123
8.10772
8.29027
8.46884
8.64336
8.81383
8.98046
9.14271
9.30578
9.45673
-7.41952
-7.41951
-7.41954
-7.4196
-7.41968
-7.41973
-7.41998
-7.42094
-7.42309
-7.42655
-7.43113
-7.43645
-7.4421
-7.44765
-7.45271
-7.45699
-7.46029
-7.4625
-7.46354
-7.46336
-7.46198
-7.45952
-7.45618
-7.45215
-7.44768
-7.44306
-7.43859
-7.43453
-7.43109
-7.42836
-7.42627
-7.42461
-7.4231
-7.42178
-7.4211
-7.42173
-7.42418
-7.42821
-7.43249
-7.43522
-7.4351
-7.43304
-7.43111
-7.43084
-7.4317
-7.43361
-7.43906
-7.44932
-7.46372
-7.48291
-7.50777
-7.53835
-7.57499
-7.61838
-7.6689
-7.72542
-7.78619
-7.84976
-7.91462
-7.97955
-8.04352
-8.10585
-8.16581
-8.22266
-8.27614
-8.32607
-8.37232
-8.41484
-8.45356
-8.48846
-8.51949
-8.54664
-8.56985
-8.58907
-8.60426
-8.61534
-8.62227
-8.62496
-8.62336
-8.6174
-8.60701
-8.59211
-8.57266
-8.54858
-8.51982
-8.48635
-8.44815
-8.4052
-8.35747
-8.30485
-8.24723
-8.18457
-8.11687
-8.04414
-7.96635
-7.88349
-7.79556
-7.70251
-7.60423
-7.50059
-7.39164
-7.27745
-7.15801
-7.03327
-6.90319
-6.76772
-6.62688
-6.48063
-6.32898
-6.17194
-6.00953
-5.84176
-5.66868
-5.49032
-5.30677
-5.11807
-4.92431
-4.72559
-4.52201
-4.3137
-4.10079
-3.88341
-3.66174
-3.43594
-3.20618
-2.97267
-2.7356
-2.49518
-2.25163
-2.00519
-1.7561
-1.50459
-1.2509
-0.995269
-0.737906
-0.479036
-0.218922
0.042057
0.30368
0.56581
0.828187
1.09056
1.35269
1.61435
1.87534
2.13543
2.39442
2.65214
2.90841
3.16306
3.4159
3.66675
3.91543
4.16177
4.40563
4.64686
4.88532
5.12091
5.35351
5.58304
5.8094
6.03252
6.25231
6.46871
6.68162
6.89097
7.09671
7.29875
7.49704
7.69153
7.88217
8.06888
8.25161
8.43031
8.60503
8.77579
8.94315
9.10599
9.27177
9.41866
-7.42066
-7.42038
-7.42002
-7.42004
-7.42124
-7.42401
-7.42815
-7.43327
-7.43906
-7.44518
-7.45136
-7.45732
-7.46286
-7.46778
-7.47192
-7.47514
-7.47735
-7.47847
-7.47848
-7.47736
-7.47511
-7.47181
-7.46755
-7.46242
-7.4565
-7.44995
-7.44295
-7.43579
-7.42884
-7.42247
-7.41692
-7.4124
-7.40918
-7.40773
-7.40875
-7.41245
-7.41778
-7.42281
-7.4261
-7.42732
-7.42703
-7.42676
-7.42807
-7.4317
-7.4381
-7.44802
-7.46232
-7.4817
-7.50628
-7.53576
-7.56967
-7.60767
-7.6495
-7.69499
-7.74398
-7.79607
-7.85062
-7.9069
-7.96406
-8.02135
-8.07803
-8.13349
-8.1872
-8.23868
-8.28758
-8.33364
-8.37669
-8.41656
-8.45313
-8.48632
-8.51601
-8.54211
-8.56455
-8.58322
-8.59804
-8.60891
-8.61574
-8.61845
-8.61695
-8.61115
-8.601
-8.5864
-8.56729
-8.5436
-8.51527
-8.48226
-8.44455
-8.40211
-8.35493
-8.30288
-8.24587
-8.18386
-8.11685
-8.04483
-7.96779
-7.88569
-7.79853
-7.70625
-7.60879
-7.5061
-7.39817
-7.28501
-7.1666
-7.04291
-6.91388
-6.77951
-6.63976
-6.49463
-6.34412
-6.18822
-6.02695
-5.86034
-5.68841
-5.51121
-5.32879
-5.14123
-4.9486
-4.75099
-4.54851
-4.34127
-4.12941
-3.91306
-3.69239
-3.46756
-3.23875
-3.00614
-2.76994
-2.53035
-2.2876
-2.04192
-1.79354
-1.54271
-1.28965
-1.03461
-0.777812
-0.519511
-0.259955
0.000564313
0.261826
0.523614
0.78568
1.04777
1.30967
1.57114
1.83196
2.09193
2.35084
2.60851
2.86476
3.11942
3.37229
3.6232
3.87197
4.11844
4.36244
4.60384
4.84248
5.07827
5.31109
5.54083
5.76742
5.99076
6.21079
6.42741
6.64055
6.85013
7.05608
7.25833
7.45682
7.65149
7.84229
8.02918
8.2121
8.39103
8.56602
8.73706
8.90486
9.06769
9.23421
9.37485
-7.42299
-7.4224
-7.42203
-7.4235
-7.42779
-7.43417
-7.44155
-7.44924
-7.45677
-7.46382
-7.47026
-7.476
-7.481
-7.4852
-7.4885
-7.49084
-7.49213
-7.49234
-7.49143
-7.48939
-7.48621
-7.48195
-7.47664
-7.47033
-7.46309
-7.45499
-7.44613
-7.43672
-7.42709
-7.41773
-7.40925
-7.40246
-7.39829
-7.39768
-7.40054
-7.40505
-7.4096
-7.4135
-7.41664
-7.41945
-7.42267
-7.4274
-7.43462
-7.44531
-7.46029
-7.47984
-7.50355
-7.53087
-7.56156
-7.59529
-7.63179
-7.67101
-7.71286
-7.75728
-7.80408
-7.85293
-7.90335
-7.95484
-8.00683
-8.05878
-8.11018
-8.16057
-8.20956
-8.25676
-8.30189
-8.34468
-8.38492
-8.42244
-8.45706
-8.48865
-8.51705
-8.54215
-8.5638
-8.58188
-8.59626
-8.60684
-8.61349
-8.6161
-8.61459
-8.60885
-8.5988
-8.58436
-8.56546
-8.54201
-8.51396
-8.48126
-8.44389
-8.40183
-8.35504
-8.30341
-8.24686
-8.18535
-8.1189
-8.04747
-7.97105
-7.88962
-7.80314
-7.71157
-7.61485
-7.51297
-7.40588
-7.29359
-7.17605
-7.05325
-6.92513
-6.79168
-6.65286
-6.50868
-6.35911
-6.20419
-6.04388
-5.87824
-5.70726
-5.53103
-5.34956
-5.16295
-4.97124
-4.77455
-4.57295
-4.36659
-4.15558
-3.94007
-3.7202
-3.49614
-3.26808
-3.03619
-2.80068
-2.56175
-2.31962
-2.07454
-1.82672
-1.57641
-1.32384
-1.06924
-0.812872
-0.554971
-0.295798
-0.0356049
0.225366
0.486892
0.748709
1.01059
1.2723
1.53362
1.79431
2.05419
2.31303
2.57067
2.82692
3.08159
3.3345
3.58546
3.83431
4.08088
4.32499
4.56652
4.80532
5.04127
5.27425
5.50418
5.73096
5.9545
6.17473
6.39155
6.60489
6.81466
7.02081
7.22326
7.42194
7.61681
7.80781
7.99488
8.17799
8.35712
8.5323
8.70345
8.87125
9.03343
9.19942
9.33327
-7.42728
-7.42638
-7.42694
-7.43151
-7.43904
-7.44759
-7.45624
-7.46451
-7.47213
-7.479
-7.48514
-7.49051
-7.49507
-7.49876
-7.50148
-7.50319
-7.50383
-7.50336
-7.50176
-7.49902
-7.49514
-7.49016
-7.48408
-7.4769
-7.46863
-7.45937
-7.44925
-7.43847
-7.42741
-7.41674
-7.40726
-7.40022
-7.39662
-7.39627
-7.39777
-7.40005
-7.40306
-7.40715
-7.41262
-7.4194
-7.42775
-7.4389
-7.45382
-7.47263
-7.49507
-7.52076
-7.5494
-7.58062
-7.61419
-7.64993
-7.68768
-7.72737
-7.76888
-7.81211
-7.85686
-7.90289
-7.94987
-7.99746
-8.04529
-8.093
-8.14022
-8.18662
-8.23189
-8.27571
-8.31782
-8.35796
-8.39592
-8.43149
-8.46448
-8.49472
-8.52202
-8.54623
-8.56718
-8.58471
-8.59868
-8.60894
-8.61537
-8.61783
-8.61623
-8.61045
-8.6004
-8.586
-8.56717
-8.54383
-8.51592
-8.48339
-8.4462
-8.40435
-8.3578
-8.30645
-8.2502
-8.18904
-8.12297
-8.05197
-7.97603
-7.89511
-7.80917
-7.71816
-7.62206
-7.52081
-7.4144
-7.30279
-7.18596
-7.06387
-6.93648
-6.80377
-6.66571
-6.52229
-6.3735
-6.21933
-6.05981
-5.89493
-5.72473
-5.54925
-5.36853
-5.18264
-4.99166
-4.79566
-4.59476
-4.38906
-4.17869
-3.9638
-3.74453
-3.52105
-3.29353
-3.06216
-2.82715
-2.58869
-2.34702
-2.10235
-1.85493
-1.60498
-1.35275
-1.09847
-0.842395
-0.58477
-0.325849
-0.0658794
0.194888
0.456221
0.717864
0.979593
1.24117
1.50236
1.76296
2.02277
2.28157
2.53918
2.79542
3.0501
3.30303
3.55403
3.80293
4.04956
4.29375
4.53536
4.77425
5.01031
5.24342
5.47347
5.70038
5.92406
6.14443
6.3614
6.57488
6.78481
6.9911
7.1937
7.39253
7.58753
7.77866
7.96586
8.14909
8.3283
8.5035
8.67454
8.84203
9.00324
9.16842
9.29565
-7.43256
-7.43214
-7.43494
-7.44224
-7.45111
-7.45991
-7.46829
-7.47613
-7.48335
-7.48993
-7.49581
-7.50092
-7.50518
-7.50852
-7.51086
-7.51215
-7.51235
-7.51144
-7.50939
-7.5062
-7.50189
-7.49646
-7.48984
-7.48197
-7.47298
-7.46306
-7.45243
-7.44136
-7.43032
-7.42008
-7.41175
-7.40609
-7.40259
-7.40044
-7.39965
-7.40069
-7.40416
-7.40993
-7.41792
-7.42878
-7.44306
-7.46073
-7.48159
-7.50542
-7.53198
-7.56093
-7.59206
-7.62521
-7.66021
-7.69689
-7.7351
-7.77469
-7.81555
-7.85754
-7.90051
-7.94429
-7.98866
-8.03338
-8.07821
-8.12287
-8.1671
-8.21063
-8.2532
-8.29453
-8.3344
-8.37256
-8.40879
-8.44288
-8.47462
-8.5038
-8.53024
-8.55374
-8.57412
-8.59119
-8.60479
-8.61476
-8.62095
-8.62323
-8.62148
-8.61558
-8.60545
-8.59099
-8.57212
-8.54876
-8.52085
-8.48834
-8.4512
-8.40942
-8.36296
-8.31173
-8.25562
-8.19465
-8.12882
-8.05811
-7.98249
-7.90192
-7.81636
-7.72578
-7.63013
-7.52937
-7.42347
-7.31238
-7.1961
-7.07455
-6.94774
-6.8156
-6.67814
-6.53531
-6.38712
-6.23355
-6.07463
-5.91034
-5.74073
-5.56582
-5.38568
-5.20033
-5.00989
-4.8144
-4.61401
-4.40878
-4.19888
-3.98441
-3.76556
-3.54247
-3.31533
-3.08431
-2.84963
-2.61148
-2.3701
-2.12571
-1.87854
-1.62882
-1.3768
-1.12273
-0.866831
-0.609382
-0.350617
-0.0907962
0.169842
0.43104
0.692572
0.95419
1.21567
1.47679
1.73732
1.99707
2.25584
2.51344
2.76966
3.02433
3.27727
3.52829
3.77721
4.02386
4.26809
4.50974
4.74868
4.98479
5.21795
5.44807
5.67506
5.89884
6.1193
6.33635
6.54993
6.75994
6.96632
7.16899
7.3679
7.56298
7.75418
7.94143
8.12469
8.30387
8.47898
8.64975
8.81677
8.97688
9.14128
9.26235
-7.43663
-7.4375
-7.44295
-7.4513
-7.45981
-7.46798
-7.4758
-7.48323
-7.49018
-7.49655
-7.50225
-7.50719
-7.51127
-7.51442
-7.51656
-7.51764
-7.51762
-7.51649
-7.51422
-7.51082
-7.5063
-7.50058
-7.49357
-7.48543
-7.4764
-7.46662
-7.45633
-7.44597
-7.43628
-7.42798
-7.42135
-7.41582
-7.41098
-7.40755
-7.4064
-7.4078
-7.41225
-7.42022
-7.43179
-7.44683
-7.46507
-7.48628
-7.51023
-7.53663
-7.56526
-7.59591
-7.62838
-7.6625
-7.69812
-7.73507
-7.77321
-7.81242
-7.85258
-7.89358
-7.93526
-7.97749
-8.02011
-8.06293
-8.10577
-8.14841
-8.19063
-8.23223
-8.27296
-8.3126
-8.35093
-8.38772
-8.42276
-8.45582
-8.48668
-8.51513
-8.54096
-8.56395
-8.5839
-8.60062
-8.61392
-8.62363
-8.62959
-8.63166
-8.62971
-8.62364
-8.61334
-8.59873
-8.57972
-8.55622
-8.52819
-8.49558
-8.45834
-8.41649
-8.36999
-8.31874
-8.26265
-8.20172
-8.13599
-8.06542
-7.98998
-7.90963
-7.82433
-7.73403
-7.63869
-7.53827
-7.43273
-7.32203
-7.20614
-7.08502
-6.95863
-6.82693
-6.68991
-6.54754
-6.3998
-6.24669
-6.08821
-5.92437
-5.7552
-5.58072
-5.40098
-5.21604
-5.02597
-4.83086
-4.6308
-4.42591
-4.21631
-4.00213
-3.78355
-3.5607
-3.33379
-3.10298
-2.86849
-2.63052
-2.38931
-2.14508
-1.89804
-1.64845
-1.39655
-1.14257
-0.886778
-0.629421
-0.370741
-0.111002
0.149554
0.410674
0.672132
0.933682
1.1951
1.45616
1.71665
1.97637
2.23512
2.49269
2.7489
3.00356
3.25649
3.50752
3.75644
4.00309
4.24731
4.48896
4.7279
4.96403
5.19722
5.42737
5.6544
5.87822
6.09873
6.31584
6.52945
6.7395
6.94591
7.14862
7.34756
7.54267
7.73389
7.92115
8.10437
8.28346
8.45839
8.62882
8.79528
8.95429
9.11796
9.23348
-7.43775
-7.44029
-7.44728
-7.45531
-7.46314
-7.47081
-7.4783
-7.4855
-7.49231
-7.49861
-7.50427
-7.50918
-7.51324
-7.51637
-7.5185
-7.51958
-7.51958
-7.51846
-7.51621
-7.51283
-7.50827
-7.50246
-7.4955
-7.48762
-7.47902
-7.46995
-7.46084
-7.45216
-7.4443
-7.43724
-7.43079
-7.42486
-7.41985
-7.41674
-7.41637
-7.41927
-7.42583
-7.43611
-7.44986
-7.4669
-7.48698
-7.50982
-7.53517
-7.56276
-7.59239
-7.62384
-7.65692
-7.69145
-7.72728
-7.76426
-7.80228
-7.84119
-7.88088
-7.92123
-7.96211
-8.0034
-8.04497
-8.08666
-8.1283
-8.16972
-8.21074
-8.25117
-8.29079
-8.32942
-8.36683
-8.40282
-8.43715
-8.4696
-8.49995
-8.52796
-8.55341
-8.57608
-8.59575
-8.61222
-8.62529
-8.63477
-8.6405
-8.64233
-8.64016
-8.63385
-8.62332
-8.60847
-8.58922
-8.56549
-8.53722
-8.50437
-8.46692
-8.42487
-8.37821
-8.32681
-8.27062
-8.20962
-8.14387
-8.07332
-7.99795
-7.91769
-7.83252
-7.74238
-7.64722
-7.54702
-7.44171
-7.33128
-7.21566
-7.09485
-6.96876
-6.83739
-6.70069
-6.55866
-6.41125
-6.25849
-6.10033
-5.93683
-5.76796
-5.5938
-5.41434
-5.22969
-5.03987
-4.84501
-4.64516
-4.44048
-4.23106
-4.01706
-3.79861
-3.5759
-3.34909
-3.11839
-2.88399
-2.6461
-2.40496
-2.16078
-1.91379
-1.66424
-1.41238
-1.15844
-0.902673
-0.645342
-0.3867
-0.126992
0.133515
0.3946
0.656009
0.917518
1.17889
1.43991
1.70037
1.96006
2.21878
2.47632
2.7325
2.98713
3.24005
3.49106
3.73996
3.98659
4.23078
4.4724
4.71131
4.94742
5.18059
5.41074
5.63777
5.86161
6.08213
6.29924
6.51286
6.7229
6.92931
7.13201
7.33094
7.52605
7.71726
7.90447
8.08761
8.26656
8.44125
8.61128
8.77716
8.93508
9.09808
9.20876
-7.43436
-7.43828
-7.44543
-7.45292
-7.46043
-7.46793
-7.47533
-7.48252
-7.48937
-7.49577
-7.50158
-7.50667
-7.51093
-7.51427
-7.51661
-7.5179
-7.51808
-7.51713
-7.51503
-7.51176
-7.50731
-7.50172
-7.49516
-7.4879
-7.48022
-7.47241
-7.46472
-7.45723
-7.45001
-7.44318
-7.43688
-7.43148
-7.42759
-7.42595
-7.42714
-7.43156
-7.43943
-7.45082
-7.46557
-7.48351
-7.50439
-7.52794
-7.55389
-7.582
-7.61205
-7.64384
-7.67718
-7.7119
-7.74785
-7.78489
-7.82288
-7.86169
-7.90119
-7.94127
-7.98181
-8.0227
-8.0638
-8.10497
-8.14608
-8.18695
-8.22743
-8.26733
-8.30647
-8.34466
-8.38168
-8.41733
-8.45138
-8.4836
-8.51373
-8.54155
-8.56683
-8.58932
-8.60882
-8.6251
-8.63796
-8.64722
-8.65271
-8.6543
-8.65185
-8.64526
-8.63444
-8.61929
-8.59972
-8.57567
-8.54707
-8.51389
-8.47611
-8.43377
-8.38682
-8.33519
-8.27877
-8.2176
-8.15172
-8.08109
-8.00568
-7.92542
-7.84027
-7.75018
-7.6551
-7.55501
-7.44985
-7.33958
-7.22416
-7.10353
-6.97767
-6.84653
-6.71008
-6.56828
-6.42113
-6.26861
-6.11071
-5.94744
-5.7788
-5.60485
-5.42559
-5.24112
-5.05147
-4.85675
-4.65705
-4.45248
-4.24315
-4.02923
-3.81084
-3.58817
-3.36139
-3.13071
-2.89631
-2.65844
-2.41729
-2.1731
-1.9261
-1.67654
-1.42466
-1.1707
-0.914921
-0.657581
-0.398938
-0.139242
0.121251
0.382314
0.643696
0.905171
1.16651
1.42749
1.68792
1.94757
2.20625
2.46376
2.71989
2.97448
3.22738
3.47837
3.72723
3.9738
4.21793
4.45948
4.69834
4.93439
5.16751
5.39763
5.62464
5.84846
6.06898
6.28606
6.49964
6.70965
6.91601
7.11868
7.31758
7.51266
7.70383
7.89097
8.07399
8.25276
8.42716
8.59676
8.76202
8.91892
9.08125
9.18783
-7.42454
-7.42911
-7.43598
-7.44345
-7.45116
-7.45887
-7.46645
-7.47385
-7.48097
-7.48768
-7.49382
-7.49926
-7.50386
-7.50752
-7.51016
-7.51174
-7.51218
-7.51149
-7.50966
-7.50669
-7.50265
-7.49766
-7.49191
-7.48559
-7.47884
-7.47182
-7.46471
-7.45761
-7.45067
-7.44417
-7.43854
-7.43418
-7.43156
-7.43119
-7.43359
-7.43909
-7.44788
-7.46001
-7.47539
-7.49385
-7.51514
-7.53901
-7.56523
-7.59356
-7.62382
-7.6558
-7.68933
-7.72425
-7.76038
-7.79759
-7.83572
-7.87466
-7.91428
-7.95446
-7.99507
-8.03601
-8.07714
-8.11833
-8.15943
-8.20032
-8.2408
-8.28071
-8.31986
-8.35805
-8.39508
-8.43075
-8.46481
-8.49704
-8.5272
-8.55502
-8.58027
-8.60271
-8.62211
-8.63826
-8.65094
-8.65998
-8.66522
-8.66652
-8.66375
-8.65683
-8.64566
-8.63014
-8.6102
-8.58575
-8.55673
-8.52311
-8.48491
-8.44215
-8.39484
-8.34287
-8.28615
-8.22473
-8.15863
-8.08785
-8.01231
-7.93197
-7.84676
-7.75664
-7.66157
-7.56151
-7.45643
-7.34625
-7.23097
-7.11048
-6.98479
-6.85381
-6.71755
-6.57593
-6.42898
-6.27664
-6.11894
-5.95583
-5.78738
-5.61356
-5.43447
-5.2501
-5.06058
-4.86594
-4.66633
-4.4618
-4.25252
-4.03861
-3.82024
-3.59755
-3.37076
-3.14004
-2.90562
-2.6677
-2.42652
-2.18228
-1.93523
-1.68563
-1.43371
-1.1797
-0.923889
-0.666533
-0.407877
-0.148192
0.112297
0.373333
0.634692
0.896129
1.15743
1.41838
1.67877
1.93838
2.19702
2.45446
2.71054
2.96507
3.21794
3.4689
3.71768
3.96415
4.20819
4.44965
4.68842
4.92438
5.15743
5.38748
5.61445
5.83825
6.05873
6.27576
6.48928
6.69922
6.90553
7.10814
7.30699
7.50202
7.69313
7.88018
8.06306
8.24161
8.41571
8.58484
8.74949
8.90541
9.06709
9.17029
-7.40677
-7.41134
-7.41837
-7.42662
-7.43503
-7.44321
-7.45115
-7.4589
-7.46642
-7.47361
-7.48025
-7.48618
-7.49122
-7.49529
-7.49834
-7.50031
-7.50117
-7.50092
-7.49957
-7.49715
-7.49374
-7.48944
-7.48436
-7.47865
-7.47243
-7.46585
-7.45903
-7.45219
-7.44566
-7.43976
-7.43482
-7.43125
-7.42955
-7.43018
-7.43355
-7.43994
-7.44952
-7.46229
-7.47817
-7.49699
-7.51854
-7.54261
-7.569
-7.59751
-7.62795
-7.66015
-7.69392
-7.72911
-7.76554
-7.80307
-7.84156
-7.8809
-7.92095
-7.96158
-8.00265
-8.04402
-8.08557
-8.12718
-8.16869
-8.20995
-8.2508
-8.29107
-8.33058
-8.36912
-8.40649
-8.44246
-8.47679
-8.50925
-8.53959
-8.56755
-8.59286
-8.6153
-8.63464
-8.65066
-8.66314
-8.67188
-8.67676
-8.67767
-8.6745
-8.66717
-8.65559
-8.63965
-8.61926
-8.59434
-8.56481
-8.53065
-8.49194
-8.44872
-8.401
-8.34865
-8.29158
-8.22985
-8.16351
-8.09252
-8.01683
-7.93636
-7.85105
-7.76087
-7.66577
-7.56572
-7.46067
-7.35058
-7.23538
-7.11503
-6.98946
-6.85864
-6.72253
-6.58109
-6.4343
-6.28214
-6.1246
-5.96166
-5.79335
-5.61968
-5.44069
-5.25643
-5.06699
-4.87243
-4.67286
-4.46838
-4.25913
-4.04523
-3.82686
-3.60416
-3.37734
-3.14659
-2.91212
-2.67415
-2.43292
-2.18863
-1.94155
-1.6919
-1.43993
-1.18588
-0.930042
-0.67267
-0.414015
-0.154336
0.106136
0.367146
0.628468
0.889868
1.15113
1.41204
1.67237
1.93193
2.19049
2.44786
2.70386
2.95832
3.21118
3.46212
3.7108
3.95715
4.20105
4.44239
4.68105
4.9169
5.14986
5.37983
5.60674
5.83051
6.05095
6.2679
6.48134
6.6912
6.89742
7.09996
7.29874
7.49372
7.68478
7.87173
8.05444
8.23275
8.40652
8.57519
8.73924
8.89425
9.05523
9.15577
-7.38068
-7.38509
-7.39304
-7.40269
-7.41209
-7.42082
-7.42918
-7.43743
-7.44565
-7.45361
-7.461
-7.46757
-7.47318
-7.47778
-7.48134
-7.48385
-7.48526
-7.48559
-7.48482
-7.483
-7.48017
-7.47643
-7.47185
-7.46654
-7.46063
-7.45427
-7.44771
-7.44121
-7.43504
-7.42954
-7.42512
-7.42223
-7.42133
-7.42282
-7.42704
-7.43421
-7.44446
-7.45776
-7.47402
-7.49311
-7.51485
-7.53907
-7.56561
-7.5943
-7.62498
-7.65748
-7.69163
-7.72723
-7.76414
-7.80218
-7.84125
-7.88119
-7.92188
-7.96317
-8.00492
-8.047
-8.08927
-8.13159
-8.1738
-8.21574
-8.25725
-8.29817
-8.33829
-8.37743
-8.41535
-8.45183
-8.48662
-8.51945
-8.55003
-8.57807
-8.60334
-8.62563
-8.64477
-8.66052
-8.67263
-8.6809
-8.68526
-8.68567
-8.68203
-8.67427
-8.66229
-8.64595
-8.62512
-8.5997
-8.56956
-8.53475
-8.49547
-8.45182
-8.40373
-8.351
-8.2936
-8.23155
-8.16497
-8.09379
-8.01795
-7.93736
-7.85195
-7.7617
-7.66657
-7.56653
-7.46154
-7.35155
-7.23647
-7.11626
-6.99083
-6.86018
-6.72423
-6.58299
-6.43638
-6.28443
-6.12707
-5.96433
-5.79617
-5.62267
-5.44381
-5.25969
-5.07033
-4.87587
-4.67638
-4.47198
-4.26279
-4.04895
-3.8306
-3.60794
-3.38113
-3.15038
-2.91588
-2.67788
-2.43661
-2.19231
-1.94521
-1.69554
-1.44355
-1.1895
-0.93367
-0.676313
-0.417698
-0.158055
0.102355
0.363308
0.624555
0.885883
1.14707
1.40789
1.66814
1.9276
2.18605
2.44331
2.69918
2.95355
3.20647
3.45746
3.70602
3.95221
4.19596
4.43716
4.67568
4.91142
5.14428
5.37416
5.60102
5.82481
6.04522
6.26207
6.4754
6.68516
6.8913
7.09376
7.29247
7.48741
7.67841
7.86524
8.04777
8.22583
8.39926
8.56747
8.73093
8.88509
9.04534
9.14391
-7.34752
-7.35224
-7.3617
-7.37312
-7.38362
-7.39307
-7.40219
-7.41113
-7.42004
-7.42891
-7.43738
-7.44498
-7.45132
-7.45643
-7.46051
-7.4636
-7.46562
-7.46655
-7.46636
-7.46508
-7.46274
-7.45939
-7.45511
-7.45001
-7.44428
-7.43809
-7.43167
-7.42531
-7.41935
-7.41418
-7.41024
-7.40794
-7.40772
-7.40992
-7.41482
-7.42259
-7.4333
-7.44694
-7.46346
-7.48274
-7.50465
-7.52903
-7.55574
-7.58464
-7.61559
-7.64841
-7.68295
-7.71901
-7.75646
-7.79514
-7.83491
-7.87561
-7.9171
-7.95921
-8.00183
-8.0448
-8.08798
-8.13121
-8.17431
-8.21713
-8.25947
-8.30116
-8.342
-8.38178
-8.42026
-8.45721
-8.49235
-8.52539
-8.55601
-8.58389
-8.60883
-8.63071
-8.64941
-8.66468
-8.67615
-8.68362
-8.68725
-8.68711
-8.6831
-8.67508
-8.6629
-8.64636
-8.62526
-8.59944
-8.5687
-8.53317
-8.49333
-8.44935
-8.40095
-8.3479
-8.29011
-8.22774
-8.16089
-8.08951
-8.01352
-7.93279
-7.84726
-7.7569
-7.66171
-7.56167
-7.45673
-7.34683
-7.23189
-7.11181
-6.98654
-6.85604
-6.72028
-6.57922
-6.43284
-6.28111
-6.12397
-5.96143
-5.79347
-5.62013
-5.44145
-5.25749
-5.0683
-4.87399
-4.67463
-4.47035
-4.26125
-4.04747
-3.82918
-3.60656
-3.3798
-3.14911
-2.91469
-2.67677
-2.43558
-2.19136
-1.94433
-1.69472
-1.4428
-1.18886
-0.933151
-0.675935
-0.417472
-0.157999
0.102228
0.362979
0.624021
0.885134
1.1461
1.40669
1.6667
1.92589
2.18407
2.44104
2.69661
2.9507
3.20351
3.45447
3.70283
3.94881
4.19237
4.43339
4.67176
4.90737
5.14009
5.36987
5.59673
5.82064
6.04109
6.25784
6.47106
6.68073
6.88678
7.08918
7.28784
7.48277
7.67377
7.86049
8.04282
8.22063
8.39372
8.56147
8.72436
8.87771
9.03718
9.13445
-7.31028
-7.31588
-7.32737
-7.34098
-7.35261
-7.36234
-7.37185
-7.38187
-7.39206
-7.40207
-7.41161
-7.42025
-7.42742
-7.43311
-7.4377
-7.44137
-7.44398
-7.44547
-7.4458
-7.44495
-7.44293
-7.43982
-7.4357
-7.43069
-7.42495
-7.41872
-7.41226
-7.40592
-7.40009
-7.39516
-7.39157
-7.3897
-7.38994
-7.39257
-7.39783
-7.40587
-7.41676
-7.4305
-7.44706
-7.46635
-7.48827
-7.51269
-7.53951
-7.56857
-7.59975
-7.63288
-7.66778
-7.70432
-7.74235
-7.7817
-7.82223
-7.86376
-7.90614
-7.94922
-7.99282
-8.03678
-8.08092
-8.12505
-8.16899
-8.21257
-8.25558
-8.29785
-8.33916
-8.37931
-8.41807
-8.45518
-8.49035
-8.52329
-8.5536
-8.58083
-8.60489
-8.62592
-8.64392
-8.6585
-8.66891
-8.675
-8.6775
-8.67675
-8.67253
-8.66456
-8.65256
-8.63619
-8.61518
-8.58948
-8.55915
-8.52429
-8.48492
-8.44101
-8.39246
-8.3391
-8.28093
-8.21819
-8.15099
-8.07931
-8.00302
-7.92202
-7.83623
-7.74565
-7.6503
-7.55014
-7.44515
-7.33523
-7.22031
-7.10026
-6.97506
-6.84463
-6.70899
-6.56806
-6.42184
-6.27024
-6.11328
-5.95088
-5.78308
-5.60986
-5.43134
-5.2475
-5.05847
-4.86428
-4.66505
-4.46085
-4.25183
-4.0381
-3.81986
-3.59728
-3.37057
-3.13995
-2.90562
-2.66781
-2.42671
-2.18258
-1.93564
-1.68614
-1.43436
-1.18058
-0.925051
-0.668042
-0.409793
-0.150572
0.109394
0.369854
0.630594
0.891384
1.15201
1.41224
1.67186
1.93064
2.18837
2.44485
2.69987
2.95327
3.2049
3.45467
3.70241
3.94797
4.19115
4.43184
4.66989
4.90519
5.13763
5.36712
5.59377
5.81767
6.03812
6.25474
6.46783
6.6774
6.88338
7.08572
7.28434
7.47936
7.67046
7.85713
8.03928
8.21684
8.3896
8.55692
8.71928
8.87188
9.03053
9.12714
-7.27252
-7.27934
-7.29332
-7.30885
-7.3208
-7.33098
-7.34158
-7.35274
-7.36402
-7.3751
-7.3857
-7.39532
-7.40331
-7.40968
-7.41492
-7.41923
-7.42244
-7.42446
-7.42522
-7.4247
-7.42289
-7.41986
-7.41568
-7.41052
-7.40456
-7.39809
-7.3914
-7.38487
-7.37891
-7.37391
-7.37028
-7.36838
-7.36856
-7.37109
-7.3762
-7.38401
-7.39463
-7.40807
-7.42431
-7.44331
-7.46501
-7.48931
-7.51613
-7.54532
-7.57673
-7.61018
-7.64553
-7.68262
-7.7213
-7.76141
-7.80276
-7.84514
-7.8884
-7.93233
-7.97676
-8.02151
-8.06636
-8.11111
-8.15557
-8.19955
-8.24286
-8.28531
-8.32671
-8.36684
-8.4055
-8.44244
-8.47739
-8.50999
-8.53963
-8.56541
-8.58741
-8.60657
-8.62338
-8.63763
-8.64866
-8.65587
-8.65908
-8.65846
-8.6542
-8.6462
-8.63416
-8.61774
-8.59665
-8.57096
-8.54105
-8.50687
-8.46796
-8.42409
-8.37539
-8.32177
-8.26335
-8.20034
-8.13287
-8.06089
-7.98433
-7.90309
-7.8171
-7.72639
-7.63095
-7.53078
-7.42578
-7.31591
-7.20105
-7.08111
-6.95603
-6.82578
-6.69032
-6.54961
-6.40359
-6.25222
-6.09548
-5.93331