/*--------------------------------*- C++ -*----------------------------------*\
  =========                 |
  \\      /  F ield         | OpenFOAM: The Open Source CFD Toolbox
   \\    /   O peration     | Website:  https://openfoam.org
    \\  /    A nd           | Version:  8
     \\/     M anipulation  |
\*---------------------------------------------------------------------------*/
FoamFile
{
    version     2.0;
    format      ascii;
    class       volVectorField;
    location    "800";
    object      U;
}
// * * * * * * * * * * * * * * * * * * * * * * * * * * * * * * * * * * * * * //

dimensions      [0 1 -1 0 0 0 0];

internalField   nonuniform List<vector> 
12225
(
(9.7681 0.0515343 0)
(9.32474 0.0977358 0)
(8.89841 0.0940328 0)
(8.50919 0.084856 0)
(8.17267 0.0775218 0)
(7.87421 0.0683289 0)
(7.63094 0.049388 0)
(7.42619 0.0431632 0)
(7.26261 0.0454694 0)
(7.12659 0.0443127 0)
(7.00563 0.0412061 0)
(6.89592 0.022696 0)
(6.80872 0.0049352 0)
(6.7396 0.0106087 0)
(6.67614 0.0124655 0)
(6.63155 -0.00361769 0)
(6.60751 -0.0113769 0)
(6.5983 -0.0103718 0)
(10.0802 0.05699 0)
(10.2288 0.0875766 0)
(10.2991 0.0871901 0)
(10.3168 0.0838645 0)
(10.285 0.0798522 0)
(10.2395 0.0747943 0)
(10.165 0.0716201 0)
(10.0877 0.0655629 0)
(9.98556 0.0582871 0)
(9.88539 0.053318 0)
(9.78204 0.0500116 0)
(9.69259 0.0490863 0)
(9.61183 0.0461661 0)
(9.53889 0.0398426 0)
(9.46153 0.0344041 0)
(9.39365 0.0313085 0)
(9.32745 0.0255803 0)
(9.26951 0.0182123 0)
(10.0184 0.0431058 0)
(10.0769 0.0669683 0)
(10.1268 0.0699963 0)
(10.1617 0.0746653 0)
(10.19 0.079877 0)
(10.2134 0.0817479 0)
(10.2286 0.0796346 0)
(10.2358 0.0771511 0)
(10.2361 0.075152 0)
(10.2323 0.0731934 0)
(10.2251 0.0709376 0)
(10.2155 0.0664029 0)
(10.2019 0.0617878 0)
(10.1867 0.058924 0)
(10.1714 0.0551216 0)
(10.1544 0.0492156 0)
(10.1343 0.0431803 0)
(10.1128 0.0369048 0)
(10.0083 0.0309191 0)
(10.042 0.0566367 0)
(10.0728 0.063642 0)
(10.095 0.0687382 0)
(10.114 0.0726984 0)
(10.132 0.0737932 0)
(10.1477 0.0723185 0)
(10.1603 0.0707107 0)
(10.1713 0.0696034 0)
(10.1813 0.0681734 0)
(10.1905 0.0658964 0)
(10.198 0.0620711 0)
(10.2029 0.0581576 0)
(10.2067 0.0553037 0)
(10.2101 0.051984 0)
(10.2123 0.0475173 0)
(10.2129 0.0428557 0)
(10.212 0.0383195 0)
(10.0051 0.0241804 0)
(10.0292 0.0500022 0)
(10.0533 0.0585021 0)
(10.0714 0.0633251 0)
(10.0866 0.0670316 0)
(10.1013 0.0684365 0)
(10.1145 0.0678035 0)
(10.1257 0.0667911 0)
(10.1358 0.0658565 0)
(10.1456 0.0645742 0)
(10.155 0.0625452 0)
(10.1632 0.05942 0)
(10.1701 0.0560864 0)
(10.1762 0.0531649 0)
(10.1819 0.0499219 0)
(10.1868 0.0460126 0)
(10.1906 0.0418711 0)
(10.1935 0.0377677 0)
(10.0034 0.0192207 0)
(10.0216 0.0432988 0)
(10.0416 0.0527053 0)
(10.0578 0.0577928 0)
(10.0715 0.0617616 0)
(10.0847 0.0636089 0)
(10.0967 0.0635315 0)
(10.1072 0.0627948 0)
(10.1167 0.0618806 0)
(10.1258 0.0605719 0)
(10.1344 0.0586016 0)
(10.1423 0.0558658 0)
(10.1491 0.0528966 0)
(10.1554 0.0499865 0)
(10.1611 0.0468364 0)
(10.1661 0.0433079 0)
(10.1704 0.0396149 0)
(10.1739 0.0359431 0)
(10.0022 0.0153473 0)
(10.016 0.0369874 0)
(10.033 0.0469427 0)
(10.0476 0.0523236 0)
(10.0602 0.0563639 0)
(10.0724 0.0584751 0)
(10.0837 0.0588298 0)
(10.0937 0.058377 0)
(10.1029 0.0575683 0)
(10.1116 0.0563198 0)
(10.1197 0.0544836 0)
(10.1272 0.0520645 0)
(10.1339 0.0493827 0)
(10.14 0.0465997 0)
(10.1456 0.0436234 0)
(10.1505 0.0404188 0)
(10.1548 0.0371038 0)
(10.1585 0.0337962 0)
(10.0016 0.0126577 0)
(10.0124 0.0321625 0)
(10.0271 0.0423473 0)
(10.0405 0.0479327 0)
(10.0524 0.0519066 0)
(10.0638 0.0541009 0)
(10.0745 0.054685 0)
(10.0842 0.054397 0)
(10.0931 0.0536403 0)
(10.1015 0.0524332 0)
(10.1093 0.0507163 0)
(10.1165 0.0485388 0)
(10.123 0.0460907 0)
(10.129 0.0434734 0)
(10.1344 0.0406845 0)
(10.1393 0.0377377 0)
(10.1436 0.0347059 0)
(10.1473 0.0316738 0)
(10.0012 0.0106474 0)
(10.01 0.0281879 0)
(10.0227 0.0382311 0)
(10.0351 0.0438575 0)
(10.0462 0.0477825 0)
(10.0569 0.0500483 0)
(10.0671 0.0508303 0)
(10.0764 0.0507265 0)
(10.0851 0.0500925 0)
(10.0932 0.0489826 0)
(10.1008 0.0473822 0)
(10.1078 0.0453611 0)
(10.1142 0.0430672 0)
(10.12 0.0405903 0)
(10.1253 0.0379616 0)
(10.1301 0.0352124 0)
(10.1343 0.0324033 0)
(10.138 0.0296051 0)
(10.0009 0.00887583 0)
(10.0079 0.0242736 0)
(10.0188 0.0339363 0)
(10.03 0.0395198 0)
(10.0404 0.0433473 0)
(10.0503 0.0456354 0)
(10.0599 0.0465726 0)
(10.0688 0.0466188 0)
(10.0771 0.0460894 0)
(10.0849 0.0450703 0)
(10.0922 0.0435936 0)
(10.099 0.0417345 0)
(10.1052 0.0396113 0)
(10.1109 0.0373064 0)
(10.1161 0.0348626 0)
(10.1207 0.0323262 0)
(10.1249 0.0297457 0)
(10.1286 0.0271824 0)
(10.0007 0.00730758 0)
(10.0062 0.0205083 0)
(10.0153 0.0295272 0)
(10.0253 0.0349423 0)
(10.0349 0.0386059 0)
(10.0441 0.0408532 0)
(10.053 0.0418827 0)
(10.0615 0.0420438 0)
(10.0695 0.0416024 0)
(10.0769 0.0406791 0)
(10.0839 0.0393315 0)
(10.0904 0.0376406 0)
(10.0964 0.0357026 0)
(10.1018 0.0335889 0)
(10.1068 0.0313514 0)
(10.1113 0.0290386 0)
(10.1154 0.0266924 0)
(10.1191 0.0243629 0)
(10.0005 0.00590584 0)
(10.0049 0.0169124 0)
(10.0124 0.0250424 0)
(10.0211 0.0301231 0)
(10.0298 0.0335462 0)
(10.0384 0.0356843 0)
(10.0467 0.0367446 0)
(10.0546 0.0369822 0)
(10.0621 0.0366263 0)
(10.0692 0.0358007 0)
(10.0759 0.0345915 0)
(10.082 0.0330728 0)
(10.0878 0.0313287 0)
(10.093 0.0294192 0)
(10.0978 0.0274031 0)
(10.1022 0.0253193 0)
(10.1061 0.0232118 0)
(10.1097 0.0211179 0)
(10.0004 0.00465497 0)
(10.0038 0.0135457 0)
(10.01 0.0205527 0)
(10.0175 0.0251074 0)
(10.0254 0.0281936 0)
(10.0331 0.0301442 0)
(10.0408 0.0311572 0)
(10.0482 0.0314294 0)
(10.0553 0.0311399 0)
(10.062 0.0304156 0)
(10.0683 0.0293449 0)
(10.0742 0.0280022 0)
(10.0796 0.0264539 0)
(10.0846 0.024762 0)
(10.0892 0.0229704 0)
(10.0934 0.0211268 0)
(10.0972 0.019259 0)
(10.1007 0.0174062 0)
(10.0003 0.0035299 0)
(10.003 0.0103926 0)
(10.008 0.0161048 0)
(10.0145 0.0199427 0)
(10.0215 0.022576 0)
(10.0285 0.0242445 0)
(10.0356 0.0251267 0)
(10.0425 0.025376 0)
(10.0491 0.0251237 0)
(10.0554 0.0244905 0)
(10.0613 0.0235517 0)
(10.0669 0.0223809 0)
(10.0721 0.0210313 0)
(10.0769 0.019557 0)
(10.0813 0.017999 0)
(10.0853 0.0163979 0)
(10.089 0.0147767 0)
(10.0924 0.0131682 0)
(10.0002 0.00249383 0)
(10.0024 0.00741623 0)
(10.0066 0.0117122 0)
(10.0121 0.0146633 0)
(10.0183 0.0167071 0)
(10.0247 0.0179919 0)
(10.0311 0.0186553 0)
(10.0375 0.0188088 0)
(10.0437 0.0185572 0)
(10.0496 0.0179847 0)
(10.0552 0.0171666 0)
(10.0605 0.0161546 0)
(10.0654 0.0150003 0)
(10.07 0.0137422 0)
(10.0742 0.0124211 0)
(10.0781 0.0110625 0)
(10.0817 0.00969215 0)
(10.085 0.00833102 0)
(10.0002 0.00151406 0)
(10.002 0.00454803 0)
(10.0055 0.00734446 0)
(10.0103 0.00925391 0)
(10.0158 0.0105689 0)
(10.0216 0.0113587 0)
(10.0275 0.0117069 0)
(10.0335 0.0116941 0)
(10.0392 0.0113856 0)
(10.0448 0.0108436 0)
(10.0501 0.0101191 0)
(10.0551 0.0092537 0)
(10.0598 0.00828356 0)
(10.0642 0.00723976 0)
(10.0683 0.00614972 0)
(10.0721 0.00503559 0)
(10.0756 0.0039134 0)
(10.0788 0.0028046 0)
(10.0002 0.000548623 0)
(10.0017 0.00170004 0)
(10.0048 0.00290999 0)
(10.0092 0.00363578 0)
(10.0142 0.00408832 0)
(10.0196 0.0042632 0)
(10.0251 0.00420489 0)
(10.0306 0.00394589 0)
(10.0361 0.00352639 0)
(10.0414 0.00297123 0)
(10.0464 0.00231461 0)
(10.0512 0.00157447 0)
(10.0557 0.000777047 0)
(10.06 -6.34794e-05 0)
(10.0639 -0.000926618 0)
(10.0676 -0.00180168 0)
(10.071 -0.00267602 0)
(10.0742 -0.00353464 0)
(10.0002 -0.000398274 0)
(10.0017 -0.00109946 0)
(10.0046 -0.00151034 0)
(10.0088 -0.00201628 0)
(10.0136 -0.00249204 0)
(10.0188 -0.00298192 0)
(10.0242 -0.00349892 0)
(10.0295 -0.00403967 0)
(10.0348 -0.00460775 0)
(10.04 -0.00519802 0)
(10.0449 -0.00581269 0)
(10.0496 -0.00644292 0)
(10.054 -0.00708882 0)
(10.0581 -0.00773975 0)
(10.062 -0.00839501 0)
(10.0657 -0.00904425 0)
(10.069 -0.0096885 0)
(10.0722 -0.0103109 0)
(10.0002 -0.00130295 0)
(10.0018 -0.00375947 0)
(10.0049 -0.00570885 0)
(10.0092 -0.00737063 0)
(10.0142 -0.00871056 0)
(10.0195 -0.00981781 0)
(10.0249 -0.0107566 0)
(10.0303 -0.0115557 0)
(10.0356 -0.0122529 0)
(10.0408 -0.0128731 0)
(10.0457 -0.0134423 0)
(10.0503 -0.0139727 0)
(10.0547 -0.014477 0)
(10.0589 -0.0149598 0)
(10.0627 -0.0154268 0)
(10.0663 -0.0158786 0)
(10.0697 -0.016318 0)
(10.0728 -0.0167358 0)
(10.0002 -0.00219949 0)
(10.002 -0.00637009 0)
(10.0056 -0.00974515 0)
(10.0103 -0.0124344 0)
(10.0157 -0.0145068 0)
(10.0212 -0.0161332 0)
(10.0269 -0.0174091 0)
(10.0325 -0.0184029 0)
(10.038 -0.0191769 0)
(10.0433 -0.0197948 0)
(10.0483 -0.0202968 0)
(10.053 -0.0207199 0)
(10.0574 -0.0210823 0)
(10.0616 -0.021407 0)
(10.0655 -0.0217008 0)
(10.0691 -0.0219766 0)
(10.0725 -0.0222353 0)
(10.0756 -0.0224762 0)
(10.0003 -0.00315848 0)
(10.0025 -0.00911047 0)
(10.0067 -0.0138336 0)
(10.0121 -0.0174108 0)
(10.018 -0.0200877 0)
(10.024 -0.0221267 0)
(10.0301 -0.0236548 0)
(10.036 -0.0247661 0)
(10.0417 -0.0255634 0)
(10.0472 -0.026132 0)
(10.0523 -0.0265413 0)
(10.0572 -0.0268335 0)
(10.0617 -0.0270497 0)
(10.0659 -0.0272106 0)
(10.0699 -0.0273416 0)
(10.0735 -0.027448 0)
(10.0769 -0.0275453 0)
(10.0801 -0.0276244 0)
(10.0003 -0.00424424 0)
(10.0032 -0.0121248 0)
(10.0083 -0.0181094 0)
(10.0147 -0.0224143 0)
(10.0213 -0.0255645 0)
(10.0278 -0.0279156 0)
(10.0343 -0.0296062 0)
(10.0407 -0.0307591 0)
(10.0467 -0.031516 0)
(10.0524 -0.0319967 0)
(10.0578 -0.0322791 0)
(10.0627 -0.0324238 0)
(10.0674 -0.0324756 0)
(10.0717 -0.0324715 0)
(10.0757 -0.0324347 0)
(10.0794 -0.0323828 0)
(10.0829 -0.0323243 0)
(10.0861 -0.0322598 0)
(10.0005 -0.00554136 0)
(10.0043 -0.0155342 0)
(10.0107 -0.0226353 0)
(10.0182 -0.0274791 0)
(10.0255 -0.0309855 0)
(10.0327 -0.0335599 0)
(10.0398 -0.0353202 0)
(10.0466 -0.0364363 0)
(10.053 -0.0371016 0)
(10.059 -0.0374536 0)
(10.0645 -0.0375836 0)
(10.0697 -0.0375604 0)
(10.0745 -0.0374401 0)
(10.079 -0.037266 0)
(10.0831 -0.0370654 0)
(10.0869 -0.0368589 0)
(10.0904 -0.0366555 0)
(10.0937 -0.036455 0)
(10.0007 -0.00715892 0)
(10.0059 -0.0194786 0)
(10.014 -0.0274343 0)
(10.0227 -0.0325845 0)
(10.0309 -0.03635 0)
(10.0388 -0.0390781 0)
(10.0465 -0.0408373 0)
(10.0539 -0.0418562 0)
(10.0607 -0.0423834 0)
(10.0671 -0.0425747 0)
(10.073 -0.0425257 0)
(10.0784 -0.0423179 0)
(10.0834 -0.0420153 0)
(10.088 -0.0416669 0)
(10.0923 -0.0413071 0)
(10.0962 -0.0409558 0)
(10.0999 -0.0406236 0)
(10.1032 -0.0403032 0)
(10.001 -0.00923148 0)
(10.0083 -0.0240695 0)
(10.0187 -0.0325395 0)
(10.0287 -0.0377727 0)
(10.0377 -0.0416885 0)
(10.0466 -0.0444861 0)
(10.0552 -0.0461875 0)
(10.0633 -0.047086 0)
(10.0707 -0.0474613 0)
(10.0776 -0.0474749 0)
(10.0839 -0.0472285 0)
(10.0897 -0.046815 0)
(10.0951 -0.0463075 0)
(10.1 -0.0457648 0)
(10.1044 -0.0452268 0)
(10.1086 -0.044718 0)
(10.1124 -0.0442459 0)
(10.1159 -0.043799 0)
(10.0015 -0.0119994 0)
(10.012 -0.0292672 0)
(10.0253 -0.0379686 0)
(10.037 -0.0432968 0)
(10.0475 -0.0472944 0)
(10.0577 -0.0499682 0)
(10.0675 -0.0514508 0)
(10.0768 -0.0521399 0)
(10.0852 -0.0523257 0)
(10.0929 -0.0521504 0)
(10.1 -0.0517157 0)
(10.1064 -0.051118 0)
(10.1123 -0.0504348 0)
(10.1176 -0.0497256 0)
(10.1224 -0.0490411 0)
(10.1269 -0.0484013 0)
(10.1309 -0.0478168 0)
(10.1346 -0.0472628 0)
(10.0027 -0.016402 0)
(10.0185 -0.0350377 0)
(10.0364 -0.04316 0)
(10.0515 -0.0488458 0)
(10.0649 -0.0532157 0)
(10.0779 -0.0558183 0)
(10.0904 -0.0570058 0)
(10.1018 -0.0573518 0)
(10.1122 -0.0571794 0)
(10.1216 -0.0566392 0)
(10.13 -0.0558443 0)
(10.1375 -0.0549062 0)
(10.1442 -0.0539087 0)
(10.1501 -0.0529201 0)
(10.1553 -0.0519983 0)
(10.1598 -0.05117 0)
(10.1639 -0.0504286 0)
(10.1673 -0.049729 0)
(10.0074 -0.0244962 0)
(10.0373 -0.0431652 0)
(10.0668 -0.0483585 0)
(10.0916 -0.0534864 0)
(10.1139 -0.0584944 0)
(10.1349 -0.0617901 0)
(10.1538 -0.0634824 0)
(10.1701 -0.0641412 0)
(10.1836 -0.0640967 0)
(10.1948 -0.0635092 0)
(10.2036 -0.0625289 0)
(10.2104 -0.0612872 0)
(10.2151 -0.0599109 0)
(10.2181 -0.0584969 0)
(10.2196 -0.0571356 0)
(10.2198 -0.0559213 0)
(10.219 -0.0548868 0)
(10.2173 -0.0541043 0)
(10.0409 -0.0348137 0)
(10.1355 -0.0634096 0)
(10.2023 -0.0686075 0)
(10.2447 -0.0702626 0)
(10.272 -0.0714219 0)
(10.2868 -0.0712565 0)
(10.2896 -0.0699529 0)
(10.282 -0.0680212 0)
(10.2663 -0.0657542 0)
(10.2445 -0.0632742 0)
(10.2182 -0.0606626 0)
(10.1886 -0.0580013 0)
(10.1566 -0.0553603 0)
(10.123 -0.0528079 0)
(10.0884 -0.0504503 0)
(10.0535 -0.0483394 0)
(10.0189 -0.0465117 0)
(9.98542 -0.0454362 0)
(9.89002 -0.0363049 0)
(9.66461 -0.0677475 0)
(9.42391 -0.0775749 0)
(9.17957 -0.0800279 0)
(8.94551 -0.0789569 0)
(8.72977 -0.0750577 0)
(8.53361 -0.0695913 0)
(8.35648 -0.0634532 0)
(8.19795 -0.057134 0)
(8.05695 -0.0509822 0)
(7.9321 -0.045159 0)
(7.82181 -0.0397304 0)
(7.72465 -0.0347358 0)
(7.63911 -0.0302074 0)
(7.5637 -0.0261342 0)
(7.49723 -0.02264 0)
(7.43741 -0.0198256 0)
(7.38369 -0.0180146 0)
(-0.00278753 0.00754603 0)
(-0.0127485 0.0125663 0)
(-0.0264051 0.0136413 0)
(-0.0406915 0.0115809 0)
(-0.0509295 0.00573927 0)
(-0.0495885 -0.00388354 0)
(-0.0334909 -0.0168996 -8.21166e-19)
(-0.00597075 -0.0303832 9.23607e-19)
(0.0297056 -0.0403841 0)
(0.0706121 -0.0452287 5.2668e-19)
(0.113795 -0.0455716 0)
(0.155834 -0.0425969 0)
(0.194007 -0.0373704 0)
(0.22667 -0.0307027 -2.59536e-19)
(0.252961 -0.023158 0)
(0.272465 -0.0150921 0)
(0.284846 -0.00670494 2.24622e-19)
(0.290315 0.00207536 0)
(0.287725 0.0111343 0)
(0.277302 0.0199887 0)
(0.259682 0.0278877 -2.41054e-19)
(0.235495 0.0340415 0)
(0.205687 0.0377223 -2.85698e-19)
(0.171654 0.0382998 0)
(0.135267 0.0353381 0)
(0.0988133 0.0288088 -4.68077e-19)
(0.0648259 0.0194046 0)
(0.0357986 0.00886249 7.89007e-19)
(0.0135677 -7.34039e-05 0)
(-0.00153503 -0.00532632 -1.31374e-18)
(-0.0110517 -0.00781183 0)
(-0.0158055 -0.00963748 0)
(-0.0146131 -0.0119975 0)
(-0.00703077 -0.0157238 0)
(0.00795382 -0.0212552 0)
(0.0305652 -0.0273429 8.63374e-19)
(0.0591893 -0.0315597 0)
(0.0897015 -0.0316434 -1.00802e-18)
(0.116965 -0.0272157 0)
(0.13683 -0.0197289 7.97662e-19)
(0.147526 -0.0117339 0)
(0.150365 -0.00533855 0)
(0.147955 -0.00185788 -7.8325e-19)
(0.144175 -0.00222927 0)
(0.141761 -0.00715432 -8.08355e-19)
(0.13866 -0.0158802 8.13482e-19)
(0.128586 -0.0229889 0)
(0.104269 -0.0184057 8.9277e-19)
(0.0609239 0.000907904 1.05278e-18)
(-0.0162791 0.0186814 0)
(-0.113949 0.0365108 0)
(-0.219481 0.0595916 0)
(-0.336599 0.0833193 0)
(-0.462427 0.103279 0)
(-0.594104 0.113903 -1.81191e-19)
(-0.728475 0.116594 0)
(-0.860547 0.114656 1.45285e-19)
(-0.988261 0.107749 0)
(-1.10945 0.0999679 0)
(-1.22257 0.0940626 -1.14086e-19)
(-1.32781 0.0885698 0)
(-1.42514 0.0786065 1.02986e-19)
(-1.51435 0.0699169 0)
(-1.59589 0.0647881 0)
(-1.67138 0.0588857 0)
(-1.74092 0.0537239 -8.88376e-20)
(-1.80522 0.0492773 0)
(-1.86497 0.0453438 0)
(-1.92071 0.0419295 -8.2585e-20)
(-1.97291 0.0389231 0)
(-2.022 0.036283 -7.94098e-20)
(-2.06831 0.0339324 0)
(-2.11214 0.0318325 0)
(-2.15372 0.0299281 0)
(-2.19324 0.0281929 7.43675e-20)
(-2.23085 0.026589 0)
(-2.26668 0.0250999 0)
(-2.30083 0.0237008 7.12522e-20)
(-2.33338 0.022382 7.02916e-20)
(-2.3644 0.0211278 0)
(-2.39394 0.0199319 6.8452e-20)
(-2.42205 0.0187856 0)
(-2.44877 0.0176829 1.33381e-19)
(-2.47413 0.0166206 0)
(-2.49815 0.0155909 1.29957e-19)
(-2.52084 0.0145953 0)
(-2.54223 0.0136216 -1.2659e-19)
(-2.56235 0.0126757 0)
(-2.5812 0.0117466 0)
(-2.59883 0.0108241 0)
(-2.6152 0.00991592 1.19916e-19)
(-2.63027 0.00900633 0)
(-2.64406 0.00808758 -1.16555e-19)
(-2.65655 0.0071508 0)
(-2.66771 0.00618258 1.13156e-19)
(-2.67751 0.00518185 1.11442e-19)
(-2.6859 0.00413798 1.0972e-19)
(-2.69285 0.00307164 0)
(-2.69832 0.00201585 0)
(-2.70222 0.00105812 0)
(-2.7045 0.000262203 0)
(-2.70552 -0.000398818 0)
(-2.70538 -0.00101904 0)
(-2.70409 -0.0016238 0)
(-2.70165 -0.00222371 0)
(-2.69806 -0.00281908 -9.34565e-20)
(-2.69331 -0.0034123 -9.15019e-20)
(-2.68738 -0.00400343 0)
(-2.68027 -0.00459151 0)
(-2.67197 -0.005179 0)
(-2.66247 -0.005762 -8.33045e-20)
(-2.65176 -0.00634552 0)
(-2.63983 -0.00692295 0)
(-2.62668 -0.00750151 0)
(-2.6123 -0.0080723 0)
(-2.59669 -0.00864441 7.20297e-20)
(-2.57985 -0.00920711 0)
(-2.56177 -0.00977078 0)
(-2.54245 -0.0103235 -6.45825e-20)
(-2.5219 -0.0108765 6.19668e-20)
(-2.50012 -0.0114173 0)
(-2.47712 -0.0119572 5.65158e-20)
(-2.45289 -0.0124839 0)
(-2.42746 -0.0130084 -5.07475e-20)
(-2.40083 -0.0135192 0)
(-2.37301 -0.0140265 0)
(-2.34402 -0.01452 0)
(-2.31387 -0.0150077 0)
(-2.28258 -0.0154741 0)
(-2.25018 -0.0159357 6.2479e-20)
(-2.21667 -0.0163787 5.52513e-20)
(-2.18211 -0.0168067 0)
(-2.14649 -0.0172047 0)
(-2.10988 -0.0175288 0)
(-2.07231 -0.0177284 -2.39887e-20)
(-2.03387 -0.0177187 0)
(-1.99462 -0.0174789 0)
(-1.95453 -0.0175003 0)
(-1.91349 -0.0178455 1.15021e-20)
(-1.87157 -0.0181274 -2.11491e-20)
(-1.82882 -0.0183984 0)
(-1.7853 -0.0186527 0)
(-1.74105 -0.0188996 -5.22163e-20)
(-1.69611 -0.0191342 -6.3339e-20)
(-1.6505 -0.0193641 0)
(-1.60426 -0.0195844 0)
(-1.55744 -0.0197996 9.92963e-20)
(-1.51005 -0.0200082 -1.12217e-19)
(-1.46213 -0.0202035 0)
(-1.41366 -0.0203905 0)
(-1.36469 -0.0205615 -1.54301e-19)
(-1.31523 -0.0207259 0)
(-1.26536 -0.0208768 0)
(-1.21506 -0.021022 -2.02078e-19)
(-1.16441 -0.0211631 0)
(-1.1134 -0.0212977 -2.37746e-19)
(-1.06208 -0.0214342 0)
(-1.01046 -0.0215709 0)
(-0.958545 -0.0217134 0)
(-0.906353 -0.0218617 3.205e-19)
(-0.853885 -0.0220191 0)
(-0.801144 -0.0221844 0)
(-0.748133 -0.0223596 0)
(-0.694859 -0.0225433 0)
(-0.641325 -0.0227386 0)
(-0.587536 -0.0229459 0)
(-0.533492 -0.0231701 5.20076e-19)
(-0.479189 -0.0234127 5.57052e-19)
(-0.424619 -0.0236771 0)
(-0.369773 -0.0239636 0)
(-0.314647 -0.0242705 0)
(-0.259254 -0.0245937 -7.38748e-19)
(-0.203626 -0.0249472 0)
(-0.147845 -0.0253048 1.71565e-18)
(-0.0920768 -0.0255955 -1.85462e-18)
(-0.0367485 -0.025676 -2.00994e-18)
(0.0180574 -0.0249783 2.0735e-18)
(0.068964 -0.0230012 -2.01658e-18)
(0.125016 -0.020456 1.95637e-18)
(0.14055 -0.00900056 0)
(-0.000327556 0.0202974 0)
(-0.00575567 0.0355542 0)
(-0.0122195 0.0365329 2.17092e-18)
(-0.0123577 0.0268283 0)
(0.00202894 0.00458565 -2.24684e-18)
(0.0318309 -0.0325255 -1.42174e-18)
(0.0710723 -0.0737658 -4.49636e-19)
(0.115717 -0.107359 -3.21768e-19)
(0.161788 -0.12784 0)
(0.2059 -0.134957 -2.11136e-19)
(0.245915 -0.131375 0)
(0.280902 -0.120469 0)
(0.310546 -0.1051 3.15345e-19)
(0.334864 -0.0873287 1.50269e-19)
(0.354082 -0.0684882 -2.93026e-19)
(0.368511 -0.0493377 -2.89712e-19)
(0.378535 -0.0302531 -1.449e-19)
(0.384328 -0.0113664 0)
(0.386888 0.00733327 0)
(0.386103 0.0256738 0)
(0.381587 0.0432971 -1.53161e-19)
(0.372833 0.0596537 0)
(0.359278 0.0739938 4.90261e-19)
(0.34043 0.085318 0)
(0.31607 0.092492 0)
(0.28642 0.0944075 1.98784e-19)
(0.252362 0.0903223 0)
(0.215551 0.0802937 -2.52401e-19)
(0.178359 0.0654161 -5.92459e-19)
(0.143764 0.0475109 3.55537e-19)
(0.114932 0.0282052 0)
(0.0952024 0.00836049 0)
(0.0859282 -0.0121927 0)
(0.0888312 -0.0324778 -1.05206e-18)
(0.10198 -0.052492 -8.82836e-19)
(0.121598 -0.0696118 -3.63922e-19)
(0.141632 -0.0767544 0)
(0.156247 -0.0707959 5.24775e-19)
(0.162974 -0.0548841 0)
(0.161514 -0.0344452 -5.10182e-19)
(0.152522 -0.0160565 0)
(0.136688 -0.00387532 0)
(0.113583 0.00348677 6.52276e-19)
(0.077378 0.0107673 0)
(0.0180175 0.0251573 2.46975e-18)
(-0.0763423 0.0567212 -6.10204e-19)
(-0.195669 0.0990791 0)
(-0.3258 0.143427 -2.6483e-19)
(-0.462144 0.185602 -1.97662e-19)
(-0.604711 0.220595 0)
(-0.748557 0.246998 0)
(-0.890604 0.265195 0)
(-1.02866 0.275028 0)
(-1.15924 0.276936 0)
(-1.28026 0.271873 8.37976e-20)
(-1.38961 0.261296 1.57938e-19)
(-1.48718 0.246893 -7.45618e-20)
(-1.57367 0.230016 0)
(-1.65005 0.211817 1.38215e-19)
(-1.71769 0.193593 -6.69493e-20)
(-1.77764 0.176414 0)
(-1.83222 0.160431 -6.2959e-20)
(-1.88158 0.145727 0)
(-1.92703 0.132861 0)
(-1.96898 0.12145 -1.18395e-19)
(-2.00816 0.11146 5.80676e-20)
(-2.04505 0.102742 -1.14277e-19)
(-2.07995 0.0951248 1.1245e-19)
(-2.1131 0.0884494 5.53756e-20)
(-2.1447 0.0825604 0)
(-2.17487 0.0773274 5.38193e-20)
(-2.20371 0.0726313 0)
(-2.23132 0.0683798 0)
(-2.25773 0.0644879 0)
(-2.283 0.0608954 5.0962e-20)
(-2.30716 0.0575446 0)
(-2.33024 0.0543985 9.94685e-20)
(-2.35225 0.0514189 -1.47395e-19)
(-2.37321 0.0485841 -4.85519e-20)
(-2.39314 0.0458697 0)
(-2.41204 0.043262 -4.7352e-20)
(-2.42992 0.040747 0)
(-2.4468 0.0383129 -9.23315e-20)
(-2.46266 0.0359534 0)
(-2.47753 0.0336557 -8.99617e-20)
(-2.49138 0.0314196 1.77452e-19)
(-2.50423 0.0292306 8.75773e-20)
(-2.5161 0.027095 0)
(-2.52699 0.0250004 0)
(-2.53692 0.0229455 0)
(-2.54584 0.0209317 -8.27264e-20)
(-2.55376 0.0189521 0)
(-2.56067 0.0170007 8.02325e-20)
(-2.56657 0.0150676 0)
(-2.57149 0.0131434 -2.33071e-19)
(-2.57544 0.011224 -7.63886e-20)
(-2.57845 0.00929241 -7.5083e-20)
(-2.58059 0.00734863 0)
(-2.58192 0.00539794 0)
(-2.58255 0.00350429 0)
(-2.58255 0.00173497 0)
(-2.58165 9.22896e-05 0)
(-2.57967 -0.00149651 -1.33915e-19)
(-2.57661 -0.00305453 -1.31061e-19)
(-2.57242 -0.00459535 0)
(-2.56711 -0.00611925 6.254e-20)
(-2.56065 -0.0076299 6.10516e-20)
(-2.55303 -0.00912589 0)
(-2.54425 -0.010607 1.16251e-19)
(-2.5343 -0.0120737 0)
(-2.52316 -0.0135227 -5.51485e-20)
(-2.51083 -0.014957 0)
(-2.4973 -0.0163704 0)
(-2.48256 -0.0177681 1.00375e-19)
(-2.46661 -0.0191413 0)
(-2.44944 -0.0204974 -4.66587e-20)
(-2.43106 -0.0218252 0)
(-2.41145 -0.0231341 0)
(-2.39062 -0.0244111 -4.17724e-20)
(-2.36858 -0.0256668 -3.95388e-20)
(-2.34532 -0.0268874 0)
(-2.32086 -0.0280838 3.62339e-20)
(-2.29519 -0.0292418 0)
(-2.26833 -0.0303724 -3.23532e-20)
(-2.24028 -0.0314618 -6.01843e-20)
(-2.21108 -0.03252 0)
(-2.18071 -0.0335346 0)
(-2.14922 -0.0345146 0)
(-2.1166 -0.03545 0)
(-2.08289 -0.0363492 -3.81642e-20)
(-2.04811 -0.0372044 -1.02029e-19)
(-2.01228 -0.0380188 0)
(-1.97544 -0.0387852 0)
(-1.93761 -0.0395115 0)
(-1.89881 -0.04021 1.43368e-20)
(-1.85903 -0.0408981 0)
(-1.81829 -0.0415712 0)
(-1.7766 -0.0422119 8.6314e-22)
(-1.73408 -0.0427758 5.057e-21)
(-1.69073 -0.0432594 1.19851e-20)
(-1.64658 -0.0436895 0)
(-1.60166 -0.0440731 0)
(-1.55602 -0.0444207 2.90328e-20)
(-1.50969 -0.044729 -3.3359e-20)
(-1.46269 -0.0450055 0)
(-1.41507 -0.0452502 0)
(-1.36687 -0.0454654 -5.32883e-20)
(-1.3181 -0.0456561 1.77224e-19)
(-1.2688 -0.045811 0)
(-1.21896 -0.0459333 0)
(-1.16863 -0.0460152 7.9389e-20)
(-1.11782 -0.0460654 0)
(-1.06657 -0.0460802 1.84643e-19)
(-1.01491 -0.0460633 -9.85254e-20)
(-0.962884 -0.0460224 0)
(-0.910501 -0.0459547 1.14862e-19)
(-0.857795 -0.0458718 2.42951e-19)
(-0.80478 -0.0457758 0)
(-0.751471 -0.0456732 0)
(-0.697876 -0.0455674 -1.45738e-19)
(-0.644001 -0.0454627 0)
(-0.589847 -0.0453593 3.22325e-19)
(-0.535416 -0.0452576 0)
(-0.480712 -0.0451563 0)
(-0.425738 -0.0450566 0)
(-0.370497 -0.0449598 0)
(-0.314988 -0.0448702 -2.05906e-19)
(-0.259205 -0.0447908 -2.15227e-19)
(-0.203141 -0.044724 0)
(-0.146787 -0.0446696 0)
(-0.0901375 -0.0446226 0)
(-0.0332051 -0.0445652 2.54607e-19)
(0.0239865 -0.0444652 0)
(0.0813747 -0.0442753 -5.23628e-19)
(0.13884 -0.0439316 5.24972e-19)
(0.196107 -0.0432904 5.26343e-19)
(0.253111 -0.0419663 5.24664e-19)
(0.307571 -0.0395544 5.30556e-19)
(0.364531 -0.0352818 5.32647e-19)
(0.399946 -0.0226133 0)
(0.000253439 0.0230532 0)
(0.00076219 0.0396927 0)
(0.00675297 0.0319037 -2.32264e-18)
(0.0273089 -0.00233796 -1.61275e-18)
(0.0672409 -0.0624484 9.57454e-19)
(0.118723 -0.128121 6.23933e-19)
(0.171402 -0.179784 -3.73037e-22)
(0.218441 -0.209116 0)
(0.257282 -0.217133 0)
(0.287984 -0.209079 0)
(0.31178 -0.190729 0)
(0.330119 -0.166743 0)
(0.344205 -0.140276 -7.17503e-19)
(0.354887 -0.113191 0)
(0.362726 -0.0864855 2.29011e-19)
(0.368094 -0.0606251 2.28484e-19)
(0.371256 -0.0357896 0)
(0.372406 -0.0120452 0)
(0.3718 0.0106364 0)
(0.369761 0.0324242 0)
(0.36655 0.0534578 2.43361e-19)
(0.362337 0.0736647 0)
(0.357034 0.0926678 -2.6085e-19)
(0.350242 0.109702 0)
(0.341264 0.123635 0)
(0.329232 0.13303 0)
(0.313351 0.136393 -6.53281e-19)
(0.293298 0.13252 0)
(0.269637 0.120926 3.88366e-19)
(0.244001 0.10199 -8.67369e-19)
(0.218984 0.0768477 0)
(0.197554 0.0468983 0)
(0.182356 0.0138489 0)
(0.173497 -0.021242 6.4165e-19)
(0.169718 -0.0545997 5.64042e-19)
(0.164206 -0.0759329 0)
(0.150296 -0.0762834 0)
(0.128022 -0.0588005 -7.74005e-19)
(0.0983625 -0.0312081 -7.98228e-19)
(0.0614066 0.00182115 8.90522e-19)
(0.0148072 0.0356904 0)
(-0.0518928 0.0677809 0)
(-0.14367 0.10677 0)
(-0.254662 0.156055 0)
(-0.381475 0.210437 -3.96717e-19)
(-0.518624 0.26562 -3.15266e-19)
(-0.658881 0.317515 2.59325e-19)
(-0.796463 0.361687 0)
(-0.927225 0.396603 0)
(-1.04764 0.42106 0)
(-1.15609 0.434259 0)
(-1.25195 0.436823 -1.44374e-19)
(-1.33478 0.429765 0)
(-1.40547 0.414439 0)
(-1.46579 0.392696 -1.2045e-19)
(-1.51789 0.366704 -1.13874e-19)
(-1.56394 0.338608 0)
(-1.60566 0.310081 2.1308e-19)
(-1.64446 0.282491 -1.02402e-19)
(-1.68124 0.256796 9.94324e-20)
(-1.71648 0.233442 0)
(-1.75065 0.212467 0)
(-1.78406 0.193877 0)
(-1.81671 0.177749 0)
(-1.84854 0.163657 8.85155e-20)
(-1.8796 0.15136 1.73766e-19)
(-1.90986 0.140604 8.52326e-20)
(-1.93931 0.131142 -8.37439e-20)
(-1.96793 0.122755 0)
(-1.99569 0.115257 1.61902e-19)
(-2.02258 0.108489 1.59314e-19)
(-2.04859 0.102319 1.56839e-19)
(-2.07372 0.0966386 -1.54458e-19)
(-2.09795 0.0913585 0)
(-2.12128 0.0864094 -2.24975e-19)
(-2.1437 0.0817331 0)
(-2.16521 0.0772865 7.27473e-20)
(-2.18581 0.073033 7.18625e-20)
(-2.20549 0.068946 0)
(-2.22425 0.0650031 0)
(-2.24209 0.0611876 1.37549e-19)
(-2.25901 0.0574859 0)
(-2.275 0.053886 1.33632e-19)
(-2.29006 0.0503797 0)
(-2.3042 0.0469562 -1.29749e-19)
(-2.3174 0.0436104 -2.55697e-19)
(-2.32966 0.0403328 0)
(-2.341 0.0371211 0)
(-2.35144 0.033968 0)
(-2.36096 0.0308707 -1.20029e-19)
(-2.36956 0.0278306 0)
(-2.3772 0.0248431 -1.16093e-19)
(-2.3839 0.0219058 0)
(-2.38967 0.0190121 0)
(-2.39451 0.0161635 2.20183e-19)
(-2.39843 0.0133585 0)
(-2.40145 0.0106047 1.06045e-19)
(-2.40358 0.00790677 0)
(-2.40483 0.00527584 1.0195e-19)
(-2.40516 0.00270674 0)
(-2.40452 0.000169209 0)
(-2.40287 -0.00236393 0)
(-2.40017 -0.00488568 2.79966e-19)
(-2.39641 -0.00738662 9.10585e-20)
(-2.39157 -0.00986656 0)
(-2.38563 -0.0123245 0)
(-2.37858 -0.0147612 0)
(-2.37041 -0.0171746 0)
(-2.3611 -0.0195652 -7.98018e-20)
(-2.35066 -0.0219302 1.55345e-19)
(-2.33905 -0.0242698 7.51595e-20)
(-2.32629 -0.0265807 -1.46021e-19)
(-2.31235 -0.0288627 -1.41288e-19)
(-2.29724 -0.0311123 -6.80186e-20)
(-2.28094 -0.0333286 0)
(-2.26345 -0.0355084 -1.26771e-19)
(-2.24477 -0.0376498 0)
(-2.22489 -0.0397503 1.16801e-19)
(-2.20382 -0.0418074 5.55577e-20)
(-2.18156 -0.0438189 0)
(-2.15812 -0.0457817 -1.01353e-19)
(-2.13348 -0.0476941 -4.76873e-20)
(-2.10767 -0.0495524 0)
(-2.0807 -0.0513554 -4.29985e-20)
(-2.05256 -0.0530988 1.1922e-19)
(-2.02328 -0.054782 0)
(-1.99288 -0.0564007 0)
(-1.96136 -0.0579548 0)
(-1.92874 -0.0594404 0)
(-1.89506 -0.0608582 5.0918e-20)
(-1.86032 -0.0622047 4.3992e-20)
(-1.82456 -0.0634789 0)
(-1.78779 -0.0646738 0)
(-1.75006 -0.0657879 0)
(-1.71136 -0.0668232 0)
(-1.67173 -0.0677889 0)
(-1.63117 -0.0686917 0)
(-1.58973 -0.0695474 -5.4012e-22)
(-1.54747 -0.0703378 -1.06417e-21)
(-1.50441 -0.0710381 0)
(-1.46057 -0.0716585 0)
(-1.41598 -0.0722068 -2.65469e-20)
(-1.37068 -0.0726905 0)
(-1.32471 -0.073111 4.16155e-20)
(-1.27808 -0.0734729 4.75571e-20)
(-1.23085 -0.0737821 0)
(-1.18303 -0.074038 0)
(-1.13467 -0.0742458 -7.02828e-20)
(-1.08577 -0.074399 -1.52876e-19)
(-1.03637 -0.0744949 0)
(-0.986461 -0.0745333 0)
(-0.936094 -0.0745147 0)
(-0.885292 -0.0744431 -1.07442e-19)
(-0.834087 -0.0743158 1.15025e-19)
(-0.782509 -0.0741466 0)
(-0.730582 -0.0739337 2.58311e-19)
(-0.67833 -0.0736904 1.35677e-19)
(-0.625771 -0.0734222 -2.89331e-19)
(-0.572916 -0.0731382 0)
(-0.519777 -0.0728435 0)
(-0.466357 -0.0725444 -3.36471e-19)
(-0.412659 -0.0722414 -1.77393e-19)
(-0.358684 -0.0719351 0)
(-0.304434 -0.0716226 0)
(-0.249911 -0.0713057 0)
(-0.195116 -0.0709853 0)
(-0.140047 -0.0706665 -4.32579e-19)
(-0.0846997 -0.0703526 0)
(-0.029064 -0.0700478 0)
(0.0268717 -0.0697501 0)
(0.0831134 -0.0694509 0)
(0.139658 -0.0691254 0)
(0.196484 -0.0687282 0)
(0.253535 -0.0681959 -5.04762e-19)
(0.310725 -0.0674448 0)
(0.36784 -0.0663023 0)
(0.424877 -0.0644693 -1.04841e-18)
(0.480281 -0.0614297 5.29807e-19)
(0.537916 -0.0561967 -5.4082e-19)
(0.583127 -0.0434352 5.52217e-19)
(-0.00116996 0.0232118 0)
(0.00216594 0.026149 5.03265e-18)
(0.0244069 -0.0169121 0)
(0.0726416 -0.100729 8.53315e-19)
(0.133538 -0.188221 0)
(0.190855 -0.251227 0)
(0.235525 -0.281456 -3.23408e-19)
(0.266423 -0.284075 0)
(0.286384 -0.268556 0)
(0.29903 -0.24318 0)
(0.307227 -0.213363 0)
(0.312779 -0.1821 0)
(0.316654 -0.150884 8.09875e-19)
(0.319294 -0.120398 3.98376e-19)
(0.320859 -0.0909416 -3.9589e-19)
(0.321389 -0.0626457 0)
(0.320894 -0.035567 0)
(0.31939 -0.00974116 0)
(0.316932 0.0148189 0)
(0.313614 0.0381454 0)
(0.309583 0.0602836 4.28625e-19)
(0.305054 0.0812408 4.40234e-19)
(0.300242 0.100924 -4.56511e-19)
(0.295251 0.119015 4.78713e-19)
(0.289982 0.134867 0)
(0.284084 0.147435 0)
(0.276953 0.155263 5.80142e-19)
(0.267833 0.156633 0)
(0.256143 0.149974 0)
(0.241706 0.134189 7.4837e-19)
(0.225202 0.109073 8.35862e-19)
(0.20777 0.075667 9.47263e-19)
(0.190773 0.0362931 0)
(0.173258 -0.00432299 0)
(0.148234 -0.0338446 -9.64681e-19)
(0.110887 -0.0393412 0)
(0.0628531 -0.0216315 0)
(0.00505997 0.0126572 7.67539e-19)
(-0.0656006 0.0580035 -6.79871e-19)
(-0.152018 0.112442 5.44065e-19)
(-0.252804 0.173345 0)
(-0.367199 0.236355 0)
(-0.491579 0.299783 5.84366e-19)
(-0.620266 0.362399 0)
(-0.747936 0.420489 4.19834e-19)
(-0.869506 0.469062 5.52942e-19)
(-0.980273 0.506074 -4.93328e-19)
(-1.07801 0.531411 2.98375e-19)
(-1.16191 0.544911 0)
(-1.2318 0.54722 0)
(-1.28911 0.539525 2.36864e-19)
(-1.33567 0.523373 1.10451e-19)
(-1.37366 0.500585 0)
(-1.40552 0.472998 0)
(-1.43353 0.442472 9.48867e-20)
(-1.45957 0.410761 1.83499e-19)
(-1.48497 0.379299 0)
(-1.51055 0.349087 -1.69289e-19)
(-1.53673 0.320808 1.64913e-19)
(-1.56363 0.294858 -1.59968e-19)
(-1.59116 0.271387 0)
(-1.61917 0.250315 0)
(-1.64749 0.231512 0)
(-1.67592 0.214862 0)
(-1.70423 0.200101 0)
(-1.73229 0.186988 -1.38147e-19)
(-1.75995 0.17529 0)
(-1.78712 0.164792 0)
(-1.81371 0.155303 0)
(-1.83965 0.146656 -2.56719e-19)