/*--------------------------------*- C++ -*----------------------------------*\
  =========                 |
  \\      /  F ield         | OpenFOAM: The Open Source CFD Toolbox
   \\    /   O peration     | Website:  https://openfoam.org
    \\  /    A nd           | Version:  8
     \\/     M anipulation  |
\*---------------------------------------------------------------------------*/
FoamFile
{
    version     2.0;
    format      ascii;
    class       volScalarField;
    location    "900";
    object      k;
}
// * * * * * * * * * * * * * * * * * * * * * * * * * * * * * * * * * * * * * //

dimensions      [0 2 -2 0 0 0 0];

internalField   nonuniform List<scalar> 
12225
(
2.46333
2.24498
2.07756
1.98001
2.06622
1.47159
4.67739
3.26012
2.74704
2.24378
1.98098
1.67362
1.60826
3.0984
2.87359
1.8196
1.77701
1.84877
0.433428
0.670398
0.768634
0.799105
0.824557
0.809628
0.93383
0.991063
1.0365
1.00467
1.00064
0.987915
0.940565
0.978456
1.00127
0.986581
0.97472
0.986169
0.353367
0.42976
0.470913
0.484114
0.489906
0.484845
0.488887
0.492014
0.495822
0.501335
0.50343
0.504104
0.503174
0.504587
0.505353
0.512929
0.514393
0.513753
0.364597
0.38012
0.391904
0.398297
0.400421
0.400784
0.400409
0.398973
0.397208
0.395592
0.393235
0.389015
0.386535
0.381922
0.379181
0.375522
0.37272
0.37147
0.371344
0.372169
0.373744
0.375247
0.375867
0.375534
0.37458
0.373083
0.371667
0.369909
0.367903
0.365163
0.362696
0.359806
0.357202
0.354624
0.352219
0.350246
0.37341
0.371352
0.370225
0.369227
0.368322
0.367154
0.365951
0.36451
0.363161
0.361648
0.360067
0.358239
0.356435
0.354532
0.352718
0.350932
0.349247
0.347643
0.37376
0.371478
0.369544
0.367738
0.366158
0.364565
0.363077
0.361549
0.360118
0.358656
0.357226
0.355739
0.354291
0.352824
0.351423
0.350039
0.348723
0.347433
0.373827
0.371535
0.369445
0.367464
0.365664
0.363926
0.362302
0.360709
0.35921
0.357738
0.35633
0.354936
0.353598
0.352279
0.351021
0.34979
0.348613
0.347466
0.373833
0.371567
0.36944
0.367416
0.365532
0.363733
0.36204
0.36041
0.358868
0.357383
0.355971
0.354606
0.353304
0.352044
0.350843
0.349679
0.348569
0.347489
0.373836
0.371564
0.369424
0.367391
0.365478
0.363656
0.361933
0.360287
0.358725
0.357232
0.355813
0.354455
0.353164
0.351924
0.350743
0.349611
0.348528
0.347489
0.373829
0.371563
0.369417
0.367379
0.365453
0.363621
0.361885
0.36023
0.358659
0.357162
0.355738
0.354382
0.353087
0.351853
0.350677
0.349553
0.348483
0.347457
0.37383
0.371559
0.369407
0.367367
0.365434
0.363598
0.361852
0.360196
0.358618
0.357119
0.355691
0.35433
0.353034
0.351799
0.35062
0.3495
0.348427
0.347406
0.373826
0.371555
0.369399
0.367356
0.36542
0.363576
0.361831
0.360166
0.35859
0.357084
0.355654
0.35429
0.352991
0.351752
0.350573
0.349448
0.348375
0.34735
0.373827
0.371553
0.369395
0.36735
0.365407
0.363565
0.36181
0.360148
0.358563
0.357058
0.355623
0.354257
0.352955
0.351715
0.350532
0.349404
0.348327
0.3473
0.373826
0.37155
0.369393
0.367344
0.3654
0.363552
0.361798
0.360131
0.358545
0.357037
0.355599
0.354231
0.352926
0.351684
0.350498
0.349367
0.348288
0.347257
0.373825
0.37155
0.369389
0.36734
0.365394
0.363545
0.361789
0.36012
0.358532
0.357021
0.355582
0.354211
0.352904
0.351659
0.350471
0.349338
0.348256
0.347223
0.373825
0.371548
0.369386
0.367337
0.365388
0.363541
0.361782
0.360113
0.358523
0.35701
0.355569
0.354197
0.352889
0.351642
0.350452
0.349317
0.348234
0.3472
0.373826
0.371546
0.369387
0.367332
0.365389
0.363536
0.361783
0.360107
0.358521
0.357004
0.355566
0.35419
0.352883
0.351633
0.350445
0.349307
0.348225
0.347188
0.373824
0.371548
0.369385
0.367336
0.365385
0.36354
0.361779
0.360113
0.358519
0.357009
0.355565
0.354194
0.352883
0.351637
0.350445
0.349311
0.348225
0.347192
0.373826
0.371549
0.369388
0.367336
0.365391
0.363541
0.361787
0.360114
0.358527
0.357013
0.355574
0.3542
0.352894
0.351645
0.350456
0.34932
0.348238
0.347202
0.373824
0.371551
0.369391
0.367342
0.365396
0.363549
0.361793
0.360124
0.358536
0.357025
0.355586
0.354214
0.352908
0.351661
0.350473
0.349339
0.348257
0.347223
0.373828
0.371552
0.369394
0.367346
0.365404
0.363558
0.361805
0.360138
0.358552
0.357043
0.355606
0.354238
0.352932
0.35169
0.350503
0.349373
0.348292
0.347262
0.373824
0.371554
0.369399
0.367356
0.365415
0.363575
0.361827
0.360168
0.358591
0.357091
0.355665
0.354306
0.353012
0.351776
0.350599
0.349473
0.348402
0.347374
0.373833
0.371556
0.369413
0.367386
0.365459
0.363642
0.361926
0.360311
0.358781
0.357332
0.355955
0.354638
0.353379
0.352168
0.351009
0.349892
0.348829
0.347803
0.373874
0.371536
0.369494
0.367595
0.365792
0.364129
0.362584
0.361164
0.359808
0.358533
0.357294
0.356079
0.354878
0.353683
0.352517
0.351361
0.350259
0.349168
0.374144
0.371486
0.37027
0.369144
0.367986
0.366935
0.36591
0.364978
0.363944
0.363011
0.361985
0.360858
0.359634
0.358297
0.356951
0.355546
0.35422
0.35286
0.375801
0.37331
0.375744
0.378176
0.378752
0.378845
0.378477
0.377976
0.376732
0.376441
0.375674
0.374483
0.372962
0.371087
0.369222
0.367161
0.365344
0.363391
0.395416
0.389969
0.410323
0.41948
0.421967
0.423852
0.423938
0.423606
0.422941
0.422832
0.421769
0.420834
0.419171
0.416927
0.415074
0.412818
0.411473
0.409643
0.523111
0.48787
0.540532
0.569844
0.590548
0.609184
0.624326
0.638188
0.649158
0.658621
0.665855
0.671996
0.677147
0.681519
0.686147
0.689876
0.694957
0.698537
2.06022
1.70926
1.67634
1.69686
1.7132
1.71487
1.70139
1.67979
1.6513
1.62227
1.59393
1.56691
1.54173
1.51838
1.49701
1.47744
1.4596
1.44332
1.11275e-08
2.74149e-07
1.37142e-06
5.25664e-06
1.72007e-05
5.14844e-05
0.000127574
0.00023965
0.000367849
0.000483124
0.000569455
0.000594692
0.000578806
0.000516996
0.000408053
0.000308136
0.000241786
0.000187441
0.00013843
9.32925e-05
5.74436e-05
3.31814e-05
1.88748e-05
1.11771e-05
7.90124e-06
7.54118e-06
1.97775e-05
3.17083e-05
0.000120115
0.000222231
0.000304479
0.000308312
0.000356373
0.000440216
0.000504568
0.00107842
0.0020726
0.00549757
0.020408
0.0577717
0.101902
0.124892
0.128811
0.117072
0.138948
0.167443
0.145242
0.16608
0.190323
0.153053
0.18408
0.20585
0.160209
0.139335
0.156449
0.159936
0.166758
0.171042
0.176799
0.181376
0.186329
0.191005
0.195625
0.2002
0.204663
0.209134
0.2135
0.217886
0.222186
0.226503
0.230756
0.235016
0.239229
0.243439
0.247614
0.251778
0.255911
0.260026
0.264112
0.268173
0.272202
0.276197
0.280157
0.284074
0.287947
0.291768
0.295537
0.299241
0.302882
0.30645
0.309948
0.313377
0.316744
0.320066
0.323374
0.326675
0.32988
0.333049
0.336148
0.339192
0.342171
0.345084
0.347928
0.350698
0.353396
0.356014
0.358554
0.361008
0.36338
0.365659
0.367852
0.369948
0.371952
0.373854
0.375659
0.377359
0.378957
0.380445
0.381827
0.383096
0.384253
0.385295
0.386219
0.387026
0.387711
0.388275
0.388711
0.389021
0.389196
0.389239
0.389185
0.389071
0.388866
0.388331
0.388002
0.387088
0.386537
0.385341
0.384395
0.383169
0.381882
0.380488
0.378996
0.37737
0.375639
0.373815
0.371893
0.369883
0.367785
0.365607
0.363351
0.361025
0.358638
0.356193
0.353693
0.351148
0.348564
0.345948
0.343308
0.34065
0.337982
0.33531
0.332641
0.329982
0.327345
0.32473
0.322141
0.319567
0.317039
0.314563
0.312077
0.309575
0.30706
0.304508
0.301841
0.298982
0.295682
0.291491
0.286317
0.261344
6.13178e-08
1.71857e-06
1.14929e-05
4.83039e-05
0.000177092
0.00047006
0.00103276
0.0017929
0.00264872
0.00347271
0.0042066
0.00469303
0.00503341
0.00501884
0.00489487
0.00459857
0.00405131
0.00332912
0.00253165
0.00173254
0.00112215
0.000706369
0.000444403
0.000285298
0.000217686
0.000139232
0.000323675
0.000461794
0.00152663
0.0028858
0.00394294
0.00455934
0.00644662
0.00966306
0.016154
0.029358
0.0534348
0.0765005
0.0990565
0.119539
0.136625
0.149734
0.156428
0.16051
0.171251
0.18445
0.192992
0.205626
0.22039
0.232327
0.248266
0.265533
0.277739
0.292998
0.308724
0.323814
0.337831
0.35184
0.365429
0.378647
0.391719
0.404499
0.41719
0.429707
0.442167
0.454544
0.466893
0.47922
0.491547
0.503889
0.516254
0.528658
0.541101
0.553595
0.56614
0.578741
0.591398
0.604112
0.61688
0.629701
0.64257
0.655483
0.668433
0.681413
0.694415
0.707426
0.720436
0.733428
0.746384
0.759281
0.7721
0.784817
0.797406
0.809841
0.822102
0.834236
0.846392
0.858473
0.870536
0.882534
0.894481
0.906355
0.918154
0.929865
0.941478
0.952986
0.964377
0.975643
0.986771
0.997754
1.00858
1.01924
1.02972
1.04001
1.0501
1.05998
1.06964
1.07907
1.08825
1.09718
1.10584
1.11422
1.12231
1.1301
1.13757
1.14471
1.15151
1.15797
1.16405
1.16977
1.17511
1.18007
1.18463
1.18875
1.1925
1.19572
1.1986
1.20093
1.20288
1.20428
1.20521
1.20569
1.20586
1.20549
1.20462
1.2033
1.20153
1.19932
1.19667
1.19358
1.19008
1.18616
1.18185
1.17715
1.17208
1.16665
1.16088
1.1548
1.1484
1.14172
1.13476
1.12756
1.12012
1.11247
1.10464
1.09662
1.08842
1.08008
1.07162
1.06305
1.05427
1.04527
1.03605
1.02658
1.01673
1.00641
0.995079
0.982683
0.968634
0.91934
1.6826e-07
4.97114e-06
3.78328e-05
0.000165795
0.000580739
0.00137922
0.00267117
0.00417671
0.00567392
0.00702616
0.00810336
0.00883102
0.00924635
0.00922252
0.00902167
0.00862164
0.00796535
0.00716241
0.00623046
0.00523397
0.00411401
0.00307014
0.00212625
0.00151389
0.00108128
0.00111504
0.00190862
0.00357328
0.00975218
0.0172023
0.0226768
0.0299211
0.0455453
0.0622825
0.0798725
0.0986185
0.114339
0.129166
0.143871
0.15989
0.177648
0.196739
0.219603
0.245462
0.274075
0.303947
0.332202
0.363252
0.393843
0.420976
0.44734
0.472936
0.496015
0.518825
0.54051
0.561348
0.581411
0.600904
0.619882
0.638444
0.656671
0.674619
0.692359
0.709929
0.727379
0.744739
0.76204
0.779307
0.796558
0.813812
0.831081
0.848376
0.865705
0.883073
0.900486
0.917945
0.935451
0.953004
0.970602
0.988242
1.00592
1.02363
1.04137
1.05913
1.07691
1.09469
1.11247
1.13025
1.14801
1.16574
1.18345
1.20114
1.21879
1.23642
1.25401
1.27158
1.2891
1.30655
1.32392
1.34118
1.35834
1.37538
1.39227
1.40902
1.4256
1.442
1.4582
1.4742
1.48997
1.50551
1.52079
1.53581
1.55054
1.56498
1.57911
1.59291
1.60637
1.61948
1.63221
1.64456
1.6565
1.66802
1.67912
1.68975
1.69993
1.70962
1.71881
1.72749
1.73564
1.74324
1.75029
1.75677
1.76266
1.76794
1.77261
1.77663
1.78002
1.78274
1.78481
1.78609
1.78673
1.78687
1.78627
1.78497
1.78299
1.78035
1.77706
1.77312
1.76855
1.76336
1.75756
1.75117
1.74421
1.73669
1.72865
1.72009
1.71104
1.70152
1.69157
1.6812
1.67044
1.65931
1.64784
1.63606
1.624
1.61168
1.59911
1.58632
1.57333
1.56016
1.54679
1.53321
1.51941
1.50536
1.49099
1.47623
1.46073
1.44456
1.42759
1.38205
6.89919e-07
2.07802e-05
0.000162929
0.00063761
0.00178484
0.00405228
0.0067447
0.00946089
0.0118592
0.0137656
0.0149915
0.0156487
0.0156151
0.015355
0.0146661
0.0137068
0.0125802
0.011342
0.0100382
0.0087165
0.00737673
0.00608504
0.00508328
0.00359275
0.00397159
0.00642278
0.0161647
0.031944
0.0468636
0.0586135
0.0700912
0.0833115
0.0962369
0.110118
0.126217
0.1442
0.162603
0.184362
0.209343
0.237906
0.269457
0.303227
0.338112
0.37373
0.409639
0.444972
0.479342
0.513174
0.545804
0.576843
0.606671
0.635408
0.662902
0.689546
0.715251
0.740178
0.764413
0.788072
0.811235
0.833986
0.856393
0.878519
0.900421
0.922147
0.943739
0.965233
0.98666
1.00805
1.02941
1.05078
1.07216
1.09357
1.11502
1.1365
1.15804
1.17962
1.20126
1.22295
1.24469
1.26647
1.28831
1.31018
1.33209
1.35403
1.37599
1.39797
1.41997
1.44197
1.46397
1.48597
1.50796
1.52993
1.55188
1.57379
1.59566
1.61747
1.6392
1.66082
1.68234
1.70371
1.72494
1.74599
1.76686
1.78752
1.80795
1.82814
1.84807
1.86772
1.88707
1.90611
1.92482
1.94317
1.96115
1.97875
1.99594
2.01271
2.02904
2.04491
2.0603
2.07519
2.08957
2.10342
2.11672
2.12945
2.14159
2.15312
2.16403
2.1743
2.1839
2.19282
2.20104
2.20855
2.21533
2.22134
2.22659
2.23104
2.23469
2.23753
2.23952
2.24055
2.2409
2.24047
2.23914
2.23696
2.23394
2.23011
2.22547
2.22003
2.21381
2.20682
2.19908
2.19061
2.18143
2.17157
2.16106
2.14991
2.13816
2.12584
2.11297
2.09958
2.08571
2.07139
2.05664
2.0415
2.02601
2.0102
1.99409
1.97772
1.96111
1.94429
1.92726
1.91004
1.89262
1.87502
1.85721
1.83919
1.82078
1.8022
1.78375
1.74256
2.59572e-06
7.74797e-05
0.000568073
0.00208939
0.00558317
0.0103078
0.0149268
0.0186911
0.0212137
0.0225657
0.0228402
0.0225682
0.0218153
0.0206674
0.0193311
0.0178682
0.0163294
0.0147618
0.0132214
0.0117652
0.0103261
0.00861136
0.00803662
0.00942378
0.0174994
0.0355492
0.0600783
0.0778932
0.0882033
0.0966961
0.105973
0.118058
0.133216
0.152271
0.173956
0.198759
0.227023
0.258803
0.293359
0.330006
0.367878
0.406224
0.444614
0.482851
0.520672
0.557817
0.594186
0.629779
0.664447
0.698101
0.730834
0.76266
0.793594
0.823731
0.853103
0.881786
0.909846
0.937358
0.964396
0.991026
1.01731
1.04331
1.06906
1.09464
1.12006
1.14538
1.17062
1.19581
1.22098
1.24615
1.27133
1.29654
1.32179
1.34709
1.37244
1.39784
1.42331
1.44884
1.47443
1.50007
1.52577
1.55152
1.57731
1.60315
1.62901
1.65491
1.68082
1.70675
1.73268
1.75861
1.78452
1.8104
1.83625
1.86205
1.88777
1.9134
1.93893
1.96434
1.9896
2.01469
2.03959
2.06428
2.08873
2.11293
2.13685
2.16046
2.18376
2.2067
2.22928
2.25148
2.27326
2.2946
2.3155
2.33592
2.35585
2.37526
2.39413
2.41244
2.43018
2.44732
2.46384
2.47972
2.49494
2.50948
2.52332
2.53643
2.5488
2.5604
2.57122
2.58124
2.59042
2.59877
2.60624
2.61282
2.61849
2.62323
2.62704
2.62989
2.63169
2.63246
2.63244
2.6314
2.62934
2.62629
2.62227
2.61729
2.61136
2.60449
2.59671
2.58804
2.57848
2.56808
2.55685
2.54482
2.53203
2.5185
2.50426
2.48936
2.47382
2.45768
2.44097
2.42374
2.40601
2.38782
2.36922
2.35025
2.33094
2.31133
2.29146
2.27136
2.25106
2.23058
2.20995
2.18921
2.16838
2.14753
2.1266
2.10593
2.08594
2.04765
9.4293e-06
0.000266865
0.00183802
0.00634556
0.0140978
0.0210583
0.0256538
0.0278738
0.0284313
0.0281435
0.0272936
0.0260311
0.024601
0.0230689
0.0214757
0.0198459
0.0181893
0.0164775
0.0146292
0.0127072
0.0110012
0.0110248
0.0156979
0.0302253
0.0572677
0.0828611
0.0986328
0.107209
0.113284
0.122436
0.136058
0.154342
0.176278
0.202383
0.231718
0.264376
0.299585
0.336718
0.375069
0.414093
0.453366
0.492628
0.53177
0.570711
0.609349
0.647594
0.685382
0.722663
0.759364
0.795419
0.830823
0.865558
0.899624
0.933042
0.965833
0.998033
1.02968
1.06084
1.09154
1.12186
1.15183
1.18152
1.21097
1.24023
1.26933
1.29832
1.32722
1.35608
1.38491
1.41373
1.44258
1.47145
1.50037
1.52934
1.55837
1.58747
1.61664
1.64587
1.67518
1.70456
1.734
1.7635
1.79305
1.82265
1.85229
1.88197
1.91167
1.94138
1.97109
2.00079
2.03047
2.06011
2.0897
2.11921
2.14863
2.17795
2.20713
2.23617
2.26503
2.2937
2.32213
2.35032
2.37823
2.40583
2.4331
2.46001
2.48654
2.51266
2.53834
2.56355
2.58828
2.61249
2.63617
2.65928
2.6818
2.70372
2.725
2.74562
2.76556
2.7848
2.80331
2.82107
2.83806
2.85426
2.86964
2.88419
2.89787
2.91067
2.92257
2.93354
2.94356
2.95261
2.96066
2.9677
2.97369
2.97863
2.9825
2.98529
2.98684
2.98734
2.98681
2.98514
2.98232
2.97838
2.97333
2.96718
2.95995
2.95167
2.94234
2.93199
2.92065
2.90835
2.89511
2.88097
2.86596
2.85012
2.83348
2.81609
2.79798
2.77919
2.75976
2.73973
2.71915
2.69805
2.67649
2.65451
2.63215
2.60946
2.5865
2.5633
2.53991
2.51636
2.4927
2.46901
2.44534
2.42182
2.39847
2.37569
2.35372
2.31724
3.39981e-05
0.000873716
0.00538547
0.0160895
0.0257429
0.0309215
0.0328886
0.0330393
0.032458
0.0311717
0.0295528
0.0277956
0.025993
0.0241895
0.0224079
0.0206887
0.0191533
0.0179942
0.0176497
0.0185664
0.0223724
0.030618
0.0489166
0.0753317
0.097297
0.111219
0.118217
0.124709
0.135375
0.151529
0.17214
0.197343
0.226284
0.258549
0.293172
0.329693
0.3674
0.405871
0.444765
0.483878
0.523103
0.562396
0.601739
0.641104
0.680447
0.719714
0.758842
0.797755
0.836385
0.874666
0.912548
0.949988
0.986957
1.02344
1.05944
1.09495
1.13001
1.16463
1.19885
1.23272
1.26626
1.29954
1.33258
1.36544
1.39814
1.43073
1.46323
1.49569
1.52812
1.56056
1.59301
1.6255
1.65804
1.69064
1.72332
1.75606
1.78889
1.8218
1.85478
1.88785
1.92098
1.95419
1.98746
2.02078
2.05414
2.08754
2.12097
2.15441
2.18785
2.22126
2.25465
2.28799
2.32126
2.35444
2.38751
2.42046
2.45326
2.48588
2.5183
2.5505
2.58243
2.61407
2.64539
2.67636
2.70694
2.73711
2.76683
2.79607
2.82481
2.853
2.88062
2.90764
2.93403
2.95977
2.98483
3.00917
3.03277
3.05562
3.07767
3.09891
3.11932
3.13886
3.15751
3.17526
3.19208
3.20794
3.22282
3.2367
3.24956
3.26138
3.27212
3.28177
3.29029
3.29768
3.3039
3.30895
3.3128
3.31541
3.31668
3.31682
3.31572
3.31335
3.30971
3.30482
3.29869
3.29134
3.28278
3.27303
3.26213
3.25009
3.23695
3.22273
3.20748
3.19123
3.17401
3.15588
3.13686
3.117
3.09636
3.07496
3.05285
3.03009
3.00672
2.98278
2.95832
2.93341
2.90808
2.88241
2.85644
2.83023
2.80384
2.77731
2.75072
2.72416
2.69773
2.67158
2.6458
2.62079
2.5966
2.56076
0.000107621
0.00251036
0.0134612
0.0275657
0.0347164
0.0374292
0.0377859
0.0370165
0.0353399
0.0332871
0.0311121
0.0289467
0.0268605
0.0248763
0.0230125
0.0214347
0.0204235
0.0200656
0.0220638
0.0282737
0.0423186
0.0643216
0.0875145
0.105942
0.117587
0.124675
0.132598
0.14555
0.163558
0.186635
0.213867
0.244683
0.27804
0.31328
0.349733
0.387023
0.424818
0.462961
0.501381
0.540053
0.578987
0.618197
0.657699
0.697486
0.73753
0.777773
0.818151
0.858592
0.899021
0.939358
0.979533
1.01948
1.05916
1.09852
1.13754
1.1762
1.21451
1.25247
1.29009
1.32741
1.36445
1.40125
1.43784
1.47425
1.51053
1.54669
1.58279
1.61884
1.65488
1.69092
1.72698
1.76309
1.79926
1.8355
1.87182
1.90822
1.94471
1.98129
2.01795
2.0547
2.09153
2.12844
2.16541
2.20244
2.23951
2.27663
2.31376
2.35091
2.38804
2.42516
2.46223
2.49924
2.53617
2.573
2.60971
2.64628
2.68267
2.71886
2.75482
2.79053
2.82594
2.86102
2.89573
2.93004
2.96392
2.99732
3.0302
3.06254
3.09429
3.12542
3.1559
3.18568
3.21474
3.24305
3.27057
3.29727
3.32313
3.34811
3.37219
3.39534
3.41754
3.43875
3.45896
3.47814
3.49627
3.51332
3.52928
3.54411
3.55781
3.57034
3.58167
3.5918
3.60068
3.6083
3.61464
3.61967
3.6234
3.62574
3.62668
3.62633
3.62458
3.62144
3.61691
3.611
3.60373
3.59511
3.58517
3.57392
3.5614
3.54763
3.53266
3.51651
3.49922
3.48084
3.46142
3.44099
3.4196
3.3973
3.37413
3.35016
3.32541
3.29996
3.27383
3.2471
3.21981
3.19202
3.16379
3.13519
3.10628
3.07713
3.04779
3.01834
2.98888
2.95949
2.93033
2.90154
2.87327
2.84591
2.81934
2.78327
0.000281132
0.00610341
0.0244623
0.036936
0.0419654
0.043136
0.0423225
0.0403369
0.0378179
0.035151
0.0325761
0.0302618
0.0283757
0.0270202
0.0264799
0.0267996
0.0289106
0.0331963
0.0420145
0.0576797
0.0768403
0.0953692
0.110302
0.120331
0.128139
0.138148
0.152817
0.172801
0.19738
0.225935
0.257334
0.290819
0.325637
0.361349
0.397635
0.434341
0.471387
0.508773
0.546529
0.584702
0.623341
0.662487
0.702166
0.742371
0.783073
0.824225
0.865767
0.907625
0.949716
0.991956
1.03426
1.07656
1.11877
1.16085
1.20274
1.24442
1.28586
1.32705
1.368
1.40871
1.44919
1.48948
1.52959
1.56956
1.60941
1.64917
1.68887
1.72855
1.76821
1.80789
1.84761
1.88737
1.92721
1.96712
2.00711
2.0472
2.08738
2.12765
2.16802
2.20847
2.24901
2.28962
2.3303
2.37104
2.41182
2.45263
2.49346
2.53429
2.57511
2.6159
2.65663
2.69729
2.73786
2.77831
2.81862
2.85876
2.89871
2.93843
2.9779
3.01707
3.05591
3.09439
3.13245
3.17006
3.20718
3.24375
3.27975
3.31513
3.34984
3.38385
3.41711
3.44959
3.48124
3.51203
3.54193
3.5709
3.59891
3.62593
3.65192
3.67686
3.70072
3.72347
3.74509
3.76555
3.78484
3.80293
3.81979
3.83542
3.84978
3.86286
3.87463
3.88507
3.89415
3.90186
3.90816
3.91305
3.9165
3.91847
3.91897
3.918
3.9155
3.91149
3.90598
3.89898
3.89049
3.88055
3.86916
3.85636
3.84218
3.82665
3.80981
3.7917
3.77237
3.75187
3.73023
3.70751
3.68377
3.65905
3.6334
3.60688
3.57954
3.55144
3.52263
3.49317
3.46311
3.43252
3.40146
3.37
3.33822
3.30619
3.27398
3.24168
3.20939
3.17724
3.14536
3.11395
3.08314
3.05333
3.02429
2.98737
0.000599337
0.0123014
0.0347604
0.0451286
0.048527
0.0484818
0.0465481
0.0436796
0.0405109
0.0374573
0.0347769
0.0325996
0.0314119
0.03094
0.0318437
0.0354276
0.0429005
0.054625
0.0695838
0.0852526
0.0999464
0.111743
0.120973
0.129909
0.141824
0.158122
0.179417
0.205004
0.233863
0.265129
0.29795
0.331807
0.366316
0.401288
0.436631
0.472333
0.508433
0.544992
0.582089
0.619794
0.658178
0.697286
0.737139
0.777736
0.819056
0.861057
0.90368
0.946851
0.990489
1.0345
1.0788
1.1233
1.16792
1.21259
1.25724
1.30183
1.34632
1.39067
1.43488
1.47894
1.52285
1.56663
1.61027
1.65381
1.69727
1.74067
1.78402
1.82737
1.87072
1.9141
1.95752
2.001
2.04455
2.08819
2.13191
2.17572
2.21963
2.26363
2.30773
2.3519
2.39616
2.44048
2.48486
2.5293
2.57376
2.61825
2.66275
2.70723
2.75169
2.79609
2.84043
2.88468
2.92882
2.97282
3.01666
3.06031
3.10373
3.1469
3.18979
3.23234
3.27453
3.3163
3.35761
3.39842
3.43868
3.47834
3.51734
3.55565
3.59321
3.62998
3.66591
3.70096
3.73508
3.76823
3.80037
3.83147
3.86148
3.89037
3.91811
3.94466
3.97001
3.99412
4.01696
4.03851
4.05876
4.07768
4.09525
4.11146
4.12629
4.13971
4.15171
4.16226
4.17135
4.17894
4.18503
4.1896
4.19262
4.19406
4.19395
4.19225
4.18886
4.18387
4.17727
4.16908
4.15929
4.14794
4.13504
4.12063
4.10474
4.08741
4.06868
4.0486
4.02721
4.00457
3.98073
3.95575
3.92967
3.90256
3.87447
3.84547
3.81559
3.78491
3.75349
3.72137
3.68863
3.65533
3.62154
3.58733
3.55278
3.51797
3.48299
3.44794
3.41292
3.37806
3.34353
3.30952
3.27618
3.24386
3.21233
3.17418
0.00106821
0.0205301
0.0438346
0.0528945
0.0551506
0.0541565
0.0513547
0.0478606
0.0444169
0.0415056
0.0396058
0.0389409
0.0395109
0.0421474
0.0472808
0.0553044
0.0658857
0.0780411
0.0905242
0.10186
0.111641
0.120629
0.130916
0.144313
0.162067
0.184174
0.210041
0.23864
0.269122
0.300852
0.333364
0.366405
0.39984
0.433634
0.467811
0.502432
0.537586
0.573361
0.609855
0.647154
0.685328
0.724418
0.764453
0.805435
0.84735
0.890158
0.933805
0.978219
1.02332
1.06902
1.11521
1.16182
1.20875
1.25592
1.30325
1.35067
1.39815
1.44562
1.49307
1.54047
1.58781
1.63509
1.6823
1.72947
1.77658
1.82368
1.87076
1.91784
1.96495
2.0121
2.0593
2.10656
2.1539
2.20132
2.24882
2.29641
2.34408
2.39184
2.43968
2.48759
2.53556
2.58359
2.63165
2.67975
2.72785
2.77596
2.82405
2.87211
2.92011
2.96804
3.01588
3.0636
3.11118
3.1586
3.20583
3.25283
3.29958
3.34605
3.39219
3.43796
3.48331
3.52821
3.5726
3.61643
3.65965
3.70219
3.74402
3.78507
3.82529
3.86463
3.90303
3.94044
3.97682
4.01212
4.04629
4.0793
4.11109
4.14163
4.17089
4.19883
4.22542
4.25064
4.27445
4.29684
4.31779
4.33727
4.35529
4.37181
4.38684
4.40034
4.41231
4.42272
4.43157
4.43882
4.44447
4.44849
4.45088
4.45161
4.45073
4.44809
4.44368
4.43758
4.42977
4.42027
4.4091
4.39626
4.38179
4.36571
4.34807
4.32891
4.30828
4.28622
4.26278
4.23803
4.21202
4.18481
4.15646
4.12702
4.09657
4.06515
4.03284
3.99968
3.96575
3.9311
3.8958
3.85991
3.82352
3.78669
3.74951
3.71207
3.67445
3.63676
3.59912
3.56168
3.52458
3.48804
3.45219
3.4174
3.38338
3.34384
0.00168446
0.0284425
0.0523861
0.0607465
0.0623956
0.0606833
0.0573281
0.0537075
0.0506782
0.0490438
0.048596
0.0497064
0.0528916
0.0581381
0.0653233
0.0740387
0.0835592
0.093091
0.102119
0.110806
0.12019
0.131734
0.146497
0.16524
0.187767
0.213372
0.241226
0.270575
0.300897
0.331854
0.363251
0.395012
0.427135
0.459666
0.492687
0.526293
0.560593
0.595689
0.631689
0.668673
0.706711
0.745848
0.786116
0.82752
0.87005
0.91367
0.958331
1.00396
1.05049
1.09783
1.14587
1.19453
1.24372
1.29333
1.34329
1.39353
1.44397
1.49455
1.54524
1.59599
1.64679
1.6976
1.74843
1.79927
1.85013
1.90099
1.95188
2.0028
2.05376
2.10477
2.15584
2.20697
2.25817
2.30943
2.36077
2.41218
2.46365
2.51518
2.56676
2.61838
2.67004
2.72171
2.77338
2.82505
2.8767
2.9283
2.97985
3.03133
3.08272
3.13399
3.18514
3.23613
3.28694
3.33755
3.38793
3.43805
3.48788
3.53737
3.5865
3.63521
3.68346
3.7312
3.77837
3.82493
3.8708
3.91594
3.96029
4.00377
4.04635
4.08795
4.12851
4.16799
4.20632
4.24346
4.27935
4.31395
4.34721
4.37909
4.40955
4.43855
4.46606
4.49206
4.51651
4.53941
4.56072
4.58044
4.59856
4.61507
4.62996
4.64322
4.65484
4.66481
4.67311
4.67973
4.68466
4.68789
4.6894
4.68921
4.68736
4.68355
4.67796
4.6706
4.66146
4.65055
4.63788
4.62349
4.60738
4.5896
4.57019
4.5492
4.52666
4.50264
4.4772
4.45039
4.42227
4.39291
4.36238
4.33072
4.29802
4.26433
4.22971
4.19422
4.15794
4.12092
4.08323
4.04495
4.00613
3.96687
3.92725
3.88735
3.84727
3.80713
3.76704
3.72716
3.68764
3.64869
3.61043
3.57323
3.53681
3.49585
0.00260967
0.0358696
0.0612623
0.0692393
0.0704418
0.0681026
0.0644552
0.0611461
0.0593183
0.0587615
0.0596211
0.0624094
0.0667997
0.0725409
0.079264
0.0865314
0.0940112
0.10174
0.110254
0.120402
0.133089
0.149002
0.168355
0.190875
0.215878
0.242672
0.270663
0.299428
0.328716
0.358399
0.388436
0.41885
0.449705
0.481091
0.513115
0.545887
0.579526
0.61414
0.649829
0.68667
0.724735
0.764067
0.804701
0.846642
0.889883
0.934393
0.980127
1.02703
1.07501
1.124
1.1739
1.22461
1.27604
1.32809
1.38067
1.4337
1.48709
1.5408
1.59474
1.64888
1.70318
1.75761
1.81214
1.86675
1.92143
1.97617
2.03097
2.08583
2.14074
2.1957
2.25071
2.30578
2.36089
2.41605
2.47124
2.52647
2.58173
2.63699
2.69226
2.74752
2.80276
2.85796
2.9131
2.96818
3.02318
3.07807
3.13285
3.1875
3.242
3.29633
3.35048
3.40442
3.45812
3.51158
3.56475
3.6176
3.67012
3.72225
3.77395
3.82519
3.87591
3.92606
3.97558
4.02442
4.07252
4.1198
4.16622
4.2117
4.25617
4.29959
4.34187
4.38296
4.42281
4.46135
4.49852
4.53428
4.56858
4.60136
4.6326
4.66224
4.69025
4.71661
4.74128
4.76426
4.78552
4.80506
4.82288
4.83897
4.85333
4.86596
4.87685
4.886
4.8934
4.89906
4.90295
4.90508
4.90544
4.90416
4.90096
4.89582
4.88887
4.88009
4.86948
4.85705
4.84281
4.82679
4.80901
4.7895
4.76832
4.74551
4.72112
4.69521
4.66783
4.63906
4.60895
4.57758
4.545
4.51129
4.4765
4.44072
4.40399
4.36639
4.32798
4.28882
4.24898
4.20852
4.16753
4.12609
4.08426
4.04216
3.99987
3.95751
3.9152
3.8731
3.83136
3.79018
3.74968
3.71023
3.67153
3.62925
0.00366991
0.0441539
0.0705014
0.0781648
0.0789731
0.0759506
0.0720685
0.0694077
0.0683461
0.0682826
0.0700712
0.0732183
0.0774214
0.0824332
0.0880959
0.0944546
0.101847
0.110782
0.121885
0.135623
0.152375
0.172036
0.194237
0.218425
0.244018
0.270566
0.29775
0.32539
0.353404
0.381789
0.410583
0.439862
0.469726
0.500281
0.531647
0.56394
0.597277
0.631754
0.667466
0.704488
0.742886
0.782701
0.823961
0.866671
0.910825
0.956396
1.00335
1.05162
1.10115
1.15185
1.20364
1.25644
1.31014
1.36464
1.41987
1.47572
1.53212
1.58898
1.64624
1.70384
1.76172
1.81983
1.87813
1.93659
1.99518
2.05389
2.11267
2.17153
2.23045
2.28942
2.34842
2.40744
2.46647
2.52551
2.58452
2.64351
2.70246
2.76135
2.82017
2.87889
2.93751
2.99601
3.05437
3.11257
3.1706
3.22844
3.28608
3.34351
3.4007
3.45765
3.51434
3.57074
3.62684
3.68262
3.73804
3.79309
3.84773
3.90192
3.95562
4.00879
4.06138
4.11333
4.16458
4.21509
4.26477
4.31358
4.36144
4.40828
4.45404
4.49865
4.54203
4.58414
4.62489
4.66424
4.70211
4.73845
4.77322
4.80635
4.83781
4.86755
4.89553
4.92171
4.94609
4.96863
4.98934
5.00821
5.02524
5.04043
5.05379
5.06533
5.07506
5.08297
5.08908
5.09338
5.09588
5.09658
5.09561
5.0928
5.088
5.08135
5.07285
5.06249
5.05028
5.03622
5.02034
5.00265
4.98318
4.96197
4.93906
4.91449
4.88833
4.86064
4.83146
4.80088
4.76895
4.73575
4.70135
4.6658
4.62918
4.59156
4.553
4.51356
4.4733
4.4323
4.39061
4.34831
4.30546
4.26215
4.21845
4.17445
4.13027
4.086
4.04177
3.99773
3.95404
3.91089
3.86839
3.82692
3.78615
3.74276
0.00480641
0.0523435
0.0796568
0.0869992
0.08731
0.0833055
0.0789335
0.0763936
0.0754642
0.0754566
0.0772717
0.0801348
0.0840173
0.0889622
0.0952097
0.103083
0.112945
0.125134
0.139896
0.157245
0.176995
0.198738
0.222026
0.246429
0.271604
0.29734
0.32351
0.350083
0.377079
0.404559
0.432602
0.461309
0.490789
0.521155
0.552519
0.584979
0.618633
0.653565
0.689859
0.727576
0.766772
0.807482
0.849733
0.893534
0.938883
0.985761
1.03414
1.08396
1.13518
1.18773
1.24153
1.29651
1.35256
1.4096
1.46754
1.52627
1.58572
1.6458
1.70641
1.7675
1.82899
1.89082
1.95292
2.01526
2.07779
2.14045
2.20323
2.26609
2.32899
2.39192
2.45484
2.51774
2.58058
2.64335
2.70602
2.76857
2.83098
2.89323
2.95529
3.01715
3.07878
3.14017
3.20129
3.26214
3.3227
3.38295
3.44289
3.50249
3.56176
3.62067
3.67922
3.73739
3.79516
3.85253
3.90946
3.96593
4.02191
4.07737
4.13226
4.18655
4.24018
4.2931
4.34525
4.39658
4.44701
4.4965
4.54496
4.59234
4.63855
4.68354
4.72722
4.76954
4.81042
4.8498
4.88761
4.9238
4.95831
4.9911
5.0221
5.05126
5.07855
5.10392
5.12737
5.14887
5.16843
5.18605
5.20173
5.21548
5.22732
5.23727
5.24535
5.25157
5.25594
5.25849
5.25922
5.25827
5.25554
5.25083
5.24429
5.2359
5.22566
5.21358
5.19967
5.18392
5.16635
5.14699
5.12586
5.10299
5.07844
5.05225
5.02447
4.99516
4.96439
4.93222
4.89872
4.86397
4.82802
4.79094
4.75282
4.71369
4.67364
4.63273
4.59101
4.54855
4.50541
4.46165
4.41735
4.37257
4.3274
4.28191
4.23622
4.19043
4.14466
4.09905
4.05376
4.00898
3.96479
3.92162
3.87904
3.83484
0.00604542
0.0604552
0.0884373
0.0953956
0.094833
0.0895731
0.0844739
0.0817452
0.0807543
0.0807228
0.0828712
0.0864151
0.091571
0.0984672
0.107287
0.118208
0.131366
0.146853
0.164538
0.184169
0.205408
0.227909
0.251368
0.275563
0.300338
0.325634
0.351438
0.377787
0.404735
0.432346
0.460711
0.489922
0.520081
0.551277
0.583603
0.617139
0.65197
0.68816
0.725778
0.76487
0.805485
0.84765
0.891394
0.936728
0.983659
1.03218
1.08227
1.1339
1.18702
1.2416
1.29755
1.35481
1.4133
1.47292
1.53359
1.59522
1.6577
1.72095
1.78487
1.84939
1.91441
1.97986
2.04566
2.11175
2.17807
2.24455
2.31114
2.37779
2.44446
2.51109
2.57766
2.64412
2.71043
2.77656
2.84247
2.90813
2.97351
3.03859
3.10333
3.16771
3.23171
3.2953
3.35848
3.42122
3.4835
3.54534
3.6067
3.6676
3.72801
3.78795
3.84739
3.90635
3.9648
4.02273
4.08014
4.13699
4.19326
4.24892
4.30393
4.35826
4.41185
4.46465
4.51661
4.56768
4.61778
4.66687
4.71487
4.76172
4.80734
4.85166
4.89462
4.93615
4.97619
5.01466
5.05148
5.08661
5.11998
5.15158
5.18129
5.20907
5.23489
5.25871
5.2805
5.30027
5.31802
5.33374
5.34745
5.35918
5.36894
5.37676
5.38271
5.38675
5.38896
5.38933
5.3881
5.38505
5.38012
5.37339
5.36487
5.35455
5.34245
5.32855
5.31286
5.2954
5.27616
5.25519
5.23249
5.2081
5.18207
5.15444
5.12527
5.09461
5.06253
5.02909
4.99436
4.95841
4.9213
4.8831
4.84388
4.80369
4.7626
4.72068
4.67796
4.63452
4.59041
4.54569
4.50042
4.45468
4.40852
4.36204
4.31532
4.26848
4.22163
4.1749
4.12845
4.08245
4.03698
3.99251
3.94846
3.90383
0.00749068
0.0678644
0.0962836
0.102786
0.100816
0.0941208
0.0885765
0.0857671
0.0851086
0.0863951
0.0900917
0.0956234
0.103142
0.112654
0.124297
0.138318
0.154912