/*--------------------------------*- C++ -*----------------------------------*\
  =========                 |
  \\      /  F ield         | OpenFOAM: The Open Source CFD Toolbox
   \\    /   O peration     | Website:  https://openfoam.org
    \\  /    A nd           | Version:  8
     \\/     M anipulation  |
\*---------------------------------------------------------------------------*/
FoamFile
{
    version     2.0;
    format      ascii;
    class       volScalarField;
    location    "900";
    object      p;
}
// * * * * * * * * * * * * * * * * * * * * * * * * * * * * * * * * * * * * * //

dimensions      [0 2 -2 0 0 0 0];

internalField   nonuniform List<scalar> 
12225
(
-1.46342
-3.72873
-4.87828
-5.20248
-5.39066
-5.56893
-5.72105
-5.82615
-5.90172
-5.98227
-6.04264
-6.08769
-6.13379
-6.2045
-6.28232
-6.32253
-6.39124
-6.36933
-4.51223
-5.4345
-5.70354
-5.64017
-5.61763
-5.67722
-5.75558
-5.83434
-5.90894
-5.96401
-6.01823
-6.08021
-6.15045
-6.19994
-6.23099
-6.28077
-6.34364
-6.44434
-4.89061
-4.97218
-5.16396
-5.2868
-5.40259
-5.5456
-5.67853
-5.787
-5.87168
-5.9362
-6.00324
-6.07365
-6.14056
-6.18678
-6.2224
-6.27505
-6.34457
-6.44061
-4.85862
-4.83772
-5.14841
-5.36644
-5.49226
-5.61213
-5.72215
-5.81065
-5.88195
-5.94369
-6.00771
-6.07228
-6.13235
-6.18027
-6.22394
-6.27891
-6.34749
-6.42831
-4.89595
-4.94481
-5.22901
-5.41617
-5.51418
-5.61223
-5.71177
-5.79757
-5.87059
-5.93603
-6.0002
-6.06293
-6.12178
-6.17361
-6.22336
-6.27981
-6.34514
-6.41715
-4.98009
-5.04817
-5.26017
-5.41907
-5.51586
-5.612
-5.71023
-5.79681
-5.87085
-5.93686
-5.99986
-6.06092
-6.11898
-6.17275
-6.22531
-6.28156
-6.34309
-6.40791
-5.06148
-5.11953
-5.2801
-5.42542
-5.52634
-5.62042
-5.71442
-5.7987
-5.87163
-5.93712
-5.9993
-6.0594
-6.11693
-6.17147
-6.22495
-6.28012
-6.33793
-6.39674
-5.12355
-5.17231
-5.30481
-5.43802
-5.53757
-5.62795
-5.71759
-5.79959
-5.87177
-5.93716
-5.99901
-6.05847
-6.11537
-6.16974
-6.22298
-6.27675
-6.33164
-6.38631
-5.17513
-5.21824
-5.33048
-5.45111
-5.5474
-5.63457
-5.72063
-5.80066
-5.87219
-5.93739
-5.99882
-6.05756
-6.11374
-6.16762
-6.22023
-6.2726
-6.32507
-6.3764
-5.22871
-5.2666
-5.36003
-5.46701
-5.55883
-5.64254
-5.72473
-5.80228
-5.87276
-5.93741
-5.99817
-6.05606
-6.11135
-6.16444
-6.21606
-6.26682
-6.31683
-6.36517
-5.28328
-5.31594
-5.39292
-5.48642
-5.57249
-5.65215
-5.73004
-5.80451
-5.87338
-5.93706
-5.99694
-6.05384
-6.10811
-6.16023
-6.21058
-6.25958
-6.30723
-6.35273
-5.33784
-5.3653
-5.4285
-5.50921
-5.58833
-5.66324
-5.73655
-5.80746
-5.87413
-5.93643
-5.99511
-6.05086
-6.10406
-6.15498
-6.20395
-6.25114
-6.29647
-6.33951
-5.39066
-5.41358
-5.4655
-5.53453
-5.606
-5.67561
-5.74417
-5.81114
-5.87516
-5.93558
-5.99281
-6.04723
-6.09917
-6.14878
-6.19627
-6.24161
-6.28487
-6.32566
-5.44037
-5.45933
-5.5022
-5.56102
-5.62479
-5.6888
-5.75254
-5.8155
-5.87643
-5.93469
-5.99013
-6.04306
-6.09354
-6.14173
-6.1876
-6.23121
-6.27255
-6.31144
-5.48473
-5.50055
-5.53636
-5.58673
-5.64336
-5.70187
-5.76102
-5.82001
-5.87781
-5.93362
-5.98714
-6.03835
-6.08726
-6.13387
-6.17815
-6.22012
-6.25979
-6.29712
-5.52106
-5.53451
-5.5651
-5.60896
-5.65965
-5.71331
-5.76835
-5.8238
-5.87865
-5.93206
-5.9836
-6.03305
-6.08034
-6.12539
-6.16818
-6.2087
-6.24699
-6.28305
-5.54559
-5.55747
-5.58463
-5.62412
-5.67062
-5.72069
-5.77264
-5.82536
-5.87783
-5.92922
-5.97903
-6.02693
-6.0728
-6.11652
-6.15806
-6.19742
-6.23465
-6.26977
-5.5524
-5.56365
-5.5895
-5.62726
-5.67213
-5.72069
-5.77132
-5.82273
-5.87408
-5.92438
-5.97324
-6.02021
-6.06524
-6.10811
-6.1489
-6.18752
-6.2241
-6.25862
-5.54084
-5.55242
-5.57892
-5.6177
-5.66356
-5.71301
-5.76415
-5.81604
-5.86758
-5.91808
-5.96688
-6.01381
-6.05861
-6.10131
-6.1418
-6.18019
-6.21647
-6.25078
-5.51594
-5.52836
-5.55705
-5.59899
-5.64813
-5.70019
-5.75343
-5.80694
-5.85987
-5.91132
-5.96087
-6.00825
-6.0534
-6.09626
-6.13687
-6.17526
-6.21154
-6.2458
-5.48104
-5.49475
-5.52693
-5.57419
-5.62844
-5.6844
-5.74073
-5.79693
-5.85198
-5.905
-5.95564
-6.00383
-6.04956
-6.09282
-6.1337
-6.17227
-6.20867
-6.24302
-5.43903
-5.45359
-5.49056
-5.54581
-5.60686
-5.6673
-5.72729
-5.78688
-5.84464
-5.89959
-5.95158
-6.00076
-6.04718
-6.09092
-6.13208
-6.17086
-6.20736
-6.2418
-5.39188
-5.40637
-5.44908
-5.51548
-5.58507
-5.65054
-5.71467
-5.77791
-5.83839
-5.89524
-5.94865
-5.9989
-6.04608
-6.09033
-6.13183
-6.17082
-6.2075
-6.24206
-5.34201
-5.35459
-5.40544
-5.48458
-5.56205
-5.63336
-5.70342
-5.77122
-5.83436
-5.89278
-5.94733
-5.99838
-6.04605
-6.09055
-6.13217
-6.1712
-6.20786
-6.24237
-5.28917
-5.29454
-5.36699
-5.462
-5.54059
-5.61423
-5.69078
-5.76426
-5.8308
-5.8914
-5.94754
-5.9997
-6.04801
-6.09284
-6.13458
-6.17362
-6.21024
-6.24483
-5.24186
-5.20199
-5.32157
-5.45323
-5.53463
-5.60587
-5.68341
-5.75824
-5.82539
-5.88654
-5.94336
-5.9961
-6.04486
-6.09002
-6.13202
-6.17125
-6.20804
-6.24269
-5.25674
-5.08042
-5.21613
-5.39633
-5.51288
-5.60678
-5.69604
-5.77501
-5.84306
-5.90396
-5.95992
-6.01137
-6.0586
-6.10222
-6.14269
-6.1805
-6.21612
-6.2502
-5.3857
-5.15701
-5.16582
-5.25042
-5.35732
-5.48092
-5.59917
-5.69927
-5.78395
-5.85855
-5.92543
-5.98524
-6.03887
-6.0873
-6.13141
-6.17189
-6.20957
-6.24537
-5.1101
-5.68049
-5.82013
-5.72396
-5.67559
-5.70931
-5.76733
-5.82244
-5.87473
-5.92675
-5.97751
-6.02546
-6.07018
-6.11185
-6.1507
-6.18683
-6.22075
-6.25391
-2.0846
-3.81028
-4.8186
-5.14531
-5.31763
-5.48769
-5.63064
-5.73704
-5.82117
-5.89375
-5.95801
-6.01481
-6.06535
-6.11086
-6.15214
-6.18949
-6.223
-6.25128
-7.41469
-7.41479
-7.41482
-7.41475
-7.41433
-7.41311
-7.41087
-7.40812
-7.40561
-7.40401
-7.40383
-7.4049
-7.40668
-7.40853
-7.40998
-7.41084
-7.41119
-7.4112
-7.41101
-7.41077
-7.41054
-7.41033
-7.4101
-7.40977
-7.40933
-7.40876
-7.40807
-7.40743
-7.40717
-7.40769
-7.40906
-7.4109
-7.41291
-7.41512
-7.418
-7.42124
-7.42374
-7.42501
-7.42721
-7.43408
-7.4492
-7.4724
-7.5034
-7.54261
-7.59089
-7.64817
-7.71284
-7.78268
-7.85469
-7.92625
-7.99613
-8.06299
-8.12536
-8.18277
-8.23442
-8.28008
-8.32024
-8.35507
-8.38467
-8.40945
-8.42965
-8.4456
-8.45752
-8.46563
-8.4701
-8.4711
-8.46872
-8.46306
-8.45418
-8.44213
-8.42692
-8.40856
-8.38706
-8.36237
-8.33449
-8.30336
-8.26895
-8.23119
-8.19005
-8.14545
-8.09735
-8.04566
-7.99033
-7.93124
-7.86835
-7.80151
-7.7307
-7.65583
-7.57689
-7.49381
-7.40646
-7.31477
-7.2187
-7.11828
-7.01341
-6.90373
-6.78908
-6.66955
-6.54514
-6.4158
-6.28151
-6.14221
-5.99787
-5.84845
-5.69393
-5.53428
-5.36952
-5.19961
-5.02459
-4.84445
-4.65922
-4.46893
-4.27362
-4.07333
-3.86813
-3.65807
-3.44323
-3.22369
-2.99953
-2.77088
-2.53781
-2.30048
-2.05898
-1.81349
-1.56412
-1.31106
-1.05446
-0.794517
-0.531394
-0.265306
0.00353588
0.274865
0.548437
0.824008
1.10136
1.38024
1.66036
1.94142
2.22312
2.50515
2.78725
3.06914
3.35051
3.63107
3.9105
4.18853
4.46484
4.73919
5.0113
5.28094
5.54786
5.81182
6.07261
6.33002
6.58386
6.83394
7.0801
7.32218
7.56003
7.79353
8.02255
8.24698
8.46671
8.68167
8.89175
9.09689
9.29701
9.49202
9.68205
9.86719
10.0472
10.2219
10.3913
10.5555
10.7147
10.8692
11.02
11.1677
11.32
11.4679
-7.41582
-7.41599
-7.41627
-7.41645
-7.41622
-7.41524
-7.41337
-7.41118
-7.4096
-7.40918
-7.40996
-7.41159
-7.41356
-7.41533
-7.41653
-7.41696
-7.41655
-7.41545
-7.41397
-7.41245
-7.41113
-7.41011
-7.40931
-7.40863
-7.40797
-7.40738
-7.40702
-7.40702
-7.40763
-7.40916
-7.41119
-7.41269
-7.41267
-7.41109
-7.41006
-7.41239
-7.41787
-7.4233
-7.42968
-7.43957
-7.45395
-7.47557
-7.50791
-7.55271
-7.60914
-7.67457
-7.74591
-7.81988
-7.89391
-7.96663
-8.03577
-8.09962
-8.15803
-8.21056
-8.25771
-8.2999
-8.33651
-8.36782
-8.3944
-8.41656
-8.43458
-8.4487
-8.45912
-8.46601
-8.46951
-8.46974
-8.46675
-8.46064
-8.45141
-8.43912
-8.42376
-8.40532
-8.3838
-8.35915
-8.33136
-8.30036
-8.26612
-8.22858
-8.18768
-8.14336
-8.09556
-8.04421
-7.98924
-7.93057
-7.86812
-7.80179
-7.73151
-7.65722
-7.57887
-7.49636
-7.40959
-7.31844
-7.22281
-7.12253
-7.01752
-6.9079
-6.79371
-6.67481
-6.55109
-6.42247
-6.28892
-6.15037
-6.0068
-5.85816
-5.70443
-5.54559
-5.38163
-5.21255
-5.03836
-4.85906
-4.67467
-4.48523
-4.29078
-4.09135
-3.88701
-3.67782
-3.46384
-3.24516
-3.02188
-2.79407
-2.56187
-2.32537
-2.08472
-1.84005
-1.5915
-1.33924
-1.08343
-0.824247
-0.561879
-0.296516
-0.0283798
0.242279
0.515213
0.790184
1.06697
1.34532
1.62496
1.90557
2.18687
2.46855
2.75034
3.03198
3.31315
3.59355
3.87288
4.15085
4.42716
4.70155
4.97376
5.24354
5.51065
5.77485
6.03593
6.29366
6.54787
6.79836
7.04497
7.28754
7.52591
7.75997
7.98958
8.21464
8.43503
8.65067
8.86152
9.06752
9.26855
9.46453
9.6552
9.84041
10.0203
10.195
10.3646
10.529
10.6886
10.8437
10.9955
11.1441
11.2986
11.444
-7.41716
-7.41712
-7.41708
-7.41706
-7.41707
-7.41715
-7.41759
-7.4187
-7.42063
-7.42326
-7.4262
-7.42903
-7.43133
-7.43277
-7.43311
-7.43229
-7.43034
-7.42736
-7.42357
-7.41926
-7.41476
-7.41041
-7.40654
-7.40336
-7.40103
-7.39965
-7.39951
-7.40068
-7.40274
-7.405
-7.40639
-7.40728
-7.40861
-7.40971
-7.41148
-7.41724
-7.428
-7.44364
-7.46509
-7.49276
-7.52658
-7.56684
-7.61371
-7.66672
-7.72464
-7.78573
-7.84827
-7.91069
-7.97182
-8.03089
-8.08706
-8.13959
-8.18812
-8.23235
-8.27233
-8.30825
-8.34005
-8.36778
-8.39158
-8.41161
-8.42798
-8.44084
-8.45031
-8.4565
-8.4595
-8.45937
-8.45616
-8.44992
-8.44068
-8.42842
-8.41317
-8.39489
-8.37357
-8.34917
-8.32166
-8.29098
-8.2571
-8.21994
-8.17946
-8.13558
-8.08825
-8.0374
-7.98295
-7.92482
-7.86295
-7.79724
-7.72761
-7.654
-7.57634
-7.49456
-7.40854
-7.3182
-7.22345
-7.12416
-7.02022
-6.91163
-6.7984
-6.68045
-6.55771
-6.4301
-6.29757
-6.16008
-6.01757
-5.87002
-5.7174
-5.55969
-5.39688
-5.22896
-5.05593
-4.87782
-4.69463
-4.50641
-4.31318
-4.11498
-3.91188
-3.70393
-3.4912
-3.27377
-3.05174
-2.82519
-2.59424
-2.35899
-2.11958
-1.87613
-1.62881
-1.37774
-1.12312
-0.86511
-0.603889
-0.339646
-0.0726055
0.196995
0.468906
0.742902
1.01875
1.29621
1.575
1.85483
2.13538
2.41637
2.69755
2.97863
3.25929
3.53924
3.81819
4.09582
4.37187
4.64605
4.91811
5.18779
5.45486
5.71907
5.9802
6.23804
6.4924
6.74308
6.98992
7.23275
7.47142
7.70581
7.93577
8.1612
8.38199
8.59804
8.80922
9.01544
9.21666
9.41284
9.6039
9.78983
9.97065
10.1463
10.3168
10.4824
10.6431
10.7995
10.9529
11.1026
11.2589
11.3973
-7.41858
-7.41822
-7.41781
-7.41807
-7.41993
-7.42355
-7.42834
-7.43361
-7.43879
-7.44349
-7.44742
-7.45033
-7.45205
-7.45243
-7.45144
-7.44906
-7.44527
-7.44014
-7.43387
-7.42671
-7.41898
-7.41107
-7.4035
-7.39692
-7.39211
-7.38957
-7.38974
-7.39224
-7.39539
-7.39788
-7.40009
-7.4035
-7.40938
-7.41858
-7.43249
-7.45174
-7.47623
-7.50579
-7.5402
-7.57881
-7.62087
-7.6658
-7.71312
-7.76253
-7.81372
-7.86614
-7.91908
-7.97179
-8.02357
-8.0738
-8.12186
-8.16723
-8.20953
-8.24849
-8.28398
-8.31597
-8.34442
-8.36938
-8.39092
-8.40909
-8.42398
-8.43566
-8.44422
-8.4497
-8.45216
-8.45166
-8.44821
-8.44183
-8.43253
-8.42031
-8.40515
-8.38702
-8.36591
-8.34177
-8.31455
-8.28421
-8.25069
-8.21394
-8.17389
-8.13048
-8.08364
-8.0333
-7.97939
-7.92184
-7.86057
-7.79548
-7.72651
-7.65357
-7.57662
-7.49554
-7.41024
-7.32062
-7.2266
-7.1281
-7.02504
-6.91738
-6.80509
-6.6881
-6.56632
-6.4397
-6.30819
-6.17172
-6.03026
-5.88377
-5.73222
-5.5756
-5.41389
-5.24709
-5.0752
-4.89823
-4.71621
-4.52915
-4.33709
-4.14008
-3.93817
-3.73142
-3.51989
-3.30367
-3.08285
-2.8575
-2.62775
-2.3937
-2.15549
-1.91323
-1.66707
-1.41717
-1.1637
-0.906804
-0.646683
-0.383522
-0.117539
0.151035
0.421958
0.695012
0.969961
1.24656
1.52453
1.80358
2.08341
2.36374
2.64432
2.92485
3.20501
3.48451
3.76306
4.04037
4.31613
4.59009
4.86198
5.13155
5.39854
5.66273
5.92388
6.18179
6.43625
6.68708
6.9341
7.17715
7.41606
7.6507
7.88094
8.10667
8.32776
8.54414
8.75568
8.9623
9.16395
9.36059
9.55221
9.73886
9.92045
10.0969
10.2683
10.4346
10.5963
10.7535
10.9077
11.0573
11.2128
11.3417
-7.42161
-7.42082
-7.42067
-7.42343
-7.42939
-7.43693
-7.44463
-7.45179
-7.45799
-7.46293
-7.46647
-7.46858
-7.46926
-7.46849
-7.46626
-7.46252
-7.45726
-7.45057
-7.44258
-7.43347
-7.42352
-7.41317
-7.40314
-7.39459
-7.38888
-7.38681
-7.38753
-7.38892
-7.39089
-7.39495
-7.4024
-7.41413
-7.43099
-7.45331
-7.48055
-7.51155
-7.54549
-7.58197
-7.62052
-7.66079
-7.70263
-7.74596
-7.79064
-7.8365
-7.88323
-7.93042
-7.97756
-8.02414
-8.06967
-8.11366
-8.15569
-8.19541
-8.23255
-8.26692
-8.29839
-8.32687
-8.3523
-8.3747
-8.39407
-8.41045
-8.42385
-8.43433
-8.44191
-8.44662
-8.44848
-8.44752
-8.44374
-8.43714
-8.42771
-8.41544
-8.40029
-8.38225
-8.36126
-8.33729
-8.31028
-8.28019
-8.24696
-8.21053
-8.17083
-8.1278
-8.08137
-8.03146
-7.97801
-7.92094
-7.86017
-7.79562
-7.7272
-7.65486
-7.5785
-7.49806
-7.4134
-7.32446
-7.23115
-7.13338
-7.03109
-6.92424
-6.81275
-6.69657
-6.57563
-6.44984
-6.31918
-6.18357
-6.04299
-5.89738
-5.74674
-5.59102
-5.43024
-5.26437
-5.09342
-4.9174
-4.73633
-4.55023
-4.35915
-4.16312
-3.9622
-3.75644
-3.54591
-3.33069
-3.11085
-2.88652
-2.65776
-2.42471
-2.18748
-1.94621
-1.70102
-1.45209
-1.19956
-0.943602
-0.684391
-0.422133
-0.157025
0.110694
0.380804
0.653077
0.927288
1.20317
1.48047
1.75887
2.03811
2.31792
2.598
2.87807
3.15782
3.43696
3.71519
3.99222
4.26776
4.54153
4.81328
5.08275
5.34969
5.61386
5.87504
6.13301
6.38756
6.63852
6.88569
7.12891
7.36803
7.60292
7.83344
8.05946
8.28088
8.49759
8.7095
8.91654
9.11863
9.31573
9.50782
9.69491
9.87694
10.0538
10.2256
10.3924
10.5545
10.7119
10.866
11.0144
11.1677
11.2867
-7.42661
-7.42581
-7.42755
-7.43422
-7.44324
-7.45223
-7.46043
-7.46742
-7.473
-7.47718
-7.47999
-7.48141
-7.48141
-7.47994
-7.47698
-7.47249
-7.46649
-7.459
-7.45013
-7.44007
-7.42919
-7.41809
-7.40788
-7.40033
-7.39625
-7.39435
-7.39374
-7.39528
-7.40058
-7.41119
-7.42793
-7.45038
-7.47747
-7.50817
-7.5416
-7.5771
-7.6142
-7.6526
-7.69209
-7.73251
-7.77377
-7.81574
-7.85826
-7.90112
-7.9441
-7.9869
-8.0292
-8.07069
-8.11103
-8.14992
-8.18706
-8.22221
-8.25516
-8.28574
-8.31383
-8.33934
-8.36219
-8.38237
-8.39984
-8.41461
-8.42667
-8.43603
-8.44269
-8.44666
-8.44794
-8.44653
-8.4424
-8.43556
-8.42597
-8.4136
-8.39843
-8.38041
-8.3595
-8.33564
-8.30879
-8.27889
-8.24588
-8.2097
-8.17028
-8.12755
-8.08144
-8.03189
-7.97881
-7.92214
-7.86179
-7.79768
-7.72973
-7.65787
-7.58202
-7.5021
-7.41799
-7.32962
-7.2369
-7.13976
-7.03812
-6.93192
-6.82109
-6.70558
-6.5853
-6.46019
-6.33021
-6.19529
-6.0554
-5.9105
-5.76056
-5.60557
-5.4455
-5.28036
-5.11014
-4.93486
-4.75454
-4.5692
-4.37888
-4.18362
-3.98347
-3.77848
-3.56873
-3.35429
-3.13525
-2.91169
-2.68372
-2.45146
-2.21501
-1.97451
-1.7301
-1.48193
-1.23015
-0.974925
-0.716442
-0.454895
-0.190487
0.0765551
0.34602
0.617682
0.891307
1.16663
1.44339
1.72129
2.00006
2.27945
2.55915
2.83886
3.11828
3.39712
3.67508
3.95188
4.22722
4.50084
4.77246
5.04183
5.3087
5.57284
5.834
6.09198
6.34658
6.5976
6.84487
7.08822
7.3275
7.56255
7.79326
8.01949
8.24114
8.4581
8.67029
8.87761
9.07999
9.2774
9.46979
9.65716
9.83943
10.0166
10.1886
10.3556
10.5177
10.6749
10.8283
10.9749
11.1259
11.2353
-7.43174
-7.4321
-7.43714
-7.44622
-7.45562
-7.46404
-7.47133
-7.47747
-7.48244
-7.48621
-7.48868
-7.48978
-7.48945
-7.48767
-7.4844
-7.4796
-7.47335
-7.46571
-7.45683
-7.44699
-7.43677
-7.4272
-7.41948
-7.41411
-7.41055
-7.40874
-7.41001
-7.41623
-7.42879
-7.44769
-7.47183
-7.50003
-7.53133
-7.56502
-7.60045
-7.63724
-7.67511
-7.71385
-7.75324
-7.79311
-7.83327
-7.87359
-7.91391
-7.95409
-7.99395
-8.0333
-8.07192
-8.10959
-8.14609
-8.1812
-8.2147
-8.24641
-8.27616
-8.3038
-8.32924
-8.35238
-8.37315
-8.3915
-8.40739
-8.42081
-8.43173
-8.44013
-8.44599
-8.44931
-8.45007
-8.44824
-8.4438
-8.43672
-8.42696
-8.4145
-8.39928
-8.38126
-8.36038
-8.33661
-8.30987
-8.2801
-8.24726
-8.21126
-8.17205
-8.12955
-8.0837
-8.03441
-7.98163
-7.92527
-7.86525
-7.80149
-7.73392
-7.66245
-7.58701
-7.50751
-7.42384
-7.33593
-7.24369
-7.14704
-7.04591
-6.94023
-6.82993
-6.71493
-6.59517
-6.47059
-6.34112
-6.20673
-6.06736
-5.92299
-5.77358
-5.61912
-5.45959
-5.29499
-5.12532
-4.95059
-4.77083
-4.58605
-4.39629
-4.2016
-4.00203
-3.79762
-3.58846
-3.37461
-3.15617
-2.9332
-2.70584
-2.47416
-2.23832
-1.99841
-1.7546
-1.50701
-1.25581
-1.00115
-0.743236
-0.482237
-0.218378
0.0481461
0.317113
0.588309
0.861478
1.13637
1.41271
1.69022
1.96865
2.24771
2.52711
2.80654
3.0857
3.36431
3.64206
3.91866
4.19384
4.46731
4.7388
5.00807
5.27484
5.53891
5.80003
6.05798
6.31258
6.56362
6.81092
7.05432
7.29366
7.5288
7.7596
7.98595
8.20773
8.42483
8.63717
8.84465
9.04721
9.24479
9.43736
9.62487
9.80728
9.98454
10.1566
10.3236
10.4855
10.6423
10.7947
10.9393
11.0879
11.1886
-7.43467
-7.43702
-7.44474
-7.4539
-7.46221
-7.46964
-7.47627
-7.48201
-7.48676
-7.49037
-7.49274
-7.49377
-7.49341
-7.49164
-7.48844
-7.48384
-7.47789
-7.47073
-7.46265
-7.45416
-7.44604
-7.439
-7.43335
-7.42931
-7.42752
-7.42918
-7.43598
-7.44889
-7.46748
-7.49079
-7.51791
-7.54809
-7.58068
-7.61515
-7.65106
-7.68803
-7.7258
-7.76412
-7.8028
-7.84165
-7.88052
-7.91926
-7.95776
-7.99587
-8.03343
-8.0703
-8.10629
-8.14126
-8.17503
-8.20743
-8.23829
-8.26748
-8.29486
-8.32032
-8.34376
-8.3651
-8.38427
-8.40121
-8.41588
-8.42824
-8.43826
-8.4459
-8.45114
-8.45394
-8.45427
-8.45211
-8.44741
-8.44014
-8.43025
-8.4177
-8.40243
-8.38439
-8.36354
-8.33981
-8.31314
-8.28346
-8.25073
-8.21486
-8.17579
-8.13346
-8.08779
-8.03871
-7.98614
-7.93
-7.87023
-7.80674
-7.73945
-7.66827
-7.59315
-7.51397
-7.43064
-7.34308
-7.25121
-7.15494
-7.0542
-6.9489
-6.83898
-6.72436
-6.60498
-6.48077
-6.35168
-6.21765
-6.07866
-5.93465
-5.78561
-5.63152
-5.47236
-5.30813
-5.13883
-4.96449
-4.78511
-4.60072
-4.41136
-4.21707
-4.0179
-3.81392
-3.60517
-3.39175
-3.17373
-2.9512
-2.72427
-2.49304
-2.25763
-2.01817
-1.7748
-1.52765
-1.27687
-1.02265
-0.765156
-0.504581
-0.241134
0.0249981
0.293597
0.564438
0.837265
1.11183
1.38785
1.66507
1.94324
2.22206
2.50122
2.78044
3.0594
3.33782
3.6154
3.89184
4.16686
4.44019
4.71156
4.98072
5.2474
5.51139
5.77243
6.03034
6.28488
6.53589
6.78316
7.02655
7.2659
7.50105
7.73188
7.95827
8.18009
8.39726
8.60967
8.81724
9.01989
9.21757
9.41022
9.59779
9.78024
9.95749
10.1295
10.2963
10.4579
10.614
10.7652
10.9078
11.0542
11.147
-7.43355
-7.43787
-7.44618
-7.45429
-7.46175
-7.46871
-7.47511
-7.48081
-7.48563
-7.4894
-7.49197
-7.49323
-7.49314
-7.49166
-7.48881
-7.48465
-7.47933
-7.47312
-7.46651
-7.46005
-7.45414
-7.44913
-7.44557
-7.4443
-7.44653
-7.4535
-7.46565
-7.48267
-7.50398
-7.52903
-7.55723
-7.58802
-7.62088
-7.65537
-7.6911
-7.72773
-7.765
-7.80267
-7.84055
-7.87847
-7.91628
-7.95384
-7.99099
-8.02761
-8.06355
-8.09868
-8.13287
-8.16598
-8.19786
-8.22839
-8.25743
-8.28488
-8.31062
-8.33456
-8.3566
-8.37668
-8.39472
-8.41068
-8.4245
-8.43612
-8.44551
-8.45263
-8.45743
-8.45988
-8.45993
-8.45754
-8.45267
-8.44527
-8.4353
-8.42268
-8.40738
-8.38933
-8.36848
-8.34477
-8.31814
-8.28851
-8.25584
-8.22005
-8.18107
-8.13883
-8.09327
-8.04431
-7.99188
-7.9359
-7.8763
-7.81299
-7.74589
-7.67493
-7.60002
-7.52107
-7.43798
-7.35067
-7.25906
-7.16305
-7.06257
-6.95753
-6.84787
-6.7335
-6.61437
-6.4904
-6.36154
-6.22775
-6.08898
-5.94519
-5.79638
-5.6425
-5.48357
-5.31956
-5.1505
-4.97638
-4.79724
-4.61309
-4.42398
-4.22995
-4.03104
-3.82733
-3.61886
-3.40572
-3.18799
-2.96576
-2.73912
-2.50821
-2.2731
-2.03396
-1.79089
-1.54406
-1.29359
-1.03968
-0.782491
-0.522232
-0.259075
0.00677335
0.275113
0.54569
0.81827
1.09259
1.36839
1.6454
1.92338
2.20202
2.481
2.76004
3.03884
3.3171
3.59452
3.87082
4.14571
4.41892
4.69017
4.95921
5.22579
5.48967
5.75062
6.00843
6.26289
6.51381
6.76102
7.00435
7.24364
7.47874
7.70954
7.9359
8.15771
8.37487
8.58729
8.79487
8.99755
9.19525
9.3879
9.57546
9.75786
9.93503
10.1069
10.2734
10.4345
10.5898
10.7398
10.8803
11.0247
11.1106
-7.42578
-7.43121
-7.43889
-7.44642
-7.45376
-7.46079
-7.4674
-7.47342
-7.47863
-7.48281
-7.4858
-7.48749
-7.48783
-7.48678
-7.48439
-7.48088
-7.47658
-7.4718
-7.46685
-7.46211
-7.45808
-7.45537
-7.45477
-7.4574
-7.46404
-7.47489
-7.48988
-7.50889
-7.53156
-7.55745
-7.58611
-7.61706
-7.64986
-7.68413
-7.71952
-7.75572
-7.7925
-7.82962
-7.8669
-7.90417
-7.94125
-7.97799
-8.01424
-8.04988
-8.08479
-8.11882
-8.15187
-8.18381
-8.21451
-8.24388
-8.2718
-8.29818
-8.32291
-8.34592
-8.36712
-8.38645
-8.40383
-8.41922
-8.43254
-8.44376
-8.45281
-8.45965
-8.46423
-8.46649
-8.4664
-8.4639
-8.45895
-8.45149
-8.44147
-8.42883
-8.41351
-8.39546
-8.37462
-8.35092
-8.3243
-8.2947
-8.26204
-8.22628
-8.18733
-8.14514
-8.09962
-8.05072
-7.99836
-7.94246
-7.88295
-7.81974
-7.75275
-7.68191
-7.60713
-7.52832
-7.44537
-7.35821
-7.26674
-7.17089
-7.07057
-6.96568
-6.85616
-6.74193
-6.62292
-6.49907
-6.37032
-6.23663
-6.09796
-5.95428
-5.80555
-5.65177
-5.49292
-5.32901
-5.16004
-4.98603
-4.807
-4.62297
-4.43399
-4.24009
-4.04133
-3.83776
-3.62946
-3.41649
-3.19893
-2.97689
-2.75045
-2.51972
-2.28482
-2.04589
-1.80303
-1.5564
-1.30615
-1.05246
-0.795496
-0.535454
-0.272502
-0.00684352
0.261306
0.531698
0.804095
1.07824
1.35387
1.63073
1.90857
2.18706
2.46591
2.74482
3.02348
3.30161
3.57891
3.85508
4.12984
4.40292
4.67405
4.94296
5.20941
5.47316
5.73398
5.99166
6.246
6.4968
6.7439
6.98711
7.2263
7.46131
7.69202
7.9183
8.14004
8.35714
8.5695
8.77703
8.97966
9.17731
9.36991
9.55739
9.73967
9.91666
10.0883
10.2544
10.4149
10.5693
10.718
10.8565
10.999
11.079
-7.40874
-7.41428
-7.42176
-7.42983
-7.43778
-7.44534
-7.45247
-7.45903
-7.4648
-7.46951
-7.47304
-7.47525
-7.47608
-7.47561
-7.474
-7.47146
-7.46825
-7.46467
-7.46113
-7.45808
-7.45614
-7.4561
-7.45875
-7.46461
-7.47397
-7.48699
-7.50373
-7.52405
-7.54765
-7.57415
-7.60313
-7.63418
-7.66694
-7.70105
-7.73623
-7.77217
-7.80866
-7.84547
-7.88242
-7.91932
-7.95598
-7.99227
-8.02805
-8.06318
-8.09754
-8.13102
-8.16348
-8.19484
-8.22497
-8.25378
-8.28117
-8.30705
-8.33134
-8.35396
-8.37483
-8.39387
-8.41102
-8.42621
-8.43938
-8.45048
-8.45945
-8.46624
-8.47079
-8.47306
-8.47299
-8.47052
-8.46559
-8.45816
-8.44817
-8.43555
-8.42026
-8.40222
-8.38138
-8.35767
-8.33104
-8.30141
-8.26874
-8.23295
-8.19398
-8.15177
-8.10624
-8.05732
-8.00495
-7.94905
-7.88955
-7.82636
-7.7594
-7.68859
-7.61386
-7.5351
-7.4522
-7.36509
-7.27369
-7.1779
-7.07763
-6.97279
-6.86331
-6.74911
-6.63011
-6.50628
-6.37753
-6.24384
-6.10515
-5.96145
-5.8127
-5.6589
-5.50004
-5.33611
-5.16714
-4.99312
-4.8141
-4.63009
-4.44114
-4.24728
-4.04857
-3.84506
-3.63684
-3.42394
-3.20649
-2.98454
-2.75822
-2.52761
-2.29285
-2.05404
-1.81132
-1.56483
-1.31474
-1.0612
-0.804405
-0.54451
-0.281708
-0.0161839
0.251818
0.522074
0.79433
1.06835
1.34386
1.62063
1.89836
2.17674
2.45547
2.73427
3.01281
3.29082
3.56799
3.84404
4.11867
4.39162
4.6626
4.93137
5.19767
5.46127
5.72193
5.97946
6.23364
6.48429
6.73123
6.97429
7.21333
7.44821
7.67878
7.90493
8.12656
8.34354
8.5558
8.76323
8.96576
9.1633
9.35579
9.54312
9.72522
9.90197
10.0733
10.2389
10.3987
10.5522
10.6996
10.8362
10.9769
11.052
-7.38106
-7.38634
-7.39481
-7.4044
-7.41345
-7.42176
-7.42953
-7.43673
-7.44314
-7.44854
-7.45272
-7.45557
-7.45709
-7.45737
-7.45656
-7.45489
-7.45267
-7.45025
-7.44807
-7.44674
-7.44694
-7.44928
-7.45416
-7.46199
-7.47316
-7.48782
-7.50596
-7.5274
-7.55184
-7.57891
-7.60827
-7.63954
-7.67242
-7.70657
-7.74174
-7.77764
-7.81408
-7.85083
-7.88769
-7.92448
-7.96105
-7.99722
-8.03289
-8.06791
-8.10216
-8.13553
-8.1679
-8.19918
-8.22925
-8.25803
-8.2854
-8.31129
-8.3356
-8.35827
-8.37921
-8.39837
-8.41565
-8.431
-8.44436
-8.45565
-8.46481
-8.47181
-8.47656
-8.47902
-8.47912
-8.4768
-8.47201
-8.46469
-8.45478
-8.44222
-8.42695
-8.40891
-8.38805
-8.36431
-8.33762
-8.30793
-8.27518
-8.23931
-8.20025
-8.15794
-8.11232
-8.06332
-8.01087
-7.9549
-7.89533
-7.83209
-7.76508
-7.69424
-7.61947
-7.54068
-7.45776
-7.37063
-7.27921
-7.18339
-7.08309
-6.97821
-6.86867
-6.75441
-6.63534
-6.51142
-6.38258
-6.24878
-6.10999
-5.96617
-5.81731
-5.6634
-5.50442
-5.3404
-5.17133
-4.99723
-4.81814
-4.63407
-4.44507
-4.25119
-4.05246
-3.84896
-3.64074
-3.42788
-3.21046
-2.98857
-2.76231
-2.53178
-2.29711
-2.0584
-1.81578
-1.56941
-1.31944
-1.06603
-0.809358
-0.54958
-0.286887
-0.0214788
0.246406
0.516544
0.788689
1.0626
1.33802
1.6147
1.89233
2.17061
2.44923
2.72791
3.00634
3.28423
3.56127
3.83717
4.11166
4.38445
4.65527
4.92387
5.18999
5.45341
5.71389
5.97122
6.22521
6.47567
6.72242
6.9653
7.20416
7.43886
7.66926
7.89525
8.11672
8.33355
8.54567
8.75296
8.95535
9.15275
9.34507
9.53222
9.71409
9.89055
10.0615
10.2266
10.3857
10.5382
10.6843
10.8191
10.958
11.0291
-7.34301
-7.34873
-7.3592
-7.37095
-7.38134
-7.39041
-7.39882
-7.40673
-7.41392
-7.42011
-7.42506
-7.42868
-7.43097
-7.43201
-7.43197
-7.4311
-7.42973
-7.42832
-7.4274
-7.42756
-7.42925
-7.43304
-7.43943
-7.44885
-7.46159
-7.47772
-7.49714
-7.51962
-7.54488
-7.57257
-7.6024
-7.63403
-7.66717
-7.70152
-7.73685
-7.7729
-7.80947
-7.84634
-7.88334
-7.92027
-7.957
-7.99338
-8.02926
-8.0645
-8.099
-8.13263
-8.1653
-8.19689
-8.2273
-8.25644
-8.28422
-8.31054
-8.33531
-8.35846
-8.37989
-8.39954
-8.41734
-8.43322
-8.44708
-8.45885
-8.46847
-8.47588
-8.481
-8.48378
-8.48415
-8.48206
-8.47745
-8.47026
-8.46045
-8.44794
-8.43268
-8.41463
-8.39372
-8.3699
-8.34311
-8.3133
-8.28042
-8.24441
-8.2052
-8.16274
-8.11696
-8.06781
-8.01522
-7.95911
-7.89941
-7.83605
-7.76893
-7.69798
-7.62312
-7.54423
-7.46122
-7.374
-7.28248
-7.18656
-7.08615
-6.98115
-6.87149
-6.75708
-6.63786
-6.51377
-6.38476
-6.25078
-6.1118
-5.96779
-5.81874
-5.66464
-5.50549
-5.3413
-5.17207
-4.99783
-4.81862
-4.63445
-4.44536
-4.2514
-4.05262
-3.84909
-3.64086
-3.428
-3.2106
-2.98875
-2.76253
-2.53208
-2.29747
-2.05885
-1.81633
-1.57007
-1.32022
-1.06694
-0.810377
-0.550719
-0.288131
-0.0228478
0.244922
0.514936
0.786973
1.06078
1.33611
1.6127
1.89021
2.16836
2.44686
2.72541
3.0037
3.28144
3.55833
3.83406
4.10838
4.38098
4.65161
4.92
5.18591
5.4491
5.70936
5.96647
6.22023
6.47046
6.71699
6.95965
7.19829
7.43278
7.66298
7.88877
8.11005
8.32671
8.53864
8.74577
8.94798
9.1452
9.33733
9.52426
9.70586
9.882
10.0525
10.2171
10.3754
10.5269
10.6717
10.8049
10.9421
11.0101
-7.29734
-7.30444
-7.31759
-7.33185
-7.34359
-7.35339
-7.36248
-7.37122
-7.3793
-7.38634
-7.39213
-7.39654
-7.39951
-7.40115
-7.40162
-7.40124
-7.40044
-7.39971
-7.39951
-7.4004
-7.40301
-7.40795
-7.41569
-7.42656
-7.44073
-7.45816
-7.47869
-7.50209
-7.52809
-7.55639
-7.58671
-7.61874
-7.65223
-7.6869
-7.72252
-7.75885
-7.79569
-7.83282
-7.87009
-7.90733
-7.94439
-7.98114
-8.01743
-8.05315
-8.08818
-8.1224
-8.15569
-8.18796
-8.21908
-8.24899
-8.27757
-8.30474
-8.33038
-8.35441
-8.37672
-8.39723
-8.41584
-8.43247
-8.44704
-8.45947
-8.46969
-8.47762
-8.4832
-8.48637
-8.48708
-8.48526
-8.48086
-8.47383
-8.46411
-8.45164
-8.43639
-8.41829
-8.39729
-8.37336
-8.34643
-8.31645
-8.28339
-8.24717
-8.20776
-8.16509
-8.1191
-8.06974
-8.01695
-7.96065
-7.90076
-7.83723
-7.76995
-7.69884
-7.62383
-7.54479
-7.46163
-7.37427
-7.2826
-7.18653
-7.08595
-6.98077
-6.87091
-6.7563
-6.63686
-6.51254
-6.38329
-6.24906
-6.10983
-5.96557
-5.81627
-5.66193
-5.50256
-5.33815
-5.16872
-4.9943
-4.81493
-4.63063
-4.44143
-4.24739
-4.04854
-3.84497
-3.63673
-3.42388
-3.2065
-2.98471
-2.75857
-2.52819
-2.29369
-2.05518
-1.81279
-1.56668
-1.31697
-1.06384
-0.807429
-0.547908
-0.285468
-0.0203333
0.247283
0.517149
0.789046
1.06273
1.33795
1.61439
1.89175
2.16974
2.44808
2.72646
3.00458
3.28213
3.55881
3.83434
4.10843
4.3808
4.65119
4.91933
5.18499
5.44792
5.70791
5.96475
6.21825
6.46821
6.71448
6.95688
7.19527
7.42952
7.65949
7.88506
8.10612
8.32257
8.53431
8.74124
8.94327
9.14029
9.3322
9.51888
9.7002
9.87598
10.046
10.21
10.3676
10.5181
10.6617
10.7933
10.9287
10.9944
-7.24914
-7.25795
-7.27423
-7.29126
-7.30441
-7.31493
-7.32472
-7.33431
-7.34328
-7.35114
-7.35764
-7.36256
-7.36582
-7.36757
-7.36805
-7.36763
-7.36671
-7.36587
-7.36574
-7.36701
-7.37031
-7.37621
-7.38507
-7.39712
-7.4124
-7.43083
-7.45225
-7.47642
-7.50307
-7.5319
-7.56266
-7.59506
-7.62887
-7.66381
-7.69969
-7.73627
-7.77338
-7.81083
-7.84846
-7.88611
-7.92363
-7.9609
-7.99779
-8.0342
-8.07001
-8.1051
-8.13934
-8.17264
-8.20487
-8.23591
-8.26565
-8.29397
-8.32075
-8.3459
-8.36929
-8.39084
-8.41042
-8.42797
-8.44337
-8.45657
-8.46747
-8.47601
-8.48211
-8.48573
-8.48681
-8.48528
-8.48109
-8.4742
-8.46456
-8.45211
-8.43682
-8.41863
-8.39751
-8.37341
-8.34629
-8.3161
-8.28279
-8.24633
-8.20666
-8.16373
-8.11749
-8.06787
-8.01484
-7.9583
-7.8982
-7.83445
-7.76697
-7.69568
-7.62047
-7.54125
-7.45791
-7.37037
-7.27852
-7.18225
-7.08145
-6.97605
-6.86595
-6.75109
-6.63139
-6.5068
-6.37726
-6.24275
-6.10321
-5.95867
-5.80909
-5.65449
-5.49485
-5.33021
-5.16056
-4.98596
-4.80642
-4.622
-4.4327
-4.23858
-4.0397
-3.83612
-3.6279
-3.41509
-3.19779
-2.97608
-2.75007
-2.51983
-2.28549
-2.04715
-1.80496
-1.55903
-1.30955
-1.05662
-0.80041
-0.541079
-0.278851
-0.0139191
0.253482
0.523156
0.79487
1.06839
1.34342
1.61965
1.8968
2.17458
2.45271
2.73086
3.00874
3.28604
3.56247
3.83773
4.11154
4.38362
4.6537
4.92154
5.18688
5.4495
5.70917
5.9657
6.21888
6.46854
6.71451
6.95662
7.19473
7.42871
7.65842
7.88374
8.10457
8.3208
8.53233
8.73905
8.94086
9.13766
9.32935
9.51577
9.69678
9.8722
10.0418
10.2052
10.362
10.5115
10.6539
10.7841
10.9177
10.9819
-7.20506
-7.21563
-7.23523
-7.25512
-7.26965
-7.28087
-7.29136
-7.30176
-7.31146
-7.31978
-7.32639
-7.33109
-7.33383
-7.33476
-7.33419
-7.33262
-7.33066
-7.32907
-7.32855
-7.32986
-7.33354
-7.34007
-7.34968
-7.3625
-7.37851
-7.39761
-7.41961
-7.44426
-7.4713
-7.50045
-7.53149
-7.56412
-7.59812
-7.63322
-7.66927
-7.70603
-7.74338
-7.78112
-7.81912
-7.85721
-7.89529
-7.9332
-7.97085
-8.00813
-8.04491
-8.08109
-8.1165
-8.15104
-8.18455
-8.2169
-8.24795
-8.27757
-8.30563
-8.33202
-8.35662
-8.37931
-8.39998
-8.41853
-8.43485
-8.44887
-8.4605
-8.46968
-8.47633
-8.48039
-8.48182
-8.48056
-8.47657
-8.46979
-8.46018
-8.44772
-8.43234
-8.41403
-8.39274
-8.36843
-8.34108
-8.31063
-8.27706
-8.24032
-8.20036
-8.15715
-8.11063
-8.06075
-8.00746
-7.95068
-7.89036
-7.8264
-7.75871
-7.68722
-7.61183
-7.53241
-7.44889
-7.36115
-7.2691
-7.17261
-7.07159
-6.96594
-6.85559
-6.74046
-6.62048
-6.4956
-6.36576
-6.23093
-6.0911
-5.94625
-5.79639
-5.64151
-5.48163
-5.31676
-5.14691
-4.97214
-4.79247
-4.60794
-4.41859
-4.22444
-4.02556
-3.82202
-3.61388
-3.40118
-3.18402
-2.96248
-2.73666
-2.50666
-2.27255
-2.03447
-1.79256
-1.54693
-1.29774
-1.0451