/*--------------------------------*- C++ -*----------------------------------*\
  =========                 |
  \\      /  F ield         | OpenFOAM: The Open Source CFD Toolbox
   \\    /   O peration     | Website:  https://openfoam.org
    \\  /    A nd           | Version:  8
     \\/     M anipulation  |
\*---------------------------------------------------------------------------*/
FoamFile
{
    version     2.0;
    format      ascii;
    class       volVectorField;
    location    "900";
    object      wallShearStress;
}
// * * * * * * * * * * * * * * * * * * * * * * * * * * * * * * * * * * * * * //

dimensions      [0 2 -2 0 0 0 0];

internalField   uniform (0 0 0);

boundaryField
{
    inlet
    {
        type            calculated;
        value           uniform (0 0 0);
    }
    outlet
    {
        type            calculated;
        value           uniform (0 0 0);
    }
    upperWall
    {
        type            calculated;
        value           nonuniform List<vector> 
223
(
(-0.617637 -0.0550881 0)
(-0.574325 -0.0504918 0)
(-0.561061 -0.0328401 0)
(-0.552151 -0.020065 0)
(-0.542443 -0.0117163 0)
(-0.531642 -0.00645349 0)
(-0.520109 -0.00325159 0)
(-0.508728 -0.00130795 0)
(-0.49759 -0.000142836 0)
(-0.487369 0.00054157 0)
(-0.478074 0.000932458 0)
(-0.469657 0.00114385 0)
(-0.462061 0.00124538 0)
(-0.455203 0.00128003 0)
(-0.449015 0.00127465 0)
(-0.44342 0.00125055 0)
(-0.438335 0.00121985 0)
(-0.433712 0.00123287 0)
(-0.429984 0.00127963 0)
(-0.427011 0.00132077 5.28991e-22)
(-0.424091 0.00132492 0)
(-0.421239 0.00130363 0)
(-0.418453 0.00126664 0)
(-0.415735 0.00122063 5.40659e-22)
(-0.413089 0.00116917 0)
(-0.410517 0.00111556 0)
(-0.408018 0.00106147 0)
(-0.405592 0.00100832 -1.10261e-21)
(-0.403235 0.000956674 1.10782e-21)
(-0.400947 0.000907047 1.11299e-21)
(-0.398727 0.000859603 0)
(-0.396572 0.00081479 -1.12331e-21)
(-0.394481 0.000772467 0)
(-0.39245 0.000732707 1.13362e-21)
(-0.390479 0.00069565 1.13878e-21)
(-0.388564 0.00066118 -1.14394e-21)
(-0.386703 0.000629171 0)
(-0.384893 0.000599604 0)
(-0.383132 0.00057242 0)
(-0.381417 0.000547487 0)
(-0.379746 0.000524626 -1.16994e-21)
(-0.378117 0.000503778 0)
(-0.376528 0.000484882 0)
(-0.374974 0.000467706 1.18565e-21)
(-0.373456 0.000452082 0)
(-0.37197 0.000437967 1.19614e-21)
(-0.370515 0.000425316 -1.20137e-21)
(-0.369089 0.000413936 1.2066e-21)
(-0.36769 0.00040364 0)
(-0.366316 0.000394528 0)
(-0.364966 0.000386332 0)
(-0.363639 0.000379199 1.22742e-21)
(-0.362331 0.000372968 -1.23257e-21)
(-0.361043 0.000367553 0)
(-0.359771 0.000362893 0)
(-0.358517 0.000359059 0)
(-0.357275 0.000355897 0)
(-0.356048 0.000353405 0)
(-0.35483 0.00035146 0)
(-0.353624 0.000350121 0)
(-0.352425 0.000349348 0)
(-0.351234 0.000349034 1.27729e-21)
(-0.350047 0.000349063 -1.28196e-21)
(-0.348868 0.000349409 0)
(-0.347689 0.000350254 0)
(-0.346514 0.000351477 0)
(-0.345338 0.000352908 -1.29977e-21)
(-0.344164 0.000354663 0)
(-0.342985 0.000356672 0)
(-0.341806 0.000358816 0)
(-0.340621 0.000361233 0)
(-0.339433 0.000363852 0)
(-0.338237 0.000366678 -2.64576e-21)
(-0.337034 0.000369685 0)
(-0.335825 0.000372806 0)
(-0.334602 0.000376247 0)
(-0.333375 0.000379897 0)
(-0.332126 0.000383909 0)
(-0.330875 0.000388247 0)
(-0.329598 0.000392908 0)
(-0.328307 0.000394849 2.68719e-21)
(-0.327041 0.000408557 0)
(-0.325626 0.00053457 0)
(-0.324312 0.000513052 0)
(-0.322674 0.000157471 -2.6922e-21)
(-0.322436 -2.12447e-05 0)
(-0.322003 7.12127e-06 -2.71708e-21)
(-0.321861 0.00016778 0)
(-0.318579 0.000644648 0)
(-0.315232 0.00034202 0)
(-0.314845 -0.000355743 -2.74068e-21)
(-0.315564 -0.000314075 0)
(-0.3127 -5.14217e-05 2.75139e-21)
(-0.31178 0.000516697 2.7414e-21)
(-0.311418 -2.62789e-05 0)
(-0.391259 0.00364486 3.42433e-21)
(-0.370837 0.00858533 0)
(-0.37945 0.00833116 0)
(-0.320429 0.00671746 0)
(-0.361695 0.00836114 -2.92191e-21)
(-0.312645 0.00174334 0)
(-0.342408 -0.00399123 -2.76982e-21)
(-0.341548 -0.00289573 2.83906e-21)
(-0.33425 -0.00127745 0)
(-0.301058 -0.000241205 0)
(-0.312024 -0.000969463 0)
(-0.296746 -0.00173849 0)
(-0.295277 0.000383049 0)
(-0.294049 -0.000101515 0)
(-0.292622 -0.00264051 0)
(-0.295555 -0.0013249 -2.64806e-21)
(-0.290421 0.000742166 0)
(-0.288772 0.000846901 0)
(-0.287113 -0.000736171 0)
(-0.370573 -0.00237476 0)
(-0.411471 0.00381762 0)
(-0.365724 0.0101988 0)
(-0.331691 0.00838664 0)
(-0.285016 0.00597381 0)
(-0.284726 0.003229 0)
(-0.283908 0.00174102 0)
(-0.286893 0.00251341 0)
(-0.280322 -0.00164332 0)
(-0.282411 -0.00584587 -4.25978e-21)
(-0.276718 -0.00500754 0)
(-0.347482 -0.00140156 0)
(-0.314605 0.00217852 0)
(-0.271167 0.00116591 3.80827e-21)
(-0.269919 0.00119499 0)
(-0.268157 0.00179808 0)
(-0.266604 -0.00106765 3.41208e-21)
(-0.264791 -0.00363406 0)
(-0.283383 -0.00330534 -3.57959e-21)
(-0.329803 -0.000124012 0)
(-0.289539 0.00213788 0)
(-0.2559 -0.000395044 0)
(-0.281552 -0.00224263 2.87059e-21)
(-0.31312 0.000764878 0)
(-0.261819 0.000841274 -2.20714e-21)
(-0.247859 -0.00153663 0)
(-0.26074 -0.00144566 0)
(-0.27554 0.00206004 0)
(-0.242048 0.00182886 0)
(-0.275547 0.00190818 0)
(-0.239159 0.00132121 0)
(-0.271063 0.000978196 0)
(-0.235886 0.000807497 0)
(-0.26651 -0.0020583 0)
(-0.261729 0.000720878 0)
(-0.229151 0.00215951 0)
(-0.227617 2.53917e-05 1.15837e-21)
(-0.227774 0.000710697 -1.59549e-21)
(-0.22419 0.000836942 0)
(-0.228493 0.000442196 0)
(-0.220242 0.000169156 0)
(-0.225279 -0.00210911 0)
(-0.213898 -0.00165429 -3.79349e-21)
(-0.210111 -0.00063775 4.26922e-21)
(-0.205766 0.0004105 -4.72989e-21)
(-0.202205 -3.57704e-05 0)
(-0.197169 0.00234742 -5.70951e-21)
(-0.198012 0.00456893 -1.12202e-20)
(-0.197429 0.0015838 0)
(-0.195473 4.9614e-06 -1.38653e-20)
(-0.214291 0.0031963 1.62421e-20)
(-0.196679 0.00145793 0)
(-0.193214 -0.00153138 0)
(-0.191452 -0.00143621 0)
(-0.186711 -0.000295985 0)
(-0.195733 0.000382831 0)
(-0.18251 -0.000346451 -2.31236e-20)
(-0.179718 -0.000286322 0)
(-0.175001 -0.00172125 -2.60416e-20)
(-0.171523 0.000316539 0)
(-0.174153 0.00347832 0)
(-0.17695 0.00360368 0)
(-0.177788 0.00245262 0)
(-0.177347 0.00147661 0)
(-0.175811 0.00060853 3.11548e-20)
(-0.172805 -2.39822e-05 0)
(-0.16884 -0.000255255 0)
(-0.165211 -0.000233081 -3.82066e-20)
(-0.162002 -0.00033361 0)
(-0.158883 -0.000374499 0)
(-0.155309 -0.000321546 0)
(-0.150822 -0.000148918 4.80723e-20)
(-0.145114 0.00011785 0)
(-0.137433 0.000456732 0)
(-0.128054 0.000841601 0)
(-0.117933 0.00114665 0)
(-0.10834 0.00123765 -7.78629e-20)
(-0.10024 0.00110433 0)
(-0.093788 0.000920394 0)
(-0.0882298 0.000814521 0)
(-0.0831852 0.000887753 1.06731e-19)
(-0.0756548 0.00112672 0)
(-0.0711108 0.00185138 0)
(-0.0424722 0.00159416 -1.49079e-19)
(-0.0732929 0.00105417 1.20371e-35)
(-0.107457 0.00638434 1.29288e-17)
(-0.130756 0.0107424 2.33098e-17)
(-0.143148 0.01331 2.19807e-17)
(-0.150603 0.0147402 2.1165e-17)
(-0.156365 0.0156301 2.04887e-17)
(-0.160976 0.0162595 -1.99067e-17)
(-0.164648 0.0167263 -1.93659e-17)
(-0.167714 0.0170904 -6.01853e-36)
(-0.170662 0.0173925 -3.67411e-17)
(-0.173666 0.0176825 -1.78674e-17)
(-0.176964 0.0179805 4.87501e-34)
(-0.180541 0.0183113 -1.20371e-35)
(-0.184639 0.0186763 -3.22715e-17)
(-0.189159 0.0190915 -3.08732e-17)
(-0.194367 0.0195593 -2.93197e-17)
(-0.200099 0.0200899 0)
(-0.20662 0.020682 5.12702e-17)
(-0.213938 0.0213578 2.34369e-17)
(-0.221996 0.0220974 2.40741e-35)
(-0.231777 0.0229915 -3.63577e-17)
(-0.240886 0.0238595 -1.19461e-20)
(-0.256663 0.0252234 0)
(-0.261143 0.0260221 1.36028e-17)
(-0.291496 0.027908 -7.63603e-18)
)
;
    }
    lowerWall
    {
        type            calculated;
        value           nonuniform List<vector> 
250
(
(-0.701808 0.109424 0)
(-0.662799 0.083224 0)
(-0.625479 0.0515588 0)
(-0.593585 0.0291288 0)
(-0.586017 0.01647 0)
(-0.542094 0.00886726 0)
(-0.775061 -0.00200667 0)
(-0.656878 -0.00537114 0)
(-0.600383 2.27366e-05 0)
(-0.544956 -7.26449e-05 0)
(-0.511129 0.00156912 0)
(-0.486146 0.000820039 0)
(-0.481062 0.00137518 0)
(-0.590783 -0.00464114 0)
(-0.568332 -0.0148433 0)
(-0.469981 -0.0102976 0)
(-0.463309 -0.00910955 0)
(-0.465132 -0.00177178 0)
(0.00287878 -0.00730842 0)
(0.002954 -0.0111925 0)
(0.00303891 -0.0149268 0)
(0.00310965 -0.0185151 6.93805e-20)
(0.00322567 -0.0217073 -6.21229e-20)
(0.0039441 -0.0248764 5.68796e-20)
(0.00482109 -0.0264161 -5.23486e-20)
(0.00725939 -0.0490648 0)
(-0.098928 -0.165927 0)
(0.000214165 -0.000257438 0)
(7.82245e-05 -0.000765206 0)
(2.19268e-05 -0.000904831 0)
(6.28633e-05 -0.000962988 0)
(-1.42488e-05 -0.000774525 1.53241e-19)
(-0.000344578 0.000151517 -1.35167e-19)
(-0.0010079 0.00240931 0)
(-0.00162879 0.00602153 -1.40964e-19)
(-0.00176307 0.00987294 1.11544e-19)
(-0.00140163 0.0129431 0)
(-0.000790335 0.0147366 0)
(-0.000153556 0.0151349 0)
(0.000380991 0.014259 0)
(0.000855622 0.0124744 0)
(0.00133884 0.00978386 0)
(0.00184613 0.006267 0)
(0.00238218 0.00205955 0)
(0.00276274 -0.00273919 0)
(-0.000133611 -0.000263222 0)
(0.000164066 -0.000422827 0)
(0.000457732 -0.000465319 0)
(0.000745898 -0.000389396 0)
(0.000950865 -0.000169191 -0)
(0.000949519 0.000167974 -0)
(0.000695244 0.000548768 1.54835e-20)
(0.000221982 0.000873847 -1.73114e-20)
(-0.000390582 0.00106835 -0)
(-0.0010512 0.00111023 -1.06456e-20)
(-0.00168628 0.00101835 -0)
(-0.00223679 0.000824539 0)
(-0.00266409 0.000564765 -0)
(-0.00294684 0.000270361 6.36207e-21)
(-0.00307803 -3.8307e-05 0)
(-0.00304671 -0.000336115 0)
(-0.00285996 -0.000589827 -6.48978e-21)
(-0.00254225 -0.000769789 -0)
(-0.00212824 -0.0008533 0)
(-0.0016628 -0.000827229 -0)
(-0.00120058 -0.000695377 1.02952e-20)
(-0.000797247 -0.000483699 0)
(-0.000494357 -0.000236345 1.51369e-20)
(-0.000308123 4.02002e-06 0)
(-0.000237751 0.000224912 0)
(-0.000296555 0.000408793 1.95598e-20)
(-0.000458303 0.000562084 0)
(-0.000728428 0.000700935 -1.3913e-20)
(-0.00110267 0.000795122 0)
(-0.00151849 0.000787326 9.76705e-21)
(-0.00187227 0.000677005 0)
(-0.00210564 0.000530365 0)
(-0.00220636 0.000432432 0)
(-0.00223586 0.000455327 0)
(-0.0022506 0.000546109 0)
(-0.00222689 0.000544468 -7.67931e-21)
(-0.00198588 0.000211351 0)
(-0.00129383 -0.000486615 1.95006e-20)
(5.41609e-05 -0.00111218 0)
(0.0017156 -0.00174423 -9.69773e-21)
(0.00359116 -0.0025177 0)
(0.00581065 -0.00331346 0)
(0.0083131 -0.00389639 3.74309e-21)
(0.0109378 -0.00416633 0)
(0.0135307 -0.00422234 2.78571e-21)
(0.0169659 -0.00443695 -2.6323e-21)
(0.0184271 -0.00415235 -0)
(0.021908 -0.00427402 -2.20068e-21)
(0.0256072 -0.00409125 -2.21219e-21)
(0.025444 -0.0032597 -0)
(0.0292643 -0.00328224 0)
(0.0325119 -0.00309478 0)
(0.030959 -0.00238421 0)
(0.0311536 -0.00203832 -0)
(0.0331822 -0.00184937 1.60204e-21)
(0.0345625 -0.00169415 0)
(0.0361691 -0.00158912 -1.56397e-21)
(0.037499 -0.00145135 -0)
(0.0388796 -0.00133123 -0)
(0.0401012 -0.00123363 1.53007e-21)
(0.0413128 -0.00114938 0)
(0.0424596 -0.00107637 -1.51527e-21)
(0.0435666 -0.00101312 -0)
(0.0446392 -0.000957797 0)
(0.0456748 -0.000909111 -0)
(0.0466872 -0.000865995 1.49117e-21)
(0.0476688 -0.000827311 0)
(0.0486325 -0.000792306 -0)
(0.0495705 -0.000760291 1.47467e-21)
(0.0504932 -0.000730656 0)
(0.0513944 -0.000703012 1.46349e-21)
(0.052281 -0.000676827 0)
(0.0531487 -0.000651856 0)
(0.0540018 -0.000627767 0)
(0.0548375 -0.000604383 -1.43904e-21)
(0.055658 -0.00058148 -0)
(0.0564617 -0.000558876 0)
(0.0572492 -0.00053635 -1.41791e-21)
(0.0580194 -0.000513953 -1.4102e-21)
(0.0587726 -0.000491407 -0)
(0.0595074 -0.000468597 -1.39367e-21)
(0.0602233 -0.000445505 0)
(0.0609198 -0.000421965 -2.75106e-21)
(0.0615953 -0.000397766 -0)
(0.0622494 -0.000372921 -2.71128e-21)
(0.0628806 -0.000347093 -0)
(0.063488 -0.000320113 2.66766e-21)
(0.0640694 -0.000291806 0)
(0.0646242 -0.000261825 0)
(0.0651496 -0.000230022 0)
(0.0656445 -0.000196438 -2.5681e-21)
(0.0661076 -0.000161005 -0)
(0.066537 -0.000124253 2.51226e-21)
(0.0669327 -8.74869e-05 0)
(0.0672946 -5.35949e-05 -2.45265e-21)
(0.0676253 -2.54026e-05 -2.42064e-21)
(0.0679253 -3.08274e-07 -2.38711e-21)
(0.0681971 2.47033e-05 0)
(0.0684384 4.97578e-05 0)
(0.0686491 7.51255e-05 0)
(0.0688281 0.000100762 0)
(0.0689746 0.000126693 0)
(0.0690879 0.000152961 0)
(0.0691668 0.000179467 0)
(0.0692107 0.000206238 0)
(0.0692188 0.000233191 2.01099e-21)
(0.0691902 0.000260369 1.95989e-21)
(0.0691242 0.000287634 0)
(0.0690202 0.000315084 0)
(0.0688775 0.000342528 0)
(0.0686958 0.00037015 1.73439e-21)
(0.0684738 0.000397754 0)
(0.0682114 0.000425375 0)
(0.0679082 0.000452933 0)
(0.0675634 0.000480531 0)
(0.0671766 0.000507918 -1.40079e-21)
(0.066748 0.000535254 0)
(0.0662768 0.00056246 0)
(0.0657627 0.000589519 1.17006e-21)
(0.0652055 0.000616348 -1.08762e-21)
(0.0646052 0.000642969 0)
(0.0639616 0.000669305 -9.13984e-22)
(0.0632748 0.000695411 0)
(0.0625443 0.000721213 7.28018e-22)
(0.0617707 0.000746584 0)
(0.0609542 0.000771711 0)
(0.0600942 0.000796391 0)
(0.0591919 0.000820721 0)
(0.0582464 0.000844588 0)
(0.0572592 0.000868109 -1.73826e-22)
(0.056232 0.000891183 6.71971e-23)
(0.0551682 0.000913768 0)
(0.0540666 0.000935828 0)
(0.0529154 0.000956751 0)
(0.0517449 0.000977903 -1.12295e-21)
(0.0505121 0.000997817 0)
(0.0492694 0.00101737 0)
(0.0479647 0.00103604 0)
(0.0466463 0.00105368 -2.34855e-21)
(0.0452886 0.00107088 2.68579e-21)
(0.0439039 0.00108717 0)
(0.042491 0.00110282 0)
(0.0410513 0.0011174 3.78499e-21)
(0.0395856 0.00113104 4.18341e-21)
(0.0380962 0.0011438 0)
(0.0365859 0.00115579 0)
(0.0350557 0.00116698 -5.4907e-21)
(0.033508 0.00117734 5.9683e-21)
(0.0319447 0.00118692 0)
(0.0303673 0.00119573 0)
(0.0287782 0.00120377 7.5508e-21)
(0.027179 0.00121117 0)
(0.0255717 0.00121799 0)
(0.0239577 0.00122429 9.40792e-21)
(0.0223388 0.00123012 0)
(0.0207164 0.00123561 1.08411e-20)
(0.0190922 0.00124083 0)
(0.0174676 0.00124592 0)
(0.0158439 0.00125101 0)
(0.0142223 0.0012562 -1.43516e-20)
(0.0126038 0.00126163 0)
(0.0109895 0.00126747 0)
(0.00938009 0.00127386 0)
(0.0077765 0.00128115 0)
(0.0061792 0.00129061 0)
(0.00458812 0.00130246 0)
(0.00300356 0.00131579 -2.4203e-20)
(0.00142613 0.00132864 -2.63002e-20)
(-0.000144618 0.00132607 0)
(-0.00170815 0.001297 0)
(-0.00326118 0.00125659 0)
(-0.00480122 0.00121568 2.42464e-20)
(-0.00632548 0.00117475 0)
(-0.0078287 0.00113214 -4.45561e-20)
(-0.00930346 0.0010844 4.29122e-20)
(-0.0107301 0.00102788 4.14653e-20)
(-0.0121017 0.000945905 -4.02255e-20)
(-0.0132716 0.000838163 3.92278e-20)
(-0.0145083 0.000614773 -3.859e-20)
(-0.0140312 0.00011622 0)
(-0.0164135 0.000314272 -2.38823e-18)
(-0.0200986 -0.000154144 -2.22521e-18)
(-0.0237643 -0.000639386 0)
(-0.0272239 -0.00106082 -3.93926e-18)
(-0.0307443 -0.00146502 -7.45062e-18)
(-0.0344279 -0.00186985 -3.53041e-18)
(-0.0382875 -0.00228068 3.3494e-18)
(-0.0423479 -0.00270482 -2.40741e-35)
(-0.0466526 -0.00314934 3.00927e-36)
(-0.0512281 -0.00361887 2.8738e-18)
(-0.0561024 -0.00411799 2.73122e-18)
(-0.0613091 -0.00465055 6.01853e-36)
(-0.0668885 -0.00522111 0)
(-0.0728732 -0.0058339 0)
(-0.0793413 -0.00649462 -7.42912e-36)
(-0.0862759 -0.0072066 -3.64873e-35)
(-0.093918 -0.00798236 1.05324e-34)
(-0.101977 -0.0088171 -3.58258e-18)
(-0.111288 -0.00973961 -3.2928e-18)
(-0.120627 -0.0107411 6.01853e-36)
(-0.132468 -0.0118173 5.26637e-18)
(-0.143172 -0.013124 8.90258e-18)
(-0.160362 -0.0142961 6.01853e-36)
(-0.169063 -0.0161542 -4.39105e-18)
(-0.204847 -0.0171459 -9.0278e-36)
)
;
    }
    frontAndBack
    {
        type            empty;
    }
}


// ************************************************************************* //
