/*--------------------------------*- C++ -*----------------------------------*\
  =========                 |
  \\      /  F ield         | OpenFOAM: The Open Source CFD Toolbox
   \\    /   O peration     | Website:  https://openfoam.org
    \\  /    A nd           | Version:  8
     \\/     M anipulation  |
\*---------------------------------------------------------------------------*/
FoamFile
{
    version     2.0;
    format      ascii;
    class       volScalarField;
    location    "4400";
    object      p;
}
// * * * * * * * * * * * * * * * * * * * * * * * * * * * * * * * * * * * * * //

dimensions      [0 2 -2 0 0 0 0];

internalField   nonuniform List<scalar> 
12225
(
514.676
55.5277
2.36339
0.281281
-1.89919
-3.37473
-3.81197
-4.02237
-4.23211
-4.36901
-4.41617
-4.4258
-4.4288
-4.45678
-4.51017
-4.57665
-4.72207
-4.94469
-122.179
0.238476
-2.71883
-0.765515
-2.21688
-3.52532
-3.95304
-4.13714
-4.28082
-4.38481
-4.45974
-4.51807
-4.56902
-4.60141
-4.62236
-4.64792
-4.71458
-4.80864
-200.646
-16.1488
-2.34685
-0.358739
-1.90122
-3.2452
-3.7726
-4.02284
-4.19553
-4.31979
-4.41248
-4.47969
-4.52833
-4.55357
-4.56864
-4.58421
-4.61612
-4.59933
-110.617
-10.9745
-2.17756
-0.432449
-1.78815
-3.02922
-3.60171
-3.90889
-4.11816
-4.26396
-4.36634
-4.43702
-4.48574
-4.51433
-4.53168
-4.53953
-4.53851
-4.46985
-61.5732
-8.14628
-3.62302
-1.21045
-2.01567
-2.99878
-3.52967
-3.84944
-4.07194
-4.22663
-4.33427
-4.40892
-4.46029
-4.49141
-4.50671
-4.5041
-4.47793
-4.38779
-45.7312
-8.78573
-5.25923
-2.2008
-2.43042
-3.10157
-3.53703
-3.834
-4.04998
-4.20381
-4.31287
-4.3896
-4.44205
-4.47298
-4.48454
-4.4738
-4.43373
-4.33919
-35.7951
-9.27699
-6.38103
-3.12525
-2.92245
-3.29053
-3.60444
-3.85534
-4.05076
-4.19594
-4.30193
-4.37772
-4.42934
-4.45908
-4.46802
-4.45342
-4.40945
-4.32239
-27.7786
-8.90778
-6.9745
-3.80352
-3.36253
-3.49937
-3.70143
-3.90092
-4.07028
-4.20255
-4.30231
-4.37507
-4.42499
-4.45383
-4.46217
-4.44788
-4.4069
-4.33216
-21.6906
-8.52075
-7.13522
-4.3114
-3.72984
-3.70699
-3.81728
-3.96563
-4.10593
-4.2222
-4.31327
-4.38134
-4.4288
-4.45675
-4.46546
-4.4535
-4.4185
-4.3575
-16.6134
-8.14144
-7.08889
-4.7563
-4.08416
-3.93537
-3.96024
-4.05369
-4.16005
-4.25626
-4.33572
-4.39734
-4.44157
-4.46875
-4.47894
-4.47146
-4.44553
-4.40104
-12.6397
-7.68165
-6.90692
-5.10262
-4.4078
-4.17136
-4.12296
-4.16251
-4.23271
-4.30607
-4.37166
-4.42539
-4.46589
-4.4927
-4.5057
-4.50486
-4.49058
-4.46441
-9.69981
-7.14958
-6.63004
-5.32747
-4.67967
-4.39818
-4.2955
-4.28778
-4.32295
-4.37261
-4.42313
-4.46816
-4.50482
-4.53188
-4.54904
-4.55664
-4.55574
-4.54844
-7.66688
-6.60554
-6.30683
-5.43246
-4.88413
-4.59834
-4.46472
-4.42157
-4.42685
-4.45463
-4.49061
-4.52721
-4.56052
-4.5887
-4.61121
-4.62841
-4.64148
-4.65238
-6.37181
-6.1139
-5.98658
-5.44122
-5.0168
-4.75862
-4.61718
-4.55352
-4.53751
-4.5481
-4.57217
-4.60201
-4.63326
-4.66368
-4.69244
-4.71967
-4.74625
-4.7736
-5.62359
-5.72326
-5.70991
-5.39175
-5.08683
-4.87391
-4.74269
-4.67313
-4.64612
-4.64632
-4.66296
-4.68906
-4.72032
-4.75433
-4.78997
-4.827
-4.86579
-4.90712
-5.2443
-5.46109
-5.50902
-5.32846
-5.11593
-4.94886
-4.83657
-4.77158
-4.74288
-4.74002
-4.75468
-4.78094
-4.81487
-4.854
-4.89696
-4.94314
-4.99242
-5.04497
-5.10309
-5.34522
-5.41788
-5.29988
-5.13584
-4.99672
-4.89905
-4.84114
-4.81602
-4.81581
-4.83364
-4.86421
-4.90378
-4.94981
-5.00069
-5.05545
-5.11361
-5.17492
-5.14085
-5.40105
-5.47514
-5.34898
-5.17516
-5.02941
-4.92913
-4.8719
-4.84996
-4.85478
-4.87895
-4.91675
-4.9641
-5.01815
-5.07702
-5.13951
-5.20487
-5.27266
-5.39317
-5.65552
-5.69121
-5.47607
-5.22683
-5.03644
-4.9153
-4.85221
-4.83312
-4.84537
-4.87898
-4.92679
-4.98388
-5.04704
-5.11416
-5.1839
-5.25549
-5.32847
-6.00258
-6.13738
-6.04313
-5.63561
-5.2476
-4.98782
-4.84127
-4.77629
-4.76674
-4.79306
-4.84158
-4.90337
-4.97285
-5.0466
-5.12259
-5.19961
-5.27703
-5.35463
-7.25022
-6.89004
-6.4947
-5.76239
-5.18361
-4.85348
-4.69684
-4.64666
-4.66055
-4.71101
-4.78119
-4.86112
-4.94534
-5.03077
-5.11592
-5.20005
-5.28289
-5.36459
-9.64175
-7.96512
-6.98314
-5.77242
-4.9801
-4.6127
-4.48247
-4.47423
-4.52904
-4.61433
-4.71199
-4.81304
-4.91296
-5.01007
-5.10381
-5.19426
-5.28175
-5.36676
-13.9829
-9.39161
-7.40373
-5.57011
-4.59533
-4.26479
-4.21565
-4.28028
-4.39242
-4.51986
-4.64789
-4.77024
-4.88509
-4.9923
-5.09296
-5.18831
-5.27917
-5.36656
-20.8905
-10.9546
-7.55476
-5.05783
-4.01647
-3.83647
-3.93061
-4.09478
-4.2729
-4.44373
-4.60021
-4.74136
-4.86809
-4.98255
-5.08762
-5.18576
-5.2785
-5.36691
-29.7371
-11.95
-7.0341
-4.12672
-3.26468
-3.37863
-3.67174
-3.94755
-4.18991
-4.39796
-4.57654
-4.7307
-4.86492
-4.98289
-5.08949
-5.18823
-5.28121
-5.36951
-43.1071
-12.6145
-5.47339
-2.72957
-2.4139
-2.96411
-3.48498
-3.86315
-4.15447
-4.38686
-4.57861
-4.73879
-4.87475
-4.99165
-5.09667
-5.19459
-5.28677
-5.37439
-84.6
-17.374
-3.66469
-1.26606
-1.69667
-2.72251
-3.43692
-3.87074
-4.17435
-4.41158
-4.6077
-4.76893
-4.90043
-5.00829
-5.10568
-5.20144
-5.29213
-5.37705
-177.886
-26.8502
-3.68075
-0.770839
-1.53575
-2.84375
-3.61483
-4.01605
-4.27197
-4.46819
-4.65198
-4.8172
-4.9532
-5.05119
-5.13498
-5.22078
-5.304
-5.384
-154.791
-9.62787
-3.27299
-1.06892
-1.84376
-3.22157
-3.91443
-4.22582
-4.41841
-4.56006
-4.70314
-4.85532
-5.0062
-5.12228
-5.21147
-5.29705
-5.37357
-5.44713
428.057
66.6049
7.05535
1.59879
-0.916259
-2.85762
-3.65371
-3.99549
-4.31122
-4.57801
-4.70857
-4.75602
-4.80127
-4.90255
-5.03156
-5.13969
-5.23953
-5.33285
-8.52587
-8.51304
-8.5024
-8.54377
-8.63681
-8.74051
-8.82043
-8.86044
-8.86409
-8.84643
-8.81901
-8.79044
-8.76877
-8.75997
-8.76497
-8.77761
-8.78883
-8.79396
-8.79319
-8.79113
-8.79562
-8.82833
-8.91855
-9.0899
-9.34292
-9.66069
-10.0318
-10.4456
-10.8866
-11.3387
-11.7866
-12.2186
-12.6253
-13.0002
-13.3388
-13.6388
-13.8991
-14.1198
-14.3016
-14.4454
-14.5526
-14.6244
-14.6623
-14.6676
-14.6417
-14.5857
-14.5016
-14.3914
-14.2564
-14.0946
-13.9032
-13.6835
-13.4383
-13.1693
-12.8777
-12.5647
-12.2312
-11.8783
-11.507
-11.1183
-10.7134
-10.2933
-9.85923
-9.41229
-8.95368
-8.48458
-8.00619
-7.51971
-7.02633
-6.52725
-6.02361
-5.51657
-5.00723
-4.49668
-3.98595
-3.47606
-2.96796
-2.46256
-1.96072
-1.46325
-0.9709
-0.484381
-0.00433651
0.468642
0.934019
1.39131
1.8401
2.28
2.71071
3.13196
3.54355
3.9453
4.33704
4.71875
5.09066
5.45279
5.80467
6.14592
6.47651
6.79668
7.10668
7.4067
7.69694
7.97757
8.24878
8.51077
8.76376
9.00795
9.24357
9.47082
9.68993
9.90114
10.1047
10.3009
10.4899
10.672
10.8474
11.0163
11.1791
11.3358
11.4868
11.6323
11.7725
11.9075
12.0377
12.1631
12.284
12.4006
12.513
12.6215
12.7261
12.8272
12.9252
13.0199
13.1113
13.1996
13.285
13.3674
13.4472
13.5244
13.5991
13.6714
13.7415
13.8094
13.8751
13.9389
14.0007
14.0607
14.1189
14.1753
14.2301
14.2832
14.3347
14.3847
14.4332
14.4802
14.5258
14.57
14.6128
14.6542
14.6943
14.733
14.7705
14.8066
14.8415
14.8751
14.9075
14.9387
14.9689
14.9981
15.0264
15.0541
15.0816
15.1093
15.138
15.1688
15.2042
15.2458
15.3037
15.3641
-8.58332
-8.61457
-8.68852
-8.78213
-8.88559
-8.9778
-9.03904
-9.06343
-9.04637
-8.98592
-8.89616
-8.79934
-8.71772
-8.66644
-8.64438
-8.64119
-8.65075
-8.67619
-8.71147
-8.73171
-8.75605
-8.83401
-8.99376
-9.23333
-9.54021
-9.91119
-10.337
-10.7971
-11.27
-11.7378
-12.1879
-12.6111
-13.0008
-13.3533
-13.6669
-13.9411
-14.1765
-14.374
-14.5348
-14.6601
-14.7511
-14.8087
-14.8342
-14.8283
-14.7918
-14.7254
-14.6295
-14.5042
-14.35
-14.17
-13.9679
-13.744
-13.4973
-13.228
-12.9368
-12.6243
-12.2916
-11.9395
-11.5689
-11.181
-10.7768
-10.3574
-9.92392
-9.47751
-9.01934
-8.55061
-8.0725
-7.58622
-7.09296
-6.59391
-6.09023
-5.58305
-5.0735
-4.56266
-4.05157
-3.54123
-3.0326
-2.5266
-2.02409
-1.52589
-1.03274
-0.545363
-0.0644042
0.409538
0.875919
1.33425
1.78408
2.22502
2.65673
3.0789
3.49126
3.89358
4.28563
4.66731
5.0387
5.40001
5.75143
6.09301
6.42458
6.74604
7.05743
7.35887
7.65051
7.93254
8.20512
8.46846
8.72276
8.96823
9.2051
9.43362
9.654
9.86647
10.0713
10.2686
10.4588
10.642
10.8186
10.9886
11.1524
11.3102
11.4623
11.6087
11.7499
11.8859
12.0171
12.1436
12.2656
12.3833
12.4968
12.6063
12.7121
12.8139
12.912
13.0067
13.0983
13.1868
13.2724
13.3552
13.4352
13.5127
13.5877
13.6603
13.7307
13.7989
13.865
13.929
13.9912
14.0514
14.1099
14.1666
14.2216
14.275
14.3267
14.377
14.4257
14.4729
14.5187
14.5631
14.6061
14.6477
14.688
14.7269
14.7645
14.8008
14.8358
14.8696
14.9021
14.9335
14.9638
14.9931
15.0215
15.0494
15.0769
15.1047
15.1335
15.1642
15.199
15.2385
15.2922
15.342
-8.71034
-8.79217
-8.91013
-9.01595
-9.09884
-9.15269
-9.17331
-9.15949
-9.10992
-9.02683
-8.91929
-8.80391
-8.70416
-8.63961
-8.61087
-8.60604
-8.62505
-8.68177
-8.78538
-8.93242
-9.12276
-9.36351
-9.65755
-9.99667
-10.3687
-10.7644
-11.1739
-11.5852
-11.9877
-12.3743
-12.7402
-13.0817
-13.3961
-13.6817
-13.9375
-14.163
-14.3579
-14.5224
-14.6567
-14.7611
-14.836
-14.8818
-14.8988
-14.8876
-14.8486
-14.7821
-14.6886
-14.5681
-14.4205
-14.2468
-14.0485
-13.8265
-13.5814
-13.3138
-13.0243
-12.7137
-12.3828
-12.0325
-11.6637
-11.2775
-10.8749
-10.4569
-10.0247
-9.57948
-9.12235
-8.65451
-8.17715
-7.69147
-7.19867
-6.69993
-6.19642
-5.68928
-5.17963
-4.66855
-4.15711
-3.6463
-3.13709
-2.6304
-2.12711
-1.62802
-1.13391
-0.645492
-0.163415
0.311712
0.779343
1.23898
1.69019
2.13257
2.5658
2.98958
3.40367
3.80787
4.20203
4.58607
4.95995
5.3237
5.67732
6.02085
6.35424
6.6775
6.9907
7.29395
7.5874
7.87121
8.14556
8.41064
8.66666
8.91383
9.15237
9.38251
9.60448
9.8185
10.0248
10.2237
10.4153
10.5999
10.7778
10.9492
11.1143
11.2735
11.4267
11.5744
11.7167
11.8539
11.986
12.1133
12.2361
12.3545
12.4687
12.5788
12.6852
12.7877
12.8868
12.9826
13.0752
13.1647
13.2512
13.3348
13.4157
13.4939
13.5697
13.643
13.714
13.7828
13.8495
13.9141
13.9768
14.0376
14.0965
14.1537
14.2091
14.2629
14.3151
14.3657
14.4148
14.4624
14.5085
14.5532
14.5965
14.6384
14.679
14.7181
14.756
14.7925
14.8278
14.8617
14.8945
14.926
14.9565
14.9859
15.0145
15.0424
15.07
15.0977
15.1262
15.1563
15.1898
15.2264
15.2738
15.3073
-8.74975
-8.84719
-8.94846
-9.03498
-9.09942
-9.13912
-9.15157
-9.13417
-9.0869
-9.01479
-8.92906
-8.84651
-8.78531
-8.75833
-8.77045
-8.82375
-8.92214
-9.06924
-9.26568
-9.50645
-9.78271
-10.0873
-10.4142
-10.757
-11.1104
-11.4691
-11.8279
-12.1816
-12.5255
-12.8555
-13.1684
-13.4615
-13.7326
-13.9801
-14.2027
-14.3995
-14.5698
-14.7134
-14.83
-14.9196
-14.9821
-15.0176
-15.0263
-15.0082
-14.9635
-14.8925
-14.7954
-14.6724
-14.5242
-14.3514
-14.1545
-13.934
-13.6906
-13.4246
-13.1368
-12.8279
-12.4986
-12.1499
-11.7827
-11.3979
-10.9965
-10.5797
-10.1486
-9.7042
-9.24777
-8.78047
-8.30351
-7.81806
-7.32533
-6.82651
-6.32275
-5.81522
-5.30503
-4.79328
-4.28102
-3.76927
-3.259
-2.75114
-2.24655
-1.74608
-1.25048
-0.760485
-0.276752
0.200107
0.669537
1.13104
1.58417
2.02852
2.46377
2.88961
3.30582
3.71218
4.10857
4.49489
4.8711
5.23716
5.59305
5.93874
6.27424
6.59958
6.91486
7.22018
7.51568
7.80152
8.07788
8.34494
8.60291
8.85199
9.09241
9.32439
9.54815
9.76393
9.97196
10.1725
10.3658
10.5521
10.7315
10.9044
11.071
11.2315
11.3861
11.5351
11.6787
11.817
11.9504
12.0789
12.2028
12.3224
12.4376
12.5489
12.6562
12.7598
12.8599
12.9567
13.0503
13.1407
13.2281
13.3126
13.3943
13.4733
13.5498
13.6239
13.6956
13.765
13.8324
13.8976
13.9608
14.0222
14.0816
14.1393
14.1952
14.2495
14.3021
14.3532
14.4027
14.4507
14.4972
14.5422
14.5858
14.6281
14.6689
14.7084
14.7465
14.7833
14.8188
14.8529
14.8859
14.9176
14.9482
14.9777
15.0063
15.0342
15.0616
15.089
15.1168
15.1458
15.1771
15.2096
15.249
15.2676
-8.53788
-8.62279
-8.72289
-8.81998
-8.89734
-8.95006
-8.97715
-8.97942
-8.96135
-8.93123
-8.90114
-8.88508
-8.89582
-8.94295
-9.03265
-9.16805
-9.34927
-9.57173
-9.82699
-10.107
-10.4063
-10.7206
-11.0456
-11.3763
-11.7084
-12.0381
-12.362
-12.677
-12.9803
-13.2696
-13.5428
-13.7983
-14.0345
-14.2503
-14.4447
-14.6168
-14.7659
-14.8915
-14.993
-15.0702
-15.1227
-15.1503
-15.1529
-15.1303
-15.0826
-15.0096
-14.9116
-14.7887
-14.6411
-14.4693
-14.2736
-14.0545
-13.8124
-13.5479
-13.2616
-12.9541
-12.6263
-12.279
-11.9131
-11.5295
-11.1293
-10.7134
-10.2831
-9.83943
-9.38354
-8.91665
-8.43994
-7.95459
-7.46182
-6.96279
-6.4587
-5.95068
-5.43987
-4.92736
-4.41422
-3.90146
-3.39007
-2.88096
-2.37504
-1.87312
-1.37598
-0.884355
-0.398909
0.0797428
0.55104
1.01448
1.46961
1.91603
2.35339
2.78141
3.19983
3.60846
4.00714
4.39577
4.77428
5.14262
5.50077
5.8487
6.18643
6.514
6.8315
7.13903
7.43673
7.72475
8.00326
8.27246
8.53253
8.78368
9.02615
9.26015
9.48589
9.70361
9.91355
10.1159
10.311
10.499
10.6802
10.8548
11.023
11.1851
11.3413
11.4918
11.6368
11.7766
11.9113
12.0412
12.1665
12.2873
12.4038
12.5163
12.6248
12.7295
12.8307
12.9286
13.0231
13.1145
13.2028
13.2881
13.3707
13.4505
13.5278
13.6026
13.6751
13.7453
13.8133
13.8792
13.9431
14.005
14.0651
14.1233
14.1798
14.2346
14.2877
14.3392
14.3892
14.4376
14.4845
14.53
14.574
14.6166
14.6578
14.6976
14.736
14.7731
14.8088
14.8432
14.8764
14.9082
14.9389
14.9685
14.9971
15.0248
15.0519
15.0787
15.1056
15.1329
15.1615
15.1894
15.2209
15.2271
-8.11792
-8.20632
-8.32725
-8.44995
-8.55518
-8.63559
-8.69391
-8.73599
-8.76946
-8.80412
-8.85093
-8.92016
-9.01988
-9.15487
-9.32736
-9.53635
-9.77717
-10.0442
-10.3322
-10.6354
-10.9483
-11.2663
-11.5853
-11.9018
-12.2131
-12.517
-12.8116
-13.0954
-13.3668
-13.6246
-13.8675
-14.0944
-14.3043
-14.4961
-14.6691
-14.8222
-14.9548
-15.0662
-15.1557
-15.2229
-15.2671
-15.2882
-15.2856
-15.2591
-15.2086
-15.1338
-15.0349
-14.9117
-14.7644
-14.5932
-14.3985
-14.1805
-13.9397
-13.6765
-13.3916
-13.0856
-12.7593
-12.4133
-12.0487
-11.6663
-11.2672
-10.8524
-10.423
-9.98003
-9.52474
-9.0583
-8.58189
-8.0967
-7.60391
-7.10473
-6.60033
-6.09187
-5.58047
-5.06723
-4.55323
-4.03949
-3.52699
-3.01667
-2.50941
-2.00606
-1.5074
-1.01416
-0.527005
-0.0465665
0.426595
0.891968
1.3491
1.79758
2.23707
2.66726
3.08791
3.4988
3.89977
4.29071
4.67153
5.04218
5.40261
5.75283
6.09284
6.4227
6.74248
7.05228
7.35224
7.64252
7.92328
8.19469
8.45696
8.71028
8.95487
9.19095
9.41875
9.63849
9.8504
10.0547
10.2517
10.4416
10.6246
10.801
10.971
11.1348
11.2926
11.4448
11.5914
11.7327
11.8689
12.0003
12.127
12.2492
12.367
12.4807
12.5905
12.6965
12.7989
12.8978
12.9934
13.0857
13.175
13.2614
13.3449
13.4256
13.5038
13.5795
13.6528
13.7237
13.7925
13.8591
13.9237
13.9863
14.047
14.1059
14.163
14.2184
14.272
14.3241
14.3746
14.4235
14.4709
14.5168
14.5612
14.6042
14.6458
14.6859
14.7247
14.7621
14.7981
14.8328
14.8661
14.8981
14.9289
14.9585
14.987
15.0145
15.0412
15.0672
15.0929
15.1182
15.1437
15.1667
15.191
15.1865
-7.65291
-7.75159
-7.89365
-8.04244
-8.18038
-8.29901
-8.40191
-8.4984
-8.59789
-8.70931
-8.84026
-8.99565
-9.17821
-9.38839
-9.6245
-9.88442
-10.1652
-10.4621
-10.7699
-11.0836
-11.3988
-11.712
-12.0206
-12.3225
-12.6161
-12.9001
-13.1735
-13.4353
-13.6847
-13.9209
-14.1429
-14.35
-14.5413
-14.716
-14.8733
-15.0124
-15.1325
-15.2329
-15.3128
-15.3718
-15.4092
-15.4245
-15.4172
-15.3871
-15.3337
-15.2569
-15.1565
-15.0324
-14.8848
-14.7136
-14.5192
-14.3018
-14.0617
-13.7995
-13.5156
-13.2107
-12.8855
-12.5408
-12.1774
-11.7962
-11.3983
-10.9845
-10.5561
-10.1141
-9.65968
-9.19398
-8.71819
-8.23349
-7.7411
-7.24218
-6.7379
-6.22942
-5.71788
-5.20436
-4.68995
-4.17566
-3.66248
-3.15136
-2.64318
-2.13879
-1.63896
-1.14444
-0.655912
-0.173991
0.30075
0.767795
1.22668
1.67701
2.11841
2.55058
2.97326
3.38625
3.78936
4.18247
4.56548
4.93833
5.30098
5.65342
5.99566
6.32776
6.64979
6.96185
7.26407
7.55659
7.83957
8.1132
8.37766
8.63316
8.8799
9.11811
9.348
9.56981
9.78377
9.99011
10.1891
10.3809
10.5658
10.744
10.9158
11.0814
11.241
11.3948
11.5431
11.686
11.8238
11.9567
12.0849
12.2085
12.3278
12.4428
12.5539
12.6612
12.7648
12.8649
12.9616
13.0551
13.1455
13.2328
13.3174
13.3991
13.4782
13.5548
13.629
13.7008
13.7703
13.8378
13.9031
13.9665
14.0279
14.0874
14.1451
14.2011
14.2554
14.308
14.3591
14.4085
14.4564
14.5028
14.5477
14.5911
14.6331
14.6737
14.7128
14.7505
14.7868
14.8217
14.8553
14.8875
14.9183
14.9479
14.9762
15.0034
15.0295
15.0547
15.0789
15.1021
15.1243
15.1424
15.1601
15.1463
-7.29727
-7.39074
-7.54277
-7.7085
-7.87533
-8.0363
-8.1909
-8.34701
-8.51287
-8.69429
-8.89533
-9.11717
-9.35841
-9.61817
-9.89588
-10.1892
-10.4945
-10.8072
-11.1232
-11.4389
-11.7514
-12.0584
-12.3581
-12.649
-12.9302
-13.2008
-13.4601
-13.7075
-13.9424
-14.1642
-14.3722
-14.5659
-14.7444
-14.9071
-15.0533
-15.1822
-15.2931
-15.3852
-15.4579
-15.5104
-15.5423
-15.5528
-15.5415
-15.508
-15.4518
-15.3728
-15.2706
-15.1453
-14.9966
-14.8248
-14.63
-14.4124
-14.1723
-13.9103
-13.6267
-13.3222
-12.9975
-12.6534
-12.2907
-11.9102
-11.513
-11.1001
-10.6725
-10.2313
-9.77769
-9.31278
-8.83775
-8.35379
-7.86206
-7.36376
-6.86004
-6.35205
-5.8409
-5.3277
-4.8135
-4.29932
-3.78615
-3.27492
-2.76652
-2.26179
-1.7615
-1.26641
-0.777183
-0.294449
0.181219
0.649304
1.10934
1.56092
2.00368
2.4373
2.86152
3.27612
3.68091
4.07576
4.46057
4.83526
5.19979
5.55415
5.89835
6.23244
6.55648
6.87059
7.17487
7.46946
7.75453
8.03025
8.2968
8.55439
8.80321
9.04348
9.27542
9.49926
9.71523
9.92355
10.1245
10.3182
10.505
10.6851
10.8587
11.0261
11.1874
11.343
11.4929
11.6375
11.7769
11.9114
12.0411
12.1662
12.2869
12.4033
12.5158
12.6244
12.7292
12.8306
12.9285
13.0231
13.1146
13.2031
13.2886
13.3714
13.4515
13.529
13.6041
13.6768
13.7473
13.8155
13.8816
13.9457
14.0079
14.0682
14.1266
14.1832
14.2381
14.2914
14.343
14.393
14.4414
14.4883
14.5337
14.5776
14.6201
14.661
14.7005
14.7386
14.7752
14.8104
14.8442
14.8765
14.9074
14.9369
14.965
14.9918
15.0172
15.0413
15.064
15.0848
15.1037
15.1171
15.1288
15.1068
-7.10694
-7.19305
-7.34716
-7.51952
-7.70292
-7.89522
-8.09301
-8.29827
-8.51557
-8.74735
-8.9939
-9.25517
-9.53112
-9.82135
-10.124
-10.4357
-10.753
-11.0724
-11.3909
-11.7059
-12.0152
-12.3172
-12.6105
-12.8941
-13.1673
-13.4293
-13.6798
-13.9181
-14.1438
-14.3565
-14.5556
-14.7406
-14.9108
-15.0656
-15.2044
-15.3263
-15.4308
-15.5171
-15.5844
-15.6322
-15.6597
-15.6665
-15.6518
-15.6154
-15.5567
-15.4755
-15.3715
-15.2445
-15.0946
-14.9217
-14.726
-14.5076
-14.267
-14.0045
-13.7206
-13.416
-13.0913
-12.7472
-12.3846
-12.0045
-11.6076
-11.1951
-10.768
-10.3273
-9.87433
-9.41007
-8.93574
-8.4525
-7.96152
-7.46397
-6.961
-6.45374
-5.94332
-5.4308
-4.91725
-4.40367
-3.89104
-3.38027
-2.87226
-2.36783
-1.86777
-1.37279
-0.883573
-0.400748
0.0751192
0.543512
1.00396
1.45606
1.89944
2.33379
2.75884
3.17437
3.58018
3.97615
4.36215
4.73811
5.10398
5.45975
5.80543
6.14106
6.4667
6.78245
7.08842
7.38475
7.67158
7.94909
8.21746
8.47688
8.72754
8.96966
9.20346
9.42915
9.64697
9.85713
10.0599
10.2554
10.444
10.6259
10.8013
10.9704
11.1334
11.2906
11.4422
11.5884
11.7294
11.8654
11.9965
12.1231
12.2452
12.3631
12.4769
12.5868
12.693
12.7956
12.8947
12.9905
13.0831
13.1727
13.2593
13.3431
13.4242
13.5027
13.5787
13.6524
13.7237
13.7928
13.8597
13.9246
13.9875
14.0485
14.1076
14.165
14.2205
14.2744
14.3266
14.3772
14.4262
14.4737
14.5196
14.564
14.6068
14.6482
14.6881
14.7266
14.7635
14.799
14.8329
14.8654
14.8963
14.9258
14.9536
14.9799
15.0046
15.0275
15.0485
15.067
15.0825
15.0914
15.0976
15.0686
-7.07906
-7.1659
-7.31359
-7.48238
-7.66911
-7.87367
-8.0929
-8.3248
-8.56962
-8.82797
-9.09935
-9.3829
-9.67839
-9.98465
-10.299
-10.6184
-10.94
-11.2611
-11.5793
-11.8924
-12.1989
-12.4972
-12.7864
-13.0655
-13.334
-13.5911
-13.8366
-14.0699
-14.2905
-14.4982
-14.6923
-14.8723
-15.0377
-15.1879
-15.3222
-15.4398
-15.5403
-15.6227
-15.6864
-15.7309
-15.7553
-15.7592
-15.7419
-15.703
-15.6422
-15.5589
-15.4531
-15.3245
-15.1731
-14.9988
-14.8019
-14.5826
-14.3411
-14.0778
-13.7934
-13.4883
-13.1632
-12.8189
-12.4562
-12.0761
-11.6794
-11.2671
-10.8404
-10.4002
-9.94778
-9.4842
-9.01062
-8.5282
-8.03811
-7.54149
-7.03949
-6.53323
-6.02382
-5.51233
-4.99979
-4.48721
-3.97555
-3.46571
-2.95858
-2.45498
-1.95567
-1.46138
-0.972775
-0.490473
-0.0150334
0.453031
0.913261
1.36525
1.80863
2.24309
2.66835
3.08419
3.49043
3.8869
4.27351
4.65017
5.01683
5.37346
5.72009
6.05675
6.3835
6.70043
7.00765
7.30528
7.59348
7.8724
8.14222
8.40312
8.65531
8.89898
9.13435
9.36163
9.58105
9.79283
9.99719
10.1944
10.3846
10.568
10.745
10.9157
11.0803
11.2391
11.3922
11.5399
11.6824
11.8198
11.9524
12.0804
12.2039
12.3231
12.4383
12.5495
12.6569
12.7606
12.8609
12.9579
13.0516
13.1423
13.23
13.3148
13.3969
13.4764
13.5533
13.6278
13.7
13.77
13.8377
13.9034
13.9671
14.0288
14.0887
14.1467
14.2029
14.2575
14.3103
14.3615
14.411
14.459
14.5055
14.5504
14.5937
14.6355
14.6759
14.7147
14.7519
14.7876
14.8218
14.8544
14.8853
14.9146
14.9422
14.968
14.9919
15.0136
15.0328
15.0488
15.0611
15.0657
15.067
15.0319
-7.18997
-7.26833
-7.39927
-7.55516
-7.73381
-7.9349
-8.15574
-8.39374
-8.64726
-8.91497
-9.19521
-9.48686
-9.78896
-10.0996
-10.4162
-10.7363
-11.0573
-11.377
-11.6932
-12.0041
-12.3082
-12.6042
-12.8911
-13.1681
-13.4345
-13.6897
-13.9332
-14.1646
-14.3834
-14.5891
-14.7812
-14.9593
-15.1226
-15.2707
-15.4028
-15.5183
-15.6165
-15.6968
-15.7584
-15.8007
-15.823
-15.8248
-15.8055
-15.7647
-15.702
-15.617
-15.5095
-15.3793
-15.2264
-15.0508
-14.8527
-14.6322
-14.3897
-14.1257
-13.8405
-13.5349
-13.2094
-12.8649
-12.5021
-12.122
-11.7256
-11.3137
-10.8875
-10.448
-9.99636
-9.53369
-9.06115
-8.57987
-8.091
-7.59569
-7.09507
-6.59024
-6.0823
-5.57231
-5.06129
-4.55022
-4.04006
-3.5317
-3.026
-2.52377
-2.02578
-1.53272
-1.04527
-0.564032
-0.0895629
0.37763
0.837091
1.28841
1.73124
2.16525
2.59017
3.00579
3.4119
3.80836
4.19506
4.57191
4.93887
5.2959
5.64302
5.98026
6.30768
6.62537
6.93343
7.23198
7.52116
7.80113
8.07206
8.33413
8.58752
8.83245
9.06911
9.29771
9.51848
9.73163
9.93738
10.136
10.3276
10.5125
10.6909
10.863
11.029
11.1892
11.3437
11.4928
11.6366
11.7754
11.9094
12.0387
12.1635
12.284
12.4004
12.5128
12.6214
12.7263
12.8278
12.9258
13.0206
13.1123
13.201
13.2869
13.3699
13.4504
13.5282
13.6036
13.6767
13.7475
13.816
13.8825
13.947
14.0094
14.07
14.1287
14.1856
14.2408
14.2942
14.346
14.3961
14.4447
14.4916
14.537
14.5809
14.6232
14.6639
14.703
14.7406
14.7766
14.811
14.8437
14.8746
14.9038
14.9311
14.9563
14.9793
14.9997
15.0172
15.0308
15.0399
15.0407
15.0375
14.9971
-7.36648
-7.43105
-7.54195
-7.68039
-7.84421
-8.03295
-8.24426
-8.47546
-8.7241
-8.98785
-9.26448
-9.55282
-9.85164
-10.1587
-10.4717
-10.7881
-11.1056
-11.4221
-11.7356
-12.0444
-12.3469
-12.6419
-12.9282
-13.205
-13.4716
-13.7272
-13.9713
-14.2032
-14.4226
-14.6288
-14.8214
-14.9996
-15.163
-15.3109
-15.4427
-15.5576
-15.6551
-15.7344
-15.795
-15.836
-15.857
-15.8574
-15.8367
-15.7944
-15.7302
-15.6436
-15.5346
-15.4031
-15.2488
-15.072
-14.8727
-14.6513
-14.4079
-14.1432
-13.8575
-13.5515
-13.2259
-12.8814
-12.5188
-12.1391
-11.7433
-11.3322
-10.9069
-10.4686
-10.0182
-9.55703
-9.08607
-8.6065
-8.11945
-7.62605
-7.12741
-6.62464
-6.11879
-5.61091
-5.10201
-4.59307
-4.08503
-3.57875
-3.0751
-2.57486
-2.07879
-1.58759
-1.1019
-0.622331
-0.149429
0.316305
0.774421
1.22452
1.66623
2.09926
2.52332
2.9382
3.3437
3.73967
4.12599
4.50259
4.8694
5.2264
5.57361
5.91104
6.23876
6.55684
6.86539
7.16451
7.45436
7.73507
8.0068
8.26975
8.52408
8.77
9.0077
9.2374
9.45929
9.6736
9.88054
10.0803
10.2732
10.4594
10.639
10.8124
10.9797
11.1412
11.297
11.4473
11.5924
11.7325
11.8677
11.9982
12.1242
12.2459
12.3635
12.4771
12.5868
12.6928
12.7954
12.8945
12.9903
13.083
13.1727
13.2595
13.3436
13.4249
13.5036
13.5799
13.6538
13.7254
13.7948
13.8621
13.9272
13.9904
14.0517
14.1111
14.1687
14.2245
14.2785
14.3309
14.3816
14.4307
14.4782
14.5241
14.5685
14.6112
14.6523
14.6919
14.7298
14.7661
14.8006
14.8334
14.8644
14.8934
14.9203
14.945
14.9671
14.9863
15.002
15.0133
15.0194
15.0165
15.0093
14.9645
-7.54038
-7.59186
-7.68443
-7.80501
-7.95164
-8.12378
-8.31937
-8.53603
-8.7713
-9.02263
-9.28799
-9.56626
-9.85606
-10.1551
-10.4611
-10.7716
-11.0842
-11.397
-11.7079
-12.015
-12.317
-12.6122
-12.8997
-13.1781
-13.4468
-13.7048
-13.9514
-14.186
-14.4079
-14.6165
-14.8112
-14.9914
-15.1564
-15.3055
-15.4382
-15.5538
-15.6515
-15.7308
-15.7911
-15.8316
-15.8519
-15.8514
-15.8296
-15.7862
-15.7207
-15.633
-15.5228
-15.3901
-15.2348
-15.0571
-14.857
-14.6348
-14.391
-14.1259
-13.8401
-13.5342
-13.2089
-12.865
-12.5032
-12.1245
-11.7299
-11.3202
-10.8966
-10.4601
-10.0117
-9.5527
-9.08406
-8.60695
-8.12248
-7.63176
-7.13588
-6.63593
-6.13296
-5.62798
-5.12199
-4.61595
-4.11077
-3.60734
-3.10648
-2.60895
-2.11551
-1.62684
-1.14359
-0.666339
-0.195638
0.268023
0.724198
1.17249
1.61254
2.04404
2.46673
2.88037
3.28477
3.67978
4.06529
4.4412
4.80746
5.16405
5.51096
5.84823
6.1759
6.49404
6.80276
7.10217
7.39239
7.67356
7.94585
8.20943
8.46446
8.71115
8.94969
9.18027
9.4031
9.6184
9.82636
10.0272
10.2212
10.4084
10.5892
10.7637
10.9322
11.0948
11.2518
11.4033
11.5496
11.6909
11.8272
11.9589
12.0861
12.2089
12.3276
12.4423
12.5531
12.6602
12.7638
12.8639
12.9608
13.0545
13.1451
13.2328
13.3178
13.4
13.4796
13.5568
13.6315
13.7039
13.7741
13.8421
13.908
13.9719
14.0339
14.094
14.1522
14.2086
14.2633
14.3163
14.3676
14.4173
14.4653
14.5117
14.5565
14.5997
14.6413
14.6812
14.7195
14.756
14.7908
14.8237
14.8547
14.8835
14.9101
14.9342
14.9554
14.9734
14.9874
14.9965
14.9999
14.9936
14.9827
14.9342
-7.66717
-7.70934
-7.78653
-7.89047
-8.01971
-8.17377
-8.35092
-8.5492
-8.7666
-9.00092
-9.25076
-9.51541
-9.79343
-10.0825
-10.3803
-10.6842
-10.9921
-11.3016
-11.6107
-11.9174
-12.2201
-12.5172
-12.8073
-13.0891
-13.3616
-13.6237
-13.8745
-14.1132
-14.3391
-14.5515
-14.7496
-14.9328
-15.1004
-15.2517
-15.3861
-15.5029
-15.6016
-15.6814
-15.7418
-15.7823
-15.8022
-15.8011
-15.7786
-15.7344
-15.668
-15.5794
-15.4684
-15.3349
-15.179
-15.0007
-14.8002
-14.5779
-14.3342
-14.0694
-13.7842
-13.4791
-13.1548
-12.8122
-12.452
-12.0752
-11.6826
-11.2753
-10.8543
-10.4205
-9.97517
-9.51927
-9.05394
-8.58027
-8.09935
-7.61228
-7.12014
-6.62397
-6.1248
-5.62365
-5.12147
-4.61921
-4.11777
-3.61801
-3.12074
-2.62673
-2.13669
-1.6513
-1.17119
-0.696956
-0.229122
0.231825
0.685444
1.13134
1.56916
1.9986
2.41938
2.83128
3.23411
3.62772
4.01197
4.38679
4.75212
5.10792
5.45418
5.79095
6.11825
6.43616
6.74477
7.04418
7.33452
7.61592
7.88853
8.15252
8.40806
8.65532
8.89451
9.12581
9.34942
9.56554
9.77439
9.97616
10.1711
10.3593
10.5411
10.7167
10.8862
11.0499
11.208
11.3607
11.508
11.6504
11.7878
11.9206
12.0489
12.1728
12.2926
12.4083
12.5201
12.6283
12.7329
12.834
12.9318
13.0265
13.1181
13.2067
13.2925
13.3756
13.4561
13.5341
13.6096
13.6828
13.7538
13.8226
13.8892
13.9539
14.0165
14.0773
14.1362
14.1932
14.2486
14.3022
14.354
14.4043
14.4529
14.4998
14.5451
14.5888
14.6308
14.6711
14.7097
14.7466
14.7815
14.8146
14.8455
14.8743
14.9005
14.9241
14.9445
14.9612
14.9737
14.9807
14.9815
14.9722
14.958
14.9063
-7.72259
-7.76084
-7.82643
-7.91542
-8.02764
-8.16304
-8.32058
-8.49893
-8.69654
-8.91187
-9.1444
-9.39405
-9.65946
-9.93826
-10.2279
-10.5258
-10.8296
-11.1368
-11.4454
-11.7531
-12.058
-12.3583
-12.6525
-12.9389
-13.2165
-13.4839
-13.74
-13.9839
-14.2148
-14.4317
-14.6339
-14.8207
-14.9915
-15.1454
-15.2819
-15.4004
-15.5002
-15.5808
-15.6416
-15.6822
-15.702
-15.7006
-15.6777
-15.633
-15.5662
-15.4771
-15.3658
-15.2321
-15.076
-14.8979
-14.6978
-14.4762
-14.2333
-13.9697
-13.6859
-13.3826
-13.0605
-12.7203
-12.3628
-11.989
-11.5996
-11.1958
-10.7785
-10.3487
-9.90749
-9.45591
-8.99504
-8.52596
-8.04975
-7.56745
-7.08014
-6.58882
-6.09453
-5.59822
-5.10087
-4.60337
-4.10661
-3.61142
-3.11862
-2.62896
-2.14314
-1.66182
-1.18562
-0.715113
-0.250833
0.206743
0.657179
1.10008
1.5351
1.96193
2.3803
2.78997
3.19077
3.58253
3.96512
4.33845
4.70247
5.05713
5.40242
5.73837
6.06502
6.38242
6.69066
6.98983
7.28006
7.56146
7.83419
8.0984
8.35426
8.60194
8.84162
9.07349
9.29774
9.51456
9.72417
9.92676
10.1225
10.3117
10.4944
10.6709
10.8415
11.0062
11.1653
11.3189
11.4674
11.6108
11.7493
11.8831
12.0124
12.1374
12.2582
12.3749
12.4878
12.597
12.7025
12.8046
12.9034
12.999
13.0915
13.1811
13.2678
13.3517
13.4331
13.5119
13.5882
13.6622
13.7339
13.8035
13.8709
13.9362
13.9996
14.061
14.1206
14.1783
14.2342
14.2884
14.3409
14.3917
14.4409
14.4883
14.5342
14.5783
14.6208
14.6615
14.7005
14.7377
14.7729
14.8061
14.8371
14.8657
14.8917
14.9147
14.9343
14.95
14.9609
14.966
14.9644
14.9525
14.9352
14.8809
-7.70813
-7.74282
-7.79965
-7.8748
-7.96982
-8.08552
-8.22193
-8.37867
-8.55496
-8.75011
-8.96455
-9.19878
-9.4516
-9.72054
-10.0029
-10.2959
-10.5971
-10.9037
-11.2133
-11.5236
-11.8322
-12.1372
-12.4367
-12.729
-13.0125
-13.2859
-13.548
-13.7976
-14.0337
-14.2554
-14.4619
-14.6524
-14.8262
-14.9827
-15.1213
-15.2413
-15.3423
-15.4237
-15.4851
-15.5259
-15.5458
-15.5444
-15.5215
-15.4768
-15.41
-15.3211
-15.2101
-15.0769
-14.9217
-14.7446
-14.5459
-14.3259
-14.0851
-13.8238
-13.5428
-13.2425
-12.9238
-12.5873
-12.2338
-11.8643
-11.4796
-11.0806
-10.6684
-10.244
-9.80825
-9.36233
-8.90726
-8.44407
-7.97383
-7.49756
-7.01628
-6.53101
-6.04273
-5.55239
-5.06092
-4.56921
-4.07813
-3.58849
-3.10107
-2.61663
-2.13587
-1.65944
-1.18791
-0.721867
-0.261829
0.191723
0.638353
1.07767
1.50933
1.93302
2.34847
2.75545
3.15376
3.54325
3.92378
4.29526
4.65762
5.01082
5.35484
5.68969
6.01541
6.33205
6.63969
6.9384
7.22831
7.50954
7.78221
8.04648
8.30251
8.55045
8.79049
9.02281
9.24758
9.46501
9.67528
9.87859
10.0751
10.2651
10.4487
10.6261
10.7976
10.9632
11.1233
11.278
11.4274
11.5718
11.7114
11.8462
11.9765
12.1025
12.2243
12.3421
12.4559
12.5661
12.6726
12.7757
12.8754
12.9719
13.0653
13.1558
13.2434
13.3282
13.4104
13.49
13.5672
13.642
13.7144
13.7847
13.8529
13.9189
13.983
14.0451
14.1053
14.1637
14.2203
14.2751
14.3282
14.3796
14.4293
14.4774
14.5237
14.5684
14.6113
14.6525
14.6919
14.7294
14.7649
14.7982
14.8293
14.8579
14.8836
14.9061
14.9251
14.9397
14.9493
14.9526
14.9489
14.9345
14.9145
14.8581
-7.64423
-7.67001
-7.71619
-7.77484
-7.8496
-7.94249
-8.05473
-8.18719
-8.34012
-8.51379
-8.70959
-8.92855
-9.16949
-9.42972
-9.70626
-9.99614
-10.2964
-10.6041
-10.9164
-11.2306
-11.5442
-11.8549
-12.1605
-12.4591
-12.749
-13.0285
-13.2964
-13.5514
-13.7925
-14.0186
-14.229
-14.4228
-14.5994
-14.7582
-14.8986
-15.0201
-15.1222
-15.2045
-15.2665
-15.3078
-15.3282
-15.3274