/*--------------------------------*- C++ -*----------------------------------*\
  =========                 |
  \\      /  F ield         | OpenFOAM: The Open Source CFD Toolbox
   \\    /   O peration     | Website:  https://openfoam.org
    \\  /    A nd           | Version:  8
     \\/     M anipulation  |
\*---------------------------------------------------------------------------*/
FoamFile
{
    version     2.0;
    format      ascii;
    class       volScalarField;
    location    "1400";
    object      omega;
}
// * * * * * * * * * * * * * * * * * * * * * * * * * * * * * * * * * * * * * //

dimensions      [0 0 -1 0 0 0 0];

internalField   nonuniform List<scalar> 
12225
(
32582.3
32582.3
32582.3
32582.3
32582.3
42203.7
50400.3
43829.6
38491.3
44817
44268.2
47857
43417.7
32582.3
32582.3
43383.6
42397.3
45892.2
12505.6
10842.1
11464.6
13241
13020.6
15108.4
17954.8
18101.3
16663.7
18261.4
18687.4
18504.8
19107.8
18208.7
17771.2
18240.1
17222.8
18737.4
3073.18
2265.89
2437.91
3011.63
3769.5
4461.24
5178.78
5714.45
5990.27
6411.01
6710.57
7034.2
7224.13
7406.82
7530.25
7699.96
7735.05
7863.54
1119.99
911.975
879.85
1001.02
1187.37
1397.18
1592.12
1770.66
1909.9
2067.59
2186.07
2322.9
2409.75
2513.21
2575.27
2661.61
2696.61
2787.39
608.845
582.571
569.943
604.145
657.985
722.912
779.724
841.865
891.496
951.952
996.316
1051.3
1086.44
1132.42
1158.83
1197.64
1216.75
1252.5
509.288
526.767
515.148
514.707
529.065
549.705
566.66
588.792
606.517
630.446
648.007
670.832
685.584
705.616
717.233
734.901
743.974
760.575
501.928
498.89
498.517
495.799
495.746
500.041
504.163
510.284
515.207
523.332
529.404
537.978
543.498
551.362
555.925
563.153
566.989
574.086
499.357
496.522
493.643
491.127
489.399
488.75
488.915
489.646
490.689
492.451
494.285
497.156
499.03
501.835
503.512
506.163
507.793
510.654
498.704
495.883
493.062
490.464
488.102
486.188
484.559
483.401
482.374
481.882
481.579
481.55
481.656
481.881
482.222
482.481
483.1
483.637
498.545
495.719
492.962
490.404
487.934
485.69
483.553
481.678
479.901
478.411
477.028
475.892
474.767
473.887
472.924
472.254
471.405
470.957
498.515
495.675
492.94
490.387
487.924
485.629
483.414
481.368
479.395
477.597
475.862
474.3
472.764
471.394
470.02
468.816
467.589
466.539
498.515
495.659
492.933
490.368
487.915
485.606
483.393
481.312
479.315
477.442
475.642
473.956
472.332
470.809
469.34
467.963
466.635
465.391
498.516
495.651
492.929
490.354
487.904
485.585
483.377
481.283
479.287
477.394
475.588
473.873
472.236
470.68
469.194
467.78
466.428
465.143
498.517
495.648
492.925
490.345
487.895
485.57
483.36
481.261
479.263
477.364
475.555
473.834
472.193
470.63
469.138
467.717
466.359
465.066
498.517
495.646
492.922
490.339
487.887
485.558
483.346
481.243
479.243
477.341
475.529
473.804
472.16
470.594
469.099
467.675
466.314
465.017
498.516
495.643
492.917
490.331
487.875
485.544
483.327
481.222
479.218
477.312
475.496
473.768
472.12
470.551
469.053
467.626
466.262
464.963
498.508
495.619
492.88
490.282
487.815
485.474
483.249
481.135
479.124
477.211
475.39
473.656
472.004
470.429
468.928
467.496
466.13
464.826
498.508
495.619
492.88
490.281
487.815
485.472
483.248
481.133
479.122
477.208
475.387
473.651
471.999
470.423
468.922
467.488
466.122
464.817
498.516
495.642
492.916
490.329
487.872
485.54
483.322
481.215
479.209
477.301
475.483
473.753
472.103
470.532
469.032
467.602
466.238
464.936
498.517
495.644
492.92
490.335
487.881
485.55
483.336
481.229
479.227
477.32
475.506
473.776
472.13
470.559
469.062
467.633
466.271
464.97
498.518
495.645
492.923
490.339
487.887
485.557
483.345
481.24
479.239
477.334
475.523
473.795
472.152
470.583
469.09
467.665
466.307
465.011
498.511
495.643
492.936
490.351
487.9
485.568
483.361
481.258
479.268
477.369
475.572
473.856
472.233
470.683
469.219
467.819
466.498
465.232
498.405
495.648
493.08
490.488
487.977
485.639
483.462
481.379
479.465
477.639
475.965
474.363
472.905
471.511
470.258
469.047
467.974
466.913
497.318
495.638
494.822
492.243
488.768
486.717
484.66
482.768
481.365
480.122
479.246
478.425
477.911
477.439
477.223
477.019
477.012
476.958
487.235
509.29
513.477
509.52
496.223
500.593
497.495
495.333
495.496
496.81
499.387
501.787
505.057
507.857
511.422
514.305
517.931
520.669
464.716
596.241
626.712
618.834
547.242
608.489
563.37
560.56
567.772
577.676
591.086
603.262
617.347
629.116
642.568
653.231
665.729
675.098
670.487
1308.05
1303.57
1166.05
857.01
1078.35
906.48
876.962
894.24
925.004
966.938
1004.83
1047.31
1081.71
1120.45
1149.94
1184.8
1209.85
1787.07
5311.72
4976.46
4029.74
2676.41
3235.21
2658.08
2445.23
2447.92
2515.45
2616.03
2711.06
2811.64
2892.92
2981.45
3048.79
3128.54
3185.87
7834.64
16388.2
15950.8
13228
10300.7
11178.5
10143.5
9597.75
9455.39
9431.9
9415.86
9445.2
9416.51
9379.34
9340.43
9299.16
9275.28
9251.09
16112.1
21049.9
23163.9
24312.3
24896.6
25038.9
24988
24850.4
24610.2
24342.2
24069.4
23804.2
23554.2
23322.4
23110.2
22917.1
22741.9
22585.2
11463.3
2494.65
2496.87
2499.12
2501.38
2503.67
2505.98
2508.3
2510.65
2513.02
2515.42
2517.83
2520.27
2522.73
2525.21
2527.72
2530.25
2532.8
2535.37
2537.97
2540.6
2543.25
2545.92
2548.62
2551.34
2554.09
2556.87
2559.67
2562.5
2565.35
2568.23
2571.14
2574.08
2577.04
2580.04
2583.06
2586.11
2589.19
2592.3
2595.43
2598.6
2601.8
2605.03
2608.29
2611.59
2614.91
2618.27
2621.66
2625.08
2628.54
2632.03
2635.55
2639.11
2642.71
2646.33
2650
3208.52
3168.89
2661.21
2665.03
3130.38
3164.21
3280.37
3390.12
3469.46
3561.87
3637.5
3718.86
3791.57
3865.49
3934.91
4003.84
4070.08
4135.33
4198.73
4261.02
4321.89
4381.65
4440.23
4497.73
4554.17
4609.59
4664.01
4717.45
4769.9
4821.4
4871.91
4921.48
4970.04
5017.62
5064.17
5109.64
5153.99
5197.18
5239.14
5279.83
5319.2
5357.29
5394.12
5429.95
5465.13
5499.45
5532.66
5564.97
5596.25
5626.59
5655.9
5684.23
5711.51
5737.81
5763.02
5787.23
5810.35
5832.45
5853.46
5873.42
5892.3
5910.12
5926.86
5942.55
5957.16
5970.73
5983.24
5994.71
6005.16
6014.6
6023.07
6030.75
6037.66
6042.24
6047.94
6049.65
6052.84
6054.43
6055.99
6056.42
6056.01
6053.59
6050.72
6046.68
6041.99
6036.47
6030.26
6023.29
6015.67
6007.36
5998.48
5989.04
5978.79
5968.3
5956.75
5945.17
5932.64
5920.06
5906.85
5893.48
5879.78
5865.92
5851.92
5837.85
5823.77
5809.69
5795.67
5781.69
5767.83
5754.1
5740.59
5727.33
5714.39
5701.8
5689.57
5677.65
5665.97
5654.27
5642.22
5629.08
5614
5594.22
5564.73
5445.76
11463.3
1992.27
996.414
810.184
693.151
624.154
631.226
627.346
615.724
593.032
568.83
545.262
523.607
505.728
493.519
484.9
484.222
486.327
512.945
561.842
646.523
748.303
858.691
968.248
1066.11
1141.86
1183.92
1177.58
1134.58
1054.7
930.218
775.563
645.852
562.188
496.395
460.857
455.8
463.74
485.779
517.823
548.66
586.078
680.414
805.351
1002.67
1319
1629.2
1842.19
1982.48
2055.07
2076.35
2070.08
2032.69
1975.54
1915.49
1874.62
1849.69
1761.67
1721.65
1712.06
1708.57
1682.34
1677.12
1669.19
1664.66
1663.24
1662.6
1664.94
1667.69
1672.34
1677.36
1683.5
1689.96
1697.04
1704.35
1711.99
1719.76
1727.7
1735.69
1743.73
1751.77
1759.79
1767.75
1775.65
1783.44
1791.12
1798.65
1806.03
1813.23
1820.24
1827.01
1833.56
1839.88
1845.98
1851.88
1857.66
1863.39
1869.24
1875.45
1882.34
1890.42
1898.73
1906.65
1914.41
1921.93
1929.22
1936.28
1943.11
1949.71
1956.08
1962.22
1968.12
1973.8
1979.24
1984.45
1989.43
1994.18
1998.71
2003.01
2007.08
2010.94
2014.57
2018
2021.21
2024.22
2027.03
2029.65
2032.08
2034.3
2036.27
2038.16
2039.67
2041.26
2042.61
2043.81
2044.6
2044.8
2044.23
2043.43
2042.43
2041.27
2039.93
2038.41
2036.74
2034.91
2032.97
2030.97
2028.11
2026.34
2022.74
2020.83
2017.06
2014.73
2011.22
2008.25
2004.86
2001.53
1998.1
1994.63
1991.12
1987.57
1984.01
1980.44
1976.85
1973.28
1969.72
1966.19
1962.7
1959.27
1955.9
1952.61
1949.41
1946.28
1943.31
1940.52
1938
1935.82
1934.54
1933.21
1941.97
11463.3
2007
813.444
643.119
684.047
683.938
655.706
599.776
539.914
483.749
434.125
392.06
359.027
333.147
313.241
297.936
287.288
279.141
277.095
279.479
290.144
308.754
341.167
385.319
440.528
501.14
562.504
609.455
639.918
637.678
615.092
573.076
510.349
441.658
391.309
384.547
394.969
418.349
455.514
527.222
637.373
791.356
988.582
1164.59
1311.64
1443.02
1530.95
1560.53
1560.82
1514.99
1462.54
1403.18
1345.19
1290.88
1244.97
1209.97
1181.14
1153.41
1137.29
1124.48
1115.41
1107.72
1103.95
1101.71
1100.63
1100.52
1101.68
1103.53
1105.93
1108.89
1112.16
1115.78
1119.6
1123.62
1127.78
1132.05
1136.39
1140.78
1145.21
1149.66
1154.11
1158.55
1162.96
1167.34
1171.67
1175.95
1180.18
1184.33
1188.42
1192.43
1196.37
1200.25
1204.07
1207.85
1211.62
1215.4
1219.24
1223.17
1227.24
1231.46
1235.76
1239.94
1243.98
1247.91
1251.71
1255.38
1258.92
1262.34
1265.62
1268.78
1271.8
1274.7
1277.46
1280.09
1282.6
1284.97
1287.21
1289.32
1291.3
1293.15
1294.87
1296.46
1297.93
1299.27
1300.49
1301.59
1302.56
1303.41
1304.14
1304.74
1305.25
1305.6
1305.89
1306.03
1306.04
1305.83
1305.39
1304.74
1303.99
1303.13
1302.17
1301.1
1299.93
1298.67
1297.3
1295.85
1294.34
1292.48
1290.96
1288.82
1287.18
1284.93
1283.07
1280.83
1278.71
1276.44
1274.15
1271.81
1269.43
1267
1264.55
1262.07
1259.56
1257.04
1254.51
1251.97
1249.42
1246.88
1244.36
1241.85
1239.38
1236.96
1234.61
1232.38
1230.34
1228.61
1227.35
1227.23
1228.6
1238.91
11463.3
2037.96
1014.93
982.208
905.024
775.517
658.205
551.12
466.703
403.739
356.364
319.379
290.587
268.48
251.578
238.72
229.094
222.132
217.529
215.877
216.946
220.077
228.494
242.839
264.512
293.273
327.947
363.126
394.52
417.752
423.607
417.51
394.197
396.001
434.725
524.319
588.418
644.805
715.766
817.39
951.193
1069.23
1148.12
1215.43
1268.55
1290.09
1256.99
1211.43
1167.95
1113.83
1068.91
1026.84
992.019
962.533
939.361
921.404
907.301
896.197
888.945
883.509
880.259
878.161
877.582
877.539
878.41
879.836
881.788
884.094
886.707
889.569
892.619
895.833
899.168
902.607
906.122
909.701
913.324
916.981
920.658
924.348
928.04
931.725
935.398
939.052
942.68
946.278
949.843
953.372
956.863
960.317
963.735
967.122
970.484
973.828
977.162
980.493
983.83
987.174
990.521
993.851
997.119
1000.29
1003.37
1006.35
1009.23
1012.01
1014.69
1017.27
1019.74
1022.11
1024.38
1026.54
1028.59
1030.53
1032.37
1034.1
1035.72
1037.23
1038.63
1039.92
1041.1
1042.17
1043.13
1043.98
1044.72
1045.35
1045.88
1046.3
1046.61
1046.81
1046.91
1046.9
1046.79
1046.56
1046.21
1045.72
1045.08
1044.32
1043.46
1042.51
1041.47
1040.34
1039.12
1037.82
1036.43
1034.95
1033.4
1031.7
1030.04
1028.15
1026.36
1024.36
1022.42
1020.34
1018.25
1016.09
1013.88
1011.63
1009.33
1007
1004.63
1002.23
999.81
997.368
994.908
992.435
989.951
987.464
984.978
982.5
980.045
977.632
975.282
973.037
970.957
969.147
967.764
967.341
968.352
974.684
11463.3
2314.39
1474.81
1188.77
943.04
728.668
562.145
450.682
374.702
321.712
284.019
257.114
237.638
222.949
211.528
202.61
195.812
190.837
187.498
185.872
186.09
187.407
191.316
198.184
209.076
225.008
246.18
270.114
294.205
312.949
329.2
354.258
421.413
523.701
611.433
679.041
748.409
824.32
896.852
960.795
1016.31
1064.03
1095.26
1104.24
1075.44
1028.08
991.882
949.538
913.082
878.427
850.949
827.054
808.055
792.694
780.945
772.07
765.576
761.014
758.467
757.028
756.711
757.009
758.168
759.807
761.903
764.333
767.04
769.96
773.059
776.301
779.66
783.115
786.649
790.247
793.897
797.587
801.308
805.05
808.807
812.569
816.331
820.087
823.831
827.558
831.264
834.944
838.596
842.217
845.806
849.362
852.887
856.38
859.843
863.276
866.681
870.056
873.398
876.7
879.95
883.137
886.244
889.265
892.196
895.037
897.785
900.438
902.994
905.453
907.811
910.069
912.225
914.277
916.222
918.061
919.792
921.414
922.926
924.328
925.617
926.794
927.859
928.81
929.649
930.374
930.987
931.486
931.871
932.143
932.302
932.345
932.299
932.123
931.837
931.432
930.912
930.264
929.495
928.614
927.634
926.558
925.386
924.12
922.763
921.316
919.783
918.163
916.461
914.651
912.799
910.83
908.836
906.737
904.608
902.396
900.137
897.818
895.45
893.033
890.573
888.073
885.538
882.972
880.38
877.765
875.131
872.48
869.818
867.148
864.478
861.822
859.189
856.594
854.056
851.611
849.31
847.24
845.531
844.549
844.781
847.962
11463.3
2936.57
1736.95
1210.92
834.232
588.362
445.033
356.131
300.619
264.569
239.76
221.748
208.078
197.447
188.965
182.182
176.911
173.043
170.517
169.443
169.772
171.163
174.474
179.75
187.668
199.485
216.153
237.898
266.547
309.042
364.663
456.269
567.338
656.542
724.303
786.348
838.719
879.277
913.91
947.347
965.674
968.625
940.819
909.374
877.179
842.685
813.249
784.6
761.102
740.67
724.349
710.86
700.366
692.302
686.465
682.45
680.116
679.152
679.003
679.722
681.205
683.211
685.691
688.51
691.61
694.927
698.421
702.055
705.806
709.653
713.579
717.571
721.619
725.713
729.843
734.002
738.181
742.374
746.574
750.774
754.968
759.15
763.316
767.461
771.581
775.671
779.729
783.751
787.735
791.68
795.584
799.447
803.266
807.041
810.769
814.446
818.066
821.623
825.104
828.508
831.826
835.054
838.191
841.233
844.177
847.022
849.764
852.401
854.932
857.354
859.667
861.867
863.953
865.922
867.773
869.504
871.114
872.602
873.966
875.206
876.321
877.31
878.174
878.911
879.522
880.007
880.364
880.594
880.687
880.683
880.546
880.277
879.884
879.364
878.719
877.946
877.049
876.035
874.911
873.68
872.342
870.9
869.357
867.715
865.98
864.15
862.227
860.207
858.112
855.924
853.673
851.338
848.944
846.477
843.949
841.361
838.717
836.023
833.281
830.497
827.675
824.822
821.941
819.036
816.11
813.166
810.21
807.247
804.283
801.329
798.398
795.501
792.659
789.899
787.266
784.828
782.692
781.106
780.42
781.481
11463.3
3443.92
1780.45
1037.18
651.781
458.504
360.017
304.408
268.79
243.608
224.636
209.842
197.984
188.225
180.16
173.602
168.475
164.766
162.584
162.039
162.927
165.525
170.321
177.704
188.504
203.222
225.334
260.275
314.827
399.498
505.522
596.089
665.802
725.506
772.447
807.661
835.785
858.167
867.572
865.334
842.909
820.065
793.763
768.052
742.912
719.176
698.758
680.71
665.94
653.65
643.909
636.275
630.64
626.714
624.479
623.58
623.475
624.397
626.089
628.417
631.264
634.516
638.098
641.936
645.978
650.184
654.52
658.963
663.494
668.099
672.765
677.483
682.244
687.041
691.866
696.711
701.569
706.433
711.295
716.149
720.988
725.808
730.603
735.369
740.1
744.793
749.443
754.046
758.601
763.103
767.552
771.945
776.28
780.553
784.761
788.902
792.97
796.963
800.877
804.703
808.434
812.065
815.595
819.02
822.336
825.541
828.631
831.602
834.452
837.176
839.768
842.23
844.562
846.76
848.824
850.751
852.54
854.19
855.699
857.067
858.292
859.375
860.314
861.111
861.764
862.274
862.641
862.854
862.927
862.884
862.687
862.347
861.866
861.246
860.487
859.592
858.563
857.405
856.123
854.721
853.2
851.564
849.812
847.944
845.957
843.865
841.669
839.371
836.981
834.497
831.932
829.284
826.562
823.764
820.897
817.964
814.971
811.922
808.824
805.68
802.495
799.277
796.03
792.758
789.464
786.153
782.828
779.498
776.167
772.847
769.549
766.286
763.074
759.938
756.913
754.054
751.445
749.254
747.65
747.128
11463.3
3585.55
1564.11
816.658
517.413
383.243
314.033
273.908
248.098
229.968
215.947
204.119
193.8
184.898
177.372
171.283
166.811
164.118
163.139
163.775
166.252
171.178
179.061
191.852
212.104
242.349
288.971
362.279
450.39
531.873
597.337
652.653
699.126
736.003
765.47
784.384
791.115
784.653
767.74
750.028
729.144
709.322
689.29
670.246
652.361
636.391
622.789
611.289
601.963
594.522
588.87
584.811
582.337
581.251
581.067
581.903
583.595
586.047
589.117
592.698
596.7
601.039
605.653
610.485
615.493
620.642
625.907
631.267
636.704
642.206
647.762
653.362
658.998
664.662
670.348
676.046
681.748
687.446
693.133
698.8
704.441
710.051
715.623
721.153
726.635
732.067
737.442
742.755
748.003
753.183
758.293
763.329
768.289
773.17
777.968
782.679
787.302
791.835
796.273
800.604
804.823
808.926
812.909
816.77
820.505
824.11
827.582
830.918
834.113
837.165
840.073
842.832
845.442
847.899
850.201
852.347
854.335
856.163
857.83
859.335
860.677
861.856
862.871
863.723
864.412
864.937
865.298
865.48
865.52
865.408
865.127
864.686
864.086
863.331
862.421
861.36
860.15
858.797
857.305
855.676
853.915
852.023
850.005
847.862
845.6
843.222
840.731
838.13
835.424
832.618
829.72
826.733
823.662
820.51
817.281
813.982
810.618
807.195
803.718
800.192
796.624
793.02
789.385
785.724
782.04
778.339
774.626
770.907
767.19
763.484
759.801
756.154
752.556
749.029
745.602
742.319
739.21
736.419
734.02
732.175
11463.3
3406.96
1281.99
661.761
443.05
347.935
296.854
265.882
244.497
228.319
215.445
204.773
195.694
187.937
181.54
176.724
173.813
172.966
174.47
178.339
185.505
197.316
215.112
243.482
287.262
346.668
415.022
478.435
535.675
585.419
628
663.578
694.037
715.314
723.036
719.866
707.038
692.818
676.369
660.608
644.875
629.958
615.413
601.765
589.362
578.603
569.587
562.217
556.441
552.138
549.222
547.77
547.352
547.877
549.37
551.711
554.786
558.502
562.762
567.479
572.578
577.993
583.666
589.549
595.605
601.801
608.115
614.525
621.012
627.561
634.16
640.795
647.457
654.136
660.83
667.526
674.214
680.884
687.528
694.137
700.705
707.225
713.69
720.096
726.432
732.686
738.864
744.965
750.987
756.926
762.779
768.542
774.213
779.787
785.261
790.63
795.89
801.034
806.055
810.951
815.715
820.345
824.835
829.183
833.385
837.438
841.336
845.077
848.657
852.071
855.318
858.394
861.298
864.026
866.576
868.947
871.136
873.143
874.964
876.6
878.049
879.313
880.39
881.28
881.985
882.505
882.831
882.963
882.938
882.726
882.329
881.752
880.998
880.069
878.967
877.697
876.262
874.666
872.914
871.009
868.957
866.759
864.421
861.945
859.338
856.602
853.741
850.76
847.664
844.457
841.148
837.742
834.243
830.657
826.988
823.243
819.429
815.552
811.618
807.633
803.602
799.534
795.433
791.305
787.155
782.987
778.809
774.627
770.45
766.286
762.147
758.045
753.992
750.007
746.115
742.351
738.756
735.421
732.361
729.483
11463.3
2976.65
1034.29
561.277
399.76
327.58
288.857
263.495
246.048
233.192
222.862
214.14
206.761
200.821
196.701
195.027
195.974
200.396
208.342
220.267
238.278
264.3
299.897
343.777
391.624
440.31
486.491
528.048
565.256
597.247
625.439
649
659.904
661.311
654.272
643.996
631.162
618.582
606.219
594.574
583.271
572.396
561.95
552.306
543.767
536.533
530.645
526.068
522.76
520.797
520.033
520.106
521.244
523.291
526.179
529.826
534.147
539.062
544.493
550.37
556.63
563.21
570.056
577.122
584.369
591.764
599.285
606.922
614.635
622.405
630.216
638.053
645.896
653.723
661.498
669.237
676.956
684.652
692.313
699.928
707.49
714.992
722.429
729.795
737.084
744.296
751.419
758.438
765.347
772.145
778.828
785.393
791.837
798.156
804.347
810.405
816.325
822.104
827.737
833.221
838.551
843.722
848.732
853.575
858.249
862.749
867.071
871.21
875.164
878.927
882.497
885.87
889.045
892.019
894.79
897.356
899.714
901.863
903.801
905.528
907.044
908.349
909.442
910.326
910.999
911.462
911.702
911.745
911.589
911.226
910.659
909.891
908.926
907.766
906.415
904.876
903.155
901.255
899.183
896.941
894.536
891.971
889.251
886.38
883.365
880.209
876.918
873.495
869.948
866.28
862.5
858.615
854.629
850.549
846.381
842.134
837.814
833.428
828.983
824.484
819.937
815.351
810.731
806.084
801.414
796.728
792.035
787.341
782.655
777.985
773.343
768.739
764.186
759.699
755.301
751.018
746.883
742.966
739.249
735.42
11463.3
2497.36
887.046
519.035
385.675
323.926
289.718
269.349
255.765
245.763
237.917
231.75
227.4
225.535
226.152
230.54
238.809
250.186
265.044
285.511
311.79
342.972
377.433
413.04
448.096
481.517
512.418
539.73
564.594
587.457
601.423
605.741
604.316
598.889
590.353
580.959
571.427
562.438
553.833
545.557
537.456
529.608
522.187
515.48
509.71
505.01
501.423
498.961
497.756
497.479
498.177
499.835
502.425
505.876
510.125
515.098
520.723
526.93
533.655
540.836
548.435
556.381
564.609
573.072
581.727
590.527
599.414
608.31
617.281
626.32
635.407
644.523
653.641
662.744
671.829
680.879
689.877
698.825
707.698
716.488
725.189
733.797
742.309
750.717
759.015
767.193
775.238
783.147
790.918
798.547
806.034
813.375
820.568
827.608
834.491
841.214
847.773
854.165
860.387
866.433
872.298
877.977
883.467
888.764
893.864
898.763
903.457
907.941
912.212
916.264
920.095
923.701
927.082
930.233
933.155
935.843
938.297
940.515
942.495
944.238
945.743
947.011
948.043
948.84
949.403
949.725
949.814
949.677
949.313
948.721
947.904
946.867
945.612
944.143
942.464
940.58
938.496
936.217
933.748
931.095
928.263
925.257
922.083
918.747
915.253
911.608
907.817
903.887
899.822
895.628
891.314
886.886
882.352
877.718
872.994
868.187
863.305
858.357
853.347
848.281
843.167
838.011
832.821
827.603
822.365
817.113
811.857
806.605
801.365
796.145
790.956
785.808
780.712
775.683
770.74
765.907
761.205
756.693
752.342
747.653
11463.3
2078.99
782.426
485.598
377.154
325.055
297.53
281.313
270.884
263.769
258.905
256.452
256.016
258.494
264.451
273.942
286.424
301.658
320.371
342.326
366.674
392.42
418.57
444.245
468.713
491.21
512.331
532.487
547.501
554.262
555.888
555.204
551.19
545.526
539.057
532.57
526.273
520.226
514.305
508.462
502.709
497.188
492.104
487.684
484.102
481.459
479.943
479.425
479.812
481.2
483.537
486.793
490.94
495.952
501.783
508.324
515.514
523.286
531.572
540.282
549.285
558.584
568.201
578.104
588.253
598.604
609.126
619.813
630.585
641.397
652.216
663.023
673.772
684.425
694.966
705.378
715.647
725.762
735.743
745.601
755.337
764.953
774.449
783.818
793.049
802.13
811.048
819.796
828.371
836.773
845
853.051
860.921
868.607
876.105
883.412
890.525
897.442
904.158
910.67
916.972
923.057
928.923
934.566
939.982
945.169
950.121
954.835
959.305
963.528
967.501
971.22
974.685
977.892
980.842
983.532
985.961
988.126
990.027
991.664
993.039
994.151
995.003
995.596
995.93
996.007
995.827
995.395
994.713
993.785
992.613
991.201
989.553
987.674
985.568
983.242
980.699
977.946
974.99
971.835
968.489
964.957
961.244
957.359
953.306
949.094
944.728
940.215
935.561
930.772
925.857
920.82
915.673
910.424
905.084
899.661
894.163
888.597
882.97
877.287
871.555
865.78
859.971
854.135
848.281
842.419
836.558
830.706
824.87
819.059
813.282
807.55
801.872
796.264
790.743
785.328
780.037
774.916
769.944
764.459
11463.3
1952.67
770.228
484.595
380.705
333.923
310.158
296.899
289.067
284.724
283.008
283.091
285.987
291.712
300.233
311.275
324.521
339.988
357.32
375.903
395.116
414.359
433.057
450.918
468.241
485.076
498.977
507.405
511.378
512.802
512.799
510.908
507.75
504.018
500.066
496.104
492.162
488.228
484.284
480.377
476.611
473.154
470.192
467.905
466.555
466.104
466.592
468.189
470.717
474.166
478.513
483.725
489.74
496.433
503.733
511.762
520.502
529.896
539.884
550.407
561.444
572.925
584.774
596.939
609.37
622.01
634.803
647.718
660.664
673.544
686.288
698.825
711.13
723.188
734.989
746.528
757.814
768.869
779.732
790.433
800.985
811.4
821.687
831.835
841.827
851.636
861.248
870.656
879.857
888.852
897.64
906.218
914.582
922.729
930.653
938.354
945.829
953.077
960.095
966.877
973.419
979.714
985.758
991.549
997.084
1002.36
1007.37
1012.12
1016.59
1020.79
1024.71
1028.35
1031.71
1034.78
1037.57
1040.08
1042.3
1044.23
1045.88
1047.23
1048.31
1049.09
1049.6
1049.83
1049.77
1049.45
1048.84
1047.97
1046.83
1045.42
1043.76
1041.84
1039.66
1037.25
1034.59
1031.7
1028.58
1025.24
1021.69
1017.93
1013.96
1009.8
1005.46
1000.93
996.227
991.359
986.333
981.155
975.834
970.375
964.788
959.073
953.247
947.322
941.307
935.212
929.043
922.807
916.511
910.161
903.763
897.323
890.847
884.348
877.837
871.324
864.819
858.329
851.861
845.423
839.022
832.669
826.376
820.157
814.028
808.007
802.105
796.361
790.776
784.542
11463.3
1868.24
744.384
482.065
387.822
345.752
325.001
313.935
308.02
305.426
304.905
306.852
311.42
318.257
327.07
337.529
349.372
362.332
376.049
390.107
404.104
417.949
431.796
445.281
456.813
464.878
470.504
474.314
476.285
477.061
477.16
476.365
475
473.341
471.512
469.585
467.591
465.582
463.639
461.915
460.654
459.961
459.796
460.348
461.73
463.907
466.792
470.232
474.583
479.912
486.221
493.484
501.67
510.773
520.789
531.64
543.288
555.654
568.66
582.238
596.331
610.851
625.707
640.826
656.175
671.651
687.111
702.427
717.504
732.283
746.694
760.677
774.196
787.235
799.795
811.885
823.551
834.873
845.961
856.9
867.697
878.381
888.98
899.472
909.813
919.942
929.846
939.523
948.969
958.182
967.158
975.896
984.39
992.635
1000.63
1008.37
1015.86
1023.09
1030.06
1036.77
1043.22
1049.39
1055.28
1060.9
1066.23
1071.28
1076.04
1080.51
1084.69
1088.57
1092.14
1095.42
1098.39
1101.05
1103.41
1105.47
1107.23
1108.68
1109.82
1110.66
1111.21
1111.44
1111.38
1111.03
1110.37
1109.43
1108.2
1106.69
1104.91
1102.85
1100.52
1097.92
1095.07
1091.96
1088.6
1085
1081.17
1077.11
1072.83
1068.34
1063.64
1058.74
1053.65
1048.37
1042.92
1037.3
1031.52
1025.59
1019.52
1013.31
1006.97
1000.51
993.942
987.281
980.537
973.714
966.821
959.863
952.849
945.783
938.672
931.522
924.338
917.137
909.933
902.736
895.553
888.392
881.26
874.163
867.107
860.103
853.166
846.31
839.551
832.902
826.374
819.996
813.8
806.857
11463.3
1850.95
744.207
489.008
399.074
359.349
339.837
329.541
324.274
322.148
321.893
324.286
328.94
335.323
343.015
351.682
361.111
371.078
381.343
391.741
402.425
412.686
421.483
428.735
434.678
439.795
443.812
446.964
449.419
451.404
453.075
454.517
455.714
456.695
457.521
458.255
458.959
459.701
460.537
461.487
462.412
463.831
466.028
469.282
473.53
478.75
484.969
492.296
500.676
510.136
520.687
532.278
544.861
558.403
572.867
588.202
604.431
621.322
638.734
656.557
674.687
693.013
711.422
729.796
747.984
765.894
783.459
800.574
817.129
833.018
848.137
862.456
875.969
888.709
900.713
911.958
922.567
932.706
942.671
952.707
962.667
972.615
982.658
992.703
1002.66
1012.45
1022.06
1031.43
1040.55
1049.42
1058.03
1066.37
1074.46
1082.26
1089.8
1097.05
1104.03
1110.73
1117.15
1123.3
1129.17
1134.73
1140.01
1144.98
1149.65
1154.03
1158.1
1161.86
1165.32
1168.47
1171.3
1173.81
1176
1177.88
1179.44
1180.68
1181.63
1182.25
1182.55
1182.54
1182.25
1181.62
1180.68
1179.45
1177.92
1176.09
1173.98
1171.58
1168.9
1165.95
1162.72
1159.23
1155.47
1151.46
1147.2
1142.7
1137.97
1133.01
1127.83
1122.43
1116.84
1111.04
1105.05
1098.88
1092.54
1086.04
1079.37
1072.57
1065.62
1058.55
1051.37
1044.09
1036.72
1029.28
1021.75
1014.15
1006.48
998.749
990.967
983.14
975.275
967.376
959.448
951.516
943.592
935.683
927.796
919.937
912.114
904.333
896.596
888.919
881.318
873.808
866.403
859.114
851.949
844.928
838.125
830.512
11463.3
1827.21
743.283
496.985
408.893
370.201
351.418
341.113
335.651
333.372
332.979
334.95
338.869
344.144
350.364
357.268
364.744
372.682
380.84
388.743
396.256
403.359
410.258
416.694
422.752
428.511
433.935
439.066
443.879
448.345
452.389
455.813
458.919
461.947
464.985
468.124
471.447
475.054
479.045
483.554
488.851
495.067
502.465
511.316
521.265
532.294
544.439
557.751
572.173
587.714
604.512
622.334
641.002
660.384
680.349
700.737
721.344
742.146
763.046
783.937
804.711
825.266
845.507
865.342
884.684
903.459
921.605
939.049
955.709
971.479
986.155
999.82
1012.55
1024.46
1035.61
1046.07
1055.86
1065.01
1073.67
1081.98
1090.07
1098.24
1106.96
1115.8
1124.59
1133.26
1141.75
1149.98
1157.93
1165.61
1173.02
1180.16
1187.01
1193.58
1199.86
1205.84
1211.54
1216.96
1222.11
1226.98
1231.56
1235.84
1239.82
1243.5
1246.88
1249.96
1252.75
1255.24
1257.41
1259.28
1260.84
1262.09
1263.01
1263.62
1263.93
1263.92
1263.65
1263.03
1262.11
1260.88
1259.37
1257.54
1255.43
1253.02
1250.33
1247.35
1244.1
1240.58
1236.79
1232.73
1228.4
1223.82
1218.99
1213.92
1208.6
1203.06
1197.3
1191.32
1185.12
1178.73
1172.14
1165.36
1158.39
1151.26
1143.96
1136.51
1128.91
1121.18
1113.31
1105.33
1097.24
1089.08
1080.84
1072.53
1064.14
1055.68
1047.16
1038.58
1029.96
1021.3
1012.61
1003.92
995.23
986.554
977.893
969.254
960.643
952.066
943.532
935.049
926.616
918.254
909.983
901.813
893.755
885.822
878.018
870.354
862.95
854.705
11463.3
1811.87
744.746
502.158
415.308
377.581
359.016
348.547
342.926
340.496
339.994
341.686
345.25
350.15
355.968
362.48
369.51
376.886
384.548
392.558
400.55
408.41
416.26
424.05
431.834
439.649
447.505
455.431
463.319
471.134
478.945
486.898
495.048
503.472
512.262
521.525
531.368
541.907
553.251
565.525
578.875
593.301
608.781
625.064
642.289
660.507
679.753
700.062
721.297
743.265
765.699
788.79
812.267
835.889
859.473
882.857
905.885
928.462
950.481
971.857
992.525
1012.45
1031.6
1049.96
1067.51
1084.25
1100.16
1115.27
1129.55
1143.01
1155.68
1167.5
1178.46
1188.76
1198.51
1207.79
1216.51
1224.57
1231.91
1238.53
1244.85
1251.47
1258.28
1264.98
1271.49
1277.76
1283.78
1289.53
1295.02
1300.24
1305.22
1309.95
1314.42
1318.63
1322.58
1326.26
1329.7
1332.9
1335.86
1338.59
1341.06
1343.27
1345.21
1346.88
1348.3
1349.46
1350.36
1351
1351.36
1351.44
1351.29
1350.83
1350.07
1349.05
1347.76
1346.2
1344.38
1342.27
1339.9
1337.25
1334.34
1331.16
1327.72
1324.03
1320.08
1315.88
1311.44
1306.75
1301.82
1296.65
1291.24
1285.6
1279.74
1273.66
1267.36
1260.86
1254.15
1247.25
1240.16
1232.88
1225.42
1217.79
1209.99
1202.03
1193.92
1185.67
1177.29
1168.77
1160.14
1151.38
1142.52
1133.56
1124.52
1115.4
1106.2
1096.93
1087.6
1078.21
1068.79
1059.33
1049.84
1040.36
1030.9
1021.45
1012.03
1002.63
993.261
983.934
974.657
965.441
956.31
947.276
938.343
929.521
920.818
912.246
903.811
895.517
887.522
878.697
11463.3
1796.8
745.253
504.577
418.567
382.958
365.022
355.24
350.999
349.522
350.037
353.052
357.783
363.794
371.08
379.797
389.176
398.996
409.778
421.683
434.247
447.101
460.601
474.767
489.586
505.031
521.081
537.691
554.867
572.639
591.031
610.092
629.751
650.007
670.895
692.502
714.932
738.372
762.775
788.052
814.07
840.68
867.686
894.865
922.213
949.707
977.406
1005.77
1034.18
1062.05
1088.98
1114.57
1138.91
1162
1183.83
1204.34
1223.51
1241.3
1257.76
1272.94
1286.9
1299.7
1311.47
1322.23
1332.06
1341.01
1349.16
1356.56
1363.3
1369.47
1375.42
1381.15
1386.69
1391.95
1396.87
1401.43
1405.52
1409.09
1412.46
1415.91
1419.73
1423.55
1426.74
1429.46
1431.85
1433.99
1435.94
1437.71
1439.32
1440.77
1442.05
1443.16
1444.1
1444.88
1445.49
1445.94
1446.25
1446.41
1446.41
1446.3
1445.99
1445.48
1444.79
1443.93
1442.88
1441.67
1440.26
1438.66
1436.86
1434.86
1432.65
1430.22
1427.58
1424.74
1421.69
1418.43
1414.96
1411.27