/*--------------------------------*- C++ -*----------------------------------*\
  =========                 |
  \\      /  F ield         | OpenFOAM: The Open Source CFD Toolbox
   \\    /   O peration     | Website:  https://openfoam.org
    \\  /    A nd           | Version:  8
     \\/     M anipulation  |
\*---------------------------------------------------------------------------*/
FoamFile
{
    version     2.0;
    format      ascii;
    class       volScalarField;
    location    "1400";
    object      p;
}
// * * * * * * * * * * * * * * * * * * * * * * * * * * * * * * * * * * * * * //

dimensions      [0 2 -2 0 0 0 0];

internalField   nonuniform List<scalar> 
12225
(
-4.20493
-5.10161
-5.4927
-5.62167
-5.75325
-5.89912
-6.01983
-6.11682
-6.2019
-6.28008
-6.35687
-6.43283
-6.50264
-6.56613
-6.63134
-6.69998
-6.78095
-6.87157
-4.48472
-5.12884
-5.45941
-5.58805
-5.71871
-5.8618
-5.9852
-6.08403
-6.16916
-6.25028
-6.32784
-6.40345
-6.47762
-6.54634
-6.61158
-6.6783
-6.74913
-6.8118
-4.70317
-5.13122
-5.44417
-5.59674
-5.73041
-5.86875
-5.9891
-6.08661
-6.17167
-6.25253
-6.32927
-6.40304
-6.47433
-6.54071
-6.60276
-6.6641
-6.72554
-6.77654
-4.84664
-5.15745
-5.45275
-5.61241
-5.738
-5.86599
-5.98123
-6.07735
-6.16205
-6.24201
-6.31783
-6.39004
-6.45917
-6.5241
-6.585
-6.6436
-6.69954
-6.74629
-4.96657
-5.20402
-5.46814
-5.62591
-5.74557
-5.86654
-5.97849
-6.07382
-6.15795
-6.23674
-6.3114
-6.38216
-6.4494
-6.5125
-6.57144
-6.62687
-6.67821
-6.7214
-5.08075
-5.25755
-5.48399
-5.63752
-5.75415
-5.86938
-5.97744
-6.07107
-6.15401
-6.23137
-6.30458
-6.3737
-6.4389
-6.49984
-6.55652
-6.60908
-6.65692
-6.69771
-5.1868
-5.31497
-5.50427
-5.65034
-5.76352
-5.87257
-5.97592
-6.06732
-6.14891
-6.22482
-6.29648
-6.36392
-6.42716
-6.48609
-6.54068
-6.59085
-6.63618
-6.67536
-5.26876
-5.36596
-5.52643
-5.66319
-5.77235
-5.87601
-5.97498
-6.06404
-6.14415
-6.2186
-6.28871
-6.35456
-6.41612
-6.47337
-6.52626
-6.57466
-6.61828
-6.65632
-5.33535
-5.41184
-5.54881
-5.67596
-5.78103
-5.87988
-5.97473
-6.06137
-6.13991
-6.21284
-6.28141
-6.34575
-6.4058
-6.46156
-6.51297
-6.55991
-6.60222
-6.63937
-5.40154
-5.46122
-5.57565
-5.69151
-5.79146
-5.88502
-5.97519
-6.05883
-6.13537
-6.20649
-6.27325
-6.33585
-6.39423
-6.44836
-6.49821
-6.54368
-6.58473
-6.62105
-5.46637
-5.51279
-5.60673
-5.71006
-5.80369
-5.89156
-5.97655
-6.05661
-6.13067
-6.19963
-6.26434
-6.32498
-6.3815
-6.43389
-6.48211
-6.52614
-6.56597
-6.60151
-5.52887
-5.56495
-5.64114
-5.7314
-5.81762
-5.89943
-5.97891
-6.05483
-6.12592
-6.19239
-6.25477
-6.31325
-6.36778
-6.41833
-6.4649
-6.50748
-6.54618
-6.58092
-5.58773
-5.616
-5.67743
-5.75491
-5.83293
-5.90839
-5.9822
-6.05355
-6.12121
-6.18484
-6.24469
-6.30084
-6.35327
-6.40192
-6.44683
-6.488
-6.52558
-6.55956
-5.64155
-5.66392
-5.71356
-5.77938
-5.84894
-5.91793
-5.98607
-6.05266
-6.11654
-6.17709
-6.23422
-6.28795
-6.3382
-6.38497
-6.42821
-6.46803
-6.50451
-6.53775
-5.68827
-5.70631
-5.74692
-5.80281
-5.86439
-5.9271
-5.98983
-6.05174
-6.11177
-6.16912
-6.2235
-6.27479
-6.32291
-6.3678
-6.40948
-6.44799
-6.48346
-6.51595
-5.72516
-5.74015
-5.77423
-5.82243
-5.87724
-5.93441
-5.99233
-6.05004
-6.10647
-6.1608
-6.21258
-6.26159
-6.30772
-6.35089
-6.39113
-6.42846
-6.46301
-6.49485
-5.74827
-5.76134
-5.79132
-5.83443
-5.88446
-5.9375
-5.9918
-6.04627
-6.09986
-6.15173
-6.20138
-6.24851
-6.293
-6.33476
-6.37381
-6.41019
-6.44399
-6.47532
-5.75143
-5.76389
-5.79257
-5.83396
-5.88222
-5.93354
-5.98627
-6.03924
-6.09147
-6.14207
-6.19057
-6.23663
-6.28018
-6.32109
-6.35944
-6.39522
-6.42858
-6.45959
-5.73436
-5.74755
-5.77774
-5.82088
-5.8705
-5.92278
-5.97615
-6.02963
-6.08214
-6.13289
-6.18134
-6.22732
-6.27067
-6.31141
-6.34952
-6.38514
-6.41833
-6.44928
-5.70227
-5.71734
-5.75157
-5.79933
-5.85276
-5.9079
-5.96363
-6.01907
-6.07315
-6.12499
-6.17425
-6.22075
-6.26447
-6.30541
-6.34368
-6.37935
-6.4126
-6.44357
-5.65832
-5.67663
-5.71761
-5.77263
-5.83162
-5.89093
-5.9502
-6.00868
-6.0651
-6.11868
-6.1692
-6.21663
-6.26102
-6.30241
-6.34095
-6.37681
-6.41017
-6.44125
-5.60432
-5.62775
-5.67879
-5.7435
-5.80912
-5.87333
-5.937
-5.99923
-6.05849
-6.11413
-6.16617
-6.21474
-6.25991
-6.30183
-6.34068
-6.37675
-6.41022
-6.44139
-5.54127
-5.57254
-5.63778
-5.71411
-5.78665
-5.85618
-5.92492
-5.9913
-6.05355
-6.11137
-6.16506
-6.21484
-6.26082
-6.30324
-6.34238
-6.37857
-6.41209
-6.44325
-5.46931
-5.51274
-5.59727
-5.68612
-5.76493
-5.84008
-5.91443
-5.98515
-6.05035
-6.11028
-6.16562
-6.21655
-6.2633
-6.30613
-6.34547
-6.38171
-6.4152
-6.44634
-5.38778
-5.44999
-5.55996
-5.66069
-5.74422
-5.82511
-5.9055
-5.98051
-6.04849
-6.11052
-6.16742
-6.21945
-6.26681
-6.30991
-6.34926
-6.38537
-6.41865
-6.44961
-5.29422
-5.3857
-5.52705
-5.63809
-5.72491
-5.81133
-5.89732
-5.97611
-6.04666
-6.11072
-6.16926
-6.22246
-6.27054
-6.31401
-6.35344
-6.38944
-6.42256
-6.45346
-5.18649
-5.32441
-5.49648
-5.61387
-5.70494
-5.79834
-5.88984
-5.97183
-6.04452
-6.11032
-6.17019
-6.22426
-6.27283
-6.31645
-6.35575
-6.39151
-6.42436
-6.45509
-5.0633
-5.28049
-5.47295
-5.58434
-5.67951
-5.78326
-5.8827
-5.96972
-6.04624
-6.11516
-6.17736
-6.23298
-6.28242
-6.32634
-6.3654
-6.40061
-6.43309
-6.46428
-4.89457
-5.25963
-5.48237
-5.57664
-5.66694
-5.77476
-5.87738
-5.96587
-6.04375
-6.1142
-6.17785
-6.23461
-6.28484
-6.32908
-6.3679
-6.40194
-6.4325
-6.46092
-4.63611
-5.18489
-5.47188
-5.57724
-5.67615
-5.79291
-5.90117
-5.99232
-6.07138
-6.14244
-6.20636
-6.26315
-6.3131
-6.35675
-6.39451
-6.42609
-6.45218
-6.47323
-7.4062
-7.40631
-7.40635
-7.40633
-7.40602
-7.40482
-7.4023
-7.39895
-7.39577
-7.39375
-7.39389
-7.39638
-7.40071
-7.40611
-7.41181
-7.41712
-7.42149
-7.4245
-7.42614
-7.42673
-7.42657
-7.42585
-7.42482
-7.42376
-7.42292
-7.42241
-7.42218
-7.42205
-7.42185
-7.42148
-7.42095
-7.42025
-7.41934
-7.41814
-7.41671
-7.41533
-7.41463
-7.41531
-7.41744
-7.42036
-7.42315
-7.42531
-7.42699
-7.42866
-7.43074
-7.43377
-7.43744
-7.44068
-7.44302
-7.44626
-7.454
-7.47022
-7.4952
-7.52803
-7.56907
-7.61904
-7.67732
-7.74206
-7.81152
-7.88399
-7.95727
-8.02925
-8.0989
-8.16528
-8.22742
-8.2849
-8.33763
-8.3855
-8.42862
-8.46704
-8.5009
-8.53027
-8.55526
-8.57591
-8.5923
-8.60443
-8.61231
-8.61594
-8.61529
-8.61032
-8.60098
-8.58724
-8.56903
-8.5463
-8.51898
-8.48704
-8.45036
-8.40887
-8.36246
-8.31105
-8.25462
-8.19313
-8.12649
-8.05465
-7.97753
-7.89505
-7.80716
-7.71389
-7.61534
-7.51148
-7.40183
-7.28614
-7.16454
-7.03714
-6.90398
-6.76507
-6.62041
-6.47005
-6.31401
-6.15233
-5.98508
-5.81232
-5.63412
-5.45059
-5.26182
-5.06793
-4.86904
-4.66529
-4.45683
-4.24381
-4.02639
-3.80476
-3.57908
-3.34956
-3.11639
-2.87977
-2.63993
-2.39706
-2.1514
-1.90319
-1.65268
-1.40007
-1.1456
-0.889518
-0.632123
-0.373746
-0.114622
0.145379
0.406149
0.667289
0.928507
1.18956
1.4502
1.71025
1.96949
2.22775
2.48482
2.74056
2.99479
3.24736
3.4981
3.74684
3.99342
4.2377
4.47953
4.71879
4.95539
5.1892
5.42016
5.64818
5.87318
6.0951
6.31385
6.52937
6.74158
6.9504
7.15576
7.3576
7.55584
7.75042
7.94126
8.12827
8.31137
8.49047
8.66549
8.83638
9.00345
9.16659
9.32884
9.48161
-7.40741
-7.40759
-7.40795
-7.40833
-7.40832
-7.4075
-7.40557
-7.40311
-7.40136
-7.40127
-7.40313
-7.40678
-7.4117
-7.41723
-7.42277
-7.42779
-7.43194
-7.43503
-7.43684
-7.43718
-7.43616
-7.43409
-7.43141
-7.42861
-7.42612
-7.42421
-7.42292
-7.42208
-7.42141
-7.42079
-7.42019
-7.41961
-7.41897
-7.41818
-7.41718
-7.4164
-7.41655
-7.41817
-7.42101
-7.42411
-7.42632
-7.42721
-7.42725
-7.42652
-7.42514
-7.42464
-7.42738
-7.43394
-7.44057
-7.44702
-7.45685
-7.47163
-7.49303
-7.52449
-7.56804
-7.62265
-7.68583
-7.75536
-7.8289
-7.90362
-7.97731
-8.04898
-8.11735
-8.18114
-8.24031
-8.29488
-8.34483
-8.39024
-8.4312
-8.46782
-8.50017
-8.52833
-8.55237
-8.57229
-8.58814
-8.59988
-8.60752
-8.61102
-8.61033
-8.60541
-8.5962
-8.58265
-8.56469
-8.54226
-8.5153
-8.48375
-8.44753
-8.40655
-8.36069
-8.3099
-8.25415
-8.19339
-8.12753
-8.05651
-7.98026
-7.89867
-7.81165
-7.71909
-7.62086
-7.51682
-7.40716
-7.292
-7.17122
-7.04473
-6.91251
-6.77454
-6.63085
-6.48144
-6.32636
-6.16564
-5.99933
-5.82751
-5.65025
-5.46765
-5.27979
-5.08679
-4.88878
-4.68589
-4.47827
-4.26607
-4.04945
-3.82858
-3.60365
-3.37485
-3.14236
-2.90641
-2.66718
-2.4249
-2.1798
-1.93211
-1.68206
-1.42988
-1.17576
-0.919935
-0.662606
-0.40399
-0.144357
0.11586
0.376477
0.637464
0.898549
1.15949
1.42006
1.68007
1.9393
2.19756
2.45468
2.71049
2.96482
3.21751
3.4684
3.71731
3.96408
4.20857
4.45064
4.69017
4.92703
5.16113
5.39239
5.6207
5.84601
6.06824
6.28732
6.50317
6.71572
6.92489
7.13061
7.33281
7.53143
7.72639
7.91763
8.10507
8.28867
8.46837
8.64409
8.81579
8.98368
9.14718
9.31146
9.46356
-7.40871
-7.4087
-7.40873
-7.4088
-7.40889
-7.40892
-7.40915
-7.41008
-7.4122
-7.41564
-7.4202
-7.42552
-7.43117
-7.43672
-7.44179
-7.44608
-7.44939
-7.4516
-7.45265
-7.45247
-7.45109
-7.44864
-7.44529
-7.44126
-7.4368
-7.43219
-7.42772
-7.42368
-7.42026
-7.41755
-7.4155
-7.41387
-7.4124
-7.4111
-7.41045
-7.41116
-7.41375
-7.41799
-7.42247
-7.42536
-7.42533
-7.42318
-7.421
-7.42042
-7.42106
-7.42264
-7.42759
-7.43744
-7.45137
-7.46978
-7.49366
-7.52327
-7.55924
-7.6022
-7.65205
-7.70763
-7.76749
-7.83024
-7.89452
-7.9589
-8.02228
-8.08395
-8.14325
-8.19947
-8.25233
-8.30165
-8.34733
-8.38928
-8.42749
-8.46193
-8.49259
-8.51946
-8.54251
-8.56172
-8.57706
-8.58848
-8.59594
-8.59938
-8.59875
-8.59397
-8.58499
-8.57173
-8.55413
-8.53212
-8.50563
-8.4746
-8.43896
-8.39859
-8.35341
-8.30334
-8.24836
-8.18841
-8.12339
-8.05326
-7.97792
-7.89731
-7.81134
-7.71992
-7.62292
-7.52019
-7.41177
-7.29774
-7.17809
-7.05276
-6.92171
-6.78494
-6.64246
-6.49427
-6.3404
-6.18089
-6.01581
-5.8452
-5.66914
-5.48773
-5.30106
-5.10923
-4.91237
-4.71062
-4.5041
-4.29299
-4.07743
-3.8576
-3.63368
-3.40585
-3.1743
-2.93925
-2.70089
-2.45945
-2.21514
-1.9682
-1.71885
-1.46733
-1.21383
-0.958606
-0.701871
-0.443843
-0.184762
0.0750164
0.335292
0.595944
0.856724
1.11739
1.37774
1.63755
1.89663
2.15478
2.41182
2.66758
2.92189
3.17459
3.42552
3.6745
3.92137
4.16599
4.40821
4.64791
4.88496
5.11926
5.35072
5.57926
5.80478
6.02723
6.24652
6.46259
6.67535
6.88474
7.09067
7.29307
7.49189
7.68704
7.87847
8.06611
8.24986
8.42967
8.60556
8.77753
8.94614
9.11022
9.27722
9.42528
-7.40985
-7.40957
-7.40919
-7.40921
-7.4104
-7.41317
-7.4173
-7.42243
-7.42821
-7.43434
-7.44051
-7.44648
-7.45203
-7.45695
-7.4611
-7.46432
-7.46653
-7.46765
-7.46765
-7.46652
-7.46426
-7.46096
-7.45668
-7.45153
-7.44561
-7.43904
-7.43202
-7.42485
-7.41788
-7.4115
-7.40595
-7.40145
-7.39825
-7.39683
-7.39793
-7.4018
-7.40739
-7.4127
-7.41618
-7.41745
-7.41709
-7.41661
-7.41763
-7.42095
-7.427
-7.43652
-7.45035
-7.4692
-7.4932
-7.522
-7.55519
-7.59251
-7.63378
-7.67877
-7.72719
-7.77858
-7.8324
-7.88796
-7.94448
-8.00111
-8.05713
-8.1119
-8.16491
-8.21568
-8.26389
-8.30928
-8.35167
-8.39092
-8.42692
-8.45958
-8.48882
-8.51459
-8.5368
-8.5554
-8.5703
-8.58145
-8.58876
-8.59216
-8.59158
-8.58695
-8.57818
-8.5652
-8.54794
-8.52633
-8.50029
-8.46976
-8.43465
-8.39488
-8.35034
-8.30097
-8.24672
-8.18753
-8.12331
-8.054
-7.9795
-7.89973
-7.8146
-7.72404
-7.62795
-7.52625
-7.41892
-7.30599
-7.18743
-7.06319
-6.93325
-6.7976
-6.65623
-6.50917
-6.35643
-6.19806
-6.0341
-5.86462
-5.68968
-5.50937
-5.3238
-5.13306
-4.93727
-4.73656
-4.53109
-4.32098
-4.10642
-3.88755
-3.66457
-3.43765
-3.20699
-2.97279
-2.73526
-2.4946
-2.25104
-2.00481
-1.75614
-1.50524
-1.25234
-0.997675
-0.741482
-0.483995
-0.225446
0.0338947
0.293827
0.554154
0.814638
1.07505
1.33517
1.5948
1.85373
2.11176
2.36872
2.62443
2.87872
3.13142
3.38238
3.63141
3.87836
4.12309
4.36544
4.60528
4.84249
5.07697
5.30861
5.53733
5.76305
5.98569
6.20518
6.42144
6.63439
6.84396
7.05007
7.25264
7.45161
7.64691
7.83847
8.02625
8.21016
8.39018
8.56632
8.73856
8.90759
9.07167
9.23941
9.38124
-7.41217
-7.41158
-7.4112
-7.41266
-7.41695
-7.42334
-7.43074
-7.43845
-7.446
-7.45308
-7.45952
-7.46527
-7.47028
-7.47448
-7.47778
-7.48011
-7.48139
-7.48158
-7.48066
-7.47859
-7.47539
-7.4711
-7.46575
-7.45941
-7.45214
-7.44401
-7.43511
-7.42565
-7.41596
-7.40655
-7.39804
-7.39122
-7.38707
-7.38655
-7.3896
-7.39438
-7.3992
-7.40329
-7.4065
-7.40925
-7.41232
-7.41685
-7.42383
-7.43421
-7.4488
-7.46795
-7.49127
-7.51815
-7.54836
-7.58155
-7.61748
-7.65612
-7.69743
-7.74129
-7.7875
-7.83568
-7.88542
-7.93623
-7.98753
-8.03879
-8.08948
-8.13914
-8.18737
-8.23381
-8.27818
-8.32022
-8.35973
-8.39655
-8.43051
-8.4615
-8.48939
-8.51407
-8.53543
-8.55336
-8.56777
-8.57856
-8.58564
-8.58892
-8.5883
-8.5837
-8.57504
-8.56224
-8.54522
-8.52389
-8.49819
-8.46804
-8.43336
-8.39407
-8.35006
-8.30126
-8.24763
-8.1891
-8.12557
-8.05697
-7.98321
-7.9042
-7.81984
-7.73007
-7.6348
-7.53398
-7.42757
-7.31556
-7.19791
-7.07459
-6.94556
-6.81083
-6.67039
-6.52425
-6.37243
-6.21498
-6.05193
-5.88335
-5.70931
-5.5299
-5.34519
-5.15532
-4.96038
-4.76051
-4.55585
-4.34655
-4.13277
-3.91466
-3.69242
-3.46622
-3.23626
-3.00273
-2.76584
-2.52579
-2.28283
-2.03715
-1.78901
-1.5386
-1.28617
-1.03194
-0.776162
-0.519062
-0.260884
-0.00185893
0.257791
0.51786
0.778101
1.0383
1.29824
1.55772
1.81652
2.07447
2.33136
2.58703
2.8413
3.094
3.34497
3.59405
3.84106
4.08587
4.32831
4.56827
4.80561
5.04022
5.27201
5.50088
5.72676
5.94957
6.16923
6.38566
6.59877
6.8085
7.01477
7.21751
7.41664
7.61211
7.80384
7.99178
8.17587
8.35607
8.53239
8.70473
8.87376
9.03719
9.20441
9.33947
-7.41649
-7.41558
-7.41613
-7.4207
-7.42826
-7.43684
-7.44552
-7.45383
-7.46148
-7.46837
-7.47452
-7.4799
-7.48446
-7.48813
-7.49084
-7.49253
-7.49314
-7.49264
-7.49101
-7.48823
-7.48432
-7.47929
-7.47317
-7.46595
-7.45763
-7.44831
-7.43813
-7.42729
-7.41616
-7.40541
-7.39588
-7.38881
-7.38526
-7.38509
-7.38686
-7.38936
-7.39251
-7.39667
-7.40213
-7.40887
-7.41714
-7.42812
-7.44282
-7.46137
-7.48354
-7.50891
-7.53721
-7.56806
-7.60119
-7.63646
-7.6737
-7.71285
-7.75382
-7.79646
-7.84059
-7.88596
-7.93225
-7.97912
-8.02623
-8.07318
-8.11963
-8.16524
-8.20969
-8.25268
-8.29395
-8.33325
-8.3704
-8.40518
-8.43743
-8.46698
-8.49367
-8.51738
-8.53795
-8.55526
-8.56919
-8.57961
-8.58642
-8.58951
-8.58879
-8.58416
-8.57553
-8.56281
-8.54592
-8.52479
-8.49932
-8.46945
-8.4351
-8.39617
-8.35256
-8.30423
-8.2511
-8.19309
-8.13013
-8.06211
-7.98896
-7.91056
-7.82685
-7.73773
-7.64315
-7.54304
-7.43736
-7.32607
-7.20914
-7.08653
-6.95822
-6.8242
-6.68446
-6.53902
-6.3879
-6.23114
-6.06878
-5.90088
-5.7275
-5.54874
-5.36468
-5.17544
-4.98112
-4.78186
-4.57779
-4.36907
-4.15585
-3.9383
-3.71659
-3.4909
-3.26144
-3.02838
-2.79195
-2.55235
-2.3098
-2.06453
-1.81675
-1.5667
-1.3146
-1.06069
-0.805202
-0.548381
-0.290459
-0.0316616
0.227779
0.487647
0.747707
1.00775
1.26754
1.52689
1.7856
2.04346
2.30029
2.55592
2.81016
3.06285
3.31382
3.56291
3.80995
4.0548
4.2973
4.53731
4.77472
5.00941
5.24129
5.47027
5.69625
5.91917
6.13894
6.35548
6.56871
6.77857
6.98496
7.18781
7.38707
7.58266
7.77451
7.96256
8.14676
8.32703
8.50338
8.67562
8.84435
9.00681
9.17324
9.3017
-7.42182
-7.42139
-7.4242
-7.43153
-7.44043
-7.44928
-7.4577
-7.46557
-7.47282
-7.47941
-7.48529
-7.4904
-7.49465
-7.49796
-7.50028
-7.50154
-7.50171
-7.50075
-7.49866
-7.49542
-7.49105
-7.48557
-7.4789
-7.47098
-7.46193
-7.45195
-7.44125
-7.43011
-7.41899
-7.40867
-7.4003
-7.3947
-7.39137
-7.38942
-7.38878
-7.38992
-7.39344
-7.39928
-7.40732
-7.41816
-7.43237
-7.44994
-7.47067
-7.49433
-7.52067
-7.54936
-7.58019
-7.61299
-7.64758
-7.68382
-7.72154
-7.7606
-7.8009
-7.84228
-7.88461
-7.9277
-7.97135
-8.01531
-8.05935
-8.10319
-8.14658
-8.18923
-8.23089
-8.27131
-8.31025
-8.34748
-8.38279
-8.41599
-8.44688
-8.47528
-8.50101
-8.5239
-8.54381
-8.56057
-8.57405
-8.58412
-8.59065
-8.59354
-8.59267
-8.58794
-8.57927
-8.56656
-8.54973
-8.52869
-8.50337
-8.47368
-8.43955
-8.40088
-8.35759
-8.30959
-8.25685
-8.19927
-8.13674
-8.06918
-7.9965
-7.91858
-7.83537
-7.74677
-7.65273
-7.55316
-7.44803
-7.33728
-7.22089
-7.09881
-6.97103
-6.83752
-6.69829
-6.55335
-6.40272
-6.24644
-6.08455
-5.91711
-5.74419
-5.56588
-5.38225
-5.19343
-4.99953
-4.80067
-4.59699
-4.38865
-4.1758
-3.95861
-3.73725
-3.51191
-3.28276
-3.05002
-2.81389
-2.57457
-2.33229
-2.08728
-1.83975
-1.58993
-1.33805
-1.08436
-0.829067
-0.572439
-0.314689
-0.0560588
0.203233
0.46295
0.722879
0.982791
1.24248
1.50173
1.76035
2.01814
2.27491
2.53049
2.7847
3.03736
3.28831
3.53739
3.78443
4.02928
4.27178
4.51181
4.74923
4.98395
5.21586
5.44487
5.67091
5.89388
6.11372
6.33033
6.54363
6.75354
6.95999
7.16292
7.36224
7.55789
7.74981
7.93791
8.12214
8.3024
8.47866
8.65065
8.81892
8.98031
9.14597
9.2683
-7.42597
-7.42684
-7.43232
-7.44071
-7.44927
-7.45748
-7.46534
-7.47279
-7.47975
-7.48613
-7.49183
-7.49675
-7.5008
-7.50392
-7.50602
-7.50706
-7.507
-7.50581
-7.50349
-7.50003
-7.49546
-7.48967
-7.4826
-7.4744
-7.46532
-7.45548
-7.44512
-7.43469
-7.42493
-7.4166
-7.41005
-7.40468
-7.39998
-7.39664
-7.39557
-7.39707
-7.40157
-7.40961
-7.42124
-7.43633
-7.45458
-7.47577
-7.49964
-7.52591
-7.55437
-7.58479
-7.61697
-7.65076
-7.68599
-7.7225
-7.76015
-7.79882
-7.8384
-7.87876
-7.91976
-7.96125
-8.00309
-8.0451
-8.08708
-8.12882
-8.17011
-8.21074
-8.25047
-8.2891
-8.3264
-8.36215
-8.39616
-8.42821
-8.45811
-8.48565
-8.51064
-8.53291
-8.55229
-8.5686
-8.58169
-8.59144
-8.59769
-8.60035
-8.59929
-8.59443
-8.58566
-8.5729
-8.55605
-8.53503
-8.50976
-8.48017
-8.44617
-8.40768
-8.36459
-8.31685
-8.26439
-8.20712
-8.14491
-8.0777
-8.00536
-7.92782
-7.84499
-7.75678
-7.66312
-7.56395
-7.45921
-7.34885
-7.23284
-7.11112
-6.98369
-6.85053
-6.71163
-6.56702
-6.4167
-6.26072
-6.09912
-5.93197
-5.75932
-5.58127
-5.39791
-5.20934
-5.01567
-4.81705
-4.6136
-4.40547
-4.19284
-3.97585
-3.75469
-3.52954
-3.30058
-3.06801
-2.83204
-2.59289
-2.35077
-2.1059
-1.85851
-1.60882
-1.35709
-1.10352
-0.848356
-0.591848
-0.334212
-0.0756924
0.183489
0.4431
0.702928
0.962746
1.22235
1.48152
1.74007
1.99779
2.25451
2.51004
2.76419
3.01681
3.26774
3.51679
3.7638
4.00862
4.25108
4.49108
4.72848
4.96318
5.19508
5.42409
5.65014
5.87313
6.09299
6.30962
6.52293
6.73286
6.93934
7.14228
7.34163
7.53731
7.72925
7.91736
8.10157
8.28175
8.45785
8.62953
8.79727
8.95757
9.12254
9.23935
-7.42721
-7.42976
-7.43681
-7.44488
-7.45275
-7.46046
-7.46796
-7.47518
-7.48199
-7.48827
-7.49392
-7.4988
-7.50283
-7.50592
-7.508
-7.50903
-7.50897
-7.50779
-7.50548
-7.50204
-7.49742
-7.49154
-7.48451
-7.47658
-7.46793
-7.4588
-7.44962
-7.44091
-7.43305
-7.42606
-7.41973
-7.41392
-7.40901
-7.40597
-7.40569
-7.40869
-7.41537
-7.42577
-7.43965
-7.4568
-7.47694
-7.4998
-7.52511
-7.55262
-7.5821
-7.61333
-7.64614
-7.68034
-7.71578
-7.75231
-7.78981
-7.82816
-7.86722
-7.90689
-7.94703
-7.98754
-8.02826
-8.06905
-8.10975
-8.15019
-8.19018
-8.22954
-8.26806
-8.30556
-8.34183
-8.37665
-8.40983
-8.44114
-8.47038
-8.49735
-8.52183
-8.54365
-8.56262
-8.57857
-8.59134
-8.60078
-8.60676
-8.60917
-8.6079
-8.60286
-8.59394
-8.58106
-8.56412
-8.54305
-8.51776
-8.48817
-8.45423
-8.41583
-8.37289
-8.32531
-8.27306
-8.216
-8.15403
-8.08706
-8.01497
-7.9377
-7.85513
-7.7672
-7.6738
-7.5749
-7.47041
-7.3603
-7.24451
-7.12303
-6.9958
-6.86284
-6.72413
-6.57969
-6.42953
-6.27371
-6.11226
-5.94525
-5.77273
-5.5948
-5.41155
-5.22308
-5.02952
-4.83099
-4.62763
-4.41959
-4.20704
-3.99014
-3.76906
-3.54398
-3.31509
-3.0826
-2.84669
-2.6076
-2.36555
-2.12074
-1.87341
-1.6238
-1.37213
-1.11862
-0.863533
-0.607089
-0.349529
-0.0910789
0.16802
0.427558
0.687303
0.947048
1.20657
1.46567
1.72415
1.98181
2.23846
2.49393
2.74802
3.00058
3.25145
3.50046
3.74742
3.99217
4.23458
4.47451
4.71185
4.94649
5.17834
5.40732
5.63334
5.85632
6.07617
6.29278
6.50607
6.71598
6.92244
7.12537
7.32471
7.52039
7.71233
7.90042
8.08456
8.26463
8.44051
8.61182
8.779
8.93826
9.10258
9.21459
-7.42398
-7.42793
-7.43513
-7.44265
-7.45019
-7.4577
-7.46511
-7.4723
-7.47915
-7.48553
-7.49131
-7.49637
-7.50058
-7.50388
-7.50616
-7.50739
-7.50751
-7.50649
-7.50432
-7.50099
-7.49647
-7.4908
-7.48418
-7.47686
-7.46912
-7.46127
-7.45357
-7.4461
-7.43895
-7.43221
-7.42602
-7.42073
-7.41694
-7.41543
-7.41677
-7.42137
-7.42943
-7.44101
-7.45593
-7.47402
-7.495
-7.51861
-7.54456
-7.57261
-7.60253
-7.63412
-7.6672
-7.70158
-7.73712
-7.77368
-7.81113
-7.84932
-7.88814
-7.92747
-7.96721
-8.00723
-8.0474
-8.08759
-8.12766
-8.16744
-8.20679
-8.24551
-8.28344
-8.32037
-8.35612
-8.39048
-8.42324
-8.45417
-8.48305
-8.50967
-8.53382
-8.55532
-8.57397
-8.5896
-8.60206
-8.6112
-8.61689
-8.61904
-8.61753
-8.61227
-8.60316
-8.59013
-8.57306
-8.55188
-8.5265
-8.49687
-8.46292
-8.42455
-8.38167
-8.33422
-8.28208
-8.22517
-8.16335
-8.09653
-8.02462
-7.94751
-7.86511
-7.77733
-7.68411
-7.58535
-7.48101
-7.37104
-7.25538
-7.134
-7.00687
-6.87399
-6.73534
-6.59096
-6.44085
-6.28507
-6.12365
-5.95665
-5.78415
-5.60623
-5.42298
-5.23452
-5.04095
-4.84241
-4.63904
-4.431
-4.21844
-4.00153
-3.78045
-3.55536
-3.32647
-3.09396
-2.85805
-2.61896
-2.3769
-2.1321
-1.88478
-1.63519
-1.38355
-1.13007
-0.875008
-0.6186
-0.361086
-0.10269
0.15635
0.415825
0.675503
0.935176
1.19463
1.45365
1.71206
1.96964
2.22621
2.4816
2.73561
2.98809
3.2389
3.48786
3.73474
3.9794
4.22171
4.46154
4.69878
4.93333
5.16511
5.39401
5.61997
5.84292
6.06273
6.27929
6.49254
6.7024
6.90881
7.1117
7.31101
7.50667
7.69858
7.88662
8.07067
8.25058
8.42622
8.59712
8.76373
8.92199
9.08569
9.19362
-7.41432
-7.41892
-7.42582
-7.43331
-7.44104
-7.44875
-7.45634
-7.46373
-7.47084
-7.47753
-7.48364
-7.48904
-7.4936
-7.49721
-7.49979
-7.5013
-7.50168
-7.50091
-7.49899
-7.49594
-7.49182
-7.48674
-7.48092
-7.47455
-7.46778
-7.46076
-7.45367
-7.44664
-7.43978
-7.43339
-7.42788
-7.42368
-7.42123
-7.42107
-7.4237
-7.42945
-7.43849
-7.45087
-7.46647
-7.48512
-7.50656
-7.53053
-7.55678
-7.58508
-7.61523
-7.64703
-7.68029
-7.71485
-7.75055
-7.78724
-7.82478
-7.86304
-7.90191
-7.94127
-7.98099
-8.02097
-8.06107
-8.10117
-8.14114
-8.18082
-8.22006
-8.25868
-8.29648
-8.33329
-8.36892
-8.40315
-8.43577
-8.46655
-8.49528
-8.52173
-8.54569
-8.56695
-8.58535
-8.6007
-8.61286
-8.62168
-8.62708
-8.62893
-8.62714
-8.62163
-8.61231
-8.59907
-8.58183
-8.56049
-8.53498
-8.50524
-8.47122
-8.43284
-8.38999
-8.34257
-8.29051
-8.23367
-8.17194
-8.10521
-8.03339
-7.95637
-7.87408
-7.78638
-7.69324
-7.59455
-7.49028
-7.38035
-7.26474
-7.14338
-7.01627
-6.88337
-6.74472
-6.6003
-6.45016
-6.29433
-6.13287
-5.96582
-5.79326
-5.61527
-5.43196
-5.24342
-5.04978
-4.85116
-4.64772
-4.43961
-4.227
-4.01004
-3.7889
-3.56376
-3.33482
-3.10226
-2.86629
-2.62716
-2.38507
-2.14025
-1.89292
-1.64334
-1.39169
-1.13822
-0.883173
-0.626802
-0.369325
-0.110988
0.147999
0.407402
0.667013
0.926605
1.18598
1.44493
1.70325
1.96074
2.21722
2.4725
2.72641
2.9788
3.22954
3.47843
3.7252
3.96973
4.21191
4.4516
4.68872
4.92316
5.15482
5.38363
5.60951
5.83241
6.05217
6.26866
6.48183
6.69161
6.89796
7.1008
7.30006
7.49569
7.68757
7.87554
8.05948
8.23921
8.41457
8.58505
8.75108
8.90841
9.07149
9.17607
-7.39666
-7.40125
-7.40831
-7.41657
-7.425
-7.43318
-7.44112
-7.44886
-7.45638
-7.46354
-7.47016
-7.47605
-7.48104
-7.48506
-7.48804
-7.48994
-7.49071
-7.49037
-7.48893
-7.48641
-7.48291
-7.47853
-7.47339
-7.46763
-7.46141
-7.45484
-7.44808
-7.44133
-7.4349
-7.42915
-7.4244
-7.42106
-7.41961
-7.42053
-7.42421
-7.43093
-7.44082
-7.45391
-7.47007
-7.48915
-7.5109
-7.53512
-7.56158
-7.59008
-7.62044
-7.65246
-7.68596
-7.72078
-7.75674
-7.79371
-7.83155
-7.87014
-7.90935
-7.94906
-7.98914
-8.02944
-8.06986
-8.11027
-8.15052
-8.19046
-8.22995
-8.2688
-8.30683
-8.34386
-8.37967
-8.41405
-8.44677
-8.47762
-8.50635
-8.53273
-8.55656
-8.57763
-8.59578
-8.61083
-8.62263
-8.63107
-8.63607
-8.63755
-8.63542
-8.62961
-8.62003
-8.60656
-8.58911
-8.56756
-8.54185
-8.51194
-8.47782
-8.43941
-8.39655
-8.34918
-8.29715
-8.24035
-8.17867
-8.112
-8.04024
-7.9633
-7.88105
-7.7934
-7.70028
-7.60163
-7.49737
-7.38745
-7.27183
-7.15045
-7.0233
-6.89036
-6.75164
-6.60715
-6.45694
-6.30104
-6.13949
-5.97235
-5.7997
-5.62161
-5.4382
-5.24957
-5.05583
-4.8571
-4.65356
-4.44538
-4.2327
-4.01568
-3.79449
-3.5693
-3.34031
-3.1077
-2.87167
-2.63247
-2.39034
-2.14551
-1.89819
-1.6486
-1.39696
-1.14351
-0.888489
-0.632158
-0.374735
-0.116458
0.14246
0.401788
0.661315
0.920822
1.18011
1.43896
1.69718
1.95456
2.21093
2.46609
2.71988
2.97215
3.22284
3.47166
3.7183
3.96267
4.20468
4.44421
4.68118
4.91547
5.147
5.37569
5.6015
5.82434
6.04403
6.26042
6.4735
6.68319
6.88946
7.09223
7.29144
7.48703
7.67888
7.86677
8.05058
8.23011
8.40519
8.57524
8.74072
8.89717
9.0596
9.16156
-7.3706
-7.37502
-7.383
-7.39266
-7.40207
-7.41081
-7.41917
-7.42742
-7.43563
-7.44357
-7.45093
-7.45746
-7.46302
-7.46755
-7.47103
-7.47344
-7.47477
-7.47499
-7.47411
-7.47219
-7.46927
-7.46545
-7.46081
-7.45547
-7.44956
-7.44324
-7.43675
-7.43037
-7.42437
-7.41908
-7.41492
-7.41233
-7.41176
-7.41363
-7.41824
-7.42583
-7.43648
-7.45018
-7.46682
-7.48623
-7.50825
-7.53268
-7.55935
-7.58808
-7.6187
-7.65103
-7.6849
-7.72011
-7.7565
-7.79393
-7.83226
-7.87137
-7.91112
-7.95138
-7.99202
-8.03291
-8.07392
-8.11491
-8.15574
-8.19624
-8.23626
-8.27561
-8.31414
-8.35161
-8.38782
-8.42255
-8.45556
-8.48658
-8.51535
-8.54162
-8.56518
-8.58591
-8.60365
-8.61824
-8.6295
-8.63737
-8.64185
-8.64288
-8.64038
-8.63428
-8.62448
-8.61083
-8.59319
-8.57145
-8.54548
-8.5153
-8.48105
-8.44263
-8.39984
-8.3525
-8.30051
-8.24376
-8.18212
-8.11552
-8.04384
-7.96697
-7.88477
-7.79717
-7.70406
-7.60543
-7.50118
-7.39128
-7.27565
-7.15426
-7.02705
-6.89406
-6.75527
-6.61073
-6.46045
-6.30448
-6.14286
-5.97565
-5.80292
-5.62476
-5.44127
-5.25255
-5.05872
-4.8599
-4.65629
-4.44806
-4.23536
-4.01831
-3.79709
-3.57189
-3.34289
-3.11026
-2.8742
-2.63497
-2.39286
-2.14804
-1.90076
-1.6512
-1.3996
-1.14619
-0.891256
-0.635001
-0.377677
-0.119496
0.139306
0.398521
0.657921
0.917304
1.17645
1.43517
1.69325
1.95049
2.20669
2.46169
2.71532
2.96745
3.21816
3.467
3.71347
3.95765
4.19947
4.43883
4.67562
4.90976
5.14115
5.36972
5.59546
5.81829
6.03792
6.2542
6.46716
6.67675
6.88293
7.08563
7.28479
7.48036
7.67218
7.85999
8.04365
8.22297
8.39776
8.56739
8.73232
8.88797
9.0497
9.14973
-7.33736
-7.34209
-7.35158
-7.36302
-7.37353
-7.38299
-7.39211
-7.40106
-7.40996
-7.4188
-7.42723
-7.43476
-7.44103
-7.44606
-7.45005
-7.45302
-7.45493
-7.45574
-7.45544
-7.45405
-7.45161
-7.44818
-7.44384
-7.43872
-7.433
-7.42687
-7.42056
-7.41436
-7.40862
-7.40373
-7.40012
-7.39822
-7.39843
-7.40111
-7.40652
-7.41481
-7.42604
-7.4402
-7.4572
-7.47691
-7.49919
-7.52386
-7.55076
-7.57975
-7.61067
-7.64334
-7.67758
-7.71322
-7.7501
-7.78808
-7.82702
-7.86678
-7.90721
-7.94817
-7.98954
-8.03118
-8.07297
-8.11474
-8.15633
-8.19757
-8.23828
-8.27828
-8.31737
-8.35534
-8.39196
-8.42699
-8.46017
-8.49122
-8.51982
-8.5457
-8.56871
-8.58882
-8.60594
-8.61985
-8.63026
-8.63726
-8.64108
-8.64168
-8.63892
-8.63272
-8.62293
-8.60932
-8.59171
-8.56991
-8.54371
-8.51319
-8.47878
-8.44043
-8.39773
-8.35045
-8.29848
-8.24172
-8.18011
-8.11358
-8.042
-7.96519
-7.88302
-7.79541
-7.7023
-7.60365
-7.49941
-7.38951
-7.27387
-7.15245
-7.02519
-6.89212
-6.75327
-6.60865
-6.45831
-6.30229
-6.14061
-5.97334
-5.80053
-5.6223
-5.43875
-5.25001
-5.05618
-4.85739
-4.6538
-4.44554
-4.23277
-4.01565
-3.79438
-3.56914
-3.34013
-3.10756
-2.87163
-2.63255
-2.39056
-2.14588
-1.89873
-1.6493
-1.39784
-1.14461
-0.889858
-0.63381
-0.376704
-0.118756
0.139803
0.398761
0.657898
0.917008
1.17588
1.43431
1.69208
1.94901
2.2049
2.45956
2.71284
2.96465
3.21522
3.46398
3.71022
3.95415
4.19573
4.43488
4.67148
4.90544
5.13668
5.36511
5.59081
5.81374
6.0334
6.24956
6.4624
6.67189
6.87799
7.08064
7.27976
7.47536
7.6672
7.85493
8.03843
8.21755
8.39204
8.56127
8.72567
8.88056
9.04155
9.14031
-7.29995
-7.30557
-7.31709
-7.33073
-7.34237
-7.3521
-7.36161
-7.37162
-7.38179
-7.39177
-7.40125
-7.4098
-7.41688
-7.42244
-7.42691
-7.43044
-7.43291
-7.43426
-7.43445
-7.43347
-7.43135
-7.42815
-7.42397
-7.41894
-7.41323
-7.40708
-7.40077
-7.39465
-7.38909
-7.38453
-7.38136
-7.38
-7.38078
-7.38403
-7.38993
-7.39864
-7.4102
-7.4246
-7.44179
-7.46164
-7.48405
-7.50886
-7.53594
-7.56516
-7.59634
-7.62931
-7.66389
-7.69995
-7.73734
-7.77589
-7.81547
-7.85592
-7.8971
-7.93887
-7.98107
-8.02355
-8.06615
-8.10869
-8.15098
-8.19285
-8.23411
-8.27456
-8.31399
-8.3522
-8.38896
-8.42399
-8.45704
-8.48779
-8.51586
-8.54082
-8.56273
-8.58185
-8.59815
-8.61122
-8.62035
-8.62587
-8.6287
-8.62881
-8.62597
-8.61997
-8.61053
-8.59735
-8.58013
-8.5588
-8.53338
-8.50387
-8.4702
-8.4322
-8.38967
-8.34244
-8.29048
-8.23372
-8.17213
-8.1056
-8.03402
-7.95717
-7.87495
-7.78724
-7.69405
-7.5953
-7.49097
-7.38096
-7.26522
-7.14366
-7.01626
-6.88303
-6.74403
-6.59927
-6.44879
-6.29262
-6.13081
-5.9634
-5.79048
-5.61213
-5.42848
-5.23966
-5.0458
-4.84704
-4.64344
-4.43512
-4.22227
-4.00508
-3.78374
-3.55846
-3.32945
-3.09694
-2.86115
-2.62226
-2.38042
-2.13591
-1.8889
-1.63965
-1.38839
-1.13541
-0.880902
-0.625132
-0.368312
-0.11068
0.147553
0.406158
0.664933
0.92366
1.18213
1.44014
1.69748
1.95394
2.20933
2.46347
2.71616
2.96726
3.21661
3.46415
3.70972
3.95317
4.19435
4.43312
4.66937
4.903
5.13391
5.36203
5.58751
5.8104
6.03003
6.24604
6.45875
6.66815
6.87418
7.07678
7.27588
7.47159
7.66358
7.85129
8.03465
8.21357
8.38779
8.55663
8.72054
8.87473
9.03493
9.13305
-7.26199
-7.26883
-7.28286
-7.2984
-7.31036
-7.32052
-7.33112
-7.34226
-7.35349
-7.36451
-7.37501
-7.3845
-7.39235
-7.39856
-7.40363
-7.40775
-7.41079
-7.41263
-7.41322
-7.41254
-7.4106
-7.40746
-7.40322
-7.39804
-7.39213
-7.38577
-7.37926
-7.37301
-7.3674
-7.36286
-7.35977
-7.35851
-7.35939
-7.3627
-7.36862
-7.37729
-7.38875
-7.40303
-7.42007
-7.4398
-7.46212
-7.48694
-7.51412
-7.54351
-7.57494
-7.60822
-7.64319
-7.67972
-7.71765
-7.75683
-7.79708
-7.83822
-7.88012
-7.92258
-7.96546
-8.00857
-8.05174
-8.09476
-8.13745
-8.17961
-8.22107
-8.2616
-8.30101
-8.33908
-8.37561
-8.41035
-8.44303
-8.47328
-8.50048
-8.52365
-8.54322
-8.56042
-8.57556
-8.58841
-8.59835
-8.60497
-8.6082
-8.60825
-8.60534
-8.59934
-8.58999
-8.57694
-8.55988
-8.53887
-8.51419
-8.4857
-8.45273
-8.41502
-8.37263
-8.32554
-8.27368
-8.21705
-8.15555
-8.0891
-8.01753
-7.94072
-7.85849
-7.77081
-7.67762
-7.57889
-7.47455
-7.36452
-7.24874
-7.12713
-6.99967
-6.8664
-6.72734
-6.58253
-6.43199
-6.27577
-6.11391
-5.94645
-5.77349
-5.59511
-5.41145