/*--------------------------------*- C++ -*----------------------------------*\
  =========                 |
  \\      /  F ield         | OpenFOAM: The Open Source CFD Toolbox
   \\    /   O peration     | Website:  https://openfoam.org
    \\  /    A nd           | Version:  8
     \\/     M anipulation  |
\*---------------------------------------------------------------------------*/
FoamFile
{
    version     2.0;
    format      ascii;
    class       volVectorField;
    location    "1400";
    object      wallShearStress;
}
// * * * * * * * * * * * * * * * * * * * * * * * * * * * * * * * * * * * * * //

dimensions      [0 2 -2 0 0 0 0];

internalField   uniform (0 0 0);

boundaryField
{
    inlet
    {
        type            calculated;
        value           uniform (0 0 0);
    }
    outlet
    {
        type            calculated;
        value           uniform (0 0 0);
    }
    upperWall
    {
        type            calculated;
        value           nonuniform List<vector> 
223
(
(-0.443776 0.00310422 0)
(-0.481171 0.00565029 0)
(-0.500931 0.00697054 0)
(-0.504028 0.00738235 0)
(-0.499109 0.00731424 0)
(-0.488591 0.00693179 0)
(-0.476914 0.00642335 0)
(-0.465165 0.00586345 0)
(-0.453019 0.00527797 0)
(-0.441538 0.00470881 0)
(-0.430958 0.00417359 0)
(-0.421344 0.00367986 0)
(-0.412712 0.0032307 0)
(-0.405005 0.00282741 0)
(-0.398154 0.00246958 0)
(-0.392066 0.00216658 0)
(-0.38661 0.00192237 0)
(-0.38175 0.00177595 0)
(-0.377848 0.00170423 0)
(-0.374764 0.00165361 5.83089e-22)
(-0.37175 0.00158572 0)
(-0.368815 0.00150701 0)
(-0.36596 0.00142289 0)
(-0.363185 0.00133643 5.9477e-22)
(-0.360497 0.00124963 0)
(-0.357897 0.00116447 0)
(-0.355386 0.00108177 0)
(-0.352963 0.00100249 -1.21014e-21)
(-0.350627 0.000926794 1.21503e-21)
(-0.348375 0.000855019 1.21982e-21)
(-0.346207 0.000786934 0)
(-0.344121 0.000722825 -1.22919e-21)
(-0.342113 0.00066222 0)
(-0.340183 0.000605184 1.23834e-21)
(-0.338329 0.00055127 1.24285e-21)
(-0.33655 0.000500134 -1.24732e-21)
(-0.334844 0.000451813 0)
(-0.33321 0.000406319 0)
(-0.331647 0.000363471 0)
(-0.330153 0.000322769 0)
(-0.32873 0.000284208 -1.26927e-21)
(-0.327371 0.000248133 0)
(-0.32608 0.00021503 0)
(-0.324848 0.000184967 1.28217e-21)
(-0.323676 0.000157785 0)
(-0.322558 0.000133558 1.29077e-21)
(-0.321493 0.000112189 -1.29508e-21)
(-0.320476 9.36713e-05 1.29939e-21)
(-0.319504 7.80928e-05 0)
(-0.318571 6.53839e-05 0)
(-0.317675 5.53458e-05 0)
(-0.316812 4.79644e-05 1.31679e-21)
(-0.315977 4.28634e-05 -1.32119e-21)
(-0.315168 4.00293e-05 0)
(-0.31438 3.90616e-05 0)
(-0.313613 3.98368e-05 0)
(-0.31286 4.2237e-05 0)
(-0.312123 4.60086e-05 0)
(-0.311393 5.09588e-05 0)
(-0.310677 5.71101e-05 0)
(-0.309962 6.42004e-05 0)
(-0.309255 7.2211e-05 1.3615e-21)
(-0.308547 8.08697e-05 -1.36595e-21)
(-0.307841 8.99999e-05 0)
(-0.307139 0.000100475 0)
(-0.306401 0.000111496 0)
(-0.305758 0.000121328 -1.38353e-21)
(-0.304855 0.000135709 0)
(-0.304169 0.000141647 0)
(-0.303381 0.000171551 0)
(-0.302929 0.000132399 0)
(-0.337376 0.000281041 0)
(-0.32573 0.000958388 -3.02745e-21)
(-0.319335 0.00116437 0)
(-0.328045 0.000760941 0)
(-0.316799 0.000604622 0)
(-0.31252 0.000558972 0)
(-0.308421 0.000560231 0)
(-0.305798 0.000403801 0)
(-0.308465 0.00013197 0)
(-0.302126 0.000104273 3.01922e-21)
(-0.299605 5.52384e-05 0)
(-0.302421 -6.81092e-05 0)
(-0.298366 -0.000202641 0)
(-0.317831 -0.000228991 -3.23811e-21)
(-0.361722 0.000101624 0)
(-0.3386 0.000607739 -3.44893e-21)
(-0.316026 0.000659798 0)
(-0.308527 0.000949415 0)
(-0.305225 0.000957756 0)
(-0.301269 0.000683855 -3.1015e-21)
(-0.299548 0.000341344 0)
(-0.296287 5.98563e-05 3.09163e-21)
(-0.295917 0.00027704 3.11169e-21)
(-0.2974 0.000232934 0)
(-0.297779 0.000102613 3.19095e-21)
(-0.295053 5.46676e-05 0)
(-0.294728 0.000230737 0)
(-0.294395 -2.50407e-05 0)
(-0.319312 0.000405557 -3.46277e-21)
(-0.306387 0.00085643 0)
(-0.296629 0.000698403 -3.19698e-21)
(-0.292765 0.000665196 3.14879e-21)
(-0.299913 6.7829e-05 0)
(-0.292194 6.74368e-06 0)
(-0.291721 0.000254235 0)
(-0.291253 0.000484053 0)
(-0.290604 0.000378257 0)
(-0.299575 2.07906e-05 0)
(-0.346485 0.000218632 0)
(-0.317975 9.98371e-05 -3.49721e-21)
(-0.336579 0.000424978 0)
(-0.316414 0.00119083 0)
(-0.287641 0.000895686 0)
(-0.286871 0.000275853 0)
(-0.33399 0.00080157 0)
(-0.305437 0.000931948 0)
(-0.29764 0.000419029 0)
(-0.284423 6.65739e-07 0)
(-0.306021 0.000134654 0)
(-0.284518 0.000390495 0)
(-0.282242 9.81192e-05 0)
(-0.297763 0.000148161 0)
(-0.320542 0.000846134 -6.5638e-21)
(-0.298407 0.00130608 0)
(-0.278006 0.00111829 0)
(-0.276725 0.000791561 0)
(-0.275714 0.000306095 5.35163e-21)
(-0.289134 4.77521e-05 0)
(-0.295751 0.000121147 0)
(-0.2861 0.000387964 5.37725e-21)
(-0.298495 0.000368338 0)
(-0.291816 0.000795015 -5.28254e-21)
(-0.267162 0.00130668 0)
(-0.265865 0.00126812 0)
(-0.264488 0.00169259 0)
(-0.263107 0.0012003 4.14793e-21)
(-0.273126 0.000777978 0)
(-0.260825 0.000729369 -3.86006e-21)
(-0.279191 0.000728312 0)
(-0.258241 0.000631438 0)
(-0.276001 0.000763966 0)
(-0.255407 0.00114465 0)
(-0.253828 0.000458532 0)
(-0.260693 -8.93265e-05 0)
(-0.262155 0.000415732 0)
(-0.248555 0.000586658 0)
(-0.249352 0.000549357 0)
(-0.275234 0.000552764 0)
(-0.26921 6.33696e-05 0)
(-0.246749 0.000304134 -1.20225e-21)
(-0.237528 0.00107115 9.04718e-22)
(-0.258781 0.00106888 0)
(-0.248696 0.00109053 0)
(-0.233238 0.00206129 0)
(-0.231433 0.00212691 0)
(-0.229183 0.00160029 -7.24783e-22)
(-0.22714 0.00104105 1.07114e-21)
(-0.225367 0.000663962 -1.43184e-21)
(-0.223814 0.00108799 0)
(-0.222275 0.00169692 -2.17661e-21)
(-0.220589 0.00160649 -5.1531e-21)
(-0.219497 4.38119e-05 0)
(-0.217488 -0.00134769 -7.11918e-21)
(-0.213874 5.50907e-05 8.21702e-21)
(-0.226894 0.00158164 0)
(-0.211833 0.000401243 0)
(-0.208967 -0.00103703 0)
(-0.20536 -0.00099398 0)
(-0.201534 0.000685122 0)
(-0.200808 0.00235639 -1.36082e-20)
(-0.200339 0.00200004 0)
(-0.19894 0.000912693 -1.566e-20)
(-0.196023 0.00061316 0)
(-0.200192 -6.40553e-05 0)
(-0.190334 -0.000838139 0)
(-0.186775 0.000376132 0)
(-0.185968 0.00135236 0)
(-0.184844 0.00146439 2.3382e-20)
(-0.183293 0.00089804 0)
(-0.179473 -5.73237e-05 0)
(-0.17422 -0.000146058 -2.93856e-20)
(-0.168621 -0.000169902 0)
(-0.162604 -0.000246905 0)
(-0.159529 0.00101052 0)
(-0.16109 0.00173663 3.56016e-20)
(-0.162496 0.00141685 0)
(-0.160491 0.00100881 0)
(-0.155031 0.000604986 0)
(-0.145058 0.000721332 0)
(-0.131689 0.00110246 -5.55856e-20)
(-0.116647 0.00155374 0)
(-0.101974 0.00172364 0)
(-0.0892141 0.00157018 0)
(-0.0790237 0.0013867 9.50347e-20)
(-0.0686191 0.0012675 0)
(-0.0635598 0.00172584 0)
(-0.0349053 0.00143697 -1.39991e-19)
(-0.0673173 0.000427457 1.20371e-35)
(-0.101159 0.00573291 1.1936e-17)
(-0.12432 0.0101207 2.14118e-17)
(-0.136627 0.0126806 2.01158e-17)
(-0.143892 0.0140859 1.93275e-17)
(-0.149374 0.014943 1.86948e-17)
(-0.15367 0.0155553 -1.81611e-17)
(-0.156793 0.0159916 -1.76716e-17)
(-0.159152 0.0162987 0)
(-0.161319 0.0165337 -3.37068e-17)
(-0.163432 0.0167462 -1.64608e-17)
(-0.165652 0.0169475 4.69445e-34)
(-0.168092 0.0171601 -1.20371e-35)
(-0.171009 0.0174003 -3.02569e-17)
(-0.174467 0.0176931 -2.91083e-17)
(-0.178613 0.0180447 -2.77958e-17)
(-0.183441 0.0184675 -2.40741e-35)
(-0.189032 0.018959 4.9051e-17)
(-0.195482 0.0195351 2.25062e-17)
(-0.202662 0.0201827 2.40741e-35)
(-0.211289 0.0209566 -3.51224e-17)
(-0.219576 0.0217351 -1.23482e-20)
(-0.233021 0.0228856 0)
(-0.237366 0.0236105 1.32298e-17)
(-0.262815 0.0251632 -7.06981e-18)
)
;
    }
    lowerWall
    {
        type            calculated;
        value           nonuniform List<vector> 
250
(
(-0.62558 -0.0056404 0)
(-0.597239 -0.00953918 0)
(-0.632642 -0.0109204 0)
(-0.697561 -0.0114577 0)
(-0.689418 -0.0111009 0)
(-0.599181 -0.0100681 0)
(-0.506232 -0.00740556 0)
(-0.487346 -0.00489739 0)
(-0.464339 -0.00417484 0)
(-0.454825 -0.00393912 0)
(-0.447083 -0.00349549 0)
(-0.440229 -0.00263591 0)
(-0.435023 -0.00107478 0)
(-0.461887 -0.000394795 0)
(-0.503665 -0.00115569 0)
(-0.454699 -0.00123979 0)
(-0.42315 -0.000694491 0)
(-0.421563 -2.31999e-05 0)
(0.00210291 0.000147536 0)
(0.00234017 -0.00273001 0)
(0.00259242 -0.00569288 0)
(0.002912 -0.00879802 1.15326e-19)
(0.00323624 -0.0118789 -9.60923e-20)
(0.00342726 -0.0153812 8.4047e-20)
(0.00340012 -0.0151102 -7.43475e-20)
(0.0100336 -0.034694 0)
(-0.0459889 -0.108456 0)
(0.000222483 -0.000274799 0)
(5.78024e-05 -0.000787162 0)
(-7.91803e-06 -0.000872025 0)
(5.59673e-05 -0.000872912 0)
(3.26924e-05 -0.000842246 1.53669e-19)
(-0.000142945 -0.000275073 -1.49354e-19)
(-0.00057932 0.00116636 0)
(-0.00117563 0.00386744 -1.71423e-19)
(-0.00155186 0.00730326 1.31192e-19)
(-0.00149595 0.0105432 0)
(-0.00110282 0.0129314 0)
(-0.00057047 0.0141828 0)
(-6.17564e-05 0.0142721 0)
(0.000340471 0.0133934 0)
(0.000673563 0.0118257 0)
(0.000998213 0.00961561 0)
(0.0013534 0.00679991 0)
(0.00175481 0.00341902 0)
(-0.000142902 -0.000277484 0)
(0.000169012 -0.000447372 0)
(0.000478519 -0.000499524 0)
(0.000799072 -0.000429865 0)
(0.00105449 -0.000195593 -0)
(0.0011006 0.000192964 -0)
(0.000852678 0.000659046 1.44125e-20)
(0.000339165 0.00109588 -1.63039e-20)
(-0.00037204 0.0014133 0)
(-0.00118695 0.00157199 -9.31669e-21)
(-0.00202648 0.00158507 0)
(-0.00282641 0.00148308 0)
(-0.00354153 0.00130231 0)
(-0.00414698 0.00107341 4.58049e-21)
(-0.0046313 0.000817141 0)
(-0.00499023 0.000545206 0)
(-0.00522124 0.000265933 -3.97377e-21)
(-0.00532875 -2.67167e-05 -0)
(-0.00528773 -0.000330094 0)
(-0.00509668 -0.000622919 -0)
(-0.00476442 -0.000885016 4.28144e-21)
(-0.00430277 -0.00109602 -0)
(-0.00372991 -0.00123453 5.07922e-21)
(-0.00307352 -0.00128094 0)
(-0.00237185 -0.00122051 -0)
(-0.00167488 -0.00104997 8.30281e-21)
(-0.00104128 -0.000785823 0)
(-0.000529808 -0.000474347 -1.39e-20)
(-0.000173324 -0.000190913 0)
(4.91837e-05 3.56171e-07 2.35404e-20)
(0.00019197 0.000111543 0)
(0.000275033 0.000205768 0)
(0.000267002 0.000319528 0)
(0.000155409 0.000474168 0)
(-9.57629e-05 0.00068126 0)
(-0.00051475 0.000895818 -1.49823e-20)
(-0.00107837 0.00103624 0)
(-0.00169461 0.00103019 1.76732e-20)
(-0.00224336 0.000870062 0)
(-0.00262857 0.000607596 -1.40894e-20)
(-0.00281395 0.000328651 0)
(-0.00282772 0.000107077 0)
(-0.00272913 -1.11576e-05 1.39706e-20)
(-0.00259554 -1.91532e-06 0)
(-0.00249644 0.00012783 1.45555e-20)
(-0.00243834 0.000321862 -1.46698e-20)
(-0.00236473 0.000438063 0)
(-0.0021441 0.000238382 -1.60002e-20)
(-0.00150769 -0.000415454 -1.86592e-20)
(-0.000234127 -0.00115097 0)
(0.00149158 -0.00180098 0)
(0.00342701 -0.00245705 0)
(0.00564724 -0.00300489 0)
(0.00804976 -0.00337241 -0)
(0.0105123 -0.00364655 3.50932e-21)
(0.0130079 -0.00382884 0)
(0.0155123 -0.003865 -2.70333e-21)
(0.017977 -0.00372203 -0)
(0.020961 -0.00356968 -0)
(0.0227544 -0.00320921 2.19341e-21)
(0.0242349 -0.00288223 0)
(0.0264283 -0.00266615 -1.94861e-21)
(0.0286929 -0.00247342 -0)
(0.0309724 -0.00231871 0)
(0.0330372 -0.00215285 -0)
(0.0350987 -0.00200342 1.82034e-21)
(0.0369874 -0.00186711 0)
(0.0388607 -0.00174811 -0)
(0.0406166 -0.00164125 1.77113e-21)
(0.0423405 -0.00154727 0)
(0.0439868 -0.00146312 1.74965e-21)
(0.0455955 -0.00138812 0)
(0.0471495 -0.00132014 0)
(0.0486664 -0.00125828 0)
(0.0501404 -0.00120125 -1.71744e-21)
(0.0515797 -0.00114822 -0)
(0.0529821 -0.00109818 0)
(0.054351 -0.00105083 -1.69681e-21)
(0.0556865 -0.0010055 -1.68999e-21)
(0.0569894 -0.00096187 -0)
(0.0582601 -0.00091945 -1.67602e-21)
(0.0594982 -0.000878144 0)
(0.0607039 -0.000837535 -3.32243e-21)
(0.0618767 -0.000797702 -0)
(0.0630166 -0.000758229 -3.29036e-21)
(0.0641225 -0.000719075 -0)
(0.0651939 -0.000680061 3.25526e-21)
(0.0662303 -0.000641055 0)
(0.0672302 -0.000601802 0)
(0.0681929 -0.000562152 0)
(0.069117 -0.000521566 -3.17359e-21)
(0.0700003 -0.000479887 -0)
(0.0708414 -0.000436807 3.12591e-21)
(0.0716382 -0.000391938 0)
(0.0723883 -0.000344875 -3.07323e-21)
(0.0730889 -0.000295327 -3.04495e-21)
(0.0737371 -0.000243395 -3.01537e-21)
(0.0743307 -0.000189514 -0)
(0.0748671 -0.000135308 0)
(0.0753457 -8.34946e-05 0)
(0.0757686 -3.79089e-05 0)
(0.0761418 9.8881e-07 0)
(0.0764676 3.68555e-05 0)
(0.0767474 7.2391e-05 0)
(0.0769794 0.00010763 0)
(0.077164 0.000142935 2.68303e-21)
(0.0772997 0.000178088 2.63675e-21)
(0.0773867 0.000213274 0)
(0.0774239 0.000248331 0)
(0.0774108 0.000283342 0)
(0.077347 0.00031798 2.43011e-21)
(0.0772327 0.000352488 0)
(0.0770671 0.00038663 0)
(0.0768502 0.000420512 0)
(0.0765819 0.000453877 0)
(0.0762625 0.000486858 -2.11973e-21)
(0.0758919 0.00051926 0)
(0.0754706 0.000551199 0)
(0.0749986 0.00058247 1.90356e-21)
(0.0744766 0.000613129 -1.82626e-21)
(0.0739053 0.000643122 0)
(0.0732847 0.000672484 -1.66351e-21)
(0.0726159 0.000701036 0)
(0.0718998 0.000728902 1.48961e-21)
(0.0711369 0.000755936 0)
(0.0703287 0.000782189 0)
(0.0694758 0.000807555 0)
(0.0685815 0.000831962 0)
(0.0676401 0.000855266 0)
(0.0666685 0.000878051 -1.795e-21)
(0.0656353 0.000899277 -1.57558e-21)
(0.0645838 0.000919548 0)
(0.0634775 0.000937961 0)
(0.0623493 0.000952724 0)
(0.0611879 0.000961833 6.33524e-22)
(0.0599952 0.000961935 0)
(0.0587774 0.000953311 0)
(0.057525 0.000956462 0)
(0.056243 0.000972076 -4.21808e-22)
(0.0549291 0.000983421 7.05947e-22)
(0.0535913 0.000993977 0)
(0.0522299 0.00100343 0)
(0.0508476 0.0010122 1.61242e-21)
(0.0494455 0.00102015 1.93379e-21)
(0.0480254 0.00102752 0)
(0.0465883 0.00103414 0)
(0.0451365 0.00104019 -2.96165e-21)
(0.043671 0.00104553 3.32745e-21)
(0.0421935 0.00105045 0)
(0.0407019 0.00105433 0)
(0.0392028 0.00105776 4.5034e-21)
(0.0376922 0.00106026 0)
(0.0361766 0.00106234 0)
(0.0346539 0.00106371 5.81729e-21)
(0.0331284 0.0010648 0)
(0.0315993 0.00106554 6.78444e-21)
(0.0300689 0.00106614 0)
(0.0285377 0.00106672 0)
(0.0270066 0.00106747 0)
(0.025476 0.00106851 -8.99581e-21)
(0.023946 0.00106989 0)
(0.022417 0.00107166 0)
(0.0208889 0.00107383 0)
(0.019362 0.0010764 0)
(0.0178363 0.00107946 0)
(0.0163121 0.00108308 0)
(0.0147892 0.00108741 -1.42151e-20)
(0.0132676 0.00109259 -1.51723e-20)
(0.011747 0.00109872 0)
(0.010227 0.00110583 0)
(0.00870726 0.00111377 0)
(0.00718789 0.00112233 1.98554e-20)
(0.00566943 0.00113176 0)
(0.0041535 0.00114086 -4.58229e-20)
(0.00264409 0.00114646 4.93776e-20)
(0.00115082 0.0011435 5.33361e-20)
(-0.000323964 0.00110744 -5.52004e-20)
(-0.00168619 0.00103685 5.37996e-20)
(-0.00319407 0.000870841 -5.18781e-20)
(-0.00352038 0.000483286 0)
(-0.00548 0.00107365 -3.0965e-18)
(-0.00857153 0.000848055 -2.80874e-18)
(-0.0116363 0.000502493 0)
(-0.014787 0.000179106 -4.78374e-18)
(-0.0181428 -0.000158761 -8.90034e-18)
(-0.0217109 -0.000514732 -4.15456e-18)
(-0.0255021 -0.00089038 3.88835e-18)
(-0.0295384 -0.00128956 -1.20371e-35)
(-0.0338459 -0.00171585 0)
(-0.0384425 -0.00217268 3.21867e-18)
(-0.0433464 -0.00266043 3.02665e-18)
(-0.0485734 -0.00314387 6.01853e-36)
(-0.0541375 -0.00365612 0)
(-0.060095 -0.00424754 0)
(-0.0665045 -0.0049002 -3.13152e-35)
(-0.0733697 -0.00560619 -5.92449e-36)
(-0.0808354 -0.00636734 3.91205e-35)
(-0.0887696 -0.00718931 -3.74987e-18)
(-0.0977224 -0.00808177 -3.4158e-18)
(-0.10679 -0.00904918 1.80556e-35)
(-0.118324 -0.0101122 5.37351e-18)
(-0.127894 -0.0112804 8.91813e-18)
(-0.145282 -0.012511 1.80556e-35)
(-0.152695 -0.0140198 -4.29904e-18)
(-0.187304 -0.0163601 -2.40741e-35)
)
;
    }
    frontAndBack
    {
        type            empty;
    }
}


// ************************************************************************* //
