/*--------------------------------*- C++ -*----------------------------------*\
  =========                 |
  \\      /  F ield         | OpenFOAM: The Open Source CFD Toolbox
   \\    /   O peration     | Website:  https://openfoam.org
    \\  /    A nd           | Version:  8
     \\/     M anipulation  |
\*---------------------------------------------------------------------------*/
FoamFile
{
    version     2.0;
    format      ascii;
    class       volScalarField;
    location    "800";
    object      k;
}
// * * * * * * * * * * * * * * * * * * * * * * * * * * * * * * * * * * * * * //

dimensions      [0 2 -2 0 0 0 0];

internalField   nonuniform List<scalar> 
12225
(
0.576341
1.72801
2.37642
3.38908
3.49892
3.01655
3.3785
2.68693
1.8835
1.63884
2.35063
2.9637
2.28224
2.19092
2.74684
2.87179
2.93939
2.93549
0.367762
0.393676
0.467794
0.566759
0.645212
0.670929
0.724573
0.734856
0.768317
0.77592
0.791617
0.832478
0.847603
0.876716
0.88228
0.909001
0.946819
0.960591
0.375698
0.360723
0.364453
0.378291
0.377387
0.381634
0.376452
0.379553
0.37801
0.377207
0.376188
0.376462
0.376681
0.376903
0.378179
0.378974
0.380848
0.386828
0.375096
0.36627
0.363939
0.365757
0.362845
0.363597
0.361707
0.358152
0.355078
0.351034
0.347235
0.342543
0.338486
0.33372
0.329969
0.325953
0.322547
0.31951
0.374464
0.369728
0.36709
0.365829
0.364624
0.363164
0.361273
0.358679
0.356283
0.35336
0.350629
0.347306
0.344315
0.340906
0.338024
0.334912
0.33237
0.329599
0.374139
0.371055
0.368702
0.366749
0.365192
0.363439
0.361683
0.359617
0.357693
0.355528
0.353483
0.351174
0.34903
0.346702
0.344639
0.342457
0.340599
0.338594
0.373957
0.371494
0.369296
0.367245
0.36546
0.363653
0.361943
0.360139
0.358435
0.356654
0.354961
0.35318
0.351497
0.349753
0.34815
0.34651
0.34504
0.343512
0.373885
0.371572
0.369431
0.36739
0.365529
0.363714
0.362012
0.360311
0.358695
0.357075
0.355531
0.353975
0.352495
0.35101
0.349619
0.348229
0.346947
0.345649
0.373851
0.371586
0.369459
0.367428
0.365536
0.363722
0.362016
0.360357
0.358781
0.357241
0.355772
0.35433
0.352957
0.351609
0.350334
0.349083
0.347909
0.346744
0.373838
0.371576
0.369446
0.367419
0.365512
0.363696
0.361982
0.360339
0.358778
0.357277
0.355846
0.354466
0.353151
0.35188
0.350673
0.349504
0.348396
0.347318
0.37383
0.371569
0.369431
0.367402
0.365484
0.363662
0.361937
0.360294
0.358734
0.357244
0.355826
0.354469
0.353177
0.351941
0.350762
0.349634
0.348556
0.347524
0.373829
0.371562
0.369417
0.367384
0.365458
0.36363
0.361896
0.360248
0.358681
0.35719
0.355771
0.354418
0.35313
0.351901
0.35073
0.349613
0.348545
0.347526
0.373826
0.371557
0.369407
0.367369
0.365437
0.363603
0.361863
0.360208
0.358636
0.357139
0.355715
0.354359
0.353067
0.351836
0.350663
0.349544
0.348475
0.347457
0.373826
0.371554
0.3694
0.367359
0.365422
0.363584
0.361837
0.360179
0.3586
0.3571
0.35567
0.35431
0.353013
0.351778
0.3506
0.349477
0.348403
0.347382
0.373826
0.371552
0.369396
0.367351
0.365411
0.363569
0.361819
0.360156
0.358575
0.35707
0.355637
0.354272
0.352972
0.351732
0.35055
0.349423
0.348347
0.34732
0.373825
0.371551
0.369393
0.367346
0.365403
0.363559
0.361806
0.36014
0.358556
0.357048
0.355612
0.354245
0.352941
0.351699
0.350514
0.349384
0.348305
0.347275
0.373825
0.371549
0.36939
0.367343
0.365398
0.363553
0.361798
0.360131
0.358544
0.357035
0.355597
0.354227
0.352922
0.351677
0.35049
0.349358
0.348277
0.347246
0.373826
0.371548
0.36939
0.36734
0.365398
0.363549
0.361796
0.360126
0.358541
0.357029
0.355591
0.35422
0.352914
0.351668
0.350481
0.349347
0.348266
0.347233
0.373825
0.371549
0.36939
0.367343
0.365398
0.363553
0.361797
0.360131
0.358542
0.357033
0.355593
0.354224
0.352917
0.351672
0.350483
0.349351
0.348268
0.347236
0.373825
0.37155
0.369393
0.367346
0.365403
0.363558
0.361805
0.360137
0.358552
0.357042
0.355606
0.354235
0.352931
0.351685
0.350499
0.349366
0.348285
0.347253
0.373826
0.371553
0.369397
0.367351
0.365411
0.363568
0.361816
0.360151
0.358568
0.35706
0.355624
0.354256
0.352953
0.35171
0.350525
0.349394
0.348315
0.347285
0.373827
0.371556
0.369402
0.36736
0.365422
0.363582
0.361834
0.360173
0.358591
0.357085
0.355651
0.354286
0.352984
0.351745
0.350561
0.349434
0.348357
0.34733
0.373828
0.371561
0.369409
0.367372
0.36544
0.363607
0.361864
0.360204
0.35862
0.357111
0.355673
0.354306
0.353005
0.351766
0.350585
0.349459
0.348382
0.347353
0.37383
0.371568
0.369418
0.367395
0.36548
0.363663
0.361922
0.360246
0.358634
0.357096
0.355631
0.354244
0.352924
0.351674
0.35048
0.349344
0.348245
0.347199
0.373839
0.371574
0.369434
0.367474
0.365616
0.363835
0.362071
0.360317
0.3586
0.356955
0.355392
0.353926
0.352537
0.351239
0.349989
0.348808
0.34764
0.346525
0.373873
0.371593
0.369563
0.367847
0.366163
0.364463
0.362592
0.360625
0.358615
0.356712
0.35489
0.353223
0.35162
0.350165
0.348738
0.347403
0.346041
0.344739
0.374032
0.371898
0.3705
0.369596
0.368401
0.366928
0.364871
0.362417
0.359759
0.357238
0.35475
0.352492
0.350225
0.348349
0.346533
0.344958
0.343334
0.34173
0.374891
0.374672
0.376166
0.378568
0.37927
0.379035
0.377615
0.374473
0.370917
0.36749
0.363969
0.360555
0.356744
0.353748
0.352335
0.353087
0.351655
0.351195
0.384379
0.398012
0.429305
0.454697
0.475593
0.490069
0.500842
0.508958
0.516645
0.52423
0.532915
0.542164
0.552972
0.563991
0.576598
0.589054
0.603063
0.614681
0.762792
1.09647
1.34147
1.48132
1.55296
1.56883
1.56223
1.54525
1.51518
1.48208
1.44883
1.41687
1.3871
1.35984
1.33517
1.31298
1.29308
1.27549
1.82838e-08
4.49315e-07
2.29555e-06
9.07157e-06
3.03904e-05
9.29497e-05
0.000242291
0.000481245
0.000778766
0.0010913
0.00137119
0.0015875
0.00173162
0.00178381
0.00176074
0.00168735
0.00155166
0.00132302
0.00112835
0.000960543
0.000800641
0.000645176
0.000494435
0.000354602
0.000230331
0.000134494
7.1293e-05
3.59627e-05
1.83931e-05
1.00853e-05
6.17399e-06
4.73634e-06
5.62289e-06
1.18828e-05
2.65992e-05
0.000158457
0.000358752
0.000777509
0.00115302
0.00123192
0.00113268
0.000900317
0.000752376
0.000733198
0.000796315
0.00106485
0.00142681
0.00288445
0.00672686
0.0217943
0.0583485
0.104044
0.135433
0.148704
0.153725
0.150872
0.154226
0.148123
0.150542
0.137887
0.145625
0.153793
0.160641
0.172978
0.181411
0.190888
0.19879
0.207422
0.215285
0.223408
0.231125
0.238922
0.246482
0.254042
0.261449
0.268819
0.276077
0.283281
0.290388
0.297435
0.304386
0.311275
0.318063
0.324785
0.331399
0.337936
0.344357
0.350688
0.356894
0.362994
0.368963
0.374797
0.38048
0.38601
0.391369
0.396556
0.401561
0.406389
0.411063
0.415628
0.420108
0.424411
0.428589
0.432617
0.436508
0.440247
0.443844
0.447281
0.450574
0.4537
0.456679
0.459487
0.462142
0.464625
0.46695
0.469102
0.471091
0.472907
0.474556
0.476032
0.477337
0.47847
0.479426
0.480212
0.480812
0.481236
0.481458
0.481478
0.481343
0.48121
0.480938
0.480462
0.479748
0.478957
0.478027
0.477025
0.475828
0.474308
0.47268
0.470875
0.468926
0.466836
0.464606
0.462257
0.459788
0.457227
0.454536
0.451793
0.448874
0.445947
0.442834
0.439741
0.436457
0.433229
0.429808
0.426433
0.422972
0.419501
0.416004
0.412497
0.408997
0.405503
0.402029
0.39857
0.395142
0.39174
0.388385
0.385073
0.381824
0.37863
0.375504
0.37243
0.369409
0.366396
0.363356
0.360191
0.356792
0.352825
0.347676
0.3316
7.80946e-08
2.18902e-06
1.49165e-05
6.54927e-05
0.000243453
0.000743212
0.00172729
0.00313926
0.0047749
0.0064527
0.00798187
0.00923669
0.0101567
0.0107434
0.0110124
0.0109726
0.0107879
0.0104361
0.00983317
0.00901226
0.00797443
0.00677528
0.0054659
0.00414374
0.00287085
0.00189767
0.00120255
0.000743016
0.000451074
0.000276419
0.000178175
0.000132931
0.000109374
0.000180933
0.000254633
0.00166317
0.00367049
0.00737931
0.0105104
0.012116
0.012023
0.0115245
0.0114622
0.0127397
0.0164483
0.0220673
0.0323169
0.0499071
0.0766534
0.102654
0.129415
0.150894
0.167548
0.179383
0.190974
0.205243
0.221731
0.23789
0.256082
0.273966
0.293609
0.313592
0.332817
0.353189
0.372122
0.391336
0.409956
0.428516
0.446746
0.464859
0.48277
0.500573
0.518246
0.53583
0.553323
0.570744
0.588092
0.605374
0.622585
0.639732
0.656802
0.673801
0.690711
0.707537
0.724258
0.740876
0.757368
0.773733
0.789949
0.80601
0.821897
0.837583
0.853051
0.868282
0.88325
0.897933
0.912297
0.92631
0.939931
0.953132
0.965967
0.978592
0.990923
1.003
1.01479
1.02629
1.03749
1.04839
1.05897
1.06922
1.07915
1.08873
1.09796
1.10684
1.11535
1.1235
1.13126
1.13865
1.14565
1.15226
1.15847
1.16427
1.16967
1.17465
1.17921
1.18335
1.18706
1.19034
1.1932
1.19564
1.19767
1.19927
1.20024
1.20114
1.20142
1.20162
1.20165
1.20128
1.20056
1.1994
1.19783
1.19586
1.1935
1.19076
1.18765
1.1842
1.18042
1.17626
1.17181
1.16698
1.1619
1.15644
1.15075
1.14472
1.13848
1.13197
1.12526
1.11837
1.1113
1.1041
1.09679
1.08938
1.08189
1.07433
1.06671
1.05904
1.05134
1.04363
1.03594
1.02827
1.02062
1.013
1.00539
0.997734
0.989967
0.981966
0.973519
0.964298
0.952376
0.92527
2.16215e-07
6.4897e-06
4.971e-05
0.000240493
0.000706957
0.00202754
0.00410201
0.00651231
0.00892752
0.011115
0.0129395
0.0143411
0.0153209
0.0159045
0.0161493
0.0161093
0.0159177
0.0155435
0.0149957
0.0143155
0.0134953
0.0125312
0.0114012
0.0101166
0.00867726
0.00705003
0.00537562
0.00388529
0.00259779
0.00172729
0.00118919
0.000901178
0.000673461
0.00105082
0.00181539
0.00708773
0.0150924
0.0235169
0.0296071
0.0330115
0.0342336
0.0366876
0.0441999
0.0599265
0.0773326
0.0956173
0.116422
0.138069
0.158361
0.180112
0.201394
0.22281
0.244755
0.269488
0.296886
0.324635
0.353016
0.382503
0.411433
0.439975
0.468278
0.495965
0.523196
0.549749
0.575639
0.601055
0.625972
0.650527
0.674741
0.698692
0.72241
0.745941
0.76931
0.792543
0.815652
0.838651
0.861545
0.884337
0.907028
0.929614
0.952091
0.974453
0.996691
1.0188
1.04076
1.06256
1.0842
1.10565
1.12691
1.14795
1.16878
1.18936
1.20967
1.22971
1.24945
1.2689
1.28804
1.30686
1.32536
1.34354
1.3614
1.37892
1.39606
1.41284
1.42922
1.4452
1.46076
1.47589
1.49058
1.50481
1.51858
1.53188
1.54469
1.557
1.56882
1.58012
1.59091
1.60117
1.6109
1.62009
1.62873
1.63682
1.64435
1.65132
1.65772
1.66355
1.66881
1.67349
1.6776
1.68113
1.68409
1.68647
1.68828
1.68955
1.69017
1.6904
1.69012
1.68927
1.68787
1.6859
1.68337
1.68029
1.67666
1.6725
1.66784
1.66267
1.65704
1.65089
1.64432
1.63725
1.6298
1.62186
1.61358
1.60484
1.59581
1.58641
1.57673
1.56678
1.5566
1.54622
1.53568
1.52499
1.51418
1.50326
1.49226
1.48118
1.47005
1.45889
1.44774
1.43661
1.42552
1.41447
1.40346
1.39244
1.38138
1.37018
1.35866
1.34658
1.33202
1.3068
7.9725e-07
2.3974e-05
0.000188172
0.000807501
0.00227754
0.00538388
0.00903957
0.0125976
0.0156849
0.0181231
0.0198783
0.0209885
0.021569
0.0216675
0.0215302
0.0211656
0.0205916
0.0199026
0.0191297
0.0182889
0.0173809
0.0164028
0.015336
0.0141613
0.0128598
0.0114112
0.00983605
0.00819669
0.00666071
0.0051505
0.00404734
0.00301552
0.00317729
0.00505747
0.01242
0.0276388
0.0419494
0.0531816
0.0616837
0.0697165
0.079905
0.0932385
0.108744
0.124094
0.140135
0.157614
0.178052
0.19983
0.223621
0.249678
0.277307
0.306838
0.337985
0.370672
0.404225
0.438081
0.472088
0.505952
0.539287
0.572163
0.604473
0.636189
0.667345
0.697884
0.727894
0.757442
0.786588
0.815403
0.843934
0.872234
0.900339
0.928283
0.956091
0.983781
1.01136
1.03885
1.06623
1.09352
1.12071
1.14779
1.17475
1.20159
1.22829
1.25484
1.28123
1.30744
1.33346
1.35927
1.38486
1.41022
1.43533
1.46016
1.48471
1.50895
1.53287
1.55648
1.57974
1.60266
1.62521
1.64738
1.66914
1.69048
1.71137
1.7318
1.75174
1.77118
1.7901
1.80848
1.82632
1.84359
1.86029
1.8764
1.89192
1.90682
1.9211
1.93475
1.94776
1.96012
1.97182
1.98285
1.99322
2.00291
2.01191
2.02022
2.02784
2.03476
2.04098
2.04649
2.0513
2.05541
2.05881
2.06152
2.06354
2.06479
2.0653
2.06529
2.06456
2.06314
2.06103
2.05825
2.05478
2.05064
2.04585
2.04043
2.03437
2.02771
2.02047
2.01263
2.00425
1.9953
1.98586
1.97587
1.96544
1.9545
1.94316
1.93141
1.9193
1.90686
1.89415
1.88118
1.86801
1.85465
1.84114
1.8275
1.81374
1.79989
1.78597
1.77201
1.75805
1.74411
1.73022
1.71639
1.70262
1.68891
1.67524
1.66156
1.64775
1.63364
1.61759
1.59421
2.74277e-06
8.23237e-05
0.000616601
0.0023359
0.0064251
0.0119065
0.0169988
0.0210618
0.0239415
0.0257362
0.0266615
0.0269104
0.0267536
0.026302
0.0255863
0.0247456
0.0238342
0.0228898
0.0219342
0.0209759
0.0200101
0.0190274
0.0180082
0.0169308
0.0157682
0.0144928
0.0131034
0.0116516
0.0102391
0.00877636
0.00741931
0.00789658
0.0121629
0.0252338
0.046087
0.0657182
0.0818253
0.0943074
0.104916
0.115504
0.126899
0.139342
0.152846
0.16844
0.187248
0.208972
0.233602
0.260828
0.290311
0.321697
0.35455
0.388679
0.423733
0.459454
0.495535
0.531762
0.567962
0.60398
0.639702
0.67509
0.710082
0.744668
0.778838
0.812595
0.845983
0.879042
0.911816
0.94435
0.976684
1.00885
1.04089
1.07282
1.10466
1.13642
1.16811
1.19972
1.23126
1.26272
1.29409
1.32536
1.35651
1.38754
1.41842
1.44915
1.47971
1.51007
1.54023
1.57017
1.59986
1.62929
1.65846
1.68732
1.71586
1.74406
1.77192
1.79941
1.82651
1.8532
1.87947
1.90528
1.93061
1.95544
1.97974
2.00349
2.02667
2.04926
2.07124
2.09259
2.11329
2.13332
2.15268
2.17134
2.18929
2.20652
2.22302
2.23877
2.25376
2.26799
2.28145
2.29411
2.30599
2.31707
2.32735
2.33681
2.34546
2.35329
2.36029
2.36647
2.37183
2.37636
2.38007
2.38296
2.38503
2.38617
2.38654
2.38619
2.38501
2.38302
2.38023
2.37666
2.3723
2.36718
2.3613
2.35468
2.34734
2.3393
2.33058
2.32118
2.31115
2.30048
2.28922
2.27737
2.26497
2.25203
2.23861
2.22471
2.2104
2.19572
2.1807
2.16539
2.14983
2.13405
2.11809
2.10197
2.08571
2.06933
2.05287
2.03636
2.01984
2.00334
1.9869
1.97053
1.95427
1.93811
1.92207
1.90614
1.89026
1.87431
1.85693
1.83418
8.75639e-06
0.00025619
0.00182142
0.00644508
0.0144228
0.0214037
0.0263549
0.0293987
0.0309861
0.0315721
0.0314919
0.0310415
0.0301994
0.0291726
0.0280482
0.0268909
0.0257451
0.0246379
0.023581
0.022574
0.0216057
0.0206603
0.0197117
0.0187301
0.0176834
0.0165099
0.0151519
0.0135724
0.0120515
0.0120723
0.014482
0.0235144
0.0424238
0.0668737
0.0897224
0.107991
0.121236
0.130967
0.13956
0.148742
0.159405
0.173051
0.190076
0.210396
0.234237
0.261127
0.290538
0.321899
0.354749
0.388785
0.423745
0.459453
0.495741
0.53248
0.569551
0.606854
0.644287
0.681759
0.719193
0.756523
0.793699
0.830693
0.867488
0.904077
0.940475
0.976701
1.01278
1.04874
1.0846
1.1204
1.15615
1.19187
1.22756
1.26323
1.29888
1.3345
1.37008
1.40561
1.44107
1.47645
1.51172
1.54687
1.58188
1.61673
1.6514
1.68587
1.72012
1.75412
1.78787
1.82134
1.85451
1.88735
1.91983
1.95194
1.98366
2.01496
2.04582
2.07621
2.10611
2.13548
2.1643
2.19254
2.22017
2.24718
2.27353
2.29919
2.32416
2.3484
2.37189
2.39461
2.41655
2.43769
2.45801
2.4775
2.49614
2.51393
2.53084
2.54687
2.56201
2.57624
2.58956
2.60197
2.61345
2.624
2.63361
2.64228
2.65001
2.6568
2.66264
2.66754
2.6715
2.67453
2.67659
2.67759
2.67779
2.67708
2.67544
2.67288
2.66942
2.66507
2.65984
2.65375
2.6468
2.63902
2.63043
2.62105
2.6109
2.6
2.58838
2.57604
2.56304
2.54939
2.53511
2.52024
2.50481
2.48886
2.47244
2.45559
2.43837
2.42081
2.40295
2.38485
2.36653
2.34802
2.32935
2.31055
2.29164
2.27267
2.25369
2.23472
2.21582
2.19701
2.17833
2.15981
2.14147
2.12335
2.10542
2.08761
2.06875
2.04569
2.8178e-05
0.000770682
0.00495097
0.0150592
0.0245911
0.0306643
0.0339989
0.0355632
0.035998
0.0357473
0.0349906
0.0338411
0.0324921
0.0310501
0.0295974
0.0281926
0.0268725
0.0256546
0.0245404
0.0235189
0.0225705
0.0216669
0.0207729
0.0198421
0.018919
0.0180861
0.0175361
0.0177581
0.0199701
0.0263988
0.0401413
0.062345
0.0868383
0.109445
0.127301
0.139624
0.148119
0.155326
0.163299
0.174263
0.188812
0.207034
0.228952
0.254199
0.282326
0.312603
0.344454
0.377475
0.411424
0.446155
0.481563
0.517581
0.554158
0.591249
0.62881
0.666789
0.705118
0.743721
0.782534
0.821496
0.860553
0.899665
0.938803
0.977948
1.01709
1.05625
1.09541
1.1346
1.17383
1.21312
1.25246
1.29187
1.33135
1.37088
1.41046
1.45008
1.4897
1.52931
1.56889
1.6084
1.64782
1.68713
1.72631
1.76532
1.80415
1.84277
1.88115
1.91928
1.95712
1.99466
2.03188
2.06873
2.10519
2.14124
2.17685
2.21199
2.24663
2.28074
2.31429
2.34725
2.37958
2.41126
2.44225
2.47253
2.50206
2.53082
2.55879
2.58593
2.61221
2.63763
2.66216
2.68578
2.70846
2.73021
2.75099
2.7708
2.78961
2.80743
2.82423
2.84
2.85475
2.86845
2.88111
2.89272
2.90327
2.91276
2.92118
2.92854
2.93484
2.94007
2.94425
2.94737
2.94939
2.95026
2.95022
2.94914
2.94703
2.94389
2.93974
2.9346
2.92849
2.92141
2.91339
2.90445
2.89461
2.88389
2.87232
2.85991
2.8467
2.83272
2.81798
2.80254
2.7864
2.76961
2.7522
2.73422
2.71571
2.69673
2.67732
2.65754
2.63743
2.61702
2.59638
2.57551
2.55446
2.53325
2.51193
2.49053
2.4691
2.4477
2.42636
2.40513
2.38405
2.36317
2.34253
2.32219
2.30216
2.28238
2.26183
2.23779
8.49586e-05
0.00212653
0.011738
0.0253076
0.0335984
0.0379616
0.0399967
0.04058
0.0402609
0.0392862
0.0378313
0.0361242
0.0343054
0.0324845
0.0307435
0.0291359
0.0276893
0.0264088
0.0252839
0.0242937
0.0234095
0.0225958
0.0217726
0.0209974
0.0204782
0.0206568
0.0226113
0.0281226
0.0398124
0.0582861
0.0805201
0.102786
0.123025
0.139131
0.150398
0.158186
0.165113
0.173748
0.185498
0.200993
0.220291
0.243106
0.26901
0.297379
0.327583
0.359062
0.391485
0.424683
0.458579
0.493144
0.528366
0.564246
0.600789
0.637995
0.675845
0.714301
0.753318
0.792843
0.832818
0.873187
0.913895
0.954898
0.996157
1.03765
1.07935
1.12125
1.16334
1.20564
1.24813
1.29083
1.33372
1.3768
1.42006
1.46347
1.50703
1.55069
1.59442
1.63819
1.68196
1.7257
1.76936
1.81293
1.85636
1.89963
1.94271
1.98557
2.02818
2.0705
2.11253
2.15422
2.19555
2.23649
2.277
2.31705
2.35661
2.39565
2.43413
2.47202
2.50929
2.54589
2.58179
2.61695
2.65135
2.68494
2.7177
2.74959
2.78058
2.81065
2.83976
2.86789
2.89501
2.92111
2.94617
2.97016
2.99307
3.01489
3.0356
3.05518
3.07363
3.09092
3.10706
3.12204
3.13585
3.14849
3.15994
3.1702
3.17928
3.18718
3.19388
3.1994
3.20375
3.20693
3.20886
3.20959
3.20926
3.20778
3.20515
3.20139
3.19653
3.19057
3.18354
3.17545
3.16634
3.1562
3.14509
3.13301
3.11999
3.10607
3.09127
3.07561
3.05914
3.04189
3.02389
3.00517
2.98577
2.96575
2.94516
2.92405
2.90247
2.88047
2.8581
2.83541
2.81244
2.78922
2.7658
2.74219
2.71845
2.69463
2.67077
2.64692
2.62315
2.59949
2.57601
2.55276
2.52979
2.50718
2.48496
2.46309
2.44063
2.41513
0.000221418
0.00503097
0.0213771
0.0344757
0.0411789
0.0443238
0.0454333
0.0452557
0.0442328
0.0425596
0.040521
0.0383013
0.0360542
0.0339003
0.0319265
0.0301852
0.0287028
0.0274849
0.0265254
0.0258042
0.025347
0.0252462
0.0255928
0.0268239
0.029342
0.0340818
0.0428584
0.0568519
0.0743554
0.0937139
0.113003
0.130256
0.144288
0.154904
0.163186
0.171173
0.180913
0.193709
0.210102
0.230049
0.253194
0.279024
0.306974
0.336475
0.367066
0.398456
0.430522
0.463232
0.496603
0.530666
0.565462
0.601029
0.6374
0.674585
0.712581
0.751374
0.790935
0.831224
0.872195
0.913798
0.955982
0.998703
1.04192
1.0856
1.12972
1.17425
1.21919
1.26452
1.31024
1.35632
1.40276
1.44954
1.49663
1.544
1.5916
1.63941
1.68735
1.7354
1.78349
1.83157
1.8796
1.92754
1.97535
2.02299
2.07043
2.11763
2.16456
2.21118
2.25747
2.3034
2.34894
2.39404
2.43866
2.48278
2.52635
2.56935
2.61172
2.65345
2.69447
2.73476
2.77426
2.81294
2.85077
2.88769
2.92368
2.95871
2.99273
3.02572
3.05764
3.08846
3.11817
3.14672
3.17412
3.20033
3.22534
3.24913
3.27168
3.29299
3.31303
3.33179
3.34928
3.36548
3.38038
3.39398
3.40627
3.41725
3.42692
3.43528
3.44233
3.44807
3.45252
3.45568
3.45747
3.458
3.45731
3.45536
3.45216
3.44773
3.44209
3.43527
3.42727
3.41813
3.40786
3.3965
3.38407
3.3706
3.35611
3.34064
3.32422
3.30688
3.28865
3.26958
3.24969
3.22903
3.20764
3.18557
3.16289
3.13965
3.1159
3.09169
3.06708
3.0421
3.01682
2.99126
2.96546
2.93946
2.91331
2.88707
2.86078
2.8345
2.80829
2.78221
2.75631
2.73066
2.70533
2.6804
2.65591
2.63186
2.60735
2.5801
0.000493535
0.0101593
0.0310679
0.0427008
0.0481654
0.0504444
0.0508394
0.0500102
0.0483079
0.0460473
0.0434743
0.0407997
0.0382006
0.0358137
0.0337355
0.032022
0.0307054
0.0297575
0.0292535
0.0290942
0.0294289
0.0306059
0.03324
0.0381339
0.0460159
0.0571809
0.0710809
0.0866138
0.103013
0.11905
0.133568
0.145918
0.156214
0.16528
0.174585
0.185632
0.199492
0.216564
0.236765
0.25973
0.284989
0.312049
0.340452
0.36982
0.399908
0.430607
0.461908
0.493852
0.526501
0.559924
0.59419
0.629353
0.665452
0.702518
0.740567
0.779596
0.819595
0.860535
0.902385
0.945103
0.988648
1.03298
1.07805
1.12384
1.17031
1.21743
1.26519
1.31355
1.3625
1.41202
1.46207
1.51263
1.56364
1.61507
1.66685
1.71892
1.77121
1.82366
1.8762
1.92877
1.98129
2.03373
2.08604
2.13816
2.19006
2.24171
2.29305
2.34405
2.39469
2.44491
2.49471
2.54402
2.59281
2.64103
2.68865
2.73563
2.78192
2.82748
2.87227
2.91624
2.95933
3.00152
3.04274
3.08296
3.12215
3.16026
3.19726
3.23311
3.26778
3.30123
3.33344
3.36438
3.39404
3.42238
3.44939
3.47506
3.49936
3.52229
3.54382
3.56396
3.58269
3.6
3.61589
3.63035
3.64338
3.65498
3.66513
3.67386
3.68115
3.68701
3.69146
3.6945
3.69608
3.69631
3.69517
3.69266
3.6888
3.68362
3.67713
3.66936
3.66033
3.65007
3.6386
3.62595
3.61215
3.59724
3.58125
3.5642
3.54613
3.52707
3.50706
3.48614
3.46435
3.44173
3.41833
3.39422
3.36945
3.34408
3.31817
3.29177
3.26492
3.23767
3.21009
3.18219
3.15403
3.12565
3.0971
3.06845
3.03975
3.01104
2.98241
2.95391
2.92559
2.89754
2.86982
2.84254
2.81573
2.78942
2.76277
2.73383
0.00093778
0.017443
0.0395056
0.0501749
0.0549572
0.0566669
0.0565359
0.0551446
0.052911
0.0501631
0.0471821
0.0442105
0.0414528
0.0390661
0.0371692
0.0358258
0.0351708
0.0350654
0.0356662
0.037231
0.0400767
0.0445696
0.0509896
0.0595084
0.0700336
0.0822521
0.0955655
0.109198
0.122465
0.134808
0.145986
0.15616
0.166007
0.17656
0.188846
0.20358
0.22104
0.241128
0.263529
0.287852
0.313702
0.340724
0.368628
0.397212
0.426377
0.456115
0.486474
0.517533
0.549382
0.582109
0.615789
0.65049
0.686269
0.723168
0.761217
0.800433
0.840816
0.882356
0.925035
0.968825
1.01369
1.05961
1.10653
1.15443
1.20327
1.25302
1.30364
1.35511
1.4074
1.46046
1.51425
1.56871
1.62379
1.67942
1.73551
1.79198
1.84876
1.90576
1.96289
2.02006
2.0772
2.13425
2.19115
2.24785
2.30431
2.36047
2.41629
2.47173
2.52673
2.58129
2.63536
2.68889
2.74183
2.79415
2.84578
2.8967
2.94686
2.9962
3.04468
3.09225
3.13885
3.18443
3.22895
3.27236
3.31462
3.35569
3.39553
3.43411
3.47137
3.5073
3.54186
3.57502
3.60676
3.63707
3.66592
3.69329
3.71917
3.74355
3.76641
3.78774
3.80754
3.8258
3.84252
3.85768
3.87129
3.88334
3.89383
3.90276
3.91014
3.91598
3.92029
3.92307
3.92432
3.9241
3.92239
3.91921
3.91459
3.90854
3.90111
3.8923
3.88216
3.87069
3.85794
3.84394
3.82872
3.81232
3.79477
3.7761
3.75635
3.73556
3.71375
3.69097
3.66727
3.64268
3.61728
3.59113
3.56429
3.53682
3.50877
3.4802
3.45115
3.42168
3.39182
3.36162
3.33113
3.3004
3.26949
3.23847
3.20739
3.1763
3.14528
3.11437
3.08366
3.05321
3.02311
2.99345
2.9643
2.93569
2.90685
2.87605
0.00149714
0.0248788
0.0475907
0.0577701
0.0620777
0.0633465
0.0627977
0.060975
0.058348
0.0553
0.0521588
0.049199
0.0466533
0.0447083
0.0435877
0.0432402
0.0436742
0.0450791
0.0475809
0.0513346
0.0564749
0.0630743
0.0711104
0.0804565
0.0908634
0.101948
0.113276
0.124469
0.135316
0.145765
0.156024
0.166612
0.178215
0.19146
0.206774
0.22431
0.24397
0.265513
0.288637
0.313048
0.338483
0.364732
0.391643
0.419133
0.447191
0.475859
0.505218
0.535368
0.566408
0.598433
0.631533
0.665787
0.701263
0.738018
0.776095
0.815526
0.856328
0.89851
0.942069
0.986995
1.03327
1.08085
1.12973
1.17986
1.2312
1.28372
1.33737
1.39211
1.44791
1.50469
1.56241
1.62099
1.68032
1.74033
1.8009
1.86194
1.92335
1.98501
2.04683
2.10871
2.17055
2.23229
2.29385
2.35518
2.41622
2.47692
2.53721
2.59706
2.6564
2.71522
2.7735
2.83117
2.88818
2.94448
3.00001
3.05474
3.1086
3.16157
3.21357
3.26455
3.31446
3.36323
3.41083
3.45719
3.50228
3.54606
3.58849
3.62953
3.66913
3.70727
3.74391
3.77902
3.81259
3.84459
3.875
3.9038
3.93098
3.95654
3.98046
4.00273
4.02335
4.04231
4.0596
4.07523
4.08918
4.10146
4.11206
4.12098
4.12824
4.13386
4.13783
4.14018
4.14091
4.14009
4.13765
4.13364
4.12811
4.12108
4.11257
4.10262
4.09125
4.0785
4.06439
4.04896
4.03226
4.01431
3.99515
3.97484
3.95339
3.93085
3.90724
3.88261
3.85699
3.83046
3.80308
3.77492
3.74605
3.71653
3.6864
3.65572
3.62454
3.59289
3.56082
3.52837
3.49561
3.4626
3.42941
3.39609
3.3627
3.3293
3.29594
3.2627
3.22963
3.19682
3.16437
3.13238
3.10089
3.06999
3.03894
3.00624
0.00222641
0.0315579
0.0550836
0.0653149
0.0694709
0.0705144
0.0696768
0.0675406
0.0646829
0.0615784
0.0586093
0.0560685
0.0541636
0.0532114
0.05302
0.0537713
0.0555571
0.0584029
0.0623423
0.0673861
0.0735178
0.0806656
0.0887087
0.0974777
0.106775
0.116409
0.126235
0.136178
0.14629
0.156782
0.168009
0.180378
0.194231
0.209786
0.227097
0.246077
0.266549
0.2883
0.311122
0.334837
0.359301
0.384415
0.410123
0.436417
0.463334
0.490951
0.519362
0.548671
0.578987
0.610413
0.643045
0.676976
0.712286
0.749045
0.787309
0.82712
0.868516
0.911523
0.956157
1.00242
1.0503
1.09979
1.15087
1.20349
1.25762
1.31322
1.37022
1.42857
1.4882
1.54903
1.61099
1.67395
1.73779
1.80238
1.86758
1.93329
1.9994
2.06578
2.13231
2.19889
2.26542
2.33181
2.398
2.46391
2.52948
2.59462
2.65928
2.72339
2.78692
2.84985
2.91214
2.97375
3.03461
3.09466
3.15384
3.21211
3.2694
3.32567
3.38087
3.43494
3.4878
3.53941
3.58971
3.63864
3.68618
3.73227
3.77689
3.81998
3.86151
3.90145
3.93976
3.97641
4.0114
4.04468
4.07625
4.10608
4.13418
4.16054
4.18515
4.20799
4.22906
4.24837
4.2659
4.28165
4.29562
4.30782
4.31824
4.32686
4.33373
4.33885
4.34224
4.34392
4.34391
4.34228
4.33888
4.33387
4.32725
4.31908
4.30935
4.29812
4.28541
4.27126
4.2557
4.23878
4.22052
4.20097
4.18018
4.15819
4.13503
4.11075
4.08537
4.05889
4.0314
4.00296
3.97367
3.94358
3.91275
3.88125
3.84913
3.81644
3.78321
3.7495
3.71531
3.68072
3.6458
3.61062
3.57524
3.53974
3.50415
3.46854
3.43296
3.39747
3.36214
3.32707
3.29234
3.25807
3.22432
3.19117
3.15794
3.12339
0.00309622
0.0377653
0.0627045
0.0731221
0.0771814
0.078055
0.0769859
0.0746054
0.0716036
0.0686251
0.0661323
0.0643638
0.063498
0.063331
0.0641068
0.0659103
0.0686737
0.0723594
0.0769383
0.0823663
0.0885827
0.0955061
0.103053
0.111146
0.119727
0.128756
0.138247
0.148293
0.159052
0.170728
0.183529
0.197622
0.213082
0.229909
0.248022
0.267301
0.2876
0.308791
0.330757
0.353415
0.37671
0.400621
0.425157
0.450358
0.476292
0.50305
0.530739
0.559463
0.589325
0.620433
0.652893
0.686803
0.722257
0.759335
0.798112
0.838651
0.88101
0.925236
0.971362
1.01941
1.06938
1.12127
1.17505
1.2307
1.28817
1.34739
1.40829
1.47078
1.53474
1.60007
1.66663
1.73429
1.80285
1.87216
1.94205
2.01237
2.08306
2.15399
2.22506
2.29616
2.36717
2.43802
2.50863
2.57891
2.64878
2.71812
2.78684
2.85492
2.92231
2.989
3.05496
3.12013
3.18444
3.24782
3.31021
3.37155
3.43179
3.49088
3.54876
3.60537
3.66064
3.71452
3.76695
3.81788
3.86727
3.91509
3.9613
4.00585
4.04872
4.08987
4.12926
4.16687
4.2027
4.23672
4.2689
4.29925
4.32775
4.35441
4.3792
4.40212
4.42317
4.44235
4.45965
4.47508
4.48864
4.50034
4.51016
4.51812
4.52424
4.52854
4.53103
4.53175
4.53077
4.528
4.52343
4.51718
4.50929
4.49977
4.48867
4.47601
4.46183
4.44617
4.42907
4.41057
4.3907
4.36951
4.34706
4.32338
4.29852
4.27252
4.24541
4.21715
4.18785
4.15761
4.1265
4.09458
4.06191
4.02855
3.99456
3.95998
3.92486
3.88923
3.85307
3.81648
3.77955
3.74235
3.70496
3.66743
3.62981
3.59215
3.5545
3.5169
3.47944
3.44223
3.40537
3.36894
3.33302
3.29773
3.26242
3.22614
0.00400979
0.0439309
0.0700939
0.0808299
0.0848748
0.0856168
0.0842007
0.0815201
0.0785658
0.0760268
0.074275
0.0734491
0.0732722
0.0738735
0.075444
0.0779076
0.0811979
0.0852583
0.09005
0.0955329
0.101677
0.108455
0.115853
0.123864
0.132507
0.141831
0.151913
0.162842
0.174722
0.187644
0.201652
0.216761
0.232934
0.250107
0.268193
0.287111
0.30678
0.327148
0.348174
0.36985
0.392178
0.415188
0.438929
0.463477
0.488888
0.515264
0.542715
0.571351
0.601284
0.632628
0.665494
0.699994
0.736232
0.774305
0.814304
0.85631
0.9004
0.946642
0.99509
1.04577
1.0987
1.15386
1.21122
1.27075
1.33238
1.39602
1.46157
1.52886
1.59773
1.66799
1.73943
1.81189
1.88518
1.95909
2.03342
2.10796
2.18273
2.25767
2.33274
2.40785
2.48285
2.55765
2.63218
2.70634
2.77998
2.85299
2.92527
2.9968
3.06753
3.13743
3.20648
3.27461
3.34175
3.40782
3.47275
3.53649
3.59897
3.66015
3.71997
3.77838
3.8353
3.89068
3.94446
3.9966
4.04705
4.09579
4.14279
4.18802
4.23143
4.27301
4.3127
4.35051
4.38641
4.42042
4.45251
4.48268
4.51091
4.5372
4.56152
4.58389
4.60429
4.62273
4.63922
4.65376
4.66636
4.67702
4.68575
4.69258
4.6975
4.70056
4.70178
4.70122
4.69886
4.69459
4.68856
4.68081
4.67139
4.66031
4.64761
4.63334
4.61753
4.60023
4.58146
4.56127
4.53971
4.51683
4.49266
4.46726
4.44068
4.41297
4.38416
4.35422
4.32326
4.29136
4.25859
4.225
4.19065
4.1556
4.11991
4.08362
4.04678
4.00943
3.97149
3.93311
3.8944
3.85541
3.81622
3.77687
3.73742
3.69792
3.6584
3.61889
3.57951
3.54036
3.50154
3.46314
3.42523
3.38795
3.3507
3.31287
0.00496415
0.0500485
0.0773099
0.0882746
0.0922634
0.0928342
0.0910266
0.0882185
0.0855654
0.0836412
0.0826913
0.082426
0.0828172
0.0840431
0.0861286
0.089007
0.0926245
0.0969387
0.101934
0.107601
0.113945
0.120974
0.128716
0.137205
0.146486
0.156607
0.167615
0.179545
0.192408
0.206192
0.220885
0.236453
0.252831
0.269965
0.287807
0.30633
0.325514
0.345368
0.365897
0.387134
0.409126
0.431957
0.455742
0.480493
0.506217
0.53308
0.561253
0.59082
0.621893
0.654584
0.689012
0.725296
0.763549
0.803876
0.846376
0.89114
0.938256
0.987795
1.03983
1.09439
1.15145
1.21096
1.27287
1.33711
1.40361
1.47226
1.54292
1.61538
1.6894
1.76465
1.84075
1.91761
1.9951
2.07304
2.15119
2.22934
2.30766
2.38605
2.46446
2.54272
2.62074
2.69854
2.77613
2.85324
2.92973
3.00551
3.0805
3.15461
3.22775
3.29992
3.37108
3.44118
3.51013
3.57785
3.64427
3.70932
3.77296
3.83513
3.89579
3.95489
4.01235
4.06812
4.12214
4.17436
4.22477
4.27334
4.32005
4.36488
4.40779
4.44874
4.48771
4.5247
4.55971
4.59273
4.62377
4.65281
4.67986
4.7049
4.72792
4.74894
4.76795
4.78496
4.79998
4.81301
4.82407
4.83316
4.84029
4.84547
4.84872
4.85009
4.84967
4.84746
4.84324
4.83723
4.82946
4.81996
4.80878
4.79595
4.78152
4.76551
4.74797
4.72894
4.70847
4.68659
4.66335
4.63879
4.61297
4.58592
4.55772
4.52839
4.49798
4.46657
4.43418
4.40084
4.36662
4.33158
4.29578
4.25926
4.22208
4.1843
4.14597
4.10712
4.0677
4.02784
3.98763
3.94713
3.90641
3.86551
3.8245
3.78343