/*--------------------------------*- C++ -*----------------------------------*\
  =========                 |
  \\      /  F ield         | OpenFOAM: The Open Source CFD Toolbox
   \\    /   O peration     | Website:  https://openfoam.org
    \\  /    A nd           | Version:  8
     \\/     M anipulation  |
\*---------------------------------------------------------------------------*/
FoamFile
{
    version     2.0;
    format      ascii;
    class       volScalarField;
    location    "800";
    object      omega;
}
// * * * * * * * * * * * * * * * * * * * * * * * * * * * * * * * * * * * * * //

dimensions      [0 0 -1 0 0 0 0];

internalField   nonuniform List<scalar> 
12225
(
32582.3
32582.3
32582.3
32582.3
32582.3
32582.3
32582.3
45305.6
48086.8
43733.1
32582.3
32582.3
38386.3
32582.3
32582.3
32582.3
32582.3
32582.3
3561.09
9510.09
10777.1
13159.4
12189.2
12462.1
13700.7
16472.3
18197.4
17854.1
17582.8
17452.1
16013.8
15875.8
18296.4
16132.3
16021
15941.4
939.301
2132.65
2816.2
3170.93
3791.83
4413.61
4921.4
5512.85
6007.92
6279.51
6567.99
6712.17
6962.19
7090.19
7303.11
7525.41
7644.78
7778.2
570.334
845.738
1075.4
1138.04
1201.87
1368.96
1530.57
1717.7
1868.31
2012.18
2116.87
2230.86
2308.64
2413.64
2471.03
2574.61
2620.93
2722.45
473.405
541.521
578.628
672.663
654.702
687.674
734.62
798.101
848.72
906.711
947.066
997.721
1029.92
1077.24
1103.13
1147.49
1168.13
1210.85
446.543
459.685
465.057
503.471
499.418
503.977
518.218
542.041
561.122
584.828
601.434
623.377
637.773
658.981
671.396
691.788
701.695
721.323
439.838
440.933
443.208
447.69
446.979
447.636
450.954
459.154
465.821
474.785
480.933
489.612
495.401
504.28
509.761
518.713
523.408
532.184
438.749
437.492
436.196
435.356
434.106
434.688
434.38
436.126
438.202
441.398
443.553
446.876
449.025
452.718
455.011
459.007
461.172
465.355
438.956
436.856
434.964
433.139
431.35
430.054
428.89
428.549
428.367
428.643
429.078
429.671
430.066
430.987
431.595
432.814
433.593
435.133
438.997
436.801
434.709
432.753
430.828
429.127
427.514
426.229
425.062
424.131
423.274
422.636
421.95
421.538
421.067
420.864
420.621
420.675
438.996
436.793
434.674
432.693
430.773
428.997
427.282
425.73
424.236
422.892
421.588
420.435
419.296
418.318
417.336
416.53
415.68
415.037
438.999
436.784
434.667
432.675
430.764
428.969
427.246
425.632
424.078
422.626
421.225
419.919
418.658
417.489
416.356
415.314
414.298
413.369
439
436.778
434.663
432.662
430.756
428.95
427.228
425.596
424.038
422.559
421.147
419.806
418.524
417.308
416.145
415.042
413.985
412.984
439.001
436.775
434.66
432.654
430.747
428.936
427.212
425.574
424.013
422.529
421.113
419.765
418.478
417.253
416.083
414.968
413.901
412.886
439.001
436.773
434.658
432.649
430.74
428.926
427.2
425.559
423.996
422.508
421.089
419.738
418.449
417.22
416.048
414.928
413.86
412.839
439
436.772
434.655
432.645
430.734
428.918
427.191
425.547
423.982
422.492
421.072
419.718
418.427
417.196
416.021
414.899
413.829
412.806
439
436.77
434.651
432.639
430.727
428.909
427.179
425.534
423.967
422.475
421.053
419.698
418.406
417.173
415.996
414.873
413.801
412.777
439.001
436.768
434.651
432.637
430.727
428.906
427.179
425.531
423.965
422.471
421.05
419.693
418.401
417.166
415.99
414.865
413.793
412.767
439
436.772
434.653
432.643
430.73
428.914
427.184
425.54
423.972
422.481
421.058
419.703
418.409
417.177
415.999
414.876
413.803
412.779
439.001
436.772
434.656
432.645
430.735
428.917
427.191
425.545
423.981
422.488
421.068
419.712
418.421
417.188
416.013
414.889
413.818
412.794
439.002
436.773
434.659
432.648
430.74
428.924
427.198
425.555
423.993
422.504
421.088
419.736
418.449
417.219
416.049
414.929
413.864
412.844
439.006
436.773
434.664
432.653
430.746
428.93
427.212
425.581
424.045
422.581
421.2
419.877
418.627
417.427
416.296
415.208
414.189
413.205
439.03
436.762
434.67
432.649
430.754
428.967
427.316
425.825
424.506
423.257
422.129
421.044
420.057
419.11
418.231
417.38
416.636
415.871
439.164
436.671
434.634
432.651
431.013
429.603
428.544
428.094
428.089
427.839
428.138
428.501
428.854
429.337
429.376
430.18
430.205
430.513
439.765
436.065
434.597
433.696
434.483
435.701
437.897
442.479
447.342
452.524
457.462
462.458
466.245
469.724
472.744
474.546
477.303
479.165
441.623
434.284
438.679
447.728
460.091
473.16
490.298
508.852
529.267
547.087
564.458
578.128
591.791
602.1
613.754
622.364
633.355
641.25
448.689
439.647
482.377
540.514
602.847
660.858
724.524
786.167
850.205
904.526
957.344
998.456
1040.11
1071.21
1106.15
1131.6
1163.41
1185.69
525.164
775.82
939.09
1202.38
1452.9
1684.52
1908.01
2105.6
2292.89
2447.94
2593.32
2707.92
2818.02
2899.52
2984.76
3046.74
3121.59
3174.56
1329.21
3268.03
4616.11
6238.66
7331.57
8074.65
8593.47
8957.03
9206.63
9347.08
9435.48
9441.58
9435.84
9410.35
9371.05
9324.19
9289.26
9263.14
16112.1
20800
23180.9
24362.6
24926.8
25045.4
24993.1
24844.8
24600.2
24328.9
24054
23787.1
23536.2
23304
23092.1
22899.8
22725.9
22571
11463.3
2494.65
2496.87
2499.12
2501.38
2503.67
2505.98
2508.3
2510.65
2513.02
2515.42
2517.83
2520.27
2522.73
2525.21
2527.72
2530.25
2532.8
2535.37
2537.97
2540.6
2543.25
2545.92
2548.62
2551.34
2554.09
2556.87
2559.67
2562.5
2565.35
2568.23
2571.14
2574.08
2577.04
2580.04
2583.06
2586.11
2589.19
2592.3
2595.43
2598.6
2601.8
2605.03
2608.29
2611.59
2614.91
2618.27
2621.66
2625.08
2628.54
2632.03
2635.55
2639.11
2642.71
2646.33
2650
2653.7
2657.44
2661.21
3340.56
3335.28
3463.78
3220.2
3411.53
3471.73
3566.79
3642.96
3723.74
3796.7
3870.67
3940.01
4009.11
4075.27
4140.63
4203.95
4266.28
4327.03
4386.77
4445.15
4502.56
4558.73
4613.97
4668.04
4721.21
4773.23
4824.35
4874.33
4923.37
4971.29
5018.2
5063.99
5108.67
5152.13
5194.42
5235.43
5275.18
5313.63
5350.83
5386.94
5422.28
5457.02
5490.58
5523.32
5555.08
5585.97
5615.89
5644.93
5672.97
5700.13
5726.29
5751.54
5775.79
5799.11
5821.43
5842.81
5863.18
5882.59
5901
5918.42
5934.86
5950.28
5964.73
5978.14
5990.57
6001.91
6012.25
6021.4
6029.39
6036.45
6043.59
6049.88
6054.75
6058.52
6061.55
6064.09
6066.02
6066.77
6065.55
6063.65
6060.66
6056.79
6052.03
6046.4
6040
6032.82
6024.98
6016.61
6007.15
5997.49
5986.6
5975.72
5963.53
5951.57
5938.24
5925.24
5911.22
5897.25
5882.9
5868.39
5853.76
5839.11
5824.46
5809.88
5795.36
5780.99
5766.77
5752.81
5739.14
5725.84
5712.93
5700.44
5688.32
5676.51
5664.73
5652.66
5639.55
5624.5
5604.85
5575.55
5456.75
11463.3
1993.81
996.825
810.266
692.216
623.132
630.28
626.229
614.764
591.978
567.724
544.032
522.36
504.502
492.349
483.723
483.653
484.854
513.879
562.946
647.855
749.777
859.939
969.112
1065.85
1141
1180.26
1173.46
1129.41
1048.7
925.132
771.225
644.878
561.972
496.486
461.274
456.97
465.011
487.148
518.972
549.37
589.604
687.763
816.906
1014.91
1327.54
1635.1
1846.35
1983.92
2051.17
2069.51
2056.97
2011
1962.75
1908.17
1878.85
1835.63
1784.22
1763
1773.76
1712.06
1701.2
1678.22
1673.87
1664.23
1664.26
1663.59
1665.54
1668.44
1672.86
1677.82
1683.78
1690.07
1696.94
1704.02
1711.41
1718.9
1726.55
1734.23
1741.96
1749.66
1757.34
1764.96
1772.5
1779.94
1787.26
1794.43
1801.44
1808.3
1814.98
1821.49
1827.8
1833.95
1839.93
1845.81
1851.65
1857.6
1863.86
1870.76
1878.76
1887.53
1895.66
1903.81
1911.65
1919.33
1926.78
1934.02
1941.06
1947.87
1954.48
1960.86
1967.02
1972.96
1978.69
1984.18
1989.45
1994.5
1999.32
2003.91
2008.28
2012.42
2016.34
2020.03
2023.49
2026.73
2029.74
2032.54
2035.13
2037.59
2039.92
2042.01
2043.89
2045.58
2047.12
2048.5
2049.55
2050
2049.59
2048.94
2048.08
2047
2045.73
2044.27
2042.66
2040.92
2039.15
2036.33
2034.74
2031.32
2029.56
2025.75
2023.78
2019.61
2017.38
2013.26
2010.3
2006.71
2003.18
1999.56
1995.91
1992.23
1988.54
1984.83
1981.14
1977.46
1973.8
1970.19
1966.63
1963.13
1959.71
1956.39
1953.17
1950.03
1947.06
1944.3
1941.8
1939.67
1938.44
1937.16
1946.05
11463.3
2012.27
816.512
642.15
682.91
682.592
654.606
598.681
538.701
482.469
432.768
390.845
357.93
332.143
312.31
297.058
286.483
278.257
276.451
278.87
289.669
308.503
341.056
385.366
440.472
501.076
561.672
608.408
637.084
634.629
611.377
569.106
506.756
439.144
390.297
385.206
396.444
420.272
458.121
529.956
640.222
795.588
993.767
1170.62
1317.15
1448.15
1534.04
1561.94
1560.28
1512.74
1459.33
1398.67
1342.3
1292.95
1250.52
1217.84
1183.97
1157.73
1140.34
1129.21
1113.66
1112.21
1103.22
1102.39
1100.49
1100.5
1101.48
1103.27
1105.59
1108.42
1111.58
1115.06
1118.73
1122.61
1126.6
1130.7
1134.87
1139.1
1143.35
1147.63
1151.91
1156.18
1160.43
1164.66
1168.84
1172.99
1177.09
1181.15
1185.15
1189.11
1193.03
1196.91
1200.77
1204.63
1208.52
1212.47
1216.52
1220.72
1225.08
1229.58
1234.02
1238.29
1242.48
1246.55
1250.5
1254.34
1258.05
1261.64
1265.11
1268.46
1271.67
1274.76
1277.72
1280.55
1283.25
1285.81
1288.24
1290.54
1292.7
1294.72
1296.61
1298.36
1299.98
1301.47
1302.82
1304.04
1305.13
1306.1
1306.95
1307.69
1308.29
1308.77
1309.12
1309.34
1309.42
1309.31
1308.95
1308.35
1307.63
1306.8
1305.85
1304.79
1303.62
1302.34
1300.96
1299.55
1297.74
1296.29
1294.21
1292.62
1290.33
1288.61
1286.13
1284.26
1281.78
1279.59
1277.2
1274.79
1272.34
1269.86
1267.34
1264.8
1262.25
1259.68
1257.11
1254.53
1251.97
1249.41
1246.87
1244.36
1241.88
1239.47
1237.13
1234.92
1232.91
1231.2
1229.97
1229.87
1231.28
1241.66
11463.3
2039.77
1015.21
977.401
904.573
774.723
657.287
550.011
465.583
402.708
355.43
318.585
289.887
267.854
251.011
238.198
228.599
221.646
217.036
215.428
216.51
219.661
228.109
242.508
264.196
293.007
327.521
362.629
393.492
416.592
421.393
414.657
392.903
396.566
439.315
528.521
591.863
648.279
719.47
822.15
956.666
1073.52
1152.19
1219.23
1271.26
1291.17
1254.93
1210.82
1165.83
1112.34
1067.42
1025.85
992.051
963.748
940.975
923.005
907.705
896.64
889.113
883.864
879.805
878.855
877.349
877.447
878.152
879.543
881.404
883.638
886.16
888.923
891.871
894.976
898.199
901.522
904.92
908.38
911.885
915.425
918.989
922.569
926.156
929.744
933.327
936.899
940.457
943.997
947.517
951.016
954.496
957.96
961.408
964.842
968.269
971.698
975.136
978.592
982.068
985.56
989.055
992.51
995.882
999.158
1002.35
1005.45
1008.46
1011.37
1014.18
1016.9
1019.51
1022.02
1024.43
1026.73
1028.92
1031
1032.97
1034.84
1036.59
1038.22
1039.75
1041.16
1042.45
1043.64
1044.7
1045.66
1046.5
1047.23
1047.85
1048.36
1048.76
1049.04
1049.22
1049.29
1049.24
1049.07
1048.78
1048.34
1047.76
1047.03
1046.21
1045.28
1044.26
1043.13
1041.92
1040.61
1039.2
1037.73
1036.08
1034.48
1032.65
1030.9
1028.9
1027.03
1024.89
1022.88
1020.67
1018.49
1016.23
1013.94
1011.6
1009.23
1006.82
1004.39
1001.94
999.47
996.989
994.5
992.005
989.51
987.022
984.543
982.091
979.684
977.343
975.11
973.043
971.248
969.881
969.475
970.501
976.867
11463.3
2318.59
1472.67
1187.11
941.825
727.445
560.996
449.661
373.908
321.049
283.471
256.621
237.218
222.597
211.225
202.34
195.559
190.589
187.242
185.601
185.805
187.108
191.031
197.88
208.782
224.738
245.85
269.699
293.553
311.951
327.702
360.126
422.662
527.73
615.309
683.094
753.1
829.076
901.078
964.37
1019.52
1067.04
1096.56
1104.29
1073.1
1026.8
989.744
948.328
911.624
877.685
850.363
826.871
808.199
793.071
781.313
772.349
765.585
761.061
758.297
757.013
756.567
757.037
757.987
759.618
761.637
764.01
766.648
769.497
772.516
775.675
778.948
782.315
785.758
789.265
792.822
796.421
800.052
803.708
807.381
811.065
814.755
818.445
822.131
825.809
829.475
833.128
836.763
840.381
843.98
847.563
851.127
854.671
858.195
861.7
865.187
868.651
872.087
875.481
878.824
882.097
885.289
888.397
891.42
894.353
897.196
899.944
902.598
905.152
907.608
909.961
912.212
914.359
916.4
918.332
920.156
921.87
923.473
924.964
926.342
927.607
928.758
929.796
930.719
931.529
932.225
932.807
933.276
933.632
933.873
933.999
934.015
933.916
933.701
933.364
932.903
932.318
931.605
930.773
929.837
928.798
927.656
926.415
925.075
923.641
922.112
920.5
918.768
916.99
915.083
913.145
911.083
909.002
906.8
904.588
902.279
899.935
897.532
895.083
892.591
890.06
887.495
884.901
882.284
879.648
876.996
874.331
871.657
868.979
866.305
863.646
861.013
858.418
855.883
853.441
851.144
849.079
847.375
846.396
846.63
849.824
11463.3
2936.6
1734.91
1209.32
832.85
587.331
444.45
355.522
299.878
263.908
239.249
221.387
207.834
197.275
188.829
182.06
176.785
172.905
170.359
169.259
169.572
170.954
174.247
179.52
187.455
199.316
216.024
237.874
266.938
310.757
368.196
464.287
574.103
661.079
728.479
790.211
841.876
881.883
916.195
949.447
966.144
967.895
938.679
907.782
875.085
841.221
811.808
783.735
760.375
740.313
724.123
710.809
700.408
692.386
686.516
682.449
680.104
679.135
678.941
679.679
681.125
683.138
685.545
688.326
691.371
694.635
698.069
701.64
705.324
709.101
712.955
716.875
720.848
724.868
728.925
733.011
737.121
741.247
745.383
749.524
753.665
757.801
761.928
766.042
770.139
774.217
778.271
782.301
786.304
790.279
794.224
798.134
802.007
805.841
809.633
813.376
817.064
820.684
824.232
827.7
831.081
834.373
837.572
840.676
843.682
846.586
849.387
852.081
854.667
857.143
859.508
861.761
863.9
865.923
867.828
869.615
871.282
872.828
874.252
875.555
876.735
877.793
878.727
879.538
880.226
880.79
881.231
881.548
881.733
881.792
881.739
881.559
881.251
880.814
880.249
879.556
878.735
877.792
876.733
875.561
874.276
872.881
871.378
869.771
868.061
866.253
864.338
862.338
860.234
858.057
855.783
853.447
851.022
848.541
845.985
843.372
840.701
837.977
835.206
832.393
829.542
826.66
823.752
820.823
817.876
814.915
811.943
808.966
805.991
803.028
800.088
797.184
794.336
791.571
788.933
786.491
784.349
782.759
782.066
783.126
11463.3
3440.93
1778.02
1035.44
650.407
457.527
358.649
303.3
267.855
242.975
224.24
209.611
197.844
188.13
180.08
173.517
168.373
164.641
162.427
161.851
162.719
165.301
170.098
177.516
188.377
203.245
225.728
261.627
317.819
404.625
511.442
601.354
670.155
728.992
775.121
809.839
837.807
859.224
868.033
863.88
840.865
818.51
791.913
766.539
741.473
718.148
697.948
680.212
665.597
653.475
643.815
636.251
630.647
626.728
624.475
623.555
623.456
624.392
626.07
628.387
631.213
634.445
637.987
641.788
645.788
649.947
654.234
658.624
663.101
667.649
672.257
676.916
681.619
686.357
691.124
695.913
700.717
705.529
710.343
715.153
719.954
724.741
729.509
734.254
738.973
743.662
748.316
752.932
757.507
762.039
766.526
770.96
775.339
779.659
783.916
788.107
792.226
796.27
800.229
804.095
807.863
811.529
815.089
818.541
821.881
825.106
828.213
831.2
834.063
836.802
839.411
841.887
844.234
846.45
848.535
850.487
852.304
853.987
855.535
856.947
858.223
859.363
860.366
861.232
861.962
862.554
863.008
863.324
863.486
863.523
863.427
863.19
862.814
862.298
861.643
860.85
859.921
858.858
857.667
856.349
854.905
853.339
851.65
849.833
847.894
845.843
843.678
841.409
839.034
836.565
833.999
831.35
828.614
825.803
822.915
819.96
816.94
813.863
810.734
807.558
804.341
801.091
797.812
794.51
791.189
787.853
784.506
781.154
777.805
774.467
771.152
767.873
764.647
761.497
758.459
755.588
752.966
750.759
749.14
748.607
11463.3
3583.17
1562.23
815.345
515.881
381.848
313.082
273.361
247.903
229.87
215.864
204.041
193.734
184.832
177.288
171.168
166.657
163.921
162.907
163.517
165.973
170.894
178.823
191.757
212.29
243.043
290.676
365.799
454.899
536.039
600.988
655.849
701.635
737.946
767.152
784.991
790.923
783.466
766.216
748.416
727.568
707.966
687.982
669.175
651.479
635.77
622.35
611.013
601.786
594.422
588.815
584.787
582.325
581.248
581.067
581.91
583.609
586.063
589.126
592.696
596.681
601.001
605.587
610.389
615.363
620.476
625.702
631.021
636.417
641.875
647.387
652.943
658.535
664.155
669.799
675.456
681.119
686.78
692.433
698.07
703.686
709.274
714.83
720.349
725.827
731.262
736.645
741.973
747.242
752.45
757.593
762.663
767.658
772.572
777.403
782.147
786.804
791.366
795.822
800.165
804.391
808.495
812.475
816.326
820.047
823.633
827.083
830.394
833.562
836.588
839.468
842.203
844.791
847.231
849.522
851.664
853.654
855.493
857.179
858.713
860.094
861.323
862.398
863.319
864.087
864.702
865.162
865.461
865.59
865.583
865.424
865.108
864.636
864.01
863.231
862.3
861.218
859.988
858.613
857.096
855.439
853.643
851.712
849.648
847.455
845.136
842.694
840.134
837.459
834.676
831.79
828.807
825.731
822.568
819.323
816.001
812.611
809.157
805.647
802.086
798.481
794.838
791.166
787.469
783.752
780.018
776.274
772.527
768.783
765.052
761.344
757.673
754.054
750.506
747.059
743.752
740.62
737.807
735.385
733.521
11463.3
3404.66
1279.94
660.367
442.671
347.525
296.432
265.582
244.302
228.186
215.344
204.678
195.586
187.794
181.343
176.465
173.481
172.571
174.012
177.859
185.024
196.901
214.927
243.73
288.336
348.815
418.057
481.602
538.707
588.05
630.145
665.372
695.6
715.967
722.972
718.908
706.017
691.505
675.068
659.389
643.771
628.989
614.554
601.076
588.831
578.223
569.316
562.03
556.314
552.055
549.173
547.744
547.338
547.887
549.391
551.74
554.821
558.539
562.795
567.505
572.592
577.99
583.643
589.504
595.535
601.706
607.992
614.374
620.833
627.353
633.923
640.529
647.163
653.815
660.485
667.157
673.823
680.473
687.1
693.695
700.252
706.764
713.227
719.632
725.969
732.23
738.423
744.546
750.593
756.561
762.447
768.242
773.94
779.538
785.031
790.414
795.68
800.821
805.834
810.711
815.45
820.044
824.492
828.79
832.936
836.925
840.756
844.426
847.933
851.274
854.45
857.459
860.3
862.974
865.478
867.813
869.977
871.969
873.79
875.439
876.917
878.222
879.356
880.318
881.107
881.723
882.166
882.423
882.504
882.424
882.171
881.745
881.146
880.376
879.435
878.326
877.049
875.608
874.005
872.243
870.323
868.249
866.024
863.652
861.136
858.48
855.687
852.764
849.713
846.541
843.254
839.859
836.361
832.767
829.082
825.314
821.471
817.56
813.589
809.563
805.489
801.376
797.23
793.059
788.866
784.657
780.44
776.221
772.008
767.81
763.638
759.505
755.423
751.41
747.491
743.699
740.076
736.714
733.626
730.722
11463.3
2974.09
1032.18
560.336
399.139
327.201
288.557
263.272
245.874
233.035
222.7
213.95
206.519
200.505
196.271
194.494
195.306
199.625
207.503
219.449
237.586
263.931
300.056
344.654
393.144
442.306
488.69
530.155
567.12
598.898
626.954
649.726
659.906
660.898
653.576
643.029
630.189
617.589
605.299
593.737
582.519
571.729
561.374
551.837
543.396
536.249
530.429
525.907
522.641
520.715
519.973
520.081
521.24
523.305
526.207
529.864
534.192
539.109
544.538
550.41
556.661
563.229
570.062
577.112
584.342
591.721
599.226
606.848
614.547
622.305
630.105
637.931
645.764
653.58
661.339
669.072
676.791
684.488
692.153
699.776
707.349
714.867
722.323
729.71
737.027
744.271
751.423
758.472
765.414
772.244
778.959
785.551
792.015
798.345
804.538
810.588
816.489
822.238
827.832
833.264
838.53
843.626
848.549
853.295
857.862
862.247
866.449
870.464
874.292
877.93
881.377
884.634
887.7
890.575
893.26
895.752
898.052
900.16
902.075
903.798
905.328
906.667
907.814
908.769
909.531
910.102
910.477
910.644
910.626
910.42
910.022
909.433
908.653
907.684
906.527
905.183
903.655
901.945
900.056
897.99
895.749
893.339
890.761
888.02
885.121
882.068
878.864
875.517
872.029
868.408
864.661
860.794
856.815
852.73
848.546
844.274
839.922
835.498
831.01
826.463
821.867
817.228
812.555
807.855
803.133
798.397
793.655
788.914
784.183
779.47
774.787
770.144
765.554
761.033
756.6
752.285
748.116
744.165
740.415
736.555
11463.3
2495.02
889.467
520.66
385.979
323.84
289.544
269.149
255.55
245.527
237.647
231.423
226.978
225.027
225.507
229.78
237.978
249.351
264.263
284.9
311.502
343.122
378.046
414.052
449.382
482.943
513.833
541.086
565.884
588.384
601.687
605.646
603.947
598.319
589.667
580.217
570.706
561.743
553.184
544.954
536.901
529.106
521.744
515.103
509.396
504.752
501.212
498.799
497.63
497.378
498.113
499.799
502.41
505.878
510.14
515.121
520.751
526.96
533.682
540.858
548.448
556.385
564.603
573.056
581.702
590.494
599.372
608.264
617.234
626.275
635.369
644.494
653.625
662.744
671.854
680.928
689.957
698.935
707.841
716.668
725.411
734.064
742.623
751.082
759.431
767.657
775.752
783.711
791.528
799.201
806.728
814.1
821.311
828.356
835.23
841.929
848.449
854.785
860.935
866.892
872.651
878.208
883.56
888.705
893.641
898.366
902.877
907.175
911.257
915.123
918.771
922.203
925.418
928.419
931.205
933.777
936.134
938.277
940.206
941.921
943.425
944.715
945.795
946.662
947.317
947.762
947.985
947.994
947.792
947.381
946.761
945.931
944.893
943.648
942.199
940.546
938.692
936.638
934.389
931.947
929.315
926.496
923.496
920.317
916.966
913.448
909.767
905.93
901.941
897.807
893.536
889.135
884.613
879.977
875.237
870.404
865.488
860.495
855.436
850.317
845.145
839.929
834.677
829.397
824.097
818.785
813.47
808.161
802.866
797.594
792.355
787.16
782.02
776.949
771.965
767.092
762.352
757.8
753.41
748.685
11463.3
2077.91
781.97
485.284
376.803
324.718
297.214
281.01
270.58
263.446
258.538
256.005
255.506
257.88
263.775
273.249
285.769
301.088
319.968
342.158
366.793
392.827
419.221
445.065
469.626
492.194
513.371
533.405
547.927
554.378
555.851
554.928
550.784
545.038
538.528
532.028
525.738
519.701
513.796
507.972
502.243
496.753
491.708
487.332
483.796
481.194
479.722
479.233
479.661
481.08
483.445
486.723
490.886
495.907
501.744
508.289
515.478
523.247
531.527
540.232
549.232
558.521
568.128
578.022
588.164
598.513
609.038
619.734
630.521
641.355
652.202
663.047
673.836
684.536
695.129
705.596
715.921
726.099
736.15
746.083
755.901
765.604
775.19
784.651
793.975
803.146
812.151
820.982
829.633
838.102
846.389
854.485
862.383
870.077
877.562
884.834
891.891
898.727
905.341
911.725
917.876
923.788
929.459
934.888
940.074
945.017
949.716
954.169
958.378
962.342
966.062
969.538
972.772
975.767
978.524
981.044
983.328
985.377
987.192
988.775
990.125
991.244
992.132
992.792
993.219
993.419
993.382
993.114
992.616
991.892
990.942
989.766
988.367
986.745
984.904
982.844
980.568
978.079
975.379
972.472
969.362
966.051
962.545
958.848
954.967
950.906
946.673
942.273
937.713
932.998
928.138
923.137
918.008
912.761
907.407
901.956
896.42
890.806
885.124
879.381
873.583
867.74
861.86
855.952
850.026
844.092
838.161
832.241
826.341
820.468
814.633
808.845
803.116
797.458
791.889
786.429
781.092
775.926
770.91
765.383
11463.3
1953.15
769.845
484.16
380.234
333.502
309.766
296.527
288.702
284.341
282.603
282.627
285.477
291.179
299.708
310.795
324.128
339.719
357.198
375.948
395.342
414.73
433.531
451.483
468.888
485.707
499.473
507.515
511.372
512.75
512.627
510.63
507.407
503.631
499.648
495.667
491.711
487.77
483.823
479.919
476.166
472.729
469.795
467.54
466.228
465.804
466.326
467.954
470.511
473.984
478.351
483.578
489.604
496.312
503.612
511.633
520.36
529.738
539.707
550.21
561.224
572.687
584.521
596.674
609.101
621.746
634.553
647.492
660.472
673.395
686.19
698.785
711.157
723.292
735.177
746.806
758.189
769.348
780.324
791.149
801.835
812.391
822.825
833.123
843.266
853.227
862.984
872.527
881.849
890.952
899.835
908.491
916.908
925.08
933.002
940.67
948.08
955.231
962.119
968.738
975.085
981.153
986.944
992.453
997.686
1002.64
1007.32
1011.72
1015.85
1019.71
1023.29
1026.61
1029.66
1032.45
1034.98
1037.26
1039.28
1041.04
1042.56
1043.83
1044.85
1045.62
1046.14
1046.43
1046.46
1046.26
1045.8
1045.1
1044.16
1042.98
1041.56
1039.9
1038
1035.88
1033.51
1030.93
1028.11
1025.07
1021.81
1018.33
1014.64
1010.73
1006.62
1002.32
997.815
993.126
988.256
983.213
978.004
972.635
967.115
961.446
955.646
949.726
943.7
937.578
931.369
925.081
918.725
912.308
905.837
899.321
892.766
886.185
879.591
872.994
866.408
859.839
853.296
846.787
840.319
833.902
827.549
821.272
815.087
809.013
803.059
797.265
791.629
785.349
11463.3
1868.51
744.125
481.623
387.369
345.311
324.56
313.509
307.612
305.03
304.514
306.454
311.024
317.875
326.72
337.233
349.151
362.2
376.016
390.171
404.254
418.177
432.095
445.587
457.041
465.018
470.545
474.27
476.195
476.914
476.972
476.11
474.695
472.993
471.128
469.169
467.15
465.121
463.165
461.436
460.174
459.499
459.351
459.932
461.346
463.554
466.475
469.943
474.316
479.659
485.974
493.235
501.409
510.488
520.475
531.287
542.893
555.214
568.174
581.707
595.758
610.245
625.078
640.185
655.532
671.023
686.514
701.872
717.006
731.854
746.344
760.416
774.035
787.185
799.866
812.08
823.884
835.354
846.6
857.715
868.705
879.595
890.408
901.12
911.684
922.049
932.172
942.051
951.681
961.062
970.192
979.061
987.656
995.968
1003.99
1011.72
1019.15
1026.28
1033.11
1039.64
1045.85
1051.75
1057.33
1062.6
1067.56
1072.2
1076.54
1080.58
1084.32
1087.77
1090.92
1093.79
1096.37
1098.67
1100.7
1102.47
1103.97
1105.21
1106.17
1106.88
1107.33
1107.51
1107.44
1107.13
1106.54
1105.71
1104.62
1103.29
1101.72
1099.89
1097.82
1095.51
1092.95
1090.16
1087.12
1083.86
1080.36
1076.63
1072.67
1068.49
1064.1
1059.48
1054.66
1049.64
1044.41
1039
1033.4
1027.62
1021.68
1015.58
1009.33
1002.92
996.385
989.736
982.983
976.135
969.201
962.189
955.11
947.971
940.781
933.55
926.277
918.983
911.684
904.392
897.117
889.867
882.649
875.471
868.34
861.263
854.256
847.334
840.51
833.801
827.214
820.779
814.526
807.533
11463.3
1850.75
743.948
488.558
398.579
358.882
339.387
329.13
323.901
321.805
321.565
323.978
328.645
335.048
342.768
351.468
360.943
370.958
381.274
391.729
402.474
412.762
421.554
428.785
434.705
439.777
443.751
446.854
449.272
451.21
452.828
454.202
455.347
456.282
457.066
457.765
458.441
459.164
459.991
460.942
461.881
463.317
465.531
468.802
473.077
478.322
484.559
491.9
500.282
509.729
520.252
531.802
544.328
557.797
572.176
587.408
603.539
620.334
637.657
655.402
673.469
691.751
710.138
728.515
746.732
764.691
782.323
799.521
816.172
832.165
847.395
861.837
875.487
888.376
900.534
911.917
922.692
933.011
943.154
953.406
963.609
973.825
984.149
994.481
1004.72
1014.8
1024.66
1034.29
1043.65
1052.75
1061.59
1070.14
1078.4
1086.35
1093.98
1101.28
1108.25
1114.9
1121.21
1127.18
1132.82
1138.1
1143.04
1147.63
1151.87
1155.79
1159.37
1162.62
1165.57
1168.2
1170.52
1172.53
1174.25
1175.67
1176.83
1177.73
1178.35
1178.69
1178.75
1178.57
1178.12
1177.4
1176.42
1175.19
1173.71
1171.97
1169.99
1167.76
1165.29
1162.57
1159.61
1156.41
1152.96
1149.28
1145.36
1141.2
1136.82
1132.22
1127.38
1122.33
1117.06
1111.58
1105.89
1100
1093.91
1087.63
1081.18
1074.55
1067.75
1060.8
1053.71
1046.51
1039.18
1031.75
1024.22
1016.6
1008.89
1001.1
993.255
985.35
977.4
969.414
961.388
953.352
945.323
937.309
929.319
921.362
913.443
905.571
897.751
889.991
882.311
874.725
867.247
859.89
852.659
845.574
838.709
831.04
11463.3
1828.95
743.465
496.707
408.407
369.77
351.023
340.777
335.344
333.09
332.706
334.697
338.622
343.904
350.134
357.052
364.551
372.511
380.688
388.611
396.135
403.24
410.134
416.554
422.592
428.319
433.709
438.796
443.57
447.993
451.997
455.393
458.446
461.421
464.412
467.511
470.804
474.392
478.372
482.883
488.187
494.42
501.835
510.698
520.679
531.733
543.892
557.201
571.599
587.088
603.799
621.515
640.059
659.3
679.114
699.352
719.807
740.465
761.242
782.035
802.742
823.266
843.512
863.388
882.805
901.684
919.955
937.539
954.346
970.261
985.065
998.871
1011.76
1023.83
1035.15
1045.79
1055.76
1065.08
1073.92
1082.44
1090.75
1099.19
1108.18
1117.32
1126.41
1135.34
1144.1
1152.62
1160.87
1168.85
1176.56
1183.99
1191.12
1197.93
1204.41
1210.54
1216.33
1221.78
1226.88
1231.64
1236.03
1240.06
1243.73
1247.02
1249.97
1252.57
1254.83
1256.75
1258.36
1259.67
1260.66
1261.33
1261.72
1261.8
1261.64
1261.24
1260.55
1259.61
1258.4
1256.94
1255.24
1253.29
1251.1
1248.67
1246.01
1243.11
1239.97
1236.6
1233
1229.17
1225.1
1220.8
1216.27
1211.52
1206.55
1201.35
1195.95
1190.32
1184.49
1178.45
1172.19
1165.74
1159.09
1152.25
1145.22
1138.01
1130.62
1123.08
1115.38
1107.53
1099.55
1091.47
1083.28
1074.99
1066.61
1058.13
1049.57
1040.94
1032.25
1023.51
1014.74
1005.94
997.139
988.351
979.577
970.826
962.104
953.42
944.782
936.199
927.675
919.22
910.859
902.604
894.466
886.456
878.578
870.845
863.372
855.066
11463.3
1815.92
745.996
501.925
414.77
377.209
358.666
348.25
342.644
340.247
339.754
341.468
345.024
349.917
355.732
362.245
369.283
376.667
384.346
392.361
400.354
408.205
416.043
423.808
431.56
439.327
447.127
454.982
462.807
470.549
478.282
486.146
494.215
502.562
511.281
520.485
530.28
540.789
552.118
564.397
577.769
592.233
607.766
624.124
641.407
659.672
678.949
699.265
720.477
742.387
764.734
787.687
810.993
834.422
857.795
880.966
903.786
926.176
948.039
969.301
989.899
1009.8
1028.99
1047.43
1065.1
1082
1098.1
1113.4
1127.89
1141.56
1154.43
1166.42
1177.56
1188.04
1197.95
1207.42
1216.28
1224.48
1231.97
1238.72
1245.19
1251.99
1259
1265.94
1272.71
1279.26
1285.59
1291.67
1297.51
1303.11
1308.46
1313.57
1318.41
1322.95
1327.19
1331.11
1334.72
1338.02
1341
1343.67
1345.99
1347.97
1349.62
1350.93
1351.92
1352.59
1352.96
1352.98
1352.8
1352.33
1351.56
1350.52
1349.22
1347.67
1345.9
1343.9
1341.68
1339.23
1336.56
1333.67
1330.56
1327.25
1323.72
1319.99
1316.06
1311.92
1307.58
1303.03
1298.27
1293.31
1288.14
1282.76
1277.18
1271.4
1265.42
1259.25
1252.88
1246.31
1239.56
1232.62
1225.48
1218.16
1210.66
1202.98
1195.13
1187.11
1178.94
1170.6
1162.13
1153.5
1144.75
1135.87
1126.88
1117.78
1108.59
1099.31
1089.94
1080.51
1071.02
1061.48
1051.91
1042.31
1032.74
1023.18
1013.64
1004.13
994.645
985.205
975.817
966.493
957.251
948.112
939.081
930.166
921.374
912.719
904.203
895.833
887.761
878.87
11463.3
1804.78
747.824
504.808
418
382.577
364.645
354.923
350.698
349.253
349.813
352.824
357.538
363.542
370.823
379.535
388.912
398.729
409.514
421.402
433.938
446.753
460.213
474.315
489.062
504.401
520.331
536.791
553.799
571.385
589.585
608.448
627.924
648.007
668.73
690.191
712.495
735.842
760.194
785.475
811.536
838.235
865.366
892.703
920.223
947.887
975.747
1004.24
1032.74
1060.65
1087.56
1113.08
1137.3
1160.23
1181.86
1202.15
1221.12
1238.71
1255.02
1270.07
1283.95
1296.73
1308.54
1319.41
1329.39
1338.53
1346.91
1354.56
1361.55
1367.98
1374.21
1380.2
1385.96
1391.39
1396.46
1401.13
1405.27
1408.9
1412.33
1415.83
1419.73
1423.64
1426.96
1429.86
1432.48
1434.9
1437.17
1439.3
1441.3
1443.16
1444.87
1446.42
1447.79
1448.96
1449.91
1450.66
1451.18
1451.49
1451.56
1451.41
1450.95
1450.24
1449.28
1448.06
1446.61
1444.93
1443.01
1440.86
1438.51
1435.95
1433.18
1430.21
1427.05
1423.72
1420.22
1416.55
1412.72
1408.72
1404.55