/*--------------------------------*- C++ -*----------------------------------*\
| =========                 |                                                 |
| \\      /  F ield         | OpenFOAM: The Open Source CFD Toolbox           |
|  \\    /   O peration     | Version:  v2012                                 |
|   \\  /    A nd           | Website:  www.openfoam.com                      |
|    \\/     M anipulation  |                                                 |
\*---------------------------------------------------------------------------*/
FoamFile
{
    version     2.0;
    format      ascii;
    class       volScalarField;
    location    "800";
    object      omega;
}
// * * * * * * * * * * * * * * * * * * * * * * * * * * * * * * * * * * * * * //

dimensions      [0 0 -1 0 0 0 0];


internalField   nonuniform List<scalar> 
12225
(
38665.8
41478.2
43124.3
43944.8
44187.3
44135
43977.1
43699.7
43401.4
43113.9
42846.1
42598.3
42383.7
42179.2
42024.6
41852.5
41766.4
41612.1
886.567
6363.42
9474.83
11518
12891.7
13799.7
14411.1
14814.8
15077.7
15313.3
15536.9
15779.7
15998.7
16217.4
16398.7
16565.9
16666.5
16751.5
201.36
1221.48
1682.57
2281.37
2737.43
3158.58
3467.3
3774.96
4004.75
4317.3
4549.33
4848.3
5053.63
5321.47
5487.48
5721.38
5840.91
6036.62
438.275
559.083
663.871
831.298
960.764
1102.26
1208.87
1333.83
1421.71
1540.57
1620.93
1732.34
1801.39
1903.05
1958.86
2049.93
2089.99
2174.02
430.7
466.667
488.962
532.003
571.076
621.656
660.879
710.6
745.967
792.495
823.986
867.612
894.974
935.583
958.306
995.679
1012.89
1047.86
438.019
441.621
445.541
455.938
465.692
482.636
496.31
515.777
530.281
549.85
563.671
582.676
595.237
613.483
624.287
641.633
650.136
666.495
438.566
437.327
436.515
437.951
438.446
441.678
444.664
450.604
455.176
462.295
467.48
475.133
480.416
488.281
493.222
501.03
505.219
512.76
438.87
436.955
434.942
433.756
432.437
432.307
432.433
433.09
434.056
436.08
437.655
440.477
442.445
445.746
447.84
451.409
453.323
457.018
438.951
436.868
434.705
432.901
431.089
429.688
428.486
427.66
426.982
426.699
426.698
426.868
427.177
427.891
428.433
429.527
430.186
431.528
438.98
436.819
434.68
432.731
430.825
429.105
427.468
426.047
424.698
423.575
422.527
421.742
420.948
420.476
419.937
419.68
419.318
419.331
438.994
436.794
434.672
432.692
430.779
429
427.278
425.698
424.163
422.775
421.418
420.226
419.047
418.046
417.039
416.218
415.351
414.681
438.999
436.784
434.667
432.673
430.764
428.967
427.242
425.622
424.062
422.602
421.193
419.88
418.611
417.437
416.299
415.253
414.234
413.3
439
436.778
434.663
432.661
430.754
428.947
427.224
425.591
424.031
422.552
421.138
419.797
418.514
417.297
416.133
415.03
413.972
412.97
439.001
436.775
434.66
432.653
430.745
428.933
427.209
425.57
424.009
422.523
421.107
419.759
418.472
417.247
416.076
414.961
413.894
412.878
439.001
436.773
434.657
432.648
430.738
428.923
427.197
425.555
423.991
422.502
421.084
419.732
418.442
417.213
416.04
414.92
413.851
412.83
439.001
436.772
434.655
432.644
430.733
428.916
427.187
425.543
423.977
422.486
421.065
419.711
418.419
417.187
416.011
414.89
413.818
412.795
439
436.769
434.651
432.638
430.725
428.906
427.176
425.53
423.962
422.469
421.046
419.689
418.396
417.162
415.985
414.861
413.788
412.763
439
436.769
434.651
432.637
430.724
428.905
427.174
425.526
423.958
422.463
421.039
419.682
418.388
417.153
415.974
414.85
413.776
412.75
439
436.771
434.654
432.641
430.729
428.91
427.179
425.532
423.964
422.47
421.046
419.688
418.394
417.159
415.98
414.855
413.781
412.755
439.001
436.772
434.655
432.643
430.731
428.913
427.183
425.536
423.968
422.474
421.051
419.693
418.399
417.165
415.987
414.862
413.789
412.763
439.001
436.772
434.657
432.645
430.735
428.917
427.188
425.542
423.976
422.483
421.062
419.706
418.415
417.183
416.01
414.888
413.82
412.799
439.003
436.772
434.659
432.645
430.739
428.922
427.203
425.562
424.007
422.522
421.118
419.779
418.516
417.309
416.173
415.082
414.058
413.073
439.007
436.769
434.647
432.623
430.746
428.966
427.325
425.752
424.288
422.897
421.622
420.43
419.357
418.344
417.439
416.56
415.804
415.039
438.984
436.748
434.532
432.571
430.964
429.627
428.617
427.575
426.736
425.937
425.378
425.002
424.829
424.782
424.838
424.949
425.229
425.335
438.57
437.026
434.67
433.798
434.078
435.736
438.035
439.555
441.501
442.953
445.279
447.62
450.662
453.364
456.57
459.167
462.322
464.704
439.452
440.217
441.811
445.676
456.737
471.099
483.494
492.725
503.049
512.488
523.557
533.523
544.745
554.2
564.686
572.992
582.568
589.756
446.058
465.219
481.013
519.071
571.515
618.996
663.556
700.355
737.687
769.541
803.776
832.313
863.37
887.832
915.074
935.272
959.115
975.856
480.155
640.253
766.286
973.76
1166.12
1333.18
1486.57
1614.08
1735.31
1833.97
1932.31
2008.47
2088.3
2145.66
2210.59
2253.45
2307.58
2340.93
600.013
2442.88
3639.32
4532.26
5250.42
5833.17
6309.1
6688.13
7002.03
7249.14
7456.63
7611.43
7751.81
7847.21
7951
8013.99
8106.9
8159.44
20918.6
22162.1
23097.1
23778.1
24250.5
24574.2
24774.9
24900.9
24974.8
25008.2
25001.6
24983.3
24939.8
24886.7
24818.4
24750.9
24685.5
24622.6
11463.3
2495.07
2497.95
2501.2
2504.7
2508.46
2513.24
2519.65
2528.1
2538.38
2549.29
2560.37
2570.86
2580.42
2588.95
2596.36
2602.63
2607.74
2611.87
2614.39
2616.69
2617.63
2617.8
2615.85
2611.95
2605.86
2597.71
2588.19
2578.92
2572.43
2570.31
2571.71
2574.52
2577.53
2580.59
2583.72
2586.88
2590.04
2593.23
2597.2
2602.29
2610.79
2621.63
2631.44
2638.82
2642.06
2644.16
2644.91
2645.38
2646.41
2649.89
2656.6
2666.74
2672.9
2681.83
2697.06
2747.13
2921.21
3130.76
3326.83
3502.3
3660.24
3802.82
3933.66
4054.95
4169.4
4277.2
4375.81
4468.87
4555.63
4638.11
4716.17
4791
4862.73
4931.95
4998.86
5063.79
5126.89
5188.46
5248.51
5307.27
5364.71
5421.01
5476.14
5530.19
5583.15
5635.07
5685.93
5735.74
5784.48
5832.15
5878.69
5924.09
5968.31
6011.3
6053.03
6093.49
6132.7
6170.73
6207.77
6244.16
6279.61
6314.02
6347.49
6379.96
6411.46
6441.95
6471.44
6499.89
6527.32
6553.69
6579.01
6603.27
6626.45
6648.56
6669.59
6689.54
6708.39
6726.17
6742.86
6758.48
6773.03
6786.52
6798.96
6810.38
6820.79
6830.76
6838.88
6846.38
6852.77
6857.51
6861.26
6863.81
6865.35
6866.04
6865.86
6864.51
6862.16
6858.93
6854.74
6849.66
6843.69
6836.85
6829.17
6820.67
6811.4
6801.4
6790.81
6779.24
6767.34
6754.34
6741.19
6726.89
6712.65
6697.25
6682.14
6665.87
6650.12
6633.2
6616.89
6599.63
6582.59
6565.22
6547.74
6530.14
6512.47
6494.79
6477.14
6459.56
6442.07
6424.64
6407.21
6389.7
6371.97
6353.69
6334.39
6313.79
6294.89
6285.4
6189.07
11463.5
1998.65
1052.82
891.855
778.013
654.884
665.391
680.625
672.636
657.634
631.387
604.759
579.818
556.294
537.07
522.409
513.235
508.904
508.357
527.184
555.223
620.873
709.178
813.4
928.183
1043.72
1154.51
1244.64
1314.01
1329.81
1308.58
1244.66
1112
946.412
791.994
688.677
618.373
538.431
489.339
455.694
443.307
447.456
457.431
474.879
492.01
514.331
529.417
587.575
656.804
738.22
806.519
1077.68
1513.77
1900.22
2158.28
2303.93
2400.29
2454
2471.85
2452.81
2387.81
2318.28
2242.82
2175.53
2113.62
2061.47
2016.87
1980.71
1951.71
1929.23
1912.27
1899.9
1892.54
1886.45
1884.41
1883.02
1883.23
1885.67
1888.56
1892.53
1896.93
1901.88
1907.13
1912.66
1918.34
1924.13
1929.97
1935.81
1941.6
1947.31
1952.9
1958.36
1963.68
1968.86
1973.92
1978.94
1984.01
1989.34
1995.2
2002.03
2010.43
2018.94
2027.1
2035.11
2042.87
2050.41
2057.72
2064.81
2071.67
2078.3
2084.69
2090.86
2096.79
2102.5
2107.97
2113.21
2118.23
2123.02
2127.59
2131.93
2136.05
2139.96
2143.66
2147.14
2150.42
2153.49
2156.36
2158.88
2161.11
2162.84
2163.74
2164.42
2164.84
2165.03
2164.98
2164.78
2164.35
2163.68
2162.8
2161.71
2160.4
2158.9
2157.19
2155.3
2153.25
2151.07
2148.85
2145.6
2143.62
2139.61
2137.49
2133.1
2130.76
2126.03
2123.49
2118.48
2115.75
2110.51
2107.56
2102.37
2098.67
2094.21
2089.86
2085.43
2080.95
2076.45
2071.92
2067.38
2062.83
2058.3
2053.79
2049.32
2044.9
2040.54
2036.36
2032.45
2029.07
2027.68
2028.58
2043.08
11463.6
2044.96
828.805
639.579
677.538
741.094
723.61
681.164
617.912
555.388
498.69
449.044
406.011
372.594
346.684
326.695
311.566
300.334
292.757
287.928
288.544
294.817
306.504
330.196
365.744
413.245
473.894
543.16
617.021
683.377
734.529
765.62
759.353
735.194
676.884
601.635
524.811
447.61
390.115
357.842
358.235
370.166
388.192
405.245
419.772
467.959
555.77
700.692
911.984
1203.55
1417.48
1562.02
1692.82
1768.83
1788.74
1769.21
1723.12
1660.03
1586
1512.29
1443.69
1386.79
1338.13
1299.94
1269.03
1245.47
1227.23
1213.73
1203.81
1196.82
1192.34
1189.36
1188.31
1187.7
1188.12
1189.44
1191.28
1193.65
1196.29
1199.25
1202.38
1205.69
1209.11
1212.61
1216.17
1219.76
1223.36
1226.96
1230.54
1234.1
1237.64
1241.16
1244.67
1248.18
1251.71
1255.31
1259.01
1262.87
1266.91
1271.17
1275.52
1279.74
1283.84
1287.82
1291.67
1295.4
1299.01
1302.48
1305.83
1309.05
1312.15
1315.11
1317.95
1320.65
1323.22
1325.67
1327.98
1330.17
1332.23
1334.15
1335.95
1337.63
1339.17
1340.58
1341.86
1343.01
1344
1344.82
1345.46
1345.88
1346.08
1346.16
1346.11
1345.97
1345.74
1345.28
1344.77
1344.11
1343.34
1342.45
1341.44
1340.32
1339.09
1337.75
1336.31
1334.77
1333.12
1331.27
1329.54
1327.39
1325.54
1323.18
1321.2
1318.66
1316.56
1313.85
1311.63
1308.78
1306.44
1303.52
1300.94
1298.14
1295.34
1292.5
1289.62
1286.72
1283.8
1280.86
1277.91
1274.96
1272.02
1269.13
1266.3
1263.57
1261.03
1258.8
1257.11
1256.85
1258.65
1270.58
11463.6
2023.46
966.273
985.996
962.619
875.806
750.798
632.878
534.339
458.703
401.344
355.864
320.782
294.049
273.641
258.014
246.02
236.88
230.158
225.507
222.843
223.063
224.538
230.067
239.237
254.744
277.556
308.902
347.976
390.732
433.732
472.907
502.714
514.021
507.595
488.893
453.774
407.546
383.121
408.583
469.26
527.988
573.227
620.554
690.834
809.501
983.102
1171.69
1304.87
1375.28
1430.04
1463.46
1467.88
1391.97
1343.87
1286.74
1227.02
1170.69
1119.91
1076.4
1040.12
1011.2
988.156
970.659
957.329
947.623
940.64
935.849
933.006
931.343
930.857
930.846
931.778
933.145
934.963
937.145
939.581
942.236
945.046
947.993
951.035
954.156
957.332
960.547
963.788
967.043
970.304
973.563
976.815
980.059
983.294
986.522
989.749
992.98
996.224
999.488
1002.78
1006.1
1009.44
1012.77
1016.05
1019.23
1022.31
1025.3
1028.2
1030.99
1033.69
1036.28
1038.78
1041.17
1043.45
1045.63
1047.71
1049.67
1051.54
1053.29
1054.93
1056.47
1057.9
1059.21
1060.42
1061.52
1062.5
1063.37
1064.13
1064.77
1065.27
1065.65
1065.89
1065.99
1065.96
1065.83
1065.59
1065.26
1064.82
1064.26
1063.61
1062.85
1061.99
1061.04
1059.98
1058.83
1057.59
1056.25
1054.82
1053.31
1051.69
1049.98
1048.24
1046.34
1044.45
1042.4
1040.39
1038.19
1036.06
1033.74
1031.5
1029.06
1026.72
1024.19
1021.72
1019.17
1016.59
1013.98
1011.35
1008.68
1006
1003.3
1000.59
997.881
995.185
992.524
989.924
987.423
985.093
983.038
981.425
980.875
981.966
988.795
11463.7
2189.61
1464.21
1293.39
1053.15
828.411
644.468
513.765
423.436
359.959
314.351
282.059
258.677
241.029
227.323
216.525
208.078
201.594
196.755
193.359
191.263
190.857
191.436
193.623
197.493
204.305
214.663
229.659
250.611
276.869
305.606
334.463
361.468
382.862
394.452
392.376
387.462
401.577
467.441
569.686
639.564
701.33
777.777
880.026
994.013
1093.96
1166.14
1224.19
1258.45
1268.39
1241.7
1177.64
1127.53
1075.88
1032.34
987.049
948.195
913.945
885.129
861.472
842.628
828.1
817.158
809.286
803.805
800.25
798.517
797.823
797.795
798.685
800.133
802.003
804.271
806.813
809.587
812.545
815.643
818.855
822.153
825.52
828.938
832.394
835.876
839.373
842.876
846.38
849.877
853.364
856.836
860.291
863.729
867.148
870.551
873.936
877.303
880.651
883.974
887.265
890.508
893.692
896.798
899.816
902.747
905.588
908.336
910.99
913.548
916.009
918.369
920.629
922.786
924.838
926.786
928.627
930.361
931.987
933.504
934.911
936.207
937.391
938.462
939.419
940.262
940.988
941.596
942.083
942.447
942.684
942.79
942.789
942.663
942.427
942.083
941.632
941.076
940.411
939.644
938.773
937.8
936.727
935.555
934.286
932.922
931.464
929.914
928.276
926.541
924.725
922.833
920.851
918.812
916.684
914.509
912.244
909.945
907.555
905.143
902.642
900.13
897.535
894.927
892.271
889.585
886.867
884.123
881.355
878.567
875.765
872.958
870.159
867.378
864.63
861.939
859.338
856.887
854.671
852.812
851.715
851.928
855.246
11463.6
2856.37
1859.72
1353.27
954.619
676.154
509.483
403.594
337.04
294.304
265.064
243.64
227.137
214.008
203.437
194.866
187.946
182.476
178.33
175.412
173.67
173.267
173.769
175.313
178.312
183.018
189.874
199.55
212.998
230.78
251.839
274.265
295.664
316.075
337.548
372.755
439.6
550.384
649.717
724.387
796.261
872.746
946.376
1006.58
1052.7
1090.67
1113.17
1116.57
1073.86
1030.43
988.807
946.401
909.665
873.45
842.426
813.76
789.914
769.657
753.26
740.349
730.585
723.552
718.769
716.023
714.862
714.619
715.407
716.951
719.031
721.597
724.505
727.685
731.084
734.649
738.347
742.148
746.028
749.968
753.953
757.97
762.008
766.057
770.109
774.156
778.193
782.213
786.211
790.184
794.128
798.039
801.917
805.758
809.562
813.326
817.046
820.719
824.337
827.893
831.374
834.777
838.093
841.319
844.452
847.491
850.431
853.271
856.008
858.64
861.164
863.579
865.883
868.073
870.148
872.107
873.948
875.669
877.271
878.752
880.11
881.343
882.452
883.435
884.291
885.019
885.619
886.087
886.425
886.622
886.684
886.641
886.462
886.16
885.739
885.198
884.541
883.766
882.879
881.878
880.766
879.545
878.215
876.78
875.241
873.601
871.861
870.024
868.09
866.066
863.955
861.759
859.487
857.136
854.717
852.221
849.666
847.04
844.363
841.623
838.842
836.003
833.131
830.22
827.276
824.302
821.301
818.277
815.235
812.18
809.12
806.069
803.035
800.034
797.085
794.22
791.488
788.953
786.719
785.047
784.307
785.388
11464.2
3557.66
1960.15
1196.85
757.721
526.73
405.086
337.484
294.92
265.659
243.946
226.823
213.012
201.605
192.046
184.033
177.431
172.172
168.207
165.459
163.927
163.658
164.277
165.976
168.961
173.359
179.566
188.136
199.76
215.014
234.117
257.754
288.608
328.054
385.923
482.89
598.65
691.736
765.957
832.57
888.59
929.959
962.273
988.069
998.964
994.103
955.947
921.263
887.527
856.158
825.899
796.541
770.128
745.944
725.298
707.338
692.619
680.686
671.481
664.73
660.12
657.619
656.684
656.667
657.896
659.923
662.626
665.848
669.464
673.395
677.562
681.912
686.402
690.999
695.676
700.411
705.189
709.995
714.816
719.643
724.466
729.278
734.072
738.842
743.581
748.286
752.951
757.573
762.147
766.669
771.138
775.55
779.904
784.195
788.421
792.577
796.659
800.662
804.584
808.414
812.147
815.778
819.304
822.724
826.033
829.229
832.309
835.27
838.108
840.822
843.409
845.867
848.194
850.387
852.446
854.367
856.148
857.785
859.282
860.637
861.85
862.921
863.849
864.633
865.272
865.766
866.114
866.302
866.355
866.282
866.061
865.703
865.209
864.582
863.823
862.932
861.905
860.749
859.468
858.064
856.539
854.896
853.137
851.266
849.283
847.194
844.998
842.702
840.31
837.826
835.255
832.601
829.867
827.055
824.172
821.219
818.205
815.13
812.004
808.826
805.607
802.35
799.059
795.738
792.39
789.019
785.631
782.232
778.831
775.437
772.064
768.722
765.432
762.216
759.121
756.192
753.504
751.237
749.573
749.034
11470.9
3803.58
1775.76
939.681
584.788
425.864
345.133
297.591
266.789
245.045
228.707
215.711
204.693
195.041
186.544
179.157
172.881
167.77
163.929
161.469
160.38
160.593
161.93
164.644
168.722
174.165
181.456
191.427
204.909
223.101
249.022
287.419
345.692
434.467
538.807
628.625
701.314
765.768
818.286
856.812
885.676
904.087
909.792
896.139
867.265
838.924
810.402
785.855
762.341
739.709
717.58
696.846
678.446
662.326
648.749
637.482
628.579
621.836
617.1
614.396
613.348
613.324
614.626
616.861
619.94
623.663
627.904
632.551
637.51
642.711
648.094
653.614
659.235
664.928
670.671
676.445
682.236
688.031
693.817
699.585
705.328
711.037
716.706
722.329
727.902
733.418
738.873
744.265
749.587
754.835
760.007
765.1
770.111
775.037
779.875
784.622
789.275
793.834
798.292
802.638
806.868
810.977
814.962
818.821
822.55
826.147
829.609
832.932
836.113
839.149
842.039
844.78
847.369
849.806
852.087
854.212
856.178
857.985
859.632
861.117
862.439
863.6
864.597
865.432
866.103
866.611
866.953
867.114
867.136
867.002
866.707
866.255
865.651
864.897
863.994
862.944
861.75
860.415
858.94
857.329
855.584
853.708
851.705
849.577
847.327
844.96
842.477
839.884
837.185
834.385
831.49
828.504
825.431
822.273
819.037
815.728
812.352
808.913
805.417
801.869
798.275
794.643
790.975
787.276
783.55
779.802
776.038
772.264
768.49
764.726
760.982
757.272
753.61
750.016
746.501
743.124
739.944
737.088
734.63
732.76
11491.3
3707.78
1451.06
743.622
489.622
379.917
321.323
284.275
259.66
241.43
226.71
214.367
203.682
194.281
186.031
178.94
173.09
168.578
165.517
163.803
163.417
164.346
166.644
170.638
176.866
185.523
197.972
215.938
241.2
276.796
328.847
403.819
489.267
567.027
632.918
689.96
738.907
779.073
811.4
829.749
834.691
819.75
796.442
772.572
749.386
729.052
710.32
693.094
675.94
659.048
642.914
628.318
615.652
604.935
596.207
589.38
584.401
581.251
579.845
579.614
580.688
582.855
586.017
589.989
594.644
599.851
605.502
611.504
617.78
624.27
630.917
637.677
644.516
651.405
658.32
665.241
672.161
679.062
685.931
692.757
699.533
706.25
712.905
719.489
725.999
732.427
738.766
745.002
751.145
757.194
763.146
768.999
774.749
780.394
785.929
791.35
796.654
801.835
806.887
811.805
816.585
821.223
825.716
830.062
834.256
838.297
842.18
845.902
849.46
852.85
856.071
859.12
861.995
864.693
867.214
869.554
871.714
873.69
875.483
877.091
878.514
879.752
880.805
881.673
882.357
882.856
883.161
883.277
883.232
883.005
882.599
882.017
881.264
880.341
879.252
877.998
876.583
875.01
873.281
871.401
869.371
867.197
864.881
862.427
859.839
857.121
854.277
851.311
848.228
845.035
841.737
838.339
834.845
831.261
827.593
823.846
820.027
816.143
812.198
808.198
804.149
800.06
795.935
791.777
787.592
783.386
779.166
774.939
770.714
766.501
762.31
758.154
754.047
750.005
746.058
742.237
738.583
735.19
732.075
729.171
11522.7
3259.5
1153.71
618.142
435.006
351.22
305.433
277.587
257.268
241.751
229.281
218.536
208.942
200.336
192.775
186.404
181.422
177.944
176.181
175.922
177.411
180.375
185.383
193.45
205.509
222.207
247.428
283.73
332.668
392.743
456.811
516.917
572.469
621.827
665.077
701.861
733.857
755.943
763.342
755.234
737.019
717.576
698.184
681.211
666.179
652.702
639.759
626.95
614.02
601.468
589.884
579.735
571.209
564.335
559.113
555.473
553.606
553.056
553.732
555.636
558.642
562.621
567.458
573.021
579.195
585.869
592.95
600.355
608.019
615.899
623.918
632.036
640.216
648.426
656.632
664.802
672.891
680.915
688.89
696.811
704.666
712.447
720.148
727.763
735.285
742.708
750.026
757.242
764.337
771.303
778.137
784.836
791.4
797.824
804.105
810.24
816.224
822.053
827.725
833.238
838.588
843.77
848.782
853.621
858.283
862.765
867.064
871.177
875.1
878.83
882.363
885.699
888.835
891.768
894.498
897.023
899.341
901.451
903.352
905.042
906.523
907.795
908.857
909.712
910.359
910.799
911.016
911.041
910.867
910.492
909.918
909.148
908.187
907.038
905.702
904.185
902.488
900.616
898.573
896.361
893.986
891.451
888.76
885.919
882.931
879.8
876.533
873.133
869.605
865.957
862.195
858.324
854.35
850.28
846.119
841.877
837.559
833.172
828.721
824.212
819.653
815.051
810.411
805.739
801.04
796.322
791.592
786.859
782.13
777.416
772.728
768.075
763.472
758.935
754.486
750.153
745.966
741.997
738.229
734.378
11553.9
2730.96
968.873
561.511
414.422
343.728
303.971
279.442
262.789
250.06
239.413
230.049
221.719
214.471
208.531
204.083
201.737
201.228
202.875
206.548
212.671
221.369
234.185
252.379
276.828
308.791
347.365
390.601
436.218
481.627
524.836
564.618
600.77
632.667
661.388
684.395
694.119
693.937
682.716
668.795
653.294
639.424
627.233
616.667
606.956
597.549
588.009
578.304
568.671
559.611
551.568
544.822
539.49
535.589
533.279
532.412
532.703
534.317
537.093
540.954
545.802
551.54
558.096
565.333
573.134
581.404
590.052
598.989
608.12
617.329
626.673
636.127
645.654
655.217
664.775
674.295
683.769
693.172
702.488
711.713
720.825
729.819
738.693
747.442
756.061
764.543
772.878
781.055
789.069
796.918
804.6
812.114
819.46
826.634
833.632
840.451
847.089
853.543
859.811
865.89
871.777
877.467
882.956
888.242
893.323
898.195
902.856
907.303
911.531
915.537
919.319
922.875
926.202
929.3
932.168
934.803
937.205
939.372
941.303
942.998
944.458
945.684
946.676
947.437
947.967
948.26
948.323
948.165
947.783
947.179
946.357
945.319
944.07
942.614
940.954
939.095
937.039
934.792
932.358
929.741
926.945
923.976
920.839
917.538
914.078
910.467
906.707
902.806
898.768
894.6
890.309
885.902
881.386
876.768
872.057
867.261
862.387
857.442
852.431
847.36
842.236
837.068
831.86
826.621
821.357
816.076
810.788
805.5
800.22
794.958
789.724
784.529
779.385
774.307
769.316
764.435
759.686
755.126
750.726
746.019
11577.1
2235.16
841.639
518.19
397.483
339.585
307.946
288.292
274.572
264.009
255.315
247.983
241.967
237.41
235.094
234.644
236.671
241.361
248.195
256.939
268.74
284.858
305.471
330.39
358.963
390.18
422.703
455.501
487.729
518.558
547.052
573.1
597.48
619.099
630.669
633.416
629.182
621.804
611.407
601.22
591.842
583.79
576.627
569.943
563.303
556.479
549.435
542.368
535.622
529.593
524.592
520.778
518.356
517.359
517.443
518.914
521.677
525.615
530.612
536.581
543.427
551.024
559.18
567.918
577.227
587.033
597.247
607.788
618.593
629.638
640.82
652.077
663.365
674.659
685.884
696.987
707.94
718.717
729.303
739.698
749.926
759.999
769.921
779.693
789.309
798.759
808.027
817.103
825.977
834.646
843.112
851.373
859.429
867.275
874.91
882.33
889.533
896.519
903.286
909.831
916.15
922.24
928.098
933.72
939.104
944.25
949.154
953.813
958.225
962.385
966.292
969.943
973.338
976.475
979.354
981.975
984.336
986.436
988.274
989.851
991.168
992.226
993.028
993.575
993.868
993.908
993.696
993.239
992.538
991.596
990.417
989.005
987.364
985.499
983.413
981.113
978.601
975.885
972.967
969.853
966.549
963.059
959.39
955.547
951.537
947.364
943.037
938.56
933.939
929.182
924.295
919.284
914.162
908.936
903.615
898.208
892.723
887.164
881.54
875.854
870.114
864.328
858.503
852.647
846.77
840.881
834.99
829.102
823.228
817.374
811.552
805.772
800.045
794.389
788.819
783.357
778.019
772.851
767.829
762.328
11590.6
2025.77
809.7
511.602
398.9
346.972
319.093
302.099
290.578
282.14
275.78
271.124
268.471
267.652
268.842
272.587
278.753
287.114
297.454
310.46
326.261
344.653
365.26
387.53
410.829
434.54
458.137
481.07
502.629
523.274
543.266
561.165
572.657
576.969
577.311
575.024
570.176
564.496
558.58
553.258
548.512
544.216
540.072
535.866
531.474
526.915
522.336
518
514.226
511.343
509.77
509.256
509.819
511.6
514.49
518.465
523.292
529.17
536.117
544.062
552.916
562.597
573.068
584.211
595.923
608.11
620.665
633.492
646.518
659.699
672.942
686.137
699.225
712.148
724.851
737.285
749.421
761.251
772.785
784.06
795.126
806.014
816.741
827.314
837.723
847.947
857.958
867.74
877.285
886.588
895.648
904.466
913.041
921.368
929.445
937.268
944.838
952.154
959.217
966.023
972.571
978.856
984.875
990.626
996.108
1001.32
1006.26
1010.93
1015.32
1019.44
1023.27
1026.82
1030.08
1033.06
1035.76
1038.18
1040.31
1042.16
1043.73
1045.01
1046.01
1046.73
1047.17
1047.34
1047.24
1046.87
1046.22
1045.31
1044.15
1042.73
1041.05
1039.13
1036.96
1034.56
1031.92
1029.06
1025.97
1022.67
1019.16
1015.44
1011.52
1007.41
1003.11
998.633
993.979
989.158
984.177
979.042
973.761
968.34
962.783
957.101
951.307
945.411
939.422
933.347
927.194
920.969
914.677
908.326
901.922
895.468
888.977
882.46
875.928
869.389
862.854
856.329
849.82
843.337
836.888
830.484
824.139
817.869
811.69
805.618
799.667
793.875
788.236
781.985
11599
1953.13
787.11
507.13
405.132
358.276
333.554
318.738
309.007
302.41
298.355
296.59
296.372
298.348
302.44
308.562
316.571
326.348
337.972
351.383
366.196
382.137
398.879
415.974
433.048
449.743
465.802
481.679
497.621
511.49
521.423
526.686
529.427
530.346
530.287
528.996
527.139
525.227
523.424
521.84
520.404
519.066
517.848
516.532
515.125
513.736
512.529
511.747
511.472
511.698
512.454
514.254
517.225
521.444
526.909
533.679
541.934
551.501
562.154
573.755
586.194
599.374
613.214
627.592
642.419
657.613
672.98
688.388
703.724
718.864
733.713
748.25
762.488
776.525
790.19
803.371
816.028
828.18
839.89
851.262
862.435
873.481
884.413
895.253
905.977
916.533
926.849
936.913
946.719
956.258
965.523
974.514
983.226
991.657
999.803
1007.66
1015.23
1022.51
1029.51
1036.23
1042.65
1048.78
1054.62
1060.17
1065.41
1070.37
1075.02
1079.38
1083.45
1087.21
1090.67
1093.82
1096.67
1099.21
1101.46
1103.41
1105.05
1106.4
1107.43
1108.18
1108.63
1108.77
1108.64
1108.22
1107.5
1106.51
1105.23
1103.68
1101.87
1099.78
1097.44
1094.83
1091.98
1088.88
1085.54
1081.97
1078.17
1074.14
1069.91
1065.46
1060.81
1055.96
1050.92
1045.7
1040.3
1034.73
1029
1023.12
1017.09
1010.93
1004.63
998.205
991.676
985.05
978.335
971.536
964.66
957.714
950.705
943.639
936.524
929.357
922.158
914.94
907.716
900.492
893.278
886.08
878.903
871.756
864.646
857.587
850.595
843.684
836.868
830.165
823.582
817.151
810.896
803.932
11602.3
1910.5
779.106
512.274
416.239
372.988
350.522
336.981
328.191
322.8
320.307
319.693
321.125
324.681
329.929
336.683
344.784
354.116
364.538
375.848
387.803
400.174
412.706
425.174
437.404
449.257
460.541
470.547
478.52
484.858
490.102
494.338
497.996
501.187
504.042
506.555
508.876
511.093
513.225
515.26
517.12
518.696
519.717
520.665
521.759
523.149
525
527.488
530.742
534.928
540.307
546.888
554.762
563.925
574.386
586.238
599.634
614.38
630.103
646.53
663.506
680.908
698.622
716.522
734.459
752.298
769.995
787.454
804.564
821.206
837.265
852.651
867.352
881.378
894.619
907.056
918.661
929.515
939.766
949.625
959.506
969.511
979.548
989.705
999.895
1010
1019.95
1029.68
1039.14
1048.33
1057.22
1065.81
1074.1
1082.08
1089.75
1097.1
1104.14
1110.86
1117.28
1123.39
1129.19
1134.68
1139.85
1144.71
1149.25
1153.48
1157.4
1161.01
1164.31
1167.3
1169.97
1172.33
1174.36
1176.09
1177.5
1178.61
1179.42
1179.9
1180.08
1179.96
1179.55
1178.81
1177.78
1176.47
1174.86
1172.97
1170.8
1168.35
1165.63
1162.64
1159.39
1155.88
1152.11
1148.1
1143.86
1139.38
1134.67
1129.74
1124.6
1119.25
1113.71
1107.96
1102.03
1095.91
1089.63
1083.18
1076.57
1069.82
1062.92
1055.91
1048.78
1041.55
1034.23
1026.82
1019.32
1011.75
1004.09
996.376
988.6
980.772
972.902
964.983
957.043
949.095
941.149
933.211
925.289
917.388
909.516
901.677
893.879
886.141
878.48
870.909
863.44
856.089
848.861
841.78
834.91
827.267
11602.7
1879.78
775.868
521.445
429.687
388.044
366.803
354.077
345.796
341.142
339.221
338.934
340.913
344.699
349.855
356.127
363.33
371.356
380.074
389.353
399.072
409.148
419.543
429.888
439.929
449.469
458.224
466.362
473.918
481.029
487.756
494.027
499.634
504.996
510.225
515.328
520.367
525.399
530.476
535.606
540.778
546.067
551.691
557.694
564.201
571.349
579.262
588.043
597.788
608.622
620.677
633.996
648.807
664.775
681.702
699.437
717.688
736.231
755.081
774.244
793.63
813.134
832.654
852.084
871.317
890.249
908.801
926.897
944.454
961.379
977.558
992.805
1007.03
1020.09
1032.19
1043.47
1054.02
1063.87
1073.04
1081.63
1089.84
1097.87
1105.91
1114.53
1123.39
1132.24
1140.99
1149.53
1157.79
1165.75
1173.4
1180.74
1187.78
1194.49
1200.87
1206.91
1212.63
1218.03
1223.11
1227.89
1232.36
1236.51
1240.34
1243.85
1247.05
1249.94
1252.53
1254.81
1256.79
1258.46
1259.83
1260.87
1261.61
1262.05
1262.17
1262.02
1261.58
1260.82
1259.75
1258.4
1256.76
1254.82
1252.59
1250.09
1247.31
1244.25
1240.93
1237.34
1233.49
1229.39
1225.02
1220.42
1215.57
1210.48
1205.17
1199.64
1193.89
1187.94
1181.78
1175.42
1168.88
1162.14
1155.23
1148.15
1140.91
1133.51
1125.96
1118.28
1110.47
1102.53
1094.51
1086.4
1078.21
1069.93
1061.57
1053.13
1044.62
1036.05
1027.43
1018.77
1010.08
1001.38
992.686
983.99
975.303
966.629
957.975
949.35
940.76
932.21
923.709
915.281
906.941
898.701
890.57
882.563
874.685
866.952
859.471
851.185
11600.1
1862.1
778.65
531.631
441.942
401.808
381.57
369.281
361.387
357.26
355.664
355.532
357.704
361.465
366.54
372.724
379.89
388.005
396.805
406.206
415.976
425.926
435.946
446.07
456.315
466.709
477.374
487.948
498.524
509.16
519.875
530.694
541.747
552.985
564.373
575.883
587.492
599.202
611.012
622.952
635.119
647.641
660.679
674.252
688.43
703.319
719.023
735.53
752.789
770.79
789.53
809.019
829.109
849.569
870.271
891.07
911.797
932.286
952.443
972.211
991.539
1010.37
1028.67
1046.39
1063.49
1079.95
1095.75
1110.88
1125.34
1139.1
1152.17
1164.55
1176.24
1186.97
1197.02
1206.54
1215.62
1224.23
1232.23
1239.63
1246.33
1252.56
1258.95
1265.63
1272.26
1278.72
1284.96
1290.93
1296.63
1302.03
1307.15
1312
1316.56
1320.83
1324.8
1328.47
1331.85
1334.95
1337.79
1340.35
1342.65
1344.67
1346.41
1347.87
1349.06
1349.98
1350.64
1351.04
1351.16
1351.04
1350.66
1349.97
1349.03
1347.82
1346.34
1344.61
1342.63
1340.38
1337.86
1335.08
1332.04
1328.74
1325.19
1321.39
1317.35
1313.07
1308.55
1303.79
1298.79
1293.57
1288.12
1282.45
1276.56
1270.46
1264.16
1257.65
1250.96
1244.08
1237.01
1229.76
1222.34
1214.74
1206.99
1199.07
1191.01
1182.8
1174.46
1165.99
1157.39
1148.67
1139.85
1130.93
1121.91
1112.81
1103.62
1094.36
1085.04
1075.65
1066.22
1056.75
1047.25
1037.77
1028.29
1018.82
1009.36
999.91
990.489
981.102
971.759
962.479
953.282
944.173
935.16
926.254
917.464
908.804
900.281
891.905
883.821
874.941
11594.8
1845.93
782.273
538.715
452.128
415.195
396.386
385.162
378.708
375.855
375.173
376.862
380.861
386.679
394.07
402.932
413.186
423.878
435.691
448.717
462.651
477.384
493.16
510.088
528.233
547.619
568.175
589.678
611.988
634.935
658.388
682.275
706.572
731.133
755.929
780.863
805.627
830.112
854.274
878.115
901.691
925.09
948.372
971.551
994.675
1017.91
1041.74
1065.84
1089.62
1112.86
1135.43
1157.06
1177.37
1196.65
1215
1232.37
1248.72
1264.01
1278.25
1291.5
1303.79
1315.15
1325.63
1335.27
1344.11
1352.2
1359.59
1366.31
1372.42
1377.99
1383.08
1387.93
1392.65
1397.3
1401.81
1406.07
1410.06
1413.71
1416.82
1419.77
1422.77
1426.26
1429.92
1433.02
1435.6
1437.84
1439.83
1441.63
1443.25
1444.69
1445.96
1447.04
1447.93
1448.63
1449.13
1449.44
1449.56
1449.52
1449.33