/*--------------------------------*- C++ -*----------------------------------*\
  =========                 |
  \\      /  F ield         | OpenFOAM: The Open Source CFD Toolbox
   \\    /   O peration     | Website:  https://openfoam.org
    \\  /    A nd           | Version:  8
     \\/     M anipulation  |
\*---------------------------------------------------------------------------*/
FoamFile
{
    version     2.0;
    format      ascii;
    class       volScalarField;
    location    "800";
    object      p;
}
// * * * * * * * * * * * * * * * * * * * * * * * * * * * * * * * * * * * * * //

dimensions      [0 2 -2 0 0 0 0];

internalField   nonuniform List<scalar> 
12225
(
-4.24034
-5.11904
-5.50643
-5.63457
-5.7714
-5.92285
-6.05001
-6.1492
-6.23039
-6.30096
-6.36023
-6.41561
-6.47697
-6.54695
-6.61981
-6.70042
-6.79308
-6.89137
-4.50885
-5.14312
-5.47218
-5.59851
-5.73298
-5.8864
-6.01427
-6.11271
-6.19483
-6.26673
-6.33257
-6.39291
-6.45201
-6.518
-6.59475
-6.67567
-6.75712
-6.82891
-4.70296
-5.14362
-5.45593
-5.60687
-5.74423
-5.89183
-6.01568
-6.11118
-6.19162
-6.26411
-6.33123
-6.39318
-6.45323
-6.51845
-6.59171
-6.66479
-6.73522
-6.79401
-4.85196
-5.17123
-5.46575
-5.62413
-5.7528
-5.88762
-6.00524
-6.09934
-6.17968
-6.2523
-6.3195
-6.38228
-6.44367
-6.5083
-6.5775
-6.64577
-6.70991
-6.76314
-4.98493
-5.22094
-5.48369
-5.64009
-5.76199
-5.88766
-6.0011
-6.0945
-6.17453
-6.24676
-6.31381
-6.37709
-6.43895
-6.50204
-6.56692
-6.63004
-6.68819
-6.73643
-5.10454
-5.27683
-5.50177
-5.65387
-5.77195
-5.89023
-5.99902
-6.09069
-6.16982
-6.24148
-6.30827
-6.3715
-6.43286
-6.49389
-6.55481
-6.6133
-6.66667
-6.71145
-5.2106
-5.33514
-5.5232
-5.66796
-5.78199
-5.89294
-5.99645
-6.08594
-6.16412
-6.23525
-6.30166
-6.36449
-6.42493
-6.48395
-6.54157
-6.59621
-6.64581
-6.68807
-5.29119
-5.38599
-5.54557
-5.68118
-5.79073
-5.89554
-5.99436
-6.08166
-6.15885
-6.22936
-6.2952
-6.35736
-6.41674
-6.47402
-6.52913
-6.5809
-6.62785
-6.66834
-5.35649
-5.43149
-5.56784
-5.694
-5.7991
-5.89854
-5.99302
-6.07809
-6.15414
-6.22387
-6.28899
-6.35037
-6.40865
-6.46435
-6.51736
-6.56685
-6.61177
-6.65091
-5.42158
-5.48037
-5.59436
-5.70938
-5.80907
-5.90278
-5.99244
-6.0747
-6.14917
-6.21772
-6.28178
-6.34205
-6.39901
-6.45299
-6.50393
-6.55126
-6.59431
-6.63225
-5.48552
-5.53142
-5.62501
-5.72763
-5.82081
-5.90849
-5.99289
-6.07172
-6.14408
-6.21103
-6.27365
-6.33251
-6.38791
-6.4401
-6.48902
-6.53434
-6.57567
-6.61245
-5.54733
-5.58305
-5.65894
-5.7486
-5.83425
-5.91565
-5.99449
-6.06934
-6.13902
-6.20393
-6.26474
-6.32188
-6.37556
-6.4259
-6.47288
-6.51632
-6.55606
-6.59174
-5.60555
-5.63357
-5.69472
-5.77169
-5.8491
-5.92402
-5.99718
-6.0676
-6.13413
-6.19654
-6.25523
-6.3104
-6.36219
-6.41064
-6.45576
-6.49746
-6.53574
-6.57037
-5.65879
-5.68096
-5.73033
-5.7957
-5.86468
-5.93308
-6.00057
-6.06639
-6.12936
-6.189
-6.24527
-6.29829
-6.34808
-6.39465
-6.43798
-6.47809
-6.51501
-6.54868
-5.70494
-5.72281
-5.76317
-5.81866
-5.87971
-5.94186
-6.00399
-6.06526
-6.12457
-6.18124
-6.23499
-6.28577
-6.33354
-6.37826
-6.41993
-6.45859
-6.49431
-6.52709
-5.74125
-5.75611
-5.78995
-5.8378
-5.89215
-5.94881
-6.00623
-6.0634
-6.11929
-6.1731
-6.22441
-6.27305
-6.31891
-6.36193
-6.40213
-6.43953
-6.47422
-6.50623
-5.76378
-5.77674
-5.80651
-5.84932
-5.89896
-5.95158
-6.00545
-6.05949
-6.11266
-6.16415
-6.21344
-6.2603
-6.30458
-6.34623
-6.38523
-6.42162
-6.4555
-6.48692
-5.76642
-5.77877
-5.80729
-5.84841
-5.89635
-5.94732
-5.99971
-6.05232
-6.10424
-6.15452
-6.20277
-6.24862
-6.29202
-6.33283
-6.37113
-6.4069
-6.44029
-6.47136
-5.74895
-5.76205
-5.79208
-5.835
-5.88432
-5.93632
-5.98939
-6.04261
-6.09485
-6.14538
-6.19361
-6.23943
-6.28265
-6.32331
-6.36137
-6.39698
-6.43018
-6.46115
-5.71657
-5.73155
-5.76563
-5.81317
-5.86634
-5.92122
-5.97673
-6.03194
-6.08582
-6.13747
-6.18658
-6.23294
-6.27657
-6.31744
-6.35565
-6.39129
-6.42454
-6.45552
-5.6724
-5.69061
-5.73145
-5.78623
-5.84496
-5.90404
-5.96314
-6.02145
-6.07771
-6.13116
-6.18158
-6.22893
-6.27324
-6.31456
-6.35306
-6.38888
-6.42222
-6.45328
-5.6182
-5.64152
-5.69241
-5.75684
-5.82219
-5.88622
-5.94978
-6.01189
-6.07104
-6.12661
-6.17861
-6.22716
-6.27228
-6.31416
-6.35296
-6.38898
-6.4224
-6.45352
-5.55485
-5.58611
-5.65118
-5.72716
-5.79942
-5.86884
-5.9375
-6.00382
-6.06604
-6.12386
-6.17758
-6.22737
-6.27336
-6.31575
-6.35486
-6.39099
-6.42445
-6.45553
-5.48244
-5.52621
-5.61051
-5.69889
-5.77743
-5.85254
-5.92689
-5.99757
-6.06278
-6.1228
-6.17821
-6.22922
-6.27599
-6.31882
-6.35813
-6.39432
-6.42772
-6.45876
-5.40042
-5.46366
-5.57331
-5.67349
-5.75673
-5.83758
-5.91793
-5.99293
-6.06101
-6.12316
-6.18019
-6.23229
-6.27969
-6.32279
-6.36211
-6.39814
-6.43132
-6.46213
-5.30874
-5.40025
-5.54099
-5.65138
-5.73789
-5.82418
-5.91006
-5.98883
-6.05948
-6.12371
-6.18238
-6.23565
-6.28375
-6.32721
-6.36657
-6.40247
-6.43545
-6.46619
-5.20931
-5.33955
-5.51067
-5.62774
-5.71882
-5.81219
-5.90355
-5.98544
-6.05816
-6.12403
-6.18395
-6.23805
-6.28661
-6.3302
-6.36943
-6.40507
-6.43778
-6.46834
-5.08839
-5.29353
-5.48608
-5.59829
-5.69435
-5.79851
-5.89792
-5.98477
-6.06113
-6.12992
-6.19199
-6.24748
-6.29682
-6.34063
-6.37958
-6.41468
-6.44703
-6.47806
-4.89642
-5.26895
-5.49381
-5.58979
-5.68138
-5.78978
-5.89245
-5.9808
-6.05851
-6.1288
-6.19229
-6.24891
-6.29905
-6.34323
-6.38197
-6.41591
-6.44634
-6.4746
-4.62981
-5.19347
-5.48325
-5.5896
-5.68897
-5.80594
-5.91429
-6.00551
-6.08466
-6.15578
-6.21973
-6.27654
-6.32655
-6.37028
-6.40804
-6.43948
-6.46539
-6.48627
-7.42075
-7.42087
-7.42092
-7.42091
-7.42061
-7.41938
-7.41686
-7.41353
-7.41037
-7.40839
-7.40856
-7.41107
-7.4154
-7.42079
-7.42645
-7.43173
-7.43607
-7.43905
-7.44066
-7.44125
-7.44109
-7.44039
-7.4394
-7.43839
-7.43761
-7.43716
-7.43698
-7.4369
-7.43672
-7.43636
-7.43583
-7.43514
-7.43425
-7.43307
-7.43169
-7.43039
-7.42981
-7.43063
-7.4329
-7.43595
-7.43883
-7.44104
-7.44276
-7.44441
-7.44641
-7.44928
-7.45272
-7.45568
-7.45775
-7.46097
-7.46916
-7.48634
-7.51249
-7.54614
-7.58721
-7.63687
-7.69509
-7.76013
-7.83013
-7.90298
-7.9764
-8.04854
-8.11834
-8.18488
-8.24726
-8.30502
-8.35803
-8.40622
-8.44965
-8.48842
-8.52262
-8.55235
-8.57768
-8.59867
-8.61534
-8.62772
-8.63578
-8.6395
-8.63882
-8.63373
-8.62411
-8.60994
-8.5911
-8.56752
-8.5391
-8.50575
-8.4674
-8.42401
-8.37553
-8.32196
-8.26319
-8.19914
-8.12969
-8.05478
-7.97435
-7.88837
-7.79685
-7.69986
-7.59755
-7.48989
-7.37661
-7.25754
-7.13292
-7.00283
-6.86738
-6.7266
-6.58056
-6.42932
-6.27296
-6.11152
-5.94509
-5.77374
-5.59754
-5.41659
-5.23094
-5.04071
-4.84596
-4.6468
-4.44332
-4.23562
-4.0238
-3.80798
-3.58826
-3.36478
-3.13766
-2.90704
-2.67304
-2.43584
-2.19555
-1.95236
-1.70645
-1.45806
-1.20742
-0.954728
-0.700171
-0.444046
-0.186588
0.0722327
0.332338
0.593337
0.854966
1.11698
1.37912
1.64115
1.90279
2.16381
2.42393
2.68296
2.94068
3.19689
3.45138
3.70396
3.95441
4.20257
4.44825
4.69128
4.93154
5.16888
5.40321
5.63442
5.86242
6.08715
6.30851
6.52645
6.74089
6.95177
7.15903
7.36261
7.56248
7.75858
7.95084
8.13923
8.32366
8.50406
8.68038
8.85257
9.02096
9.18543
9.34905
9.50312
-7.42197
-7.42215
-7.42252
-7.42289
-7.42287
-7.42204
-7.42012
-7.41767
-7.41595
-7.41589
-7.41777
-7.42142
-7.42633
-7.43184
-7.43735
-7.44234
-7.44646
-7.44952
-7.45131
-7.45164
-7.45061
-7.44856
-7.44592
-7.44317
-7.44073
-7.43888
-7.43765
-7.43685
-7.43622
-7.43563
-7.43505
-7.43449
-7.43387
-7.4331
-7.43217
-7.43149
-7.4318
-7.43359
-7.43659
-7.43981
-7.44207
-7.44299
-7.44304
-7.44222
-7.44074
-7.44016
-7.44296
-7.44939
-7.45578
-7.46237
-7.47267
-7.48792
-7.50965
-7.5412
-7.58505
-7.64029
-7.70414
-7.77407
-7.8476
-7.92216
-7.99595
-8.06781
-8.13641
-8.20051
-8.25995
-8.3148
-8.36505
-8.41078
-8.45208
-8.48906
-8.52178
-8.55034
-8.57475
-8.59505
-8.61122
-8.62327
-8.63113
-8.63478
-8.63414
-8.62915
-8.61974
-8.60583
-8.58732
-8.56414
-8.53617
-8.50333
-8.46552
-8.4227
-8.37484
-8.32188
-8.26377
-8.20041
-8.13169
-8.05754
-7.97788
-7.89269
-7.80192
-7.70555
-7.6035
-7.49575
-7.38254
-7.26404
-7.14016
-7.01088
-6.87624
-6.73629
-6.59108
-6.44066
-6.28511
-6.1245
-5.95888
-5.78834
-5.61296
-5.4328
-5.24796
-5.05851
-4.86456
-4.66618
-4.46348
-4.25654
-4.04548
-3.8304
-3.61141
-3.38865
-3.16223
-2.93229
-2.69897
-2.46241
-2.22275
-1.98015
-1.7348
-1.48694
-1.23678
-0.984465
-0.730125
-0.473902
-0.216043
0.0429567
0.302852
0.563608
0.825015
1.08683
1.34882
1.61072
1.87228
2.13324
2.39336
2.65241
2.91019
3.1665
3.42113
3.67387
3.92453
4.17292
4.41885
4.66217
4.90272
5.14038
5.37503
5.60658
5.83493
6.06
6.28172
6.50003
6.71484
6.92609
7.13373
7.33771
7.53796
7.73446
7.92714
8.11595
8.30088
8.48188
8.65889
8.8319
9.00109
9.16591
9.33157
9.48495
-7.42327
-7.42326
-7.42329
-7.42337
-7.42345
-7.42349
-7.42372
-7.42466
-7.42679
-7.43023
-7.43478
-7.44009
-7.44572
-7.45124
-7.45627
-7.46053
-7.46382
-7.46601
-7.46704
-7.46685
-7.46546
-7.46301
-7.45968
-7.45568
-7.45125
-7.44668
-7.44227
-7.43828
-7.43492
-7.43225
-7.43023
-7.42863
-7.4272
-7.42597
-7.42544
-7.42629
-7.42908
-7.4335
-7.43812
-7.44105
-7.441
-7.43889
-7.43682
-7.43629
-7.43681
-7.43833
-7.44342
-7.45342
-7.46755
-7.48631
-7.51054
-7.5404
-7.57644
-7.61935
-7.66931
-7.72523
-7.78549
-7.84854
-7.91289
-7.97723
-8.04067
-8.1025
-8.16201
-8.21852
-8.27168
-8.32131
-8.36731
-8.40961
-8.44818
-8.48301
-8.51406
-8.54133
-8.56479
-8.5844
-8.6001
-8.61186
-8.61959
-8.62323
-8.6227
-8.61792
-8.6088
-8.59526
-8.57721
-8.55454
-8.52716
-8.49496
-8.45785
-8.41576
-8.36865
-8.31648
-8.25917
-8.19662
-8.12874
-8.05545
-7.97669
-7.89242
-7.80263
-7.70732
-7.60642
-7.49991
-7.38786
-7.2704
-7.14753
-7.01928
-6.88567
-6.74676
-6.60259
-6.45323
-6.29874
-6.13918
-5.97462
-5.80515
-5.63082
-5.45173
-5.26796
-5.07957
-4.88668
-4.68935
-4.4877
-4.2818
-4.07178
-3.85771
-3.63974
-3.41796
-3.19252
-2.96352
-2.73114
-2.49547
-2.25669
-2.01494
-1.77042
-1.52335
-1.27394
-1.02235
-0.768733
-0.513225
-0.256063
0.00236045
0.261785
0.522097
0.78309
1.04454
1.3062
1.56781
1.82913
2.0899
2.34987
2.60883
2.86656
3.12286
3.37752
3.63033
3.88109
4.12962
4.37573
4.61925
4.86002
5.09793
5.33283
5.56463
5.79324
6.01858
6.24056
6.45911
6.67417
6.88568
7.09355
7.29775
7.49822
7.69492
7.8878
8.07681
8.26189
8.44299
8.62016
8.79342
8.96333
9.12873
9.29711
9.44642
-7.4244
-7.42412
-7.42375
-7.42378
-7.42498
-7.42774
-7.43187
-7.43698
-7.44275
-7.44886
-7.45501
-7.46095
-7.46647
-7.47137
-7.47548
-7.47868
-7.48086
-7.48196
-7.48195
-7.4808
-7.47854
-7.47523
-7.47096
-7.46582
-7.45991
-7.45337
-7.44639
-7.43926
-7.43235
-7.42602
-7.42053
-7.4161
-7.41299
-7.41169
-7.41295
-7.417
-7.42274
-7.42814
-7.4317
-7.43306
-7.43278
-7.43244
-7.43357
-7.43695
-7.44309
-7.45274
-7.46677
-7.48586
-7.51011
-7.53914
-7.57247
-7.60982
-7.65104
-7.69599
-7.74448
-7.79606
-7.85011
-7.90586
-7.96249
-8.01921
-8.07535
-8.1303
-8.18353
-8.23458
-8.28309
-8.32881
-8.37155
-8.41117
-8.44756
-8.48063
-8.5103
-8.5365
-8.55915
-8.57817
-8.59348
-8.605
-8.61264
-8.6163
-8.61588
-8.61131
-8.60248
-8.58929
-8.57165
-8.54947
-8.52263
-8.49103
-8.45457
-8.41316
-8.36676
-8.3153
-8.25874
-8.19695
-8.12984
-8.05733
-7.97936
-7.89588
-7.80689
-7.71237
-7.61231
-7.5067
-7.39561
-7.27909
-7.15715
-7.02983
-6.89716
-6.75919
-6.61598
-6.46757
-6.31404
-6.15545
-5.99188
-5.82339
-5.65005
-5.47196
-5.28918
-5.1018
-4.9099
-4.71358
-4.51292
-4.30803
-4.09899
-3.88591
-3.6689
-3.44808
-3.22357
-2.9955
-2.76401
-2.52923
-2.2913
-2.05037
-1.80667
-1.56038
-1.31171
-1.06081
-0.807846
-0.553001
-0.296517
-0.0386803
0.220266
0.480146
0.740746
1.00184
1.26318
1.52453
1.78561
2.0462
2.30603
2.5649
2.82258
3.07888
3.33356
3.58644
3.83731
4.08596
4.33223
4.57593
4.81692
5.05504
5.29018
5.52222
5.75107
5.97665
6.19887
6.41767
6.63296
6.84468
7.05277
7.25716
7.4578
7.65466
7.84768
8.03683
8.22206
8.40336
8.58076
8.75427
8.92458
9.08995
9.25904
9.40209
-7.42671
-7.42612
-7.42574
-7.42721
-7.43151
-7.43789
-7.44526
-7.45294
-7.46046
-7.46751
-7.47393
-7.47965
-7.48463
-7.4888
-7.49208
-7.49438
-7.49564
-7.4958
-7.49486
-7.49278
-7.48956
-7.48526
-7.47991
-7.47357
-7.46631
-7.45819
-7.44931
-7.43989
-7.43025
-7.42091
-7.41248
-7.40577
-7.40175
-7.4014
-7.40459
-7.40949
-7.41442
-7.41864
-7.42199
-7.42488
-7.42812
-7.43281
-7.43996
-7.45055
-7.4654
-7.48476
-7.50823
-7.53525
-7.56557
-7.59883
-7.6348
-7.67343
-7.7147
-7.75856
-7.80482
-7.85311
-7.90299
-7.95392
-8.00535
-8.05673
-8.10756
-8.15741
-8.20587
-8.25259
-8.29727
-8.33965
-8.37954
-8.41676
-8.45115
-8.48258
-8.51093
-8.53608
-8.55792
-8.57633
-8.5912
-8.60242
-8.60989
-8.61349
-8.61311
-8.60865
-8.60001
-8.58708
-8.56976
-8.54795
-8.52154
-8.49041
-8.45447
-8.41361
-8.36777
-8.31693
-8.26096
-8.19979
-8.13331
-8.06143
-7.98412
-7.90131
-7.81301
-7.71917
-7.61982
-7.51493
-7.40459
-7.28878
-7.16758
-7.04098
-6.90905
-6.77181
-6.62934
-6.48169
-6.32892
-6.17111
-6.00832
-5.84062
-5.66809
-5.49081
-5.30885
-5.12229
-4.93122
-4.73574
-4.53591
-4.33185
-4.12364
-3.91139
-3.69519
-3.47518
-3.25145
-3.02416
-2.79341
-2.55936
-2.32213
-2.08191
-1.83887
-1.59324
-1.34516
-1.09483
-0.842382
-0.588045
-0.332051
-0.0746645
0.183898
0.443433
0.703725
0.964543
1.22564
1.48678
1.74769
2.00813
2.26787
2.52668
2.78435
3.04065
3.29538
3.54833
3.79929
4.04806
4.29447
4.53833
4.77949
5.0178
5.25314
5.48539
5.71445
5.94024
6.16268
6.38167
6.59716
6.80907
7.01735
7.22192
7.42275
7.61978
7.81296
8.00227
8.18767
8.36914
8.5467
8.72028
8.89055
9.05524
9.22378
9.36003
-7.431
-7.43009
-7.43065
-7.43522
-7.44277
-7.45132
-7.45998
-7.46825
-7.47586
-7.48273
-7.48885
-7.49421
-7.49875
-7.5024
-7.50508
-7.50675
-7.50733
-7.50681
-7.50515
-7.50235
-7.49841
-7.49337
-7.48723
-7.48
-7.47167
-7.46236
-7.4522
-7.44138
-7.4303
-7.41963
-7.4102
-7.40327
-7.39988
-7.39985
-7.40173
-7.40437
-7.40769
-7.41204
-7.41771
-7.42463
-7.4331
-7.44433
-7.45931
-7.47811
-7.50047
-7.526
-7.55441
-7.58533
-7.61852
-7.6538
-7.69105
-7.73019
-7.77113
-7.81376
-7.85792
-7.90333
-7.94971
-7.99668
-8.0439
-8.09099
-8.1376
-8.18341
-8.2281
-8.27137
-8.31296
-8.35264
-8.39017
-8.42539
-8.45809
-8.48812
-8.51533
-8.53955
-8.56066
-8.5785
-8.59295
-8.60387
-8.61115
-8.61465
-8.61426
-8.60986
-8.60134
-8.58859
-8.5715
-8.54997
-8.52388
-8.49312
-8.45758
-8.41714
-8.37177
-8.32135
-8.26586
-8.20516
-8.13914
-8.06774
-7.9909
-7.90859
-7.82077
-7.72745
-7.62859
-7.52423
-7.41439
-7.29909
-7.17838
-7.05228
-6.92085
-6.78413
-6.64218
-6.49507
-6.34286
-6.18561
-6.0234
-5.85629
-5.68437
-5.5077
-5.32637
-5.14045
-4.95004
-4.7552
-4.55604
-4.35264
-4.14509
-3.93349
-3.71795
-3.49858
-3.27549
-3.04881
-2.81866
-2.58518
-2.34851
-2.10885
-1.86636
-1.62124
-1.37363
-1.12373
-0.87168
-0.617731
-0.362105
-0.10505
0.153224
0.412504
0.672573
0.933193
1.19412
1.4551
1.71589
1.97624
2.23591
2.49469
2.75236
3.00869
3.26346
3.51648
3.76752
4.0164
4.26292
4.5069
4.74819
4.98664
5.22212
5.45452
5.68374
5.90968
6.13226
6.35141
6.56704
6.7791
6.9875
7.19221
7.39315
7.5903
7.78359
7.973
8.15848
8.33999
8.51755
8.691
8.86094
9.02463
9.19234
9.32197
-7.43629
-7.43587
-7.43868
-7.446
-7.45488
-7.4637
-7.4721
-7.47994
-7.48716
-7.49373
-7.4996
-7.50468
-7.50891
-7.5122
-7.51449
-7.51572
-7.51586
-7.51488
-7.51275
-7.50948
-7.50509
-7.49959
-7.49289
-7.48494
-7.47588
-7.46591
-7.45523
-7.44411
-7.43305
-7.42281
-7.41457
-7.4091
-7.40589
-7.40406
-7.40359
-7.40494
-7.4087
-7.41475
-7.42301
-7.43413
-7.44863
-7.46647
-7.48743
-7.51128
-7.53777
-7.56657
-7.59748
-7.63033
-7.66495
-7.70119
-7.73889
-7.77792
-7.81818
-7.85955
-7.90189
-7.94501
-7.98871
-8.03276
-8.0769
-8.12089
-8.16444
-8.20731
-8.24923
-8.28995
-8.32923
-8.36684
-8.40258
-8.43624
-8.46762
-8.49654
-8.52282
-8.54629
-8.56679
-8.58415
-8.59823
-8.60888
-8.61596
-8.61935
-8.61891
-8.61453
-8.60608
-8.59344
-8.57652
-8.55519
-8.52934
-8.49884
-8.46359
-8.42348
-8.37841
-8.32835
-8.27317
-8.21279
-8.14709
-8.07601
-7.99947
-7.91748
-7.82996
-7.73695
-7.63839
-7.53434
-7.42478
-7.30978
-7.18934
-7.06354
-6.93239
-6.79599
-6.65435
-6.50758
-6.35571
-6.19883
-6.03701
-5.87031
-5.69882
-5.52259
-5.34173
-5.15628
-4.96636
-4.77202
-4.57338
-4.37048
-4.16346
-3.95237
-3.73736
-3.51848
-3.2959
-3.06969
-2.84001
-2.60697
-2.37076
-2.13153
-1.88947
-1.64473
-1.3975
-1.1479
-0.896169
-0.64251
-0.387165
-0.130347
0.12772
0.386827
0.646742
0.90723
1.16804
1.42892
1.68963
1.94993
2.20958
2.46836
2.72604
2.9824
3.23722
3.4903
3.74142
3.99037
4.23696
4.48103
4.7224
4.96094
5.19651
5.429
5.65831
5.88435
6.10703
6.32627
6.54199
6.75411
6.96258
7.16735
7.36834
7.56553
7.75887
7.9483
8.13378
8.31525
8.49268
8.66585
8.8353
8.99788
9.1648
9.28827
-7.44041
-7.4413
-7.44677
-7.45514
-7.46368
-7.47187
-7.4797
-7.48714
-7.49408
-7.50045
-7.50613
-7.51103
-7.51507
-7.51816
-7.52023
-7.52124
-7.52114
-7.51992
-7.51756
-7.51407
-7.50947
-7.50365
-7.49655
-7.48833
-7.47923
-7.4694
-7.45905
-7.44865
-7.43897
-7.43074
-7.42428
-7.419
-7.41444
-7.41129
-7.41041
-7.41212
-7.41691
-7.42525
-7.43718
-7.45255
-7.47106
-7.49248
-7.51655
-7.54298
-7.57156
-7.60207
-7.63432
-7.66813
-7.70337
-7.73985
-7.77747
-7.8161
-7.85565
-7.89598
-7.93697
-7.97848
-8.02037
-8.06245
-8.10454
-8.14642
-8.1879
-8.22875
-8.26875
-8.3077
-8.34536
-8.38153
-8.41599
-8.44854
-8.47897
-8.50707
-8.53267
-8.55557
-8.5756
-8.59258
-8.60635
-8.61676
-8.62367
-8.62693
-8.62643
-8.62202
-8.61359
-8.60102
-8.5842
-8.563
-8.53731
-8.507
-8.47195
-8.43205
-8.38721
-8.33734
-8.28238
-8.22219
-8.15668
-8.08576
-8.00939
-7.92754
-7.84017
-7.74727
-7.64884
-7.54487
-7.43542
-7.3205
-7.20016
-7.07445
-6.94342
-6.80713
-6.66563
-6.51901
-6.36733
-6.21065
-6.04906
-5.88262
-5.7114
-5.53547
-5.35492
-5.16982
-4.98026
-4.7863
-4.58804
-4.38555
-4.17892
-3.96824
-3.75362
-3.53515
-3.31295
-3.08712
-2.8578
-2.62512
-2.38926
-2.15038
-1.90866
-1.66422
-1.41725
-1.1679
-0.916398
-0.662964
-0.407822
-0.151174
0.106751
0.365741
0.625556
0.88596
1.1467
1.40753
1.6682
1.92847
2.18812
2.44692
2.70462
2.96103
3.21592
3.46906
3.72024
3.96925
4.2159
4.46001
4.70144
4.94003
5.17566
5.4082
5.63757
5.86367
6.08641
6.30569
6.52144
6.73358
6.94206
7.14683
7.34783
7.54501
7.73834
7.92774
8.11316
8.29451
8.47175
8.64455
8.81343
8.9749
9.14108
9.25901
-7.44164
-7.4442
-7.45123
-7.45928
-7.46714
-7.47483
-7.48233
-7.48954
-7.49634
-7.50262
-7.50825
-7.51312
-7.51713
-7.52019
-7.52224
-7.52323
-7.52314
-7.52192
-7.51957
-7.51609
-7.51143
-7.50551
-7.49845
-7.49049
-7.48182
-7.47269
-7.46354
-7.45488
-7.44709
-7.44017
-7.43392
-7.42823
-7.42347
-7.42065
-7.4206
-7.42387
-7.43085
-7.44157
-7.45573
-7.47315
-7.49354
-7.51661
-7.54211
-7.56977
-7.59935
-7.63067
-7.66352
-7.69774
-7.73317
-7.76967
-7.80712
-7.84542
-7.88444
-7.92406
-7.96419
-8.00469
-8.04545
-8.08631
-8.12712
-8.1677
-8.20788
-8.24748
-8.2863
-8.32414
-8.3608
-8.39606
-8.42973
-8.46157
-8.49139
-8.51897
-8.54411
-8.56661
-8.5863
-8.603
-8.61653
-8.62674
-8.63347
-8.63661
-8.636
-8.63154
-8.6231
-8.61055
-8.59377
-8.57264
-8.54704
-8.51684
-8.48192
-8.44215
-8.39742
-8.34769
-8.29282
-8.23272
-8.16728
-8.0964
-8.02006
-7.93821
-7.85083
-7.75787
-7.65939
-7.55535
-7.44583
-7.33082
-7.21042
-7.08462
-6.95355
-6.81721
-6.67571
-6.52909
-6.37745
-6.22084
-6.05935
-5.89304
-5.72197
-5.54623
-5.36589
-5.18103
-4.99171
-4.79804
-4.60007
-4.3979
-4.19157
-3.98123
-3.76691
-3.54877
-3.32686
-3.10134
-2.87229
-2.6399
-2.40432
-2.16573
-1.92425
-1.68005
-1.43326
-1.18411
-0.932778
-0.679517
-0.42451
-0.167982
0.0898561
0.348769
0.608525
0.868874
1.12957
1.39037
1.65103
1.9113
2.17097
2.42978
2.68753
2.94398
3.19892
3.45213
3.70336
3.9524
4.19909
4.44323
4.68468
4.9233
5.15895
5.39151
5.6209
5.84702
6.06977
6.28905
6.50479
6.71691
6.92536
7.13009
7.33105
7.5282
7.72147
7.91081
8.09612
8.2773
8.45428
8.62667
8.79495
8.95534
9.12083
9.23393
-7.43839
-7.44234
-7.44952
-7.45703
-7.46457
-7.47209
-7.4795
-7.48669
-7.49354
-7.49992
-7.50569
-7.51074
-7.51494
-7.5182
-7.52046
-7.52164
-7.52172
-7.52065
-7.51844
-7.51505
-7.51048
-7.50476
-7.4981
-7.49075
-7.48299
-7.47515
-7.46746
-7.46002
-7.4529
-7.44624
-7.44014
-7.435
-7.4314
-7.4301
-7.43171
-7.43659
-7.44496
-7.45684
-7.47207
-7.49043
-7.51167
-7.53549
-7.56163
-7.58982
-7.61985
-7.65151
-7.68462
-7.71901
-7.75454
-7.79106
-7.82845
-7.86657
-7.90533
-7.94461
-7.98431
-8.02432
-8.06451
-8.10476
-8.14493
-8.18487
-8.22441
-8.26339
-8.30163
-8.33893
-8.37511
-8.40994
-8.44322
-8.47473
-8.50422
-8.5315
-8.55636
-8.57861
-8.59804
-8.6145
-8.6278
-8.63781
-8.64438
-8.64737
-8.64666
-8.64213
-8.63364
-8.62108
-8.60432
-8.58322
-8.55767
-8.52753
-8.49267
-8.45296
-8.40831
-8.35858
-8.30374
-8.24363
-8.17814
-8.1072
-8.03076
-7.94878
-7.86122
-7.7681
-7.6694
-7.56515
-7.4554
-7.34018
-7.21955
-7.09357
-6.9623
-6.8258
-6.68416
-6.53744
-6.38573
-6.22909
-6.0676
-5.90133
-5.73033
-5.55469
-5.37447
-5.18976
-5.00064
-4.80718
-4.60944
-4.40751
-4.20145
-3.99136
-3.77731
-3.55942
-3.33777
-3.11247
-2.88366
-2.6515
-2.41617
-2.17781
-1.93653
-1.6925
-1.44588
-1.19687
-0.94569
-0.692554
-0.437649
-0.181201
0.0765758
0.335439
0.595155
0.85547
1.11614
1.37692
1.63757
1.89785
2.15753
2.41637
2.67416
2.93065
3.18565
3.43892
3.6902
3.93927
4.18596
4.43011
4.67156
4.91017
5.14581
5.37837
5.60774
5.83386
6.05661
6.27586
6.49155
6.70361
6.912
7.11666
7.31755
7.51462
7.70783
7.89706
8.08223
8.2632
8.43988
8.61181
8.77947
8.93882
9.10365
9.21265
-7.42868
-7.43328
-7.44018
-7.44768
-7.45543
-7.46316
-7.47076
-7.47816
-7.48528
-7.49197
-7.49808
-7.50347
-7.50801
-7.51159
-7.51414
-7.5156
-7.51593
-7.5151
-7.51312
-7.51001
-7.50582
-7.50069
-7.49481
-7.48839
-7.48157
-7.47453
-7.46743
-7.4604
-7.45358
-7.44727
-7.44188
-7.43784
-7.43558
-7.43567
-7.43858
-7.44464
-7.45401
-7.46671
-7.48264
-7.50157
-7.52328
-7.54748
-7.57392
-7.60237
-7.63264
-7.66451
-7.6978
-7.73237
-7.76804
-7.80467
-7.84214
-7.88032
-7.9191
-7.95838
-7.99805
-8.03799
-8.0781
-8.11824
-8.15831
-8.19814
-8.23759
-8.27648
-8.31462
-8.35183
-8.38791
-8.42265
-8.45583
-8.48723
-8.51662
-8.54378
-8.5685
-8.59057
-8.60982
-8.62607
-8.63916
-8.64896
-8.65535
-8.65819
-8.65736
-8.65273
-8.64418
-8.63158
-8.61481
-8.59372
-8.56818
-8.53806
-8.50321
-8.4635
-8.4188
-8.36907
-8.31415
-8.25395
-8.18833
-8.11723
-8.04057
-7.95836
-7.87053
-7.77711
-7.67808
-7.57352
-7.46342
-7.34789
-7.22693
-7.10066
-6.96909
-6.83236
-6.69049
-6.5436
-6.39174
-6.23501
-6.07346
-5.90717
-5.73619
-5.56059
-5.38046
-5.19586
-5.0069
-4.81361
-4.61609
-4.41436
-4.20854
-3.99866
-3.78486
-3.56718
-3.34575
-3.12065
-2.89207
-2.66012
-2.42501
-2.18683
-1.94574
-1.70186
-1.45539
-1.20652
-0.955468
-0.70243
-0.447619
-0.191234
0.066484
0.325305
0.584979
0.845265
1.10591
1.36668
1.62732
1.88762
2.14732
2.40619
2.66399
2.92053
3.17559
3.42892
3.68022
3.92929
4.17596
4.42009
4.66151
4.90009
5.13569
5.36821
5.59755
5.82365
6.04638
6.26557
6.48118
6.69315
6.90145
7.10601
7.30681
7.5038
7.69692
7.88603
8.07103
8.25177
8.42812
8.59958
8.76662
8.92499
9.08916
9.1948
-7.41096
-7.41557
-7.42265
-7.43094
-7.43939
-7.44761
-7.45558
-7.46333
-7.47086
-7.47803
-7.48464
-7.49052
-7.49549
-7.49948
-7.50242
-7.50426
-7.50498
-7.50456
-7.50304
-7.50044
-7.49685
-7.49238
-7.48715
-7.48132
-7.47503
-7.46841
-7.46161
-7.45486
-7.44847
-7.4428
-7.43818
-7.43501
-7.43379
-7.43499
-7.43898
-7.44604
-7.45629
-7.46973
-7.48624
-7.50563
-7.52768
-7.55215
-7.57882
-7.6075
-7.63798
-7.67008
-7.70362
-7.73843
-7.77435
-7.81124
-7.84898
-7.88746
-7.92655
-7.96615
-8.00614
-8.04638
-8.08678
-8.12721
-8.16755
-8.20765
-8.24735
-8.2865
-8.32489
-8.36235
-8.39865
-8.43358
-8.46691
-8.49841
-8.52785
-8.55499
-8.57962
-8.60156
-8.62061
-8.63663
-8.64946
-8.65899
-8.66513
-8.66775
-8.66674
-8.66198
-8.65335
-8.64071
-8.6239
-8.6028
-8.57725
-8.5471
-8.5122
-8.47243
-8.42771
-8.37786
-8.32285
-8.26249
-8.19669
-8.12535
-8.04845
-7.96592
-7.87776
-7.78396
-7.68455
-7.57958
-7.4691
-7.35316
-7.23185
-7.10521
-6.97333
-6.83629
-6.69417
-6.54706
-6.39504
-6.2382
-6.07658
-5.91026
-5.73928
-5.56372
-5.38364
-5.19916
-5.01034
-4.81724
-4.61991
-4.4184
-4.2128
-4.00316
-3.78958
-3.57213
-3.35092
-3.12605
-2.89769
-2.66598
-2.43109
-2.19311
-1.95219
-1.70848
-1.46217
-1.21345
-0.96254
-0.709613
-0.454889
-0.198576
0.0590795
0.317848
0.577476
0.837724
1.09834
1.35909
1.61974
1.88003
2.13974
2.39863
2.65646
2.91302
3.16816
3.42157
3.67289
3.92193
4.16857
4.41265
4.65402
4.89255
5.1281
5.36055
5.58984
5.81592
6.03862
6.25774
6.47325
6.68511
6.8933
7.09776
7.29844
7.49534
7.68836
7.87735
8.06216
8.24264
8.41864
8.58962
8.75604
8.9135
9.07699
9.17998
-7.38486
-7.38932
-7.39733
-7.40703
-7.41649
-7.42527
-7.43367
-7.44194
-7.45016
-7.4581
-7.46545
-7.47196
-7.47749
-7.48198
-7.48542
-7.48777
-7.48901
-7.48914
-7.48816
-7.48612
-7.48307
-7.47912
-7.47436
-7.4689
-7.46288
-7.45648
-7.44995
-7.44355
-7.43758
-7.43238
-7.42836
-7.42598
-7.42567
-7.42785
-7.43283
-7.4408
-7.45185
-7.46595
-7.48297
-7.50275
-7.5251
-7.54982
-7.57674
-7.60567
-7.63644
-7.66887
-7.70277
-7.73797
-7.7743
-7.81162
-7.84982
-7.88877
-7.92836
-7.96846
-8.00896
-8.04975
-8.09071
-8.13171
-8.17262
-8.21327
-8.25351
-8.29318
-8.33209
-8.37003
-8.40678
-8.4421
-8.47576
-8.50749
-8.537
-8.56406
-8.58847
-8.61011
-8.62881
-8.64443
-8.65682
-8.66591
-8.67167
-8.67401
-8.67281
-8.66795
-8.65929
-8.64664
-8.62986
-8.60878
-8.58322
-8.55298
-8.51795
-8.4781
-8.43329
-8.3834
-8.32824
-8.26773
-8.20174
-8.13017
-8.05301
-7.97016
-7.88166
-7.78745
-7.68764
-7.58224
-7.47137
-7.35504
-7.23336
-7.10636
-6.97416
-6.83681
-6.69445
-6.54714
-6.39498
-6.23804
-6.07638
-5.91006
-5.73913
-5.56364
-5.38366
-5.19933
-5.01067
-4.81778
-4.62067
-4.41941
-4.21404
-4.00467
-3.79134
-3.57417
-3.35323
-3.12867
-2.90058
-2.66917
-2.43452
-2.19678
-1.95606
-1.71257
-1.46645
-1.21793
-0.967173
-0.714393
-0.459781
-0.20358
0.0539838
0.31266
0.572212
0.832388
1.09295
1.35365
1.61426
1.87453
2.13422
2.39309
2.65091
2.90748
3.16274
3.41631
3.66766
3.91666
4.16323
4.40725
4.64856
4.88702
5.1225
5.35489
5.58411
5.81021
6.03291
6.25195
6.46733
6.67908
6.88713
7.09148
7.29205
7.48885
7.68179
7.87064
8.05525
8.23547
8.41111
8.58161
8.74744
8.90405
9.06681
9.16784
-7.35163
-7.35642
-7.36594
-7.37743
-7.388
-7.3975
-7.40666
-7.41564
-7.42455
-7.43339
-7.44181
-7.44931
-7.45553
-7.4605
-7.46443
-7.46732
-7.46913
-7.46981
-7.46936
-7.4678
-7.46519
-7.46157
-7.45705
-7.45177
-7.44589
-7.43965
-7.43326
-7.42703
-7.42131
-7.41653
-7.41309
-7.41143
-7.41195
-7.41499
-7.4208
-7.42954
-7.44124
-7.45586
-7.47331
-7.49346
-7.51614
-7.54116
-7.56838
-7.59761
-7.62871
-7.66149
-7.69576
-7.73137
-7.76816
-7.80599
-7.84475
-7.88429
-7.92449
-7.96523
-8.00641
-8.04791
-8.0896
-8.13134
-8.173
-8.2144
-8.25536
-8.2957
-8.33522
-8.3737
-8.4109
-8.44658
-8.48045
-8.51223
-8.54159
-8.56828
-8.59218
-8.61325
-8.6314
-8.64642
-8.65808
-8.66642
-8.67167
-8.67374
-8.67246
-8.66767
-8.65919
-8.64677
-8.63017
-8.60923
-8.5837
-8.55335
-8.51815
-8.47822
-8.43343
-8.38345
-8.32818
-8.2675
-8.20131
-8.12954
-8.05211
-7.96897
-7.88006
-7.78544
-7.68516
-7.57933
-7.46802
-7.3513
-7.22923
-7.10187
-6.9693
-6.83165
-6.68902
-6.54152
-6.38922
-6.23221
-6.07053
-5.90424
-5.73339
-5.55805
-5.37828
-5.19415
-5.00571
-4.81301
-4.61612
-4.4151
-4.20999
-4.00088
-3.78783
-3.57097
-3.35039
-3.12621
-2.89854
-2.66752
-2.43323
-2.19582
-1.95543
-1.71225
-1.46644
-1.21821
-0.967731
-0.715202
-0.460829
-0.204862
0.052474
0.310928
0.570262
0.830229
1.09059
1.3511
1.61153
1.87162
2.13113
2.38982
2.64745
2.90384
3.15906
3.41269
3.66401
3.91291
4.15938
4.40331
4.64453
4.88291
5.11832
5.35063
5.57982
5.80604
6.02883
6.24777
6.46303
6.67465
6.88259
7.08683
7.28731
7.48406
7.67695
7.86568
8.05009
8.23002
8.40531
8.57534
8.7406
8.8964
9.05838
9.15812
-7.3143
-7.31998
-7.33154
-7.34523
-7.35695
-7.36674
-7.37629
-7.38632
-7.3965
-7.40647
-7.41593
-7.42444
-7.43144
-7.43693
-7.4413
-7.44471
-7.44704
-7.44821
-7.44819
-7.44698
-7.44461
-7.44116
-7.43673
-7.43147
-7.42555
-7.41923
-7.4128
-7.40662
-7.4011
-7.39664
-7.39367
-7.39259
-7.39373
-7.3974
-7.40379
-7.41303
-7.42514
-7.4401
-7.45784
-7.47824
-7.50114
-7.5264
-7.55386
-7.58338
-7.61477
-7.64786
-7.68248
-7.71848
-7.75573
-7.79408
-7.83339
-7.87355
-7.91443
-7.95591
-7.99785
-8.04013
-8.0826
-8.12509
-8.16745
-8.20948
-8.25102
-8.29184
-8.33175
-8.37052
-8.4079
-8.44363
-8.47741
-8.50891
-8.53773
-8.56352
-8.58635
-8.60649
-8.6239
-8.6382
-8.64876
-8.65579
-8.66011
-8.66179
-8.66055
-8.65611
-8.64814
-8.63627
-8.62017
-8.59967
-8.57474
-8.54527
-8.51105
-8.47185
-8.4274
-8.37757
-8.32228
-8.26151
-8.19515
-8.12315
-8.04541
-7.96189
-7.87252
-7.77739
-7.67656
-7.57019
-7.45832
-7.34108
-7.21847
-7.09062
-6.95757
-6.8195
-6.67649
-6.5287
-6.37615
-6.21897
-6.05718
-5.89084
-5.72002
-5.54478
-5.36518
-5.18122
-4.99296
-4.80043
-4.60375
-4.40292
-4.19806
-3.98919
-3.77644
-3.55988
-3.33966
-3.11586
-2.88862
-2.65798
-2.42408
-2.18703
-1.94701
-1.70417
-1.45873
-1.21085
-0.960719
-0.708503
-0.45446
-0.198805
0.0582073
0.316347
0.575359
0.835009
1.09505
1.35524
1.61534
1.87511
2.13428
2.3926
2.64981
2.90568
3.15998
3.41256
3.66322
3.91176
4.15795
4.40162
4.6426
4.88074
5.11589
5.34796
5.57695
5.80315
6.02595
6.24474
6.45985
6.67134
6.87918
7.08332
7.28373
7.48052
7.67349
7.86215
8.04635
8.22602
8.40097
8.57056
8.73527
8.89032
9.05149
9.15059
-7.27651
-7.28342
-7.29746
-7.31308
-7.32512
-7.33536
-7.346
-7.35715
-7.36839
-7.37938
-7.38985
-7.39928
-7.40704
-7.41314
-7.41807
-7.42203
-7.42486
-7.42645
-7.42676
-7.42577
-7.42349
-7.42
-7.41542
-7.40991
-7.40371
-7.39711
-7.39043
-7.3841
-7.3785
-7.37407
-7.3712
-7.37027
-7.37157
-7.3754
-7.3819
-7.39122
-7.40336
-7.41834
-7.43608
-7.45647
-7.47942
-7.50479
-7.53243
-7.56219
-7.59387
-7.62728
-7.66227
-7.69869
-7.73642
-7.77531
-7.81522
-7.85599
-7.89749
-7.93958
-7.98213
-8.02499
-8.06799
-8.11095
-8.1537
-8.19604
-8.2378
-8.27874
-8.31867
-8.35736
-8.39457
-8.43004
-8.46348
-8.49449
-8.52242
-8.54649
-8.56707
-8.58532
-8.60164
-8.61578
-8.62712
-8.63525
-8.64007
-8.64178
-8.64054
-8.63622
-8.62845
-8.61684
-8.60097
-8.58079
-8.55641
-8.52783
-8.49462
-8.45619
-8.4122
-8.36262
-8.30751
-8.24682
-8.18047
-8.10834
-8.03041
-7.9466
-7.85691
-7.76139
-7.66018
-7.55338
-7.44109
-7.32338
-7.20036
-7.07208
-6.93866
-6.80025
-6.65698
-6.50894
-6.35623
-6.19893
-6.03709