/*--------------------------------*- C++ -*----------------------------------*\
  =========                 |
  \\      /  F ield         | OpenFOAM: The Open Source CFD Toolbox
   \\    /   O peration     | Website:  https://openfoam.org
    \\  /    A nd           | Version:  8
     \\/     M anipulation  |
\*---------------------------------------------------------------------------*/
FoamFile
{
    version     2.0;
    format      ascii;
    class       volScalarField;
    location    "3400";
    object      nuTilda;
}
// * * * * * * * * * * * * * * * * * * * * * * * * * * * * * * * * * * * * * //

dimensions      [0 2 -1 0 0 0 0];

internalField   nonuniform List<scalar> 
12225
(
0.0122671
0.00158833
0.000666932
0.000412201
0.000298001
0.000234418
0.000192049
0.000186517
0.000141364
0.000110262
9.73198e-05
9.07188e-05
8.20026e-05
7.63415e-05
7.17064e-05
7.01716e-05
6.81326e-05
7.4004e-05
0.0323823
0.00744533
0.00330642
0.00204338
0.00146818
0.00114477
0.000936742
0.000800566
0.000680242
0.000578059
0.000507246
0.00045356
0.000411866
0.00038037
0.000352019
0.000329992
0.000313752
0.000295878
0.0490123
0.01515
0.00728196
0.00457856
0.00330642
0.00258059
0.00211241
0.00178924
0.00154196
0.00134781
0.00119795
0.00107898
0.000982387
0.000902872
0.000836435
0.000781443
0.000736156
0.00068788
0.063054
0.0237783
0.0122894
0.00788815
0.00573398
0.004485
0.00367415
0.00310736
0.00268476
0.00235811
0.00210119
0.00189468
0.00172542
0.00158464
0.00146629
0.00136623
0.00128167
0.00119813
0.074932
0.0328517
0.0181452
0.0119262
0.00874549
0.00686413
0.00563081
0.00476256
0.0041175
0.00362032
0.00322735
0.00290996
0.00264904
0.00243149
0.00224806
0.00209196
0.00195835
0.00183636
0.0849536
0.0420208
0.0246655
0.0166359
0.0123325
0.00972587
0.00799539
0.00676785
0.00585346
0.0051477
0.00458846
0.00413589
0.00376336
0.00345242
0.00318986
0.00296599
0.00277364
0.00260476
0.0933822
0.0510219
0.0316642
0.0219415
0.016474
0.0130717
0.0107779
0.00913552
0.00790571
0.0069534
0.0061969
0.00558368
0.00507838
0.00465633
0.00429977
0.00399562
0.00373416
0.00350821
0.0993794
0.0583363
0.0378386
0.0268568
0.0204171
0.0163053
0.0134891
0.011453
0.00991891
0.00872629
0.00777635
0.00700498
0.00636867
0.00583685
0.00538741
0.00500398
0.00467453
0.00439127
0.104023
0.0645454
0.0433804
0.0314239
0.0241571
0.0194092
0.0161097
0.0137018
0.0118766
0.0104521
0.00931443
0.00838904
0.00762485
0.00698575
0.00644545
0.0059845
0.00558859
0.00524877
0.108368
0.0708939
0.0493756
0.0365496
0.0284517
0.0230231
0.0191863
0.0163547
0.0141926
0.0124968
0.011138
0.0100303
0.00911434
0.0083476
0.0076991
0.00714579
0.00667068
0.00626298
0.112368
0.0772557
0.0557282
0.0421918
0.0332976
0.0271652
0.0227467
0.0194432
0.0168984
0.0148903
0.0132749
0.0119544
0.0108605
0.00994379
0.00916796
0.00850586
0.00793736
0.00744915
0.115994
0.0834975
0.0623053
0.0482611
0.0386474
0.0318167
0.026789
0.0229739
0.0200046
0.0176452
0.0157378
0.0141736
0.0128749
0.011785
0.0108618
0.0100736
0.00939671
0.00881464
0.119234
0.0894856
0.0689377
0.0546109
0.0443919
0.0369007
0.0312597
0.0269088
0.0234836
0.02074
0.0185096
0.0166735
0.0151449
0.01386
0.0127704
0.0118396
0.0110397
0.0103508
0.122086
0.095084
0.075415
0.0610223
0.0503361
0.0422534
0.0360231
0.0311353
0.0272402
0.024093
0.021519
0.0193908
0.017614
0.0161174
0.0148466
0.01376
0.0128257
0.0120196
0.124546
0.100135
0.0814619
0.0671725
0.056158
0.047577
0.0408126
0.0354174
0.031066
0.0275196
0.0246012
0.0221777
0.0201481
0.0184349
0.0169782
0.0157314
0.0146583
0.0137311
0.126578
0.104396
0.0866605
0.0725515
0.0613228
0.0523526
0.0451453
0.0393148
0.0345631
0.0306611
0.0274325
0.0247409
0.0224806
0.020569
0.0189413
0.0175468
0.0163454
0.0153061
0.128011
0.107322
0.0902141
0.0762353
0.0648743
0.0556509
0.0481493
0.0420254
0.0370012
0.0328553
0.0294126
0.0265352
0.0241143
0.0220643
0.0203172
0.0188191
0.0175275
0.0164083
0.128006
0.107313
0.0902048
0.0762269
0.0648674
0.0556454
0.048145
0.0420222
0.0369988
0.0328537
0.0294117
0.0265349
0.0241147
0.0220652
0.0203185
0.0188206
0.0175287
0.0164083
0.126509
0.104255
0.0864922
0.0723807
0.0611613
0.052205
0.0450128
0.0391967
0.0344585
0.0305686
0.0273506
0.0246684
0.0224163
0.0205118
0.0188903
0.0175006
0.0163024
0.0152631
0.124267
0.0995604
0.0807712
0.0664676
0.0554886
0.0469631
0.0402594
0.0349228
0.0306248
0.0271258
0.0242488
0.0218611
0.0198626
0.0181762
0.0167426
0.0155152
0.0144575
0.0135405
0.12136
0.0936399
0.0737261
0.0593348
0.0487592
0.0408249
0.0347467
0.0300003
0.0262308
0.0231928
0.0207127
0.018665
0.0169572
0.0155198
0.0142999
0.0132567
0.0123583
0.0115798
0.117686
0.0865903
0.0656967
0.0514791
0.0415374
0.0343608
0.0290184
0.0249322
0.0217348
0.0191848
0.0171184
0.0154211
0.0140106
0.0128263
0.0118229
0.0109657
0.010228
0.00958896
0.11305
0.0784122
0.056921
0.0432687
0.0342296
0.0279652
0.0234365
0.0200435
0.0174263
0.0153597
0.0136966
0.0123369
0.0112106
0.0102671
0.00946866
0.0087872
0.00820103
0.00769348
0.107169
0.0691009
0.0476372
0.035029
0.0271566
0.021922
0.0182437
0.0155401
0.0134817
0.0118706
0.0105816
0.00953197
0.00866487
0.00793967
0.00732669
0.00680381
0.00635414
0.00596496
0.0996761
0.0587036
0.0381279
0.0270699
0.0205782
0.016433
0.0135949
0.0115438
0.00999923
0.00879908
0.00784341
0.00706756
0.0064279
0.00589362
0.00544223
0.00505744
0.00472641
0.00444014
0.0901097
0.0473665
0.0287363
0.0196847
0.0146976
0.0116312
0.00957853
0.00811528
0.00702332
0.00617995
0.00551057
0.00496796
0.0045211
0.00414829
0.00383303
0.00356481
0.00333351
0.00313393
0.0779076
0.0353826
0.0198606
0.0131383
0.00966107
0.00759298
0.00623353
0.00527431
0.00456401
0.00401885
0.00358698
0.00323617
0.00294707
0.00270637
0.00250146
0.00232872
0.00217807
0.002049
0.06238
0.0232554
0.0119461
0.00765494
0.00556339
0.00435258
0.00356726
0.00301643
0.00261312
0.00230801
0.00206663
0.00186735
0.00170199
0.00156527
0.00144546
0.00134752
0.00125927
0.00118383
0.0426105
0.0117794
0.00546931
0.00341388
0.00246077
0.00192015
0.0015729
0.00132905
0.00115969
0.00103887
0.000944519
0.000858388
0.00078502
0.000723395
0.000666116
0.000615928
0.000577968
0.000533747
0.0168348
0.0025599
0.00110031
0.000684192
0.000495179
0.000389152
0.00032166
0.000270755
0.000280886
0.000338911
0.00038499
0.000372861
0.000345925
0.000310979
0.000288492
0.000249533
0.000259798
0.000189693
3.78135e-06
1.43226e-05
2.60298e-05
3.85383e-05
4.60117e-05
4.96626e-05
5.01557e-05
4.78127e-05
4.46222e-05
3.95534e-05
3.42188e-05
2.94475e-05
2.67702e-05
2.7448e-05
2.96319e-05
3.14814e-05
3.13384e-05
2.85141e-05
2.3871e-05
2.02114e-05
2.08252e-05
2.64252e-05
3.93447e-05
6.3913e-05
8.72036e-05
0.000100617
0.000113338
0.000124346
0.000134332
0.000142835
0.000150426
0.000157045
0.000162907
0.000168061
0.000172593
0.00017662
0.000180207
0.000183426
0.000186323
0.000188934
0.000191283
0.000193389
0.000195267
0.00019693
0.000198389
0.000199657
0.000200743
0.000201651
0.000202384
0.000202808
0.000203299
0.000203382
0.000203441
0.000203326
0.000203048
0.000202634
0.000202078
0.000201386
0.000200557
0.000199596
0.000198504
0.000197282
0.000195935
0.000194465
0.000192875
0.000191168
0.000189344
0.000187407
0.000185361
0.000183208
0.000180951
0.000178592
0.000176134
0.00017358
0.000170932
0.000168193
0.000165365
0.000162452
0.000159456
0.00015638
0.000153224
0.000149988
0.000146671
0.000143269
0.000139779
0.000136194
0.000132508
0.000128712
0.000124794
0.00012074
0.000116533
0.000112159
0.000107618
0.000102963
9.83988e-05
9.4417e-05
9.15946e-05
8.98387e-05
8.85244e-05
8.73196e-05
8.61363e-05
8.49575e-05
8.37815e-05
8.26091e-05
8.14411e-05
8.02784e-05
7.91224e-05
7.79774e-05
7.68644e-05
7.59099e-05
7.49759e-05
7.40479e-05
7.3128e-05
7.22164e-05
7.13133e-05
7.04192e-05
6.95345e-05
6.86595e-05
6.77945e-05
6.69395e-05
6.60949e-05
6.52609e-05
6.44377e-05
6.36259e-05
6.28254e-05
6.20359e-05
6.12587e-05
6.05195e-05
5.98422e-05
5.91736e-05
5.85102e-05
5.78601e-05
5.72282e-05
5.66014e-05
5.59794e-05
5.53655e-05
5.47607e-05
5.41656e-05
5.35801e-05
5.30043e-05
5.24379e-05
5.18808e-05
5.1333e-05
5.07941e-05
5.02642e-05
4.97432e-05
4.92308e-05
4.8727e-05
4.82317e-05
4.77449e-05
4.72665e-05
4.67964e-05
4.63346e-05
4.5881e-05
4.54357e-05
4.49986e-05
4.457e-05
4.41497e-05
4.3738e-05
4.3335e-05
4.29409e-05
4.2556e-05
4.21804e-05
4.18145e-05
4.14584e-05
4.11122e-05
4.07759e-05
4.04493e-05
4.0132e-05
3.98231e-05
3.95208e-05
3.92253e-05
3.89275e-05
3.86409e-05
3.8312e-05
3.80563e-05
3.75485e-05
3.73537e-05
3.6303e-05
3.49087e-05
5.89799e-06
4.05891e-05
9.24663e-05
0.000153708
0.000192552
0.000214556
0.000223347
0.00022192
0.000214075
0.000198516
0.000179499
0.000161545
0.000152478
0.000157005
0.000169319
0.000177334
0.000179532
0.000180676
0.000185633
0.000194342
0.00020808
0.000224515
0.000240379
0.000256188
0.000267069
0.000276647
0.000285197
0.000297695
0.000316343
0.000330006
0.000342519
0.000353264
0.000363044
0.000372016
0.000379813
0.000386936
0.000393572
0.000399942
0.000406175
0.000412335
0.000418417
0.000424379
0.000430169
0.000435745
0.000441079
0.000446155
0.000450957
0.000455474
0.000459705
0.00046365
0.000467349
0.000470768
0.000473944
0.000476866
0.00047954
0.000481966
0.000484146
0.000486079
0.000487767
0.000489208
0.000490405
0.000491358
0.00049207
0.000492544
0.000492791
0.000492815
0.000492612
0.000492178
0.000491529
0.000490668
0.000489601
0.000488336
0.000486878
0.000485235
0.000483413
0.00048142
0.000479263
0.00047695
0.000474489
0.000471887
0.000469153
0.000466295
0.000463321
0.000460238
0.000457054
0.000453778
0.000450417
0.000446979
0.000443473
0.000439906
0.000436285
0.000432615
0.000428896
0.00042512
0.000421269
0.000417317
0.000413248
0.00040909
0.000404893
0.000400681
0.000396463
0.000392243
0.000388022
0.000383806
0.000379598
0.000375401
0.000371218
0.000367051
0.0003629
0.000358763
0.000354651
0.000350568
0.000346516
0.000342497
0.000338513
0.000334565
0.000330654
0.000326784
0.000322954
0.000319166
0.000315421
0.000311719
0.000308062
0.000304451
0.000300887
0.00029737
0.000293899
0.000290472
0.00028709
0.000283754
0.000280464
0.000277227
0.000274045
0.000270901
0.000267795
0.000264733
0.000261717
0.000258747
0.000255825
0.000252949
0.000250119
0.000247335
0.000244596
0.000241901
0.000239249
0.000236641
0.000234075
0.000231551
0.000229069
0.000226628
0.000224228
0.000221868
0.000219549
0.00021727
0.000215031
0.000212832
0.000210674
0.000208558
0.000206483
0.00020445
0.000202462
0.000200519
0.000198622
0.000196774
0.000194975
0.000193227
0.000191531
0.000189887
0.000188293
0.000186749
0.000185248
0.000183794
0.000182358
0.000180995
0.000179511
0.000178387
0.000176292
0.000175969
0.00017299
0.000172128
1.28768e-05
7.40671e-05
0.000174307
0.000251875
0.000303656
0.000333362
0.000344211
0.000341392
0.000328794
0.000309923
0.000290642
0.00027829
0.000276101
0.000282577
0.000292642
0.000303196
0.000315666
0.000332282
0.000353517
0.000378318
0.000405392
0.000433481
0.000471404
0.000517519
0.000562968
0.000606968
0.000649947
0.000693518
0.00073278
0.000764017
0.000788988
0.000808785
0.00082448
0.000836933
0.000846926
0.000855233
0.000862554
0.000869533
0.000876706
0.000884429
0.00089281
0.000901724
0.000910934
0.000920202
0.000929351
0.000938263
0.00094686
0.000955095
0.000962931
0.00097034
0.000977301
0.000983782
0.000989782
0.000995293
0.00100031
0.00100484
0.00100888
0.00101243
0.00101548
0.00101804
0.00102011
0.00102168
0.00102277
0.00102331
0.00102347
0.00102318
0.00102239
0.00102115
0.00101946
0.00101735
0.00101481
0.00101187
0.00100853
0.00100482
0.00100074
0.000996313
0.000991549
0.000986464
0.000981074
0.000975393
0.000969437
0.000963221
0.000956761
0.00095007
0.000943165
0.00093606
0.00092877
0.000921309
0.00091369
0.000905928
0.000898033
0.000890017
0.00088189
0.00087366
0.000865334
0.000856923
0.000848439
0.000839897
0.000831315
0.000822706
0.00081408
0.000805446
0.000796812
0.000788186
0.000779575
0.000770986
0.000762426
0.0007539
0.000745414
0.000736974
0.000728584
0.000720252
0.00071198
0.000703774
0.000695637
0.000687572
0.000679582
0.000671671
0.00066384
0.000656093
0.000648431
0.000640856
0.00063337
0.000625974
0.000618671
0.000611461
0.000604343
0.000597319
0.000590388
0.000583553
0.000576813
0.000570168
0.000563617
0.000557154
0.000550778
0.000544492
0.000538297
0.000532194
0.000526183
0.000520264
0.000514435
0.000508696
0.000503046
0.000497483
0.000492007
0.000486616
0.000481309
0.000476086
0.000470944
0.000465882
0.000460901
0.000455998
0.000451172
0.000446423
0.00044175
0.00043715
0.000432623
0.000428168
0.000423784
0.00041947
0.000415223
0.000411042
0.000406927
0.000402873
0.00039888
0.000394942
0.000391058
0.00038722
0.000383424
0.000379659
0.000375915
0.000372177
0.00036842
0.000364628
0.000360725
0.000356747
0.000352328
0.000348026
0.000341568
0.000330416
2.17718e-05
0.000106435
0.000220241
0.000312837
0.000375514
0.000412496
0.000427922
0.000428308
0.000418389
0.000405119
0.000397052
0.000396225
0.000405353
0.000422395
0.000444955
0.000472509
0.000505661
0.00054478
0.000589065
0.000651119
0.000724823
0.000804488
0.00088865
0.000959247
0.00102163
0.00107772
0.00112811
0.00117299
0.00121224
0.00124611
0.00127534
0.00130067
0.00132278
0.00134232
0.00135985
0.00137587
0.00139079
0.00140495
0.00141861
0.00143196
0.00144512
0.00145817
0.00147113
0.00148398
0.00149667
0.00150913
0.00152126
0.00153296
0.00154415
0.00155475
0.0015647
0.00157397
0.00158254
0.0015904
0.00159754
0.00160395
0.00160962
0.00161456
0.00161876
0.00162222
0.00162494
0.00162692
0.00162807
0.00162851
0.00162838
0.00162747
0.00162585
0.00162353
0.00162053
0.00161687
0.00161258
0.00160766
0.00160214
0.00159604
0.00158938
0.00158219
0.00157448
0.00156629
0.00155762
0.00154851
0.00153899
0.00152906
0.00151876
0.0015081
0.00149712
0.00148583
0.00147426
0.00146243
0.00145035
0.00143805
0.00142556
0.00141288
0.00140003
0.00138703
0.0013739
0.00136066
0.00134731
0.00133388
0.0013204
0.00130687
0.00129331
0.00127974
0.00126617
0.00125262
0.00123909
0.00122559
0.00121214
0.00119874
0.0011854
0.00117214
0.00115896
0.00114586
0.00113286
0.00111996
0.00110717
0.00109449
0.00108192
0.00106948
0.00105716
0.00104497
0.00103291
0.00102099
0.0010092
0.000997558
0.000986054
0.000974692
0.000963474
0.000952401
0.000941473
0.000930691
0.000920057
0.000909568
0.000899223
0.000889018
0.000878951
0.000869024
0.000859238
0.000849593
0.000840089
0.000830726
0.000821502
0.000812416
0.000803466
0.000794651
0.000785969
0.000777418
0.000768997
0.000760704
0.000752537
0.000744493
0.000736573
0.000728772
0.000721091
0.000713526
0.000706077
0.000698741
0.000691516
0.000684401
0.000677393
0.00067049
0.00066369
0.00065699
0.000650388
0.000643879
0.000637459
0.000631125
0.000624869
0.000618684
0.00061256
0.000606486
0.000600445
0.000594416
0.000588369
0.000582267
0.000576046
0.000569652
0.000562901
0.000555739
0.000547519
0.000531421
2.69714e-05
0.000122013
0.000241117
0.000357837
0.000435856
0.000483017
0.000506516
0.00051494
0.000516507
0.00051749
0.000524336
0.000540424
0.000566374
0.000601237
0.000644239
0.000695403
0.000755378
0.000838682
0.000934259
0.0010304
0.00111936
0.00120372
0.00128303
0.00135571
0.00142245
0.00148385
0.0015403
0.00159215
0.00163974
0.0016835
0.00172393
0.00176149
0.00179662
0.00182969
0.00186102
0.00189086
0.00191941
0.00194679
0.00197312
0.00199844
0.0020228
0.00204621
0.00206865
0.00209011
0.00211058
0.00213001
0.00214838
0.00216565
0.00218181
0.00219683
0.0022107
0.00222343
0.00223502
0.00224549
0.00225486
0.00226315
0.00227036
0.00227653
0.00228165
0.00228576
0.00228885
0.0022909
0.00229182
0.00229191
0.00229103
0.00228915
0.00228632
0.00228255
0.00227786
0.00227228
0.00226583
0.00225854
0.00225045
0.00224157
0.00223194
0.00222158
0.00221054
0.00219884
0.00218651
0.00217358
0.00216008
0.00214605
0.00213151
0.0021165
0.00210105
0.00208519
0.00206895
0.00205235
0.00203543
0.00201822
0.00200073
0.00198301
0.00196507
0.00194693
0.00192862
0.00191017
0.00189159
0.00187291
0.00185416
0.00183535
0.0018165
0.00179764
0.00177879
0.00175995
0.00174115
0.00172241
0.00170372
0.00168511
0.00166659
0.00164817
0.00162986
0.00161168
0.00159362
0.0015757
0.00155793
0.00154032
0.00152286
0.00150557
0.00148846
0.00147152
0.00145476
0.00143818
0.0014218
0.0014056
0.0013896
0.00137379
0.00135818
0.00134277
0.00132755
0.00131254
0.00129773
0.00128311
0.00126869
0.00125447
0.00124044
0.0012266
0.00121295
0.00119949
0.00118623
0.00117316
0.00116027
0.00114758
0.00113507
0.00112274
0.00111059
0.00109863
0.00108683
0.00107522
0.00106377
0.00105249
0.00104138
0.00103043
0.00101964
0.00100901
0.000998538
0.000988217
0.000978047
0.000968024
0.000958146
0.00094841
0.000938812
0.000929349
0.000920018
0.000910813
0.00090173
0.000892762
0.000883902
0.000875141
0.000866466
0.000857864
0.000849315
0.000840795
0.000832269
0.000823694
0.000815002
0.000806123
0.000796892
0.000787162
0.000777206
0.000757421
3.07982e-05
0.00013532
0.000261507
0.000392469
0.000488741
0.000550344
0.000588062
0.000611449
0.000629155
0.000648429
0.00067451
0.000710048
0.000755784
0.000811998
0.000879098
0.000969522
0.00107459
0.00117626
0.00127544
0.00137091
0.00146159
0.00154757
0.0016288
0.00170524
0.00177719
0.001845
0.00190901
0.00196956
0.00202696
0.00208157
0.00213369
0.00218361
0.00223159
0.00227783
0.0023225
0.00236571
0.00240756
0.00244809
0.00248735
0.00252533
0.00256204
0.00259746
0.00263155
0.00266428
0.00269562
0.00272553
0.00275395
0.00278086
0.00280622
0.00282999
0.00285214
0.00287266
0.00289153
0.00290873
0.00292427
0.00293814
0.00295034
0.00296088
0.00296977
0.00297703
0.00298269
0.00298677
0.0029892
0.00299009
0.00298963
0.00298766
0.00298432
0.00297961
0.00297361
0.00296636
0.00295791
0.00294832
0.00293763
0.0029259
0.00291318
0.00289952
0.00288496
0.00286954
0.00285332
0.00283633
0.00281861
0.00280022
0.00278119
0.00276155
0.00274136
0.00272065
0.00269947
0.00267784
0.00265581
0.00263341
0.00261067
0.00258765
0.00256435
0.00254082
0.00251709
0.00249318
0.00246912
0.00244495
0.00242069
0.00239637
0.002372
0.00234763
0.00232327
0.00229893
0.00227465
0.00225043
0.0022263
0.00220227
0.00217836
0.00215458
0.00213094
0.00210746
0.00208415
0.00206101
0.00203807
0.00201532
0.00199278
0.00197046
0.00194835
0.00192647
0.00190482
0.0018834
0.00186223
0.00184129
0.00182061
0.00180017
0.00177998
0.00176004
0.00174036
0.00172093
0.00170175
0.00168282
0.00166415
0.00164572
0.00162753
0.00160959
0.0015919
0.00157445
0.00155724
0.00154027
0.00152355
0.00150705
0.0014908
0.00147477
0.00145897
0.0014434
0.00142805
0.00141292
0.001398
0.00138329
0.0013688
0.00135451
0.00134042
0.00132653
0.00131284
0.00129934
0.00128603
0.0012729
0.00125995
0.00124719
0.0012346
0.00122218
0.00120992
0.00119782
0.00118588
0.00117409
0.00116243
0.0011509
0.00113949
0.00112818
0.00111694
0.00110576
0.00109459
0.00108339
0.00107209
0.00106062
0.00104881
0.0010366
0.00102443
0.00100196
3.23484e-05
0.000142503
0.000273972
0.000409855
0.000527791
0.000609008
0.000665058
0.000706975
0.000743965
0.000783276
0.000829958
0.000886959
0.000955907
0.00104817
0.00115512
0.00126168
0.00136776
0.0014711
0.00157115
0.00166749
0.00175987
0.0018483
0.00193285
0.0020137
0.00209109
0.00216528
0.00223655
0.00230517
0.00237141
0.00243548
0.0024976
0.00255795
0.00261668
0.00267391
0.00272972
0.00278416
0.00283728
0.00288907
0.00293955
0.00298869
0.00303645
0.00308281
0.00312772
0.00317113
0.00321299
0.00325324
0.00329183
0.00332871
0.00336384
0.00339715
0.00342862
0.0034582
0.00348586
0.00351156
0.00353528
0.003557
0.00357671
0.00359439
0.00361005
0.00362367
0.00363527
0.00364485
0.00365243
0.00365804
0.0036617
0.00366331
0.00366323
0.00366124
0.00365746
0.00365195
0.00364474
0.0036359
0.00362548
0.00361355
0.00360016
0.00358539
0.0035693
0.00355196
0.00353343
0.00351378
0.00349308
0.00347139
0.00344878
0.00342532
0.00340107
0.0033761
0.00335045
0.0033242
0.00329739
0.00327008
0.00324233
0.00321418
0.00318567
0.00315685
0.00312777
0.00309846
0.00306896
0.00303931
0.00300954
0.00297969
0.00294979
0.00291987
0.00288996
0.00286008
0.00283025
0.00280051
0.00277087
0.00274135
0.00271197
0.00268275
0.00265371
0.00262485
0.0025962
0.00256776
0.00253956
0.00251159
0.00248387
0.00245641
0.00242922
0.0024023
0.00237565
0.00234929
0.00232322
0.00229745
0.00227197
0.00224679
0.00222191
0.00219733
0.00217306
0.00214909
0.00212543
0.00210207
0.00207901
0.00205625
0.00203379
0.00201163
0.00198975
0.00196817
0.00194689
0.00192589
0.00190518
0.00188475
0.00186461
0.00184474
0.00182514
0.00180582
0.00178676
0.00176797
0.00174943
0.00173115
0.00171312
0.00169533
0.00167779
0.00166049
0.00164343
0.00162659
0.00160998
0.0015936
0.00157744
0.00156149
0.00154575
0.00153021
0.00151488
0.00149974
0.00148479
0.00147001
0.00145541
0.00144097
0.00142668
0.00141251
0.00139845
0.00138447
0.00137053
0.00135658
0.00134256
0.00132839
0.00131392
0.00129917
0.00128416
0.00125992
3.27962e-05
0.000144128
0.000275316
0.000409438
0.000539344
0.000642651
0.00071974
0.00078109
0.00083682
0.000894616
0.000962166
0.00105407
0.00116365
0.00128534
0.00140088
0.00151213
0.00161994
0.0017245
0.00182574
0.00192361
0.00201809
0.00210929
0.00219734
0.00228243
0.00236477
0.0024446
0.00252214
0.00259759
0.00267115
0.00274299
0.00281325
0.00288204
0.00294947
0.0030156
0.00308046
0.00314407
0.00320644
0.00326755
0.00332738
0.00338587
0.003443
0.00349869
0.00355289
0.00360554
0.00365657
0.00370592
0.00375352
0.00379932
0.00384324
0.00388523
0.00392523
0.0039632
0.00399908
0.00403284
0.00406443
0.00409383
0.00412101
0.00414594
0.00416861
0.00418901
0.00420714
0.00422299
0.00423657
0.0042479
0.00425698
0.00426385
0.00426857
0.00427103
0.00427146
0.00426981
0.00426614
0.0042605
0.00425293
0.0042435
0.00423227
0.0042193
0.00420465
0.00418839
0.00417059
0.00415133
0.00413066
0.00410867
0.00408542
0.00406099
0.00403545
0.00400887
0.00398133
0.00395288
0.00392361
0.00389358
0.00386285
0.00383149
0.00379955
0.00376711
0.00373421
0.00370091
0.00366727
0.00363333
0.00359915
0.00356477
0.00353025
0.00349561
0.00346091
0.00342617
0.00339143
0.00335674
0.0033221
0.00328756
0.00325315
0.00321888
0.00318477
0.00315086
0.00311715
0.00308367
0.00305044
0.00301746
0.00298475
0.00295232
0.00292018
0.00288835
0.00285683
0.00282563
0.00279475
0.00276421
0.002734
0.00270413
0.0026746
0.00264542
0.00261658
0.00258809
0.00255995
0.00253216
0.00250471
0.00247761
0.00245085
0.00242444
0.00239836
0.00237262
0.00234721
0.00232214
0.00229741
0.00227299
0.00224891
0.00222514
0.00220169
0.00217856
0.00215573
0.00213321
0.00211098
0.00208906
0.00206742
0.00204608
0.00202501
0.00200423
0.00198371
0.00196347
0.00194349
0.00192378
0.00190432
0.00188511
0.00186615
0.00184743
0.00182895
0.00181069
0.00179266
0.00177484
0.00175722
0.0017398
0.00172256
0.00170547
0.00168852
0.00167167
0.00165489
0.00163813
0.00162133
0.0016044
0.0015872
0.0015698
0.00155187
0.00152574
3.2238e-05
0.000141198
0.000268908
0.00039802
0.000521858
0.000633969
0.000727742
0.000808821
0.000891793
0.000987063
0.00109625
0.00122089
0.00135726
0.00148475
0.00160503
0.00172003
0.00183074
0.00193749
0.00204063
0.0021405
0.00223732
0.00233129
0.0024226
0.00251146
0.00259807
0.00268264
0.00276537
0.00284641
0.00292593
0.00300406
0.0030809
0.00315652
0.003231
0.00330435
0.0033766
0.00344773
0.00351772
0.00358655
0.00365415
0.00372048
0.00378546
0.00384903
0.00391112
0.00397164
0.00403052
0.00408768
0.00414304
0.00419653
0.00424808
0.00429761
0.00434507
0.00439038
0.0044335
0.00447438
0.00451296
0.0045492
0.00458308
0.00461456
0.00464362
0.00467025
0.00469443
0.00471615
0.00473543
0.00475226
0.00476666
0.00477865
0.00478826
0.00479549
0.00480042
0.00480299
0.00480338
0.00480156
0.0047976
0.00479153
0.00478343
0.00477335
0.00476134
0.00474749
0.00473185
0.00471449
0.00469548
0.00467489
0.0046528
0.00462927
0.00460439
0.00457821
0.00455083
0.0045223
0.0044927
0.00446211
0.00443058
0.0043982
0.00436502
0.00433111
0.00429654
0.00426137
0.00422566
0.00418947
0.00415286
0.00411589
0.0040786
0.00404105
0.0040033
0.00396537
0.00392733
0.00388921
0.00385105
0.00381288
0.00377475
0.00373669
0.00369872
0.00366087
0.00362318
0.00358567
0.00354835
0.00351126
0.0034744
0.0034378
0.00340148
0.00336544
0.00332971
0.00329429
0.0032592
0.00322443
0.00319001
0.00315594
0.00312223
0.00308887
0.00305587
0.00302325
0.00299099
0.00295911
0.00292759
0.00289645
0.00286568
0.00283528
0.00280524
0.00277558
0.00274628
0.00271735
0.00268878
0.00266058
0.00263273
0.00260523
0.00257809
0.00255129
0.00252483
0.00249872
0.00247294
0.00244749
0.00242237
0.00239756
0.00237308
0.00234891
0.00232505
0.00230149
0.00227823
0.00225527
0.00223259
0.0022102
0.0021881
0.00216626
0.0021447
0.0021234
0.00210235
0.00208154
0.00206098
0.00204063
0.00202049
0.00200054
0.00198075
0.00196109
0.00194153
0.001922
0.00190245
0.0018828
0.00186291
0.00184285
0.00182211
0.00179378
3.08687e-05
0.000135112
0.000258113
0.000383397
0.000505348
0.000621413
0.00073205
0.000841006
0.000955828
0.00108165
0.00121971
0.00136945
0.00151172
0.00164369
0.00176794
0.00188636
0.00200007
0.00210971
0.00221566
0.00231814
0.00241754
0.00251424
0.00260854
0.0027007
0.00279093
0.00287945
0.00296644
0.00305206
0.00313643
0.00321967
0.00330186
0.00338305
0.00346329
0.00354259
0.00362093
0.00369829
0.00377464
0.00384992
0.00392406
0.00399699
0.00406864
0.0041389
0.00420771
0.00427496
0.00434057
0.00440445
0.0044665
0.00452664
0.0045848
0.00464088
0.00469481
0.00474653
0.00479596
0.00484306
0.00488776
0.00493003
0.00496982
0.00500709
0.00504183
0.005074
0.00510359
0.0051306
0.00515502
0.00517686
0.00519612
0.00521282
0.00522699
0.00523864
0.00524782
0.00525454
0.00525886
0.00526079
0.00526045
0.00525784
0.00525302
0.00524606
0.005237
0.00522592
0.00521288
0.00519794
0.00518118
0.00516266
0.00514246
0.00512064
0.00509728
0.00507245
0.00504622
0.00501868
0.00498988
0.0049599
0.00492882
0.00489669
0.0048636
0.0048296
0.00479477
0.00475916
0.00472285
0.0046859
0.00464836
0.00461031
0.00457178
0.00453286
0.00449357
0.00445399
0.00441415
0.0043741
0.00433389
0.00429356
0.00425316
0.00421271
0.00417226
0.00413184
0.00409149
0.00405123
0.0040111
0.00397111
0.0039313
0.00389169
0.00385229
0.00381313
0.00377423
0.00373561
0.00369727
0.00365923
0.00362151
0.00358411
0.00354704
0.00351032
0.00347395
0.00343794
0.00340229
0.00336701
0.00333209
0.00329755
0.00326338
0.00322959
0.00319617
0.00316314
0.00313048
0.00309819
0.00306629
0.00303475
0.00300359
0.00297281
0.00294239
0.00291234
0.00288265
0.00285332
0.00282434
0.00279572
0.00276745
0.00273952
0.00271194
0.00268469
0.00265778
0.00263119
0.00260493
0.00257899
0.00255336
0.00252805
0.00250304
0.00247833
0.00245392
0.0024298
0.00240596
0.00238239
0.00235908
0.00233602
0.00231319
0.00229057
0.00226814
0.00224586
0.00222369
0.00220159
0.00217947
0.00215727
0.00213488
0.0021123
0.002089
0.00205834
2.9318e-05
0.000128793
0.000248241
0.000372474
0.000497099
0.000621015
0.000745662
0.000874984
0.00101224
0.00115949
0.00131687
0.00147863
0.00162641
0.00176284
0.00189093
0.00201268
0.00212937
0.0022418
0.00235053
0.00245594
0.00255832
0.00265788
0.00275504
0.00285017
0.00294356
0.00303543
0.00312598
0.00321539
0.00330377
0.00339123
0.00347784
0.00356365
0.00364868
0.00373292
0.00381637
0.00389897
0.00398067
0.00406141
0.0041411
0.00421967
0.004297
0.00437301
0.0044476
0.00452065
0.00459207
0.00466176
0.00472962
0.00479554
0.00485944
0.00492123
0.00498083
0.00503815
0.00509312
0.00514569
0.00519579
0.00524337
0.00528839
0.0053308
0.00537058
0.00540769
0.00544213
0.00547388
0.00550293
0.00552929
0.00555296
0.00557396
0.00559231
0.00560803
0.00562115
0.00563171
0.00563974
0.00564528
0.00564839
0.00564911
0.00564751
0.00564363
0.00563754
0.00562929
0.00561895
0.00560658
0.00559226
0.00557604
0.00555801
0.00553823
0.00551677
0.00549371
0.00546912
0.00544307
0.00541563
0.00538688
0.00535689
0.00532571
0.00529343
0.00526012
0.00522583
0.00519064
0.0051546
0.0051178
0.00508028
0.00504211
0.00500335
0.00496405
0.00492428
0.00488408
0.00484352
0.00480263
0.00476146
0.00472007
0.00467849
0.00463678
0.00459496
0.00455307
0.00451116
0.00446925
0.00442739
0.00438559
0.00434389
0.00430231
0.00426089
0.00421964
0.00417858
0.00413774
0.00409713
0.00405678
0.00401669
0.00397689
0.00393738
0.00389817
0.00385929
0.00382073
0.0037825
0.00374462
0.00370709
0.00366991
0.00363308
0.00359662
0.00356053
0.0035248
0.00348944
0.00345445
0.00341984
0.0033856
0.00335172
0.00331823
0.0032851
0.00325234
0.00321995
0.00318792
0.00315626
0.00312496
0.00309401
0.00306342
0.00303319
0.0030033
0.00297376
0.00294456
0.0029157
0.00288717
0.00285898
0.00283112
0.00280357
0.00277635
0.00274944
0.00272283
0.00269653
0.00267051
0.00264478
0.00261931
0.0025941
0.00256911
0.00254433
0.00251972
0.00249524
0.00247084
0.00244646
0.002422
0.00239738
0.00237258
0.00234707
0.00231426
2.76232e-05
0.000122194
0.000238219
0.000361772
0.000489217
0.000619927
0.000756159
0.000899692
0.0010522
0.00121419
0.00138616
0.0015521
0.00170386
0.00184416
0.00197576
0.00210063
0.00222012
0.00233516
0.00244642
0.0025544
0.00265947
0.00276194
0.00286208
0.00296008
0.00305636
0.00315122
0.00324488
0.00333755
0.00342935
0.00352039
0.00361076
0.00370048
0.00378958
0.00387804
0.00396584
0.00405291
0.0041392
0.00422463
0.00430909
0.0043925
0.00447475
0.00455572
0.00463531
0.00471339
0.00478986
0.00486461
0.00493752
0.00500849
0.00507741
0.0051442
0.00520876
0.005271
0.00533086
0.00538825
0.00544312
0.00549541
0.00554506
0.00559205
0.00563632
0.00567787
0.00571665
0.00575266
0.0057859
0.00581637
0.00584406
0.00586899
0.00589119
0.00591067
0.00592746
0.00594159
0.0059531
0.00596204
0.00596845
0.00597237
0.00597386
0.00597299
0.00596982
0.00596439
0.00595677
0.00594702
0.0059352
0.0059214
0.00590568
0.00588811
0.00586875
0.00584769
0.005825
0.00580074
0.00577499
0.00574782
0.0057193
0.0056895
0.00565848
0.00562632
0.00559308
0.00555883
0.00552364
0.00548756
0.00545067
0.00541302
0.00537468
0.0053357
0.00529614
0.00525606
0.0052155
0.00517453
0.00513318
0.00509151
0.00504956
0.00500737
0.004965
0.00492247
0.00487983
0.00483711
0.00479435
0.00475158
0.00470884
0.00466614
0.00462353
0.00458102
0.00453864
0.00449642
0.00445437
0.00441251
0.00437087
0.00432946
0.0042883
0.00424739
0.00420676
0.00416642