/*--------------------------------*- C++ -*----------------------------------*\
  =========                 |
  \\      /  F ield         | OpenFOAM: The Open Source CFD Toolbox
   \\    /   O peration     | Website:  https://openfoam.org
    \\  /    A nd           | Version:  8
     \\/     M anipulation  |
\*---------------------------------------------------------------------------*/
FoamFile
{
    version     2.0;
    format      ascii;
    class       surfaceScalarField;
    location    "3400";
    object      phi;
}
// * * * * * * * * * * * * * * * * * * * * * * * * * * * * * * * * * * * * * //

dimensions      [0 3 -1 0 0 0 0];

internalField   nonuniform List<scalar> 
24170
(
3.92539e-06
-7.91498e-07
3.76465e-06
1.6075e-07
3.63345e-06
1.31209e-07
3.43331e-06
2.00144e-07
3.28028e-06
1.53027e-07
3.18901e-06
9.11911e-08
3.13091e-06
5.81112e-08
3.08609e-06
4.58923e-08
3.04612e-06
4.23248e-08
3.01059e-06
3.81643e-08
2.97875e-06
3.38042e-08
2.94903e-06
3.07725e-08
2.92187e-06
2.73807e-08
2.89641e-06
2.52038e-08
2.87226e-06
2.36102e-08
2.85192e-06
1.94913e-08
2.84095e-06
9.86668e-09
-6.35241e-09
2.84663e-06
3.58445e-06
-9.19499e-07
3.80424e-06
-5.90411e-08
3.74282e-06
1.92629e-07
3.6906e-06
2.52375e-07
3.63729e-06
2.06333e-07
3.59023e-06
1.38281e-07
3.55289e-06
9.56009e-08
3.52309e-06
7.56613e-08
3.49853e-06
6.65717e-08
3.47732e-06
5.92178e-08
3.45871e-06
5.25326e-08
3.44252e-06
4.72686e-08
3.42795e-06
4.23428e-08
3.41465e-06
3.87926e-08
3.40268e-06
3.57381e-08
3.39121e-06
3.10636e-08
3.38035e-06
2.08591e-08
4.81345e-09
3.36941e-06
3.68518e-06
-7.92482e-07
3.83639e-06
-2.1025e-07
3.91494e-06
1.14083e-07
3.94502e-06
2.22294e-07
3.94408e-06
2.07265e-07
3.92749e-06
1.54899e-07
3.90755e-06
1.15616e-07
3.88932e-06
9.36467e-08
3.87399e-06
8.11994e-08
3.86056e-06
7.19195e-08
3.84833e-06
6.42605e-08
3.83728e-06
5.81408e-08
3.82691e-06
5.27858e-08
3.8174e-06
4.84834e-08
3.8089e-06
4.44442e-08
3.80096e-06
3.92681e-08
3.79194e-06
3.02284e-08
1.783e-08
3.77943e-06
4.05359e-06
-6.4151e-07
4.1146e-06
-2.71259e-07
4.20799e-06
2.06922e-08
4.26635e-06
1.63933e-07
4.29069e-06
1.82927e-07
4.29287e-06
1.5275e-07
4.28571e-06
1.22821e-07
4.27631e-06
1.02846e-07
4.26727e-06
8.96898e-08
4.25873e-06
7.98221e-08
4.25056e-06
7.19552e-08
4.24282e-06
6.56415e-08
4.23534e-06
6.02546e-08
4.22823e-06
5.57033e-08
4.22148e-06
5.13653e-08
4.21463e-06
4.63624e-08
4.20598e-06
3.92067e-08
3.06915e-08
4.1935e-06
4.50491e-06
-5.09114e-07
4.51536e-06
-2.81708e-07
4.58529e-06
-4.92335e-08
4.64665e-06
1.02567e-07
4.68258e-06
1.46994e-07
4.69687e-06
1.38475e-07
4.69946e-06
1.2024e-07
4.69722e-06
1.04929e-07
4.69331e-06
9.32594e-08
4.68868e-06
8.40627e-08
4.68366e-06
7.66485e-08
4.6785e-06
7.0616e-08
4.6732e-06
6.55041e-08
4.66782e-06
6.11175e-08
4.66226e-06
5.70195e-08
4.65605e-06
5.27217e-08
4.64786e-06
4.76145e-08
4.26351e-08
4.63612e-06
5.00014e-06
-3.94663e-07
4.98614e-06
-2.67704e-07
5.03069e-06
-9.37782e-08
5.08506e-06
4.81991e-08
5.12454e-06
1.07518e-07
5.14608e-06
1.16943e-07
5.15584e-06
1.10492e-07
5.15939e-06
1.01289e-07
5.15985e-06
9.26127e-08
5.15859e-06
8.50897e-08
5.15629e-06
7.87504e-08
5.15333e-06
7.34516e-08
5.14984e-06
6.89444e-08
5.14589e-06
6.50766e-08
5.14135e-06
6.16025e-08
5.13583e-06
5.83288e-08
5.12838e-06
5.5172e-08
5.30796e-08
5.11808e-06
5.54382e-06
-2.97475e-07
5.51664e-06
-2.40529e-07
5.54055e-06
-1.17685e-07
5.58388e-06
4.87168e-09
5.62166e-06
6.97363e-08
5.64656e-06
9.20487e-08
5.66107e-06
9.59718e-08
5.66906e-06
9.32514e-08
5.67314e-06
8.84298e-08
5.67481e-06
8.33078e-08
5.6749e-06
7.85599e-08
5.6739e-06
7.43852e-08
5.67204e-06
7.07773e-08
5.6694e-06
6.77096e-08
5.6659e-06
6.51161e-08
5.66127e-06
6.30076e-08
5.65493e-06
6.15701e-08
6.15585e-08
5.6465e-06
4.34788e-06
-2.39242e-07
4.32251e-06
-2.15162e-07
4.33078e-06
-1.2595e-07
4.35419e-06
-1.85348e-08
4.3784e-06
4.5528e-08
4.39646e-06
7.39876e-08
4.40841e-06
8.40264e-08
4.41597e-06
8.56782e-08
4.42059e-06
8.37734e-08
4.42325e-06
8.06046e-08
4.42456e-06
7.7205e-08
4.4249e-06
7.40128e-08
4.42446e-06
7.1192e-08
4.42334e-06
6.88243e-08
4.42151e-06
6.69534e-08
4.41884e-06
6.56903e-08
4.41514e-06
6.52911e-08
6.6374e-08
4.41035e-06
5.08621e-06
-1.85599e-07
5.05777e-06
-1.86717e-07
5.0584e-06
-1.26577e-07
5.07686e-06
-3.70008e-08
5.09918e-06
2.32162e-08
5.11773e-06
5.54391e-08
5.13124e-06
7.05108e-08
5.14059e-06
7.63215e-08
5.14686e-06
7.74815e-08
5.15094e-06
7.65044e-08
5.15344e-06
7.46849e-08
5.15476e-06
7.26766e-08
5.15514e-06
7.0809e-08
5.15468e-06
6.92784e-08
5.15341e-06
6.82266e-08
5.15128e-06
6.78322e-08
5.14821e-06
6.83718e-08
7.02956e-08
5.14429e-06
5.94839e-06
-1.38193e-07
5.91832e-06
-1.56649e-07
5.91161e-06
-1.19865e-07
5.924e-06
-4.93951e-08
5.94286e-06
4.36098e-09
5.96058e-06
3.77199e-08
5.97479e-06
5.62952e-08
5.98546e-06
6.56515e-08
5.9932e-06
6.97419e-08
5.99867e-06
7.10247e-08
6.00242e-06
7.09243e-08
6.00484e-06
7.02502e-08
6.00618e-06
6.94702e-08
6.00657e-06
6.88812e-08
6.0061e-06
6.87038e-08
6.00478e-06
6.91536e-08
6.00267e-06
7.04816e-08
7.29972e-08
5.99997e-06
6.95439e-06
-9.83128e-08
6.92401e-06
-1.26278e-07
6.91113e-06
-1.06983e-07
6.9168e-06
-5.5064e-08
6.93087e-06
-9.70798e-09
6.94635e-06
2.22427e-08
6.96015e-06
4.2497e-08
6.9714e-06
5.44014e-08
6.98017e-06
6.09678e-08
6.98684e-06
6.43552e-08
6.9918e-06
6.59641e-08
6.99537e-06
6.6675e-08
6.9978e-06
6.70425e-08
6.99924e-06
6.74377e-08
6.99982e-06
6.81286e-08
6.99963e-06
6.93413e-08
6.99883e-06
7.12859e-08
7.41489e-08
6.99768e-06
8.12719e-06
-6.64875e-08
8.09793e-06
-9.70204e-08
8.08056e-06
-8.96077e-08
8.07955e-06
-5.40569e-08
8.08793e-06
-1.80868e-08
8.09985e-06
1.03262e-08
8.11198e-06
3.03631e-08
8.12285e-06
4.35274e-08
8.13202e-06
5.18017e-08
8.1395e-06
5.68753e-08
8.14548e-06
5.99843e-08
8.15018e-06
6.19802e-08
8.15378e-06
6.34429e-08
8.15645e-06
6.47701e-08
8.15833e-06
6.62479e-08
8.15958e-06
6.809e-08
8.16041e-06
7.04579e-08
7.3457e-08
8.1611e-06
9.49368e-06
-4.24385e-08
9.4668e-06
-7.01422e-08
9.44683e-06
-6.96391e-08
9.43991e-06
-4.713e-08
9.44229e-06
-2.04654e-08
9.44965e-06
2.95877e-09
9.45895e-06
2.10686e-08
9.4684e-06
3.40757e-08
9.47716e-06
4.30425e-08
9.48491e-06
4.9128e-08
9.49159e-06
5.33021e-08
9.49727e-06
5.63013e-08
9.50205e-06
5.86573e-08
9.50607e-06
6.07505e-08
9.50947e-06
6.28476e-08
9.51243e-06
6.51347e-08
9.51516e-06
6.773e-08
7.06868e-08
9.51793e-06
1.10854e-05
-2.51589e-08
1.10618e-05
-4.6502e-08
1.1041e-05
-4.88056e-08
1.10294e-05
-3.55499e-08
1.10261e-05
-1.71673e-08
1.10284e-05
6.08107e-10
1.1034e-05
1.54787e-08
1.10411e-05
2.69757e-08
1.10487e-05
3.54976e-08
1.10561e-05
4.17226e-08
1.1063e-05
4.63212e-08
1.10695e-05
4.98519e-08
1.10754e-05
5.27448e-08
1.10808e-05
5.53141e-08
1.10859e-05
5.77799e-08
1.10908e-05
6.02859e-08
1.10956e-05
6.29126e-08
6.56833e-08
1.11006e-05
1.29396e-05
-1.31184e-08
1.29194e-05
-2.62781e-08
1.28988e-05
-2.82509e-08
1.28839e-05
-2.0686e-08
1.28758e-05
-8.99357e-09
1.28732e-05
3.14777e-09
1.28748e-05
1.39436e-08
1.28789e-05
2.27929e-08
1.28847e-05
2.97498e-08
1.28913e-05
3.51493e-08
1.28982e-05
3.93905e-08
1.29052e-05
4.28363e-08
1.29122e-05
4.57788e-08
1.29191e-05
4.8435e-08
1.29259e-05
5.09539e-08
1.29327e-05
5.3427e-08
1.29398e-05
5.58975e-08
5.83684e-08
1.29471e-05
1.50998e-05
-4.48293e-09
1.50822e-05
-8.67565e-09
1.50621e-05
-8.11275e-09
1.50448e-05
-3.45694e-09
1.50327e-05
3.11146e-09
1.50259e-05
9.941e-09
1.50237e-05
1.61647e-08
1.5025e-05
2.14679e-08
1.50289e-05
2.58576e-08
1.50346e-05
2.94898e-08
1.50414e-05
3.25604e-08
1.5049e-05
3.52498e-08
1.50571e-05
3.77014e-08
1.50655e-05
4.00162e-08
1.50742e-05
4.22569e-08
1.50832e-05
4.44527e-08
1.50925e-05
4.66063e-08
4.86993e-08
1.51021e-05
1.76171e-05
2.89323e-09
1.75999e-05
8.52326e-09
1.75787e-05
1.30301e-08
1.7559e-05
1.62786e-08
1.75436e-05
1.84735e-08
1.75336e-05
1.99591e-08
1.75287e-05
2.10539e-08
1.75282e-05
2.19958e-08
1.75311e-05
2.29423e-08
1.75366e-05
2.39888e-08
1.7544e-05
2.51814e-08
1.75527e-05
2.65329e-08
1.75624e-05
2.8032e-08
1.75727e-05
2.96533e-08
1.75836e-05
3.13599e-08
1.7595e-05
3.31111e-08
1.76067e-05
3.48607e-08
3.65642e-08
1.76189e-05
1.78181e-05
1.10004e-08
1.77994e-05
2.72125e-08
1.77768e-05
3.56242e-08
1.7756e-05
3.70586e-08
1.77402e-05
3.43264e-08
1.77302e-05
2.99466e-08
1.77257e-05
2.55004e-08
1.7726e-05
2.17783e-08
1.77298e-05
1.90757e-08
1.77364e-05
1.74011e-08
1.7745e-05
1.66344e-08
1.77549e-05
1.66064e-08
1.77658e-05
1.71457e-08
1.77773e-05
1.80948e-08
1.77894e-05
1.93214e-08
1.78018e-05
2.07117e-08
1.78145e-05
2.21763e-08
2.36393e-08
1.78274e-05
1.58702e-05
2.21334e-08
1.58478e-05
4.95812e-08
1.58233e-05
6.01321e-08
1.58032e-05
5.72343e-08
1.57899e-05
4.761e-08
1.57834e-05
3.63709e-08
1.57827e-05
2.61964e-08
1.57864e-05
1.81454e-08
1.57931e-05
1.2364e-08
1.58019e-05
8.61162e-09
1.5812e-05
6.49702e-09
1.5823e-05
5.63052e-09
1.58345e-05
5.66837e-09
1.58462e-05
6.33459e-09
1.58582e-05
7.4078e-09
1.58701e-05
8.72454e-09
1.58822e-05
1.01562e-08
1.16138e-08
1.58942e-05
1.41313e-05
3.95387e-08
1.41021e-05
7.87067e-08
1.40745e-05
8.77876e-08
1.40557e-05
7.60379e-08
1.40469e-05
5.64125e-08
1.40462e-05
3.70382e-08
1.40512e-05
2.12085e-08
1.40597e-05
9.57998e-09
1.40704e-05
1.76038e-09
1.4082e-05
-3.05049e-09
1.40941e-05
-5.60477e-09
1.41063e-05
-6.55965e-09
1.41184e-05
-6.41116e-09
1.41303e-05
-5.55194e-09
1.4142e-05
-4.25147e-09
1.41534e-05
-2.7106e-09
1.41646e-05
-1.06633e-09
5.84301e-10
1.41756e-05
1.25772e-05
6.73555e-08
1.25392e-05
1.16739e-07
1.25091e-05
1.17889e-07
1.24942e-05
9.08905e-08
1.24928e-05
5.78128e-08
1.25002e-05
2.96812e-08
1.25122e-05
9.12834e-09
1.25264e-05
-4.4996e-09
1.25409e-05
-1.28388e-08
1.25552e-05
-1.73501e-08
1.25689e-05
-1.9285e-08
1.25819e-05
-1.94978e-08
1.25941e-05
-1.86506e-08
1.26057e-05
-1.71472e-08
1.26167e-05
-1.52968e-08
1.26273e-05
-1.32917e-08
1.26375e-05
-1.12562e-08
-9.27722e-09
1.26474e-05
1.11862e-05
1.10916e-07
1.11384e-05
1.6457e-07
1.11088e-05
1.4752e-07
1.11022e-05
9.74842e-08
1.11117e-05
4.83119e-08
1.11289e-05
1.23996e-08
1.11486e-05
-1.04643e-08
1.11678e-05
-2.37316e-08
1.11855e-05
-3.05125e-08
1.12014e-05
-3.32947e-08
1.12157e-05
-3.35569e-08
1.12285e-05
-3.23605e-08
1.12402e-05
-3.03012e-08
1.12509e-05
-2.78463e-08
1.12608e-05
-2.5242e-08
1.12701e-05
-2.2636e-08
1.1279e-05
-2.01289e-08
-1.77593e-08
1.12875e-05
9.93908e-06
1.76452e-07
9.88248e-06
2.21163e-07
9.85873e-06
1.71262e-07
9.86593e-06
9.02753e-08
9.8896e-06
2.4638e-08
9.91759e-06
-1.55574e-08
9.94391e-06
-3.67982e-08
9.96668e-06
-4.64149e-08
9.98572e-06
-4.96178e-08
1.00017e-05
-4.9295e-08
1.00153e-05
-4.71346e-08
1.00269e-05
-4.40036e-08
1.00371e-05
-4.05383e-08
1.00463e-05
-3.69954e-08
1.00546e-05
-3.35738e-08
1.00623e-05
-3.0368e-08
1.00696e-05
-2.73879e-08
-2.46728e-08
1.00765e-05
8.81963e-06
2.69916e-07
8.75785e-06
2.82944e-07
8.74788e-06
1.81226e-07
8.77481e-06
6.3323e-08
8.81458e-06
-1.51294e-08
8.85212e-06
-5.30932e-08
8.88268e-06
-6.72327e-08
8.90623e-06
-7.00324e-08
8.92428e-06
-6.76279e-08
8.93843e-06
-6.33843e-08
8.94985e-06
-5.84176e-08
8.95926e-06
-5.33534e-08
8.96727e-06
-4.84958e-08
8.97426e-06
-4.39784e-08
8.98054e-06
-3.98706e-08
8.98632e-06
-3.6165e-08
8.99173e-06
-3.28231e-08
-2.9848e-08
8.99689e-06
7.81391e-06
3.96675e-07
7.75391e-06
3.42943e-07
7.76868e-06
1.6644e-07
7.82053e-06
1.14613e-08
7.87566e-06
-7.02742e-08
7.91912e-06
-9.64922e-08
7.94967e-06
-9.78384e-08
7.97057e-06
-9.06572e-08
7.98484e-06
-8.16031e-08
7.99525e-06
-7.35706e-08
8.00317e-06
-6.61409e-08
8.00939e-06
-5.94376e-08
8.0145e-06
-5.33715e-08
8.01888e-06
-4.81974e-08
8.02275e-06
-4.37223e-08
8.02632e-06
-3.97859e-08
8.02967e-06
-3.62371e-08
-3.31604e-08
8.03294e-06
6.90424e-06
5.66768e-07
6.86137e-06
3.85805e-07
6.91716e-06
1.10635e-07
6.99674e-06
-6.81326e-08
7.06253e-06
-1.36071e-07
7.10529e-06
-1.39269e-07
7.13031e-06
-1.22551e-07
7.14447e-06
-1.04624e-07
7.15207e-06
-8.90104e-08
7.15709e-06
-7.58277e-08
7.16039e-06
-6.67191e-08
7.16271e-06
-5.95929e-08
7.16422e-06
-5.42419e-08
7.16553e-06
-4.93318e-08
7.16669e-06
-4.49196e-08
7.1678e-06
-4.12808e-08
7.16887e-06
-3.76e-08
-3.46289e-08
7.17008e-06
6.07162e-06
7.97662e-07
6.08526e-06
3.72164e-07
6.19865e-06
-2.77303e-09
6.29989e-06
-1.69397e-07
6.36526e-06
-2.01462e-07
6.39754e-06
-1.71503e-07
6.4101e-06
-1.35218e-07
6.41342e-06
-1.06955e-07
6.41238e-06
-8.58213e-08
6.40988e-06
-7.40514e-08
6.40749e-06
-6.45766e-08
6.40487e-06
-5.76203e-08
6.40242e-06
-5.14206e-08
6.40027e-06
-4.66905e-08
6.39819e-06
-4.31582e-08
6.39666e-06
-3.97639e-08
6.39508e-06
-3.63424e-08
-3.41509e-08
6.39389e-06
5.35805e-06
1.05451e-06
5.50649e-06
2.23716e-07
5.64777e-06
-1.44085e-07
5.73564e-06
-2.57314e-07
5.77646e-06
-2.42346e-07
5.78324e-06
-1.78423e-07
5.77527e-06
-1.26644e-07
5.76327e-06
-9.40099e-08
5.74975e-06
-7.56809e-08
5.73929e-06
-6.39903e-08
5.73028e-06
-5.66005e-08
5.72233e-06
-4.99608e-08
5.7145e-06
-4.47768e-08
5.70761e-06
-4.01198e-08
5.70169e-06
-3.67264e-08
5.69647e-06
-3.47501e-08
5.69168e-06
-3.1682e-08
-2.99679e-08
5.68744e-06
5.04576e-06
1.01105e-06
5.36491e-06
-9.545e-08
5.35251e-06
-1.31767e-07
5.33284e-06
-2.37745e-07
5.296e-06
-2.05651e-07
5.25016e-06
-1.32588e-07
5.2089e-06
-8.47356e-08
5.17485e-06
-6.08286e-08
5.14636e-06
-4.98363e-08
5.12484e-06
-4.29042e-08
5.1067e-06
-3.93772e-08
5.09046e-06
-3.55874e-08
5.07528e-06
-3.15097e-08
5.0617e-06
-2.67415e-08
5.04974e-06
-2.46517e-08
5.03925e-06
-2.41272e-08
5.02955e-06
-2.13831e-08
-2.15892e-08
5.02185e-06
5.4676e-06
5.37215e-06
5.24037e-06
5.0026e-06
4.79694e-06
4.66444e-06
4.57966e-06
4.51835e-06
4.46846e-06
4.42539e-06
4.38568e-06
4.34964e-06
4.31803e-06
4.29134e-06
4.26671e-06
4.24274e-06
4.2216e-06
4.20047e-06
2.31243e-08
-2.31223e-08
2.37208e-07
-2.14084e-07
4.89339e-07
-2.521e-07
7.09609e-07
-2.20249e-07
8.77327e-07
-1.67698e-07
9.88456e-07
-1.11119e-07
1.04412e-06
-5.56502e-08
1.04653e-06
-2.41848e-09
1.00103e-06
4.5517e-08
9.17749e-07
8.32719e-08
8.11945e-07
1.05814e-07
7.02754e-07
1.09177e-07
6.09969e-07
9.27802e-08
5.43681e-07
6.62973e-08
4.92537e-07
5.11628e-08
4.33354e-07
5.98848e-08
3.47041e-07
8.61742e-08
2.21936e-07
1.25881e-07
4.36223e-08
1.77899e-07
-2.0185e-07
2.44847e-07
-5.04396e-07
3.0229e-07
-8.45393e-07
3.40746e-07
-1.20974e-06
3.64353e-07
-1.58714e-06
3.77411e-07
-1.96875e-06
3.81644e-07
-2.34458e-06
3.75853e-07
-2.70662e-06
3.62059e-07
-3.04969e-06
3.43088e-07
-3.36999e-06
3.20305e-07
-3.66516e-06
2.95177e-07
-3.93435e-06
2.69192e-07
-4.17787e-06
2.43526e-07
-4.39675e-06
2.18885e-07
-4.59248e-06
1.95723e-07
-4.76674e-06
1.74268e-07
-4.92135e-06
1.54602e-07
-5.05803e-06
1.36686e-07
-5.17843e-06
1.20402e-07
-5.28402e-06
1.0559e-07
-5.37609e-06
9.20689e-08
-5.45575e-06
7.96575e-08
-5.52393e-06
6.81832e-08
-5.58142e-06
5.74905e-08
-5.62887e-06
4.74456e-08
-5.66681e-06
3.79393e-08
-5.69569e-06
2.88846e-08
-5.7159e-06
2.02099e-08
-5.72779e-06
1.18856e-08
-5.73183e-06
4.03947e-09
-5.72889e-06
-2.94023e-09
-5.72005e-06
-8.83882e-09
-5.70608e-06
-1.39656e-08
-5.6874e-06
-1.86822e-08
-5.66425e-06
-2.31498e-08
-5.63681e-06
-2.74465e-08
-5.6052e-06
-3.16005e-08
-5.56958e-06
-3.56265e-08
-5.53005e-06
-3.95314e-08
-5.48673e-06
-4.33162e-08
-5.43975e-06
-4.69798e-08
-5.38923e-06
-5.05196e-08
-5.3353e-06
-5.39323e-08
-5.27808e-06
-5.72143e-08
-5.21772e-06
-6.03624e-08
-5.15435e-06
-6.33742e-08
-5.0881e-06
-6.62465e-08
-5.01912e-06
-6.89758e-08
-4.94756e-06
-7.15599e-08
-4.87357e-06
-7.39971e-08
-4.79728e-06
-7.62862e-08
-4.71885e-06
-7.84265e-08
-4.63844e-06
-8.04175e-08
-4.55618e-06
-8.22595e-08
-4.47222e-06
-8.39533e-08
-4.38672e-06
-8.54998e-08
-4.29982e-06
-8.6901e-08
-4.21166e-06
-8.81586e-08
-4.12239e-06
-8.92756e-08
-4.03213e-06
-9.02546e-08
-3.94103e-06
-9.10996e-08
-3.84922e-06
-9.18143e-08
-3.75682e-06
-9.24032e-08
-3.66394e-06
-9.28713e-08
-3.57072e-06
-9.3224e-08
-3.47725e-06
-9.34675e-08
-3.38364e-06
-9.36089e-08
-3.28999e-06
-9.36568e-08
-3.19637e-06
-9.36215e-08
-3.10285e-06
-9.35159e-08
-3.0095e-06
-9.33557e-08
-2.91634e-06
-9.31618e-08
-2.82338e-06
-9.29593e-08
-2.73061e-06
-9.27663e-08
-2.63805e-06
-9.25624e-08
-2.54579e-06
-9.22627e-08
-2.45402e-06
-9.17656e-08
-2.36304e-06
-9.09859e-08
-2.2731e-06
-8.9941e-08
-2.18431e-06
-8.87877e-08
-2.09668e-06
-8.76329e-08
-2.0102e-06
-8.64769e-08
-1.9249e-06
-8.53035e-08
-1.8408e-06
-8.41055e-08
-1.75792e-06
-8.2882e-08
-1.67628e-06
-8.16355e-08
-1.59591e-06
-8.03697e-08
-1.51683e-06
-7.90885e-08
-1.43904e-06
-7.77946e-08
-1.36255e-06
-7.64859e-08
-1.28741e-06
-7.51416e-08
-1.21364e-06
-7.37738e-08
-1.14123e-06
-7.24103e-08
-1.07019e-06
-7.10461e-08
-1.00051e-06
-6.96824e-08
-9.32196e-07
-6.83201e-08
-8.65239e-07
-6.69608e-08
-7.99636e-07
-6.56066e-08
-7.35379e-07
-6.42605e-08
-6.7246e-07
-6.29241e-08
-6.10867e-07
-6.15969e-08
-5.50592e-07
-6.02796e-08
-4.91622e-07
-5.8975e-08
-4.33938e-07
-5.76891e-08
-3.77516e-07
-5.64276e-08
-3.22336e-07
-5.51862e-08
-2.6838e-07
-5.39616e-08
-2.15628e-07
-5.27575e-08
-1.6406e-07
-5.15734e-08
-1.13668e-07
-5.03973e-08
-6.44446e-08
-4.9229e-08
-1.65119e-08
-4.79378e-08
3.02632e-08
-4.678e-08
7.61874e-08
-4.59287e-08
1.21153e-07
-4.49698e-08
1.65057e-07
-4.39088e-08
2.07898e-07
-4.28443e-08
2.49692e-07
-4.1797e-08
2.90469e-07
-4.07797e-08
3.30261e-07
-3.97942e-08
3.69097e-07
-3.88392e-08
4.07007e-07
-3.79129e-08
4.44018e-07
-3.70138e-08
4.80157e-07
-3.61407e-08
5.15449e-07
-3.5293e-08
5.49919e-07
-3.447e-08
5.83591e-07
-3.36717e-08
6.1649e-07
-3.28974e-08
6.48641e-07
-3.21473e-08
6.80066e-07
-3.14213e-08
7.10789e-07
-3.07194e-08
7.40835e-07
-3.00416e-08
7.70227e-07
-2.9388e-08
7.98989e-07
-2.87586e-08
8.27146e-07
-2.81534e-08
8.54722e-07
-2.75722e-08
8.8174e-07
-2.70152e-08
9.08225e-07
-2.64821e-08
9.34201e-07
-2.59727e-08
9.5969e-07
-2.54863e-08
9.84715e-07
-2.50223e-08
1.0093e-06
-2.45794e-08
1.03346e-06
-2.41556e-08
1.05721e-06
-2.37481e-08
1.08056e-06
-2.33529e-08
1.10353e-06
-2.29643e-08
1.12611e-06
-2.2574e-08
1.14828e-06
-2.21708e-08
1.17002e-06
-2.17389e-08
1.19128e-06
-2.12561e-08
1.21197e-06
-2.06914e-08
1.23197e-06
-2.00005e-08
1.2511e-06
-1.91196e-08
1.26905e-06
-1.79514e-08
1.2854e-06
-1.63516e-08
1.29945e-06
-1.40449e-08
1.31007e-06
-1.0621e-08
1.31464e-06
-4.55621e-09
1.30779e-06
6.85955e-09
1.27825e-06
2.954e-08
7.23327e-08
1.20592e-06
2.54194e-07
-2.77336e-07
4.90098e-07
-4.49985e-07
6.39686e-07
-4.01684e-07
7.2432e-07
-3.04881e-07
7.63835e-07
-2.07204e-07
7.69781e-07
-1.17069e-07
7.48847e-07
-3.4711e-08
7.06664e-07
3.97579e-08
6.46302e-07
1.05884e-07
5.67672e-07
1.61893e-07
4.70054e-07
2.03438e-07
3.5178e-07
2.2744e-07
2.06812e-07
2.37754e-07
2.36066e-08
2.49518e-07
-2.08621e-07
2.83397e-07
-4.94275e-07
3.45632e-07
-8.32247e-07
4.24235e-07
-1.21211e-06
5.05765e-07
-1.61594e-06
5.81682e-07
-2.01739e-06
6.46238e-07
-2.40742e-06
6.92268e-07
-2.78289e-06
7.16214e-07
-3.13784e-06
7.19299e-07
-3.46527e-06
7.0484e-07
-3.76003e-06
6.76411e-07
-4.02117e-06
6.37002e-07
-4.24911e-06
5.90002e-07
-4.44512e-06
5.39105e-07
-4.61212e-06
4.87301e-07
-4.7536e-06
4.36663e-07
-4.87295e-06
3.88539e-07
-4.97332e-06
3.43903e-07
-5.05761e-06
3.03169e-07
-5.12831e-06
2.66425e-07
-5.18755e-06
2.33507e-07
-5.23706e-06
2.04113e-07
-5.27824e-06
1.77873e-07
-5.31224e-06
1.54396e-07
-5.33995e-06
1.333e-07
-5.36211e-06
1.14232e-07
-5.37934e-06
9.68835e-08
-5.39214e-06
8.09869e-08
-5.40097e-06
6.63207e-08
-5.40623e-06
5.27032e-08
-5.40828e-06
3.99875e-08
-5.40745e-06
2.80588e-08
-5.40408e-06
1.68393e-08
-5.39849e-06
6.29408e-09
-5.39083e-06
-3.62076e-09
-5.38068e-06
-1.3095e-08
-5.36715e-06
-2.23688e-08
-5.34964e-06
-3.14713e-08
-5.32799e-06
-4.03368e-08
-5.30217e-06
-4.89617e-08
-5.27227e-06
-5.73528e-08
-5.23835e-06
-6.55162e-08
-5.20052e-06
-7.34548e-08
-5.15889e-06
-8.11681e-08
-5.11355e-06
-8.86528e-08
-5.06463e-06
-9.59032e-08
-5.01223e-06
-1.02913e-07
-4.95649e-06
-1.09673e-07
-4.89753e-06
-1.16177e-07
-4.83547e-06
-1.22418e-07
-4.77046e-06
-1.28391e-07
-4.70261e-06
-1.34089e-07
-4.63208e-06
-1.39504e-07
-4.55901e-06
-1.44633e-07
-4.48354e-06
-1.49472e-07
-4.4058e-06
-1.54018e-07
-4.32596e-06
-1.58271e-07
-4.24415e-06
-1.62229e-07
-4.16051e-06
-1.65893e-07
-4.0752e-06
-1.69264e-07
-3.98836e-06
-1.72344e-07
-3.90012e-06
-1.75137e-07
-3.81063e-06
-1.77647e-07
-3.72003e-06
-1.79879e-07
-3.62845e-06
-1.81839e-07
-3.53601e-06
-1.83535e-07
-3.44285e-06
-1.84972e-07
-3.3491e-06
-1.86161e-07
-3.25486e-06
-1.8711e-07
-3.16025e-06
-1.87829e-07
-3.06539e-06
-1.88328e-07
-2.97038e-06
-1.8862e-07
-2.87532e-06
-1.88715e-07
-2.78032e-06
-1.88629e-07
-2.68546e-06
-1.88372e-07
-2.59086e-06
-1.87958e-07
-2.49662e-06
-1.87398e-07
-2.40288e-06
-1.867e-07
-2.30979e-06
-1.85859e-07
-2.21751e-06
-1.84847e-07
-2.12615e-06
-1.83619e-07
-2.03577e-06
-1.82147e-07
-1.94633e-06
-1.80426e-07
-1.85778e-06
-1.78498e-07
-1.77012e-06
-1.7644e-07
-1.68345e-06
-1.74304e-07
-1.59782e-06
-1.72106e-07
-1.51328e-06
-1.69845e-07
-1.42987e-06
-1.67523e-07
-1.34761e-06
-1.65144e-07
-1.26653e-06
-1.62714e-07
-1.18666e-06
-1.60237e-07
-1.10804e-06
-1.57719e-07
-1.03067e-06
-1.55164e-07
-9.54581e-07
-1.52573e-07
-8.79777e-07
-1.49948e-07
-8.06253e-07
-1.473e-07
-7.34021e-07
-1.44644e-07
-6.63087e-07
-1.41983e-07
-5.93451e-07
-1.3932e-07
-5.25114e-07
-1.3666e-07
-4.58073e-07
-1.34004e-07
-3.92325e-07
-1.31357e-07
-3.27865e-07
-1.28723e-07
-2.64683e-07
-1.26109e-07
-2.02767e-07
-1.23515e-07
-1.42111e-07
-1.20939e-07
-8.27011e-08
-1.18388e-07
-2.45319e-08
-1.15862e-07
3.24109e-08
-1.13374e-07
8.81552e-08
-1.10934e-07
1.42718e-07
-1.08528e-07
1.9611e-07
-1.06152e-07
2.48347e-07
-1.03813e-07
2.99455e-07
-1.01508e-07
3.49464e-07
-9.92401e-08
3.98532e-07
-9.70083e-08
4.46633e-07
-9.48824e-08
4.9355e-07
-9.28467e-08
5.3935e-07
-9.0772e-08
5.84112e-07
-8.86726e-08
6.27867e-07
-8.6601e-08
6.70645e-07
-8.45763e-08
7.1247e-07
-8.26053e-08
7.53364e-07
-8.06894e-08
7.93351e-07
-7.88275e-08
8.32454e-07
-7.70177e-08
8.70698e-07
-7.52586e-08
9.08105e-07
-7.35488e-08
9.44699e-07
-7.18875e-08
9.80503e-07
-7.0274e-08
1.01554e-06
-6.8708e-08
1.04983e-06
-6.7189e-08
1.0834e-06
-6.57169e-08
1.11628e-06
-6.42918e-08
1.14847e-06
-6.29136e-08
1.18002e-06
-6.15824e-08
1.21093e-06
-6.02983e-08
1.24123e-06
-5.90611e-08
1.27095e-06
-5.78709e-08
1.30011e-06
-5.67275e-08
1.32873e-06
-5.56308e-08
1.35683e-06
-5.45802e-08
1.38443e-06
-5.35752e-08
1.41156e-06
-5.26144e-08
1.43824e-06
-5.16962e-08
1.46448e-06
-5.08178e-08
1.4903e-06
-4.99753e-08
1.51572e-06
-4.91632e-08
1.54074e-06
-4.83736e-08
1.56537e-06
-4.75953e-08
1.58961e-06
-4.68131e-08
1.61345e-06
-4.60057e-08
1.63685e-06
-4.51434e-08
1.65978e-06
-4.41852e-08
1.68217e-06
-4.30736e-08
1.7039e-06
-4.17269e-08
1.7248e-06
-4.00271e-08
1.74465e-06
-3.77975e-08
1.76307e-06
-3.47686e-08
1.77951e-06
-3.04797e-08
1.79307e-06
-2.41785e-08
1.80279e-06
-1.4271e-08
1.80765e-06
2.00054e-09
1.80577e-06
3.14275e-08
8.8036e-08
1.79006e-06
2.46019e-07
-5.23373e-07
3.42336e-07
-5.46305e-07
3.58624e-07
-4.17969e-07
3.4758e-07
-2.93826e-07
3.19877e-07
-1.79495e-07
2.75793e-07
-7.29836e-08
2.14616e-07
2.64698e-08
1.35294e-07
1.19076e-07
3.67665e-08
2.04414e-07
-8.31297e-08
2.81786e-07
-2.30101e-07
3.5041e-07
-4.14668e-07
4.12007e-07
-6.50242e-07
4.73325e-07
-9.43741e-07
5.43021e-07
-1.285e-06
6.24656e-07
-1.65211e-06
7.1274e-07
-2.02422e-06
7.96346e-07
-2.38448e-06
8.66013e-07
-2.719e-06
9.1618e-07
-3.01722e-06
9.44449e-07
-3.27529e-06
9.50334e-07
-3.49418e-06
9.35112e-07
-3.67689e-06
9.02008e-07
-3.82744e-06
8.55404e-07
-3.95058e-06
7.99552e-07
-4.05172e-06
7.38135e-07
-4.13617e-06
6.74455e-07
-4.20833e-06
6.11272e-07
-4.27165e-06
5.50616e-07
-4.32873e-06
4.93742e-07
-4.38145e-06
4.41256e-07
-4.43094e-06
3.93393e-07
-4.47783e-06
3.50068e-07
-4.52241e-06
3.11e-07
-4.5647e-06
2.75798e-07
-4.60461e-06
2.44024e-07
-4.64197e-06
2.15236e-07
-4.6766e-06
1.8902e-07
-4.7083e-06
1.64999e-07
-4.73691e-06
1.42842e-07
-4.76229e-06
1.22265e-07
-4.78433e-06
1.03032e-07
-4.80296e-06
8.49449e-08
-4.81809e-06
6.78375e-08
-4.82968e-06
5.15705e-08
-4.83764e-06
3.60247e-08
-4.8419e-06
2.10983e-08
-4.8423e-06
6.69753e-09
-4.83864e-06
-7.28441e-09
-4.83077e-06
-2.09618e-08
-4.81875e-06
-3.43942e-08
-4.80265e-06
-4.75693e-08
-4.78252e-06
-6.04647e-08
-4.75841e-06
-7.30721e-08
-4.73038e-06
-8.5385e-08
-4.6985e-06
-9.73977e-08
-4.66285e-06
-1.09103e-07
-4.62353e-06
-1.20493e-07
-4.58062e-06
-1.31557e-07
-4.53424e-06
-1.42283e-07
-4.4845e-06
-1.52659e-07
-4.4315e-06
-1.62673e-07
-4.37536e-06
-1.7231e-07
-4.31622e-06
-1.81561e-07
-4.25419e-06
-1.90416e-07
-4.18942e-06
-1.98867e-07
-4.12202e-06
-2.06902e-07
-4.05214e-06
-2.14513e-07
-3.97991e-06
-2.21697e-07
-3.90548e-06
-2.28448e-07
-3.82899e-06
-2.34764e-07
-3.75057e-06
-2.40644e-07
-3.67038e-06
-2.46089e-07
-3.58854e-06
-2.51099e-07
-3.50521e-06
-2.55679e-07
-3.42051e-06
-2.59832e-07
-3.33459e-06
-2.63566e-07
-3.24759e-06
-2.66886e-07
-3.15962e-06
-2.69802e-07
-3.07084e-06
-2.72323e-07
-2.98135e-06
-2.7446e-07
-2.89129e-06
-2.76224e-07
-2.80077e-06
-2.77628e-07
-2.70991e-06
-2.78685e-07
-2.61883e-06
-2.7941e-07
-2.52763e-06
-2.79816e-07
-2.43643e-06
-2.79919e-07
-2.34532e-06
-2.79734e-07
-2.25442e-06
-2.79276e-07
-2.16382e-06
-2.78556e-07
-2.07363e-06
-2.77586e-07
-1.98396e-06
-2.76374e-07
-1.8949e-06
-2.74916e-07
-1.80655e-06
-2.73202e-07
-1.71895e-06
-2.71216e-07
-1.63215e-06
-2.68954e-07
-1.54614e-06
-2.66434e-07
-1.46094e-06
-2.63692e-07
-1.37661e-06
-2.60772e-07
-1.29321e-06
-2.57711e-07
-1.21078e-06
-2.54528e-07
-1.12939e-06
-2.51235e-07
-1.04907e-06
-2.47843e-07
-9.69859e-07
-2.4436e-07
-8.91778e-07
-2.40796e-07
-8.14856e-07
-2.37159e-07
-7.39117e-07
-2.33459e-07
-6.64581e-07
-2.29701e-07
-5.91261e-07
-2.25895e-07
-5.19163e-07
-2.22047e-07
-4.48296e-07
-2.18169e-07
-3.78669e-07
-2.14272e-07
-3.10289e-07
-2.10364e-07
-2.43159e-07
-2.06452e-07
-1.77276e-07
-2.02543e-07
-1.12642e-07
-1.9864e-07
-4.92502e-08
-1.9475e-07
1.29044e-08
-1.90879e-07
7.38262e-08
-1.87033e-07
1.33523e-07
-1.83214e-07
1.92009e-07
-1.79426e-07
2.49295e-07
-1.75675e-07
3.05397e-07
-1.71965e-07
3.60327e-07
-1.68305e-07
4.1409e-07
-1.64698e-07
4.66703e-07
-1.61142e-07
5.18186e-07
-1.57637e-07
5.68558e-07
-1.54185e-07
6.17841e-07
-1.50792e-07
6.66064e-07
-1.47465e-07
7.13271e-07
-1.44216e-07
7.59443e-07
-1.41056e-07
8.04548e-07
-1.37952e-07
8.48633e-07
-1.34858e-07
8.91743e-07
-1.31784e-07
9.339e-07
-1.2876e-07
9.75125e-07
-1.25802e-07
1.01544e-06
-1.22916e-07
1.05485e-06
-1.20105e-07
1.09339e-06
-1.17368e-07
1.13107e-06
-1.14704e-07
1.16793e-06
-1.12114e-07
1.20397e-06
-1.09594e-07
1.23923e-06
-1.07145e-07
1.27372e-06
-1.04766e-07
1.30747e-06
-1.02456e-07
1.3405e-06
-1.00215e-07
1.37283e-06
-9.80439e-08
1.40448e-06
-9.59414e-08
1.43547e-06
-9.39078e-08
1.46584e-06
-9.19433e-08
1.49559e-06
-9.0048e-08
1.52475e-06
-8.82216e-08
1.55334e-06
-8.64642e-08
1.58139e-06
-8.47756e-08
1.60892e-06
-8.31555e-08
1.63594e-06
-8.16032e-08
1.66249e-06
-8.01175e-08
1.68857e-06
-7.86968e-08
1.71421e-06
-7.73385e-08
1.73943e-06
-7.60385e-08
1.76425e-06
-7.47914e-08
1.78868e-06
-7.35891e-08
1.81273e-06
-7.24204e-08
1.8364e-06
-7.12696e-08
1.8597e-06
-7.01151e-08
1.88263e-06
-6.8927e-08
1.90515e-06
-6.76638e-08
1.92723e-06
-6.62683e-08
1.94882e-06
-6.46604e-08
1.96982e-06
-6.27269e-08
1.9901e-06
-6.03049e-08
2.00946e-06
-5.7154e-08
2.0276e-06
-5.29107e-08
2.0441e-06
-4.69845e-08
2.05836e-06
-3.84355e-08
2.0696e-06
-2.55041e-08
2.07694e-06
-5.34647e-09
2.08084e-06
2.75258e-08
8.5497e-08
2.08339e-06
9.37406e-08
-6.17121e-07
6.23983e-08
-5.14973e-07
1.39146e-08
-3.69475e-07
-4.31774e-08
-2.36726e-07
-1.12676e-07
-1.09989e-07
-1.9805e-07
1.23953e-08
-3.02284e-07
1.30706e-07
-4.27792e-07
2.44586e-07
-5.77154e-07
3.53775e-07
-7.53751e-07
4.58384e-07
-9.62342e-07
5.58998e-07
-1.20724e-06
6.56908e-07
-1.48724e-06
7.53319e-07
-1.79154e-06
8.47313e-07
-2.10143e-06
9.34541e-07
-2.39729e-06
1.00859e-06
-2.66463e-06
1.06368e-06
-2.89518e-06
1.09655e-06
-3.08568e-06
1.10667e-06
-3.23693e-06
1.0957e-06
-3.35331e-06
1.06671e-06
-3.44134e-06
1.02316e-06
-3.50816e-06
9.68828e-07
-3.56027e-06
9.07523e-07
-3.60317e-06
8.42453e-07
-3.64129e-06
7.76251e-07
-3.67786e-06
7.11031e-07
-3.71493e-06
6.48339e-07
-3.7535e-06
5.89179e-07
-3.79383e-06
5.34072e-07
-3.83574e-06
4.8317e-07
-3.87874e-06
4.36396e-07
-3.92219e-06
3.93516e-07
-3.9654e-06
3.5421e-07
-4.00772e-06
3.18115e-07
-4.04855e-06
2.8486e-07
-4.08741e-06
2.5409e-07
-4.12386e-06
2.25471e-07
-4.15757e-06
1.98705e-07
-4.18825e-06
1.73528e-07
-4.2157e-06
1.4971e-07
-4.23972e-06
1.27054e-07
-4.26017e-06
1.05395e-07
-4.27692e-06
8.45902e-08
-4.28987e-06
6.45209e-08
-4.29893e-06
4.50853e-08
-4.30403e-06
2.6197e-08
-4.30511e-06
7.77933e-09
-4.30216e-06
-1.02414e-08
-4.29519e-06
-2.79264e-08
-4.28428e-06
-4.53036e-08
-4.26948e-06
-6.23698e-08
-4.25083e-06
-7.91124e-08
-4.22839e-06
-9.55185e-08
-4.2022e-06
-1.11575e-07
-4.17233e-06
-1.27267e-07
-4.13885e-06
-1.42579e-07
-4.10185e-06
-1.57495e-07
-4.06141e-06
-1.71997e-07
-4.01763e-06
-1.86066e-07
-3.9706e-06
-1.99685e-07
-3.92044e-06
-2.12835e-07
-3.86725e-06
-2.25496e-07
-3.81116e-06
-2.37653e-07
-3.75228e-06
-2.49294e-07
-3.69074e-06
-2.60405e-07
-3.62667e-06
-2.70973e-07
-3.5602e-06
-2.80988e-07
-3.49145e-06
-2.90441e-07
-3.42057e-06
-2.99328e-07
-3.34769e-06
-3.07644e-07
-3.27295e-06
-3.15387e-07
-3.19648e-06
-3.22558e-07
-3.11842e-06
-3.29159e-07
-3.03891e-06
-3.35193e-07
-2.95807e-06
-3.40667e-07
-2.87605e-06
-3.45588e-07
-2.79297e-06
-3.49965e-07
-2.70896e-06
-3.53808e-07
-2.62416e-06
-3.57131e-07
-2.53867e-06
-3.59945e-07
-2.45263e-06
-3.62267e-07
-2.36615e-06
-3.6411e-07
-2.27934e-06
-3.65493e-07
-2.19232e-06
-3.66432e-07
-2.10519e-06
-3.66944e-07
-2.01806e-06
-3.67049e-07
-1.93103e-06
-3.66763e-07
-1.8442e-06
-3.66104e-07
-1.75767e-06
-3.65087e-07
-1.67153e-06
-3.63727e-07
-1.58587e-06
-3.62034e-07
-1.50078e-06
-3.60014e-07
-1.41631e-06
-3.57671e-07
-1.33252e-06
-3.55006e-07
-1.24944e-06
-3.52029e-07
-1.16712e-06
-3.48759e-07
-1.08558e-06
-3.45229e-07
-1.00488e-06
-3.41472e-07
-9.25069e-07
-3.37521e-07
-8.462e-07
-3.33397e-07
-7.68316e-07
-3.2912e-07
-6.91455e-07
-3.24704e-07
-6.15651e-07
-3.20165e-07
-5.40931e-07
-3.15516e-07
-4.67322e-07
-3.10769e-07
-3.94845e-07
-3.05936e-07
-3.23519e-07
-3.01028e-07
-2.53356e-07
-2.96058e-07
-1.84368e-07
-2.91036e-07
-1.16562e-07
-2.85975e-07
-4.99489e-08
-2.80886e-07
1.54676e-08
-2.75781e-07
7.96822e-08
-2.70668e-07