/*--------------------------------*- C++ -*----------------------------------*\
| =========                 |                                                 |
| \\      /  F ield         | OpenFOAM: The Open Source CFD Toolbox           |
|  \\    /   O peration     | Version:  v2012                                 |
|   \\  /    A nd           | Website:  www.openfoam.com                      |
|    \\/     M anipulation  |                                                 |
\*---------------------------------------------------------------------------*/
FoamFile
{
    version     2.0;
    format      ascii;
    class       volScalarField;
    location    "1500";
    object      k;
}
// * * * * * * * * * * * * * * * * * * * * * * * * * * * * * * * * * * * * * //

dimensions      [0 2 -2 0 0 0 0];


internalField   nonuniform List<scalar> 
12225
(
0.545202
0.818771
0.988979
1.0766
1.10265
1.09676
1.07979
1.04974
1.01763
0.986896
0.958432
0.932248
0.909683
0.888284
0.872168
0.854296
0.845372
0.829464
0.380883
0.390046
0.403028
0.41822
0.43199
0.447948
0.463511
0.483306
0.502899
0.527295
0.544288
0.566983
0.581635
0.602551
0.614802
0.633765
0.643339
0.659725
0.374632
0.373933
0.372651
0.369438
0.365409
0.360096
0.355005
0.349862
0.345668
0.342304
0.339364
0.337145
0.335095
0.333794
0.332487
0.331907
0.331166
0.331277
0.374228
0.371925
0.370152
0.367443
0.364834
0.361194
0.357792
0.353572
0.349802
0.345459
0.341675
0.337446
0.33381
0.329763
0.326317
0.32261
0.319462
0.316247
0.374059
0.371647
0.369766
0.367452
0.36536
0.362761
0.360376
0.357525
0.35493
0.351945
0.349262
0.34619
0.343463
0.340418
0.337785
0.334857
0.332437
0.329707
0.373946
0.371612
0.369641
0.367525
0.365618
0.3635
0.361542
0.359377
0.35736
0.355159
0.353115
0.350894
0.348842
0.346625
0.344628
0.342472
0.340609
0.338565
0.373885
0.371599
0.369556
0.367516
0.365649
0.363748
0.361974
0.360144
0.358416
0.356629
0.354935
0.353178
0.351516
0.34979
0.348183
0.346511
0.345003
0.343413
0.373859
0.371589
0.369505
0.367481
0.365605
0.363769
0.362046
0.360342
0.358726
0.357113
0.355576
0.354031
0.352557
0.351068
0.349662
0.348235
0.346917
0.345565
0.373846
0.371581
0.369471
0.367449
0.365557
0.363739
0.362029
0.360373
0.358804
0.357275
0.355816
0.354384
0.353015
0.351661
0.350373
0.349093
0.347893
0.346687
0.373837
0.371573
0.369447
0.367421
0.365513
0.363695
0.361979
0.360338
0.358783
0.357289
0.355868
0.354495
0.353185
0.351912
0.350698
0.349512
0.348389
0.347285
0.373832
0.371567
0.369429
0.367399
0.365479
0.363655
0.361928
0.360286
0.358727
0.357241
0.355828
0.354476
0.353188
0.351951
0.350771
0.349635
0.348551
0.347506
0.373829
0.371561
0.369415
0.367381
0.365453
0.363623
0.361887
0.360238
0.358672
0.357181
0.355764
0.354414
0.353128
0.3519
0.350728
0.349609
0.348539
0.347516
0.373828
0.371557
0.369406
0.367367
0.365433
0.363598
0.361856
0.360201
0.358628
0.357131
0.355707
0.354352
0.353061
0.35183
0.350656
0.349537
0.348468
0.347448
0.373826
0.371554
0.369399
0.367357
0.365419
0.363579
0.361832
0.360172
0.358594
0.357092
0.355663
0.354302
0.353005
0.35177
0.350591
0.349468
0.348394
0.347371
0.373826
0.371552
0.369395
0.367349
0.365408
0.363565
0.361814
0.36015
0.358568
0.357062
0.355629
0.354263
0.352962
0.351723
0.35054
0.349412
0.348335
0.347308
0.373825
0.37155
0.369392
0.367344
0.365401
0.363555
0.361802
0.360135
0.358549
0.35704
0.355603
0.354235
0.352931
0.351688
0.350502
0.349371
0.348291
0.347261
0.373825
0.371549
0.36939
0.367341
0.365396
0.363549
0.361793
0.360124
0.358536
0.357025
0.355586
0.354215
0.352909
0.351663
0.350475
0.349342
0.34826
0.347228
0.373825
0.371549
0.369389
0.36734
0.365394
0.363546
0.36179
0.360119
0.35853
0.357018
0.355577
0.354205
0.352897
0.35165
0.350461
0.349326
0.348243
0.34721
0.373825
0.371549
0.36939
0.367341
0.365395
0.363547
0.36179
0.360119
0.35853
0.357017
0.355576
0.354203
0.352895
0.351647
0.350458
0.349322
0.348239
0.347205
0.373825
0.37155
0.369391
0.367343
0.365398
0.36355
0.361794
0.360124
0.358535
0.357022
0.355581
0.354209
0.352901
0.351653
0.350464
0.349329
0.348246
0.347212
0.373826
0.371551
0.369394
0.367346
0.365403
0.363556
0.361801
0.360132
0.358544
0.357033
0.355593
0.354221
0.352914
0.351667
0.350478
0.349343
0.34826
0.347226
0.373826
0.371553
0.369398
0.367353
0.365411
0.363566
0.361813
0.360146
0.358559
0.357048
0.355609
0.354237
0.352929
0.351682
0.35049
0.349353
0.348266
0.347228
0.373827
0.371558
0.369404
0.367362
0.365422
0.363581
0.361828
0.360161
0.358571
0.357057
0.355612
0.354233
0.352914
0.351654
0.350446
0.349291
0.348182
0.347122
0.37383
0.371568
0.369412
0.367372
0.365433
0.363591
0.361829
0.360146
0.358532
0.35699
0.35551
0.354091
0.352725
0.351412
0.350143
0.348925
0.347746
0.346617
0.373848
0.371591
0.369403
0.367349
0.365399
0.363535
0.36172
0.359971
0.358266
0.356629
0.355036
0.353501
0.351999
0.350547
0.349125
0.347755
0.346411
0.345126
0.373923
0.371595
0.369274
0.367175
0.365189
0.36326
0.361288
0.359362
0.357432
0.355568
0.353714
0.351913
0.350119
0.348377
0.346646
0.344978
0.343329
0.341755
0.374153
0.371487
0.368932
0.3668
0.364732
0.362657
0.360336
0.358035
0.355622
0.353289
0.350899
0.348581
0.346237
0.343968
0.341712
0.339551
0.337431
0.335425
0.374724
0.371585
0.36916
0.367432
0.365188
0.362846
0.359927
0.357064
0.353916
0.350975
0.347952
0.345145
0.342424
0.339888
0.337608
0.335453
0.333679
0.331894
0.37702
0.377787
0.380343
0.383722
0.387325
0.391705
0.39591
0.400664
0.40549
0.410983
0.416729
0.423022
0.429833
0.436896
0.444736
0.452342
0.460429
0.467399
0.451352
0.581365
0.685506
0.765521
0.822501
0.862108
0.886871
0.902505
0.911748
0.915877
0.915285
0.912419
0.907526
0.900778
0.892243
0.883834
0.875711
0.867932
4.23415e-06
3.35383e-05
8.63424e-05
0.000167698
0.000268137
0.000387392
0.000586288
0.000916578
0.00140991
0.00205375
0.00275106
0.00346183
0.00412669
0.00471413
0.00521757
0.00562492
0.00593753
0.00614941
0.00627831
0.0062818
0.00621558
0.00611919
0.00588698
0.00550479
0.0049566
0.00422614
0.00332718
0.00231725
0.00133084
0.000572306
0.000167715
4.61586e-05
3.57156e-05
3.88329e-05
4.47134e-05
5.29219e-05
6.22855e-05
6.96592e-05
8.11977e-05
0.000126226
0.000320237
0.000731715
0.00135869
0.00189505
0.00222902
0.00222188
0.00211308
0.00190236
0.00165732
0.00145807
0.00144733
0.0017011
0.0022428
0.00242956
0.00289797
0.00381178
0.00761888
0.022213
0.041083
0.0598727
0.0775841
0.0942311
0.109814
0.124565
0.138618
0.152203
0.165296
0.177474
0.189166
0.20021
0.210851
0.221027
0.230891
0.240422
0.249713
0.258758
0.267606
0.276262
0.284766
0.293106
0.301317
0.309383
0.317328
0.325139
0.33283
0.34039
0.347824
0.355122
0.362285
0.369303
0.37617
0.382876
0.389411
0.395766
0.401928
0.407889
0.413641
0.419184
0.424527
0.429697
0.434749
0.439647
0.444353
0.448891
0.453247
0.457422
0.461409
0.465206
0.468808
0.472211
0.475411
0.478407
0.481193
0.483769
0.486131
0.488279
0.490209
0.491923
0.493418
0.494697
0.495757
0.496602
0.497233
0.497653
0.497864
0.497875
0.497696
0.497332
0.496676
0.495876
0.494742
0.493409
0.491841
0.490071
0.488138
0.486024
0.48368
0.481161
0.47846
0.475585
0.472541
0.469335
0.465972
0.462456
0.458797
0.455
0.45108
0.447021
0.442885
0.438552
0.434201
0.429645
0.425103
0.420358
0.415666
0.410772
0.405973
0.400972
0.396101
0.391046
0.386072
0.381028
0.375987
0.370929
0.365866
0.360803
0.355751
0.350715
0.345701
0.34071
0.335738
0.330777
0.325813
0.320827
0.31577
0.310578
0.305211
0.300077
0.296284
0.280459
2.06427e-05
1.3898e-05
4.71314e-05
0.000121167
0.000307583
0.000889333
0.00209954
0.0039487
0.00619764
0.00853015
0.0107174
0.0126546
0.014159
0.0152089
0.0158597
0.0161151
0.0160645
0.0158468
0.0154567
0.0148852
0.0141258
0.0131595
0.012018
0.0106831
0.00925012
0.00765515
0.00611766
0.00466732
0.00331699
0.00215742
0.00128306
0.000716516
0.000394813
0.000224174
0.000138669
9.92699e-05
9.01935e-05
0.000130496
0.000314788
0.000595578
0.00209647
0.00453894
0.00783284
0.0102983
0.01156
0.0114855
0.0109735
0.00964974
0.00831428
0.00837968
0.00973557
0.0133661
0.0173654
0.0236881
0.0333508
0.0468925
0.0661775
0.0924895
0.116772
0.143481
0.169555
0.19644
0.223244
0.250127
0.276763
0.302947
0.328509
0.353278
0.377283
0.400448
0.42286
0.444538
0.465586
0.486083
0.506069
0.525638
0.544827
0.563688
0.582284
0.600621
0.618749
0.636669
0.654408
0.671968
0.68936
0.706583
0.723641
0.740527
0.757238
0.773765
0.790098
0.806223
0.822125
0.837784
0.853177
0.868278
0.883057
0.897482
0.911517
0.925128
0.938294
0.951146
0.963742
0.976046
0.988067
0.999784
1.01119
1.02228
1.03303
1.04343
1.05349
1.06318
1.0725
1.08143
1.08998
1.09813
1.10588
1.11321
1.12013
1.12663
1.13271
1.13836
1.14359
1.14838
1.15276
1.15671
1.16026
1.16342
1.1662
1.16866
1.17083
1.17258
1.17389
1.17463
1.17506
1.17523
1.1749
1.17412
1.17296
1.17141
1.16948
1.16717
1.16451
1.16148
1.15812
1.15441
1.1504
1.14608
1.14143
1.13651
1.13126
1.12578
1.11998
1.114
1.10773
1.10131
1.09466
1.08791
1.08096
1.07394
1.06676
1.05951
1.05217
1.04474
1.03725
1.0297
1.02212
1.01453
1.00694
0.999358
0.991789
0.984217
0.976621
0.968962
0.961159
0.953081
0.944538
0.935243
0.923413
0.896198
2.46154e-05
1.1636e-05
5.33511e-05
0.000232464
0.000737129
0.00219604
0.00477749
0.00782673
0.0109311
0.013817
0.0163178
0.0183429
0.0198717
0.0209319
0.0215623
0.0218447
0.0218144
0.0216335
0.0212795
0.0207415
0.0200736
0.0192714
0.0183297
0.0172295
0.015932
0.0144824
0.0127491
0.0108161
0.00880751
0.00680841
0.0049883
0.00334318
0.00213357
0.00136388
0.000894711
0.000642238
0.000496585
0.000384713
0.00116984
0.00213349
0.00631585
0.01305
0.0191348
0.023273
0.0253884
0.0261693
0.0265157
0.0269879
0.0290386
0.0353586
0.0469862
0.0646355
0.0805389
0.101647
0.125756
0.152978
0.183576
0.21503
0.250005
0.286504
0.324216
0.362509
0.400728
0.438354
0.474967
0.510274
0.544164
0.576611
0.6077
0.63754
0.666292
0.694098
0.721085
0.747394
0.773105
0.798318
0.823106
0.847528
0.871628
0.895438
0.918986
0.94229
0.965362
0.988212
1.01084
1.03325
1.05544
1.07741
1.09915
1.12064
1.14188
1.16287
1.18358
1.20401
1.22414
1.24396
1.26346
1.28264
1.30148
1.31999
1.33817
1.35602
1.3735
1.3906
1.40731
1.4236
1.43946
1.45488
1.46984
1.48433
1.49834
1.51184
1.52484
1.53731
1.54925
1.56065
1.5715
1.58179
1.59151
1.60065
1.60922
1.61721
1.62462
1.63143
1.63767
1.64332
1.64839
1.65288
1.6568
1.66015
1.66293
1.66511
1.6667
1.66758
1.66798
1.66799
1.66729
1.66602
1.66421
1.66186
1.65897
1.65557
1.65167
1.64727
1.6424
1.63706
1.63128
1.62507
1.61839
1.61136
1.60387
1.59605
1.5878
1.57928
1.57036
1.56123
1.55177
1.54214
1.53223
1.5222
1.51197
1.50161
1.49112
1.4805
1.46978
1.45897
1.44811
1.43722
1.42632
1.41543
1.40456
1.3937
1.38285
1.37199
1.36104
1.34994
1.3385
1.32648
1.31198
1.28688
2.47951e-05
2.73088e-05
0.000184399
0.000850407
0.0024335
0.0060149
0.0104377
0.0148378
0.0187926
0.0220705
0.0245867
0.0263614
0.0274441
0.0279979
0.0280629
0.0279167
0.0275413
0.0269652
0.0262802
0.025513
0.0246813
0.0237828
0.0228122
0.0217519
0.0205767
0.0192654
0.0177772
0.0160821
0.014182
0.0121433
0.0100474
0.00806249
0.00614568
0.00453373
0.00322201
0.00241302
0.00192353
0.00172709
0.00436736
0.00927404
0.0216039
0.033297
0.0415833
0.0465685
0.0492077
0.0518597
0.0590489
0.0729279
0.0888218
0.105143
0.122785
0.140691
0.161989
0.189182
0.219671
0.255105
0.293517
0.334284
0.376816
0.419951
0.46325
0.506171
0.548356
0.589536
0.629535
0.668256
0.705684
0.741863
0.776877
0.810831
0.843848
0.876044
0.907508
0.938359
0.968668
0.998513
1.02795
1.05703
1.08578
1.11424
1.14241
1.17033
1.19799
1.2254
1.25256
1.27947
1.30613
1.33252
1.35865
1.3845
1.41007
1.43534
1.46031
1.48496
1.50929
1.53328
1.55692
1.58021
1.60312
1.62566
1.64779
1.6695
1.69076
1.71155
1.73186
1.75165
1.77092
1.78964
1.80779
1.82537
1.84235
1.85871
1.87445
1.88955
1.90399
1.91777
1.93087
1.94329
1.95501
1.96603
1.97633
1.98593
1.99481
2.00296
2.01039
2.0171
2.02309
2.02835
2.03289
2.0367
2.03979
2.04216
2.04377
2.04458
2.04484
2.04447
2.04333
2.0415
2.03899
2.03583
2.03202
2.02758
2.02253
2.01688
2.01065
2.00385
1.99649
1.98862
1.9802
1.97131
1.96191
1.95207
1.94176
1.93106
1.91992
1.90847
1.89665
1.88458
1.87221
1.85964
1.84684
1.83386
1.82071
1.80742
1.79398
1.78045
1.76683
1.75316
1.73948
1.72581
1.71217
1.69857
1.68501
1.67148
1.65797
1.64443
1.63075
1.61675
1.60078
1.57759
3.29399e-05
9.28982e-05
0.00063965
0.00239656
0.00682492
0.0132684
0.0194423
0.0246339
0.028554
0.0312099
0.0327922
0.0335496
0.0336435
0.0334284
0.0329018
0.0321549
0.0313059
0.0304034
0.0294804
0.028554
0.0276294
0.0266984
0.0257471
0.0247548
0.0236971
0.0225453
0.021269
0.0198362
0.0182116
0.0163895
0.0144126
0.012388
0.0104128
0.0085399
0.00721176
0.00566331
0.00573446
0.00785836
0.017223
0.0359845
0.0550905
0.0693496
0.078865
0.0862279
0.0949232
0.106013
0.118718
0.131696
0.14574
0.16187
0.182251
0.207839
0.238581
0.274416
0.313573
0.355535
0.398825
0.443025
0.487578
0.532096
0.576391
0.62028
0.663616
0.706272
0.748144
0.789163
0.829291
0.868539
0.906935
0.944525
0.98138
1.01757
1.05316
1.08822
1.12282
1.15699
1.19079
1.22425
1.25739
1.29023
1.32279
1.35507
1.38708
1.41882
1.45029
1.48148
1.51239
1.54301
1.57333
1.60334
1.63302
1.66238
1.6914
1.72006
1.74835
1.77626
1.80377
1.83087
1.85753
1.88374
1.90946
1.93468
1.95938
1.98352
2.00709
2.03006
2.05241
2.07412
2.09516
2.11553
2.13519
2.15413
2.17234
2.18979
2.20648
2.22238
2.2375
2.2518
2.26529
2.27796
2.2898
2.30079
2.31095
2.32025
2.32871
2.33631
2.34306
2.34896
2.354
2.35819
2.36153
2.36404
2.36564
2.36634
2.36643
2.36568
2.3641
2.36171
2.35853
2.3546
2.34992
2.3445
2.33837
2.33155
2.32405
2.31589
2.30708
2.29767
2.28764
2.27705
2.26588
2.2542
2.24198
2.22928
2.21612
2.20255
2.18857
2.17427
2.15964
2.14474
2.12959
2.11422
2.09866
2.0829
2.06699
2.05095
2.03481
2.01861
2.00239
1.98618
1.97
1.95389
1.93785
1.9219
1.90605
1.89029
1.87456
1.85875
1.84147
1.81894
2.75263e-05
0.000282265
0.00186741
0.00654559
0.0156788
0.0240933
0.030479
0.0347189
0.0371598
0.0383122
0.0385853
0.0383502
0.0377075
0.0367607
0.0356728
0.0345235
0.0333717
0.0322559
0.0311973
0.0302025
0.029266
0.0283716
0.0274982
0.0266194
0.0257046
0.02472
0.0236344
0.0224221
0.0210607
0.0195359
0.0178628
0.0161091
0.0143749
0.0124448
0.0112186
0.0118336
0.0168616
0.0318561
0.0571122
0.0813978
0.100817
0.114354
0.123739
0.131549
0.139644
0.148821
0.159601
0.173017
0.191874
0.215593
0.245076
0.27952
0.317925
0.359061
0.401667
0.445198
0.489126
0.533307
0.577589
0.621914
0.666239
0.710499
0.75461
0.798475
0.841994
0.885085
0.927676
0.969731
1.01124
1.0522
1.09264
1.1326
1.1721
1.21119
1.2499
1.28827
1.3263
1.36403
1.40147
1.43862
1.47549
1.51209
1.5484
1.58443
1.62017
1.65562
1.69075
1.72556
1.76004
1.79418
1.82795
1.86136
1.89439
1.92701
1.95921
1.99098
2.02229
2.05312
2.08344
2.11324
2.14248
2.17113
2.19918
2.2266
2.25336
2.27943
2.30479
2.32941
2.35328
2.37636
2.39863
2.42008
2.44069
2.46043
2.47929
2.49726
2.51432
2.53045
2.54565
2.5599
2.5732
2.58554
2.59692
2.60732
2.61674
2.62519
2.63266
2.63915
2.64467
2.6492
2.65278
2.65539
2.65696
2.65758
2.65744
2.65633
2.65429
2.65134
2.64751
2.64281
2.63727
2.63089
2.62371
2.61573
2.60699
2.59751
2.58729
2.57638
2.56479
2.55254
2.53967
2.52619
2.51213
2.49752
2.48238
2.46677
2.45072
2.43427
2.41746
2.40033
2.38292
2.36525
2.34735
2.32924
2.31094
2.29249
2.27393
2.25529
2.23662
2.21796
2.19934
2.18081
2.16238
2.14408
2.12596
2.10804
2.09029
2.07263
2.0539
2.03108
6.89892e-05
0.00089855
0.00514765
0.0160111
0.02744
0.0352657
0.0398331
0.0421613
0.0430754
0.0430579
0.0425505
0.0415048
0.0401937
0.0387465
0.0372601
0.0358074
0.034439
0.033184
0.0320532
0.0310419
0.0301343
0.0293056
0.028527
0.0277632
0.0269759
0.0261211
0.0251567
0.0240553
0.0227886
0.021322
0.0196187
0.0177233
0.0158796
0.015746
0.0188225
0.0299796
0.0523412
0.0808986
0.108078
0.129474
0.143444
0.151258
0.156248
0.161439
0.168502
0.179281
0.195341
0.216579
0.243585
0.275562
0.31185
0.351092
0.392133
0.434137
0.476646
0.519504
0.562622
0.60602
0.649721
0.693751
0.738112
0.782773
0.827667
0.872702
0.917769
0.962777
1.00764
1.0523
1.09671
1.14084
1.18469
1.22824
1.27152
1.31452
1.35726
1.39975
1.44198
1.48397
1.52571
1.56719
1.60841
1.64936
1.69002
1.73039
1.77046
1.81021
1.84962
1.88869
1.92739
1.96571
2.00363
2.04114
2.07822
2.11484
2.151
2.18666
2.2218
2.25639
2.29041
2.32382
2.35661
2.38873
2.42017
2.45088
2.48085
2.51005
2.53844
2.56599
2.59269
2.6185
2.64339
2.66736
2.69036
2.7124
2.73344
2.75346
2.77246
2.79041
2.8073
2.82313
2.83788
2.85154
2.86411
2.87558
2.88596
2.89523
2.9034
2.91046
2.91642
2.92129
2.92507
2.92778
2.92931
2.92983
2.92941
2.92794
2.92542
2.9219
2.91738
2.9119
2.90548
2.89813
2.88988
2.88074
2.87076
2.85994
2.84832
2.83591
2.82275
2.80886
2.79427
2.77902
2.76311
2.7466
2.7295
2.71188
2.69376
2.6752
2.65623
2.6369
2.61725
2.59731
2.5771
2.55666
2.53601
2.51518
2.49422
2.47317
2.45208
2.431
2.40998
2.38904
2.36824
2.34761
2.32722
2.30711
2.28728
2.26767
2.24727
2.2235
0.000608567
0.0027007
0.0123309
0.0281473
0.0384071
0.0440018
0.0467696
0.0478075
0.0477253
0.0469678
0.0455769
0.0438706
0.042006
0.0401086
0.0382746
0.0365715
0.0350398
0.0336955
0.0325344
0.0315371
0.0306746
0.0299113
0.0292067
0.0285146
0.0277731
0.0269516
0.0260496
0.0251
0.0241437
0.023343
0.023054
0.0239353
0.0273536
0.0350555
0.0507511
0.0762919
0.104313
0.130112
0.150281
0.162609
0.168727
0.171956
0.175677
0.183183
0.195797
0.213922
0.237646
0.266412
0.299607
0.336102
0.37485
0.414838
0.455471
0.496493
0.537845
0.579564
0.621712
0.664369
0.707603
0.751464
0.79597
0.841093
0.886766
0.93291
0.979431
1.02623
1.07323
1.12033
1.16748
1.21463
1.26174
1.30878
1.35574
1.40259
1.44933
1.49593
1.54238
1.58867
1.63476
1.68064
1.72629
1.77167
1.81678
1.86159
1.90608
1.95023
1.99403
2.03745
2.08047
2.12306
2.16522
2.20692
2.24813
2.28885
2.32903
2.36865
2.4077
2.44612
2.4839
2.52101
2.5574
2.59306
2.62793
2.662
2.69523
2.72759
2.75905
2.78957
2.81913
2.84769
2.87523
2.90173
2.92715
2.95148
2.97469
2.99677
3.0177
3.03746
3.05603
3.07341
3.08959
3.10455
3.11829
3.13081
3.1421
3.15216
3.16099
3.1686
3.17497
3.18013
3.18408
3.18684
3.18831
3.18869
3.18796
3.18607
3.18304
3.1789
3.17367
3.16737
3.16003
3.15167
3.14232
3.132
3.12074
3.10857
3.09551
3.08159
3.06684
3.05129
3.03498
3.01793
3.00017
2.98174
2.96268
2.94304
2.92285
2.90218
2.88106
2.85954
2.83766
2.81545
2.79295
2.77018
2.74717
2.72398
2.70063
2.67718
2.65369
2.6302
2.60676
2.58343
2.56024
2.53727
2.51457
2.49221
2.47022
2.44855
2.42628
2.40106
0.00225049
0.00652376
0.0235362
0.038958
0.0471243
0.0511015
0.0526912
0.0527666
0.0519261
0.0502907
0.0482217
0.0459221
0.0435597
0.041267
0.0391412
0.0372429
0.0356002
0.0342126
0.0330579
0.0321006
0.0312974
0.0305985
0.029953
0.0292875
0.0285735
0.0277865
0.0269859
0.0263313
0.026008
0.0267975
0.0298646
0.0371002
0.0511166
0.0722078
0.097482
0.122577
0.145015
0.162202
0.172713
0.177888
0.180958
0.185884
0.195029
0.209585
0.22965
0.254816
0.284407
0.317532
0.353293
0.390755
0.429184
0.468118
0.507399
0.547041
0.587129
0.627768
0.669066
0.711124
0.754027
0.797825
0.84253
0.888123
0.934562
0.981777
1.02968
1.07819
1.12721
1.17666
1.22644
1.27651
1.32681
1.37727
1.42787
1.47856
1.5293
1.58006
1.63078
1.68144
1.73197
1.78235
1.83252
1.88245
1.93211
1.98147
2.0305
2.07917
2.12746
2.17534
2.22277
2.26974
2.31623
2.3622
2.40764
2.45252
2.49681
2.54048
2.58349
2.62582
2.66743
2.70828
2.74833
2.78756
2.82592
2.86337
2.89989
2.93544
2.96997
3.00347
3.03589
3.0672
3.09737
3.12638
3.15419
3.18079
3.20615
3.23025
3.25307
3.27459
3.2948
3.31369
3.33124
3.34744
3.3623
3.3758
3.38794
3.39873
3.40816
3.41624
3.42296
3.42835
3.43241
3.43515
3.4365
3.43666
3.43556
3.4332
3.4296
3.42478
3.41878
3.41161
3.4033
3.39388
3.38338
3.37183
3.35926
3.3457
3.33117
3.31571
3.29934
3.28211
3.26405
3.24519
3.22556
3.2052
3.18416
3.16249
3.14025
3.11747
3.0942
3.07049
3.04638
3.02191
2.99712
2.97203
2.94668
2.92112
2.89539
2.86955
2.84366
2.81776
2.79192
2.76618
2.74061
2.71526
2.69022
2.66557
2.64133
2.6175
2.5932
2.56623
0.00478723
0.0126554
0.0348154
0.0484373
0.0549147
0.0577272
0.0583828
0.0576695
0.0559732
0.0536368
0.0509327
0.0480812
0.0452672
0.042633
0.0402753
0.0382452
0.0365548
0.0351878
0.0341073
0.0332623
0.0326112
0.0321024
0.0317173
0.0314821
0.0314927
0.0318322
0.0328903
0.034877
0.0384347
0.0447987
0.0559455
0.0719642
0.0914843
0.112775
0.133721
0.151949
0.165949
0.175319
0.181186
0.186206
0.19332
0.204661
0.221091
0.242532
0.268394
0.297901
0.330247
0.364652
0.400434
0.43703
0.474098
0.511516
0.549323
0.587631
0.62657
0.666274
0.706865
0.748455
0.791121
0.834914
0.879861
0.925956
0.97317
1.02145
1.07072
1.1209
1.17191
1.22365
1.27604
1.32901
1.38247
1.43637
1.49063
1.54519
1.59998
1.65495
1.71002
1.76513
1.8202
1.87518
1.92999
1.98457
2.0389
2.09291
2.14658
2.19986
2.25273
2.30515
2.35709
2.40851
2.45939
2.50971
2.55944
2.60854
2.65699
2.70474
2.75176
2.79802
2.84347
2.88808
2.93181
2.97461
3.01644
3.05727
3.09705
3.13575
3.17333
3.20975
3.24498
3.27899
3.31173
3.34317
3.3733
3.40209
3.42951
3.45555
3.48017
3.50336
3.52511
3.5454
3.56422
3.58157
3.59743
3.61181
3.62471
3.63612
3.64604
3.65449
3.66146
3.66696
3.67103
3.67365
3.67481
3.67464
3.67309
3.67017
3.66591
3.66033
3.65347
3.64536
3.63601
3.62547
3.61376
3.60092
3.58699
3.57198
3.55594
3.53891
3.5209
3.50195
3.48212
3.46142
3.43989
3.41759
3.39456
3.37087
3.34655
3.32167
3.29627
3.27038
3.24405
3.21734
3.19026
3.16287
3.13519
3.10728
3.07919
3.05098
3.0227
2.99441
2.96617
2.93803
2.91006
2.88233
2.85493
2.82794
2.80141
2.77535
2.74894
2.72029
0.00732513
0.0207415
0.0448925
0.0567811
0.0621824
0.0642046
0.0641587
0.0627187
0.0603391
0.0573691
0.0541017
0.0507841
0.0476168
0.0447469
0.0422659
0.0402136
0.0385858
0.0373543
0.0364653
0.0358399
0.0355228
0.0353865
0.0354975
0.0360493
0.0373016
0.0397722
0.0441158
0.0510259
0.0610065
0.0740971
0.089344
0.10605
0.123334
0.139851
0.154318
0.165933
0.174808
0.181989
0.189427
0.199174
0.212774
0.230793
0.253048
0.278946
0.307774
0.338849
0.37157
0.405431
0.440038
0.475132
0.510614
0.546518
0.582957
0.620078
0.65803
0.696957
0.736986
0.778221
0.820748
0.86463
0.909903
0.956577
1.00464
1.05404
1.10473
1.15664
1.20968
1.26377
1.31882
1.37473
1.43143
1.48882
1.54682
1.60533
1.66427
1.72353
1.78304
1.84268
1.90238
1.96205
2.02158
2.08091
2.13998
2.19872
2.25709
2.31505
2.37256
2.42958
2.48605
2.54195
2.59725
2.65193
2.70595
2.75927
2.81186
2.86368
2.91468
2.96483
3.01408
3.06239
3.10972
3.15601
3.20123
3.24533
3.28827
3.33001
3.37052
3.40975
3.44766
3.48421
3.51937
3.55311
3.58541
3.61623
3.64555
3.67335
3.6996
3.7243
3.74741
3.76894
3.78886
3.80718
3.82388
3.83898
3.85246
3.86433
3.87459
3.88324
3.8903
3.89579
3.89971
3.90208
3.90292
3.90229
3.90016
3.89656
3.89153
3.88509
3.87728
3.86812
3.85765
3.84591
3.83292
3.81873
3.80336
3.78687
3.76928
3.75063
3.73094
3.71027
3.68863
3.66608
3.64265
3.6184
3.59339
3.56768
3.54132
3.51435
3.48684
3.4588
3.4303
3.40137
3.37204
3.34236
3.31238
3.28216
3.25175
3.22121
3.19058
3.15993
3.12932
3.09881
3.06846
3.03835
3.00859
2.97925
2.9504
2.92206
2.89347
2.86298
0.00922374
0.0294632
0.0537357
0.0649105
0.0696563
0.0710352
0.0703773
0.0683183
0.0653524
0.06187
0.0581961
0.0545971
0.0512791
0.048386
0.0460003
0.0441554
0.04283
0.0420225
0.0417012
0.0417061
0.0422297
0.0433999
0.0454274
0.0485894
0.0531885
0.0594874
0.0676655
0.0777199
0.0894842
0.102547
0.11624
0.129886
0.142833
0.154528
0.164775
0.173847
0.18266
0.192526
0.204787
0.220332
0.239477
0.262003
0.287413
0.315131
0.344623
0.375446
0.407245
0.439751
0.472787
0.506276
0.540242
0.574786
0.610048
0.64619
0.683364
0.721708
0.761355
0.802415
0.844981
0.889125
0.934897
0.982323
1.0314
1.0821
1.13438
1.18818
1.24342
1.30001
1.35786
1.41687
1.47694
1.53797
1.59984
1.66244
1.72563
1.7893
1.85333
1.9176
1.982
2.04641
2.11072
2.17483
2.23867
2.30216
2.36525
2.42788
2.49001
2.55158
2.61254
2.67286
2.73252
2.79147
2.84969
2.90714
2.96376
3.01952
3.07436
3.12825
3.18114
3.23299
3.28374
3.33334
3.38174
3.42891
3.47479
3.51934
3.56254
3.60433
3.64467
3.68352
3.72085
3.75663
3.79082
3.8234
3.85435
3.88365
3.91128
3.93721
3.96143
3.98393
4.0047
4.02373
4.04103
4.0566
4.07042
4.08252
4.09289
4.10154
4.10849
4.11374
4.11733
4.11927
4.1196
4.11835
4.11549
4.11106
4.10512
4.09769
4.0888
4.0785
4.0668
4.05376
4.03941
4.02379
4.00694
3.9889
3.96971
3.94942
3.92804
3.90562
3.88218
3.85777
3.83245
3.80627
3.77931
3.75161
3.72324
3.69425
3.66467
3.63455
3.60392
3.57283
3.54131
3.50942
3.47721
3.44474
3.41208
3.37927
3.34637
3.31343
3.28051
3.24767
3.21498
3.18255
3.15045
3.11879
3.08762
3.05701
3.02622
2.99383
0.0103347
0.03709
0.0619994
0.0729453
0.0773225
0.0783064
0.0771694
0.0746069
0.0712027
0.0674145
0.0636051
0.0600474
0.0569319
0.0543828
0.0524775
0.0512918
0.0508092
0.0508015
0.0514882
0.0528923
0.0551195
0.0582873
0.0625273
0.0679467
0.0746006
0.08248
0.0915006
0.101482
0.112137
0.123106
0.134026
0.144633
0.154817
0.164647
0.174491
0.185023
0.19706
0.211324
0.228274
0.248003
0.270315
0.294834
0.321142
0.348857
0.377668
0.407338
0.437697
0.468638
0.500118
0.53216
0.564848
0.598313
0.6327
0.668167
0.704868
0.74295
0.782541
0.823747
0.866669
0.91139
0.957974
1.00646
1.05685
1.10916
1.16333
1.21933
1.27708
1.33649
1.39745
1.45985
1.52357
1.58849
1.65447
1.72134
1.78895
1.85712
1.92572
1.99461
2.06368
2.13278
2.20179
2.2706
2.33912
2.40726
2.47496
2.54214
2.60874
2.6747
2.73997
2.80453
2.86833
2.93135
2.99356
3.05489
3.11529
3.17472
3.23312
3.29046
3.34667
3.40173
3.45556
3.50812
3.55936
3.60922
3.65766
3.70465
3.75015
3.7941
3.83648
3.87724
3.91633
3.95374
3.98943
4.02338
4.05557
4.08598
4.11458
4.14137
4.16632
4.18942
4.21067
4.23007
4.24762
4.26332
4.27717
4.28919
4.29937
4.30772
4.31427
4.31904
4.32205
4.32332
4.32292
4.32085
4.31704
4.31161
4.30459
4.29602
4.28592
4.27433
4.2613
4.24686
4.23106
4.21394
4.19554
4.17591
4.15509
4.13312
4.11005
4.08589
4.06067
4.03442
4.00723
3.97918
3.95032
3.92071
3.8904
3.85945
3.8279
3.79578
3.76314
3.72998
3.69636
3.66235
3.62801
3.59342
3.55861
3.52365
3.48858
3.45345
3.41832
3.38325
3.34832
3.31363
3.27927
3.24535
3.21192
3.17907
3.14612
3.11187
0.0110073
0.0438238
0.0702471
0.0812561
0.0853728
0.0860541
0.084482
0.0814945
0.0778048
0.0739639
0.0703641
0.0672539
0.0647739
0.0629786
0.0620285
0.0617503
0.062135
0.0632961
0.0652395
0.0679978
0.071595
0.0760637
0.0814205
0.0876374
0.0946532
0.102378
0.110692
0.119456
0.128536
0.137841
0.147326
0.157051
0.167198
0.178094
0.190165
0.203842
0.219458
0.237181
0.256993
0.278724
0.302116
0.326889
0.352793
0.37963
0.407251
0.435562
0.464516
0.494107
0.524377
0.5554
0.587282
0.620147
0.654142
0.689425
0.726151
0.764469
0.804519
0.846398
0.89021
0.936054
0.984007
1.03412
1.08641
1.14089
1.19754
1.2563
1.31711
1.37987
1.44443
1.51067
1.57843
1.64755
1.71785
1.78917
1.86125
1.9339
2.00694
2.08024
2.1537
2.2272
2.30061
2.37383
2.44673
2.51924
2.59127
2.66271
2.73343
2.80342
2.87264
2.94106
3.00862
3.07531
3.14107
3.20584
3.26957
3.33219
3.39366
3.45393
3.51295
3.57068
3.62705
3.68201
3.73551
3.78749
3.83792
3.88676
3.93397
3.9795
4.02333
4.06541
4.10569
4.14415
4.18077
4.21552
4.24839
4.27936
4.30841
4.33553
4.3607
4.38391
4.40516
4.42446
4.44181
4.45721
4.47067
4.4822
4.4918
4.4995
4.50531
4.50926
4.51137
4.5117
4.51034
4.50713
4.50216
4.49552
4.48724
4.47734
4.46587
4.45287
4.43838
4.42244
4.4051
4.38641
4.3664
4.34513
4.32266
4.29902
4.27425
4.2484
4.22143
4.1934
4.16443
4.13459
4.10393
4.0725
4.04037
4.00758
3.97418
3.9402
3.90568
3.87058
3.83501
3.79903
3.76272
3.72615
3.68936
3.65241
3.61533
3.57816
3.54095
3.50378
3.46674
3.42993
3.39345
3.35738
3.32179
3.2868
3.25176
3.21575
0.0112874
0.0506427
0.0782823
0.0895072
0.093501
0.0939814
0.0919999
0.0885582
0.0846416
0.0809774
0.0779435
0.0756707
0.074184
0.0734908
0.0733529
0.0739526
0.0753255
0.0774342
0.0802595
0.0837912
0.0880185
0.0929232
0.0984685
0.10461
0.111302
0.118501
0.126182
0.134339
0.143003
0.152243
0.162181
0.172999
0.184914
0.198148
0.212891
0.229254
0.247262
0.266848
0.287886
0.310207
0.333629
0.358004
0.383216
0.40918
0.435859
0.463245
0.491363
0.520264
0.550022
0.580735
0.612519
0.645514
0.679871
0.715754
0.753333
0.792797
0.834229
0.877664
0.923251
0.971124
1.02136
1.07402
1.12912
1.18667
1.24665
1.30901
1.37366
1.44047
1.5093
1.57993
1.65216
1.72576
1.80056
1.87628
1.95264
2.02941
2.10634
2.1834
2.26054
2.33771
2.41485
2.49182
2.56848
2.64476
2.72051
2.79559
2.86986
2.94333
3.01594
3.08764
3.15836
3.22808
3.29673
3.36427
3.43062
3.49572
3.55952
3.62196
3.68301
3.74263
3.80074
3.8573
3.91226
3.96555
4.01715
4.06702
4.11513
4.16144
4.20592
4.24852
4.2892
4.32794
4.36472
4.39952
4.43233
4.46314
4.49193
4.51869
4.54341
4.56609
4.58672
4.60532
4.62188
4.63643
4.64897
4.65951
4.66806
4.67464
4.67927
4.68199
4.68284
4.68193
4.67919
4.67455
4.66815
4.66004
4.65026
4.63883
4.6258
4.61121
4.59511
4.57755
4.55855
4.53819
4.5165
4.49354
4.46936
4.444
4.41753
4.38997
4.36133
4.33165
4.30103
4.26954
4.23722
4.20414
4.17033
4.13585
4.10076
4.06509
4.02888
3.99204
3.95471
3.91698
3.87892
3.84058
3.80202
3.76327
3.72439
3.68539
3.6463
3.60723
3.56828
3.52954
3.4911
3.45306
3.41547
3.37848
3.34149
3.3039
0.0113194
0.0571671
0.0860159
0.0974476
0.101297
0.101501
0.09902
0.0953366
0.0916418
0.0885597
0.0863045
0.0849623
0.0844103
0.0843612
0.0849865
0.0863307
0.0883549
0.0910226
0.0943043
0.0981798
0.102632
0.107646
0.113216
0.119344
0.126048
0.133363
0.141349
0.150072
0.159639
0.170165
0.181783
0.194612
0.208741
0.224221
0.241063
0.25923
0.278651
0.299236
0.320882
0.343463
0.366893
0.391129
0.416138
0.441925
0.468518
0.495964
0.524325
0.553682
0.584133
0.615786
0.648768
0.683215
0.719283
0.757139
0.796943
0.838844
0.882938
0.929346
0.978187
1.02955
1.08347
1.13998
1.19907
1.26075
1.32497
1.39167
1.46075
1.53209
1.60549
1.68071
1.75744
1.83528
1.91397
1.99328
2.07307
2.15311
2.23317
2.31327
2.39339
2.47348
2.55344
2.6331
2.71242
2.79145
2.86993
2.94767
3.02463
3.10069
3.17575
3.24973
3.32259
3.39429
3.46477
3.53398
3.60183
3.66826
3.73322
3.79667
3.85858
3.9189
3.97758
4.03457
4.0898
4.14323
4.19484
4.24459
4.29246
4.33842
4.38246
4.42451
4.46453
4.50251
4.53844
4.57231
4.60411
4.63384
4.66148
4.68703
4.71048
4.73184
4.75109
4.76826
4.78336
4.79641
4.80742