/*--------------------------------*- C++ -*----------------------------------*\
  =========                 |
  \\      /  F ield         | OpenFOAM: The Open Source CFD Toolbox
   \\    /   O peration     | Website:  https://openfoam.org
    \\  /    A nd           | Version:  8
     \\/     M anipulation  |
\*---------------------------------------------------------------------------*/
FoamFile
{
    version     2.0;
    format      ascii;
    class       volScalarField;
    location    "1500";
    object      k;
}
// * * * * * * * * * * * * * * * * * * * * * * * * * * * * * * * * * * * * * //

dimensions      [0 2 -2 0 0 0 0];

internalField   nonuniform List<scalar> 
12225
(
0.589951
1.23411
1.54509
1.71743
1.66359
1.61631
2.10687
2.98179
2.27837
1.66818
2.77202
3.14244
3.04846
2.34538
2.00173
1.61046
1.48991
1.44048
0.363893
0.422852
0.48085
0.546176
0.558852
0.600638
0.643291
0.717851
0.754551
0.747995
0.803861
0.830924
0.868953
0.876095
0.90979
0.92866
0.921834
0.911104
0.371776
0.375334
0.381215
0.386313
0.383669
0.377065
0.373785
0.375111
0.373928
0.371862
0.373474
0.371777
0.373738
0.375917
0.377218
0.382894
0.383865
0.383093
0.373241
0.371713
0.371353
0.370157
0.368039
0.36416
0.361184
0.357467
0.353813
0.34977
0.345959
0.341928
0.337816
0.333858
0.329946
0.326334
0.32283
0.319405
0.373774
0.371409
0.369751
0.367768
0.365884
0.363314
0.361119
0.358393
0.355855
0.352923
0.350247
0.347255
0.344458
0.341309
0.338464
0.335267
0.332524
0.329432
0.373891
0.371508
0.369532
0.367453
0.3656
0.363494
0.36162
0.359514
0.357556
0.355399
0.353405
0.351238
0.349222
0.346986
0.344937
0.34265
0.340635
0.338385
0.37388
0.371572
0.369513
0.367454
0.36559
0.363674
0.361922
0.360109
0.35841
0.356647
0.354989
0.353266
0.351641
0.349923
0.348313
0.346591
0.345021
0.34333
0.37386
0.371581
0.369493
0.367454
0.365575
0.363725
0.362004
0.3603
0.358695
0.357091
0.355573
0.354045
0.352593
0.351113
0.34971
0.348262
0.346915
0.34551
0.373847
0.37158
0.369472
0.367444
0.365551
0.363725
0.362012
0.360354
0.358786
0.357258
0.355805
0.354379
0.35302
0.351671
0.350386
0.349097
0.347882
0.346649
0.373839
0.371573
0.369449
0.367423
0.365516
0.363696
0.36198
0.360338
0.358782
0.357287
0.355866
0.354493
0.353186
0.351913
0.3507
0.34951
0.34838
0.347264
0.373832
0.371567
0.369431
0.367402
0.365484
0.363661
0.361936
0.360293
0.358735
0.357248
0.355835
0.354482
0.353193
0.351956
0.350775
0.349637
0.34855
0.3475
0.37383
0.371562
0.369417
0.367383
0.365457
0.363629
0.361895
0.360247
0.358682
0.357192
0.355775
0.354423
0.353136
0.351907
0.350736
0.349615
0.348544
0.347518
0.373827
0.371557
0.369407
0.367369
0.365437
0.363603
0.361863
0.360208
0.358637
0.357141
0.355718
0.354361
0.353071
0.351839
0.350666
0.349545
0.348476
0.347455
0.373826
0.371554
0.3694
0.367358
0.365421
0.363583
0.361837
0.360179
0.358601
0.357101
0.355672
0.354312
0.353014
0.35178
0.3506
0.349478
0.348404
0.347382
0.373826
0.371551
0.369395
0.367351
0.365411
0.363569
0.361819
0.360156
0.358575
0.35707
0.355638
0.354273
0.352973
0.351733
0.350551
0.349424
0.348347
0.34732
0.373825
0.37155
0.369392
0.367346
0.365403
0.363559
0.361806
0.36014
0.358556
0.357048
0.355613
0.354245
0.352942
0.351699
0.350515
0.349384
0.348306
0.347275
0.373825
0.371549
0.36939
0.367342
0.365398
0.363553
0.361798
0.360131
0.358544
0.357035
0.355597
0.354227
0.352922
0.351678
0.350491
0.349358
0.348278
0.347246
0.373825
0.371548
0.36939
0.36734
0.365397
0.363549
0.361796
0.360126
0.358541
0.357029
0.355592
0.35422
0.352915
0.351668
0.350482
0.349347
0.348267
0.347233
0.373825
0.371549
0.36939
0.367343
0.365397
0.363553
0.361797
0.36013
0.358542
0.357033
0.355593
0.354224
0.352917
0.351673
0.350484
0.349352
0.348269
0.347237
0.373825
0.37155
0.369393
0.367345
0.365403
0.363557
0.361805
0.360137
0.358552
0.357042
0.355606
0.354235
0.352931
0.351685
0.350499
0.349366
0.348286
0.347253
0.373826
0.371552
0.369396
0.367351
0.36541
0.363567
0.361815
0.360151
0.358567
0.35706
0.355625
0.354257
0.352954
0.351711
0.350526
0.349395
0.348316
0.347285
0.373827
0.371556
0.369402
0.36736
0.365421
0.363582
0.361834
0.360173
0.358592
0.357089
0.355657
0.354294
0.352993
0.351754
0.35057
0.349442
0.348363
0.347334
0.373827
0.371561
0.36941
0.367372
0.365438
0.363606
0.361866
0.360213
0.358641
0.357145
0.355719
0.354359
0.353061
0.351822
0.350637
0.349502
0.348418
0.347377
0.37383
0.37157
0.369419
0.367391
0.365475
0.363666
0.361948
0.360315
0.358756
0.357268
0.355842
0.354478
0.353164
0.351903
0.350684
0.349513
0.348381
0.347293
0.373841
0.371583
0.369433
0.367454
0.365612
0.363878
0.362213
0.360609
0.359048
0.357541
0.356069
0.354644
0.353245
0.351886
0.350547
0.349248
0.347973
0.34674
0.373893
0.371631
0.369566
0.367815
0.366221
0.364663
0.363071
0.361446
0.359793
0.358148
0.356495
0.354861
0.353212
0.351582
0.34994
0.348328
0.346723
0.345168
0.37415
0.372218
0.370695
0.369753
0.368776
0.367515
0.365991
0.364167
0.3622
0.360126
0.358011
0.355845
0.353644
0.35141
0.349178
0.346945
0.344785
0.342649
0.376228
0.377753
0.378131
0.380091
0.381037
0.380644
0.379609
0.37746
0.375049
0.372293
0.369815
0.367141
0.364849
0.362408
0.36049
0.358422
0.357107
0.355492
0.399226
0.412235
0.436278
0.459046
0.477438
0.49084
0.502062
0.511352
0.520844
0.529231
0.538963
0.548003
0.558777
0.568874
0.580721
0.59184
0.604809
0.615346
0.826374
1.13143
1.34845
1.48001
1.55077
1.5681
1.56208
1.54501
1.5155
1.48286
1.45002
1.41842
1.38895
1.36187
1.33729
1.31509
1.2951
1.27736
1.91702e-08
4.72568e-07
2.40226e-06
9.41617e-06
3.13047e-05
9.42283e-05
0.000245694
0.000487024
0.000787473
0.00110397
0.00138729
0.0016071
0.00175338
0.00180692
0.00178336
0.00170861
0.00157089
0.00133756
0.00114024
0.000969688
0.000806921
0.000648514
0.000495402
0.000353442
0.000228102
0.000132212
6.96434e-05
3.50192e-05
1.79156e-05
9.85798e-06
6.09243e-06
4.73999e-06
6.24376e-06
1.36923e-05
3.25751e-05
0.00017188
0.000410503
0.000848936
0.00122174
0.00126685
0.00115222
0.000917824
0.000756832
0.000737385
0.000806049
0.00108312
0.00145675
0.00292412
0.00658778
0.0202336
0.0534302
0.0957485
0.121281
0.135415
0.141342
0.156953
0.155054
0.147924
0.134706
0.158967
0.16572
0.180746
0.156656
0.175104
0.181312
0.191069
0.198969
0.20759
0.215495
0.22358
0.231344
0.239112
0.246703
0.254251
0.261678
0.269048
0.276323
0.283533
0.29066
0.297718
0.304694
0.311598
0.318418
0.32516
0.331811
0.338378
0.344846
0.351219
0.357483
0.363637
0.369671
0.375575
0.381338
0.38695
0.392398
0.397675
0.40277
0.407684
0.412429
0.417038
0.421587
0.425958
0.430192
0.434279
0.438217
0.442005
0.445638
0.449113
0.452428
0.455579
0.458564
0.461379
0.464025
0.466497
0.468795
0.470917
0.472862
0.474631
0.47622
0.477633
0.478865
0.47992
0.480793
0.48149
0.482003
0.482336
0.482475
0.482438
0.482345
0.482131
0.481543
0.480973
0.480094
0.479202
0.478206
0.477079
0.475747
0.474117
0.472395
0.470492
0.468466
0.466302
0.464015
0.46161
0.459094
0.456482
0.453798
0.45095
0.448084
0.445035
0.44198
0.438768
0.435534
0.432215
0.428845
0.425427
0.421977
0.418495
0.414997
0.41149
0.407988
0.404493
0.401014
0.39755
0.394113
0.390703
0.387336
0.384013
0.380748
0.37754
0.374396
0.371305
0.368263
0.365232
0.362171
0.358987
0.355574
0.351594
0.346439
0.330315
8.68641e-08
2.46545e-06
1.65366e-05
7.05989e-05
0.000264545
0.000748036
0.00174863
0.00317006
0.00481954
0.00651424
0.00806109
0.00933316
0.0102654
0.0108637
0.0111317
0.0110901
0.0109062
0.0105478
0.00993572
0.00909789
0.00803925
0.00681393
0.00548269
0.00413432
0.00285292
0.0018773
0.00118535
0.000730187
0.000442285
0.000271125
0.000175928
0.000131102
0.000117862
0.000201035
0.00032447
0.00177182
0.00412526
0.007917
0.0109829
0.0124177
0.012258
0.0116258
0.0115292
0.0128743
0.0167425
0.0224036
0.0326235
0.05014
0.0754806
0.0998094
0.124692
0.145252
0.161903
0.176505
0.190499
0.207105
0.221175
0.237897
0.256104
0.27616
0.295277
0.314563
0.333435
0.353526
0.372706
0.391858
0.410565
0.429131
0.44741
0.465531
0.483472
0.501282
0.518972
0.536562
0.554064
0.571487
0.588839
0.606122
0.623337
0.640483
0.657558
0.674557
0.691475
0.708307
0.725042
0.741675
0.758194
0.774591
0.790852
0.806969
0.822922
0.838696
0.854269
0.869622
0.88473
0.899565
0.914097
0.928293
0.942114
0.955521
0.968491
0.981245
0.993706
1.00591
1.01782
1.02944
1.04075
1.05175
1.06243
1.07277
1.08276
1.0924
1.10167
1.11057
1.1191
1.12723
1.13497
1.14231
1.14925
1.15577
1.16187
1.16756
1.17282
1.17765
1.18204
1.186
1.18953
1.19261
1.19527
1.19749
1.19927
1.20064
1.2014
1.20194
1.20218
1.2022
1.20185
1.20134
1.20038
1.199
1.19724
1.19509
1.19257
1.18968
1.18644
1.18288
1.17896
1.17474
1.17014
1.16527
1.16003
1.15453
1.14872
1.14265
1.13633
1.12978
1.12303
1.11609
1.10899
1.10176
1.09441
1.08696
1.07943
1.07182
1.06414
1.05642
1.04866
1.0409
1.03314
1.0254
1.01769
1.01
1.00232
0.994593
0.986762
0.978704
0.970212
0.960951
0.949021
0.921838
2.08416e-07
6.18399e-06
4.70204e-05
0.000214394
0.000836497
0.00202609
0.00413148
0.00656392
0.00899801
0.0112034
0.0130431
0.014459
0.0154494
0.0160414
0.0162882
0.0162475
0.0160556
0.0156772
0.0151219
0.0144312
0.0135973
0.0126153
0.0114631
0.0101553
0.00868542
0.00703056
0.00533958
0.00384364
0.00255727
0.00169955
0.00117124
0.000897336
0.000656999
0.00114499
0.00207934
0.00763101
0.0162078
0.0244706
0.0302977
0.0334692
0.0345387
0.037072
0.0450015
0.0609196
0.0783953
0.0966055
0.117053
0.138041
0.157636
0.178852
0.200151
0.222353
0.245689
0.2707
0.297492
0.32537
0.353737
0.382952
0.411979
0.440805
0.469166
0.496931
0.524141
0.550737
0.576714
0.602176
0.627162
0.651771
0.676039
0.700036
0.723799
0.747371
0.770779
0.794046
0.817189
0.840219
0.863143
0.885963
0.90868
0.931291
0.953792
0.976177
0.998439
1.02057
1.04255
1.06439
1.08606
1.10755
1.12885
1.14995
1.17083
1.19148
1.21188
1.23202
1.25188
1.27144
1.2907
1.30964
1.32826
1.34657
1.36455
1.3822
1.39948
1.41639
1.43291
1.44902
1.46471
1.47996
1.49476
1.50909
1.52295
1.53632
1.54918
1.56153
1.57336
1.58466
1.59541
1.60561
1.61526
1.62434
1.63286
1.6408
1.64816
1.65494
1.66113
1.66674
1.67175
1.67617
1.68
1.68324
1.6859
1.68798
1.68947
1.69035
1.69074
1.69076
1.69014
1.68901
1.68733
1.68508
1.6823
1.67898
1.67514
1.67079
1.66595
1.66064
1.65482
1.64858
1.64184
1.63471
1.62709
1.61909
1.61069
1.60191
1.59278
1.58333
1.57358
1.56359
1.55336
1.54294
1.53236
1.52162
1.51076
1.49979
1.48872
1.47757
1.46637
1.45515
1.44393
1.43272
1.42156
1.41044
1.39936
1.38828
1.37716
1.36592
1.35436
1.34226
1.32772
1.30245
8.16808e-07
2.45582e-05
0.000193139
0.000777979
0.00232008
0.00541197
0.00910413
0.0126893
0.0157999
0.018259
0.0200315
0.0211555
0.0217445
0.0218472
0.02171
0.0213437
0.0207641
0.0200673
0.0192843
0.0184314
0.0175089
0.016514
0.0154272
0.0142295
0.0129007
0.0114216
0.00981924
0.00815934
0.00661268
0.00510561
0.00399405
0.00302059
0.00325195
0.00539349
0.0135155
0.0291106
0.0431181
0.0539872
0.0621857
0.0700784
0.080283
0.0936586
0.109254
0.124703
0.140726
0.158116
0.17826
0.199699
0.223299
0.249401
0.277334
0.307253
0.338662
0.371355
0.404875
0.438802
0.472825
0.506714
0.540238
0.573255
0.60571
0.637502
0.668715
0.699337
0.729429
0.759058
0.788289
0.817183
0.845792
0.874165
0.902343
0.930356
0.95823
0.985984
1.01363
1.04117
1.06861
1.09595
1.12319
1.15031
1.17732
1.20419
1.23093
1.25751
1.28393
1.31017
1.33622
1.36206
1.38768
1.41307
1.43821
1.46309
1.48769
1.51199
1.53599
1.55967
1.58301
1.60602
1.62866
1.65092
1.6728
1.69425
1.71525
1.7358
1.75586
1.77542
1.79446
1.81296
1.8309
1.84826
1.86504
1.88121
1.89677
1.91169
1.92598
1.9396
1.95256
1.96485
1.97645
1.98736
1.99757
2.00708
2.01588
2.02397
2.03134
2.03799
2.04393
2.04914
2.05363
2.0574
2.06047
2.06282
2.06445
2.0653
2.06559
2.06526
2.06419
2.06244
2.06002
2.05693
2.05319
2.0488
2.04377
2.03813
2.03189
2.02506
2.01764
2.00968
2.00114
1.9921
1.98252
1.97245
1.96191
1.95091
1.93948
1.92767
1.9155
1.90302
1.89026
1.87725
1.86403
1.85063
1.83707
1.82336
1.80954
1.79562
1.78163
1.76761
1.75358
1.73958
1.72562
1.71173
1.69791
1.68415
1.67044
1.65673
1.64291
1.6288
1.61278
1.5894
2.76349e-06
8.28892e-05
0.000616325
0.00237549
0.00646924
0.0119962
0.0171248
0.0212199
0.0241237
0.0259364
0.0268739
0.0271328
0.02698
0.02653
0.025811
0.0249642
0.0240437
0.0230882
0.0221195
0.0211466
0.0201643
0.019164
0.0181254
0.0170266
0.0158403
0.0145372
0.0131179
0.01164
0.0102095
0.00873311
0.00742565
0.00802243
0.012725
0.0265142
0.0474597
0.0667628
0.082406
0.0945012
0.104905
0.115452
0.126924
0.139489
0.153099
0.168786
0.187556
0.209171
0.233659
0.260826
0.290379
0.321938
0.355005
0.389304
0.424452
0.460222
0.496351
0.532638
0.568907
0.605022
0.640888
0.676399
0.711525
0.746209
0.780478
0.814342
0.847838
0.881005
0.913888
0.946528
0.978968
1.01124
1.04338
1.07541
1.10735
1.1392
1.17098
1.20268
1.2343
1.26584
1.29728
1.32861
1.35983
1.39091
1.42185
1.45262
1.48322
1.51361
1.5438
1.57376
1.60347
1.63292
1.6621
1.69098
1.71954
1.74778
1.77568
1.80321
1.83036
1.85711
1.88344
1.90932
1.93472
1.95964
1.98403
2.00788
2.03116
2.05385
2.07592
2.09736
2.11814
2.13825
2.15767
2.17637
2.19435
2.21159
2.22807
2.24378
2.25871
2.27284
2.28617
2.29869
2.31039
2.32127
2.33132
2.34053
2.34891
2.35644
2.36314
2.36899
2.374
2.37817
2.3815
2.38402
2.38565
2.38639
2.3865
2.38579
2.38425
2.38192
2.3788
2.37491
2.37026
2.36486
2.35873
2.35189
2.34434
2.33612
2.32723
2.31769
2.30751
2.29673
2.28535
2.27341
2.26092
2.24791
2.23441
2.22046
2.20609
2.19136
2.1763
2.16095
2.14535
2.12953
2.11352
2.09734
2.08103
2.06459
2.04807
2.0315
2.01492
1.99837
1.98187
1.96546
1.94916
1.93297
1.91691
1.90098
1.8851
1.86918
1.85184
1.82913
8.83464e-06
0.000258433
0.00183988
0.00649375
0.0145312
0.0215628
0.0265524
0.0296193
0.0312179
0.0318103
0.0317327
0.031284
0.0304399
0.0294109
0.0282821
0.0271186
0.025964
0.0248462
0.0237765
0.0227552
0.021771
0.0208085
0.0198413
0.0188395
0.017773
0.0165775
0.0151927
0.0135811
0.0120328
0.0120921
0.014723
0.0241992
0.0436352
0.0680423
0.0904409
0.108256
0.121148
0.13071
0.139307
0.148588
0.159376
0.173158
0.190248
0.210583
0.234382
0.261239
0.290659
0.322096
0.35507
0.389247
0.424327
0.460129
0.496492
0.533304
0.570452
0.60784
0.645372
0.682954
0.720514
0.757969
0.795276
0.832392
0.869312
0.906031
0.94256
0.978917
1.01513
1.05122
1.08722
1.12315
1.15902
1.19487
1.23068
1.26648
1.30225
1.33798
1.37367
1.40931
1.44487
1.48034
1.5157
1.55093
1.586
1.62091
1.65564
1.69015
1.72443
1.75846
1.79222
1.82569
1.85886
1.8917
1.92419
1.95631
1.98804
2.01935
2.05023
2.08065
2.11058
2.13999
2.16885
2.19715
2.22485
2.25192
2.27834
2.30408
2.32912
2.35343
2.37699
2.39977
2.42175
2.44292
2.46325
2.48273
2.50134
2.51907
2.5359
2.55182
2.56681
2.58088
2.594
2.60618
2.61742
2.62769
2.63701
2.64537
2.65276
2.6592
2.66467
2.66918
2.67274
2.67536
2.67695
2.67759
2.67745
2.67637
2.67435
2.67143
2.66762
2.66295
2.65741
2.65102
2.64381
2.6358
2.627
2.61743
2.6071
2.59605
2.58428
2.57184
2.55872
2.54498
2.53062
2.51567
2.50018
2.48417
2.46771
2.45082
2.43356
2.41596
2.39808
2.37994
2.36159
2.34304
2.32432
2.30546
2.28651
2.2675
2.24846
2.22946
2.21052
2.19168
2.17298
2.15445
2.13611
2.118
2.1001
2.08233
2.06354
2.04054
2.84138e-05
0.000776851
0.0049899
0.0151723
0.0247695
0.0308806
0.0342336
0.0358109
0.0362533
0.0360045
0.0352459
0.0340921
0.0327377
0.0312894
0.0298291
0.0284156
0.0270852
0.025856
0.0247289
0.0236933
0.0227295
0.0218095
0.0208982
0.0199494
0.019003
0.0181495
0.0175844
0.0178108
0.0201097
0.0267283
0.0407739
0.0631316
0.0874814
0.109819
0.127347
0.139428
0.147828
0.155061
0.163124
0.174192
0.188836
0.207111
0.229042
0.25429
0.282421
0.312732
0.344645
0.377753
0.411806
0.446643
0.482149
0.518257
0.55492
0.592102
0.629759
0.66784
0.706279
0.745
0.783939
0.82303
0.862223
0.901473
0.940753
0.980044
1.01934
1.05864
1.09796
1.1373
1.17669
1.21612
1.25562
1.29518
1.33481
1.37449
1.41422
1.45398
1.49374
1.53349
1.57319
1.61282
1.65236
1.69178
1.73104
1.77014
1.80904
1.84771
1.88614
1.9243
1.96216
1.9997
2.03691
2.07375
2.1102
2.14623
2.18183
2.21696
2.25159
2.2857
2.31926
2.35223
2.38458
2.41628
2.44731
2.47763
2.50722
2.53603
2.56405
2.59124
2.61758
2.64304
2.6676
2.69123
2.71392
2.73564
2.75638
2.77611
2.79483
2.81251
2.82916
2.84475
2.85927
2.87274
2.88512
2.89644
2.90667
2.91581
2.92388
2.93086
2.93676
2.94158
2.94533
2.94802
2.94955
2.95006
2.94964
2.94816
2.94565
2.94213
2.93762
2.93214
2.92571
2.91833
2.91004
2.90085
2.89079
2.87987
2.86812
2.85556
2.84222
2.82811
2.81328
2.79774
2.78153
2.76467
2.7472
2.72917
2.71063
2.69162
2.67219
2.65238
2.63225
2.61183
2.59115
2.57026
2.54918
2.52794
2.50658
2.48515
2.46369
2.44226
2.4209
2.39966
2.37858
2.3577
2.33708
2.31677
2.29678
2.27706
2.25659
2.23264
8.56432e-05
0.00214221
0.0118231
0.0254789
0.0338122
0.0381981
0.0402482
0.0408372
0.0405171
0.0395374
0.0380744
0.0363582
0.0345296
0.0326989
0.0309477
0.0293298
0.0278722
0.02658
0.0254419
0.0244372
0.0235365
0.0227043
0.021865
0.0210672
0.0205259
0.0206829
0.0226347
0.0281907
0.03999
0.0585758
0.080831
0.103046
0.123142
0.139082
0.150227
0.157971
0.164924
0.173615
0.185429
0.20097
0.220296
0.24312
0.269027
0.297407
0.32764
0.359171
0.391667
0.424952
0.458945
0.493609
0.52893
0.564908
0.601551
0.63886
0.676817
0.715383
0.754517
0.794164
0.834269
0.874774
0.915625
0.956775
0.998188
1.03984
1.0817
1.12376
1.16603
1.20849
1.25116
1.29402
1.33708
1.38034
1.42376
1.46735
1.51107
1.5549
1.5988
1.64273
1.68666
1.73055
1.77436
1.81805
1.86161
1.90499
1.94816
1.99109
2.03376
2.07614
2.11819
2.15989
2.20121
2.24214
2.28262
2.32265
2.36218
2.40119
2.43965
2.47752
2.51477
2.55136
2.58725
2.62243
2.65684
2.69045
2.72324
2.75517
2.7862
2.81631
2.84545
2.87361
2.90076
2.92687
2.95191
2.97587
2.99872
3.02046
3.04105
3.06049
3.07876
3.09585
3.11175
3.12646
3.13998
3.15229
3.16339
3.17329
3.18198
3.18947
3.19575
3.20083
3.20473
3.20745
3.20888
3.20923
3.20847
3.20656
3.20352
3.19937
3.19413
3.18781
3.18045
3.17205
3.16265
3.15226
3.14092
3.12864
3.11545
3.10137
3.08643
3.07066
3.0541
3.03676
3.01869
2.99991
2.98047
2.96042
2.9398
2.91867
2.89708
2.87508
2.8527
2.83001
2.80703
2.7838
2.76036
2.73673
2.71298
2.68914
2.66526
2.64141
2.61763
2.59398
2.57051
2.54727
2.52434
2.50177
2.4796
2.45781
2.43544
2.41004
0.000223085
0.00506227
0.0215083
0.0346723
0.0414181
0.0445815
0.0456903
0.0455043
0.0444676
0.0427788
0.040724
0.0384884
0.0362262
0.0340583
0.0320713
0.0303177
0.0288227
0.0275917
0.0266167
0.0258801
0.0254031
0.0252766
0.0255981
0.0267981
0.0292894
0.0340107
0.0427618
0.0567926
0.0743472
0.0937352
0.113018
0.130238
0.144221
0.154798
0.163066
0.171058
0.18082
0.193632
0.210036
0.229983
0.253124
0.278953
0.306915
0.336445
0.367084
0.398539
0.430682
0.46348
0.496946
0.53111
0.566008
0.60168
0.638157
0.67545
0.713558
0.752467
0.792148
0.832564
0.873669
0.915411
0.957743
1.00062
1.044
1.08784
1.13213
1.17684
1.22196
1.26747
1.31336
1.35963
1.40625
1.45322
1.50049
1.54804
1.59583
1.64382
1.69196
1.74019
1.78846
1.83672
1.88492
1.93303
1.98098
2.02876
2.07632
2.12363
2.17065
2.21734
2.26367
2.30962
2.35516
2.40025
2.44485
2.48894
2.53249
2.57545
2.61779
2.65947
2.70047
2.74073
2.78022
2.81889
2.85671
2.89365
2.92967
2.96472
2.99877
3.03179
3.06374
3.09459
3.12431
3.15287
3.18025
3.20642
3.23136
3.25505
3.27747
3.29861
3.31846
3.33699
3.35421
3.37012
3.38469
3.39794
3.40986
3.42044
3.42969
3.43761
3.4442
3.44947
3.45344
3.45611
3.45739
3.4575
3.45635
3.45394
3.45031
3.44546
3.43943
3.43223
3.42389
3.41442
3.40387
3.39225
3.37958
3.36591
3.35124
3.33562
3.31907
3.30162
3.28331
3.26416
3.24422
3.22351
3.20209
3.18001
3.15732
3.13408
3.11034
3.08614
3.06154
3.03658
3.0113
2.98575
2.95995
2.93395
2.9078
2.88156
2.85527
2.829
2.8028
2.77674
2.75086
2.72524
2.69995
2.67507
2.65065
2.62667
2.60225
2.5751
0.000496981
0.0102112
0.0312322
0.0429233
0.0484104
0.0506883
0.0510682
0.0502187
0.0484923
0.0462053
0.0436046
0.040903
0.0382788
0.0358697
0.0337717
0.0320402
0.030706
0.0297437
0.0292158
0.0290419
0.0293504
0.0304877
0.0330557
0.0378939
0.0457469
0.0569145
0.0708579
0.0864325
0.102874
0.118946
0.133489
0.145854
0.156154
0.165218
0.174512
0.185544
0.199388
0.216443
0.236629
0.259585
0.284844
0.311919
0.340353
0.369768
0.399916
0.430687
0.462068
0.4941
0.526843
0.560365
0.594733
0.63
0.666206
0.703382
0.741543
0.78069
0.820812
0.861881
0.903867
0.946729
0.990426
1.03492
1.08016
1.12612
1.17276
1.22006
1.268
1.31654
1.36568
1.41538
1.46562
1.51637
1.56757
1.61919
1.67116
1.72343
1.77593
1.82858
1.88132
1.93409
1.98681
2.03944
2.09192
2.14421
2.19627
2.24804
2.2995
2.3506
2.4013
2.45158
2.50139
2.5507
2.59948
2.64769
2.69528
2.74223
2.78848
2.83401
2.87877
2.92271
2.96578
3.00795
3.04918
3.08941
3.12862
3.16676
3.2038
3.23968
3.27438
3.30786
3.34009
3.37103
3.40066
3.42895
3.45589
3.48145
3.50561
3.52835
3.54966
3.56954
3.58797
3.60496
3.62049
3.63456
3.64718
3.65834
3.66803
3.67627
3.68307
3.68842
3.69236
3.69486
3.69592
3.69567
3.69404
3.69106
3.68674
3.68112
3.67422
3.66606
3.65667
3.64608
3.63431
3.62139
3.60736
3.59225
3.57608
3.55888
3.54069
3.52154
3.50145
3.48048
3.45864
3.436
3.41259
3.38848
3.36372
3.33838
3.3125
3.28613
3.25931
3.2321
3.20454
3.17667
3.14853
3.12017
3.09164
3.06301
3.03432
3.00564
2.97703
2.94855
2.92027
2.89225
2.86458
2.83735
2.81061
2.78437
2.75782
2.72898
0.000943532
0.0175172
0.0396962
0.0504136
0.0551954
0.056886
0.0567244
0.0552972
0.0530223
0.0502294
0.0472024
0.0441864
0.0413875
0.038964
0.0370333
0.0356509
0.0349597
0.0348329
0.0354034
0.0369316
0.0397407
0.0442063
0.0506204
0.0591453
0.0696921
0.0819498
0.0953154
0.109003
0.122323
0.134714
0.145927
0.156117
0.165959
0.176486
0.188738
0.203436
0.220868
0.240936
0.26333
0.287658
0.313528
0.340585
0.368537
0.39718
0.426413
0.456225
0.486664
0.517808
0.549746
0.582567
0.616345
0.651147
0.687029
0.724036
0.762198
0.80153
0.842037
0.883709
0.926527
0.970464
1.01549
1.06157
1.10866
1.15673
1.20575
1.25568
1.30648
1.35814
1.4106
1.46384
1.51781
1.57246
1.62773
1.68354
1.73982
1.79649
1.85348
1.91069
1.96803
2.02542
2.08277
2.14003
2.19713
2.25402
2.31066
2.36698
2.42294
2.4785
2.5336
2.58823
2.64234
2.69589
2.74885
2.80116
2.85279
2.9037
2.95383
3.00315
3.05161
3.09916
3.14576
3.19134
3.23587
3.27931
3.3216
3.36271
3.4026
3.44123
3.47854
3.5145
3.54909
3.58225
3.61398
3.64424
3.67301
3.70026
3.72598
3.75016
3.77277
3.79381
3.81328
3.83117
3.84748
3.86222
3.87536
3.88693
3.89691
3.90531
3.91215
3.91743
3.92118
3.92339
3.92409
3.92334
3.9211
3.91742
3.91231
3.90581
3.89794
3.88873
3.87821
3.86641
3.85336
3.83909
3.82364
3.80703
3.78931
3.77051
3.75065
3.72977
3.70791
3.68509
3.66136
3.63677
3.61139
3.58527
3.55847
3.53105
3.50306
3.47454
3.44555
3.41613
3.38632
3.35616
3.32571
3.29502
3.26415
3.23317
3.20212
3.17107
3.14008
3.10921
3.07853
3.04811
3.01806
2.98846
2.95937
2.93084
2.90209
2.87138
0.00150408
0.0249689
0.0477542
0.0579656
0.0622722
0.0635196
0.0629299
0.0610546
0.058366
0.0552514
0.0520425
0.0490185
0.0464134
0.0444173
0.0432492
0.0428763
0.0432853
0.0446674
0.047153
0.0508955
0.0560366
0.062652
0.0707168
0.0801013
0.0905569
0.101699
0.113084
0.124331
0.135223
0.145701
0.155969
0.166543
0.178114
0.191318
0.206594
0.2241
0.243746
0.265289
0.288427
0.312864
0.338339
0.364638
0.391607
0.419162
0.447289
0.47603
0.505465
0.535694
0.566817
0.59893
0.63212
0.666469
0.702045
0.738904
0.777093
0.816642
0.857571
0.899888
0.943591
0.988669
1.0351
1.08286
1.13191
1.18221
1.23373
1.28643
1.34026
1.39517
1.45114
1.50809
1.56598
1.62472
1.68423
1.7444
1.80515
1.86638
1.92798
1.98986
2.05189
2.11399
2.17605
2.238
2.29978
2.36131
2.42254
2.48341
2.54387
2.60385
2.66332
2.72224
2.78058
2.8383
2.89535
2.95168
3.00723
3.06197
3.11584
3.16881
3.22082
3.27181
3.32174
3.37054
3.41818
3.4646
3.50975
3.55361
3.59611
3.63722
3.6769
3.7151
3.75178
3.78691
3.82048
3.85243
3.88277
3.91145
3.93846
3.96379
3.98743
4.00938
4.02962
4.04816
4.06501
4.08015
4.09358
4.10532
4.11535
4.1237
4.13036
4.13536
4.13872
4.14045
4.1406
4.1392
4.13619
4.13165
4.1256
4.11809
4.10913
4.09876
4.08701
4.07391
4.05949
4.0438
4.02686
4.00872
3.98941
3.96897
3.94744
3.92483
3.90118
3.87652
3.85091
3.82441
3.79708
3.76898
3.74019
3.71074
3.6807
3.65011
3.619
3.58743
3.55543
3.52305
3.49036
3.45741
3.42427
3.39101
3.35767
3.32431
3.291
3.25779
3.22476
3.19199
3.15959
3.12764
3.09622
3.06538
3.03441
3.00179
0.00224084
0.0317115
0.0552708
0.0655086
0.0696463
0.070656
0.0697579
0.0675483
0.0646073
0.0614156
0.058362
0.0557459
0.0537756
0.0527753
0.0525619
0.0532968
0.0550743
0.0579252
0.0618743
0.0669378
0.073104
0.0802952
0.0883853
0.097206
0.106555
0.116238
0.126106
0.13608
0.146207
0.156698
0.167906
0.180243
0.194062
0.209588
0.226881
0.245858
0.26634
0.288115
0.310972
0.334731
0.359246
0.384417
0.410185
0.436542
0.463525
0.491208
0.519687
0.549067
0.579458
0.610962
0.643679
0.677699
0.713106
0.74997
0.788348
0.828283
0.869813
0.912965
0.957754
1.00418
1.05224
1.10191
1.15316
1.20596
1.26027
1.31604
1.37321
1.43172
1.4915
1.55248
1.61458
1.67768
1.74166
1.8064
1.87176
1.93764
2.00392
2.07048
2.13722
2.20401
2.27075
2.33736
2.40375
2.46986
2.53562
2.60094
2.66575
2.73002
2.79369
2.85674
2.91912
2.98081
3.04173
3.10183
3.16106
3.21937
3.27671
3.33303
3.38827
3.44239
3.49531
3.547
3.59738
3.64641
3.69406
3.74027
3.78501
3.82822
3.86987
3.9099
3.94828
3.98498
4.01997
4.05324
4.08474
4.11446
4.14237
4.16848
4.19277
4.21525
4.23591
4.25474
4.27177
4.28697
4.30037
4.31195
4.32174
4.32973
4.33592
4.34037
4.34309
4.34411
4.34349
4.3412
4.33721
4.33163
4.32448
4.3158
4.30561
4.29394
4.28084
4.26634
4.25047
4.23328
4.2148
4.19507
4.17414
4.15205
4.12883
4.1045
4.0791
4.05263
4.02517
3.9968
3.96759
3.9376
3.90689
3.8755
3.8435
3.81092
3.77781
3.74419
3.7101
3.6756
3.64077
3.60568
3.57039
3.53496
3.49944
3.46388
3.42835
3.3929
3.35761
3.32257
3.28788
3.25365
3.21995
3.18685
3.15369
3.1192
0.00310147
0.0377825
0.0628459
0.0732916
0.0773337
0.0781695
0.077025
0.0745549
0.071452
0.068372
0.06579
0.0639479
0.063042
0.0628579
0.0636221
0.0654282
0.068205
0.071916
0.0765258
0.0819972
0.088259
0.0952303
0.102822
0.110957
0.119573
0.12863
0.138136
0.148186
0.158938
0.170597
0.183378
0.197451
0.212902
0.229729
0.247856
0.267159
0.287495
0.308728
0.330743
0.353453
0.376802
0.400768
0.425359
0.450615
0.476602
0.503416
0.53116
0.559944
0.589869
0.621047
0.653584
0.687582
0.723134
0.760324
0.799225
0.839905
0.882419
0.926813
0.97312
1.02136
1.07152
1.12361
1.17759
1.23343
1.29107
1.35046
1.41151
1.47412
1.53821
1.60364
1.67031
1.73806
1.80674
1.87616
1.94617
2.01664
2.08747
2.15857
2.22981
2.3011
2.3723
2.44334
2.51414
2.58461
2.65466
2.72416
2.79302
2.86124
2.92878
2.9956
3.06166
3.12692
3.19131
3.25477
3.31723
3.37865
3.43897
3.49814
3.55611
3.61282
3.66821
3.72222
3.77479
3.82588
3.87544
3.92344
3.96983
4.01456
4.05759
4.09888
4.13838
4.17608
4.21194
4.24595
4.27808
4.3083
4.33661
4.36299
4.38745
4.40997
4.43056
4.44922
4.46596
4.48079
4.4937
4.50471
4.51383
4.52107
4.52645
4.53001
4.53178
4.53179
4.53016
4.52667
4.52148
4.51464
4.50618
4.49615
4.48456
4.47146
4.45688
4.44087
4.42347
4.4047
4.38462
4.36328
4.3407
4.31695
4.29205
4.26605
4.23895
4.21072
4.1815
4.15136
4.12038
4.0886
4.05608
4.02289
3.98905
3.95463
3.91965
3.88413
3.84809
3.81163
3.77482
3.73775
3.70046
3.66302
3.62548
3.58789
3.55029
3.51273
3.47531
3.43814
3.4013
3.36491
3.32902
3.29376
3.25849
3.22225
0.00402843
0.0440632
0.0702735
0.0810163
0.0850335
0.0857273
0.0842161
0.0814288
0.0783676
0.0757349
0.0739055
0.0730374
0.0728465
0.0734368
0.0750103
0.0774924
0.0808091
0.0849054
0.089735
0.0952605
0.101443
0.108257
0.115684
0.123719
0.132377
0.141707
0.15179
0.162714
0.174589
0.187508
0.201521
0.216643
0.232842
0.25005
0.268182
0.28715
0.306875
0.327298
0.34838
0.370108
0.392485
0.41554
0.439321
0.463905
0.489352
0.515762
0.543249
0.571925
0.601906
0.633308
0.666247
0.700836
0.737184
0.775389
0.815543
0.857727
0.902018
0.948482
0.997168
1.0481
1.10127
1.15666
1.21425
1.27397
1.33578
1.39956
1.46522
1.53259
1.60152
1.67182
1.7433
1.8158
1.88914
1.96313
2.03756
2.11222
2.18711
2.26219
2.33741
2.41267
2.48782
2.56278
2.63748
2.7118
2.7856
2.85873
2.93114
3.00281
3.07369
3.14373
3.21289
3.28112
3.34835
3.41451
3.47953
3.54336
3.60594
3.66723
3.72718
3.78572
3.8428
3.89836
3.95234
4.00469
4.05538
4.10436
4.1516
4.19706
4.24069
4.28245
4.32231
4.36023
4.3962
4.4302
4.46223
4.49225
4.52028
4.54628
4.57025
4.59219
4.61209
4.62997
4.64584
4.65972
4.6716
4.68151
4.68946
4.69546
4.69958
4.70185
4.70228
4.70101
4.69788
4.69292
4.68623
4.67787
4.66786
4.65625
4.64307
4.62835
4.61215
4.5945
4.57544
4.55501
4.53326
4.51023
4.48597
4.46052
4.43394
4.40626
4.3775
4.34765
4.31681
4.28506
4.25246
4.21906
4.1849
4.15006
4.11456
4.07847
4.04181
4.0046
3.96682
3.92861
3.89005
3.85121
3.81215
3.77292
3.73357
3.69415
3.65467
3.6152
3.57586
3.53673
3.49793
3.45955
3.42165
3.38439
3.34715
3.30933
0.00498248
0.050191
0.0775156
0.0884904
0.0924397
0.0929491
0.0910333
0.0881172
0.0853691
0.0833633
0.082369
0.0820865
0.0824658
0.0836921
0.0857895
0.0886918
0.0923366
0.096684
0.101709
0.107407
0.113774
0.120825
0.12858
0.137079
0.146366
0.156492
0.167507
0.179449
0.192331
0.206144
0.22088
0.236501
0.252944
0.270149
0.288067
0.306664
0.325922
0.345841
0.366429
0.387714
0.409744
0.4326
0.456396
0.481155
0.506882
0.533744
0.561911
0.591485
0.622578
0.655311
0.689808
0.726194
0.764586
0.805094
0.847813
0.892837
0.940248
0.99011
1.04249
1.09739
1.15478
1.21458
1.27675
1.3412
1.40785
1.4766
1.5473
1.61975
1.69372
1.76889
1.84493
1.92176
1.99924
2.0772
2.15542
2.23368
2.31209
2.39058
2.46909
2.54748
2.62562
2.70357
2.7813
2.85856
2.93519
3.01111
3.08626
3.16054
3.23386
3.30618
3.37747
3.44768
3.51671
3.58451
3.65101
3.71614
3.77986
3.84215
3.90294
3.96218
4.01982
4.07578
4.13002
4.18249
4.23317
4.28201
4.329
4.37411
4.41727
4.45845
4.49761
4.53474
4.56983
4.60286
4.63383
4.66273
4.68955
4.71427
4.7369
4.75744
4.77589
4.79227
4.80661
4.8189
4.82918
4.83744
4.84371
4.84801
4.85039
4.85093
4.84976
4.84669
4.84173
4.83501
4.82657
4.81645
4.80469
4.79133
4.77641
4.75998
4.74206
4.72271
4.70197
4.67987
4.65647
4.6318
4.60592
4.57887
4.5507
4.52144
4.49116
4.45989
4.42767
4.39452
4.36052
4.32572
4.29015
4.25388
4.21694
4.1794
4.14129
4.10263
4.06341
4.02376
3.98373
3.94341
3.90284
3.86209
3.82119