/*--------------------------------*- C++ -*----------------------------------*\
| =========                 |                                                 |
| \\      /  F ield         | OpenFOAM: The Open Source CFD Toolbox           |
|  \\    /   O peration     | Version:  v2012                                 |
|   \\  /    A nd           | Website:  www.openfoam.com                      |
|    \\/     M anipulation  |                                                 |
\*---------------------------------------------------------------------------*/
FoamFile
{
    version     2.0;
    format      ascii;
    class       volScalarField;
    location    "1500";
    object      nut;
}
// * * * * * * * * * * * * * * * * * * * * * * * * * * * * * * * * * * * * * //

dimensions      [0 2 -1 0 0 0 0];


internalField   nonuniform List<scalar> 
12225
(
5.33334e-06
8.14756e-06
1.00343e-05
1.11553e-05
1.16638e-05
1.18318e-05
1.18672e-05
1.17393e-05
1.15651e-05
1.13836e-05
1.12073e-05
1.10383e-05
1.08946e-05
1.07484e-05
1.06509e-05
1.0517e-05
1.04777e-05
1.03513e-05
0.000183326
5.98846e-05
4.26401e-05
3.64214e-05
3.35684e-05
3.24899e-05
3.21768e-05
3.26289e-05
3.3246e-05
3.30395e-05
3.26562e-05
3.2843e-05
3.274e-05
3.31444e-05
3.32048e-05
3.37618e-05
3.39845e-05
3.4733e-05
0.000986258
0.000329854
0.000215333
0.000161715
0.00013364
0.000114051
0.000102396
9.26557e-05
8.62954e-05
7.92736e-05
7.45967e-05
6.95446e-05
6.63198e-05
6.27258e-05
6.05898e-05
5.79928e-05
5.6673e-05
5.48424e-05
0.000969271
0.000675665
0.000554696
0.000444559
0.000381315
0.000328226
0.000296108
0.000265054
0.000245975
0.000224192
0.000210769
0.000194786
0.000185336
0.000173262
0.000166581
0.000157299
0.000152706
0.000145329
0.000889325
0.00081768
0.000771835
0.00069723
0.000643399
0.000585171
0.000545945
0.000503368
0.000475831
0.000444101
0.000423886
0.000399044
0.000383858
0.000363862
0.000352481
0.000336138
0.000327924
0.000314262
0.000858874
0.000848789
0.000836863
0.000811303
0.000788399
0.000755049
0.00072944
0.000697298
0.000674149
0.000646059
0.000626582
0.000602332
0.000586261
0.000565121
0.000552111
0.000533587
0.000523537
0.000507323
0.000852934
0.000850876
0.000849104
0.00084283
0.000835653
0.00082542
0.000814966
0.000799774
0.000787714
0.000771603
0.000759401
0.000743464
0.000731928
0.000716547
0.000706099
0.000691527
0.000682584
0.000669085
0.000851934
0.000850783
0.000850122
0.000848048
0.000846056
0.000842236
0.000837856
0.000832407
0.000826681
0.000819052
0.000812564
0.000803842
0.000797018
0.00078775
0.000780956
0.000771437
0.000765135
0.000755678
0.000851703
0.000850642
0.000850079
0.00084898
0.000848169
0.000846692
0.000845087
0.000842801
0.00084043
0.000837371
0.000833962
0.000830264
0.000826478
0.000821964
0.000817935
0.00081278
0.000808725
0.000803167
0.000851618
0.00085064
0.000849968
0.000849094
0.000848449
0.000847595
0.000846842
0.000845812
0.000844829
0.000843536
0.000842256
0.000840582
0.000839059
0.000837006
0.000835217
0.000832727
0.000831018
0.000828179
0.000851575
0.000850662
0.000849914
0.000849098
0.000848423
0.000847684
0.000847063
0.000846349
0.00084574
0.000844998
0.000844364
0.000843545
0.00084285
0.000841919
0.000841136
0.000840053
0.000839186
0.000837991
0.000851553
0.000850673
0.000849885
0.000849094
0.000848385
0.000847671
0.000847033
0.000846382
0.000845802
0.000845197
0.00084466
0.000844084
0.000843573
0.000843007
0.000842502
0.000841927
0.000841413
0.000840827
0.000851543
0.000850677
0.000849868
0.000849088
0.000848359
0.000847653
0.000846994
0.000846355
0.000845759
0.000845178
0.000844635
0.000844103
0.000843606
0.000843117
0.000842656
0.0008422
0.000841767
0.000841339
0.000851539
0.000850676
0.000849859
0.00084908
0.000848342
0.000847637
0.000846968
0.000846329
0.000845722
0.000845142
0.00084459
0.000844061
0.000843557
0.000843074
0.000842613
0.000842171
0.000841748
0.000841342
0.000851538
0.000850674
0.000849854
0.000849073
0.000848331
0.000847623
0.00084695
0.000846308
0.000845697
0.000845113
0.000844556
0.000844023
0.000843515
0.000843029
0.000842564
0.000842119
0.000841693
0.000841286
0.000851537
0.000850673
0.000849851
0.000849068
0.000848324
0.000847614
0.000846939
0.000846294
0.00084568
0.000845093
0.000844533
0.000843998
0.000843486
0.000842997
0.000842529
0.000842081
0.000841653
0.000841243
0.000851538
0.000850676
0.000849855
0.000849073
0.000848328
0.000847618
0.000846942
0.000846296
0.000845681
0.000845092
0.000844531
0.000843994
0.00084348
0.000842989
0.00084252
0.00084207
0.00084164
0.000841228
0.000851538
0.000850676
0.000849854
0.000849071
0.000848326
0.000847615
0.000846938
0.000846292
0.000845675
0.000845085
0.000844522
0.000843984
0.000843469
0.000842977
0.000842505
0.000842055
0.000841623
0.00084121
0.000851537
0.000850672
0.000849849
0.000849065
0.000848318
0.000847606
0.000846927
0.00084628
0.000845661
0.000845071
0.000844507
0.000843967
0.000843452
0.000842958
0.000842486
0.000842035
0.000841602
0.000841189
0.000851537
0.000850673
0.00084985
0.000849067
0.00084832
0.000847609
0.00084693
0.000846283
0.000845664
0.000845074
0.00084451
0.00084397
0.000843454
0.000842961
0.000842488
0.000842036
0.000841603
0.000841188
0.000851537
0.000850675
0.000849852
0.000849071
0.000848324
0.000847616
0.000846936
0.000846291
0.000845671
0.000845082
0.000844514
0.000843974
0.000843453
0.000842957
0.000842476
0.000842017
0.000841572
0.000841147
0.000851534
0.000850682
0.000849856
0.000849077
0.000848331
0.000847627
0.000846941
0.000846291
0.000845648
0.00084504
0.000844434
0.000843862
0.000843284
0.000842736
0.000842172
0.000841641
0.000841087
0.000840568
0.000851531
0.000850722
0.000849855
0.000849051
0.000848313
0.000847579
0.000846814
0.000846021
0.00084516
0.000844299
0.000843385
0.000842488
0.000841504
0.000840541
0.000839456
0.000838437
0.000837264
0.000836203
0.000851686
0.00085097
0.000849638
0.000848409
0.00084765
0.000846333
0.000844835
0.0008429
0.000840542
0.000838079
0.000835471
0.000832786
0.000829959
0.000826946
0.000823866
0.000820769
0.000817436
0.00081442
0.000853854
0.000852027
0.000846407
0.000840336
0.000839479
0.000833168
0.000828652
0.000821725
0.00081323
0.000805272
0.000796655
0.000788807
0.000780202
0.000772402
0.000763803
0.000756271
0.000747895
0.000740877
0.000856229
0.000841628
0.000815522
0.000793593
0.000791326
0.000776067
0.000754905
0.000734286
0.000712497
0.000693788
0.000674733
0.00065858
0.000641801
0.0006277
0.00061282
0.000600641
0.000587505
0.000577144
0.00086485
0.000774264
0.000704074
0.000628874
0.000616676
0.000583307
0.000545387
0.000513245
0.000482813
0.000458958
0.000436152
0.00041841
0.000400717
0.000387073
0.000372937
0.00036228
0.000350768
0.000342357
0.000937286
0.000544675
0.000418325
0.000353769
0.000303896
0.000268636
0.000240774
0.000220593
0.000203585
0.000191132
0.000179938
0.000171781
0.000163947
0.000158361
0.000152633
0.000148688
0.000144352
0.000141447
0.000392257
0.000151339
0.000108316
8.67407e-05
7.46621e-05
6.75022e-05
6.28782e-05
5.99451e-05
5.79182e-05
5.66913e-05
5.58818e-05
5.55676e-05
5.54339e-05
5.56523e-05
5.5905e-05
5.57467e-05
5.51617e-05
5.45894e-05
6.25237e-06
8.1121e-06
9.64631e-06
1.08737e-05
1.17927e-05
1.24724e-05
1.29425e-05
1.32817e-05
1.35267e-05
1.36935e-05
1.37856e-05
1.38387e-05
1.38557e-05
1.38387e-05
1.37884e-05
1.37346e-05
1.36806e-05
1.36271e-05
3.69364e-10
1.34418e-08
3.45654e-08
6.7047e-08
1.07053e-07
1.54434e-07
2.3328e-07
3.63773e-07
5.57701e-07
8.09084e-07
1.07914e-06
1.35207e-06
1.60514e-06
1.82682e-06
2.01521e-06
2.16633e-06
2.28119e-06
2.35798e-06
2.40355e-06
2.40263e-06
2.37522e-06
2.33758e-06
2.24871e-06
2.10429e-06
1.89757e-06
1.62172e-06
1.28077e-06
8.95301e-07
5.16043e-07
2.22477e-07
6.5251e-08
1.79486e-08
1.38727e-08
1.5066e-08
1.73268e-08
2.04829e-08
2.40775e-08
2.6895e-08
3.13114e-08
4.86004e-08
1.23057e-07
2.80251e-07
5.18216e-07
7.20088e-07
8.44617e-07
8.40882e-07
7.99079e-07
7.19196e-07
6.26456e-07
5.50932e-07
5.46173e-07
6.40323e-07
8.41038e-07
9.08971e-07
1.08062e-06
1.41339e-06
2.77407e-06
7.60787e-06
1.31292e-05
1.8006e-05
2.21628e-05
2.5171e-05
2.6601e-05
2.78562e-05
2.90136e-05
3.01369e-05
3.12243e-05
3.21957e-05
3.31327e-05
3.40026e-05
3.4844e-05
3.5642e-05
3.64174e-05
3.71636e-05
3.78924e-05
3.86006e-05
3.92942e-05
3.99727e-05
4.0641e-05
4.12972e-05
4.19455e-05
4.25841e-05
4.32163e-05
4.38406e-05
4.44592e-05
4.50712e-05
4.56778e-05
4.62784e-05
4.68736e-05
4.7463e-05
4.80466e-05
4.86241e-05
4.91953e-05
4.97597e-05
5.0317e-05
5.08671e-05
5.14104e-05
5.1948e-05
5.24824e-05
5.30177e-05
5.35606e-05
5.41051e-05
5.46472e-05
5.51916e-05
5.57381e-05
5.62875e-05
5.68402e-05
5.73967e-05
5.79573e-05
5.85228e-05
5.90934e-05
5.96699e-05
6.02527e-05
6.08427e-05
6.14403e-05
6.20467e-05
6.26623e-05
6.32884e-05
6.39257e-05
6.45755e-05
6.52387e-05
6.59171e-05
6.66116e-05
6.73244e-05
6.8057e-05
6.8812e-05
6.95927e-05
7.04015e-05
7.12247e-05
7.20808e-05
7.21341e-05
7.19014e-05
7.16475e-05
7.13749e-05
7.10874e-05
7.07829e-05
7.04576e-05
7.01157e-05
6.97569e-05
6.93817e-05
6.89905e-05
6.85837e-05
6.81617e-05
6.7725e-05
6.7274e-05
6.68093e-05
6.63323e-05
6.5839e-05
6.53425e-05
6.48181e-05
6.43e-05
6.37503e-05
6.32117e-05
6.26394e-05
6.20836e-05
6.1492e-05
6.09227e-05
6.03151e-05
5.97348e-05
5.91182e-05
5.85186e-05
5.79036e-05
5.72884e-05
5.66681e-05
5.60447e-05
5.54185e-05
5.47905e-05
5.41612e-05
5.35311e-05
5.29005e-05
5.22689e-05
5.16354e-05
5.09987e-05
5.03567e-05
4.97044e-05
4.90348e-05
4.83435e-05
4.7673e-05
4.71412e-05
4.53158e-05
1.80072e-09
6.95371e-09
4.47676e-08
1.35792e-07
3.94954e-07
1.36029e-06
3.1644e-06
5.80587e-06
9.21566e-06
1.26341e-05
1.64015e-05
2.08889e-05
2.44025e-05
2.73157e-05
2.95045e-05
3.08127e-05
3.12837e-05
3.10864e-05
3.03771e-05
2.80886e-05
2.537e-05
2.11975e-05
1.69661e-05
1.31514e-05
9.97707e-06
7.34056e-06
5.30172e-06
3.75117e-06
2.52453e-06
1.62265e-06
9.80769e-07
5.75845e-07
3.55356e-07
2.37326e-07
1.75465e-07
1.4437e-07
1.4589e-07
2.42517e-07
6.44119e-07
1.3076e-06
4.73314e-06
1.01426e-05
1.71168e-05
2.16707e-05
2.35045e-05
2.22761e-05
2.07667e-05
1.63817e-05
1.26388e-05
1.12729e-05
1.21298e-05
1.20429e-05
1.14872e-05
1.24782e-05
1.54628e-05
2.03635e-05
2.75825e-05
3.77019e-05
4.72528e-05
5.84996e-05
7.10083e-05
8.47288e-05
9.95298e-05
0.000114962
0.000130932
0.000146945
0.000162869
0.000178349
0.000193301
0.000207564
0.000221128
0.00023398
0.00024599
0.000257686
0.000268543
0.000279118
0.000289247
0.000298878
0.000308253
0.00031729
0.0003261
0.000334664
0.000343036
0.000351218
0.000359235
0.000367098
0.000374818
0.000382404
0.000389864
0.000397202
0.000404421
0.000411522
0.0004185
0.000425349
0.000432053
0.000438587
0.000444915
0.000450981
0.000456702
0.000461963
0.000466613
0.000470994
0.000475319
0.000479488
0.000483553
0.000487486
0.000491298
0.000494979
0.000498531
0.000501949
0.000505233
0.000508379
0.000511386
0.000514252
0.000516974
0.00051955
0.00052198
0.000524262
0.000526395
0.000528376
0.000530206
0.000531885
0.000533411
0.000534786
0.000536012
0.000537093
0.000538036
0.000538878
0.000539615
0.000540326
0.000541113
0.000541761
0.000542267
0.000542573
0.000542784
0.000542922
0.000542893
0.000542714
0.000542409
0.000541975
0.000541418
0.000540737
0.000539935
0.000539013
0.00053797
0.000536801
0.000535493
0.000534318
0.000532633
0.000531347
0.000529412
0.000527945
0.000525799
0.000524161
0.00052183
0.000520042
0.000517563
0.000515652
0.000513077
0.00051097
0.000508469
0.000506076
0.000503611
0.000501113
0.000498582
0.000496021
0.000493439
0.00049084
0.000488232
0.000485614
0.000482984
0.000480332
0.000477644
0.000474902
0.000472033
0.000468954
0.000465513
0.000461243
0.000455201
0.00043864
2.14727e-09
5.68882e-09
6.44043e-08
3.64322e-07
1.09106e-06
2.964e-06
6.60107e-06
1.14865e-05
1.76767e-05
2.4852e-05
3.26809e-05
4.07917e-05
4.88525e-05
5.6059e-05
6.20582e-05
6.67229e-05
6.98779e-05
7.19017e-05
7.2572e-05
7.19042e-05
6.94541e-05
6.52065e-05
5.97361e-05
5.21781e-05
4.35839e-05
3.50703e-05
2.69205e-05
1.99232e-05
1.42773e-05
9.96358e-06
6.7896e-06
4.36605e-06
2.80969e-06
1.85487e-06
1.32237e-06
1.06847e-06
9.47684e-07
8.6093e-07
3.00283e-06
5.9632e-06
1.76406e-05
3.52092e-05
4.92236e-05
5.73618e-05
6.04468e-05
5.59185e-05
4.7019e-05
3.29238e-05
2.63927e-05
2.67464e-05
2.98601e-05
3.53898e-05
4.23826e-05
5.44105e-05
7.03221e-05
8.64734e-05
0.000106534
0.000129512
0.000157596
0.000189399
0.000224519
0.000261336
0.000299405
0.000337143
0.000374213
0.000409639
0.00044335
0.000475019
0.000504768
0.000532653
0.000558746
0.00058355
0.000606713
0.000629165
0.000650533
0.000670999
0.000690747
0.000709825
0.000728383
0.000746428
0.000764051
0.000781268
0.00079813
0.000814655
0.00083087
0.00084679
0.000862428
0.000877793
0.000892892
0.000907725
0.00092229
0.00093658
0.000950581
0.000964275
0.000977634
0.000990628
0.00100321
0.00101535
0.001027
0.00103814
0.00104885
0.00105933
0.00106958
0.00107955
0.00108926
0.0010987
0.00110787
0.00111675
0.00112535
0.00113365
0.00114166
0.00114937
0.00115676
0.00116385
0.00117062
0.00117707
0.0011832
0.001189
0.00119448
0.00119962
0.00120444
0.00120892
0.00121308
0.0012169
0.00122041
0.0012236
0.00122649
0.0012291
0.00123145
0.00123357
0.00123547
0.00123704
0.00123828
0.00123908
0.00123961
0.00124006
0.00124005
0.00123973
0.00123911
0.0012382
0.00123699
0.00123551
0.00123374
0.0012317
0.00122939
0.00122683
0.00122396
0.00122114
0.00121759
0.00121439
0.00121031
0.00120668
0.00120213
0.0011981
0.00119313
0.00118873
0.00118342
0.00117872
0.00117317
0.00116808
0.00116253
0.00115704
0.00115142
0.00114572
0.00113994
0.00113409
0.00112819
0.00112225
0.00111629
0.0011103
0.00110429
0.00109824
0.0010921
0.00108583
0.00107931
0.00107237
0.00106469
0.00105533
0.00104228
0.00101273
2.16294e-09
1.34999e-08
1.91313e-07
8.64853e-07
2.53313e-06
6.86846e-06
1.38942e-05
2.34185e-05
3.51127e-05
4.80189e-05
6.11332e-05
7.38849e-05
8.53702e-05
9.50922e-05
0.000102506
0.000108225
0.000112012
0.000113905
0.000114246
0.000113175
0.000110787
0.000106618
0.000101562
9.44872e-05
8.59914e-05
7.56326e-05
6.40664e-05
5.20818e-05
4.07627e-05
3.10796e-05
2.3161e-05
1.70427e-05
1.22167e-05
8.81505e-06
6.34423e-06
4.93186e-06
4.23683e-06
4.23616e-06
1.13913e-05
2.26744e-05
4.60033e-05
6.30578e-05
7.25738e-05
7.51092e-05
6.63863e-05
5.39747e-05
5.06212e-05
5.36348e-05
5.75745e-05
6.41852e-05
7.58388e-05
9.31877e-05
0.000110378
0.000135876
0.000163458
0.000198192
0.000239153
0.000285445
0.000336377
0.000390032
0.000445273
0.000500451
0.000554821
0.000607249
0.000657492
0.000705089
0.000750115
0.000792614
0.000832575
0.000870455
0.000906357
0.000940962
0.00097371
0.00100534
0.00103576
0.00106518
0.00109373
0.00112149
0.00114856
0.00117498
0.00120084
0.00122615
0.00125096
0.00127529
0.00129918
0.00132262
0.00134564
0.00136824
0.00139043
0.00141221
0.00143356
0.00145449
0.00147497
0.001495
0.00151456
0.00153362
0.00155217
0.00157021
0.00158773
0.00160476
0.00162136
0.00163761
0.00165347
0.00166892
0.00168398
0.00169861
0.00171283
0.00172661
0.00173995
0.00175285
0.00176529
0.00177727
0.00178879
0.00179984
0.00181041
0.00182049
0.00183009
0.0018392
0.00184782
0.00185595
0.00186358
0.00187072
0.00187737
0.00188353
0.00188921
0.00189441
0.00189916
0.00190345
0.00190731
0.00191073
0.00191371
0.0019162
0.00191817
0.00191957
0.00192062
0.00192132
0.00192146
0.00192113
0.00192035
0.00191912
0.00191746
0.00191537
0.00191287
0.00190995
0.00190664
0.00190295
0.00189883
0.00189454
0.00188958
0.00188461
0.00187891
0.00187327
0.00186688
0.00186061
0.00185359
0.00184675
0.00183921
0.00183189
0.00182395
0.00181614
0.00180799
0.00179975
0.00179136
0.00178282
0.00177415
0.00176538
0.00175652
0.00174759
0.00173861
0.00172959
0.00172053
0.0017114
0.00170216
0.00169273
0.00168298
0.00167268
0.00166145
0.00164807
0.00162996
0.00159524
2.87341e-09
4.24831e-08
4.3801e-07
1.85452e-06
6.48108e-06
1.60009e-05
3.01008e-05
4.78309e-05
6.72766e-05
8.65265e-05
0.000104119
0.00011877
0.000129747
0.000138182
0.000144056
0.00014778
0.000149835
0.000150367
0.000149543
0.000147507
0.000144374
0.000139847
0.000134491
0.000127846
0.000119971
0.00011035
9.90932e-05
8.63958e-05
7.26926e-05
5.921e-05
4.71634e-05
3.70343e-05
2.87972e-05
2.22935e-05
1.82707e-05
1.44234e-05
1.47937e-05
1.95611e-05
3.68305e-05
6.31513e-05
8.617e-05
9.54686e-05
9.04233e-05
8.42428e-05
8.16342e-05
8.24335e-05
8.67729e-05
9.53671e-05
0.000109868
0.000127645
0.000146756
0.000176442
0.000211573
0.000254974
0.000303681
0.00036007
0.000420509
0.000484599
0.00055073
0.000617524
0.000683912
0.000748913
0.00081198
0.000872587
0.00093063
0.000986018
0.00103841
0.00108849
0.00113663
0.00118239
0.00122627
0.00126852
0.00130914
0.00134846
0.00138653
0.00142352
0.00145953
0.00149464
0.00152893
0.00156245
0.00159527
0.00162741
0.00165892
0.00168981
0.00172011
0.00174984
0.001779
0.00180761
0.00183567
0.00186317
0.00189013
0.00191653
0.00194237
0.00196765
0.00199235
0.00201647
0.00204002
0.002063
0.00208542
0.00210732
0.00212871
0.0021496
0.00216998
0.00218983
0.00220916
0.00222794
0.00224617
0.00226385
0.00228096
0.00229749
0.00231344
0.0023288
0.00234357
0.00235773
0.00237129
0.00238424
0.00239658
0.0024083
0.0024194
0.00242988
0.00243975
0.002449
0.00245763
0.00246566
0.00247308
0.0024799
0.00248614
0.0024918
0.00249691
0.00250138
0.0025053
0.00250861
0.00251126
0.00251325
0.00251486
0.00251588
0.00251629
0.00251611
0.00251537
0.00251408
0.00251226
0.0025099
0.00250703
0.00250365
0.00249977
0.00249542
0.00249057
0.00248535
0.00247953
0.00247342
0.00246671
0.00245974
0.00245218
0.00244439
0.00243604
0.00242753
0.0024185
0.00240936
0.00239979
0.0023901
0.00238011
0.00236993
0.00235955
0.00234898
0.00233823
0.00232733
0.0023163
0.00230516
0.00229394
0.00228263
0.00227125
0.00225978
0.00224818
0.00223637
0.00222421
0.00221149
0.00219782
0.00218204
0.00216118
0.00212643
2.40119e-09
9.89953e-08
1.00503e-06
4.83655e-06
1.64041e-05
3.55648e-05
5.95732e-05
8.59093e-05
0.000110729
0.000131432
0.000147404
0.000159428
0.000167915
0.000173378
0.000176567
0.000178003
0.000178097
0.0001771
0.000175151
0.000172322
0.000168623
0.000163841
0.000158344
0.000151925
0.000144205
0.000135115
0.000124519
0.000112409
9.89193e-05
8.39717e-05
6.81967e-05
5.42433e-05
4.30935e-05
3.42144e-05
2.91296e-05
2.87113e-05
3.59345e-05
5.68085e-05
8.43681e-05
0.000101701
0.00010899
0.000110205
0.000109467
0.00011042
0.000115472
0.000126338
0.000143443
0.000154999
0.000178656
0.000209192
0.000247792
0.000295261
0.00034941
0.000410953
0.00047668
0.00054694
0.000619086
0.000692773
0.000766657
0.0008399
0.000911805
0.000981841
0.00104975
0.00111502
0.0011777
0.00123839
0.00129655
0.0013524
0.00140617
0.0014579
0.00150783
0.00155612
0.00160288
0.00164828
0.00169242
0.00173542
0.00177735
0.0018183
0.00185833
0.00189748
0.0019358
0.00197332
0.00201009
0.00204611
0.00208142
0.00211603
0.00214995
0.00218319
0.00221577
0.00224768
0.00227893
0.00230953
0.00233947
0.00236875
0.00239738
0.00242536
0.00245269
0.0024794
0.00250549
0.00253097
0.00255584
0.0025801
0.00260374
0.00262676
0.00264914
0.00267089
0.00269198
0.00271241
0.00273218
0.00275127
0.00276969
0.00278742
0.00280447
0.00282083
0.00283648
0.00285145
0.0028657
0.00287925
0.0028921
0.00290424
0.00291569
0.00292644
0.00293649
0.00294585
0.00295453
0.00296253
0.00296986
0.00297656
0.00298259
0.00298788
0.00299255
0.00299656
0.00299979
0.00300236
0.00300447
0.00300589
0.00300665
0.00300676
0.00300624
0.00300512
0.00300339
0.00300107
0.00299817
0.00299471
0.00299069
0.00298613
0.00298103
0.00297544
0.00296929
0.00296268
0.00295552
0.00294794
0.00293981
0.00293128
0.00292226
0.00291289
0.00290308
0.00289298
0.00288251
0.00287177
0.00286073
0.00284944
0.0028379
0.00282612
0.00281412
0.00280192
0.00278955
0.00277703
0.0027644
0.00275165
0.00273881
0.00272585
0.00271275
0.00269944
0.0026858
0.00267166
0.00265662
0.00263973
0.0026183
0.00258561
6.01783e-09
2.52777e-07
2.6266e-06
1.33598e-05
3.61626e-05
6.68783e-05
9.8869e-05
0.000125644
0.000146638
0.000162518
0.000174929
0.000183505
0.000189216
0.000192688
0.000194455
0.000194931
0.000194381
0.000192958
0.000190735
0.000187761
0.000183963
0.000179193
0.000173775
0.000167389
0.000159763
0.000146455
0.0001301
0.000114581
9.95723e-05
8.45387e-05
6.94201e-05
5.54335e-05
4.44974e-05
4.02253e-05
4.35268e-05
6.00463e-05
8.65189e-05
0.000109638
0.000124846
0.000132641
0.00013537
0.000137419
0.000143263
0.000155646
0.000168764
0.000180345
0.000204314
0.000235049
0.000274377
0.00032178
0.000377486
0.000440647
0.000509057
0.000581859
0.000657046
0.000734317
0.00081219
0.000890189
0.000967482
0.00104355
0.00111804
0.00119019
0.00126025
0.00132886
0.00139487
0.00145877
0.0015205
0.00158019
0.00163795
0.00169389
0.00174814
0.00180083
0.00185206
0.00190194
0.00195057
0.00199801
0.00204435
0.00208964
0.00213392
0.00217724
0.00221963
0.00226112
0.00230175
0.00234153
0.00238049
0.00241864
0.002456
0.00249258
0.0025284
0.00256346
0.00259778
0.00263136
0.00266421
0.00269633
0.00272773
0.00275841
0.00278838
0.00281764
0.00284618
0.00287402
0.00290117
0.00292763
0.00295339
0.00297845
0.0030028
0.00302643
0.00304934
0.00307153
0.00309298
0.0031137
0.00313367
0.0031529
0.00317139
0.00318913
0.00320611
0.00322235
0.00323785
0.00325261
0.00326662
0.00327987
0.00329238
0.00330414
0.00331516
0.00332544
0.003335
0.00334382
0.00335193
0.00335939
0.00336608
0.00337201
0.00337727
0.00338183
0.00338557
0.00338866
0.0033912
0.00339303
0.0033942
0.00339471
0.00339457
0.00339379
0.00339237
0.00339035
0.00338771
0.00338448
0.00338066
0.00337628
0.00337132
0.00336583
0.00335977
0.00335319
0.00334607
0.00333844
0.00333028
0.00332164
0.00331251
0.00330296
0.00329297
0.00328261
0.00327187
0.00326079
0.00324939
0.00323769
0.00322569
0.00321341
0.00320087
0.00318809
0.0031751
0.00316193
0.00314859
0.00313512
0.00312152
0.00310778
0.00309389
0.00307981
0.00306544
0.00305065
0.00303514
0.00301815
0.00299758
0.00296795
5.30535e-08
7.1019e-07
6.9384e-06
2.99235e-05
6.5778e-05
0.000104032
0.000136709
0.000161937
0.000179892
0.000192273
0.000199496
0.000203462
0.000205298
0.000205752
0.000205304
0.000204261
0.000202805
0.00020096
0.000198585
0.000195441
0.000191404
0.000186409
0.00018054
0.000173385
0.000156303
0.000139774
0.00012469
0.000110634
9.75017e-05
8.51703e-05
7.45459e-05
6.83835e-05
7.02479e-05
8.10543e-05
9.44277e-05
0.000121485
0.000146684
0.000157267
0.000163386
0.000167454
0.000173712
0.000185658
0.000193163
0.000204388
0.000225716
0.00025492
0.000293161
0.000338917
0.000392903
0.000454261
0.000522259
0.000595182
0.000671227
0.000749502
0.000828941
0.000909041
0.000988977
0.0010683
0.00114656
0.00122299
0.00129764
0.00137126
0.00144267
0.00151223
0.00157975
0.00164534
0.00170904
0.00177093
0.00183108
0.00188959
0.00194655
0.00200205
0.00205618
0.00210901
0.00216062
0.00221106
0.00226037
0.0023086
0.00235578
0.00240193
0.00244709
0.00249127
0.00253451
0.00257682
0.00261821
0.00265873
0.00269838
0.00273716
0.00277511
0.00281225
0.00284857
0.0028841
0.00291884
0.0029528
0.002986
0.00301842
0.00305008
0.00308096
0.00311106
0.00314043
0.00316906
0.00319695
0.0032241
0.00325051
0.00327616
0.00330106
0.0033252
0.00334857
0.00337118
0.00339301
0.00341407
0.00343436
0.00345386
0.00347258
0.00349053
0.0035077
0.00352408
0.00353969
0.00355452
0.00356857
0.00358185
0.00359437
0.00360612
0.00361711
0.00362735
0.00363685
0.00364561
0.00365372
0.00366099
0.00366753
0.00367337
0.0036785
0.0036828
0.00368649
0.00368954
0.00369189
0.00369355
0.00369453
0.00369484
0.0036945
0.00369351
0.0036919
0.00368966
0.00368682
0.00368338
0.00367935
0.00367474
0.00366956
0.00366382
0.00365753
0.00365068
0.00364329
0.00363536
0.00362693
0.00361799
0.0036086
0.00359875
0.00358848
0.00357782
0.00356679
0.0035554
0.00354367
0.0035316
0.00351922
0.00350655
0.00349359
0.00348039
0.00346697
0.00345335
0.00343956
0.00342561
0.0034115
0.00339724
0.00338281
0.00336826
0.0033534
0.00333802
0.00332149
0.00330222
0.00327618
1.95846e-07
1.75867e-06
1.62125e-05
5.24435e-05
9.63867e-05
0.000134759
0.000164352
0.000185988
0.000200311
0.000208562
0.000212881
0.000214354
0.000213975
0.00021252
0.000210517
0.000208256
0.000205812
0.000203105
0.000199905
0.000196173
0.000191742
0.000186428
0.000180014
0.000162502
0.000146192
0.000131341
0.000117168
0.000104396
9.43683e-05
8.99613e-05
9.14226e-05
9.24014e-05
0.000104935
0.000127671
0.000154246
0.000177829
0.000196411
0.000205157
0.000211422
0.000214448
0.00021681
0.000226696
0.000244784
0.000271175
0.000306342
0.000349405
0.000400288
0.000458029
0.000522559
0.000592799
0.000667455
0.000744934
0.000824077
0.000904213
0.000984695
0.00106506
0.0011448
0.00122336
0.00130032
0.0013764
0.00145084
0.00152367
0.00159468
0.00166396
0.00173148
0.0017973
0.00186146
0.00192401
0.00198503
0.00204457
0.00210273
0.00215956
0.00221513
0.00226951
0.00232275
0.00237487
0.00242589
0.00247584
0.00252473
0.00257258
0.00261939
0.00266519
0.00270999
0.0027538
0.00279665
0.00283856
0.00287957
0.00291973
0.002959
0.00299738
0.0030349
0.00307158
0.00310741
0.00314243
0.00317663
0.00321002
0.00324262
0.00327444
0.00330548
0.00333575
0.00336525
0.00339399
0.00342195
0.00344914
0.00347556
0.00350119
0.00352604
0.00355011
0.00357339
0.00359589
0.00361759
0.0036385
0.00365862
0.00367795
0.00369648
0.00371423
0.0037312
0.00374737
0.00376277
0.00377739
0.00379123
0.0038043
0.00381661
0.00382816
0.00383895
0.003849
0.00385835
0.00386699
0.0038748
0.00388192
0.00388833
0.00389403
0.00389892
0.00390323
0.00390686
0.00390981
0.00391207
0.00391366
0.0039146
0.00391489
0.00391455
0.00391358
0.003912
0.00390982
0.00390704
0.00390367
0.00389973
0.00389523
0.00389015
0.00388453
0.00387834
0.00387161
0.00386433
0.00385654
0.00384823
0.00383945
0.0038302
0.00382052
0.00381042
0.00379993
0.00378905
0.0037778
0.00376619
0.00375423
0.00374194
0.00372934
0.00371646
0.00370332
0.00368995
0.00367637
0.0036626
0.00364865
0.00363453
0.00362023
0.00360574
0.00359101
0.00357589
0.00355991
0.0035418
0.00351885
4.15471e-07
3.87997e-06
3.0173e-05
7.86063e-05
0.000126935
0.000165222
0.00019169
0.000208132
0.000217836
0.000222075
0.000222331
0.000220204
0.000216844
0.000213012
0.000209146
0.000205421
0.000201773
0.000198069
0.000193964
0.000189488
0.00018426
0.000178432
0.000167246
0.000152992
0.000141059
0.00013183
0.000126364
0.000124119
0.00011663
0.000114884
0.000123018
0.000139648
0.000160163
0.000181647
0.000201263
0.000216641
0.000226253
0.000231962
0.000237339
0.000246444
0.000262172
0.000285058
0.000316517
0.000355895
0.000402766
0.000456303
0.000516105
0.000581533
0.000652061
0.000726527
0.000803647
0.00088227
0.000961637
0.00104124
0.00112061
0.00119943
0.00127679
0.00135326
0.00142866
0.00150258
0.00157494
0.00164572
0.00171488
0.00178247
0.00184853
0.00191311
0.00197627
0.00203806
0.00209852
0.00215766
0.00221561
0.00227242
0.00232814
0.00238282
0.0024365
0.00248925
0.00254118
0.0025922
0.00264216
0.00269104
0.00273885
0.00278559
0.00283126
0.00287587
0.00291946
0.00296204
0.00300363
0.00304424
0.00308392
0.00312273
0.00316067
0.00319778
0.00323407
0.00326955
0.00330422
0.0033381
0.0033712
0.00340354
0.00343509
0.00346587
0.00349587
0.00352509
0.00355353
0.00358119
0.00360806
0.00363415
0.00365945
0.00368396
0.00370768
0.00373061
0.00375275
0.0037741
0.00379466
0.00381443
0.00383341
0.00385161
0.00386903
0.00388567
0.00390154
0.00391663
0.00393096
0.00394454
0.00395735
0.00396942
0.00398074
0.00399133
0.00400126
0.00401041
0.00401883
0.00402654
0.00403356
0.00403988
0.00404546
0.00405044
0.00405475
0.00405838
0.00406135
0.00406367
0.00406536
0.00406641
0.00406685
0.00406668
0.00406591
0.00406455
0.00406262
0.00406011
0.00405703
0.0040534
0.00404921
0.00404447
0.00403918
0.00403335
0.00402697
0.00402006
0.00401265
0.00400476
0.00399639
0.00398758
0.00397834
0.00396868
0.00395863
0.00394817
0.00393733
0.00392611
0.00391454
0.00390262
0.00389039
0.00387787
0.00386508
0.00385205
0.0038388
0.00382533
0.00381168
0.00379784
0.00378383
0.00376963
0.00375514
0.00374003
0.00372327
0.00370372
6.34008e-07
7.59094e-06
4.6233e-05
0.000100598
0.000149548
0.000186658
0.000211112
0.000224542
0.00022977
0.000229624
0.000226209
0.000221011
0.000215044
0.000208953
0.000203041
0.000197456
0.000191762
0.000186191
0.000180384
0.000174237
0.000167802
0.000160656
0.000152385
0.000143603
0.000135446
0.000129464
0.000127631
0.00013122
0.000140396
0.000154324
0.000170601
0.000188124
0.000205533
0.000221249
0.00023348
0.00024249
0.000251796
0.000262121
0.000277294
0.000297612
0.000325506
0.000360766
0.000403289
0.000452223
0.00050698
0.000566982
0.000631843
0.000701013
0.000773757
0.000849011
0.000925733
0.00100311
0.00108057
0.00115774
0.00123392
0.00130903
0.00138345
0.00145643
0.00152807
0.00159827
0.001667
0.00173427
0.00179999
0.00186432
0.00192739
0.00198925
0.00204998
0.0021097
0.00216854
0.00222678
0.00228406
0.00234035
0.00239567
0.00245004
0.00250352
0.00255611
0.00260777
0.0026585
0.00270828
0.00275706
0.00280485
0.00285161
0.00289735
0.00294206
0.00298575
0.00302845
0.00307021
0.00311105
0.00315102
0.00319011
0.00322836
0.00326578
0.00330239
0.0033382
0.00337322
0.00340746
0.00344092
0.0034736
0.00350552
0.00353666
0.00356703
0.00359662
0.00362543
0.00365347
0.00368072
0.0037072
0.00373289
0.0037578
0.00378193
0.00380527
0.00382783
0.00384961
0.0038706
0.00389082
0.00391026
0.00392893
0.00394683
0.00396397
0.00398034
0.00399596
0.00401083
0.00402495
0.00403833
0.00405098
0.00406289
0.00407412
0.00408464
0.00409443
0.00410352
0.00411192
0.00411965
0.00412669
0.00413306
0.00413881
0.00414389
0.00414832
0.00415212
0.00415529
0.00415784
0.00415979
0.00416114
0.00416189
0.00416207
0.00416168
0.00416073
0.00415923
0.00415717
0.00415458
0.00415144
0.00414776
0.00414354
0.00413877
0.00413346
0.00412764
0.00412131
0.00411449
0.00410721
0.00409947
0.0040913
0.0040827
0.00407368
0.00406425
0.0040544
0.00404416
0.00403353
0.00402254
0.00401121
0.00399955
0.00398759
0.00397536
0.00396286
0.00395012
0.00393716
0.00392401
0.00391069
0.0038972
0.0038835
0.00386935
0.00385387
0.00383724
7.96727e-07
1.31747e-05
6.41389e-05
0.000125916
0.000175759
0.000209486
0.000228751
0.000237195
0.000238259
0.000234619
0.000228235
0.00022049
0.000212286
0.000204209
0.000196133
0.000188689
0.000181558
0.000174757
0.000168719