/*--------------------------------*- C++ -*----------------------------------*\
| =========                 |                                                 |
| \\      /  F ield         | OpenFOAM: The Open Source CFD Toolbox           |
|  \\    /   O peration     | Version:  v2012                                 |
|   \\  /    A nd           | Website:  www.openfoam.com                      |
|    \\/     M anipulation  |                                                 |
\*---------------------------------------------------------------------------*/
FoamFile
{
    version     2.0;
    format      ascii;
    class       volScalarField;
    location    "1500";
    object      omega;
}
// * * * * * * * * * * * * * * * * * * * * * * * * * * * * * * * * * * * * * //

dimensions      [0 0 -1 0 0 0 0];


internalField   nonuniform List<scalar> 
12225
(
38715.7
41495.6
43128.6
43944.2
44184.1
44131.1
43974.1
43697.2
43399.4
43112.3
42844.7
42597
42382.5
42178
42023.4
41851.3
41765.1
41611.1
2077.63
6513.29
9451.86
11482.8
12869
13787.3
14405.1
14812.2
15076.3
15313.8
15537
15782.2
15998.7
16222.9
16397.5
16574.8
16662.4
16770.6
379.852
1133.63
1730.58
2284.5
2734.28
3157.33
3466.97
3775.94
4005.64
4318
4549.31
4847.89
5052.71
5321.48
5487.51
5723.25
5843.44
6040.54
386.093
550.459
667.307
826.534
956.778
1100.44
1208.31
1333.96
1422.1
1540.91
1621.09
1732.39
1801.11
1903.26
1958.91
2050.94
2092.01
2176.08
420.61
454.514
479.074
527.016
567.86
619.923
660.095
710.266
745.916
792.488
823.952
867.55
894.765
935.57
958.306
996.188
1013.76
1049.15
435.391
437.814
441.699
453.006
463.747
481.425
495.643
515.385
530.091
549.732
563.558
582.56
595.029
613.365
624.201
641.828
650.591
667.356
438.352
436.724
435.231
436.05
437.561
440.682
444.159
450.307
455.008
462.192
467.388
475.044
480.26
488.16
493.107
501.081
505.437
513.257
438.836
436.761
434.649
433.326
432.129
431.908
432.11
432.891
433.935
436.008
437.597
440.424
442.345
445.659
447.735
451.411
453.407
457.291
438.939
436.824
434.632
432.813
430.996
429.601
428.392
427.59
426.929
426.663
426.658
426.833
427.132
427.831
428.363
429.505
430.175
431.649
438.973
436.816
434.659
432.722
430.802
429.091
427.446
426.027
424.682
423.561
422.517
421.725
420.929
420.441
419.888
419.72
419.232
419.336
438.989
436.797
434.666
432.693
430.774
428.998
427.274
425.694
424.158
422.771
421.415
420.222
419.04
418.034
417.021
416.206
415.344
414.69
438.997
436.785
434.665
432.674
430.763
428.967
427.241
425.621
424.061
422.602
421.192
419.88
418.609
417.434
416.294
415.248
414.231
413.302
439
436.778
434.663
432.661
430.754
428.947
427.224
425.59
424.031
422.552
421.138
419.797
418.513
417.297
416.132
415.029
413.971
412.97
439.001
436.775
434.66
432.653
430.745
428.933
427.209
425.57
424.009
422.523
421.107
419.759
418.472
417.247
416.076
414.961
413.894
412.878
439.001
436.773
434.657
432.648
430.738
428.923
427.197
425.555
423.991
422.502
421.084
419.732
418.442
417.213
416.04
414.92
413.851
412.83
439.001
436.772
434.655
432.644
430.733
428.916
427.187
425.543
423.977
422.486
421.065
419.711
418.419
417.187
416.011
414.89
413.818
412.795
439
436.769
434.651
432.638
430.725
428.906
427.176
425.53
423.962
422.469
421.046
419.689
418.396
417.162
415.985
414.861
413.788
412.763
439
436.769
434.65
432.637
430.724
428.905
427.174
425.526
423.958
422.463
421.039
419.682
418.388
417.153
415.974
414.85
413.776
412.75
439.001
436.771
434.654
432.641
430.729
428.91
427.179
425.532
423.964
422.47
421.046
419.688
418.394
417.159
415.98
414.855
413.781
412.755
439.001
436.772
434.655
432.643
430.731
428.913
427.183
425.536
423.968
422.474
421.051
419.693
418.399
417.165
415.987
414.862
413.789
412.764
439.001
436.772
434.656
432.645
430.735
428.917
427.188
425.542
423.976
422.483
421.062
419.706
418.415
417.183
416.009
414.888
413.821
412.8
439.003
436.771
434.659
432.649
430.741
428.923
427.2
425.558
424.005
422.522
421.121
419.781
418.518
417.309
416.174
415.086
414.067
413.087
439.006
436.755
434.667
432.673
430.763
428.964
427.282
425.712
424.265
422.904
421.648
420.461
419.384
418.366
417.467
416.598
415.857
415.117
438.929
436.64
434.787
433.012
431.113
429.607
428.283
427.27
426.549
425.962
425.52
425.189
424.99
424.952
425
425.12
425.41
425.599
437.835
436.126
436.436
437.145
435.269
436.329
436.517
438.067
440.547
442.868
445.659
448.146
451.164
453.841
457.088
459.828
463.182
465.834
436.709
441.52
452.807
462.675
461.489
468.078
478.588
489.403
501.662
512.503
524.227
534.351
545.526
555.005
565.657
574.35
584.384
592.149
432.622
479.793
523.995
583.265
591.448
621.726
660.698
697.591
736.563
769.763
804.534
833.11
864.044
888.64
916.273
937.261
961.978
979.752
399.797
682.215
882.471
1038.62
1201.68
1350.7
1494.87
1618.65
1738.42
1836.29
1933.74
2009.22
2088.63
2146.28
2211.9
2256.08
2311.56
2346.43
961.157
2496.29
3511.41
4423.78
5187.71
5802.85
6296.46
6683.85
7001.08
7249.49
7457.34
7612.75
7753.98
7850.45
7955.2
8019.11
8112.67
8165.7
20974.1
22179.4
23100.9
23779.5
24251.4
24574.5
24774.7
24900.5
24974.5
25007.5
25000.9
24982.8
24939.8
24886.4
24818
24750.2
24684.6
24621.6
11463.3
2495.07
2497.94
2501.2
2504.71
2508.46
2513.23
2519.64
2528.07
2538.36
2549.3
2560.39
2570.93
2580.52
2589.1
2596.52
2602.82
2607.92
2612.1
2614.55
2616.84
2617.75
2617.94
2615.99
2612.07
2605.96
2597.79
2588.24
2578.94
2572.43
2570.31
2571.71
2574.52
2577.53
2580.59
2583.71
2586.88
2590.04
2593.23
2597.22
2602.35
2610.93
2621.85
2631.7
2639.09
2642.32
2644.4
2645.12
2645.55
2646.55
2649.95
2656.63
2666.7
2672.86
2681.77
2696.91
2746.46
2919.73
3129.13
3325.15
3500.65
3658.64
3801.28
3932.18
4053.53
4167.99
4275.93
4374.57
4467.73
4554.53
4637.1
4715.2
4790.1
4861.85
4931.12
4998.07
5063.05
5126.2
5187.83
5247.93
5306.75
5364.25
5420.61
5475.8
5529.92
5582.94
5634.94
5685.86
5735.75
5784.57
5832.31
5878.93
5924.42
5968.71
6011.79
6053.6
6094.14
6133.43
6171.53
6208.62
6245.03
6280.56
6315.01
6348.53
6381.05
6412.59
6443.13
6472.66
6501.16
6528.63
6555.05
6580.41
6604.7
6627.92
6650.06
6671.12
6691.08
6709.96
6727.75
6744.46
6760.08
6774.64
6788.13
6800.58
6811.99
6822.38
6832.28
6840.22
6847.65
6853.98
6858.64
6862.29
6864.73
6866.16
6866.73
6866.4
6864.84
6862.38
6858.96
6854.61
6849.37
6843.24
6836.26
6828.45
6819.83
6810.43
6800.31
6789.6
6777.9
6765.89
6752.74
6739.49
6725.07
6710.75
6695.25
6680.08
6663.74
6647.96
6631
6614.64
6597.42
6580.39
6563.07
6545.64
6528.1
6510.52
6492.93
6475.39
6457.94
6440.57
6423.28
6406
6388.65
6371.08
6352.96
6333.83
6313.38
6294.48
6285.05
6188.98
11463.5
1998.65
1052.8
892.298
778.783
653.78
663.486
680.122
672.513
657.609
631.593
605.109
580.228
556.781
537.534
523.001
513.511
509.767
508.827
529.94
556.79
620.801
708.356
812.318
927.138
1042.86
1153.9
1244.23
1313.9
1329.57
1308.22
1244.28
1111.03
944.585
790.299
687.608
618.23
538.089
488.711
455.474
442.936
447.513
457.612
475.216
491.823
515.598
528.418
589.054
657.839
743.347
802.616
1075.78
1511.71
1898.36
2156.84
2302.77
2399.25
2453.18
2471.22
2452.69
2387.82
2318.46
2242.99
2175.74
2113.8
2061.63
2017.01
1980.82
1951.79
1929.27
1912.29
1899.9
1892.7
1886.34
1884.5
1883.21
1883.6
1886.01
1888.98
1892.97
1897.42
1902.41
1907.7
1913.25
1918.96
1924.78
1930.65
1936.5
1942.31
1948.04
1953.65
1959.13
1964.46
1969.64
1974.71
1979.71
1984.78
1990.06
1995.87
2002.6
2010.86
2019.44
2027.57
2035.6
2043.35
2050.9
2058.21
2065.29
2072.14
2078.77
2085.16
2091.31
2097.24
2102.93
2108.39
2113.62
2118.62
2123.39
2127.94
2132.26
2136.36
2140.24
2143.91
2147.37
2150.62
2153.66
2156.48
2158.96
2161.17
2162.87
2163.75
2164.39
2164.77
2164.93
2164.88
2164.63
2164.14
2163.43
2162.51
2161.37
2160.03
2158.49
2156.75
2154.83
2152.75
2150.54
2148.3
2144.94
2142.99
2138.92
2136.82
2132.38
2130.06
2125.29
2122.78
2117.74
2115.03
2109.78
2106.81
2101.76
2097.99
2093.58
2089.25
2084.84
2080.4
2075.92
2071.43
2066.92
2062.42
2057.93
2053.46
2049.03
2044.66
2040.34
2036.21
2032.35
2029.03
2027.66
2028.58
2043.13
11463.6
2045.42
828.377
638.073
675.606
740.906
723.744
681.387
618.388
555.974
499.307
449.673
406.769
373.391
347.452
327.394
312.179
300.876
293.219
288.46
289.019
295.544
306.844
330.206
365.548
412.954
473.584
542.889
616.891
683.33
734.697
765.722
759.362
735.298
676.599
601.082
523.998
446.858
389.581
357.776
358.029
370.642
388.732
405.723
420.013
467.991
555.431
700.547
910.898
1200.59
1415.87
1561.21
1691.72
1768.12
1788.28
1769.08
1723.17
1660.31
1586.37
1512.7
1444.05
1387.14
1338.41
1300.2
1269.24
1245.67
1227.39
1213.87
1203.92
1196.91
1192.48
1189.44
1188.51
1187.91
1188.42
1189.74
1191.62
1194
1196.66
1199.63
1202.78
1206.1
1209.53
1213.04
1216.61
1220.2
1223.81
1227.41
1230.99
1234.56
1238.1
1241.61
1245.11
1248.62
1252.14
1255.73
1259.41
1263.24
1267.26
1271.49
1275.84
1280.07
1284.15
1288.13
1291.98
1295.71
1299.31
1302.78
1306.12
1309.33
1312.42
1315.37
1318.19
1320.89
1323.45
1325.88
1328.18
1330.35
1332.39
1334.3
1336.08
1337.73
1339.25
1340.65
1341.9
1343.02
1343.99
1344.79
1345.41
1345.81
1345.99
1346.04
1345.98
1345.82
1345.57
1345.08
1344.54
1343.86
1343.07
1342.16
1341.13
1340
1338.75
1337.4
1335.94
1334.38
1332.78
1330.78
1329.18
1326.89
1325.17
1322.67
1320.82
1318.15
1316.18
1313.36
1311.26
1308.32
1306.06
1303.17
1300.58
1297.81
1295.03
1292.2
1289.35
1286.47
1283.57
1280.66
1277.73
1274.81
1271.9
1269.04
1266.24
1263.54
1261.03
1258.83
1257.17
1256.94
1258.75
1270.71
11463.6
2022.89
963.858
983.297
960.667
875.727
751.222
633.595
535.208
459.62
402.182
356.79
321.472
294.428
273.768
257.951
245.878
236.734
230.032
225.429
222.782
223.065
224.614
230.21
239.288
254.723
277.481
308.785
347.915
390.718
433.808
473.077
503.054
514.317
507.865
489.272
454.003
407.701
383.394
409.009
469.617
528.039
572.98
620.011
690.014
808.166
981.626
1170.5
1304.07
1374.44
1429.19
1463.06
1467.58
1392.32
1343.9
1287.16
1227.32
1171.1
1120.22
1076.71
1040.37
1011.43
988.348
970.831
957.48
947.761
940.767
935.97
933.102
931.502
931.033
931.009
932.01
933.373
935.22
937.409
939.86
942.524
945.345
948.3
951.349
954.476
957.656
960.875
964.117
967.374
970.634
973.892
977.143
980.384
983.615
986.839
990.06
993.285
996.521
999.776
1003.06
1006.37
1009.7
1013.02
1016.3
1019.47
1022.55
1025.54
1028.43
1031.22
1033.91
1036.5
1038.99
1041.37
1043.65
1045.82
1047.89
1049.84
1051.69
1053.44
1055.07
1056.59
1058.01
1059.31
1060.5
1061.59
1062.55
1063.41
1064.15
1064.77
1065.26
1065.62
1065.84
1065.93
1065.89
1065.74
1065.48
1065.12
1064.68
1064.1
1063.43
1062.65
1061.78
1060.81
1059.75
1058.59
1057.33
1055.99
1054.55
1053.02
1051.43
1049.66
1047.96
1046
1044.17
1042.07
1040.11
1037.86
1035.79
1033.42
1031.23
1028.77
1026.46
1023.95
1021.48
1018.95
1016.39
1013.8
1011.18
1008.53
1005.87
1003.19
1000.5
997.814
995.141
992.503
989.927
987.45
985.143
983.112
981.522
980.993
982.097
988.939
11463.7
2186.71
1460.36
1292.29
1053.05
829.228
645.907
515.021
424.426
360.698
314.951
282.475
259.301
241.916
228.396
217.586
208.936
202.195
197.136
193.578
191.374
190.912
191.441
193.63
197.523
204.308
214.636
229.597
250.529
276.803
305.59
334.502
361.592
383.067
394.717
392.647
387.627
401.734
467.629
569.813
639.323
700.738
776.863
878.878
992.706
1092.87
1165.12
1223.52
1258.03
1268.12
1241.86
1177.95
1127.66
1076.25
1032.57
987.407
948.433
914.211
885.332
861.661
842.786
828.24
817.281
809.4
803.912
800.354
798.614
797.932
797.918
798.827
800.297
802.169
804.465
807.013
809.801
812.768
815.875
819.094
822.399
825.771
829.193
832.652
836.134
839.632
843.136
846.638
850.134
853.618
857.088
860.54
863.975
867.391
870.789
874.169
877.532
880.875
884.194
887.48
890.72
893.901
897.005
900.021
902.949
905.787
908.532
911.182
913.736
916.191
918.546
920.8
922.95
924.996
926.937
928.77
930.496
932.113
933.62
935.018
936.304
937.477
938.538
939.484
940.314
941.029
941.624
942.099
942.45
942.675
942.768
942.756
942.617
942.369
942.013
941.546
940.979
940.299
939.518
938.634
937.649
936.563
935.38
934.101
932.728
931.262
929.705
928.055
926.329
924.486
922.609
920.604
918.583
916.435
914.28
912
909.72
907.321
904.928
902.425
899.926
897.346
894.746
892.104
889.431
886.728
884
881.248
878.478
875.694
872.905
870.126
867.364
864.636
861.965
859.385
856.954
854.757
852.918
851.84
852.065
855.395
11463.6
2851.3
1858.06
1353.36
955.788
677.446
511.623
404.135
335.59
291.499
261.765
240.549
224.564
212.026
202.035
193.949
187.38
182.133
178.117
175.268
173.558
173.166
173.661
175.214
178.25
182.955
189.805
199.469
212.908
230.694
251.774
274.245
295.779
316.164
337.506
372.399
439.463
550.281
649.38
723.769
795.432
871.701
945.242
1005.53
1051.7
1089.82
1112.64
1116.24
1073.99
1030.6
989.038
946.687
909.892
873.727
842.633
813.979
790.078
769.814
753.387
740.462
730.681
723.639
718.85
716.11
714.949
714.704
715.495
717.047
719.144
721.723
724.648
727.836
731.249
734.823
738.53
742.337
746.223
750.168
754.157
758.176
762.216
766.265
770.317
774.363
778.398
782.416
786.413
790.383
794.325
798.234
802.11
805.949
809.75
813.512
817.23
820.9
824.517
828.071
831.551
834.953
838.268
841.493
844.625
847.661
850.599
853.436
856.17
858.798
861.319
863.73
866.028
868.214
870.284
872.237
874.072
875.788
877.383
878.858
880.209
881.436
882.537
883.513
884.361
885.081
885.671
886.131
886.459
886.645
886.701
886.649
886.46
886.148
885.716
885.163
884.495
883.708
882.807
881.795
880.671
879.437
878.097
876.651
875.102
873.452
871.703
869.857
867.92
865.882
863.771
861.565
859.295
856.936
854.522
852.022
849.473
846.846
844.177
841.44
838.666
835.838
832.975
830.074
827.143
824.182
821.195
818.186
815.16
812.121
809.079
806.045
803.029
800.046
797.116
794.269
791.555
789.039
786.822
785.167
784.44
785.532
11464.1
3554.72
1959.81
1198.45
758.794
527.312
402.888
335.561
293.753
264.943
243.244
226.178
212.423
201.084
191.612
183.693
177.172
171.975
168.051
165.327
163.807
163.542
164.16
165.86
168.849
173.231
179.414
187.96
199.569
214.815
233.893
257.493
288.191
327.568
385.21
482.116
598.088
691.181
765.196
831.71
887.76
929.163
961.512
987.417
998.449
994.098
956.08
921.424
887.775
856.368
826.123
796.763
770.313
746.121
725.439
707.466
692.722
680.777
671.559
664.8
660.186
657.685
656.75
656.732
657.962
659.992
662.704
665.935
669.563
673.506
677.684
682.043
686.542
691.146
695.828
700.569
705.35
710.158
714.98
719.807
724.63
729.44
734.232
739
743.738
748.44
753.104
757.724
762.296
766.817
771.285
775.697
780.05
784.341
788.566
792.723
796.805
800.808
804.731
808.561
812.294
815.926
819.452
822.871
826.18
829.375
832.453
835.412
838.248
840.96
843.545
846
848.324
850.514
852.57
854.488
856.265
857.899
859.392
860.744
861.953
863.02
863.943
864.722
865.356
865.844
866.186
866.366
866.415
866.334
866.106
865.739
865.235
864.598
863.828
862.926
861.889
860.722
859.428
858.011
856.473
854.818
853.047
851.164
849.17
847.069
844.866
842.559
840.16
837.667
835.092
832.431
829.696
826.88
823.998
821.044
818.033
814.961
811.84
808.67
805.458
802.211
798.93
795.621
792.286
788.929
785.556
782.172
778.787
775.41
772.054
768.73
765.456
762.259
759.181
756.269
753.597
751.347
749.696
749.169
11470.8
3802.78
1777.2
940.639
583.889
422.964
342.111
295.223
265.299
244.276
228.461
215.621
204.611
194.937
186.429
179.044
172.776
167.673
163.832
161.364
160.261
160.461
161.774
164.459
168.504
173.928
181.166
191.059
204.519
222.619
248.372
286.562
344.275
432.494
537.46
627.995
700.675
765.03
817.583
856.177
885.066
903.641
909.474
896.254
867.452
839.176
810.63
786.068
762.548
739.887
717.747
696.993
678.566
662.43
648.834
637.556
628.642
621.892
617.152
614.447
613.397
613.371
614.671
616.908
619.991
623.721
627.97
632.625
637.593
642.803
648.194
653.721
659.348
665.046
670.791
676.567
682.359
688.153
693.938
699.705
705.444
711.15
716.817
722.437
728.007
733.521
738.975
744.366
749.687
754.936
760.108
765.202
770.215
775.143
779.984
784.733
789.388
793.949
798.41
802.759
806.991
811.102
815.089
818.95
822.68
826.278
829.74
833.063
836.244
839.281
842.17
844.911
847.5
849.936
852.218
854.342
856.308
858.115
859.761
861.245
862.568
863.727
864.723
865.556
866.225
866.729
867.067
867.224
867.243
867.104
866.802
866.343
865.731
864.966
864.053
862.991
861.785
860.436
858.947
857.322
855.562
853.672
851.655
849.513
847.25
844.869
842.375
839.77
837.06
834.25
831.347
828.353
825.274
822.112
818.873
815.562
812.187
808.749
805.257
801.713
798.127
794.502
790.844
787.156
783.441
779.706
775.956
772.197
768.438
764.69
760.963
757.269
753.625
750.047
746.548
743.189
740.025
737.184
734.74
732.883
11491.1
3709.47
1451.73
742.856
488.909
379.205
320.599
283.709
259.228
241.13
226.52
214.235
203.574
194.179
185.929
178.833
172.974
168.448
165.368
163.634
163.227
164.13
166.392
170.321
176.436
184.931
197.096
214.744
239.785
275.023
326.666
401.511
487.129
565.577
631.992
689.295
738.324
778.551
810.929
829.515
834.639
819.968
796.741
772.877
749.652
729.284
710.507
693.258
676.084
659.169
643.017
628.403
615.718
604.992
596.254
589.422
584.438
581.287
579.879
579.647
580.718
582.886
586.049
590.024
594.685
599.898
605.555
611.563
617.846
624.342
630.993
637.757
644.599
651.489
658.404
665.324
672.241
679.139
686.003
692.825
699.596
706.31
712.96
719.541
726.047
732.473
738.811
745.048
751.191
757.242
763.196
769.052
774.806
780.455
785.994
791.42
796.729
801.915
806.972
811.895
816.68
821.323
825.82
830.17
834.367
838.411
842.296
846.021
849.581
852.974
856.198
859.249
862.126
864.827
867.351
869.694
871.857
873.836
875.632
877.243
878.669
879.91
880.965
881.834
882.519
883.018
883.322
883.437
883.39
883.159
882.747
882.159
881.398
880.466
879.366
878.1
876.672
875.084
873.34
871.443
869.397
867.206
864.873
862.402
859.798
857.064
854.204
851.224
848.127
844.92
841.611
838.202
834.7
831.109
827.435
823.684
819.864
815.979
812.035
808.038
803.995
799.912
795.795
791.647
787.473
783.279
779.073
774.86
770.65
766.452
762.278
758.139
754.048
750.024
746.093
742.289
738.651
735.273
732.172
729.282
11522.4
3261.73
1153.86
616.202
432.622
349.391
304.57
277.081
256.951
241.525
229.085
218.348
208.755
200.143
192.57
186.18
181.168
177.655
175.843
175.538
176.985
179.914
184.86
192.786
204.593
220.889
245.398
280.996
329.545
389.947
454.774
515.325
571.196
620.851
664.409
701.39
733.467
755.809
763.408
755.57
737.376
717.962
698.512
681.471
666.378
652.859
639.882
627.053
614.104
601.534
589.934
579.773
571.238
564.359
559.133
555.493
553.627
553.077
553.751
555.656
558.664
562.644
567.484
573.052
579.229
585.908
592.993
600.401
608.068
615.949
623.969
632.086
640.265
648.471
656.673
664.839
672.924
680.941
688.908
696.821
704.669
712.443
720.138
727.747
735.265
742.686
750.003
757.218
764.315
771.284
778.123
784.829
791.399
797.83
804.119
810.262
816.254
822.091
827.772
833.292
838.649
843.839
848.857
853.702
858.369
862.856
867.161
871.279
875.206
878.941
882.48
885.821
888.962
891.902
894.638
897.17
899.494
901.611
903.519
905.216
906.704
907.982
909.05
909.91
910.561
911.004
911.224
911.249
911.076
910.699
910.121
909.347
908.379
907.22
905.874
904.343
902.632
900.745
898.684
896.454
894.06
891.505
888.795
885.933
882.925
879.775
876.489
873.071
869.526
865.861
862.084
858.2
854.214
850.134
845.965
841.716
837.393
833.004
828.553
824.046
819.49
814.893
810.261
805.597
800.908
796.202
791.485
786.766
782.052
777.354
772.681
768.046
763.459
758.939
754.507
750.191
746.02
742.066
738.313
734.476
11553.7
2732.4
971.007
564.433
415.802
343.97
303.909
279.318
262.607
249.84
239.167
229.781
221.428
214.148
208.164
203.659
201.217
200.624
202.154
205.697
211.694
220.263
232.946
251.035
275.399
307.206
345.65
388.858
434.531
480.141
523.7
563.725
600.071
632.101
660.947
684.286
694.245
694.292
683.126
669.24
653.671
639.732
627.46
616.832
607.074
597.636
588.072
578.35
568.702
559.63
551.577
544.826
539.491
535.592
533.286
532.423
532.718
534.335
537.116
540.98
545.832
551.574
558.135
565.374
573.176
581.446
590.093
599.03
608.159
617.364
626.704
636.152
645.671
655.224
664.771
674.279
683.739
693.129
702.432
711.644
720.746
729.731
738.597
747.34
755.955
764.435
772.77
780.949
788.967
796.822
804.512
812.036
819.392
826.576
833.585
840.416
847.065
853.53
859.809
865.899
871.796
877.495
882.993
888.288
893.377
898.256
902.925
907.378
911.614
915.627
919.417
922.981
926.317
929.424
932.302
934.947
937.36
939.538
941.48
943.187
944.658
945.895
946.897
947.667
948.205
948.505
948.574
948.42
948.041
947.438
946.614
945.572
944.318
942.853
941.183
939.31
937.239
934.975
932.522
929.885
927.068
924.076
920.916
917.592
914.109
910.474
906.693
902.769
898.71
894.523
890.213
885.79
881.259
876.628
871.906
867.101
862.22
857.27
852.257
847.185
842.064
836.899
831.698
826.466
821.212
815.943
810.667
805.392
800.127
794.881
789.663
784.485
779.357
774.297
769.323
764.459
759.726
755.182
750.797
746.105
11577
2236.35
837.802
515.505
396.317
339.092
307.659
288.026
274.291
263.704
254.983
247.617
241.557
236.944
234.536
234.011
235.903
240.462
247.164
255.728
267.278
283.116
303.508
328.349
357.049
388.543
421.326
454.328
486.713
517.68
546.407
572.616
597.092
618.922
630.807
633.712
629.582
622.249
611.813
601.561
592.098
583.974
576.751
570.023
563.351
556.505
549.444
542.364
535.608
529.574
524.572
520.76
518.347
517.358
517.454
518.939
521.721
525.672
530.678
536.655
543.506
551.106
559.259
567.996
577.304
587.106
597.313
607.844
618.637
629.667
640.834
652.073
663.343
674.615
685.82
696.901
707.831
718.587
729.155
739.533
749.747
759.808
769.721
779.486
789.098
798.546
807.816
816.896
825.777
834.457
842.934
851.209
859.278
867.14
874.79
882.226
889.444
896.445
903.227
909.785
916.118
922.22
928.088
933.721
939.115
944.271
949.184
953.852
958.273
962.443
966.36
970.022
973.428
976.578
979.471
982.106
984.482
986.597
988.451
990.044
991.377
992.451
993.267
993.829
994.134
994.185
993.983
993.534
992.839
991.901
990.723
989.309
987.664
985.792
983.696
981.383
978.856
976.121
973.183
970.048
966.72
963.206
959.511
955.642
951.604
947.406
943.052
938.55
933.905
929.125
924.215
919.185
914.045
908.802
903.468
898.049
892.554
886.989
881.36
875.672
869.933
864.15
858.329
852.48
846.612
840.734
834.855
828.981
823.121
817.283
811.477
805.714
800.004
794.365
788.813
783.369
778.047
772.895
767.889
762.403
11590.5
2033.95
813.768
511.625
398.57
346.662
318.779
301.776
290.237
281.774
275.379
270.68
267.963
267.094
268.193
271.856
277.939
286.22
296.459
309.365
325.061
343.36
363.905
386.183
409.582
433.474
457.238
480.328
502.039
522.782
542.883
560.998
572.764
577.224
577.626
575.405
570.555
564.832
558.846
553.452
548.64
544.292
540.107
535.871
531.458
526.884
522.295
517.953
514.178
511.301
509.744
509.244
509.829
511.635
514.553
518.558
523.407
529.309
536.276
544.236
553.102
562.789
573.263
584.402
596.105
608.277
620.81
633.61
646.604
659.748
672.954
686.112
699.164
712.053
724.719
737.117
749.217
761.014
772.52
783.771
794.818
805.692
816.408
826.972
837.378
847.602
857.618
867.409
876.965
886.282
895.361
904.199
912.794
921.142
929.24
937.085
944.675
952.011
959.092
965.916
972.48
978.779
984.812
990.575
996.069
1001.29
1006.25
1010.92
1015.33
1019.45
1023.29
1026.86
1030.13
1033.13
1035.85
1038.28
1040.44
1042.31
1043.89
1045.19
1046.21
1046.95
1047.42
1047.6
1047.52
1047.16
1046.53
1045.64
1044.48
1043.07
1041.4
1039.47
1037.31
1034.9
1032.25
1029.38
1026.28
1022.96
1019.42
1015.68
1011.74
1007.6
1003.28
998.767
994.083
989.233
984.222
979.059
973.751
968.303
962.722
957.017
951.201
945.286
939.281
933.192
927.027
920.792
914.495
908.14
901.735
895.283
888.796
882.285
875.76
869.232
862.708
856.196
849.702
843.234
836.801
830.414
824.087
817.834
811.673
805.619
799.685
793.91
788.287
782.051
11598.9
1932.21
779.539
505.231
404.456
357.879
333.208
318.386
308.633
302.009
297.909
296.1
295.844
297.747
301.776
307.838
315.792
325.518
337.101
350.472
365.256
381.192
397.962
415.12
432.287
449.115
465.273
481.239
497.245
511.273
521.458
526.867
529.67
530.617
530.567
529.26
527.357
525.387
523.523
521.885
520.401
519.024
517.769
516.44
515.026
513.637
512.436
511.668
511.408
511.655
512.437
514.268
517.277
521.543
527.063
533.904
542.258
551.886
562.583
574.215
586.674
599.861
613.698
628.06
642.862
658.013
673.326
688.669
703.934
718.999
733.771
748.233
762.402
776.382
789.985
803.104
815.702
827.802
839.471
850.811
861.963
872.992
883.911
894.744
905.465
916.024
926.349
936.428
946.253
955.814
965.105
974.124
982.867
991.328
999.503
1007.39
1014.99
1022.3
1029.32
1036.05
1042.5
1048.65
1054.5
1060.06
1065.32
1070.29
1074.95
1079.33
1083.4
1087.17
1090.64
1093.81
1096.67
1099.24
1101.5
1103.47
1105.13
1106.5
1107.56
1108.33
1108.81
1108.98
1108.87
1108.47
1107.78
1106.81
1105.55
1104.02
1102.22
1100.15
1097.81
1095.21
1092.36
1089.25
1085.91
1082.32
1078.51
1074.47
1070.21
1065.74
1061.07
1056.19
1051.12
1045.87
1040.44
1034.84
1029.08
1023.16
1017.11
1010.91
1004.59
998.137
991.584
984.936
978.202
971.386
964.497
957.54
950.523
943.452
936.334
929.168
921.972
914.759
907.542
900.328
893.125
885.939
878.777
871.645
864.551
857.509
850.534
843.641
836.844
830.158
823.592
817.178
810.939
803.991
11602.3
1907.59
777.857
511.89
415.922
372.667
350.179
336.611
327.792
322.368
319.846
319.21
320.595
324.111
329.32
336.039
344.112
353.424
363.834
375.142
387.115
399.519
412.097
424.621
436.919
448.85
460.231
470.35
478.46
484.895
490.197
494.39
498.033
501.21
504.038
506.516
508.795
510.969
513.062
515.071
516.916
518.489
519.529
520.477
521.574
522.976
524.847
527.365
530.656
534.891
540.33
546.981
554.937
564.192
574.76
586.746
600.302
615.15
630.94
647.409
664.406
681.808
699.501
717.36
735.234
752.999
770.608
787.968
804.969
821.496
837.437
852.705
867.294
881.215
894.35
906.687
918.195
928.973
939.165
948.983
958.847
968.834
978.856
989.006
999.195
1009.31
1019.27
1029.01
1038.51
1047.72
1056.65
1065.28
1073.61
1081.64
1089.35
1096.74
1103.81
1110.57
1117.02
1123.16
1128.99
1134.5
1139.69
1144.56
1149.12
1153.36
1157.29
1160.91
1164.22
1167.22
1169.9
1172.27
1174.32
1176.06
1177.49
1178.62
1179.45
1179.96
1180.16
1180.07
1179.68
1178.97
1177.98
1176.69
1175.11
1173.25
1171.1
1168.68
1165.97
1163
1159.76
1156.26
1152.5
1148.5
1144.25
1139.76
1135.04
1130.1
1124.94
1119.57
1114
1108.22
1102.26
1096.12
1089.8
1083.31
1076.67
1069.89
1062.96
1055.91
1048.75
1041.5
1034.15
1026.72
1019.2
1011.6
1003.94
996.208
988.422
980.589
972.715
964.795
956.857
948.913
940.973
933.044
925.133
917.244
909.386
901.562
893.78
886.059
878.415
870.862
863.411
856.077
848.866
841.802
834.948
827.32
11602.8
1879.69
775.662
521.176
429.381
387.726
366.463
353.706
345.395
340.717
338.776
338.475
340.425
344.191
349.33
355.587
362.778
370.8
379.52
388.809
398.544
408.639
419.052
429.438
439.525
449.11
457.914
466.088
473.671
480.796
487.552
493.809
499.452
504.78
509.968
515.026
520.019
525.005
530.038
535.151
540.311
545.599
551.224
557.245
563.783
570.975
578.949
587.806
597.646
608.593
620.778
634.246
649.225
665.359
682.45
700.334
718.677
737.308
756.239
775.462
794.882
814.392
833.891
853.273
872.433
891.27
909.71
927.679
945.098
961.877
977.905
992.993
1007.06
1019.97
1031.93
1043.08
1053.53
1063.29
1072.38
1080.9
1089.08
1097.06
1105.07
1113.68
1122.54
1131.39
1140.15
1148.71
1157.01
1165.01
1172.7
1180.1
1187.18
1193.94
1200.38
1206.48
1212.25
1217.69
1222.82
1227.63
1232.13
1236.31
1240.16
1243.69
1246.91
1249.81
1252.4
1254.69
1256.67
1258.35
1259.72
1260.78
1261.52
1261.97
1262.11
1261.97
1261.56
1260.81
1259.78
1258.45
1256.83
1254.92
1252.73
1250.26
1247.51
1244.48
1241.19
1237.63
1233.8
1229.72
1225.38
1220.78
1215.94
1210.86
1205.56
1200.02
1194.27
1188.3
1182.13
1175.75
1169.18
1162.42
1155.49
1148.37
1141.1
1133.66
1126.09
1118.37
1110.52
1102.56
1094.5
1086.37
1078.15
1069.84
1061.46
1053
1044.48
1035.9
1027.27
1018.6
1009.9
1001.2
992.504
983.813
975.131
966.465
957.822
949.208
940.632
932.097
923.611
915.2
906.877
898.654
890.541
882.55
874.689
866.971
859.505
851.234
11600.2
1860.84
778.229
531.312
441.655
401.509
381.263
368.945
361.025
356.884
355.277
355.137
357.295
361.047
366.114
372.291
379.451
387.561
396.358
405.759
415.527
425.477
435.501
445.613
455.84
466.211
476.859
487.403
497.938
508.523
519.195
529.942
540.909
552.071
563.388
574.838
586.401
598.078
609.877
621.813
633.989
646.532
659.606
673.238
687.499
702.494
718.329
734.999
752.451
770.67
789.651
809.409
829.758
850.48
871.433
892.458
913.374
934.016
954.293
974.139
993.505
1012.33
1030.58
1048.21
1065.2
1081.51
1097.14
1112.08
1126.34
1139.9
1152.76
1164.94
1176.44
1186.99
1196.88
1206.25
1215.22
1223.73
1231.62
1238.94
1245.56
1251.73
1258.07
1264.72
1271.34
1277.81
1284.06
1290.06
1295.8
1301.25
1306.42
1311.33
1315.95
1320.28
1324.32
1328.05
1331.48
1334.63
1337.51
1340.12
1342.44
1344.49
1346.24
1347.72
1348.91
1349.84
1350.51
1350.91
1351.02
1350.9
1350.52
1349.83
1348.89
1347.69
1346.22
1344.51
1342.54
1340.31
1337.82
1335.06
1332.05
1328.78
1325.27
1321.5
1317.49
1313.24
1308.75
1304.02
1299.06
1293.86
1288.43
1282.77
1276.89
1270.8
1264.51
1258.01
1251.31
1244.41
1237.33
1230.07
1222.63
1215.01
1207.23
1199.29
1191.19
1182.96
1174.58
1166.08
1157.45
1148.71
1139.85
1130.9
1121.86
1112.73
1103.53
1094.25
1084.91
1075.51
1066.07
1056.59
1047.09
1037.6
1028.12
1018.65
1009.2
999.757
990.345
980.969
971.639
962.373
953.191
944.097
935.1
926.21
917.436
908.792
900.285
891.924
883.853
874.987
11595.1
1844.67
781.889
538.494
451.935
414.97
396.175
384.944
378.469
375.635
374.959
376.652
380.651
386.469
393.856
402.713
412.957
423.616
435.394
448.372
462.233
476.882
492.551
509.341
527.323
546.526
566.879
588.174
610.275
633.021
656.288
679.988
704.108
728.521
753.191
778.064
802.821
827.334
851.558
875.478
899.155
922.675
946.098
969.447
992.767
1016.22
1040.29
1064.7
1088.84
1112.47
1135.42
1157.44
1178.12
1197.79
1216.47
1234.16
1250.76
1266.27
1280.67
1294.02
1306.37
1317.71
1328.13
1337.66
1346.36
1354.26
1361.43
1367.92
1373.79
1379.09
1383.94
1388.55
1393.05
1397.49
1401.81
1405.9
1409.74
1413.25
1416.25
1419.1
1422.02
1425.45
1429.06
1432.13
1434.7
1436.95
1438.97
1440.81
1442.47
1443.97
1445.29
1446.44
1447.4
1448.16
1448.73
1449.1
1449.28
1449.27
1449.12