/*--------------------------------*- C++ -*----------------------------------*\
| =========                 |                                                 |
| \\      /  F ield         | OpenFOAM: The Open Source CFD Toolbox           |
|  \\    /   O peration     | Version:  v2012                                 |
|   \\  /    A nd           | Website:  www.openfoam.com                      |
|    \\/     M anipulation  |                                                 |
\*---------------------------------------------------------------------------*/
FoamFile
{
    version     2.0;
    format      ascii;
    class       volScalarField;
    location    "1500";
    object      p;
}
// * * * * * * * * * * * * * * * * * * * * * * * * * * * * * * * * * * * * * //

dimensions      [0 2 -2 0 0 0 0];


internalField   nonuniform List<scalar> 
12225
(
-4.41325
-5.28826
-5.67429
-5.78884
-5.90736
-6.05214
-6.18309
-6.29086
-6.38313
-6.46771
-6.54969
-6.62982
-6.70869
-6.78825
-6.8711
-6.96162
-7.06282
-7.18563
-4.69165
-5.34168
-5.6658
-5.77596
-5.89118
-6.03171
-6.16052
-6.26813
-6.36204
-6.44927
-6.53275
-6.61339
-6.69219
-6.77104
-6.85217
-6.93865
-7.02877
-7.11905
-4.90109
-5.33848
-5.6405
-5.77478
-5.89557
-6.03254
-6.15842
-6.26442
-6.35774
-6.4446
-6.52687
-6.60582
-6.68263
-6.75888
-6.83588
-6.91463
-6.99035
-7.05238
-5.04967
-5.36349
-5.64935
-5.79399
-5.90953
-6.0365
-6.15619
-6.25905
-6.35044
-6.43555
-6.51627
-6.59368
-6.66877
-6.74253
-6.81543
-6.88696
-6.95207
-7.00252
-5.17649
-5.41084
-5.66622
-5.81093
-5.92204
-6.04155
-6.15643
-6.25682
-6.34646
-6.42991
-6.50907
-6.58469
-6.65755
-6.72813
-6.79644
-6.86124
-6.91852
-6.96247
-5.29146
-5.46385
-5.68246
-5.82483
-5.93409
-6.0476
-6.15758
-6.25517
-6.34282
-6.42444
-6.50174
-6.57525
-6.64549
-6.71269
-6.77653
-6.8356
-6.88692
-6.92646
-5.39566
-5.51999
-5.70274
-5.83959
-5.94647
-6.0537
-6.1582
-6.25259
-6.33801
-6.41763
-6.49286
-6.56409
-6.63162
-6.69551
-6.75523
-6.80955
-6.85637
-6.89317
-5.47586
-5.57002
-5.72503
-5.85398
-5.95754
-6.05923
-6.15875
-6.25002
-6.33324
-6.41088
-6.4841
-6.55321
-6.61835
-6.67946
-6.73601
-6.78699
-6.83094
-6.86623
-5.54107
-5.61514
-5.74749
-5.86794
-5.96792
-6.06465
-6.15957
-6.2478
-6.32883
-6.40447
-6.47573
-6.54283
-6.60579
-6.66449
-6.71845
-6.76686
-6.80874
-6.84304
-5.60603
-5.6638
-5.77431
-5.88453
-5.9799
-6.07124
-6.16106
-6.24568
-6.32404
-6.39729
-6.46622
-6.531
-6.59155
-6.64771
-6.69909
-6.7451
-6.78515
-6.81863
-5.66994
-5.7147
-5.80533
-5.90395
-5.99352
-6.07911
-6.16336
-6.2438
-6.31898
-6.38941
-6.45565
-6.51781
-6.57574
-6.62928
-6.67813
-6.72191
-6.76034
-6.79311
-5.73172
-5.7664
-5.83975
-5.92608
-6.00868
-6.08816
-6.16654
-6.24223
-6.31371
-6.38091
-6.44413
-6.50339
-6.55855
-6.60943
-6.65583
-6.69757
-6.73454
-6.76664
-5.79023
-5.81724
-5.87621
-5.95034
-6.0251
-6.09815
-6.17045
-6.24097
-6.30827
-6.37186
-6.43176
-6.48793
-6.5402
-6.58844
-6.63251
-6.67235
-6.70798
-6.73941
-5.84406
-5.86533
-5.91277
-5.9756
-6.04212
-6.10854
-6.17472
-6.23984
-6.30261
-6.36229
-6.41868
-6.47163
-6.521
-6.56665
-6.60851
-6.64658
-6.68096
-6.7117
-5.8914
-5.90843
-5.94695
-6.00001
-6.05854
-6.11841
-6.17864
-6.2384
-6.29652
-6.35218
-6.40499
-6.45473
-6.50124
-6.54442
-6.58421
-6.62065
-6.65385
-6.6839
-5.92979
-5.94378
-5.97575
-6.02099
-6.0725
-6.12636
-6.18114
-6.23589
-6.28958
-6.34135
-6.39072
-6.4374
-6.48124
-6.52212
-6.56003
-6.59499
-6.6271
-6.65647
-5.95579
-5.96777
-5.99537
-6.03511
-6.08126
-6.13025
-6.18054
-6.23111
-6.28099
-6.32936
-6.3757
-6.41972
-6.46122
-6.50013
-6.53641
-6.5701
-6.60128
-6.63005
-5.96366
-5.97481
-6.00059
-6.03786
-6.08128
-6.12751
-6.17508
-6.22303
-6.27043
-6.31651
-6.36076
-6.40289
-6.44275
-6.48026
-6.51538
-6.54817
-6.57868
-6.60704
-5.95295
-5.96449
-5.99109
-6.02903
-6.07258
-6.11842
-6.16532
-6.21247
-6.25898
-6.30409
-6.34738
-6.3886
-6.42763
-6.4644
-6.49892
-6.53122
-6.5614
-6.58955
-5.9284
-5.94146
-5.97122
-6.01251
-6.05837
-6.10553
-6.15329
-6.20102
-6.24782
-6.29298
-6.33613
-6.37715
-6.41593
-6.45246
-6.48675
-6.51887
-6.54893
-6.57704
-5.89308
-5.90896
-5.94446
-5.9915
-6.04118
-6.09074
-6.14038
-6.18964
-6.23749
-6.28328
-6.32683
-6.36807
-6.40697
-6.44353
-6.47781
-6.50993
-6.53999
-6.56814
-5.84861
-5.86916
-5.91361
-5.96861
-6.0229
-6.0754
-6.12762
-6.17902
-6.22834
-6.27511
-6.31934
-6.36107
-6.40028
-6.43702
-6.47139
-6.50356
-6.53367
-6.56189
-5.79569
-5.82378
-5.88124
-5.9459
-6.00484
-6.06047
-6.11577
-6.16963
-6.22057
-6.26845
-6.31353
-6.35589
-6.3955
-6.43246
-6.46695
-6.49917
-6.5293
-6.55758
-5.7342
-5.77448
-5.85001
-5.92496
-5.98766
-6.04653
-6.10534
-6.16174
-6.21423
-6.26321
-6.3092
-6.35222
-6.39225
-6.42942
-6.46398
-6.4962
-6.52632
-6.55462
-5.66332
-5.72294
-5.82269
-5.90711
-5.97178
-6.03378
-6.09631
-6.15514
-6.20903
-6.25911
-6.30603
-6.34972
-6.39012
-6.42742
-6.46196
-6.49407
-6.52404
-6.55224
-5.58221
-5.67068
-5.80053
-5.89265
-5.95772
-6.02254
-6.08833
-6.14903
-6.20403
-6.25517
-6.30309
-6.34753
-6.38839
-6.42593
-6.4605
-6.49252
-6.5224
-6.55069
-5.49002
-5.62151
-5.78101
-5.87705
-5.94347
-6.01258
-6.08161
-6.14365
-6.19941
-6.2514
-6.30009
-6.34505
-6.38617
-6.4237
-6.45804
-6.4897
-6.51917
-6.54722
-5.3789
-5.58926
-5.76848
-5.85597
-5.9232
-5.9994
-6.07364
-6.13848
-6.19644
-6.2506
-6.30116
-6.34752
-6.38956
-6.42757
-6.46203
-6.49355
-6.52292
-6.55176
-5.20766
-5.5815
-5.79227
-5.85986
-5.91833
-5.99504
-6.06962
-6.13362
-6.19125
-6.24584
-6.29707
-6.34397
-6.38635
-6.42437
-6.45825
-6.48865
-6.51676
-6.5438
-4.94859
-5.50777
-5.78388
-5.85907
-5.92173
-6.00439
-6.08266
-6.1482
-6.2069
-6.2626
-6.31482
-6.36241
-6.40509
-6.44285
-6.47523
-6.50272
-6.52702
-6.5474
-7.55079
-7.55094
-7.55104
-7.55116
-7.55115
-7.55015
-7.54713
-7.54223
-7.53697
-7.53277
-7.53125
-7.53334
-7.53875
-7.54653
-7.55562
-7.56501
-7.57382
-7.5813
-7.58689
-7.59027
-7.59172
-7.59175
-7.59067
-7.58873
-7.58634
-7.58396
-7.58202
-7.58077
-7.58021
-7.58011
-7.58009
-7.57987
-7.57938
-7.57874
-7.57807
-7.57746
-7.57685
-7.57595
-7.57439
-7.57207
-7.56947
-7.56735
-7.56666
-7.56787
-7.57038
-7.57316
-7.57539
-7.57689
-7.57796
-7.5791
-7.58056
-7.58268
-7.58721
-7.59369
-7.59832
-7.59781
-7.59299
-7.58899
-7.59357
-7.61264
-7.64915
-7.70308
-7.77209
-7.85258
-7.94036
-8.03093
-8.12029
-8.20543
-8.28446
-8.35627
-8.42033
-8.47655
-8.52508
-8.56622
-8.60033
-8.62775
-8.64883
-8.66383
-8.67301
-8.67655
-8.6746
-8.66726
-8.65461
-8.6367
-8.61357
-8.58522
-8.55166
-8.51288
-8.46884
-8.41953
-8.36489
-8.3049
-8.23951
-8.1687
-8.09241
-8.01063
-7.92332
-7.83053
-7.73237
-7.62886
-7.51971
-7.40458
-7.28356
-7.15679
-7.02433
-6.88622
-6.74248
-6.59314
-6.43824
-6.27784
-6.112
-5.94077
-5.76426
-5.58253
-5.3957
-5.20387
-5.00715
-4.80569
-4.59962
-4.38908
-4.17423
-3.95524
-3.73228
-3.50553
-3.27518
-3.04143
-2.80448
-2.56458
-2.322
-2.07697
-1.8295
-1.57967
-1.3278
-1.07419
-0.819062
-0.562649
-0.305179
-0.0468815
0.212021
0.471313
0.730773
0.990188
1.24935
1.50805
1.76611
2.02331
2.27949
2.53446
2.78806
3.04012
3.29047
3.53895
3.78541
4.02969
4.27166
4.51121
4.74822
4.98259
5.21425
5.4431
5.66907
5.89208
6.11205
6.3289
6.54256
6.75295
6.96001
7.16367
7.36387
7.56054
7.7536
7.94298
8.12858
8.31032
8.48812
8.66195
8.8319
8.99794
9.16305
9.31799
-7.55239
-7.55266
-7.55327
-7.55414
-7.55463
-7.55405
-7.55174
-7.54796
-7.54438
-7.54282
-7.54407
-7.5482
-7.55476
-7.56295
-7.57187
-7.58073
-7.58888
-7.59586
-7.60139
-7.60528
-7.60722
-7.60702
-7.60489
-7.6013
-7.59681
-7.59212
-7.58788
-7.58457
-7.58237
-7.58103
-7.58008
-7.57911
-7.57818
-7.57766
-7.57759
-7.57768
-7.57763
-7.57713
-7.57587
-7.57385
-7.57167
-7.57028
-7.57046
-7.57225
-7.57483
-7.57712
-7.57854
-7.57876
-7.57829
-7.57866
-7.57871
-7.57668
-7.57465
-7.57761
-7.58847
-7.5985
-7.60008
-7.59945
-7.60807
-7.63272
-7.67628
-7.73779
-7.81387
-7.89948
-7.98931
-8.07895
-8.16505
-8.24547
-8.31901
-8.38516
-8.44383
-8.49517
-8.53946
-8.57703
-8.6082
-8.63326
-8.65247
-8.66604
-8.67413
-8.67687
-8.67436
-8.66666
-8.65381
-8.63583
-8.61274
-8.58454
-8.5512
-8.51272
-8.46905
-8.42017
-8.36604
-8.30661
-8.24185
-8.1717
-8.09613
-8.01509
-7.92851
-7.83633
-7.73845
-7.63478
-7.52543
-7.41061
-7.29026
-7.16428
-7.03265
-6.89537
-6.75247
-6.60398
-6.44993
-6.29037
-6.12537
-5.95498
-5.77929
-5.59839
-5.41236
-5.22133
-5.0254
-4.82471
-4.61939
-4.40958
-4.19544
-3.97714
-3.75484
-3.52871
-3.29895
-3.06573
-2.82924
-2.58966
-2.34718
-2.10201
-1.85453
-1.60498
-1.35347
-1.1002
-0.845394
-0.589271
-0.33206
-0.0739933
0.18471
0.44383
0.703149
0.96245
1.22153
1.48017
1.73819
1.99539
2.25159
2.50661
2.76027
3.01242
3.26289
3.51151
3.75812
4.00259
4.24476
4.48452
4.72176
4.95638
5.18828
5.41738
5.64361
5.86689
6.08714
6.30428
6.51823
6.72892
6.93629
7.14026
7.34078
7.53778
7.73119
7.92094
8.10695
8.28921
8.46765
8.64223
8.8132
8.97988
9.14701
9.30136
-7.55399
-7.55404
-7.55421
-7.55452
-7.55487
-7.55495
-7.55486
-7.55525
-7.557
-7.56064
-7.56614
-7.57316
-7.58123
-7.58976
-7.59821
-7.60608
-7.61302
-7.61873
-7.62306
-7.6259
-7.62717
-7.6268
-7.6249
-7.62164
-7.61723
-7.61191
-7.606
-7.59986
-7.59387
-7.58838
-7.58371
-7.58009
-7.5777
-7.57648
-7.576
-7.5757
-7.57514
-7.57419
-7.57282
-7.57137
-7.57065
-7.57149
-7.5741
-7.57766
-7.58076
-7.58226
-7.58165
-7.57805
-7.57248
-7.56789
-7.56803
-7.57194
-7.57483
-7.5806
-7.59499
-7.61605
-7.63995
-7.66706
-7.70127
-7.74516
-7.79894
-7.86133
-7.93019
-8.00294
-8.07699
-8.15013
-8.22061
-8.28717
-8.34898
-8.40551
-8.45649
-8.5018
-8.54144
-8.57547
-8.60399
-8.6271
-8.64491
-8.65751
-8.66496
-8.66733
-8.66466
-8.65696
-8.64426
-8.62654
-8.6038
-8.57603
-8.54319
-8.50527
-8.46222
-8.414
-8.36058
-8.30191
-8.23794
-8.16863
-8.09393
-8.01381
-7.92822
-7.83711
-7.74041
-7.63799
-7.52988
-7.41617
-7.2969
-7.17201
-7.04149
-6.90534
-6.76358
-6.61623
-6.46334
-6.30493
-6.14108
-5.97184
-5.7973
-5.61753
-5.43263
-5.2427
-5.04787
-4.84826
-4.644
-4.43523
-4.22211
-4.00479
-3.78345
-3.55826
-3.3294
-3.09706
-2.86144
-2.62273
-2.38111
-2.13678
-1.89004
-1.64114
-1.39024
-1.13755
-0.883288
-0.627672
-0.370933
-0.113294
0.145023
0.403796
0.662807
0.921839
1.18068
1.43914
1.697
1.95408
2.21019
2.46515
2.71879
2.97094
3.22144
3.47013
3.71684
3.96142
4.20374
4.44366
4.68108
4.91588
5.14798
5.37728
5.60371
5.8272
6.04765
6.26499
6.47915
6.69004
6.8976
7.10176
7.30246
7.49962
7.6932
7.88312
8.06932
8.2517
8.43027
8.60505
8.77651
8.94343
9.11314
9.26375
-7.555
-7.55471
-7.5543
-7.55423
-7.55531
-7.55822
-7.56291
-7.56903
-7.57623
-7.58422
-7.59265
-7.60122
-7.60966
-7.6177
-7.6251
-7.63164
-7.63712
-7.6414
-7.64437
-7.64598
-7.6462
-7.64501
-7.64247
-7.63868
-7.63376
-7.62783
-7.621
-7.61345
-7.60536
-7.59703
-7.58886
-7.58133
-7.57488
-7.56973
-7.56583
-7.56289
-7.56058
-7.55881
-7.55804
-7.55917
-7.56276
-7.56823
-7.5741
-7.57874
-7.58029
-7.57847
-7.57459
-7.57051
-7.56795
-7.56767
-7.57236
-7.5838
-7.60031
-7.62097
-7.64703
-7.6787
-7.71502
-7.75489
-7.79847
-7.84632
-7.89862
-7.95507
-8.01483
-8.07671
-8.13936
-8.20142
-8.26172
-8.31926
-8.37328
-8.42325
-8.46879
-8.50967
-8.54576
-8.57699
-8.60334
-8.6248
-8.64138
-8.6531
-8.65996
-8.66196
-8.65912
-8.65141
-8.63882
-8.62133
-8.59892
-8.57155
-8.53918
-8.50179
-8.45933
-8.41176
-8.35902
-8.30107
-8.23787
-8.16935
-8.09546
-8.01617
-7.93141
-7.84115
-7.74532
-7.64389
-7.53683
-7.4242
-7.30598
-7.18216
-7.05272
-6.91766
-6.77699
-6.63075
-6.47896
-6.32167
-6.15893
-5.9908
-5.81735
-5.63868
-5.45487
-5.26602
-5.07225
-4.87368
-4.67045
-4.46269
-4.25055
-4.0342
-3.8138
-3.58951
-3.36154
-3.13005
-2.89525
-2.65733
-2.4165
-2.17295
-1.92695
-1.67869
-1.4284
-1.17628
-0.922549
-0.667429
-0.411153
-0.153938
0.103995
0.362423
0.621127
0.879889
1.1385
1.39676
1.65446
1.91141
2.16742
2.42232
2.67593
2.92808
3.1786
3.42734
3.67413
3.91881
4.16126
4.40133
4.6389
4.87388
5.10616
5.33565
5.56227
5.78594
6.00659
6.22412
6.43847
6.64955
6.85729
7.06161
7.26246
7.45976
7.65346
7.8435
8.02982
8.21237
8.39115
8.56614
8.7379
8.90465
9.07507
9.21974
-7.55715
-7.55657
-7.55603
-7.55713
-7.56159
-7.56911
-7.57843
-7.58855
-7.5988
-7.60873
-7.61812
-7.62686
-7.63492
-7.64222
-7.64864
-7.65407
-7.65839
-7.66151
-7.66335
-7.66389
-7.66309
-7.66094
-7.65748
-7.65276
-7.64685
-7.63982
-7.63176
-7.62276
-7.61295
-7.60245
-7.59144
-7.58024
-7.56935
-7.55933
-7.55074
-7.54399
-7.53943
-7.53756
-7.53914
-7.54452
-7.55235
-7.56004
-7.56576
-7.56914
-7.57027
-7.56992
-7.56948
-7.57049
-7.57525
-7.58474
-7.59976
-7.62114
-7.64848
-7.68032
-7.71532
-7.75275
-7.7923
-7.83406
-7.87837
-7.92545
-7.9753
-8.0276
-8.08175
-8.13693
-8.19228
-8.24689
-8.29993
-8.35072
-8.39867
-8.4433
-8.48425
-8.52128
-8.55419
-8.58283
-8.6071
-8.62692
-8.64224
-8.65299
-8.65916
-8.66068
-8.65753
-8.64968
-8.63707
-8.61967
-8.59743
-8.57032
-8.53829
-8.50129
-8.45928
-8.41221
-8.36002
-8.30267
-8.24009
-8.17223
-8.09904
-8.02046
-7.93645
-7.84695
-7.75192
-7.65133
-7.54515
-7.4334
-7.31606
-7.19312
-7.06457
-6.9304
-6.79064
-6.6453
-6.49442
-6.33804
-6.1762
-6.00897
-5.83643
-5.65865
-5.47572
-5.28774
-5.09484
-4.89712
-4.69472
-4.48777
-4.27643
-4.06086
-3.84121
-3.61766
-3.39039
-3.15959
-2.92545
-2.68816
-2.44793
-2.20498
-1.95954
-1.7118
-1.462
-1.21035
-0.957044
-0.702328
-0.446428
-0.189557
0.0680618
0.326206
0.584654
0.843193
1.10161
1.3597
1.61727
1.87411
2.13004
2.38488
2.63846
2.8906
3.14113
3.38991
3.63675
3.88152
4.12406
4.36424
4.60194
4.83705
5.06948
5.29912
5.52591
5.74975
5.97057
6.18827
6.40279
6.61403
6.82193
7.02641
7.22742
7.42489
7.61875
7.80894
7.99541
8.17811
8.35704
8.53208
8.70382
8.86993
9.03987
9.17796
-7.56172
-7.56065
-7.56084
-7.56556
-7.57453
-7.58554
-7.5972
-7.6087
-7.61956
-7.62962
-7.63888
-7.64734
-7.65498
-7.66171
-7.66744
-7.6721
-7.67559
-7.67785
-7.67883
-7.67851
-7.67687
-7.6739
-7.66962
-7.66406
-7.65726
-7.64924
-7.64001
-7.62964
-7.61823
-7.60589
-7.59271
-7.57891
-7.56493
-7.55148
-7.53947
-7.53011
-7.52457
-7.52375
-7.52761
-7.53401
-7.54073
-7.54666
-7.55147
-7.5555
-7.55946
-7.56446
-7.57138
-7.58144
-7.59628
-7.61652
-7.64177
-7.67134
-7.70434
-7.74024
-7.77834
-7.81821
-7.85959
-7.90245
-7.94691
-7.99297
-8.04054
-8.08935
-8.139
-8.18898
-8.23872
-8.28764
-8.33515
-8.38073
-8.42393
-8.46433
-8.5016
-8.53547
-8.56571
-8.59212
-8.61456
-8.63289
-8.64702
-8.65685
-8.6623
-8.6633
-8.65979
-8.65169
-8.63896
-8.62154
-8.59937
-8.5724
-8.54057
-8.50383
-8.46214
-8.41543
-8.36364
-8.30673
-8.24463
-8.17729
-8.10464
-8.02662
-7.9432
-7.85431
-7.75991
-7.65997
-7.55447
-7.4434
-7.32674
-7.20447
-7.0766
-6.94312
-6.80404
-6.65939
-6.5092
-6.3535
-6.19234
-6.02579
-5.85392
-5.67681
-5.49454
-5.30722
-5.11495
-4.91786
-4.71608
-4.50974
-4.29899
-4.08399
-3.8649
-3.64189
-3.41514
-3.18485
-2.95119
-2.71437
-2.47459
-2.23207
-1.98704
-1.73969
-1.49026
-1.23894
-0.985959
-0.731547
-0.475929
-0.219318
0.0380603
0.295985
0.554236
0.812598
1.07086
1.32882
1.58626
1.84301
2.09887
2.35366
2.60719
2.85931
3.10985
3.35863
3.60551
3.85031
4.0929
4.33314
4.57092
4.80612
5.03864
5.26839
5.49528
5.71924
5.94017
6.15799
6.37263
6.584
6.79202
6.99663
7.19776
7.39534
7.58932
7.77961
7.96617
8.14893
8.32786
8.50278
8.67421
8.8394
9.0086
9.14025
-7.56801
-7.56723
-7.5699
-7.57867
-7.59028
-7.6023
-7.61405
-7.62523
-7.63571
-7.64548
-7.65449
-7.66268
-7.66998
-7.67629
-7.68153
-7.68564
-7.68854
-7.69018
-7.69054
-7.68959
-7.68732
-7.68372
-7.67881
-7.67262
-7.66508
-7.65616
-7.64595
-7.63457
-7.62208
-7.60853
-7.59403
-7.57882
-7.56348
-7.54888
-7.53612
-7.52681
-7.52221
-7.52175
-7.52359
-7.52654
-7.53033
-7.53505
-7.54092
-7.54822
-7.55717
-7.56883
-7.58419
-7.60368
-7.62732
-7.65474
-7.68551
-7.71913
-7.75501
-7.79287
-7.8324
-7.87336
-7.91548
-7.95862
-8.00267
-8.04758
-8.09322
-8.13939
-8.18582
-8.23216
-8.27801
-8.32295
-8.36656
-8.40843
-8.44817
-8.48544
-8.51991
-8.55132
-8.57943
-8.60403
-8.62494
-8.64201
-8.65509
-8.66407
-8.66885
-8.66932
-8.66541
-8.65703
-8.64411
-8.62658
-8.60438
-8.57743
-8.5457
-8.5091
-8.4676
-8.42112
-8.36962
-8.31302
-8.25126
-8.18427
-8.11201
-8.03441
-7.95141
-7.86296
-7.76903
-7.66957
-7.56456
-7.45397
-7.3378
-7.21602
-7.08863
-6.95564
-6.81705
-6.67288
-6.52317
-6.36795
-6.20728
-6.04121
-5.86981
-5.69316
-5.51135
-5.32448
-5.13265
-4.936
-4.73464
-4.52872
-4.31838
-4.10377
-3.88506
-3.66243
-3.43604
-3.20609
-2.97277
-2.73627
-2.49681
-2.2546
-2.00985
-1.76277
-1.5136
-1.26252
-1.00976
-0.755565
-0.500147
-0.243725
0.0134774
0.271237
0.529338
0.787563
1.0457
1.30355
1.5609
1.81756
2.07335
2.32807
2.58156
2.83365
3.08417
3.33295
3.57982
3.82462
4.06722
4.30748
4.54528
4.78051
5.01307
5.24286
5.46981
5.69384
5.91484
6.13274
6.34744
6.55887
6.76696
6.97164
7.17284
7.37049
7.56452
7.75486
7.94144
8.12416
8.30298
8.47764
8.64863
8.81279
8.98129
9.10694
-7.57367
-7.57435
-7.58072
-7.59168
-7.60341
-7.61485
-7.62592
-7.63655
-7.64666
-7.65615
-7.66493
-7.67288
-7.67991
-7.68592
-7.69083
-7.69457
-7.69709
-7.69835
-7.69831
-7.69696
-7.69429
-7.69031
-7.68502
-7.67829
-7.67006
-7.66047
-7.64971
-7.63783
-7.62483
-7.61085
-7.59615
-7.58099
-7.56597
-7.55216
-7.541
-7.53355
-7.52901
-7.52582
-7.52384
-7.52388
-7.52658
-7.53186
-7.53966
-7.55062
-7.56529
-7.58366
-7.60552
-7.63061
-7.65887
-7.68992
-7.72344
-7.75913
-7.79666
-7.83573
-7.87608
-7.91747
-7.95972
-8.00268
-8.04623
-8.09026
-8.13461
-8.17909
-8.22346
-8.26747
-8.31082
-8.35317
-8.39418
-8.43352
-8.47087
-8.50591
-8.53836
-8.56796
-8.59447
-8.61767
-8.63737
-8.65341
-8.66562
-8.67386
-8.67803
-8.678
-8.67369
-8.66499
-8.65184
-8.63414
-8.61183
-8.58483
-8.55309
-8.51654
-8.47512
-8.42877
-8.37742
-8.32101
-8.25946
-8.19271
-8.1207
-8.04337
-7.96066
-7.87251
-7.77888
-7.67974
-7.57504
-7.46478
-7.34892
-7.22746
-7.10039
-6.96771
-6.82943
-6.68557
-6.53617
-6.38126
-6.22089
-6.05512
-5.88402
-5.70767
-5.52615
-5.33956
-5.14802
-4.95164
-4.75055
-4.54489
-4.3348
-4.12045
-3.90198
-3.67958
-3.45342
-3.22369
-2.99058
-2.75429
-2.51504
-2.27302
-2.02846
-1.78157
-1.53256
-1.28164
-1.02904
-0.774989
-0.519708
-0.263419
-0.00634365
0.251296
0.509283
0.767402
1.02544
1.28319
1.54046
1.79705
2.05277
2.30743
2.56087
2.81292
3.06341
3.31216
3.559
3.80377
4.04634
4.28657
4.52435
4.75957
4.99213
5.22194
5.44892
5.67297
5.894
6.11192
6.32664
6.5381
6.74621
6.95092
7.15214
7.34982
7.54388
7.73422
7.92076
8.1034
8.28205
8.45638
8.62685
8.78997
8.95785
9.07809
-7.57693
-7.57977
-7.58886
-7.59989
-7.61077
-7.62147
-7.63199
-7.64223
-7.65206
-7.66134
-7.66996
-7.67776
-7.68465
-7.69051
-7.69527
-7.69885
-7.7012
-7.70229
-7.70208
-7.70056
-7.69773
-7.69359
-7.68802
-7.68088
-7.67234
-7.66262
-7.65184
-7.64004
-7.62726
-7.61367
-7.59961
-7.58562
-7.5725
-7.56108
-7.55188
-7.54446
-7.53771
-7.53183
-7.52793
-7.52686
-7.52939
-7.53606
-7.54686
-7.56161
-7.58
-7.60176
-7.62671
-7.65457
-7.68512
-7.71805
-7.75308
-7.78995
-7.82838
-7.86812
-7.90893
-7.95061
-7.99299
-8.03593
-8.07926
-8.12284
-8.16648
-8.21002
-8.25325
-8.29592
-8.33779
-8.37858
-8.418
-8.45576
-8.49158
-8.52518
-8.55628
-8.58463
-8.61
-8.63218
-8.65097
-8.66621
-8.67771
-8.68534
-8.68896
-8.68848
-8.68377
-8.67475
-8.66133
-8.64342
-8.62094
-8.59382
-8.56199
-8.5254
-8.48398
-8.43766
-8.38638
-8.33005
-8.26861
-8.20199
-8.13011
-8.05293
-7.97038
-7.8824
-7.78894
-7.68996
-7.58544
-7.47534
-7.35966
-7.23837
-7.11146
-6.97895
-6.84083
-6.69714
-6.5479
-6.39316
-6.23295
-6.06734
-5.8964
-5.7202
-5.53884
-5.3524
-5.16101
-4.96478
-4.76383
-4.55831
-4.34836
-4.13414
-3.91581
-3.69353
-3.46749
-3.23789
-3.00489
-2.76873
-2.5296
-2.2877
-2.04325
-1.79647
-1.54757
-1.29675
-1.04424
-0.79029
-0.535106
-0.278911
-0.0219303
0.235619
0.493515
0.751547
1.0095
1.26717
1.52436
1.78087
2.03652
2.29111
2.54449
2.79648
3.04693
3.29563
3.54241
3.78712
4.02963
4.26981
4.50754
4.74271
4.97524
5.20502
5.43199
5.65604
5.87706
6.09497
6.30968
6.52112
6.72923
6.93392
7.13515
7.33283
7.52688
7.71719
7.90366
8.08618
8.26462
8.43858
8.60851
8.77064
8.93794
9.05346
-7.57642
-7.58126
-7.5909
-7.60109
-7.61128
-7.62151
-7.6317
-7.64172
-7.65143
-7.66066
-7.66927
-7.6771
-7.68403
-7.68996
-7.6948
-7.69847
-7.70092
-7.70209
-7.70196
-7.70051
-7.69772
-7.69354
-7.68785
-7.68073
-7.67239
-7.66296
-7.65254
-7.64119
-7.62908
-7.61656
-7.60401
-7.59203
-7.58108
-7.57104
-7.56172
-7.55297
-7.54481
-7.53807
-7.53403
-7.53361
-7.5374
-7.54551
-7.55767
-7.57372
-7.59345
-7.6166
-7.64292
-7.67209
-7.70378
-7.7377
-7.77356
-7.81112
-7.85014
-7.89038
-7.93163
-7.9737
-8.01641
-8.05957
-8.10302
-8.14657
-8.19007
-8.23331
-8.2761
-8.31821
-8.3594
-8.39944
-8.43806
-8.475
-8.51
-8.54277
-8.57307
-8.60063
-8.62524
-8.6467
-8.66482
-8.67941
-8.69033
-8.69744
-8.7006
-8.6997
-8.69464
-8.68531
-8.67162
-8.65348
-8.63079
-8.6035
-8.57153
-8.53483
-8.49334
-8.44699
-8.39569
-8.33937
-8.27795
-8.21135
-8.13952
-8.06238
-7.97987
-7.89194
-7.79853
-7.6996
-7.59513
-7.48509
-7.36945
-7.24822
-7.12136
-6.9889
-6.85084
-6.70719
-6.558
-6.40331
-6.24316
-6.0776
-5.90671
-5.73057
-5.54925
-5.36287
-5.17152
-4.97534
-4.77445
-4.56898
-4.35909
-4.14491
-3.92663
-3.7044
-3.47842
-3.24886
-3.01592
-2.77982
-2.54075
-2.29891
-2.05453
-1.80781
-1.55897
-1.30821
-1.05577
-0.801883
-0.546768
-0.290646
-0.0337401
0.223732
0.481549
0.7395
0.99737
1.25496
1.51206
1.76848
2.02404
2.27855
2.53185
2.78378
3.03417
3.28281
3.5295
3.77413
4.01654
4.25663
4.49428
4.72938
4.96184
5.19157
5.4185
5.64253
5.86352
6.08138
6.29605
6.50745
6.71551
6.92018
7.12138
7.31905
7.51307
7.70332
7.8897
8.07206
8.25025
8.42382
8.5932
8.75439
8.92115
9.03266
-7.56949
-7.57542
-7.58448
-7.59413
-7.60413
-7.61426
-7.62442
-7.63449
-7.64432
-7.65375
-7.6626
-7.67071
-7.67796
-7.68422
-7.6894
-7.69341
-7.69618
-7.69767
-7.69783
-7.69663
-7.69405
-7.69004
-7.68459
-7.6778
-7.66986
-7.66089
-7.65103
-7.64045
-7.6295
-7.61852
-7.60757
-7.59672
-7.58608
-7.57566
-7.56559
-7.55626
-7.54822
-7.54221
-7.53905
-7.53935
-7.54357
-7.55193
-7.56438
-7.58085
-7.60114
-7.62494
-7.65192
-7.68171
-7.71398
-7.74845
-7.78487
-7.82298
-7.86255
-7.90336
-7.94518
-7.98781
-8.03106
-8.07471
-8.11861
-8.16257
-8.20639
-8.24988
-8.29281
-8.33496
-8.37609
-8.41598
-8.45438
-8.49105
-8.5257
-8.5581
-8.58798
-8.61511
-8.63926
-8.66023
-8.67787
-8.69198
-8.70244
-8.70911
-8.71187
-8.71061
-8.70522
-8.69559
-8.68163
-8.66324
-8.64033
-8.61282
-8.58066
-8.54381
-8.50221
-8.45577
-8.4044
-8.34801
-8.28653
-8.21988
-8.148
-8.07082
-7.98828
-7.90031
-7.80686
-7.70789
-7.60338
-7.4933
-7.37764
-7.25637
-7.12949
-6.99699
-6.85889
-6.71522
-6.566
-6.41129
-6.25111
-6.08554
-5.91464
-5.73847
-5.55714
-5.37074
-5.17939
-4.9832
-4.78231
-4.57684
-4.36694
-4.15278
-3.9345
-3.71228
-3.4863
-3.25676
-3.02384
-2.78777
-2.54872
-2.30692
-2.06258
-1.8159
-1.5671
-1.31639
-1.064
-0.810175
-0.555125
-0.299075
-0.0422433
0.215148
0.472882
0.730744
0.988526
1.24602
1.50303
1.75936
2.01481
2.26923
2.52243
2.77428
3.02461
3.27315
3.51974
3.76424
4.00653
4.2465
4.48404
4.71903
4.9514
5.18106
5.40795
5.63194
5.85287
6.07066
6.28526
6.49659
6.7046
6.90923
7.1104
7.30805
7.50203
7.6922
7.87847
8.06064
8.23857
8.41174
8.58058
8.74089
8.9071
9.01533
-7.55344
-7.55945
-7.56822
-7.57826
-7.58871
-7.5992
-7.60965
-7.62004
-7.63025
-7.64013
-7.64948
-7.65813
-7.66594
-7.67277
-7.6785
-7.68306
-7.68636
-7.68836
-7.689
-7.68826
-7.6861
-7.68251
-7.67753
-7.6713
-7.66399
-7.6558
-7.64689
-7.63734
-7.62725
-7.61678
-7.606
-7.59496
-7.58379
-7.5728
-7.56241
-7.55309
-7.54531
-7.53971
-7.53696
-7.53764
-7.54219
-7.55087
-7.56372
-7.58062
-7.60134
-7.62555
-7.6529
-7.68307
-7.71574
-7.75067
-7.7876
-7.8263
-7.86652
-7.90802
-7.95059
-7.994
-8.03803
-8.08248
-8.12714
-8.17182
-8.2163
-8.26037
-8.30382
-8.34641
-8.38792
-8.42811
-8.46674
-8.50354
-8.53825
-8.57062
-8.60039
-8.62732
-8.65119
-8.67184
-8.68911
-8.70282
-8.71286
-8.71911
-8.72148
-8.71986
-8.71413
-8.70421
-8.68998
-8.67135
-8.64819
-8.62042
-8.58802
-8.551
-8.50926
-8.46272
-8.41125
-8.35476
-8.29318
-8.22645
-8.15449
-8.07723
-7.9946
-7.90654
-7.813
-7.71394
-7.60935
-7.49919
-7.38345
-7.26211
-7.13515
-7.00258
-6.86441
-6.72067
-6.57139
-6.41662
-6.2564
-6.09078
-5.91984
-5.74363
-5.56226
-5.37583
-5.18445
-4.98824
-4.78732
-4.58184
-4.37194
-4.15776
-3.93948
-3.71726
-3.4913
-3.26176
-3.02887
-2.79282
-2.55381
-2.31205
-2.06775
-1.82112
-1.57237
-1.32171
-1.06939
-0.815633
-0.560657
-0.304685
-0.0479384
0.209363
0.467003
0.724766
0.982444
1.23983
1.49673
1.75294
2.00828
2.26258
2.51566
2.76745
3.01773
3.26617
3.51261
3.75696
3.9991
4.23892
4.47632
4.7112
4.94345
5.17301
5.39985
5.62381
5.84466
6.06236
6.27687
6.48812
6.69607
6.90064
7.10177
7.2994
7.49334
7.68343
7.86957
8.05155
8.22921
8.40198
8.5703
8.72979
8.89542
9.00108
-7.52699
-7.53253
-7.54198
-7.55332
-7.56477
-7.57585
-7.58675
-7.59765
-7.60852
-7.61917
-7.62934
-7.63884
-7.64746
-7.65507
-7.66155
-7.66683
-7.67085
-7.67354
-7.67485
-7.67477
-7.67328
-7.67042
-7.66624
-7.66084
-7.65431
-7.64679
-7.63835
-7.62909
-7.61906
-7.60834
-7.59706
-7.58543
-7.57377
-7.5624
-7.55169
-7.54213
-7.53431
-7.52889
-7.52649
-7.52767
-7.5328
-7.54206
-7.55543
-7.57277
-7.59383
-7.61833
-7.64597
-7.67648
-7.70959
-7.74507
-7.78264
-7.82204
-7.86302
-7.90534
-7.94877
-7.99306
-8.03801
-8.0834
-8.12904
-8.17468
-8.22008
-8.26501
-8.30925
-8.35258
-8.39477
-8.43556
-8.4747
-8.51193
-8.54697
-8.57954
-8.60933
-8.63612
-8.65971
-8.67999
-8.69685
-8.71009
-8.71962
-8.7254
-8.72735
-8.72538
-8.71937
-8.70924
-8.69484
-8.67602
-8.65265
-8.62456
-8.59184
-8.55465
-8.51284
-8.46624
-8.4147
-8.35812
-8.29645
-8.22963
-8.1576
-8.08028
-7.99757
-7.90942
-7.81577
-7.71662
-7.61193
-7.5017
-7.38589
-7.26448
-7.13745
-7.0048
-6.86656
-6.72277
-6.57345
-6.41864
-6.25839
-6.09275
-5.92178
-5.74555
-5.56417
-5.37773
-5.18634
-4.99014
-4.78924
-4.58378
-4.37391
-4.15976
-3.9415
-3.71932
-3.4934
-3.26391
-3.03107
-2.79508
-2.55614
-2.31446
-2.07025
-1.8237
-1.57503
-1.32446
-1.07225
-0.818595
-0.563734
-0.307882
-0.0512617
0.20591
0.463413
0.721037
0.978572
1.23581
1.49256
1.74862
2.0038
2.25794
2.51089
2.76264
3.01294
3.26131
3.50757
3.75173
3.9937
4.23336
4.47062
4.70535
4.93749
5.16696
5.39379
5.61774
5.8385
6.05609
6.2705
6.48167
6.68954
6.89405
7.09516
7.29278
7.48669
7.67669
7.86268
8.04448
8.22186
8.39423
8.56205
8.72079
8.8858
8.98958
-7.49053
-7.49615
-7.50711
-7.52035
-7.533
-7.5447
-7.55619
-7.56797
-7.57995
-7.59175
-7.60303
-7.61355
-7.62315
-7.63169
-7.63905
-7.6452
-7.65008
-7.65363
-7.65581
-7.65659
-7.65596
-7.65393
-7.65053
-7.6458
-7.6398
-7.63258
-7.62421
-7.61475
-7.60431
-7.59304
-7.58116
-7.56892
-7.55661
-7.5446
-7.53341
-7.52361
-7.51584
-7.51074
-7.50888
-7.51069
-7.51646
-7.52628
-7.5401
-7.55777
-7.57908
-7.60381
-7.63171
-7.66255
-7.69609
-7.73207
-7.77023
-7.81033
-7.85212
-7.89534
-7.93973
-7.98503
-8.03102
-8.0775
-8.12423
-8.17094
-8.21738
-8.26332
-8.30851
-8.3527
-8.39566
-8.4371
-8.47676
-8.51438
-8.54966
-8.5823
-8.61198
-8.63847
-8.66168
-8.68154
-8.69792
-8.71051
-8.71928
-8.72445
-8.72603
-8.72388
-8.71784
-8.70778
-8.6935
-8.67476
-8.65134
-8.62292
-8.58983
-8.55254
-8.51078
-8.4642
-8.41261
-8.35592
-8.29414
-8.22724
-8.15515
-8.07777
-7.99498
-7.9067
-7.81292
-7.71363
-7.60884
-7.49853
-7.38265
-7.26117
-7.13407
-7.00134
-6.86303
-6.71918
-6.56982
-6.415
-6.25475
-6.0891
-5.91813
-5.7419
-5.56052
-5.37411
-5.18276
-4.98661
-4.78577
-4.58039
-4.37059
-4.15652
-3.93836
-3.71628
-3.49046
-3.2611
-3.0284
-2.79256
-2.55379
-2.31228
-2.06824
-1.82187
-1.57339
-1.32304
-1.07104
-0.817623
-0.563002
-0.3074
-0.0510399
0.205862
0.463089
0.720428
0.977671
1.23461
1.49105
1.7468
2.00166
2.25547
2.50809
2.75964
3.00986
3.25806
3.50408
3.74801
3.98978
4.22925
4.46634
4.70092
4.93292
5.16229
5.38921
5.61326
5.83395
6.05143
6.26573
6.47682
6.68463
6.88911
7.09023
7.28791
7.4818
7.67171
7.85756
8.03917
8.21628
8.38829
8.55563
8.71367
8.87801
8.98056
-7.44694
-7.45353
-7.46665
-7.48215
-7.4962
-7.50877
-7.52084
-7.53332
-7.54641
-7.55955
-7.57226
-7.58419
-7.5951
-7.60468
-7.61288
-7.61986
-7.62566
-7.63018
-7.63335
-7.63508
-7.63535
-7.63412
-7.63138
-7.62712
-7.62137
-7.61416
-7.60557
-7.59568
-7.58465
-7.57265
-7.55992
-7.54678
-7.53365
-7.52102
-7.50944
-7.49954
-7.49193
-7.48718
-7.48575
-7.48799
-7.4941
-7.50413
-7.51805
-7.53576
-7.55711
-7.58191
-7.60994
-7.64099
-7.67481
-7.71118
-7.74986
-7.79061
-7.83319
-7.87734
-7.92279
-7.96928
-8.01652
-8.06422
-8.11207
-8.15981
-8.2072
-8.25399
-8.29993
-8.34477
-8.38826
-8.43011
-8.47006
-8.50783
-8.5431
-8.57552
-8.60467
-8.6304
-8.65284
-8.67209
-8.68788
-8.69951
-8.70699
-8.71113
-8.71222
-8.71003
-8.70433
-8.69482
-8.68113
-8.66296
-8.64015
-8.61272
-8.5807
-8.54405
-8.50258
-8.4561
-8.40449
-8.34772
-8.28583
-8.21881
-8.14658
-8.06904
-7.98607
-7.89757
-7.80357
-7.70407
-7.59908
-7.48858
-7.37253
-7.25088
-7.1236
-6.99071
-6.85225
-6.70827
-6.55881
-6.40389
-6.24356
-6.07786
-5.90683
-5.73055
-5.54915
-5.36273
-5.17139
-4.97526
-4.77446
-4.56913
-4.3594
-4.14541
-3.92734
-3.70536
-3.47967
-3.25045
-3.01791
-2.78224
-2.54366
-2.30236
-2.05853
-1.81238
-1.56414
-1.31407
-1.06236
-0.809238
-0.554932
-0.299663
-0.0436496
0.212888
0.469737
0.726682
0.983514
1.24003
1.49602
1.75129
2.00565
2.2589
2.51087
2.7614
3.01039
3.25772
3.50323
3.74675
3.98813
4.22727
4.46402
4.69829
4.92998
5.15907
5.38592
5.61
5.83056
6.0479
6.26211
6.47312
6.68089
6.88535
7.08654
7.2844
7.47837
7.66821
7.85394
8.03537
8.21225
8.38391
8.55082
8.70821
8.87184
8.9738
-7.40078
-7.40874
-7.42464
-7.44252
-7.45707
-7.46976
-7.4829
-7.49689
-7.51128
-7.52562
-7.53953
-7.55276
-7.56502
-7.57582
-7.58502
-7.59295
-7.5998
-7.60541
-7.60966
-7.61242
-7.6136
-7.61312
-7.61094
-7.60701
-7.60134
-7.59396
-7.58494
-7.57438
-7.56247
-7.54945
-7.53565
-7.52148
-7.50743
-7.49404
-7.48191
-7.47164
-7.4638
-7.45889
-7.45731
-7.45936
-7.46518
-7.47488
-7.48846
-7.50586
-7.52697
-7.55161
-7.57962
-7.61079
-7.6449
-7.68173
-7.72101
-7.76249
-7.80592
-7.851
-7.89744
-7.94496
-7.99325
-8.04196
-8.09075
-8.13935
-8.18749
-8.23492
-8.28138
-8.32661
-8.37036
-8.41237
-8.4524
-8.49016
-8.5253
-8.5573
-8.58535
-8.60924
-8.62965
-8.64746
-8.66288
-8.67528
-8.68406
-8.689
-8.69026
-8.68816
-8.68267
-8.67344
-8.66009
-8.64225
-8.61995
-8.59352
-8.56262
-8.52657
-8.48536
-8.43902
-8.38748
-8.33076
-8.26889
-8.20183
-8.12953