/*--------------------------------*- C++ -*----------------------------------*\
| =========                 |                                                 |
| \\      /  F ield         | OpenFOAM: The Open Source CFD Toolbox           |
|  \\    /   O peration     | Version:  v2012                                 |
|   \\  /    A nd           | Website:  www.openfoam.com                      |
|    \\/     M anipulation  |                                                 |
\*---------------------------------------------------------------------------*/
FoamFile
{
    version     2.0;
    format      ascii;
    class       surfaceScalarField;
    location    "1500";
    object      phi;
}
// * * * * * * * * * * * * * * * * * * * * * * * * * * * * * * * * * * * * * //

dimensions      [0 3 -1 0 0 0 0];
oriented        oriented;


internalField   nonuniform List<scalar> 
24170
(
2.99964e-06
1.34267e-07
2.85629e-06
1.43351e-07
2.72742e-06
1.28872e-07
2.61161e-06
1.15818e-07
2.50813e-06
1.03488e-07
2.41712e-06
9.10124e-08
2.33811e-06
7.90206e-08
2.26998e-06
6.8132e-08
2.21117e-06
5.88088e-08
2.16007e-06
5.11012e-08
2.11561e-06
4.44585e-08
2.07705e-06
3.85612e-08
2.04384e-06
3.32199e-08
2.01557e-06
2.82714e-08
1.99207e-06
2.3493e-08
1.97369e-06
1.83864e-08
1.96135e-06
1.23565e-08
1.69904e-10
1.9612e-06
3.51588e-06
7.48243e-08
3.54788e-06
1.11312e-07
3.5638e-06
1.12924e-07
3.56676e-06
1.12843e-07
3.55951e-06
1.10727e-07
3.54495e-06
1.05566e-07
3.5254e-06
9.85756e-08
3.50253e-06
9.0993e-08
3.4779e-06
8.34389e-08
3.45278e-06
7.62164e-08
3.42783e-06
6.94088e-08
3.40345e-06
6.29387e-08
3.37993e-06
5.67307e-08
3.35753e-06
5.06694e-08
3.33646e-06
4.45623e-08
3.31695e-06
3.79042e-08
3.29906e-06
3.02623e-08
1.9535e-08
3.27969e-06
3.83293e-06
5.40969e-08
3.85101e-06
9.3228e-08
3.86585e-06
9.80918e-08
3.87878e-06
9.99167e-08
3.88936e-06
1.00145e-07
3.89747e-06
9.74594e-08
3.90324e-06
9.28129e-08
3.90686e-06
8.73763e-08
3.90862e-06
8.16783e-08
3.90888e-06
7.59568e-08
3.90796e-06
7.03188e-08
3.90615e-06
6.47568e-08
3.90364e-06
5.92351e-08
3.90064e-06
5.36664e-08
3.89731e-06
4.78973e-08
3.89366e-06
4.15544e-08
3.88943e-06
3.45061e-08
2.59627e-08
3.883e-06
4.21656e-06
4.2094e-08
4.22932e-06
8.04495e-08
4.23941e-06
8.79957e-08
4.24844e-06
9.08744e-08
4.25664e-06
9.19372e-08
4.2639e-06
9.01927e-08
4.27026e-06
8.64523e-08
4.27579e-06
8.18386e-08
4.28056e-06
7.68949e-08
4.28467e-06
7.18417e-08
4.28823e-06
6.67607e-08
4.29131e-06
6.16701e-08
4.29401e-06
5.6539e-08
4.29637e-06
5.13018e-08
4.29842e-06
4.5839e-08
4.30004e-06
3.99373e-08
4.30099e-06
3.35667e-08
2.65745e-08
4.30038e-06
4.646e-06
3.34005e-08
4.65705e-06
6.94076e-08
4.66579e-06
7.92531e-08
4.67357e-06
8.30952e-08
4.68078e-06
8.47303e-08
4.68733e-06
8.36514e-08
4.69321e-06
8.05724e-08
4.69852e-06
7.65272e-08
4.70334e-06
7.20743e-08
4.70775e-06
6.74351e-08
4.7118e-06
6.27019e-08
4.71557e-06
5.79066e-08
4.71907e-06
5.30359e-08
4.72233e-06
4.80426e-08
4.72532e-06
4.28523e-08
4.72789e-06
3.73622e-08
4.72986e-06
3.16019e-08
2.5669e-08
4.73076e-06
5.12133e-06
2.66705e-08
5.13126e-06
5.94824e-08
5.13952e-06
7.09916e-08
5.14699e-06
7.56259e-08
5.154e-06
7.77171e-08
5.16043e-06
7.72192e-08
5.16626e-06
7.47377e-08
5.17158e-06
7.12041e-08
5.17647e-06
6.71799e-08
5.18101e-06
6.28947e-08
5.18525e-06
5.84604e-08
5.18923e-06
5.39227e-08
5.19297e-06
4.9292e-08
5.19647e-06
4.45433e-08
5.19967e-06
3.96465e-08
5.20247e-06
3.45705e-08
5.20468e-06
2.93843e-08
2.42573e-08
5.20609e-06
5.64629e-06
2.13892e-08
5.65523e-06
5.05514e-08
5.66322e-06
6.29992e-08
5.6706e-06
6.82504e-08
5.67764e-06
7.06866e-08
5.68417e-06
7.06864e-08
5.69016e-06
6.87505e-08
5.69566e-06
6.57012e-08
5.70075e-06
6.20872e-08
5.7055e-06
5.81489e-08
5.70995e-06
5.40124e-08
5.71413e-06
4.97408e-08
5.71805e-06
4.5367e-08
5.7217e-06
4.08919e-08
5.72503e-06
3.63209e-08
5.72793e-06
3.16681e-08
5.7303e-06
2.70211e-08
2.25364e-08
5.73202e-06
4.40922e-06
1.82811e-08
4.41502e-06
4.47665e-08
4.42068e-06
5.73475e-08
4.42597e-06
6.29661e-08
4.43104e-06
6.56192e-08
4.43582e-06
6.59028e-08
4.44026e-06
6.43105e-08
4.44437e-06
6.15927e-08
4.44819e-06
5.82681e-08
4.45175e-06
5.45807e-08
4.4551e-06
5.06659e-08
4.45824e-06
4.65997e-08
4.46118e-06
4.24287e-08
4.4639e-06
3.81718e-08
4.46636e-06
3.38534e-08
4.46852e-06
2.95091e-08
4.47032e-06
2.52267e-08
2.11461e-08
4.4717e-06
5.14271e-06
1.54325e-08
5.14845e-06
3.9032e-08
5.15437e-06
5.14254e-08
5.16006e-06
5.72812e-08
5.16558e-06
6.00976e-08
5.17085e-06
6.06399e-08
5.17577e-06
5.9384e-08
5.18037e-06
5.70011e-08
5.18466e-06
5.39785e-08
5.18867e-06
5.05631e-08
5.19244e-06
4.68964e-08
5.19598e-06
4.30668e-08
5.19927e-06
3.91332e-08
5.20231e-06
3.51316e-08
5.20506e-06
3.11014e-08
5.20748e-06
2.7092e-08
5.20952e-06
2.3186e-08
1.9502e-08
5.21116e-06
5.99837e-06
1.28539e-08
6.00396e-06
3.34482e-08
6.01009e-06
4.53055e-08
6.01614e-06
5.1234e-08
6.0221e-06
5.41361e-08
6.02785e-06
5.4893e-08
6.03328e-06
5.39563e-08
6.03837e-06
5.19062e-08
6.04316e-06
4.91947e-08
6.04765e-06
4.60707e-08
6.05187e-06
4.26798e-08
6.05581e-06
3.91198e-08
6.05949e-06
3.54603e-08
6.06287e-06
3.17522e-08
6.06592e-06
2.8044e-08
6.06862e-06
2.43929e-08
6.07094e-06
2.0871e-08
1.75747e-08
6.07286e-06
6.99657e-06
1.0548e-08
7.00193e-06
2.80991e-08
7.00818e-06
3.90533e-08
7.01455e-06
4.48628e-08
7.02093e-06
4.77626e-08
7.02715e-06
4.86704e-08
7.03309e-06
4.80194e-08
7.0387e-06
4.62942e-08
7.04399e-06
4.39014e-08
7.04898e-06
4.10877e-08
7.05366e-06
3.8001e-08
7.05803e-06
3.47451e-08
7.06209e-06
3.13982e-08
7.06583e-06
2.80194e-08
7.06921e-06
2.46644e-08
7.07221e-06
2.139e-08
7.07482e-06
1.82571e-08
1.53417e-08
7.07705e-06
8.16107e-06
8.49375e-09
8.16612e-06
2.3046e-08
8.17242e-06
3.27602e-08
8.17906e-06
3.82253e-08
8.18581e-06
4.10158e-08
8.19248e-06
4.19938e-08
8.19893e-06
4.15761e-08
8.20507e-06
4.01559e-08
8.21088e-06
3.80856e-08
8.21637e-06
3.55993e-08
8.22153e-06
3.28454e-08
8.22634e-06
2.9929e-08
8.23081e-06
2.6931e-08
8.23491e-06
2.39167e-08
8.23864e-06
2.09418e-08
8.24197e-06
1.80598e-08
8.2449e-06
1.532e-08
1.27808e-08
8.24746e-06
9.51957e-06
6.65682e-09
9.5243e-06
1.83114e-08
9.53055e-06
2.65149e-08
9.53739e-06
3.13888e-08
9.54446e-06
3.39408e-08
9.55156e-06
3.48959e-08
9.5585e-06
3.464e-08
9.56516e-06
3.3491e-08
9.57151e-06
3.1737e-08
9.57752e-06
2.9591e-08
9.58317e-06
2.71941e-08
9.58845e-06
2.46486e-08
9.59335e-06
2.20339e-08
9.59785e-06
1.94142e-08
9.60195e-06
1.6843e-08
9.60564e-06
1.43672e-08
9.60894e-06
1.20256e-08
9.86271e-09
9.61186e-06
1.11044e-05
4.9935e-09
1.11088e-05
1.38775e-08
1.11149e-05
2.0379e-08
1.11219e-05
2.44197e-08
1.11293e-05
2.65831e-08
1.11368e-05
2.74102e-08
1.11442e-05
2.72341e-08
1.11513e-05
2.63054e-08
1.11582e-05
2.48503e-08
1.11648e-05
2.30473e-08
1.11709e-05
2.10242e-08
1.11767e-05
1.8874e-08
1.11821e-05
1.66696e-08
1.1187e-05
1.44693e-08
1.11916e-05
1.23209e-08
1.11957e-05
1.02636e-08
1.11994e-05
8.3265e-09
6.5441e-09
1.12027e-05
1.29532e-05
3.45832e-09
1.29574e-05
9.68726e-09
1.29634e-05
1.4363e-08
1.29704e-05
1.73565e-08
1.2978e-05
1.8969e-08
1.29859e-05
1.95561e-08
1.29938e-05
1.93709e-08
1.30015e-05
1.8602e-08
1.30089e-05
1.74152e-08
1.3016e-05
1.59483e-08
1.30227e-05
1.4306e-08
1.3029e-05
1.25665e-08
1.30349e-05
1.07908e-08
1.30403e-05
9.02809e-09
1.30454e-05
7.31705e-09
1.30499e-05
5.68845e-09
1.30541e-05
4.16352e-09
2.76817e-09
1.30579e-05
1.51099e-05
2.00007e-09
1.5114e-05
5.639e-09
1.51199e-05
8.39967e-09
1.51271e-05
1.01683e-08
1.5135e-05
1.10737e-08
1.51433e-05
1.13065e-08
1.51516e-05
1.10252e-08
1.51598e-05
1.03531e-08
1.51679e-05
9.3978e-09
1.51756e-05
8.25205e-09
1.51829e-05
6.9899e-09
1.51898e-05
5.66869e-09
1.51962e-05
4.33364e-09
1.52022e-05
3.0208e-09
1.52078e-05
1.7584e-09
1.52129e-05
5.68232e-10
1.52176e-05
-5.35602e-10
-1.53426e-09
1.52219e-05
1.76259e-05
5.53606e-10
1.763e-05
1.56422e-09
1.76361e-05
2.30336e-09
1.76435e-05
2.69585e-09
1.76519e-05
2.75598e-09
1.76606e-05
2.53304e-09
1.76696e-05
2.08123e-09
1.76785e-05
1.45344e-09
1.76872e-05
6.98626e-10
1.76956e-05
-1.38994e-10
1.77036e-05
-1.02153e-09
1.77112e-05
-1.91768e-09
1.77183e-05
-2.80167e-09
1.7725e-05
-3.6527e-09
1.77312e-05
-4.45452e-09
1.77369e-05
-5.19455e-09
1.77423e-05
-5.8656e-09
-6.45497e-09
1.77472e-05
1.78276e-05
-8.05697e-10
1.78314e-05
-2.2892e-09
1.78372e-05
-3.47401e-09
1.78443e-05
-4.40756e-09
1.78522e-05
-5.17026e-09
1.78606e-05
-5.84795e-09
1.78692e-05
-6.48202e-09
1.78777e-05
-7.0872e-09
1.78861e-05
-7.66881e-09
1.78942e-05
-8.22887e-09
1.79019e-05
-8.76524e-09
1.79093e-05
-9.27188e-09
1.79162e-05
-9.74243e-09
1.79227e-05
-1.01706e-08
1.79288e-05
-1.05511e-08
1.79345e-05
-1.08798e-08
1.79398e-05
-1.11548e-08
-1.13688e-08
1.79447e-05
1.58826e-05
-2.06786e-09
1.58861e-05
-5.8346e-09
1.58914e-05
-8.72428e-09
1.58978e-05
-1.0775e-08
1.59048e-05
-1.22064e-08
1.59122e-05
-1.32411e-08
1.59197e-05
-1.40058e-08
1.59272e-05
-1.45681e-08
1.59345e-05
-1.49824e-08
1.59416e-05
-1.52918e-08
1.59483e-05
-1.55235e-08
1.59548e-05
-1.56931e-08
1.59608e-05
-1.58095e-08
1.59665e-05
-1.58786e-08
1.59719e-05
-1.59039e-08
1.59769e-05
-1.58872e-08
1.59816e-05
-1.58308e-08
-1.57303e-08
1.59859e-05
1.41499e-05
-3.3504e-09
1.41535e-05
-9.38649e-09
1.41586e-05
-1.3834e-08
1.41646e-05
-1.67996e-08
1.41712e-05
-1.873e-08
1.41779e-05
-2.00132e-08
1.41848e-05
-2.08363e-08
1.41915e-05
-2.13099e-08
1.41981e-05
-2.15361e-08
1.42044e-05
-2.1596e-08
1.42104e-05
-2.15399e-08
1.42161e-05
-2.13997e-08
1.42215e-05
-2.11968e-08
1.42265e-05
-2.09472e-08
1.42313e-05
-2.06608e-08
1.42357e-05
-2.0344e-08
1.42399e-05
-2.00013e-08
-1.96306e-08
1.42438e-05
1.26064e-05
-4.76092e-09
1.26102e-05
-1.31847e-08
1.26155e-05
-1.90524e-08
1.26213e-05
-2.26964e-08
1.26276e-05
-2.49522e-08
1.26339e-05
-2.63737e-08
1.26403e-05
-2.71722e-08
1.26464e-05
-2.75002e-08
1.26524e-05
-2.75091e-08
1.26581e-05
-2.73096e-08
1.26636e-05
-2.69705e-08
1.26687e-05
-2.6534e-08
1.26735e-05
-2.60342e-08
1.26781e-05
-2.54926e-08
1.26823e-05
-2.49258e-08
1.26863e-05
-2.43414e-08
1.26901e-05
-2.37466e-08
-2.31393e-08
1.26936e-05
1.12315e-05
-6.4135e-09
1.12357e-05
-1.74549e-08
1.12412e-05
-2.45341e-08
1.12471e-05
-2.85661e-08
1.12531e-05
-3.09822e-08
1.12592e-05
-3.24385e-08
1.12651e-05
-3.31313e-08
1.12709e-05
-3.32531e-08
1.12764e-05
-3.3012e-08
1.12816e-05
-3.25446e-08
1.12865e-05
-3.19226e-08
1.12912e-05
-3.12009e-08
1.12956e-05
-3.04176e-08
1.12997e-05
-2.9605e-08
1.13036e-05
-2.87798e-08
1.13072e-05
-2.79549e-08
1.13106e-05
-2.71348e-08
-2.6319e-08
1.13137e-05
1.00067e-05
-8.4746e-09
1.00116e-05
-2.24002e-08
1.00174e-05
-3.03568e-08
1.00233e-05
-3.44524e-08
1.00292e-05
-3.68779e-08
1.0035e-05
-3.82733e-08
1.00407e-05
-3.87722e-08
1.00461e-05
-3.86423e-08
1.00512e-05
-3.81354e-08
1.0056e-05
-3.73906e-08
1.00606e-05
-3.64885e-08
1.00649e-05
-3.54854e-08
1.00689e-05
-3.44329e-08
1.00726e-05
-3.33629e-08
1.00762e-05
-3.22992e-08
1.00795e-05
-3.12524e-08
1.00825e-05
-3.02297e-08
-2.92266e-08
1.00855e-05
8.9158e-06
-1.11844e-08
8.9216e-06
-2.81979e-08
8.92775e-06
-3.65095e-08
8.93364e-06
-4.03391e-08
8.93944e-06
-4.26924e-08
8.9451e-06
-4.39358e-08
8.9505e-06
-4.41732e-08
8.9556e-06
-4.37504e-08
8.96043e-06
-4.29604e-08
8.96498e-06
-4.1941e-08
8.96925e-06
-4.07587e-08
8.97324e-06
-3.94825e-08
8.97697e-06
-3.81638e-08
8.98045e-06
-3.68461e-08
8.98371e-06
-3.55528e-08
8.98675e-06
-3.42995e-08
8.98961e-06
-3.30897e-08
-3.19177e-08
8.9923e-06
7.94434e-06
-1.48546e-08
7.95113e-06
-3.49997e-08
7.95759e-06
-4.29746e-08
7.96354e-06
-4.62994e-08
7.96936e-06
-4.85152e-08
7.97495e-06
-4.95289e-08
7.98021e-06
-4.94349e-08
7.98516e-06
-4.86983e-08
7.98982e-06
-4.76195e-08
7.99419e-06
-4.63111e-08
7.99827e-06
-4.48426e-08
8.00207e-06
-4.32828e-08
8.0056e-06
-4.16956e-08
8.00888e-06
-4.0126e-08
8.01194e-06
-3.86052e-08
8.01479e-06
-3.71484e-08
8.01746e-06
-3.57603e-08
-3.44216e-08
8.01996e-06
7.07933e-06
-1.986e-08
7.08735e-06
-4.30159e-08
7.09427e-06
-4.98903e-08
7.10054e-06
-5.25672e-08
7.10661e-06
-5.45869e-08
7.11234e-06
-5.52664e-08
7.11769e-06
-5.4779e-08
7.12267e-06
-5.36854e-08
7.12734e-06
-5.22833e-08
7.13169e-06
-5.06609e-08
7.13573e-06
-4.88766e-08
7.13945e-06
-4.70086e-08
7.14288e-06
-4.51261e-08
7.14604e-06
-4.32814e-08
7.14895e-06
-4.15142e-08
7.15165e-06
-3.98436e-08
7.15416e-06
-3.82766e-08
-3.67859e-08
7.15653e-06
6.30972e-06
-2.70658e-08
6.31954e-06
-5.28499e-08
6.32764e-06
-5.79778e-08
6.33504e-06
-5.99726e-08
6.34201e-06
-6.15542e-08
6.34842e-06
-6.16755e-08
6.35428e-06
-6.06371e-08
6.35968e-06
-5.90797e-08
6.36466e-06
-5.7261e-08
6.36923e-06
-5.52275e-08
6.37339e-06
-5.30402e-08
6.37716e-06
-5.07788e-08
6.38056e-06
-4.85208e-08
6.38361e-06
-4.63294e-08
6.38635e-06
-4.42483e-08
6.38881e-06
-4.23116e-08
6.39106e-06
-4.05213e-08
-3.88197e-08
6.39309e-06
5.62853e-06
-4.0695e-08
5.64278e-06
-6.70895e-08
5.65463e-06
-6.98209e-08
5.66541e-06
-7.07414e-08
5.67505e-06
-7.11854e-08
5.68346e-06
-7.00889e-08
5.69078e-06
-6.79564e-08
5.69716e-06
-6.54473e-08
5.70265e-06
-6.27534e-08
5.70732e-06
-5.98879e-08
5.71119e-06
-5.69121e-08
5.71432e-06
-5.39086e-08
5.71676e-06
-5.09608e-08
5.71858e-06
-4.81437e-08
5.71985e-06
-4.55123e-08
5.72066e-06
-4.31285e-08
5.72114e-06
-4.10009e-08
-3.92523e-08
5.72158e-06
5.04639e-06
-8.47734e-08
5.07647e-06
-9.71579e-08
5.09718e-06
-9.05138e-08
5.11171e-06
-8.52656e-08
5.12079e-06
-8.02532e-08
5.12535e-06
-7.46498e-08
5.12633e-06
-6.89259e-08
5.12443e-06
-6.35421e-08
5.12018e-06
-5.85016e-08
5.11401e-06
-5.37131e-08
5.10628e-06
-4.91775e-08
5.0973e-06
-4.49289e-08
5.08735e-06
-4.10046e-08
5.07665e-06
-3.7448e-08
5.0655e-06
-3.43637e-08
5.05422e-06
-3.18407e-08
5.04304e-06
-2.98198e-08
-2.86304e-08
5.03242e-06
4.37178e-06
4.27462e-06
4.18411e-06
4.09884e-06
4.01859e-06
3.94394e-06
3.87502e-06
3.81147e-06
3.75297e-06
3.69926e-06
3.65008e-06
3.60516e-06
3.56415e-06
3.5267e-06
3.49234e-06
3.4605e-06
3.43068e-06
3.40205e-06
-1.0336e-08
1.03334e-08
-2.78259e-08
1.7488e-08
-4.73826e-08
1.95538e-08
-6.56474e-08
1.82619e-08
-7.74648e-08
1.18155e-08
-7.49533e-08
-2.51656e-09
-5.34156e-08
-2.15384e-08
-1.44249e-08
-3.89954e-08
3.73632e-08
-5.1789e-08
9.67564e-08
-5.93938e-08
1.58175e-07
-6.142e-08
2.17452e-07
-5.92735e-08
2.71836e-07
-5.43849e-08
3.19619e-07
-4.77779e-08
3.59818e-07
-4.0199e-08
3.91945e-07
-3.21214e-08
4.15729e-07
-2.37832e-08
4.30991e-07
-1.52566e-08
4.37436e-07
-6.44387e-09
4.34644e-07
2.79613e-09
4.22335e-07
1.23109e-08
4.00646e-07
2.16928e-08
3.70082e-07
3.05651e-08
3.31505e-07
3.85799e-08
2.86196e-07
4.531e-08
2.35976e-07
5.02246e-08
1.83244e-07
5.27338e-08
1.30971e-07
5.22795e-08
8.24985e-08
4.84733e-08
4.11656e-08
4.13413e-08
9.46279e-09
3.17059e-08
-1.19989e-08
2.14702e-08
-2.51705e-08
1.31762e-08
-3.29017e-08
7.73852e-09
-3.78913e-08
4.99593e-09
-4.19482e-08
4.06328e-09
-4.47431e-08
2.80236e-09
-4.26174e-08
-2.12094e-09
-3.14063e-08
-1.12032e-08
-8.69242e-09
-2.27065e-08
2.48945e-08
-3.35776e-08
6.47604e-08
-3.98525e-08
1.03895e-07
-3.91258e-08
1.36443e-07
-3.25329e-08
1.59034e-07
-2.25843e-08
1.70758e-07
-1.17102e-08
1.72386e-07
-1.62138e-09
1.67167e-07
5.2281e-09
1.60096e-07
7.07228e-09
1.5459e-07
5.50746e-09
1.55357e-07
-7.68323e-10
1.67718e-07
-1.23661e-08
1.78632e-07
-1.09133e-08
1.69723e-07
8.89711e-09
1.30054e-07
3.96765e-08
5.08052e-08
7.92272e-08
-7.03098e-08
1.21137e-07
-2.24484e-07
1.54161e-07
-3.99933e-07
1.75469e-07
-5.87222e-07
1.87289e-07
-7.78022e-07
1.90814e-07
-9.65381e-07
1.87367e-07
-1.14392e-06
1.78543e-07
-1.3101e-06
1.66199e-07
-1.46213e-06
1.52026e-07
-1.59941e-06
1.37294e-07
-1.72239e-06
1.2298e-07
-1.83205e-06
1.09672e-07
-1.92971e-06
9.76616e-08
-2.01677e-06
8.70703e-08
-2.09464e-06
7.78702e-08
-2.1646e-06
6.99639e-08
-2.2278e-06
6.32004e-08
-2.28522e-06
5.74227e-08
-2.33769e-06
5.24695e-08
-2.38588e-06
4.81998e-08
-2.43038e-06
4.44857e-08
-2.4716e-06
4.12265e-08
-2.50994e-06
3.8331e-08
-2.54567e-06
3.57297e-08
-2.57903e-06
3.33622e-08
-2.61022e-06
3.11846e-08
-2.63939e-06
2.91575e-08
-2.66664e-06
2.7253e-08
-2.6921e-06
2.54453e-08
-2.71582e-06
2.37163e-08
-2.73787e-06
2.20484e-08
-2.75831e-06
2.0429e-08
-2.77716e-06
1.88457e-08
-2.79445e-06
1.72886e-08
-2.8102e-06
1.57468e-08
-2.82442e-06
1.4211e-08
-2.83709e-06
1.26707e-08
-2.84821e-06
1.11153e-08
-2.85775e-06
9.53363e-09
-2.86567e-06
7.91473e-09
-2.87192e-06
6.24676e-09
-2.87644e-06
4.51604e-09
-2.87916e-06
2.7172e-09
-2.88006e-06
8.98857e-10
-2.87928e-06
-7.88091e-10
-2.87703e-06
-2.25208e-09
-2.87345e-06
-3.59132e-09
-2.86855e-06
-4.90194e-09
-2.86235e-06
-6.20326e-09
-2.85485e-06
-7.50413e-09
-2.84605e-06
-8.80518e-09
-2.83595e-06
-1.0107e-08
-2.82455e-06
-1.14077e-08
-2.81185e-06
-1.27075e-08
-2.79785e-06
-1.40039e-08
-2.78256e-06
-1.52969e-08
-2.76598e-06
-1.65839e-08
-2.74812e-06
-1.78652e-08
-2.72899e-06
-1.91376e-08
-2.70859e-06
-2.04018e-08
-2.68694e-06
-2.16544e-08
-2.66405e-06
-2.28961e-08
-2.63993e-06
-2.41235e-08
-2.61459e-06
-2.53375e-08
-2.58806e-06
-2.65343e-08
-2.56034e-06
-2.77149e-08
-2.53147e-06
-2.88751e-08
-2.50145e-06
-3.00153e-08
-2.47032e-06
-3.11302e-08
-2.43809e-06
-3.22176e-08
-2.40482e-06
-3.32667e-08
-2.37054e-06
-3.42772e-08
-2.33529e-06
-3.52425e-08
-2.29913e-06
-3.61487e-08
-2.26203e-06
-3.70958e-08
-2.22393e-06
-3.80883e-08
-2.1849e-06
-3.90176e-08
-2.145e-06
-3.98952e-08
-2.10425e-06
-4.07387e-08
-2.06269e-06
-4.15506e-08
-2.02036e-06
-4.23289e-08
-1.97728e-06
-4.30721e-08
-1.93349e-06
-4.37805e-08
-1.88902e-06
-4.44541e-08
-1.84392e-06
-4.50941e-08
-1.79821e-06
-4.56999e-08
-1.75192e-06
-4.62739e-08
-1.7051e-06
-4.68148e-08
-1.65777e-06
-4.73251e-08
-1.60996e-06
-4.78038e-08
-1.5617e-06
-4.82569e-08
-1.51303e-06
-4.86726e-08
-1.46397e-06
-4.90668e-08
-1.41456e-06
-4.94209e-08
-1.36482e-06
-4.97492e-08
-1.31479e-06
-5.00369e-08
-1.26449e-06
-5.02989e-08
-1.21398e-06
-5.05222e-08
-1.16325e-06
-5.07263e-08
-1.11236e-06
-5.08997e-08
-1.0613e-06
-5.10642e-08
-1.0101e-06
-5.12077e-08
-9.5875e-07
-5.13494e-08
-9.07267e-07
-5.14855e-08
-8.55655e-07
-5.16161e-08
-8.03909e-07
-5.17488e-08
-7.52039e-07
-5.1874e-08
-7.00047e-07
-5.19949e-08
-6.47939e-07
-5.21124e-08
-5.95712e-07
-5.22298e-08
-5.43364e-07
-5.23521e-08
-4.90885e-07
-5.24832e-08
-4.38264e-07
-5.26245e-08
-3.85496e-07
-5.27721e-08
-3.32586e-07
-5.29151e-08
-2.7956e-07
-5.30303e-08
-2.26482e-07
-5.30832e-08
-1.73468e-07
-5.30182e-08
-1.20732e-07
-5.27409e-08
-6.87119e-08
-5.2025e-08
-1.80345e-08
-5.06819e-08
2.96202e-08
-4.7659e-08
7.40842e-08
-4.44674e-08
-2.07198e-08
9.48004e-08
-4.00852e-09
1.43368e-08
-1.19139e-08
2.53932e-08
-1.7514e-08
2.51473e-08
-1.35405e-08
1.4283e-08
7.66449e-09
-9.39529e-09
4.6253e-08
-4.11111e-08
9.84246e-08
-7.3712e-08
1.58568e-07
-9.9141e-08
2.20745e-07
-1.13967e-07
2.80158e-07
-1.18806e-07
3.34479e-07
-1.15742e-07
3.82515e-07
-1.07308e-07
4.23882e-07
-9.57518e-08
4.587e-07
-8.25938e-08
4.87274e-07
-6.87729e-08
5.09984e-07
-5.48281e-08
5.27222e-07
-4.10206e-08
5.3942e-07
-2.74517e-08
5.47105e-07
-1.41286e-08
5.50877e-07
-9.72832e-10
5.50963e-07
1.22248e-08
5.46995e-07
2.56629e-08
5.38233e-07
3.93278e-08
5.23781e-07
5.30329e-08
5.02728e-07
6.63639e-08
4.74307e-07
7.86478e-08
4.38089e-07
8.89526e-08
3.94205e-07
9.61654e-08
3.43482e-07
9.91969e-08
2.87551e-07
9.72755e-08
2.28959e-07
9.02988e-08
1.71374e-07
7.90607e-08
1.19673e-07
6.48805e-08
7.83079e-08
4.91133e-08
5.01679e-08
3.31452e-08
3.64247e-08
1.78171e-08
3.70391e-08
2.20071e-09
4.98193e-08
-1.4894e-08
7.29788e-08
-3.43539e-08
1.04817e-07
-5.4538e-08
1.40156e-07
-6.89099e-08
1.71904e-07
-7.15907e-08
1.95648e-07
-6.28623e-08
2.09515e-07
-4.63883e-08
2.13684e-07
-2.67457e-08
2.09831e-07
-7.84524e-09
1.99392e-07
8.82528e-09
1.8549e-07
1.91401e-08
1.72082e-07
2.04841e-08
1.47999e-07
2.95924e-08
9.46167e-08
5.26122e-08
-8.78437e-09
9.10318e-08
-1.6509e-07
1.45389e-07
-3.56775e-07
2.00577e-07
-5.65753e-07
2.48654e-07
-7.77552e-07
2.91024e-07
-9.82338e-07
3.25924e-07
-1.17645e-06
3.48274e-07
-1.35682e-06
3.5584e-07
-1.51993e-06
3.50402e-07
-1.66386e-06
3.34746e-07
-1.78844e-06
3.11953e-07
-1.89495e-06
2.8506e-07
-1.98547e-06
2.56724e-07
-2.06244e-06
2.29001e-07
-2.12835e-06
2.03212e-07
-2.18543e-06
1.80062e-07
-2.23554e-06
1.59782e-07
-2.28018e-06
1.42302e-07
-2.32049e-06
1.27386e-07
-2.35733e-06
1.14718e-07
-2.39133e-06
1.0396e-07
-2.42292e-06
9.47924e-08
-2.45242e-06
8.69267e-08
-2.48006e-06
8.01169e-08
-2.50602e-06
7.41602e-08
-2.53043e-06
6.88866e-08
-2.55336e-06
6.4159e-08
-2.5749e-06
5.98661e-08
-2.59509e-06
5.59218e-08
-2.61399e-06
5.22557e-08
-2.63162e-06
4.88134e-08
-2.64802e-06
4.55498e-08
-2.6632e-06
4.24304e-08
-2.67718e-06
3.94258e-08
-2.68998e-06
3.6513e-08
-2.70161e-06
3.36723e-08
-2.71207e-06
3.08876e-08
-2.72138e-06
2.81453e-08
-2.72953e-06
2.54327e-08
-2.73653e-06
2.27403e-08
-2.74237e-06
2.00581e-08
-2.74709e-06
1.73786e-08
-2.75067e-06
1.46956e-08
-2.75314e-06
1.20053e-08
-2.75454e-06
9.30677e-09
-2.7549e-06
6.60253e-09
-2.75429e-06
3.90271e-09
-2.7528e-06
1.23185e-09
-2.75053e-06
-1.3767e-09
-2.74739e-06
-3.9315e-09
-2.74317e-06
-6.48142e-09
-2.73772e-06
-9.04426e-09
-2.73101e-06
-1.16103e-08
-2.72304e-06
-1.41794e-08
-2.7138e-06
-1.67524e-08
-2.70328e-06
-1.93286e-08
-2.69148e-06
-2.19062e-08
-2.67841e-06
-2.44835e-08
-2.66407e-06
-2.70579e-08
-2.64845e-06
-2.96273e-08
-2.63156e-06
-3.2189e-08
-2.61341e-06
-3.47405e-08
-2.594e-06
-3.72792e-08
-2.57334e-06
-3.98022e-08
-2.55144e-06
-4.23071e-08
-2.5283e-06
-4.47908e-08
-2.50395e-06
-4.7251e-08
-2.47839e-06
-4.96844e-08
-2.45164e-06
-5.20889e-08
-2.42372e-06
-5.4461e-08
-2.39463e-06
-5.67984e-08
-2.36441e-06
-5.9097e-08
-2.33307e-06
-6.13544e-08
-2.30063e-06
-6.35659e-08
-2.26712e-06
-6.57282e-08
-2.23254e-06
-6.78362e-08
-2.19693e-06
-6.98895e-08
-2.16028e-06
-7.18838e-08
-2.1226e-06
-7.382e-08
-2.08396e-06
-7.57363e-08
-2.04441e-06
-7.76274e-08
-2.00398e-06
-7.94455e-08
-1.96268e-06
-8.11883e-08
-1.92054e-06
-8.28663e-08
-1.87761e-06
-8.44817e-08
-1.8339e-06
-8.60299e-08
-1.78946e-06
-8.7509e-08
-1.74432e-06
-8.8919e-08
-1.6985e-06
-9.02606e-08
-1.65205e-06
-9.15342e-08
-1.60501e-06
-9.27405e-08
-1.55739e-06
-9.38812e-08
-1.50924e-06
-9.49568e-08
-1.4606e-06
-9.59691e-08
-1.41148e-06
-9.69192e-08
-1.36193e-06
-9.78126e-08
-1.31196e-06
-9.86403e-08
-1.26162e-06
-9.94154e-08
-1.21092e-06
-1.00124e-07
-1.1599e-06
-1.00773e-07
-1.10859e-06
-1.01353e-07
-1.05702e-06
-1.01871e-07
-1.00522e-06
-1.02324e-07
-9.53223e-07
-1.02726e-07
-9.01047e-07
-1.03078e-07
-8.48715e-07
-1.03399e-07
-7.96235e-07
-1.0369e-07
-7.4362e-07
-1.03966e-07
-6.90871e-07
-1.04236e-07
-6.37993e-07
-1.04496e-07
-5.84988e-07
-1.04756e-07
-5.31859e-07
-1.05005e-07
-4.7861e-07
-1.05246e-07
-4.25244e-07
-1.05481e-07
-3.71759e-07
-1.05716e-07
-3.18153e-07
-1.05961e-07
-2.64415e-07
-1.06223e-07
-2.10537e-07
-1.06505e-07
-1.5651e-07
-1.06801e-07
-1.02337e-07
-1.07091e-07
-4.80371e-08
-1.07333e-07
6.33809e-09
-1.07461e-07
6.07007e-08
-1.07384e-07
1.14886e-07
-1.06929e-07
1.6862e-07
-1.05762e-07
2.21366e-07
-1.0343e-07
2.7271e-07
-9.90051e-08
3.19142e-07
-9.09018e-08
-6.54613e-08
3.63882e-07
1.32913e-09
1.30046e-08
4.57405e-09
2.21483e-08
1.68977e-08
1.28181e-08
4.87917e-08
-1.76143e-08
1.01997e-07
-6.26037e-08
1.68688e-07
-1.07804e-07
2.36625e-07
-1.4165e-07
2.97658e-07
-1.60175e-07
3.48619e-07
-1.64929e-07
3.89492e-07
-1.59679e-07
4.21881e-07
-1.48132e-07
4.47647e-07
-1.33073e-07
4.68251e-07
-1.16357e-07
4.84736e-07
-9.90772e-08
4.97779e-07
-8.18167e-08
5.07814e-07
-6.48614e-08
5.15122e-07
-4.83297e-08
5.19922e-07
-3.22497e-08
5.22402e-07
-1.66096e-08
5.22803e-07
-1.37247e-09
5.21484e-07
1.35435e-08
5.1886e-07
2.82877e-08
5.15195e-07
4.29928e-08
5.10497e-07
5.77315e-08
5.04409e-07
7.24509e-08
4.96151e-07
8.69061e-08
4.84504e-07
1.00599e-07
4.67951e-07
1.12719e-07
4.44998e-07
1.2215e-07
4.14674e-07
1.276e-07
3.77133e-07
1.27841e-07
3.34172e-07
1.22024e-07
2.89178e-07
1.09876e-07
2.46469e-07
9.18247e-08
2.1062e-07
6.89976e-08
1.85669e-07
4.27714e-08
1.73714e-07
1.41595e-08
1.74431e-07
-1.56085e-08
1.85772e-07
-4.5691e-08
2.00796e-07
-6.95587e-08
2.10623e-07
-7.87336e-08
2.10329e-07
-7.12909e-08
1.99789e-07
-5.23167e-08
1.80216e-07
-2.68074e-08
1.53208e-07
2.69166e-10
1.20339e-07
2.50343e-08
7.66102e-08
5.25599e-08
9.3033e-09
8.64563e-08
-9.70517e-08
1.26842e-07
-2.46946e-07
1.79488e-07
-4.33075e-07
2.38741e-07
-6.4006e-07
2.98016e-07
-8.47819e-07
3.53147e-07
-1.0461e-06
3.98859e-07
-1.22931e-06
4.31867e-07
-1.3907e-06
4.52408e-07
-1.52529e-06
4.60511e-07
-1.63347e-06
4.56462e-07
-1.71918e-06
4.41547e-07
-1.78691e-06
4.18134e-07
-1.84122e-06
3.89059e-07
-1.88629e-06
3.57029e-07
-1.92554e-06
3.24312e-07
-1.96143e-06
2.92619e-07
-1.9955e-06
2.63077e-07
-2.02859e-06
2.36305e-07
-2.06105e-06
2.12525e-07
-2.09296e-06
1.91687e-07
-2.12423e-06
1.73578e-07
-2.15474e-06
1.57904e-07
-2.18437e-06
1.44348e-07
-2.213e-06
1.32591e-07
-2.24054e-06
1.22337e-07
-2.26695e-06
1.1333e-07
-2.29217e-06
1.05346e-07
-2.31621e-06
9.81977e-08
-2.33905e-06
9.17285e-08
-2.3607e-06
8.58091e-08
-2.38117e-06
8.0334e-08
-2.40047e-06
7.52187e-08
-2.41861e-06
7.03946e-08
-2.43561e-06
6.58063e-08
-2.45147e-06
6.14091e-08
-2.46621e-06
5.71664e-08
-2.47984e-06
5.30484e-08
-2.49236e-06
4.90303e-08
-2.50378e-06
4.50915e-08
-2.51411e-06
4.12147e-08
-2.52335e-06
3.73846e-08
-2.53151e-06
3.35891e-08
-2.53859e-06
2.98166e-08
-2.54459e-06
2.60583e-08
-2.54952e-06
2.23072e-08
-2.55339e-06
1.85583e-08
-2.55619e-06
1.48093e-08
-2.55795e-06
1.10607e-08
-2.55867e-06
7.31526e-09
-2.55834e-06
3.57921e-09
-2.55698e-06
-1.38955e-10
-2.55452e-06
-3.83897e-09
-2.55091e-06
-7.5419e-09
-2.54612e-06
-1.1273e-08
-2.54013e-06
-1.50334e-08
-2.53293e-06
-1.88127e-08
-2.52451e-06
-2.26057e-08
-2.51486e-06
-2.6409e-08
-2.50397e-06
-3.02194e-08
-2.49184e-06
-3.40337e-08
-2.47848e-06
-3.78485e-08
-2.46388e-06
-4.166e-08
-2.44805e-06
-4.54649e-08
-2.43098e-06
-4.92591e-08
-2.41269e-06
-5.30392e-08
-2.39317e-06
-5.68005e-08
-2.37244e-06
-6.05397e-08
-2.35049e-06
-6.42521e-08
-2.32735e-06
-6.79341e-08
-2.30302e-06
-7.15812e-08
-2.27752e-06
-7.51896e-08
-2.25086e-06
-7.87549e-08
-2.22305e-06
-8.22731e-08
-2.1941e-06
-8.57396e-08
-2.16405e-06
-8.91501e-08
-2.1329e-06
-9.24999e-08
-2.10068e-06
-9.57843e-08
-2.06741e-06
-9.89987e-08
-2.03311e-06
-1.0214e-07
-1.99779e-06
-1.05205e-07
-1.96147e-06
-1.08193e-07
-1.92419e-06
-1.11103e-07
-1.88597e-06
-1.1395e-07
-1.84687e-06
-1.16728e-07
-1.80689e-06
-1.19412e-07
-1.76608e-06
-1.21997e-07
-1.72445e-06
-1.24488e-07
-1.68205e-06
-1.26887e-07
-1.63888e-06
-1.29188e-07
-1.595e-06
-1.31387e-07
-1.55043e-06
-1.33484e-07
-1.50521e-06
-1.35479e-07
-1.45936e-06
-1.37374e-07
-1.41293e-06
-1.39168e-07
-1.36594e-06
-1.40863e-07
-1.31843e-06
-1.42461e-07
-1.27044e-06
-1.43964e-07
-1.22198e-06
-1.45373e-07
-1.1731e-06
-1.46694e-07
-1.12382e-06
-1.47923e-07
-1.07417e-06
-1.49069e-07
-1.02417e-06
-1.50125e-07
-9.73856e-07
-1.51089e-07
-9.23253e-07
-1.51957e-07
-8.72396e-07
-1.52729e-07
-8.21311e-07
-1.5341e-07
-7.70029e-07
-1.54009e-07
-7.18566e-07
-1.54541e-07
-6.66949e-07
-1.55018e-07
-6.15183e-07
-1.55456e-07
-5.63285e-07
-1.55865e-07
-5.11254e-07
-1.56267e-07
-4.59096e-07
-1.56654e-07
-4.06813e-07
-1.5704e-07
-3.54407e-07
-1.57412e-07
-3.01881e-07
-1.57772e-07
-2.49238e-07
-1.58125e-07
-1.96474e-07
-1.5848e-07
-1.43587e-07
-1.58849e-07
-9.0567e-08
-1.59244e-07
-3.74036e-08
-1.59669e-07
1.5912e-08
-1.60117e-07
6.93798e-08
-1.60559e-07
1.22987e-07
-1.60941e-07
1.76703e-07
-1.61177e-07
2.30453e-07
-1.61134e-07
2.84112e-07
-1.60589e-07
3.37504e-07
-1.59154e-07
3.90323e-07
-1.56249e-07
4.42202e-07
-1.50884e-07
4.92167e-07
-1.40867e-07
-1.16905e-07
5.43609e-07
-8.28382e-10
1.38309e-08
9.42976e-09
1.18904e-08
4.74886e-08
-2.52435e-08
1.14741e-07
-8.48685e-08
1.93823e-07
-1.41687e-07
2.66384e-07
-1.80366e-07
3.23062e-07
-1.98329e-07
3.62968e-07
-2.00081e-07
3.89574e-07
-1.91536e-07
4.07237e-07
-1.77342e-07
4.19476e-07
-1.60372e-07
4.28581e-07
-1.42177e-07
4.35777e-07
-1.23554e-07
4.41613e-07
-1.04913e-07
4.46267e-07
-8.64718e-08
4.49757e-07
-6.83509e-08
4.52046e-07
-5.06198e-08
4.53112e-07
-3.33161e-08
4.52961e-07
-1.64597e-08
4.51647e-07
-5.76948e-11
4.49282e-07
1.59067e-08
4.46095e-07
3.14743e-08
4.42395e-07
4.66914e-08
4.38518e-07
6.16076e-08
4.34733e-07
7.62358e-08
4.3113e-07
9.05076e-08
4.27492e-07
1.04237e-07
4.23163e-07
1.17046e-07
4.17032e-07
1.2828e-07
4.07699e-07
1.36933e-07
3.93885e-07
1.41653e-07
3.74974e-07
1.40935e-07
3.5142e-07
1.3343e-07
3.24972e-07
1.18273e-07
2.98461e-07
9.55099e-08
2.75162e-07
6.60709e-08
2.57582e-07
3.17419e-08
2.46284e-07
-4.30991e-09
2.3649e-07
-3.58951e-08
2.20044e-07
-5.31101e-08
1.9226e-07
-5.0948e-08
1.53337e-07
-3.23622e-08
1.04593e-07
-3.56908e-09
4.49492e-08
3.28449e-08
-3.15913e-08
7.68154e-08
-1.334e-07
1.2685e-07
-2.63855e-07
1.83019e-07
-4.22031e-07
2.44635e-07
-6.03644e-07
3.08457e-07
-7.94888e-07
3.70734e-07
-9.82626e-07
4.2648e-07
-1.15638e-06
4.71768e-07
-1.30748e-06
5.04256e-07
-1.43214e-06
5.23515e-07
-1.53089e-06
5.3062e-07
-1.6054e-06
5.26911e-07
-1.65891e-06
5.14027e-07
-1.6962e-06
4.93748e-07
-1.72256e-06
4.6791e-07
-1.74282e-06
4.38396e-07
-1.76071e-06
4.06952e-07
-1.77875e-06
3.75069e-07
-1.79836e-06
3.4392e-07
-1.82009e-06
3.14356e-07
-1.84393e-06
2.86922e-07
-1.86953e-06
2.61903e-07
-1.89638e-06
2.39379e-07
-1.92398e-06
2.19285e-07
-1.95185e-06
2.01457e-07
-1.97963e-06
1.8568e-07
-2.00699e-06
1.71714e-07
-2.03371e-06
1.59316e-07
-2.05963e-06
1.48257e-07
-2.08463e-06
1.3833e-07
-2.10863e-06
1.29348e-07
-2.13159e-06
1.21151e-07
-2.15346e-06
1.13604e-07
-2.17424e-06
1.0659e-07
-2.19392e-06
1.00015e-07
-2.21251e-06
9.37991e-08
-2.22999e-06
8.78779e-08
-2.24638e-06
8.21979e-08
-2.26169e-06
7.67154e-08
-2.27592e-06
7.13943e-08
-2.28908e-06
6.62044e-08
-2.30118e-06
6.11207e-08
-2.31221e-06
5.61218e-08
-2.32219e-06
5.11894e-08
-2.33111e-06
4.63078e-08
-2.33899e-06
4.14623e-08
-2.34582e-06
3.6642e-08
-2.3516e-06
3.18362e-08
-2.35633e-06
2.70369e-08
-2.36001e-06
2.22384e-08
-2.36264e-06
1.74371e-08
-2.36421e-06
1.26313e-08
-2.36472e-06
7.82074e-09
-2.36415e-06
3.00635e-09
-2.36248e-06
-1.81201e-09
-2.35967e-06
-6.64092e-09
-2.35572e-06
-1.14949e-08
-2.35061e-06
-1.63861e-08
-2.34434e-06
-2.13129e-08
-2.33688e-06
-2.62674e-08
-2.32825e-06
-3.12435e-08
-2.31842e-06
-3.62358e-08
-2.3074e-06
-4.12395e-08
-2.29519e-06
-4.62497e-08
-2.28178e-06
-5.12618e-08
-2.26717e-06