/*--------------------------------*- C++ -*----------------------------------*\
  =========                 |
  \\      /  F ield         | OpenFOAM: The Open Source CFD Toolbox
   \\    /   O peration     | Website:  https://openfoam.org
    \\  /    A nd           | Version:  8
     \\/     M anipulation  |
\*---------------------------------------------------------------------------*/
FoamFile
{
    version     2.0;
    format      ascii;
    class       surfaceScalarField;
    location    "1500";
    object      phi;
}
// * * * * * * * * * * * * * * * * * * * * * * * * * * * * * * * * * * * * * //

dimensions      [0 3 -1 0 0 0 0];

internalField   nonuniform List<scalar> 
24170
(
2.99992e-06
1.33999e-07
2.8527e-06
1.47415e-07
2.72403e-06
1.28809e-07
2.61053e-06
1.13546e-07
2.51153e-06
9.90176e-08
2.43002e-06
8.15222e-08
2.3635e-06
6.65628e-08
2.30759e-06
5.58432e-08
2.26106e-06
4.64799e-08
2.22172e-06
3.92722e-08
2.18823e-06
3.34718e-08
2.16105e-06
2.71578e-08
2.13874e-06
2.23313e-08
2.12024e-06
1.85203e-08
2.10482e-06
1.54759e-08
2.09188e-06
1.2989e-08
2.08231e-06
9.61147e-09
3.19617e-09
2.07913e-06
3.51321e-06
7.72561e-08
3.54506e-06
1.15745e-07
3.55926e-06
1.14861e-07
3.55949e-06
1.13571e-07
3.54784e-06
1.10923e-07
3.52655e-06
1.03071e-07
3.50014e-06
9.31744e-08
3.46999e-06
8.60615e-08
3.43811e-06
7.83876e-08
3.40761e-06
6.97746e-08
3.37808e-06
6.30184e-08
3.34912e-06
5.60947e-08
3.32062e-06
5.08048e-08
3.292e-06
4.70978e-08
3.26481e-06
4.26392e-08
3.24057e-06
3.71968e-08
3.21887e-06
3.12739e-08
2.456e-08
3.19747e-06
3.83345e-06
5.60128e-08
3.85247e-06
9.68182e-08
3.86709e-06
1.00295e-07
3.8796e-06
1.01065e-07
3.88974e-06
1.00736e-07
3.89679e-06
9.59876e-08
3.90062e-06
8.93217e-08
3.90247e-06
8.41603e-08
3.90228e-06
7.85303e-08
3.89985e-06
7.21667e-08
3.89605e-06
6.68163e-08
3.89075e-06
6.13826e-08
3.88464e-06
5.69196e-08
3.87833e-06
5.34239e-08
3.87165e-06
4.93415e-08
3.86462e-06
4.42608e-08
3.85736e-06
3.85559e-08
3.19393e-08
3.84997e-06
4.21688e-06
4.37079e-08
4.23052e-06
8.3318e-08
4.24058e-06
9.0386e-08
4.24935e-06
9.24445e-08
4.2574e-06
9.28473e-08
4.26418e-06
8.93808e-08
4.26959e-06
8.40399e-08
4.2745e-06
7.93296e-08
4.27877e-06
7.42823e-08
4.28204e-06
6.89287e-08
4.28472e-06
6.41378e-08
4.28671e-06
5.93937e-08
4.28834e-06
5.52736e-08
4.29004e-06
5.1713e-08
4.29158e-06
4.77855e-08
4.29261e-06
4.32116e-08
4.29309e-06
3.80557e-08
3.23451e-08
4.29265e-06
4.64636e-06
3.46728e-08
4.65799e-06
7.1717e-08
4.66694e-06
8.14584e-08
4.67472e-06
8.46373e-08
4.68193e-06
8.55874e-08
4.68817e-06
8.31096e-08
4.69337e-06
7.88063e-08
4.69816e-06
7.45109e-08
4.70249e-06
6.99173e-08
4.70624e-06
6.51689e-08
4.70964e-06
6.07279e-08
4.71266e-06
5.63706e-08
4.71551e-06
5.2429e-08
4.71843e-06
4.88006e-08
4.72128e-06
4.49551e-08
4.72382e-06
4.06846e-08
4.72588e-06
3.59959e-08
3.10934e-08
4.72716e-06
5.12173e-06
2.75596e-08
5.13209e-06
6.14734e-08
5.14067e-06
7.29921e-08
5.14831e-06
7.71052e-08
5.15544e-06
7.8574e-08
5.16171e-06
7.69613e-08
5.16709e-06
7.35369e-08
5.17198e-06
6.96854e-08
5.17642e-06
6.55219e-08
5.18039e-06
6.12302e-08
5.18404e-06
5.70857e-08
5.1874e-06
5.30147e-08
5.1906e-06
4.92109e-08
5.19381e-06
4.55833e-08
5.19691e-06
4.18378e-08
5.19974e-06
3.78307e-08
5.20214e-06
3.35866e-08
2.92768e-08
5.20391e-06
5.64663e-06
2.19483e-08
5.65599e-06
5.21132e-08
5.66435e-06
6.46261e-08
5.67198e-06
6.94511e-08
5.67919e-06
7.13329e-08
5.68567e-06
7.04658e-08
5.69137e-06
6.7822e-08
5.69655e-06
6.4492e-08
5.70126e-06
6.07933e-08
5.70554e-06
5.69481e-08
5.7095e-06
5.31225e-08
5.71317e-06
4.93428e-08
5.71666e-06
4.57091e-08
5.72007e-06
4.21793e-08
5.72332e-06
3.8589e-08
5.7263e-06
3.48545e-08
5.72886e-06
3.10061e-08
2.72219e-08
5.73093e-06
4.40939e-06
1.86793e-08
4.41547e-06
4.61409e-08
4.4214e-06
5.87746e-08
4.42691e-06
6.40114e-08
4.43215e-06
6.61744e-08
4.43696e-06
6.57469e-08
4.44128e-06
6.35711e-08
4.44522e-06
6.06047e-08
4.44882e-06
5.72252e-08
4.45212e-06
5.36714e-08
4.45518e-06
5.00754e-08
4.45802e-06
4.64986e-08
4.46071e-06
4.30145e-08
4.46329e-06
3.96028e-08
4.46571e-06
3.61546e-08
4.46793e-06
3.26288e-08
4.46987e-06
2.906e-08
2.55751e-08
4.4715e-06
5.14286e-06
1.569e-08
5.14891e-06
4.00726e-08
5.15513e-06
5.25572e-08
5.16106e-06
5.80775e-08
5.16677e-06
6.04766e-08
5.17207e-06
6.04445e-08
5.17691e-06
5.87388e-08
5.18136e-06
5.61596e-08
5.18546e-06
5.31352e-08
5.18924e-06
4.98908e-08
5.19276e-06
4.65609e-08
5.19604e-06
4.32124e-08
5.19913e-06
3.9915e-08
5.20207e-06
3.66564e-08
5.20482e-06
3.34018e-08
5.20732e-06
3.01065e-08
5.20954e-06
2.68254e-08
2.36754e-08
5.21145e-06
5.9985e-06
1.29762e-08
6.00443e-06
3.42015e-08
6.01086e-06
4.61836e-08
6.01718e-06
5.18123e-08
6.02333e-06
5.43679e-08
6.02914e-06
5.46777e-08
6.03451e-06
5.34014e-08
6.03949e-06
5.12079e-08
6.0441e-06
4.85362e-08
6.0484e-06
4.56077e-08
6.05241e-06
4.2559e-08
6.05615e-06
3.94604e-08
6.05968e-06
3.63739e-08
6.06302e-06
3.33378e-08
6.06611e-06
3.02891e-08
6.06894e-06
2.72729e-08
6.07148e-06
2.42966e-08
2.14609e-08
6.0737e-06
6.99668e-06
1.05771e-08
7.00238e-06
2.85152e-08
7.00895e-06
3.96332e-08
7.0156e-06
4.51985e-08
7.02218e-06
4.78197e-08
7.02849e-06
4.83995e-08
7.0344e-06
4.75051e-08
7.03992e-06
4.57071e-08
7.04508e-06
4.33841e-08
7.04991e-06
4.07918e-08
7.05443e-06
3.80363e-08
7.05867e-06
3.52153e-08
7.06266e-06
3.24021e-08
7.0664e-06
2.95944e-08
7.06988e-06
2.68292e-08
7.07305e-06
2.40898e-08
7.07592e-06
2.1437e-08
1.89089e-08
7.07848e-06
8.16115e-06
8.43051e-09
8.16654e-06
2.31568e-08
8.17317e-06
3.30453e-08
8.18009e-06
3.83001e-08
8.18706e-06
4.08787e-08
8.19386e-06
4.16251e-08
8.20032e-06
4.1062e-08
8.20641e-06
3.9609e-08
8.21214e-06
3.76643e-08
8.21753e-06
3.53947e-08
8.22259e-06
3.29797e-08
8.22734e-06
3.04681e-08
8.23181e-06
2.79533e-08
8.23599e-06
2.54387e-08
8.23986e-06
2.29702e-08
8.24341e-06
2.05459e-08
8.24664e-06
1.82148e-08
1.60119e-08
8.24956e-06
9.51964e-06
6.53336e-09
9.52468e-06
1.81483e-08
9.53126e-06
2.64993e-08
9.5384e-06
3.11931e-08
9.54572e-06
3.35871e-08
9.55299e-06
3.43903e-08
9.55999e-06
3.40457e-08
9.56669e-06
3.29378e-08
9.57301e-06
3.13104e-08
9.579e-06
2.94202e-08
9.58462e-06
2.73314e-08
9.58995e-06
2.51899e-08
9.59491e-06
2.2987e-08
9.59958e-06
2.08255e-08
9.60386e-06
1.86638e-08
9.60783e-06
1.65957e-08
9.61144e-06
1.45851e-08
1.27197e-08
9.61474e-06
1.11044e-05
4.80703e-09
1.11091e-05
1.34519e-08
1.11156e-05
2.00458e-08
1.11229e-05
2.3911e-08
1.11306e-05
2.59564e-08
1.11383e-05
2.66892e-08
1.11459e-05
2.64907e-08
1.11531e-05
2.56275e-08
1.11601e-05
2.43447e-08
1.11667e-05
2.27845e-08
1.1173e-05
2.10853e-08
1.11789e-05
1.92894e-08
1.11845e-05
1.74794e-08
1.11896e-05
1.56533e-08
1.11944e-05
1.38819e-08
1.11988e-05
1.21548e-08
1.12029e-05
1.0525e-08
8.98595e-09
1.12066e-05
1.29532e-05
3.20773e-09
1.29577e-05
8.99792e-09
1.2964e-05
1.36582e-08
1.29715e-05
1.64749e-08
1.29795e-05
1.79833e-08
1.29876e-05
1.85172e-08
1.29958e-05
1.83514e-08
1.30037e-05
1.76878e-08
1.30114e-05
1.66885e-08
1.30187e-05
1.54763e-08
1.30256e-05
1.41432e-08
1.30322e-05
1.27423e-08
1.30384e-05
1.13189e-08
1.30441e-05
9.90144e-09
1.30495e-05
8.52204e-09
1.30544e-05
7.19648e-09
1.3059e-05
5.94398e-09
4.78096e-09
1.30632e-05
1.511e-05
1.67191e-09
1.51143e-05
4.65994e-09
1.51207e-05
7.28292e-09
1.51283e-05
8.82011e-09
1.51367e-05
9.60758e-09
1.51454e-05
9.80552e-09
1.51542e-05
9.56739e-09
1.51629e-05
9.02793e-09
1.51713e-05
8.27504e-09
1.51794e-05
7.39401e-09
1.51871e-05
6.4363e-09
1.51944e-05
5.4453e-09
1.52012e-05
4.44617e-09
1.52077e-05
3.4643e-09
1.52137e-05
2.51643e-09
1.52192e-05
1.61721e-09
1.52244e-05
7.74712e-10
6.73647e-12
1.52292e-05
1.7626e-05
1.29715e-10
1.76304e-05
2.79065e-10
1.7637e-05
6.95347e-10
1.7645e-05
7.41769e-10
1.7654e-05
6.40015e-10
1.76635e-05
3.41105e-10
1.76731e-05
-4.51666e-11
1.76827e-05
-5.41937e-10
1.76921e-05
-1.05838e-09
1.77011e-05
-1.62604e-09
1.77097e-05
-2.17688e-09
1.77179e-05
-2.74132e-09
1.77256e-05
-3.2711e-09
1.77329e-05
-3.78968e-09
1.77396e-05
-4.26327e-09
1.7746e-05
-4.70871e-09
1.77518e-05
-5.10472e-09
-5.45417e-09
1.77573e-05
1.78277e-05
-1.34554e-09
1.78319e-05
-3.87916e-09
1.78383e-05
-5.65929e-09
1.78462e-05
-7.06295e-09
1.78549e-05
-8.13037e-09
1.78642e-05
-8.89622e-09
1.78736e-05
-9.51986e-09
1.78831e-05
-9.93907e-09
1.78923e-05
-1.02932e-08
1.79013e-05
-1.05111e-08
1.79097e-05
-1.07097e-08
1.79179e-05
-1.0817e-08
1.79255e-05
-1.09223e-08
1.79327e-05
-1.09609e-08
1.79394e-05
-1.09999e-08
1.79457e-05
-1.09854e-08
1.79515e-05
-1.09704e-08
-1.09024e-08
1.7957e-05
1.58828e-05
-2.743e-09
1.58867e-05
-7.78408e-09
1.58926e-05
-1.15239e-08
1.58998e-05
-1.42479e-08
1.59079e-05
-1.60723e-08
1.59162e-05
-1.72968e-08
1.59248e-05
-1.80197e-08
1.59333e-05
-1.84249e-08
1.59416e-05
-1.85252e-08
1.59495e-05
-1.84823e-08
1.59571e-05
-1.82799e-08
1.59643e-05
-1.80282e-08
1.59711e-05
-1.7691e-08
1.59774e-05
-1.73466e-08
1.59834e-05
-1.69562e-08
1.5989e-05
-1.65752e-08
1.59942e-05
-1.61667e-08
-1.57666e-08
1.5999e-05
1.41501e-05
-4.18681e-09
1.41541e-05
-1.17574e-08
1.416e-05
-1.73468e-08
1.41669e-05
-2.11757e-08
1.41745e-05
-2.36416e-08
1.41824e-05
-2.51483e-08
1.41904e-05
-2.59598e-08
1.41982e-05
-2.62102e-08
1.42058e-05
-2.60949e-08
1.4213e-05
-2.57087e-08
1.42199e-05
-2.51667e-08
1.42264e-05
-2.4511e-08
1.42325e-05
-2.38013e-08
1.42382e-05
-2.30564e-08
1.42436e-05
-2.23094e-08
1.42486e-05
-2.15599e-08
1.42532e-05
-2.08299e-08
-2.01025e-08
1.42576e-05
1.26066e-05
-5.78143e-09
1.26109e-05
-1.60518e-08
1.26169e-05
-2.33692e-08
1.26239e-05
-2.8093e-08
1.26313e-05
-3.10118e-08
1.26388e-05
-3.27098e-08
1.26464e-05
-3.34705e-08
1.26537e-05
-3.35305e-08
1.26608e-05
-3.31123e-08
1.26675e-05
-3.23786e-08
1.26738e-05
-3.1464e-08
1.26797e-05
-3.04196e-08
1.26852e-05
-2.93376e-08
1.26904e-05
-2.82206e-08
1.26952e-05
-2.71322e-08
1.26997e-05
-2.60507e-08
1.27039e-05
-2.50191e-08
-2.40075e-08
1.27078e-05
1.12317e-05
-7.63674e-09
1.12364e-05
-2.08564e-08
1.12428e-05
-2.97212e-08
1.12498e-05
-3.50824e-08
1.12571e-05
-3.83028e-08
1.12644e-05
-4.00715e-08
1.12717e-05
-4.06915e-08
1.12786e-05
-4.04657e-08
1.12852e-05
-3.96908e-08
1.12914e-05
-3.85863e-08
1.12973e-05
-3.72666e-08
1.13027e-05
-3.58511e-08
1.13078e-05
-3.43756e-08
1.13125e-05
-3.29263e-08
1.13169e-05
-3.14889e-08
1.13209e-05
-3.01241e-08
1.13247e-05
-2.8794e-08
-2.75438e-08
1.13282e-05
1.00069e-05
-9.90785e-09
1.00124e-05
-2.63699e-08
1.00191e-05
-3.64761e-08
1.00262e-05
-4.21867e-08
1.00334e-05
-4.55535e-08
1.00406e-05
-4.72876e-08
1.00476e-05
-4.76607e-08
1.00542e-05
-4.70828e-08
1.00605e-05
-4.59168e-08
1.00663e-05
-4.43978e-08
1.00717e-05
-4.26775e-08
1.00768e-05
-4.08561e-08
1.00814e-05
-3.90211e-08
1.00857e-05
-3.72127e-08
1.00897e-05
-3.54767e-08
1.00934e-05
-3.38084e-08
1.00968e-05
-3.22395e-08
-3.07359e-08
1.01001e-05
8.91602e-06
-1.2845e-08
8.92235e-06
-3.2703e-08
8.92944e-06
-4.35844e-08
8.93663e-06
-4.937e-08
8.94388e-06
-5.28155e-08
8.95099e-06
-5.44089e-08
8.95776e-06
-5.4444e-08
8.96412e-06
-5.3446e-08
8.97006e-06
-5.18422e-08
8.97557e-06
-4.98972e-08
8.98065e-06
-4.77535e-08
8.98534e-06
-4.55336e-08
8.98966e-06
-4.3322e-08
8.99363e-06
-4.11746e-08
8.9973e-06
-3.91253e-08
9.00069e-06
-3.71934e-08
9.00385e-06
-3.53748e-08
-3.36664e-08
9.00677e-06
7.94457e-06
-1.67407e-08
7.95188e-06
-4.00418e-08
7.95933e-06
-5.10559e-08
7.96667e-06
-5.6735e-08
7.97403e-06
-6.01675e-08
7.98112e-06
-6.15122e-08
7.98779e-06
-6.11112e-08
7.99398e-06
-5.96391e-08
7.99971e-06
-5.75702e-08
8.00498e-06
-5.51619e-08
8.00982e-06
-5.25808e-08
8.01424e-06
-4.99514e-08
8.01829e-06
-4.73592e-08
8.022e-06
-4.48679e-08
8.0254e-06
-4.25159e-08
8.02854e-06
-4.03173e-08
8.03145e-06
-3.82695e-08
-3.63467e-08
8.03414e-06
7.07958e-06
-2.20012e-08
7.08816e-06
-4.86216e-08
7.09618e-06
-5.90684e-08
7.10395e-06
-6.44985e-08
7.11162e-06
-6.78419e-08
7.1189e-06
-6.87913e-08
7.12564e-06
-6.78605e-08
7.13186e-06
-6.58642e-08
7.13756e-06
-6.32591e-08
7.14277e-06
-6.03666e-08
7.14751e-06
-5.73194e-08
7.15183e-06
-5.42508e-08
7.15573e-06
-5.12625e-08
7.15927e-06
-4.83963e-08
7.16249e-06
-4.57257e-08
7.16544e-06
-4.32495e-08
7.16815e-06
-4.09666e-08
-3.88431e-08
7.17066e-06
6.31002e-06
-2.95055e-08
6.32062e-06
-5.91956e-08
6.33009e-06
-6.85588e-08
6.33917e-06
-7.35855e-08
6.3479e-06
-7.65601e-08
6.35599e-06
-7.68819e-08
6.3634e-06
-7.52782e-08
6.37018e-06
-7.26046e-08
6.3763e-06
-6.94009e-08
6.38182e-06
-6.58821e-08
6.38676e-06
-6.22505e-08
6.39115e-06
-5.86377e-08
6.39503e-06
-5.51141e-08
6.39842e-06
-5.17934e-08
6.4014e-06
-4.8699e-08
6.40403e-06
-4.58655e-08
6.40634e-06
-4.32698e-08
-4.08861e-08
6.4084e-06
5.62918e-06
-4.3784e-08
5.64494e-06
-7.4911e-08
5.65913e-06
-8.27478e-08
5.67261e-06
-8.70563e-08
5.68502e-06
-8.89608e-08
5.69606e-06
-8.7921e-08
5.70569e-06
-8.4885e-08
5.71391e-06
-8.08142e-08
5.72072e-06
-7.62184e-08
5.72621e-06
-7.13725e-08
5.73046e-06
-6.64947e-08
5.73358e-06
-6.17267e-08
5.73566e-06
-5.71867e-08
5.73681e-06
-5.29463e-08
5.73718e-06
-4.90759e-08
5.73693e-06
-4.56032e-08
5.73617e-06
-4.25094e-08
-3.99718e-08
5.73528e-06
5.04903e-06
-9.04958e-08
5.08452e-06
-1.10351e-07
5.11051e-06
-1.08727e-07
5.1293e-06
-1.05841e-07
5.14064e-06
-1.00286e-07
5.14512e-06
-9.23913e-08
5.14393e-06
-8.36762e-08
5.13818e-06
-7.50503e-08
5.12885e-06
-6.68954e-08
5.11682e-06
-5.93413e-08
5.10279e-06
-5.24563e-08
5.08734e-06
-4.62555e-08
5.07091e-06
-4.07426e-08
5.05386e-06
-3.58963e-08
5.03647e-06
-3.16944e-08
5.01909e-06
-2.82182e-08
5.00208e-06
-2.54869e-08
-2.37891e-08
4.98591e-06
4.36606e-06
4.25571e-06
4.14698e-06
4.04114e-06
3.94085e-06
3.84847e-06
3.76479e-06
3.68974e-06
3.62285e-06
3.56351e-06
3.51105e-06
3.4648e-06
3.42406e-06
3.38816e-06
3.35647e-06
3.32825e-06
3.30277e-06
3.27898e-06
-8.2532e-09
8.23499e-09
-2.2382e-08
1.40942e-08
-3.77785e-08
1.53676e-08
-5.10455e-08
1.32305e-08
-5.70245e-08
5.95491e-09
-4.96665e-08
-7.39892e-09
-2.68368e-08
-2.28427e-08
9.02322e-09
-3.59028e-08
5.3846e-08
-4.48207e-08
1.02778e-07
-4.89641e-08
1.51431e-07
-4.86319e-08
1.96605e-07
-4.51976e-08
2.36361e-07
-3.97286e-08
2.69354e-07
-3.30162e-08
2.94971e-07
-2.55816e-08
3.12673e-07
-1.77318e-08
3.22307e-07
-9.59855e-09
3.23406e-07
-1.14173e-09
3.15927e-07
7.50826e-09
2.99938e-07
1.59382e-08
2.76238e-07
2.37273e-08
2.45715e-07
3.0476e-08
2.09961e-07
3.57724e-08
1.70786e-07
3.91447e-08
1.30658e-07
4.01454e-08
9.21738e-08
3.84667e-08
5.80575e-08
3.413e-08
3.03461e-08
2.7695e-08
1.00795e-08
2.02813e-08
-3.09092e-09
1.31409e-08
-9.97114e-09
6.88898e-09
-1.10635e-08
1.03219e-09
-5.85226e-09
-5.20938e-09
6.81592e-09
-1.27394e-08
2.87572e-08
-2.19387e-08
5.9445e-08
-3.07085e-08
9.44451e-08
-3.49972e-08
1.27345e-07
-3.28798e-08
1.52788e-07
-2.54533e-08
1.67947e-07
-1.51557e-08
1.73202e-07
-5.28941e-09
1.71504e-07
1.6507e-09
1.66431e-07
5.00435e-09
1.61782e-07
4.57095e-09
1.59621e-07
2.05422e-09
1.53694e-07
5.85569e-09
1.3469e-07
1.88799e-08
9.49491e-08
3.96627e-08
2.91602e-08
6.56328e-08
-6.02603e-08
8.92996e-08
-1.68583e-07
1.08227e-07
-2.9252e-07
1.23825e-07
-4.29132e-07
1.36577e-07
-5.74956e-07
1.45734e-07
-7.22222e-07
1.47244e-07
-8.68216e-07
1.45953e-07
-1.01124e-06
1.4301e-07
-1.14744e-06
1.36208e-07
-1.27584e-06
1.28392e-07
-1.39533e-06
1.19518e-07
-1.50558e-06
1.1023e-07
-1.60634e-06
1.00801e-07
-1.69841e-06
9.20474e-08
-1.78301e-06
8.46354e-08
-1.86063e-06
7.75942e-08
-1.93201e-06
7.14196e-08
-1.998e-06
6.59632e-08
-2.05914e-06
6.11666e-08
-2.11613e-06
5.69635e-08
-2.16937e-06
5.32663e-08
-2.21939e-06
4.9992e-08
-2.26646e-06
4.70797e-08
-2.31094e-06
4.44538e-08
-2.353e-06
4.2073e-08
-2.39291e-06
3.98818e-08
-2.43077e-06
3.78531e-08
-2.46675e-06
3.5948e-08
-2.50091e-06
3.41496e-08
-2.53337e-06
3.24321e-08
-2.56417e-06
3.07843e-08
-2.59338e-06
2.91905e-08
-2.62105e-06
2.76421e-08
-2.6472e-06
2.61306e-08
-2.67187e-06
2.46483e-08
-2.69508e-06
2.31908e-08
-2.71686e-06
2.17495e-08
-2.7372e-06
2.03229e-08
-2.75612e-06
1.89015e-08
-2.77362e-06
1.74826e-08
-2.78968e-06
1.60642e-08
-2.80432e-06
1.46353e-08
-2.81753e-06
1.31919e-08
-2.82927e-06
1.17278e-08
-2.83953e-06
1.0234e-08
-2.84826e-06
8.70386e-09
-2.85541e-06
7.1255e-09
-2.86093e-06
5.4903e-09
-2.86473e-06
3.78177e-09
-2.86675e-06
2.00396e-09
-2.867e-06
2.32129e-10
-2.86567e-06
-1.34083e-09
-2.86297e-06
-2.71031e-09
-2.85895e-06
-4.0206e-09
-2.85364e-06
-5.31135e-09
-2.84705e-06
-6.59937e-09
-2.83916e-06
-7.8866e-09
-2.82999e-06
-9.17503e-09
-2.81953e-06
-1.04623e-08
-2.80779e-06
-1.17492e-08
-2.79476e-06
-1.30327e-08
-2.78045e-06
-1.43137e-08
-2.76488e-06
-1.55888e-08
-2.74803e-06
-1.68588e-08
-2.72993e-06
-1.81208e-08
-2.71057e-06
-1.93751e-08
-2.68998e-06
-2.06195e-08
-2.66815e-06
-2.18533e-08
-2.6451e-06
-2.3076e-08
-2.62085e-06
-2.42857e-08
-2.5954e-06
-2.54835e-08
-2.56877e-06
-2.66659e-08
-2.54097e-06
-2.7836e-08
-2.51202e-06
-2.89882e-08
-2.48193e-06
-3.01278e-08
-2.45072e-06
-3.12468e-08
-2.41841e-06
-3.23525e-08
-2.385e-06
-3.34343e-08
-2.35053e-06
-3.45011e-08
-2.31502e-06
-3.55371e-08
-2.27847e-06
-3.65564e-08
-2.24092e-06
-3.75448e-08
-2.20239e-06
-3.8512e-08
-2.16292e-06
-3.94476e-08
-2.12258e-06
-4.03414e-08
-2.0814e-06
-4.11805e-08
-2.03943e-06
-4.19624e-08
-1.99674e-06
-4.26546e-08
-1.95324e-06
-4.3458e-08
-1.90886e-06
-4.43222e-08
-1.86375e-06
-4.50727e-08
-1.81793e-06
-4.57831e-08
-1.77143e-06
-4.64575e-08
-1.72427e-06
-4.70941e-08
-1.6765e-06
-4.76983e-08
-1.62815e-06
-4.82705e-08
-1.57926e-06
-4.8812e-08
-1.52987e-06
-4.93336e-08
-1.48002e-06
-4.98179e-08
-1.42973e-06
-5.0275e-08
-1.37905e-06
-5.06886e-08
-1.328e-06
-5.10668e-08
-1.27664e-06
-5.14034e-08
-1.22499e-06
-5.16979e-08
-1.17309e-06
-5.19535e-08
-1.12099e-06
-5.21722e-08
-1.06871e-06
-5.23542e-08
-1.01628e-06
-5.25101e-08
-9.63715e-07
-5.26399e-08
-9.11045e-07
-5.27544e-08
-8.58272e-07
-5.28529e-08
-8.05415e-07
-5.29438e-08
-7.52471e-07
-5.30236e-08
-6.9946e-07
-5.30963e-08
-6.46381e-07
-5.31566e-08
-5.93255e-07
-5.32089e-08
-5.40077e-07
-5.32517e-08
-4.86861e-07
-5.32923e-08
-4.33594e-07
-5.33324e-08
-3.80285e-07
-5.33755e-08
-3.26918e-07
-5.34212e-08
-2.7351e-07
-5.34614e-08
-2.20077e-07
-5.34766e-08
-1.66679e-07
-5.34385e-08
-1.13418e-07
-5.32928e-08
-6.05037e-08
-5.2943e-08
-8.41236e-09
-5.2115e-08
4.227e-08
-5.06997e-08
8.98167e-08
-4.7562e-08
1.33432e-07
-4.3624e-08
-1.87479e-08
1.52152e-07
-3.51876e-09
1.17193e-08
-9.77143e-09
2.02824e-08
-1.27367e-08
1.8268e-08
-5.31585e-09
5.73405e-09
1.75596e-08
-1.69668e-08
5.50033e-08
-4.4886e-08
1.02581e-07
-7.04335e-08
1.54731e-07
-8.80763e-08
2.06358e-07
-9.64498e-08
2.54126e-07
-9.67482e-08
2.96588e-07
-9.10857e-08
3.32999e-07
-8.16214e-08
3.63296e-07
-7.00125e-08
3.87621e-07
-5.7356e-08
4.06364e-07
-4.43093e-08
4.19848e-07
-3.12328e-08
4.28562e-07
-1.8298e-08
4.32994e-07
-5.5994e-09
4.33609e-07
6.9052e-09
4.30199e-07
1.9321e-08
4.22346e-07
3.15883e-08
4.09363e-07
4.34337e-08
3.90755e-07
5.4384e-08
3.66136e-07
6.37452e-08
3.35627e-07
7.06545e-08
2.99878e-07
7.42007e-08
2.60367e-07
7.36394e-08
2.19368e-07
6.86743e-08
1.80039e-07
5.96072e-08
1.45956e-07
4.71869e-08
1.20614e-07
3.2226e-08
1.06322e-07
1.52547e-08
1.04335e-07
-3.23591e-09
1.141e-07
-2.25658e-08
1.33258e-07
-4.11051e-08
1.56043e-07
-5.35082e-08
1.75357e-07
-5.43158e-08
1.86698e-07
-4.4213e-08
1.8871e-07
-2.74777e-08
1.81565e-07
-8.02225e-09
1.66845e-07
9.39355e-09
1.45984e-07
2.24547e-08
1.13553e-07
3.73514e-08
5.95118e-08
5.85068e-08
-2.51033e-08
8.65558e-08
-1.40588e-07
1.21268e-07
-2.78825e-07
1.57056e-07
-4.30002e-07
1.90803e-07
-5.86437e-07
2.22026e-07
-7.45328e-07
2.48153e-07
-9.04233e-07
2.67096e-07
-1.05941e-06
2.78961e-07
-1.20669e-06
2.83827e-07
-1.34273e-06
2.81729e-07
-1.46811e-06
2.72603e-07
-1.58076e-06
2.58593e-07
-1.68004e-06
2.42279e-07
-1.76799e-06
2.24157e-07
-1.84541e-06
2.05807e-07
-1.91395e-06
1.88072e-07
-1.97511e-06
1.71392e-07
-2.03044e-06
1.56145e-07
-2.08087e-06
1.42471e-07
-2.12685e-06
1.30633e-07
-2.16949e-06
1.20231e-07
-2.20925e-06
1.1119e-07
-2.2466e-06
1.03314e-07
-2.28186e-06
9.64267e-08
-2.31527e-06
9.03687e-08
-2.347e-06
8.49994e-08
-2.3772e-06
8.01914e-08
-2.40597e-06
7.58432e-08
-2.43339e-06
7.18637e-08
-2.4595e-06
6.81849e-08
-2.48438e-06
6.47442e-08
-2.50803e-06
6.1498e-08
-2.53051e-06
5.84052e-08
-2.55181e-06
5.54381e-08
-2.57196e-06
5.25702e-08
-2.59098e-06
4.97836e-08
-2.60887e-06
4.70614e-08
-2.62563e-06
4.43914e-08
-2.64128e-06
4.17629e-08
-2.65582e-06
3.91668e-08
-2.66924e-06
3.65957e-08
-2.68155e-06
3.40416e-08
-2.69274e-06
3.14992e-08
-2.70282e-06
2.8961e-08
-2.71176e-06
2.64241e-08
-2.71958e-06
2.38802e-08
-2.72628e-06
2.1327e-08
-2.73185e-06
1.87581e-08
-2.73631e-06
1.61703e-08
-2.73966e-06
1.35623e-08
-2.74191e-06
1.09338e-08
-2.74309e-06
8.2864e-09
-2.74325e-06
5.62645e-09
-2.74245e-06
2.9681e-09
-2.74081e-06
3.44604e-10
-2.73838e-06
-2.21023e-09
-2.735e-06
-4.72748e-09
-2.73046e-06
-7.25645e-09
-2.72469e-06
-9.79268e-09
-2.71767e-06
-1.23314e-08
-2.7094e-06
-1.48742e-08
-2.69986e-06
-1.74204e-08
-2.68907e-06
-1.99688e-08
-2.67702e-06
-2.25172e-08
-2.66371e-06
-2.50638e-08
-2.64914e-06
-2.76055e-08
-2.63332e-06
-3.01411e-08
-2.61625e-06
-3.26668e-08
-2.59793e-06
-3.51816e-08
-2.57839e-06
-3.76817e-08
-2.55761e-06
-4.0166e-08
-2.53561e-06
-4.26308e-08
-2.51241e-06
-4.50755e-08
-2.48801e-06
-4.74967e-08
-2.46243e-06
-4.98942e-08
-2.43567e-06
-5.22653e-08
-2.40775e-06
-5.46096e-08
-2.37869e-06
-5.69248e-08
-2.3485e-06
-5.92098e-08
-2.31719e-06
-6.14631e-08
-2.28478e-06
-6.3682e-08
-2.25129e-06
-6.58655e-08
-2.21674e-06
-6.80094e-08
-2.18115e-06
-7.0113e-08
-2.14453e-06
-7.21699e-08
-2.10691e-06
-7.41793e-08
-2.06831e-06
-7.61378e-08
-2.02876e-06
-7.80472e-08
-1.9883e-06
-7.99016e-08
-1.94695e-06
-8.16953e-08
-1.90471e-06
-8.34221e-08
-1.86158e-06
-8.50803e-08
-1.81754e-06
-8.66716e-08
-1.77269e-06
-8.82758e-08
-1.72713e-06
-8.9856e-08
-1.68083e-06
-9.13407e-08
-1.63384e-06
-9.27479e-08
-1.58619e-06
-9.40858e-08
-1.53789e-06
-9.53517e-08
-1.48899e-06
-9.65526e-08
-1.43952e-06
-9.76868e-08
-1.38953e-06
-9.87616e-08
-1.33904e-06
-9.97804e-08
-1.28811e-06
-1.00737e-07
-1.23675e-06
-1.01626e-07
-1.18501e-06
-1.02445e-07
-1.13291e-06
-1.03185e-07
-1.08049e-06
-1.03851e-07
-1.02779e-06
-1.04431e-07
-9.74853e-07
-1.04937e-07
-9.21705e-07
-1.05365e-07
-8.68383e-07
-1.05728e-07
-8.14913e-07
-1.06031e-07
-7.61318e-07
-1.0629e-07
-7.07616e-07
-1.06509e-07
-6.5382e-07
-1.06704e-07
-5.99941e-07
-1.06876e-07
-5.45985e-07
-1.07033e-07
-4.91963e-07
-1.07171e-07
-4.37877e-07
-1.07292e-07
-3.83741e-07
-1.07395e-07
-3.29554e-07
-1.07484e-07
-2.75323e-07
-1.07568e-07
-2.2104e-07
-1.07653e-07
-1.66707e-07
-1.07745e-07
-1.12312e-07
-1.07843e-07
-5.78639e-08
-1.07935e-07
-3.37711e-09
-1.07979e-07
5.10996e-08
-1.07929e-07
1.05484e-07
-1.07682e-07
1.59595e-07
-1.07058e-07
2.13213e-07
-1.0573e-07
2.6569e-07
-1.03174e-07
3.1646e-07
-9.83232e-08
3.62272e-07
-8.94277e-08
-6.23086e-08
4.05831e-07
4.01395e-10
1.1283e-08
4.05758e-09
1.65577e-08
1.89209e-08
3.34754e-09
5.27411e-08
-2.81272e-08
1.03944e-07
-6.81907e-08
1.62799e-07
-1.0376e-07
2.19453e-07
-1.27096e-07
2.68344e-07
-1.36982e-07
3.07857e-07
-1.35964e-07
3.38665e-07
-1.27569e-07
3.62388e-07
-1.14807e-07
3.80536e-07
-9.97802e-08
3.94322e-07
-8.37932e-08
4.0453e-07
-6.75757e-08
4.11737e-07
-5.15096e-08
4.16272e-07
-3.57836e-08
4.18462e-07
-2.04834e-08
4.18504e-07
-5.65963e-09
4.16739e-07
8.6729e-09
4.13484e-07
2.25558e-08
4.09042e-07
3.60321e-08
4.03383e-07
4.90727e-08
3.96246e-07
6.15207e-08
3.86958e-07
7.30127e-08
3.74682e-07
8.29261e-08
3.58491e-07
9.03719e-08
3.37865e-07
9.42551e-08
3.1305e-07
9.34693e-08
2.85452e-07
8.71892e-08
2.5753e-07
7.50791e-08
2.32347e-07
5.73861e-08
2.12579e-07
3.4976e-08
1.99904e-07
9.40577e-09
1.93698e-07
-1.64012e-08
1.8885e-07
-3.62789e-08
1.77974e-07
-4.26444e-08
1.57891e-07
-3.42442e-08
1.29088e-07
-1.54119e-08
9.21106e-08
9.48302e-09
4.46747e-08
3.94019e-08
-1.91385e-08
7.31692e-08
-1.05852e-07
1.09133e-07
-2.16954e-07
1.48415e-07
-3.49338e-07
1.90862e-07
-4.96827e-07
2.34018e-07
-6.50509e-07
2.74932e-07
-8.04354e-07
3.10882e-07
-9.5344e-07
3.39876e-07
-1.09253e-06
3.61103e-07
-1.21858e-06
3.7418e-07
-1.33051e-06
3.79e-07
-1.42776e-06
3.76182e-07
-1.51068e-06
3.66725e-07
-1.58082e-06
3.5184e-07
-1.64109e-06
3.32859e-07
-1.69393e-06
3.11417e-07
-1.74079e-06
2.8913e-07
-1.78359e-06
2.66956e-07
-1.82351e-06
2.4573e-07
-1.86139e-06
2.25955e-07
-1.89784e-06
2.07851e-07
-1.93325e-06
1.91559e-07
-1.9678e-06
1.7703e-07
-2.00138e-06
1.64219e-07
-2.03407e-06
1.52921e-07
-2.06583e-06
1.4296e-07
-2.09667e-06
1.34149e-07
-2.12655e-06
1.2631e-07
-2.15547e-06
1.19285e-07
-2.1834e-06
1.12934e-07
-2.21035e-06
1.07138e-07
-2.23631e-06
1.01795e-07
-2.26127e-06
9.68173e-08
-2.28522e-06
9.21364e-08
-2.30818e-06
8.76934e-08
-2.33013e-06
8.3442e-08
-2.35108e-06
7.93436e-08
-2.37102e-06
7.53685e-08
-2.38996e-06
7.14916e-08
-2.40788e-06
6.76936e-08
-2.42479e-06
6.39582e-08
-2.44068e-06
6.02724e-08
-2.45556e-06
5.66252e-08
-2.46941e-06
5.30073e-08
-2.48224e-06
4.94109e-08
-2.49404e-06
4.58283e-08
-2.5048e-06
4.22535e-08
-2.51453e-06
3.86801e-08
-2.52322e-06
3.51023e-08
-2.53085e-06
3.15179e-08
-2.53745e-06
2.79184e-08
-2.543e-06
2.43023e-08
-2.54751e-06
2.06671e-08
-2.55098e-06
1.70136e-08
-2.55341e-06
1.33432e-08
-2.5548e-06
9.66145e-09
-2.55516e-06
5.97351e-09
-2.5545e-06
2.29064e-09
-2.55279e-06
-1.37692e-09
-2.54997e-06
-5.031e-09
-2.546e-06
-8.70041e-09
-2.54086e-06
-1.24028e-08
-2.53453e-06
-1.61295e-08
-2.52698e-06
-1.98725e-08
-2.51823e-06
-2.36275e-08
-2.50826e-06
-2.7391e-08
-2.49707e-06
-3.1159e-08
-2.48466e-06
-3.49287e-08
-2.47103e-06
-3.86958e-08
-2.45618e-06
-4.24576e-08
-2.44011e-06
-4.62098e-08
-2.42284e-06
-4.99496e-08
-2.40435e-06
-5.36727e-08
-2.38467e-06
-5.7376e-08
-2.36379e-06
-6.10555e-08
-2.34172e-06
-6.47077e-08
-2.31848e-06
-6.83296e-08
-2.29408e-06
-7.19181e-08
-2.26852e-06
-7.54712e-08
-2.24181e-06
-7.89863e-08
-2.21398e-06
-8.24619e-08
-2.18503e-06
-8.5895e-08
-2.15498e-06
-8.92842e-08
-2.12384e-06
-9.26257e-08
-2.09162e-06
-9.59178e-08
-2.05835e-06
-9.91561e-08
-2.02404e-06
-1.02338e-07
-1.98871e-06
-1.05459e-07
-1.95238e-06
-1.08515e-07
-1.91506e-06
-1.11498e-07
-1.87679e-06
-1.14409e-07
-1.83758e-06
-1.17247e-07
-1.79748e-06
-1.20008e-07
-1.7565e-06
-1.22686e-07
-1.71465e-06
-1.2528e-07
-1.67194e-06
-1.27785e-07
-1.62839e-06
-1.3021e-07
-1.58407e-06
-1.3258e-07
-1.53904e-06
-1.34876e-07
-1.4933e-06
-1.37067e-07
-1.44688e-06
-1.39155e-07
-1.39981e-06
-1.41139e-07
-1.35212e-06
-1.4302e-07
-1.30384e-06
-1.44802e-07
-1.25501e-06
-1.46484e-07
-1.20567e-06
-1.48071e-07
-1.15585e-06
-1.4957e-07
-1.1056e-06
-1.50975e-07
-1.05494e-06
-1.52281e-07
-1.0039e-06
-1.53483e-07
-9.52508e-07
-1.54574e-07
-9.00809e-07
-1.55554e-07
-8.48836e-07
-1.56412e-07
-7.96625e-07
-1.57155e-07
-7.44212e-07
-1.57789e-07
-6.91626e-07
-1.58323e-07
-6.38897e-07
-1.58772e-07
-5.86043e-07
-1.59151e-07
-5.33088e-07
-1.59475e-07
-4.80041e-07
-1.59757e-07
-4.26916e-07
-1.60011e-07
-3.73715e-07
-1.60239e-07
-3.2045e-07
-1.60445e-07
-2.67122e-07
-1.60625e-07
-2.13742e-07
-1.60783e-07
-1.60308e-07
-1.60922e-07
-1.06826e-07
-1.61058e-07
-5.32855e-08
-1.61198e-07
3.17137e-10
-1.61355e-07
5.39899e-08
-1.61521e-07
1.07729e-07
-1.61681e-07
1.61527e-07
-1.61785e-07
2.15347e-07
-1.61758e-07
2.69116e-07
-1.61461e-07
3.22717e-07
-1.6067e-07
3.75959e-07
-1.58984e-07
4.28498e-07
-1.55725e-07
4.79931e-07
-1.49767e-07
5.29333e-07
-1.38841e-07
-1.13141e-07
5.8015e-07
-1.62437e-10
1.14092e-08
1.31391e-08
3.19539e-09
5.35444e-08
-3.70941e-08
1.1615e-07
-9.07552e-08
1.83487e-07
-1.3554e-07
2.4136e-07
-1.61646e-07
2.84234e-07
-1.69977e-07
3.13055e-07
-1.65813e-07
3.31459e-07
-1.54371e-07
3.4311e-07
-1.39229e-07
3.50702e-07
-1.22399e-07
3.55814e-07
-1.04903e-07
3.59275e-07
-8.72527e-08
3.61408e-07
-6.9719e-08
3.62353e-07
-5.24552e-08
3.6212e-07
-3.55645e-08
3.60759e-07
-1.91226e-08
3.58278e-07
-3.19665e-09
3.54784e-07
1.21636e-08
3.50394e-07
2.6925e-08
3.45363e-07
4.10584e-08
3.39891e-07
5.4522e-08
3.34171e-07
6.72344e-08
3.28149e-07
7.90099e-08
3.21572e-07
8.94941e-08
3.13844e-07
9.80716e-08
3.04249e-07
1.03837e-07
2.92056e-07
1.05626e-07
2.77e-07
1.02224e-07
2.59307e-07
9.27221e-08
2.40075e-07
7.6585e-08
2.2064e-07
5.43492e-08
2.01249e-07
2.87586e-08
1.77539e-07
7.2665e-09
1.42691e-07
-1.45502e-09
9.50042e-08
5.03063e-09
3.58214e-08
2.49241e-08
-3.60594e-08
5.64675e-08
-1.23474e-07
9.68851e-08
-2.27217e-07
1.43137e-07
-3.46167e-07
1.92106e-07
-4.78189e-07
2.41143e-07
-6.18325e-07
2.88538e-07
-7.60304e-07
3.3283e-07
-8.98171e-07
3.71876e-07
-1.02643e-06
4.0318e-07
-1.14123e-06
4.25682e-07
-1.24098e-06
4.39611e-07
-1.3251e-06
4.45215e-07
-1.39423e-06
4.43299e-07
-1.45019e-06
4.34947e-07
-1.49534e-06
4.21314e-07
-1.53232e-06
4.03683e-07
-1.56376e-06
3.83261e-07
-1.59207e-06
3.61148e-07
-1.61902e-06
3.38356e-07
-1.64565e-06
3.15759e-07
-1.67266e-06
2.93964e-07
-1.70033e-06
2.73395e-07
-1.72867e-06
2.54297e-07
-1.7576e-06
2.36781e-07
-1.78691e-06
2.20879e-07
-1.81641e-06
2.06536e-07
-1.84585e-06
1.93663e-07
-1.87505e-06
1.82119e-07
-1.90384e-06
1.71752e-07
-1.93209e-06
1.62407e-07
-1.95972e-06
1.53936e-07
-1.98663e-06
1.46202e-07
-2.01279e-06
1.39085e-07
-2.03813e-06
1.32478e-07
-2.06263e-06
1.26289e-07
-2.08625e-06
1.2044e-07
-2.10899e-06
1.14866e-07
-2.13082e-06
1.09514e-07
-2.15172e-06
1.04339e-07
-2.17169e-06
9.93065e-08
-2.19072e-06
9.43881e-08
-2.2088e-06
8.95604e-08
-2.22592e-06
8.48049e-08
-2.24208e-06
8.01061e-08
-2.25726e-06
7.54516e-08
-2.27148e-06
7.08307e-08
-2.28472e-06
6.62344e-08
-2.29697e-06
6.1655e-08
-2.30824e-06
5.70853e-08
-2.31851e-06
5.25188e-08
-2.32779e-06
4.79494e-08
-2.33606e-06
4.33729e-08
-2.34333e-06
3.87811e-08
-2.34958e-06
3.41731e-08
-2.35483e-06
2.95422e-08
-2.35907e-06
2.48867e-08
-2.36227e-06
2.02071e-08
-2.36445e-06
1.55042e-08
-2.36559e-06
1.07821e-08
-2.36567e-06
6.04327e-09
-2.36468e-06
1.29319e-09
-2.3626e-06
-3.46766e-09
-2.35939e-06
-8.24561e-09
-2.35503e-06
-1.30568e-08
-2.34953e-06
-1.79072e-08
-2.34287e-06
-2.27904e-08
-2.33504e-06
-2.76984e-08
-2.32605e-06
-3.26249e-08
-2.31587e-06
-3.75645e-08
-2.30452e-06
-4.25116e-08
-2.29199e-06
-4.7462e-08
-2.27827e-06
-5.24099e-08
-2.26338e-06
-5.73519e-08
-2.24731e-06
-6.22821e-08
-2.23007e-06
-6.71972e-08
-2.21165e-06
-7.20911e-08
-2.19208e-06
-7.69604e-08
-2.17134e-06
-8.17988e-08
-2.14946e-06
-8.66026e-08
-2.12643e-06
-9.13666e-08