/*--------------------------------*- C++ -*----------------------------------*\
| =========                 |                                                 |
| \\      /  F ield         | OpenFOAM: The Open Source CFD Toolbox           |
|  \\    /   O peration     | Version:  v2012                                 |
|   \\  /    A nd           | Website:  www.openfoam.com                      |
|    \\/     M anipulation  |                                                 |
\*---------------------------------------------------------------------------*/
FoamFile
{
    version     2.0;
    format      ascii;
    class       volVectorField;
    location    "1500";
    object      U;
}
// * * * * * * * * * * * * * * * * * * * * * * * * * * * * * * * * * * * * * //

dimensions      [0 1 -1 0 0 0 0];


internalField   nonuniform List<vector> 
12225
(
(9.767 0.0434062 0)
(9.33155 0.0791063 0)
(8.91122 0.0855551 0)
(8.51478 0.0823136 0)
(8.16045 0.0755318 0)
(7.85036 0.0671267 0)
(7.58025 0.0582334 0)
(7.34627 0.0495666 0)
(7.14487 0.0418165 0)
(6.97032 0.0353457 0)
(6.81806 0.0299117 0)
(6.68618 0.0252439 0)
(6.57171 0.0210698 0)
(6.4739 0.0172551 0)
(6.39112 0.013551 0)
(6.32359 0.0095042 0)
(6.27405 0.00524286 0)
(6.23785 -0.00626898 0)
(10.0845 0.0585734 0)
(10.2265 0.0922302 0)
(10.3032 0.0919116 0)
(10.325 0.0885596 0)
(10.3143 0.0858896 0)
(10.2814 0.0825208 0)
(10.2314 0.0783815 0)
(10.1691 0.0739596 0)
(10.0992 0.0695131 0)
(10.0265 0.0652261 0)
(9.95383 0.061211 0)
(9.88208 0.0572712 0)
(9.81275 0.0533008 0)
(9.746 0.0491425 0)
(9.68311 0.0446181 0)
(9.6238 0.0391711 0)
(9.57002 0.0320053 0)
(9.5158 0.0197935 0)
(10.0165 0.0422984 0)
(10.0771 0.0649894 0)
(10.1247 0.0680225 0)
(10.1603 0.0721322 0)
(10.1894 0.0761984 0)
(10.2141 0.0779368 0)
(10.2326 0.0776319 0)
(10.245 0.0761962 0)
(10.2517 0.0741643 0)
(10.2542 0.0718119 0)
(10.2531 0.0691387 0)
(10.2494 0.0661571 0)
(10.2436 0.0628527 0)
(10.2363 0.0591551 0)
(10.2279 0.0548685 0)
(10.2186 0.0494238 0)
(10.2086 0.0423603 0)
(10.1948 0.0312442 0)
(10.0076 0.0303278 0)
(10.042 0.0551599 0)
(10.0726 0.0622913 0)
(10.0951 0.0673763 0)
(10.1143 0.0709993 0)
(10.1326 0.0722971 0)
(10.1491 0.071919 0)
(10.1633 0.0707209 0)
(10.1754 0.0690896 0)
(10.1859 0.0671495 0)
(10.195 0.0649315 0)
(10.2029 0.0624474 0)
(10.2097 0.0596455 0)
(10.2157 0.0564205 0)
(10.2209 0.052566 0)
(10.2253 0.0476777 0)
(10.2285 0.0414968 0)
(10.2294 0.0334382 0)
(10.0047 0.0235833 0)
(10.0286 0.0486693 0)
(10.0531 0.057201 0)
(10.0709 0.0620636 0)
(10.0861 0.0655143 0)
(10.1008 0.0670649 0)
(10.1144 0.0671045 0)
(10.1265 0.0662923 0)
(10.1374 0.0649844 0)
(10.1473 0.063312 0)
(10.1564 0.061331 0)
(10.1648 0.0590386 0)
(10.1726 0.0563846 0)
(10.1799 0.0532717 0)
(10.1866 0.0495492 0)
(10.1927 0.0449804 0)
(10.1977 0.0394881 0)
(10.2011 0.0330754 0)
(10.0031 0.018794 0)
(10.0208 0.0421078 0)
(10.0411 0.0514056 0)
(10.0569 0.0565791 0)
(10.0704 0.060289 0)
(10.0833 0.0622017 0)
(10.0955 0.062575 0)
(10.1064 0.062011 0)
(10.1163 0.0608916 0)
(10.1255 0.0593635 0)
(10.1341 0.0574883 0)
(10.1421 0.0552687 0)
(10.1496 0.0526755 0)
(10.1567 0.049636 0)
(10.1633 0.0460562 0)
(10.1692 0.0418138 0)
(10.1742 0.0369218 0)
(10.1779 0.0315304 0)
(10.0021 0.015107 0)
(10.0154 0.0359373 0)
(10.0323 0.0457268 0)
(10.0465 0.0512343 0)
(10.0589 0.0550855 0)
(10.0707 0.057216 0)
(10.0819 0.0578385 0)
(10.0921 0.0574906 0)
(10.1015 0.0565459 0)
(10.1102 0.0551535 0)
(10.1183 0.0533807 0)
(10.126 0.0512439 0)
(10.1331 0.0487344 0)
(10.1399 0.0458073 0)
(10.1461 0.0424152 0)
(10.1516 0.0385132 0)
(10.1564 0.0341621 0)
(10.1601 0.0295486 0)
(10.0015 0.0125102 0)
(10.012 0.0312099 0)
(10.0264 0.0411293 0)
(10.0394 0.0467753 0)
(10.0509 0.0506304 0)
(10.062 0.0528584 0)
(10.0725 0.0536463 0)
(10.0823 0.0534642 0)
(10.0912 0.0526583 0)
(10.0996 0.051377 0)
(10.1074 0.0496937 0)
(10.1148 0.0476375 0)
(10.1217 0.0452163 0)
(10.1281 0.0424094 0)
(10.134 0.0392027 0)
(10.1393 0.0355956 0)
(10.1438 0.0316681 0)
(10.1475 0.0275927 0)
(10.0012 0.0105719 0)
(10.0096 0.0273841 0)
(10.0221 0.0371484 0)
(10.034 0.0428417 0)
(10.0448 0.0466745 0)
(10.0551 0.0489509 0)
(10.0651 0.0498527 0)
(10.0744 0.0497953 0)
(10.0831 0.0490975 0)
(10.0911 0.0479084 0)
(10.0987 0.0463049 0)
(10.1058 0.0443273 0)
(10.1124 0.0419962 0)
(10.1186 0.0393113 0)
(10.1243 0.0362809 0)
(10.1293 0.032931 0)
(10.1337 0.0293457 0)
(10.1373 0.0256802 0)
(10.0009 0.00886413 0)
(10.0076 0.0236548 0)
(10.0182 0.0329915 0)
(10.0289 0.038626 0)
(10.039 0.0423834 0)
(10.0486 0.0446675 0)
(10.058 0.0456592 0)
(10.0668 0.04571 0)
(10.0751 0.045112 0)
(10.0828 0.044015 0)
(10.09 0.0424993 0)
(10.0969 0.0406151 0)
(10.1032 0.0383942 0)
(10.1091 0.0358555 0)
(10.1145 0.0330244 0)
(10.1193 0.0299447 0)
(10.1235 0.0266979 0)
(10.1271 0.0234176 0)
(10.0007 0.00734433 0)
(10.006 0.0200653 0)
(10.0148 0.0287263 0)
(10.0244 0.0341673 0)
(10.0336 0.0377758 0)
(10.0425 0.0400105 0)
(10.0512 0.0410547 0)
(10.0595 0.0411933 0)
(10.0674 0.0406849 0)
(10.0747 0.0396788 0)
(10.0816 0.0382593 0)
(10.0881 0.0364833 0)
(10.0941 0.0343938 0)
(10.0997 0.0320244 0)
(10.1048 0.0294134 0)
(10.1094 0.0266137 0)
(10.1134 0.0236989 0)
(10.1169 0.0207797 0)
(10.0005 0.00598654 0)
(10.0047 0.0166572 0)
(10.0119 0.0244122 0)
(10.0203 0.0294993 0)
(10.0287 0.0328755 0)
(10.0369 0.0349928 0)
(10.0449 0.0360388 0)
(10.0527 0.0362364 0)
(10.06 0.035805 0)
(10.067 0.0348882 0)
(10.0735 0.0335733 0)
(10.0796 0.0319222 0)
(10.0853 0.0299856 0)
(10.0906 0.027807 0)
(10.0954 0.0254327 0)
(10.0997 0.022917 0)
(10.1035 0.0203237 0)
(10.1069 0.017742 0)
(10.0004 0.00477206 0)
(10.0037 0.0134581 0)
(10.0096 0.0201136 0)
(10.0168 0.02467 0)
(10.0243 0.0277149 0)
(10.0318 0.0296371 0)
(10.0391 0.0306194 0)
(10.0463 0.0308354 0)
(10.0532 0.0304616 0)
(10.0597 0.0296294 0)
(10.0658 0.0284256 0)
(10.0716 0.0269142 0)
(10.0769 0.0251491 0)
(10.0819 0.0231794 0)
(10.0864 0.0210532 0)
(10.0905 0.0188221 0)
(10.0942 0.016539 0)
(10.0975 0.0142743 0)
(10.0003 0.00367663 0)
(10.0029 0.0104655 0)
(10.0077 0.0158806 0)
(10.0139 0.0197314 0)
(10.0205 0.0223313 0)
(10.0272 0.0239708 0)
(10.0339 0.0248137 0)
(10.0405 0.0249944 0)
(10.0469 0.0246486 0)
(10.053 0.0238887 0)
(10.0587 0.0227958 0)
(10.0641 0.0214321 0)
(10.0691 0.0198511 0)
(10.0738 0.0181011 0)
(10.078 0.0162283 0)
(10.0819 0.0142785 0)
(10.0854 0.0122938 0)
(10.0886 0.0103302 0)
(10.0002 0.00267248 0)
(10.0023 0.00765151 0)
(10.0063 0.0117358 0)
(10.0115 0.0147249 0)
(10.0173 0.0167568 0)
(10.0233 0.018019 0)
(10.0294 0.0186406 0)
(10.0355 0.0187223 0)
(10.0413 0.0183639 0)
(10.047 0.0176537 0)
(10.0523 0.0166619 0)
(10.0574 0.0154444 0)
(10.0621 0.0140494 0)
(10.0664 0.0125207 0)
(10.0705 0.0108988 0)
(10.0742 0.00922194 0)
(10.0775 0.00752269 0)
(10.0806 0.00584513 0)
(10.0002 0.00173006 0)
(10.0019 0.00496442 0)
(10.0052 0.00765899 0)
(10.0097 0.00965535 0)
(10.0148 0.0109962 0)
(10.0202 0.0117821 0)
(10.0257 0.0120975 0)
(10.0312 0.0120114 0)
(10.0367 0.0115907 0)
(10.0419 0.0108984 0)
(10.0469 0.00998814 0)
(10.0516 0.00890479 0)
(10.056 0.00768774 0)
(10.0601 0.00637267 0)
(10.0639 0.00499196 0)
(10.0675 0.00357529 0)
(10.0707 0.00214685 0)
(10.0737 0.000740705 0)
(10.0002 0.000812995 0)
(10.0016 0.00232367 0)
(10.0045 0.00357688 0)
(10.0084 0.00447341 0)
(10.013 0.00501051 0)
(10.0179 0.00522296 0)
(10.023 0.00514915 0)
(10.0281 0.0048252 0)
(10.0331 0.00428797 0)
(10.038 0.00357385 0)
(10.0426 0.00271651 0)
(10.0471 0.00174583 0)
(10.0512 0.000689081 0)
(10.0552 -0.000428821 0)
(10.0588 -0.00158512 0)
(10.0622 -0.00275908 0)
(10.0654 -0.00393433 0)
(10.0683 -0.00508554 0)
(10.0002 -7.55914e-05 0)
(10.0015 -0.000241968 0)
(10.0042 -0.000413931 0)
(10.0079 -0.000635592 0)
(10.0122 -0.000934675 0)
(10.0168 -0.00133099 0)
(10.0216 -0.00182955 0)
(10.0264 -0.0024262 0)
(10.0312 -0.0031124 0)
(10.0358 -0.00387744 0)
(10.0403 -0.00470912 0)
(10.0445 -0.00559388 0)
(10.0486 -0.00651811 0)
(10.0523 -0.00746815 0)
(10.0559 -0.00843122 0)
(10.0592 -0.00939504 0)
(10.0623 -0.0103501 0)
(10.0651 -0.0112786 0)
(10.0002 -0.000907749 0)
(10.0016 -0.00263917 0)
(10.0043 -0.00412566 0)
(10.0081 -0.00536542 0)
(10.0124 -0.00642027 0)
(10.017 -0.00736624 0)
(10.0217 -0.00824932 0)
(10.0265 -0.00909352 0)
(10.0312 -0.00991653 0)
(10.0357 -0.010732 0)
(10.0401 -0.0115472 0)
(10.0442 -0.0123642 0)
(10.0482 -0.0131814 0)
(10.0519 -0.0139956 0)
(10.0554 -0.0148025 0)
(10.0586 -0.0155968 0)
(10.0617 -0.0163744 0)
(10.0645 -0.017123 0)
(10.0002 -0.00171448 0)
(10.0018 -0.00494306 0)
(10.0048 -0.00762663 0)
(10.0089 -0.0097409 0)
(10.0135 -0.0114205 0)
(10.0182 -0.0128142 0)
(10.023 -0.0140039 0)
(10.0279 -0.0150367 0)
(10.0326 -0.015956 0)
(10.0371 -0.0167985 0)
(10.0415 -0.0175884 0)
(10.0456 -0.0183403 0)
(10.0496 -0.0190626 0)
(10.0533 -0.0197612 0)
(10.0567 -0.0204384 0)
(10.06 -0.0210944 0)
(10.063 -0.0217289 0)
(10.0659 -0.0223336 0)
(10.0002 -0.00256558 0)
(10.0022 -0.00732655 0)
(10.0058 -0.0111225 0)
(10.0104 -0.0139647 0)
(10.0153 -0.0161367 0)
(10.0203 -0.0178791 0)
(10.0254 -0.0192957 0)
(10.0304 -0.0204537 0)
(10.0352 -0.0214231 0)
(10.0399 -0.0222623 0)
(10.0443 -0.0230098 0)
(10.0485 -0.0236889 0)
(10.0524 -0.0243182 0)
(10.0562 -0.0249095 0)
(10.0597 -0.0254718 0)
(10.0629 -0.0260084 0)
(10.066 -0.0265224 0)
(10.0689 -0.0270077 0)
(10.0003 -0.00352988 0)
(10.0028 -0.00993561 0)
(10.0072 -0.0147479 0)
(10.0126 -0.018149 0)
(10.018 -0.0206843 0)
(10.0234 -0.0226804 0)
(10.0288 -0.0242446 0)
(10.034 -0.0254627 0)
(10.039 -0.0264372 0)
(10.0438 -0.0272448 0)
(10.0483 -0.0279308 0)
(10.0526 -0.0285275 0)
(10.0567 -0.0290595 0)
(10.0604 -0.0295467 0)
(10.064 -0.0300015 0)
(10.0673 -0.0304317 0)
(10.0704 -0.030841 0)
(10.0733 -0.0312257 0)
(10.0004 -0.00469436 0)
(10.0038 -0.0129084 0)
(10.0094 -0.0185772 0)
(10.0157 -0.022336 0)
(10.0217 -0.0251174 0)
(10.0275 -0.027286 0)
(10.0332 -0.0289199 0)
(10.0387 -0.0301385 0)
(10.044 -0.0310792 0)
(10.049 -0.0318302 0)
(10.0537 -0.0324401 0)
(10.0581 -0.032945 0)
(10.0623 -0.0333774 0)
(10.0661 -0.033762 0)
(10.0698 -0.0341159 0)
(10.0732 -0.0344489 0)
(10.0764 -0.0347666 0)
(10.0794 -0.0350649 0)
(10.0006 -0.00617558 0)
(10.0053 -0.0163768 0)
(10.0125 -0.0226461 0)
(10.0198 -0.0265234 0)
(10.0264 -0.0294562 0)
(10.0327 -0.0317335 0)
(10.0389 -0.0333778 0)
(10.0448 -0.0345516 0)
(10.0504 -0.0354306 0)
(10.0557 -0.0361069 0)
(10.0606 -0.0366262 0)
(10.0653 -0.0370302 0)
(10.0696 -0.0373572 0)
(10.0736 -0.037638 0)
(10.0774 -0.0378939 0)
(10.081 -0.0381378 0)
(10.0843 -0.0383757 0)
(10.0874 -0.0386022 0)
(10.001 -0.0081151 0)
(10.0077 -0.0204506 0)
(10.0169 -0.0270205 0)
(10.0253 -0.0307797 0)
(10.0326 -0.0337543 0)
(10.0396 -0.0360579 0)
(10.0465 -0.0376601 0)
(10.053 -0.0387715 0)
(10.059 -0.0395842 0)
(10.0647 -0.0401806 0)
(10.07 -0.0406014 0)
(10.075 -0.0408934 0)
(10.0796 -0.0411016 0)
(10.0839 -0.041265 0)
(10.0879 -0.0414105 0)
(10.0916 -0.0415559 0)
(10.095 -0.0417077 0)
(10.0983 -0.0418551 0)
(10.0016 -0.0107775 0)
(10.0113 -0.0251068 0)
(10.0232 -0.0316975 0)
(10.0332 -0.0353217 0)
(10.0415 -0.0382666 0)
(10.0496 -0.040435 0)
(10.0575 -0.0418629 0)
(10.0649 -0.0428432 0)
(10.0717 -0.0435589 0)
(10.0781 -0.0440632 0)
(10.084 -0.0443854 0)
(10.0895 -0.0445728 0)
(10.0945 -0.0446755 0)
(10.0992 -0.0447368 0)
(10.1035 -0.044792 0)
(10.1074 -0.0448622 0)
(10.1111 -0.0449587 0)
(10.1145 -0.0450572 0)
(10.0029 -0.0149035 0)
(10.0174 -0.0302049 0)
(10.0337 -0.0360906 0)
(10.0466 -0.0398689 0)
(10.0573 -0.0431033 0)
(10.0677 -0.0452299 0)
(10.0776 -0.0464427 0)
(10.0866 -0.0471911 0)
(10.0948 -0.047678 0)
(10.1023 -0.0479421 0)
(10.1092 -0.0480146 0)
(10.1155 -0.0479526 0)
(10.1212 -0.0478125 0)
(10.1263 -0.0476488 0)
(10.1309 -0.0475038 0)
(10.135 -0.0474053 0)
(10.1388 -0.0473646 0)
(10.1421 -0.0473258 0)
(10.0075 -0.0229137 0)
(10.0348 -0.0378866 0)
(10.0615 -0.0403336 0)
(10.0817 -0.0430654 0)
(10.0988 -0.0465888 0)
(10.1147 -0.0491828 0)
(10.1289 -0.0507887 0)
(10.1412 -0.0518633 0)
(10.1517 -0.0525894 0)
(10.1607 -0.0529773 0)
(10.1683 -0.0530703 0)
(10.1745 -0.0529383 0)
(10.1795 -0.0526662 0)
(10.1833 -0.0523277 0)
(10.186 -0.0520051 0)
(10.1878 -0.0517665 0)
(10.189 -0.0516262 0)
(10.1895 -0.0516175 0)
(10.0378 -0.0340983 0)
(10.1202 -0.0589299 0)
(10.1751 -0.0606439 0)
(10.2083 -0.0594183 0)
(10.2298 -0.0588249 0)
(10.2429 -0.0580424 0)
(10.2486 -0.0569791 0)
(10.2475 -0.0559215 0)
(10.241 -0.0549071 0)
(10.2304 -0.0538397 0)
(10.2164 -0.0526795 0)
(10.1996 -0.0514439 0)
(10.1806 -0.0501839 0)
(10.1598 -0.04897 0)
(10.1379 -0.0478713 0)
(10.1153 -0.0469952 0)
(10.0927 -0.0463866 0)
(10.0707 -0.0464134 0)
(9.89373 -0.0265655 0)
(9.69538 -0.0515601 0)
(9.49506 -0.0592389 0)
(9.29445 -0.061583 0)
(9.10557 -0.0615576 0)
(8.93141 -0.060019 0)
(8.77095 -0.0575157 0)
(8.62253 -0.0545984 0)
(8.48548 -0.0515181 0)
(8.35956 -0.0483331 0)
(8.24418 -0.0451126 0)
(8.1387 -0.0419227 0)
(8.04238 -0.0388144 0)
(7.95448 -0.0358425 0)
(7.87421 -0.0331276 0)
(7.80021 -0.0308555 0)
(7.73109 -0.0290552 0)
(7.66666 -0.0280244 0)
(-0.00346348 0.00958126 0)
(-0.0159585 0.01569 0)
(-0.0328949 0.0170897 0)
(-0.0515052 0.0146551 0)
(-0.0677819 0.00756642 0)
(-0.0730558 -0.00372161 0)
(-0.0589128 -0.0185063 -6.64013e-19)
(-0.0298356 -0.0355055 7.85604e-19)
(0.0108546 -0.0498667 0)
(0.0591373 -0.0581308 5.53869e-19)
(0.112145 -0.0605435 0)
(0.166187 -0.05875 0)
(0.217438 -0.0540079 0)
(0.263474 -0.0473449 -2.26347e-19)
(0.303039 -0.0395361 0)
(0.335546 -0.0311113 0)
(0.360714 -0.0223779 1.81212e-19)
(0.378388 -0.0134562 0)
(0.388476 -0.00425034 0)
(0.390778 0.00546244 0)
(0.384106 0.0155918 -1.75513e-19)
(0.368956 0.0256001 0)
(0.345741 0.0347203 -1.89454e-19)
(0.314927 0.0421492 0)
(0.277348 0.0471142 0)
(0.234338 0.0488425 -2.54792e-19)
(0.187764 0.0466665 0)
(0.140015 0.0402105 3.68343e-19)
(0.0939233 0.029637 0)
(0.0526641 0.0161046 -6.51084e-19)
(0.0195259 0.00255444 0)
(-0.0032244 -0.00635976 0)
(-0.0176637 -0.00811828 0)
(-0.0266096 -0.00494188 0)
(-0.0320479 -0.000377308 0)
(-0.0363509 0.00255398 9.48818e-19)
(-0.0405369 0.00233369 0)
(-0.0418685 -0.00139963 -1.84469e-18)
(-0.0353267 -0.0082579 0)
(-0.018674 -0.0171802 2.13106e-18)
(0.0075243 -0.0261906 0)
(0.0406031 -0.0321825 0)
(0.0760924 -0.0328299 -1.09139e-18)
(0.108984 -0.0284593 0)
(0.134789 -0.0208583 -8.02609e-19)
(0.150985 -0.0121536 7.63152e-19)
(0.157475 -0.00399045 0)
(0.15519 0.00175486 7.66118e-19)
(0.148563 0.00373828 7.89737e-19)
(0.142095 0.00346528 0)
(0.139004 0.00125184 0)
(0.146677 -0.0101384 0)
(0.156564 -0.0271211 0)
(0.159913 -0.0453125 0)
(0.141444 -0.0517033 -7.74578e-19)
(0.0952723 -0.0344145 0)
(0.0102426 0.00676821 9.23673e-19)
(-0.127438 0.054503 0)
(-0.282153 0.0899698 0)
(-0.45042 0.114312 -2.49104e-19)
(-0.625282 0.128494 0)
(-0.799755 0.133706 1.60319e-19)
(-0.968421 0.131377 0)
(-1.12729 0.12408 0)
(-1.27389 0.114153 0)
(-1.40721 0.103079 -1.04478e-19)
(-1.52721 0.0919863 0)
(-1.63475 0.0815214 0)
(-1.73082 0.0720309 -8.97121e-20)
(-1.8167 0.0636734 0)
(-1.89366 0.056446 -8.39968e-20)
(-1.96292 0.0502761 0)
(-2.02559 0.0450372 0)
(-2.08264 0.0405993 0)
(-2.13488 0.0368295 7.66863e-20)
(-2.183 0.0336107 0)
(-2.22754 0.0308379 0)
(-2.26897 0.0284286 7.28791e-20)
(-2.30765 0.0263109 7.17749e-20)
(-2.34388 0.0244285 0)
(-2.3779 0.0227348 6.97282e-20)
(-2.40989 0.0211945 0)
(-2.44 0.0197776 1.35671e-19)
(-2.46836 0.0184621 0)
(-2.49507 0.0172282 1.32091e-19)
(-2.52019 0.0160614 0)
(-2.5438 0.0149481 -1.28646e-19)
(-2.56593 0.0138776 0)
(-2.58664 0.0128393 0)
(-2.60593 0.0118238 0)
(-2.62383 0.0108211 1.21967e-19)
(-2.64033 0.00982202 0)
(-2.65545 0.00881644 -1.18665e-19)
(-2.66917 0.00779464 0)
(-2.68146 0.00674772 1.15359e-19)
(-2.69229 0.00566911 1.137e-19)
(-2.70162 0.00455704 1.12035e-19)
(-2.70938 0.00342209 0)
(-2.71554 0.00230172 0)
(-2.72002 0.00127039 0)
(-2.72276 0.000402186 0)
(-2.72404 -0.000315861 0)
(-2.72411 -0.00096905 0)
(-2.72293 -0.00160443 0)
(-2.72054 -0.0022293 0)
(-2.71692 -0.00284789 -9.61461e-20)
(-2.71209 -0.00346051 -9.41983e-20)
(-2.70602 -0.00406745 0)
(-2.69873 -0.00466824 0)
(-2.6902 -0.00526288 0)
(-2.68043 -0.00585064 -8.59507e-20)
(-2.66943 -0.00643167 0)
(-2.65719 -0.007005 0)
(-2.64371 -0.00757097 0)
(-2.629 -0.00812846 0)
(-2.61306 -0.00867799 7.44721e-20)
(-2.5959 -0.0092183 0)
(-2.57751 -0.00975005 0)
(-2.55792 -0.0102719 -6.68636e-20)
(-2.53712 -0.0107844 6.41938e-20)
(-2.51513 -0.0112861 0)
(-2.49195 -0.011777 5.86392e-20)
(-2.46761 -0.0122544 0)
(-2.44211 -0.0127162 -5.27805e-20)
(-2.41547 -0.0131551 0)
(-2.38772 -0.0135607 0)
(-2.35887 -0.0139061 0)
(-2.32897 -0.0141648 0)
(-2.29806 -0.0142879 0)
(-2.26618 -0.0142513 6.62925e-20)
(-2.23333 -0.014351 5.91054e-20)
(-2.19944 -0.0146863 0)
(-2.16455 -0.0150269 0)
(-2.12871 -0.0153448 0)
(-2.09193 -0.0156498 -2.81561e-20)
(-2.05426 -0.0159412 0)
(-2.01573 -0.0162196 0)
(-1.97635 -0.016486 0)
(-1.93617 -0.0167402 6.92949e-21)
(-1.8952 -0.0169825 -1.64406e-20)
(-1.85349 -0.0172139 0)
(-1.81105 -0.0174345 0)
(-1.76792 -0.0176455 -4.69956e-20)
(-1.72413 -0.0178471 -5.79154e-20)
(-1.6797 -0.0180405 0)
(-1.63467 -0.0182261 0)
(-1.58905 -0.0184053 9.31797e-20)
(-1.54288 -0.018574 -1.0586e-19)
(-1.49618 -0.0187398 0)
(-1.44898 -0.0188919 0)
(-1.40129 -0.0190422 -1.47066e-19)
(-1.35317 -0.0191797 0)
(-1.30461 -0.0193172 0)
(-1.25569 -0.0194439 -1.93907e-19)
(-1.20638 -0.019575 0)
(-1.15676 -0.0196996 -2.28866e-19)
(-1.10678 -0.019834 0)
(-1.05652 -0.0199666 0)
(-1.00593 -0.0201133 0)
(-0.955062 -0.0202644 3.10119e-19)
(-0.90387 -0.0204279 0)
(-0.852384 -0.0206042 0)
(-0.80059 -0.0207903 0)
(-0.748494 -0.0209896 0)
(-0.696097 -0.0212039 0)
(-0.643397 -0.0214363 0)
(-0.590386 -0.0216906 5.07337e-19)
(-0.537055 -0.0219703 5.44101e-19)
(-0.483386 -0.0222775 0)
(-0.429366 -0.0226124 0)
(-0.374987 -0.0229721 0)
(-0.32026 -0.0233492 -7.2591e-19)
(-0.265225 -0.023739 0)
(-0.209964 -0.0241442 1.69229e-18)
(-0.154646 -0.0245081 -1.83338e-18)
(-0.0995811 -0.0247038 -1.99175e-18)
(-0.0451887 -0.0245659 2.17024e-18)
(0.00553287 -0.0233272 -2.27672e-18)
(0.0625928 -0.0210879 2.24632e-18)
(0.0758123 -0.00991446 0)
(-2.90118e-05 0.0253035 0)
(-0.00658111 0.0441878 0)
(-0.0152233 0.0471961 1.97767e-18)
(-0.0194334 0.039553 0)
(-0.00928487 0.0190069 -2.33734e-18)
(0.0220602 -0.0194333 -1.63442e-18)
(0.0642139 -0.0699793 -4.68761e-19)
(0.114569 -0.115848 -3.15841e-19)
(0.168833 -0.147772 0)
(0.222847 -0.163603 -1.93712e-19)
(0.273562 -0.165333 0)
(0.319145 -0.156917 0)
(0.358952 -0.142215 2.72136e-19)
(0.392966 -0.123945 1.27556e-19)
(0.421315 -0.103976 -2.45056e-19)
(0.444283 -0.0834659 -2.38478e-19)
(0.462233 -0.0630064 -1.17289e-19)
(0.475515 -0.0428475 0)
(0.484448 -0.0229688 0)
(0.489592 -0.00319438 0)
(0.491747 0.016642 -1.20797e-19)
(0.490511 0.0364069 0)
(0.485328 0.0557699 3.72777e-19)
(0.475474 0.0742902 0)
(0.460092 0.0912503 0)
(0.438365 0.105628 1.37914e-19)
(0.409666 0.116111 0)
(0.373809 0.121234 -1.58192e-19)
(0.331222 0.119707 -3.50968e-19)
(0.283068 0.110876 2.00443e-19)
(0.231348 0.0952773 0)
(0.178904 0.0749285 0)
(0.129027 0.0526054 0)
(0.0859388 0.0312691 -1.015e-18)
(0.0538241 0.0138612 -1.36672e-18)
(0.0348824 0.00152399 -8.85318e-19)
(0.0287079 -0.0089522 0)
(0.0366919 -0.0218503 1.81265e-18)
(0.0540848 -0.0393944 0)
(0.0798492 -0.0608487 -9.69459e-19)
(0.111223 -0.0796634 0)
(0.142365 -0.0876014 0)
(0.1675 -0.0822082 4.94665e-19)
(0.184456 -0.0665588 0)
(0.192615 -0.0456827 1.3801e-18)
(0.192793 -0.0241231 -4.83314e-19)
(0.186106 -0.00530144 0)
(0.175442 0.00610766 -5.54279e-19)
(0.162889 0.00662281 -6.04626e-19)
(0.146806 -0.00204255 0)
(0.117802 -0.0131293 0)
(0.0580901 -0.00970547 0)
(-0.0652775 0.0357504 0)
(-0.23657 0.106762 0)
(-0.421671 0.17457 2.42588e-19)
(-0.611893 0.235586 3.53082e-19)
(-0.801083 0.28693 -1.37855e-19)
(-0.985572 0.322972 0)
(-1.15862 0.340788 1.97944e-19)
(-1.31739 0.342715 -8.90772e-20)
(-1.45898 0.33226 0)
(-1.58266 0.312877 -7.44739e-20)
(-1.68907 0.288031 0)
(-1.7798 0.260635 0)
(-1.85709 0.232999 -1.31264e-19)
(-1.92328 0.206702 6.31928e-20)
(-1.98057 0.182692 -1.24025e-19)
(-2.03082 0.161385 1.21196e-19)
(-2.07556 0.14284 5.91221e-20)
(-2.11598 0.126921 0)
(-2.15296 0.113364 5.70929e-20)
(-2.18716 0.101862 0)
(-2.21904 0.0921009 0)
(-2.24895 0.0837876 0)
(-2.27711 0.0766596 5.37897e-20)
(-2.30371 0.0704972 0)
(-2.32888 0.0651133 1.04581e-19)
(-2.35271 0.0603593 -1.54779e-19)
(-2.37527 0.0561105 -5.09252e-20)
(-2.39662 0.0522711 0)
(-2.4168 0.0487621 -4.96055e-20)
(-2.43584 0.0455232 0)
(-2.45377 0.0425044 -9.66482e-20)
(-2.47061 0.0396678 0)
(-2.48637 0.0369813 -9.41325e-20)
(-2.50107 0.0344204 1.85669e-19)
(-2.51472 0.031964 9.16399e-20)
(-2.52732 0.0295958 0)
(-2.53887 0.027301 0)
(-2.54938 0.0250675 0)
(-2.55885 0.0228842 -8.66486e-20)
(-2.56727 0.020741 0)
(-2.57466 0.0186285 8.41206e-20)
(-2.58102 0.0165378 0)
(-2.58635 0.0144605 -2.44686e-19)
(-2.59068 0.0123883 -8.02602e-20)
(-2.59405 0.0103127 -7.89531e-20)
(-2.59648 0.00822781 0)
(-2.59807 0.00614533 0)
(-2.59889 0.00411551 0)
(-2.59903 0.00221169 0)
(-2.59829 0.000445943 0)
(-2.5964 -0.00124286 -1.41536e-19)
(-2.59335 -0.00289524 -1.38624e-19)
(-2.58912 -0.00452069 0)
(-2.5837 -0.00612435 6.62396e-20)
(-2.57707 -0.00770674 6.47039e-20)
(-2.56924 -0.00926762 0)
(-2.56019 -0.010806 1.2335e-19)
(-2.54993 -0.0123209 0)
(-2.53844 -0.013811 -5.85756e-20)
(-2.52574 -0.0152755 0)
(-2.51182 -0.0167127 0)
(-2.49668 -0.018122 1.06732e-19)
(-2.48032 -0.0195017 0)
(-2.46275 -0.0208512 -4.96476e-20)
(-2.44398 -0.0221688 0)
(-2.42399 -0.0234542 0)
(-2.40282 -0.0247054 -4.44957e-20)
(-2.38045 -0.0259226 -4.21477e-20)
(-2.35691 -0.0271037 0)
(-2.33221 -0.0282489 3.86628e-20)
(-2.30635 -0.0293564 0)
(-2.27936 -0.0304267 -3.45894e-20)
(-2.25124 -0.0314587 -6.44646e-20)
(-2.22202 -0.0324541 0)
(-2.19171 -0.0334157 0)
(-2.16031 -0.0343526 0)
(-2.12784 -0.0352723 0)
(-2.0943 -0.0361717 -4.16112e-20)
(-2.05971 -0.0370337 -1.11887e-19)
(-2.02413 -0.0378326 0)
(-1.98761 -0.0385637 0)
(-1.95014 -0.0392413 0)
(-1.91175 -0.0398758 1.71457e-20)
(-1.87247 -0.0404702 0)
(-1.83232 -0.0410225 0)
(-1.79134 -0.0415319 -4.12818e-21)
(-1.74954 -0.0420001 2.66801e-21)
(-1.70697 -0.0424281 9.63267e-21)
(-1.66364 -0.0428173 0)
(-1.61959 -0.0431688 0)
(-1.57485 -0.0434846 2.68983e-20)
(-1.52944 -0.0437653 -3.13438e-20)
(-1.4834 -0.0440132 0)
(-1.43676 -0.0442289 0)
(-1.38953 -0.0444168 -5.14338e-20)
(-1.34175 -0.0445698 1.71984e-19)
(-1.29343 -0.0447012 0)
(-1.24462 -0.0447979 0)
(-1.19531 -0.0448689 7.78451e-20)
(-1.14557 -0.0449061 0)
(-1.09538 -0.0449189 1.81977e-19)
(-1.04482 -0.044901 -9.73572e-20)
(-0.993861 -0.0448657 0)
(-0.94258 -0.0448083 1.13867e-19)
(-0.890945 -0.0447436 2.41218e-19)
(-0.839015 -0.0446668 0)
(-0.786751 -0.0445907 0)
(-0.7342 -0.044517 -1.45334e-19)
(-0.681326 -0.044442 0)
(-0.628149 -0.0443749 3.22325e-19)
(-0.574659 -0.0443079 0)
(-0.520859 -0.044244 0)
(-0.466749 -0.0441845 0)
(-0.412326 -0.0441331 0)
(-0.357584 -0.044094 -2.07214e-19)
(-0.30251 -0.0440713 -2.16875e-19)
(-0.247091 -0.0440672 0)
(-0.191311 -0.0440798 0)
(-0.135162 -0.0441023 0)
(-0.0786482 -0.0441178 2.57935e-19)
(-0.0218031 -0.0440955 0)
(0.0353104 -0.0439794 -5.47051e-19)
(0.0925853 -0.043698 5.48113e-19)
(0.149752 -0.0431223 5.49251e-19)
(0.206725 -0.0420456 5.47315e-19)
(0.261377 -0.0400381 5.53376e-19)
(0.319121 -0.0361352 5.55816e-19)
(0.354476 -0.0242146 0)
(0.000955933 0.0273013 0)
(0.00191052 0.0500574 0)
(0.00615737 0.0475677 -2.14619e-18)
(0.0231845 0.0192198 -1.71247e-18)
(0.0622763 -0.0427212 1.0345e-18)
(0.118787 -0.121543 6.31935e-19)
(0.180877 -0.191753 -3.30483e-22)
(0.238955 -0.238499 0)
(0.288624 -0.259377 0)
(0.329036 -0.259104 0)
(0.361203 -0.244303 0)
(0.386773 -0.220841 0)
(0.407269 -0.193117 -6.19167e-19)
(0.423776 -0.163911 0)
(0.437013 -0.134753 1.92266e-19)
(0.447437 -0.106399 1.89113e-19)
(0.455344 -0.0791477 0)
(0.460933 -0.0530491 0)
(0.464379 -0.0280547 0)
(0.465809 -0.00404251 0)
(0.465591 0.0192275 1.94976e-19)
(0.464024 0.0421259 0)
(0.461431 0.0649256 -2.00525e-19)
(0.45798 0.0876617 0)
(0.453552 0.110037 0)
(0.447634 0.131357 0)
(0.439317 0.150486 -4.65519e-19)
(0.42731 0.165873 0)
(0.410166 0.175714 2.58221e-19)
(0.386649 0.178285 -5.5379e-19)
(0.356265 0.172409 0)
(0.319763 0.157937 0)
(0.279417 0.135826 0)
(0.238941 0.107956 4.48228e-19)
(0.202719 0.0767537 5.31881e-19)
(0.174808 0.0443232 0)
(0.158475 0.0110628 0)
(0.15387 -0.0238428 -1.46832e-18)
(0.160848 -0.0602947 -1.27137e-18)
(0.174897 -0.0938532 1.03721e-18)
(0.187693 -0.113366 0)
(0.191926 -0.11152 0)
(0.186517 -0.0925617 0)
(0.172677 -0.0637293 0)
(0.151539 -0.0328766 -7.53855e-19)
(0.124501 -0.00565698 -8.32439e-19)
(0.0914339 0.0186806 9.71915e-19)
(0.0478261 0.038463 0)
(-0.0261686 0.0554501 0)
(-0.146564 0.100299 0)
(-0.304398 0.169332 0)
(-0.485419 0.246522 -3.7657e-19)
(-0.675706 0.323606 0)
(-0.863816 0.393154 0)
(-1.03982 0.448522 -1.93928e-19)
(-1.19853 0.488919 -1.68211e-19)
(-1.33396 0.512645 0)
(-1.44475 0.518577 2.77139e-19)
(-1.53344 0.507977 -1.27258e-19)
(-1.60361 0.484065 1.19586e-19)
(-1.65952 0.450787 0)
(-1.70527 0.412084 0)
(-1.74438 0.371402 0)
(-1.77957 0.331449 0)
(-1.81263 0.294072 9.79887e-20)
(-1.84461 0.260323 1.92075e-19)
(-1.87601 0.230612 9.29189e-20)
(-1.90697 0.204902 -9.07495e-20)
(-1.93747 0.182893 0)
(-1.96741 0.164159 1.74283e-19)
(-1.99665 0.148232 1.70755e-19)
(-2.02507 0.134664 1.6749e-19)
(-2.05259 0.123037 -1.64423e-19)
(-2.07913 0.112996 0)
(-2.10466 0.104241 -2.38211e-19)
(-2.12915 0.0965299 0)
(-2.15258 0.0896611 7.67905e-20)
(-2.17496 0.0834729 7.56903e-20)
(-2.1963 0.0778353 0)
(-2.21659 0.0726468 0)
(-2.23585 0.0678257 1.44434e-19)
(-2.2541 0.063308 0)
(-2.27133 0.0590416 1.40117e-19)
(-2.28755 0.0549855 0)
(-2.30278 0.0511058 -1.35922e-19)
(-2.31702 0.0473755 -2.67815e-19)
(-2.33027 0.0437719 0)
(-2.34255 0.0402765 0)
(-2.35384 0.0368735 0)
(-2.36415 0.0335499 -1.25706e-19)
(-2.37349 0.0302945 0)
(-2.38185 0.0270983 -1.21655e-19)
(-2.38924 0.0239544 0)
(-2.39566 0.0208585 0)
(-2.4011 0.0178092 2.31122e-19)
(-2.40559 0.0148087 0)
(-2.40912 0.0118627 1.11467e-19)
(-2.41169 0.00898 0)
(-2.41331 0.00616919 1.07346e-19)
(-2.41395 0.00342653 0)
(-2.41355 0.000722549 0)
(-2.41207 -0.00197126 0)
(-2.40947 -0.00465001 2.95662e-19)
(-2.40573 -0.00730015 9.62246e-20)
(-2.40086 -0.00991929 0)
(-2.39482 -0.0125063 0)
(-2.38762 -0.01506 0)
(-2.37925 -0.0175786 0)
(-2.3697 -0.0200604 -8.45541e-20)
(-2.35897 -0.0225035 1.64684e-19)
(-2.34705 -0.0249061 7.9695e-20)
(-2.33395 -0.027266 -1.54905e-19)
(-2.31965 -0.0295815 -1.49925e-19)
(-2.30417 -0.0318505 -7.21846e-20)
(-2.28751 -0.0340711 0)
(-2.26966 -0.0362415 -1.34615e-19)
(-2.25063 -0.0383598 0)
(-2.23043 -0.0404242 1.24088e-19)
(-2.20906 -0.042433 5.90388e-20)
(-2.18653 -0.0443847 0)
(-2.16285 -0.0462774 -1.07797e-19)
(-2.13804 -0.0481095 -5.07543e-20)
(-2.11209 -0.0498791 0)
(-2.08503 -0.0515844 -4.58296e-20)
(-2.05687 -0.0532233 1.27274e-19)
(-2.02762 -0.0547939 0)
(-1.99731 -0.0562946 0)
(-1.96594 -0.0577258 0)
(-1.93352 -0.0590886 0)
(-1.90008 -0.0603889 5.51561e-20)
(-1.86563 -0.0616389 4.8022e-20)
(-1.83022 -0.0628319 0)
(-1.79387 -0.0639496 0)
(-1.75661 -0.0649903 0)
(-1.71844 -0.0659609 0)
(-1.6794 -0.0668643 0)
(-1.63951 -0.0676984 0)
(-1.5988 -0.0684628 2.57009e-21)
(-1.55729 -0.0691586 -1.05641e-21)
(-1.51501 -0.0697877 0)
(-1.472 -0.0703518 0)
(-1.42827 -0.0708529 -2.37317e-20)
(-1.38387 -0.0712931 0)
(-1.33881 -0.0716744 3.88943e-20)
(-1.29312 -0.0719992 4.48932e-20)
(-1.24684 -0.0722697 0)
(-1.19999 -0.0724907 0)
(-1.15259 -0.0726587 -6.77448e-20)
(-1.10468 -0.0727812 -1.47865e-19)
(-1.05626 -0.0728546 0)
(-1.00737 -0.072879 0)
(-0.958025 -0.0728539 0)
(-0.908262 -0.0727802 -1.05072e-19)
(-0.8581 -0.072662 1.12724e-19)
(-0.807571 -0.0725044 0)
(-0.756689 -0.0723158 2.53911e-19)
(-0.70548 -0.0721024 1.33517e-19)
(-0.653948 -0.0718734 -2.85148e-19)
(-0.602109 -0.0716324 0)
(-0.549961 -0.0713926 0)
(-0.497505 -0.0711465 -3.32664e-19)
(-0.444741 -0.0709038 -1.75562e-19)
(-0.391667 -0.0706571 0)
(-0.338281 -0.070408 0)
(-0.284585 -0.0701583 0)
(-0.230573 -0.0699125 0)
(-0.176238 -0.069676 -4.30029e-19)
(-0.12157 -0.0694532 0)
(-0.066553 -0.0692464 0)
(-0.0111728 -0.069052 0)
(0.0445822 -0.0688573 0)
(0.100713 -0.0686384 0)
(0.157204 -0.0683549 0)
(0.214004 -0.0679353 -5.09721e-19)
(0.271029 -0.0672837 0)
(0.328075 -0.0662426 0)
(0.385157 -0.0645613 -1.05968e-18)
(0.440763 -0.0617864 5.35731e-19)
(0.498925 -0.056971 -5.47363e-19)
(0.544458 -0.0450506 5.59502e-19)
(-0.00125226 0.0266636 0)
(0.000644032 0.0391181 4.73451e-18)
(0.0185969 0.00651835 0)
(0.0669133 -0.0789893 9.29477e-19)
(0.135897 -0.183533 0)
(0.206244 -0.270018 0)
(0.264599 -0.321296 -2.99018e-19)
(0.307027 -0.338486 0)
(0.335641 -0.330867 0)
(0.354499 -0.308417 0)
(0.3673 -0.278488 0)
(0.376588 -0.245519 0)
(0.383831 -0.211868 6.93928e-19)
(0.38974 -0.178678 3.37266e-19)
(0.394584 -0.146455 -3.30998e-19)
(0.398413 -0.115402 0)
(0.401196 -0.0855828 0)
(0.402901 -0.0569895 0)
(0.403513 -0.029586 0)
(0.403047 -0.00331719 0)
(0.401597 0.021926 3.44647e-19)
(0.399286 0.0462933 3.47635e-19)
(0.396349 0.0699439 -3.53088e-19)
(0.393101 0.0930296 3.61077e-19)
(0.389844 0.115599 0)
(0.386765 0.137499 0)
(0.383842 0.158297 4.05896e-19)
(0.380712 0.177166 0)
(0.37658 0.192811 0)
(0.370243 0.203501 4.80301e-19)
(0.360353 0.207257 5.11876e-19)
(0.345895 0.202248 5.49851e-19)
(0.326704 0.18723 0)
(0.303802 0.161944 0)
(0.279358 0.127378 -7.48387e-19)
(0.256443 0.0854288 0)
(0.238056 0.0385849 0)
(0.225843 -0.0107305 1.05442e-18)
(0.218341 -0.0595996 -9.2515e-19)
(0.207654 -0.0944164 7.73476e-19)
(0.187691 -0.102549 0)
(0.157357 -0.0858977 0)
(0.117532 -0.0544472 1.38632e-18)
(0.0689868 -0.0145572 0)
(0.0112552 0.0298547 1.73146e-18)
(-0.0667411 0.0759343 2.34115e-18)
(-0.172758 0.131542 -1.78399e-18)
(-0.304138 0.201066 8.93133e-19)
(-0.460567 0.279354 0)
(-0.633129 0.363015 0)
(-0.808684 0.444481 4.41772e-19)
(-0.975663 0.516004 1.85634e-19)
(-1.12488 0.571402 0)
(-1.25103 0.608277 0)
(-1.35327 0.627358 1.30759e-19)
(-1.43258 0.630554 2.43329e-19)
(-1.49075 0.619811 0)
(-1.53186 0.597141 -2.10961e-19)
(-1.56077 0.564999 2.01648e-19)
(-1.58219 0.526402 -1.91637e-19)