/*--------------------------------*- C++ -*----------------------------------*\
| =========                 |                                                 |
| \\      /  F ield         | OpenFOAM: The Open Source CFD Toolbox           |
|  \\    /   O peration     | Version:  v2012                                 |
|   \\  /    A nd           | Website:  www.openfoam.com                      |
|    \\/     M anipulation  |                                                 |
\*---------------------------------------------------------------------------*/
FoamFile
{
    version     2.0;
    format      ascii;
    class       volScalarField;
    location    "2800";
    object      nut;
}
// * * * * * * * * * * * * * * * * * * * * * * * * * * * * * * * * * * * * * //

dimensions      [0 2 -1 0 0 0 0];


internalField   nonuniform List<scalar> 
12225
(
0.0122671
0.00158819
0.000666128
0.000410104
0.00029404
0.000227808
0.000186418
0.000144347
0.000166369
0.000215711
0.000223838
0.000214196
0.00019517
0.000167532
0.0001614
0.000145529
0.00013232
0.000120129
0.0323823
0.00744532
0.00330638
0.00204329
0.00146802
0.00114429
0.00093866
0.000784866
0.000690383
0.000626894
0.000569548
0.000518715
0.000475213
0.000435566
0.000404973
0.000372249
0.000347116
0.000321092
0.0490123
0.01515
0.00728196
0.00457854
0.00330639
0.00258047
0.00211327
0.00178187
0.00154675
0.0013725
0.00123146
0.00111528
0.00101835
0.0009361
0.00086669
0.00080429
0.00075356
0.000700993
0.063054
0.0237783
0.0122894
0.00788814
0.00573397
0.00448496
0.0036744
0.00310418
0.00268716
0.00236996
0.0021179
0.00191315
0.00174401
0.00160221
0.00148242
0.0013786
0.00129106
0.00120452
0.074932
0.0328517
0.0181452
0.0119262
0.00874549
0.00686412
0.00563086
0.00476129
0.00411868
0.0036257
0.00323515
0.00291874
0.00265799
0.00244004
0.00225596
0.00209832
0.00196334
0.00183979
0.0849536
0.0420208
0.0246655
0.0166359
0.0123325
0.00972587
0.0079954
0.0067674
0.00585403
0.00515004
0.0045919
0.00413982
0.00376742
0.00345634
0.00319351
0.00296906
0.00277612
0.00260656
0.0933822
0.0510219
0.0316642
0.0219415
0.016474
0.0130717
0.0107779
0.00913539
0.00790597
0.00695436
0.00619832
0.00558531
0.00508009
0.00465801
0.00430136
0.00399702
0.00373534
0.00350913
0.0993794
0.0583363
0.0378386
0.0268568
0.0204171
0.0163053
0.0134892
0.011453
0.00991905
0.0087267
0.00777696
0.00700569
0.00636943
0.00583762
0.00538815
0.00500468
0.00467515
0.00439182
0.104023
0.0645454
0.0433804
0.0314239
0.0241571
0.0194092
0.0161097
0.0137018
0.0118767
0.0104523
0.00931473
0.00838939
0.00762524
0.00698615
0.00644586
0.00598491
0.00558899
0.00524916
0.108368
0.0708939
0.0493757
0.0365496
0.0284517
0.0230231
0.0191863
0.0163548
0.0141927
0.0124969
0.0111382
0.0100305
0.00911456
0.00834784
0.00769936
0.00714607
0.00667097
0.00626328
0.112368
0.0772557
0.0557282
0.0421918
0.0332976
0.0271652
0.0227468
0.0194433
0.0168984
0.0148904
0.013275
0.0119546
0.0108606
0.00994396
0.00916816
0.00850607
0.00793759
0.0074494
0.115994
0.0834975
0.0623054
0.0482611
0.0386474
0.0318167
0.026789
0.0229739
0.0200047
0.0176452
0.0157379
0.0141737
0.012875
0.0117851
0.010862
0.0100738
0.0093969
0.00881485
0.119234
0.0894856
0.0689377
0.0546109
0.0443919
0.0369007
0.0312597
0.0269089
0.0234837
0.02074
0.0185097
0.0166735
0.015145
0.0138601
0.0127705
0.0118397
0.0110398
0.010351
0.122086
0.095084
0.075415
0.0610223
0.0503361
0.0422535
0.0360231
0.0311353
0.0272402
0.0240931
0.0215191
0.0193909
0.0176141
0.0161175
0.0148467
0.0137601
0.0128258
0.0120198
0.124546
0.100135
0.0814619
0.0671726
0.056158
0.047577
0.0408126
0.0354174
0.031066
0.0275197
0.0246013
0.0221778
0.0201482
0.018435
0.0169783
0.0157315
0.0146584
0.0137312
0.126578
0.104396
0.0866605
0.0725515
0.0613228
0.0523526
0.0451453
0.0393148
0.0345631
0.0306611
0.0274325
0.024741
0.0224806
0.020569
0.0189413
0.0175468
0.0163455
0.0153062
0.128011
0.107322
0.0902141
0.0762353
0.0648743
0.0556509
0.0481493
0.0420254
0.0370012
0.0328553
0.0294126
0.0265352
0.0241143
0.0220643
0.0203171
0.0188191
0.0175275
0.0164083
0.128006
0.107313
0.0902048
0.0762269
0.0648674
0.0556454
0.048145
0.0420221
0.0369988
0.0328537
0.0294117
0.0265349
0.0241147
0.0220651
0.0203184
0.0188205
0.0175286
0.0164082
0.126509
0.104255
0.0864922
0.0723807
0.0611613
0.052205
0.0450128
0.0391967
0.0344584
0.0305685
0.0273506
0.0246684
0.0224163
0.0205118
0.0188902
0.0175006
0.0163023
0.015263
0.124267
0.0995604
0.0807712
0.0664676
0.0554886
0.0469631
0.0402594
0.0349227
0.0306248
0.0271258
0.0242487
0.0218611
0.0198625
0.0181762
0.0167425
0.0155151
0.0144574
0.0135404
0.12136
0.0936399
0.0737261
0.0593348
0.0487592
0.0408248
0.0347467
0.0300003
0.0262308
0.0231928
0.0207127
0.018665
0.0169572
0.0155197
0.0142998
0.0132566
0.0123582
0.0115797
0.117686
0.0865903
0.0656967
0.0514791
0.0415374
0.0343608
0.0290183
0.0249322
0.0217348
0.0191848
0.0171184
0.0154211
0.0140105
0.0128262
0.0118228
0.0109656
0.0102279
0.00958885
0.11305
0.0784122
0.056921
0.0432687
0.0342296
0.0279652
0.0234365
0.0200435
0.0174263
0.0153598
0.0136966
0.012337
0.0112107
0.0102671
0.00946864
0.00878715
0.00820096
0.00769339
0.107169
0.0691009
0.0476371
0.035029
0.0271566
0.021922
0.0182437
0.0155401
0.0134818
0.0118707
0.0105819
0.00953231
0.00866515
0.00793988
0.00732684
0.00680388
0.00635416
0.00596493
0.0996761
0.0587036
0.0381279
0.0270699
0.0205782
0.0164329
0.0135949
0.0115437
0.00999934
0.00879952
0.00784422
0.00706852
0.00642881
0.00589438
0.00544292
0.00505788
0.00472675
0.00444031
0.0901097
0.0473665
0.0287363
0.0196847
0.0146976
0.0116311
0.0095785
0.0081152
0.0070235
0.0061808
0.00551234
0.00497024
0.00452346
0.00415037
0.00383515
0.00356625
0.00333476
0.00313473
0.0779076
0.0353826
0.0198606
0.0131383
0.00966105
0.00759295
0.00623349
0.0052741
0.00456425
0.00402037
0.00359042
0.0032408
0.00295215
0.00271086
0.0025066
0.00233213
0.00218117
0.00205123
0.06238
0.0232554
0.0119461
0.00765493
0.00556337
0.00435253
0.0035672
0.00301615
0.00261331
0.00231034
0.00207204
0.00187467
0.00171032
0.00157242
0.00145439
0.00135357
0.00126419
0.00118807
0.0426105
0.0117794
0.0054693
0.00341385
0.0024607
0.00192004
0.00157266
0.00132942
0.00115829
0.00104123
0.000949561
0.000865002
0.00079203
0.000730463
0.000670415
0.000626519
0.000581958
0.000541643
0.0168348
0.00255985
0.00110002
0.000683429
0.000493725
0.000386811
0.000318008
0.000268389
0.000267494
0.000336088
0.000374574
0.000354321
0.000319422
0.000292798
0.000239823
0.000284557
0.000267133
0.000215233
5.28802e-10
1.01541e-07
1.14777e-06
5.16848e-06
9.86147e-06
1.28035e-05
1.31245e-05
1.11709e-05
8.84902e-06
5.76928e-06
3.39772e-06
1.9397e-06
1.3586e-06
1.47287e-06
2.01024e-06
2.47925e-06
2.41181e-06
1.63493e-06
7.32118e-07
3.70906e-07
4.11273e-07
1.21967e-06
5.51627e-06
2.83749e-05
5.71738e-05
7.49953e-05
9.13855e-05
0.000105181
0.000117321
0.000127436
0.000136295
0.000143908
0.00015057
0.000156371
0.000161434
0.000165903
0.000169865
0.000173404
0.000176577
0.000179428
0.000181986
0.000184273
0.000186308
0.000188107
0.000189684
0.000191051
0.000192219
0.000193195
0.000193976
0.000194559
0.000194821
0.000195071
0.000195119
0.000194991
0.000194692
0.000194245
0.000193645
0.000192897
0.000192002
0.000190963
0.000189781
0.000188458
0.000186997
0.000185401
0.000183671
0.000181811
0.00017982
0.000177701
0.000175458
0.000173092
0.000170605
0.000167999
0.000165277
0.00016244
0.000159489
0.000156425
0.00015325
0.000149964
0.000146566
0.000143054
0.000139426
0.000135677
0.000131799
0.000127785
0.000123626
0.000119313
0.000114837
0.000110185
0.000105338
0.000100275
9.49657e-05
8.93841e-05
8.35229e-05
7.74497e-05
7.14442e-05
6.61815e-05
6.24502e-05
6.01248e-05
5.8377e-05
5.67722e-05
5.51962e-05
5.36279e-05
5.20659e-05
5.05117e-05
4.89672e-05
4.74345e-05
4.59162e-05
4.44186e-05
4.29702e-05
4.17372e-05
4.0533e-05
3.93434e-05
3.81711e-05
3.70167e-05
3.58811e-05
3.47651e-05
3.36694e-05
3.25948e-05
3.15419e-05
3.0511e-05
2.95027e-05
2.85174e-05
2.75556e-05
2.66176e-05
2.57038e-05
2.48139e-05
2.39491e-05
2.31391e-05
2.24049e-05
2.16893e-05
2.09887e-05
2.03124e-05
1.9664e-05
1.9029e-05
1.84081e-05
1.78042e-05
1.72185e-05
1.66509e-05
1.61014e-05
1.55695e-05
1.50549e-05
1.4557e-05
1.40756e-05
1.361e-05
1.31601e-05
1.27252e-05
1.23052e-05
1.18995e-05
1.15079e-05
1.11298e-05
1.0765e-05
1.04131e-05
1.00738e-05
9.74665e-06
9.43148e-06
9.12794e-06
8.83577e-06
8.55473e-06
8.28457e-06
8.02512e-06
7.77615e-06
7.53751e-06
7.30901e-06
7.09049e-06
6.8817e-06
6.68243e-06
6.49231e-06
6.31095e-06
6.13776e-06
5.97205e-06
5.81282e-06
5.65907e-06
5.50864e-06
5.36148e-06
5.20822e-06
5.06446e-06
4.86149e-06
4.72e-06
4.30577e-06
3.68236e-06
3.34193e-09
6.03651e-06
6.15607e-05
0.000137847
0.000181886
0.000206
0.000215525
0.000214027
0.000205554
0.000188728
0.000167821
0.000147715
0.000137593
0.000143062
0.000156899
0.000165308
0.000167415
0.000168283
0.00017376
0.000183527
0.000199753
0.000218055
0.000235156
0.000251133
0.000262448
0.000272235
0.00028108
0.000294254
0.000313149
0.000327054
0.000339728
0.000350614
0.000360517
0.000369572
0.000377447
0.000384639
0.000391339
0.000397769
0.000404061
0.000410276
0.000416412
0.000422423
0.000428259
0.000433877
0.000439251
0.000444363
0.000449199
0.000453745
0.000458004
0.000461982
0.000465687
0.000469141
0.000472333
0.000475273
0.000477963
0.000480404
0.000482596
0.00048454
0.000486237
0.000487687
0.00048889
0.000489848
0.000490563
0.000491039
0.000491287
0.000491311
0.000491106
0.000490669
0.000490015
0.000489149
0.000488076
0.000486803
0.000485338
0.000483685
0.000481854
0.000479851
0.000477683
0.000475359
0.000472885
0.00047027
0.00046752
0.000464644
0.000461647
0.00045854
0.000455328
0.000452022
0.00044863
0.00044516
0.000441622
0.000438023
0.00043437
0.000430668
0.000426915
0.000423105
0.000419217
0.000415226
0.000411115
0.000406915
0.000402674
0.000398417
0.000394153
0.000389884
0.000385614
0.000381347
0.000377086
0.000372834
0.000368595
0.00036437
0.00036016
0.000355961
0.000351786
0.000347638
0.00034352
0.000339433
0.000335378
0.000331358
0.000327375
0.000323429
0.000319522
0.000315654
0.000311828
0.000308043
0.000304302
0.000300604
0.000296952
0.000293344
0.00028978
0.000286259
0.00028278
0.000279346
0.000275956
0.000272618
0.000269333
0.000266083
0.000262869
0.000259696
0.000256567
0.000253483
0.000250444
0.000247449
0.000244499
0.000241592
0.000238728
0.000235906
0.000233127
0.000230388
0.00022769
0.000225033
0.000222415
0.000219837
0.000217298
0.000214797
0.000212336
0.000209912
0.000207528
0.000205182
0.000202876
0.000200609
0.000198384
0.0001962
0.00019406
0.000191964
0.000189915
0.000187914
0.000185964
0.000184065
0.000182219
0.000180426
0.000178685
0.000176995
0.000175351
0.000173752
0.000172178
0.000170661
0.000169067
0.000167718
0.000165681
0.000165079
0.000161985
0.00016055
7.63183e-08
3.98419e-05
0.000162898
0.000245614
0.00029888
0.000329075
0.000339963
0.000336949
0.000323956
0.000304614
0.000284915
0.000272515
0.000270562
0.000277534
0.000288074
0.000299113
0.000312175
0.000329339
0.000350989
0.00037635
0.00040378
0.000431996
0.000471268
0.000517446
0.000563043
0.00060712
0.000650178
0.000693823
0.000732888
0.000763963
0.0007888
0.000808495
0.000824111
0.000836507
0.000846462
0.000854748
0.00086206
0.000869041
0.000876223
0.000883958
0.000892349
0.000901272
0.000910487
0.000919759
0.000928912
0.000937825
0.000946424
0.000954661
0.000962499
0.000969912
0.000976871
0.000983356
0.000989357
0.000994869
0.000999892
0.00100442
0.00100846
0.00101201
0.00101506
0.00101762
0.00101969
0.00102126
0.00102235
0.00102289
0.00102304
0.00102276
0.00102197
0.00102072
0.00101903
0.00101691
0.00101437
0.00101143
0.00100809
0.00100437
0.00100029
0.00099586
0.000991093
0.000986005
0.000980611
0.000974926
0.000968966
0.000962745
0.000956279
0.000949582
0.000942669
0.000935556
0.000928257
0.000920787
0.00091316
0.000905389
0.000897486
0.000889462
0.000881327
0.000873088
0.000864753
0.000856332
0.000847839
0.000839288
0.000830696
0.000822076
0.000813439
0.000804795
0.00079615
0.000787512
0.00077889
0.000770289
0.000761716
0.000753177
0.000744678
0.000736223
0.00072782
0.000719473
0.000711187
0.000702966
0.000694813
0.000686731
0.000678725
0.000670797
0.000662949
0.000655183
0.000647503
0.000639909
0.000632403
0.000624988
0.000617664
0.000610432
0.000603293
0.000596246
0.000589293
0.000582434
0.000575671
0.000569003
0.000562428
0.000555939
0.000549537
0.000543224
0.000537001
0.00053087
0.00052483
0.000518882
0.000513023
0.000507253
0.000501571
0.000495976
0.000490467
0.000485043
0.000479702
0.000474444
0.000469267
0.000464171
0.000459153
0.000454214
0.000449351
0.000444564
0.000439852
0.000435214
0.000430648
0.000426153
0.000421729
0.000417374
0.000413086
0.000408864
0.000404707
0.000400611
0.000396574
0.000392594
0.000388665
0.000384783
0.00038094
0.000377129
0.000373336
0.000369549
0.00036574
0.000361899
0.000357929
0.000353922
0.000349389
0.000345139
0.000338564
0.000326868
6.1617e-07
8.21572e-05
0.000213013
0.000308831
0.000372263
0.000409344
0.000424632
0.000424849
0.000414754
0.000401428
0.000393595
0.000393027
0.000402623
0.000420116
0.000443104
0.000471086
0.000504645
0.000544053
0.000588474
0.000652266
0.000726367
0.00080632
0.000890196
0.00096046
0.00102263
0.00107853
0.00112874
0.00117345
0.00121253
0.00124626
0.00127538
0.00130062
0.00132266
0.00134215
0.00135965
0.00137565
0.00139056
0.00140471
0.00141837
0.00143172
0.00144488
0.00145793
0.00147089
0.00148374
0.00149643
0.00150889
0.00152101
0.00153271
0.0015439
0.00155449
0.00156444
0.00157371
0.00158229
0.00159014
0.00159728
0.00160368
0.00160935
0.00161429
0.00161849
0.00162195
0.00162467
0.00162664
0.0016278
0.00162823
0.00162811
0.00162719
0.00162556
0.00162324
0.00162024
0.00161658
0.00161228
0.00160736
0.00160184
0.00159574
0.00158908
0.00158188
0.00157418
0.00156598
0.00155731
0.0015482
0.00153867
0.00152874
0.00151844
0.00150778
0.00149679
0.0014855
0.00147393
0.00146209
0.00145001
0.00143771
0.00142521
0.00141253
0.00139968
0.00138668
0.00137354
0.00136029
0.00134694
0.00133351
0.00132002
0.00130649
0.00129293
0.00127936
0.00126579
0.00125223
0.00123869
0.00122519
0.00121173
0.00119833
0.00118499
0.00117173
0.00115854
0.00114544
0.00113244
0.00111953
0.00110673
0.00109405
0.00108148
0.00106903
0.00105671
0.00104451
0.00103245
0.00102052
0.00100873
0.000997072
0.000985561
0.000974192
0.000962966
0.000951885
0.00094095
0.00093016
0.000919517
0.000909021
0.000898667
0.000888452
0.000878375
0.000868438
0.000858642
0.000848986
0.000839471
0.000830096
0.000820859
0.000811761
0.000802798
0.00079397
0.000785274
0.00077671
0.000768275
0.000759968
0.000751787
0.000743729
0.000735794
0.000727979
0.000720282
0.000712703
0.000705238
0.000697887
0.000690647
0.000683516
0.000676493
0.000669575
0.000662759
0.000656044
0.000649426
0.000642902
0.000636467
0.000630117
0.000623845
0.000617643
0.000611503
0.000605411
0.000599352
0.000593304
0.000587238
0.000581118
0.000574871
0.000568472
0.000561641
0.00055464
0.000546176
0.000529928
1.39945e-06
0.000101863
0.000234929
0.000354658
0.000433281
0.000480498
0.000503931
0.000512334
0.000513968
0.000515193
0.000522445
0.000539017
0.000565483
0.000600851
0.000644355
0.000696036
0.000756699
0.000840598
0.000936674
0.00103242
0.00112119
0.00120536
0.00128443
0.00135688
0.00142342
0.00148463
0.00154092
0.00159261
0.00164007
0.00168372
0.00172405
0.00176154
0.00179661
0.00182963
0.00186093
0.00189074
0.00191926
0.00194662
0.00197293
0.00199824
0.00202259
0.00204599
0.00206842
0.00208988
0.00211034
0.00212977
0.00214813
0.0021654
0.00218156
0.00219657
0.00221044
0.00222317
0.00223476
0.00224523
0.00225459
0.00226287
0.00227009
0.00227625
0.00228138
0.00228548
0.00228857
0.00229062
0.00229153
0.00229162
0.00229074
0.00228886
0.00228603
0.00228225
0.00227756
0.00227198
0.00226553
0.00225824
0.00225014
0.00224126
0.00223163
0.00222127
0.00221023
0.00219852
0.00218619
0.00217326
0.00215976
0.00214573
0.00213119
0.00211618
0.00210072
0.00208486
0.00206861
0.00205201
0.00203509
0.00201788
0.00200039
0.00198267
0.00196472
0.00194659
0.00192828
0.00190982
0.00189124
0.00187256
0.00185381
0.001835
0.00181615
0.00179729
0.00177844
0.0017596
0.0017408
0.00172205
0.00170337
0.00168476
0.00166624
0.00164782
0.00162951
0.00161132
0.00159326
0.00157535
0.00155758
0.00153996
0.0015225
0.00150521
0.00148809
0.00147115
0.00145439
0.00143782
0.00142143
0.00140523
0.00138923
0.00137342
0.0013578
0.00134239
0.00132717
0.00131216
0.00129734
0.00128272
0.0012683
0.00125407
0.00124003
0.00122619
0.00121254
0.00119907
0.00118581
0.00117273
0.00115984
0.00114713
0.00113462
0.00112228
0.00111013
0.00109815
0.00108635
0.00107473
0.00106327
0.00105199
0.00104087
0.00102991
0.00101912
0.00100848
0.000997998
0.00098767
0.000977492
0.000967462
0.000957578
0.000947835
0.000938231
0.000928762
0.000919425
0.000910215
0.000901125
0.000892152
0.000883285
0.000874518
0.000865837
0.000857228
0.000848672
0.000840143
0.000831609
0.000823026
0.000814324
0.000805441
0.000796175
0.00078656
0.00077639
0.000756616
2.32567e-06
0.000118223
0.000256256
0.000389867
0.000486681
0.000548383
0.000586133
0.000609623
0.000627557
0.000647195
0.000673735
0.000709769
0.000755998
0.000812688
0.000880386
0.000971302
0.00107671
0.00117836
0.00127745
0.00137271
0.00146319
0.00154897
0.00163
0.00170626
0.00177804
0.00184569
0.00190956
0.00196998
0.00202727
0.00208178
0.00213382
0.00218367
0.00223159
0.00227778
0.0023224
0.00236557
0.00240738
0.00244789
0.00248712
0.00252509
0.00256178
0.00259717
0.00263125
0.00266397
0.0026953
0.0027252
0.00275362
0.00278052
0.00280587
0.00282964
0.00285179
0.0028723
0.00289117
0.00290837
0.00292391
0.00293777
0.00294997
0.00296051
0.00296941
0.00297667
0.00298233
0.00298641
0.00298883
0.00298973
0.00298927
0.0029873
0.00298396
0.00297925
0.00297325
0.00296599
0.00295754
0.00294795
0.00293726
0.00292553
0.00291281
0.00289915
0.00288458
0.00286916
0.00285294
0.00283595
0.00281823
0.00279984
0.0027808
0.00276117
0.00274098
0.00272027
0.00269908
0.00267745
0.00265541
0.00263301
0.00261028
0.00258725
0.00256396
0.00254043
0.00251669
0.00249278
0.00246873
0.00244456
0.0024203
0.00239597
0.00237161
0.00234724
0.00232288
0.00229855
0.00227426
0.00225005
0.00222592
0.00220189
0.00217798
0.0021542
0.00213056
0.00210708
0.00208377
0.00206064
0.0020377
0.00201495
0.00199241
0.00197009
0.00194798
0.0019261
0.00190445
0.00188304
0.00186186
0.00184093
0.00182024
0.0017998
0.00177962
0.00175968
0.00173999
0.00172056
0.00170138
0.00168246
0.00166378
0.00164535
0.00162716
0.00160922
0.00159152
0.00157407
0.00155686
0.00153989
0.00152315
0.00150666
0.0014904
0.00147436
0.00145856
0.00144298
0.00142763
0.00141249
0.00139757
0.00138286
0.00136836
0.00135406
0.00133997
0.00132608
0.00131238
0.00129888
0.00128556
0.00127243
0.00125949
0.00124672
0.00123412
0.0012217
0.00120944
0.00119735
0.0011854
0.00117361
0.00116195
0.00115042
0.00113901
0.00112769
0.00111645
0.00110527
0.00109409
0.00108289
0.00107159
0.00106012
0.0010483
0.00103614
0.00102385
0.00100141
2.79426e-06
0.000126783
0.000269163
0.000407462
0.000526042
0.000607438
0.00066361
0.000705717
0.000743004
0.000782713
0.000829862
0.000887354
0.000956914
0.00104967
0.00115695
0.00126358
0.00136965
0.0014729
0.00157282
0.00166899
0.0017612
0.00184945
0.00193384
0.00201454
0.00209177
0.00216583
0.00223698
0.0023055
0.00237163
0.00243562
0.00249766
0.00255794
0.00261661
0.00267378
0.00272954
0.00278394
0.00283702
0.00288878
0.00293923
0.00298834
0.00303608
0.00308242
0.00312731
0.0031707
0.00321254
0.00325278
0.00329136
0.00332824
0.00336335
0.00339666
0.00342813
0.0034577
0.00348535
0.00351105
0.00353477
0.00355649
0.0035762
0.00359389
0.00360954
0.00362316
0.00363476
0.00364435
0.00365192
0.00365754
0.0036612
0.00366282
0.00366273
0.00366074
0.00365697
0.00365145
0.00364425
0.00363541
0.00362499
0.00361306
0.00359968
0.00358491
0.00356882
0.00355148
0.00353295
0.0035133
0.00349259
0.00347091
0.0034483
0.00342484
0.00340059
0.00337561
0.00334997
0.00332372
0.00329691
0.0032696
0.00324185
0.0032137
0.00318519
0.00315638
0.0031273
0.00309799
0.00306849
0.00303884
0.00300907
0.00297923
0.00294933
0.00291941
0.0028895
0.00285962
0.0028298
0.00280006
0.00277042
0.0027409
0.00271153
0.00268231
0.00265327
0.00262441
0.00259577
0.00256733
0.00253913
0.00251117
0.00248345
0.00245599
0.0024288
0.00240188
0.00237524
0.00234888
0.00232282
0.00229704
0.00227156
0.00224638
0.00222151
0.00219693
0.00217266
0.0021487
0.00212503
0.00210167
0.00207861
0.00205586
0.00203339
0.00201122
0.00198935
0.00196777
0.00194648
0.00192548
0.00190477
0.00188434
0.00186419
0.00184431
0.00182472
0.00180539
0.00178633
0.00176753
0.00174899
0.0017307
0.00171267
0.00169488
0.00167734
0.00166004
0.00164297
0.00162613
0.00160953
0.00159314
0.00157698
0.00156103
0.00154529
0.00152976
0.00151442
0.00149929
0.00148434
0.00146957
0.00145497
0.00144053
0.00142623
0.00141207
0.00139801
0.00138403
0.00137009
0.00135614
0.00134212
0.00132795
0.00131348
0.00129874
0.00128369
0.00125946
2.93932e-06
0.000128664
0.00027049
0.000406975
0.000537576
0.000641151
0.000718452
0.000780043
0.000836102
0.000894343
0.000962773
0.00105539
0.00116555
0.00128708
0.00140259
0.00151379
0.00162152
0.00172597
0.00182708
0.0019248
0.00201914
0.00211019
0.0021981
0.00228306
0.00236528
0.00244499
0.00252242
0.00259777
0.00267124
0.002743
0.00281318
0.00288192
0.00294928
0.00301535
0.00308016
0.00314373
0.00320606
0.00326714
0.00332693
0.00338539
0.00344249
0.00349815
0.00355233
0.00360496
0.00365598
0.00370531
0.0037529
0.00379869
0.0038426
0.00388458
0.00392458
0.00396254
0.00399842
0.00403217
0.00406376
0.00409316
0.00412033
0.00414526
0.00416793
0.00418834
0.00420646
0.00422231
0.0042359
0.00424723
0.00425631
0.00426319
0.00426791
0.00427036
0.0042708
0.00426916
0.00426549
0.00425985
0.00425228
0.00424286
0.00423163
0.00421865
0.00420401
0.00418775
0.00416996
0.00415069
0.00413003
0.00410804
0.00408479
0.00406036
0.00403483
0.00400825
0.00398071
0.00395227
0.003923
0.00389297
0.00386224
0.00383088
0.00379895
0.00376651
0.00373362
0.00370032
0.00366668
0.00363275
0.00359857
0.0035642
0.00352967
0.00349504
0.00346034
0.00342561
0.00339088
0.00335618
0.00332155
0.00328702
0.00325261
0.00321834
0.00318424
0.00315033
0.00311663
0.00308316
0.00304992
0.00301695
0.00298424
0.00295182
0.00291969
0.00288786
0.00285634
0.00282514
0.00279427
0.00276373
0.00273352
0.00270365
0.00267413
0.00264495
0.00261611
0.00258763
0.00255949
0.0025317
0.00250425
0.00247715
0.00245039
0.00242398
0.0023979
0.00237216
0.00234675
0.00232168
0.00229694
0.00227252
0.00224843
0.00222467
0.00220121
0.00217808
0.00215525
0.00213272
0.0021105
0.00208857
0.00206693
0.00204558
0.00202451
0.00200373
0.00198322
0.00196297
0.001943
0.00192328
0.00190383
0.00188462
0.00186566
0.00184695
0.00182847
0.00181022
0.00179219
0.00177437
0.00175676
0.00173934
0.0017221
0.00170501
0.00168807
0.00167122
0.00165445
0.00163769
0.00162088
0.00160396
0.00158676
0.00156937
0.00155142
0.00152529
2.75518e-06
0.000125157
0.000263799
0.000395332
0.000519866
0.000632144
0.00072608
0.000807565
0.00089148
0.000987403
0.00109722
0.00122233
0.00135882
0.00148623
0.00160644
0.00172137
0.00183198
0.00193863
0.00204165
0.0021414
0.00223809
0.00233193
0.00242312
0.00251186
0.00259837
0.00268284
0.00276547
0.00284642
0.00292586
0.00300391
0.00308068
0.00315624
0.00323066
0.00330396
0.00337615
0.00344724
0.0035172
0.00358598
0.00365355
0.00371985
0.0037848
0.00384835
0.00391041
0.00397091
0.00402977
0.00408691
0.00414226
0.00419574
0.00424728
0.0042968
0.00434425
0.00438956
0.00443267
0.00447354
0.00451212
0.00454836
0.00458224
0.00461372
0.00464278
0.0046694
0.00469358
0.00471531
0.00473459
0.00475142
0.00476582
0.00477781
0.00478742
0.00479466
0.00479959
0.00480216
0.00480255
0.00480073
0.00479677
0.00479071
0.00478261
0.00477253
0.00476053
0.00474668
0.00473104
0.00471369
0.00469468
0.0046741
0.00465201
0.00462849
0.0046036
0.00457743
0.00455005
0.00452153
0.00449193
0.00446134
0.00442982
0.00439744
0.00436426
0.00433036
0.0042958
0.00426063
0.00422493
0.00418875
0.00415214
0.00411517
0.00407789
0.00404035
0.0040026
0.00396468
0.00392664
0.00388853
0.00385037
0.00381222
0.00377409
0.00373603
0.00369807
0.00366023
0.00362254
0.00358504
0.00354773
0.00351064
0.00347379
0.0034372
0.00340088
0.00336485
0.00332912
0.00329371
0.00325861
0.00322386
0.00318944
0.00315537
0.00312166
0.00308831
0.00305532
0.0030227
0.00299044
0.00295856
0.00292705
0.00289591
0.00286514
0.00283474
0.0028047
0.00277504
0.00274574
0.00271681
0.00268824
0.00266003
0.00263218
0.00260468
0.00257753
0.00255073
0.00252428
0.00249816
0.00247238
0.00244693
0.0024218
0.002397
0.00237252
0.00234835
0.00232449
0.00230093
0.00227767
0.00225471
0.00223204
0.00220966
0.00218756
0.00216573
0.00214417
0.00212287
0.00210183
0.00208103
0.00206047
0.00204013
0.00202
0.00200005
0.00198027
0.00196061
0.00194105
0.00192153
0.00190198
0.00188233
0.00186244
0.00184239
0.00182164
0.00179331
2.33896e-06
0.000117866
0.000252631
0.000380644
0.000503519
0.000620021
0.00073101
0.000840488
0.000955885
0.00108225
0.00122073
0.00137079
0.00151299
0.00164487
0.00176903
0.00188736
0.00200098
0.00211052
0.00221637
0.00231874
0.00241803
0.00251462
0.00260882
0.00270087
0.00279101
0.00287944
0.00296634
0.00305187
0.00313617
0.00321934
0.00330146
0.0033826
0.00346278
0.00354202
0.00362032
0.00369764
0.00377395
0.00384919
0.0039233
0.0039962
0.00406781
0.00413806
0.00420684
0.00427407
0.00433966
0.00440352
0.00446556
0.00452569
0.00458383
0.0046399
0.00469382
0.00474553
0.00479496
0.00484206
0.00488676
0.00492902
0.00496881
0.00500608
0.00504081
0.00507298
0.00510258
0.00512959
0.00515401
0.00517585
0.00519511
0.00521181
0.00522598
0.00523764
0.00524681
0.00525354
0.00525786
0.0052598
0.00525946
0.00525685
0.00525204
0.00524507
0.00523602
0.00522495
0.00521191
0.00519698
0.00518022
0.0051617
0.0051415
0.00511969
0.00509633
0.00507151
0.00504529
0.00501774
0.00498895
0.00495898
0.0049279
0.00489578
0.00486269
0.0048287
0.00479387
0.00475827
0.00472197
0.00468502
0.00464749
0.00460944
0.00457092
0.004532
0.00449273
0.00445315
0.00441331
0.00437327
0.00433307
0.00429275
0.00425235
0.00421192
0.00417147
0.00413106
0.00409072
0.00405047
0.00401034
0.00397036
0.00393056
0.00389095
0.00385156
0.00381241
0.00377352
0.0037349
0.00369657
0.00365854
0.00362082
0.00358343
0.00354637
0.00350965
0.00347329
0.00343728
0.00340163
0.00336635
0.00333144
0.00329691
0.00326274
0.00322895
0.00319554
0.0031625
0.00312984
0.00309756
0.00306565
0.00303412
0.00300296
0.00297217
0.00294175
0.0029117
0.00288201
0.00285267
0.0028237
0.00279508
0.00276681
0.00273888
0.0027113
0.00268405
0.00265714
0.00263056
0.0026043
0.00257836
0.00255274
0.00252744
0.00250244
0.00247774
0.00245333
0.00242922
0.00240538
0.00238182
0.00235852
0.00233546
0.00231264
0.00229003
0.0022676
0.00224533
0.00222317
0.00220106
0.00217895
0.00215676
0.00213436
0.00211179
0.00208849
0.00205783
1.92441e-06
0.00011021
0.000242401
0.000369693
0.000495425
0.000619925
0.000745106
0.000874849
0.0010126
0.00116031
0.00131814
0.00147976
0.0016274
0.00176372
0.00189171
0.00201337
0.00212996
0.00224231
0.00235094
0.00245625
0.00255854
0.002658
0.00275507
0.00285011
0.0029434
0.00303519
0.00312567
0.003215
0.00330331
0.0033907
0.00347725
0.003563
0.00364798
0.00373218
0.00381558
0.00389814
0.0039798
0.00406051
0.00414017
0.0042187
0.00429601
0.004372
0.00444656
0.00451959
0.004591
0.00466067
0.00472851
0.00479442
0.00485831
0.00492009
0.00497968
0.00503699
0.00509196
0.00514453
0.00519462
0.0052422
0.00528721
0.00532962
0.0053694
0.00540651
0.00544095
0.0054727
0.00550175
0.00552811
0.00555179
0.00557279
0.00559114
0.00560687
0.00561999
0.00563055
0.00563858
0.00564412
0.00564724
0.00564796
0.00564636
0.00564249
0.0056364
0.00562816
0.00561782
0.00560546
0.00559114
0.00557493
0.0055569
0.00553712
0.00551567
0.00549261
0.00546803
0.00544198
0.00541455
0.0053858
0.00535581
0.00532464
0.00529237
0.00525906
0.00522478
0.00518959
0.00515357
0.00511677
0.00507925
0.00504109
0.00500234
0.00496305
0.00492329
0.0048831
0.00484254
0.00480166
0.0047605
0.00471912
0.00467755
0.00463584
0.00459403
0.00455215
0.00451025
0.00446835
0.00442649
0.0043847
0.00434301
0.00430145
0.00426003
0.00421879
0.00417774
0.00413691
0.00409631
0.00405596
0.00401588
0.00397609
0.00393658
0.00389739
0.00385851
0.00381995
0.00378174
0.00374386
0.00370633
0.00366915
0.00363234
0.00359588
0.00355979
0.00352406
0.0034887
0.00345372
0.0034191
0.00338486
0.00335099
0.00331749
0.00328436
0.0032516
0.00321921
0.00318719
0.00315552
0.00312422
0.00309328
0.0030627
0.00303246
0.00300258
0.00297304
0.00294385
0.00291499
0.00288647
0.00285829
0.00283043
0.0028029
0.00277568
0.00274878
0.00272218
0.00269588
0.00266988
0.00264415
0.00261869
0.00259348
0.00256851
0.00254373
0.00251913
0.00249466
0.00247026
0.00244588
0.00242143
0.00239681
0.00237201
0.00234651
0.00231369
1.53422e-06
0.000102062
0.000231945
0.000358919
0.000487624
0.000619004
0.000755716
0.000899681
0.00105257
0.00121489
0.00138717
0.00155295
0.00170457
0.00184474
0.00197624
0.00210101
0.00222041
0.00233537
0.00244654
0.00255443
0.00265942
0.0027618
0.00286186
0.00295977
0.00305598
0.00315076
0.00324435
0.00333694
0.00342868
0.00351967
0.00360997
0.00369965
0.00378869
0.00387711
0.00396486
0.0040519
0.00413815
0.00422354
0.00430798
0.00439136
0.00447358
0.00455453
0.0046341
0.00471217
0.00478862
0.00486335
0.00493625
0.00500721
0.00507612
0.0051429
0.00520745
0.00526969
0.00532954
0.00538693
0.00544179
0.00549408
0.00554373
0.00559071
0.00563499
0.00567653
0.00571531
0.00575133
0.00578457
0.00581503
0.00584273
0.00586767
0.00588986
0.00590934
0.00592614
0.00594027
0.00595179
0.00596073
0.00596714
0.00597107
0.00597256
0.0059717
0.00596853
0.00596311
0.00595549
0.00594574
0.00593394
0.00592014
0.00590442
0.00588685
0.0058675
0.00584645
0.00582376
0.00579951
0.00577376
0.0057466
0.00571808
0.00568828
0.00565727
0.00562512
0.00559189
0.00555765
0.00552246
0.00548639
0.0054495
0.00541186
0.00537353
0.00533456
0.00529501
0.00525493
0.00521439
0.00517342
0.00513208
0.00509041
0.00504847
0.0050063
0.00496393
0.00492141
0.00487878
0.00483607