/*--------------------------------*- C++ -*----------------------------------*\
| =========                 |                                                 |
| \\      /  F ield         | OpenFOAM: The Open Source CFD Toolbox           |
|  \\    /   O peration     | Version:  v2012                                 |
|   \\  /    A nd           | Website:  www.openfoam.com                      |
|    \\/     M anipulation  |                                                 |
\*---------------------------------------------------------------------------*/
FoamFile
{
    version     2.0;
    format      ascii;
    class       volVectorField;
    location    "2800";
    object      U;
}
// * * * * * * * * * * * * * * * * * * * * * * * * * * * * * * * * * * * * * //

dimensions      [0 1 -1 0 0 0 0];


internalField   nonuniform List<vector> 
12225
(
(9.2745 -4.73371 0)
(13.1094 -1.71343 0)
(12.4776 -0.395208 0)
(11.2768 -0.0422175 0)
(10.6311 0.0141946 0)
(10.2977 -0.000763738 0)
(10.0739 -0.00391742 0)
(9.90481 -0.0203117 0)
(9.76617 -0.0504208 0)
(9.64461 -0.0475116 0)
(9.53102 -0.036188 0)
(9.42443 -0.0319849 0)
(9.3265 -0.0298343 0)
(9.23715 -0.0228192 0)
(9.1559 -0.00733668 0)
(9.09009 0.00368547 0)
(9.02959 0.0111603 0)
(9.05279 0.0224531 0)
(10.2592 0.0928025 0)
(10.7814 0.199338 0)
(10.9593 0.24565 0)
(10.7468 0.229137 0)
(10.5874 0.172972 0)
(10.4521 0.115301 0)
(10.329 0.0819205 0)
(10.2315 0.0693093 0)
(10.1585 0.065198 0)
(10.0982 0.0585668 0)
(10.0454 0.0524985 0)
(9.99829 0.0501648 0)
(9.95534 0.0496613 0)
(9.91568 0.0484411 0)
(9.87806 0.0444717 0)
(9.84339 0.0388866 0)
(9.80727 0.0218874 0)
(9.77534 -0.00112365 0)
(9.87768 -0.24504 0)
(9.74284 0.005791 0)
(10.1971 0.125738 0)
(10.3244 0.179358 0)
(10.3563 0.161544 0)
(10.3308 0.119983 0)
(10.2777 0.0911687 0)
(10.2263 0.0753227 0)
(10.183 0.0658089 0)
(10.1459 0.0605291 0)
(10.1137 0.0572685 0)
(10.0848 0.0545564 0)
(10.0578 0.0518444 0)
(10.0325 0.0488147 0)
(10.0086 0.0451742 0)
(9.98668 0.0401567 0)
(9.96309 0.029053 0)
(9.93564 0.0102919 0)
(9.83416 -0.443933 0)
(9.57654 -0.163148 0)
(9.91602 0.0336635 0)
(10.0932 0.134216 0)
(10.1892 0.145463 0)
(10.2166 0.120721 0)
(10.2052 0.098501 0)
(10.1835 0.0839121 0)
(10.161 0.0740856 0)
(10.1394 0.0683338 0)
(10.1196 0.0646242 0)
(10.1012 0.0616363 0)
(10.0837 0.0589733 0)
(10.0668 0.0565214 0)
(10.0505 0.0537697 0)
(10.0343 0.0495794 0)
(10.0157 0.0412471 0)
(9.99142 0.029543 0)
(9.87825 -0.387477 0)
(9.61653 -0.19615 0)
(9.81622 -0.0186786 0)
(9.96134 0.0916026 0)
(10.0698 0.122185 0)
(10.1218 0.113644 0)
(10.1356 0.0996221 0)
(10.134 0.0883531 0)
(10.1264 0.0799049 0)
(10.1162 0.074285 0)
(10.1055 0.0704545 0)
(10.0946 0.0675915 0)
(10.0836 0.0652603 0)
(10.0724 0.0631931 0)
(10.0609 0.0608676 0)
(10.0484 0.0575961 0)
(10.033 0.0522433 0)
(10.0121 0.0461604 0)
(9.91439 -0.288041 0)
(9.68303 -0.18518 0)
(9.78716 -0.0532166 0)
(9.88916 0.0509877 0)
(9.98794 0.0936683 0)
(10.0476 0.0992258 0)
(10.0753 0.0940574 0)
(10.0866 0.0874175 0)
(10.0896 0.0814436 0)
(10.088 0.0769754 0)
(10.084 0.0737711 0)
(10.0788 0.071416 0)
(10.0726 0.0695829 0)
(10.0656 0.0680355 0)
(10.0575 0.066436 0)
(10.0479 0.0645045 0)
(10.0354 0.0620456 0)
(10.0184 0.0603968 0)
(9.93763 -0.214042 0)
(9.74855 -0.167539 0)
(9.79243 -0.0752229 0)
(9.85608 0.0162117 0)
(9.93594 0.0644151 0)
(9.99283 0.0806135 0)
(10.0262 0.0836332 0)
(10.045 0.082128 0)
(10.0549 0.0793408 0)
(10.0593 0.0767496 0)
(10.0605 0.074717 0)
(10.0596 0.0732191 0)
(10.057 0.0721391 0)
(10.0532 0.071378 0)
(10.0479 0.0708118 0)
(10.0409 0.0704544 0)
(10.0313 0.0705638 0)
(10.0182 0.0723267 0)
(9.95263 -0.167336 0)
(9.79947 -0.149683 0)
(9.81178 -0.0846546 0)
(9.84959 -0.00623056 0)
(9.91141 0.0419054 0)
(9.9611 0.0638724 0)
(9.99439 0.072518 0)
(10.0157 0.075146 0)
(10.0289 0.0752489 0)
(10.0368 0.0745716 0)
(10.041 0.0738225 0)
(10.0428 0.073271 0)
(10.0427 0.0730047 0)
(10.041 0.0730687 0)
(10.0377 0.0734993 0)
(10.0327 0.0744701 0)
(10.0255 0.0763891 0)
(10.0158 0.080225 0)
(9.96406 -0.132092 0)
(9.84003 -0.131995 0)
(9.83337 -0.0877028 0)
(9.85306 -0.0213521 0)
(9.89928 0.0243915 0)
(9.94105 0.0494901 0)
(9.97213 0.0620877 0)
(9.99395 0.0679541 0)
(10.0087 0.0704602 0)
(10.0185 0.0715032 0)
(10.0246 0.0720155 0)
(10.0283 0.0724508 0)
(10.0299 0.0730385 0)
(10.0298 0.0739331 0)
(10.0282 0.075288 0)
(10.0249 0.0773723 0)
(10.0198 0.0806442 0)
(10.0129 0.0858954 0)
(9.97418 -0.100207 0)
(9.87757 -0.112396 0)
(9.85857 -0.0853795 0)
(9.86388 -0.0323533 0)
(9.89487 0.00890244 0)
(9.92745 0.0351938 0)
(9.95445 0.0506666 0)
(9.97511 0.0593779 0)
(9.99022 0.0642393 0)
(10.001 0.0671011 0)
(10.0085 0.069014 0)
(10.0136 0.0705748 0)
(10.0167 0.0721376 0)
(10.0181 0.0739635 0)
(10.0181 0.0762946 0)
(10.0166 0.0794515 0)
(10.0136 0.0838784 0)
(10.0094 0.0901824 0)
(9.98253 -0.072712 0)
(9.91035 -0.0922029 0)
(9.88507 -0.0782595 0)
(9.88002 -0.0386316 0)
(9.89747 -0.00340696 0)
(9.92045 0.0221253 0)
(9.942 0.0391151 0)
(9.96006 0.0499575 0)
(9.97432 0.0568692 0)
(9.98524 0.0614695 0)
(9.99344 0.0648089 0)
(9.99947 0.0675577 0)
(10.0037 0.0701652 0)
(10.0065 0.0729654 0)
(10.0079 0.0762618 0)
(10.0081 0.0803839 0)
(10.0073 0.0857153 0)
(10.0057 0.092686 0)
(9.98894 -0.05026 0)
(9.93733 -0.072385 0)
(9.91073 -0.0674649 0)
(9.89917 -0.0400102 0)
(9.90567 -0.0116888 0)
(9.91957 0.0113971 0)
(9.935 0.028448 0)
(9.94939 0.0404532 0)
(9.96174 0.0488461 0)
(9.97193 0.0548881 0)
(9.98013 0.0595146 0)
(9.98663 0.0633964 0)
(9.99167 0.0670146 0)
(9.99548 0.0707452 0)
(9.99822 0.0749068 0)
(10.0001 0.0798104 0)
(10.0013 0.0857537 0)
(10.002 0.0930296 0)
(9.99348 -0.0329125 0)
(9.9582 -0.0538185 0)
(9.93368 -0.0543023 0)
(9.91899 -0.0368181 0)
(9.91756 -0.0154985 0)
(9.92367 0.00393127 0)
(9.93303 0.0196844 0)
(9.94321 0.0317476 0)
(9.95293 0.0408383 0)
(9.96166 0.0478052 0)
(9.96925 0.0533894 0)
(9.97572 0.058181 0)
(9.9812 0.0626396 0)
(9.98579 0.0671309 0)
(9.98964 0.0719582 0)
(9.99291 0.0773797 0)
(9.99579 0.0836289 0)
(9.99857 0.0908628 0)
(9.99643 -0.0202071 0)
(9.97327 -0.0372181 0)
(9.95261 -0.0400662 0)
(9.93731 -0.0298447 0)
(9.9309 -0.0148732 0)
(9.93103 0.00029729 0)
(9.93505 0.0136791 0)
(9.94106 0.0247143 0)
(9.94783 0.0335931 0)
(9.95466 0.0407847 0)
(9.96118 0.0468019 0)
(9.96724 0.0521009 0)
(9.9728 0.0570701 0)
(9.97788 0.0620185 0)
(9.98257 0.0672045 0)
(9.98697 0.0728277 0)
(9.99124 0.0790449 0)
(9.99558 0.085946 0)
(9.99816 -0.0112926 0)
(9.9833 -0.0229394 0)
(9.96682 -0.0257844 0)
(9.95243 -0.0201124 0)
(9.94344 -0.0102935 0)
(9.93953 0.00060341 0)
(9.93941 0.010934 0)
(9.94183 0.0200185 0)
(9.94583 0.0277656 0)
(9.95069 0.0343754 0)
(9.95597 0.0401484 0)
(9.96138 0.0453965 0)
(9.96678 0.0503943 0)
(9.97211 0.0553779 0)
(9.97737 0.0605276 0)
(9.9826 0.0659866 0)
(9.98789 0.0718391 0)
(9.99336 0.0781336 0)
(9.99906 -0.00508577 0)
(9.98922 -0.0107899 0)
(9.97612 -0.0119384 0)
(9.96309 -0.00851846 0)
(9.9531 -0.00248631 0)
(9.94686 0.0045074 0)
(9.94399 0.0114633 0)
(9.94384 0.017899 0)
(9.94569 0.0236866 0)
(9.94895 0.0288944 0)
(9.95315 0.0336781 0)
(9.95796 0.0382148 0)
(9.96316 0.0426692 0)
(9.96862 0.04718 0)
(9.97426 0.0518517 0)
(9.98007 0.0567557 0)
(9.98607 0.0619281 0)
(9.9923 0.067371 0)
(9.99942 -0.000372032 0)
(9.99181 0.000141669 0)
(9.98042 0.00181001 0)
(9.96821 0.00455918 0)
(9.9579 0.0078693 0)
(9.95061 0.0113337 0)
(9.94642 0.0147266 0)
(9.94497 0.0179752 0)
(9.94575 0.0210921 0)
(9.94823 0.0241477 0)
(9.95195 0.0272195 0)
(9.95656 0.0303888 0)
(9.9618 0.0337152 0)
(9.96749 0.0372465 0)
(9.97351 0.0410044 0)
(9.97979 0.0449976 0)
(9.98632 0.0492099 0)
(9.99306 0.0536131 0)
(9.99935 0.0040804 0)
(9.9911 0.0111597 0)
(9.97897 0.01611 0)
(9.96616 0.0187015 0)
(9.95552 0.0195651 0)
(9.94818 0.0194832 0)
(9.94419 0.0190794 0)
(9.9431 0.0187614 0)
(9.94435 0.0187722 0)
(9.94738 0.0192257 0)
(9.9517 0.0201661 0)
(9.95693 0.0215857 0)
(9.96279 0.0234574 0)
(9.9691 0.0257344 0)
(9.97571 0.0283691 0)
(9.98255 0.0313019 0)
(9.98957 0.0344801 0)
(9.99672 0.0378371 0)
(9.99882 0.00972584 0)
(9.98675 0.0240324 0)
(9.97122 0.031822 0)
(9.95642 0.0332588 0)
(9.94558 0.0306598 0)
(9.93942 0.0262941 0)
(9.93734 0.0216804 0)
(9.93843 0.0176557 0)
(9.94184 0.0145947 0)
(9.94683 0.0125885 0)
(9.95286 0.0115848 0)
(9.95956 0.0114618 0)
(9.96665 0.0120849 0)
(9.97397 0.0133169 0)
(9.98142 0.0150366 0)
(9.98893 0.0171324 0)
(9.99647 0.0195102 0)
(10.004 0.0220843 0)
(9.99757 0.0182066 0)
(9.97774 0.0404384 0)
(9.95665 0.0495519 0)
(9.93945 0.047445 0)
(9.92962 0.0393817 0)
(9.92659 0.0296008 0)
(9.92848 0.0204348 0)
(9.93355 0.0129051 0)
(9.94052 0.00727228 0)
(9.94851 0.00342944 0)
(9.95698 0.00111281 0)
(9.96559 3.81549e-05 0)
(9.97417 -5.90355e-05 0)
(9.98264 0.000593908 0)
(9.99094 0.00181089 0)
(9.99909 0.00344151 0)
(10.0071 0.00536109 0)
(10.0149 0.00747524 0)
(9.99502 0.0318118 0)
(9.96178 0.0621174 0)
(9.93372 0.0695269 0)
(9.91535 0.0600815 0)
(9.90933 0.0439127 0)
(9.9125 0.0276197 0)
(9.92085 0.0139543 0)
(9.93162 0.00359077 0)
(9.9432 -0.00368822 0)
(9.95475 -0.00842629 0)
(9.96587 -0.0111959 0)
(9.97641 -0.0124888 0)
(9.98638 -0.0126994 0)
(9.9958 -0.0121244 0)
(10.0047 -0.0109943 0)
(10.0133 -0.00948203 0)
(10.0215 -0.00771646 0)
(10.0294 -0.00579991 0)
(9.99018 0.0534597 0)
(9.93561 0.0901377 0)
(9.90099 0.0906046 0)
(9.88516 0.0687251 0)
(9.88782 0.0417834 0)
(9.90123 0.0186254 0)
(9.91857 0.00138437 0)
(9.93627 -0.0104251 0)
(9.95285 -0.0179651 0)
(9.96782 -0.0223969 0)
(9.9812 -0.0246582 0)
(9.99318 -0.0254261 0)
(10.004 -0.0251831 0)
(10.0139 -0.024253 0)
(10.023 -0.0228767 0)
(10.0316 -0.0212128 0)
(10.0397 -0.0193871 0)
(10.0473 -0.017481 0)
(9.9819 0.0862457 0)
(9.89549 0.124246 0)
(9.85818 0.109863 0)
(9.85211 0.0697437 0)
(9.87036 0.0303038 0)
(9.89846 0.00141691 0)
(9.92661 -0.0172269 0)
(9.95137 -0.0283405 0)
(9.97222 -0.0343983 0)
(9.98959 -0.0372669 0)
(10.0042 -0.0381381 0)
(10.0166 -0.0377817 0)
(10.0274 -0.0366445 0)
(10.037 -0.0350751 0)
(10.0457 -0.0332439 0)
(10.0536 -0.0312839 0)
(10.0611 -0.02928 0)
(10.0681 -0.027297 0)
(9.96925 0.133989 0)
(9.83823 0.16308 0)
(9.80793 0.122572 0)
(9.82313 0.0587711 0)
(9.86516 0.00727185 0)
(9.91143 -0.0240596 0)
(9.95039 -0.0406128 0)
(9.98054 -0.0483692 0)
(10.0035 -0.0511927 0)
(10.0212 -0.0513921 0)
(10.0352 -0.0502606 0)
(10.0466 -0.0484023 0)
(10.0562 -0.0462231 0)
(10.0645 -0.0438982 0)
(10.0719 -0.0415675 0)
(10.0787 -0.0392714 0)
(10.0849 -0.0370649 0)
(10.0908 -0.0350025 0)
(9.94951 0.20714 0)
(9.76128 0.207016 0)
(9.75726 0.123461 0)
(9.81044 0.0319827 0)
(9.88386 -0.0279015 0)
(9.9488 -0.056038 0)
(9.99533 -0.0660944 0)
(10.0267 -0.0678384 0)
(10.0481 -0.0660303 0)
(10.0631 -0.0629797 0)
(10.0741 -0.059653 0)
(10.0827 -0.0563374 0)
(10.0896 -0.0531385 0)
(10.0955 -0.050164 0)
(10.1006 -0.047414 0)
(10.1053 -0.0448641 0)
(10.1096 -0.0424997 0)
(10.1137 -0.0403679 0)
(9.91094 0.322718 0)
(9.65922 0.254541 0)
(9.71887 0.107392 0)
(9.8333 -0.0119529 0)
(9.94177 -0.0727007 0)
(10.02 -0.0902285 0)
(10.0662 -0.0893704 0)
(10.0918 -0.0833127 0)
(10.1061 -0.0763956 0)
(10.1144 -0.0702969 0)
(10.1195 -0.0651769 0)
(10.1231 -0.0607217 0)
(10.1257 -0.056745 0)
(10.1277 -0.0533635 0)
(10.1294 -0.0503802 0)
(10.131 -0.0477812 0)
(10.1325 -0.0453266 0)
(10.1339 -0.0431778 0)
(9.84404 0.43511 0)
(9.53797 0.261024 0)
(9.7269 0.059121 0)
(9.92369 -0.0731455 0)
(10.0584 -0.121608 0)
(10.1345 -0.120276 0)
(10.1665 -0.105358 0)
(10.1757 -0.0910873 0)
(10.1757 -0.0799075 0)
(10.1724 -0.0718626 0)
(10.1685 -0.0661253 0)
(10.1646 -0.0611575 0)
(10.1606 -0.0566806 0)
(10.1567 -0.0528583 0)
(10.1532 -0.0498171 0)
(10.1502 -0.0475193 0)
(10.1477 -0.0450405 0)
(10.1453 -0.0427453 0)
(9.83598 0.319667 0)
(9.5502 0.0912487 0)
(9.91739 -0.0687342 0)
(10.1507 -0.160135 0)
(10.2635 -0.172183 0)
(10.3033 -0.142816 0)
(10.2976 -0.112219 0)
(10.2753 -0.0909752 0)
(10.2514 -0.0771333 0)
(10.2304 -0.0684881 0)
(10.2132 -0.0633718 0)
(10.1985 -0.0588896 0)
(10.1847 -0.0540604 0)
(10.1718 -0.0493729 0)
(10.1598 -0.0451645 0)
(10.1496 -0.0423089 0)
(10.1411 -0.0396675 0)
(10.133 -0.0377946 0)
(10.2049 -0.0633777 0)
(10.4095 -0.191709 0)
(10.7164 -0.282554 0)
(10.6879 -0.282292 0)
(10.6191 -0.230117 0)
(10.5417 -0.163746 0)
(10.4538 -0.117605 0)
(10.3752 -0.0935985 0)
(10.3137 -0.0804732 0)
(10.2656 -0.0697532 0)
(10.2262 -0.0607033 0)
(10.1922 -0.0564398 0)
(10.1619 -0.0557426 0)
(10.1342 -0.0547197 0)
(10.1085 -0.0517823 0)
(10.0845 -0.0470544 0)
(10.064 -0.0456737 0)
(10.0485 -0.0447291 0)
(9.41631 4.45107 0)
(12.7294 2.07612 0)
(12.5649 0.621225 0)
(11.5691 0.127666 0)
(10.9311 0.00343086 0)
(10.5863 -0.00225275 0)
(10.3631 0.0138767 0)
(10.2009 0.0311946 0)
(10.0782 0.0445975 0)
(9.9767 0.0436603 0)
(9.88402 0.0327929 0)
(9.79832 0.0309148 0)
(9.72264 0.0349737 0)
(9.6575 0.0320941 0)
(9.59967 0.0259098 0)
(9.54696 -0.000117621 0)
(9.49712 -0.00418248 0)
(9.44806 0.0038685 0)
(-0.0249899 0.0909151 0)
(0.137436 -0.182577 0)
(0.325825 -0.304456 0)
(0.525599 -0.313553 0)
(0.702291 -0.270809 0)
(0.831834 -0.210062 0)
(0.907198 -0.145252 -8.60355e-20)
(0.936894 -0.0813264 8.67169e-20)
(0.914895 -0.0190592 0)
(0.853275 0.0356133 9.20937e-20)
(0.76544 0.0747481 0)
(0.665853 0.0923426 0)
(0.572048 0.0876016 0)
(0.499583 0.0662811 -1.44173e-19)
(0.449617 0.037353 0)
(0.405412 0.00993959 0)
(0.344909 -0.00835258 1.89749e-19)
(0.259019 -0.00780551 0)
(0.123166 0.0109127 0)
(-0.075498 0.111528 0)
(-0.30504 0.206782 -1.39716e-19)
(-0.601047 0.247727 0)
(-0.928973 0.2696 -7.48955e-20)
(-1.26392 0.296686 0)
(-1.60256 0.323484 0)
(-1.94142 0.336027 -4.11589e-20)
(-2.27296 0.335048 0)
(-2.58923 0.325765 3.44659e-20)
(-2.88707 0.309518 0)
(-3.16318 0.288679 -3.13019e-20)
(-3.41665 0.265554 0)
(-3.64712 0.241716 0)
(-3.85533 0.218188 0)
(-4.04238 0.195666 0)
(-4.20972 0.17452 0)
(-4.3589 0.154952 2.82108e-20)
(-4.4915 0.136993 0)
(-4.609 0.120571 -5.55332e-20)
(-4.71278 0.105558 0)
(-4.80405 0.0917941 5.47334e-20)
(-4.88385 0.0791177 0)
(-4.95308 0.0673779 0)
(-5.01248 0.0564472 -5.35091e-20)
(-5.06267 0.0462303 0)
(-5.10416 0.0366684 -5.26157e-20)
(-5.13735 0.0277455 5.2137e-20)
(-5.16263 0.0195074 0)
(-5.18039 0.0121015 5.11086e-20)
(-5.19091 0.00579078 5.05559e-20)
(-5.19435 0.000724428 0)
(-5.19198 -0.00319788 0)
(-5.18501 -0.00645105 0)
(-5.17359 -0.00939958 0)
(-5.15803 -0.0121078 0)
(-5.1385 -0.0146744 -4.61304e-20)
(-5.11512 -0.0171128 0)
(-5.08802 -0.0194343 4.42636e-20)
(-5.0573 -0.0216478 0)
(-5.02305 -0.0237555 0)
(-4.98539 -0.0257592 -4.10832e-20)
(-4.94441 -0.0276592 0)
(-4.90023 -0.0294555 3.87059e-20)
(-4.85295 -0.0311479 0)
(-4.80268 -0.0327364 0)
(-4.74955 -0.0342208 0)
(-4.69366 -0.035601 -3.33228e-20)
(-4.63516 -0.0368773 0)
(-4.57415 -0.0380509 0)
(-4.51077 -0.039122 -2.87224e-20)
(-4.44515 -0.0400915 0)
(-4.37741 -0.0409607 -2.53789e-20)
(-4.30769 -0.041731 0)
(-4.23613 -0.042404 0)
(-4.16285 -0.0429816 0)
(-4.08798 -0.0434658 1.79963e-20)
(-4.01165 -0.0438592 0)
(-3.934 -0.0441643 0)
(-3.85514 -0.044384 1.18098e-20)
(-3.77521 -0.0445214 9.61435e-21)
(-3.69432 -0.0445797 0)
(-3.6126 -0.044562 5.00878e-21)
(-3.53016 -0.0444713 0)
(-3.44711 -0.0443106 1.92663e-22)
(-3.36355 -0.0440834 0)
(-3.2796 -0.0437946 -1.03074e-20)
(-3.19534 -0.043452 0)
(-3.11087 -0.0430688 2.15615e-20)
(-3.02626 -0.0426649 0)
(-2.94159 -0.0422706 0)
(-2.85692 -0.0419303 0)
(-2.77228 -0.0417072 -4.67816e-20)
(-2.68769 -0.0416844 0)
(-2.60317 -0.0419512 6.10755e-20)
(-2.51867 -0.0425623 0)
(-2.43417 -0.0434555 -7.67674e-20)
(-2.34992 -0.0443549 -8.51574e-20)
(-2.26615 -0.0447994 -9.38769e-20)
(-2.18313 -0.044582 0)
(-2.10102 -0.043974 0)
(-2.01984 -0.0432755 0)
(-1.9396 -0.0425709 0)
(-1.86031 -0.0418711 0)
(-1.782 -0.0411771 0)
(-1.70469 -0.0404905 0)
(-1.6284 -0.0398155 0)
(-1.55316 -0.0391574 1.93152e-19)
(-1.47898 -0.0385238 2.07502e-19)
(-1.40588 -0.0379196 0)
(-1.33387 -0.0373338 0)
(-1.26298 -0.0367081 0)
(-1.19325 -0.0360505 2.74918e-19)
(-1.12468 -0.0354174 0)
(-1.05727 -0.0348027 0)
(-0.991016 -0.0342078 0)
(-0.925931 -0.0336348 0)
(-0.862012 -0.0330852 -3.9188e-19)
(-0.799257 -0.0325621 0)
(-0.737661 -0.032068 0)
(-0.677218 -0.0316072 4.90392e-19)
(-0.617922 -0.0311804 -5.3024e-19)
(-0.559767 -0.0307919 0)
(-0.502743 -0.0304518 -6.24241e-19)
(-0.446838 -0.0301849 0)
(-0.392034 -0.0300354 7.43791e-19)
(-0.33831 -0.0300131 0)
(-0.285653 -0.0300785 0)
(-0.234048 -0.0302211 0)
(-0.183464 -0.0304509 0)
(-0.133879 -0.0307845 0)
(-0.0853371 -0.0312406 -2.86134e-18)
(-0.0380662 -0.0316971 -3.2965e-18)
(0.00801441 -0.0313578 0)
(0.0534455 -0.0298213 0)
(0.0982012 -0.0279695 0)
(0.142135 -0.0262561 2.67706e-18)
(0.185155 -0.0247267 0)
(0.227238 -0.0233569 0)
(0.26841 -0.0221221 0)
(0.308706 -0.0210032 2.03614e-18)
(0.348162 -0.019982 -1.93038e-18)
(0.386804 -0.0190452 0)
(0.424656 -0.0181807 0)
(0.461737 -0.0173806 -1.68479e-18)
(0.498072 -0.0166364 -1.62039e-18)
(0.533681 -0.0159429 0)
(0.568589 -0.0152939 0)
(0.602818 -0.0146863 1.46268e-18)
(0.63639 -0.0141154 -1.41933e-18)
(0.669333 -0.0135789 0)
(0.701671 -0.0130734 0)
(0.733431 -0.0125971 -1.30939e-18)
(0.764634 -0.0121475 0)
(0.795303 -0.0117234 0)
(0.825459 -0.011323 -1.22217e-18)
(0.855125 -0.0109451 0)
(0.884323 -0.0105883 -1.17326e-18)
(0.913076 -0.0102516 0)
(0.941408 -0.00993388 0)
(0.969339 -0.00963414 0)
(0.996893 -0.00935136 1.09148e-18)
(1.02409 -0.0090843 0)
(1.05095 -0.00883189 0)
(1.07749 -0.00859238 0)
(1.10373 -0.00836428 0)
(1.12968 -0.00814491 0)
(1.15533 -0.00793173 0)
(1.18068 -0.00772042 9.82742e-19)
(1.20571 -0.00750624 9.69808e-19)
(1.23038 -0.00728176 0)
(1.25462 -0.00703787 0)
(1.27832 -0.00676076 0)
(1.30131 -0.0064319 -9.24371e-19)
(1.32337 -0.0060222 0)
(1.34407 -0.0054906 1.81353e-18)
(1.36297 -0.00475708 -1.80013e-18)
(1.37867 -0.00370935 -1.79133e-18)
(1.39123 -0.00195934 1.78955e-18)
(1.39151 0.001374 -1.79527e-18)
(1.38887 0.00810483 1.80762e-18)
(1.3094 0.0198589 0)
(0.0969358 -0.271892 0)
(0.332998 -0.68154 0)
(0.512994 -0.70522 1.5728e-19)
(0.610199 -0.569428 0)
(0.660789 -0.406684 -1.11221e-19)
(0.680725 -0.251461 -1.08247e-19)
(0.67421 -0.109704 -5.63771e-20)
(0.643319 0.0181151 -5.62985e-20)
(0.600029 0.127836 0)
(0.54037 0.214046 -6.09699e-20)
(0.463072 0.268899 0)
(0.368058 0.283767 0)
(0.251529 0.256138 1.71543e-19)
(0.103052 0.211579 9.90109e-20)
(-0.0831788 0.208465 -1.84298e-19)
(-0.310827 0.275489 -1.42766e-19)
(-0.590009 0.387087 -5.67999e-20)
(-0.916014 0.515613 0)
(-1.27065 0.642288 0)
(-1.62776 0.754877 0)
(-1.98064 0.841257 -2.83583e-20)
(-2.32645 0.894739 0)
(-2.65611 0.917559 6.88615e-20)
(-2.96227 0.913606 0)
(-3.24104 0.886807 0)
(-3.49069 0.842394 1.98111e-20)
(-3.71005 0.785729 0)
(-3.9 0.722329 -1.97616e-20)
(-4.06255 0.656362 -4.1794e-20)
(-4.20121 0.590516 2.01729e-20)
(-4.31889 0.526897 0)
(-4.41848 0.467253 0)
(-4.50269 0.412398 0)
(-4.57389 0.362674 -4.42542e-20)
(-4.63414 0.318032 -4.47578e-20)
(-4.68511 0.278199 -2.21868e-20)
(-4.72817 0.242762 0)
(-4.76443 0.21124 4.52938e-20)
(-4.79475 0.183136 0)
(-4.81987 0.157972 -4.58589e-20)
(-4.84035 0.135308 0)
(-4.8567 0.114754 0)
(-4.86933 0.0959698 4.60616e-20)
(-4.8786 0.0786671 0)
(-4.88487 0.0626068 1.38072e-19)
(-4.88843 0.0475964 -4.55763e-20)
(-4.88958 0.0335018 0)
(-4.88855 0.020295 -4.49041e-20)
(-4.8856 0.00809384 -4.44455e-20)
(-4.881 -0.00293864 0)
(-4.87381 -0.0128647 0)
(-4.86295 -0.0219807 0)
(-4.84841 -0.0305241 0)
(-4.83008 -0.03861 0)
(-4.80801 -0.046308 4.01743e-20)
(-4.78224 -0.0536543 7.90777e-20)
(-4.75285 -0.0606699 -3.83957e-20)
(-4.71994 -0.0673659 0)
(-4.68358 -0.0737479 7.33957e-20)
(-4.64386 -0.0798183 -3.59209e-20)
(-4.6009 -0.085578 0)
(-4.55478 -0.0910265 -3.32196e-20)
(-4.50562 -0.0961638 0)
(-4.45353 -0.100991 0)
(-4.3986 -0.10551 -5.97936e-20)
(-4.34097 -0.109721 2.83355e-20)
(-4.28076 -0.113624 -5.45991e-20)
(-4.21807 -0.117222 5.18789e-20)
(-4.15304 -0.120519 2.42416e-20)
(-4.0858 -0.123518 0)
(-4.01646 -0.126226 2.1307e-20)
(-3.94516 -0.128648 0)
(-3.87203 -0.130791 0)
(-3.7972 -0.132662 0)
(-3.72078 -0.134269 1.55769e-20)
(-3.64291 -0.13562 0)
(-3.56372 -0.136726 2.36468e-20)
(-3.48332 -0.137595 -2.97913e-20)
(-3.40185 -0.138238 -7.87954e-21)
(-3.31941 -0.138666 0)
(-3.23612 -0.138889 -4.07638e-21)
(-3.1521 -0.13892 0)
(-3.06746 -0.13877 -1.56275e-22)
(-2.9823 -0.138451 0)
(-2.89672 -0.137976 8.25594e-21)
(-2.81082 -0.137357 -2.38593e-20)
(-2.72469 -0.136605 -1.71161e-20)
(-2.63843 -0.135731 0)
(-2.55213 -0.134744 0)
(-2.46587 -0.133647 0)
(-2.37976 -0.132441 3.63509e-20)
(-2.29391 -0.131116 0)
(-2.20844 -0.129645 -4.68326e-20)
(-2.12353 -0.12797 0)
(-2.03929 -0.126041 1.72445e-19)
(-1.9558 -0.123883 6.38272e-20)
(-1.87308 -0.1216 6.98653e-20)
(-1.79106 -0.119295 0)
(-1.70973 -0.117028 0)
(-1.62914 -0.114795 0)
(-1.54935 -0.112573 0)
(-1.47043 -0.110349 0)
(-1.3924 -0.108118 2.19997e-19)
(-1.31529 -0.105882 2.35511e-19)
(-1.23915 -0.103642 0)
(-1.164 -0.101404 -1.35049e-19)
(-1.08986 -0.0991682 -1.43843e-19)
(-1.01676 -0.0969375 0)
(-0.944716 -0.0947137 -3.23701e-19)
(-0.873755 -0.0925011 0)
(-0.803864 -0.0903137 1.81691e-19)
(-0.735053 -0.0881567 0)
(-0.667335 -0.0860308 0)
(-0.600712 -0.0839378 -4.35325e-19)
(-0.535188 -0.0818797 0)
(-0.470764 -0.0798576 2.45329e-19)
(-0.407439 -0.077875 0)
(-0.345212 -0.0759371 0)
(-0.284077 -0.0740532 2.90375e-19)
(-0.224025 -0.0722205 3.09728e-19)
(-0.16505 -0.0704347 0)
(-0.107146 -0.0686979 -3.47128e-19)
(-0.0503182 -0.0670109 0)
(0.00543784 -0.0653641 3.83085e-19)
(0.0601664 -0.0637522 7.66252e-19)
(0.113898 -0.0621859 0)
(0.166632 -0.0606802 0)
(0.218368 -0.0592389 0)
(0.269123 -0.0578604 0)
(0.318928 -0.0565473 7.09339e-19)
(0.367855 -0.0552881 2.09677e-18)
(0.415988 -0.0539024 0)
(0.463231 -0.0522469 0)
(0.509451 -0.05047 0)
(0.554726 -0.0487235 -6.65763e-19)
(0.599132 -0.0470567 0)
(0.642694 -0.0454783 0)
(0.685432 -0.0439846 1.28825e-18)
(0.727366 -0.0425695 6.37113e-19)
(0.768522 -0.0412246 6.32595e-19)
(0.808919 -0.039944 0)
(0.848578 -0.0387218 0)
(0.887518 -0.0375546 6.16079e-19)
(0.92576 -0.0364379 -6.09853e-19)
(0.963325 -0.0353697 0)
(1.00023 -0.0343464 0)
(1.03651 -0.0333672 -5.97015e-19)
(1.07217 -0.0324287 1.77709e-18)
(1.10724 -0.0315307 0)
(1.14174 -0.0306703 0)
(1.1757 -0.0298473 5.80582e-19)
(1.20914 -0.0290596 0)
(1.24208 -0.0283072 1.1455e-18)
(1.27453 -0.0275881 -5.68832e-19)
(1.30653 -0.0269024 0)
(1.3381 -0.0262481 5.62732e-19)
(1.36925 -0.0256252 1.1182e-18)
(1.40001 -0.0250317 0)
(1.43039 -0.0244674 0)
(1.46043 -0.0239299 -5.49906e-19)
(1.49013 -0.0234181 0)
(1.51952 -0.0229293 1.08708e-18)
(1.54861 -0.022461 0)
(1.57742 -0.0220089 0)
(1.60595 -0.0215682 0)
(1.6342 -0.0211321 0)
(1.66217 -0.0206916 -5.29247e-19)
(1.68984 -0.0202346 -5.26459e-19)
(1.71716 -0.0197446 0)
(1.74409 -0.0191991 0)
(1.77053 -0.0185663 0)
(1.79633 -0.0178011 5.16276e-19)
(1.82129 -0.0168357 0)
(1.84509 -0.0155684 -1.02505e-18)
(1.8673 -0.0138202 1.02278e-18)
(1.88701 -0.0113095 1.02234e-18)
(1.90376 -0.00729781 1.02346e-18)
(1.91396 -0.000502452 1.02877e-18)
(1.92616 0.0124672 1.02014e-18)
(1.90661 0.0362496 0)
(0.118669 -0.861437 0)
(0.266992 -1.0528 0)
(0.313919 -0.823132 -1.25658e-19)
(0.313 -0.581212 -1.08172e-19)
(0.295286 -0.370636 1.0065e-19)
(0.263764 -0.18539 1.00926e-19)
(0.217224 -0.0198622 -6.4702e-22)
(0.15496 0.127879 0)
(0.0768221 0.258322 0)
(-0.0184477 0.368983 0)
(-0.13451 0.454225 0)
(-0.279571 0.514964 0)
(-0.466626 0.569132 -2.66093e-19)
(-0.705849 0.64488 0)
(-0.992915 0.758371 6.58883e-20)
(-1.31181 0.90038 5.6858e-20)
(-1.64469 1.04756 0)
(-1.97504 1.18008 0)
(-2.28794 1.28587 0)
(-2.57111 1.35897 0)
(-2.81879 1.39444 3.48379e-20)
(-3.03132 1.39103 0)
(-3.21021 1.35387 -3.23004e-20)
(-3.35847 1.29085 0)
(-3.48045 1.20922 0)
(-3.58072 1.11532 0)
(-3.66407 1.01515 -6.85766e-20)
(-3.73482 0.913974 0)
(-3.79648 0.815874 3.31271e-20)
(-3.85181 0.723593 -7.07022e-20)
(-3.90269 0.638621 0)
(-3.95042 0.56167 0)
(-3.99572 0.492776 0)
(-4.03897 0.431548 3.65652e-20)
(-4.08026 0.377333 3.71491e-20)
(-4.11955 0.32936 0)
(-4.15669 0.286836 0)
(-4.19153 0.249003 -7.77703e-20)
(-4.22387 0.21517 -7.81581e-20)
(-4.25355 0.184732 7.83864e-20)
(-4.28045 0.157173 0)
(-4.30443 0.132067 0)
(-4.32541 0.109069 0)
(-4.34331 0.0878956 0)
(-4.35809 0.0683156 -7.69542e-20)
(-4.36967 0.0501304 -7.68529e-20)
(-4.37799 0.0331565 7.62079e-20)
(-4.38292 0.0171933 0)
(-4.38427 0.00198451 0)
(-4.3819 -0.0127567 0)
(-4.37575 -0.0271575 0)
(-4.36586 -0.0411299 -7.10349e-20)
(-4.35231 -0.0545856 0)
(-4.33512 -0.0675118 0)
(-4.31434 -0.0799126 -6.69203e-20)
(-4.29001 -0.0917969 -6.48938e-20)
(-4.26221 -0.103172 0)
(-4.23099 -0.114041 1.24415e-19)
(-4.19645 -0.124408 -5.99531e-20)
(-4.15867 -0.13427 5.81756e-20)
(-4.11772 -0.143627 0)
(-4.07372 -0.152476 0)
(-4.02676 -0.160816 0)
(-3.97694 -0.168645 0)
(-3.92437 -0.175966 4.83394e-20)
(-3.86916 -0.182782 9.36082e-20)
(-3.81142 -0.18909 4.39722e-20)
(-3.75128 -0.194895 -4.16991e-20)
(-3.68885 -0.200202 0)
(-3.62426 -0.205019 7.52489e-20)
(-3.55763 -0.209352 7.03636e-20)
(-3.48907 -0.213211 6.53619e-20)
(-3.41873 -0.216607 -6.02444e-20)
(-3.34672 -0.219551 0)
(-3.27316 -0.222054 -7.38177e-20)
(-3.19818 -0.224132 0)
(-3.12191 -0.225799 1.99992e-20)
(-3.04446 -0.227069 1.57744e-20)
(-2.96596 -0.227959 0)
(-2.88652 -0.228486 0)
(-2.80626 -0.228667 1.51578e-20)
(-2.72529 -0.228519 0)
(-2.64372 -0.228062 2.71699e-21)
(-2.56166 -0.227313 0)
(-2.47921 -0.226292 1.02131e-20)
(-2.39648 -0.225018 3.51621e-20)
(-2.31355 -0.22351 0)
(-2.23054 -0.221788 0)
(-2.14753 -0.21987 0)
(-2.06462 -0.217775 4.48195e-20)
(-1.98191 -0.215516 0)
(-1.89949 -0.213106 5.96516e-20)
(-1.81746 -0.210545 0)
(-1.73592 -0.207819 0)
(-1.65492 -0.2049 -1.67586e-19)
(-1.57451 -0.201774 0)
(-1.4947 -0.198456 -9.95935e-20)
(-1.4155 -0.194989 0)
(-1.33695 -0.191431 -1.16888e-19)
(-1.25908 -0.187819 0)
(-1.18198 -0.184171 0)
(-1.10568 -0.180495 0)
(-1.03023 -0.176797 -4.63689e-19)
(-0.955659 -0.173083 -1.65387e-19)
(-0.882005 -0.169361 0)
(-0.809293 -0.165637 0)
(-0.737546 -0.161918 0)
(-0.666788 -0.158207 0)
(-0.597034 -0.154509 2.19246e-19)
(-0.528297 -0.150831 -4.59308e-19)
(-0.460583 -0.147181 -2.4311e-19)
(-0.393903 -0.143569 5.08567e-19)
(-0.328268 -0.139998 5.34401e-19)
(-0.263682 -0.136476 2.81872e-19)
(-0.20015 -0.133005 0)
(-0.13767 -0.129585 6.17296e-19)
(-0.0762454 -0.126219 0)
(-0.0158768 -0.122909 -6.74395e-19)
(0.0434426 -0.119659 -3.45416e-19)
(0.101726 -0.116469 0)
(0.158979 -0.113341 6.93622e-19)
(0.215208 -0.110278 3.49077e-19)
(0.270423 -0.107282 0)
(0.324634 -0.10434 3.48963e-19)
(0.377849 -0.101444 -1.05353e-18)
(0.430076 -0.098602 0)
(0.48133 -0.0958248 0)
(0.531628 -0.0931149 0)
(0.580988 -0.0904735 0)
(0.62943 -0.0879056 -7.08203e-19)
(0.676991 -0.0854187 -7.10696e-19)
(0.723691 -0.0830283 0)
(0.769496 -0.0807188 0)
(0.814392 -0.0784496 0)
(0.858436 -0.076222 0)
(0.901667 -0.0740528 0)
(0.944101 -0.0719507 0)
(0.98575 -0.0699178 -7.14482e-19)
(1.02663 -0.0679536 -1.08774e-21)
(1.06677 -0.0660562 0)
(1.10618 -0.0642238 0)
(1.14488 -0.0624544 -7.14339e-19)
(1.18288 -0.0607468 0)
(1.22022 -0.0590989 7.15398e-19)
(1.25691 -0.0575097 7.14544e-19)
(1.29296 -0.0559775 0)
(1.32841 -0.0545015 0)
(1.36327 -0.0530798 -7.15095e-19)
(1.39756 -0.0517122 -1.42842e-18)
(1.4313 -0.0503965 0)
(1.46453 -0.0491329 0)
(1.49725 -0.0479193 0)
(1.52949 -0.046756 -7.13838e-19)
(1.56126 -0.045641 7.13466e-19)
(1.5926 -0.0445745 0)
(1.62353 -0.0435544 1.42409e-18)
(1.65405 -0.0425805 7.11033e-19)
(1.6842 -0.0416506 -1.42204e-18)
(1.714 -0.0407641 0)
(1.74346 -0.039918 0)
(1.77261 -0.0391106 -1.4182e-18)
(1.80146 -0.0383378 -7.08797e-19)
(1.83002 -0.0375959 0)
(1.85832 -0.0368786 0)
(1.88637 -0.0361786 0)
(1.91416 -0.0354852 0)
(1.94169 -0.0347853 -1.40783e-18)
(1.96894 -0.0340601 0)
(1.9959 -0.0332848 0)
(2.0225 -0.0324253 0)
(2.04868 -0.0314333 0)
(2.07432 -0.0302412 0)
(2.09924 -0.0287475 0)
(2.12318 -0.0268016 -1.39808e-18)
(2.14582 -0.0241509 0)
(2.16647 -0.020392 0)
(2.1849 -0.0147309 -2.81735e-18)
(2.19832 -0.00584607 1.41866e-18)
(2.21296 0.00892164 -1.41659e-18)
(2.20785 0.0363226 1.41223e-18)
(0.0333017 -1.16454 0)
(0.0682869 -1.02606 3.60314e-19)
(0.0323049 -0.74319 0)
(-0.0125006 -0.502705 1.10898e-19)
(-0.0683103 -0.279802 0)
(-0.136664 -0.070014 0)
(-0.220415 0.127001 -8.2646e-20)
(-0.32195 0.310483 0)
(-0.443399 0.48 0)
(-0.5874 0.63613 0)
(-0.757828 0.781475 0)
(-0.959887 0.922213 0)
(-1.19603 1.06641 2.03341e-19)
(-1.46035 1.21721 9.20703e-20)
(-1.73819 1.36804 -8.33875e-20)
(-2.01125 1.50549 0)
(-2.26405 1.61589 0)
(-2.48685 1.69017 0)
(-2.675 1.72494 0)
(-2.82694 1.72177 0)
(-2.94514 1.68439 6.00837e-20)
(-3.0353 1.61772 5.87772e-20)
(-3.10368 1.52868 -5.79408e-20)
(-3.15662 1.42506 5.76582e-20)
(-3.19942 1.31353 0)
(-3.2364 1.19945 0)
(-3.27097 1.08716 5.58524e-20)
(-3.30543 0.979867 0)
(-3.34104 0.879662 0)
(-3.37828 0.787549 5.87073e-20)
(-3.41715 0.703754 6.15116e-20)
(-3.45731 0.628038 6.22207e-20)
(-3.49821 0.559866 0)
(-3.53926 0.498541 0)
(-3.57982 0.443304 -6.40205e-20)
(-3.61936 0.393401 0)
(-3.65737 0.348124 0)
(-3.69345 0.306835 6.4286e-20)
(-3.72725 0.26897 -6.59962e-20)
(-3.7585 0.234045 6.60041e-20)
(-3.78698 0.201647 0)
(-3.81249 0.171429 0)
(-3.8349 0.143095 1.2993e-19)
(-3.85406 0.116396 0)
(-3.86988 0.0911234 1.28533e-19)
(-3.88225 0.0671003 1.90892e-19)
(-3.89111 0.0441845 -1.89245e-19)
(-3.89639 0.0222564 1.25225e-19)
(-3.89803 0.00119926 0)
(-3.89605 -0.0191022 0)
(-3.89048 -0.0387247 1.19759e-19)
(-3.88137 -0.0576863 5.83477e-20)
(-3.86875 -0.0759834 0)
(-3.85267 -0.0936141 0)
(-3.83315 -0.110578 5.48391e-20)
(-3.81025 -0.126873 1.08127e-19)
(-3.78402 -0.142499 0)
(-3.75452 -0.157453 -1.01672e-19)
(-3.72183 -0.17173 9.98408e-20)
(-3.68601 -0.185325 -9.68676e-20)
(-3.64716 -0.198235 0)
(-3.60536 -0.210453 0)
(-3.5607 -0.221973 0)
(-3.51328 -0.232794 0)
(-3.4632 -0.24292 0)
(-3.41057 -0.25235 -7.57866e-20)
(-3.35551 -0.261084 0)
(-3.29811 -0.269126 0)
(-3.23849 -0.276484 0)
(-3.17678 -0.283167 -1.22338e-19)
(-3.11309 -0.289185 -5.656e-20)
(-3.04755 -0.294549 -5.24572e-20)
(-2.98026 -0.299275 9.77465e-20)
(-2.91135 -0.303377 -4.52143e-20)
(-2.84095 -0.306873 3.96604e-20)
(-2.76917 -0.309781 0)
(-2.69613 -0.31212 -3.07343e-20)
(-2.62195 -0.313912 0)
(-2.54675 -0.315179 0)