/*--------------------------------*- C++ -*----------------------------------*\
  =========                 |
  \\      /  F ield         | OpenFOAM: The Open Source CFD Toolbox
   \\    /   O peration     | Website:  https://openfoam.org
    \\  /    A nd           | Version:  8
     \\/     M anipulation  |
\*---------------------------------------------------------------------------*/
FoamFile
{
    version     2.0;
    format      ascii;
    class       volScalarField;
    location    "2800";
    object      nuTilda;
}
// * * * * * * * * * * * * * * * * * * * * * * * * * * * * * * * * * * * * * //

dimensions      [0 2 -1 0 0 0 0];

internalField   nonuniform List<scalar> 
12225
(
0.0122671
0.00158833
0.000666932
0.000412201
0.000298001
0.000234418
0.000192049
0.000186517
0.000141364
0.000110262
9.73199e-05
9.07189e-05
8.20027e-05
7.63417e-05
7.17067e-05
7.01721e-05
6.81327e-05
7.4004e-05
0.0323823
0.00744533
0.00330642
0.00204338
0.00146818
0.00114477
0.000936743
0.000800566
0.000680242
0.000578059
0.000507246
0.00045356
0.000411866
0.000380371
0.00035202
0.000329993
0.000313754
0.000295881
0.0490123
0.01515
0.00728196
0.00457856
0.00330642
0.00258059
0.00211241
0.00178924
0.00154196
0.00134781
0.00119795
0.00107898
0.000982389
0.000902873
0.000836437
0.000781446
0.00073616
0.000687885
0.063054
0.0237783
0.0122894
0.00788815
0.00573398
0.004485
0.00367415
0.00310736
0.00268476
0.00235811
0.00210119
0.00189468
0.00172542
0.00158464
0.0014663
0.00136623
0.00128167
0.00119814
0.074932
0.0328517
0.0181452
0.0119262
0.00874549
0.00686413
0.00563081
0.00476256
0.0041175
0.00362032
0.00322735
0.00290996
0.00264904
0.00243149
0.00224806
0.00209196
0.00195835
0.00183637
0.0849536
0.0420208
0.0246655
0.0166359
0.0123325
0.00972587
0.0079954
0.00676785
0.00585346
0.00514771
0.00458846
0.00413589
0.00376337
0.00345242
0.00318986
0.002966
0.00277365
0.00260477
0.0933822
0.0510219
0.0316642
0.0219415
0.016474
0.0130717
0.0107779
0.00913552
0.00790571
0.00695341
0.00619691
0.00558368
0.00507838
0.00465634
0.00429978
0.00399563
0.00373417
0.00350821
0.0993794
0.0583363
0.0378386
0.0268568
0.0204171
0.0163053
0.0134892
0.011453
0.00991891
0.00872629
0.00777635
0.00700498
0.00636867
0.00583686
0.00538741
0.00500399
0.00467453
0.00439128
0.104023
0.0645454
0.0433804
0.0314239
0.0241571
0.0194092
0.0161097
0.0137018
0.0118766
0.0104521
0.00931443
0.00838904
0.00762486
0.00698575
0.00644545
0.0059845
0.00558859
0.00524878
0.108368
0.0708939
0.0493756
0.0365496
0.0284517
0.0230231
0.0191863
0.0163547
0.0141926
0.0124968
0.011138
0.0100304
0.00911434
0.0083476
0.0076991
0.00714579
0.00667069
0.00626298
0.112368
0.0772557
0.0557282
0.0421918
0.0332976
0.0271652
0.0227467
0.0194432
0.0168984
0.0148903
0.0132749
0.0119544
0.0108605
0.00994379
0.00916797
0.00850586
0.00793736
0.00744915
0.115994
0.0834975
0.0623053
0.0482611
0.0386474
0.0318167
0.026789
0.0229739
0.0200046
0.0176452
0.0157378
0.0141736
0.0128749
0.011785
0.0108618
0.0100736
0.00939671
0.00881464
0.119234
0.0894856
0.0689377
0.0546109
0.0443919
0.0369007
0.0312597
0.0269088
0.0234836
0.02074
0.0185096
0.0166735
0.0151449
0.01386
0.0127704
0.0118396
0.0110397
0.0103508
0.122086
0.095084
0.075415
0.0610223
0.0503361
0.0422534
0.0360231
0.0311353
0.0272402
0.024093
0.021519
0.0193909
0.017614
0.0161174
0.0148466
0.01376
0.0128257
0.0120196
0.124546
0.100135
0.0814619
0.0671725
0.056158
0.047577
0.0408126
0.0354174
0.031066
0.0275196
0.0246012
0.0221777
0.0201481
0.0184349
0.0169782
0.0157314
0.0146583
0.0137311
0.126578
0.104396
0.0866605
0.0725515
0.0613228
0.0523526
0.0451453
0.0393148
0.0345631
0.0306611
0.0274325
0.0247409
0.0224806
0.020569
0.0189413
0.0175468
0.0163454
0.0153061
0.128011
0.107322
0.0902141
0.0762353
0.0648743
0.0556509
0.0481493
0.0420254
0.0370012
0.0328553
0.0294126
0.0265352
0.0241143
0.0220643
0.0203172
0.0188191
0.0175275
0.0164083
0.128006
0.107313
0.0902048
0.0762269
0.0648674
0.0556454
0.048145
0.0420222
0.0369988
0.0328537
0.0294117
0.0265349
0.0241147
0.0220652
0.0203185
0.0188206
0.0175287
0.0164083
0.126509
0.104255
0.0864922
0.0723807
0.0611613
0.052205
0.0450128
0.0391967
0.0344584
0.0305686
0.0273506
0.0246684
0.0224163
0.0205118
0.0188903
0.0175006
0.0163024
0.0152631
0.124267
0.0995604
0.0807712
0.0664676
0.0554886
0.0469631
0.0402594
0.0349228
0.0306248
0.0271258
0.0242488
0.0218611
0.0198626
0.0181762
0.0167426
0.0155152
0.0144575
0.0135405
0.12136
0.0936399
0.0737261
0.0593348
0.0487592
0.0408249
0.0347467
0.0300003
0.0262308
0.0231928
0.0207127
0.018665
0.0169572
0.0155198
0.0142999
0.0132567
0.0123583
0.0115798
0.117686
0.0865903
0.0656967
0.0514791
0.0415374
0.0343608
0.0290184
0.0249322
0.0217348
0.0191848
0.0171184
0.0154211
0.0140106
0.0128263
0.0118229
0.0109657
0.010228
0.00958895
0.11305
0.0784122
0.056921
0.0432687
0.0342296
0.0279652
0.0234365
0.0200435
0.0174263
0.0153597
0.0136966
0.0123369
0.0112106
0.0102671
0.00946866
0.0087872
0.00820102
0.00769347
0.107169
0.0691009
0.0476372
0.035029
0.0271566
0.021922
0.0182437
0.0155401
0.0134817
0.0118706
0.0105816
0.00953198
0.00866487
0.00793966
0.0073267
0.00680379
0.00635414
0.00596496
0.0996761
0.0587036
0.0381279
0.0270699
0.0205782
0.016433
0.0135949
0.0115438
0.00999923
0.00879908
0.00784341
0.00706756
0.00642791
0.00589358
0.00544231
0.00505735
0.00472644
0.0044401
0.0901097
0.0473665
0.0287363
0.0196847
0.0146976
0.0116312
0.00957853
0.00811528
0.00702332
0.00617995
0.00551058
0.00496795
0.00452115
0.00414815
0.00383332
0.00356447
0.00333369
0.00313371
0.0779076
0.0353826
0.0198606
0.0131383
0.00966107
0.00759298
0.00623353
0.00527431
0.00456401
0.00401885
0.00358699
0.00323615
0.00294721
0.00270597
0.00250238
0.00232753
0.00217876
0.00204825
0.06238
0.0232554
0.0119461
0.00765494
0.00556339
0.00435258
0.00356727
0.00301643
0.00261312
0.00230802
0.00206664
0.0018673
0.00170231
0.00156432
0.00144786
0.00134461
0.00126102
0.00118245
0.0426105
0.0117794
0.00546931
0.00341388
0.00246077
0.00192015
0.0015729
0.00132906
0.00115969
0.00103887
0.000944523
0.000858347
0.000785385
0.000722453
0.00066885
0.000613497
0.000582439
0.000537996
0.0168348
0.0025599
0.00110031
0.000684192
0.000495179
0.000389152
0.00032166
0.000270756
0.000280877
0.00033893
0.000384934
0.000372983
0.000345879
0.000310422
0.000291632
0.000232214
0.000304417
0.000265123
3.78136e-06
1.43224e-05
2.60297e-05
3.85381e-05
4.60115e-05
4.96628e-05
5.01553e-05
4.7814e-05
4.46235e-05
3.95548e-05
3.42202e-05
2.94487e-05
2.67706e-05
2.74478e-05
2.96318e-05
3.14823e-05
3.13397e-05
2.85162e-05
2.38757e-05
2.02117e-05
2.08224e-05
2.64206e-05
3.93389e-05
6.38925e-05
8.71971e-05
0.000100609
0.000113332
0.00012434
0.000134326
0.000142829
0.000150422
0.000157041
0.000162903
0.000168057
0.00017259
0.000176616
0.000180203
0.000183422
0.000186319
0.000188931
0.00019128
0.000193386
0.000195264
0.000196927
0.000198387
0.000199655
0.00020074
0.000201649
0.000202381
0.000202805
0.000203297
0.00020338
0.000203439
0.000203323
0.000203046
0.000202632
0.000202077
0.000201384
0.000200556
0.000199595
0.000198502
0.000197281
0.000195935
0.000194465
0.000192875
0.000191168
0.000189346
0.00018741
0.000185366
0.000183216
0.000180964
0.000178611
0.000176162
0.000173619
0.000170984
0.00016826
0.000165448
0.000162548
0.000159563
0.000156492
0.000153336
0.000150094
0.000146766
0.000143351
0.000139845
0.000136245
0.000132545
0.000128737
0.00012481
0.000120751
0.000116541
0.000112166
0.000107624
0.000102968
9.84039e-05
9.44209e-05
9.15966e-05
8.98395e-05
8.85249e-05
8.73201e-05
8.61367e-05
8.49579e-05
8.3782e-05
8.26096e-05
8.14416e-05
8.02789e-05
7.91229e-05
7.79779e-05
7.68648e-05
7.591e-05
7.49761e-05
7.40482e-05
7.31282e-05
7.22166e-05
7.13136e-05
7.04195e-05
6.95348e-05
6.86598e-05
6.77948e-05
6.69399e-05
6.60953e-05
6.52613e-05
6.44382e-05
6.36263e-05
6.28258e-05
6.20364e-05
6.12593e-05
6.05198e-05
5.98426e-05
5.9174e-05
5.85107e-05
5.78606e-05
5.72287e-05
5.66021e-05
5.59802e-05
5.53664e-05
5.47616e-05
5.41665e-05
5.35811e-05
5.30053e-05
5.24389e-05
5.18819e-05
5.1334e-05
5.07952e-05
5.02653e-05
4.97442e-05
4.92318e-05
4.8728e-05
4.82328e-05
4.77459e-05
4.72675e-05
4.67973e-05
4.63355e-05
4.58818e-05
4.54365e-05
4.49994e-05
4.45706e-05
4.41503e-05
4.37385e-05
4.33355e-05
4.29413e-05
4.25563e-05
4.21807e-05
4.18147e-05
4.14585e-05
4.11123e-05
4.0776e-05
4.04494e-05
4.0132e-05
3.98232e-05
3.95208e-05
3.92253e-05
3.89275e-05
3.86409e-05
3.8312e-05
3.80563e-05
3.75485e-05
3.73537e-05
3.63029e-05
3.49087e-05
5.89791e-06
4.05884e-05
9.2465e-05
0.000153706
0.000192551
0.000214556
0.000223348
0.000221921
0.000214078
0.000198521
0.000179504
0.000161549
0.000152478
0.000157003
0.000169318
0.000177335
0.000179533
0.000180676
0.000185628
0.000194336
0.000208071
0.000224505
0.000240369
0.000256182
0.000267063
0.000276642
0.000285191
0.000297683
0.000316334
0.000329998
0.000342511
0.000353257
0.000363037
0.000372009
0.000379807
0.00038693
0.000393567
0.000399937
0.000406169
0.000412329
0.000418411
0.000424373
0.000430163
0.000435739
0.000441073
0.000446149
0.000450952
0.000455468
0.000459699
0.000463644
0.000467343
0.000470762
0.000473938
0.00047686
0.000479534
0.000481961
0.00048414
0.000486074
0.000487761
0.000489203
0.0004904
0.000491353
0.000492065
0.000492539
0.000492786
0.000492811
0.000492608
0.000492174
0.000491525
0.000490665
0.000489599
0.000488335
0.000486879
0.000485238
0.000483419
0.000481429
0.000479275
0.000476965
0.000474506
0.000471906
0.000469172
0.000466313
0.000463337
0.000460252
0.000457065
0.000453786
0.000450423
0.000446983
0.000443475
0.000439907
0.000436285
0.000432615
0.000428895
0.00042512
0.000421269
0.000417317
0.000413248
0.00040909
0.000404893
0.000400682
0.000396464
0.000392243
0.000388023
0.000383807
0.000379599
0.000375402
0.000371219
0.000367052
0.000362901
0.000358764
0.000354652
0.000350569
0.000346517
0.000342498
0.000338514
0.000334566
0.000330656
0.000326785
0.000322956
0.000319168
0.000315423
0.000311721
0.000308064
0.000304454
0.00030089
0.000297373
0.000293902
0.000290476
0.000287094
0.000283758
0.000280468
0.000277231
0.000274049
0.000270906
0.0002678
0.000264738
0.000261722
0.000258753
0.00025583
0.000252955
0.000250125
0.000247341
0.000244601
0.000241906
0.000239254
0.000236646
0.00023408
0.000231556
0.000229073
0.000226632
0.000224232
0.000221872
0.000219553
0.000217273
0.000215034
0.000212835
0.000210677
0.00020856
0.000206484
0.000204452
0.000202463
0.00020052
0.000198623
0.000196774
0.000194975
0.000193227
0.000191531
0.000189886
0.000188292
0.000186748
0.000185247
0.000183793
0.000182357
0.000180994
0.00017951
0.000178386
0.000176291
0.000175967
0.000172989
0.000172126
1.28764e-05
7.40655e-05
0.000174304
0.000251873
0.000303656
0.000333364
0.000344215
0.000341398
0.000328801
0.000309931
0.00029065
0.000278295
0.000276104
0.000282579
0.000292643
0.000303196
0.000315664
0.000332278
0.00035351
0.000378309
0.000405383
0.000433472
0.00047138
0.000517497
0.000562945
0.000606945
0.000649923
0.000693493
0.000732759
0.000763999
0.000788972
0.000808771
0.000824467
0.000836921
0.000846914
0.000855222
0.000862544
0.000869523
0.000876696
0.000884419
0.000892799
0.000901714
0.000910923
0.000920191
0.000929341
0.000938252
0.000946849
0.000955084
0.00096292
0.000970329
0.00097729
0.000983771
0.000989771
0.000995283
0.0010003
0.00100483
0.00100887
0.00101242
0.00101547
0.00101803
0.0010201
0.00102168
0.00102276
0.0010233
0.00102346
0.00102318
0.00102238
0.00102114
0.00101946
0.00101734
0.0010148
0.00101186
0.00100853
0.00100481
0.00100074
0.00099631
0.000991547
0.000986463
0.000981074
0.000975394
0.000969438
0.000963223
0.000956762
0.000950071
0.000943166
0.000936061
0.00092877
0.000921309
0.00091369
0.000905928
0.000898033
0.000890018
0.000881891
0.000873661
0.000865335
0.000856924
0.00084844
0.000839899
0.000831318
0.000822708
0.000814082
0.000805449
0.000796815
0.000788189
0.000779578
0.000770989
0.000762429
0.000753903
0.000745417
0.000736977
0.000728588
0.000720255
0.000711984
0.000703778
0.000695641
0.000687576
0.000679586
0.000671675
0.000663845
0.000656098
0.000648436
0.000640862
0.000633376
0.000625981
0.000618679
0.000611468
0.000604351
0.000597327
0.000590397
0.000583562
0.000576822
0.000570178
0.000563627
0.000557165
0.000550789
0.000544503
0.000538308
0.000532205
0.000526195
0.000520275
0.000514446
0.000508707
0.000503057
0.000497494
0.000492017
0.000486626
0.000481318
0.000476094
0.000470952
0.00046589
0.000460908
0.000456004
0.000451178
0.000446428
0.000441754
0.000437153
0.000432626
0.00042817
0.000423785
0.00041947
0.000415222
0.000411041
0.000406925
0.000402871
0.000398877
0.000394939
0.000391054
0.000387216
0.000383419
0.000379654
0.00037591
0.000372171
0.000368415
0.000364622
0.000360719
0.000356741
0.000352322
0.00034802
0.000341562
0.000330411
2.17713e-05
0.000106433
0.000220239
0.000312835
0.000375514
0.000412499
0.000427928
0.000428316
0.000418397
0.000405128
0.000397058
0.000396229
0.000405354
0.000422395
0.000444953
0.000472504
0.000505654
0.000544772
0.000589055
0.000651088
0.000724786
0.000804447
0.000888614
0.000959215
0.0010216
0.00107769
0.00112808
0.00117297
0.00121222
0.00124609
0.00127533
0.00130065
0.00132277
0.0013423
0.00135983
0.00137585
0.00139077
0.00140493
0.00141859
0.00143194
0.0014451
0.00145815
0.00147111
0.00148396
0.00149666
0.00150911
0.00152124
0.00153294
0.00154413
0.00155473
0.00156468
0.00157395
0.00158253
0.00159039
0.00159753
0.00160393
0.0016096
0.00161454
0.00161874
0.0016222
0.00162493
0.0016269
0.00162806
0.0016285
0.00162837
0.00162746
0.00162584
0.00162352
0.00162052
0.00161686
0.00161257
0.00160765
0.00160213
0.00159603
0.00158937
0.00158218
0.00157448
0.00156628
0.00155762
0.00154851
0.00153898
0.00152906
0.00151876
0.0015081
0.00149712
0.00148583
0.00147426
0.00146243
0.00145035
0.00143806
0.00142556
0.00141288
0.00140003
0.00138704
0.00137391
0.00136066
0.00134731
0.00133389
0.0013204
0.00130687
0.00129332
0.00127975
0.00126618
0.00125262
0.00123909
0.00122559
0.00121214
0.00119874
0.00118541
0.00117215
0.00115896
0.00114587
0.00113287
0.00111997
0.00110718
0.00109449
0.00108193
0.00106949
0.00105717
0.00104498
0.00103292
0.001021
0.00100922
0.000997571
0.000986067
0.000974706
0.000963488
0.000952415
0.000941488
0.000930707
0.000920073
0.000909585
0.00089924
0.000889035
0.000878969
0.000869042
0.000859256
0.000849611
0.000840107
0.000830743
0.000821519
0.000812432
0.000803482
0.000794666
0.000785983
0.000777432
0.00076901
0.000760716
0.000752547
0.000744503
0.000736581
0.00072878
0.000721097
0.000713532
0.000706081
0.000698744
0.000691518
0.000684402
0.000677393
0.000670489
0.000663688
0.000656987
0.000650383
0.000643873
0.000637453
0.000631118
0.000624861
0.000618676
0.000612552
0.000606477
0.000600436
0.000594406
0.000588359
0.000582257
0.000576036
0.000569641
0.00056289
0.000555729
0.000547509
0.000531411
2.69708e-05
0.000122011
0.000241113
0.000357833
0.000435855
0.000483019
0.00050652
0.000514945
0.000516511
0.000517492
0.000524335
0.000540419
0.000566365
0.000601223
0.00064422
0.000695379
0.000755345
0.000838642
0.000934212
0.00103036
0.00111932
0.00120368
0.001283
0.00135568
0.00142242
0.00148382
0.00154028
0.00159213
0.00163972
0.00168348
0.00172391
0.00176147
0.0017966
0.00182967
0.00186101
0.00189085
0.00191939
0.00194677
0.0019731
0.00199842
0.00202278
0.00204619
0.00206863
0.00209009
0.00211056
0.00212999
0.00214836
0.00216563
0.00218179
0.00219681
0.00221068
0.00222341
0.002235
0.00224547
0.00225484
0.00226313
0.00227034
0.00227651
0.00228163
0.00228574
0.00228884
0.00229088
0.0022918
0.00229189
0.00229101
0.00228914
0.0022863
0.00228253
0.00227785
0.00227227
0.00226582
0.00225854
0.00225044
0.00224156
0.00223193
0.00222158
0.00221053
0.00219883
0.0021865
0.00217357
0.00216008
0.00214605
0.00213151
0.0021165
0.00210105
0.00208519
0.00206895
0.00205235
0.00203543
0.00201822
0.00200074
0.00198301
0.00196507
0.00194694
0.00192863
0.00191018
0.0018916
0.00187292
0.00185416
0.00183535
0.00181651
0.00179765
0.0017788
0.00175996
0.00174116
0.00172242
0.00170373
0.00168512
0.0016666
0.00164818
0.00162987
0.00161169
0.00159363
0.00157572
0.00155795
0.00154033
0.00152288
0.00150559
0.00148847
0.00147153
0.00145477
0.0014382
0.00142181
0.00140562
0.00138962
0.00137381
0.0013582
0.00134279
0.00132758
0.00131256
0.00129775
0.00128314
0.00126872
0.00125449
0.00124046
0.00122662
0.00121297
0.00119952
0.00118625
0.00117318
0.0011603
0.0011476
0.00113509
0.00112276
0.00111061
0.00109864
0.00108685
0.00107523
0.00106378
0.0010525
0.00104139
0.00103044
0.00101965
0.00100902
0.000998542
0.000988219
0.000978047
0.000968022
0.000958143
0.000948405
0.000938806
0.000929342
0.00092001
0.000910804
0.000901719
0.000892751
0.00088389
0.000875128
0.000866453
0.00085785
0.000849301
0.00084078
0.000832254
0.000823678
0.000814986
0.000806107
0.000796876
0.000787146
0.000777191
0.000757406
3.07976e-05
0.000135317
0.000261503
0.000392464
0.000488738
0.000550343
0.000588062
0.000611449
0.000629154
0.000648424
0.000674501
0.000710034
0.000755765
0.000811974
0.000879066
0.000969484
0.00107455
0.00117621
0.0012754
0.00137087
0.00146155
0.00154753
0.00162877
0.00170521
0.00177717
0.00184498
0.00190899
0.00196953
0.00202694
0.00208155
0.00213367
0.00218359
0.00223157
0.00227781
0.00232248
0.00236569
0.00240754
0.00244807
0.00248733
0.00252531
0.00256202
0.00259744
0.00263153
0.00266426
0.0026956
0.0027255
0.00275393
0.00278084
0.00280619
0.00282996
0.00285212
0.00287264
0.00289151
0.00290871
0.00292425
0.00293811
0.00295031
0.00296085
0.00296975
0.00297701
0.00298267
0.00298675
0.00298918
0.00299008
0.00298961
0.00298764
0.0029843
0.0029796
0.0029736
0.00296635
0.0029579
0.00294831
0.00293762
0.0029259
0.00291318
0.00289951
0.00288495
0.00286954
0.00285331
0.00283632
0.00281861
0.00280022
0.00278119
0.00276156
0.00274137
0.00272066
0.00269947
0.00267784
0.00265581
0.00263341
0.00261068
0.00258765
0.00256436
0.00254083
0.00251709
0.00249319
0.00246913
0.00244496
0.0024207
0.00239638
0.00237202
0.00234764
0.00232328
0.00229895
0.00227466
0.00225045
0.00222632
0.00220229
0.00217837
0.00215459
0.00213095
0.00210747
0.00208416
0.00206103
0.00203809
0.00201534
0.0019928
0.00197048
0.00194837
0.00192649
0.00190484
0.00188343
0.00186225
0.00184132
0.00182063
0.0018002
0.00178001
0.00176007
0.00174039
0.00172096
0.00170178
0.00168286
0.00166418
0.00164575
0.00162757
0.00160963
0.00159193
0.00157448
0.00155727
0.0015403
0.00152358
0.00150708
0.00149082
0.0014748
0.001459
0.00144342
0.00142807
0.00141293
0.00139801
0.00138331
0.00136881
0.00135452
0.00134043
0.00132654
0.00131284
0.00129934
0.00128602
0.00127289
0.00125995
0.00124718
0.00123459
0.00122216
0.00120991
0.00119781
0.00118586
0.00117407
0.00116241
0.00115088
0.00113947
0.00112816
0.00111692
0.00110574
0.00109457
0.00108337
0.00107207
0.0010606
0.00104879
0.00103658
0.00102441
0.00100194
3.23478e-05
0.0001425
0.000273967
0.000409849
0.000527787
0.000609005
0.000665055
0.000706971
0.000743959
0.000783266
0.000829942
0.000886938
0.000955878
0.00104814
0.00115508
0.00126164
0.00136772
0.00147106
0.00157111
0.00166746
0.00175984
0.00184827
0.00193282
0.00201368
0.00209106
0.00216525
0.00223653
0.00230515
0.00237138
0.00243546
0.00249758
0.00255793
0.00261666
0.00267389
0.0027297
0.00278414
0.00283725
0.00288905
0.00293953
0.00298866
0.00303643
0.00308279
0.0031277
0.00317111
0.00321296
0.00325321
0.00329181
0.00332869
0.00336381
0.00339713
0.0034286
0.00345818
0.00348583
0.00351153
0.00353526
0.00355698
0.00357669
0.00359437
0.00361003
0.00362365
0.00363525
0.00364483
0.00365241
0.00365803
0.00366168
0.0036633
0.00366321
0.00366122
0.00365745
0.00365193
0.00364473
0.00363589
0.00362547
0.00361354
0.00360016
0.00358539
0.0035693
0.00355196
0.00353343
0.00351378
0.00349308
0.00347139
0.00344879
0.00342533
0.00340108
0.0033761
0.00335046
0.0033242
0.0032974
0.00327009
0.00324234
0.00321419
0.00318568
0.00315686
0.00312778
0.00309847
0.00306898
0.00303933
0.00300956
0.00297971
0.00294981
0.00291989
0.00288998
0.00286009
0.00283027
0.00280053
0.00277089
0.00274137
0.00271199
0.00268277
0.00265373
0.00262487
0.00259622
0.00256779
0.00253958
0.00251162
0.0024839
0.00245644
0.00242925
0.00240232
0.00237568
0.00234933
0.00232326
0.00229748
0.002272
0.00224682
0.00222195
0.00219737
0.0021731
0.00214913
0.00212547
0.00210211
0.00207905
0.00205629
0.00203383
0.00201167
0.00198979
0.00196821
0.00194692
0.00192593
0.00190521
0.00188478
0.00186464
0.00184477
0.00182517
0.00180584
0.00178678
0.00176798
0.00174945
0.00173116
0.00171313
0.00169534
0.0016778
0.00166049
0.00164343
0.00162659
0.00160998
0.00159359
0.00157742
0.00156147
0.00154573
0.00153019
0.00151486
0.00149972
0.00148476
0.00146999
0.00145539
0.00144095
0.00142665
0.00141249
0.00139843
0.00138444
0.0013705
0.00135656
0.00134253
0.00132837
0.0013139
0.00129914
0.00128414
0.0012599
3.27957e-05
0.000144125
0.000275313
0.000409434
0.000539341
0.000642648
0.000719737
0.000781085
0.000836812
0.000894603
0.000962142
0.00105404
0.00116361
0.0012853
0.00140085
0.00151209
0.00161991
0.00172447
0.00182571
0.00192357
0.00201806
0.00210926
0.00219731
0.0022824
0.00236475
0.00244458
0.00252212
0.00259757
0.00267113
0.00274297
0.00281323
0.00288202
0.00294945
0.00301558
0.00308044
0.00314405
0.00320642
0.00326753
0.00332736
0.00338585
0.00344297
0.00349866
0.00355287
0.00360551
0.00365655
0.0037059
0.0037535
0.00379929
0.00384321
0.0038852
0.00392521
0.00396317
0.00399906
0.00403281
0.00406441
0.00409381
0.00412098
0.00414592
0.00416859
0.00418899
0.00420711
0.00422297
0.00423655
0.00424788
0.00425697
0.00426384
0.00426856
0.00427101
0.00427145
0.0042698
0.00426613
0.00426049
0.00425293
0.0042435
0.00423227
0.00421929
0.00420465
0.00418839
0.00417059
0.00415133
0.00413066
0.00410867
0.00408542
0.00406099
0.00403545
0.00400888
0.00398133
0.00395289
0.00392362
0.00389359
0.00386286
0.0038315
0.00379957
0.00376712
0.00373422
0.00370093
0.00366728
0.00363335
0.00359917
0.00356479
0.00353027
0.00349563
0.00346092
0.00342619
0.00339145
0.00335676
0.00332212
0.00328759
0.00325317
0.0032189
0.0031848
0.00315088
0.00311718
0.0030837
0.00305046
0.00301749
0.00298478
0.00295235
0.00292022
0.00288839
0.00285687
0.00282567
0.00279479
0.00276425
0.00273404
0.00270417
0.00267464
0.00264546
0.00261662
0.00258814
0.00256
0.0025322
0.00250476
0.00247766
0.0024509
0.00242448
0.0023984
0.00237266
0.00234725
0.00232218
0.00229744
0.00227303
0.00224894
0.00222517
0.00220172
0.00217858
0.00215575
0.00213322
0.002111
0.00208907
0.00206743
0.00204608
0.00202501
0.00200422
0.00198371
0.00196346
0.00194348
0.00192376
0.0019043
0.00188509
0.00186613
0.00184741
0.00182892
0.00181066
0.00179263
0.00177481
0.00175719
0.00173977
0.00172252
0.00170544
0.00168848
0.00167164
0.00165486
0.0016381
0.00162129
0.00160437
0.00158717
0.00156977
0.00155184
0.0015257
3.22376e-05
0.000141197
0.000268906
0.000398019
0.000521858
0.000633972
0.000727745
0.000808821
0.000891781
0.000987042
0.00109622
0.00122086
0.00135722
0.00148471
0.00160499
0.00172
0.0018307
0.00193746
0.00204061
0.00214048
0.0022373
0.00233126
0.00242257
0.00251143
0.00259805
0.00268263
0.00276535
0.00284639
0.00292592
0.00300404
0.00308088
0.0031565
0.00323098
0.00330433
0.00337658
0.00344771
0.00351771
0.00358653
0.00365413
0.00372046
0.00378544
0.00384901
0.0039111
0.00397162
0.0040305
0.00408766
0.00414302
0.00419651
0.00424806
0.00429759
0.00434505
0.00439036
0.00443348
0.00447436
0.00451293
0.00454918
0.00458306
0.00461454
0.0046436
0.00467023
0.00469441
0.00471614
0.00473541
0.00475225
0.00476665
0.00477864
0.00478825
0.00479548
0.00480041
0.00480298
0.00480337
0.00480155
0.00479759
0.00479153
0.00478342
0.00477334
0.00476134
0.00474749
0.00473185
0.00471449
0.00469548
0.0046749
0.0046528
0.00462928
0.00460439
0.00457822
0.00455084
0.00452231
0.00449271
0.00446212
0.00443059
0.00439821
0.00436503
0.00433112
0.00429655
0.00426138
0.00422568
0.00418949
0.00415288
0.0041159
0.00407862
0.00404107
0.00400332
0.00396539
0.00392735
0.00388923
0.00385107
0.00381291
0.00377477
0.00373671
0.00369874
0.0036609
0.00362321
0.00358569
0.00354838
0.00351128
0.00347443
0.00343783
0.00340151
0.00336548
0.00332975
0.00329433
0.00325923
0.00322447
0.00319005
0.00315598
0.00312227
0.00308891
0.00305592
0.00302329
0.00299104
0.00295915
0.00292764
0.00289649
0.00286572
0.00283532
0.00280528
0.00277562
0.00274632
0.00271739
0.00268882
0.00266061
0.00263275
0.00260526
0.00257811
0.00255131
0.00252485
0.00249873
0.00247295
0.00244749
0.00242237
0.00239756
0.00237307
0.0023489
0.00232503
0.00230147
0.00227821
0.00225524
0.00223257
0.00221018
0.00218807
0.00216623
0.00214467
0.00212336
0.00210231
0.00208151
0.00206094
0.00204059
0.00202046
0.0020005
0.00198071
0.00196106
0.00194149
0.00192197
0.00190241
0.00188276
0.00186288
0.00184282
0.00182207
0.00179375
3.08684e-05
0.000135111
0.000258112
0.000383395
0.000505347
0.000621411
0.000732046
0.000840995
0.00095581
0.00108163
0.00121968
0.00136941
0.00151169
0.00164366
0.00176791
0.00188633
0.00200004
0.00210968
0.00221564
0.00231812
0.00241752
0.00251422
0.00260852
0.00270068
0.00279092
0.00287944
0.00296643
0.00305204
0.00313641
0.00321965
0.00330184
0.00338304
0.00346328
0.00354257
0.00362091
0.00369828
0.00377463
0.0038499
0.00392404
0.00399698
0.00406862
0.00413889
0.00420769
0.00427495
0.00434056
0.00440443
0.00446648
0.00452663
0.00458478
0.00464086
0.00469479
0.00474651
0.00479594
0.00484304
0.00488775
0.00493001
0.0049698
0.00500708
0.00504181
0.00507398
0.00510358
0.00513059
0.00515501
0.00517684
0.00519611
0.00521281
0.00522698
0.00523863
0.00524781
0.00525453
0.00525885
0.00526078
0.00526044
0.00525784
0.00525302
0.00524605
0.005237
0.00522592
0.00521288
0.00519795
0.00518118
0.00516266
0.00514246
0.00512064
0.00509728
0.00507245
0.00504623
0.00501868
0.00498989
0.00495991
0.00492883
0.0048967
0.00486361
0.00482961
0.00479478
0.00475917
0.00472286
0.00468591
0.00464838
0.00461032
0.0045718
0.00453287
0.00449359
0.004454
0.00441416
0.00437411
0.00433391
0.00429358
0.00425317
0.00421273
0.00417228
0.00413186
0.00409151
0.00405125
0.00401112
0.00397113
0.00393132
0.00389171
0.00385232
0.00381316
0.00377426
0.00373564
0.0036973
0.00365926
0.00362154
0.00358414
0.00354708
0.00351036
0.00347399
0.00343798
0.00340233
0.00336704
0.00333213
0.00329759
0.00326342
0.00322963
0.00319621
0.00316317
0.00313051
0.00309822
0.00306631
0.00303478
0.00300362
0.00297282
0.0029424
0.00291235
0.00288265
0.00285332
0.00282434
0.00279572
0.00276745
0.00273951
0.00271193
0.00268467
0.00265776
0.00263117
0.0026049
0.00257896
0.00255333
0.00252802
0.00250301
0.0024783
0.00245389
0.00242976
0.00240592
0.00238235
0.00235904
0.00233598
0.00231315
0.00229053
0.0022681
0.00224582
0.00222365
0.00220155
0.00217943
0.00215724
0.00213484
0.00211226
0.00208896
0.00205831
2.93176e-05
0.000128792
0.000248239
0.000372471
0.000497095
0.000621009
0.000745651
0.000874968
0.00101222
0.00115946
0.00131683
0.0014786
0.00162638
0.00176282
0.00189091
0.00201266
0.00212935
0.00224178
0.00235051
0.00245592
0.0025583
0.00265786
0.00275503
0.00285016
0.00294354
0.00303542
0.00312597
0.00321538
0.00330376
0.00339122
0.00347783
0.00356364
0.00364866
0.00373291
0.00381636
0.00389896
0.00398066
0.0040614
0.00414109
0.00421965
0.00429699
0.004373
0.00444758
0.00452064
0.00459206
0.00466175
0.0047296
0.00479553
0.00485943
0.00492122
0.00498081
0.00503813
0.00509311
0.00514568
0.00519578
0.00524336
0.00528838
0.00533079
0.00537056
0.00540768
0.00544212
0.00547387
0.00550292
0.00552928
0.00555295
0.00557395
0.0055923
0.00560803
0.00562115
0.00563171
0.00563973
0.00564528
0.00564839
0.00564911
0.00564751
0.00564363
0.00563754
0.00562929
0.00561895
0.00560659
0.00559226
0.00557605
0.00555801
0.00553823
0.00551678
0.00549372
0.00546913
0.00544308
0.00541564
0.00538689
0.00535689
0.00532572
0.00529344
0.00526012
0.00522584
0.00519064
0.00515461
0.00511781
0.00508029
0.00504212
0.00500336
0.00496406
0.00492429
0.0048841
0.00484353
0.00480264
0.00476147
0.00472008
0.00467851
0.00463679
0.00459497
0.00455308
0.00451117
0.00446927
0.0044274
0.0043856
0.0043439
0.00430233
0.00426091
0.00421966
0.0041786
0.00413776
0.00409716
0.0040568
0.00401672
0.00397691
0.0039374
0.0038982
0.00385932
0.00382076
0.00378253
0.00374465
0.00370712
0.00366994
0.00363311
0.00359665
0.00356055
0.00352482
0.00348946
0.00345447
0.00341986
0.00338561
0.00335174
0.00331823
0.0032851
0.00325234
0.00321995
0.00318792
0.00315625
0.00312495
0.003094
0.00306341
0.00303317
0.00300328
0.00297373
0.00294453
0.00291567
0.00288714
0.00285894
0.00283108
0.00280353
0.00277631
0.00274939
0.00272279
0.00269648
0.00267047
0.00264473
0.00261927
0.00259405
0.00256907
0.00254429
0.00251968
0.0024952
0.0024708
0.00244641
0.00242196
0.00239734
0.00237255
0.00234704
0.00231423
2.76234e-05
0.000122193
0.000238216
0.000361768
0.000489211
0.000619919
0.000756146
0.000899675
0.00105218
0.00121416
0.00138613
0.00155207
0.00170384
0.00184414
0.00197574
0.00210061
0.0022201
0.00233515
0.00244641
0.00255439
0.00265946
0.00276193
0.00286207
0.00296007
0.00305636
0.00315121
0.00324488
0.00333754
0.00342934
0.00352039
0.00361075
0.00370048
0.00378957
0.00387804
0.00396583
0.0040529
0.00413919
0.00422462
0.00430908
0.00439249
0.00447474
0.00455571
0.0046353
0.00471338
0.00478985
0.0048646
0.00493751
0.00500848
0.0050774
0.00514419
0.00520875
0.00527099
0.00533085
0.00538824
0.00544311
0.0054954
0.00554506
0.00559204
0.00563632
0.00567786
0.00571664
0.00575266
0.0057859
0.00581636
0.00584405
0.00586899
0.00589118
0.00591066
0.00592745
0.00594159
0.0059531
0.00596204
0.00596845
0.00597237
0.00597386
0.00597299
0.00596982
0.00596439
0.00595677
0.00594702
0.00593521
0.00592141
0.00590568
0.00588811
0.00586876
0.0058477
0.005825
0.00580075
0.005775
0.00574783
0.0057193
0.0056895
0.00565849
0.00562633
0.00559309
0.00555884
0.00552364
0.00548757
0.00545068
0.00541303
0.00537469
0.00533571
0.00529615
0.00525606
0.00521551
0.00517453
0.00513318
0.00509151
0.00504956
0.00500738
0.004965
0.00492247
0.00487983
0.00483712
0.00479436
0.00475159
0.00470885
0.00466615
0.00462354
0.00458103
0.00453865
0.00449643
0.00445438
0.00441253
0.00437089
0.00432948
0.00428832
0.00424741