/*--------------------------------*- C++ -*----------------------------------*\
| =========                 |                                                 |
| \\      /  F ield         | OpenFOAM: The Open Source CFD Toolbox           |
|  \\    /   O peration     | Version:  v2012                                 |
|   \\  /    A nd           | Website:  www.openfoam.com                      |
|    \\/     M anipulation  |                                                 |
\*---------------------------------------------------------------------------*/
FoamFile
{
    version     2.0;
    format      ascii;
    class       volScalarField;
    location    "3200";
    object      nut;
}
// * * * * * * * * * * * * * * * * * * * * * * * * * * * * * * * * * * * * * //

dimensions      [0 2 -1 0 0 0 0];


internalField   nonuniform List<scalar> 
12225
(
0.0122671
0.00158819
0.000666128
0.000410104
0.00029404
0.000227808
0.000186418
0.000144349
0.00016638
0.00021572
0.000223841
0.000214197
0.000195171
0.000167533
0.000161398
0.000145524
0.00013231
0.000120109
0.0323823
0.00744532
0.00330638
0.00204329
0.00146802
0.00114429
0.000938661
0.000784868
0.000690388
0.0006269
0.000569553
0.000518718
0.000475216
0.000435569
0.000404976
0.000372249
0.000347117
0.000321087
0.0490123
0.01515
0.00728196
0.00457854
0.00330639
0.00258047
0.00211327
0.00178187
0.00154675
0.0013725
0.00123147
0.00111529
0.00101835
0.000936104
0.000866693
0.000804292
0.000753563
0.000700992
0.063054
0.0237783
0.0122894
0.00788815
0.00573397
0.00448497
0.0036744
0.00310419
0.00268716
0.00236996
0.00211791
0.00191315
0.00174401
0.00160222
0.00148242
0.0013786
0.00129107
0.00120452
0.074932
0.0328517
0.0181452
0.0119262
0.00874549
0.00686412
0.00563086
0.00476129
0.00411868
0.00362571
0.00323515
0.00291874
0.00265799
0.00244004
0.00225596
0.00209832
0.00196334
0.00183979
0.0849536
0.0420208
0.0246655
0.0166359
0.0123325
0.00972587
0.0079954
0.0067674
0.00585403
0.00515004
0.0045919
0.00413982
0.00376742
0.00345635
0.00319351
0.00296906
0.00277612
0.00260656
0.0933822
0.0510219
0.0316642
0.0219415
0.016474
0.0130717
0.0107779
0.00913539
0.00790598
0.00695436
0.00619832
0.00558531
0.00508009
0.00465801
0.00430136
0.00399702
0.00373534
0.00350912
0.0993794
0.0583363
0.0378386
0.0268568
0.0204171
0.0163053
0.0134892
0.011453
0.00991905
0.0087267
0.00777696
0.00700569
0.00636943
0.00583762
0.00538815
0.00500468
0.00467515
0.00439182
0.104023
0.0645454
0.0433804
0.0314239
0.0241571
0.0194092
0.0161097
0.0137018
0.0118767
0.0104523
0.00931473
0.00838939
0.00762524
0.00698615
0.00644586
0.0059849
0.00558898
0.00524915
0.108368
0.0708939
0.0493757
0.0365496
0.0284517
0.0230231
0.0191863
0.0163548
0.0141927
0.0124969
0.0111382
0.0100305
0.00911456
0.00834784
0.00769936
0.00714607
0.00667097
0.00626327
0.112368
0.0772557
0.0557282
0.0421918
0.0332976
0.0271652
0.0227468
0.0194433
0.0168984
0.0148904
0.013275
0.0119546
0.0108606
0.00994396
0.00916815
0.00850607
0.00793759
0.00744939
0.115994
0.0834975
0.0623054
0.0482611
0.0386474
0.0318167
0.026789
0.0229739
0.0200047
0.0176452
0.0157379
0.0141737
0.012875
0.0117851
0.010862
0.0100738
0.0093969
0.00881484
0.119234
0.0894856
0.0689377
0.0546109
0.0443919
0.0369007
0.0312597
0.0269089
0.0234837
0.02074
0.0185097
0.0166735
0.015145
0.0138601
0.0127705
0.0118397
0.0110398
0.010351
0.122086
0.095084
0.075415
0.0610223
0.0503361
0.0422535
0.0360231
0.0311353
0.0272402
0.0240931
0.0215191
0.0193909
0.0176141
0.0161175
0.0148467
0.0137601
0.0128258
0.0120197
0.124546
0.100135
0.0814619
0.0671726
0.056158
0.047577
0.0408126
0.0354174
0.031066
0.0275197
0.0246013
0.0221778
0.0201482
0.018435
0.0169783
0.0157315
0.0146584
0.0137312
0.126578
0.104396
0.0866605
0.0725515
0.0613228
0.0523526
0.0451453
0.0393148
0.0345631
0.0306611
0.0274325
0.024741
0.0224806
0.020569
0.0189413
0.0175468
0.0163455
0.0153062
0.128011
0.107322
0.0902141
0.0762353
0.0648743
0.0556509
0.0481493
0.0420254
0.0370012
0.0328553
0.0294126
0.0265352
0.0241143
0.0220643
0.0203171
0.0188191
0.0175275
0.0164083
0.128006
0.107313
0.0902048
0.0762269
0.0648674
0.0556454
0.048145
0.0420221
0.0369988
0.0328537
0.0294117
0.0265349
0.0241147
0.0220651
0.0203184
0.0188205
0.0175286
0.0164082
0.126509
0.104255
0.0864922
0.0723807
0.0611613
0.052205
0.0450128
0.0391967
0.0344584
0.0305685
0.0273506
0.0246684
0.0224163
0.0205118
0.0188902
0.0175006
0.0163023
0.015263
0.124267
0.0995604
0.0807712
0.0664676
0.0554886
0.0469631
0.0402594
0.0349227
0.0306248
0.0271258
0.0242487
0.0218611
0.0198625
0.0181762
0.0167425
0.0155151
0.0144574
0.0135404
0.12136
0.0936399
0.0737261
0.0593348
0.0487592
0.0408248
0.0347467
0.0300003
0.0262308
0.0231928
0.0207127
0.018665
0.0169572
0.0155197
0.0142998
0.0132566
0.0123582
0.0115797
0.117686
0.0865903
0.0656967
0.0514791
0.0415374
0.0343608
0.0290183
0.0249322
0.0217348
0.0191848
0.0171184
0.0154211
0.0140105
0.0128262
0.0118228
0.0109656
0.0102279
0.00958884
0.11305
0.0784122
0.056921
0.0432687
0.0342296
0.0279652
0.0234365
0.0200435
0.0174263
0.0153598
0.0136966
0.012337
0.0112107
0.0102671
0.00946864
0.00878715
0.00820095
0.00769338
0.107169
0.0691009
0.0476371
0.035029
0.0271566
0.021922
0.0182437
0.0155401
0.0134818
0.0118708
0.0105819
0.00953231
0.00866515
0.00793988
0.00732684
0.00680388
0.00635416
0.00596492
0.0996761
0.0587036
0.0381279
0.0270699
0.0205782
0.0164329
0.0135949
0.0115437
0.00999935
0.00879953
0.00784422
0.00706853
0.00642881
0.00589439
0.00544291
0.0050579
0.0047268
0.00444033
0.0901097
0.0473665
0.0287363
0.0196847
0.0146976
0.0116311
0.0095785
0.0081152
0.00702351
0.0061808
0.00551235
0.00497025
0.00452344
0.0041504
0.00383508
0.00356628
0.00333499
0.00313485
0.0779076
0.0353826
0.0198606
0.0131383
0.00966106
0.00759295
0.00623349
0.0052741
0.00456425
0.00402038
0.00359042
0.00324083
0.00295207
0.00271103
0.00250629
0.00233214
0.00218197
0.00205161
0.06238
0.0232554
0.0119461
0.00765493
0.00556337
0.00435254
0.0035672
0.00301615
0.00261331
0.00231035
0.00207203
0.00187474
0.00171012
0.00157289
0.00145365
0.00135327
0.00126581
0.00118863
0.0426105
0.0117794
0.0054693
0.00341385
0.0024607
0.00192004
0.00157266
0.00132942
0.0011583
0.00104123
0.000949574
0.000864979
0.00079215
0.00072993
0.000672061
0.00062293
0.000578099
0.000542035
0.0168348
0.00255985
0.00110002
0.000683429
0.000493725
0.000386811
0.000318009
0.000268388
0.000267505
0.000336046
0.000374835
0.000353479
0.000322265
0.000283609
0.000268741
0.000240596
0.000196176
0.000237167
5.2886e-10
1.01548e-07
1.14781e-06
5.16858e-06
9.86153e-06
1.28035e-05
1.3125e-05
1.11699e-05
8.84807e-06
5.76835e-06
3.39695e-06
1.93914e-06
1.35829e-06
1.47264e-06
2.01023e-06
2.47913e-06
2.41162e-06
1.6346e-06
7.3162e-07
3.70868e-07
4.11407e-07
1.21999e-06
5.5172e-06
2.83899e-05
5.71788e-05
7.50014e-05
9.13903e-05
0.000105185
0.000117325
0.000127439
0.000136298
0.000143911
0.000150572
0.000156373
0.000161436
0.000165905
0.000169866
0.000173405
0.000176579
0.00017943
0.000181988
0.000184275
0.00018631
0.000188109
0.000189685
0.000191053
0.000192221
0.000193196
0.000193978
0.000194561
0.000194823
0.000195072
0.000195121
0.000194992
0.000194693
0.000194246
0.000193646
0.000192898
0.000192003
0.000190964
0.000189782
0.000188459
0.000186998
0.000185401
0.000183672
0.000181811
0.00017982
0.000177701
0.000175458
0.000173091
0.000170604
0.000167998
0.000165275
0.000162436
0.000159483
0.000156416
0.000153236
0.000149943
0.000146535
0.000143012
0.000139371
0.000135609
0.000131722
0.000127704
0.000123547
0.000119242
0.000114776
0.000110136
0.0001053
0.000100245
9.49423e-05
8.93654e-05
8.35077e-05
7.74374e-05
7.14346e-05
6.61748e-05
6.24461e-05
6.0122e-05
5.83745e-05
5.67696e-05
5.51936e-05
5.36253e-05
5.20632e-05
5.05089e-05
4.89644e-05
4.74316e-05
4.59132e-05
4.44156e-05
4.29673e-05
4.17347e-05
4.05304e-05
3.93409e-05
3.81686e-05
3.70143e-05
3.58788e-05
3.47628e-05
3.36672e-05
3.25928e-05
3.154e-05
3.05094e-05
2.95013e-05
2.85162e-05
2.75546e-05
2.66171e-05
2.57037e-05
2.48141e-05
2.39497e-05
2.31403e-05
2.24064e-05
2.16911e-05
2.09906e-05
2.03137e-05
1.96649e-05
1.903e-05
1.84093e-05
1.78057e-05
1.72201e-05
1.66527e-05
1.61033e-05
1.55715e-05
1.5057e-05
1.45592e-05
1.40777e-05
1.36122e-05
1.31622e-05
1.27274e-05
1.23074e-05
1.19017e-05
1.151e-05
1.1132e-05
1.07672e-05
1.04152e-05
1.00758e-05
9.74857e-06
9.43328e-06
9.12962e-06
8.83731e-06
8.55611e-06
8.28581e-06
8.02618e-06
7.77705e-06
7.53822e-06
7.30956e-06
7.09086e-06
6.88193e-06
6.6825e-06
6.49226e-06
6.31078e-06
6.13752e-06
5.97173e-06
5.81246e-06
5.65867e-06
5.50823e-06
5.36106e-06
5.2078e-06
5.06406e-06
4.86103e-06
4.71939e-06
4.30525e-06
3.682e-06
3.34176e-09
6.03678e-06
6.15623e-05
0.000137849
0.000181888
0.000206001
0.000215524
0.000214025
0.00020555
0.000188722
0.000167812
0.000147704
0.000137583
0.000143056
0.000156896
0.000165306
0.000167413
0.000168283
0.000173762
0.00018353
0.000199758
0.00021806
0.000235162
0.000251137
0.000262451
0.000272237
0.000281083
0.000294261
0.000313154
0.000327059
0.000339733
0.000350618
0.000360521
0.000369576
0.000377451
0.000384642
0.000391342
0.000397773
0.000404065
0.00041028
0.000416416
0.000422428
0.000428263
0.000433882
0.000439256
0.000444368
0.000449203
0.00045375
0.000458009
0.000461987
0.000465692
0.000469146
0.000472338
0.000475278
0.000477968
0.000480409
0.000482601
0.000484545
0.000486242
0.000487691
0.000488895
0.000489853
0.000490568
0.000491044
0.000491291
0.000491315
0.00049111
0.000490672
0.000490018
0.000489152
0.000488079
0.000486806
0.000485339
0.000483686
0.000481853
0.000479848
0.000477678
0.000475351
0.000472874
0.000470255
0.000467501
0.000464621
0.000461623
0.000458515
0.000455305
0.000452001
0.000448612
0.000445146
0.000441611
0.000438014
0.000434363
0.000430661
0.00042691
0.000423099
0.000419212
0.00041522
0.00041111
0.000406909
0.000402667
0.000398411
0.000394146
0.000389876
0.000385606
0.000381339
0.000377077
0.000372826
0.000368586
0.000364361
0.000360151
0.000355952
0.000351777
0.000347629
0.000343511
0.000339424
0.00033537
0.00033135
0.000327367
0.000323421
0.000319514
0.000315648
0.000311822
0.000308038
0.000304297
0.0003006
0.000296948
0.000293341
0.000289778
0.000286259
0.000282781
0.000279348
0.000275958
0.00027262
0.000269335
0.000266086
0.000262872
0.0002597
0.000256573
0.00025349
0.000250452
0.000247458
0.000244509
0.000241603
0.000238739
0.000235918
0.000233139
0.0002304
0.000227703
0.000225046
0.000222428
0.00021985
0.000217311
0.000214811
0.000212349
0.000209925
0.00020754
0.000205194
0.000202887
0.000200621
0.000198395
0.00019621
0.00019407
0.000191974
0.000189924
0.000187924
0.000185973
0.000184075
0.000182229
0.000180437
0.000178698
0.000177009
0.000175367
0.00017377
0.000172197
0.000170681
0.000169088
0.000167741
0.000165697
0.0001651
0.000162015
0.000160567
7.63226e-08
3.98441e-05
0.000162903
0.000245619
0.000298883
0.000329076
0.000339963
0.000336947
0.000323951
0.000304607
0.000284906
0.000272506
0.000270555
0.000277531
0.000288073
0.000299113
0.000312177
0.000329342
0.000350994
0.000376356
0.000403786
0.000432002
0.000471286
0.000517463
0.00056306
0.000607136
0.000650194
0.00069384
0.000732902
0.000763976
0.000788811
0.000808505
0.000824121
0.000836517
0.000846471
0.000854756
0.000862069
0.00086905
0.000876233
0.000883968
0.000892359
0.000901282
0.000910498
0.00091977
0.000928922
0.000937836
0.000946435
0.000954672
0.00096251
0.000969922
0.000976881
0.000983367
0.000989367
0.00099488
0.000999902
0.00100443
0.00100847
0.00101202
0.00101507
0.00101763
0.0010197
0.00102127
0.00102235
0.0010229
0.00102305
0.00102277
0.00102197
0.00102073
0.00101904
0.00101692
0.00101438
0.00101143
0.00100809
0.00100438
0.00100029
0.000995862
0.000991093
0.000986004
0.000980608
0.000974922
0.00096896
0.000962737
0.000956269
0.000949571
0.000942659
0.000935546
0.000928248
0.000920779
0.000913152
0.000905381
0.000897478
0.000889454
0.000881318
0.000873078
0.000864742
0.000856321
0.000847827
0.000839276
0.000830683
0.000822063
0.000813426
0.00080478
0.000796135
0.000787497
0.000778874
0.000770272
0.000761699
0.00075316
0.00074466
0.000736206
0.000727803
0.000719456
0.00071117
0.000702949
0.000694796
0.000686715
0.000678709
0.000670782
0.000662935
0.000655171
0.000647491
0.000639898
0.000632394
0.00062498
0.000617659
0.000610429
0.000603291
0.000596247
0.000589296
0.000582439
0.000575677
0.00056901
0.000562436
0.00055595
0.000549549
0.000543238
0.000537017
0.000530888
0.00052485
0.000518902
0.000513045
0.000507276
0.000501595
0.000496001
0.000490492
0.000485068
0.000479728
0.00047447
0.000469294
0.000464197
0.00045918
0.00045424
0.000449377
0.000444589
0.000439877
0.000435237
0.000430671
0.000426175
0.00042175
0.000417393
0.000413104
0.000408881
0.000404722
0.000400626
0.000396588
0.000392607
0.000388678
0.000384795
0.000380952
0.000377141
0.000373349
0.000369562
0.000365753
0.000361913
0.000357942
0.000353935
0.0003494
0.00034515
0.00033858
0.000326877
6.16215e-07
8.2161e-05
0.00021302
0.000308837
0.000372268
0.000409347
0.000424633
0.000424848
0.000414751
0.000401423
0.00039359
0.000393023
0.000402622
0.000420117
0.000443108
0.000471092
0.000504652
0.000544061
0.000588484
0.000652291
0.000726394
0.00080635
0.000890224
0.000960486
0.00102265
0.00107855
0.00112876
0.00117347
0.00121255
0.00124628
0.0012754
0.00130063
0.00132268
0.00134217
0.00135967
0.00137566
0.00139057
0.00140473
0.00141838
0.00143173
0.0014449
0.00145795
0.0014709
0.00148376
0.00149645
0.00150891
0.00152103
0.00153273
0.00154392
0.00155451
0.00156446
0.00157373
0.0015823
0.00159016
0.00159729
0.0016037
0.00160937
0.0016143
0.0016185
0.00162196
0.00162468
0.00162666
0.00162781
0.00162825
0.00162812
0.0016272
0.00162558
0.00162325
0.00162025
0.00161659
0.00161229
0.00160737
0.00160185
0.00159574
0.00158908
0.00158189
0.00157418
0.00156598
0.00155731
0.0015482
0.00153867
0.00152874
0.00151843
0.00150777
0.00149679
0.00148549
0.00147392
0.00146208
0.00145
0.0014377
0.0014252
0.00141251
0.00139966
0.00138666
0.00137353
0.00136028
0.00134693
0.00133349
0.00132
0.00130647
0.00129291
0.00127934
0.00126576
0.0012522
0.00123867
0.00122517
0.00121171
0.00119831
0.00118497
0.0011717
0.00115851
0.00114541
0.00113241
0.00111951
0.00110671
0.00109402
0.00108145
0.00106901
0.00105669
0.00104449
0.00103243
0.0010205
0.00100871
0.000997063
0.000985555
0.000974189
0.000962966
0.000951889
0.000940956
0.00093017
0.00091953
0.000909036
0.000898685
0.000888473
0.000878399
0.000868465
0.000858671
0.000849017
0.000839505
0.000830132
0.000820897
0.0008118
0.000802838
0.000794011
0.000785316
0.000776752
0.000768317
0.00076001
0.000751829
0.000743771
0.000735835
0.00072802
0.000720322
0.000712742
0.000705276
0.000697923
0.000690681
0.000683549
0.000676524
0.000669604
0.000662786
0.000656069
0.000649449
0.000642923
0.000636486
0.000630134
0.000623861
0.000617658
0.000611517
0.000605425
0.000599365
0.000593317
0.00058725
0.00058113
0.000574882
0.000568483
0.000561651
0.00055465
0.000546187
0.000529935
1.3996e-06
0.000101868
0.000234939
0.000354667
0.000433289
0.000480505
0.000503936
0.000512338
0.000513971
0.000515196
0.00052245
0.000539025
0.000565494
0.000600865
0.000644373
0.000696059
0.000756727
0.000840631
0.000936711
0.00103246
0.00112123
0.00120539
0.00128447
0.00135691
0.00142345
0.00148466
0.00154095
0.00159264
0.0016401
0.00168375
0.00172408
0.00176156
0.00179663
0.00182966
0.00186095
0.00189076
0.00191928
0.00194665
0.00197296
0.00199827
0.00202262
0.00204601
0.00206845
0.00208991
0.00211037
0.00212979
0.00214816
0.00216543
0.00218158
0.0021966
0.00221047
0.00222319
0.00223478
0.00224525
0.00225462
0.0022629
0.00227011
0.00227627
0.0022814
0.0022855
0.00228859
0.00229064
0.00229155
0.00229164
0.00229076
0.00228888
0.00228604
0.00228227
0.00227758
0.00227199
0.00226554
0.00225825
0.00225015
0.00224127
0.00223163
0.00222128
0.00221023
0.00219852
0.00218619
0.00217326
0.00215976
0.00214572
0.00213118
0.00211617
0.00210072
0.00208485
0.0020686
0.002052
0.00203508
0.00201786
0.00200038
0.00198265
0.0019647
0.00194657
0.00192826
0.0019098
0.00189122
0.00187254
0.00185378
0.00183497
0.00181612
0.00179726
0.00177841
0.00175957
0.00174077
0.00172202
0.00170333
0.00168472
0.0016662
0.00164778
0.00162947
0.00161129
0.00159323
0.00157531
0.00155754
0.00153993
0.00152247
0.00150519
0.00148807
0.00147113
0.00145437
0.0014378
0.00142141
0.00140522
0.00138922
0.00137342
0.00135781
0.0013424
0.00132718
0.00131217
0.00129736
0.00128275
0.00126833
0.0012541
0.00124007
0.00122623
0.00121258
0.00119912
0.00118585
0.00117278
0.00115989
0.00114719
0.00113467
0.00112234
0.00111019
0.00109821
0.00108641
0.00107479
0.00106333
0.00105205
0.00104093
0.00102997
0.00101917
0.00100853
0.000998049
0.000987718
0.000977538
0.000967506
0.000957618
0.000947873
0.000938266
0.000928794
0.000919454
0.000910241
0.000901149
0.000892173
0.000883305
0.000874536
0.000865854
0.000857244
0.000848687
0.000840158
0.000831623
0.000823039
0.000814336
0.000805453
0.000796186
0.00078657
0.0007764
0.000756624
2.32588e-06
0.000118227
0.000256264
0.000389878
0.000486693
0.000548394
0.000586144
0.000609633
0.000627569
0.000647208
0.000673752
0.000709789
0.000756021
0.000812716
0.000880419
0.00097134
0.00107675
0.0011784
0.00127749
0.00137276
0.00146323
0.00154901
0.00163004
0.0017063
0.00177808
0.00184573
0.0019096
0.00197002
0.00202731
0.00208182
0.00213385
0.00218371
0.00223163
0.00227781
0.00232244
0.00236561
0.00240742
0.00244793
0.00248716
0.00252512
0.00256182
0.00259721
0.00263129
0.00266401
0.00269534
0.00272524
0.00275365
0.00278056
0.00280591
0.00282967
0.00285183
0.00287234
0.00289121
0.00290841
0.00292394
0.00293781
0.00295001
0.00296055
0.00296944
0.0029767
0.00298236
0.00298644
0.00298886
0.00298976
0.00298929
0.00298732
0.00298398
0.00297927
0.00297327
0.00296601
0.00295756
0.00294796
0.00293728
0.00292555
0.00291282
0.00289915
0.00288459
0.00286917
0.00285294
0.00283595
0.00281823
0.00279983
0.0027808
0.00276116
0.00274097
0.00272025
0.00269906
0.00267743
0.0026554
0.002633
0.00261026
0.00258723
0.00256393
0.0025404
0.00251666
0.00249275
0.0024687
0.00244452
0.00242026
0.00239594
0.00237158
0.0023472
0.00232284
0.00229851
0.00227422
0.00225001
0.00222588
0.00220185
0.00217793
0.00215415
0.00213052
0.00210704
0.00208373
0.0020606
0.00203766
0.00201492
0.00199238
0.00197006
0.00194795
0.00192608
0.00190443
0.00188302
0.00186185
0.00184092
0.00182024
0.00179981
0.00177962
0.00175969
0.00174001
0.00172059
0.00170141
0.00168249
0.00166382
0.00164539
0.00162721
0.00160927
0.00159158
0.00157413
0.00155692
0.00153995
0.00152322
0.00150673
0.00149047
0.00147444
0.00145864
0.00144306
0.0014277
0.00141257
0.00139764
0.00138293
0.00136843
0.00135413
0.00134004
0.00132614
0.00131244
0.00129894
0.00128562
0.00127249
0.00125954
0.00124676
0.00123417
0.00122174
0.00120948
0.00119738
0.00118543
0.00117363
0.00116197
0.00115044
0.00113903
0.00112771
0.00111647
0.00110528
0.00109411
0.00108291
0.0010716
0.00106013
0.00104831
0.00103615
0.00102387
0.00100142
2.79452e-06
0.000126788
0.000269172
0.000407477
0.000526057
0.000607453
0.000663627
0.000705735
0.000743025
0.000782737
0.00082989
0.000887386
0.000956951
0.00104971
0.001157
0.00126363
0.0013697
0.00147296
0.00157287
0.00166904
0.00176125
0.0018495
0.00193389
0.00201459
0.00209182
0.00216588
0.00223703
0.00230555
0.00237168
0.00243566
0.00249771
0.00255799
0.00261666
0.00267383
0.00272959
0.00278399
0.00283707
0.00288883
0.00293928
0.00298839
0.00303613
0.00308247
0.00312736
0.00317075
0.00321259
0.00325283
0.00329142
0.00332829
0.0033634
0.00339672
0.00342818
0.00345775
0.0034854
0.0035111
0.00353482
0.00355654
0.00357625
0.00359393
0.00360958
0.00362321
0.0036348
0.00364439
0.00365196
0.00365758
0.00366123
0.00366285
0.00366276
0.00366077
0.003657
0.00365148
0.00364427
0.00363543
0.00362501
0.00361308
0.00359969
0.00358492
0.00356883
0.00355148
0.00353295
0.0035133
0.00349259
0.00347091
0.0034483
0.00342483
0.00340058
0.0033756
0.00334996
0.0033237
0.00329689
0.00326958
0.00324183
0.00321367
0.00318516
0.00315635
0.00312726
0.00309795
0.00306845
0.0030388
0.00300904
0.00297919
0.00294929
0.00291937
0.00288945
0.00285957
0.00282975
0.00280001
0.00277037
0.00274085
0.00271148
0.00268226
0.00265322
0.00262437
0.00259572
0.00256729
0.00253909
0.00251113
0.00248341
0.00245596
0.00242877
0.00240185
0.00237522
0.00234887
0.0023228
0.00229703
0.00227156
0.00224639
0.00222152
0.00219695
0.00217269
0.00214873
0.00212507
0.00210172
0.00207867
0.00205591
0.00203345
0.00201129
0.00198942
0.00196785
0.00194656
0.00192556
0.00190485
0.00188442
0.00186428
0.00184441
0.00182481
0.00180548
0.00178642
0.00176762
0.00174908
0.00173079
0.00171276
0.00169497
0.00167742
0.00166012
0.00164304
0.0016262
0.00160959
0.0015932
0.00157703
0.00156108
0.00154534
0.0015298
0.00151446
0.00149932
0.00148437
0.0014696
0.00145499
0.00144055
0.00142626
0.00141209
0.00139803
0.00138405
0.00137011
0.00135616
0.00134213
0.00132797
0.00131349
0.00129876
0.0012837
0.00125947
2.93959e-06
0.000128669
0.000270498
0.000406987
0.00053759
0.000641168
0.000718471
0.000780065
0.000836128
0.000894374
0.000962813
0.00105543
0.0011656
0.00128713
0.00140264
0.00151384
0.00162158
0.00172603
0.00182714
0.00192486
0.0020192
0.00211025
0.00219816
0.00228311
0.00236534
0.00244505
0.00252248
0.00259783
0.0026713
0.00274306
0.00281324
0.00288198
0.00294934
0.00301541
0.00308022
0.00314379
0.00320612
0.0032672
0.00332699
0.00338546
0.00344255
0.00349822
0.0035524
0.00360503
0.00365604
0.00370538
0.00375297
0.00379875
0.00384266
0.00388464
0.00392464
0.0039626
0.00399848
0.00403223
0.00406382
0.00409322
0.00412039
0.00414532
0.00416799
0.00418839
0.00420652
0.00422237
0.00423595
0.00424728
0.00425636
0.00426323
0.00426795
0.00427041
0.00427084
0.00426919
0.00426552
0.00425988
0.00425231
0.00424288
0.00423165
0.00421868
0.00420403
0.00418777
0.00416997
0.0041507
0.00413004
0.00410804
0.00408479
0.00406036
0.00403482
0.00400824
0.0039807
0.00395226
0.00392298
0.00389295
0.00386222
0.00383086
0.00379893
0.00376648
0.00373358
0.00370029
0.00366664
0.00363271
0.00359853
0.00356416
0.00352963
0.003495
0.00346029
0.00342556
0.00339083
0.00335613
0.0033215
0.00328697
0.00325256
0.00321829
0.00318419
0.00315028
0.00311658
0.00308311
0.00304988
0.00301691
0.0029842
0.00295178
0.00291966
0.00288783
0.00285632
0.00282513
0.00279426
0.00276372
0.00273352
0.00270366
0.00267415
0.00264497
0.00261615
0.00258767
0.00255954
0.00253175
0.00250431
0.00247722
0.00245047
0.00242406
0.00239798
0.00237225
0.00234685
0.00232178
0.00229704
0.00227263
0.00224854
0.00222477
0.00220132
0.00217818
0.00215535
0.00213283
0.0021106
0.00208867
0.00206703
0.00204568
0.00202461
0.00200382
0.0019833
0.00196305
0.00194307
0.00192335
0.00190389
0.00188468
0.00186572
0.001847
0.00182851
0.00181026
0.00179222
0.00177441
0.00175679
0.00173937
0.00172213
0.00170504
0.00168809
0.00167125
0.00165447
0.00163771
0.0016209
0.00160397
0.00158678
0.00156938
0.00155144
0.0015253
2.75541e-06
0.000125162
0.000263806
0.000395341
0.000519877
0.000632157
0.000726095
0.000807586
0.000891512
0.000987444
0.00109727
0.00122239
0.00135888
0.0014863
0.0016065
0.00172143
0.00183204
0.0019387
0.00204172
0.00214147
0.00223816
0.002332
0.00242319
0.00251193
0.00259843
0.00268291
0.00276553
0.00284649
0.00292593
0.00300398
0.00308075
0.00315631
0.00323072
0.00330402
0.00337622
0.00344731
0.00351727
0.00358605
0.00365362
0.00371992
0.00378488
0.00384842
0.00391048
0.00397099
0.00402985
0.00408699
0.00414234
0.00419582
0.00424735
0.00429688
0.00434433
0.00438963
0.00443275
0.00447361
0.00451219
0.00454843
0.00458231
0.00461379
0.00464285
0.00466947
0.00469365
0.00471537
0.00473465
0.00475148
0.00476588
0.00477787
0.00478748
0.00479471
0.00479964
0.00480221
0.00480259
0.00480078
0.00479681
0.00479075
0.00478265
0.00477256
0.00476056
0.00474671
0.00473107
0.00471371
0.0046947
0.00467411
0.00465202
0.0046285
0.00460361
0.00457744
0.00455005
0.00452152
0.00449193
0.00446133
0.00442981
0.00439742
0.00436425
0.00433034
0.00429577
0.00426061
0.0042249
0.00418871
0.00415211
0.00411513
0.00407785
0.00404031
0.00400256
0.00396464
0.0039266
0.00388848
0.00385033
0.00381217
0.00377404
0.00373598
0.00369802
0.00366018
0.0036225
0.00358499
0.00354768
0.0035106
0.00347375
0.00343716
0.00340085
0.00336482
0.0033291
0.00329369
0.00325861
0.00322386
0.00318945
0.00315539
0.00312168
0.00308834
0.00305536
0.00302274
0.0029905
0.00295862
0.00292712
0.00289598
0.00286522
0.00283483
0.0028048
0.00277514
0.00274585
0.00271692
0.00268835
0.00266014
0.00263229
0.0026048
0.00257765
0.00255085
0.0025244
0.00249828
0.00247249
0.00244704
0.00242191
0.00239711
0.00237262
0.00234845
0.00232458
0.00230102
0.00227776
0.00225479
0.00223212
0.00220973
0.00218762
0.00216578
0.00214422
0.00212292
0.00210187
0.00208107
0.00206051
0.00204016
0.00202003
0.00200008
0.00198029
0.00196064
0.00194107
0.00192155
0.001902
0.00188235
0.00186246
0.0018424
0.00182165
0.00179333
2.33918e-06
0.00011787
0.000252638
0.000380653
0.000503532
0.000620038
0.000731031
0.000840517
0.000955923
0.00108229
0.00122078
0.00137085
0.00151305
0.00164493
0.00176909
0.00188742
0.00200104
0.00211059
0.00221644
0.00231881
0.0024181
0.00251469
0.00260889
0.00270094
0.00279108
0.00287951
0.00296641
0.00305195
0.00313624
0.00321941
0.00330154
0.00338267
0.00346286
0.0035421
0.0036204
0.00369772
0.00377403
0.00384927
0.00392338
0.00399628
0.00406789
0.00413814
0.00420692
0.00427415
0.00433975
0.00440361
0.00446564
0.00452577
0.00458391
0.00463998
0.00469391
0.00474562
0.00479505
0.00484214
0.00488684
0.0049291
0.00496889
0.00500616
0.00504089
0.00507306
0.00510265
0.00512966
0.00515408
0.00517592
0.00519518
0.00521188
0.00522605
0.0052377
0.00524687
0.0052536
0.00525792
0.00525985
0.00525951
0.0052569
0.00525208
0.00524512
0.00523607
0.00522499
0.00521195
0.00519701
0.00518025
0.00516173
0.00514152
0.00511971
0.00509635
0.00507152
0.0050453
0.00501775
0.00498896
0.00495898
0.0049279
0.00489577
0.00486268
0.00482869
0.00479386
0.00475825
0.00472195
0.004685
0.00464747
0.00460941
0.0045709
0.00453197
0.00449269
0.00445311
0.00441328
0.00437324
0.00433303
0.00429271
0.00425231
0.00421188
0.00417143
0.00413103
0.00409068
0.00405043
0.00401031
0.00397033
0.00393053
0.00389093
0.00385154
0.0038124
0.00377351
0.0037349
0.00369657
0.00365854
0.00362084
0.00358345
0.0035464
0.00350969
0.00347334
0.00343734
0.0034017
0.00336643
0.00333152
0.00329699
0.00326283
0.00322905
0.00319564
0.00316261
0.00312995
0.00309767
0.00306577
0.00303424
0.00300308
0.00297229
0.00294188
0.00291182
0.00288213
0.0028528
0.00282382
0.0027952
0.00276693
0.002739
0.00271141
0.00268416
0.00265724
0.00263065
0.00260439
0.00257845
0.00255282
0.00252751
0.0025025
0.0024778
0.00245339
0.00242927
0.00240543
0.00238186
0.00235856
0.0023355
0.00231267
0.00229006
0.00226763
0.00224536
0.00222319
0.00220109
0.00217898
0.00215678
0.00213438
0.00211181
0.00208851
0.00205784
1.92454e-06
0.000110214
0.000242408
0.000369704
0.00049544
0.000619945
0.000745133
0.000874884
0.00101264
0.00116036
0.0013182
0.00147983
0.00162746
0.00176378
0.00189178
0.00201344
0.00213003
0.00224238
0.00235101
0.00245632
0.00255861
0.00265807
0.00275514
0.00285018
0.00294348
0.00303527
0.00312574
0.00321507
0.00330338
0.00339078
0.00347733
0.00356308
0.00364806
0.00373226
0.00381566
0.00389822
0.00397989
0.00406059
0.00414025
0.00421879
0.0042961
0.00437208
0.00444665
0.00451968
0.00459109
0.00466076
0.0047286
0.00479451
0.0048584
0.00492018
0.00497977
0.00503708
0.00509206
0.00514462
0.00519471
0.00524229
0.0052873
0.00532971
0.00536949
0.0054066
0.00544104
0.00547278
0.00550183
0.00552819
0.00555187
0.00557287
0.00559122
0.00560694
0.00562006
0.00563062
0.00563865
0.00564419
0.0056473
0.00564802
0.00564642
0.00564254
0.00563645
0.0056282
0.00561786
0.0056055
0.00559118
0.00557496
0.00555693
0.00553715
0.0055157
0.00549264
0.00546805
0.005442
0.00541457
0.00538582
0.00535582
0.00532465
0.00529238
0.00525906
0.00522478
0.00518959
0.00515356
0.00511676
0.00507924
0.00504108
0.00500232
0.00496303
0.00492327
0.00488308
0.00484252
0.00480163
0.00476048
0.00471909
0.00467752
0.00463581
0.004594
0.00455213
0.00451022
0.00446833
0.00442647
0.00438468
0.004343
0.00430143
0.00426002
0.00421878
0.00417774
0.00413691
0.00409632
0.00405598
0.00401591
0.00397612
0.00393662
0.00389743
0.00385856
0.00382002
0.00378181
0.00374394
0.00370642
0.00366925
0.00363244
0.00359598
0.0035599
0.00352418
0.00348882
0.00345384
0.00341923
0.00338499
0.00335112
0.00331762
0.00328449
0.00325174
0.00321934
0.00318732
0.00315565
0.00312435
0.0030934
0.00306281
0.00303258
0.00300269
0.00297315
0.00294395
0.00291509
0.00288656
0.00285837
0.00283051
0.00280297
0.00277574
0.00274884
0.00272223
0.00269593
0.00266992
0.00264419
0.00261873
0.00259352
0.00256854
0.00254376
0.00251916
0.00249468
0.00247029
0.0024459
0.00242145
0.00239683
0.00237203
0.00234653
0.00231371
1.53462e-06
0.000102069
0.000231953
0.000358931
0.000487641
0.000619026
0.000755746
0.000899718
0.00105261
0.00121495
0.00138723
0.00155301
0.00170463
0.00184481
0.0019763
0.00210108
0.00222048
0.00233544
0.00244662
0.0025545
0.00265949
0.00276187
0.00286193
0.00295985
0.00305605
0.00315083
0.00324443
0.00333702
0.00342876
0.00351975
0.00361005
0.00369973
0.00378878
0.0038772
0.00396495
0.00405199
0.00413824
0.00422363
0.00430807
0.00439145
0.00447368
0.00455463
0.00463419
0.00471226
0.00478872
0.00486345
0.00493634
0.0050073
0.00507622
0.005143
0.00520755
0.00526979
0.00532963
0.00538702
0.00544189
0.00549417
0.00554383
0.00559081
0.00563508
0.00567662
0.00571541
0.00575142
0.00578466
0.00581512
0.00584281
0.00586775
0.00588995
0.00590942
0.00592622
0.00594035
0.00595187
0.0059608
0.00596721
0.00597113
0.00597263
0.00597176
0.00596859
0.00596316
0.00595554
0.00594579
0.00593398
0.00592018
0.00590446
0.00588689
0.00586754
0.00584648
0.00582379
0.00579953
0.00577379
0.00574662
0.0057181
0.0056883
0.00565729
0.00562513
0.0055919
0.00555766
0.00552247
0.00548639
0.00544951
0.00541187
0.00537353
0.00533456
0.005295
0.00525493
0.00521438
0.00517341
0.00513207
0.0050904
0.00504846
0.00500629
0.00496392
0.0049214
0.00487877
0.00483607
0.00479332
0.00475056
0.00470783