/*--------------------------------*- C++ -*----------------------------------*\
  =========                 |
  \\      /  F ield         | OpenFOAM: The Open Source CFD Toolbox
   \\    /   O peration     | Website:  https://openfoam.org
    \\  /    A nd           | Version:  8
     \\/     M anipulation  |
\*---------------------------------------------------------------------------*/
FoamFile
{
    version     2.0;
    format      ascii;
    class       surfaceScalarField;
    location    "3200";
    object      phi;
}
// * * * * * * * * * * * * * * * * * * * * * * * * * * * * * * * * * * * * * //

dimensions      [0 3 -1 0 0 0 0];

internalField   nonuniform List<scalar> 
24170
(
3.92539e-06
-7.91498e-07
3.76465e-06
1.6075e-07
3.63345e-06
1.31209e-07
3.43331e-06
2.00144e-07
3.28028e-06
1.53027e-07
3.18901e-06
9.11905e-08
3.13091e-06
5.81105e-08
3.08609e-06
4.58914e-08
3.04612e-06
4.23237e-08
3.01059e-06
3.81629e-08
2.97876e-06
3.38025e-08
2.94904e-06
3.07703e-08
2.92187e-06
2.73778e-08
2.89642e-06
2.51999e-08
2.87227e-06
2.36051e-08
2.85193e-06
1.94837e-08
2.84097e-06
9.85685e-09
-6.3778e-09
2.84668e-06
3.58445e-06
-9.19499e-07
3.80424e-06
-5.90413e-08
3.74282e-06
1.92629e-07
3.6906e-06
2.52374e-07
3.63729e-06
2.06333e-07
3.59023e-06
1.3828e-07
3.55289e-06
9.55996e-08
3.52309e-06
7.56598e-08
3.49853e-06
6.65699e-08
3.47732e-06
5.92155e-08
3.45871e-06
5.25297e-08
3.44253e-06
4.7265e-08
3.42795e-06
4.23382e-08
3.41466e-06
3.87867e-08
3.40269e-06
3.57305e-08
3.39122e-06
3.10525e-08
3.38036e-06
2.0842e-08
4.78034e-09
3.36944e-06
3.68518e-06
-7.92482e-07
3.83639e-06
-2.10251e-07
3.91494e-06
1.14082e-07
3.94502e-06
2.22293e-07
3.94408e-06
2.07264e-07
3.92749e-06
1.54897e-07
3.90755e-06
1.15615e-07
3.88932e-06
9.36446e-08
3.874e-06
8.11968e-08
3.86056e-06
7.19163e-08
3.84834e-06
6.42565e-08
3.83728e-06
5.81358e-08
3.82691e-06
5.27796e-08
3.8174e-06
4.84756e-08
3.80891e-06
4.44341e-08
3.80097e-06
3.9254e-08
3.79195e-06
3.02078e-08
1.77973e-08
3.77944e-06
4.05359e-06
-6.4151e-07
4.1146e-06
-2.71259e-07
4.20799e-06
2.06916e-08
4.26635e-06
1.63932e-07
4.29069e-06
1.82926e-07
4.29287e-06
1.52749e-07
4.28571e-06
1.22819e-07
4.27631e-06
1.02843e-07
4.26727e-06
8.96865e-08
4.25873e-06
7.98181e-08
4.25056e-06
7.19503e-08
4.24283e-06
6.56354e-08
4.23534e-06
6.0247e-08
4.22824e-06
5.56938e-08
4.22149e-06
5.13532e-08
4.21464e-06
4.63462e-08
4.20599e-06
3.91847e-08
3.06603e-08
4.19351e-06
4.50491e-06
-5.09114e-07
4.51536e-06
-2.81708e-07
4.58529e-06
-4.92342e-08
4.64665e-06
1.02566e-07
4.68258e-06
1.46992e-07
4.69688e-06
1.38473e-07
4.69946e-06
1.20237e-07
4.69723e-06
1.04926e-07
4.69331e-06
9.32554e-08
4.68868e-06
8.40578e-08
4.68366e-06
7.66425e-08
4.67851e-06
7.06087e-08
4.67321e-06
6.54952e-08
4.66783e-06
6.11066e-08
4.66227e-06
5.70059e-08
4.65606e-06
5.27042e-08
4.64786e-06
4.7592e-08
4.26061e-08
4.63612e-06
5.00014e-06
-3.94663e-07
4.98614e-06
-2.67704e-07
5.03069e-06
-9.3779e-08
5.08506e-06
4.81979e-08
5.12454e-06
1.07517e-07
5.14608e-06
1.1694e-07
5.15584e-06
1.10489e-07
5.1594e-06
1.01285e-07
5.15985e-06
9.26082e-08
5.15859e-06
8.50842e-08
5.15629e-06
7.87436e-08
5.15333e-06
7.34434e-08
5.14984e-06
6.89346e-08
5.14589e-06
6.50646e-08
5.14136e-06
6.15878e-08
5.13584e-06
5.83107e-08
5.12839e-06
5.51498e-08
5.30527e-08
5.11808e-06
5.54382e-06
-2.97475e-07
5.51664e-06
-2.40529e-07
5.54055e-06
-1.17686e-07
5.58388e-06
4.87031e-09
5.62166e-06
6.97344e-08
5.64656e-06
9.20462e-08
5.66107e-06
9.59685e-08
5.66906e-06
9.32473e-08
5.67315e-06
8.84247e-08
5.67481e-06
8.33016e-08
5.6749e-06
7.85524e-08
5.6739e-06
7.43762e-08
5.67204e-06
7.07665e-08
5.6694e-06
6.76968e-08
5.66591e-06
6.51008e-08
5.66127e-06
6.29894e-08
5.65494e-06
6.15485e-08
6.15336e-08
5.6465e-06
4.34788e-06
-2.39242e-07
4.32251e-06
-2.15162e-07
4.33078e-06
-1.25951e-07
4.35419e-06
-1.85363e-08
4.3784e-06
4.55259e-08
4.39646e-06
7.39849e-08
4.40841e-06
8.40228e-08
4.41597e-06
8.56738e-08
4.42059e-06
8.3768e-08
4.42325e-06
8.0598e-08
4.42456e-06
7.71971e-08
4.4249e-06
7.40034e-08
4.42446e-06
7.11808e-08
4.42334e-06
6.88111e-08
4.42151e-06
6.69379e-08
4.41884e-06
6.56721e-08
4.41514e-06
6.52701e-08
6.63504e-08
4.41035e-06
5.08621e-06
-1.85599e-07
5.05777e-06
-1.86718e-07
5.0584e-06
-1.26578e-07
5.07686e-06
-3.70024e-08
5.09918e-06
2.3214e-08
5.11773e-06
5.54362e-08
5.13124e-06
7.0507e-08
5.14059e-06
7.63168e-08
5.14686e-06
7.74757e-08
5.15094e-06
7.64974e-08
5.15344e-06
7.46766e-08
5.15477e-06
7.26667e-08
5.15514e-06
7.07973e-08
5.15468e-06
6.92649e-08
5.15341e-06
6.82109e-08
5.15128e-06
6.78143e-08
5.14821e-06
6.83516e-08
7.02733e-08
5.14429e-06
5.94839e-06
-1.38193e-07
5.91832e-06
-1.56649e-07
5.91161e-06
-1.19866e-07
5.924e-06
-4.93968e-08
5.94286e-06
4.35859e-09
5.96058e-06
3.77167e-08
5.97479e-06
5.62911e-08
5.98546e-06
6.56464e-08
5.9932e-06
6.97358e-08
5.99867e-06
7.10174e-08
6.00242e-06
7.09156e-08
6.00484e-06
7.024e-08
6.00618e-06
6.94583e-08
6.00657e-06
6.88676e-08
6.0061e-06
6.86883e-08
6.00478e-06
6.91361e-08
6.00267e-06
7.04622e-08
7.29762e-08
5.99997e-06
6.95439e-06
-9.8313e-08
6.92401e-06
-1.26278e-07
6.91113e-06
-1.06984e-07
6.9168e-06
-5.50658e-08
6.93087e-06
-9.71052e-09
6.94635e-06
2.22393e-08
6.96015e-06
4.24927e-08
6.9714e-06
5.43961e-08
6.98017e-06
6.09614e-08
6.98684e-06
6.43476e-08
6.9918e-06
6.59551e-08
6.99537e-06
6.66646e-08
6.9978e-06
6.70305e-08
6.99924e-06
6.74241e-08
6.99982e-06
6.81133e-08
6.99963e-06
6.93244e-08
6.99883e-06
7.12675e-08
7.41293e-08
6.99768e-06
8.12719e-06
-6.64877e-08
8.09793e-06
-9.70211e-08
8.08056e-06
-8.9609e-08
8.07955e-06
-5.40588e-08
8.08793e-06
-1.80895e-08
8.09985e-06
1.03226e-08
8.11198e-06
3.03587e-08
8.12286e-06
4.35219e-08
8.13202e-06
5.17952e-08
8.1395e-06
5.68675e-08
8.14548e-06
5.99752e-08
8.15018e-06
6.19696e-08
8.15378e-06
6.34309e-08
8.15644e-06
6.47566e-08
8.15832e-06
6.62331e-08
8.15958e-06
6.80738e-08
8.1604e-06
7.04406e-08
7.34387e-08
8.16109e-06
9.49368e-06
-4.24387e-08
9.4668e-06
-7.01429e-08
9.44683e-06
-6.96405e-08
9.43991e-06
-4.7132e-08
9.44229e-06
-2.04682e-08
9.44965e-06
2.95514e-09
9.45895e-06
2.10641e-08
9.4684e-06
3.40701e-08
9.47716e-06
4.30358e-08
9.48491e-06
4.91201e-08
9.49159e-06
5.32929e-08
9.49727e-06
5.62908e-08
9.50205e-06
5.86455e-08
9.50607e-06
6.07374e-08
9.50947e-06
6.28334e-08
9.51243e-06
6.51194e-08
9.51515e-06
6.77138e-08
7.06699e-08
9.51792e-06
1.10854e-05
-2.51591e-08
1.10618e-05
-4.65028e-08
1.1041e-05
-4.8807e-08
1.10294e-05
-3.5552e-08
1.10261e-05
-1.71702e-08
1.10284e-05
6.04429e-10
1.1034e-05
1.54741e-08
1.10411e-05
2.69701e-08
1.10487e-05
3.54909e-08
1.10561e-05
4.17148e-08
1.1063e-05
4.63122e-08
1.10695e-05
4.98417e-08
1.10754e-05
5.27334e-08
1.10808e-05
5.53016e-08
1.10859e-05
5.77663e-08
1.10908e-05
6.02715e-08
1.10956e-05
6.28976e-08
6.56678e-08
1.11006e-05
1.29396e-05
-1.31187e-08
1.29194e-05
-2.62788e-08
1.28988e-05
-2.82523e-08
1.28839e-05
-2.0688e-08
1.28758e-05
-8.99629e-09
1.28732e-05
3.14428e-09
1.28748e-05
1.39392e-08
1.28789e-05
2.27875e-08
1.28847e-05
2.97434e-08
1.28913e-05
3.51418e-08
1.28982e-05
3.93819e-08
1.29052e-05
4.28265e-08
1.29122e-05
4.5768e-08
1.29191e-05
4.84231e-08
1.29259e-05
5.09412e-08
1.29327e-05
5.34136e-08
1.29398e-05
5.58837e-08
5.83543e-08
1.29471e-05
1.50998e-05
-4.48322e-09
1.50822e-05
-8.67621e-09
1.50621e-05
-8.11388e-09
1.50448e-05
-3.45867e-09
1.50327e-05
3.10914e-09
1.50259e-05
9.93795e-09
1.50237e-05
1.61609e-08
1.5025e-05
2.14631e-08
1.50289e-05
2.58518e-08
1.50346e-05
2.9483e-08
1.50414e-05
3.25525e-08
1.5049e-05
3.52409e-08
1.50571e-05
3.76914e-08
1.50655e-05
4.00053e-08
1.50742e-05
4.22452e-08
1.50832e-05
4.44405e-08
1.50925e-05
4.65937e-08
4.86866e-08
1.51021e-05
1.76171e-05
2.89296e-09
1.75999e-05
8.52297e-09
1.75787e-05
1.30293e-08
1.7559e-05
1.62774e-08
1.75436e-05
1.84718e-08
1.75336e-05
1.99569e-08
1.75287e-05
2.10511e-08
1.75282e-05
2.19923e-08
1.75311e-05
2.29379e-08
1.75366e-05
2.39834e-08
1.7544e-05
2.5175e-08
1.75527e-05
2.65254e-08
1.75624e-05
2.80234e-08
1.75727e-05
2.96437e-08
1.75836e-05
3.13496e-08
1.7595e-05
3.31002e-08
1.76067e-05
3.48496e-08
3.6553e-08
1.76188e-05
1.78181e-05
1.10002e-08
1.77994e-05
2.72123e-08
1.77768e-05
3.56237e-08
1.7756e-05
3.70578e-08
1.77402e-05
3.43254e-08
1.77302e-05
2.99453e-08
1.77257e-05
2.5499e-08
1.77259e-05
2.17764e-08
1.77298e-05
1.90733e-08
1.77364e-05
1.73979e-08
1.77449e-05
1.66301e-08
1.77549e-05
1.66007e-08
1.77658e-05
1.71386e-08
1.77773e-05
1.80866e-08
1.77894e-05
1.93122e-08
1.78018e-05
2.07021e-08
1.78144e-05
2.21666e-08
2.36298e-08
1.78274e-05
1.58702e-05
2.21332e-08
1.58478e-05
4.9581e-08
1.58233e-05
6.01316e-08
1.58032e-05
5.72338e-08
1.57899e-05
4.76093e-08
1.57834e-05
3.63704e-08
1.57827e-05
2.61959e-08
1.57864e-05
1.81451e-08
1.57931e-05
1.23633e-08
1.58019e-05
8.61034e-09
1.5812e-05
6.49457e-09
1.5823e-05
5.62632e-09
1.58345e-05
5.6625e-09
1.58462e-05
6.32688e-09
1.58581e-05
7.3993e-09
1.58701e-05
8.71542e-09
1.58821e-05
1.01477e-08
1.16053e-08
1.58942e-05
1.41313e-05
3.95385e-08
1.41021e-05
7.87064e-08
1.40745e-05
8.77871e-08
1.40557e-05
7.60374e-08
1.40469e-05
5.64121e-08
1.40462e-05
3.70379e-08
1.40512e-05
2.12087e-08
1.40597e-05
9.58047e-09
1.40704e-05
1.76098e-09
1.4082e-05
-3.05023e-09
1.40941e-05
-5.6059e-09
1.41063e-05
-6.56223e-09
1.41184e-05
-6.41649e-09
1.41303e-05
-5.55885e-09
1.41419e-05
-4.25919e-09
1.41534e-05
-2.71824e-09
1.41646e-05
-1.07293e-09
5.78321e-10
1.41756e-05
1.25772e-05
6.73554e-08
1.25392e-05
1.16739e-07
1.25091e-05
1.17888e-07
1.24942e-05
9.089e-08
1.24928e-05
5.78124e-08
1.25002e-05
2.96812e-08
1.25122e-05
9.12894e-09
1.25264e-05
-4.49849e-09
1.25409e-05
-1.2837e-08
1.25552e-05
-1.7349e-08
1.25689e-05
-1.92841e-08
1.25819e-05
-1.94995e-08
1.25941e-05
-1.86534e-08
1.26057e-05
-1.71516e-08
1.26167e-05
-1.53021e-08
1.26273e-05
-1.32937e-08
1.26375e-05
-1.12582e-08
-9.27717e-09
1.26473e-05
1.11862e-05
1.10916e-07
1.11384e-05
1.6457e-07
1.11088e-05
1.4752e-07
1.11022e-05
9.74839e-08
1.11117e-05
4.83117e-08
1.11289e-05
1.23999e-08
1.11486e-05
-1.04632e-08
1.11678e-05
-2.37293e-08
1.11855e-05
-3.05098e-08
1.12014e-05
-3.32917e-08
1.12157e-05
-3.35547e-08
1.12285e-05
-3.23577e-08
1.12402e-05
-3.03013e-08
1.12509e-05
-2.78493e-08
1.12608e-05
-2.52375e-08
1.12701e-05
-2.26313e-08
1.1279e-05
-2.0118e-08
-1.77493e-08
1.12875e-05
9.93908e-06
1.76452e-07
9.88248e-06
2.21163e-07
9.85873e-06
1.71262e-07
9.86593e-06
9.0275e-08
9.8896e-06
2.46381e-08
9.91759e-06
-1.55568e-08
9.94391e-06
-3.67963e-08
9.96668e-06
-4.64116e-08
9.98571e-06
-4.96128e-08
1.00017e-05
-4.92895e-08
1.00152e-05
-4.71272e-08
1.00269e-05
-4.40004e-08
1.00371e-05
-4.0535e-08
1.00463e-05
-3.69932e-08
1.00546e-05
-3.35628e-08
1.00623e-05
-3.03405e-08
1.00696e-05
-2.73558e-08
-2.4637e-08
1.00765e-05
8.81963e-06
2.69916e-07
8.75785e-06
2.82944e-07
8.74788e-06
1.81226e-07
8.77481e-06
6.33228e-08
8.81458e-06
-1.51294e-08
8.85212e-06
-5.30924e-08
8.88268e-06
-6.72304e-08
8.90622e-06
-7.00274e-08
8.92427e-06
-6.76206e-08
8.93842e-06
-6.3375e-08
8.94984e-06
-5.84078e-08
8.95925e-06
-5.33423e-08
8.96726e-06
-4.84894e-08
8.97427e-06
-4.39844e-08
8.98055e-06
-3.98421e-08
8.98633e-06
-3.6098e-08
8.99172e-06
-3.27615e-08
-2.97727e-08
8.99687e-06
7.81391e-06
3.96675e-07
7.75391e-06
3.42943e-07
7.76868e-06
1.6644e-07
7.82053e-06
1.1461e-08
7.87567e-06
-7.02742e-08
7.91912e-06
-9.64914e-08
7.94967e-06
-9.78355e-08
7.97057e-06
-9.06514e-08
7.98483e-06
-8.1593e-08
7.99524e-06
-7.35591e-08
8.00315e-06
-6.61188e-08
8.00938e-06
-5.94335e-08
8.01449e-06
-5.33499e-08
8.0189e-06
-4.82001e-08
8.02278e-06
-4.36407e-08
8.02632e-06
-3.96578e-08
8.02968e-06
-3.61453e-08
-3.30413e-08
8.03292e-06
6.90424e-06
5.66768e-07
6.86137e-06
3.85805e-07
6.91716e-06
1.10634e-07
6.99674e-06
-6.8133e-08
7.06253e-06
-1.36071e-07
7.10529e-06
-1.39268e-07
7.13031e-06
-1.22549e-07
7.14447e-06
-1.04618e-07
7.15207e-06
-8.89993e-08
7.15708e-06
-7.58132e-08
7.16036e-06
-6.66912e-08
7.16269e-06
-5.95611e-08
7.16421e-06
-5.41872e-08
7.16558e-06
-4.93234e-08
7.16674e-06
-4.46776e-08
7.1678e-06
-4.09197e-08
7.1689e-06
-3.79461e-08
-3.48294e-08
7.17004e-06
6.07162e-06
7.97662e-07
6.08526e-06
3.72164e-07
6.19865e-06
-2.77329e-09
6.29989e-06
-1.69397e-07
6.36526e-06
-2.01462e-07
6.39754e-06
-1.71503e-07
6.41011e-06
-1.35216e-07
6.41342e-06
-1.06949e-07
6.41238e-06
-8.58106e-08
6.40987e-06
-7.40384e-08
6.40747e-06
-6.45126e-08
6.40485e-06
-5.76139e-08
6.4024e-06
-5.13078e-08
6.40041e-06
-4.66143e-08
6.39831e-06
-4.28209e-08
6.39634e-06
-3.9774e-08
6.39516e-06
-3.70767e-08
-3.40739e-08
6.39404e-06
5.35805e-06
1.05451e-06
5.50649e-06
2.23717e-07
5.64777e-06
-1.44085e-07
5.73564e-06
-2.57314e-07
5.77646e-06
-2.42346e-07
5.78324e-06
-1.78422e-07
5.77527e-06
-1.26643e-07
5.76327e-06
-9.40057e-08
5.74975e-06
-7.56731e-08
5.73929e-06
-6.39808e-08
5.73025e-06
-5.65425e-08
5.72234e-06
-4.99579e-08
5.71447e-06
-4.4574e-08
5.70775e-06
-4.04656e-08
5.70181e-06
-3.67924e-08
5.69622e-06
-3.36256e-08
5.69181e-06
-3.27838e-08
-3.02734e-08
5.68743e-06
5.04576e-06
1.01105e-06
5.36491e-06
-9.54499e-08
5.35251e-06
-1.31767e-07
5.33285e-06
-2.37745e-07
5.296e-06
-2.0565e-07
5.25017e-06
-1.32586e-07
5.20891e-06
-8.47351e-08
5.17485e-06
-6.08267e-08
5.14636e-06
-4.98318e-08
5.12483e-06
-4.29116e-08
5.10668e-06
-3.93243e-08
5.09047e-06
-3.56205e-08
5.07519e-06
-3.14354e-08
5.06203e-06
-2.78012e-08
5.05044e-06
-2.46844e-08
5.03899e-06
-2.19381e-08
5.02944e-06
-2.30853e-08
-2.10331e-08
5.02142e-06
5.4676e-06
5.37215e-06
5.24037e-06
5.00261e-06
4.79694e-06
4.66444e-06
4.57967e-06
4.51835e-06
4.46847e-06
4.42538e-06
4.38572e-06
4.34961e-06
4.31802e-06
4.29031e-06
4.26571e-06
4.24383e-06
4.22109e-06
4.20054e-06
2.313e-08
-2.31317e-08
2.37209e-07
-2.14084e-07
4.89336e-07
-2.52097e-07
7.09603e-07
-2.20246e-07
8.77318e-07
-1.67696e-07
9.88447e-07
-1.11119e-07
1.04411e-06
-5.56512e-08
1.04653e-06
-2.42113e-09
1.00103e-06
4.5513e-08
9.17754e-07
8.32672e-08
8.11955e-07
1.05809e-07
7.02769e-07
1.09174e-07
6.09986e-07
9.27786e-08
5.437e-07
6.6297e-08
4.92555e-07
5.11617e-08
4.33373e-07
5.98819e-08
3.47062e-07
8.61695e-08
2.21956e-07
1.25874e-07
4.36435e-08
1.77891e-07
-2.01828e-07
2.44838e-07
-5.04369e-07
3.02283e-07
-8.45363e-07
3.4074e-07
-1.2097e-06
3.64348e-07
-1.5871e-06
3.77406e-07
-1.9687e-06
3.8164e-07
-2.34453e-06
3.7585e-07
-2.70656e-06
3.62056e-07
-3.04964e-06
3.43086e-07
-3.36993e-06
3.20303e-07
-3.6651e-06
2.95175e-07
-3.93429e-06
2.69191e-07
-4.17781e-06
2.43525e-07
-4.39669e-06
2.18883e-07
-4.59241e-06
1.95722e-07
-4.76667e-06
1.74267e-07
-4.92128e-06
1.54601e-07
-5.05796e-06
1.36684e-07
-5.17836e-06
1.204e-07
-5.28395e-06
1.05588e-07
-5.37602e-06
9.20673e-08
-5.45567e-06
7.96559e-08
-5.52385e-06
6.81816e-08
-5.58134e-06
5.74891e-08
-5.62879e-06
4.74442e-08
-5.66673e-06
3.79382e-08
-5.69561e-06
2.88836e-08
-5.71582e-06
2.02091e-08
-5.72771e-06
1.1885e-08
-5.73175e-06
4.03915e-09
-5.72881e-06
-2.94029e-09
-5.71997e-06
-8.83864e-09
-5.706e-06
-1.39652e-08
-5.68732e-06
-1.86815e-08
-5.66417e-06
-2.31489e-08
-5.63673e-06
-2.74454e-08
-5.60513e-06
-3.15991e-08
-5.56951e-06
-3.56249e-08
-5.52998e-06
-3.95295e-08
-5.48666e-06
-4.3314e-08
-5.43969e-06
-4.69773e-08
-5.38917e-06
-5.05169e-08
-5.33524e-06
-5.39293e-08
-5.27803e-06
-5.7211e-08
-5.21767e-06
-6.03589e-08
-5.1543e-06
-6.33703e-08
-5.08806e-06
-6.62423e-08
-5.01909e-06
-6.89712e-08
-4.94753e-06
-7.1555e-08
-4.87354e-06
-7.39918e-08
-4.79726e-06
-7.62805e-08
-4.71884e-06
-7.84204e-08
-4.63843e-06
-8.0411e-08
-4.55617e-06
-8.22528e-08
-4.47223e-06
-8.39464e-08
-4.38673e-06
-8.54929e-08
-4.29984e-06
-8.68941e-08
-4.21169e-06
-8.81522e-08
-4.12242e-06
-8.92696e-08
-4.03217e-06
-9.02495e-08
-3.94107e-06
-9.10952e-08
-3.84926e-06
-9.18107e-08
-3.75686e-06
-9.24004e-08
-3.66399e-06
-9.28689e-08
-3.57077e-06
-9.32215e-08
-3.47731e-06
-9.34638e-08
-3.3837e-06
-9.36034e-08
-3.29005e-06
-9.36497e-08
-3.19644e-06
-9.36144e-08
-3.10293e-06
-9.35102e-08
-3.00958e-06
-9.33508e-08
-2.91642e-06
-9.31552e-08
-2.82347e-06
-9.29514e-08
-2.73071e-06
-9.27595e-08
-2.63816e-06
-9.25564e-08
-2.5459e-06
-9.22562e-08
-2.45414e-06
-9.17598e-08
-2.36316e-06
-9.09807e-08
-2.27322e-06
-8.9936e-08
-2.18444e-06
-8.87829e-08
-2.09681e-06
-8.76282e-08
-2.01034e-06
-8.64723e-08
-1.92504e-06
-8.5299e-08
-1.84094e-06
-8.41011e-08
-1.75806e-06
-8.28777e-08
-1.67643e-06
-8.16313e-08
-1.59607e-06
-8.03656e-08
-1.51698e-06
-7.90846e-08
-1.43919e-06
-7.77908e-08
-1.36271e-06
-7.64822e-08
-1.28758e-06
-7.5138e-08
-1.21381e-06
-7.37704e-08
-1.1414e-06
-7.2407e-08
-1.07036e-06
-7.10429e-08
-1.00069e-06
-6.96793e-08
-9.32371e-07
-6.83171e-08
-8.65415e-07
-6.69579e-08
-7.99814e-07
-6.56038e-08
-7.35558e-07
-6.42577e-08
-6.7264e-07
-6.29214e-08
-6.11048e-07
-6.15942e-08
-5.50774e-07
-6.0277e-08
-4.91804e-07
-5.89724e-08
-4.3412e-07
-5.76866e-08
-3.77698e-07
-5.64249e-08
-3.22517e-07
-5.51835e-08
-2.6856e-07
-5.39588e-08
-2.15807e-07
-5.27549e-08
-1.64239e-07
-5.15708e-08
-1.13846e-07
-5.03948e-08
-6.46206e-08
-4.92267e-08
-1.66852e-08
-4.79366e-08
3.00921e-08
-4.67781e-08
7.60184e-08
-4.59267e-08
1.20988e-07
-4.49694e-08
1.64897e-07
-4.39092e-08
2.07743e-07
-4.28452e-08
2.49542e-07
-4.17984e-08
2.90325e-07
-4.07814e-08
3.30123e-07
-3.97963e-08
3.68966e-07
-3.88417e-08
4.06883e-07
-3.79157e-08
4.43902e-07
-3.70169e-08
4.80047e-07
-3.61444e-08
5.15346e-07
-3.52972e-08
5.49821e-07
-3.4475e-08
5.83499e-07
-3.36774e-08
6.16404e-07
-3.2904e-08
6.48559e-07
-3.21547e-08
6.79988e-07
-3.14295e-08
7.10717e-07
-3.07283e-08
7.40768e-07
-3.00512e-08
7.70166e-07
-2.9398e-08
7.98935e-07
-2.8769e-08
8.27099e-07
-2.81639e-08
8.54682e-07
-2.75829e-08
8.81707e-07
-2.7026e-08
9.082e-07
-2.64928e-08
9.34182e-07
-2.59833e-08
9.59678e-07
-2.54968e-08
9.8471e-07
-2.50327e-08
1.0093e-06
-2.45894e-08
1.03346e-06
-2.41654e-08
1.05722e-06
-2.37576e-08
1.08058e-06
-2.33621e-08
1.10355e-06
-2.29731e-08
1.12613e-06
-2.25826e-08
1.14831e-06
-2.21791e-08
1.17005e-06
-2.17469e-08
1.19131e-06
-2.12638e-08
1.21201e-06
-2.06989e-08
1.23202e-06
-2.00078e-08
1.25114e-06
-1.91268e-08
1.2691e-06
-1.79585e-08
1.28545e-06
-1.63585e-08
1.2995e-06
-1.40517e-08
1.31013e-06
-1.06277e-08
1.3147e-06
-4.56331e-09
1.30785e-06
6.85226e-09
1.27831e-06
2.95345e-08
7.23299e-08
1.20597e-06
2.54189e-07
-2.77342e-07
4.90087e-07
-4.49981e-07
6.39671e-07
-4.01677e-07
7.24302e-07
-3.04876e-07
7.63816e-07
-2.07201e-07
7.69762e-07
-1.17069e-07
7.48831e-07
-3.47136e-08
7.06649e-07
3.97532e-08
6.4629e-07
1.05878e-07
5.67664e-07
1.61885e-07
4.7005e-07
2.0343e-07
3.51781e-07
2.27432e-07
2.06817e-07
2.37748e-07
2.36176e-08
2.49512e-07
-2.08604e-07
2.83389e-07
-4.94251e-07
3.45621e-07
-8.32216e-07
4.24223e-07
-1.21208e-06
5.05752e-07
-1.6159e-06
5.81669e-07
-2.01734e-06
6.46225e-07
-2.40737e-06
6.92256e-07
-2.78284e-06
7.16203e-07
-3.13779e-06
7.1929e-07
-3.46521e-06
7.04833e-07
-3.75997e-06
6.76405e-07
-4.02111e-06
6.36997e-07
-4.24905e-06
5.89998e-07
-4.44506e-06
5.39102e-07
-4.61205e-06
4.87298e-07
-4.75353e-06
4.3666e-07
-4.87288e-06
3.88536e-07
-4.97325e-06
3.439e-07
-5.05754e-06
3.03167e-07
-5.12824e-06
2.66423e-07
-5.18747e-06
2.33505e-07
-5.23698e-06
2.0411e-07
-5.27817e-06
1.77871e-07
-5.31216e-06
1.54393e-07
-5.33987e-06
1.33297e-07
-5.36204e-06
1.1423e-07
-5.37926e-06
9.68811e-08
-5.39206e-06
8.09847e-08
-5.40089e-06
6.63187e-08
-5.40615e-06
5.27014e-08
-5.4082e-06
3.9986e-08
-5.40737e-06
2.80576e-08
-5.404e-06
1.68384e-08
-5.39841e-06
6.29354e-09
-5.39075e-06
-3.62096e-09
-5.3806e-06
-1.30949e-08
-5.36707e-06
-2.23683e-08
-5.34957e-06
-3.14703e-08
-5.32791e-06
-4.03354e-08
-5.3021e-06
-4.89598e-08
-5.2722e-06
-5.73504e-08
-5.23828e-06
-6.55133e-08
-5.20046e-06
-7.34514e-08
-5.15882e-06
-8.11642e-08
-5.11349e-06
-8.86484e-08
-5.06457e-06
-9.58983e-08
-5.01218e-06
-1.02907e-07
-4.95644e-06
-1.09667e-07
-4.89748e-06
-1.16171e-07
-4.83543e-06
-1.22411e-07
-4.77041e-06
-1.28383e-07
-4.70258e-06
-1.34081e-07
-4.63205e-06
-1.39496e-07
-4.55898e-06
-1.44624e-07
-4.48351e-06
-1.49462e-07
-4.40578e-06
-1.54009e-07
-4.32594e-06
-1.58261e-07
-4.24414e-06
-1.62218e-07
-4.16051e-06
-1.65882e-07
-4.0752e-06
-1.69252e-07
-3.98836e-06
-1.72333e-07
-3.90013e-06
-1.75126e-07
-3.81065e-06
-1.77636e-07
-3.72005e-06
-1.79868e-07
-3.62847e-06
-1.81829e-07
-3.53604e-06
-1.83524e-07
-3.44289e-06
-1.84963e-07
-3.34913e-06
-1.86151e-07
-3.2549e-06
-1.871e-07
-3.16031e-06
-1.87818e-07
-3.06545e-06
-1.88317e-07
-2.97045e-06
-1.88608e-07
-2.87539e-06
-1.88703e-07
-2.78039e-06
-1.88616e-07
-2.68554e-06
-1.8836e-07
-2.59095e-06
-1.87946e-07
-2.49672e-06
-1.87386e-07
-2.40298e-06
-1.86688e-07
-2.30989e-06
-1.85847e-07
-2.21761e-06
-1.84835e-07
-2.12626e-06
-1.83608e-07
-2.03588e-06
-1.82136e-07
-1.94645e-06
-1.80416e-07
-1.8579e-06
-1.78488e-07
-1.77025e-06
-1.7643e-07
-1.68358e-06
-1.74295e-07
-1.59796e-06
-1.72097e-07
-1.51342e-06
-1.69836e-07
-1.43001e-06
-1.67515e-07
-1.34775e-06
-1.65136e-07
-1.26668e-06
-1.62706e-07
-1.18681e-06
-1.60229e-07
-1.10819e-06
-1.57712e-07
-1.03082e-06
-1.55157e-07
-9.54738e-07
-1.52567e-07
-8.79936e-07
-1.49941e-07
-8.06413e-07
-1.47294e-07
-7.34184e-07
-1.44638e-07
-6.63251e-07
-1.41977e-07
-5.93617e-07
-1.39315e-07
-5.25281e-07
-1.36655e-07
-4.58241e-07
-1.33999e-07
-3.92494e-07
-1.31352e-07
-3.28035e-07
-1.28718e-07
-2.64853e-07
-1.26105e-07
-2.02938e-07
-1.23511e-07
-1.42281e-07
-1.20935e-07
-8.28715e-08
-1.18384e-07
-2.47015e-08
-1.15858e-07
3.22423e-08
-1.1337e-07
8.7988e-08
-1.10931e-07
1.42553e-07
-1.08525e-07
1.95947e-07
-1.0615e-07
2.48186e-07
-1.03811e-07
2.99297e-07
-1.01507e-07
3.49309e-07
-9.92395e-08
3.98381e-07
-9.70084e-08
4.46485e-07
-9.48829e-08
4.93406e-07
-9.2848e-08
5.39212e-07
-9.07747e-08
5.83979e-07
-8.86763e-08
6.27739e-07
-8.66055e-08
6.70523e-07
-8.45815e-08
7.12353e-07
-8.26112e-08
7.53253e-07
-8.0696e-08
7.93247e-07
-7.88346e-08
8.32357e-07
-7.70254e-08
8.70608e-07
-7.52669e-08
9.08022e-07
-7.35579e-08
9.44622e-07
-7.18974e-08
9.80433e-07
-7.02849e-08
1.01548e-06
-6.87199e-08
1.04977e-06
-6.72021e-08
1.08335e-06
-6.57312e-08
1.11623e-06
-6.43072e-08
1.14843e-06
-6.29299e-08
1.17998e-06
-6.15996e-08
1.2109e-06
-6.03161e-08
1.24121e-06
-5.90794e-08
1.27093e-06
-5.78895e-08
1.3001e-06
-5.67464e-08
1.32872e-06
-5.56497e-08
1.35682e-06
-5.45991e-08
1.38443e-06
-5.35939e-08
1.41157e-06
-5.26329e-08
1.43825e-06
-5.17143e-08
1.4645e-06
-5.08355e-08
1.49032e-06
-4.99927e-08
1.51574e-06
-4.91801e-08
1.54077e-06
-4.839e-08
1.56541e-06
-4.76112e-08
1.58965e-06
-4.68286e-08
1.61349e-06
-4.60205e-08
1.6369e-06
-4.51579e-08
1.65983e-06
-4.41992e-08
1.68222e-06
-4.30873e-08
1.70395e-06
-4.17403e-08
1.72486e-06
-4.00402e-08
1.74471e-06
-3.78103e-08
1.76313e-06
-3.47812e-08
1.77957e-06
-3.04921e-08
1.79313e-06
-2.41905e-08
1.80285e-06
-1.42827e-08
1.80772e-06
1.98923e-09
1.80584e-06
3.14177e-08
8.80289e-08
1.79013e-06
2.46008e-07
-5.23371e-07
3.4232e-07
-5.46296e-07
3.58606e-07
-4.17961e-07
3.47562e-07
-2.93822e-07
3.1986e-07
-1.79494e-07
2.75778e-07
-7.29856e-08
2.14602e-07
2.64651e-08
1.35283e-07
1.19069e-07
3.6758e-08
2.04404e-07
-8.31349e-08
2.81775e-07
-2.30102e-07
3.50398e-07
-4.14664e-07
4.11994e-07
-6.5023e-07
4.73312e-07
-9.43721e-07
5.43007e-07
-1.28498e-06
6.2464e-07
-1.65208e-06
7.12723e-07
-2.02418e-06
7.96328e-07
-2.38444e-06
8.65995e-07
-2.71895e-06
9.16163e-07
-3.01717e-06
9.44433e-07
-3.27524e-06
9.5032e-07
-3.49413e-06
9.35101e-07
-3.67683e-06
9.01999e-07
-3.82739e-06
8.55396e-07
-3.95053e-06
7.99545e-07
-4.05166e-06
7.3813e-07
-4.13611e-06
6.74451e-07
-4.20828e-06
6.11268e-07
-4.27159e-06
5.50613e-07
-4.32867e-06
4.93738e-07
-4.38139e-06
4.41253e-07
-4.43088e-06
3.93389e-07
-4.47777e-06
3.50064e-07
-4.52235e-06
3.10996e-07
-4.56464e-06
2.75794e-07
-4.60455e-06
2.4402e-07
-4.64191e-06
2.15232e-07
-4.67653e-06
1.89017e-07
-4.70823e-06
1.64995e-07
-4.73684e-06
1.42838e-07
-4.76222e-06
1.22262e-07
-4.78426e-06
1.03029e-07
-4.80289e-06
8.49421e-08
-4.81802e-06
6.78351e-08
-4.8296e-06
5.15685e-08
-4.83757e-06
3.60231e-08
-4.84183e-06
2.10972e-08
-4.84223e-06
6.69683e-09
-4.83857e-06
-7.28459e-09
-4.8307e-06
-2.09614e-08
-4.81868e-06
-3.43932e-08
-4.80258e-06
-4.75677e-08
-4.78246e-06
-6.04624e-08
-4.75835e-06
-7.30692e-08
-4.73032e-06
-8.53814e-08
-4.69844e-06
-9.73933e-08
-4.66279e-06
-1.09098e-07
-4.62347e-06
-1.20487e-07
-4.58056e-06
-1.3155e-07
-4.53419e-06
-1.42275e-07
-4.48444e-06
-1.52651e-07
-4.43145e-06
-1.62664e-07
-4.37532e-06
-1.72301e-07
-4.31618e-06
-1.8155e-07
-4.25416e-06
-1.90405e-07
-4.18938e-06
-1.98856e-07
-4.12199e-06
-2.0689e-07
-4.05211e-06
-2.14501e-07
-3.97989e-06
-2.21683e-07
-3.90547e-06
-2.28434e-07
-3.82898e-06
-2.3475e-07
-3.75057e-06
-2.40629e-07
-3.67038e-06
-2.46073e-07
-3.58854e-06
-2.51083e-07
-3.50521e-06
-2.55663e-07
-3.42052e-06
-2.59816e-07
-3.33461e-06
-2.6355e-07
-3.24761e-06
-2.6687e-07
-3.15965e-06
-2.69786e-07
-3.07087e-06
-2.72307e-07
-2.98139e-06
-2.74444e-07
-2.89133e-06
-2.76208e-07
-2.80082e-06
-2.77612e-07
-2.70997e-06
-2.78669e-07
-2.61889e-06
-2.79393e-07
-2.5277e-06
-2.79799e-07
-2.4365e-06
-2.79902e-07
-2.3454e-06
-2.79717e-07
-2.2545e-06
-2.79258e-07
-2.16391e-06
-2.78539e-07
-2.07372e-06
-2.77569e-07
-1.98405e-06
-2.76356e-07
-1.895e-06
-2.749e-07
-1.80665e-06
-2.73186e-07
-1.71906e-06
-2.712e-07
-1.63226e-06
-2.68939e-07
-1.54625e-06
-2.6642e-07
-1.46106e-06
-2.63678e-07
-1.37673e-06
-2.60759e-07
-1.29333e-06
-2.57698e-07
-1.21091e-06
-2.54515e-07
-1.12952e-06
-2.51223e-07
-1.04921e-06
-2.47831e-07
-9.69996e-07
-2.44348e-07
-8.91917e-07
-2.40785e-07
-8.14998e-07
-2.37149e-07
-7.39262e-07
-2.33448e-07
-6.64727e-07
-2.29691e-07
-5.91409e-07
-2.25885e-07
-5.19313e-07
-2.22038e-07
-4.48447e-07
-2.1816e-07
-3.78822e-07
-2.14263e-07
-3.10444e-07
-2.10356e-07
-2.43314e-07
-2.06445e-07
-1.77433e-07
-2.02536e-07
-1.12799e-07
-1.98634e-07
-4.94077e-08
-1.94744e-07
1.27467e-08
-1.90874e-07
7.36687e-08
-1.87028e-07
1.33366e-07
-1.83209e-07
1.91852e-07
-1.79422e-07
2.49139e-07
-1.75672e-07
3.05243e-07
-1.71962e-07
3.60174e-07
-1.68303e-07
4.1394e-07
-1.64697e-07
4.66555e-07
-1.61141e-07
5.18041e-07
-1.57637e-07
5.68416e-07
-1.54186e-07
6.17702e-07
-1.50794e-07
6.65929e-07
-1.47467e-07
7.1314e-07
-1.44219e-07
7.59316e-07
-1.4106e-07
8.04425e-07
-1.37957e-07
8.48515e-07
-1.34865e-07
8.91631e-07
-1.31792e-07
9.33794e-07
-1.28769e-07
9.75024e-07
-1.25812e-07
1.01534e-06
-1.22927e-07
1.05476e-06
-1.20117e-07
1.09331e-06
-1.17381e-07
1.131e-06
-1.14718e-07
1.16786e-06
-1.12128e-07
1.20391e-06
-1.09609e-07
1.23918e-06
-1.07161e-07
1.27367e-06
-1.04783e-07
1.30743e-06
-1.02474e-07
1.34046e-06
-1.00235e-07
1.37279e-06
-9.80648e-08
1.40445e-06
-9.59634e-08
1.43545e-06
-9.39308e-08
1.46582e-06
-9.19672e-08
1.49557e-06
-9.00724e-08
1.52474e-06
-8.82465e-08
1.55334e-06
-8.64895e-08
1.58139e-06
-8.4801e-08
1.60892e-06
-8.31809e-08
1.63595e-06
-8.16284e-08
1.6625e-06
-8.01424e-08
1.68859e-06
-7.87213e-08
1.71424e-06
-7.73625e-08
1.73946e-06
-7.60619e-08
1.76428e-06
-7.48142e-08
1.78872e-06
-7.36112e-08
1.81277e-06
-7.24418e-08
1.83645e-06
-7.12902e-08
1.85975e-06
-7.01351e-08
1.88268e-06
-6.89462e-08
1.9052e-06
-6.76824e-08
1.92729e-06
-6.62863e-08
1.94888e-06
-6.46779e-08
1.96988e-06
-6.27438e-08
1.99016e-06
-6.03215e-08
2.00952e-06
-5.71702e-08
2.02766e-06
-5.29266e-08
2.04417e-06
-4.7e-08
2.05843e-06
-3.84507e-08
2.06967e-06
-2.55187e-08
2.07701e-06
-5.36019e-09
2.08091e-06
2.75138e-08
8.54876e-08
2.08346e-06
9.37312e-08
-6.17112e-07
6.23859e-08
-5.14964e-07
1.39019e-08
-3.69469e-07
-4.31898e-08
-2.36723e-07
-1.12687e-07
-1.0999e-07
-1.9806e-07
1.23911e-08
-3.02291e-07
1.30698e-07
-4.27797e-07
2.44575e-07
-5.77155e-07
3.53761e-07
-7.53747e-07
4.58368e-07
-9.62333e-07
5.58981e-07
-1.20723e-06
6.56889e-07
-1.48722e-06
7.53299e-07
-1.79151e-06
8.47291e-07
-2.10139e-06
9.34519e-07
-2.39725e-06
1.00857e-06
-2.66459e-06
1.06365e-06
-2.89513e-06
1.09653e-06
-3.08563e-06
1.10665e-06
-3.23689e-06
1.09569e-06
-3.35326e-06
1.0667e-06
-3.4413e-06
1.02314e-06
-3.50812e-06
9.68819e-07
-3.56023e-06
9.07515e-07
-3.60313e-06
8.42446e-07
-3.64124e-06
7.76245e-07
-3.67782e-06
7.11025e-07
-3.71488e-06
6.48334e-07
-3.75345e-06
5.89174e-07
-3.79377e-06
5.34067e-07
-3.83569e-06
4.83165e-07
-3.87869e-06
4.36391e-07
-3.92214e-06
3.93511e-07
-3.96535e-06
3.54205e-07
-4.00766e-06
3.1811e-07
-4.0485e-06
2.84855e-07
-4.08735e-06
2.54085e-07
-4.1238e-06
2.25466e-07
-4.1575e-06
1.98701e-07
-4.18819e-06
1.73524e-07
-4.21563e-06
1.49705e-07
-4.23965e-06
1.2705e-07
-4.2601e-06
1.05391e-07
-4.27686e-06
8.45871e-08
-4.28981e-06
6.45183e-08
-4.29887e-06
4.50831e-08
-4.30397e-06
2.61955e-08
-4.30505e-06
7.77847e-09
-4.30209e-06
-1.02416e-08
-4.29513e-06
-2.79259e-08
-4.28422e-06
-4.53023e-08
-4.26942e-06
-6.23677e-08
-4.25077e-06
-7.91093e-08
-4.22833e-06
-9.55146e-08
-4.20214e-06
-1.1157e-07
-4.17227e-06
-1.27261e-07
-4.1388e-06
-1.42573e-07
-4.1018e-06
-1.57487e-07
-4.06136e-06
-1.71988e-07
-4.01758e-06
-1.86056e-07
-3.97055e-06
-1.99674e-07
-3.92039e-06
-2.12823e-07
-3.86721e-06
-2.25484e-07
-3.81112e-06
-2.37639e-07
-3.75225e-06
-2.4928e-07
-3.69071e-06
-2.6039e-07
-3.62665e-06
-2.70957e-07
-3.56018e-06
-2.80971e-07
-3.49144e-06
-2.90424e-07
-3.42056e-06
-2.9931e-07
-3.34768e-06
-3.07625e-07
-3.27295e-06
-3.15368e-07
-3.19648e-06
-3.22538e-07
-3.11843e-06
-3.29139e-07
-3.03892e-06
-3.35173e-07
-2.95809e-06
-3.40646e-07
-2.87607e-06
-3.45567e-07
-2.79299e-06
-3.49944e-07
-2.70899e-06
-3.53787e-07
-2.62419e-06
-3.57109e-07
-2.53871e-06
-3.59924e-07
-2.45267e-06
-3.62245e-07
-2.3662e-06
-3.64089e-07
-2.27939e-06
-3.65471e-07
-2.19238e-06
-3.6641e-07
-2.10525e-06
-3.66922e-07
-2.01813e-06
-3.67027e-07
-1.93111e-06
-3.66741e-07
-1.84428e-06
-3.66082e-07
-1.75776e-06
-3.65065e-07
-1.67162e-06
-3.63705e-07
-1.58596e-06
-3.62012e-07
-1.50087e-06
-3.59993e-07
-1.4164e-06
-3.57651e-07
-1.33262e-06
-3.54987e-07
-1.24955e-06
-3.5201e-07
-1.16723e-06
-3.48741e-07
-1.08569e-06
-3.45211e-07
-1.00499e-06
-3.41455e-07
-9.25189e-07
-3.37504e-07
-8.46323e-07
-3.33381e-07
-7.68442e-07
-3.29104e-07
-6.91584e-07
-3.24689e-07
-6.15782e-07
-3.20151e-07
-5.41064e-07
-3.15502e-07
-4.67457e-07
-3.10756e-07
-3.94982e-07
-3.05923e-07
-3.23658e-07
-3.01016e-07
-2.53497e-07
-2.96046e-07
-1.8451e-07
-2.91025e-07
-1.16706e-07
-2.85964e-07
-5.00936e-08
-2.80876e-07
1.5322e-08
-2.75772e-07
7.9536e-08