/*--------------------------------*- C++ -*----------------------------------*\
  =========                 |
  \\      /  F ield         | OpenFOAM: The Open Source CFD Toolbox
   \\    /   O peration     | Website:  https://openfoam.org
    \\  /    A nd           | Version:  8
     \\/     M anipulation  |
\*---------------------------------------------------------------------------*/
FoamFile
{
    version     2.0;
    format      ascii;
    class       volVectorField;
    location    "3200";
    object      U;
}
// * * * * * * * * * * * * * * * * * * * * * * * * * * * * * * * * * * * * * //

dimensions      [0 1 -1 0 0 0 0];

internalField   nonuniform List<vector> 
12225
(
(9.2745 -4.73371 0)
(13.1094 -1.71343 0)
(12.4778 -0.395198 0)
(11.2771 -0.0422041 0)
(10.6314 0.0141384 0)
(10.2979 -9.39881e-05 0)
(10.0776 -0.0165233 0)
(9.91227 -0.00288829 0)
(9.77909 0.0348746 0)
(9.66231 0.0428929 0)
(9.55574 0.0248835 0)
(9.45767 0.00214257 0)
(9.36675 -0.0227913 0)
(9.28211 -0.0302248 0)
(9.20232 -0.0217875 0)
(9.13253 -0.0212274 0)
(9.07015 -0.0210395 0)
(9.08962 -0.0276968 0)
(10.2592 0.0928019 0)
(10.7814 0.199339 0)
(10.9594 0.245656 0)
(10.7469 0.229143 0)
(10.5875 0.172969 0)
(10.4527 0.115535 0)
(10.33 0.0823315 0)
(10.2327 0.06473 0)
(10.155 0.0524767 0)
(10.0894 0.0472338 0)
(10.0323 0.0469929 0)
(9.98212 0.0489905 0)
(9.93785 0.0517977 0)
(9.89833 0.0519426 0)
(9.8615 0.048325 0)
(9.82885 0.0438431 0)
(9.79428 0.0300805 0)
(9.76827 0.0102843 0)
(9.87768 -0.24504 0)
(9.74285 0.00579113 0)
(10.1971 0.125744 0)
(10.3245 0.179364 0)
(10.3564 0.161548 0)
(10.3311 0.120077 0)
(10.2777 0.090494 0)
(10.2252 0.0746657 0)
(10.1812 0.0658752 0)
(10.1438 0.060029 0)
(10.1103 0.0562087 0)
(10.0799 0.0536513 0)
(10.052 0.0511367 0)
(10.026 0.0487624 0)
(10.0023 0.0460755 0)
(9.98118 0.0417681 0)
(9.95915 0.0316709 0)
(9.93459 0.0135787 0)
(9.83416 -0.443933 0)
(9.57654 -0.163146 0)
(9.91603 0.0336707 0)
(10.0933 0.134225 0)
(10.1892 0.145473 0)
(10.2168 0.120738 0)
(10.205 0.0978952 0)
(10.1824 0.0839094 0)
(10.1599 0.0756297 0)
(10.1389 0.0697124 0)
(10.119 0.0651347 0)
(10.1001 0.0616378 0)
(10.0821 0.0586135 0)
(10.0648 0.0562295 0)
(10.0483 0.0538549 0)
(10.0325 0.0501451 0)
(10.0148 0.042419 0)
(9.99178 0.0306145 0)
(9.87825 -0.387476 0)
(9.61653 -0.196147 0)
(9.81623 -0.01867 0)
(9.96136 0.0916131 0)
(10.0698 0.122197 0)
(10.1219 0.113628 0)
(10.1354 0.0992642 0)
(10.1332 0.088421 0)
(10.1257 0.0809485 0)
(10.1162 0.0753967 0)
(10.1056 0.0711243 0)
(10.0946 0.0678821 0)
(10.0833 0.0652544 0)
(10.0718 0.0631567 0)
(10.0601 0.0610449 0)
(10.0477 0.058107 0)
(10.0328 0.0530818 0)
(10.0125 0.0469045 0)
(9.91439 -0.28804 0)
(9.68304 -0.185176 0)
(9.78717 -0.0532073 0)
(9.88917 0.0509995 0)
(9.98796 0.0936801 0)
(10.0476 0.099204 0)
(10.0751 0.0938743 0)
(10.0861 0.0875181 0)
(10.0892 0.0821205 0)
(10.0879 0.0777646 0)
(10.0842 0.074351 0)
(10.0789 0.0717603 0)
(10.0726 0.069742 0)
(10.0654 0.0681722 0)
(10.0572 0.0667261 0)
(10.0476 0.0650438 0)
(10.0354 0.062784 0)
(10.0185 0.0611719 0)
(9.93763 -0.214041 0)
(9.74856 -0.167535 0)
(9.79244 -0.0752152 0)
(9.85608 0.0162207 0)
(9.93595 0.0644221 0)
(9.99281 0.0805953 0)
(10.0261 0.0835613 0)
(10.0447 0.0822434 0)
(10.0546 0.0797794 0)
(10.0593 0.0772875 0)
(10.0606 0.0751759 0)
(10.0596 0.0735592 0)
(10.057 0.0723894 0)
(10.053 0.0716355 0)
(10.0477 0.071191 0)
(10.0407 0.0710165 0)
(10.0312 0.071279 0)
(10.0182 0.0731533 0)
(9.95263 -0.167334 0)
(9.79947 -0.149677 0)
(9.81177 -0.0846412 0)
(9.84959 -0.0062101 0)
(9.9114 0.0419321 0)
(9.96107 0.0638972 0)
(9.99432 0.07255 0)
(10.0156 0.0752862 0)
(10.0288 0.0755299 0)
(10.0367 0.0749035 0)
(10.041 0.0741479 0)
(10.0427 0.0735819 0)
(10.0425 0.0733233 0)
(10.0408 0.0734489 0)
(10.0375 0.0740062 0)
(10.0325 0.075137 0)
(10.0254 0.0772056 0)
(10.0157 0.0812056 0)
(9.96406 -0.132089 0)
(9.84003 -0.131988 0)
(9.83337 -0.0876898 0)
(9.85306 -0.0213325 0)
(9.89927 0.0244158 0)
(9.94102 0.0495131 0)
(9.97207 0.0621234 0)
(9.99385 0.0680768 0)
(10.0086 0.070696 0)
(10.0184 0.0717946 0)
(10.0246 0.0723176 0)
(10.0282 0.0727536 0)
(10.0298 0.0733606 0)
(10.0297 0.0743192 0)
(10.028 0.0757874 0)
(10.0248 0.0780083 0)
(10.0197 0.0814116 0)
(10.0129 0.0868088 0)
(9.97418 -0.100205 0)
(9.87757 -0.11239 0)
(9.85857 -0.0853661 0)
(9.86387 -0.0323327 0)
(9.89487 0.00892908 0)
(9.92743 0.0352241 0)
(9.95439 0.0507171 0)
(9.97502 0.059497 0)
(9.99014 0.0644441 0)
(10.0009 0.0673593 0)
(10.0085 0.0692981 0)
(10.0135 0.0708779 0)
(10.0166 0.0724766 0)
(10.018 0.0743694 0)
(10.0179 0.0768022 0)
(10.0164 0.0800768 0)
(10.0136 0.0846185 0)
(10.0095 0.091044 0)
(9.98253 -0.0727091 0)
(9.91035 -0.0921962 0)
(9.88507 -0.0782441 0)
(9.88001 -0.0386073 0)
(9.89746 -0.00337376 0)
(9.92043 0.0221691 0)
(9.94196 0.0391845 0)
(9.95999 0.0500812 0)
(9.97425 0.0570563 0)
(9.98518 0.0617051 0)
(9.99339 0.0650796 0)
(9.99941 0.0678636 0)
(10.0037 0.0705165 0)
(10.0064 0.0733848 0)
(10.0078 0.0767702 0)
(10.0081 0.0809924 0)
(10.0073 0.0864251 0)
(10.0058 0.0935042 0)
(9.98894 -0.0502566 0)
(9.93733 -0.0723781 0)
(9.91073 -0.067448 0)
(9.89917 -0.0399826 0)
(9.90566 -0.0116495 0)
(9.91955 0.0114524 0)
(9.93496 0.0285309 0)
(9.94934 0.0405806 0)
(9.96169 0.0490247 0)
(9.97188 0.0551118 0)
(9.98009 0.0597799 0)
(9.98659 0.0637031 0)
(9.99163 0.0673716 0)
(9.99544 0.0711646 0)
(9.9982 0.0754036 0)
(10.0001 0.0803908 0)
(10.0013 0.0864267 0)
(10.0021 0.0937945 0)
(9.99348 -0.0329086 0)
(9.9582 -0.0538109 0)
(9.93368 -0.0542834 0)
(9.91898 -0.036787 0)
(9.91755 -0.0154531 0)
(9.92366 0.0039952 0)
(9.93301 0.0197758 0)
(9.94318 0.0318769 0)
(9.9529 0.0410109 0)
(9.96163 0.0480208 0)
(9.96922 0.0536475 0)
(9.9757 0.0584838 0)
(9.98118 0.0629925 0)
(9.98578 0.0675415 0)
(9.98965 0.0724345 0)
(9.99294 0.0779314 0)
(9.99587 0.0842542 0)
(9.99869 0.0915742 0)
(9.99643 -0.0202024 0)
(9.97327 -0.0372097 0)
(9.95261 -0.0400452 0)
(9.93731 -0.0298104 0)
(9.93089 -0.0148232 0)
(9.93102 0.000366872 0)
(9.93504 0.0137746 0)
(9.94104 0.024843 0)
(9.94782 0.0337591 0)
(9.95465 0.0409913 0)
(9.96117 0.0470498 0)
(9.96724 0.0523948 0)
(9.97281 0.0574115 0)
(9.9779 0.0624149 0)
(9.98261 0.0676592 0)
(9.98704 0.0733465 0)
(9.99135 0.0796276 0)
(9.99573 0.086596 0)
(9.99816 -0.0112876 0)
(9.9833 -0.0229304 0)
(9.96682 -0.0257625 0)
(9.95243 -0.0200764 0)
(9.94344 -0.0102414 0)
(9.93952 0.000675358 0)
(9.9394 0.0110303 0)
(9.94183 0.0201442 0)
(9.94582 0.0279253 0)
(9.95069 0.0345718 0)
(9.95597 0.0403854 0)
(9.96139 0.0456759 0)
(9.96681 0.0507214 0)
(9.97216 0.0557538 0)
(9.97744 0.0609572 0)
(9.9827 0.0664682 0)
(9.98803 0.0723761 0)
(9.99354 0.0787216 0)
(9.99906 -0.00508077 0)
(9.98922 -0.0107805 0)
(9.97612 -0.0119165 0)
(9.96309 -0.00848229 0)
(9.9531 -0.00243414 0)
(9.94685 0.00457918 0)
(9.94399 0.0115579 0)
(9.94384 0.018021 0)
(9.9457 0.0238391 0)
(9.94896 0.0290807 0)
(9.95317 0.0339013 0)
(9.95799 0.0384776 0)
(9.96321 0.0429745 0)
(9.96868 0.0475291 0)
(9.97435 0.0522458 0)
(9.98019 0.0571943 0)
(9.98623 0.0624099 0)
(9.99249 0.0678952 0)
(9.99942 -0.000367149 0)
(9.9918 0.000152116 0)
(9.98042 0.00183284 0)
(9.96821 0.00459438 0)
(9.9579 0.00792091 0)
(9.95061 0.0114025 0)
(9.94642 0.0148176 0)
(9.94498 0.0180894 0)
(9.94576 0.0212345 0)
(9.94825 0.0243192 0)
(9.95198 0.0274246 0)
(9.9566 0.0306279 0)
(9.96186 0.0339915 0)
(9.96757 0.0375594 0)
(9.97362 0.0413554 0)
(9.97993 0.0453843 0)
(9.98648 0.0496321 0)
(9.99325 0.0540687 0)
(9.99935 0.00408488 0)
(9.9911 0.0111737 0)
(9.97897 0.016134 0)
(9.96616 0.0187376 0)
(9.95552 0.019614 0)
(9.94819 0.0195478 0)
(9.94419 0.0191611 0)
(9.94311 0.0188639 0)
(9.94438 0.0188967 0)
(9.94741 0.0193767 0)
(9.95174 0.0203446 0)
(9.95698 0.0217951 0)
(9.96287 0.0236975 0)
(9.96919 0.0260071 0)
(9.97583 0.0286724 0)
(9.98269 0.0316367 0)
(9.98974 0.0348423 0)
(9.99692 0.0382283 0)
(9.99882 0.00972983 0)
(9.98675 0.0240493 0)
(9.97122 0.0318473 0)
(9.95641 0.0332949 0)
(9.94558 0.0307055 0)
(9.93942 0.0263518 0)
(9.93734 0.0217494 0)
(9.93845 0.0177408 0)
(9.94186 0.0146964 0)
(9.94687 0.0127119 0)
(9.95291 0.0117317 0)
(9.95962 0.0116367 0)
(9.96674 0.012288 0)
(9.97408 0.0135497 0)
(9.98155 0.0152971 0)
(9.98908 0.0174203 0)
(9.99665 0.0198228 0)
(10.0042 0.0224205 0)
(9.99757 0.01821 0)
(9.97773 0.0404557 0)
(9.95664 0.0495782 0)
(9.93945 0.0474798 0)
(9.92961 0.0394252 0)
(9.92659 0.0296488 0)
(9.92848 0.0204921 0)
(9.93357 0.0129687 0)
(9.94055 0.00735042 0)
(9.94856 0.00351924 0)
(9.95704 0.0012238 0)
(9.96567 0.000174456 0)
(9.97428 0.000107828 0)
(9.98276 0.000790732 0)
(9.99109 0.00203667 0)
(9.99925 0.00369281 0)
(10.0073 0.00563714 0)
(10.0151 0.00777167 0)
(9.99502 0.0318146 0)
(9.96177 0.062134 0)
(9.93372 0.0695521 0)
(9.91534 0.0601159 0)
(9.90932 0.0439521 0)
(9.91249 0.0276614 0)
(9.92084 0.0139952 0)
(9.93162 0.00364056 0)
(9.94322 -0.0036408 0)
(9.95479 -0.00837296 0)
(9.96594 -0.0111299 0)
(9.97652 -0.0123939 0)
(9.98651 -0.0125706 0)
(9.99595 -0.0119596 0)
(10.0049 -0.0107974 0)
(10.0135 -0.00925631 0)
(10.0217 -0.00746741 0)
(10.0296 -0.00552896 0)
(9.99018 0.0534618 0)
(9.93561 0.0901522 0)
(9.90098 0.0906282 0)
(9.88515 0.0687575 0)
(9.8878 0.0418196 0)
(9.90121 0.0186593 0)
(9.91856 0.00141796 0)
(9.93626 -0.0103956 0)
(9.95285 -0.0179403 0)
(9.96786 -0.0223927 0)
(9.98129 -0.0246486 0)
(9.99332 -0.0253898 0)
(10.0042 -0.025095 0)
(10.0141 -0.0241194 0)
(10.0232 -0.0227005 0)
(10.0318 -0.0210069 0)
(10.0399 -0.0191553 0)
(10.0476 -0.0172271 0)
(9.9819 0.0862471 0)
(9.89548 0.124258 0)
(9.85817 0.109884 0)
(9.85209 0.0697743 0)
(9.87033 0.0303385 0)
(9.89842 0.00144927 0)
(9.92658 -0.017204 0)
(9.95134 -0.0283203 0)
(9.9722 -0.0344196 0)
(9.9896 -0.0373293 0)
(10.0042 -0.0382057 0)
(10.0168 -0.0378004 0)
(10.0276 -0.0366175 0)
(10.0372 -0.0349805 0)
(10.0459 -0.0330918 0)
(10.0539 -0.0310919 0)
(10.0613 -0.0290586 0)
(10.0684 -0.0270535 0)
(9.96925 0.13399 0)
(9.83823 0.163089 0)
(9.80793 0.122591 0)
(9.82311 0.0588003 0)
(9.86512 0.00730857 0)
(9.91138 -0.0240262 0)
(9.95035 -0.0405902 0)
(9.98048 -0.0483708 0)
(10.0034 -0.051235 0)
(10.0212 -0.0515369 0)
(10.0353 -0.050415 0)
(10.0469 -0.0485122 0)
(10.0565 -0.0462601 0)
(10.0649 -0.0438595 0)
(10.0723 -0.0414375 0)
(10.079 -0.0390865 0)
(10.0852 -0.0368582 0)
(10.0911 -0.034764 0)
(9.94951 0.20714 0)
(9.76128 0.207022 0)
(9.75726 0.123478 0)
(9.81042 0.0320113 0)
(9.88382 -0.0278606 0)
(9.94874 -0.0559945 0)
(9.99526 -0.0660722 0)
(10.0266 -0.0678008 0)
(10.048 -0.0659721 0)
(10.063 -0.0631911 0)
(10.0743 -0.0598825 0)
(10.083 -0.0564953 0)
(10.09 -0.0531565 0)
(10.0959 -0.0501241 0)
(10.101 -0.0472804 0)
(10.1057 -0.0446752 0)
(10.11 -0.0423212 0)
(10.1141 -0.0401935 0)
(9.91094 0.322718 0)
(9.65923 0.254545 0)
(9.71887 0.107407 0)
(9.83329 -0.0119229 0)
(9.94173 -0.0726523 0)
(10.0199 -0.0901622 0)
(10.0662 -0.0893217 0)
(10.0917 -0.0831376 0)
(10.1058 -0.076038 0)
(10.1141 -0.0696159 0)
(10.1197 -0.0644923 0)
(10.1236 -0.0600802 0)
(10.1262 -0.0564 0)
(10.1281 -0.0532009 0)
(10.1298 -0.0501628 0)
(10.1314 -0.0476196 0)
(10.1329 -0.0455469 0)
(10.1344 -0.0434257 0)
(9.84404 0.43511 0)
(9.53798 0.261026 0)
(9.7269 0.059135 0)
(9.92367 -0.0731153 0)
(10.0584 -0.121552 0)
(10.1344 -0.120191 0)
(10.1664 -0.10528 0)
(10.1758 -0.0906167 0)
(10.1759 -0.0784828 0)
(10.1725 -0.0703765 0)
(10.1686 -0.0644297 0)
(10.1646 -0.0597636 0)
(10.1606 -0.0556875 0)
(10.1569 -0.0524172 0)
(10.1536 -0.0496133 0)
(10.1503 -0.0474481 0)
(10.1479 -0.0458478 0)
(10.146 -0.0439272 0)
(9.83598 0.319666 0)
(9.55021 0.0912513 0)
(9.91739 -0.0687253 0)
(10.1507 -0.160112 0)
(10.2634 -0.172136 0)
(10.3032 -0.142726 0)
(10.2978 -0.112094 0)
(10.276 -0.0899551 0)
(10.2516 -0.07539 0)
(10.2302 -0.0674552 0)
(10.2132 -0.0619262 0)
(10.1983 -0.0574413 0)
(10.1844 -0.0528829 0)
(10.1713 -0.0486261 0)
(10.1597 -0.0448462 0)
(10.1497 -0.0425165 0)
(10.141 -0.0407809 0)
(10.1325 -0.0380694 0)
(10.2049 -0.0633775 0)
(10.4095 -0.191706 0)
(10.7164 -0.282558 0)
(10.6879 -0.282287 0)
(10.6191 -0.230103 0)
(10.5417 -0.163667 0)
(10.4546 -0.117044 0)
(10.3763 -0.0925009 0)
(10.3137 -0.0798722 0)
(10.2654 -0.0678615 0)
(10.2262 -0.0588596 0)
(10.1916 -0.0542988 0)
(10.1603 -0.0534855 0)
(10.1322 -0.053082 0)
(10.107 -0.0522527 0)
(10.0852 -0.048244 0)
(10.0638 -0.0440349 0)
(10.0436 -0.0449086 0)
(9.41631 4.45107 0)
(12.7294 2.07612 0)
(12.5649 0.621213 0)
(11.569 0.127657 0)
(10.9309 0.00343448 0)
(10.5866 -0.00206809 0)
(10.3638 0.012309 0)
(10.2022 0.0302324 0)
(10.0795 0.0411899 0)
(9.97728 0.0358286 0)
(9.88477 0.0250302 0)
(9.79908 0.0218946 0)
(9.72267 0.024985 0)
(9.65612 0.0228077 0)
(9.59983 0.0197965 0)
(9.54588 0.0108824 0)
(9.49516 -0.01439 0)
(9.45193 -0.010935 0)
(-0.0275159 0.0934322 0)
(0.13702 -0.183517 0)
(0.324991 -0.305905 0)
(0.52548 -0.315124 0)
(0.702957 -0.272077 0)
(0.833506 -0.211083 0)
(0.909825 -0.146343 -8.60159e-20)
(0.940406 -0.0824975 8.66401e-20)
(0.919534 -0.0201747 0)
(0.85885 0.0345356 9.18605e-20)
(0.771694 0.0739587 0)
(0.672433 0.0920042 0)
(0.57851 0.0877233 0)
(0.505709 0.0666632 -1.43197e-19)
(0.455756 0.0377106 0)
(0.412411 0.00997453 0)
(0.352876 -0.00897268 1.87922e-19)
(0.262716 -0.00867978 0)
(0.13517 0.0293045 0)
(-0.0448243 0.112949 0)
(-0.300539 0.186493 -1.64806e-19)
(-0.594241 0.235262 0)
(-0.915664 0.266819 -7.62352e-20)
(-1.25192 0.296038 0)
(-1.59134 0.323656 0)
(-1.93109 0.336464 -4.13209e-20)
(-2.26351 0.335615 0)
(-2.58062 0.326492 3.45395e-20)
(-2.8794 0.310354 0)
(-3.15641 0.289554 -3.13407e-20)
(-3.41076 0.266418 0)
(-3.64206 0.242537 0)
(-3.85103 0.218947 0)
(-4.03877 0.196353 0)
(-4.20672 0.175131 0)
(-4.35644 0.155489 2.82291e-20)
(-4.4895 0.137461 0)
(-4.60741 0.120976 -5.55698e-20)
(-4.71154 0.105907 0)
(-4.80311 0.0920952 5.47712e-20)
(-4.88317 0.0793776 0)
(-4.95262 0.0676026 0)
(-5.01222 0.0566422 -5.35492e-20)
(-5.06259 0.0463997 0)
(-5.10422 0.0368157 -5.26576e-20)
(-5.13754 0.0278733 5.21798e-20)
(-5.16294 0.0196166 0)
(-5.18081 0.0121935 5.11529e-20)
(-5.19142 0.00585189 5.06005e-20)
(-5.19494 0.000802195 0)
(-5.19262 -0.00315135 0)
(-5.18571 -0.00644964 0)
(-5.17432 -0.00937206 0)
(-5.1588 -0.0120827 0)
(-5.1393 -0.0146513 -4.61811e-20)
(-5.11595 -0.0170913 0)
(-5.08888 -0.0194142 4.43159e-20)
(-5.05819 -0.0216288 0)
(-5.02397 -0.0237374 0)
(-4.98634 -0.0257418 -4.11378e-20)
(-4.94538 -0.0276425 0)
(-4.90122 -0.0294395 3.87622e-20)
(-4.85396 -0.0311324 0)
(-4.80372 -0.0327213 0)
(-4.75061 -0.0342062 0)
(-4.69474 -0.0355868 -3.33827e-20)
(-4.63626 -0.0368635 0)
(-4.57527 -0.0380375 0)
(-4.51191 -0.0391091 -2.87854e-20)
(-4.4463 -0.0400793 0)
(-4.37858 -0.0409494 -2.54441e-20)
(-4.30888 -0.041721 0)
(-4.23733 -0.0423958 0)
(-4.16406 -0.0429757 0)
(-4.08921 -0.043463 1.80667e-20)
(-4.01289 -0.0438596 0)
(-3.93525 -0.0441682 0)
(-3.85641 -0.0443909 1.18846e-20)
(-3.77649 -0.0445305 9.6908e-21)
(-3.69561 -0.0445895 0)
(-3.6139 -0.0445708 5.08884e-21)
(-3.53146 -0.0444775 0)
(-3.44842 -0.0443124 3.61213e-22)
(-3.36487 -0.0440791 0)
(-3.28092 -0.0437826 -1.01289e-20)
(-3.19667 -0.0434324 0)
(-3.11221 -0.0430451 2.13718e-20)
(-3.02761 -0.0426445 0)
(-2.94295 -0.0422588 0)
(-2.85828 -0.0419238 0)
(-2.77364 -0.0416965 -4.65647e-20)
(-2.68906 -0.0416664 0)
(-2.60455 -0.0419302 6.08409e-20)
(-2.52006 -0.0425371 0)
(-2.43557 -0.0434253 -7.65114e-20)
(-2.35132 -0.0443282 -8.48907e-20)
(-2.26755 -0.0447837 -9.35995e-20)
(-2.18453 -0.0445757 0)
(-2.10242 -0.0439711 0)
(-2.02124 -0.0432727 0)
(-1.941 -0.0425679 0)
(-1.86171 -0.0418677 0)
(-1.78339 -0.0411734 0)
(-1.70608 -0.0404865 0)
(-1.62979 -0.0398109 0)
(-1.55455 -0.0391523 1.92716e-19)
(-1.48038 -0.0385179 2.07037e-19)
(-1.40727 -0.0379129 0)
(-1.33526 -0.0373264 0)
(-1.26438 -0.0367013 0)
(-1.19464 -0.0360437 2.74307e-19)
(-1.12607 -0.0354097 0)
(-1.05866 -0.0347942 0)
(-0.992407 -0.0341986 0)
(-0.927323 -0.0336246 0)
(-0.863404 -0.0330742 -3.90951e-19)
(-0.800649 -0.0325499 0)
(-0.739055 -0.0320548 0)
(-0.678613 -0.0315926 4.89134e-19)
(-0.619318 -0.0311646 -5.28834e-19)
(-0.561163 -0.0307744 0)
(-0.504139 -0.0304324 -6.22447e-19)
(-0.448235 -0.0301626 0)
(-0.393431 -0.0300094 7.4143e-19)
(-0.339706 -0.0299837 0)
(-0.287045 -0.0300472 0)
(-0.235434 -0.0301868 0)
(-0.184845 -0.0304135 0)
(-0.13525 -0.0307428 0)
(-0.0866965 -0.0311935 -2.84668e-18)
(-0.0393933 -0.0316476 -3.2774e-18)
(0.00671129 -0.031348 0)
(0.0521279 -0.0298503 0)
(0.0968673 -0.0279997 0)
(0.140788 -0.0262815 2.6849e-18)
(0.183797 -0.0247485 0)
(0.225873 -0.0233749 0)
(0.267041 -0.0221372 0)
(0.30733 -0.0210155 2.04003e-18)
(0.346774 -0.0199926 -1.93375e-18)
(0.385399 -0.0190544 0)
(0.423232 -0.0181894 0)
(0.460297 -0.0173883 -1.68697e-18)
(0.496619 -0.0166437 -1.6223e-18)
(0.532222 -0.0159494 0)
(0.567127 -0.0153003 0)
(0.601358 -0.0146921 1.46401e-18)
(0.634938 -0.014121 -1.42052e-18)
(0.667889 -0.0135842 0)
(0.700233 -0.0130787 0)
(0.731994 -0.0126025 -1.31023e-18)
(0.763195 -0.0121534 0)
(0.793857 -0.0117297 0)
(0.824004 -0.0113298 -1.22271e-18)
(0.85366 -0.0109522 0)
(0.882847 -0.0105959 -1.17362e-18)
(0.911589 -0.0102596 0)
(0.939908 -0.00994221 0)
(0.967828 -0.00964268 0)
(0.995372 -0.00935999 1.09161e-18)
(1.02256 -0.00909295 0)
(1.04941 -0.00884038 0)
(1.07595 -0.00860075 0)
(1.10218 -0.00837232 0)
(1.12812 -0.00815281 0)
(1.15377 -0.00793931 0)
(1.17913 -0.00772795 9.82767e-19)
(1.20416 -0.00751359 9.69843e-19)
(1.22884 -0.00728923 0)
(1.25308 -0.00704533 0)
(1.2768 -0.00676839 0)
(1.29981 -0.00643981 -9.24484e-19)
(1.3219 -0.00602985 0)
(1.34263 -0.00549978 1.81385e-18)
(1.36157 -0.0047626 -1.80048e-18)
(1.37732 -0.0037268 -1.79175e-18)
(1.38991 -0.00195536 1.79005e-18)
(1.39033 0.00132641 -1.79543e-18)
(1.38763 0.00807462 1.80875e-18)
(1.30837 0.0198889 0)
(0.0963201 -0.269003 0)
(0.334076 -0.681291 0)
(0.51418 -0.706534 1.57354e-19)
(0.611819 -0.571352 0)
(0.662816 -0.408901 -1.11135e-19)
(0.683256 -0.253827 -1.08102e-19)
(0.67723 -0.112175 -5.62534e-20)
(0.646858 0.0155834 -5.61985e-20)
(0.603882 0.125402 0)
(0.544689 0.211923 -6.08068e-20)
(0.467879 0.267401 0)
(0.373396 0.283203 0)
(0.257594 0.256436 1.70487e-19)
(0.110263 0.211437 9.82819e-20)
(-0.0747645 0.206284 -1.84459e-19)
(-0.301035 0.271832 -1.43795e-19)
(-0.579017 0.383407 -5.71888e-20)
(-0.90495 0.513244 0)
(-1.25854 0.642608 0)
(-1.61664 0.756436 0)
(-1.97226 0.841993 -2.85748e-20)
(-2.31785 0.89556 0)
(-2.64775 0.919045 6.90623e-20)
(-2.95447 0.915465 0)
(-3.23397 0.889028 0)
(-3.48461 0.844862 1.98194e-20)
(-3.70499 0.788295 0)
(-3.89593 0.72486 -1.97617e-20)
(-4.05932 0.658786 -4.17977e-20)
(-4.19871 0.592785 2.01686e-20)
(-4.317 0.52896 0)
(-4.4171 0.469092 0)
(-4.50171 0.414012 0)
(-4.57324 0.364073 -4.42592e-20)
(-4.63375 0.319234 -4.47656e-20)
(-4.68493 0.279224 -2.219e-20)
(-4.72816 0.243633 0)
(-4.76455 0.211977 4.53078e-20)
(-4.79499 0.18376 0)
(-4.8202 0.1585 -4.58795e-20)
(-4.84076 0.135757 0)
(-4.85717 0.115136 0)
(-4.86984 0.0962964 4.609e-20)
(-4.87916 0.0789479 0)
(-4.88546 0.06285 1.38171e-19)
(-4.88906 0.0478082 -4.56105e-20)
(-4.89023 0.0336872 0)
(-4.88922 0.0204565 -4.49413e-20)
(-4.88629 0.00823226 -4.44847e-20)
(-4.8817 -0.00282334 0)
(-4.87455 -0.0127662 0)
(-4.86373 -0.0218922 0)
(-4.84922 -0.0304444 0)
(-4.83093 -0.0385375 0)
(-4.80889 -0.0462411 4.02187e-20)
(-4.78315 -0.053592 7.91678e-20)
(-4.75379 -0.0606115 -3.84414e-20)
(-4.7209 -0.0673108 0)
(-4.68457 -0.0736956 7.34894e-20)
(-4.64488 -0.0797687 -3.59684e-20)
(-4.60194 -0.0855307 0)
(-4.55585 -0.0909813 -3.32684e-20)
(-4.50671 -0.0961205 0)
(-4.45463 -0.10095 0)
(-4.39973 -0.105471 -5.98948e-20)
(-4.34212 -0.109683 2.83868e-20)
(-4.28193 -0.113588 -5.47031e-20)
(-4.21926 -0.117187 5.19843e-20)
(-4.15425 -0.120485 2.42951e-20)
(-4.08702 -0.123486 0)
(-4.0177 -0.126196 2.13621e-20)
(-3.94642 -0.128619 0)
(-3.8733 -0.130763 0)
(-3.79848 -0.132635 0)
(-3.72208 -0.134243 1.56354e-20)
(-3.64423 -0.135595 0)
(-3.56504 -0.136702 2.3768e-20)
(-3.48466 -0.137572 -2.99762e-20)
(-3.4032 -0.138216 -7.94228e-21)
(-3.32077 -0.138645 0)
(-3.23749 -0.138869 -4.14148e-21)
(-3.15348 -0.138901 0)
(-3.06885 -0.138753 -2.91777e-22)
(-2.98369 -0.138436 0)
(-2.89812 -0.137962 8.11446e-21)
(-2.81223 -0.137345 -2.35709e-20)
(-2.72611 -0.136595 -1.6968e-20)
(-2.63985 -0.135723 0)
(-2.55355 -0.134735 0)
(-2.4673 -0.133638 0)
(-2.38119 -0.132433 3.61871e-20)
(-2.29533 -0.131109 0)
(-2.20987 -0.12964 -4.66593e-20)
(-2.12495 -0.127968 0)
(-2.04071 -0.126042 1.71893e-19)
(-1.95722 -0.123887 6.36367e-20)
(-1.87449 -0.121604 6.96685e-20)
(-1.79248 -0.119299 0)
(-1.71115 -0.117031 0)
(-1.63056 -0.114797 0)
(-1.55077 -0.112575 0)
(-1.47184 -0.11035 0)
(-1.39381 -0.10812 2.19507e-19)
(-1.31671 -0.105883 2.35e-19)
(-1.24057 -0.103644 0)
(-1.16541 -0.101405 -1.34769e-19)
(-1.09127 -0.0991694 -1.43549e-19)
(-1.01817 -0.0969385 0)
(-0.946127 -0.0947145 -3.23055e-19)
(-0.875165 -0.0925018 0)
(-0.805275 -0.0903139 1.81334e-19)
(-0.736466 -0.0881566 0)
(-0.668748 -0.0860302 0)
(-0.602127 -0.0839369 -4.34473e-19)
(-0.536605 -0.0818783 0)
(-0.472182 -0.0798559 2.44844e-19)
(-0.408859 -0.0778728 0)
(-0.346635 -0.0759345 0)
(-0.285503 -0.07405 2.89783e-19)
(-0.225454 -0.0722173 3.09088e-19)
(-0.166481 -0.070431 0)
(-0.10858 -0.068694 -3.46382e-19)
(-0.0517548 -0.0670066 0)
(0.00399739 -0.0653601 3.82655e-19)
(0.058718 -0.0637477 7.66234e-19)
(0.112441 -0.0621806 0)
(0.165166 -0.0606737 0)
(0.216894 -0.0592313 0)
(0.267639 -0.0578513 0)
(0.317435 -0.0565359 7.09276e-19)
(0.366351 -0.0552738 2.09655e-18)
(0.414474 -0.0538951 0)
(0.461717 -0.0522494 0)
(0.507939 -0.0504752 0)
(0.553209 -0.0487282 -6.65659e-19)
(0.597609 -0.0470605 0)
(0.641168 -0.0454802 0)
(0.683903 -0.043985 1.28799e-18)
(0.725834 -0.0425683 6.36975e-19)
(0.766983 -0.0412227 6.3245e-19)
(0.807372 -0.0399417 0)
(0.847021 -0.0387197 0)
(0.885953 -0.0375523 6.15903e-19)
(0.924189 -0.0364359 -6.09666e-19)
(0.96175 -0.0353675 0)
(0.998657 -0.0343446 0)
(1.03493 -0.0333649 -5.96805e-19)
(1.0706 -0.0324268 1.77643e-18)
(1.10567 -0.0315285 0)
(1.14018 -0.0306686 0)
(1.17414 -0.0298459 5.80334e-19)
(1.20757 -0.0290591 0)
(1.24051 -0.0283073 1.14496e-18)
(1.27296 -0.0275893 -5.68547e-19)
(1.30496 -0.0269042 0)
(1.33652 -0.026251 5.62431e-19)
(1.36766 -0.0256287 1.11758e-18)
(1.39841 -0.0250363 0)
(1.42879 -0.0244723 0)
(1.45882 -0.0239355 -5.49592e-19)
(1.48852 -0.023424 0)
(1.51791 -0.0229355 1.08647e-18)
(1.547 -0.0224672 0)
(1.5758 -0.0220153 0)
(1.60433 -0.0215747 0)
(1.63258 -0.0211389 0)
(1.66055 -0.0206988 -5.29005e-19)
(1.68822 -0.0202425 -5.26236e-19)
(1.71555 -0.0197535 0)
(1.74248 -0.0192092 0)
(1.76893 -0.0185778 0)
(1.79474 -0.017814 5.16139e-19)
(1.81972 -0.0168504 0)
(1.84354 -0.0155842 -1.02486e-18)
(1.86578 -0.0138383 1.0226e-18)
(1.88552 -0.011328 1.02222e-18)
(1.90232 -0.00731287 1.02331e-18)
(1.91253 -0.000521953 1.02848e-18)
(1.92483 0.0124227 1.02037e-18)
(1.90527 0.0361857 0)
(0.11644 -0.859734 0)
(0.269013 -1.05684 0)
(0.316104 -0.826015 -1.26326e-19)
(0.315411 -0.584241 -1.08166e-19)
(0.297981 -0.373775 1.00486e-19)
(0.266773 -0.188648 1.00667e-19)
(0.220591 -0.0231873 -6.44911e-22)
(0.158696 0.124556 0)
(0.0809593 0.255099 0)
(-0.0138539 0.366017 0)
(-0.129301 0.451728 0)
(-0.273448 0.512792 0)
(-0.45921 0.566619 -2.67325e-19)
(-0.697074 0.641357 0)
(-0.983301 0.753916 6.62743e-20)
(-1.30204 0.895884 5.71737e-20)
(-1.63532 1.04399 0)
(-1.96626 1.17801 0)
(-2.2796 1.28539 0)
(-2.56348 1.35909 0)
(-2.8126 1.39484 3.49031e-20)
(-3.02653 1.39239 0)
(-3.20667 1.35643 -3.2346e-20)
(-3.35587 1.29418 0)
(-3.47857 1.21298 0)
(-3.57939 1.11921 0)
(-3.66314 1.01897 -6.85873e-20)
(-3.73419 0.917574 0)
(-3.79605 0.819167 3.31173e-20)
(-3.85151 0.726543 -7.0701e-20)
(-3.90249 0.641214 0)
(-3.95028 0.563918 0)
(-3.99564 0.494705 0)
(-4.03893 0.43319 3.65645e-20)
(-4.08027 0.378725 3.71519e-20)
(-4.1196 0.330537 0)
(-4.1568 0.28783 0)
(-4.19169 0.249843 -7.78008e-20)
(-4.22408 0.215882 -7.81937e-20)
(-4.25382 0.185337 7.84267e-20)
(-4.28077 0.157688 0)
(-4.3048 0.132507 0)
(-4.32583 0.109446 0)
(-4.34379 0.0882207 0)
(-4.3586 0.0685968 -7.70103e-20)
(-4.37023 0.0503747 -7.69123e-20)
(-4.37859 0.0333702 7.62694e-20)
(-4.38356 0.0173825 0)
(-4.38496 0.00215512 0)
(-4.38263 -0.0125983 0)
(-4.37651 -0.0270109 0)
(-4.36666 -0.0409959 -7.11058e-20)
(-4.35314 -0.0544616 0)
(-4.33598 -0.0673966 0)
(-4.31523 -0.0798053 -6.69941e-20)
(-4.29093 -0.0916964 -6.49685e-20)
(-4.26315 -0.103077 0)
(-4.23197 -0.113952 1.24569e-19)
(-4.19745 -0.124323 -6.00305e-20)
(-4.15969 -0.134189 5.82539e-20)
(-4.11877 -0.14355 0)
(-4.07479 -0.152403 0)
(-4.02785 -0.160745 0)
(-3.97805 -0.168577 0)
(-3.9255 -0.175902 4.84223e-20)
(-3.87031 -0.18272 9.37754e-20)
(-3.81259 -0.189031 4.40569e-20)
(-3.75247 -0.194838 -4.17848e-20)
(-3.69006 -0.200148 0)
(-3.62548 -0.204967 7.5424e-20)
(-3.55886 -0.209303 7.05409e-20)
(-3.49033 -0.213165 6.55414e-20)
(-3.41999 -0.216563 -6.04262e-20)
(-3.34799 -0.219509 0)
(-3.27445 -0.222015 -7.40978e-20)
(-3.19949 -0.224096 0)
(-3.12323 -0.225764 2.0095e-20)
(-3.04579 -0.227037 1.58718e-20)
(-2.9673 -0.22793 0)
(-2.88787 -0.228459 0)
(-2.80762 -0.228641 1.53606e-20)
(-2.72666 -0.228496 0)
(-2.6451 -0.22804 2.92603e-21)
(-2.56304 -0.227293 0)
(-2.4806 -0.226274 9.99722e-21)
(-2.39787 -0.225001 3.47226e-20)
(-2.31494 -0.223495 0)
(-2.23193 -0.221775 0)
(-2.14893 -0.219859 0)
(-2.06602 -0.217764 4.45828e-20)
(-1.98331 -0.215507 0)
(-1.90089 -0.213097 5.94047e-20)
(-1.81886 -0.210538 0)
(-1.73732 -0.207813 0)
(-1.65632 -0.204896 -1.67057e-19)
(-1.57591 -0.201774 0)
(-1.4961 -0.198458 -9.93156e-20)
(-1.4169 -0.194992 0)
(-1.33834 -0.191434 -1.16595e-19)
(-1.26048 -0.187822 0)
(-1.18337 -0.184175 0)
(-1.10707 -0.180498 0)
(-1.03162 -0.1768 -4.62703e-19)
(-0.957051 -0.173087 -1.65048e-19)
(-0.883396 -0.169365 0)
(-0.810683 -0.16564 0)
(-0.738937 -0.16192 0)
(-0.668178 -0.158209 0)
(-0.598425 -0.154511 2.18844e-19)
(-0.529688 -0.150833 -4.58477e-19)
(-0.461975 -0.147183 -2.42677e-19)
(-0.395296 -0.143569 5.07669e-19)
(-0.329662 -0.139998 5.33467e-19)
(-0.265079 -0.136476 2.81383e-19)
(-0.201548 -0.133005 0)
(-0.139072 -0.129584 6.16234e-19)
(-0.07765 -0.126217 0)
(-0.0172849 -0.122908 -6.73573e-19)
(0.0420298 -0.119657 -3.45173e-19)
(0.100308 -0.116466 0)
(0.157555 -0.113338 6.93153e-19)
(0.213777 -0.110274 3.48845e-19)
(0.268985 -0.107277 0)
(0.323189 -0.104336 3.48739e-19)
(0.376397 -0.10144 -1.05286e-18)
(0.428617 -0.0985985 0)
(0.479865 -0.0958216 0)
(0.530156 -0.0931122 0)
(0.579507 -0.090471 0)
(0.627943 -0.0879026 -7.07777e-19)
(0.675496 -0.085414 -7.10268e-19)
(0.72219 -0.0830202 0)
(0.767991 -0.0807085 0)
(0.812884 -0.0784398 0)
(0.856921 -0.0762127 0)
(0.900146 -0.0740436 0)
(0.942575 -0.0719409 0)
(0.98422 -0.0699074 -7.14041e-19)
(1.0251 -0.0679427 -1.0887e-21)
(1.06523 -0.0660454 0)
(1.10463 -0.0642135 0)
(1.14332 -0.0624449 -7.13873e-19)
(1.18132 -0.0607378 0)
(1.21865 -0.0590906 7.1492e-19)
(1.25534 -0.0575019 7.14058e-19)
(1.29139 -0.0559702 0)
(1.32684 -0.0544945 0)
(1.3617 -0.0530734 -7.14591e-19)
(1.39599 -0.0517061 -1.42739e-18)
(1.42974 -0.0503914 0)
(1.46296 -0.0491285 0)
(1.49568 -0.0479163 0)
(1.52792 -0.0467541 -7.13283e-19)
(1.5597 -0.0456407 7.129e-19)
(1.59103 -0.0445752 0)
(1.62195 -0.0435566 1.42292e-18)
(1.65248 -0.0425837 7.1044e-19)
(1.68262 -0.0416552 -1.42086e-18)
(1.71242 -0.0407693 0)
(1.74188 -0.0399241 0)
(1.77102 -0.039117 -1.41705e-18)
(1.79987 -0.0383447 -7.08233e-19)
(1.82844 -0.0376028 0)
(1.85673 -0.0368858 0)
(1.88478 -0.0361858 0)
(1.91256 -0.035493 0)
(1.94009 -0.0347935 -1.40689e-18)
(1.96735 -0.0340694 0)
(1.99431 -0.0332954 0)
(2.02092 -0.0324375 0)
(2.0471 -0.0314477 0)
(2.07275 -0.0302577 0)
(2.09768 -0.0287666 0)
(2.12164 -0.026823 -1.39754e-18)
(2.14429 -0.0241753 0)
(2.16496 -0.0204183 0)
(2.18342 -0.0147596 -2.81631e-18)
(2.19686 -0.00588165 1.41818e-18)
(2.21155 0.00887332 -1.4163e-18)
(2.20646 0.0362534 1.41175e-18)
(0.0333174 -1.16609 0)
(0.069677 -1.02977 3.59924e-19)
(0.0339224 -0.746806 0)
(-0.0105355 -0.506327 1.10875e-19)
(-0.0658719 -0.283606 0)
(-0.133738 -0.0740162 0)
(-0.216985 0.122839 -8.28042e-20)
(-0.317986 0.306222 0)
(-0.438866 0.475693 0)
(-0.582231 0.631807 0)
(-0.751936 0.777104 0)
(-0.953192 0.917682 0)
(-1.18863 1.06165 2.04187e-19)
(-1.45266 1.21243 9.24318e-20)
(-1.7308 1.36375 -8.36843e-20)
(-2.0047 1.50228 0)
(-2.25862 1.61417 0)
(-2.4825 1.6901 0)
(-2.67157 1.72634 0)
(-2.82439 1.72415 0)
(-2.94354 1.68739 6.01609e-20)
(-3.03457 1.62131 5.88444e-20)
(-3.10356 1.53276 -5.79916e-20)
(-3.15686 1.42938 5.76902e-20)
(-3.19985 1.31788 0)
(-3.23688 1.20367 0)
(-3.27141 1.09111 5.58435e-20)
(-3.3058 0.983482 0)
(-3.34131 0.882904 0)
(-3.37847 0.790419 5.8698e-20)
(-3.41728 0.706269 6.1516e-20)
(-3.4574 0.630228 6.22277e-20)
(-3.49828 0.561763 0)
(-3.53932 0.500181 0)
(-3.5799 0.44472 -6.40379e-20)
(-3.61947 0.394623 0)
(-3.65752 0.34918 0)
(-3.69364 0.307748 6.43109e-20)
(-3.72749 0.269762 -6.6031e-20)
(-3.75879 0.234733 6.60415e-20)
(-3.78732 0.202247 0)
(-3.81288 0.171953 0)
(-3.83533 0.143554 1.30016e-19)
(-3.85455 0.116801 0)
(-3.87041 0.0914814 1.28628e-19)
(-3.88283 0.0674186 1.91038e-19)
(-3.89173 0.044469 -1.89397e-19)
(-3.89705 0.0225122 1.2533e-19)
(-3.89873 0.00143116 0)
(-3.89679 -0.0188901 0)
(-3.89125 -0.0385297 1.19874e-19)
(-3.88217 -0.0575065 5.84061e-20)
(-3.86959 -0.0758165 0)
(-3.85353 -0.0934586 0)
(-3.83404 -0.110432 5.48999e-20)
(-3.81117 -0.126736 1.0825e-19)
(-3.78497 -0.14237 0)
(-3.75549 -0.157331 -1.01797e-19)
(-3.72282 -0.171614 9.9968e-20)
(-3.68703 -0.185215 -9.69961e-20)
(-3.6482 -0.198129 0)
(-3.60642 -0.210352 0)
(-3.56178 -0.221876 0)
(-3.51438 -0.232701 0)
(-3.46432 -0.242831 0)
(-3.41172 -0.252265 -7.5923e-20)
(-3.35667 -0.261002 0)
(-3.29929 -0.269048 0)
(-3.23969 -0.27641 0)
(-3.17799 -0.283096 -1.22622e-19)
(-3.11432 -0.289117 -5.67035e-20)
(-3.04879 -0.294485 -5.26022e-20)
(-2.98151 -0.299214 9.80394e-20)
(-2.91262 -0.30332 -4.53622e-20)
(-2.84223 -0.306819 3.98102e-20)
(-2.77046 -0.30973 0)
(-2.69743 -0.312073 -3.08876e-20)
(-2.62326 -0.313868 0)
(-2.54807 -0.315138 0)
(-2.47196 -0.315904 0)
(-2.39506 -0.316191 -2.54886e-20)
(-2.31746 -0.316021 8.48433e-21)
(-2.23929 -0.315419 4.76673e-21)
(-2.16064 -0.314409 -2.98392e-21)