/*--------------------------------*- C++ -*----------------------------------*\
  =========                 |
  \\      /  F ield         | OpenFOAM: The Open Source CFD Toolbox
   \\    /   O peration     | Website:  https://openfoam.org
    \\  /    A nd           | Version:  8
     \\/     M anipulation  |
\*---------------------------------------------------------------------------*/
FoamFile
{
    version     2.0;
    format      ascii;
    class       volVectorField;
    location    "3200";
    object      wallShearStress;
}
// * * * * * * * * * * * * * * * * * * * * * * * * * * * * * * * * * * * * * //

dimensions      [0 2 -2 0 0 0 0];

internalField   uniform (0 0 0);

boundaryField
{
    inlet
    {
        type            calculated;
        value           uniform (0 0 0);
    }
    outlet
    {
        type            calculated;
        value           uniform (0 0 0);
    }
    upperWall
    {
        type            calculated;
        value           nonuniform List<vector> 
223
(
(-0.582193 -0.392359 0)
(-0.977814 -0.219377 0)
(-0.939336 -0.0567747 0)
(-0.81071 -0.00585779 0)
(-0.734594 0.00331371 0)
(-0.695452 0.00231544 0)
(-0.670941 0.000424224 0)
(-0.653507 -0.00144879 0)
(-0.640532 -0.0025625 0)
(-0.629821 -0.00218352 0)
(-0.620058 -0.00130529 0)
(-0.610993 -0.00107837 0)
(-0.603033 -0.00138848 0)
(-0.596184 -0.00127384 0)
(-0.590434 -0.00106044 0)
(-0.585075 -0.000334577 0)
(-0.579787 0.0016871 0)
(-0.575194 0.00141472 0)
(-0.571309 0.00162532 0)
(-0.567715 0.00312829 4.27729e-22)
(-0.564341 0.00251106 0)
(-0.561641 0.00175048 0)
(-0.558902 0.00303621 0)
(-0.555755 0.00321356 4.48334e-22)
(-0.552843 0.00331365 0)
(-0.54995 0.00393377 0)
(-0.546937 0.00376721 0)
(-0.544106 0.00348254 -9.38143e-22)
(-0.541328 0.00298074 9.46058e-22)
(-0.538633 0.00256637 9.56499e-22)
(-0.535952 0.00245937 0)
(-0.533231 0.00218855 -9.78495e-22)
(-0.530575 0.00194054 0)
(-0.527935 0.00174261 1.0015e-21)
(-0.525292 0.0015738 1.01358e-21)
(-0.52264 0.00144504 -1.02614e-21)
(-0.519969 0.00134115 0)
(-0.517283 0.00125816 0)
(-0.514578 0.00119382 0)
(-0.51185 0.00114459 0)
(-0.509095 0.00110713 -1.09096e-21)
(-0.506311 0.00107929 0)
(-0.503494 0.00105928 0)
(-0.500642 0.00104573 1.13115e-21)
(-0.497753 0.00103783 0)
(-0.494822 0.00103443 1.15765e-21)
(-0.491847 0.00103484 -1.17064e-21)
(-0.488824 0.00103852 1.1834e-21)
(-0.485748 0.00104491 0)
(-0.482619 0.00105281 0)
(-0.479436 0.00106134 0)
(-0.476199 0.00106958 1.23091e-21)
(-0.472914 0.00107627 -1.24157e-21)
(-0.469594 0.00108156 0)
(-0.466252 0.00108662 0)
(-0.462905 0.00109187 0)
(-0.459561 0.00109644 0)
(-0.456227 0.0010991 0)
(-0.452904 0.0010992 0)
(-0.449587 0.00109683 0)
(-0.446268 0.00109262 0)
(-0.442936 0.00108744 1.29208e-21)
(-0.439582 0.00108261 -1.29186e-21)
(-0.436194 0.001079 0)
(-0.43276 0.00107713 0)
(-0.42927 0.00107731 0)
(-0.425716 0.00107952 -1.2785e-21)
(-0.422088 0.0010837 0)
(-0.418381 0.0010896 0)
(-0.414588 0.00109674 0)
(-0.410705 0.00110482 0)
(-0.406728 0.00111335 0)
(-0.402656 0.00112174 -2.43466e-21)
(-0.398488 0.00112957 0)
(-0.394225 0.00113631 0)
(-0.389869 0.00114134 0)
(-0.385428 0.00114449 0)
(-0.380908 0.00114567 0)
(-0.376323 0.0011447 0)
(-0.371684 0.0011414 0)
(-0.367002 0.00113537 2.09565e-21)
(-0.36229 0.00112655 0)
(-0.357552 0.00111506 0)
(-0.352796 0.00110107 0)
(-0.348023 0.00108525 -1.84001e-21)
(-0.343233 0.00106809 0)
(-0.338424 0.00105025 -1.69059e-21)
(-0.333592 0.00103238 0)
(-0.328733 0.00101529 0)
(-0.323839 0.000999765 0)
(-0.319026 0.000991936 -1.35141e-21)
(-0.316386 0.00100108 0)
(-0.313662 0.00101497 1.18094e-21)
(-0.310856 0.00102965 1.09026e-21)
(-0.307977 0.00104282 0)
(-0.305032 0.00105371 8.96578e-22)
(-0.302035 0.00106248 0)
(-0.298998 0.00106981 0)
(-0.295937 0.00107704 0)
(-0.292865 0.00108416 -4.55177e-22)
(-0.289796 0.00109312 0)
(-0.286746 0.00110255 -2.05811e-22)
(-0.283723 0.001107 7.38042e-23)
(-0.280739 0.00111359 0)
(-0.277805 0.00111466 0)
(-0.27493 0.00111264 0)
(-0.272116 0.00109228 0)
(-0.269377 0.0010848 0)
(-0.266713 0.00115614 0)
(-0.264139 0.00119757 0)
(-0.261739 0.000995376 1.14478e-21)
(-0.259296 0.00124014 0)
(-0.257167 0.00147104 0)
(-0.255034 0.000808545 0)
(-0.252757 0.000451858 0)
(-0.250787 0.000675383 0)
(-0.248648 0.00130474 0)
(-0.246856 0.00147788 0)
(-0.245134 0.00124134 0)
(-0.243339 0.0012862 0)
(-0.241544 0.0011085 0)
(-0.239991 0.000653141 0)
(-0.238061 0.000645751 0)
(-0.23651 0.000687373 7.1317e-21)
(-0.234537 0.000709949 0)
(-0.233044 0.000917323 0)
(-0.231682 0.000727314 0)
(-0.230216 0.000825792 -8.73692e-21)
(-0.228583 0.000820843 0)
(-0.227172 0.000641952 0)
(-0.225712 0.000690809 -9.97998e-21)
(-0.224269 0.000671586 0)
(-0.223018 0.000283177 1.08027e-20)
(-0.221364 0.000336601 0)
(-0.220094 0.000625278 0)
(-0.218683 0.00027532 0)
(-0.217277 0.000346307 -1.25777e-20)
(-0.21606 0.000626066 0)
(-0.214889 0.000424811 1.33583e-20)
(-0.213976 0.000171592 0)
(-0.212501 0.000431366 0)
(-0.211571 0.00071968 0)
(-0.210526 0.000499446 0)
(-0.209706 0.000417836 0)
(-0.209072 0.000384129 0)
(-0.208251 0.000268531 0)
(-0.207343 0.000383729 0)
(-0.206565 0.000522545 0)
(-0.205431 0.000254671 0)
(-0.204601 0.000263465 0)
(-0.204191 0.000414866 1.82929e-20)
(-0.203518 0.000147865 -1.87572e-20)
(-0.202501 0.000217785 0)
(-0.201921 0.000434969 0)
(-0.201166 0.000118683 0)
(-0.200669 0.000206964 0)
(-0.199987 0.000441138 -2.08567e-20)
(-0.199465 0.000161648 2.12334e-20)
(-0.198578 0.000219616 -2.17682e-20)
(-0.198355 0.000342926 0)
(-0.198158 0.000330742 -2.2351e-20)
(-0.197307 0.000158194 -4.58642e-20)
(-0.197069 0.000169418 0)
(-0.19652 0.000369693 -4.74107e-20)
(-0.196187 0.000252089 4.80603e-20)
(-0.195901 0.000256384 0)
(-0.195219 -0.000178781 0)
(-0.194205 -0.000478494 0)
(-0.193478 -0.000267712 0)
(-0.19326 -0.000206301 0)
(-0.19293 -4.81497e-05 -5.34137e-20)
(-0.192267 6.85843e-05 0)
(-0.191999 0.000144163 -5.50953e-20)
(-0.191226 0.00022568 0)
(-0.190572 0.000207441 0)
(-0.189792 0.000169627 0)
(-0.189548 0.000172687 0)
(-0.18925 0.000223416 0)
(-0.188567 0.00025722 6.08641e-20)
(-0.188025 0.000258597 0)
(-0.187521 0.000367875 0)
(-0.186456 0.000461259 -6.41396e-20)
(-0.185649 0.000651472 0)
(-0.184957 0.000750704 0)
(-0.184662 0.00063209 0)
(-0.183958 0.000604065 6.8362e-20)
(-0.183044 0.000543603 0)
(-0.181745 0.000460534 0)
(-0.18023 0.000471238 0)
(-0.178258 0.000595226 0)
(-0.176476 0.000634221 -7.64965e-20)
(-0.173848 0.000610918 0)
(-0.171304 0.00039512 0)
(-0.166705 0.000481248 0)
(-0.162084 0.00111413 8.83443e-20)
(-0.155245 0.0014925 0)
(-0.148571 0.00227644 0)
(-0.123877 0.00222662 -1.07632e-19)
(-0.14161 0.00670413 6.01853e-36)
(-0.169637 0.0132076 1.25494e-17)
(-0.187154 0.0170894 2.35164e-17)
(-0.193343 0.0188677 2.27651e-17)
(-0.197082 0.0196923 2.19435e-17)
(-0.200908 0.0203021 2.12048e-17)
(-0.205402 0.0210006 -2.02524e-17)
(-0.209622 0.0215192 -1.95334e-17)
(-0.21382 0.021871 -6.01853e-36)
(-0.218067 0.0220176 -3.66679e-17)
(-0.220216 0.0221822 -1.80792e-17)
(-0.22469 0.0227214 6.62038e-34)
(-0.227517 0.0229047 0)
(-0.231057 0.0233637 -3.22814e-17)
(-0.235339 0.0239351 -3.06877e-17)
(-0.242333 0.0247783 -2.84678e-17)
(-0.24951 0.0254434 0)
(-0.25685 0.0260666 4.94075e-17)
(-0.263899 0.0266463 2.26478e-17)
(-0.272741 0.0274451 2.40741e-35)
(-0.282646 0.0283559 -3.48642e-17)
(-0.291205 0.0289982 -1.58064e-20)
(-0.300871 0.0295767 0)
(-0.304427 0.0304156 1.34862e-17)
(-0.332554 0.0321487 -7.62939e-18)
)
;
    }
    lowerWall
    {
        type            calculated;
        value           nonuniform List<vector> 
250
(
(-0.653909 0.466638 0)
(-1.14095 0.204678 0)
(-1.03492 0.0379587 0)
(-0.869573 -0.000935979 0)
(-0.786941 -0.00419161 0)
(-0.746063 -0.00160781 0)
(-0.719878 0.00041618 0)
(-0.700645 -0.000651794 0)
(-0.685088 -0.00405594 0)
(-0.671318 -0.00471225 0)
(-0.658932 -0.00298827 0)
(-0.647719 -0.000864311 0)
(-0.637516 0.00142599 0)
(-0.628189 0.00210382 0)
(-0.61932 0.00136788 0)
(-0.611521 0.00135746 0)
(-0.60458 0.00169582 0)
(-0.605069 0.0019432 0)
(-0.00426047 -0.0228581 0)
(-0.0027589 -0.0176426 0)
(-0.000676925 -0.0144932 0)
(0.00194466 -0.0137777 9.0221e-20)
(0.00526912 -0.0151981 -7.86149e-20)
(0.00896187 -0.020821 6.28464e-20)
(0.0127404 -0.0200861 -4.84718e-20)
(0.0256281 -0.0633153 0)
(-0.0840646 -0.144715 0)
(0.000872277 -0.00384038 0)
(-0.00766549 0.00954755 0)
(-0.008516 0.0328222 0)
(-0.00254921 0.0448558 0)
(0.00295354 0.0442615 1.82214e-20)
(0.00618289 0.036063 -1.89649e-20)
(0.0081874 0.0241608 0)
(0.00946067 0.0101602 -5.42266e-20)
(0.00943179 -0.00404297 6.11398e-20)
(0.0079333 -0.0174231 0)
(0.00614122 -0.0291956 0)
(0.00438168 -0.0385633 0)
(0.00268715 -0.0451402 0)
(0.000985991 -0.0488801 0)
(-0.000885192 -0.0495152 0)
(-0.00282058 -0.0464088 0)
(-0.00437907 -0.0399029 0)
(-0.00492622 -0.0308271 0)
(0.00132872 -0.00151198 0)
(0.00133799 0.0065275 0)
(-0.00450936 0.00961889 0)
(-0.00959737 0.00975669 0)
(-0.0133833 0.00829965 0)
(-0.0158895 0.00623529 0)
(-0.0172645 0.00409768 1.49567e-21)
(-0.0177831 0.00200615 -1.52727e-21)
(-0.0173316 -6.98176e-06 0)
(-0.016054 -0.00168623 -1.65302e-21)
(-0.0141886 -0.00283753 0)
(-0.0120506 -0.00329642 0)
(-0.0100509 -0.00303585 -0)
(-0.00855325 -0.00228025 2.57018e-21)
(-0.00761658 -0.00142305 0)
(-0.00693826 -0.000815867 0)
(-0.00612069 -0.000623448 -3.37803e-21)
(-0.00499303 -0.00100049 0)
(-0.00340857 -0.00238599 0)
(-0.00048856 -0.00505768 0)
(0.00436089 -0.00740374 3.03294e-21)
(0.00994591 -0.00889522 0)
(0.015847 -0.00985003 1.46908e-21)
(0.0218924 -0.0106169 0)
(0.0280981 -0.011269 -0)
(0.0344087 -0.0115144 8.44674e-22)
(0.0405411 -0.0113546 0)
(0.0491491 -0.0116033 -7.54026e-22)
(0.0589393 -0.0117553 -0)
(0.0686335 -0.0115827 7.7069e-22)
(0.0780424 -0.0111689 0)
(0.0870153 -0.010584 0)
(0.0954597 -0.00989004 0)
(0.103317 -0.00913657 -0)
(0.110564 -0.00836066 0)
(0.117197 -0.00758952 -8.11144e-22)
(0.12323 -0.00684034 -0)
(0.128686 -0.00612261 1.63307e-21)
(0.133591 -0.00544042 0)
(0.137974 -0.00479412 -1.63494e-21)
(0.141859 -0.00418198 -0)
(0.145272 -0.00360138 -0)
(0.148232 -0.00304953 1.62103e-21)
(0.150758 -0.00252406 0)
(0.152864 -0.002024 1.60082e-21)
(0.154561 -0.00155026 -1.58751e-21)
(0.155863 -0.0011063 -0)
(0.156782 -0.000698863 -1.55489e-21)
(0.157328 -0.000337777 -1.53586e-21)
(0.157514 -3.97486e-05 -0)
(0.157408 0.000194728 0)
(0.157077 0.000391516 0)
(0.156523 0.000568225 0)
(0.155761 0.000731059 -0)
(0.154801 0.000884251 1.37579e-21)
(0.153649 0.00102837 0)
(0.152312 0.00116398 -1.30701e-21)
(0.150799 0.00129163 -0)
(0.149117 0.00141122 -0)
(0.147272 0.00152284 1.19056e-21)
(0.145272 0.00162642 0)
(0.143126 0.00172185 -1.10487e-21)
(0.140843 0.00180921 -0)
(0.138429 0.00188847 0)
(0.135896 0.00195978 -0)
(0.13325 0.00202298 9.16846e-22)
(0.130502 0.00207824 0)
(0.12766 0.00212581 -0)
(0.124734 0.00216571 7.63807e-22)
(0.121732 0.00219816 0)
(0.118665 0.00222332 6.57276e-22)
(0.115542 0.00224149 0)
(0.112371 0.00225292 0)
(0.10916 0.00225784 0)
(0.10592 0.00225665 -4.36201e-22)
(0.102657 0.00224957 -0)
(0.0993805 0.00223688 0)
(0.096098 0.00221901 -2.65597e-22)
(0.0928168 0.00219627 -2.08147e-22)
(0.0895438 0.00216894 -0)
(0.0862864 0.00213741 -9.26742e-23)
(0.0830502 0.00210199 -0)
(0.0798419 0.00206305 4.65769e-23)
(0.0766665 0.00202096 -0)
(0.0735294 0.00197605 2.78997e-22)
(0.0704354 0.00192886 0)
(0.0673887 0.00188015 -5.11674e-22)
(0.0643931 0.00183077 -0)
(0.0614516 0.00178166 0)
(0.0585668 0.00173397 -0)
(0.0557409 0.00168925 9.78443e-22)
(0.0529751 0.0016498 0)
(0.05027 0.00161806 -1.21389e-21)
(0.0476237 0.00159484 0)
(0.0457849 0.00160342 1.47565e-21)
(0.0442425 0.00162099 1.63416e-21)
(0.0427034 0.00162592 1.79908e-21)
(0.0411761 0.00161301 0)
(0.0396658 0.00158969 0)
(0.0381721 0.00156402 0)
(0.0366939 0.00153822 0)
(0.035231 0.00151253 0)
(0.0337837 0.00148691 0)
(0.0323529 0.00146142 0)
(0.0309387 0.0014362 0)
(0.0295418 0.00141136 -3.69188e-21)
(0.0281626 0.00138719 -3.96753e-21)
(0.0268007 0.00136378 0)
(0.0254569 0.00134075 0)
(0.0241316 0.00131671 0)
(0.0228257 0.00129184 -5.26745e-21)
(0.0215396 0.00126761 0)
(0.020273 0.00124397 0)
(0.0190259 0.00122091 0)
(0.0177986 0.00119848 0)
(0.016591 0.00117675 7.53601e-21)
(0.0154031 0.00115579 0)
(0.014235 0.00113571 0)
(0.0130864 0.00111659 -9.45476e-21)
(0.0119574 0.00109848 1.02323e-20)
(0.0108478 0.00108147 0)
(0.00975765 0.00106584 1.20685e-20)
(0.00868684 0.00105225 0)
(0.00763499 0.00104186 -1.44067e-20)
(0.00660142 0.00103497 0)
(0.0055858 0.00103056 0)
(0.00458808 0.00102834 0)
(0.00360784 0.00102863 0)
(0.00264461 0.00103166 0)
(0.00169889 0.00103738 5.57067e-20)
(0.00077214 0.00104296 6.42156e-20)
(-0.000137656 0.00103026 0)
(-0.00103493 0.000987454 0)
(-0.00191675 0.000935064 0)
(-0.00278307 0.000885566 -5.28942e-20)
(-0.00363378 0.00084064 0)
(-0.00446867 0.00079989 0)
(-0.00528818 0.000762822 0)
(-0.00609281 0.00072894 -4.04191e-20)
(-0.00688319 0.000697792 3.83689e-20)
(-0.00765977 0.000668995 0)
(-0.00842304 0.000642246 0)
(-0.00917342 0.000617297 3.36205e-20)
(-0.00991139 0.000593956 3.23801e-20)
(-0.0106374 0.000572052 0)
(-0.0113518 0.000551451 0)
(-0.012055 0.000532044 -2.93546e-20)
(-0.0127475 0.000513728 2.85268e-20)
(-0.0134297 0.000496427 0)
(-0.0141021 0.000480064 0)
(-0.014765 0.00046459 2.64369e-20)
(-0.0154189 0.000449939 0)
(-0.0160643 0.000436068 0)
(-0.0167016 0.00042294 2.47914e-20)
(-0.0173312 0.000410511 0)
(-0.0179536 0.000398753 2.38753e-20)
(-0.0185693 0.000387632 0)
(-0.0191787 0.000377117 0)
(-0.0197824 0.000367182 0)
(-0.0203807 0.000357792 -2.23593e-20)
(-0.020974 0.000348903 0)
(-0.0215629 0.0003405 0)
(-0.0221477 0.000332506 0)
(-0.0227286 0.000324861 0)
(-0.023306 0.0003175 0)
(-0.0238798 0.00031031 0)
(-0.0244502 0.000303113 -2.03855e-20)
(-0.0250161 0.000295735 -2.01551e-20)
(-0.0255774 0.000287895 0)
(-0.026132 0.00027923 0)
(-0.0266784 0.000269198 0)
(-0.0272126 0.000257064 1.93602e-20)
(-0.0277302 0.000241589 0)
(-0.028222 0.000221333 -3.81342e-20)
(-0.0286789 0.000192299 3.79279e-20)
(-0.029072 0.000152674 3.78188e-20)
(-0.0294033 7.79259e-05 -3.78574e-20)
(-0.029485 -3.93637e-05 3.80446e-20)
(-0.0295095 -0.000356527 -3.83967e-20)
(-0.0279751 -0.00061687 0)
(-0.0293477 -0.000516241 -2.43311e-18)
(-0.0327714 -0.00134246 -2.2697e-18)
(-0.0364152 -0.00203348 0)
(-0.0395361 -0.00257622 -4.06078e-18)
(-0.0424861 -0.00301874 -7.75762e-18)
(-0.0455586 -0.00342201 -3.71953e-18)
(-0.0487814 -0.0038195 3.56792e-18)
(-0.0521127 -0.00429682 0)
(-0.0556065 -0.00470413 6.01853e-36)
(-0.0593039 -0.00507693 3.15228e-18)
(-0.0632466 -0.0054749 3.02046e-18)
(-0.0674431 -0.00581946 0)
(-0.071928 -0.00623317 0)
(-0.0767393 -0.00669959 0)
(-0.0819274 -0.00720024 -1.26154e-34)
(-0.087545 -0.00774499 4.14244e-35)
(-0.093662 -0.00834635 2.25695e-34)
(-0.100332 -0.00900997 -4.15817e-18)
(-0.107695 -0.00973095 -3.81229e-18)
(-0.116756 -0.0106241 1.80556e-35)
(-0.127573 -0.0116277 6.13674e-18)
(-0.138428 -0.0127346 1.03492e-17)
(-0.153652 -0.013928 0)
(-0.162852 -0.0152949 -5.09791e-18)
(-0.191966 -0.0169827 -3.00927e-36)
)
;
    }
    frontAndBack
    {
        type            empty;
    }
}


// ************************************************************************* //
