/*--------------------------------*- C++ -*----------------------------------*\
  =========                 |
  \\      /  F ield         | OpenFOAM: The Open Source CFD Toolbox
   \\    /   O peration     | Website:  https://openfoam.org
    \\  /    A nd           | Version:  8
     \\/     M anipulation  |
\*---------------------------------------------------------------------------*/
FoamFile
{
    version     2.0;
    format      ascii;
    class       volScalarField;
    location    "4200";
    object      p;
}
// * * * * * * * * * * * * * * * * * * * * * * * * * * * * * * * * * * * * * //

dimensions      [0 2 -2 0 0 0 0];

internalField   nonuniform List<scalar> 
12225
(
514.676
55.5279
2.36353
0.281419
-1.89905
-3.3746
-3.81184
-4.02224
-4.23199
-4.36889
-4.41604
-4.42567
-4.42867
-4.45665
-4.51005
-4.57652
-4.72194
-4.94455
-122.179
0.238623
-2.71869
-0.765376
-2.21675
-3.52519
-3.95291
-4.13701
-4.28069
-4.38469
-4.45961
-4.51794
-4.56889
-4.60128
-4.62223
-4.64779
-4.71445
-4.80851
-200.646
-16.1487
-2.3467
-0.358599
-1.90108
-3.24507
-3.77247
-4.02271
-4.1954
-4.31966
-4.41235
-4.47956
-4.5282
-4.55344
-4.56851
-4.58408
-4.61599
-4.5992
-110.617
-10.9743
-2.17741
-0.432307
-1.78801
-3.02909
-3.60158
-3.90876
-4.11803
-4.26383
-4.36621
-4.43689
-4.48562
-4.51421
-4.53156
-4.5394
-4.5384
-4.46973
-61.5731
-8.14613
-3.62287
-1.21031
-2.01553
-2.99865
-3.52953
-3.8493
-4.07181
-4.2265
-4.33414
-4.40879
-4.46016
-4.49129
-4.50658
-4.50398
-4.47781
-4.38768
-45.7311
-8.78557
-5.25908
-2.20065
-2.43028
-3.10143
-3.53689
-3.83386
-4.04985
-4.20368
-4.31274
-4.38947
-4.44192
-4.47285
-4.48442
-4.47369
-4.43362
-4.33909
-35.7949
-9.27682
-6.38087
-3.12509
-2.9223
-3.29039
-3.6043
-3.8552
-4.05062
-4.1958
-4.3018
-4.37759
-4.42921
-4.45896
-4.4679
-4.45331
-4.40934
-4.32229
-27.7784
-8.9076
-6.97433
-3.80335
-3.36237
-3.49922
-3.70128
-3.90077
-4.07013
-4.20241
-4.30218
-4.37494
-4.42486
-4.45371
-4.46206
-4.44777
-4.4068
-4.33206
-21.6904
-8.52057
-7.13504
-4.31123
-3.72967
-3.70683
-3.81712
-3.96548
-4.10578
-4.22206
-4.31313
-4.38121
-4.42867
-4.45663
-4.46534
-4.45339
-4.4184
-4.35741
-16.6132
-8.14125
-7.0887
-4.75612
-4.08398
-3.9352
-3.96008
-4.05353
-4.1599
-4.25612
-4.33558
-4.39721
-4.44144
-4.46863
-4.47883
-4.47136
-4.44544
-4.40096
-12.6395
-7.68145
-6.90673
-5.10242
-4.40761
-4.17118
-4.12278
-4.16234
-4.23255
-4.30592
-4.37152
-4.42526
-4.46577
-4.49258
-4.50559
-4.50476
-4.4905
-4.46433
-9.69959
-7.14936
-6.62983
-5.32726
-4.67948
-4.39799
-4.29532
-4.28761
-4.32279
-4.37246
-4.42299
-4.46803
-4.50469
-4.53176
-4.54894
-4.55655
-4.55566
-4.54837
-7.66665
-6.60532
-6.30661
-5.43225
-4.88393
-4.59814
-4.46453
-4.42138
-4.42668
-4.45447
-4.49046
-4.52707
-4.56039
-4.58859
-4.61111
-4.62833
-4.64141
-4.65232
-6.37157
-6.11366
-5.98634
-5.44099
-5.01658
-4.75841
-4.61698
-4.55333
-4.53733
-4.54793
-4.57202
-4.60187
-4.63314
-4.66358
-4.69235
-4.7196
-4.7462
-4.77356
-5.62332
-5.72301
-5.70966
-5.39151
-5.08659
-4.87368
-4.74247
-4.67292
-4.64593
-4.64615
-4.66281
-4.68892
-4.7202
-4.75424
-4.7899
-4.82694
-4.86576
-4.9071
-5.24402
-5.46082
-5.50875
-5.3282
-5.11568
-4.94862
-4.83634
-4.77136
-4.74269
-4.73984
-4.75452
-4.78081
-4.81476
-4.85392
-4.89691
-4.94311
-4.99242
-5.04498
-5.10279
-5.34492
-5.41759
-5.2996
-5.13557
-4.99646
-4.89881
-4.84091
-4.81581
-4.81562
-4.83348
-4.86409
-4.90369
-4.94975
-5.00067
-5.05547
-5.11366
-5.17499
-5.14052
-5.40073
-5.47483
-5.34868
-5.17486
-5.02913
-4.92886
-4.87166
-4.84974
-4.8546
-4.8788
-4.91665
-4.96403
-5.01813
-5.07705
-5.13959
-5.20499
-5.27282
-5.3928
-5.65517
-5.69087
-5.47573
-5.22651
-5.03613
-4.91502
-4.85195
-4.8329
-4.84519
-4.87885
-4.9267
-4.98386
-5.04707
-5.11426
-5.18406
-5.25571
-5.32874
-6.00219
-6.137
-6.04276
-5.63524
-5.24725
-4.98748
-4.84095
-4.77601
-4.7665
-4.79288
-4.84145
-4.90331
-4.97286
-5.0467
-5.12277
-5.19988
-5.27738
-5.35503
-7.2498
-6.88963
-6.4943
-5.76199
-5.18322
-4.8531
-4.69649
-4.64634
-4.66028
-4.7108
-4.78103
-4.86106
-4.94537
-5.03092
-5.11618
-5.20043
-5.28338
-5.36516
-9.6413
-7.96469
-6.98272
-5.772
-4.97969
-4.6123
-4.48209
-4.47387
-4.52873
-4.61406
-4.7118
-4.81292
-4.91298
-5.01022
-5.10415
-5.19477
-5.28243
-5.36757
-13.9825
-9.39117
-7.40329
-5.56967
-4.5949
-4.26436
-4.21524
-4.27989
-4.39206
-4.51954
-4.64762
-4.77006
-4.88504
-4.99244
-5.09334
-5.18898
-5.28009
-5.36764
-20.8901
-10.9541
-7.55431
-5.05738
-4.01602
-3.83602
-3.93018
-4.09436
-4.2725
-4.44336
-4.59987
-4.74108
-4.86792
-4.98261
-5.08804
-5.18657
-5.27964
-5.36836
-29.7367
-11.9495
-7.03365
-4.12627
-3.26422
-3.37817
-3.67129
-3.94711
-4.18949
-4.39755
-4.57614
-4.73029
-4.86463
-4.98279
-5.08984
-5.18926
-5.28268
-5.37132
-43.1066
-12.6141
-5.47294
-2.72911
-2.41343
-2.96365
-3.48452
-3.8627
-4.15403
-4.38642
-4.57818
-4.73833
-4.8743
-4.99125
-5.09691
-5.19584
-5.28865
-5.37666
-84.5996
-17.3736
-3.66425
-1.2656
-1.6962
-2.72204
-3.43645
-3.87029
-4.17391
-4.41112
-4.60731
-4.76837
-4.89998
-5.00747
-5.10504
-5.20152
-5.29356
-5.38223
-177.886
-26.8497
-3.68032
-0.770384
-1.53529
-2.84328
-3.61436
-4.01559
-4.27152
-4.46774
-4.65161
-4.81671
-4.95295
-5.04941
-5.13361
-5.2218
-5.30534
-5.38873
-154.791
-9.62744
-3.27255
-1.06847
-1.8433
-3.2211
-3.91396
-4.22536
-4.41797
-4.5596
-4.70285
-4.85481
-5.00651
-5.12059
-5.21008
-5.29984
-5.37491
-5.45194
428.057
66.6053
7.05579
1.59924
-0.915796
-2.85715
-3.65324
-3.99503
-4.31075
-4.57762
-4.70804
-4.75613
-4.80074
-4.90566
-5.03461
-5.13556
-5.23299
-5.31643
-8.52583
-8.513
-8.50237
-8.54374
-8.63677
-8.74047
-8.82039
-8.8604
-8.86405
-8.84638
-8.81896
-8.79039
-8.76872
-8.75991
-8.76492
-8.77756
-8.78877
-8.79391
-8.79314
-8.79107
-8.79557
-8.82827
-8.91849
-9.08985
-9.34287
-9.66064
-10.0318
-10.4456
-10.8866
-11.3387
-11.7866
-12.2186
-12.6253
-13.0002
-13.3388
-13.6388
-13.8991
-14.1198
-14.3016
-14.4454
-14.5526
-14.6244
-14.6623
-14.6676
-14.6417
-14.5857
-14.5016
-14.3914
-14.2564
-14.0946
-13.9032
-13.6835
-13.4383
-13.1693
-12.8777
-12.5647
-12.2312
-11.8783
-11.507
-11.1183
-10.7134
-10.2933
-9.85923
-9.41229
-8.95368
-8.48458
-8.00619
-7.51971
-7.02633
-6.52724
-6.0236
-5.51656
-5.00722
-4.49667
-3.98594
-3.47605
-2.96794
-2.46254
-1.9607
-1.46322
-0.970876
-0.484355
-0.00430758
0.468674
0.934054
1.39135
1.84014
2.28005
2.71075
3.13201
3.5436
3.94536
4.3371
4.71881
5.09073
5.45287
5.80475
6.146
6.47659
6.79677
7.10677
7.4068
7.69704
7.97767
8.24889
8.51089
8.76387
9.00807
9.24369
9.47095
9.69006
9.90128
10.1048
10.301
10.49
10.6721
10.8475
11.0165
11.1792
11.336
11.487
11.6325
11.7726
11.9077
12.0378
12.1633
12.2842
12.4008
12.5132
12.6217
12.7263
12.8274
12.9254
13.0201
13.1115
13.1998
13.2851
13.3676
13.4474
13.5246
13.5993
13.6716
13.7417
13.8095
13.8753
13.9391
14.0009
14.0609
14.1191
14.1755
14.2303
14.2834
14.3349
14.3849
14.4334
14.4804
14.526
14.5702
14.6129
14.6544
14.6944
14.7332
14.7706
14.8068
14.8416
14.8753
14.9077
14.9389
14.9691
14.9982
15.0266
15.0543
15.0818
15.1094
15.1381
15.1689
15.2043
15.2459
15.3039
15.3643
-8.58328
-8.61453
-8.68849
-8.78209
-8.88556
-8.97776
-9.039
-9.06339
-9.04633
-8.98588
-8.89611
-8.79929
-8.71767
-8.66639
-8.64433
-8.64113
-8.65069
-8.67613
-8.71142
-8.73165
-8.75599
-8.83395
-8.99371
-9.23328
-9.54016
-9.91114
-10.3369
-10.7971
-11.2699
-11.7377
-12.1879
-12.6111
-13.0008
-13.3533
-13.6669
-13.9411
-14.1765
-14.374
-14.5348
-14.6601
-14.7511
-14.8087
-14.8342
-14.8283
-14.7918
-14.7254
-14.6295
-14.5042
-14.35
-14.17
-13.9679
-13.744
-13.4973
-13.228
-12.9368
-12.6244
-12.2916
-11.9395
-11.569
-11.1811
-10.7768
-10.3574
-9.92392
-9.47751
-9.01935
-8.55061
-8.0725
-7.58622
-7.09296
-6.59391
-6.09022
-5.58305
-5.0735
-4.56265
-4.05156
-3.54121
-3.03259
-2.52658
-2.02407
-1.52586
-1.03271
-0.545334
-0.0643723
0.409573
0.875957
1.33429
1.78412
2.22507
2.65678
3.07895
3.49132
3.89364
4.2857
4.66738
5.03877
5.40008
5.75151
6.09309
6.42466
6.74613
7.05752
7.35896
7.65061
7.93264
8.20523
8.46857
8.72287
8.96835
9.20523
9.43375
9.65413
9.8666
10.0714
10.2688
10.4589
10.6422
10.8187
10.9888
11.1526
11.3104
11.4624
11.6089
11.75
11.8861
12.0173
12.1438
12.2658
12.3835
12.497
12.6065
12.7123
12.8141
12.9122
13.0069
13.0985
13.187
13.2726
13.3553
13.4354
13.5129
13.5879
13.6605
13.7309
13.7991
13.8652
13.9292
13.9914
14.0516
14.1101
14.1668
14.2218
14.2752
14.3269
14.3772
14.4259
14.4731
14.5189
14.5633
14.6063
14.6479
14.6881
14.7271
14.7647
14.801
14.836
14.8697
14.9023
14.9337
14.9639
14.9932
15.0217
15.0495
15.0771
15.1049
15.1336
15.1643
15.1991
15.2387
15.2924
15.3422
-8.7103
-8.79213
-8.9101
-9.01592
-9.09881
-9.15266
-9.17328
-9.15946
-9.10988
-9.02679
-8.91925
-8.80387
-8.70411
-8.63956
-8.61081
-8.60599
-8.625
-8.68172
-8.78532
-8.93237
-9.12271
-9.36346
-9.6575
-9.99663
-10.3687
-10.7644
-11.1738
-11.5851
-11.9877
-12.3743
-12.7402
-13.0817
-13.3961
-13.6817
-13.9375
-14.163
-14.3579
-14.5224
-14.6567
-14.7611
-14.836
-14.8818
-14.8988
-14.8876
-14.8486
-14.7821
-14.6886
-14.5681
-14.4205
-14.2468
-14.0485
-13.8265
-13.5814
-13.3138
-13.0243
-12.7137
-12.3828
-12.0325
-11.6637
-11.2775
-10.8749
-10.4569
-10.0247
-9.57948
-9.12236
-8.65451
-8.17715
-7.69147
-7.19867
-6.69993
-6.19641
-5.68927
-5.17962
-4.66854
-4.15709
-3.64628
-3.13707
-2.63038
-2.12709
-1.628
-1.13389
-0.645461
-0.163382
0.311749
0.779382
1.23902
1.69023
2.13262
2.56585
2.98963
3.40372
3.80793
4.2021
4.58614
4.96003
5.32377
5.6774
6.02093
6.35433
6.67759
6.99079
7.29404
7.5875
7.87131
8.14567
8.41076
8.66678
8.91395
9.1525
9.38264
9.60461
9.81864
10.025
10.2238
10.4154
10.6001
10.778
10.9494
11.1145
11.2736
11.4269
11.5746
11.7169
11.854
11.9861
12.1135
12.2362
12.3546
12.4688
12.579
12.6853
12.7879
12.887
12.9828
13.0754
13.1649
13.2514
13.335
13.4158
13.4941
13.5698
13.6432
13.7142
13.783
13.8497
13.9143
13.977
14.0378
14.0967
14.1539
14.2093
14.2631
14.3153
14.3659
14.415
14.4626
14.5087
14.5534
14.5967
14.6386
14.6791
14.7183
14.7562
14.7927
14.8279
14.8619
14.8946
14.9262
14.9566
14.9861
15.0146
15.0425
15.0701
15.0978
15.1263
15.1564
15.1899
15.2265
15.2739
15.3075
-8.74972
-8.84716
-8.94843
-9.03495
-9.09939
-9.13909
-9.15154
-9.13414
-9.08687
-9.01476
-8.92902
-8.84647
-8.78526
-8.75828
-8.7704
-8.82371
-8.92209
-9.0692
-9.26564
-9.50641
-9.78267
-10.0872
-10.4141
-10.7569
-11.1103
-11.4691
-11.8279
-12.1815
-12.5254
-12.8555
-13.1684
-13.4615
-13.7326
-13.9801
-14.2026
-14.3994
-14.5698
-14.7134
-14.83
-14.9196
-14.9821
-15.0176
-15.0263
-15.0082
-14.9635
-14.8925
-14.7954
-14.6724
-14.5242
-14.3514
-14.1545
-13.934
-13.6906
-13.4246
-13.1368
-12.8279
-12.4986
-12.1499
-11.7827
-11.3979
-10.9965
-10.5797
-10.1486
-9.7042
-9.24777
-8.78047
-8.30351
-7.81806
-7.32533
-6.8265
-6.32274
-5.81521
-5.30502
-4.79327
-4.28101
-3.76925
-3.25898
-2.75111
-2.24653
-1.74605
-1.25045
-0.760452
-0.276717
0.200145
0.669578
1.13108
1.58421
2.02857
2.46382
2.88967
3.30588
3.71224
4.10864
4.49496
4.87118
5.23724
5.59313
5.93882
6.27433
6.59967
6.91495
7.22027
7.51578
7.80162
8.07799
8.34505
8.60302
8.85211
9.09254
9.32452
9.54829
9.76407
9.9721
10.1726
10.3659
10.5522
10.7317
10.9046
11.0712
11.2317
11.3863
11.5353
11.6789
11.8172
11.9506
12.0791
12.203
12.3225
12.4378
12.549
12.6563
12.76
12.8601
12.9569
13.0505
13.1409
13.2283
13.3128
13.3945
13.4735
13.55
13.624
13.6958
13.7652
13.8325
13.8978
13.961
14.0223
14.0818
14.1395
14.1954
14.2497
14.3023
14.3534
14.4029
14.4508
14.4973
14.5424
14.586
14.6282
14.6691
14.7085
14.7467
14.7835
14.8189
14.8531
14.886
14.9178
14.9483
14.9779
15.0065
15.0343
15.0618
15.0891
15.117
15.1459
15.1772
15.2097
15.2491
15.2677
-8.53785
-8.62276
-8.72286
-8.81996
-8.89731
-8.95004
-8.97712
-8.97939
-8.96132
-8.93119
-8.90111
-8.88504
-8.89578
-8.94291
-9.0326
-9.16801
-9.34923
-9.57169
-9.82695
-10.107
-10.4062
-10.7206
-11.0456
-11.3763
-11.7084
-12.038
-12.3619
-12.6769
-12.9803
-13.2696
-13.5428
-13.7983
-14.0345
-14.2503
-14.4447
-14.6168
-14.7659
-14.8915
-14.993
-15.0702
-15.1227
-15.1503
-15.1529
-15.1303
-15.0826
-15.0096
-14.9116
-14.7887
-14.6411
-14.4693
-14.2736
-14.0545
-13.8124
-13.5479
-13.2616
-12.9541
-12.6263
-12.279
-11.9131
-11.5295
-11.1293
-10.7134
-10.2831
-9.83942
-9.38354
-8.91665
-8.43993
-7.95459
-7.46181
-6.96278
-6.45868
-5.95067
-5.43986
-4.92735
-4.4142
-3.90144
-3.39004
-2.88094
-2.37501
-1.87309
-1.37595
-0.88432
-0.398872
0.0797829
0.551083
1.01452
1.46966
1.91608
2.35345
2.78147
3.19989
3.60852
4.0072
4.39584
4.77435
5.1427
5.50085
5.84878
6.18652
6.51409
6.83159
7.13913
7.43683
7.72485
8.00337
8.27257
8.53264
8.7838
9.02627
9.26027
9.48602
9.70375
9.91368
10.1161
10.3112
10.4992
10.6803
10.8549
11.0231
11.1852
11.3414
11.4919
11.637
11.7768
11.9115
12.0414
12.1667
12.2875
12.404
12.5164
12.6249
12.7297
12.8309
12.9288
13.0233
13.1146
13.2029
13.2883
13.3709
13.4507
13.528
13.6028
13.6753
13.7455
13.8135
13.8794
13.9433
14.0052
14.0653
14.1235
14.18
14.2348
14.2879
14.3394
14.3894
14.4378
14.4847
14.5302
14.5742
14.6168
14.658
14.6977
14.7362
14.7732
14.809
14.8434
14.8765
14.9084
14.9391
14.9687
14.9972
15.025
15.0521
15.0789
15.1058
15.1331
15.1617
15.1895
15.2211
15.2272
-8.11789
-8.20629
-8.32723
-8.44992
-8.55515
-8.63557
-8.69388
-8.73596
-8.76943
-8.80409
-8.85089
-8.92013
-9.01984
-9.15484
-9.32733
-9.53632
-9.77713
-10.0442
-10.3321
-10.6354
-10.9483
-11.2663
-11.5853
-11.9018
-12.2131
-12.517
-12.8116
-13.0954
-13.3668
-13.6246
-13.8675
-14.0944
-14.3043
-14.4961
-14.669
-14.8222
-14.9548
-15.0662
-15.1557
-15.2228
-15.2671
-15.2881
-15.2856
-15.2591
-15.2086
-15.1338
-15.0349
-14.9117
-14.7644
-14.5932
-14.3985
-14.1805
-13.9397
-13.6765
-13.3916
-13.0856
-12.7593
-12.4133
-12.0487
-11.6663
-11.2672
-10.8524
-10.423
-9.98002
-9.52473
-9.0583
-8.58188
-8.09669
-7.6039
-7.10472
-6.60032
-6.09185
-5.58045
-5.06721
-4.55321
-4.03946
-3.52696
-3.01664
-2.50938
-2.00603
-1.50737
-1.01412
-0.526965
-0.0465238
0.42664
0.892016
1.34915
1.79764
2.23713
2.66732
3.08797
3.49886
3.89984
4.29078
4.67161
5.04225
5.40269
5.75291
6.09293
6.42279
6.74257
7.05238
7.35234
7.64262
7.92338
8.1948
8.45707
8.7104
8.955
9.19108
9.41888
9.63862
9.85054
10.0549
10.2519
10.4418
10.6248
10.8011
10.9711
11.1349
11.2928
11.4449
11.5915
11.7329
11.8691
12.0005
12.1271
12.2493
12.3672
12.4809
12.5907
12.6967
12.799
12.898
12.9935
13.0859
13.1752
13.2616
13.3451
13.4258
13.504
13.5797
13.6529
13.7239
13.7927
13.8593
13.9239
13.9865
14.0472
14.1061
14.1632
14.2185
14.2722
14.3243
14.3747
14.4236
14.471
14.5169
14.5614
14.6044
14.6459
14.6861
14.7249
14.7622
14.7983
14.8329
14.8663
14.8983
14.9291
14.9587
14.9871
15.0146
15.0413
15.0674
15.093
15.1184
15.1439
15.1669
15.1912
15.1866
-7.65288
-7.75156
-7.89361
-8.04241
-8.18035
-8.29898
-8.40188
-8.49837
-8.59786
-8.70928
-8.84023
-8.99562
-9.17818
-9.38836
-9.62447
-9.88439
-10.1651
-10.4621
-10.7699
-11.0836
-11.3987
-11.712
-12.0206
-12.3225
-12.6161
-12.9001
-13.1735
-13.4353
-13.6847
-13.9208
-14.1429
-14.35
-14.5413
-14.716
-14.8733
-15.0124
-15.1325
-15.2328
-15.3128
-15.3718
-15.4092
-15.4245
-15.4172
-15.3871
-15.3337
-15.2569
-15.1565
-15.0324
-14.8848
-14.7136
-14.5192
-14.3018
-14.0617
-13.7995
-13.5156
-13.2107
-12.8855
-12.5408
-12.1774
-11.7962
-11.3983
-10.9845
-10.5561
-10.1141
-9.65967
-9.19397
-8.71817
-8.23348
-7.74108
-7.24216
-6.73788
-6.2294
-5.71785
-5.20434
-4.68992
-4.17563
-3.66246
-3.15133
-2.64315
-2.13875
-1.63892
-1.1444
-0.655868
-0.173945
0.300799
0.767846
1.22674
1.67706
2.11847
2.55064
2.97333
3.38632
3.78943
4.18254
4.56556
4.93841
5.30107
5.65351
5.99575
6.32786
6.64989
6.96195
7.26417
7.55669
7.83968
8.11331
8.37777
8.63328
8.88002
9.11823
9.34813
9.56995
9.78391
9.99025
10.1892
10.381
10.5659
10.7442
10.916
11.0816
11.2412
11.395
11.5433
11.6862
11.824
11.9569
12.0851
12.2087
12.3279
12.443
12.5541
12.6614
12.765
12.8651
12.9618
13.0553
13.1457
13.233
13.3175
13.3993
13.4784
13.555
13.6291
13.701
13.7705
13.8379
13.9033
13.9666
14.028
14.0876
14.1453
14.2013
14.2556
14.3082
14.3592
14.4087
14.4566
14.503
14.5479
14.5913
14.6333
14.6738
14.713
14.7507
14.787
14.8219
14.8555
14.8876
14.9185
14.9481
14.9764
15.0036
15.0297
15.0548
15.0791
15.1022
15.1244
15.1425
15.1603
15.1464
-7.29723
-7.3907
-7.54274
-7.70846
-7.8753
-8.03627
-8.19087
-8.34698
-8.51284
-8.69427
-8.8953
-9.11714
-9.35838
-9.61814
-9.89585
-10.1892
-10.4944
-10.8072
-11.1232
-11.4389
-11.7514
-12.0584
-12.358
-12.649
-12.9302
-13.2008
-13.4601
-13.7075
-13.9424
-14.1642
-14.3722
-14.5658
-14.7444
-14.9071
-15.0533
-15.1822
-15.2931
-15.3852
-15.4579
-15.5104
-15.5423
-15.5528
-15.5415
-15.508
-15.4518
-15.3728
-15.2706
-15.1453
-14.9966
-14.8248
-14.63
-14.4124
-14.1723
-13.9103
-13.6267
-13.3222
-12.9975
-12.6534
-12.2907
-11.9102
-11.513
-11.1001
-10.6725
-10.2313
-9.77768
-9.31277
-8.83773
-8.35377
-7.86205
-7.36374
-6.86002
-6.35203
-5.84088
-5.32767
-4.81347
-4.29929
-3.78612
-3.27489
-2.76648
-2.26175
-1.76146
-1.26637
-0.777135
-0.294399
0.181272
0.64936
1.1094
1.56098
2.00374
2.43737
2.86159
3.27619
3.68099
4.07584
4.46065
4.83534
5.19988
5.55424
5.89844
6.23253
6.55658
6.87069
7.17497
7.46957
7.75465
8.03037
8.29692
8.55451
8.80333
9.04361
9.27555
9.49939
9.71536
9.92369
10.1246
10.3184
10.5052
10.6853
10.8589
11.0263
11.1876
11.3432
11.4931
11.6377
11.7771
11.9116
12.0412
12.1663
12.287
12.4035
12.516
12.6246
12.7294
12.8308
12.9287
13.0233
13.1148
13.2033
13.2888
13.3716
13.4517
13.5292
13.6043
13.677
13.7474
13.8157
13.8818
13.9459
14.0081
14.0683
14.1268
14.1834
14.2383
14.2916
14.3432
14.3932
14.4416
14.4885
14.5339
14.5778
14.6202
14.6612
14.7007
14.7388
14.7754
14.8106
14.8443
14.8767
14.9076
14.9371
14.9652
14.992
15.0174
15.0415
15.0641
15.085
15.1038
15.1172
15.1289
15.107
-7.10691
-7.19301
-7.34713
-7.51949
-7.70289
-7.89519
-8.09298
-8.29825
-8.51555
-8.74732
-8.99387
-9.25515
-9.5311
-9.82133
-10.124
-10.4357
-10.753
-11.0724
-11.3909
-11.7059
-12.0152
-12.3172
-12.6105
-12.8941
-13.1673
-13.4293
-13.6797
-13.9181
-14.1438
-14.3565
-14.5556
-14.7406
-14.9108
-15.0656
-15.2044
-15.3263
-15.4308
-15.5171
-15.5844
-15.6322
-15.6597
-15.6665
-15.6518
-15.6154
-15.5567
-15.4755
-15.3715
-15.2445
-15.0946
-14.9217
-14.7259
-14.5076
-14.267
-14.0045
-13.7206
-13.416
-13.0913
-12.7472
-12.3846
-12.0044
-11.6076
-11.1951
-10.7679
-10.3273
-9.87431
-9.41005
-8.93572
-8.45248
-7.9615
-7.46394
-6.96097
-6.45371
-5.94329
-5.43077
-4.91722
-4.40363
-3.891
-3.38023
-2.87222
-2.36779
-1.86772
-1.37274
-0.883521
-0.400693
0.0751765
0.543572
1.00403
1.45613
1.89951
2.33386
2.75892
3.17444
3.58026
3.97623
4.36223
4.7382
5.10407
5.45985
5.80553
6.14116
6.4668
6.78255
7.08853
7.38486
7.6717
7.94921
8.21758
8.477
8.72767
8.96979
9.20359
9.42929
9.64711
9.85727
10.06
10.2556
10.4442
10.6261
10.8014
10.9705
11.1336
11.2908
11.4424
11.5886
11.7296
11.8655
11.9967
12.1233
12.2454
12.3633
12.4771
12.587
12.6932
12.7958
12.8949
12.9907
13.0833
13.1729
13.2595
13.3433
13.4244
13.5029
13.5789
13.6525
13.7238
13.7929
13.8599
13.9248
13.9877
14.0487
14.1078
14.1651
14.2207
14.2746
14.3268
14.3774
14.4264
14.4738
14.5197
14.5641
14.607
14.6484
14.6883
14.7267
14.7637
14.7991
14.8331
14.8655
14.8965
14.9259
14.9538
14.9801
15.0048
15.0277
15.0487
15.0671
15.0826
15.0915
15.0977
15.0687
-7.07903
-7.16586
-7.31356
-7.48235
-7.66908
-7.87364
-8.09287
-8.32478
-8.5696
-8.82794
-9.09932
-9.38288
-9.67836
-9.98463
-10.299
-10.6184
-10.94
-11.2611
-11.5793
-11.8924
-12.1989
-12.4972
-12.7864
-13.0655
-13.3339
-13.5911
-13.8366
-14.0698
-14.2905
-14.4982
-14.6923
-14.8723
-15.0377
-15.1879
-15.3221
-15.4398
-15.5402
-15.6227
-15.6864
-15.7309
-15.7553
-15.7592
-15.7419
-15.703
-15.6421
-15.5589
-15.4531
-15.3245
-15.173
-14.9988
-14.8019
-14.5826
-14.3411
-14.0778
-13.7934
-13.4882
-13.1632
-12.8189
-12.4562
-12.076
-11.6793
-11.2671
-10.8403
-10.4002
-9.94776
-9.48418
-9.01059
-8.52818
-8.03808
-7.54146
-7.03945
-6.5332
-6.02379
-5.51229
-4.99975
-4.48717
-3.9755
-3.46567
-2.95853
-2.45492
-1.95561
-1.46132
-0.972717
-0.490413
-0.0149709
0.453096
0.913329
1.36532
1.8087
2.24316
2.66843
3.08427
3.49051
3.88699
4.2736
4.65026
5.01692
5.37356
5.72019
6.05685
6.38361
6.70054
7.00776
7.30539
7.59359
7.87252
8.14234
8.40325
8.65544
8.89911
9.13448
9.36177
9.58119
9.79297
9.99733
10.1945
10.3847
10.5682
10.7452
10.9159
11.0805
11.2392
11.3924
11.5401
11.6825
11.82
11.9526
12.0806
12.2041
12.3233
12.4385
12.5496
12.657
12.7608
12.8611
12.9581
13.0518
13.1425
13.2301
13.315
13.3971
13.4765
13.5535
13.628
13.7002
13.7701
13.8379
13.9036
13.9673
14.029
14.0889
14.1469
14.2031
14.2576
14.3105
14.3616
14.4112
14.4592
14.5056
14.5505
14.5939
14.6357
14.676
14.7148
14.7521
14.7878
14.822
14.8545
14.8855
14.9148
14.9424
14.9682
14.992
15.0137
15.033
15.049
15.0612
15.0659
15.0672
15.0321
-7.18994
-7.2683
-7.39924
-7.55513
-7.73378
-7.93487
-8.15571
-8.39371
-8.64723
-8.91494
-9.19518
-9.48683
-9.78893
-10.0996
-10.4162
-10.7363
-11.0573
-11.377
-11.6932
-12.0041
-12.3082
-12.6042
-12.8911
-13.1681
-13.4345
-13.6897
-13.9332
-14.1646
-14.3834
-14.5891
-14.7812
-14.9593
-15.1226
-15.2707
-15.4028
-15.5183
-15.6165
-15.6968
-15.7584
-15.8006
-15.823
-15.8248
-15.8055
-15.7647
-15.702
-15.617
-15.5094
-15.3793
-15.2264
-15.0508
-14.8527
-14.6322
-14.3897
-14.1256
-13.8405
-13.5348
-13.2094
-12.8649
-12.5021
-12.122
-11.7255
-11.3137
-10.8874
-10.448
-9.99633
-9.53367
-9.06112
-8.57984
-8.09097
-7.59566
-7.09503
-6.5902
-6.08226
-5.57226
-5.06124
-4.55017
-4.04001
-3.53164
-3.02594
-2.52371
-2.02572
-1.53266
-1.04521
-0.563966
-0.0894947
0.377701
0.837164
1.28849
1.73131
2.16533
2.59025
3.00587
3.41199
3.80845
4.19516
4.57201
4.93896
5.296
5.64312
5.98037
6.30779
6.62548
6.93354
7.23209
7.52128
7.80125
8.07218
8.33425
8.58765
8.83258
9.06924
9.29785
9.51862
9.73177
9.93752
10.1361
10.3277
10.5126
10.691
10.8631
11.0292
11.1893
11.3439
11.493
11.6368
11.7756
11.9096
12.0389
12.1637
12.2842
12.4006
12.513
12.6216
12.7265
12.8279
12.926
13.0208
13.1125
13.2012
13.2871
13.3701
13.4505
13.5284
13.6038
13.6768
13.7476
13.8162
13.8827
13.9471
14.0096
14.0701
14.1289
14.1858
14.2409
14.2944
14.3462
14.3963
14.4449
14.4918
14.5372
14.581
14.6233
14.664
14.7032
14.7408
14.7768
14.8112
14.8438
14.8748
14.904
14.9312
14.9564
14.9794
14.9999
15.0174
15.031
15.0401
15.0408
15.0376
14.9973
-7.36644
-7.43101
-7.54192
-7.68036
-7.84418
-8.03292
-8.24423
-8.47543
-8.72407
-8.98782
-9.26445
-9.55279
-9.85161
-10.1587
-10.4717
-10.7881
-11.1056
-11.4221
-11.7356
-12.0443
-12.3469
-12.6418
-12.9282
-13.205
-13.4716
-13.7272
-13.9712
-14.2032
-14.4226
-14.6288
-14.8214
-14.9996
-15.163
-15.3109
-15.4427
-15.5576
-15.6551
-15.7344
-15.7949
-15.836
-15.857
-15.8574
-15.8367
-15.7944
-15.7301
-15.6436
-15.5346
-15.403
-15.2488
-15.072
-14.8727
-14.6513
-14.4079
-14.1432
-13.8575
-13.5515
-13.2258
-12.8813
-12.5188
-12.1391
-11.7432
-11.3322
-10.9069
-10.4686
-10.0182
-9.557
-9.08604
-8.60646
-8.11941
-7.62601
-7.12737
-6.62459
-6.11874
-5.61086
-5.10196
-4.59302
-4.08497
-3.5787
-3.07504
-2.5748
-2.07873
-1.58752
-1.10183
-0.622258
-0.149355
0.316382
0.7745
1.2246
1.66632
2.09934
2.52341
2.93829
3.34379
3.73976
4.12609
4.50269
4.8695
5.22651
5.57371
5.91115
6.23887
6.55696
6.8655
7.16463
7.45448
7.73519
8.00693
8.26988
8.52421
8.77013
9.00784
9.23753
9.45943
9.67374
9.88069
10.0805
10.2734
10.4595
10.6392
10.8125
10.9799
11.1413
11.2971
11.4475
11.5926
11.7327
11.8679
11.9984
12.1244
12.2461
12.3637
12.4772
12.587
12.693
12.7955
12.8947
12.9905
13.0832
13.1729
13.2597
13.3437
13.4251
13.5038
13.5801
13.654
13.7256
13.795
13.8622
13.9274
13.9906
14.0519
14.1112
14.1688
14.2246
14.2787
14.3311
14.3818
14.4309
14.4784
14.5243
14.5686
14.6113
14.6525
14.692
14.73
14.7662
14.8008
14.8336
14.8645
14.8935
14.9205
14.9451
14.9672
14.9864
15.0021
15.0134
15.0196
15.0167
15.0094
14.9646
-7.54034
-7.59182
-7.68439
-7.80497
-7.9516
-8.12374
-8.31933
-8.53599
-8.77126
-9.02259
-9.28795
-9.56623
-9.85602
-10.1551
-10.4611
-10.7715
-11.0842
-11.397
-11.7078
-12.015
-12.3169
-12.6122
-12.8996
-13.1781
-13.4468
-13.7048
-13.9514
-14.186
-14.4079
-14.6165
-14.8112
-14.9914
-15.1563
-15.3055
-15.4382
-15.5538
-15.6515
-15.7308
-15.791
-15.8316
-15.8519
-15.8514
-15.8296
-15.7862
-15.7207
-15.633
-15.5228
-15.3901
-15.2348
-15.057
-14.8569
-14.6348
-14.391
-14.1259
-13.8401
-13.5342
-13.2089
-12.865
-12.5032
-12.1245
-11.7298
-11.3202
-10.8966
-10.46
-10.0117
-9.55266
-9.08402
-8.60691
-8.12243
-7.63171
-7.13583
-6.63588
-6.1329
-5.62792
-5.12193
-4.61589
-4.11071
-3.60728
-3.10641
-2.60888
-2.11544
-1.62677
-1.14351
-0.66626
-0.195557
0.268107
0.724285
1.17258
1.61263
2.04414
2.46682
2.88046
3.28487
3.67988
4.06539
4.44131
4.80757
5.16416
5.51107
5.84834
6.17601
6.49416
6.80288
7.10229
7.39251
7.67369
7.94598
8.20956
8.4646
8.71129
8.94982
9.18041
9.40324
9.61854
9.82651
10.0274
10.2213
10.4086
10.5894
10.7639
10.9324
11.095
11.252
11.4035
11.5498
11.691
11.8274
11.9591
12.0863
12.2091
12.3278
12.4424
12.5533
12.6604
12.7639
12.8641
12.9609
13.0546
13.1453
13.233
13.3179
13.4002
13.4798
13.5569
13.6316
13.704
13.7742
13.8422
13.9082
13.9721
14.034
14.0941
14.1523
14.2088
14.2635
14.3165
14.3678
14.4174
14.4655
14.5119
14.5567
14.5999
14.6415
14.6814
14.7196
14.7562
14.7909
14.8239
14.8548
14.8837
14.9102
14.9343
14.9556
14.9735
14.9876
14.9967
15
14.9938
14.9828
14.9343
-7.66712
-7.70929
-7.78648
-7.89043
-8.01966
-8.17372
-8.35088
-8.54916
-8.76655
-9.00087
-9.25072
-9.51537
-9.79339
-10.0825
-10.3802
-10.6842
-10.992
-11.3015
-11.6106
-11.9174
-12.2201
-12.5172
-12.8072
-13.0891
-13.3615
-13.6236
-13.8745
-14.1132
-14.3391
-14.5515
-14.7496
-14.9327
-15.1003
-15.2517
-15.3861
-15.5029
-15.6016
-15.6814
-15.7418
-15.7822
-15.8021
-15.8011
-15.7786
-15.7343
-15.668
-15.5794
-15.4684
-15.3349
-15.179
-15.0007
-14.8002
-14.5779
-14.3341
-14.0694
-13.7841
-13.479
-13.1548
-12.8122
-12.452
-12.0752
-11.6826
-11.2753
-10.8542
-10.4205
-9.97512
-9.51923
-9.05389
-8.58022
-8.0993
-7.61223
-7.12008
-6.62391
-6.12474
-5.62358
-5.12141
-4.61915
-4.1177
-3.61793
-3.12067
-2.62665
-2.13661
-1.65121
-1.17111
-0.696869
-0.229033
0.231916
0.685538
1.13144
1.56926
1.9987
2.41948
2.83139
3.23422
3.62783
4.01209
4.38691
4.75223
5.10803
5.4543
5.79107
6.11837
6.43629
6.7449
7.04431
7.33465
7.61605
7.88866
8.15265
8.40819
8.65546
8.89465
9.12595
9.34956
9.56569
9.77453
9.97631
10.1712
10.3595
10.5413
10.7169
10.8864
11.0501
11.2082
11.3608
11.5082
11.6506
11.788
11.9208
12.0491
12.173
12.2927
12.4085
12.5203
12.6285
12.733
12.8342
12.932
13.0267
13.1182
13.2069
13.2927
13.3758
13.4563
13.5343
13.6098
13.683
13.7539
13.8227
13.8894
13.954
14.0167
14.0774
14.1363
14.1934
14.2487
14.3023
14.3542
14.4044
14.453
14.4999
14.5453
14.5889
14.6309
14.6713
14.7099
14.7467
14.7817
14.8147
14.8457
14.8744
14.9007
14.9242
14.9446
14.9614
14.9738
14.9808
14.9816
14.9724
14.9581
14.9064
-7.72253
-7.76079
-7.82638
-7.91537
-8.02759
-8.16298
-8.32053
-8.49888
-8.69649
-8.91182
-9.14435
-9.394
-9.65942
-9.93822
-10.2278
-10.5257
-10.8295
-11.1368
-11.4453
-11.753
-12.0579
-12.3583
-12.6524
-12.9389
-13.2165
-13.4838
-13.74
-13.9839
-14.2148
-14.4317
-14.6339
-14.8207
-14.9914
-15.1454
-15.2819
-15.4004
-15.5002
-15.5808
-15.6416
-15.6822
-15.702
-15.7006
-15.6777
-15.633
-15.5662
-15.4771
-15.3657
-15.232
-15.076
-14.8979
-14.6978
-14.4761
-14.2333
-13.9697
-13.6859
-13.3826
-13.0605
-12.7202
-12.3628
-11.9889
-11.5996
-11.1958
-10.7784
-10.3487
-9.90744
-9.45586
-8.99499
-8.52591
-8.04969
-7.56739
-7.08007
-6.58876
-6.09446
-5.59815
-5.10079
-4.60329
-4.10653
-3.61134
-3.11853
-2.62888
-2.14306
-1.66173
-1.18553
-0.715019
-0.250736
0.206842
0.657281
1.10019
1.53521
1.96204
2.38041
2.79009
3.19088
3.58264
3.96524
4.33857
4.70259
5.05725
5.40255
5.7385
6.06515
6.38255
6.69079
6.98996
7.28019
7.5616
7.83433
8.09854
8.3544
8.60208
8.84176
9.07363
9.29788
9.51471
9.72432
9.92691
10.1227
10.3118
10.4946
10.6711
10.8416
11.0064
11.1655
11.3191
11.4676
11.611
11.7495
11.8833
12.0126
12.1376
12.2584
12.3751
12.488
12.5972
12.7027
12.8048
12.9036
12.9992
13.0917
13.1812
13.268
13.3519
13.4332
13.512
13.5884
13.6624
13.7341
13.8036
13.871
13.9364
13.9997
14.0611
14.1207
14.1784
14.2344
14.2886
14.3411
14.3919
14.441
14.4885
14.5343
14.5785
14.6209
14.6617
14.7007
14.7378
14.773
14.8062
14.8372
14.8658
14.8918
14.9148
14.9344
14.9501
14.961
14.9662
14.9646
14.9526
14.9353
14.881
-7.70806
-7.74275
-7.79958
-7.87474
-7.96975
-8.08546
-8.22186
-8.37861
-8.5549
-8.75005
-8.96449
-9.19872
-9.45154
-9.72048
-10.0028
-10.2959
-10.597
-10.9037
-11.2133
-11.5235
-11.8322
-12.1372
-12.4367
-12.729
-13.0125
-13.2859
-13.548
-13.7975
-14.0336
-14.2554
-14.4618
-14.6523
-14.8262
-14.9827
-15.1213
-15.2413
-15.3423
-15.4237
-15.485
-15.5259
-15.5458
-15.5444
-15.5215
-15.4767
-15.41
-15.3211
-15.2101
-15.0769
-14.9217
-14.7446
-14.5459
-14.3259
-14.085
-13.8238
-13.5427
-13.2425
-12.9237
-12.5872
-12.2338
-11.8642
-11.4795
-11.0806
-10.6684
-10.2439
-9.80819
-9.36227
-8.90719
-8.44401
-7.97376
-7.49749
-7.01621
-6.53094
-6.04265
-5.55231
-5.06084
-4.56913
-4.07804
-3.5884
-3.10098
-2.61654
-2.13578
-1.65934
-1.18781
-0.721764
-0.261723
0.19183
0.638463
1.07778
1.50944
1.93313
2.34858
2.75557
3.15388
3.54337
3.92391
4.29539
4.65775
5.01095
5.35497
5.68983
6.01555
6.33219
6.63982
6.93854
7.22845
7.50968
7.78235
8.04662
8.30265
8.55059
8.79064
9.02295
9.24773
9.46516
9.67543
9.87874
10.0753
10.2653
10.4489
10.6263
10.7977
10.9634
11.1235
11.2782
11.4276
11.572
11.7115
11.8464
11.9767
12.1027
12.2245
12.3423
12.4561
12.5663
12.6728
12.7759
12.8756
12.9721
13.0655
13.156
13.2436
13.3284
13.4106
13.4902
13.5673
13.6421
13.7146
13.7849
13.853
13.9191
13.9831
14.0452
14.1055
14.1638
14.2204
14.2753
14.3284
14.3798
14.4295
14.4775
14.5239
14.5685
14.6115
14.6526
14.692
14.7295
14.765
14.7984
14.8294
14.858
14.8837
14.9063
14.9252
14.9398
14.9494
14.9528
14.949
14.9347
14.9146
14.8582
-7.64416
-7.66994
-7.71612
-7.77476
-7.84953
-7.94242
-8.05466
-8.18712
-8.34005
-8.51372
-8.70953
-8.92849
-9.16943
-9.42966
-9.7062
-9.99608
-10.2963
-10.604
-10.9163
-11.2306
-11.5442
-11.8549
-12.1605
-12.4591
-12.7489
-13.0285
-13.2964
-13.5514
-13.7924
-14.0186
-14.229
-14.4228
-14.5994
-14.7582
-14.8986
-15.0201
-15.1222
-15.2044
-15.2664
-15.3078