/*--------------------------------*- C++ -*----------------------------------*\
  =========                 |
  \\      /  F ield         | OpenFOAM: The Open Source CFD Toolbox
   \\    /   O peration     | Website:  https://openfoam.org
    \\  /    A nd           | Version:  8
     \\/     M anipulation  |
\*---------------------------------------------------------------------------*/
FoamFile
{
    version     2.0;
    format      ascii;
    class       surfaceScalarField;
    location    "4200";
    object      phi;
}
// * * * * * * * * * * * * * * * * * * * * * * * * * * * * * * * * * * * * * //

dimensions      [0 3 -1 0 0 0 0];

internalField   nonuniform List<scalar> 
24170
(
3.92539e-06
-7.91498e-07
3.76465e-06
1.6075e-07
3.63345e-06
1.31209e-07
3.43331e-06
2.00144e-07
3.28028e-06
1.53027e-07
3.18901e-06
9.11907e-08
3.13091e-06
5.81106e-08
3.08609e-06
4.58915e-08
3.04613e-06
4.23239e-08
3.01059e-06
3.81633e-08
2.97876e-06
3.38031e-08
2.94904e-06
3.07711e-08
2.92188e-06
2.73787e-08
2.89642e-06
2.5201e-08
2.87227e-06
2.36062e-08
2.85194e-06
1.94838e-08
2.84097e-06
9.85791e-09
-6.38933e-09
2.84669e-06
3.58445e-06
-9.19499e-07
3.80424e-06
-5.90412e-08
3.74282e-06
1.92629e-07
3.6906e-06
2.52375e-07
3.63729e-06
2.06333e-07
3.59023e-06
1.3828e-07
3.55289e-06
9.55998e-08
3.52309e-06
7.566e-08
3.49853e-06
6.65702e-08
3.47732e-06
5.92159e-08
3.45871e-06
5.25302e-08
3.44253e-06
4.72657e-08
3.42795e-06
4.23391e-08
3.41466e-06
3.87876e-08
3.40269e-06
3.57315e-08
3.39122e-06
3.10526e-08
3.38037e-06
2.08421e-08
4.7743e-09
3.36943e-06
3.68518e-06
-7.92482e-07
3.83639e-06
-2.1025e-07
3.91494e-06
1.14082e-07
3.94502e-06
2.22293e-07
3.94408e-06
2.07264e-07
3.92749e-06
1.54897e-07
3.90755e-06
1.15615e-07
3.88932e-06
9.3645e-08
3.874e-06
8.11974e-08
3.86056e-06
7.1917e-08
3.84834e-06
6.42573e-08
3.83728e-06
5.81368e-08
3.82692e-06
5.27807e-08
3.8174e-06
4.84767e-08
3.80891e-06
4.44351e-08
3.80098e-06
3.92542e-08
3.79196e-06
3.02074e-08
1.77932e-08
3.77944e-06
4.05359e-06
-6.4151e-07
4.1146e-06
-2.71259e-07
4.20799e-06
2.06916e-08
4.26635e-06
1.63932e-07
4.29069e-06
1.82926e-07
4.29287e-06
1.52749e-07
4.28571e-06
1.22819e-07
4.27631e-06
1.02844e-07
4.26727e-06
8.96871e-08
4.25873e-06
7.98187e-08
4.25056e-06
7.19511e-08
4.24283e-06
6.56364e-08
4.23535e-06
6.02481e-08
4.22824e-06
5.56949e-08
4.22149e-06
5.13541e-08
4.21464e-06
4.63464e-08
4.20599e-06
3.9184e-08
3.06575e-08
4.19351e-06
4.50491e-06
-5.09114e-07
4.51536e-06
-2.81708e-07
4.58529e-06
-4.92341e-08
4.64665e-06
1.02566e-07
4.68258e-06
1.46993e-07
4.69688e-06
1.38473e-07
4.69946e-06
1.20238e-07
4.69723e-06
1.04926e-07
4.69331e-06
9.32561e-08
4.68868e-06
8.40587e-08
4.68367e-06
7.66435e-08
4.67851e-06
7.06099e-08
4.67321e-06
6.54964e-08
4.66783e-06
6.11078e-08
4.66227e-06
5.70068e-08
4.65606e-06
5.27044e-08
4.64787e-06
4.75913e-08
4.2604e-08
4.63612e-06
5.00014e-06
-3.94663e-07
4.98614e-06
-2.67704e-07
5.03069e-06
-9.37789e-08
5.08506e-06
4.81981e-08
5.12454e-06
1.07517e-07
5.14608e-06
1.16941e-07
5.15584e-06
1.1049e-07
5.1594e-06
1.01286e-07
5.15985e-06
9.26089e-08
5.15859e-06
8.5085e-08
5.15629e-06
7.87446e-08
5.15333e-06
7.34445e-08
5.14984e-06
6.89358e-08
5.14589e-06
6.50657e-08
5.14136e-06
6.15887e-08
5.13584e-06
5.8311e-08
5.12839e-06
5.51492e-08
5.30511e-08
5.11808e-06
5.54382e-06
-2.97475e-07
5.51664e-06
-2.40529e-07
5.54055e-06
-1.17686e-07
5.58388e-06
4.87056e-09
5.62166e-06
6.97347e-08
5.64656e-06
9.20466e-08
5.66107e-06
9.5969e-08
5.66906e-06
9.3248e-08
5.67315e-06
8.84255e-08
5.67481e-06
8.33025e-08
5.67491e-06
7.85535e-08
5.6739e-06
7.43774e-08
5.67204e-06
7.07678e-08
5.6694e-06
6.76979e-08
5.66591e-06
6.51016e-08
5.66127e-06
6.29897e-08
5.65494e-06
6.15483e-08
6.15326e-08
5.6465e-06
4.34788e-06
-2.39242e-07
4.32251e-06
-2.15162e-07
4.33078e-06
-1.25951e-07
4.35419e-06
-1.85361e-08
4.3784e-06
4.55263e-08
4.39646e-06
7.39853e-08
4.40841e-06
8.40234e-08
4.41597e-06
8.56745e-08
4.42059e-06
8.37688e-08
4.42325e-06
8.0599e-08
4.42456e-06
7.71982e-08
4.4249e-06
7.40046e-08
4.42447e-06
7.11821e-08
4.42335e-06
6.88123e-08
4.42151e-06
6.69388e-08
4.41885e-06
6.56726e-08
4.41514e-06
6.52702e-08
6.63499e-08
4.41035e-06
5.08621e-06
-1.85599e-07
5.05777e-06
-1.86718e-07
5.0584e-06
-1.26578e-07
5.07686e-06
-3.70021e-08
5.09918e-06
2.32144e-08
5.11773e-06
5.54367e-08
5.13124e-06
7.05077e-08
5.14059e-06
7.63176e-08
5.14686e-06
7.74767e-08
5.15094e-06
7.64985e-08
5.15344e-06
7.46778e-08
5.15477e-06
7.26681e-08
5.15514e-06
7.07987e-08
5.15468e-06
6.92662e-08
5.15341e-06
6.8212e-08
5.15128e-06
6.7815e-08
5.14821e-06
6.8352e-08
7.02733e-08
5.14429e-06
5.94839e-06
-1.38193e-07
5.91832e-06
-1.56649e-07
5.91161e-06
-1.19866e-07
5.924e-06
-4.93965e-08
5.94286e-06
4.35903e-09
5.96058e-06
3.77173e-08
5.97479e-06
5.62918e-08
5.98546e-06
6.56473e-08
5.9932e-06
6.97368e-08
5.99867e-06
7.10185e-08
6.00242e-06
7.09169e-08
6.00485e-06
7.02414e-08
6.00618e-06
6.94598e-08
6.00658e-06
6.8869e-08
6.0061e-06
6.86895e-08
6.00478e-06
6.91371e-08
6.00267e-06
7.0463e-08
7.29767e-08
5.99997e-06
6.95439e-06
-9.83129e-08
6.92401e-06
-1.26278e-07
6.91113e-06
-1.06984e-07
6.9168e-06
-5.50654e-08
6.93087e-06
-9.71004e-09
6.94635e-06
2.22399e-08
6.96015e-06
4.24935e-08
6.9714e-06
5.4397e-08
6.98017e-06
6.09624e-08
6.98684e-06
6.43488e-08
6.9918e-06
6.59565e-08
6.99538e-06
6.66661e-08
6.9978e-06
6.70321e-08
6.99924e-06
6.74256e-08
6.99982e-06
6.81147e-08
6.99963e-06
6.93257e-08
6.99883e-06
7.12687e-08
7.41303e-08
6.99768e-06
8.12719e-06
-6.64877e-08
8.09793e-06
-9.70209e-08
8.08056e-06
-8.96087e-08
8.07955e-06
-5.40584e-08
8.08793e-06
-1.8089e-08
8.09985e-06
1.03233e-08
8.11198e-06
3.03595e-08
8.12286e-06
4.35228e-08
8.13202e-06
5.17963e-08
8.1395e-06
5.68688e-08
8.14548e-06
5.99767e-08
8.15018e-06
6.19713e-08
8.15378e-06
6.34326e-08
8.15645e-06
6.47584e-08
8.15833e-06
6.62348e-08
8.15958e-06
6.80754e-08
8.1604e-06
7.04422e-08
7.34402e-08
8.16109e-06
9.49368e-06
-4.24387e-08
9.4668e-06
-7.01427e-08
9.44683e-06
-6.96402e-08
9.43991e-06
-4.71316e-08
9.44229e-06
-2.04677e-08
9.44965e-06
2.95581e-09
9.45895e-06
2.10649e-08
9.4684e-06
3.40711e-08
9.47716e-06
4.3037e-08
9.48491e-06
4.91215e-08
9.49159e-06
5.32945e-08
9.49727e-06
5.62926e-08
9.50205e-06
5.86474e-08
9.50607e-06
6.07394e-08
9.50947e-06
6.28354e-08
9.51243e-06
6.51214e-08
9.51515e-06
6.77158e-08
7.06718e-08
9.51792e-06
1.10854e-05
-2.51591e-08
1.10618e-05
-4.65025e-08
1.1041e-05
-4.88066e-08
1.10294e-05
-3.55515e-08
1.10261e-05
-1.71696e-08
1.10284e-05
6.05122e-10
1.1034e-05
1.5475e-08
1.10411e-05
2.69712e-08
1.10487e-05
3.54922e-08
1.10561e-05
4.17162e-08
1.1063e-05
4.63139e-08
1.10695e-05
4.98436e-08
1.10754e-05
5.27355e-08
1.10808e-05
5.53038e-08
1.10859e-05
5.77687e-08
1.10908e-05
6.02739e-08
1.10956e-05
6.29e-08
6.56701e-08
1.11006e-05
1.29396e-05
-1.31187e-08
1.29194e-05
-2.62785e-08
1.28988e-05
-2.82519e-08
1.28839e-05
-2.06876e-08
1.28758e-05
-8.99573e-09
1.28732e-05
3.14497e-09
1.28748e-05
1.39401e-08
1.28789e-05
2.27886e-08
1.28847e-05
2.97447e-08
1.28913e-05
3.51433e-08
1.28982e-05
3.93836e-08
1.29052e-05
4.28286e-08
1.29122e-05
4.57702e-08
1.29191e-05
4.84256e-08
1.29259e-05
5.09439e-08
1.29327e-05
5.34164e-08
1.29398e-05
5.58865e-08
5.8357e-08
1.29471e-05
1.50998e-05
-4.48316e-09
1.50822e-05
-8.6759e-09
1.50621e-05
-8.11349e-09
1.50448e-05
-3.45821e-09
1.50327e-05
3.10969e-09
1.50259e-05
9.93862e-09
1.50237e-05
1.61617e-08
1.5025e-05
2.14641e-08
1.50289e-05
2.58531e-08
1.50346e-05
2.94846e-08
1.50414e-05
3.25544e-08
1.5049e-05
3.52431e-08
1.50571e-05
3.76939e-08
1.50655e-05
4.00081e-08
1.50742e-05
4.22483e-08
1.50832e-05
4.44437e-08
1.50925e-05
4.6597e-08
4.86898e-08
1.51021e-05
1.76171e-05
2.893e-09
1.75999e-05
8.52328e-09
1.75787e-05
1.30296e-08
1.7559e-05
1.62778e-08
1.75436e-05
1.84723e-08
1.75336e-05
1.99576e-08
1.75287e-05
2.10519e-08
1.75282e-05
2.19933e-08
1.75311e-05
2.29393e-08
1.75366e-05
2.39851e-08
1.7544e-05
2.51771e-08
1.75527e-05
2.65278e-08
1.75624e-05
2.80262e-08
1.75727e-05
2.96468e-08
1.75836e-05
3.13531e-08
1.7595e-05
3.3104e-08
1.76067e-05
3.48535e-08
3.65568e-08
1.76188e-05
1.78181e-05
1.10002e-08
1.77994e-05
2.72125e-08
1.77768e-05
3.5624e-08
1.7756e-05
3.70582e-08
1.77402e-05
3.4326e-08
1.77302e-05
2.99461e-08
1.77257e-05
2.54999e-08
1.7726e-05
2.17777e-08
1.77298e-05
1.90748e-08
1.77364e-05
1.74e-08
1.7745e-05
1.66324e-08
1.77549e-05
1.66037e-08
1.77658e-05
1.71417e-08
1.77773e-05
1.80902e-08
1.77894e-05
1.93159e-08
1.78018e-05
2.07063e-08
1.78144e-05
2.21709e-08
2.36342e-08
1.78274e-05
1.58702e-05
2.21332e-08
1.58478e-05
4.95811e-08
1.58233e-05
6.01318e-08
1.58032e-05
5.72341e-08
1.57899e-05
4.76099e-08
1.57834e-05
3.63713e-08
1.57827e-05
2.61973e-08
1.57864e-05
1.81466e-08
1.57931e-05
1.23655e-08
1.58019e-05
8.61275e-09
1.5812e-05
6.49771e-09
1.5823e-05
5.62944e-09
1.58345e-05
5.66602e-09
1.58462e-05
6.32997e-09
1.58581e-05
7.4026e-09
1.58701e-05
8.71907e-09
1.58822e-05
1.01521e-08
1.16104e-08
1.58942e-05
1.41313e-05
3.95385e-08
1.41021e-05
7.87065e-08
1.40745e-05
8.77871e-08
1.40557e-05
7.60377e-08
1.40469e-05
5.64127e-08
1.40462e-05
3.70392e-08
1.40512e-05
2.12103e-08
1.40597e-05
9.58277e-09
1.40704e-05
1.76368e-09
1.4082e-05
-3.04732e-09
1.40941e-05
-5.60288e-09
1.41063e-05
-6.55874e-09
1.41184e-05
-6.4139e-09
1.41303e-05
-5.55792e-09
1.4142e-05
-4.25968e-09
1.41534e-05
-2.71785e-09
1.41646e-05
-1.07054e-09
5.83896e-10
1.41756e-05
1.25772e-05
6.73554e-08
1.25392e-05
1.16739e-07
1.25091e-05
1.17888e-07
1.24942e-05
9.08901e-08
1.24928e-05
5.7813e-08
1.25002e-05
2.96824e-08
1.25122e-05
9.13137e-09
1.25264e-05
-4.49511e-09
1.25409e-05
-1.28331e-08
1.25552e-05
-1.73445e-08
1.25689e-05
-1.92795e-08
1.25819e-05
-1.94967e-08
1.25941e-05
-1.86522e-08
1.26057e-05
-1.71566e-08
1.26167e-05
-1.53124e-08
1.26273e-05
-1.33047e-08
1.26375e-05
-1.12622e-08
-9.27265e-09
1.26474e-05
1.11862e-05
1.10916e-07
1.11384e-05
1.6457e-07
1.11088e-05
1.4752e-07
1.11022e-05
9.7484e-08
1.11117e-05
4.83123e-08
1.11289e-05
1.24015e-08
1.11486e-05
-1.04602e-08
1.11678e-05
-2.37243e-08
1.11855e-05
-3.05028e-08
1.12014e-05
-3.32839e-08
1.12157e-05
-3.35493e-08
1.12285e-05
-3.23512e-08
1.12402e-05
-3.03003e-08
1.12509e-05
-2.78626e-08
1.12608e-05
-2.52705e-08
1.12702e-05
-2.26678e-08
1.1279e-05
-2.01423e-08
-1.77454e-08
1.12875e-05
9.93908e-06
1.76451e-07
9.88248e-06
2.21163e-07
9.85873e-06
1.71262e-07
9.86593e-06
9.0275e-08
9.88961e-06
2.46385e-08
9.9176e-06
-1.55552e-08
9.94392e-06
-3.67928e-08
9.96669e-06
-4.64049e-08
9.98571e-06
-4.96028e-08
1.00017e-05
-4.92785e-08
1.00152e-05
-4.71144e-08
1.00269e-05
-4.39958e-08
1.00371e-05
-4.05263e-08
1.00463e-05
-3.70153e-08
1.00546e-05
-3.3645e-08
1.00624e-05
-3.04394e-08
1.00696e-05
-2.74189e-08
-2.46379e-08
1.00765e-05
8.81963e-06
2.69916e-07
8.75785e-06
2.82944e-07
8.74788e-06
1.81225e-07
8.77481e-06
6.33226e-08
8.81458e-06
-1.51292e-08
8.85212e-06
-5.30911e-08
8.88269e-06
-6.72265e-08
8.90623e-06
-7.00203e-08
8.92427e-06
-6.76074e-08
8.93842e-06
-6.33584e-08
8.94983e-06
-5.83939e-08
8.95924e-06
-5.33311e-08
8.96722e-06
-4.84684e-08
8.97421e-06
-4.40111e-08
8.98053e-06
-4.00033e-08
8.98638e-06
-3.6301e-08
8.99183e-06
-3.29015e-08
-2.97741e-08
8.99699e-06
7.81391e-06
3.96675e-07
7.75391e-06
3.42943e-07
7.76868e-06
1.6644e-07
7.82053e-06
1.14608e-08
7.87567e-06
-7.02742e-08
7.91913e-06
-9.64905e-08
7.94967e-06
-9.78334e-08
7.97058e-06
-9.06442e-08
7.98484e-06
-8.15767e-08
7.99524e-06
-7.35383e-08
8.00315e-06
-6.60948e-08
8.00936e-06
-5.94322e-08
8.01443e-06
-5.3317e-08
8.01877e-06
-4.82122e-08
8.02273e-06
-4.38816e-08
8.02639e-06
-3.999e-08
8.02985e-06
-3.63656e-08
-3.3057e-08
8.03311e-06
6.90424e-06
5.66768e-07
6.86137e-06
3.85805e-07
6.91716e-06
1.10634e-07
6.99674e-06
-6.81334e-08
7.06253e-06
-1.36071e-07
7.10529e-06
-1.39268e-07
7.13032e-06
-1.22547e-07
7.14448e-06
-1.04615e-07
7.15208e-06
-8.89796e-08
7.15709e-06
-7.57959e-08
7.16036e-06
-6.66397e-08
7.16268e-06
-5.96213e-08
7.16411e-06
-5.41425e-08
7.16538e-06
-4.9184e-08
7.16664e-06
-4.5223e-08
7.16789e-06
-4.16468e-08
7.1691e-06
-3.80333e-08
-3.51234e-08
7.17032e-06
6.07162e-06
7.97662e-07
6.08526e-06
3.72164e-07
6.19865e-06
-2.77347e-09
6.2999e-06
-1.69398e-07
6.36526e-06
-2.01463e-07
6.39754e-06
-1.71504e-07
6.41011e-06
-1.35219e-07
6.41343e-06
-1.06946e-07
6.41239e-06
-8.57952e-08
6.4099e-06
-7.4009e-08
6.40745e-06
-6.45135e-08
6.40486e-06
-5.76697e-08
6.40231e-06
-5.11248e-08
6.39996e-06
-4.65055e-08
6.39814e-06
-4.3674e-08
6.39679e-06
-4.04722e-08
6.39515e-06
-3.75783e-08
-3.48899e-08
6.39438e-06
5.35805e-06
1.05451e-06
5.50649e-06
2.23717e-07
5.64777e-06
-1.44085e-07
5.73564e-06
-2.57314e-07
5.77646e-06
-2.42347e-07
5.78324e-06
-1.78424e-07
5.77528e-06
-1.26644e-07
5.76328e-06
-9.40058e-08
5.74976e-06
-7.56519e-08
5.73931e-06
-6.40132e-08
5.73029e-06
-5.64959e-08
5.72237e-06
-5.00062e-08
5.71426e-06
-4.41945e-08
5.70722e-06
-3.97129e-08
5.70178e-06
-3.79036e-08
5.69671e-06
-3.58608e-08
5.69183e-06
-3.19478e-08
-3.1248e-08
5.68788e-06
5.04576e-06
1.01105e-06
5.36491e-06
-9.54495e-08
5.35251e-06
-1.31766e-07
5.33285e-06
-2.37744e-07
5.29601e-06
-2.0565e-07
5.25017e-06
-1.32587e-07
5.20891e-06
-8.47322e-08
5.17485e-06
-6.08212e-08
5.14635e-06
-4.98239e-08
5.12484e-06
-4.2953e-08
5.10676e-06
-3.93178e-08
5.09057e-06
-3.55989e-08
5.07484e-06
-3.02824e-08
5.06146e-06
-2.66906e-08
5.05071e-06
-2.71878e-08
5.04058e-06
-2.50213e-08
5.02937e-06
-2.01008e-08
-2.22429e-08
5.02103e-06
5.4676e-06
5.37215e-06
5.24037e-06
5.00261e-06
4.79695e-06
4.66444e-06
4.57967e-06
4.51836e-06
4.46848e-06
4.42536e-06
4.38573e-06
4.3497e-06
4.31929e-06
4.29261e-06
4.26554e-06
4.24073e-06
4.22086e-06
4.1991e-06
2.31253e-08
-2.31223e-08
2.37197e-07
-2.14071e-07
4.89318e-07
-2.52089e-07
7.09583e-07
-2.20243e-07
8.77297e-07
-1.67695e-07
9.88425e-07
-1.11119e-07
1.04409e-06
-5.56512e-08
1.04651e-06
-2.42097e-09
1.00101e-06
4.55137e-08
9.17726e-07
8.32687e-08
8.11925e-07
1.05811e-07
7.02735e-07
1.09176e-07
6.09952e-07
9.27806e-08
5.43665e-07
6.62974e-08
4.92526e-07
5.11606e-08
4.3335e-07
5.98798e-08
3.47048e-07
8.6167e-08
2.21952e-07
1.25871e-07
4.36521e-08
1.77888e-07
-2.01808e-07
2.44834e-07
-5.04342e-07
3.02279e-07
-8.45331e-07
3.40738e-07
-1.20967e-06
3.64347e-07
-1.58707e-06
3.77406e-07
-1.96867e-06
3.8164e-07
-2.3445e-06
3.75851e-07
-2.70653e-06
3.62058e-07
-3.04961e-06
3.43088e-07
-3.3699e-06
3.20306e-07
-3.66507e-06
2.95178e-07
-3.93426e-06
2.69194e-07
-4.17779e-06
2.43527e-07
-4.39667e-06
2.18886e-07
-4.59239e-06
1.95724e-07
-4.76666e-06
1.74269e-07
-4.92126e-06
1.54603e-07
-5.05795e-06
1.36687e-07
-5.17835e-06
1.20402e-07
-5.28394e-06
1.0559e-07
-5.37601e-06
9.20694e-08
-5.45567e-06
7.9658e-08
-5.52385e-06
6.81836e-08
-5.58134e-06
5.7491e-08
-5.62879e-06
4.74462e-08
-5.66673e-06
3.79401e-08
-5.69561e-06
2.88855e-08
-5.71583e-06
2.0211e-08
-5.72771e-06
1.18869e-08
-5.73175e-06
4.04086e-09
-5.72881e-06
-2.93887e-09
-5.71998e-06
-8.83748e-09
-5.70601e-06
-1.39642e-08
-5.68733e-06
-1.86805e-08
-5.66418e-06
-2.3148e-08
-5.63674e-06
-2.74446e-08
-5.60514e-06
-3.15983e-08
-5.56952e-06
-3.56241e-08
-5.52999e-06
-3.95288e-08
-5.48667e-06
-4.33134e-08
-5.4397e-06
-4.69768e-08
-5.38918e-06
-5.05164e-08
-5.33525e-06
-5.39289e-08
-5.27804e-06
-5.72107e-08
-5.21768e-06
-6.03586e-08
-5.15431e-06
-6.33702e-08
-5.08807e-06
-6.62423e-08
-5.0191e-06
-6.89714e-08
-4.94754e-06
-7.15553e-08
-4.87355e-06
-7.39924e-08
-4.79727e-06
-7.62813e-08
-4.71885e-06
-7.84214e-08
-4.63843e-06
-8.04123e-08
-4.55618e-06
-8.22543e-08
-4.47223e-06
-8.3948e-08
-4.38674e-06
-8.54945e-08
-4.29984e-06
-8.68957e-08
-4.21169e-06
-8.81534e-08
-4.12242e-06
-8.92704e-08
-4.03217e-06
-9.02494e-08
-3.94107e-06
-9.10943e-08
-3.84926e-06
-9.18088e-08
-3.75687e-06
-9.23974e-08
-3.664e-06
-9.28651e-08
-3.57078e-06
-9.32176e-08
-3.47732e-06
-9.34609e-08
-3.38372e-06
-9.36022e-08
-3.29007e-06
-9.36502e-08
-3.19645e-06
-9.36149e-08
-3.10294e-06
-9.35093e-08
-3.00959e-06
-9.3349e-08
-2.91644e-06
-9.31549e-08
-2.82348e-06
-9.29522e-08
-2.73072e-06
-9.27592e-08
-2.63817e-06
-9.25554e-08
-2.54591e-06
-9.22559e-08
-2.45415e-06
-9.17593e-08
-2.36317e-06
-9.09801e-08
-2.27324e-06
-8.99355e-08
-2.18445e-06
-8.87822e-08
-2.09682e-06
-8.76274e-08
-2.01035e-06
-8.64713e-08
-1.92505e-06
-8.52979e-08
-1.84095e-06
-8.40999e-08
-1.75808e-06
-8.28764e-08
-1.67645e-06
-8.16298e-08
-1.59608e-06
-8.0364e-08
-1.517e-06
-7.90828e-08
-1.43921e-06
-7.77888e-08
-1.36273e-06
-7.648e-08
-1.28759e-06
-7.51357e-08
-1.21382e-06
-7.37679e-08
-1.14142e-06
-7.24044e-08
-1.07037e-06
-7.10402e-08
-1.0007e-06
-6.96764e-08
-9.32382e-07
-6.8314e-08
-8.65426e-07
-6.69547e-08
-7.99825e-07
-6.56006e-08
-7.35569e-07
-6.42544e-08
-6.7265e-07
-6.2918e-08
-6.11058e-07
-6.15909e-08
-5.50783e-07
-6.02737e-08
-4.91813e-07
-5.89691e-08
-4.34129e-07
-5.76833e-08
-3.77706e-07
-5.64218e-08
-3.22525e-07
-5.51805e-08
-2.68568e-07
-5.3956e-08
-2.15815e-07
-5.27523e-08
-1.64246e-07
-5.15686e-08
-1.13853e-07
-5.03929e-08
-6.46279e-08
-4.92253e-08
-1.66922e-08
-4.79357e-08
3.0085e-08
-4.67774e-08
7.60111e-08
-4.59264e-08
1.2098e-07
-4.49695e-08
1.64889e-07
-4.39095e-08
2.07734e-07
-4.28456e-08
2.49533e-07
-4.17989e-08
2.90315e-07
-4.0782e-08
3.30112e-07
-3.97969e-08
3.68954e-07
-3.88422e-08
4.0687e-07
-3.79161e-08
4.43887e-07
-3.70171e-08
4.80031e-07
-3.61442e-08
5.15329e-07
-3.52966e-08
5.49803e-07
-3.44737e-08
5.8348e-07
-3.36754e-08
6.16383e-07
-3.29014e-08
6.48537e-07
-3.21514e-08
6.79965e-07
-3.14256e-08
7.10692e-07
-3.07238e-08
7.40741e-07
-3.00461e-08
7.70136e-07
-2.93925e-08
7.98903e-07
-2.8763e-08
8.27064e-07
-2.81577e-08
8.54643e-07
-2.75765e-08
8.81666e-07
-2.70194e-08
9.08155e-07
-2.64861e-08
9.34135e-07
-2.59765e-08
9.59628e-07
-2.549e-08
9.84657e-07
-2.50258e-08
1.00924e-06
-2.45826e-08
1.0334e-06
-2.41586e-08
1.05716e-06
-2.37508e-08
1.08051e-06
-2.33554e-08
1.10348e-06
-2.29665e-08
1.12606e-06
-2.25761e-08
1.14824e-06
-2.21727e-08
1.16998e-06
-2.17406e-08
1.19124e-06
-2.12576e-08
1.21193e-06
-2.06928e-08
1.23194e-06
-2.00018e-08
1.25106e-06
-1.91208e-08
1.26901e-06
-1.79526e-08
1.28537e-06
-1.63527e-08
1.29942e-06
-1.4046e-08
1.31004e-06
-1.06222e-08
1.31461e-06
-4.5577e-09
1.30776e-06
6.85767e-09
1.27822e-06
2.9538e-08
7.23309e-08
1.20589e-06
2.54181e-07
-2.77323e-07
4.90084e-07
-4.4997e-07
6.39673e-07
-4.01674e-07
7.24308e-07
-3.04875e-07
7.63823e-07
-2.07201e-07
7.69769e-07
-1.17069e-07
7.48837e-07
-3.47133e-08
7.06653e-07
3.9754e-08
6.46292e-07
1.05879e-07
5.67664e-07
1.61887e-07
4.70049e-07
2.03433e-07
3.51779e-07
2.27435e-07
2.06819e-07
2.37749e-07
2.36234e-08
2.4951e-07
-2.08591e-07
2.83384e-07
-4.94232e-07
3.45615e-07
-8.32191e-07
4.24216e-07
-1.21205e-06
5.05745e-07
-1.61586e-06
5.81663e-07
-2.01731e-06
6.46221e-07
-2.40733e-06
6.92254e-07
-2.78281e-06
7.16203e-07
-3.13775e-06
7.19291e-07
-3.46518e-06
7.04835e-07
-3.75994e-06
6.76409e-07
-4.02108e-06
6.37002e-07
-4.24903e-06
5.90004e-07
-4.44504e-06
5.39108e-07
-4.61204e-06
4.87304e-07
-4.75352e-06
4.36666e-07
-4.87287e-06
3.88542e-07
-4.97325e-06
3.43905e-07
-5.05753e-06
3.03172e-07
-5.12823e-06
2.66427e-07
-5.18747e-06
2.33509e-07
-5.23698e-06
2.04114e-07
-5.27817e-06
1.77875e-07
-5.31216e-06
1.54397e-07
-5.33987e-06
1.333e-07
-5.36204e-06
1.14233e-07
-5.37926e-06
9.68842e-08
-5.39207e-06
8.09876e-08
-5.4009e-06
6.63214e-08
-5.40616e-06
5.2704e-08
-5.4082e-06
3.99885e-08
-5.40738e-06
2.806e-08
-5.40401e-06
1.68406e-08
-5.39842e-06
6.29563e-09
-5.39076e-06
-3.61899e-09
-5.3806e-06
-1.30929e-08
-5.36707e-06
-2.23664e-08
-5.34957e-06
-3.14685e-08
-5.32792e-06
-4.03336e-08
-5.30211e-06
-4.89581e-08
-5.2722e-06
-5.73488e-08
-5.23829e-06
-6.55118e-08
-5.20046e-06
-7.345e-08
-5.15883e-06
-8.11629e-08
-5.11349e-06
-8.86471e-08
-5.06457e-06
-9.58972e-08
-5.01218e-06
-1.02906e-07
-4.95645e-06
-1.09666e-07
-4.89749e-06
-1.1617e-07
-4.83543e-06
-1.2241e-07
-4.77042e-06
-1.28383e-07
-4.70258e-06
-1.3408e-07
-4.63206e-06
-1.39496e-07
-4.55899e-06
-1.44624e-07
-4.48352e-06
-1.49462e-07
-4.40579e-06
-1.54009e-07
-4.32595e-06
-1.58261e-07
-4.24415e-06
-1.62219e-07
-4.16052e-06
-1.65882e-07
-4.07521e-06
-1.69253e-07
-3.98837e-06
-1.72333e-07
-3.90014e-06
-1.75126e-07
-3.81066e-06
-1.77636e-07
-3.72006e-06
-1.79868e-07
-3.62848e-06
-1.81828e-07
-3.53605e-06
-1.83523e-07
-3.4429e-06
-1.84961e-07
-3.34915e-06
-1.86149e-07
-3.25492e-06
-1.87098e-07
-3.16032e-06
-1.87816e-07
-3.06546e-06
-1.88316e-07
-2.97046e-06
-1.88607e-07
-2.8754e-06
-1.88703e-07
-2.7804e-06
-1.88616e-07
-2.68555e-06
-1.88359e-07
-2.59095e-06
-1.87945e-07
-2.49672e-06
-1.87385e-07
-2.40299e-06
-1.86688e-07
-2.3099e-06
-1.85847e-07
-2.21762e-06
-1.84834e-07
-2.12627e-06
-1.83607e-07
-2.03589e-06
-1.82135e-07
-1.94646e-06
-1.80415e-07
-1.8579e-06
-1.78487e-07
-1.77026e-06
-1.76429e-07
-1.68359e-06
-1.74294e-07
-1.59797e-06
-1.72095e-07
-1.51343e-06
-1.69834e-07
-1.43002e-06
-1.67513e-07
-1.34776e-06
-1.65134e-07
-1.26668e-06
-1.62703e-07
-1.18682e-06
-1.60226e-07
-1.10819e-06
-1.57708e-07
-1.03083e-06
-1.55153e-07
-9.54746e-07
-1.52563e-07
-8.79943e-07
-1.49937e-07
-8.06421e-07
-1.4729e-07
-7.34191e-07
-1.44633e-07
-6.63258e-07
-1.41972e-07
-5.93624e-07
-1.3931e-07
-5.25287e-07
-1.36649e-07
-4.58247e-07
-1.33994e-07
-3.925e-07
-1.31347e-07
-3.2804e-07
-1.28713e-07
-2.64858e-07
-1.26099e-07
-2.02943e-07
-1.23505e-07
-1.42286e-07
-1.2093e-07
-8.28755e-08
-1.18378e-07
-2.47051e-08
-1.15853e-07
3.2239e-08
-1.13365e-07
8.79849e-08
-1.10926e-07
1.4255e-07
-1.08521e-07
1.95944e-07
-1.06146e-07
2.48183e-07
-1.03807e-07
2.99294e-07
-1.01504e-07
3.49306e-07
-9.92369e-08
3.98377e-07
-9.70062e-08
4.46481e-07
-9.48813e-08
4.93401e-07
-9.28468e-08
5.39205e-07
-9.07738e-08
5.83971e-07
-8.86756e-08
6.2773e-07
-8.6605e-08
6.70512e-07
-8.45811e-08
7.12341e-07
-8.26109e-08
7.5324e-07
-8.06956e-08
7.93232e-07
-7.88341e-08
8.32341e-07
-7.70247e-08
8.70589e-07
-7.52658e-08
9.08001e-07
-7.35563e-08
9.446e-07
-7.18951e-08
9.80409e-07
-7.02818e-08
1.01545e-06
-6.87159e-08
1.04975e-06
-6.7197e-08
1.08332e-06
-6.57252e-08
1.1162e-06
-6.43002e-08
1.1484e-06
-6.29221e-08
1.17994e-06
-6.15909e-08
1.21086e-06
-6.03066e-08
1.24117e-06
-5.90693e-08
1.27089e-06
-5.78788e-08
1.30005e-06
-5.67353e-08
1.32867e-06
-5.56383e-08
1.35677e-06
-5.45874e-08
1.38438e-06
-5.3582e-08
1.41152e-06
-5.26209e-08
1.43819e-06
-5.17022e-08
1.46444e-06
-5.08234e-08
1.49026e-06
-4.99805e-08
1.51568e-06
-4.9168e-08
1.5407e-06
-4.83779e-08
1.56534e-06
-4.75993e-08
1.58958e-06
-4.68167e-08
1.61342e-06
-4.60089e-08
1.63682e-06
-4.51463e-08
1.65975e-06
-4.41878e-08
1.68214e-06
-4.3076e-08
1.70387e-06
-4.17291e-08
1.72478e-06
-4.00292e-08
1.74462e-06
-3.77995e-08
1.76304e-06
-3.47706e-08
1.77948e-06
-3.04818e-08
1.79304e-06
-2.41806e-08
1.80276e-06
-1.42732e-08
1.80763e-06
1.99799e-09
1.80574e-06
3.14247e-08
8.80329e-08
1.79004e-06
2.46014e-07
-5.23356e-07
3.42334e-07
-5.46293e-07
3.58624e-07
-4.17961e-07
3.47581e-07
-2.93822e-07
3.1988e-07
-1.79494e-07
2.75797e-07
-7.29853e-08
2.14621e-07
2.64656e-08
1.353e-07
1.19069e-07
3.6776e-08
2.04405e-07
-8.31166e-08
2.81776e-07
-2.30081e-07
3.50398e-07
-4.14639e-07
4.11993e-07
-6.50201e-07
4.73308e-07
-9.43687e-07
5.43001e-07
-1.28494e-06
6.24633e-07
-1.65204e-06
7.12715e-07
-2.02414e-06
7.96321e-07
-2.3844e-06
8.6599e-07
-2.71892e-06
9.16161e-07
-3.01714e-06
9.44433e-07
-3.27521e-06
9.50322e-07
-3.4941e-06
9.35105e-07
-3.67681e-06
9.02004e-07
-3.82737e-06
8.55402e-07
-3.95052e-06
7.99552e-07
-4.05165e-06
7.38137e-07
-4.1361e-06
6.74458e-07
-4.20827e-06
6.11275e-07
-4.27158e-06
5.5062e-07
-4.32866e-06
4.93745e-07
-4.38138e-06
4.41259e-07
-4.43087e-06
3.93396e-07
-4.47777e-06
3.5007e-07
-4.52234e-06
3.11002e-07
-4.56463e-06
2.75799e-07
-4.60454e-06
2.44025e-07
-4.6419e-06
2.15237e-07
-4.67653e-06
1.89021e-07
-4.70823e-06
1.64999e-07
-4.73684e-06
1.42842e-07
-4.76222e-06
1.22266e-07
-4.78426e-06
1.03033e-07
-4.80289e-06
8.49455e-08
-4.81802e-06
6.78383e-08
-4.8296e-06
5.15715e-08
-4.83757e-06
3.60261e-08
-4.84183e-06
2.11e-08
-4.84223e-06
6.69957e-09
-4.83857e-06
-7.28192e-09
-4.8307e-06
-2.09588e-08
-4.81868e-06
-3.43906e-08
-4.80258e-06
-4.75652e-08
-4.78246e-06
-6.046e-08
-4.75835e-06
-7.30669e-08
-4.73032e-06
-8.53792e-08
-4.69844e-06
-9.73912e-08
-4.66279e-06
-1.09096e-07
-4.62347e-06
-1.20485e-07
-4.58057e-06
-1.31548e-07
-4.53419e-06
-1.42274e-07
-4.48445e-06
-1.5265e-07
-4.43145e-06
-1.62663e-07
-4.37532e-06
-1.72299e-07
-4.31618e-06
-1.81549e-07
-4.25416e-06
-1.90404e-07
-4.18939e-06
-1.98855e-07
-4.12199e-06
-2.06889e-07
-4.05212e-06
-2.145e-07
-3.9799e-06
-2.21683e-07
-3.90547e-06
-2.28434e-07
-3.82898e-06
-2.34749e-07
-3.75057e-06
-2.40629e-07
-3.67038e-06
-2.46073e-07
-3.58855e-06
-2.51083e-07
-3.50522e-06
-2.55663e-07
-3.42053e-06
-2.59816e-07
-3.33462e-06
-2.63549e-07
-3.24761e-06
-2.6687e-07
-3.15966e-06
-2.69785e-07
-3.07087e-06
-2.72306e-07
-2.98139e-06
-2.74443e-07
-2.89134e-06
-2.76207e-07
-2.80082e-06
-2.77611e-07
-2.70997e-06
-2.78668e-07
-2.61889e-06
-2.79392e-07
-2.5277e-06
-2.79799e-07
-2.4365e-06
-2.79902e-07
-2.3454e-06
-2.79717e-07
-2.2545e-06
-2.79258e-07
-2.16391e-06
-2.78538e-07
-2.07373e-06
-2.77569e-07
-1.98406e-06
-2.76356e-07
-1.89501e-06
-2.74899e-07
-1.80665e-06
-2.73185e-07
-1.71906e-06
-2.71199e-07
-1.63226e-06
-2.68938e-07
-1.54626e-06
-2.66418e-07
-1.46107e-06
-2.63676e-07
-1.37674e-06
-2.60757e-07
-1.29333e-06
-2.57696e-07
-1.21092e-06
-2.54513e-07
-1.12953e-06
-2.51221e-07
-1.04921e-06
-2.47829e-07
-9.7e-07
-2.44346e-07
-8.91921e-07
-2.40782e-07
-8.15002e-07
-2.37145e-07
-7.39265e-07
-2.33445e-07
-6.64731e-07
-2.29687e-07
-5.91412e-07
-2.25881e-07
-5.19316e-07
-2.22033e-07
-4.4845e-07
-2.18155e-07
-3.78825e-07
-2.14258e-07
-3.10446e-07
-2.1035e-07
-2.43316e-07
-2.06439e-07
-1.77434e-07
-2.0253e-07
-1.128e-07
-1.98628e-07
-4.94085e-08
-1.94738e-07
1.27463e-08
-1.90867e-07
7.36686e-08
-1.87021e-07
1.33366e-07
-1.83203e-07
1.91853e-07
-1.79416e-07
2.4914e-07
-1.75665e-07
3.05244e-07
-1.71956e-07
3.60175e-07
-1.68296e-07
4.13941e-07
-1.64691e-07
4.66556e-07
-1.61136e-07
5.18042e-07
-1.57631e-07
5.68416e-07
-1.54181e-07
6.17702e-07
-1.50789e-07
6.65928e-07
-1.47463e-07
7.13138e-07
-1.44215e-07
7.59313e-07
-1.41057e-07
8.04421e-07
-1.37955e-07
8.4851e-07
-1.34862e-07
8.91624e-07
-1.31789e-07
9.33785e-07
-1.28766e-07
9.75014e-07
-1.2581e-07
1.01533e-06
-1.22925e-07
1.05475e-06
-1.20114e-07
1.09329e-06
-1.17378e-07
1.13098e-06
-1.14715e-07
1.16784e-06
-1.12125e-07
1.20389e-06
-1.09605e-07
1.23915e-06
-1.07156e-07
1.27365e-06
-1.04777e-07
1.3074e-06
-1.02468e-07
1.34043e-06
-1.00227e-07
1.37276e-06
-9.80558e-08
1.40442e-06
-9.59533e-08
1.43541e-06
-9.39198e-08
1.46578e-06
-9.19552e-08
1.49553e-06
-9.00596e-08
1.5247e-06
-8.82329e-08
1.5533e-06
-8.64753e-08
1.58135e-06
-8.47863e-08
1.60888e-06
-8.31658e-08
1.6359e-06
-8.1613e-08
1.66245e-06
-8.01268e-08
1.68853e-06
-7.87056e-08
1.71418e-06
-7.73466e-08
1.7394e-06
-7.60461e-08
1.76422e-06
-7.47983e-08
1.78865e-06
-7.35954e-08
1.8127e-06
-7.24261e-08
1.83638e-06
-7.12747e-08
1.85968e-06
-7.01197e-08
1.8826e-06
-6.8931e-08
1.90512e-06
-6.76673e-08
1.92721e-06
-6.62714e-08
1.9488e-06
-6.46632e-08
1.9698e-06
-6.27293e-08
1.99008e-06
-6.03072e-08
2.00943e-06
-5.71562e-08
2.02758e-06
-5.29129e-08
2.04408e-06
-4.69867e-08
2.05834e-06
-3.84378e-08
2.06958e-06
-2.55065e-08
2.07692e-06
-5.34907e-09
2.08082e-06
2.7523e-08
8.54938e-08
2.08337e-06
9.3743e-08
-6.17107e-07
6.24033e-08
-5.14964e-07
1.39218e-08
-3.69471e-07
-4.31679e-08
-2.36724e-07
-1.12664e-07
-1.09991e-07
-1.98034e-07
1.23896e-08
-3.02264e-07
1.30697e-07
-4.27768e-07
2.44574e-07
-5.77124e-07
3.5376e-07
-7.53713e-07
4.58366e-07
-9.62295e-07
5.58978e-07
-1.20719e-06
6.56885e-07
-1.48718e-06
7.53293e-07
-1.79146e-06
8.47286e-07
-2.10135e-06
9.34513e-07
-2.39721e-06
1.00856e-06
-2.66455e-06
1.06365e-06
-2.89511e-06
1.09653e-06
-3.08561e-06
1.10665e-06
-3.23687e-06
1.09569e-06
-3.35325e-06
1.0667e-06
-3.44129e-06
1.02315e-06
-3.5081e-06
9.68826e-07
-3.56022e-06
9.07523e-07
-3.60312e-06
8.42455e-07
-3.64124e-06
7.76254e-07
-3.67781e-06
7.11033e-07
-3.71488e-06
6.48342e-07
-3.75344e-06
5.89182e-07
-3.79377e-06
5.34074e-07
-3.83568e-06
4.83172e-07
-3.87868e-06
4.36398e-07
-3.92213e-06
3.93518e-07
-3.96534e-06
3.54211e-07
-4.00765e-06
3.18115e-07
-4.04849e-06
2.84861e-07
-4.08734e-06
2.5409e-07
-4.12379e-06
2.25471e-07
-4.1575e-06
1.98705e-07
-4.18819e-06
1.73528e-07
-4.21563e-06
1.4971e-07
-4.23965e-06
1.27054e-07
-4.2601e-06
1.05395e-07
-4.27685e-06
8.45909e-08
-4.2898e-06
6.45219e-08
-4.29886e-06
4.50867e-08
-4.30396e-06
2.61989e-08
-4.30504e-06
7.78179e-09
-4.30209e-06
-1.02384e-08
-4.29512e-06
-2.79227e-08
-4.28422e-06
-4.52992e-08
-4.26942e-06
-6.23647e-08
-4.25077e-06
-7.91064e-08
-4.22832e-06
-9.55118e-08
-4.20214e-06
-1.11567e-07
-4.17227e-06
-1.27259e-07
-4.13879e-06
-1.4257e-07
-4.10179e-06
-1.57485e-07
-4.06136e-06
-1.71986e-07
-4.01758e-06
-1.86054e-07
-3.97055e-06
-1.99672e-07
-3.92039e-06
-2.12822e-07
-3.86721e-06
-2.25482e-07
-3.81112e-06
-2.37638e-07
-3.75225e-06
-2.49278e-07
-3.69071e-06
-2.60389e-07
-3.62665e-06
-2.70956e-07
-3.56018e-06
-2.8097e-07
-3.49144e-06
-2.90423e-07
-3.42056e-06
-2.99309e-07
-3.34769e-06
-3.07624e-07
-3.27295e-06
-3.15367e-07
-3.19648e-06
-3.22538e-07
-3.11843e-06
-3.29138e-07
-3.03892e-06
-3.35172e-07
-2.95809e-06
-3.40646e-07
-2.87607e-06
-3.45566e-07
-2.793e-06
-3.49943e-07
-2.709e-06
-3.53786e-07
-2.62419e-06
-3.57108e-07
-2.53871e-06
-3.59923e-07
-2.45268e-06
-3.62244e-07
-2.3662e-06
-3.64088e-07
-2.2794e-06
-3.6547e-07
-2.19238e-06
-3.66409e-07
-2.10526e-06
-3.66922e-07
-2.01813e-06
-3.67026e-07
-1.93111e-06
-3.66741e-07
-1.84428e-06
-3.66081e-07
-1.75776e-06
-3.65065e-07
-1.67162e-06
-3.63704e-07
-1.58596e-06
-3.62011e-07
-1.50087e-06
-3.59993e-07
-1.4164e-06
-3.5765e-07
-1.33262e-06
-3.54986e-07
-1.24955e-06
-3.52009e-07
-1.16723e-06
-3.4874e-07
-1.08569e-06
-3.4521e-07
-1.005e-06
-3.41454e-07
-9.25189e-07
-3.37502e-07
-8.46323e-07
-3.33379e-07
-7.68442e-07
-3.29102e-07
-6.91584e-07
-3.24686e-07
-6.15782e-07
-3.20148e-07
-5.41064e-07
-3.15499e-07
-4.67457e-07
-3.10752e-07
-3.94982e-07
-3.05919e-07
-3.23657e-07
-3.01012e-07
-2.53496e-07
-2.96041e-07
-1.84509e-07
-2.9102e-07
-1.16705e-07
-2.85959e-07
-5.00917e-08
-2.8087e-07
1.53241e-08
-2.75765e-07
7.95385e-08
-2.70653e-07
1.4255e-07