/*--------------------------------*- C++ -*----------------------------------*\
  =========                 |
  \\      /  F ield         | OpenFOAM: The Open Source CFD Toolbox
   \\    /   O peration     | Website:  https://openfoam.org
    \\  /    A nd           | Version:  8
     \\/     M anipulation  |
\*---------------------------------------------------------------------------*/
FoamFile
{
    version     2.0;
    format      ascii;
    class       volVectorField;
    location    "4200";
    object      wallShearStress;
}
// * * * * * * * * * * * * * * * * * * * * * * * * * * * * * * * * * * * * * //

dimensions      [0 2 -2 0 0 0 0];

internalField   uniform (0 0 0);

boundaryField
{
    inlet
    {
        type            calculated;
        value           uniform (0 0 0);
    }
    outlet
    {
        type            calculated;
        value           uniform (0 0 0);
    }
    upperWall
    {
        type            calculated;
        value           nonuniform List<vector> 
223
(
(-0.582193 -0.392359 0)
(-0.977814 -0.219377 0)
(-0.939336 -0.0567747 0)
(-0.810711 -0.00585779 0)
(-0.734594 0.00331369 0)
(-0.695453 0.00231538 0)
(-0.670941 0.000423974 0)
(-0.653508 -0.00144889 0)
(-0.640541 -0.00256649 0)
(-0.629803 -0.00217408 0)
(-0.62013 -0.00134564 0)
(-0.610875 -0.00098452 0)
(-0.60311 -0.00162616 0)
(-0.596992 -0.00155756 0)
(-0.590684 0.000397016 0)
(-0.584593 0.001173 0)
(-0.579444 0.000594987 0)
(-0.574549 0.00235906 0)
(-0.570366 0.0019067 0)
(-0.567364 0.000153311 4.20111e-22)
(-0.564971 0.000460614 0)
(-0.562022 0.00111928 0)
(-0.559045 0.00247951 0)
(-0.555942 0.00318087 4.49868e-22)
(-0.552902 0.00374559 0)
(-0.549847 0.00418646 0)
(-0.546859 0.00371747 0)
(-0.544073 0.00364702 -9.38476e-22)
(-0.54119 0.00346706 9.48288e-22)
(-0.538391 0.00298923 9.5788e-22)
(-0.535741 0.0025524 0)
(-0.533134 0.00222969 -9.79064e-22)
(-0.530523 0.00196706 0)
(-0.527912 0.00175504 1.00185e-21)
(-0.525286 0.0015791 1.01364e-21)
(-0.522642 0.00144621 -1.02599e-21)
(-0.519976 0.00133854 0)
(-0.517293 0.00125312 0)
(-0.51459 0.00118733 0)
(-0.511864 0.00113719 0)
(-0.50911 0.00109935 -1.09138e-21)
(-0.506328 0.0010714 0)
(-0.503513 0.00105144 0)
(-0.500663 0.00103802 1.13171e-21)
(-0.497774 0.00103011 0)
(-0.494843 0.00102675 1.15796e-21)
(-0.491867 0.00102727 -1.17079e-21)
(-0.488843 0.00103105 1.1834e-21)
(-0.485766 0.00103756 0)
(-0.482636 0.00104564 0)
(-0.479452 0.00105465 0)
(-0.476214 0.00106337 1.23059e-21)
(-0.472927 0.0010706 -1.24124e-21)
(-0.469606 0.00107648 0)
(-0.466263 0.00108214 0)
(-0.462914 0.00108807 0)
(-0.459569 0.00109332 0)
(-0.456235 0.00109664 0)
(-0.452911 0.00109736 0)
(-0.449593 0.00109551 0)
(-0.446273 0.00109169 0)
(-0.442941 0.00108702 1.29197e-21)
(-0.439587 0.00108265 -1.29177e-21)
(-0.436197 0.00107936 0)
(-0.432763 0.00107775 0)
(-0.429272 0.00107808 0)
(-0.425717 0.0010805 -1.27846e-21)
(-0.422089 0.00108479 0)
(-0.418381 0.00109066 0)
(-0.414588 0.00109789 0)
(-0.410704 0.00110597 0)
(-0.406727 0.00111444 0)
(-0.402655 0.00112283 -2.43456e-21)
(-0.398486 0.00113062 0)
(-0.394223 0.00113724 0)
(-0.389868 0.00114217 0)
(-0.385426 0.00114525 0)
(-0.380907 0.00114634 0)
(-0.376321 0.00114533 0)
(-0.371682 0.00114191 0)
(-0.367001 0.0011358 2.09547e-21)
(-0.362287 0.00112692 0)
(-0.35755 0.00111533 0)
(-0.352794 0.00110137 0)
(-0.348021 0.00108551 -1.83979e-21)
(-0.343231 0.00106828 0)
(-0.338422 0.00105042 -1.69034e-21)
(-0.33359 0.00103253 0)
(-0.328731 0.00101542 0)
(-0.323836 0.000999887 0)
(-0.319025 0.000992053 -1.35111e-21)
(-0.316384 0.00100123 0)
(-0.31366 0.00101511 1.18061e-21)
(-0.310855 0.00102971 1.08991e-21)
(-0.307975 0.00104288 0)
(-0.305031 0.00105383 8.96193e-22)
(-0.302033 0.00106255 0)
(-0.298997 0.0010699 0)
(-0.295935 0.00107691 0)
(-0.292864 0.00108457 -4.54711e-22)
(-0.289795 0.00109277 0)
(-0.286745 0.00110226 -2.05266e-22)
(-0.283723 0.00110751 7.32042e-23)
(-0.280741 0.00111848 0)
(-0.277807 0.00110508 0)
(-0.274925 0.00110173 0)
(-0.272116 0.00112661 0)
(-0.269378 0.00110857 0)
(-0.266709 0.00110543 0)
(-0.264155 0.00102587 0)
(-0.261662 0.00135889 1.14568e-21)
(-0.259391 0.0013798 0)
(-0.256987 0.000721171 0)
(-0.25475 0.000521026 0)
(-0.252498 0.000634022 0)
(-0.250327 0.00120661 0)
(-0.24839 0.001372 0)
(-0.246408 0.000693411 0)
(-0.244276 0.000448897 0)
(-0.242305 0.000740452 0)
(-0.240399 0.000748422 0)
(-0.238471 0.00105344 0)
(-0.236786 0.00148485 0)
(-0.235226 0.000763427 7.13752e-21)
(-0.233433 5.74201e-05 0)
(-0.231642 6.12222e-05 0)
(-0.23001 0.000200385 0)
(-0.228466 0.000347808 -8.84669e-21)
(-0.227103 0.000491098 0)
(-0.225797 0.00053244 0)
(-0.224532 0.000564351 -1.00401e-20)
(-0.223078 0.000561592 0)
(-0.221653 0.000514754 1.08875e-20)
(-0.220276 0.000513407 0)
(-0.218991 0.000496768 0)
(-0.217566 0.000534938 0)
(-0.216228 0.000634455 -1.26006e-20)
(-0.215101 0.000638193 0)
(-0.213901 0.000525625 1.34361e-20)
(-0.212857 0.000900673 0)
(-0.211775 0.00116981 0)
(-0.211103 0.00107805 0)
(-0.210102 0.000421547 0)
(-0.208871 -0.00020429 0)
(-0.207667 -1.00909e-05 0)
(-0.206836 0.000113119 0)
(-0.20601 0.000160466 0)
(-0.205376 0.000242297 0)
(-0.204533 0.000296487 0)
(-0.203718 0.00030704 0)
(-0.202996 0.000273273 1.84688e-20)
(-0.202411 0.000275443 -1.88663e-20)
(-0.201621 0.000323232 0)
(-0.200814 0.000304143 0)
(-0.200015 0.000244253 0)
(-0.199511 0.000274413 0)
(-0.198738 0.000345211 -2.10197e-20)
(-0.198236 0.000334788 2.1404e-20)
(-0.197435 0.000367352 -2.18702e-20)
(-0.197204 0.000350566 0)
(-0.196841 0.000429493 -2.24947e-20)
(-0.196283 0.0007503 -4.59004e-20)
(-0.195991 0.000856934 0)
(-0.195694 0.000687327 -4.74683e-20)
(-0.19567 0.000519169 4.81018e-20)
(-0.195693 0.000468921 0)
(-0.194936 0.000441869 0)
(-0.194758 0.000331616 0)
(-0.194656 0.000164959 0)
(-0.1937 -0.000206439 0)
(-0.19274 -0.000345791 -5.38253e-20)
(-0.192128 -0.000189494 0)
(-0.19179 -6.66546e-05 -5.52506e-20)
(-0.191253 8.29211e-05 0)
(-0.190729 9.32386e-05 0)
(-0.190524 0.000123821 0)
(-0.189515 0.000186399 0)
(-0.189139 0.000172191 0)
(-0.188676 0.00020705 6.08125e-20)
(-0.188004 0.000266622 0)
(-0.187661 0.000392834 0)
(-0.186667 0.000506075 -6.40664e-20)
(-0.185836 0.0006834 0)
(-0.185091 0.000417952 0)
(-0.183842 7.81006e-05 0)
(-0.182491 0.000229986 6.9412e-20)
(-0.1815 0.00036514 0)
(-0.180267 0.00051134 0)
(-0.179001 0.000683033 0)
(-0.177288 0.00078504 0)
(-0.175954 0.000836239 -7.64578e-20)
(-0.173555 0.000526665 0)
(-0.170052 0.00030357 0)
(-0.165912 0.00058431 0)
(-0.161604 0.000912909 8.84926e-20)
(-0.154221 0.00129988 0)
(-0.147375 0.00221752 0)
(-0.122861 0.00227148 -1.07878e-19)
(-0.140586 0.0068406 6.01853e-36)
(-0.169166 0.0134518 1.24646e-17)
(-0.186815 0.0172525 2.3505e-17)
(-0.193319 0.0189907 2.26926e-17)
(-0.19687 0.0197633 2.19658e-17)
(-0.200893 0.0203622 2.11621e-17)
(-0.205372 0.0210384 -2.02426e-17)
(-0.209614 0.0215397 -1.95236e-17)
(-0.213815 0.021884 0)
(-0.21806 0.0220259 -3.66583e-17)
(-0.220208 0.0221872 -1.80754e-17)
(-0.224685 0.0227261 1.11343e-33)
(-0.227499 0.0229082 -1.20371e-35)
(-0.231077 0.0233647 -3.22673e-17)
(-0.235466 0.0239502 -3.06534e-17)
(-0.242448 0.0247981 -2.84622e-17)
(-0.249627 0.0254571 0)
(-0.256937 0.0260709 4.93993e-17)
(-0.263938 0.026657 2.26552e-17)
(-0.27172 0.0273469 2.40741e-35)
(-0.281085 0.028172 -3.51282e-17)
(-0.29039 0.0289017 -1.52844e-20)
(-0.30021 0.0295025 -3.00927e-36)
(-0.305085 0.0304946 1.3416e-17)
(-0.33233 0.0321456 -7.64401e-18)
)
;
    }
    lowerWall
    {
        type            calculated;
        value           nonuniform List<vector> 
250
(
(-0.653909 0.466638 0)
(-1.14095 0.204678 0)
(-1.03492 0.0379587 0)
(-0.869573 -0.000935979 0)
(-0.786941 -0.00419161 0)
(-0.746063 -0.00160781 0)
(-0.719878 0.000416201 0)
(-0.700646 -0.000651779 0)
(-0.685089 -0.00405599 0)
(-0.671318 -0.00471224 0)
(-0.658933 -0.00298822 0)
(-0.647721 -0.000864304 0)
(-0.637517 0.00142598 0)
(-0.62819 0.00210381 0)
(-0.619321 0.00136781 0)
(-0.611522 0.00135748 0)
(-0.604582 0.00169539 0)
(-0.605063 0.00194534 0)
(-0.00423426 -0.0228276 0)
(-0.00275802 -0.0176424 0)
(-0.000680069 -0.0144912 0)
(0.0019372 -0.0137999 9.02535e-20)
(0.00525424 -0.0152142 -7.86544e-20)
(0.00894974 -0.020829 6.28526e-20)
(0.0127321 -0.0200749 -4.84747e-20)
(0.0256466 -0.0632965 0)
(-0.0839946 -0.14472 0)
(0.000872676 -0.00384051 0)
(-0.00766515 0.009546 0)
(-0.00851621 0.0328208 0)
(-0.00254973 0.044855 0)
(0.00295303 0.0442615 1.82229e-20)
(0.0061824 0.0360634 -1.89663e-20)
(0.00818689 0.0241616 0)
(0.00946023 0.0101613 -5.423e-20)
(0.00943146 -0.00404166 6.11451e-20)
(0.00793317 -0.0174216 0)
(0.00614114 -0.0291941 0)
(0.00438168 -0.0385614 0)
(0.00268704 -0.0451383 0)
(0.00098612 -0.0488768 0)
(-0.000886791 -0.0495121 0)
(-0.00281896 -0.0463951 0)
(-0.00439758 -0.0399062 0)
(-0.00491321 -0.0307457 0)
(0.00132855 -0.00151216 0)
(0.00133791 0.00652692 0)
(-0.00450909 0.0096183 0)
(-0.00959697 0.00975625 0)
(-0.0133829 0.00829935 0)
(-0.0158892 0.00623507 0)
(-0.0172641 0.00409751 1.49578e-21)
(-0.0177828 0.00200598 -1.52739e-21)
(-0.0173313 -7.1613e-06 0)
(-0.0160536 -0.00168642 -1.65314e-21)
(-0.0141881 -0.00283771 0)
(-0.01205 -0.00329658 0)
(-0.0100503 -0.00303596 -0)
(-0.00855267 -0.00228029 2.57046e-21)
(-0.00761604 -0.00142301 0)
(-0.00693783 -0.000815772 0)
(-0.0061204 -0.00062334 -3.37841e-21)
(-0.00499285 -0.00100038 0)
(-0.00340855 -0.00238583 0)
(-0.000488794 -0.00505746 0)
(0.00436047 -0.00740355 3.03323e-21)
(0.00994539 -0.00889511 0)
(0.0158464 -0.00984992 1.4692e-21)
(0.0218917 -0.0106169 0)
(0.0280975 -0.0112689 -0)
(0.0344079 -0.0115144 8.44721e-22)
(0.0405406 -0.0113547 0)
(0.0491482 -0.0116032 -7.54056e-22)
(0.0589383 -0.0117553 -0)
(0.0686324 -0.0115827 7.70719e-22)
(0.0780416 -0.011169 0)
(0.0870145 -0.0105841 0)
(0.0954589 -0.00989008 0)
(0.103317 -0.00913661 -0)
(0.110563 -0.00836071 0)
(0.117196 -0.00758965 -8.11172e-22)
(0.12323 -0.00684047 -0)
(0.128686 -0.00612268 1.63312e-21)
(0.133591 -0.00544049 0)
(0.137973 -0.00479419 -1.635e-21)
(0.141859 -0.00418212 -0)
(0.145271 -0.00360152 -0)
(0.148232 -0.00304953 1.62109e-21)
(0.150758 -0.00252413 0)
(0.152864 -0.00202414 1.60087e-21)
(0.154562 -0.00155032 -1.58756e-21)
(0.155863 -0.00110635 -0)
(0.156782 -0.000698912 -1.55494e-21)
(0.157328 -0.000337891 -1.53591e-21)
(0.157514 -3.98498e-05 -0)
(0.157409 0.00019478 0)
(0.157077 0.000391502 0)
(0.156523 0.000568217 0)
(0.155762 0.000731129 -0)
(0.154801 0.000884188 1.37585e-21)
(0.153649 0.00102831 0)
(0.152313 0.001164 -1.30707e-21)
(0.1508 0.00129166 -0)
(0.149117 0.00141126 -0)
(0.147272 0.00152289 1.19062e-21)
(0.145273 0.00162649 0)
(0.143127 0.00172194 -1.10492e-21)
(0.140843 0.00180932 -0)
(0.13843 0.00188861 0)
(0.135896 0.00195996 -0)
(0.13325 0.00202318 9.16897e-22)
(0.130502 0.0020785 0)
(0.12766 0.00212611 -0)
(0.124734 0.00216607 7.63854e-22)
(0.121733 0.00219857 0)
(0.118666 0.00222379 6.57321e-22)
(0.115542 0.002242 0)
(0.112371 0.00225347 0)
(0.109161 0.00225845 0)
(0.10592 0.00225718 -4.3624e-22)
(0.102657 0.00225005 -0)
(0.0993804 0.0022373 0)
(0.0960979 0.00221928 -2.65642e-22)
(0.0928164 0.00219631 -2.08192e-22)
(0.0895437 0.00216872 -0)
(0.0862863 0.00213702 -9.27279e-23)
(0.0830502 0.00210141 -0)
(0.0798419 0.00206229 4.64488e-23)
(0.0766668 0.00202019 -0)
(0.0735298 0.00197545 2.7886e-22)
(0.0704359 0.00192849 0)
(0.0673892 0.00188001 -5.11541e-22)
(0.0643935 0.0018307 -0)
(0.061452 0.0017815 0)
(0.0585672 0.00173373 -0)
(0.0557415 0.00168915 9.78303e-22)
(0.0529756 0.00164989 0)
(0.0502703 0.00161809 -1.21374e-21)
(0.0476241 0.0015948 0)
(0.0457851 0.00160341 1.47548e-21)
(0.0442427 0.00162098 1.63398e-21)
(0.0427036 0.0016259 1.79889e-21)
(0.0411763 0.00161299 0)
(0.039666 0.00158967 0)
(0.0381723 0.001564 0)
(0.0366941 0.00153819 0)
(0.0352312 0.00151247 0)
(0.0337841 0.00148685 0)
(0.0323533 0.00146138 0)
(0.0309391 0.00143616 0)
(0.0295422 0.00141134 -3.69156e-21)
(0.0281627 0.00138714 -3.9672e-21)
(0.0268011 0.0013637 0)
(0.0254572 0.00134072 0)
(0.0241318 0.00131666 0)
(0.0228261 0.00129178 -5.26707e-21)
(0.0215398 0.00126757 0)
(0.0202732 0.00124391 0)
(0.0190261 0.00122085 0)
(0.0177988 0.00119841 0)
(0.0165912 0.00117668 7.53551e-21)
(0.0154033 0.00115573 0)
(0.0142352 0.00113564 0)
(0.0130866 0.00111653 -9.45416e-21)
(0.0119575 0.00109842 1.02316e-20)
(0.010848 0.0010814 0)
(0.00975782 0.00106578 1.20677e-20)
(0.00868702 0.0010522 0)
(0.00763515 0.00104182 -1.44059e-20)
(0.00660158 0.00103493 0)
(0.00558596 0.00103053 0)
(0.00458824 0.00102831 0)
(0.00360798 0.0010286 0)
(0.00264477 0.00103163 0)
(0.00169903 0.00103736 5.57027e-20)
(0.000772279 0.00104295 6.42107e-20)
(-0.000137521 0.00103026 0)
(-0.00103479 0.000987468 0)
(-0.0019166 0.000935085 0)
(-0.00278291 0.000885591 -5.28942e-20)
(-0.0036336 0.000840671 0)
(-0.00446851 0.000799922 0)
(-0.00528798 0.000762854 0)
(-0.00609261 0.000728975 -4.04187e-20)
(-0.00688297 0.000697825 3.83683e-20)
(-0.00765951 0.000669026 0)
(-0.00842276 0.000642274 0)
(-0.00917313 0.000617322 3.36202e-20)
(-0.00991107 0.000593974 3.23797e-20)
(-0.010637 0.000572062 0)
(-0.0113514 0.000551455 0)
(-0.0120546 0.000532038 -2.93544e-20)
(-0.0127471 0.000513712 2.85266e-20)
(-0.0134293 0.000496397 0)
(-0.0141016 0.000480026 0)
(-0.0147645 0.000464534 2.64365e-20)
(-0.0154183 0.000449873 0)
(-0.0160637 0.000435991 0)
(-0.0167009 0.000422856 2.4791e-20)
(-0.0173304 0.000410424 0)
(-0.0179528 0.000398659 2.38751e-20)
(-0.0185684 0.000387535 0)
(-0.0191778 0.000377021 0)
(-0.0197814 0.000367084 0)
(-0.0203796 0.000357683 -2.23591e-20)
(-0.0209728 0.000348803 0)
(-0.0215616 0.000340412 0)
(-0.0221465 0.00033242 0)
(-0.0227274 0.000324776 0)
(-0.0233048 0.000317399 0)
(-0.0238784 0.000310193 0)
(-0.0244485 0.000303033 -2.03857e-20)
(-0.0250147 0.000295656 -2.01554e-20)
(-0.0255757 0.000287818 0)
(-0.0261306 0.000279155 0)
(-0.0266768 0.000269106 0)
(-0.027211 0.000256975 1.93606e-20)
(-0.0277283 0.000241519 0)
(-0.0282203 0.000221282 -3.8135e-20)
(-0.0286772 0.000192216 3.79288e-20)
(-0.0290701 0.000152594 3.78197e-20)
(-0.0294014 7.78627e-05 -3.7858e-20)
(-0.0294831 -3.94256e-05 3.80452e-20)
(-0.0295076 -0.00035659 -3.83974e-20)
(-0.027973 -0.000616902 0)
(-0.0293457 -0.000516239 -2.43315e-18)
(-0.0327693 -0.00134244 -2.26974e-18)
(-0.036413 -0.00203342 3.00927e-36)
(-0.0395336 -0.00257611 -4.06085e-18)
(-0.0424836 -0.00301867 -7.75776e-18)
(-0.0455561 -0.00342177 -3.71955e-18)
(-0.048779 -0.00381906 3.56808e-18)
(-0.0521156 -0.00429891 -2.40741e-35)
(-0.0555949 -0.00475574 3.00927e-36)
(-0.059291 -0.00507166 3.14975e-18)
(-0.0632286 -0.00539222 3.03004e-18)
(-0.0674165 -0.00579413 0)
(-0.0718956 -0.00624082 0)
(-0.076709 -0.00670794 0)
(-0.0819035 -0.00720808 2.58139e-35)
(-0.0875265 -0.00775182 -1.06453e-34)
(-0.0936473 -0.00835182 1.56482e-34)
(-0.10032 -0.00901422 -4.15823e-18)
(-0.107685 -0.00973409 -3.81237e-18)
(-0.116744 -0.010626 6.01853e-36)
(-0.127563 -0.0116291 6.13676e-18)
(-0.13842 -0.0127357 1.03493e-17)
(-0.153646 -0.0139288 0)
(-0.162847 -0.0152956 -5.09806e-18)
(-0.191963 -0.0169834 -2.70834e-35)
)
;
    }
    frontAndBack
    {
        type            empty;
    }
}


// ************************************************************************* //
