/*--------------------------------*- C++ -*----------------------------------*\
  =========                 |
  \\      /  F ield         | OpenFOAM: The Open Source CFD Toolbox
   \\    /   O peration     | Website:  https://openfoam.org
    \\  /    A nd           | Version:  8
     \\/     M anipulation  |
\*---------------------------------------------------------------------------*/
FoamFile
{
    version     2.0;
    format      ascii;
    class       volScalarField;
    location    "1800";
    object      nut;
}
// * * * * * * * * * * * * * * * * * * * * * * * * * * * * * * * * * * * * * //

dimensions      [0 2 -1 0 0 0 0];

internalField   nonuniform List<scalar> 
12225
(
0.0122671
0.00158819
0.000666129
0.000410105
0.000294025
0.00022806
0.000183261
0.000170805
0.000132697
0.000106844
9.46735e-05
8.80085e-05
7.89856e-05
7.2233e-05
6.77318e-05
6.4507e-05
6.12103e-05
6.46337e-05
0.0323823
0.00744532
0.00330638
0.00204329
0.00146801
0.0011445
0.000936338
0.000799975
0.00067951
0.000577234
0.000506286
0.000452432
0.00041054
0.000378806
0.000350182
0.000327767
0.000311172
0.000292818
0.0490123
0.01515
0.00728196
0.00457854
0.00330639
0.00258054
0.00211233
0.00178913
0.00154181
0.00134762
0.00119772
0.0010787
0.000982056
0.000902481
0.000835978
0.000780909
0.000735546
0.00068717
0.063054
0.0237783
0.0122894
0.00788814
0.00573397
0.00448498
0.00367412
0.00310733
0.00268471
0.00235805
0.00210111
0.00189458
0.00172531
0.00158451
0.00146613
0.00136604
0.00128146
0.00119789
0.074932
0.0328517
0.0181452
0.0119262
0.00874548
0.00686412
0.0056308
0.00476254
0.00411748
0.00362029
0.00322731
0.00290992
0.00264899
0.00243143
0.00224799
0.00209188
0.00195826
0.00183626
0.0849536
0.0420208
0.0246655
0.0166359
0.0123325
0.00972587
0.00799539
0.00676785
0.00585345
0.00514769
0.00458844
0.00413587
0.00376334
0.00345239
0.00318983
0.00296596
0.0027736
0.00260471
0.0933822
0.0510219
0.0316642
0.0219415
0.016474
0.0130717
0.0107778
0.00913551
0.0079057
0.0069534
0.0061969
0.00558367
0.00507837
0.00465632
0.00429976
0.00399561
0.00373414
0.00350818
0.0993794
0.0583363
0.0378386
0.0268568
0.0204171
0.0163053
0.0134891
0.011453
0.00991891
0.00872629
0.00777635
0.00700497
0.00636866
0.00583685
0.0053874
0.00500398
0.00467452
0.00439126
0.104023
0.0645454
0.0433804
0.0314239
0.0241571
0.0194092
0.0161097
0.0137018
0.0118766
0.0104521
0.00931443
0.00838904
0.00762485
0.00698574
0.00644544
0.00598449
0.00558858
0.00524877
0.108368
0.0708939
0.0493756
0.0365496
0.0284517
0.0230231
0.0191863
0.0163547
0.0141926
0.0124968
0.011138
0.0100303
0.00911434
0.00834759
0.0076991
0.00714579
0.00667068
0.00626297
0.112368
0.0772557
0.0557282
0.0421918
0.0332976
0.0271652
0.0227467
0.0194432
0.0168984
0.0148903
0.0132749
0.0119544
0.0108605
0.00994379
0.00916796
0.00850586
0.00793736
0.00744915
0.115994
0.0834975
0.0623053
0.0482611
0.0386474
0.0318167
0.026789
0.0229739
0.0200046
0.0176452
0.0157378
0.0141736
0.0128749
0.011785
0.0108618
0.0100736
0.00939671
0.00881464
0.119234
0.0894856
0.0689377
0.0546109
0.0443919
0.0369007
0.0312597
0.0269088
0.0234836
0.02074
0.0185096
0.0166735
0.0151449
0.01386
0.0127704
0.0118396
0.0110397
0.0103508
0.122086
0.095084
0.075415
0.0610223
0.0503361
0.0422534
0.0360231
0.0311353
0.0272402
0.024093
0.021519
0.0193909
0.017614
0.0161174
0.0148466
0.01376
0.0128257
0.0120196
0.124546
0.100135
0.0814619
0.0671725
0.056158
0.047577
0.0408126
0.0354174
0.031066
0.0275196
0.0246012
0.0221777
0.0201481
0.0184349
0.0169782
0.0157314
0.0146583
0.0137311
0.126578
0.104396
0.0866605
0.0725515
0.0613228
0.0523526
0.0451453
0.0393148
0.0345631
0.0306611
0.0274325
0.0247409
0.0224806
0.020569
0.0189413
0.0175468
0.0163454
0.0153061
0.128011
0.107322
0.0902141
0.0762353
0.0648743
0.0556509
0.0481493
0.0420254
0.0370012
0.0328553
0.0294126
0.0265352
0.0241143
0.0220643
0.0203172
0.0188191
0.0175275
0.0164083
0.128006
0.107313
0.0902048
0.0762269
0.0648674
0.0556454
0.048145
0.0420222
0.0369988
0.0328537
0.0294117
0.0265349
0.0241147
0.0220652
0.0203185
0.0188206
0.0175287
0.0164083
0.126509
0.104255
0.0864922
0.0723807
0.0611613
0.052205
0.0450128
0.0391967
0.0344584
0.0305686
0.0273506
0.0246684
0.0224163
0.0205118
0.0188903
0.0175006
0.0163024
0.0152631
0.124267
0.0995604
0.0807712
0.0664676
0.0554886
0.0469631
0.0402594
0.0349228
0.0306248
0.0271258
0.0242488
0.0218611
0.0198626
0.0181762
0.0167426
0.0155152
0.0144575
0.0135405
0.12136
0.0936399
0.0737261
0.0593348
0.0487592
0.0408249
0.0347467
0.0300003
0.0262308
0.0231928
0.0207127
0.018665
0.0169572
0.0155198
0.0142999
0.0132567
0.0123583
0.0115798
0.117686
0.0865903
0.0656967
0.0514791
0.0415374
0.0343608
0.0290184
0.0249322
0.0217348
0.0191848
0.0171184
0.0154211
0.0140106
0.0128263
0.0118229
0.0109657
0.010228
0.00958895
0.11305
0.0784122
0.056921
0.0432687
0.0342296
0.0279652
0.0234365
0.0200435
0.0174263
0.0153597
0.0136966
0.0123369
0.0112106
0.010267
0.00946866
0.00878719
0.00820101
0.00769346
0.107169
0.0691009
0.0476372
0.035029
0.0271566
0.021922
0.0182437
0.0155401
0.0134817
0.0118706
0.0105816
0.00953197
0.00866487
0.00793965
0.0073267
0.00680377
0.00635411
0.00596494
0.0996761
0.0587036
0.0381279
0.0270699
0.0205782
0.016433
0.0135949
0.0115438
0.00999923
0.00879908
0.00784341
0.00706755
0.00642793
0.00589353
0.00544234
0.00505736
0.00472636
0.00444011
0.0901097
0.0473665
0.0287363
0.0196847
0.0146976
0.0116312
0.00957853
0.00811528
0.00702332
0.00617994
0.00551058
0.0049679
0.00452123
0.00414796
0.00383348
0.00356466
0.00333342
0.00313388
0.0779076
0.0353826
0.0198606
0.0131383
0.00966107
0.00759298
0.00623352
0.0052743
0.004564
0.00401882
0.00358701
0.00323599
0.00294752
0.00270526
0.00250288
0.00232854
0.0021779
0.00204891
0.06238
0.0232554
0.0119461
0.00765493
0.00556337
0.00435256
0.00356724
0.00301639
0.00261307
0.00230792
0.00206665
0.00186689
0.00170308
0.00156251
0.0014487
0.00134759
0.00125907
0.00118357
0.0426105
0.0117794
0.0054693
0.00341385
0.00246071
0.00192005
0.00157275
0.00132885
0.00115943
0.00103846
0.000944042
0.000857504
0.000785386
0.00072053
0.000665877
0.000615683
0.000576586
0.000531896
0.0168348
0.00255985
0.00110002
0.000683428
0.000493724
0.000386803
0.000318219
0.000266307
0.000272613
0.00032205
0.000354121
0.00033789
0.000300244
0.000268116
0.000240464
0.000205925
0.000197281
0.000141055
3.99427e-09
5.91167e-07
2.00088e-06
6.28934e-06
1.08025e-05
1.35317e-05
1.32569e-05
1.1792e-05
9.06409e-06
5.94814e-06
3.52418e-06
2.02514e-06
1.41006e-06
1.50306e-06
2.06719e-06
2.5661e-06
2.45452e-06
2.06917e-06
2.54276e-06
8.67656e-06
9.02521e-06
5.5542e-06
6.75146e-06
2.65108e-05
5.67518e-05
7.44249e-05
9.09786e-05
0.000104827
0.000117047
0.000127208
0.000136112
0.000143758
0.000150449
0.000156276
0.000161358
0.000165844
0.000169818
0.000173369
0.000176551
0.00017941
0.000181975
0.000184268
0.000186308
0.000188111
0.000189692
0.000191063
0.000192235
0.000193215
0.000194004
0.000194476
0.000194974
0.000195082
0.000195144
0.000195019
0.00019472
0.000194274
0.000193675
0.000192929
0.000192035
0.000190997
0.000189815
0.000188494
0.000187034
0.000185438
0.00018371
0.00018185
0.00017986
0.000177742
0.000175499
0.000173134
0.000170647
0.000168042
0.000165319
0.000162481
0.000159528
0.000156463
0.000153284
0.000149993
0.000146589
0.00014307
0.000139435
0.000135679
0.000131798
0.000127786
0.000123634
0.000119334
0.000114872
0.000110234
0.0001054
0.000100347
9.50464e-05
8.94711e-05
8.36143e-05
7.75437e-05
7.15331e-05
6.62506e-05
6.24913e-05
6.01493e-05
5.83968e-05
5.67909e-05
5.52147e-05
5.36463e-05
5.20841e-05
5.05297e-05
4.89851e-05
4.74522e-05
4.59336e-05
4.44357e-05
4.29865e-05
4.17495e-05
4.05454e-05
3.93557e-05
3.81831e-05
3.70285e-05
3.58927e-05
3.47764e-05
3.36805e-05
3.26057e-05
3.15525e-05
3.05215e-05
2.9513e-05
2.85274e-05
2.75654e-05
2.66275e-05
2.57136e-05
2.48235e-05
2.39586e-05
2.31465e-05
2.24123e-05
2.16966e-05
2.0996e-05
2.03187e-05
1.96694e-05
1.90344e-05
1.84134e-05
1.78095e-05
1.72235e-05
1.66558e-05
1.61062e-05
1.55742e-05
1.50594e-05
1.45614e-05
1.40799e-05
1.36143e-05
1.31642e-05
1.27294e-05
1.23092e-05
1.19035e-05
1.15117e-05
1.11336e-05
1.07687e-05
1.04167e-05
1.00773e-05
9.75014e-06
9.43488e-06
9.13125e-06
8.83898e-06
8.55783e-06
8.28756e-06
8.02796e-06
7.77884e-06
7.54003e-06
7.31134e-06
7.09261e-06
6.88361e-06
6.6841e-06
6.49376e-06
6.31216e-06
6.13876e-06
5.97279e-06
5.81347e-06
5.65919e-06
5.50954e-06
5.35954e-06
5.21379e-06
5.04775e-06
4.89376e-06
4.64739e-06
4.48921e-06
3.59415e-06
1.68173e-07
6.14244e-06
6.38825e-05
0.000139686
0.00018324
0.000207005
0.000216379
0.000214886
0.000206541
0.000189838
0.000169047
0.000148912
0.000138499
0.000143713
0.000157682
0.000166604
0.000169022
0.000170206
0.000175609
0.000185311
0.000200066
0.000217505
0.000234338
0.000250841
0.000262142
0.000272045
0.000280861
0.000293707
0.000312803
0.000326749
0.000339492
0.000350417
0.000360346
0.000369445
0.000377345
0.000384558
0.000391273
0.000397715
0.000404014
0.000410238
0.00041638
0.000422398
0.00042824
0.000433865
0.000439244
0.000444361
0.000449201
0.000453751
0.000458014
0.000461988
0.000465712
0.000469154
0.000472352
0.000475293
0.000477985
0.000480426
0.00048262
0.000484565
0.000486263
0.000487713
0.000488917
0.000489876
0.000490592
0.000491069
0.000491317
0.000491342
0.000491138
0.000490701
0.000490048
0.000489182
0.00048811
0.000486837
0.000485371
0.000483719
0.000481887
0.000479883
0.000477714
0.000475387
0.000472912
0.000470294
0.000467542
0.000464665
0.000461669
0.000458563
0.000455354
0.000452052
0.000448664
0.000445197
0.000441662
0.000438064
0.000434413
0.000430711
0.000426958
0.000423148
0.000419262
0.000415272
0.000411163
0.000406963
0.000402722
0.000398465
0.0003942
0.000389931
0.000385661
0.000381393
0.000377132
0.00037288
0.00036864
0.000364415
0.000360204
0.000356005
0.00035183
0.000347682
0.000343563
0.000339475
0.00033542
0.000331399
0.000327415
0.000323469
0.000319561
0.000315693
0.000311866
0.000308081
0.000304339
0.000300641
0.000296988
0.00029338
0.000289816
0.000286295
0.000282816
0.000279381
0.00027599
0.000272651
0.000269364
0.000266114
0.0002629
0.000259726
0.000256597
0.000253513
0.000250474
0.000247479
0.000244529
0.000241622
0.000238759
0.000235937
0.000233158
0.000230419
0.000227721
0.000225064
0.000222446
0.000219868
0.000217329
0.000214829
0.000212367
0.000209944
0.000207559
0.000205214
0.000202908
0.000200641
0.000198415
0.000196232
0.000194091
0.000191995
0.000189945
0.000187944
0.000185993
0.000184093
0.000182246
0.000180452
0.00017871
0.000177019
0.000175373
0.000173774
0.000172196
0.000170681
0.000169071
0.000167748
0.000165616
0.0001649
0.000162093
0.000160719
7.68589e-07
4.45413e-05
0.000164288
0.000246523
0.000299858
0.000330179
0.000341218
0.00033835
0.000325518
0.000306244
0.00028647
0.000273748
0.000271488
0.000278167
0.000288523
0.000299353
0.000312116
0.00032907
0.00035067
0.000375832
0.000403222
0.000431578
0.000469793
0.00051618
0.000561835
0.000605992
0.000649094
0.000692768
0.000732109
0.000763399
0.000788408
0.000808233
0.000823948
0.000836417
0.000846422
0.000854738
0.000862068
0.000869054
0.000876235
0.000883967
0.000892355
0.000901279
0.000910497
0.000919773
0.000928931
0.00093785
0.000946454
0.000954696
0.000962538
0.000969954
0.000976919
0.000983405
0.00098941
0.000994925
0.00099995
0.00100448
0.00100852
0.00101207
0.00101513
0.00101769
0.00101976
0.00102133
0.00102242
0.00102296
0.00102312
0.00102283
0.00102204
0.0010208
0.00101911
0.00101699
0.00101446
0.00101151
0.00100818
0.00100446
0.00100038
0.000995948
0.000991181
0.000986093
0.0009807
0.000975015
0.000969055
0.000962835
0.000956369
0.000949673
0.000942762
0.000935651
0.000928354
0.000920886
0.000913261
0.000905491
0.000897589
0.000889565
0.00088143
0.000873191
0.000864857
0.000856437
0.000847943
0.000839392
0.0008308
0.00082218
0.000813543
0.000804897
0.000796252
0.000787614
0.00077899
0.000770388
0.000761815
0.000753275
0.000744775
0.000736319
0.000727915
0.000719567
0.00071128
0.000703057
0.000694903
0.000686821
0.000678813
0.000670884
0.000663035
0.000655268
0.000647587
0.000639991
0.000632485
0.000625069
0.000617744
0.000610512
0.000603371
0.000596324
0.00058937
0.000582511
0.000575746
0.000569076
0.0005625
0.00055601
0.000549608
0.000543294
0.000537071
0.00053094
0.000524899
0.00051895
0.000513091
0.000507321
0.00050164
0.000496045
0.000490536
0.000485112
0.000479772
0.000474513
0.000469337
0.00046424
0.000459223
0.000454284
0.000449421
0.000444635
0.000439923
0.000435284
0.000430718
0.000426224
0.000421799
0.000417444
0.000413155
0.000408933
0.000404774
0.000400678
0.00039664
0.000392658
0.000388729
0.000384845
0.000381002
0.000377189
0.000373396
0.000369608
0.000365799
0.000361952
0.000357993
0.000353952
0.000349471
0.000345077
0.000338586
0.000327127
5.07075e-07
8.12892e-05
0.000212971
0.000309205
0.000372989
0.000410402
0.000425976
0.000426367
0.000416357
0.000402953
0.000394797
0.000393961
0.000403187
0.000420398
0.000443153
0.000470908
0.000504262
0.000543572
0.000588029
0.000650267
0.000724132
0.000803924
0.000888187
0.000958848
0.00102128
0.0010774
0.00112782
0.00117272
0.00121199
0.00124587
0.00127512
0.00130045
0.00132257
0.00134211
0.00135965
0.00137567
0.0013906
0.00140476
0.00141842
0.00143177
0.00144494
0.00145799
0.00147095
0.00148381
0.0014965
0.00150896
0.00152109
0.0015328
0.00154399
0.00155459
0.00156454
0.00157382
0.00158239
0.00159025
0.00159739
0.0016038
0.00160947
0.00161441
0.00161861
0.00162207
0.00162479
0.00162677
0.00162793
0.00162837
0.00162824
0.00162733
0.0016257
0.00162338
0.00162038
0.00161673
0.00161243
0.00160751
0.00160199
0.00159589
0.00158923
0.00158204
0.00157433
0.00156613
0.00155747
0.00154836
0.00153883
0.0015289
0.0015186
0.00150794
0.00149696
0.00148567
0.0014741
0.00146226
0.00145018
0.00143788
0.00142538
0.0014127
0.00139985
0.00138685
0.00137372
0.00136047
0.00134712
0.00133369
0.0013202
0.00130666
0.0012931
0.00127953
0.00126596
0.0012524
0.00123886
0.00122536
0.0012119
0.0011985
0.00118516
0.00117189
0.0011587
0.0011456
0.00113259
0.00111968
0.00110688
0.0010942
0.00108163
0.00106918
0.00105685
0.00104465
0.00103259
0.00102066
0.00100886
0.000997209
0.000985696
0.000974326
0.000963099
0.000952017
0.00094108
0.000930289
0.000919645
0.000909146
0.000898791
0.000888575
0.000878498
0.00086856
0.000858762
0.000849106
0.00083959
0.000830215
0.000820978
0.00081188
0.000802917
0.000794089
0.000785394
0.00077683
0.000768395
0.000760088
0.000751906
0.000743849
0.000735913
0.000728099
0.000720402
0.000712823
0.000705358
0.000698006
0.000690766
0.000683635
0.000676611
0.000669692
0.000662875
0.000656158
0.000649539
0.000643012
0.000636575
0.000630223
0.000623949
0.000617746
0.000611604
0.00060551
0.000599449
0.0005934
0.000587332
0.000581209
0.000574965
0.000568547
0.00056177
0.000554578
0.000546335
0.000530144
1.49343e-06
0.000102058
0.000235124
0.00035506
0.000433977
0.000481486
0.000505124
0.000513594
0.000515169
0.000516157
0.000523037
0.000539199
0.000565257
0.000600243
0.00064337
0.000694655
0.00075474
0.00083816
0.000933834
0.00103005
0.00111906
0.00120346
0.0012828
0.0013555
0.00142227
0.00148368
0.00154014
0.001592
0.0016396
0.00168337
0.0017238
0.00176136
0.0017965
0.00182958
0.00186091
0.00189076
0.0019193
0.00194669
0.00197301
0.00199834
0.0020227
0.00204611
0.00206855
0.00209002
0.00211049
0.00212992
0.00214829
0.00216556
0.00218172
0.00219674
0.00221062
0.00222334
0.00223494
0.00224541
0.00225478
0.00226306
0.00227028
0.00227644
0.00228157
0.00228567
0.00228877
0.00229082
0.00229174
0.00229183
0.00229095
0.00228907
0.00228624
0.00228247
0.00227778
0.0022722
0.00226575
0.00225846
0.00225037
0.00224149
0.00223186
0.0022215
0.00221046
0.00219876
0.00218643
0.0021735
0.00216
0.00214597
0.00213143
0.00211642
0.00210097
0.00208511
0.00206886
0.00205227
0.00203535
0.00201813
0.00200065
0.00198292
0.00196498
0.00194684
0.00192853
0.00191008
0.0018915
0.00187282
0.00185406
0.00183525
0.0018164
0.00179754
0.00177869
0.00175985
0.00174105
0.0017223
0.00170361
0.001685
0.00166647
0.00164805
0.00162974
0.00161155
0.00159349
0.00157557
0.0015578
0.00154018
0.00152272
0.00150543
0.00148831
0.00147136
0.0014546
0.00143802
0.00142163
0.00140543
0.00138943
0.00137362
0.001358
0.00134258
0.00132737
0.00131235
0.00129753
0.00128291
0.00126849
0.00125426
0.00124022
0.00122637
0.00121272
0.00119925
0.00118598
0.00117291
0.00116002
0.00114731
0.0011348
0.00112246
0.00111031
0.00109833
0.00108653
0.00107491
0.00106345
0.00105217
0.00104105
0.00103009
0.0010193
0.00100866
0.000998176
0.000987847
0.000977668
0.000967637
0.000957751
0.000948006
0.0009384
0.000928929
0.000919589
0.000910376
0.000901284
0.000892307
0.000883438
0.000874667
0.000865984
0.000857372
0.000848813
0.000840283
0.000831747
0.000823161
0.000814458
0.000805567
0.000796324
0.00078658
0.000776611
0.000756791
2.27168e-06
0.000118202
0.000256369
0.000390153
0.000487242
0.000549161
0.000587025
0.00061049
0.00062825
0.000647575
0.000673719
0.000709332
0.00075515
0.000811446
0.000878623
0.000969127
0.00107426
0.00117598
0.0012752
0.00137071
0.00146141
0.00154741
0.00162865
0.00170511
0.00177707
0.00184489
0.00190891
0.00196946
0.00202687
0.00208148
0.0021336
0.00218353
0.00223151
0.00227776
0.00232242
0.00236564
0.00240749
0.00244802
0.00248728
0.00252527
0.00256198
0.0025974
0.00263149
0.00266422
0.00269556
0.00272547
0.00275389
0.0027808
0.00280616
0.00282993
0.00285209
0.00287261
0.00289147
0.00290868
0.00292421
0.00293808
0.00295028
0.00296082
0.00296971
0.00297698
0.00298263
0.00298671
0.00298914
0.00299004
0.00298958
0.00298761
0.00298426
0.00297956
0.00297356
0.00296631
0.00295786
0.00294827
0.00293758
0.00292585
0.00291313
0.00289947
0.00288491
0.00286949
0.00285327
0.00283628
0.00281857
0.00280017
0.00278114
0.00276151
0.00274132
0.00272061
0.00269942
0.00267779
0.00265576
0.00263336
0.00261063
0.0025876
0.0025643
0.00254077
0.00251704
0.00249313
0.00246907
0.0024449
0.00242064
0.00239632
0.00237196
0.00234758
0.00232322
0.00229888
0.0022746
0.00225038
0.00222625
0.00220222
0.0021783
0.00215452
0.00213088
0.0021074
0.00208408
0.00206095
0.002038
0.00201526
0.00199271
0.00197038
0.00194827
0.00192639
0.00190474
0.00188332
0.00186214
0.00184121
0.00182052
0.00180008
0.00177989
0.00175995
0.00174026
0.00172083
0.00170164
0.00168271
0.00166403
0.0016456
0.00162741
0.00160947
0.00159177
0.00157432
0.00155711
0.00154013
0.0015234
0.0015069
0.00149064
0.00147461
0.00145881
0.00144323
0.00142787
0.00141274
0.00139781
0.00138311
0.0013686
0.00135431
0.00134022
0.00132632
0.00131263
0.00129912
0.0012858
0.00127267
0.00125972
0.00124695
0.00123435
0.00122193
0.00120967
0.00119757
0.00118562
0.00117382
0.00116216
0.00115062
0.00113921
0.00112789
0.00111665
0.00110546
0.00109428
0.00108308
0.00107177
0.0010603
0.00104848
0.00103626
0.00102408
0.0010016
2.80553e-06
0.000126821
0.000269279
0.000407726
0.000526501
0.000608038
0.000664244
0.000706254
0.000743313
0.000782686
0.000829429
0.000886493
0.000955502
0.00104783
0.00115483
0.00126144
0.00136755
0.00147092
0.00157099
0.00166735
0.00175974
0.00184818
0.00193275
0.0020136
0.00209099
0.00216519
0.00223647
0.0023051
0.00237134
0.00243541
0.00249754
0.00255789
0.00261663
0.00267385
0.00272966
0.00278411
0.00283723
0.00288902
0.0029395
0.00298864
0.00303641
0.00308277
0.00312768
0.00317109
0.00321294
0.0032532
0.00329179
0.00332867
0.0033638
0.00339711
0.00342858
0.00345816
0.00348581
0.00351152
0.00353524
0.00355696
0.00357667
0.00359435
0.00361001
0.00362363
0.00363523
0.00364481
0.00365239
0.003658
0.00366166
0.00366328
0.00366319
0.0036612
0.00365743
0.00365191
0.0036447
0.00363586
0.00362544
0.00361351
0.00360013
0.00358536
0.00356927
0.00355193
0.0035334
0.00351375
0.00349305
0.00347136
0.00344876
0.0034253
0.00340105
0.00337607
0.00335043
0.00332417
0.00329737
0.00327006
0.00324231
0.00321415
0.00318565
0.00315683
0.00312775
0.00309844
0.00306894
0.00303929
0.00300952
0.00297967
0.00294977
0.00291985
0.00288994
0.00286006
0.00283023
0.00280049
0.00277085
0.00274133
0.00271195
0.00268273
0.00265368
0.00262482
0.00259617
0.00256774
0.00253953
0.00251156
0.00248384
0.00245638
0.00242918
0.00240226
0.00237561
0.00234925
0.00232318
0.00229741
0.00227192
0.00224674
0.00222186
0.00219728
0.00217301
0.00214904
0.00212538
0.00210201
0.00207895
0.00205619
0.00203372
0.00201155
0.00198968
0.0019681
0.00194681
0.00192581
0.00190509
0.00188466
0.00186451
0.00184464
0.00182504
0.00180571
0.00178665
0.00176785
0.00174931
0.00173103
0.00171299
0.00169521
0.00167766
0.00166036
0.00164329
0.00162645
0.00160984
0.00159345
0.00157728
0.00156133
0.00154559
0.00153005
0.00151471
0.00149957
0.00148462
0.00146984
0.00145524
0.00144079
0.00142649
0.00141232
0.00139826
0.00138428
0.00137033
0.00135638
0.00134236
0.00132819
0.00131371
0.00129895
0.00128394
0.00125969
2.94241e-06
0.000128734
0.000270668
0.000407306
0.000538107
0.000641777
0.000719041
0.000780495
0.0008363
0.000894159
0.000961766
0.00105373
0.00116337
0.0012851
0.00140068
0.00151196
0.00161979
0.00172437
0.00182562
0.0019235
0.00201799
0.0021092
0.00219725
0.00228235
0.0023647
0.00244454
0.00252208
0.00259753
0.00267109
0.00274294
0.0028132
0.002882
0.00294943
0.00301556
0.00308042
0.00314403
0.00320641
0.00326752
0.00332734
0.00338584
0.00344296
0.00349865
0.00355286
0.00360551
0.00365654
0.00370589
0.00375349
0.00379929
0.00384321
0.0038852
0.0039252
0.00396317
0.00399905
0.00403281
0.0040644
0.0040938
0.00412098
0.00414591
0.00416858
0.00418898
0.00420711
0.00422296
0.00423654
0.00424787
0.00425696
0.00426383
0.00426855
0.004271
0.00427143
0.00426979
0.00426612
0.00426048
0.00425291
0.00424348
0.00423225
0.00421928
0.00420463
0.00418837
0.00417058
0.00415131
0.00413065
0.00410865
0.00408541
0.00406098
0.00403544
0.00400886
0.00398131
0.00395287
0.0039236
0.00389357
0.00386284
0.00383148
0.00379955
0.0037671
0.0037342
0.00370091
0.00366726
0.00363333
0.00359915
0.00356477
0.00353024
0.00349561
0.0034609
0.00342617
0.00339143
0.00335673
0.0033221
0.00328756
0.00325314
0.00321887
0.00318477
0.00315085
0.00311715
0.00308367
0.00305043
0.00301745
0.00298474
0.00295231
0.00292017
0.00288834
0.00285682
0.00282562
0.00279474
0.00276419
0.00273398
0.00270411
0.00267458
0.00264539
0.00261656
0.00258807
0.00255992
0.00253213
0.00250468
0.00247758
0.00245082
0.0024244
0.00239831
0.00237257
0.00234716
0.00232209
0.00229735
0.00227293
0.00224884
0.00222507
0.00220162
0.00217848
0.00215565
0.00213313
0.0021109
0.00208897
0.00206734
0.00204599
0.00202492
0.00200413
0.00198362
0.00196337
0.00194339
0.00192367
0.00190421
0.001885
0.00186604
0.00184732
0.00182883
0.00181057
0.00179254
0.00177472
0.0017571
0.00173967
0.00172243
0.00170534
0.00168838
0.00167154
0.00165476
0.00163799
0.00162118
0.00160425
0.00158705
0.00156965
0.00155172
0.00152558
2.75935e-06
0.000125268
0.000264042
0.000395767
0.000520538
0.00063307
0.000727058
0.000808265
0.000891331
0.000986681
0.00109593
0.00122063
0.00135704
0.00148457
0.00160487
0.00171989
0.00183061
0.00193738
0.00204054
0.00214042
0.00223724
0.00233121
0.00242253
0.00251139
0.00259801
0.00268259
0.00276532
0.00284637
0.00292589
0.00300402
0.00308086
0.00315649
0.00323096
0.00330432
0.00337657
0.0034477
0.0035177
0.00358652
0.00365413
0.00372046
0.00378544
0.00384901
0.0039111
0.00397162
0.0040305
0.00408766
0.00414302
0.00419651
0.00424806
0.00429759
0.00434505
0.00439036
0.00443348
0.00447436
0.00451294
0.00454918
0.00458306
0.00461454
0.0046436
0.00467023
0.00469441
0.00471614
0.00473541
0.00475225
0.00476665
0.00477864
0.00478824
0.00479548
0.00480041
0.00480298
0.00480336
0.00480155
0.00479758
0.00479152
0.00478342
0.00477334
0.00476134
0.00474748
0.00473184
0.00471448
0.00469548
0.00467489
0.0046528
0.00462927
0.00460439
0.00457821
0.00455083
0.0045223
0.0044927
0.00446211
0.00443058
0.0043982
0.00436502
0.00433112
0.00429655
0.00426138
0.00422567
0.00418948
0.00415287
0.0041159
0.00407861
0.00404106
0.00400331
0.00396538
0.00392734
0.00388922
0.00385106
0.00381289
0.00377476
0.0037367
0.00369873
0.00366088
0.00362319
0.00358567
0.00354836
0.00351126
0.00347441
0.00343781
0.00340148
0.00336545
0.00332971
0.00329429
0.0032592
0.00322443
0.00319001
0.00315594
0.00312222
0.00308886
0.00305587
0.00302324
0.00299098
0.00295909
0.00292758
0.00289643
0.00286566
0.00283525
0.00280522
0.00277555
0.00274625
0.00271732
0.00268875
0.00266054
0.00263268
0.00260518
0.00257804
0.00255124
0.00252478
0.00249866
0.00247288
0.00244743
0.0024223
0.0023975
0.00237301
0.00234884
0.00232497
0.00230141
0.00227815
0.00225519
0.00223251
0.00221012
0.00218801
0.00216618
0.00214461
0.00212331
0.00210226
0.00208145
0.00206089
0.00204054
0.0020204
0.00200045
0.00198066
0.001961
0.00194143
0.0019219
0.00190235
0.00188269
0.00186281
0.00184275
0.001822
0.00179367
2.34431e-06
0.000117988
0.000252846
0.000380971
0.000503943
0.000620479
0.000731373
0.000840488
0.000955421
0.00108133
0.00121945
0.00136923
0.00151155
0.00164354
0.00176781
0.00188624
0.00199996
0.00210961
0.00221558
0.00231807
0.00241747
0.00251418
0.00260849
0.00270064
0.00279089
0.00287941
0.0029664
0.00305202
0.0031364
0.00321964
0.00330183
0.00338303
0.00346327
0.00354256
0.00362091
0.00369827
0.00377462
0.0038499
0.00392404
0.00399698
0.00406862
0.00413889
0.0042077
0.00427495
0.00434056
0.00440444
0.00446649
0.00452663
0.00458478
0.00464086
0.0046948
0.00474651
0.00479595
0.00484305
0.00488776
0.00493002
0.00496981
0.00500709
0.00504182
0.00507399
0.00510358
0.00513059
0.00515501
0.00517685
0.00519611
0.00521282
0.00522698
0.00523864
0.00524781
0.00525453
0.00525885
0.00526079
0.00526045
0.00525784
0.00525302
0.00524606
0.005237
0.00522593
0.00521288
0.00519795
0.00518119
0.00516267
0.00514246
0.00512064
0.00509728
0.00507246
0.00504623
0.00501869
0.00498989
0.00495991
0.00492883
0.00489671
0.00486361
0.00482961
0.00479478
0.00475918
0.00472287
0.00468591
0.00464838
0.00461032
0.0045718
0.00453287
0.00449359
0.004454
0.00441416
0.00437411
0.00433391
0.00429358
0.00425317
0.00421273
0.00417228
0.00413186
0.00409151
0.00405125
0.00401111
0.00397112
0.00393131
0.0038917
0.0038523
0.00381314
0.00377424
0.00373562
0.00369728
0.00365924
0.00362151
0.00358411
0.00354705
0.00351033
0.00347395
0.00343794
0.00340229
0.003367
0.00333209
0.00329754
0.00326337
0.00322958
0.00319616
0.00316312
0.00313046
0.00309817
0.00306626
0.00303472
0.00300356
0.00297277
0.00294235
0.0029123
0.00288261
0.00285327
0.0028243
0.00279568
0.0027674
0.00273947
0.00271189
0.00268464
0.00265772
0.00263113
0.00260487
0.00257893
0.0025533
0.00252799
0.00250298
0.00247827
0.00245386
0.00242974
0.00240589
0.00238232
0.00235901
0.00233595
0.00231312
0.0022905
0.00226807
0.00224579
0.00222362
0.00220151
0.0021794
0.0021572
0.0021348
0.00211222
0.00208892
0.00205826
1.92683e-06
0.000110307
0.000242561
0.000369906
0.000495647
0.000620079
0.000745007
0.000874502
0.00101187
0.00115921
0.00131664
0.00147844
0.00162626
0.00176271
0.00189082
0.00201258
0.00212928
0.00224172
0.00235046
0.00245587
0.00255826
0.00265782
0.00275499
0.00285013
0.00294352
0.00303539
0.00312595
0.00321536
0.00330374
0.0033912
0.00347782
0.00356363
0.00364866
0.00373291
0.00381635
0.00389896
0.00398066
0.0040614
0.0041411
0.00421966
0.00429699
0.00437301
0.00444759
0.00452065
0.00459207
0.00466176
0.00472961
0.00479554
0.00485944
0.00492123
0.00498082
0.00503814
0.00509312
0.00514569
0.00519579
0.00524337
0.00528839
0.0053308
0.00537058
0.00540769
0.00544213
0.00547388
0.00550293
0.00552929
0.00555296
0.00557397
0.00559232
0.00560804
0.00562116
0.00563172
0.00563975
0.00564529
0.0056484
0.00564912
0.00564752
0.00564364
0.00563755
0.0056293
0.00561896
0.0056066
0.00559227
0.00557606
0.00555803
0.00553825
0.00551679
0.00549373
0.00546914
0.00544309
0.00541565
0.0053869
0.00535691
0.00532573
0.00529345
0.00526014
0.00522585
0.00519066
0.00515463
0.00511782
0.0050803
0.00504213
0.00500337
0.00496407
0.0049243
0.00488411
0.00484354
0.00480265
0.00476149
0.00472009
0.00467852
0.0046368
0.00459498
0.00455309
0.00451118
0.00446927
0.0044274
0.00438561
0.0043439
0.00430233
0.0042609
0.00421965
0.00417859
0.00413775
0.00409715
0.00405679
0.0040167
0.0039769
0.00393739
0.00389818
0.00385929
0.00382073
0.00378251
0.00374462
0.00370709
0.00366991
0.00363308
0.00359662
0.00356052
0.00352479
0.00348943
0.00345444
0.00341982
0.00338557
0.0033517
0.0033182
0.00328507
0.00325231
0.00321991
0.00318789
0.00315622
0.00312492
0.00309397
0.00306338
0.00303315
0.00300326
0.00297372
0.00294452
0.00291565
0.00288713
0.00285894
0.00283107
0.00280353
0.0027763
0.00274939
0.00272278
0.00269648
0.00267046
0.00264473
0.00261926
0.00259404
0.00256906
0.00254428
0.00251967
0.00249519
0.00247079
0.0024464
0.00242195
0.00239732
0.00237252
0.00234702
0.0023142
1.54344e-06
0.000102166
0.00023207
0.000359051
0.000487718
0.000618987
0.00075552
0.000899235
0.00105186
0.00121392
0.00138595
0.00155193
0.00170372
0.00184404
0.00197565
0.00210053
0.00222004
0.00233509
0.00244636
0.00255434
0.00265942
0.0027619
0.00286204
0.00296005
0.00305633
0.00315119
0.00324486
0.00333752
0.00342933
0.00352038
0.00361074
0.00370047
0.00378957
0.00387803
0.00396583
0.00405291
0.0041392
0.00422462
0.00430909
0.0043925
0.00447475
0.00455572
0.00463531
0.00471339
0.00478987
0.00486461
0.00493752
0.00500849
0.00507742
0.00514421
0.00520876
0.00527101
0.00533086
0.00538826
0.00544313
0.00549542
0.00554507
0.00559206
0.00563633
0.00567788
0.00571666
0.00575268
0.00578592
0.00581638
0.00584407
0.00586901
0.0058912
0.00591068
0.00592747
0.00594161
0.00595312
0.00596206
0.00596847
0.00597239
0.00597388
0.00597301
0.00596984
0.00596441
0.00595679
0.00594704
0.00593523
0.00592143
0.00590571
0.00588813
0.00586878
0.00584772
0.00582502
0.00580077
0.00577502
0.00574785
0.00571933
0.00568952
0.00565851
0.00562635
0.00559311
0.00555886
0.00552367
0.00548759
0.0054507
0.00541305
0.00537471
0.00533573
0.00529617
0.00525609
0.00521553
0.00517455
0.0051332
0.00509153
0.00504958
0.0050074
0.00496502
0.00492249
0.00487985
0.00483713
0.00479437
0.0047516
0.00470886
0.00466616
0.00462355
0.00458104
0.00453866
0.00449643
0.00445438
0.00441253
0.00437089
0.00432947
0.00428831
0.0042474
0.00420677
0.00416643
0.00412638
0.00408664