/*--------------------------------*- C++ -*----------------------------------*\
| =========                 |                                                 |
| \\      /  F ield         | OpenFOAM: The Open Source CFD Toolbox           |
|  \\    /   O peration     | Version:  v2012                                 |
|   \\  /    A nd           | Website:  www.openfoam.com                      |
|    \\/     M anipulation  |                                                 |
\*---------------------------------------------------------------------------*/
FoamFile
{
    version     2.0;
    format      ascii;
    class       volScalarField;
    location    "1800";
    object      nuTilda;
}
// * * * * * * * * * * * * * * * * * * * * * * * * * * * * * * * * * * * * * //

dimensions      [0 2 -1 0 0 0 0];


internalField   nonuniform List<scalar> 
12225
(
0.0122671
0.00158833
0.000666932
0.0004122
0.000298016
0.000234159
0.000195366
0.000157556
0.000177072
0.000222685
0.000230385
0.000221271
0.000203463
0.000178139
0.000172628
0.000158585
0.000147171
0.000136881
0.0323823
0.00744532
0.00330641
0.00204337
0.00146819
0.00114457
0.000939067
0.000785446
0.000691126
0.000627796
0.000570644
0.000520035
0.000476783
0.00043743
0.000407123
0.00037478
0.000350014
0.000324456
0.0490123
0.01515
0.00728196
0.00457856
0.00330642
0.00258052
0.00211335
0.00178199
0.00154689
0.00137269
0.0012317
0.00111557
0.00101869
0.000936511
0.000867168
0.000804844
0.000754192
0.00070172
0.063054
0.0237783
0.0122894
0.00788815
0.00573398
0.00448498
0.00367443
0.00310422
0.00268721
0.00237002
0.00211798
0.00191325
0.00174413
0.00160235
0.00148258
0.00137879
0.00129128
0.00120476
0.074932
0.0328517
0.0181452
0.0119262
0.00874549
0.00686413
0.00563087
0.00476131
0.0041187
0.00362573
0.00323518
0.00291878
0.00265804
0.0024401
0.00225603
0.0020984
0.00196343
0.0018399
0.0849536
0.0420208
0.0246655
0.0166359
0.0123325
0.00972588
0.00799541
0.00676741
0.00585404
0.00515005
0.00459192
0.00413984
0.00376745
0.00345638
0.00319355
0.0029691
0.00277617
0.00260661
0.0933822
0.0510219
0.0316642
0.0219415
0.016474
0.0130717
0.0107779
0.00913539
0.00790598
0.00695437
0.00619833
0.00558533
0.0050801
0.00465803
0.00430138
0.00399704
0.00373536
0.00350916
0.0993794
0.0583363
0.0378386
0.0268568
0.0204171
0.0163053
0.0134892
0.011453
0.00991905
0.00872671
0.00777697
0.0070057
0.00636944
0.00583763
0.00538817
0.00500469
0.00467517
0.00439184
0.104023
0.0645454
0.0433804
0.0314239
0.0241571
0.0194092
0.0161097
0.0137018
0.0118767
0.0104523
0.00931473
0.0083894
0.00762525
0.00698616
0.00644587
0.00598492
0.005589
0.00524917
0.108368
0.0708939
0.0493757
0.0365496
0.0284517
0.0230231
0.0191863
0.0163548
0.0141927
0.0124969
0.0111382
0.0100306
0.00911457
0.00834785
0.00769937
0.00714608
0.00667098
0.00626329
0.112368
0.0772557
0.0557282
0.0421918
0.0332976
0.0271652
0.0227468
0.0194433
0.0168984
0.0148904
0.013275
0.0119546
0.0108607
0.00994396
0.00916816
0.00850608
0.0079376
0.0074494
0.115994
0.0834975
0.0623054
0.0482612
0.0386474
0.0318167
0.026789
0.0229739
0.0200047
0.0176453
0.0157379
0.0141737
0.012875
0.0117851
0.010862
0.0100738
0.0093969
0.00881485
0.119234
0.0894856
0.0689377
0.0546109
0.0443919
0.0369007
0.0312597
0.0269089
0.0234837
0.02074
0.0185097
0.0166735
0.015145
0.0138601
0.0127705
0.0118397
0.0110399
0.010351
0.122086
0.095084
0.075415
0.0610223
0.0503361
0.0422535
0.0360231
0.0311353
0.0272402
0.0240931
0.0215191
0.0193909
0.0176141
0.0161175
0.0148467
0.0137601
0.0128258
0.0120198
0.124546
0.100135
0.0814619
0.0671726
0.056158
0.047577
0.0408126
0.0354174
0.031066
0.0275197
0.0246013
0.0221778
0.0201482
0.018435
0.0169783
0.0157315
0.0146584
0.0137312
0.126578
0.104396
0.0866605
0.0725515
0.0613228
0.0523526
0.0451453
0.0393148
0.0345631
0.0306611
0.0274325
0.024741
0.0224806
0.020569
0.0189413
0.0175468
0.0163455
0.0153062
0.128011
0.107322
0.0902141
0.0762353
0.0648743
0.0556509
0.0481493
0.0420254
0.0370012
0.0328553
0.0294126
0.0265352
0.0241143
0.0220643
0.0203171
0.0188191
0.0175275
0.0164083
0.128006
0.107313
0.0902048
0.0762269
0.0648674
0.0556454
0.048145
0.0420221
0.0369988
0.0328537
0.0294117
0.0265349
0.0241147
0.0220651
0.0203184
0.0188205
0.0175286
0.0164082
0.126509
0.104255
0.0864922
0.0723807
0.0611613
0.052205
0.0450128
0.0391967
0.0344584
0.0305685
0.0273506
0.0246684
0.0224163
0.0205118
0.0188902
0.0175006
0.0163023
0.015263
0.124267
0.0995604
0.0807712
0.0664676
0.0554886
0.0469631
0.0402594
0.0349227
0.0306248
0.0271258
0.0242487
0.0218611
0.0198625
0.0181762
0.0167425
0.0155151
0.0144574
0.0135404
0.12136
0.0936399
0.0737261
0.0593348
0.0487592
0.0408248
0.0347467
0.0300003
0.0262308
0.0231928
0.0207127
0.018665
0.0169572
0.0155197
0.0142998
0.0132566
0.0123582
0.0115797
0.117686
0.0865903
0.0656967
0.0514791
0.0415374
0.0343608
0.0290183
0.0249322
0.0217348
0.0191848
0.0171184
0.0154211
0.0140105
0.0128262
0.0118228
0.0109656
0.0102279
0.00958884
0.11305
0.0784122
0.056921
0.0432687
0.0342296
0.0279652
0.0234365
0.0200435
0.0174263
0.0153598
0.0136967
0.012337
0.0112107
0.0102671
0.00946864
0.00878715
0.00820095
0.00769338
0.107169
0.0691009
0.0476372
0.035029
0.0271566
0.021922
0.0182437
0.0155401
0.0134818
0.0118708
0.0105819
0.00953231
0.00866515
0.00793988
0.00732684
0.00680388
0.00635417
0.00596493
0.0996761
0.0587036
0.0381279
0.0270699
0.0205782
0.0164329
0.0135949
0.0115437
0.00999935
0.00879953
0.00784423
0.00706854
0.00642881
0.0058944
0.00544292
0.00505791
0.00472681
0.00444035
0.0901097
0.0473665
0.0287363
0.0196847
0.0146976
0.0116311
0.0095785
0.00811521
0.00702351
0.00618081
0.00551236
0.00497026
0.00452345
0.00415044
0.00383509
0.00356631
0.00333502
0.00313489
0.0779076
0.0353826
0.0198606
0.0131383
0.00966106
0.00759296
0.0062335
0.00527412
0.00456426
0.00402039
0.00359045
0.00324086
0.00295211
0.0027111
0.00250631
0.00233223
0.00218205
0.00205172
0.06238
0.0232554
0.0119461
0.00765493
0.00556338
0.00435255
0.00356723
0.00301619
0.00261336
0.00231041
0.00207211
0.00187484
0.00171025
0.00157305
0.00145375
0.00135351
0.00126603
0.00118897
0.0426105
0.0117794
0.00546931
0.00341388
0.00246076
0.00192014
0.0015728
0.00132962
0.00115856
0.00104155
0.000949967
0.000865456
0.000792696
0.000730719
0.0006726
0.00062366
0.000579004
0.00054339
0.0168348
0.0025599
0.00110031
0.000684193
0.00049518
0.00038916
0.000321436
0.000273105
0.000272242
0.000339103
0.000377298
0.00035636
0.000325306
0.00028884
0.000270306
0.000245149
0.000203679
0.000243517
3.70914e-06
1.38329e-05
2.56092e-05
3.82435e-05
4.60372e-05
4.98336e-05
5.02191e-05
4.77924e-05
4.45837e-05
3.94348e-05
3.40892e-05
2.9361e-05
2.6752e-05
2.73207e-05
2.96395e-05
3.13299e-05
3.11014e-05
2.80742e-05
2.28049e-05
1.91809e-05
1.96935e-05
2.60195e-05
3.89516e-05
6.51462e-05
8.76116e-05
0.000101032
0.000113665
0.000124632
0.00013456
0.000143028
0.000150584
0.000157175
0.000163012
0.000168145
0.00017266
0.000176672
0.000180247
0.000183456
0.000186344
0.000188948
0.000191291
0.000193392
0.000195265
0.000196923
0.000198379
0.000199644
0.000200725
0.000201629
0.000202354
0.000202895
0.000203138
0.00020337
0.000203415
0.000203296
0.000203018
0.000202602
0.000202046
0.000201352
0.000200523
0.00019956
0.000198467
0.000197245
0.000195897
0.000194426
0.000192835
0.000191127
0.000189303
0.000187366
0.00018532
0.000183167
0.000180911
0.000178555
0.000176101
0.000173552
0.00017091
0.000168178
0.000165357
0.000162449
0.000159456
0.000156378
0.000153216
0.00014997
0.000146641
0.000143226
0.000139724
0.000136131
0.000132439
0.000128639
0.000124719
0.000120663
0.000116455
0.000112079
0.000107535
0.000102879
9.83213e-05
9.43571e-05
9.15586e-05
8.98166e-05
8.85062e-05
8.73023e-05
8.61191e-05
8.49403e-05
8.37644e-05
8.2592e-05
8.1424e-05
8.02614e-05
7.91056e-05
7.79608e-05
7.68484e-05
7.58973e-05
7.4963e-05
7.40353e-05
7.31156e-05
7.22041e-05
7.13013e-05
7.04075e-05
6.9523e-05
6.86483e-05
6.77836e-05
6.6929e-05
6.60847e-05
6.5251e-05
6.44283e-05
6.36169e-05
6.28168e-05
6.20278e-05
6.12511e-05
6.05142e-05
5.98373e-05
5.9169e-05
5.85059e-05
5.78563e-05
5.72249e-05
5.65983e-05
5.59768e-05
5.53633e-05
5.47589e-05
5.41642e-05
5.35792e-05
5.30037e-05
5.24376e-05
5.18808e-05
5.13331e-05
5.07945e-05
5.02648e-05
4.97438e-05
4.92316e-05
4.8728e-05
4.82329e-05
4.77462e-05
4.72678e-05
4.67977e-05
4.63358e-05
4.58822e-05
4.54367e-05
4.49996e-05
4.45707e-05
4.41502e-05
4.37383e-05
4.33351e-05
4.29408e-05
4.25556e-05
4.21799e-05
4.18138e-05
4.14576e-05
4.11114e-05
4.07751e-05
4.04486e-05
4.01314e-05
3.98226e-05
3.95208e-05
3.92244e-05
3.89295e-05
3.8636e-05
3.83249e-05
3.80278e-05
3.75986e-05
3.72925e-05
3.63614e-05
3.4842e-05
5.8819e-06
3.99432e-05
9.09009e-05
0.000151923
0.000191204
0.000213572
0.000222527
0.000221113
0.000213148
0.000197492
0.000178394
0.000160495
0.000151695
0.000156434
0.000168611
0.000176133
0.000178033
0.000178819
0.000183785
0.000192713
0.000207738
0.000224923
0.000241165
0.000256468
0.000267368
0.000276831
0.000285411
0.000298234
0.000316684
0.000330307
0.000342752
0.00035346
0.000363213
0.000372141
0.000379913
0.000387016
0.000393637
0.000399996
0.000406221
0.000412374
0.000418449
0.000424405
0.000430188
0.000435758
0.000441087
0.000446158
0.000450956
0.000455468
0.000459696
0.000463645
0.000467324
0.000470754
0.000473925
0.000476846
0.000479519
0.000481944
0.000484122
0.000486054
0.00048774
0.000489181
0.000490377
0.000491329
0.00049204
0.000492513
0.000492759
0.000492783
0.000492579
0.000492143
0.000491493
0.000490632
0.000489565
0.000488299
0.000486841
0.000485198
0.000483376
0.000481384
0.000479227
0.000476914
0.000474452
0.000471849
0.000469113
0.000466252
0.000463274
0.000460188
0.000457003
0.000453725
0.000450363
0.000446926
0.00044342
0.000439854
0.000436233
0.000432563
0.000428844
0.000425067
0.000421215
0.000417261
0.00041319
0.000409031
0.000404834
0.000400622
0.000396404
0.000392184
0.000387964
0.000383748
0.00037954
0.000375343
0.00037116
0.000366993
0.000362843
0.000358706
0.000354595
0.000350513
0.000346462
0.000342443
0.00033846
0.000334513
0.000330604
0.000326735
0.000322907
0.00031912
0.000315376
0.000311676
0.000308021
0.000304412
0.00030085
0.000297335
0.000293865
0.000290441
0.000287061
0.000283727
0.000280439
0.000277204
0.000274023
0.000270881
0.000267778
0.000264717
0.000261703
0.000258735
0.000255815
0.00025294
0.000250112
0.000247329
0.00024459
0.000241896
0.000239245
0.000236637
0.000234072
0.000231548
0.000229067
0.000226626
0.000224226
0.000221866
0.000219546
0.000217267
0.000215027
0.000212828
0.000210669
0.000208551
0.000206475
0.000204442
0.000202452
0.000200508
0.000198611
0.000196763
0.000194964
0.000193217
0.000191522
0.000189878
0.000188286
0.000186744
0.000185246
0.000183793
0.000182365
0.00018099
0.000179548
0.000178331
0.00017649
0.000175952
0.000173184
0.000171889
1.28755e-05
7.44314e-05
0.000173977
0.000251168
0.000302739
0.000332286
0.000342977
0.000340013
0.000327258
0.000308326
0.000289126
0.000277094
0.000275205
0.000281965
0.000292208
0.000302965
0.00031573
0.000332551
0.000353834
0.000378838
0.00040595
0.000433898
0.000472888
0.000518795
0.000564187
0.000608106
0.000651039
0.000694581
0.000733565
0.000764584
0.00078938
0.000809044
0.000824639
0.000837018
0.00084696
0.000855235
0.00086254
0.000869514
0.000876689
0.000884417
0.000892801
0.000901717
0.000910924
0.000920188
0.000929332
0.000938238
0.00094683
0.000955061
0.000962892
0.000970299
0.000977252
0.000983733
0.000989729
0.000995237
0.00100026
0.00100478
0.00100882
0.00101236
0.00101541
0.00101797
0.00102004
0.00102161
0.00102269
0.00102323
0.00102339
0.0010231
0.00102231
0.00102106
0.00101938
0.00101726
0.00101472
0.00101178
0.00100844
0.00100473
0.00100065
0.000996215
0.00099145
0.000986363
0.000980971
0.000975289
0.000969331
0.000963112
0.00095665
0.000949957
0.00094305
0.000935944
0.000928653
0.000921191
0.000913572
0.000905808
0.000897913
0.000889896
0.000881768
0.000873537
0.00086521
0.000856798
0.000848314
0.000839772
0.00083119
0.000822581
0.000813955
0.000805321
0.000796687
0.000788062
0.000779451
0.000770863
0.000762303
0.000753778
0.000745293
0.000736854
0.000728466
0.000720135
0.000711866
0.000703662
0.000695526
0.000687464
0.000679476
0.000671568
0.00066374
0.000655996
0.000648337
0.000640766
0.000633283
0.000625892
0.000618593
0.000611386
0.000604272
0.000597252
0.000590326
0.000583495
0.000576759
0.000570118
0.000563571
0.000557112
0.000550739
0.000544457
0.000538265
0.000532166
0.000526158
0.000520241
0.000514414
0.000508677
0.000503028
0.000497467
0.000491991
0.000486601
0.000481295
0.000476071
0.000470929
0.000465868
0.000460886
0.000455982
0.000451156
0.000446405
0.000441729
0.000437128
0.000432599
0.000428141
0.000423755
0.000419437
0.000415188
0.000411005
0.000406887
0.000402831
0.000398836
0.000394897
0.000391011
0.000387172
0.000383374
0.000379609
0.000375864
0.000372126
0.000368367
0.000364579
0.000360665
0.000356717
0.000352252
0.000348069
0.00034161
0.000330121
2.1827e-05
0.000106504
0.000220164
0.000312461
0.000374798
0.000411448
0.000426587
0.0004268
0.000416798
0.000403607
0.000395863
0.000395304
0.000404799
0.000422122
0.000444914
0.000472694
0.000506052
0.000545268
0.000589517
0.000653141
0.000727084
0.000806913
0.000890685
0.000960881
0.001023
0.00107886
0.00112904
0.00117373
0.00121279
0.00124651
0.00127561
0.00130084
0.00132288
0.00134236
0.00135985
0.00137584
0.00139075
0.0014049
0.00141855
0.0014319
0.00144506
0.0014581
0.00147106
0.00148391
0.0014966
0.00150905
0.00152118
0.00153288
0.00154406
0.00155465
0.0015646
0.00157387
0.00158244
0.00159029
0.00159743
0.00160383
0.0016095
0.00161443
0.00161863
0.00162209
0.00162481
0.00162678
0.00162794
0.00162837
0.00162824
0.00162733
0.0016257
0.00162338
0.00162038
0.00161672
0.00161242
0.0016075
0.00160198
0.00159587
0.00158921
0.00158202
0.00157431
0.00156611
0.00155745
0.00154834
0.00153881
0.00152888
0.00151857
0.00150792
0.00149693
0.00148564
0.00147407
0.00146223
0.00145016
0.00143786
0.00142536
0.00141268
0.00139983
0.00138683
0.0013737
0.00136045
0.00134711
0.00133368
0.00132019
0.00130666
0.00129311
0.00127954
0.00126597
0.00125242
0.00123888
0.00122539
0.00121194
0.00119854
0.00118521
0.00117195
0.00115877
0.00114567
0.00113268
0.00111978
0.00110699
0.00109431
0.00108175
0.00106931
0.001057
0.00104481
0.00103276
0.00102084
0.00100906
0.000997424
0.000985926
0.000974571
0.000963359
0.000952292
0.000941371
0.000930596
0.000919968
0.000909486
0.000899146
0.000888947
0.000878885
0.000868963
0.000859182
0.000849542
0.000840042
0.000830682
0.000821461
0.000812377
0.000803429
0.000794616
0.000785934
0.000777384
0.000768964
0.00076067
0.000752502
0.000744458
0.000736536
0.000728734
0.000721051
0.000713484
0.000706031
0.000698692
0.000691463
0.000684344
0.000677333
0.000670426
0.000663622
0.000656918
0.000650312
0.0006438
0.000637378
0.00063104
0.000624782
0.000618595
0.000612469
0.000606393
0.000600351
0.00059432
0.000588271
0.00058217
0.000575943
0.000569566
0.000562759
0.000555784
0.000547359
0.00053118
2.69611e-05
0.000121965
0.000240949
0.000357445
0.000435168
0.000482037
0.000505329
0.000513686
0.000515313
0.000516534
0.000523755
0.000540255
0.000566615
0.000601862
0.000645244
0.000696808
0.000757367
0.000841155
0.000937138
0.00103281
0.00112153
0.00120565
0.00128469
0.00135711
0.00142363
0.00148483
0.0015411
0.00159278
0.00164023
0.00168387
0.0017242
0.00176167
0.00179674
0.00182976
0.00186105
0.00189086
0.00191937
0.00194673
0.00197304
0.00199835
0.0020227
0.00204609
0.00206852
0.00208998
0.00211044
0.00212986
0.00214822
0.00216549
0.00218165
0.00219666
0.00221053
0.00222325
0.00223484
0.00224531
0.00225467
0.00226296
0.00227017
0.00227633
0.00228145
0.00228556
0.00228865
0.00229069
0.00229161
0.00229169
0.00229081
0.00228893
0.0022861
0.00228232
0.00227763
0.00227205
0.0022656
0.00225831
0.00225021
0.00224132
0.00223169
0.00222133
0.00221029
0.00219858
0.00218625
0.00217331
0.00215982
0.00214578
0.00213124
0.00211623
0.00210078
0.00208491
0.00206867
0.00205207
0.00203515
0.00201793
0.00200044
0.00198272
0.00196478
0.00194664
0.00192833
0.00190987
0.0018913
0.00187262
0.00185386
0.00183505
0.00181621
0.00179735
0.0017785
0.00175966
0.00174087
0.00172212
0.00170343
0.00168483
0.00166631
0.00164789
0.00162959
0.00161141
0.00159335
0.00157544
0.00155768
0.00154007
0.00152262
0.00150533
0.00148822
0.00147129
0.00145454
0.00143797
0.00142159
0.00140541
0.00138941
0.00137362
0.00135801
0.00134261
0.00132741
0.0013124
0.0012976
0.00128299
0.00126858
0.00125436
0.00124034
0.0012265
0.00121286
0.00119941
0.00118615
0.00117309
0.00116021
0.00114751
0.001135
0.00112268
0.00111053
0.00109857
0.00108677
0.00107516
0.00106371
0.00105243
0.00104131
0.00103036
0.00101957
0.00100894
0.000998457
0.000988132
0.000977956
0.000967928
0.000958045
0.000948304
0.000938701
0.000929234
0.000919898
0.000910689
0.000901602
0.00089263
0.000883767
0.000875003
0.000866326
0.000857722
0.000849171
0.000840648
0.00083212
0.000823544
0.000814849
0.000805975
0.000796718
0.000787114
0.000776959
0.000757212
3.08047e-05
0.000135309
0.000261399
0.00039219
0.000488187
0.000549572
0.000587175
0.000610588
0.000628472
0.00064806
0.000674542
0.000710505
0.000756657
0.000813269
0.000880896
0.000971738
0.00107708
0.00117867
0.00127773
0.00137296
0.00146341
0.00154917
0.00163018
0.00170643
0.00177819
0.00184584
0.0019097
0.00197011
0.0020274
0.0020819
0.00213393
0.00218378
0.00223169
0.00227788
0.0023225
0.00236567
0.00240748
0.00244798
0.00248721
0.00252517
0.00256186
0.00259726
0.00263133
0.00266406
0.00269538
0.00272528
0.00275369
0.00278059
0.00280594
0.00282971
0.00285186
0.00287237
0.00289124
0.00290844
0.00292397
0.00293784
0.00295003
0.00296057
0.00296946
0.00297673
0.00298238
0.00298646
0.00298888
0.00298978
0.00298931
0.00298734
0.002984
0.00297929
0.00297328
0.00296603
0.00295758
0.00294798
0.00293729
0.00292556
0.00291284
0.00289917
0.0028846
0.00286919
0.00285296
0.00283596
0.00281825
0.00279985
0.00278081
0.00276118
0.00274099
0.00272028
0.00269909
0.00267745
0.00265542
0.00263302
0.00261029
0.00258725
0.00256396
0.00254043
0.00251669
0.00249278
0.00246873
0.00244455
0.00242029
0.00239597
0.00237161
0.00234724
0.00232288
0.00229854
0.00227426
0.00225005
0.00222592
0.00220189
0.00217798
0.00215421
0.00213057
0.0021071
0.00208379
0.00206067
0.00203773
0.00201499
0.00199246
0.00197014
0.00194804
0.00192617
0.00190453
0.00188312
0.00186196
0.00184104
0.00182036
0.00179993
0.00177976
0.00175983
0.00174016
0.00172074
0.00170157
0.00168266
0.00166399
0.00164557
0.00162739
0.00160946
0.00159178
0.00157433
0.00155713
0.00154017
0.00152344
0.00150696
0.0014907
0.00147468
0.00145888
0.0014433
0.00142795
0.00141282
0.0013979
0.00138319
0.00136869
0.0013544
0.00134031
0.00132641
0.00131271
0.00129921
0.00128589
0.00127275
0.0012598
0.00124703
0.00123443
0.00122201
0.00120974
0.00119764
0.0011857
0.0011739
0.00116224
0.00115071
0.00113929
0.00112797
0.00111674
0.00110555
0.00109438
0.00108318
0.00107188
0.00106041
0.00104859
0.00103644
0.00102416
0.00100173
3.23468e-05
0.000142477
0.000273861
0.000409595
0.000527336
0.000608413
0.000664431
0.000706446
0.000743669
0.00078332
0.000830412
0.000887848
0.000957354
0.00105005
0.00115728
0.00126387
0.00136991
0.00147313
0.00157303
0.00166918
0.00176137
0.00184961
0.00193399
0.00201468
0.0020919
0.00216595
0.0022371
0.00230561
0.00237174
0.00243572
0.00249776
0.00255804
0.00261671
0.00267388
0.00272963
0.00278403
0.0028371
0.00288887
0.00293931
0.00298842
0.00303616
0.0030825
0.00312739
0.00317078
0.00321262
0.00325286
0.00329144
0.00332831
0.00336343
0.00339674
0.0034282
0.00345777
0.00348542
0.00351112
0.00353484
0.00355656
0.00357626
0.00359395
0.0036096
0.00362322
0.00363481
0.0036444
0.00365197
0.00365759
0.00366124
0.00366286
0.00366277
0.00366078
0.003657
0.00365148
0.00364427
0.00363543
0.00362501
0.00361308
0.00359969
0.00358492
0.00356883
0.00355148
0.00353295
0.0035133
0.00349259
0.0034709
0.0034483
0.00342483
0.00340058
0.0033756
0.00334995
0.0033237
0.00329689
0.00326958
0.00324183
0.00321367
0.00318516
0.00315635
0.00312726
0.00309795
0.00306846
0.0030388
0.00300904
0.00297919
0.00294929
0.00291937
0.00288946
0.00285958
0.00282976
0.00280002
0.00277038
0.00274087
0.0027115
0.00268228
0.00265324
0.00262439
0.00259575
0.00256732
0.00253912
0.00251117
0.00248346
0.00245601
0.00242882
0.00240191
0.00237528
0.00234894
0.00232288
0.00229712
0.00227165
0.00224649
0.00222162
0.00219706
0.0021728
0.00214885
0.0021252
0.00210185
0.0020788
0.00205606
0.0020336
0.00201145
0.00198958
0.00196801
0.00194673
0.00192574
0.00190503
0.00188461
0.00186447
0.0018446
0.001825
0.00180568
0.00178662
0.00176782
0.00174928
0.001731
0.00171296
0.00169517
0.00167763
0.00166032
0.00164324
0.0016264
0.00160979
0.0015934
0.00157722
0.00156127
0.00154552
0.00152998
0.00151464
0.00149949
0.00148454
0.00146976
0.00145516
0.00144071
0.00142641
0.00141224
0.00139818
0.0013842
0.00137026
0.00135631
0.00134228
0.00132812
0.00131364
0.00129891
0.00128386
0.00125963
3.27877e-05
0.000144068
0.000275143
0.000409109
0.000538812
0.000642026
0.000719154
0.000780644
0.000836634
0.000894819
0.000963205
0.00105577
0.00116588
0.00128736
0.00140284
0.00151401
0.00162173
0.00172616
0.00182726
0.00192496
0.00201929
0.00211033
0.00219823
0.00228318
0.00236539
0.0024451
0.00252253
0.00259788
0.00267134
0.0027431
0.00281328
0.00288201
0.00294937
0.00301544
0.00308025
0.00314382
0.00320615
0.00326722
0.00332701
0.00338547
0.00344257
0.00349823
0.00355241
0.00360504
0.00365606
0.00370539
0.00375298
0.00379876
0.00384267
0.00388465
0.00392465
0.00396261
0.00399849
0.00403224
0.00406383
0.00409322
0.0041204
0.00414533
0.00416799
0.00418839
0.00420652
0.00422237
0.00423595
0.00424728
0.00425636
0.00426323
0.00426795
0.0042704
0.00427084
0.00426919
0.00426552
0.00425987
0.00425231
0.00424288
0.00423164
0.00421867
0.00420402
0.00418776
0.00416996
0.00415069
0.00413003
0.00410803
0.00408478
0.00406035
0.00403481
0.00400823
0.00398069
0.00395224
0.00392297
0.00389294
0.00386221
0.00383085
0.00379892
0.00376647
0.00373357
0.00370028
0.00366663
0.0036327
0.00359852
0.00356415
0.00352962
0.00349499
0.00346029
0.00342555
0.00339082
0.00335613
0.0033215
0.00328697
0.00325256
0.00321829
0.0031842
0.00315029
0.0031166
0.00308313
0.0030499
0.00301693
0.00298423
0.00295182
0.0029197
0.00288788
0.00285637
0.00282518
0.00279432
0.00276379
0.0027336
0.00270374
0.00267423
0.00264506
0.00261624
0.00258777
0.00255965
0.00253187
0.00250444
0.00247735
0.0024506
0.0024242
0.00239813
0.0023724
0.002347
0.00232194
0.0022972
0.00227279
0.00224871
0.00222494
0.00220149
0.00217836
0.00215553
0.002133
0.00211077
0.00208884
0.0020672
0.00204585
0.00202478
0.00200398
0.00198346
0.00196321
0.00194323
0.0019235
0.00190403
0.00188482
0.00186585
0.00184712
0.00182863
0.00181037
0.00179233
0.00177451
0.00175689
0.00173947
0.00172222
0.00170513
0.00168817
0.00167133
0.00165455
0.00163779
0.00162098
0.00160405
0.00158685
0.00156946
0.00155151
0.00152537
3.22249e-05
0.000141104
0.00026867
0.000397586
0.000521181
0.000633035
0.000726758
0.000808122
0.000891958
0.000987812
0.00109757
0.00122264
0.00135908
0.00148646
0.00160665
0.00172155
0.00183215
0.00193879
0.0020418
0.00214154
0.00223823
0.00233206
0.00242324
0.00251198
0.00259848
0.00268295
0.00276557
0.00284652
0.00292596
0.00300401
0.00308077
0.00315633
0.00323074
0.00330404
0.00337624
0.00344733
0.00351728
0.00358607
0.00365364
0.00371993
0.00378489
0.00384843
0.00391049
0.00397099
0.00402985
0.004087
0.00414234
0.00419582
0.00424736
0.00429688
0.00434433
0.00438964
0.00443275
0.00447361
0.00451219
0.00454843
0.0045823
0.00461378
0.00464284
0.00466947
0.00469364
0.00471537
0.00473464
0.00475148
0.00476588
0.00477786
0.00478747
0.0047947
0.00479963
0.0048022
0.00480258
0.00480077
0.0047968
0.00479074
0.00478264
0.00477255
0.00476055
0.0047467
0.00473106
0.0047137
0.00469469
0.0046741
0.00465201
0.00462848
0.0046036
0.00457742
0.00455004
0.00452151
0.00449191
0.00446132
0.00442979
0.00439741
0.00436423
0.00433033
0.00429576
0.00426059
0.00422488
0.0041887
0.00415209
0.00411512
0.00407784
0.0040403
0.00400254
0.00396463
0.00392659
0.00388847
0.00385032
0.00381216
0.00377404
0.00373598
0.00369802
0.00366019
0.0036225
0.003585
0.0035477
0.00351061
0.00347377
0.00343719
0.00340088
0.00336486
0.00332914
0.00329374
0.00325866
0.00322392
0.00318952
0.00315546
0.00312176
0.00308842
0.00305545
0.00302284
0.0029906
0.00295873
0.00292723
0.0028961
0.00286535
0.00283496
0.00280493
0.00277528
0.00274599
0.00271706
0.0026885
0.0026603
0.00263245
0.00260495
0.00257781
0.00255101
0.00252455
0.00249843
0.00247265
0.00244719
0.00242206
0.00239725
0.00237276
0.00234858
0.00232471
0.00230115
0.00227788
0.00225491
0.00223222
0.00220983
0.00218771
0.00216587
0.0021443
0.00212299
0.00210194
0.00208113
0.00206056
0.00204022
0.00202007
0.00200012
0.00198033
0.00196067
0.0019411
0.00192158
0.00190202
0.00188237
0.00186249
0.00184243
0.00182168
0.00179335
3.08507e-05
0.00013501
0.000257905
0.000383071
0.000504924
0.000620956
0.00073169
0.000841017
0.000956312
0.0010826
0.00122103
0.00137104
0.00151321
0.00164507
0.00176921
0.00188752
0.00200113
0.00211066
0.00221651
0.00231887
0.00241815
0.00251474
0.00260893
0.00270098
0.00279111
0.00287954
0.00296644
0.00305197
0.00313626
0.00321943
0.00330155
0.00338269
0.00346287
0.00354211
0.0036204
0.00369773
0.00377403
0.00384927
0.00392338
0.00399628
0.0040679
0.00413814
0.00420692
0.00427416
0.00433975
0.00440361
0.00446564
0.00452577
0.00458391
0.00463998
0.0046939
0.00474561
0.00479504
0.00484213
0.00488683
0.0049291
0.00496888
0.00500615
0.00504088
0.00507305
0.00510264
0.00512965
0.00515407
0.00517591
0.00519517
0.00521187
0.00522603
0.00523769
0.00524686
0.00525358
0.0052579
0.00525984
0.00525949
0.00525688
0.00525207
0.0052451
0.00523605
0.00522497
0.00521193
0.00519699
0.00518023
0.00516171
0.00514151
0.00511969
0.00509633
0.0050715
0.00504528
0.00501773
0.00498894
0.00495896
0.00492788
0.00489576
0.00486266
0.00482867
0.00479384
0.00475824
0.00472193
0.00468498
0.00464745
0.0046094
0.00457088
0.00453196
0.00449268
0.0044531
0.00441327
0.00437323
0.00433303
0.00429271
0.00425231
0.00421187
0.00417143
0.00413103
0.00409069
0.00405044
0.00401032
0.00397035
0.00393055
0.00389095
0.00385157
0.00381243
0.00377355
0.00373494
0.00369662
0.0036586
0.0036209
0.00358352
0.00354647
0.00350977
0.00347342
0.00343743
0.00340179
0.00336653
0.00333163
0.0032971
0.00326295
0.00322917
0.00319577
0.00316274
0.00313009
0.00309781
0.00306591
0.00303438
0.00300322
0.00297244
0.00294202
0.00291197
0.00288227
0.00285294
0.00282396
0.00279534
0.00276706
0.00273912
0.00271153
0.00268427
0.00265735
0.00263076
0.00260449
0.00257854
0.0025529
0.00252758
0.00250257
0.00247786
0.00245344
0.00242931
0.00240547
0.0023819
0.00235858
0.00233552
0.00231269
0.00229007
0.00226764
0.00224536
0.00222319
0.00220108
0.00217897
0.00215677
0.00213437
0.0021118
0.00208849
0.00205783
2.93018e-05
0.000128711
0.000248086
0.000372264
0.000496879
0.000620865
0.000745771
0.000875347
0.00101299
0.00116063
0.00131841
0.00147999
0.0016276
0.00176389
0.00189187
0.00201352
0.0021301
0.00224244
0.00235107
0.00245637
0.00255865
0.0026581
0.00275517
0.00285021
0.0029435
0.00303529
0.00312576
0.00321509
0.0033034
0.00339079
0.00347734
0.00356309
0.00364807
0.00373227
0.00381566
0.00389822
0.00397989
0.00406059
0.00414025
0.00421879
0.00429609
0.00437208
0.00444664
0.00451968
0.00459108
0.00466076
0.0047286
0.00479451
0.0048584
0.00492017
0.00497976
0.00503707
0.00509204
0.00514461
0.0051947
0.00524228
0.00528729
0.0053297
0.00536947
0.00540659
0.00544102
0.00547277
0.00550182
0.00552817
0.00555185
0.00557285
0.0055912
0.00560692
0.00562004
0.0056306
0.00563863
0.00564417
0.00564728
0.005648
0.0056464
0.00564252
0.00563643
0.00562818
0.00561784
0.00560548
0.00559116
0.00557494
0.00555691
0.00553713
0.00551568
0.00549262
0.00546803
0.00544198
0.00541455
0.0053858
0.0053558
0.00532464
0.00529236
0.00525905
0.00522476
0.00518957
0.00515355
0.00511674
0.00507923
0.00504106
0.00500231
0.00496302
0.00492326
0.00488307
0.00484251
0.00480163
0.00476047
0.00471909
0.00467752
0.00463581
0.004594
0.00455213
0.00451023
0.00446834
0.00442648
0.0043847
0.00434302
0.00430146
0.00426005
0.00421881
0.00417778
0.00413696
0.00409637
0.00405603
0.00401597
0.00397618
0.00393669
0.00389751
0.00385864
0.0038201
0.0037819
0.00374403
0.00370652
0.00366935
0.00363255
0.0035961
0.00356002
0.0035243
0.00348895
0.00345397
0.00341936
0.00338512
0.00335125
0.00331775
0.00328463
0.00325187
0.00321947
0.00318744
0.00315578
0.00312447
0.00309352
0.00306293
0.00303268
0.00300279
0.00297324
0.00294403
0.00291517
0.00288663
0.00285843
0.00283056
0.00280301
0.00277579
0.00274887
0.00272226
0.00269595
0.00266994
0.0026442
0.00261873
0.00259352
0.00256853
0.00254375
0.00251914
0.00249467
0.00247027
0.00244588
0.00242143
0.0023968
0.002372
0.0023465
0.00231368
2.7615e-05
0.000122124
0.0002381
0.000361643
0.000489127
0.000619951
0.000756366
0.000900155
0.00105293
0.00121519
0.00138741
0.00155316
0.00170475
0.0018449
0.00197638
0.00210115
0.00222054
0.00233549
0.00244666
0.00255454
0.00265952
0.0027619
0.00286195
0.00295987
0.00305607
0.00315085
0.00324444
0.00333703
0.00342877
0.00351975
0.00361006
0.00369973
0.00378878
0.0038772
0.00396495
0.00405198
0.00413824
0.00422363
0.00430807
0.00439145
0.00447367
0.00455462
0.00463418
0.00471225
0.00478871
0.00486344
0.00493633
0.00500729
0.00507621
0.00514298
0.00520753
0.00526977
0.00532962
0.00538701
0.00544187
0.00549415
0.00554381
0.00559079
0.00563506
0.0056766
0.00571539
0.0057514
0.00578464
0.0058151
0.00584279
0.00586773
0.00588992
0.0059094
0.00592619
0.00594033
0.00595184
0.00596078
0.00596719
0.00597111
0.0059726
0.00597173
0.00596857
0.00596314
0.00595552
0.00594577
0.00593396
0.00592016
0.00590444
0.00588687
0.00586752
0.00584646
0.00582377
0.00579951
0.00577377
0.0057466
0.00571808
0.00568829
0.00565727
0.00562512
0.00559188
0.00555764
0.00552245
0.00548638
0.00544949
0.00541185
0.00537352
0.00533455
0.00529499
0.00525492
0.00521437
0.0051734
0.00513206
0.0050904
0.00504846
0.00500629
0.00496392
0.00492141
0.00487878
0.00483608
0.00479333