/*--------------------------------*- C++ -*----------------------------------*\
| =========                 |                                                 |
| \\      /  F ield         | OpenFOAM: The Open Source CFD Toolbox           |
|  \\    /   O peration     | Version:  v2012                                 |
|   \\  /    A nd           | Website:  www.openfoam.com                      |
|    \\/     M anipulation  |                                                 |
\*---------------------------------------------------------------------------*/
FoamFile
{
    version     2.0;
    format      ascii;
    class       surfaceScalarField;
    location    "1800";
    object      phi;
}
// * * * * * * * * * * * * * * * * * * * * * * * * * * * * * * * * * * * * * //

dimensions      [0 3 -1 0 0 0 0];
oriented        oriented;


internalField   nonuniform List<scalar> 
24170
(
3.92539e-06
-7.91497e-07
3.76462e-06
1.60756e-07
3.63337e-06
1.31208e-07
3.4332e-06
2.00139e-07
3.28008e-06
1.53079e-07
3.18942e-06
9.06273e-08
3.12907e-06
6.02423e-08
3.08117e-06
4.76005e-08
3.04128e-06
3.94565e-08
3.00439e-06
3.63445e-08
2.96979e-06
3.40805e-08
2.93779e-06
3.1525e-08
2.90851e-06
2.89028e-08
2.88201e-06
2.6213e-08
2.85826e-06
2.35403e-08
2.83869e-06
1.95039e-08
2.83064e-06
8.13872e-09
-9.34393e-09
2.84011e-06
3.58444e-06
-9.19498e-07
3.80423e-06
-5.90409e-08
3.7428e-06
1.9262e-07
3.69054e-06
2.52363e-07
3.63725e-06
2.06336e-07
3.58984e-06
1.37981e-07
3.55258e-06
9.73791e-08
3.52379e-06
7.61669e-08
3.50039e-06
6.25232e-08
3.48092e-06
5.53762e-08
3.46385e-06
5.06699e-08
3.44835e-06
4.65435e-08
3.43406e-06
4.27782e-08
3.4206e-06
3.93216e-08
3.40798e-06
3.5878e-08
3.39619e-06
3.11109e-08
3.38453e-06
1.97457e-08
3.89267e-09
3.37102e-06
3.68518e-06
-7.92482e-07
3.83638e-06
-2.10251e-07
3.91492e-06
1.14075e-07
3.94499e-06
2.22287e-07
3.94406e-06
2.07262e-07
3.92722e-06
1.54822e-07
3.90781e-06
1.16798e-07
3.89027e-06
9.37431e-08
3.87466e-06
7.82271e-08
3.86142e-06
6.87424e-08
3.84987e-06
6.23443e-08
3.83927e-06
5.72199e-08
3.82931e-06
5.27745e-08
3.81989e-06
4.87221e-08
3.81116e-06
4.4538e-08
3.80305e-06
3.91349e-08
3.7932e-06
2.95054e-08
1.7629e-08
3.77918e-06
4.05359e-06
-6.41511e-07
4.11459e-06
-2.71265e-07
4.20798e-06
2.06778e-08
4.26634e-06
1.63915e-07
4.29068e-06
1.82904e-07
4.29272e-06
1.52749e-07
4.28601e-06
1.23486e-07
4.27704e-06
1.02738e-07
4.2676e-06
8.77492e-08
4.25883e-06
7.76207e-08
4.25083e-06
7.04363e-08
4.24332e-06
6.47866e-08
4.23611e-06
5.9982e-08
4.22914e-06
5.56457e-08
4.22236e-06
5.12283e-08
4.21538e-06
4.59983e-08
4.20614e-06
3.85921e-08
3.0418e-08
4.19308e-06
4.50491e-06
-5.09115e-07
4.51536e-06
-2.81713e-07
4.58528e-06
-4.92461e-08
4.64664e-06
1.02552e-07
4.68257e-06
1.46979e-07
4.69681e-06
1.38514e-07
4.69972e-06
1.20599e-07
4.69775e-06
1.04785e-07
4.69352e-06
9.20877e-08
4.68861e-06
8.26791e-08
4.68359e-06
7.56005e-08
4.67854e-06
6.99564e-08
4.67342e-06
6.51797e-08
4.66817e-06
6.09199e-08
4.66264e-06
5.67406e-08
4.65632e-06
5.22502e-08
4.64779e-06
4.70199e-08
4.2178e-08
4.63586e-06
5.00014e-06
-3.94666e-07
4.98614e-06
-2.67712e-07
5.03068e-06
-9.37962e-08
5.08505e-06
4.8175e-08
5.12452e-06
1.07491e-07
5.14607e-06
1.16954e-07
5.15605e-06
1.10614e-07
5.15976e-06
1.01106e-07
5.16001e-06
9.19141e-08
5.15853e-06
8.42618e-08
5.15618e-06
7.806e-08
5.15327e-06
7.29461e-08
5.14989e-06
6.8592e-08
5.14605e-06
6.47643e-08
5.14155e-06
6.12015e-08
5.13595e-06
5.77808e-08
5.12834e-06
5.45435e-08
5.2403e-08
5.11793e-06
5.54382e-06
-2.97478e-07
5.51664e-06
-2.40536e-07
5.54055e-06
-1.177e-07
5.58387e-06
4.85127e-09
5.62165e-06
6.97136e-08
5.64657e-06
9.20427e-08
5.66123e-06
9.59756e-08
5.6693e-06
9.30753e-08
5.67327e-06
8.80091e-08
5.6748e-06
8.28094e-08
5.67484e-06
7.80981e-08
5.67387e-06
7.39882e-08
5.67208e-06
7.04259e-08
5.66951e-06
6.73426e-08
5.66604e-06
6.46611e-08
5.66135e-06
6.24361e-08
5.65492e-06
6.09025e-08
6.08233e-08
5.64643e-06
4.34788e-06
-2.39245e-07
4.32251e-06
-2.15172e-07
4.33078e-06
-1.25971e-07
4.35419e-06
-1.85637e-08
4.3784e-06
4.54942e-08
4.39647e-06
7.39602e-08
4.40846e-06
8.3986e-08
4.41604e-06
8.55104e-08
4.42063e-06
8.34509e-08
4.42326e-06
8.02233e-08
4.42457e-06
7.68307e-08
4.42494e-06
7.36616e-08
4.42454e-06
7.08456e-08
4.42345e-06
6.8438e-08
4.42162e-06
6.6478e-08
4.41893e-06
6.51092e-08
4.41518e-06
6.46298e-08
6.56026e-08
4.41033e-06
5.08622e-06
-1.85603e-07
5.05777e-06
-1.86728e-07
5.0584e-06
-1.26598e-07
5.07687e-06
-3.70313e-08
5.09918e-06
2.31783e-08
5.11774e-06
5.53995e-08
5.13129e-06
7.04464e-08
5.14065e-06
7.61643e-08
5.14691e-06
7.72185e-08
5.15097e-06
7.61896e-08
5.15347e-06
7.43564e-08
5.15481e-06
7.23434e-08
5.15521e-06
7.04566e-08
5.15477e-06
6.88732e-08
5.1535e-06
6.7738e-08
5.15134e-06
6.72535e-08
5.14823e-06
6.7707e-08
6.95606e-08
5.14425e-06
5.94839e-06
-1.38198e-07
5.91832e-06
-1.5666e-07
5.91161e-06
-1.19889e-07
5.924e-06
-4.94309e-08
5.94286e-06
4.31434e-09
5.9606e-06
3.76622e-08
5.97484e-06
5.62057e-08
5.98552e-06
6.54921e-08
5.99325e-06
6.95083e-08
5.9987e-06
7.07465e-08
6.00245e-06
7.06206e-08
6.00488e-06
6.99248e-08
6.00624e-06
6.91079e-08
6.00664e-06
6.84657e-08
6.00616e-06
6.82142e-08
6.00482e-06
6.85856e-08
6.00267e-06
6.98514e-08
7.22892e-08
5.99991e-06
6.95439e-06
-9.83182e-08
6.92402e-06
-1.2629e-07
6.91113e-06
-1.07009e-07
6.91681e-06
-5.51048e-08
6.93088e-06
-9.76333e-09
6.94637e-06
2.21687e-08
6.96019e-06
4.23888e-08
6.97145e-06
5.4238e-08
6.98022e-06
6.0749e-08
6.98688e-06
6.40942e-08
6.99183e-06
6.56709e-08
6.99541e-06
6.63462e-08
6.99784e-06
6.66774e-08
6.99929e-06
6.70183e-08
6.99985e-06
6.76488e-08
6.99965e-06
6.88001e-08
6.9988e-06
7.06781e-08
7.34891e-08
6.99759e-06
8.12719e-06
-6.64934e-08
8.09793e-06
-9.70332e-08
8.08056e-06
-8.96366e-08
8.07955e-06
-5.41023e-08
8.08794e-06
-1.815e-08
8.09987e-06
1.02392e-08
8.11202e-06
3.02422e-08
8.1229e-06
4.3362e-08
8.13206e-06
5.15891e-08
8.13954e-06
5.66238e-08
8.14551e-06
5.96942e-08
8.15021e-06
6.16572e-08
8.1538e-06
6.30754e-08
8.15646e-06
6.43604e-08
8.15833e-06
6.57856e-08
8.15955e-06
6.75755e-08
8.16034e-06
6.98934e-08
7.28386e-08
8.16097e-06
9.49368e-06
-4.24456e-08
9.4668e-06
-7.01564e-08
9.44683e-06
-6.96714e-08
9.43991e-06
-4.71806e-08
9.4423e-06
-2.05371e-08
9.44967e-06
2.86311e-09
9.45898e-06
2.0941e-08
9.46843e-06
3.39092e-08
9.47719e-06
4.28375e-08
9.48493e-06
4.88838e-08
9.49161e-06
5.30233e-08
9.49728e-06
5.59819e-08
9.50206e-06
5.83029e-08
9.50606e-06
6.03517e-08
9.50944e-06
6.24086e-08
9.51236e-06
6.46479e-08
9.51505e-06
6.72046e-08
7.01169e-08
9.51776e-06
1.10854e-05
-2.51668e-08
1.10618e-05
-4.65175e-08
1.1041e-05
-4.88405e-08
1.10294e-05
-3.56044e-08
1.10261e-05
-1.72426e-08
1.10284e-05
5.07358e-10
1.1034e-05
1.53491e-08
1.10411e-05
2.68132e-08
1.10487e-05
3.52997e-08
1.10561e-05
4.14897e-08
1.1063e-05
4.60517e-08
1.10695e-05
4.95472e-08
1.10754e-05
5.24013e-08
1.10808e-05
5.49338e-08
1.10858e-05
5.73596e-08
1.10906e-05
5.98314e-08
1.10954e-05
6.24221e-08
6.51662e-08
1.11004e-05
1.29396e-05
-1.31267e-08
1.29194e-05
-2.62941e-08
1.28988e-05
-2.8286e-08
1.28839e-05
-2.07408e-08
1.28758e-05
-9.0703e-09
1.28732e-05
3.04741e-09
1.28748e-05
1.38158e-08
1.2879e-05
2.26351e-08
1.28847e-05
2.95601e-08
1.28913e-05
3.49271e-08
1.28982e-05
3.91345e-08
1.29052e-05
4.2546e-08
1.29121e-05
4.54536e-08
1.2919e-05
4.8076e-08
1.29258e-05
5.05625e-08
1.29326e-05
5.30064e-08
1.29395e-05
5.54515e-08
5.79008e-08
1.29468e-05
1.50998e-05
-4.49096e-09
1.50822e-05
-8.69226e-09
1.50621e-05
-8.14716e-09
1.50448e-05
-3.51117e-09
1.50327e-05
3.03751e-09
1.50259e-05
9.84272e-09
1.50237e-05
1.60417e-08
1.5025e-05
2.13166e-08
1.50289e-05
2.5678e-08
1.50346e-05
2.92801e-08
1.50414e-05
3.23205e-08
1.50489e-05
3.49794e-08
1.5057e-05
3.74009e-08
1.50654e-05
3.96874e-08
1.5074e-05
4.1902e-08
1.5083e-05
4.40754e-08
1.50922e-05
4.62105e-08
4.82884e-08
1.51018e-05
1.76171e-05
2.88531e-09
1.75999e-05
8.50477e-09
1.75787e-05
1.29934e-08
1.7559e-05
1.6228e-08
1.75436e-05
1.84006e-08
1.75336e-05
1.98693e-08
1.75287e-05
2.09388e-08
1.75282e-05
2.18599e-08
1.75311e-05
2.27787e-08
1.75365e-05
2.38013e-08
1.75439e-05
2.49655e-08
1.75526e-05
2.6292e-08
1.75622e-05
2.77647e-08
1.75725e-05
2.93635e-08
1.75834e-05
3.10486e-08
1.75947e-05
3.27832e-08
1.76064e-05
3.45183e-08
3.62114e-08
1.76184e-05
1.78181e-05
1.09935e-08
1.77994e-05
2.71875e-08
1.77768e-05
3.55883e-08
1.7756e-05
3.70049e-08
1.77402e-05
3.42637e-08
1.77302e-05
2.98644e-08
1.77257e-05
2.5406e-08
1.77259e-05
2.16613e-08
1.77298e-05
1.89428e-08
1.77363e-05
1.72425e-08
1.77449e-05
1.64552e-08
1.77547e-05
1.64007e-08
1.77656e-05
1.69191e-08
1.77771e-05
1.78453e-08
1.77891e-05
1.9056e-08
1.78015e-05
2.04295e-08
1.78141e-05
2.1886e-08
2.33388e-08
1.7827e-05
1.58702e-05
2.21269e-08
1.58478e-05
4.95546e-08
1.58233e-05
6.00931e-08
1.58032e-05
5.71861e-08
1.57899e-05
4.75491e-08
1.57834e-05
3.6304e-08
1.57827e-05
2.61199e-08
1.57863e-05
1.80592e-08
1.5793e-05
1.22616e-08
1.58018e-05
8.49326e-09
1.58119e-05
6.35582e-09
1.58229e-05
5.46594e-09
1.58343e-05
5.47852e-09
1.5846e-05
6.1228e-09
1.58579e-05
7.17599e-09
1.58699e-05
8.4798e-09
1.58818e-05
9.90016e-09
1.13541e-08
1.58938e-05
1.41313e-05
3.95336e-08
1.41021e-05
7.86803e-08
1.40745e-05
8.7749e-08
1.40557e-05
7.59886e-08
1.40469e-05
5.63582e-08
1.40462e-05
3.69848e-08
1.40512e-05
2.11485e-08
1.40597e-05
9.52168e-09
1.40703e-05
1.69057e-09
1.40819e-05
-3.12576e-09
1.4094e-05
-5.6986e-09
1.41062e-05
-6.67875e-09
1.41182e-05
-6.56079e-09
1.41301e-05
-5.73125e-09
1.41417e-05
-4.45296e-09
1.41531e-05
-2.93169e-09
1.41643e-05
-1.29608e-09
3.48165e-10
1.41753e-05
1.25772e-05
6.73512e-08
1.25392e-05
1.16715e-07
1.25091e-05
1.17853e-07
1.24942e-05
9.08437e-08
1.24928e-05
5.77641e-08
1.25002e-05
2.96326e-08
1.25122e-05
9.09767e-09
1.25263e-05
-4.54626e-09
1.25409e-05
-1.28605e-08
1.25552e-05
-1.73759e-08
1.25688e-05
-1.9318e-08
1.25817e-05
-1.95648e-08
1.25939e-05
-1.87539e-08
1.26055e-05
-1.72852e-08
1.26165e-05
-1.54734e-08
1.26271e-05
-1.34885e-08
1.26372e-05
-1.14742e-08
-9.49751e-09
1.26471e-05
1.11862e-05
1.10913e-07
1.11384e-05
1.6455e-07
1.11088e-05
1.47486e-07
1.11022e-05
9.74409e-08
1.11117e-05
4.82663e-08
1.1129e-05
1.23693e-08
1.11486e-05
-1.05028e-08
1.11678e-05
-2.37314e-08
1.11855e-05
-3.05166e-08
1.12013e-05
-3.3242e-08
1.12156e-05
-3.35081e-08
1.12283e-05
-3.23324e-08
1.124e-05
-3.0342e-08
1.12506e-05
-2.79447e-08
1.12605e-05
-2.53756e-08
1.12699e-05
-2.28209e-08
1.12787e-05
-2.03373e-08
-1.79855e-08
1.12872e-05
9.93908e-06
1.7645e-07
9.88248e-06
2.21146e-07
9.85874e-06
1.71234e-07
9.86595e-06
9.02335e-08
9.88964e-06
2.45939e-08
9.91762e-06
-1.56017e-08
9.94395e-06
-3.67943e-08
9.96669e-06
-4.64312e-08
9.98575e-06
-4.95091e-08
1.00016e-05
-4.9137e-08
1.00151e-05
-4.69576e-08
1.00267e-05
-4.39195e-08
1.00369e-05
-4.0482e-08
1.0046e-05
-3.7009e-08
1.00543e-05
-3.36619e-08
1.0062e-05
-3.05208e-08
1.00693e-05
-2.76065e-08
-2.49111e-08
1.00762e-05
8.81963e-06
2.69915e-07
8.75785e-06
2.82933e-07
8.74788e-06
1.81199e-07
8.77483e-06
6.32832e-08
8.81462e-06
-1.51819e-08
8.85217e-06
-5.31254e-08
8.8827e-06
-6.72723e-08
8.90631e-06
-6.99649e-08
8.92434e-06
-6.7568e-08
8.93839e-06
-6.3122e-08
8.94964e-06
-5.81557e-08
8.95901e-06
-5.30937e-08
8.96697e-06
-4.838e-08
8.97395e-06
-4.39297e-08
8.9802e-06
-3.98847e-08
8.98598e-06
-3.62704e-08
8.99141e-06
-3.30498e-08
-3.01307e-08
8.99659e-06
7.81391e-06
3.96675e-07
7.7539e-06
3.42935e-07
7.76868e-06
1.66417e-07
7.82055e-06
1.14194e-08
7.87571e-06
-7.03315e-08
7.91917e-06
-9.65703e-08
7.94974e-06
-9.78276e-08
7.97063e-06
-9.07802e-08
7.98501e-06
-8.17448e-08
7.99521e-06
-7.32466e-08
8.00297e-06
-6.57424e-08
8.00907e-06
-5.92177e-08
8.01419e-06
-5.33334e-08
8.01854e-06
-4.81985e-08
8.02238e-06
-4.36516e-08
8.02589e-06
-3.98314e-08
8.02926e-06
-3.64955e-08
-3.34506e-08
8.03257e-06
6.90424e-06
5.66768e-07
6.86137e-06
3.85802e-07
6.91717e-06
1.10612e-07
6.99676e-06
-6.81785e-08
7.06257e-06
-1.36149e-07
7.10536e-06
-1.39365e-07
7.13034e-06
-1.22678e-07
7.14451e-06
-1.04914e-07
7.15244e-06
-8.96618e-08
7.15708e-06
-7.77361e-08
7.1601e-06
-6.86514e-08
7.1623e-06
-6.11506e-08
7.16391e-06
-5.49104e-08
7.16524e-06
-4.95284e-08
7.16627e-06
-4.47355e-08
7.16726e-06
-4.08766e-08
7.16837e-06
-3.7612e-08
-3.47725e-08
7.16954e-06
6.07162e-06
7.97663e-07
6.08525e-06
3.7216e-07
6.19865e-06
-2.79304e-09
6.29991e-06
-1.6944e-07
6.3653e-06
-2.01542e-07
6.3976e-06
-1.71645e-07
6.41008e-06
-1.35271e-07
6.41333e-06
-1.07862e-07
6.41231e-06
-8.87018e-08
6.40988e-06
-7.52846e-08
6.40735e-06
-6.60757e-08
6.40485e-06
-5.8709e-08
6.40235e-06
-5.25917e-08
6.40013e-06
-4.72105e-08
6.39793e-06
-4.25612e-08
6.39607e-06
-3.90645e-08
6.39446e-06
-3.61194e-08
-3.35004e-08
6.3933e-06
5.35805e-06
1.05451e-06
5.50649e-06
2.23711e-07
5.64777e-06
-1.4409e-07
5.73566e-06
-2.57337e-07
5.7765e-06
-2.42399e-07
5.7833e-06
-1.78555e-07
5.77504e-06
-1.26876e-07
5.76263e-06
-9.55348e-08
5.75013e-06
-7.63734e-08
5.73922e-06
-6.46375e-08
5.73033e-06
-5.73499e-08
5.72235e-06
-5.10203e-08
5.71479e-06
-4.52772e-08
5.70784e-06
-4.04357e-08
5.70156e-06
-3.63219e-08
5.69627e-06
-3.38226e-08
5.6914e-06
-3.11451e-08
-2.90629e-08
5.68698e-06
5.04576e-06
1.01105e-06
5.36491e-06
-9.54591e-08
5.35252e-06
-1.31739e-07
5.33288e-06
-2.37717e-07
5.29605e-06
-2.05632e-07
5.25015e-06
-1.32741e-07
5.20833e-06
-8.50767e-08
5.17427e-06
-6.1607e-08
5.14685e-06
-4.93148e-08
5.12476e-06
-4.29524e-08
5.10678e-06
-3.97354e-08
5.09091e-06
-3.56516e-08
5.07609e-06
-3.09735e-08
5.06249e-06
-2.70823e-08
5.05046e-06
-2.43922e-08
5.04061e-06
-2.3968e-08
5.03098e-06
-2.14402e-08
-2.04392e-08
5.02245e-06
5.4676e-06
5.37214e-06
5.2404e-06
5.00267e-06
4.79703e-06
4.66429e-06
4.57919e-06
4.51753e-06
4.46814e-06
4.42513e-06
4.38529e-06
4.34953e-06
4.31849e-06
4.29138e-06
4.26699e-06
4.24304e-06
4.22162e-06
4.20121e-06
2.47764e-08
-2.47878e-08
2.3864e-07
-2.13847e-07
4.89964e-07
-2.51356e-07
7.09262e-07
-2.193e-07
8.75947e-07
-1.66713e-07
9.8606e-07
-1.10114e-07
1.0406e-06
-5.45679e-08
1.04188e-06
-1.27642e-09
9.95255e-07
4.66032e-08
9.11079e-07
8.4204e-08
8.04655e-07
1.06415e-07
6.954e-07
1.09325e-07
6.02958e-07
9.25097e-08
5.36829e-07
6.60692e-08
4.85338e-07
5.16025e-08
4.24055e-07
6.09602e-08
3.36326e-07
8.78492e-08
2.07959e-07
1.28282e-07
3.1623e-08
1.76492e-07
-2.13797e-07
2.4574e-07
-5.1874e-07
3.05013e-07
-8.59984e-07
3.41393e-07
-1.2235e-06
3.635e-07
-1.60004e-06
3.76558e-07
-1.98082e-06
3.80729e-07
-2.35572e-06
3.74889e-07
-2.71681e-06
3.61055e-07
-3.05886e-06
3.42042e-07
-3.37813e-06
3.19241e-07
-3.67227e-06
2.94132e-07
-3.94048e-06
2.68203e-07
-4.1831e-06
2.42611e-07
-4.40116e-06
2.18054e-07
-4.59614e-06
1.94981e-07
-4.76975e-06
1.73614e-07
-4.92378e-06
1.5403e-07
-5.05997e-06
1.36189e-07
-5.17994e-06
1.19972e-07
-5.28516e-06
1.05218e-07
-5.37691e-06
9.17485e-08
-5.45629e-06
7.93804e-08
-5.52423e-06
6.7943e-08
-5.58151e-06
5.72813e-08
-5.62877e-06
4.72626e-08
-5.66654e-06
3.77781e-08
-5.69528e-06
2.8742e-08
-5.71537e-06
2.00828e-08
-5.72714e-06
1.1772e-08
-5.73108e-06
3.94526e-09
-5.72805e-06
-3.02593e-09
-5.71915e-06
-8.90263e-09
-5.70514e-06
-1.40088e-08
-5.68641e-06
-1.87295e-08
-5.66322e-06
-2.31923e-08
-5.63573e-06
-2.74858e-08
-5.60409e-06
-3.16372e-08
-5.56843e-06
-3.56612e-08
-5.52887e-06
-3.95642e-08
-5.48552e-06
-4.33475e-08
-5.43851e-06
-4.70097e-08
-5.38796e-06
-5.05483e-08
-5.334e-06
-5.39597e-08
-5.27676e-06
-5.72406e-08
-5.21637e-06
-6.03876e-08
-5.15297e-06
-6.33984e-08
-5.0867e-06
-6.62695e-08
-5.0177e-06
-6.89978e-08
-4.94612e-06
-7.15809e-08
-4.8721e-06
-7.40171e-08
-4.7958e-06
-7.63051e-08
-4.71735e-06
-7.84443e-08
-4.63692e-06
-8.04342e-08
-4.55464e-06
-8.22753e-08
-4.47067e-06
-8.39681e-08
-4.38516e-06
-8.55138e-08
-4.29824e-06
-8.69141e-08
-4.21007e-06
-8.81711e-08
-4.12078e-06
-8.92874e-08
-4.03052e-06
-9.02659e-08
-3.93941e-06
-9.11101e-08
-3.84758e-06
-9.18238e-08
-3.75517e-06
-9.24115e-08
-3.66229e-06
-9.2878e-08
-3.56906e-06
-9.3229e-08
-3.47559e-06
-9.34708e-08
-3.38198e-06
-9.36107e-08
-3.28832e-06
-9.36575e-08
-3.1947e-06
-9.36215e-08
-3.10118e-06
-9.35156e-08
-3.00783e-06
-9.33553e-08
-2.91466e-06
-9.31617e-08
-2.8217e-06
-9.29599e-08
-2.72893e-06
-9.27677e-08
-2.63637e-06
-9.25638e-08
-2.5441e-06
-9.22616e-08
-2.45234e-06
-9.17601e-08
-2.36137e-06
-9.0975e-08
-2.27144e-06
-8.99266e-08
-2.18267e-06
-8.87728e-08
-2.09505e-06
-8.76183e-08
-2.00859e-06
-8.64619e-08
-1.9233e-06
-8.52881e-08
-1.83921e-06
-8.40895e-08
-1.75635e-06
-8.28654e-08
-1.67473e-06
-8.16182e-08
-1.59438e-06
-8.0352e-08
-1.51531e-06
-7.90702e-08
-1.43753e-06
-7.77759e-08
-1.36106e-06
-7.64665e-08
-1.28594e-06
-7.51213e-08
-1.21219e-06
-7.37528e-08
-1.1398e-06
-7.23894e-08
-1.06878e-06
-7.10247e-08
-9.99115e-07
-6.96609e-08
-9.30816e-07
-6.82981e-08
-8.63878e-07
-6.69389e-08
-7.98292e-07
-6.55845e-08
-7.34053e-07
-6.42387e-08
-6.7115e-07
-6.29021e-08
-6.09574e-07
-6.15752e-08
-5.49314e-07
-6.02578e-08
-4.90359e-07
-5.89536e-08
-4.32689e-07
-5.76681e-08
-3.76278e-07
-5.6408e-08
-3.21107e-07
-5.51672e-08
-2.6716e-07
-5.39433e-08
-2.14416e-07
-5.27396e-08
-1.62855e-07
-5.15557e-08
-1.12469e-07
-5.03792e-08
-6.32518e-08
-4.9211e-08
-1.53301e-08
-4.79142e-08
3.14388e-08
-4.67624e-08
7.73613e-08
-4.59163e-08
1.22319e-07
-4.4953e-08
1.66218e-07
-4.38936e-08
2.09053e-07
-4.2831e-08
2.50844e-07
-4.17867e-08
2.91621e-07
-4.07726e-08
3.31416e-07
-3.97903e-08
3.70259e-07
-3.8838e-08
4.08179e-07
-3.79139e-08
4.45202e-07
-3.70166e-08
4.81354e-07
-3.61453e-08
5.16659e-07
-3.52993e-08
5.51143e-07
-3.44784e-08
5.84829e-07
-3.36821e-08
6.17741e-07
-3.2911e-08
6.49904e-07
-3.21641e-08
6.81343e-07
-3.14416e-08
7.12083e-07
-3.07428e-08
7.42149e-07
-3.00675e-08
7.71563e-07
-2.94155e-08
8.0035e-07
-2.87873e-08
8.28533e-07
-2.81824e-08
8.56136e-07
-2.76012e-08
8.83181e-07
-2.70434e-08
9.09692e-07
-2.65093e-08
9.35692e-07
-2.59981e-08
9.61203e-07
-2.551e-08
9.86247e-07
-2.50438e-08
1.01084e-06
-2.45988e-08
1.03501e-06
-2.41727e-08
1.05877e-06
-2.37634e-08
1.08213e-06
-2.33664e-08
1.10511e-06
-2.29766e-08
1.12768e-06
-2.25851e-08
1.14986e-06
-2.21812e-08
1.1716e-06
-2.17482e-08
1.19286e-06
-2.12648e-08
1.21355e-06
-2.06987e-08
1.23355e-06
-2.00066e-08
1.25266e-06
-1.91234e-08
1.27061e-06
-1.79529e-08
1.28695e-06
-1.63492e-08
1.30098e-06
-1.40402e-08
1.31158e-06
-1.06075e-08
1.31611e-06
-4.54261e-09
1.30921e-06
6.88976e-09
1.27959e-06
2.96091e-08
7.24514e-08
1.20713e-06
2.537e-07
-2.78494e-07
4.88933e-07
-4.49076e-07
6.38101e-07
-4.00537e-07
7.22279e-07
-3.0348e-07
7.61248e-07
-2.05695e-07
7.66624e-07
-1.15492e-07
7.45131e-07
-3.30872e-08
7.0246e-07
4.13952e-08
6.41578e-07
1.07477e-07
5.62443e-07
1.63348e-07
4.64262e-07
2.04597e-07
3.45346e-07
2.28248e-07
1.99444e-07
2.3844e-07
1.47707e-08
2.50685e-07
-2.19072e-07
2.85452e-07
-5.06339e-07
3.48154e-07
-8.45006e-07
4.26518e-07
-1.22387e-06
5.07164e-07
-1.62901e-06
5.81671e-07
-2.02936e-06
6.4614e-07
-2.41719e-06
6.92869e-07
-2.79207e-06
7.16303e-07
-3.14692e-06
7.18352e-07
-3.47365e-06
7.03289e-07
-3.76742e-06
6.74488e-07
-4.02742e-06
6.34889e-07
-4.25422e-06
5.87841e-07
-4.44919e-06
5.37003e-07
-4.61528e-06
4.85324e-07
-4.756e-06
4.34846e-07
-4.87471e-06
3.86909e-07
-4.97457e-06
3.42464e-07
-5.05843e-06
3.01917e-07
-5.1288e-06
2.65345e-07
-5.18776e-06
2.32582e-07
-5.23706e-06
2.03324e-07
-5.27807e-06
1.77202e-07
-5.31192e-06
1.53825e-07
-5.33952e-06
1.32814e-07
-5.36159e-06
1.13818e-07
-5.37873e-06
9.65285e-08
-5.39147e-06
8.06819e-08
-5.40025e-06
6.60575e-08
-5.40546e-06
5.2475e-08
-5.40747e-06
3.97888e-08
-5.40661e-06
2.7885e-08
-5.40321e-06
1.66868e-08
-5.3976e-06
6.16039e-09
-5.38991e-06
-3.73861e-09
-5.37973e-06
-1.32039e-08
-5.36617e-06
-2.24695e-08
-5.34861e-06
-3.15628e-08
-5.32692e-06
-4.04229e-08
-5.30107e-06
-4.90423e-08
-5.27112e-06
-5.74285e-08
-5.23717e-06
-6.55876e-08
-5.19931e-06
-7.35225e-08
-5.15764e-06
-8.12325e-08
-5.11227e-06
-8.87142e-08
-5.06332e-06
-9.5962e-08
-5.0109e-06
-1.02969e-07
-4.95513e-06
-1.09727e-07
-4.89614e-06
-1.16229e-07
-4.83406e-06
-1.22468e-07
-4.76902e-06
-1.28439e-07
-4.70116e-06
-1.34134e-07
-4.63061e-06
-1.39548e-07
-4.55751e-06
-1.44675e-07
-4.48202e-06
-1.49512e-07
-4.40426e-06
-1.54056e-07
-4.3244e-06
-1.58307e-07
-4.24257e-06
-1.62263e-07
-4.15892e-06
-1.65925e-07
-4.0736e-06
-1.69293e-07
-3.98674e-06
-1.72372e-07
-3.89849e-06
-1.75163e-07
-3.80899e-06
-1.77671e-07
-3.71837e-06
-1.79901e-07
-3.62678e-06
-1.8186e-07
-3.53434e-06
-1.83553e-07
-3.44117e-06
-1.84989e-07
-3.34741e-06
-1.86175e-07
-3.25316e-06
-1.87121e-07
-3.15855e-06
-1.87838e-07
-3.06369e-06
-1.88335e-07
-2.96868e-06
-1.88624e-07
-2.87361e-06
-1.88718e-07
-2.77861e-06
-1.88629e-07
-2.68375e-06
-1.88371e-07
-2.58915e-06
-1.87956e-07
-2.49491e-06
-1.87394e-07
-2.40118e-06
-1.86695e-07
-2.30809e-06
-1.85852e-07
-2.21582e-06
-1.84837e-07
-2.12447e-06
-1.83606e-07
-2.0341e-06
-1.82129e-07
-1.94467e-06
-1.80405e-07
-1.85613e-06
-1.78474e-07
-1.76849e-06
-1.76414e-07
-1.68183e-06
-1.74278e-07
-1.59621e-06
-1.72078e-07
-1.51168e-06
-1.69816e-07
-1.42828e-06
-1.67493e-07
-1.34603e-06
-1.65113e-07
-1.26497e-06
-1.62681e-07
-1.18512e-06
-1.60203e-07
-1.1065e-06
-1.57684e-07
-1.02915e-06
-1.55128e-07
-9.53083e-07
-1.52536e-07
-8.78295e-07
-1.4991e-07
-8.04786e-07
-1.47261e-07
-7.32571e-07
-1.44604e-07
-6.61653e-07
-1.41943e-07
-5.92034e-07
-1.3928e-07
-5.23713e-07
-1.36619e-07
-4.56688e-07
-1.33963e-07
-3.90956e-07
-1.31316e-07
-3.26511e-07
-1.28683e-07
-2.63344e-07
-1.26069e-07
-2.01442e-07
-1.23475e-07
-1.40799e-07
-1.209e-07
-8.14024e-08
-1.18349e-07
-2.32458e-08
-1.15823e-07
3.36843e-08
-1.13336e-07
8.94163e-08
-1.10897e-07
1.43968e-07
-1.08492e-07
1.97349e-07
-1.06119e-07
2.49577e-07
-1.03781e-07
3.00679e-07
-1.01478e-07
3.50683e-07
-9.92124e-08
3.99754e-07
-9.69827e-08
4.47856e-07
-9.48617e-08
4.9477e-07
-9.28288e-08
5.40574e-07
-9.07549e-08
5.8534e-07
-8.86584e-08
6.29102e-07
-8.65911e-08
6.71887e-07
-8.45712e-08
7.13721e-07
-8.26055e-08
7.54627e-07
-8.06945e-08
7.94628e-07
-7.88369e-08
8.33748e-07
-7.70309e-08
8.72009e-07
-7.52751e-08
9.09434e-07
-7.35685e-08
9.46048e-07
-7.19104e-08
9.81871e-07
-7.03002e-08
1.01693e-06
-6.87381e-08
1.05124e-06
-6.72237e-08
1.08483e-06
-6.57568e-08
1.11772e-06
-6.43367e-08
1.14994e-06
-6.29629e-08
1.18151e-06
-6.16351e-08
1.21244e-06
-6.03533e-08
1.24277e-06
-5.91175e-08
1.27252e-06
-5.79277e-08
1.3017e-06
-5.67839e-08
1.33035e-06
-5.56859e-08
1.35847e-06
-5.46333e-08
1.3861e-06
-5.36256e-08
1.41326e-06
-5.26616e-08
1.43995e-06
-5.17399e-08
1.46621e-06
-5.08577e-08
1.49205e-06
-5.00118e-08
1.51748e-06
-4.91962e-08
1.54251e-06
-4.84037e-08
1.56715e-06
-4.76226e-08
1.5914e-06
-4.68383e-08
1.61524e-06
-4.60284e-08
1.63865e-06
-4.51642e-08
1.66158e-06
-4.42035e-08
1.68396e-06
-4.30892e-08
1.70569e-06
-4.17389e-08
1.7266e-06
-4.00348e-08
1.74644e-06
-3.77998e-08
1.76485e-06
-3.47648e-08
1.78127e-06
-3.04688e-08
1.79481e-06
-2.41561e-08
1.80451e-06
-1.42477e-08
1.80934e-06
2.05122e-09
1.80742e-06
3.15194e-08
8.81799e-08
1.79168e-06
2.45036e-07
-5.23531e-07
3.40236e-07
-5.44274e-07
3.56002e-07
-4.16309e-07
3.44645e-07
-2.92119e-07
3.16611e-07
-1.77669e-07
2.72161e-07
-7.10388e-08
2.10559e-07
2.85058e-08
1.30789e-07
1.21168e-07
3.17433e-08
2.06516e-07
-8.87617e-08
2.83853e-07
-2.36566e-07
3.52399e-07
-4.22318e-07
4.13989e-07
-6.59374e-07
4.75497e-07
-9.54224e-07
5.4551e-07
-1.29608e-06
6.27299e-07
-1.66303e-06
7.15091e-07
-2.03445e-06
7.97947e-07
-2.39387e-06
8.66597e-07
-2.72797e-06
9.15788e-07
-3.02534e-06
9.43532e-07
-3.2816e-06
9.49146e-07
-3.49876e-06
9.33476e-07
-3.68027e-06
8.9986e-07
-3.8299e-06
8.52928e-07
-3.95233e-06
7.96912e-07
-4.05292e-06
7.35481e-07
-4.13699e-06
6.71897e-07
-4.20887e-06
6.08884e-07
-4.27199e-06
5.48441e-07
-4.32894e-06
4.91792e-07
-4.38156e-06
4.39533e-07
-4.43098e-06
3.91884e-07
-4.47782e-06
3.48756e-07
-4.52234e-06
3.09865e-07
-4.56458e-06
2.74818e-07
-4.60443e-06
2.43178e-07
-4.64174e-06
2.14506e-07
-4.6763e-06
1.88389e-07
-4.70794e-06
1.64452e-07
-4.73649e-06
1.42366e-07
-4.76181e-06
1.21851e-07
-4.78379e-06
1.0267e-07
-4.80236e-06
8.46262e-08
-4.81744e-06
6.75562e-08
-4.82897e-06
5.1321e-08
-4.83689e-06
3.58022e-08
-4.8411e-06
2.08987e-08
-4.84146e-06
6.51697e-09
-4.83774e-06
-7.44956e-09
-4.82983e-06
-2.11147e-08
-4.81777e-06
-3.45363e-08
-4.80163e-06
-4.77015e-08
-4.78146e-06
-6.05884e-08
-4.75731e-06
-7.31884e-08
-4.72925e-06
-8.54948e-08
-4.69733e-06
-9.75017e-08
-4.66165e-06
-1.09202e-07
-4.6223e-06
-1.20587e-07
-4.57936e-06
-1.31647e-07
-4.53296e-06
-1.42369e-07
-4.48318e-06
-1.52742e-07
-4.43016e-06
-1.62752e-07
-4.374e-06
-1.72386e-07
-4.31483e-06
-1.81634e-07
-4.25278e-06
-1.90486e-07
-4.18798e-06
-1.98934e-07
-4.12057e-06
-2.06966e-07
-4.05066e-06
-2.14575e-07
-3.97842e-06
-2.21755e-07
-3.90397e-06
-2.28504e-07
-3.82746e-06
-2.34817e-07
-3.74903e-06
-2.40694e-07
-3.66882e-06
-2.46136e-07
-3.58697e-06
-2.51143e-07
-3.50362e-06
-2.5572e-07
-3.41891e-06
-2.5987e-07
-3.33298e-06
-2.63601e-07
-3.24597e-06
-2.66918e-07
-3.158e-06
-2.69831e-07
-3.0692e-06
-2.72349e-07
-2.97971e-06
-2.74482e-07
-2.88964e-06
-2.76243e-07
-2.79911e-06
-2.77644e-07
-2.70825e-06
-2.78698e-07
-2.61717e-06
-2.79419e-07
-2.52597e-06
-2.79822e-07
-2.43477e-06
-2.79922e-07
-2.34366e-06
-2.79734e-07
-2.25276e-06
-2.79273e-07
-2.16216e-06
-2.7855e-07
-2.07198e-06
-2.77578e-07
-1.98231e-06
-2.76362e-07
-1.89326e-06
-2.74901e-07
-1.80491e-06
-2.73184e-07
-1.71732e-06
-2.71193e-07
-1.63053e-06
-2.68928e-07
-1.54453e-06
-2.66404e-07
-1.45934e-06
-2.63658e-07
-1.37502e-06
-2.60737e-07
-1.29162e-06
-2.57674e-07
-1.20921e-06
-2.54489e-07
-1.12784e-06
-2.51194e-07
-1.04753e-06
-2.478e-07
-9.68327e-07
-2.44315e-07
-8.90259e-07
-2.40749e-07
-8.13351e-07
-2.37111e-07
-7.37627e-07
-2.33409e-07
-6.63105e-07
-2.2965e-07
-5.898e-07
-2.25842e-07
-5.17718e-07
-2.21992e-07
-4.46866e-07
-2.18113e-07
-3.77254e-07
-2.14216e-07
-3.0889e-07
-2.10307e-07
-2.41775e-07
-2.06395e-07
-1.75908e-07
-2.02486e-07
-1.11288e-07
-1.98583e-07
-4.79117e-08
-1.94693e-07
1.42282e-08
-1.90822e-07
7.51352e-08
-1.86976e-07
1.34818e-07
-1.83158e-07
1.9329e-07
-1.79372e-07
2.50564e-07
-1.75622e-07
3.06655e-07
-1.71914e-07
3.61575e-07
-1.68256e-07
4.15329e-07
-1.64652e-07
4.67936e-07
-1.61098e-07
5.19414e-07
-1.57596e-07
5.69781e-07
-1.54148e-07
6.19062e-07
-1.50758e-07
6.67286e-07
-1.47435e-07
7.14495e-07
-1.44191e-07
7.60671e-07
-1.41036e-07
8.0578e-07
-1.37936e-07
8.49872e-07
-1.34846e-07
8.92991e-07
-1.31776e-07
9.35159e-07
-1.28758e-07
9.76395e-07
-1.25806e-07
1.01672e-06
-1.22927e-07
1.05615e-06
-1.20122e-07
1.09471e-06
-1.17391e-07
1.13241e-06
-1.14733e-07
1.16928e-06
-1.12146e-07
1.20535e-06
-1.09631e-07
1.24063e-06
-1.07186e-07
1.27514e-06
-1.04811e-07
1.30891e-06
-1.02507e-07
1.34196e-06
-1.00272e-07
1.37431e-06
-9.81069e-08
1.40598e-06
-9.60104e-08
1.437e-06
-9.39821e-08
1.46739e-06
-9.20216e-08
1.49716e-06
-9.0129e-08
1.52635e-06
-8.83043e-08
1.55497e-06
-8.65473e-08
1.58304e-06
-8.48581e-08
1.61059e-06
-8.32361e-08
1.63764e-06
-8.1681e-08
1.66421e-06
-8.01916e-08
1.69031e-06
-7.87665e-08
1.71598e-06
-7.74032e-08
1.74122e-06
-7.6098e-08
1.76605e-06
-7.48457e-08
1.79049e-06
-7.36383e-08
1.81455e-06
-7.24649e-08
1.83823e-06
-7.13097e-08
1.86155e-06
-7.01514e-08
1.88447e-06
-6.89593e-08
1.907e-06
-6.76926e-08
1.92909e-06
-6.62931e-08
1.95068e-06
-6.46807e-08
1.97168e-06
-6.27419e-08
1.99196e-06
-6.03136e-08
2.01131e-06
-5.7155e-08
2.02944e-06
-5.2903e-08
2.04594e-06
-4.6966e-08
2.06018e-06
-3.84049e-08
2.07139e-06
-2.54648e-08
2.07871e-06
-5.27233e-09
2.08258e-06
2.76426e-08
8.56594e-08
2.0851e-06
9.23641e-08
-6.15895e-07
6.09434e-08
-5.12847e-07
1.19243e-08
-3.67293e-07
-4.57129e-08
-2.34475e-07
-1.15768e-07
-1.07618e-07
-2.01703e-07
1.49007e-08
-3.06534e-07
1.33334e-07
-4.32675e-07
2.47309e-07
-5.82727e-07
3.56566e-07
-7.60091e-07
4.61213e-07
-9.69528e-07
5.61836e-07
-1.21528e-06
6.59728e-07
-1.49583e-06
7.56054e-07
-1.80013e-06
8.49798e-07
-2.10936e-06
9.36525e-07
-2.40409e-06
1.00983e-06
-2.67016e-06
1.06402e-06
-2.89953e-06
1.09598e-06
-3.08905e-06
1.10532e-06
-3.23932e-06
1.09381e-06
-3.35463e-06
1.06446e-06
-3.44177e-06
1.02063e-06
-3.50803e-06
9.66113e-07
-3.55983e-06
9.04735e-07
-3.60261e-06
8.39688e-07
-3.64072e-06
7.73591e-07
-3.67735e-06
7.08534e-07
-3.71451e-06
6.46041e-07
-3.75317e-06
5.87096e-07
-3.79358e-06
5.32203e-07
-3.83555e-06
4.81507e-07
-3.87859e-06
4.34924e-07
-3.92205e-06
3.92218e-07
-3.96526e-06
3.53068e-07
-4.00755e-06
3.17111e-07
-4.04835e-06
2.83978e-07
-4.08715e-06
2.53314e-07
-4.12355e-06
2.24788e-07
-4.1572e-06
1.98103e-07
-4.18783e-06
1.72995e-07
-4.21522e-06
1.49237e-07
-4.23918e-06
1.26634e-07
-4.25957e-06
1.0502e-07
-4.27627e-06
8.42545e-08
-4.28917e-06
6.42189e-08
-4.29818e-06
4.48122e-08
-4.30323e-06
2.59487e-08
-4.30426e-06
7.55222e-09
-4.30126e-06
-1.04507e-08
-4.29425e-06
-2.81206e-08
-4.2833e-06
-4.54847e-08
-4.26847e-06
-6.25392e-08
-4.24978e-06
-7.92715e-08
-4.2273e-06
-9.56686e-08
-4.20108e-06
-1.11717e-07
-4.17118e-06
-1.27402e-07
-4.13767e-06
-1.42708e-07
-4.10064e-06
-1.57618e-07
-4.06017e-06
-1.72114e-07
-4.01636e-06
-1.86179e-07
-3.96931e-06
-1.99793e-07
-3.91912e-06
-2.12939e-07
-3.86591e-06
-2.25596e-07
-3.8098e-06
-2.37748e-07
-3.7509e-06
-2.49386e-07
-3.68934e-06
-2.60493e-07
-3.62525e-06
-2.71057e-07
-3.55876e-06
-2.81068e-07
-3.48999e-06
-2.90518e-07
-3.4191e-06
-2.99401e-07
-3.3462e-06
-3.07713e-07
-3.27144e-06
-3.15452e-07
-3.19496e-06
-3.22619e-07
-3.11688e-06
-3.29216e-07
-3.03736e-06
-3.35247e-07
-2.95651e-06
-3.40716e-07
-2.87448e-06
-3.45633e-07
-2.79139e-06
-3.50006e-07
-2.70737e-06
-3.53845e-07
-2.62256e-06
-3.57163e-07
-2.53707e-06
-3.59973e-07
-2.45102e-06
-3.6229e-07
-2.36453e-06
-3.6413e-07
-2.27772e-06
-3.65508e-07
-2.1907e-06
-3.66443e-07
-2.10357e-06
-3.66951e-07
-2.01644e-06
-3.67051e-07
-1.92941e-06
-3.66761e-07
-1.84259e-06
-3.66098e-07
-1.75606e-06
-3.65077e-07
-1.66992e-06
-3.63713e-07
-1.58427e-06
-3.62016e-07
-1.49918e-06
-3.59993e-07
-1.41472e-06
-3.57645e-07
-1.33093e-06
-3.54976e-07
-1.24787e-06
-3.51994e-07
-1.16555e-06
-3.48721e-07
-1.08402e-06
-3.45187e-07
-1.00333e-06
-3.41427e-07
-9.23532e-07
-3.37473e-07
-8.44675e-07
-3.33346e-07
-7.66803e-07
-3.29066e-07
-6.89954e-07
-3.24648e-07
-6.14162e-07
-3.20107e-07
-5.39456e-07
-3.15456e-07
-4.6586e-07
-3.10707e-07