/*--------------------------------*- C++ -*----------------------------------*\
  =========                 |
  \\      /  F ield         | OpenFOAM: The Open Source CFD Toolbox
   \\    /   O peration     | Website:  https://openfoam.org
    \\  /    A nd           | Version:  8
     \\/     M anipulation  |
\*---------------------------------------------------------------------------*/
FoamFile
{
    version     2.0;
    format      ascii;
    class       volVectorField;
    location    "1800";
    object      wallShearStress;
}
// * * * * * * * * * * * * * * * * * * * * * * * * * * * * * * * * * * * * * //

dimensions      [0 2 -2 0 0 0 0];

internalField   uniform (0 0 0);

boundaryField
{
    inlet
    {
        type            calculated;
        value           uniform (0 0 0);
    }
    outlet
    {
        type            calculated;
        value           uniform (0 0 0);
    }
    upperWall
    {
        type            calculated;
        value           nonuniform List<vector> 
223
(
(-0.582193 -0.392359 0)
(-0.977814 -0.219377 0)
(-0.939336 -0.0567747 0)
(-0.81071 -0.00585788 0)
(-0.734594 0.00331369 0)
(-0.695452 0.00231539 0)
(-0.67094 0.000424292 0)
(-0.6535 -0.00144897 0)
(-0.640541 -0.00256682 0)
(-0.629801 -0.00217397 0)
(-0.620128 -0.00134621 0)
(-0.610876 -0.00098522 0)
(-0.603119 -0.00163208 0)
(-0.597043 -0.00155398 0)
(-0.590603 0.000492317 0)
(-0.584434 0.000986316 0)
(-0.579778 -0.000241678 0)
(-0.575269 0.00087087 0)
(-0.570772 0.00263073 0)
(-0.567432 0.00184027 4.23337e-22)
(-0.564756 0.00123548 0)
(-0.561951 0.00280866 0)
(-0.558577 0.00308048 0)
(-0.55551 0.00260441 4.46788e-22)
(-0.552861 0.00288839 0)
(-0.550045 0.00332083 0)
(-0.547175 0.00352769 0)
(-0.544236 0.00352749 -9.38439e-22)
(-0.541362 0.00306558 9.46615e-22)
(-0.538646 0.00261293 9.57004e-22)
(-0.535973 0.00248509 0)
(-0.533262 0.00219313 -9.78956e-22)
(-0.530613 0.00193281 0)
(-0.527977 0.00173296 1.0019e-21)
(-0.525334 0.00156353 1.01395e-21)
(-0.522682 0.00143378 -1.02649e-21)
(-0.52001 0.00132948 0)
(-0.517323 0.00124712 0)
(-0.514617 0.00118384 0)
(-0.511886 0.00113556 0)
(-0.509129 0.00109917 -1.0911e-21)
(-0.506342 0.00107246 0)
(-0.503523 0.00105342 0)
(-0.50067 0.00104091 1.13118e-21)
(-0.497778 0.00103386 0)
(-0.494845 0.00103129 1.15764e-21)
(-0.491867 0.0010325 -1.17062e-21)
(-0.488842 0.00103676 1.18336e-21)
(-0.485765 0.00104379 0)
(-0.482634 0.0010521 0)
(-0.479449 0.00106102 0)
(-0.476211 0.00106962 1.23087e-21)
(-0.472925 0.00107658 -1.24154e-21)
(-0.469603 0.0010821 0)
(-0.46626 0.00108733 0)
(-0.462911 0.00109266 0)
(-0.459566 0.00109726 0)
(-0.456232 0.0011001 0)
(-0.452907 0.00110019 0)
(-0.44959 0.00109779 0)
(-0.44627 0.00109356 0)
(-0.442938 0.00108838 1.29209e-21)
(-0.439583 0.00108353 -1.29187e-21)
(-0.436194 0.00107984 0)
(-0.432761 0.00107798 0)
(-0.42927 0.00107811 0)
(-0.425716 0.00108027 -1.27849e-21)
(-0.422088 0.0010844 0)
(-0.41838 0.0010902 0)
(-0.414587 0.00109729 0)
(-0.410704 0.00110532 0)
(-0.406727 0.00111381 0)
(-0.402655 0.0011222 -2.43457e-21)
(-0.398486 0.00113 0)
(-0.394223 0.00113665 0)
(-0.389868 0.00114164 0)
(-0.385426 0.00114476 0)
(-0.380907 0.00114591 0)
(-0.376321 0.00114491 0)
(-0.371682 0.00114159 0)
(-0.367001 0.00113557 2.09545e-21)
(-0.362287 0.0011267 0)
(-0.357551 0.00111515 0)
(-0.352794 0.00110122 0)
(-0.348021 0.00108539 -1.83975e-21)
(-0.343231 0.00106822 0)
(-0.338421 0.00105034 -1.6903e-21)
(-0.33359 0.00103243 0)
(-0.328731 0.00101537 0)
(-0.323836 0.000999875 0)
(-0.319024 0.000992047 -1.35104e-21)
(-0.316384 0.00100119 0)
(-0.313659 0.00101508 1.18053e-21)
(-0.310854 0.00102968 1.08982e-21)
(-0.307975 0.00104289 0)
(-0.30503 0.00105379 8.9609e-22)
(-0.302033 0.00106258 0)
(-0.298996 0.00106977 0)
(-0.295934 0.00107751 0)
(-0.292862 0.00108359 -4.54559e-22)
(-0.289791 0.00109682 0)
(-0.28674 0.00109563 -2.05045e-22)
(-0.283709 0.00110498 7.30425e-23)
(-0.280729 0.00110722 0)
(-0.277786 0.00111099 0)
(-0.274916 0.00111775 0)
(-0.272107 0.00108908 0)
(-0.269363 0.00113913 0)
(-0.266737 0.00109932 0)
(-0.264156 0.00127184 0)
(-0.26168 0.00120618 1.14536e-21)
(-0.259198 0.00067575 0)
(-0.256772 0.000506719 0)
(-0.254567 0.000602118 0)
(-0.252424 0.000839951 0)
(-0.250449 0.000999223 0)
(-0.248514 0.00130445 0)
(-0.246605 0.00127896 0)
(-0.244626 0.000704536 0)
(-0.242529 0.000641384 0)
(-0.240561 0.000743523 0)
(-0.23848 0.000963799 0)
(-0.236692 0.00138906 0)
(-0.235192 0.00107248 7.13142e-21)
(-0.233581 0.000927934 0)
(-0.232385 0.000817874 0)
(-0.230775 0.000761042 0)
(-0.229399 0.00106278 -8.73608e-21)
(-0.228112 0.000670869 0)
(-0.226312 0.000584689 0)
(-0.22505 0.000807063 -9.99021e-21)
(-0.223664 0.000847018 0)
(-0.222362 0.000216099 1.08399e-20)
(-0.220678 -0.00040092 0)
(-0.21899 -0.000167443 0)
(-0.217821 5.28599e-05 0)
(-0.216532 0.000202263 -1.26321e-20)
(-0.215305 0.000267953 0)
(-0.214397 0.000262677 1.34071e-20)
(-0.213083 0.000286703 0)
(-0.21194 0.00034832 0)
(-0.210901 0.000378697 0)
(-0.209955 0.000370622 0)
(-0.209158 0.000398797 0)
(-0.208016 0.000379157 0)
(-0.207021 0.000489575 0)
(-0.206142 0.000512728 0)
(-0.205373 0.000431558 0)
(-0.204366 0.000765344 0)
(-0.203821 0.00103798 0)
(-0.2029 0.000937777 1.84385e-20)
(-0.202526 0.000255235 -1.87706e-20)
(-0.201309 -0.000283048 0)
(-0.200508 -8.34875e-05 0)
(-0.200042 5.43224e-05 0)
(-0.199531 0.000110678 0)
(-0.199069 0.000167587 -2.09401e-20)
(-0.198531 0.000180261 2.13657e-20)
(-0.198174 0.000199499 -2.17453e-20)
(-0.197308 0.000234575 0)
(-0.196966 0.000230522 -2.2527e-20)
(-0.196647 0.000232118 -4.58754e-20)
(-0.19593 0.000247833 0)
(-0.195216 0.000244804 -4.77365e-20)
(-0.194949 0.000249779 4.83579e-20)
(-0.194355 0.000275853 0)
(-0.193781 0.00021854 0)
(-0.19362 0.000213377 0)
(-0.193342 0.000225257 0)
(-0.193065 0.000229064 0)
(-0.192628 0.000329262 -5.34559e-20)
(-0.192317 0.000499467 0)
(-0.191898 0.000580352 -5.5048e-20)
(-0.191254 0.000681416 0)
(-0.191469 0.000776281 0)
(-0.191047 0.000630812 0)
(-0.190376 0.000526887 0)
(-0.190132 5.36185e-05 0)
(-0.188987 -0.000332557 6.11206e-20)
(-0.187728 -0.000120623 0)
(-0.186882 3.88947e-05 0)
(-0.186334 0.000191204 -6.42123e-20)
(-0.185723 0.00021284 0)
(-0.185415 0.000392701 0)
(-0.184475 0.000775387 0)
(-0.183621 0.000437908 6.85727e-20)
(-0.182013 6.26019e-05 0)
(-0.180101 0.000228418 0)
(-0.178555 0.000341457 0)
(-0.17673 0.000400968 0)
(-0.174718 0.000471973 -7.74112e-20)
(-0.172543 0.00059393 0)
(-0.169655 0.000928891 0)
(-0.166141 0.00122482 0)
(-0.161921 0.00103917 8.7903e-20)
(-0.15469 0.00110018 0)
(-0.147503 0.00215581 0)
(-0.12293 0.00224563 -1.08208e-19)
(-0.140871 0.00684154 6.01853e-36)
(-0.169132 0.0134162 1.25205e-17)
(-0.186777 0.0172117 2.35083e-17)
(-0.193166 0.0189693 2.27362e-17)
(-0.196666 0.0197229 2.20058e-17)
(-0.200886 0.0203361 2.11444e-17)
(-0.205395 0.021036 -2.02448e-17)
(-0.209659 0.0215408 -1.95239e-17)
(-0.213861 0.021886 0)
(-0.218089 0.0220275 -3.66564e-17)
(-0.220224 0.0221881 -1.80746e-17)
(-0.224688 0.0227251 6.9815e-34)
(-0.227511 0.0229067 -1.20371e-35)
(-0.231056 0.0233653 -3.22782e-17)
(-0.235341 0.0239367 -3.06851e-17)
(-0.24234 0.02478 -2.84656e-17)
(-0.249521 0.0254454 -2.40741e-35)
(-0.256863 0.0260685 4.94035e-17)
(-0.263912 0.026648 2.2646e-17)
(-0.272754 0.0274466 2.40741e-35)
(-0.282658 0.0283575 -3.48616e-17)
(-0.291217 0.0289996 -1.58069e-20)
(-0.300882 0.0295777 -3.00927e-36)
(-0.304437 0.0304167 1.34849e-17)
(-0.332561 0.0321495 -7.62886e-18)
)
;
    }
    lowerWall
    {
        type            calculated;
        value           nonuniform List<vector> 
250
(
(-0.653909 0.466638 0)
(-1.14095 0.204678 0)
(-1.03492 0.0379587 0)
(-0.869573 -0.000935989 0)
(-0.786941 -0.00419162 0)
(-0.746063 -0.00160782 0)
(-0.719878 0.000416171 0)
(-0.700645 -0.00065181 0)
(-0.685088 -0.00405595 0)
(-0.671318 -0.00471222 0)
(-0.658933 -0.00298821 0)
(-0.64772 -0.000864234 0)
(-0.637516 0.00142606 0)
(-0.628189 0.00210389 0)
(-0.61932 0.00136794 0)
(-0.611521 0.00135749 0)
(-0.60458 0.00169581 0)
(-0.605068 0.00194302 0)
(-0.00426043 -0.0228582 0)
(-0.00275889 -0.0176428 0)
(-0.000676932 -0.0144934 0)
(0.00194465 -0.0137779 9.02289e-20)
(0.00526908 -0.0151984 -7.86218e-20)
(0.00896191 -0.0208214 6.28517e-20)
(0.0127405 -0.0200867 -4.84756e-20)
(0.0256279 -0.0633152 0)
(-0.0840641 -0.144715 0)
(0.00087247 -0.00384049 0)
(-0.00766536 0.009547 0)
(-0.00851598 0.0328216 0)
(-0.0025493 0.044855 0)
(0.00295341 0.0442611 1.8223e-20)
(0.00618277 0.0360628 -1.89665e-20)
(0.00818728 0.0241607 0)
(0.00946055 0.0101603 -5.42315e-20)
(0.00943168 -0.00404278 6.11459e-20)
(0.00793324 -0.0174228 0)
(0.00614119 -0.0291953 0)
(0.00438168 -0.0385629 0)
(0.00268713 -0.0451402 0)
(0.000985951 -0.0488797 0)
(-0.000885192 -0.0495149 0)
(-0.00282054 -0.0464084 0)
(-0.00437901 -0.0399029 0)
(-0.00492618 -0.0308271 0)
(0.00132869 -0.0015121 0)
(0.001338 0.00652736 0)
(-0.00450925 0.00961871 0)
(-0.00959721 0.00975655 0)
(-0.0133832 0.00829954 0)
(-0.0158893 0.00623521 0)
(-0.0172643 0.00409764 1.49579e-21)
(-0.017783 0.00200613 -1.5274e-21)
(-0.0173315 -6.97343e-06 0)
(-0.0160539 -0.00168622 -1.65314e-21)
(-0.0141885 -0.0028375 0)
(-0.0120505 -0.00329639 0)
(-0.0100508 -0.00303583 -0)
(-0.00855317 -0.00228026 2.57037e-21)
(-0.00761648 -0.00142306 0)
(-0.00693815 -0.00081589 0)
(-0.00612057 -0.000623474 -3.3783e-21)
(-0.0049929 -0.00100051 0)
(-0.00340846 -0.002386 0)
(-0.000488453 -0.00505767 0)
(0.00436097 -0.0074037 3.03316e-21)
(0.00994594 -0.00889518 0)
(0.015847 -0.00985002 1.46919e-21)
(0.0218925 -0.0106169 0)
(0.0280981 -0.0112689 -0)
(0.0344085 -0.0115143 8.44724e-22)
(0.0405411 -0.0113547 0)
(0.0491491 -0.0116032 -7.54066e-22)
(0.0589391 -0.0117553 -0)
(0.0686334 -0.0115827 7.70726e-22)
(0.0780424 -0.0111689 0)
(0.0870153 -0.0105841 0)
(0.0954597 -0.00989004 0)
(0.103317 -0.00913657 -0)
(0.110564 -0.0083607 0)
(0.117197 -0.00758952 -8.11176e-22)
(0.12323 -0.00684034 -0)
(0.128686 -0.00612261 1.63313e-21)
(0.133591 -0.00544042 0)
(0.137974 -0.00479414 -1.635e-21)
(0.141859 -0.00418199 -0)
(0.145272 -0.00360139 -0)
(0.148232 -0.00304954 1.62109e-21)
(0.150758 -0.00252407 0)
(0.152864 -0.00202401 1.60087e-21)
(0.154562 -0.00155027 -1.58756e-21)
(0.155863 -0.0011063 -0)
(0.156782 -0.000698868 -1.55494e-21)
(0.157328 -0.000337781 -1.53591e-21)
(0.157514 -3.98215e-05 -0)
(0.157409 0.000194729 0)
(0.157077 0.000391591 0)
(0.156523 0.000568233 0)
(0.155762 0.000731071 -0)
(0.154801 0.000884195 1.37584e-21)
(0.153649 0.00102832 0)
(0.152313 0.00116408 -1.30706e-21)
(0.150799 0.00129166 -0)
(0.149117 0.00141126 -0)
(0.147272 0.00152289 1.1906e-21)
(0.145272 0.00162648 0)
(0.143126 0.00172192 -1.10491e-21)
(0.140843 0.00180929 -0)
(0.138429 0.00188864 0)
(0.135896 0.00195985 -0)
(0.13325 0.00202313 9.16882e-22)
(0.130502 0.00207848 0)
(0.12766 0.00212601 -0)
(0.124734 0.00216595 7.63839e-22)
(0.121732 0.00219843 0)
(0.118665 0.00222362 6.57304e-22)
(0.115542 0.0022418 0)
(0.112371 0.00225324 0)
(0.10916 0.0022582 0)
(0.105919 0.00225692 -4.36225e-22)
(0.102657 0.00224974 -0)
(0.0993804 0.00223705 0)
(0.0960976 0.00221908 -2.65625e-22)
(0.0928163 0.00219619 -2.08175e-22)
(0.0895435 0.00216875 -0)
(0.086286 0.00213706 -9.27062e-23)
(0.0830501 0.00210159 -0)
(0.0798416 0.0020626 4.65032e-23)
(0.0766665 0.00202049 -0)
(0.0735294 0.00197575 2.78923e-22)
(0.0704355 0.00192877 0)
(0.0673888 0.00188023 -5.11604e-22)
(0.064393 0.00183085 -0)
(0.0614515 0.00178159 0)
(0.0585668 0.00173381 -0)
(0.0557409 0.00168921 9.78368e-22)
(0.052975 0.00164991 0)
(0.0502697 0.00161808 -1.21381e-21)
(0.0476236 0.00159481 0)
(0.0457847 0.00160347 1.47556e-21)
(0.0442423 0.001621 1.63407e-21)
(0.0427033 0.00162592 1.79899e-21)
(0.0411759 0.00161304 0)
(0.0396654 0.00158972 0)
(0.0381717 0.00156402 0)
(0.0366935 0.00153821 0)
(0.0352306 0.0015125 0)
(0.0337835 0.0014869 0)
(0.0323525 0.00146141 0)
(0.0309385 0.00143619 0)
(0.0295414 0.0014114 -3.69175e-21)
(0.028162 0.00138718 -3.96739e-21)
(0.0268003 0.00136374 0)
(0.0254565 0.00134076 0)
(0.024131 0.00131673 0)
(0.0228251 0.00129183 -5.26736e-21)
(0.021539 0.00126762 0)
(0.0202723 0.00124397 0)
(0.0190253 0.0012209 0)
(0.0177979 0.00119848 0)
(0.0165902 0.00117675 7.53599e-21)
(0.0154024 0.0011558 0)
(0.0142342 0.00113572 0)
(0.0130856 0.00111661 -9.45484e-21)
(0.0119565 0.0010985 1.02324e-20)
(0.0108469 0.00108149 0)
(0.00975674 0.00106587 1.20688e-20)
(0.00868589 0.00105229 0)
(0.007634 0.00104192 -1.44072e-20)
(0.0066004 0.00103504 0)
(0.00558476 0.00103064 0)
(0.00458701 0.00102842 0)
(0.00360675 0.00102872 0)
(0.0026435 0.00103176 0)
(0.00169776 0.00103748 5.57117e-20)
(0.000771004 0.00104307 6.42223e-20)
(-0.000138811 0.00103036 0)
(-0.00103611 0.000987522 0)
(-0.00191794 0.000935132 0)
(-0.00278427 0.000885637 -5.2886e-20)
(-0.003635 0.000840715 0)
(-0.00446991 0.000799959 0)
(-0.00528938 0.000762891 0)
(-0.00609404 0.00072901 -4.04141e-20)
(-0.00688438 0.000697859 3.83644e-20)
(-0.00766096 0.00066906 0)
(-0.00842419 0.000642303 0)
(-0.00917458 0.000617351 3.36172e-20)
(-0.00991253 0.000593998 3.23772e-20)
(-0.0106385 0.000572086 0)
(-0.0113528 0.000551474 0)
(-0.012056 0.000532052 -2.93522e-20)
(-0.0127485 0.000513726 2.85246e-20)
(-0.0134307 0.000496414 0)
(-0.014103 0.000480044 0)
(-0.0147658 0.000464555 2.64351e-20)
(-0.0154197 0.000449894 0)
(-0.016065 0.000436017 0)
(-0.0167021 0.000422882 2.479e-20)
(-0.0173317 0.000410447 0)
(-0.017954 0.000398686 2.38741e-20)
(-0.0185696 0.000387561 0)
(-0.0191789 0.000377047 0)
(-0.0197824 0.000367109 0)
(-0.0203806 0.000357709 -2.23583e-20)
(-0.0209738 0.000348832 0)
(-0.0215627 0.000340423 0)
(-0.0221473 0.00033243 0)
(-0.0227282 0.000324801 0)
(-0.0233056 0.000317424 0)
(-0.0238792 0.000310216 0)
(-0.0244493 0.000303037 -2.03853e-20)
(-0.0250153 0.00029566 -2.0155e-20)
(-0.0255763 0.000287838 0)
(-0.0261312 0.000279174 0)
(-0.0266774 0.000269126 0)
(-0.0272116 0.000256993 1.93604e-20)
(-0.0277289 0.00024152 0)
(-0.0282207 0.000221283 -3.81348e-20)
(-0.0286776 0.000192234 3.79286e-20)
(-0.0290705 0.000152596 3.78195e-20)
(-0.0294016 7.78673e-05 -3.7858e-20)
(-0.0294833 -3.94011e-05 3.80452e-20)
(-0.0295078 -0.000356561 -3.83976e-20)
(-0.0279732 -0.000616872 0)
(-0.0293457 -0.000516191 -2.43317e-18)
(-0.0327695 -0.00134236 -2.26976e-18)
(-0.0364128 -0.00203333 -3.00927e-36)
(-0.0395336 -0.00257601 -4.06087e-18)
(-0.0424836 -0.00301857 -7.7578e-18)
(-0.0455558 -0.00342158 -3.71958e-18)
(-0.0487793 -0.0038189 3.56806e-18)
(-0.0521142 -0.0042994 -3.00927e-35)
(-0.0555986 -0.00475648 0)
(-0.059292 -0.00507214 3.15037e-18)
(-0.0632318 -0.00539393 3.03021e-18)
(-0.0674211 -0.0058202 3.00927e-36)
(-0.0719124 -0.00627453 0)
(-0.0767339 -0.00671522 0)
(-0.0819297 -0.00720099 -1.52344e-35)
(-0.0875492 -0.00774137 9.65786e-35)
(-0.0936651 -0.00834232 1.77547e-34)
(-0.100334 -0.00900648 -4.158e-18)
(-0.107695 -0.00972801 -3.81224e-18)
(-0.116755 -0.0106218 1.20371e-35)
(-0.12757 -0.0116257 6.13669e-18)
(-0.138424 -0.0127329 1.03491e-17)
(-0.153648 -0.0139264 1.20371e-35)
(-0.162847 -0.0152935 -5.09792e-18)
(-0.191961 -0.0169813 -2.10649e-35)
)
;
    }
    frontAndBack
    {
        type            empty;
    }
}


// ************************************************************************* //
