/*--------------------------------*- C++ -*----------------------------------*\
| =========                 |                                                 |
| \\      /  F ield         | OpenFOAM: The Open Source CFD Toolbox           |
|  \\    /   O peration     | Version:  v2012                                 |
|   \\  /    A nd           | Website:  www.openfoam.com                      |
|    \\/     M anipulation  |                                                 |
\*---------------------------------------------------------------------------*/
FoamFile
{
    version     2.0;
    format      ascii;
    class       volScalarField;
    location    "4700";
    object      nut;
}
// * * * * * * * * * * * * * * * * * * * * * * * * * * * * * * * * * * * * * //

dimensions      [0 2 -1 0 0 0 0];


internalField   nonuniform List<scalar> 
12225
(
0.0122671
0.00158819
0.000666128
0.000410104
0.00029404
0.000227808
0.000186418
0.000144348
0.000166366
0.000215709
0.000223837
0.000214196
0.00019517
0.000167532
0.000161399
0.000145528
0.000132319
0.000120128
0.0323823
0.00744532
0.00330638
0.00204329
0.00146802
0.00114429
0.00093866
0.000784866
0.000690382
0.000626893
0.000569548
0.000518714
0.000475213
0.000435566
0.000404974
0.000372248
0.000347116
0.000321093
0.0490123
0.01515
0.00728196
0.00457854
0.00330639
0.00258047
0.00211327
0.00178187
0.00154675
0.0013725
0.00123146
0.00111528
0.00101835
0.0009361
0.00086669
0.00080429
0.000753561
0.000700994
0.063054
0.0237783
0.0122894
0.00788814
0.00573397
0.00448496
0.0036744
0.00310418
0.00268716
0.00236996
0.0021179
0.00191315
0.00174401
0.00160221
0.00148242
0.0013786
0.00129106
0.00120452
0.074932
0.0328517
0.0181452
0.0119262
0.00874549
0.00686412
0.00563086
0.00476129
0.00411868
0.0036257
0.00323515
0.00291874
0.00265799
0.00244004
0.00225596
0.00209832
0.00196334
0.00183979
0.0849536
0.0420208
0.0246655
0.0166359
0.0123325
0.00972587
0.0079954
0.0067674
0.00585403
0.00515004
0.0045919
0.00413982
0.00376742
0.00345634
0.00319351
0.00296906
0.00277612
0.00260656
0.0933822
0.0510219
0.0316642
0.0219415
0.016474
0.0130717
0.0107779
0.00913539
0.00790597
0.00695436
0.00619832
0.00558531
0.00508009
0.00465801
0.00430136
0.00399702
0.00373534
0.00350913
0.0993794
0.0583363
0.0378386
0.0268568
0.0204171
0.0163053
0.0134892
0.011453
0.00991905
0.0087267
0.00777696
0.00700569
0.00636943
0.00583762
0.00538815
0.00500468
0.00467515
0.00439182
0.104023
0.0645454
0.0433804
0.0314239
0.0241571
0.0194092
0.0161097
0.0137018
0.0118767
0.0104523
0.00931473
0.00838939
0.00762524
0.00698615
0.00644586
0.0059849
0.00558898
0.00524916
0.108368
0.0708939
0.0493757
0.0365496
0.0284517
0.0230231
0.0191863
0.0163548
0.0141927
0.0124969
0.0111382
0.0100305
0.00911456
0.00834784
0.00769936
0.00714607
0.00667097
0.00626328
0.112368
0.0772557
0.0557282
0.0421918
0.0332976
0.0271652
0.0227468
0.0194433
0.0168984
0.0148904
0.013275
0.0119546
0.0108606
0.00994396
0.00916815
0.00850607
0.00793759
0.00744939
0.115994
0.0834975
0.0623053
0.0482611
0.0386474
0.0318167
0.026789
0.0229739
0.0200047
0.0176452
0.0157379
0.0141737
0.012875
0.0117851
0.010862
0.0100738
0.0093969
0.00881484
0.119234
0.0894856
0.0689377
0.0546109
0.0443919
0.0369007
0.0312597
0.0269089
0.0234837
0.02074
0.0185097
0.0166735
0.015145
0.0138601
0.0127705
0.0118397
0.0110398
0.010351
0.122086
0.095084
0.075415
0.0610223
0.0503361
0.0422535
0.0360231
0.0311353
0.0272402
0.0240931
0.0215191
0.0193909
0.0176141
0.0161175
0.0148467
0.0137601
0.0128258
0.0120197
0.124546
0.100135
0.0814619
0.0671726
0.056158
0.047577
0.0408126
0.0354174
0.031066
0.0275197
0.0246013
0.0221778
0.0201482
0.018435
0.0169783
0.0157315
0.0146584
0.0137312
0.126578
0.104396
0.0866605
0.0725515
0.0613228
0.0523526
0.0451453
0.0393148
0.0345631
0.0306611
0.0274325
0.024741
0.0224806
0.020569
0.0189413
0.0175468
0.0163455
0.0153062
0.128011
0.107322
0.0902141
0.0762353
0.0648743
0.0556509
0.0481493
0.0420254
0.0370012
0.0328553
0.0294126
0.0265352
0.0241143
0.0220643
0.0203171
0.0188191
0.0175275
0.0164083
0.128006
0.107313
0.0902048
0.0762269
0.0648674
0.0556454
0.048145
0.0420221
0.0369988
0.0328537
0.0294117
0.0265349
0.0241147
0.0220651
0.0203184
0.0188205
0.0175286
0.0164082
0.126509
0.104255
0.0864922
0.0723807
0.0611613
0.052205
0.0450128
0.0391967
0.0344584
0.0305685
0.0273506
0.0246684
0.0224163
0.0205118
0.0188902
0.0175006
0.0163023
0.015263
0.124267
0.0995604
0.0807712
0.0664676
0.0554886
0.0469631
0.0402594
0.0349227
0.0306248
0.0271258
0.0242487
0.0218611
0.0198625
0.0181762
0.0167425
0.0155151
0.0144574
0.0135404
0.12136
0.0936399
0.0737261
0.0593348
0.0487592
0.0408248
0.0347467
0.0300003
0.0262308
0.0231928
0.0207127
0.018665
0.0169572
0.0155197
0.0142998
0.0132566
0.0123582
0.0115797
0.117686
0.0865903
0.0656967
0.0514791
0.0415374
0.0343608
0.0290183
0.0249322
0.0217348
0.0191848
0.0171184
0.0154211
0.0140105
0.0128262
0.0118228
0.0109656
0.0102279
0.00958885
0.11305
0.0784122
0.056921
0.0432687
0.0342296
0.0279652
0.0234365
0.0200435
0.0174263
0.0153598
0.0136966
0.012337
0.0112107
0.0102671
0.00946864
0.00878715
0.00820096
0.00769339
0.107169
0.0691009
0.0476372
0.035029
0.0271566
0.021922
0.0182437
0.0155401
0.0134818
0.0118707
0.0105819
0.00953231
0.00866515
0.00793987
0.00732684
0.00680388
0.00635416
0.00596493
0.0996761
0.0587036
0.0381279
0.0270699
0.0205782
0.0164329
0.0135949
0.0115437
0.00999934
0.00879952
0.00784422
0.00706852
0.00642881
0.00589437
0.00544294
0.00505787
0.00472677
0.00444033
0.0901097
0.0473665
0.0287363
0.0196847
0.0146976
0.0116311
0.0095785
0.0081152
0.0070235
0.0061808
0.00551234
0.00497023
0.00452347
0.00415031
0.00383523
0.00356617
0.00333487
0.00313482
0.0779076
0.0353826
0.0198606
0.0131383
0.00966105
0.00759295
0.00623349
0.0052741
0.00456425
0.00402037
0.00359043
0.00324078
0.00295221
0.00271068
0.00250689
0.00233184
0.00218168
0.00205156
0.06238
0.0232554
0.0119461
0.00765493
0.00556337
0.00435253
0.0035672
0.00301615
0.00261331
0.00231034
0.00207207
0.00187459
0.00171058
0.00157176
0.00145553
0.00135289
0.00126564
0.00118891
0.0426105
0.0117794
0.0054693
0.00341385
0.0024607
0.00192004
0.00157266
0.00132942
0.0011583
0.0010412
0.000949672
0.000864623
0.000793236
0.000727225
0.000676469
0.000628019
0.000582131
0.000544455
0.0168348
0.00255985
0.00110002
0.000683429
0.000493725
0.000386811
0.000318009
0.000268387
0.000267511
0.000335953
0.000375136
0.000352427
0.000325912
0.000271118
0.000310645
0.000300383
0.000235917
0.000259528
5.28825e-10
1.01557e-07
1.14792e-06
5.16901e-06
9.86213e-06
1.2804e-05
1.31258e-05
1.11698e-05
8.84793e-06
5.76819e-06
3.39683e-06
1.93908e-06
1.35827e-06
1.47262e-06
2.01006e-06
2.47881e-06
2.41132e-06
1.63424e-06
7.3105e-07
3.70825e-07
4.11606e-07
1.22082e-06
5.5208e-06
2.84081e-05
5.71857e-05
7.50094e-05
9.13965e-05
0.000105191
0.00011733
0.000127443
0.000136301
0.000143914
0.000150575
0.000156376
0.000161438
0.000165907
0.000169869
0.000173408
0.000176581
0.000179431
0.000181989
0.000184277
0.000186312
0.00018811
0.000189687
0.000191054
0.000192222
0.000193197
0.000193979
0.000194562
0.000194824
0.000195073
0.000195122
0.000194993
0.000194694
0.000194247
0.000193647
0.000192899
0.000192004
0.000190965
0.000189782
0.00018846
0.000186999
0.000185402
0.000183672
0.000181812
0.000179821
0.000177702
0.000175458
0.000173092
0.000170605
0.000167999
0.000165276
0.000162437
0.000159484
0.000156418
0.000153238
0.000149946
0.000146539
0.000143018
0.000139378
0.000135617
0.000131731
0.000127713
0.000123556
0.00011925
0.000114784
0.000110142
0.000105305
0.000100249
9.49457e-05
8.93685e-05
8.35101e-05
7.74389e-05
7.14354e-05
6.61754e-05
6.24473e-05
6.01238e-05
5.83764e-05
5.67717e-05
5.51958e-05
5.36275e-05
5.20655e-05
5.05113e-05
4.89669e-05
4.74342e-05
4.59159e-05
4.44183e-05
4.297e-05
4.17375e-05
4.05332e-05
3.93438e-05
3.81715e-05
3.70171e-05
3.58815e-05
3.47655e-05
3.36698e-05
3.25952e-05
3.15423e-05
3.05115e-05
2.95032e-05
2.85178e-05
2.7556e-05
2.6618e-05
2.57042e-05
2.48142e-05
2.39495e-05
2.31401e-05
2.24058e-05
2.16902e-05
2.09894e-05
2.03127e-05
1.96639e-05
1.90286e-05
1.84075e-05
1.78034e-05
1.72175e-05
1.66497e-05
1.61e-05
1.55679e-05
1.50532e-05
1.45552e-05
1.40737e-05
1.36081e-05
1.31581e-05
1.27233e-05
1.23032e-05
1.18975e-05
1.15058e-05
1.11277e-05
1.07628e-05
1.0411e-05
1.00716e-05
9.74458e-06
9.42945e-06
9.12597e-06
8.83385e-06
8.55286e-06
8.28276e-06
8.02334e-06
7.77441e-06
7.53579e-06
7.30731e-06
7.08878e-06
6.88001e-06
6.68071e-06
6.49061e-06
6.30924e-06
6.13607e-06
5.97035e-06
5.81116e-06
5.65741e-06
5.50702e-06
5.35989e-06
5.20666e-06
5.06295e-06
4.8599e-06
4.71812e-06
4.30409e-06
3.6811e-06
3.34219e-09
6.0373e-06
6.15653e-05
0.000137854
0.000181892
0.000206004
0.000215527
0.000214027
0.000205551
0.000188722
0.000167812
0.000147704
0.000137585
0.000143057
0.000156895
0.000165304
0.000167413
0.000168285
0.000173767
0.000183537
0.000199767
0.000218068
0.00023517
0.000251142
0.000262456
0.000272241
0.000281088
0.000294271
0.000313161
0.000327065
0.000339738
0.000350623
0.000360525
0.00036958
0.000377455
0.000384646
0.000391346
0.000397777
0.000404068
0.000410284
0.000416419
0.000422431
0.000428266
0.000433885
0.000439259
0.000444371
0.000449206
0.000453753
0.000458012
0.000461989
0.000465694
0.000469148
0.00047234
0.000475281
0.000477971
0.000480411
0.000482603
0.000484547
0.000486244
0.000487694
0.000488897
0.000489855
0.00049057
0.000491046
0.000491293
0.000491318
0.000491112
0.000490674
0.000490021
0.000489154
0.000488081
0.000486808
0.000485341
0.000483688
0.000481856
0.000479851
0.000477682
0.000475355
0.000472878
0.000470259
0.000467506
0.000464627
0.000461629
0.000458521
0.000455311
0.000452007
0.000448618
0.000445151
0.000441616
0.000438019
0.000434368
0.000430667
0.000426915
0.000423105
0.000419217
0.000415226
0.000411115
0.000406915
0.000402674
0.000398417
0.000394152
0.000389884
0.000385614
0.000381347
0.000377086
0.000372834
0.000368595
0.00036437
0.00036016
0.000355962
0.000351787
0.000347639
0.000343521
0.000339434
0.00033538
0.00033136
0.000327376
0.00032343
0.000319523
0.000315656
0.000311829
0.000308044
0.000304302
0.000300605
0.000296952
0.000293343
0.000289779
0.000286258
0.000282778
0.000279344
0.000275953
0.000272614
0.000269327
0.000266076
0.000262861
0.000259687
0.000256557
0.000253471
0.000250432
0.000247436
0.000244485
0.000241578
0.000238714
0.000235892
0.000233112
0.000230373
0.000227675
0.000225017
0.000222399
0.00021982
0.000217281
0.00021478
0.000212318
0.000209896
0.000207511
0.000205166
0.00020286
0.000200595
0.00019837
0.000196187
0.000194048
0.000191953
0.000189905
0.000187906
0.000185958
0.000184061
0.000182217
0.000180427
0.000178689
0.000177002
0.000175362
0.000173767
0.000172197
0.000170683
0.000169091
0.000167748
0.000165701
0.000165109
0.000162039
0.000160575
7.63328e-08
3.98467e-05
0.000162907
0.000245622
0.000298886
0.000329078
0.000339964
0.000336946
0.00032395
0.000304605
0.000284903
0.000272505
0.000270554
0.000277529
0.000288072
0.000299114
0.000312179
0.000329347
0.000351001
0.000376363
0.000403793
0.000432009
0.000471305
0.000517481
0.000563078
0.000607154
0.000650212
0.000693858
0.000732918
0.000763989
0.000788822
0.000808514
0.000824129
0.000836523
0.000846477
0.000854762
0.000862074
0.000869055
0.000876237
0.000883973
0.000892364
0.000901288
0.000910503
0.000919775
0.000928927
0.000937841
0.00094644
0.000954677
0.000962515
0.000969927
0.000976886
0.000983371
0.000989372
0.000994885
0.000999907
0.00100444
0.00100848
0.00101202
0.00101508
0.00101764
0.0010197
0.00102128
0.00102236
0.0010229
0.00102306
0.00102277
0.00102198
0.00102073
0.00101904
0.00101692
0.00101438
0.00101144
0.0010081
0.00100438
0.0010003
0.000995867
0.000991098
0.000986009
0.000980613
0.000974927
0.000968965
0.000962743
0.000956275
0.000949578
0.000942665
0.000935552
0.000928254
0.000920785
0.000913159
0.000905388
0.000897485
0.000889462
0.000881326
0.000873087
0.000864752
0.000856331
0.000847837
0.000839286
0.000830694
0.000822074
0.000813438
0.000804793
0.000796148
0.000787511
0.000778888
0.000770288
0.000761715
0.000753176
0.000744677
0.000736223
0.00072782
0.000719473
0.000711187
0.000702966
0.000694813
0.000686732
0.000678725
0.000670797
0.000662949
0.000655183
0.000647502
0.000639908
0.000632401
0.000624986
0.000617661
0.000610429
0.000603288
0.000596241
0.000589287
0.000582427
0.000575661
0.000568991
0.000562414
0.000555924
0.00054952
0.000543205
0.000536981
0.000530848
0.000524807
0.000518856
0.000512996
0.000507226
0.000501543
0.000495948
0.000490438
0.000485014
0.000479673
0.000474415
0.000469238
0.000464141
0.000459124
0.000454185
0.000449323
0.000444536
0.000439825
0.000435188
0.000430623
0.00042613
0.000421707
0.000417354
0.000413067
0.000408847
0.000404691
0.000400596
0.000396561
0.000392582
0.000388655
0.000384775
0.000380935
0.000377125
0.000373335
0.00036955
0.000365743
0.000361905
0.000357935
0.000353931
0.000349396
0.000345147
0.000338586
0.000326876
6.16282e-07
8.21635e-05
0.000213022
0.000308841
0.000372271
0.000409349
0.000424633
0.000424847
0.000414749
0.000401421
0.000393589
0.000393023
0.000402623
0.00042012
0.000443112
0.000471098
0.000504661
0.000544071
0.000588494
0.000652317
0.000726425
0.000806384
0.000890254
0.000960512
0.00102267
0.00107857
0.00112878
0.00117349
0.00121257
0.00124629
0.00127541
0.00130064
0.00132269
0.00134218
0.00135967
0.00137567
0.00139058
0.00140473
0.00141839
0.00143174
0.0014449
0.00145795
0.00147091
0.00148376
0.00149646
0.00150891
0.00152104
0.00153274
0.00154392
0.00155452
0.00156447
0.00157374
0.00158231
0.00159017
0.0015973
0.00160371
0.00160938
0.00161431
0.00161851
0.00162197
0.00162469
0.00162666
0.00162782
0.00162825
0.00162812
0.00162721
0.00162558
0.00162326
0.00162026
0.0016166
0.0016123
0.00160738
0.00160185
0.00159575
0.00158909
0.00158189
0.00157418
0.00156599
0.00155732
0.00154821
0.00153868
0.00152874
0.00151844
0.00150778
0.0014968
0.0014855
0.00147393
0.00146209
0.00145001
0.00143771
0.00142521
0.00141252
0.00139967
0.00138667
0.00137354
0.00136029
0.00134694
0.00133351
0.00132002
0.00130649
0.00129293
0.00127935
0.00126578
0.00125222
0.00123869
0.00122519
0.00121173
0.00119833
0.00118499
0.00117172
0.00115854
0.00114544
0.00113243
0.00111953
0.00110673
0.00109404
0.00108148
0.00106903
0.0010567
0.00104451
0.00103244
0.00102051
0.00100872
0.000997066
0.000985553
0.000974183
0.000962956
0.000951873
0.000940936
0.000930144
0.000919499
0.000909
0.000898644
0.000888426
0.000878347
0.000868407
0.000858608
0.00084895
0.000839433
0.000830056
0.000820818
0.000811718
0.000802755
0.000793926
0.00078523
0.000776666
0.000768231
0.000759924
0.000751743
0.000743686
0.000735751
0.000727937
0.000720242
0.000712664
0.000705201
0.000697851
0.000690613
0.000683485
0.000676463
0.000669547
0.000662734
0.00065602
0.000649404
0.000642881
0.000636448
0.000630099
0.000623829
0.000617629
0.000611491
0.000605402
0.000599345
0.000593299
0.000587234
0.000581116
0.00057487
0.000568472
0.000561642
0.000554641
0.000546182
0.000529929
1.39974e-06
0.000101871
0.000234941
0.000354671
0.000433292
0.000480507
0.000503937
0.000512339
0.000513972
0.000515198
0.000522454
0.000539032
0.000565504
0.000600879
0.000644391
0.000696081
0.000756756
0.000840665
0.000936751
0.00103249
0.00112126
0.00120542
0.0012845
0.00135694
0.00142347
0.00148468
0.00154097
0.00159266
0.00164011
0.00168376
0.00172409
0.00176158
0.00179665
0.00182967
0.00186096
0.00189077
0.00191929
0.00194666
0.00197297
0.00199828
0.00202263
0.00204602
0.00206846
0.00208992
0.00211038
0.0021298
0.00214817
0.00216544
0.00218159
0.00219661
0.00221048
0.0022232
0.00223479
0.00224526
0.00225463
0.00226291
0.00227012
0.00227628
0.00228141
0.00228551
0.0022886
0.00229065
0.00229156
0.00229165
0.00229077
0.00228889
0.00228605
0.00228228
0.00227758
0.002272
0.00226555
0.00225826
0.00225016
0.00224128
0.00223164
0.00222129
0.00221024
0.00219853
0.0021862
0.00217327
0.00215977
0.00214573
0.00213119
0.00211618
0.00210073
0.00208486
0.00206861
0.00205201
0.00203509
0.00201787
0.00200039
0.00198266
0.00196472
0.00194658
0.00192827
0.00190982
0.00189124
0.00187256
0.0018538
0.00183499
0.00181614
0.00179729
0.00177843
0.00175959
0.00174079
0.00172205
0.00170336
0.00168475
0.00166623
0.00164781
0.0016295
0.00161131
0.00159326
0.00157534
0.00155757
0.00153995
0.0015225
0.00150521
0.00148809
0.00147115
0.00145438
0.00143781
0.00142142
0.00140522
0.00138921
0.0013734
0.00135779
0.00134237
0.00132715
0.00131213
0.00129731
0.00128269
0.00126826
0.00125403
0.00123999
0.00122614
0.00121249
0.00119902
0.00118575
0.00117267
0.00115978
0.00114707
0.00113456
0.00112222
0.00111007
0.00109809
0.00108629
0.00107467
0.00106322
0.00105193
0.00104081
0.00102986
0.00101906
0.00100843
0.00099795
0.000987625
0.00097745
0.000967423
0.000957541
0.0009478
0.000938199
0.000928732
0.000919397
0.000910188
0.000901101
0.00089213
0.000883266
0.0008745
0.000865821
0.000857215
0.000848661
0.000840135
0.000831603
0.000823021
0.000814321
0.000805439
0.000796174
0.00078656
0.000776391
0.000756616
2.3261e-06
0.000118231
0.000256269
0.000389883
0.000486697
0.000548398
0.000586147
0.000609637
0.000627574
0.000647216
0.000673763
0.000709804
0.00075604
0.000812739
0.000880448
0.000971374
0.00107679
0.00117844
0.00127753
0.00137279
0.00146327
0.00154904
0.00163007
0.00170632
0.0017781
0.00184575
0.00190962
0.00197003
0.00202733
0.00208183
0.00213387
0.00218372
0.00223164
0.00227783
0.00232245
0.00236562
0.00240743
0.00244794
0.00248717
0.00252514
0.00256183
0.00259722
0.0026313
0.00266402
0.00269535
0.00272525
0.00275366
0.00278057
0.00280592
0.00282968
0.00285184
0.00287235
0.00289122
0.00290842
0.00292395
0.00293782
0.00295002
0.00296056
0.00296945
0.00297671
0.00298237
0.00298645
0.00298887
0.00298977
0.0029893
0.00298733
0.00298399
0.00297928
0.00297328
0.00296602
0.00295757
0.00294797
0.00293729
0.00292555
0.00291283
0.00289916
0.0028846
0.00286918
0.00285295
0.00283596
0.00281824
0.00279984
0.00278081
0.00276117
0.00274098
0.00272027
0.00269908
0.00267744
0.00265541
0.00263301
0.00261028
0.00258724
0.00256395
0.00254042
0.00251668
0.00249277
0.00246872
0.00244455
0.00242028
0.00239596
0.0023716
0.00234723
0.00232287
0.00229853
0.00227425
0.00225004
0.00222591
0.00220188
0.00217797
0.00215419
0.00213055
0.00210707
0.00208376
0.00206063
0.00203769
0.00201494
0.0019924
0.00197008
0.00194797
0.00192609
0.00190444
0.00188302
0.00186184
0.00184091
0.00182022
0.00179978
0.00177959
0.00175965
0.00173996
0.00172052
0.00170134
0.00168241
0.00166373
0.00164529
0.0016271
0.00160916
0.00159146
0.001574
0.00155678
0.00153981
0.00152308
0.00150658
0.00149032
0.00147429
0.00145848
0.00144291
0.00142755
0.00141241
0.00139749
0.00138279
0.00136829
0.001354
0.00133991
0.00132602
0.00131232
0.00129882
0.00128551
0.00127239
0.00125944
0.00124668
0.00123409
0.00122167
0.00120941
0.00119732
0.00118538
0.00117358
0.00116193
0.0011504
0.00113899
0.00112768
0.00111644
0.00110526
0.00109409
0.00108289
0.00107159
0.00106012
0.0010483
0.00103614
0.00102386
0.00100141
2.79473e-06
0.000126791
0.000269176
0.00040748
0.000526061
0.000607457
0.000663631
0.00070574
0.000743033
0.000782748
0.000829905
0.000887407
0.000956978
0.00104974
0.00115703
0.00126367
0.00136974
0.00147299
0.0015729
0.00166907
0.00176128
0.00184953
0.00193392
0.00201461
0.00209184
0.0021659
0.00223705
0.00230556
0.0023717
0.00243568
0.00249772
0.002558
0.00261667
0.00267385
0.0027296
0.002784
0.00283708
0.00288884
0.00293929
0.0029884
0.00303614
0.00308248
0.00312737
0.00317076
0.0032126
0.00325284
0.00329142
0.0033283
0.00336341
0.00339672
0.00342819
0.00345776
0.00348541
0.00351111
0.00353483
0.00355655
0.00357626
0.00359394
0.00360959
0.00362322
0.00363481
0.0036444
0.00365197
0.00365759
0.00366124
0.00366286
0.00366277
0.00366078
0.00365701
0.00365149
0.00364428
0.00363544
0.00362502
0.00361308
0.0035997
0.00358493
0.00356884
0.00355149
0.00353296
0.00351331
0.0034926
0.00347092
0.00344831
0.00342485
0.00340059
0.00337561
0.00334997
0.00332371
0.0032969
0.0032696
0.00324184
0.00321369
0.00318518
0.00315636
0.00312728
0.00309797
0.00306847
0.00303882
0.00300906
0.00297921
0.00294931
0.00291939
0.00288948
0.0028596
0.00282978
0.00280004
0.0027704
0.00274089
0.00271151
0.00268229
0.00265325
0.0026244
0.00259575
0.00256732
0.00253912
0.00251115
0.00248343
0.00245598
0.00242878
0.00240186
0.00237522
0.00234886
0.00232279
0.00229701
0.00227153
0.00224635
0.00222147
0.00219689
0.00217261
0.00214864
0.00212498
0.00210161
0.00207855
0.00205578
0.00203332
0.00201115
0.00198927
0.00196768
0.00194639
0.00192539
0.00190467
0.00188424
0.00186409
0.00184422
0.00182462
0.00180529
0.00178624
0.00176744
0.0017489
0.00173062
0.00171259
0.00169481
0.00167727
0.00165997
0.00164291
0.00162608
0.00160947
0.00159309
0.00157693
0.00156098
0.00154525
0.00152972
0.00151439
0.00149926
0.00148431
0.00146954
0.00145495
0.00144051
0.00142622
0.00141206
0.001398
0.00138402
0.00137008
0.00135614
0.00134212
0.00132795
0.00131348
0.00129875
0.0012837
0.00125946
2.93975e-06
0.00012867
0.0002705
0.000406988
0.00053759
0.000641168
0.000718473
0.000780069
0.000836135
0.000894386
0.000962836
0.00105547
0.00116564
0.00128717
0.00140268
0.00151388
0.00162161
0.00172606
0.00182717
0.00192489
0.00201922
0.00211027
0.00219818
0.00228313
0.00236535
0.00244506
0.00252249
0.00259784
0.00267131
0.00274307
0.00281325
0.00288199
0.00294935
0.00301542
0.00308023
0.0031438
0.00320613
0.00326721
0.003327
0.00338546
0.00344256
0.00349822
0.0035524
0.00360503
0.00365605
0.00370539
0.00375298
0.00379876
0.00384267
0.00388465
0.00392465
0.00396261
0.00399849
0.00403224
0.00406383
0.00409323
0.0041204
0.00414533
0.004168
0.0041884
0.00420652
0.00422237
0.00423596
0.00424728
0.00425637
0.00426324
0.00426796
0.00427041
0.00427085
0.0042692
0.00426553
0.00425989
0.00425232
0.00424289
0.00423166
0.00421868
0.00420403
0.00418778
0.00416998
0.00415071
0.00413004
0.00410805
0.0040848
0.00406037
0.00403483
0.00400825
0.00398071
0.00395227
0.003923
0.00389296
0.00386224
0.00383087
0.00379894
0.0037665
0.0037336
0.00370031
0.00366667
0.00363273
0.00359855
0.00356418
0.00352966
0.00349502
0.00346032
0.00342559
0.00339086
0.00335617
0.00332154
0.003287
0.00325259
0.00321833
0.00318423
0.00315032
0.00311662
0.00308314
0.00304991
0.00301693
0.00298422
0.0029518
0.00291967
0.00288784
0.00285632
0.00282512
0.00279424
0.0027637
0.00273348
0.00270361
0.00267408
0.0026449
0.00261606
0.00258757
0.00255943
0.00253163
0.00250418
0.00247707
0.00245031
0.00242389
0.0023978
0.00237206
0.00234665
0.00232157
0.00229683
0.00227242
0.00224833
0.00222456
0.00220111
0.00217797
0.00215514
0.00213262
0.0021104
0.00208848
0.00206685
0.0020455
0.00202444
0.00200366
0.00198315
0.00196292
0.00194295
0.00192324
0.00190378
0.00188458
0.00186563
0.00184691
0.00182844
0.00181019
0.00179216
0.00177435
0.00175674
0.00173933
0.00172209
0.00170501
0.00168806
0.00167122
0.00165445
0.00163769
0.00162089
0.00160396
0.00158677
0.00156938
0.00155143
0.0015253
2.75552e-06
0.000125162
0.000263805
0.000395339
0.000519872
0.000632149
0.000726088
0.000807583
0.000891522
0.000987462
0.00109729
0.00122242
0.00135891
0.00148633
0.00160653
0.00172146
0.00183207
0.00193872
0.00204174
0.00214149
0.00223818
0.00233201
0.0024232
0.00251194
0.00259845
0.00268292
0.00276554
0.0028465
0.00292594
0.00300399
0.00308075
0.00315632
0.00323073
0.00330403
0.00337623
0.00344732
0.00351727
0.00358606
0.00365363
0.00371992
0.00378488
0.00384843
0.00391049
0.00397099
0.00402985
0.00408699
0.00414234
0.00419582
0.00424736
0.00429688
0.00434433
0.00438964
0.00443275
0.00447362
0.0045122
0.00454844
0.00458231
0.00461379
0.00464285
0.00466948
0.00469365
0.00471538
0.00473465
0.00475149
0.00476589
0.00477788
0.00478748
0.00479472
0.00479965
0.00480221
0.0048026
0.00480078
0.00479682
0.00479076
0.00478265
0.00477257
0.00476057
0.00474671
0.00473107
0.00471371
0.00469471
0.00467412
0.00465203
0.0046285
0.00460362
0.00457744
0.00455006
0.00452153
0.00449194
0.00446134
0.00442982
0.00439744
0.00436426
0.00433036
0.00429579
0.00426062
0.00422492
0.00418873
0.00415213
0.00411516
0.00407788
0.00404034
0.00400258
0.00396467
0.00392663
0.00388851
0.00385036
0.0038122
0.00377408
0.00373602
0.00369806
0.00366022
0.00362253
0.00358502
0.00354771
0.00351062
0.00347377
0.00343718
0.00340086
0.00336483
0.0033291
0.00329368
0.00325859
0.00322383
0.00318941
0.00315534
0.00312162
0.00308826
0.00305527
0.00302264
0.00299038
0.00295849
0.00292697
0.00289583
0.00286505
0.00283464
0.00280461
0.00277494
0.00274564
0.0027167
0.00268813
0.00265992
0.00263207
0.00260457
0.00257743
0.00255063
0.00252418
0.00249807
0.00247229
0.00244684
0.00242172
0.00239693
0.00237245
0.00234829
0.00232443
0.00230088
0.00227763
0.00225467
0.00223201
0.00220963
0.00218753
0.00216571
0.00214415
0.00212286
0.00210182
0.00208102
0.00206046
0.00204013
0.00202
0.00200005
0.00198027
0.00196062
0.00194106
0.00192154
0.00190199
0.00188234
0.00186246
0.00184241
0.00182166
0.00179333
2.33921e-06
0.00011787
0.000252637
0.000380652
0.00050353
0.000620036
0.000731031
0.000840523
0.000955936
0.00108231
0.00122081
0.00137088
0.00151308
0.00164496
0.00176911
0.00188744
0.00200106
0.0021106
0.00221645
0.00231882
0.00241811
0.00251471
0.0026089
0.00270095
0.00279109
0.00287952
0.00296642
0.00305195
0.00313625
0.00321942
0.00330154
0.00338268
0.00346286
0.0035421
0.0036204
0.00369772
0.00377403
0.00384927
0.00392338
0.00399628
0.0040679
0.00413814
0.00420692
0.00427416
0.00433975
0.00440361
0.00446565
0.00452578
0.00458392
0.00463999
0.00469391
0.00474562
0.00479505
0.00484214
0.00488684
0.00492911
0.00496889
0.00500616
0.0050409
0.00507306
0.00510266
0.00512966
0.00515408
0.00517592
0.00519518
0.00521189
0.00522605
0.0052377
0.00524688
0.0052536
0.00525792
0.00525985
0.00525951
0.0052569
0.00525209
0.00524512
0.00523607
0.00522499
0.00521195
0.00519701
0.00518025
0.00516173
0.00514153
0.00511971
0.00509635
0.00507152
0.0050453
0.00501776
0.00498896
0.00495899
0.0049279
0.00489578
0.00486269
0.0048287
0.00479387
0.00475827
0.00472196
0.00468501
0.00464748
0.00460943
0.00457092
0.004532
0.00449272
0.00445314
0.00441331
0.00437327
0.00433307
0.00429275
0.00425235
0.00421191
0.00417147
0.00413106
0.00409071
0.00405046
0.00401034
0.00397036
0.00393055
0.00389094
0.00385156
0.0038124
0.00377351
0.00373489
0.00369655
0.00365852
0.0036208
0.0035834
0.00354634
0.00350962
0.00347325
0.00343723
0.00340158
0.00336629
0.00333138
0.00329683
0.00326266
0.00322887
0.00319545
0.00316241
0.00312975
0.00309746
0.00306555
0.00303402
0.00300286
0.00297207
0.00294166
0.00291161
0.00288192
0.00285259
0.00282362
0.00279501
0.00276674
0.00273882
0.00271125
0.00268401
0.0026571
0.00263052
0.00260427
0.00257834
0.00255272
0.00252742
0.00250242
0.00247773
0.00245333
0.00242921
0.00240538
0.00238182
0.00235852
0.00233547
0.00231265
0.00229004
0.00226762
0.00224534
0.00222318
0.00220108
0.00217897
0.00215678
0.00213439
0.00211182
0.00208852
0.00205786
1.92455e-06
0.000110214
0.000242407
0.000369703
0.00049544
0.000619946
0.000745139
0.000874894
0.00101266
0.00116039
0.00131823
0.00147985
0.00162748
0.0017638
0.00189179
0.00201345
0.00213004
0.00224239
0.00235102
0.00245633
0.00255862
0.00265807
0.00275515
0.00285019
0.00294348
0.00303527
0.00312575
0.00321507
0.00330339
0.00339078
0.00347733
0.00356308
0.00364806
0.00373226
0.00381566
0.00389822
0.00397989
0.00406059
0.00414025
0.00421879
0.0042961
0.00437208
0.00444665
0.00451968
0.00459109
0.00466076
0.0047286
0.00479451
0.0048584
0.00492018
0.00497977
0.00503708
0.00509206
0.00514462
0.00519471
0.00524229
0.0052873
0.00532971
0.00536949
0.0054066
0.00544104
0.00547278
0.00550183
0.00552819
0.00555187
0.00557287
0.00559122
0.00560694
0.00562006
0.00563062
0.00563864
0.00564419
0.0056473
0.00564802
0.00564642
0.00564254
0.00563645
0.0056282
0.00561786
0.0056055
0.00559117
0.00557496
0.00555693
0.00553715
0.0055157
0.00549264
0.00546805
0.005442
0.00541457
0.00538582
0.00535582
0.00532466
0.00529238
0.00525907
0.00522479
0.0051896
0.00515357
0.00511677
0.00507926
0.00504109
0.00500234
0.00496305
0.00492329
0.0048831
0.00484254
0.00480166
0.00476051
0.00471912
0.00467755
0.00463585
0.00459403
0.00455216
0.00451025
0.00446836
0.0044265
0.00438471
0.00434302
0.00430145
0.00426003
0.00421879
0.00417774
0.00413691
0.00409631
0.00405596
0.00401587
0.00397607
0.00393656
0.00389736
0.00385848
0.00381992
0.0037817
0.00374381
0.00370628
0.0036691
0.00363227
0.00359581
0.00355972
0.00352399
0.00348863
0.00345364
0.00341902
0.00338478
0.00335091
0.00331741
0.00328429
0.00325153
0.00321914
0.00318712
0.00315547
0.00312417
0.00309324
0.00306266
0.00303243
0.00300255
0.00297302
0.00294383
0.00291498
0.00288647
0.00285828
0.00283043
0.0028029
0.00277568
0.00274878
0.00272219
0.00269589
0.00266989
0.00264417
0.00261871
0.0025935
0.00256853
0.00254375
0.00251915
0.00249468
0.00247029
0.00244591
0.00242146
0.00239684
0.00237205
0.00234655
0.00231373
1.53462e-06
0.000102069
0.000231953
0.000358931
0.000487641
0.000619029
0.000755751
0.000899727
0.00105262
0.00121496
0.00138725
0.00155303
0.00170464
0.00184482
0.00197631
0.00210109
0.00222049
0.00233545
0.00244662
0.00255451
0.00265949
0.00276187
0.00286193
0.00295985
0.00305605
0.00315083
0.00324442
0.00333702
0.00342875
0.00351974
0.00361005
0.00369972
0.00378877
0.00387719
0.00396494
0.00405198
0.00413824
0.00422363
0.00430807
0.00439145
0.00447367
0.00455462
0.00463419
0.00471226
0.00478871
0.00486344
0.00493634
0.0050073
0.00507621
0.00514299
0.00520754
0.00526978
0.00532963
0.00538702
0.00544189
0.00549417
0.00554382
0.00559081
0.00563508
0.00567662
0.0057154
0.00575142
0.00578466
0.00581512
0.00584281
0.00586775
0.00588994
0.00590942
0.00592621
0.00594035
0.00595186
0.0059608
0.00596721
0.00597113
0.00597262
0.00597175
0.00596859
0.00596316
0.00595553
0.00594578
0.00593398
0.00592018
0.00590446
0.00588688
0.00586753
0.00584648
0.00582378
0.00579953
0.00577378
0.00574662
0.0057181
0.0056883
0.00565729
0.00562514
0.0055919
0.00555766
0.00552247
0.0054864
0.00544952
0.00541188
0.00537354
0.00533457
0.00529502
0.00525494
0.0052144
0.00517343
0.00513209
0.00509043
0.00504849
0.00500631
0.00496395
0.00492143