/*--------------------------------*- C++ -*----------------------------------*\
  =========                 |
  \\      /  F ield         | OpenFOAM: The Open Source CFD Toolbox
   \\    /   O peration     | Website:  https://openfoam.org
    \\  /    A nd           | Version:  8
     \\/     M anipulation  |
\*---------------------------------------------------------------------------*/
FoamFile
{
    version     2.0;
    format      ascii;
    class       surfaceScalarField;
    location    "4700";
    object      phi;
}
// * * * * * * * * * * * * * * * * * * * * * * * * * * * * * * * * * * * * * //

dimensions      [0 3 -1 0 0 0 0];

internalField   nonuniform List<scalar> 
24170
(
3.92539e-06
-7.91498e-07
3.76465e-06
1.6075e-07
3.63345e-06
1.31209e-07
3.43331e-06
2.00144e-07
3.28028e-06
1.53027e-07
3.18901e-06
9.11906e-08
3.13091e-06
5.81105e-08
3.08609e-06
4.58915e-08
3.04612e-06
4.2324e-08
3.01059e-06
3.81633e-08
2.97876e-06
3.38029e-08
2.94904e-06
3.07706e-08
2.92187e-06
2.7378e-08
2.89642e-06
2.52001e-08
2.87227e-06
2.36053e-08
2.85193e-06
1.94838e-08
2.84097e-06
9.85679e-09
-6.37681e-09
2.84668e-06
3.58445e-06
-9.19499e-07
3.80424e-06
-5.90412e-08
3.74282e-06
1.92629e-07
3.6906e-06
2.52375e-07
3.63729e-06
2.06333e-07
3.59023e-06
1.3828e-07
3.55289e-06
9.55997e-08
3.52309e-06
7.56599e-08
3.49853e-06
6.65702e-08
3.47732e-06
5.92158e-08
3.45871e-06
5.253e-08
3.44253e-06
4.72653e-08
3.42795e-06
4.23384e-08
3.41466e-06
3.87869e-08
3.40269e-06
3.57307e-08
3.39122e-06
3.10527e-08
3.38036e-06
2.08423e-08
4.78133e-09
3.36943e-06
3.68518e-06
-7.92482e-07
3.83639e-06
-2.1025e-07
3.91494e-06
1.14082e-07
3.94502e-06
2.22293e-07
3.94408e-06
2.07264e-07
3.92749e-06
1.54897e-07
3.90755e-06
1.15615e-07
3.88932e-06
9.36447e-08
3.874e-06
8.1197e-08
3.86056e-06
7.19165e-08
3.84834e-06
6.42568e-08
3.83728e-06
5.81361e-08
3.82691e-06
5.27799e-08
3.8174e-06
4.84758e-08
3.80891e-06
4.44344e-08
3.80097e-06
3.92544e-08
3.79195e-06
3.02083e-08
1.77983e-08
3.77944e-06
4.05359e-06
-6.4151e-07
4.1146e-06
-2.71259e-07
4.20799e-06
2.06916e-08
4.26635e-06
1.63932e-07
4.2907e-06
1.82926e-07
4.29287e-06
1.52749e-07
4.28571e-06
1.22819e-07
4.27631e-06
1.02844e-07
4.26727e-06
8.96867e-08
4.25873e-06
7.98182e-08
4.25056e-06
7.19504e-08
4.24283e-06
6.56356e-08
4.23534e-06
6.02472e-08
4.22823e-06
5.56941e-08
4.22149e-06
5.13535e-08
4.21464e-06
4.63467e-08
4.20599e-06
3.91853e-08
3.06613e-08
4.19351e-06
4.50491e-06
-5.09114e-07
4.51536e-06
-2.81708e-07
4.58529e-06
-4.92341e-08
4.64665e-06
1.02566e-07
4.68258e-06
1.46992e-07
4.69688e-06
1.38473e-07
4.69946e-06
1.20237e-07
4.69723e-06
1.04926e-07
4.69331e-06
9.32556e-08
4.68868e-06
8.4058e-08
4.68366e-06
7.66427e-08
4.67851e-06
7.06089e-08
4.67321e-06
6.54955e-08
4.66783e-06
6.11069e-08
4.66227e-06
5.70063e-08
4.65606e-06
5.27047e-08
4.64786e-06
4.75927e-08
4.2607e-08
4.63612e-06
5.00014e-06
-3.94663e-07
4.98614e-06
-2.67704e-07
5.03069e-06
-9.37789e-08
5.08506e-06
4.8198e-08
5.12454e-06
1.07517e-07
5.14608e-06
1.16941e-07
5.15584e-06
1.10489e-07
5.1594e-06
1.01285e-07
5.15985e-06
9.26083e-08
5.15859e-06
8.50843e-08
5.15629e-06
7.87438e-08
5.15333e-06
7.34436e-08
5.14984e-06
6.89348e-08
5.14589e-06
6.50649e-08
5.14136e-06
6.15883e-08
5.13584e-06
5.83112e-08
5.12839e-06
5.51504e-08
5.30535e-08
5.11808e-06
5.54382e-06
-2.97475e-07
5.51664e-06
-2.40529e-07
5.54055e-06
-1.17686e-07
5.58388e-06
4.87045e-09
5.62166e-06
6.97345e-08
5.64656e-06
9.20463e-08
5.66107e-06
9.59687e-08
5.66906e-06
9.32475e-08
5.67315e-06
8.84248e-08
5.67481e-06
8.33017e-08
5.6749e-06
7.85526e-08
5.6739e-06
7.43765e-08
5.67204e-06
7.07668e-08
5.6694e-06
6.76972e-08
5.66591e-06
6.51012e-08
5.66127e-06
6.29899e-08
5.65494e-06
6.15491e-08
6.15343e-08
5.6465e-06
4.34788e-06
-2.39242e-07
4.32251e-06
-2.15162e-07
4.33078e-06
-1.25951e-07
4.35419e-06
-1.85362e-08
4.3784e-06
4.55261e-08
4.39646e-06
7.39851e-08
4.40841e-06
8.4023e-08
4.41597e-06
8.5674e-08
4.42059e-06
8.37681e-08
4.42325e-06
8.05982e-08
4.42456e-06
7.71973e-08
4.4249e-06
7.40036e-08
4.42446e-06
7.11811e-08
4.42334e-06
6.88115e-08
4.42151e-06
6.69383e-08
4.41885e-06
6.56726e-08
4.41514e-06
6.52707e-08
6.6351e-08
4.41035e-06
5.08621e-06
-1.85599e-07
5.05777e-06
-1.86718e-07
5.0584e-06
-1.26578e-07
5.07686e-06
-3.70023e-08
5.09918e-06
2.32141e-08
5.11773e-06
5.54364e-08
5.13124e-06
7.05072e-08
5.14059e-06
7.6317e-08
5.14686e-06
7.74759e-08
5.15094e-06
7.64976e-08
5.15344e-06
7.46768e-08
5.15477e-06
7.2667e-08
5.15514e-06
7.07977e-08
5.15468e-06
6.92653e-08
5.15341e-06
6.82114e-08
5.15128e-06
6.78148e-08
5.14821e-06
6.83521e-08
7.02738e-08
5.14429e-06
5.94839e-06
-1.38193e-07
5.91832e-06
-1.56649e-07
5.91161e-06
-1.19866e-07
5.924e-06
-4.93967e-08
5.94286e-06
4.35876e-09
5.96058e-06
3.77169e-08
5.97479e-06
5.62913e-08
5.98546e-06
6.56466e-08
5.9932e-06
6.9736e-08
5.99867e-06
7.10176e-08
6.00242e-06
7.09158e-08
6.00484e-06
7.02402e-08
6.00618e-06
6.94586e-08
6.00658e-06
6.88679e-08
6.0061e-06
6.86887e-08
6.00478e-06
6.91365e-08
6.00267e-06
7.04627e-08
7.29766e-08
5.99997e-06
6.95439e-06
-9.8313e-08
6.92402e-06
-1.26278e-07
6.91113e-06
-1.06984e-07
6.9168e-06
-5.50657e-08
6.93087e-06
-9.71036e-09
6.94635e-06
2.22395e-08
6.96015e-06
4.24929e-08
6.9714e-06
5.43963e-08
6.98017e-06
6.09616e-08
6.98684e-06
6.43478e-08
6.9918e-06
6.59554e-08
6.99537e-06
6.66649e-08
6.9978e-06
6.70308e-08
6.99924e-06
6.74244e-08
6.99982e-06
6.81137e-08
6.99963e-06
6.93248e-08
6.99883e-06
7.12679e-08
7.41296e-08
6.99768e-06
8.12719e-06
-6.64877e-08
8.09793e-06
-9.70211e-08
8.08056e-06
-8.96089e-08
8.07955e-06
-5.40587e-08
8.08793e-06
-1.80893e-08
8.09985e-06
1.03228e-08
8.11198e-06
3.03589e-08
8.12286e-06
4.35221e-08
8.13202e-06
5.17954e-08
8.1395e-06
5.68677e-08
8.14548e-06
5.99754e-08
8.15018e-06
6.19699e-08
8.15378e-06
6.34312e-08
8.15644e-06
6.4757e-08
8.15833e-06
6.62334e-08
8.15958e-06
6.80741e-08
8.1604e-06
7.04409e-08
7.3439e-08
8.16109e-06
9.49368e-06
-4.24387e-08
9.4668e-06
-7.01429e-08
9.44683e-06
-6.96404e-08
9.43991e-06
-4.71319e-08
9.44229e-06
-2.0468e-08
9.44965e-06
2.95532e-09
9.45895e-06
2.10643e-08
9.4684e-06
3.40703e-08
9.47716e-06
4.3036e-08
9.48491e-06
4.91204e-08
9.49159e-06
5.32932e-08
9.49727e-06
5.62911e-08
9.50205e-06
5.86459e-08
9.50607e-06
6.07377e-08
9.50947e-06
6.28337e-08
9.51243e-06
6.51197e-08
9.51515e-06
6.7714e-08
7.06701e-08
9.51792e-06
1.10854e-05
-2.51591e-08
1.10618e-05
-4.65027e-08
1.1041e-05
-4.88069e-08
1.10294e-05
-3.55519e-08
1.10261e-05
-1.717e-08
1.10284e-05
6.04603e-10
1.1034e-05
1.54743e-08
1.10411e-05
2.69703e-08
1.10487e-05
3.54912e-08
1.10561e-05
4.1715e-08
1.1063e-05
4.63125e-08
1.10695e-05
4.9842e-08
1.10754e-05
5.27337e-08
1.10808e-05
5.53019e-08
1.10859e-05
5.77666e-08
1.10908e-05
6.02718e-08
1.10956e-05
6.28978e-08
6.56679e-08
1.11006e-05
1.29396e-05
-1.31187e-08
1.29194e-05
-2.62788e-08
1.28988e-05
-2.82522e-08
1.28839e-05
-2.06879e-08
1.28758e-05
-8.99616e-09
1.28732e-05
3.14445e-09
1.28748e-05
1.39394e-08
1.28789e-05
2.27877e-08
1.28847e-05
2.97436e-08
1.28913e-05
3.51421e-08
1.28982e-05
3.93821e-08
1.29052e-05
4.28268e-08
1.29122e-05
4.57682e-08
1.29191e-05
4.84234e-08
1.29259e-05
5.09414e-08
1.29327e-05
5.34139e-08
1.29398e-05
5.58839e-08
5.83544e-08
1.29471e-05
1.50998e-05
-4.48321e-09
1.50822e-05
-8.67618e-09
1.50621e-05
-8.11383e-09
1.50448e-05
-3.45858e-09
1.50327e-05
3.10926e-09
1.50259e-05
9.9381e-09
1.50237e-05
1.61611e-08
1.5025e-05
2.14633e-08
1.50289e-05
2.58521e-08
1.50346e-05
2.94832e-08
1.50414e-05
3.25527e-08
1.5049e-05
3.52411e-08
1.50571e-05
3.76916e-08
1.50655e-05
4.00056e-08
1.50742e-05
4.22454e-08
1.50832e-05
4.44407e-08
1.50925e-05
4.65939e-08
4.86867e-08
1.51021e-05
1.76171e-05
2.89296e-09
1.75999e-05
8.523e-09
1.75787e-05
1.30293e-08
1.7559e-05
1.62775e-08
1.75436e-05
1.84719e-08
1.75336e-05
1.9957e-08
1.75287e-05
2.10512e-08
1.75282e-05
2.19924e-08
1.75311e-05
2.29381e-08
1.75366e-05
2.39836e-08
1.7544e-05
2.51752e-08
1.75527e-05
2.65256e-08
1.75624e-05
2.80236e-08
1.75727e-05
2.96439e-08
1.75836e-05
3.13498e-08
1.7595e-05
3.31004e-08
1.76067e-05
3.48497e-08
3.65531e-08
1.76188e-05
1.78181e-05
1.10001e-08
1.77994e-05
2.72123e-08
1.77768e-05
3.56237e-08
1.7756e-05
3.70578e-08
1.77402e-05
3.43255e-08
1.77302e-05
2.99454e-08
1.77257e-05
2.54991e-08
1.77259e-05
2.17765e-08
1.77298e-05
1.90734e-08
1.77364e-05
1.7398e-08
1.77449e-05
1.66302e-08
1.77549e-05
1.66009e-08
1.77658e-05
1.71387e-08
1.77773e-05
1.80868e-08
1.77894e-05
1.93124e-08
1.78018e-05
2.07023e-08
1.78144e-05
2.21667e-08
2.36299e-08
1.78274e-05
1.58702e-05
2.21332e-08
1.58478e-05
4.9581e-08
1.58233e-05
6.01316e-08
1.58032e-05
5.72338e-08
1.57899e-05
4.76093e-08
1.57834e-05
3.63705e-08
1.57827e-05
2.61959e-08
1.57864e-05
1.81452e-08
1.57931e-05
1.23634e-08
1.58019e-05
8.61041e-09
1.5812e-05
6.49467e-09
1.5823e-05
5.6264e-09
1.58345e-05
5.66261e-09
1.58462e-05
6.32697e-09
1.58581e-05
7.39942e-09
1.58701e-05
8.71552e-09
1.58821e-05
1.01478e-08
1.16053e-08
1.58942e-05
1.41313e-05
3.95385e-08
1.41021e-05
7.87064e-08
1.40745e-05
8.77871e-08
1.40557e-05
7.60374e-08
1.40469e-05
5.64121e-08
1.40462e-05
3.70379e-08
1.40512e-05
2.12087e-08
1.40597e-05
9.58047e-09
1.40704e-05
1.76097e-09
1.4082e-05
-3.05023e-09
1.40941e-05
-5.6059e-09
1.41063e-05
-6.56222e-09
1.41184e-05
-6.41646e-09
1.41303e-05
-5.5588e-09
1.41419e-05
-4.25913e-09
1.41534e-05
-2.71816e-09
1.41646e-05
-1.07286e-09
5.78395e-10
1.41756e-05
1.25772e-05
6.73554e-08
1.25392e-05
1.16739e-07
1.25091e-05
1.17888e-07
1.24942e-05
9.08899e-08
1.24928e-05
5.78123e-08
1.25002e-05
2.96811e-08
1.25122e-05
9.12887e-09
1.25264e-05
-4.49857e-09
1.25409e-05
-1.28371e-08
1.25552e-05
-1.73491e-08
1.25689e-05
-1.92842e-08
1.25819e-05
-1.94996e-08
1.25941e-05
-1.86535e-08
1.26057e-05
-1.71516e-08
1.26167e-05
-1.53021e-08
1.26273e-05
-1.32937e-08
1.26375e-05
-1.12582e-08
-9.27709e-09
1.26473e-05
1.11862e-05
1.10916e-07
1.11384e-05
1.6457e-07
1.11088e-05
1.4752e-07
1.11022e-05
9.74838e-08
1.11117e-05
4.83116e-08
1.11289e-05
1.23998e-08
1.11486e-05
-1.04634e-08
1.11678e-05
-2.37294e-08
1.11855e-05
-3.05099e-08
1.12014e-05
-3.32919e-08
1.12157e-05
-3.35549e-08
1.12285e-05
-3.23579e-08
1.12402e-05
-3.03014e-08
1.12509e-05
-2.78494e-08
1.12608e-05
-2.52375e-08
1.12701e-05
-2.26313e-08
1.1279e-05
-2.01179e-08
-1.77493e-08
1.12875e-05
9.93908e-06
1.76451e-07
9.88248e-06
2.21163e-07
9.85873e-06
1.71262e-07
9.86593e-06
9.02749e-08
9.8896e-06
2.46379e-08
9.91759e-06
-1.55569e-08
9.94391e-06
-3.67964e-08
9.96668e-06
-4.64119e-08
9.98571e-06
-4.96131e-08
1.00017e-05
-4.92899e-08
1.00152e-05
-4.71275e-08
1.00269e-05
-4.40006e-08
1.00371e-05
-4.05353e-08
1.00463e-05
-3.69933e-08
1.00546e-05
-3.35629e-08
1.00623e-05
-3.03406e-08
1.00696e-05
-2.73558e-08
-2.46369e-08
1.00765e-05
8.81963e-06
2.69916e-07
8.75785e-06
2.82944e-07
8.74788e-06
1.81225e-07
8.77481e-06
6.33226e-08
8.81458e-06
-1.51296e-08
8.85212e-06
-5.30926e-08
8.88268e-06
-6.72306e-08
8.90623e-06
-7.00277e-08
8.92427e-06
-6.7621e-08
8.93842e-06
-6.33754e-08
8.94984e-06
-5.84082e-08
8.95925e-06
-5.33427e-08
8.96726e-06
-4.84897e-08
8.97427e-06
-4.39846e-08
8.98055e-06
-3.98422e-08
8.98633e-06
-3.6098e-08
8.99173e-06
-3.27615e-08
-2.97727e-08
8.99687e-06
7.81391e-06
3.96675e-07
7.75391e-06
3.42943e-07
7.76868e-06
1.6644e-07
7.82053e-06
1.14608e-08
7.87567e-06
-7.02744e-08
7.91912e-06
-9.64917e-08
7.94967e-06
-9.78357e-08
7.97057e-06
-9.06517e-08
7.98483e-06
-8.15935e-08
7.99524e-06
-7.35594e-08
8.00316e-06
-6.61191e-08
8.00938e-06
-5.94338e-08
8.01449e-06
-5.33501e-08
8.0189e-06
-4.82003e-08
8.02279e-06
-4.36409e-08
8.02632e-06
-3.96579e-08
8.02968e-06
-3.61453e-08
-3.30413e-08
8.03292e-06
6.90424e-06
5.66768e-07
6.86137e-06
3.85805e-07
6.91716e-06
1.10634e-07
6.99674e-06
-6.81331e-08
7.06253e-06
-1.36071e-07
7.10529e-06
-1.39268e-07
7.13031e-06
-1.22549e-07
7.14447e-06
-1.04618e-07
7.15207e-06
-8.8999e-08
7.15708e-06
-7.58131e-08
7.16036e-06
-6.66912e-08
7.16269e-06
-5.95612e-08
7.16421e-06
-5.41873e-08
7.16558e-06
-4.93235e-08
7.16674e-06
-4.46777e-08
7.1678e-06
-4.09198e-08
7.1689e-06
-3.79463e-08
-3.48294e-08
7.17005e-06
6.07162e-06
7.97662e-07
6.08526e-06
3.72164e-07
6.19865e-06
-2.77342e-09
6.29989e-06
-1.69398e-07
6.36526e-06
-2.01462e-07
6.39754e-06
-1.71503e-07
6.41011e-06
-1.35216e-07
6.41342e-06
-1.06949e-07
6.41238e-06
-8.58109e-08
6.40987e-06
-7.40379e-08
6.40747e-06
-6.45122e-08
6.40485e-06
-5.76135e-08
6.4024e-06
-5.13077e-08
6.40041e-06
-4.66144e-08
6.39831e-06
-4.2821e-08
6.39634e-06
-3.97741e-08
6.39516e-06
-3.70769e-08
-3.40742e-08
6.39404e-06
5.35805e-06
1.05451e-06
5.50649e-06
2.23716e-07
5.64777e-06
-1.44085e-07
5.73564e-06
-2.57314e-07
5.77646e-06
-2.42346e-07
5.78324e-06
-1.78422e-07
5.77527e-06
-1.26643e-07
5.76327e-06
-9.40059e-08
5.74975e-06
-7.56728e-08
5.73929e-06
-6.39805e-08
5.73025e-06
-5.65421e-08
5.72234e-06
-4.99577e-08
5.71447e-06
-4.4574e-08
5.70776e-06
-4.04656e-08
5.70182e-06
-3.67925e-08
5.69622e-06
-3.36258e-08
5.69181e-06
-3.2784e-08
-3.02736e-08
5.68743e-06
5.04576e-06
1.01105e-06
5.36491e-06
-9.54498e-08
5.35251e-06
-1.31767e-07
5.33285e-06
-2.37745e-07
5.296e-06
-2.0565e-07
5.25017e-06
-1.32586e-07
5.20891e-06
-8.47353e-08
5.17485e-06
-6.08267e-08
5.14636e-06
-4.98313e-08
5.12483e-06
-4.29116e-08
5.10668e-06
-3.93244e-08
5.09047e-06
-3.56204e-08
5.07519e-06
-3.14352e-08
5.06203e-06
-2.78011e-08
5.05044e-06
-2.46844e-08
5.03899e-06
-2.1938e-08
5.02944e-06
-2.30852e-08
-2.1033e-08
5.02142e-06
5.4676e-06
5.37215e-06
5.24037e-06
5.00261e-06
4.79695e-06
4.66444e-06
4.57967e-06
4.51835e-06
4.46847e-06
4.42538e-06
4.38572e-06
4.34961e-06
4.31802e-06
4.29031e-06
4.26571e-06
4.24383e-06
4.22109e-06
4.20054e-06
2.31243e-08
-2.3123e-08
2.37201e-07
-2.14078e-07
4.89326e-07
-2.52093e-07
7.09591e-07
-2.20244e-07
8.77306e-07
-1.67695e-07
9.88435e-07
-1.11118e-07
1.0441e-06
-5.56511e-08
1.04652e-06
-2.42103e-09
1.00102e-06
4.55133e-08
9.17739e-07
8.32678e-08
8.11938e-07
1.0581e-07
7.02749e-07
1.09175e-07
6.09965e-07
9.27792e-08
5.43677e-07
6.62971e-08
4.92534e-07
5.11618e-08
4.33352e-07
5.9882e-08
3.47044e-07
8.61696e-08
2.21941e-07
1.25874e-07
4.36338e-08
1.77891e-07
-2.01834e-07
2.44838e-07
-5.04371e-07
3.02282e-07
-8.45361e-07
3.40739e-07
-1.2097e-06
3.64347e-07
-1.58709e-06
3.77406e-07
-1.96869e-06
3.81639e-07
-2.34452e-06
3.7585e-07
-2.70656e-06
3.62056e-07
-3.04963e-06
3.43086e-07
-3.36992e-06
3.20303e-07
-3.66509e-06
2.95175e-07
-3.93428e-06
2.69192e-07
-4.1778e-06
2.43525e-07
-4.39668e-06
2.18884e-07
-4.5924e-06
1.95722e-07
-4.76667e-06
1.74268e-07
-4.92127e-06
1.54601e-07
-5.05795e-06
1.36685e-07
-5.17835e-06
1.20401e-07
-5.28394e-06
1.05589e-07
-5.37601e-06
9.2068e-08
-5.45567e-06
7.96566e-08
-5.52385e-06
6.81824e-08
-5.58134e-06
5.74898e-08
-5.62878e-06
4.7445e-08
-5.66672e-06
3.79389e-08
-5.69561e-06
2.88844e-08
-5.71582e-06
2.02099e-08
-5.7277e-06
1.18857e-08
-5.73174e-06
4.0398e-09
-5.7288e-06
-2.93974e-09
-5.71996e-06
-8.8382e-09
-5.706e-06
-1.39648e-08
-5.68732e-06
-1.86812e-08
-5.66417e-06
-2.31486e-08
-5.63673e-06
-2.74451e-08
-5.60513e-06
-3.15989e-08
-5.5695e-06
-3.56247e-08
-5.52997e-06
-3.95293e-08
-5.48666e-06
-4.33139e-08
-5.43968e-06
-4.69772e-08
-5.38916e-06
-5.05169e-08
-5.33524e-06
-5.39293e-08
-5.27802e-06
-5.72111e-08
-5.21767e-06
-6.0359e-08
-5.1543e-06
-6.33706e-08
-5.08805e-06
-6.62426e-08
-5.01908e-06
-6.89717e-08
-4.94753e-06
-7.15556e-08
-4.87353e-06
-7.39925e-08
-4.79725e-06
-7.62814e-08
-4.71883e-06
-7.84214e-08
-4.63842e-06
-8.0412e-08
-4.55617e-06
-8.22536e-08
-4.47222e-06
-8.39468e-08
-4.38673e-06
-8.5493e-08
-4.29983e-06
-8.68936e-08
-4.21168e-06
-8.8152e-08
-4.12241e-06
-8.92703e-08
-4.03216e-06
-9.02527e-08
-3.94106e-06
-9.11029e-08
-3.84924e-06
-9.18211e-08
-3.75683e-06
-9.24107e-08
-3.66396e-06
-9.28691e-08
-3.57075e-06
-9.32038e-08
-3.47732e-06
-9.34334e-08
-3.38374e-06
-9.35769e-08
-3.29009e-06
-9.36546e-08
-3.19643e-06
-9.36551e-08
-3.10289e-06
-9.35441e-08
-3.00955e-06
-9.33349e-08
-2.91643e-06
-9.31204e-08
-2.82348e-06
-9.29564e-08
-2.7307e-06
-9.27805e-08
-2.63815e-06
-9.25507e-08
-2.5459e-06
-9.22527e-08
-2.45413e-06
-9.17644e-08
-2.36315e-06
-9.09798e-08
-2.27322e-06
-8.99373e-08
-2.18443e-06
-8.87834e-08
-2.09681e-06
-8.76288e-08
-2.01033e-06
-8.64726e-08
-1.92503e-06
-8.52992e-08
-1.84093e-06
-8.41012e-08
-1.75806e-06
-8.28776e-08
-1.67643e-06
-8.1631e-08
-1.59606e-06
-8.03651e-08
-1.51698e-06
-7.90839e-08
-1.43919e-06
-7.77898e-08
-1.36271e-06
-7.6481e-08
-1.28757e-06
-7.51366e-08
-1.21381e-06
-7.37687e-08
-1.1414e-06
-7.24051e-08
-1.07036e-06
-7.10407e-08
-1.00068e-06
-6.96768e-08
-9.3237e-07
-6.83143e-08
-8.65415e-07
-6.69549e-08
-7.99815e-07
-6.56006e-08
-7.35561e-07
-6.42542e-08
-6.72643e-07
-6.29177e-08
-6.11052e-07
-6.15903e-08
-5.50779e-07
-6.02729e-08
-4.91811e-07
-5.89682e-08
-4.34128e-07
-5.76821e-08
-3.77707e-07
-5.64204e-08
-3.22527e-07
-5.51788e-08
-2.68572e-07
-5.39541e-08
-2.15821e-07
-5.27501e-08
-1.64253e-07
-5.1566e-08
-1.13862e-07
-5.039e-08
-6.4638e-08
-4.92221e-08
-1.67038e-08
-4.79323e-08
3.00721e-08
-4.67738e-08
7.59968e-08
-4.59227e-08
1.20965e-07
-4.49659e-08
1.64873e-07
-4.3906e-08
2.07717e-07
-4.28423e-08
2.49515e-07
-4.17958e-08
2.90296e-07
-4.07791e-08
3.30092e-07
-3.97943e-08
3.68933e-07
-3.88399e-08
4.06849e-07
-3.79141e-08
4.43866e-07
-3.70155e-08
4.8001e-07
-3.6143e-08
5.15308e-07
-3.52958e-08
5.49782e-07
-3.44735e-08
5.83459e-07
-3.36757e-08
6.16361e-07
-3.29022e-08
6.48515e-07
-3.21527e-08
6.79942e-07
-3.14274e-08
7.10669e-07
-3.0726e-08
7.40717e-07
-3.00487e-08
7.70113e-07
-2.93954e-08
7.9888e-07
-2.87662e-08
8.27041e-07
-2.8161e-08
8.54622e-07
-2.758e-08
8.81645e-07
-2.70229e-08
9.08135e-07
-2.64897e-08
9.34116e-07
-2.59802e-08
9.59611e-07
-2.54937e-08
9.84641e-07
-2.50294e-08
1.00923e-06
-2.45862e-08
1.03339e-06
-2.41621e-08
1.05715e-06
-2.37543e-08
1.0805e-06
-2.33588e-08
1.10347e-06
-2.29698e-08
1.12605e-06
-2.25793e-08
1.14823e-06
-2.21759e-08
1.16997e-06
-2.17437e-08
1.19123e-06
-2.12608e-08
1.21193e-06
-2.06959e-08
1.23194e-06
-2.0005e-08
1.25106e-06
-1.91241e-08
1.26902e-06
-1.79558e-08
1.28537e-06
-1.6356e-08
1.29942e-06
-1.40493e-08
1.31005e-06
-1.06255e-08
1.31462e-06
-4.56117e-09
1.30777e-06
6.85401e-09
1.27824e-06
2.95347e-08
7.23281e-08
1.20591e-06
2.54186e-07
-2.7733e-07
4.90085e-07
-4.49974e-07
6.3967e-07
-4.01675e-07
7.24303e-07
-3.04875e-07
7.63817e-07
-2.07201e-07
7.69763e-07
-1.17069e-07
7.4883e-07
-3.47131e-08
7.06647e-07
3.9754e-08
6.46286e-07
1.05879e-07
5.67657e-07
1.61887e-07
4.70042e-07
2.03432e-07
3.5177e-07
2.27434e-07
2.06805e-07
2.37749e-07
2.3605e-08
2.49512e-07
-2.08614e-07
2.83388e-07
-4.94259e-07
3.45619e-07
-8.3222e-07
4.2422e-07
-1.21208e-06
5.05748e-07
-1.6159e-06
5.81666e-07
-2.01734e-06
6.46222e-07
-2.40736e-06
6.92254e-07
-2.78283e-06
7.16202e-07
-3.13778e-06
7.19289e-07
-3.4652e-06
7.04832e-07
-3.75995e-06
6.76405e-07
-4.0211e-06
6.36998e-07
-4.24903e-06
5.89999e-07
-4.44505e-06
5.39103e-07
-4.61204e-06
4.873e-07
-4.75353e-06
4.36662e-07
-4.87287e-06
3.88538e-07
-4.97324e-06
3.43902e-07
-5.05753e-06
3.03168e-07
-5.12823e-06
2.66424e-07
-5.18747e-06
2.33506e-07
-5.23698e-06
2.04112e-07
-5.27816e-06
1.77872e-07
-5.31216e-06
1.54395e-07
-5.33987e-06
1.33298e-07
-5.36203e-06
1.14231e-07
-5.37925e-06
9.68823e-08
-5.39206e-06
8.09858e-08
-5.40089e-06
6.63198e-08
-5.40615e-06
5.27025e-08
-5.40819e-06
3.99871e-08
-5.40737e-06
2.80586e-08
-5.404e-06
1.68393e-08
-5.39841e-06
6.2944e-09
-5.39075e-06
-3.62016e-09
-5.38059e-06
-1.30941e-08
-5.36706e-06
-2.23675e-08
-5.34956e-06
-3.14697e-08
-5.32791e-06
-4.03348e-08
-5.30209e-06
-4.89592e-08
-5.27219e-06
-5.73498e-08
-5.23828e-06
-6.55128e-08
-5.20045e-06
-7.3451e-08
-5.15882e-06
-8.11639e-08
-5.11348e-06
-8.86481e-08
-5.06456e-06
-9.58981e-08
-5.01217e-06
-1.02907e-07
-4.95643e-06
-1.09667e-07
-4.89747e-06
-1.16171e-07
-4.83542e-06
-1.22411e-07
-4.77041e-06
-1.28384e-07
-4.70257e-06
-1.34081e-07
-4.63204e-06
-1.39496e-07
-4.55898e-06
-1.44624e-07
-4.4835e-06
-1.49463e-07
-4.40578e-06
-1.54009e-07
-4.32594e-06
-1.58261e-07
-4.24413e-06
-1.62219e-07
-4.1605e-06
-1.65882e-07
-4.0752e-06
-1.69253e-07
-3.98836e-06
-1.72333e-07
-3.90012e-06
-1.75126e-07
-3.81064e-06
-1.77637e-07
-3.72004e-06
-1.7987e-07
-3.62846e-06
-1.81832e-07
-3.53603e-06
-1.83529e-07
-3.44289e-06
-1.84967e-07
-3.34914e-06
-1.86154e-07
-3.25492e-06
-1.87097e-07
-3.16031e-06
-1.87809e-07
-3.06544e-06
-1.88306e-07
-2.97042e-06
-1.88603e-07
-2.87536e-06
-1.88711e-07
-2.78038e-06
-1.88632e-07
-2.68556e-06
-1.88368e-07
-2.59096e-06
-1.8794e-07
-2.4967e-06
-1.87379e-07
-2.40296e-06
-1.86692e-07
-2.30989e-06
-1.85853e-07
-2.21761e-06
-1.84835e-07
-2.12625e-06
-1.83609e-07
-2.03588e-06
-1.82138e-07
-1.94644e-06
-1.80417e-07
-1.85789e-06
-1.78489e-07
-1.77024e-06
-1.76431e-07
-1.68357e-06
-1.74296e-07
-1.59795e-06
-1.72098e-07
-1.51341e-06
-1.69837e-07
-1.43e-06
-1.67515e-07
-1.34774e-06
-1.65136e-07
-1.26667e-06
-1.62705e-07
-1.18681e-06
-1.60228e-07
-1.10818e-06
-1.5771e-07
-1.03081e-06
-1.55155e-07
-9.54732e-07
-1.52565e-07
-8.7993e-07
-1.49939e-07
-8.06408e-07
-1.47291e-07
-7.34179e-07
-1.44634e-07
-6.63247e-07
-1.41973e-07
-5.93613e-07
-1.39311e-07
-5.25278e-07
-1.3665e-07
-4.58239e-07
-1.33994e-07
-3.92493e-07
-1.31347e-07
-3.28035e-07
-1.28713e-07
-2.64854e-07
-1.26098e-07
-2.0294e-07
-1.23504e-07
-1.42284e-07
-1.20928e-07
-8.28754e-08
-1.18377e-07
-2.47065e-08
-1.15851e-07
3.22362e-08
-1.13363e-07
8.79806e-08
-1.10923e-07
1.42544e-07
-1.08517e-07
1.95937e-07
-1.06142e-07
2.48175e-07
-1.03803e-07
2.99285e-07
-1.01499e-07
3.49295e-07
-9.92321e-08
3.98365e-07
-9.70012e-08
4.46468e-07
-9.48761e-08
4.93388e-07
-9.28416e-08
5.39191e-07
-9.07686e-08
5.83956e-07
-8.86706e-08
6.27715e-07
-8.66002e-08
6.70497e-07
-8.45766e-08
7.12325e-07
-8.26066e-08
7.53223e-07
-8.06917e-08
7.93215e-07
-7.88307e-08
8.32323e-07
-7.70218e-08
8.70572e-07
-7.52635e-08
9.07984e-07
-7.35545e-08
9.44583e-07
-7.18941e-08
9.80392e-07
-7.02815e-08
1.01543e-06
-6.87164e-08
1.04973e-06
-6.71983e-08
1.0833e-06
-6.57273e-08
1.11618e-06
-6.4303e-08
1.14838e-06
-6.29256e-08
1.17993e-06
-6.1595e-08
1.21084e-06
-6.03111e-08
1.24115e-06
-5.90742e-08
1.27087e-06
-5.78841e-08
1.30003e-06
-5.67408e-08
1.32866e-06
-5.56439e-08
1.35676e-06
-5.45932e-08
1.38437e-06
-5.35879e-08
1.4115e-06
-5.26268e-08
1.43818e-06
-5.17081e-08
1.46442e-06
-5.08293e-08
1.49025e-06
-4.99863e-08
1.51567e-06
-4.91737e-08
1.54069e-06
-4.83836e-08
1.56533e-06
-4.76049e-08
1.58957e-06
-4.68222e-08
1.61341e-06
-4.60143e-08
1.63682e-06
-4.51517e-08
1.65975e-06
-4.41933e-08
1.68213e-06
-4.30815e-08
1.70386e-06
-4.17347e-08
1.72477e-06
-4.00348e-08
1.74462e-06
-3.78052e-08
1.76304e-06
-3.47764e-08
1.77948e-06
-3.04875e-08
1.79304e-06
-2.41863e-08
1.80277e-06
-1.42789e-08
1.80764e-06
1.99235e-09
1.80575e-06
3.14193e-08
8.8028e-08
1.79005e-06
2.46011e-07
-5.23361e-07
3.42326e-07
-5.46293e-07
3.58613e-07
-4.1796e-07
3.47569e-07
-2.93821e-07
3.19866e-07
-1.79493e-07
2.75783e-07
-7.29848e-08
2.14606e-07
2.6466e-08
1.35285e-07
1.1907e-07
3.67595e-08
2.04406e-07
-8.31347e-08
2.81776e-07
-2.30102e-07
3.50399e-07
-4.14663e-07
4.11995e-07
-6.50227e-07
4.73311e-07
-9.43716e-07
5.43004e-07
-1.28497e-06
6.24636e-07
-1.65207e-06
7.12718e-07
-2.02417e-06
7.96324e-07
-2.38443e-06
8.65991e-07
-2.71894e-06
9.1616e-07
-3.01716e-06
9.44431e-07
-3.27522e-06
9.50319e-07
-3.49411e-06
9.35101e-07
-3.67682e-06
9.01999e-07
-3.82738e-06
8.55397e-07
-3.95052e-06
7.99547e-07
-4.05165e-06
7.38131e-07
-4.1361e-06
6.74453e-07
-4.20827e-06
6.1127e-07
-4.27158e-06
5.50615e-07
-4.32866e-06
4.9374e-07
-4.38138e-06
4.41255e-07
-4.43087e-06
3.93391e-07
-4.47776e-06
3.50066e-07
-4.52234e-06
3.10998e-07
-4.56463e-06
2.75796e-07
-4.60454e-06
2.44021e-07
-4.6419e-06
2.15234e-07
-4.67652e-06
1.89018e-07
-4.70822e-06
1.64997e-07
-4.73683e-06
1.4284e-07
-4.76221e-06
1.22263e-07
-4.78426e-06
1.03031e-07
-4.80288e-06
8.49435e-08
-4.81801e-06
6.78364e-08
-4.8296e-06
5.15697e-08
-4.83756e-06
3.60243e-08
-4.84182e-06
2.10983e-08
-4.84222e-06
6.69792e-09
-4.83856e-06
-7.28355e-09
-4.8307e-06
-2.09604e-08
-4.81867e-06
-3.43922e-08
-4.80257e-06
-4.75668e-08
-4.78245e-06
-6.04616e-08
-4.75834e-06
-7.30684e-08
-4.73031e-06
-8.53807e-08
-4.69843e-06
-9.73927e-08
-4.66278e-06
-1.09098e-07
-4.62346e-06
-1.20487e-07
-4.58056e-06
-1.3155e-07
-4.53418e-06
-1.42275e-07
-4.48444e-06
-1.52651e-07
-4.43144e-06
-1.62664e-07
-4.37531e-06
-1.72301e-07
-4.31617e-06
-1.8155e-07
-4.25415e-06
-1.90405e-07
-4.18937e-06
-1.98856e-07
-4.12198e-06
-2.0689e-07
-4.0521e-06
-2.14501e-07
-3.97988e-06
-2.21684e-07
-3.90546e-06
-2.28434e-07
-3.82897e-06
-2.3475e-07
-3.75056e-06
-2.4063e-07
-3.67037e-06
-2.46074e-07
-3.58854e-06
-2.51084e-07
-3.50521e-06
-2.55664e-07
-3.42051e-06
-2.59817e-07
-3.3346e-06
-2.63551e-07
-3.2476e-06
-2.66872e-07
-3.15964e-06
-2.69788e-07
-3.07086e-06
-2.7231e-07
-2.98138e-06
-2.74446e-07
-2.89133e-06
-2.76209e-07
-2.80082e-06
-2.77611e-07
-2.70996e-06
-2.78666e-07
-2.61888e-06
-2.7939e-07
-2.52768e-06
-2.798e-07
-2.43648e-06
-2.79907e-07
-2.34539e-06
-2.79724e-07
-2.2545e-06
-2.79262e-07
-2.1639e-06
-2.78538e-07
-2.07371e-06
-2.77569e-07
-1.98404e-06
-2.7636e-07
-1.895e-06
-2.74903e-07
-1.80664e-06
-2.73187e-07
-1.71905e-06
-2.71202e-07
-1.63225e-06
-2.68941e-07
-1.54624e-06
-2.66421e-07
-1.46105e-06
-2.63679e-07
-1.37672e-06
-2.6076e-07
-1.29332e-06
-2.57699e-07
-1.2109e-06
-2.54516e-07
-1.12952e-06
-2.51224e-07
-1.0492e-06
-2.47831e-07
-9.69988e-07
-2.44348e-07
-8.91909e-07
-2.40784e-07
-8.1499e-07
-2.37148e-07
-7.39254e-07
-2.33447e-07
-6.64719e-07
-2.2969e-07
-5.91402e-07
-2.25883e-07
-5.19306e-07
-2.22035e-07
-4.48441e-07
-2.18156e-07
-3.78816e-07
-2.14259e-07
-3.10438e-07
-2.10351e-07
-2.43309e-07
-2.0644e-07
-1.77428e-07
-2.02531e-07
-1.12795e-07
-1.98627e-07
-4.94046e-08
-1.94737e-07
1.2749e-08
-1.90866e-07
7.367e-08
-1.8702e-07
1.33367e-07
-1.83201e-07
1.91852e-07
-1.79413e-07
2.49138e-07
-1.75662e-07
3.0524e-07
-1.71953e-07
3.6017e-07
-1.68293e-07
4.13935e-07
-1.64687e-07
4.66549e-07
-1.61131e-07
5.18034e-07
-1.57627e-07
5.68407e-07
-1.54176e-07
6.17692e-07
-1.50784e-07
6.65917e-07
-1.47457e-07
7.13126e-07
-1.4421e-07
7.59301e-07
-1.41051e-07
8.04409e-07
-1.37949e-07
8.48497e-07
-1.34856e-07
8.9161e-07
-1.31784e-07
9.33771e-07
-1.28761e-07
9.74999e-07
-1.25804e-07
1.01531e-06
-1.2292e-07
1.05473e-06
-1.2011e-07
1.09328e-06
-1.17374e-07
1.13097e-06
-1.14712e-07
1.16783e-06
-1.12122e-07
1.20387e-06
-1.09603e-07
1.23914e-06
-1.07155e-07
1.27363e-06
-1.04777e-07
1.30738e-06
-1.02469e-07
1.34042e-06
-1.00229e-07
1.37275e-06
-9.80585e-08
1.4044e-06
-9.59569e-08
1.4354e-06
-9.39241e-08
1.46576e-06
-9.19602e-08
1.49552e-06
-9.00651e-08
1.52468e-06
-8.8239e-08
1.55328e-06
-8.64817e-08
1.58133e-06
-8.47931e-08
1.60886e-06
-8.31728e-08
1.63589e-06
-8.16202e-08
1.66244e-06
-8.01341e-08
1.68852e-06
-7.8713e-08
1.71417e-06
-7.7354e-08
1.73939e-06
-7.60534e-08
1.76421e-06
-7.48056e-08
1.78864e-06
-7.36026e-08
1.81269e-06
-7.24332e-08
1.83637e-06
-7.12817e-08
1.85967e-06
-7.01266e-08
1.8826e-06
-6.89378e-08
1.90512e-06
-6.76742e-08
1.9272e-06
-6.62783e-08
1.94879e-06
-6.46701e-08
1.96979e-06
-6.27363e-08
1.99007e-06
-6.03144e-08
2.00943e-06
-5.71634e-08
2.02758e-06
-5.29202e-08
2.04408e-06
-4.6994e-08
2.05834e-06
-3.84451e-08
2.06958e-06
-2.55139e-08
2.07693e-06
-5.35628e-09
2.08083e-06
2.7516e-08
8.54873e-08
2.08337e-06
9.37361e-08
-6.17108e-07
6.23925e-08
-5.14962e-07
1.39089e-08
-3.69469e-07
-4.31822e-08
-2.36723e-07
-1.12679e-07
-1.0999e-07
-1.98051e-07
1.23909e-08
-3.02282e-07
1.30698e-07
-4.27788e-07
2.44575e-07
-5.77144e-07
3.53761e-07
-7.53735e-07
4.58367e-07
-9.62319e-07
5.5898e-07
-1.20721e-06
6.56887e-07
-1.4872e-06
7.53295e-07
-1.79149e-06
8.47288e-07
-2.10137e-06
9.34515e-07
-2.39723e-06
1.00856e-06
-2.66457e-06
1.06365e-06
-2.89512e-06
1.09653e-06
-3.08561e-06
1.10665e-06
-3.23687e-06
1.09569e-06
-3.35325e-06
1.0667e-06
-3.44129e-06
1.02315e-06
-3.5081e-06
9.68821e-07
-3.56022e-06
9.07517e-07
-3.60312e-06
8.42449e-07
-3.64123e-06
7.76248e-07
-3.67781e-06
7.11028e-07
-3.71487e-06
6.48336e-07
-3.75344e-06
5.89177e-07
-3.79377e-06
5.34069e-07
-3.83568e-06
4.83168e-07
-3.87868e-06
4.36393e-07
-3.92213e-06
3.93513e-07
-3.96534e-06
3.54207e-07
-4.00765e-06
3.18112e-07
-4.04849e-06
2.84857e-07
-4.08734e-06
2.54087e-07
-4.12379e-06
2.25468e-07
-4.1575e-06
1.98702e-07
-4.18818e-06
1.73525e-07
-4.21562e-06
1.49707e-07
-4.23965e-06
1.27052e-07
-4.2601e-06
1.05393e-07
-4.27685e-06
8.45886e-08
-4.2898e-06
6.45198e-08
-4.29886e-06
4.50846e-08
-4.30396e-06
2.61968e-08
-4.30504e-06
7.77974e-09
-4.30208e-06
-1.02404e-08
-4.29512e-06
-2.79247e-08
-4.28421e-06
-4.53012e-08
-4.26941e-06
-6.23667e-08
-4.25076e-06
-7.91084e-08
-4.22832e-06
-9.55137e-08
-4.20213e-06
-1.11569e-07
-4.17226e-06
-1.2726e-07
-4.13879e-06
-1.42572e-07
-4.10179e-06
-1.57487e-07
-4.06135e-06
-1.71987e-07
-4.01757e-06
-1.86056e-07
-3.97054e-06
-1.99674e-07
-3.92038e-06
-2.12823e-07
-3.8672e-06
-2.25483e-07
-3.81111e-06
-2.37639e-07
-3.75224e-06
-2.4928e-07
-3.6907e-06
-2.6039e-07
-3.62664e-06
-2.70957e-07
-3.56017e-06
-2.80971e-07
-3.49143e-06
-2.90424e-07
-3.42055e-06
-2.9931e-07
-3.34767e-06
-3.07626e-07
-3.27294e-06
-3.15368e-07
-3.19647e-06
-3.22539e-07
-3.11842e-06
-3.29139e-07
-3.03891e-06
-3.35174e-07
-2.95808e-06
-3.40647e-07
-2.87606e-06
-3.45568e-07
-2.79298e-06
-3.49945e-07
-2.70898e-06
-3.53789e-07
-2.62418e-06
-3.57111e-07
-2.5387e-06
-3.59925e-07
-2.45267e-06
-3.62246e-07
-2.36619e-06
-3.64089e-07
-2.27939e-06
-3.65471e-07
-2.19237e-06
-3.6641e-07
-2.10524e-06
-3.66924e-07
-2.01812e-06
-3.6703e-07
-1.9311e-06
-3.66745e-07
-1.84428e-06
-3.66084e-07
-1.75775e-06
-3.65066e-07
-1.67161e-06
-3.63707e-07
-1.58596e-06
-3.62015e-07
-1.50086e-06
-3.59996e-07
-1.4164e-06
-3.57653e-07
-1.33261e-06
-3.54989e-07
-1.24954e-06
-3.52012e-07
-1.16722e-06
-3.48743e-07
-1.08568e-06
-3.45213e-07
-1.00499e-06
-3.41457e-07
-9.25179e-07
-3.37506e-07
-8.46314e-07
-3.33382e-07
-7.68433e-07
-3.29105e-07
-6.91574e-07
-3.2469e-07
-6.15772e-07
-3.20151e-07
-5.41055e-07
-3.15502e-07
-4.67448e-07
-3.10755e-07
-3.94973e-07
-3.05922e-07
-3.23649e-07
-3.01014e-07
-2.53489e-07
-2.96043e-07
-1.84502e-07
-2.91022e-07
-1.16698e-07
-2.8596e-07
-5.00861e-08
-2.80871e-07
1.53291e-08
-2.75766e-07
7.95425e-08
-2.70653e-07