/*--------------------------------*- C++ -*----------------------------------*\
  =========                 |
  \\      /  F ield         | OpenFOAM: The Open Source CFD Toolbox
   \\    /   O peration     | Website:  https://openfoam.org
    \\  /    A nd           | Version:  8
     \\/     M anipulation  |
\*---------------------------------------------------------------------------*/
FoamFile
{
    version     2.0;
    format      ascii;
    class       volVectorField;
    location    "4700";
    object      U;
}
// * * * * * * * * * * * * * * * * * * * * * * * * * * * * * * * * * * * * * //

dimensions      [0 1 -1 0 0 0 0];

internalField   nonuniform List<vector> 
12225
(
(9.2745 -4.73371 0)
(13.1094 -1.71343 0)
(12.4778 -0.395198 0)
(11.2771 -0.0422041 0)
(10.6314 0.0141385 0)
(10.2979 -9.39228e-05 0)
(10.0776 -0.0165233 0)
(9.91227 -0.00288821 0)
(9.77909 0.0348748 0)
(9.66231 0.042893 0)
(9.55574 0.0248836 0)
(9.45767 0.00214254 0)
(9.36675 -0.0227914 0)
(9.28211 -0.0302248 0)
(9.20232 -0.0217876 0)
(9.13253 -0.0212274 0)
(9.07015 -0.0210398 0)
(9.08961 -0.0276957 0)
(10.2592 0.0928019 0)
(10.7814 0.199339 0)
(10.9594 0.245656 0)
(10.7469 0.229144 0)
(10.5875 0.172969 0)
(10.4527 0.115535 0)
(10.33 0.0823315 0)
(10.2327 0.0647301 0)
(10.155 0.0524769 0)
(10.0894 0.0472342 0)
(10.0323 0.0469932 0)
(9.98212 0.0489907 0)
(9.93785 0.0517979 0)
(9.89833 0.0519428 0)
(9.8615 0.0483252 0)
(9.82885 0.0438434 0)
(9.79428 0.0300806 0)
(9.76827 0.0102855 0)
(9.87768 -0.24504 0)
(9.74285 0.00579116 0)
(10.1971 0.125744 0)
(10.3245 0.179364 0)
(10.3564 0.161548 0)
(10.3311 0.120077 0)
(10.2777 0.0904941 0)
(10.2252 0.0746659 0)
(10.1812 0.0658755 0)
(10.1438 0.0600293 0)
(10.1103 0.056209 0)
(10.0799 0.0536515 0)
(10.052 0.0511369 0)
(10.026 0.0487626 0)
(10.0023 0.0460758 0)
(9.98118 0.0417684 0)
(9.95915 0.0316713 0)
(9.93458 0.0135799 0)
(9.83416 -0.443933 0)
(9.57654 -0.163146 0)
(9.91603 0.0336708 0)
(10.0933 0.134225 0)
(10.1892 0.145473 0)
(10.2168 0.120739 0)
(10.205 0.0978953 0)
(10.1824 0.0839096 0)
(10.1599 0.0756298 0)
(10.1389 0.0697126 0)
(10.119 0.0651349 0)
(10.1001 0.061638 0)
(10.0821 0.0586137 0)
(10.0648 0.0562298 0)
(10.0483 0.0538553 0)
(10.0325 0.0501456 0)
(10.0148 0.0424197 0)
(9.99178 0.0306157 0)
(9.87825 -0.387476 0)
(9.61653 -0.196147 0)
(9.81623 -0.01867 0)
(9.96136 0.0916132 0)
(10.0698 0.122197 0)
(10.1219 0.113628 0)
(10.1354 0.0992643 0)
(10.1332 0.0884211 0)
(10.1257 0.0809486 0)
(10.1162 0.0753969 0)
(10.1056 0.0711245 0)
(10.0946 0.0678822 0)
(10.0833 0.0652547 0)
(10.0718 0.0631571 0)
(10.0601 0.0610453 0)
(10.0477 0.0581075 0)
(10.0328 0.0530826 0)
(10.0125 0.0469056 0)
(9.91439 -0.28804 0)
(9.68304 -0.185176 0)
(9.78717 -0.0532073 0)
(9.88917 0.0509995 0)
(9.98796 0.0936803 0)
(10.0476 0.0992041 0)
(10.0751 0.0938744 0)
(10.0861 0.0875182 0)
(10.0892 0.0821207 0)
(10.0879 0.0777647 0)
(10.0842 0.0743511 0)
(10.0789 0.0717605 0)
(10.0726 0.0697423 0)
(10.0654 0.0681726 0)
(10.0572 0.0667266 0)
(10.0476 0.0650444 0)
(10.0354 0.0627848 0)
(10.0185 0.0611729 0)
(9.93763 -0.214041 0)
(9.74856 -0.167535 0)
(9.79244 -0.0752152 0)
(9.85608 0.0162208 0)
(9.93595 0.0644223 0)
(9.99281 0.0805955 0)
(10.0261 0.0835614 0)
(10.0447 0.0822436 0)
(10.0546 0.0797795 0)
(10.0593 0.0772876 0)
(10.0606 0.0751761 0)
(10.0596 0.0735594 0)
(10.057 0.0723897 0)
(10.053 0.0716359 0)
(10.0477 0.0711916 0)
(10.0407 0.0710171 0)
(10.0312 0.0712797 0)
(10.0182 0.0731542 0)
(9.95263 -0.167334 0)
(9.79947 -0.149676 0)
(9.81177 -0.0846411 0)
(9.84959 -0.00621 0)
(9.9114 0.0419322 0)
(9.96107 0.0638974 0)
(9.99432 0.0725502 0)
(10.0156 0.0752863 0)
(10.0289 0.07553 0)
(10.0367 0.0749037 0)
(10.041 0.074148 0)
(10.0427 0.0735821 0)
(10.0425 0.0733236 0)
(10.0408 0.0734493 0)
(10.0375 0.0740067 0)
(10.0325 0.0751376 0)
(10.0254 0.0772063 0)
(10.0157 0.0812064 0)
(9.96406 -0.132089 0)
(9.84003 -0.131988 0)
(9.83337 -0.0876897 0)
(9.85306 -0.0213324 0)
(9.89927 0.0244159 0)
(9.94102 0.0495133 0)
(9.97207 0.0621236 0)
(9.99385 0.068077 0)
(10.0086 0.0706961 0)
(10.0184 0.0717948 0)
(10.0246 0.0723178 0)
(10.0282 0.0727539 0)
(10.0298 0.0733609 0)
(10.0297 0.0743197 0)
(10.028 0.0757879 0)
(10.0248 0.0780089 0)
(10.0197 0.0814122 0)
(10.0129 0.0868094 0)
(9.97418 -0.100205 0)
(9.87757 -0.11239 0)
(9.85857 -0.085366 0)
(9.86387 -0.0323326 0)
(9.89487 0.0089292 0)
(9.92743 0.0352243 0)
(9.95439 0.0507173 0)
(9.97502 0.0594971 0)
(9.99015 0.0644443 0)
(10.0009 0.0673595 0)
(10.0085 0.0692983 0)
(10.0135 0.0708782 0)
(10.0166 0.0724769 0)
(10.018 0.0743698 0)
(10.0179 0.0768026 0)
(10.0164 0.0800773 0)
(10.0136 0.0846191 0)
(10.0095 0.0910445 0)
(9.98253 -0.0727091 0)
(9.91035 -0.0921962 0)
(9.88507 -0.078244 0)
(9.88001 -0.0386072 0)
(9.89746 -0.00337364 0)
(9.92043 0.0221693 0)
(9.94196 0.0391847 0)
(9.95999 0.0500813 0)
(9.97425 0.0570565 0)
(9.98518 0.0617053 0)
(9.99339 0.0650798 0)
(9.99941 0.0678638 0)
(10.0037 0.0705169 0)
(10.0064 0.0733852 0)
(10.0078 0.0767706 0)
(10.0081 0.0809928 0)
(10.0073 0.0864255 0)
(10.0058 0.0935046 0)
(9.98894 -0.0502566 0)
(9.93733 -0.072378 0)
(9.91073 -0.0674479 0)
(9.89917 -0.0399825 0)
(9.90566 -0.0116494 0)
(9.91955 0.0114526 0)
(9.93496 0.028531 0)
(9.94934 0.0405808 0)
(9.96169 0.0490249 0)
(9.97188 0.055112 0)
(9.98009 0.0597801 0)
(9.98659 0.0637033 0)
(9.99163 0.0673719 0)
(9.99544 0.071165 0)
(9.9982 0.075404 0)
(10.0001 0.0803912 0)
(10.0013 0.0864271 0)
(10.0021 0.0937948 0)
(9.99348 -0.0329086 0)
(9.9582 -0.0538109 0)
(9.93368 -0.0542833 0)
(9.91898 -0.0367869 0)
(9.91755 -0.015453 0)
(9.92366 0.00399534 0)
(9.93301 0.019776 0)
(9.94318 0.0318771 0)
(9.9529 0.0410111 0)
(9.96163 0.048021 0)
(9.96922 0.0536478 0)
(9.9757 0.0584841 0)
(9.98118 0.0629929 0)
(9.98578 0.0675419 0)
(9.98965 0.0724348 0)
(9.99294 0.0779317 0)
(9.99587 0.0842545 0)
(9.9987 0.0915744 0)
(9.99643 -0.0202024 0)
(9.97327 -0.0372097 0)
(9.95261 -0.0400452 0)
(9.93731 -0.0298103 0)
(9.93089 -0.0148231 0)
(9.93102 0.000367011 0)
(9.93504 0.0137748 0)
(9.94104 0.0248432 0)
(9.94782 0.0337594 0)
(9.95465 0.0409915 0)
(9.96117 0.0470501 0)
(9.96724 0.0523951 0)
(9.97281 0.0574118 0)
(9.9779 0.0624152 0)
(9.98261 0.0676595 0)
(9.98704 0.0733468 0)
(9.99135 0.0796279 0)
(9.99573 0.0865961 0)
(9.99816 -0.0112876 0)
(9.9833 -0.0229304 0)
(9.96682 -0.0257624 0)
(9.95243 -0.0200763 0)
(9.94344 -0.0102413 0)
(9.93952 0.000675492 0)
(9.9394 0.0110305 0)
(9.94183 0.0201444 0)
(9.94582 0.0279255 0)
(9.95069 0.034572 0)
(9.95597 0.0403857 0)
(9.96139 0.0456762 0)
(9.96681 0.0507217 0)
(9.97216 0.0557541 0)
(9.97744 0.0609575 0)
(9.9827 0.0664684 0)
(9.98803 0.0723763 0)
(9.99354 0.0787217 0)
(9.99906 -0.00508077 0)
(9.98922 -0.0107805 0)
(9.97612 -0.0119165 0)
(9.96309 -0.00848222 0)
(9.9531 -0.00243405 0)
(9.94685 0.00457931 0)
(9.94399 0.0115581 0)
(9.94384 0.0180212 0)
(9.9457 0.0238393 0)
(9.94896 0.0290809 0)
(9.95317 0.0339015 0)
(9.95799 0.0384779 0)
(9.96321 0.0429747 0)
(9.96868 0.0475294 0)
(9.97435 0.052246 0)
(9.9802 0.0571945 0)
(9.98623 0.0624101 0)
(9.99249 0.0678953 0)
(9.99942 -0.000367148 0)
(9.9918 0.000152136 0)
(9.98042 0.00183288 0)
(9.96821 0.00459443 0)
(9.9579 0.00792099 0)
(9.95061 0.0114026 0)
(9.94642 0.0148177 0)
(9.94498 0.0180895 0)
(9.94576 0.0212347 0)
(9.94825 0.0243194 0)
(9.95198 0.0274248 0)
(9.95661 0.0306282 0)
(9.96186 0.0339917 0)
(9.96757 0.0375596 0)
(9.97362 0.0413556 0)
(9.97993 0.0453845 0)
(9.98648 0.0496322 0)
(9.99325 0.0540688 0)
(9.99935 0.00408488 0)
(9.9911 0.0111737 0)
(9.97897 0.016134 0)
(9.96616 0.0187376 0)
(9.95552 0.0196141 0)
(9.94819 0.0195478 0)
(9.94419 0.0191612 0)
(9.94311 0.018864 0)
(9.94438 0.0188968 0)
(9.94741 0.0193768 0)
(9.95174 0.0203447 0)
(9.95698 0.0217953 0)
(9.96287 0.0236977 0)
(9.96919 0.0260073 0)
(9.97583 0.0286725 0)
(9.9827 0.0316369 0)
(9.98974 0.0348424 0)
(9.99692 0.0382284 0)
(9.99882 0.00972983 0)
(9.98675 0.0240493 0)
(9.97122 0.0318473 0)
(9.95641 0.0332949 0)
(9.94558 0.0307056 0)
(9.93942 0.0263519 0)
(9.93734 0.0217494 0)
(9.93845 0.0177408 0)
(9.94186 0.0146965 0)
(9.94687 0.012712 0)
(9.95292 0.0117318 0)
(9.95963 0.0116368 0)
(9.96674 0.0122881 0)
(9.97408 0.0135499 0)
(9.98155 0.0152973 0)
(9.98908 0.0174204 0)
(9.99665 0.0198229 0)
(10.0042 0.0224206 0)
(9.99757 0.01821 0)
(9.97773 0.0404557 0)
(9.95664 0.0495782 0)
(9.93945 0.0474798 0)
(9.92961 0.0394252 0)
(9.92659 0.0296488 0)
(9.92848 0.0204921 0)
(9.93357 0.0129687 0)
(9.94055 0.00735046 0)
(9.94856 0.00351928 0)
(9.95704 0.00122385 0)
(9.96567 0.000174507 0)
(9.97428 0.000107903 0)
(9.98276 0.000790812 0)
(9.99109 0.00203678 0)
(9.99925 0.00369291 0)
(10.0073 0.00563725 0)
(10.0151 0.00777174 0)
(9.99502 0.0318145 0)
(9.96177 0.062134 0)
(9.93372 0.069552 0)
(9.91534 0.0601159 0)
(9.90932 0.043952 0)
(9.91249 0.0276614 0)
(9.92084 0.0139952 0)
(9.93162 0.00364052 0)
(9.94322 -0.00364084 0)
(9.95479 -0.00837299 0)
(9.96594 -0.01113 0)
(9.97652 -0.0123939 0)
(9.98651 -0.0125706 0)
(9.99595 -0.0119596 0)
(10.0049 -0.0107974 0)
(10.0135 -0.00925624 0)
(10.0217 -0.00746734 0)
(10.0296 -0.00552886 0)
(9.99018 0.0534618 0)
(9.93561 0.0901521 0)
(9.90098 0.0906282 0)
(9.88515 0.0687574 0)
(9.8878 0.0418196 0)
(9.90121 0.0186592 0)
(9.91856 0.00141788 0)
(9.93626 -0.0103957 0)
(9.95285 -0.0179404 0)
(9.96786 -0.0223928 0)
(9.98129 -0.0246487 0)
(9.99332 -0.0253899 0)
(10.0042 -0.0250951 0)
(10.0141 -0.0241194 0)
(10.0232 -0.0227006 0)
(10.0318 -0.0210069 0)
(10.0399 -0.0191552 0)
(10.0476 -0.017227 0)
(9.9819 0.0862471 0)
(9.89548 0.124258 0)
(9.85817 0.109884 0)
(9.85209 0.0697742 0)
(9.87033 0.0303384 0)
(9.89842 0.00144915 0)
(9.92658 -0.0172042 0)
(9.95135 -0.0283205 0)
(9.9722 -0.0344198 0)
(9.9896 -0.0373295 0)
(10.0042 -0.0382059 0)
(10.0168 -0.0378006 0)
(10.0276 -0.0366177 0)
(10.0372 -0.0349806 0)
(10.0459 -0.0330919 0)
(10.0539 -0.0310919 0)
(10.0613 -0.0290585 0)
(10.0684 -0.0270534 0)
(9.96925 0.133989 0)
(9.83823 0.163089 0)
(9.80793 0.122591 0)
(9.82311 0.0588002 0)
(9.86512 0.00730843 0)
(9.91138 -0.0240263 0)
(9.95035 -0.0405904 0)
(9.98048 -0.048371 0)
(10.0034 -0.0512353 0)
(10.0212 -0.0515373 0)
(10.0353 -0.0504153 0)
(10.0469 -0.0485126 0)
(10.0565 -0.0462604 0)
(10.0649 -0.0438596 0)
(10.0723 -0.0414376 0)
(10.079 -0.0390865 0)
(10.0852 -0.0368581 0)
(10.0911 -0.0347639 0)
(9.94951 0.20714 0)
(9.76128 0.207022 0)
(9.75726 0.123478 0)
(9.81042 0.0320112 0)
(9.88382 -0.0278608 0)
(9.94874 -0.0559947 0)
(9.99526 -0.0660724 0)
(10.0266 -0.0678011 0)
(10.048 -0.0659724 0)
(10.063 -0.0631915 0)
(10.0743 -0.0598828 0)
(10.083 -0.0564956 0)
(10.09 -0.0531568 0)
(10.0959 -0.0501244 0)
(10.101 -0.0472806 0)
(10.1057 -0.0446752 0)
(10.11 -0.0423212 0)
(10.1141 -0.0401935 0)
(9.91094 0.322718 0)
(9.65923 0.254545 0)
(9.71887 0.107407 0)
(9.83329 -0.011923 0)
(9.94173 -0.0726524 0)
(10.0199 -0.0901624 0)
(10.0662 -0.0893219 0)
(10.0917 -0.0831377 0)
(10.1058 -0.0760382 0)
(10.1141 -0.0696161 0)
(10.1197 -0.0644924 0)
(10.1236 -0.0600804 0)
(10.1262 -0.0564002 0)
(10.1281 -0.053201 0)
(10.1298 -0.050163 0)
(10.1314 -0.0476197 0)
(10.1329 -0.045547 0)
(10.1344 -0.0434256 0)
(9.84404 0.43511 0)
(9.53798 0.261026 0)
(9.7269 0.0591349 0)
(9.92367 -0.0731154 0)
(10.0584 -0.121552 0)
(10.1344 -0.120192 0)
(10.1664 -0.10528 0)
(10.1758 -0.0906167 0)
(10.1759 -0.0784828 0)
(10.1725 -0.0703763 0)
(10.1686 -0.0644296 0)
(10.1646 -0.0597636 0)
(10.1606 -0.0556876 0)
(10.1569 -0.0524173 0)
(10.1536 -0.0496134 0)
(10.1503 -0.0474482 0)
(10.1479 -0.045848 0)
(10.146 -0.0439273 0)
(9.83598 0.319666 0)
(9.55021 0.0912513 0)
(9.91739 -0.0687254 0)
(10.1507 -0.160112 0)
(10.2634 -0.172136 0)
(10.3032 -0.142726 0)
(10.2978 -0.112094 0)
(10.276 -0.0899552 0)
(10.2516 -0.07539 0)
(10.2302 -0.0674549 0)
(10.2132 -0.0619259 0)
(10.1983 -0.0574411 0)
(10.1844 -0.0528829 0)
(10.1713 -0.0486262 0)
(10.1597 -0.0448463 0)
(10.1497 -0.0425167 0)
(10.141 -0.0407812 0)
(10.1325 -0.0380697 0)
(10.2049 -0.0633775 0)
(10.4095 -0.191706 0)
(10.7164 -0.282558 0)
(10.6879 -0.282287 0)
(10.6191 -0.230103 0)
(10.5417 -0.163667 0)
(10.4546 -0.117044 0)
(10.3763 -0.092501 0)
(10.3137 -0.0798718 0)
(10.2654 -0.0678613 0)
(10.2262 -0.0588594 0)
(10.1916 -0.0542987 0)
(10.1603 -0.0534853 0)
(10.1322 -0.053082 0)
(10.107 -0.0522528 0)
(10.0852 -0.0482441 0)
(10.0638 -0.0440349 0)
(10.0436 -0.0449087 0)
(9.41631 4.45107 0)
(12.7294 2.07612 0)
(12.5649 0.621213 0)
(11.569 0.127657 0)
(10.9309 0.00343446 0)
(10.5866 -0.00206812 0)
(10.3638 0.0123089 0)
(10.2022 0.0302324 0)
(10.0795 0.0411901 0)
(9.97728 0.0358286 0)
(9.88477 0.0250301 0)
(9.79908 0.0218947 0)
(9.72267 0.0249852 0)
(9.65612 0.0228078 0)
(9.59983 0.0197966 0)
(9.54589 0.0108825 0)
(9.49517 -0.0143899 0)
(9.45193 -0.0109349 0)
(-0.0275224 0.0934411 0)
(0.137018 -0.183506 0)
(0.324983 -0.305894 0)
(0.52547 -0.315115 0)
(0.702946 -0.27207 0)
(0.833496 -0.211078 0)
(0.909814 -0.146339 -8.60279e-20)
(0.940395 -0.0824934 8.66521e-20)
(0.919522 -0.0201706 0)
(0.858838 0.0345398 9.18732e-20)
(0.77168 0.0739628 0)
(0.672417 0.0920079 0)
(0.578492 0.0877264 0)
(0.505689 0.0666655 -1.43219e-19)
(0.455736 0.0377121 0)
(0.412391 0.00997567 0)
(0.352859 -0.00897126 1.87953e-19)
(0.2627 -0.0086779 0)
(0.135159 0.0293076 0)
(-0.0448306 0.11295 0)
(-0.300543 0.186492 -1.64827e-19)
(-0.594241 0.235261 0)
(-0.915661 0.266819 -7.62459e-20)
(-1.25191 0.296036 0)
(-1.59134 0.323654 0)
(-1.93108 0.336463 -4.13262e-20)
(-2.2635 0.335615 0)
(-2.58061 0.326492 3.45434e-20)
(-2.87939 0.310354 0)
(-3.1564 0.289554 -3.13439e-20)
(-3.41075 0.266418 0)
(-3.64205 0.242538 0)
(-3.85102 0.218947 0)
(-4.03876 0.196353 0)
(-4.20671 0.175132 0)
(-4.35643 0.155489 2.82315e-20)
(-4.48949 0.137461 0)
(-4.6074 0.120976 -5.55742e-20)
(-4.71153 0.105908 0)
(-4.8031 0.0920957 5.47753e-20)
(-4.88316 0.0793782 0)
(-4.95262 0.0676031 0)
(-5.01221 0.0566427 -5.35531e-20)
(-5.06258 0.0464002 0)
(-5.10422 0.0368162 -5.26613e-20)
(-5.13754 0.0278737 5.21834e-20)
(-5.16294 0.019617 0)
(-5.1808 0.0121939 5.11565e-20)
(-5.19141 0.00585217 5.0604e-20)
(-5.19494 0.000802373 0)
(-5.19262 -0.00315128 0)
(-5.1857 -0.00644965 0)
(-5.17432 -0.00937218 0)
(-5.15879 -0.012083 0)
(-5.13929 -0.0146516 -4.61843e-20)
(-5.11595 -0.0170918 0)
(-5.08888 -0.0194148 4.43191e-20)
(-5.05819 -0.0216296 0)
(-5.02397 -0.0237384 0)
(-4.98633 -0.0257431 -4.1141e-20)
(-4.94538 -0.0276442 0)
(-4.90122 -0.0294415 3.87653e-20)
(-4.85396 -0.0311349 0)
(-4.80372 -0.0327244 0)
(-4.7506 -0.0342099 0)
(-4.69474 -0.0355913 -3.33857e-20)
(-4.63625 -0.0368689 0)
(-4.57526 -0.0380437 0)
(-4.5119 -0.0391162 -2.87883e-20)
(-4.44629 -0.0400871 0)
(-4.37858 -0.0409575 -2.54469e-20)
(-4.30888 -0.0417288 0)
(-4.23732 -0.0424025 0)
(-4.16406 -0.0429804 0)
(-4.0892 -0.0434654 1.80694e-20)
(-4.01289 -0.0438604 0)
(-3.93524 -0.0441702 0)
(-3.8564 -0.0443992 1.18877e-20)
(-3.77648 -0.0445517 9.69406e-21)
(-3.6956 -0.0446283 0)
(-3.61388 -0.0446211 5.09211e-21)
(-3.53143 -0.0445184 0)
(-3.44838 -0.044307 3.68183e-22)
(-3.36484 -0.0439981 0)
(-3.28092 -0.0436429 -1.01196e-20)
(-3.1967 -0.0433097 0)
(-3.11224 -0.0430374 2.13677e-20)
(-3.02763 -0.0427694 0)
(-2.94293 -0.042383 0)
(-2.85825 -0.0418999 0)
(-2.77364 -0.0415931 -4.65524e-20)
(-2.68907 -0.0416604 0)
(-2.60454 -0.0419853 6.08345e-20)
(-2.52005 -0.0425297 0)
(-2.43557 -0.043412 -7.65022e-20)
(-2.35131 -0.0443374 -8.4881e-20)
(-2.26755 -0.0447809 -9.35888e-20)
(-2.18453 -0.0445769 0)
(-2.10241 -0.0439709 0)
(-2.02123 -0.0432727 0)
(-1.94099 -0.0425677 0)
(-1.8617 -0.0418673 0)
(-1.78339 -0.0411728 0)
(-1.70608 -0.0404858 0)
(-1.62979 -0.03981 0)
(-1.55455 -0.0391512 1.92701e-19)
(-1.48037 -0.0385166 2.07021e-19)
(-1.40727 -0.0379114 0)
(-1.33526 -0.0373247 0)
(-1.26437 -0.0366994 0)
(-1.19464 -0.0360416 2.74288e-19)
(-1.12607 -0.0354074 0)
(-1.05865 -0.0347918 0)
(-0.992405 -0.034196 0)
(-0.927322 -0.0336218 0)
(-0.863404 -0.0330713 -3.90927e-19)
(-0.80065 -0.0325468 0)
(-0.739056 -0.0320517 0)
(-0.678616 -0.0315893 4.89104e-19)
(-0.619321 -0.0311613 -5.28802e-19)
(-0.561168 -0.030771 0)
(-0.504145 -0.030429 -6.22409e-19)
(-0.448242 -0.0301592 0)
(-0.393439 -0.0300059 7.41385e-19)
(-0.339715 -0.0299803 0)
(-0.287056 -0.0300438 0)
(-0.235446 -0.0301834 0)
(-0.184858 -0.0304101 0)
(-0.135265 -0.0307394 0)
(-0.0867128 -0.0311901 -2.84644e-18)
(-0.0394109 -0.0316442 -3.2771e-18)
(0.00669254 -0.0313453 0)
(0.0521075 -0.0298484 0)
(0.0968452 -0.0279982 0)
(0.140764 -0.0262802 2.68497e-18)
(0.183772 -0.0247474 0)
(0.225847 -0.023374 0)
(0.267012 -0.0221365 0)
(0.307301 -0.021015 2.04006e-18)
(0.346742 -0.0199923 -1.93377e-18)
(0.385366 -0.0190543 0)
(0.423197 -0.0181894 0)
(0.460261 -0.0173884 -1.68698e-18)
(0.496582 -0.0166439 -1.62232e-18)
(0.532183 -0.0159496 0)
(0.567087 -0.0153005 0)
(0.601317 -0.0146922 1.46402e-18)
(0.634895 -0.0141211 -1.42053e-18)
(0.667843 -0.0135841 0)
(0.700186 -0.0130786 0)
(0.731945 -0.0126022 -1.31024e-18)
(0.763142 -0.0121529 0)
(0.793802 -0.011729 0)
(0.823947 -0.011329 -1.22272e-18)
(0.8536 -0.0109514 0)
(0.882785 -0.0105949 -1.17363e-18)
(0.911524 -0.0102585 0)
(0.939842 -0.00994106 0)
(0.96776 -0.00964148 0)
(0.995302 -0.00935871 1.09162e-18)
(1.02249 -0.00909165 0)
(1.04934 -0.00883902 0)
(1.07588 -0.00859937 0)
(1.10211 -0.00837092 0)
(1.12805 -0.0081514 0)
(1.1537 -0.0079379 0)
(1.17905 -0.00772655 9.82795e-19)
(1.20408 -0.00751221 9.69871e-19)
(1.22875 -0.00728789 0)
(1.253 -0.00704404 0)
(1.27672 -0.00676715 0)
(1.29973 -0.00643862 -9.24515e-19)
(1.32181 -0.00602873 0)
(1.34255 -0.00549872 1.81391e-18)
(1.36149 -0.00476159 -1.80054e-18)
(1.37723 -0.00372588 -1.79181e-18)
(1.38982 -0.00195448 1.7901e-18)
(1.39025 0.00132718 -1.79548e-18)
(1.38755 0.00807492 1.8088e-18)
(1.30829 0.0198887 0)
(0.0963175 -0.268976 0)
(0.334073 -0.68127 0)
(0.51418 -0.706523 1.57377e-19)
(0.61182 -0.571348 0)
(0.662817 -0.408899 -1.11151e-19)
(0.683257 -0.253827 -1.08116e-19)
(0.67723 -0.112175 -5.62608e-20)
(0.646857 0.0155835 -5.62062e-20)
(0.60388 0.125403 0)
(0.544684 0.211925 -6.08152e-20)
(0.467873 0.267403 0)
(0.373387 0.283206 0)
(0.257584 0.256438 1.70513e-19)
(0.110251 0.211438 9.82973e-20)
(-0.0747757 0.206284 -1.84487e-19)
(-0.301044 0.271832 -1.43816e-19)
(-0.579022 0.383405 -5.71972e-20)
(-0.904951 0.513241 0)
(-1.25854 0.642603 0)
(-1.61664 0.756432 0)
(-1.97226 0.841989 -2.85789e-20)
(-2.31784 0.895557 0)
(-2.64774 0.919043 6.9072e-20)
(-2.95446 0.915464 0)
(-3.23396 0.889028 0)
(-3.4846 0.844862 1.98219e-20)
(-3.70498 0.788296 0)
(-3.89592 0.724861 -1.9764e-20)
(-4.05931 0.658788 -4.18021e-20)
(-4.1987 0.592787 2.01707e-20)
(-4.31699 0.528961 0)
(-4.41709 0.469093 0)
(-4.5017 0.414013 0)
(-4.57323 0.364074 -4.42631e-20)
(-4.63375 0.319236 -4.47693e-20)
(-4.68493 0.279226 -2.21919e-20)
(-4.72816 0.243634 0)
(-4.76455 0.211979 4.53114e-20)
(-4.79499 0.183761 0)
(-4.82019 0.158502 -4.5883e-20)
(-4.84075 0.135758 0)
(-4.85716 0.115137 0)
(-4.86984 0.0962977 4.60933e-20)
(-4.87916 0.0789493 0)
(-4.88546 0.0628513 1.38181e-19)
(-4.88906 0.0478094 -4.56137e-20)
(-4.89023 0.0336883 0)
(-4.88922 0.0204576 -4.49445e-20)
(-4.88629 0.00823327 -4.44878e-20)
(-4.8817 -0.00282243 0)
(-4.87455 -0.0127654 0)
(-4.86372 -0.0218914 0)
(-4.84922 -0.0304437 0)
(-4.83093 -0.0385369 0)
(-4.80888 -0.0462405 4.02216e-20)
(-4.78314 -0.0535915 7.91736e-20)
(-4.75379 -0.060611 -3.84442e-20)
(-4.7209 -0.0673103 0)
(-4.68456 -0.0736952 7.3495e-20)
(-4.64488 -0.0797683 -3.59712e-20)
(-4.60193 -0.0855303 0)
(-4.55584 -0.0909809 -3.32711e-20)
(-4.5067 -0.0961201 0)
(-4.45463 -0.100949 0)
(-4.39973 -0.10547 -5.99002e-20)
(-4.34212 -0.109683 2.83895e-20)
(-4.28192 -0.113587 -5.47084e-20)
(-4.21925 -0.117186 5.19896e-20)
(-4.15424 -0.120484 2.42977e-20)
(-4.08701 -0.123485 0)
(-4.0177 -0.126195 2.13646e-20)
(-3.94641 -0.128618 0)
(-3.8733 -0.130762 0)
(-3.79848 -0.132634 0)
(-3.72207 -0.134243 1.5638e-20)
(-3.64422 -0.135595 0)
(-3.56504 -0.136702 2.37732e-20)
(-3.48465 -0.137572 -2.99842e-20)
(-3.40319 -0.138214 -7.94494e-21)
(-3.32076 -0.138641 0)
(-3.23749 -0.138862 -4.14423e-21)
(-3.15349 -0.138893 0)
(-3.06886 -0.138746 -2.97578e-22)
(-2.98371 -0.138436 0)
(-2.89812 -0.137975 8.10759e-21)
(-2.81221 -0.137364 -2.35592e-20)
(-2.72608 -0.136611 -1.69626e-20)
(-2.63983 -0.135723 0)
(-2.55355 -0.134721 0)
(-2.46731 -0.133629 0)
(-2.38118 -0.13244 3.61778e-20)
(-2.29532 -0.131119 0)
(-2.20986 -0.129638 -4.6654e-20)
(-2.12495 -0.127965 0)
(-2.0407 -0.126046 1.7187e-19)
(-1.95721 -0.123888 6.36292e-20)
(-1.87449 -0.121605 6.96603e-20)
(-1.79247 -0.1193 0)
(-1.71114 -0.117032 0)
(-1.63055 -0.114798 0)
(-1.55076 -0.112575 0)
(-1.47183 -0.110351 0)
(-1.3938 -0.10812 2.19487e-19)
(-1.3167 -0.105883 2.34979e-19)
(-1.24056 -0.103644 0)
(-1.1654 -0.101405 -1.34758e-19)
(-1.09126 -0.0991686 -1.43538e-19)
(-1.01816 -0.0969375 0)
(-0.946121 -0.0947133 -3.23031e-19)
(-0.875159 -0.0925003 0)
(-0.80527 -0.0903121 1.8132e-19)
(-0.736461 -0.0881545 0)
(-0.668744 -0.0860278 0)
(-0.602123 -0.0839342 -4.34443e-19)
(-0.536602 -0.0818754 0)
(-0.47218 -0.0798527 2.44828e-19)
(-0.408858 -0.0778693 0)
(-0.346634 -0.0759308 0)
(-0.285503 -0.0740461 2.89764e-19)
(-0.225455 -0.0722132 3.09068e-19)
(-0.166484 -0.0704267 0)
(-0.108583 -0.0686895 -3.46361e-19)
(-0.0517591 -0.0670019 0)
(0.00399201 -0.0653554 3.82633e-19)
(0.0587115 -0.0637429 7.66192e-19)
(0.112433 -0.0621758 0)
(0.165157 -0.0606688 0)
(0.216883 -0.0592265 0)
(0.267627 -0.0578466 0)
(0.317422 -0.0565312 7.09242e-19)
(0.366337 -0.0552694 2.09646e-18)
(0.414458 -0.053891 0)
(0.461699 -0.0522459 0)
(0.50792 -0.050472 0)
(0.553188 -0.0487253 -6.65631e-19)
(0.597587 -0.0470578 0)
(0.641144 -0.0454778 0)
(0.683876 -0.0439828 1.28794e-18)
(0.725805 -0.0425663 6.36951e-19)
(0.766952 -0.041221 6.32427e-19)
(0.807339 -0.0399401 0)
(0.846987 -0.0387182 0)
(0.885917 -0.0375509 6.15882e-19)
(0.924151 -0.0364345 -6.09646e-19)
(0.96171 -0.035366 0)
(0.998615 -0.034343 0)
(1.03489 -0.0333633 -5.96788e-19)
(1.07055 -0.0324251 1.77638e-18)
(1.10562 -0.0315266 0)
(1.14013 -0.0306666 0)
(1.17409 -0.0298438 5.80319e-19)
(1.20752 -0.0290569 0)
(1.24045 -0.0283049 1.14493e-18)
(1.2729 -0.0275868 -5.68534e-19)
(1.3049 -0.0269016 0)
(1.33645 -0.0262484 5.62421e-19)
(1.3676 -0.0256261 1.11756e-18)
(1.39835 -0.0250335 0)
(1.42872 -0.0244696 0)
(1.45875 -0.0239327 -5.49586e-19)
(1.48845 -0.0234212 0)
(1.51783 -0.0229327 1.08646e-18)
(1.54692 -0.0224644 0)
(1.57572 -0.0220125 0)
(1.60425 -0.021572 0)
(1.6325 -0.0211362 0)
(1.66047 -0.0206962 -5.29008e-19)
(1.68813 -0.0202399 -5.2624e-19)
(1.71546 -0.019751 0)
(1.74239 -0.0192067 0)
(1.76884 -0.0185755 0)
(1.79465 -0.0178117 5.16145e-19)
(1.81963 -0.0168483 0)
(1.84345 -0.0155822 -1.02487e-18)
(1.86569 -0.0138364 1.02261e-18)
(1.88543 -0.0113263 1.02223e-18)
(1.90223 -0.00731129 1.02332e-18)
(1.91244 -0.000520629 1.02849e-18)
(1.92474 0.0124232 1.02038e-18)
(1.90518 0.0361852 0)
(0.116442 -0.859713 0)
(0.269017 -1.05684 0)
(0.31611 -0.826014 -1.26344e-19)
(0.315417 -0.58424 -1.0818e-19)
(0.297986 -0.373774 1.005e-19)
(0.266778 -0.188646 1.00681e-19)
(0.220595 -0.0231856 -6.44902e-22)
(0.158699 0.124558 0)
(0.0809612 0.255102 0)
(-0.0138532 0.366021 0)
(-0.129301 0.451732 0)
(-0.273448 0.512795 0)
(-0.459209 0.56662 -2.67364e-19)
(-0.69707 0.641355 0)
(-0.983296 0.753911 6.62842e-20)
(-1.30203 0.895878 5.71823e-20)
(-1.63531 1.04399 0)
(-1.96625 1.178 0)
(-2.27958 1.28538 0)
(-2.56347 1.35909 0)
(-2.81258 1.39483 3.49082e-20)
(-3.02652 1.39239 0)
(-3.20666 1.35643 -3.23504e-20)
(-3.35585 1.29418 0)
(-3.47856 1.21298 0)
(-3.57938 1.11922 0)
(-3.66313 1.01897 -6.85947e-20)
(-3.73418 0.917576 0)
(-3.79604 0.81917 3.31207e-20)
(-3.8515 0.726545 -7.07078e-20)
(-3.90248 0.641216 0)
(-3.95027 0.56392 0)
(-3.99563 0.494707 0)
(-4.03892 0.433192 3.65677e-20)
(-4.08026 0.378727 3.7155e-20)
(-4.1196 0.330539 0)
(-4.15679 0.287832 0)
(-4.19168 0.249845 -7.78068e-20)
(-4.22407 0.215884 -7.81997e-20)
(-4.25382 0.185339 7.84326e-20)
(-4.28076 0.15769 0)
(-4.30479 0.132509 0)
(-4.32582 0.109448 0)
(-4.34378 0.0882223 0)
(-4.3586 0.0685983 -7.70158e-20)
(-4.37022 0.0503761 -7.69177e-20)
(-4.37859 0.0333716 7.62747e-20)
(-4.38356 0.0173838 0)
(-4.38495 0.00215634 0)
(-4.38262 -0.0125972 0)
(-4.3765 -0.0270098 0)
(-4.36665 -0.0409949 -7.11108e-20)
(-4.35313 -0.0544606 0)
(-4.33598 -0.0673958 0)
(-4.31522 -0.0798045 -6.69989e-20)
(-4.29092 -0.0916957 -6.49732e-20)
(-4.26315 -0.103076 0)
(-4.23196 -0.113951 1.24578e-19)
(-4.19744 -0.124322 -6.00351e-20)
(-4.15968 -0.134189 5.82584e-20)
(-4.11876 -0.14355 0)
(-4.07478 -0.152402 0)
(-4.02784 -0.160745 0)
(-3.97804 -0.168577 0)
(-3.92549 -0.175902 4.84266e-20)
(-3.8703 -0.18272 9.37841e-20)
(-3.81258 -0.189031 4.40612e-20)
(-3.75246 -0.194838 -4.1789e-20)
(-3.69005 -0.200148 0)
(-3.62547 -0.204967 7.54325e-20)
(-3.55886 -0.209303 7.05494e-20)
(-3.49032 -0.213165 6.55498e-20)
(-3.41999 -0.216564 -6.04346e-20)
(-3.34799 -0.219509 0)
(-3.27444 -0.222016 -7.41103e-20)
(-3.19948 -0.224096 0)
(-3.12322 -0.225765 2.00991e-20)
(-3.04578 -0.227038 1.5876e-20)
(-2.96729 -0.227931 0)
(-2.88787 -0.228461 0)
(-2.80762 -0.228644 1.53692e-20)
(-2.72666 -0.228498 0)
(-2.6451 -0.22804 2.93394e-21)
(-2.56304 -0.22729 0)
(-2.48059 -0.22627 9.9891e-21)
(-2.39785 -0.225 3.47053e-20)
(-2.31493 -0.2235 0)
(-2.23192 -0.221783 0)
(-2.14892 -0.219864 0)
(-2.06602 -0.217763 4.45729e-20)
(-1.9833 -0.215504 0)
(-1.90088 -0.2131 5.93944e-20)
(-1.81885 -0.210541 0)
(-1.73731 -0.207814 0)
(-1.65631 -0.204898 -1.67035e-19)
(-1.5759 -0.201775 0)
(-1.49609 -0.198459 -9.93037e-20)
(-1.41689 -0.194993 0)
(-1.33833 -0.191435 -1.16583e-19)
(-1.26047 -0.187823 0)
(-1.18336 -0.184175 0)
(-1.10706 -0.180499 0)
(-1.03161 -0.176801 -4.62661e-19)
(-0.957042 -0.173087 -1.65033e-19)
(-0.883388 -0.169364 0)
(-0.810675 -0.16564 0)
(-0.738929 -0.161919 0)
(-0.66817 -0.158208 0)
(-0.598417 -0.15451 2.18827e-19)
(-0.529681 -0.150831 -4.58442e-19)
(-0.461968 -0.14718 -2.42659e-19)
(-0.39529 -0.143566 5.07632e-19)
(-0.329657 -0.139995 5.33429e-19)
(-0.265074 -0.136472 2.81363e-19)
(-0.201544 -0.133 0)
(-0.139068 -0.129579 6.16192e-19)
(-0.0776467 -0.126212 0)
(-0.0172824 -0.122902 -6.73528e-19)
(0.0420315 -0.119651 -3.4515e-19)
(0.100308 -0.11646 0)
(0.157555 -0.113331 6.93108e-19)
(0.213776 -0.110268 3.48823e-19)
(0.268983 -0.107271 0)
(0.323186 -0.10433 3.48718e-19)
(0.376393 -0.101434 -1.0528e-18)
(0.428612 -0.098592 0)
(0.479858 -0.0958152 0)
(0.530148 -0.0931059 0)
(0.579498 -0.0904649 0)
(0.627932 -0.0878966 -7.07739e-19)
(0.675484 -0.0854083 -7.10231e-19)
(0.722176 -0.0830147 0)
(0.767975 -0.0807033 0)
(0.812866 -0.0784348 0)
(0.856902 -0.0762081 0)
(0.900125 -0.0740392 0)
(0.942551 -0.0719368 0)
(0.984195 -0.0699035 -7.14008e-19)
(1.02507 -0.0679392 -1.08874e-21)
(1.0652 -0.0660421 0)
(1.1046 -0.0642103 0)
(1.14329 -0.0624419 -7.13843e-19)
(1.18129 -0.0607349 0)
(1.21862 -0.0590878 7.14891e-19)
(1.2553 -0.057499 7.1403e-19)
(1.29135 -0.0559673 0)
(1.32679 -0.0544914 0)
(1.36165 -0.0530703 -7.14564e-19)
(1.39594 -0.0517028 -1.42733e-18)
(1.42969 -0.050388 0)
(1.46291 -0.0491249 0)
(1.49563 -0.0479126 0)
(1.52786 -0.0467502 -7.13259e-19)
(1.55964 -0.0456367 7.12878e-19)
(1.59097 -0.0445712 0)
(1.62189 -0.0435525 1.42288e-18)
(1.65241 -0.0425796 7.10422e-19)
(1.68256 -0.041651 -1.42083e-18)
(1.71235 -0.0407651 0)
(1.74181 -0.0399198 0)
(1.77095 -0.0391127 -1.41702e-18)
(1.79979 -0.0383404 -7.08223e-19)
(1.82836 -0.0375986 0)
(1.85666 -0.0368815 0)
(1.8847 -0.0361816 0)
(1.91248 -0.0354888 0)
(1.94001 -0.0347895 -1.40689e-18)
(1.96727 -0.0340654 0)
(1.99422 -0.0332916 0)
(2.02083 -0.0324338 0)
(2.04701 -0.0314441 0)
(2.07266 -0.0302542 0)
(2.09759 -0.0287633 0)
(2.12155 -0.0268199 -1.39755e-18)
(2.1442 -0.0241725 0)
(2.16487 -0.0204157 0)
(2.18333 -0.0147573 -2.81632e-18)
(2.19677 -0.00587973 1.41818e-18)
(2.21146 0.00887445 -1.4163e-18)
(2.20637 0.0362533 1.41175e-18)
(0.0333213 -1.16607 0)
(0.0696824 -1.02977 3.59976e-19)
(0.0339285 -0.746804 0)
(-0.0105291 -0.506325 1.1089e-19)
(-0.0658649 -0.283604 0)
(-0.133731 -0.0740149 0)
(-0.216977 0.12284 -8.2816e-20)
(-0.317977 0.306223 0)
(-0.438857 0.475694 0)
(-0.582221 0.631808 0)
(-0.751925 0.777103 0)
(-0.953179 0.917679 0)
(-1.18861 1.06165 2.04217e-19)
(-1.45264 1.21242 9.24454e-20)
(-1.73078 1.36374 -8.36965e-20)
(-2.00468 1.50227 0)
(-2.2586 1.61416 0)
(-2.48249 1.6901 0)
(-2.67155 1.72633 0)
(-2.82438 1.72415 0)
(-2.94353 1.68739 6.01686e-20)
(-3.03455 1.62131 5.88517e-20)
(-3.10355 1.53276 -5.79985e-20)
(-3.15685 1.42938 5.76968e-20)
(-3.19984 1.31788 0)
(-3.23687 1.20368 0)
(-3.2714 1.09112 5.58495e-20)
(-3.30579 0.983485 0)
(-3.34131 0.882907 0)
(-3.37847 0.790423 5.87036e-20)
(-3.41727 0.706272 6.15216e-20)
(-3.45739 0.630231 6.22332e-20)
(-3.49827 0.561766 0)
(-3.53931 0.500184 0)
(-3.5799 0.444722 -6.40431e-20)
(-3.61946 0.394626 0)
(-3.65751 0.349183 0)
(-3.69363 0.307751 6.43159e-20)
(-3.72748 0.269764 -6.60359e-20)
(-3.75878 0.234735 6.60463e-20)
(-3.78731 0.202249 0)
(-3.81287 0.171955 0)
(-3.83533 0.143556 1.30025e-19)
(-3.85454 0.116803 0)
(-3.8704 0.0914832 1.28637e-19)
(-3.88282 0.0674203 1.91052e-19)
(-3.89173 0.0444706 -1.8941e-19)
(-3.89704 0.0225137 1.25339e-19)
(-3.89873 0.00143262 0)
(-3.89678 -0.0188887 0)
(-3.89124 -0.0385284 1.19882e-19)
(-3.88216 -0.0575052 5.84101e-20)
(-3.86958 -0.0758154 0)
(-3.85352 -0.0934575 0)
(-3.83403 -0.110431 5.49038e-20)
(-3.81116 -0.126736 1.08258e-19)
(-3.78496 -0.142369 0)
(-3.75548 -0.15733 -1.01805e-19)
(-3.72281 -0.171613 9.99754e-20)
(-3.68702 -0.185214 -9.70034e-20)
(-3.64819 -0.198129 0)
(-3.60641 -0.210351 0)
(-3.56177 -0.221876 0)
(-3.51437 -0.232701 0)
(-3.46431 -0.242831 0)
(-3.41171 -0.252265 -7.593e-20)
(-3.35666 -0.261002 0)
(-3.29928 -0.269049 0)
(-3.23968 -0.276411 0)
(-3.17799 -0.283097 -1.22636e-19)
(-3.11431 -0.289118 -5.67103e-20)
(-3.04878 -0.294486 -5.2609e-20)
(-2.9815 -0.299215 9.80529e-20)
(-2.91261 -0.303321 -4.53689e-20)
(-2.84222 -0.30682 3.98169e-20)
(-2.77045 -0.309731 0)
(-2.69742 -0.312074 -3.08943e-20)
(-2.62325 -0.31387 0)
(-2.54806 -0.31514 0)
(-2.47195 -0.315907 0)
(-2.39505 -0.316193 -2.5502e-20)
(-2.31746 -0.316022 8.49085e-21)
(-2.23928 -0.315419 4.77327e-21)
(-2.16063 -0.314408 -2.97121e-21)