/*--------------------------------*- C++ -*----------------------------------*\
| =========                 |                                                 |
| \\      /  F ield         | OpenFOAM: The Open Source CFD Toolbox           |
|  \\    /   O peration     | Version:  v2012                                 |
|   \\  /    A nd           | Website:  www.openfoam.com                      |
|    \\/     M anipulation  |                                                 |
\*---------------------------------------------------------------------------*/
FoamFile
{
    version     2.0;
    format      ascii;
    class       volScalarField;
    location    "1500";
    object      nut;
}
// * * * * * * * * * * * * * * * * * * * * * * * * * * * * * * * * * * * * * //

dimensions      [0 2 -1 0 0 0 0];


internalField   nonuniform List<scalar> 
12225
(
0.0122671
0.00158819
0.000666128
0.000410104
0.00029404
0.000227808
0.000186446
0.000144098
0.000166203
0.000217172
0.0002277
0.000219733
0.000202997
0.00017459
0.000172505
0.00014661
0.000131648
0.00011794
0.0323823
0.00744532
0.00330638
0.00204329
0.00146802
0.00114434
0.000938351
0.000784937
0.000692032
0.000629596
0.000572608
0.000522356
0.000478838
0.000440935
0.000406681
0.000372567
0.000348025
0.00032161
0.0490123
0.01515
0.00728196
0.00457855
0.00330639
0.00258051
0.00211293
0.00178255
0.00154804
0.00137322
0.00123175
0.00111561
0.00101892
0.000937346
0.000867068
0.000804455
0.000754284
0.000700557
0.063054
0.0237783
0.0122894
0.00788815
0.00573398
0.00448498
0.00367425
0.00310475
0.00268773
0.00236966
0.002117
0.0019121
0.00174308
0.00160161
0.00148169
0.00137805
0.00129076
0.00120379
0.074932
0.0328517
0.0181452
0.0119262
0.00874549
0.00686413
0.00563082
0.00476161
0.00411883
0.00362519
0.00323415
0.00291757
0.00265685
0.00243906
0.00225503
0.00209759
0.00196277
0.00183918
0.0849536
0.0420208
0.0246655
0.0166359
0.0123325
0.00972588
0.0079954
0.00676755
0.00585403
0.00514964
0.0045912
0.00413899
0.00376659
0.00345558
0.00319282
0.00296849
0.00277566
0.00260617
0.0933822
0.0510219
0.0316642
0.0219415
0.016474
0.0130717
0.0107779
0.00913545
0.00790595
0.00695412
0.00619793
0.00558485
0.00507961
0.00465757
0.00430096
0.00399668
0.00373508
0.00350893
0.0993794
0.0583363
0.0378386
0.0268568
0.0204171
0.0163053
0.0134892
0.011453
0.00991902
0.00872657
0.00777675
0.00700544
0.00636917
0.00583737
0.00538793
0.0050045
0.00467502
0.00439173
0.104023
0.0645454
0.0433804
0.0314239
0.0241571
0.0194092
0.0161097
0.0137018
0.0118767
0.0104522
0.00931462
0.00838927
0.00762511
0.00698603
0.00644575
0.00598482
0.00558893
0.00524913
0.108368
0.0708939
0.0493757
0.0365497
0.0284517
0.0230231
0.0191863
0.0163548
0.0141927
0.0124969
0.0111382
0.0100305
0.00911451
0.00834779
0.00769932
0.00714604
0.00667096
0.00626328
0.112368
0.0772557
0.0557282
0.0421918
0.0332976
0.0271652
0.0227468
0.0194433
0.0168984
0.0148904
0.013275
0.0119546
0.0108606
0.00994395
0.00916815
0.00850607
0.0079376
0.00744941
0.115994
0.0834975
0.0623054
0.0482612
0.0386474
0.0318167
0.026789
0.0229739
0.0200047
0.0176453
0.0157379
0.0141737
0.012875
0.0117851
0.010862
0.0100738
0.00939691
0.00881487
0.119234
0.0894856
0.0689377
0.0546109
0.0443919
0.0369007
0.0312597
0.0269089
0.0234837
0.02074
0.0185097
0.0166735
0.015145
0.0138601
0.0127706
0.0118397
0.0110399
0.010351
0.122086
0.095084
0.075415
0.0610223
0.0503361
0.0422535
0.0360231
0.0311353
0.0272402
0.0240931
0.0215191
0.0193909
0.0176141
0.0161175
0.0148467
0.0137602
0.0128258
0.0120198
0.124546
0.100135
0.0814619
0.0671726
0.056158
0.047577
0.0408126
0.0354174
0.031066
0.0275197
0.0246013
0.0221778
0.0201482
0.018435
0.0169783
0.0157315
0.0146584
0.0137312
0.126578
0.104396
0.0866605
0.0725515
0.0613228
0.0523526
0.0451453
0.0393148
0.0345631
0.0306611
0.0274325
0.024741
0.0224806
0.020569
0.0189413
0.0175468
0.0163455
0.0153062
0.128011
0.107322
0.0902141
0.0762353
0.0648743
0.0556509
0.0481493
0.0420254
0.0370012
0.0328553
0.0294126
0.0265352
0.0241143
0.0220643
0.0203171
0.0188191
0.0175275
0.0164083
0.128006
0.107313
0.0902048
0.0762269
0.0648674
0.0556454
0.048145
0.0420221
0.0369988
0.0328536
0.0294117
0.0265349
0.0241147
0.0220651
0.0203184
0.0188205
0.0175286
0.0164082
0.126509
0.104255
0.0864922
0.0723807
0.0611613
0.052205
0.0450127
0.0391967
0.0344584
0.0305685
0.0273506
0.0246684
0.0224163
0.0205118
0.0188902
0.0175005
0.0163023
0.015263
0.124267
0.0995604
0.0807712
0.0664676
0.0554886
0.0469631
0.0402594
0.0349227
0.0306248
0.0271258
0.0242487
0.0218611
0.0198625
0.0181762
0.0167425
0.0155151
0.0144574
0.0135404
0.12136
0.0936399
0.0737261
0.0593348
0.0487592
0.0408248
0.0347466
0.0300003
0.0262308
0.0231927
0.0207126
0.018665
0.0169571
0.0155197
0.0142998
0.0132566
0.0123582
0.0115797
0.117686
0.0865903
0.0656967
0.0514791
0.0415374
0.0343608
0.0290183
0.0249322
0.0217348
0.0191848
0.0171183
0.015421
0.0140105
0.0128262
0.0118228
0.0109656
0.0102278
0.00958883
0.11305
0.0784122
0.056921
0.0432687
0.0342296
0.0279652
0.0234365
0.0200435
0.0174263
0.0153597
0.0136965
0.0123369
0.0112106
0.010267
0.00946857
0.0087871
0.00820092
0.00769336
0.107169
0.0691009
0.0476372
0.035029
0.0271566
0.021922
0.0182437
0.0155401
0.0134817
0.0118705
0.0105815
0.00953192
0.0086648
0.0079396
0.00732661
0.00680372
0.00635405
0.00596486
0.0996761
0.0587036
0.0381279
0.0270699
0.0205782
0.0164329
0.0135949
0.0115437
0.0099992
0.00879904
0.00784336
0.0070675
0.00642783
0.00589354
0.00544218
0.00505734
0.00472635
0.00444004
0.0901097
0.0473665
0.0287363
0.0196847
0.0146976
0.0116311
0.00957851
0.00811522
0.00702328
0.00617983
0.00551044
0.00496782
0.00452099
0.00414816
0.00383303
0.00356465
0.00333351
0.00313381
0.0779076
0.0353826
0.0198606
0.0131383
0.00966106
0.00759296
0.0062335
0.00527419
0.00456396
0.00401865
0.00358677
0.00323594
0.00294691
0.00270609
0.00250162
0.00232836
0.00217811
0.00204888
0.06238
0.0232554
0.0119461
0.00765493
0.00556337
0.00435255
0.0035672
0.00301635
0.00261301
0.00230783
0.00206637
0.00186704
0.00170182
0.00156476
0.00144577
0.00134709
0.00125871
0.00118414
0.0426105
0.0117794
0.0054693
0.00341385
0.00246071
0.00192005
0.00157262
0.00132968
0.00115815
0.00103892
0.000944125
0.000857862
0.000784283
0.000723185
0.000664288
0.000618803
0.000571684
0.000540781
0.0168348
0.00255985
0.00110002
0.000683429
0.000493725
0.000386816
0.00031797
0.000268545
0.000268071
0.000338012
0.000383544
0.000371272
0.0003417
0.00031131
0.000273459
0.000270537
0.000211288
0.000279023
5.63897e-10
1.15685e-07
1.21136e-06
5.27131e-06
9.76043e-06
1.25503e-05
1.29926e-05
1.09798e-05
8.70276e-06
5.68711e-06
3.34949e-06
1.9084e-06
1.34354e-06
1.47887e-06
2.00911e-06
2.49237e-06
2.43042e-06
1.66151e-06
8.29618e-07
4.648e-07
5.55128e-07
1.3514e-06
5.80015e-06
2.84931e-05
5.71947e-05
7.50731e-05
9.14174e-05
0.000105222
0.000117348
0.000127461
0.000136314
0.000143925
0.000150583
0.000156383
0.000161443
0.000165911
0.000169871
0.000173409
0.000176581
0.000179432
0.000181989
0.000184276
0.00018631
0.000188109
0.000189685
0.000191052
0.000192221
0.000193197
0.000193981
0.000194571
0.000194816
0.00019507
0.000195118
0.000194989
0.00019469
0.000194242
0.000193642
0.000192894
0.000191999
0.000190959
0.000189777
0.000188454
0.000186993
0.000185397
0.000183667
0.000181807
0.000179817
0.0001777
0.000175459
0.000173098
0.000170619
0.000168025
0.000165321
0.000162509
0.000159594
0.000156575
0.000153455
0.000150231
0.000146894
0.000143436
0.000139843
0.000136101
0.000132199
0.00012813
0.000123895
0.000119501
0.000114951
0.000110243
0.000105363
0.000100281
9.49622e-05
8.93748e-05
8.35092e-05
7.74327e-05
7.14262e-05
6.61667e-05
6.24414e-05
6.01195e-05
5.83726e-05
5.67679e-05
5.5192e-05
5.36236e-05
5.20616e-05
5.05073e-05
4.89628e-05
4.74301e-05
4.59118e-05
4.44142e-05
4.2966e-05
4.17338e-05
4.05295e-05
3.934e-05
3.81678e-05
3.70135e-05
3.5878e-05
3.4762e-05
3.36665e-05
3.2592e-05
3.15393e-05
3.05086e-05
2.95005e-05
2.85153e-05
2.75537e-05
2.6616e-05
2.57025e-05
2.48128e-05
2.39483e-05
2.31387e-05
2.24048e-05
2.16894e-05
2.0989e-05
2.03127e-05
1.96642e-05
1.90293e-05
1.84085e-05
1.78048e-05
1.72191e-05
1.66517e-05
1.61023e-05
1.55705e-05
1.50559e-05
1.45581e-05
1.40768e-05
1.36113e-05
1.31614e-05
1.27267e-05
1.23067e-05
1.1901e-05
1.15094e-05
1.11313e-05
1.07665e-05
1.04146e-05
1.00752e-05
9.74809e-06
9.4329e-06
9.12934e-06
8.83716e-06
8.55609e-06
8.28591e-06
8.02641e-06
7.7774e-06
7.5387e-06
7.31014e-06
7.09153e-06
6.88266e-06
6.68328e-06
6.49307e-06
6.31158e-06
6.13828e-06
5.97247e-06
5.81302e-06
5.65942e-06
5.50805e-06
5.36299e-06
5.20366e-06
5.07444e-06
4.84081e-06
4.74649e-06
4.27658e-06
3.70603e-06
3.43689e-09
6.40369e-06
6.36228e-05
0.000139872
0.000183122
0.000206619
0.000215764
0.000214116
0.000205575
0.000188714
0.000167823
0.000147782
0.000137804
0.000143426
0.000157456
0.000166221
0.00016883
0.00017043
0.000176343
0.000185882
0.000200848
0.000218411
0.000235106
0.000251206
0.000262458
0.000272264
0.000281099
0.000294315
0.000313186
0.000327089
0.000339757
0.000350639
0.000360539
0.000369591
0.000377463
0.000384653
0.000391351
0.000397781
0.000404072
0.000410287
0.000416422
0.000422433
0.000428268
0.000433886
0.00043926
0.000444371
0.000449207
0.000453753
0.000458011
0.000461995
0.00046569
0.000469148
0.000472339
0.00047528
0.000477969
0.00048041
0.000482602
0.000484546
0.000486242
0.000487692
0.000488895
0.000489853
0.000490568
0.000491043
0.00049129
0.000491315
0.000491109
0.000490672
0.000490018
0.000489152
0.00048808
0.000486808
0.000485344
0.000483695
0.000481868
0.000479871
0.000477711
0.000475395
0.000472931
0.000470323
0.00046758
0.000464705
0.000461706
0.000458591
0.000455369
0.00045205
0.000448646
0.000445167
0.000441623
0.000438021
0.000434367
0.000430663
0.00042691
0.000423099
0.00041921
0.000415218
0.000411107
0.000406905
0.000402664
0.000398407
0.000394142
0.000389873
0.000385603
0.000381336
0.000377075
0.000372823
0.000368584
0.000364359
0.000360148
0.00035595
0.000351775
0.000347627
0.000343509
0.000339422
0.000335368
0.000331349
0.000327365
0.000323419
0.000319513
0.000315646
0.00031182
0.000308036
0.000304295
0.000300598
0.000296947
0.000293339
0.000289776
0.000286256
0.000282778
0.000279345
0.000275955
0.000272618
0.000269333
0.000266083
0.000262869
0.000259697
0.000256568
0.000253485
0.000250447
0.000247453
0.000244503
0.000241597
0.000238733
0.000235912
0.000233133
0.000230395
0.000227698
0.00022504
0.000222423
0.000219845
0.000217306
0.000214806
0.000212344
0.000209921
0.000207537
0.000205192
0.000202886
0.00020062
0.000198395
0.000196212
0.000194072
0.000191977
0.000189929
0.000187929
0.00018598
0.000184082
0.000182236
0.000180444
0.000178704
0.000177015
0.000175372
0.000173776
0.000172199
0.000170694
0.00016907
0.000167804
0.000165543
0.000165188
0.000161848
0.000160859
7.70155e-08
3.94525e-05
0.000163088
0.000245975
0.000299178
0.00032925
0.000340041
0.000336977
0.000323968
0.000304641
0.000284987
0.000272658
0.000270749
0.000277731
0.000288248
0.000299254
0.000312284
0.0003295
0.000351296
0.00037651
0.000403792
0.000432055
0.000471392
0.000517582
0.000563163
0.000607239
0.000650292
0.000693938
0.000732976
0.00076403
0.00078885
0.000808532
0.000824139
0.000836528
0.000846479
0.000854761
0.000862072
0.000869053
0.000876235
0.00088397
0.000892362
0.000901286
0.000910501
0.000919773
0.000928925
0.000937838
0.000946437
0.000954674
0.000962511
0.000969925
0.000976881
0.000983367
0.000989367
0.00099488
0.000999901
0.00100443
0.00100847
0.00101202
0.00101507
0.00101763
0.0010197
0.00102127
0.00102235
0.00102289
0.00102305
0.00102276
0.00102197
0.00102072
0.00101903
0.00101691
0.00101437
0.00101143
0.00100809
0.00100437
0.00100029
0.000995859
0.000991092
0.000986004
0.000980611
0.000974927
0.000968967
0.000962746
0.000956279
0.00094958
0.000942665
0.000935549
0.000928248
0.000920776
0.000913148
0.000905375
0.000897472
0.000889447
0.000881311
0.000873071
0.000864735
0.000856314
0.00084782
0.000839268
0.000830676
0.000822056
0.000813419
0.000804773
0.000796128
0.000787491
0.000778868
0.000770267
0.000761694
0.000753155
0.000744656
0.000736202
0.000727799
0.000719452
0.000711166
0.000702945
0.000694793
0.000686712
0.000678706
0.000670779
0.000662932
0.000655167
0.000647488
0.000639895
0.00063239
0.000624976
0.000617654
0.000610424
0.000603285
0.00059624
0.000589289
0.000582431
0.000575669
0.000569002
0.000562427
0.00055594
0.000549539
0.000543226
0.000537005
0.000530875
0.000524836
0.000518888
0.00051303
0.000507262
0.000501581
0.000495987
0.000490479
0.000485056
0.000479716
0.000474459
0.000469283
0.000464187
0.00045917
0.000454231
0.00044937
0.000444584
0.000439872
0.000435235
0.000430669
0.000426176
0.000421752
0.000417398
0.00041311
0.000408889
0.000404731
0.000400636
0.000396599
0.000392619
0.00038869
0.000384807
0.000380964
0.000377153
0.00037336
0.000369572
0.000365765
0.000361918
0.000357962
0.000353919
0.000349449
0.000345078
0.000338511
0.000327152
6.13414e-07
8.20372e-05
0.000212836
0.000308749
0.000372237
0.000409335
0.000424626
0.000424852
0.000414779
0.00040149
0.000393701
0.000393156
0.00040276
0.000420241
0.000443208
0.000471162
0.000504686
0.000544087
0.000588569
0.000652436
0.000726536
0.000806553
0.000890388
0.000960621
0.00102276
0.00107864
0.00112883
0.00117353
0.0012126
0.00124631
0.00127542
0.00130065
0.00132269
0.00134217
0.00135967
0.00137566
0.00139057
0.00140472
0.00141838
0.00143173
0.00144489
0.00145794
0.0014709
0.00148375
0.00149645
0.0015089
0.00152103
0.00153273
0.00154391
0.00155451
0.00156446
0.00157373
0.0015823
0.00159016
0.00159729
0.00160369
0.00160936
0.0016143
0.0016185
0.00162196
0.00162468
0.00162665
0.0016278
0.00162824
0.00162811
0.0016272
0.00162557
0.00162324
0.00162024
0.00161658
0.00161228
0.00160736
0.00160184
0.00159573
0.00158907
0.00158188
0.00157417
0.00156597
0.0015573
0.00154819
0.00153866
0.00152873
0.00151842
0.00150776
0.00149678
0.00148548
0.00147391
0.00146207
0.00144999
0.00143769
0.00142518
0.0014125
0.00139965
0.00138665
0.00137352
0.00136026
0.00134691
0.00133348
0.00131999
0.00130646
0.0012929
0.00127933
0.00126575
0.00125219
0.00123866
0.00122516
0.0012117
0.0011983
0.00118496
0.00117169
0.00115851
0.00114541
0.0011324
0.0011195
0.0011067
0.00109402
0.00108145
0.001069
0.00105668
0.00104449
0.00103242
0.0010205
0.00100871
0.000997056
0.000985546
0.000974179
0.000962956
0.000951876
0.000940943
0.000930155
0.000919514
0.000909019
0.000898667
0.000888454
0.000878379
0.000868443
0.000858648
0.000848994
0.00083948
0.000830107
0.000820872
0.000811775
0.000802814
0.000793988
0.000785294
0.000776731
0.000768298
0.000759992
0.000751812
0.000743756
0.000735821
0.000728008
0.000720313
0.000712734
0.000705271
0.000697921
0.000690682
0.000683552
0.00067653
0.000669612
0.000662797
0.000656082
0.000649464
0.000642939
0.000636504
0.000630152
0.000623879
0.000617677
0.000611536
0.000605443
0.000599382
0.000593333
0.000587266
0.000581143
0.0005749
0.000568481
0.00056171
0.000554519
0.000546265
0.000530101
1.40275e-06
0.00010191
0.00023496
0.000354662
0.000433268
0.000480484
0.000503927
0.000512353
0.000514014
0.000515272
0.000522553
0.000539142
0.000565615
0.000600986
0.000644497
0.000696187
0.000756872
0.000840793
0.000936916
0.00103263
0.00112138
0.00120553
0.00128459
0.00135701
0.00142353
0.00148473
0.001541
0.00159268
0.00164013
0.00168377
0.00172409
0.00176157
0.00179664
0.00182966
0.00186095
0.00189076
0.00191927
0.00194664
0.00197295
0.00199826
0.00202261
0.002046
0.00206844
0.0020899
0.00211036
0.00212978
0.00214815
0.00216542
0.00218157
0.00219659
0.00221046
0.00222318
0.00223477
0.00224524
0.00225461
0.00226289
0.0022701
0.00227626
0.00228139
0.00228549
0.00228858
0.00229062
0.00229154
0.00229162
0.00229074
0.00228886
0.00228603
0.00228225
0.00227756
0.00227198
0.00226552
0.00225823
0.00225013
0.00224125
0.00223161
0.00222126
0.00221021
0.0021985
0.00218617
0.00217324
0.00215974
0.0021457
0.00213116
0.00211615
0.0021007
0.00208483
0.00206858
0.00205198
0.00203506
0.00201784
0.00200036
0.00198263
0.00196468
0.00194655
0.00192824
0.00190978
0.0018912
0.00187252
0.00185376
0.00183495
0.00181611
0.00179725
0.00177839
0.00175956
0.00174076
0.00172201
0.00170332
0.00168471
0.00166619
0.00164777
0.00162946
0.00161128
0.00159322
0.0015753
0.00155753
0.00153992
0.00152247
0.00150518
0.00148806
0.00147112
0.00145436
0.00143779
0.0014214
0.00140521
0.00138921
0.0013734
0.00135779
0.00134238
0.00132716
0.00131215
0.00129734
0.00128272
0.0012683
0.00125407
0.00124004
0.0012262
0.00121254
0.00119909
0.00118582
0.00117274
0.00115985
0.00114715
0.00113464
0.00112231
0.00111016
0.00109818
0.00108639
0.00107476
0.00106331
0.00105203
0.00104091
0.00102995
0.00101916
0.00100852
0.000998045
0.000987718
0.000977542
0.000967513
0.000957629
0.000947887
0.000938283
0.000928814
0.000919476
0.000910265
0.000901175
0.000892199
0.000883331
0.000874562
0.000865879
0.000857268
0.00084871
0.00084018
0.000831643
0.000823058
0.000814355
0.000805464
0.000796223
0.000786479
0.000776509
0.000756699
2.32367e-06
0.000118204
0.00025624
0.000389845
0.00048666
0.000548367
0.000586132
0.000609644
0.000627607
0.000647274
0.000673839
0.00070989
0.000756129
0.000812831
0.000880556
0.000971496
0.00107691
0.00117855
0.00127764
0.00137289
0.00146335
0.00154911
0.00163013
0.00170637
0.00177814
0.00184578
0.00190963
0.00197004
0.00202733
0.00208183
0.00213386
0.0021837
0.00223162
0.0022778
0.00232242
0.00236559
0.0024074
0.00244791
0.00248714
0.0025251
0.00256179
0.00259719
0.00263127
0.00266399
0.00269532
0.00272521
0.00275363
0.00278053
0.00280588
0.00282965
0.0028518
0.00287232
0.00289118
0.00290839
0.00292392
0.00293779
0.00294998
0.00296052
0.00296942
0.00297668
0.00298233
0.00298641
0.00298884
0.00298974
0.00298927
0.0029873
0.00298395
0.00297925
0.00297324
0.00296598
0.00295753
0.00294794
0.00293725
0.00292552
0.00291279
0.00289912
0.00288456
0.00286914
0.00285291
0.00283592
0.0028182
0.0027998
0.00278077
0.00276113
0.00274094
0.00272022
0.00269903
0.0026774
0.00265537
0.00263297
0.00261023
0.0025872
0.0025639
0.00254037
0.00251664
0.00249273
0.00246867
0.0024445
0.00242024
0.00239591
0.00237155
0.00234718
0.00232282
0.00229849
0.0022742
0.00224999
0.00222586
0.00220183
0.00217792
0.00215414
0.0021305
0.00210703
0.00208372
0.00206059
0.00203765
0.0020149
0.00199237
0.00197004
0.00194794
0.00192606
0.00190442
0.001883
0.00186183
0.0018409
0.00182022
0.00179979
0.0017796
0.00175967
0.00173998
0.00172056
0.00170138
0.00168246
0.00166378
0.00164535
0.00162717
0.00160923
0.00159154
0.00157409
0.00155688
0.00153991
0.00152318
0.00150669
0.00149043
0.0014744
0.0014586
0.00144302
0.00142767
0.00141253
0.00139761
0.00138291
0.00136841
0.00135412
0.00134003
0.00132614
0.00131244
0.00129894
0.00128563
0.0012725
0.00125955
0.00124678
0.00123419
0.00122177
0.00120951
0.00119741
0.00118546
0.00117367
0.00116201
0.00115047
0.00113906
0.00112774
0.0011165
0.00110531
0.00109414
0.00108293
0.00107163
0.00106015
0.00104834
0.00103612
0.00102394
0.00100146
2.79383e-06
0.000126772
0.000269144
0.000407433
0.000526011
0.000607414
0.000663602
0.000705731
0.000743045
0.000782782
0.000829957
0.000887472
0.000957062
0.00104984
0.00115714
0.00126377
0.00136983
0.00147307
0.00157298
0.00166914
0.00176133
0.00184957
0.00193395
0.00201463
0.00209185
0.0021659
0.00223704
0.00230555
0.00237168
0.00243565
0.00249769
0.00255797
0.00261664
0.00267381
0.00272956
0.00278396
0.00283703
0.00288879
0.00293924
0.00298835
0.00303609
0.00308243
0.00312732
0.00317071
0.00321255
0.00325279
0.00329137
0.00332825
0.00336336
0.00339667
0.00342813
0.00345771
0.00348536
0.00351106
0.00353478
0.0035565
0.00357621
0.00359389
0.00360955
0.00362317
0.00363476
0.00364435
0.00365192
0.00365754
0.00366119
0.00366281
0.00366272
0.00366073
0.00365696
0.00365144
0.00364423
0.00363539
0.00362497
0.00361303
0.00359965
0.00358488
0.00356879
0.00355144
0.00353291
0.00351326
0.00349255
0.00347086
0.00344826
0.00342479
0.00340054
0.00337556
0.00334992
0.00332366
0.00329685
0.00326954
0.00324179
0.00321363
0.00318513
0.00315631
0.00312723
0.00309792
0.00306842
0.00303877
0.003009
0.00297915
0.00294926
0.00291934
0.00288942
0.00285955
0.00282972
0.00279998
0.00277035
0.00274083
0.00271146
0.00268224
0.0026532
0.00262435
0.0025957
0.00256727
0.00253907
0.00251111
0.0024834
0.00245594
0.00242875
0.00240184
0.0023752
0.00234885
0.00232278
0.00229701
0.00227154
0.00224636
0.00222149
0.00219692
0.00217265
0.00214869
0.00212503
0.00210167
0.00207862
0.00205586
0.0020334
0.00201124
0.00198937
0.00196779
0.0019465
0.00192551
0.0019048
0.00188437
0.00186422
0.00184435
0.00182476
0.00180544
0.00178638
0.00176758
0.00174905
0.00173076
0.00171273
0.00169495
0.00167741
0.00166011
0.00164304
0.00162621
0.0016096
0.00159322
0.00157706
0.00156111
0.00154537
0.00152983
0.0015145
0.00149936
0.00148441
0.00146963
0.00145503
0.00144059
0.00142629
0.00141212
0.00139806
0.00138408
0.00137013
0.00135618
0.00134216
0.00132799
0.00131351
0.00129875
0.00128375
0.00125949
2.93829e-06
0.000128648
0.000270463
0.000406933
0.000537518
0.0006411
0.000718419
0.000780031
0.000836117
0.00089439
0.000962885
0.00105555
0.00116574
0.00128725
0.00140275
0.00151394
0.00162167
0.00172611
0.00182721
0.00192492
0.00201924
0.00211028
0.00219818
0.00228313
0.00236534
0.00244504
0.00252246
0.00259781
0.00267127
0.00274302
0.00281321
0.00288193
0.0029493
0.00301536
0.00308017
0.00314374
0.00320607
0.00326714
0.00332693
0.00338539
0.00344249
0.00349815
0.00355233
0.00360496
0.00365598
0.00370532
0.00375291
0.00379869
0.0038426
0.00388458
0.00392458
0.00396254
0.00399842
0.00403217
0.00406376
0.00409316
0.00412033
0.00414526
0.00416793
0.00418833
0.00420646
0.00422231
0.00423589
0.00424722
0.00425631
0.00426318
0.0042679
0.00427035
0.00427078
0.00426914
0.00426547
0.00425982
0.00425226
0.00424283
0.00423159
0.00421862
0.00420397
0.00418771
0.00416992
0.00415065
0.00412998
0.00410799
0.00408474
0.00406031
0.00403477
0.00400819
0.00398065
0.0039522
0.00392293
0.0038929
0.00386217
0.00383081
0.00379888
0.00376644
0.00373354
0.00370024
0.0036666
0.00363267
0.00359849
0.00356412
0.00352959
0.00349496
0.00346026
0.00342552
0.00339079
0.0033561
0.00332147
0.00328694
0.00325253
0.00321826
0.00318417
0.00315026
0.00311656
0.00308309
0.00304986
0.00301688
0.00298418
0.00295176
0.00291963
0.00288781
0.0028563
0.0028251
0.00279423
0.00276369
0.00273349
0.00270363
0.00267411
0.00264493
0.0026161
0.00258762
0.00255949
0.0025317
0.00250426
0.00247716
0.00245041
0.00242399
0.00239792
0.00237218
0.00234678
0.00232171
0.00229697
0.00227256
0.00224848
0.00222471
0.00220126
0.00217813
0.0021553
0.00213278
0.00211056
0.00208863
0.002067
0.00204566
0.00202459
0.00200381
0.0019833
0.00196306
0.00194309
0.00192337
0.00190392
0.00188471
0.00186575
0.00184703
0.00182855
0.0018103
0.00179227
0.00177445
0.00175683
0.00173941
0.00172216
0.00170507
0.00168812
0.00167127
0.00165449
0.00163773
0.00162092
0.00160399
0.00158679
0.00156939
0.00155146
0.00152531
2.75408e-06
0.000125139
0.000263766
0.000395281
0.000519794
0.000632053
0.000725993
0.000807511
0.000891503
0.000987474
0.00109733
0.00122248
0.00135897
0.00148637
0.00160657
0.00172149
0.00183209
0.00193873
0.00204175
0.00214149
0.00223817
0.002332
0.00242318
0.00251191
0.00259841
0.00268287
0.00276549
0.00284644
0.00292588
0.00300392
0.00308068
0.00315624
0.00323066
0.00330395
0.00337615
0.00344723
0.00351719
0.00358597
0.00365354
0.00371984
0.00378479
0.00384834
0.0039104
0.0039709
0.00402976
0.00408691
0.00414226
0.00419573
0.00424727
0.0042968
0.00434424
0.00438955
0.00443267
0.00447353
0.00451211
0.00454835
0.00458223
0.00461371
0.00464277
0.00466939
0.00469357
0.0047153
0.00473457
0.00475141
0.00476581
0.0047778
0.0047874
0.00479464
0.00479957
0.00480214
0.00480252
0.00480071
0.00479674
0.00479068
0.00478258
0.00477249
0.00476049
0.00474664
0.004731
0.00471364
0.00469463
0.00467405
0.00465195
0.00462843
0.00460354
0.00457737
0.00454999
0.00452146
0.00449186
0.00446127
0.00442975
0.00439736
0.00436419
0.00433028
0.00429572
0.00426055
0.00422484
0.00418866
0.00415205
0.00411508
0.0040778
0.00404026
0.00400251
0.00396459
0.00392655
0.00388844
0.00385028
0.00381213
0.003774
0.00373595
0.00369798
0.00366015
0.00362247
0.00358496
0.00354765
0.00351057
0.00347372
0.00343713
0.00340082
0.00336479
0.00332907
0.00329366
0.00325857
0.00322382
0.00318941
0.00315534
0.00312164
0.00308829
0.0030553
0.00302268
0.00299044
0.00295856
0.00292705
0.00289591
0.00286515
0.00283475
0.00280472
0.00277506
0.00274577
0.00271684
0.00268827
0.00266007
0.00263222
0.00260473
0.00257759
0.00255079
0.00252434
0.00249823
0.00247245
0.002447
0.00242188
0.00239708
0.0023726
0.00234844
0.00232458
0.00230102
0.00227777
0.00225481
0.00223214
0.00220975
0.00218765
0.00216582
0.00214426
0.00212296
0.00210191
0.00208111
0.00206054
0.0020402
0.00202006
0.00200011
0.00198032
0.00196066
0.00194109
0.00192157
0.00190201
0.00188236
0.00186247
0.00184241
0.00182166
0.00179333
2.33796e-06
0.000117848
0.000252602
0.000380602
0.000503469
0.00061997
0.00073097
0.000840482
0.00095592
0.00108232
0.00122083
0.00137091
0.0015131
0.00164497
0.00176912
0.00188745
0.00200106
0.00211059
0.00221643
0.0023188
0.00241808
0.00251466
0.00260885
0.00270089
0.00279103
0.00287945
0.00296635
0.00305187
0.00313617
0.00321933
0.00330145
0.00338258
0.00346276
0.003542
0.0036203
0.00369762
0.00377393
0.00384916
0.00392327
0.00399617
0.00406779
0.00413803
0.00420682
0.00427405
0.00433964
0.0044035
0.00446554
0.00452567
0.00458381
0.00463988
0.00469381
0.00474552
0.00479495
0.00484204
0.00488674
0.00492901
0.00496879
0.00500606
0.0050408
0.00507297
0.00510256
0.00512957
0.00515399
0.00517583
0.00519509
0.00521179
0.00522596
0.00523761
0.00524679
0.00525351
0.00525783
0.00525976
0.00525942
0.00525681
0.005252
0.00524503
0.00523598
0.0052249
0.00521186
0.00519693
0.00518017
0.00516165
0.00514144
0.00511963
0.00509627
0.00507144
0.00504522
0.00501767
0.00498888
0.00495891
0.00492782
0.0048957
0.00486261
0.00482862
0.00479379
0.00475819
0.00472188
0.00468493
0.0046474
0.00460935
0.00457084
0.00453191
0.00449264
0.00445306
0.00441322
0.00437318
0.00433298
0.00429266
0.00425227
0.00421183
0.00417139
0.00413098
0.00409064
0.00405039
0.00401027
0.00397029
0.00393049
0.00389089
0.0038515
0.00381236
0.00377347
0.00373485
0.00369652
0.0036585
0.00362078
0.0035834
0.00354634
0.00350963
0.00347327
0.00343727
0.00340163
0.00336635
0.00333144
0.00329691
0.00326275
0.00322896
0.00319555
0.00316252
0.00312986
0.00309759
0.00306568
0.00303415
0.003003
0.00297222
0.0029418
0.00291175
0.00288207
0.00285274
0.00282377
0.00279516
0.00276689
0.00273897
0.00271139
0.00268414
0.00265723
0.00263065
0.0026044
0.00257846
0.00255284
0.00252753
0.00250253
0.00247783
0.00245342
0.0024293
0.00240546
0.00238189
0.00235859
0.00233553
0.0023127
0.00229008
0.00226765
0.00224537
0.0022232
0.0022011
0.00217898
0.00215678
0.00213438
0.00211181
0.0020885
0.00205784
1.92366e-06
0.000110192
0.000242374
0.000369661
0.000495391
0.000619897
0.0007451
0.000874865
0.00101265
0.00116039
0.00131824
0.00147986
0.00162748
0.00176379
0.00189177
0.00201342
0.00213001
0.00224234
0.00235097
0.00245627
0.00255855
0.002658
0.00275507
0.00285011
0.00294339
0.00303518
0.00312565
0.00321497
0.00330328
0.00339067
0.00347722
0.00356297
0.00364794
0.00373214
0.00381554
0.0038981
0.00397976
0.00406047
0.00414013
0.00421866
0.00429597
0.00437196
0.00444652
0.00451956
0.00459096
0.00466063
0.00472848
0.00479439
0.00485828
0.00492006
0.00497965
0.00503696
0.00509193
0.0051445
0.0051946
0.00524217
0.00528719
0.0053296
0.00536937
0.00540649
0.00544092
0.00547267
0.00550172
0.00552808
0.00555176
0.00557276
0.00559111
0.00560683
0.00561996
0.00563051
0.00563854
0.00564408
0.0056472
0.00564792
0.00564632
0.00564244
0.00563635
0.0056281
0.00561777
0.0056054
0.00559108
0.00557487
0.00555684
0.00553706
0.0055156
0.00549255
0.00546796
0.00544191
0.00541448
0.00538573
0.00535574
0.00532457
0.00529229
0.00525898
0.0052247
0.00518951
0.00515348
0.00511668
0.00507917
0.00504101
0.00500225
0.00496297
0.0049232
0.00488301
0.00484245
0.00480157
0.00476042
0.00471904
0.00467747
0.00463576
0.00459395
0.00455208
0.00451017
0.00446828
0.00442642
0.00438464
0.00434295
0.00430139
0.00425997
0.00421873
0.00417769
0.00413686
0.00409627
0.00405593
0.00401585
0.00397606
0.00393656
0.00389737
0.00385849
0.00381994
0.00378173
0.00374386
0.00370633
0.00366916
0.00363235
0.00359589
0.0035598
0.00352408
0.00348873
0.00345375
0.00341914
0.0033849
0.00335103
0.00331754
0.00328442
0.00325166
0.00321928
0.00318726
0.0031556
0.0031243
0.00309336
0.00306278
0.00303255
0.00300267
0.00297314
0.00294394
0.00291509
0.00288657
0.00285838
0.00283052
0.00280299
0.00277577
0.00274886
0.00272226
0.00269596
0.00266995
0.00264422
0.00261875
0.00259354
0.00256855
0.00254377
0.00251917
0.00249469
0.00247029
0.0024459
0.00242145
0.00239683
0.00237202
0.00234652
0.0023137
1.53338e-06
0.000102056
0.000231932
0.000358897
0.000487601
0.000618988
0.000755713
0.000899697
0.0010526
0.00121495
0.00138724
0.00155301
0.00170461
0.00184478
0.00197626
0.00210103
0.00222043
0.00233538
0.00244654
0.00255442
0.0026594
0.00276178
0.00286183
0.00295974
0.00305594
0.00315071
0.0032443
0.00333689
0.00342863
0.00351961
0.00360992
0.00369959
0.00378864
0.00387705
0.0039648
0.00405184
0.00413809
0.00422348
0.00430792
0.0043913
0.00447353
0.00455448
0.00463404
0.00471211
0.00478857
0.0048633
0.0049362
0.00500716
0.00507607
0.00514285
0.0052074
0.00526964
0.00532949
0.00538688
0.00544175
0.00549403
0.00554369
0.00559067
0.00563495
0.00567649
0.00571528
0.00575129
0.00578453
0.00581499
0.00584269
0.00586762
0.00588982
0.0059093
0.00592609
0.00594023
0.00595175
0.00596069
0.00596709
0.00597102
0.00597251
0.00597164
0.00596848
0.00596305
0.00595543
0.00594568
0.00593387
0.00592008
0.00590436
0.00588678
0.00586744
0.00584638
0.00582369
0.00579943
0.00577369
0.00574652
0.00571801
0.00568821
0.0056572
0.00562504
0.00559181
0.00555757
0.00552238
0.00548631
0.00544942
0.00541178
0.00537345
0.00533448
0.00529493
0.00525485
0.00521431
0.00517334
0.005132
0.00509034
0.0050484
0.00500622
0.00496386
0.00492134
0.00487871
0.00483601
0.00479326
0.00475051