/*--------------------------------*- C++ -*----------------------------------*\
| =========                 |                                                 |
| \\      /  F ield         | OpenFOAM: The Open Source CFD Toolbox           |
|  \\    /   O peration     | Version:  v2012                                 |
|   \\  /    A nd           | Website:  www.openfoam.com                      |
|    \\/     M anipulation  |                                                 |
\*---------------------------------------------------------------------------*/
FoamFile
{
    version     2.0;
    format      ascii;
    class       volScalarField;
    location    "1500";
    object      nuTilda;
}
// * * * * * * * * * * * * * * * * * * * * * * * * * * * * * * * * * * * * * //

dimensions      [0 2 -1 0 0 0 0];


internalField   nonuniform List<scalar> 
12225
(
0.0122671
0.00158833
0.000666932
0.0004122
0.000298016
0.000234159
0.000195392
0.000157339
0.000176941
0.00022408
0.000234056
0.000226501
0.000210758
0.000184534
0.00018264
0.000159534
0.000146603
0.00013507
0.0323823
0.00744533
0.00330642
0.00204337
0.00146818
0.00114461
0.000938757
0.000785516
0.000692777
0.000630495
0.000573694
0.000523658
0.000480384
0.000442753
0.000408812
0.000375093
0.000350908
0.000324964
0.0490123
0.01515
0.00728196
0.00457856
0.00330642
0.00258056
0.00211301
0.00178266
0.00154819
0.0013734
0.00123198
0.00111589
0.00101926
0.000937752
0.000867543
0.000805007
0.000754911
0.000701284
0.063054
0.0237783
0.0122894
0.00788815
0.00573399
0.004485
0.00367427
0.00310478
0.00268778
0.00236972
0.00211708
0.0019122
0.0017432
0.00160175
0.00148185
0.00137824
0.00129098
0.00120404
0.074932
0.0328517
0.0181452
0.0119262
0.0087455
0.00686414
0.00563083
0.00476163
0.00411886
0.00362522
0.00323419
0.00291762
0.0026569
0.00243912
0.0022551
0.00209767
0.00196286
0.00183929
0.0849536
0.0420208
0.0246655
0.0166359
0.0123325
0.00972588
0.00799541
0.00676756
0.00585404
0.00514965
0.00459121
0.00413902
0.00376661
0.00345561
0.00319285
0.00296853
0.00277571
0.00260622
0.0933822
0.0510219
0.0316642
0.0219415
0.016474
0.0130717
0.0107779
0.00913545
0.00790595
0.00695413
0.00619794
0.00558486
0.00507963
0.00465758
0.00430098
0.00399671
0.0037351
0.00350896
0.0993794
0.0583363
0.0378386
0.0268568
0.0204171
0.0163053
0.0134892
0.011453
0.00991903
0.00872658
0.00777675
0.00700544
0.00636917
0.00583738
0.00538795
0.00500451
0.00467503
0.00439175
0.104023
0.0645454
0.0433804
0.0314239
0.0241571
0.0194092
0.0161097
0.0137018
0.0118767
0.0104522
0.00931463
0.00838927
0.00762512
0.00698604
0.00644576
0.00598483
0.00558894
0.00524914
0.108368
0.0708939
0.0493757
0.0365497
0.0284517
0.0230231
0.0191863
0.0163548
0.0141927
0.0124969
0.0111382
0.0100305
0.00911451
0.0083478
0.00769933
0.00714605
0.00667097
0.00626329
0.112368
0.0772557
0.0557282
0.0421918
0.0332976
0.0271652
0.0227468
0.0194433
0.0168984
0.0148904
0.013275
0.0119546
0.0108606
0.00994395
0.00916815
0.00850608
0.0079376
0.00744942
0.115994
0.0834975
0.0623054
0.0482612
0.0386474
0.0318167
0.026789
0.0229739
0.0200047
0.0176453
0.0157379
0.0141737
0.012875
0.0117851
0.010862
0.0100738
0.00939692
0.00881487
0.119234
0.0894856
0.0689377
0.0546109
0.0443919
0.0369007
0.0312597
0.0269089
0.0234837
0.02074
0.0185097
0.0166735
0.015145
0.0138601
0.0127706
0.0118397
0.0110399
0.010351
0.122086
0.095084
0.075415
0.0610223
0.0503361
0.0422535
0.0360231
0.0311353
0.0272402
0.0240931
0.0215191
0.0193909
0.0176141
0.0161175
0.0148467
0.0137602
0.0128258
0.0120198
0.124546
0.100135
0.0814619
0.0671726
0.056158
0.047577
0.0408126
0.0354174
0.031066
0.0275197
0.0246013
0.0221778
0.0201482
0.018435
0.0169783
0.0157315
0.0146584
0.0137312
0.126578
0.104396
0.0866605
0.0725515
0.0613228
0.0523526
0.0451453
0.0393148
0.0345631
0.0306611
0.0274325
0.024741
0.0224806
0.020569
0.0189413
0.0175468
0.0163455
0.0153062
0.128011
0.107322
0.0902141
0.0762353
0.0648743
0.0556509
0.0481493
0.0420254
0.0370012
0.0328553
0.0294126
0.0265352
0.0241143
0.0220643
0.0203171
0.0188191
0.0175275
0.0164083
0.128006
0.107313
0.0902048
0.0762269
0.0648674
0.0556454
0.048145
0.0420221
0.0369988
0.0328536
0.0294117
0.0265349
0.0241147
0.0220651
0.0203184
0.0188205
0.0175286
0.0164082
0.126509
0.104255
0.0864922
0.0723807
0.0611613
0.052205
0.0450127
0.0391967
0.0344584
0.0305685
0.0273506
0.0246684
0.0224163
0.0205118
0.0188902
0.0175005
0.0163023
0.015263
0.124267
0.0995604
0.0807712
0.0664676
0.0554886
0.0469631
0.0402594
0.0349227
0.0306248
0.0271258
0.0242487
0.0218611
0.0198625
0.0181762
0.0167425
0.0155151
0.0144574
0.0135404
0.12136
0.0936399
0.0737261
0.0593348
0.0487592
0.0408248
0.0347466
0.0300003
0.0262308
0.0231927
0.0207126
0.018665
0.0169571
0.0155197
0.0142998
0.0132566
0.0123582
0.0115797
0.117686
0.0865903
0.0656967
0.0514791
0.0415374
0.0343608
0.0290183
0.0249322
0.0217348
0.0191848
0.0171183
0.015421
0.0140105
0.0128262
0.0118228
0.0109656
0.0102279
0.00958883
0.11305
0.0784122
0.056921
0.0432687
0.0342296
0.0279652
0.0234365
0.0200435
0.0174263
0.0153597
0.0136965
0.0123369
0.0112106
0.010267
0.00946858
0.00878711
0.00820092
0.00769337
0.107169
0.0691009
0.0476372
0.035029
0.0271566
0.021922
0.0182437
0.0155401
0.0134817
0.0118705
0.0105815
0.00953192
0.00866481
0.0079396
0.00732661
0.00680372
0.00635406
0.00596487
0.0996761
0.0587036
0.0381279
0.0270699
0.0205782
0.0164329
0.0135949
0.0115437
0.0099992
0.00879904
0.00784336
0.00706751
0.00642784
0.00589355
0.00544219
0.00505735
0.00472636
0.00444006
0.0901097
0.0473665
0.0287363
0.0196847
0.0146976
0.0116311
0.00957851
0.00811522
0.00702329
0.00617984
0.00551046
0.00496783
0.00452101
0.00414818
0.00383306
0.00356468
0.00333354
0.00313385
0.0779076
0.0353826
0.0198606
0.0131383
0.00966106
0.00759297
0.00623351
0.0052742
0.00456398
0.00401867
0.00358679
0.00323597
0.00294695
0.00270614
0.00250168
0.00232843
0.00217819
0.00204896
0.06238
0.0232554
0.0119461
0.00765494
0.00556338
0.00435257
0.00356723
0.00301639
0.00261306
0.0023079
0.00206646
0.00186714
0.00170194
0.00156491
0.00144595
0.00134728
0.00125894
0.0011844
0.0426105
0.0117794
0.00546931
0.00341388
0.00246077
0.00192015
0.00157277
0.00132989
0.00115841
0.00103925
0.000944526
0.000858348
0.000784863
0.000723868
0.000665096
0.000619733
0.000572773
0.000541996
0.0168348
0.0025599
0.00110031
0.000684193
0.00049518
0.000389165
0.000321398
0.000273256
0.000272797
0.000341061
0.000385932
0.000373816
0.000344687
0.000314879
0.000278014
0.000275183
0.000218534
0.00028341
3.76929e-06
1.42937e-05
2.59686e-05
3.84531e-05
4.58956e-05
4.95263e-05
5.00602e-05
4.75447e-05
4.43675e-05
3.92779e-05
3.39596e-05
2.92375e-05
2.66758e-05
2.73503e-05
2.96358e-05
3.1375e-05
3.11659e-05
2.81945e-05
2.35536e-05
2.0313e-05
2.12528e-05
2.67162e-05
3.94955e-05
6.52322e-05
8.7623e-05
0.000101086
0.000113686
0.000124662
0.000134579
0.000143047
0.000150599
0.000157188
0.000163023
0.000168154
0.000172668
0.000176678
0.000180252
0.00018346
0.000186348
0.000188951
0.000191294
0.000193394
0.000195267
0.000196925
0.000198381
0.000199645
0.000200727
0.000201632
0.00020236
0.000202907
0.000203135
0.000203371
0.000203415
0.000203295
0.000203017
0.000202602
0.000202045
0.000201351
0.000200522
0.000199559
0.000198466
0.000197244
0.000195896
0.000194425
0.000192835
0.000191127
0.000189304
0.000187369
0.000185325
0.000183178
0.000180929
0.000178584
0.000176147
0.000173623
0.000171014
0.000168326
0.000165559
0.000162712
0.000159783
0.000156763
0.000153643
0.000150415
0.000147072
0.000143612
0.000140041
0.000136367
0.000132598
0.000128737
0.000124775
0.000120695
0.000116473
0.000112089
0.000107541
0.000102882
9.83219e-05
9.43568e-05
9.15587e-05
8.98169e-05
8.85066e-05
8.73027e-05
8.61195e-05
8.49408e-05
8.37649e-05
8.25926e-05
8.14247e-05
8.02621e-05
7.91063e-05
7.79615e-05
7.68491e-05
7.5898e-05
7.49638e-05
7.4036e-05
7.31163e-05
7.22048e-05
7.1302e-05
7.04081e-05
6.95236e-05
6.86488e-05
6.7784e-05
6.69293e-05
6.6085e-05
6.52511e-05
6.44282e-05
6.36166e-05
6.28162e-05
6.2027e-05
6.12501e-05
6.05129e-05
5.98358e-05
5.91674e-05
5.85042e-05
5.78549e-05
5.72238e-05
5.65971e-05
5.59753e-05
5.53616e-05
5.47569e-05
5.41619e-05
5.35767e-05
5.30009e-05
5.24347e-05
5.18777e-05
5.133e-05
5.07912e-05
5.02614e-05
4.97404e-05
4.92281e-05
4.87243e-05
4.82291e-05
4.77423e-05
4.72639e-05
4.67937e-05
4.63319e-05
4.58784e-05
4.54331e-05
4.4996e-05
4.45674e-05
4.41472e-05
4.37355e-05
4.33326e-05
4.29387e-05
4.25538e-05
4.21784e-05
4.18126e-05
4.14566e-05
4.11106e-05
4.07745e-05
4.04481e-05
4.01309e-05
3.98222e-05
3.95201e-05
3.92242e-05
3.89276e-05
3.86384e-05
3.8315e-05
3.8048e-05
3.7554e-05
3.73502e-05
3.62936e-05
3.49027e-05
5.92309e-06
4.06145e-05
9.24454e-05
0.000153668
0.000192334
0.000214149
0.000222751
0.000221196
0.000213171
0.000197484
0.000178402
0.000160561
0.000151882
0.000156754
0.000169109
0.000176958
0.000179311
0.000180758
0.000186131
0.000194873
0.000208751
0.000225251
0.000241109
0.000256532
0.000267372
0.000276856
0.000285426
0.000298284
0.000316715
0.000330336
0.000342776
0.000353481
0.000363232
0.000372157
0.000379927
0.000387028
0.000393648
0.000400006
0.000406229
0.000412381
0.000418456
0.000424411
0.000430194
0.000435763
0.000441092
0.000446162
0.00045096
0.000455472
0.000459699
0.000463654
0.000467323
0.000470758
0.000473927
0.000476849
0.000479521
0.000481946
0.000484124
0.000486056
0.000487742
0.000489183
0.000490379
0.000491331
0.000492041
0.000492514
0.00049276
0.000492784
0.00049258
0.000492145
0.000491495
0.000490634
0.000489569
0.000488305
0.00048685
0.000485211
0.000483395
0.00048141
0.000479264
0.000476963
0.000474515
0.000471925
0.0004692
0.000466345
0.000463367
0.000460274
0.000457075
0.000453781
0.000450403
0.000446952
0.000443436
0.000439864
0.000436239
0.000432568
0.000428847
0.00042507
0.000421218
0.000417263
0.000413192
0.000409033
0.000404836
0.000400625
0.000396407
0.000392186
0.000387966
0.000383751
0.000379543
0.000375346
0.000371164
0.000366997
0.000362847
0.00035871
0.000354599
0.000350517
0.000346465
0.000342447
0.000338464
0.000334517
0.000330608
0.000326738
0.000322909
0.000319122
0.000315378
0.000311678
0.000308022
0.000304412
0.00030085
0.000297333
0.000293863
0.000290438
0.000287057
0.000283722
0.000280433
0.000277199
0.000274018
0.000270875
0.00026777
0.000264708
0.000261692
0.000258724
0.000255802
0.000252927
0.000250097
0.000247313
0.000244574
0.000241879
0.000239228
0.000236619
0.000234054
0.00023153
0.000229048
0.000226607
0.000224207
0.000221847
0.000219528
0.000217249
0.00021501
0.000212812
0.000210654
0.000208538
0.000206463
0.000204432
0.000202444
0.000200502
0.000198606
0.000196759
0.000194962
0.000193216
0.000191521
0.000189878
0.000188286
0.000186744
0.000185246
0.000183794
0.000182362
0.000180997
0.000179528
0.000178384
0.000176347
0.000176028
0.00017303
0.000172145
1.29044e-05
7.4124e-05
0.000174141
0.000251509
0.000303026
0.000332456
0.000343056
0.000340045
0.000327276
0.00030836
0.000289204
0.000277238
0.000275389
0.000282156
0.000292376
0.000303101
0.000315832
0.000332702
0.000354127
0.000378986
0.000405953
0.000433947
0.000472987
0.000518908
0.000564284
0.000608205
0.000651135
0.000694679
0.00073364
0.000764642
0.000789424
0.000809078
0.000824665
0.000837039
0.000846977
0.00085525
0.000862553
0.000869526
0.0008767
0.000884428
0.000892811
0.000901726
0.000910932
0.000920195
0.000929339
0.000938245
0.000946836
0.000955066
0.000962897
0.000970305
0.000977256
0.000983737
0.000989732
0.000995241
0.00100026
0.00100479
0.00100882
0.00101236
0.00101542
0.00101797
0.00102004
0.00102161
0.00102269
0.00102324
0.00102339
0.0010231
0.00102231
0.00102107
0.00101938
0.00101726
0.00101472
0.00101178
0.00100844
0.00100473
0.00100065
0.000996219
0.000991456
0.000986372
0.000980983
0.000975303
0.000969348
0.000963132
0.00095667
0.000949976
0.000943067
0.000935958
0.000928663
0.000921198
0.000913576
0.000905811
0.000897915
0.000889899
0.000881771
0.000873539
0.000865213
0.000856801
0.000848317
0.000839775
0.000831193
0.000822584
0.000813958
0.000805325
0.000796692
0.000788067
0.000779456
0.000770868
0.000762309
0.000753784
0.000745299
0.00073686
0.000728472
0.000720141
0.000711872
0.000703667
0.000695532
0.000687469
0.000679481
0.000671571
0.000663743
0.000655998
0.000648338
0.000640765
0.000633282
0.000625889
0.000618588
0.00061138
0.000604264
0.000597242
0.000590314
0.000583481
0.000576743
0.000570101
0.000563552
0.000557091
0.000550716
0.000544431
0.000538238
0.000532136
0.000526126
0.000520208
0.00051438
0.000508641
0.000502992
0.000497429
0.000491954
0.000486563
0.000481257
0.000476033
0.000470891
0.000465831
0.000460849
0.000455947
0.000451121
0.000446373
0.000441699
0.0004371
0.000432574
0.00042812
0.000423736
0.000419422
0.000415176
0.000410997
0.000406882
0.000402829
0.000398837
0.0003949
0.000391017
0.00038718
0.000383384
0.00037962
0.000375876
0.000372139
0.000368383
0.000364591
0.000360692
0.00035671
0.000352309
0.000348008
0.000341552
0.000330399
2.18012e-05
0.000106408
0.000219991
0.000312374
0.000374769
0.000411438
0.000426584
0.000426808
0.000416829
0.000403675
0.00039597
0.000395432
0.000404931
0.000422239
0.000445008
0.000472758
0.00050608
0.000545289
0.000589597
0.000653273
0.000727212
0.000807102
0.000890839
0.000961008
0.0010231
0.00107895
0.00112911
0.00117379
0.00121284
0.00124654
0.00127564
0.00130086
0.00132289
0.00134237
0.00135986
0.00137585
0.00139076
0.00140491
0.00141856
0.0014319
0.00144507
0.00145811
0.00147107
0.00148392
0.00149661
0.00150906
0.00152118
0.00153288
0.00154406
0.00155466
0.0015646
0.00157387
0.00158244
0.0015903
0.00159743
0.00160383
0.0016095
0.00161444
0.00161863
0.00162209
0.00162481
0.00162679
0.00162794
0.00162837
0.00162824
0.00162733
0.0016257
0.00162338
0.00162038
0.00161672
0.00161242
0.0016075
0.00160198
0.00159587
0.00158921
0.00158202
0.00157431
0.00156611
0.00155745
0.00154834
0.00153881
0.00152888
0.00151858
0.00150792
0.00149694
0.00148565
0.00147407
0.00146223
0.00145016
0.00143786
0.00142536
0.00141268
0.00139983
0.00138684
0.0013737
0.00136046
0.00134711
0.00133368
0.0013202
0.00130667
0.00129311
0.00127954
0.00126598
0.00125242
0.00123889
0.00122539
0.00121194
0.00119855
0.00118522
0.00117195
0.00115877
0.00114568
0.00113268
0.00111979
0.001107
0.00109432
0.00108176
0.00106932
0.001057
0.00104481
0.00103276
0.00102084
0.00100906
0.000997415
0.000985914
0.000974556
0.000963341
0.000952271
0.000941346
0.000930568
0.000919937
0.000909452
0.00089911
0.000888907
0.000878842
0.000868917
0.000859133
0.00084949
0.000839987
0.000830625
0.000821402
0.000812317
0.000803368
0.000794554
0.000785873
0.000777323
0.000768903
0.00076061
0.000752443
0.000744401
0.000736481
0.000728681
0.000721001
0.000713437
0.000705989
0.000698653
0.00069143
0.000684316
0.000677309
0.000670408
0.000663609
0.000656911
0.000650309
0.000643802
0.000637383
0.00063105
0.000624795
0.000618611
0.000612488
0.000606414
0.000600374
0.000594345
0.000588298
0.000582197
0.000575977
0.000569582
0.000562838
0.000555676
0.000547457
0.000531366
2.69765e-05
0.000121998
0.00024097
0.000357442
0.00043515
0.000482019
0.000505325
0.000513706
0.000515358
0.00051661
0.000523854
0.000540365
0.000566727
0.000601972
0.000645355
0.000696923
0.000757496
0.000841299
0.000937323
0.00103297
0.00112166
0.00120578
0.00128481
0.00135721
0.00142371
0.00148489
0.00154115
0.00159283
0.00164026
0.00168389
0.00172421
0.00176169
0.00179675
0.00182977
0.00186105
0.00189086
0.00191937
0.00194673
0.00197304
0.00199835
0.0020227
0.00204609
0.00206852
0.00208998
0.00211044
0.00212986
0.00214822
0.00216549
0.00218165
0.00219666
0.00221053
0.00222325
0.00223484
0.00224531
0.00225468
0.00226296
0.00227017
0.00227633
0.00228145
0.00228556
0.00228865
0.00229069
0.00229161
0.00229169
0.00229081
0.00228893
0.00228609
0.00228232
0.00227763
0.00227204
0.00226559
0.0022583
0.0022502
0.00224132
0.00223169
0.00222133
0.00221028
0.00219858
0.00218624
0.00217331
0.00215981
0.00214578
0.00213124
0.00211623
0.00210078
0.00208491
0.00206866
0.00205207
0.00203514
0.00201793
0.00200045
0.00198272
0.00196478
0.00194664
0.00192833
0.00190988
0.0018913
0.00187262
0.00185387
0.00183506
0.00181621
0.00179736
0.0017785
0.00175967
0.00174087
0.00172213
0.00170344
0.00168484
0.00166632
0.0016479
0.0016296
0.00161141
0.00159336
0.00157545
0.00155768
0.00154007
0.00152262
0.00150534
0.00148822
0.00147129
0.00145453
0.00143796
0.00142158
0.00140539
0.00138939
0.00137359
0.00135798
0.00134258
0.00132737
0.00131236
0.00129755
0.00128294
0.00126852
0.0012543
0.00124027
0.00122643
0.00121279
0.00119933
0.00118607
0.001173
0.00116012
0.00114743
0.00113492
0.00112259
0.00111045
0.00109848
0.00108669
0.00107507
0.00106363
0.00105235
0.00104124
0.00103029
0.0010195
0.00100888
0.000998404
0.000988085
0.000977916
0.000967895
0.000958019
0.000948285
0.000938689
0.000929229
0.000919899
0.000910696
0.000901615
0.000892648
0.000883789
0.000875029
0.000866355
0.000857754
0.000849206
0.000840686
0.00083216
0.000823585
0.000814894
0.000806015
0.000796787
0.000787056
0.000777101
0.000757322
3.07967e-05
0.000135289
0.000261376
0.000392159
0.000488158
0.00054955
0.000587168
0.000610603
0.000628512
0.000648125
0.000674625
0.000710598
0.000756754
0.000813372
0.000881017
0.000971875
0.00107722
0.00117881
0.00127786
0.00137308
0.00146352
0.00154926
0.00163026
0.00170649
0.00177825
0.00184588
0.00190973
0.00197013
0.00202741
0.00208191
0.00213393
0.00218378
0.00223169
0.00227787
0.00232249
0.00236566
0.00240747
0.00244797
0.0024872
0.00252516
0.00256185
0.00259724
0.00263132
0.00266404
0.00269537
0.00272526
0.00275368
0.00278058
0.00280593
0.00282969
0.00285185
0.00287236
0.00289123
0.00290843
0.00292396
0.00293783
0.00295002
0.00296056
0.00296946
0.00297672
0.00298237
0.00298645
0.00298888
0.00298978
0.00298931
0.00298734
0.00298399
0.00297929
0.00297328
0.00296602
0.00295757
0.00294798
0.00293729
0.00292556
0.00291283
0.00289917
0.0028846
0.00286918
0.00285295
0.00283596
0.00281824
0.00279985
0.00278081
0.00276118
0.00274098
0.00272027
0.00269908
0.00267745
0.00265542
0.00263302
0.00261029
0.00258725
0.00256396
0.00254043
0.00251669
0.00249278
0.00246873
0.00244456
0.0024203
0.00239598
0.00237162
0.00234725
0.00232288
0.00229855
0.00227427
0.00225006
0.00222593
0.0022019
0.00217799
0.00215422
0.00213058
0.00210711
0.0020838
0.00206067
0.00203773
0.00201499
0.00199246
0.00197014
0.00194803
0.00192616
0.00190451
0.00188311
0.00186194
0.00184101
0.00182033
0.0017999
0.00177971
0.00175978
0.0017401
0.00172068
0.0017015
0.00168258
0.00166391
0.00164548
0.0016273
0.00160937
0.00159168
0.00157423
0.00155702
0.00154006
0.00152333
0.00150684
0.00149059
0.00147456
0.00145877
0.00144319
0.00142784
0.00141271
0.0013978
0.00138309
0.0013686
0.00135431
0.00134023
0.00132634
0.00131265
0.00129915
0.00128584
0.00127272
0.00125978
0.00124701
0.00123443
0.00122201
0.00120975
0.00119766
0.00118572
0.00117393
0.00116227
0.00115074
0.00113933
0.00112802
0.00111679
0.0011056
0.00109443
0.00108323
0.00107194
0.00106047
0.00104866
0.00103645
0.00102428
0.00100182
3.23446e-05
0.000142464
0.000273836
0.000409556
0.000527295
0.00060838
0.000664411
0.000706447
0.000743691
0.000783365
0.000830476
0.000887926
0.000957452
0.00105016
0.0011574
0.00126399
0.00137002
0.00147324
0.00157312
0.00166927
0.00176145
0.00184968
0.00193404
0.00201472
0.00209194
0.00216598
0.00223711
0.00230562
0.00237174
0.00243571
0.00249775
0.00255803
0.00261669
0.00267386
0.00272961
0.002784
0.00283708
0.00288884
0.00293928
0.00298839
0.00303613
0.00308247
0.00312736
0.00317075
0.00321259
0.00325282
0.00329141
0.00332828
0.00336339
0.0033967
0.00342817
0.00345774
0.00348539
0.00351109
0.00353481
0.00355653
0.00357624
0.00359392
0.00360957
0.00362319
0.00363479
0.00364437
0.00365195
0.00365757
0.00366122
0.00366284
0.00366275
0.00366076
0.00365698
0.00365147
0.00364426
0.00363541
0.003625
0.00361306
0.00359968
0.00358491
0.00356882
0.00355147
0.00353294
0.00351329
0.00349258
0.00347089
0.00344829
0.00342482
0.00340057
0.00337559
0.00334995
0.00332369
0.00329688
0.00326958
0.00324182
0.00321367
0.00318516
0.00315635
0.00312726
0.00309795
0.00306846
0.00303881
0.00300904
0.00297919
0.0029493
0.00291938
0.00288947
0.00285959
0.00282977
0.00280003
0.00277039
0.00274088
0.0027115
0.00268229
0.00265325
0.0026244
0.00259575
0.00256733
0.00253913
0.00251117
0.00248345
0.002456
0.00242881
0.0024019
0.00237526
0.00234891
0.00232285
0.00229708
0.00227161
0.00224643
0.00222156
0.00219699
0.00217273
0.00214877
0.00212511
0.00210175
0.0020787
0.00205595
0.00203349
0.00201133
0.00198946
0.00196788
0.0019466
0.0019256
0.00190489
0.00188447
0.00186433
0.00184446
0.00182487
0.00180554
0.00178649
0.0017677
0.00174916
0.00173088
0.00171285
0.00169507
0.00167754
0.00166024
0.00164318
0.00162635
0.00160974
0.00159336
0.0015772
0.00156125
0.00154552
0.00152999
0.00151466
0.00149952
0.00148457
0.0014698
0.0014552
0.00144076
0.00142647
0.0014123
0.00139824
0.00138426
0.00137032
0.00135638
0.00134235
0.00132819
0.00131372
0.00129897
0.00128396
0.00125972
3.2784e-05
0.000144052
0.000275112
0.000409061
0.000538749
0.000641967
0.00071911
0.000780618
0.000836628
0.000894837
0.000963271
0.00105587
0.001166
0.00128747
0.00140293
0.0015141
0.0016218
0.00172623
0.00182732
0.00192501
0.00201933
0.00211036
0.00219825
0.00228319
0.0023654
0.0024451
0.00252252
0.00259786
0.00267132
0.00274307
0.00281325
0.00288198
0.00294934
0.0030154
0.00308021
0.00314377
0.0032061
0.00326717
0.00332696
0.00338543
0.00344252
0.00349818
0.00355236
0.00360499
0.00365601
0.00370534
0.00375293
0.00379871
0.00384262
0.0038846
0.0039246
0.00396256
0.00399844
0.00403219
0.00406378
0.00409318
0.00412035
0.00414528
0.00416795
0.00418835
0.00420648
0.00422233
0.00423591
0.00424724
0.00425633
0.0042632
0.00426792
0.00427037
0.0042708
0.00426916
0.00426549
0.00425984
0.00425228
0.00424285
0.00423161
0.00421864
0.00420399
0.00418773
0.00416994
0.00415067
0.00413
0.00410801
0.00408476
0.00406033
0.00403479
0.00400821
0.00398067
0.00395223
0.00392296
0.00389292
0.0038622
0.00383084
0.0037989
0.00376646
0.00373356
0.00370027
0.00366663
0.00363269
0.00359852
0.00356414
0.00352962
0.00349499
0.00346029
0.00342555
0.00339082
0.00335613
0.0033215
0.00328697
0.00325256
0.0032183
0.0031842
0.00315029
0.0031166
0.00308312
0.00304989
0.00301692
0.00298422
0.0029518
0.00291968
0.00288785
0.00285634
0.00282515
0.00279428
0.00276374
0.00273354
0.00270368
0.00267416
0.00264498
0.00261615
0.00258767
0.00255954
0.00253175
0.00250431
0.00247722
0.00245046
0.00242405
0.00239798
0.00237224
0.00234684
0.00232177
0.00229704
0.00227263
0.00224855
0.00222478
0.00220134
0.0021782
0.00215538
0.00213286
0.00211064
0.00208872
0.00206709
0.00204574
0.00202468
0.0020039
0.00198339
0.00196315
0.00194318
0.00192347
0.00190402
0.00188481
0.00186585
0.00184714
0.00182866
0.00181041
0.00179238
0.00177456
0.00175695
0.00173953
0.00172228
0.0017052
0.00168825
0.0016714
0.00165462
0.00163787
0.00162106
0.00160413
0.00158693
0.00156953
0.00155161
0.00152547
3.2221e-05
0.000141087
0.000268635
0.000397533
0.000521108
0.000632945
0.00072667
0.000808058
0.000891952
0.000987841
0.00109763
0.00122272
0.00135916
0.00148653
0.00160671
0.00172161
0.0018322
0.00193883
0.00204183
0.00214156
0.00223824
0.00233206
0.00242324
0.00251197
0.00259846
0.00268292
0.00276554
0.00284649
0.00292592
0.00300396
0.00308072
0.00315628
0.00323069
0.00330399
0.00337618
0.00344726
0.00351722
0.003586
0.00365357
0.00371986
0.00378482
0.00384836
0.00391042
0.00397092
0.00402978
0.00408693
0.00414228
0.00419575
0.00424729
0.00429682
0.00434426
0.00438957
0.00443268
0.00447355
0.00451213
0.00454837
0.00458225
0.00461373
0.00464279
0.00466941
0.00469359
0.00471531
0.00473459
0.00475142
0.00476582
0.00477781
0.00478742
0.00479465
0.00479958
0.00480215
0.00480254
0.00480072
0.00479676
0.0047907
0.00478259
0.00477251
0.00476051
0.00474666
0.00473102
0.00471366
0.00469465
0.00467406
0.00465197
0.00462845
0.00460356
0.00457739
0.00455
0.00452148
0.00449188
0.00446129
0.00442977
0.00439738
0.00436421
0.0043303
0.00429574
0.00426057
0.00422486
0.00418868
0.00415207
0.0041151
0.00407782
0.00404028
0.00400253
0.00396461
0.00392658
0.00388846
0.00385031
0.00381215
0.00377403
0.00373597
0.00369801
0.00366018
0.00362249
0.00358499
0.00354768
0.00351059
0.00347375
0.00343716
0.00340085
0.00336482
0.0033291
0.00329369
0.0032586
0.00322385
0.00318944
0.00315538
0.00312167
0.00308833
0.00305534
0.00302272
0.00299048
0.0029586
0.00292709
0.00289595
0.00286519
0.00283479
0.00280477
0.00277511
0.00274581
0.00271689
0.00268832
0.00266012
0.00263227
0.00260478
0.00257764
0.00255085
0.00252439
0.00249828
0.00247251
0.00244706
0.00242194
0.00239714
0.00237267
0.0023485
0.00232464
0.00230109
0.00227784
0.00225488
0.00223221
0.00220983
0.00218772
0.0021659
0.00214434
0.00212304
0.00210199
0.00208119
0.00206063
0.00204028
0.00202015
0.0020002
0.00198041
0.00196075
0.00194119
0.00192166
0.00190211
0.00188246
0.00186257
0.00184251
0.00182177
0.00179344
3.08468e-05
0.000134993
0.000257874
0.000383026
0.000504869
0.000620897
0.000731638
0.000840988
0.000956311
0.00108262
0.00122107
0.0013711
0.00151326
0.0016451
0.00176924
0.00188755
0.00200114
0.00211067
0.00221651
0.00231886
0.00241814
0.00251472
0.0026089
0.00270094
0.00279107
0.00287949
0.00296639
0.00305191
0.0031362
0.00321937
0.00330148
0.00338261
0.00346279
0.00354203
0.00362033
0.00369764
0.00377395
0.00384919
0.0039233
0.0039962
0.00406781
0.00413805
0.00420684
0.00427407
0.00433966
0.00440352
0.00446556
0.00452569
0.00458383
0.0046399
0.00469382
0.00474553
0.00479496
0.00484206
0.00488676
0.00492902
0.00496881
0.00500608
0.00504081
0.00507298
0.00510257
0.00512958
0.005154
0.00517584
0.0051951
0.0052118
0.00522597
0.00523762
0.0052468
0.00525352
0.00525784
0.00525978
0.00525944
0.00525683
0.00525201
0.00524505
0.00523599
0.00522491
0.00521187
0.00519694
0.00518018
0.00516166
0.00514146
0.00511964
0.00509628
0.00507145
0.00504523
0.00501769
0.00498889
0.00495892
0.00492784
0.00489572
0.00486263
0.00482863
0.0047938
0.0047582
0.0047219
0.00468495
0.00464742
0.00460937
0.00457085
0.00453193
0.00449265
0.00445308
0.00441324
0.0043732
0.004333
0.00429268
0.00425229
0.00421185
0.00417141
0.004131
0.00409066
0.00405041
0.00401029
0.00397031
0.00393051
0.00389091
0.00385153
0.00381238
0.00377349
0.00373488
0.00369655
0.00365852
0.00362081
0.00358342
0.00354637
0.00350966
0.0034733
0.0034373
0.00340166
0.00336638
0.00333148
0.00329694
0.00326278
0.003229
0.00319559
0.00316256
0.0031299
0.00309762
0.00306572
0.00303419
0.00300304
0.00297226
0.00294184
0.0029118
0.00288211
0.00285279
0.00282382
0.0027952
0.00276694
0.00273901
0.00271144
0.00268419
0.00265728
0.0026307
0.00260445
0.00257851
0.0025529
0.00252759
0.00250259
0.00247789
0.00245348
0.00242936
0.00240552
0.00238196
0.00235865
0.00233559
0.00231277
0.00229015
0.00226772
0.00224544
0.00222328
0.00220117
0.00217906
0.00215686
0.00213446
0.00211189
0.00208859
0.00205792
2.92987e-05
0.000128695
0.000248058
0.000372227
0.000496837
0.000620824
0.000745743
0.000875331
0.001013
0.00116065
0.00131845
0.00148002
0.00162761
0.0017639
0.00189187
0.00201351
0.00213009
0.00224242
0.00235104
0.00245633
0.00255861
0.00265805
0.00275512
0.00285015
0.00294344
0.00303522
0.00312569
0.00321501
0.00330331
0.0033907
0.00347725
0.003563
0.00364797
0.00373217
0.00381556
0.00389812
0.00397979
0.00406049
0.00414015
0.00421868
0.00429599
0.00437198
0.00444654
0.00451957
0.00459098
0.00466065
0.00472849
0.0047944
0.00485829
0.00492007
0.00497966
0.00503698
0.00509195
0.00514451
0.00519461
0.00524219
0.0052872
0.00532961
0.00536938
0.0054065
0.00544094
0.00547268
0.00550173
0.00552809
0.00555177
0.00557277
0.00559112
0.00560684
0.00561997
0.00563052
0.00563855
0.0056441
0.00564721
0.00564793
0.00564633
0.00564245
0.00563636
0.00562812
0.00561778
0.00560541
0.00559109
0.00557488
0.00555685
0.00553707
0.00551562
0.00549256
0.00546797
0.00544192
0.00541449
0.00538574
0.00535575
0.00532458
0.00529231
0.00525899
0.00522471
0.00518952
0.0051535
0.0051167
0.00507918
0.00504102
0.00500227
0.00496298
0.00492322
0.00488303
0.00484247
0.00480159
0.00476043
0.00471905
0.00467748
0.00463578
0.00459397
0.00455209
0.00451019
0.0044683
0.00442644
0.00438466
0.00434297
0.0043014
0.00425999
0.00421875
0.00417771
0.00413688
0.00409629
0.00405595
0.00401587
0.00397608
0.00393658
0.00389739
0.00385852
0.00381997
0.00378175
0.00374388
0.00370636
0.00366919
0.00363237
0.00359592
0.00355983
0.00352411
0.00348876
0.00345378
0.00341917
0.00338493
0.00335107
0.00331757
0.00328445
0.0032517
0.00321931
0.00318729
0.00315563
0.00312434
0.0030934
0.00306282
0.00303259
0.00300271
0.00297318
0.00294398
0.00291513
0.00288661
0.00285843
0.00283057
0.00280303
0.00277581
0.00274891
0.00272231
0.00269601
0.00267
0.00264427
0.0026188
0.00259359
0.00256861
0.00254383
0.00251922
0.00249474
0.00247035
0.00244596
0.00242151
0.00239689
0.00237209
0.00234658
0.00231377
2.76096e-05
0.000122115
0.000238083
0.000361614
0.000489093
0.000619918
0.000756339
0.000900138
0.00105293
0.00121519
0.00138743
0.00155316
0.00170474
0.00184488
0.00197636
0.00210111
0.0022205
0.00233544
0.0024466
0.00255448
0.00265945
0.00276183
0.00286187
0.00295978
0.00305598
0.00315075
0.00324434
0.00333693
0.00342866
0.00351964
0.00360995
0.00369961
0.00378866
0.00387708
0.00396483
0.00405186
0.00413811
0.0042235
0.00430794
0.00439132
0.00447354
0.00455449
0.00463406
0.00471213
0.00478858
0.00486331
0.00493621
0.00500717
0.00507609
0.00514287
0.00520742
0.00526966
0.00532951
0.0053869
0.00544176
0.00549405
0.0055437
0.00559068
0.00563496
0.0056765
0.00571529
0.0057513
0.00578454
0.00581501
0.0058427
0.00586764
0.00588983
0.00590931
0.0059261
0.00594024
0.00595176
0.0059607
0.0059671
0.00597103
0.00597252
0.00597165
0.00596849
0.00596306
0.00595544
0.00594569
0.00593388
0.00592009
0.00590437
0.0058868
0.00586745
0.00584639
0.0058237
0.00579945
0.0057737
0.00574653
0.00571802
0.00568822
0.00565721
0.00562505
0.00559182
0.00555758
0.00552239
0.00548632
0.00544944
0.0054118
0.00537346
0.00533449
0.00529494
0.00525487
0.00521432
0.00517335
0.00513201
0.00509035
0.00504841
0.00500624
0.00496387
0.00492136
0.00487873
0.00483602